/*--------------------------------*- C++ -*----------------------------------*\
| =========                 |                                                 |
| \\      /  F ield         | OpenFOAM: The Open Source CFD Toolbox           |
|  \\    /   O peration     | Version:  v2012                                 |
|   \\  /    A nd           | Website:  www.openfoam.com                      |
|    \\/     M anipulation  |                                                 |
\*---------------------------------------------------------------------------*/
FoamFile
{
    version     2.0;
    format      ascii;
    class       surfaceVectorField;
    location    "1000";
    object      Uf_0;
}
// * * * * * * * * * * * * * * * * * * * * * * * * * * * * * * * * * * * * * //

dimensions      [0 1 -1 0 0 0 0];


internalField   nonuniform List<vector> 
20673
(
(1.09919 0.125046 1.58218e-20)
(1.10338 0.122424 -2.84105e-20)
(1.09851 0.119903 3.5376e-22)
(1.02237 0.0422094 9.96308e-22)
(1.02113 0.0415519 3.19142e-22)
(1.02139 0.0435361 0)
(0.541538 -0.0756142 1.16487e-20)
(0.576866 -0.078002 1.38243e-20)
(0.604012 -0.0792976 4.21566e-21)
(1.05628 -0.0131467 6.48953e-21)
(1.05652 -0.0120678 -1.37397e-20)
(1.05536 -0.0124247 0)
(0.996474 0.00384892 -2.73604e-21)
(0.996297 0.00343578 0)
(0.995992 0.00401573 -4.5323e-21)
(0.371888 0.0613809 1.11835e-19)
(0.360178 0.0343809 1.70578e-19)
(0.343211 0.062176 2.14201e-19)
(0.489064 -0.0663747 0)
(0.483193 -0.0679673 4.00622e-21)
(0.534683 -0.0711232 0)
(0.600209 -0.0769242 2.3937e-20)
(0.550487 -0.0741064 5.04566e-21)
(0.569422 -0.0770986 -6.61222e-21)
(0.41247 -0.0672094 1.81817e-20)
(0.381152 -0.0638578 1.69535e-20)
(0.347787 -0.0596722 -7.0917e-21)
(1.14141 0.150409 5.35021e-21)
(1.14771 0.15024 2.85481e-20)
(1.14533 0.156527 2.53638e-20)
(1.11919 -0.0707973 -1.43868e-20)
(1.11755 -0.0713542 -3.94409e-20)
(1.11991 -0.0725368 -2.1696e-20)
(1.09259 -0.049484 -2.5218e-21)
(1.09307 -0.0510099 7.58035e-22)
(1.094 -0.0493057 -1.68623e-20)
(1.05714 -0.0134904 5.16557e-21)
(-0.0336518 -0.00703972 0)
(-0.0129781 -0.0111151 0)
(-0.0397842 -0.00866589 -2.71699e-20)
(0.974957 0.0973888 3.53674e-21)
(0.970729 0.0968841 0)
(0.973747 0.0931006 1.21758e-22)
(0.997054 0.0924037 -8.75752e-21)
(0.994692 0.0899502 -3.07018e-21)
(0.998405 0.0885942 -4.93006e-21)
(1.01562 0.0482215 -3.2567e-22)
(1.01707 0.047855 0)
(1.01589 0.046641 0)
(1.1441 0.0167674 0)
(1.14519 0.0191847 -2.46876e-20)
(1.14705 0.0159204 1.91452e-20)
(1.0912 -0.0500551 1.45995e-20)
(1.09169 -0.0483004 -2.59452e-21)
(1.00164 0.00516632 0)
(1.00165 0.004936 0)
(1.00146 0.00477539 -1.35351e-21)
(0.999982 0.000985372 3.64326e-24)
(0.99997 0.00132433 -5.93456e-21)
(0.999985 0.000994361 -3.13829e-21)
(0.487897 -0.0670112 0)
(0.451375 -0.0664593 1.10281e-20)
(1.00099 0.00798326 -1.49483e-21)
(1.00106 0.00842752 2.33704e-21)
(1.00118 0.008275 0)
(0.641784 -0.0827938 9.44124e-21)
(0.651637 -0.0832937 1.59224e-20)
(0.995445 0.0155041 -3.76707e-21)
(0.99496 0.0152994 6.59121e-21)
(0.995204 0.0160862 -1.05296e-20)
(0.542832 -0.0675842 5.58832e-21)
(0.504571 -0.0637871 -1.49371e-20)
(0.500539 -0.065488 4.65992e-21)
(0.788748 0.0377623 2.69957e-20)
(0.77978 0.04342 -2.93803e-20)
(0.780945 0.0314893 -1.88672e-20)
(0.76172 0.122273 -4.2103e-20)
(0.760267 0.134811 -3.81622e-20)
(0.751312 0.125679 1.21434e-20)
(0.717152 0.562041 0)
(0.748351 0.572589 0)
(0.726344 0.606103 0)
(1.19993 0.0927137 0)
(1.19936 0.0878009 -1.17183e-20)
(1.20452 0.0887594 0)
(1.11756 0.111347 1.56561e-20)
(1.11437 0.114507 1.37773e-20)
(1.11319 0.109815 1.4772e-20)
(1.06477 0.0906692 -4.1997e-21)
(1.06183 0.0914197 2.59488e-22)
(1.06269 0.0879877 -4.25105e-21)
(0.842497 0.0723144 -7.09877e-21)
(0.834738 0.0750614 -1.10446e-20)
(0.835978 0.0656152 -1.14484e-20)
(0.908013 0.00349496 -2.04167e-20)
(0.910739 0.000465484 -2.15004e-20)
(0.912044 0.00435245 -4.63857e-21)
(0.991704 0.0123006 2.94852e-21)
(0.99117 0.0129498 -3.19518e-21)
(0.991882 0.0131924 6.04773e-21)
(1.12473 -0.0893639 -1.10441e-20)
(1.12612 -0.089619 2.17587e-20)
(1.12155 -0.0920022 -1.08156e-20)
(1.00085 0.00765416 -1.26607e-21)
(1.00099 0.0075464 3.03869e-22)
(0.111566 -0.0353831 -3.26379e-21)
(0.0858624 -0.0319952 8.2613e-22)
(0.0983036 -0.0328527 1.50355e-20)
(1.06282 -0.0177889 -1.85724e-21)
(1.06369 -0.0186664 -3.03317e-21)
(0.286391 -0.0138434 0)
(0.262168 -0.0104644 1.1621e-20)
(0.290519 -0.0132437 -1.75364e-20)
(1.00864 0.000927781 4.83272e-22)
(1.00903 0.000910329 2.56953e-22)
(1.0082 0.000526348 1.05573e-21)
(0.999995 0.000695775 -2.76396e-21)
(1 0.000325367 1.20749e-21)
(0.999998 0.000354684 4.88227e-22)
(1.02109 0.00233266 -9.50605e-22)
(1.02079 0.00251303 -1.60589e-21)
(1.02067 0.00219972 6.40284e-22)
(0.697576 0.198459 0)
(0.714079 0.206213 0)
(0.697049 0.220371 0)
(1.03924 0.0240564 3.06494e-21)
(1.04019 0.0247789 0)
(1.04044 0.0238588 2.2439e-21)
(0.891071 0.0196482 -1.44877e-20)
(0.889545 0.0150856 6.64379e-22)
(0.894977 0.0161853 -1.12983e-20)
(1.14321 0.0134443 0)
(1.1409 0.0167518 1.89517e-20)
(1.14723 -0.0177438 3.98253e-20)
(1.14585 -0.0152771 -1.76414e-20)
(1.14436 -0.0179201 1.30971e-20)
(0.0910923 0.127084 1.17549e-19)
(0.0903142 0.162682 -1.4786e-20)
(0.120103 0.141592 1.29906e-19)
(1.00338 0.000758818 1.32685e-21)
(1.00369 0.000688 3.68745e-22)
(1.00362 0.00106383 3.35363e-22)
(1.08706 0.0132226 -4.71612e-21)
(1.08815 0.0142311 9.30357e-21)
(1.08861 0.0126059 -1.11181e-22)
(0.966316 0.011029 -6.19717e-21)
(0.965096 0.00970331 -5.4451e-21)
(0.964724 0.0117995 -2.17743e-20)
(0.0847765 0.0971449 9.79074e-20)
(0.051316 0.130148 -7.57619e-20)
(0.904969 0.00662235 3.33214e-20)
(0.90379 0.00218339 -1.30378e-20)
(1.01537 0.049773 -3.25118e-22)
(1.01403 0.0483256 6.23107e-22)
(1.08767 0.0363926 -1.93981e-20)
(1.08694 0.0385052 -5.5614e-21)
(1.08948 0.0381246 1.04861e-20)
(1.12119 -0.0703681 2.5398e-20)
(1.11938 -0.0689179 2.74782e-20)
(0.995664 0.0310279 -1.16933e-21)
(0.995681 0.0295923 3.4823e-22)
(0.996749 0.0305703 3.38383e-21)
(1.0729 0.0432397 0)
(1.07504 0.0442524 -5.77832e-21)
(1.07299 0.0456907 8.48531e-21)
(1.03808 0.0242207 -2.67697e-23)
(1.03824 0.0233068 -7.78872e-22)
(0.584743 0.0519976 -4.19835e-20)
(0.437426 0.0349438 9.09579e-20)
(0.49447 0.0392806 -1.30256e-19)
(1.02365 0.0414957 -9.69639e-22)
(1.02373 0.0434497 9.22083e-22)
(-0.0318498 -0.00451309 3.82381e-20)
(1.00164 0.00537218 -1.32749e-21)
(1.00183 0.00554624 9.78886e-22)
(0.380065 0.0966471 -1.00165e-19)
(0.403744 0.065608 -1.7404e-19)
(1.1051 0.380917 -7.77094e-20)
(1.0651 0.353125 3.82209e-20)
(0.804888 0.266065 4.01651e-20)
(0.995724 3.63991e-05 -3.88414e-21)
(0.99527 0.00021965 -3.93828e-21)
(0.987705 -0.00046105 -6.38603e-22)
(0.988467 -0.000521719 -3.39902e-21)
(1.16144 -0.054772 1.48897e-21)
(1.15944 -0.0561348 -6.41804e-20)
(1.16289 -0.0572339 -1.96754e-20)
(1.06408 0.136435 4.30779e-21)
(1.06952 0.136372 -5.52822e-21)
(1.06601 0.142565 1.46116e-20)
(0.996899 0.0037187 -9.26015e-21)
(0.996621 0.00426137 1.88396e-21)
(0.478956 -0.074592 -1.61488e-20)
(0.44372 -0.0712487 -2.4134e-20)
(-0.117396 -0.0204018 1.57768e-20)
(-0.0926833 -0.0237408 0)
(-0.100359 -0.0228164 -2.93512e-20)
(0.996103 0.0156631 2.72181e-21)
(0.995819 0.0147299 -1.001e-20)
(0.0910502 0.197562 -1.76169e-20)
(0.125738 0.215923 6.07239e-21)
(0.0930005 0.236155 6.44447e-20)
(1.08428 -0.0564772 1.51894e-20)
(1.08368 -0.0556139 -1.0406e-20)
(1.08482 -0.0553466 -1.46933e-20)
(-0.121497 -0.0140863 -2.22085e-20)
(-0.0964422 -0.0183411 7.16977e-22)
(-0.112184 -0.0142663 -5.65743e-20)
(1.05501 0.0258454 -3.33083e-21)
(1.05639 0.02637 4.1753e-21)
(1.05524 0.0274346 9.8071e-21)
(0.518276 -0.0578542 4.91064e-21)
(0.514918 -0.060182 -1.4856e-20)
(0.555088 -0.0622486 4.41139e-21)
(0.999939 0.00199339 3.72697e-21)
(0.999888 0.00233075 -3.68523e-21)
(0.999908 0.00237196 4.41403e-22)
(1.00008 0.00321449 -1.80368e-22)
(1.00009 0.00353689 2.40105e-21)
(1.00011 0.00313837 -4.01318e-22)
(0.996134 0.000314303 -2.54647e-21)
(0.38943 0.122784 6.38365e-20)
(0.399857 0.152883 6.36463e-20)
(0.421198 0.128895 6.92973e-20)
(0.141368 -0.0398304 -2.58618e-20)
(0.128945 -0.0390711 1.12152e-20)
(-0.0787328 0.0132629 -7.88047e-20)
(-0.12043 0.0100785 5.85961e-21)
(-0.109259 0.00974716 -7.22771e-20)
(1.05355 0.025436 2.91901e-21)
(1.0547 0.0244796 -7.23476e-21)
(1.00041 0.00446912 1.76735e-21)
(1.00046 0.00438496 -3.19931e-21)
(1.00034 0.00404525 -1.32909e-21)
(1.12364 0.409026 -2.3328e-20)
(1.21493 0.442949 -1.59476e-19)
(1.08538 0.0122187 -5.57904e-21)
(1.08522 0.0141035 -5.0179e-21)
(1.02135 0.00222327 -2.86991e-21)
(1.02147 0.00252534 -2.30942e-22)
(-0.015946 -0.0306841 -1.21975e-20)
(-0.0435899 -0.0277893 -2.65384e-20)
(-0.0307499 -0.0286154 -1.07773e-20)
(1.18539 0.127998 2.4848e-20)
(1.1793 0.130266 3.38741e-20)
(1.18292 0.134659 -9.84238e-21)
(1.02403 0.024149 0)
(1.02437 0.023338 0)
(1.02336 0.0233344 0)
(0.975172 0.0535554 -9.31867e-21)
(0.973117 0.0547951 -4.33042e-21)
(0.975604 0.056075 -9.10609e-21)
(1.1906 0.438009 1.42086e-19)
(1.05142 0.402268 8.19735e-20)
(0.37427 0.00721294 -3.02953e-21)
(0.402984 3.22112e-05 -5.13091e-20)
(0.380086 -0.0273321 -9.21622e-20)
(1.13513 -0.0550231 -1.60009e-20)
(1.1371 -0.0549622 -4.83959e-20)
(1.13633 -0.0570891 -2.45963e-20)
(1.14479 -0.00803365 -1.05096e-20)
(1.14757 -0.00786461 -1.34132e-20)
(1.14609 -0.00551601 -2.71113e-20)
(1.0886 -0.0669639 -1.14006e-20)
(1.0878 -0.0679099 1.19015e-20)
(1.08724 -0.0671155 -1.07166e-20)
(0.594904 0.134072 -1.72122e-20)
(0.61504 0.119572 -2.61649e-20)
(0.616903 0.146062 -1.0946e-19)
(1.01129 0.00571671 -3.26624e-22)
(1.01175 0.00581974 -6.75434e-22)
(1.01157 0.00621584 -1.83576e-21)
(0.84093 0.000608412 1.29057e-20)
(0.844416 0.00798082 1.07805e-19)
(0.848513 0.00116234 4.30193e-20)
(0.681144 0.191776 0)
(0.699146 0.183087 -3.45791e-21)
(1.06248 0.0198371 -5.96583e-21)
(1.06373 0.0195462 0)
(1.06263 0.0182894 7.48108e-21)
(1.01667 0.0124563 -8.59486e-22)
(1.0167 0.0118753 1.36008e-22)
(1.01728 0.0124037 -4.64069e-22)
(0.431192 -0.0645671 0)
(0.420856 -0.0641801 0)
(0.498909 -0.0660234 1.47134e-20)
(0.821388 0.499375 -3.73273e-21)
(0.793148 0.517401 2.53865e-20)
(0.83213 0.52549 -5.13688e-21)
(1.14835 -0.019491 -9.01673e-21)
(1.14964 -0.0172349 4.57337e-20)
(1.01864 0.0474072 -2.73288e-22)
(1.01859 0.0491825 -1.01394e-22)
(1.11624 0.124577 -4.41632e-22)
(1.11256 0.127405 8.67398e-22)
(1.11746 0.129656 1.62856e-20)
(-0.161586 -0.0170085 -5.8383e-20)
(-0.192443 -0.0162465 1.06823e-22)
(-0.178992 -0.0165495 -4.24315e-20)
(0.303006 -0.0169236 7.18196e-21)
(0.279248 -0.0132826 1.08062e-20)
(1.09407 -0.0568567 -4.79239e-21)
(1.09299 -0.0572747 -4.93066e-21)
(1.09385 -0.0580374 1.97729e-20)
(0.431007 -0.0658728 2.17992e-20)
(0.366499 -0.0642095 1.39567e-20)
(0.949271 0.00945368 1.05841e-20)
(0.947902 0.0114959 1.55242e-20)
(0.947162 0.0087724 -8.3864e-21)
(0.0881289 -0.127531 1.88549e-19)
(0.0989956 -0.0977847 -1.58459e-19)
(0.0612926 -0.10322 1.86227e-19)
(1.00113 0.0140283 2.92547e-21)
(1.00122 0.0146765 -3.64411e-22)
(1.00085 0.0143543 9.78601e-22)
(0.181471 0.100714 6.96214e-20)
(0.211538 0.0822487 0)
(0.212654 0.117391 -1.38423e-20)
(0.144578 -0.0149566 2.70394e-21)
(0.152585 -0.0168385 0)
(0.165806 -0.0205105 -2.37128e-20)
(0.907599 0.0145339 -3.84805e-20)
(0.9048 0.017805 -1.21147e-20)
(0.909418 0.0182349 1.0159e-20)
(1.00001 0.00105434 0)
(0.999989 0.00104104 3.54413e-21)
(1.16327 -0.0535588 3.36334e-20)
(1.1605 -0.0528596 1.49712e-20)
(0.105344 -0.0164663 0)
(0.125955 -0.0205835 0)
(0.118267 -0.0198356 0)
(0.763554 0.110372 2.00508e-20)
(0.775293 0.119069 3.55947e-20)
(1.0051 0.000661714 0)
(1.00533 0.000961178 1.42911e-22)
(1.00543 0.000561785 1.42884e-23)
(0.975088 0.0508707 1.35002e-20)
(0.977412 0.0521593 -4.18792e-21)
(1.03528 0.0273837 -2.93687e-21)
(1.03606 0.0282838 0)
(1.03495 0.028371 0)
(1.00478 0.000677158 1.75985e-22)
(1.00465 0.000331471 0)
(1.01809 0.00181738 0)
(1.01833 0.00165393 -2.00802e-21)
(1.01801 0.00154994 0)
(0.346015 0.00829799 5.90897e-20)
(0.226685 -0.0376512 7.9041e-21)
(0.215245 -0.0347233 5.16673e-21)
(0.20428 -0.031591 -1.03383e-20)
(0.95079 0.007065 -9.28116e-21)
(0.951813 0.00979804 6.97493e-21)
(1.04111 0.0254882 3.30277e-21)
(1.03988 0.0257609 0)
(0.99997 0.000960044 -4.22283e-22)
(0.999998 0.000653212 -3.73925e-21)
(1.25556 -0.00884968 5.63188e-20)
(1.271 -0.00597764 2.94084e-20)
(1.22811 -0.0159287 -9.85214e-21)
(0.688928 -0.0878249 -1.67452e-20)
(0.631526 -0.083014 -3.69853e-20)
(1.09952 0.129906 1.29992e-20)
(1.09496 0.126974 2.4389e-20)
(0.578569 0.145233 5.59437e-20)
(0.579054 0.117525 -7.72426e-20)
(0.995234 0.000683845 -5.13939e-21)
(0.994774 0.000348813 1.82125e-21)
(0.906106 0.0105933 9.33581e-21)
(0.910376 0.0117025 -3.30689e-20)
(1.12038 -0.0873338 6.29615e-21)
(1.11714 -0.0869346 0)
(1.11227 -0.0845048 0)
(1.02551 0.0128023 -4.26118e-21)
(1.02546 0.0133817 0)
(1.02475 0.0128731 -2.63756e-21)
(0.963603 0.023141 -2.7265e-21)
(0.961482 0.0239102 -6.13326e-21)
(0.962183 0.0213097 -3.89558e-20)
(0.664265 0.195782 2.51795e-20)
(0.643879 0.202041 2.76704e-20)
(0.662495 0.218769 -8.66431e-21)
(0.987495 0.000272252 -5.02707e-21)
(0.986925 -0.00028433 -5.45589e-22)
(0.681805 -0.0766029 0)
(0.604609 -0.0725415 3.51727e-22)
(0.677051 -0.0756869 -3.14651e-20)
(0.809957 0.605059 0)
(0.817644 0.575609 0)
(0.782786 0.576653 0)
(0.967651 0.012642 7.79661e-21)
(0.968194 0.010458 8.25343e-21)
(1.02401 0.0107448 0)
(1.02408 0.0112981 0)
(1.0234 0.0108228 1.24225e-21)
(1.05948 0.0981599 0)
(1.05582 0.0986642 1.07349e-20)
(1.05843 0.102498 1.04727e-20)
(1.11948 -0.0270235 3.46108e-21)
(1.12105 -0.0287304 5.68746e-21)
(1.12109 -0.0258141 2.48918e-20)
(0.112298 -0.148807 4.95436e-20)
(0.0729371 -0.158088 6.47365e-20)
(1.11403 -0.0515474 2.65851e-20)
(1.1158 -0.0522458 2.75225e-21)
(1.11395 -0.0532031 -8.80215e-21)
(1.02601 0.183 1.53578e-21)
(1.0291 0.178086 3.29139e-21)
(1.03368 0.182171 -6.82724e-21)
(1.0813 0.0627735 0)
(1.07921 0.0647956 1.01056e-20)
(1.07844 0.0618161 0)
(-0.0396985 0.0432504 -2.03347e-20)
(-0.0578318 0.0488748 -3.89544e-20)
(-0.0904893 0.0416349 0)
(1.05902 0.137005 0)
(1.0619 0.132044 0)
(1.10096 -0.0929592 0)
(1.13207 -0.0899276 -1.67984e-20)
(1.14007 -0.0897611 -1.73555e-20)
(-0.153572 -0.0119288 -7.80176e-21)
(-0.128893 -0.0147697 2.95509e-21)
(1.28311 -0.00598223 -3.84746e-20)
(1.21921 -0.00718386 3.82025e-20)
(0.942171 0.0455039 4.84678e-21)
(0.939388 0.0471481 0)
(0.939212 0.0435246 0)
(0.78902 -0.0256038 1.52463e-20)
(0.783354 -0.0171294 2.47984e-20)
(0.777494 -0.0280467 -7.72051e-21)
(1.00001 0.00247247 7.52508e-22)
(1.00003 0.00238461 -2.46657e-21)
(0.999991 0.00203184 2.74905e-21)
(1.1328 -0.0557968 3.11508e-20)
(1.13373 -0.0533475 2.13319e-20)
(1.09548 -0.0564744 -3.41352e-21)
(1.09428 -0.0555156 -8.15174e-21)
(1.08915 -0.0661052 1.09506e-20)
(1.08987 -0.0669069 1.40061e-20)
(1.06231 0.0211566 -5.63714e-21)
(1.06123 0.0199882 2.20269e-21)
(1.13235 -0.0183157 -1.49668e-21)
(1.13089 -0.0200661 3.28212e-20)
(1.13352 -0.0206622 3.37561e-20)
(1.03286 0.0203995 -7.57067e-21)
(1.0337 0.0210174 5.20581e-22)
(1.03266 0.0212958 -4.71399e-21)
(0.837727 -0.00565437 -3.69471e-20)
(0.833216 0.0015698 -5.49281e-20)
(1.05147 0.176842 8.16511e-21)
(1.04415 0.176293 0)
(1.04945 0.170104 8.08806e-21)
(-0.299454 -0.00550362 -7.50966e-20)
(-0.316183 -0.00419613 -1.04675e-20)
(-0.28595 -0.00575911 -2.49431e-20)
(1.09032 -0.059087 -2.02916e-21)
(1.0908 -0.0601593 -8.80161e-21)
(1.09153 -0.0591332 -9.95368e-21)
(1.01457 0.056151 7.22735e-22)
(1.01454 0.0579628 1.71211e-22)
(1.01273 0.0567599 0)
(0.785535 -0.081803 -4.49174e-21)
(0.776653 -0.0820793 -5.20033e-21)
(0.849501 -0.0824985 -7.15731e-22)
(1.01806 0.201118 1.05482e-22)
(1.01514 0.206161 -2.23352e-21)
(1.02302 0.205976 -3.10179e-21)
(0.238026 -0.0382491 -2.86572e-22)
(0.253741 -0.041363 2.33368e-21)
(0.150439 0.0837071 1.5622e-20)
(0.151222 0.121132 1.15817e-19)
(0.696321 -0.0780174 1.26085e-20)
(0.764743 -0.0786407 0)
(1.01304 0.0268286 -2.53149e-22)
(1.01374 0.027502 -2.67261e-22)
(1.01288 0.0277076 5.21731e-24)
(1.1911 0.126531 2.05732e-20)
(1.18732 0.122272 2.28751e-20)
(1.12273 0.112875 0)
(1.12124 0.108193 2.06517e-21)
(1.02621 0.0126803 -2.55671e-21)
(1.02547 0.0121953 -2.74074e-21)
(1.00038 0.00457714 2.40782e-21)
(1.00048 0.00493031 8.94881e-22)
(0.937966 0.118524 -1.16954e-20)
(0.934009 0.11457 0)
(0.940115 0.11399 1.37751e-20)
(0.59003 -0.0715769 0)
(0.585196 -0.0717648 0)
(1.26295 0.134809 1.01523e-19)
(1.2707 0.132755 2.28352e-20)
(1.27177 0.14001 2.35064e-20)
(-0.0217184 0.0432694 7.19381e-21)
(0.0456925 0.0576431 -9.0977e-20)
(1.11923 0.0390513 8.81293e-21)
(1.11881 0.0416881 -3.10076e-21)
(1.12156 0.040404 8.57286e-21)
(1.09791 -0.065974 -1.0993e-20)
(1.09689 -0.0661909 -1.75093e-20)
(1.09745 -0.0671709 -2.51401e-20)
(1.13544 -0.0858897 8.41159e-21)
(1.14201 -0.0879441 -1.18609e-20)
(1.1456 -0.0876915 1.02347e-20)
(-0.0316972 0.0155929 2.14101e-20)
(-0.0450995 0.0152614 -4.3287e-20)
(1.25724 0.180156 0)
(1.25753 0.173236 1.51391e-20)
(1.26571 0.177322 8.23828e-20)
(0.999836 0.00843468 1.1168e-21)
(0.999915 0.00803548 5.1917e-21)
(0.999747 0.00793434 -2.2166e-21)
(0.567178 0.0556324 0)
(0.572904 0.075741 8.89027e-20)
(0.547926 0.0699845 0)
(0.7972 0.034361 6.42715e-20)
(0.796418 0.0455329 4.75031e-20)
(1.00976 0.000381828 0)
(1.0094 0.000377669 2.44049e-22)
(1.02362 0.0248193 0)
(1.02471 0.0249104 0)
(0.869904 0.466122 -5.81416e-22)
(0.864621 0.438639 -1.65973e-20)
(0.891862 0.44753 -7.0393e-21)
(1.22865 0.494036 -6.55587e-20)
(1.22998 0.473144 8.425e-21)
(1.12479 0.439595 -8.10348e-20)
(1.07702 -0.00454005 8.18874e-21)
(1.07812 -0.00540388 1.96466e-21)
(1.07851 -0.00398994 2.63959e-21)
(1.0032 0.000911862 5.11043e-22)
(1.00318 0.000569335 4.71419e-22)
(1.12537 -0.0213251 9.89116e-21)
(1.12395 -0.0194679 7.60198e-21)
(1.12683 -0.019338 -6.75659e-21)
(1.11818 -0.0286922 -2.90179e-20)
(1.11754 -0.025982 -3.54501e-20)
(-0.133826 -0.0184839 3.80317e-20)
(-0.140723 -0.0179198 -4.5419e-20)
(1.24352 -0.0421008 1.38619e-20)
(1.24301 -0.0443191 1.95563e-20)
(1.24455 -0.041962 -1.21654e-20)
(0.992176 0.0118747 -2.15451e-22)
(0.991699 0.0116864 3.74629e-21)
(0.994592 0.0312837 0)
(0.995625 0.03221 4.18631e-21)
(1.14225 -0.0082133 5.60044e-22)
(1.14339 -0.0105216 6.4897e-21)
(0.560613 -0.0743003 -1.67024e-20)
(0.618885 -0.0773498 3.95206e-21)
(0.600634 -0.0767488 -1.03393e-20)
(0.96547 0.022125 3.25255e-20)
(0.965214 0.0245199 8.86611e-21)
(0.474992 -0.0685583 8.34776e-22)
(0.464519 -0.0683838 -2.01963e-20)
(0.519193 -0.0718034 5.39571e-22)
(-0.189387 -0.013024 -6.11328e-21)
(-0.163864 -0.014785 -1.10093e-19)
(-0.183235 -0.0128854 -2.89324e-20)
(1.09845 -0.0649315 1.31547e-21)
(1.0993 -0.0662048 2.61296e-20)
(1.0162 0.0124088 -1.88334e-21)
(1.01666 0.0129051 2.33135e-23)
(0.493746 0.391335 2.44126e-20)
(0.513432 0.426268 3.08092e-20)
(0.460474 0.427246 0)
(1.13443 -0.00829525 6.12712e-22)
(1.13708 -0.0083696 0)
(1.13565 -0.00599865 0)
(-0.280546 -0.0108171 1.08784e-19)
(-0.249264 -0.0139226 -1.15991e-19)
(-0.266571 -0.0103009 4.06436e-22)
(1.00316 0.0184905 3.36787e-21)
(1.00356 0.0189007 2.24117e-21)
(1.00318 0.0192959 -5.455e-22)
(0.731866 0.0726799 5.35191e-20)
(0.686859 0.0706056 5.49367e-21)
(1.01227 0.0260518 0)
(1.01313 0.0259572 1.96523e-22)
(1.19537 0.066439 -3.1701e-20)
(1.19154 0.0642332 6.71644e-22)
(1.19154 0.0685976 2.64624e-20)
(1.00849 0.00120505 0)
(1.00828 0.000835348 0)
(0.0880521 -0.0374928 -1.96138e-21)
(0.0628289 -0.0354993 -2.24214e-20)
(0.0816888 -0.0362536 -4.55807e-21)
(0.412141 -0.063651 3.56825e-20)
(0.402262 -0.0632902 1.15554e-20)
(0.477157 -0.0643208 9.01848e-20)
(0.996542 0.0957054 -2.15884e-21)
(1.00015 0.094415 1.48782e-21)
(1.18296 0.489842 -3.58006e-20)
(1.22533 0.502575 -3.85579e-21)
(1.19452 0.471343 2.64658e-20)
(1.0842 0.0633968 0)
(1.08276 0.0605587 0)
(1.0155 0.0122977 1.20888e-22)
(1.01562 0.0117428 -8.45172e-22)
(1.1171 -0.0877786 -3.27291e-22)
(1.124 -0.0896958 -4.72485e-21)
(1.08918 -0.0590482 1.87374e-20)
(1.08982 -0.0580193 1.88242e-20)
(1.11703 0.0377353 -1.3384e-20)
(1.11944 0.0364836 -1.51397e-20)
(0.666643 -0.0827988 1.97161e-20)
(0.620404 -0.0813258 -6.17606e-21)
(0.689427 -0.0836149 -1.37648e-20)
(-0.197494 -0.00994004 -1.76505e-20)
(-0.218492 -0.0094748 4.45608e-20)
(1.01231 0.0031139 3.1472e-22)
(1.01271 0.00315911 2.95077e-22)
(1.01249 0.00273393 -1.76341e-22)
(1.06769 0.0896106 0)
(1.06702 0.0934258 -1.08516e-20)
(0.00320425 -0.0337722 -3.87665e-20)
(0.0159227 -0.034456 1.04986e-20)
(-0.13253 0.0142937 -7.62283e-21)
(-0.161017 0.0119129 -6.91565e-21)
(-0.135997 0.0147544 -1.65281e-20)
(0.999998 0.0024427 3.06921e-21)
(0.999983 0.00285468 3.29802e-23)
(1.00622 0.00901353 -4.24551e-23)
(1.00664 0.00926638 4.83274e-22)
(1.0064 0.00947569 -5.06223e-23)
(0.328658 -0.0130232 -5.8274e-21)
(0.34672 -0.0160748 3.94143e-21)
(1.14294 -0.0564389 -5.06812e-21)
(1.14099 -0.0569718 -2.06311e-21)
(1.14214 -0.0588508 1.26019e-21)
(1.00006 0.000135222 -4.59567e-22)
(1.00003 0.000103237 3.05777e-22)
(1.00006 0.000169754 1.2675e-21)
(1.1011 -0.0841429 -7.70632e-21)
(1.09881 -0.0836038 -2.1026e-20)
(1.09899 -0.0822529 8.95322e-21)
(1.18181 0.00856662 -1.11184e-20)
(1.18049 0.00520773 -2.14495e-20)
(1.17787 0.00843116 0)
(0.798264 -0.0255099 6.13252e-20)
(0.793723 -0.0351381 -2.51178e-20)
(1.09548 0.107644 -1.80236e-22)
(1.09859 0.111204 1.9827e-20)
(1.09916 0.106085 3.81122e-20)
(1.00003 0.00280994 -2.69262e-21)
(1.00005 0.0023668 3.05455e-22)
(0.983593 0.212851 5.75735e-21)
(0.984957 0.20307 5.32288e-21)
(0.975146 0.207386 1.80083e-22)
(-0.161434 -0.0131393 0)
(-0.159057 -0.0122321 0)
(-0.191644 -0.00900367 -4.39407e-20)
(1.04115 0.00275875 -1.58619e-22)
(1.04135 0.00207322 1.50621e-20)
(1.04215 0.00259252 1.29498e-20)
(1.20795 0.14231 3.88171e-20)
(1.20229 0.145829 -2.78189e-20)
(1.2028 0.137869 -7.98575e-20)
(0.568499 0.162932 -3.7574e-21)
(0.584013 0.183697 8.63439e-20)
(0.554063 0.189055 1.03895e-21)
(1.03449 0.026469 -4.17875e-22)
(1.03555 0.0263145 -2.96205e-21)
(0.995752 0.0283121 -2.50411e-21)
(0.994781 0.0286894 1.40018e-21)
(1.10903 -0.0446176 -2.48446e-20)
(1.11069 -0.0456636 -7.41775e-21)
(1.10875 -0.0463737 2.59035e-21)
(0.35833 -0.0224667 4.80081e-21)
(0.343931 -0.0195909 -3.89699e-21)
(0.34128 -0.0198236 -3.86935e-21)
(1.11223 -0.0511469 2.21124e-20)
(1.11409 -0.0499167 -3.98664e-21)
(0.940963 0.122918 -1.14273e-20)
(0.935319 0.124151 6.53401e-21)
(0.978935 0.0972445 2.95714e-21)
(0.976331 0.101085 -1.68355e-21)
(1.00005 0.000293606 -1.97801e-21)
(1.00005 0.000255151 1.10827e-22)
(1.00002 0.00017186 -9.26367e-22)
(0.085636 -0.0131245 0)
(0.093199 -0.0136495 0)
(0.57352 -0.0446237 3.07714e-20)
(0.66183 -0.0476895 1.47083e-20)
(0.656281 -0.0452527 -2.15145e-21)
(1.09221 -0.0823773 -1.58087e-21)
(1.0961 -0.0834469 1.68566e-20)
(1.09922 -0.0839513 2.25099e-20)
(1.01496 0.0122402 3.04616e-21)
(1.01544 0.012775 3.18485e-21)
(-0.170256 -0.0166883 -1.27941e-20)
(-0.143235 -0.0196397 -5.66026e-20)
(-0.154305 -0.0181314 3.72902e-21)
(-0.0147843 -0.0157892 1.7194e-20)
(-0.00925374 -0.0150784 -2.35429e-20)
(-0.0346472 -0.0112345 1.37011e-20)
(1.04973 -0.0925059 0)
(1.06737 -0.0928887 0)
(0.516226 -0.05791 1.10086e-21)
(0.486214 -0.057169 -1.1502e-21)
(1.08491 -0.0571786 1.53759e-20)
(1.08384 -0.0573117 -9.30386e-21)
(1.00003 0.00326766 6.25819e-22)
(1.00649 0.000740184 0)
(1.00615 0.000789474 0)
(1.00655 0.00116251 -1.76712e-22)
(1.14258 0.0112459 -1.68432e-22)
(1.13982 0.0110816 -2.11153e-20)
(1.14169 0.00864302 -1.75648e-22)
(0.0176552 -0.0288087 -3.92988e-22)
(-0.00110436 -0.025489 -1.01135e-21)
(-0.00672516 -0.0253194 2.18235e-20)
(1.16763 -0.0306095 -1.63542e-20)
(1.16965 -0.0286886 2.19858e-20)
(1.17036 -0.0322067 2.95276e-21)
(1.07073 0.0424595 0)
(1.07261 0.0411634 8.01889e-21)
(1.23888 -0.0414077 1.63616e-21)
(1.2058 -0.0486055 1.35326e-20)
(1.07929 -0.0404684 8.18299e-21)
(1.0784 -0.0396929 2.39547e-20)
(1.01798 0.00100425 4.58637e-21)
(1.01796 0.00125501 5.29928e-22)
(1.0182 0.00112049 1.60567e-21)
(0.931896 0.020233 3.49685e-20)
(0.924239 0.0144045 5.10761e-20)
(0.831861 0.00164265 3.89035e-20)
(1.00208 0.00502733 0)
(1.00208 0.00480517 0)
(1.00187 0.00467882 -1.37505e-21)
(0.78524 -0.0827939 3.48419e-20)
(0.714864 -0.0812578 1.60227e-20)
(1.0758 -0.00334672 5.70325e-21)
(1.07535 -0.00478925 -1.1151e-21)
(1.00006 0.000104777 0)
(1.0001 0.000165648 0)
(1.00319 0.109478 3.29877e-22)
(1.00204 0.114204 -2.86359e-21)
(0.999123 0.109796 4.23153e-21)
(1.02419 0.188819 1.35628e-21)
(1.01962 0.183445 -1.43514e-22)
(0.778079 -0.00727013 0)
(0.788401 -0.00683024 -3.21001e-20)
(1.10838 -0.0861486 0)
(1.10396 -0.0845626 0)
(1.00118 0.144227 -5.48414e-22)
(1.00152 0.150391 0)
(0.995418 0.146357 1.59444e-21)
(1.04447 0.00866953 7.60145e-21)
(1.04514 0.0094925 -3.75508e-21)
(1.04402 0.00933926 -1.35703e-21)
(1.25026 0.0100955 -2.96261e-20)
(1.2539 0.0142185 0)
(1.27107 0.0109452 0)
(0.705675 -0.0838972 2.02692e-20)
(0.64005 -0.0829988 4.71373e-21)
(0.497196 -0.0496817 6.02043e-21)
(0.502299 -0.0483372 5.45464e-20)
(1.00272 0.0182496 1.99216e-21)
(1.00307 0.0178787 4.8278e-22)
(1.03147 -0.0903023 0)
(1.07654 -0.0889642 0)
(1.01977 -0.0893435 2.19795e-20)
(0.998499 0.000596009 2.7005e-21)
(0.998395 0.000867665 5.57027e-21)
(0.998208 0.00067196 4.67865e-21)
(1.04405 0.0078314 2.24348e-21)
(1.04516 0.00792048 4.55876e-21)
(1.00103 0.0133399 -3.93237e-22)
(1.0014 0.013658 1.91855e-21)
(0.839804 0.635532 -7.696e-21)
(0.792435 0.641333 -1.42621e-21)
(1.00164 0.000962982 -8.69745e-22)
(1.00178 0.000838927 2.43524e-23)
(1.00153 0.000756249 0)
(1.19894 0.0684398 3.09489e-20)
(1.19898 0.0641877 -6.90954e-20)
(1.09177 0.110146 -3.53504e-20)
(1.09198 0.105057 -4.62937e-20)
(1.03197 0.0197165 4.50586e-21)
(1.033 0.0194945 -3.9336e-21)
(1.12655 -0.0232491 2.06029e-21)
(1.12374 -0.0226175 -3.5481e-21)
(1.03861 0.0579567 0)
(1.03951 0.0562057 7.40323e-21)
(1.04091 0.0580002 -3.6799e-21)
(0.119588 0.0632569 -1.80101e-19)
(0.107219 0.0474707 -1.68681e-19)
(0.104884 0.0792909 -3.9413e-20)
(1.02166 0.195644 2.99793e-21)
(1.0142 0.196083 3.75757e-21)
(1.1759 0.124411 3.21783e-20)
(1.17294 0.13078 -6.07301e-22)
(1.03053 0.0138096 -1.76217e-21)
(1.03123 0.0144344 -3.77251e-21)
(1.03125 0.0135936 -3.21524e-21)
(0.996667 0.0279203 -7.61112e-21)
(0.995805 0.0271337 -1.18689e-21)
(-0.182362 -0.0144864 3.52097e-20)
(-0.204559 -0.0137415 -6.65107e-20)
(-0.210121 -0.0137109 6.60628e-20)
(0.0837893 -0.0158675 0)
(0.0755677 -0.0153338 0)
(0.0978862 -0.0198127 7.2201e-21)
(1.00122 0.015344 -1.13334e-21)
(1.00155 0.0150129 -1.00361e-21)
(1.00718 0.000681939 -2.72947e-22)
(1.00762 0.000919493 2.21835e-22)
(1.00721 0.00120774 5.32646e-22)
(0.923242 0.0194135 -3.19088e-20)
(1.04271 0.0286617 -1.05148e-19)
(1.01612 0.0252648 5.11307e-22)
(1.01639 0.0262474 6.8548e-22)
(1.0172 0.0257431 -3.60834e-22)
(-0.0658298 -0.0267641 2.98052e-22)
(-0.0838174 -0.0245548 0)
(1.02977 0.0133669 3.10053e-21)
(1.02978 0.0141939 3.40269e-21)
(0.0933496 -0.0381605 0)
(0.113134 -0.0399072 0)
(1.0477 -0.00590073 3.30861e-21)
(1.04714 -0.0065487 0)
(1.04806 -0.0066212 0)
(1.22236 0.325149 -3.84663e-20)
(1.20977 0.324329 -1.00151e-20)
(1.215 0.337475 -4.19976e-20)
(1.10364 0.00014766 -3.39417e-20)
(1.10362 0.00221369 -2.09081e-20)
(1.10575 0.00112678 -4.02044e-21)
(0.0977756 0.311242 -5.10137e-20)
(0.0961578 0.271007 -5.25632e-20)
(0.131327 0.288557 -7.37779e-21)
(0.945401 0.0466505 -3.41127e-21)
(0.944903 0.0432296 -9.75856e-22)
(1.30083 0.00266617 9.45744e-21)
(1.29267 0.00132524 -2.87662e-20)
(0.516792 0.298058 0)
(0.489937 0.308551 0)
(0.517991 0.330634 -2.53192e-20)
(1.00723 0.109652 2.5344e-21)
(1.00471 0.106323 -1.90321e-21)
(1.14387 -0.0547403 -1.32315e-20)
(1.14498 -0.0565786 0)
(0.95557 0.514407 2.03696e-21)
(0.972971 0.532686 -1.9207e-20)
(0.943365 0.537874 1.31085e-21)
(0.99754 0.0446583 -3.72511e-21)
(0.996027 0.0441808 -2.59634e-21)
(0.996476 0.0460245 8.32368e-22)
(0.17181 -0.0359104 0)
(0.145737 -0.0317405 -1.15495e-20)
(0.156594 -0.0327232 6.34653e-21)
(0.582214 0.0443776 0)
(0.561501 0.0355519 6.02299e-20)
(0.00240022 -0.0185465 3.59448e-20)
(-0.0168096 -0.0166955 1.34351e-20)
(0.923369 0.0199919 -3.06995e-21)
(0.919773 0.0212656 -1.55242e-20)
(0.922612 0.0240243 -2.4578e-20)
(0.210024 -0.0146761 5.14693e-21)
(0.186105 -0.0106897 3.14217e-20)
(0.213757 -0.0138801 7.02862e-21)
(1.07089 0.088635 -3.04042e-21)
(1.07336 0.0920369 1.01155e-21)
(1.07434 0.0883686 6.63845e-21)
(-0.108234 -0.00628755 -1.0804e-19)
(-0.0781404 -0.00574984 -6.50396e-20)
(-0.0671394 -0.0071417 1.73264e-20)
(0.523114 0.266858 -4.74041e-20)
(0.548624 0.290055 -4.64385e-20)
(0.931133 0.354191 -9.95025e-21)
(0.914397 0.351834 -2.90332e-21)
(0.92365 0.369555 -9.91055e-21)
(0.949427 0.359627 2.32673e-21)
(0.940892 0.341087 4.05467e-21)
(0.512567 -0.0746271 1.84367e-20)
(0.482967 -0.074172 0)
(0.999768 0.0025897 -8.55849e-21)
(0.999707 0.0029001 1.26374e-21)
(0.999737 0.00293681 -4.6634e-21)
(1.05843 0.175627 -4.0594e-21)
(1.0555 0.182711 7.76982e-21)
(-0.126373 -0.0189007 -4.89414e-21)
(-0.140292 -0.0179746 -3.37557e-20)
(0.983764 0.0305421 -7.80312e-23)
(0.982859 0.0314592 -1.90886e-21)
(0.982498 0.0297654 8.6894e-21)
(1.00381 0.0746356 -1.90862e-21)
(1.00456 0.0722132 5.10682e-21)
(1.0018 0.0727445 5.92057e-21)
(0.00713057 -0.0156554 -1.35049e-20)
(0.0144053 -0.0157269 0)
(0.846518 0.485013 6.46927e-21)
(0.879208 0.493167 -2.06276e-21)
(1.01825 0.052766 -4.93108e-22)
(1.01825 0.0543988 -3.12907e-22)
(1.02012 0.0538055 8.4299e-22)
(1.12909 -0.0838011 2.38798e-20)
(1.12608 -0.0842657 -1.79944e-21)
(0.681878 0.557193 -3.09599e-20)
(0.708223 0.528881 0)
(1.00928 0.00510807 2.52947e-22)
(1.00971 0.00536844 1.22809e-23)
(1.00964 0.00487897 1.0353e-22)
(0.136612 -0.0147473 2.53635e-21)
(0.116769 -0.011172 -1.45874e-20)
(1.12925 -0.0877028 -2.10028e-20)
(1.133 -0.0901379 -1.46859e-20)
(1.1248 -0.0871502 9.18468e-21)
(1.00207 0.0052449 -1.43463e-21)
(1.00228 0.00538701 -7.74857e-22)
(1.01015 0.0132552 1.98696e-23)
(1.00963 0.0128853 1.6185e-22)
(1.00982 0.0135162 2.48116e-23)
(0.998489 0.000301909 -5.0553e-21)
(0.998728 0.000486639 -1.13901e-21)
(1.02471 0.0106852 0)
(1.02401 0.0102559 -1.25241e-21)
(1.24408 0.0111885 -4.32011e-20)