/*--------------------------------*- C++ -*----------------------------------*\
| =========                 |                                                 |
| \\      /  F ield         | OpenFOAM: The Open Source CFD Toolbox           |
|  \\    /   O peration     | Version:  v2012                                 |
|   \\  /    A nd           | Website:  www.openfoam.com                      |
|    \\/     M anipulation  |                                                 |
\*---------------------------------------------------------------------------*/
FoamFile
{
    version     2.0;
    format      ascii;
    class       volScalarField;
    location    "50";
    object      omega;
}
// * * * * * * * * * * * * * * * * * * * * * * * * * * * * * * * * * * * * * //

dimensions      [0 0 -1 0 0 0 0];


internalField   nonuniform List<scalar> 
13917
(
0.0397208
0.0221816
4.98336
0.0235349
0.022107
0.430718
4.71787
5.14081
5.81182
0.0642978
0.159014
0.0644424
0.023609
11.2079
0.026163
0.025006
0.0222944
0.0535728
0.0631886
0.0221131
0.0222671
4.63197
0.0220921
5.04603
0.0220163
4.2977
0.0410756
0.0531941
0.749513
0.0985849
0.0423414
0.0278818
0.0356748
0.0254993
0.0220316
0.257243
0.0221007
4.06553
0.0253405
6.6109
0.0219032
0.0222859
0.0215773
0.0809724
0.022062
0.0272248
0.0528319
0.0710562
2.80703
0.0220195
0.0268178
0.0223218
3.21821
0.02588
0.0223071
0.0267833
0.157568
0.0220177
0.0249357
0.0220208
10.583
0.0221848
25.0497
0.0221016
0.399087
17.2417
0.0221036
0.0220427
0.174821
0.0362621
0.0221146
5.84943
4.5522
0.0220226
2.89791
0.0739225
5.94463
0.0227118
3.90009
0.0222374
0.0222051
0.0221112
0.368281
4.10379
4.91015
0.0226124
0.0221803
14.8471
0.0265425
0.0215675
4.35147
0.0859468
0.0218809
0.022963
15.7831
0.366583
0.122771
0.0652274
0.131933
0.108098
0.0218173
0.0321812
0.0811245
0.0231041
0.0217961
6.00082
0.448595
0.0749792
0.0223027
0.0451905
4.45296
5.91575
0.0826495
5.91817
0.022923
3.28483
0.0220138
1.49138
5.29639
0.0258537
0.0222741
0.168788
4.77933
0.0502078
0.0219805
0.0227916
0.0220367
0.0219881
0.021602
0.412406
3.7602
0.0228333
0.0220873
0.0222745
4.21063
4.98026
0.0402391
0.113969
0.0220964
0.0257026
0.258932
0.021765
0.0225392
0.101116
0.0220422
5.87269
0.791156
0.0222704
0.0217385
0.0285293
0.0565069
3.26503
0.0880896
0.0412208
0.0269673
6.53202
0.0347865
2.27613
8.23902
4.02957
0.024155
0.0416514
0.0222373
0.117694
0.081287
0.129522
0.0230741
0.0604076
0.0219038
0.0331712
0.0415026
6.80042
0.0897171
0.0226073
5.46034
0.0452693
3.77043
1.94027
5.78283
0.021914
0.0897633
0.0438697
0.0217586
0.0221711
0.0299127
4.43546
0.331692
8.44674
0.0367072
0.121938
0.267547
5.47664
0.305292
0.022102
0.120245
0.0396184
0.0224461
0.0218893
0.232689
7.33315
0.0261218
0.0220348
0.0559709
0.0558329
4.99624
2.22924
0.0220337
0.0220287
0.0637907
4.70554
0.0224448
4.76146
7.01913
0.122415
0.0218039
0.578192
0.0556588
6.39392
0.0219693
11.2302
0.0219085
0.0884366
0.0218947
4.15177
6.03032
0.0253386
2.0749
0.0273013
0.0218073
0.259965
0.0875497
0.0362911
4.90501
9.46482
0.0217725
0.0283796
4.33007
4.69489
0.0222295
0.0219516
5.37351
0.139725
0.0222668
0.261396
0.095926
0.0398181
0.0369935
0.0222294
0.0449646
7.69484
0.0219106
0.114595
0.13924
0.0220115
0.0220105
0.0692667
3.90673
0.0823259
0.0302472
0.0263313
0.0222713
6.26049
6.97834
0.227779
0.0218151
4.81658
6.80355
3.1028
3.82007
0.079038
0.0222159
0.0219368
0.0531651
4.29543
0.121108
0.0246532
3.25772
0.0417839
0.0215954
8.57123
0.0220897
5.46806
0.0256588
0.022262
0.027354
0.0408932
0.0417184
0.261401
0.0323632
0.0220167
0.314056
4.89719
6.90824
0.021971
4.01068
0.0221726
0.02201
0.0220208
1.14811
0.0221057
0.0971612
0.0360452
0.0218836
0.0561346
0.0231241
2.34609
0.0440455
0.0785697
0.0217958
0.0220031
4.54512
5.47248
0.0220083
0.0219155
8.62691
0.0218992
4.40495
0.0217901
4.20748
0.0223636
0.479815
0.0334231
3.0244
0.0238596
1.9046
0.310188
0.027357
0.138933
0.526509
0.0222353
3.91787
0.11856
5.67774
0.0247211
6.79612
0.0291067
4.78853
0.247763
0.111337
0.108261
4.97829
0.0222176
0.0430778
4.40287
0.0221453
0.023462
6.16598
0.283446
0.0225411
0.261861
0.685564
0.0218605
6.27071
0.24813
0.0220829
0.0218937
0.0221802
0.0217332
0.326845
5.67564
0.68648
4.41874
0.0220202
0.128641
6.73051
0.0428311
4.67303
4.19853
5.95544
0.0217658
0.2381
0.021873
11.2579
0.0220195
3.77618
0.0957632
0.024574
0.0221991
0.060384
0.0978845
0.0730831
8.04039
4.55068
9.72616
0.046883
0.060228
0.0219595
4.87244
4.4344
0.0220316
0.85011
0.0220442
0.300166
0.0223596
0.0222276
0.0231681
3.50322
0.0231312
3.56343
6.04288
0.142941
0.459863
0.0222249
0.484681
0.417512
0.0220393
0.314851
0.0221315
0.0220317
0.0988418
0.0222616
0.0220208
0.0218689
0.341029
0.0222484
5.73126
3.87024
5.29515
0.305767
3.43336
6.39285
0.0421849
0.0220257
0.1695
0.0251204
0.0296705
0.0220946
5.77766
4.65254
3.92675
0.0249746
0.108875
0.0244492
0.0257994
0.0728119
0.0229379
0.237969
0.0222933
0.0220967
4.33792
3.73978
3.75244
0.127623
6.33826
3.92777
4.40165
5.97792
0.0216333
0.0581302
0.022999
0.0220554
1.0301
0.0538299
0.0218662
0.0618053
0.0399695
5.99948
0.0220354
0.119686
14.0636
0.758715
4.50459
0.0222557
0.0220387
0.0224089
0.0349891
0.0217682
4.37244
0.541019
0.0322251
5.4775
0.0267122
0.119677
4.49818
0.807498
0.137551
0.254024
0.119375
0.0601171
0.161026
0.0423004
0.155808
0.593882
0.0475166
0.0833117
0.0218619
2.52849
0.0275911
0.0216489
0.0335323
0.0228177
5.53299
5.92689
0.0218931
0.0216121
4.58774
8.97415
0.0222618
5.92817
0.022791
0.223282
0.0219061
5.29401
2.83191
0.0284532
0.0223147
3.38281
0.255197
7.03258
0.0222694
6.83813
2.40326
8.87159
0.0216586
4.67094
6.23635
0.0428733
0.0218866
0.0222773
0.0737913
0.334117
0.0218023
0.0219006
0.02196
0.0219544
5.41314
1.09045
0.0422484
0.320426
0.0219675
0.0218248
0.106821
5.26593
0.0334291
0.0219158
0.022028
0.022064
8.80495
6.08064
0.0221744
0.0220634
0.2371
0.0421268
0.0333894
0.0220315
0.0232412
0.0269576
0.0816894
0.417892
0.329747
0.173893
0.0992504
2.51297
0.0766252
0.0219818
6.43132
0.0220675
0.0237537
0.0241967
2.25243
0.0757646
0.0218304
0.758722
0.111077
12.0034
0.100189
0.0353099
0.0421397
0.0221902
6.6724
0.523252
4.69847
0.0222058
0.0295323
0.320128
4.21777
24.5668
0.0685092
0.14776
0.0249351
0.0241077
0.0220341
0.0537049
0.0866248
0.0221537
0.0551701
0.133498
4.80367
6.3281
0.0240446
0.116034
1.92823
0.0284603
0.022356
3.51383
6.31998
5.72726
0.288256
0.021617
5.75645
0.072736
0.0218637
0.0315158
0.0765063
0.0342548
0.0971333
3.95541
0.157542
0.0375289
6.61685
0.0231119
7.57692
0.0222382
0.0221676
4.11166
6.25954
0.634627
0.0231065
0.0225547
0.0220666
0.0423456
3.34613
0.121258
0.0243113
0.127853
0.0593999
0.0219103
2.14252
0.117889
0.234713
0.0219489
0.153152
0.0227901
9.8769
0.0656071
0.075378
0.0298486
0.0218824
0.0216701
0.0220702
0.119599
0.0275767
0.329974
7.07302
0.0597782
0.0218699
0.153085
0.674256
0.352072
0.0218886
0.0270029
0.0219087
0.0287449
0.0250993
6.06888
0.0222295
4.69177
0.0284997
0.157565
0.0871451
4.57317
0.0785774
0.0222289
4.51093
18.1759
0.0220154
0.0241152
3.00558
0.230604
0.121214
0.0222376
0.022343
0.356718
0.0247111
0.072389
0.0655871
0.0216708
0.055643
4.99755
0.0218709
0.0229421
0.0219797
5.64152
0.022266
0.0246174
6.1716
0.0233155
6.24091
0.0270468
0.0363806
0.0219724
0.0502787
0.0220285
0.0585359
0.0218879
0.0856127
0.0227921
27.1373
3.02788
5.28011
0.0222946
0.0222069
0.0726505
0.0481859
4.89843
5.65121
0.053019
0.0220347
0.336801
0.656648
0.237194
0.27715
0.0509893
3.81764
0.0391715
0.0398294
0.145509
0.183632
0.0522587
1.10625
0.0516004
0.0234882
0.0814578
0.0274666
0.0217234
0.0285325
0.0451714
0.0278667
0.0220354
0.0219286
0.0597493
0.0232932
0.0731383
0.0220366
0.022057
0.0222736
0.0231452
0.0215295
0.0258116
0.0219998
5.48059
0.0629462
0.357692
0.0217922
0.0222476
0.0479559
0.0611695
0.0226582
8.31079
0.0794371
11.3309
0.0285962
0.123598
0.022398
0.0222692
0.0219373
0.0231428
7.81489
0.0222553
4.94037
0.0260925
6.06186
0.0491299
0.0806933
0.154618
0.0216739
0.022291
0.0641285
0.0220447
0.0223604
7.96306
0.0226967
0.0221804
0.0278619
0.0219449
0.0216706
0.0279257
0.0283153
6.28922
0.0349709
0.0218696
0.0218782
4.29485
0.117594
0.0221708
0.0222097
8.20823
2.69625
8.77387
0.0355045
0.0234988
0.0217839
0.0216519
0.0483883
0.0360184
0.2644
0.0251137
3.98391
0.0222972
0.0235813
9.44276
0.0220499
0.0277253
0.0219732
0.0220807
0.0437303
0.0428028
0.0224534
6.18977
4.50694
0.0882071
0.0219776
0.0215824
0.118732
4.35458
0.0222612
1.78081
0.0215826
0.0425989
0.0217131
0.0217633
0.357203
0.0219665
3.26361
0.0399141
0.0222734
0.0216101
0.022063
0.0219057
0.022856
4.17048
0.0218363
0.021755
5.52874
5.8881
0.0387229
0.0468067
0.0688643
0.0250844
0.0217797
0.0279692
5.3049
0.0905769
0.0221293
0.0222581
5.73941
0.0363662
4.47318
0.0222666
0.0227668
6.81484
0.0337335
0.0225286
7.94334
1.72015
0.021902
0.131469
0.0219347
0.0219445
0.0217795
4.53726
0.0215226
0.0218935
0.0217737
3.46349
0.0246504
0.221173
0.0630742
0.0217522
0.0326417
0.0221744
4.41843
0.0219674
0.0218532
0.0221815
0.12354
0.0221737
0.157471
6.16195
4.78279
0.0264759
0.262386
5.4171
0.0219969
7.13733
9.93834
4.91532
3.4493
5.4658
37.4047
0.142435
0.0223053
3.86396
0.0336664
4.35459
0.0216538
0.0218768
0.0221701
0.0221674
0.0259022
0.0309485
4.76302
0.0218662
0.0220706
6.515
0.297445
0.0220613
0.0369759
0.0296136
0.0221833
2.81021
0.0374907
0.0236926
0.0245855
6.02281
7.88948
1.29373
0.0216971
0.258269
0.110723
4.63686
5.97857
0.0871564
0.0219031
0.0224586
0.0222997
0.0214905
0.0232314
0.0216262
0.0270708
0.0381403
5.76833
0.136695
0.0219069
0.120934
4.42672
0.0414249
0.0222747
6.78193
0.0218675
0.0222821
0.0375117
6.7695
0.0221737
0.0219493
4.79937
0.263819
1.3911
0.108953
0.28579
0.021923
0.173789
0.0223013
0.0220017
0.022302
4.37701
6.51957
0.0217458
0.0216058
0.0219914
3.19829
0.0230092
0.0297257
0.0220451
0.0224199
0.167947
0.0217671
0.0598079
0.353728
3.73751
0.0219835
0.0834004
0.0242172
4.75953
4.39907
0.0220229
4.61562
0.0736124
1.43578
0.0221725
3.46143
0.0222454
0.0265999
0.0425362
0.109104
4.6393
0.233491
0.167324
6.39428
0.0218636
0.27737
0.0217529
0.0274459
4.82453
0.0220638
0.0222529
0.0227958
0.0221598
5.29319
0.0216695
0.022083
0.0565793
0.0469263
0.0512144
0.593468
0.12957
7.64029
0.0632147
0.0355593
0.0389064
4.83872
0.0398573
14.4452
4.20979
0.025367
0.0217689
3.31208
0.235814
0.0222739
0.111135
0.0338585
0.0222822
0.0263026
0.0222016
0.0424614
0.0222921
0.0500715
0.107599
0.0218809
0.0610419
0.0217932
0.0594277
0.0218833
0.0260339
0.0592609
0.0234341
0.0220742
0.0217558
2.09934
0.0805633
6.13226
0.0220187
0.022132
0.0607221
0.0219741
0.0911353
0.0807811
0.022284
0.0964792
0.0217775
10.2469
0.0222391
0.0370619
5.45102
0.275952
0.0219297
0.0235978
7.05506
0.0220042
0.021921
4.50596
4.38688
0.0241597
0.158485
0.0221037
0.0220665
4.4308
0.0230045
0.0216843
0.254735
0.0217951
1.83745
0.0221986
0.0216879
0.0221674
0.132356
3.73006
0.0220998
0.0222322
0.0219243
0.0258462
0.0220776
0.998503
0.0591156
0.0222689
5.67861
0.0493497
0.268655
3.96937
3.63665
0.0217342
0.0222222
0.0220217
0.764826
0.026322
3.77965
5.82339
0.0238498
4.71707
2.32514
0.050587
0.145392
0.0693725
0.37588
4.65821
0.0631696
1.04609
4.18206
0.0637567
0.0251539
4.65531
0.053758
0.0216656
0.0232596
13.8997
0.0380271
0.0218874
0.0522578
0.100031
0.0383505
4.51706
0.0237335
6.41945
0.0390239
0.237722
0.125419
0.277433
0.0289159
0.0217703
0.0225759
4.89348
0.0219998
0.0240372
0.021795
0.0232597
0.0218681
0.0352493
0.152962
1.89365
0.0439461
0.0588717
3.96257
0.361543
0.0218584
2.72768
4.20291
0.0217234
0.0219116
0.0307633
6.68978
0.0222546
0.0701952
0.625298
0.0477144
0.022056
0.0230825
0.0218086
0.111341
0.0393607
0.0219909
31.476
3.85266
0.0428708
2.17818
0.0644215
5.53184
0.0232538
0.0253798
4.26134
2.76295
0.088265
1.76305
0.0282563
0.0222765
0.0219286
0.0221766
0.0220306
0.0225818
0.0524943
0.0219391
0.127592
0.021944
0.0284026
0.0217342
0.0800904
0.124602
0.8081
0.0219886
0.274251
0.0219274
4.26826
0.0220392
0.0254061
0.022123
0.263023
4.89567
0.140924
0.0219316
0.136963
0.0220091
0.0297109
4.37785
0.02192
0.0223205
0.0452405
0.0314797
4.69558
0.0219405
0.0297032
0.0230798
0.0220431
0.0318967
0.0224611
0.021747
0.0235927
6.72578
0.0244067
0.259564
5.73893
0.0522362
3.62681
0.0241634
0.0217532
0.0308848
8.70911
0.0232891
0.0363528
0.0423586
4.97258
0.0218916
5.77407
0.0625452
0.0711039
0.0217136
0.0216259
0.162673
0.0223808
0.022286
0.0333897
0.0216648
0.0243004
0.0285066
0.0712234
0.262592
4.58903
0.0251154
0.0757849
2.76794
7.98387
0.0374442
0.264536
6.55812
0.0396381
13.3783
0.0236051
20.6742
5.45977
0.0216453
0.022262
0.0219579
0.0225484
0.0447821
0.0217346
0.0238335
0.0868456
0.0232431
0.0353323
4.47553
0.030003
0.024101
5.80262
0.022535
5.82187
0.0242747
0.0542247
0.0218814
7.12707
6.11503
0.0220085
0.0226668
3.60454
0.0293336
6.77319
0.0220229
0.0217923
4.78284
0.0226549
0.0440171
9.53256
0.0220653
0.0549794
0.0291374
0.0216212
0.0219038
3.76693
5.63143
0.0221956
0.0234587
0.0220354
0.0265148
0.0359432
6.3063
0.0226171
2.56446
3.84852
0.234573
3.93937
0.0226022
0.119334
0.195195
0.0289201
0.0220615
0.0604384
4.29619
0.0233108
0.0461733
5.14131
3.65389
0.291068
0.0251311
0.0222272
0.0222465
0.0220673
7.52086
0.0559973
0.023767
0.0227748
0.0243294
0.0222703
0.0219619
0.0220434
0.0744961
0.037585
5.58055
0.0466427
5.04976
3.44476
0.030405
0.0514789
0.02181
0.0284829
8.62909
0.0221254
0.0235594
0.0521849
0.121454
0.0559784
3.72636
0.262877
0.0218729
4.10506
0.0215877
0.0222283
0.0462474
0.0222737
0.0219055
0.175279
6.83383
0.0218012
4.24388
0.0221105
0.0217238
0.0234728
2.6776
0.0291039
0.0242462
13.0615
0.0229115
0.262564
3.38207
0.0222462
0.0480059
0.0220114
6.33266
0.0714734
0.0220433
4.12429
0.0547818
0.0785127
0.0222787
6.61963
0.0291002
0.388336
0.0228783
0.0718565
7.17409
0.0217465
1.45893
0.0220924
0.0620715
0.0519127
0.0222453
4.58348
0.0235715
0.119276
0.0577789
0.0960361
0.0403616
0.0433997
0.0225452
5.10447
0.0317665
7.19595
0.0298518
0.0648888
0.0219636
0.0436827
0.0220435
0.0669819
4.74586
0.0227454
0.0218258
3.42645
0.0227859
3.16612
0.0224499
4.37257
0.24169
0.0350932
0.021996
0.0219427
0.0221089
0.0216244
0.103283
0.0558884
0.0382695
0.0257747
0.0220833
2.85563
0.0235405
0.0339019
1.82838
0.022034
13.4656
0.0519874
0.0296604
1.25149
4.52409
0.32296
4.48838
9.12726
0.0218846
0.373806
4.97165
0.361362
0.0221738
0.0222027
0.118064
4.02952
5.67957
0.648382
0.0222681
0.0509873
0.0403641
3.41034
4.94638
0.0423883
0.133305
0.0239005
0.0804815
0.0875173
0.0221654
0.1042
8.11805
0.0221302
2.91035
0.0222535
0.0219443
4.77895
4.26784
0.02185
0.0223419
0.0224569
0.0218003
0.048619
0.181562
0.0230485
0.0219919
0.0220987
0.0400152
0.0277766
0.0275131
0.331834
0.0220309
4.3529
7.57724
4.74945
0.154182
0.0522756
1.00566
0.0335375
3.77439
1.09336
9.14715
0.0224119
6.62402
3.50312
0.0217676
0.0220384
0.10282
4.52669
9.97895
0.0217534
0.0220105
3.71767
5.04143
6.06724
0.0239701
0.02387
1.84871
0.0221635
3.96632
7.33062
0.393162
2.50872
0.0220593
0.0219214
0.0218884
0.0260353
4.25107
0.0402459
0.0254353
0.0226044
0.0871269
7.13218
0.0399369
6.11302
5.38069
5.28288
2.16132
0.0220524
0.0221727
4.37811
0.0216582
0.0216644
0.0230337
2.83853
0.0375433
9.53162
0.130642
0.0220307
5.48725
0.0394321
0.0218727
6.09521
0.168982
0.0250289
0.0220744
5.11129
4.49915
0.0221805
7.46933
3.88857
6.47424
2.31733
0.0823744
0.02192
0.0225329
1.88358
0.0255367
4.44312
0.0416651
3.15983
0.262559
0.0228462
0.0289844
0.0219172
0.0226514
4.75264
7.11369
0.0220675
4.90558
0.0431257
0.0220173
0.0247629
0.0219369
0.16436
0.022437
2.32046
0.0516394
0.0219115
0.021875
0.089727
8.43401
0.0392242
0.0239948
0.0427546
0.02204
0.0230954
0.0273345
8.7317
4.17122
4.50926
0.0217184
0.0218682
0.0223439
0.120975
0.0218741
0.0223936
0.176361
0.0599824
0.410895
0.0216333
4.48468
4.1358
0.0222843
8.77338
0.11968
0.0370769
2.04607
0.0222915
5.22245
0.0294391
0.0230117
0.0238386
0.0216545
0.260916
0.0224328
0.0227384
0.0306942
3.5967
3.67056
0.0222465
0.0220229
0.0234953
0.0219856
0.133512
0.0224016
0.0841781
0.0235108
4.33761
0.0226321
4.68234
0.0217196
5.50339
0.0223855
0.0216375
7.24958
0.318946
0.117813
0.345889
0.0440804
0.0410483
0.0220453
5.34451
0.0220636
0.0218809
0.0873471
0.0624394
10.2369
4.50462
0.123488
6.93647
0.127948
0.783296
0.0218717
0.0249065
0.0279161
4.36055
0.0247773
4.39707
4.56012
0.022163
0.0220628
0.0219966
1.6438
3.34308
0.0233299
0.0221088
0.0257514
0.0280789
0.0383069
0.381893
0.326015
0.0220647
0.629945
0.0842778
8.94941
0.072942
0.0232848
0.0238659
5.34568
0.0218854
0.0888252
4.80533
0.0226978
0.025393
0.180881
0.134022
0.0227183
6.88203
0.0243473
0.274536
0.0398619
0.0302895
0.0227067
4.44954
0.0218604
0.0979087
1.45004
4.89906
0.0499417
0.0665134
0.0255814
0.0476955
0.022266
5.12478
0.0266733
0.0219645
0.0299116
0.0220922
0.0222693
2.93043
0.0220682
0.0221794
0.0220267
0.136024
0.0222323
0.0330524
0.0745194
0.234111
0.116068
0.0222538
0.242971
0.480446
0.2202
0.0842694
0.0272982
0.160111
4.74059
0.660651
0.0222845
7.73491
4.25243
0.0222839
0.0241009
0.0216445
0.748008
0.105118
0.0220228
1.29028
4.35964
0.0218108
0.0222009
3.64091
4.23814
0.0638984
0.0216572
11.3019
3.28025
3.26906
0.0220313
4.39073
0.0800825
0.0708748
4.45429
0.0261535
0.0216567
0.0300865
0.187852
0.0321051
3.94422
4.54544
0.0218202
6.46049
0.524987
4.59208
0.0217171
0.0504417
0.0222763
0.0219167
4.60515
3.44502
0.275032
3.29798
0.0292723
0.0509154
0.0222007
4.69332
6.18076
0.022048
0.0222539
0.0316416
0.0217897
0.0516987
4.98457
7.4836
0.0515743
0.022455
0.0221225
4.56615
0.0249589
0.0536868
0.0217994
0.0229754
0.741165
3.8647
0.372429
2.94757
0.0221713
0.296641
0.0222891
0.0478594
10.042
6.79308
0.0220729
0.0222939
0.0354805
0.0256496
0.0221778
4.92387
4.35418
0.0217768
0.021512
0.0221913
0.0219717
2.70487
0.0217226
3.80952
0.103651
0.0620245
0.0218569
0.0477845
4.65583
0.0337909
0.45627
6.04696
0.0222184
7.52017
0.0329892
0.0353949
0.366521
7.44785
4.65472
0.0592688
0.0218944
0.25982
0.0217336
0.0252008
0.0221896
3.81361
0.0316904
2.21175
0.23385
0.0490707
0.022124
0.293658
0.0269199
0.0222705
0.262917
0.0215965
0.0376335
0.0343085
0.0221557
10.0455
0.0233852
0.560317
0.0227911
0.02194
5.76078
3.91912
0.0240573
0.0323722
0.0391484
0.0576561
0.0590345
0.0262225
0.025933
0.0252022
0.264738
0.0249892
3.98353
0.0597061
0.254403
0.11517
0.0226271
5.08998
0.0216083
4.77842
0.0241527
4.40878
4.87198
8.5433
7.74835
0.303705
0.0769706
0.0219929
4.79901
0.0857695
0.0220438
7.97655
5.6676
0.0232317
0.0237483
0.0308027
0.0308091
0.0325123
5.48719
0.022284
0.0297677
0.0351461
0.0322356
0.022165
0.0861451
0.0216055
4.13159
0.0236168
0.132041
0.0319447
0.0400586
0.124252
3.88466
0.0861744
0.0218347
0.249496
4.71532
22.9874
0.0223695
4.17977
0.0290144
1.8049
0.0220636
0.0245276
4.19371
0.0511404
5.03373
7.53687
0.0332565
5.06652
0.0219658
0.021594
9.12439
0.0590013
0.0244424
5.64373
0.0269573
0.0457668
0.0293572
0.0708466
0.0221653
5.71019
5.2759
7.12523
0.276109
0.025497
0.0569444
5.01219
0.0240424
0.0222746
0.0822324
0.021692
0.296957
8.02365
6.8072
5.60855
0.0564777
0.0224357
4.48269
0.0215936
0.0762558
0.022236
24.1952
0.0238108
0.0473997
3.87327
0.119122
0.0220285
0.0321417
9.00547
0.0220708
0.150786
0.0217898
9.67129
4.39147
0.118827
0.0812978
0.0219544
0.239275
0.141782
0.0397881
0.0217951
0.0224705
0.0221473
0.0554746
0.0221231
0.0873549
0.0221161
0.0217951
6.39553
0.0218641
0.0268531
0.0250793
0.022275
3.82823
0.0218614
0.0338257
4.38285
0.0480232
3.87304
0.0220602
4.52411
0.0504809
5.49761
0.0235898
0.131088
0.0221525
0.0415168
0.12632
0.114638
0.249627
4.3397
0.21423
1.95327
0.0268834
0.114726
0.0418495
0.717767
0.025023
0.0220992
0.022034
0.0524714
0.0462775
3.12917
0.0546545
4.71554
6.84323
0.101695
0.0219908
4.84724
0.201569
0.0224411
0.0240193
0.0220628
4.74054
0.0220373
8.89854
0.0218517
0.0270929
5.09094
0.0786662
0.0220472
0.0220295
8.23596
0.0218731
0.024051
0.0252337
0.0325009
0.0276957
0.022152
0.152885
0.0808515
0.0437964
0.315034
4.47646
3.80189
6.45727
0.0217347
0.0219861
0.102663
0.0224465
0.0469064
4.11726
3.97228
0.0216536
0.0220458
3.3643
0.444193
0.02167
0.0218369
0.0265047
13.4159
4.09112
0.0265624
0.0340348
0.0222007
0.370383
0.128974
0.141115
0.0315329
0.0442671
0.0223918
0.0383626
0.302412
0.0227282
0.0221382
0.0263637
4.84091
0.0251766
7.26373
0.022107
4.11881
0.0365288
0.0280372
0.0217779
0.0219286
0.830759
7.92487
0.0579112
4.44552
10.0159
0.0224919
4.29531
0.142173
0.0218877
4.32712
0.258145
0.11887
0.0222541
3.53679
4.54178
0.0219411
0.0396182
4.39034
0.0450002
0.0220321
0.0217887
0.0223878
0.0239113
0.0820141
0.275361
0.0768573
0.0778607
0.0217206
0.0221664
4.56279
0.0218429
0.048365
0.026551
0.022122
0.0509351
0.0220299
0.023713
0.331202
0.022003
4.63986
0.0220269
15.4789
3.84656
0.0946912
0.022227
0.0222928
4.41106
0.0216425
0.0241969
0.022315
0.346208
1.03394
0.0339747
3.89693
0.0418315
1.36034
0.0225149
0.0714565
0.0217837
0.0221395
5.07978
3.96976
1.34637
0.0237925
0.0714229
0.0715223
4.87932
4.40389
0.313114
0.0394334
0.0215887
4.35534
0.021902
0.0219631
0.289976
0.116532
0.0282869
0.200497
0.0474674
0.0316888
0.0277115
5.25435
0.0243713
0.0219974
6.74863
0.0475735
0.0217137
3.50404
0.0220345
0.0221113
0.164007
0.154216
12.3733
0.0217309
0.0247538
0.0219129
2.23574
0.0218663
0.532118
3.75837
3.71978
3.51438
33.6868
0.0301804
4.68378
0.861693
0.022211
0.0306253
0.0435817
0.0303123
1.22318
4.35294
4.49319
3.59512
2.44428
0.0221279
0.10958
0.022042
4.87378
0.0287482
0.0231432
0.0241049
0.0226895
0.0218781
0.109473
4.49237
0.0217223
0.0236488
0.0218667
4.79642
0.0234951
5.44024
3.73751
1.27001
0.0220942
0.0218839
4.53021
0.373295
0.022139
0.308736
0.0222292
0.142574
0.188247
0.0966379
0.0524118
10.491
0.0217985
0.0217843
0.257807
3.35773
0.0294504
0.0469755
0.0219281
9.27284
0.0220199
0.0219548
0.0231567
0.0219907
5.24497
4.22981
1.34278
0.0586173
4.40546
0.56168
0.0216597
0.0313074
0.0216976
1.26948
0.0219815
0.024839
0.0220034
0.0219237
0.0217726
2.84108
0.0228062
1.70164
0.0215877
0.0323672
0.0228755
1.55611
0.0220494
0.0317745
0.0352061
0.0699087
6.97235
0.0219192
4.37064
0.0688436
0.0456385
0.0219586
0.0219525
3.5528
15.8763
0.021997
0.0218808
0.266759
0.265612
0.0380335
4.35
0.0227311
0.266238
0.0314893
0.0217063
5.40665
0.0230194
3.98192
0.0220328
0.0226881
0.0221203
4.40746
3.69627
0.0216746
0.247991
0.257942
0.0220611
0.0218622
0.0218989
0.264381
4.35433
0.0646833
0.024273
0.0398376
0.0220345
0.0220392
0.023691
0.0220081
0.190096
0.0220547
0.0635536
0.636563
0.0362099
0.0216178
3.93702
0.0767212
0.0220426
0.0809654
0.0307894
1.01187
0.02446
10.5475
0.0572797
0.0219819
0.087226
0.0862114
0.0246713
5.81734
0.0597789
0.0297898
1.38078
0.0219321
0.153623
0.0881748
0.128545
0.0219449
0.0219634
0.021639
0.0326989
0.0561412
0.0552086
6.4444
4.64516
3.77716
0.0222671
1.88708
3.88575
4.65081
0.0220033
0.0220128
0.0550559
4.3621
0.0241613
0.035583
32.9051
5.2182
17.1453
0.113725
0.169492
3.36344
0.391581
0.0216046
12.3865
0.278365
0.0223193
0.0223329
0.0228263
4.72361
0.0973332
5.33957
0.0240003
7.70369
0.0221307
1.77208
3.90071
0.0221819
0.0344196
4.4417
4.60406
0.0557696
0.0228564
0.0237091
0.0223588
0.232004
0.123457
2.44025
4.52336
0.0217479
5.31691
0.168951
0.441703
0.0220306
0.0221654
1.88029
0.262801
0.0219498
0.0503333
0.07283
0.0390105
4.07507
4.95009
4.67429
4.42874
0.0255022
0.0216576
0.0656469
4.6399
10.3923
0.0219348
0.278234
0.0911456
0.446189
0.0224694
0.0222569
1.2111
4.42317
6.17259
1.67199
4.40887
0.0219643
0.262823
4.39461
0.0222133
0.0621552
0.108601
0.0216838
0.167365
5.37223
0.237325
0.0222558
5.53119
0.121302
27.6219
0.0215037
0.0236528
0.0221606
0.0231467
0.0221255
0.054035
0.0404318
0.0423199
0.327966
0.0340713
4.40527
0.0252614
0.0289463
0.0281558
9.21235
0.057521
5.00477
0.0282198
0.0277938
19.0047
0.0964972
0.0220674
0.0422445
4.44722
5.42571
0.302954
0.0219634
0.0219033
0.0219318
1.36694
0.0231677
2.48822
1.32224
0.26293
0.0320466
0.254269
5.61007
0.0221249
7.32219
0.0336436
0.050795
0.0219445
0.0219045
0.0539639
4.45274
0.0220805
4.93895
0.53013
0.0995601
0.188109
0.0218755
0.0220266
0.0301308
0.0229076
25.7608
24.9693
0.0849914
0.836727
0.021952
0.0220924
0.0221735
0.0222459
7.7585
0.0232132
4.62148
0.0863573
0.0224985
0.377234
2.59818
3.48457
8.53813
0.0235513
0.021766
0.0221297
0.0235084
0.730119
0.245182
5.79065
0.022155
0.0224111
0.162032
0.0222602
0.262183
0.023637
0.151822
0.17279
0.0413872
0.0399815
0.0217255
0.0477564
0.038383
0.212873
0.0804364
0.0425784
0.0218699
0.250769
0.021883
3.2857
3.71258
0.930653
0.0220597
0.109341
0.0220036
0.0500747
0.0229731
0.0226934
0.0281322
8.93352
4.12893
0.0787276
0.0475194
0.230834
0.0783893
3.92001
4.41292
0.0310283
4.37632
0.364158
0.0218518
0.0561849
4.52349
0.0962028
0.022237
0.0542405
2.2417
0.537671
8.85856
0.0221372
0.672755
0.0220977
0.0219241
0.0421204
0.251875
0.022264
4.31555
5.25786
0.262341
11.4574
0.373296
4.77209
0.314636
0.0217249
0.0248058
0.0216425
0.0422684
0.293456
0.45929
0.0243547
0.0419124
0.0216276
4.42648
0.0391833
0.0479225
4.25215
0.099166
6.88357
4.72345
0.0219569
6.73833
0.0221175
0.0282784
0.0472176
4.04956
0.158732
0.0277721
0.0232217
0.574335
0.0345508
4.49637
5.94707
0.0317273
3.29198
0.0451882
0.022273
1.16404
0.0626745
0.0229518
8.9829
15.4759
0.0301284
0.0259616
0.13216
6.02369
0.0219512
0.0222188
0.0216701
0.0217597
0.0223181
4.88061
0.0315907
4.17663
0.0219583
0.021931
0.871114
0.0221824
0.0236433
0.0220584
0.0220371
2.00838
0.0217569
4.77535
0.02199
0.0230835
0.041494
0.0221662
0.143801
0.0217697
0.0222653
0.0217889
0.027802
0.0889576
0.0245314
3.77195
0.0219278
0.0435844
0.0299575
4.39109
0.0227262
0.022269
0.0216953
0.0216839
0.394424
0.0218996
0.0218934
0.0246296
1.79211
0.0219373
0.0429205
0.0327091
0.0220018
4.80808
6.9258
0.251519
4.85497
0.0248783
0.112753
0.0221375
0.0990226
0.33714
0.0223036
1.77277
0.129376
4.40349
0.0307948
0.0220365
1.59642
0.0434198
0.812842
5.46517
0.021575
0.021982
7.49084
3.26118
0.0602075
0.056748
0.0230681
10.7956
5.69782
0.0215073
0.0219701
0.0220997
0.0221738
0.0222488
0.0220391
0.0354196
4.5914
0.0310776
0.0221716
0.415676
0.0219919
0.844781
0.0464379
0.0220822
0.0276117
0.0219129
0.37498
0.0248676
0.0492179
0.0219553
0.0222616
4.64717
4.94883
0.0221775
0.0522887
0.0443224
0.0310739
0.0238639
0.0222713
0.0227723
1.64269
0.569777
0.0401035
4.69916
0.0224906
24.5815
0.109254
0.0259343
18.0785
0.0230207
4.78795
5.37106
3.47978
3.46073
4.34296
3.85832
0.0216396
0.0273063
0.0246712
0.0216309
0.021733
0.02941
0.0760746
0.0217756
0.0293857
0.127341
0.0763448
0.338318
0.260242
0.0337512
1.83678
9.54072
0.0337682
0.0248456
0.129483
8.91616
4.15538
0.0254964
0.0216163
0.0218681
0.0217792
0.0320041
3.99495
0.377081
0.0217369
4.84251
0.021984
0.138587
4.14573
0.0817023
0.195184
0.0886659
0.327826
0.0227835
0.0331067
0.0218627
0.23897
0.0219567
0.0229879
0.0335738
0.156014
0.0221772
0.0243769
5.74127
0.0218204
0.0220418
0.0289795
5.78419
0.115117
0.347388
0.0383545
0.0221498
3.44157
0.0371654
0.0233034
0.0220257
0.0307555
0.0266747
0.0220352
0.028002
4.63696
0.0235841
0.0216481
0.0469066
0.0218795
0.0316469
0.0300395
0.0220672
0.0220008
4.72947
0.0217161
0.022036
0.0216549
0.0257351
0.021475
5.00651
0.0259045
0.212625
0.0219622
0.0218984
0.0220533
4.47484
0.0635553
0.0220416
0.0216043
5.55583
0.0250479
0.0691523
0.021858
0.149001
0.0233782
0.0215535
3.51777
0.0217544
0.0222333
0.0221462
0.0219821
0.0240854
0.022127
0.0220367
1.63749
1.51398
4.68022
0.231296
8.70859
0.0218585
4.65531
0.0219689
4.05533
8.27354
0.021799
10.6392
0.0219807
4.3563
11.9103
0.261594
4.34647
4.1608
0.840151
1.52949
6.28587
5.29452
0.0432581
0.0424716
4.79267
0.023445
0.0216605
1.97072
0.0238744
0.0281825
11.9525
0.022966
0.346634
3.83789
6.33064
0.38154
0.122802
0.022252
0.0282355
0.0477988
0.0222702
6.86356
0.365137
0.107889
0.0219033
0.0220692
8.21643
0.0216932
0.722692
0.0218462
9.41328
4.54433
0.0339645
0.0261661
0.0219852
10.4843
4.01834
0.0254116
0.0337055
0.0222858
0.0222855
0.0587595
0.0231218
0.0319312
0.0667261
0.0242435
0.0331925
0.0220425
0.0320559
15.447
0.022516
10.8821
0.0219534
3.06294
0.0542577
0.0220409
9.53658
0.130072
0.0218494
0.154711
0.0220403
0.331249
0.0221717
0.0220158
3.75995
0.0221455
0.108533
0.0233842
0.14406
0.0218461
0.0223002
0.0218591
0.0300232
0.024187
0.0222616
0.0225593
0.025235
0.0224108
0.126457
0.0646111
0.0298327
0.0233166
0.0216251
2.3471
7.40655
0.0227298
0.0224894
0.0226054
0.0378062
0.0222095
0.0350672
0.0215646
0.0222853
0.26565
0.0232862
0.0222847
0.0219009
4.84232
11.2406
0.021594
0.0715179
0.0582409
0.233382
0.263955
6.71905
4.43319
0.65149
0.02293
0.142575
0.0219292
0.0312882
7.42074
4.55344
0.13498
0.0238729
15.5979
0.0220428
0.0465754
0.412122
0.0221943
0.138639
0.0234686
0.0232595
0.0747222
0.147748
3.85059
3.46875
0.0218289
0.021593
4.79875
3.9345
0.0222046
0.0290642
0.123852
0.0220529
0.0220169
0.0241181
0.961961
0.0217734
4.49231
0.0294663
0.0222206
0.23396
0.0721349
0.0669282
0.115194
5.05016
0.024355
0.0351042
0.0274248
0.0237086
9.95359
0.0320459
4.13315
4.3743
0.0667482
4.21256
0.0461745
0.0478606
0.350331
0.0217263
4.4114
0.0891841
0.0336726
0.029067
0.0221782
0.0216589
4.09166
0.0432189
4.31248
4.09572
0.0221147
4.47047
0.0218353
0.021948
0.0286882
11.6001
0.0752801
0.0216778
4.05082
0.0219838
0.0237825
4.0103
0.0236913
3.551
0.0222729
4.4891
4.14948
0.068371
2.26311
0.02333
3.51312
0.0216174
5.3313
4.78842
4.47733
5.22738
0.0219467
0.0218207
0.243568
3.78987
3.49833
3.97054
3.83971
0.0221356
5.04132
3.50297
0.022374
4.33279
0.0313808
0.0330963
12.3142
0.0381941
4.55524
0.0219297
0.037823
0.0350235
0.203958
6.48149
0.0368227
3.63599
4.51992
0.0221722
0.0245631
0.0237778
0.0248454
3.52146
0.0220177
0.0217619
0.0392644
3.90284
4.1502
0.0282322
4.04177
4.39823
0.0219522
8.8197
4.94195
0.183177
4.15481
0.0664467
0.0243567
0.0221727
0.158081
0.0264485
0.0807124
10.2178
4.57813
0.0290489
0.0742667
0.0256963
0.0389759
0.0216525
0.0419192
0.0246331
0.0906066
4.62405
6.12267
3.88195
0.0216564
0.130507
0.0636955
4.41676
0.0231906
4.77465
4.80181
4.50861
0.0221408
0.172402
4.70392
10.9939
7.70811
0.0365406
5.47213
3.32998
0.0642509
0.0703074
0.0240998
0.0292725
4.80327
0.0451637
0.0221867
3.34414
0.0220437
0.0222798
0.125156
0.126229