/*--------------------------------*- C++ -*----------------------------------*\
| =========                 |                                                 |
| \\      /  F ield         | OpenFOAM: The Open Source CFD Toolbox           |
|  \\    /   O peration     | Version:  v2012                                 |
|   \\  /    A nd           | Website:  www.openfoam.com                      |
|    \\/     M anipulation  |                                                 |
\*---------------------------------------------------------------------------*/
FoamFile
{
    version     2.0;
    format      ascii;
    class       volScalarField;
    location    "850";
    object      k_0;
}
// * * * * * * * * * * * * * * * * * * * * * * * * * * * * * * * * * * * * * //

dimensions      [0 2 -2 0 0 0 0];


internalField   nonuniform List<scalar> 
13917
(
0.0179312
0.000174834
0.000221299
0.000151476
0.000166458
0.000174273
0.000161227
0.000251343
0.000158701
0.0024508
0.000226184
0.000149428
0.000167187
0.0312272
0.000164562
0.014722
0.00014894
0.000205525
0.000199047
0.0144645
0.000171779
0.000149069
0.000177985
0.00014907
0.000155093
0.000174171
0.00581193
0.00182455
0.000184527
0.000135962
0.00113074
0.000186601
0.000151772
0.0297943
0.00014632
0.000169188
0.000157202
0.000162128
0.000161313
0.000175593
0.000147978
0.000146319
0.000155901
0.000197365
0.000197156
8.66121e-05
0.000169923
0.0180893
0.0141593
0.000146406
0.000149208
0.000197457
0.00840483
0.000149088
0.00014957
0.000197483
0.000646576
0.000177941
0.000145814
2.79344e-05
0.0372909
0.000179616
0.000143195
0.000154561
0.0275525
0.000182184
0.000188744
0.000165019
0.000216288
0.0175904
0.0161117
0.027683
0.000148736
0.000145043
0.000172897
0.000156468
0.000157384
0.000144567
0.000155915
0.000152051
0.00015196
0.000149682
0.000148577
0.0194095
0.000142157
0.000274674
0.000185813
0.000146281
0.000175188
0.000148831
0.000140416
0.00015624
0.0118932
0.000144436
0.000151866
0.00018816
6.7648e-05
0.000151893
0.000145382
0.000217758
0.000145586
0.000144661
0.00015217
0.000146172
0.000156892
0.0246056
0.0244486
0.000180242
0.000147418
0.0106394
0.000145125
0.0307134
0.000184153
0.0202971
0.0270619
0.000157471
0.000197659
0.000141919
0.000213127
0.000147573
0.000149519
0.000143468
0.000193664
0.000194857
0.0198929
0.0233868
0.000154034
0.000174719
0.000144816
0.00019518
0.000167636
0.000133296
0.0455153
0.000157409
0.000190148
0.0113193
0.0367983
0.0214782
0.000176622
0.000161598
0.0127987
0.000144004
0.0232945
0.000144338
0.000148023
0.000157838
0.0157556
0.00866096
0.0155256
0.000149371
0.000172642
0.000143965
0.000147742
0.000147623
0.00178929
0.000151405
0.000145613
0.0463677
0.000146233
0.00014335
0.000142526
0.0298581
0.000160741
0.00986179
0.0276162
0.000240823
0.00734962
0.0297513
0.00013102
0.00017886
0.000149683
0.0426804
0.000158577
0.0337481
0.000187839
0.00014489
0.00015145
0.000198785
0.000166899
0.000161538
0.000155722
0.000149233
0.000149221
0.000219694
0.000213755
0.000134295
0.000149017
0.000226347
0.000136024
0.000262711
0.000188151
0.000195481
0.000203605
0.0178918
0.000144454
0.0201871
0.00016048
0.0452886
0.000146072
0.000150741
0.000167222
0.0173356
0.0184299
0.000156163
0.00730651
0.000172645
0.00017316
0.000143999
0.000198855
0.000151953
0.00014145
0.000182548
0.000187421
0.0168404
0.000189561
0.000175991
0.0320031
0.000155436
0.000137454
0.000137357
0.0292195
0.000209263
0.000134533
0.000143618
0.000143877
0.0146138
0.017268
0.000136665
0.000136506
0.000147948
0.000137753
0.000137677
0.0260096
0.0207268
0.000150177
0.000131239
0.000189414
0.0262278
0.000147329
0.000143591
0.00798276
0.0245471
0.000224826
0.0323073
0.000192725
0.000144383
0.0270984
0.000190422
0.000181499
0.000189967
0.000155593
0.0194838
0.000147829
0.000176883
0.000186192
0.000150668
0.000148488
0.000154461
0.000160869
0.000146441
0.0260564
0.0212096
0.000143633
0.000136417
0.000151865
0.000136454
0.000147845
0.000167745
0.000172326
0.000144169
0.0258701
0.0258027
0.000147095
0.000157204
0.00109945
0.00013688
0.000203333
0.0292861
0.000136958
0.0215891
0.000145905
0.0292915
0.000145503
0.000161965
0.000151018
0.0001441
0.000206357
0.000155617
0.000148053
0.000164382
0.0196181
0.000161051
0.00174483
0.0212041
0.000144095
0.000181505
0.000162227
0.000158167
0.000164442
0.000155743
0.000144877
0.000153758
0.000197809
0.000220436
0.000175961
0.000155338
0.000143471
0.0462564
0.0147252
0.000144094
0.000157683
0.000158224
0.0073653
0.000200196
0.0272174
0.031932
0.000341034
0.000216959
0.000156376
0.0160088
0.0119251
0.000217064
0.000166327
0.000164074
0.00571568
0.00015061
0.000177557
0.000195236
0.000148086
0.0422301
0.000142569
0.000174254
0.000139185
0.00693193
0.000139759
0.000174104
0.000173791
0.000444743
0.000147664
0.000189892
0.0195094
0.000151416
0.000150589
0.0327953
0.0207624
0.0272897
0.0311937
0.000136599
0.000150043
0.0260457
0.000207266
0.000136723
0.000163964
0.000149088
0.000188573
0.000174819
0.000198851
0.000193155
0.000204373
0.000174111
0.025645
0.000145167
0.00015143
0.000170763
0.000214897
0.000147744
0.0158536
0.000173835
0.00327328
0.00014985
0.000197097
0.000155513
0.00519027
0.000146254
0.000136505
0.00129539
0.000176519
0.000147426
0.00286352
0.000140583
0.0277122
0.000205101
0.000146258
0.00709424
0.000152456
0.00226852
0.000140392
0.0160471
0.00219257
0.000156079
0.0179937
0.000199659
0.000154602
0.0301266
0.000233175
0.000154956
0.000206623
0.000149543
0.00020297
0.000219735
0.000142794
0.000160133
0.000155211
0.000143737
0.000140753
0.000145598
0.0355621
0.000227318
0.000150591
0.000146042
0.000148194
0.000180928
0.00012224
0.000137806
0.000131157
0.000199682
0.000197545
0.000144477
0.000155672
0.0296406
0.00697124
0.000629951
0.000200281
0.0105306
0.000141357
0.000137392
0.000168272
0.000140641
0.000137884
0.000150535
0.000137501
0.000140985
0.0248266
0.000149841
0.000177658
0.0280784
0.000181347
0.000141715
0.000147492
0.0301094
0.000167426
0.0170787
0.000138735
0.00014391
0.000141181
0.000138059
0.000156836
0.000153085
0.0287013
0.000188777
0.0269385
0.000143874
0.000170282
0.00018254
0.000151623
0.000192274
0.0279772
0.00014885
0.0211465
0.000142101
0.00014422
0.000147858
0.000152541
0.000140892
0.000151186
0.0457389
0.0355397
0.000140653
0.00204886
0.000199322
0.000148604
0.000183436
0.000187914
0.029564
0.000161282
0.0253221
0.00374032
0.00382915
0.000153178
0.000165826
0.000189232
0.000155151
0.0135997
0.000141644
0.000148739
0.000151867
0.000159452
0.000170851
0.000207714
0.000181903
0.000156343
0.000158781
0.00020307
0.000184566
0.000150596
0.0278116
0.000171624
0.000164308
0.0290852
0.000142219
0.000185386
0.000201331
0.000139978
0.0440734
0.000145098
0.000138036
0.000181698
0.000138771
0.000153454
0.000197208
0.0486459
0.0216037
0.000142408
0.000152084
0.000151719
0.0103107
0.0144577
0.000150069
0.000149364
0.000142147
0.000184481
0.00747135
0.00014532
0.000147434
0.000150359
0.000143395
0.000162784
0.000164128
0.00014321
0.000182371
0.000139993
0.000148476
0.000154837
0.0279558
0.000136849
0.000155652
0.00014645
0.00016938
0.000187211
0.000193025
0.000187083
0.000225427
0.000154166
0.000194556
0.0442296
0.0238544
0.031697
0.00014341
0.000147541
0.000163601
0.000145447
0.0285149
0.000137289
0.0103869
0.00016039
0.0373708
0.0002049
0.000155967
0.00959486
0.000140619
0.000184669
0.000151731
0.000150035
0.0393124
0.000138233
0.00022266
0.000144637
0.000155766
0.000147874
0.000205404
0.000164252
0.000136008
0.00019744
0.000182886
0.00144485
0.0114083
0.0471917
0.0289846
0.000136908
0.0179619
0.000139705
0.0371002
0.00909398
0.000151864
0.000156853
0.000145235
0.000171215
0.000155208
0.00013831
0.000151751
0.000165866
0.00750183
0.00014296
0.000184218
0.000148455
0.000135875
0.000146251
0.000154839
0.0210501
0.00909533
0.000188631
0.000163836
0.000602673
0.0275567
0.000140789
0.0218244
0.000164064
0.000194656
0.000145447
0.00266686
0.000143125
0.000164636
0.00014828
0.00268374
0.000172418
0.0300714
0.00014387
0.000171237
0.000146355
0.000146004
0.0268033
0.000252894
0.000147188
0.00020063
0.00014347
0.000148561
0.00014492
0.0290884
0.000142973
0.000161935
0.00013722
0.000146755
0.000214968
0.000144224
0.000199477
0.000150666
0.000139846
0.037461
0.000184885
0.000149729
0.00902175
0.000219637
0.000171811
0.000201312
0.000140403
0.000166015
0.0259749
0.00023068
0.000166798
0.000157204
0.000166052
0.000150191
0.000145477
0.00102186
0.000188894
0.000159022
0.0298537
0.000172848
0.00159881
0.0176057
0.000215244
0.000172427
0.000203441
0.0232998
0.000144901
0.000181337
0.00152766
0.000139927
0.000145235
0.000146269
0.000158281
0.000153934
0.0182522
0.000169248
0.00014332
0.000193701
0.000143256
0.0287165
0.000145882
0.000144823
0.047495
0.000185743
0.00361266
0.000149217
0.000142235
0.000144586
0.000150872
0.000163404
0.000144175
0.019013
0.000167025
0.00429858
0.00355694
0.000180933
0.0475088
0.000152153
0.000151519
0.000146659
0.0308354
0.0198731
0.000161148
0.0192809
0.0112957
0.000139881
0.000144455
0.000156924
0.0229324
0.00437343
0.000172776
0.000150726
0.000155678
0.000195411
0.000155371
0.000198736
0.000169528
0.000151573
0.000152177
0.000151005
0.000163252
0.000158723
0.00022224
0.000159011
0.000155856
0.0188269
0.00014172
0.0117101
0.000156527
0.000168896
0.000159997
0.000228001
0.000149376
0.000183191
0.0190256
0.0030382
0.000145689
0.00015902
0.000158914
0.000144252
0.000148026
0.000176128
0.000191728
0.000198842
0.000199638
0.000140149
0.000148033
0.000158619
0.000159556
0.000201748
0.000150469
0.00018468
7.62592e-05
0.000135998
0.000185708
0.000190302
0.000169208
0.000143435
0.000141166
0.000145443
0.0152671
0.000151589
0.000146589
0.000173863
0.000144499
0.00014241
0.000196611
0.000124918
0.000194435
0.00949826
0.000185704
0.0271224
0.000148014
0.000158443
5.57252e-05
0.000152122
0.000180723
0.00014745
0.000144749
0.000149163
0.000159963
0.00019423
0.000143411
0.000471914
0.000149705
0.00900482
0.000156577
0.000161092
0.000139224
0.000190256
0.000162459
0.0289988
0.000198787
0.000149765
0.0272098
0.000152548
0.0244349
0.000154689
0.000236118
0.000154473
0.000142717
0.000145417
0.0400756
0.000163191
0.000137246
0.0129872
0.000144135
0.000169572
0.000131083
0.000161847
0.00778479
0.000131441
0.0256705
0.000155775
0.000243671
0.000197037
0.00186282
0.000137572
0.000145374
0.000194111
0.000140367
0.000148852
0.000154339
0.000147225
0.000174062
0.000137424
0.000242335
0.000151602
0.0171378
0.0241974
0.00484234
0.0285762
0.0173586
0.0153181
0.00686204
0.000139399
0.000147985
0.000147303
0.00015264
0.000142249
0.000163397
0.000143845
0.000357665
0.000149134
0.00290425
0.000151256
0.000165515
0.000193013
0.000143889
0.000177767
0.000152562
0.000150994
0.000160278
0.000140607
0.0490959
0.000190273
0.00160727
0.000144109
0.0001451
0.000150001
0.000150069
0.0285324
0.000139599
0.000237733
0.000142836
0.00352618
0.000161851
0.00014419
0.000183972
0.000182076
0.000139733
0.00324111
0.01839
0.000157063
0.000190135
0.000140321
0.000225856
0.000141515
0.00015003
0.0230287
0.000147338
0.00015177
0.000193363
0.0215745
0.000143945
0.0110372
0.00150146
0.000146823
0.000153941
0.000147561
0.00763403
0.000144829
0.000198921
0.00014869
0.0451381
0.000162302
0.0221187
0.000146031
0.00013671
0.00274614
0.000157852
0.000141064
0.042612
0.00015414
0.000140824
0.0167765
0.000146766
0.000147914
0.000188645
0.000154604
0.02948
0.000175854
0.000187919
0.000197999
0.000155533
0.0435831
0.00015244
0.000187134
0.000144308
0.0280082
0.00357002
0.0001495
0.000141746
0.000148782
0.000150068
0.000141094
0.000141528
0.000144011
0.000145181
0.000164823
0.000136
0.000153636
0.000188246
0.0266262
0.0297653
0.000191784
0.000150039
0.00310194
0.000143207
0.000119253
0.0076705
0.00667023
0.000137745
0.000139506
0.00014692
0.000148449
0.00013751
0.00014104
0.000143592
0.000173317
0.000140883
0.0101829
0.0151344
0.000141595
0.0393935
0.000144438
0.000145641
0.000174255
0.0298896
0.000187099
0.000144157
0.0038755
0.000145369
0.000145667
8.638e-05
0.00014849
0.00159967
0.00015208
0.000266348
0.000141737
0.000143811
0.000167701
0.00041152
0.000153885
0.030115
0.000193038
0.000158757
0.000154683
0.000145185
0.000140909
0.000192896
0.000168438
0.000158665
0.033525
0.0131885
0.000299001
0.00019405
0.000143639
0.0329404
0.000143459
0.0310995
0.000185296
0.000160265
0.000153328
0.0245848
0.0235818
0.0066398
0.000148996
0.00810282
0.000141181
0.00014386
0.000169395
0.000151299
0.000148456
0.000263322
0.0212209
0.000143829
0.000161199
0.0260403
0.00014421
0.000136715
0.00873003
0.0303277
0.000152232
0.000140244
0.000160698
0.000147277
0.000145293
0.000176807
0.0001599
0.000146959
0.00244942
0.000149373
0.00143841
0.00836087
0.000186744
0.028349
0.000149392
0.000151035
0.000347728
0.0212839
0.00138576
0.000155389
0.000169221
0.000150082
0.000152219
0.000143572
0.0294984
0.000170196
0.000151162
0.000181183
0.000143965
0.00305084
0.000189694
0.000198084
0.000182742
9.43462e-05
0.00429556
0.0264988
0.0385452
0.000161858
0.000179668
0.000136923
0.000183811
0.00018972
0.00690886
0.000157638
0.000150089
0.000159441
0.00231403
0.000154517
0.0295067
0.000170569
0.000191039
0.0304877
0.000144464
0.000194469
0.000155468
0.000148772
0.000167483
0.000933242
0.000137804
0.000139667
0.000153441
0.0136988
0.000140907
0.000154227
0.00015512
0.000152385
0.000147724
0.000192526
0.000186219
0.000151171
0.00014375
0.000223902
0.000250874
0.000171208
0.0448094
0.000149636
0.000144694
0.0193026
0.000146611
0.000154792
0.0387933
0.0298875
0.000169086
0.000183899
0.000161189
0.0152621
0.000251972
0.000169468
0.0124347
0.000144927
0.000190333
0.0277178
0.000215388
0.00546965
0.00193758
0.0001408
0.00014817
0.000166924
0.000147934
0.000148772
0.000224023
0.00014758
0.000177449
0.000137695
0.000181877
0.0301533
0.000154739
0.0132762
0.0186076
0.000144795
0.000188371
0.00016056
0.000153787
0.00014436
0.0325935
0.000188103
0.0231393
0.000162911
0.0354674
0.000190959
0.00014245
0.00523661
0.000170662
0.000152815
0.000144464
8.3309e-05
0.000144395
0.000159905
0.000173761
0.000159518
0.00015022
0.00018203
0.0198565
0.000142673
0.000205122
0.000264973
0.00014889
0.000142989
0.000158953
0.00638007
0.000106699
0.000142066
0.00016462
0.00019756
0.00326625
0.0182549
0.000148046
0.00014083
0.000140749
0.00014521
0.00016988
0.00015651
0.00795685
0.000150407
0.000156886
0.000845313
0.000194624
0.000191525
0.0306817
0.0356456
0.000149337
0.000146386
0.000140411
0.00015329
0.000186327
0.0481639
0.000989417
0.000193717
0.000166631
0.000179661
0.000154986
0.000231776
0.000159385
0.000196704
0.000144472
0.000222596
0.000245432
0.000141053
0.000148981
0.0353311
0.000179884
0.000543544
0.0265411
0.000196179
0.000144568
0.000876894
0.000162392
0.000142802
0.0253047
0.00294769
0.000144562
0.000169211
0.000196954
0.000170547
0.000151656
0.000137274
0.000143172
0.000141444
0.000144071
0.00016526
0.000182419
0.0232921
0.000171103
0.000159606
0.000166332
0.000190379
0.00014342
0.000171047
0.000153895
0.000228297
0.0248665
0.000153874
0.000137148
0.0294097
0.000141764
0.00125603
0.000153711
0.000177925
0.000150267
0.000142188
6.98687e-05
0.000160543
0.000153638
0.000144975
0.0234165
0.000131543
0.0273041
0.000149086
0.000148058
0.00276014
0.000143457
0.000141489
0.000198606
0.00483706
0.000161876
0.000168761
0.000151399
0.0130205
0.000142966
0.000157815
0.000150191
0.00013697
0.000226692
0.000143023
0.000141176
0.000158194
0.000182858
0.0213226
0.000221222
0.000142432
0.000165226
0.000142428
0.000144226
0.000154743
0.000153279
0.000148538
0.000210651
0.000147929
0.000188206
0.00016519
0.000164281
0.00014752
0.000146427
0.000145147
0.0335325
0.000137698
0.000887979
0.000187069
0.000156135
0.00018059
0.000168596
0.000165575
0.000147741
0.000162874
0.000141532
0.000141058
0.00350967
0.000170528
0.000180119
0.000145469
0.000145724
0.000142058
0.000205933
0.000143887
0.0317128
0.000178038
0.000144208
0.000143254
0.000139443
0.000177931
0.000133804
0.0211061
0.000179022
0.00290285
0.000165591
0.000191912
0.000156537
0.0256496
0.000137663
0.000137358
0.000158507
0.00310281
0.000139724
0.0338243
0.000148496
0.000146221
0.000198359
6.98431e-05
0.0158868
0.00121699
0.000159604
0.000215253
0.000177622
0.000141226
0.0263072
0.000144505
0.000144824
0.0125658
0.000138613
0.0348929
0.000162365
0.000142608
0.000145421
0.000141495
0.0463109
0.000146583
0.00013727
0.000188867
0.000142505
0.000142107
0.000144891
0.000141281
0.000176823
0.000148798
0.000155362
0.000139044
0.00145962
0.000168898
0.000139212
0.000139298
0.000152008
0.000143147
0.000155824
0.000149407
0.000145392
0.00014896
0.00014485
0.000152815
0.000147004
0.000196606
0.000139442
0.000190445
0.000148565
0.000180935
0.000141723
0.000148363
0.000144082
0.000138027
0.000173006
0.000161657
0.000157994
0.0225898
0.000209013
0.0450251
0.0310009
0.000190217
0.0299586
0.000148387
0.000146671
0.000241568
0.0300883
0.000142472
0.0271643
0.000140377
0.00019833
0.0103629
0.0001556
0.000191094
0.032295
0.0253572
0.00014541
0.000177836
0.00014181
0.000592658
0.000156662
0.038265
0.015837
0.000149157
0.000185283
0.000153537
0.000149491
0.00962986
0.00377183
0.000154795
0.000140808
0.0025952
0.0303491
0.000141187
0.000166755
0.000150263
0.000117094
0.000196927
0.000148118
0.000142077
0.00352665
0.000143874
0.000144823
0.000150936
0.000139864
0.00304464
0.000166631
0.000163388
0.0344241
0.000144095
0.000189611
0.000148557
0.00237834
0.000182763
0.000701395
0.000141388
0.000162076
0.000142342
0.000148021
0.000155391
0.000147411
0.0134966
0.000153308
0.000140347
0.000142743
0.00371932
0.000140706
0.00384051
0.0246813
0.0132952
0.000147748
0.000142744
0.000143131
0.0115446
0.000149775
0.0176005
0.000146055
0.000112812
0.000154417
0.00015102
8.4075e-05
0.00014859
0.000148875
0.0290502
0.00019749
0.03346
0.000147937
0.0364606
0.0120212
0.000148172
0.0299711
0.000149163
0.000160032
0.0297445
0.000155718
0.000176839
0.02273
0.000165208
0.000186792
0.000147212
0.00942234
0.000144753
0.00474826
0.000143062
0.0211941
0.000144941
0.000145633
0.000153825
0.00802881
0.000143073
0.000192066
0.000188303
0.0283654
0.000143773
0.000165333
0.0413714
0.000172079
0.00545754
0.000189029
0.000141727
0.000197562
0.000116046
0.000156718
0.00146369
0.000137021
0.000202608
0.0167477
0.000143534
0.0184175
0.000143274
0.0329548
0.00207755
0.000156279
0.000155492
0.00589225
0.0105742
0.00014474
0.000153464
0.000140088
0.000148323
0.0249789
0.00018578
9.43306e-05
0.0001484
0.000162467
0.0356915
0.000204535
0.00717682
0.00536451
0.000142139
0.000144178
0.000210021
0.0290627
0.0160445
0.0104349
0.000212841
0.000175038
0.000216542
0.038558
0.0288312
0.00639241
0.000140811
0.000190318
0.000177349
0.00018795
0.000146497
0.000159474
0.000184414
0.000227436
0.0133192
0.000147364
0.0157765
0.0332855
0.000179154
0.00014445
0.000144561
0.00017533
0.000143216
0.0469222
0.000163405
0.000146316
0.000207095
0.000261463
0.000139111
0.000171142
0.000164658
0.000146775
0.0451321
0.000167455
0.0482434
0.000143589
0.0312858
0.000129384
0.000210856
0.000138047
0.000161171
0.000166121
0.000284238
0.000194373
0.000186552
0.0252656
0.000194011
0.000131924
0.000159928
0.000149555
0.000200378
0.0172064
0.000141194
0.000138902
0.000153413
0.000855915
0.000294474
0.000143987
0.000181621
0.00021013
0.000140763
0.000251849
0.000156601
0.0475282
0.000163522
0.000512802
0.019152
0.000163115
0.000157663
0.00119106
0.000142954
0.000181596
0.0251335
0.000168088
0.000201219
0.000165895
0.000182793
0.0278227
0.0350774
0.000146988
0.0100714
0.000217437
0.000138644
0.000199938
0.000186575
0.000195683
0.00980786
0.00012204
0.0117578
0.000195146
0.026107
0.000161803
0.000185201
0.000140006
0.000149022
0.000147505
0.000141304
9.41221e-05
0.000231057
0.000137804
0.000178447
0.00020538
0.000142768
0.00490971
0.0295486
0.000136082
0.000149498
0.000140835
0.000152932
0.000176357
0.000144741
0.0331462
0.000164445
0.00018758
0.000159878
0.000187275
0.000216176
0.000167904
0.0199809
0.000146826
0.000153337
0.000137481
0.0001431
0.0407164
0.000193154
0.000164618
0.0369848
0.000148747
0.000151072
0.000167486
0.000140718
0.000144009
0.000191787
0.000158985
0.0257768
0.0217611
0.0349371
0.00014727
0.0336867
0.000143774
0.000108136
0.000138941
0.000202141
0.0249821
0.000145599
0.000658501
0.0258118
0.000169087
0.000153223
0.000142477
0.00016318
0.0262444
0.000139626
0.000149433
0.000154367
0.000163125
0.000210202
0.000155949
0.000159592
0.000141929
0.000153526
0.00127481
0.000169575
0.000156765
0.000200309
0.0001962
0.0387154
0.0031767
0.000159936
0.000152705
0.0251065
0.00014687
0.000186191
0.000147865
0.0258811
0.00014955
0.000149776
0.000172916
0.0293059
0.000144117
0.000141395
0.000137475
0.000202618
0.0118872
0.00019542
0.000144712
0.000156424
0.000140959
0.0341994
0.000144103
0.00564315
0.000182332
0.000148747
0.000156586
0.000167965
0.00269195
0.000150393
0.000141458
0.000166061
0.000177134
0.00019932
0.000149025
0.00015058
0.000148995
0.0316805
0.000146825
0.000152857
0.0337309
0.000154498
0.000181996
0.000157464
0.000144446
0.000145365
0.00796138
0.000154553
0.0316722
0.00361453
0.000134659
0.0018638
0.000150234
0.00019447
0.000180478
0.000154105
0.000138372
0.000134408
0.000144654
0.00752187
0.000178037
0.0332139
0.0281215
0.000141767
0.000196975
0.000174757
0.00278378
0.000144991
0.000331062
0.0360955
0.0212129
0.00014433
0.000153947
0.000150741
0.00403869
0.0398811
0.000145509
0.000145357
0.000165532
0.0331254
0.000148556
0.000154134
0.000154262
0.000197765
0.000289256
0.00013776
0.0302081
0.000166233
0.000144331
0.0198824
0.000182302
0.00278556
0.00221833
0.000168757
0.000160534
0.000153795
0.000161225
0.000151348
0.000201721
0.000181707
0.00014542
0.000157106
0.000202129
0.0222555
0.00013944
0.000193722
0.0323888
0.00245454
0.000146023
0.00014745
0.00377707
0.0122158
0.000219935
0.000144606
0.0307067
0.000185358
0.00013549
0.0229447
0.000162458
0.000149295
8.86943e-05
0.000147232
0.000201267
0.000142411
0.000133287
0.000148085
0.000137447
0.0274153
0.000137692
0.000142557
0.000189971
0.000157744
0.00015753
0.000201342
0.00014787
0.000144788
0.000154005
0.000152542
0.00314547
0.0029284
0.000342696
0.00668314
0.000173662
0.00589124
0.00021624
0.0312
0.0248289
0.0275208
0.000141488
0.000165226
0.000145187
0.000148198
0.000143571
0.000149244
0.000209456
0.000182982
0.000175058
0.000142542
0.000144206
0.00018136
0.000149385
0.000150354
0.000147984
0.0366176
0.000167181
0.0138946
0.000147033
0.00348471
0.00015087
0.000149428
0.000151295
0.000175234
0.000142584
0.000191609
0.0305911
0.000177326
0.0282167
0.00958054
0.000156682
0.000162368
0.00458241
0.000194532
0.000138848
0.000143188
0.000134653
0.0281424
0.000133226
0.000217357
0.000206347
0.000189702
0.0304062
0.0278581
0.000185636
0.0462962
0.0001413
0.00013724
0.0013411
0.0143864
0.000146152
0.000147186
0.000747423
0.000140912
0.000223469
0.000156543
0.000143814
0.000159467
0.000146622
0.000188057
0.0295024
0.0270905
0.000157762
0.000146682
0.000192974
0.00015295
0.000189526
0.000141109
0.00020104
0.000192334
0.000150319
0.000148961
0.000135174
0.000197637
0.000214171
0.000212474
0.00353786
0.000165507
0.0180192
0.000188396
0.000196672
0.0299248
0.000143963
0.028893
0.000152164
0.0363988
5.66001e-05
0.0282307
0.0268007
0.000150084
0.000182099
0.00147834
0.000147374
0.0225166
0.000147543
0.000146803
0.000159456
0.000151038
0.000165504
0.00014522
0.0030742
0.032437
0.000159806
0.000176242
0.000152994
0.000149336
0.000148243
0.00019629
0.000191859
0.0305458
0.000178223
0.000138152
0.000140107
0.000150831
0.000230302
0.000156841
0.000152002
0.000158698
0.000200643
0.000166362
0.000178202
0.000178895
0.0301798
0.000164981
0.000167667
0.000145006
0.000159565
0.00075625
0.00241819
0.000181608
0.000140723
0.0223367
0.00016825
0.000144259
0.000179355
0.0331049
0.00161566
0.000169901
0.000141031
0.0294039
0.000150619
0.000140829
0.000138499
0.0145365
0.00164481
0.000156605
0.0126988
0.0202493
0.000169023
0.000178381
0.000184435
0.0481451
0.000166555
0.038718
0.000150772
0.000161549
0.000161095
0.0406146
0.00016858
0.00014235
0.0365445
0.00014663
0.000152237
0.0270963
0.0162938
0.000216522
0.00101342
0.000156707
0.000153065
0.00670255
0.00014418
0.000142634
0.000146888
0.000177761
0.000144811
0.000165808
0.000168693
0.00166015
0.00522409
0.000151308
0.0230509
0.000167557
0.0343363
0.0286308
0.000146753
0.000149152
0.000158693
0.000191843
0.000208794
0.000186662
0.0324739
0.0297733
0.000213613
0.000150552
0.0122714
0.0232923
0.000209707
0.00154653
0.000148636
0.000146551
0.000146808
0.000152728
0.000143419
0.000167993
0.027633
0.000168267
0.00378639
0.0206644
0.00943972
0.0333449
0.0391252
0.000165667
0.0431302
0.000196852
0.000188629
0.000138767
0.000147689
0.000186921
0.0249247
0.000151832
0.0268059
0.0377103
0.00014215
0.000147742
0.000147221
0.000194257
0.000151046
0.000188511
0.028889
0.000139211
0.000143919
0.000141727
0.000151827
0.000194411
0.0295492
0.000172835
0.0179253
0.000194013
0.000142893
0.00328698
0.000197511
0.0001481
0.000419697
0.0035873
0.0292077
0.00688798
0.0266645
0.000146902
0.0105398
0.0312338
0.000204533
0.0189564
0.000143484
0.000154895
0.000156385
0.000154622
0.027027
0.000186407
0.000148991
0.000162028
0.00342474
0.0312605
0.000150169
0.000147342
0.0467148
0.0383453
0.000148821
0.000163391
0.000194524
0.000143659
0.00014425
0.0233876
0.000142725
0.000226628
0.00333584
0.0300165
0.000142363
0.00019221
0.000203811
0.000143927
0.000136296
0.024833
0.0170574
0.000149715
0.000168694
0.000207119
0.000222648
0.0428836
0.009214
0.000159807
0.0030965
0.00415654
0.000170304
0.000141924
0.000221313
0.000137027
0.000137359
0.0255227
0.000174141
0.000192328
0.00015699
0.000159857
0.000143197
0.000138111
0.000151111
0.000151968
0.0192823
0.000156525
0.00271198
0.0192874
0.000177645
0.000188342
0.0273745
0.0380043
0.021606
0.000141047
0.000157784
0.000170882
0.000159365
0.000220556
0.00299491
0.000150984
0.00233917
0.03067
0.000161327
0.000193041
0.000189482
0.000194911
0.000196774
0.000153249
0.000198984
0.000200636
0.000202578
0.00020484
0.000197327
0.000191528
0.000159822
0.00014187
0.000168059
0.000192973
0.000142621
4.14434e-05
0.0453067
0.000204449
0.0352099
0.000135891
0.000140797
0.000235309
0.0171372
0.000151662
0.000156298
0.000184578
0.0363171
0.00117034
0.000147473
0.000165639
0.000158647
0.0100895
0.00330339
0.000156205
6.59947e-05
0.0312611
0.000195712
0.0378252
0.000192907
0.00164487
0.0442798
0.000130934
0.0431901
0.0346521
0.000152747
0.000187352
0.000192529
0.000160178
0.000142369
0.000156099
0.01866
0.000142533
0.000142881
0.0280725
0.00077936
0.000189511
0.000149419
0.000199396
0.000200811
0.0376224
0.0284733
0.000147412
0.000143984
0.000151461
0.000157824
0.0358977
0.00102585
0.0304825
0.000191374
5.90188e-05
0.00627701
0.000158168
0.000141672
0.0312179
0.000143099
0.0408058
0.000143144
0.0387764
0.000152579
0.000152334
0.00464033
0.000146398
0.00019778
0.00391922
0.00016664
0.000155625
0.000153007
0.000207891
0.0262321
0.000203227
0.0360309
0.000165147
0.00015544
0.000162189
0.000188812
0.0466971
0.0370231
0.000192734
0.000221681
0.000199811
0.010801
0.000140267
0.000142797
0.000139394
0.000138786
0.000110892
0.000201961
0.000718875
0.0001769
0.00020327
0.000143758
0.00362863
0.000374409
0.00898302
0.000144598
0.000153552
0.000133488
0.0334428
0.00015307
0.0058222
0.000129055
0.000199343
8.75958e-05
0.000134909
0.000171671
0.000202021
8.41639e-05
0.00055789
0.000146279
0.00020117
0.000150768
0.00014887
0.000199461
0.00520768
0.00496311
0.000149691
0.000191215
0.000165036
0.0344244
0.0199446
0.0344739
0.0315958
0.000143725
0.000184694
0.00014804
0.000201974
0.000144953
0.000194329
0.000154849
0.000179916
0.00283973
0.00501427
0.000161324
0.000207026
0.0347185
0.000198078
0.000155674
0.0228741
0.000196178
0.000152083
0.000150579
0.028562
0.00016396
0.00019596
0.000101167
0.000421767
0.021155
0.000157554
0.0228988
0.0302771
0.00319277
0.000162788
0.000166919
0.000197063
0.000195038
0.0320448
0.000213427
0.000151175
0.00184624
0.000192463
0.000120127
0.000162955
0.0275278
0.000595523
0.00478226
0.000159612
0.0283871
0.000156997
0.0270111
0.000203828
0.00479883
0.0163524
0.00014076
0.000133444
0.0300203
0.0419473
0.000195346
0.00015083
0.00017794
0.000167102
0.0207164
0.000215714
0.0345532
0.000160396
0.0343185
0.000195512
0.0139823
0.000150973
0.000138637
0.0321259
0.000163177
0.00019119
0.000135487
0.00015694
0.000147953
0.00306354
0.000143888
0.000147435
0.0432576
0.0136986
0.00013864
0.0446868
0.000152001
0.000147647
0.000143992
0.000142868
0.000149092
0.000612541
0.0435451
0.0001397
0.000392984
0.000187012
0.00017866
0.00200497
0.000191956
0.000159536
0.000166633
0.000143149
0.00302902
0.000164736
0.0455245
0.000170438
0.0224727
0.00113701
0.000187837
0.00463051
0.0339747
0.000139678
0.0249157
0.000182982
0.000186664
0.000195499
0.000144508
0.000201491
0.000211045
0.000147389
0.000236638
0.000144007
0.0314673
0.000202374
0.0258364
0.000206869
0.00020575
0.0421649
0.000148178
0.00014496
0.000185159
0.000154018
0.000149091
0.000149303
0.000162349
0.000143452
0.000142755
0.000153215
0.00017869
0.000154805
0.000162465
0.000156796
0.000177959
0.000195008
0.00015566
0.0344651
0.000154962
0.000143591
0.000193754
0.00017504
0.000158439
0.000143525
0.000265401
0.000154472
0.0298599
0.000155048
0.000195965
0.000143637
0.000147035
0.000209875
0.0462059
0.000188079
0.00017203
0.000135541
0.0380965
0.000148213
0.000142511
0.00018987
0.000156111
0.000202567
0.0347734
0.000195554
0.000269926
0.00017729
0.0212183
0.000147669
0.000148386
0.000186075
0.00311476
0.000184107
0.000193494
0.0294323
0.000162816
0.000147819
0.00016258
0.000206924
0.000182589
0.000147638
0.000195659
0.00019424
0.000186257
0.000148963
0.000147626
0.000219747
0.000185752
0.0043949
0.00657977
0.000156129
0.000188541
0.000148894
0.000176546
0.0121632
0.000149194
0.000207617
0.000165563
0.000190507
0.0172074
0.000146839
0.000146706
0.000142914
0.0420554
0.000220425
0.000155468
0.000207061
0.000197549
0.000148667
0.000147125
0.00016275
0.0437964
0.000224585
0.0334169
0.00021375
0.000165285
0.00021857
0.000199376
0.000165203
0.00614806
0.000192307
0.00633332
0.000147169
0.000194358
0.000201255
0.000152301
0.000930809
0.000175216
0.000211756
0.000162183