/*--------------------------------*- C++ -*----------------------------------*\
| =========                 |                                                 |
| \\      /  F ield         | OpenFOAM: The Open Source CFD Toolbox           |
|  \\    /   O peration     | Version:  v2012                                 |
|   \\  /    A nd           | Website:  www.openfoam.com                      |
|    \\/     M anipulation  |                                                 |
\*---------------------------------------------------------------------------*/
FoamFile
{
    version     2.0;
    format      ascii;
    class       surfaceScalarField;
    location    "300";
    object      meshPhi;
}
// * * * * * * * * * * * * * * * * * * * * * * * * * * * * * * * * * * * * * //

dimensions      [0 3 -1 0 0 0 0];
oriented        oriented;


internalField   nonuniform List<scalar> 
20673
(
7.89511e-06
4.98993e-06
-1.28226e-05
-3.5783e-06
-4.33702e-06
8.45622e-06
6.83378e-06
-2.14896e-06
-4.68418e-06
1.16962e-05
1.02901e-06
-1.2054e-05
1.23638e-05
-1.1391e-05
2.93303e-07
-5.85224e-06
6.05347e-06
-2.03536e-07
4.75163e-06
1.76613e-06
-6.5174e-06
-5.74515e-06
4.61692e-06
1.12856e-06
-5.48559e-06
9.84106e-07
4.50181e-06
-1.04919e-05
2.18737e-06
8.33361e-06
-7.70974e-06
-3.49119e-07
8.06543e-06
-1.04921e-05
1.10143e-05
-4.92385e-07
8.95757e-06
3.1626e-06
-5.0086e-06
1.84486e-06
-1.04057e-05
1.7674e-05
-7.11967e-06
6.89527e-06
8.63735e-06
-1.53085e-05
1.25715e-05
-3.98641e-06
-8.09458e-06
-1.10447e-05
5.13441e-07
1.05683e-05
2.31601e-06
-1.27739e-05
-1.97723e-05
2.11947e-05
-1.00883e-06
-3.853e-06
9.82179e-08
4.04743e-06
-5.05753e-07
5.25771e-06
9.78921e-07
-1.79174e-05
1.70727e-05
-2.82856e-06
-2.91601e-06
2.54869e-06
-1.948e-06
-6.91511e-08
-6.55141e-06
3.88344e-06
2.66832e-06
-4.73947e-06
-6.08311e-06
1.0827e-05
1.77635e-06
-7.54005e-06
5.76779e-06
3.40279e-06
-6.68261e-06
3.27939e-06
7.09254e-07
-8.8093e-06
8.11391e-06
6.10157e-06
6.31962e-06
-1.23644e-05
7.87326e-06
5.82301e-06
-1.35333e-05
-1.01803e-05
-1.99653e-06
1.21923e-05
-3.73853e-06
1.53632e-05
-1.16061e-05
-2.24508e-07
4.26722e-07
1.77966e-07
-4.16873e-06
-1.7934e-06
5.96385e-06
-1.62487e-05
1.73492e-05
-5.27139e-06
4.15833e-06
1.11307e-06
-1.19824e-05
1.54054e-05
-3.97099e-06
4.21098e-06
-2.40039e-07
-8.50296e-06
-8.60567e-06
1.13636e-05
-2.69085e-07
-1.89835e-06
2.35521e-06
-4.95769e-05
-1.07534e-05
5.98099e-05
9.2015e-06
-8.51637e-06
-6.81838e-07
-1.89315e-06
3.44673e-06
-6.76692e-07
-1.57521e-05
1.48113e-05
9.7229e-07
2.30013e-06
-1.33021e-05
1.22182e-05
-6.99076e-06
-5.20046e-06
5.16004e-06
-4.54801e-06
-6.18967e-07
1.26616e-06
1.04213e-05
-1.55355e-05
-1.54589e-05
6.48719e-06
9.18072e-06
-1.09448e-05
1.63854e-05
-5.38263e-06
5.57122e-06
-4.67476e-07
-1.46185e-05
1.08982e-05
1.01281e-05
2.91148e-06
-8.31795e-06
-4.87524e-06
1.34221e-05
2.11493e-06
-9.81593e-06
8.91185e-06
1.89691e-06
-9.9368e-06
-1.53531e-05
1.29341e-05
2.79983e-06
3.29998e-07
-1.39358e-06
-6.34251e-06
5.74742e-06
5.95768e-07
-9.64359e-06
6.66657e-06
-1.22227e-06
-2.18376e-05
1.98642e-06
-6.59291e-06
7.38625e-07
-1.78651e-06
-4.12375e-06
5.91091e-06
-3.00655e-07
4.07546e-06
-6.03261e-06
-5.50896e-07
-6.00764e-06
-1.0823e-06
7.09527e-06
-1.0056e-05
-1.93032e-06
1.20633e-05
1.45761e-07
1.35884e-05
-4.85602e-06
-6.29215e-07
5.25461e-06
-3.54477e-06
-1.7098e-06
3.29862e-06
-1.51277e-07
4.69937e-06
-1.54605e-07
-4.50641e-06
1.23201e-05
-6.44571e-06
-5.85047e-06
3.79682e-06
-4.24531e-06
4.48506e-07
-1.08196e-05
1.00277e-05
1.42551e-06
5.0334e-06
1.65969e-06
-6.69277e-06
-2.00619e-07
-5.95569e-06
6.51402e-06
-9.4308e-06
1.96296e-06
7.79318e-06
5.02657e-06
5.94251e-06
-6.07729e-06
1.34673e-07
-3.58512e-06
-1.68608e-06
-5.88757e-06
5.44318e-06
4.44523e-07
-6.82463e-06
-3.29375e-06
-1.53535e-05
1.55116e-05
5.53588e-07
2.88996e-06
-4.67599e-06
-5.84664e-06
-9.36056e-06
-2.67295e-06
-4.74572e-05
-5.32378e-06
4.0837e-06
1.24012e-06
3.98948e-06
-1.26731e-05
8.70416e-06
-3.44591e-06
1.44969e-06
3.1741e-06
-7.1945e-06
1.70851e-05
-9.61833e-06
-2.27242e-06
5.16278e-06
-4.90735e-06
-1.43694e-06
6.34195e-06
-8.67788e-06
1.02954e-06
7.65762e-06
-5.83974e-06
1.17039e-05
-5.83786e-06
-9.35997e-06
8.70585e-06
6.6295e-07
5.09727e-06
4.36952e-06
-9.46535e-06
3.40919e-05
1.24813e-05
-4.63833e-05
7.68501e-06
-1.3658e-05
5.98215e-06
6.73218e-06
2.47221e-06
-5.11747e-06
1.08746e-05
-5.25177e-06
-1.71756e-05
2.96939e-05
-1.07436e-05
2.79985e-06
3.19668e-06
-5.99607e-06
-7.84204e-06
6.99503e-06
8.48562e-07
8.26849e-06
3.97092e-06
-1.26859e-05
9.23093e-06
-6.44653e-06
-5.05516e-06
1.15521e-05
-5.5541e-06
4.91602e-06
6.38117e-07
-5.6525e-06
1.68152e-06
-9.2918e-06
3.90433e-07
8.9182e-06
-2.08773e-06
4.88798e-06
3.07534e-06
-1.40457e-05
1.09589e-05
5.30235e-06
-3.41565e-06
-1.88722e-06
1.20499e-05
3.12254e-06
-1.46864e-05
4.27502e-07
4.64558e-06
-5.08991e-06
3.85794e-06
8.64524e-07
-4.72246e-06
1.54383e-05
-3.36969e-06
-1.20481e-05
4.906e-06
-4.93444e-06
2.50184e-06
-8.50341e-06
4.80136e-06
-3.05697e-06
-1.74438e-06
9.99585e-06
-8.21432e-06
6.60042e-06
-1.37775e-05
3.77114e-06
1.00212e-05
-1.69137e-05
-2.65947e-06
2.74755e-06
6.20414e-07
-4.91373e-06
7.52173e-06
-5.29074e-05
-1.33513e-05
6.24808e-05
1.14331e-06
-4.82018e-06
9.33016e-07
3.8872e-06
1.6351e-05
-1.32913e-05
3.8857e-06
3.11715e-07
-3.72273e-06
1.69596e-09
3.54652e-07
-5.72778e-06
5.37487e-06
-5.76674e-06
2.93873e-06
1.24052e-05
-4.44819e-06
-2.08708e-06
7.18545e-06
4.38809e-06
-3.31782e-08
1.24415e-05
3.01975e-06
5.77498e-06
1.69182e-06
-7.46407e-06
5.82108e-06
-2.05069e-05
1.5844e-05
-1.74144e-05
-5.01838e-07
1.80284e-05
2.87209e-08
7.10321e-06
-7.12956e-06
-5.82518e-06
-1.25481e-07
-4.59553e-06
6.86352e-06
-2.26722e-06
4.46625e-06
-7.04705e-06
2.58131e-06
-1.68586e-05
5.97564e-06
6.43569e-06
-2.51427e-05
2.00719e-05
-7.9891e-06
-5.67433e-06
1.38317e-05
-1.06316e-05
1.09532e-05
-2.87472e-07
2.56321e-06
2.73864e-06
-1.30319e-05
5.10787e-06
7.94319e-06
1.23447e-05
-1.23514e-05
5.77609e-08
6.07519e-06
8.67747e-06
-1.4522e-05
-6.35185e-06
1.35234e-06
5.00009e-06
4.45202e-06
-1.44133e-05
7.84012e-06
-2.75805e-06
-5.07998e-06
4.63256e-06
-8.35732e-07
-5.23627e-06
5.59264e-06
-1.39395e-05
-1.77176e-06
1.57862e-05
8.46311e-06
-1.23728e-05
3.90441e-06
-7.44096e-06
8.2817e-06
-9.70388e-07
1.30579e-06
-9.97295e-06
2.19772e-06
-1.14671e-05
-9.21352e-06
-1.37812e-07
5.05753e-06
-9.70109e-06
-5.95332e-06
-4.72699e-06
1.07097e-05
4.18297e-06
-2.42225e-06
-5.24028e-07
1.28166e-05
-5.1273e-06
6.27988e-06
6.2897e-06
-1.25074e-05
-1.05632e-06
4.32903e-06
-3.2727e-06
-6.58712e-06
1.01463e-05
-3.54436e-06
-1.48143e-05
8.70673e-06
6.49841e-06
3.10768e-06
3.93526e-06
-7.04201e-06
-1.18304e-05
1.03194e-05
1.54471e-06
3.91916e-07
-5.21203e-06
4.84839e-06
-4.43449e-06
1.91547e-06
-6.51018e-06
3.1207e-07
3.53452e-08
5.83986e-07
1.10052e-05
-6.99825e-06
1.38577e-05
-7.69363e-06
-1.54841e-05
2.24628e-05
-1.67082e-05
1.86198e-06
-5.48501e-07
1.24076e-05
-1.17839e-05
-4.06392e-06
-2.48696e-06
-8.11327e-06
3.39386e-06
4.72332e-06
-8.94947e-07
-5.45661e-06
-7.8447e-06
-3.95434e-06
1.18664e-05
-6.49583e-06
-3.46835e-07
6.84964e-06
-8.90198e-06
5.17329e-06
3.73113e-06
-4.59639e-06
-1.29098e-06
-9.84733e-07
-5.83065e-06
6.81896e-06
-4.88911e-06
2.04028e-05
-1.55688e-05
7.83081e-06
-7.85602e-06
2.48848e-08
5.59431e-06
-1.03281e-05
-4.70471e-06
-6.19003e-06
-1.24656e-06
-1.10788e-06
7.11305e-06
-9.01159e-07
-6.20937e-06
-1.2818e-06
-3.61871e-06
4.9011e-06
-1.53701e-05
1.06128e-05
5.0596e-06
-1.05195e-05
8.89268e-06
9.73518e-06
-1.30021e-05
3.30604e-06
1.69222e-06
-1.22846e-05
1.696e-06
3.55863e-06
4.60859e-06
2.12877e-06
-6.73545e-06
9.36557e-07
-8.16725e-07
9.93215e-06
-2.50226e-07
-1.24245e-05
6.61255e-06
7.11774e-06
-4.39128e-06
-2.72582e-06
1.60819e-06
-1.88274e-05
3.51643e-06
2.55841e-06
-6.0745e-06
4.09774e-06
-5.52693e-06
1.4292e-06
-1.00246e-05
3.53882e-06
1.0871e-05
-2.64688e-05
4.47841e-06
-6.98217e-06
2.50517e-06
-6.55121e-06
1.23078e-05
-5.72221e-06
4.77736e-06
-5.04219e-06
2.64839e-07
1.10993e-07
5.606e-06
-5.21649e-06
-5.17812e-06
-1.1634e-06
-2.4731e-07
1.5999e-06
9.91416e-06
-5.38221e-06
-4.51758e-06
-1.96299e-05
6.58301e-06
-4.91627e-06
4.54296e-06
3.73999e-07
1.91165e-06
3.45071e-06
-5.36196e-06
1.59377e-05
-8.84757e-06
1.47058e-06
5.85471e-06
-7.32393e-06
1.42117e-05
-7.93611e-06
-2.23636e-05
3.48705e-05
-6.22073e-06
2.05363e-06
3.53586e-06
-1.01076e-05
-1.20229e-05
4.25089e-06
-1.49375e-06
5.98273e-06
-4.48827e-06
1.32841e-07
3.96491e-06
-1.90595e-05
-3.15929e-05
4.77995e-05
-4.95669e-06
1.29828e-05
-1.68104e-06
-3.64266e-06
-4.41763e-06
4.90415e-06
-4.86459e-07
-7.31218e-06
-1.31614e-07
2.02634e-05
1.30937e-05
-3.24653e-05
6.94822e-07
-4.38443e-06
-2.42539e-06
-5.28948e-06
7.72236e-06
3.63186e-06
1.58701e-08
-4.09365e-06
6.47982e-06
2.11336e-06
-8.59003e-06
5.3864e-06
4.67057e-06
-1.00414e-05
-1.64044e-06
1.00996e-05
-9.90708e-06
1.25895e-05
-2.60429e-06
5.13561e-07
7.79643e-06
6.61494e-06
-1.32146e-05
6.63974e-06
-2.83614e-06
-1.54614e-06
4.38229e-06
7.31825e-06
1.22841e-06
-7.2385e-06
1.08068e-05
-2.04653e-06
-8.74621e-06
8.07379e-06
-7.82385e-06
-2.48408e-07
-1.58638e-06
-3.03231e-07
-6.03298e-06
8.69876e-06
-1.25075e-05
7.55563e-06
4.97794e-06
-5.74205e-06
3.55241e-06
2.18952e-06
-4.78414e-06
-8.22782e-06
-9.9729e-06
9.48381e-06
-1.49458e-05
4.67421e-06
-6.46168e-06
6.29709e-06
-1.46823e-07
3.27459e-06
1.52677e-06
7.37144e-06
-4.9541e-06
-2.41647e-06
-8.49479e-06
1.80159e-06
6.69602e-06
6.37859e-06
-2.74332e-05
5.43511e-06
-3.61496e-06
-1.82009e-06
-3.71464e-06
-1.2455e-06
4.96025e-06
6.17148e-06
1.6703e-06
-1.6947e-07
5.20315e-06
4.78159e-06
7.55698e-06
-8.87485e-06
1.17222e-05
-6.58644e-07
-1.55791e-05
7.63604e-06
-1.19497e-05
4.35069e-06
-5.54462e-06
2.98079e-06
2.5638e-06
-7.32346e-06
-1.57735e-06
8.91122e-06
-1.03829e-05
-4.57816e-06
-1.87219e-06
6.48258e-06
7.66647e-06
-1.32262e-05
5.30441e-05
-3.45371e-05
-2.39245e-05
-3.87245e-06
-1.66985e-06
5.54316e-06
-2.22187e-05
2.36666e-05
-8.41954e-07
-2.81273e-06
5.92127e-06
-8.05337e-06
-6.92844e-06
3.05228e-06
-2.81164e-07
-1.72817e-05
9.30523e-06
8.11659e-06
9.28385e-06
3.10944e-06
-6.49949e-06
-5.87833e-06
6.23609e-06
2.46105e-07
-1.54265e-05
5.73822e-06
9.77952e-06
4.16415e-07
-2.38499e-06
3.08752e-06
-5.26418e-06
-2.67635e-06
7.94307e-06
-5.31106e-06
3.81789e-06
3.59116e-06
3.78083e-06
-6.76121e-06
7.44609e-06
4.02761e-06
-7.8887e-06
3.86265e-06
-1.00386e-05
1.21496e-05
-1.47275e-06
4.2182e-06
-2.62438e-06
-5.72252e-06
1.80587e-05
-1.26512e-06
5.7325e-06
-2.51961e-05
1.03124e-05
1.12163e-05
5.79279e-06
4.13282e-06
4.57647e-06
-1.43917e-05
4.15147e-06
1.47168e-06
1.08934e-05
-1.12455e-06
9.08364e-06
-1.44103e-05
5.71227e-06
-1.37585e-07
2.70706e-06
-2.5978e-06
-8.66873e-06
-3.12328e-06
-6.64086e-06
-6.00678e-06
1.56268e-05
-1.21621e-05
-2.00041e-06
-7.00166e-06
1.74777e-06
-6.03834e-06
3.02579e-06
3.01257e-06
1.25996e-06
3.1888e-06
-4.44882e-06
-9.05912e-06
1.25747e-05
1.19208e-05
-1.59168e-06
-1.47311e-05
2.86673e-06
-6.73821e-06
2.8555e-06
-2.75829e-06
1.1721e-06
-5.38022e-06
1.83549e-06
1.88557e-05
-1.58201e-06
-6.57721e-07
-4.25814e-06
-1.67273e-06
-1.64073e-06
4.27737e-06
2.56126e-06
-8.1494e-06
5.59141e-06
-1.81395e-06
-1.12438e-05
1.31991e-05
-4.02555e-06
4.63537e-06
-5.83366e-07
-1.85175e-05
4.66634e-06
-9.12477e-06
3.89034e-06
7.25712e-07
4.4284e-06
-5.15228e-06
-4.29804e-06
-1.28306e-05
-7.41704e-06
4.998e-06
-6.43165e-06
4.49507e-07
5.98439e-06
-1.4323e-05
6.60673e-06
8.20535e-06
-5.56119e-06
4.11524e-06
1.44592e-06
2.43449e-06
5.39585e-06
-3.93479e-06
2.19399e-07
7.1485e-06
8.95158e-06
-1.60512e-05
-3.53543e-06
4.38511e-06
-8.49644e-07
-1.03205e-05
1.29216e-05
-2.44818e-06
5.79136e-06
-1.50377e-06
-4.28747e-06
6.96797e-06
-6.23986e-06
-1.07366e-05
4.26594e-06
6.47611e-06
-2.5313e-06
-8.19866e-06
1.728e-06
5.10621e-06
-4.88336e-07
-6.44192e-06
6.69296e-06
-6.49151e-06
1.28286e-05
-4.16508e-06
-1.38895e-06
-1.41624e-05
3.03071e-06
1.14577e-05
9.49191e-06
-1.56174e-05
6.46156e-06
-2.58766e-06
-2.42066e-06
7.12889e-06
-1.35387e-08
-1.16745e-05
1.6072e-05
-3.82009e-06
-3.83909e-06
-5.05972e-06
5.788e-06
-2.38532e-06
5.45597e-06
-4.46403e-05
3.84425e-05
-9.62539e-07
4.82049e-06
-1.37229e-06
6.81138e-06
-5.43673e-06
-2.21842e-05
3.01648e-07
8.59095e-06
1.86658e-05
-2.6102e-05
-9.57064e-06
2.41497e-07
-1.87069e-05
2.64654e-05
-7.74834e-06
2.48675e-06
4.38541e-06
1.82698e-06
-6.21163e-06
-5.19308e-06
6.97898e-06
-1.78616e-06
-1.76262e-06
-4.27566e-06
7.09185e-06
-8.76156e-06
2.63871e-06
8.79378e-06
2.02355e-06
-2.32626e-06
-2.02531e-06
4.35776e-06
-1.35939e-05
1.5333e-06
1.2127e-05
5.28285e-06
-2.15676e-06
-3.38782e-06
5.10873e-06
6.28184e-05
-2.6486e-05
-3.61606e-05
-8.95873e-07
-7.59554e-06
2.69015e-05
-4.55635e-06
-2.13715e-05
-6.67878e-06
1.50165e-06
2.3627e-06
-1.24074e-06
-4.46427e-06
4.52984e-07
1.01609e-05
-4.75996e-06
1.35346e-05
-1.38066e-05
7.85788e-07
-6.57421e-06
-1.76772e-06
7.67638e-06
-6.44205e-06
-5.95131e-06
7.3514e-06
3.66693e-06
-7.67569e-06
-1.68143e-06
9.37418e-06
-1.15126e-06
4.04781e-06
-2.89834e-06
2.54048e-06
3.25096e-06
5.16319e-07
4.26104e-06
1.23263e-05
-5.67858e-06
-1.0302e-05
-1.63473e-07
2.77892e-05
-6.73577e-06
-1.23794e-06
-3.17961e-06
4.03429e-06
-6.00088e-06
1.96688e-06
1.23034e-05
-4.58927e-06
-6.80635e-06
-5.39335e-06
-3.72882e-06
-1.01097e-05
1.0338e-06
9.51563e-06
8.3403e-06
-5.75069e-06
-2.58549e-06
-2.47568e-06
1.71653e-06
5.47566e-06
-6.23488e-06
3.91886e-06
-9.72137e-06
6.06276e-06
3.38903e-06
-5.4274e-06
2.03865e-06
1.12808e-05
-7.05838e-06
-2.88538e-06
-2.85626e-06
-4.50768e-06
5.23146e-06
-7.24005e-07
-5.99926e-06
3.98141e-07
5.60521e-06
-7.44947e-06
5.50339e-06
1.94961e-06
-8.70792e-06
-5.15354e-06
-1.45726e-06
5.93695e-06
-3.01912e-06
-5.19173e-06
2.04021e-05
-1.49957e-05
-7.11314e-07
8.71525e-08
-1.37824e-05
4.16392e-06
-4.7395e-07
-3.50082e-06
7.13637e-06
-6.41569e-06
-7.48571e-06
5.44207e-07
1.2864e-06
-2.39178e-08
-9.25272e-07
-9.74038e-07
2.86466e-05
-5.81957e-06
-1.92578e-06
-5.23759e-06
5.38614e-06
1.64709e-06
-5.18233e-06
-6.68052e-06
3.81528e-06
2.86578e-06
4.96345e-06
-4.61146e-06
-3.52218e-07
5.53422e-06
-6.51558e-06
-5.6162e-06
4.04848e-06
1.56779e-06
4.479e-06
-4.60671e-06
1.27723e-07
-2.93803e-07
-1.32251e-05
-2.29631e-06
1.02351e-05
6.68713e-06
-9.04716e-06
2.36678e-06
-9.22263e-07
-1.07443e-05
-6.83552e-06
-6.38618e-06
1.33503e-05
-1.8322e-05
1.34705e-05
6.30166e-06
1.92071e-06
5.19749e-06
-3.19282e-06
-3.48688e-06
-7.62883e-06
-7.39019e-06
1.51906e-05
-6.53331e-06
9.00828e-06
-2.46418e-06
-1.13712e-05
1.85717e-05
4.9423e-06
1.08253e-05
-1.17629e-05
4.10788e-06
-1.3164e-05
4.56362e-07
1.3061e-05
-6.64031e-06
-6.37689e-08
6.70687e-06
-9.02661e-06
-3.13171e-06
-1.30235e-05
-1.48398e-05
-3.79598e-06
-1.58418e-06
-4.31629e-06
4.70826e-06
4.83282e-07
-4.79952e-06
8.43519e-06
-7.848e-06
-5.7648e-07
7.56927e-07
4.20593e-06
-3.41079e-06
-2.1503e-06
-5.24001e-06
2.2331e-06
3.00697e-06
3.50311e-06
-5.2484e-06
1.74529e-06
6.18475e-05
-5.24012e-05
-1.31729e-05
6.10068e-06
-1.1551e-05
5.47991e-06
5.85647e-07
-1.33779e-05
-2.69509e-06
-8.31328e-06
1.15973e-05
-1.30214e-06
6.58331e-06
-5.27898e-06
9.96793e-06
-2.07373e-05
-6.5761e-06
1.94495e-05
-1.24725e-05
7.72348e-06
4.77976e-06
1.45637e-05
-7.08691e-06
-7.38858e-06
-1.35018e-06
-3.21965e-06
4.56984e-06
1.14791e-05
-1.64765e-05
7.04625e-06
-9.66316e-06
2.62915e-06
-5.23137e-06
4.29454e-06
9.36414e-07
-5.40094e-06
7.31869e-06
-1.91557e-06
4.7707e-06
-2.1881e-06
-2.58253e-06
-4.86229e-06
6.03824e-06
7.04727e-06
5.04174e-06
-1.95482e-05
-7.19197e-06
1.17208e-05
1.18181e-05
5.0831e-05
4.36263e-06
-6.57148e-06
2.20941e-06
7.47041e-07
-5.94052e-06
-7.4565e-06
-7.86375e-06
-5.4565e-06
1.68858e-06
3.76802e-06
-1.50439e-05
6.96738e-06
-7.05362e-06
8.36846e-06
-1.89319e-06
-3.34673e-06
-3.68632e-06
-3.35999e-06
-1.00103e-05
4.01877e-06
7.11982e-06
-1.34232e-06
-1.8381e-06
8.89479e-06
1.0154e-05
2.53775e-06
-1.26594e-05
-8.62167e-06
7.90012e-06
7.28606e-07
-7.59484e-06
-3.91186e-06
1.15577e-05
-6.61884e-06
-1.45332e-06
8.07882e-06
-6.51707e-07
6.43099e-06
-1.17491e-05
5.35797e-06
-6.59808e-06
9.66762e-06
-3.05474e-06
-2.06774e-05
-1.12596e-05
2.20991e-05
-2.76013e-06
6.46267e-06
-3.70078e-06
1.03262e-05
-1.5511e-05
5.40939e-06
-1.59779e-05
-1.90582e-05
3.66275e-05
6.10559e-06
-1.3211e-05
-4.4816e-07
-9.90502e-06
1.09649e-05
-4.78901e-06
3.43883e-06
-4.97554e-06
2.88813e-06
5.08445e-06
-9.81165e-07
1.80621e-05
2.79269e-05
4.56177e-06
-6.67649e-06
2.11533e-06
3.8279e-07
4.09621e-06
-3.6879e-07
5.89611e-06
2.56873e-06
2.20194e-06
-1.87211e-06
-4.26476e-06
6.80942e-06
1.32374e-06
6.0471e-06
-7.36624e-06
-4.95656e-07
7.75615e-07
1.05971e-06
8.367e-07
-4.10982e-06
3.27313e-06
-7.69362e-06
1.5233e-06
6.17229e-06
-1.45339e-05
6.70915e-06
1.45315e-06
-6.78428e-06
5.81847e-06
-3.35827e-06
-2.25782e-06
-2.18935e-06
-5.91942e-06
-2.41963e-06
-1.97194e-06
4.39157e-06
-7.50145e-06
-3.15746e-07
-5.19728e-06
1.99154e-06
3.20575e-06
4.66068e-06
3.20993e-06
-6.68194e-06
3.47305e-06
1.28167e-05
-2.74571e-05
4.80466e-06
6.38629e-07
2.79022e-06
-6.1485e-06
3.35865e-06
-1.29864e-05
9.88939e-07
1.20618e-05
2.65606e-05
-1.69364e-05
-8.7933e-06
-2.95117e-06
1.21253e-05
-6.3662e-06
7.01516e-06
1.32853e-06
-3.03015e-05
2.67949e-06
-1.00065e-05
2.98535e-05
-8.14544e-06
-1.61032e-05
2.25455e-05
1.57882e-05
-2.57867e-05
4.61277e-06
8.22335e-07
-6.40572e-06
5.10565e-06
-1.32063e-05
3.28029e-06
5.32539e-06
-8.60153e-06
-1.70535e-08
7.62412e-06
4.5227e-05
-1.11366e-05
-9.98626e-06
3.464e-06
4.30272e-07
-5.44382e-06
5.01385e-06
8.25062e-06
4.65833e-06
-1.28169e-05
-1.23232e-06
-8.33376e-08
3.39986e-07
4.1555e-06
3.82494e-07
-3.70076e-07
4.70764e-08
6.07758e-06
-5.49759e-06
9.01408e-07
-1.57836e-05
1.77065e-05
-1.90094e-06
1.96697e-06
-1.31925e-06
6.22737e-09
-7.53304e-06
-1.32477e-05
5.71049e-06
-1.00714e-05
8.36193e-06
1.27206e-05
-5.85749e-06
1.25309e-05
-3.60558e-06
-8.5875e-06
-1.14971e-05
-1.43205e-06
1.31033e-05
-1.07274e-05
4.14596e-06
-6.26987e-06
-1.59411e-07
6.67745e-06
-2.32066e-06
9.01372e-06
-6.68953e-07
7.31647e-06
-6.63692e-06
6.57547e-06
-4.4448e-06
-1.13801e-05
4.76089e-06
1.86559e-06
6.83134e-06
-8.1425e-06
2.611e-06
-5.44714e-06
-8.77198e-09
-3.72208e-06
1.35055e-05
-9.26207e-06
1.21096e-05
-2.36715e-06
3.51682e-06
-6.27532e-06
-9.95267e-06
8.55469e-06
1.4091e-06
2.32455e-05
-1.30061e-05
-1.4434e-05
-6.64759e-06
1.24877e-06
-7.22678e-06
-5.24332e-07
7.7612e-06
-3.24192e-06
4.49123e-06
-1.25169e-06
-6.81822e-06
6.15885e-06
-1.51176e-05
5.8488e-06
9.3007e-06
9.47998e-06
5.15657e-06
5.72887e-06
-1.29934e-05
-7.0002e-07
4.29167e-06
-4.08354e-06
-2.89385e-06
-2.21317e-06
5.10724e-06
-1.07408e-05
2.34227e-06
1.1613e-05
1.77941e-06
-1.32436e-05
-1.81223e-06
7.14125e-06
-5.35308e-06
3.19633e-06
-2.76666e-06
-1.61811e-06
5.61393e-06
6.11341e-06
7.96285e-06
4.80238e-07
1.64445e-05
-7.5893e-06
7.45968e-06
5.03149e-06
-1.22112e-05
7.86319e-06
5.52019e-06
9.79983e-06
-1.03897e-05
6.00721e-07
6.76315e-06
-1.33255e-05
5.81638e-06
-1.23331e-05
5.98776e-06
2.77371e-06
-5.66731e-06
-4.42181e-06
2.00218e-06
1.60347e-05
-8.0219e-06
-7.64618e-06
-9.35102e-06
2.30699e-06
4.29896e-07
-8.12098e-06
-1.64007e-05
1.16529e-05
4.87896e-06
6.74928e-06
-1.91422e-05
1.25329e-05
5.33676e-06
-2.32235e-06
-3.01362e-06
3.59139e-06
3.11659e-06
-6.70727e-06
-1.97337e-06
-3.7786e-06
5.75255e-06
-8.775e-06
7.72781e-06
1.0518e-06
4.15796e-06
-6.02396e-05
3.161e-06
-4.12353e-06
-1.27858e-05
7.19557e-06
1.05049e-05
-9.88183e-06
-2.83799e-06
1.28348e-05
1.19477e-05
-5.93881e-06
-5.98807e-06
3.91525e-06
-1.40758e-05
-1.06399e-05
1.84568e-06
3.61325e-06
-6.39471e-06
2.78177e-06
8.12088e-07
-9.42584e-06
1.47711e-05
-7.73549e-06
-6.94586e-06
-5.20162e-06
4.50218e-06
-1.52305e-06
-8.11021e-06
1.00533e-05
-1.19916e-06
4.70229e-06
-6.97034e-06
-3.26296e-07
-1.82433e-05
2.44659e-06
-2.24502e-06
6.27392e-06
-2.01076e-06
5.60276e-06
-5.86253e-06
6.67536e-06
-8.09461e-07
-9.17845e-06
8.05525e-06
-7.83517e-06
-6.51106e-06
9.20211e-08
2.72028e-06
1.22605e-05
-4.55389e-06
1.96765e-07
-4.19466e-06
-5.00941e-06
-4.90757e-06
1.26419e-05
-5.10578e-06
-4.89396e-06
5.897e-06
2.3147e-07
2.31577e-07
-3.53437e-06
5.00594e-06
5.73681e-06
-9.91965e-06
-5.98979e-06
-2.65324e-06
8.64638e-06
-7.83981e-06
3.25416e-06
5.10648e-06
6.70296e-06
-7.81578e-06
1.11974e-06
1.01768e-05
-3.20093e-07
-4.18791e-06
1.0517e-05
-8.29919e-06
-7.06171e-07
-9.23371e-06
7.94925e-07
1.09474e-05
-3.25342e-05
8.43797e-07
2.92879e-05
-2.91432e-05
3.87874e-05
-7.90139e-06
4.19389e-06
-7.63249e-07
9.45161e-06
-8.48985e-06
-9.54833e-07
-2.59154e-06
-1.31298e-05
-8.84665e-06
1.91741e-06
6.93285e-06
2.94008e-06
-4.0928e-06
4.98436e-06
-1.09087e-05
3.79869e-05
-3.32126e-05
-9.79592e-06
3.42715e-06
6.37569e-06
-6.49736e-07
-5.20834e-06
-2.46503e-06
-4.36941e-06
6.83623e-06
1.09147e-05
-2.27787e-06
-9.85172e-06
-4.49208e-06
1.43762e-05
-2.65766e-05
1.77719e-05
-1.37322e-05
1.28784e-05
1.01876e-06
1.30973e-05
1.04807e-07
5.06262e-06
-2.27205e-06
-5.84298e-06
8.79719e-08
4.57353e-06
9.60702e-06
-1.43674e-05
4.93971e-06
-7.70812e-06
7.36509e-06
1.76842e-06
-9.45763e-06
7.70651e-06
3.51611e-06
-5.01243e-06
1.49635e-06
-8.79662e-06
8.87189e-06
-6.29971e-08
-1.24056e-05
4.05158e-06
3.17659e-06
1.65247e-06
-4.82905e-06
2.19258e-06
-4.95947e-06
-1.95308e-06
-5.55117e-06
8.26258e-06
4.36121e-06
-1.31304e-05
4.05587e-06
3.49123e-06
-7.54508e-06
-6.50869e-06
-2.26055e-06
2.09447e-06
-9.40761e-06
-9.23905e-06
8.62366e-06
-4.56715e-07
6.77262e-06
-4.83087e-06
-1.45594e-06
-6.68923e-06
1.76688e-06
1.21466e-05
9.92307e-06
-1.15833e-05
-5.82045e-06
-6.65263e-06
2.6534e-06
-3.0218e-05
9.2476e-06
3.64396e-06
-1.28488e-05
3.83432e-06
-1.81744e-08
-7.67416e-06
8.95713e-06
-7.54423e-06
1.07162e-05
-2.24893e-06
-7.4509e-06
-1.99531e-05
2.58569e-05
-3.43832e-06
4.69824e-06
-3.9333e-06
3.07943e-07
8.16847e-06
-1.56083e-05
-4.27816e-06
3.22185e-06
-1.49537e-05
7.42628e-06
7.81981e-06
4.65455e-06
-6.66459e-06
1.60021e-05
-7.0964e-06
7.874e-06
-9.85875e-06
-2.50011e-05
6.52846e-06
-1.19309e-05
5.43412e-06
-1.68882e-05
1.14424e-05
7.69284e-06
-1.28816e-05
5.22146e-06
-2.75961e-05
2.47928e-06
2.15055e-05
4.43078e-06
5.543e-06
-9.96027e-06
4.5212e-06
-5.74166e-06
-7.71938e-07
-4.4592e-06
-4.79509e-06
2.357e-06
2.43755e-06
4.20032e-06
-3.76981e-06
4.20904e-06
-2.06291e-05
-9.04542e-06
-6.26244e-06
-5.09186e-06
-7.82192e-06
-3.3205e-06
1.11895e-05
4.75114e-06
-1.89511e-06
-2.85609e-06
-2.49594e-06
-2.28715e-06
4.78334e-06
-9.79781e-06
1.03468e-05
3.02359e-06
-3.30974e-06
7.64438e-07
1.93699e-06
-7.75337e-06
5.77919e-06
9.01583e-07
7.62751e-07
-6.74984e-06
-6.93077e-06
-1.91101e-06
-6.19522e-06
1.19307e-05
-5.69562e-06
4.35385e-06
-6.1659e-06
1.81241e-06
-2.03518e-06
-8.81364e-06
1.0909e-05
-8.41511e-06
-4.75794e-06
-8.81996e-06
4.17675e-06
4.64969e-06
6.13523e-06
-7.03386e-06
2.48806e-06
-1.22437e-05
-4.38893e-06
-1.65605e-06
6.05094e-06
9.11139e-06
3.97153e-06
-1.30368e-05
4.95213e-06
-1.10239e-05
6.66276e-06
7.70526e-06
4.26141e-06
-1.36834e-05
9.50426e-06
-6.74546e-06
-1.54349e-05
2.34852e-05
1.81922e-06
-1.53579e-05
-1.19349e-05
5.5395e-06
8.62059e-06
-1.4133e-05
1.21182e-05
-1.70588e-05
5.53896e-06
8.13159e-06
5.87574e-06
-1.20772e-05
6.23318e-06
1.05514e-05
-2.54204e-06
-7.50848e-06
6.05756e-07
9.33564e-06
4.40042e-06
-1.01755e-06
1.05837e-05
-1.1907e-06
-8.98766e-06
-3.88641e-06
-1.70495e-08
-3.3168e-07
-1.29987e-05
1.36437e-05
6.00627e-05
-5.11319e-05
-9.1067e-06
1.46984e-05
-9.08603e-06
-5.38383e-06
-4.49674e-06
2.57207e-05
-2.24743e-05
-2.92666e-06
3.76338e-06
8.45032e-06
3.92984e-06
-1.23476e-05
4.475e-07
-6.20314e-06
-6.23077e-05
9.04265e-06
5.31768e-05
6.60782e-06
-6.54943e-06
1.42315e-07
-1.14414e-05
1.39339e-06
1.00589e-05
5.8748e-08
1.01218e-05
-5.1384e-06
-1.09456e-05
1.60322e-05
-6.01955e-06
6.19303e-06
-1.72675e-07
3.02553e-06
-9.88397e-06
6.87688e-06
-1.39856e-06
-5.27891e-06
1.15708e-05
-6.58394e-06
-1.80944e-06
8.40218e-06
5.82647e-06
-1.1974e-06
-3.80274e-06
3.39715e-06
-5.72781e-06
2.26296e-06
-1.19581e-05
2.54946e-05
-1.63203e-06
1.10344e-05
-2.60088e-06
-1.70522e-06
4.30666e-06
1.2963e-07
6.30904e-06
-2.13121e-06
6.46129e-06
-4.32856e-06
1.24079e-05
2.44387e-06
-4.32008e-06
1.99753e-06
-9.66542e-06
9.89934e-08
9.59166e-06
-5.39238e-06
8.43365e-06
-8.88935e-06
1.18773e-06
-2.07782e-05
5.43982e-05
-3.19368e-05
-1.64799e-06
1.64799e-06
1.07951e-05
7.62998e-08
4.84092e-06
-4.51567e-06
-7.95499e-06
1.69763e-05
-8.59212e-06
5.81431e-06
-6.60613e-06
7.92854e-07
-4.34336e-06
1.34162e-05
1.21232e-05
-1.06093e-05
-9.97173e-07
1.38138e-05
-7.10019e-06
-6.5399e-06
-3.79446e-05
2.73853e-05
1.0493e-05
-4.18678e-05
-4.0632e-07
3.58565e-05
-8.54174e-06
-1.31935e-05
2.87613e-06
1.87486e-06
8.03548e-06
5.35461e-06
-1.32996e-05
7.27933e-06
-6.24279e-06
1.06679e-05
-2.54796e-05
-3.23852e-06
-2.11448e-06
6.9259e-06
-4.56282e-06
1.31244e-05
-8.00772e-06
-8.39635e-06
-1.87935e-06
2.70938e-07
-6.28956e-06
2.54175e-06
4.86279e-06
-7.40252e-06
-4.02836e-06
4.80493e-06
-7.76561e-07
-8.27799e-06
-6.80335e-06
1.10824e-05
-5.54612e-06
-5.12194e-05
2.93446e-05
-7.14498e-06
-4.02601e-05
1.18189e-05
-5.34792e-06
1.26936e-05
7.76821e-06
-3.38122e-06
-4.3838e-06
1.52398e-05
-6.24868e-06
-3.93694e-07
4.50895e-06
3.46155e-06
-8.99532e-06
5.96984e-06
1.75007e-05
-7.82115e-06
-9.49342e-06
-3.46554e-06
-1.23608e-07
3.58915e-06
-9.93654e-06
3.94758e-07
1.31203e-05
-2.60919e-06
4.32053e-06
1.17533e-06
-4.60089e-06
2.26046e-05
-2.21008e-05
-3.12139e-06
-1.19362e-05
6.93396e-06
4.18621e-06
-1.06891e-05
6.05218e-06
1.76863e-06
-7.27844e-06
-7.65046e-07
5.42024e-06
4.7984e-06
-2.24328e-06
-2.55511e-06
1.04927e-05
-4.42244e-06
3.77743e-05
-4.57427e-05
8.69542e-06
7.7773e-06
-1.05129e-05
2.74573e-06
4.44579e-06
-7.80146e-06
-3.87415e-07
4.15163e-06
2.06619e-06
-6.21598e-06
-1.02328e-05
4.87224e-05
-5.56083e-06
1.50008e-05
2.32022e-06
-1.60013e-05
6.43687e-06
-1.83961e-05
1.33654e-05
6.12147e-07
3.35101e-06
-1.99765e-06
-3.63659e-07
6.24369e-06
-1.28079e-06
-9.74935e-06
1.05729e-05
-7.66249e-07
4.39492e-06
-4.47605e-08
-4.62432e-06
-4.25069e-05
-1.52798e-05
5.77192e-05
1.20328e-05
-7.92096e-06
-3.90404e-06
1.09568e-05
-4.02113e-06
-6.1148e-06
1.6132e-06
-8.13555e-06
2.40999e-06
-5.37715e-06
2.96707e-06
-8.82343e-06
1.41541e-05
-4.03286e-06
-2.03738e-05
7.54484e-06
1.44105e-05
2.27834e-06
-5.41913e-06
3.14104e-06
3.37425e-06
3.48974e-06
6.69803e-06
8.14127e-06
6.09379e-06
1.0635e-05
-4.37404e-06
-6.24016e-06
1.41131e-05
-8.85132e-06
-4.96763e-06
5.29003e-06
-1.79462e-05
1.37812e-05
3.87158e-06
1.09613e-05
-3.50126e-06
-3.19834e-06
7.64013e-06
1.5138e-05
3.37691e-07
-1.55664e-05
1.7136e-06
-7.78149e-06
-4.9754e-06
2.47976e-06
-1.51281e-05
9.51761e-06
5.69497e-06
5.24486e-06
-1.58337e-06
-3.66141e-06
8.85921e-08
1.11719e-05
4.82644e-06
-1.63774e-06
-9.55548e-06
-4.22194e-06
1.3884e-05
2.11833e-06
-8.32446e-06
-2.38297e-06
-1.96989e-06
4.35288e-06
4.55003e-06
4.92281e-07
-5.02393e-06
4.52706e-06
7.55628e-06
-5.001e-06
-3.81094e-06
9.61736e-06
-2.35534e-05
-7.57645e-10
4.42882e-06
-1.61e-05
-4.5982e-05
-5.22515e-06
1.61022e-06
1.81048e-05
4.17189e-05
-2.30239e-06
-1.40767e-05
3.70582e-06
-2.69618e-06
1.05183e-05
-7.48681e-06
7.56966e-06
-6.24115e-06
-2.89337e-06
-6.41914e-06
-1.20642e-05
2.0267e-05
-6.88071e-06
8.34032e-06
4.77486e-06
-1.31011e-05
-1.81133e-05
1.73859e-05
4.24129e-07
3.4823e-06
1.00144e-05
1.1645e-05
-2.08602e-05
3.45377e-06
-1.23592e-05
1.21427e-05
8.71113e-07
7.43813e-06
2.97705e-07
7.52138e-06
4.01019e-06
4.70953e-07
-4.48134e-06
6.96327e-06
-2.65182e-06
-4.31066e-06
-1.49302e-05
5.12229e-06
-5.91941e-06
4.54908e-06
-3.10354e-06
-1.49915e-06
4.6027e-06
-4.19682e-06
-1.91348e-06
4.57917e-06
-1.41817e-06
1.78685e-06
3.96099e-06
1.1521e-06
-4.25562e-06
-5.85392e-06
3.59569e-06
2.25829e-06
5.15643e-06
-2.87785e-06
1.98948e-06
-5.22864e-06
-4.65511e-06
-5.13417e-06
9.55407e-06
-1.21143e-05
5.27321e-06
5.1251e-06
-1.45672e-05
5.67507e-06
-1.64052e-06
-2.23192e-05
3.67696e-05
5.04193e-06
-2.47786e-06
7.99258e-06
-1.20047e-05
-8.11495e-07
1.12661e-05
-1.09414e-07
-1.09267e-05
9.71637e-06
4.26862e-06
-1.39412e-05
-4.30466e-06
4.07324e-07
3.89719e-06
1.93151e-06
4.22965e-06
4.66201e-08
-4.86595e-06
5.63751e-06
-4.73569e-06
2.46e-06
2.27536e-06
6.92978e-06
-6.58398e-07
-6.2682e-06
5.20772e-06
6.92226e-06
-1.21348e-05
-1.49132e-05
6.93464e-06
8.1248e-06
5.26611e-06
-2.95159e-06
-1.34293e-06
-4.28489e-07
-4.36794e-06
-4.8313e-06
-7.30754e-06
1.14701e-05
5.57677e-06
-1.69392e-05
7.89614e-06
-1.02669e-05
2.65353e-06
2.14488e-06
8.85874e-07
-4.35141e-06
4.93051e-06
-2.92153e-07
-3.87724e-06
2.02738e-05
5.79862e-06
-7.9836e-06
-8.60257e-06
1.38592e-06
-4.0005e-06
4.73909e-06
-7.38512e-07
-1.52435e-06
6.84884e-06
3.75751e-06
-1.05901e-05
-7.6418e-07
4.98204e-06
1.57009e-06
8.81612e-06
-4.96256e-06
2.66109e-05
-4.20693e-05
1.24849e-05
2.49988e-05
3.24797e-05
2.7768e-06
-1.412e-05
-7.06043e-06
5.06045e-06
2.6069e-06
2.86508e-06
-5.47185e-06
-3.25444e-06
9.15962e-06
-5.89498e-06
-5.87287e-06
4.73027e-06
2.43358e-06
3.14297e-06
2.28695e-06
-5.42985e-06
-6.88975e-06
-3.00138e-06
-1.28457e-05
1.61161e-05
3.53766e-06
-5.22895e-06
1.69129e-06
-1.34036e-06
6.79725e-06
6.51134e-06
-1.40195e-05
9.09957e-06
3.0878e-06
-1.21783e-05
-4.28189e-06
-1.17443e-06
-3.26285e-07
-4.36083e-06
-2.8887e-06
3.16706e-06
2.6654e-06
-5.83215e-06
3.07889e-07
-6.22457e-06
-7.2187e-06
1.50475e-06
5.71619e-06
-1.97822e-06
7.79244e-06
-5.80479e-06
-5.1919e-06
3.39994e-06
2.15283e-06
-6.69224e-06
5.03763e-06
-6.39703e-06
-8.86534e-07
7.28765e-06
1.32272e-05
-1.59707e-05
2.63246e-05
-1.2541e-05
-1.32262e-05
1.85193e-05
-1.16455e-05
-2.37094e-06
6.73416e-06
-4.16299e-06
1.34638e-07
-7.46717e-06
2.22713e-05
-1.3495e-05
1.37184e-05
-5.65578e-05
6.73009e-06
-1.57467e-06
6.59944e-06
-1.20752e-05
1.10628e-05
-1.50704e-05
4.17513e-06
3.70319e-06
-3.20079e-06
2.46582e-06
-1.35793e-05
-8.71223e-06
5.63489e-06
-1.64172e-05
1.02568e-05
7.69808e-06
-7.70558e-06
1.11495e-08
4.22559e-06
-5.50464e-06
1.27912e-06
4.20931e-07
-1.18091e-06
1.82387e-06
-8.7256e-06
6.91401e-06
5.16081e-06
1.11545e-05
9.75295e-07
-5.08509e-06
-8.47681e-07
3.9907e-06
1.0839e-06
3.83215e-06
6.29688e-06
4.3566e-06
5.12879e-06
-5.7244e-07
2.00886e-06
5.06236e-06
-1.67308e-06