/*--------------------------------*- C++ -*----------------------------------*\
| =========                 |                                                 |
| \\      /  F ield         | OpenFOAM: The Open Source CFD Toolbox           |
|  \\    /   O peration     | Version:  v2012                                 |
|   \\  /    A nd           | Website:  www.openfoam.com                      |
|    \\/     M anipulation  |                                                 |
\*---------------------------------------------------------------------------*/
FoamFile
{
    version     2.0;
    format      ascii;
    class       surfaceVectorField;
    location    "300";
    object      Uf;
}
// * * * * * * * * * * * * * * * * * * * * * * * * * * * * * * * * * * * * * //

dimensions      [0 1 -1 0 0 0 0];


internalField   nonuniform List<vector> 
20673
(
(1.10411 0.134018 -2.92265e-22)
(1.10912 0.131449 1.10957e-20)
(1.1039 0.128118 0)
(1.02286 0.0434313 -2.49576e-21)
(1.02162 0.0428574 2.93033e-21)
(1.02188 0.0448198 -2.24764e-21)
(0.896235 -0.132771 6.18404e-21)
(0.909198 -0.140486 -1.83984e-21)
(0.920539 -0.132264 -3.20777e-21)
(1.05281 -0.0090744 2.32182e-21)
(1.053 -0.00848289 0)
(1.05219 -0.00856648 0)
(0.996329 0.00250804 0)
(0.996198 0.00210537 0)
(0.995865 0.00279633 -4.72282e-21)
(0.371163 0.0387011 1.3045e-19)
(0.359769 0.0116469 1.45433e-19)
(0.342455 0.0388934 2.06738e-19)
(0.874952 -0.0797665 -1.99278e-21)
(0.870696 -0.0857628 1.20492e-20)
(0.901672 -0.0845954 1.17022e-20)
(0.913505 -0.178899 -2.87359e-22)
(0.890881 -0.175868 -8.06458e-21)
(0.899141 -0.184786 8.15637e-21)
(0.487098 -0.201039 2.11424e-20)
(0.439222 -0.187351 -5.15902e-20)
(0.405778 -0.183077 -9.35203e-22)
(1.14823 0.16905 -4.79655e-21)
(1.1554 0.170091 -1.18987e-20)
(1.15151 0.17661 1.75703e-20)
(1.0242 -0.107485 7.07061e-24)
(1.02184 -0.104126 3.00998e-23)
(1.01982 -0.109575 -1.87216e-23)
(1.0463 -0.0422974 -2.19048e-21)
(1.04453 -0.0434492 -3.06661e-21)
(1.0473 -0.04426 -3.50199e-21)
(1.05338 -0.00935951 4.43854e-21)
(0.0547367 -0.014144 9.4949e-21)
(0.0853362 -0.0244241 -7.2196e-21)
(0.0386446 -0.0127403 1.04575e-21)
(0.972442 0.0991491 -2.2787e-21)
(0.968144 0.0984892 -2.29914e-20)
(0.97142 0.0948121 8.78988e-21)
(0.995479 0.0947112 4.7248e-21)
(0.993163 0.0921178 8.39843e-22)
(0.997077 0.0908871 4.17138e-21)
(1.01591 0.0498829 -6.30237e-21)
(1.01741 0.0494298 7.9449e-22)
(1.01619 0.0482707 1.0606e-22)
(1.16072 -0.00883488 -3.93447e-21)
(1.16313 -0.00526621 0)
(1.16549 -0.010931 -2.67893e-22)
(1.04533 -0.0404001 4.40401e-21)
(1.04767 -0.0411212 3.77367e-21)
(1.00124 0.00453506 5.52728e-22)
(1.00125 0.00432671 -9.81629e-22)
(1.00107 0.00410497 6.20468e-21)
(0.999961 0.000425707 4.52129e-24)
(0.999939 0.000612324 -4.95716e-21)
(0.999964 0.000450137 -6.32056e-23)
(0.874368 -0.0759739 8.79083e-21)
(0.841622 -0.0789426 -1.32577e-20)
(1.00054 0.0071383 4.78889e-21)
(1.0006 0.00767134 1.14243e-21)
(1.00072 0.00753831 -1.08711e-21)
(0.927877 -0.177381 5.40653e-21)
(0.930658 -0.185484 8.61794e-21)
(0.995147 0.0166232 -1.70822e-21)
(0.994677 0.0164169 -9.78501e-21)
(0.994915 0.0173645 6.26112e-21)
(0.900154 -0.0444616 5.0039e-21)
(0.870606 -0.0424849 5.71722e-22)
(0.870076 -0.0463267 -2.53075e-24)
(0.787103 0.0304826 -5.19367e-21)
(0.777908 0.0356748 1.48472e-20)
(0.779611 0.0238746 -1.9064e-20)
(0.756318 0.113517 4.28666e-20)
(0.754353 0.125883 3.8855e-20)
(0.745822 0.11619 -1.23307e-20)
(0.691581 0.540104 -6.84033e-21)
(0.721288 0.551746 -2.47196e-20)
(0.698498 0.582937 -1.79882e-20)
(1.2357 0.114152 0)
(1.23689 0.107113 0)
(1.24356 0.110826 3.31873e-20)
(1.12686 0.119976 -1.19522e-20)
(1.12275 0.123323 9.32869e-22)
(1.12192 0.117649 1.28211e-21)
(1.06769 0.0935167 3.706e-21)
(1.06442 0.0943393 -5.15831e-21)
(1.06547 0.0905225 7.23047e-21)
(0.839531 0.0676883 0)
(0.831593 0.0701342 0)
(0.833253 0.060669 0)
(0.908012 0.00249258 -2.61165e-20)
(0.910828 -0.000376464 1.0805e-20)
(0.912018 0.00356978 -5.16714e-21)
(0.991447 0.0133613 0)
(0.990903 0.014179 0)
(0.991617 0.0143588 0)
(0.973493 -0.0971742 -4.48249e-22)
(0.972086 -0.101785 -1.4629e-20)
(0.965051 -0.0982224 -9.82644e-21)
(1.00043 0.00671109 2.06011e-21)
(1.00056 0.00664596 -3.04488e-21)
(0.266183 -0.10803 -1.94901e-21)
(0.218828 -0.0951943 -1.38038e-20)
(0.249096 -0.0979378 -5.74348e-21)
(1.05665 -0.0125188 0)
(1.05701 -0.01307 2.15508e-21)
(0.573756 -0.00345633 1.23261e-21)
(0.545434 -0.00180147 5.18246e-21)
(0.57646 -0.00318501 0)
(1.00847 0.0010054 -2.27327e-21)
(1.00889 0.000988759 0)
(1.00792 0.000569332 0)
(0.999988 0.000345123 3.29765e-23)
(0.999996 0.000152556 -2.45155e-21)
(0.999996 0.000175953 4.36421e-21)
(1.021 0.00209123 1.74935e-22)
(1.02072 0.00226515 -5.20638e-22)
(1.02059 0.00197378 1.37472e-22)
(0.68913 0.185992 0)
(0.704962 0.19417 -1.10349e-20)
(0.687841 0.207311 -5.82774e-20)
(1.03953 0.0230214 0)
(1.04051 0.0236845 -9.73179e-22)
(1.04071 0.0227006 -1.18088e-21)
(0.890477 0.0176714 1.4219e-20)
(0.889251 0.0130562 -1.44058e-21)
(0.894552 0.0144352 -2.38927e-21)
(1.15838 -0.0138734 2.70407e-20)
(1.15566 -0.0080632 -4.281e-21)
(1.14853 -0.069297 1.52133e-20)
(1.14788 -0.0640668 -5.2505e-21)
(1.14323 -0.0675039 -4.65253e-21)
(0.0898819 0.1001 -1.00987e-19)
(0.089202 0.135426 2.9426e-20)
(0.118729 0.114675 -1.29125e-19)
(1.00291 0.000743214 -1.72852e-21)
(1.0032 0.000680389 0)
(1.00315 0.00104457 7.3549e-22)
(1.08533 0.00519428 -5.21894e-21)
(1.08681 0.00596977 -4.87346e-21)
(1.08675 0.00419769 2.20474e-21)
(0.966224 0.0129359 -5.6063e-21)
(0.965031 0.0115399 -1.30349e-20)
(0.964563 0.0136626 -1.17923e-21)
(0.0844064 0.0707034 4.1004e-20)
(0.0514143 0.0992003 7.56334e-20)
(0.904869 0.00546157 -5.96206e-20)
(0.903828 0.000960511 -2.28327e-20)
(1.01564 0.051467 1.51369e-21)
(1.01427 0.0500665 -2.77961e-21)
(1.09097 0.03055 -3.97904e-21)
(1.09045 0.0330706 1.55779e-21)
(1.09329 0.0322591 -3.59212e-21)
(1.02764 -0.111784 -3.3693e-21)
(1.02924 -0.105792 0)
(0.995504 0.0332806 4.11863e-21)
(0.995498 0.0318261 -6.50504e-21)
(0.996588 0.0327941 -1.86421e-22)
(1.07555 0.0400946 -3.85784e-21)
(1.07796 0.0410195 3.41512e-21)
(1.07586 0.0428291 0)
(1.03839 0.0232938 -7.78962e-22)
(1.03851 0.0223254 0)
(0.37729 0.0714677 6.90154e-21)
(0.268786 0.0562663 4.62046e-20)
(0.308233 0.0615257 -1.41814e-21)
(1.02419 0.0425997 1.45219e-21)
(1.02426 0.0445619 1.25051e-21)
(0.068195 -0.011707 1.17238e-20)
(1.00123 0.00473093 -1.41926e-21)
(1.00141 0.00496184 -1.72314e-21)
(0.377652 0.0726553 -2.21875e-19)
(0.401367 0.043739 -9.0614e-20)
(0.964527 0.3613 1.19802e-19)
(0.916429 0.333001 -9.43362e-21)
(0.668444 0.239329 6.10121e-20)
(0.995772 -0.00125338 7.58976e-23)
(0.995318 -0.000917445 -3.13588e-21)
(0.98776 0.000535889 2.35569e-21)
(0.988542 0.000273552 -6.29875e-21)
(1.13491 -0.167484 3.60658e-21)
(1.12755 -0.168081 8.13975e-21)
(1.13255 -0.175706 -2.10299e-20)
(1.06439 0.143813 -2.26216e-21)
(1.07007 0.14426 2.93732e-21)
(1.06576 0.150299 -1.8249e-21)
(0.996755 0.00224191 6.94466e-21)
(0.996473 0.00292296 -2.21034e-21)
(0.5645 -0.218961 -3.86523e-20)
(0.532968 -0.215732 1.82413e-20)
(-0.397109 -0.0311793 1.52457e-20)
(-0.356071 -0.038239 3.93724e-21)
(-0.369554 -0.033935 3.41953e-20)
(0.995758 0.0167398 0)
(0.995476 0.0156758 0)
(0.0900891 0.169735 1.48865e-19)
(0.124371 0.188268 1.35816e-19)
(0.092012 0.207866 5.95665e-20)
(1.03539 -0.0291265 -5.97265e-22)
(1.03709 -0.0283587 -5.963e-22)
(1.03722 -0.0303447 -1.4155e-21)
(-0.351733 -0.0309512 -8.80074e-21)
(-0.313811 -0.0444462 1.76404e-20)
(-0.331363 -0.0334196 2.35664e-20)
(1.05523 0.0234272 2.26174e-21)
(1.05665 0.0238448 -1.01239e-21)
(1.0556 0.0250626 -5.98163e-21)
(0.844483 -0.0229809 -1.11961e-21)
(0.845857 -0.0265226 7.11361e-21)
(0.87942 -0.0237888 8.30651e-21)
(0.999879 0.00103276 2.98112e-22)
(0.999814 0.0012363 -4.02841e-21)
(0.999834 0.00129901 -3.59567e-21)
(0.99994 0.00212222 4.07199e-21)
(0.999933 0.00240735 1.24593e-20)
(0.999967 0.00208152 -8.53575e-22)
(0.996167 -0.00110683 -2.39299e-21)
(0.387505 0.0995078 -1.33314e-19)
(0.396645 0.129265 1.59363e-19)
(0.418345 0.106409 1.30131e-21)
(0.320973 -0.122841 7.09529e-21)
(0.291882 -0.121079 1.05686e-20)
(-0.0754445 0.0294113 8.09174e-21)
(-0.112682 0.0263143 4.60326e-20)
(-0.102856 0.0276149 -1.30389e-20)
(1.05372 0.0231472 2.11819e-21)
(1.05479 0.0220469 1.29147e-21)
(1.00017 0.00337172 -1.10377e-21)
(1.00021 0.0033257 6.63493e-21)
(1.00013 0.00298413 4.1607e-21)
(0.993375 0.390764 2.20123e-20)
(1.11431 0.44477 6.80826e-20)
(1.08323 0.00458227 0)
(1.08366 0.00659116 0)
(1.02125 0.0019822 3.05082e-22)
(1.02138 0.00226488 4.08579e-22)
(-0.188598 -0.0802387 0)
(-0.236524 -0.0707901 1.56655e-20)
(-0.209934 -0.0753048 0)
(1.20501 0.153772 2.79236e-20)
(1.19728 0.154476 -7.00337e-21)
(1.19991 0.160784 -8.55145e-21)
(1.02443 0.0246754 -2.90375e-22)
(1.02477 0.0237948 1.2259e-21)
(1.02376 0.0238853 -4.6305e-22)
(0.974204 0.0553426 0)
(0.9721 0.0565473 0)
(0.974593 0.0578765 0)
(1.08699 0.432974 -7.99533e-21)
(0.911437 0.374569 -6.45199e-20)
(0.374323 -0.0156664 -2.39629e-20)
(0.402707 -0.0223018 -4.9467e-20)
(0.380423 -0.0496081 0)
(1.07882 -0.119748 -6.09052e-21)
(1.08261 -0.123281 -1.8579e-20)
(1.077 -0.124635 -2.02425e-20)
(1.15107 -0.050427 -4.79978e-21)
(1.15601 -0.0517905 1.80774e-20)
(1.15487 -0.0468788 2.03854e-20)
(1.01486 -0.0379246 2.30747e-22)
(1.01242 -0.0377464 -1.02251e-21)
(1.01424 -0.0353831 2.30548e-22)
(0.590402 0.117742 2.31017e-20)
(0.610585 0.104131 0)
(0.611523 0.130143 0)
(1.01131 0.00621585 9.57995e-23)
(1.01179 0.0063102 -6.81607e-23)
(1.01159 0.00673849 -2.70242e-22)
(0.840934 -0.0040142 0)
(0.844173 0.00364991 -1.4412e-20)
(0.848619 -0.00305052 1.91455e-20)
(0.673383 0.178511 0)
(0.69162 0.171018 0)
(1.06192 0.0165317 -7.21823e-23)
(1.06306 0.0160646 -2.38859e-21)
(1.06187 0.0150144 -2.70926e-21)
(1.0169 0.0130681 0)
(1.01693 0.0124604 -1.23569e-21)
(1.0175 0.0129527 -9.29124e-22)
(0.465904 -0.168235 -2.41371e-20)
(0.446577 -0.160414 6.78403e-21)
(0.535777 -0.173628 3.9264e-20)
(0.794453 0.485227 -1.17554e-20)
(0.766503 0.500617 2.47064e-20)
(0.802711 0.510516 -1.00744e-20)
(1.14924 -0.0734183 1.68255e-20)
(1.15355 -0.0700511 2.25268e-21)
(1.01904 0.048909 1.21524e-21)
(1.01897 0.0507011 1.0369e-21)
(1.12378 0.135349 -1.36829e-20)
(1.11916 0.138186 -2.50361e-20)
(1.1245 0.141387 -2.8792e-20)
(-0.302714 0.028535 9.85175e-20)
(-0.3471 0.0237992 -8.44829e-20)
(-0.334137 0.0257924 1.28797e-22)
(0.590828 -0.00474671 -4.28118e-22)
(0.569367 -0.00369235 -8.12569e-21)
(1.03538 -0.0466736 4.02505e-22)
(1.03456 -0.0449517 -3.70075e-22)
(1.03311 -0.0471881 -9.517e-22)
(0.471353 -0.175316 6.23077e-21)
(0.393295 -0.163055 -7.29558e-23)
(0.94915 0.0106759 -1.27905e-20)
(0.947715 0.0126574 -1.90404e-21)
(0.947042 0.00986879 -5.63179e-21)
(0.0889484 -0.156026 -2.67534e-20)
(0.100632 -0.126063 1.23104e-19)
(0.0619153 -0.130262 2.52303e-20)
(1.0007 0.0146323 -1.71382e-21)
(1.00081 0.0154472 3.37385e-21)
(1.00042 0.015017 2.07327e-21)
(0.179974 0.0741706 6.76066e-20)
(0.210067 0.0560153 -7.33125e-21)
(0.2108 0.0909875 0)
(0.450394 -0.0141385 2.11945e-21)
(0.462195 -0.0177525 3.26102e-21)
(0.473521 -0.023519 1.04437e-20)
(0.907184 0.0135103 2.69996e-20)
(0.904268 0.016583 -1.06115e-20)
(0.908857 0.0173112 1.4212e-21)
(0.999981 0.000541566 6.62571e-22)
(0.999969 0.000514524 1.37946e-22)
(1.14194 -0.167991 -1.72156e-20)
(1.13662 -0.161464 -1.82331e-20)
(0.379203 -0.024185 7.0808e-21)
(0.403003 -0.0325102 3.31092e-21)
(0.38974 -0.032543 4.08995e-21)
(0.758739 0.101767 -2.02739e-20)
(0.769957 0.110902 1.82029e-20)
(1.00463 0.000679479 1.5203e-21)
(1.00489 0.000999535 8.82983e-23)
(1.00498 0.00059273 4.82709e-21)
(0.974204 0.052685 0)
(0.976524 0.0540449 6.28439e-21)
(1.03574 0.0268791 0)
(1.03656 0.0277374 3.15969e-22)
(1.03546 0.0279437 1.10799e-22)
(1.00431 0.000688495 -3.53156e-21)
(1.00413 0.000332831 1.16876e-21)
(1.01811 0.00170917 2.03971e-22)
(1.01833 0.00153514 -7.22095e-22)
(1.01801 0.00145712 2.16445e-22)
(0.345728 -0.0155601 7.02989e-20)
(0.545292 -0.0559219 4.51791e-21)
(0.528512 -0.052947 0)
(0.513976 -0.046203 0)
(0.950703 0.00834486 -2.21326e-20)
(0.951689 0.0111026 7.0787e-21)
(1.04144 0.0243523 1.06141e-21)
(1.04024 0.0247477 -1.07642e-21)
(0.999952 0.000392729 -5.13908e-22)
(0.999985 0.000268165 4.62258e-21)
(1.12627 -0.00522629 -1.54377e-19)
(1.17977 -0.0117274 -5.5182e-20)
(1.07769 -0.00821361 1.64267e-20)
(0.937764 -0.173373 1.36276e-20)
(0.925368 -0.168059 1.67741e-21)
(1.10397 0.139623 -1.24899e-23)
(1.09908 0.135859 -7.90458e-21)
(0.573422 0.128174 -2.83936e-20)
(0.574839 0.100388 4.37047e-20)
(0.995241 -0.000441818 -4.48187e-21)
(0.994802 -0.000654828 -1.69839e-21)
(0.905871 0.00948467 -7.02158e-21)
(0.910101 0.0108418 3.15473e-20)
(0.981717 -0.110594 2.07858e-21)
(0.981245 -0.10554 -9.3346e-22)
(0.987546 -0.108137 1.27131e-21)
(1.02569 0.0125296 1.10177e-22)
(1.02566 0.0131446 7.55008e-22)
(1.02495 0.0126763 9.26602e-23)
(0.963316 0.0248784 3.55473e-21)
(0.961049 0.0256767 -1.29821e-20)
(0.961811 0.0229212 -4.20758e-20)
(0.656413 0.181473 2.5851e-20)
(0.635907 0.186829 2.30651e-20)
(0.653732 0.204151 5.32947e-20)
(0.987518 0.00130638 1.25049e-20)
(0.986935 0.000840517 8.00162e-21)
(0.793434 -0.254558 2.88205e-20)
(0.709393 -0.237311 5.6233e-20)
(0.776236 -0.245584 5.83298e-21)
(0.777777 0.58554 -6.63943e-22)
(0.786897 0.558468 1.72412e-20)
(0.753874 0.557178 2.74438e-21)
(0.967488 0.0145314 5.02627e-21)
(0.968064 0.0124145 0)
(1.02417 0.0104803 -5.50363e-22)
(1.02425 0.0110678 -2.26152e-22)
(1.02357 0.0106221 1.40094e-22)
(1.06164 0.101737 -3.7353e-21)
(1.05764 0.102245 -4.97163e-21)
(1.06028 0.106447 -3.28339e-21)
(1.09621 -0.0580008 1.98942e-21)
(1.09676 -0.0618032 6.57925e-21)
(1.0997 -0.0580735 1.12727e-20)
(0.112869 -0.177171 -4.6257e-20)
(0.0732041 -0.18695 -1.78832e-19)
(1.05745 -0.0776374 6.13914e-21)
(1.05815 -0.0812183 -1.15052e-21)
(1.05431 -0.0788822 -2.37764e-21)
(1.01968 0.189926 1.46896e-21)
(1.02339 0.184957 6.38979e-22)
(1.02776 0.189764 -1.96402e-21)
(1.08621 0.0615291 -5.94462e-21)
(1.08393 0.0639992 6.63469e-21)
(1.08294 0.060621 -1.32721e-20)
(-0.0429728 0.0394806 -9.93802e-21)
(-0.0575689 0.0432406 5.69183e-20)
(-0.0854856 0.0377657 -1.8119e-20)
(1.05874 0.144076 0)
(1.06225 0.138808 0)
(1.01195 -0.232527 2.5529e-21)
(1.01815 -0.232218 2.06036e-22)
(1.00925 -0.221805 1.01069e-22)
(-0.401692 -0.0228042 -2.54793e-20)
(-0.368243 -0.0310102 -2.25416e-20)
(1.17304 0.00129709 -2.86487e-20)
(1.06072 0.00174718 2.99157e-20)
(0.940984 0.0461381 3.82268e-21)
(0.938089 0.0476739 -2.60973e-20)
(0.938029 0.0440241 1.41503e-21)
(0.790146 -0.0328647 6.5477e-21)
(0.784316 -0.0246989 -4.56972e-20)
(0.778803 -0.0358037 -3.82428e-20)
(0.999926 0.0014995 1.53397e-22)
(0.999948 0.00147208 0)
(0.999948 0.00120572 -3.85839e-21)
(1.07383 -0.116695 1.25722e-20)
(1.07956 -0.114933 1.48476e-20)
(1.0367 -0.0490617 3.96261e-22)
(1.03782 -0.046403 8.45195e-23)
(1.01691 -0.0380814 5.14818e-22)
(1.01538 -0.0403785 1.13044e-22)
(1.06196 0.0178624 2.65371e-21)
(1.06077 0.016876 -1.21378e-21)
(1.12271 -0.0581562 -2.84595e-21)
(1.119 -0.0597857 1.22654e-20)
(1.12259 -0.0629052 1.29793e-20)
(1.03312 0.019805 1.08031e-21)
(1.03396 0.0203833 -3.07486e-22)
(1.03295 0.0207726 4.36602e-22)
(0.838056 -0.01041 2.26962e-20)
(0.833196 -0.00349232 -3.2576e-20)
(1.04687 0.185703 1.9482e-21)
(1.03934 0.184516 1.82752e-22)
(1.0453 0.178552 -1.54186e-21)
(-0.428138 0.0172337 7.83192e-20)
(-0.45381 0.0147285 2.81223e-20)
(-0.415684 0.0186938 7.10365e-20)
(1.03072 -0.0402391 -1.90059e-22)
(1.0288 -0.0412114 -8.13065e-22)
(1.0309 -0.0426021 -3.84183e-22)
(1.01473 0.0579334 -9.7279e-22)
(1.01468 0.059763 -5.36881e-22)
(1.01283 0.0586092 -8.58155e-22)
(0.955754 -0.308803 1.80597e-20)
(0.9402 -0.304946 0)
(1.00656 -0.313758 0)
(1.00978 0.207819 1.90435e-21)
(1.00613 0.212682 1.61971e-21)
(1.01436 0.213303 4.74097e-21)
(0.562206 -0.0546735 4.84314e-21)
(0.585596 -0.0613084 9.61017e-21)
(0.149554 0.0571638 -4.39864e-20)
(0.149659 0.0942472 3.46718e-21)
(0.818744 -0.26554 -2.36841e-21)
(0.87914 -0.270337 1.21869e-20)
(1.01327 0.0284391 -1.01631e-21)
(1.01399 0.0291021 -2.91474e-21)
(1.0131 0.0293536 -4.04496e-21)
(1.21228 0.153962 1.96859e-20)
(1.20929 0.147672 -4.82714e-21)
(1.13279 0.122347 0)
(1.13164 0.116596 1.56807e-21)
(1.02636 0.012331 -1.83257e-22)
(1.02563 0.0118906 -3.25495e-22)
(1.00014 0.00345665 -7.62623e-21)
(1.00021 0.00380927 -4.29082e-21)
(0.933577 0.11886 0)
(0.929737 0.114636 6.2605e-21)
(0.936047 0.114372 0)
(0.929003 -0.0440701 5.44256e-21)
(0.927876 -0.0476042 -1.38971e-20)
(1.28887 0.194861 -4.51021e-20)
(1.29609 0.195735 1.63848e-20)
(1.29261 0.203517 -1.03654e-20)
(-0.0283058 0.0397681 -2.34515e-20)
(0.0251406 0.0505901 7.839e-20)
(1.12984 0.0287625 -7.89256e-21)
(1.12966 0.0322626 7.54418e-22)
(1.13312 0.0302096 -1.34827e-20)
(1.01929 -0.0567959 -8.47468e-23)
(1.01908 -0.0547471 -1.03318e-21)
(1.01716 -0.0570441 4.38641e-23)
(0.999626 -0.156539 0)
(0.991953 -0.155165 -1.45557e-22)
(0.994554 -0.162591 0)
(-0.0361755 0.0323122 -1.38392e-20)
(-0.0467218 0.0304057 -3.04791e-20)
(1.26307 0.237589 -2.71282e-20)
(1.2663 0.23121 1.32077e-20)
(1.27015 0.237269 0)
(0.999443 0.00745726 6.39382e-21)
(0.99953 0.00696577 3.52876e-21)
(0.999365 0.00682395 -9.06309e-21)
(0.565618 0.0387467 3.65376e-20)
(0.570126 0.0588206 2.22304e-20)
(0.545882 0.0520709 -1.7617e-20)
(0.795665 0.0275209 -5.68648e-21)
(0.794479 0.0385813 3.4702e-20)
(1.00972 0.000412497 0)
(1.00933 0.000414373 8.78192e-22)
(1.02403 0.025415 -2.34843e-22)
(1.02513 0.0253836 1.84754e-22)
(0.843152 0.456115 5.65955e-21)
(0.839515 0.429525 4.66071e-20)
(0.865234 0.439607 2.23327e-21)
(1.15672 0.501434 -7.23692e-20)
(1.15117 0.480746 7.13805e-21)
(1.01792 0.426644 -3.26294e-20)
(1.0702 -0.00810634 0)
(1.07078 -0.00909435 7.56157e-22)
(1.07159 -0.00816706 1.84595e-22)
(1.00273 0.000882263 -3.16769e-22)
(1.00271 0.000545877 -3.17038e-21)
(1.10958 -0.0560385 3.2991e-22)
(1.10956 -0.052254 -3.38491e-20)
(1.11331 -0.0547806 -1.15703e-20)
(1.09294 -0.0584794 -4.86581e-22)
(1.09477 -0.0549729 1.97815e-21)
(-0.422763 -0.0286689 8.78404e-21)
(-0.434841 -0.0258034 -1.83563e-20)
(1.28284 -0.153442 0)
(1.2995 -0.165897 3.57566e-20)
(1.33889 -0.160339 0)
(0.991928 0.0127822 -6.60807e-21)
(0.991453 0.0126532 0)
(0.994405 0.0335422 7.19058e-21)
(0.99546 0.0344907 1.42814e-20)
(1.14656 -0.0492246 -4.11366e-20)
(1.14707 -0.0540287 -1.90404e-20)
(0.916821 -0.0752329 -1.78328e-21)
(0.938858 -0.0745345 4.64936e-21)
(0.931756 -0.0796167 4.87027e-21)
(0.965152 0.0239797 1.68647e-20)
(0.964821 0.0262588 2.0242e-20)
(0.863766 -0.0905757 -1.57187e-21)
(0.855712 -0.0956489 4.74343e-21)
(0.891591 -0.096093 8.78701e-22)
(-0.511496 -0.0154915 -3.08486e-20)
(-0.471416 -0.0193897 -1.90041e-20)
(-0.500701 -0.01648 6.81573e-21)
(1.02193 -0.0574687 -9.7282e-23)
(1.01985 -0.0599646 -8.18351e-24)
(1.01638 0.01307 0)
(1.01687 0.0135821 0)
(0.4817 0.366431 -1.10932e-20)
(0.499926 0.401405 -3.41604e-20)
(0.447995 0.400686 -1.00829e-19)
(1.13364 -0.0442792 -1.52112e-20)
(1.13786 -0.0460832 -1.45586e-20)
(1.13709 -0.0414129 1.81633e-21)
(-0.529225 0.0063606 5.33011e-20)
(-0.481225 0.00881049 -9.46492e-20)
(-0.515206 0.010047 -3.54207e-20)
(1.0029 0.0200064 -8.20251e-21)
(1.0033 0.0204768 -2.51688e-21)
(1.00292 0.0208897 -7.03387e-21)
(0.496247 0.0892517 -2.48613e-20)
(0.460385 0.0850276 3.93099e-20)
(1.01245 0.0276898 5.93591e-22)
(1.01335 0.0275275 5.26603e-21)
(1.23932 0.0751129 5.36782e-20)
(1.23435 0.0704839 2.59853e-20)
(1.23279 0.0770332 4.32091e-21)
(1.00834 0.00131896 -9.09097e-22)
(1.00807 0.000910285 -3.71022e-22)
(0.159125 -0.118768 1.08773e-21)
(0.114403 -0.108543 2.41869e-21)
(0.154872 -0.112652 4.94191e-22)
(0.430529 -0.152584 6.42406e-21)
(0.413405 -0.145033 3.22035e-20)
(0.496889 -0.155614 7.49966e-20)
(0.994816 0.098109 0)
(0.998653 0.096878 0)
(1.13586 0.504321 4.39143e-20)
(1.16759 0.515795 2.67537e-20)
(1.14866 0.48939 -7.07081e-21)
(1.08948 0.0621129 0)
(1.08777 0.0589336 -4.22814e-21)
(1.01568 0.0130314 8.03804e-22)
(1.01579 0.0124434 2.11819e-21)
(0.978736 -0.0954742 7.14239e-21)
(0.972557 -0.0929597 8.18868e-21)
(1.03071 -0.038038 1.04619e-21)
(1.03255 -0.0393409 9.93012e-22)
(1.12675 0.027379 -2.1772e-20)
(1.1297 0.0252963 1.22522e-20)
(0.933696 -0.154238 1.3208e-20)
(0.921813 -0.148188 1.92515e-20)
(0.938409 -0.145626 -4.88796e-21)
(-0.524749 -0.00901416 -1.21191e-20)
(-0.551396 -0.00851231 -2.90088e-20)
(1.0124 0.00334917 -3.61257e-22)
(1.01281 0.00337814 -8.28943e-22)
(1.01259 0.00294153 -1.77428e-23)
(1.07095 0.0923637 5.7488e-21)
(1.07011 0.0965925 1.18732e-20)
(-0.158143 -0.0878616 0)
(-0.129979 -0.0934788 9.65009e-21)
(-0.119977 0.0223696 -2.21073e-20)
(-0.146809 0.0198953 2.92537e-20)
(-0.123045 0.0220276 -1.52228e-20)
(0.99991 0.00146346 -4.63445e-21)
(0.999889 0.001781 2.94552e-24)
(1.00583 0.00968148 -2.05669e-22)
(1.00629 0.0100016 3.49888e-21)
(1.00604 0.010206 -2.3184e-21)
(0.599947 0.00149699 0)
(0.614047 -0.000687627 7.21786e-21)
(1.08939 -0.137038 -8.67652e-21)
(1.08466 -0.134097 -2.25338e-21)
(1.0839 -0.140658 4.52703e-22)
(1.00004 9.30981e-05 9.39647e-22)
(1.00002 7.04005e-05 0)
(1.00004 0.000116645 3.20351e-21)
(0.983931 -0.0810294 3.69846e-23)
(0.984249 -0.0762299 -5.21561e-21)
(0.988011 -0.0798206 -1.21789e-20)
(1.22838 -0.0302248 -5.34756e-22)
(1.22557 -0.0372543 1.9965e-20)
(1.22048 -0.0304647 2.38989e-22)
(0.799488 -0.0324015 4.54983e-20)
(0.795268 -0.0423908 2.24311e-20)
(1.10151 0.113798 1.84456e-22)
(1.10485 0.118092 1.93497e-22)
(1.1059 0.112199 -3.83748e-22)
(0.999936 0.00179621 0)
(0.999963 0.00147058 -1.18629e-21)
(0.973621 0.216843 4.0579e-21)
(0.975735 0.207101 5.65815e-22)
(0.965509 0.210641 -4.94767e-21)
(-0.456787 -0.0209391 8.50235e-21)
(-0.449842 -0.0201573 7.75796e-20)
(-0.503238 -0.01136 -1.46802e-20)
(1.04027 0.00255527 -4.86495e-22)
(1.04045 0.00199842 -2.95856e-21)
(1.04119 0.00240637 -2.44116e-21)
(1.22636 0.178373 1.14365e-20)
(1.21847 0.180376 1.6221e-20)
(1.22183 0.171406 -2.60186e-20)
(0.562605 0.145393 -7.76625e-20)
(0.577081 0.166418 -7.82058e-20)
(0.547395 0.170409 -1.37568e-19)
(1.03492 0.0259951 0)
(1.03598 0.0257277 0)
(0.995564 0.0305286 0)
(0.994584 0.030921 -1.97495e-21)
(1.06334 -0.063706 1.07767e-20)
(1.06301 -0.0665933 -6.51428e-21)
(1.06056 -0.0643155 4.18778e-21)
(0.629124 -0.00460002 0)
(0.615393 -0.00375497 0)
(0.615839 -0.00408972 -2.93704e-21)
(1.05681 -0.074501 2.65409e-21)
(1.06066 -0.0764148 1.60393e-22)
(0.936392 0.123459 -1.32557e-20)
(0.9306 0.124278 0)
(0.976493 0.0991062 -1.79275e-20)
(0.973726 0.10289 0)
(1.00004 0.000200899 -2.45356e-21)
(1.00003 0.000174764 2.62322e-21)
(1.00001 0.000116608 4.90754e-22)
(0.356039 -0.0166261 0)
(0.369449 -0.0173264 2.30089e-21)
(0.462344 -0.0101347 -4.00481e-20)
(0.546038 -0.0207789 0)
(0.533413 -0.0116552 -3.49602e-20)
(0.984747 -0.0513697 4.514e-21)
(0.982926 -0.0537439 5.80182e-21)
(0.98139 -0.0498886 5.44651e-21)
(1.01512 0.0130355 -2.22124e-21)
(1.01562 0.0135467 -8.74064e-22)
(-0.467831 -0.00659053 0)
(-0.423773 -0.00796136 -2.25737e-20)
(-0.437829 -0.00513805 0)
(0.0393667 -0.0373591 -1.73053e-23)
(0.0560515 -0.035099 -1.72016e-23)
(0.0216447 -0.0235635 -1.1265e-20)
(1.01732 -0.242728 5.1992e-22)
(1.00563 -0.230686 -3.67005e-22)
(0.838312 -0.023149 -9.60976e-21)
(0.809698 -0.0265618 -1.52607e-21)
(1.03387 -0.0302882 8.34516e-22)
(1.03372 -0.0281523 0)
(0.999904 0.00212966 0)
(1.00611 0.000793589 -8.08412e-24)
(1.00576 0.000849314 -2.75448e-21)
(1.00621 0.00124609 -2.65609e-21)
(1.15657 -0.0171491 1.15443e-20)
(1.15209 -0.0164992 -3.01886e-21)
(1.15419 -0.0210882 -1.83129e-20)
(-0.0227452 -0.089934 1.42278e-20)
(-0.0480641 -0.077569 3.2199e-21)
(-0.0675246 -0.076669 -1.96825e-22)
(1.18176 -0.114154 1.04606e-21)
(1.18835 -0.111126 2.80612e-20)
(1.18692 -0.120379 3.33607e-20)
(1.07311 0.0394638 8.27992e-22)
(1.07502 0.0378182 -3.74358e-21)
(1.25916 -0.143024 1.86204e-20)
(1.20063 -0.149093 -4.24222e-20)
(1.05396 -0.0258473 -1.16672e-21)
(1.05437 -0.025097 5.82263e-23)
(1.01797 0.000950314 4.87513e-22)
(1.01794 0.00118314 3.52511e-22)
(1.01816 0.00104477 -6.31214e-22)
(0.685257 0.072326 6.02099e-20)
(0.682606 0.0675013 -6.49659e-20)
(0.598158 0.0607359 -5.58511e-20)
(1.00164 0.00456376 2.8744e-22)
(1.00164 0.00435847 -3.40539e-21)
(1.00145 0.00417129 -2.12057e-22)
(0.961625 -0.310762 5.07318e-21)
(0.897542 -0.302332 3.50107e-21)
(1.06951 -0.00683121 4.77274e-21)
(1.06868 -0.0078318 0)
(1.00004 7.21906e-05 -2.08775e-22)
(1.00007 0.000115572 8.77974e-22)
(1.00113 0.11241 1.96923e-21)
(0.99971 0.117173 -8.36015e-21)
(0.996908 0.112651 -5.7682e-21)
(1.01718 0.19588 1.05831e-21)
(1.01293 0.189961 1.00399e-21)
(0.778709 -0.0150898 0)
(0.78904 -0.014126 3.55819e-20)
(0.979695 -0.0808323 5.5218e-21)
(0.983163 -0.084791 7.29292e-21)
(0.996999 0.148101 3.50545e-21)
(0.996953 0.154422 5.67416e-21)
(0.990924 0.149984 -3.39547e-21)
(1.04359 0.00752714 1.89238e-21)
(1.04427 0.00824374 -7.12274e-22)
(1.04321 0.00815666 1.50299e-22)
(1.41343 0.0241569 0)
(1.41143 0.0360453 0)
(1.38376 0.0261822 0)
(0.940554 -0.159832 0)
(0.927888 -0.160503 1.72922e-21)
(0.396163 -0.0138086 -3.80755e-21)
(0.394725 -0.00788458 -3.36566e-20)
(1.00242 0.0197059 -6.22251e-21)
(1.00277 0.0192847 -2.35878e-21)
(1.0544 -0.276785 0)
(1.06095 -0.273323 0)
(1.06605 -0.2874 -4.89525e-21)
(0.998493 -0.00118227 -3.02152e-21)
(0.998378 -0.0009031 -6.82678e-21)
(0.998192 -0.0011209 -8.04703e-21)
(1.04316 0.0067864 -2.15927e-22)
(1.0442 0.00683167 2.63228e-21)
(1.00058 0.0137641 -6.49636e-21)
(1.00096 0.0141872 -1.17378e-20)
(0.804833 0.615502 -8.27525e-21)
(0.759501 0.61906 -1.4311e-20)
(1.00129 0.000831697 3.08312e-21)
(1.00141 0.000730157 9.08363e-23)
(1.00119 0.000643829 -1.48615e-21)
(1.24388 0.0794547 -2.58392e-20)
(1.24557 0.0729087 2.5765e-20)
(1.09707 0.116408 2.58448e-22)
(1.09768 0.110582 5.76045e-21)
(1.03221 0.0191787 1.60264e-23)
(1.03322 0.0188426 9.52873e-22)
(1.10964 -0.0601972 1.85397e-20)
(1.1059 -0.0569668 1.7732e-20)
(1.03977 0.058696 -5.94691e-22)
(1.0407 0.056789 -5.70043e-23)
(1.04219 0.0585838 -4.11212e-22)
(0.118904 0.0366277 -2.12541e-19)
(0.104722 0.0194515 -3.65115e-20)
(0.104129 0.053338 -3.49986e-20)
(1.01407 0.202625 -3.52788e-21)
(1.00635 0.202348 1.31914e-21)
(1.19473 0.146733 -9.86376e-21)
(1.18956 0.153562 -2.26947e-20)
(1.0306 0.013165 -9.16561e-23)
(1.03129 0.0137589 5.84112e-22)
(1.03128 0.0128827 1.39728e-22)
(0.996487 0.030114 -7.06582e-21)
(0.995607 0.0293191 -9.24573e-21)
(-0.316832 0.0289905 1.09375e-19)
(-0.353918 0.0249341 3.93317e-20)
(-0.354041 0.0247497 -1.64638e-20)
(0.331816 -0.0291542 7.79559e-21)
(0.316441 -0.0265243 1.10717e-20)
(0.344651 -0.0382868 3.59332e-20)
(1.00081 0.0162547 -3.4832e-21)
(1.00113 0.0158834 2.44973e-21)
(1.00689 0.000742034 -1.3648e-21)
(1.00737 0.0010094 -1.8923e-21)
(1.00694 0.00131451 -1.9128e-21)
(0.675442 0.0718511 -1.71142e-20)
(0.781986 0.0778676 6.82655e-20)
(1.01642 0.0266052 -1.10433e-21)
(1.01671 0.027583 2.03388e-21)
(1.01751 0.0270111 2.87639e-21)
(-0.309929 -0.0450085 -3.33874e-20)
(-0.340024 -0.0421957 -4.83056e-20)
(1.02984 0.0127551 1.98784e-23)
(1.02988 0.0136189 -2.61353e-23)
(0.161159 -0.124646 1.51411e-21)
(0.206204 -0.130683 -1.58628e-21)
(1.04617 -0.00401895 -8.87031e-22)
(1.04574 -0.00443546 1.18794e-21)
(1.04649 -0.00451954 -2.2423e-21)
(1.19113 0.36014 1.36237e-20)
(1.17982 0.357156 0)
(1.1823 0.370007 -1.16443e-20)
(1.09795 -0.0150566 -1.41724e-20)
(1.09898 -0.0125772 5.22008e-21)
(1.101 -0.0148845 -3.05448e-22)
(0.0961241 0.28161 -8.44447e-20)
(0.094769 0.242173 -9.06839e-20)
(0.129122 0.259634 -1.01148e-20)
(0.944199 0.0473997 6.00946e-21)
(0.943805 0.0440055 -1.39362e-20)
(1.26133 0.0113299 1.10991e-19)
(1.17986 0.013906 5.34024e-20)
(0.50669 0.276483 -3.39264e-20)
(0.480112 0.285636 -5.6802e-20)
(0.50675 0.30848 0)
(1.00541 0.112756 5.89617e-21)
(1.00299 0.109175 -1.47395e-21)
(1.09395 -0.134584 9.56008e-21)
(1.09403 -0.141626 -1.73305e-20)
(0.921466 0.507304 -1.82881e-21)
(0.936666 0.525661 1.93171e-20)
(0.908412 0.528665 0)
(0.997324 0.0468307 -1.43211e-20)
(0.99577 0.0463754 -1.3932e-21)
(0.996221 0.0481996 -1.44787e-21)
(0.442803 -0.0782713 -9.33148e-21)
(0.40148 -0.0687764 -1.13891e-20)
(0.42247 -0.0691839 1.30261e-20)
(0.581105 0.0280097 -7.48688e-20)
(0.560641 0.0182428 4.02133e-21)
(0.0581822 -0.0498112 1.44469e-20)
(0.0281256 -0.0397892 0)
(0.922802 0.0197884 -2.20875e-21)
(0.919177 0.0209146 2.50448e-20)
(0.921909 0.0237746 -9.18983e-21)
(0.525797 -0.00905914 0)
(0.500599 -0.0056144 1.47504e-20)
(0.529026 -0.0083882 -6.4217e-23)
(1.07457 0.0913096 -1.81704e-21)
(1.07723 0.0951132 -1.62225e-21)
(1.0784 0.0910147 -4.27492e-21)
(-0.141346 0.0405968 -2.32332e-20)
(-0.106472 0.0425326 -6.04676e-20)
(-0.0985371 0.043542 3.13356e-20)
(0.514196 0.245876 2.44679e-21)
(0.538641 0.269973 -8.42184e-20)
(0.909691 0.352274 0)
(0.893512 0.348937 0)
(0.901084 0.366851 -9.63318e-21)
(0.927253 0.358955 -1.02413e-20)
(0.920402 0.340056 -8.52053e-21)
(0.883211 -0.125014 -3.05514e-21)
(0.862644 -0.130401 -2.17168e-20)
(0.999681 0.00132121 2.26159e-21)
(0.999596 0.00152611 1.69286e-21)
(0.999633 0.00159746 -7.03037e-22)
(1.0543 0.185194 -1.59885e-21)
(1.05043 0.192202 3.40076e-21)
(-0.253972 0.0329558 -7.27195e-22)
(-0.266857 0.0320855 9.41136e-21)
(0.983467 0.0328292 8.4871e-23)
(0.982521 0.0337405 -2.21612e-21)
(0.982158 0.0320282 -4.77847e-21)
(1.00319 0.0768072 -2.82696e-21)
(1.00402 0.0743302 4.05369e-21)
(1.00113 0.0748734 1.54905e-21)
(0.103446 -0.0386534 0)
(0.122721 -0.0394443 0)
(0.819823 0.473157 -1.82453e-20)
(0.850658 0.482647 -1.61168e-20)
(1.0186 0.0543531 8.81868e-22)
(1.01857 0.0560322 2.36039e-21)
(1.02054 0.0553502 5.06531e-21)
(1.00784 -0.157878 0)
(1.00455 -0.15131 0)
(0.65795 0.533923 1.08547e-20)
(0.684489 0.507831 2.69854e-20)
(1.00915 0.00557765 0)
(1.00962 0.00586326 0)
(1.00953 0.00533599 0)
(0.439236 -0.014625 -2.26688e-20)
(0.42232 -0.00736008 -5.50094e-20)
(0.982347 -0.125644 9.80921e-21)
(0.97487 -0.122375 2.69203e-21)
(0.983471 -0.119795 -2.10591e-21)
(1.00162 0.00476466 1.72364e-22)
(1.00182 0.00497813 3.44323e-21)
(1.01008 0.0143873 -1.69339e-22)
(1.00952 0.0140008 1.81754e-21)
(1.00972 0.0146768 1.62041e-21)
(0.998499 -0.00149619 1.13311e-20)