/*--------------------------------*- C++ -*----------------------------------*\
| =========                 |                                                 |
| \\      /  F ield         | OpenFOAM: The Open Source CFD Toolbox           |
|  \\    /   O peration     | Version:  v2012                                 |
|   \\  /    A nd           | Website:  www.openfoam.com                      |
|    \\/     M anipulation  |                                                 |
\*---------------------------------------------------------------------------*/
FoamFile
{
    version     2.0;
    format      ascii;
    class       volVectorField;
    location    "950";
    object      ddt0(U);
}
// * * * * * * * * * * * * * * * * * * * * * * * * * * * * * * * * * * * * * //

dimensions      [0 1 -2 0 0 0 0];


internalField   nonuniform List<vector> 
13917
(
(0.00220684 0.00410459 -3.7569e-18)
(0.00982293 0.00376631 -1.92309e-19)
(-0.00647545 0.00474402 2.95059e-18)
(0.000138552 0.000292314 2.35621e-18)
(0.0045135 -0.00515015 5.02185e-19)
(0.00884618 0.0049406 3.59449e-19)
(0.000423251 0.000493303 -6.12972e-19)
(0.0275697 -0.0181486 -2.94817e-20)
(0.000369444 0.000167576 3.62067e-18)
(-0.00557626 0.00112963 -4.3895e-18)
(0.0254406 -0.0153781 -1.19101e-19)
(7.50397e-05 0.000232627 6.83818e-19)
(0.000563942 2.64417e-06 -1.53253e-18)
(-0.128844 -0.132067 -5.95149e-18)
(-0.000351108 0.00407608 -3.98284e-20)
(0.00250378 0.00290638 3.10722e-18)
(0.000234951 -4.09628e-06 -4.70583e-20)
(0.0167854 -0.0165356 2.52232e-20)
(-0.00316841 -0.00140884 3.98463e-18)
(0.0169177 0.0182727 -9.76519e-18)
(-0.00302767 -0.00238403 1.28154e-20)
(-0.00022495 -0.000113944 -4.18898e-20)
(0.000868958 -0.000231112 -2.20011e-18)
(-0.000199877 -0.000122723 8.68669e-20)
(-9.36834e-05 0.000460281 4.25e-18)
(-0.00265401 -0.0043883 -8.41555e-20)
(0.0812348 0.0735026 6.86221e-18)
(-0.0045899 -0.00136711 5.72907e-18)
(0.00251487 -0.0117175 -3.70853e-20)
(0.000210631 0.00016683 3.8968e-20)
(0.0030405 -0.0048816 -3.79703e-18)
(-5.7683e-05 0.000234791 -1.1298e-19)
(3.82428e-05 0.000329288 -1.57233e-19)
(-0.00264617 0.00479351 -7.41054e-18)
(0.000194872 -0.000100491 -1.01455e-19)
(0.0340187 -0.0163724 6.186e-20)
(4.80689e-05 -0.000122924 -4.91655e-19)
(0.00023897 -2.73352e-06 -2.36744e-19)
(0.000439695 0.000465402 -4.46862e-18)
(-0.00331434 0.00336871 2.25697e-18)
(0.000164164 -1.42286e-06 1.07187e-19)
(0.000289913 0.000440612 1.78197e-19)
(0.000326971 0.000169184 -5.53501e-18)
(-0.00220451 0.000712662 6.25284e-18)
(-0.00223525 0.00039828 -5.28839e-18)
(0.0207747 -0.020538 1.22573e-18)
(-0.00255191 -0.0019164 4.5956e-19)
(-0.0453372 0.0662883 9.22358e-18)
(0.0660465 0.0631353 2.24329e-18)
(0.000219641 -0.000163815 -5.25029e-21)
(9.01604e-05 0.000224914 3.31463e-19)
(0.0072383 -0.00864515 -4.72274e-18)
(-0.0101953 0.00115055 -5.39691e-18)
(-2.74025e-05 0.000168658 -1.62524e-18)
(-1.39564e-05 0.000173389 -9.68198e-19)
(0.0059277 -0.00861625 6.17439e-18)
(0.000486773 0.000137662 5.14439e-18)
(0.000948162 -0.000186755 1.12541e-19)
(0.000156623 0.000310085 -1.71589e-19)
(0.0243387 -0.0190625 -1.01834e-18)
(-0.0431902 -0.133022 -2.46754e-17)
(0.0045313 0.00745592 9.39742e-20)
(9.83457e-05 1.06394e-05 -7.06393e-21)
(-7.56368e-05 0.000440031 1.8909e-18)
(0.000221486 0.00443447 -2.39363e-18)
(-0.00774814 -0.0122951 -1.38811e-21)
(0.00597672 -0.0137329 2.59026e-20)
(0.0347151 -0.0112966 -2.03016e-19)
(0.0202014 -0.0189125 -7.70885e-20)
(-0.00566979 0.0020261 8.29256e-18)
(7.40292e-05 0.00304926 1.13682e-18)
(-0.00278293 0.00441991 4.28778e-18)
(0.000229731 0.000125753 3.5827e-18)
(0.00021776 0.000155074 1.22117e-20)
(-0.00367361 -0.00219298 8.0089e-21)
(-0.000294225 0.000337258 2.80303e-18)
(0.000368656 -0.00230645 1.57707e-19)
(0.000147881 7.56075e-05 4.44226e-20)
(-0.000254377 0.000331023 -1.16355e-18)
(2.27714e-05 0.000338461 1.56707e-18)
(-0.000294612 0.000395372 -3.77266e-19)
(0.000237426 -6.75994e-06 -1.55386e-20)
(0.000246054 0.000117568 -1.39779e-18)
(0.000971276 0.0114366 4.08103e-19)
(0.000286251 2.23199e-05 -2.45602e-20)
(-0.00256442 -0.0588156 -1.42658e-19)
(4.84254e-06 0.000181284 -6.04168e-18)
(0.000325322 1.07771e-05 -2.87359e-19)
(-0.00349703 0.00284104 -2.17988e-18)
(0.00025668 -5.41405e-06 8.19332e-21)
(0.000293823 -1.45809e-05 -1.70573e-19)
(0.000325724 0.000166192 -6.32299e-19)
(0.0795346 0.0619467 2.69297e-18)
(-3.53088e-05 -0.000128487 3.03832e-20)
(-2.78471e-05 0.0002457 7.55351e-20)
(0.00308103 -0.0139234 5.78344e-20)
(0.0073973 0.0550683 3.1814e-18)
(0.000195216 -7.44142e-06 2.12267e-20)
(0.000309219 1.22705e-05 -1.43968e-19)
(-0.0259022 0.0317922 1.88786e-19)
(0.000174367 4.65555e-06 -4.75011e-20)
(0.000185759 6.11286e-06 -3.5525e-20)
(-0.000263626 0.0004274 3.2846e-19)
(0.000184132 -1.80675e-05 -1.49826e-19)
(0.000688968 -0.00200319 -2.20817e-19)
(-0.00512999 0.00209869 -6.05356e-18)
(-0.0146837 0.0319224 1.37601e-19)
(0.00290577 0.00913284 -1.80066e-19)
(0.000226857 0.000705246 1.64479e-20)
(0.0890733 0.0753032 3.96646e-19)
(0.000518535 7.28031e-06 1.40937e-18)
(-0.00211149 0.00533853 8.00511e-18)
(8.68073e-05 -0.0114614 3.38397e-19)
(-0.0780117 0.0726528 -7.85449e-18)
(0.000957596 0.00423668 2.80355e-18)
(-0.000420591 0.000241603 1.77601e-18)
(-0.00271207 -0.00132065 -1.77255e-18)
(0.00030944 -8.20017e-07 5.81437e-20)
(-0.00568422 0.00244251 -1.52596e-17)
(0.000263455 7.38918e-05 1.78672e-18)
(0.000244597 -9.52277e-06 -2.71645e-20)
(0.00028745 -8.21819e-05 -1.02216e-19)
(0.00713552 -0.0162527 -1.73544e-19)
(7.28267e-05 -0.00412529 4.6865e-18)
(-0.0121701 0.00187052 4.92366e-18)
(0.00196039 0.0109507 -6.26909e-18)
(-3.01402e-05 0.000424981 1.40735e-18)
(-0.00431159 -0.00261381 3.62364e-19)
(-0.000146746 -0.000142613 -8.78106e-21)
(-0.000388845 -0.00413967 -6.88218e-18)
(0.000496699 0.000147946 6.3052e-18)
(0.0299058 0.0158961 -4.79369e-19)
(-0.0113677 0.00483778 4.13463e-18)
(-0.000408731 0.000189763 7.89039e-19)
(-0.000479465 0.000435283 -4.79484e-18)
(0.0792612 0.086118 -2.77214e-18)
(0.00674883 -0.0931312 2.21276e-18)
(-0.0161013 0.00088656 9.95915e-19)
(-0.00235068 -0.00599524 -6.01734e-20)
(0.000271625 -1.32039e-06 4.88987e-19)
(-0.0578717 -0.10819 1.02858e-18)
(0.00020054 -6.18354e-06 -6.64329e-20)
(-0.00409329 0.00115739 9.70545e-18)
(-3.27332e-05 2.55137e-05 -1.47396e-19)
(0.000240565 0.000127396 -7.19342e-19)
(-0.00179611 0.0025422 3.81513e-20)
(0.00013024 0.00353017 2.22024e-18)
(0.00832564 -0.00855653 3.77375e-19)
(-0.0125266 0.0625926 -4.46927e-18)
(-2.90407e-05 0.000174099 9.58674e-19)
(-0.00304493 0.00200471 1.54587e-19)
(0.000172319 7.72455e-06 1.08625e-20)
(0.000251982 0.000117767 -1.0395e-18)
(0.000274104 7.14918e-05 2.33097e-19)
(0.0273727 0.062687 -1.07009e-18)
(0.000355811 -1.43483e-05 -1.44733e-19)
(0.000187582 -2.10558e-05 1.30737e-19)
(-0.0120895 0.00258868 -1.90639e-18)
(0.000242467 1.00671e-06 2.41713e-20)
(0.000288141 -1.79546e-06 -1.685e-20)
(0.000128458 5.75312e-05 -2.55255e-19)
(-0.0274418 0.00188126 -3.49902e-18)
(0.00104804 -0.000242025 3.62451e-19)
(-0.0369681 -0.123367 1.21114e-19)
(-0.0619729 -0.03181 -1.01073e-19)
(-0.0335085 0.0453263 -3.31064e-18)
(-0.0066284 0.000916255 7.83728e-18)
(-0.100079 -0.0176764 2.17402e-17)
(7.92594e-05 8.1904e-05 -5.73886e-22)
(-0.00274329 -0.00711812 1.55216e-20)
(-0.00016538 -0.000195887 2.74953e-20)
(-0.00860316 0.00890494 -5.29546e-18)
(0.000362486 0.000161289 -9.28496e-18)
(0.0137245 -0.0925362 8.5578e-18)
(0.00699393 0.000979007 3.00069e-19)
(0.000229127 3.21158e-06 -1.40858e-19)
(0.00015333 0.000282674 -8.92245e-19)
(0.00937418 -0.0105926 -1.31905e-17)
(0.00048853 0.000152972 -2.18387e-19)
(0.00127905 -0.00038237 3.59097e-20)
(0.000318984 0.000188264 5.28771e-18)
(-0.00015022 -0.000169046 -1.04477e-19)
(8.27169e-05 0.00022005 -1.42977e-18)
(-0.00219383 -0.0147462 -5.1592e-18)
(-0.00630716 0.00205225 5.02795e-18)
(0.0306706 0.0197438 -3.06556e-19)
(7.35771e-05 0.000212002 6.27676e-19)
(-0.00100166 -0.0161299 -2.20317e-18)
(0.000188046 0.000152307 -8.19853e-21)
(-0.00232871 -0.0497158 1.75588e-19)
(0.00737686 0.00166634 5.38092e-19)
(-0.00186417 0.00022196 1.61171e-18)
(-0.00104612 -0.00999925 -2.77218e-18)
(0.00466728 0.00597723 4.43112e-18)
(-1.25493e-05 -0.000121619 -1.1022e-19)
(-0.0111853 0.00197413 3.41257e-19)
(-0.000182426 0.000909887 6.33547e-20)
(-0.0103378 0.00466009 4.32288e-18)
(0.000141808 -9.81542e-05 5.93159e-21)
(0.00022482 -4.65882e-05 1.79266e-19)
(-0.0018725 -0.00116133 -9.46973e-19)
(-0.00449554 0.00210256 4.01542e-18)
(-0.0160336 0.00088968 -1.54214e-18)
(0.000237148 0.000138423 -3.33065e-19)
(0.0648334 0.0680861 5.93887e-19)
(0.00397042 -0.00426774 -3.63851e-20)
(-0.00297311 0.00242182 -3.56198e-19)
(0.000280767 -1.42352e-05 -3.46007e-19)
(0.00766185 -0.0102367 -3.04175e-18)
(-0.000353318 0.000397826 1.60313e-20)
(7.89169e-06 -0.000101401 -7.42936e-20)
(0.0115617 -0.00740873 -3.68928e-20)
(0.0136049 -0.00894432 1.48326e-20)
(-0.0219628 0.0555178 -6.92321e-18)
(-0.000347031 0.000386004 3.32117e-19)
(-0.00319959 -0.0051174 -1.96715e-20)
(-0.0122702 0.0123996 -6.72691e-19)
(0.000235559 -2.90132e-06 -3.62592e-19)
(0.00032825 -0.00011639 -1.05707e-19)
(0.000334465 -0.000115724 2.14754e-20)
(-0.0979226 0.00147036 -4.29734e-18)
(-0.00122063 -0.0125468 7.59884e-18)
(-0.00057716 -0.0202264 -6.32468e-18)
(0.000424 3.79503e-05 2.76547e-18)
(7.63171e-05 5.34608e-06 4.08846e-21)
(0.0731995 0.0976286 9.96235e-19)
(-0.0105663 0.00166997 7.03219e-18)
(0.000322906 -9.57315e-05 -2.04565e-19)
(0.000317126 -9.19348e-05 -1.84285e-19)
(0.000155582 -3.91568e-06 -2.21073e-20)
(0.000346367 -0.000124567 3.56524e-20)
(0.000352027 -0.000122821 -3.87207e-19)
(-0.00242406 0.00421273 -3.65668e-18)
(-0.025041 0.033381 2.04865e-19)
(-0.000383752 0.000117706 5.17842e-20)
(0.000104696 0.000136939 3.74243e-21)
(0.00410519 -0.00267941 1.44989e-18)
(-0.00513201 0.00330622 -3.07757e-18)
(0.000263606 -1.66729e-06 7.56082e-20)
(0.000442206 3.58887e-05 -3.79727e-18)
(0.0816372 0.0671302 -3.04921e-18)
(-0.00441282 -0.00120005 -7.63011e-18)
(-0.00233539 -0.0133676 2.18083e-18)
(-0.0106094 0.0133406 1.23603e-17)
(0.01223 -0.000875543 -8.02016e-19)
(-3.30046e-05 3.4048e-05 -2.2154e-19)
(-0.0943166 -0.0234087 1.07056e-17)
(0.00379963 -0.00323297 -4.72717e-19)
(-7.40412e-05 -0.00978607 -1.93731e-19)
(-0.000568823 -0.00116106 1.45847e-18)
(0.000174609 0.000153374 5.46219e-19)
(-0.0138279 0.0415822 -4.00855e-18)
(0.000259278 8.39734e-05 1.73937e-19)
(0.00103963 0.00368499 2.5242e-18)
(0.00564557 0.00130814 -2.87949e-19)
(-0.000442014 6.19184e-05 2.27831e-19)
(0.000112372 -9.12288e-07 -1.41519e-19)
(-5.04942e-05 0.000444123 -3.48841e-18)
(0.00477154 0.00098199 9.45096e-20)
(-0.000352054 -6.70645e-05 -1.24873e-19)
(-0.0116486 0.00264663 2.09865e-18)
(-0.0225488 -0.0722954 3.22212e-19)
(0.000413604 -0.000266648 2.45891e-19)
(0.000311739 -8.5494e-05 4.41956e-20)
(0.00045014 -0.000111279 1.81553e-19)
(0.00030795 -8.51784e-05 7.78317e-20)
(0.000258031 8.05433e-05 4.83458e-18)
(0.000544276 4.6716e-06 -7.90698e-19)
(0.00129074 0.000896931 -1.25488e-18)
(0.000480289 -0.000257183 1.55199e-20)
(-0.0160198 0.000524196 -4.60473e-19)
(-0.0185818 0.0293425 -1.88033e-18)
(9.193e-05 0.000151376 -5.71482e-19)
(0.00271104 -0.000443091 -5.55541e-20)
(0.0296486 -0.021437 -9.76693e-18)
(0.000370708 -3.53387e-05 -3.30348e-19)
(-0.0221721 0.0225415 1.11813e-18)
(-0.0115561 0.0031449 3.14791e-18)
(0.000368844 -4.26155e-05 -1.3036e-19)
(-0.00575095 0.00251106 1.81924e-20)
(-0.000300646 -0.000146308 3.74251e-20)
(-0.0282476 -0.00142984 2.9146e-18)
(0.000205536 2.38854e-06 -4.66707e-20)
(-0.00104794 0.00273876 3.06249e-20)
(-0.000509374 5.68079e-05 -3.65738e-20)
(-3.7512e-05 -1.28141e-05 -5.2158e-20)
(-0.00514409 -0.00452099 -8.36341e-18)
(0.00018523 -4.69939e-06 -6.2296e-19)
(-0.0399565 0.054726 5.73144e-18)
(-0.000618268 0.00135032 1.89838e-18)
(-0.018119 -0.0867161 -3.44528e-19)
(-0.00159138 0.00357609 2.58263e-20)
(0.024692 0.0580063 4.78031e-19)
(-0.0162759 0.00060083 -4.16381e-18)
(0.000293643 -4.20933e-06 2.59939e-20)
(0.00170573 -0.000593673 1.16234e-18)
(0.00519444 -0.00124347 -4.6343e-19)
(-0.000462672 8.63115e-05 -1.18401e-19)
(0.00475378 -0.00382875 -6.45496e-19)
(-0.00023922 0.000375048 2.77423e-18)
(-0.000105278 -0.00012572 -1.6745e-19)
(0.000178227 -6.53077e-06 2.74965e-20)
(0.012428 -0.00919666 9.33252e-18)
(-0.0277429 -0.0110963 -5.69174e-20)
(0.000864446 0.00350572 -8.74036e-19)
(-0.000195616 0.000366735 1.47744e-18)
(0.000430298 3.64554e-05 4.45292e-19)
(-0.0115484 0.00318373 3.80151e-18)
(-0.00365914 0.00184048 5.19019e-19)
(-6.93317e-05 -0.00018728 1.27088e-20)
(-0.00244025 -0.000452971 1.2636e-21)
(-0.000477188 0.000153013 -3.37952e-21)
(0.0713157 0.0124094 3.48429e-19)
(0.000198725 0.00256022 5.18701e-18)
(-0.00976318 0.0244987 4.78227e-18)
(0.0204536 -0.0804788 -1.65025e-17)
(-0.00041316 -0.0131186 6.80614e-20)
(0.0257013 0.0142852 1.13823e-18)
(0.00233992 5.5832e-05 -1.16531e-19)
(-0.000224081 0.010452 -1.21435e-18)
(0.0797531 0.00418894 -3.15948e-19)
(-0.00564697 0.00507948 -4.35055e-18)
(0.000566361 3.77015e-06 -1.47257e-18)
(-0.0008568 0.00376039 5.49577e-20)
(0.0667939 0.0712696 -2.23812e-18)
(-9.24742e-06 -0.000302202 -3.26105e-21)
(0.0116177 0.00365641 -5.86182e-20)
(-0.00184192 -4.38778e-05 7.47934e-18)
(0.000244446 -4.36297e-06 -5.17047e-20)
(-0.00785472 0.00940642 -3.34526e-18)
(0.000337486 1.71923e-05 8.80415e-19)
(0.000476905 9.7884e-05 -2.70134e-19)
(0.00051055 -1.07545e-05 -2.20441e-19)
(0.0328746 0.0171384 3.33912e-18)
(0.000106088 -2.98876e-05 -4.65555e-19)
(0.000725457 0.00301487 1.11851e-18)
(0.00352529 -0.0051317 1.23509e-20)
(0.00338571 -0.00988901 -7.59175e-20)
(0.000270003 -5.08395e-06 -2.0188e-20)
(-0.00066187 -0.000760812 -1.1158e-17)
(-0.00342163 0.00769698 -1.52083e-18)
(-3.19742e-05 0.000213321 -6.07764e-19)
(5.86382e-05 -0.000263416 2.14928e-21)
(-0.00187127 0.00571876 2.00275e-18)
(-0.00375858 0.00483723 -9.26385e-19)
(-0.0145132 -0.0411208 5.40631e-18)
(-0.122369 -0.131708 6.44706e-18)
(0.000370693 -4.44711e-05 1.07551e-19)
(-0.000311828 0.00020454 3.71241e-19)
(-0.00472408 -0.00283507 -1.76098e-18)
(0.0255218 0.0111609 5.3406e-19)
(0.000369803 -5.41931e-05 5.71536e-20)
(0.00580742 -0.00247699 5.21559e-19)
(2.59311e-05 0.000175389 7.34675e-19)
(-0.0129839 -0.00397851 1.21235e-18)
(0.000974042 0.00316371 2.86517e-19)
(0.000459488 -0.00724611 -5.37384e-19)
(0.0131104 0.00822893 -8.08919e-20)
(-0.0245791 0.0196138 7.70885e-20)
(0.000461265 0.000103251 4.50772e-18)
(0.00032346 0.00694198 2.75998e-19)
(-0.000164004 -0.000138864 3.16583e-21)
(-3.07571e-05 0.000201319 4.29871e-19)
(0.00553348 -0.00614469 2.65069e-19)
(-0.00709373 -0.0025205 1.35182e-18)
(0.000241976 -3.28756e-06 -1.39038e-19)
(0.00479551 0.00413533 2.65541e-18)
(0.000463163 0.000101241 -2.02325e-18)
(0.0214739 0.018111 -1.18343e-19)
(3.2283e-06 0.000179132 -2.91978e-18)
(0.0202505 0.00942968 1.0823e-18)
(-0.00229992 0.000584948 -1.27534e-19)
(0.0910005 0.054623 5.88627e-19)
(-0.00036267 0.00010947 -2.10846e-19)
(-0.0020439 -0.018437 -4.20154e-20)
(0.0267987 -0.023043 1.37432e-18)
(0.00417709 -0.00638022 -6.50437e-20)
(8.90025e-05 0.000155725 4.86667e-20)
(-0.00991378 -0.00282993 2.26259e-18)
(0.000614219 4.20134e-05 1.34852e-19)
(-0.0710224 -0.0454333 4.00882e-20)
(-0.0018401 -0.0107391 -4.62123e-18)
(-0.000480629 -7.11769e-05 -1.98312e-20)
(0.0686453 0.0680954 -3.84167e-19)
(-0.000714281 -0.000103617 -1.2775e-19)
(0.0134689 0.02262 -2.56661e-19)
(0.000105412 -0.0001565 3.79328e-20)
(0.0129196 0.0217014 9.10727e-18)
(0.0141047 0.0256236 4.42392e-19)
(-0.000122362 1.29508e-05 4.70976e-19)
(0.0800805 0.0940959 -8.06327e-18)
(-0.0222924 0.0121148 5.95347e-19)
(0.000106443 0.000216233 9.73708e-19)
(-0.0359034 -0.0333232 1.83558e-18)
(0.00295839 0.000850442 -1.49645e-17)
(-0.000122512 0.000113676 -3.60883e-19)
(-0.00530608 -0.0052933 1.17263e-17)
(-0.000212501 0.000215831 -2.5705e-19)
(-0.0263146 0.0101401 6.20768e-19)
(-0.00651783 0.00385973 -3.31043e-18)
(0.000315308 1.4499e-05 -1.58182e-18)
(0.000404944 0.000310584 -8.17121e-19)
(-0.00017821 0.00039594 -3.1888e-19)
(-2.31862e-05 3.20558e-06 1.1807e-18)
(0.000122247 -1.7532e-05 -1.5298e-18)
(-0.000204617 -0.000100821 8.44857e-21)
(-0.0199871 -0.111188 -7.88284e-18)
(-0.0229195 0.0446547 5.47928e-18)
(-4.75136e-05 0.000191673 -2.28664e-19)
(-0.000251561 -0.00015671 4.63916e-20)
(-0.000149323 -7.02218e-05 -1.69453e-19)
(0.00251122 0.000121312 -6.90492e-18)
(0.0430637 0.00611949 4.68997e-19)
(0.000405801 -1.72823e-05 9.55097e-20)
(8.8646e-05 7.25553e-05 5.87481e-21)
(-2.79244e-05 0.00240711 -2.64207e-18)
(0.01888 0.0114532 8.01188e-19)
(-3.3716e-05 -9.7657e-06 -2.32579e-19)
(-9.99968e-05 4.34624e-05 -7.39312e-19)
(0.0205791 -0.0568341 2.02164e-17)
(-0.0208998 0.0779461 -3.89141e-18)
(-0.00958522 -0.0158465 -1.75158e-20)
(-0.00351406 -0.00108363 -1.05916e-17)
(-0.00380127 0.0109283 1.74994e-18)
(0.000536283 -0.000173305 -3.63383e-20)
(0.000393553 -1.54954e-05 7.27653e-21)
(-0.00123298 -0.00239555 6.25478e-19)
(0.000139465 -1.69493e-05 2.47446e-19)
(0.000399439 -2.12553e-05 -2.6498e-20)
(-0.000420917 0.000119324 -3.30263e-19)
(0.000389745 -2.02475e-05 -2.27893e-19)
(0.000509597 -0.000159132 7.65648e-20)
(-0.0780583 0.00439312 1.05367e-17)
(-0.000210765 0.00023509 -5.8715e-20)
(-0.00258813 0.0044061 6.86174e-19)
(-0.0159441 0.000587293 -2.37595e-19)
(0.00185695 -0.000418477 -4.56659e-18)
(4.02189e-06 -0.000100238 -1.54298e-20)
(0.000249536 0.000119338 8.71394e-20)
(-0.0363278 -0.0241392 -2.52046e-18)
(-0.00174797 -0.00158341 8.25617e-19)
(-0.0124856 0.00159817 -5.40791e-18)
(0.000466551 -2.13284e-05 1.26551e-19)
(0.000298295 9.1586e-05 4.92812e-19)
(0.000672483 1.52567e-05 -8.70313e-20)
(0.000369401 -0.00012867 -9.83186e-20)
(8.34468e-05 -6.2434e-05 1.05027e-18)
(-0.000778658 -0.000303198 1.80574e-20)
(0.022679 -0.0528001 -1.26731e-17)
(-0.0032436 -0.00408176 -2.40264e-20)
(-0.00562986 -0.000253208 -2.20433e-18)
(0.000279589 8.97001e-05 1.35177e-18)
(0.000604434 0.000155639 1.85244e-18)
(-0.00566802 -0.00217137 -6.18497e-20)
(-0.000362039 0.000351122 -7.92351e-19)
(0.0111067 -0.00186837 -2.31193e-18)
(-0.0102132 -0.0457695 -6.41813e-18)
(3.46986e-05 0.000173474 -2.15512e-19)
(0.0152709 0.121628 -7.37758e-18)
(-1.33537e-05 -8.8186e-05 9.75319e-21)
(0.000203468 -8.43086e-06 4.93452e-19)
(-0.000140765 -6.43889e-05 2.94382e-19)
(-0.000734586 -1.10167e-05 4.30879e-20)
(3.47253e-05 -0.000103446 1.17071e-20)
(0.000310079 7.81351e-06 4.63469e-19)
(-0.011945 0.00409104 -5.64384e-18)
(-0.0226029 -0.114867 2.79661e-17)
(4.0338e-05 -0.000103456 -3.45779e-20)
(0.0359968 0.0561769 3.37628e-18)
(-0.000570828 0.00234384 9.03513e-18)
(0.000541871 8.92357e-06 -9.96108e-19)
(0.00209447 -0.000880722 -2.6571e-18)
(0.000743375 0.00047878 -8.14997e-18)
(-0.0458323 -0.017285 5.4721e-18)
(0.000430258 0.000273732 1.46777e-17)
(-0.00528813 0.00387924 4.94671e-18)
(0.0346046 0.0242527 -5.01066e-20)
(0.034284 0.0180979 4.48269e-19)
(-0.000828532 -0.000191068 7.60304e-20)
(-0.00410956 -0.0112812 -7.72622e-21)
(-0.00744976 -0.00127419 1.078e-21)
(0.000154568 0.000209358 -6.04443e-19)
(-0.012641 -0.0266266 -4.17141e-18)
(0.000286157 -1.34408e-05 -4.11791e-21)
(-1.66558e-05 0.000158545 2.18474e-19)
(-1.91045e-05 0.000224969 -2.1971e-19)
(0.000386381 0.000238182 -7.64459e-18)
(-0.00329157 -0.00061489 -1.72262e-19)
(-0.00577465 0.000889973 -3.57163e-18)
(0.000408232 -0.000407333 9.37426e-19)
(0.00163931 0.00254085 3.45885e-19)
(0.00355496 -0.000453196 -8.98134e-20)
(0.0125845 -0.0183165 4.17697e-20)
(-0.00150725 0.00870896 -5.90509e-19)
(-4.41149e-05 0.000194394 2.81591e-18)
(-0.122721 -0.131275 3.69047e-18)
(0.00106531 0.000491242 -6.09847e-18)
(-0.000489925 0.00134868 -6.22815e-19)
(-0.0613739 -0.0708325 5.57065e-18)
(0.000343661 1.96921e-05 1.20698e-18)
(-0.0012829 0.00959309 -6.30264e-20)
(0.0099845 -0.0124888 -4.38552e-18)
(0.00014133 -1.92861e-05 -2.51239e-19)
(-0.0137465 0.00129771 2.06648e-18)
(0.000201206 -8.19023e-06 -2.3891e-19)
(0.000373103 -0.000124196 -2.36269e-20)
(0.00248636 -0.000155569 6.65812e-18)
(0.000455264 -3.16655e-05 3.00886e-20)
(0.000232043 -3.52971e-06 -4.28844e-19)
(0.0133399 -0.00748692 -4.96197e-18)
(-0.0102771 -0.00180404 8.3448e-18)
(0.061352 0.111901 2.99808e-18)
(0.000160916 5.39485e-05 5.47971e-19)
(0.000218445 0.00024034 9.07054e-19)
(0.00276744 0.000453957 -7.89139e-20)
(-0.00581444 -0.0326226 5.76809e-18)
(0.0270144 -0.0169832 -1.2479e-18)
(-3.96012e-05 0.000190981 8.42462e-19)
(-1.99218e-05 0.000168814 5.52142e-19)
(0.000180047 4.78769e-05 -1.8743e-19)
(0.00453492 0.00109384 -3.29604e-18)
(0.0278728 -0.0299041 -8.96967e-19)
(-0.000135572 -0.000232345 -7.3055e-21)
(0.000260094 -3.89807e-06 8.59018e-20)
(0.000159367 1.41627e-05 -5.41392e-20)
(1.5073e-06 6.96329e-06 4.17638e-19)
(-0.00258415 -0.00525363 -1.02256e-20)
(0.000311062 0.00112889 2.67719e-18)
(0.00028539 -1.03382e-05 1.13842e-19)
(0.00044327 -0.00050518 9.1539e-19)
(0.000150502 -1.81144e-05 3.55204e-21)
(-0.000199001 -4.62445e-05 -3.91865e-19)
(-0.000151372 0.000390851 -9.21607e-19)
(-0.0029352 0.0182565 8.81775e-19)
(0.000251342 -5.18276e-05 2.99813e-20)
(0.000270839 0.000311515 -1.64026e-18)
(-0.000280618 8.80821e-06 2.17926e-19)
(0.000601257 0.000175273 2.82579e-18)
(0.00177328 -0.0020185 5.46299e-18)
(-0.0110068 -0.0129127 7.99814e-19)
(0.00615625 0.00102278 -2.35653e-18)
(-0.0216396 0.0384628 -1.74869e-18)
(-0.000135091 0.000314615 2.32876e-18)
(0.0107028 -0.0153683 3.23171e-19)
(-0.00957495 0.00563911 3.4982e-18)
(-0.0650828 0.00832811 3.58616e-18)
(-0.015651 0.000506318 6.38938e-18)
(-4.33304e-06 -0.000201151 -2.3171e-20)
(-0.000107424 -6.54953e-05 5.05883e-20)
(0.00206372 0.00331974 -2.87117e-19)
(0.000179781 0.000138189 -4.42931e-19)
(0.0020482 0.00496076 1.06086e-19)
(0.000380763 -3.40797e-05 1.65713e-19)
(-0.0275255 -0.102987 1.19328e-18)
(-0.000120718 0.000897457 -1.1989e-19)
(-0.00432126 0.0120472 -3.0457e-19)
(-0.0223681 0.0271783 -3.56375e-19)
(0.000328148 0.000182362 -9.49979e-19)
(-0.0298495 0.0285062 8.62183e-18)
(4.71886e-05 -0.000113737 -4.38847e-20)
(0.000518111 0.000364217 -8.68097e-18)
(0.000195416 -1.01674e-05 -3.44416e-20)
(-0.00112402 -0.00143098 -1.56824e-20)
(-0.00546173 0.0114829 5.41404e-18)
(0.000432676 -2.12069e-05 -1.60071e-19)
(-0.000344688 0.00638068 -1.01136e-17)
(0.000106263 4.21489e-06 3.61211e-20)
(0.000542178 6.63393e-06 3.11227e-18)
(-0.000120809 -7.44728e-05 -2.59042e-20)
(-0.00529609 0.000939126 6.25025e-18)
(-0.0018543 -0.00627726 -4.52818e-20)
(0.000292153 -6.69754e-05 9.42947e-20)
(-0.00183705 0.00115961 -6.36862e-18)
(0.00223605 -0.00064216 2.02828e-18)
(-0.0383395 0.203931 -7.48745e-19)
(-0.000980896 0.00369495 -3.18011e-18)
(-0.0104091 0.00109578 -1.93411e-18)
(-0.0488645 -0.0195232 -1.14539e-17)
(0.000250264 -4.95837e-05 -4.12646e-20)
(-0.00879182 0.00194083 7.98985e-18)
(0.000161838 1.407e-05 5.91021e-20)
(0.00306911 -0.101918 -7.21211e-18)
(-0.0169538 0.0125359 -1.80625e-18)
(-0.00147021 -0.00189844 -2.71015e-19)
(-0.0019413 0.00237125 -2.74962e-19)
(0.000179145 6.5953e-06 -4.82856e-20)
(0.00103389 0.000536064 1.6989e-18)
(0.00031789 0.000181347 -1.3661e-18)
(0.000423278 -2.68524e-05 -3.9413e-20)
(0.000199476 -9.96979e-06 -6.05739e-20)
(0.00050342 4.98411e-06 2.71046e-19)
(-0.00477401 0.00342202 3.97686e-19)
(0.000138381 6.05931e-05 -5.16691e-20)
(0.000145446 0.00018455 1.12421e-17)
(-2.11364e-05 0.000153604 6.66746e-20)
(0.000293269 -6.37695e-05 -1.36068e-19)
(0.000265621 1.41191e-06 -1.08075e-19)
(0.0176226 -0.0175762 -2.14686e-18)
(-0.0204897 -0.00917224 4.28013e-19)
(0.0433322 0.03598 -2.47446e-18)
(-0.000333975 -0.00109765 -9.82072e-18)
(0.000334142 0.00104958 -1.87039e-18)
(-0.0136388 -0.00845264 -1.22132e-18)
(-0.00553523 0.00349347 -3.66203e-19)
(9.68716e-05 -0.000167368 4.05529e-20)
(-0.01318 -0.0337077 1.77363e-17)
(0.000504135 5.19816e-06 1.33819e-18)
(0.00108742 0.000958441 6.85444e-18)
(0.00017145 0.000134418 -8.36675e-19)
(-0.0103084 -0.00251708 3.81209e-18)
(5.02694e-06 7.4939e-07 -6.83084e-19)
(-0.00388964 -0.00495194 -3.59947e-20)
(0.000256601 0.000127503 1.2528e-18)
(-0.0499035 0.192274 1.31552e-18)
(0.00121981 0.000673279 -2.31631e-18)
(-0.00338143 0.00635343 1.72827e-19)
(0.000274739 -1.09251e-05 6.63211e-20)
(0.00112803 0.000901137 -5.30357e-18)
(9.48795e-05 -0.000381047 -6.59954e-20)
(0.000143061 1.23114e-06 -2.98857e-20)
(0.000475992 0.00833514 1.58419e-18)
(-0.0464104 0.0359901 -3.26468e-19)
(0.000267087 -0.000412822 8.48816e-20)
(-1.65772e-06 -0.00803539 -3.97568e-18)
(0.00043584 3.925e-05 -9.09717e-19)
(-0.000135338 -0.00148585 -2.1842e-19)
(0.000144564 4.22463e-06 -2.21478e-20)
(-0.000448058 0.00867384 -7.1642e-18)
(0.000150611 5.84075e-05 -6.84272e-19)
(0.00564816 0.000207821 1.4617e-21)
(0.000382586 -2.77256e-05 -5.87119e-20)
(0.000195304 -0.000378694 -1.76602e-19)
(-0.00694479 -0.00295113 -3.08645e-18)
(0.000168431 6.73105e-06 -1.08229e-19)
(-0.00119673 -0.00584235 6.17539e-18)
(0.000220352 -7.57626e-06 -5.90901e-20)
(0.000104234 -2.52829e-05 -9.99444e-20)
(-0.0341362 -0.130498 2.36821e-17)
(9.92534e-05 0.000221761 1.87076e-18)
(-3.84727e-05 0.000184955 -5.00383e-19)
(-0.0160627 0.00060422 -6.81612e-18)
(-7.11476e-05 0.0059873 1.07173e-17)
(0.0319208 0.0188465 3.01721e-19)
(0.0118762 -0.0126844 5.70409e-18)
(5.50666e-05 -0.000113541 -5.52442e-20)
(-0.000324233 0.00478376 -8.46196e-20)
(-0.000568579 0.0191683 -4.39212e-19)
(0.00368265 0.00336555 6.77327e-18)
(-0.00107382 -0.00194543 -1.12645e-19)
(-2.69714e-05 -0.000120519 -3.96687e-19)
(-0.00517662 -0.00530698 -2.89668e-19)
(0.000225725 -9.95527e-06 4.3659e-20)
(-0.000158688 -3.43847e-05 1.04474e-19)
(-0.00145733 -0.0168318 -1.37312e-20)
(0.00212346 -0.0025981 2.17842e-18)
(-0.000355139 0.00068368 -1.61297e-18)
(-0.0874982 -0.0753147 1.16694e-17)
(0.00125542 0.000545958 6.40493e-19)
(0.0552091 0.0187432 -7.12839e-19)
(0.0237219 -0.022931 -4.94696e-18)
(-0.0280849 -0.00382992 -4.17992e-19)
(0.000963108 0.00219366 3.31245e-19)
(-0.00161731 -0.00883364 -1.87413e-18)
(-0.00520746 0.002835 -1.28541e-18)
(-7.73822e-05 -0.000101612 1.02398e-19)
(-0.0125258 0.00646228 2.20381e-19)
(0.00170113 -0.0191173 -3.44566e-21)
(0.000105569 -2.37891e-05 3.40765e-19)
(0.000260448 -1.44154e-05 1.02825e-19)
(0.000264602 1.4534e-06 5.02724e-21)
(0.003551 0.000856264 9.91607e-20)
(0.000265603 3.21616e-06 -1.29338e-18)
(-0.00856888 0.00202552 -6.30857e-18)
(0.000461368 0.000105416 6.72656e-18)
(0.000171155 -2.38188e-05 2.21384e-20)
(-0.00151732 -0.000133643 -5.40889e-18)
(0.000272372 -1.27234e-05 -1.2634e-20)
(-0.012098 0.0227077 -4.12491e-18)
(-0.000326457 -0.000234754 9.01714e-20)
(-0.000133326 -0.000170125 -3.1139e-21)
(-0.0113957 -0.00128909 5.87771e-19)
(0.00151471 -0.00153799 -7.26977e-18)
(0.0217901 0.0207912 -1.89293e-18)
(0.00021286 0.000166537 6.67156e-19)
(0.000157819 0.000404309 1.14229e-20)
(-2.88522e-05 -0.000247957 -2.81166e-20)
(0.000214303 0.000207179 4.40479e-18)
(0.00052984 0.000500256 -9.16469e-19)
(-4.22502e-05 -3.49895e-05 2.3732e-19)
(-0.0147197 0.00138425 2.72276e-18)
(-0.000685567 0.00180134 2.31936e-19)
(-0.026922 -0.208031 2.16636e-18)
(0.0269963 0.0391446 1.68108e-18)
(-0.0133846 0.00404906 -2.65971e-20)
(-0.00997767 9.18948e-05 5.87194e-18)
(0.00021267 0.000254196 1.77098e-18)
(0.00018 -1.31221e-05 5.25572e-20)
(0.000135225 -0.000423049 -1.25596e-20)
(-0.0109824 0.00354546 1.15132e-18)
(0.0731409 0.0998118 -4.70122e-18)
(-0.000213533 0.000977748 -2.08208e-18)
(-0.0130549 0.00171421 7.97104e-18)
(0.0363314 0.0481453 -5.32668e-19)
(0.000100367 -3.0727e-05 -1.94658e-19)
(-8.94739e-05 -0.000191883 -1.44933e-20)
(0.000167722 -4.37802e-05 4.99465e-19)
(-0.00476434 0.00658901 1.17878e-18)
(0.0367988 0.000495563 -2.29086e-19)
(0.00133371 0.000774052 1.60155e-18)
(0.000202425 0.000207371 -2.33723e-18)
(0.000270305 0.000329489 6.72748e-19)
(0.00121169 0.000953872 -1.05771e-17)
(0.00179042 -6.53889e-05 2.89179e-19)
(-5.3445e-05 -0.00649365 -1.50795e-18)
(0.000464545 0.000107008 -1.2432e-17)
(-4.35516e-05 0.000247072 -1.95391e-19)
(1.41905e-05 0.000339317 -1.99316e-18)
(0.00017471 -1.32526e-05 2.07937e-19)
(0.000506279 0.000525335 4.37126e-19)
(0.00373665 0.00057114 5.09217e-20)
(0.0027443 0.000595677 8.54576e-18)
(-0.000508752 -5.83778e-05 -1.20601e-18)
(0.00216878 -0.00375896 2.52221e-19)
(-0.0139054 0.00146483 1.91193e-18)
(-0.000252592 -0.000647059 4.55049e-20)
(0.023352 0.0192441 -1.19586e-18)
(-5.36601e-05 -4.43892e-05 -7.61894e-19)
(0.00585204 0.00223876 1.8732e-19)
(8.173e-05 0.000820355 1.75826e-18)
(0.00340279 0.00353351 2.50585e-18)
(0.000255563 -8.66205e-06 -1.06055e-20)
(0.000534996 0.000284145 -1.46354e-17)
(-0.0179267 -0.00895921 -2.05627e-19)
(-0.00665747 -0.080561 9.72421e-20)
(0.000177709 0.000147933 -2.02833e-18)
(-0.000538608 2.8143e-05 -1.5086e-18)
(0.000269889 1.89998e-06 1.65979e-18)
(0.000225072 0.00010147 -9.51997e-19)
(0.000255607 0.000107734 -5.70428e-18)
(-0.00972652 -0.00361085 1.41967e-18)
(-0.00507279 -0.00403461 -4.51189e-20)
(0.0182265 -0.0155682 1.45671e-18)
(-0.000891067 -0.00657154 -1.38885e-18)
(6.68767e-05 -0.000120413 8.01611e-20)
(0.00354032 0.000453103 1.97381e-18)
(0.000367682 0.000175866 2.87404e-18)
(0.000394656 0.000248547 6.59343e-18)
(-0.00102826 -0.00807805 -1.88877e-18)
(-0.000355738 0.000229084 5.33216e-19)
(0.000472109 0.000371415 1.84426e-17)
(-0.00353656 0.0553754 -2.73521e-18)
(0.000277676 -5.13762e-05 7.55812e-20)
(0.00129257 -0.00146251 1.05802e-17)
(0.00997815 0.00217058 4.58865e-19)
(0.000468577 0.000113692 -1.85625e-18)
(-7.22001e-05 -6.00144e-05 -5.09202e-21)
(2.48373e-05 -9.09115e-05 8.85113e-20)
(-0.000163344 -4.32414e-05 3.80092e-20)
(-0.00484738 0.00173632 -8.73528e-18)
(3.39878e-05 0.000317804 -3.24551e-18)
(-0.000465041 -0.000398783 2.65167e-19)
(0.000469733 9.9484e-05 3.00827e-18)
(-5.10914e-05 -3.21546e-05 -6.22388e-19)
(-3.16298e-05 -0.000113748 5.23796e-21)
(0.00548117 -0.00784423 -6.73329e-18)
(-0.037125 0.0519196 -6.50404e-18)
(-0.0131878 -0.0127748 1.01451e-18)
(0.00102682 0.0849276 8.10323e-18)
(-0.010886 -0.003883 2.65659e-19)
(-0.0048866 -0.0038547 -2.73329e-18)
(0.000260378 0.000100661 -7.07299e-18)
(0.00046342 -0.00270665 -9.99929e-20)
(-0.0125035 -0.00507366 9.5589e-18)
(-0.00103644 -0.00236779 -3.10296e-19)