/*--------------------------------*- C++ -*----------------------------------*\
| =========                 |                                                 |
| \\      /  F ield         | OpenFOAM: The Open Source CFD Toolbox           |
|  \\    /   O peration     | Version:  v2012                                 |
|   \\  /    A nd           | Website:  www.openfoam.com                      |
|    \\/     M anipulation  |                                                 |
\*---------------------------------------------------------------------------*/
FoamFile
{
    version     2.0;
    format      ascii;
    class       surfaceVectorField;
    location    "950";
    object      ddtCorrDdt0(Uf);
}
// * * * * * * * * * * * * * * * * * * * * * * * * * * * * * * * * * * * * * //

dimensions      [0 1 -2 0 0 0 0];


internalField   nonuniform List<vector> 
20642
(
(0.00241213 0.00339857 -1.13207e-19)
(0.00370902 0.00412793 -1.23572e-19)
(0.00149885 0.00468143 5.10456e-19)
(0.00940434 0.00424234 5.95122e-20)
(0.0106575 0.00385164 -1.17584e-19)
(0.00936744 0.00269046 -2.43236e-20)
(-0.00600302 0.00493604 -9.88652e-19)
(-0.00647794 0.00429766 -1.15645e-19)
(-0.00692227 0.00512257 -2.09037e-18)
(1.21962e-06 0.000285517 6.43164e-19)
(-6.34432e-06 0.000300207 8.16439e-19)
(-1.00549e-05 0.000288117 3.77469e-19)
(0.00460452 -0.0045541 2.18165e-19)
(0.00504042 -0.00576609 3.19504e-19)
(0.00357832 -0.00542061 1.76222e-19)
(0.00790655 0.00458958 3.41663e-19)
(0.00880872 0.00607017 -9.28552e-20)
(0.000357697 0.000476512 -2.61202e-18)
(0.000332149 0.000490972 3.98963e-18)
(0.000354521 0.000514369 -2.50461e-18)
(0.02652 -0.0171158 -7.18748e-20)
(0.0307736 -0.0172325 -5.40004e-19)
(0.027112 -0.0217613 -2.5745e-21)
(0.000288912 0.000163274 -2.36416e-18)
(0.000290418 0.000170929 3.21556e-18)
(0.000298088 0.00016451 -2.734e-18)
(-0.00471711 0.000443335 3.35927e-19)
(-0.0109197 0.00263053 -2.85004e-18)
(0.0220831 -0.017643 -1.37511e-20)
(0.0253257 -0.0131924 -4.0413e-19)
(-0.000110713 0.000226422 5.00134e-19)
(-0.000114777 0.000232701 1.64366e-19)
(-0.000105307 0.000233029 1.50192e-18)
(-2.59892e-05 3.73229e-06 -1.14155e-18)
(-2.2497e-05 3.24293e-06 -7.98137e-19)
(-0.125793 -0.131707 -2.30875e-18)
(-0.125396 -0.131871 -4.20856e-19)
(-0.12859 -0.126101 -2.07677e-18)
(-0.000711507 0.00393603 1.84323e-20)
(-0.000408474 0.00444311 -6.35445e-20)
(-5.50765e-05 0.00382546 -1.45565e-19)
(0.00178322 0.002879 -1.91433e-18)
(0.00436246 0.00240166 7.38511e-18)
(0.000132505 -4.85801e-06 9.58691e-21)
(0.000129631 -5.37548e-06 -6.3056e-20)
(9.50943e-05 -2.40435e-06 -1.51031e-19)
(0.018542 -0.0179118 6.80886e-20)
(0.0145656 -0.0174547 -3.42476e-19)
(0.0173098 -0.0146093 4.74757e-19)
(-0.00296625 -0.00134761 1.28671e-18)
(-0.00337078 -0.00123163 -3.68165e-18)
(-0.00326406 -0.00169087 3.94797e-18)
(0.0248717 0.017777 -3.01307e-18)
(0.015067 0.0198965 -3.23025e-19)
(0.0129277 0.0157341 -1.50247e-18)
(-0.0028695 -0.00216837 2.0298e-19)
(-0.00338748 -0.00230407 3.84873e-20)
(-0.00296193 -0.00271147 -1.39796e-19)
(-0.000342786 -0.000118848 2.04151e-20)
(-0.000361149 -8.75324e-05 -1.88312e-20)
(-0.000375681 -0.000135197 3.59895e-20)
(0.000870473 -0.000210328 -1.12372e-18)
(0.000797566 -0.000183765 2.72635e-18)
(0.000817819 -0.000288627 4.36144e-19)
(-0.000314319 -0.000150398 -1.20435e-20)
(-0.000322619 -0.000106647 -1.41857e-21)
(-0.000202808 0.000448167 3.151e-18)
(-0.000204314 0.000473915 2.98852e-18)
(-0.000226573 0.000454499 -2.94743e-18)
(-0.00297978 -0.00473198 -2.53258e-20)
(-0.00299496 -0.00402239 -1.02582e-19)
(-0.00225611 -0.00434741 -1.48205e-19)
(0.0851833 0.0728998 3.54145e-18)
(0.0738149 0.0724469 2.11686e-18)
(0.0723769 0.0721184 8.52295e-19)
(-0.000704544 -0.00319416 9.76089e-19)
(0.00278737 -0.0127336 -7.06331e-20)
(0.00112481 -0.011623 1.40822e-19)
(0.00319501 -0.0108522 -3.3324e-20)
(0.000194616 0.0001597 1.57959e-20)
(0.000217382 0.000158595 1.44423e-20)
(0.000203987 0.000182103 5.17744e-22)
(0.00200847 -0.00188478 1.07362e-18)
(0.00243868 -0.00538219 -7.2718e-18)
(-5.13938e-05 0.000208912 -2.95065e-18)
(-5.40483e-05 0.000297223 1.00921e-18)
(-0.00013674 0.000216147 4.24678e-18)
(-0.000111822 0.000332577 8.46536e-19)
(-0.000111147 0.000321821 -1.61962e-18)
(-0.000100609 0.000326168 -7.23421e-19)
(-0.00272354 0.00456141 -6.97329e-19)
(-0.0023713 0.00503109 -2.19442e-19)
(-0.00279276 0.00480877 -4.98886e-19)
(0.000100142 -0.000135803 -4.49184e-20)
(5.58912e-05 -9.76579e-05 -4.78663e-20)
(0.000122678 -5.46242e-05 6.00577e-20)
(0.0346017 -0.0137684 -9.50071e-20)
(0.0371693 -0.0186526 7.24871e-20)
(-2.842e-05 -9.7213e-05 2.67184e-19)
(-8.82544e-05 -0.000123191 -4.38884e-19)
(-1.73067e-05 -0.000176124 -9.14492e-19)
(-9.12693e-05 -2.04157e-06 1.91691e-20)
(-0.000126595 -4.58611e-06 -7.06573e-20)
(-8.75802e-05 -1.87865e-06 -2.13191e-19)
(0.000381502 0.000464813 9.98152e-19)
(0.000358185 0.000445376 3.21945e-18)
(-0.00347095 0.0031231 2.34176e-20)
(-0.00355196 0.00363153 9.02934e-19)
(-0.00298329 0.00339115 9.19987e-19)
(9.71741e-05 -2.89429e-06 3.59101e-20)
(7.94547e-05 -1.51999e-06 2.33786e-20)
(0.00014714 2.8545e-06 5.86874e-20)
(0.000155488 0.000383852 -2.1135e-20)
(0.00019133 0.000560016 5.83093e-20)
(0.000342107 0.00040807 1.23129e-19)
(0.00023655 0.000165264 -2.93213e-18)
(0.000232009 0.000174953 -3.0797e-18)
(0.000226912 0.000163644 2.11378e-20)
(-0.00223866 0.000571665 1.00486e-18)
(-0.00204772 0.000765176 1.92035e-18)
(-0.00236842 0.000822215 2.54345e-18)
(-0.00206034 0.000291695 -1.82092e-18)
(-0.0024099 0.000257801 1.35557e-20)
(0.0221442 -0.0199255 2.46921e-19)
(0.0194378 -0.0185677 -4.4973e-19)
(0.0204274 -0.0228126 1.26925e-19)
(-0.00236413 -0.00194849 -2.2473e-19)
(-0.00271264 -0.00162921 4.18171e-19)
(-0.0615567 0.0695478 1.13798e-18)
(-0.0321179 0.0613855 1.71827e-18)
(-0.0465067 0.0598354 7.70116e-18)
(0.0702614 0.0617371 2.63238e-18)
(0.0693082 0.0541788 -4.10124e-18)
(0.0667286 0.0599622 -9.29127e-20)
(8.66551e-05 -0.000191204 -1.45527e-20)
(0.000152827 -0.000165006 6.31519e-20)
(-0.000115896 0.000220296 -6.30618e-19)
(-0.000107538 0.000220977 6.70793e-19)
(0.00639273 -0.00865352 1.5569e-18)
(0.00744138 -0.00945058 -3.84666e-18)
(0.00761341 -0.00803292 8.36181e-19)
(-0.00824019 0.00104928 1.75499e-18)
(-0.0103784 0.00138042 7.26791e-19)
(-0.00861582 0.00104424 -3.29048e-18)
(-0.000204478 0.000169701 -3.59674e-19)
(-0.000204296 0.000161686 -6.69612e-19)
(-0.000212959 0.000170501 -8.60699e-19)
(-0.000187368 0.000175142 -2.06984e-18)
(-0.000189507 0.000169629 -2.36548e-19)
(-0.000182998 0.000169272 -5.85305e-19)
(0.0057614 -0.00805041 -6.84253e-19)
(0.00542518 -0.00926238 4.1457e-19)
(0.0113405 0.00223761 -5.27774e-18)
(0.000956024 -0.000221682 -9.61226e-19)
(0.000907087 -0.00011795 4.06185e-18)
(0.000116618 0.000223852 -9.02912e-20)
(6.13675e-06 0.000294752 -9.2854e-20)
(0.0256828 -0.0211041 2.2247e-19)
(0.0243514 -0.0167973 -1.09055e-18)
(-0.0317257 -0.121693 4.5928e-18)
(-0.0388048 -0.131906 1.98607e-19)
(-0.0647882 -0.143824 -1.52838e-17)
(0.00393277 0.00832984 -2.18684e-20)
(0.00546505 0.00744716 -1.57575e-19)
(0.00390721 0.00617874 3.3354e-19)
(7.86209e-05 7.91811e-06 2.15143e-21)
(8.75618e-05 9.93625e-06 -1.38504e-20)
(9.22694e-05 1.46363e-05 -2.161e-22)
(-0.000177464 0.000440744 -1.00777e-18)
(-0.000196601 0.00042678 3.1041e-19)
(0.000542665 0.0043201 -2.67356e-19)
(-0.000258137 0.00438188 3.16371e-18)
(-0.000181707 0.00522326 -3.73677e-18)
(-0.00865094 -0.0138951 -1.09684e-19)
(-0.00578431 -0.011938 5.47133e-20)
(-0.00887737 -0.0104597 1.61841e-19)
(0.00441522 -0.0138686 -1.81464e-20)
(0.00654716 -0.0149665 4.21824e-20)
(0.00663002 -0.0126068 -8.46066e-20)
(0.0327885 -0.00863818 3.98328e-19)
(0.0382863 -0.00989437 1.20427e-18)
(0.0191568 -0.0215797 -5.33745e-19)
(-0.00570963 0.00228612 4.13996e-18)
(-0.00523726 0.00187299 -6.53134e-19)
(-0.00583839 0.00182445 5.85489e-19)
(0.000115436 0.00330139 1.66588e-18)
(-0.000910055 0.00238204 7.06653e-19)
(0.000678739 0.00341242 -1.05486e-17)
(-0.00258568 0.00432 7.26113e-20)
(-0.00306222 0.00412929 4.64604e-18)
(3.16659e-05 0.000120708 1.16636e-18)
(3.45026e-05 0.000124329 5.56308e-20)
(2.79608e-05 0.000129762 3.12393e-18)
(0.000106426 0.00012048 2.49481e-20)
(0.000219645 0.000144823 1.31703e-19)
(-0.0040414 -0.00237888 1.7354e-19)
(-0.00380921 -0.0018463 -1.15923e-19)
(-0.000382787 0.00033267 9.18853e-19)
(-0.000407414 0.000366096 1.29474e-18)
(-0.000412908 0.000310929 5.0423e-19)
(0.000428749 -0.00218267 -1.79021e-20)
(0.000331332 -0.00253927 -4.59133e-20)
(-3.53846e-05 -0.00217475 -2.22686e-20)
(0.000101457 3.10873e-05 -1.28754e-20)
(2.22664e-05 5.39459e-05 -6.46315e-20)
(-0.0003507 0.000353435 1.00215e-18)
(-0.000352397 0.000311452 -1.37827e-18)
(-0.000120487 0.000336816 -3.98623e-19)
(-0.000111322 0.000342072 -5.73655e-19)
(-0.000410937 0.000412199 6.60217e-21)
(-0.000453127 0.000396077 -1.82531e-19)
(-0.000409783 0.000362077 1.62361e-19)
(9.83637e-05 -8.33148e-06 -2.81318e-20)
(0.000103989 -7.87174e-06 3.23527e-20)
(7.30801e-05 -3.95016e-06 -2.78708e-20)
(3.50844e-05 0.000111776 1.12215e-18)
(2.85412e-05 0.000116764 -1.21438e-18)
(0.001582 0.0111181 -3.80403e-18)
(0.00038266 0.0109043 -4.29764e-19)
(0.00026551 0.0120471 1.48811e-18)
(-0.000116691 2.0221e-05 6.4206e-19)
(-0.000117298 2.29811e-05 -7.51905e-19)
(-0.000120052 2.21777e-05 1.27423e-19)
(-0.00248028 -0.0540736 1.12771e-20)
(-0.0131148 -0.0618589 6.42401e-19)
(-0.000899952 -0.062175 -5.43044e-20)
(3.4942e-05 0.000205523 -1.66078e-18)
(-3.34373e-05 0.000143069 -4.60765e-18)
(-0.000118053 1.10399e-05 -2.16995e-19)
(-0.000120668 1.11126e-05 -3.24876e-20)
(-0.000119515 8.11169e-06 -2.53789e-19)
(-0.00326993 0.00259262 -1.20719e-18)
(-0.00383888 0.00269251 -1.71303e-18)
(0.000132365 -4.09887e-06 4.49172e-20)
(0.000150408 -7.85509e-06 -2.41183e-20)
(0.000182356 -1.4141e-05 -9.86633e-20)
(0.000184504 -1.28629e-05 7.94821e-20)
(0.000188706 -1.66299e-05 2.09983e-21)
(0.000246738 0.000168795 -1.60716e-19)
(0.0756626 0.0638544 1.08498e-18)
(0.0937705 0.0529251 -2.26641e-18)
(-0.000132736 -0.000124574 -5.4206e-20)
(-0.000164885 -0.000114796 6.60994e-20)
(-0.000143875 -0.000137861 6.80464e-21)
(-0.000161784 0.000232935 -8.5438e-20)
(-0.000175833 0.000245268 -5.3515e-20)
(-0.000156896 0.000252525 2.31686e-19)
(0.00197323 -0.014993 8.31669e-20)
(0.0184252 0.0575027 9.3198e-19)
(0.00161786 0.05559 9.66315e-20)
(-0.00291016 0.0491305 1.16302e-18)
(-3.45282e-06 -9.07846e-06 1.6693e-20)
(-7.99077e-06 -8.9983e-06 -3.0368e-19)
(-8.74078e-06 -4.60845e-06 -5.46274e-22)
(-0.000116239 1.30803e-05 -9.05052e-19)
(-0.000116312 1.05539e-05 2.26259e-19)
(-0.023964 0.0357401 -7.81655e-19)
(-0.0241014 0.0288437 -5.04087e-19)
(-0.0293218 0.0311171 4.11355e-19)
(0.000146743 6.28309e-06 -9.57432e-20)
(0.000149654 5.15887e-06 7.74708e-20)
(0.000107335 3.12264e-06 1.99072e-20)
(0.000146501 6.72581e-06 -2.97861e-20)
(0.000168783 7.35832e-06 2.1842e-21)
(-0.00040176 0.000453581 2.60636e-20)
(-0.000367959 0.000409937 5.55756e-20)
(-2.62371e-05 -1.9556e-05 -1.92877e-19)
(-3.18165e-05 -1.91614e-05 -6.21664e-20)
(-2.94459e-05 -1.37101e-05 3.58205e-20)
(0.000482526 -0.0017089 -6.13693e-20)
(0.000852613 -0.00195182 2.54108e-20)
(-0.00472636 0.00157242 5.63111e-19)
(-0.00513336 0.0029929 -2.46192e-19)
(-0.00580366 0.00211763 -7.89306e-18)
(-0.016553 0.0306411 -8.56383e-19)
(-0.0123662 0.0305557 1.88491e-18)
(-0.0144139 0.0354128 -4.24349e-18)
(0.0017543 0.00864445 2.63768e-19)
(0.00303081 0.0103922 -1.20943e-19)
(1.57099e-05 0.000708886 -1.44671e-19)
(0.000265963 0.00080711 -1.2674e-19)
(0.0849492 0.0809676 -1.25521e-18)
(0.0915414 0.075018 3.21711e-18)
(-8.24631e-06 6.69119e-06 -9.38565e-19)
(-7.45864e-06 8.21656e-06 1.84211e-18)
(-0.00198738 0.00557053 4.93481e-18)
(-0.00197014 0.00543909 4.59044e-18)
(-1.14827e-05 -0.0104643 -1.879e-20)
(-0.000912039 -0.0121692 8.68724e-21)
(0.00100909 0.00479413 1.32638e-18)
(0.00084135 0.00399902 -1.90729e-18)
(-0.000500002 0.000215568 1.32415e-18)
(-0.000538836 0.000257973 3.54334e-19)
(-0.000471211 0.000260251 -8.33333e-19)
(-0.0025534 -0.00150477 1.02031e-18)
(-0.00264429 -0.00110402 -7.18579e-19)
(0.000222069 -1.32138e-06 3.05962e-20)
(0.000233277 -5.60989e-07 5.85343e-20)
(0.000225936 -1.69717e-06 2.79636e-20)
(-0.00599569 0.0022523 -4.93853e-18)
(-0.00571903 0.00287501 -1.71697e-18)
(-0.00538607 0.00221607 -3.40928e-18)
(4.22211e-05 7.21466e-05 9.14276e-19)
(4.09231e-05 7.70089e-05 3.31554e-18)
(3.79613e-05 7.25137e-05 7.61915e-20)
(0.000110184 -1.30384e-05 5.4265e-20)
(9.01665e-05 -7.90084e-06 -4.95282e-20)
(0.000208289 -5.21009e-05 -2.26817e-19)
(0.000239507 -9.45512e-05 -5.00579e-20)
(0.000190856 -9.07359e-05 -6.7065e-20)
(0.00878109 -0.0158471 2.55836e-19)
(0.0061154 -0.017705 -8.2153e-20)
(-0.000230689 -0.00411839 -1.83739e-18)
(0.00016958 -0.00440724 -2.69106e-18)
(0.000159216 -0.00381725 3.77518e-18)
(-0.0123432 0.00172315 -7.27071e-19)
(-0.0121609 0.00208788 2.07076e-18)
(-0.0118737 0.00175154 6.68049e-19)
(0.00215404 0.0104942 -3.15593e-18)
(0.00180864 0.0112155 2.15565e-18)
(-0.000159773 0.000434688 -1.08948e-18)
(-0.00014051 0.000424234 1.23804e-18)
(-0.000158049 0.000414954 3.99208e-19)
(-0.00426275 -0.00305671 2.88705e-19)
(-0.00473578 -0.00244216 -1.56133e-19)
(-0.000304874 -0.000141762 -1.94468e-21)
(-0.000287539 -0.000157193 -6.13839e-21)
(-0.00028346 -0.000131558 2.24486e-20)
(-0.000477627 -0.0037554 -5.7413e-18)
(-0.000654479 -0.00429759 2.16661e-18)
(0.000441092 0.000148711 3.3932e-18)
(0.000451944 0.000147919 2.44512e-18)
(0.000443307 0.000138918 -5.12662e-18)
(0.030196 0.0176439 -4.18673e-19)
(0.0279997 0.015248 2.65928e-19)
(0.0317979 0.014875 -7.88941e-19)
(-0.0108573 0.00476963 4.25049e-18)
(-0.011649 0.00442253 -1.0897e-18)
(-0.0114906 0.00525243 -2.32938e-18)
(-0.000532222 0.00016965 3.66362e-19)
(-0.000466274 0.000175344 -4.64278e-19)
(-0.000428364 0.00042003 -2.22592e-18)
(-0.000572902 0.000381568 7.00634e-18)
(-0.000518028 0.000555273 -5.441e-18)
(0.0762762 0.0919054 -9.47877e-19)
(0.0734263 0.0851127 -1.0748e-18)
(-0.00709689 -0.102196 -3.01345e-18)
(0.00313775 -0.0988286 -2.88373e-18)
(0.0192834 -0.0811759 -1.46549e-18)
(-0.0160632 0.00088946 -3.58654e-19)
(-0.0161406 0.000817312 2.53313e-18)
(-0.0160289 0.000923747 1.83402e-18)
(-0.00258853 -0.00648815 -2.88598e-20)
(-0.00290659 -0.0055427 -4.08986e-20)
(-0.00179813 -0.00591582 -3.1522e-20)
(-8.90232e-05 -2.53339e-06 2.86824e-19)
(-0.0477997 -0.114974 4.86099e-19)
(-0.0756175 -0.11826 7.13444e-19)
(-0.0475954 -0.0836003 3.94812e-19)
(0.000172373 -9.03805e-06 -2.07834e-19)
(0.000113511 -3.11923e-05 3.27095e-20)
(-0.00503509 0.000394289 2.92334e-18)
(-0.00212276 0.00122393 5.21121e-18)
(-0.000247491 2.9118e-05 -2.00389e-19)
(-0.000243541 2.21146e-05 1.87742e-19)
(-0.000249382 1.83601e-05 2.16976e-20)
(1.5877e-05 0.000121543 -8.77534e-19)
(1.84083e-05 0.000126074 3.69834e-19)
(1.23055e-05 0.000131663 -3.72385e-18)
(-0.00173496 0.00311181 -4.64807e-20)
(-0.00234918 0.00220534 3.00898e-19)
(-0.00149316 0.00224127 4.25677e-20)
(-0.000432334 0.00362039 -5.69959e-19)
(0.000970031 0.00414902 7.22652e-19)
(-0.00482363 0.00288588 -1.35612e-18)
(-0.0167024 0.0595751 -5.51916e-18)
(0.00293841 0.0557911 -1.64957e-18)
(-0.0278175 0.0676805 -5.16845e-19)
(-0.000196243 0.000169827 7.48321e-19)
(-0.000203108 0.000178135 1.72088e-19)
(-0.00306949 0.00222245 -1.24309e-19)
(-0.00289555 0.00187155 -2.92494e-19)
(-0.00332236 0.00182299 -2.54188e-19)
(0.000130196 5.71984e-06 -7.9423e-21)
(0.000139604 6.84292e-06 -1.01864e-19)
(0.000156348 1.13168e-05 2.30155e-20)
(1.3414e-05 0.000117612 -4.75408e-19)
(1.88734e-05 0.000112109 5.71488e-19)
(0.0373934 0.0678483 6.21708e-20)
(0.0201507 0.0674618 2.07235e-18)
(0.000174458 -3.54949e-05 3.90687e-20)
(0.000286109 -5.81713e-05 2.4086e-20)
(0.000252986 6.61847e-05 -6.78404e-20)
(-2.10652e-05 -2.0151e-05 1.17899e-19)
(-2.3622e-05 -2.46989e-05 7.79771e-20)
(-0.0118179 0.00287275 1.0566e-18)
(-0.0118642 0.00213522 -1.4928e-18)
(-0.012502 0.00273219 -2.3012e-18)
(0.000184799 1.09636e-06 -3.21464e-20)
(0.000184538 1.20605e-06 2.30818e-20)
(0.000132359 2.61419e-07 4.76171e-20)
(0.000215626 -8.12899e-07 2.25583e-20)
(0.000199366 -1.86202e-06 -2.66152e-20)
(-0.000162034 5.47045e-05 1.6319e-19)
(-0.000165315 5.82943e-05 -7.80703e-19)
(-0.000167924 5.62699e-05 6.59185e-19)
(-0.0280625 0.000454578 -3.36327e-19)
(-0.0252661 0.0022773 -6.6025e-18)
(-0.0295082 0.00326347 3.0825e-18)
(0.00108962 -0.000306556 1.89307e-19)
(0.000836909 -0.000346441 5.79492e-20)
(0.000948143 -0.000118063 8.54356e-21)
(-0.0467957 -0.14697 -2.16264e-19)
(-0.0655843 -0.0379521 3.27024e-19)
(-0.0663737 -0.0255175 -5.84809e-18)
(-0.0564287 -0.0318965 8.74058e-18)
(-0.0368523 0.049958 1.32996e-18)
(-0.0277039 0.0453017 1.27929e-18)
(-0.0361911 0.0414654 -1.23952e-18)
(-0.00782953 0.0010316 2.25014e-18)
(-0.0985991 -0.00810194 8.26902e-18)
(-0.0973078 -0.019955 1.6488e-17)
(-0.101809 -0.0262948 4.19992e-18)
(8.06774e-05 7.75661e-05 1.94768e-21)
(8.16242e-05 8.63162e-05 -8.49849e-21)
(7.24046e-05 8.26355e-05 4.28107e-22)
(-0.00217042 -0.00755427 -2.26654e-20)
(-0.003474 -0.00718933 5.33658e-21)
(-0.000297417 -0.000182117 -5.81879e-20)
(-0.000274837 -0.000218722 -2.00693e-20)
(-0.00033526 -0.000211999 2.56886e-20)
(-0.00815121 0.0091695 -4.11778e-18)
(-0.00876776 0.00899807 8.58087e-19)
(-0.00886045 0.00836912 -4.91046e-18)
(0.00028176 0.000158553 1.01022e-18)
(0.0179307 -0.0843762 -4.77567e-18)
(-0.00532464 -0.106138 1.90927e-17)
(0.0228106 -0.0866927 9.07048e-18)
(0.00709678 0.00126564 4.49752e-19)
(0.00659786 0.00102961 -8.26066e-19)
(0.00714856 0.000498765 3.35418e-18)
(0.000169716 2.73823e-06 -1.00613e-19)
(0.000198236 4.051e-06 4.09918e-20)
(0.00016535 2.53794e-06 3.54915e-20)
(1.14046e-05 0.000284918 -2.98534e-18)
(8.15424e-06 0.000273724 -3.19785e-19)
(0.00841603 -0.0104282 -7.88915e-18)
(0.00969161 -0.0115642 -8.43834e-18)
(0.009874 -0.00979364 -4.89723e-18)
(0.000430609 0.000148769 -5.0568e-18)
(0.000438162 0.000160231 -1.87267e-19)
(0.0011858 -0.000567967 -1.22519e-19)
(0.0013338 -0.000254495 1.25171e-21)
(0.00022854 0.000183661 1.93084e-18)
(0.000218975 0.000183003 1.80368e-18)
(0.000223815 0.000195054 4.87533e-18)
(-0.000272253 -0.000163047 3.68332e-20)
(-0.000119901 0.000214232 -4.81864e-19)
(-0.000123245 0.000219259 2.50823e-19)
(-0.00184263 -0.0153537 -3.92064e-18)
(-0.00222684 -0.0139831 -1.49372e-18)
(-0.00295592 -0.015155 -1.10508e-18)
(-0.00627352 0.00171122 4.06449e-18)
(-0.00680658 0.0023486 5.63194e-19)
(0.0287665 0.0207573 -2.0883e-19)
(0.0339609 0.0207906 -4.26868e-19)
(-0.000117481 0.000208197 3.02148e-19)
(-0.00012485 0.000207278 -9.43418e-20)
(-0.00157943 -0.0173972 -1.06011e-18)
(-6.89526e-05 -0.0158542 -6.57162e-19)
(0.000172691 0.000139791 -1.49065e-20)
(0.000178535 0.000165548 2.06514e-20)
(0.00211144 -0.0473385 -7.85243e-20)
(-0.00838161 -0.0466282 3.40989e-19)
(0.0070554 0.00210367 -4.63835e-20)
(0.00795342 0.00170956 1.84856e-18)
(-0.00187758 9.22672e-05 4.56927e-18)
(-0.00172171 0.000315052 -4.44911e-19)
(-0.00147714 -0.0103834 -3.74513e-18)
(-0.00134353 -0.00940681 -2.33215e-18)
(-0.000483605 -0.00997487 1.1237e-18)
(0.00473687 0.00497133 3.47249e-18)
(0.00382697 0.00662404 2.98072e-18)
(0.00655977 0.00608886 -4.42667e-18)
(-0.000121044 -0.000108871 -5.33094e-20)
(-0.000116871 -0.000132088 -3.24576e-20)
(-0.0108742 0.00182 3.69127e-18)
(-0.0111759 0.00222383 -1.27104e-18)
(-0.0114025 0.00180283 -1.53608e-18)
(-0.000231443 0.000902366 -1.93459e-20)
(-0.000279643 0.000942856 -1.07569e-18)
(-0.000283166 0.000877641 2.889e-19)
(-0.00995112 0.00515537 3.89986e-18)
(-0.0100242 0.00409402 7.05265e-19)
(1.83886e-05 -6.84883e-05 1.12059e-19)
(1.36949e-06 -0.000123063 9.98922e-20)
(6.96262e-05 -1.34034e-05 7.20251e-20)
(9.03744e-05 -9.78823e-05 6.12356e-20)
(-0.00190084 -0.00136861 -1.35501e-19)
(-0.00209432 -0.00106666 3.29843e-19)
(-0.00178105 -0.00104456 -1.86608e-19)
(-0.00403591 0.00195013 2.08596e-18)
(-0.00468818 0.00190369 -2.93592e-18)
(-0.00454637 0.00234695 9.773e-20)
(-0.0159604 0.000929282 1.56104e-18)
(-0.0158697 0.000800887 9.59272e-20)
(9.72681e-05 0.000143802 1.09864e-19)
(0.000138594 0.00010063 -1.22696e-21)
(0.000155082 0.000177652 -2.33153e-19)
(0.0703373 0.0661904 -5.43084e-18)
(0.0494693 0.0680775 4.19919e-18)
(0.0703781 0.0645311 3.27746e-19)
(0.00373489 -0.00477071 -1.06474e-20)
(0.00445231 -0.0040454 1.08316e-19)
(0.00350337 -0.00383542 -7.51971e-20)
(-0.00276091 0.00251547 -1.07729e-18)
(0.000241014 5.45905e-06 -8.37105e-20)
(0.00707982 -0.0109772 3.8037e-18)
(-0.000491642 0.000371856 -3.69267e-19)
(-0.000508504 0.000423711 6.29195e-20)
(-0.000176001 -0.000101257 -4.43655e-20)
(-0.000169336 -9.60321e-05 1.72134e-20)
(-0.000167856 -0.000108264 -6.62542e-21)
(0.0125438 -0.00822583 -2.62143e-20)
(0.0115099 -0.00622362 -5.72918e-19)
(0.00968679 -0.00803731 -2.3134e-19)
(0.0148082 -0.00862255 -6.08253e-20)
(0.0125903 -0.0112626 -2.87541e-19)
(-0.0169884 0.0463178 -5.34434e-18)
(-0.000332419 0.000341422 -3.74144e-18)
(-0.000316266 0.000449296 -4.64611e-18)
(-0.00377405 -0.00511069 9.15841e-21)
(-0.0113195 0.0128638 5.99184e-18)
(-0.013557 0.0133241 -1.98969e-20)
(-0.0113562 0.0109613 -1.09886e-18)
(-0.000155371 -3.22901e-06 -4.29896e-19)
(-0.000150326 -3.67055e-06 1.00759e-20)
(-0.000155212 -8.85222e-07 -2.09243e-19)
(0.000256785 -0.00011616 -3.92577e-20)
(0.000255147 -0.00012044 -2.16361e-20)
(0.000247018 -0.000111691 -6.81977e-20)
(0.000266585 -0.000120366 2.42925e-20)
(0.000257085 -0.000111754 -4.63009e-20)
(-0.0940061 0.0078122 -2.31816e-18)
(-0.00188729 -0.0130104 4.40179e-18)
(-0.00149139 -0.0114759 7.94138e-19)
(-0.000421834 -0.0125826 1.84451e-18)
(-0.00146946 -0.0193274 -2.98218e-18)
(-0.00105907 -0.021691 -2.08046e-18)
(0.000804987 -0.0199922 -8.53991e-19)
(-3.24863e-05 3.62454e-05 -3.80197e-19)
(-3.2042e-05 4.08838e-05 1.8658e-18)
(-2.7982e-05 3.51083e-05 2.69689e-18)
(6.97786e-05 6.90918e-06 2.3135e-21)
(5.38445e-05 3.23508e-06 -6.71883e-21)
(0.0767194 0.095827 -3.85512e-18)
(0.0676934 0.102386 1.13755e-19)
(-0.0103366 0.0018591 -2.43427e-19)
(0.000229225 -9.414e-05 -1.94981e-19)
(0.000235279 -9.80881e-05 4.63703e-20)
(0.000228246 -9.71827e-05 -6.27655e-21)
(0.000222161 -8.91968e-05 -7.05024e-20)
(0.000229444 -9.11406e-05 7.04027e-20)
(0.000137443 -3.90373e-06 -7.43599e-21)
(6.79638e-05 -2.08722e-06 -2.0208e-20)
(0.000277158 -0.000123818 -1.72782e-19)
(0.000277086 -0.000129355 1.2108e-19)
(0.00028788 -0.00012636 -2.48022e-19)
(0.000277025 -0.000118477 -3.98989e-20)
(-0.00254963 0.00382282 2.44812e-18)
(-0.00224616 0.00429667 -1.46789e-18)
(-0.0198443 0.0384911 -1.70785e-18)
(-0.028633 0.0363954 1.00789e-18)
(-0.0313672 0.0284489 -4.58173e-18)
(-0.000549339 0.000118213 -1.51344e-19)
(-0.000513745 0.00010211 1.74153e-19)
(-0.000517647 0.000135419 -1.56488e-19)
(9.4791e-05 0.000135005 6.21689e-22)
(9.99917e-05 0.000142845 5.7306e-21)
(0.000105093 0.000132343 -1.96177e-20)
(0.00389696 -0.00295598 4.35652e-19)
(0.00442727 -0.00268578 -3.50272e-18)
(0.00395984 -0.00243388 -1.07752e-18)
(-0.00534138 0.00340334 -1.67427e-18)
(-0.00517237 0.00305658 -2.12013e-18)
(-0.00483509 0.00348914 8.76206e-19)
(0.000195469 -3.32808e-06 5.41862e-20)
(0.000166065 -1.32897e-06 3.56712e-20)
(0.000167814 -1.35644e-06 -7.66682e-21)
(-3.72208e-05 3.7263e-05 -2.12838e-18)
(-3.32491e-05 3.21664e-05 -1.01217e-18)
(0.073326 0.0695165 -2.48372e-18)
(0.0897249 0.0648858 -6.47035e-18)
(-0.00505923 -0.000702848 -4.71479e-18)
(-0.00518257 -0.00167491 -3.3466e-19)
(-0.00255129 -0.00127314 -3.13445e-18)
(-0.00308692 -0.0129385 1.95241e-18)
(-0.00931222 0.0121737 1.13704e-18)
(-0.0105797 0.0145371 1.46258e-18)
(0.0116067 -0.00139771 -1.62938e-18)
(0.0120556 -0.000195973 1.89878e-18)
(0.013 -0.00118341 8.13577e-19)
(-0.000245426 3.684e-05 2.39381e-19)
(-0.000251808 3.42403e-05 -2.41697e-19)
(-0.0868864 -0.0177346 2.30456e-18)
(-0.0931152 -0.0321779 -4.76513e-18)
(0.00342086 -0.00325277 8.52973e-19)
(0.00394844 -0.00357034 -3.50907e-18)
(-0.000922743 -0.00953118 -3.41051e-20)
(0.000711091 -0.00937631 -4.13444e-20)
(-0.000478294 -0.00113241 -3.9414e-18)
(-0.000619589 -0.00126949 -4.23294e-19)
(-0.00068463 -0.00104302 7.48769e-18)
(5.48764e-05 0.000178616 -3.80506e-21)
(4.13835e-05 0.000127895 1.75362e-20)
(-0.011695 0.0393728 1.48232e-18)
(3.97623e-05 8.18192e-05 2.34856e-18)
(3.61614e-05 8.30073e-05 1.80661e-18)
(3.84866e-05 8.79941e-05 -5.0862e-19)
(0.000897724 0.00365584 9.28827e-19)
(0.00104695 0.00388624 6.6164e-19)
(0.0011938 0.00357327 6.62076e-19)
(0.0059109 0.00110492 -1.45081e-18)
(0.00526794 0.00106885 1.32441e-18)
(0.00563877 0.00159522 2.03831e-19)
(-0.000615116 5.86326e-05 7.79342e-20)
(-0.000577278 9.30884e-05 -3.02877e-20)
(-0.000572339 4.41404e-05 2.59543e-19)
(8.06749e-05 4.20338e-07 -3.02887e-20)
(-0.000162313 0.000454416 -2.15274e-18)
(0.00510592 0.000628744 -5.53695e-21)
(0.00415133 0.000705624 8.4243e-20)
(0.00469158 0.00171743 1.2165e-19)
(-0.000421445 -0.000107722 -4.10232e-20)
(-0.000413351 -2.94565e-05 6.95254e-20)
(-0.000517638 -4.56691e-05 -4.91259e-20)
(-0.0116031 0.00288945 2.62193e-18)
(-0.0114109 0.00256004 -3.51933e-19)
(-0.0119073 0.0024803 6.86318e-19)
(-0.0204052 -0.0794253 -6.96892e-19)
(-0.0320488 -0.0824287 7.91708e-19)
(-0.00829018 -0.0544837 7.46642e-19)
(0.000364844 -0.000264927 1.42173e-19)
(0.000321054 -0.000295488 1.367e-19)
(0.000304865 -0.000247891 1.73494e-19)
(0.00021557 -8.54505e-05 5.85887e-20)
(0.000216529 -8.27753e-05 -6.11202e-20)
(0.00030852 -0.000188045 8.80267e-20)
(0.000439599 -0.00010516 1.5442e-19)
(0.000214252 -8.862e-05 1.54227e-19)
(0.000209641 -8.22774e-05 -7.70412e-21)
(4.41365e-05 8.14189e-05 2.77806e-18)
(-3.91288e-05 6.58207e-06 -7.04751e-19)
(-2.81533e-05 3.37577e-06 -2.10714e-19)
(0.00115663 0.000844646 -3.3234e-18)
(0.00128787 0.000813144 2.44444e-19)
(0.0012675 0.000957949 -1.78962e-18)
(0.000405545 -0.000216491 -9.76857e-20)
(0.000432744 -0.000287923 8.68922e-21)
(-0.0161459 0.000584182 -2.31284e-18)
(-0.0160008 0.000570917 -3.12112e-19)
(-0.0208419 0.0304777 1.10316e-18)
(-0.0182959 0.0268213 -2.30137e-18)
(-0.000132636 0.000152074 -2.53591e-19)
(-0.000126781 0.000152377 -1.37206e-18)
(-0.000133189 0.000144619 -1.63497e-19)
(0.00242592 -0.00017528 -8.48022e-20)
(0.00304982 -0.000471479 -5.11094e-20)
(0.00245988 -0.000793444 4.13665e-21)
(0.0279236 -0.0223675 -4.04576e-18)
(0.0310866 -0.018863 5.13977e-19)
(0.0273917 -0.0232501 -1.33722e-18)
(0.000315292 -3.91359e-05 -2.28336e-19)
(0.000319694 -3.48739e-05 -8.04563e-20)
(0.000314498 -3.16256e-05 -9.14776e-21)
(-0.0235754 0.0211784 5.35933e-19)
(-0.0224439 0.0251766 1.05166e-18)
(-0.0195038 0.0212759 6.95801e-19)
(-0.0112664 0.00334482 2.1273e-18)
(-0.0117852 0.00321482 -6.77114e-19)
(0.000310973 -4.34101e-05 -1.47406e-20)
(0.000316908 -4.6347e-05 -3.73903e-20)
(-0.00546913 0.00266902 -6.74737e-19)
(-0.00597013 0.00259614 -2.94043e-18)
(-0.000412804 -0.000191418 6.34117e-20)
(-0.000349178 -0.000147499 9.27238e-20)
(-0.0260256 -0.0027867 -2.66315e-18)
(-0.0295312 -0.00264835 -4.10693e-19)
(0.000167871 3.16364e-06 -3.98867e-20)
(0.00012211 1.33043e-06 -6.16889e-20)
(-0.000969209 0.00293298 -3.83132e-20)
(-0.00139318 0.00278039 1.40386e-19)
(-0.00105414 0.00247055 1.92016e-20)
(-0.000661737 3.38712e-05 -4.68457e-20)
(-0.000662333 9.05157e-05 1.89143e-19)
(-0.00024451 -1.15315e-05 -1.89909e-19)
(-0.000240881 -1.79364e-05 -5.82362e-21)
(-0.000239224 -1.09954e-05 1.7504e-19)
(-0.00522966 -0.00489127 1.39809e-18)
(-0.00477158 -0.00451322 -2.68454e-18)
(-0.00545741 -0.00422459 -2.98989e-18)
(-0.000118781 -5.85258e-06 -4.0506e-19)
(-0.000119998 -5.21511e-06 9.78932e-20)
(-0.000100471 -3.19236e-06 -2.6626e-19)
(-0.0393452 0.0528043 -2.03007e-18)
(-0.031739 0.057961 4.46422e-18)
(-0.000610449 0.00134876 6.13008e-19)
(-0.000716154 0.0014302 2.59252e-19)
(-0.000708546 0.00128435 3.68029e-19)
(-0.000967312 0.00379212 1.96898e-19)
(-0.00230172 0.00418458 9.71612e-20)
(0.0316307 0.0566372 2.61939e-18)
(0.0283373 0.0621932 1.27403e-18)
(0.0206467 0.0548618 2.30132e-18)
(-0.0162675 0.000622803 -3.20381e-18)
(0.000213426 -5.28826e-06 -2.53786e-20)
(0.00021467 -3.78353e-06 3.97611e-20)
(0.00174942 -0.00050834 -1.70369e-18)
(0.00167447 -0.000681225 -1.72738e-18)
(0.00154922 -0.000538815 -1.27157e-20)
(0.00532415 -0.00172003 2.07862e-19)
(0.00540336 -0.000483663 -2.14085e-19)
(0.00444656 -0.00132016 -2.26661e-19)
(-0.000561603 0.000118702 -5.80411e-20)
(-0.000588494 5.62138e-05 -8.30877e-19)
(-0.000511529 7.16527e-05 -1.05599e-18)
(0.00516747 -0.00322206 -5.76487e-20)
(0.00397961 -0.00340589 -2.14565e-19)
(-0.000325764 0.000368212 2.12772e-18)
(-0.000345546 0.000395092 -4.87129e-19)
(-0.000195351 -0.000113509 -3.10286e-20)
(-0.000240261 -0.000113357 6.19123e-20)
(-0.000201299 -0.000142557 -1.86776e-20)
(-0.000121691 -7.71602e-06 9.67626e-20)
(-0.000115771 -5.51592e-06 1.51605e-19)
(0.0128891 -0.0083798 2.43297e-18)
(0.0129038 -0.0101639 -4.38347e-18)
(0.0112753 -0.00905998 6.2544e-18)
(-0.0280913 -0.0073865 -2.16863e-19)
(-0.0331484 -0.0125717 2.13516e-19)
(-0.0235281 -0.0125071 -9.587e-20)
(0.000878407 0.00331353 -2.37963e-19)
(0.000634827 0.00358453 -4.96654e-19)
(-0.000298772 0.000380902 4.97719e-19)
(-0.000305276 0.000351226 -5.47775e-19)
(-4.09508e-05 3.74148e-05 -2.69956e-19)
(-4.14945e-05 3.31324e-05 2.46213e-19)
(-4.50924e-05 3.71555e-05 -2.17133e-19)
(-0.0117642 0.0036211 -7.9393e-19)
(-0.0109814 0.002997 3.06001e-18)
(-0.00330803 0.00178208 -2.62963e-18)
(-0.0029356 0.00141745 1.87921e-18)
(-0.000225618 -0.000190492 -2.23485e-21)
(-0.000206098 -0.000196589 2.13673e-21)
(-0.00021366 -0.000174141 8.05945e-21)
(-0.00244921 5.08183e-05 -2.22854e-19)
(-0.00326987 -0.000563091 5.83853e-19)
(-0.00201019 -0.000719853 -8.16581e-20)
(-0.000604345 0.000165119 -5.77119e-20)
(0.0754046 0.00839356 -2.27535e-19)
(0.069617 0.0177524 2.80814e-19)
(0.0644548 0.00734008 1.75393e-19)
(9.09997e-05 0.00248185 1.60435e-18)
(0.000185953 0.00276195 4.6451e-19)
(0.000358684 0.0024598 1.98067e-18)
(-0.0109826 0.0233821 -7.29523e-20)
(-0.00762061 0.0235238 7.01252e-18)
(-0.0102946 0.0267345 3.6865e-18)
(0.0116989 -0.0841452 -1.27495e-18)
(0.0247634 -0.0752377 -4.37842e-18)
(0.00169185 -0.0116173 5.75372e-20)
(-0.0026197 -0.0121729 2.55917e-20)