/*--------------------------------*- C++ -*----------------------------------*\
| =========                 |                                                 |
| \\      /  F ield         | OpenFOAM: The Open Source CFD Toolbox           |
|  \\    /   O peration     | Version:  v2012                                 |
|   \\  /    A nd           | Website:  www.openfoam.com                      |
|    \\/     M anipulation  |                                                 |
\*---------------------------------------------------------------------------*/
FoamFile
{
    version     2.0;
    format      ascii;
    class       surfaceScalarField;
    location    "950";
    object      meshPhiCN_0;
}
// * * * * * * * * * * * * * * * * * * * * * * * * * * * * * * * * * * * * * //

dimensions      [0 3 -1 0 0 0 0];
oriented        oriented;


internalField   nonuniform List<scalar> 
20642
(
0.000238047
3.82974e-05
-0.000276345
-0.000763565
0.00130789
-0.000542297
-0.000150969
-0.000234809
0.000385808
-0.000140013
0.00104027
-0.000894216
-0.0010427
0.0015141
-0.000465288
-0.00133518
0.000574276
0.000428187
-0.000930653
0.00050408
-0.00158153
0.000898335
0.000684459
-0.000412302
-0.000389981
0.000803827
-0.000235383
-3.56802e-05
-0.000691217
-0.000888964
-0.00136261
0.00117435
0.000199492
5.58112e-05
4.50568e-05
-0.000910207
0.0013815
-0.000470674
-0.001096
0.00146177
-0.00036115
2.19579e-05
0.00021609
3.03746e-05
2.38286e-05
-3.58945e-05
0.00155046
-0.000683286
-0.000865808
-0.000568426
0.000402862
0.000165655
0.000287821
-0.000158188
-0.000129632
-0.00110419
0.000717256
0.000388639
-0.000251323
-0.000874898
0.00113989
-0.000330545
-0.000287713
0.000618614
0.000987527
-0.00122389
-0.00124851
0.000649036
0.000603183
0.00117311
-0.000465184
-0.000706259
0.000975595
-0.000550076
-0.000425327
-0.000235383
0.00138284
-0.00050874
-0.000872446
1.22046e-06
2.61627e-05
-2.66363e-05
-0.000206765
-2.86187e-05
-0.000714029
0.000255251
0.000458937
0.00125978
-0.000841315
-0.000412031
0.000278666
-0.000140611
-0.000138055
6.12969e-05
-0.000905122
0.00085916
-0.000119218
0.0010186
-0.00101318
-0.000115306
0.00113316
-3.29334e-05
0.000119919
-2.71339e-05
0.000855087
-0.000425432
-0.000697122
0.0010591
-0.000360672
-4.12636e-07
-8.57501e-06
2.09328e-05
-0.000523446
0.000789568
-0.000257245
0.00114676
-0.000135007
-0.00100895
-0.00024286
-0.000191801
0.000434732
-0.000511667
0.000268898
0.000158734
-0.000483071
0.000324429
-0.000987845
-0.000113966
0.000380963
-0.000231081
-0.00014988
0.000641993
0.000582556
-0.00122407
-0.000667644
0.000741305
-0.000122179
-0.00122832
-0.000197228
0.000608408
-0.000411013
0.00015617
-0.000256282
0.000100112
0.00117291
-0.00137439
0.000215325
0.00146551
-0.00111175
-0.000340643
-0.000513894
0.000316791
-0.000206765
0.000317932
-0.000648064
-0.000807624
0.000293336
0.00056526
-0.000406406
-0.000620387
0.000329813
0.000290589
0.000430257
0.000643531
-0.00106684
-3.635e-06
-2.77427e-07
5.58971e-06
-0.00045552
-0.000788792
-0.000257332
-3.15723e-05
0.000288913
5.06387e-05
-3.2278e-05
-1.81613e-05
-0.000576415
0.00135607
-0.000778213
-0.000956586
0.000838363
0.00086055
-0.000264252
0.000159624
0.000104628
-7.73775e-05
-0.00024096
0.000318351
0.000202877
7.57898e-05
-0.00146091
0.00124542
0.000229333
-0.000600415
-0.000196185
0.00112505
-0.000406222
-0.00150086
0.000762757
0.000742063
-0.00094362
0.00142383
-0.000473694
-0.000812651
0.000223311
-0.000588743
-0.000907511
0.000785218
0.000478965
0.000957178
0.000457927
-0.00140425
3.57377e-05
3.57534e-05
-4.58873e-05
-0.000197447
-0.00124746
0.000396135
-0.000237511
-0.000158613
-0.000670163
0.000602408
0.000126875
-0.00139859
0.000588662
0.000810812
-0.000390357
-0.000323479
0.000196882
0.000152631
-0.000275687
-0.00100648
0.000310766
-1.94059e-05
6.5616e-05
-2.15516e-05
-6.87815e-05
0.000106485
0.000817723
-0.000789027
0.00143157
-9.69018e-05
0.000903711
-0.000790411
-0.00024111
-0.00103983
0.00129015
0.000807915
0.00128265
-0.000690785
-0.000591473
5.60863e-05
4.12964e-05
-6.23564e-05
0.000376859
-0.000121738
0.000653881
-0.00107194
0.000418635
1.09136e-05
7.78868e-06
-1.25062e-05
-3.07653e-06
1.84778e-05
0.00133463
-0.000368176
0.000130636
1.90382e-05
-0.000117656
-0.00150579
0.000570834
-0.000283346
-2.81787e-05
0.00031153
-0.000240265
-4.58777e-05
0.000286145
-0.000805514
0.0012437
0.000242191
0.000556031
0.000462054
0.000513759
-0.000186996
0.00052345
-0.000300476
0.000159866
-0.00131045
0.000803237
8.06948e-05
-0.000338019
8.03777e-05
0.000770228
-0.000847392
-0.000324177
-0.000244145
-5.69563e-05
6.9401e-05
9.9972e-07
0.000258261
0.000189738
-0.000447958
0.000307226
0.000892914
-0.00118456
9.57846e-05
-3.5575e-05
0.000800328
-0.000292335
-0.000496049
0.000536343
0.000821182
0.000331371
0.000215928
-0.000547146
0.000168675
-0.000271885
0.00010321
0.000174076
0.000222067
0.00111956
-0.00038534
-0.000730246
0.000370306
0.00075639
0.000908733
0.000211168
-0.00110057
-0.000204663
0.000536157
-0.000820115
0.000240779
0.000579962
0.000252549
-0.000625843
0.000373459
-0.000315747
0.000200473
0.000115277
0.000937415
-0.000853436
-0.000579379
0.000163955
0.000415551
0.00101831
-0.000556032
0.000608926
-0.000317053
-0.000291856
0.000146693
0.000103777
-0.00025047
0.00133877
-0.000522826
-0.000814142
2.97139e-05
0.00126792
-0.00130133
3.403e-05
-0.000284541
-0.000517065
0.000100151
-0.00038349
0.000251555
-0.00101551
0.000784671
-0.00128999
0.00117604
0.000128776
0.000664982
0.000145613
-0.000803427
-0.000308632
0.000231267
-0.00148035
-7.59978e-05
-0.000172644
0.000248643
-0.000234796
0.00142275
0.000742767
-0.00103972
0.000298358
-1.09443e-05
-3.47193e-06
2.01074e-05
-0.00109962
-0.000174428
0.000495671
0.00078734
-0.00130141
0.00105995
0.000252118
-2.3488e-05
0.000184319
-0.000195863
-7.61116e-05
0.000271976
1.5344e-05
2.0088e-05
-2.27139e-05
-4.12862e-06
-4.15626e-05
-0.00118261
0.000936782
0.000285579
-0.000138186
-0.000215026
0.000353226
0.00151744
-0.000547862
-0.000965141
-2.49901e-05
0.000206775
0.000230219
-0.000436983
0.00107157
-0.000552298
-0.000518904
-6.15471e-05
0.000230192
-0.00046526
0.000235077
-8.19669e-06
8.06942e-06
3.3102e-07
0.000491592
0.000848903
-0.00184686
0.00108004
0.00078079
-9.68599e-05
-0.000196586
0.000293449
-0.00100615
-0.00065167
0.000427205
0.000224503
0.00017464
-0.000575775
0.000401406
-1.22829e-05
3.24018e-05
-1.20085e-05
0.000829858
-0.000964381
-0.000283825
0.000609298
-0.000325326
-0.00026378
-0.00055556
0.000849412
0.000671799
0.00101642
-0.00109802
8.4395e-05
-0.000843435
-0.00113969
0.0010276
0.000117835
-0.000393196
0.000275422
-0.00014543
0.000403732
-0.000426581
0.000679325
-0.00119437
6.58088e-05
0.000504015
-0.000386094
3.89433e-05
-3.69587e-05
-0.000741588
-0.000656167
-0.000510749
0.000685743
-0.000287799
-0.000223776
0.000565051
-0.000267087
-0.000297869
0.00017016
-0.000276764
0.000106604
0.000634528
-0.000718952
0.000125322
-0.000270105
0.000144783
-0.00026594
0.000935843
-0.000667816
-0.00018973
-0.000126015
0.000212723
-0.00110279
-0.00108082
-0.000208667
0.000481281
0.000617066
-0.00109612
0.000211825
6.58706e-05
-0.000277695
-5.94429e-05
0.000206136
-0.00134166
0.00100333
0.000343661
0.000638114
-0.000820382
0.000182426
0.000880803
0.000308251
-0.00118672
-0.000262384
0.000526642
0.000324723
-0.000998308
0.00146698
0.000770928
-0.000925407
0.000179701
0.0016057
-0.000699122
-0.000902147
0.00108163
0.000527946
-0.000307076
-0.000452753
-0.00012651
0.000651737
0.000149032
0.000175845
-0.00032487
5.58317e-05
-0.00016365
0.000172856
2.33392e-05
0.000300224
-0.000312339
0.000303294
-0.000269282
-0.000218123
0.000609032
-0.000318503
-0.00029043
-0.000222472
0.000542116
-0.000319568
-0.00085431
0.000806864
0.00011395
6.93488e-07
-3.0502e-06
0.000527791
0.000490714
-0.00013096
-0.000424605
0.000277857
0.00015866
-0.000248369
-0.00016331
1.44105e-05
-5.74498e-06
1.59801e-05
0.000297831
0.00031534
-0.000288563
0.000158591
4.42857e-05
0.000165995
0.000179321
-0.000345313
0.0014253
-0.000863307
-0.000551257
-1.02082e-05
1.58281e-05
-4.75285e-06
0.000478207
0.000257821
-0.000735755
-0.000121906
0.00026337
-0.000141464
5.26132e-05
-1.83323e-05
-2.09539e-05
-3.64122e-05
-0.000747121
-0.000320278
0.000958549
0.000202163
0.000138003
-0.00034016
0.000215912
-0.000157821
0.00030686
-0.000289106
-0.000392414
0.000681752
-0.000647397
0.000917312
-0.000208386
-0.000256864
-9.89302e-05
0.000577366
-0.000494295
-0.000814696
-0.000652753
0.000445668
0.000207255
-0.000970542
-0.000365601
-0.000141078
0.000174861
-0.000950262
0.000787918
-0.000924174
0.000676939
0.000247835
0.000794566
-0.000484672
-0.000309496
0.00160204
-0.000638059
-0.000951994
1.50941e-06
0.000667618
0.00122318
-0.00154963
0.000333893
-0.000697575
-0.000240602
0.000950503
-0.000264946
0.000104699
0.000160246
0.00118313
-0.000277743
-0.000905021
0.000864576
-0.000279305
-0.0005718
4.60271e-05
-0.000281054
-0.000272944
0.00134329
0.000295239
-0.000236227
0.00108179
0.000201867
-4.53681e-05
-0.000801183
0.000571406
0.000230479
0.000361719
0.000514596
0.000251276
-0.000162482
0.000104223
-0.000344483
0.00163607
-0.000536128
-0.00107945
-0.00109362
0.00155133
-0.000450007
-0.000253077
-0.000352362
0.000605542
-3.8969e-05
0.000269311
-0.000221781
-0.000354596
0.000848864
-0.000493775
-0.000155467
-0.000109478
-0.000261261
0.000230606
-0.000130654
-0.000133599
0.000250641
-0.000935509
-0.000383652
0.000245481
1.17469e-05
-1.53904e-05
0.000996887
0.00036654
-0.0013584
0.000968067
0.000642912
0.00102882
0.000227232
-0.00123112
0.000341716
-0.000457802
0.000116147
8.44304e-05
5.81105e-05
-9.20508e-05
0.000559307
0.000512639
-0.000284068
0.000888741
-0.000603178
-8.15928e-06
0.000679481
0.000440796
0.000409428
-0.000849966
0.00010452
3.43142e-05
2.99664e-05
-0.000442518
0.000756339
-0.000313424
0.00136087
0.000110097
-0.00146273
-0.000185525
0.000994293
-0.000805363
0.000365424
-0.00140131
-0.00129433
0.000709152
-0.000234509
0.000939136
-0.000689998
0.000206547
-7.1093e-05
-0.000374686
0.000675718
-0.000300842
-0.000320306
0.00122412
-0.000898997
-0.000494371
-0.000428999
-0.00035157
-0.000938762
0.000590088
-0.000585712
5.31142e-05
8.35716e-05
-0.000279433
1.63937e-05
0.000195431
0.000834857
0.000225602
-0.00104095
-8.54288e-05
0.000281418
-0.000193068
0.00075506
0.00109265
0.000288079
-0.00137795
-0.000399538
0.000417841
-1.82534e-05
-0.00033695
4.10183e-05
0.000295935
-0.000179116
-0.000472533
-2.33331e-05
-1.22973e-05
3.58079e-05
-9.04761e-05
-0.000535129
-0.00146628
0.000380321
-0.000380324
0.000142826
0.00132378
-0.000228386
0.00021435
-0.000365293
0.000160079
-3.41127e-05
-0.00132022
0.000228994
-0.000870193
0.000193196
-0.00120345
0.00102156
0.000150799
0.0011591
-0.000501682
0.000213976
4.51327e-05
1.30314e-05
-3.94625e-05
-0.000253371
0.000156513
-0.000454084
0.000443778
7.58437e-05
-0.000315749
0.000637386
-7.11644e-05
-0.000230268
0.000307727
0.000210065
7.77555e-05
0.000474601
8.07164e-05
-0.000524072
0.000872521
-0.000408278
-0.000463523
0.00125263
-0.000369694
2.73305e-06
-2.58644e-05
7.33735e-05
-8.47365e-06
0.000292093
0.0002676
-0.000559547
0.00028454
-0.000377176
9.26443e-05
-0.000218114
0.00114216
-0.000914466
0.00119125
-0.000986849
-0.000141635
-0.000158839
0.000324927
2.30054e-05
-0.000347925
8.88389e-05
-0.000379401
0.00029059
-0.00122377
0.000314261
2.3848e-05
-0.000274756
0.00140665
-0.000876605
-0.000519107
0.000162029
0.000164135
-0.000326159
-0.00054949
0.000459215
0.000312022
-0.000277073
0.00173504
-0.0011813
0.000935446
0.000256108
-0.00116901
0.000698161
0.00047192
0.000378814
0.000582246
-0.000273441
-0.000308683
0.000821688
-0.000473408
-0.000347945
-0.000833517
0.000479534
-0.000489515
-4.60064e-05
0.000535831
-0.00015179
0.000286199
-0.000134408
0.00109895
-0.000171329
0.000961017
-0.00116948
0.000904261
0.000613642
-0.000157552
-0.00024623
0.00040383
2.7161e-05
-2.64139e-05
1.42374e-05
0.000208458
0.000193576
-0.000682734
0.000104546
-0.000430697
0.000650759
0.000825937
-0.000388718
0.00077423
-0.000385239
0.000204324
-0.000286877
-0.000465157
-0.000856911
0.00132276
0.000252582
0.000440442
-0.000685272
0.000281611
0.000312273
0.000806266
0.000448498
0.000715029
0.000939004
-0.000154332
-0.000217975
0.000372329
0.00024139
7.77e-05
-0.000313656
-0.000262348
0.000469134
0.000246628
0.000671624
-0.000411376
-0.00125358
-5.99664e-05
0.00111129
-0.00104228
0.000367355
-0.000261447
-0.000104622
0.000728149
-0.000260712
-0.000449646
8.99583e-05
-0.000248146
0.000338784
3.02232e-05
-0.00148567
0.00084801
0.000641841
0.000987007
-0.000459056
0.000493214
0.000439682
-0.000932282
0.00142102
-0.000451385
-0.000963215
-0.000284496
0.000531339
-0.000246822
0.000447471
-0.000251078
-0.000836687
0.00128648
-0.000444944
0.000498305
-0.000156527
0.000937704
-0.00138867
0.000462769
-0.000511921
0.00100579
-0.000429964
0.000195188
-2.36779e-05
0.000502153
-0.000938606
0.000437854
-0.00111646
0.00076817
-0.00117893
0.000903744
0.000303273
-0.000854055
0.000505823
0.000385538
0.00105545
2.05296e-05
-0.00105658
-0.00108177
0.000529861
-0.000410727
0.00105682
-0.000638358
-0.000232948
-0.000875727
0.00112576
-0.00104635
-0.00029759
0.00136077
0.000515136
-0.000805733
0.000291064
-4.25757e-05
0.001126
-0.00108217
-4.18929e-05
0.000268263
-0.000218989
-1.00758e-06
-6.19066e-06
0.000118552
-0.000518031
-0.000794142
0.000405741
1.37115e-05
0.00103649
-0.000498691
-0.00098135
-0.000280827
-0.000234
0.000514865
0.000653013
0.000438404
-0.00109115
3.77562e-05
1.32334e-05
0.000451773
-4.88329e-05
-0.000224023
-0.000156289
-0.000569447
0.000117274
0.000460839
0.000264202
2.85504e-06
-0.000258781
-0.00116264
0.000851569
0.000313351
-0.000453464
-0.000360725
0.000229575
0.000796694
0.000232055
-0.000222219
-0.000131956
-0.0004288
-0.000199042
-0.000229346
0.000428394
0.00134047
-0.000391617
-0.000966377
0.000472164
0.000495157
-0.000252683
9.02014e-05
-0.000648011
0.000205888
-0.000119016
0.000914652
0.000216548
-0.00129977
-0.000466201
0.000181727
-0.000801909
0.0012857
-5.11367e-05
0.000219812
-5.304e-05
0.000290005
-0.000230158
-0.000419736
0.000949791
-0.000499499
-8.16081e-05
0.000328453
-2.49603e-05
0.000350769
0.000195259
-0.00120367
-0.000184569
0.00118955
-0.000996156
-0.000567489
0.000286712
0.000574068
0.000150904
-0.000719101
0.000302319
-0.000953414
0.000565741
-0.000893003
0.000385954
0.000507645
0.000554548
0.000114687
-0.00066373
-0.00129732
0.000308523
0.000373984
-0.000662866
-0.0003496
0.000438472
-0.000983299
-0.000187799
-0.000406595
-0.000562131
0.000968872
-0.000899056
0.000888843
3.46332e-05
8.65406e-06
0.000260304
-0.000219362
0.000263698
-0.00129458
0.00106748
-0.00111832
-0.000682428
-0.000161753
0.000870418
-0.000169612
-3.09507e-05
0.00026979
0.000284046
-0.000193154
0.000125121
-0.000781727
-0.000352079
0.000793085
-0.000469498
0.000294635
0.000174916
-0.000228305
0.000284717
2.63161e-05
-0.000448049
0.000648422
-0.000200007
0.000132278
-0.000498859
0.000423653
-0.000422243
-1.40184e-06
-0.00031089
-0.00047013
0.000782143
0.000296755
-0.000402395
0.000325414
7.85291e-05
-0.000106623
-0.000294537
0.000934851
-4.44315e-05
0.00070332
-0.000143404
0.000456455
0.000547335
-0.000341127
-0.000206162
7.20201e-05
-7.86637e-05
-0.00103611
-0.000324625
0.000908991
0.000519732
0.000418634
-0.000936914
-0.00097774
0.000245724
0.000733515
-0.000448344
0.000364239
8.41478e-05
0.000307835
-0.000610607
0.000303008
0.000927831
-0.000589714
-0.000330846
0.00046678
0.00109149
-0.00138678
0.000704566
0.00101138
-0.000484628
-0.000526045
-0.000966145
0.000563103
0.000550273
0.00083152
-0.000862646
0.000273239
0.000590008
-0.000872261
0.000589678
0.000471111
-0.000206927
-0.000264169
-0.000168802
0.000541973
0.000470039
0.000295599
0.000313824
-0.000625512
0.000382043
0.000281161
-0.000131185
-0.000116108
0.000247294
0.000223624
-0.000173712
0.000285232
-0.000300622
0.000676254
-0.000160727
-0.000275364
0.000228674
-0.000128006
0.000248994
0.000306173
-0.000680646
0.000285042
-0.00019642
-0.000580699
0.000960664
-0.000379886
-0.000818711
-0.000323447
0.000255115
-0.000977414
0.000726478
0.000831175
-0.000539152
-0.000285373
0.000224453
0.000304849
-0.000529248
0.000331663
0.000312079
-0.000643655
-0.00124583
0.000307162
0.000948093
-0.00133212
0.00095993
-0.000714156
-0.000207424
0.000847167
-0.000458592
-0.000388128
0.000347886
0.000857128
-0.00120349
-0.000232521
-0.000830276
0.0010802
6.30995e-05
-1.96732e-05
0.000321896
-0.00139052
-0.000871495
-0.000281109
0.000983698
0.000299937
-0.00127618
-0.000302589
-0.000492727
0.000796451
2.08549e-05
0.000581092
-0.000273034
-0.000318212
-0.000267658
-0.001039
0.0015757
-0.000520244
-0.000885611
-0.000227267
0.000293086
-0.000110825
-0.000182258
-0.000176502
0.000229604
-3.46111e-05
0.000410775
0.000540117
-0.000948548
-0.000945047
0.000716634
-0.000507384
-0.000384916
0.000605302
-0.000218535
-0.000386519
0.000751726
-0.0009918
0.00024111
0.000219095
-0.000427421
-0.00109544
0.000971234
0.000129315
-0.000848927
-0.000308692
0.000118965
0.000209987
-0.000409022
-0.000154626
-9.80571e-05
0.000768287
0.000236651
-0.000985269
0.00101586
0.00028423
-0.00128406
0.000483999
0.000448966
0.000379488
-0.00120415
0.000844932
0.000218473
-0.000353176
0.000134712
2.01306e-06
0.000275707
0.000959721
0.000401643
-0.00136051
-0.000923042
0.000659264
0.00034824
-0.000145871
-0.000202364
-0.000222607
0.00088384
-0.000281374
0.000235186
4.61891e-05
-0.000666005
0.000817391
-0.000136776
-0.000317511
0.000454419
-4.65708e-05
0.00013728
0.000963114
-0.000306365
-0.000647032
0.000164769
0.000183474
-3.63668e-05
-0.000231654
-0.000374762
0.000352318
2.2466e-05
4.18563e-06
3.81869e-06
-5.21757e-06
1.09172e-06
-0.000152516
0.00129497
-0.000356396
-9.19053e-05
0.00122286
-0.000232007
-0.000192846
-7.61209e-05
0.000280944
0.000507216
-0.000288211
-0.000218931
0.000299082
-0.00074676
-0.000701233
-0.000628819
-0.000454996
0.000146377
-3.35747e-05
-0.000243444
0.000277021
0.000305062
0.000118606
1.47754e-05
-0.000174159
-3.08264e-05
-0.000143841
0.000174667
-7.49244e-06
-8.35635e-06
1.90058e-05
0.000206252
-0.000523297
-0.000600496
-0.000878428
0.000299571
0.000672306
8.52033e-05
-0.000304909
0.000222674
-1.2834e-05
1.42494e-05
-0.000571481
-0.000290528
-0.000286113
-0.000809159
0.000239024
0.000113964
-4.44021e-05
-5.91545e-06
0.000144677
-5.5655e-05
-0.000234761
-0.000220215
-0.000750758
-0.000189409
0.000967046
0.000649875
-0.000370041
-0.00027965
-0.0013143
0.000291966
7.97198e-05
-0.000260129
-1.90969e-05
4.61366e-05
-0.000656417
0.000173458
-0.000419282
0.000350449
6.88561e-05
-0.000172012
-0.000109362
-0.000345657
-0.000306892
0.000473063
-0.000774562
-0.000482786
0.000331928
0.000150893
-0.000254294
0.000132388
0.000238914
0.000506243
-0.000309834
0.00054018
-0.000230309
-5.16006e-05
0.000124919
0.000401803
-0.000524819
0.000123088
0.00116152
-0.000762975
-0.000376246
0.000221937
-0.00110038
0.000255263
0.00138604
-0.00107895
5.29262e-05
0.0011365
-0.00122908
0.000652233
0.000149403
-0.00080092
-0.000101469
-0.000188845
0.000290321
3.87949e-05
-6.8301e-05
4.7928e-05
-0.000495973
-0.000304507
0.00128265
-0.000786093
-0.000482517
2.42136e-07
-8.7563e-06
-0.000270306
0.000118517
-0.00046985
-0.000556559
0.00102688
-0.00112598
0.000752447
0.000384448
0.00031432
0.00026804
0.000605275
0.000285034
0.000623963
-0.000899526
-9.37371e-06
3.1815e-06
-0.000143147
-0.000127158
-0.00124653
0.00052848
0.00134082
0.000227836
-0.000218727
-0.000526494
-0.000589107
0.000204163
-0.000361673
1.52509e-05
-1.32632e-05
0.000222542
-0.000518812
0.000296378
3.22963e-05
4.22907e-05
-4.79379e-05
-7.96209e-05
-0.000454836
0.000569017
0.000536068
0.000259675
0.000189797
0.000112268
-0.00022517
0.000112902
-0.000378776
4.03515e-06
0.0009899
0.000301667
-0.00129011
-0.000217147
0.000512847
0.000175108
-0.000814289
0.000557066
0.000908354
0.000113438
0.000179649
-0.00040176
0.000319028
8.2748e-05
-0.000346077
-0.000814197
-0.000944127
0.00083262
0.000469904
0.000923009
8.85982e-05
-3.42994e-05
-7.66572e-05
0.000986148
-0.00089215
1.6634e-05
1.92141e-05
0.000624859
-0.00028653
-0.000338103
-0.00079982
0.00105768
-0.000255553
0.000265577
0.000205549
0.000770901
-0.000117979
-0.000254594
-0.000944461
0.00120013
-0.000290118
0.000621857
0.000894508
-0.00121029
0.000835222
-0.000418356
-0.000416142
-0.000569541
0.000302549
0.000132716
0.00068309
-0.000447728
-0.000685065
0.00113815
1.95423e-05
-3.01476e-06
-0.000518229
0.000471975
3.37771e-05
8.00635e-05
-1.72141e-05
4.97923e-05
0.000275333
0.000562006
-0.000161221
2.23604e-06
0.000220725
-0.000159102
0.000128276
0.000423303
-0.000804529
0.000381784
-3.62702e-05
-0.000143663
0.00021812
-0.000269122
-0.000232459
9.05589e-05
-3.73733e-05
-0.000106933
-0.000230013
0.000927465
-0.000664172
0.00106257
-0.00083298
0.000186236
9.88067e-05
-0.000209869
0.000551767
-0.000341673
-0.000472975
-0.000168394
0.00105372
-0.00114359
9.92765e-05
-8.60349e-05
0.000291512
-0.000201443
-0.000240557
-0.000772203
0.00103042
-0.000927648
0.000935795
-3.22677e-06
-0.000583364
0.000608053
-2.39939e-05
0.00092145
0.000247854
-0.00114694
-0.000254646
0.000144304
0.000110342
-0.000947699
0.000151356
0.000797716
0.000926474
0.000334386
-0.00125943
0.000160997
-0.000633196
-0.00110903
0.000666444
-0.000216238
0.000182665
0.00095511
-0.00069593
-5.75633e-06
0.000105745
-7.09414e-05
0.000768131
-0.000257002
0.000101535
0.000406399
0.00017694
0.000760683
0.000200656
-0.000251792
-0.000415402
0.00137534
-0.000959007
-0.000110266
0.000617134
0.00105875
-0.000204642
-0.00101686
0.00121692
0.000307552
-0.000176244
0.000637839
-0.000460107
0.000721446
-0.00108045
0.00015837
-0.000460285
0.000873244
0.000398106
-0.000331087
-0.00112656
0.000292117
-0.000565439
-0.000252829
0.0006766
0.00026032
-0.00129092
2.53714e-05
0.000763435
-7.66788e-05
9.95906e-05
0.000220846
-0.000803159
-0.00107579
0.000198697
-0.000212988
0.00106301
-0.000846647
0.000991058
-0.000642203
-0.000341779
0.000183267
-0.000269765
8.64984e-05
-3.87456e-05
6.02732e-05
-2.07891e-05
0.000952776
-0.00136727
6.21571e-05
-0.00100189
0.00135675
-0.000948991
-0.000405011
0.000888478
-0.000679559
-0.000207203
-0.000346322
-5.54205e-05
-3.6653e-05
9.68865e-05
0.000607288
-0.000259031
-0.000348079
-8.01384e-05
-0.000339123
-2.93577e-05
2.23767e-05
6.99055e-06
-0.00125949
0.000900572
0.000379466
0.000784409
2.19033e-05
-0.000122848
-0.00127365
0.000659005
0.000639122
7.81097e-05
0.00118044
-0.00124307
0.000410163
-0.00123087
0.000824267
0.000694724
-0.000517914
-0.000138397
0.000514766
0.000592632
0.000165443
-0.000733212
-0.000416618
0.000158784
0.000257848
-0.000807024
0.000418325
-0.00018116
0.000702084
-0.000255116
0.000452861
0.000964545
-0.000468854
0.000332212
-0.00105905
0.000368455
-0.000212662
0.000255505
-2.7121e-05
0.000353129
-0.000562764
0.000405603
0.000293648
-0.000698964
0.000406345
-0.000658723
-0.000223906
-0.000568387
0.000809099
-0.000683967
-0.00021538
0.000722812
-0.000785145
0.000225495
-0.0012256
0.000391535
-0.000240882
-0.000693566
0.000946591
0.000403989
-0.00071936
-0.000178368
0.00112155
-0.000202135
-0.000733119
0.000957175
-0.000550039
3.62555e-05
-0.00049939
0.000928757
0.000267604
-0.00119302
0.000995845
-0.00034262
-0.000668554
-0.000499285
0.000136054
-0.000810532
0.000899714
0.000204889
0.00122476
0.000430087
-0.000183971
-0.000246082
-0.000651185
0.000959626
-0.000186183
0.00111818
-0.000925612
-4.35173e-05
5.10859e-05
4.97776e-05
5.82454e-05
-8.72103e-05
-0.0010428
-0.000169989
0.00122308
-0.000263903
-0.000817991
0.00108498
0.00097265
-0.000220028
0.000554835
-0.000762389
8.2427e-05
-0.000279871
0.000199109
0.0010467
-0.00130617
0.000272203
0.000475129
-0.00107458
0.000914176
0.000448274
-0.000758107
0.000224591
-4.12103e-05
0.000487015
-0.000318653
0.000211202
0.000214441
-0.000425623
0.00120305
-0.00027119
1.04299e-05
-3.88595e-05
0.000257082
-0.000216061
0.000638955
-0.0011295
0.000494741
-0.000165406
0.00107426
-0.000810694
0.000873325
-0.0012681
0.000397217
0.00146478
-0.00104844
-0.000407821
0.000254491
0.00067361
-0.00090933
-0.000388142
-0.00085006
-0.000297966
8.70729e-05
0.000210896
0.000568105
0.000311689
-0.000878589
0.00121921
-0.000227897
-0.00058462
0.00102326
-0.000591543
-0.000655464
0.000663832
-0.000257035
1.44138e-06
-1.11988e-05
0.000790655
0.000291909
-0.00107548
-0.000365977
0.00121817
-0.00085052
7.56449e-06
8.73554e-06
-0.000437723
0.000309314
-0.000965262
0.000658362
0.00124092
-0.00036518
0.000215497
-0.000539577
-0.00141402
0.001059
0.000357991
-0.000438426
-6.19552e-05
0.000516074
-0.000109371
2.2011e-05
0.000108352
0.000408236
0.000413752
0.000792817
0.00106905
0.000234938
-0.00129079
0.0012328
-0.000908585
-0.000319021
0.00097941
0.000275132
-0.00123834
0.000597884
-6.50168e-05
-0.000360974
-0.00119641
0.000587607
0.000609475
-0.000975372
0.0012445
0.00017995
-0.000237087
5.71372e-05
-0.000111639
-0.000281356
-0.000962355
0.00124597
0.000300037
0.000518985
-0.000925435
0.000201908
0.00139159
-0.00110065
0.000537867
4.2663e-05
-0.000547947
0.000272464
0.000585281
-0.000848641
-0.00151322
0.000616585
0.000914061
-0.00110571
0.000870871
0.000240195
0.000178186
0.000790014
-0.000179553
-0.000800688
0.00100235
-0.000855308
0.00081367
0.00129724
0.000376833
-0.000162328
-0.000214491
-0.000891119
-0.000327465
-0.000771927
0.000512122
0.000260516
0.000455985
-0.000775955
0.00032033
-0.000247359
-0.000713657
0.000978715
0.000396359
0.000663743
-0.000283861
0.000926686
0.00033964
-0.00104304
0.000712863
-0.000980008
0.000470695
0.000510947
0.000309679
-0.000226563
-0.000282901
0.000122825
0.000332441
0.000292609
-6.96777e-05
0.000239696
-0.000168377
0.00101604
-0.000771702
0.000869615
-0.00113744
-7.80364e-05
-0.0011129
-0.000295477
0.00135468
-0.000469259
0.000556531
4.45741e-05
-0.000568807
-0.000988327
-0.00079783
-0.000275801
-0.000468747
0.000165651
0.000303799
-0.000419478
0.00139442
-0.000969672
0.00122983
-0.000852078
-0.000355725
0.000289899
-0.000376135
0.00102474
0.000671722
-8.14628e-05
-0.000455676
0.000237536
-0.000929676
0.00137021
-0.000435237
0.000499479
-0.000170516
-0.000580339
0.000774581
-0.000569177
0.000294644
-7.52088e-05
-0.000214779
0.00104869
-0.00133193
0.000144019
0.00014218
-2.07875e-06
-8.66555e-05
0.000832948
0.000212142
-0.00050393
0.000234915
-0.000132325
8.57388e-05
0.000212902
-0.000303915
-0.00104613
0.00135239
0.000222145
0.000207971
0.00030315
0.000499222
-0.000793856
0.00154295
-0.00118139
-0.000352179
0.00127947
0.000152824
-0.00113364
0.00103293
0.000136529
0.000250904
0.000256374
-0.000668216
-0.000407446
0.00108575
0.000148672
-0.000279856
-0.000879253
0.00125026
-0.000391896
0.000741198
-0.000349219
0.000838138
0.000185209
-0.000239139
5.95866e-05
0.00014456
0.000195907
-0.000163142
6.56106e-05
9.97258e-06
-4.79749e-05
-0.000194078
-0.000114612
-0.001311
0.00037856
0.000938527
-8.41329e-05
0.000674572
-0.000558078
-0.00106849
-0.00031487
0.00138536
0.000751657
0.000869606
-0.000587735
0.000318981
0.000372359
-0.00120412
0.000299174
-0.000395323
-0.000570036
0.000360768
-0.000543363
0.000182714
0.000458693
0.000545163
-0.00100301
-0.000251598
9.5304e-05
0.000156295
-0.000350108
0.00129828
-0.000940229
0.000333451
0.00108454
6.02495e-05
-0.00111522
-9.63689e-05
0.000238226
-0.000141857
-0.000142399
-0.00114333
0.00106023
9.11756e-05
-0.000301524
0.000231026
-0.00100072
0.000741524
0.00026958
-7.96402e-05
-0.000217013
0.00023573
-0.000559251
0.000333067
0.000248814
0.000522716
-0.000760061
0.00125925
-0.000908417
-0.000327562
0.000500484
-0.000813121
0.000313769
2.60748e-05
-0.000223299
-0.000916299
-0.000388431
-0.000551555
0.000337646
0.000214053
-0.000474077
0.000207496
0.000266591
-0.000195117
0.000406336
-0.000253314
-0.0002505
0.00101302
-0.000157748
0.000304056
0.000141051
0.000977954
-0.00108919
-0.000431301
0.000247363
-0.000840223
0.00118964
-0.000105449
-0.000443657
0.000139845
0.00031258
0.000615491
-0.00034853
0.000160929
0.00025955
0.000953893
0.000362535
-0.00130295
-0.000329078
-0.000106344
0.000249478
-0.000325768
0.000844033
-0.00109541
0.000283098
0.000424521
0.000411383
-0.000648523
0.000596877
-0.000157453
-7.69654e-05
0.000234419
0.000257589
0.000727405
0.000189527
-0.000889609
-0.000201468
-9.64957e-05
6.22702e-05
0.00105066
0.000844593
-0.000809053
-0.00108069
0.000282035
-0.000278185
0.000135039
0.000908101
-0.000365538
-3.1904e-05
1.12144e-05
3.01867e-05
-0.000646752
0.00080694
-0.000995611
0.000206456
0.000240287
-0.000400373
0.000155934
0.000244451
0.00087962
-0.00103467
0.000526056
0.00050891
0.000969693
-0.000131775
0.00066447
0.000578573
-0.000991112
0.00033618
0.00039801
-0.00072438
0.00104575
-0.000427126
-0.00105584
-0.000354884
-0.000899841
-0.000192496
-0.000142347
-0.000111947
-0.00104428
-2.63202e-05
0.00107744
4.68965e-05
0.000114685
0.00054392
0.00100652
-8.79874e-05
-0.00090482
0.00102051
-0.000820454
0.000489318
-0.000271817
-0.00021742
0.000734226
-0.00039815
0.000124087
-0.000921625
-9.56375e-05
-0.000161364
0.000109872
-0.000267324
-0.00139086
0.000338501
0.000214304
0.000275087
0.000496421
-0.000764179
0.000252714
-0.000156331
-9.63826e-05
0.000384068
-0.000666884
-0.0003529
0.000561525
-0.000208587
0.000362882
0.000775701
-0.000272242
0.000547035
0.000422143
-0.000964739
-1.53959e-05
-0.000548545
0.000564019
0.000345947
-0.000146016
-0.000199922
-7.23715e-05
0.000295595
-0.000219539
-0.00127546
-4.47398e-05
0.000235037
0.000737646
-0.000897283
0.000335185
0.000318206
-0.00128455
-0.000997402
0.000339015
0.00041943
-0.000699605
0.000280357
-0.000206803
0.000173438
3.33655e-05
0.000730135
0.000292639
-0.000130569
0.000262958
-3.22416e-06
9.9693e-06
0.00034238
-4.76272e-05
-0.000286727
-0.000419715
-0.000187301
-0.000142473
0.00032978
-0.000933838
-0.000166356
-1.12217e-05
6.89024e-06
-0.000640526
-0.000288953
0.00104697
-0.00124888
0.00021819
0.000847256
-0.00082521
0.00123904
-0.00136537
0.000936657
0.000432224
-0.00108966
-0.000403414
-0.001297
0.000230821
-0.000299555
-0.000525374
0.000676864
-0.000147223
-0.00120463
-0.00112716
8.93717e-05
-0.000110656
0.00026618
-0.000155524
-5.12355e-05
0.00111363
-0.00119439
0.000310432
-0.000289868
-6.28603e-06
0.000298438
-0.000134583
-0.000318475
5.87998e-05
0.000292448
-0.00030042
0.00115424
0.00109874
-0.00116823