/*--------------------------------*- C++ -*----------------------------------*\
| =========                 |                                                 |
| \\      /  F ield         | OpenFOAM: The Open Source CFD Toolbox           |
|  \\    /   O peration     | Version:  v2012                                 |
|   \\  /    A nd           | Website:  www.openfoam.com                      |
|    \\/     M anipulation  |                                                 |
\*---------------------------------------------------------------------------*/
FoamFile
{
    version     2.0;
    format      ascii;
    class       surfaceVectorField;
    location    "900";
    object      ddtCorrDdt0(Uf);
}
// * * * * * * * * * * * * * * * * * * * * * * * * * * * * * * * * * * * * * //

dimensions      [0 1 -2 0 0 0 0];


internalField   nonuniform List<vector> 
20537
(
(0.000304205 0.000756488 -3.84344e-20)
(0.0004923 0.000700045 -1.59149e-19)
(0.000454797 0.000949217 3.01096e-20)
(0.0491265 0.0313006 2.94064e-19)
(0.0690295 0.0306461 1.18942e-18)
(0.0678829 0.0145838 2.3357e-18)
(-0.00370549 -0.0093297 -1.45583e-18)
(-0.00492572 -0.00922219 -5.43101e-19)
(-0.00458555 -0.0104396 -1.44616e-18)
(0.000437073 0.000360162 -2.26826e-20)
(0.000519342 0.000506726 -3.44406e-20)
(0.000621916 0.000306709 -5.61635e-21)
(0.00318558 -0.00227674 -1.4013e-18)
(0.00321422 -0.00282197 -1.04476e-18)
(0.00277378 -0.00252671 1.13106e-18)
(0.0136687 -0.030976 -4.25447e-19)
(0.0171702 -0.0254922 -8.23942e-20)
(0.0124309 -0.0254053 1.77822e-18)
(-2.91228e-05 -0.000147366 1.06527e-18)
(-3.13869e-05 -0.000153782 -2.27079e-18)
(-2.46029e-05 -0.000146529 -1.08288e-18)
(-0.00304242 -0.00246284 -3.19421e-18)
(-0.00269174 -0.00224763 -2.93807e-18)
(-0.00269316 -0.0027682 -6.13142e-19)
(-2.66265e-05 0.000111517 -5.38758e-20)
(-2.39354e-05 0.000118749 -6.54503e-20)
(-1.89272e-05 0.000116347 -1.10906e-19)
(-0.0242182 0.0038738 -1.10547e-19)
(-0.0215224 0.00576978 -2.54982e-19)
(-0.0207606 0.00236211 1.1168e-19)
(-0.0226715 0.0408562 1.21704e-18)
(-0.024753 0.0329496 7.05364e-19)
(-0.0278057 0.0219605 1.40317e-18)
(-0.0410468 -0.0446932 -3.03006e-22)
(-0.0257085 -0.0641077 -4.02525e-19)
(-0.0183803 -0.0575151 1.75371e-18)
(0.00557494 0.0162917 -1.24386e-18)
(0.0059869 0.0149406 -3.51869e-18)
(0.00446064 0.0156237 -3.37443e-18)
(-0.0528653 0.0845152 -3.67702e-18)
(-0.0605595 0.0664202 2.70418e-18)
(-0.0371751 0.0776976 3.894e-18)
(-5.76792e-05 -2.02423e-05 1.28273e-19)
(-5.30333e-05 -1.88137e-05 -1.79673e-19)
(-5.45792e-05 -2.45195e-05 1.10095e-18)
(-0.000691932 0.00219152 3.38135e-19)
(-0.000985057 0.00204571 9.15226e-19)
(-0.000997204 0.00244726 1.48312e-19)
(-0.000471847 -0.000123235 1.46011e-18)
(-0.000433341 -9.35634e-05 2.0264e-19)
(-0.000432436 -0.000143464 -1.59776e-18)
(-0.00266206 -0.00266809 2.0868e-20)
(-0.00213907 -0.00264898 -8.19532e-20)
(-0.00242145 -0.00323647 4.57951e-20)
(0.0139905 0.0104715 -9.04931e-19)
(0.0160483 0.00920166 -3.22987e-18)
(0.0142495 0.00765662 -8.67844e-19)
(-2.86497e-05 0.000104444 -2.38739e-20)
(-3.39462e-05 0.000105792 -1.7643e-21)
(0.000361763 0.000229869 -2.14861e-19)
(0.000278763 0.00037737 -6.76176e-20)
(-0.00275347 -0.00833294 -4.69297e-19)
(-0.00224885 -0.00943652 4.97006e-19)
(0.00015122 -1.58671e-06 -9.12646e-21)
(0.000165362 -4.13409e-07 -4.04232e-20)
(0.00018096 1.41164e-06 -2.63885e-20)
(-1.19016e-05 9.16529e-06 -4.13335e-20)
(-1.32129e-05 4.59545e-06 4.94004e-21)
(-6.84087e-06 9.68692e-06 4.85821e-20)
(0.000136375 -9.11941e-08 -6.67246e-20)
(0.000109044 -2.45869e-06 -5.88611e-20)
(-0.00344908 -0.00218153 3.99719e-19)
(-0.00348284 -0.00275222 1.14854e-18)
(-0.000215898 -0.000479646 7.08407e-18)
(-0.000203252 -0.000462975 1.4172e-19)
(-0.000225207 -0.000461004 2.09492e-18)
(0.0041905 -0.0276897 -2.48384e-18)
(0.00604369 -0.0245331 -5.75106e-18)
(0.000160218 0.000637422 9.50822e-20)
(0.000122455 0.000832314 5.4372e-20)
(-0.000112914 -0.000749777 -5.87131e-19)
(-7.12348e-06 -0.000709979 6.4789e-19)
(-6.3568e-05 -0.000844586 2.88687e-19)
(0.0091668 -0.0359129 -2.10366e-20)
(0.0148764 -0.0374205 1.97169e-18)
(-0.000513849 -8.30245e-05 2.20046e-18)
(-0.000514785 -0.000153044 -1.48817e-19)
(-0.00530132 -0.00804411 2.97048e-18)
(-0.006335 -0.00900415 1.33745e-18)
(0.0300918 -0.0512521 -5.21238e-19)
(0.0261328 -0.0383858 9.94222e-19)
(0.0228126 -0.0416481 7.58198e-19)
(-1.64082e-05 8.6159e-06 4.48922e-20)
(-1.14111e-05 1.30403e-05 -1.41451e-20)
(-0.00329522 -0.00148779 6.93116e-19)
(-0.00322989 -0.00180409 -6.70257e-19)
(-0.00354994 -0.00165378 -1.79395e-18)
(-0.00701697 -0.00248104 7.78378e-18)
(-0.00756468 -0.00203079 3.1128e-18)
(-0.00731362 -0.00246009 9.43458e-19)
(0.0174333 -0.0167819 1.6239e-19)
(0.0191981 -0.0143434 1.17618e-18)
(0.0158268 -0.0148541 3.22744e-18)
(-0.0273111 0.0047649 -1.55846e-19)
(-0.0260725 0.000412932 -1.69792e-19)
(0.0383781 -0.0584384 1.20584e-19)
(0.03312 -0.0584638 1.27898e-19)
(-0.000208325 1.75181e-05 -1.32536e-19)
(-0.000209464 2.29916e-05 3.64444e-20)
(-0.000212671 1.56539e-05 9.18932e-20)
(0.000219285 -3.75112e-05 7.60436e-21)
(0.00022046 -3.25659e-05 -3.48088e-21)
(0.000217189 -3.4278e-05 1.53566e-21)
(-0.00173922 -0.0137068 3.53211e-18)
(-0.00331199 -0.0110051 -2.43478e-18)
(-0.00406635 -0.014196 -1.09335e-17)
(-0.0207991 0.0159181 6.73278e-19)
(-0.0246485 -0.00857494 8.19762e-19)
(-0.0258112 0.00738136 -9.92052e-19)
(-0.0163612 0.0389452 -5.18532e-19)
(-0.0150263 0.02403 -9.97129e-19)
(-0.00890582 0.0573536 7.05936e-18)
(-0.02453 0.0512494 5.4506e-18)
(-0.0290617 0.0728202 3.95236e-18)
(-0.00848422 -0.0240636 5.22432e-18)
(-0.0105425 -0.00757131 -2.37399e-18)
(-0.003967 0.00188556 -5.3366e-18)
(-0.0593312 0.17081 5.61091e-19)
(-0.0492463 0.140402 -2.02047e-18)
(-0.0468481 0.180605 1.80283e-18)
(-0.000229996 -0.000497207 8.18217e-20)
(-0.00020631 -0.000497123 9.12094e-18)
(-0.00792415 -0.0208146 4.57787e-19)
(-0.00807641 -0.0170731 -6.66691e-19)
(-0.00426413 -0.0195518 -1.01166e-19)
(0.000589374 -0.000190271 -5.3163e-18)
(0.000505516 -3.13481e-05 -1.11966e-18)
(0.000415518 -0.000193103 2.1536e-18)
(0.00200622 0.0033468 1.59928e-18)
(0.00162533 0.00300016 2.60291e-18)
(0.00142504 0.00362466 3.6283e-18)
(-0.00231713 -0.00197177 -1.21432e-19)
(-0.00144707 -0.00322215 1.0204e-17)
(-0.00273795 -0.00395688 6.04947e-18)
(-6.30149e-05 -1.30457e-05 1.75263e-19)
(-6.58205e-05 -1.07208e-05 5.91848e-19)
(-6.54438e-05 -1.51967e-05 1.19319e-18)
(-0.000135017 -1.64327e-07 -3.42276e-19)
(-0.000135427 -7.53421e-07 -2.8904e-19)
(-0.000134723 -2.79294e-07 9.2407e-19)
(0.000218041 -4.27137e-05 9.61481e-21)
(0.000221417 -4.08793e-05 -3.60601e-21)
(0.000109388 1.40503e-05 -1.4929e-19)
(0.00010938 1.67806e-05 -8.93594e-20)
(0.000102161 1.18734e-05 -6.286e-20)
(-0.0182673 0.00668964 3.62703e-18)
(-0.0205824 0.0131366 2.57825e-18)
(-0.0226823 0.00777939 -1.4764e-17)
(-0.00015436 -0.000642303 2.50412e-20)
(-0.000222754 -0.000740823 -6.49665e-20)
(-6.61944e-05 -0.000180319 1.48198e-18)
(-6.20451e-05 -0.000174496 1.99503e-18)
(-5.84251e-05 -0.000179403 2.44704e-19)
(0.0194939 -0.0196743 1.47328e-20)
(0.0151456 -0.0190556 7.14641e-20)
(0.079289 0.0117707 -2.20677e-18)
(0.080236 0.0193423 -9.5373e-18)
(0.0848246 0.0127893 -1.04795e-17)
(-0.0248817 -0.00650092 1.20268e-18)
(-0.0276367 -0.00208683 -2.7699e-19)
(-0.0224085 -0.00229314 -4.17314e-19)
(0.00382712 -0.001086 -2.93907e-18)
(0.00405924 -0.00155352 4.67796e-20)
(0.0044077 -0.00112751 -6.75556e-19)
(0.0495576 -0.0142822 1.74283e-19)
(0.0448788 -0.0184358 1.38075e-18)
(0.0427686 -0.0118667 6.36167e-19)
(0.00164214 0.00135971 3.26844e-20)
(0.00154736 0.000925935 -8.84844e-20)
(0.00198751 0.00105126 1.04784e-19)
(-0.00518214 -0.00219276 2.37653e-18)
(-0.00540809 -0.00280664 4.02282e-18)
(-0.00590257 -0.0614403 7.90624e-19)
(-0.00685598 -0.0410136 -3.56846e-19)
(-0.00015861 -0.00104438 1.59559e-18)
(-0.000193652 -0.00107344 -4.40109e-19)
(-0.000195594 -0.00102481 3.71813e-18)
(-0.00273219 -0.00215514 5.50472e-20)
(-0.00322353 -0.00262042 1.65885e-19)
(0.00523281 -0.00080715 -1.57186e-19)
(0.00505014 -0.000782202 -5.75754e-18)
(0.00500469 -0.00065142 -7.93415e-18)
(0.00287089 -0.0037319 6.73406e-19)
(0.00300765 -0.00416113 5.77138e-18)
(-0.000976553 -0.00401111 6.68077e-18)
(0.0297487 0.0296781 4.36254e-18)
(0.0263051 0.0554966 2.94265e-18)
(-6.01487e-05 -1.77194e-05 -4.19638e-19)
(-5.73698e-05 -1.09887e-05 -2.22051e-18)
(-0.000131482 5.57646e-06 4.38262e-19)
(-0.000132837 5.3093e-06 4.28371e-19)
(-0.000132438 6.55705e-06 -4.46855e-19)
(-2.85513e-05 0.00019163 -4.8702e-20)
(-1.23633e-05 0.000195583 -1.11684e-19)
(-2.20278e-05 0.00017877 -1.29025e-19)
(-0.00203052 -0.00794855 1.90143e-18)
(-0.0028413 -0.00783197 -2.89509e-19)
(0.00201804 0.000991867 -1.19055e-18)
(0.00213054 0.00156566 -1.50941e-18)
(0.00134215 0.00113459 -3.53554e-18)
(-2.8454e-05 -0.00198827 1.38644e-18)
(0.000107549 -0.00197579 7.29467e-19)
(4.93583e-05 -0.00213233 -1.83956e-18)
(0.00370341 -0.00102247 3.89112e-18)
(0.0035245 -0.000829927 -7.87317e-18)
(-0.000106333 -0.000218046 1.34465e-18)
(-0.000107715 -0.000210923 3.16253e-18)
(-0.000101162 -0.000214464 -2.17281e-20)
(0.0102958 -0.0245264 2.12254e-20)
(0.0141956 -0.019605 -3.35529e-19)
(0.0103283 -0.00483747 -5.77702e-20)
(-0.000109187 -5.20986e-05 -4.65683e-19)
(-0.0001124 -5.44228e-05 -5.04178e-19)
(-0.000112703 -5.0199e-05 -1.3474e-18)
(-0.0157085 0.0212749 -1.24662e-17)
(-0.021802 0.0189453 -9.97966e-18)
(-0.011988 0.0118517 -1.33873e-18)
(-0.0215786 -0.00958836 5.65573e-19)
(-0.0272611 -0.0107784 2.27338e-18)
(-0.0561329 -0.0220696 -8.30284e-19)
(-0.0600289 -0.0303171 7.75783e-19)
(0.000618149 -0.0201744 3.07252e-19)
(0.00403301 -0.0223635 4.37008e-19)
(0.00360376 -0.0184343 8.45202e-19)
(-0.0717929 0.0910204 -1.7905e-18)
(-0.0546425 0.0772674 -5.40474e-18)
(-0.0687319 0.0861316 -3.19878e-18)
(-0.000420693 -0.000440266 4.15553e-20)
(-0.000449007 -0.000417443 -4.19994e-18)
(-0.000453089 -0.000464346 -2.02244e-18)
(-2.12676e-05 0.000238321 3.58896e-20)
(3.14814e-05 0.000190723 1.27862e-19)
(3.90366e-05 0.000257351 -1.29137e-19)
(-0.00309324 -0.00128366 7.62836e-18)
(-0.00345577 -0.00109898 1.6805e-18)
(0.000346043 0.0131364 1.66206e-19)
(-0.00152987 0.0160154 -3.8924e-19)
(0.00273538 0.0151834 4.68758e-19)
(-0.00795038 -0.0820408 -8.78221e-19)
(-0.000520087 -0.000642378 9.54798e-19)
(-0.000558689 -0.000660077 3.49939e-18)
(-0.000519174 -0.000698534 3.90471e-18)
(-0.000384415 -0.000430018 4.64342e-19)
(-0.000388503 -0.000475414 3.38491e-19)
(7.10697e-05 5.65155e-06 1.2885e-20)
(6.86507e-05 5.56072e-06 -1.28245e-19)
(8.22817e-05 7.75701e-06 6.22676e-20)
(0.00366942 -0.00197675 5.43878e-21)
(0.00310863 -0.00177812 1.79381e-18)
(0.00325401 0.0298636 4.45182e-18)
(0.0027385 0.0318017 8.80322e-19)
(0.000961626 0.0286405 -1.13147e-19)
(-0.00633194 -0.0247714 -5.29183e-19)
(-0.0111671 -0.0213843 1.57579e-19)
(5.07851e-05 3.08809e-06 1.32613e-21)
(7.30035e-05 5.6398e-06 2.57768e-19)
(-0.0207722 0.120833 6.41504e-20)
(-0.0306731 0.118749 3.88614e-18)
(-0.0247421 0.125463 4.36254e-18)
(0.000466517 -0.00136817 1.36892e-18)
(0.000442552 -0.00125765 3.08345e-18)
(0.000363254 -0.00134435 1.18603e-18)
(-0.000452773 6.83874e-05 2.58012e-19)
(-0.000499794 5.74905e-05 9.79879e-20)
(-0.000478508 0.00011419 2.84175e-19)
(-1.85297e-05 -0.000429339 -7.92258e-20)
(-8.68829e-06 -0.000440632 -4.8224e-18)
(0.000111643 -4.22922e-06 2.43518e-21)
(0.000135788 -6.49672e-06 1.72191e-21)
(0.000113516 -4.50844e-06 9.04403e-21)
(-0.00807646 -0.0235296 8.27608e-19)
(-0.0128582 -0.0241417 -5.13414e-19)
(-0.0095626 -0.0192699 4.66868e-19)
(0.000499455 -0.000981052 9.77028e-19)
(0.000567962 -0.00106875 -4.00577e-18)
(0.000620119 -0.000949456 -3.98201e-18)
(0.000193074 -5.19423e-05 1.07924e-20)
(0.00019576 -4.85154e-05 4.67259e-20)
(0.000191176 -4.75789e-05 1.8221e-20)
(0.00645985 -0.00450197 -1.63119e-18)
(0.00727908 -0.00452548 -6.89975e-19)
(0.0220025 -0.0256513 4.04591e-19)
(0.0192293 -0.0212234 1.20951e-18)
(2.97481e-05 6.59667e-06 4.60935e-21)
(1.90626e-05 3.02509e-06 -7.60478e-21)
(3.27905e-05 5.86517e-06 -5.98441e-20)
(-8.01478e-05 0.000300724 7.61263e-21)
(-8.16992e-05 0.000183814 -5.71414e-20)
(0.00175782 0.0112578 -5.0503e-19)
(-0.00135863 0.0114206 -5.73346e-20)
(-1.22839e-05 2.72468e-06 3.17429e-20)
(-9.91984e-06 2.40356e-06 7.60885e-20)
(3.51018e-05 9.72186e-06 -3.37e-20)
(2.43679e-05 6.30296e-06 -4.73443e-20)
(-0.0303387 0.0861796 1.04719e-19)
(-0.0398748 0.0968804 1.27896e-18)
(0.00354054 0.0268063 5.12826e-20)
(0.00564907 0.0293611 3.24495e-18)
(0.000202662 -1.88245e-05 6.40393e-21)
(0.000203975 -1.87626e-05 -1.66026e-20)
(0.000202427 -2.21232e-05 -4.06638e-21)
(-0.000103772 5.91604e-06 1.48197e-20)
(-0.000100724 6.07e-06 5.67645e-20)
(-9.30925e-05 3.11247e-06 -1.66426e-19)
(-0.000132352 3.28579e-06 1.74911e-19)
(-0.000133826 4.39955e-06 -5.63522e-19)
(-0.00013384 3.50683e-06 1.89815e-21)
(8.62044e-05 -0.0137639 5.47446e-18)
(-0.000941963 -0.0192058 6.04527e-18)
(-3.7368e-05 -0.000438802 2.78942e-19)
(-2.80464e-05 -0.000418792 -2.1774e-18)
(0.00688228 0.0166372 -9.43892e-19)
(0.00554959 0.0175352 3.34703e-18)
(-0.040816 0.148595 -1.26508e-18)
(-0.0624487 0.184439 8.44336e-19)
(-0.0706441 0.157695 -1.86896e-18)
(-0.000535861 0.000915316 1.69455e-20)
(-0.000255607 0.000920531 5.81616e-20)
(-0.000387755 0.00131328 -5.3411e-20)
(-0.0544238 0.189582 -2.05626e-18)
(-0.0523477 0.206116 1.34773e-18)
(0.000263769 -0.00172215 -2.93195e-20)
(0.000330246 -0.00162429 -3.48176e-18)
(0.000408261 -0.00178238 3.94314e-18)
(0.000295226 0.000113046 -1.16649e-19)
(0.000419058 4.93746e-05 -1.54552e-19)
(0.0101755 -0.00311335 -7.64176e-19)
(0.0093245 -0.00272683 -1.52502e-18)
(0.0103328 -0.00176533 2.09068e-18)
(-0.000205172 1.97995e-05 2.24635e-19)
(-0.000206905 1.34627e-05 -1.74186e-19)
(-8.09152e-05 5.00839e-05 -1.18814e-21)
(-8.53012e-05 5.40265e-05 7.33467e-20)
(-8.49247e-05 5.06991e-05 -4.22643e-20)
(0.00543875 -0.000911132 7.30733e-18)
(0.00501206 -0.00108571 7.50315e-18)
(-0.000105587 -5.45612e-05 1.15226e-18)
(-0.000105989 -4.94726e-05 -3.08907e-18)
(-0.0174573 0.0447301 -2.95513e-18)
(-8.19762e-05 2.15742e-05 -1.12912e-19)
(-7.81223e-05 2.09887e-05 1.12264e-21)
(-8.0023e-05 1.73568e-05 2.16771e-19)
(0.000201269 -1.87858e-05 4.6455e-20)
(0.000203412 -1.56172e-05 4.00977e-20)
(0.00250653 -0.00326004 -4.65101e-18)
(0.00196393 -0.00278203 1.1158e-19)
(-0.00169502 -0.0030273 1.86614e-18)
(0.0715276 -0.0176454 1.18427e-18)
(0.0604117 -0.0134859 -1.82836e-18)
(0.062034 -0.024254 9.47267e-19)
(-0.0992218 -0.123827 2.2125e-18)
(-0.0995196 -0.119312 1.19713e-18)
(-0.0937851 -0.124828 9.94913e-20)
(-0.0183683 0.116302 3.61999e-19)
(-0.0115997 0.122146 5.61122e-18)
(-0.000133825 1.06436e-06 -6.52398e-19)
(-0.000134584 -8.29987e-08 -4.41174e-19)
(-0.000932996 0.00143476 1.65997e-19)
(-0.00128539 0.0015238 1.99877e-19)
(-0.000982345 0.00191003 3.12437e-19)
(0.000316687 -6.74381e-05 -4.77636e-20)
(0.000316954 -5.52308e-05 1.60067e-20)
(0.000335039 -6.93012e-05 -1.09842e-19)
(-0.000160059 -6.57479e-05 1.15356e-19)
(-0.000173426 -4.76653e-05 3.78819e-19)
(-0.000177967 -7.50865e-05 7.19069e-19)
(-0.0220091 -0.0243237 4.455e-19)
(-0.0261491 -0.0306686 -6.20988e-19)
(0.00539184 -0.00309352 -1.79787e-19)
(0.00414564 -0.00367349 -2.62398e-19)
(0.00401375 -0.00218707 -4.04496e-20)
(0.0116057 -0.00371503 1.1269e-18)
(0.0102074 -0.00461627 -2.30445e-18)
(-2.7397e-05 -0.00014002 1.3022e-18)
(-3.40081e-05 -0.000146601 1.63726e-18)
(-0.0161215 0.0527097 1.6427e-18)
(-0.0124856 0.0612569 -1.70708e-18)
(-0.000480946 -0.00116727 -6.28394e-19)
(-0.00058105 -0.00114489 -1.8462e-19)
(-0.000133686 5.30722e-06 -4.63879e-19)
(-0.000132654 5.38229e-06 1.25596e-18)
(-0.000130776 5.44426e-06 2.11895e-19)
(-0.0446643 0.0961287 -2.74445e-18)
(-0.06186 0.0884945 -3.41335e-18)
(0.000108045 1.16403e-05 -3.25515e-20)
(0.000116407 1.58679e-05 1.65758e-19)
(-0.000214804 -0.000263389 -2.4135e-18)
(-0.000216062 -0.000278718 -9.04048e-19)
(-0.000202381 -0.000271423 3.41607e-18)
(-0.000142754 -5.54368e-05 -1.37355e-18)
(-0.000150954 -7.77247e-05 -1.50899e-18)
(-0.000168936 7.45876e-05 -6.61787e-20)
(-0.000162188 7.73007e-05 3.00059e-20)
(-0.000163262 8.45154e-05 -5.58686e-20)
(-0.000124584 -0.000402071 -3.86226e-19)
(-0.000145275 -0.00036367 7.53365e-19)
(-0.00010309 -0.000349622 9.57672e-19)
(0.00225001 0.00401421 -4.61137e-18)
(0.00257703 0.00327504 -7.88215e-18)
(0.000629031 -0.000376494 -3.50835e-18)
(0.000765106 -0.000234602 -4.32938e-18)
(0.000224168 -0.000122723 -5.20996e-21)
(0.000212132 -0.000112602 2.67896e-20)
(0.000209193 -0.000120197 -3.3157e-21)
(-0.000233934 -0.000719995 2.04408e-18)
(-0.000253224 -0.000743742 7.85599e-19)
(-0.000220559 -0.000749246 1.88165e-18)
(-0.0174427 0.00050539 1.71662e-18)
(-0.0146969 0.00540784 7.35197e-18)
(-7.72308e-05 4.63637e-05 1.45831e-20)
(-7.77031e-05 4.91973e-05 2.55562e-20)
(0.00157267 -0.000688114 -1.01717e-19)
(0.00145182 -0.000344934 -1.94688e-19)
(0.00127703 -0.000636081 5.68372e-19)
(0.000254307 -3.42522e-05 6.90341e-20)
(0.000262347 -3.69513e-05 3.81568e-20)
(0.00025707 -3.13227e-05 9.25212e-21)
(0.00672284 -0.00180707 1.55899e-19)
(0.00711128 -0.00419892 -1.35656e-19)
(-0.000118357 -0.00106211 -2.23322e-18)
(-0.000130203 -0.00101965 -3.63613e-19)
(0.000204031 0.000146999 -1.72384e-20)
(0.000237255 3.69312e-05 1.97795e-20)
(-0.0183213 0.0601389 9.26793e-19)
(-0.0390414 0.0489648 3.81034e-18)
(-0.00677459 0.0545179 1.3784e-17)
(0.00104889 0.000362965 2.32021e-18)
(0.00257431 0.00079749 -2.25899e-19)
(6.00701e-05 4.43263e-05 1.06094e-19)
(5.68468e-05 4.76561e-05 6.32956e-20)
(6.09893e-05 4.77825e-05 1.15541e-19)
(-0.000176482 7.20467e-05 -4.61886e-20)
(-0.000173052 6.54463e-05 7.89564e-20)
(-0.0904078 -0.122464 1.77008e-18)
(-0.103585 -0.119609 5.81637e-19)
(-7.35537e-05 4.26166e-05 -2.60406e-20)
(-7.68203e-05 4.33655e-05 -2.36328e-20)
(-0.0287242 0.105674 -1.27492e-18)
(-0.0501938 0.104391 2.18738e-18)
(0.000220445 -0.0018532 -4.43035e-19)
(0.00014084 -0.00172981 1.27537e-18)
(-0.00153671 0.000169338 -1.01939e-20)
(-0.00148905 -8.99442e-05 -3.94845e-20)
(-0.00186976 4.58705e-05 2.28594e-19)
(0.0122946 0.0125492 -3.36734e-18)
(0.0120781 0.0107766 5.26911e-18)
(0.00019691 -5.95303e-05 4.6522e-21)
(0.000194153 -6.21039e-05 -9.64129e-21)
(0.000199383 -6.39176e-05 6.60903e-21)
(-0.000612115 -8.58694e-05 -1.25901e-18)
(-0.000562176 -4.92178e-05 2.38543e-19)
(-0.000612511 -1.24568e-05 -6.43611e-19)
(0.00497278 -0.00352784 -1.14382e-17)
(-9.89687e-05 -5.49661e-05 -1.89867e-18)
(-9.61604e-05 -5.29443e-05 -5.04874e-19)
(-9.99384e-05 -5.00867e-05 7.3545e-19)
(-0.00187354 -0.0104319 1.65917e-18)
(-0.00113533 -0.00949012 2.16348e-18)
(0.00015813 -2.12463e-05 -1.93664e-20)
(0.000156842 -1.8039e-05 1.99892e-20)
(0.000154494 -1.93201e-05 -2.40063e-21)
(0.000136153 1.84837e-07 2.1532e-19)
(0.000145326 1.68527e-06 9.08064e-20)
(0.000155551 4.66705e-06 4.63429e-20)
(0.00161826 0.00178671 1.01761e-19)
(0.00121596 0.0015501 1.5151e-20)
(-0.000130848 3.86067e-06 7.8999e-20)
(-0.00013169 2.05091e-06 -1.52956e-19)
(0.00434651 -0.00336913 1.4675e-18)
(0.00436443 -0.00405508 -7.39827e-19)
(0.00511652 -0.00370548 -5.83952e-18)
(0.00235844 0.0253631 1.83796e-19)
(0.0011486 0.0291824 5.11069e-19)
(-0.00163448 0.0254379 5.89979e-19)
(-0.0116273 -0.0493624 5.84651e-20)
(-0.00426988 -0.00204145 1.52254e-18)
(-0.00354513 0.000525533 4.23133e-20)
(-0.00016075 0.000372483 6.45253e-20)
(-0.000267997 0.000285325 8.27465e-20)
(-0.000253037 0.000451163 -4.35729e-21)
(-0.000375795 -0.00119552 -7.35269e-19)
(-0.000323327 -0.00115882 -3.77676e-19)
(-0.000372088 -0.00112698 -6.76162e-18)
(0.0774982 0.00422363 3.56393e-18)
(0.0722108 0.00998209 7.49385e-18)
(-0.00020286 -0.000234226 2.66369e-19)
(-0.000207824 -0.000246818 -1.15191e-18)
(-0.000195934 -0.000244252 -9.84399e-19)
(-0.000580282 0.00133694 -7.84667e-20)
(-0.000799715 0.00112108 1.29005e-20)
(0.0124874 -0.107992 2.31889e-18)
(0.00625517 -0.108845 -5.20856e-19)
(0.0206703 -0.0893277 7.24963e-19)
(-0.0015467 0.000520834 -9.53522e-20)
(-0.00127341 0.000304554 -7.0537e-20)
(-4.56582e-05 0.000186363 1.14802e-19)
(-3.81825e-05 0.000204898 7.8112e-20)
(-0.000911408 0.00090606 -6.87547e-20)
(-0.000549075 0.000603705 4.58958e-20)
(-0.0554311 0.153818 6.14053e-18)
(-0.0551244 0.152674 2.34448e-18)
(-0.0722274 0.13208 1.36523e-17)
(-8.23269e-05 1.22414e-06 -3.03561e-19)
(-0.000108446 2.05083e-06 -3.84771e-19)
(-7.70954e-05 1.5875e-06 3.45209e-19)
(-0.000149548 -6.12155e-05 -9.91706e-20)
(-0.000148585 -5.89538e-05 7.4291e-19)
(-0.000153499 -6.22072e-05 2.80833e-19)
(-0.00810037 0.0169554 -2.38944e-19)
(-0.00583999 0.0159174 2.81896e-19)
(-0.00771462 0.0145238 -1.54794e-19)
(-9.7714e-05 -6.05406e-05 -4.65431e-19)
(-0.000101628 -5.72342e-05 5.55816e-19)
(0.0716946 -0.0715874 1.71961e-18)
(0.0737529 -0.0726836 -5.96045e-19)
(0.0688029 -0.0800911 -6.20409e-19)
(-0.000490775 -0.000232285 -4.45786e-19)
(-0.000448445 -0.000222241 1.30119e-18)
(-0.000461807 -0.000271561 -1.33612e-19)
(0.00545829 0.000105211 1.10136e-18)
(0.00573855 -2.0812e-05 2.01566e-19)
(0.00548783 -6.02861e-05 4.70702e-18)
(0.000192531 -7.95905e-05 4.99923e-21)
(0.000195616 -8.41074e-05 1.76805e-21)
(0.000199857 -8.26471e-05 -8.69535e-21)
(0.0046861 0.00101205 1.11207e-19)
(0.00449598 0.000745846 -9.06238e-19)
(0.00434643 0.00114399 6.17097e-18)
(-0.000423084 3.79473e-05 -8.18828e-21)
(-0.000407481 7.66784e-05 2.01711e-19)
(-0.00345915 -0.13698 -2.04262e-18)
(-0.00589887 -0.143253 3.51293e-19)
(-0.0109631 -0.155413 6.47974e-19)
(0.000180607 -5.82857e-05 -1.77691e-21)
(0.000183955 -5.72468e-05 1.93891e-20)
(0.00017847 -5.42344e-05 6.77625e-21)
(0.000284073 -5.76311e-05 4.16823e-21)
(0.0002764 -6.61494e-05 4.52301e-20)
(0.000272427 -5.22892e-05 -1.21172e-19)
(-0.00656608 0.0504536 -5.34337e-19)
(-0.0116538 0.0509908 -3.82465e-18)
(-0.0139093 0.0413909 -6.40015e-19)
(-0.0175649 -0.0157854 -6.30154e-20)
(-0.0185745 -0.0117679 -1.44906e-18)
(-0.0141972 -0.0131929 -2.88393e-19)
(0.00375638 0.046915 3.31714e-18)
(0.00610563 0.0703207 -1.25685e-18)
(-7.00592e-05 -3.76274e-05 7.64159e-19)
(-6.80335e-05 -3.49727e-05 -6.03298e-19)
(-7.17846e-05 -3.37258e-05 -4.28353e-20)
(0.00537987 0.000258423 -6.44451e-18)
(0.00517908 0.000242468 -5.95491e-18)
(-0.000513457 -0.000199797 -2.75705e-18)
(-0.000532473 -0.000248392 -1.42357e-18)
(-0.000113799 -0.000222075 -2.20888e-18)
(-0.000104792 -0.000226651 -5.13247e-19)
(-0.000264581 0.0113436 1.42315e-18)
(-0.000554718 0.0116442 -2.78127e-19)
(-0.000328191 0.0105536 5.38337e-18)
(0.00512113 0.00174201 -1.45839e-18)
(0.00587237 0.00186167 4.25525e-18)
(0.00536597 0.00262785 2.18006e-19)
(0.00516015 -0.00155732 6.94328e-18)
(0.00497309 -0.00145293 -2.74189e-18)
(0.00499565 -0.00171122 2.5895e-18)
(0.000135117 2.20144e-06 2.72759e-20)
(0.000137609 1.6374e-06 3.35334e-20)
(9.67919e-05 7.9069e-07 5.57478e-20)
(-0.000603981 -0.000811699 -4.16131e-18)
(-0.000594976 -0.000879498 -3.24045e-19)
(-0.000661111 -0.000846557 -3.71118e-18)
(0.000109277 -3.53653e-06 -1.35134e-20)
(7.89455e-05 -2.51338e-06 1.56739e-20)
(0.00340261 0.0084289 -1.81742e-18)
(0.0050856 0.00670567 -2.3605e-18)
(0.00273519 0.00546839 4.76121e-18)
(0.000177777 -5.89598e-05 7.91825e-21)
(0.00018342 -6.29222e-05 -2.44626e-21)
(-0.00383614 -0.00187826 2.2183e-19)
(-0.00340515 -0.00168707 -1.49328e-18)
(0.0133575 -0.0583676 -2.67187e-19)
(0.0196546 -0.0520911 -1.59665e-18)
(0.0201648 -0.0622485 -1.00625e-18)
(5.91843e-05 4.09145e-05 -8.0816e-20)
(6.33291e-05 4.1574e-05 -3.59079e-20)
(-5.56686e-05 0.000397096 2.35989e-20)
(0.00013926 -0.000486038 1.95619e-19)
(0.000246338 -0.000457481 1.48704e-18)
(0.00021235 -0.000569528 6.56191e-19)
(0.00421013 -0.0116057 1.21311e-19)
(0.00346679 -0.00996664 -6.27855e-20)
(0.00215471 -0.0110947 -7.49308e-19)
(0.0670059 -0.0710358 3.9062e-19)
(0.0719871 -0.0637382 -5.43716e-20)
(0.0602092 -0.0158912 -2.70118e-19)
(0.0547395 -0.00980359 -8.4262e-21)
(0.000299048 -6.3567e-05 7.16462e-21)
(0.00030838 -8.1189e-05 7.08585e-20)
(-0.00014621 -6.00394e-05 -5.1006e-19)
(-0.000151554 -6.38024e-05 -1.0796e-18)
(0.00379469 -0.0341225 -1.05412e-18)
(0.00431378 -0.0405338 2.22896e-18)
(-0.0415558 -0.0137113 -1.6037e-19)
(-0.037706 -0.0256274 -2.04104e-19)
(-0.0383294 -0.0101421 1.15592e-19)
(0.000443774 -0.000299623 -5.2382e-20)
(0.000398065 -0.000247312 9.93572e-21)
(0.000473163 -0.000225836 3.2258e-20)
(-0.0103722 0.0175376 1.94812e-19)
(-0.00832372 0.019575 -1.16796e-19)
(0.000154049 -9.96306e-06 -8.6134e-22)
(0.000154393 -8.96267e-06 3.87207e-21)
(0.00480448 -0.000762066 -3.378e-18)
(0.00484373 -0.000842406 -2.86849e-19)
(0.0048265 -0.000970329 -1.26212e-18)
(0.000497395 -0.00147456 3.06079e-19)
(0.000603895 -0.00138443 -3.778e-18)
(0.0175527 -0.0842896 8.63402e-19)
(0.0215586 -0.0647506 5.64184e-19)
(0.011633 -0.0734201 -2.40804e-19)
(-0.000120556 -5.30704e-05 -2.66496e-18)
(-9.91905e-05 -5.40501e-05 -7.0504e-19)
(-0.000117641 -7.30734e-05 -7.72725e-19)
(-0.000257149 0.000385989 1.13529e-18)
(-0.000231457 0.000284169 -1.34463e-18)
(-0.000166853 0.00034915 -1.3485e-18)
(0.00340225 -0.00547601 -6.21285e-20)
(0.00460516 -0.00522165 7.95062e-20)
(0.00357796 -0.00406627 1.78493e-19)
(-0.0439073 7.23812e-05 -3.71008e-19)
(-0.0426954 -0.0182098 -3.92237e-20)
(-0.000157197 -0.00012886 -1.34749e-18)
(-0.000159093 -0.000130261 9.0009e-20)
(-0.000159338 -0.000126047 -1.16053e-18)
(-0.00013263 -2.94078e-05 6.50416e-19)
(0.000123326 -0.000881661 3.37149e-18)
(9.52007e-05 -0.00083707 -1.15429e-19)
(0.000158414 -0.000850449 4.55562e-19)
(-0.078907 0.100123 -1.4566e-18)
(-0.103758 0.0971576 2.51007e-18)
(-0.0744647 0.0849002 7.32977e-18)
(0.00616871 0.024705 -6.76076e-19)
(0.00374745 0.0217771 3.54371e-19)
(0.00425309 -0.00260346 6.21321e-19)
(0.00184395 -0.00239716 -1.31507e-18)
(-0.0102255 0.00107538 -1.6813e-17)
(-0.00800994 0.000777027 -1.69041e-18)
(-0.00912046 -0.00024066 -8.97282e-20)
(-4.34196e-05 -7.81281e-05 1.44336e-18)
(-4.20725e-05 -7.29208e-05 2.51225e-19)
(-4.71402e-05 -7.503e-05 7.55969e-19)
(0.000288091 -5.04467e-05 -6.48405e-20)
(-0.00278553 -0.00167492 -7.32382e-20)
(-0.00312169 -0.00136537 4.47966e-20)
(-0.00266699 -0.00111813 -1.32572e-19)
(0.0704825 -0.0352826 -1.30303e-19)
(0.0584532 -0.0421497 4.76249e-18)
(0.0691288 -0.0417388 3.42579e-18)
(0.000195953 0.000134406 -1.10649e-20)
(0.000233762 0.000126597 -8.97884e-20)
(0.000228405 0.000174241 6.99305e-20)
(0.0174467 0.0108324 2.33306e-18)
(0.0195562 0.00900973 1.67635e-18)
(0.0185678 0.011907 1.1825e-19)
(-0.000209613 -0.000226214 -1.41485e-18)
(-0.000203376 -0.000219909 2.13928e-18)
(-0.00015493 -0.000132892 -4.77917e-19)
(-0.000155069 -0.000127082 1.91322e-18)
(-0.000474979 -0.000645825 -5.12487e-18)
(-0.000506281 -0.00061257 -1.46763e-18)
(-4.66236e-05 0.0119687 7.62834e-19)
(3.85671e-05 0.0109805 -1.36201e-18)
(0.0011838 0.0125506 -1.4347e-18)
(0.000604006 0.00962017 -1.17334e-19)
(-0.00163718 0.0112097 -1.56568e-20)
(0.00274588 -0.0070848 1.05739e-18)
(0.00217377 -0.005598 -4.65752e-19)
(-0.000225689 -0.000249706 6.13562e-19)
(0.0305388 -0.0478488 5.20014e-19)
(0.0299336 -0.0424068 -7.05054e-19)
(0.0356198 -0.0463227 -4.72741e-18)
(-0.000192833 -0.00193448 7.71411e-19)
(-7.59725e-05 -0.00183265 -8.63653e-19)
(-0.0003629 0.00239057 -1.07884e-18)
(-0.000387093 0.00198231 8.65812e-20)
(-8.93026e-05 5.77866e-05 7.48266e-20)
(-8.53835e-05 5.69124e-05 9.10076e-20)
(0.0101292 -0.0413929 -1.77295e-19)
(0.00643911 -0.0261166 -4.11944e-20)
(0.0104607 0.0103226 9.12244e-20)
(0.00902322 0.014463 2.46865e-20)
(0.00680392 0.0119194 1.53571e-19)
(0.00510437 -0.00369949 5.05196e-18)
(0.00451959 -0.00355546 2.58752e-19)
(0.0045119 -0.00384538 -1.58522e-18)
(-0.0209709 0.0446794 5.52804e-20)
(-0.0180995 0.0562422 9.62441e-21)
(0.00049387 -0.000353327 -1.86532e-20)
(0.000393263 -0.000339624 -7.33911e-21)
(0.0001791 -7.05384e-05 -4.29386e-21)
(0.000185754 -7.54558e-05 9.63176e-21)
(0.000180095 -7.46295e-05 1.03844e-21)
(0.000113673 -5.37969e-06 3.13756e-21)
(0.000115839 -5.27627e-06 -4.72782e-21)
(0.000135542 -6.83549e-06 -9.62072e-21)
(0.000102002 -0.000893812 -6.62771e-20)
(0.000138679 -0.000912522 -9.07172e-19)
(0.080204 -0.0313065 1.48468e-19)
(0.0743177 -0.0358647 -1.12082e-18)
(-0.00913122 0.0691346 9.31879e-19)
(-0.00884956 0.0383584 2.60728e-19)
(0.0132786 0.0361102 -1.21923e-19)
(-4.58977e-05 0.000130177 -4.08667e-20)
(-4.12538e-05 0.000141478 -2.3994e-20)
(-5.29331e-05 0.000134812 -3.44352e-20)
(-2.4971e-05 -3.29433e-05 -1.311e-19)
(-2.91385e-05 -3.55781e-05 1.9633e-18)
(-2.54405e-05 -3.69488e-05 -8.18488e-19)
(0.0385005 -0.0494915 -3.44312e-18)
(0.0274742 -0.0501081 -8.66481e-19)
(0.0181376 -0.0404652 4.57894e-20)
(0.0135718 -0.0561582 8.39742e-18)
(0.0151051 -0.0547755 4.81853e-20)
(0.0127494 -0.00419319 1.75856e-18)
(0.0126506 -0.00256759 1.64562e-18)
(-0.000177112 -0.000577675 -5.12253e-20)
(-9.87542e-05 -0.00055995 -2.83817e-18)
(-6.79509e-05 -0.000186853 -1.42084e-18)
(-7.26311e-05 -0.0001823 9.6806e-19)
(-0.000173698 -0.00117475 4.6827e-18)
(-0.000212733 -0.00121324 -4.76856e-20)
(-0.000146967 -0.00123447 -7.45145e-18)
(0.0176576 -0.0275435 -5.06492e-18)
(0.0202339 -0.0304897 -7.20456e-20)
(0.0166051 0.0100085 -2.46083e-18)
(0.0151096 0.0127808 -3.46783e-18)
(0.00111652 -8.71956e-05 -4.21785e-19)
(0.000997702 -0.000134342 8.13742e-20)
(0.000988022 5.0058e-05 -5.76501e-19)
(-0.0564225 -0.00712492 -9.73402e-19)
(-0.0732862 -7.12084e-05 2.24719e-18)
(-9.27425e-05 6.43531e-05 1.98201e-20)
(-9.61422e-05 6.47572e-05 1.39916e-20)
(-9.26303e-05 6.09742e-05 2.62663e-20)
(0.0047807 -0.00055282 6.51246e-19)
(0.00483225 -0.000668152 -3.32861e-18)
(-0.000238841 -0.0006975 -2.63e-18)
(-0.000207738 -0.000701806 2.63274e-18)
(-0.000398456 -6.80673e-05 1.12199e-18)
(-0.000427655 -3.81372e-05 4.49945e-20)
(0.00572587 -0.00337276 2.30245e-18)
(0.0050158 -0.00343909 2.58033e-19)
(0.00519455 -0.00314094 8.26021e-19)
(-0.000275362 -0.000113821 1.08014e-19)
(-0.000287653 -0.000110096 3.1584e-19)
(-0.000285627 -0.000121653 2.29264e-19)
(-0.00322323 -0.0222226 4.08623e-19)
(-0.00489703 -0.0276185 1.1916e-18)
(0.00214222 0.00439262 -8.32079e-19)
(0.00179598 0.00489915 -8.3251e-19)
(0.00181437 0.00503713 -5.42514e-19)