/*--------------------------------*- C++ -*----------------------------------*\
| =========                 |                                                 |
| \\      /  F ield         | OpenFOAM: The Open Source CFD Toolbox           |
|  \\    /   O peration     | Version:  v2012                                 |
|   \\  /    A nd           | Website:  www.openfoam.com                      |
|    \\/     M anipulation  |                                                 |
\*---------------------------------------------------------------------------*/
FoamFile
{
    version     2.0;
    format      ascii;
    class       pointVectorField;
    location    "900";
    object      pointDisplacement;
}
// * * * * * * * * * * * * * * * * * * * * * * * * * * * * * * * * * * * * * //

dimensions      [0 1 0 0 0 0 0];


internalField   nonuniform List<vector> 
14332
(
(0 0 0)
(0 0.08 0)
(0 0 0)
(0 0.08 0)
(0 0 0)
(0 0 0)
(0 0 0)
(0 0 0)
(0 0 0)
(0 0 0)
(0 0 0)
(0 0 0)
(0 0 0)
(0 0 0)
(0 0 0)
(0 0 0)
(0 0 0)
(0 0 0)
(0 0 0)
(0 0 0)
(0 0 0)
(0 0 0)
(0 0 0)
(0 0 0)
(0 0 0)
(0 0 0)
(0 0 0)
(0 0 0)
(0 0 0)
(0 0 0)
(0 0 0)
(0 0 0)
(0 0 0)
(0 0 0)
(0 0 0)
(0 0 0)
(0 0 0)
(0 0 0)
(0 0 0)
(0 0 0)
(0 0 0)
(0 0 0)
(0 0 0)
(0 0 0)
(0 0 0)
(0 0 0)
(0 0 0)
(0 0 0)
(0 0 0)
(0 0 0)
(0 0 0)
(0 0 0)
(0 0 0)
(0 0 0)
(0 0 0)
(0 0 0)
(0 0 0)
(0 0 0)
(0 0 0)
(0 0 0)
(0 0 0)
(0 0 0)
(0 0 0)
(0 0 0)
(0 0 0)
(0 0 0)
(0 0 0)
(0 0 0)
(0 0 0)
(0 0 0)
(0 0 0)
(0 0 0)
(0 0 0)
(0 0 0)
(0 0 0)
(0 0 0)
(0 0 0)
(0 0 0)
(0 0 0)
(0 0 0)
(0 0 0)
(0 0 0)
(0 0 0)
(0 0 0)
(0 0 0)
(0 0 0)
(0 0 0)
(0 0 0)
(0 0 0)
(0 0 0)
(0 0 0)
(0 0 0)
(0 0 0)
(0 0 0)
(0 0 0)
(0 0 0)
(0 0 0)
(0 0 0)
(0 0 0)
(0 0 0)
(0 0 0)
(0 0 0)
(0 0 0)
(0 0 0)
(0 0 0)
(0 0 0)
(0 0 0)
(0 0 0)
(0 0 0)
(0 0 0)
(0 0 0)
(0 0 0)
(0 0 0)
(0 0 0)
(0 0 0)
(0 0 0)
(0 0 0)
(0 0 0)
(0 0 0)
(0 0 0)
(0 0 0)
(0 0 0)
(0 0 0)
(0 0 0)
(0 0 0)
(0 0 0)
(0 0 0)
(0 0 0)
(0 0 0)
(0 0 0)
(0 0 0)
(0 0 0)
(0 0 0)
(0 0 0)
(0 0.08 0)
(0 0.08 0)
(0 0.08 0)
(0 0.08 0)
(0 0.08 0)
(0 0.08 0)
(0 0.08 0)
(0 0.08 0)
(0 0.08 0)
(0 0.08 0)
(0 0.08 0)
(0 0.08 0)
(0 0.08 0)
(0 0.08 0)
(0 0.08 0)
(0 0.08 0)
(0 0.08 0)
(0 0.08 0)
(0 0.08 0)
(0 0.08 0)
(0 0.08 0)
(0 0.08 0)
(0 0.08 0)
(0 0.08 0)
(0 0.08 0)
(0 0.08 0)
(0 0.08 0)
(0 0.08 0)
(0 0.08 0)
(0 0.08 0)
(0 0.08 0)
(0 0.08 0)
(0 0.08 0)
(0 0.08 0)
(0 0.08 0)
(0 0.08 0)
(0 0.08 0)
(0 0.08 0)
(0 0.08 0)
(0 0.08 0)
(0 0.08 0)
(0 0.08 0)
(0 0.08 0)
(0 0.08 0)
(0 0.08 0)
(0 0 0)
(0 0 0)
(0 0 0)
(0 0 0)
(0 0 0)
(0 0 0)
(0 0 0)
(0 0 0)
(0 0 0)
(0 0 0)
(0 0 0)
(0 0 0)
(0 0 0)
(0 0 0)
(0 0 0)
(0 0 0)
(0 0 0)
(0 0 0)
(0 0 0)
(0 0 0)
(0 0 0)
(0 0 0)
(0 0 0)
(0 0 0)
(0 0 0)
(0 0 0)
(0 0 0)
(0 0 0)
(0 0 0)
(0 0 0)
(0 0 0)
(0 0 0)
(0 0 0)
(0 0 0)
(0 0 0)
(0 0 0)
(0 0 0)
(0 0 0)
(0 0 0)
(0 0 0)
(0 0 0)
(0 0 0)
(0 0 0)
(0 0 0)
(0 0 0)
(0 0 0)
(0 0 0)
(0 0 0)
(0 0 0)
(0 0 0)
(0 0 0)
(0 0 0)
(0 0 0)
(0 0 0)
(0 0 0)
(0 0 0)
(0 0 0)
(0 0 0)
(0 0 0)
(0 0 0)
(0 0 0)
(0 0 0)
(0 0 0)
(0 0 0)
(0 0 0)
(0 0 0)
(0 0 0)
(0 0 0)
(0 0 0)
(0 0 0)
(0 0 0)
(0 0 0)
(0 0 0)
(0 0 0)
(0 0 0)
(0 0 0)
(0 0 0)
(0 0 0)
(0 0 0)
(0 0 0)
(0 0 0)
(0 0 0)
(0 0 0)
(0 0 0)
(0 0 0)
(0 0 0)
(0 0 0)
(0 0 0)
(0 0 0)
(0 0 0)
(0 0 0)
(0 0 0)
(0 0 0)
(0 0 0)
(0 0 0)
(0 0 0)
(0 0 0)
(0 0 0)
(0 0 0)
(0 0 0)
(0 0 0)
(0 0 0)
(0 0 0)
(0 0 0)
(0 0 0)
(0 0 0)
(0 0 0)
(0 0 0)
(0 0 0)
(0 0 0)
(0 0 0)
(0 0 0)
(0 0 0)
(0 0 0)
(0 0 0)
(0 0 0)
(0 0 0)
(0 0 0)
(0 0 0)
(0 0 0)
(0 0 0)
(0 0 0)
(0 0 0)
(0 0 0)
(0 0 0)
(0 0 0)
(0 0 0)
(0 0 0)
(0 0 0)
(0 0 0)
(0 0.08 0)
(0 0.08 0)
(0 0.08 0)
(0 0.08 0)
(0 0.08 0)
(0 0.08 0)
(0 0.08 0)
(0 0.08 0)
(0 0.08 0)
(0 0.08 0)
(0 0.08 0)
(0 0.08 0)
(0 0.08 0)
(0 0.08 0)
(0 0.08 0)
(0 0.08 0)
(0 0.08 0)
(0 0.08 0)
(0 0.08 0)
(0 0.08 0)
(0 0.08 0)
(0 0.08 0)
(0 0.08 0)
(0 0.08 0)
(0 0.08 0)
(0 0.08 0)
(0 0.08 0)
(0 0.08 0)
(0 0.08 0)
(0 0.08 0)
(0 0.08 0)
(0 0.08 0)
(0 0.08 0)
(0 0.08 0)
(0 0.08 0)
(0 0.08 0)
(0 0.08 0)
(0 0.08 0)
(0 0.08 0)
(0 0.08 0)
(0 0.08 0)
(0 0.08 0)
(0 0.08 0)
(0 0.08 0)
(0 0.08 0)
(0 0.0799998 0)
(0 0.00265119 0)
(0 0.0799998 0)
(0 0.0799998 0)
(0 0.0799998 0)
(0 0.00304665 0)
(0 0.0799997 0)
(0 0.00214408 0)
(0 0.00133367 0)
(0 0.000580125 0)
(0 0.00455035 0)
(0 0.000948164 0)
(0 0.00155435 0)
(0 0.0799998 0)
(0 0.00432835 0)
(0 0.000641151 0)
(0 0.00487171 0)
(0 0.000637396 0)
(0 0.00557592 0)
(0 0.0799998 0)
(0 0.000562406 0)
(0 0.000594101 0)
(0 0.000377411 0)
(0 0.000367744 0)
(0 0.000300078 0)
(0 0.00243927 0)
(0 0.00101719 0)
(0 0.0799998 0)
(0 0.0799998 0)
(0 0.0799998 0)
(0 0.000252363 0)
(0 0.000170489 0)
(0 0.00422439 0)
(0 0.00450257 0)
(0 0.00448976 0)
(0 0.0056363 0)
(0 0.00302653 0)
(0 0.00214494 0)
(0 0.00137767 0)
(0 0.00071081 0)
(0 0.000930987 0)
(0 0.000570831 0)
(0 0.000481094 0)
(0 0.000193802 0)
(0 0.0799998 0)
(0 0.0799998 0)
(0 0.00010223 0)
(0 9.82499e-05 0)
(0 0.00622572 0)
(0 0.00355785 0)
(0 0.00298437 0)
(0 0.0025897 0)
(0 0.00213233 0)
(0 0.00187687 0)
(0 0.000839652 0)
(0 0.0011335 0)
(0 0.00146079 0)
(0 0.000307562 0)
(0 0.00109715 0)
(0 0.000518036 0)
(0 0.000343089 0)
(0 0.000304996 0)
(0 0.000249363 0)
(0 0.000451754 0)
(0 4.9329e-05 0)
(0 0.0751696 0)
(0 0.0749025 0)
(0 0.0753031 0)
(0 0.075026 0)
(0 0.0754166 0)
(0 0.0751289 0)
(0 0.0755092 0)
(0 0.0752127 0)
(0 0.0755871 0)
(0 0.075277 0)
(0 0.0756432 0)
(0 0.0753206 0)
(0 0.0756797 0)
(0 0.0753452 0)
(0 0.0757001 0)
(0 0.0753548 0)
(0 0.0757005 0)
(0 0.0753568 0)
(0 0.0756753 0)
(0 0.0753215 0)
(0 0.0756291 0)
(0 0.0752302 0)
(0 0.0755577 0)
(0 0.075124 0)
(0 0.0754578 0)
(0 0.0750137 0)
(0 0.075321 0)
(0 0.0748767 0)
(0 0.0751905 0)
(0 0.0747288 0)
(0 0.0750586 0)
(0 0.0745655 0)
(0 0.0748742 0)
(0 0.0743551 0)
(0 0.0746469 0)
(0 0.0740413 0)
(0 0.0737983 0)
(0 0.0734763 0)
(0 0.0237219 0)
(0 0.0229779 0)
(0 0.0732095 0)
(0 0.0728744 0)
(0 0.0231707 0)
(0 0.0224596 0)
(0 0.0725838 0)
(0 0.0722336 0)
(0 0.0226469 0)
(0 0.0219324 0)
(0 0.0221253 0)
(0 0.0214031 0)
(0 0.0719143 0)
(0 0.0715549 0)
(0 0.0215655 0)
(0 0.0208641 0)
(0 0.0712019 0)
(0 0.0708264 0)
(0 0.0209888 0)
(0 0.0203087 0)
(0 0.0201756 0)
(0 0.0704363 0)
(0 0.070038 0)
(0 0.0708504 0)
(0 0.0204024 0)
(0 0.0197411 0)
(0 0.0696055 0)
(0 0.0691926 0)
(0 0.0198137 0)
(0 0.020436 0)
(0 0.0191653 0)
(0 0.0759943 0)
(0 0.0751614 0)
(0 0.0749314 0)
(0 0.0754311 0)
(0 0.0752255 0)
(0 0.0756799 0)
(0 0.0754667 0)
(0 0.0759003 0)
(0 0.075665 0)
(0 0.0761032 0)
(0 0.0758653 0)
(0 0.0762903 0)
(0 0.0760438 0)
(0 0.0764644 0)
(0 0.0762036 0)
(0 0.0766136 0)
(0 0.0763505 0)
(0 0.0767401 0)
(0 0.0764852 0)
(0 0.0768597 0)
(0 0.0766027 0)
(0 0.0769634 0)
(0 0.0767021 0)
(0 0.077053 0)
(0 0.0767883 0)
(0 0.0764141 0)
(0 0.0764964 0)
(0 0.076869 0)
(0 0.0765767 0)
(0 0.0769331 0)
(0 0.0766337 0)
(0 0.0769796 0)
(0 0.0766798 0)
(0 0.0770224 0)
(0 0.0766989 0)
(0 0.0770429 0)
(0 0.0767198 0)
(0 0.0770457 0)
(0 0.0767688 0)
(0 0.077065 0)
(0 0.0767855 0)
(0 0.0770798 0)
(0 0.0767758 0)
(0 0.077068 0)
(0 0.0767538 0)
(0 0.077043 0)
(0 0.0767268 0)
(0 0.0770202 0)
(0 0.0766968 0)
(0 0.0769956 0)
(0 0.0766628 0)
(0 0.0769608 0)
(0 0.0766223 0)
(0 0.0769195 0)
(0 0.0765779 0)
(0 0.0760986 0)
(0 0.0764394 0)
(0 0.0763351 0)
(0 0.0766922 0)
(0 0.0192159 0)
(0 0.0185803 0)
(0 0.0687176 0)
(0 0.0683018 0)
(0 0.0772611 0)
(0 0.0186076 0)
(0 0.0179856 0)
(0 0.0677786 0)
(0 0.0673627 0)
(0 0.0179884 0)
(0 0.0173837 0)
(0 0.0173671 0)
(0 0.0667948 0)
(0 0.066374 0)
(0 0.0173589 0)
(0 0.0167759 0)
(0 0.0773973 0)
(0 0.0657718 0)
(0 0.0653338 0)
(0 0.0661389 0)
(0 0.0772938 0)
(0 0.0167241 0)
(0 0.0172478 0)
(0 0.0161648 0)
(0 0.0646929 0)
(0 0.0642434 0)
(0 0.0160962 0)
(0 0.0155519 0)
(0 0.0154698 0)
(0 0.0149378 0)
(0 0.0635614 0)
(0 0.0631037 0)
(0 0.0148476 0)
(0 0.0143235 0)
(0 0.0143992 0)
(0 0.0623731 0)
(0 0.061903 0)
(0 0.0138022 0)
(0 0.013873 0)
(0 0.0137092 0)
(0 0.0611338 0)
(0 0.0606758 0)
(0 0.0613837 0)
(0 0.0601926 0)
(0 0.0608825 0)
(0 0.0596982 0)
(0 0.0603968 0)
(0 0.0591738 0)
(0 0.0584226 0)
(0 0.0579 0)
(0 0.0586178 0)
(0 0.0573797 0)
(0 0.013202 0)
(0 0.013099 0)
(0 0.0565689 0)
(0 0.0560564 0)
(0 0.0568673 0)
(0 0.055534 0)
(0 0.0750275 0)
(0 0.0126242 0)
(0 0.012494 0)
(0 0.0563274 0)
(0 0.0549882 0)
(0 0.0541483 0)
(0 0.0536088 0)
(0 0.0544335 0)
(0 0.0530497 0)
(0 0.053852 0)
(0 0.0524656 0)
(0 0.053231 0)
(0 0.0518585 0)
(0 0.0525975 0)
(0 0.0512372 0)
(0 0.050451 0)
(0 0.0498435 0)
(0 0.0687663 0)
(0 0.0119956 0)
(0 0.0118882 0)
(0 0.0506085 0)
(0 0.0492284 0)
(0 0.0484141 0)
(0 0.0478117 0)
(0 0.0486053 0)
(0 0.0472004 0)
(0 0.0479712 0)
(0 0.0465792 0)
(0 0.0114073 0)
(0 0.0112886 0)
(0 0.0117929 0)
(0 0.0457634 0)
(0 0.0451595 0)
(0 0.0459508 0)
(0 0.0445479 0)
(0 0.0453138 0)
(0 0.0439243 0)
(0 0.0446656 0)
(0 0.04329 0)
(0 0.044006 0)
(0 0.042648 0)
(0 0.0418908 0)
(0 0.0412668 0)
(0 0.0420026 0)
(0 0.0406425 0)
(0 0.0108225 0)
(0 0.0109766 0)
(0 0.0106888 0)
(0 0.0398622 0)
(0 0.0392599 0)
(0 0.0400146 0)
(0 0.0386521 0)
(0 0.0393777 0)
(0 0.0380356 0)
(0 0.0387508 0)
(0 0.0374145 0)
(0 0.036679 0)
(0 0.0360778 0)
(0 0.0367804 0)
(0 0.0354697 0)
(0 0.0361364 0)
(0 0.0348582 0)
(0 0.0341466 0)
(0 0.0335658 0)
(0 0.0342475 0)
(0 0.0329828 0)
(0 0.033628 0)
(0 0.0323941 0)
(0 0.0102358 0)
(0 0.0100958 0)
(0 0.0317089 0)
(0 0.0311522 0)
(0 0.0318065 0)
(0 0.0305915 0)
(0 0.0312206 0)
(0 0.0300279 0)
(0 0.0306302 0)
(0 0.0294628 0)
(0 0.0288284 0)
(0 0.028289 0)
(0 0.0288966 0)
(0 0.0277467 0)
(0 0.0283245 0)
(0 0.0272012 0)
(0 0.0265973 0)
(0 0.0260789 0)
(0 0.0759795 0)
(0 0.0796792 0)
(0 0.0796235 0)
(0 0.0796547 0)
(0 0.0795962 0)
(0 0.0796265 0)
(0 0.0795573 0)
(0 0.0795941 0)
(0 0.0795276 0)
(0 0.0795598 0)
(0 0.0794895 0)
(0 0.0795226 0)
(0 0.0795897 0)
(0 0.0795533 0)
(0 0.0796173 0)
(0 0.0795772 0)
(0 0.0796418 0)
(0 0.0795978 0)
(0 0.0796592 0)
(0 0.0796147 0)
(0 0.0796711 0)
(0 0.0796248 0)
(0 0.0796808 0)
(0 0.0796325 0)
(0 0.0796875 0)
(0 0.0795717 0)
(0 0.0794549 0)
(0 0.0796367 0)
(0 0.0796904 0)
(0 0.0096691 0)
(0 0.00951065 0)
(0 0.0794499 0)
(0 0.0539216 0)
(0 0.0254475 0)
(0 0.024957 0)
(0 0.0615737 0)
(0 0.0277493 0)
(0 0.0796386 0)
(0 0.0796896 0)
(0 0.0442965 0)
(0 0.0527189 0)
(0 0.00911139 0)
(0 0.00893094 0)
(0 0.00935658 0)
(0 0.0602783 0)
(0 0.0606913 0)
(0 0.0593382 0)
(0 0.059731 0)
(0 0.0583119 0)
(0 0.0586899 0)
(0 0.0571956 0)
(0 0.0575414 0)
(0 0.0559751 0)
(0 0.0562777 0)
(0 0.0797304 0)
(0 0.0796352 0)
(0 0.0796848 0)
(0 0.0242982 0)
(0 0.023836 0)
(0 0.0757589 0)
(0 0.0453431 0)
(0 0.0546311 0)
(0 0.0549106 0)
(0 0.0565723 0)
(0 0.055173 0)
(0 0.0568294 0)
(0 0.0554012 0)
(0 0.0570568 0)
(0 0.0556041 0)
(0 0.0572613 0)
(0 0.0557816 0)
(0 0.0574359 0)
(0 0.0559234 0)
(0 0.0575777 0)
(0 0.0560261 0)
(0 0.0576892 0)
(0 0.0560994 0)
(0 0.0577632 0)
(0 0.0561383 0)
(0 0.0578012 0)
(0 0.0561411 0)
(0 0.0578051 0)
(0 0.0561071 0)
(0 0.0577739 0)
(0 0.0560401 0)
(0 0.0577055 0)
(0 0.0085394 0)
(0 0.00874652 0)
(0 0.00835254 0)
(0 0.0559433 0)
(0 0.0576049 0)
(0 0.0796258 0)
(0 0.0796754 0)
(0 0.0795723 0)
(0 0.0558136 0)
(0 0.0574706 0)
(0 0.0231514 0)
(0 0.0227184 0)
(0 0.0233723 0)
(0 0.0222821 0)
(0 0.0556531 0)
(0 0.0572989 0)
(0 0.00797635 0)
(0 0.00778223 0)
(0 0.0531863 0)
(0 0.0796138 0)
(0 0.0796616 0)
(0 0.0554415 0)
(0 0.057086 0)
(0 0.0591506 0)
(0 0.0229056 0)
(0 0.0218402 0)
(0 0.0211963 0)
(0 0.0207803 0)
(0 0.0551848 0)
(0 0.0568412 0)
(0 0.0797116 0)
(0 0.0593323 0)
(0 0.0201169 0)
(0 0.0197312 0)
(0 0.0549048 0)
(0 0.0565715 0)
(0 0.0584208 0)
(0 0.058168 0)
(0 0.056279 0)
(0 0.0579196 0)
(0 0.0559629 0)
(0 0.0576136 0)
(0 0.0556091 0)
(0 0.0572653 0)
(0 0.0795979 0)
(0 0.0796446 0)
(0 0.0797012 0)
(0 0.0796858 0)
(0 0.0796246 0)
(0 0.0796652 0)
(0 0.0797241 0)
(0 0.079702 0)
(0 0.0796399 0)
(0 0.079674 0)
(0 0.0797329 0)
(0 0.0797051 0)
(0 0.0797579 0)
(0 0.0797326 0)
(0 0.0797803 0)
(0 0.0797566 0)
(0 0.0797984 0)
(0 0.0797764 0)
(0 0.0798146 0)
(0 0.079793 0)
(0 0.0798305 0)
(0 0.0798072 0)
(0 0.0798422 0)
(0 0.0798191 0)
(0 0.0798511 0)
(0 0.0798291 0)
(0 0.0798592 0)
(0 0.079837 0)
(0 0.0798663 0)
(0 0.0798447 0)
(0 0.0798723 0)
(0 0.0798521 0)
(0 0.0798775 0)
(0 0.0798579 0)
(0 0.0798821 0)
(0 0.0798631 0)
(0 0.0798863 0)
(0 0.079868 0)
(0 0.0798902 0)
(0 0.0798718 0)
(0 0.0798928 0)
(0 0.0798751 0)
(0 0.0798949 0)
(0 0.0798775 0)
(0 0.079897 0)
(0 0.0798794 0)
(0 0.0798555 0)
(0 0.0798375 0)
(0 0.0797951 0)
(0 0.0797337 0)
(0 0.0796092 0)
(0 0.0799145 0)
(0 0.0799069 0)
(0 0.0552165 0)
(0 0.0568523 0)
(0 0.0592441 0)
(0 0.05403 0)
(0 0.00742949 0)
(0 0.00723364 0)
(0 0.0547805 0)
(0 0.0563992 0)
(0 0.0213796 0)
(0 0.022924 0)
(0 0.0543099 0)
(0 0.0559496 0)
(0 0.0798912 0)
(0 0.0190457 0)
(0 0.0186902 0)
(0 0.00689631 0)
(0 0.00669872 0)
(0 0.0070028 0)
(0 0.0543584 0)
(0 0.0798247 0)
(0 0.079738 0)
(0 0.00637714 0)
(0 0.00654868 0)
(0 0.017984 0)
(0 0.0176568 0)
(0 0.00617483 0)
(0 0.0541685 0)
(0 0.0748979 0)
(0 0.0169332 0)
(0 0.0166353 0)
(0 0.0172263 0)
(0 0.0173248 0)
(0 0.0163312 0)
(0 0.0169879 0)
(0 0.016021 0)
(0 0.00587202 0)
(0 0.00566856 0)
(0 0.0166457 0)
(0 0.0157053 0)
(0 0.0150668 0)
(0 0.0147779 0)
(0 0.05293 0)
(0 0.0513954 0)
(0 0.0511668 0)
(0 0.0495348 0)
(0 0.049315 0)
(0 0.0475871 0)
(0 0.0473768 0)
(0 0.0534488 0)
(0 0.0718864 0)
(0 0.0772943 0)
(0 0.0455785 0)
(0 0.0453854 0)
(0 0.0141263 0)
(0 0.0138643 0)
(0 0.0144837 0)
(0 0.0135966 0)
(0 0.0535227 0)
(0 0.00538282 0)
(0 0.00517988 0)
(0 0.0129655 0)
(0 0.0127239 0)
(0 0.0235819 0)
(0 0.0435263 0)
(0 0.0433522 0)
(0 0.0436981 0)
(0 0.0161575 0)
(0 0.0164134 0)
(0 0.0141856 0)
(0 0.00490856 0)
(0 0.0047093 0)
(0 0.00493772 0)
(0 0.0120822 0)
(0 0.0118662 0)
(0 0.0414057 0)
(0 0.0412641 0)
(0 0.0757113 0)
(0 0.0153274 0)
(0 0.015543 0)
(0 0.00445192 0)
(0 0.0046379 0)
(0 0.00424585 0)
(0 0.0112157 0)
(0 0.0110248 0)
(0 0.0647588 0)
(0 0.0642284 0)
(0 0.0650044 0)
(0 0.0644565 0)
(0 0.065219 0)
(0 0.0646576 0)
(0 0.0655031 0)
(0 0.0648261 0)
(0 0.0655852 0)
(0 0.0649291 0)
(0 0.0656659 0)
(0 0.0650007 0)
(0 0.0641832 0)
(0 0.0657173 0)
(0 0.0650368 0)
(0 0.0657349 0)
(0 0.0650122 0)
(0 0.0657132 0)
(0 0.0664435 0)
(0 0.0649532 0)
(0 0.0664122 0)
(0 0.0671328 0)
(0 0.0670891 0)
(0 0.0677981 0)
(0 0.0392254 0)
(0 0.0391227 0)
(0 0.0761086 0)
(0 0.0798716 0)
(0 0.058817 0)
(0 0.00396766 0)
(0 0.00380087 0)
(0 0.0144425 0)
(0 0.0146167 0)
(0 0.0103673 0)
(0 0.010201 0)
(0 0.0108257 0)
(0 0.0100253 0)
(0 0.0105242 0)
(0 0.0106179 0)
(0 0.00984048 0)
(0 0.00924345 0)
(0 0.00908157 0)
(0 0.0659129 0)
(0 0.0104018 0)
(0 0.0791451 0)
(0 0.0790298 0)
(0 0.0791315 0)
(0 0.0677436 0)
(0 0.0684407 0)
(0 0.0317767 0)
(0 0.0400776 0)
(0 0.0153573 0)
(0 0.0217228 0)
(0 0.0304307 0)
(0 0.0670164 0)
(0 0.0396914 0)
(0 0.0328628 0)
(0 0.0296565 0)
(0 0.038438 0)
(0 0.0599351 0)
(0 0.0369977 0)
(0 0.0369358 0)
(0 0.0389926 0)
(0 0.0368479 0)
(0 0.0388435 0)
(0 0.0367358 0)
(0 0.0386689 0)
(0 0.0365869 0)
(0 0.038466 0)
(0 0.0364067 0)
(0 0.0344577 0)
(0 0.0343096 0)
(0 0.0362232 0)
(0 0.0341606 0)
(0 0.0370293 0)
(0 0.0751702 0)
(0 0.0347163 0)
(0 0.0642531 0)
(0 0.0641524 0)
(0 0.0634349 0)
(0 0.0633028 0)
(0 0.0625675 0)
(0 0.00826852 0)
(0 0.00885344 0)
(0 0.00843711 0)
(0 0.00785558 0)
(0 0.00801305 0)
(0 0.00859045 0)
(0 0.00815543 0)
(0 0.00758241 0)
(0 0.007715 0)
(0 0.00872733 0)
(0 0.00714594 0)
(0 0.00726995 0)
(0 0.00670459 0)
(0 0.00682113 0)
(0 0.00737875 0)
(0 0.00692235 0)
(0 0.00657391 0)
(0 0.0074711 0)
(0 0.00700744 0)
(0 0.00355535 0)
(0 0.00646423 0)
(0 0.00654316 0)
(0 0.00338428 0)
(0 0.00357492 0)
(0 0.0321733 0)
(0 0.0320673 0)
(0 0.0339948 0)
(0 0.0319422 0)
(0 0.0762713 0)
(0 0.0520725 0)
(0 0.0764555 0)
(0 0.0762713 0)
(0 0.0747204 0)
(0 0.0790135 0)
(0 0.0791166 0)
(0 0.00848082 0)
(0 0.00834149 0)
(0 0.0746056 0)
(0 0.013502 0)
(0 0.0136402 0)
(0 0.0792254 0)
(0 0.0792106 0)
(0 0.0791005 0)
(0 0.0791943 0)
(0 0.0790824 0)
(0 0.079178 0)
(0 0.07906 0)
(0 0.0791572 0)
(0 0.0790306 0)
(0 0.0791312 0)
(0 0.079525 0)
(0 0.0338085 0)
(0 0.0317953 0)
(0 0.0683751 0)
(0 0.0690594 0)
(0 0.029871 0)
(0 0.0297672 0)
(0 0.0316338 0)
(0 0.0296407 0)
(0 0.0314533 0)
(0 0.0294931 0)
(0 0.0312608 0)
(0 0.0293336 0)
(0 0.0275214 0)
(0 0.0274042 0)
(0 0.0291606 0)
(0 0.0272696 0)
(0 0.0789987 0)
(0 0.079102 0)
(0 0.00754611 0)
(0 0.00316825 0)
(0 0.00332816 0)
(0 0.0147794 0)
(0 0.013767 0)
(0 0.0149289 0)
(0 0.0138727 0)
(0 0.0150715 0)
(0 0.0139607 0)
(0 0.0152048 0)
(0 0.00600536 0)
(0 0.00607931 0)
(0 0.0140341 0)
(0 0.0153196 0)
(0 0.0289686 0)
(0 0.0271139 0)
(0 0.0253977 0)
(0 0.0252604 0)
(0 0.0269425 0)
(0 0.025127 0)
(0 0.0267552 0)
(0 0.0249809 0)
(0 0.0265512 0)
(0 0.0248172 0)
(0 0.0232066 0)
(0 0.0230855 0)
(0 0.0246398 0)
(0 0.0229491 0)
(0 0.0244482 0)
(0 0.0227968 0)
(0 0.00298359 0)
(0 0.0212688 0)
(0 0.0211554 0)
(0 0.0226297 0)
(0 0.0210259 0)
(0 0.0624163 0)
(0 0.0616737 0)
(0 0.0638851 0)
(0 0.0140946 0)
(0 0.00773848 0)
(0 0.00762126 0)
(0 0.00819177 0)
(0 0.00749271 0)
(0 0.00803139 0)
(0 0.00735323 0)
(0 0.0689798 0)
(0 0.00681457 0)
(0 0.00669549 0)
(0 0.0757538 0)
(0 0.0696546 0)
(0 0.0697135 0)
(0 0.0784209 0)
(0 0.078225 0)
(0 0.0783298 0)
(0 0.0781285 0)
(0 0.078233 0)
(0 0.0793106 0)
(0 0.0277926 0)
(0 0.0799786 0)
(0 0.0799695 0)
(0 0.0799746 0)
(0 0.0799661 0)
(0 0.0799711 0)
(0 0.0799623 0)
(0 0.0799678 0)
(0 0.0799576 0)
(0 0.0799637 0)
(0 0.0799518 0)
(0 0.0799582 0)
(0 0.0799691 0)
(0 0.0799636 0)
(0 0.0799733 0)
(0 0.0799681 0)
(0 0.0799451 0)
(0 0.0799768 0)
(0 0.079972 0)
(0 0.0799621 0)
(0 0.0799661 0)
(0 0.0799764 0)
(0 0.0799695 0)
(0 0.0799588 0)
(0 0.0799623 0)
(0 0.0799721 0)
(0 0.0799652 0)
(0 0.0799744 0)
(0 0.0799673 0)
(0 0.079976 0)
(0 0.0799685 0)
(0 0.0799768 0)
(0 0.0799688 0)
(0 0.0799769 0)
(0 0.0799684 0)
(0 0.079976 0)
(0 0.0799514 0)
(0 0.0799778 0)
(0 0.0799674 0)
(0 0.0799742 0)
(0 0.0799588 0)
(0 0.0799584 0)
(0 0.0799502 0)
(0 0.078961 0)
(0 0.079068 0)
(0 0.022439 0)
(0 0.0195228 0)
(0 0.0125225 0)
(0 0.00554694 0)
(0 0.00561692 0)
(0 0.0061374 0)
(0 0.00567131 0)
(0 0.0470526 0)
(0 0.0780163 0)
(0 0.00279546 0)
(0 0.00260866 0)
(0 0.0234737 0)
(0 0.0792799 0)
(0 0.0789658 0)
(0 0.0789226 0)
(0 0.0790311 0)
(0 0.0695634 0)
(0 0.0688627 0)
(0 0.00786093 0)
(0 0.0779124 0)
(0 0.00617867 0)
(0 0.00570929 0)
(0 0.00520867 0)
(0 0.00524463 0)
(0 0.079965 0)
(0 0.0799714 0)
(0 0.0788858 0)
(0 0.0789892 0)
(0 0.0788407 0)
(0 0.07894 0)
(0 0.0702931 0)
(0 0.0703313 0)
(0 0.0663277 0)
(0 0.00615777 0)
(0 0.00605883 0)
(0 0.0194336 0)
(0 0.0178981 0)
(0 0.0614992 0)
(0 0.060757 0)
(0 0.0609287 0)
(0 0.060004 0)
(0 0.0601662 0)
(0 0.0592381 0)
(0 0.0593927 0)
(0 0.0584519 0)
(0 0.0586031 0)
(0 0.0576773 0)
(0 0.0577805 0)
(0 0.0568869 0)
(0 0.05694 0)
(0 0.0560279 0)
(0 0.0560907 0)
(0 0.0551615 0)
(0 0.0552316 0)
(0 0.0543074 0)
(0 0.0622308 0)
(0 0.0543598 0)
(0 0.0534402 0)
(0 0.0550337 0)
(0 0.0534765 0)
(0 0.0525632 0)
(0 0.0524907 0)
(0 0.0516187 0)
(0 0.0516769 0)
(0 0.0507384 0)
(0 0.0578534 0)
(0 0.0574134 0)
(0 0.0507814 0)
(0 0.0498494 0)
(0 0.0497772 0)
(0 0.0488943 0)
(0 0.048955 0)
(0 0.0480114 0)
(0 0.0480571 0)
(0 0.0471257 0)
(0 0.0471562 0)
(0 0.0462291 0)
(0 0.0462469 0)
(0 0.0453277 0)
(0 0.0452804 0)
(0 0.044389 0)
(0 0.044431 0)
(0 0.043502 0)
(0 0.0434245 0)
(0 0.0425475 0)
(0 0.0479175 0)
(0 0.0426185 0)
(0 0.0416756 0)
(0 0.0415697 0)
(0 0.0407133 0)
(0 0.0408034 0)
(0 0.0398576 0)
(0 0.0399294 0)
(0 0.0390019 0)
(0 0.039057 0)
(0 0.0381476 0)
(0 0.0381872 0)
(0 0.0372953 0)
(0 0.03732 0)
(0 0.036446 0)
(0 0.0124073 0)
(0 0.0404866 0)
(0 0.0114218 0)
(0 0.078424 0)
(0 0.0783257 0)
(0 0.0047505 0)
(0 0.00478555 0)
(0 0.0787852 0)
(0 0.0788846 0)
(0 0.0777913 0)
(0 0.0288435 0)
(0 0.0282425 0)
(0 0.0293072 0)
(0 0.0286813 0)
(0 0.0297165 0)
(0 0.0290666 0)
(0 0.0791935 0)
(0 0.00613545 0)
(0 0.00599808 0)
(0 0.00556155 0)
(0 0.00541784 0)
(0 0.00784474 0)
(0 0.00710123 0)
(0 0.00717264 0)
(0 0.0388981 0)
(0 0.0128029 0)
(0 0.0024298 0)
(0 0.00225588 0)
(0 0.00240065 0)
(0 0.0331889 0)
(0 0.0799799 0)
(0 0.0799771 0)
(0 0.0799667 0)
(0 0.079974 0)
(0 0.0799817 0)
(0 0.0799783 0)
(0 0.0799849 0)
(0 0.0799816 0)
(0 0.0799871 0)
(0 0.0799842 0)
(0 0.0799889 0)
(0 0.0799862 0)
(0 0.0799903 0)
(0 0.0799878 0)
(0 0.0799915 0)
(0 0.0799891 0)
(0 0.0799848 0)
(0 0.0799862 0)
(0 0.0799902 0)
(0 0.0799875 0)
(0 0.0799911 0)
(0 0.0799886 0)
(0 0.0799919 0)
(0 0.0799895 0)
(0 0.0799925 0)
(0 0.0799904 0)
(0 0.0799931 0)
(0 0.0799911 0)
(0 0.0799936 0)
(0 0.0799915 0)
(0 0.0799939 0)
(0 0.079992 0)
(0 0.0799943 0)
(0 0.0799924 0)
(0 0.0799946 0)
(0 0.0799929 0)
(0 0.0799949 0)
(0 0.0799933 0)
(0 0.0799907 0)
(0 0.0799912 0)
(0 0.0799936 0)
(0 0.0799916 0)
(0 0.0799939 0)
(0 0.0799919 0)
(0 0.0799942 0)
(0 0.0799923 0)
(0 0.0799884 0)
(0 0.079989 0)
(0 0.079987 0)
(0 0.0799812 0)
(0 0.0799705 0)
(0 0.0113339 0)
(0 0.0785044 0)
(0 0.0784076 0)
(0 0.0782162 0)
(0 0.0782975 0)
(0 0.0784827 0)
(0 0.0783693 0)
(0 0.0785493 0)
(0 0.0784311 0)
(0 0.0786056 0)
(0 0.0784834 0)
(0 0.0786526 0)
(0 0.0785253 0)
(0 0.0786905 0)
(0 0.0785584 0)
(0 0.0783808 0)
(0 0.0784093 0)
(0 0.0785825 0)
(0 0.0784293 0)
(0 0.0785982 0)
(0 0.0784399 0)
(0 0.0786063 0)
(0 0.0784405 0)
(0 0.0786029 0)
(0 0.0782727 0)
(0 0.0782442 0)
(0 0.078221 0)
(0 0.078431 0)
(0 0.0785878 0)
(0 0.0363865 0)
(0 0.0355608 0)
(0 0.0356008 0)
(0 0.0347419 0)
(0 0.0705651 0)
(0 0.0784098 0)
(0 0.0785628 0)
(0 0.00620237 0)
(0 0.0711719 0)
(0 0.0799818 0)
(0 0.0789022 0)
(0 0.0708919 0)
(0 0.0601084 0)
(0 0.069435 0)
(0 0.068707 0)
(0 0.061279 0)
(0 0.0619957 0)
(0 0.0799955 0)
(0 0.0282861 0)
(0 0.0178557 0)
(0 0.0776793 0)
(0 0.00552322 0)
(0 0.00544419 0)
(0 0.00594818 0)
(0 0.00535248 0)
(0 0.0790788 0)
(0 0.0799944 0)
(0 0.077549 0)
(0 0.0347597 0)
(0 0.0339102 0)
(0 0.0103387 0)
(0 0.0102843 0)
(0 0.0162893 0)
(0 0.0162791 0)
(0 0.00485199 0)
(0 0.00477911 0)
(0 0.00524853 0)
(0 0.0046931 0)
(0 0.00207376 0)
(0 0.00222926 0)
(0 0.0783773 0)
(0 0.078529 0)
(0 0.0782137 0)
(0 0.0787032 0)
(0 0.078668 0)
(0 0.0784866 0)
(0 0.0786242 0)
(0 0.0799962 0)
(0 0.0266037 0)
(0 0.00498232 0)
(0 0.00483293 0)
(0 0.00642913 0)
(0 0.00646428 0)
(0 0.0568649 0)
(0 0.028057 0)
(0 0.028419 0)
(0 0.0274337 0)
(0 0.0277735 0)
(0 0.0268108 0)
(0 0.0271289 0)
(0 0.0261891 0)
(0 0.0264855 0)
(0 0.0255686 0)
(0 0.0258433 0)
(0 0.0249498 0)
(0 0.025204 0)
(0 0.0243344 0)
(0 0.0260712 0)
(0 0.0254127 0)
(0 0.0262528 0)
(0 0.0255765 0)
(0 0.0263896 0)
(0 0.0270875 0)
(0 0.0271959 0)
(0 0.0264823 0)
(0 0.0154326 0)
(0 0.0148035 0)
(0 0.0149827 0)
(0 0.0142906 0)
(0 0.0145219 0)
(0 0.0138924 0)
(0 0.0140743 0)
(0 0.0134654 0)
(0 0.0136115 0)
(0 0.0130115 0)
(0 0.0131374 0)
(0 0.00429804 0)
(0 0.00433319 0)
(0 0.00424726 0)
(0 0.00480404 0)
(0 0.00435184 0)
(0 0.00190409 0)
(0 0.0729118 0)
(0 0.0787222 0)
(0 0.0788245 0)
(0 0.0787468 0)
(0 0.0707612 0)
(0 0.0713553 0)
(0 0.0701488 0)
(0 0.0339225 0)
(0 0.0787246 0)
(0 0.0272598 0)
(0 0.078795 0)
(0 0.0788388 0)
(0 0.0610078 0)
(0 0.0617102 0)
(0 0.0162911 0)
(0 0.0177847 0)
(0 0.0552605 0)
(0 0.0799897 0)
(0 0.00526283 0)
(0 0.00467303 0)
(0 0.00509655 0)
(0 0.00450319 0)
(0 0.00492174 0)
(0 0.00927767 0)
(0 0.00925964 0)
(0 0.00937209 0)
(0 0.0265315 0)
(0 0.00388879 0)
(0 0.00390916 0)
(0 0.00435345 0)
(0 0.00391274 0)
(0 0.0160776 0)
(0 0.0784323 0)
(0 0.0330928 0)
(0 0.0330821 0)
(0 0.035472 0)
(0 0.024055 0)
(0 0.0234626 0)
(0 0.0125377 0)
(0 0.0126573 0)
(0 0.0231587 0)
(0 0.0225896 0)
(0 0.0228727 0)
(0 0.0220224 0)
(0 0.0222848 0)
(0 0.0214567 0)
(0 0.0211721 0)
(0 0.0206289 0)
(0 0.0208931 0)
(0 0.020088 0)
(0 0.0198027 0)
(0 0.0192845 0)
(0 0.0189781 0)
(0 0.0184835 0)
(0 0.020332 0)
(0 0.00422878 0)
(0 0.00416031 0)
(0 0.0164762 0)
(0 0.00174655 0)
(0 0.0399516 0)
(0 0.0146972 0)
(0 0.0799935 0)
(0 0.0480635 0)
(0 0.0166349 0)
(0 0.0147425 0)
(0 0.0703325 0)
(0 0.0692706 0)
(0 0.0699876 0)
(0 0.0685157 0)
(0 0.0362156 0)
(0 0.0786518 0)
(0 0.00159204 0)
(0 0.0787491 0)
(0 0.0789102 0)
(0 0.078761 0)
(0 0.07743 0)
(0 0.0772904 0)
(0 0.0137387 0)
(0 0.0175952 0)
(0 0.0111738 0)
(0 0.0109273 0)
(0 0.0116929 0)
(0 0.0114173 0)
(0 0.0121755 0)
(0 0.0118726 0)
(0 0.0126223 0)
(0 0.0122935 0)
(0 0.0130335 0)
(0 0.0115648 0)
(0 0.0615362 0)
(0 0.0051322 0)
(0 0.00439771 0)
(0 0.018154 0)
(0 0.017691 0)
(0 0.00347684 0)
(0 0.00348336 0)
(0 0.0120425 0)
(0 0.0121585 0)
(0 0.0497588 0)
(0 0.0698144 0)
(0 0.0705176 0)
(0 0.0224086 0)
(0 0.0228054 0)
(0 0.0272809 0)
(0 0.00572191 0)
(0 0.0057197 0)
(0 0.0606874 0)
(0 0.059985 0)
(0 0.0613777 0)
(0 0.0623926 0)
(0 0.0265375 0)
(0 0.0258098 0)
(0 0.0119217 0)
(0 0.00370184 0)
(0 0.00365067 0)
(0 0.070912 0)
(0 0.0714556 0)
(0 0.00823264 0)
(0 0.00826051 0)
(0 0.0179941 0)
(0 0.0172444 0)
(0 0.070369 0)
(0 0.0126805 0)
(0 0.0115601 0)
(0 0.0116576 0)
(0 0.0110881 0)
(0 0.0111602 0)
(0 0.0697074 0)
(0 0.016921 0)
(0 0.0280404 0)
(0 0.0799809 0)
(0 0.0131212 0)
(0 0.0132116 0)
(0 0.0134096 0)
(0 0.0102491 0)
(0 0.00433747 0)
(0 0.0287321 0)
(0 0.00145153 0)
(0 0.0711381 0)
(0 0.0704779 0)
(0 0.0713391 0)
(0 0.0706814 0)
(0 0.0715216 0)
(0 0.0708657 0)
(0 0.0716917 0)
(0 0.0710374 0)
(0 0.0718423 0)
(0 0.0711941 0)
(0 0.0719747 0)
(0 0.071335 0)
(0 0.0720933 0)
(0 0.0714549 0)
(0 0.0721958 0)
(0 0.0715555 0)
(0 0.0707864 0)
(0 0.0708674 0)
(0 0.0716425 0)
(0 0.0709174 0)
(0 0.0717077 0)
(0 0.0709845 0)
(0 0.0717094 0)
(0 0.0710202 0)
(0 0.0717019 0)
(0 0.0710407 0)
(0 0.0717412 0)
(0 0.0710558 0)
(0 0.0717724 0)
(0 0.0710494 0)
(0 0.0717754 0)
(0 0.0710151 0)
(0 0.0702564 0)
(0 0.0702129 0)
(0 0.0709617 0)
(0 0.0701508 0)
(0 0.070883 0)
(0 0.0700644 0)
(0 0.070784 0)
(0 0.0699535 0)
(0 0.0699869 0)
(0 0.0702667 0)
(0 0.0701734 0)
(0 0.0694124 0)
(0 0.070661 0)
(0 0.0698181 0)
(0 0.0690702 0)
(0 0.0689279 0)
(0 0.0681257 0)
(0 0.0679814 0)
(0 0.0715703 0)
(0 0.0705096 0)
(0 0.072472 0)
(0 0.0721389 0)
(0 0.0671258 0)
(0 0.0669761 0)
(0 0.0678162 0)
(0 0.0668019 0)
(0 0.0723715 0)
(0 0.0726556 0)
(0 0.0676272 0)
(0 0.0666025 0)
(0 0.0672556 0)
(0 0.0661979 0)
(0 0.0663129 0)
(0 0.00132145 0)
(0 0.00145188 0)
(0 0.00648604 0)
(0 0.00570268 0)
(0 0.0064934 0)
(0 0.00566992 0)
(0 0.0788618 0)
(0 0.0790146 0)
(0 0.0790514 0)
(0 0.00454243 0)
(0 0.00305565 0)
(0 0.00306626 0)
(0 0.0133002 0)
(0 0.0338908 0)
(0 0.0330346 0)
(0 0.062044 0)
(0 0.0630253 0)
(0 0.00395721 0)
(0 0.00409884 0)
(0 0.0602906 0)
(0 0.0714567 0)
(0 0.0719855 0)
(0 0.0719812 0)
(0 0.0678204 0)
(0 0.0323145 0)
(0 0.0329831 0)
(0 0.00390474 0)
(0 0.072494 0)
(0 0.0724796 0)
(0 0.0724848 0)
(0 0.0785392 0)
(0 0.0784599 0)
(0 0.0105965 0)
(0 0.0106551 0)
(0 0.0112045 0)
(0 0.0106901 0)
(0 0.0596252 0)
(0 0.0589329 0)
(0 0.00667907 0)
(0 0.00668844 0)
(0 0.00717279 0)
(0 0.00716795 0)
(0 0.00766039 0)
(0 0.00667838 0)
(0 0.00319898 0)
(0 0.00316494 0)
(0 0.00358558 0)
(0 0.00311625 0)
(0 0.00321857 0)
(0 0.0130327 0)
(0 0.0137505 0)
(0 0.00648558 0)
(0 0.00562067 0)
(0 0.0272571 0)
(0 0.0265007 0)
(0 0.0175028 0)
(0 0.0674155 0)
(0 0.0663808 0)
(0 0.0655175 0)
(0 0.068385 0)
(0 0.013383 0)
(0 0.0115679 0)
(0 0.0117037 0)
(0 0.0114099 0)
(0 0.0785679 0)
(0 0.00264678 0)
(0 0.00266274 0)
(0 0.00306033 0)
(0 0.00266238 0)
(0 0.0186301 0)
(0 0.00721442 0)
(0 0.0775615 0)
(0 0.0773052 0)
(0 0.0774335 0)
(0 0.00117962 0)
(0 0.00129049 0)
(0 0.0703366 0)
(0 0.0710255 0)
(0 0.0679408 0)
(0 0.0677175 0)
(0 0.00106155 0)
(0 0.00350632 0)
(0 0.00305305 0)
(0 0.00267138 0)
(0 0.00262392 0)
(0 0.00261522 0)
(0 0.0789648 0)
(0 0.079107 0)
(0 0.00497983 0)
(0 0.00500565 0)
(0 0.00714197 0)
(0 0.00664845 0)
(0 0.0216066 0)
(0 0.0219724 0)
(0 0.0231998 0)
(0 0.0223347 0)
(0 0.023586 0)
(0 0.0226808 0)
(0 0.0239647 0)
(0 0.0230141 0)
(0 0.0243384 0)
(0 0.0233425 0)
(0 0.0247033 0)
(0 0.0101508 0)
(0 0.0101756 0)
(0 0.0698753 0)
(0 0.00351282 0)
(0 0.00365335 0)
(0 0.00336391 0)
(0 0.0626807 0)
(0 0.0797821 0)
(0 0.0652883 0)
(0 0.0643691 0)
(0 0.0771677 0)
(0 0.0772883 0)
(0 0.079683 0)
(0 0.0773709 0)
(0 0.0692365 0)
(0 0.0338076 0)
(0 0.0798509 0)
(0 0.0258497 0)
(0 0.0799836 0)
(0 0.0797305 0)
(0 0.0133546 0)
(0 0.0126465 0)
(0 0.061647 0)
(0 0.0112245 0)
(0 0.065192 0)
(0 0.0652964 0)
(0 0.0798993 0)
(0 0.0770924 0)
(0 0.0799957 0)
(0 0.0799108 0)
(0 0.00303712 0)
(0 0.00264493 0)
(0 0.00228017 0)
(0 0.00226952 0)
(0 0.075638 0)
(0 0.077323 0)
(0 0.0773331 0)
(0 0.0799932 0)
(0 0.0760798 0)
(0 0.0771959 0)
(0 0.0132829 0)
(0 0.0118093 0)
(0 0.0102232 0)
(0 0.0103665 0)
(0 0.0236661 0)
(0 0.0250647 0)
(0 0.0222802 0)
(0 0.0775785 0)
(0 0.0797311 0)
(0 0.058852 0)
(0 0.0724428 0)
(0 0.0593704 0)
(0 0.0671312 0)
(0 0.0668761 0)
(0 0.0674506 0)
(0 0.0665758 0)
(0 0.0658358 0)
(0 0.0787541 0)
(0 0.00093161 0)
(0 0.0790581 0)
(0 0.0329518 0)
(0 0.0141363 0)
(0 0.0786513 0)
(0 0.0634357 0)
(0 0.068166 0)
(0 0.0690862 0)
(0 0.0791819 0)
(0 0.0792227 0)
(0 0.0789766 0)
(0 0.0799836 0)
(0 0.0799868 0)
(0 0.0799889 0)
(0 0.0799912 0)
(0 0.0799927 0)
(0 0.0799944 0)
(0 0.0799954 0)
(0 0.0799931 0)
(0 0.0799957 0)
(0 0.0799946 0)
(0 0.0799967 0)
(0 0.0799958 0)
(0 0.0799939 0)
(0 0.0799963 0)
(0 0.0799975 0)
(0 0.0799948 0)
(0 0.079997 0)
(0 0.0799956 0)
(0 0.0799975 0)
(0 0.0799967 0)
(0 0.0172223 0)
(0 0.0181394 0)
(0 0.0713166 0)
(0 0.0711498 0)
(0 0.0719168 0)
(0 0.0717398 0)
(0 0.0724647 0)
(0 0.0722779 0)
(0 0.072636 0)
(0 0.00426707 0)
(0 0.00431603 0)
(0 0.0729737 0)
(0 0.0729402 0)
(0 0.078793 0)
(0 0.000826077 0)
(0 0.0408788 0)
(0 0.0303682 0)
(0 0.0307467 0)
(0 0.0314225 0)
(0 0.0693866 0)
(0 0.0159318 0)
(0 0.0346726 0)
(0 0.00801547 0)
(0 0.0358003 0)
(0 0.0796834 0)
(0 0.027915 0)
(0 0.0240211 0)
(0 0.0117472 0)
(0 0.0308472 0)
(0 0.0261011 0)
(0 0.00916753 0)
(0 0.0724388 0)
(0 0.0728773 0)
(0 0.00569185 0)
(0 0.00554572 0)
(0 0.00610848 0)
(0 0.00593334 0)
(0 0.00649848 0)
(0 0.0151527 0)
(0 0.0381773 0)
(0 0.01281 0)
(0 0.021116 0)
(0 0.0205355 0)
(0 0.0212982 0)
(0 0.0207001 0)
(0 0.0214405 0)
(0 0.0220597 0)
(0 0.0221785 0)
(0 0.00538766 0)
(0 0.0516859 0)
(0 0.0348393 0)
(0 0.000930706 0)
(0 0.0144459 0)
(0 0.0106738 0)
(0 0.00557033 0)
(0 0.0216571 0)
(0 0.00380036 0)
(0 0.00373353 0)
(0 0.00329111 0)
(0 0.00320839 0)
(0 0.00760037 0)
(0 0.0552757 0)
(0 0.00811202 0)
(0 0.0466782 0)