/*--------------------------------*- C++ -*----------------------------------*\
| =========                 |                                                 |
| \\      /  F ield         | OpenFOAM: The Open Source CFD Toolbox           |
|  \\    /   O peration     | Version:  v2012                                 |
|   \\  /    A nd           | Website:  www.openfoam.com                      |
|    \\/     M anipulation  |                                                 |
\*---------------------------------------------------------------------------*/
FoamFile
{
    version     2.0;
    format      ascii;
    class       volScalarField;
    location    "400";
    object      nut;
}
// * * * * * * * * * * * * * * * * * * * * * * * * * * * * * * * * * * * * * //

dimensions      [0 2 -1 0 0 0 0];


internalField   nonuniform List<scalar> 
13851
(
0.000676025
0.00160951
0.00171648
0.00408007
0.00672174
0.00127118
0.00291422
0.00675809
0.0133875
0.00672025
0.00036777
0.00672322
0.00302724
0.00514379
0.00119127
0.00149376
0.00226768
0.00413816
0.000679649
0.000778276
0.00102867
0.000766406
0.00131876
0.00672545
0.00350959
0.00214133
0.000599008
0.00201008
0.0130478
0.00674015
0.00979107
0.00344689
0.000924586
0.0139853
0.00049143
0.0130132
0.00672578
0.00197286
0.0141274
0.00291926
0.0142205
0.0131911
0.000193852
0.000179174
0.0132382
0.00575449
0.00674427
0.00156245
0.00142519
0.00283581
0.00326511
0.00285156
0.00149661
0.00205146
0.00469838
0.00276118
0.000779555
0.0147168
0.000330315
0.00508021
0.00672319
0.000958063
0.00672466
0.00135224
5.24414e-05
4.36736e-05
0.0030798
7.73318e-05
0.00287724
0.00625396
0.00947215
0.0009116
0.00373201
0.00373612
0.00182893
0.0010679
0.00365353
0.0067345
0.00257928
0.00672945
0.00251281
0.000568249
0.000488248
0.00598679
0.00549034
0.00990333
0.000806859
0.00292234
0.00627611
0.00969632
0.0020008
0.00298989
0.000296846
0.00916988
0.0139638
6.90999e-05
0.00630008
0.00146891
0.00358852
0.000201034
0.00142908
0.000158771
0.000136281
0.00323967
0.00628429
0.000697714
0.00547077
0.0099299
0.00307026
0.00444335
0.000460759
0.00606365
0.000395545
0.000472546
0.00107963
0.00215784
0.00672745
0.00674854
0.00343608
0.00671205
0.000104302
0.00601777
0.00240805
0.0122008
0.000490815
5.0133e-05
0.0057406
0.000297314
0.0145532
0.00101089
0.000769168
0.000773252
0.000939451
0.014129
0.000417819
0.0138823
8.87603e-05
0.009753
0.000211184
0.00121453
0.000474827
0.00147995
0.00606179
5.87202e-05
0.00434431
0.00125219
0.00673376
0.00924609
0.011265
0.000285837
0.00143514
0.000382575
0.000471603
0.000566207
0.00193552
0.00418764
0.00672301
0.0138444
0.00121762
0.00268054
0.00672498
0.0130543
0.000791697
0.00155999
0.00541058
0.0136686
0.0136993
0.00470071
0.000491121
0.00949508
0.00672328
0.00672598
0.000653182
0.00672226
0.0143771
0.000633957
0.00134109
0.00672711
0.00189511
0.00136781
0.000597553
9.68933e-05
0.000532106
0.00118094
0.000209666
0.0115475
0.000936925
0.000331448
0.00236431
0.00674335
0.00213999
0.00125697
0.00310278
0.00118274
0.00114111
0.00148306
0.000826946
0.00372056
0.00291495
8.82592e-05
0.000472197
0.0146488
0.0147779
0.00136429
5.62516e-05
0.0141371
0.000927269
0.00159408
0.0135601
0.00117818
0.0014974
0.00329044
0.000509263
0.00672517
0.000536114
0.000959374
0.00300046
0.000689148
0.00316367
3.2982e-05
0.00672611
0.000716371
0.00427327
0.0141441
0.000365327
0.0014886
0.00672573
6.6619e-05
0.00672529
0.000482751
0.0043743
0.000365537
0.0012286
0.00672398
0.0146875
0.00674129
0.00083075
0.014758
0.000197499
0.00672522
0.000224859
0.00580467
0.0130419
0.00150822
0.00103574
4.95767e-05
0.000674888
0.00183069
8.32207e-05
0.000458742
0.00340215
0.000550025
0.006735
0.00140729
0.00145594
0.0128782
0.00497507
0.00674183
5.13317e-05
0.00647813
0.000877648
0.00066391
0.0015301
0.000854841
0.000482124
0.00460074
0.000146816
0.00177664
0.00128331
0.00672446
0.00322531
0.000364817
0.0139146
0.00178637
0.00104058
0.00550714
0.00055901
0.000597573
0.00103479
0.000868325
0.0140152
0.00337295
0.00124276
0.00141721
0.00234671
0.00583705
0.00672287
0.000914695
0.000366606
0.006745
0.00672512
0.0067256
0.00672136
0.00115811
0.00672288
0.0136066
0.00105489
0.00407788
0.0128883
0.0114651
0.00242398
0.0006892
0.00324607
0.00132173
0.00214599
0.000990833
0.00538847
0.0101998
0.000695716
0.00672098
0.0101914
0.00672328
0.000598052
0.00490621
0.00086787
0.00264501
0.00125357
0.000353756
0.010954
0.000380872
0.000135186
0.0144159
0.0136085
0.00205284
0.00271135
0.00453565
0.000363613
2.71978e-05
2.82139e-05
0.000760226
0.000686029
0.00038315
0.00343733
0.000115197
0.00672047
0.00673125
0.00081056
0.0103713
2.79799e-05
0.00580897
0.0138097
0.000366457
0.000725128
0.00265017
0.00392997
0.000608451
0.00147673
0.00103595
0.00132328
0.0127739
0.00217922
0.000536753
0.00134528
0.000930747
0.000350435
0.00615598
0.00360305
0.000282513
0.00020384
0.000569876
0.000534529
0.0128224
0.00101547
0.0146442
0.000747211
0.00675667
0.00127148
0.000806218
0.00506747
0.000845069
0.00213534
0.00100344
0.00138772
0.000295577
0.00448339
0.00221876
0.000620417
0.000446547
0.00105253
0.00532492
0.000956341
0.0148724
0.00147111
0.0020776
0.000584167
0.000233118
0.00391538
0.00136831
0.000336816
0.0018538
0.00540206
0.00100691
0.00956656
0.00379208
0.00123592
0.00212215
0.00146277
0.000247823
0.00170334
0.00891905
0.00100864
0.00191878
7.81085e-05
0.000519946
0.000783274
0.00354624
0.00382331
0.000261431
0.00469538
0.000340004
0.000832573
0.00202639
0.00582295
0.000226719
0.0100933
0.00216137
0.00132862
0.00051126
0.000801714
0.00205639
0.00673905
0.00260191
0.000316194
0.00126666
0.000404078
0.00279148
0.00411594
0.00672256
0.0033253
0.000704191
0.00610584
0.00169539
0.00124534
0.00672546
0.00930693
0.000629156
0.000922709
0.00202959
0.00205343
0.00242503
0.000942708
0.00374653
0.00246792
0.00723362
0.00964237
0.000788949
0.000965404
0.00672446
0.00672274
0.00140297
0.00059497
0.00193832
0.00485008
0.0020392
0.000109068
0.00214334
0.00955037
0.00672304
0.00197339
0.0131851
0.000263915
0.00672874
0.00672345
0.00199231
0.00356431
0.000266659
0.00948125
0.00109258
1.47796e-05
0.00147868
0.00672426
0.0143629
0.000918288
0.000227136
0.00351221
0.0131863
0.00024049
0.000200485
0.00301891
0.000737292
0.000301274
0.00161339
0.0141879
0.000876009
0.00119121
0.00088675
0.00038202
0.00465942
0.0128863
0.00196403
0.000894391
0.000914985
0.0010751
0.000250098
0.000647525
0.00672152
0.00204351
0.0142911
0.00749633
0.00123032
0.00805316
0.00695764
0.000548685
0.00041385
0.00672455
0.000318435
0.00673202
0.00623318
0.000335595
0.0146948
0.00182117
0.00144733
0.000137537
0.000667083
0.00607589
0.00856035
0.00674039
0.0144832
0.00027516
0.00673037
0.00234851
0.000368402
0.0013178
0.00674399
0.00469333
0.000929509
0.00677805
0.0127368
0.000671797
0.000683379
0.00101149
0.00740785
0.00502886
0.0067839
0.000536384
0.00285295
0.00541103
0.00618803
0.0148625
0.000807103
0.00186972
0.00650134
0.00178396
0.0145299
0.014037
0.00644893
0.00387972
0.00559892
0.00257978
0.000779583
0.00249947
0.0067394
0.00099933
0.012986
0.000278258
0.0125903
0.00188121
0.006466
0.0131239
0.0067242
0.000338931
0.00189016
0.00178297
0.00104005
0.0123484
0.00490158
0.00133976
0.00240299
0.00279269
0.000534845
0.0131915
0.00733327
0.00267043
0.00491049
0.000134666
0.0128093
0.000972304
0.00165193
0.000413239
0.00229813
0.00144427
0.00425605
0.00897029
9.51495e-05
0.01449
0.00112051
0.0129372
0.00220429
0.000242032
0.000712368
0.00672382
0.000593676
0.0106713
0.000488883
0.00116225
0.00328043
1.42813e-05
0.000218843
0.00314084
0.00413148
0.00672296
0.000475091
0.00062983
0.00672299
0.0144008
0.00672287
0.00118853
0.000866403
0.00201593
0.00316461
0.00532314
0.000325096
0.00369102
0.000752104
0.0135992
0.000768439
0.0067263
0.00677188
0.000643627
0.00207427
0.00045168
0.00175921
0.000249752
0.00031445
0.0067241
0.00344924
0.00672551
0.00208692
0.00319314
0.0133392
0.000364213
0.00251796
0.00012881
0.000179654
0.0129597
0.00555332
0.00918666
0.000381113
0.000981436
0.00163645
0.000106364
0.00676048
0.00041801
0.00393886
0.0129338
0.0037616
0.00260218
7.32087e-05
0.00903889
0.0067257
0.00672554
0.00192469
0.00234189
0.00533111
0.00205134
0.000540761
0.00219191
0.00498545
0.000227517
0.000518026
0.000229514
0.00673336
0.00156521
0.00016357
0.001936
0.00136001
0.00119999
0.000225739
0.000469241
0.00167107
0.000937382
0.000949895
0.000113046
6.58073e-05
0.000662333
0.00927557
0.00363374
0.00149902
0.00882303
0.000288992
0.00687222
0.000688419
0.00449557
0.00138661
0.000516473
0.000768458
0.00672883
0.00672771
0.00208193
0.00359316
0.00197192
0.014574
0.0067266
0.00622964
7.61467e-05
0.00288195
0.000403976
0.00111312
0.00179919
0.00407473
0.000226028
0.000308952
0.00092246
0.00226809
0.000292066
0.00206973
0.00116055
0.000830481
0.000476965
0.00419534
0.00672537
0.000933568
0.00528744
0.0132479
0.00672107
0.000366767
0.0139404
0.000368276
0.014265
0.00446499
0.00111691
0.000223815
0.000383969
0.00672377
0.00339109
0.00673291
0.00625633
0.00672234
0.000546944
0.000393725
0.000147559
0.00171233
0.00123831
0.0133637
0.00672633
0.00478949
0.000504304
0.00672604
0.00672369
0.0135023
0.00122043
0.00531109
0.010203
0.00109113
0.000794556
0.00677622
0.0142314
0.000860499
0.00184182
0.000228206
0.00672378
0.00144209
0.00551802
0.00173841
0.00403537
0.000843528
0.000822985
0.000331016
0.0135763
0.000335072
0.000585557
0.0130616
0.00673177
0.0130769
0.00672401
0.00233651
0.00235051
0.00130154
0.00110746
0.000325236
0.000758075
0.00672465
0.00672632
0.000553439
0.00218822
0.00672489
0.00206468
0.000257196
0.0067212
0.000166293
0.000177094
0.00404272
0.000339755
0.00858443
0.000204817
0.00672366
0.000283814
0.00672667
0.00133726
0.00812185
0.0127698
0.0104124
0.012841
0.00249599
0.00273303
0.000131297
0.0012836
0.00596418
0.00100881
0.000819231
0.00589591
0.00206207
0.0013904
0.00446081
0.00674061
0.0003774
0.000726783
0.00198922
0.00672527
0.00114424
0.000365939
0.0146882
0.00197934
0.0067232
0.00283192
0.00146601
0.000957577
0.00672459
0.0148117
0.00675454
0.0039767
0.00672599
0.000199486
0.00106195
0.000114915
0.000859543
0.00378164
0.00160709
0.00672112
0.00056877
0.00142224
0.007195
0.00262168
0.00393612
0.0142928
0.000847266
0.00672055
0.00267975
0.00837947
0.00122136
0.0016372
0.00352784
0.00289673
0.00427729
0.000570065
0.00672439
0.00672109
0.00435545
0.00107881
0.00672347
0.00192498
0.0145987
7.81663e-05
0.0106236
0.0067398
0.00985006
0.00672493
0.00672108
0.00208472
0.00672359
0.00672518
0.010493
0.00880549
0.00313154
0.00672282
0.000776585
0.00597204
0.0035239
0.000292525
0.00687155
0.0144692
0.00187581
0.00167248
0.00672396
0.00104396
8.88576e-05
0.00570992
0.00672424
0.000234801
0.00407199
0.000867317
0.000510231
0.00111659
0.00672448
0.000708218
0.00145986
0.0027086
0.00115821
0.000681937
0.000707456
0.00672488
0.00365306
0.0036483
0.00641595
0.00142276
0.00592464
0.000959774
4.90321e-05
0.00247563
0.000278008
0.000822624
0.00672082
0.0121872
0.00133218
0.00672048
0.00283391
0.00149988
0.0145634
0.000523027
0.00673034
0.0006871
0.00538232
0.0014476
0.000480974
0.00101683
0.0011795
0.0147114
0.00672301
0.000970053
0.000630194
0.000805751
3.02682e-05
0.00153894
0.00054439
0.00193547
0.0146896
0.00409203
0.00578661
0.00105765
0.0097219
0.00277333
0.00362039
0.00118608
0.00376256
0.00228522
0.0067257
0.00204008
0.00672379
0.0143643
0.000556231
0.000425763
0.000430265
0.000967171
0.00673789
0.00253552
0.000807348
0.00245844
0.000740821
0.0130381
0.000690708
0.00116124
0.000319265
0.0098754
0.00136609
0.011028
0.00672997
0.000412349
0.00134959
0.00401015
0.000342534
0.00672449
0.00673002
0.000132059
0.00352418
0.000267932
0.00207536
0.000500339
0.000465824
0.000641314
0.000448001
0.00360709
0.01389
0.000625796
0.00672497
0.000720196
0.00152446
0.0114941
0.00112984
0.000143633
0.000899818
0.00154576
0.000243703
0.00300804
0.0126421
0.000910583
0.00680146
0.000574294
0.00672667
0.00668075
0.000685043
0.00404624
0.00356549
0.000315543
0.0067244
0.000760497
0.000268719
0.00550115
0.0119924
0.00325593
0.000940115
0.00183033
0.0125252
0.000633937
0.00672253
0.003624
0.000599535
0.00602959
0.00669732
0.00183726
0.00199653
0.0138675
0.00873241
0.00166814
0.0137655
0.00157309
0.00502068
6.51934e-05
0.00672721
0.000308082
0.00597617
0.0067213
0.00108633
0.00220221
0.0136648
0.00378369
0.000930371
0.0046189
0.00951547
0.000381064
0.00367538
0.00234617
0.000491756
0.00629688
0.00677999
0.000486078
0.0031199
0.00102879
0.0067424
0.000479666
0.000889465
0.000624378
0.000450412
0.0067795
0.00673825
0.00263231
0.00100696
0.00211036
0.0145682
0.00122102
0.00672338
0.0057248
0.00668989
0.000950206
0.00109091
0.0128268
0.0135905
0.000343231
0.00672438
0.000248139
0.00358934
0.00366297
0.0077496
0.00031971
0.00505288
0.0132265
0.00852089
0.00176994
0.00125285
0.0114808
0.00113935
0.000311529
0.00011356
0.000181176
0.00212634
6.02613e-05
0.00473567
0.00821702
0.00195332
0.00673001
0.000869242
0.000265542
0.000428749
0.00111697
0.00672282
0.00170856
0.00101342
0.00197859
3.52734e-05
0.00672373
0.00920267
0.00401144
0.00440238
0.00132
0.00198602
0.00672373
0.0126904
0.000726749
0.0141681
0.009545
0.00672427
0.000994445
0.000892527
0.00199518
0.000932092
0.00117568
0.00672535
0.00144567
0.000558865
0.00614076
0.00106619
0.00372078
0.0010771
0.00139516
0.000120681
0.00068892
0.000614177
0.00574674
0.000514874
0.0108271
0.000848108
0.00843734
0.00904689
0.0137386
0.00901348
0.00573535
0.00673303
0.00414877
0.000967682
0.00180974
0.000633459
0.00193838
0.00410188
0.00672373
0.0062451
0.00102195
0.00673375
0.00159799
0.00107415
0.00692781
0.00124048
0.00672605
0.0067243
0.0041482
0.00672305
0.00026628
0.000955344
0.000330446
0.00838876
0.00672951
0.00566081
0.014529
0.0141856
0.00302212
0.00455888
0.000138161
0.005897
0.00672608
0.000191035
0.00143142
0.0067254
0.00264473
0.00523198
0.00236638
0.000685871
0.000360587
0.00354
0.00431742
0.000522859
0.000922194
0.00672587
0.00694887
0.00424521
0.00101082
0.00672372
0.00322956
0.00123046
7.804e-05
0.00247206
0.000302538
0.00960479
0.0011383
0.013925
0.00431506
0.00383475
0.000240947
0.00672654
0.00175294
0.0020542
0.000156408
0.00221037
0.00491676
0.00672197
0.00553439
0.00214395
0.000420531
0.000975946
0.00287948
0.0067247
9.02278e-05
0.00676107
0.00831561
0.00672375
0.00093527
0.00177092
0.00691925
0.000541079
0.0067237
0.000869162
0.00672397
0.00217667
0.0002258
0.00384784
0.00131939
0.00672588
0.00185644
8.28233e-05
0.00118795
0.000256881
0.000280945
0.000404876
0.00154353
0.00107872
0.00114808
0.00579818
0.0038551
0.00211628
0.0011298
0.00672261
0.000543239
0.00672778
0.000929838
0.00672648
0.000223007
0.00140637
0.00673697
0.0025356
0.00124551
0.00672353
0.00136674
0.00672017
0.000166014
0.0102593
0.000840723
0.00437091
0.00672208
0.00672574
0.000147211
0.0067249
0.00672499
0.00196283
0.00109448
0.000930704
0.000229882
0.00281977
0.000469426
0.00614611
0.00672408
0.0067247
0.00672637
0.000246587
0.00617571
0.00101444
0.000966242
0.00672741
0.00672251
0.012395
0.00672509
0.000640771
0.00235007
0.0133416
0.000657532
0.000127789
0.000309105
0.00039601
4.99344e-05
0.0027992
0.000370547
0.000846907
0.0061792
0.00590465
0.00101153
0.00114649
0.00435427
0.000338412
0.00672419
0.00155047
0.000411073
0.00326339
0.000101476
0.00265755
0.000131993
0.00731185
0.00513496
0.00672399
0.00175083
6.37467e-05
0.00336201
0.000575426
0.000131862
0.0135274
0.00181015
0.00137816
0.00156341
0.000292272
0.00672612
0.000280403
0.00239892
0.00240438
0.00676226
0.0082668
0.000562927
0.000924619
0.012819
0.00206872
0.00169577
0.00672392
0.0028205
0.00672062
0.000745919
0.00793275
0.000418792
0.00429037
0.00922652
0.006724
0.000356669
0.000473002
0.00288263
0.000942903
0.00672466
0.0125607
0.00963081
0.0067827
0.00081871
0.00167898
0.000470659
0.000608465
0.00177209
0.000924145
0.00174268
0.000845721
0.00164081
0.00672387
0.00157369
8.02883e-05
0.00744111
0.00672446
0.000699068
0.000595428
0.00192145
0.00672589
0.00946147
0.00161818
0.000957712
0.00613301
0.000456858
0.000532766
0.000137009
0.00672416
0.00161828
0.000311873
0.000237266
0.000386636
0.00672361
0.00138453
0.00167846
0.000453438
0.006724
0.000265728
0.00189599
0.000301727
0.0131669
0.00202954
0.00330115
0.00055339
0.00527663
0.00036224
0.00672485
0.000914158
0.00157456
0.00100626
0.000459399
0.00161439
0.00031076
0.000337684
0.000857844
0.000988472
0.00673303
8.6223e-05
0.00175509
0.000421711
0.000453482
0.000852114
0.000477414
0.00672869
0.00512224
0.000267914
0.00297401
0.00170311
0.000988824
0.00528177
0.000332495
0.00174283
0.0131514
0.000201793
0.000287544
0.000567254
0.00107064
0.0067287
3.50039e-05
0.00678109
0.000473563
0.00186687
0.0126788
0.000603725
0.000220217
0.00672366
0.00397981
0.00672851
0.0015816
0.000700677
0.00518435
0.0116011
0.00280775
0.00672059
0.00053389
0.000148388
0.00672699
0.00884172
0.00672754
0.00102074
0.00174715
0.00215606
0.000776973
0.000971612
0.00431202
0.00048434
0.000484307
0.00106162
0.000404713
0.00672754
0.00464312
0.0126609
0.0067209
0.000921364
0.000755298
0.000375194
0.00757749
0.00672102
0.00142021
0.000464642
0.010738
0.00672568
0.00672377
0.00072604
0.00659285
0.00672063
0.000386382
0.000406288
0.000293227
0.000565971
0.000734047
0.000860008
0.00672669
5.15189e-05
0.0067265
0.00432527
0.000749657
0.00673134
0.00217535
0.000389479
0.0067231
0.00346871
0.000632659
0.0119326
0.00355405
0.00499418
0.0067242
0.00672802
0.000656928
0.0067242
0.0058749
0.0100376
0.00672594
0.000963461
0.00138952
0.0118353
0.000302406
0.00670557
0.000775072
0.000426693
0.00672254
0.0038452
0.00672405
0.00227677
0.00672452
0.00105702
0.00122434
0.00676353
0.00676421
0.000881068
0.00104694
0.000960654
0.000156066
0.000410053
0.0011553
0.0135829
0.00023816
0.00218838
0.00138634
0.000220744
0.000451272
0.00104979
0.00197584
0.00783163
0.00383744
0.00433941
0.00177452
0.00396246
0.000611847
0.000234154
0.00677667
0.00373843
9.58291e-05
0.00672526
0.00231628
0.00672435
0.0067349
0.00255305
0.00381396
0.00337036
0.00672056
0.00371744
0.00672267
0.000151693
0.00211906
0.00109738
0.000175261
0.00349403
0.00991087
0.000766246
0.00672501
0.00123675
0.00654521
0.000383351
0.00420526
0.012553
0.00104087
0.000779125
5.75415e-05
0.00853202
0.000550759
0.000676831
0.000573887
0.000312233
0.00370724
0.00222984
0.000110525
0.000577916
0.0034294
0.00674758
0.00661014
0.00275731
7.25906e-05
0.00718377
0.000542272
0.00470664
0.000847775
0.00100393
0.000824642
0.0106668
0.000717307
0.0067226
0.000310351
0.000478493
0.00143032
0.00672932
0.0067229
0.0141489
0.00672558
0.000594142
0.0137808
0.000644546
0.00475946
0.000312883
0.000929394
0.0069697
0.00672433
0.00503901
0.00672493
0.000540017
0.00246398
0.0035041
0.00119036
0.0143356
0.00551402
0.00672445
0.00725989
0.0043699
0.00278065
0.0033219
0.0107098
0.00614501
0.000848791
0.00672441
0.00788084
0.0136756
0.000440821
0.000113102
0.000453248
0.00450533
0.00672393
0.012415
0.00672245
0.00162062
0.00676632
0.00202556
0.00672422
0.00854318
0.00672586
0.00153721
0.00675481
0.000179267
0.00027024
0.00675699
0.000283112
0.0102361
0.00111773
0.00588702
0.00403475
0.000216073
0.000955499
0.000943336
0.000551897
0.00153875
0.00483569
0.0019764
0.00041533
0.00373244
0.00675302
0.00638811
0.000932047
0.000631264
0.000517737
0.000522227
0.0135005
0.00677552
0.00675422
0.000370336
0.00946052
0.000468587
0.000355968
0.000667887
0.00672679
0.00938942
0.00909221
0.00746631
0.00672418
0.0057838
0.0089906
0.000263299
7.82526e-05
0.0120361
0.00142959
0.000799667
0.000357346
0.00058054
0.00426642
0.000495327
0.000852918
0.0067323
0.00747413
0.00672435
0.000561404
0.00106239
0.00051682
0.000119278
0.000296147
0.00200549
0.00168304
0.000506853
0.00212485
0.0150883
0.000582796
0.00172313
0.000594613
0.00055795
0.000172006
0.00672367
0.000603892
0.000128348
0.000362707
0.00442742
0.000438336
0.000934944
0.000316889
0.00747601
0.000510177
0.00106036
0.000179991
0.00728917
0.00247697
0.00150906
0.00733428
0.000411374
0.00120033
0.00143285
0.00672366
0.000215208
0.00212673
0.0131388
0.000426383
0.00160638
0.00672456
8.52115e-05
0.000561536
0.000332276
0.00452291
0.00674428
0.00672551
0.000700672
0.00672432
0.00149254
0.00144159
0.0019282
0.000565648
0.0059772
0.000885219
0.0023942
0.00154102
0.00167696
0.00672569
0.00884913
0.00150027
0.00672723
3.78839e-05
0.000209595
0.000256588
0.00133537
0.000888336
0.0012865
8.07372e-05
0.00119828
0.00168226
0.00672424
0.00342814
0.00249831
0.00458033
0.00152043
0.00528459
0.00672478
0.000214298
0.00587357
0.000864767
0.00144615
0.000119488
0.00672785
0.000547238
0.00101417
0.011462
0.00672641
0.000318605
2.62436e-05
0.00122743
0.000282384
0.00149111
0.00216496
0.00023023
0.000495486
0.00249662
0.00102086
0.000966372
0.00672464
0.00561496
0.000327598
0.00672452
0.00265073
0.000327191
0.00672579
6.86395e-05
0.00592775
0.0148854
0.00819153
0.00571462
0.00809789
0.0104167
0.00266481
0.00672383
0.0105154
0.00675228
0.00669937
0.00672907
0.000188266
0.0135779
0.00396215
0.000469501
0.00449715
0.00143642
0.00032613
0.00553936
0.00672118
0.00429417
0.01488
0.00672426
0.00672382
0.00853519
0.00160056
0.00301649
0.0067279
0.00890855
0.0102944
0.0041112
0.000835103
0.00672554
0.0120944
6.38304e-05
0.00341658
0.0037871
0.00242611
0.00820458
0.00656319
0.00461314
0.00672538
0.00672604
0.0139009
0.00540712
0.000154049
0.0010671
0.00264875
0.00198852
0.000373498
0.000207072
0.000614195
0.00975982
0.0120556
0.00672324
0.00167868
0.00152873
0.00153971
0.0129171
0.00673194
0.004338
0.000430895
0.00136006
0.00131174
0.00672068
0.000407956
0.00059211
0.00388777
0.00672449
0.000420881
0.00244217
0.00091578
0.00179813
0.0142966
0.00127219
0.00016158
0.00219151
0.00460843
0.000974199
0.000894854
5.22979e-05
0.0138266
0.0106949
0.00672301
0.00502121
7.83921e-05
0.0146792
0.00252793
0.000580031
0.000707353
0.00326939
0.0087965
0.00672415
0.00105078
0.00862834
0.0148515
0.000305171
0.0144485
0.000582332
0.000831651
0.00675753
0.0133411
0.000610762
0.00484757
0.00675856
0.00797981
0.00673684
0.00672571
0.00108777
0.000363256
0.000353966
0.00372767
0.00982969
0.00170165
0.00569675
0.000516055
0.00791227
0.000145547
0.00437296
0.0124896
0.00103144
0.00168616
0.00184769
0.00672318
0.000487435
0.00672629
0.00164384
0.000156256
0.00222908
0.00673171
0.000400452
0.000807878
0.00675871
0.00762072
0.000972296
0.000631169
0.00677871
0.000113573
0.00672358
0.000243643
0.00171561
0.000166449
0.00176012
0.00915897
0.000221637
0.0143745
0.000353276
0.000555326
0.00673497
0.0084453
0.000153533
0.000397608
0.000105053
0.00672506
0.004823
0.000358472
0.000483049
0.000961485
0.0111763
0.0100064
0.000719649
0.00674464
0.000488416
0.000309148
0.00672404
0.00335183
0.00673274
0.000846421
0.000537741
0.000313659
0.0135262
0.00673554
0.00672299
0.00168577
0.000504674
0.00138237
0.00674584
0.0147575
0.00141121
0.00172732
0.00230595
0.00407161
0.00044454
0.0103159
0.000151861
0.000963334
0.000373068
0.00672427
0.00134177
0.000506652
0.000442153
0.00310394
0.00672009
0.0032385
0.0101224
0.0128958
0.00552043
0.000438588
0.00021302
0.00364233
0.00672261
0.00299777
0.0142935
6.76005e-05
0.000491204
0.00234802
0.00184157
0.00812996
0.000260461
0.000559839
0.00232733
0.000982771
0.00673602
0.000174565
0.000390229
0.00529561
0.0121991
0.0124157
0.0144379
0.0112858
0.0088271
0.00828931
0.0102118
0.00103654
0.0062
0.00913598
0.00779935
0.00431394
0.00293612
0.000957448
0.00466966
0.00553146
0.00348269
0.0142344
0.000926317
0.00672581
0.000629681
0.000760584
0.000740258
0.00889464
0.000428501
0.000833733
0.00672011
0.0143099
0.00177662
0.000373887
0.00182231
0.000860908
0.00244913
0.0067292
0.000692691
0.000677996
0.00100856
0.00143052
0.00135229
0.000796605
0.000974918
0.00836434
0.000354468
0.00153874
0.0111581
0.00105609
0.0067241
2.75467e-05
6.13985e-05
0.00550894
0.000628239
0.00310442
0.00113651
0.000816001
0.000426736
0.00672385
0.000251554
0.00147011
0.00123631
0.00018788
0.00672476
0.00168059
0.00969059
0.0127078
0.0150251
0.000524864
0.00188509
0.00673298
0.00549123
0.000977335
0.00675326
0.011061
0.00582648
0.00672596
0.00673502
0.0123345
0.000775596
0.00172926
0.00115582
0.000719243
0.000308187
0.000916528
0.000230073
0.0010846
0.000618837
0.00443243
0.00144277
0.00875502
0.000562166
0.014909
0.000856063
0.00672006
0.00673329
0.000740298
0.000609103
0.00672335
0.000270199
0.000884931
0.000455069
0.00724323
0.0036384
0.00625719
0.00672596
0.000177975
0.000461123
0.000514488
0.00673074
0.000411083
0.00106168
0.00767231
9.09516e-05
0.00043995
0.00672512
0.0126122
0.000422824
0.00788439
0.0074343
0.000991352
0.000942997
0.000477175
0.00766822
0.00022574
0.0130404
0.000502623
0.00388724
0.000536819
0.00549207
0.00773854
0.000787832
0.000707505
0.000851763
0.0146014
0.00439886
0.00442128
0.00981694
0.000593235
0.00908658
0.000250842
0.00672751
0.000659153
0.000741088
0.000162795
0.00414389
0.000518202
0.000185209
0.00113932
0.00672539
0.00462417
0.000320917
0.0014113
0.000161059
0.00428428
0.00340653
0.000274681
0.00199604
0.00319211
0.00672405
0.00056564
0.000294417
0.00155501
0.000714638
0.000542035
0.000526026
0.00322689
0.000203864
0.000958666
0.00083968
8.33041e-05
0.00231712
0.000166395
0.000156282
0.00585615
0.00103177
0.00749407
0.0100371
0.0035216
0.00017517
0.00779835
0.00485361
0.00133209
6.24835e-05
0.00959385
0.000456327
0.00797466
0.000552169
0.00469052
0.0013449
0.00673103
0.0013697
0.000574781
0.00261776
4.7297e-05
0.00100625
0.000298737
0.0116701
0.0131953
0.00292431
0.0116954
0.00656542
0.00170576
0.0122994
0.00672394
0.00672148
0.00934991
0.00275936
0.00672468
0.000623781
0.0129461
0.000554668
0.00186251
0.0108258
0.00672222
0.0122784
0.00975803
0.00672391
0.000330351
0.00111197
0.00992162
0.00973621
0.0102525
0.00855118
0.00672935
0.00101854
0.000619876
0.000929746
0.00672524
0.00106472
0.00672964
0.0107317
0.000726391
0.00015592
0.000907725
0.0111487
0.000726726
0.000942782
8.82804e-05
0.00250581
0.000485736
0.00189223
0.00673036
0.00257517
0.00035344
0.00674929
0.0105874
0.00539248
0.00328643
0.00264485
0.0144088
0.002151
0.00622632
0.000165449
0.000431678
0.000261444
0.00781017
0.00936557
0.000193264
0.00190145
0.00194349
0.00107498
0.00174537
0.000652026
0.00151973
0.00672444
6.89895e-05
0.000735413
0.000489337
0.00759511
0.000877507
0.000319124
0.000215661
0.000595359
0.00159692
0.00622825
0.000357359
0.00673467
0.000711611
0.000289284
0.00924183
0.0067245
0.000656552
0.00550698
0.00226398
0.000436599
0.00195234
0.000682796
0.00964486
0.000792692
0.000923827
0.00159132
0.0067235
0.0125151
0.0067235
0.00212655
0.000854077
0.0129768
0.000544159
3.15693e-05
0.000109352
0.0016291
0.00288993
5.84729e-05
0.000631965
0.0137404
0.000539147
0.00018782
0.000641966
0.00175066
0.00101391
0.00017417
0.000585505
8.4694e-05
0.000842423
0.000317821
0.0012709
0.00454837
0.000236943
0.00408877
0.000918896
0.00673182
0.00119944
0.000961417
0.000920046
0.0107808
0.00110955
0.000529287
0.00672198
0.0025323
0.00672434
0.00672423
0.00222864
0.0067268
0.0012734
0.00333268
0.00103292
0.000933537
0.00211876
0.00324642
0.000906014
0.00349535
0.0066728
0.00615388
0.00590941
0.00149154
0.000536685
0.00192433
0.00672417
0.000392008
7.42439e-05
0.000517169
0.0114516
0.00114307
0.0119622
0.00146992
0.00672438
0.0067232
0.00977501
0.00472797
0.00127197
8.62562e-05
0.000527654
0.00256019
0.0138847
0.00672365
0.000892893
0.004466
0.00144825
5.4595e-05
0.00157589
0.00256281
0.00178444
0.000226827
0.000969024
0.00136813
8.96517e-05
7.87545e-05
0.000275721
0.00160299
0.00243961
0.0016479
0.00152401
0.012882
0.00989517
0.0129318
0.00159957
0.00325993
0.00190767
0.00226764
0.00672561
0.001871
0.00672378
0.00193631
0.00408603
0.00630051
0.0064135
0.000474917
0.0039863
0.0016434
0.000264176
0.0028135
0.00466932
0.000542496
0.0149829
0.000329906
0.00325532
0.0123929
9.38157e-05
0.00400006
0.000174721
0.00672547
0.00019107
0.00083159
0.00010319
0.0107313
0.000284972
0.00818379
0.00673069
0.0106322
0.00286981
0.00117149
0.0017578
0.000528184
0.00672298
0.00014888
0.0127511
0.000100273
0.000730024
0.000498423
8.32317e-05
0.00458006
0.00678538
0.00236779
0.000332805
0.00182772
0.014697
0.00775451
0.000223696
0.00672476
0.000262165
0.000265894
0.000506298
0.00287284
0.00821228
0.00451688
0.00673039
0.00514769
0.000843641
0.00334281
0.00412247
0.012806
0.00644465
0.000369228
7.83936e-05
0.0066519
0.0139973
0.00237748
0.0143749
0.00410778
0.000512118
0.00171391
8.49856e-05
0.00236044
0.000804279
0.00673565
0.00218944
0.00704105
0.00197794
0.00027473
0.00110855
0.000865991
0.000190845
0.000517714
0.00440146
0.000181942
0.000813303
0.00211212
0.00149851
0.00552435
0.00674606
0.00672379
0.002165
0.00266233
0.000686579
0.00812027
0.000686847
6.35275e-05
0.00130805
0.0018797
0.0021189
0.0146328
0.0109316
0.00163216
0.00178573
0.00528667
0.00888301
0.000381593
0.000797028
0.00652709
0.0122849
0.00262019
0.000371317
0.0102548
0.000182176
8.98264e-05
0.00041957
0.00229687
0.00674913
0.000165555
0.00672617
0.0038434
7.31952e-05
9.41604e-05
0.00672267
0.00104226
0.00017151
0.000951846
0.00672631
0.00672193
6.93646e-05
0.00250126
0.00353797
0.00186847
0.0129927
0.00158638
0.000217099
0.00672416
5.64193e-05
8.08383e-05
0.00246427
0.000651762
0.00672623
0.0145356
0.0136431
0.000575281
0.000451877
0.000418938
0.000662109
0.00672372
0.00162976
0.00674097
0.00239993
0.00672504
0.00995235
0.00674211
0.00193677
0.000172278
0.000615921
0.00128183
0.00673165
0.0138976
0.000364793
0.00263646
0.00724757
0.000346926
0.000550612
0.0070706
0.00052519
0.000320349
0.0019956
6.59378e-05
0.000226259
0.000390906
0.014564
0.00672859
0.00369786
0.000183619
0.00939154
0.00672293
0.00102113
0.0141784
0.00672593
0.0046185
0.000594435
0.00439406
0.00672198
0.00296872
0.000417303
5.46446e-05
0.00215146
0.000498224
0.00650867
0.0031681
0.0089997
0.00888449
0.00568452
0.00179956
0.00461973
0.0016409
0.00672356
0.000344582
4.60732e-05
0.0134992
0.0028558
0.000338124
0.000705957
0.00672084
0.00672071
0.00507159
0.00240378
0.000440073
0.000506621
0.000910528
7.87366e-05
0.00602338
0.00221212
0.00673427
0.00673166
0.00718086
0.00172247
8.93979e-05
0.000469546
0.00306044
0.0004992
0.000160843
0.00824777
0.00900769
0.00672407
0.00644308
0.00115261
0.0010194
0.0144192
0.00672573