/*--------------------------------*- C++ -*----------------------------------*\
| =========                 |                                                 |
| \\      /  F ield         | OpenFOAM: The Open Source CFD Toolbox           |
|  \\    /   O peration     | Version:  v2012                                 |
|   \\  /    A nd           | Website:  www.openfoam.com                      |
|    \\/     M anipulation  |                                                 |
\*---------------------------------------------------------------------------*/
FoamFile
{
    version     2.0;
    format      ascii;
    class       volScalarField;
    location    "400";
    object      omega_0;
}
// * * * * * * * * * * * * * * * * * * * * * * * * * * * * * * * * * * * * * //

dimensions      [0 0 -1 0 0 0 0];


internalField   nonuniform List<scalar> 
13851
(
0.133217
0.0241674
0.0240473
4.86644
0.0220826
0.0260652
0.0239605
0.0218502
3.7793
0.0220431
0.0679439
0.0220806
0.0221109
5.50874
0.0364907
0.134334
7.77702
0.0219309
0.345394
0.13336
0.0414288
0.026191
23.083
0.0222638
7.64993
0.064577
0.249646
4.43392
3.5698
0.02177
4.66746
0.0239665
0.130929
4.86701
0.0452252
3.54942
0.0222741
9.97044
4.7568
0.0220854
4.73866
3.681
19.381
0.675295
3.86778
0.021891
0.021587
0.127823
0.0234561
0.0221054
7.92507
0.0221654
0.134
0.0303151
5.61531
0.0220839
0.13304
4.58298
0.341061
5.92727
0.0220881
0.250374
0.0220967
0.0235931
0.233995
0.249821
7.97256
0.0687052
0.0221282
4.59642
4.34102
0.0501241
0.0220217
7.17244
0.031961
0.0237501
6.32332
0.0216731
6.93041
0.0219529
0.0221432
0.393097
0.044512
5.11935
5.69731
4.50721
0.0263792
6.99976
0.0220314
4.69333
0.0222022
0.0240582
24.5358
4.39689
4.38759
0.392852
0.021921
0.13693
7.5082
0.196159
0.141453
0.0434989
0.0469515
0.0220672
0.0218774
0.0486256
0.021879
4.37809
0.0240561
0.0219073
0.0312239
0.0218893
0.176447
0.064976
0.127298
0.0295174
0.0217803
0.0218072
5.0301
4.80011
0.243985
0.0218143
0.0221162
3.99873
0.252188
0.127442
0.0219197
0.0585463
4.42541
0.0465243
0.0261214
0.0318158
6.83982
4.76207
0.069359
4.38922
0.0659714
4.43263
0.0361028
0.0459411
0.366596
0.0226291
0.0220309
0.111157
6.89778
0.0235066
0.0216661
4.41847
3.59989
0.0611177
0.140636
0.169414
0.0698932
0.257237
0.0222684
0.0220515
0.0221027
4.56907
0.0424205
0.02342
0.0222429
3.56035
0.0476883
0.12804
5.34443
3.96965
4.04028
6.50685
0.0307378
6.2347
0.0221033
0.0217837
0.0599199
0.0221392
4.50701
0.269731
0.152329
0.02177
0.0319077
0.148768
0.244125
0.630058
0.0298892
0.0460243
21.2306
3.57261
0.130867
0.0295546
0.0222015
0.0218248
6.16144
0.042376
7.4298
0.0261334
0.0233624
0.135444
0.126762
0.0221002
0.0221776
0.0722644
0.372858
4.46808
4.60291
0.0365468
2.95334
4.34707
0.0236928
0.0449839
3.83193
0.0254871
0.133769
0.0220987
0.387651
0.0222348
0.0461955
0.0245086
0.0220851
0.220106
0.0221707
3.83438
0.0217682
0.133551
6.18
4.43384
0.0292098
0.0454943
0.022264
0.0961711
0.0220142
0.0454666
7.21222
0.0291098
0.0254691
0.0221176
4.49214
0.0217642
17.9101
4.55347
0.17008
0.0222513
1.32554
5.48565
3.94128
0.132712
0.0331109
0.14776
0.197973
0.0320014
0.366211
0.0331278
6.39492
0.139108
0.0218515
0.0258761
0.138494
3.50954
4.73821
0.0218213
0.13334
0.0220285
0.185606
0.250683
0.026239
0.0482877
0.142645
0.0219815
0.0453774
0.108872
2.95611
0.0220827
0.0220827
0.029304
4.29371
6.72559
0.0462933
0.0218305
0.243597
0.253085
0.114484
0.0475923
4.18451
7.77698
0.0267308
0.033281
10.3569
0.0218674
0.0221021
0.118099
0.0589644
0.0217606
0.0222321
0.0220058
0.0220007
0.0328307
0.0220955
3.83826
0.0435536
0.0219803
3.48819
4.02394
0.0221891
0.135081
8.05796
0.0227521
0.0222132
0.0456193
5.42378
7.11382
0.0655589
0.0220728
6.15506
0.0220956
0.0716321
6.3808
2.76814
0.0233183
9.87076
2.18815
4.4373
0.166993
0.0464811
4.58324
4.04576
3.91568
0.022246
5.53613
22.3146
0.847208
0.750185
0.0237113
0.065249
0.0298065
6.28715
0.0492596
0.0218751
0.0215263
0.0276788
4.35135
3.23174
0.0218595
4.34782
0.030059
0.0321176
0.0235468
6.45375
0.241406
0.136229
0.0242436
0.0249608
3.46918
0.022211
0.265821
0.0266158
0.0455481
0.0305521
0.0220274
0.0219778
0.166143
0.216129
0.138812
4.04422
3.52355
0.0235845
4.44716
0.223155
0.0217096
2.91714
0.0909632
6.24042
0.027079
0.0684963
0.206426
7.29314
0.158938
5.3912
0.0226388
0.25896
15.3424
0.0303586
5.00095
0.0330708
4.73613
0.0328276
0.0390725
0.140394
0.292877
0.0220519
0.0263073
0.0636948
0.0320958
0.0219114
0.046611
5.36872
0.0220177
0.0452037
5.77542
0.0240673
4.95999
0.0432352
7.51846
0.0260178
0.0608897
2.2976
0.257669
0.0479268
5.64555
7.05831
1.14606
0.0219854
0.16194
0.0333491
0.0675769
0.0218299
20.4924
5.54691
7.39228
0.0249024
0.142819
0.251909
6.38681
0.0215969
7.17401
0.331778
23.5647
0.0341637
5.31986
0.0220367
0.0221269
6.77843
0.258738
0.0220408
0.0242123
0.0460848
0.0218177
5.55285
0.065418
0.089176
0.0255421
0.0226531
0.0221863
5.90139
0.0219786
0.022165
3.98095
5.38109
0.0257005
0.243999
0.0221035
0.0220943
0.0244093
0.140958
0.042757
0.0219208
0.0228608
0.229026
0.0232922
8.19585
0.0220758
0.0271004
3.93236
0.0357598
0.0215839
0.0221207
0.0254861
0.022226
1.14539
4.08502
0.0334082
7.67097
0.0244457
0.0220568
4.28267
0.221098
0.0354324
0.0220352
3.99921
0.0346788
6.69752
0.0220692
0.0320645
0.164201
0.0339145
4.15336
0.254005
6.98919
0.0238237
0.172969
0.0219775
3.51647
0.0431964
0.126582
0.0331095
0.0240187
0.0356225
0.0603016
0.0220944
6.76038
4.17683
8.58013
5.94548
4.08898
4.90535
0.261538
0.0281705
0.0222072
8.48827
0.0220458
0.0219112
0.0302631
4.59594
0.0239441
0.0226308
0.0916692
0.0483546
0.0220477
7.54173
0.0219254
4.5394
1.03551
0.0219491
0.0233397
0.339519
3.18776
0.0217673
10.3312
14.2372
0.0216777
4.50684
0.329407
0.133057
0.0237963
3.95759
6.16978
0.0216928
0.342419
0.0221202
0.0219259
3.64616
4.80434
0.039266
0.0419594
0.0220464
0.0550456
4.53855
4.51891
0.0217853
6.24882
0.0219178
0.0221348
0.0484216
0.0270546
0.0215907
0.0237675
4.56742
0.270408
4.42195
0.023624
0.0220248
4.31732
0.0221789
0.163181
0.0271237
0.0320705
0.0330429
4.1292
6.31415
0.0259401
7.23998
0.0231231
0.0656542
3.74072
4.40757
0.0221131
0.0219826
0.0472991
4.4441
0.235544
0.0540809
12.7607
0.0271748
0.0318902
9.43093
7.61329
0.166813
4.42622
0.177171
3.63947
0.0224488
0.349786
3.46184
0.0220778
18.6917
6.58893
0.0307215
0.045981
0.0220655
6.80255
0.079585
16.393
0.0219788
0.0221658
0.0265721
0.0477205
0.0220854
4.47004
0.0221601
0.171742
0.0238896
0.0690283
0.0220619
0.0220475
0.047066
6.6324
0.0479561
4.3376
0.0320616
0.0218267
0.0217622
0.0604396
0.0228588
0.104034
0.024376
0.0348588
0.280109
0.0221807
5.65895
0.0222537
0.0919806
6.24656
4.03186
0.0284434
16.6484
0.0886832
0.292115
6.45867
0.0218459
7.42645
0.0300487
0.0314119
5.68808
2.54133
0.0217196
0.101055
0.0220769
3.53294
7.09566
0.0222164
0.0724064
5.70271
0.0222635
0.0222522
0.0652816
6.98177
3.74771
0.0222201
0.141292
0.0230968
0.022046
0.274197
0.143087
0.181684
0.0215809
0.109147
0.046792
0.056823
0.0226611
0.0232064
0.0745805
0.02641
0.11843
0.0499252
0.0500558
0.13651
3.19252
0.3381
4.85697
10.0762
0.133952
4.20508
0.0401899
3.73784
0.136522
0.0218989
0.0312542
0.280289
0.0269806
0.0219554
0.0219521
0.0922394
6.02141
0.0272722
4.41225
0.0218306
3.87833
0.154545
8.62606
0.100733
0.02616
0.0240382
7.139
0.180011
0.0385628
0.252941
0.022509
6.70465
0.092877
0.174478
0.0327199
0.537282
0.0220333
0.0222454
0.0234076
0.022045
3.73515
0.0220005
0.252905
4.20513
0.103448
4.57676
6.67618
0.180292
0.315254
0.0285612
0.0221799
0.0220676
0.0216821
0.0217627
0.0221412
0.066056
0.169671
0.0506453
3.50214
0.0231147
3.7823
0.0222935
4.80455
0.0418563
0.0222836
0.0221327
4.03461
0.0262428
4.0315
6.57573
0.0439693
0.0667086
0.0216604
4.75569
0.0243932
0.0239811
0.338999
0.0221832
0.0226348
0.0218401
0.0433255
5.7362
0.0294099
0.0329959
0.365379
4.39443
0.0291507
0.0268966
3.72705
0.0216795
3.66126
0.0222022
0.0233001
6.53624
0.0779773
0.126108
0.0956497
0.048255
0.0222272
0.0222936
0.0710447
0.0224963
0.0222346
0.0277294
0.350177
0.0219842
0.268711
3.664
3.73975
0.0943103
5.29721
0.036603
0.0221753
0.156478
0.0218438
0.026341
4.7903
3.50634
7.45766
3.8509
0.0222854
0.0221855
0.0706668
0.0230468
0.0218389
23.4915
0.188722
4.80306
0.0932273
0.0796538
0.0220465
0.0217757
6.35441
0.0898539
0.0235956
0.0222529
0.125413
0.199262
4.49565
0.0222556
0.0221517
6.98179
0.0226382
0.0330734
0.0218224
4.66172
0.021923
5.64497
0.0220746
0.151556
0.0389091
0.0712055
0.0329247
0.0220217
0.0242383
0.0220223
0.221782
0.0226476
3.87157
0.0225737
4.38378
4.31678
0.0311458
0.0220038
5.10787
4.16017
0.0264151
0.0775272
0.0220676
6.52489
0.0219172
0.283101
0.022065
0.0220191
3.84522
0.0332245
0.0221107
0.0306812
4.45146
5.39432
5.7306
0.021825
4.02252
0.0220756
0.0219915
0.0222656
0.0214918
0.0222333
5.94548
4.94985
0.0221815
0.0221562
0.0395733
0.0218895
4.89015
0.160539
4.75452
4.66024
0.024204
0.11828
0.0220708
0.0414917
0.122321
0.0218284
0.0222104
1.66796
6.99057
0.0653902
16.967
0.0600136
0.0221009
0.0416963
0.0787518
7.78482
0.0316172
2.11661
0.0919566
0.0222238
14.4259
13.0916
4.42574
5.41253
3.58054
0.0237698
0.142894
0.0221674
0.855236
0.0264478
0.0218772
5.78451
0.023008
0.0220048
0.0221122
0.0228649
4.517
0.269732
0.0218702
0.0423867
5.44633
0.0231507
16.4233
0.0232275
0.0754114
4.71634
0.0220983
0.220199
0.0297302
0.0325966
6.05923
0.0229913
0.377696
0.0601225
4.66787
0.0221349
4.49119
0.0301084
4.21405
8.08479
5.80255
0.0438557
0.0220368
0.0222931
0.0222634
0.0372953
0.0221235
4.2402
0.0290441
0.0279672
0.0288808
0.0237054
0.0218229
0.0261798
0.02748
0.0233437
0.0271367
6.10386
0.208299
0.0292844
0.0509667
5.84147
0.0226803
4.38675
0.0216921
0.0331638
0.0226559
0.021938
0.0453678
0.0220515
0.0218649
0.0460493
0.0220583
0.329379
0.0227011
19.5829
1.33717
0.205096
0.290225
0.0220414
4.44128
0.15389
0.0222262
0.0273819
0.0225455
4.51914
0.0232072
0.045029
3.11186
6.51281
0.0847611
0.0221197
4.08298
2.13239
3.68011
0.0296382
0.0218176
0.0217682
0.0657262
0.0220359
7.45537
0.167199
0.0221977
0.22399
0.339521
0.0218281
6.24946
6.2636
0.184086
0.0226786
4.06745
0.0656924
0.0220218
6.3323
0.0267352
0.0218196
0.0219386
0.030797
0.0376677
3.96352
5.05999
0.0392828
4.0449
0.0324894
0.0220196
0.0834415
0.0219582
3.41428
0.0218037
0.0220465
0.0240133
0.022458
4.25635
5.64563
0.240723
6.5226
7.24728
0.0291206
0.0220228
0.0227068
0.389023
0.021785
0.0219049
0.0438877
7.28127
0.20739
0.0216451
0.0393644
0.0331612
0.134587
16.4544
0.0216723
0.0215785
0.0232608
6.6099
0.027691
4.53184
0.0231909
0.0221631
0.0218211
0.0219319
0.0244722
0.180133
3.687
3.93995
0.0288618
0.0220571
4.81894
0.0222261
5.95072
4.90626
0.0305044
5.48964
3.67326
4.80889
0.0511671
0.0313774
3.84498
0.0302396
0.0337401
0.0728594
0.298889
0.0224648
5.3189
0.0220218
4.62837
7.01308
0.0216962
0.0239009
0.0462554
0.382897
0.0329643
0.0221427
0.0273339
0.0232174
0.0252807
1.22548
0.0221626
4.20775
5.77186
0.0220243
0.0303772
0.037448
0.0220837
3.4522
15.4235
4.50138
3.46661
0.0220401
0.0246051
0.0265075
0.0222734
0.237403
0.0332572
0.0222566
0.0587544
0.0258386
4.70928
0.0389911
6.70997
0.0231194
0.0231795
0.0509995
0.0905447
0.0713156
0.0219846
17.2195
4.13178
26.1544
4.56924
4.71268
3.95177
4.32127
0.0219885
0.022026
0.0219614
0.235042
0.0422353
0.0711364
7.23193
0.0220829
0.0216631
0.0220445
0.211933
0.0216558
0.0262051
0.0236776
3.98672
0.0229399
0.0218517
0.0220873
0.0219734
0.0221629
0.0343531
0.231847
0.0338642
5.48659
0.0220346
0.0219325
4.42532
4.5137
6.71642
3.74576
0.0483385
3.8099
0.0218132
0.0617916
0.023183
0.02208
0.0238482
5.09875
0.022877
0.0920151
6.69573
0.0221567
0.0219271
0.0264082
0.183824
0.0222719
3.9828
0.0219458
0.211
0.0221258
0.0221818
0.0264821
0.0987273
0.0221197
0.245005
4.37713
0.181365
4.81493
0.0220379
6.517
0.273858
0.0220502
7.16524
0.0222673
0.0423899
0.0222061
0.02201
0.0219616
0.0220458
0.0224156
0.0271928
0.0641272
0.0221774
0.0220971
0.062667
0.0216964
8.33385
0.0221261
0.0316038
0.0322038
5.05916
2.09609
0.0221473
0.185645
0.0218174
0.0292621
0.0702814
3.53126
0.0458633
0.0222723
0.105074
0.0768641
0.0795177
0.383792
0.0357101
0.149686
0.0541527
0.0643761
0.0229049
0.0218286
3.7383
5.50416
0.0245222
0.0220179
15.7417
0.0218335
0.0412468
0.0219615
0.083707
7.88469
0.0215258
6.26584
0.0258994
0.0221706
0.148945
0.0218775
0.0405885
3.39273
0.039535
3.79024
0.0219565
0.0222648
0.044233
0.022226
0.0222465
0.0271775
0.0292031
0.0648243
0.0879641
0.0220898
0.0393323
0.0218189
0.022064
0.0222151
0.0220531
1.87972
0.0218371
0.0232666
0.243706
0.0218288
0.0220065
4.42048
0.0222497
19.0071
0.0230228
4.49542
0.232551
0.0520165
4.86501
0.0665927
2.07606
0.0223153
0.203499
0.026934
0.0218161
0.0218957
0.0232458
0.0304462
0.0219652
0.054437
0.021905
0.0231579
17.0243
7.8761
4.4173
0.0237996
0.0465883
5.10302
5.74033
0.0221729
0.0259198
2.0752
0.0221151
0.0406232
4.65258
3.95189
0.0265384
0.0409782
0.0227666
0.362024
0.0222852
0.0359115
5.08222
0.022163
0.0218653
8.47946
0.0439845
0.249018
4.91555
0.0929248
0.0224139
0.0219091
0.0222141
4.83332
2.474
5.35722
0.0571026
0.0220452
4.66332
0.0221097
0.171769
0.0266574
0.0230595
0.041866
0.0220594
6.44496
7.25078
0.0216322
0.0656102
0.0433865
4.69735
0.0447217
0.0535422
0.244183
0.0322823
0.201757
0.0562439
0.0221124
0.0338545
0.0811225
4.05614
0.0220361
1.43423
0.047258
0.0563784
0.0222727
7.15744
0.0256987
0.023604
0.021849
0.0395768
0.0383617
0.0563431
0.0221283
0.0226691
0.0575669
25.5324
0.0615729
0.0221574
0.0226295
0.0337068
0.233708
0.0221717
0.0913748
9.81306
0.0481154
4.18366
0.0371565
7.98467
0.369305
0.0219886
2.62629
0.0222385
0.0249331
0.0313013
0.0335169
0.102195
0.0436074
0.0432156
0.0452222
0.0308692
0.024109
0.0216492
0.0851644
0.0250765
0.0287562
1.60062
0.0260817
0.030319
0.0219482
4.88418
0.0840166
0.022089
0.0243822
0.0232775
5.53666
0.16336
0.0312772
3.86824
0.304263
1.17686
0.0926319
0.217114
0.021893
0.31535
0.0218938
0.0268703
10.4138
3.43103
0.382552
2.12973
0.0221218
6.47239
0.0218899
0.0767583
0.0251745
3.66657
5.88747
0.0252694
0.0220236
0.351091
0.043555
0.0220215
4.38058
0.0220699
0.0236826
0.0250624
0.0221996
0.0305876
0.0233467
0.0220429
0.0347736
0.509129
0.0388358
0.0616721
0.0220173
6.60288
3.48629
0.022005
0.250447
0.0251171
0.029178
5.20011
0.0220015
0.0226896
0.0279016
4.39221
0.0220318
0.0221828
0.0396187
3.62316
0.0219881
0.0321089
0.0342497
1.3931
0.0465141
0.0393865
0.219701
0.022075
0.121791
0.0217128
6.57394
0.0299498
0.022049
0.0262349
0.0989343
0.0221507
0.0220915
0.138974
3.95284
0.0222134
5.94029
0.0221879
0.0217017
0.0639388
0.0220355
0.0218352
6.72295
0.0222737
0.0393078
0.146011
4.60384
1.1263
0.0217676
0.0240005
0.0280586
0.0220753
0.0220355
0.0220964
3.11249
0.0221955
0.194148
0.112124
0.0218569
0.0217067
0.0297848
0.112231
0.24866
0.0558206
0.0626191
0.0238005
3.82711
0.0792768
0.0291295
0.0386205
0.066522
0.0932495
17.6496
0.0358804
3.75853
4.28412
5.41575
0.0243311
0.0219601
0.038115
0.0342166
0.0217867
0.0222163
0.136636
0.0222435
0.0222779
0.0220525
0.0215824
0.0232331
0.0219942
6.59287
0.0220205
9.19091
0.0220828
0.0893196
0.0224958
0.11528
0.0800346
0.0220411
4.94227
0.0239767
0.0222258
0.038004
0.0218085
0.03079
0.0219307
3.79742
0.0241328
0.0414763
0.10572
4.88599
0.0284407
0.201313
1.40137
0.0514162
0.0220386
0.022821
0.112741
0.064174
7.37521
0.0217642
4.9318
0.0220864
0.0906989
8.55238
0.0362796
3.55844
0.0251995
0.0316897
0.0248109
7.05201
0.0310675
0.0221421
0.0491748
0.14227
0.0233057
0.0220393
0.0221434
4.6752
0.0222524
0.0277055
4.6057
0.0260493
0.0219849
0.0571371
0.0249083
4.71779
0.0216626
0.022017
0.0218667
0.0260634
0.0223028
0.0220587
0.0600883
4.30302
0.0219696
0.0221029
5.21128
0.0221025
5.86231
0.0232952
6.74787
0.0218566
0.0243131
0.0218155
3.8873
4.82971
0.0303825
0.0720628
0.0269482
0.021947
0.022117
3.85926
0.022137
0.0761482
0.0217893
0.0394197
0.02219
5.46787
0.0218407
0.0421455
0.0218681
0.545999
1.06659
0.0217914
0.0446923
6.89936
0.0638463
3.92797
3.43771
0.257704
0.0233987
0.0333505
0.0940896
3.77183
0.0220389
0.035781
0.0281181
0.021977
4.06419
5.89145
0.0653245
0.151774
0.354007
0.0335691
4.32542
0.0217794
0.021787
0.101038
7.65191
0.228429
0.164947
1.76455
0.021814
7.22858
3.86774
9.30638
0.0222028
5.53509
5.05806
1.14698
4.1226
3.83014
0.079068
0.0302347
0.175195
0.0255935
0.0219729
1.93125
0.0889474
0.0216327
4.82687
0.0221887
0.0294403
0.040895
0.0267197
2.00616
0.0348795
6.10942
0.0413748
0.026132
3.93425
4.8993
0.136033
0.0223694
0.0257964
0.0718457
0.0593292
0.0218341
0.047686
0.0630005
0.148058
0.0219737
0.195302
0.0243065
0.0496995
4.1196
0.190441
0.0230743
0.138114
4.66182
0.022162
0.0227752
8.54912
0.350961
0.0242545
0.0244839
0.0220921
0.0754511
0.0248878
3.67726
0.102282
0.0225098
0.0222233
0.066073
0.0297306
0.393027
6.59551
0.0218777
0.0220345
0.0276764
0.0221946
0.0240343
0.0228842
0.0226761
0.0257793
0.0219383
0.0248227
0.022181
0.0440843
3.28752
0.0222642
5.56177
11.0345
0.0217121
0.253947
0.13769
0.0883167
0.0227226
0.0883027
0.0266598
0.0810942
0.029095
0.0231816
0.0222094
7.25825
0.0269126
3.79979
0.0227057
0.0220368
0.0220236
0.0714895
0.0219641
0.0482096
0.0566748
1.75694
0.0219196
0.258003
6.01284
4.08186
0.0218067
0.143591
1.03777
6.22491
3.36906
0.0225457
0.0222652
0.168902
1.47699
3.38605
0.0392046
0.249091
0.0222315
0.0218303
0.0403144
0.022196
0.0221298
0.167926
0.0222654
0.0919088
0.021846
4.92999
5.42308
4.65012
4.09419
4.19997
0.0221226
0.0221454
6.71041
0.0217766
0.0218015
0.0217019
0.126413
4.9011
6.72637
0.027577
0.022006
0.0231085
0.0374926
5.29686
0.0220376
3.5073
5.03968
0.022189
0.0221778
4.10068
0.0724322
0.022998
0.0220421
5.76376
4.39757
0.0219568
0.190667
0.0222537
4.01836
3.30419
0.0231287
7.01466
6.70685
5.4628
0.0218324
0.0220389
0.022245
0.0222861
4.61872
0.0219137
0.250539
0.216058
8.8538
0.0225887
0.0587372
0.280129
0.0483225
6.65314
4.40024
0.0216343
0.0252228
0.0253966
0.129445
4.24369
0.0215702
5.47971
0.0322736
0.0404849
0.0227318
0.0219488
0.294868
0.040039
4.89889
0.0221959
0.0554994
0.0225101
0.117359
0.0239614
4.21262
3.40552
0.284625
0.0870901
0.0219672
0.0238711
0.0823461
0.232447
4.22888
6.77091
0.0221497
3.67272
0.0939219
5.05594
0.0257992
0.0434495
0.0392046
0.0220589
5.56081
0.0220708
0.0317576
3.54853
4.81369
1.72156
4.75969
0.0283878
0.0472667
0.0217392
4.95091
0.0273056
6.7575
0.0217263
4.85229
0.021533
0.0220031
0.0313674
0.031392
0.0325795
0.021978
3.7815
0.040892
0.0219168
0.0377429
3.96813
0.639996
0.0220342
4.63205
0.0243219
0.0325551
0.0306732
0.021694
0.0634924
0.021996
9.85347
0.0823799
0.0260109
0.0220293
0.377362
0.0390347
0.0217252
5.06132
2.76023
0.236268
0.0216185
1.11906
0.0221413
0.150583
0.0268173
0.122428
4.87814
3.94245
0.0345715
4.76908
0.0498057
0.0284862
0.0218279
5.23194
0.116411
0.104641
0.0622697
0.0222435
3.68633
0.0879456
0.387835
0.241255
6.55101
3.73504
5.9899
5.02913
0.0289213
0.0316348
0.0220967
0.022048
0.0215898
0.166525
0.0291541
0.0332445
4.71643
0.0219391
0.02186
0.0386953
0.141858
0.0272932
0.0218179
4.52795
0.0240869
0.0435307
0.0222076
5.71974
0.0287613
5.89452
0.0565981
0.0332902
0.0526617
0.0220897
7.91164
0.295399
0.0695328
0.0220425
0.0219113
6.97885
4.49862
3.48942
0.021834
0.0708382
0.592247
0.0220138
0.0220087
0.0220833
4.77603
0.102428
0.0346312
0.0263136
0.0255109
4.71338
0.0905658
0.240907
0.0255908
0.0317495
0.0215744
0.130396
0.0552437
0.0220145
3.81505
4.44693
4.332
3.97087
4.75279
8.17792
6.65794
0.0231253
0.0218028
5.96765
5.0384
6.76205
0.0220686
0.0389622
0.0220465
0.0219657
3.27734
4.93928
0.0608126
0.0220043
0.265489
0.0904719
0.0479216
4.23748
3.43726
0.253224
0.0219165
4.19984
2.68119
0.370287
0.0307345
0.0413732
0.0221735
0.0218773
0.0384818
0.0449769
0.0243969
0.0381882
0.0272943
0.0250088
0.228995
4.15526
0.0315818
0.0397924
4.13089
0.200529
0.0221114
0.473548
0.981193
4.80991
0.0407828
0.0221056
0.0290068
0.0267682
0.0301925
0.0216921
0.0331236
0.0300952
0.0430844
0.249862
0.0222306
0.0229801
3.82205
3.91995
4.75985
0.311842
0.103268
0.0215178
0.0220455
0.0299255
0.0217331
6.72264
0.0220377
0.0222734
0.0217253
3.76313
19.1263
0.0224141
0.0591477
0.0282082
0.0355081
0.0296721
0.0351961
0.038694
0.0372112
4.77125
0.0257593
4.70804
0.0389633
4.73541
0.0291186
0.0219364
0.0218227
0.0908809
0.140068
0.0218275
0.0394061
0.0292977
0.0584135
4.02067
6.66706
4.48874
0.0222732
1.23324
0.029802
0.0365185
0.0220302
0.0689211
0.0237099
3.72932
2.12548
0.0396774
0.0220793
3.89922
0.0272717
4.36243
5.12425
0.229057
0.0242652
0.128165
4.58053
0.90299
3.83793
0.0594119
0.02194
0.0396187
0.0218257
9.00976
0.0246278
0.0315089
0.256197
4.66563
0.0219077
0.0219598
4.30729
0.0413785
8.15849
0.0327891
0.0220431
0.0421651
0.205934
0.0435154
3.63947
0.0358905
0.627764
0.0249699
0.0222449
0.0219453
0.285442
0.0226635
0.130864
0.0220486
0.0220023
0.270348
0.0255583
0.0220667
0.0220388
0.0352264
0.480529
0.0400541
0.0386642
0.0263966
0.0600629
0.0220381
0.160182
0.0300772
0.0419961
0.0696488
0.0268231
0.0874883
0.0452961
0.0218086
0.0637513
6.45619
3.36483
0.0220619
2.4039
4.33685
0.0219652
0.0226634
0.862014
4.19285
0.0278398
4.18182
0.37737
0.021964
0.079104
0.0215886
0.0256547
0.0602933
10.6967
0.535335
0.230075
0.25454
3.89752
4.01644
0.0230622
3.79601
0.0220363
2.84675
4.08342
0.0221007
0.0220834
3.5183
0.0221144
0.022086
0.278165
4.43494
0.217635
0.0255298
4.19241
0.0221039
4.03073
3.93294
0.0221902
0.371574
6.15229
4.54219
3.63491
3.82585
3.73059
0.021882
0.0232011
0.0603351
0.0616485
0.0220803
0.197309
0.0220412
3.7309
0.281237
0.0494295
0.260455
3.66453
0.280233
0.231575
0.0610989
7.7412
0.497665
0.0247893
0.0216328
3.21179
0.0347954
0.0217735
6.88704
0.0219767
3.42117
0.0221419
4.8109
0.0249115
0.0219811
20.3592
0.0274739
0.0355168
3.78504
6.67345
2.43855
0.026818
0.0416377
0.023323
0.0369993
0.122186
0.0379145
0.0222096
1.69556
0.0595776
0.0330011
4.06497
0.0394809
0.0370859
0.21184
0.0725859
0.0419021
0.0219766
0.201991
0.0218217
0.120629
0.220336
4.47102
0.0218747
0.0387352
4.62512
0.0230421
0.0641654
0.0296941
0.0414059
6.00776
0.058766
0.023436
15.5487
0.0218854
3.87967
0.0221258
0.0228615
0.118565
3.53925
0.0324921
0.397912
0.611961
0.0300349
0.0221664
0.16442
0.0446163
4.64612
0.0265378
12.4945
0.137788
0.0298572
0.0290314
0.104741
0.0372785
0.0746411
0.0583469
0.038226
0.0241905
0.0220064
2.44273
0.0220111
0.0284663
0.0216048
0.102525
0.028778
0.0574572
3.95704
0.0230202
0.227785
0.0215127
0.0221519
0.022189
0.0222066
0.0257567
0.0219438
0.0802526
7.81219
0.0565271
0.0438192
0.0245493
0.0220338
0.201527
0.0220265
4.4478
4.90552
4.83572
0.134858
0.0349586
0.0263848
0.022178
0.0297703
0.0977964
0.0425043
4.25673
0.0556244
4.94921
0.136927
0.0222102
0.0218441
3.41606
0.0219526
0.0291054
0.0647355
0.355704
0.0230518
4.52636
0.0221734
0.0257375
0.0220478
0.0226289
0.168105
0.098971
0.022204
0.0308985
0.035625
0.0441575
0.054035
0.5311
0.3651
0.277904
0.124021
0.0253018
0.0229243
0.053109
3.51896
6.5365
3.93711
0.0305948
5.34888
0.0967518
0.0226641
0.0219968
0.0573176
0.0221445
0.0307115
5.55005
0.0219655
0.0218034
0.55622
3.33716
0.0438239
1.52577
0.0221145
5.66084
0.0420494
4.80422
0.0294149
0.0220348
4.05264
0.060105
0.0220298
0.0729155
0.022253
0.162282
0.0288168
0.0553962
7.01448
0.0334898
5.26807
0.0219335
5.02627
0.0221247
0.0259458
0.0224752
0.046094
0.0221439
0.0558677
3.83328
1.07693
0.0483492
0.0320701
0.0776285
0.0219043
0.0219665
0.0228652
1.38833
0.024926
4.96841
4.51581
0.143749
0.0222156
0.148509
0.231375
0.144642
0.0251334
4.82324
0.0219756
0.0215245
0.0219612
6.04144
0.0220543
0.0220144
3.93513
0.0219758
0.166302
0.101002
0.0217639
4.2688
0.027004
4.77142
0.0219246
1.9431
0.022792
0.0713588
9.36594
0.0631944
0.0219467
0.026384
4.62831
0.0306008
0.152434
0.03043
0.0262797
0.145457
0.0290821
0.0221013
23.0149
0.0291771
0.0271673
0.133565
0.0219711
0.0218647
0.0221891
0.029394
0.0221248
0.0258769
5.39323
12.6234
0.103011
7.28243
0.056808
0.0324141
4.762
4.63533
0.0224374
9.14729
9.15109
3.93752
2.55332
0.0307563
4.58267
4.05434
17.6266
2.64421
6.37109
0.042838
0.0837179
0.0294404
0.0253372
0.0221709
1.47568
0.0222851
4.84652
0.124811
0.343867
0.021596
0.0698565
0.0459338
0.0235753
0.0222931
0.0221186
0.123362
0.0233036
0.0221638
0.0379458
4.39222
0.0240232
0.159717
0.021832
0.125737
0.0838566
0.0221577
0.02669
0.0219468
4.83525
4.50359
0.15717
8.86222
0.0331845
0.0850154
0.0221321
0.0389314
0.0220631
0.0222913
0.0222334
4.87438
0.0217802
0.0424698
0.777564
0.0278687
0.030163
0.0219997
4.92188
0.199434
13.7469
4.60589
0.171085
0.315028
4.35269
0.350233
0.199166
8.47593
0.125227
0.0340261
3.27512
5.07052
0.0220455
5.20856
0.154976
5.49606
0.0216142
0.0596832
5.07966
0.0222732
4.7181
0.0253537
6.72973
0.0220923
0.0221001
0.0672869
0.228191
0.0259579
0.0634346
0.0217908
0.0221012
3.67982
5.65299
6.75655
0.0502061
0.0220833
0.022435
0.0221363
0.0360569
1.14548
4.50244
3.93336
3.58494
0.0319242
0.021954
0.021984
5.76941
6.41173
0.294676
0.0263573
0.0247149
0.083936
4.8668
6.13269
0.0215157
0.0219597
5.05661
0.0229771
0.256343
0.0279035
0.0220662
0.0323684
0.0464739
4.61304
4.64638
0.0222022
0.0218023
0.0246794
0.193728
5.18075
0.0222651
0.13282
4.4399
0.0215253
3.2043
4.11146
12.2433
0.0221107
5.51795
4.92393
0.03883
0.318317
0.0241498
0.31057
0.349339
0.0252202
0.021945
6.58812
1.50093
0.0218691
0.136952
0.143484
0.0293073
0.263823
4.59446
5.44922
5.089
0.0272483
0.0235454
0.0229479
4.52351
5.06054
4.8061
5.9388
4.65332
0.0217229
0.0421604
0.022068
0.0221156
0.0247994
0.0219687
0.0220602
0.0221593
4.36856
12.3202
6.95993
0.0570535
0.191391
0.0362255
0.0218599
0.0219877
4.44462
0.0221393
5.96755
3.87208
0.0221792
0.0218902
3.60597
0.022534
0.562123
0.0256653
0.0217536
0.0217185
4.45748
0.0216821
4.41395
4.27343
0.0215697
0.0455984
0.0219129
0.0228242
0.0218485
0.115183
4.03844
0.0219721
5.01498
0.472341
0.0239815
0.0218809
0.0226416
0.0235111
0.0222265
0.533165
5.39991
5.77417
0.0382573
6.58236
0.0222727
0.0255148
0.022083
0.17645
0.0233622
4.87019
0.0218633
3.99757
0.267061
5.71164
0.145981
0.0218594
0.043194
0.0219172
4.29321
0.0219596
0.0284671
0.0263276
0.0253854
0.0221368
0.0222511
0.0324288
5.06922
0.0221845
0.0227975
0.0238314
0.0334615
0.165095
0.0221883
5.17788
3.81619
0.0237792
4.93537
4.64052
3.60719
6.38587
0.0215391
0.0230409
3.83341
4.21111
0.140132
3.98043
4.39377
0.032499
0.0482431
0.0300736
4.32378
0.022037
0.0219665
5.57552
0.123899
4.86819
0.0245552
0.0217144
0.0220467
5.02072
0.0686105
0.023756
0.233379
0.0218282
0.0584597
0.0300446
0.030296
0.02193
0.022189
0.0219219
0.0245526
1.37717
5.00112
0.0215785
0.0219085
4.57477
0.022064
0.063319
0.025929
0.0255229
0.0364295
0.0222858
4.25968
0.0292694
0.0252256
20.2058
0.0830437
0.023221
0.0313691
0.0220279
0.0224722
6.90548
0.287797
3.49343
0.0222531
0.0221546
0.0604523
0.0271117
0.0220315
0.0373099
4.37719
0.0257974
0.0409703
0.0253027
0.117488
0.0221161
0.0217006
4.73708
5.24826
5.13221
0.0219715
0.150801
0.0216027
0.022023
0.0651867
4.59731
0.0660027
0.0280639
0.153388
0.0227241
0.0291951
0.0505905
0.764722
0.0222805
0.0216422
0.0225487
0.023919
0.0265415
0.0219604
1.24472
10.0335
0.0220852
0.0319661
0.0224064
0.0216509
3.77168
5.97849
5.74401
0.0732478
0.0223761
0.0545543
4.94765
0.100386
0.0939462
0.0338189
0.0297161
5.14746
0.215682
0.767122
0.0217659
0.0304344
0.0221108
0.0302969
6.96055
0.0216282
0.0403117
0.025414
0.029888
0.0230379
0.0217951
0.0218801
4.21211
0.0451546
0.0301114
0.065604
0.0347302
6.1509
0.0311264
0.488817
0.0219256
4.84369
4.91628
6.92206
0.0222646
0.0314745
0.0220849
0.0219631
5.74454
0.0454748
4.8316
0.0219948
0.0449003
0.130189
4.62626
0.0279623
0.0216454
6.82142
0.0222852
0.0222842
0.0225786
0.0220365
6.06519
0.0218257
0.0218776
0.0361176
0.0271972
0.141895
0.129644
0.0330943
4.5043
0.021941
0.174783
0.0217813
4.71805
0.0338704
0.47904
0.145583
2.69408
0.105523
4.67276
0.0230348
6.4479
0.0323735
4.91455
0.197714
0.0279032
0.220296
0.0221495
7.1111
0.0230689
0.0377111
0.0270792
6.7465
0.138112
4.36049
0.0308748
0.022015
4.91417
0.238072
0.0537573
0.14741
8.43145
4.90243
0.0388774
0.272444
0.0419529
0.0218815
0.0479425
0.259349
0.0684209
25.932
0.120845
0.0218007
0.0219384
0.137884
0.0220865
5.44053
0.070965
0.0220852
3.77834
1.72055
3.47899
0.108369
0.0219932
0.0289034
0.0257063
4.4461
3.70331
0.025686
5.19544
0.0218757
0.0314801
1.05091
0.0220032
0.0402001
0.0219314
0.026147
0.0222513
0.162264
0.747212
0.0300341
0.029249
0.0217175
0.141109
0.0218914
0.0218291
0.0327464
0.0219249
0.215398
4.88331
3.55707
4.41973
0.0217883
5.02966
0.0221893
0.0369295
0.131246
0.0220265
7.76437
0.0690449
0.0220399
0.021638
0.0416871
0.0374652
0.179033
0.232806
0.0257542
0.0238842
4.07433
0.060614
0.279539
0.853077
13.1385
4.05339
4.86053
1.27123
0.0221513
0.0221149
0.0464982
0.0222123
0.0506073
0.0361657
6.35099
5.11544
6.64272
0.0216884
0.0217811
0.119082
0.25616
4.44083
1.34583
3.67101
0.0559787
0.0326438
1.21227
0.265315
0.0261257
4.84017
0.0330623
0.0301912
4.45587
0.040479
0.0219415
4.70576
0.937819
0.024422
0.139661
0.0234011
3.77628
5.76844
5.42136
0.0220146
0.0216855
0.132792
0.0220165
0.0219236
0.0220205
0.0217321
0.0220261
0.0220331
4.75455
0.0278801
0.0463116
4.28682
0.0219019
0.022042
0.0313893
0.0255901
0.0261193
0.0220502
0.0652858
0.0305902
0.0263641
0.0852266
4.39651
0.0220614
0.04195
0.0220736
0.0220354
0.0215734
0.0220861
4.4892
0.0218993
0.0220256
0.0220993
0.0433895
4.28509
4.33224
4.94671
1.68269
0.0443227
4.37124
6.5206
0.0219567
0.0421179
5.86877
0.223173
0.0221134
0.0277105
0.0425246
0.0375276
0.0220629
0.0396192
0.0581555
0.0441035
0.0216328
0.0531158
3.72412
0.0215781
1.87434
4.92985
0.0422674
0.670384
0.0354431
0.0220915
0.0254536
0.0220139
0.230019
4.81777
0.0216808
0.0432692
0.0219746
0.0219814
0.0221955
0.0222859
0.0372354
0.0221726
0.125804
0.144946
0.0257761
0.0245067
0.0450476
0.0220486
0.0440558
0.0321071
0.0223632
0.0221035
0.0221422
5.11242
0.0220159
0.266106
0.0406262
0.0222535
0.0220352
0.0217473
4.66385
0.0253155
0.0426891
0.0518632
5.02833
0.028087
4.2193
1.96114
0.0427955
0.0219743
0.229858
0.038394
5.04077
0.0698362
4.77185
0.0216408
0.049404
0.0483601
4.50461
0.0220062
0.0438969
5.16038
0.0218602
7.90097
10.3952
3.74626
0.0219785
0.0217804
4.98678
0.0220499
4.48561
0.165762
4.30204
4.501
0.0218827
0.193647