/*--------------------------------*- C++ -*----------------------------------*\
| =========                 |                                                 |
| \\      /  F ield         | OpenFOAM: The Open Source CFD Toolbox           |
|  \\    /   O peration     | Version:  v2012                                 |
|   \\  /    A nd           | Website:  www.openfoam.com                      |
|    \\/     M anipulation  |                                                 |
\*---------------------------------------------------------------------------*/
FoamFile
{
    version     2.0;
    format      ascii;
    class       surfaceScalarField;
    location    "200";
    object      meshPhi;
}
// * * * * * * * * * * * * * * * * * * * * * * * * * * * * * * * * * * * * * //

dimensions      [0 3 -1 0 0 0 0];
oriented        oriented;


internalField   nonuniform List<scalar> 
20580
(
-0.00109339
0.00122297
-0.000129473
-0.00270892
0.00119892
0.00151405
-9.97533e-05
-0.00260316
0.000602528
-0.000789959
0.000187432
0.00021491
0.000160815
-0.00024224
0.000157241
0.00227332
-0.00242661
-0.00170533
0.00266858
0.000422967
0.000249915
-0.000440506
-0.000302386
-0.000371393
0.00067378
-0.000697812
0.00387371
-0.00316643
0.00104242
-0.00178368
0.000741677
-0.000516516
-0.00211255
0.00266316
0.00311572
-0.000581868
-0.00252958
-0.000232916
0.000597584
-0.000364668
-0.00109219
0.00204852
-0.000955129
-0.000980833
-0.000174898
0.00115582
-0.00076171
0.000574714
0.000186996
-0.00364382
0.00112319
0.0025433
-0.000642384
-0.000418668
0.00106109
0.000333402
-0.00142667
0.00225348
-0.000872979
-0.00137937
0.000906592
0.00164724
-0.00255055
-0.000787649
0.000378133
0.000409519
0.000150109
5.6261e-06
-0.000129164
-0.000939597
2.21545e-05
0.000917462
-0.00175789
0.00107244
0.000685823
-0.00113799
0.000757304
0.000380719
-0.000355563
-0.000575595
0.000931176
-0.000821999
0.000448228
0.000373772
0.000752679
0.00267093
-0.00335965
-0.00010728
0.000708767
-0.000601485
0.00120199
-0.00290099
0.00111726
0.000219692
-0.00133683
0.000346043
0.000459246
-0.000805285
-0.00125287
-0.000410291
0.0016638
0.000790625
-0.000937037
0.000146414
2.38819e-08
0.000162159
-0.00105365
0.000623957
0.000429709
0.000628232
0.000179142
-0.000807372
0.00366694
-0.00292365
-0.00073011
0.000665887
-0.000840944
0.000175059
-0.000369909
-0.000452087
-0.000402452
-0.000225867
-0.00121218
0.000978779
0.000233434
-0.000583722
-0.000171596
0.000755321
0.000722006
0.00269216
-0.00338193
0.000531504
-0.000994833
-0.000384607
0.000991925
-0.000607233
0.00357417
-0.00156713
-0.00199976
0.000152807
0.0029658
-0.000461803
-0.000166516
0.000628319
0.00370232
-0.0010784
-0.0026198
0.000301162
-0.0012819
-0.00234413
0.00178779
0.000558332
0.000477828
-0.000777438
0.00029961
0.0025914
0.00108511
0.00119814
-8.07741e-05
4.40899e-05
0.000621798
-0.0011776
0.000636558
0.000541073
0.000677102
5.01903e-05
-0.000727292
0.00210879
-0.00258842
-0.000794414
-0.000343541
0.00343516
-0.0035419
0.000113501
0.00151505
0.0020649
0.00117733
-0.000528567
-0.000648718
0.00073518
0.000442181
8.59513e-05
0.000591151
0.000196701
-0.0010658
0.00127005
0.00215034
-0.00340555
-0.000755624
0.000644414
0.00011121
-0.000436031
0.000652156
-0.000216123
-0.00103718
-0.00065977
0.00169765
-0.0036934
0.0024723
0.00123167
-0.00059179
0.000641981
0.00101034
-0.00219553
0.00118689
0.00126563
0.00147028
-0.00273132
-0.000169403
-0.000592307
-0.00393017
0.000672384
0.00337179
0.000151253
-0.00109083
0.000679177
-0.00372401
0.00308116
-0.00188488
0.00316912
-0.00105648
-2.41994e-05
0.00108073
-0.00221738
0.000965327
0.000577569
0.000153522
-0.000731091
0.000119405
-0.000711195
0.000495458
0.000366891
-0.000862348
0.00243983
-0.00153032
-0.000179871
0.000618945
-0.000439074
0.00335692
-0.00327192
-7.14843e-05
-0.000599089
0.000491811
0.00054771
0.00315621
-0.00134241
0.00255013
-0.000355233
-0.000273087
-0.000204911
0.000700371
-0.000833183
0.000157523
0.000675661
0.000789724
-0.00110093
0.000311244
-0.004919
0.00201474
0.00293299
0.000733363
0.000631959
-0.00136521
-0.000383987
-0.000251212
0.000635199
-0.00137879
0.000720507
0.000658373
-0.000406578
0.00114003
-0.000589369
0.0016185
-0.00102901
-0.00153764
0.000222084
0.00131576
0.00330675
-0.0037421
0.00044234
-0.00130495
0.00333446
-0.00199784
-0.00195849
0.000274318
0.00168485
-0.00373214
0.00246349
0.000170405
-0.000606435
-0.00262145
0.00128513
-0.000877709
-0.00274203
-0.00243162
0.000901814
0.00153127
-0.00302905
0.00378617
-0.00107848
-2.43005e-05
0.00110286
0.00162634
-0.00111423
-0.000511765
-0.000799544
-0.000425896
0.00122556
-0.00159848
-0.000743232
-0.00365838
0.00155724
0.00218106
-0.000331104
0.000994064
0.000541666
6.0862e-05
-0.000164892
-0.00059073
-0.00123181
0.000242098
0.000989779
0.00398255
-0.000341043
-0.00359772
-0.00206446
-0.000690189
0.00276535
0.000594128
-0.000781727
0.000187599
-0.00120253
0.000144263
0.00105832
0.00111711
-8.0921e-05
-0.00103617
-0.00142619
-0.00346303
0.00167578
-0.00118562
-0.000489727
-0.000436633
0.000795754
-0.00035912
-0.00182537
0.00170059
0.000125483
-0.000902087
0.00255232
0.00231414
0.000189566
-0.00250195
-0.000528017
-0.000525616
-0.00048266
0.000828705
0.00152304
-0.000480267
-0.000801824
0.000375545
0.00042628
-0.00113986
-0.000251152
0.000618045
-0.00195166
0.000778382
0.00117354
0.0012363
-0.00212141
0.000885931
0.000217081
-0.00127351
0.000602101
0.00218543
-0.00278342
0.00370082
-0.000333649
-0.000123808
0.000957574
-0.00083372
-0.00110151
0.000592057
0.000509471
-0.0030562
0.00164818
0.00141268
-0.000335845
-0.00347588
0.000503857
-0.000254994
-0.000402357
0.000657352
0.0013689
0.000307173
-0.00105594
0.000649431
0.000335548
-0.00141392
0.00108741
0.000539227
0.000562051
0.00062784
-0.00118984
0.00248205
-0.00352835
0.00104978
-0.00377792
0.00323404
0.000547985
-0.00272904
0.00289963
-0.000117697
1.41103e-05
0.000614123
-8.98256e-05
0.00122311
-0.00113265
-0.00309917
0.00164962
0.0014554
0.000341527
-0.000312484
7.28947e-06
0.000615079
0.000230957
-0.000846034
-2.22023e-05
-0.00193554
-0.00124696
0.000862467
-0.000642095
0.000409179
-0.0005926
0.000713351
-0.000120749
0.000276188
-0.000868786
0.000257567
-0.00071937
-0.00159484
-0.000835147
-0.000459095
-0.000370336
0.000829439
0.000286646
0.00216869
-0.00241946
-0.00069545
-0.00285556
0.000725772
0.000977669
-0.00170297
-0.000169662
0.000411149
-0.000139272
-7.71191e-05
-0.000756062
0.000822916
-0.00113604
0.000313161
-0.000975255
-0.000146531
0.00112186
-0.00332063
0.00272036
0.00131595
0.000903421
-0.0022177
0.000325174
-0.00130034
3.9886e-05
-0.00124236
-0.00042242
0.0022761
-0.000816436
-0.00145798
0.00046203
-0.0022864
-0.000213806
-0.000414514
-0.000588121
0.000333127
-0.000938089
0.00115789
-0.00233053
0.00199877
0.000332196
-0.00224787
0.00362374
-0.00137177
-0.00437349
0.00348465
0.000938406
-0.00062429
-0.000477203
0.00165856
-0.00174746
4.84636e-05
0.00054912
-0.00222697
0.00238804
-0.00121766
-0.0018335
0.000497732
0.00085673
-0.00135435
1.27172e-05
-0.000950718
-0.00292336
0.00359614
-0.000654634
0.00377053
-0.000598205
-0.00315484
0.00152185
-0.000731713
-0.00079009
0.000792374
0.000397456
-0.00118978
0.00083833
-0.000296191
-0.000542137
0.000508295
0.000329088
-0.000837381
-0.00206273
0.000971826
-0.000718071
0.00063384
8.42348e-05
0.000673276
0.000165055
-0.00155675
-0.00109496
0.0026522
0.00173061
0.000198214
-0.00192811
0.000330457
-0.000755135
0.000424678
-0.00206658
0.00260632
-0.000536423
-0.00114957
8.4932e-06
0.00114117
0.000822004
-0.00287613
0.0010095
3.31154e-05
-0.0011405
0.0011227
-0.00177026
6.64518e-05
0.00170447
-0.000662663
-0.00174039
0.00240643
0.00325868
-0.00310278
-0.0011567
0.000584022
0.000572727
0.00359873
-0.00356836
-1.26818e-05
-0.000183401
-0.000409065
-0.00283288
-0.000383224
0.000844599
0.000511152
-0.00135564
-0.000104782
0.000682351
0.000542544
0.000292914
-0.000835457
0.00218512
-0.000679372
-0.00150522
-2.05767e-05
0.00175186
4.06669e-05
-0.000528585
0.000507468
-0.00107492
0.000951163
0.00366468
-0.000388205
-0.00323947
-0.00217973
-0.000852011
0.000675426
0.000176588
-0.00167604
-0.000653833
-0.00272641
0.000664166
-0.000151331
-0.00304586
0.000707326
-0.00019903
0.00389813
-0.00307487
-0.000422331
-0.000365312
0.000351279
0.000412833
-0.000764111
-0.000658346
-0.000720324
0.000346651
1.42345e-05
-0.000982315
-3.57808e-05
0.00101812
0.000579515
8.58303e-05
-0.000665345
-0.000891417
0.000307699
-0.00132437
0.00183652
0.00065232
-0.00248717
-0.0008167
-9.84348e-05
0.000915163
-0.000558047
-0.000598602
0.00218942
-0.000871848
-0.000324973
-0.000775915
0.00113945
0.00108422
-0.0022224
-0.0007678
0.000253306
0.000514493
0.00126177
0.000167445
-0.0014291
-0.000667296
0.000289648
0.00061966
0.00270062
-0.00219346
-0.000503396
0.00112978
-0.00010026
0.000715341
0.000640943
-0.00077871
0.000137767
-0.00157141
-0.00275271
-2.43548e-05
0.00327321
-0.0032492
-1.44226e-05
0.000625364
0.000548689
-0.00117399
0.000935246
0.000364453
-0.00129964
0.00158834
0.00111472
-0.00172075
0.0016992
5.56471e-05
0.00120623
0.00432378
-0.00115725
-0.00315224
-0.00141589
0.000826609
-0.000195494
0.00114659
-0.000950967
0.000696749
0.000430586
-0.00112731
0.000893422
-0.00356855
0.00269887
9.98257e-05
0.0031615
0.000509511
0.000736616
0.000101637
-0.000838251
-0.000606027
0.000696478
-9.04508e-05
0.001193
-0.0018208
0.000628449
0.00119534
0.00282366
-0.00100046
0.0010404
0.000543157
0.000626045
-0.00116915
0.000932859
0.000548937
-0.00148165
0.000281073
-0.00200107
4.505e-08
0.000736573
-0.00043229
-0.000196029
0.000628319
-0.00239677
0.000161965
0.00223728
-0.00225909
0.00190218
0.000358119
-0.000533077
-0.000309702
0.000842793
-0.00476732
0.00321365
0.00158934
0.00262889
-0.00252024
-5.81323e-05
-0.000166444
0.00109941
0.00179327
-0.000922684
-0.000870143
-0.000259767
0.00343918
-0.00312117
-0.000888947
0.00117643
-0.000256968
0.00106824
0.00262831
0.00026454
0.000229748
-0.000326164
-0.00243141
0.00168339
0.000749679
-4.72511e-05
0.000383722
-0.000686107
0.00156209
0.000692208
-0.0037941
0.00092666
0.00288249
0.000690366
8.30039e-05
0.000511124
0.00349828
-0.00246502
-0.00102865
0.0011781
-0.000527476
0.000628319
-0.000100843
0.0026965
-0.00209078
0.00289849
0.000603049
0.000288425
0.00127447
0.000580076
0.000145287
-0.000725362
-0.000675573
0.000783796
-0.000108219
-0.000448879
0.00150476
-0.0010555
-0.000210933
0.000563659
0.000437889
-0.000896975
0.00242874
-0.000821058
-0.000686994
0.00150836
0.000148889
-0.000676365
0.000848991
0.000241353
-0.00109032
-0.000809
-0.002282
0.00023622
-0.000769284
0.0011881
-0.000645902
-0.000542171
0.000798263
-3.117e-05
-0.000767092
0.000750935
-0.00129327
0.000542429
-0.00169087
0.000689854
0.00100108
-0.000290716
-0.000511106
0.000452616
-0.000905741
0.000453126
-0.000911703
0.000556156
0.00124631
0.00253938
0.000701294
-0.000233762
-0.000467532
-0.000323534
-0.000304786
-0.000788523
0.000773984
1.45413e-05
-1.77439e-05
-0.000770773
0.000255197
-0.00181184
0.000759885
-0.00167191
0.000912422
0.00239071
-0.000900677
-0.00148888
-0.000555506
0.000375636
-0.00173003
0.000760246
0.000969867
-0.00113477
0.00114444
0.000175014
0.00158465
-0.000794889
-0.00263572
0.00063405
0.00200405
0.000665974
0.00013229
-0.000648609
-0.000832742
-0.00389281
0.000700068
0.00232426
-0.0016651
-0.000658093
0.000454453
0.00186114
0.00207561
-0.000420671
-2.09585e-06
0.000582171
0.000276635
-0.00127704
0.00115798
-0.00300227
0.00234397
-0.00220756
-0.000514462
-0.000463964
-0.000253516
0.000717482
0.00106678
-0.00331086
0.00110526
-0.00252542
0.0001318
-0.00121093
0.00150013
0.000568829
0.0017564
1.13771e-05
-0.000179641
-0.00359618
-0.00126082
7.8095e-05
0.00118283
0.00121193
-0.000491338
0.00100936
0.000269912
-0.00127916
0.000660105
0.000383281
-0.000847242
-0.000531356
0.00218272
0.000680369
-0.000270353
-0.000819606
0.00109001
0.00379417
-8.63962e-05
-0.00364719
-8.4239e-05
0.000933249
-0.00148187
0.000115406
0.00136666
0.000380285
-0.000764272
-0.00163068
-0.0010021
-0.000399181
0.00145782
-0.000528897
-0.000648667
-0.00048176
-0.000471029
0.000952806
0.00112411
0.000274815
-0.00139881
0.000331229
0.000354894
-0.000686123
-0.00156886
-0.000964972
0.00254129
0.000859839
-3.68964e-05
-0.00073762
0.000335168
0.00243276
-0.000965382
-0.0014654
-0.000353428
-0.000414371
-0.00229918
0.00162324
0.000677506
-0.000172083
0.000732819
-0.000560734
-0.00171395
-0.000543492
-0.00191902
0.000992614
0.00115351
0.000248811
-0.00140221
-0.00130967
0.000382427
0.000927296
-0.00110461
-0.00266919
0.000136478
0.00223514
-0.00236802
0.0010821
0.000711527
0.00191523
-0.0029606
0.00324872
-0.000263807
0.00153025
-0.000336665
-0.000845367
0.000824907
2.04655e-05
-0.00188414
-0.00180153
0.00204938
-0.00185043
0.000576348
0.000102829
-0.000679177
0.00284387
-0.00040683
-0.00243129
0.00103852
-0.000642534
-0.000395973
-0.00147908
-0.000146112
0.0016259
-0.000874772
0.000199204
0.0020094
0.000600154
-0.000936474
-0.000820965
0.000236393
-0.000954455
0.00107956
0.00143603
0.000572841
-0.00200814
-7.5818e-07
0.000641702
0.00069892
4.57854e-05
-0.00102808
0.00184254
0.0024958
5.50991e-05
-0.00131581
-0.00219463
0.000278153
0.00191787
0.00117318
-0.00157202
0.000443913
-0.00348197
0.00307448
-0.00031416
-0.00031416
-0.000886471
0.000413017
0.000473459
-0.000859085
-3.51796e-05
0.000894281
-0.00261884
0.000415582
0.00120927
0.00081846
0.000339839
-0.00115826
9.81102e-05
-0.000704137
0.00109737
-0.00355668
0.00254613
0.00021876
0.000482534
0.000827066
0.000421175
-0.00124818
-0.000486905
0.00076966
-0.000282752
-0.000632072
0.00177257
-0.00112894
0.000807365
0.000321591
-0.0035631
0.00246506
0.00110561
0.000111371
-0.000181911
0.000628319
-0.000150491
0.000530746
-0.00101378
0.00048307
-0.00333279
0.00264323
-0.000681934
0.00188432
0.000369152
0.00168089
-0.00345882
0.000984423
0.00257125
-0.000405064
-0.000481401
0.00150101
-0.00074077
3.02295e-05
-0.00151189
-0.0018268
-0.000569222
0.00239983
-0.00284815
0.00128847
0.00211433
0.00117203
-0.00328606
0.000540263
-0.001022
0.00431979
-0.00337494
0.00333842
-0.00122443
0.00102483
-0.000380922
-0.000643894
5.19446e-05
-0.000897306
0.00160068
-0.00249993
0.00112816
-0.0004742
-0.000653917
0.00318336
0.000251255
6.6173e-05
-0.00253144
0.000745447
0.00210384
0.0011769
-0.00142433
-0.000357207
0.00178232
-0.00247478
0.00336497
-0.000871363
0.000216165
-0.00273397
0.00252623
-0.000806825
-0.000424924
-0.00346137
0.00105008
0.00242028
-0.00045084
-0.00027332
0.000724165
-0.00329848
0.00208353
0.00127058
0.00219521
-0.00252263
0.000330594
0.000606324
-0.000777918
-0.00203845
0.00114762
0.000891274
-0.00098225
-0.000125947
0.00133546
0.000183032
-0.00238741
0.00223704
0.000805255
-0.0026283
0.00130347
-0.00358385
0.0022958
-0.00106064
0.000262312
0.00079835
-0.000508986
-0.000331602
0.000840597
-0.000149395
0.00198734
-0.000184451
0.000544365
-0.000359912
-0.00186821
0.00315035
-0.000229606
-0.00288906
0.000553087
0.00018765
-0.000740735
0.000599295
0.000579778
0.00109195
-0.00167135
-0.00134441
-0.00170895
0.00306373
-0.00032911
-0.000584847
-0.00136651
8.99856e-05
-0.000706982
0.000617003
0.000616625
0.0026966
0.00180122
-0.00250362
0.000704124
0.00120231
-0.000677863
-0.00131027
0.00198954
-0.00041956
-0.00048618
-5.47935e-05
0.000873282
0.000198024
-0.00105709
0.000957629
-0.00212291
0.00116755
0.00108656
0.00389381
-0.00358433
-0.000292161
0.000679187
0.000684506
-0.00216272
-0.000779783
0.000792573
0.000342845
-0.00253575
-0.00173192
-0.00103387
-0.00100397
-0.000945688
-0.000160719
0.000430053
-0.000283092
-0.000356075
0.000639166
0.000678624
-0.000125536
-0.000904186
0.000453352
-0.000421768
0.000605088
-0.00018332
0.000515853
-0.000671867
0.00010204
0.000569828
0.000990544
0.000818504
-0.00226623
0.00144848
-2.38879e-05
0.00169386
-0.00165626
0.00075784
0.000280696
0.00347432
0.000405013
0.000519669
-0.00345426
0.00206323
-0.000683208
-0.00137945
0.000769573
3.25561e-05
-0.000802128
-0.00288172
0.0025417
0.000346185
-0.00179319
-0.00105054
0.00284714
4.24863e-05
-0.000991984
0.000949638
-0.00106829
0.00167225
-0.000603418
-0.000111103
-0.00287835
0.00299167
0.000774285
-0.000916569
0.000142294
0.00130214
0.0021375
-0.00341275
0.00034861
0.000434529
-0.000783138
9.71816e-05
-0.00115779
0.00321785
-0.00250782
6.6143e-05
-0.00253738
0.00247824
0.000523805
0.000620428
-0.00114418
0.000938121
0.00370623
-0.000749224
-0.000102734
0.000851972
0.000837593
-7.97431e-05
0.00419774
-0.000623262
-0.00352416
0.000414087
0.000364643
-0.000778729
-0.00112775
0.00048541
0.000668223
0.000612497
-0.00128062
0.00228996
-0.0013296
-0.000961313
0.000580403
0.000437038
-0.000755738
0.000318699
0.00161192
0.00262472
-0.0012313
0.000847976
0.000383368
0.000645453
0.00289275
-0.00352238
0.00334266
0.000741105
0.000238422
-0.000979512
-0.00062428
0.000452198
0.000667221
0.00135903
-0.00202509
0.000486415
-0.00190992
-0.00332797
0.000226592
0.00310582
-0.00132766
-0.000166384
0.00149445
0.000365617
-0.000802248
0.000539568
0.000230217
-0.000769783
0.00317339
0.000390283
-0.00352773
-0.000201103
-0.000357049
0.000558152
0.000798086
0.00280843
0.00171101
0.00181503
0.000689729
-0.00250226
-0.00216962
0.00334686
0.00267383
-0.0011998
0.000271912
0.000520142
-0.000792053
-0.000571434
-0.000738167
0.000686001
-0.0026212
-0.000253544
-0.00328782
4.90691e-05
0.000621418
0.00023016
-0.000851575
0.0022731
-0.00178595
-0.000464237
0.00113311
-0.00142665
0.000293648
0.0021651
0.000143757
-0.00230556
0.000893012
0.00134306
-0.00223434
0.00128831
-0.00250105
0.00121441
0.000495013
0.000327767
-0.000822776
0.000288528
-0.000720818
0.00240011
-0.0002079
-0.00218873
-0.000268175
-0.000469444
0.00310558
-0.00252651
-0.00057026
0.00179679
-0.00103171
-0.000764692
0.000459202
-0.000829108
-0.000445292
-0.000332145
-0.00213684
-0.000946092
0.00309562
0.00274859
-0.00140878
-0.000128747
-8.54052e-05
0.000605549
0.00119149
-0.000487949
-0.000703492
-0.00169668
0.000369495
-0.000570881
0.000660873
-0.000185572
0.00200292
-0.00239702
0.000684592
-0.000553839
-0.000298168
0.000523548
-0.00096803
0.000444491
-0.00113827
-0.000176521
0.0013149
-0.000357308
0.00070592
-0.0011364
1.66608e-05
0.0011198
0.000779856
-0.000455724
-0.000324129
0.000816585
0.00213027
-0.00293676
-0.0002797
0.000916282
-0.000641764
-0.000487148
0.000159797
-0.00281817
0.00268841
0.000301566
-0.000656799
0.000474456
-0.000937658
0.000463207
0.000682774
0.0016991
-3.80818e-05
-0.00290572
0.00295549
0.000487918
-0.000672368
-0.00102783
-0.000340465
0.00136852
-0.000641785
-0.000140249
0.00078204
0.00191573
0.00241922
0.000254859
-0.000308116
0.000134983
-0.00193355
-0.000396542
0.00233063
0.000814526
-0.00188219
-0.000585227
-0.00265266
0.000692455
-0.000155739
0.000491228
3.70459e-05
-0.00117338
-0.00163257
-0.000856412
0.00249112
0.00145192
-0.000278431
-0.00164717
-0.00208637
0.00228874
-0.00239811
0.00158141
-0.00199948
0.000418664
-0.000601664
0.000400561
0.00112328
0.000839546
-0.0019621
0.00066846
0.0019922
0.00297891
4.98257e-05
-0.00295057
-0.00270073
0.00335879
-0.0006173
0.00166833
-0.000690219
-0.00212508
0.00234844
-0.00141105
6.11907e-05
0.00135003
-0.000139879
-0.00235134
0.00249629
-0.000973048
0.00155321
0.00083668
-0.00111635
-0.00220201
9.00887e-05
0.00212277
0.000428923
0.000274012
-0.000702935
0.000785191
-0.000726676
0.000284348
0.00120004
-0.0014842
0.00041776
-0.000685935
0.000639541
-0.000873424
0.000233886
-0.00192493
-0.000914808
0.00027303
-0.00104826
0.0010909
0.00076832
0.000518153
-0.00128641
-0.000270392
0.000744853
-0.00367636
0.000521978
0.00318534
0.000162841
0.000611451
0.000726626
0.00140425
0.00103029
-0.000758286
0.000336519
0.001119
-0.000660019
-0.000458952
0.00108356
0.00275504
7.58001e-05
-0.00148665
-0.00333134
0.000425543
0.000463485
0.000316373
-0.000201222
0.000587246
-0.000386024
-0.00386564
0.00182935
0.00204572
0.000456074
0.000661303
-0.000962663
0.000301365
-0.00012258
-0.00063222
0.000772178
0.000847396
-0.000955242
-0.000136558
0.00120928
-0.000209294
0.000638217
0.00058528
0.000380002
-0.000965267
0.000767101
0.00213312
0.000960481
0.000447242
-0.00140761
-0.00268373
-0.000767975
-0.00223277
-0.00108865
0.00332584
-0.00100415
8.53434e-05
0.000918837
0.00120939
-0.000414448
-0.000821369
0.00123592
0.00368489
-0.00279259
-0.000779881
-0.000928435
0.000733042
0.00097645
-0.00160254
0.000626411
0.00170906
-0.000727799
-0.000980783
0.00138798
-0.00257759
0.00119079
0.00164007
-0.00285291
0.000541892
-0.00156945
-0.000437262
-0.00149575
-0.000526878
-0.000719962
-0.00190356
0.000867079
0.00113035
-0.00178944
0.000226706
-0.00136485
0.000163017
-0.000869989
-0.00101133
0.000592695
-0.000854686
0.000129247
0.000725445
-0.00103789
0.000288685
3.77544e-05
-0.00109363
-0.000475193
0.000756555
-0.000281362
-0.00212296
0.00157668
0.000546959
0.000851566
-0.000110449
0.00117947
0.00348923
-0.00269582
-0.00076958
-0.00152206
-0.000873267
-0.000236193
-0.000775083
-0.00254177
0.00111158
0.00143264
-0.00353406
-0.000151034
3.87424e-05
0.00332903
-0.00332889
0.000959082
0.000546583
-0.00150548
0.000636207
-0.000304978
-0.000235872
0.00243392
-0.000283478
0.000696312
0.0032179
-0.000154978
0.000900061
-0.000314769
-0.00108133
5.00052e-05
0.00103141
-0.00047943
0.000628319
0.0014725
-0.00139651
0.00237789
-0.000365424
0.00245621
-0.00255033
-0.000764379
0.000284949
-0.00110921
0.000694848
-0.000772412
-0.00134973
0.000870612
-0.00131764
-0.00151931
-0.000278119
-0.000684414
0.000962549
0.00124359
0.00122646
-0.00118935
0.00124199
-0.00242823
0.0011879
-0.000643364
-0.000398496
0.0010419
-0.00204354
-0.00151325
0.000832872
-0.00292021
0.00182603
0.00171441
-0.00394168
0.000323066
-0.000793589
0.000470525
-0.000175893
0.000572458
0.000187235
-0.00119135
0.000723057
0.00016686
0.00130581
0.000498562
0.000260937
-0.000759497
-0.000574805
0.000323592
0.00014074
0.00108578
0.00104599
-0.000277619
-0.000841431
-0.00108328
-0.00240623
0.00305036
-0.00294806
-0.00423083
0.00211344
0.0022122
-0.00332792
0.000669396
0.000336272
-0.000870977
-0.000741717
0.00161307
-0.00149002
0.00103877
0.000451353
-0.000586938
0.00156364
-0.000986909
0.000411333
-0.0019891
0.00272568
-0.000731483
0.00071418
0.00030625
-0.00030625
-0.000338989
-0.000450969
0.00192774
-0.000859474
-0.00106748
0.000429423
-0.000114117
-0.00299705
0.0029968
2.87987e-06
0.00072339
8.95223e-05
-0.000812911
0.00259303
-0.000316139
-0.00101726
0.000800595
0.000216681
0.00064498
-0.000915367
-0.000897645
-0.00141267
0.000148365
0.00126457
0.00346766
-0.00349699
7.57466e-05
0.000822172
-0.000362923
-0.00265099
0.00116107
0.0014925
0.00271701
-0.000169418
0.00092205
0.00240518
-0.00240647
5.15408e-06
0.00322306
-0.00103307
-0.00376872
0.00272229
0.00107292
-0.00190364
0.000999145
0.000905257
0.000468646
0.000262907
-0.000731553
0.00256421
-0.00108348
-0.00147855
0.000718218
0.00166038
-0.002377
-0.000183292
0.00101041
-0.000151744
0.000691313
0.00105311
0.00094591
-0.00244939
0.00124613
0.00120508
0.000397034
-0.000860684
0.000463653
-0.00188048
-0.0022435
-0.000539999
0.000755474
-0.00072727
2.37811e-05
0.00287606
-0.00181831
0.00076479
-0.00102964
0.000264868
0.00157561
-7.57623e-05
-0.00149959
-0.0014406
0.000641179
-0.000944332
0.00143409
-0.000489572
0.00169675
0.00065477
0.00115312
-0.00180125
0.000270131
-0.000270131
0.00101192
0.000785213
-0.00201094
0.00283756
0.00122279
-0.00056665
-0.00122617
-0.00108726
0.00231634
-0.00101333
0.00103767
-2.42929e-05
-0.00205233
-0.000249404
0.00238112
0.000542067
0.000644009
-0.00118601
-0.000920637
0.000314306
0.000839119
-0.00115341
-0.00141153
0.000467373
0.00085934
-0.000605411
-0.000253927
0.00172219
-0.000943597
2.382e-06
0.000919622
0.000506595
-0.0014261
0.000847879
-0.00309154
0.00231236
0.00217532
-0.00203558
-0.000996718
0.00014204
0.000616324
-0.000869838
0.000686395
-0.000348384
-0.000512297
0.00378953
-0.000505162
-0.00327113
-0.00145374
-0.00240055
0.000176315
0.00103592
-0.00121205
0.00113854
0.00162723
-0.00276105
0.00361196
-0.00366749
9.39627e-05
0.000745669
-0.000367532
-0.000470255
0.00109568
0.000670699
-0.000274015
-0.000396684
0.00121104
0.000181801
0.00139403
-0.00186992
-0.00144229
0.00331594
0.00357194
-0.000852207
-0.000512439
-0.000445866
0.000958319
0.00144737
-0.00141694
0.000261658
0.00102194
-0.0011809
0.000162579
-0.00104543
0.000619615
0.000597945
-0.00124404
0.00064617
0.000449343
-0.000839603
0.00332444
-2.12776e-05
-0.00153341
0.00160724
-0.000163086
0.000631732
-0.00131077
0.00269994
-0.00233695
0.00138997
0.000948548
-0.00281759
-0.000527371
0.000665775
0.000146083
-0.000811857
-5.75336e-05
-0.000403829
0.000229308
-0.000698752
-0.00309437
0.00347189
-0.000368685
-0.00135642
0.000698188
0.000923255
0.00109615
-0.00201834
-0.000244195
-0.000995759
0.00124012
0.00196157
-0.000629219
0.0031117
0.000621974
-0.00233328
0.00171544
0.000541592
0.00156112
-0.00199807
-0.00110619
0.000742693
0.000363529
0.00310378
-0.00117342
-0.00192776
-0.00030845
-0.00047026
0.00289547
-0.00156823
-0.00131951
-8.10377e-05
0.000842659
-0.000761607
-0.000820876
0.000544684
0.000276194
0.00223717
-0.000933176
-0.00130232
-0.00166984
0.000557783
0.00121904
-0.000838585
0.000506347
0.000332238
0.000545569
-0.000887391
0.00034183
0.000436725
0.00196641
0.00145019
-0.00152571
0.00327849
-0.000224569
-0.000479265
0.000628319
-0.000149054
0.000626235
0.00288543
-0.00090108
0.000664927
0.000616773
-0.00331588
0.00272723
-0.0010572
0.00167872
-0.000132503
-0.000884747
0.00194196
-0.00231678
0.00253147
0.000212864
0.00157639
-0.000739789
0.000480083
0.000259708
0.000850808
-0.000433705
-0.000417101
-0.000174916
0.000836225
-0.00435519
0.00283438
-0.000719316
0.000244123
0.00321506
-0.00230139
5.26301e-05
-0.00200517
-0.00141054
-0.00211316
0.000672672
0.00109993
-0.00122862
-9.83906e-05
0.00134131
0.000414085
-0.000885239
0.000471159
0.000486544
-0.00094558
0.000459043
0.000695633
0.00291786
0.000513473
5.83496e-05
-0.00135985
0.00202818
-0.00310968
9.91043e-05
-0.000301217
-0.000537367
0.00119454
0.000391888
0.000483669
-0.000774384
-0.00139781
0.00202357
0.000619821
-0.00269334
0.002882
-0.00200494
0.00113304
-0.0012917
0.000210482
-0.00400279
0.000362598
0.000728381
6.10069e-05
0.00084153
0.000301558
-0.00114306
-0.000565273
0.000364052
0.000440405
-0.00185271
0.000360909
-0.000460183
0.00140985
-0.00094929
-0.000685157
-0.00284381
0.000876625
-0.00199909
0.00112336
6.78688e-05
0.00138255
-0.000377784
-0.000259018
0.000636803
-0.0014914
-0.000938216
-0.000576137
0.00101141
-0.000435252
0.000129297
0.00131826
-0.00118546
0.000323021
0.000590498
-0.000807406
0.000216912
0.000669025
-7.85233e-05
0.000667854
-0.000430394
-0.00023746
0.000494725
0.000579836
0.000349172
-0.000928993
-0.00262493
0.000504303
5.55509e-05
-0.000872227
-0.0011248
0.000623746
0.000501079
-0.00105443
-0.00148458
-0.000353714
-0.000593894
-0.000602674
-0.000102693
0.000705372
-0.00186846
-0.000813817
0.00268777
-0.000461315
-0.00109345
-0.00339554
0.00127044
0.00128795
-0.00315005
0.000698333
-0.000499858
-0.00354434
0.000275353
0.0033136
0.00192699
-0.00104949
0.000583701
-0.000688483
0.00287692
-0.00249465
-0.000376195
-0.000770504
0.000355991
0.00264777
-0.000724385
-0.00192116
0.00148212
-0.000697119
-0.000784764
-0.000857863
0.000617874
0.00023999
0.00237188
0.000530053
0.000661474
0.000265319
0.00133716
-0.00160097
0.000946056
0.00129265
0.000546246
0.000304563
-0.00279732
0.00103145
-0.00129833
0.000266926
0.000773071
-0.000528903
-0.000210885
-0.00345658
0.000725775
0.00274788
0.000673445
-0.000322183
-0.000351262
-0.00245963
0.00149626
0.000272684
-0.000660894
0.00038821
-0.000283353
-0.000359816
0.000643169
0.000337229
0.000336216
0.00216023
-0.00132592
-0.000833507
0.00333465
-0.0026769
-0.000648774
0.00296114
0.000841314
0.000651011
0.000149388
-0.000784274
-0.000964004
0.000850829
-0.00341062
0.00257076
0.000376195
0.00148303
-0.00229773
0.00229464
-0.00085372
-0.00144
0.00175566
-0.000702414
-0.0019457
-0.000676223
-0.00105978
-0.00324135
-0.00259758
0.0015557
0.00104543
0.0011209
0.00159009
-0.00270846
-0.00193577
0.00200743
0.00207255
0.000369588
-0.000615774
0.000783915
-0.000168137
-0.00111693
0.000643679
0.000473286
0.00234512
-0.0014654
-0.000877609
0.00108286
-0.00169042
0.000608053
0.000380963
-0.000983631
0.00143394
-0.000714426
0.000683257
0.0012475
-0.00302316
0.000820697
-0.00208216
0.00126256
0.00228082
0.000824837
-0.00356329
0.000865055
0.00271881
0.00147258
0.000409949
-0.00188192
0.00303031
0.000149877
-0.00368502
0.00019424
-0.00109377
-0.000596996
0.0029602
0.000276601
0.000142605
-0.00115588
0.000521548
-0.00263887
0.000326753
-0.000625693
0.00029894
0.000618626
0.00043203
-0.00105063
0.00114125
-0.000457157
-0.000684035
-0.000732274
-0.000498977
0.00343601
-0.00050553
-0.00291119
0.00072878
-0.000592117
-0.00061635
0.00120855
5.98355e-05
0.00223464
-0.00294524
0.00189835
-0.000827249
0.000112825
-0.00132692
-0.00116487
0.00249348
-0.00119362
-0.000977789
0.000893569
-0.00015888
0.000735228
0.000369554
0.00124355
-0.00161286
0.00323115
-0.00281664
-0.000398922
-0.0003964
-0.00114002
0.000162256
0.000818271
0.00167567
-0.00140877
-0.00285619
0.00298145
0.00297124
0.000475831
-0.0034121
-0.00129017
0.000841573
-0.00198475
-0.00103807
0.00303072
0.000603744
-0.000166705
0.00118831
0.00179441
-0.00180577
-0.00110548
0.000835179
0.000809993
-0.00113443
0.000324475
-0.000981711
-0.00275907
-0.000863112
0.000247342
-0.000430038
0.000659346
0.000823089
-0.00129327
0.0011736
0.00172848
0.000833578
-0.000505807
0.000797781
0.00325277
-0.000644843
-0.00254871
0.000369779
0.00030092
-0.00112487
-0.00132264
0.00105515
0.00188629
-0.00291548
0.000721513
-0.00357162
0.00287857
-0.00108775
-0.00110591
-0.000894757
-0.00107816
0.00197402
-0.000508631
-0.000246502
-0.000844982
0.000245894
0.00211742
-0.00132915
-0.000787247
0.000396242
-0.000721641
0.0003254
0.00190181
-0.0002489
-0.0016513
0.00297438
-0.00288094
-8.38075e-05
0.000655268
-0.00111127
0.000456013
-0.00319219
0.00326943
0.000985939
-0.000494856
-0.000491063
-0.000790561
0.000177435
-0.00167009
0.00158105
0.00230521
-0.00185213
-0.00045035
-0.00331674
-0.000810128
0.000329631
0.000480498
0.000275125
-0.00075439
0.00068925
0.000424016
-0.00111322
-0.000714368
0.000339792
0.000374577