/*--------------------------------*- C++ -*----------------------------------*\
| =========                 |                                                 |
| \\      /  F ield         | OpenFOAM: The Open Source CFD Toolbox           |
|  \\    /   O peration     | Version:  v2012                                 |
|   \\  /    A nd           | Website:  www.openfoam.com                      |
|    \\/     M anipulation  |                                                 |
\*---------------------------------------------------------------------------*/
FoamFile
{
    version     2.0;
    format      ascii;
    class       volScalarField;
    location    "750";
    object      k;
}
// * * * * * * * * * * * * * * * * * * * * * * * * * * * * * * * * * * * * * //

dimensions      [0 2 -2 0 0 0 0];


internalField   nonuniform List<scalar> 
13917
(
0.000165767
0.000149476
0.061625
0.000154828
0.000148663
0.000192215
0.0594967
0.0635895
0.0791837
0.000173459
0.000207606
0.000185223
0.000155012
0.0157324
0.000155369
0.000154392
0.00014983
0.00017639
0.000184824
0.000148665
0.000149765
0.0589519
0.000148552
0.061057
0.000148249
0.0557075
0.000161489
0.000164193
0.00020791
0.000184659
0.000167483
0.00015825
0.000160017
0.000154429
0.000148399
0.000420119
0.000148608
0.0458494
0.000158382
0.0193011
0.000147554
0.000149899
0.000145259
0.00016804
0.000149391
0.000155793
0.000176136
0.000183953
0.000383863
0.000147989
0.000159096
0.00014979
0.000443838
0.000154744
0.000149878
0.000158369
0.000207015
0.000148612
0.000155642
0.000149183
0.0841507
0.000149499
0.00788312
0.000148586
0.000190974
0.0310135
0.000148637
0.000148492
0.000209596
0.000163274
0.000148707
0.0787211
0.0434699
0.000148257
0.000396812
0.000188692
0.0314055
0.000151628
0.0520685
0.00014955
0.000149321
0.000148678
0.000188511
0.0500536
0.0456444
0.000151393
0.000149147
0.0119119
0.000158721
0.000145237
0.0481532
0.000179677
0.000148056
0.000151282
0.0201535
0.000188019
0.000198626
0.000181705
0.000201398
0.000170005
0.000146709
0.000158508
0.000167876
0.000152806
0.000146851
0.0810226
0.000193407
0.000184943
0.000149874
0.000168296
0.0471025
0.0211919
0.000190748
0.0807421
0.000151116
0.000419652
0.000148081
0.000260064
0.0265669
0.000154686
0.000149815
0.000208153
0.0299232
0.000163574
0.000147808
0.000150953
0.000149147
0.000147872
0.000145291
0.000190398
0.0430247
0.000150952
0.00014948
0.000149818
0.00897069
0.0599422
0.000165889
0.000170763
0.000148591
0.000154549
0.000184963
0.000147161
0.000150358
0.000170151
0.000148505
0.071799
0.000211871
0.000149642
0.000146803
0.000158708
0.000180019
0.000425266
0.000191174
0.000163798
0.000157957
0.0245106
0.000162449
0.00773125
0.025635
0.0104325
0.000153041
0.000161696
0.000149551
0.000197559
0.000190281
0.000200969
0.000152715
0.000180954
0.000148506
0.000158963
0.000164472
0.0252735
0.000192836
0.000150677
0.0563912
0.000164923
0.0455307
0.000301085
0.0669538
0.000148032
0.000180895
0.000168387
0.000147139
0.000149083
0.000158053
0.0559542
0.000217675
0.0304584
0.000167135
0.000199774
7.25313e-05
0.0504268
0.000214584
0.000148623
0.000171679
0.000161132
0.000154258
0.000148121
0.000181503
0.00157781
0.000158854
0.000148092
0.000179305
0.000179826
0.0381266
0.00338584
0.000148393
0.000148702
0.000181344
0.0581064
0.000150127
0.0601844
0.0280079
0.000199859
0.000146872
0.000198913
0.000178488
0.0286779
0.000147894
0.0806401
0.00014796
0.00018396
0.000147326
0.049005
0.0818847
0.000154744
0.000410878
0.000158348
0.000146882
0.000422129
0.000192235
0.000166928
0.0585971
0.0230541
0.000146382
0.000158778
0.052894
0.0350999
0.000149495
0.000147589
0.021536
0.000202068
0.000149757
0.000171319
0.000188781
0.000161148
0.000165045
0.000149493
0.000164173
0.0257329
0.000149319
0.000185094
0.000173417
0.000149038
0.000148554
0.000185779
0.0279694
0.000189675
0.000158237
0.000155633
0.00014979
0.0245302
0.0822003
0.00017731
0.000146915
0.0405849
0.0246261
0.0162946
0.0511652
0.000190113
0.000149398
0.000147449
0.000176518
0.0426451
0.000196335
0.00015523
0.00519291
0.000175097
0.000145216
0.0612853
0.000148497
0.0592909
0.000158186
0.000149722
0.000156774
0.00016375
0.00016163
0.00015701
0.000160103
0.000149603
0.000123433
0.0579253
0.0860774
0.000147892
0.0229015
0.000149082
0.000149601
0.000148117
0.000229714
0.000148571
0.000185769
0.000164372
0.0001484
0.00017959
0.000152029
0.000341128
0.000164579
0.000178394
0.00014787
0.000148486
0.0440438
0.0284518
0.000148051
0.000147399
0.0574833
0.000147979
0.0468979
0.000147758
0.0519962
0.000151501
0.000221314
0.00016618
0.000434532
0.00015264
0.0014636
0.000184383
0.000156805
0.000201805
0.000200518
0.000149594
0.0432952
0.000171235
0.0285108
0.000153663
0.0202021
0.00015954
0.0576533
0.000180562
0.000173196
0.000172632
0.0621997
0.000149408
0.000165
0.0520524
0.00014924
0.000152341
0.02606
0.000184569
0.000150546
0.000125057
0.000203816
0.000146958
0.0229111
0.000370338
0.000148453
0.000147321
0.000149135
0.000146773
0.000133865
0.0628673
0.000207763
0.0493292
0.000148182
0.000187558
0.00837579
0.000173164
0.0595993
0.0475124
0.0815571
0.000146399
9.06549e-05
0.000147192
0.0737495
0.000149158
0.000450687
0.000188689
0.000156756
0.000149276
0.000180258
0.000182828
0.000183221
0.000615336
0.0527026
0.0223082
0.000164606
0.000172495
0.000147633
0.0385262
0.0573321
0.000148739
0.000477209
0.000148322
0.00021736
0.000151471
0.000149479
0.000152031
0.0471372
0.000151952
0.03131
0.0109108
0.000203843
0.000194135
0.000149552
0.000194866
0.000191188
0.000148198
0.000186232
0.000149162
0.000148311
0.00018451
0.00014972
0.000148301
0.00014716
0.000250293
0.00014963
0.0234274
0.0493928
0.00531241
0.000211042
0.0374919
0.029033
0.000172763
0.000148193
0.000203241
0.000157987
0.000159958
0.000148579
0.0688924
0.0584615
0.0480687
0.000154244
0.0001921
0.000153281
0.000159077
0.000183197
0.000151444
0.000140063
0.000149861
0.000148541
0.0518928
0.0439472
0.0460654
0.000183486
0.00354409
0.047393
0.0556268
0.0307084
0.000145479
0.000178898
0.000151544
0.000148846
0.000519862
0.000176752
0.000148832
0.000177826
0.00017116
0.0291145
0.000148175
0.000197077
0.0141142
0.000242192
0.0283968
0.000149682
0.000148782
0.000154166
0.000162458
0.00014641
0.0541412
0.000200679
0.000160092
0.0375691
0.000158317
0.000198152
0.0606741
0.000213367
0.000202793
0.000155037
0.000197095
0.000176532
0.000202701
0.000174379
0.000207004
0.000207488
0.000177821
0.000187954
0.000148142
0.00411877
0.000159937
0.000146842
0.000161661
0.000151958
0.0315305
0.0805173
0.000147895
0.000145457
0.0551601
0.0238652
0.000149721
0.0231495
0.000152474
0.000201342
0.000148008
0.0357667
0.00462611
0.000158699
0.000150132
0.0407861
0.000210246
0.0124328
0.000149777
0.0289759
0.000341682
0.0603072
0.000146947
0.0413922
0.085477
0.000173367
0.000147279
0.00014975
0.000188792
0.000233418
0.00014815
0.000147334
0.000147582
0.000147547
0.0354635
0.000947914
0.000172993
0.000213605
0.000147935
0.000146748
0.000191755
0.076062
0.000164365
0.000148618
0.000148273
0.000148457
0.0660922
0.0554629
0.000149103
0.000148464
9.50141e-05
0.000173992
0.000166172
0.000148712
0.000152121
0.00015707
0.000187362
0.000194027
0.000217155
0.000204316
0.000191103
0.00323313
0.000178207
0.000147945
0.0300545
0.000148467
0.000152775
0.00015574
0.00412244
0.00016994
0.000146825
0.000246289
0.000187628
0.00793391
0.000191217
0.000160228
0.000172553
0.000149208
0.0862144
0.000224689
0.061236
0.000149562
0.000161313
0.000218214
0.0496735
0.00974245
0.000182674
0.000186523
0.000154214
0.000154027
0.000148737
0.000165206
0.000168727
0.00014921
0.000178317
0.000172509
0.0623672
0.0146752
0.000153528
0.000197379
0.00282889
0.000157766
0.000149916
0.000440062
0.0775438
0.0721874
0.000213647
0.000145404
0.0257322
0.000188338
0.000147261
0.000162228
0.000186809
0.000159475
0.000184609
0.0525944
0.000202288
0.000171026
0.0861611
0.000152604
0.0259537
0.000149557
0.000149054
0.0255255
0.0788038
0.000205347
0.000152606
0.000150522
0.000148472
0.00017556
0.000437785
0.00019947
0.000154377
0.000200866
0.000179873
0.000148041
0.000382161
0.000198839
0.000140115
0.000147823
0.000201782
0.000151863
0.0139309
0.000174102
0.000169766
0.000161566
0.000147076
0.000146701
0.000149299
0.000174098
0.000156041
0.000239448
0.000526032
0.000180504
0.000147015
0.00020088
0.000206199
0.00112751
0.000149171
0.000155657
0.000147383
0.000162859
0.000155896
0.0844557
0.000149493
0.000626524
0.000162431
0.00020722
0.000179333
0.0429659
0.000170625
0.000149607
0.0401894
0.0106544
0.000148699
0.000155647
0.00694788
0.000207784
0.000196396
0.000149544
0.000150242
0.000205832
0.000157
0.000182798
0.000184654
0.000146767
0.000179974
0.0615975
0.000149163
0.000153276
0.000147719
0.026609
0.000149756
0.000153843
0.0273348
0.000152022
0.0752754
0.000157956
0.000160238
0.00014767
0.000166243
0.000148161
0.000175545
0.000147108
0.000173279
0.000152456
0.0179962
0.000319402
0.0760055
0.000152776
0.000149326
0.000177294
0.000170166
0.0312985
0.0797175
0.000175964
0.000148361
0.000245778
0.000205363
0.000145413
0.000218586
0.000176016
0.0509078
0.000165064
0.000173792
0.000197944
0.000178314
0.000175617
0.000235685
0.000174947
0.00015451
0.000188178
0.000156947
0.000147882
0.00016259
0.000168534
0.000158074
0.000148221
0.000147505
0.000180256
0.00015349
0.000182935
0.000148348
0.000148396
0.00014981
0.000151886
0.000145143
0.000156021
0.000147857
0.0345133
0.000184897
0.000187733
0.000146544
0.000149624
0.000163358
0.000176895
0.000150627
0.07459
0.00017482
0.0575236
0.000162583
0.00019511
0.000150974
0.000149779
0.000147429
0.000152025
0.0192682
0.000149679
0.0163461
0.000156426
0.0101313
0.000165
0.000175445
0.000206616
0.000146056
0.000149934
0.00018526
0.000148503
0.000149965
0.0604622
0.000150868
0.000149138
0.000159175
0.000147529
0.000145956
0.000158252
0.000156235
0.0257469
0.000163566
0.000149162
0.000147277
0.0541245
0.000174123
0.00014935
0.000149563
0.0656379
0.00471853
0.0224222
0.00016023
0.00015452
0.000146458
0.000145796
0.000178263
0.000164248
0.000219099
0.000154003
0.0401251
0.000149954
0.000152275
0.018696
0.000148364
0.000160192
0.000148421
0.000148427
0.000167669
0.000161861
0.000150875
0.0766067
0.0255807
0.000179911
0.000147936
0.000145729
0.00019916
0.0139333
0.000149717
0.00188742
0.000145668
0.000167537
0.000148283
0.000148141
0.000248268
0.000149153
0.0213719
0.000167441
0.000149808
0.000145496
0.000148763
0.00014766
0.000153037
0.000429002
0.000148847
0.000147673
0.074554
0.0758912
0.000171987
0.000169446
0.000182426
0.000156389
0.000147286
0.000156307
0.0359199
0.000174045
0.000148807
0.00014995
0.0805229
0.000167799
0.05578
0.00014976
0.000150811
0.0242951
0.000166003
0.000151138
0.0173201
0.000287383
0.000147613
0.000195201
0.000147413
0.000148992
0.000146479
0.044618
0.000145059
0.000149542
0.000147276
0.0274724
0.000157083
0.000201286
0.000165639
0.000148224
0.000158717
0.000149099
0.0508396
0.000147708
0.000148977
0.000149146
0.000200039
0.00014909
0.000202454
0.0205495
0.0559196
0.000155283
8.24516e-05
0.0323383
0.000148458
0.0216774
0.0833442
0.0363874
0.0376735
0.073688
0.00865474
0.000198814
0.000149857
0.0517363
0.000165817
0.0568376
0.000146777
0.000148058
0.000149396
0.000149051
0.000157731
0.000158229
0.0324705
0.000147973
0.000148475
0.0116198
0.000187588
0.000148746
0.000160181
0.000160969
0.000150022
0.000308005
0.000160414
0.000152471
0.000156923
0.0207796
0.0233129
0.000253177
0.000148129
0.000207998
0.000187682
0.0340233
0.0822333
0.000192231
0.000148006
0.000151153
0.000149946
0.000144686
0.000152094
0.000145391
0.000157178
0.000164567
0.0417997
0.000200724
0.000149572
0.000194716
0.0572652
0.000166704
0.000149642
0.027648
0.000148269
0.000149739
0.000160497
0.0427332
0.000149088
0.000147851
0.0608298
0.000144982
0.00161407
0.000193472
0.000591898
0.000147673
0.000204656
0.000149749
0.000147946
0.000149766
0.0550686
0.0277364
0.000147762
0.000145498
0.000148548
0.00750398
0.000151639
0.000161637
0.000148479
0.000150204
0.00020324
0.000148352
0.000176195
0.000197716
0.0464814
0.000148886
0.000172304
0.000153721
0.0403597
0.0548719
0.00014827
0.0429803
0.000183741
0.000265083
0.000149081
0.0466877
0.0001496
0.000158083
0.000166617
0.000193358
0.056853
0.000164957
0.000212288
0.0801501
0.000146958
0.00022895
0.00014814
0.00015692
0.0613417
0.000148893
0.000149657
0.000151377
0.000149847
0.0401729
0.000145925
0.000148491
0.000180252
0.000170365
0.000176798
0.000202901
0.000200634
0.0186449
0.000185524
0.000167124
0.000173194
0.0370931
0.000172586
0.0665449
0.054972
0.000157544
0.000148447
0.0364708
0.000144386
0.000149652
0.00019221
0.000164836
0.000151008
0.00015829
0.000150026
0.00016685
0.000149943
0.000175614
0.000170788
0.000147226
0.00017724
0.00014808
0.0001669
0.000147083
0.000154874
0.000179305
0.000153827
0.00014981
0.000147791
0.000289528
0.000176965
0.0712607
0.000148304
0.000149338
0.000180867
0.000148415
0.000185555
0.000176916
0.000151001
0.000189132
0.000147955
0.0764999
0.000149544
0.000170702
0.0290944
0.000236897
0.000147728
0.0001526
0.0173288
0.000147961
0.000147461
0.03801
0.0496209
0.000153003
0.000209085
0.000148598
0.000149817
0.0551951
0.000151823
0.000146126
0.000151674
0.000148206
0.00354847
0.000149276
0.000146112
0.000149362
0.000201262
0.0349592
0.000149035
0.000149589
0.000147668
0.00015518
0.00014839
0.000226499
0.000176966
0.000149773
0.0650084
0.000165101
0.000229253
0.0496635
0.000430877
0.00014758
0.000149494
0.00014872
0.000208577
0.000155588
0.0348842
0.0308721
0.000152588
0.0605349
0.000317286
0.000176077
0.000203497
0.000169413
0.000189234
0.0563969
0.000167457
0.000422191
0.0528021
0.000184575
0.000154492
0.0380477
0.000164211
0.000146917
0.000153172
0.0772728
0.000163133
0.000147838
0.000166557
0.000187474
0.000164927
0.0375378
0.000152903
0.0748848
0.00017303
0.000160495
0.000194967
0.000209734
0.000160366
0.000147831
0.000150627
0.0592942
0.000147987
0.000152836
0.000147286
0.000152151
0.000148101
0.000160467
0.000206199
0.000298641
0.000162857
0.000165054
0.047107
0.000192082
0.000148141
0.00595588
0.0525206
0.000146611
0.000147409
0.000162155
0.0225932
0.000149669
0.000181455
0.000211126
0.000167104
0.000148729
0.000153418
0.000148369
0.0001921
0.000163297
0.000147797
0.0221058
0.0513883
0.000163762
0.00252552
0.000184976
0.00290861
0.000151927
0.00015681
0.0474281
0.005507
0.000192538
0.000266336
0.000158758
0.000149833
0.000149107
0.000149478
0.000148475
0.000150461
0.000166986
0.000147783
0.000200264
0.00014752
0.000159774
0.000147915
0.000175628
0.000200113
0.000326787
0.000148379
0.000212004
0.000149093
0.04546
0.000148309
0.000154339
0.000148765
0.000237699
0.03905
0.000203084
0.000147771
0.000200718
0.000148678
0.000160007
0.04811
0.000148814
0.0001498
0.000169561
0.000162234
0.0601541
0.000147802
0.000158352
0.000153663
0.000148265
0.000158737
0.000150331
0.00014623
0.000152234
0.0285258
0.00015439
0.000120581
0.0708863
0.000175498
0.0370385
0.000153997
0.000146271
0.000158987
0.0233451
0.000154063
0.000162389
0.000173401
0.000785623
0.000147545
0.00363578
0.000177908
0.000182081
0.000146533
0.000145578
0.000210722
0.000149957
0.0001499
0.000159115
0.000146768
0.000153214
0.000159239
0.000186297
0.000181549
0.0580843
0.00015792
0.000187076
0.0147374
0.0160726
0.000170757
0.000181823
0.0217428
0.000169643
0.0743881
0.00015223
0.00997347
0.00348464
0.000146946
0.000149723
0.000147644
0.000151831
0.000169026
0.000148021
0.000152577
0.000192245
0.000152834
0.000160412
0.0444004
0.000157652
0.000154971
0.0794989
0.000151125
0.0233523
0.000155976
0.000165232
0.000147478
0.0277118
0.0280942
0.000148696
0.000152139
0.0479779
0.000157277
0.0155464
0.000148018
0.000148234
0.0619613
0.00015192
0.000162555
0.00869428
0.000148456
0.00017578
0.000159618
0.000145576
0.000147268
0.0506572
0.0303446
0.000149705
0.000153671
0.000148728
0.000156704
0.000160005
0.0291621
0.000150582
0.000328843
0.0213007
0.000129378
0.00859878
0.000151717
0.000198924
0.000178719
0.000157023
0.000148414
0.000182642
0.0460023
0.000151891
0.000162954
0.0629689
0.000458947
0.000183646
0.000154017
0.000149568
0.000149608
0.000148472
0.023857
0.00017886
0.000154636
0.000152455
0.000154723
0.000149789
0.000148305
0.000148496
0.000186653
0.000171871
0.061966
0.000163442
0.00880352
0.0333324
0.000158748
0.000176502
0.000146666
0.000157803
0.0235444
0.000149281
0.000152661
0.000177502
0.000196573
0.000164522
0.0476035
0.000143698
0.000148261
0.042686
0.000145342
0.000150164
0.000163942
0.00014981
0.000149321
0.00020933
0.0737251
0.000148215
0.0500331
0.000149235
0.000147524
0.000152513
0.000352624
0.000159387
0.000155982
0.0793314
0.000151638
0.000213271
0.0423997
0.000149607
0.000163632
0.00014794
0.0199446
0.000182013
0.000148521
0.0529807
0.000177632
0.000167922
0.000149848
0.0264782
0.000157308
0.000188638
0.00015304
0.000167652
0.0278008
0.000147648
0.000250687
0.000148982
0.000177407
0.000163952
0.000149601
0.0316696
0.000152448
0.000196211
0.000176793
0.00016954
0.000162959
0.000163163
0.000150421
0.0625349
0.000159195
0.0198235
0.000157955
0.000184201
0.000148726
0.000168444
0.000148664
0.000186661
0.0569275
0.00015102
0.000147346
0.000439944
0.000151913
0.0200626
0.000150766
0.0522123
0.000193979
0.000163496
0.000147961
0.000147624
0.000148684
0.000145445
0.000189922
0.000165966
0.000160697
0.000156001
0.00014845
0.00569117
0.000153867
0.000162758
0.00953782
0.000148569
0.0161313
0.000177191
0.00016414
0.000248784
0.0414296
0.000128725
0.0519605
0.0327842
0.000147523
0.000198568
0.0313753
0.000187074
0.000149093
0.000149417
0.000198287
0.0526077
0.0234429
0.000230972
0.000151172
0.00016442
0.000170144
0.0408366
0.00289154
0.000173213
0.000200856
0.000153167
0.000176413
0.00019242
0.000149036
0.000187996
0.0699554
0.000148806
0.0114807
0.000149665
0.000148975
0.0347301
0.0507883
0.0001469
0.000151449
0.000150608
0.000148169
0.000166388
0.000210796
0.000153331
0.000147871
0.000148568
0.000172896
0.000158591
0.000158186
0.000139115
0.000148422
0.0545685
0.0164885
0.0634081
0.000175756
0.000173791
0.000906331
0.000165397
0.0508858
0.00307102
0.017184
0.000150171
0.0844241
0.0354124
0.000146356
0.00014823
0.000184757
0.0546552
0.0709755
0.000148316
0.000148693
0.0444028
0.00232306
0.0122186
0.000153621
0.00015262
0.000292057
0.000149324
0.0500824
0.0312941
0.00130294
0.000386277
0.000148771
0.00014771
0.000147115
0.000154966
0.0361863
0.000172133
0.000157752
0.000150467
0.000173116
0.0236099
0.000172938
0.0640154
0.0149791
0.0256689
0.000313069
0.000148381
0.000149084
0.0512961
0.000145794
0.000146825
0.000151519
0.000371343
0.000168397
0.0389312
0.000194045
0.00014822
0.0781648
0.000167337
0.000148092
0.016769
0.000175994
0.000153972
0.000150015
0.00532351
0.0590592
0.00014914
0.075525
0.0235849
0.0598412
0.00029142
0.00017624
0.000147984
0.000151028
0.000337964
0.000156463
0.0504898
0.000168304
0.00135284
0.00015549
0.000151023
0.000157443
0.000148072
0.000150647
0.0554178
0.0200613
0.000148475
0.0221251
0.000173741
0.000148719
0.000153774
0.00014761
0.00020469
0.000150541
0.000313081
0.000164738
0.000147941
0.000147035
0.000169587
0.0227982
0.000169185
0.000153358
0.000168774
0.000148622
0.000152479
0.000159946
0.0187131
0.0307035
0.0569224
0.000146132
0.000146981
0.000149977
0.000199332
0.000147242
0.000150126
0.000209798
0.000180805
0.00032189
0.000146755
0.0598979
0.0307765
0.000149885
0.0179728
0.000197202
0.00017035
0.000316875
0.000149805
0.0371515
0.000157634
0.000151376
0.000152616
0.000145754
0.000175211
0.000154118
0.000152651
0.000157858
0.0316667
0.0368346
0.000149615
0.000148031
0.000152977
0.000148873
0.000196531
0.000150001
0.000183989
0.000153848
0.044196
0.000152094
0.0609299
0.000146186
0.0790942
0.000150519
0.000145663
0.0613935
0.000184841
0.000171599
0.00113523
0.000162419
0.00017106
0.000148479
0.0350974
0.000148459
0.000147271
0.000168665
0.000184878
0.0462384
0.0398148
0.000194922
0.0774505
0.000193046
0.000527096
0.000148739
0.000155902
0.000160627
0.0552072
0.000153689
0.0538364
0.0308336
0.000150455
0.000148769
0.000148575
0.000371334
0.000424709
0.000153367
0.000148673
0.000155169
0.000158713
0.000168931
0.000243212
0.000193762
0.00014832
0.000204022
0.000182025
0.0220472
0.000182667
0.000152141
0.000153788
0.0763069
0.00014709
0.000185055
0.05916
0.000150807
0.000155541
0.000210903
0.000172943
0.000150786
0.0247214
0.000154705
0.000241569
0.000173605
0.000158374
0.000152099
0.0563751
0.000147009
0.000171488
0.000260208
0.0587537
0.000173706
0.000176097
0.000157952
0.000163749
0.000149752
0.0604275
0.000159138
0.000149247
0.000161746
0.000148518
0.000149776
0.000378202
0.000148449
0.000149118
0.00014873
0.000201334
0.000149524
0.00016199
0.000186574
0.000202197
0.000190797
0.000149662
0.000183636
0.000193694
0.000205563
0.000181455
0.000155911
0.000204078
0.0545845
0.000240271
0.000149887
0.0546829
0.0522949
0.000149882
0.000154251
0.00014563
0.000218044
0.000185127
0.000149733
0.000250924
0.0530877
0.000146672
0.000149411
0.0478224
0.0332275
0.00018534
0.000145849
0.0457234
0.0379098
0.000479634
0.000148182
0.05686
0.000190429
0.000167573
0.0492465
0.00015764
0.000145724
0.00016153
0.00019957
0.000164232
0.0512604
0.0621666
0.000147337
0.0727643
0.000198098
0.0363323
0.000146188
0.000163533
0.000149657
0.000147993
0.0609524
0.0100339
0.000242426
0.0131609
0.000157988
0.000174385
0.000151725
0.0617771
0.0228179
0.000148474
0.000149895
0.000158347
0.000148603
0.000176832
0.0647287
0.0811164
0.000174936
0.000150769
0.000150292
0.0607686
0.000154073
0.000176977
0.000147164
0.000151418
0.000243745
0.0124156
0.000220395
0.000359507
0.000149072
0.000226398
0.000152764
0.000163812
0.0836498
0.0200967
0.00014847
0.000149956
0.000169421
0.000154597
0.000149326
0.0655924
0.0548405
0.000147618
0.000144966
0.000149214
0.000147724
0.000330306
0.000147639
0.049324
0.000190346
0.00018488
0.000148013
0.000167196
0.0648997
0.000165887
0.000194575
0.0478438
0.000149538
0.0263246
0.000158951
0.000159743
0.00018973
0.0264101
0.0357551
0.00018336
0.000147592
0.000189829
0.000147692
0.000154105
0.000149368
0.0483968
0.000159132
0.00144841
5.93244e-05
0.000174078
0.000148764
0.000210466
0.000159114
0.000149785
0.000181714
0.000145255
0.000172159
0.000165253
0.000149255
0.0786281
0.000152212
0.000203193
0.000150935
0.0001476
0.0546228
0.0480143
0.000152886
0.00015861
0.000172059
0.00017192
0.000182111
0.000159008
0.000155276
0.000156448
0.000201799
0.000154091
0.0488261
0.000166693
0.000118791
0.000198156
0.000151773
0.067764
0.000145285
0.0592922
0.000152961
0.053234
0.00609422
0.0282333
0.0452816
0.000216328
0.000168522
0.000149582
0.0628078
0.000169853
0.000148524
0.0212832
0.0686471
0.000151693
0.000154631
0.000161185
0.000161229
0.000165293
0.0344993
0.000149883
0.000164263
0.000168584
0.000159571
0.00014903
0.000191058
0.00014573
0.0501674
0.000152443
0.000193419
0.000162762
0.000169764
0.000183476
0.0107771
0.000182416
0.000147353
0.000187781
0.0608113
0.0684485
0.000151069
0.0475802
0.000160885
0.000292555
0.000148461
0.000153658
0.0533291
0.000179883
0.0277064
0.025338
0.000159131
0.0729851
0.00014846
0.000145698
0.0217141
0.000164947
0.0001536
0.0760865
0.000157575
0.00016341
0.000157921
0.00017727
0.000149608
0.0589833
0.0622851
0.00971831
0.000248126
0.000156419
0.000172001
0.0293464
0.000153127
0.000149714
0.000176593
0.000146126
0.000183786
0.0492846
0.0217839
0.0283644
0.000180437
0.000151296
0.0595453
0.000145347
0.000186924
0.000149541
0.0398774
0.000153111
0.000164554
0.0394446
0.000193556
0.000148073
0.000159554
0.0102948
0.000148822
0.000203693
0.000147425
0.0661147
0.0538929
0.000197199
0.000168015
0.000147589
0.000156272
0.000203568
0.000169408
0.000147416
0.000151576
0.000148894
0.000180128
0.000148761
0.000191341
0.000149054
0.000147752
0.0832986
0.000148136
0.000157533
0.000157129
0.000149821
0.0452188
0.000147979
0.00016168
0.0567281
0.000178413
0.0469855
0.000148754
0.0585712
0.000179568
0.0747049
0.000152692
0.000200877
0.000150509
0.00017121
0.000200254
0.000198047
0.000215421
0.0534494
0.0002084
0.000403721
0.000155593
0.000197562
0.00016323
0.000241835
0.000153968
0.000150288
0.000148543
0.000178759
0.00016502
0.00529201
0.000177869
0.0558941
0.0656655
0.000170314
0.000148555
0.0193135
0.00017839
0.000150132
0.000152895
0.00014883
0.0491854
0.000148525
0.0174382
0.000148017
0.000159695
0.0366727
0.000170715
0.000148363
0.000148492
0.0249956
0.000147958
0.000153078
0.000156456
0.000160929
0.00015864
0.000149345
0.000205269
0.000167758
0.000162821
0.00022647
0.0444708
0.0433815
0.0302114
0.000146262
0.000148297
0.00017193
0.000151296
0.000163313
0.0475399
0.0430192
0.000145796
0.000148457
0.0423896
0.000189072
0.000145984
0.00014743
0.00015529
0.0572549
0.0532965
0.000157394
0.000162722
0.000149293
0.000251199
0.000201008
0.000173875
0.000158283
0.000163751
0.000149976
0.000166955
0.000196465
0.000150793
0.000149746
0.000156975
0.0602259
0.000154383
0.0223917
0.000148652
0.0511186
0.000162302
0.000156219
0.000146479
0.000147532
0.0002493
0.0652818
0.000164805
0.0251952
0.0569301
0.000150287
0.0525308
0.000202944
0.000148378
0.0272159
6.67328e-05
0.000197024
0.000149665
0.0406454
0.0373601
0.000149238
0.000162842
0.0301139
0.000166597
0.000148774
0.000147645
0.000150522
0.000154623
0.000182545
0.000219407
0.000167431
0.000180105
0.000146492
0.000149346
0.0515453
0.000147783
0.000168392
0.000155236
0.000150623
0.000174397
0.000148192
0.000152609
0.000243987
0.000147933
0.0424936
0.000148211
0.00477262
0.0498147
0.000188048
0.000149563
0.000149947
0.0581835
0.000145665
0.000154006
0.000149791
0.000203785
0.000354138
0.000164999
0.0488368
0.000162734
0.00130756
0.0001503
0.000185267
0.000148318
0.000148872
0.0216553
0.0470387
0.000328516
0.000153264
0.000184316
0.000184819
0.0392283
0.0570597
0.000244712
0.0001671
0.000145289
0.0498413
0.00014866
0.000148899
0.000232479
0.000198239
0.000156883
0.000178003
0.00016396
0.000159826
0.000158598
0.0755825
0.000154863
0.000147904
0.0205621
0.000164243
0.000146474
0.0356747
0.000148113
0.000148687
0.00020478
0.000186473
0.0400345
0.000146585
0.000153811
0.000147684
0.000308644
0.000147838
0.000198289
0.0167735
0.0467825
0.0333362
0.0154024
0.000157591
0.0421713
0.000221552
0.000149361
0.000158532
0.000162807
0.000157832
0.000246484
0.0447175
0.0511136
0.0469218
0.00035441
0.000149202
0.00019539
0.00014815
0.0217043
0.000160479
0.000153439
0.000154242
0.000151376
0.000147791
0.000194379
0.0526012
0.000146141
0.000153342
0.00014697
0.039404
0.000153125
0.0779246
0.0466674
0.000258922
0.000148589
0.000147854
0.0369797
0.00018975
0.000148867
0.000190795
0.000149493
0.000187794
0.000177487
0.000189509
0.000178076
0.0390411
0.000147178
0.000148415
0.000227098
0.0366127
0.000160035
0.000166632
0.000148016
0.0163376
0.000148234
0.000147618
0.000152336
0.000148363
0.00701935
0.0439695
0.00245098
0.000183581
0.0580811
0.00040735
0.000145759
0.000164094
0.000146174
0.000251815
0.000149362
0.000153921
0.000148278
0.000147487
0.000147966
0.000402999
0.00015273
0.000275414
0.000146463
0.000158579
0.000158007
0.000265591
0.000148288
0.000163966
0.000168657
0.000172212
0.0776272
0.000147486
0.0327896
0.000176252
0.000164741
0.000149693
0.000147813
0.0375516
0.00942783
0.000149452
0.000148419
0.000235807
0.000232991
0.000160639
0.0565494
0.000150877
6.2064e-05
0.000164426
0.000146127
0.0572077
0.000153551
0.0529639
0.000148496
0.000151279
0.000148745
0.0399441
0.0448868
0.000145924
0.000180826
0.000236772
0.000148285
0.000148298
0.000147679
0.000182208
0.0558558
0.000175133
0.000156215
0.000167797
0.000148195
0.000148714
0.000153546
0.000147964
0.000213158
0.000148786
0.000184346
0.000311194
0.000164991
0.000145365
0.0439062
0.000186154
0.000148245
0.000178082
0.000163133
0.00163961
0.000153283
0.0830108
0.000175639
0.000148511
0.000183169
0.000183498
0.000155304
0.0818076
0.000182991
0.000164402
0.00239489
0.000148211
0.000185257
0.000168887
0.000181969
0.000147618
0.000148302
0.000145625
0.000158967
0.000180944
0.000180225
0.0649531
0.0322323
0.0475536
0.000149765
0.000295879
0.051319
0.0623512
0.000148316
0.000148709
0.000178525
0.056352
0.000153256
0.000168235
0.0118361
0.0342244
0.00475362
0.000171323
0.000205468
0.0409594
0.000162903
0.000145779
0.00215811
0.000231127
0.000150274
0.000150789
0.000151196
0.0593319
0.000185247
0.0639333
0.000153636
0.0128559
0.000149514
0.00152143
0.0343604
0.000149425
0.000166823
0.0476322
0.0517616
0.000174706
0.000151826
0.000152578
0.000149913
0.000184972
0.000200049
0.000470679
0.0600088
0.000146915
0.0186848
0.000191618
0.00156787
0.000148073
0.000149031
0.00902343
0.000181895
0.000148188
0.000172956
0.000166942
0.000160936
0.0491349
0.0618872
0.0638565
0.0576411
0.000154814
0.000146443
0.000166086
0.0281693
0.0679099
0.00014902
0.0001828
0.00016868
0.000192822
0.000151921
0.000149691
0.000238407
0.0147158
0.0136592
0.000271719
0.025736
0.000147771
0.00018194
0.0563589
0.000149471
0.000165562
0.000191812
0.000146052
0.000206146
0.0711371
0.00018001
0.000149684
0.0207799
0.000196203
0.0500693
0.000144787
0.000154515
0.000149387
0.000153899
0.000149258
0.000171272
0.000162878
0.00016252
0.00018573
0.000166503
0.0428853
0.000154262
0.000163407
0.000158241
0.0205239
0.000164862
0.0329178
0.000157953
0.00015633
0.0107161
0.00016974
0.000148808
0.000162794
0.0167464
0.067839
0.000198451
0.000148396
0.00014792
0.000148275
0.000914886
0.000151806
0.000331646
0.000257791
0.000182015
0.000161409
0.000211481
0.0280614
0.000149241
0.0732907
0.000160318
0.000163639
0.000148424
0.000148892
0.000175618
0.0587935
0.000148422
0.0299138
0.000216854
0.00017006
0.000199435
0.000147944
0.0001481
0.000162311
0.000153018
0.0622308
0.0265368
0.000169759
0.000248564
0.000148341
0.000149318
0.000149722
0.000149604
0.0825181
0.000153152
0.0411209
0.000168717
0.000152027
0.00018901
0.000592343
0.0409642
0.0204542
0.000153806
0.000148256
0.000148809
0.000154719
0.000214683
0.000180188
0.0821634
0.000148972
0.000151317
0.000176157
0.000149709
0.000174488
0.000152315
0.000174861
0.000176178
0.000162802
0.000163006
0.000146605
0.000172924
0.000162503
0.000180754
0.000167717
0.000163175
0.000147071
0.000188161
0.000147773
0.000878655
0.0494969
0.000224456
0.000148838
0.000170964