/*--------------------------------*- C++ -*----------------------------------*\
| =========                 |                                                 |
| \\      /  F ield         | OpenFOAM: The Open Source CFD Toolbox           |
|  \\    /   O peration     | Version:  v2012                                 |
|   \\  /    A nd           | Website:  www.openfoam.com                      |
|    \\/     M anipulation  |                                                 |
\*---------------------------------------------------------------------------*/
FoamFile
{
    version     2.0;
    format      ascii;
    class       surfaceScalarField;
    location    "700";
    object      phi;
}
// * * * * * * * * * * * * * * * * * * * * * * * * * * * * * * * * * * * * * //

dimensions      [0 3 -1 0 0 0 0];
oriented        oriented;


internalField   nonuniform List<scalar> 
20537
(
-0.38311
0.509883
-0.126758
-0.124293
-0.0596128
0.183906
-0.18944
0.168122
0.0213192
-0.0264605
-0.300158
0.326632
-0.149685
0.165114
-0.0154293
0.299152
-0.475664
0.176518
0.197018
0.203988
-0.400976
0.247717
-0.0905366
-0.157179
-0.45684
-0.0915803
0.548457
-0.0266194
0.207088
-0.180468
0.536567
-0.109325
-0.42724
0.061552
-0.11192
0.0503677
0.0846889
0.0121345
-0.0968233
-0.035732
0.00929304
0.026439
0.679786
-0.548945
-0.130703
0.27899
-0.289365
0.010379
-0.0461985
0.284364
-0.238159
0.444698
-0.254826
-0.189866
-0.139067
0.144591
-0.00552389
0.0801853
-0.536987
0.345569
-0.372007
-0.0812269
-0.108213
-0.363903
0.584356
-0.220438
-0.69015
0.0982454
0.591966
-0.54937
0.185482
0.218788
0.0289304
-0.0872619
-0.182408
0.269675
-0.00404929
-0.00140705
0.00175581
-0.38485
0.226018
-0.354198
0.12819
0.475982
-0.176826
0.232984
-0.279177
-0.0221263
0.190249
0.483498
-0.431708
-0.051788
-0.602293
-0.087792
0.116048
-0.130533
0.014485
-0.00201727
0.0926134
-0.0905961
0.209581
-0.130006
-0.0795743
0.145137
-0.171756
0.125981
0.357519
0.0407845
0.340845
-0.381595
0.488894
-0.664077
0.175189
-0.000951576
-0.000921282
0.00187286
0.397244
-0.537908
0.140665
0.53135
-0.134106
0.00553279
-0.00533534
-0.000197446
-0.538828
0.139983
0.398845
0.114519
-0.443325
0.328808
0.174304
-0.261562
0.333032
0.224759
-0.557783
0.165476
-0.0191178
-0.146358
0.148565
-0.0767517
-0.0718131
0.00102334
-0.00519684
0.00417351
-0.738768
0.376188
0.362711
0.658863
-0.539435
-0.119305
0.663224
-0.174326
0.65161
-0.295059
-0.356517
-0.0027797
-0.00529984
0.00807954
-0.186812
0.412843
0.286604
0.0945524
-0.381129
0.0504523
0.159129
0.0510312
-0.0535813
0.0025502
-0.403537
0.308555
0.0949872
-0.144286
0.130168
0.0141181
-0.16158
0.3268
-0.165219
-0.448049
0.141862
0.306198
0.0693841
-0.0714014
-0.571997
0.186769
-0.215407
0.21761
-0.0022021
0.194655
0.25005
0.0129986
-0.0159147
0.00291611
0.0848441
-0.0756777
-0.00916634
0.0658973
-0.19019
-0.292985
-0.44563
0.28156
-0.587609
0.306158
-0.52613
0.434184
0.0919702
-0.138296
0.0570694
-0.02258
0.000731531
0.0218485
-0.00159197
-0.176176
0.177769
0.0153301
-0.00121973
-0.170927
0.433666
-0.262718
0.437098
0.0835267
-0.520625
-0.437684
-0.0491269
0.486875
0.00382404
-0.00689185
0.0030678
-0.33288
-0.0706525
0.106671
-0.0451192
0.481202
-0.155887
-0.325308
0.0402994
0.131174
-0.171473
-0.264459
0.325352
-0.0608882
-0.356811
-0.247952
0.604779
0.0218376
0.0942103
-0.0958986
-0.306652
0.402561
-0.257298
-0.0919771
0.253538
-0.161558
-0.0295983
-0.234855
0.562504
-0.550866
-0.0116036
0.0297518
-0.179436
0.00613346
0.0319173
-0.0380508
-0.177806
0.510846
-0.0246969
0.587241
-0.000991945
-0.00300649
0.00399843
0.177316
-0.17483
-0.0024851
0.0718965
-0.382308
0.310429
0.268264
-0.0171306
-0.457356
-0.0992975
0.556656
-0.500926
0.400766
0.100166
-0.182837
0.179685
0.00315202
0.52391
-0.68246
0.158554
0.0643585
0.00964907
-0.165951
-0.309707
-0.54045
-0.0194981
0.55999
0.272692
-0.629486
0.302814
-0.398702
-0.65182
0.651879
-0.0717511
-0.468653
0.347404
-0.0271038
-0.0480803
0.0542138
0.0727439
-0.472173
0.399435
-0.574675
0.576946
-0.00218485
-0.192993
0.565043
-0.371944
-0.00153508
0.000583506
0.237782
0.0304879
0.0882234
-0.00353452
0.204011
0.424793
-0.310271
-0.769556
0.345873
0.42369
0.138157
0.286639
0.159987
-0.189891
0.029905
0.0260898
0.319498
0.173433
-0.0832075
-0.0902249
0.424967
-0.384141
0.555849
-0.159789
-0.396002
0.0172259
-0.00422729
-0.554012
0.116395
0.318793
-0.572298
0.607736
-0.035369
0.555606
-0.482855
-0.0696102
0.0864795
-0.0168692
0.0175713
-0.014883
-0.00268838
-0.0191837
-0.0178878
0.0370715
-3.72561e-06
-0.000988222
0.379255
0.279742
0.159136
-0.557843
0.398725
0.718017
-0.382013
-0.335998
0.413066
-0.0831958
-0.329861
-0.112852
-0.425055
-0.456409
0.622363
-0.165952
0.0418542
0.131579
-0.270141
0.467198
0.110202
0.421148
-0.00182256
0.13103
-0.425048
0.618435
-0.193276
-0.00246468
-0.0332673
0.309252
0.342388
0.366136
-0.208234
-0.157895
0.306809
0.106267
-0.497029
0.184971
0.312095
0.237135
0.126664
-0.363788
0.0149
0.133665
0.00353083
0.161946
-0.353728
-0.246821
0.600549
-0.0773818
0.22746
-0.150076
0.00385219
-0.00663189
0.162753
0.393148
0.275227
-0.372932
0.0977125
0.640784
-0.230699
-0.410078
-0.687621
0.231213
0.00485651
-0.220262
-0.322762
0.348871
0.0323053
0.00319753
-0.0355029
0.000256909
-0.0228369
0.239235
-0.543997
0.304794
-0.171227
-0.325766
0.0144351
-0.0336189
0.565611
-0.402804
-0.137428
-0.305895
0.185692
-0.0257045
0.529755
-0.509427
-0.0203134
-0.0218943
-0.117172
-0.519351
0.66767
-0.148316
-0.271684
0.0548424
0.216846
0.0152339
-0.128798
-0.36525
0.494112
0.0523068
-0.160519
-0.363263
-0.235502
0.598766
-0.448203
0.613955
-0.165729
-0.169158
-0.278881
0.358859
-0.551743
-0.170676
0.161966
0.00871014
0.224968
0.0141646
-0.239131
-0.352059
0.00612792
-0.00510458
0.263901
-0.539588
0.2757
0.188052
-0.212149
0.0240983
0.0543735
-0.00334235
0.403158
-0.178627
-0.224521
0.536718
-0.377564
-0.17962
0.520314
-0.340692
0.460803
0.0689701
-0.429391
-0.0967151
-0.302522
-0.467026
0.00371527
0.0117742
-0.0154894
-0.5822
0.0847401
0.497555
-0.541385
0.14511
0.396332
-0.0183975
0.214845
-0.196446
-0.494242
0.365506
-0.0288046
-0.0297482
0.0585528
0.15112
0.140144
-0.291258
0.0268445
-0.00156003
-0.0252844
0.129043
0.442628
-0.571669
-0.0148494
-0.0318977
0.0467472
-0.358686
0.430603
-0.505918
0.180212
0.325707
0.451881
-0.635843
0.183964
-0.719565
0.429574
0.289998
0.579267
-0.204073
-0.375191
-0.146491
0.406083
-0.259587
0.00617535
-0.00064256
-0.108095
-0.413041
0.521232
0.02887
-0.00202558
0.267411
-0.116286
0.196477
-0.367385
-0.00414987
0.0452403
-0.0410904
-0.0666805
0.1459
-0.0792192
-0.00024886
0.0327862
-0.0325373
-0.598372
0.579802
0.0185923
-0.0479006
-0.192298
0.240201
-0.526289
0.0689368
0.000902461
-0.00520575
0.00430329
0.673524
-0.221641
0.22274
-0.0039505
0.375255
-0.314406
-0.060848
-0.285108
0.524374
0.536606
-0.156947
0.147662
0.00928494
-0.0619373
-0.255438
0.317379
0.0317691
-0.0605736
0.101113
-0.262691
0.281189
0.436834
-0.458656
-0.0826775
0.13201
0.343977
0.409684
-0.497459
0.0877786
0.575346
0.0589231
-0.634268
-0.192235
0.173838
0.456793
-0.556088
0.0264637
0.00423587
-0.0306995
0.196105
-0.0187892
0.505462
-0.350311
-0.15515
-0.397433
0.296724
0.100719
-0.223065
-0.125672
0.348743
0.661636
-0.38608
-0.275544
0.492169
-0.0824837
-0.24862
-0.106173
0.354808
-0.0906149
-0.0310784
-0.121376
0.152455
0.386264
-0.140142
-0.24612
0.253364
-0.0283946
0.00910451
0.077375
0.00614842
-0.0154212
0.00927275
-0.18865
-0.349846
0.538569
-0.43837
-0.449527
0.355071
0.0944631
0.383755
-0.0625394
-0.321214
-0.629067
0.208256
0.42082
-0.125431
0.105033
0.0203978
0.190318
0.212847
-0.369214
0.12061
-0.2085
0.116526
0.0461052
-0.0502551
0.398505
0.150155
-0.548654
0.299053
0.362595
0.187516
0.531304
-0.138674
-0.392627
0.178482
-0.180073
0.257262
0.0217312
-0.534033
0.374299
0.614288
-0.17719
0.590571
-0.194203
-0.396364
-0.00134449
0.0336028
-0.0322583
0.0679758
0.468593
0.0235124
0.551833
0.0809674
-0.559093
0.478128
-0.503121
0.599583
-0.0964596
-0.152353
0.121275
-0.0584381
0.442195
0.389363
-0.283673
-0.105689
0.0305464
0.455005
-0.485518
-0.385833
0.500216
-0.114283
0.115428
0.415879
-0.646179
0.227571
0.418607
0.147078
-0.105224
0.147911
-0.334714
-0.103948
0.390575
-0.220821
0.218519
0.00230258
-0.452173
-0.194007
-0.0343456
-0.0910851
0.0725416
0.170008
-0.242545
0.0985383
0.00813304
0.436023
-0.569895
0.133921
0.0330408
-0.00657715
0.106883
-0.184263
0.0786771
0.205692
-0.0127543
-0.0259332
0.0386875
-0.146184
0.369423
-0.223216
-0.367414
-0.133505
-0.038052
0.0359087
0.00214328
0.47924
-0.448656
-0.0151519
-0.146862
0.162015
0.228066
0.0254753
-0.227155
0.375077
0.0189125
-0.0013411
0.224528
-0.151982
0.387123
-0.364198
-0.0229087
0.0433055
-0.0545362
0.0112307
0.651627
-0.258415
-0.393206
0.0576884
-0.280749
0.73148
-0.365813
-0.365661
-0.0436887
0.0423442
0.126663
-0.0158274
-0.110836
-0.51048
0.402474
-0.192608
0.0468107
0.145798
-0.264847
0.49345
-0.228507
0.0259795
-0.0198311
0.00159673
0.451479
-0.453065
-0.454548
0.64295
-0.188384
0.610658
-0.247218
-0.363414
0.126519
0.000144406
0.200642
-0.24854
-0.325915
0.0746572
0.251265
0.107847
-0.372176
0.226017
0.330058
0.0570829
0.471445
-0.580769
0.0394648
-0.0193478
-0.035041
-0.00479849
0.0398395
0.0768646
-0.384216
0.307358
0.0377398
-0.0504941
0.00899817
-0.082502
0.0735039
0.386925
-0.0194148
0.207468
0.127862
0.0192164
0.540015
-0.325733
-0.214273
0.0383393
0.227749
-0.266085
0.000333556
0.114892
-0.115226
0.110245
-0.232191
0.514371
-0.282167
0.252098
0.069294
-0.321392
-0.00647727
-0.0302985
0.0367758
0.039323
-0.588129
0.676652
-0.0801089
-0.596539
0.186031
0.490625
0.188639
-0.0482747
-0.140364
-0.11118
-0.214727
-0.218157
0.256498
0.00593639
-0.00503393
-0.493788
0.322596
-0.101226
0.353325
0.355843
0.254841
-0.504266
0.239528
-0.113034
0.56983
-0.0551584
0.579071
-0.180444
0.552502
-0.372015
0.0344804
-0.0409577
0.667256
-0.304865
-0.362389
0.318985
-0.444471
0.125522
0.180057
-0.195208
-0.654594
0.358628
0.295971
0.0918949
0.0066436
-0.301119
0.237643
0.0634788
0.149155
-0.340367
0.0386429
-0.00633758
-0.117895
0.436915
-0.251568
0.105079
-0.0305719
-0.19888
0.229455
-0.264248
0.413404
0.0832036
-0.447252
0.364092
0.158987
-0.631155
0.203617
0.213337
-0.416944
-0.0144997
0.00373406
0.0107656
0.64054
0.0124243
0.00648816
0.233372
-0.10375
0.104083
-0.0286106
0.0318082
-0.707601
0.19879
0.508813
-0.191011
-0.516586
-0.0231734
-0.334145
0.357329
0.631842
-0.153087
-0.478705
0.518519
-0.532161
0.0137812
0.389816
-0.312944
-0.0871971
-0.105411
0.0328296
-0.0235365
-0.257569
0.218303
0.0392673
-0.0415239
0.0412751
0.041078
-0.00931039
-0.0317676
-0.398161
-0.256428
0.2352
-0.423791
0.00360194
0.00411276
-0.0165832
0.0124704
0.095474
0.279783
-0.0458605
-0.00221979
0.444188
-0.240561
-0.216764
0.186195
0.50061
-0.534042
0.033464
-0.0914507
0.100449
-0.436238
0.514953
-0.0786846
-0.110912
-0.178451
0.36464
-0.387801
-0.449157
0.343933
0.105259
0.0535376
0.0914452
0.387829
0.319066
0.321724
-0.123872
-0.0204136
0.239687
0.067809
-0.307493
-0.0127134
-0.0118356
0.0245491
0.355581
0.00653707
-0.36211
-0.136026
-0.45196
0.0266928
0.425275
0.34973
0.14244
-0.331422
0.0904332
0.240995
0.178673
0.00996699
0.287909
-0.209226
0.176724
0.402546
0.122588
0.433024
0.493834
-0.402352
0.0931977
-0.541377
0.146694
-0.164129
0.0174355
0.0268066
-0.45269
0.425884
0.129227
-0.1203
-0.00892659
-0.0571382
-0.394815
0.013266
-0.270589
-0.161117
0.113795
0.140114
-0.0610104
-0.0959363
0.444416
-0.361166
0.440285
-0.0905508
0.659941
-0.499738
-0.160197
-0.172396
0.00774794
0.164648
-0.18595
0.453012
-0.267058
0.00862812
0.177893
-0.186521
-0.0201537
-0.00349262
0.0236463
0.585488
-0.124667
-0.631934
0.236305
0.395632
-0.522165
0.336216
0.0215691
-0.0228974
0.306188
-0.669449
-0.230086
0.225838
0.00424979
0.00951718
0.541608
-0.143099
-0.487243
0.542202
-0.0549272
-0.404273
0.10394
0.300352
0.132792
0.0267073
-0.103459
0.0716942
-0.363931
0.292244
0.0585122
-0.0730144
0.0145021
-0.545795
-0.0525547
-0.564033
0.316839
0.00198622
-0.0029957
0.00100948
-0.0742126
0.349446
-0.457767
0.538736
0.13644
-0.0961399
0.465514
0.166375
0.209738
-0.154915
-0.377213
0.532164
0.115227
0.189251
-0.304474
-0.123937
-0.247565
0.371513
-0.430047
0.460521
0.124984
-0.0126355
0.055941
0.382467
-0.431541
0.20529
-0.198999
-0.00629061
-0.0782289
-0.494
0.272036
-0.382935
0.110907
-0.61196
0.220518
0.391445
0.563332
-0.563273
0.51819
-0.15345
-0.364708
-0.553516
0.134444
0.51749
-0.0973717
0.419391
-0.322017
0.262985
0.107756
-0.370722
0.348747
-0.504628
0.114887
-0.480072
-0.165909
0.666548
0.0103569
-0.00516984
-0.00518702
0.00192509
-0.0220788
0.140045
0.324454
-0.464445
0.400508
-0.128463
-0.289342
-0.0420759
-0.321613
-0.175844
-0.00132244
0.00514648
-0.362101
-0.201912
0.251227
0.41603
-0.0718156
-0.375394
-0.156577
0.00379046
0.152787
-0.335952
-0.0640148
0.399997
-0.00541363
-0.00117194
0.00658558
-0.133407
0.545211
-0.411798
-0.00581311
0.000616265
-0.229248
0.239787
-0.0105378
-0.213898
-0.450174
0.228043
0.172475
0.0411807
-0.0169124
-0.0242683
0.211352
0.011389
-0.357362
0.479898
-0.122536
-0.520245
-0.0543476
0.288514
-0.471009
0.182497
-0.574881
0.0355745
-0.167659
0.577368
-0.40966
-0.578278
0.185497
0.392831
-0.450172
0.340823
0.109384
0.020189
-0.0160762
-0.158935
0.157452
0.00148406
0.129104
-0.0190268
-0.110077
0.0965573
-0.0904946
-0.00606268
0.0732084
0.32631
-0.680037
-0.079522
-0.0106505
0.0901725
0.465407
-0.438599
-0.0567155
-0.214964
0.00535155
0.22211
-0.520705
0.199097
-0.268383
0.472394
-0.0593961
0.0445466
-0.519175
-0.0103556
0.529671
-0.00950573
0.0040921
-0.00665778
0.00454894
-0.000833662
-0.1484
-0.133284
0.361334
0.494254
-0.290607
-0.437211
-0.19472
0.298926
0.087341
0.310735
-0.490355
-0.163777
0.0201728
0.143605
0.35578
-0.118635
-0.128414
-0.0353634
0.0717459
-0.00689876
-0.0648471
-0.537512
0.404112
0.153363
-0.155404
0.00256633
-0.0194481
0.0168818
0.380329
-0.0835966
0.336898
0.170532
-0.507363
-0.357149
0.54216
0.340529
0.118365
-0.458857
-0.0140786
-0.156597
0.250551
0.058134
-0.308682
-0.0316693
0.162844
0.0733207
-0.0148085
-0.437966
0.595848
-0.157828
0.000236407
0.00174981
0.00158269
-0.0252285
0.0236458
0.493217
-0.423126
-0.0700854
0.072481
0.392927
0.210148
0.57964
-0.47888
-0.10076
0.402288
0.448265
0.0931717
-0.541437
-0.0876588
0.00813686
-0.22683
0.0186013
0.121378
-0.120683
-0.00069444
-0.0868654
0.104048
-0.0171828
0.212166
0.451063
-0.386982
0.446225
-0.0592364
-0.169502
0.423135
-0.253632
-0.217599
0.169325
-0.143421
0.147808
-0.00438713
0.00191698
0.018272
-0.00588932
0.0701239
-0.0642346
0.353191
-0.106272
-0.342851
-0.102356
0.0924295
0.00992678
0.00302602
-0.0987904
-0.00941971
0.10821
-0.119503
-0.138065
0.386412
-0.0778531
-0.574505
0.317614
0.193828
-0.511379
-0.152223
0.694591
-0.482421
0.288539
0.0917987
0.182485
0.485188
-0.15951
-0.397169
0.556747
0.0738052
-0.00205932
0.15992
-0.475137
0.418008
0.295498
0.399097
0.0254239
-0.0129995
0.400901
0.119415
0.630701
-0.181989
-0.448665
-0.414596
0.562791
-0.14817
-0.0929
-0.536158
0.557992
-0.00601881
-0.00848085
0.338456
0.167006
-0.167461
0.00333879
0.00121015
0.488467
-0.199952
-0.0500144
-0.164986
0.215002
-0.0146845
0.0172508
-0.0188548
0.0172948
0.151275
-0.383455
0.0217266
0.195885
0.0602728
0.519368
0.428964
-0.235841
0.0152034
0.22064
0.00760421
-0.0649299
0.0573258
-0.287036
0.356331
0.00103853
0.120339
-0.277519
0.036701
0.240821
0.0787412
-0.476234
0.39753
-0.315437
0.244648
0.0707922
0.126435
-0.521868
0.395449
0.111179
-0.468541
0.136115
-0.144558
0.00844335
-0.374569
0.489524
-0.312481
-0.0717277
0.0214759
-0.508686
0.148189
-0.228263
0.0800761
0.118213
0.0110145
0.41207
-0.317487
0.100684
0.343774
-0.112771
-0.188346
0.0606734
-0.318367
0.257716
0.151036
0.158041
-0.011347
0.0421395
-0.10882
-0.303753
0.0695908
0.234165
0.0111139
-0.109904
0.468984
-0.390205
0.0955956
-0.376066
0.280473
-0.384473
-0.000309055
0.00364785
0.131033
-0.489696
-0.631871
0.289911
0.342002
-0.00212635
0.0664848
-0.212335
0.42665
-0.214304
-0.00427081
-0.0243398
0.0296794
-0.0331383
0.00345891
-0.00531138
-0.00277165
0.00808304
0.0238209
0.112619
0.0793553
-0.515564
-0.0778041
-0.464418
0.487931
0.341698
-0.537908
0.196274
0.123147
0.422069
0.382765
-0.542208
-0.617112
0.27763
0.339483
-0.0234184
0.379007
-0.229106
0.344337
0.702382
-0.406879
-0.0961282
-0.00317455
0.0993028
0.0241175
0.00219418
-0.0983223
0.157635
-0.543111
0.385514
0.138111
-0.558281
0.420173
0.626156
-0.145269
-0.480876
0.00351066
0.124351
-0.00153039
-0.0557777
0.0573082
0.111084
-0.152067
0.0409836
-0.0603087
0.127467
-0.591885
-0.451481
-0.0825347
-0.134974
-0.45423
0.58926
-0.259376
0.426859
-0.167459
0.0609831
-0.0863325
0.0253495
0.0524293
-0.0416806
-0.0107488
-0.255454
0.316151
0.24098
0.461406
-0.135637
-0.3145
-0.470527
0.211187
0.174724
-0.174891
0.00016733
-0.00190674
0.00689193
-0.00498519
-0.0581722
0.0398585
-0.054663
0.0148045
-0.276938
-0.19407
0.457416
-0.356688
0.135608
-0.00650325
0.0253031
-0.199093
-0.012855
-0.0990645
0.115517
0.31817
-0.254866
0.152066
-0.0409814
0.361616
0.490947
-0.354139
0.167428
0.388213
0.271734
0.131583
0.0531495
0.0234163
-0.0269089
0.149
-0.54266
0.393683
0.392058
-0.110994
-0.281053
0.304541
0.0818748
-0.567154
0.399543
0.287831
-0.323286
0.438718
-0.0365328
0.0245947
0.0119381
-0.00293169
0.139047
0.123114
-0.0180805
-0.358154
0.556947
-0.453356
0.559886
-0.40221
0.0113752
-0.00101834
-0.100672
0.0138064
-0.308549
0.246615
-0.00629729
0.0359767
0.163161
-0.583384
0.420252
-0.00844277
-0.485946
0.494528
-0.414918
0.303436
0.185032
0.0773847
0.00676125
-0.0841459
0.343436
-0.112064
-0.231365
-0.418255
0.0927145
0.32556
-0.214795
-0.397163
0.0717341
0.221544
-0.293273
0.409481
0.216685
-0.00148805
0.000103846
0.0013842
0.127153
-0.267293
0.0300594
-0.0291923
-0.000867118
0.437735
0.0868291
-0.342257
-0.00103463
0.0186388
-0.0176042
-0.00647822
-0.000263562
0.00674178
-0.0747375
0.0965751
-0.382323
0.508775
0.0549644
-0.0639171
0.00895266
-0.188439
0.586294
-0.409567
-0.023077
0.174926
-0.151849
0.188997
-0.180368
-0.132959
0.323443
-0.190478
0.000863973
0.573787
-0.232412
-0.341366
-0.587685
0.372828
0.21487
-0.0123044
0.104918
-0.147583
-0.484246
-0.582099
-0.364177
0.240252
0.11754
0.351479
0.00107068
-0.00255873
-0.208779
0.0430878
0.165694
-0.116713
-0.352448
-0.122682
0.389712
-0.583912
-0.396011
-0.385822
0.566338
-0.0594976
-0.506766
0.239655
-0.406532
0.529684
-0.121739
-0.356068
0.47785
-0.618284
0.244363
0.374012
-0.00279693
0.0387057
-0.537553
-0.5192
0.016808
0.502398
-0.127949
0.415988
-0.288036
-0.441693
0.335454
0.0197422
-0.0207768
-0.546032
0.00343829
0.542602
0.520717
-0.380075
-0.140625
0.0829314
0.0412195
-0.124151
0.0036983
0.171026
-0.232843
0.528854
-0.296009
0.187614
0.340558
-0.528117
0.261983
-0.400654
-0.00886209
0.0487206
-0.106214
-0.0499915
0.00467593
0.0453156
0.192097
-0.0605123
-0.498826
0.343945
0.581075
-0.410835
-0.170232
0.000699326
-0.00162061
-0.259851
0.52184
0.0939605
-0.331244
0.237289
-0.572886
-0.441476
-0.449682
-0.172603
-0.00897319
0.181577
-0.131829
0.262719
-0.130889
-0.198484
0.368498
0.417379
0.163703
-0.501832
-0.0172199
0.38765
0.133083
0.0954945
0.0240198
-0.482622
0.438416
0.044208
0.00870674
0.15326
-0.345473
-0.302445
0.389304
-0.14787
0.106227
-0.136582
0.0303548
-0.00778519
0.11682
0.226623
-0.0491179
0.0113975
0.0377204
0.00435556
0.0922018
-0.369401
-0.0722558
-0.00248964
-0.0139131
0.0164027
0.354579
-0.258981
-0.0558039
0.0547345
0.00106942
-0.0273872
-0.00914561
-0.0210839
-0.0242966
0.0453806
0.573287
-0.189669
-0.383615
-0.225317
-0.0102161
0.235535
-0.38125
0.305445
0.0843781
-0.00907012
0.00377028
-0.00938148
-0.529566
0.137943
0.39165
0.585983
-0.594281
0.00832653
-0.00410256
0.151765
-0.398907
0.558432
-0.159525
-0.414409
0.562029
-0.147615
-0.00422118
-0.00280719
0.00702836
-0.398216
0.561406
0.346501
-0.454652
0.108193
-0.00192502
0.0193606
-0.00100595
-0.0183546
0.107775
-0.465926
0.48123
-0.13948
-0.499176
-0.00498481
-0.00133861
-0.0051396
0.0862392
-0.0252561
0.110618
-0.120037
-0.18083
-0.305602
0.486446
-0.0450562
0.0402577
-0.0955715
-0.122027
-0.0688001
0.0672698
0.0108072
0.168879
0.177035
0.00302312
-0.0742001
0.0673988
-0.40332
-0.125227
0.191124
-0.00712989
0.148887
-0.141757
-0.00956819
-0.00701501
0.494993
-0.0507954
-0.00195748
-0.000485771
-0.00207296
-0.00384393
-0.0519599
0.0206004
-0.0190178
0.322459
0.113658
-0.436074
0.202577
-0.0219036
-0.180672
0.475879
0.15487
-0.0591021
0.281255
0.110814
0.0889182
-0.0641208
-0.0247974
0.657861
-0.657671
-0.0181191
-0.00668478
0.0248039
-0.538858
0.124454
0.125033
-0.0421011
-0.434412
0.536526
-0.10207
-0.125764
-0.0587226
0.184486
-0.169516
0.197255
0.00532418
-0.0227457
0.036458
-0.162443
0.125986
-0.151816
0.34107
-0.48257
0.617064
0.0640226
0.251936
0.382719
-0.0504726
-0.332244
-0.373042
0.108652
0.264399
-0.000370028
0.0197306
-0.369764
0.578029
0.640296
-0.389068
-0.43986
0.150678
0.289205
-0.0423687
0.0104709
0.0077591
-0.00200735
0.0217495
0.434443
0.138847
0.0930562
0.401949
0.0250723
0.387777
-0.412819
0.000389053
0.0296704
0.125518
0.532514
0.27223
-0.299334
0.000951879
-0.0234137
0.0224619
0.387297
-0.558836
0.17158
0.0854668
0.197376
-0.282835
-0.113677
0.525565
-0.124662
-0.0389413
0.00196435
0.036977
-0.273184
0.394197
-0.120986
0.217042
-0.512073
0.0186546
0.122569
-0.141223
0.00544285
0.0234272
0.12209
0.0257189
0.323771
-0.229805
0.477156
-0.146215
-0.330925
0.219117
0.421181
0.00599497
-0.00231089
-0.00368408
-0.0150739
0.121301
-0.53118
0.0119859
0.0379424
-0.263257
-0.563839
0.395135
0.168755
0.413072
-0.328266
-0.403109
0.589144
0.0211238
-0.472578
0.154994
-0.150407
-0.00458699
0.240885
0.199404
0.452988
-0.106449
-0.0973046
0.380942
-0.237502
-0.0150349
0.0118632
0.00317162
0.0325127
0.00866793
-0.00935801
-0.220725
-0.0233739
-0.025744
0.0435306
-0.477899
0.208797
0.0170432
-0.0811603
0.468965
-0.405431
-0.158357
-0.149003
0.431723
-0.282691
0.340896
0.112132
0.01747
-0.00175123
-0.0157188
-0.146873
0.471373
0.108315
0.0437505
0.435573
-0.113073
-0.240805
-0.594116
0.00479115
0.000151499
-0.00494265
0.20813
0.368882
-0.0187105
-0.0836456
0.119911
-0.251738
0.0377707
-0.111733
0.0739621
-0.246201
0.0374239
0.201309
-0.00396546
-0.197342
-0.00344423
-0.201491
-0.026769
-0.319261
0.0638267
0.0760633
-0.196456
0.352578
-0.156121
-0.00352029
-0.000909048
0.00442934
-0.141346
0.178982
-0.0376345
0.581649
0.420276
-0.289222
0.201322
-0.164863
-0.164022
-0.0275438
-0.315552
0.503213
0.00820491
0.0144912
-0.0226962
0.412302
0.147625
-0.155775
0.0249536
0.007876
-0.190162
0.608211
-0.418041
-0.10401
0.0821155
-0.258626
-0.142209
-0.360283
-0.0939716
-0.494045
-0.00503404
-0.125962
0.5125
-0.386538
0.385146
-0.269609
0.081358
-0.0936624
-0.411152
-0.147644
0.0663484
0.0198909
0.00205603
0.00393894
0.23698
-0.0198589
-0.21712
0.0272793
-0.00268464
0.411364
-0.0219085
0.588318
0.225282
-0.591089
0.446846
-0.106281
-0.400064
0.136885
-0.112913
-0.0239726
-0.0983455
-0.232844
0.331204
0.339778
-0.512829
0.173078
-0.0888811
-0.329356
0.107365
-0.561894
0.021332
0.0364479
0.0159814
0.31207
-0.0515401
0.00567954
-0.0108146
-0.0813742
0.0921889
0.435901
-0.11824
0.0511966
0.395947
-0.447141
-0.102749
-0.174767
0.141391
-0.0781006
0.493479
-0.415378
0.36909
-0.469922
0.100838
-0.449938
0.346971
0.102968
-0.42352
-0.163994
-0.404412
0.544396
0.434635
0.0909328
-0.00828565
0.00771602
0.000569628
0.406381
0.0932664
-0.499613
0.0129991
0.0752244
-0.216708
0.259799
-0.208453
0.280192
-0.575931
0.44997
0.423575
-0.590927
0.167381
-0.148444
0.0548095
0.0936343
0.275105
0.0794767
-0.381043
0.551988
-0.402964
0.354897
0.124356
-0.479197
-0.274875
0.413036
-0.294195
-0.145643
-0.167143
0.628921
-0.409802
-0.151816
-0.0549504
0.206767
-0.00430357
0.105226
-0.100923
0.281722
-0.421136
0.139415
0.48198
0.104028
-0.0912297
0.447594
-0.356325
0.380967
-0.166483
-0.214481
-0.203877
-0.179049
-0.30156
0.0692078
0.232357
-0.14884
-0.194139
0.0527936
-0.342915
0.244584
0.337242
0.139929
0.0169095
0.0381684
-0.055078
-0.143696
0.483498
-0.0290854
0.0172498
-0.105119
0.0885083
0.0166111
-0.00972285
0.281953
0.123606
-0.11817
-0.00543584
0.456615
-0.464936
0.670657
-0.245049
-0.4256
0.121273
0.324212
-0.445462
0.300039
0.156443
-0.456481
-0.0193643
-0.414765
0.434132
0.499015
-0.092601
-0.49629
0.496352
0.165133
0.386878
0.120442
-0.13956
0.570223
-0.145354
-0.424863
0.552828
-0.38767
0.380798
-0.184306
0.212212
-0.20221
-0.0100006
-0.0118458
0.0892305
-0.0687071
0.335893
-0.264192
-0.143152
-0.475036
0.137667
-0.144797
0.112097
-0.0200803
-0.0920162
-0.0876535
0.327267
-0.0181839
0.124174
-0.121726
-0.00244808
0.137094
-0.0293067
-0.107788
0.57898
-0.173252
-0.40572
-0.152449
0.0055877
0.476803
-0.139855
0.352682
0.290282
-0.329772
0.451071
0.0207675
-0.0205005
-0.000267066
0.0138138
0.112705
-0.0327316
-0.419959
-0.0637733
0.371501
-0.367731
-0.131883
0.499672
-0.380004
-0.146281
-0.434969
0.120955
0.314039
-0.38105
0.43225
-0.329586
0.126489
0.2031
-0.541015
0.294195
0.197782
0.0144317
0.322697
-0.0830074
-0.017848
0.0167221
0.0011259
0.00994092
0.553457
0.172399
-0.0988205
-0.0735777
-0.351554
-0.265558
0.0513473
-0.0280256
-0.0233217
0.190679
0.00184917
-0.192527
0.00764029
0.0494068
-0.0570471
0.11948
-0.0239859
0.00567379
0.131212
0.00879797
0.149243
-0.00272463
-0.0225039
0.435293
-0.153571
-0.0028964
0.0146706
-0.580479
0.217645
-0.231039
0.0133947
0.165484
0.404746
-0.0844939
0.223154
0.0279553
-0.251108
0.213206
-0.373402
0.160221
0.0241495
-0.00303622
-0.0211133
-0.0696048
0.271307
-0.201699
0.0291895
0.439254
-0.0130694
0.128202
-0.115132
0.113498
-0.519691
0.394569
0.125223
-0.080594
0.290982
-0.210382
-0.310543
0.653961
-0.26045
-0.393503
0.393657
-0.0882051
0.12674
-0.108085
0.123687
-0.445235
-0.0966115
0.206089
-0.109478
-0.226678
0.49072
-0.263978
-0.244618
0.0431292
0.275548
-0.456365
-0.437884
-0.0557832
0.0535634
0.129402
0.265825
0.40484
0.367036
-0.112805
-0.254214
-0.0037988
-0.00570694
0.213746
-0.00239331
0.137417
-0.134032
-0.00338412
0.0734492
0.00393909
-0.0773882
-0.517764
0.395341
0.122432
0.395906
0.183081
0.0830839
-0.0666682
-0.0164156
0.299585
0.0940793
0.176353
0.00212985
0.226119
-0.0475212
0.00635797
0.0411632
-0.128358
0.428398
0.0365479
-0.119755
-0.017126
0.354792
-0.337664
-0.384501
0.00220491
-0.40296
0.199091
-0.456238
0.350881
0.1054
-9.74513e-05
0.00260691
-0.00250946
-0.240737
0.0221422
-0.163094
0.579883
-0.416786
0.0843069
0.13885
-0.00195403
0.096568
-0.0946139
0.123441
-0.308289
0.184856
-0.00776131
-0.0397599
-0.0200627
0.0864111
-0.501614
0.562746
-0.061123
-0.205722
0.00653
0.199193
0.0265582
-0.00314186
-0.200252
-0.00546998
-0.0719819
0.0628003
0.0091816
-0.505874
0.0429918
0.462979
0.345707
-0.4369
-0.0145976
-0.000564487
0.0151621
0.0147188
0.0973778
0.00642935
-0.00830572
0.00187637
0.122458
-0.559918
0.437586
-0.0978359
0.438696
-0.103534
0.00393338
-0.0229511
-0.129441
0.0547039
0.279169
0.105996
0.442899
-0.0738027
0.00664373
-0.179246
0.0836116
0.00576743
-0.0893789
-0.0690315
-0.0117526
0.0807841
-0.369936
0.0639939
0.392517
-0.456444
-0.00893727
0.0639017
0.211164
-0.00880137
-0.202358
0.199799
0.318423
0.0891093
-0.108136
-0.00140418
-0.142551
0.346559
-0.569038
0.414055
0.155023
-0.000780149
0.0055713
-0.0423512
-0.216357
0.562236
-0.112335
0.561284
-0.448876
-0.0182788
0.0264837
-0.526294
0.0246899
0.638882
-0.190617
-0.475721
0.249108
0.146198
0.333291
-0.447254
0.113998
0.148979
-0.0406628
0.0860926
-0.182704
-0.048179
-0.104583
-0.239924
0.344519
-0.000276695
0.000588074
-0.000311378
0.428403
-0.187517
0.100591
0.00130704
-0.101898
0.0910106
-0.0953141
0.0215992
-0.509353
0.404405
0.104958
0.371386
0.130438
-0.501766
-0.00584302
0.130017
-0.204608
-0.358619
-0.0261598
0.408921
-0.160912
-0.289025
0.335716
-0.0100028
-0.0805932
-0.156696
-0.212641
-0.375031
0.00115537
-0.0209864
-0.188713
0.202583
-0.0138693
0.00277138
0.369569
-0.22257
-0.146988
0.597773
-0.147782
-0.449986
0.559846
0.205058
-0.207013
-0.0735414
0.0676521
0.00122225
-0.00639209
0.207528
0.400259
0.00417578
0.153276
0.0703449
-0.497579
0.427235
-0.101621
-0.334064
0.435709
-0.159782
0.0251958
-0.0279205
-0.0213457
-0.190802
-0.295889
0.237719
0.111423
0.0241847
-0.11049
-0.219094
-0.0667802
-0.0628774
-0.111624
-0.39772
0.277891
-0.481963
-0.469045
-0.00531733
-0.146498
0.153639
-0.15657
0.53863
-0.400516
-0.00406173
-0.101251
0.105313
-0.493198
0.36176
0.131496
0.172381
-0.595795
-0.0436826
0.00430744
0.0393751
0.0238575
-0.0268937
-0.160181
-0.235656
0.395849
-0.0193935
0.042248
-0.347865
0.289493
0.0583746
0.0252854
-0.02413
0.146242
0.346981
-0.00786974
0.408642
-0.346516
0.456632
-0.110081
-0.0727579
0.170017
-0.623628
0.45362
0.326846
-0.4969
0.170063
-0.329093
-0.0364012
0.0385445
0.0346024
0.00698215
-0.0415846
0.0759106
0.0964885
0.0470524
-0.0548137
0.0812989
-0.322538
0.241242
0.0269176
-0.00169249
-0.0252251
0.0408384
0.206517
-0.00145767
0.433344
-0.310795
-0.137538
-0.356067
0.493642
-0.368646
-0.502477
0.377795
0.124733
-0.0550332
-0.0312992
0.610653
-0.441654
-0.168879
0.257847
0.0231055
-0.280943
-0.372505
0.109675
-0.0892769
-0.00850001
0.0462398
-0.0123605
0.00348375
0.00887678
0.112793
-0.442312
0.329538
-0.0619884
0.0784629
-0.0164744
-0.230201
0.347028
0.255078
-0.329285
-0.205402
0.511633
-0.310696
-0.215589
0.00529012
0.00278942
0.313682
-0.0726824
0.0198683
-0.0189164
0.0295832
-0.15481
0.359162
0.0837427
0.114825
-0.00420697
0.401948
0.224446
0.258298
-0.0206523
-0.389533
0.240556
-0.00690035
0.0985085
-0.0916081
-0.281378
-0.228035
0.333982
-0.2049
-0.129073
0.437026
0.336722
0.281793
-0.0839672
0.0820133
-0.235466
-0.095927
0.331404
0.234215
-0.130933
-0.10328
-0.144506
0.47136
-0.00162383
-0.154294
0.0146106
-0.0131731
-0.00143756
0.329459
-0.483505
0.154082
-0.132271
-0.05762
-0.469034
0.0890326
0.370454
-0.0659095
-0.175347
-0.406527
0.58188
-0.00971501
0.0831642
0.0208942
0.196751
-0.186888
-0.200953
-0.085847
0.286806
0.104115
-0.502747
0.39864
-0.138836
0.489351
-0.350476
0.610233
0.32765
0.172674
0.397411
-0.530019
0.13263
0.15666
0.0193527
-0.0404367
0.250823
-0.22163
-0.280452
0.422325
0.543848
-0.241024
0.561638
-0.0316548
-0.529971
0.13405
0.00138475
-0.00776207