/*--------------------------------*- C++ -*----------------------------------*\
| =========                 |                                                 |
| \\      /  F ield         | OpenFOAM: The Open Source CFD Toolbox           |
|  \\    /   O peration     | Version:  v2012                                 |
|   \\  /    A nd           | Website:  www.openfoam.com                      |
|    \\/     M anipulation  |                                                 |
\*---------------------------------------------------------------------------*/
FoamFile
{
    version     2.0;
    format      ascii;
    class       volScalarField::Internal;
    location    "700";
    object      V0;
}
// * * * * * * * * * * * * * * * * * * * * * * * * * * * * * * * * * * * * * //

dimensions      [0 3 0 0 0 0 0];


value           nonuniform List<scalar> 
13851
(
0.0936773
0.0503792
0.0154293
0.0941209
0.0128077
0.0873792
0.0777064
0.0208086
0.167139
0.0233471
0.173386
0.0180943
0.00509984
0.00648619
0.169777
0.0350789
0.0444391
0.0594681
0.00823019
0.167278
0.107012
0.0170096
0.165283
0.187343
0.157858
0.0239694
0.0317077
0.000972821
0.0915237
0.0640939
0.0858378
0.0422132
0.018998
0.105187
0.205981
0.00540434
0.00431016
0.0113366
0.0196156
0.134559
0.101945
0.171015
0.00132157
0.162859
0.159443
0.00300582
0.155609
0.111554
0.0302159
0.145828
0.0112198
0.00683551
0.00137874
0.150624
0.173071
0.169789
0.16958
0.00212378
0.0745464
0.0764169
0.012728
0.00548698
0.0664293
0.00933325
0.0427447
0.0825205
0.00343624
0.165864
0.0214245
0.0624134
0.00128377
0.00338073
0.0478616
0.171408
0.171768
0.119577
0.0113612
0.00167512
0.0164067
0.00137906
0.0737113
0.166359
0.122358
0.0027153
0.0624596
0.0166856
0.0889236
0.0272117
0.0389416
0.18335
0.00526277
0.109387
0.128871
0.0248851
0.0414337
0.155717
0.0121546
0.00301029
0.125689
0.18465
0.0037537
0.0147531
0.0799049
0.0292321
0.163047
0.0943109
0.0132234
0.18355
0.0028951
0.0844561
0.157703
0.18572
0.107226
0.194627
0.16282
0.0680356
0.00390218
0.135103
0.171984
0.153691
0.00135827
0.036359
0.00515654
0.107891
0.103297
0.175891
0.106902
0.0130716
0.0900693
0.00799504
0.11441
0.161942
0.00133762
0.127788
0.0698651
0.166277
0.166179
0.00332982
0.00675846
0.010174
0.003358
0.187976
0.137332
0.162535
0.0536155
0.157097
0.186946
0.0106885
0.0918672
0.160256
0.00841262
0.16669
0.00518303
0.14985
0.0388085
0.0603424
0.123413
0.0597077
0.00686342
0.0118936
0.173084
0.0198456
0.00166179
0.146015
0.0639652
0.169883
0.197696
0.0203714
0.0913877
0.00301011
0.00136885
0.144634
0.120056
0.00907847
0.150616
0.105116
0.0169774
0.106403
0.00785425
0.180883
0.035351
0.00312201
0.114023
0.0119791
0.17054
0.16531
0.0793594
0.154998
0.0118963
0.0288857
0.149801
0.00151958
0.153601
0.0187652
0.00685806
0.0486109
0.136148
0.132512
0.127024
0.119647
0.175144
0.00387213
0.16865
0.113975
0.0239542
0.116034
0.00927185
0.0407942
0.00193311
0.178678
0.0024907
0.0931578
0.139064
0.192639
0.178669
0.164866
0.0673057
0.00284122
0.12777
0.00192771
0.0328355
0.0653598
0.00250976
0.00752116
0.00220599
0.178327
0.0268991
0.163538
0.00138184
0.178406
0.0248791
0.0449289
0.142451
0.15159
0.0107294
0.0486731
0.00851126
0.0351263
0.177305
0.101551
0.0877557
0.135055
0.194627
0.0214832
0.162254
0.00163733
0.0138963
0.127107
0.0565867
0.0452639
0.120995
0.126856
0.0565987
0.0528269
0.013449
0.065562
0.0336853
0.00309468
0.00123982
0.122991
0.166817
0.0734669
0.0781907
0.175455
0.00669148
0.0421098
0.0560041
0.024747
0.00259636
0.142052
0.119951
0.0439843
0.0885823
0.0166271
0.0378664
0.150407
0.171691
0.154838
0.00224298
0.148279
0.146695
0.191148
0.162526
0.0133864
0.0903378
0.0975124
0.153839
0.127529
0.0897412
0.187518
0.00851113
0.0567681
0.0646475
0.0198334
0.142721
0.00695972
0.0369577
0.0178377
0.141578
0.00176438
0.0190505
0.0400157
0.00228533
0.0794215
0.0937939
0.00246756
0.152222
0.0144512
0.0299102
0.0615811
0.00772738
0.029441
0.0570345
0.00289821
0.165374
0.0389291
0.176034
0.00263955
0.0061443
0.124243
0.0130553
0.132346
0.00179463
0.120562
0.172617
0.110134
0.00695722
0.0268279
0.0378612
0.128977
0.0835607
0.0663921
0.195952
0.00413013
0.00390521
0.0659177
0.00266188
0.00672216
0.149556
0.018146
0.00843433
0.0894277
0.0406503
0.00646618
0.0074118
0.109414
0.0734392
0.00204227
0.162634
0.150882
0.151049
0.0120799
0.0374324
0.0398073
0.00140401
0.11907
0.078399
0.110516
0.141362
0.169221
0.169256
0.1339
0.0021268
0.177791
0.0871065
0.0173491
0.168191
0.0162232
0.0361942
0.092625
0.00361921
0.0848134
0.0395732
0.0285229
0.107823
0.12136
0.133627
0.0992527
0.00296933
0.184625
0.00837143
0.100724
0.00583627
0.00320473
0.155795
0.15956
0.0967755
0.139735
0.14665
0.0676144
0.0104624
0.00587604
0.0206762
0.00252789
0.00227276
0.126274
0.0979991
0.0037127
0.00135463
0.0423432
0.00364567
0.105004
0.026465
0.167586
0.00752146
0.133528
0.026806
0.104049
0.0837829
0.167622
0.141717
0.126427
0.00834044
0.0459751
0.00161919
0.0686545
0.0117907
0.0842117
0.118031
0.0442249
0.0139206
0.0406062
0.161586
0.174944
0.147793
0.163666
0.0104841
0.128577
0.0090582
0.0792667
0.00155337
0.101683
0.0903342
0.175266
0.00835826
0.120738
0.122739
0.180331
0.0161101
0.141664
0.0182713
0.00154723
0.127487
0.161899
0.159978
0.0036849
0.185449
0.0249942
0.0144818
0.131672
0.140285
0.0650637
0.00864915
0.00693399
0.0632575
0.0172019
0.187696
0.10856
0.00169148
0.0559184
0.181173
0.0238251
0.133651
0.0799328
0.144303
0.0459881
0.0602574
0.167731
0.127609
0.00366504
0.105557
0.0181157
0.160145
0.0767121
0.167237
0.168196
0.108126
0.179347
0.172297
0.100653
0.0644256
0.0928562
0.113229
0.176173
0.00407161
0.00137278
0.101098
0.0870514
0.041813
0.128493
0.00279579
0.0915631
0.159623
0.116106
0.011622
0.0750813
0.0017005
0.174386
0.0012122
0.0296554
0.163556
0.0876165
0.00301767
0.0208636
0.138033
0.164727
0.111194
0.178933
0.145236
0.151453
0.0846519
0.00138029
0.0115037
0.00649581
0.00406067
0.0626078
0.183249
0.00621343
0.132095
0.0322053
0.0234924
0.110714
0.110969
0.00283053
0.14819
0.00212732
0.00285203
0.00333159
0.0402613
0.0671408
0.114957
0.164008
0.075037
0.128999
0.0150485
0.0584782
0.0149648
0.00345828
0.172039
0.159398
0.0114371
0.00129592
0.0524106
0.125002
0.129459
0.0922979
0.011543
0.0473714
0.0310711
0.0170424
0.155152
0.00183198
0.00166529
0.0944294
0.141035
0.0193921
0.128289
0.145353
0.153558
0.00578446
0.0292165
0.00715488
0.00428716
0.165635
0.0828959
0.105024
0.0144908
0.00900942
0.00132601
0.00302044
0.10985
0.0830885
0.0254674
0.00204035
0.00558976
0.0168574
0.0628141
0.167303
0.128551
0.0140607
0.175672
0.0535634
0.178364
0.149151
0.00273081
0.0104289
0.0852543
0.158559
0.00758581
0.128838
0.139172
0.142873
0.165767
0.153091
0.00283662
0.122734
0.130884
0.00367635
0.114108
0.0193646
0.00123307
0.00146686
0.0773171
0.0196666
0.127307
0.173664
0.0295296
0.0039549
0.07762
0.00760215
0.0269535
0.146031
0.038871
0.126094
0.13112
0.00953918
0.117054
0.0663515
0.138121
0.0231093
0.00734399
0.0808557
0.110984
0.0325375
0.0626353
0.0112069
0.0108642
0.00617723
0.0386784
0.00526131
0.143601
0.0523357
0.102928
0.00293757
0.100199
0.171616
0.00281939
0.0660524
0.00196171
0.00188095
0.00265544
0.0262932
0.128909
0.00302672
0.127828
0.150278
0.16583
0.148531
0.146448
0.0690873
0.0500432
0.161877
0.009896
0.0282851
0.00828463
0.127981
0.157782
0.13873
0.0101743
0.00645746
0.0106635
0.023242
0.130525
0.142301
0.154108
0.092928
0.00401163
0.0136633
0.061862
0.171689
0.0816229
0.128348
0.0162286
0.00155089
0.0354389
0.0040795
0.111193
0.116583
0.00736982
0.00299603
0.0199178
0.0155686
0.0732398
0.062771
0.0115979
0.0687497
0.135783
0.109314
0.130669
0.184267
0.0158197
0.00165838
0.130413
0.0613192
0.06428
0.143264
0.0375242
0.0870966
0.00686292
0.0099741
0.0070837
0.144369
0.16966
0.131986
0.00444042
0.0040741
0.0471123
0.00192467
0.15633
0.136271
0.170003
0.118451
0.00351444
0.0481244
0.082559
0.156867
0.0395892
0.122992
0.00201298
0.0487213
0.00167672
0.156093
0.0666127
0.00126304
0.00122071
0.00494558
0.121756
0.00256441
0.126359
0.162855
0.0145679
0.018495
0.0428916
0.00274709
0.0882729
0.127885
0.0043598
0.171938
0.173333
0.0596266
0.131621
0.00202325
0.0241035
0.00915033
0.0730231
0.156028
0.143736
0.0841731
0.178292
0.110078
0.162079
0.111182
0.154787
0.00184723
0.130047
0.132556
0.0952932
0.0815427
0.00131075
0.152957
0.125119
0.00646439
0.0160291
0.134878
0.154895
0.0786852
0.00442589
0.0574424
0.00281566
0.0175155
0.13257
0.104183
0.0011869
0.0937909
0.043136
0.149274
0.166484
0.16214
0.0166997
0.0311184
0.0500315
0.103374
0.134551
0.12364
0.00667335
0.12742
0.0115735
0.0762573
0.077586
0.0111852
0.00645908
0.00228224
0.0527045
0.00989128
0.00437397
0.0935604
0.00262436
0.0517168
0.00517482
0.00701758
0.00251344
0.129933
0.0281817
0.144034
0.0660225
0.0021693
0.00226132
0.119761
0.176084
0.011767
0.154742
0.130797
0.00129919
0.152134
0.09656
0.0017841
0.0014538
0.117144
0.118038
0.137571
0.00108529
0.00340138
0.00623687
0.106298
0.00386856
0.01225
0.00662754
0.0134638
0.0157372
0.0538226
0.0765429
0.0400045
0.0104931
0.000793301
0.0985334
0.0224467
0.00205897
0.00480175
0.00142675
0.0883422
0.0193044
0.141693
0.0361442
0.0596394
0.0112133
0.193574
0.0017124
0.118405
0.0074132
0.106195
0.0142312
0.0160647
0.0203442
0.00301004
0.0140943
0.0429405
0.16585
0.00824042
0.0930176
0.057451
0.0557813
0.00115512
0.168985
0.00719314
0.1484
0.0785005
0.00174813
0.00288224
0.00143211
0.138148
0.12158
0.113703
0.00167205
0.173253
0.0649504
0.0015912
0.132975
0.0398576
0.00967089
0.138013
0.0107511
0.0732814
0.128758
0.0289216
0.00183897
0.00864614
0.0419966
0.101292
0.151132
0.00202294
0.00718754
0.128129
0.0262216
0.145078
0.119562
0.157801
0.140509
0.0133671
0.126063
0.0910109
0.122247
0.106497
0.0597506
0.00129983
0.00296384
0.027902
0.0078231
0.0993586
0.0251849
0.109117
0.145996
0.0885342
0.0955679
0.00128419
0.0904172
0.0115119
0.0867326
0.0452221
0.156757
0.00121679
0.12794
0.0248571
0.026887
0.00416204
0.02156
0.0215695
0.00122239
0.0252807
0.0481944
0.0140682
0.0766992
0.00131203
0.0175
0.17834
0.0858779
0.0174607
0.0131103
0.00905086
0.144163
0.00955405
0.132218
0.126943
0.00564787
0.163574
0.00649847
0.0353755
0.141301
0.0713961
0.131471
0.125407
0.135971
0.0651452
0.00390815
0.129189
0.00377646
0.00188566
0.0285489
0.00669957
0.0784708
0.177559
0.156837
0.0908257
0.128103
0.00841074
0.0487467
0.117888
0.0787316
0.175016
0.00148448
0.0132405
0.0594437
0.00330217
0.00420565
0.0900849
0.100598
0.0230707
0.127789
0.139159
0.0927745
0.101279
0.151942
0.15737
0.134918
0.00198949
0.140725
0.0047235
0.0314689
0.0378321
0.16584
0.148235
0.0130227
0.0509001
0.0927273
0.13258
0.103963
0.100468
0.0722933
0.0148661
0.147008
0.0397416
0.00554691
0.128031
0.16138
0.0955007
0.0442265
0.0804946
0.0336042
0.0124796
0.0155567
0.050645
0.103111
0.0152061
0.108621
0.00157172
0.00398571
0.0621643
0.00573691
0.127441
0.157912
0.096272
0.12016
0.141678
0.138177
0.148149
0.136787
0.00956603
0.134976
0.137296
0.0572317
0.0186505
0.00365648
0.0476547
0.058742
0.161706
0.0101909
0.00677116
0.0495898
0.00189439
0.00959269
0.00717397
0.142035
0.00927701
0.0929657
0.137776
0.0990827
0.00132802
0.00726977
0.127145
0.0317063
0.153192
0.110281
0.147076
0.0868839
0.0964283
0.0685227
0.131554
0.0168738
0.051792
0.00128804
0.186793
0.0324921
0.134427
0.00685758
0.0189366
0.00278636
0.00624703
0.00686998
0.0108378
0.00160383
0.123333
0.00382557
0.146843
0.0206017
0.138468
0.0527731
0.0202625
0.0752482
0.00152494
0.0319105
0.0313452
0.147005
0.00585852
0.0990234
0.136555
0.0370105
0.0442497
0.16724
0.0673099
0.0285547
0.111469
0.0419499
0.110455
0.024625
0.0999899
0.1096
0.00389414
0.0358704
0.151356
0.0573937
0.00243761
0.0223455
0.0149991
0.00602519
0.112317
0.141303
0.00352279
0.0684593
0.0168451
0.0264021
0.00244708
0.11275
0.00785744
0.0457575
0.0580525
0.0735253
0.095774
0.00122952
0.0460531
0.00150923
0.160392
0.0225953
0.00505317
0.0400563
0.00252619
0.0035868
0.149649
0.0255756
0.0016551
0.0246322
0.00278873
0.130337
0.0926675
0.00111031
0.00694228
0.002082
0.146972
0.0858468
0.0989366
0.00147511
0.0050719
0.0627898
0.0914547
0.0155538
0.0115199
0.00341282
0.0918276
0.116913
0.00263042
0.0322238
0.10685
0.00552717
0.00618778
0.0488284
0.136215
0.00101789
0.00262002
0.151864
0.135762
0.010953
0.147846
0.164029
0.109345
0.102628
0.0919491
0.010598
0.0400899
0.00369145
0.0533853
0.00125212
0.0989305
0.00990819
0.00532769
0.00762589
0.109333
0.114107
0.0103424
0.127869
0.11349
0.155383
0.0878586
0.104196
0.00374711
0.134134
0.121964
0.00160744
0.0198299
0.0131986
0.0513274
0.134498
0.145208
0.0211056
0.00296404
0.00302268
0.123464
0.0111702
0.139829
0.0870095
0.145526
0.00168451
0.0186356
0.033527
0.00667456
0.00895998
0.0664276
0.00319877
0.00279795
0.110568
0.141056
0.155621
0.0207974
0.0112526
0.154116
0.00560228
0.114227
0.162198
0.0122484
0.00160369
0.0687788
0.00534141
0.0512593
0.00183287
0.090455
0.0789725
0.0896556
0.0505846
0.15223
0.133082
0.0502554
0.00228368
0.00214612
0.0345141
0.0026808
0.0434261
0.00185752
0.00226618
0.0208799
0.115461
0.112427
0.134534
0.113973
0.0039313
0.15487
0.0404074
0.0636918
0.00631286
0.00241194
0.00311726
0.089134
0.00323374
0.0529661
0.0507451
0.121018
0.127514
0.00180563
0.0399804
0.00144487
0.0286137
0.0913498
0.00622831
0.14574
0.0365362
0.0837365
0.00454463
0.101005
0.0453716
0.0888224
0.120377
0.00438479
0.047359
0.0246849
0.119026
0.0226733
0.0121029
0.00120383
0.114663
0.0116026
0.115624
0.0614175
0.150135
0.00636835
0.0216931
0.0176408
0.0357554
0.136486
0.110144
0.109999
0.161254
0.135523
0.125471
0.12821
0.00207218
0.0354761
0.0766979
0.103574
0.160263
0.00897993
0.00332731
0.00682936
0.0191846
0.0905858
0.135391
0.155757
0.120699
0.00560102
0.00165615
0.164628
0.0464525
0.0315609
0.00318713
0.0621675
0.0429011
0.00130948
0.0400646
0.142494
0.00326065
0.0023175
0.0896183
0.147063
0.0959769
0.00155731
0.00537352
0.024555
0.00616585
0.00350024
0.0408501
0.0023277
0.0144477
0.0933862
0.00661794
0.0071474
0.145545
0.00191475
0.0780813
0.113694
0.148226
0.00557829
0.112101
0.00482572
0.0547382
0.0462998
0.0170882
0.119758
0.0037265
0.00227691
0.145334
0.0521019
0.00490492
0.0125383
0.00152206
0.0203095
0.154539
0.11229
0.0964451
0.143644
0.0841945
0.0436585
0.0992051
0.0101954
0.0185314
0.0211452
0.120735
0.141987
0.132516
0.026119
0.0255237
0.0946412
0.0112918
0.0188606
0.0302001
0.0124929
0.0144005
0.0621792
0.00232661
0.113246
0.129735
0.00455295
0.00337193
0.00103632
0.0894904
0.165354
0.00152075
0.145612
0.126385
0.0255961
0.143345
0.0152309
0.0116085
0.148444
0.00135115
0.00371215
0.0509416
0.00714835
0.00123536
0.127399
0.0405312
0.00473869
0.00163554
0.0369914
0.00822741
0.140331
0.15912
0.140438
0.0445487
0.0022002
0.00365771
0.00152304
0.00341486
0.0377568
0.037887
0.0293173
0.128382
0.153919
0.130304
0.00378544
0.120741
0.00294473
0.0389808
0.0620292
0.0107046
0.00382946
0.000807204
0.0029774
0.0153534
0.100437
0.12605
0.00311337
0.00350656
0.0341324
0.142562
0.15083
0.0170129
0.0336152
0.00541159
0.0125792
0.0401206
0.149798
0.00557879
0.134662
0.00123763
0.0542998
0.128233
0.00958827
0.0949704
0.00154286
0.159928
0.00175051
0.144797
0.0421675
0.0656638
0.140039
0.0632093
0.0173038
0.014849
0.00193948
0.00237256
0.0314421
0.0247902
0.0837619
0.00328582
0.00198747
0.128338
0.149998
0.140733
0.166179
0.00142319
0.178795
0.0535392
0.019571
0.0468764
0.0495762
0.0728139
0.0784777
0.0087575
0.00216539
0.109986
0.0692836
0.00488789
0.0550948
0.0209582
0.0406387
0.00182781
0.026015
0.01588
0.113986
0.148673
0.146453
0.00198762
0.00216165
0.0129093
0.152733
0.110673
0.129208
0.000935949
0.142559
0.00234032
0.00212796
0.0412703
0.0142904
0.0789446
0.0395366
0.0708728
0.0770669
0.00130723
0.0439253
0.00889397
0.155958
0.0848424
0.145299
0.0777084
0.00477773
0.00384441
0.0305826
0.00239075
0.00520998
0.164922
0.101799
0.143594
0.104402
0.00188345
0.00385609
0.0449021
0.143553
0.0723809
0.0174857
0.0179895
0.000958578
0.0332908
0.00220695
0.0149139
0.0623224
0.107275
0.146793
0.0102333
0.12459
0.142855
0.00153174
0.0197361
0.00556386
0.104177
0.0320075
0.134019
0.00155648
0.00357607
0.11181
0.0876364
0.0364782
0.0885211
0.131075
0.10913
0.134863
0.00109037
0.0314684
0.000983334
0.0373059
0.00618376
0.0166068
0.00166756
0.119319
0.0261534
0.0016186
0.0405785
0.0374233
0.00129472
0.140545
0.114171
0.0294917
0.00285924
0.00133618
0.0362513
0.0901944
0.122345
0.147907
0.0459989
0.194543
0.00326824
0.145124
0.0388424
0.0761874
0.142325
0.0198176
0.00807446
0.0863096
0.00614709
0.101009
0.151766
0.0200813
0.00155407
0.0216117
0.0210091
0.0044096
0.00591484
0.12852
0.097548
0.0346014
0.00257927
0.0022998
0.109786
0.00122542
0.048858
0.111756
0.0824937
0.0036612
0.014673
0.11604
0.000756469
0.0688358
0.0476061
0.120157
0.00197453
0.118929
0.00521331
0.0675281
0.0369363
0.0565785
0.113987
0.00791654
0.000678265
0.139216
0.0311542
0.0108851
0.152686
0.0805877
0.0945707
0.0154882
0.011645
0.0113325
0.0462151
0.00279539
0.0334171
0.011929
0.0424258
0.0156039
0.111716
0.00136754
0.00150569
0.0263647
0.114474
0.0091624
0.00249574
0.0666221
0.0261011
0.128013
0.0350621
0.00115071
0.0378506
0.00213449
0.0686021
0.011287
0.0699127
0.00127104
0.141057
0.143376
0.105893
0.0242339
0.00332991
0.00364756
0.00874465
0.0306285
0.144188
0.0402189
0.0669915
0.126391
0.0052048
0.135186
0.0151482
0.0930329
0.0437559
0.146058
0.150833
0.139812
0.0670201
0.0512949
0.0255523
0.00151142
0.099382
0.042627
0.0243155
0.144193
0.0932332
0.0552994
0.0560532
0.0208058
0.13326
0.113585
0.00674216
0.162609
0.0609355
0.0929323
0.0590311
0.141756
0.00270612
0.0708706
0.117107
0.0050908
0.0314072
0.0377201
0.00239339
0.00743752
0.0797103
0.0290952
0.0532831
0.0520236
0.0762816
0.148388
0.0314961
0.00139291
0.00176191
0.00304026
0.0535688
0.00188361
0.0699637
0.0525407
0.156942
0.00288943
0.113524
0.0353509
0.123759
0.00267109
0.00283309
0.107441
0.162683
0.0388145
0.113614
0.0930669
0.00690205
0.089689
0.114092
0.00140211
0.00232774
0.141285
0.0329557
0.0416274
0.00359286
0.150728
0.00256222
0.00172113
0.109563
0.0555245
0.00392015
0.0148488
0.09767
0.104133
0.113547
0.0421406
0.145745
0.122501
0.00242839
0.0015237
0.00209464
0.137563
0.00269039
0.0765972
0.00693195
0.145833
0.0535193
0.0414378
0.140532
0.00329671
0.0440282
0.0112643
0.00566398
0.0024587
0.022119
0.0111295
0.00266565
0.00249164
0.123544
0.000965044
0.138208
0.119497
0.107149
0.114897
0.139027
0.00192932
0.0677118
0.140037
0.0446198
0.00163742
0.00217644
0.0329653
0.148277
0.0287812
0.0218879
0.00305117
0.115809
0.125874
0.162523
0.0138639
0.0985752
0.140095
0.00158372
0.01595
0.0176111
0.110183
0.12807
0.0632736
0.00200118
0.131964
0.00157185
0.0171324
0.0802013
0.00188132
0.00246294
0.151351
0.00875107
0.0413439
0.00197566
0.133587
0.0434255
0.139475
0.0628723
0.029393
0.00393267
0.150502
0.114131
0.111947
0.00727385
0.0203527
0.00183425
0.00176645
0.0739979
0.00141178
0.048668
0.0171574
0.00403358
0.00134547
0.0445392
0.00161515
0.0146213
0.0731644
0.141466
0.00418707
0.0208976
0.0422342
0.00603385
0.146833
0.00229606
0.137346
0.0146498
0.138484
0.0607518
0.00145749
0.0171799
0.00693955
0.0454729
0.0395455
0.0457594
0.00512562
0.0201136
0.00215473
0.0769876
0.00203771
0.0824072
0.00563777
0.00935565
0.00365156
0.110851
0.126169
0.0978755
0.00229492
0.112569
0.131388
0.137246
0.0606865
0.147114
0.113996
0.00348328
0.00318224
0.00232659
0.00233726
0.124332
0.00404864
0.00252037
0.00571822
0.00163763
0.00157488
0.0460707
0.00220455
0.0365445
0.0219339
0.00263526
0.00600084
0.160079
0.00268774
0.087129
0.0861126
0.0129696
0.00170654
0.00238059
0.000959152
0.0395582
0.0612913
0.143457
0.00268159
0.00246142
0.116435
0.011798
0.114738
0.0902406
0.0780533
0.00350563
0.00352948
0.0544441
0.107376
0.0448808
0.0671611
0.0981047
0.0568798
0.123655
0.0443492
0.0264516
0.00555356
0.0894892
0.00614038
0.0748401
0.0504101
0.00170514
0.00254688
0.0503009
0.0415202
0.126361
0.0196226
0.0667437
0.149229
0.0209429
0.122383
0.0798571
0.0417847
0.115124
0.0511561
0.00869561
0.0215076
0.00152871
0.0893356
0.179988
0.00254333
0.106588
0.0332407
0.115143
0.10215
0.151797
0.0770775
0.134881
0.0318604
0.0989553
0.00168997
0.0821461
0.0613801
0.039272
0.1482
0.0867809
0.029913
0.105356
0.0102509
0.00175232
0.0628517
0.0539101
0.125584
0.0814665
0.109856
0.0635847
0.123653
0.0340117
0.00403532
0.106425
0.00883776
0.00143867
0.136551
0.107052
0.137955
0.0340514
0.0102711
0.103211
0.0146084
0.00364804
0.0614484
0.132974
0.00123082
0.159447
0.11341
0.146847
0.17601
0.0962185
0.135057
0.0781473
0.00419694
0.0522653
0.0227852
0.0191777
0.0672592
0.0666376
0.0207285
0.00157579
0.00177079
0.0085835
0.00980522
0.00335816
0.0064178
0.134707
0.0558342
0.142251
0.0201729
0.114534
0.039453
0.0106704
0.132362
0.0195419
0.0217851
0.13042
0.118523
0.0813721
0.115106
0.144541
0.139577
0.00458207
0.00414249
0.0603142
0.0821552
0.146856
0.0113221
0.0056105
0.00163267
0.0140959
0.00337976
0.120313
0.00243519
0.00132123
0.0761187
0.069745
0.0814809
0.136851
0.0658886
0.0945537
0.101015
0.0416309
0.00166457
0.00932828
0.00150896
0.116605
0.0107535
0.00417621
0.116066
0.126244
0.12257
0.148581
0.0579779
0.104942
0.0104033
0.0833563
0.00253149
0.0334771
0.00243384
0.00840419
0.00223056
0.00109156
0.0870286
0.131952
0.128309
0.0793644
0.149398
0.114085
0.0016642
0.00319026
0.0875232
0.0736413
0.0874037
0.0219755
0.0106507
0.137549
0.0695589
0.00431849
0.126628
0.0973241
0.0241205
0.012233
0.0612371
0.00381128
0.00560265
0.0379277
0.00274581
0.00717073
0.00130125
0.149728
0.0450744
0.12951
0.0336061
0.00351153
0.132685
0.00143331
0.126967
0.172785
0.109618
0.00193178
0.0145766
0.00816908
0.105623
0.148452
0.0310229
0.00193662
0.0265414
0.120659
0.0966735
0.0846135
0.0475382
0.119863
0.125185
0.00195968
0.00239091
0.00199458
0.0223478
0.00613511
0.00223752
0.00839344
0.00216982
0.0117755
0.154768
0.134528
0.164689
0.0691869
0.00262719
0.0026949
0.143314
0.00150705
0.00177962
0.0216407
0.106779
0.132728
0.00661763
0.0038779
0.00163448
0.0249541
0.00162556
0.159287
0.00606958
0.00993975
0.139723
0.00247368
0.116497
0.00638502
0.00198306
0.0382222
0.00555588
0.075221
0.137705
0.00209767
0.00160892
0.00779149
0.0278102
0.00126482
0.00525818
0.001691
0.00186513
0.00171298
0.00661884
0.00660996
0.0745123
0.0943315
0.0146404
0.00143243
0.138803
0.00133424
0.160979
0.0131878
0.0308728
0.131573
0.00304663
0.111766
0.0057836
0.00152513
0.115115
0.0120839
0.00974001
0.00174829
0.00659511
0.0105001
0.111822
0.0774111
0.00261042
0.12806
0.136916
0.0168869
0.038732
0.00149604
0.0342795
0.13569
0.0392055
0.137274
0.010599
0.0536722
0.00646394
0.142154
0.147124
0.00150566
0.00947613
0.110438
0.00190424
0.00439266
0.138825
0.0463327
0.0538569
0.00185616
0.116162
0.143695
0.00568099
0.0532314
0.00241539
0.00169742
0.0110103
0.0452265
0.0703801
0.0972222
0.0146341
0.0306151
0.0940914
0.00340915
0.0135426
0.127409
0.0875605
0.0111402
0.055551
0.0014008
0.00504489
0.132639
0.00227517
0.00897809
0.0185406
0.117016
0.0023883
0.00110644
0.00382839
0.108034
0.150704
0.0120615
0.0355849
0.130449
0.0909168
0.115296
0.121104
0.0284037
0.126318
0.131458
0.0151511
0.00629674
0.00125107
0.0409624
0.00382608
0.00158452
0.106048
0.00356881
0.00348526
0.00136454
0.157334
0.0112591
0.00116836
0.00231654
0.00637188
0.00701337
0.0809468
0.00233554
0.0115592
0.00459025
0.144295
0.0163053
0.0128153
0.114409
0.0100184
0.00337045
0.113995
0.00239584
0.00329349
0.115871
0.130524
0.0809162
0.113509
0.0579927
0.145887
0.12973
0.00277467
0.00391372
0.0512335
0.00839769
0.199786
0.0204912
0.00138222
0.00151824
0.00146252
0.0270813
0.00165093
0.0776393
0.137131
0.0336297
0.00155333
0.00357446
0.00659844
0.00390856
0.0462451
0.126705
0.114858
0.0545194
0.0348496
0.00267294
0.0031825
0.0307398
0.00273688
0.00136823
0.114679
0.00350179
0.0868617
0.0226685
0.063996
0.0971263
0.150732
0.0289349
0.0329671
0.00387146
0.00152777
0.140669
0.0139389
0.0269339
0.0194535
0.00381875
0.014334
0.00246207
0.10123
0.00766792
0.00208588
0.00693353
0.00579374
0.116743
0.00647987
0.00233382
0.00203801
0.147226
0.00651063
0.14719
0.0686024
0.0963601
0.0165926
0.00243198
0.00118566
0.115804
0.00235896
0.0169018
0.151781
0.14519
0.0750509
0.158793
0.0189462
0.00225412
0.00184007
0.00748422
0.09839
0.0805718
0.0182509
0.144135
0.00168466
0.0390246
0.100881
0.0144525
0.00775087
0.0207101
0.00129561
0.0101428
0.00129087
0.041359
0.00397566
0.00429272
0.0027642
0.141637
0.0795547
0.019314
0.0788001
0.00398119
0.00120709
0.0176938
0.00767926
0.00492367
0.00652084
0.0183914
0.0218838
0.0483986
0.135678
0.00568768
0.0265964
0.033594
0.0199199
0.0221436
0.0293808
0.00197336
0.0048559
0.0604085
0.0411134
0.0190295
0.0395954
0.108795
0.0140398
0.0114552
0.135178
0.00190541
0.087578
0.0014473
0.105624
0.0679494
0.0524079
0.00147015
0.0348903
0.00151474
0.0033579
0.018811
0.0629635
0.00611278
0.0152768
0.00576427
0.0478617
0.177964
0.0121796
0.1375
0.0014383
0.140137
0.142058
0.124575
0.0361797
0.0313164
0.0428677
0.0119673
0.0136606
0.065562
0.0414762
0.00383925
0.00282727
0.0298403
0.0164369
0.137568
0.0110138
0.0202855
0.00908434
0.0732312
0.0121462
0.0217272
0.148362
0.148227
0.0740879
0.0426874
0.103339
0.00141401
0.142163
0.00805588
0.0411261
0.00270257
0.00387794
0.0286988
0.0136136
0.0100706
0.00399922
0.00215928
0.0476032
0.0381944
0.0132335
0.0184485
0.0892522
0.00434608
0.00122751
0.140403
0.134631
0.00381874
0.0164087
0.02058
0.107625
0.0186186
0.116161
0.0365391
0.0105931
0.0325752
0.0292517
0.127762
0.144357
0.0201001
0.00152809
0.0919136
0.0204136
0.0044636
0.151409
0.130637
0.00144788
0.0107398
0.0077551
0.110759
0.0355768
0.0219913
0.168136
0.114297
0.00825864
0.0220222
0.00142989
0.00637168
0.0263157
0.00239761
0.0144758
0.00781406
0.127794
0.126146
0.0190986
0.028891
0.0193815
0.016378
0.0917638
0.0177354
0.0388158
0.0939416
0.150578
0.0383178
0.0948555
0.0376715
0.0080158
0.0107849
0.135063
0.00774624
0.020729
0.00373921
0.0155004
0.00134249
0.0131945
0.00155765
0.145252
0.0087085
0.0266652
0.123002
0.130337
0.0162297
0.0254673
0.0715291
0.131114
0.00976496
0.00132976
0.0320642
0.115999
0.0662288
0.00461435
0.0150126
0.0254273
0.147087
0.129871
0.037696
0.0399368
0.0842576
0.0214783
0.0016825
0.0142515
0.00174776
0.145412
0.037903
0.109821
0.0398427
0.0804697
0.121406
0.014384
0.0375644
0.113506
0.00187021
0.0324389
0.00135755
0.128209
0.0269215
0.0210887
0.00868399
0.0224072
0.00775037
0.0281305
0.0116132
0.0208321
0.126143
0.00271885
0.00380113
0.0638392
0.138501
0.0255469
0.10956
0.111113
0.00897597
0.138089
0.00181636
0.004781
0.00528251
0.0718444
0.139153
0.0373266
0.00951681
0.0159633
0.0377646
0.0375794
0.12777
0.0393459
0.103783
0.0648478
0.00141364
0.0631187
0.0801772
0.00408064
0.0211486
0.0402653
0.0738403
0.0364661
0.138969
0.0402192
0.00179561
0.132385
0.0249365
0.00247633
0.00681594
0.0126339
0.028641
0.0301954
0.00192282
0.00638328
0.0373526
0.0208139
0.0477365
0.0525135
0.0270894
0.0801
0.123585
0.00198267
0.120865
0.0436192
0.133108
0.068325
0.0237616
0.132915
0.141775
0.0166352
0.103854
0.0513152
0.0186367
0.0265471
0.0142289
0.0320505
0.129136
0.029118
0.0108075
0.0353879
0.0189581
0.0229323
0.0191976
0.0272189
0.00170611
0.107191
0.00393857
0.0109411
0.00437733
0.0219284
0.0137834
0.00920301
0.0418568
0.0121245
0.0115088
0.0334472
0.0328651
0.109794
0.111885
0.154723
0.0438606
0.00137851
0.146612
0.00757039
0.073179
0.0320933
0.0479731
0.00700604
0.0347275
0.0216415
0.0751671
0.0469291
0.0431391
0.136311
0.0394638
0.0355404
0.139965
0.0413419
0.0484491
0.129212
0.0207647
0.031528
0.00326841
0.0433647
0.00421394
0.0117886
0.0300601
0.106032
0.0176669
0.132459
0.0260825
0.0197768
0.00371795
0.0418408
0.0295938
0.0219757
0.138308
0.0159563
0.0407327
0.00281605
0.129364
0.0573807
0.00497397
0.0376493
0.0389246
0.149904
0.115375
0.14645
0.0204043
0.0034551
0.0332387
0.0570676
0.0431873
0.0194286
0.116997
0.0549888
0.0445722
0.0375684
0.0487858
0.163952
0.00521863
0.142119
0.00280182
0.161265
0.00325006
0.13961
0.142701
0.00708568
0.0553072
0.0397365
0.0113652
0.0403416
0.0222058
0.12854
0.132723
0.0764706
0.0447725
0.00148831
0.116396
0.0369143
0.0524252
0.0499459
0.0761553
0.0588433
0.0100017
0.0212783
0.0427489
0.0312861
0.0399481
0.154294
0.0625549
0.014483
0.0816789
0.0640797
0.00747894
0.129035
0.0343657
0.014017
0.0389643
0.00256993
0.150054
0.0404152
0.170025
0.0209608
0.0230863
0.0684041
0.0027564
0.145091
0.0688589
0.0392957
0.144636
0.00323177
0.152039
0.0819127
0.0169688
0.0156635
0.0380137
0.148024
0.0286299
0.0215361
0.00161972
0.0733077
0.0296125
0.145435
0.139739
0.0398632
0.00786106
0.00247915
0.0759576
0.124443
0.132418
0.0829022
0.0366926
0.0036709
0.00268267
0.0820928
0.139332
0.121973
0.0379715
0.00474387
0.00273567
0.0572468
0.00660408
0.153745
0.0968317
0.0160304
0.108543
0.0820588
0.0210955
0.00624406
0.00564516
0.0374219
0.0458307
0.00517805
0.0167892
0.0464854
0.0297019
0.00580398
0.0803563
0.066182
0.0349071
0.118939
0.0820129
0.133317
0.150737
0.0228161
0.0343304
0.0482445
0.0130673
0.012884
0.0825004
0.0371149
0.150242
0.0965106
0.0453384
0.036545
0.0163037
0.0335098
0.00332126
0.051221
0.0471095
0.0537086
0.00445846
0.00192542
0.0273791
0.151591
0.0104672
0.04076
0.0976488
0.10602
0.0420763
0.131378
0.129893
0.0565136
0.05307
0.00659725
0.0530473
0.0945233
0.0453225
0.00265539
0.00144258
0.119667
0.0611287
0.0385034
0.0372674
0.00336599
0.0550699
0.00427356
0.0114403
0.101269
0.0532574
0.00132417
0.0765143
0.0632877
0.0342523
0.043326
0.0806557
0.0627855
0.0788888
0.00988717
0.121432
0.0206428
0.0474091
0.0393522
0.0788498
0.10658
0.0975809
0.058848
0.0637489
0.118983
0.150927
0.0799965
0.0641506
0.0652667
0.0328151
0.0915202
0.0957434
0.0820114
0.0643715
0.0296304
0.115007
0.137943
0.0016746
0.0450165
0.00259463
0.0141684
0.132958
0.0566428
0.0159503
0.149951
0.0964169
0.155219
0.0492571
0.0602309
0.0125265
0.0589414
0.110631
0.00649571
0.00365692
0.0175189
0.146916
0.0024969
0.0602192
0.131828
0.0153149
0.15096
0.080741
0.00286558
0.130166
0.0109343
0.0878085
0.00684543
0.00652508
0.0364941
0.100805
0.129888
0.00874054
0.0515099
0.0501276
0.0437032
0.0041857
0.12041
0.00754628
0.0625598
0.00125509
0.0827209
0.108128
0.113802
0.0604796
0.0523916
0.0508357