/*--------------------------------*- C++ -*----------------------------------*\
| =========                 |                                                 |
| \\      /  F ield         | OpenFOAM: The Open Source CFD Toolbox           |
|  \\    /   O peration     | Version:  v2012                                 |
|   \\  /    A nd           | Website:  www.openfoam.com                      |
|    \\/     M anipulation  |                                                 |
\*---------------------------------------------------------------------------*/
FoamFile
{
    version     2.0;
    format      ascii;
    class       volVectorField;
    location    "1000";
    object      U_0;
}
// * * * * * * * * * * * * * * * * * * * * * * * * * * * * * * * * * * * * * //

dimensions      [0 1 -1 0 0 0 0];


internalField   nonuniform List<vector> 
13851
(
(1.14179 0.0538463 -8.571e-20)
(1.07494 -0.0236742 -3.96697e-20)
(1.07328 -0.02264 1.52769e-20)
(-0.186876 -0.0106822 0)
(1.00211 -0.000469048 6.64427e-22)
(1.08534 -0.0382983 0)
(1.06078 0.0138635 -2.79e-20)
(1.01378 -0.000797746 0)
(0.259286 0.0391217 -2.11762e-20)
(0.991249 -0.00896781 0)
(1.16812 -0.102943 -1.77595e-21)
(1.00139 -0.00880715 -4.66589e-21)
(0.981011 -0.0213056 -3.95754e-21)
(0.0600293 0.0173276 0)
(1.10626 0.011406 1.18955e-20)
(1.09703 0.0635585 6.95425e-21)
(-0.31168 0.00117747 0)
(1.03694 -0.0197918 -1.4431e-20)
(1.2118 0.0486143 0)
(1.14316 0.0521048 6.02586e-20)
(1.11879 0.00565806 2.51134e-20)
(1.04144 -0.0938425 0)
(0.511745 -0.251065 0)
(1.00008 -0.000223277 -4.24907e-23)
(1.10847 -0.0172987 4.19184e-20)
(1.09294 0.0490661 -3.37853e-20)
(1.10844 0.0709863 -2.92108e-20)
(1.11629 0.0822551 0)
(0.390931 0.0394804 1.39706e-20)
(1.02157 -0.0125822 0)
(-0.0963706 -0.00929028 7.8041e-20)
(1.061 0.0131632 2.16244e-20)
(1.13378 0.0551712 4.06596e-21)
(0.321795 0.0658682 4.03952e-20)
(1.13551 -0.0863207 1.15471e-20)
(0.422999 0.0414384 0)
(1.00005 -0.000201018 0)
(1.13871 -0.138865 -1.39188e-20)
(-0.0263438 0.0158391 -9.0817e-20)
(1.00753 -0.039784 3.068e-21)
(0.158362 0.054573 -3.22048e-20)
(0.42697 0.042743 -1.4038e-20)
(-0.233885 6.70769e-05 8.85881e-22)
(1.0981 -0.481654 0)
(0.441571 0.0462661 0)
(1.0155 -0.0234757 -8.08709e-22)
(1.02009 5.57665e-05 0)
(1.10344 0.0609298 8.67111e-23)
(1.04827 -0.058511 0)
(0.980642 -0.0203473 0)
(-0.263005 0.00877875 -4.0234e-20)
(0.973678 -0.0147262 0)
(1.09758 0.0630109 -1.28457e-20)
(1.07887 0.0247516 2.97434e-20)
(0.115969 0.0133851 2.33092e-20)
(1.00647 -0.0400894 -6.39633e-21)
(1.13542 0.0560954 0)
(0.127137 0.0489089 4.53533e-21)
(1.11189 0.0672107 3.9719e-20)
(-0.0549226 0.01699 0)
(1.00128 -0.00830413 -1.48667e-21)
(1.10457 0.0702761 -3.79391e-20)
(0.995517 -0.00355025 0)
(1.04874 -0.060814 0)
(0.875959 -0.451472 -1.26092e-20)
(0.857188 -0.471575 -1.39461e-20)
(-0.0760376 0.0132773 0)
(0.69343 -0.12704 0)
(1.02179 -0.0409462 2.04844e-21)
(-0.157583 -0.00940551 -8.14346e-20)
(-0.163015 -0.00123067 1.77149e-19)
(1.12895 0.00968146 0)
(0.994289 -0.0279815 6.25352e-21)
(-0.0579688 0.0148831 0)
(1.08621 0.022089 -1.70606e-20)
(1.02265 -0.0762555 5.03959e-22)
(-0.287707 -0.00156105 -9.06286e-20)
(1.02234 -0.0063096 1.8391e-21)
(1.18281 -0.0209562 0)
(1.0054 -0.0187996 -1.29138e-21)
(1.02307 -0.0415698 0)
(1.27414 -0.0950848 -6.72713e-21)
(1.13174 -0.0880709 0)
(0.0503952 0.0177098 1.46257e-20)
(-0.0400669 0.0173607 0)
(-0.119223 -0.00581835 0)
(1.0448 -0.0950517 -1.03479e-20)
(0.205206 0.0117378 2.24448e-20)
(0.991995 -0.0131833 -1.89383e-20)
(-0.0931505 -0.00831168 1.86048e-19)
(0.9724 -0.0139453 0)
(1.06232 0.0129547 1.83766e-20)
(-0.240764 0.000633433 9.755e-20)
(-0.149934 -0.00521347 0)
(-0.0754623 0.0232323 1.38325e-19)
(1.08326 -0.442305 -3.93004e-21)
(1.01049 -0.0252152 -1.06334e-21)
(1.10077 0.0624282 0)
(-0.196751 0.011386 7.73927e-20)
(1.22208 -0.201111 7.92298e-20)
(1.10154 0.062754 0)
(0.810591 -0.120545 3.63456e-20)
(0.811007 -0.153569 -3.73396e-20)
(0.990186 -0.0298525 0)
(1.01918 -0.0231344 1.61193e-21)
(1.13516 -0.00563145 9.50333e-21)
(1.01842 -0.0228741 2.55435e-21)
(-0.144788 -0.00315271 -1.8542e-19)
(1.06246 0.0121215 -2.36119e-20)
(1.03596 -0.0192291 7.10702e-21)
(1.02913 -0.133473 -1.05235e-20)
(1.01631 -0.0239045 -9.78091e-22)
(1.22611 -0.0165861 0)
(1.16849 -0.045858 0)
(1.12205 0.0582469 1.70097e-20)
(1.07816 0.023446 0)
(1.01505 -0.00840059 -5.6692e-21)
(1.01446 -0.000930414 0)
(-0.202564 -0.00852688 0)
(-0.122991 -0.0132206 8.99085e-20)
(1.11358 -0.367417 0)
(1.02996 -0.016327 8.22768e-21)
(1.01678 -0.0416362 -4.07488e-22)
(0.062079 0.0329202 0)
(1.18446 0.0557009 4.81469e-20)
(0.61459 -0.20807 -1.14828e-19)
(1.011 -0.0248993 1.39701e-22)
(1.1347 -0.154868 0)
(0.182842 0.0536479 -2.8751e-20)
(1.11761 0.0172846 0)
(1.038 -0.095882 0)
(1.10269 -0.0666375 0)
(1.28364 -0.162986 1.25534e-20)
(0.306601 0.0633646 -4.20596e-20)
(1.17269 -0.0999891 3.53883e-20)
(-0.0854381 0.0217997 4.90113e-22)
(0.706525 -0.119452 0)
(-0.133544 -0.00461771 -9.68856e-20)
(0.848334 -0.0920598 7.09292e-20)
(1.11313 0.0203598 0)
(1.27083 -0.0986156 0)
(0.97557 -0.0465177 -2.2995e-20)
(0.991297 -0.0133278 1.67253e-20)
(0.743428 -0.313582 7.28443e-20)
(1.07927 0.0219905 7.4375e-20)
(1.00882 -0.0745998 1.18752e-21)
(1.02209 -0.00587478 9.13096e-22)
(-0.141592 -0.00608263 1.74804e-19)
(0.253754 0.0282285 -8.27515e-21)
(1.13992 -0.157237 0)
(1.10238 0.0623727 -3.65799e-20)
(1.2245 -0.0201222 0)
(1.17277 -0.0449073 -4.04537e-20)
(1.20069 0.0445594 0)
(0.972774 -0.0246597 0)
(0.983768 -0.0104624 -9.89677e-21)
(1.00138 -0.00692753 1.98501e-21)
(-0.0605297 0.0127237 3.62794e-20)
(1.11117 0.0168306 -4.71195e-21)
(1.06422 0.00290346 1.55353e-20)
(1.00015 -0.000515759 4.56615e-23)
(0.403639 0.0397269 -3.46924e-20)
(1.13226 -0.00481934 0)
(1.10422 0.0606121 -3.88793e-20)
(0.0634678 0.0156671 0)
(0.346322 0.0480088 1.20685e-20)
(0.357704 0.0495561 0)
(-0.24671 0.0104335 -7.44697e-20)
(1.02987 -0.128492 1.93536e-21)
(0.661014 0.0780524 6.90052e-20)
(1.00097 -0.00764546 -3.86134e-21)
(1.01497 -0.00798513 0)
(1.15099 -0.00895549 6.2146e-21)
(1.00111 -0.000433538 0)
(-0.0485621 0.0281508 -8.4623e-20)
(1.12202 0.0782833 0)
(1.10737 0.062984 0)
(1.01557 -0.00793631 -8.52112e-21)
(1.08431 0.0235891 0)
(1.10684 0.0623276 0)
(1.18071 0.0546589 -6.85276e-20)
(1.10509 -0.463356 3.35819e-20)
(1.03546 -0.121323 2.52999e-21)
(1.11556 0.0174619 -1.16116e-20)
(-0.247705 -0.000685451 -5.93348e-20)
(0.261927 0.0280413 1.89421e-20)
(1.1324 0.0566123 0)
(0.889507 -0.0695082 3.29714e-20)
(0.977285 -0.0253731 0)
(1.01991 -0.0171937 0)
(1.18037 0.0174856 5.02526e-21)
(1.11198 0.0156855 3.40913e-21)
(0.0407906 0.0119842 6.38165e-21)
(1.0868 -0.0360967 7.14879e-22)
(1.01064 -0.0724504 0)
(1.09924 0.0627247 -2.49323e-20)
(1.13072 0.0556848 0)
(1.04757 -0.0106717 -5.63576e-21)
(1.04314 -0.0283484 -9.21684e-21)
(0.709461 -0.162655 -6.40455e-20)
(1.27079 -0.110457 -1.54072e-19)
(-0.0131679 0.0371547 4.9618e-20)
(0.109382 0.0518644 1.58964e-20)
(1.1046 0.0122301 5.39325e-21)
(0.942157 -0.719577 0)
(-0.0431494 0.0348653 -5.49572e-20)
(0.937582 -0.0234233 0)
(1.10536 0.0269795 -8.02477e-21)
(0.253213 0.0415494 1.98188e-22)
(1.0796 -0.0463333 1.12064e-20)
(1.09547 0.0639501 0)
(1.01609 -0.0407813 1.10664e-22)
(1.27427 -0.106487 1.203e-19)
(1.00013 -0.00225111 0)
(1.13924 -0.0788034 -8.82186e-20)
(1.02646 -0.0841523 1.66201e-21)
(0.981913 -0.019205 3.14523e-20)
(1.15234 0.0647806 3.19959e-20)
(1.0471 -0.0196295 0)
(0.152181 -0.539778 6.26159e-20)
(1.01559 -0.0075068 5.09161e-21)
(1.14728 0.0507193 3.4704e-20)
(0.031049 0.0145635 8.67103e-21)
(-0.0698715 0.0235278 -7.87336e-20)
(0.901575 -0.0789173 -2.99441e-20)
(1.10509 0.0279231 0)
(1.00003 -0.00114423 4.097e-21)
(0.746446 -0.292206 -3.86159e-20)
(1.00188 -0.0140602 -2.02528e-22)
(1.13579 -0.0801809 7.6038e-20)
(-0.0435335 -0.0306617 -4.44691e-20)
(0.895212 -0.0701573 3.38101e-22)
(1.07941 -0.0441247 0)
(0.996269 -0.00143788 0)
(0.0963788 0.0501665 -1.73019e-20)
(1.02227 -0.0123674 0)
(0.873973 -0.420805 0)
(0.0889182 0.0483808 0)
(1.21436 -0.195787 6.82774e-20)
(1.0001 -0.000494367 -2.06948e-22)
(1.30136 -0.336993 0)
(-0.02866 0.0171567 0)
(0.471165 0.0489109 6.27195e-21)
(1.09601 0.0634333 -6.43608e-21)
(1.10961 -0.0127206 -4.0134e-20)
(0.707056 -0.345303 -4.67504e-21)
(1.15253 0.0624588 3.33783e-20)
(1.08388 0.0247996 -1.64009e-20)
(1.08603 -0.424331 3.53573e-20)
(1.04872 -0.135396 1.26995e-20)
(0.152826 0.0103563 -1.97017e-20)
(1.1725 0.0359949 -9.98201e-20)
(1.0107 -0.000852382 2.24712e-21)
(1.08511 -0.0141665 -1.11573e-20)
(1.10018 0.0630542 1.89309e-21)
(0.391919 0.0381022 2.58164e-20)
(0.277022 0.0150207 -9.68776e-21)
(1.01941 -0.0164646 -1.97919e-21)
(0.590364 -0.20358 1.71986e-19)
(0.992882 -0.0140052 1.34325e-20)
(1.13351 0.0657879 2.37461e-20)
(1.18923 0.051414 0)
(1.08699 -0.0135389 -1.77281e-20)
(1.13237 -0.00142535 0)
(1.17588 0.0362223 9.65205e-20)
(1.00008 -0.0259878 1.96465e-22)
(0.805806 -0.130338 -7.47933e-22)
(1.1049 0.0577592 6.75714e-21)
(1.16056 0.0792819 -9.20691e-20)
(0.997882 -0.00906929 -1.20906e-20)
(0.981793 -0.0182135 -2.62051e-20)
(0.896011 -0.0773943 -5.45745e-20)
(0.342019 0.0562468 8.20236e-21)
(-0.251632 -0.00251099 0)
(1.12208 0.0106621 1.87644e-20)
(1.03103 -0.016835 4.60951e-21)
(1.17911 0.0575192 -7.22386e-20)
(1.1948 0.0482777 7.57466e-20)
(1.12469 0.0541975 -1.52709e-20)
(1.13026 -0.000692403 -8.61525e-21)
(0.313224 0.0524442 0)
(-0.159998 0.0118527 -7.52313e-27)
(1.09058 -0.0219196 0)
(1.10095 0.00892319 -1.2172e-20)
(1.07946 -0.163053 1.69983e-21)
(1.02129 -0.0222371 -2.29002e-21)
(1.00151 -0.00655704 -5.55764e-21)
(1.12647 0.0549168 0)
(1.15261 -0.118745 3.68684e-21)
(1.02368 -0.0125429 6.04783e-21)
(1.00014 -0.00220922 0)
(1.00166 -0.0144741 -2.08297e-22)
(1.0044 -0.000659223 -1.35619e-22)
(1.10613 -0.00390115 -6.30928e-20)
(1.00157 -0.00701037 1.82818e-21)
(0.270441 0.0415699 2.15131e-20)
(1.12063 0.00702062 1.63809e-20)
(1.01251 -0.0336156 -4.07984e-22)
(0.398941 0.0373695 0)
(0.0510383 0.0306793 0)
(0.974953 -0.0200595 0)
(1.14598 0.052679 -4.30875e-20)
(-0.233083 0.00979782 -1.94172e-20)
(0.974456 -0.0489398 -1.09964e-20)
(0.973548 -0.0194027 0)
(1.1231 0.00670905 1.58689e-20)
(0.0214604 0.0147692 4.53413e-21)
(0.18993 -0.00758095 0)
(1.15148 0.00400726 0)
(1.00234 -0.000618464 -1.29701e-21)
(0.698269 0.079899 -5.42725e-20)
(1.00108 -0.00813799 8.05735e-22)
(1.15771 0.00391755 -6.4048e-20)
(-0.216627 0.0120416 0)
(1.16289 0.0793474 0)
(1.06296 0.00249877 -1.14149e-20)
(1.19386 -0.199757 0)
(1.33497 -0.18232 -2.05076e-20)
(-0.118196 -0.00138142 -3.62619e-20)
(1.22654 -0.0290018 -7.11274e-20)
(0.780532 -0.0991005 1.83982e-21)
(-0.0425785 0.0231174 0)
(0.100209 0.0411826 3.4879e-22)
(1.13987 0.0811769 -7.63477e-20)
(1.04453 -0.0291421 9.87257e-21)
(-0.25769 -0.00111507 -2.06945e-19)
(0.112575 0.00631325 0)
(0.459988 -0.455384 -1.22678e-19)
(0.495148 -0.461607 1.04492e-19)
(0.936018 -0.0246407 -1.11204e-20)
(1.15467 -0.00393865 5.36963e-20)
(0.948397 -0.120775 1.44846e-20)
(0.213501 0.0122401 0)
(0.785743 -0.146231 -4.38947e-20)
(1.00844 -0.00199553 4.3036e-22)
(1.02015 -4.21819e-06 0)
(1.07304 -0.0831208 0)
(-0.143773 -0.00385763 0)
(0.205784 -0.546799 -4.76936e-20)
(1.02128 -0.021407 3.70031e-21)
(-0.085022 0.0227363 8.59517e-20)
(0.937462 -0.118112 0)
(1.1035 -0.06972 1.16887e-20)
(1.06446 0.00381393 4.23903e-21)
(0.0122235 0.0121495 0)
(1.17589 0.0569389 4.87089e-20)
(1.09858 0.0632921 3.86095e-20)
(1.02409 -0.0818539 -7.38921e-22)
(1.07672 -0.0432866 -9.3924e-21)
(0.468436 0.0437441 -4.36757e-20)
(0.977152 -0.0269982 -8.63962e-21)
(1.19922 0.0481717 0)
(1.08904 -0.0206716 1.26714e-20)
(1.12447 0.00538425 -5.02128e-20)
(0.931583 -0.120421 0)
(0.992224 -0.0140265 -6.76672e-21)
(1.0133 -0.0331795 5.64618e-22)
(1.2354 -0.0915944 0)
(1.23043 -0.197085 -8.79807e-20)
(1.16844 0.0393288 9.75252e-20)
(1.34588 -0.182288 -7.04766e-20)
(0.478154 0.0450177 3.32081e-20)
(1.01012 -0.0760768 -5.23973e-21)
(0.0736972 0.0474334 0)
(1.13862 0.0701362 -7.38512e-20)
(1.02878 -0.00838037 0)
(1.14115 0.0817568 -4.98124e-21)
(1.14136 0.0378001 1.71395e-20)
(-0.18303 0.0139091 6.24512e-20)
(1.07096 -0.0805561 -1.95235e-20)
(1.08873 0.0526879 0)
(1.10204 0.0673849 1.98521e-20)
(1.22082 -0.0933151 0)
(1.23126 -0.101995 -1.36047e-19)
(0.20615 0.0122216 0)
(1.04834 -0.0402957 9.08021e-21)
(1.12658 0.0801459 0)
(-0.329345 0.000237692 -1.10097e-19)
(1.10488 -0.0249528 3.84986e-20)
(0.173579 0.0135917 -2.10384e-20)
(1.1122 -0.0269227 -6.88518e-20)
(0.113297 0.0496574 0)
(1.10004 0.00780493 2.10841e-20)
(1.08113 0.0369834 0)
(1.17963 0.0307126 -3.81312e-22)
(1.2549 -0.174442 6.44071e-20)
(0.983858 -0.0113847 1.09147e-20)
(1.08791 -0.0273111 0)
(1.15699 -0.121795 -4.29896e-20)
(1.08585 0.0233504 2.37023e-21)
(1.01377 -0.0257128 0)
(1.12183 0.0126049 -2.52479e-21)
(0.575311 0.0822051 4.50307e-20)
(0.99509 -0.0279021 -7.23623e-21)
(1.10684 0.0258701 4.00706e-20)
(-0.21365 -0.00883921 -2.78346e-20)
(1.06958 -0.0407137 3.56669e-20)
(1.2514 -0.48673 9.24804e-20)
(1.09168 0.0351884 0)
(0.245708 -0.00879273 -3.47302e-20)
(1.08218 -0.0478114 0)
(1.09234 0.0480054 0)
(0.916533 -0.692091 0)
(1.18821 0.05352 1.67558e-20)
(1.13586 -0.0111215 -2.27661e-20)
(0.257283 0.0122156 0)
(-0.0488901 0.0138047 0)
(1.26511 -0.3305 0)
(0.999297 -0.0260729 2.36988e-22)
(1.23175 -0.0879337 0)
(1.11383 -0.0338663 0)
(1.08952 0.0517162 1.93107e-21)
(1.0285 -0.0181384 -3.88008e-21)
(-0.238853 0.00129481 -5.03894e-22)
(0.530351 0.078701 -2.02392e-20)
(1.17266 -0.0585428 -1.77861e-19)
(1.07629 -0.0412091 0)
(1.17916 0.0331258 0)
(1.10777 0.0725488 4.66349e-20)
(-0.23769 -0.00488084 0)
(1.02513 -0.00305234 -5.60031e-21)
(-0.29199 0.00148178 0)
(1.26487 -0.160476 0)
(0.273752 -0.168446 2.61161e-20)
(1.05314 -0.138271 -1.21703e-20)
(1.11901 0.0734344 0)
(0.987753 -0.0185088 2.50236e-21)
(1.00129 -0.000371787 -5.316e-22)
(0.105943 0.0114372 -5.77054e-20)
(1.1106 0.0740155 -2.62531e-20)
(0.990573 -0.00956699 -1.2936e-20)
(1.07482 -0.0252373 1.80947e-20)
(1.10861 0.0259957 -2.51682e-20)
(1.01326 -0.00900529 0)
(0.603725 0.0811701 2.06404e-20)
(1.15462 -0.00111481 -6.04826e-20)
(1.14185 0.0364147 0)
(1.07913 0.000922942 -2.16085e-20)
(1.04903 -0.0390715 -1.44535e-20)
(0.972025 -0.00870652 4.13755e-20)
(1.27571 -0.107409 0)
(1.01131 -0.0328595 -1.55433e-21)
(0.97307 -0.00764632 -3.2853e-20)
(0.826482 0.0652338 -3.08749e-20)
(0.609561 0.0806659 -4.24152e-20)
(1.03476 -0.093353 -6.60404e-21)
(1.10195 0.0668348 -2.03283e-20)
(0.995706 -0.0029795 8.12316e-21)
(1.00167 -0.0066331 3.8086e-21)
(1.07197 -0.0416318 -2.89045e-20)
(1.17124 0.0395927 -1.07074e-19)
(1.08819 0.0368772 -3.17921e-20)
(1.01366 -0.0272235 1.21006e-22)
(1.05842 -0.0311863 -1.6088e-20)
(1.11531 -0.356365 0)
(1.06629 -0.0175721 1.02081e-20)
(0.283778 -0.0147251 0)
(1.00156 -0.00821588 0)
(1.07874 0.0128413 0)
(0.447694 0.0474782 0)
(0.939414 -0.164458 2.24747e-20)
(1.01946 -0.000653574 4.34617e-21)
(1.00052 -0.00709299 0)
(1.07877 -0.000107943 1.6002e-20)
(1.05051 -0.0094998 -6.37356e-23)
(1.24518 -0.380597 8.0431e-20)
(0.744417 0.0637966 -1.16909e-20)
(1.11061 -0.0110672 4.60116e-20)
(0.318814 -1.12982 7.50373e-20)
(1.07368 -0.0401367 -1.32568e-22)
(1.00041 -0.0112986 4.22999e-21)
(0.221099 0.0525182 -1.33028e-20)
(1.10171 0.0672345 0)
(0.877984 -0.126782 -4.24973e-20)
(0.996354 -0.0318125 7.4627e-21)
(0.0892641 0.0384749 3.23807e-20)
(0.857876 -0.0974928 -4.55586e-20)
(1.17351 -0.646159 1.08085e-19)
(0.989527 -0.0290025 -6.77732e-21)
(1.10548 -0.0610774 -2.05891e-20)
(1.23555 -0.0989536 1.50596e-19)
(1.09255 0.021169 -4.67467e-21)
(0.132084 0.0464991 0)
(1.10842 0.0724128 -5.41635e-20)
(1.24014 -0.0715606 1.60114e-19)
(0.977371 -0.0731574 7.721e-21)
(1.22822 -0.0250951 8.49286e-20)
(1.00127 -0.0272557 3.86476e-21)
(0.37971 0.0382508 1.53752e-20)
(1.09225 0.0344298 5.56653e-21)
(1.12925 0.0560774 7.58391e-20)
(1.11216 -0.0318761 -1.0101e-20)
(1.0246 -0.078593 -5.5628e-22)
(0.946033 -0.161917 2.50157e-20)
(1.15132 -0.00544846 5.26134e-20)
(1.00188 -0.000564442 0)
(-0.269218 -0.000964133 2.4956e-19)
(0.193186 0.0490257 0)
(0.321797 -0.0189133 6.22254e-20)
(-0.183743 0.000986266 6.60034e-20)
(0.764738 0.0645056 1.03289e-20)
(-0.248226 0.0050965 4.09756e-20)
(1.19362 0.0512514 -8.227e-20)
(0.912987 -0.0825145 0)
(0.99969 -0.00308046 7.87297e-21)
(1.21596 -0.482284 8.49138e-20)
(0.991268 -0.00823701 2.80559e-21)
(1.01342 -0.0250128 0)
(0.907007 -0.0994072 0)
(-0.0259026 0.0320831 -6.39823e-21)
(1.07216 -0.0166025 3.74346e-21)
(0.971011 -0.0417649 0)
(1.07646 -0.287155 0)
(1.14382 -0.0340551 0)
(0.989179 -0.00368978 1.61834e-20)
(0.624062 0.0189004 -2.35521e-20)
(1.00912 -0.0242351 0)
(0.226738 0.0575861 2.03136e-20)
(1.2351 -0.36508 0)
(1.00585 -0.0194048 -1.26467e-21)
(1.0665 -0.00758634 -2.39945e-20)
(1.26827 -0.134336 -5.80196e-20)
(1.13974 0.0809001 7.3031e-20)
(1.02304 -0.0128485 -5.60205e-22)
(0.912214 -0.0839599 1.27092e-19)
(1.03939 -0.393044 -1.0406e-19)
(1.03275 -0.00260176 -4.93173e-21)
(-0.0811543 0.003277 3.45215e-20)
(1.20909 0.0484059 0)
(1.15117 0.0488643 0)
(0.975879 -0.0713827 3.55539e-21)
(0.844962 0.0658004 4.26018e-20)
(-0.105236 0.0156189 -6.29253e-20)
(1.0335 -0.002807 5.86281e-21)
(1.24935 -0.00106828 5.42317e-20)
(1.01928 -0.0412317 1.56172e-21)
(1.0096 -0.0248108 0)
(0.907053 0.0715808 -4.92886e-20)
(0.116772 0.0502985 -9.02188e-20)
(1.12629 -0.0327916 0)
(1.08697 0.0366908 2.40631e-20)
(0.990605 -0.00697338 0)
(1.09713 0.0420887 3.95315e-20)
(0.212361 0.056652 -2.77879e-20)
(-0.0638004 0.0166636 6.36876e-20)
(1.03696 -0.00603217 1.21985e-20)
(-0.293337 0.00377688 1.83467e-19)
(1.01326 -0.0265662 -4.781e-23)
(1.02058 -0.0419908 7.08461e-23)
(1.13672 -0.00905517 9.66041e-21)
(1.07493 0.0174737 -2.6259e-20)
(1.02536 -0.00274175 5.93528e-21)
(1.01974 -0.076402 0)
(-0.067995 0.00289292 8.94571e-21)
(1.24989 -0.171013 -1.02309e-19)
(-0.0962959 0.00309644 0)
(1.06998 -0.0171124 0)
(0.993116 -0.0147372 -6.656e-21)
(0.364401 0.0554178 2.67261e-20)
(0.999492 -0.00428606 0)
(1.23307 -0.0774779 -1.6705e-20)
(1.08282 0.00714512 2.20654e-20)
(1.08816 0.0203295 0)
(1.11066 -0.0171904 0)
(0.54818 0.0544142 0)
(-0.146755 0.0140782 5.73765e-20)
(1.08585 -0.0316746 -2.4528e-20)
(-0.291407 0.000311298 0)
(1.06185 0.000344046 1.56933e-20)
(1.16222 -0.0177457 -1.96951e-21)
(0.436338 0.044274 1.39016e-20)
(0.141406 0.0182336 -2.40018e-22)
(1.01282 -0.0419509 2.91072e-22)
(1.00051 -0.0271792 4.89696e-21)
(0.818242 -0.162459 0)
(-0.087721 0.00371667 0)
(1.10055 0.0677759 1.9769e-20)
(1.09594 0.0417646 -2.41926e-20)
(1.05665 -0.560549 -1.50878e-19)
(1.07481 0.0182376 2.47869e-20)
(1.09793 0.00838874 -2.32838e-20)
(0.0381206 -0.041582 -8.8529e-20)
(0.571267 0.0106008 0)
(1.08878 -0.345932 9.87542e-21)
(0.212062 0.0554076 -2.83576e-20)
(1.11877 0.0657839 0)
(0.483594 0.046604 1.09551e-20)
(1.04396 -0.0389912 -6.13389e-21)
(1.11297 0.0675121 -3.77368e-20)
(1.20875 0.0694589 -5.25089e-20)
(1.00002 -0.00978699 0)
(-0.334494 0.0043537 0)
(0.382258 0.0515462 -4.5166e-20)
(1.03514 -0.126691 -2.68432e-21)
(1.1151 0.0197123 0)
(1.00306 -0.0371506 0)
(0.46235 -0.847161 0)
(1.14926 -0.191613 -5.99619e-20)
(0.549726 -0.177567 -1.79481e-19)
(1.01062 -0.0333932 -1.36691e-21)
(1.00078 -0.000509471 0)
(0.910574 -0.0499892 0)
(1.14248 -0.0368893 0)
(1.00161 -0.00790438 0)
(-0.0545905 0.0293756 2.94963e-20)
(1.00091 -0.000607411 5.8168e-22)
(1.12 0.0653299 0)
(0.970559 -0.0698624 0)
(1.09059 0.0521493 -8.57798e-21)
(0.991125 -0.0294555 1.03839e-20)
(0.988458 -0.00384159 8.66417e-21)
(1.09732 -0.164348 1.62274e-20)
(-0.292067 0.00183147 -5.77396e-20)
(1.13765 -0.0163761 -3.76192e-20)
(-0.0989536 0.0216896 5.788e-22)
(1.10586 -0.0642676 0)
(1.01349 -0.0100627 -1.87436e-21)
(1.0319 -0.0108935 9.49896e-21)
(1.15388 -0.0107607 0)
(1.05726 -0.03223 -1.30675e-20)
(1.19879 -0.0298596 -1.05232e-19)
(1.07661 -0.0186551 1.72053e-20)
(0.877888 -0.119002 -2.15838e-20)
(1.11094 0.06764 -1.00447e-20)
(0.99937 -0.00402568 0)
(0.279763 0.0109856 1.69251e-20)
(1.00007 -0.00154327 -5.07839e-22)
(1.09162 0.0582399 4.14756e-20)
(-0.275084 0.000419316 0)
(0.409809 0.0485776 0)
(0.881957 -0.0306915 -4.77461e-20)
(0.758346 -0.258319 1.52314e-19)
(1.06516 -0.286411 0)
(1.22796 -0.250535 4.08463e-20)
(0.352712 0.0529061 -2.60146e-20)
(1.03951 -0.00710239 -6.77718e-21)
(0.532419 0.0163548 9.04911e-20)
(0.942943 -0.122946 0)
(1.10755 -0.0249479 -2.19457e-20)
(-0.171468 -0.00113048 0)
(1.29215 0.00449493 -8.6342e-21)
(1.02926 -0.00886884 1.00377e-20)
(1.19651 -0.0324148 7.48398e-20)
(1.04683 -0.00985722 -8.61996e-21)
(0.44913 0.0427512 1.83851e-20)
(-0.280611 0.00628041 -4.69005e-20)
(1.0259 -0.0433772 0)
(0.691697 -0.152156 0)
(0.596696 0.0801107 0)
(0.999991 -0.00131598 5.23166e-21)
(0.999986 -0.00175691 -6.30784e-21)
(1.09235 0.0497887 4.74796e-20)
(0.261227 0.00849145 -3.17967e-20)
(0.924285 0.0686028 -2.29958e-20)
(0.973737 -0.0179931 0)
(1.18445 0.026409 2.59991e-20)
(1.06446 -0.0175521 0)
(0.987354 -0.00493305 -7.99708e-21)
(1.11223 0.0685678 0)
(1.18363 0.0293026 -3.58897e-21)
(1.22439 -0.182196 0)
(1.02372 -0.00254372 -2.28971e-21)
(1.10586 0.057367 -8.34802e-21)
(0.907369 -0.212107 0)
(1.09059 0.0462966 0)
(0.957335 -0.0209457 3.46143e-20)
(1.00924 -0.0697554 0)
(1.1415 -0.191404 7.15138e-20)
(0.91477 -0.0510582 0)
(1.10423 0.0593594 -2.76544e-20)
(1.12641 0.0106563 3.86243e-20)
(1.12949 0.00741403 3.65965e-20)
(1.07727 -0.33316 2.32628e-20)
(1.17582 -0.665041 -6.96123e-20)
(1.21522 0.0448012 4.74042e-20)
(0.651716 0.0758287 -8.81496e-21)
(1.01965 -0.0909997 -4.8274e-20)
(1.10261 0.0618231 4.40207e-20)
(0.0895234 0.0231445 2.51263e-20)
(1.02529 -0.180697 -1.07443e-20)
(0.874115 0.0697114 4.30283e-20)
(1.14994 0.0510112 0)
(1.03341 -0.020978 0)
(1.09679 0.00727061 -2.01689e-20)
(1.21189 0.0404738 -4.09262e-20)
(1.06018 -0.0892656 -1.74561e-20)
(1.00546 -0.0181175 0)
(1.00594 -0.0171464 2.01003e-21)
(1.0934 0.057703 2.89367e-21)
(0.198766 0.00994016 2.29398e-20)
(1.08024 0.0127207 0)
(0.0557297 0.0439999 4.20277e-20)
(1.0133 -0.0104515 0)
(0.891323 0.0677555 3.56908e-20)
(1.00163 -0.37712 1.43544e-21)
(-0.242906 0.00936286 0)
(1.19704 -0.0381325 0)
(1.0845 -0.0471598 0)
(1.07386 -0.0209173 0)
(-0.230425 0.0119999 -6.87987e-20)
(1.22641 -0.176665 0)
(1.02578 -0.173684 1.29858e-20)
(1.11014 0.0740086 0)
(1.04767 -0.0369684 0)
(1.23993 -0.440247 0)
(1.09274 0.0583078 2.34616e-20)
(1.12176 0.0657661 0)
(1.11109 -0.0441395 -1.06818e-20)
(1.28253 -0.148817 0)
(0.988495 -0.0189142 -2.90285e-21)
(1.00008 -0.00180961 0)
(0.940894 -0.0229646 1.04477e-20)
(0.986734 -0.00574849 -7.79456e-21)
(0.418365 0.0429282 -7.43271e-21)
(1.00414 -0.000807251 0)
(1.10799 0.0680123 -9.2454e-21)
(0.331624 0.0531695 -3.68719e-20)
(1.20081 -0.039908 1.39207e-20)
(-0.0487983 0.0198045 -4.79013e-22)
(-0.182849 0.0128149 -8.36106e-20)
(1.1229 0.0665848 -1.64416e-20)
(1.23705 -0.246684 -1.43316e-19)
(0.884892 -0.0380738 7.86186e-21)
(0.998595 -0.000686888 5.83495e-21)
(0.983017 -0.017415 -5.56696e-21)
(1.0212 -0.00647977 -3.69797e-21)
(1.03116 -0.0109771 -9.0846e-21)
(1.00106 -0.000566071 -6.23357e-22)
(1.1602 -0.011027 0)
(1.21897 -0.00928423 1.32258e-19)
(0.904071 -0.223747 0)
(1.15335 0.0799775 -4.7022e-20)
(1.02548 -0.065487 5.66189e-22)
(0.246022 0.0391612 1.38183e-22)
(0.999974 -0.000190483 -1.73354e-21)
(-0.157068 -0.0141563 0)
(1.12402 -0.0933395 -4.8835e-20)
(0.999921 -0.000379831 1.00959e-21)
(0.997003 -0.00159726 -6.90307e-21)
(0.393444 0.0492233 0)
(1.08633 -0.0401423 0)
(0.931658 0.0719485 0)
(0.400418 0.0522401 0)
(1.11156 0.019382 0)
(1.13608 0.0247546 -7.58897e-20)
(1.03225 -0.00174978 -4.91792e-21)
(0.287553 0.0621985 0)
(0.986504 -0.0840382 1.16018e-20)
(1.07331 -0.0178924 -1.97542e-21)
(1.11135 0.0678755 0)
(0.998641 -0.00116618 5.51091e-21)
(0.974425 -0.0447423 1.3276e-20)
(1.03699 -0.0118293 0)
(1.09443 0.033129 -2.95454e-21)
(0.177045 0.0112673 3.88279e-20)
(1.09664 -0.0605364 -3.18872e-20)
(1.11205 -0.0386819 0)
(1.26821 -0.167679 0)
(-0.0938667 0.0150346 -1.29101e-19)
(0.886808 -0.0604392 3.22745e-20)
(0.988829 -0.108012 0)
(0.46726 0.0459829 1.37936e-20)
(1.02075 -0.00627899 -4.50399e-21)
(0.456357 0.0451456 -1.30263e-20)
(1.00042 -0.00127572 -9.08117e-22)
(1.06683 -0.0159435 -3.98219e-20)
(1.19496 -0.0144497 -1.66663e-19)
(1.11175 0.0472046 2.13448e-20)
(1.12343 0.0573083 -7.86354e-21)
(1.19794 -0.101087 -8.52056e-20)
(1.13846 -0.0138744 2.0692e-20)
(0.999521 -0.00121612 -5.12358e-21)
(0.999987 -0.00019289 0)
(1.1662 -0.01678 2.1393e-21)
(1.04555 -0.0388496 6.24584e-21)
(0.999635 -0.00101323 0)
(1.07882 0.0167578 0)
(1.25634 -0.208342 0)
(1.00496 -0.00588148 6.1021e-22)
(1.21497 -0.264634 0)
(1.27831 -0.476712 -1.02099e-19)
(0.978932 0.0693331 0)
(1.19642 -0.096278 5.55186e-20)
(-0.0553991 -0.0171415 -8.78645e-20)
(0.838955 -0.0950751 6.84144e-21)
(0.998462 -0.00102403 6.08544e-21)
(1.22948 -0.113562 0)
(1.01273 -0.0109104 -1.67751e-21)
(1.08855 -0.0252811 0)
(0.698087 0.0789898 0)
(0.48985 0.0446762 3.87978e-20)
(0.52221 0.0163872 -3.68121e-20)
(0.506741 0.0498578 0)
(1.02977 -0.0436882 -4.58355e-21)
(1.02576 -0.0425179 0)
(0.980365 -0.28374 4.4429e-22)
(1.00557 -0.0671129 3.00912e-21)
(1.02337 -0.0196898 5.4847e-21)
(0.543567 -0.280126 9.20079e-20)
(1.13186 0.067032 -2.39628e-20)
(0.164191 0.0156861 0)
(1.09113 0.0588378 -4.6167e-20)
(1.11302 0.0476518 0)
(0.985368 -0.00768375 9.83106e-21)
(1.02138 -0.0130899 -3.6254e-22)
(1.28625 -0.335906 0)
(1.14392 0.0350542 -6.93257e-20)
(1.06894 -0.0157403 6.64097e-21)
(0.999802 -0.000366144 0)
(1.12055 0.0578874 -2.34313e-22)
(1.23812 -0.0416638 -8.59159e-20)
(0.066645 0.0449469 -4.20457e-20)
(0.972905 -0.0226886 4.73219e-21)
(1.00097 -0.00352499 0)
(0.159294 0.00937056 -2.09247e-20)
(0.958425 -0.0195353 -1.37199e-20)
(1.11144 -0.0220902 -4.57819e-20)
(1.01286 -0.00850864 0)
(-0.00694453 0.0346739 -1.28711e-19)
(1.01013 -0.000497293 1.22542e-21)
(-0.267117 -0.00247121 0)
(0.994919 -0.00680269 6.68987e-21)
(1.20592 -0.199673 -7.13765e-20)
(1.11653 -0.000557673 -5.54575e-20)
(0.956609 -0.28762 3.51929e-21)
(1.11308 -0.042316 0)
(0.99359 -0.0269981 -3.94532e-21)
(1.07458 -0.0281406 1.0128e-20)
(1.0035 -0.00421925 0)
(1.10558 0.0686055 3.03608e-20)
(0.961654 -0.0286693 2.81213e-20)
(0.297778 0.0184956 2.50624e-20)
(1.04987 -0.0360269 1.34839e-20)
(0.969745 0.0889353 -7.73679e-21)
(0.260409 0.0542527 0)
(1.1067 -0.0489414 -2.24125e-20)
(1.00412 -0.00301972 0)
(-0.188475 -0.012735 1.12757e-19)
(0.742601 0.0633761 0)
(1.08829 -0.0315328 5.86083e-20)
(1.11023 0.0475857 -4.50043e-20)
(0.983026 -0.01647 1.54635e-21)
(0.230813 0.0110267 0)
(1.03435 -0.0216524 -6.74531e-21)
(1.21461 0.0373641 8.08959e-22)
(0.999388 -0.0107403 0)
(1.0038 -0.00440362 0)
(0.971544 0.0749375 6.70839e-21)
(1.11143 -0.015321 0)
(1.00059 -0.00762782 1.36112e-22)
(1.08014 0.0249044 -3.70074e-20)
(0.125067 0.0492788 1.76532e-20)
(0.721495 -0.800134 -8.62596e-22)
(0.547657 0.0788974 -1.46466e-20)
(1.01853 -0.0164638 5.58209e-21)
(0.106713 0.0257354 0)
(0.997666 -0.00961247 0)
(1.00475 -0.00555043 -4.57433e-22)
(0.97426 -0.0256012 0)
(1.02016 -7.18432e-05 0)
(0.999891 -0.00240952 0)
(0.493528 0.0761214 -3.28828e-20)
(0.6662 0.0809961 0)
(1.04769 -0.020707 -6.73806e-21)
(1.00094 -0.000833738 -9.71618e-22)
(1.1276 -0.0297876 0)
(1.01687 -0.0237847 3.16761e-21)
(-0.15762 -0.0168862 -9.92975e-20)
(1.23379 -0.109915 -9.79422e-21)
(0.070907 0.0192074 5.24259e-21)
(-0.0300958 0.0223216 0)
(1.07417 -0.0292935 2.09629e-20)
(1.105 0.0590091 2.97749e-20)
(1.00006 -0.0103743 -4.37723e-21)
(1.11896 0.0031202 -2.69902e-20)
(0.996348 -0.359256 6.68578e-21)
(1.03876 -0.00647429 1.23469e-20)
(1.00036 -0.0012568 0)
(1.309 -0.320344 0)
(-0.270311 0.00699877 -5.0393e-20)
(1.13384 0.0249326 5.26984e-20)
(-0.332896 -0.00169626 7.14772e-20)
(1.1172 0.03377 -2.19175e-20)
(0.995839 -0.00382193 0)
(1.13159 -0.0420816 -3.61322e-20)
(1.10956 0.0482585 4.76737e-20)
(-0.309453 0.00265796 -1.12982e-19)
(1.10394 -0.00504608 -4.03813e-20)
(1.09155 0.0705646 -2.67586e-20)
(1.14637 0.0353385 7.54085e-20)
(1.00023 -0.00245776 0)
(0.338255 -0.109122 5.81628e-20)
(0.240337 -0.0745683 0)
(0.207766 0.0153155 -1.21529e-20)
(1.22636 0.00964175 1.00765e-20)
(0.919853 0.071803 2.14e-20)
(0.980357 -0.0739711 1.39198e-20)
(0.728119 -0.358906 -2.96325e-20)
(0.972426 -0.00592298 4.61362e-21)
(1.15958 0.0837307 0)
(1.05906 -0.085864 0)
(1.00826 -0.00159015 -1.57496e-21)
(0.500297 0.0773179 -6.91703e-20)
(1.02162 -0.0646261 2.54618e-21)
(1.00403 -0.00277166 1.91678e-22)
(1.01412 -0.0419786 1.73204e-22)
(1.02014 -0.0628585 -2.19463e-21)
(-0.0367291 0.0319907 1.22108e-19)
(1.20536 0.0443569 0)
(1.01265 -0.0152956 -1.2308e-21)
(1.13359 -0.0392788 3.7315e-20)
(0.0354164 0.0163964 -6.92793e-20)
(1.03975 -0.0590938 -6.20104e-21)
(-0.347513 0.000298436 7.8989e-20)
(0.958198 -0.0457976 1.81212e-20)
(1.11762 0.0432857 -2.93248e-20)
(0.0796089 0.047621 -4.06547e-20)
(1.00139 -0.00726602 -2.20848e-21)
(1.0975 0.0683978 -2.50144e-21)
(1.06933 -0.101321 7.5577e-21)
(1.10987 -0.0499788 1.42001e-22)
(0.675582 -0.828609 -2.57723e-20)
(1.02408 -0.0639277 0)
(1.26922 -0.0835528 -1.02491e-19)
(1.09097 0.0476827 0)
(0.166468 0.0543231 5.07657e-20)
(1.04831 -0.00401102 -1.21244e-20)
(0.2537 0.0153945 0)
(1.10362 -0.0274782 -3.83874e-20)
(0.0298481 0.0250168 0)
(-0.304071 0.00481685 2.07125e-19)
(0.230759 0.0116936 2.40225e-20)
(1.10913 0.0220036 3.06898e-20)
(0.990571 -0.0254698 1.40592e-20)
(1.02913 -0.04491 7.63779e-21)
(0.999971 -0.00128111 5.2766e-21)
(1.08042 0.0358266 3.72209e-20)
(0.997013 -0.00347871 0)
(0.143826 0.0484477 0)
(1.03145 -0.118315 -7.01956e-21)
(0.926265 -0.0908592 -2.02616e-20)
(0.889663 -0.0570199 -7.30312e-20)
(0.982418 -0.0725694 -2.27014e-20)
(1.01809 -0.0158814 -1.47526e-21)
(1.06838 0.0194004 1.9542e-20)
(1.0662 -0.0868437 -1.09664e-20)
(1.06641 -0.00885478 0)
(1.04564 -0.0986759 1.21089e-20)
(0.28181 0.0540453 1.28108e-19)
(1.10311 0.0694458 1.99779e-20)
(1.10052 -0.018693 1.82079e-20)
(1.11768 -0.153626 -1.05304e-20)
(0.530728 0.0766662 4.86357e-20)
(0.971707 -0.0442884 5.28785e-21)
(-0.128856 -0.000479145 0)
(1.02013 -0.00628704 0)
(1.03279 -0.142823 0)
(0.959846 -0.0273763 -1.60341e-20)
(1.02451 -0.0289254 -6.45227e-21)
(1.08158 -0.167853 0)