/*--------------------------------*- C++ -*----------------------------------*\
| =========                 |                                                 |
| \\      /  F ield         | OpenFOAM: The Open Source CFD Toolbox           |
|  \\    /   O peration     | Version:  v2012                                 |
|   \\  /    A nd           | Website:  www.openfoam.com                      |
|    \\/     M anipulation  |                                                 |
\*---------------------------------------------------------------------------*/
FoamFile
{
    version     2.0;
    format      ascii;
    class       surfaceVectorField;
    location    "1000";
    object      Uf_0;
}
// * * * * * * * * * * * * * * * * * * * * * * * * * * * * * * * * * * * * * //

dimensions      [0 1 -1 0 0 0 0];


internalField   nonuniform List<vector> 
20580
(
(1.14253 0.0531033 -1.69087e-20)
(1.14273 0.0556039 -3.69676e-20)
(1.14034 0.0537232 -1.86169e-20)
(1.07431 -0.0234035 -1.66591e-20)
(1.07484 -0.0245304 -7.70569e-21)
(1.07622 -0.0233143 -1.67135e-20)
(1.07357 -0.0217505 7.39157e-21)
(1.07218 -0.023031 8.13272e-21)
(-0.195813 -0.00910693 0)
(-0.171745 -0.0122195 0)
(-0.195054 -0.0100717 0)
(1.0022 -0.000559258 -2.29115e-23)
(1.00198 -0.000517001 3.06716e-22)
(1.00207 -0.000308007 3.08953e-22)
(1.08615 -0.0371756 3.63324e-22)
(1.08595 -0.0393739 0)
(1.08376 -0.0381379 -1.20114e-20)
(1.06091 0.0135289 -3.41595e-21)
(1.06137 0.014543 6.85128e-21)
(1.01407 -0.000887478 0)
(1.01375 -0.000905607 1.10786e-21)
(1.01302 -0.000558905 0)
(0.264817 0.0403315 5.92157e-23)
(0.27037 0.0402259 1.07939e-20)
(0.24322 0.0367542 -1.06189e-20)
(0.99085 -0.00928135 -6.90642e-21)
(0.991246 -0.0085766 1.42381e-21)
(0.99166 -0.00915733 0)
(1.1706 -0.101344 1.85703e-20)
(1.16517 -0.101344 1.10156e-22)
(1.16834 -0.106457 -7.23903e-22)
(1.00133 -0.00856374 -3.1462e-21)
(1.00151 -0.00890367 9.41668e-22)
(1.00136 -0.00898865 -4.90319e-22)
(0.98087 -0.0209031 -2.13394e-21)
(0.980507 -0.0218491 5.62434e-22)
(0.981699 -0.0214583 -1.78316e-21)
(0.0616943 0.016524 0)
(0.049103 0.0140653 3.66109e-21)
(0.0664825 0.0187694 2.89279e-21)
(1.10557 0.0117489 8.74543e-21)
(1.10744 0.0119383 -1.56461e-20)
(1.10622 0.0101663 6.00019e-21)
(1.09733 0.0633288 -2.34398e-21)
(1.09652 0.0635049 6.29121e-22)
(1.09712 0.0641843 3.15034e-21)
(-0.302127 -0.00119401 -3.82231e-20)
(-0.322764 -0.000323223 3.73417e-20)
(-0.312301 0.00241026 8.01836e-20)
(1.03643 -0.0195331 -3.53569e-21)
(1.03738 -0.0195319 3.99954e-21)
(1.03705 -0.0204736 -5.46257e-22)
(1.21045 0.0485286 0)
(1.21365 0.0465818 2.5349e-20)
(1.20861 0.0513162 -2.51366e-20)
(1.14465 0.052439 3.14824e-21)
(1.14232 0.0510242 5.37344e-20)
(1.11982 0.00640725 2.02282e-20)
(1.11894 0.00438281 -1.5974e-21)
(1.11728 0.00636682 -5.63145e-21)
(1.04307 -0.0945246 -5.45626e-21)
(1.03967 -0.0949392 0)
(1.04132 -0.0913759 0)
(0.678402 -0.331354 0)
(0.529499 -0.266741 4.71046e-20)
(0.392941 -0.20416 2.42355e-20)
(1.00006 -0.000208709 -2.1349e-23)
(1.0001 -0.000275376 -9.00411e-22)
(1.00006 -0.000175477 -1.7267e-21)
(1.1437 -0.0196033 2.23575e-20)
(1.13042 -0.0205818 4.50025e-20)
(1.0272 -0.0111361 -5.93456e-21)
(1.09266 0.0485755 -1.7937e-20)
(1.09262 0.0494934 1.23318e-20)
(1.09363 0.0491044 -1.54576e-20)
(1.10657 0.0704937 -3.34345e-20)
(1.11086 0.0717276 -1.37485e-20)
(1.10913 0.070785 1.77651e-21)
(1.12838 0.0816156 -3.98357e-20)
(1.13544 0.080689 -2.34705e-20)
(1.06963 0.0833074 5.22637e-22)
(0.408812 0.0408516 3.79009e-23)
(0.385295 0.0390217 1.47193e-20)
(0.376768 0.0380647 -1.37537e-20)
(1.02186 -0.0124865 0)
(1.02149 -0.0128969 -2.06475e-22)
(1.0212 -0.0122253 2.89957e-22)
(-0.0933326 -0.00859285 1.38164e-19)
(-0.120805 -0.00830023 1.30323e-19)
(-0.0778947 -0.00853545 -2.51248e-20)
(1.06167 0.0130678 1.99122e-20)
(1.06038 0.0128205 1.04645e-20)
(1.13492 0.055441 1.89417e-21)
(1.13312 0.0559705 1.85412e-21)
(1.13366 0.0537312 2.00563e-20)
(0.313456 0.0643797 -2.69915e-21)
(0.303861 0.0640784 1.94735e-20)
(0.356144 0.0686777 1.81522e-20)
(1.13373 -0.0871695 6.43042e-21)
(1.13506 -0.083474 3.99228e-20)
(1.13724 -0.087946 -1.42049e-20)
(0.409141 0.0404926 0)
(0.440101 0.0432284 -6.68347e-21)
(0.417444 0.0403696 0)
(1.00002 -0.000136437 1.52419e-23)
(1.00006 -0.000249944 8.57133e-22)
(1.20757 -0.152567 -1.68556e-21)
(1.11076 -0.136906 7.44167e-21)
(1.08791 -0.128621 -6.09364e-21)
(-0.046145 0.0148574 -1.96571e-20)
(-0.0316451 0.0159663 -2.26139e-20)
(-0.00106724 0.0158741 -1.94522e-20)
(1.00686 -0.0397786 -3.36257e-21)
(1.00761 -0.0388574 1.56646e-21)
(1.00805 -0.0401642 2.23651e-21)
(0.140814 0.0522303 -1.2369e-20)
(0.183516 0.0571244 8.86326e-21)
(0.150872 0.053459 -4.77994e-20)
(0.431633 0.0435068 -1.42245e-22)
(0.440813 0.0438031 -1.42403e-20)
(-0.278106 0.0007155 -5.26245e-20)
(-0.280785 -0.000379779 8.71424e-20)
(1.10174 -0.474065 1.55114e-20)
(1.09217 -0.480786 1.06647e-21)
(1.08794 -0.487277 2.22101e-20)
(0.455314 0.0477318 2.96855e-21)
(0.445821 0.0471084 0)
(0.419231 0.0435243 0)
(1.01582 -0.0236852 -6.80002e-22)
(1.01507 -0.0237312 -3.29931e-22)
(1.01533 -0.0228615 4.40447e-22)
(1.02013 2.06926e-05 0)
(1.01992 5.63687e-05 3.22859e-21)
(1.10379 0.060799 -1.6737e-20)
(1.10345 0.0615184 1.38126e-20)
(1.1031 0.0605938 2.17955e-21)
(1.04856 -0.0600388 0)
(1.04661 -0.0581255 2.73627e-21)
(1.04928 -0.0580043 0)
(0.98124 -0.0197898 1.53219e-20)
(0.979825 -0.0201467 0)
(-0.254935 0.00973926 -5.66645e-20)
(-0.252758 0.00902749 -1.69994e-20)
(-0.28937 0.0071444 -1.76732e-20)
(0.973121 -0.0141798 0)
(0.974323 -0.0142625 0)
(0.973517 -0.0154415 -1.14035e-20)
(1.0981 0.0631614 1.41364e-20)
(1.09724 0.0625935 8.408e-21)
(1.07854 0.0241214 1.62498e-20)
(1.07969 0.0247097 -8.55639e-21)
(1.07852 0.0253605 1.23256e-20)
(0.110349 0.0122258 -2.13611e-20)
(0.128846 0.015676 1.13845e-20)
(0.105441 0.0121419 2.73136e-20)
(1.0063 -0.0407443 -3.2426e-21)
(1.0058 -0.0393572 -4.62555e-21)
(1.13566 0.0576901 0)
(1.13695 0.0551427 1.3463e-22)
(0.128172 0.0515601 3.04805e-20)
(0.103855 0.0454131 2.05212e-21)
(1.10698 0.0672618 2.98229e-20)
(1.11244 0.0673514 -2.87007e-21)
(1.11381 0.0672882 1.85163e-20)
(-0.0671923 0.0154704 0)
(-0.056303 0.0158976 0)
(-0.0438916 0.0189793 -2.41487e-20)
(1.00118 -0.00821803 -3.2216e-22)
(1.0013 -0.00814786 -7.62128e-22)
(1.10466 0.0698826 4.26149e-21)
(1.10537 0.0705796 -1.94036e-20)
(0.995605 -0.00324947 4.08099e-21)
(0.995693 -0.00367651 0)
(0.995194 -0.0037103 0)
(1.04762 -0.0615623 -5.13935e-21)
(1.05009 -0.0612195 -2.11811e-21)
(0.865573 -0.460343 -1.33478e-20)
(0.889926 -0.455414 -8.71488e-21)
(0.873382 -0.438254 1.35847e-20)
(0.839233 -0.464626 8.75565e-21)
(0.858565 -0.489549 -5.05275e-21)
(-0.078993 0.0117459 -3.34851e-20)
(-0.0946622 0.0104791 0)
(0.699666 -0.123855 0)
(0.69321 -0.140202 0)
(1.02241 -0.0412888 9.74585e-22)
(1.02119 -0.0415306 1.00043e-21)
(1.02165 -0.0401826 -2.13881e-22)
(-0.142373 -0.0114674 -5.63581e-21)
(-0.171894 -0.00803127 9.44892e-21)
(-0.160349 -0.00909838 -2.37261e-20)
(-0.153229 -0.00205129 -1.21829e-20)
(-0.183371 -0.000581706 8.33792e-20)
(-0.154909 -0.00336871 6.5258e-20)
(1.12777 0.0101175 1.92642e-20)
(1.12913 0.00850051 1.86012e-20)
(1.1302 0.0108433 -1.23557e-20)
(0.994754 -0.0277958 -1.46434e-21)
(0.993919 -0.027469 1.00683e-21)
(0.99413 -0.0286355 9.2304e-21)
(-0.0495643 0.0162303 0)
(-0.0781855 0.0106078 0)
(1.08603 0.0227669 -6.71814e-21)
(1.0856 0.0215229 -1.09579e-21)
(1.087 0.0219299 3.04147e-21)
(1.02329 -0.0775118 -4.71176e-24)
(1.02088 -0.0762639 2.20077e-22)
(1.02305 -0.0746453 -1.70294e-22)
(-0.285727 -0.00127045 -2.08992e-20)
(-0.270901 -0.000790615 1.39084e-20)
(1.02221 -0.0060876 1.38436e-21)
(1.02204 -0.00647282 -5.34496e-22)
(1.02276 -0.00643218 3.62114e-21)
(1.1509 -0.0168063 8.21086e-20)
(1.23845 -0.0274458 -3.3679e-20)
(1.00564 -0.0191269 -1.26876e-21)
(1.00543 -0.0184547 -6.59183e-22)
(1.00509 -0.0188268 1.22104e-21)
(1.02375 -0.0413247 0)
(1.02307 -0.0427355 -1.56864e-21)
(1.27259 -0.0967487 -3.47709e-21)
(1.27298 -0.0914765 5.31309e-20)
(1.27753 -0.0967519 2.91856e-21)
(1.12985 -0.0869133 1.83925e-20)
(1.13168 -0.0912274 0)
(0.0405375 0.0156851 1.14843e-20)
(0.0497795 0.0162063 1.77124e-20)
(0.0627956 0.0204724 6.95299e-21)
(-0.0449015 0.0154945 0)
(-0.0272287 0.0197761 -3.11875e-22)
(-0.135709 -0.00531666 0)
(-0.127936 -0.00535806 -5.56921e-20)
(-0.0975382 -0.0076377 0)
(1.04519 -0.0971626 2.44158e-21)
(1.04617 -0.0935879 5.71825e-22)
(0.210119 0.0119309 1.00841e-20)
(0.184893 0.00867115 1.04691e-20)
(0.212094 0.0125176 -9.11556e-21)
(0.991652 -0.0132151 7.02247e-22)
(0.992124 -0.0136477 -1.23748e-20)
(0.9922 -0.0127973 -1.55698e-20)
(-0.0768708 -0.0101694 -5.90437e-21)
(-0.114171 -0.00692603 7.79693e-21)
(0.971119 -0.0141867 0)
(0.972496 -0.0124554 -9.54724e-21)
(1.06247 0.0125804 -2.67419e-21)
(1.06285 0.0134969 4.1096e-21)
(-0.286621 0.00312387 4.85827e-20)
(-0.287537 0.00119977 4.30502e-20)
(-0.145451 -0.00557827 8.78983e-20)
(-0.169441 -0.00437771 0)
(-0.0625752 0.026761 2.4008e-20)
(-0.078225 0.0225633 1.10911e-19)
(-0.0968724 0.0209933 5.67595e-20)
(1.09337 -0.451433 1.23554e-20)
(1.08449 -0.432943 1.51274e-20)
(1.07179 -0.445238 1.38153e-20)
(1.01072 -0.0249804 -1.03585e-21)
(1.01001 -0.0249947 -5.2277e-22)
(1.01072 -0.0258237 -4.34799e-22)
(1.10128 0.0625359 0)
(1.10045 0.0627692 1.02394e-21)
(1.10056 0.0619942 0)
(-0.190016 0.0127269 7.03231e-20)
(-0.187612 0.0117344 -1.27962e-20)
(-0.22034 0.00789935 2.95965e-20)
(1.21835 -0.198574 7.39404e-20)
(1.22637 -0.199055 -8.59398e-21)
(1.22166 -0.206178 7.84117e-20)
(1.10204 0.062554 -2.03454e-20)
(1.10145 0.0633534 0)
(0.807945 -0.125859 1.62313e-20)
(0.80616 -0.11531 1.71075e-20)
(0.81714 -0.119923 1.74762e-20)
(0.815319 -0.15894 -1.63174e-20)
(0.813328 -0.147285 -3.79435e-20)
(0.802346 -0.155672 2.25079e-20)
(0.989731 -0.0292232 -3.85384e-21)
(0.990715 -0.029504 5.43131e-21)
(0.989929 -0.0306449 6.87799e-21)
(1.01874 -0.0230361 2.05456e-21)
(1.01934 -0.0238368 -6.02939e-22)
(1.01937 -0.0229044 5.65209e-22)
(1.13402 -0.00561281 4.82607e-21)
(1.13566 -0.00732644 9.37273e-21)
(1.13663 -0.00418513 -2.67976e-20)
(1.01815 -0.022187 -2.39603e-21)
(1.0179 -0.0231641 4.58576e-22)
(-0.151415 -0.00268661 -8.20608e-20)
(-0.120707 -0.00493727 -8.80634e-20)
(1.06188 0.011647 -1.10132e-20)
(1.0633 0.0119716 -9.28156e-21)
(1.03559 -0.0195649 3.60058e-21)
(1.0359 -0.0187686 3.84615e-21)
(1.02949 -0.131048 -4.51771e-21)
(1.03164 -0.135485 -1.88304e-21)
(1.0263 -0.134408 -1.86317e-21)
(1.01659 -0.0237446 2.685e-21)
(1.0165 -0.0246199 5.31403e-22)
(1.2255 -0.0180738 0)
(1.22444 -0.0140516 -2.09104e-20)
(1.22901 -0.0164217 -2.94063e-20)
(1.1707 -0.0453312 -2.08176e-20)
(1.16716 -0.0440913 8.67376e-21)
(1.16775 -0.0479465 0)
(1.12271 0.0578143 5.30629e-21)
(1.12124 0.0580228 7.19193e-21)
(1.12228 0.0594033 2.92253e-20)
(1.07742 0.0234657 0)
(1.07848 0.0228669 -1.40102e-21)
(1.01502 -0.00823582 -3.13765e-21)
(1.01481 -0.00848294 -9.41241e-22)
(1.01539 -0.00858422 8.41409e-22)
(1.01444 -0.000781477 0)
(1.0145 -0.00119236 0)
(-0.219169 -0.00608028 0)
(-0.19955 -0.0097423 0)
(-0.11755 -0.0140346 4.69912e-20)
(-0.104935 -0.0146238 -1.02971e-20)
(1.11431 -0.361143 0)
(1.10517 -0.371517 1.5198e-20)
(1.12019 -0.372539 0)
(1.03054 -0.0166074 6.26141e-21)
(1.0295 -0.016571 7.58499e-21)
(1.02988 -0.0158863 -1.5733e-21)
(1.01639 -0.0412169 -1.39403e-22)
(1.01748 -0.0419034 -6.11416e-22)
(1.01645 -0.0426623 -3.66459e-22)
(0.0554898 0.0311679 0)
(0.0747112 0.0352809 1.50294e-20)
(0.0515734 0.0318822 -2.55457e-20)
(1.18288 0.0548361 -8.70551e-21)
(1.1862 0.0546195 3.22339e-20)
(1.18624 0.0578099 -3.32867e-20)
(0.603134 -0.203654 4.50135e-20)
(0.626284 -0.196564 -5.14234e-20)
(0.622511 -0.226298 -5.43187e-20)
(1.01156 -0.0251968 -7.49051e-23)
(1.01089 -0.0241655 -2.75971e-22)
(1.13719 -0.156908 0)
(1.13521 -0.150648 -1.87672e-20)
(1.13173 -0.156359 2.37367e-20)
(0.197527 0.0551745 -2.82706e-20)
(0.16258 0.0510879 -1.38104e-20)
(0.189687 0.0546327 1.5412e-22)
(1.11701 0.0170907 -4.76536e-21)
(1.11844 0.0185769 2.34874e-20)
(1.11844 0.0159763 1.87346e-20)
(1.03632 -0.0945682 -3.42886e-21)
(1.03778 -0.0978854 0)
(1.10331 -0.0686444 6.56182e-21)
(1.10457 -0.0653138 0)
(1.10087 -0.0666003 1.03643e-20)
(1.31587 -0.170541 -2.71137e-20)
(1.30364 -0.159919 5.62451e-20)
(0.330401 0.0647425 -2.01031e-20)
(0.282646 0.0610369 -1.92968e-20)
(1.17518 -0.102212 1.5508e-20)
(1.17229 -0.0977148 -1.61134e-20)
(-0.063834 0.0221694 2.42299e-22)
(-0.092121 0.0219971 7.27593e-23)
(-0.10182 0.0206065 -3.41049e-20)
(0.716729 -0.122072 2.7922e-20)
(-0.125096 -0.00499614 1.85983e-20)
(-0.154654 -0.00335049 4.15334e-20)
(0.853111 -0.0948371 1.24186e-20)
(0.843806 -0.093487 3.76789e-20)
(0.848782 -0.0862253 -7.82377e-21)
(1.11415 0.0200206 0)
(1.11226 0.0194325 0)
(1.11291 0.0214613 1.30603e-21)
(1.27246 -0.102917 6.65931e-20)
(1.26729 -0.0974811 -5.16427e-20)
(0.974929 -0.0477922 -1.67389e-20)
(0.975015 -0.0456742 -5.96185e-21)
(0.976811 -0.0464665 -9.74017e-21)
(0.991108 -0.012854 7.14541e-21)
(0.991023 -0.0137919 6.38941e-21)
(0.745119 -0.303301 1.93489e-20)
(0.728254 -0.317822 6.2676e-20)
(0.751702 -0.321283 -1.59384e-20)
(1.12999 0.019931 3.95989e-20)
(1.05353 0.0213745 3.58951e-20)
(1.05106 0.0253 -1.42548e-20)
(1.00974 -0.073472 5.94548e-22)
(1.00946 -0.0755566 -1.6657e-21)
(1.00724 -0.074398 1.86415e-21)
(1.02234 -0.00570831 -2.88533e-21)
(1.0217 -0.00581071 4.2706e-22)
(-0.157035 -0.00524245 -1.50168e-21)
(0.259074 0.0278826 6.63306e-21)
(0.261459 0.0299471 6.12005e-21)
(0.236425 0.0250707 -2.36955e-21)
(1.14048 -0.161517 1.98824e-20)
(1.14282 -0.155871 0)
(1.10247 0.0620167 6.35589e-21)
(1.10277 0.062798 -1.61148e-20)
(1.22654 -0.0229018 4.77497e-20)
(1.22156 -0.0202831 -2.83062e-20)
(1.17407 -0.0465785 -1.96497e-20)
(1.17341 -0.042707 2.15794e-20)
(1.19995 0.0464428 0)
(1.20306 0.0444582 0)
(1.19935 0.0426692 0)
(0.972827 -0.0236603 2.37055e-21)
(0.97354 -0.0250816 0)
(0.971728 -0.0252335 0)
(0.983818 -0.0109535 1.06885e-21)
(0.983207 -0.0103051 -4.27558e-21)
(0.984204 -0.0100293 -1.34247e-20)
(1.00147 -0.00696792 1.90613e-21)
(1.00139 -0.00710659 -2.22015e-22)
(1.00128 -0.00662921 3.1991e-21)
(-0.0588654 0.0136473 1.52085e-20)
(-0.0825973 0.0115199 -2.37452e-20)
(1.11158 0.0163684 -1.38432e-21)
(1.1114 0.0181474 -2.36678e-21)
(1.11029 0.0168805 6.99572e-21)
(1.06368 0.00273465 3.93453e-21)
(1.06431 0.00335751 9.5864e-21)
(1.06484 0.00243675 -1.9768e-21)
(1.00012 -0.000501886 -8.62491e-23)
(1.00013 -0.000440362 3.12449e-22)
(1.00019 -0.000596252 -6.52964e-24)
(0.396534 0.0381107 -1.46087e-21)
(0.390209 0.0389613 -7.09512e-21)
(0.423697 0.0414897 -1.10546e-20)
(1.13286 -0.00301747 0)
(1.13115 -0.00621915 0)
(1.10424 0.060014 -3.30678e-20)
(1.10469 0.0609525 -1.93176e-20)
(0.0743097 0.0178568 0)
(0.055426 0.0128673 0)
(0.35065 0.0481137 6.56013e-21)
(0.323833 0.0454642 1.37735e-20)
(0.35633 0.0467168 1.35521e-20)
(0.340581 0.0479345 1.23275e-20)
(0.381231 0.0512926 8.8211e-21)
(-0.259744 0.00959816 1.60026e-20)
(-0.22954 0.0119023 -3.67966e-20)
(1.03266 -0.12761 -4.60987e-22)
(1.02769 -0.126633 -1.20866e-21)
(0.677658 0.0792532 1.06474e-20)
(0.689702 0.0794048 -2.46248e-21)
(0.606327 0.0757829 2.84494e-20)
(1.00102 -0.00789992 -1.45404e-21)
(1.00089 -0.0075675 -4.50158e-22)
(1.00099 -0.0074847 -1.95479e-21)
(1.01531 -0.00796331 -4.52788e-21)
(1.01469 -0.00782128 -1.90348e-21)
(1.15121 -0.00712807 3.01182e-20)
(1.15244 -0.00985863 3.01654e-21)
(1.14924 -0.00961524 -4.03543e-20)
(1.00121 -0.000402813 -2.72698e-22)
(1.00109 -0.000514508 -3.20589e-22)
(1.00102 -0.000338112 -4.67729e-23)
(-0.0517929 0.0287995 -2.49921e-20)
(-0.0253833 0.0290444 -5.66027e-20)
(1.12461 0.079274 0)
(1.12133 0.0771195 -2.35475e-20)
(1.12189 0.0785528 -3.64108e-21)
(1.10724 0.0625801 0)
(1.10807 0.0627943 -1.41594e-20)
(1.10703 0.0634997 -1.08274e-20)
(1.01558 -0.00772692 -1.99392e-21)
(1.01589 -0.00809556 -8.70456e-22)
(1.08413 0.0242347 -8.40623e-21)
(1.08513 0.0234646 1.2763e-21)
(1.08366 0.0230892 1.46092e-20)
(1.10635 0.0625789 -2.17205e-21)
(1.1069 0.0617758 1.49896e-20)
(1.17979 0.056212 -7.05369e-20)
(1.18062 0.0524348 -6.663e-20)
(1.11718 -0.459968 1.84713e-20)
(1.03531 -0.123983 -3.19813e-23)
(1.03336 -0.119862 -2.23227e-21)
(1.0377 -0.120345 -2.20237e-21)
(1.11532 0.0187515 -4.98487e-21)
(1.11482 0.0162707 1.27106e-21)
(-0.295771 -0.00100846 1.36869e-20)
(-0.292814 0.00063955 5.15214e-21)
(0.276635 0.03082 -3.00824e-21)
(0.253641 0.0257304 -3.1582e-21)
(1.13149 0.0560798 0)
(1.1324 0.0577948 -2.13214e-20)
(0.892532 -0.0691645 1.75366e-20)
(0.888205 -0.0651112 3.29362e-20)
(0.887042 -0.0718003 7.93003e-22)
(0.977106 -0.0261145 -4.44163e-21)
(0.976637 -0.0248998 0)
(0.978053 -0.0248955 0)
(1.01964 -0.0168195 -1.06317e-21)
(1.0197 -0.0175049 8.93088e-22)
(1.02046 -0.0171617 0)
(1.20306 0.0132149 7.56162e-21)
(1.1997 0.0200956 4.1791e-20)
(1.113 0.0155699 7.93208e-21)
(1.11124 0.0145202 -1.97227e-20)
(0.0383807 0.011998 -2.49623e-20)
(0.0283872 0.0103298 3.44874e-21)
(1.08573 -0.0347281 1.3691e-20)
(1.08806 -0.0358847 -2.66036e-20)
(1.00992 -0.0710709 0)
(1.01221 -0.0724636 0)
(1.09975 0.0629103 -1.0183e-20)
(1.09888 0.0630276 9.19802e-21)
(1.09896 0.0622519 7.07085e-22)
(1.12994 0.0559 4.15124e-20)
(1.13063 0.0541429 0)
(1.04719 -0.0102547 -7.15622e-21)
(1.04823 -0.0106606 -2.72296e-21)
(1.0473 -0.0112139 2.10407e-22)
(1.04385 -0.0287796 7.8166e-22)
(1.04247 -0.0288005 -4.41514e-21)
(1.04311 -0.0277219 -4.54906e-21)
(0.699679 -0.154124 -2.81106e-20)
(0.720384 -0.158017 -4.88007e-21)
(0.709197 -0.171456 -2.46352e-20)
(1.27282 -0.108201 -3.70691e-21)
(1.27241 -0.114304 -3.64009e-20)
(1.26714 -0.109395 -7.34118e-20)
(-0.0293389 0.0357109 -6.56828e-21)
(-0.00999852 0.037351 2.50443e-20)
(0.00462355 0.0389331 -5.47524e-21)
(0.101743 0.0505852 -1.99943e-21)
(0.089157 0.0495059 7.00317e-21)
(0.136741 0.0539417 1.6497e-20)
(1.1037 0.0114638 1.61697e-20)
(1.10468 0.0133182 -1.10573e-20)
(0.92871 -0.71097 0)
(0.926757 -0.764637 -1.05975e-20)
(0.978213 -0.763235 0)
(-0.0585758 0.033769 1.74842e-20)
(-0.044132 0.0349378 -6.98587e-21)
(0.936776 -0.0243758 -7.37656e-21)
(0.939207 -0.0231891 5.01794e-21)
(0.93656 -0.0213249 0)
(1.10524 0.0274767 -3.91997e-21)
(1.10613 0.0264248 1.58416e-20)
(1.10452 0.0265717 -3.8788e-21)
(0.249863 0.0404701 -1.01652e-22)
(0.269939 0.0435894 1.00864e-22)
(0.239195 0.0398919 -5.36536e-21)
(1.07965 -0.0454667 6.18917e-21)
(1.08089 -0.0468127 5.61237e-21)
(1.07848 -0.0471853 -2.01956e-21)
(1.09578 0.0637628 -3.06765e-21)
(1.09493 0.0641578 1.5489e-20)
(1.09561 0.0646514 1.03003e-20)
(1.01559 -0.0408631 8.90851e-23)
(1.0163 -0.0403514 5.99081e-23)
(1.27748 -0.107283 5.43514e-20)
(1.0001 -0.0020278 0)
(1.00015 -0.00236104 0)
(1.00013 -0.00242483 0)
(1.13748 -0.0796226 -1.36745e-20)
(1.13945 -0.0767966 -3.92428e-20)
(1.14087 -0.0814583 -3.82322e-20)
(1.02535 -0.0831685 7.63095e-22)
(1.02789 -0.0835478 8.63231e-22)
(1.0264 -0.0858413 1.97081e-21)
(0.981868 -0.0187262 2.76321e-21)
(0.982583 -0.0195046 1.82977e-20)
(1.15243 0.0636269 3.26662e-20)
(1.15166 0.0655997 1.574e-20)
(1.15385 0.065007 -5.15453e-22)
(1.04745 -0.0202698 -3.80035e-21)
(1.04633 -0.0195997 0)
(1.04764 -0.0190493 -1.06685e-20)
(0.177744 -0.542909 1.11269e-20)
(0.133304 -0.58817 1.08295e-20)
(1.01531 -0.00728914 2.54369e-21)
(1.01593 -0.00747832 2.34231e-21)
(1.14662 0.0517651 -6.08414e-21)
(1.14872 0.0508875 1.57282e-20)
(1.14648 0.0495573 1.96707e-20)
(0.0332266 0.0154778 -3.02262e-20)
(0.0167148 0.011898 -1.79766e-22)
(-0.0788648 0.0224073 9.52252e-21)
(-0.0864215 0.0226883 -3.4337e-20)
(-0.0453878 0.0244616 -5.28199e-20)
(0.898621 -0.078071 -4.30676e-20)
(0.903906 -0.0765366 -1.0568e-21)
(0.902309 -0.0824218 5.62656e-22)
(1.10424 0.0285717 0)
(1.1058 0.0284877 1.0569e-20)
(1.00005 -0.00135346 1.67842e-21)
(1.00002 -0.00101927 3.67067e-23)
(1.00003 -0.00103492 1.9495e-21)
(0.755202 -0.289373 -1.99725e-20)
(0.735282 -0.283256 -4.84065e-20)
(1.00176 -0.014284 -1.71214e-22)
(1.00176 -0.0136486 4.02497e-21)
(1.00209 -0.0141263 -1.73313e-21)
(1.13371 -0.0785616 5.55935e-20)
(-0.00348556 -0.0342108 -6.62899e-20)
(-0.0686706 -0.0282254 -2.03523e-20)
(-0.0464118 -0.0309081 8.83846e-20)
(0.895683 -0.0742852 -3.08555e-20)
(0.897493 -0.0678191 1.17571e-20)
(1.07802 -0.0436345 -4.86939e-21)
(1.08061 -0.0431387 0)
(0.996519 -0.00135754 -1.28969e-23)
(0.996151 -0.00168053 -3.73545e-21)
(0.0714283 0.0472166 -7.66105e-21)
(0.109795 0.0497225 1.16673e-20)
(1.02263 -0.0126519 -2.78766e-22)
(1.02219 -0.0119687 0)
(0.863146 -0.406582 0)
(0.995563 -0.484014 5.1544e-20)
(0.0814021 0.0480821 0)
(0.0709942 0.0463701 2.20997e-20)
(0.11396 0.0505395 0)
(1.21006 -0.197766 -3.05812e-21)
(1.21509 -0.190861 3.53844e-20)
(1.00012 -0.000560147 -9.18881e-23)
(1.00007 -0.000404451 -1.02128e-21)
(1.28259 -0.335342 0)
(1.30467 -0.333593 0)
(1.31079 -0.347971 0)
(-0.0385091 0.0149456 0)
(-0.0304451 0.0150148 -2.31673e-20)
(-0.0149878 0.0202246 3.50354e-22)
(0.49458 0.0511586 -5.19656e-22)
(0.463618 0.0477624 -8.34657e-21)
(1.0956 0.0630834 -1.70277e-20)
(1.11022 -0.0117645 5.9721e-21)
(1.11061 -0.0141628 -1.77876e-20)
(1.10805 -0.0126658 -1.88793e-20)
(0.718137 -0.352491 -1.78503e-20)
(0.711402 -0.332969 2.4235e-20)
(0.693279 -0.347878 -4.12739e-21)
(1.15136 0.0622458 -2.45066e-20)
(1.15348 0.061585 1.88851e-20)
(1.08445 0.0253978 -1.7359e-20)
(1.08302 0.0249718 3.77027e-21)
(1.09566 -0.421578 7.77791e-23)
(1.07868 -0.418161 1.69606e-20)
(1.051 -0.137057 -1.33165e-21)
(1.04615 -0.137035 1.04543e-20)
(1.04873 -0.133014 5.67181e-21)
(0.163825 0.0118964 -2.04467e-20)
(0.145487 0.0103222 1.54388e-20)
(0.14553 0.00921118 -8.32571e-21)
(1.17452 0.0357995 2.17965e-21)
(1.1719 0.0379736 -1.03786e-19)
(1.17185 0.033903 -7.01551e-20)
(1.01042 -0.000593802 1.68938e-21)
(1.01101 -0.000843258 -1.36781e-22)
(1.01053 -0.00125918 1.72508e-21)
(1.08623 -0.013842 -1.52283e-20)
(1.08429 -0.0135736 7.62653e-21)
(1.08492 -0.0153681 -5.40069e-21)
(1.10012 0.063562 8.76591e-21)
(0.397229 0.0375141 1.29153e-20)
(0.37195 0.036704 1.11884e-20)
(0.267391 0.0136737 -4.96773e-21)
(0.286859 0.0168076 6.80456e-21)
(0.275554 0.0141721 -1.7111e-20)
(1.01897 -0.0164682 1.71176e-21)
(1.01962 -0.0162602 -9.7487e-22)
(0.584312 -0.217323 7.53206e-20)
(0.992548 -0.0140186 3.24424e-21)
(0.993001 -0.0143771 3.23983e-21)
(0.993092 -0.01359 1.00682e-20)
(1.13267 0.0664369 -9.28361e-22)
(1.13446 0.0662371 1.81171e-21)
(1.13331 0.0647014 1.1857e-20)
(1.18879 0.0526001 8.83723e-21)
(1.19169 0.0513373 -4.704e-20)
(1.18784 0.0498189 -3.22771e-20)
(1.08767 -0.0144554 -9.05426e-21)
(1.08715 -0.0130281 -2.85127e-21)
(1.13161 -0.00131863 -3.99861e-21)
(1.13374 -0.000194774 0)
(1.17726 0.0346773 4.80312e-20)
(1.17685 0.0385912 6.00176e-20)
(0.999639 -0.0259198 -2.613e-22)
(1.00035 -0.0266538 2.96633e-21)
(1.00028 -0.0254018 9.22241e-23)
(0.810508 -0.135802 -1.9184e-20)
(0.798713 -0.131436 2.2289e-20)
(1.10555 0.057552 -1.8456e-21)
(1.10498 0.0585054 1.8998e-20)
(1.10456 0.0573598 9.67685e-21)
(1.14845 0.0796256 -3.91038e-22)
(1.14461 0.0798672 -3.02262e-20)
(1.17626 0.0784781 -3.43918e-20)
(0.997772 -0.00935597 -5.6855e-21)
(0.998054 -0.00903991 -3.33828e-21)
(0.997838 -0.00873303 -2.25413e-21)
(0.982423 -0.0178034 -1.56045e-20)
(0.981075 -0.0180276 -1.24089e-20)
(0.893556 -0.0797399 4.8652e-21)
(0.32601 0.0547775 3.79598e-21)
(0.336124 0.0545478 -1.61847e-20)
(0.366477 0.0589101 -8.40523e-22)
(-0.243751 -0.00296176 0)
(-0.2698 -0.000834619 0)
(-0.246343 -0.00379313 0)
(1.12189 0.0116231 7.76871e-21)
(1.121 0.0102599 8.86372e-21)
(1.12301 0.010145 6.67053e-21)
(1.03145 -0.0166674 -2.87683e-21)
(1.0311 -0.0174032 9.86836e-22)
(1.17777 0.0571144 -1.67768e-20)
(1.18095 0.0590247 -3.04793e-20)
(1.19706 0.0482299 3.67513e-20)
(1.19418 0.0498757 -8.806e-21)
(1.19354 0.0465303 5.45552e-20)
(1.12586 0.0544847 -6.5017e-21)
(1.12395 0.0548397 1.16153e-20)
(1.12449 0.0531406 -1.48155e-20)
(1.13046 0.00108015 2.57001e-21)
(1.12908 -0.0017956 6.29661e-22)
(0.316325 0.0533944 0)
(0.291909 0.0485252 0)
(-0.153506 0.0130398 2.72846e-20)
(-0.150017 0.0123693 2.35956e-20)
(-0.18323 0.00921312 1.87228e-27)
(1.08997 -0.0214854 5.82405e-21)
(1.09036 -0.0231769 0)
(1.09185 -0.0214691 0)
(1.10052 0.00837959 3.71574e-21)
(1.10201 0.00879918 -5.27153e-21)
(1.10035 0.00986073 -1.33572e-20)
(1.14243 -0.180032 8.17119e-22)
(1.10957 -0.168277 9.08996e-22)
(0.961338 -0.138128 3.08393e-20)
(1.02125 -0.0217687 1.10043e-21)
(1.02175 -0.0226272 -1.03584e-21)
(1.02053 -0.0221527 -3.42388e-21)
(1.00154 -0.00677309 -1.90592e-21)
(1.00159 -0.00659961 -7.81985e-22)
(1.0014 -0.00631149 -2.7437e-21)
(1.1274 0.0544124 -1.42167e-20)
(1.12659 0.0561159 0)
(1.15506 -0.120616 -2.23466e-20)
(1.15301 -0.116068 1.91348e-21)
(1.14975 -0.120248 1.75686e-21)
(1.0234 -0.0126828 2.982e-21)
(1.02407 -0.0127546 -8.58615e-22)
(1.0236 -0.0121931 3.00038e-21)
(1.00019 -0.00235013 0)
(1.00016 -0.00235438 0)
(1.00011 -0.00201226 0)
(1.00174 -0.0147388 -8.66829e-23)
(1.00148 -0.0142855 2.53924e-21)
(1.00426 -0.000740929 -6.00973e-23)
(1.00457 -0.000764561 3.9288e-22)
(1.00424 -0.000441293 -6.33849e-23)
(1.10503 -0.00451238 -5.17308e-20)
(1.10712 -0.00457439 -1.25249e-20)
(1.10622 -0.00262594 9.66812e-21)
(1.00168 -0.00728376 9.01107e-22)
(0.258594 0.0404994 1.14134e-20)
(0.288097 0.043817 1.0993e-20)
(1.12196 0.00668626 1.61282e-20)
(1.12008 0.00826791 7.07404e-21)
(1.01285 -0.0333219 -3.91907e-22)
(1.01204 -0.033296 -1.11871e-21)
(1.01275 -0.0341499 -8.50097e-22)
(0.381961 0.0345041 0)
(0.0539402 0.0307942 0)
(0.0368498 0.0285586 7.10017e-21)
(0.974242 -0.0195969 0)
(0.974792 -0.0209268 2.30815e-21)
(0.975724 -0.0197271 8.4203e-21)
(1.1467 0.0541408 -6.43969e-20)
(-0.225162 0.010796 -9.92798e-21)
(-0.258379 0.00810528 -8.84793e-21)
(-0.222636 0.0103112 4.3856e-20)
(0.973126 -0.0491061 -4.21778e-21)
(0.975396 -0.049867 5.26114e-21)
(0.97346 -0.0182458 0)
(0.972342 -0.0198317 0)
(1.12389 0.00602176 -1.79812e-20)
(1.12382 0.00843108 4.34088e-21)
(0.0159583 0.0129115 2.02772e-21)
(0.0113386 0.0138385 -2.28693e-20)
(0.0341423 0.0175341 -1.77117e-20)
(0.216154 -0.0078887 -1.6463e-20)
(0.152402 -0.00530366 7.62872e-20)
(0.204512 -0.00945779 -5.1048e-20)
(1.15029 0.00482213 1.92734e-20)
(1.15329 0.00481901 3.66379e-20)
(1.15136 0.0025204 0)
(1.00247 -0.000542106 -1.36233e-22)
(1.00236 -0.000772146 -6.63936e-22)
(0.672818 0.0790739 2.74021e-21)
(0.750774 0.0811215 -4.92834e-20)
(1.00105 -0.00832712 3.87592e-22)
(1.15613 0.00485846 6.34957e-21)
(1.15772 0.00224044 -3.03999e-20)
(1.15948 0.00523738 -4.73411e-20)
(-0.230566 0.010762 0)
(-0.200647 0.0149469 0)
(1.15056 0.0797004 -2.59043e-21)
(1.15098 0.0800716 3.8772e-20)
(1.1746 0.0786873 4.14684e-20)
(1.06296 0.00172698 -5.81621e-21)
(1.06237 0.00266904 -5.94328e-21)
(1.17139 -0.196579 0)
(1.26367 -0.218506 0)
(1.34059 -0.18386 -4.63496e-20)
(1.33152 -0.177848 3.54313e-20)
(1.32956 -0.186262 1.44149e-21)
(-0.132564 -0.0016339 -1.69553e-20)
(-0.123613 -0.000913335 -1.70897e-20)
(-0.0949556 -0.00247877 4.11727e-21)
(1.22748 -0.0268845 1.24973e-20)
(1.22385 -0.0294409 -3.83936e-20)
(1.22848 -0.0312476 -7.5579e-20)
(0.784313 -0.104962 9.00754e-22)
(0.784611 -0.0934759 3.72227e-20)
(0.772264 -0.0981602 -4.0878e-20)
(-0.0363424 0.0226857 0)
(-0.0253216 0.0243987 -2.98458e-20)
(0.0947845 0.0399977 1.67265e-20)
(0.114895 0.0435036 1.88074e-22)
(0.0884421 0.0395441 3.42324e-22)
(1.16705 0.0803091 -2.95411e-20)
(1.11371 0.0810458 2.10347e-20)
(1.04519 -0.0288628 5.59365e-22)
(1.0445 -0.0300878 4.60324e-21)
(-0.275789 -0.000280123 -9.87674e-20)
(-0.252578 -0.00208244 7.40438e-21)
(-0.244068 -0.00149241 3.86072e-22)
(0.139038 0.00666535 -1.34152e-20)
(0.141875 0.00602894 0)
(0.476834 -0.45719 -2.10863e-20)
(0.444182 -0.430313 -1.4206e-19)
(0.445187 -0.478139 -3.85688e-20)
(0.506032 -0.436983 1.02449e-19)
(0.515509 -0.478814 4.4004e-20)
(0.934764 -0.0258009 -5.33803e-21)
(0.936213 -0.0268611 1.37766e-21)
(1.15463 -0.0024343 -7.41109e-21)
(1.15298 -0.0047046 5.31497e-20)
(1.15619 -0.00473399 -1.54241e-21)
(0.945518 -0.121803 6.75551e-21)
(0.948919 -0.117213 -4.56823e-21)
(0.951589 -0.123051 6.70285e-21)
(0.224727 0.0143395 3.19096e-21)
(0.203677 0.0102415 0)
(0.790738 -0.152464 1.77261e-20)
(0.788824 -0.13925 2.70443e-21)
(0.775615 -0.148582 -6.26685e-21)
(1.00835 -0.00181098 -5.53119e-22)
(1.00831 -0.00215257 4.00618e-22)
(1.00871 -0.00201907 5.54715e-22)
(1.02016 -6.36842e-05 0)
(1.02006 -5.46771e-05 -1.123e-21)
(1.07204 -0.0821077 -8.92445e-21)
(1.0751 -0.0827075 -1.91768e-20)
(1.07245 -0.0848829 0)
(-0.16464 -0.00385999 2.80508e-20)
(-0.142436 -0.00236883 8.52218e-20)
(0.24335 -0.572082 1.71315e-21)
(1.02186 -0.0213788 6.05964e-21)
(1.02077 -0.0210482 3.83555e-21)
(-0.108577 0.0223844 1.24182e-20)
(0.934468 -0.118952 0)
(0.940477 -0.120813 0)
(0.938098 -0.114804 2.1328e-20)
(1.10235 -0.0712125 3.0931e-20)
(1.10563 -0.069856 -2.88919e-21)
(1.06525 0.00402277 -9.65717e-21)
(1.06413 0.004225 2.38249e-21)
(0.0166591 0.0121468 4.19529e-20)
(-0.00376241 0.0112948 2.78363e-20)
(1.17473 0.0582406 3.2244e-20)
(1.17577 0.0548993 6.93782e-21)
(1.09862 0.0638843 2.00066e-20)
(1.02435 -0.0801454 -7.36537e-22)
(1.02253 -0.0821569 -3.49945e-22)
(1.07652 -0.0422816 -4.79274e-21)
(1.07574 -0.0441392 5.69693e-22)
(0.473184 0.044447 -7.10938e-21)
(0.47836 0.0441767 -5.45014e-21)
(0.451322 0.0416484 -1.25328e-20)
(0.976335 -0.0275956 2.50097e-22)
(0.977928 -0.0273435 1.7536e-21)
(1.20098 0.0500552 0)
(1.088 -0.0211748 1.67054e-20)
(1.08955 -0.0194 6.26206e-21)
(1.12398 0.00390326 -4.5693e-20)
(1.12604 0.00582213 -8.31381e-22)
(0.9316 -0.124094 0)
(0.928237 -0.117623 0)
(0.992001 -0.0144789 -3.20992e-21)
(1.01407 -0.0335505 2.68113e-22)
(1.0132 -0.0324067 2.76307e-22)
(1.234 -0.0902449 0)
(1.23478 -0.095235 7.53226e-20)
(1.23991 -0.0901909 -3.12352e-20)
(1.23462 -0.200277 -6.59468e-20)
(1.23067 -0.192601 -9.05403e-20)
(1.17 0.0393993 -1.0605e-20)
(1.16757 0.0408314 8.04743e-20)
(1.16771 0.0373304 7.39325e-20)
(1.32318 -0.183227 3.56297e-21)
(0.464319 0.0435307 1.6153e-20)
(0.495412 0.0463416 1.28269e-20)
(1.01142 -0.0767118 -2.66444e-21)
(1.00921 -0.0778038 -2.28572e-21)
(0.0511761 0.0444315 0)
(1.13974 0.0695164 5.5145e-21)
(1.13754 0.069633 -1.80836e-20)
(1.13946 0.0717769 -4.93294e-20)