/*--------------------------------*- C++ -*----------------------------------*\
| =========                 |                                                 |
| \\      /  F ield         | OpenFOAM: The Open Source CFD Toolbox           |
|  \\    /   O peration     | Version:  v2012                                 |
|   \\  /    A nd           | Website:  www.openfoam.com                      |
|    \\/     M anipulation  |                                                 |
\*---------------------------------------------------------------------------*/
FoamFile
{
    version     2.0;
    format      ascii;
    class       volScalarField;
    location    "900";
    object      nut;
}
// * * * * * * * * * * * * * * * * * * * * * * * * * * * * * * * * * * * * * //

dimensions      [0 2 -1 0 0 0 0];


internalField   nonuniform List<scalar> 
13917
(
0.00323978
0.00324232
0.0011529
0.00553651
0.00566567
0.00334646
0.00315551
0.00254858
0.00280591
0.000312634
0.00263855
0.00684685
0.00334099
0.0178997
0.00581497
0.00200867
0.00681707
0.00256108
0.00179655
0.00188531
0.00498242
0.00683403
0.00206777
0.00683357
0.00596938
0.00473261
0.00448873
0.000127586
0.0035839
0.0067986
0.000163973
0.00285449
0.00668327
0.00980012
0.00682484
0.0026046
0.00647918
0.00693298
0.00275348
0.0028714
0.00677462
0.00672747
0.00289175
0.00189537
0.00190703
0.000253962
0.00520713
0.00300894
0.00190979
0.00682304
0.0068472
0.00124388
0.000496814
0.00685171
0.00684923
0.00139724
7.46325e-06
0.00235578
0.00674024
0.00101085
0.00643499
0.00595286
0.00679449
0.00568423
0.00930022
0.00656753
0.00307688
0.00260021
0.00256703
0.00292118
0.00568791
0.00868533
0.00682888
0.00677638
0.0048828
0.0065404
0.006317
0.00678584
0.00635614
0.00678193
0.00678006
0.00682106
0.00682713
0.00535163
0.00672052
0.000701673
0.00222755
0.00676507
0.00307626
0.00683345
0.00677296
0.00267761
0.00175199
0.00684384
0.00679556
0.00336996
0.00387819
0.0068488
0.00675435
0.00166506
0.00679683
0.00678509
0.00677496
0.00681949
0.00632517
0.00620443
0.00806132
0.00599929
0.00667051
0.00803654
0.00673756
0.0102718
0.0038122
0.0030911
0.00857899
0.00605029
0.00190948
0.00679426
0.0011555
0.00680366
0.00684155
0.00682508
0.00287085
0.0021526
0.00365154
0.00521613
0.00572834
0.00467399
0.00684634
0.00210105
0.0023516
0.000760386
0.0119763
0.0064713
0.00251936
0.0109194
0.0074298
0.00405115
0.0044821
0.00692515
0.0167498
0.00680993
0.00592582
0.00680815
0.00682052
0.00649047
0.00545836
0.00524811
0.00270376
0.00685266
0.00355379
0.00678932
0.00681471
0.00680338
0.00731157
0.00671205
0.00681273
0.0123916
0.00679433
0.00680159
0.00674214
0.0110685
0.00610135
0.0165154
0.00761523
0.00170935
0.000199041
0.00508446
0.00668818
0.00426261
0.00681581
0.0117577
0.00270128
0.00839198
0.00132096
0.00679372
0.00593292
0.00104515
0.00242915
0.00599534
0.00307149
0.00682814
0.00684868
0.00124501
0.00112794
0.000618643
0.00684799
0.000764199
0.00679738
0.00214753
0.00131534
0.0020472
0.00143619
0.00332507
0.00684185
0.00382799
0.00435924
0.0115415
0.00682621
0.0067578
0.00548159
0.00297476
0.00272799
0.00654503
0.00292699
0.00475025
0.00326505
0.00680923
0.00119837
0.00678124
0.00678055
0.00513247
0.00491851
0.0027581
0.00258316
0.00453799
0.0114061
0.00688143
0.0067689
0.00676806
0.00464878
0.00126219
0.000414151
0.00672202
0.00678009
0.0147751
0.00270389
0.006744
0.00673998
0.00676612
0.00678066
0.00678009
0.00774114
0.00348886
0.00682384
0.00669778
0.00173226
0.00763677
0.0068165
0.00672174
0.00432719
0.00626524
0.00126319
0.0114909
0.00109232
0.00680747
0.00534959
0.00167728
0.00403168
0.00259797
0.00659571
0.00282656
0.00681067
0.00224719
0.00145684
0.00680684
0.00675652
0.00568087
0.00596228
0.00680057
0.00691011
0.00958292
0.00683229
0.00673404
0.00669295
0.0067346
0.00681001
0.00683848
0.00229812
0.00681625
0.00611633
0.00892774
0.00682918
0.00624801
0.00095404
0.00677709
0.00139064
0.00867081
0.00677718
0.00489137
0.00680951
0.0109506
0.00679442
0.00606903
0.00679621
0.0068091
0.00137637
0.00688409
0.000889831
0.0038582
0.0101335
0.00651659
0.00110833
0.00384025
0.00681387
0.00203491
0.00587012
0.00640756
0.00574793
0.00658839
0.00683803
0.00688731
0.000955552
0.00469554
0.00224929
0.00635877
0.0067215
0.0121344
0.00170696
0.00684222
0.00777525
0.00639927
0.00367759
0.00166343
0.00970837
0.00927969
0.0051556
0.00100596
0.00629711
0.00451581
0.00403056
0.00113977
0.00683052
0.00585675
0.00281512
0.00677055
0.00327367
0.00206638
0.00680942
0.0116549
0.0067259
0.00203331
0.00681917
0.000345666
0.00672225
0.00238696
0.00468637
0.00481025
0.00682595
0.00259437
0.00488304
0.00681076
0.00677275
0.0111124
0.0052484
0.0104126
0.0164583
0.0067659
0.00683283
0.00665137
0.00090928
0.00676766
0.00577171
0.00685119
0.00258531
0.00224196
0.00180091
0.000997718
0.00140973
0.00205033
0.00783015
0.00685004
0.00680887
0.00547728
0.0011586
0.00680172
0.00243859
0.00236383
0.0113734
0.00684653
0.000957196
0.00708163
0.00201992
0.0067089
0.000578441
0.00122262
0.00443282
0.00683554
0.0019618
0.0067974
0.00709434
0.00129776
0.00670911
0.00180655
0.00673068
0.00474525
0.00679257
0.00242992
0.00379861
0.0065717
0.0150637
0.00148203
0.00666095
0.0110569
0.00103056
0.00664661
0.00136368
0.00684265
0.00146347
0.00115063
0.00672885
0.00297952
0.00643442
0.00679662
0.00672407
0.00685163
0.00727639
0.0012984
0.00683099
0.00685045
0.00684988
0.00210226
0.00246467
0.00680696
0.00668876
0.00168656
0.000956546
0.00681759
0.00659778
0.0107151
0.0194289
0.0100349
0.00170774
0.00279514
0.00682443
0.00679745
0.00534439
0.00672196
0.00680645
0.00681188
0.00679759
0.00682729
0.00474025
0.00684081
0.0023572
0.00724592
0.00208392
0.00678616
0.00680983
0.0111787
0.00547533
0.00256346
0.00681791
0.00673945
0.00679138
0.00679241
0.00649823
0.00669265
0.0105914
0.00740805
0.00676372
0.00673951
0.00266754
0.00770837
0.00678897
0.00114799
0.0105526
0.0068519
0.0207634
0.00679355
0.00676051
0.00684985
0.00672766
0.00676699
0.00680943
0.0122296
0.00707455
0.00676087
0.00083389
0.00171283
0.00679534
0.00198396
0.00183541
0.0104335
0.00271224
0.0062306
0.00889551
0.0088469
0.00668818
0.00565835
0.00826562
0.00661755
0.00628487
0.0067859
0.00685504
0.00679378
0.00313055
0.00509503
0.00128571
0.00236902
0.00641482
0.00610086
0.00261978
0.00165875
0.00683038
0.0184315
0.00265076
0.00375275
0.00756061
0.00672086
0.00145282
0.00121135
0.00671836
0.0127265
0.00676947
0.00679239
0.00190702
0.00681731
0.0068441
0.00110415
0.0127987
0.018889
0.00673812
0.00478489
0.00650819
0.00497602
0.00546105
0.00684122
0.00685066
0.00673221
0.0016671
0.00839026
0.00685043
0.00681652
0.00676712
0.00678634
0.00613092
0.00316632
0.00679714
0.00242905
0.00671829
0.0068481
0.00645907
0.0097956
0.0067125
0.00388435
0.00679923
0.00229459
0.00209024
0.00264976
0.00150414
0.0014261
0.0066571
0.00263048
0.0109054
0.00456131
0.0090156
0.00683679
0.00685165
0.00639545
0.00678268
0.0092252
0.00678823
0.00798333
0.00397486
0.0090898
0.00125353
0.00321269
0.000912251
0.00676275
0.00172446
0.00686632
0.00661359
0.00833651
0.00681412
0.00108992
0.00679095
0.00681678
0.00685192
0.00134758
0.00608603
0.00671846
0.00188153
0.00227771
0.0123338
0.00394655
0.0120487
0.00975877
0.00671296
0.00288012
0.00678316
0.00720932
0.00712808
0.00652531
0.00684925
0.00679533
0.00237854
0.00313069
0.00681337
0.00686276
0.00683588
0.00273305
0.00674757
0.0023572
0.00685295
0.00671497
0.00681766
0.000432066
0.0086487
0.000708154
0.00257334
0.00316441
0.000807482
0.00831468
0.00680363
0.00874089
0.00682705
0.00197727
0.00678437
0.00156711
0.00678054
0.00608837
0.00682483
0.0109354
0.0024146
0.0102386
0.0068007
0.00237576
0.00683262
0.00678251
0.00859052
0.00169135
0.00680605
0.00166058
0.00672151
0.00666217
0.00678988
0.00985866
0.00674715
0.00589439
0.00678844
0.00682051
0.00115429
0.00678766
0.00177224
0.00682275
0.00672032
0.00642234
0.00238816
0.0068445
0.000504967
0.00107462
0.00287153
0.00132331
0.00675732
0.00533295
0.00864876
0.00107906
0.00552971
0.0064744
0.00606429
0.0068443
0.00684879
0.00826249
0.00193333
0.00507964
0.00615735
0.00226509
0.00201249
0.00673244
0.00574352
0.00241168
0.00149189
0.00591343
0.00683761
0.00566701
0.00863633
0.00672048
0.00682972
0.0068208
0.00646469
0.00684131
0.00307744
0.00216983
0.00677329
0.00220409
0.0068041
0.0104371
0.00681121
0.00684894
0.0129219
0.00225234
0.0101521
0.00683105
0.00671024
0.0068494
0.00563543
0.00271067
0.00681718
0.00311407
0.00352366
0.0141911
0.0107894
0.00565215
0.0120201
0.00486912
0.00687727
0.00682492
0.0094421
0.0173908
0.00421193
0.00329273
0.00519616
0.00672471
0.00684711
0.00649775
0.00569751
0.00916667
0.00250329
0.00577455
0.00368961
0.00184101
0.00641596
0.0018078
0.00214086
0.00680203
0.0064817
0.00685215
0.00284029
0.00611494
0.00107783
0.00633615
0.0062866
0.00320702
0.00669646
0.00567098
0.00653842
0.00396688
0.00384565
0.00107463
0.00684527
0.0020108
0.00802984
0.0127009
0.00678602
0.00632915
0.00690254
0.00675597
0.00681861
0.00521538
0.00786648
0.000893971
0.00176478
0.00675374
0.000726191
0.00262571
0.00285105
0.00161954
0.00682003
0.00202986
0.000181566
0.00670821
0.00221786
0.00116957
0.00222748
0.00681905
0.00677077
0.00685072
0.00205341
0.00679923
0.00678269
0.00215624
0.00682387
0.0068047
0.00146288
0.000688048
0.00462913
0.0197017
0.00271102
0.00686531
0.00681659
0.0062328
0.000126923
0.00652319
0.00609589
0.00682234
0.00681947
0.00683647
0.00624537
0.00229681
0.00681922
0.0101246
0.00678938
0.00726471
0.00652961
0.00279296
0.00681761
0.00257282
0.00602653
0.0109707
0.00416925
0.00680995
0.00953839
0.00676613
0.00609962
0.00317541
0.00366643
0.00650345
0.00682808
0.00677887
0.0103618
0.00291671
0.00270572
0.0204719
0.00675294
0.00218407
0.0066943
0.00620081
0.00672814
0.00670412
0.00519493
0.00356623
0.00351448
0.00195076
0.00403566
0.00674902
0.00682297
0.000988823
0.00675935
0.00685325
0.00668425
0.00685346
0.00211494
0.00674489
0.00207219
0.0068041
0.00288666
0.00588468
0.00297686
0.00713279
0.0204798
0.00194917
0.00354086
0.00672197
0.00668054
0.00681915
0.00676527
0.00673549
0.00298026
0.00677352
0.0021836
0.00685411
0.000769097
0.0068111
0.0022093
0.00100037
0.00684589
0.00249808
0.00657582
0.00658579
0.00375994
0.00679786
0.012171
0.00212183
0.0080982
0.00684513
0.00674359
0.00680191
0.0067799
0.00803512
0.00672417
0.00148201
0.00677182
0.00988365
0.00612852
0.00679705
0.00197773
0.00589843
0.0067272
0.0118063
0.00776472
0.00647484
0.00257756
0.0067647
0.00161236
0.00674216
0.00677856
0.00623472
0.00683753
0.00568848
0.00223604
0.00530125
0.00669246
0.00406906
0.00127206
0.00668948
0.00660491
0.00685328
0.00205331
0.00674008
0.00176564
0.0068437
0.0127974
0.00606713
0.00914253
0.00684783
0.00679833
0.00592497
0.0068784
0.00666761
0.0100221
0.00668679
0.00673147
0.00631058
0.00669291
0.00668033
0.00205069
0.00666254
0.00963057
0.00257265
0.00190754
0.00118611
0.00413093
0.0126116
0.00677177
0.00209091
0.00674433
0.00754412
0.00970271
0.00664339
0.00674632
0.00668379
0.00684036
0.0067885
0.00683144
0.00682688
0.00677083
0.00320236
0.00670812
0.00672116
0.00267963
0.007037
0.0111613
0.00238991
0.00680021
0.00648651
0.00675866
0.000244854
0.00777445
0.000219157
0.00679116
0.00672416
0.00676351
0.00685367
0.00678589
0.00679522
0.00675563
0.00234428
0.00673172
0.000864853
0.00507268
0.00675747
0.0106502
0.0067467
0.00684913
0.00609197
0.0102939
0.00155692
0.00679499
0.00961345
0.00684062
0.00684724
0.000202558
0.00666244
0.0125112
0.005848
0.00281654
0.00678433
0.00682093
0.00544742
0.00425464
0.00670553
0.0096748
0.00606009
0.00693207
0.0065414
0.00674772
0.00676482
0.00223738
0.00208995
0.00510749
0.0106321
0.00149474
0.0045078
0.00213342
0.00683089
0.0100364
0.00682416
0.0102429
0.00156485
0.00280161
0.00673403
0.0107858
0.0196029
0.00200885
0.00663208
0.00580126
0.00678278
0.00677267
0.00208092
0.00680878
0.00684094
0.000336551
0.00488236
0.0068217
0.00234188
0.00744073
0.00678108
0.00676398
0.010097
0.011268
0.00678448
0.00677249
0.00307008
0.00680716
0.00684746
0.00522024
0.00619976
0.00680958
0.0125783
0.00669119
0.00379933
0.007292
0.00603436
0.00787784
0.00683044
0.00681593
0.00698412
0.00517445
0.00532112
0.00713257
0.0052687
0.00540554
0.00513142
0.00668199
0.0110882
0.00624114
0.00673821
0.002391
0.00680139
0.0123644
0.00261141
0.00181775
0.00199153
0.000439685
0.00950655
0.00999125
0.0121433
0.00692832
0.000639702
0.00676976
0.00159725
0.00161703
0.00591103
0.00386309
0.00661331
0.00412952
0.00173123
0.00666066
0.0101493
0.00251174
0.00116529
0.0103071
0.0068109
0.00203841
0.00661065
0.00685469
0.00596874
0.00419048
0.00681074
0.00674709
0.00658567
0.0038064
0.00673642
0.00668657
0.00337678
0.00677062
0.00684476
0.00100449
0.00196089
0.00673634
0.00684183
0.00216463
0.00606683
0.00345086
0.0125809
0.00683365
0.00674279
0.0189476
0.00678084
0.00664566
0.0120829
0.008582
0.00562115
0.00160956
0.006067
0.00194731
0.00160946
0.00525685
0.00470846
0.00684701
0.00171033
0.00820443
0.00111152
0.00930304
0.000410577
0.00682635
0.0068479
0.00684174
0.00684638
0.00684373
0.00111049
0.00684563
0.00219633
0.00672592
0.00198971
0.0110893
0.00665902
0.00586517
0.020822
0.00674724
0.00213042
0.00612538
0.00670986
0.0067602
0.00969614
0.00261242
0.00609297
0.00544509
0.00604942
0.00112652
0.00670963
0.0034206
0.00250425
0.00631269
0.00680474
0.000735641
0.00675966
0.00624175
0.00476851
0.00623962
0.00525983
0.00241015
0.00788898
0.00674525
0.000992395
0.00231064
0.00685567
0.00675605
0.00648495
0.00218861
0.000156222
0.00681847
0.00225798
0.00498761
0.00372499
0.00270636
0.00683651
0.00672464
0.00682476
0.00674709
0.00697785
0.00652117
0.00235425
0.00676965
0.00360406
0.00431828
0.00563534
0.00241672
0.0114358
0.00601081
0.00682789
0.00680349
0.00671991
0.00673265
0.00182358
0.011548
0.00866819
0.00102426
0.0055342
0.00231934
0.00330181
0.00221188
0.00628755
0.00193563
0.00684581
0.00187563
0.00257032
0.00680145
0.00682757
0.0117948
0.00217773
0.00497728
0.0065558
0.00104784
0.0068467
0.00113328
0.00694242
0.00672429
0.00978651
0.0139896
0.00684356
0.00562995
0.00196867
0.00428419
0.00651875
0.00674373
0.00676024
0.00678251
0.00674888
0.00308294
0.00177477
0.00514258
0.00389093
0.00342967
0.00245434
0.00112752
0.00683911
0.00508398
0.000550925
0.00105471
0.00824065
0.00669631
0.00674309
0.00818374
0.00673459
0.00759158
0.00555528
0.00228307
0.00683911
0.00673875
0.000288711
0.00381453
0.00671241
0.00674117
0.0115676
9.7076e-05
0.00807996
0.00681474
0.00685414
0.00198598
0.00680598
0.00682446
0.000986658
0.0124454
0.00540659
0.00238779
0.00680418
0.0033161
0.0067278
0.00641031
0.00502861
0.00673854
0.00104421
0.00673154
0.00677648
0.000194896
0.00229488
0.00961109
0.00109148
0.00672195
0.00312445
0.00680349
0.00684512
0.00653177
0.0068032
0.0068502
0.00114549
0.0068343
0.00182428
0.00601915
0.00627629
0.00681187
0.00675096
0.00684733
0.00982673
0.0068111
0.00228609
0.00257881
0.006838
0.00242565
0.00239263
0.0028649
0.00684902
0.00617599
0.00676157
0.00680367
0.0126334
0.00372617
0.00643359
0.00681648
0.00683894
0.00677026
0.00263413
0.00679687
0.0115059
0.00215164
0.00681746
0.00672132
0.00677418
0.00211668
0.00345639
0.0199012
0.0060273
0.0115711
0.00607965
0.00110044
0.00652979
0.0098961
0.0067269
0.00680633
0.00544931
0.0105165
0.00677881
0.0114064
0.00685564
0.00681846
0.000939303
0.000599687
0.00188985
0.0105698
0.00387572
0.00109402
0.00334117
0.00683118
0.0100441
0.00674653
0.00679264
0.00475531
0.0067549
0.0117531
0.0063985
0.00676655
0.0067772
0.00683208
0.0110142
0.00681358
0.00674416
0.00268607
0.00672394
0.00679893
0.00673175
0.00682778
0.00226928
0.00683642
0.00640639
0.00671808
0.000681018
0.00465833
0.00671988
0.00672143
0.00679021
0.00672129
0.00352051
0.00680547
0.00681899
0.00683528
0.00675147
0.00676051
0.00682503
0.0025777
0.006776
0.00256137
0.00684098
0.00296075
0.00681287
0.00684944
0.00681044
0.00681202
0.00372593
0.0061224
0.00293159
0.0105728
0.00508151
0.0124666
0.011455
0.00255821
0.00731828
0.00684805
0.00681808
0.000308212
0.010492
0.00676789
0.00794088
0.00678967
0.00179923
0.00439856
0.00375936
0.00250415
0.0200786
0.0163324
0.00682024
0.00226941
0.0067626
0.00412346
0.00378499
0.0120163
0.00250458
0.00685012
0.00481415
0.000468126
0.006813
0.0045562
0.0129636
0.0066528
0.00671963
0.0112006
0.008987
0.00683001
0.00245389
0.00682948
0.000615257
0.00101007
0.00685365
0.00682052
0.00112052
0.00684387
0.00674658
0.00585438
0.0067519
0.0020913
0.0057483
0.00297065
0.0106455
0.0067487
0.00232863
0.00682506
0.0114519
0.00171738
0.0102806
0.00680712
0.00303141
0.00679396
0.00683393
0.00332358
0.00684363
0.0061077
0.00673944
0.00676261
0.00674459
0.0113506
0.00672048
0.010525
0.00934551
0.00671013
0.00684456
0.00683072
0.00673457
0.00418475
0.0068457
0.00463305
0.00682799
0.00606656
0.00667214
0.00658258
0.000554253
0.00685391
0.00683306
0.00845863
0.00193205
0.0113808
0.00672954
0.00835545
0.0200406
0.00685427
0.00940894
0.00685069
0.00624992
0.00575969
0.00658298
0.00400411
0.00583762
0.00556714
0.00254576
0.00680299
0.00261787
0.00674945
0.00814618
0.00673078
0.00475658
0.00675128
0.00675033
0.00653597
0.00701144
0.00683504
0.00549913
0.00133786
0.0191874
0.00675796
0.00569118
0.00978505
0.00269014
0.00269666
0.00156113
0.00681478
0.00193513
0.00373008
0.00649564
0.00163131
0.00680328
0.00151686
0.00256308
0.00684128
0.00276988
0.00672145
0.00757295
0.00190767
0.00655341
0.00646607
0.00602301
0.00682576
0.00673713
0.00562937
0.00675856
0.00685412
0.00712158
0.00152438
0.000351429
0.00682594
0.00380899
0.0118729
0.00663692
0.0039359
0.00196424
0.0067204
0.0067381
0.00118714
0.0106734
0.00602841
0.00468717
0.00112757
0.00362712
0.00396714
0.0105797
0.00945726
0.00966848
0.00671977
0.00193834
0.00212665
0.00131905
0.0068194
0.00284665
0.00154794
0.00180358
0.00572818
0.00667253
0.00381014
0.0103583
0.0042372
0.00673743
0.00674081
0.00285532
0.00684024
0.0123487
0.00393283
0.0065752
0.000720991
0.00241642
0.00671952
0.00241761
0.00253117
0.00682305
0.010969
0.00635045
0.0115884
0.00684279
0.0102176
0.000165891
0.00112915
0.00681343
0.00598436
0.00550793
0.001322
0.00102357
0.00255235
0.00710158
0.00147812
0.00671861
0.00527577
0.00665647
0.00172764
0.00263194
0.00677878
0.00671735
0.00673438
0.000804417
0.000677568
0.00684181
0.00184867
0.000760956
0.00672696
0.00285537
0.00651979
0.00997066
0.00598216
0.0111559
0.00504882
0.00299959
0.00642201
0.00121155
0.00675768
0.0040199
0.00838785
0.00378533
0.00156626
0.00217868
0.00230009
0.0105207
0.00861785
0.00679988
0.00810269
0.00124553
0.00675326
0.0016769
0.00201708
0.000922268
0.00498782
0.000330166
0.00476018
0.00132218
0.00905491
0.00533495
0.00194653
0.00678255
0.00683345
0.0068382
0.00675528
0.00042379
0.00187003
0.0068104
0.00322628
0.00131273
0.00675354
0.0106335
0.010001
0.00680407
0.00684716
0.00677872
0.00674541
0.00230613
0.00675004
0.00590184
0.00275474
0.00173808
0.00618122
0.00132616
0.00405233
0.00433871
0.00276221
0.00682593
0.00673125
0.00680661
0.00684047
0.0107002
0.00201727
0.00574888
0.00603752
0.00682122
0.00680983
0.00531278
0.00679559
0.00682819
0.00127694
0.00397838
0.00777315
0.0103132
0.0084653
0.00679702
0.0100975
0.00675719
8.73073e-05
0.00671821
0.00156296
0.0106488
0.00676878
0.00083985
0.00724931
0.00526841
0.00682726
0.00679257
0.00592132
0.0100456
0.0067485
0.00683651
0.00688426
0.0069395
0.00115214
0.00682977
0.00412012
0.00672031
0.00686378
0.0015803
0.00258697
0.00649345
0.00172463
0.00303992
0.0118116
0.0132797
0.00689983
0.0067535
0.00824538
0.0068298
0.00254236
0.00681376
0.00649452
0.00672425
0.00679863
0.0054129
0.0110078
0.0067346
0.00680931
0.00672349
0.00153763
0.00110848
0.00109925
0.00673429
0.00652773
0.0067362
0.0103671
0.00677821
0.0019808
0.00228727
0.00682042
0.000598999
0.00431805
0.0108078
0.00462725
0.00682586
0.00371488
0.00438335
0.000958754
0.00683839
0.00682766
0.00674119
0.0110459
0.00678688
0.00682255
0.00854814
0.00667196
0.00631925
0.00401879
0.00684445
0.00682738
0.0105705
0.00343039
0.0200989
0.0106605
0.00674024
0.0162588
0.00683867
0.00138857
0.00181884
0.00680451
0.00681545
0.00673598
0.0067499
0.00127693
0.00221104
0.00958652
0.0103261
0.00676735
0.00734314
0.00350493
0.00101027
0.00676387
0.0119677
0.00847299
0.00560754
0.00678563
0.00563347
0.00682534
0.00359415
0.0106568
0.00661294
0.00674547
0.00277821
0.00518534
0.00683554
0.00546408
0.00667331
0.0018376
0.000246695
0.00672406
0.0113166
0.0057389
0.00673571
0.00811523
0.0023513
0.0171107
0.00755871
0.00533335
0.0062075
0.00684611
0.00606252
0.00681027
0.00275846
0.00308511
0.00681717
0.00392335
0.00118126
0.00991272
0.00674417
0.00102082
0.010598
0.0126067
0.00679402
0.00682625
0.0128179
0.00311518
0.00297294
0.00683134
0.0117221
0.0019977
0.0067637
0.00505411
0.00574048
0.00684611
0.000595035
0.00685547
0.00603759
0.00682568
0.00670871
0.00684327
0.00672397
0.00876669
0.00680975
0.00673248
0.00247414
0.00298162
0.00642851
0.00162007
0.00685265
0.00673685
0.00669902
0.00677389
0.0121203
0.0120297
0.000137197
0.00856654
0.00408252
0.0063734
0.00476691
0.0114415
0.0116315
0.00977008
0.00677331
0.00557831
0.00676609
0.00685646
0.00684072
0.00663762
0.00118013
0.0021667
0.00465346
0.00675081
0.00673758
0.00199014
0.00683953
0.0068336
0.00685483
0.0110246
0.00354543
0.00170966
0.00679054
0.012347
0.00682361
0.00680673
0.00678271
0.00229079
0.00676834
0.00190126
0.0103473
0.00349309
0.007706
0.0101243
0.00684901
0.00365994
0.0072843
0.00110448
0.00681776
0.00683963
0.00674239
0.0102819
0.00671195
0.00312617
0.00509619
0.00192434
0.013929
0.00707002
0.00250462
0.0108586
0.00682964
0.00671246
0.00516665
0.00374723
0.00681082
0.00680096
0.00172345
0.00672041
0.00101318
0.00684643
0.0067904
0.00628804
0.00679973
0.00180265
0.0102726
0.00848374
0.00392932
0.00681548
0.00118434
0.0067534
0.0011781
0.00675058
0.0015993
0.00228152
0.00683248
0.00684729
0.00675198
0.000966297
0.00414115
0.00114655
0.0025027
0.00387516
0.0048404
0.00237066
0.00192746
0.00739914
0.0067601
0.0107306
0.00678355
0.0108605
0.000369328
0.0103317
0.00804728
0.00681958
0.00176422
0.00520477
0.006851
0.00562022
0.00684797
0.00681236
0.00347943
0.00681325
0.00258172
0.000425152
0.00131445
0.00606279
0.00408116
0.00413819
0.00674941
0.00679872
0.00682221
0.000950795
0.00237044
0.010549
0.00192775
0.00681375
0.00675538
0.00679031
0.0010434
0.00648878
0.00672597
0.00568466
0.00141702
0.00253524
0.00431433
0.00393594
0.0112765
0.0039476
0.00253869
0.00676258
0.00300257
0.000997732
0.00388611
0.00384875
0.00679806
0.00883131
0.00265565
0.00682412
0.00200133
0.0113638
0.0136098
0.00519872
0.0067224
0.00975516
0.00682883
0.00672754
0.00681734
0.00530799
0.00169926
0.00684904
0.00547878
0.00739609
0.00687198
0.00404563
0.00160995
0.0120569
0.00378836
0.0105589
0.00682079
0.00230833
0.00645266
0.00913657
0.00268286
0.00683469
0.0119601
0.00676082
0.00678181
0.0206089
0.00424756
0.0032314
0.000891228
0.00324381
0.00573014
0.00275535
0.00681898
0.00672961
0.0067935
0.0020964
0.00676064
0.00486599
0.00407055
0.0119932
0.00154768
0.00630626
0.00582753
0.00684998
0.0114102
0.00812531
0.00679508
0.00684123
0.0030579
0.000935651
0.00118102
0.00185074
0.0111054
0.0108518
0.00219561
0.00663066
0.00340539
0.00700373
0.00432349
0.00055406
0.00685662
0.00685404
0.00678606
0.00675655
0.00673253
0.00242993
0.00854466
0.0046664
0.012622
0.00329658
0.00271923
0.00924997
0.0116708
0.00581941
0.0106495
0.00194492
0.00231807
0.00671674
0.00684907
0.00265182
0.00606921
0.00669006
0.0103082
0.0119501
0.00679259
0.00682327
0.0067501
0.00106393
0.00681479
0.00177754
0.0106993
0.00674129
0.00672218
0.00677908
0.00679732
0.00211285
0.00983191
0.00484782
0.00444311
0.00104904
0.00674833
0.0102234
0.000948793
0.00682017
0.000241403
0.00117464
0.0106854
0.00268577
0.00754845
0.00685595
0.00261904
0.01029
0.00119751
0.00487737
0.00684433
0.00664377
0.00654995
0.00372666
0.00681117
0.0017404
0.00684257
0.00402219
0.0109421
0.0100172
0.00664577
0.00675498
0.0126102
0.011603
0.0068317
0.00590545
0.00134291
0.00673389
0.00673299
0.0100862
0.00675503
0.00108476
0.0105897
0.00716005
0.00676331
0.00127267
0.00150434
0.00681884
0.00678887
0.0131937
0.00648982
0.00679065
0.00407922
0.00129491
0.00106734
0.011538
0.00422945
0.00567112
0.0100826
0.00917299
0.00264009
0.00672029
0.00258329
0.00671761
0.00680761
0.00756237
0.00421973
0.00132551
0.00386165
0.00620547
0.00683835
0.00675901
0.00641688
0.00619719
0.00780289
0.00394074
0.00176556
0.00310267
0.00221764
0.00244046
0.0103127
0.00867382
0.00849043
0.0067528
0.00366572
0.00262429
0.00571315
0.00135206
0.0123217
0.00680744
0.00213804
0.00926944
0.00611827
0.00224614
0.00247878
0.00207813
0.00192296
0.00528375
0.00174973
0.00161448
0.00148078
0.00134516
0.00186959
0.00240492
0.00603773
0.00672508
0.00255543
0.00226258
0.00676339
0.000301289
0.0108378
0.00067364
0.0118235
0.00677666
0.00680634
0.00250489
0.0066438
0.00613968
0.00654159
0.00212492
0.00612367
0.00774181
0.0068467
0.0054778
0.00415446
0.00261804
0.0107071
0.00328686
0.000220048
0.0101102
0.00204945
0.0109232
0.00142502
0.0129659
0.0113525
0.00668688
0.0096431
0.0109021
0.00675968
0.00140696
0.00105707
0.00625466
0.00682284
0.00103241
0.00502023
0.00683521
0.00683576
0.0106523
0.000281344
0.00124201
0.00685091
0.0011623
0.0016536
0.0120304
0.00753225
0.00681564
0.00673259
0.00636442
0.00691075
0.00903123
0.00091695
0.0107994
0.00240915
0.000409535
0.00866734
0.00692368
0.00672914
0.00989963
0.006842
0.0105321
0.00678169
0.0112153
0.00612034
0.00677007
0.003416
0.00678071
0.00187571
0.00940531
0.00683744
0.00658339
0.00594207
0.00121945
0.00773627
0.00111317
0.0118511
0.00695738
0.0068793
0.00307636
0.00123675
0.0103684
0.0060529
0.00102718
0.00109224
0.00171219
0.00447559
0.00677456
0.00683829
0.00674529
0.0067173
0.000316782
0.0025789
0.00897451
0.00347403
0.00146777
0.00680526
0.0104911
0.00314073
0.00256952
0.0067327
0.00567532
0.00671392
0.0110826
0.0061365
0.0109054
0.000337835
0.00174978
0.000759443
0.0067471
0.00245915
0.00109
0.000336256
0.000189584
0.00675767
0.00160778
0.00681493
0.00676317
0.00108812
0.0127647
0.00252213
0.00683679
0.00109829
0.000763386
0.00934915
0.00369295
0.00893274
0.00737056
0.00683914
0.00180979
0.00683052
0.00155749
0.00684067
0.000999568
0.00662317
0.00191925
0.0131081
0.00607036
0.00691876
0.00141789
0.0110146
0.00181656
0.00658044
0.0210249
0.00196023
0.00684114
0.00671946
0.00705229
0.00331302
0.000940367
0.000111718
0.0124142
0.00494616
0.00686354
0.00808053
0.0103276
0.00196379
0.000795066
0.00273654
0.00192612
0.00210736
0.00808353
0.00325434
0.00648061
0.000608756
0.00371256
0.000484116
0.00594825
0.00570254
0.000625732
0.00113055
0.00279486
0.00577137
0.00649846
0.00854213
0.00108704
0.00194122
0.00218237
0.0067211
0.00671732
0.00952814
0.00943636
0.00606446
0.00681776
0.00303179
0.00559998
0.0070763
0.00260241
0.010783
0.00594634
0.0105084
0.000986015
0.00222094
0.00676126
0.000411767
0.00656606
0.00693733
0.00236611
0.00676122
0.00409854
0.006825
0.0102108
0.00678618
0.00680467
0.0111778
0.00340849
0.00671627
0.0107852
0.00678944
0.0068479
0.00675471
0.00683442
0.00683353
0.000294415
0.0118414
0.00677985
0.00823134
0.0025838
0.00223637
0.0014462
0.00234947
0.00576295
0.00229987
0.0067211
0.010663
0.00555233
0.0100263
0.00692819
0.0057678
0.00068243
0.00163465
0.00178568
0.0101725
0.00672191
0.0066115
0.00183162
0.00247425
0.00455351
0.00682262
0.00512958
0.00115173
0.00681384
0.00329711
0.00672269
0.00747534
0.00149869
0.00984309
0.00125112
0.00130702
0.0110167
0.00685056
0.00684111
0.00258377
0.00670186
0.00683878
0.00683934
0.00601424
0.00680032
0.00673155
0.00674473
0.00407509
0.0066556
0.00599355
0.00685339
0.0043639
0.00205032
0.00660079
0.00774812
0.00641741
0.00675152
0.00218032
0.00223702
0.00689317
0.00680818
0.00642348
0.00327573
0.00924984
0.00331056
0.00127163
0.00673897
0.00685251
0.00153229
0.0117411
0.00266227
0.0049666
0.00673037
0.0120854
0.00682891
0.0067315
0.00257201
0.00378241
0.00133065
0.0111169
0.00207233
0.00148062
0.00301075
0.00492275
0.00685649
0.00684386
0.00140956
0.0101646
0.00246091
0.00128626
0.0083937
0.00595553
0.00683607
0.00296557
0.00115599
0.00209511
0.00681853
0.00201761
0.00211337
0.00198383
0.00683043
0.00680807
0.00135872
0.00173935
0.00138078
0.00681687
0.00655931
0.00269161
0.00683514
0.00224901
0.00509261
0.00685283
0.00129101
0.00536454
0.00137347
0.00275412
0.00680119
0.00685439
0.00672431
0.0105612
0.00109659
0.00661015
0.00158713
0.00186646
0.00683241
0.00685602
0.000749497
0.0103918
0.000885469
0.010502
0.00107053
0.00241726
0.000112112
0.00172034
0.00250832
0.0150515
0.00228843
0.0167945
0.00682428
0.00210106
0.0015809
0.00678355
0.0102999
0.00255873
0.00222241
0.00602368
0.00145414
0.00679881
0.00647041
0.00310405
0.00671811
0.00684069
0.00674765
0.00673974
0.00677499
0.00681752
0.00329591
0.00685399
0.00679148
0.011839
0.00251435
0.00647528
0.00185532
0.00552995
0.00641148
0.00674973
0.00235863
0.00609193
0.0023096
0.00680606
0.00679183
0.00128086
0.00066159
0.00683993
0.00683062
0.0010499
0.00345632
0.00106865
0.00188373
0.00684008
0.00136403
0.00341955
0.00679162
0.0012271
0.0110805
0.00689071
0.00179686
0.00683625
0.00281343
0.00683321
0.00600219
0.00676287
0.00679629
0.00485614
0.0020101
0.000315407
0.00190322
0.00681888
0.00580061
0.0114061
0.0033498
0.00121666
0.00202979
0.00681251
0.00166875
0.00795852
0.00115176
0.0178115
0.00570689
0.00946145
0.0124824
0.00564979
0.00683951
0.00115862
0.00679667
0.0021588
0.0119719
0.00685279
0.00543755
0.00684686
0.0112928
0.00291975
0.0063166
0.00203983
0.0111234
0.0147636
0.00404482
0.00234043
0.00278403
0.00671584
0.0114507
0.00672916
0.00506401
0.00674614
0.00633646
0.0103011
0.0027062
0.00678465
0.00572284
0.00031495
0.00685042
0.00683694
0.00338181
0.00628668
0.00681245
0.00407263
0.00643577
0.00682369
0.00677001
0.00250167
0.00197564
0.00120625
0.00672502
0.00243076
0.00986074
0.00556729
0.00674339
0.0068555
0.00280257
0.00222303
0.00680577
0.00679372
0.00678829
0.0068392
0.00618286
0.00302361
0.00691413
0.00259815
0.00658886
0.00675445
0.00663106
0.00264923
0.00198267
0.00191741
0.00680843
0.00578198
0.0090942
0.00563971
0.00302934
0.00558002
0.0102014
0.00205947
0.00241632
0.00133242
0.00685172
0.011743
0.00600403
0.00305794
0.0067393