/*--------------------------------*- C++ -*----------------------------------*\
| =========                 |                                                 |
| \\      /  F ield         | OpenFOAM: The Open Source CFD Toolbox           |
|  \\    /   O peration     | Version:  v2012                                 |
|   \\  /    A nd           | Website:  www.openfoam.com                      |
|    \\/     M anipulation  |                                                 |
\*---------------------------------------------------------------------------*/
FoamFile
{
    version     2.0;
    format      ascii;
    class       volScalarField;
    location    "700";
    object      omega_0;
}
// * * * * * * * * * * * * * * * * * * * * * * * * * * * * * * * * * * * * * //

dimensions      [0 0 -1 0 0 0 0];


internalField   nonuniform List<scalar> 
13917
(
5.20888
0.0395855
0.203519
0.0222228
0.0287655
0.0389242
0.0265557
0.0848862
0.0253592
8.90339
0.0820555
0.0217625
0.0245406
1.52731
0.027779
6.81278
0.0219468
0.0691529
0.107316
6.9991
0.0337221
0.0217194
0.0438852
0.0217206
0.0232471
0.0358836
1.62908
11.5239
0.0473362
0.0200067
9.87419
0.0637755
0.0222488
3.00342
0.0213786
0.120029
0.0239893
0.0236139
0.0265888
0.0379119
0.0219211
0.0216733
0.0239203
0.101946
0.101254
0.202594
0.0319426
4.8882
1.30075
0.0213951
0.0217291
0.110725
16.2653
0.021686
0.021759
0.109621
7.47417
0.0438938
0.0215504
0.155441
3.52666
0.0290061
0.0210423
0.0230643
3.09947
0.0303808
0.0521909
0.10152
0.0783282
5.75945
2.87149
3.11935
0.0217349
0.0213314
0.0346155
0.0237169
0.0245141
0.0212425
0.0234999
0.0223236
0.0222648
0.022047
0.0217187
3.04928
0.021149
0.130537
0.0615236
0.0216243
0.0376001
0.0218659
0.0207517
0.0240854
1.27841
0.0210778
0.0222164
0.0518511
0.419923
0.0222937
0.0215254
0.115008
0.0214408
0.0213316
0.0223113
0.0214741
0.0244346
3.35274
2.7985
0.0288015
0.0219399
1.74295
0.0215401
2.96421
0.0471818
5.64616
3.10642
0.0241341
0.10048
0.0209053
0.174103
0.0216557
0.0219413
0.0209988
0.05784
0.0883986
5.33205
3.15208
0.0228979
0.0365305
0.0211298
0.0896899
0.0319376
0.133457
3.56874
0.0240905
0.0745422
1.76373
3.29017
5.24798
0.0383828
0.0235615
0.861804
0.0211079
3.34418
0.0211876
0.0216611
0.0242133
2.85282
0.5961
5.22051
0.0217216
0.0348829
0.0212014
0.02164
0.0216643
1.05403
0.0223969
0.0214111
3.53869
0.0215582
0.0211104
0.0211305
2.89062
0.0259672
0.835362
2.66121
0.123418
23.2772
3.69973
0.0195946
0.0408492
0.0218498
3.46018
0.0253188
3.2061
0.0669314
0.0213607
0.0222261
0.121416
0.0312087
0.0265422
0.0238163
0.0217577
0.0217273
0.172589
0.179813
0.116576
0.0217002
0.174229
0.0200275
0.114944
0.0669929
0.0935695
0.131486
4.99385
0.0210851
5.14784
0.0257428
3.63696
0.0213411
0.0221638
0.0299464
5.53877
6.67964
0.0236141
1.70376
0.0356892
0.0352346
0.0211099
0.119898
0.0222602
0.0208717
0.0360742
0.0417026
4.60314
0.0724883
0.0377704
2.96407
0.0226385
0.0203383
0.0203268
3.97723
0.153146
0.147395
0.0213629
0.0211672
1.78858
6.19584
0.0202892
0.0202779
0.0219204
0.0203486
0.0203397
3.2646
3.17524
0.0218937
0.0195993
0.0717058
3.35306
0.0216976
0.0213603
1.76407
3.40471
0.176973
2.9554
0.0913815
0.0211957
3.02875
0.0745606
0.043901
0.0720866
0.0233624
3.44205
0.0216685
0.0406087
0.0607283
0.0220042
0.0220391
0.0230425
0.0267987
0.0214433
3.72057
1.11941
0.0210048
0.020279
0.0225184
0.0202833
0.0216731
0.0245236
0.035983
0.0211208
4.19955
2.73581
0.0215031
0.0249065
0.937203
0.0202287
0.0881766
3.34607
0.0202393
4.25538
0.0213513
2.88301
0.0214536
0.0262351
0.0220787
0.0211547
0.140534
0.0227365
0.129641
0.0280883
1.09182
0.0247362
1.11628
5.47569
0.0211774
0.0499164
0.0274053
0.0244244
0.0281654
0.0234573
0.0211466
0.0223977
0.119671
0.0380088
0.0394463
0.0232949
0.0213434
3.58051
8.24618
0.0210505
0.0232184
0.0244621
0.775754
0.118712
2.76408
2.96535
0.031494
0.140833
0.0245968
2.89842
0.852277
0.202337
0.0243485
0.0274985
1.54474
0.0221053
0.0425658
0.0926173
0.0218268
3.45796
0.0211948
0.0399724
0.0204276
18.6687
0.0207923
0.0372325
0.0363535
0.0336802
0.0217118
0.0721906
3.13791
0.0221122
0.0220965
2.95129
3.21108
2.75463
1.53077
0.0202184
0.0218544
3.47128
0.140677
0.0202316
0.0280912
0.0216962
0.0536187
0.0383012
0.107229
0.0872872
0.0888798
0.0395612
3.16447
0.021168
0.0221202
0.0304972
0.172146
0.0217956
6.01175
0.0393313
0.286399
0.0218021
0.113027
0.0233223
1.19378
0.0217113
0.160804
0.761054
0.039055
0.0215262
1.84218
0.0206633
2.69119
0.142108
0.0217211
1.20387
0.0224595
0.279393
0.0206905
5.93657
0.281721
0.0235189
1.83261
0.0779214
0.0230091
2.73552
0.218486
0.023118
0.141563
0.0217636
0.0798056
0.202704
0.0212195
0.025999
0.0232688
0.021141
0.0209306
0.0212179
3.01665
0.120905
0.0219446
0.0212752
0.0215646
0.0487055
0.296567
0.0202747
0.0196135
0.11691
0.112325
0.0211803
0.0233745
2.67701
1.498
0.0575675
0.113415
2.63226
0.0207154
0.0202457
0.0308154
0.0209208
0.0202876
0.0219735
0.0202599
0.0206602
2.97514
0.021809
0.0407463
3.84713
0.0495262
0.0208896
0.0216211
2.76074
0.0299862
6.50164
0.0203721
0.0213448
0.0207526
0.0203591
0.0238713
0.0226538
2.64351
0.0284655
3.44793
0.0213391
0.0343754
0.0275168
0.0221901
0.0895397
2.74076
0.0216626
1.75754
0.0209222
0.0213348
0.0215187
0.0224786
0.0208289
0.022205
3.53617
3.40476
0.020812
1.24794
0.114849
0.0218746
0.0540765
0.068849
2.69775
0.0267397
3.3725
0.287481
0.289612
0.0226783
0.0253613
0.0279387
0.0232277
2.48106
0.0208987
0.0216334
0.0222225
0.0256762
0.0328938
0.153556
0.0514775
0.0244738
0.0257189
0.0667208
0.0524463
0.0219466
1.4022
0.0352908
0.0281128
2.7503
0.0211576
0.0543953
0.133951
0.0208349
3.35073
0.0214384
0.0203557
0.0499654
0.0203797
0.0224459
0.118643
3.60328
1.80423
0.0211267
0.0224265
0.0232413
2.28768
2.32454
0.0218452
0.0217262
0.0211079
0.0563978
0.502885
0.0211851
0.021715
0.0220846
0.0211218
0.0259065
0.0281876
0.0211118
0.0522574
0.0208375
0.0216056
0.0231297
2.82434
0.0203994
0.0236599
0.0214488
0.0333631
0.0634225
0.0581654
0.0631956
0.124588
0.0228995
0.0588295
3.64544
2.8622
3.48608
0.0209789
0.0214736
0.0249832
0.0214218
3.15719
0.0202556
0.717043
0.0257324
3.51137
0.0967805
0.0239115
5.7889
0.0208021
0.0597948
0.0222021
0.022411
3.52072
0.0203155
0.205069
0.0212739
0.0228524
0.0215171
0.146686
0.026342
0.0202609
0.102986
0.0529584
0.316809
2.71833
3.65853
2.67185
0.0204068
6.0288
0.0205797
3.39426
0.572803
0.0229447
0.0241985
0.0213869
0.0348192
0.0235755
0.0203274
0.0222165
0.0242565
2.43422
0.0211763
0.0577053
0.0216011
0.0202503
0.0215371
0.147284
2.77244
12.3371
0.0675753
0.028054
0.911305
3.25278
0.0207154
2.6931
0.0240235
0.0925961
0.0214162
1.48708
0.0211029
0.0262993
0.0216833
0.296917
0.0361861
3.10178
0.0211923
0.0346472
0.0213634
0.0215473
3.04173
0.12642
0.0215478
0.116236
0.0213431
0.0221152
0.0213403
2.91697
0.0211802
0.0273011
0.0202454
0.0214491
0.17163
0.0212467
0.108348
0.0221894
0.02081
3.44796
0.0593921
0.0217909
17.6425
0.201444
0.119616
0.139467
0.0207865
0.0287765
2.91716
0.214616
0.0295715
0.0240043
0.0266503
0.0220419
0.0212118
0.0952779
0.0684453
0.024919
3.06168
0.0366274
0.906488
2.38738
0.037613
0.0354987
0.128842
3.81546
0.0211521
0.0308995
0.128485
0.0208217
0.0213122
0.0215265
0.0250124
0.022485
5.73152
0.0339227
0.021176
0.0862595
0.0210898
2.75506
0.0213441
0.0211277
3.51022
0.0596908
0.335148
0.0217935
0.0212007
0.0210958
0.0221186
0.028001
0.0211408
6.01752
0.0300991
0.467094
0.338914
0.0307272
3.68216
0.022432
0.0221125
0.0214238
3.23986
1.83178
0.0261355
5.74199
0.719423
0.0208027
0.0210861
0.0238835
3.2772
0.335093
0.0364549
0.0220849
0.0236575
0.095518
0.0239729
0.106465
0.0340672
0.0221574
0.0223485
0.0221376
0.0279119
0.0256949
0.218196
0.0248039
0.024157
5.76534
0.021036
0.723807
0.0236946
0.033303
0.0255503
0.209309
0.0219057
0.0564189
2.73993
0.243237
0.0214455
0.0248297
0.0231057
0.0213384
0.0216685
0.0324672
0.0288335
0.159282
0.109042
0.0207602
0.191803
0.0253064
0.0257097
0.119744
0.0219462
0.0596943
0.338109
0.0202863
0.0597318
0.0780264
0.0337595
0.0210328
0.0208559
0.0212007
7.08965
0.0222064
0.0215105
0.0394837
0.0211652
0.0209347
0.104803
0.12192
0.0391165
1.62327
0.0495244
3.52829
0.0216736
0.0249838
0.410553
0.0229852
0.0314946
0.0216902
0.021272
0.0217678
0.0252765
0.060171
0.0210281
0.0481117
0.0219253
0.534794
0.0237324
0.0266794
0.0204371
0.0728675
0.0264977
2.8284
0.0406548
0.0221108
2.8016
0.0224356
3.9368
0.0233846
0.0579461
0.0235112
0.0209112
0.0214296
3.38981
0.027826
0.157331
1.6097
0.0213326
0.0340256
0.019586
0.0257775
0.555478
0.0196116
2.82648
0.023738
0.0603116
0.0982383
0.504829
0.0204065
0.0213559
0.0958435
0.0207763
0.0216497
0.0229141
0.021428
0.0395935
0.0203951
0.106527
0.0221541
5.57293
4.04825
0.713689
3.519
1.75169
7.41885
0.80587
0.0207414
0.0220037
0.0215628
0.0224403
0.0211118
0.0279433
0.0212192
0.379068
0.0216852
1.53298
0.0221242
0.0303242
0.0839409
0.0210154
0.0405894
0.0224338
0.0226535
0.0258208
0.020663
3.76811
0.0731588
0.137638
0.0210477
0.0215068
0.0219309
0.0220044
2.67967
0.0207633
0.1223
0.0210864
0.282719
0.0259149
0.0211993
0.0581143
0.0296768
0.0207743
0.33654
2.64296
0.0239858
0.0726826
0.0207551
0.118723
0.0209273
0.0220042
3.52098
0.0216174
0.022298
0.0848869
3.85333
0.0215666
0.840883
1.1784
0.0218359
0.0230453
0.021473
2.29125
0.0214789
0.110519
0.0216739
3.39726
0.0262666
2.35561
0.0212782
0.020139
0.290082
0.0229679
0.0209308
3.66397
0.0228663
0.0209185
0.877744
0.0218535
0.0219963
0.0675696
0.023015
3.16266
0.0384382
0.0686322
0.127654
0.0235935
3.34508
0.0223647
0.0634133
0.021386
3.68426
0.281477
0.0218482
0.0209726
0.0220675
0.0218485
0.0207567
0.0207224
0.021069
0.0214218
0.0286871
0.0202869
0.0226898
0.0678237
2.65674
2.83268
0.0789421
0.0219415
0.292547
0.0211757
0.399169
0.510932
24.333
0.0203152
0.0207508
0.0217239
0.021592
0.020296
0.0207366
0.0212426
0.0366318
0.020926
11.1914
0.868295
0.0209517
3.41439
0.0213968
0.021228
0.0278948
2.88566
0.0570696
0.0212772
0.333767
0.0212121
0.0212338
0.263858
0.0221079
0.927578
0.0223795
0.0682896
0.0208994
0.0210575
0.0302123
0.248469
0.0228045
3.0773
0.0303919
0.0229692
0.0233482
0.0215044
0.0208378
0.0851023
0.0330691
0.0247548
3.13322
7.99374
0.156532
0.0898278
0.0210096
3.25744
0.0210006
2.88111
0.059026
0.0260885
0.0226346
2.53121
1.7889
2.45448
0.0221634
0.494152
0.0207778
0.0212249
0.0341974
0.0220993
0.0216497
0.351715
4.14601
0.0210564
0.027009
3.41967
0.0212397
0.0202411
0.710824
2.77483
0.022325
0.0206772
0.0261557
0.0215988
0.0211867
0.0325066
0.0254402
0.0215444
0.411541
0.0221582
0.234342
0.540563
0.0301155
3.56965
0.021821
0.0220777
0.0853303
3.86708
0.221696
0.0238345
0.0314274
0.0219919
0.0224085
0.0215305
2.80996
0.0271182
0.02228
0.0499786
0.0211559
0.242644
0.0708236
0.107408
0.0554815
0.298747
0.329905
2.62889
3.16379
0.0235992
0.301072
0.0202553
0.0548236
0.0729175
0.548717
0.0244507
0.0224297
0.0252448
0.872384
0.0229991
2.67944
0.0339123
0.0813413
2.71598
0.0212575
0.091757
0.0233074
0.0216327
0.0273572
0.185193
0.0202542
0.0207097
0.0226627
2.94278
0.0209158
0.0228782
0.0235745
0.0223617
0.0215376
0.0844218
0.0641869
0.0222844
0.0210096
0.0899651
0.0665311
0.035567
3.41915
0.0218406
0.0214484
1.78694
0.0215184
0.023087
3.19787
3.45701
0.0290557
0.0548674
0.0261631
7.65041
0.126155
0.0316257
2.70721
0.0211424
0.0740886
2.64299
0.185918
0.431888
0.9284
0.0206373
0.0215649
0.0243905
0.0215593
0.0216547
0.217913
0.0216264
0.0426963
0.0204856
0.0534216
2.74633
0.0230427
2.42917
1.74017
0.0214475
0.0700034
0.0258489
0.0227504
0.0213398
3.33411
0.0663226
3.65327
0.0270094
3.90936
0.0795228
0.0212336
0.620946
0.0341014
0.0226634
0.0212123
0.162785
0.0213465
0.0252848
0.0355528
0.0252237
0.0220219
0.051941
2.29411
0.0211429
0.151853
0.0681789
0.0216481
0.021153
0.0243223
2.30589
0.278145
0.0208485
0.0295343
0.0273582
0.713059
6.66727
0.0216083
0.0209421
0.0206348
0.0215103
0.0244749
0.0237455
2.63686
0.0220829
0.0241591
0.218883
0.0275371
0.0779669
2.8108
3.79118
0.0218211
0.0215385
0.0208939
0.0226057
0.0643434
3.82683
0.0844053
0.0863085
0.0295304
0.0471479
0.0234895
0.0311882
0.0250225
0.0998097
0.0210814
0.108277
0.0348201
0.0207566
0.0217743
3.01577
0.046443
0.160369
2.66483
0.114688
0.0210982
0.592796
0.0234867
0.0212355
2.75499
0.463353
0.0210964
0.0290098
0.0971956
0.0327717
0.0222327
0.0203771
0.0211655
0.0208626
0.0213357
0.0289945
0.0483561
4.48103
0.0332272
0.0254267
0.0306589
0.0768284
0.0209744
0.0329647
0.155591
0.210358
2.72206
0.0227946
0.0203606
3.56712
0.0210507
0.212546
0.0228146
0.0409266
0.0218844
0.0211013
0.179586
0.0258794
0.0227091
0.0214968
2.48075
0.341242
3.31788
0.021772
0.0215363
0.9712
0.0210944
0.020737
0.1086
0.453597
0.0263871
0.0323777
0.0221679
2.8565
0.0212449
0.0242107
0.0220232
0.0203463
0.204908
0.0212406
0.020845
0.436391
0.0546434
2.25005
0.202725
0.0211843
0.0294047
0.0209418
0.021059
0.0233947
0.0225307
0.0216274
0.174812
0.0215991
0.0671168
0.0269776
0.0250705
0.0216173
0.0218732
0.0211688
3.37918
0.0202473
0.574999
0.0644644
0.0228395
0.0490694
0.0323332
0.0297119
0.021524
0.0263421
0.0209307
0.0207516
0.277004
0.0353273
0.0260901
0.0213736
0.0212643
0.020982
0.0696597
0.0211589
2.91341
0.0434237
0.0211206
0.0213116
0.0206097
0.0431713
0.0648549
1.77515
0.0325984
0.231382
0.0252282
0.0876563
0.0237022
2.86079
0.0204783
0.0202102
0.0246602
0.224859
0.0206369
2.97323
0.0215937
0.0214855
0.11076
0.162022
8.2503
0.100431
0.0253581
0.136313
0.0309277
0.0206836
2.87385
0.0214071
0.0213497
2.18569
0.020541
2.99717
0.0328998
0.0210695
0.0214362
0.0207159
3.69097
0.0215981
0.0203746
0.0693887
0.0211898
0.0209119
0.0216325
0.0206992
0.0428081
0.0217144
0.0239859
0.0207014
1.19811
0.0537465
0.020721
0.0207285
0.0222756
0.021296
0.0237373
0.0218437
0.0212621
0.0217414
0.0214548
0.0224559
0.0215025
0.0610227
0.0206034
0.0732965
0.0216353
0.0459207
0.0208169
0.0216068
0.0211468
0.0202884
0.0349572
0.0259356
0.0248744
2.33287
0.0702527
3.45395
2.82597
0.0732621
3.5792
0.0215938
0.0214799
0.500426
2.77912
0.0210525
3.36282
0.0206964
0.108647
0.760741
0.0236105
0.0751665
1.64092
2.01809
0.0213721
0.0444678
0.0209671
0.146127
0.0240721
3.18453
5.50317
0.0217115
0.0480345
0.247365
0.0220559
2.23268
0.249441
0.0230789
0.0209525
0.189688
3.35105
0.0206814
0.0310057
0.0218957
0.133349
0.119102
0.0215579
0.0208448
1.72259
0.0210174
0.0214539
0.0221056
0.0207253
1.52216
0.0283106
0.0278834
3.20767
0.0213409
0.0547403
0.0217232
0.176521
0.0520051
0.172687
0.0207868
0.0271066
0.020948
0.0217193
0.0236769
0.0214948
2.45979
0.0225937
0.0207646
0.0211544
0.269113
0.0209351
0.533618
2.5919
0.757394
0.0215159
0.0209076
0.0212464
0.842688
0.0217929
3.20195
0.0214466
0.328046
0.0229542
0.0226491
0.183647
0.0216129
0.0218744
3.40463
0.0990721
2.95265
0.0218254
3.50967
1.54745
0.0215534
3.15065
0.0216931
0.0252079
3.20379
0.0234088
0.039725
3.71643
0.0291668
0.0627006
0.0216037
2.4669
0.0214328
0.547605
0.0212493
4.27463
0.0214542
0.0215765
0.023319
0.487577
0.0209397
0.0562364
0.060025
1.5112
0.0212619
0.0285205
3.50024
0.182823
1.82134
0.0710843
0.0208127
0.0997074
0.248182
0.0238646
1.09804
0.0201715
0.127557
6.19398
0.0209801
6.5714
0.0213138
3.44657
0.941014
0.0236389
0.023717
0.554179
0.70621
0.0214762
0.0227384
0.0207388
0.0215765
3.16874
0.0600085
0.167464
0.0216449
0.0268961
3.0379
0.0311284
0.777323
2.06809
0.0211467
0.0213886
0.17186
2.65522
2.27038
0.709192
0.178746
0.0369145
0.0505932
3.45564
2.66109
0.475295
0.0209525
0.0733734
0.0424468
0.0656538
0.0214515
0.0257348
0.0556903
0.118184
0.75517
0.0219643
1.47663
3.19083
0.041168
0.0214314
0.0214359
0.10212
0.0209408
3.58031
0.0274769
0.0218111
0.155316
0.0360878
0.0207067
0.0344556
0.0289359
0.0214773
3.73172
0.0264468
3.75307
0.020972
3.03552
0.289095
0.178905
0.0202877
0.0260025
0.0296424
0.132642
0.102146
0.0630711
3.1715
0.11973
0.0196423
0.0253619
0.0222339
0.111128
6.35619
0.0208253
0.0206825
0.0226424
0.881249
0.137939
0.021024
0.0471762
0.151737
0.0209232
0.0346669
0.0237614
3.73938
0.0267808
0.127015
3.29315
0.0277201
0.0242618
1.08332
0.0211428
0.0440493
2.83299
0.024544
0.0771994
0.030598
0.0542479
2.61087
3.45847
0.0215817
1.13935
0.124772
0.0205495
0.117667
0.0619487
0.0986925
2.29515
0.294102
0.751105
0.0972657
2.68678
0.0263986
0.061462
0.0206011
0.0217594
0.0215285
0.0209165
0.18883
0.117358
0.0202563
0.0436666
0.153841
0.0211296
0.420463
3.11133
0.0200399
0.0217517
0.0207221
0.0225121
0.0422932
0.0214292
3.79697
0.0287906
0.0650806
0.0255166
0.0638801
0.0491645
0.0318073
1.53037
0.0214762
0.0226118
0.0202181
0.0209162
3.53172
0.086673
0.0281167
3.7832
0.0217058
0.0220567
0.030946
0.0207268
0.0210653
0.0681842
0.0250169
3.20932
2.21287
3.28437
0.0216346
2.98312
0.0212645
0.32153
0.0206857
0.125211
2.55875
0.0215137
0.608559
3.48363
0.0314309
0.0224478
0.0210044
0.027173
2.71262
0.0207004
0.0218037
0.0225113
0.0237508
0.175539
0.0228392
0.0252805
0.0211155
0.0224922
1.13027
0.0328344
0.0237865
0.11129
0.0881953
3.25996
0.97283
0.0232024
0.0224482
2.90612
0.021469
0.061215
0.0216626
3.22606
0.0220794
0.0219142
0.031431
2.85883
0.021392
0.0207823
0.0204617
0.128796
9.98827
0.106062
0.0214825
0.0237029
0.0209237
3.26884
0.0212028
2.11851
0.0534397
0.0217085
0.15333
0.0324595
0.200613
0.0220691
0.0207271
0.0293205
0.0395152
0.108817
0.0217409
0.0219484
0.0219628
2.8839
0.0216399
0.0224096
3.41421
0.0229644
0.0275442
0.0243439
0.0210884
0.0212371
0.606912
0.0233117
1.63877
0.267983
0.0200001
0.748632
0.0218825
0.0954142
0.0459757
0.0226508
0.0203267
0.0199742
0.0214171
1.17898
0.0449491
3.43049
2.68849
0.0209474
0.0287949
0.0369551
1.14476
0.0214171
0.0566088
3.46905
3.11391
0.0212906
0.0228829
0.0220088
0.690554
3.50316
0.0216519
0.0215505
0.0296214
3.99031
0.0216845
0.0229586
0.0229184
0.10613
0.653121
0.0205001
2.78584
0.0283173
0.0214199
2.64921
0.0531543
1.0153
0.946349
0.0310479
0.0254501
0.0224691
0.0261946
0.0221002
0.0650511
0.0447714
0.0212698
0.0241791
0.200973
2.34051
0.020685
0.0980797
2.99631
1.16778
0.0214086
0.0215608
0.280034
2.73899
0.0754076
0.0211564
2.59896
0.0616831
0.0200584
4.47932
0.0267599
0.0217209
0.156177
0.0214243
0.0304834
0.0208761
0.0198814
0.0215633
0.0204558
3.09472
0.0202484
0.0211733
0.0714172
0.0247478
0.0242239
0.120551
0.0215276
0.0214845
0.0228191
0.0223827
0.246875
0.233975
0.438109
1.1272
0.0330036
0.523934
0.0440569
2.89636
2.6783
3.03376
0.0208937
0.0291603
0.0214376
0.0215523
0.0209728
0.022254
0.170385
0.0554216
0.0366985
0.0211061
0.0213948
0.0522878
0.0217846
0.0218995
0.0215335
3.27708
0.0300812
7.6958
0.0216225
0.274729
0.0219992
0.0218431
0.0221556
0.0406396
0.0210607
0.0785643
2.93489
0.0393194
3.63297
0.598475
0.0230709
0.0268936
0.350607
0.102088
0.0203852
0.0209265
0.0199931
2.71758
0.0198621
0.0703742
0.041275
0.0716603
1.61569
1.56797
0.0605813
3.7666
0.0206976
0.0204562
0.27037
2.97026
0.0214306
0.0216077
0.495059
0.0209657
0.169486
0.0228697
0.0211431
0.0250269
0.0215295
0.0663355
2.85741
3.1179
0.0244726
0.0215602
0.0715147
0.0225255
0.0715651
0.0209024
0.123824
0.0833103
0.0218987
0.0216719
0.0200454
0.109894
0.046873
0.178484
1.63476
0.0288477
2.98562
0.0685111
0.100574
3.33964
0.0212827
2.697
0.0223218
3.30627
0.170809
2.67171
3.18201
0.0221189
0.0507629
0.261809
0.021452
3.833
0.0214966
0.0215154
0.0255686
0.0220914
0.0297888
0.183116
1.38743
3.35218
0.0254187
0.0383228
0.0225183
0.0218455
0.021687
0.116747
0.0796819
2.89631
0.0423702
0.0202988
0.0207504
0.0220685
0.214365
0.0239063
0.022412
0.0247214
0.0790685
0.0305509
0.0403154
0.0356461
2.76472
0.02852
0.0316131
0.0214237
0.025637
0.591414
0.317254
0.0442844
0.0207209
2.67528
0.0315963
0.0211303
0.0458704
2.93209
0.151271
0.0320153
0.0209776
2.67292
0.0219494
0.0209313
0.0203379
2.19266
1.37987
0.0230609
2.38491
2.93804
0.0245907
0.0356678
0.0560562
3.71801
0.0296804
3.46751
0.0219909
0.0702136
0.0247016
3.6379
0.032139
0.0208357
3.06914
0.021691
0.0223161
1.76432
3.11674
0.062998
0.926659
0.0242078
0.0226124
2.3882
0.0211353
0.0211887
0.02159
0.042828
0.0214023
0.0301157
0.0245903
0.143745
1.67618
0.022173
3.817
0.0244539
3.00872
3.49352
0.0215647
0.0217473
0.0251419
0.123446
0.169887
0.0621977
2.92922
2.70988
0.124576
0.0225541
2.81201
3.09155
0.0443815
1.2519
0.0216115
0.0213394
0.0216056
0.0224473
0.021302
0.0319657
3.1693
0.0300249
0.272521
3.24017
2.80954
3.17537
3.30794
0.0278185
3.61758
0.0980524
0.0690464
0.0206647
0.0214988
0.0635191
4.05906
0.0225205
2.8306
3.16864
0.0209325
0.0216111
0.0216774
0.0796621
0.0220463
0.0676488
2.71916
0.0206601
0.0214082
0.0209111
0.0222349
0.0907064
2.96896
0.0347832
3.05352
0.100149
0.0211651
0.258675
0.112159
0.0217998
0.428315
1.31215
2.7787
2.02401
3.47281
0.0213799
2.56219
3.01072
0.143338
3.03779
0.0209583
0.0231063
0.0236588
0.0232642
3.26976
0.0616329
0.0217198
0.0266521
0.284671
3.09487
0.0224489
0.0220711
3.51941
3.28587
0.0217356
0.0272597
0.096575
0.0213268
0.0214175
2.42611
0.021119
0.216354
0.26464
3.37322
0.0210443
0.0671766
0.129451
0.0211001
0.020104
2.45482
2.33443
0.021921
0.0319283
0.150845
0.19856
3.5141
2.19473
0.0252772
0.247136
0.33666
0.0332882
0.0211148
0.0788789
0.020412
0.0202091
3.26959
0.0361891
0.0864265
0.0241649
0.0253292
0.0209437
0.020458
0.0221293
0.0223288
2.60861
0.0239331
1.44449
6.14954
0.0416662
0.0664381
2.7036
3.5554
2.63438
0.0208417
0.0245451
0.0337788
0.025066
0.166381
0.344959
0.0221053
1.01492
3.28347
0.0260343
0.0846371
0.0699975
0.0923317
0.100698
0.0226765
0.111857
0.122625
0.134972
0.149526
0.10411
0.0764865
0.0261323
0.0210937
0.0316933
0.0838914
0.0210797
0.269517
3.67077
0.157274
3.02074
0.0200784
0.0207093
0.0295922
2.83569
0.0222523
0.0236432
0.0598507
3.42967
0.669659
0.0214944
0.0298644
0.024858
4.65335
0.277533
0.0239485
0.332236
3.06468
0.09318
3.37724
0.0874904
0.135047
3.61435
0.0195859
3.71386
3.15559
0.0224504
0.0648476
0.0894269
0.0251915
0.0208782
0.118649
1.08699
0.0208484
0.0208934
2.6273
0.615154
0.0727841
0.0217373
0.200133
0.117706
3.1383
3.75116
0.0215889
0.0213795
0.0222034
0.0229043
3.40828
0.63296
3.02263
0.0783163
0.164745
0.462999
0.0229124
0.0210523
3.12731
0.020914
3.5509
0.021051
3.37637
0.022481
0.0223518
0.78924
0.0215957
0.102883
0.542567
0.0243654
0.0234012
0.022605
0.165113
3.30514
0.140212
3.047
0.023955
0.0227394
0.0271522
0.0701344
3.82248
3.682
0.0882073
0.20277
0.113874
2.6183
0.0208566
0.0208807
0.0206759
0.0206659
0.149685
0.0660781
0.161339
0.0392268
0.135429
0.0211172
0.287544
0.176355
4.34471
0.021471
0.0227522
0.0198969
3.00884
0.0275145
0.360544
0.146832
0.110952
0.17833
0.0200188
0.0356448
0.133625
0.15626
0.522817
0.0216489
0.122246
0.0220018
0.0218746
0.0909023
1.08879
1.72989
0.0217974
0.0786571
0.119398
3.21608
5.24713
3.4184
3.42672
0.0210116
0.05712
0.0215836
0.126897
0.0211536
0.100489
0.0231231
0.0466467
0.244617
0.568583
0.0235532
0.0897811
3.13117
0.107394
0.0233972
1.7513
0.0986764
0.0223482
0.0222114
3.32162
0.0280232
0.114478
0.313064
0.078063
4.05892
0.0231635
2.96868
2.91161
1.02475
0.12436
0.0304648
0.0999251
0.0903823
3.36141
0.0621481
0.0221324
1.29811
0.0440225
0.25521
0.0269808
2.89166
0.795834
1.90459
0.0257726
1.54604
0.0239265
3.08412
0.1362
1.9742
7.36591
0.0209408
0.0198798
3.11507
3.67665
0.0304122
0.0220483
0.0402059
0.0291755
2.97847
0.0733323
3.17991
0.0255367
3.23817
0.111961
1.22943
0.0220887
0.149727
3.22071
0.0237634
0.0789638
0.0200646
0.0240815
0.0216349
0.243913
0.0211896
0.0216314
3.58863
2.8267
0.0206477
3.75248
0.0222869
0.0214969
0.0213048
0.0209102
0.0217669
0.494957
3.49275
0.0206293
0.26669
0.0640215
0.0458919
1.32411
0.0804964
0.0251225
0.0310839
0.0212965
0.244015
0.0292922
3.78891
0.0246114
3.16258
0.900228
0.0663441
1.83201
3.30804
0.0207817
3.69303
0.0528744
0.0622057
0.0403725
0.0211713
0.0392634
0.174427
0.0215922
0.199426
0.0214198
3.39392
0.132994
2.58492
0.161234
0.154174
3.55683
0.0215784
0.0211514
0.0596179
0.0228239
0.0217472
0.0217755
0.0266271
0.0210891
0.0212003
0.0225769
0.0409699
0.0230848
0.0266888
0.0228846
0.0347747
0.0937233
0.0233914
3.49822
0.0231705
0.0212571
0.0874707
0.0406718
0.0230288
0.0210762
0.208058
0.0233078
3.19376
0.0234848
0.104565
0.0213062
0.0214033
0.0891862
3.6555
0.066994
0.0338378
0.0201594
3.15212
0.0216584
0.0211638
0.0728828
0.0237891
0.129667
3.10937
0.0919591
0.133048
0.0399047
4.12098
0.0214814
0.0216313
0.0597225
0.25002
0.0569576
0.0929373
2.71993
0.0269425
0.021579
0.027347
0.200868
0.0546583
0.0216114
0.0953887
0.0906979
0.0612482
0.0217607
0.0216474
0.17058
0.0601635
1.99796
0.52207
0.0235358
0.0670989
0.0217351
0.0427096
2.34637
0.0217013
0.148541
0.0271942
0.0779435
1.18384
0.0215557
0.0213634
0.0212494
3.58673
0.200407
0.0233005
0.0884937
0.104065
0.0217105
0.0214113
0.108392
3.69696
0.172726
3.16082
0.137674
0.0298943
0.380635
0.114081
0.0296904
0.441512
0.0830298
0.425531
0.0215287
0.0912257
0.125686
0.0223263
0.237156
0.0379844
0.0784549
0.0265776
0.138251
0.0210965
4.03138
0.0243229
0.0208028
0.0209347
0.0207479
0.0225823
0.0223865
0.0208823
0.0239459
0.0216203
0.0222687
0.244678
0.0746743
0.0221736
0.0606849
0.0243642
0.0224538
0.0204212
0.0447947
0.0261901
2.42712
0.0215734
0.021595
0.0647832
0.151897
0.0216049
0.0215539
0.104087
0.023411
0.086203
0.0576899
0.0215426
8.41298
0.0236204
0.0222759
0.0700398
3.79888
0.0223725
0.0554993
0.0208455
0.0254549
0.0213206
0.0266404
0.0211882
0.02161
0.0445928
0.0581302
8.90323
0.048967
0.0215076
0.0278953
3.27559
0.0482895
0.165643
0.0942971
0.0216452
0.0516711
0.885546
0.173164
0.994101
0.0255062
3.38605
0.337499
0.0286925
0.0217139
0.0707592
0.0222299
0.054129
3.12279
0.0215676
0.0597235
0.0217947
2.88704
0.0453555
0.0223493
0.0588416
2.99123
0.272939
0.0236922
0.0695156
0.0298209
0.0206313
2.31418
0.0205108
0.0329828
0.0210962
0.0246988
2.68201
0.0688277
0.0207193
0.0282301
0.149939
0.0215532
0.0219
0.0278129
0.0249792
0.0214598
0.0236046
0.0242034
0.0220193
0.0210948
0.0591338
0.0978955
0.166745
0.0210292
0.0558419
3.02008
4.37237
0.0208218
0.0216006
0.0248576
0.0853484
0.0221583
0.0210692
0.0212205
0.0208718
0.0255427
0.0271
0.0246073
0.06254
0.0231883
0.0204339
0.0231731
0.061137
0.0456098
0.101098
0.0221541
0.0279989
3.23609
0.0286956
0.024451
4.18324
3.22153
0.0933124
0.0647211
0.151194
0.0213555
0.310204
0.0265009
4.04662
0.0214153
0.0212294
1.60977
0.020812
0.262609
3.13529
0.0219864
13.7286
0.0301496
0.0313879
0.0263907
0.0693549
0.0281995
0.0258988
1.60241
0.0208777
0.0240524
3.56131
0.0229066
0.0214534
0.0296738
3.19472
0.0221857
0.0221875
3.24247
0.0234841
0.0263512
0.055965
0.0203484
6.19567
0.0239198
0.0223231
0.0963444
0.0549916
3.00619
0.0233351
1.93409
0.03291
0.0847405
2.86557
0.0215585
0.0319416
0.0859686
0.0221599
2.06368
0.0222122
0.0231316
2.94278
0.0222642
0.0402505
0.0836102
0.802945
0.0296114
0.0261582
0.022308
0.023714
0.0850306
0.0242331
0.0302208
0.0775974
0.0518502
0.0216425
3.4229
0.0372967
0.0204448
0.022765
0.0212384
0.0207623
0.0203541
0.0215759
0.0215244
0.0293353
0.0237026
0.0389168
0.0202118
0.0204422
0.0221946
0.0747685
0.0207392
0.0296605
0.0610775
0.028111
0.029438
0.0214122
0.023142
0.0240476
0.0369405
0.0277608
0.0240918
2.75199
0.021721
2.35766
0.0246115
0.0841252
0.0808656
0.0215397
0.0565861
0.0307565
3.16008
3.05398
0.0251405
0.0217408
0.0234067
0.0292629
0.0467324
0.0216246
0.243843
0.0514209
0.0222454
0.0559381
0.0450164
0.0615678
0.0277303
0.158642
0.089079
0.0265263
0.23572
0.0231066
0.121018
0.0224313
0.0212708
0.0781356
0.0801563
0.0213998
0.0483196
0.0214454
0.021659
0.0214651
0.0220237
0.021494
0.0214119
0.0214001
0.0221853
0.152068
0.0226353
0.0213543
0.0224211
0.0225052
0.179795
2.97953
0.0571802
0.0239381
3.33441
0.0214405
0.0213676
0.0735766
0.0315352
0.0222466
0.0222279
0.0216659
0.154714
0.0217686
0.0253022
0.0222894
0.0330778
3.80044
0.021457
0.0562963
0.0628118
0.0249076
0.0421142
0.0206856
0.0216939
0.0571984
1.13843
0.0231589
0.035117
2.19504
0.0870807
0.0207986
2.86081
0.0226129
0.0196418
0.0536125
3.55157
0.0214491
0.020723
0.0230641
0.0301489
0.0327474
0.0214274
0.0223775
0.0384191
0.021689
0.0281235
0.0254912
1.14815
0.0204208
2.78738
0.363301
0.0383835
0.0213261
0.0872948
0.0210225
0.0232811
0.0215895
0.0537966
0.0201841
0.0201656
0.039494
0.0576361
0.80401
0.0219007
0.0200827
0.0231843
0.0208018
2.90765
0.0232689
0.022724
0.0221079
0.0589445
0.0464728
0.0234044
0.0230003
0.0437346
0.0216713
0.0216567
0.0233093
0.0221201
0.129193
0.0211698
0.0296411
0.0219833
0.0215227
0.0477787
0.0856632
2.7916
0.0214657
0.0539496
0.158226
2.99089
3.34656
0.0309316
0.0215281
0.0243254
0.0293449
2.57118
0.0218598
0.0248913
0.02666
0.0303294
0.0202373
0.0527457
0.0453603
1.08242
0.0220799
0.0216872
0.084857
1.14912
0.0201163
0.024364
0.0328087
0.0199775
0.0224438
0.0445253
0.020855
0.021464
0.0217181
0.0242703
0.0780308
0.0352606
0.0224608
0.0206428
0.0221645
0.135695
0.0199332
0.0208315
0.0255387
0.0844558
0.025312
3.61346
0.0242384
0.0214641
0.0215333
0.022978
0.0212079
0.0323852
0.12152
0.0208897
0.021008
0.0220084
0.0213043
0.0220665
0.0442513
2.70839
0.0228042
0.0946268
0.023337
0.0213183
0.19849
0.0233818
3.59697
0.0218021
0.0217478
0.0207316
0.0214871
0.0225081
0.0300691
0.0413852
0.128967
0.0273121
0.0518891
0.0217741
0.0321497
0.0214399
0.0232757
0.0327456
2.6755
3.07321
0.0218489
3.28669
0.143241
0.0412731
0.18772
0.0198358
0.0214133
0.0216711
0.0228371
2.80373
0.0207612
0.0683229
0.284688
0.0223803
0.0789595
0.0199672
0.030462
0.343628
0.955131
0.0218172
0.258158
0.109481
0.32864
0.0259016
3.34765
0.0225482
0.132023
0.0962802
0.0205099
0.0377765
0.0308929
0.0235293
0.138614
0.0301765
0.0209199
0.0221775
0.218833
0.0217454
0.050891
0.0215747
0.0199022
0.0228829
0.032042
0.0215454
0.077725
0.0262122
0.0235225
0.0198745
0.0215034
0.304283
0.0759156
0.134417
0.0330135
0.0247993
0.0273695
0.0252475
0.0214368
0.0226489
0.0328218
0.0230718
0.0240259
0.0203878
0.0256535
2.85199
0.0219855
2.24473
0.127967
0.0216693
0.0216693
0.0202564
0.0281789
0.0358927
0.020091
0.0252925
0.0228701
0.0219473
0.021125
0.0220459
0.0212446
0.0216073
0.24997
0.02187
0.0258327
0.0214597
0.156629
0.200496
0.0214647
0.271918
0.0216311
0.023822
0.030131
0.277572
0.0285573
0.0210062
0.0213371
0.0321914
0.0410394
0.140478
0.022657
0.0485512
0.109278
0.0219474
0.0214958
0.106487
0.0510229
0.0306172
0.0216836
0.0227388
0.0226663
0.0232451
0.020879