/*--------------------------------*- C++ -*----------------------------------*\
| =========                 |                                                 |
| \\      /  F ield         | OpenFOAM: The Open Source CFD Toolbox           |
|  \\    /   O peration     | Version:  v2012                                 |
|   \\  /    A nd           | Website:  www.openfoam.com                      |
|    \\/     M anipulation  |                                                 |
\*---------------------------------------------------------------------------*/
FoamFile
{
    version     2.0;
    format      ascii;
    class       volScalarField;
    location    "900";
    object      nut;
}
// * * * * * * * * * * * * * * * * * * * * * * * * * * * * * * * * * * * * * //

dimensions      [0 2 -1 0 0 0 0];


internalField   nonuniform List<scalar> 
13917
(
0.00300348
0.00288431
0.00110052
0.00599196
0.00580421
0.00300336
0.00337383
0.00249198
0.00296537
0.000269646
0.00232812
0.00684052
0.00333505
0.0121345
0.0059148
0.00186831
0.00684295
0.0023555
0.00185167
0.0016465
0.00510481
0.00683237
0.0020613
0.00683208
0.00651065
0.00486761
0.00760269
0.000132371
0.00305519
0.00680833
0.000160032
0.00298767
0.00680266
0.00929907
0.00682202
0.00256517
0.00652962
0.00696122
0.00295271
0.00386355
0.00678408
0.0067274
0.00306695
0.00195399
0.00196632
0.000664692
0.00532836
0.00303507
0.0014063
0.00682071
0.00683998
0.000897827
0.000462212
0.00684459
0.00684407
0.000952511
8.2831e-06
0.00233948
0.00674024
0.000395369
0.0065253
0.00615079
0.0067972
0.00620487
0.00850472
0.00380476
0.00265279
0.00255313
0.00230241
0.00276559
0.00462811
0.00824916
0.00682101
0.00677586
0.00500558
0.00658139
0.00638446
0.0067855
0.00661814
0.00679237
0.00678924
0.00684905
0.00681829
0.00421652
0.00671844
0.00154949
0.00250263
0.00676444
0.00449587
0.00686138
0.00678588
0.00284911
0.00166893
0.00683739
0.0068039
0.00293816
0.0069546
0.00687827
0.00675351
0.00178475
0.00680878
0.00679573
0.00678544
0.006825
0.00639303
0.00452865
0.00739444
0.0061878
0.00667384
0.0125084
0.00673627
0.00974212
0.00341762
0.0033737
0.00792913
0.00649177
0.00196938
0.00681272
0.00121668
0.00679339
0.00687371
0.00682322
0.00254763
0.00171265
0.00344396
0.00451732
0.00624796
0.00479278
0.00683524
0.00151434
0.0024871
0.000690489
0.0109778
0.0065196
0.00259998
0.0151193
0.00832771
0.00385135
0.00462339
0.00695365
0.0165063
0.00680822
0.00419817
0.00679456
0.00680977
0.00650148
0.00441466
0.0120415
0.00280881
0.00684636
0.0049906
0.00679933
0.00680332
0.00679366
0.0117182
0.0067303
0.00681773
0.0114139
0.00681624
0.00682206
0.00673683
0.0104418
0.00618767
0.0157878
0.00702422
0.00160102
0.00017504
0.00479209
0.0066946
0.00439618
0.00681832
0.0107974
0.00286703
0.0087346
0.00116869
0.00680874
0.00640401
0.00080059
0.00257149
0.00609007
0.00325801
0.00682802
0.00684119
0.00123042
0.00117979
0.000735787
0.00683978
0.000759435
0.00680806
0.00220069
0.00119688
0.00211214
0.00100107
0.00309214
0.00683471
0.00361732
0.00489365
0.0104843
0.0068227
0.00676939
0.00559236
0.00281234
0.00260893
0.00658895
0.00331668
0.00417606
0.00475094
0.00680758
0.000857869
0.00679025
0.00677134
0.0053048
0.00494944
0.00257362
0.00266667
0.00467043
0.0108184
0.00688468
0.00677277
0.00677235
0.00491506
0.000819556
0.000293618
0.00672055
0.0067827
0.0180567
0.00257396
0.00674621
0.00674239
0.00677609
0.00678477
0.00678454
0.00733892
0.00290863
0.00682452
0.00670703
0.00144259
0.00725031
0.00684048
0.00672036
0.00602029
0.00440992
0.00114593
0.0109073
0.000924259
0.00679406
0.00455548
0.00135409
0.00387804
0.0026843
0.00663348
0.00270631
0.00680041
0.00240543
0.00136597
0.00681079
0.00676371
0.00619363
0.00606386
0.00680045
0.00655317
0.00439088
0.00683015
0.006736
0.00671462
0.00673653
0.0068
0.00684065
0.00235363
0.00681507
0.00582445
0.00827312
0.00681519
0.00632329
0.000364699
0.00678558
0.00131581
0.00822268
0.00678503
0.00462369
0.00680877
0.0102865
0.00680856
0.00614592
0.00680193
0.00679521
0.00142704
0.00690565
0.000490059
0.00454911
0.00579961
0.00644616
0.00071458
0.00363576
0.00683714
0.00192498
0.00598847
0.00646198
0.00588536
0.00662401
0.00683273
0.0068972
0.000781944
0.0031555
0.00256805
0.00665148
0.00672014
0.0111279
0.00160242
0.00683121
0.00726651
0.00645425
0.00368009
0.00170856
0.00915123
0.00928087
0.00366383
0.000860632
0.00636823
0.00342993
0.003471
0.00110477
0.00683183
0.00595237
0.00455898
0.00678115
0.00278423
0.00213158
0.00683692
0.0106979
0.00672424
0.00217695
0.00682742
0.00031485
0.00671852
0.00265557
0.00419352
0.00379921
0.0068516
0.00268016
0.00341403
0.0068163
0.0067831
0.0105322
0.0036609
0.009353
0.00967097
0.00677358
0.0068318
0.00468799
0.000811526
0.0067748
0.00590499
0.00684304
0.0033966
0.00247386
0.00124837
0.000920298
0.0015245
0.00218833
0.00740347
0.0068392
0.00681461
0.005644
0.00119094
0.00682835
0.00226405
0.00253569
0.0121635
0.00684304
0.000895682
0.00687772
0.00379897
0.0067118
0.00045901
0.000651056
0.0040154
0.00682212
0.00109813
0.00680476
0.00661572
0.000892539
0.0067083
0.000905798
0.00674588
0.00392276
0.00678617
0.00207147
0.00325611
0.00661099
0.0181511
0.00166179
0.00669055
0.0103051
0.00101385
0.00667679
0.00141481
0.0068387
0.00153148
0.00110181
0.00672731
0.00318445
0.00665486
0.006784
0.00672022
0.0068411
0.00813133
0.00136363
0.00683153
0.00684198
0.00684365
0.00201016
0.00264166
0.00681683
0.00669519
0.00173339
0.000840075
0.00680326
0.00663404
0.00984011
0.0192068
0.00691906
0.00175927
0.00175885
0.00682689
0.00680709
0.00546725
0.0067185
0.00681549
0.00681464
0.00680679
0.00683003
0.00407676
0.00683807
0.00301546
0.00689657
0.00195421
0.00677645
0.00679877
0.0104127
0.00558958
0.00241758
0.00682702
0.00673544
0.00679881
0.00679716
0.0065464
0.00671333
0.00958277
0.00712135
0.00496117
0.00673561
0.00278959
0.00747794
0.0067963
0.000952709
0.00951706
0.00684286
0.0199855
0.00678289
0.00675887
0.00684285
0.0067427
0.00675932
0.00681004
0.0112517
0.00745764
0.00675378
0.000816894
0.00176207
0.00679409
0.00181637
0.00208939
0.00974837
0.00287905
0.00465809
0.00841611
0.00813682
0.00670828
0.0037546
0.00808601
0.00665271
0.00522922
0.00680179
0.00684557
0.00680249
0.00333491
0.00521039
0.00134261
0.00237211
0.0064241
0.00619724
0.0024231
0.00186949
0.00683109
0.0136572
0.00273885
0.0043735
0.00727472
0.00671894
0.0016196
0.000848395
0.0067153
0.0118665
0.00676817
0.00679728
0.00179905
0.00682583
0.00684432
0.000823162
0.0117633
0.0198802
0.00673323
0.00514617
0.00654614
0.00390119
0.00367449
0.00683911
0.00684466
0.006728
0.00157372
0.00662448
0.00684142
0.00684059
0.00677731
0.00677517
0.00620243
0.00347439
0.00681623
0.00240576
0.0067154
0.00684262
0.00667759
0.00926649
0.00671198
0.00416847
0.00679902
0.00240739
0.00179267
0.00287902
0.00136521
0.00151435
0.00671208
0.00237317
0.00975297
0.00389587
0.00857346
0.00682583
0.00684359
0.0064507
0.00677271
0.00838441
0.00679637
0.00458591
0.00444558
0.00809112
0.00126057
0.00341832
0.00122692
0.00675567
0.00194443
0.00689608
0.00663199
0.00750159
0.00682364
0.00106873
0.00679646
0.00681685
0.00684481
0.00140109
0.00616561
0.00671946
0.00193908
0.00212911
0.00693097
0.00279149
0.0109882
0.00914073
0.00671244
0.00272996
0.0067901
0.00785774
0.0120211
0.00655851
0.0066206
0.00680675
0.00247419
0.00332474
0.00682218
0.00689084
0.00683694
0.00167106
0.00674152
0.00262865
0.00684281
0.00671586
0.00683568
0.000557008
0.00787254
0.000824252
0.00239683
0.00347564
0.000497265
0.0078933
0.00679714
0.00766626
0.00682804
0.00213038
0.00677422
0.00107385
0.00676973
0.00616871
0.00681433
0.00588151
0.00250268
0.00955071
0.00681968
0.00248639
0.00682996
0.00679168
0.00813659
0.00153516
0.00680742
0.00118688
0.00672011
0.00667858
0.00679913
0.00935692
0.00674093
0.0060051
0.00679729
0.00681971
0.00120286
0.00679777
0.00139481
0.00685201
0.00671689
0.00678414
0.00268579
0.0068406
0.000462117
0.00109443
0.00283313
0.00078657
0.00675079
0.00526815
0.00814666
0.00102075
0.00564515
0.00652487
0.00615586
0.0068755
0.00683661
0.00533903
0.00160894
0.0056978
0.00549677
0.00232317
0.00258107
0.00485245
0.00505866
0.00261542
0.0011365
0.00560741
0.00683177
0.00564328
0.00632221
0.00671693
0.0068475
0.00684083
0.00647866
0.00683978
0.00289483
0.00230176
0.00677377
0.00227464
0.00682187
0.00986772
0.00681045
0.00683798
0.0119575
0.00199287
0.0112053
0.00682627
0.00669747
0.00683972
0.00606292
0.00289497
0.00680278
0.00294102
0.00423918
0.00968715
0.0116427
0.0055771
0.0109335
0.00524317
0.00689845
0.00682367
0.00894101
0.0192565
0.00476469
0.0030943
0.00238197
0.00672061
0.00683607
0.0065467
0.00414666
0.00851865
0.00257492
0.00621302
0.00395759
0.00207164
0.00647323
0.0012911
0.00226633
0.00680925
0.00678987
0.00687053
0.0030116
0.0062053
0.00101784
0.00639715
0.00636323
0.00302897
0.00653285
0.00310172
0.00658163
0.00349375
0.00423765
0.00103047
0.00687912
0.00225465
0.00727184
0.0122517
0.0067756
0.00639031
0.0069067
0.00675005
0.00680768
0.00529512
0.00746935
0.000791855
0.00139358
0.00674768
0.000891271
0.00278578
0.0030289
0.00121724
0.00682142
0.00230419
0.00211981
0.00670836
0.00196868
0.00103726
0.00236717
0.00680569
0.00676255
0.00683842
0.00194334
0.00680646
0.00678492
0.00230294
0.00680895
0.00679337
0.00107429
0.0010734
0.00441394
0.0198516
0.0037282
0.00485463
0.00680606
0.00630581
0.000191323
0.00655935
0.00596676
0.00684791
0.00683553
0.00683009
0.00631447
0.00248059
0.00680598
0.00810922
0.00679361
0.0111022
0.00657345
0.00296755
0.00682593
0.00249467
0.0061091
0.0101775
0.00378194
0.0068281
0.00898315
0.00677959
0.0057876
0.0033739
0.0037258
0.00655173
0.00681725
0.0067696
0.00962551
0.00310348
0.00276952
0.0196513
0.00674696
0.00231756
0.00670337
0.00624683
0.00500203
0.00671387
0.00447319
0.00381471
0.00284683
0.0020118
0.00393405
0.00674881
0.00683656
0.000872046
0.00675274
0.00684503
0.00670949
0.00684449
0.00225863
0.00674451
0.00210353
0.00681084
0.00268823
0.00558305
0.00318468
0.00529724
0.0202666
0.001813
0.00384059
0.00671841
0.00669508
0.00680645
0.00677846
0.00673095
0.00317804
0.0067642
0.00262185
0.00684679
0.000404789
0.00681595
0.00233961
0.000946325
0.00683561
0.00326733
0.0067805
0.00660188
0.0040737
0.00680559
0.0109416
0.00171446
0.00566016
0.00683405
0.0067396
0.0068075
0.0067864
0.00758912
0.00672041
0.00148068
0.00676243
0.0102178
0.00619659
0.00678446
0.0022124
0.0061072
0.00672306
0.0119331
0.00669639
0.00652707
0.00266321
0.00675788
0.00174168
0.00674323
0.00678562
0.00587633
0.00686025
0.00616358
0.00230741
0.00498186
0.00668202
0.00375281
0.000881029
0.00669267
0.00663807
0.00684515
0.00136999
0.00673662
0.001819
0.00683365
0.0119104
0.00614351
0.00750566
0.00683908
0.0068104
0.00568938
0.00687879
0.00658633
0.0088305
0.00671236
0.00672672
0.00420133
0.0066948
0.00669566
0.00171968
0.00669066
0.00879624
0.00329269
0.00219673
0.000837392
0.00445834
0.0117366
0.00678437
0.00181633
0.00673988
0.00718171
0.00943288
0.00682464
0.00674779
0.00669628
0.0068381
0.00679166
0.00683167
0.00682586
0.00676304
0.00355655
0.00670827
0.00674204
0.00283081
0.00634116
0.0104347
0.00246715
0.00680594
0.00574173
0.00675122
0.000244199
0.0059648
0.00018534
0.0067974
0.00672025
0.00676281
0.00684437
0.00679234
0.00680022
0.00674891
0.00252734
0.0067271
0.00075421
0.00389817
0.0067498
0.00984394
0.00674193
0.00683857
0.00620794
0.0097689
0.00175114
0.00680714
0.0103729
0.00683484
0.00683833
0.000738104
0.00667822
0.015013
0.00634407
0.00163396
0.00677455
0.00681898
0.00555933
0.00456816
0.00672752
0.00917604
0.00592955
0.00693598
0.00658182
0.00674318
0.00675712
0.00230453
0.0022163
0.00570858
0.010048
0.00113873
0.00450615
0.00219695
0.00682892
0.00950331
0.00682185
0.00997823
0.00143701
0.0029733
0.00675193
0.00958069
0.0194688
0.0006644
0.00663412
0.0063466
0.00678589
0.00676328
0.00220885
0.0068141
0.00683047
0.000216528
0.00462302
0.0068199
0.00247341
0.00706743
0.00678663
0.00677039
0.0051696
0.0106865
0.00679478
0.00677931
0.00328144
0.00679596
0.0068383
0.00529617
0.00627795
0.00679758
0.00885323
0.00668609
0.00409986
0.00454682
0.00602564
0.0074821
0.00682687
0.00681953
0.00699862
0.00483838
0.00540195
0.0068094
0.00539376
0.00576467
0.00556801
0.00666852
0.0102921
0.00640144
0.00675389
0.00245178
0.00678871
0.0121587
0.00227823
0.00187022
0.00221946
0.000157635
0.00879595
0.0087334
0.0113733
0.00695969
0.000360902
0.00677628
0.00152354
0.00134156
0.0085191
0.0042073
0.00663088
0.00457366
0.00238644
0.0066901
0.00952041
0.00265013
0.00101526
0.00983569
0.00682661
0.00214944
0.0066448
0.00684645
0.00606396
0.00463046
0.00682226
0.0067419
0.00674933
0.00211038
0.00673109
0.00671241
0.00358834
0.00678329
0.00683103
0.000935291
0.00224731
0.00675216
0.00683072
0.00197544
0.00610129
0.00305391
0.0116599
0.00683053
0.00673876
0.0200878
0.00678302
0.00667683
0.0112925
0.00814411
0.00571784
0.0015487
0.00615501
0.00182917
0.00168651
0.00537203
0.00364894
0.0068376
0.00135409
0.00789025
0.00115418
0.00696332
0.00912239
0.00682909
0.00684169
0.00684217
0.00683389
0.00683973
0.00101436
0.00686948
0.00216707
0.00672384
0.00220227
0.0103732
0.006688
0.00452151
0.0201609
0.00674257
0.00249038
0.0062103
0.00673176
0.00675373
0.00919343
0.00243028
0.00575029
0.00604044
0.0047824
0.0009989
0.00669812
0.00310774
0.00262616
0.00628395
0.00679165
0.000520523
0.00675327
0.00631027
0.00489607
0.00631453
0.00560767
0.00246362
0.00606628
0.00673934
0.000813514
0.00148674
0.00684725
0.00674892
0.00638718
0.00101918
0.000219247
0.00680841
0.00239106
0.00658184
0.00387873
0.00257138
0.00682459
0.00672223
0.00682721
0.00674284
0.0069768
0.00656739
0.000763731
0.00677861
0.00387035
0.00486361
0.00658581
0.00249486
0.0108399
0.00489323
0.00682462
0.00680514
0.00671731
0.00675164
0.00205327
0.0101058
0.00610061
0.000957419
0.00564655
0.00239979
0.00351558
0.00267762
0.00635318
0.00199537
0.00683821
0.00185297
0.00279442
0.00679341
0.0068218
0.0111452
0.00209109
0.00541538
0.00598692
0.000822925
0.00683704
0.000428213
0.00694706
0.00672276
0.0087474
0.0109071
0.00683615
0.00572636
0.00203074
0.00523394
0.00680279
0.0067438
0.00675267
0.00677339
0.00674383
0.0033908
0.002036
0.00487788
0.00517961
0.00373912
0.00259132
0.00102276
0.006828
0.00520307
0.00046099
0.00106318
0.00748369
0.00672063
0.00674366
0.00777667
0.00673253
0.00795529
0.00604897
0.00300587
0.00683754
0.00673685
0.000492588
0.00421352
0.00673383
0.00673767
0.0108343
0.000192319
0.00767208
0.00681549
0.00684604
0.00391069
0.00683149
0.00682657
0.000912953
0.00873043
0.00613938
0.00248367
0.00681046
0.00174214
0.00672493
0.00645562
0.00535381
0.00673904
0.00108581
0.0067281
0.00676784
9.40785e-05
0.00254719
0.00843457
0.00108585
0.00671982
0.00331466
0.00679217
0.00683526
0.00657535
0.00680343
0.00683967
0.00122294
0.00682231
0.00155049
0.00611862
0.00653638
0.00680032
0.00656657
0.00683621
0.00931843
0.00682201
0.00265899
0.00283466
0.00683856
0.00250488
0.00246275
0.00300752
0.00683539
0.00622216
0.00675349
0.00679562
0.0125333
0.00326961
0.00635745
0.00681771
0.006834
0.00676864
0.00241917
0.00678449
0.0109217
0.00209356
0.00681598
0.00671988
0.00677008
0.00208604
0.0042374
0.0199316
0.00614894
0.0112319
0.00632256
0.000938013
0.00657185
0.00917818
0.00672488
0.00681735
0.00605879
0.00805017
0.00677422
0.0108
0.00684646
0.00682421
0.000874329
0.000397159
0.00176771
0.00759083
0.00427686
0.0010531
0.00403161
0.00683208
0.00933343
0.00674188
0.00680697
0.00310825
0.00675195
0.0111177
0.00382046
0.00675795
0.00676802
0.00683226
0.00984218
0.00682918
0.00674429
0.00277493
0.00672098
0.00678816
0.00670442
0.00682982
0.0024047
0.00682788
0.00646705
0.00671495
0.000812808
0.00496639
0.00671649
0.00671792
0.00679917
0.00671982
0.00376372
0.00680868
0.00681817
0.00682804
0.00675052
0.00677536
0.00681163
0.00235579
0.00677189
0.00223417
0.00683724
0.00276231
0.00680342
0.00683836
0.00679674
0.00682187
0.00497703
0.00619151
0.00312339
0.0094688
0.00559826
0.0115274
0.0108742
0.00264267
0.00556204
0.00684195
0.00680458
0.00112518
0.00999196
0.00676402
0.00753995
0.0067834
0.00184842
0.00575789
0.00403577
0.00203966
0.017153
0.0176297
0.00683486
0.00240744
0.00675436
0.000744832
0.0040769
0.0112403
0.00207544
0.00684229
0.00511515
0.000674846
0.00683326
0.00343265
0.0127287
0.00668179
0.00671687
0.0084406
0.00851502
0.00683116
0.0025912
0.00682911
0.000563601
0.000824342
0.0068414
0.00681046
0.000428708
0.00683365
0.00674209
0.00631762
0.00674615
0.00125661
0.00583512
0.00317205
0.0100591
0.00674329
0.00272015
0.00681639
0.00862447
0.00163872
0.00553424
0.00679835
0.00326155
0.00681247
0.00684988
0.00351881
0.00683012
0.00491952
0.0067573
0.00675582
0.00673899
0.010228
0.00671725
0.0125558
0.00786753
0.00421887
0.0068388
0.00681984
0.00673078
0.00373283
0.00684196
0.0026011
0.00684379
0.00895051
0.00669937
0.00659665
0.00100645
0.00684464
0.00686004
0.00802492
0.00199285
0.0107847
0.00673597
0.00744388
0.0189012
0.00684416
0.008921
0.00684468
0.00631238
0.00486587
0.00661981
0.00326182
0.00549081
0.00569062
0.00238861
0.00679209
0.00155918
0.00674473
0.0125569
0.00672751
0.00449121
0.0067463
0.00674909
0.00657892
0.00910721
0.00682405
0.00588102
0.00140569
0.0180342
0.00675094
0.00579677
0.00889663
0.00276409
0.00175049
0.00132282
0.00680532
0.00146698
0.00705443
0.00654596
0.00121158
0.00681571
0.00105994
0.0023676
0.00683084
0.00263656
0.00671997
0.00664768
0.00134395
0.00659298
0.00651562
0.0111621
0.00390128
0.00673393
0.0061168
0.00675226
0.00684388
0.00600521
0.00141054
0.00117181
0.00682372
0.00435214
0.011212
0.00646294
0.00393328
0.000891345
0.00671829
0.00673453
0.00125513
0.00977739
0.00411807
0.00382596
0.00120141
0.0047572
0.00397098
0.00959864
0.00889391
0.00722487
0.00671699
0.0015526
0.00211655
0.00123953
0.00680559
0.00301401
0.00149793
0.00179407
0.00435439
0.00667551
0.00142597
0.00979673
0.00438473
0.00673402
0.00673696
0.00281093
0.00682977
0.011334
0.00455154
0.0065923
0.000769398
0.0015381
0.0067163
0.00252927
0.00268304
0.00680957
0.00963007
0.00642372
0.0103448
0.00683644
0.00968205
0.000264106
0.00121205
0.00682393
0.0062004
0.00563503
0.00112904
0.000838441
0.00274751
0.00617764
0.00240452
0.00673249
0.00598647
0.00667174
0.00146823
0.00248658
0.00679137
0.00671447
0.0067525
0.000206691
0.000814757
0.00683435
0.00217555
0.000807404
0.00672276
0.00263461
0.00656659
0.00891988
0.00605545
0.0122899
0.0029202
0.00321219
0.0064804
0.000860925
0.00675041
0.00416064
0.00778267
0.00373678
0.0016824
0.00230626
0.00252455
0.00937604
0.00767135
0.00678905
0.0173117
0.00195067
0.0067502
0.00172375
0.00175114
0.000813577
0.00396762
0.000507185
0.00115753
0.00100984
0.00833119
0.00613729
0.00222258
0.00678339
0.00682669
0.00682481
0.00674795
0.000913715
0.0017989
0.00682153
0.00286146
0.00135793
0.00674671
0.00743915
0.00927596
0.0068128
0.00684211
0.00677957
0.00676214
0.00245075
0.00674506
0.00485192
0.00291048
0.00149583
0.00626113
0.00126451
0.00417307
0.00400618
0.000928349
0.00681182
0.00675048
0.00681791
0.00683189
0.00966011
0.0022607
0.0058519
0.004759
0.0068202
0.00681374
0.00544952
0.00678839
0.00682695
0.00137551
0.00438147
0.00736163
0.00943895
0.00894492
0.00678719
0.0107311
0.00675042
0.000397208
0.00671519
0.00161077
0.00942095
0.00676763
0.000312198
0.0068929
0.00538766
0.00682807
0.00681219
0.00600999
0.00886332
0.00674319
0.00683196
0.00689637
0.00696774
0.00123971
0.00683019
0.00458784
0.00671812
0.00688992
0.00100125
0.00274408
0.00653258
0.00164196
0.0029459
0.0109926
0.0191951
0.0069005
0.00676748
0.00769811
0.00681559
0.00235773
0.00680317
0.00568622
0.00673733
0.00680339
0.00557711
0.0102839
0.00673147
0.00680051
0.00672175
0.00158644
0.00089028
0.000833624
0.00673147
0.00657055
0.00673102
0.00980529
0.00677978
0.00127742
0.00251238
0.00681957
0.000635612
0.00388702
0.00849099
0.00492348
0.00682819
0.00441034
0.00375225
0.00091147
0.00683083
0.00682853
0.00675169
0.0104875
0.00678591
0.00682214
0.00761752
0.00669955
0.00636788
0.00438267
0.00683337
0.00682342
0.0144225
0.0036501
0.0177967
0.00967498
0.00675163
0.0151656
0.00683702
0.00105019
0.00195906
0.00680477
0.00682542
0.00674665
0.00674488
0.0111796
0.00236744
0.0091046
0.00969507
0.00675856
0.00706849
0.00475991
0.000579518
0.00675728
0.0122884
0.00752535
0.00447035
0.00678717
0.00613539
0.00682702
0.00393647
0.00963713
0.00662388
0.00674425
0.00293695
0.00488085
0.0068253
0.0059474
0.00670014
0.00188824
5.28518e-05
0.00672182
0.0105897
0.00583149
0.00673246
0.00695293
0.00254781
0.0168338
0.0177153
0.00544845
0.00627668
0.00684543
0.0061513
0.00681538
0.00245254
0.00406752
0.00681624
0.00427011
0.00112236
0.0085446
0.00673933
0.000873103
0.0109323
0.0155067
0.00679567
0.00681332
0.0127025
0.00203201
0.00277595
0.00681636
0.0121158
0.00228508
0.00677612
0.00478538
0.00607959
0.00684151
0.000496507
0.00684617
0.00608049
0.00681515
0.00671581
0.00683858
0.00672227
0.00811502
0.00681996
0.00673087
0.00205262
0.00317073
0.00648606
0.00166764
0.00683958
0.00673375
0.00672215
0.00678635
0.0118142
0.0117183
0.000111674
0.0177923
0.00401117
0.0100243
0.00500189
0.0108505
0.0108911
0.00909265
0.00676438
0.00550045
0.00675926
0.00684633
0.00683347
0.00665653
0.00124867
0.00243169
0.00477845
0.0067443
0.00673401
0.00219488
0.00683403
0.00683309
0.00684255
0.0104253
0.00430557
0.00161895
0.00678139
0.011729
0.00682583
0.00680962
0.00679068
0.00242959
0.00675956
0.0014924
0.00981913
0.00452079
0.00732501
0.0139985
0.00688928
0.00414569
0.0055724
0.000896188
0.00682651
0.00683276
0.00675383
0.00968524
0.00672018
0.00300139
0.00502516
0.00158231
0.00630191
0.00284612
0.00267697
0.00952215
0.00683184
0.00671122
0.00550724
0.00200755
0.00679763
0.00679045
0.0131428
0.00671781
0.000845161
0.00684745
0.00679185
0.0063546
0.00678854
0.00152083
0.00974508
0.00804834
0.00427242
0.00682165
0.00122667
0.00676883
0.00108596
0.00674379
0.0016453
0.00234963
0.00683195
0.00684143
0.00676323
0.000868239
0.0042641
0.00122018
0.00158861
0.00468379
0.00374105
0.00276924
0.00198147
0.00646449
0.006753
0.0100979
0.00679368
0.0102868
0.000650854
0.00966537
0.00705202
0.00684379
0.00172415
0.00551354
0.00684311
0.0053012
0.00683479
0.00679967
0.0037135
0.00681759
0.00272182
0.00108537
0.000576939
0.00527224
0.00451606
0.00461941
0.00676553
0.0068009
0.00681228
0.000793878
0.00244635
0.0101153
0.0021706
0.00682407
0.0067492
0.00679697
0.00103725
0.00653972
0.00674274
0.00633124
0.00152182
0.00266879
0.00382677
0.00363907
0.0106766
0.00477489
0.0026658
0.00675617
0.00320569
0.000344315
0.0040602
0.00410242
0.00679083
0.00764544
0.00281135
0.00680959
0.00192534
0.0107776
0.0136084
0.00531536
0.00671997
0.00923406
0.00682964
0.00672335
0.0068269
0.00353017
0.00104359
0.00689026
0.00395579
0.00649664
0.00687136
0.00384606
0.00150786
0.0109329
0.00464509
0.00956432
0.00682294
0.00323387
0.00648027
0.00809201
0.00281503
0.00682708
0.0112687
0.0067601
0.00679261
0.0196382
0.00232754
0.00310158
0.000269065
0.00346165
0.00624176
0.00162403
0.00680448
0.0067261
0.0067834
0.00208169
0.00675446
0.00443359
0.00400501
0.0117636
0.000953747
0.00680639
0.00551269
0.00685016
0.010786
0.00771533
0.00678457
0.00683413
0.00326632
0.00160956
0.00124984
0.00159525
0.0105327
0.0101648
0.00255241
0.00664614
0.00192307
0.00641836
0.00437672
0.000291182
0.00684717
0.00684312
0.00677681
0.006771
0.00673123
0.00254399
0.00810606
0.00457919
0.0118243
0.0031082
0.000909284
0.0095301
0.0108361
0.00589739
0.00953503
0.00134668
0.00267036
0.00671393
0.00684231
0.00268829
0.00573562
0.00671273
0.00950412
0.0111946
0.00678187
0.00681108
0.00675609
0.00108943
0.00681869
0.0015045
0.0100937
0.00673678
0.00672078
0.0067695
0.00680515
0.00217795
0.00933228
0.00498315
0.00308488
0.000873281
0.00674193
0.00963613
0.000866882
0.00684682
0.00019826
0.000696374
0.0100387
0.00144197
0.00715662
0.00684564
0.00179821
0.00975335
0.000818971
0.00374142
0.006836
0.00667549
0.00659021
0.00399363
0.00594058
0.00152794
0.00683432
0.00458318
0.0104823
0.00948707
0.0066595
0.0066257
0.0116315
0.0107876
0.00682415
0.0059958
0.00103988
0.00673066
0.00673013
0.00865819
0.00674808
0.00101359
0.00993369
0.00632035
0.00675517
0.00141829
0.00154298
0.00680461
0.00680235
0.0133078
0.00456436
0.00679463
0.00377111
0.000960134
0.0011113
0.01054
0.00308525
0.00632275
0.00959276
0.00948267
0.00294571
0.00671807
0.00244269
0.00671632
0.00681941
0.00717091
0.00483982
0.00106057
0.00416636
0.00624946
0.00682782
0.00675805
0.00681074
0.00671366
0.00647413
0.00426569
0.00102118
0.00295007
0.00250989
0.00213437
0.00919504
0.00773507
0.0071623
0.00675184
0.00399664
0.00289747
0.00635672
0.00088196
0.0122559
0.00681244
0.00159477
0.00878046
0.00619506
0.00231706
0.00211206
0.00214266
0.00198168
0.00574566
0.0018021
0.00166153
0.0015261
0.00139604
0.00192505
0.00189877
0.00614269
0.00672315
0.00267871
0.00233455
0.00675543
3.36297e-05
0.00968431
0.000756781
0.011178
0.00679017
0.00679979
0.0031594
0.00571917
0.00666461
0.00658613
0.00237981
0.00500709
0.0178022
0.00683257
0.00464535
0.00458317
0.00299297
0.0104605
0.00350677
0.000367554
0.00957682
0.00211519
0.01001
0.00110883
0.0129961
0.0103066
0.00669354
0.00849044
0.0102925
0.00677432
0.00131216
0.000916341
0.00631623
0.00681236
0.00183322
0.0040648
0.00683188
0.00683319
0.00965361
0.000107102
0.00111939
0.00684472
0.00111798
0.00111113
0.0112954
0.00714937
0.0068034
0.00672962
0.00680392
0.00691538
0.0081787
0.0088674
0.0101898
0.00248617
0.000838312
0.00653285
0.00692772
0.00672708
0.00937406
0.00683392
0.00951137
0.00678543
0.0103226
0.00665827
0.00678203
0.00875437
0.00677967
0.0019342
0.0131221
0.00683953
0.0066205
0.00646593
0.00128765
0.00734244
0.000802311
0.0111764
0.00697576
0.00690748
0.00329097
0.00113545
0.00902787
0.00523092
0.000919986
0.00106568
0.00176432
0.00343942
0.006604
0.00683176
0.00674037
0.0067144
0.000403538
0.0023848
0.0111053
0.00453681
0.0015109
0.00679202
0.0112269
0.00136667
0.00323948
0.00673003
0.00617016
0.0067218
0.0104845
0.00632398
0.0105424
0.000404801
0.0018038
0.00110561
0.00675836
0.00252744
0.000815227
0.000377853
9.37507e-05
0.00675687
0.0016549
0.0068175
0.00677062
0.00108675
0.0189575
0.00154364
0.00683428
0.00100088
0.000747575
0.00971858
0.0034653
0.00795797
0.00652367
0.00682813
0.00164245
0.00682725
0.00160103
0.00683432
0.000845476
0.00664993
0.00186737
0.0137329
0.0124394
0.00694957
0.0014913
0.0103962
0.00186742
0.0066142
0.0199012
0.00201554
0.00687242
0.00673098
0.00615708
0.00366679
0.000800959
0.000251864
0.0129186
0.00466137
0.00690448
0.00755681
0.00980158
0.0151041
0.000792599
0.0029148
0.00198648
0.00217429
0.00718
0.00316843
0.0068122
0.000315021
0.00351066
0.000278587
0.0060372
0.00495093
0.000120436
0.000626153
0.00296698
0.0019764
0.00654398
0.00809683
0.000809987
0.00129845
0.00205126
0.00671793
0.00672605
0.00903589
0.00833705
0.00604955
0.00682086
0.00444229
0.00551455
0.00618314
0.00235004
0.0101845
0.00627845
0.00993612
0.000806443
0.00619019
0.00681608
0.000302814
0.00614079
0.00696439
0.00246422
0.00677377
0.00447248
0.00681346
0.00997807
0.00677481
0.00679412
0.0101461
0.00228554
0.00671352
0.00946292
0.00679879
0.00684108
0.00674865
0.00682405
0.0068274
0.000201671
0.010867
0.00677521
0.0101108
0.00273626
0.00240603
0.000996639
0.00242407
0.00634764
0.0024277
0.00671964
0.0111593
0.00489636
0.00873888
0.00692532
0.00462653
0.000388696
0.00140916
0.000808438
0.00962876
0.0067182
0.00627996
0.00171011
0.00225498
0.00419539
0.00680773
0.00517769
0.00122404
0.00680195
0.00402219
0.00672137
0.00655708
0.00154441
0.00847065
0.0013082
0.00135995
0.00999157
0.00683851
0.00683519
0.00279231
0.00672447
0.00683166
0.00683349
0.00609774
0.00678754
0.00672783
0.00676142
0.00437496
0.00668402
0.00608101
0.0068547
0.00416393
0.00210981
0.0066353
0.00679326
0.00666976
0.00674524
0.00224897
0.00239014
0.00689474
0.00679457
0.00809795
0.00348041
0.00876964
0.00352513
0.000967512
0.00673503
0.00684353
0.00157517
0.01067
0.00283194
0.00509471
0.00673442
0.0113342
0.0068177
0.00672762
0.00265583
0.00407488
0.000918224
0.0104893
0.00213904
0.00114039
0.00447713
0.00466816
0.00684617
0.00683261
0.00135549
0.00976483
0.00264738
0.00101582
0.00811005
0.00604298
0.00682325
0.00316921
0.00111874
0.00234179
0.00680642
0.00208031
0.00217423
0.00172632
0.00682411
0.00679755
0.000953522
0.00155352
0.000504237
0.00727989
0.00659632
0.00240804
0.00682716
0.00240576
0.0034468
0.00684548
0.000886281
0.00361726
0.00114191
0.00498975
0.00679012
0.0068421
0.00672187
0.00948321
0.00109628
0.00664541
0.0015924
0.00192285
0.00682369
0.00684553
0.000912362
0.00914521
0.000818554
0.00992796
0.000994484
0.00256077
0.000155605
0.00177132
0.00265048
0.0133555
0.00235811
0.0166041
0.00681076
0.00216172
0.00162493
0.00679417
0.0102486
0.00323544
0.00226705
0.00610617
0.00149272
0.00678582
0.0061668
0.00330621
0.00671512
0.00683629
0.00674216
0.00675715
0.00678703
0.00680676
0.00351634
0.0068437
0.00680071
0.0127111
0.00259584
0.00680455
0.00163709
0.00612075
0.00636904
0.00674896
0.00246235
0.00614373
0.00158185
0.00679451
0.00678181
0.00122366
0.000434999
0.0068284
0.00681794
0.000837184
0.00368595
0.000940727
0.00169016
0.00683538
0.0018379
0.00364923
0.00680064
0.00131562
0.00969244
0.00690705
0.00164949
0.00683367
0.00298848
0.00682947
0.00608794
0.00675497
0.00678609
0.00500782
0.0017835
0.000323948
0.00182884
0.00680586
0.00589593
0.0107747
0.00381766
0.00127529
0.00209465
0.00680163
0.0016373
0.00440394
0.00121737
0.0163612
0.00628293
0.00898161
0.0121596
0.00526436
0.0068308
0.00109592
0.00680437
0.00240753
0.0112549
0.0068417
0.00282353
0.00684283
0.0107258
0.00271393
0.00679036
0.0018078
0.0105293
0.0153298
0.00437401
0.00196376
0.00294925
0.00671319
0.0110031
0.00672674
0.00519121
0.0067401
0.00640194
0.00967275
0.00279652
0.00679855
0.00526933
0.000419903
0.00683762
0.00683603
0.00375749
0.00635726
0.00679942
0.0044104
0.00649147
0.00682617
0.00676073
0.00262803
0.00203138
0.00128357
0.00672151
0.00257838
0.00935543
0.00527613
0.00674591
0.00684506
0.00297835
0.00229514
0.0068122
0.00678126
0.00677661
0.00683153
0.00626208
0.00324897
0.00691205
0.002683
0.00666842
0.00675386
0.00666369
0.00291506
0.00194971
0.00197169
0.006814
0.00587947
0.00862322
0.00561008
0.00322271
0.00529538
0.0096533
0.00211902