/*--------------------------------*- C++ -*----------------------------------*\
| =========                 |                                                 |
| \\      /  F ield         | OpenFOAM: The Open Source CFD Toolbox           |
|  \\    /   O peration     | Version:  v2012                                 |
|   \\  /    A nd           | Website:  www.openfoam.com                      |
|    \\/     M anipulation  |                                                 |
\*---------------------------------------------------------------------------*/
FoamFile
{
    version     2.0;
    format      ascii;
    class       surfaceVectorField;
    location    "250";
    object      ddtCorrDdt0(Uf);
}
// * * * * * * * * * * * * * * * * * * * * * * * * * * * * * * * * * * * * * //

dimensions      [0 1 -2 0 0 0 0];


internalField   nonuniform List<vector> 
20673
(
(-0.000485564 8.97422e-05 -3.43711e-18)
(-0.000482561 9.30604e-05 1.3532e-17)
(-0.000474672 8.85125e-05 -7.17927e-19)
(-0.000176146 8.64349e-05 -4.72593e-19)
(-0.000172601 7.74944e-05 -1.71943e-20)
(-0.000177645 7.77447e-05 -6.00278e-20)
(-0.00824527 0.00654429 -6.11274e-18)
(-0.00885472 0.00677825 6.40013e-18)
(-0.00965578 0.00682759 1.22657e-18)
(0.000264391 0.000459599 6.45249e-18)
(0.00024564 0.000460881 1.97574e-18)
(0.000254127 0.000446386 -7.23533e-19)
(-1.43654e-05 -0.000125189 9.05687e-19)
(-1.39462e-05 -0.000125214 -6.82914e-20)
(-1.48089e-05 -0.00010769 -3.08101e-18)
(-0.000123376 -0.00136322 -4.31787e-17)
(-0.000148028 -0.00144421 -7.14848e-17)
(-0.000203868 -0.00136494 1.65081e-18)
(-0.00844156 0.00536934 5.7386e-19)
(-0.00809318 0.00553387 6.79068e-19)
(-0.00934327 0.00569131 -5.63703e-18)
(-0.00797519 0.00690228 9.13467e-18)
(-0.00707109 0.00661464 4.91277e-18)
(-0.00715362 0.00687958 -8.44696e-19)
(0.00234855 -0.00277358 3.44648e-18)
(0.00237139 -0.00297231 -3.72713e-17)
(0.00249703 -0.00268826 1.09176e-17)
(-0.00050949 0.000184159 -4.23309e-18)
(-0.000498669 0.000201819 -1.81304e-18)
(-0.000520904 0.000204649 -2.47631e-18)
(0.00171777 0.00486504 3.9858e-19)
(0.00197193 0.00477134 -1.52579e-18)
(0.00190005 0.0051142 2.59195e-18)
(0.00102194 0.00138534 2.36163e-18)
(0.00110636 0.00140803 1.71655e-18)
(0.00100351 0.00146678 2.27564e-18)
(0.000272992 0.000475426 2.02309e-18)
(0.00281456 0.000568362 7.41609e-19)
(0.00339716 0.000798076 -1.7363e-17)
(0.00307082 0.000520433 -8.53184e-18)
(-0.000298566 -0.000105868 -9.12444e-19)
(-0.000292766 -0.000112822 3.77113e-18)
(-0.000288896 -0.000104197 -2.44645e-18)
(-0.000312019 -3.88395e-05 -1.58733e-18)
(-0.00029865 -4.45942e-05 1.44559e-18)
(-0.000295863 -2.662e-05 -1.53248e-18)
(-0.00019055 3.85447e-05 -1.0489e-19)
(-0.000190018 4.82363e-05 4.94542e-20)
(-0.000185697 3.75541e-05 3.37588e-20)
(-0.000965402 0.00028193 1.9104e-18)
(-0.000941763 0.000235487 -1.922e-17)
(-0.00100373 0.000250599 -5.76598e-18)
(0.00104584 0.00131661 -9.30228e-18)
(0.000949852 0.0013538 -1.6851e-18)
(-3.45242e-05 -4.33446e-05 2.13595e-19)
(-3.40726e-05 -4.16989e-05 -2.03073e-19)
(-3.25243e-05 -5.00226e-05 -7.64861e-19)
(-1.19272e-06 -2.97501e-05 6.15348e-19)
(-1.75376e-06 -4.29945e-05 2.75622e-18)
(-1.08533e-06 -2.87379e-05 2.12213e-18)
(-0.00854294 0.00525448 -1.24334e-18)
(-0.00793656 0.00523331 -2.24168e-18)
(-4.21364e-05 -5.9349e-05 1.16755e-18)
(-4.31453e-05 -4.95397e-05 5.51921e-20)
(-4.32069e-05 -4.74857e-05 -1.20056e-18)
(-0.00882334 0.00728642 1.86522e-19)
(-0.00863173 0.00736787 3.86981e-18)
(-5.19101e-05 -3.91926e-05 1.20042e-18)
(-5.18784e-05 -4.07716e-05 1.33059e-18)
(-5.42954e-05 -4.80372e-05 3.26616e-18)
(-0.0104103 0.00405783 -7.93613e-19)
(-0.0100657 0.00384752 1.86081e-18)
(-0.00989258 0.00403695 -3.96791e-18)
(-0.000121297 -0.000560137 5.56651e-18)
(-0.000133855 -0.000579222 -7.25642e-18)
(-0.000102681 -0.00057498 -5.74873e-18)
(-0.000297289 -0.000630749 5.62187e-18)
(-0.000322844 -0.000622015 5.85105e-18)
(-0.000308261 -0.000652476 1.7194e-18)
(-0.000626051 -0.000550939 -1.64797e-18)
(-0.000511346 -0.00056571 7.7179e-19)
(-0.000447966 -0.000350809 -5.2905e-19)
(-0.000138185 -3.52301e-05 4.68365e-18)
(-0.000147999 -8.67688e-05 -2.91594e-18)
(-8.94905e-05 -7.99422e-05 -4.85179e-18)
(-0.000468047 9.4164e-05 1.65338e-18)
(-0.000471193 9.59221e-05 1.43539e-17)
(-0.000464727 9.2066e-05 1.28466e-17)
(-0.000385908 8.87275e-05 -1.32556e-18)
(-0.000382686 8.62675e-05 2.90676e-18)
(-0.000375268 9.10696e-05 -8.08324e-18)
(-0.000190533 -0.000431877 7.70868e-19)
(-0.000197482 -0.000449002 6.89919e-18)
(-0.00017853 -0.000446019 -1.84421e-17)
(-1.62806e-05 -0.000311575 -1.3747e-17)
(-9.06304e-06 -0.000308758 -6.66424e-18)
(-1.7983e-05 -0.000306799 -6.95639e-18)
(-4.11735e-05 -4.8329e-05 2.97415e-18)
(-4.3683e-05 -5.87458e-05 -2.99655e-19)
(-4.37733e-05 -5.17861e-05 -2.48036e-18)
(0.0033829 0.00610211 -1.4429e-18)
(0.00236767 0.00638011 -4.00301e-18)
(-0.00173015 0.00661884 -1.03681e-17)
(-3.96488e-05 -7.05701e-05 -1.24943e-18)
(-4.03335e-05 -6.67959e-05 9.70196e-20)
(0.00380916 0.0025458 3.34951e-18)
(0.0039446 0.00226467 -5.64908e-18)
(0.00360866 0.00240791 -4.18408e-18)
(0.000336321 0.000590914 -1.58559e-18)
(0.000353481 0.000608076 5.64239e-18)
(-0.0152365 8.84944e-05 2.53439e-19)
(-0.0153855 4.9759e-05 -1.03329e-17)
(-0.0152676 8.74467e-05 -1.30049e-19)
(-3.5626e-05 -2.02438e-06 -1.18825e-19)
(-3.6536e-05 -1.58938e-06 3.38802e-19)
(-3.97849e-05 -1.14496e-06 1.4304e-19)
(-3.29331e-07 -1.61217e-05 -7.79894e-20)
(-1.26635e-07 -6.08458e-06 -4.64737e-19)
(-5.58822e-08 -6.38244e-06 1.88664e-18)
(9.73832e-06 3.55e-05 -9.55491e-20)
(7.12978e-06 3.09883e-05 -2.11053e-19)
(9.08631e-06 3.2259e-05 1.85085e-19)
(-0.000431195 -0.000756267 -7.4744e-18)
(-0.000456212 -0.00073644 -3.82323e-18)
(-0.000461664 -0.0007665 -3.42068e-17)
(-0.000106771 0.000126382 -1.72399e-18)
(-0.000111835 0.00012924 2.16634e-18)
(-0.000106357 0.000126523 -1.35387e-18)
(-5.92144e-05 -0.000336269 3.95593e-18)
(-3.96245e-05 -0.000338173 -1.29386e-19)
(-4.91382e-05 -0.000328164 -7.19774e-18)
(-0.000994946 0.000339778 1.33155e-17)
(-0.000930682 0.000317885 4.48416e-18)
(-0.0016544 0.0010888 -4.20375e-18)
(-0.00147094 0.00101651 6.39785e-18)
(-0.00151738 0.0012226 1.03318e-17)
(-0.000195516 -0.0017113 -6.76952e-18)
(-0.000163799 -0.00172539 2.80975e-17)
(-0.000191881 -0.00167838 -6.9667e-18)
(-3.03119e-05 5.78699e-07 -3.75731e-19)
(-3.07771e-05 7.99243e-07 -1.16177e-19)
(-2.93711e-05 9.4133e-07 -1.28373e-19)
(-0.000245934 0.000460069 -5.16367e-18)
(-0.000263441 0.000451543 -1.10609e-17)
(-0.000257134 0.000476173 -4.25584e-18)
(-3.68552e-05 -0.00027903 -1.76738e-18)
(-3.68798e-05 -0.000279613 -7.4188e-18)
(-3.69934e-05 -0.000280823 -8.62817e-18)
(-0.000154957 -0.00168218 6.76971e-17)
(-0.000136799 -0.00183793 -2.81526e-17)
(-2.41484e-05 -0.000314212 2.5577e-18)
(-1.43661e-05 -0.000316777 -9.93474e-18)
(-0.00019564 3.79981e-05 -6.44195e-20)
(-0.000190285 2.7355e-05 -3.30714e-19)
(-0.000347678 0.000242527 -3.42946e-18)
(-0.000347353 0.000228755 -9.41969e-19)
(-0.000361889 0.000235918 -2.80467e-17)
(0.00140887 0.00500368 1.02077e-17)
(0.00148867 0.00463809 -6.58433e-18)
(-0.000113491 -0.000167691 -1.17844e-18)
(-0.000108634 -0.00016705 5.80924e-19)
(-0.000112747 -0.000163501 -7.70082e-19)
(-0.000293274 0.000174786 3.68802e-19)
(-0.000304312 0.000176149 3.7848e-18)
(-0.000300734 0.000167779 7.11358e-18)
(-0.000106903 0.000126413 4.68662e-19)
(-0.000102312 0.000123825 2.53538e-19)
(-0.00490342 0.00118672 4.38778e-18)
(-0.00421598 0.0013091 3.77118e-18)
(-0.00443417 0.00132196 -2.23648e-17)
(-0.00017575 9.40768e-05 1.61307e-19)
(-0.000180892 9.40367e-05 -8.34894e-20)
(0.00245821 0.000556069 3.0199e-18)
(-3.45917e-05 -4.38301e-05 -1.7657e-19)
(-3.5829e-05 -3.60879e-05 3.15503e-19)
(-0.000315793 -0.00151003 4.25075e-17)
(-0.000311981 -0.00127398 7.45184e-18)
(-0.00499942 -0.00183779 8.61484e-17)
(-0.00457034 0.00034611 -2.12218e-17)
(-0.00378699 0.000326393 2.71722e-18)
(2.09249e-06 -0.000121014 6.15615e-18)
(7.766e-07 -0.000105662 -1.44413e-18)
(1.91221e-06 -5.83195e-05 -4.6225e-19)
(2.7209e-06 -4.99039e-05 -5.65744e-18)
(-0.00424934 0.00319174 -5.73427e-18)
(-0.00411289 0.00348418 7.33852e-18)
(-0.004485 0.00339428 -2.69759e-17)
(-0.000487362 4.32702e-05 2.72213e-18)
(-0.000488417 5.76053e-05 -2.20146e-18)
(-0.000505153 4.44098e-05 5.9064e-18)
(-1.53275e-05 -0.000140324 1.75288e-19)
(-1.66207e-05 -0.000125347 6.60165e-19)
(0.00233046 -0.0027846 1.01872e-17)
(0.00232443 -0.0025366 1.1567e-17)
(0.00303183 -0.00127651 2.75726e-17)
(0.0028668 -0.00156829 1.56545e-17)
(0.0025489 -0.00155423 2.68202e-18)
(-5.41807e-05 -3.68945e-05 -1.23674e-18)
(-5.06639e-05 -2.87312e-05 -1.02295e-18)
(-0.000152202 -0.00175886 -6.31621e-17)
(-0.000186726 -0.00171754 -9.20479e-17)
(-0.000138899 -0.0017913 3.65129e-18)
(0.00111236 0.000666073 7.44572e-18)
(0.00101667 0.000699492 -3.10841e-18)
(0.00108355 0.000772427 -5.72628e-18)
(0.00714184 -0.000217705 -8.16443e-18)
(0.00692448 -0.000332897 2.07982e-17)
(0.0071989 -0.000239097 -2.60634e-17)
(-0.000150732 0.000165607 1.6457e-18)
(-0.00015856 0.00016975 4.2452e-18)
(-0.000160613 0.000162968 2.78877e-18)
(-0.0110841 0.00200267 -1.48798e-18)
(-0.011017 0.00220911 2.04662e-18)
(-0.0109525 0.00210426 9.31293e-18)
(-4.05077e-06 -6.95289e-05 -4.27584e-18)
(-5.29624e-06 -8.57372e-05 -1.28318e-18)
(-5.27683e-06 -8.36318e-05 2.47099e-19)
(-1.12136e-05 -9.43052e-05 4.0625e-19)
(-1.24179e-05 -0.000101568 -4.84715e-19)
(-1.05014e-05 -9.06302e-05 -6.63573e-21)
(8.44086e-07 -0.000135729 4.61766e-18)
(-0.000211747 -0.00140466 -3.70533e-18)
(-0.000224761 -0.00134944 -6.85217e-17)
(-0.000173471 -0.00139242 4.03155e-17)
(0.00350995 0.00291587 3.81485e-18)
(0.00389926 0.00275349 6.59757e-18)
(8.60452e-06 0.00086981 -7.10798e-17)
(0.00014033 0.00082404 5.59556e-18)
(4.65331e-05 0.000891085 -6.29987e-17)
(-0.000143052 0.000159744 -3.39325e-18)
(-0.000140751 0.00016679 -1.11705e-18)
(-2.00671e-05 -0.000103072 5.92758e-19)
(-2.02353e-05 -9.95707e-05 -2.38358e-18)
(-1.69762e-05 -9.86101e-05 -3.55958e-18)
(-0.00800136 0.000738863 -1.14133e-17)
(-4.37533e-05 -0.00293341 3.26103e-17)
(-0.000223723 0.000463744 1.46193e-18)
(-0.000236061 0.00043842 -6.71824e-18)
(1.22562e-05 3.95571e-05 -1.91671e-18)
(1.02762e-05 3.82277e-05 2.80367e-19)
(0.00569298 -0.00141711 -1.75216e-17)
(0.00607763 -0.00110865 1.32733e-18)
(0.00632822 -0.00101448 -2.5185e-18)
(-0.000299747 0.000212436 -1.83919e-18)
(-0.00033366 0.000207296 1.28525e-17)
(-0.000334913 0.000242537 2.27543e-18)
(-0.000106595 0.000110519 -4.87466e-19)
(-0.000102179 0.000113962 -1.57187e-20)
(-0.000103259 0.000106712 -2.72585e-19)
(-0.000180795 -0.000165206 -2.80605e-18)
(-0.000181118 -0.000164082 -6.44845e-19)
(-0.000187381 -0.000153969 -3.70924e-18)
(-0.00382123 0.0052239 -3.89864e-17)
(-0.0110347 0.000920706 -5.79563e-17)
(-0.000164417 -0.00137365 1.69601e-17)
(-0.000140578 -0.00131544 4.66222e-17)
(-0.000107615 -0.00137664 6.59296e-18)
(-0.00107075 0.00388087 -4.14971e-18)
(-0.0012911 0.00390898 -2.50677e-17)
(-0.00116485 0.00412116 -7.92549e-18)
(-0.0013639 0.000797279 4.43999e-18)
(-0.00143727 0.000739821 -6.70564e-18)
(-0.00134882 0.000704632 -4.25885e-19)
(0.00265769 0.000415912 1.47427e-18)
(0.00287812 0.000332106 7.78477e-18)
(0.00264029 0.000186787 -8.61126e-19)
(-0.000321184 -0.000961578 3.20719e-17)
(-0.000304788 -0.000926053 -3.06855e-17)
(-0.000332754 -0.000927073 -4.34541e-17)
(-4.54203e-05 4.54637e-06 2.69002e-21)
(-4.54736e-05 9.98242e-06 -1.37546e-19)
(-4.70372e-05 6.4055e-06 -2.85773e-19)
(-1.20881e-05 -0.000443658 1.11792e-17)
(-4.09538e-05 -0.000455003 -9.85515e-18)
(-3.01153e-05 -0.000433953 -1.78431e-17)
(-0.000420097 -0.000789717 -1.68983e-17)
(-0.000404384 -0.000740865 3.73259e-18)
(-0.000140187 0.000231302 -4.20841e-18)
(-0.000142772 0.000241687 -2.70117e-18)
(-0.000132658 0.000241916 2.58682e-19)
(-6.17343e-05 5.76905e-05 8.97532e-20)
(-5.91333e-05 5.96731e-05 -4.01945e-19)
(-6.16367e-05 6.46946e-05 2.58338e-19)
(0.00215379 -0.0040613 3.20962e-18)
(0.00208021 -0.00424292 -7.79901e-18)
(0.0025059 -0.00418468 -4.67902e-18)
(-0.000655644 -0.000817266 -1.04491e-18)
(-0.000574977 -0.000751068 2.3759e-19)
(-0.000586275 -0.000946263 -4.53803e-18)
(-0.00173078 0.00113335 5.43906e-18)
(-0.00172944 0.00102051 -7.97225e-18)
(-0.000189884 5.96581e-05 -1.09164e-19)
(-0.000196176 5.94723e-05 6.37316e-20)
(-0.000480783 0.000104987 -7.76953e-18)
(-0.000487035 0.000103782 2.3284e-18)
(-0.000488559 0.000110579 -6.817e-19)
(-0.00528889 0.000453801 5.45172e-18)
(-0.00533716 0.000398386 3.08168e-17)
(-0.00539014 0.000330928 -9.08952e-18)
(-0.0150431 0.000120089 2.25777e-18)
(-0.0152554 0.000166886 -4.31474e-18)
(0.00154881 0.00142176 -1.11841e-19)
(0.00154809 0.00130187 -1.14911e-18)
(0.00167201 0.00139834 5.38297e-18)
(0.00219492 -0.00389056 1.08895e-17)
(0.00204405 -0.00393424 -1.1693e-18)
(-3.20659e-05 -0.000293443 3.64239e-18)
(-3.93749e-05 -0.000295797 -7.72742e-18)
(-2.56132e-05 -0.000295304 1.15396e-17)
(-2.04431e-05 -0.00161728 6.01232e-18)
(-3.38398e-06 -0.00158607 3.44212e-17)
(-5.73468e-05 -0.00155086 -1.49961e-17)
(-5.43517e-05 -2.51797e-06 1.18459e-18)
(-5.59618e-05 -7.41703e-06 1.67077e-18)
(-5.50739e-05 -5.1004e-06 1.14148e-18)
(-0.000228401 -0.00163737 4.46679e-17)
(-0.000214321 -0.00159031 -3.51798e-18)
(-0.000264514 -0.00159544 5.82885e-17)
(-0.00812069 0.00116395 -4.78989e-18)
(-0.00850232 0.00135495 -7.98518e-18)
(-0.00799152 0.00159285 -7.84877e-18)
(-4.72701e-05 -0.000308591 6.2893e-18)
(-5.66172e-05 -0.000312415 2.34121e-18)
(-5.9455e-05 -0.000304265 -2.99773e-18)
(-1.04687e-06 -2.75101e-05 5.32103e-21)
(-8.54308e-07 -2.77058e-05 -1.52538e-19)
(-0.00439467 0.00288084 3.85884e-18)
(-0.00395114 0.00298574 7.99969e-18)
(-0.0043386 0.00132368 -5.92142e-19)
(-0.00436487 0.00170768 6.31482e-18)
(-0.00396166 0.00162652 -1.17752e-18)
(-0.00025948 -0.000621186 -1.46436e-17)
(-0.000293539 -0.000592567 -2.74813e-17)
(-2.99452e-05 -2.73381e-07 1.12853e-19)
(-2.87784e-05 1.79629e-07 1.16183e-20)
(-2.99015e-05 -1.54593e-07 -2.12221e-20)
(-0.000171155 -0.000174244 -4.08781e-18)
(-0.00017664 -0.000161161 -2.59095e-18)
(-0.000120396 0.00013486 -1.17309e-18)
(-0.000125453 0.00013602 -5.88829e-19)
(-0.000125023 0.000136104 -1.41421e-18)
(-2.97322e-05 2.9417e-07 -2.46838e-20)
(-3.33956e-05 -3.77008e-07 3.30284e-20)
(6.66559e-07 1.29457e-05 8.4213e-20)
(2.31332e-06 1.27533e-05 -9.90728e-19)
(1.11414e-06 1.13162e-05 2.03288e-19)
(-9.64408e-05 -0.00141439 -6.3509e-18)
(-0.00557369 0.00312756 3.06934e-18)
(-0.00530196 0.0030156 1.52252e-17)
(-0.00571501 0.00277071 -8.00676e-19)
(-2.55752e-05 -0.000295742 -1.84661e-17)
(-3.26889e-05 -0.000294084 -1.81971e-18)
(-0.000117831 0.000131185 -7.34295e-19)
(-0.000116882 0.000130946 2.25808e-18)
(-9.80289e-07 -3.03706e-05 -3.1819e-18)
(-5.9637e-07 -1.7935e-05 -2.07847e-18)
(0.00310743 -0.00332025 2.9196e-17)
(0.00344703 -0.00304669 2.61901e-17)
(0.00216763 -0.00353377 -3.5245e-18)
(-0.00963942 0.00759294 -1.61458e-17)
(-0.00894104 0.0072515 -2.43837e-19)
(-0.000494092 9.15525e-05 -1.02332e-17)
(-0.000488871 8.5884e-05 -8.03592e-20)
(-0.000309475 -0.00101478 3.78215e-17)
(-0.000314527 -0.000966229 3.87249e-17)
(-2.06963e-06 -0.000104836 3.48115e-19)
(-6.49217e-07 -9.20879e-05 -5.21807e-18)
(-3.37587e-05 -0.000312185 6.03972e-18)
(-3.72203e-05 -0.000305514 -2.3541e-18)
(0.00583475 0.00671851 -3.00538e-18)
(0.00608215 0.0063658 -1.00675e-18)
(0.00550218 0.00630501 -3.59696e-20)
(-4.25284e-05 8.48094e-05 -5.93117e-19)
(-4.60775e-05 8.91481e-05 2.0861e-19)
(-4.38981e-05 8.70639e-05 9.00827e-19)
(-7.31662e-05 -0.000273268 4.09187e-18)
(-7.60448e-05 -0.000272654 6.25813e-18)
(-6.7724e-05 -0.000277123 8.92028e-18)
(-0.000428512 -0.000835445 -1.55958e-17)
(-0.000428528 -0.000851285 -1.84602e-17)
(-0.000465038 -0.000828133 3.81747e-17)
(-1.52738e-07 -5.79421e-05 -1.14956e-17)
(1.32042e-06 -6.72924e-05 -3.8821e-18)
(0.00266396 -0.00207408 -2.89951e-18)
(0.00244973 -0.00238156 1.93832e-17)
(0.00284133 -0.00254752 1.09977e-17)
(-0.000220934 -0.000697868 -7.5581e-19)
(-0.000601269 -0.000821977 4.18692e-19)
(-0.000401993 -0.000690231 -1.81978e-18)
(-4.1404e-05 -0.00027506 5.23336e-18)
(-3.45505e-05 -0.00027488 2.38068e-18)
(-3.23096e-05 7.16159e-05 6.23169e-19)
(-3.58093e-05 7.63985e-05 2.26535e-18)
(-3.41541e-05 7.38099e-05 -1.85622e-19)
(-0.000393927 7.68702e-05 -1.37335e-18)
(-0.000389193 7.39709e-05 -7.48472e-18)
(-0.0004022 7.01009e-05 -1.36626e-17)
(-0.000502601 0.00167777 -4.57818e-18)
(-0.000556823 0.00176607 -1.72294e-17)
(-0.000584838 0.00164041 1.12062e-17)
(-1.54183e-05 -0.00160116 3.79897e-17)
(-1.03094e-05 -0.00163108 2.04335e-17)
(0.000570978 0.00275389 -9.43957e-18)
(0.000503645 0.00289736 -1.00302e-17)
(0.000690729 0.00284423 9.97724e-18)
(-0.000589024 -7.30604e-05 -6.61387e-19)
(-0.000572644 -6.68328e-05 -1.72453e-18)
(-0.000587619 -5.6622e-05 4.91395e-19)
(-0.000368232 0.000133458 2.05495e-18)
(-0.000365308 0.000128693 4.62608e-19)
(-0.000356965 0.00013419 3.09611e-19)
(0.000293215 -0.000134856 1.50972e-17)
(0.000369185 -0.000182247 6.26088e-17)
(0.000469139 -0.000134169 3.20431e-17)
(-0.000485361 3.66583e-05 -3.08978e-18)
(-0.000475354 4.35298e-05 7.4135e-18)
(-0.0061414 0.00954456 3.12792e-18)
(-0.00558591 0.00950545 -7.86258e-18)
(-0.00557382 0.00977615 -1.55865e-19)
(0.00733329 -5.02252e-05 -5.69578e-18)
(0.00698951 -0.00021943 2.68624e-18)
(0.0027567 -0.00351718 -2.41606e-17)
(0.00286325 -0.00301183 3.01228e-17)
(-0.000135913 -0.000242662 -2.24263e-18)
(-0.00014022 -0.000242335 -8.84633e-18)
(-0.000130916 -0.000248914 5.38683e-19)
(3.37744e-05 -0.000570981 4.09907e-18)
(1.75243e-05 -0.00057039 -6.04907e-17)
(2.46839e-05 -0.00059093 -2.62927e-18)
(-5.22408e-06 -7.47748e-05 -1.88169e-18)
(-5.26955e-06 -7.07575e-05 -2.95332e-19)
(-3.3065e-06 -5.83206e-05 -3.55807e-18)
(-0.000809034 0.00390687 7.01708e-18)
(-0.000953536 0.00367808 9.55416e-18)
(0.00152402 0.00154595 -7.01914e-20)
(0.00144292 0.00144425 1.81201e-18)
(0.0025371 0.000478281 5.91121e-19)
(0.00269359 0.000603829 -1.31215e-17)
(-0.000147876 0.000222906 -6.72132e-19)
(-0.000137887 0.000221656 -1.68151e-18)
(-0.00105791 0.0013381 -1.23052e-17)
(-0.00100471 0.00141295 1.20892e-17)
(-0.00111315 0.00142803 1.40719e-17)
(-8.22895e-05 0.000117185 1.83352e-18)
(-8.67769e-05 0.000119228 -1.4312e-18)
(-8.76005e-05 0.000120518 -3.14463e-18)
(-5.1842e-06 -0.00043125 8.84399e-18)
(8.70757e-06 -0.000456642 1.97211e-18)
(-0.000588912 -1.32886e-05 -8.00937e-18)
(-0.000581554 -2.46364e-05 1.63799e-18)
(-0.000567002 -8.64457e-06 -2.52355e-18)
(-0.00430418 0.000621153 -1.49353e-17)
(-0.00442453 0.000520297 -1.60136e-19)
(-0.00438832 0.000645185 -1.94911e-17)
(0.00169555 0.000985688 5.65338e-18)
(0.00182456 0.000996128 -8.01649e-18)
(0.00173002 0.00110351 4.50109e-18)
(-0.000214188 3.79844e-05 -1.90883e-19)
(-0.000220031 3.8582e-05 -2.90289e-19)
(-0.000214778 2.77644e-05 -2.08226e-20)
(0.000577789 0.00161966 4.37095e-18)
(0.00100151 0.00109429 -2.36249e-19)
(0.000729781 0.00167433 1.04298e-17)
(-0.000633373 -0.000119883 -2.18052e-19)
(-0.00064614 -0.000133357 -2.84021e-19)
(-0.000651245 -0.000111024 3.55956e-18)
(-0.00599195 0.00319991 -4.38745e-18)
(-0.00559857 0.00351703 -2.91332e-18)
(-0.000160644 -0.0015823 -1.26069e-17)
(-0.000167133 -0.00165848 -1.44754e-18)
(0.00250475 -0.0015527 -6.22282e-18)
(0.002813 -0.00172825 -6.86069e-18)
(-0.000117845 -2.87853e-05 7.50202e-20)
(-0.000120571 -1.8426e-05 1.37915e-19)
(-0.00012097 -3.15834e-05 3.73093e-20)
(-0.000260072 0.000220128 -2.81027e-17)
(-0.000270544 0.000182975 1.22459e-18)
(-0.000465965 9.63805e-05 6.18311e-18)
(-0.000464255 9.2287e-05 1.87372e-18)
(-4.10119e-05 8.22507e-05 -9.60709e-19)
(-3.91372e-05 8.03985e-05 -6.67892e-19)
(-2.04903e-05 -0.000105801 2.16673e-18)
(-2.34193e-05 -0.000104012 2.30236e-18)
(-0.000336771 -0.000209737 -7.35324e-18)
(-0.000324098 -0.000218537 4.59511e-18)
(-0.000323742 -0.000201032 4.44098e-18)
(-0.0110255 0.0040585 -2.25854e-18)
(-0.0109267 0.00427537 -1.39802e-18)
(0.000275793 0.000773581 2.55598e-17)
(0.000353095 0.000868241 -6.75585e-18)
(0.000257823 0.000880241 8.79964e-18)
(0.000171905 -0.000130311 -3.298e-17)
(-0.000113537 -0.000174631 -3.62829e-17)
(-0.000561512 0.000224362 7.89733e-18)
(-0.00055025 0.000207098 -1.29765e-18)
(-0.000572693 0.000207749 -3.4935e-18)
(0.00262166 0.00183008 3.30219e-18)
(0.00259654 0.00165095 1.03689e-17)
(0.00278117 0.0018015 8.17849e-18)
(0.00164959 0.00896173 -2.57761e-17)
(0.00167431 0.00932705 -6.53709e-19)
(0.000892734 0.00956327 -1.21526e-18)
(-0.000231908 0.00094221 -7.60797e-18)
(-9.10057e-05 0.000866483 -5.63848e-17)
(-0.0002393 0.0010797 -1.86036e-17)
(-0.000143431 0.00105772 2.3624e-18)
(-0.000148223 0.00117415 -8.27299e-18)
(-4.00942e-05 -7.62194e-05 1.77143e-19)
(-3.8917e-05 -8.58533e-05 -2.15227e-18)
(-3.80831e-05 -9.13455e-05 3.89131e-18)
(-0.000150306 -0.00102503 3.2872e-17)
(-0.000204993 -0.00100754 1.96554e-17)
(-0.000188253 -0.0010648 3.07549e-17)
(-0.000111551 -0.00053965 1.29614e-17)
(-0.000134241 -0.000540005 8.61764e-18)
(-3.20544e-05 1.86719e-06 2.70176e-19)
(-3.36519e-05 1.89814e-06 -6.14137e-20)
(-0.00011002 0.000107819 9.80431e-20)
(-0.000109737 0.000114403 4.78475e-19)
(-0.000727519 -0.000805652 -2.43981e-18)
(-0.000735893 -0.000763943 -1.03169e-18)
(-0.000790559 -0.000780114 3.54003e-18)
(-0.000224463 -0.00899355 -6.26539e-18)
(0.00382119 -0.00283015 2.92412e-17)
(-0.00668635 -0.00285952 -2.51161e-17)
(1.25518e-05 0.000630804 1.86495e-18)
(1.53664e-05 0.000652936 2.10476e-18)
(-6.91511e-06 0.000637141 2.59382e-18)
(-3.05731e-05 3.31072e-07 -1.06406e-19)
(-3.06273e-05 -2.19365e-07 -1.82944e-19)
(-0.000785789 0.0014731 6.09099e-18)
(-0.000746714 0.00139414 -1.50849e-17)
(-0.000848864 0.00139166 -7.80555e-18)
(-0.000433281 0.00172485 1.1554e-17)
(-0.000445659 0.00161803 1.56064e-17)
(0.00348736 -0.00101375 -1.86223e-18)
(0.00316081 -0.000993777 2.27137e-17)
(0.000420901 -0.00495064 -1.91355e-17)
(-0.000555072 -0.00486954 -3.74646e-18)
(-0.00245723 -0.00464113 -5.26358e-17)
(-3.99295e-05 -3.98557e-05 5.29146e-18)
(-3.93234e-05 -4.51462e-05 4.6696e-18)
(-0.000114119 -0.000172763 8.80794e-19)
(-0.000118331 -0.00016663 -2.92365e-18)
(-0.00128967 0.000856489 4.36321e-18)
(-0.00136957 0.000908858 6.42244e-19)
(-0.0101725 0.00542683 4.43736e-18)
(-0.0113237 0.005464 -1.25127e-18)
(-0.0108978 0.00566777 8.48124e-18)
(-7.11706e-05 -0.000271335 -5.47479e-18)
(-7.97725e-05 -0.000269826 -1.28825e-17)
(-0.00781958 0.00561028 2.34669e-18)
(-0.00739139 0.00564807 6.56727e-19)
(-0.00872605 0.00588305 -1.75756e-18)
(0.00350109 -0.000508168 -3.74072e-18)
(0.00330721 -0.000749967 1.81122e-17)
(0.0038199 -0.000472927 1.29295e-17)
(0.00247724 0.00189513 6.23133e-19)
(0.00261347 0.00203188 1.29184e-17)
(-6.43099e-05 5.02152e-05 -9.81814e-19)
(-6.49638e-05 5.79289e-05 -3.08257e-20)
(-0.000868744 -0.00116332 -8.78923e-18)
(-0.000904933 -0.00105388 -2.65142e-17)
(-0.000989701 -0.00124364 3.04553e-17)
(-0.00105989 0.000957506 2.93754e-18)
(-0.00113597 0.000933302 -2.00332e-17)
(-0.0010723 0.00087608 -2.94707e-18)
(-0.00503684 4.71394e-05 -2.03279e-18)
(-0.00511444 -4.72776e-05 6.90405e-18)
(-0.00496831 -3.00519e-05 2.34192e-17)
(-6.95104e-05 -6.12982e-05 1.11027e-18)
(-7.17785e-05 -6.7444e-05 -3.28926e-19)
(-7.24558e-05 -7.15353e-05 4.20473e-19)
(-0.00527397 0.000868696 2.24527e-17)
(-0.00534326 0.00120453 3.66334e-17)
(-0.000114606 -4.09779e-05 -1.56874e-19)
(-0.000114214 -2.92011e-05 -2.88375e-20)
(-0.000267012 -0.000307322 3.48651e-17)
(-0.000324458 -0.000304414 3.83028e-18)
(-0.000294812 -0.000261127 -5.2118e-18)
(-3.45506e-05 -2.5493e-06 1.02953e-19)
(-3.4963e-05 -1.78047e-06 -1.30062e-19)
(0.00576808 0.00199687 2.98565e-18)
(0.00592587 0.00184357 3.25212e-18)
(0.00566673 0.00198758 -5.27651e-18)
(0.00199519 -0.00438746 -8.46216e-19)
(0.00190957 -0.00450267 -2.52473e-17)
(0.00239613 -0.00449161 2.43656e-17)
(-0.000319213 -3.79976e-05 -5.57499e-19)
(-0.0003162 -2.71436e-05 7.23605e-20)
(-0.00152109 -0.00142094 -2.50089e-18)
(-0.000187403 -0.00239747 3.61127e-17)
(-0.00353299 -0.0016118 8.72763e-18)
(-0.000378758 0.000132329 -6.20689e-18)
(-0.000370261 0.000138756 2.67927e-18)
(-6.40257e-05 4.13612e-05 -1.34444e-19)
(-6.21475e-05 4.42464e-05 -6.10709e-19)
(0.00587871 0.00553226 -4.27358e-18)
(0.00347576 0.00560715 -2.57624e-18)
(0.00159929 0.000867528 6.22542e-18)
(0.00155733 0.00102637 4.85469e-19)
(-0.000549414 0.00024113 1.06105e-17)
(-0.000570536 0.00024391 6.91704e-18)
(-0.0100941 0.00733455 -1.50624e-18)
(-0.00951262 0.00710465 4.46279e-18)
(-0.0106576 0.00736955 8.40579e-18)
(0.00320965 -0.000410883 -4.71488e-18)
(0.00333231 -0.000240084 1.34232e-17)
(-3.7015e-05 1.52238e-05 3.78705e-19)
(-3.55112e-05 1.80382e-05 7.04184e-20)
(-3.56447e-05 1.50919e-05 -2.62263e-19)
(-0.00038879 9.0829e-05 4.91093e-19)
(-0.000394105 8.59818e-05 2.24927e-18)
(0.0060858 -0.00145622 -2.21564e-17)
(0.00561175 -0.000719372 8.80309e-19)
(0.000604374 0.00046027 -9.38519e-18)
(0.000673243 0.00044089 3.61038e-17)
(0.000639336 0.000399411 -1.03926e-17)
(-5.31463e-06 -7.6737e-05 1.39608e-19)
(-7.31011e-06 -8.90918e-05 6.98294e-19)
(-4.21648e-05 -1.17802e-05 1.88674e-19)
(-4.34645e-05 -1.73911e-05 -3.55874e-19)
(-4.38856e-05 -1.50808e-05 1.99667e-19)
(-0.0148394 -0.000247304 -4.57614e-18)
(-0.0146283 -0.00027644 -6.58739e-18)
(-0.00192786 0.00408277 1.59088e-17)
(-0.00169272 0.00415948 1.24178e-18)
(-0.00185523 0.0043769 1.1675e-17)
(-7.91768e-07 -2.23577e-06 3.43716e-20)
(-3.08801e-07 -1.47747e-06 -2.16769e-19)
(-7.61598e-07 -2.75896e-06 -3.77636e-19)
(0.00777128 0.00400051 3.89735e-19)
(0.00790805 0.0032674 1.11769e-17)
(0.0064292 0.00361058 -6.93778e-18)
(-0.00144988 -0.000544201 -5.68244e-19)
(-0.00155848 -0.000489673 -2.49846e-18)
(-0.00145671 -0.000405917 -8.52235e-18)
(3.72537e-05 -0.000554506 6.36893e-17)
(5.03473e-05 -0.000569864 1.88136e-19)
(-0.000453016 8.78185e-05 1.23584e-18)
(-0.000458191 8.79377e-05 3.27346e-18)
(-0.000453402 9.05118e-05 4.91532e-18)
(-6.43743e-06 -8.38389e-05 2.37504e-18)
(-5.44874e-06 -6.87885e-05 2.94026e-18)
(-0.000621567 -0.000217574 4.80865e-18)
(-0.000597887 -0.000196025 4.94077e-18)
(-0.00059571 -0.000226564 -8.7481e-19)
(0.00497671 -0.000456579 3.87981e-18)
(0.00524936 -0.000413613 -4.66589e-17)
(0.00519985 -0.000166438 -6.05079e-17)
(4.29001e-05 0.000215369 6.54913e-19)
(5.06677e-05 0.000225624 -1.42929e-18)
(4.47025e-05 0.000225544 -3.75775e-19)
(-0.000214229 0.000397079 -4.65053e-18)
(-0.0002734 0.000391635 -7.60392e-18)
(-0.000230605 0.000340027 -3.95064e-18)
(-0.000345865 -0.00103426 8.37028e-18)
(-0.00040517 -0.000977184 3.8088e-17)
(-0.000435176 -0.00105641 2.88949e-17)
(-0.000115298 0.000133394 -3.24871e-19)
(-0.00011537 0.000132727 -1.72347e-18)
(-0.00010363 -0.000164795 -7.60861e-19)
(-0.000104413 -0.000170065 5.80115e-19)
(0.000445821 0.00216181 1.1278e-17)
(0.0004531 0.0022633 -9.99152e-18)
(0.000549282 0.00220186 1.61901e-17)
(-0.0144624 -0.000203641 -9.62761e-19)
(-0.01464 -0.000145208 -9.72069e-19)
(-0.0147429 -8.93787e-05 1.77179e-19)
(0.000630078 0.00263811 -5.43569e-18)
(0.000453591 0.00267339 -3.00307e-18)
(-0.000349577 -0.000201437 -8.28074e-18)
(-0.000347522 -0.000221644 -6.93269e-18)
(-0.000300361 -8.63628e-05 -4.72392e-18)
(-0.000316695 -0.000101233 -2.39227e-18)
(-7.71916e-07 -4.69684e-06 4.48611e-19)
(-6.96478e-07 -4.06672e-06 1.96605e-19)
(-1.9873e-07 -2.31336e-06 3.65893e-19)
(-0.00424395 0.00096916 -5.95498e-18)
(-0.00467281 0.00105174 5.43496e-18)
(0.0023676 -0.002956 -1.53068e-17)
(0.00296196 -0.00330612 -2.87275e-18)
(0.00261545 -0.00298945 1.13976e-17)
(0.00859656 0.00122204 -2.05376e-18)
(0.008217 0.00148762 1.03306e-17)
(0.00712078 0.00106791 1.35715e-17)
(-6.49497e-05 3.31843e-05 1.51156e-18)
(-6.58338e-05 4.08065e-05 1.50466e-18)
(-0.000953374 -0.00109758 -1.45823e-17)
(-0.00114188 -0.00144362 -2.03266e-18)
(-0.00142063 -0.00130782 6.02082e-18)
(0.00488016 0.000878432 -6.26459e-19)
(0.00455396 0.000893795 -5.36666e-18)
(0.00469753 0.000623182 3.52913e-18)
(-0.00613337 0.00913045 2.58541e-18)
(-0.00656674 0.00951246 7.12041e-18)
(-0.0111744 0.00181799 -1.35985e-17)
(-0.0112946 0.00191731 1.2098e-19)
(0.00121068 0.00065626 1.16658e-17)
(0.0011367 0.000568666 -1.02625e-17)
(-1.06201e-05 -9.98699e-05 5.24959e-20)
(-3.07622e-05 -1.09276e-06 -1.56004e-19)
(-2.90908e-05 -7.26727e-07 1.18598e-19)
(-2.92142e-05 -2.41875e-06 1.33488e-19)
(-0.00101508 0.000386318 1.41638e-19)
(-0.000976168 0.000426136 -8.08303e-18)
(-0.00103596 0.000446712 -2.39906e-18)
(0.0067172 0.000372565 -1.93991e-17)
(0.00785179 3.94031e-05 1.1283e-17)
(0.00743976 0.0014368 -1.26871e-17)
(-0.00300521 0.00087441 -2.2949e-18)
(-0.00298661 0.000661759 2.88546e-17)
(-0.00324165 0.000788522 1.10734e-17)
(-0.000281951 0.000172218 -5.32098e-18)
(-0.000285217 0.000180333 -5.44219e-18)
(0.0014076 -0.00500517 3.35673e-17)
(0.00331841 -0.00519242 2.05937e-17)
(0.000633947 0.00107953 2.61462e-18)
(0.000627421 0.00106698 -1.66848e-19)
(2.64001e-06 8.79128e-06 1.88558e-19)
(1.43347e-06 9.94319e-06 1.74417e-18)
(3.03405e-06 1.02187e-05 -3.47356e-19)
(-0.0022356 0.000596745 -1.03529e-17)
(-0.00197124 0.000581771 -2.41332e-17)
(-0.00200956 0.000908198 -1.72809e-18)
(-3.59022e-05 -2.45822e-05 -8.0722e-19)
(-3.51581e-05 -2.35834e-05 2.80735e-19)
(-3.42661e-05 -3.08794e-05 5.57034e-19)
(0.000236026 0.00208382 6.20627e-19)
(0.000391367 0.00147682 -4.18232e-18)
(8.17645e-06 0.000602849 6.21362e-18)
(3.14196e-05 0.000618752 6.94333e-19)
(-8.48996e-07 -1.73744e-06 5.1056e-19)
(-1.46034e-06 -3.0331e-06 1.7028e-19)
(-0.000359717 -3.04284e-05 -2.10733e-19)
(-0.000371605 -3.94127e-05 1.1353e-18)
(-0.000356197 -3.9797e-05 -2.33293e-19)
(-0.000599801 -8.21894e-05 1.28157e-18)
(-0.000582584 -8.6263e-05 -3.26987e-19)
(6.12598e-06 -0.000594406 -6.92911e-18)
(-7.00697e-06 -0.000571237 3.75395e-17)
(0.00714328 0.00391775 -1.41058e-18)
(0.00771355 0.00445397 -1.71331e-18)
(-0.000452292 -8.1002e-05 -1.5112e-18)
(-0.000461982 -8.33146e-05 -7.17054e-19)
(-0.000455942 -8.73833e-05 3.25567e-19)
(-1.47551e-05 0.000177171 2.29258e-18)
(-2.10955e-05 0.000175805 6.40365e-18)
(-2.05486e-05 0.000166876 4.14286e-19)
(0.000498976 -0.00299452 -1.44008e-17)
(0.00084189 -0.00267193 2.12113e-17)
(0.00127837 -0.0030836 2.30722e-17)