/*--------------------------------*- C++ -*----------------------------------*\
| =========                 |                                                 |
| \\      /  F ield         | OpenFOAM: The Open Source CFD Toolbox           |
|  \\    /   O peration     | Version:  v2012                                 |
|   \\  /    A nd           | Website:  www.openfoam.com                      |
|    \\/     M anipulation  |                                                 |
\*---------------------------------------------------------------------------*/
FoamFile
{
    version     2.0;
    format      ascii;
    class       volScalarField;
    location    "500";
    object      omega;
}
// * * * * * * * * * * * * * * * * * * * * * * * * * * * * * * * * * * * * * //

dimensions      [0 0 -1 0 0 0 0];


internalField   nonuniform List<scalar> 
13851
(
0.0232064
1.20932
0.0737503
0.0229105
0.0752631
0.1959
0.0216053
0.0440032
0.0206466
0.0846029
0.223203
1.88821
2.57087
2.89819
0.0214096
0.0319933
0.0243601
0.0272889
0.748886
0.0206432
0.0227614
0.0719832
0.0214437
0.0223335
0.0216397
0.0447697
0.0237756
9.97848
0.0230416
0.023727
0.416465
0.0246368
0.070829
0.334777
0.0223365
0.164392
0.46364
0.175447
0.0938975
0.337807
0.0212768
0.0197649
3.11528
0.252892
0.249481
6.35676
0.255041
0.490157
0.0239743
0.160444
0.069367
0.126571
3.46487
0.0215697
0.0224956
0.0197692
0.0213325
1.99762
0.023534
0.0216316
0.161194
3.32376
0.0474631
0.0877632
0.548944
0.0246626
1.43253
0.266593
0.0324468
0.0271265
7.36979
2.81796
1.23801
0.0216816
0.0210189
0.0208479
0.069001
5.22569
0.0449776
6.74472
0.0218109
0.221956
0.0213422
7.18735
0.0498183
1.88426
0.0610549
1.84253
0.0248143
0.0208538
0.165075
0.0313548
0.276614
0.0268132
0.0246151
0.0221609
0.0774703
2.75575
0.202116
0.0221724
2.87879
0.0481222
0.0220735
0.0235404
0.0210846
0.0612247
0.0532222
0.0196633
3.47575
0.244676
0.0224448
0.0209247
0.0294117
0.0228904
0.0224323
0.830757
2.8238
0.0196938
0.0228958
0.0229496
3.37865
0.0234284
2.6179
0.634459
0.442802
0.0218176
0.515998
0.0466701
0.0225922
0.126879
0.0212599
0.0207084
5.97856
0.0213442
0.7083
0.0208981
0.0197058
2.71557
2.15271
2.37758
2.71128
0.0224448
0.022465
0.0201059
0.0229423
0.267708
0.0334962
0.127306
0.0215906
0.253008
0.0717876
0.0224985
3.07502
0.0213927
0.0226606
0.0228592
0.0209881
0.0228144
0.126195
0.068313
0.019798
0.0267867
2.0159
0.0206925
0.0269188
0.0199336
0.0318384
0.0328784
0.0224803
3.0887
6.4318
0.0203786
0.0210054
2.36809
0.0206853
0.407256
0.0451471
0.0224262
0.813329
0.0196785
0.0253285
3.0005
0.0213448
0.0768967
0.0197772
0.0216702
0.0248441
0.0218271
0.0853557
0.0823861
0.262387
2.63709
0.0211484
0.0325319
3.12575
0.022531
0.0222327
0.394492
0.0222485
0.0208775
0.0219393
5.56477
0.023939
0.0212396
0.0667522
0.0213551
2.89848
0.0244896
3.14357
0.0197044
3.47308
0.0219918
0.40525
0.0196326
0.020025
0.158604
0.0483617
5.19775
0.0213438
3.09954
0.0246387
0.0218483
3.14568
0.122484
3.50262
0.0217605
0.0285788
0.0212588
1.98807
0.0196323
0.0434307
0.925318
0.0203713
0.0210667
0.0618751
0.0407566
3.09377
0.812992
0.0200863
0.0212507
0.320455
0.252426
0.0202162
0.071919
0.0207415
3.30189
0.049291
0.34747
0.0229387
0.0251733
0.0275784
0.24058
0.0218239
0.0230188
0.0495849
0.094617
0.0771624
2.76529
23.544
0.0214319
0.0200448
0.0263262
0.793123
0.020494
2.12039
0.0225197
0.0217944
0.0263743
3.15353
0.0318957
0.0273917
0.0226536
0.879283
0.0425558
0.0311306
0.0207171
0.220403
0.0446576
3.73046
0.222462
0.0202255
0.0196636
0.0210131
0.0475191
0.767553
0.357392
0.0207493
0.0214411
0.877841
0.222374
0.148573
0.0232683
0.0216377
0.0347365
0.224302
1.80458
0.0263969
1.86907
0.0207372
3.33949
0.02645
0.0242352
3.69581
0.0215694
0.0705726
3.17528
0.0207303
0.0412624
0.0269276
0.0230899
2.18651
0.0265662
0.0217727
3.02838
0.019814
0.0253946
0.0228437
3.78862
0.115195
0.0213433
0.0496854
0.0213769
10.0139
0.0301904
0.021458
0.0212114
0.11245
0.0279586
0.02259
0.0214445
0.0215499
0.0217367
0.235773
3.86014
2.85754
0.0297389
3.7491
2.61499
0.0213668
0.0331212
0.150175
0.0331354
0.0541374
0.111138
0.774618
0.0247946
0.70627
3.25027
0.0214269
0.164025
0.159941
1.26989
0.0225819
0.0577464
1.96482
0.0210307
0.71437
0.021199
0.0213894
0.0205828
0.0196619
0.0209367
3.32295
0.332525
0.0213428
0.039602
0.0198649
1.85523
0.0379048
0.504591
2.90011
0.0213535
0.052848
0.0270255
0.49777
0.0211945
0.0197107
0.0289416
2.93792
0.0214001
2.23584
0.0330215
0.118808
4.17446
0.282307
0.281548
0.0252328
0.0207717
0.0220623
0.0286818
0.0491187
2.77817
0.0328851
3.5738
3.21223
0.0198778
0.0214391
3.00367
5.04719
0.696015
2.89509
0.0299581
0.0275766
0.0221573
2.6024
0.0204972
0.031316
0.0246903
0.0215408
0.0211387
0.0207054
0.0199201
0.0852007
0.0498795
5.99762
0.0275997
0.0524631
0.0329418
0.192642
0.0260157
1.53721
0.0240095
0.172134
0.0196929
0.0206873
0.0219549
0.428456
0.310321
0.119058
0.0318962
8.15673
0.349307
0.0511935
0.0232468
0.0632647
0.0211759
0.160464
0.0210748
2.05775
0.280758
0.0661729
3.2486
0.0225243
0.0913467
0.290304
3.46982
0.0196552
0.0288425
0.0462185
0.035519
0.0204563
0.0217473
0.0673374
0.118501
0.0311282
1.52792
0.0217673
0.0212697
2.39888
0.0276431
0.0196454
1.85189
0.0207617
0.0231792
0.0205379
0.0392243
0.0224982
0.0196825
0.0223603
3.03892
0.0213531
0.0349222
0.0208191
0.0276036
0.140672
0.0230434
0.0212381
0.0229234
0.0229148
0.194599
0.0217774
0.089344
0.0213446
0.0218626
2.79701
3.39281
0.0213797
0.028295
0.0261674
0.325644
6.48738
0.0212848
0.34006
0.0212174
0.0751853
0.0215729
2.07466
0.0198149
3.93047
0.077518
0.0197788
0.0282928
2.73082
0.0446319
0.258861
0.0227506
0.43325
0.0229003
0.0206315
0.0207225
0.0215522
4.0356
0.0621698
0.124287
0.533696
0.0459818
0.0198401
2.81452
0.310523
0.0254752
0.0269718
0.323545
0.601576
3.48213
0.0223862
2.09666
6.85303
5.60537
0.0272391
0.0289105
0.624186
0.0791018
0.0908847
0.390188
2.15929
0.0229692
2.20412
2.92237
0.0197062
0.0403989
0.0638193
4.17605
0.0230981
0.0212256
0.0209659
0.021239
0.0835708
0.0373081
1.7967
1.53528
0.0207607
2.38948
3.15163
0.168208
0.29589
0.0343163
0.019612
0.0206651
0.171809
2.85302
0.0227382
0.0858511
0.162578
0.0197563
0.0388235
0.610289
0.292663
0.1101
3.81247
2.95317
0.021236
0.0215535
1.44582
3.16623
0.122179
0.0327509
0.0522064
0.0196766
0.0211017
2.10336
0.0197327
0.023016
0.0196649
0.0207859
2.95922
0.0838487
0.0293919
0.0197221
2.51063
0.406691
0.0207651
0.0210563
0.0205461
0.0219724
2.8352
0.371595
0.390399
5.05772
0.376964
0.0311607
5.7309
3.30242
0.0252248
0.0328707
0.0196056
0.0225927
0.033262
3.01552
0.717529
0.0844967
0.0278575
0.0206045
0.0316042
0.0223471
0.260552
0.0691813
0.0213367
0.030423
0.0204581
0.0261564
0.122334
0.0216069
0.0211557
0.0379867
0.0215737
0.0765707
0.302298
0.117099
0.0320776
0.126268
0.0205915
0.216812
0.0288847
4.41938
0.0219258
0.0222247
3.35645
0.0232699
4.78055
3.23003
3.53587
1.81373
0.0204972
3.09159
0.0203987
0.0207784
0.0198083
0.020793
0.0216982
0.0283142
0.0370533
0.0197024
2.52077
0.0816491
2.58369
0.0209023
0.019952
0.0209822
0.144136
3.26575
0.0506943
0.0264075
0.0204308
0.0219494
0.0215768
0.0210336
0.167477
1.71759
0.0215529
0.0196916
0.0215642
0.021028
1.27618
2.25302
0.0321958
2.68896
0.483952
0.0211401
0.122962
3.33435
0.0342185
1.91704
0.0217956
0.0265242
0.0497877
0.0268126
0.405874
0.0213683
0.629946
0.0211375
0.0293817
3.07723
0.0209305
0.0227586
0.0498899
0.020639
0.024911
0.868834
2.37972
0.0673294
1.64935
0.293345
0.0196475
0.0208834
2.62188
0.154448
0.0439609
3.26376
0.0205415
0.0241519
0.0197212
0.37274
1.33875
0.0250689
0.0217528
0.111297
0.0239001
0.0209456
3.02519
0.105155
2.88512
0.0197987
0.0215457
5.3138
4.75162
0.143493
0.022125
3.38066
0.0213559
0.13075
0.130738
0.0705133
0.0244865
4.46748
0.0262783
0.0230036
0.409829
0.0221128
0.0239081
0.0226246
0.0205747
3.31781
0.0306126
0.111442
0.0288293
0.0517972
0.0206242
0.863468
0.022697
0.0261402
0.0200425
0.0211079
0.0213992
3.13364
0.0209541
0.0197459
0.255092
0.0215708
3.94385
0.0213428
0.0223594
0.0668504
1.5785
0.320244
0.0209093
0.809028
2.70879
0.0218058
3.30627
0.0291119
0.0205484
0.0458283
2.78985
0.656256
0.0253277
0.0208758
0.0196757
0.283503
0.0787027
0.056573
0.0259981
0.046506
0.0221042
0.0222249
0.0848686
0.42711
0.0831073
0.721266
0.0215282
0.0766354
0.0803575
3.82106
0.024917
2.2202
0.355628
0.0215845
7.35115
0.123792
2.68946
2.38655
2.96438
0.352411
0.0391824
0.0205637
0.0281563
1.98954
8.07657
0.0211418
0.0219174
0.063943
0.235506
0.0197971
3.46966
0.0205211
0.0213579
2.71095
5.22329
0.295499
0.0207673
0.0214039
3.65708
0.173018
0.114109
0.023453
2.6835
0.319238
2.84092
0.0524003
0.038813
0.0217755
0.0215649
1.30989
0.0474451
5.78697
0.030826
0.0324431
4.77522
2.68504
3.45367
0.0214283
0.0297655
0.0207522
0.0327334
0.0226802
1.91655
0.0242806
3.22135
0.0197916
0.0654869
0.0211179
0.147716
0.031708
0.0293961
2.71335
0.0414784
0.041571
0.0224791
0.0653816
0.450193
0.0596206
0.0230919
6.40425
0.0204248
2.37132
0.345561
0.0215764
3.46621
2.96763
3.61998
0.322977
0.0297857
0.0211348
2.8907
0.0243437
0.84322
3.15604
0.0209105
0.0225103
0.340804
0.417039
1.98634
0.0215169
0.0209038
1.29253
3.1042
0.110813
0.0249263
0.0228305
0.349177
2.80571
0.0831916
0.019752
0.0395279
0.0206538
0.0233763
0.215759
0.0222251
2.15509
0.146933
0.0213652
0.0226245
0.0211562
0.022673
5.93102
2.72153
0.028479
2.26344
0.0211175
0.0284967
0.0210931
0.0206691
0.021515
0.0213509
3.95006
0.0213804
0.0498593
0.021431
0.025493
0.254864
4.45363
0.0227836
1.55042
0.0597296
0.595273
0.0313304
0.0316598
7.73913
0.0261685
0.0382502
1.89255
0.813854
3.05018
0.038485
0.244407
0.0218388
0.0395073
0.0493067
2.02592
0.0213966
2.19554
0.0208667
0.020919
2.65547
0.0217485
2.0109
0.0247223
0.0207372
0.036819
0.0207518
0.02141
0.0207585
0.0217548
0.181426
0.0209267
0.173836
2.48589
0.0595651
2.37336
0.021548
0.0227476
0.0237054
0.0212478
0.0207311
0.0764159
0.0218539
0.0208086
0.021803
0.0217387
3.82333
1.68317
0.055527
2.86831
0.195921
0.0210953
0.569941
0.0276769
0.0209197
0.311536
0.0625734
0.446947
0.0210767
0.254156
0.427565
2.01876
0.0204046
2.60394
0.0299281
0.0236607
0.0209875
0.0205488
2.23002
0.100054
0.25348
0.0208797
0.0213044
0.486776
0.0215938
1.60233
0.352511
1.62013
0.784651
0.364171
0.0218653
0.0213046
0.0533564
0.0278426
0.0235319
0.149863
0.0401884
0.0218848
0.0227037
1.76164
0.0208253
3.512
1.7675
0.777082
0.186986
0.0222839
0.0202241
0.0216385
0.273018
0.280592
0.020404
0.0233589
0.0208517
0.0744285
0.019873
0.0208172
0.0218778
0.0315554
1.02857
0.0397357
0.0301
0.0214547
0.0499501
2.47861
0.0221284
7.00851
2.42469
0.0774843
0.0199946
0.0423989
0.0212197
0.0215
0.0215823
5.05939
0.115263
0.332536
0.0235986
0.155409
0.0212715
0.0211826
0.0215718
0.586082
0.878414
0.0197767
0.031182
0.0532464
3.53023
0.0230307
1.37064
0.0219295
2.65619
0.0726188
3.31063
0.0862893
0.0764449
0.445519
3.08975
0.342703
5.18356
0.0213246
0.137428
0.0198587
0.0231771
0.0255874
0.0215719
3.1488
0.0286033
0.0267335
0.351466
0.17145
0.237524
0.0213592
0.0233257
0.0254658
0.0203043
0.0291784
1.23557
0.328036
1.12825
0.0209415
0.0262303
0.0238163
0.619023
2.95938
0.052692
0.0202012
0.0217979
2.18859
0.043329
2.08845
2.7666
0.0739321
0.0199742
2.42317
0.0286502
0.0418979
0.0275968
3.38009
0.269124
0.117801
0.208248
0.0221406
0.026628
0.0213664
2.94238
0.0457352
3.22162
0.0784798
0.0254182
0.137595
0.0224856
3.40681
0.200292
0.0209396
0.14712
3.04534
0.159225
3.29178
0.0216351
0.021325
5.64371
2.56835
2.24619
0.0227696
0.0215596
0.0213588
3.73342
0.133916
0.0217357
0.0690159
0.0830635
2.96113
2.28886
0.408789
0.0214194
3.27569
0.0242064
0.02122
0.132688
3.45771
0.021611
0.0208578
5.7141
3.32947
0.0214886
0.0209258
2.23182
0.0208842
0.189607
0.0209426
0.558148
0.0213183
0.0506714
1.19006
3.0026
0.022334
4.28992
0.168619
2.46395
1.79503
2.62912
0.0573466
0.0211528
2.35238
0.0230727
0.0213761
0.020278
0.434517
0.0211233
0.357462
0.0208742
0.0231512
4.95104
0.0629801
2.10664
0.0226159
0.0287019
0.0207151
0.0312813
2.57773
2.88228
0.0208564
0.0638673
0.277356
0.0215394
0.0205599
2.98156
0.0329203
0.0335595
0.123421
2.39531
0.828876
2.23054
3.20755
0.0730976
0.184635
0.293308
1.71445
0.0637737
0.0201974
0.121009
0.0211398
0.0211313
1.83909
3.0271
0.0228878
2.92166
0.113905
3.82563
0.131846
0.0698807
0.0212027
0.144054
0.083669
0.0210945
0.0224199
3.23225
2.82826
1.35108
3.3998
0.0368118
3.26832
3.3373
0.0307574
0.0217435
0.0210238
0.224701
0.0209948
0.181643
0.022369
0.0219685
0.0230539
2.56584
3.73443
2.24661
0.0217727
2.56418
0.0245753
0.0284245
0.0209871
0.0209455
2.027
0.0263991
3.32331
1.35428
0.0594592
0.110323
0.0214787
0.0387012
0.0215476
0.133765
0.0222794
0.0225416
0.021702
0.0224221
0.146408
0.0220208
0.0333474
0.0211307
0.0339276
0.14464
5.82618
0.0210329
0.0461499
0.0213919
0.0537602
0.0226326
2.75119
0.137563
0.0304864
0.0234382
0.0224292
0.222553
0.0212254
0.0973894
0.0214254
0.0209213
0.022116
3.01832
0.0263009
0.0242059
0.0285565
0.021503
0.0614541
2.92372
1.98681
0.0342378
0.0213746
0.0488889
0.020249
0.0210077
0.187852
3.2033
0.0212523
0.0292772
0.10837
2.70024
0.0217745
0.0219485
3.22966
0.0224
0.094209
0.174296
3.81442
0.0213293
0.0233589
0.0212395
3.45025
0.124942
0.0399222
0.113058
2.27979
0.0222714
3.6673
2.06921
0.0215333
2.65378
0.07761
0.0223994
2.05066
0.0215191
0.0211725
0.0204923
0.16625
0.119103
0.152439
0.0225626
0.0221831
0.0291364
0.310763
0.291506
3.69407
0.279148
0.0219354
0.125465
0.126087
2.16063
0.0706273
0.237862
0.021008
0.0283994
0.0205662
0.104186
0.0349812
0.0212328
1.92517
0.137199
0.031167
0.0254638
0.0197057
0.0214313
0.0509483
0.032855
0.347319
0.0638205
0.0630638
0.0569864
0.111331
2.05949
0.0549553
3.64048
0.0210448
0.0208142
0.184691
2.32089
2.41987
0.163692
0.0226291
4.90113
0.274825
0.020965
0.0257518
0.0208194
0.0396112
0.067348
0.028375
2.55521
0.295828
0.0224637
2.70029
6.41114
0.0214161
0.0862073
2.1868
2.19157
0.0234966
0.0716353
0.0196248
0.0231144
0.0210293
0.0247662
3.61906
2.68931
2.48037
3.74696
0.0224492
0.032639
0.0516253
0.0211074
0.0218893
0.0205567
3.02694
0.0209577
3.4903
0.0349834
0.0434947
0.150122
0.189004
4.69375
2.84906
0.0388569
0.0198945
0.0223465
2.61755
1.55039
0.0243461
0.0207854
0.020635
0.0599075
0.0293209
0.136967
2.28133
0.022421
0.020512
0.115833
0.042696
6.34375
1.03674
0.0209367
0.0691032
0.0214847
3.66224
0.0200432
3.27707
0.0210187
0.0223622
0.029791
0.0219548
0.0517819
0.0289834
0.0452345
2.00474
2.83678
0.0247604
0.028922
0.0211958
2.74604
2.04693
0.0218346
0.0200983
0.281339
0.0196707
3.92186
0.0213262
0.0319048
0.0659118
0.115713
0.0363087
0.0224633
0.0215829
0.0671808
3.28126
0.021153
0.0913804
3.42147
0.616709
0.166968
0.0320986
3.54079
0.0249881
0.288705
0.0212723
0.285738
0.270082
4.55296
2.76868
2.28782
0.0220219
0.0952572
0.0208484
8.25868
0.304858
3.14421
1.97837
0.0262566
2.08883
0.710402
0.0333085
0.0225627
0.0215963
3.41715
0.0250753
0.0667361
0.0234028
0.0215817
0.0206697
0.0215089
2.79716
0.179157
0.0300175
2.17345
1.98382
0.0214777
0.0213043
0.0205476
0.0268861
3.25271
0.185082
0.0249952
0.0247184
0.793042
0.0727793
0.0426114
4.75861
0.0292759
3.55094
0.0293304
0.028182
0.0212814
0.0233452
0.0673057
0.42765
0.289471
3.22786
0.0665291
3.20788
0.0240676
0.0240095
0.0216366
2.28988
2.34546
0.518786
0.0745733
0.0232574
0.0213809
0.0210781
0.0214217
0.0205742
2.74812
0.0282843
3.20185
0.0309775
2.70941
1.98922
3.31801
0.0343047
0.0254031
2.12726
0.0375572
1.65069
3.4011
0.020617
0.0851323
0.0264832
3.08547
3.92264
0.033345
0.0620765
0.32618
0.0230593
0.0483015
0.02413
2.78956
0.329427
0.0236425
0.0215784
0.269946
0.179606
0.123386
0.73429
0.121241
0.0272071
0.0212149
1.76457
3.20902
0.0729627
0.0298418
2.84264
2.51275
0.0208652
0.0214044
0.0238464
3.20523
3.06002
0.0213372
4.26837
0.0219713
0.0210456
0.0215524
4.39286
0.400742
0.0821377
2.4934
0.0226894
0.0225049
0.0209691
7.65051
0.0222598
3.0834
0.0235299
1.20201
0.021782
0.0211399
0.117972
2.85347
0.292892
0.0343104
2.49556
0.0200695
0.0214854
0.0214144
0.0422669
0.061977
0.0619897
0.0344085
3.25365
0.0239965
0.119156
0.529363
2.02072
0.0213619
3.42527
3.13742
0.0246366
0.388853
0.0629599
2.47581
0.0215676
0.0641712
0.0210629
1.63494
7.39564
0.0827134
3.44621
0.0232153
0.0469676
0.0223073
3.93851
0.0199622
0.0208027
0.481939
0.0819923
2.38676
2.51489
0.0615168
0.0276983
0.0204765
1.29113
0.0292169
0.0211161
0.137396
0.0206718
0.0415386
0.0213733
0.45924
0.0226108
0.263857
0.289468
0.0298741
0.145185
0.0520557
3.68777
0.0212704
1.23042
1.52882
0.0207189
0.0213534
0.0226457
0.0218078
0.037628
0.0212527
0.108235
0.0727887
0.094652
0.0570328
0.0214476
0.0218078
0.0204817
3.007
0.0215037
0.0212529
0.177775
0.0236141
1.22867
3.44251
0.0843571
0.0237786
0.0322741
0.0224562
0.0219577
0.0333394
0.0201566
0.0237298
2.35051
3.36528
0.687572
0.022408
2.81677
0.201053
0.0218248
0.068323
3.12109
0.0213521
0.0232816
0.0213112
3.16777
2.27739
0.54647
0.0201371
0.0236696
0.0230238
0.021578
0.124125
0.0215055
0.0544137
3.45123
3.56479
0.0205956
0.0236017
0.0232708
2.57825
0.0196965
2.23158
2.15021
0.273609
0.800194
2.96098
2.13521
0.0225487
0.550541
0.107476
0.0222693
0.0204593
0.0208672
3.41529
2.22515
3.45039
0.0214109
3.57712
0.0215501
0.153244
0.0204986
0.0229303
0.0222098
0.020586
2.31335
0.0223302
1.94147
2.59997
2.27122
0.0446689
0.050062
2.32742
3.2362
0.021854
3.39754
0.0204879
0.0197132
0.0212936
0.0522659
0.0207059
1.99592
0.0287816
0.238982
0.0355038
2.15824
2.05923
0.0943578
0.0205628
0.0523813
0.0710848
2.36748
0.0213858
0.0199102
0.0229463
1.93955
0.0215586
0.218524
1.95886
0.0396237
0.05741
0.0214115
0.345127
0.021743
3.28614
0.0202525
2.55642
0.0302947
0.0215007
1.9663
2.35788
0.0201927
0.0629342
0.0241136
3.41643
0.0643629
0.501194
0.261201
0.0217441
0.0524534
2.68765
0.0210815
0.0470874
0.0228859
0.0734568
0.0312905
2.10215
2.96342
0.0215132
3.46267
0.0222743
0.0420859
2.95867
1.96487
0.0341362
3.05477
0.242412
0.0215902
0.261621
0.123159
0.0298574
0.0222846
2.72928
0.0202213
2.58165
0.182458
0.10383
0.0213495
0.0293315
3.26285
0.0425897
2.72271
0.0219832
0.0234882
0.139575
2.80133
0.0255795
3.27173
0.687364
2.02364
0.0215636
2.79018
2.38953
2.34056
0.0213963
0.0221322
0.0212698
3.36553
0.0259338
0.336249
0.349018
0.0217653
0.0203234
0.0213667
2.3859
2.85885
2.93392
2.10504
0.0209576
2.67618
3.24626
0.124816
2.25281
3.11821
0.0329805
2.61969
0.0231352
0.0252522
3.07498
2.72601
0.0217368
3.34142
0.0216812
0.0213937
2.89795
3.04442
3.65497
8.78317
0.0300962
0.0217721
0.023165
3.35224
2.39833
0.0211658
0.0447421
0.354132
0.0214265
0.0214981
3.02731
2.25705
0.0227785
0.021433
0.022199
0.0224181
0.554005
0.0217907
0.0211146
0.0251537
0.136828
2.35986
0.0925441
2.71008
0.0215239
0.0242476
2.90837
3.26772
0.027258
0.305932
0.0213295
0.0343569
0.0224755
0.0220577
0.0627156
0.0210541
0.762536
0.0314145
0.0208208
0.0239657
2.46312
1.4841
3.59641
0.0214387
0.0247093
3.36832
0.36751
0.0237335
0.0213167
0.0214802
0.221509
0.0215117
0.0219396
0.0271472
0.0213406
2.95638
0.135482
0.0217259
0.0238215
0.0200755
0.0215022
1.41987
0.223808
0.0676245
2.27082
0.0500234
0.0218309
0.0213099
0.0214955
0.021238
0.0217103
0.0238595
0.0691586
2.92219
0.0224759
0.105434
3.48258
0.183685
0.0212099
0.0208194
0.0232391
2.73778
0.021196
1.26884
0.331055
0.041545
0.0219902
6.23006
0.0200966
0.09474
0.020435
0.0201269
0.0216075
0.0207975
0.0319736
2.64904
0.11492
0.0369247
1.42711
0.0809065
0.16238
0.0307668
3.08446
2.11771
0.103932
2.48138
3.07655
0.109509
0.352043
0.021802
0.0207198
1.76915
0.0210063
0.0239081
2.74777
0.0478326
1.84171
0.136546
0.0207606
0.023016
0.0214745
0.0463112
0.0204697
0.0714158
2.51038
2.96746
0.892478
0.0214687
0.020254
0.0692048
2.62944
3.00038
0.111134
1.07144
0.0208674
1.76925
3.63509
0.407884
0.0234873
0.0214939
0.0200198
0.0230277
0.0214068
0.0212953
0.0237094
2.95746
0.0737259
3.28451
0.0557617
1.87208
0.165414
0.021266
0.0211033
0.021943
0.0205817
0.0217715
0.29669
2.42493
0.728859
3.54281
0.0232035
2.11517
0.136518
3.30655
3.3427
0.0214665
0.0207898
0.20895
0.0214633
0.0202073
0.490944
2.97869
2.11384
0.0213891
0.0215008
0.0236125
0.0363862
2.37433
0.020506
0.023806
0.339957
0.0205101
0.352336
0.0359294
2.65524
0.0217633
0.265997
2.56226
0.0340628
3.30324
0.108188
3.37251
0.0200743
0.0246391
0.0208296
0.02887
4.16038
0.0215823
2.16116
0.0217698
0.0215898
0.021444
3.45337
0.0424379
0.107303
0.542717
0.0206632
0.0422539
2.06663
0.0522401
0.0207772
0.0227724
0.0214624
0.043286
0.0212553
0.0208742
3.55042
3.61477
3.34538
0.206369
0.468144
2.07882
0.0672584
3.64566
0.11977
0.0200141
0.0211202
0.0196834
0.0215915
3.39991
3.35543
0.0203856
2.51815
3.42014
0.0285836
0.0223615
0.0247534
2.68911
2.97686
3.00439
0.607379
3.02289
0.0196864
0.187979
0.0970528
0.180211
3.16047
0.0213307
0.123442
2.0591
0.0314923
2.56577
0.0217458
0.0901694
2.06942
3.18681
0.0714782
0.0302252
5.15156
0.124547
3.23113
3.28748
2.93245
0.109437
2.73129
0.0215158
0.0244303
0.0452167
4.13596
0.269788
3.49269
0.0222694
0.110442
0.0667228
0.0224519
3.12396
0.0213514
0.124326
3.88558
0.0213617
2.41976
2.68014
3.26456
2.72781
1.4915
0.140453
0.021066
3.44437
0.0216794
0.0208795
0.0397008
0.023581
3.20852
0.0237709
0.024845
0.0238032
0.0207925
2.43583
0.0227082
0.112668
0.279046
0.020602
3.79213
0.0972253
0.0224875
2.15602
0.18771
0.0213486
0.888848
0.0219871
3.40432
0.0561771
0.0204213
0.11132
0.0227735
3.535
3.06776
0.0694415
1.13737
0.0253249
0.0214867
2.80052
0.0237811
0.0212724
2.01846
0.039112
0.0208729
0.0208093
0.125851
0.0225879
3.79455
0.192917
0.0410032
2.40118
0.0507169
0.0596395
0.021107
3.57481
6.22777
2.39824
0.0214008
0.0202956
0.0693161
0.0295546
0.435705
0.0213013
0.351963
0.0211998
0.139727
0.0219008
0.0386358
0.153079
0.109917
3.61632
1.36204
3.07554
3.05195
0.0197179
0.934638
1.17286
4.54131
0.0212023
0.16133
5.92244
3.19865
0.111234
0.658453
0.786579
3.65576
0.0438054
0.174646
0.0205715
0.045607
0.0411365
0.0213157
0.0669522
2.3689
0.108156
2.57788
1.63274
0.0211573
0.0208137
0.0293143
0.021322
0.908528
0.0205339
0.0207803
3.77625
0.184555
0.031625
0.0979842
0.0225396
0.0793881
2.14268
3.15772
2.04016
0.0251462
3.11898
0.0227128
0.0205665
0.0230666
3.1894
0.199763
0.192446
0.180347
0.0222289
0.020829
0.0213218
0.0218184
0.0260652
2.8027
1.52485
0.0279379
3.16865
3.81411
0.0853642
6.02495
0.0214191
0.0289176
0.063726
0.0214046
0.024317
0.0262583
0.0237092
3.06574
3.18167
0.0205281
0.0382516
0.0288038
0.065555
2.38339
2.17203
3.60065
0.0215861
0.0784524
3.51441
0.0776561
0.111002
0.0458584
2.69801
3.76059
3.62972
0.020503
2.72083
0.0203634
0.0228574
0.0213316
0.0577854
3.71566
6.57082
0.355219
4.34079
0.0542537
0.0201532
0.0208031
0.0215006
0.0231673
0.0422237
3.67651
3.51477
0.0734039
0.592907
0.0216018
0.0539012
0.0206535
3.24082
0.0738741
0.0215133
0.132331
0.0984091
1.80061
3.6806
0.126183
2.88717
0.0243667
2.39414
0.187284
3.02819
0.291361
0.0226115
0.0534842
0.0214698
2.9766
2.40902
0.0386606
2.23949
0.18288
2.13996
0.0634082
0.134998
0.0392197
0.0208899
0.115462
0.0560431
0.0238928
0.0531771
0.0299853
0.0314507
2.14161
0.148114
0.0229129
0.0293695
0.0350736
0.030909
0.0226087
2.06344
0.106408
0.323524
8.93532
0.0213841
3.25869
0.0214624
0.0240107
0.0231856
3.19719
0.0364458
3.28601
5.48411
0.0570323
0.0420533
0.113586
1.63419
0.127996
1.07106
0.024322
0.0439278
0.0209148
3.30781
0.368966
0.0242428
0.0217106
0.0356396
0.0255077
0.0240009
0.0472484
0.0382882
0.0215777
0.0327352
4.17408
3.27829
0.144783
0.0396492
0.0198285
1.75441
0.0313264
0.0616488
0.848438
0.0414846
1.85191
0.0202357
0.0243989
0.0239355
0.0319823
0.0211986
3.41378
0.2679
2.47858
0.0358562
3.21641
0.186428
0.0252856
1.67427
0.0630602
0.18504
6.29842
0.0416309
0.0237485
0.0391865
0.0641895
0.0239235
0.365432
3.86478
0.349916
0.0208951
0.193508
0.419448
1.29183
0.0212593
0.042569
0.0210782
0.0297268
2.50362
0.0285496
0.0282394
0.0208815
0.0208617
0.742788
3.12004
0.0213329
1.55911
0.18745
0.0201667
0.0248996
3.34227
0.110598
0.0988962
0.0213699
0.026526
0.0978722
0.0218832
0.0210391
3.08146
0.028515
3.37745
0.0793227
0.0256902
3.70828
0.111765
0.150629
0.0209252
0.419587
0.0292461
0.0260676
1.58061
0.0389108
0.0215346
0.07902
0.0241637
0.0246698
0.02016
1.56599
0.0213505
0.0661467
2.40624
0.0964674
0.0208212
0.544069
0.02989
3.24421
0.157089
3.52038
0.102973
3.17132
0.0206861
0.0731646
0.0250907
0.0211208
0.430493
1.99995
0.0246594
0.401448
0.0244266
0.0691464
3.58441
0.0255712
0.063858
0.891089
2.62251
1.65932
0.144514
0.0255449
0.0207438
0.069305
0.0341822
0.728769
1.84691
3.22657
2.10087
3.40085
0.0208349
1.59841
0.0213982
0.0223234
0.0215414
0.37502
0.143189
0.0806179
0.0210234
10.4602
0.0267272
3.6606
0.0208958
0.0590044
0.0294898
0.0664856
0.0405224
0.0995416
0.0226851
0.160147
0.118954
0.0209482
2.61108
0.179692
0.0457307
0.0227055
0.0291551
0.0216022
0.0210399
0.061609
0.0453023
2.46492
0.189306
0.0809898
0.627563
0.0212023
1.47943
0.0616916
1.99509
0.029569
0.0300218
0.42723
0.0304667
0.157768
0.0643545
4.38832
0.0232397
0.0216143
3.05995
0.0308205
0.0234152
0.0269587
0.0292046
0.0205397
0.025934
3.34907
0.0216175
0.0404724
3.34473
0.108199
0.0683006
0.261124
0.796696
3.49614
2.44444
1.34106
0.0528925
1.32511
0.0225751
0.0245147
0.0214813
0.020982
2.04222
0.340097
0.0308371
0.0207253
0.146384
0.0844238
0.0212825
0.0304013
0.0505261
0.0212135
0.0228411
1.4939
0.026061
0.036106
0.0356947
0.021363
0.0821453
0.0620295
0.0288306
0.230349
0.0728309
0.727285
0.153326
2.93717
0.0232047
3.78727
0.150698
0.138159
0.0628691
1.75436
0.0712264
0.0258302
0.0475202
0.0638631
0.0232944
0.0669083
0.0210761
0.021251
0.0201354
0.0241505
3.36041
0.0204305
0.0999817
0.0241422
0.0234913
0.0239259
0.527952
0.0231876
0.058592
0.0215138
0.0240419
0.0245682
0.0207419
0.283786
0.0233789
0.0205828
0.0222248
0.0280128
0.020972
1.84175
0.0266437
2.28363
1.01702
2.24161
0.0569095
0.0693478
0.120895
0.0389419
0.0251504
0.0247736
1.82807
2.94288
1.56024
0.0603188
0.0307345
0.0213825
2.01264
0.0386448
3.21929
0.0215446
0.705436
0.135036
1.47101
1.18832
0.0201355
0.0214121
0.0203711
0.0282923
2.99948
0.0463363
0.761119
0.0253737
0.02831
0.0209917
0.0218142
0.0326283
0.0234326
0.0236887
0.0209541
0.189684
0.25052
3.07873
0.0247888
0.567593
0.0207196
0.0203182
0.100352
0.021888
0.0238806
0.0620698
0.0238686
0.0656842
0.0214188
0.0245563
0.021528
0.024155
3.27811
0.0211339
0.0233638
0.022515
0.0235928
0.720587
0.0217534
0.0476031
1.45916
0.0242766
0.0289038
0.022354
0.0234517
0.0217521
0.12613
0.0214451
0.0260844
2.35988
0.0208117
0.0285214
0.047842
0.0596433
2.16258
0.0201106
0.0235281
0.0224604
0.0294706
0.0935473
0.908994
2.98443
0.0202693
0.0277937
0.0786892
0.0238053
1.92868
0.020009
0.0215584
0.993989
0.0388573
0.0234626
0.0200758
0.125737
0.111362
2.15301
0.0215595
0.90608
0.0200487
0.0205416
0.0233219
0.0734337
3.76371
0.0215099
0.0209126
0.343787
0.021451
0.0230811
0.256345
3.14048
0.0214418
0.0205
0.0223635
0.0304507
0.176195
3.26971
0.0218224
0.100618
0.0214804
0.0213462
2.02525
0.0230208
0.0217953
0.0295223
0.187453
0.125298
0.0231689
0.0221039
2.3749
0.0389965
0.022294
0.177351
2.80438
0.0214653
0.0217096
0.0230208
0.0213593
0.0214576
0.0208471
0.0202591
0.0377436
0.0229374
0.0420835
0.0457224
2.07756
0.785235
0.0300026
0.0200909
0.0213447
0.0221379
0.0229994
0.038929
0.0282082
1.01282
0.0233747
0.0983576
0.0239385
3.58001
1.96068
0.0278664
0.0229219
0.118332
0.0235999
0.0259858
0.0213866
0.0222483
0.021107
0.0445034
0.0400903
0.0448858
0.101112
0.0230154
0.0250241
0.0221776
3.321
2.5527
0.347402
0.0263642
0.097357
0.0916469
2.99915
0.0219031
0.38214
0.0619657
0.0213939
0.0217717
2.26009
0.0214937
0.0223395
0.0231008
1.19525
0.0214757
0.0217239
0.025168
2.35253
0.0209378
0.0488474
1.02427
0.0233907
0.0214984
0.0211357
0.0214172
0.021745
0.0216915
0.0305515
0.0227194
0.0214808
0.0216992
0.0217197
0.0279265
0.02137
0.233274
0.021546
0.0216848
0.0365243
0.0364581
0.041811
2.0776
1.0605
3.37346
0.0360421
0.0208266
0.036194
2.06355
0.0202335
0.27231
0.0237469
1.00137
0.0230404
0.0414814
0.0217381
0.0213822
0.108828
0.208241
1.73094
0.254477
3.44129
0.0217096
0.0208964
2.01733
0.0202057
0.0214866
3.16504
0.0210082
2.32502
0.0214376
0.166087
0.101531
0.0235315
0.601447
0.0263101
0.0728683
0.314979
0.86252
1.45077
2.56258
0.239511
2.10753
0.0215348
2.16829
0.0214541
0.0213076
0.0209555
0.0218621
0.987992
0.0223159
4.94322
0.0214898
0.0213737
0.0215572
0.0751207
0.0216137
0.0206398
0.0536911
0.0249223
0.0258012
0.0248209
0.0276626
0.193508
1.92135
0.115863
0.911641
0.0936666
0.0222863
0.491572
0.0214469
0.028035
0.0710583
2.72901
0.0398002
3.42106
0.0214614
0.818671
2.6707
0.138351
3.53105
0.287284
0.0233535
0.0213178
0.0237153
0.0214481
0.0213019
2.77054
2.5767
0.0210562
1.54945
0.0214141
0.101878
0.020976
0.211663
0.0264168
0.0232265
0.0207268
0.363309
1.33329
0.317208
0.0206062
0.0206808
0.0259213
0.0220687
0.0221628
1.01514
0.0849529
0.04474
1.92674
0.0405131
0.0217625
0.0304543
0.0746569
0.021845
3.11054
0.0525959
0.26424
0.0229536
0.0239152
0.0203162
0.0196947
0.0213659
0.0258487
0.0207891
2.12394
0.0370727
0.0689645
0.0212652
0.0386396
0.0214405
0.0609006
0.0380025
0.0518246
3.0538
0.025371
0.0213285
0.0244935
0.0217818
2.31777
0.0802013
0.0390277
0.0522331
3.4725
2.10808
0.104535
0.0475564
0.0213919
0.0228817
0.0230503
0.0322298
0.125067
0.0257144
0.0215338
0.408629
0.237168
0.0217349
0.0231498
0.0529082
0.02223
0.0209474
0.0373172
0.0213808
0.0218415
0.0209337
0.0233358
0.0219862
0.0428081
2.0954
0.0214599
0.416378
0.0936678
0.102295
0.0209257
0.0214654
0.123323
0.0255387
0.0214304
0.0594626
0.0213367
0.0494766
0.0215671
0.038432
1.63952
0.0515289
0.022439
0.0560781
0.782865
1.10356
0.021428
0.0343001
2.83331
0.0211539
0.0221057
0.0734139
7.10319
3.32045
0.0235565
0.0213352
0.0304365
0.0211975
0.0222452
0.0273731
0.0217363
3.51836
0.0217633
1.09362
0.0214438
0.0214635
0.0454127
0.0213639
0.0215372
0.0273632
0.835479
0.0205624
0.0336942
0.0218299
0.0211126
0.0216967
0.0273891
0.0252236
0.0657313
0.022945
0.021718
0.0217935
0.0369136
0.0223108
3.47753
0.0219606
0.102943
0.0323111
0.0229752
0.0269248
0.97512
0.0214902
0.0219989
0.0200323
0.0836143
0.386701
0.021538
0.0341553
0.0209293
0.033251
0.021446
0.261676
1.60976
0.023294
0.0248134
0.0266801
0.0328867
0.0222851
0.0207376