/*--------------------------------*- C++ -*----------------------------------*\
| =========                 |                                                 |
| \\      /  F ield         | OpenFOAM: The Open Source CFD Toolbox           |
|  \\    /   O peration     | Version:  v2012                                 |
|   \\  /    A nd           | Website:  www.openfoam.com                      |
|    \\/     M anipulation  |                                                 |
\*---------------------------------------------------------------------------*/
FoamFile
{
    version     2.0;
    format      ascii;
    class       volScalarField;
    location    "400";
    object      omega_0;
}
// * * * * * * * * * * * * * * * * * * * * * * * * * * * * * * * * * * * * * //

dimensions      [0 0 -1 0 0 0 0];


internalField   nonuniform List<scalar> 
13917
(
5.21101
0.0389888
0.19741
0.0221755
0.0285236
0.0383691
0.0262211
0.0870969
0.0250958
9.26562
0.0796594
0.0217424
0.0244722
1.58111
0.0274755
6.82325
0.0219609
0.0670216
0.103692
7.16222
0.0330666
0.0217133
0.0425466
0.0217148
0.023143
0.0351269
1.71995
11.494
0.0460932
0.0200842
10.1255
0.0614478
0.0222019
2.9823
0.0214078
0.101716
0.0238579
0.0237684
0.0262556
0.0369878
0.0218541
0.0217585
0.023757
0.0982559
0.0976685
0.203004
0.0313814
4.94571
1.28827
0.0214235
0.0217106
0.107677
16.284
0.0216695
0.0217388
0.106519
5.09997
0.0425537
0.0216323
0.155846
3.4005
0.0296851
0.0209149
0.0229703
3.08611
0.0451859
0.050728
0.0892962
0.0736019
5.7472
2.8801
3.10124
0.021718
0.0213993
0.0339045
0.0235895
0.0244233
0.0213116
0.0233854
0.0222725
0.0222267
0.0220757
0.0217031
3.05639
0.0211486
0.125556
0.0593231
0.0216183
0.0366901
0.021885
0.0207752
0.0239105
1.26424
0.02111
0.022175
0.0503822
0.598529
0.022356
0.0215194
0.113463
0.0213365
0.021246
0.0222694
0.0215053
0.0243528
3.3475
2.80109
0.0297875
0.0220395
1.7876
0.0215365
2.94297
0.045924
5.60257
3.09343
0.0239842
0.0970004
0.0209159
0.168964
0.021645
0.0219776
0.021054
0.0559758
0.0856413
5.32743
3.15187
0.0228123
0.0357062
0.0211458
0.0868097
0.0312167
0.131934
3.52056
0.0239437
0.0717996
1.78943
3.25525
5.23277
0.0375091
0.0237154
0.887274
0.0211698
3.33892
0.0211896
0.0216482
0.0242956
2.86481
0.5431
5.54903
0.0217033
0.0341185
0.0211145
0.0216284
0.0216534
1.25115
0.0223802
0.0214413
3.49074
0.0215266
0.0211034
0.0211304
2.85943
0.0257525
0.867284
2.60942
0.111405
23.1014
3.19084
0.0196042
0.0398516
0.0218418
3.41401
0.0250573
3.01747
0.0650298
0.0212975
0.0221785
0.118058
0.0305415
0.0263049
0.0236607
0.0217513
0.0217089
0.165127
0.175367
0.114848
0.021683
0.166441
0.0200998
0.107298
0.0651267
0.090162
0.127773
4.99866
0.0211169
5.13937
0.0254852
3.58984
0.0213721
0.0221512
0.0294949
5.52775
6.66317
0.0235046
1.79646
0.035059
0.0344495
0.021171
0.116529
0.0222223
0.0208829
0.0350763
0.0362629
4.84207
0.0698179
0.0369058
2.93843
0.022671
0.0203646
0.020353
3.46165
0.150686
0.14124
0.0213627
0.0210536
1.80168
6.18119
0.0203109
0.0202971
0.021871
0.0203774
0.020368
3.24946
3.20405
0.0218773
0.0196127
0.069555
3.33612
0.0216681
0.0213601
1.82805
3.39618
0.171463
2.92999
0.0889258
0.0211975
2.7584
0.0723152
0.0428168
0.0695812
0.0232646
3.49704
0.0216567
0.0395625
0.0590257
0.021985
0.0219898
0.0229485
0.0266836
0.0214839
3.70334
1.11204
0.0210515
0.0202974
0.022498
0.0203014
0.0216612
0.0244526
0.0350959
0.0211716
4.18465
2.72973
0.0214943
0.024829
0.905827
0.0202595
0.0856422
3.32393
0.0202704
4.24439
0.0213925
2.85307
0.0213748
0.0260082
0.0220569
0.0211577
0.136616
0.0228205
0.145442
0.027697
1.08134
0.0249854
1.28358
5.47101
0.0211801
0.0483938
0.0272523
0.0242617
0.0279651
0.0233433
0.0211825
0.0224449
0.116349
0.0370208
0.0384463
0.0231912
0.0213432
3.53259
8.2479
0.0210672
0.0230319
0.0242971
0.729227
0.114581
2.75431
2.81256
0.028098
0.138689
0.0245328
2.91729
0.80511
0.196463
0.024276
0.027211
1.66705
0.0220922
0.0419326
0.0893141
0.0218268
3.41203
0.0211938
0.0387098
0.0204934
18.4574
0.020796
0.0363312
0.0356826
0.0278532
0.0217222
0.0696512
3.14657
0.0220758
0.0220837
2.92617
3.21393
2.72548
1.57885
0.0202472
0.0218365
3.45966
0.138326
0.02026
0.0278757
0.0216788
0.0519085
0.0373456
0.104059
0.0852593
0.0863924
0.0383334
3.15233
0.0211833
0.0220832
0.0299154
0.167549
0.0217778
6.02384
0.0381108
0.274633
0.0217799
0.110499
0.0232186
1.23129
0.0217685
0.156055
0.740698
0.0382641
0.0215163
1.90968
0.0207249
2.61555
0.138881
0.0217759
1.24682
0.0224254
0.275757
0.0207116
6.06647
0.274915
0.0234091
1.84211
0.0756605
0.0229288
2.70493
0.214884
0.023029
0.137513
0.0217475
0.0772131
0.196645
0.0212182
0.0256952
0.0231651
0.0211436
0.0209321
0.0212319
3.07218
0.110489
0.0219158
0.0212915
0.0215622
0.0472762
0.29879
0.0203194
0.0196231
0.112821
0.109988
0.0211831
0.0232729
2.65961
1.50901
0.043912
0.109615
2.67776
0.0207739
0.0202835
0.0303389
0.0209222
0.0203315
0.0219545
0.0202986
0.0207149
2.79363
0.0217903
0.0396771
3.82826
0.0480381
0.0209014
0.0216103
2.7268
0.0295339
6.50087
0.0204232
0.0213432
0.0208006
0.02039
0.0237469
0.0226145
2.63419
0.0251729
3.43853
0.0213376
0.03351
0.0254884
0.0221573
0.0870105
2.7145
0.0216467
1.71633
0.020934
0.0213398
0.0215178
0.0224435
0.0208393
0.0221943
3.48798
3.19647
0.0208219
1.49275
0.110783
0.0218554
0.0524344
0.066284
2.66212
0.0263872
3.36639
0.281133
0.286802
0.0226378
0.034726
0.0261065
0.0231373
2.46257
0.0209217
0.0216187
0.0221808
0.0253951
0.0322642
0.148998
0.0497848
0.0243389
0.0256438
0.0640029
0.051003
0.0219178
1.47302
0.034425
0.027718
2.63461
0.0211571
0.0529641
0.130426
0.0208376
3.30713
0.0214445
0.0203867
0.0484947
0.0204316
0.0224627
0.115232
3.55733
1.79521
0.0211266
0.0223658
0.0231215
2.25731
2.35598
0.0218211
0.0217077
0.0211079
0.0547968
0.482503
0.0212035
0.0216918
0.0220749
0.0211244
0.0255952
0.0277725
0.0211269
0.0505428
0.0208403
0.0216014
0.0230345
2.81284
0.0204101
0.0235184
0.021489
0.0325683
0.0614255
0.0561466
0.0614098
0.121456
0.0228179
0.0571447
3.60008
2.76994
3.46219
0.020996
0.0214742
0.0257486
0.021417
3.14265
0.0202907
0.71374
0.0254731
3.47952
0.0937468
0.0237491
4.55399
0.0208125
0.0576301
0.0222601
0.0224532
3.48457
0.0203629
0.199665
0.0211411
0.0228096
0.0215164
0.14223
0.0260166
0.0202742
0.0992427
0.0513619
0.446691
2.73985
3.61148
2.63581
0.0204176
6.01789
0.0205335
3.31361
0.460286
0.0229423
0.023681
0.0212827
0.0339867
0.0234378
0.0203764
0.0222765
0.0242097
2.48343
0.0211755
0.0556556
0.0215879
0.020263
0.0214867
0.137406
2.75364
11.6601
0.0652271
0.0276427
0.9665
3.23355
0.0207375
2.6644
0.0239786
0.089212
0.0214113
1.55428
0.0211055
0.0259673
0.0216693
0.367623
0.0352771
3.08088
0.0212183
0.0338399
0.0213883
0.0214426
3.02764
0.115201
0.0215732
0.112969
0.0213428
0.0221566
0.0212285
2.89948
0.0211794
0.0271518
0.0202801
0.0214751
0.16764
0.021151
0.105146
0.0222305
0.0208132
3.37468
0.0572671
0.0217694
17.7437
0.195735
0.130217
0.136398
0.0207963
0.0284257
2.91063
0.213426
0.0291531
0.0238719
0.0262594
0.0220864
0.0212224
0.0293238
0.0662854
0.024716
2.75651
0.0356964
0.995915
2.41234
0.0374693
0.0346747
0.125396
3.80153
0.0211878
0.0304307
0.0559735
0.0208247
0.0213435
0.0214668
0.0244783
0.0224716
5.72667
0.0330486
0.0211937
0.0831557
0.0211157
2.74186
0.0213854
0.0211438
3.46477
0.0578233
0.316211
0.0217724
0.0212124
0.021115
0.0220778
0.0275754
0.0211448
6.01441
0.0295885
0.518502
0.321136
0.0301024
3.63582
0.0223715
0.022162
0.0214485
3.21475
1.83884
0.0258547
5.74303
0.69141
0.0208065
0.021103
0.0237587
3.27617
0.316829
0.0355424
0.0220461
0.023516
0.0920422
0.0239211
0.103373
0.0331932
0.0221195
0.0222962
0.022197
0.0274904
0.0256274
0.220507
0.0246229
0.0241063
5.75962
0.0212738
0.702734
0.0235763
0.0328495
0.0252988
0.205793
0.0219391
0.0544018
2.72566
0.257752
0.02144
0.0246469
0.0231589
0.0213358
0.0216558
0.0318995
0.0253629
0.151574
0.105749
0.0207701
0.189866
0.0250467
0.0254249
0.116258
0.0219251
0.0575279
0.500715
0.020297
0.0578533
0.0758948
0.0329016
0.0210428
0.0208663
0.0212122
7.08319
0.022162
0.0215534
0.038249
0.021169
0.0209476
0.101848
0.135193
0.0377873
1.64449
0.0480143
3.51427
0.0216609
0.0248785
0.442392
0.0229129
0.029377
0.0217011
0.0213029
0.0217478
0.0250735
0.0580431
0.0210386
0.0539416
0.0219218
0.368043
0.0236119
0.026326
0.0205002
0.0703737
0.0262566
2.7945
0.0392996
0.0221144
2.7938
0.0223785
3.92176
0.023261
0.0558146
0.0234668
0.0209284
0.0214248
3.34595
0.0274124
0.174995
1.59117
0.0213303
0.033158
0.019598
0.0257759
0.508188
0.0196274
2.69672
0.0235903
0.0552531
0.0949321
0.585296
0.0204257
0.02139
0.093578
0.0207866
0.021635
0.0228348
0.0214301
0.0383587
0.0204141
0.10066
0.0221165
5.57304
4.03395
0.553459
3.50673
1.72
7.42651
0.777547
0.020746
0.0220416
0.021553
0.0223843
0.0211118
0.0275248
0.0212182
0.33487
0.0216687
1.65638
0.0220842
0.0297015
0.0820015
0.0210353
0.0395233
0.0223769
0.0226504
0.0255444
0.0207257
3.72394
0.070888
0.0363463
0.0210648
0.021504
0.0219214
0.0219977
2.62071
0.0207678
0.112916
0.0210889
0.273203
0.0257049
0.0212003
0.0560275
0.0300434
0.0207791
0.326132
2.61386
0.023859
0.0701444
0.0207671
0.114268
0.0210028
0.0219977
3.51174
0.0216553
0.0222462
0.0818607
3.84619
0.0214651
0.831254
1.23646
0.0219022
0.0230015
0.0214738
2.3667
0.0214765
0.106641
0.0216584
3.35227
0.0260363
2.41374
0.0212942
0.0201835
0.286376
0.0229758
0.0211213
3.62366
0.0227916
0.020921
0.865396
0.0218974
0.0220335
0.0654423
0.0229317
3.14487
0.0374865
0.0660774
0.124522
0.0234601
3.2995
0.0223162
0.061407
0.0213839
3.66283
0.276276
0.0218243
0.0210391
0.0220988
0.0218242
0.0208754
0.0207744
0.0211151
0.0214176
0.0282427
0.0202976
0.0226231
0.0653682
2.60292
2.79845
0.0761166
0.0219312
0.287075
0.0211752
0.427281
0.479214
24.07
0.0203467
0.0207555
0.0217137
0.0215816
0.0203262
0.0207866
0.0212408
0.035751
0.0209283
11.5175
0.853384
0.0209563
3.37198
0.0213945
0.0212415
0.0284158
2.86845
0.0554918
0.0212366
0.308993
0.0212399
0.0212511
0.238129
0.0221495
1.09311
0.0223228
0.0644946
0.0209103
0.0211107
0.0297368
0.269128
0.0227273
3.05493
0.0324041
0.0230134
0.023295
0.0215012
0.0208476
0.0819476
0.0322545
0.0245617
3.10335
8.22512
0.169495
0.0864724
0.0210564
3.22982
0.0210554
2.7895
0.0573073
0.0257803
0.0225676
2.60321
1.77
2.43027
0.0225515
0.326304
0.0208843
0.0212236
0.0333007
0.0220648
0.0216354
0.404476
4.13562
0.0211101
0.0266247
3.40245
0.0211308
0.0202683
0.714673
2.75275
0.0222756
0.0206237
0.0258526
0.0215888
0.021205
0.0318261
0.0252499
0.0215357
0.468609
0.0225695
0.0910799
0.505463
0.0313389
3.54906
0.0217985
0.0220405
0.0720802
3.86424
0.229961
0.0235131
0.0309085
0.0219604
0.0223507
0.0214186
2.77618
0.0248231
0.0222637
0.0483269
0.0211585
0.25595
0.0684382
0.103516
0.0534965
0.320681
0.31738
2.62356
3.12397
0.0237576
0.317151
0.0202844
0.0532487
0.0707629
0.497847
0.0242594
0.0224608
0.0250133
0.875438
0.0229191
2.6491
0.0331513
0.0791081
2.66213
0.0212876
0.0883872
0.0232079
0.0216202
0.02732
0.082841
0.020308
0.0207197
0.0225937
2.94147
0.0209189
0.022803
0.0234365
0.0223134
0.021527
0.082398
0.0618163
0.022268
0.0210276
0.0851893
0.0501824
0.0350564
3.37198
0.0218166
0.021446
1.77687
0.0215611
0.023002
3.15739
3.43368
0.0286931
0.0533071
0.0259353
7.65769
0.115331
0.0310647
2.72688
0.0211613
0.0718278
2.59757
0.181136
0.407783
1.12925
0.0206939
0.0215624
0.0243599
0.0215476
0.0216492
0.220028
0.0216643
0.0414816
0.0204966
0.0515293
2.71211
0.0229582
2.39858
1.70183
0.0214447
0.0674042
0.0256416
0.0226803
0.0213369
3.30754
0.0640633
3.64164
0.0266961
3.58882
0.0773809
0.0212454
0.392708
0.0333235
0.0226631
0.0212134
0.158447
0.0213436
0.0250804
0.0348045
0.0250415
0.0219888
0.0502058
2.34491
0.0211426
0.14565
0.066584
0.0216336
0.0211529
0.0242268
2.24074
0.296979
0.0208662
0.0289699
0.0253368
0.725807
6.65429
0.0215961
0.0209449
0.020691
0.0215071
0.0245837
0.0236284
2.59711
0.0220731
0.0239835
0.119194
0.0256655
0.0752076
2.78483
3.47132
0.0217986
0.0215584
0.0208963
0.0225438
0.0619875
3.78557
0.0347789
0.0843647
0.0291112
0.0456013
0.0233579
0.032111
0.0248345
0.0962303
0.0211098
0.107548
0.0323999
0.0207758
0.021755
2.98475
0.0451056
0.0993242
2.60441
0.111203
0.0211175
0.570618
0.0235463
0.0212344
2.72528
0.525185
0.021126
0.0286594
0.0939915
0.0321264
0.0221863
0.0203958
0.0211653
0.0208747
0.0213335
0.0285312
0.0470358
4.46977
0.032551
0.0251775
0.0300291
0.0748054
0.0209924
0.0323339
0.150525
0.205157
2.71564
0.022726
0.0203799
3.54408
0.0210547
0.214959
0.0227324
0.0398567
0.0218582
0.0211058
0.179612
0.025606
0.0226456
0.0214943
2.57649
0.368016
3.29859
0.0217706
0.021533
1.13447
0.021088
0.020793
0.106669
0.478775
0.0261081
0.0316761
0.0221252
2.87545
0.0212441
0.0241011
0.0219899
0.0203648
0.196631
0.0212396
0.0208564
0.540342
0.0527218
2.34605
0.197212
0.0211838
0.028886
0.020954
0.0210787
0.0233431
0.0225047
0.021613
0.168329
0.0215871
0.0650915
0.0267976
0.025424
0.0216064
0.0221814
0.0211839
3.35249
0.0202965
0.700426
0.0621399
0.0228097
0.0474398
0.03163
0.0291703
0.0215134
0.0263295
0.0209367
0.020772
0.273288
0.0348116
0.0280567
0.0214023
0.0212909
0.0210626
0.0665958
0.021161
2.88728
0.0421943
0.0211719
0.0213112
0.0206294
0.0419669
0.0229763
1.75264
0.0301346
0.246309
0.0252702
0.0852622
0.0235947
2.83299
0.0204892
0.0202576
0.0244748
0.15382
0.0206568
2.94598
0.0215834
0.0215171
0.10895
0.158313
8.27007
0.0445344
0.0251172
0.135199
0.0270827
0.0207348
2.84889
0.0214047
0.0212825
2.23486
0.0205583
2.96754
0.0531882
0.0210719
0.0214314
0.0207679
3.64497
0.0215302
0.020394
0.0668473
0.0211891
0.0209244
0.02184
0.0207516
0.0414313
0.0216972
0.0239328
0.0207063
1.45738
0.0476377
0.0207256
0.0207332
0.0222289
0.0212956
0.02359
0.0218397
0.0213038
0.0217229
0.0214506
0.022401
0.0214938
0.0590352
0.0206239
0.0707978
0.0216316
0.0451674
0.0208351
0.0215934
0.0211502
0.0203388
0.034191
0.0257251
0.024645
2.44568
0.030239
3.40612
2.80221
0.0706614
3.56481
0.0215894
0.0214722
0.672431
2.72328
0.0211443
3.34339
0.0207164
0.10479
0.708185
0.0234727
0.0727198
1.67795
2.03678
0.021406
0.0430091
0.0209719
0.173028
0.0239018
3.1451
5.67153
0.0216936
0.0455477
0.333484
0.0220651
2.19395
0.232671
0.0229913
0.0209535
0.13628
3.3272
0.0207317
0.0303566
0.0218738
0.170948
0.115813
0.021546
0.0208634
1.76492
0.0210373
0.0214512
0.0220656
0.0207356
1.52145
0.0279846
0.0274723
3.17871
0.0213387
0.0529667
0.0217074
0.112216
0.0505341
0.195611
0.0208055
0.0267373
0.0209144
0.0217604
0.0235313
0.0214853
2.43397
0.022531
0.0207759
0.0211539
0.254428
0.0209363
0.516705
2.5904
0.753173
0.0215191
0.0209256
0.0212451
0.833309
0.0217715
3.19311
0.0214824
0.455436
0.0228746
0.0226628
0.180425
0.0216
0.021897
3.38305
0.0957113
2.92685
0.0218718
3.48139
1.4644
0.0215452
3.12817
0.0216792
0.0250315
2.84065
0.0233142
0.0389599
3.70783
0.0288159
0.060578
0.0215939
2.51133
0.0214298
0.511129
0.0212483
4.26413
0.0214509
0.02157
0.0232811
0.297964
0.0209577
0.030961
0.0583256
1.58167
0.0212597
0.0281528
3.45686
0.193135
1.87129
0.0689805
0.0208318
0.0966908
0.347204
0.0237446
1.14844
0.020217
0.124089
6.20505
0.0210003
6.55684
0.0213135
3.42902
0.951634
0.0235178
0.0236552
0.510956
0.691974
0.0214742
0.0226612
0.02075
0.0215656
3.16457
0.0582912
0.161261
0.0216497
0.0265707
3.00536
0.0288885
0.792476
2.02189
0.0211463
0.0213869
0.166213
2.64114
2.31589
0.67515
0.172183
0.0360412
0.0459452
3.41641
2.62291
0.463582
0.0209535
0.0710996
0.0412555
0.0638748
0.0214442
0.0254473
0.05413
0.113661
0.733676
0.0220298
1.28684
3.16178
0.0401661
0.0214296
0.0214338
0.11238
0.0209616
3.53262
0.02712
0.0219783
0.148065
0.0309801
0.0207116
0.0336663
0.0284489
0.0214693
3.69041
0.0254789
3.70846
0.021005
3.01232
0.30274
0.173254
0.0203386
0.025747
0.0292603
0.12515
0.0994817
0.060827
3.16654
0.109061
0.019662
0.0251356
0.0222683
0.107686
6.35019
0.0207828
0.0206877
0.022575
0.902679
0.128982
0.0210565
0.045906
0.146145
0.0209251
0.0293427
0.0236437
3.69358
0.0265317
0.214006
3.27921
0.0273169
0.024122
1.14211
0.021143
0.0429396
2.83517
0.024526
0.0747433
0.0299647
0.052357
2.61062
3.43463
0.0215726
1.08785
0.115612
0.0205662
0.113511
0.0600142
0.0967363
2.27512
0.40137
0.709563
0.0945074
2.67224
0.0261163
0.0592195
0.0205259
0.0217404
0.0215184
0.020922
0.186823
0.113349
0.0203101
0.0429703
0.148924
0.0211299
0.416097
3.09283
0.0201108
0.0217324
0.0206337
0.022457
0.0409371
0.0214264
3.3315
0.0283118
0.0631361
0.0253246
0.0621076
0.045331
0.0314052
1.42213
0.0214682
0.0225511
0.0202714
0.0209446
3.49057
0.0835055
0.0277762
3.59324
0.0217075
0.022029
0.0305007
0.0207465
0.0211115
0.0663795
0.0247981
3.19555
2.31718
3.13312
0.0216249
2.97049
0.0212624
0.330938
0.0206908
0.121169
2.61284
0.0215185
0.561758
3.46583
0.0309106
0.0224374
0.0209981
0.0268589
2.68923
0.0207109
0.0217817
0.0225696
0.0239171
0.169091
0.022807
0.0250494
0.0211152
0.0225673
1.18678
0.0321348
0.0236938
0.107897
0.0937978
3.2189
1.08258
0.0232143
0.0224004
2.90678
0.0214608
0.0591782
0.0216507
3.22167
0.0220935
0.0219075
0.0310528
2.82634
0.0213906
0.0208021
0.0204724
0.124631
10.0817
0.103162
0.0214808
0.0235955
0.0209265
3.23957
0.0210872
2.19131
0.0515698
0.0217102
0.146188
0.0320379
0.108102
0.0220333
0.0207834
0.0288536
0.0386944
0.107127
0.0217224
0.0219208
0.0219812
2.86314
0.0216469
0.0223803
3.39216
0.0228845
0.0254384
0.0241611
0.021105
0.0212758
0.55502
0.0231926
1.67899
0.260383
0.0200244
0.794365
0.0218563
0.0926328
0.0447477
0.0226197
0.020378
0.0199979
0.0214143
1.19647
0.0434551
3.40469
2.66805
0.0209537
0.0257411
0.0360818
1.234
0.0214134
0.0822968
3.43832
3.11909
0.0213108
0.0227973
0.0219755
0.674558
3.46223
0.0218441
0.0215451
0.0290898
3.54585
0.0216692
0.0228678
0.0228458
0.102343
0.716311
0.02051
2.75125
0.0279917
0.0214183
2.6171
0.0513106
1.12988
1.10303
0.0305243
0.0252598
0.0224345
0.0259672
0.0220659
0.0630072
0.0435185
0.0213116
0.0240059
0.195048
2.44065
0.0206951
0.0953845
2.97523
1.35268
0.0214524
0.0215506
0.268899
2.7771
0.0728539
0.0211612
2.56487
0.0594313
0.0200883
4.46849
0.0264604
0.021708
0.153351
0.0214265
0.0337145
0.0208944
0.0198973
0.0215647
0.0204666
3.08062
0.0202975
0.021173
0.0690653
0.0245277
0.0240873
0.116545
0.0215171
0.0214825
0.0227449
0.0223312
0.250492
0.251354
0.473623
1.12919
0.0324341
0.477477
0.0425269
2.86887
2.72539
3.01525
0.0209031
0.0288117
0.0214334
0.0215442
0.0210056
0.022305
0.164267
0.0534503
0.0358764
0.0211068
0.0213932
0.0504364
0.0217635
0.0218749
0.0215234
3.24571
0.0295726
7.69133
0.0216135
0.270231
0.0219688
0.021839
0.022132
0.0393725
0.0210635
0.0761822
2.91451
0.0383091
3.61215
0.508943
0.0231982
0.0265656
0.338842
0.0990873
0.0204462
0.0209595
0.0200182
2.70195
0.0198793
0.0697933
0.0408103
0.0694599
1.59085
1.54727
0.0584618
3.72394
0.0207487
0.0204654
0.243214
2.97767
0.0214242
0.021598
0.829447
0.0209667
0.163168
0.0228434
0.021008
0.0248398
0.0215216
0.0643204
2.8422
3.10093
0.0242817
0.0215907
0.0695568
0.0224638
0.0696512
0.0209078
0.119558
0.0802133
0.0218738
0.0216616
0.0200725
0.107698
0.046263
0.172161
1.64591
0.0284153
3.00061
0.0660065
0.0969079
3.32765
0.0212802
2.67394
0.0222723
3.27587
0.168924
2.64498
3.17229
0.0221441
0.0493299
0.212557
0.0214552
3.82345
0.0214874
0.0215073
0.0252977
0.022053
0.0292329
0.183931
1.38742
2.99453
0.0251773
0.0373872
0.02246
0.0218456
0.0216729
0.113533
0.0767927
2.83252
0.0412594
0.0203541
0.0207607
0.0220501
0.209866
0.0237828
0.0223852
0.024534
0.0767235
0.0299373
0.0394147
0.0348769
2.73776
0.0281053
0.0309386
0.0214199
0.0253611
0.558695
0.133618
0.0430536
0.0207417
2.64736
0.0309672
0.0211354
0.0445296
2.90751
0.175986
0.031448
0.020979
2.63476
0.0219218
0.020933
0.0203958
2.24417
1.44088
0.0231868
2.35192
2.93801
0.0245892
0.0349368
0.0544773
3.67279
0.029199
3.42804
0.0219629
0.0221923
0.025184
3.60165
0.0314583
0.0208634
3.03412
0.0216803
0.0222684
1.7125
3.11477
0.0623062
0.913282
0.0240244
0.0225428
2.43664
0.0211398
0.0211878
0.0215812
0.0416501
0.0213989
0.0297572
0.0245828
0.0407906
1.77316
0.0221294
3.80429
0.0244318
2.97919
3.47246
0.0215563
0.0217281
0.0248986
0.119988
0.16377
0.0603165
2.90551
2.67382
0.108614
0.0225839
2.82172
3.10677
0.0437638
1.36741
0.0215989
0.0213443
0.0215974
0.0223964
0.0212997
0.0312654
3.15068
0.0296587
0.257573
3.19715
2.75894
3.04084
3.26588
0.0275142
3.57348
0.0951468
0.0665093
0.0206702
0.0215004
0.0612938
4.04721
0.0224999
2.79955
3.13039
0.0209434
0.0215996
0.0217226
0.0777968
0.0220152
0.0655585
2.70132
0.0206703
0.0214079
0.0209209
0.0221899
0.0873515
2.94876
0.0340892
3.06929
0.0972539
0.0211645
0.265662
0.110127
0.0217981
0.449202
1.40342
2.7442
2.07015
3.45464
0.0213835
2.61844
2.98751
0.139376
3.05112
0.0209862
0.0230207
0.0235376
0.0231491
3.26393
0.0598072
0.021702
0.0263403
0.297741
3.06999
0.0224744
0.0224405
3.47181
3.24525
0.0217178
0.026945
0.0938624
0.0213257
0.0214162
2.49471
0.0211196
0.217684
0.267262
3.36251
0.021047
0.0653425
0.125376
0.021106
0.020142
2.4877
2.37116
0.0219176
0.03148
0.148534
0.190966
3.46797
2.15085
0.025058
0.252993
0.31111
0.0325805
0.0211144
0.077286
0.020422
0.0202564
3.25477
0.0353626
0.0839246
0.0239911
0.0252181
0.0209638
0.0204784
0.022088
0.0222759
2.5773
0.0237758
1.42766
6.14031
0.040565
0.0642208
2.68374
3.52356
2.60985
0.0209249
0.0243462
0.0330486
0.024859
0.160335
0.336272
0.0220655
1.03414
3.25877
0.0257809
0.0815425
0.0676813
0.0889547
0.0970717
0.0226022
0.107941
0.118415
0.130416
0.144619
0.10032
0.0740027
0.0260455
0.0210938
0.031039
0.0808534
0.0210817
0.288529
3.62479
0.150944
2.98969
0.0201117
0.0207324
0.031805
2.84244
0.0222036
0.0235323
0.057684
3.4769
0.953653
0.021485
0.0295016
0.024648
3.73246
0.282547
0.023785
0.353721
3.04138
0.0899022
3.33785
0.0849408
0.0609981
3.56773
0.0195959
3.67663
3.12481
0.022396
0.063022
0.0871074
0.0250157
0.0208956
0.117893
1.0589
0.0208978
0.0209423
2.62526
0.664018
0.0707752
0.0217181
0.194369
0.114352
3.1006
3.73122
0.0215785
0.0213783
0.0221579
0.022947
3.37564
0.899321
2.99828
0.0754787
0.160715
0.429883
0.0229558
0.0210539
3.1022
0.0209425
3.51038
0.0209464
3.33466
0.0224195
0.0223062
0.775628
0.0216012
0.0992208
0.539233
0.0242749
0.0233073
0.0225354
0.159284
3.28861
0.136821
3.01371
0.0241107
0.0228302
0.0267816
0.0682281
3.78344
3.49066
0.0860242
0.197198
0.109888
2.64139
0.0210748
0.0209134
0.0206864
0.0206713
0.144704
0.0643758
0.250213
0.0382418
0.131088
0.0211212
0.271903
0.13376
3.59672
0.0214695
0.0226744
0.0199139
2.98086
0.0225163
0.188004
0.139933
0.10713
0.174488
0.0200449
0.0347287
0.131034
0.153116
0.565138
0.0216393
0.118152
0.021977
0.0218905
0.0887478
1.10524
1.82077
0.0217821
0.0766321
0.114015
3.12031
5.24395
3.39283
3.41333
0.0210291
0.0554438
0.0215916
0.122642
0.0211854
0.0980181
0.0230537
0.0452814
0.240035
0.533209
0.0237116
0.0865922
3.10006
0.1036
0.0233091
1.6956
0.0950829
0.0224111
0.0222132
3.31328
0.027621
0.111425
0.336007
0.121709
4.05063
0.0233006
2.96246
2.89267
1.12885
0.127478
0.0299023
0.0964526
0.0872509
3.34264
0.0604407
0.0220913
1.42114
0.0434968
0.269631
0.0266866
2.69322
0.841524
2.00888
0.0254823
1.53444
0.0237903
3.06851
0.133734
2.04909
7.3773
0.020942
0.0198987
3.09268
3.6401
0.0327288
0.0220125
0.0391476
0.0288178
2.97918
0.0715221
3.14972
0.0253078
3.20951
0.10855
1.17232
0.0220502
0.142508
2.9101
0.0239304
0.0760349
0.0200936
0.0239163
0.0216225
0.244482
0.0211903
0.0216209
3.54414
2.85888
0.0206534
3.71322
0.0222388
0.0214982
0.0213025
0.0209306
0.0217471
0.520687
3.44509
0.02065
0.345804
0.0617443
0.0443504
1.38666
0.0775558
0.0249145
0.0304163
0.0212961
0.242126
0.028959
3.75024
0.0246653
3.16655
0.974979
0.0643811
1.80574
3.27953
0.0207856
3.6765
0.0513398
0.0601401
0.0373772
0.0211746
0.0392075
0.168127
0.0215818
0.0986841
0.0214194
3.37918
0.128563
2.59006
0.155816
0.149057
3.51398
0.0215658
0.0211839
0.057515
0.0227476
0.0217281
0.0217549
0.0263435
0.0210937
0.0211994
0.0225137
0.0399058
0.0229951
0.0264156
0.0228679
0.0340168
0.0902825
0.0232845
3.47789
0.0230737
0.0212552
0.0842615
0.0393871
0.02306
0.0210821
0.268586
0.0231881
3.1712
0.023354
0.101533
0.0213047
0.0214083
0.0857388
3.60874
0.0645996
0.0331854
0.0201783
3.11333
0.0216448
0.0211631
0.0702526
0.0236403
0.125988
3.07782
0.0887737
0.122996
0.0388875
4.10845
0.0214784
0.0216176
0.0580828
0.25991
0.0549726
0.0902221
2.6354
0.0266466
0.0215677
0.0269696
0.195059
0.0527135
0.0216001
0.0918786
0.0873523
0.0593613
0.0217417
0.0216362
0.163533
0.0583627
2.02062
0.472713
0.0234395
0.0648119
0.0217173
0.0413218
2.31415
0.0216836
0.144284
0.0422045
0.075683
1.10785
0.021547
0.0213644
0.0212488
3.54494
0.194994
0.0232038
0.0857895
0.1003
0.0216939
0.0214123
0.100542
3.65671
0.165628
3.13131
0.135903
0.0293116
0.410568
0.11006
0.0291288
0.130952
0.0799559
0.111829
0.0215196
0.0878734
0.121333
0.0222775
0.260272
0.0370524
0.0748358
0.0262929
0.133602
0.0211006
4.01178
0.0241309
0.0208061
0.0209718
0.020757
0.0225202
0.022334
0.0208985
0.0237812
0.0216059
0.0222232
0.239873
0.071954
0.0221297
0.0588429
0.0241954
0.0226486
0.0204402
0.0433435
0.0261016
2.49433
0.0215641
0.0215864
0.0630397
0.148003
0.0215925
0.0215436
0.10129
0.0232851
0.0839247
0.0559687
0.021548
7.43776
0.0234798
0.0222294
0.0680275
3.75715
0.0224338
0.0538665
0.0208953
0.02519
0.0213484
0.0263662
0.0211875
0.0216007
0.043409
0.0563676
8.8473
0.0475716
0.0214993
0.0275458
3.24338
0.0468511
0.159934
0.0909254
0.0216336
0.0502289
0.868817
0.168239
0.960035
0.0252765
3.35995
0.331764
0.0283698
0.0216967
0.0688851
0.022185
0.0522101
3.08623
0.0215559
0.0701525
0.0217728
2.86555
0.0447656
0.0222971
0.057031
2.96382
0.0778882
0.0235495
0.0672581
0.0292821
0.0206373
2.42392
0.0205221
0.0323841
0.0210969
0.0245418
2.65055
0.066334
0.020692
0.0279294
0.141565
0.0215416
0.0218731
0.0274228
0.0248076
0.0214528
0.0234687
0.0240673
0.0219866
0.021097
0.0570757
0.0943019
0.161307
0.0210296
0.053913
2.99794
4.36218
0.0209082
0.0215873
0.0246288
0.0823711
0.0221189
0.0210738
0.0212201
0.020901
0.0253479
0.0267361
0.0246429
0.060347
0.0230919
0.0204538
0.0230831
0.0589711
0.0443377
0.0974363
0.0221131
0.0276478
3.21351
0.0283726
0.024251
4.16964
3.19352
0.0898756
0.0625974
0.146211
0.0213616
0.287471
0.0262692
4.02528
0.0214134
0.0212288
1.59044
0.0208154
0.25787
3.08089
0.021954
13.3456
0.0296021
0.0307041
0.0261372
0.0675268
0.0279021
0.0256297
1.57543
0.0208834
0.0238815
3.54348
0.0228608
0.021453
0.0291964
3.16935
0.0221435
0.0221453
3.2026
0.0236421
0.0260968
0.0539679
0.0203587
6.62092
0.0237618
0.022275
0.0945253
0.0530446
3.0036
0.0232144
2.00617
0.0321853
0.0822521
2.83883
0.0215467
0.0312795
0.0828329
0.0221173
2.08141
0.0221698
0.0230236
2.92376
0.0222334
0.0389977
0.0811769
0.777846
0.0290592
0.0258775
0.0222556
0.0235663
0.0819103
0.0240831
0.0296202
0.0745214
0.0500205
0.0216474
3.39788
0.0362884
0.0204641
0.0226942
0.0212378
0.020797
0.0203648
0.0215651
0.0215139
0.0288756
0.0235616
0.0383691
0.0202292
0.0204511
0.022773
0.0723861
0.0207435
0.0292485
0.0600517
0.0278
0.0289537
0.0214131
0.0230338
0.0238961
0.0361303
0.0274781
0.0239661
2.72173
0.0217078
2.37628
0.0244004
0.0810271
0.0788388
0.0215308
0.0545864
0.0301398
3.1348
3.02012
0.024894
0.0217216
0.0232817
0.0287164
0.0452134
0.0215865
0.0429316
0.0499332
0.0227458
0.0544331
0.0444602
0.0603715
0.0274526
0.153482
0.0815265
0.0262913
0.115108
0.0232377
0.116891
0.022373
0.0212684
0.0752374
0.0776237
0.0213984
0.0469829
0.0214438
0.021645
0.0214568
0.021989
0.0214847
0.0214103
0.0213963
0.0221527
0.147412
0.0226132
0.0213531
0.0223949
0.0224465
0.172911
2.95107
0.0565292
0.0238021
3.30655
0.0214342
0.0213661
0.0952451
0.0308962
0.0222298
0.022188
0.0216498
0.147159
0.0217526
0.025044
0.0222455
0.032485
3.7791
0.0214552
0.0549157
0.0608702
0.0246771
0.0410117
0.0207467
0.0216775
0.0555753
1.27441
0.0230491
0.0344256
2.25668
0.0843822
0.0208482
2.82681
0.0225505
0.0196608
0.0530166
3.51695
0.021452
0.0207309
0.0229605
0.0296856
0.0322252
0.0214249
0.0223264
0.0374653
0.0216729
0.0278109
0.0252298
1.16163
0.0204778
2.80014
0.379782
0.0359162
0.0213281
0.0841192
0.0210553
0.0231846
0.0215764
0.0518992
0.0202077
0.0201868
0.0384937
0.0568854
0.86408
0.0218743
0.0201148
0.0230735
0.0208371
2.88529
0.0231914
0.0226534
0.0220696
0.0572735
0.0449853
0.0232813
0.0229267
0.0423392
0.0216565
0.021695
0.0231919
0.0220803
0.119314
0.0211707
0.0292259
0.0219514
0.0215146
0.0464203
0.0831318
2.78006
0.0214573
0.0533678
0.212448
2.96702
3.30634
0.0303251
0.0215176
0.0241574
0.0288906
2.54377
0.0218358
0.0246818
0.0263512
0.0297185
0.0202554
0.0509354
0.0440227
1.04193
0.0220428
0.0216714
0.0827272
1.08202
0.0201337
0.0241814
0.0320558
0.0200046
0.0223887
0.0431023
0.0209864
0.0214571
0.0217005
0.0240882
0.0752356
0.0344586
0.0224034
0.0207033
0.0221288
0.133947
0.0199453
0.0208604
0.0253286
0.0815594
0.0250716
3.63956
0.0240875
0.0214559
0.0215253
0.022894
0.0212071
0.0317093
0.0795823
0.020926
0.0210086
0.0219751
0.0213025
0.0220484
0.043017
2.68539
0.0228953
0.0918248
0.0234874
0.0213157
0.192879
0.023274
3.56293
0.0217802
0.0217365
0.0207391
0.0214796
0.0224491
0.0294707
0.0408615
0.114276
0.0270492
0.0503097
0.0217554
0.0315893
0.0214381
0.0231755
0.0319519
2.65845
3.05427
0.0218303
3.26419
0.129763
0.040073
0.19956
0.0198683
0.0214112
0.0216611
0.0227623
2.77062
0.020796
0.0657774
0.301481
0.0223337
0.0766384
0.0199914
0.0300688
0.330419
1.21324
0.0217957
0.212265
0.105638
0.345688
0.025646
3.3048
0.022483
0.122256
0.0938194
0.0205195
0.037238
0.030416
0.0233957
0.212583
0.0295673
0.0209635
0.021903
0.0770632
0.0217257
0.0503092
0.0215666
0.0199143
0.0229304
0.0313307
0.0215366
0.0754224
0.0259889
0.0234782
0.0199015
0.0214963
0.40545
0.0739989
0.133206
0.0322969
0.0245899
0.0270991
0.025067
0.0214294
0.0225829
0.0323156
0.0229819
0.0238609
0.0203991
0.0253899
2.8392
0.0219537
2.23809
0.124009
0.0216605
0.0216532
0.0202753
0.0278384
0.0352466
0.0201078
0.025042
0.0228048
0.0219324
0.0211307
0.0220153
0.0212707
0.0215983
0.240498
0.0218862
0.0257109
0.0214576
0.151614
0.0327715
0.0214566
0.2462
0.0216184
0.0236719
0.0297146
0.326859
0.0281453
0.0210067
0.0213423
0.0316384
0.0399588
0.136056
0.0226258
0.0471888
0.105991
0.0219175
0.0214868
0.104602
0.0495644
0.0300408
0.0216689
0.0218229
0.0225944
0.0231539
0.0209117
2.38144
0.0238048