/*--------------------------------*- C++ -*----------------------------------*\
| =========                 |                                                 |
| \\      /  F ield         | OpenFOAM: The Open Source CFD Toolbox           |
|  \\    /   O peration     | Version:  v2012                                 |
|   \\  /    A nd           | Website:  www.openfoam.com                      |
|    \\/     M anipulation  |                                                 |
\*---------------------------------------------------------------------------*/
FoamFile
{
    version     2.0;
    format      ascii;
    class       volVectorField;
    location    "400";
    object      U_0;
}
// * * * * * * * * * * * * * * * * * * * * * * * * * * * * * * * * * * * * * //

dimensions      [0 1 -1 0 0 0 0];


internalField   nonuniform List<vector> 
13917
(
(0.47913 0.0100791 -4.23447e-20)
(1.02793 0.00968652 5.09516e-22)
(1.08178 0.0658674 -2.66016e-20)
(1.03714 0.0117524 5.38382e-21)
(1.01583 6.75886e-05 -1.05788e-21)
(1.02879 0.0112399 -1.27318e-22)
(1.05184 0.0245106 0)
(1.00412 -0.0208934 6.00866e-22)
(1.0613 0.0148659 -1.41443e-20)
(0.0235474 -0.0958585 3.0791e-22)
(1.00729 -0.0166436 -4.12486e-21)
(1.02825 0.0105084 0)
(1.01033 9.30438e-05 0)
(0.67948 0.0274506 1.94237e-20)
(1.02292 0.0169006 -5.40644e-23)
(0.45666 0.00490634 5.08899e-20)
(1.00294 8.05372e-06 0)
(1.00445 -0.00459859 3.74701e-21)
(1.06786 0.0608731 1.99298e-20)
(0.49368 0.0271121 0)
(1.02087 0.0289899 0)
(1.01675 0.00748773 0)
(1.06044 0.0406579 -1.13962e-20)
(1.01662 0.00730627 5.87543e-23)
(1.0355 0.0188313 -4.2071e-21)
(1.01735 0.0269468 1.61053e-22)
(0.977336 0.102649 0)
(0.00973285 -0.0667094 -1.85279e-20)
(1.00775 0.0164703 -2.14829e-21)
(1.01236 -0.000243502 -4.38593e-23)
(0.0320666 -0.0723255 9.59438e-21)
(1.07404 0.0459817 -1.24696e-20)
(1.03337 0.0139315 -5.74505e-21)
(0.526969 0.0243881 4.03965e-21)
(1.01499 0.002149 0)
(1.00865 -0.0319723 5.01566e-21)
(1.02545 0.0183065 -1.57349e-21)
(1.0043 0.000148691 0)
(1.05281 0.024557 -1.16887e-20)
(1.03128 0.0398682 0)
(1.00126 -4.64516e-05 3.92336e-22)
(1.01678 0.00161997 4.43487e-22)
(1.05627 0.0109862 0)
(1.07417 0.057312 0)
(1.07305 0.0572485 0)
(1.03552 0.0394799 1.91867e-22)
(1.02213 0.0283255 -1.73391e-21)
(0.37225 0.179731 1.27459e-20)
(0.865066 -0.0800284 -2.09093e-21)
(1.01494 0.00213767 0)
(1.02777 0.0102192 -3.48715e-21)
(1.04459 0.0515969 0)
(0.35139 -0.00045653 0)
(1.02203 0.0103773 -3.13955e-21)
(1.0232 0.0110878 -1.69076e-21)
(1.0452 0.0527809 -1.1577e-20)
(-0.0293826 -0.0249407 -1.03103e-20)
(1.05952 0.0404435 2.54334e-20)
(1.0162 0.00159235 -2.01261e-22)
(1.03739 0.0367627 -2.55563e-21)
(0.322856 0.043712 -3.37929e-21)
(1.0289 0.00352266 8.76785e-23)
(1.00316 -1.43846e-05 5.23554e-24)
(1.03531 0.0182376 0)
(0.853379 0.07556 0)
(1.00776 0.00494337 0)
(1.00586 0.011162 0)
(1.01706 -0.0335354 -5.32365e-21)
(1.0008 -0.00909996 -5.31004e-21)
(0.423826 0.00613962 0)
(0.981943 0.0765296 4.3523e-20)
(0.507955 0.020643 5.35811e-21)
(1.03373 0.00432351 0)
(1.01566 0.00139496 -1.94747e-22)
(1.02086 0.0305347 8.40236e-22)
(1.03202 0.0203605 0)
(1.01619 0.0063833 0)
(1.01518 0.00134567 3.79192e-22)
(1.03201 0.0197882 0)
(1.03373 0.0143101 -4.05854e-21)
(1.02049 0.01173 -1.47454e-21)
(1.00314 3.95239e-05 0)
(1.03327 0.00390592 0)
(0.981244 0.0637609 1.63657e-20)
(1.01575 0.00194674 3.42549e-21)
(0.954158 0.0174249 0)
(1.07354 0.0452436 0)
(1.01525 0.0010389 0)
(1.03027 0.0388248 2.51718e-21)
(1.0036 2.7393e-05 0)
(1.0056 8.8913e-05 -1.11826e-22)
(1.05741 0.011184 -1.02814e-20)
(0.860166 -0.0709663 0)
(1.01353 0.00187922 6.67402e-23)
(1.02322 0.0131502 0)
(1.00484 0.0152866 0)
(1.02554 0.124392 2.02781e-21)
(1.00396 8.70774e-05 0)
(1.01564 0.00114562 1.86553e-23)
(1.02661 0.0816475 1.8421e-21)
(1.00233 5.13399e-07 0)
(1.00278 -2.26823e-05 4.3839e-23)
(1.02078 0.0120778 2.68118e-21)
(1.00661 0.000318654 1.72213e-22)
(1.01652 0.00605722 5.89207e-22)
(0.962629 0.055978 1.15079e-21)
(0.570855 0.0822505 3.48101e-20)
(1.02892 0.00624142 0)
(1.0174 0.00190562 -2.25188e-22)
(0.911326 0.0980445 0)
(1.01991 -2.15742e-05 1.14303e-21)
(0.542313 0.0280529 -1.73518e-20)
(1.00746 0.0200232 3.72223e-22)
(0.266259 0.176723 4.34777e-20)
(0.869358 0.0745423 2.52756e-21)
(1.03062 0.0212748 -4.88509e-21)
(1.0677 0.0594947 -5.77997e-21)
(1.00472 6.54758e-05 -1.07475e-22)
(1.07902 0.0654337 0)
(1.03185 0.00109104 4.1409e-21)
(1.00389 6.61286e-05 3.11205e-23)
(1.01425 0.00107324 -1.76721e-22)
(1.00279 0.00911938 0)
(1.05615 0.0562465 -7.55277e-21)
(0.384605 0.00385053 0)
(0.942198 0.0645918 0)
(1.03566 0.0173589 4.01048e-21)
(1.01959 0.0314238 -2.47028e-21)
(1.01336 0.00328686 -7.39989e-23)
(1.05722 0.0570337 0)
(1.06635 0.0279582 -1.5932e-22)
(1.06216 0.0456128 -2.36647e-21)
(0.656472 0.0409922 2.36162e-20)
(1.03005 0.0211154 0)
(1.07471 0.0496164 0)
(0.886232 0.104294 0)
(0.306646 -0.00091728 -7.25179e-21)
(0.34108 0.00484145 0)
(1.01482 0.0256466 1.36485e-22)
(1.00243 7.99684e-05 0)
(0.776494 0.067142 -1.06422e-22)
(1.01473 0.00120862 0)
(0.979415 0.0552553 -4.31607e-21)
(1.01513 0.00546001 -1.16535e-21)
(1.03156 0.00436645 0)
(1.01974 0.00540846 0)
(0.987415 0.076158 0)
(0.872487 0.132125 -2.76551e-21)
(0.416218 0.164023 -1.97448e-20)
(1.02241 0.0107486 2.77434e-21)
(1.03008 0.0362949 5.33504e-21)
(1.00304 -1.93686e-05 -9.77396e-23)
(1.03113 0.00389102 2.05693e-21)
(1.03209 0.00073489 -1.93767e-20)
(1.00165 0.128094 -5.10522e-21)
(1.01718 0.00587945 -5.74029e-23)
(1.00693 0.000318522 -2.06841e-22)
(0.616693 0.038188 0)
(1.00262 4.92428e-06 7.19988e-24)
(1.00411 -1.63604e-05 0)
(1.01553 0.00403171 0)
(0.734002 0.105782 -1.16504e-20)
(1.02317 0.0174172 0)
(0.756196 0.0655476 -1.31277e-23)
(0.495786 0.118682 -8.41191e-21)
(1.02544 0.0947489 3.18373e-22)
(0.237061 -0.000289085 1.32243e-20)
(0.337621 0.143518 -3.04778e-21)
(1.00632 -5.4953e-05 0)
(1.01293 0.0258606 3.25801e-22)
(1.01675 0.00719741 0)
(0.674561 0.0420742 2.20705e-20)
(1.06155 0.014011 -1.89514e-20)
(0.4541 0.0289898 1.22717e-20)
(1.04806 0.046641 3.78024e-21)
(1.00294 1.37334e-05 0)
(1.03768 0.0114272 6.26671e-21)
(1.0424 0.0501607 -8.43407e-22)
(1.06603 0.0270475 1.00212e-20)
(1.02288 0.0174299 7.32097e-22)
(1.05476 0.011817 2.17124e-21)
(1.01664 0.00712803 3.88858e-22)
(1.02741 0.0104031 0)
(1.03797 0.0657929 0)
(1.07861 0.066738 -1.0512e-20)
(1.06583 0.0482741 0)
(1.02696 0.010143 3.47075e-21)
(1.03586 0.0637983 5.20063e-21)
(1.01235 -0.000210907 0)
(0.964067 0.0164184 0)
(1.04776 0.0466992 2.84059e-21)
(1.07259 0.055892 0)
(1.04681 0.0630204 4.82532e-22)
(0.490358 0.0142548 0)
(1.01355 0.00191385 4.11542e-22)
(0.394197 0.00510307 -1.93281e-20)
(1.03919 0.0259296 1.09958e-20)
(0.695461 0.0439312 1.17497e-20)
(1.01469 0.00210841 0)
(1.01692 0.00599922 5.40766e-23)
(1.02421 0.0272041 3.43433e-21)
(0.430427 0.00606653 -1.13655e-20)
(0.329831 0.00380536 0)
(1.02415 0.0163201 -8.26567e-22)
(0.990979 0.0837253 5.03285e-21)
(1.01798 0.015455 -4.89779e-22)
(1.03089 0.037299 -6.33562e-21)
(1.01473 0.0011492 1.82395e-22)
(1.04294 0.0517899 0)
(1.02017 0.0115923 6.38381e-22)
(1.01137 0.00239318 4.11292e-22)
(1.01711 -0.0083016 4.04833e-21)
(1.01519 -0.0101643 3.70788e-21)
(0.421351 0.167804 -1.31299e-20)
(1.07475 0.0488678 0)
(1.01582 0.0275099 -2.03457e-22)
(0.713472 0.0838506 -1.59279e-20)
(1.01023 0.000628983 -1.70709e-21)
(1.00974 0.000493853 -3.44063e-23)
(1.00973 0.000488423 -5.51386e-22)
(0.312844 0.158404 1.36809e-20)
(1.04356 0.0638566 -1.21694e-20)
(1.03028 0.0626742 0)
(1.02015 0.00106578 -6.42125e-21)
(1.00252 -4.21867e-05 7.42905e-24)
(0.81645 0.0996612 -7.41821e-21)
(0.385367 0.00408981 4.06477e-20)
(1.00891 0.000471182 -1.54548e-22)
(1.00864 0.000445797 1.386e-22)
(1.00114 -7.82454e-05 1.05006e-22)
(1.01011 0.000492285 5.88053e-22)
(1.01011 0.000482986 2.89175e-22)
(0.499079 0.0182981 0)
(0.474549 0.154483 2.39807e-20)
(1.01828 0.00941163 1.21703e-21)
(1.00755 -8.46658e-05 0)
(1.05093 0.0492533 -1.35727e-20)
(0.475257 0.0152235 -2.18694e-20)
(1.00295 1.76204e-05 -1.3926e-23)
(1.01992 0.00104192 5.04878e-21)
(0.966552 0.0894964 -3.82144e-21)
(0.970364 0.0548919 0)
(1.04271 0.0651566 -8.96891e-21)
(0.70017 0.0802832 2.25885e-20)
(1.04749 0.0465909 1.31573e-20)
(1.01531 0.00555144 -4.2052e-23)
(0.396347 0.134091 0)
(1.05114 0.0500673 5.04267e-21)
(1.00985 0.0205181 3.21186e-21)
(1.06539 0.0514868 1.84427e-20)
(1.0243 0.0160905 1.88006e-21)
(0.473341 0.15646 -1.43351e-20)
(1.03227 0.00190532 -2.55933e-21)
(1.04222 0.0410684 4.88975e-21)
(1.04831 0.0460444 0)
(1.0181 0.00942484 9.3839e-22)
(1.00057 -1.22493e-05 -4.39518e-22)
(1.03586 0.0179452 4.33284e-21)
(1.02172 0.00219128 0)
(1.01493 0.00211528 2.10416e-22)
(0.419598 0.0101641 -4.63575e-21)
(0.619373 -0.143789 0)
(1.01412 0.0009239 1.72043e-22)
(1.00843 0.000447239 0)
(1.01731 0.00594173 3.12064e-23)
(1.00847 0.000461208 -2.70786e-22)
(1.03245 0.00157818 -2.24129e-21)
(1.01567 0.000197455 4.14633e-21)
(1.05118 0.0369638 6.56266e-21)
(1.01461 0.000887183 0)
(0.346769 0.00746473 -2.41282e-21)
(0.582088 0.0887731 -3.96645e-20)
(1.02381 0.00826192 7.56972e-21)
(1.019 0.00383394 3.64046e-22)
(1.03494 0.0291861 3.65514e-21)
(1.01004 0.000379125 2.77368e-22)
(1.02365 0.0727745 -1.8614e-21)
(0.439392 0.0137888 4.37089e-21)
(1.01004 0.000382072 2.87308e-22)
(0.443632 0.00917183 0)
(1.01457 0.00197878 -4.32473e-22)
(0.746033 0.105793 0)
(1.00243 1.35573e-06 0)
(1.02147 0.0159086 7.89546e-24)
(1.01812 0.00957229 0)
(1.01449 0.00497727 -3.68078e-22)
(1.0606 0.0687772 0)
(1.00616 0.00026825 -7.40335e-22)
(1.03315 0.101891 2.9499e-21)
(1.03705 0.0301583 0)
(0.604135 -0.158185 0)
(1.02105 0.00613264 8.37044e-24)
(1.06025 0.0823765 -7.88549e-21)
(0.325394 0.00426821 -1.77251e-20)
(1.0041 2.66097e-05 1.58947e-23)
(1.05585 0.0441015 0)
(1.01985 0.000960984 4.56214e-22)
(1.02927 0.0216435 0)
(1.01723 0.000551558 6.30676e-22)
(1.03271 0.0197004 -6.37145e-21)
(1.0139 0.00189158 -1.73252e-22)
(1.0072 0.000340457 9.08732e-22)
(1.0432 0.0473189 -1.0264e-21)
(1.00053 0.01484 1.08071e-21)
(1.04187 0.0404615 7.88136e-21)
(1.03269 0.0191969 -3.22173e-21)
(1.01963 0.00112157 2.98488e-21)
(0.642489 0.0406645 0)
(0.418168 0.00434604 0)
(1.01294 0.00284238 4.45896e-23)
(1.01564 0.00470288 3.27705e-22)
(1.02985 0.0218583 4.71417e-21)
(0.997815 -0.0725903 1.03747e-21)
(1.08309 0.0541977 0)
(0.590844 0.0715392 6.42705e-21)
(0.50524 0.0303567 -1.32798e-20)
(1.00697 -0.0020793 1.34074e-22)
(1.05881 0.0469652 9.97081e-21)
(1.0192 0.00423187 3.20219e-22)
(1.00796 0.0653785 0)
(0.961674 -0.0796406 0)
(1.08261 0.0647897 0)
(1.01516 0.000218141 0)
(1.0223 0.0167734 5.42348e-23)
(1.00034 0.0982339 -4.49897e-21)
(1.01677 0.006849 1.56752e-22)
(1.02885 0.00793994 3.24006e-22)
(1.0715 0.0557488 0)
(1.00275 -1.05647e-05 1.86607e-22)
(0.686313 0.043253 -1.29963e-20)
(1.01563 0.00153203 -3.40621e-21)
(1.07703 0.0310699 -4.89632e-21)
(1.0128 0.000269935 2.91416e-22)
(0.429933 0.02018 -5.19898e-20)
(1.00995 0.00162448 0)
(1.04241 0.0390454 8.37946e-21)
(1.01692 0.0159327 -4.39319e-22)
(1.00842 -0.00395512 -1.98995e-23)
(1.00382 6.05534e-05 -1.76902e-22)
(1.06731 0.0511205 1.37616e-21)
(1.00519 0.0578663 -1.1249e-20)
(1.02354 0.0128986 -8.45436e-22)
(1.01678 0.00662273 0)
(0.566509 0.0327841 1.94457e-21)
(0.99753 0.0579147 0)
(0.752345 0.0800377 3.64264e-21)
(0.699833 0.00545527 -2.50528e-20)
(1.00968 0.000373223 0)
(1.019 0.00985145 -7.90096e-22)
(0.959889 0.0545647 1.98874e-20)
(1.05712 0.045 -7.10185e-23)
(1.00971 0.000380354 0)
(1.01905 -0.000143268 0)
(1.02474 0.0106049 0)
(1.01085 0.0424611 -6.00183e-22)
(1.04261 0.039693 1.36526e-21)
(1.05061 0.0587444 -7.01997e-21)
(1.04956 0.0485113 0)
(1.02007 0.0718116 0)
(1.07386 0.032376 2.03284e-20)
(0.524941 0.0255405 0)
(1.01358 0.00341837 -1.66066e-23)
(1.02389 0.0129994 -6.07016e-21)
(1.01517 -0.001236 8.68834e-22)
(1.06886 0.0723978 9.35269e-21)
(1.00247 -1.48454e-05 1.29713e-22)
(0.474097 0.00886952 0)
(1.0742 0.0317597 -1.7606e-20)
(0.923778 -0.10949 -8.21509e-22)
(1.02329 0.0113849 -4.6374e-21)
(1.05371 0.0466003 -7.87989e-21)
(1.01688 0.00472739 -1.59095e-22)
(0.940667 -0.00517565 0)
(1.01582 0.00187814 4.91928e-22)
(1.03212 0.0654182 5.39348e-21)
(1.03657 0.0329382 -5.91738e-22)
(1.01523 0.0151537 0)
(1.024 0.00860794 -4.22166e-21)
(1.0642 0.0883726 3.40663e-21)
(1.014 0.000170802 1.57571e-22)
(0.46948 0.113391 6.95819e-21)
(1.04575 0.0645461 -9.23407e-21)
(1.01565 0.00182502 0)
(0.937926 -0.0273928 2.53824e-21)
(1.0178 0.00982482 -1.59478e-22)
(1.04247 -0.00884011 0)
(1.01077 0.00126978 -1.07233e-23)
(0.514096 0.0328677 2.37267e-20)
(1.04175 -0.00505039 1.09373e-21)
(1.02701 0.0182775 2.95026e-22)
(0.771373 0.0875006 1.65465e-20)
(1.01747 0.0642427 -1.08775e-22)
(1.0241 0.0153477 2.96676e-23)
(0.622942 0.102686 1.10212e-20)
(1.09216 0.0535436 1.07768e-20)
(1.02772 0.0175948 4.35063e-21)
(1.05914 0.0697328 6.53402e-21)
(1.01947 0.00984387 0)
(1.01325 0.0657654 0)
(1.08126 0.066153 1.92716e-22)
(1.01576 0.00135307 5.68538e-21)
(1.05591 0.021057 0)
(1.03331 0.0190866 3.83049e-21)
(1.01453 0.00495029 1.61914e-21)
(1.01181 0.00228129 -2.94943e-23)
(1.01382 0.00368667 -1.33399e-22)
(0.222928 -0.00528486 -2.73339e-21)
(1.03181 0.0898608 -7.21671e-22)
(1.0236 0.0122334 5.11836e-23)
(1.01403 0.00360906 -2.00543e-23)
(1.0164 0.00696643 3.72236e-23)
(1.05205 0.0433067 -7.45774e-21)
(1.05739 -0.0411759 -1.94572e-22)
(1.0112 0.00036955 -2.72317e-22)
(1.00618 -4.76781e-05 4.64717e-24)
(1.08234 0.0541092 7.91519e-21)
(1.0538 0.0483143 7.07312e-21)
(1.01473 0.00521208 0)
(1.02711 0.0179922 -8.69013e-23)
(0.666067 0.0325487 -2.68125e-21)
(0.880602 0.143609 -1.28625e-22)
(1.0049 0.00679585 0)
(1.06914 0.0615822 -1.0569e-20)
(1.04838 0.0670108 0)
(1.01351 0.000501071 0)
(1.01075 0.000381178 2.76399e-22)
(1.02143 0.0247841 6.319e-22)
(1.01169 0.00218053 8.69041e-22)
(1.01118 0.000375152 -2.72359e-22)
(1.01832 0.009586 -1.19542e-21)
(1.01077 0.000388774 -3.29138e-22)
(1.01318 0.000490041 -1.6396e-24)
(0.407512 0.150137 -1.18741e-21)
(1.01977 0.010176 -2.00974e-21)
(1.03364 0.0415542 -5.19384e-21)
(0.362289 0.00958305 1.8311e-20)
(1.05497 0.0436095 -1.18494e-21)
(1.01159 0.00250815 -4.31271e-22)
(1.03045 0.0039478 0)
(0.648112 0.105322 -6.8214e-21)
(1.02322 0.0264896 0)
(0.366622 0.0016526 2.88231e-21)
(1.01222 0.000312869 0)
(1.02127 0.00328864 0)
(1.01436 9.71838e-05 -3.21083e-22)
(1.0105 0.000496794 0)
(1.02532 0.0177552 1.05463e-21)
(1.0175 0.0096262 9.97305e-23)
(0.69568 0.0285184 -6.27747e-21)
(1.01206 0.00245384 -2.49314e-23)
(0.950079 0.0552599 0)
(1.02103 0.00334151 0)
(1.06274 0.0324769 -1.1379e-20)
(1.01291 0.00592329 -9.31231e-22)
(1.0199 0.0111995 6.78346e-23)
(1.04725 0.0470547 -6.55867e-21)
(0.738657 0.0733715 0)
(1.02469 0.0102875 0)
(0.703405 0.143124 0)
(1.01187 0.00271132 -5.71955e-22)
(1.01078 0.00083275 -1.48355e-21)
(1.01619 0.00671128 0)
(1.01804 0.010104 -1.05935e-21)
(1.01092 0.00216609 0)
(1.01335 0.000807926 0)
(0.631423 0.0394472 -2.55925e-20)
(0.394588 0.0412907 7.35043e-21)
(1.0107 0.00205698 -1.82011e-22)
(1.05096 0.0769046 1.44629e-20)
(1.08106 0.0548681 1.03189e-20)
(1.01916 0.000356065 2.50749e-21)
(1.05467 0.04544 2.34801e-21)
(1.08418 0.043078 -3.27198e-20)
(0.583437 0.113863 -1.74383e-20)
(1.05831 0.0220571 -7.7361e-21)
(0.965034 0.055228 0)
(0.996578 -0.0736819 0)
(1.0021 -0.0696968 0)
(1.01769 0.00994898 -4.0803e-22)
(1.00814 0.00183417 0)
(1.01277 0.00791124 6.27357e-22)
(1.02402 0.0156302 1.58934e-21)
(0.944087 0.0814763 -5.35324e-21)
(1.00543 8.18637e-05 1.05562e-22)
(1.02198 0.0100249 0)
(1.02356 0.0132657 -1.94237e-21)
(1.05813 0.0185081 1.06924e-20)
(1.02455 0.031523 -8.47785e-22)
(1.07549 0.0661478 -2.72513e-20)
(1.0647 0.0435409 1.84835e-20)
(1.02219 0.00231492 2.558e-22)
(1.01952 0.00300795 0)
(1.0009 0.00137612 0)
(1.03706 0.0485895 6.14894e-21)
(1.02328 0.0120472 1.10396e-21)
(0.617389 0.034994 0)
(1.05453 0.0359676 -9.0887e-21)
(1.03786 0.0300214 -1.04955e-20)
(0.470577 0.096673 -1.39987e-21)
(1.01582 0.00173651 -3.98558e-21)
(1.03757 0.0497248 -6.89107e-21)
(1.04068 0.0499816 9.86848e-22)
(1.0103 0.00146684 1.20627e-21)
(0.526171 0.0307732 0)
(1.01083 0.000836224 0)
(1.01048 0.000489753 0)
(1.05262 0.0438484 0)
(1.01216 0.00032449 2.93881e-22)
(1.01054 0.000666489 7.97716e-22)
(1.04425 0.0466892 5.2158e-21)
(0.585463 0.0378523 -2.6904e-20)
(0.661262 0.0825913 0)
(1.01549 0.00380244 -4.82328e-21)
(1.04215 0.0104852 0)
(1.02063 -0.000416517 4.53227e-22)
(0.964439 0.0676881 -2.65619e-21)
(0.935321 0.012293 -1.89833e-21)
(1.02279 0.0114146 0)
(1.02277 0.0107723 1.55825e-21)
(1.01511 0.00342116 -2.58328e-21)
(1.04879 0.0452796 1.51982e-21)
(0.89655 -0.151999 -1.56362e-21)
(1.01362 0.00309819 3.69804e-23)
(1.00306 -7.16296e-06 -2.02376e-22)
(1.01677 0.00587848 0)
(1.0144 0.0047564 0)
(1.01275 0.00251385 -3.70064e-22)
(1.04482 0.029892 0)
(1.00491 8.39486e-05 3.13038e-22)
(1.06399 0.0440938 -1.91653e-20)
(1.01024 0.00138816 -5.97325e-22)
(1.01675 0.00739825 0)
(1.03333 0.018625 7.24278e-21)
(0.582316 0.0545346 0)
(1.00693 0.000295526 -2.87284e-23)
(1.04895 0.0155299 8.53632e-21)
(1.01498 0.00215464 -4.5907e-22)
(1.06227 0.0316953 -1.97327e-20)
(1.05563 0.0489199 5.71166e-21)
(1.00137 0.0344867 -8.00152e-22)
(1.04837 0.0464503 0)
(1.03253 0.0846914 7.43109e-22)
(1.03149 0.0176102 0)
(1.00471 0.00419485 3.59028e-21)
(0.723155 0.0459603 1.79773e-20)
(0.436669 0.150158 0)
(0.382922 0.0129888 1.70116e-20)
(1.01255 0.00244933 1.01431e-23)
(1.01589 0.00630552 0)
(1.02357 0.00254144 -2.3801e-22)
(1.02336 0.00602748 -7.54913e-21)
(0.857964 0.0711021 -1.00878e-20)
(1.01042 0.000401584 -3.00281e-22)
(0.798068 -0.165615 -2.44761e-22)
(1.03989 0.025727 -5.39864e-21)
(0.814485 0.0517823 2.16094e-20)
(1.0268 0.076906 -2.26418e-21)
(1.05578 0.0119126 0)
(0.0985814 -0.0388947 1.869e-20)
(1.01068 0.00200709 0)
(1.08076 0.041283 0)
(1.00483 0.000118203 -8.21719e-23)
(1.01521 0.00161202 8.70543e-22)
(0.777971 0.0491202 1.22636e-22)
(1.0117 0.000349259 -2.72141e-22)
(1.08658 0.059725 1.60543e-20)
(1.00236 -3.18625e-05 6.82768e-23)
(1.01795 0.000163898 4.16185e-23)
(1.0161 0.00654419 0)
(1.0752 0.0652664 2.10473e-20)
(1.01246 0.00137344 -3.74326e-22)
(1.00774 0.000405526 0)
(1.07593 0.0563401 0)
(1.05408 0.0448511 0)
(0.912879 0.168343 1.61046e-21)
(1.02563 0.0746164 0)
(0.659449 0.0416957 1.73784e-20)
(0.555578 0.11705 2.0289e-20)
(1.00693 0.000292999 1.86906e-23)
(0.403299 0.00333323 -1.88426e-20)
(1.00425 -1.01623e-05 0)
(0.341774 0.0139477 9.45461e-21)
(0.888534 0.115129 1.89544e-22)
(1.015 0.00158438 0)
(1.01953 0.00501323 9.64963e-23)
(1.00263 1.02258e-05 -4.35739e-23)
(1.05408 0.0355619 2.55497e-20)
(1.05424 0.0108212 -9.32624e-21)
(1.01166 0.000359146 2.76276e-22)
(1.00478 0.000137593 0)
(1.01411 0.000344562 2.12203e-21)
(1.05683 0.0752073 0)
(1.01657 0.0044654 1.19859e-21)
(1.07391 0.0435695 -2.60197e-20)
(1.02158 0.00972596 3.20792e-21)
(1.00759 0.000383988 0)
(1.00317 2.14434e-05 -1.03642e-22)
(1.03324 0.0425102 -2.45734e-21)
(0.87152 0.100209 -1.05169e-20)
(0.23542 0.00146331 -2.90457e-20)
(1.065 0.0504498 -1.66459e-20)
(1.04542 0.0294733 0)
(1.06083 0.0890519 -1.92723e-20)
(0.4797 0.0164244 2.04081e-20)
(1.01107 0.00130081 8.04233e-23)
(0.856036 0.0789783 -2.34863e-21)
(1.01354 0.00012601 2.2957e-21)
(1.08602 0.0479335 -3.72639e-20)
(1.02313 0.00617709 2.72793e-23)
(1.07293 0.0860578 6.86982e-21)
(1.01413 0.00454487 9.7589e-22)
(1.01245 0.00392563 1.13853e-21)
(1.0322 0.00438511 -4.41555e-21)
(0.920541 0.180377 -2.36297e-21)
(1.0526 0.0368236 4.30739e-21)
(0.810215 0.0789186 0)
(1.00503 8.95863e-05 1.80391e-22)
(1.05113 0.0359438 -6.73615e-21)
(1.01447 0.00245509 0)
(1.00193 -4.43589e-05 -8.36612e-23)
(0.539328 0.0303205 0)
(1.01179 0.0952067 -5.89211e-23)
(1.01517 0.00223584 6.17164e-23)
(1.04959 0.0601589 0)
(1.01983 0.00118594 3.37162e-21)
(1.01535 0.000705197 0)
(1.00239 -2.7884e-05 0)
(0.558227 0.035145 1.84744e-20)
(1.01672 0.00440761 -1.06355e-21)
(1.02148 0.00107623 5.13313e-22)
(1.01039 0.00039812 0)
(1.01487 0.00229921 -2.98539e-22)
(1.06697 0.0721474 2.85689e-20)
(1.0028 -1.5728e-05 4.95198e-23)
(1.05439 0.0606649 9.1365e-21)
(1.00319 4.36559e-05 1.00735e-23)
(1.01011 0.00164815 -6.83788e-22)
(0.289239 0.0300963 0)
(1.07431 0.0441909 -1.07466e-20)
(1.02245 0.0110395 7.40337e-22)
(0.280495 5.78203e-05 2.73608e-20)
(1.08661 0.059245 -3.44835e-20)
(1.07162 -0.00979982 -3.32266e-22)
(1.04016 0.0483556 0)
(1.01047 0.00190014 -1.34427e-22)
(1.02343 0.0173747 6.20937e-23)
(0.565009 0.0501214 -4.13931e-20)
(1.08994 0.0562347 -9.3855e-21)
(1.02243 0.0244529 9.62656e-22)
(1.02583 0.0185638 6.72653e-22)
(1.01179 0.00445642 -9.36381e-22)
(1.00385 6.98077e-05 0)
(1.01397 0.00405871 0)
(1.0043 -0.00168718 -5.79089e-23)
(1.0544 0.050017 2.94671e-21)
(1.03587 0.0240154 2.43327e-21)
(0.417367 0.0999052 -1.40143e-21)
(1.05333 0.0372429 -1.77836e-21)
(1.05393 -0.0468913 -4.60018e-22)
(0.900301 0.00990815 0)
(1.0037 0.0183439 0)
(1.04456 0.0375432 -5.37091e-21)
(1.04894 0.0635747 -8.70129e-21)
(0.45772 0.0116376 -2.03092e-20)
(1.0139 0.00192875 0)
(1.01619 0.0165517 -1.03724e-21)
(1.00202 -0.00586345 0)
(1.0102 0.00165851 2.74059e-22)
(1.00518 0.000142 -4.24599e-23)
(1.00318 9.39613e-06 8.97834e-23)
(1.02194 -0.000783691 1.643e-22)
(1.01155 0.000707369 3.48873e-23)
(0.409091 0.0037857 -2.10182e-20)
(1.07201 0.0271814 -6.6715e-21)
(1.00784 0.000427009 0)
(1.07113 0.0545541 0)
(1.00532 0.000100783 0)
(0.609005 0.0764488 -1.42412e-20)
(1.01455 0.00189863 0)
(1.01336 0.00318378 0)
(0.553437 0.0345769 0)
(1.05674 0.0476773 -1.98006e-20)
(0.918807 -0.119512 6.70376e-21)
(1.03407 0.00626242 -1.527e-21)
(1.01603 0.0011085 1.50731e-22)
(1.01325 0.00266057 1.08617e-22)
(1.0392 0.00857155 4.34457e-23)
(1.05352 0.0275201 2.01805e-20)
(1.01414 0.00469602 -1.33057e-21)
(0.355873 0.00415674 -2.00408e-20)
(1.03735 0.0327431 -5.58981e-21)
(0.845632 -0.0830717 1.78537e-22)
(0.935218 -0.0999877 -2.33914e-21)
(1.01449 0.01563 2.03001e-21)
(0.660329 0.0424465 -2.12287e-20)
(1.04186 0.0109763 0)
(1.00577 0.000209314 3.39911e-23)
(1.01471 0.00240352 0)
(0.454939 0.0161523 -4.35318e-21)
(0.703272 0.0793956 0)
(1.03914 0.026668 6.24001e-21)
(0.373284 0.00327738 -1.02614e-20)
(0.822373 -0.185654 1.64417e-21)
(1.01013 0.00174412 -2.02046e-22)
(1.01315 0.00296054 -5.69481e-23)
(1.02486 0.0174852 -4.08327e-21)
(0.979039 0.0574822 0)
(0.962847 -0.111323 -2.78131e-21)
(1.05194 0.0373919 -1.92967e-21)
(1.03853 0.00848928 -4.66905e-21)
(1.0486 0.0160356 -1.40168e-20)
(1.08673 0.0481092 4.45473e-20)
(1.01866 0.00475116 -2.56416e-23)
(1.05225 0.0591585 -5.97744e-21)
(1.07144 0.0279437 1.48226e-20)
(1.0229 0.0127158 -1.6084e-21)
(1.0335 0.0145409 2.93945e-22)
(1.00568 0.000204095 -3.43425e-23)
(1.05282 0.0272296 -1.33346e-20)
(1.02063 0.00308877 0)
(1.09122 0.0537327 4.16336e-20)
(1.02835 0.0219724 -1.90268e-21)
(1.01705 -0.00300351 7.92753e-22)
(0.361671 0.00354943 -5.45014e-21)
(1.01507 0.000508706 -2.56727e-23)
(0.816496 -0.18087 4.92524e-22)
(1.02609 0.0182185 0)
(1.02482 0.0132269 0)
(1.04263 0.0250878 -6.92993e-23)
(1.08984 0.0561465 1.82345e-20)
(1.0039 5.31622e-05 8.95761e-23)
(1.08099 0.0396867 -4.09203e-20)
(0.905403 0.0962976 1.51177e-20)
(0.91161 -0.00334855 0)
(1.02411 0.00598838 5.0292e-21)
(1.02896 0.0222255 6.40642e-21)
(1.00971 0.000378183 -1.13542e-21)
(1.02137 0.00473063 -4.51169e-21)
(1.03201 0.0033783 0)
(1.00996 0.016676 -1.01648e-21)
(1.0115 0.00419402 0)
(1.03736 0.0429562 -5.64795e-21)
(1.05305 0.0607041 6.37658e-21)
(1.01024 0.0017456 1.4183e-22)
(1.08804 0.0545642 -1.70846e-20)
(1.06045 0.0150951 2.54295e-20)
(1.05787 0.0190537 0)
(1.05033 0.0618743 0)
(1.01905 0.0100993 6.80303e-22)
(1.07996 0.0415591 0)
(1.03819 0.116786 -2.56287e-21)
(1.00708 0.000336884 -2.6823e-23)
(1.05757 0.0475792 -3.50136e-22)
(1.04787 0.047016 -5.61991e-21)
(1.0703 0.0279124 -1.60055e-20)
(1.01285 0.00341052 -1.54045e-22)
(1.01117 0.00233505 -3.98105e-22)
(1.01387 0.0039815 0)
(0.414457 0.00490678 1.36003e-20)
(1.03264 0.0136605 5.14674e-21)
(1.01482 0.00186091 6.59473e-22)
(1.07584 0.0310064 4.2554e-21)
(1.01438 0.00490627 6.97453e-22)
(1.01203 0.00268745 -7.6948e-23)
(1.04634 0.0526556 1.49241e-20)
(1.02747 0.108698 -1.57748e-21)
(1.00105 0.0142758 0)
(0.842015 0.144197 -4.05683e-22)
(1.01271 0.040434 1.2865e-23)
(0.952542 0.0536582 0)
(1.03239 0.00300518 -1.17884e-20)
(1.01582 0.00616606 1.43973e-21)
(1.07052 0.0864956 2.98653e-20)
(1.01503 0.000887643 0)
(1.03525 0.00705576 4.73523e-22)
(1.00363 4.82938e-05 2.08015e-22)
(1.0052 0.000110301 0)
(1.03287 0.00709864 0)
(1.02735 0.0221896 -1.85841e-21)
(1.00022 0.0378492 -1.5771e-21)
(1.01273 0.00333347 1.56675e-22)
(1.00409 0.0151717 2.86397e-22)
(1.01644 0.00542597 -2.35601e-23)
(0.907409 0.118288 -2.46382e-22)
(1.02655 0.0184807 3.1129e-21)
(1.05875 0.021356 8.40372e-21)
(1.01269 0.000280134 0)
(1.06464 0.0520245 -2.24576e-20)
(1.022 0.0162036 -5.39176e-23)
(0.731389 0.103577 -2.22635e-20)
(0.999482 0.0172348 1.52781e-21)
(1.00263 5.43501e-05 -5.11851e-23)
(0.585545 0.0638716 -7.84223e-21)
(1.03307 0.0152078 -1.13183e-20)
(0.414684 0.00880631 0)
(1.05405 0.00932759 0)
(0.9871 0.0252537 1.89038e-21)
(1.01784 0.0053748 2.63757e-22)
(1.01215 0.00211396 -1.94374e-24)
(1.02382 0.00564083 -9.33416e-23)
(0.70076 0.0435027 1.59575e-20)
(1.05144 0.0275682 -1.48029e-21)
(1.0737 -0.0206812 -3.77664e-22)
(0.839225 0.147555 0)
(1.0211 0.0045805 4.18669e-21)
(1.06996 0.028684 -8.15643e-21)
(1.00738 -8.39494e-05 0)
(1.02338 0.0058099 3.54243e-22)
(0.930693 -0.134582 -6.71004e-22)
(1.00781 -9.64286e-05 0)
(0.426318 0.138178 -3.26148e-21)
(1.05035 0.0151092 9.1025e-21)
(0.987227 0.0306372 -1.73362e-21)
(1.06644 0.0588371 -1.26234e-20)
(1.0698 -0.0330604 -9.17849e-22)
(1.00913 0.000593232 0)
(1.00582 0.000207326 8.04777e-23)
(1.05067 0.0481192 4.10041e-21)
(1.01045 0.00184744 2.67534e-22)
(1.02134 0.0100241 7.92854e-22)
(1.02829 0.0172033 1.95395e-21)
(1.01559 0.00592471 -4.84008e-22)
(1.07528 0.0316801 0)
(1.00894 0.000563046 -1.37861e-22)
(0.970055 0.0412799 0)
(1.02256 0.012625 0)
(0.461378 0.00831312 0)
(0.405096 0.00795991 0)
(0.991603 -0.0614408 -3.99529e-21)
(0.939285 0.0543784 -5.2513e-21)
(0.739539 0.13507 2.76914e-21)
(0.450803 0.00662148 0)
(1.00375 -0.0754906 8.51296e-22)
(1.00946 0.00143345 -6.52785e-22)
(1.01567 0.00033133 -2.86245e-22)
(1.02749 0.00674647 -6.06415e-21)
(1.03027 0.0155113 -7.40873e-21)
(1.01517 0.00362237 2.73111e-21)
(1.05228 0.0278591 0)
(1.01687 0.00556509 1.04132e-21)
(1.04266 -0.046126 -2.67149e-21)
(1.0217 0.0103453 0)
(1.08979 0.0681045 -1.7819e-20)
(1.03243 0.0129878 0)
(1.07004 0.022652 0)
(1.04877 0.0513818 7.63144e-21)
(1.0129 0.00230426 0)
(1.03116 0.0411644 0)
(1.0327 0.0153749 7.84709e-21)
(1.01574 0.00289072 -2.96328e-22)
(1.04652 0.0246603 9.80079e-21)
(1.01418 0.00021597 -1.51098e-22)
(0.660259 0.0430651 2.50604e-20)
(1.05403 0.0510343 3.31644e-21)
(0.9992 -0.000789671 0)
(1.01296 0.00274739 1.31995e-23)
(1.02449 3.40324e-05 -7.86884e-21)
(1.01665 0.00688904 -1.74337e-22)
(1.01668 0.00554188 -5.87489e-23)
(0.49508 0.103973 0)
(1.00971 0.0015638 0)
(1.01856 0.0914701 0)
(1.01401 0.00438993 -4.74825e-22)
(0.968553 -0.0959679 0)
(1.01983 0.015656 -3.73324e-22)
(1.01569 0.00561225 0)
(1.08133 0.0403386 0)
(1.0299 0.00189802 -2.48285e-22)
(1.00989 0.0016734 -4.81886e-22)
(0.933599 -0.0686492 0)
(0.89464 0.0822359 0)
(1.02341 0.0159946 -2.30878e-21)
(1.06653 0.0518059 0)
(1.01044 0.00169858 -2.25397e-22)
(1.02052 0.0843424 0)
(1.01584 0.000457119 -4.43208e-22)
(1.01664 0.00563483 -7.93249e-24)
(0.508964 0.0206853 0)
(1.005 8.86669e-05 -7.98521e-23)
(1.03751 0.0124135 0)
(1.07008 0.0542831 -7.81507e-22)
(0.494324 0.0158656 0)
(1.01668 0.000522995 1.51699e-22)
(0.968403 -0.0921355 0)
(1.0686 0.0894992 0)
(1.01659 0.00204165 0)
(1.01682 0.00796639 0)
(1.01581 0.00614421 0)
(1.06625 0.0683684 0)
(1.02373 0.000519805 0)
(1.07644 0.0572758 -1.85482e-20)
(1.0284 0.00895415 -9.14843e-21)
(0.535258 0.0326299 1.33288e-20)
(1.02099 0.0161238 0)
(0.819269 -0.00817071 -2.07392e-21)
(1.01404 0.00371967 1.22709e-23)
(1.01095 0.000260239 1.22185e-22)
(1.03608 -0.0158272 -8.26348e-22)
(1.01178 0.000470359 0)
(1.01473 0.000173877 0)
(0.765998 0.0486103 1.74365e-20)
(1.02563 0.0159578 6.13979e-21)
(1.01155 0.0024512 -1.11281e-21)
(0.870373 -0.0925907 0)
(1.01635 0.00213048 -4.58844e-22)
(1.01606 8.0381e-05 1.84793e-23)
(1.05531 0.0499777 -6.58242e-21)
(1.02728 0.0171244 -3.49728e-21)
(0.841735 0.0719032 0)
(1.03373 0.0403369 -3.41642e-21)
(1.08287 0.0437017 -1.57203e-20)
(1.04175 0.0467395 8.77858e-21)
(1.04769 0.0160304 -4.3395e-21)
(0.552502 0.0313689 4.21968e-21)
(1.02288 0.0133246 -1.49865e-21)
(1.05648 0.04878 -6.1393e-21)
(1.02243 0.00312628 4.47614e-21)
(0.389223 0.0105147 7.82721e-23)
(0.97739 -0.090087 -8.31686e-22)
(1.03566 0.00585944 -8.96267e-22)
(1.0157 0.000259129 2.99763e-22)
(1.01539 0.00225089 1.16749e-23)
(1.02308 0.0115006 -1.22042e-21)
(1.015 0.000272881 1.55635e-22)
(1.01276 0.000769669 1.92809e-22)
(1.0141 0.000906343 0)
(1.02375 0.00511622 -2.44236e-21)
(1.04357 0.0307247 9.4181e-21)
(1.00697 0.000313833 0)
(1.02569 0.0155815 -6.33196e-21)
(1.0715 0.0486178 1.1987e-20)
(0.493539 0.132381 -5.19723e-21)
(0.707298 0.105802 5.73717e-21)
(1.06972 0.0530316 1.28251e-20)
(1.0167 0.00711206 -2.14759e-22)
(1.03032 -0.029834 8.20829e-22)
(1.01624 0.00490424 0)
(1.07178 0.0840738 8.49656e-21)
(0.903318 -0.158317 1.56731e-21)
(0.187763 -0.00145542 -2.66207e-20)
(1.01051 0.000458698 0)
(1.00963 0.00153748 5.89048e-22)
(1.01753 0.000938375 1.83331e-21)
(1.01928 0.00910342 1.05306e-21)
(1.01027 0.000442206 3.51372e-22)
(1.01413 9.35426e-05 -3.38973e-22)
(1.01832 0.00498781 -1.23575e-21)
(1.04474 0.0383472 1.11984e-20)
(1.01168 0.0024891 -1.15414e-21)
(0.441236 0.0362082 0)
(0.914508 -0.0924747 0)
(1.01202 0.00304875 2.82086e-22)
(0.728784 0.0475598 -2.8806e-20)
(1.02283 0.00319239 -4.69129e-21)
(1.0139 0.00379365 3.97697e-23)
(1.02693 0.00696656 0)
(0.572969 0.0399694 0)
(1.03636 0.051365 9.69221e-21)
(1.00347 -5.82059e-06 1.02507e-22)
(0.919724 -0.135844 -2.06865e-21)
(1.01409 0.00215513 -1.14829e-22)
(1.01382 0.00345836 1.55814e-23)
(1.09086 0.0552623 1.88256e-20)
(1.01564 0.000333818 0)
(0.976145 0.134575 0)
(1.03829 0.0126958 -8.80597e-21)