/*--------------------------------*- C++ -*----------------------------------*\
| =========                 |                                                 |
| \\      /  F ield         | OpenFOAM: The Open Source CFD Toolbox           |
|  \\    /   O peration     | Version:  v2012                                 |
|   \\  /    A nd           | Website:  www.openfoam.com                      |
|    \\/     M anipulation  |                                                 |
\*---------------------------------------------------------------------------*/
FoamFile
{
    version     2.0;
    format      ascii;
    class       volScalarField;
    location    "550";
    object      ddt0(k);
}
// * * * * * * * * * * * * * * * * * * * * * * * * * * * * * * * * * * * * * //

dimensions      [0 2 -3 0 0 0 0];


internalField   nonuniform List<scalar> 
13917
(
3.34365e-08
6.10797e-08
-0.000150338
8.6498e-08
1.10979e-08
-5.64417e-07
-9.70601e-06
-0.000285866
-6.57961e-05
-1.20061e-08
5.00951e-07
-2.00994e-07
8.73631e-08
0.000139258
4.46979e-08
5.16802e-08
5.47527e-08
5.38775e-08
-1.99882e-07
3.37052e-08
5.78104e-09
-2.64459e-05
2.9161e-08
-0.000299414
3.44472e-08
0.000256781
-2.73654e-07
3.97631e-07
-3.37967e-06
-1.4166e-07
-1.38459e-09
3.28749e-08
1.11099e-07
8.142e-08
2.36398e-08
-0.000156926
2.82251e-08
-0.000106129
8.59703e-08
5.5188e-06
1.05151e-07
3.25331e-09
9.20951e-08
3.07734e-07
5.10298e-08
-9.25835e-08
5.52522e-08
1.02049e-07
5.47916e-07
7.09396e-08
3.34999e-08
-1.31387e-09
5.33918e-07
7.07139e-08
5.49663e-08
1.72192e-08
1.94384e-08
4.67444e-09
1.88088e-08
5.3547e-08
-0.000282167
6.18202e-08
-3.33616e-05
3.7791e-08
-1.82689e-07
-0.0312572
-2.89486e-09
-1.51835e-09
8.34757e-07
3.26747e-08
8.30855e-09
-8.22266e-05
2.55527e-05
3.27549e-08
1.01881e-06
-3.3357e-07
8.2302e-05
3.20752e-08
0.000482997
4.99887e-09
1.41486e-08
-3.41269e-09
-2.39032e-07
-0.000131919
-0.000163996
3.10107e-08
2.11791e-08
0.0759383
3.05519e-08
9.40908e-08
9.87325e-06
-1.79753e-07
6.65222e-08
2.28238e-08
-0.172636
-9.41999e-07
2.75254e-07
1.31348e-07
-8.20945e-07
-2.81814e-06
7.91345e-08
-9.17009e-09
3.29063e-07
3.11712e-08
6.54973e-08
5.47545e-05
-6.92102e-07
1.29559e-07
5.68328e-08
1.68002e-08
-0.000201508
2.65499e-05
-3.46729e-07
2.73834e-05
1.63301e-09
-2.10651e-08
3.95955e-08
3.95895e-06
-0.000115987
1.60558e-07
3.08154e-09
1.58593e-06
-0.000113763
6.31851e-08
8.08634e-08
1.97608e-08
6.03613e-08
8.25724e-08
1.09778e-07
-2.43711e-06
-0.000132291
1.47884e-09
5.0064e-08
4.16963e-09
-0.00426013
-0.000274431
3.8483e-08
-2.3247e-06
-3.23831e-09
7.03328e-08
-0.000304244
7.5296e-08
3.51308e-10
1.58421e-07
-1.56661e-09
-8.90571e-05
3.2336e-07
-2.65579e-09
6.92595e-08
3.4156e-08
3.13541e-08
-1.44364e-07
-5.52813e-09
3.41344e-08
2.04176e-08
-3.26465e-05
4.07257e-08
-0.000468934
8.86935e-05
0.00355562
1.48958e-08
9.15608e-07
4.56837e-09
2.83663e-07
-3.19147e-07
-8.60747e-07
2.88622e-08
6.9432e-08
6.2351e-08
6.54001e-08
-6.68941e-08
-0.000186994
-3.61879e-07
5.78979e-08
-0.000350939
-2.06852e-07
-0.000135407
-3.70924e-06
-0.00013178
3.79296e-08
1.11267e-07
1.43097e-08
7.45797e-08
2.10302e-08
1.09751e-07
0.000353768
-4.76449e-07
-1.25251e-05
2.39504e-08
-4.2855e-07
-2.51417e-05
-0.000174998
-3.60087e-07
2.53727e-08
-3.79409e-06
-2.83431e-07
1.45719e-07
6.9102e-08
-1.15124e-07
0.0644026
5.46323e-08
7.01017e-08
5.37315e-08
2.69835e-08
4.68341e-05
0.000550943
2.41095e-08
4.18179e-09
1.05857e-07
0.00015986
2.01492e-09
-7.50266e-05
7.04104e-05
-4.28568e-07
5.96442e-08
1.47949e-06
7.04462e-08
-0.000132464
3.17284e-08
-0.000206158
3.34746e-08
1.31371e-07
1.02844e-07
-8.83876e-05
8.80408e-05
5.14785e-08
-1.97965e-05
1.96506e-08
5.8681e-08
1.57418e-05
-3.62231e-07
2.43954e-08
-0.000172905
8.09772e-05
9.80001e-08
2.97906e-08
-1.31827e-05
-9.50483e-05
1.43018e-08
5.48308e-08
9.49634e-05
-4.64282e-07
7.20552e-09
-1.94065e-05
2.69336e-07
-1.02275e-06
2.37432e-08
1.0372e-08
1.24661e-07
8.91463e-05
6.6547e-08
-8.35841e-08
-1.41507e-06
6.00204e-08
3.68972e-09
-8.89224e-08
0.000128617
-5.533e-08
7.18071e-08
9.44032e-09
5.60946e-09
-0.000119371
0.000821709
9.63278e-07
6.3121e-08
-2.75001e-05
3.81604e-05
-0.000689485
0.000438426
-3.79461e-07
9.70488e-09
9.1015e-08
6.99423e-08
-8.36329e-06
5.32979e-07
1.98669e-08
0.000816925
-2.74445e-09
1.16379e-07
0.00116689
3.79499e-08
-0.000393465
5.49795e-08
1.4838e-08
3.83939e-08
2.22796e-09
-6.12754e-07
-2.8961e-05
6.61908e-08
5.27854e-08
5.80934e-06
-0.00021533
0.000511387
3.23731e-08
-0.00056225
-3.46663e-09
5.28031e-08
3.99911e-08
5.33209e-06
5.39213e-08
5.52623e-08
2.17853e-08
6.28508e-08
4.93479e-08
5.74855e-08
2.76933e-07
6.22844e-09
-1.83343e-07
6.80641e-08
5.43647e-09
-0.000203672
-9.14562e-05
3.90476e-08
9.94334e-08
0.00127915
4.74661e-08
1.43377e-05
7.02476e-08
-0.000105377
8.28943e-08
-2.68988e-06
3.56327e-08
6.63341e-07
1.24572e-09
0.00112753
-7.57105e-06
4.69924e-08
-1.1664e-07
1.60003e-05
2.19e-08
-0.000147032
2.3554e-06
2.02868e-05
1.86851e-07
-8.80266e-05
2.6674e-08
-0.00028832
1.66893e-06
-1.60423e-08
-6.8757e-08
-0.000159463
6.60759e-09
-1.07281e-08
-0.000217873
9.30145e-11
5.0173e-08
5.49688e-06
-5.36843e-07
6.1744e-08
1.9875e-05
-4.92836e-06
7.66624e-08
-0.000110382
-0.00896952
4.12054e-08
4.64588e-08
-8.12516e-09
7.13678e-08
0.000165494
-0.000214265
-2.06784e-06
-0.000220397
3.6163e-08
-3.59419e-07
-1.05434e-05
3.88303e-08
-4.13068e-05
-3.52341e-05
6.00678e-05
8.9575e-08
-1.77902e-06
5.42417e-08
-7.25213e-05
5.4708e-08
4.01962e-07
2.42207e-07
7.52673e-08
9.01939e-09
9.04369e-08
2.70253e-07
1.1468e-07
-4.60458e-06
-0.000256568
-0.000113924
5.0452e-07
1.6783e-07
5.49018e-08
-0.000100814
3.84475e-05
1.02434e-08
0.00619807
2.73635e-08
-4.14791e-05
8.24777e-08
7.01598e-09
5.80531e-08
0.000760448
5.76634e-08
0.000181984
1.09269e-05
-7.33769e-08
6.56254e-06
2.46012e-08
2.11637e-06
1.74833e-06
3.96373e-08
-1.71282e-07
2.90256e-09
2.9418e-08
-1.81813e-07
1.13991e-08
2.40467e-08
4.8424e-08
-1.93929e-05
5.02906e-09
-8.76671e-05
0.001194
2.27782e-06
-1.01486e-07
0.000104977
-8.93267e-05
3.78814e-08
3.73044e-08
4.06333e-07
8.35984e-08
2.68796e-08
2.62755e-08
-0.000173077
9.00482e-05
0.00145769
4.00103e-08
3.74871e-07
1.40399e-07
8.31094e-08
9.79967e-08
6.13661e-08
1.77806e-05
6.03033e-08
4.99943e-08
-2.38299e-06
-0.000124758
-0.000123438
-4.54563e-08
3.19273e-06
-0.0001679
-0.000152647
6.32754e-05
1.03706e-07
9.65049e-08
6.17439e-08
9.52684e-10
0.000129672
7.04602e-08
1.38246e-07
6.19874e-08
3.92e-08
6.02615e-05
3.94109e-08
6.20181e-07
0.000101068
6.38091e-07
-8.24053e-05
5.75556e-09
1.09993e-08
1.47648e-07
4.77212e-08
8.58262e-08
0.000656416
4.00637e-06
6.13855e-08
-7.30646e-05
1.61092e-08
3.03691e-07
-0.000159866
2.99677e-07
-1.73469e-07
-0.00249664
5.84653e-07
1.14083e-08
3.80144e-07
-7.44838e-09
-4.60196e-08
1.27915e-06
-6.42902e-08
1.82432e-07
1.34694e-07
-0.0023467
2.47528e-08
7.53452e-08
4.41919e-08
3.09586e-08
5.43522e-05
1.51041e-05
4.5516e-08
1.26011e-07
0.000429746
-7.43752e-05
1.36519e-08
-9.65081e-05
5.84024e-08
-1.22513e-07
4.4289e-08
3.44916e-05
4.62894e-05
3.41214e-08
5.96781e-08
0.000150057
-3.54099e-07
-1.2439e-05
5.42158e-09
7.7045e-05
-7.07321e-08
0.00119256
7.4954e-08
-0.000148493
7.79673e-05
3.01556e-08
4.49216e-08
4.61442e-08
-3.30585e-07
0.00025261
1.47207e-07
4.72639e-08
7.27714e-08
7.51518e-08
-7.52969e-06
0.000778258
3.23532e-08
-3.1013e-06
8.56376e-08
7.73964e-08
2.68656e-07
-1.09914e-05
1.70021e-08
6.25284e-08
2.94211e-08
2.56241e-10
0.000938853
-0.000194551
1.94671e-08
9.7521e-09
2.51137e-07
-6.16528e-09
3.31811e-08
4.12315e-09
6.0973e-08
4.21161e-08
1.85859e-07
-9.5899e-06
2.97017e-06
1.67499e-07
2.69633e-07
0.000623965
-5.99716e-08
3.33448e-08
8.08173e-05
-2.25636e-09
5.10059e-08
6.20793e-08
0.00129436
2.34687e-07
1.01942e-07
-2.34994e-07
-3.59636e-08
-1.14512e-05
2.84505e-07
7.09339e-07
4.1714e-08
7.87182e-09
0.000384172
-5.02414e-07
-0.000248069
5.71657e-08
1.86292e-08
1.30709e-05
-4.24194e-05
4.23522e-05
1.47372e-07
4.99768e-08
4.88068e-08
3.47685e-08
5.41698e-09
-3.89557e-07
4.17485e-07
-1.02876e-09
6.71313e-08
-7.02328e-07
-0.00025719
-1.82538e-05
5.53102e-08
2.84177e-07
2.64982e-05
3.26732e-08
-3.1006e-09
-2.0494e-06
0.000469918
-0.000263644
-1.36507e-06
1.07239e-07
-0.000112198
-3.17578e-07
1.15614e-07
1.62748e-08
6.82966e-08
-5.23735e-08
-4.27631e-08
0.000405445
4.39292e-07
1.89164e-08
0.00038168
2.53984e-08
7.8123e-05
9.21055e-09
1.94768e-08
-0.000673636
0.000389861
7.78192e-06
2.52596e-08
5.80605e-08
1.00712e-08
-6.72359e-09
5.99711e-07
-7.66084e-07
3.30921e-08
1.57052e-08
8.50979e-08
4.18949e-08
-9.40744e-05
-7.37976e-07
1.90803e-05
2.65239e-08
2.53055e-07
3.11826e-08
4.69714e-05
-1.05218e-07
3.43684e-07
1.89163e-08
8.8173e-08
7.81207e-08
5.86328e-08
2.17696e-07
-5.56855e-08
1.13645e-06
-1.4151e-05
7.94112e-08
7.68297e-08
5.32003e-07
3.52005e-06
-0.00165119
6.53197e-08
5.19463e-08
4.56262e-08
5.92263e-08
1.76639e-08
2.6172e-05
8.17366e-09
0.00474054
5.46418e-08
1.91244e-07
-4.28505e-07
1.30888e-05
-3.18706e-07
4.46759e-08
2.00408e-05
5.82788e-06
2.54772e-08
6.20266e-08
0.000305344
-4.72315e-07
4.1253e-07
1.98791e-08
5.69853e-08
-2.62288e-07
7.48484e-08
1.23039e-07
-9.00728e-08
7.81692e-08
6.08746e-09
-0.00017384
7.06462e-08
8.36245e-08
6.82808e-08
-9.66076e-05
2.81861e-09
5.21255e-08
-0.000194977
4.59777e-08
0.000430752
2.15186e-08
1.7094e-07
6.83207e-08
-4.16516e-07
3.84214e-08
2.46896e-08
9.05494e-08
-2.04153e-07
5.76518e-08
-3.36965e-05
2.45951e-05
-1.48254e-05
1.42508e-07
7.85985e-09
2.04784e-08
4.35572e-09
-5.37897e-05
3.45574e-05
5.27757e-08
2.98961e-08
2.53089e-05
1.48376e-06
1.51097e-05
1.59188e-05
6.96231e-08
0.000687701
1.68347e-08
1.76011e-08
-5.00558e-08
-9.29712e-08
5.19356e-08
-8.66271e-06
5.64677e-08
7.62686e-08
1.42688e-07
5.29593e-08
7.2847e-08
6.03042e-08
-2.54439e-08
3.76745e-08
3.77928e-08
8.73764e-08
8.14452e-08
4.21118e-08
1.35503e-07
2.63952e-08
2.49304e-08
3.65312e-09
6.10086e-08
8.67492e-08
4.29885e-08
6.65088e-08
2.96187e-05
-1.98061e-07
2.4484e-06
8.65742e-08
1.0023e-08
4.04016e-08
6.05655e-09
-1.36579e-09
0.000682351
-5.0429e-07
8.04109e-05
5.80771e-08
4.19275e-07
4.06312e-08
5.84046e-09
8.04277e-08
5.85704e-08
-0.000144796
9.28724e-09
0.00130646
4.08703e-08
-1.35642e-05
6.31589e-07
-3.14174e-07
-1.71798e-07
8.63147e-08
-3.76543e-12
-2.10493e-07
7.41798e-09
1.42339e-08
0.00125349
5.84123e-08
4.46679e-09
1.67454e-08
5.85182e-08
1.43493e-07
3.35118e-08
-2.13756e-06
-2.86601e-05
1.92165e-08
7.08246e-08
1.06883e-07
-6.99322e-05
1.95249e-08
2.74152e-08
5.65629e-08
0.000832204
0.00017006
-0.000155916
4.19369e-07
7.61244e-08
9.76123e-08
1.47804e-07
-6.32075e-08
1.79975e-08
3.09641e-05
-2.24994e-07
-0.000128038
6.42921e-08
2.81682e-08
-0.000150116
2.67811e-08
2.77001e-08
1.77548e-08
5.34317e-08
1.26488e-08
-8.37968e-07
3.53876e-08
0.000361032
3.63276e-05
-3.70939e-07
3.18807e-08
8.01207e-08
-4.3412e-07
0.00109537
1.36228e-08
0.000257303
8.02605e-08
-1.40233e-09
8.25287e-08
6.72299e-08
0.000493244
4.76073e-08
0.00229606
1.4014e-08
1.65181e-09
9.34099e-08
1.53759e-09
3.01977e-08
8.27856e-08
5.40205e-07
6.67603e-08
7.09387e-08
-0.000206501
-9.65309e-05
2.01732e-08
2.56348e-08
1.1634e-07
2.17027e-08
7.00182e-08
4.08714e-08
5.88131e-05
-4.03534e-07
1.14313e-08
6.11943e-08
4.16575e-05
3.46378e-08
-0.000248411
4.90761e-09
3.7002e-09
-7.68274e-05
3.21932e-08
3.20987e-08
-9.985e-05
6.55309e-06
3.07528e-08
-5.41183e-08
8.17362e-08
5.02057e-08
8.23108e-08
-3.56036e-05
9.39999e-08
8.35487e-08
7.16699e-08
0.00235929
8.32734e-08
-1.14325e-07
2.15704e-06
6.94045e-08
7.7137e-08
2.18944e-08
-0.000229834
4.82983e-08
6.94172e-08
5.31867e-09
-4.77842e-07
2.10102e-09
2.33372e-07
5.62618e-05
-8.00928e-05
1.19328e-07
-0.00846504
-0.000200144
5.11834e-09
-0.000123278
-0.000334135
-0.000205876
7.29552e-05
-0.000205724
-2.49421e-05
5.83775e-07
5.03051e-08
0.000341608
3.11916e-08
-1.27373e-05
7.35588e-08
6.71689e-08
3.11382e-08
2.50855e-08
2.41633e-08
-2.56509e-07
-8.85658e-05
6.71586e-08
1.07766e-08
-1.33665e-05
-3.92119e-06
-3.67486e-10
-1.75044e-06
1.72611e-08
4.10747e-08
3.16949e-05
-7.94599e-07
2.48398e-08
8.26284e-08
3.31461e-07
-0.000168182
4.18934e-06
8.29493e-08
-1.53427e-07
2.40226e-10
-0.000160322
8.46807e-05
-4.20836e-07
4.68027e-08
3.77922e-08
6.31451e-08
1.08498e-07
5.98541e-08
1.07004e-07
4.15026e-08
9.09585e-09
-8.63405e-05
6.85563e-07
8.24396e-08
2.59077e-07
-0.00014334
2.44886e-08
-1.75214e-09
8.44335e-05
6.52533e-08
1.11541e-08
6.19156e-08
-6.13848e-05
-1.16269e-09
2.6736e-08
-0.000135515
4.36667e-05
0.000112194
4.55472e-07
-0.000146693
2.94596e-08
4.52658e-07
-9.79875e-10
4.62674e-08
-4.28392e-09
0.000478831
-0.000164155
7.02788e-08
9.30153e-08
2.04304e-08
0.000243374
6.13747e-08
1.97882e-08
7.64167e-09
5.89153e-08
3.25798e-07
6.98886e-08
7.1981e-09
-1.09671e-06
-0.000108477
6.12347e-08
2.52414e-07
5.64532e-08
1.52839e-05
-0.000133391
3.08103e-08
-0.000193651
1.39384e-07
2.12094e-06
3.8556e-10
0.000680161
6.79492e-09
1.57707e-08
2.88731e-08
4.66123e-07
0.000296836
3.77646e-05
-1.82116e-06
0.000479276
9.27047e-08
-1.94301e-06
6.78494e-08
5.30886e-08
-0.000169213
2.83786e-09
4.89192e-09
5.72488e-08
4.21971e-08
-9.2652e-05
9.05306e-08
3.02318e-08
1.11133e-08
1.9652e-08
5.65849e-08
2.40912e-06
-8.41369e-07
-0.000126579
-2.12718e-07
3.26127e-08
2.40593e-08
3.7564e-05
5.7245e-09
-0.000327247
0.00022732
4.8343e-08
7.10433e-08
0.000258947
1.26269e-05
-2.80964e-09
5.0604e-07
1.93849e-08
7.13263e-08
2.67589e-08
4.03338e-08
5.11688e-08
1.07797e-11
5.57665e-08
-2.42477e-07
5.20006e-08
3.5694e-08
6.43846e-08
4.29067e-07
9.18985e-08
-8.51504e-09
9.48114e-08
4.14939e-08
4.89066e-08
7.04037e-08
6.44525e-06
1.9684e-07
0.00037697
2.39957e-08
6.574e-08
7.16313e-08
1.56591e-08
9.78219e-08
2.55716e-07
7.00656e-08
3.10374e-07
6.81799e-08
5.62477e-05
-2.61595e-09
1.73696e-08
-8.9545e-06
-3.58287e-06
2.85072e-08
5.56408e-08
8.72627e-06
4.37012e-08
4.66497e-08
-0.000174134
-5.60056e-05
-1.04938e-07
-1.46414e-07
3.74227e-08
5.04663e-08
0.000507397
5.89532e-08
8.61684e-08
3.45151e-06
6.29463e-08
-5.23605e-05
1.52808e-08
8.43898e-08
2.45432e-08
-8.3947e-07
-5.33111e-05
2.09501e-09
2.04037e-08
2.9378e-08
2.83152e-08
5.74993e-08
-8.12127e-06
4.98635e-08
5.96906e-09
-0.000249096
1.04795e-06
-1.35863e-06
-0.000182237
-2.82464e-06
7.35334e-08
-1.97594e-09
1.91648e-08
-1.79012e-06
3.02674e-08
-6.46923e-05
-0.000193424
8.02938e-09
-0.000165738
-2.56657e-06
5.06864e-08
-1.48936e-06
-1.95738e-07
8.45e-07
0.00030814
3.89112e-07
6.94091e-06
-0.000157808
-1.37902e-07
4.11018e-08
2.67748e-05
4.02422e-08
7.53438e-08
2.89792e-08
-0.000221829
6.54639e-08
4.51971e-08
9.83276e-08
1.56101e-07
2.2264e-08
-1.21393e-05
5.65118e-08
0.000656302
1.56366e-08
1.19548e-05
7.06021e-07
-4.05261e-07
1.65289e-08
6.88822e-08
6.02933e-08
-7.89801e-05
4.08138e-08
2.0539e-08
1.29131e-07
6.11801e-08
6.90253e-08
-6.56029e-07
-3.67792e-07
7.07834e-07
9.59033e-07
3.79764e-06
0.00158851
1.09357e-05
6.77273e-08
8.83184e-05
0.000854339
8.78311e-08
4.63594e-08
1.76986e-08
-0.000153889
3.28666e-09
8.35334e-08
-2.86528e-05
4.85381e-08
4.85877e-09
7.15051e-08
6.19806e-08
4.26127e-07
9.22019e-08
6.63464e-08
-0.000161221
0.000598069
1.01227e-07
0.000509764
-1.68604e-07
0.00349838
4.66317e-08
1.84103e-08
0.000979876
0.000613659
-3.80405e-07
1.14841e-05
2.90947e-08
5.33913e-09
5.26653e-08
6.24216e-08
1.89442e-08
1.91713e-09
3.65998e-07
2.57814e-08
-1.023e-07
5.62582e-08
1.68085e-08
7.13086e-08
-2.86925e-07
-1.99671e-07
-2.32351e-06
7.95988e-09
-1.73489e-07
5.2415e-08
0.000532294
2.79998e-08
3.3206e-07
1.40539e-08
-5.16894e-06
2.56922e-05
-7.01628e-07
2.4152e-08
6.85457e-07
3.56883e-08
2.62944e-08
-9.70767e-06
5.17039e-08
-1.05193e-09
2.12514e-08
1.50789e-08
-0.000159941
2.5799e-08
9.03275e-08
8.34278e-08
3.63609e-08
2.57449e-07
5.52892e-08
9.57862e-08
7.93342e-09
8.72957e-05
3.76251e-08
0.000252521
-0.000245707
5.28637e-08
-3.69348e-05
4.22952e-08
9.43771e-08
1.19218e-07
-5.75949e-06
7.88047e-08
4.39286e-08
2.26815e-08
0.518849
3.49148e-08
-1.12468e-06
5.82252e-08
1.29937e-07
7.44131e-08
9.4495e-08
-8.13246e-07
-1.35345e-09
2.17953e-09
3.09197e-08
7.80609e-08
2.28552e-08
2.39582e-08
-7.3374e-08
1.9704e-06
0.000107216
8.2297e-08
2.75819e-08
0.00204585
3.88316e-05
2.39273e-08
-3.08201e-07
-0.000134413
3.56418e-08
-0.000255601
9.15756e-09
-0.00129425
6.94052e-06
7.65006e-08
1.22292e-08
4.88509e-08
6.44204e-08
2.05599e-08
7.13802e-08
2.12851e-08
-4.60857e-07
2.4276e-08
-3.3103e-07
3.12576e-05
1.57055e-07
2.94819e-08
-3.75028e-05
3.31438e-08
-9.76197e-05
6.49297e-08
-5.0255e-07
3.86535e-08
3.36223e-05
-0.000190977
3.83108e-08
6.14164e-08
0.000934387
1.26288e-07
-2.75208e-05
6.10844e-08
6.2765e-08
-0.000242819
4.78216e-08
-8.11154e-08
3.81473e-05
1.17996e-08
4.06756e-08
2.55078e-08
9.38666e-08
9.88387e-08
0.000571517
-0.000196535
6.41075e-08
3.1285e-08
2.93631e-09
4.09459e-08
-4.49191e-07
7.23155e-05
1.30108e-08
-1.31049e-06
-0.000659763
6.53528e-06
0.000870335
4.4892e-08
-6.90407e-07
-6.11918e-08
9.46709e-09
2.44337e-08
-3.79747e-08
1.18262e-06
1.12504e-08
-4.70337e-08
-0.000369528
-8.44976e-07
-2.85359e-06
-5.37738e-08
1.78302e-08
-1.38805e-10
3.78874e-09
-0.000181784
7.27448e-08
4.97764e-08
6.17846e-08
2.11747e-08
3.35099e-09
1.47113e-08
1.27704e-08
3.53861e-08
2.5053e-08
-0.000317316
9.8215e-07
2.51785e-06
0.000201275
4.19347e-08
6.32496e-08
7.89775e-08
3.52309e-08
4.31588e-05
5.81576e-08
5.85268e-08
6.14471e-08
1.74686e-07
1.25476e-06
0.0013058
0.000123631
6.63849e-08
-8.45769e-05
9.28862e-08
3.86469e-08
3.54527e-07
2.27128e-09
6.76879e-08
3.40238e-06
0.00107641
6.23322e-08
0.00112863
6.40495e-08
7.51891e-08
5.86736e-08
-1.03633e-06
2.84032e-08
6.42786e-08
-0.000222013
5.57351e-08
2.81218e-05
0.000202497
1.37166e-08
6.85149e-07
6.13692e-08
8.40075e-05
1.21745e-07
6.09348e-09
0.000652533
7.17991e-08
1.8581e-07
1.48225e-09
-0.000184156
-1.37585e-07
2.32804e-06
8.09062e-08
-4.17647e-08
-1.90261e-05
7.08439e-08
-5.53981e-06
4.05986e-09
2.27243e-08
1.25728e-07
1.38028e-08
-8.8139e-05
4.78132e-08
2.3736e-07
4.84104e-08
-4.64313e-07
7.22449e-08
4.56905e-07
1.24098e-08
-0.000342624
1.25727e-07
-9.7444e-05
2.06314e-07
-5.3854e-08
6.44664e-08
1.88489e-08
6.59354e-09
-2.546e-07
0.000131817
6.14134e-08
6.32169e-08
1.13784e-06
2.83725e-08
0.00223152
4.04815e-08
0.000831819
3.64676e-05
2.36138e-08
4.10223e-08
4.14068e-08
6.45393e-09
1.07671e-07
4.74526e-08
1.73725e-07
-1.36241e-06
4.32964e-08
4.11879e-08
0.000801421
3.18071e-08
2.92009e-08
0.00178837
1.1424e-08
7.64346e-05
5.79675e-08
6.16654e-08
8.86444e-07
3.30807e-05
-0.000117065
0.000529304
-0.00122395
3.69407e-08
-6.31155e-07
-0.000164375
1.31752e-07
2.21731e-08
-2.31367e-09
6.44859e-08
0.000607619
-9.16627e-05
-3.57379e-06
8.44472e-08
-6.80042e-07
3.84311e-08
0.000113825
9.39943e-06
2.58931e-08
7.54732e-07
5.69307e-08
3.86606e-07
-4.45489e-07
2.40509e-08
9.6052e-08
0.000892268
4.85799e-09
-0.000207092
9.09057e-09
5.11903e-08
-3.4979e-06
-2.46889e-05
7.84763e-08
8.3829e-08
5.34782e-08
6.27859e-08
4.08632e-08
2.62457e-06
7.04689e-08
4.72512e-08
3.16161e-08
5.0477e-09
2.37916e-08
2.71656e-08
-9.31728e-05
2.09402e-08
-1.5663e-05
-7.78162e-05
-0.000195922
9.79767e-08
3.71754e-08
-0.00136218
2.85618e-08
0.000466936
-0.000192299
0.000247925
5.70395e-08
-0.000293915
7.06263e-05
9.88998e-08
3.62669e-08
-3.30856e-07
-0.000261628
0.000256732
7.0064e-08
3.14571e-08
-0.000113261
-0.00554151
0.0012973
4.67978e-08
-4.24726e-08
-5.56125e-07
1.04492e-08
-0.000181986
-1.87743e-05
0.0059961
-2.61337e-05
3.49544e-09
2.82522e-08
8.33063e-08
1.11633e-07
-0.000102102
2.40479e-08
5.23361e-08
1.32528e-10
-8.24412e-08
-0.000186292
4.93985e-09
0.000535131
-2.5752e-05
-0.000102222
-6.87055e-07
2.62229e-08
2.22535e-08
0.000851976
9.4359e-08
7.45579e-08
4.44353e-08
1.00142e-07
3.48051e-08
6.83337e-06
2.3282e-07
3.63159e-08
2.33538e-05
1.87923e-08
6.87183e-08
-2.99488e-05
2.2213e-07
-1.53178e-07
5.9266e-08
1.30213e-05
-0.000224381
1.88826e-09
0.00102561
-0.000743025
-0.000235502
-0.000152477
6.71851e-08
2.63753e-08
3.85797e-08
0.000129197
1.83107e-08
0.00050134
1.40394e-08
-1.00941e-05
-1.54874e-05
-1.59499e-09
8.30636e-08
3.91643e-08
8.99096e-09
-0.000274347
-0.00010472
6.48114e-09
-4.87535e-05
2.77889e-08
2.86552e-08
4.10059e-08
3.9434e-08
1.02218e-06
5.46536e-08
-1.90091e-07
-6.51373e-07
3.10739e-08
9.70435e-08
4.78231e-06
8.84232e-05
3.41053e-08
5.71196e-08
1.19838e-08
8.04573e-09
2.66682e-08
3.53794e-08
-0.000168916
-7.80773e-05
-0.000256524
9.152e-08
8.801e-08
5.21651e-08
-8.09421e-07
4.34334e-08
5.58982e-08
1.58588e-06
7.60681e-08
-9.21167e-06
7.80477e-08
-0.000185965
-7.0277e-05
8.99829e-09
-0.000145148
4.90749e-07
1.91626e-08
-4.36167e-06
5.1901e-08
-8.21235e-05
7.43084e-08
2.09037e-08
-1.41238e-08
9.5272e-08
-6.89379e-06
1.41918e-07
7.94969e-08
-2.47457e-07
0.000137623
-5.19749e-05
1.03242e-08
7.65241e-08
3.90386e-08
6.33337e-08
5.16192e-07
1.47083e-09
8.2608e-08
3.47589e-08
7.3044e-06
6.42425e-08
-0.000234473
8.55798e-08
-5.52389e-06
4.53282e-08
9.51962e-08
-0.000209153
-6.8373e-06
-8.47331e-06
-0.000583282
-3.39149e-07
4.49067e-08
1.33441e-08
-0.000143666
5.2237e-09
4.21126e-08
6.72763e-10
-1.96583e-07
1.24773e-05
-0.000195385
5.57235e-07
0.00100835
2.03376e-07
0.00025687
1.39799e-07
1.67981e-08
3.42981e-08
-1.01697e-05
-5.92664e-08
-0.000112233
-0.000111334
6.36272e-08
2.95681e-09
1.65061e-08
-0.000401443
-4.70788e-06
3.03557e-08
2.16089e-08
4.91334e-08
2.77053e-08
3.61891e-08
2.29853e-05
1.30697e-06
4.54631e-08
-5.33154e-06
-1.14278e-07
6.95123e-05
1.51731e-07
6.00652e-08
2.79619e-08
9.71823e-06
8.83199e-08
1.0366e-07
6.08525e-05
3.09997e-08
4.15539e-08
-2.71494e-06
8.47274e-07
9.93323e-09
-2.78892e-05
2.19372e-08
-5.21043e-06
6.25396e-09
1.15266e-09
4.73858e-08
-0.000228748
6.57369e-08
1.37249e-08
1.45968e-07
-0.000298121
3.23297e-08
-2.90438e-08
5.17641e-08
7.18025e-07
1.4269e-09
-0.000310292
3.71441e-08
4.96235e-08
1.88555e-08
3.78286e-08
7.02453e-09
2.40085e-07
2.29677e-08
3.42487e-08
1.45179e-08
-3.37666e-07
-2.76555e-09
3.56487e-08
4.51865e-08
-1.41252e-07
1.97156e-07
-6.96937e-10
9.26423e-07
-3.65565e-06
-2.15245e-07
-1.15695e-07
7.2466e-07
1.05903e-06
-0.000139635
-3.05661e-06
7.10921e-09
0.00133172
0.000922651
5.97401e-09
2.34004e-08
1.00291e-07
7.38465e-06
-5.41061e-08
5.99423e-08
-1.45515e-07
-6.10035e-05
1.0516e-07
-3.52051e-09
0.00107313
-0.000112967
-2.11283e-07
9.06698e-08
0.000123908
0.000307401
2.2457e-07
3.73221e-08
-1.32923e-05
-3.87951e-07
-5.18824e-09
-0.000239357
1.7719e-08
1.01117e-07
1.76381e-08
-3.26911e-07
2.88718e-08
0.000821706
-0.000169899
6.5137e-08
0.000759866
-3.2951e-07
-0.000180756
9.18592e-08
-1.43229e-06
-3.64487e-09
2.79179e-08
-0.000177874
0.000470653
-1.45334e-05
-0.000415155
5.90249e-08
5.67132e-08
1.20731e-07
-0.000276841
-0.000102903
7.52083e-09
6.32436e-08
-9.30869e-09
6.94512e-08
5.3397e-08
-0.000278538
0.000796018
5.85965e-08
4.11533e-08
7.01886e-08
-0.000122174
-1.22953e-08
7.78087e-08
6.72326e-08
4.68368e-08
-9.82334e-07
0.000672843
0.00052881
-1.17563e-06
2.45519e-08
1.07754e-05
1.39038e-07
3.2218e-07
-0.000163549
-0.000104711
2.24677e-08
1.11833e-10
2.62018e-08
-3.07105e-08
-1.37686e-09
-0.000226379
-3.60938e-05
7.37889e-08
1.18238e-07
2.18008e-09
4.81417e-08
-2.29699e-06
7.4364e-08
0.00110931
2.51845e-07
-2.04106e-07
6.83387e-08
9.29664e-09
-0.000188789
3.12894e-08
-5.57088e-06
-0.000114641
1.46807e-08
5.86553e-05
1.29092e-08
5.29822e-07
5.35588e-07
-9.99866e-05
-0.000182878
-1.70268e-07
3.33091e-08
3.33657e-07
7.29573e-08
-1.47077e-07
-3.11471e-09
0.00130761
5.69863e-08
-0.00127767
1.24417e-05
5.20621e-08
7.46348e-09
-1.07408e-07
2.80367e-08
5.21795e-09
2.33419e-06
1.10729e-07
3.68226e-08
2.00357e-08
-1.96405e-09
3.10711e-05
5.51797e-08
-1.84178e-07
1.7122e-08
4.16243e-08
-0.000203969
-0.000171713
-6.37469e-09
2.13831e-07
1.85979e-08
5.25828e-08
-5.82629e-08
5.50612e-08
4.1439e-08
1.64499e-08
0.000136146
1.54507e-08
0.001352
1.18897e-07
0.000998482
-5.65453e-07
4.37051e-08
-0.000252237
1.17284e-07
4.84068e-05
-6.8668e-08
-0.000229554
0.00509291
0.0034727
0.0017244
-3.17424e-05
1.56678e-07
5.72351e-08
-0.000261586
4.1125e-08
1.00489e-08
-0.000172082
-0.000314253
2.07608e-08
4.98289e-08
2.0076e-08
1.95543e-08
3.59242e-08
5.67148e-05
7.22059e-09
5.88674e-08
2.93811e-08
7.97588e-08
2.51485e-08
-2.13561e-07
8.19951e-08
0.00118795
2.78217e-08
2.96337e-07
1.47914e-08
3.64237e-08
-1.77662e-08
0.000451532
-1.57362e-07
5.96801e-08
6.18477e-07
-0.000195445
-5.8563e-05
5.39344e-08
0.00131639
1.89965e-08
1.76337e-05
4.27714e-09
4.8027e-08
-0.000171586
-1.01578e-07
-0.000125024
-0.000138899
-1.80909e-07
-1.84474e-05
4.67785e-08
8.03015e-08
-8.38883e-05
-3.41103e-07
4.71156e-08
-0.000198585
3.08231e-08
5.0435e-07
-5.96922e-08
9.71489e-09
6.23527e-08
-8.8836e-05
-0.000596551
-9.21766e-06
-1.68162e-05
1.84865e-08
8.3869e-08
-0.000150054
4.84026e-08
8.16369e-09
3.13382e-07
1.44265e-07
1.19096e-06
-5.94061e-05
-0.000107217
-5.19813e-05
-7.20234e-09
5.0839e-08
-3.34519e-05
9.30991e-08
3.32798e-08
1.0524e-08
-0.000109258
5.82957e-08
-3.75226e-07
-0.000129026
3.81795e-07
5.08696e-08
3.88685e-08
4.35119e-05
1.86834e-10
1.3196e-06
7.44814e-08
0.00041528
-0.000142873
1.98144e-07
-2.316e-06
5.87029e-08
-2.28943e-06
2.51409e-09
3.31429e-08
7.24486e-08
6.31021e-08
4.48416e-08
-2.31328e-09
6.9524e-09
-2.18197e-07
-1.44443e-09
7.07975e-08
-0.00028578
6.83561e-08
2.966e-08
4.99972e-08
4.33999e-09
-0.000151485
6.88167e-08
4.47188e-08
-9.39154e-05
-7.43978e-08
0.00158921
5.41572e-09
-0.000250165
-9.00467e-08
-0.000172547
5.80571e-08
3.06951e-07
7.09705e-08
4.20816e-08
1.59276e-07
-1.59099e-07
1.08972e-05
-1.10016e-05
-6.21418e-07
0.00100078
9.29885e-08
8.9543e-09
-1.21543e-07
-0.000943857
7.49506e-09
7.19576e-08
1.37463e-08
-6.96801e-10
-1.27003e-07
0.0006654
6.69342e-08
0.000111201
0.001341
1.26755e-06
2.33782e-08
0.000827
4.2341e-07
-7.78518e-11
1.50795e-08
2.75164e-09
-0.000647766
1.57982e-08
-0.000116343
6.84471e-08
3.78197e-08
-0.000152568
1.76352e-07
3.42302e-08
1.72583e-08
8.3289e-05
6.4197e-08
4.50786e-08
1.7421e-08
2.22769e-08
2.26016e-08
4.28884e-08
-9.67367e-07
-1.0317e-06
1.63798e-07
1.82715e-05
-0.000210936
-0.000140902
6.30224e-06
8.23135e-08
1.19606e-08
8.38587e-09
5.0086e-08
2.04592e-07
0.00143085
-0.000132521
9.41247e-08
1.42393e-08
0.000246286
-4.54249e-05
8.81698e-08
5.98669e-08
1.81931e-07
4.12193e-05
0.000515864
2.4398e-08
3.59135e-08
1.05979e-08
-0.000179492
1.57794e-07
-6.94533e-07
5.81689e-11
-1.2796e-07
-2.46578e-09
1.87184e-08
-7.70258e-05
3.27585e-09
4.52398e-08
2.98097e-08
-3.12333e-05
4.79224e-08
-0.000163932
2.52525e-08
-0.000150493
3.09235e-08
-4.97426e-07
8.29365e-08
4.21754e-08
-1.73958e-06
0.00112172
-1.34819e-06
0.000100882
-5.10637e-05
1.32684e-08
-2.98239e-05
-1.259e-06
1.30082e-07
-0.000473216
-0.00129445
4.65981e-07
1.33221e-09
-1.72109e-05
-0.000175709
5.51025e-08
1.22047e-07
-9.00846e-05
4.51042e-08
1.32895e-08
7.14082e-08
4.53747e-08
3.20146e-08
7.60252e-08
-4.35224e-06
-5.05697e-07
-4.10993e-09
1.23585e-07
1.41987e-08
0.000134739
6.87118e-08
-4.51988e-09
-1.07145e-07
8.35266e-08
4.05587e-08
3.57071e-08
4.41841e-08
3.76793e-05
4.60028e-08
-0.000168436
3.31842e-08
-0.00144914
-0.000107225
1.40521e-07
3.53942e-08
1.92354e-11
-2.30078e-05
9.45299e-08
4.22138e-08
-2.43568e-09
-2.3674e-07
0.000323651
2.03301e-08
-0.000166724
2.7503e-07
0.000114297
2.32151e-11
5.68233e-08
6.50361e-08
1.38267e-08
-4.82071e-05
-0.000155542
-5.81446e-06
5.13763e-08
1.07783e-07
1.1734e-07
-0.000103455
-5.3704e-05
-3.42291e-05
1.57546e-08
9.86504e-08
-2.05588e-05
5.4379e-08
5.29418e-08
6.50019e-06
-3.86304e-08
1.91865e-07
5.87451e-07
-1.58044e-07
1.03519e-07
2.3144e-08
5.71095e-07
2.01666e-08
4.78618e-08
-0.000115842
-6.01088e-07
7.90714e-08
6.12513e-05
4.8796e-08
2.14001e-08
1.13749e-06
-2.02918e-07
2.69324e-05
7.72063e-08
3.28615e-08
2.5943e-08
1.00103e-06
6.15934e-08
-6.05819e-06
-0.000302042
-8.7449e-05
0.00014913
-6.07206e-05
-1.14677e-07
-3.97946e-05
1.16534e-06
1.13571e-08
-4.04254e-09
3.63168e-07
5.45188e-08
-5.8001e-08
1.39143e-05
-0.000246564
7.0145e-05
1.57212e-07
6.56103e-09
1.79751e-07
5.43986e-08
-4.49159e-05
1.68952e-08
6.30122e-08
2.61629e-08
4.02224e-08
5.04647e-08
1.60847e-07
-0.000253402
9.14791e-08
3.39321e-08
9.12859e-08
4.87097e-05
3.13877e-08
-0.000116172
0.00150482
-5.22834e-06
1.07854e-08
4.88409e-08
-1.98147e-05
-3.02137e-06
8.56769e-09
1.70779e-07
7.54117e-09
-1.29327e-07
3.05259e-07
2.20205e-07
3.56357e-08
-0.000164253
6.81857e-08
6.43244e-08
-1.12409e-05
0.000200072
2.36995e-08
7.24537e-08
2.19539e-08
3.91679e-05
3.32972e-08
8.97745e-08
4.18673e-08
8.29041e-09
1.64746e-05
-2.97933e-05
-4.16171e-05
-1.59713e-07
-3.79454e-05
0.00376078
9.60618e-08
3.08498e-08
8.48175e-08
1.54489e-06
4.76508e-08
3.54291e-08
2.13683e-08
4.51942e-08
6.7611e-08
-1.89026e-05
7.30031e-08
5.38583e-06
8.10783e-08
-4.09573e-07
1.5177e-07
1.90688e-06
3.60078e-08
2.86479e-08
2.8971e-08
2.60355e-07
-0.000456839
4.24939e-08
-0.000116471
1.59259e-08
-2.65058e-08
1.44167e-07
3.08512e-08
2.53027e-06
-9.29207e-05
5.04029e-08
6.21867e-08
1.42763e-06
1.12261e-05
1.49924e-08
-0.000187064
3.04144e-08
0.000857103
3.22823e-08
9.25776e-08
-0.000426116
8.74818e-08
0.000334627
1.59617e-08
4.69543e-08
2.07867e-08
-5.89564e-07
-9.77818e-05
9.06679e-08
-4.26717e-06
-1.23042e-06
5.11176e-08
6.34295e-08
1.1482e-07
-2.51334e-06
-7.48507e-05
-1.64021e-08
7.73978e-08
2.26398e-08
3.82056e-08
3.26802e-09
2.74397e-08
4.55936e-08
2.95073e-06
1.70433e-09
-1.13487e-07
7.78876e-07
1.78446e-08
1.11899e-07
0.00184045
1.44358e-07
3.67825e-08
-1.53518e-07
2.69933e-08
-0.000357643
3.25395e-08
-0.000296075
2.25065e-08
3.07586e-08
1.08331e-08
1.15064e-07
1.8764e-08
-8.08739e-05
-1.03217e-07
6.51418e-08
-3.36982e-05
3.52296e-08
-4.55496e-07
3.54131e-07
-2.25991e-07
4.35385e-08
1.33153e-08
9.9116e-08
7.93569e-07
-5.1523e-08
-5.4954e-09
0.000946873
-0.000136407
0.00141217
5.80204e-09
4.56975e-06
-2.46924e-05
-0.000125041
1.71754e-08
3.39409e-08
6.74532e-08
0.000180868
4.10478e-08
3.44422e-08
-2.6974e-06
6.45459e-05
-0.00065581
7.66316e-07
1.26351e-06
0.000194647
-2.4256e-05
8.10819e-08
0.000888061
3.02484e-06
4.99981e-08
4.3846e-08
6.02609e-08
-0.000289224
-2.19446e-09
-0.000576032
4.68546e-08
0.000650863
6.08198e-08
0.000194274
-8.2499e-05
1.19415e-08
3.52246e-08
-6.47731e-05
-3.36606e-05
2.55817e-08
3.40765e-08
4.2194e-08