/*--------------------------------*- C++ -*----------------------------------*\
| =========                 |                                                 |
| \\      /  F ield         | OpenFOAM: The Open Source CFD Toolbox           |
|  \\    /   O peration     | Version:  v2012                                 |
|   \\  /    A nd           | Website:  www.openfoam.com                      |
|    \\/     M anipulation  |                                                 |
\*---------------------------------------------------------------------------*/
FoamFile
{
    version     2.0;
    format      ascii;
    class       surfaceScalarField;
    location    "550";
    object      meshPhiCN_0;
}
// * * * * * * * * * * * * * * * * * * * * * * * * * * * * * * * * * * * * * //

dimensions      [0 3 -1 0 0 0 0];
oriented        oriented;


internalField   nonuniform List<scalar> 
20673
(
0.000628586
0.000396691
-0.00102482
-0.000683025
-0.000845103
0.00153496
0.000509542
-0.000160241
-0.000349298
0.00156976
0.000142558
-0.00170758
-0.00188335
0.0019415
-4.93878e-05
-0.000434753
0.000449868
-1.51139e-05
0.000354286
0.000131683
-0.000485966
-0.000428396
0.000344248
8.41498e-05
-0.000409057
7.33825e-05
0.000335676
-0.000804575
0.000167412
0.000637347
-0.00057913
-2.6222e-05
0.000605392
-0.000808552
0.000846707
-3.79388e-05
0.00114958
0.00023574
-0.000373211
0.000137471
-0.000883029
0.00149214
-0.000607936
0.00061173
0.000770895
-0.00138083
0.00188363
-0.000610901
-0.0012672
-0.000858285
3.98914e-05
0.000818656
0.000178501
-0.000986805
0.00114422
-0.00116401
5.65016e-05
0.000319884
-8.47743e-06
-0.000306444
-3.77095e-05
0.000391997
-7.32126e-05
0.00139225
-0.00129559
-0.000210934
-0.000217459
-0.00206588
0.00193923
0.000138027
-0.000488493
0.000289547
0.000198948
-0.000355567
-0.000455915
0.000811498
0.000132817
-0.000563776
0.000430983
0.00025326
-0.000497254
0.000244
5.36498e-05
-0.000666499
0.00061295
0.000482474
0.000500414
-0.000982477
0.000691595
0.00051403
-0.00120445
-0.000771922
-0.000151039
0.000923058
-0.000297586
0.00122789
-0.000930303
0.000810312
0.00112141
-0.00192574
-0.000311519
-0.00013401
0.00044554
0.00120449
-0.00125459
-0.000392838
0.000309885
8.29535e-05
-0.00125288
0.00157303
-0.000296004
0.000313897
-1.78932e-05
0.000174123
0.000173893
-0.000226805
1.39781e-05
0.000105033
-0.000115505
0.00134982
0.000283566
-0.00155436
0.000686424
-0.000635544
-5.08614e-05
-0.0013961
0.00184143
-0.00043622
-0.00123094
0.00115473
7.63038e-05
0.000178728
-0.0010367
0.000936129
-0.00053673
-0.000399218
0.000369676
-0.000324943
-4.47335e-05
-2.44571e-05
-0.000207546
0.000313365
-0.00148211
0.000615878
0.000867695
-0.00119333
0.00176192
-0.000567482
0.000403115
-3.3439e-05
-0.00115956
0.000861996
0.00146075
0.000428296
-0.000778415
-0.000456799
0.00123679
0.0001589
-0.000737978
0.001825
0.000433972
-0.00224985
-0.00159346
0.00130908
0.00028699
0.000284784
-0.00167185
-0.000473042
0.000428615
4.44312e-05
-0.00189507
0.00121974
-9.11077e-05
0.00129489
-0.00011542
-0.000489653
5.49011e-05
-0.000133182
-0.00030744
0.000440626
0.000113042
-0.00185993
-0.00178356
-0.000192294
-0.000451332
-8.13045e-05
0.000532671
-0.000810616
-0.00015519
0.000966329
-1.99889e-05
-0.001856
-0.000362133
-4.69212e-05
0.000391691
-0.000264237
-0.000127453
-0.00212575
7.2827e-05
0.000339014
-1.12348e-05
-0.00032778
0.000940789
-0.000493027
-0.000447568
0.000283023
-0.000316455
3.34326e-05
-0.001888
0.0016525
0.000241745
0.00037528
0.000123743
-0.000499021
2.01949e-05
0.00067306
-0.000688089
0.000925626
-0.000189494
-0.000720304
-0.00155949
0.000441285
-0.000451292
1.00076e-05
-0.000267188
-0.00012565
-0.000438898
0.000405762
3.31373e-05
-0.00128249
-0.000599434
0.00102987
-0.000971525
-3.6261e-05
0.000215428
-0.000348606
-0.000567517
-0.000912817
7.4553e-05
0.00134
-0.000396854
0.000304411
9.2443e-05
0.000302485
-0.000962453
0.000660109
0.0022316
-0.000734174
-0.00147964
-0.000681339
0.00159143
-0.000907884
-0.000169389
0.00038482
-0.000364892
-0.00010688
0.000471772
-0.000655119
7.7702e-05
0.000577479
-0.000449981
0.000899891
-0.000449715
-0.000705225
0.000655345
4.99372e-05
0.000379588
0.000325471
-0.000705046
-0.000935629
-0.000340265
0.00134387
0.000581068
-0.00103438
0.000453308
0.000502015
0.00018443
-0.000745617
0.0015231
-0.000773619
0.0011283
-0.00181306
0.00071938
0.000208792
0.000238383
-0.000447172
-0.000583829
0.000520687
6.31544e-05
0.000632481
0.000303791
-0.00199258
0.00138768
-0.00050699
-0.000397991
0.000905325
-0.000414019
0.000366453
4.7567e-05
-0.000421347
0.000125343
-0.000707562
2.97247e-05
0.000677956
-0.000155687
0.000364481
0.000280195
-0.00126557
0.000985531
0.000395123
-0.000254483
-0.00014064
-0.00151736
-0.000427832
0.00196504
3.14512e-05
0.000343205
-0.000374656
0.000287579
6.44435e-05
-0.000352023
0.001231
-0.000267652
-0.000963306
-0.000292766
0.000309789
0.000187958
-0.000639254
0.0003579
-0.000227871
-0.000130029
0.000747612
-0.000614767
-0.00015268
0.000324446
-8.96841e-05
0.000954825
-0.0016337
-0.00172652
0.00138575
0.000349632
0.000110898
-0.000168134
0.000921731
0.000233773
-0.00103064
8.49757e-05
-0.000359312
6.955e-05
0.000289763
0.00151179
-0.00123137
0.00170123
0.000148945
0.000323596
-1.23007e-07
2.64846e-05
-0.000427806
0.000401334
-0.000430075
0.000219144
0.000983609
-0.000354575
-0.000155392
0.000534986
-0.00188158
1.95179e-05
0.000989351
0.000241726
0.000431707
0.00012648
-0.000558168
-0.000517289
0.00193318
-0.00138921
-0.00171297
-4.8194e-05
0.0017627
2.141e-06
0.000529345
-0.000531471
-0.00175123
-3.29967e-05
-0.000342794
0.000511917
-0.000169118
0.000332186
-0.000524229
0.00019205
-0.00186854
0.000676411
-0.000442231
0.00183015
-0.00135854
-0.000694644
-0.000495103
0.00119097
-0.000826799
0.000849406
-2.23542e-05
0.000191001
0.000204121
-0.000992231
0.000388467
0.000603895
0.000958107
-0.000962302
4.48659e-06
0.000549316
0.000786996
-0.00133474
-0.000473405
0.00010078
0.000372626
0.00036009
-0.00117007
0.000585399
-0.000205976
-0.000379411
0.00034532
-6.22973e-05
-0.000391069
0.000417565
-0.00117625
-0.000148188
0.00132519
0.000635314
-0.000928112
0.000292775
0.000673345
-0.000747617
7.95299e-05
9.85983e-05
-0.000753644
0.000167414
-0.000874823
-0.000694783
-1.03854e-05
0.000727039
-0.00146897
-0.000461236
-0.000366187
0.000827641
-0.00216044
0.00182931
0.000346469
0.000968164
-0.000387102
0.000489782
0.000490999
-0.000980418
-7.874e-05
0.000322693
-0.000243953
-0.000500482
0.000769822
-0.000269233
-0.00189026
0.00108127
0.000813228
0.000231843
0.000293579
-0.000525416
-0.000907795
0.000789698
0.000118306
2.92149e-05
-0.000388527
0.000354654
-0.000323202
0.000142884
-0.000485673
-0.00189892
0.000149145
0.00176497
0.000833152
-0.000530547
0.00109038
-0.000607463
0.00139157
-0.00188242
0.00117487
-0.000124897
-4.33922e-05
0.000981344
-0.000937431
-0.000303041
-0.000185449
-0.000607525
0.00025403
0.000353524
-6.67043e-05
-0.000406699
-0.000639616
-0.000322559
0.000962671
-0.000489775
-2.61515e-05
0.000515973
-0.000665508
0.000386653
0.00027887
-0.000342656
-9.62405e-05
-7.37398e-05
-0.000436659
0.000510426
0.000412698
-0.00170477
0.00131611
0.000583079
-0.000584929
1.85247e-06
0.000420214
-0.000775756
6.63959e-05
8.73576e-05
0.00110177
0.00114464
0.00052981
-6.71462e-05
-0.000462642
-9.55343e-05
-0.000269731
0.000365271
-0.00153218
0.00103693
0.00049723
0.000199075
-0.000162083
0.000757472
-0.00101449
0.000257318
0.000131624
-0.000958145
0.000126423
0.000265267
0.000344281
0.00015904
-0.000503308
-0.000996582
0.00181194
0.00187975
-4.69775e-05
-0.000959429
0.000509655
0.000530752
-0.000327478
-0.000203271
0.000163064
-0.00187344
0.000262182
0.000190749
-0.000452929
0.000305452
-0.000411987
0.000106535
-0.000756514
0.000266804
-0.000692456
0.00185352
0.000333381
-0.000519872
0.000186494
-0.000509665
0.000954985
-0.000445048
0.000356113
-0.000375855
1.97416e-05
-2.68213e-05
-0.0013854
0.00142673
-0.000386256
-8.67796e-05
0.000410621
-0.00229189
0.000750585
-0.000407972
-0.000342509
0.000411062
-0.000138509
-0.000366284
0.000338423
2.78613e-05
0.000142555
0.000257323
-0.000399876
0.00139674
-0.000783439
0.0001096
0.000436343
-0.000545933
0.00126819
-0.000717506
0.00140329
-0.00205903
-0.000464972
0.000153465
0.000268737
-0.000769108
-0.000985685
0.00034659
-0.0001114
0.000446139
-0.000334736
9.90216e-06
0.00029555
0.000346975
0.000565442
-0.000819492
-0.000433352
0.00112603
-0.000125312
-0.000271541
-0.000329307
0.00036557
-3.62624e-05
0.000674131
1.30984e-05
-0.0010567
-0.000690528
0.00178823
5.17332e-05
-0.000326416
-0.000182706
-0.000398518
0.000581273
-4.86787e-05
-2.23119e-07
5.67195e-05
0.00048461
0.000158072
-0.000642662
0.000408061
0.000353807
-0.000761753
-0.000123252
0.000758547
-0.000802748
0.00101391
-0.000210579
-4.92044e-05
-0.000686401
0.000503764
-0.00100972
0.000506247
-0.000211412
-0.000115253
0.000326665
-0.0015188
-0.000271634
0.00180356
0.000814369
-0.000154364
-0.000659908
0.000601059
-0.000582565
-1.84906e-05
-0.00148056
-0.000236201
-0.0015485
0.00199045
-0.000961475
0.000579598
0.000382059
-0.000427934
0.000264741
0.000163193
-0.000364687
-0.000627408
-0.00078867
0.000745691
-0.00127671
0.000394784
0.000101602
-9.72723e-05
2.28939e-06
0.000244093
0.000113808
0.000549794
-0.000369539
-0.00018025
-0.000635337
0.000134721
0.000500634
-0.000393781
0.00183028
0.000405143
-0.000269469
-0.000135674
-0.00027677
-9.27733e-05
0.000369543
0.000460709
0.0001247
-1.26353e-05
0.000387917
0.000364681
0.000576263
0.000887952
-0.00027734
1.60034e-05
0.000373119
0.000593353
-0.000931097
0.000338016
-0.000413291
0.000222184
0.000191108
-0.000553433
-0.000119181
0.000672684
-0.00110845
-0.000482306
-0.000139852
0.000484145
0.000609949
-0.00105527
-0.000806864
0.000550431
0.000381856
-0.000288917
-0.000124586
0.00041351
0.00111616
-0.00112148
4.10115e-05
-0.000209836
0.000441684
-0.000824634
-0.000705152
-3.91409e-05
3.67818e-06
-0.00147044
0.000783409
0.000688063
0.000717388
0.000240998
-0.000487112
-0.000441045
0.000466223
1.84038e-05
-0.00123519
0.000456482
0.000779282
-0.000207489
0.00164613
-0.00142777
-0.000393518
-0.000200054
0.00059359
-0.000396106
0.00028471
0.000267827
0.00028197
0.00157664
-0.00158686
0.000300644
-0.000588955
0.00028832
0.00125436
-0.00145514
0.000198801
-0.00176945
0.00157339
0.000671817
-0.00216793
-9.40564e-05
0.000426247
0.000414186
-0.000170053
-0.000176941
0.000438148
0.000312523
0.000371773
-0.00117385
-0.00155036
-0.000593063
0.000845189
-8.74652e-05
0.00111307
-0.00179906
0.000689615
-1.00767e-05
0.000199509
-0.000189432
-0.000667328
-0.000240236
-0.000505209
-0.000457077
-0.00206535
0.00181148
0.000273961
-0.00205285
0.000512842
-0.000450113
0.00022555
0.000224564
9.39177e-05
0.00023769
-0.000331607
0.00136466
-0.00177556
-0.000272025
3.58061e-05
0.000339566
0.000213877
-0.000502786
-0.00161176
0.00234055
-0.000711828
-0.00040106
0.000136823
-0.00224423
0.000202862
-4.90063e-05
-0.000317277
-0.000832424
-0.000849056
0.00168908
0.000191334
-0.000608955
0.000417644
-0.000152698
-0.000950144
0.00110374
-0.000298279
0.000341294
-4.30153e-05
-0.00157323
0.000397941
-0.000681598
0.000290542
5.40084e-05
0.00032951
-0.000383515
-0.000366753
-0.00110254
-0.000558989
0.000376326
-0.000478826
3.34577e-05
0.000445379
-0.0019076
0.000861587
0.00105077
-0.000414495
0.000306722
0.000107773
0.000181307
0.000401775
-0.000293117
1.63468e-05
0.000587187
0.000729532
-0.00131643
-0.000263514
0.000326848
-6.33333e-05
-0.000897018
0.00110977
-0.00021168
0.000431718
-0.000112101
-0.000319617
0.000518549
-0.000464537
-0.000802218
0.000318697
0.000483565
-0.000189165
-0.000613004
0.00012884
0.000380705
6.02328e-05
0.00077613
-0.000829885
-0.000506265
0.000996382
-0.000310481
-0.000103538
-0.00185161
0.000381425
0.00147396
0.000944434
-0.00159259
0.000650608
-0.000192798
-0.000180413
0.000530836
-1.00808e-06
-0.0016205
0.00214913
-0.000522769
-0.000287106
-0.000378384
0.000430831
-0.000177567
-0.000154213
0.00126609
-0.00103681
-7.17498e-05
0.000359329
-0.000102565
0.000508954
-0.000406373
0.00116848
-1.54353e-05
-0.000604949
-0.00129285
0.00193235
0.00127567
-2.834e-05
0.001302
-0.00171681
-0.000579409
0.00018591
0.000327137
0.000136291
-0.000463423
-0.000386942
0.000520036
-0.000133095
-0.000131391
-0.000318722
-0.00153606
0.00225573
-0.00070623
0.00066205
0.000152393
-0.000172717
-0.000150074
0.000322792
-0.00108615
0.000122337
0.000964258
0.000393866
-0.000160767
-0.000252524
0.000380941
-0.00152726
0.00067136
0.000919609
-6.70174e-05
-0.0005683
-0.00170159
0.000295082
0.00144055
-0.000498268
0.000112017
0.00162289
-0.00132934
-0.000331907
3.36284e-05
0.000768863
-0.000360695
0.00150508
-0.00159045
8.8841e-05
0.000679556
0.00019378
-0.000865179
-0.000498645
-0.000460545
0.00055596
0.000277283
-0.000586411
-0.000128434
0.000714974
-8.57716e-05
0.000301716
-0.000215944
0.000189379
0.00024234
3.84874e-05
0.000317626
0.000936247
-0.000432246
-0.000791855
-1.25558e-05
-0.00136808
0.000346311
-9.22817e-05
-0.000237024
0.000300785
-0.000447429
0.000146646
0.00246312
-0.000940432
-0.00151437
-0.000402977
-0.000278602
0.00206585
-0.000237945
-0.00181797
0.000623874
-0.000430381
-0.000193467
-0.00163644
0.000811151
-0.000678132
0.000745347
0.000473265
-0.00119016
0.000719246
0.000252676
-0.000404671
0.000151997
0.00134394
-0.000867933
-0.000215065
-0.000212868
-0.000335862
0.000389813
-5.39508e-05
-0.000451299
2.99501e-05
0.000421374
-0.000554135
0.000409193
0.000144944
-0.00120417
-0.000698835
-0.000108477
0.000441861
-0.000224624
0.000454142
-0.00172519
0.0012991
-5.29744e-05
1.20348e-05
-0.00185815
-0.00201621
0.000172054
0.00185102
0.000539418
-0.000485686
0.000123935
-8.84219e-06
-0.00172033
-0.00049965
0.00222916
6.13681e-05
-0.00173504
-0.000435339
-0.000144047
0.000497271
-0.000472302
0.00012276
-0.000386274
-0.000498219
0.000284514
0.000213708
0.000369911
-0.000343659
-2.6251e-05
0.000414361
-0.000488076
-0.000418654
0.000301786
0.000116868
0.000333873
-0.000343393
9.52069e-06
-2.35144e-05
-0.00106214
0.000423208
-0.00194436
0.000502091
-0.000679745
0.000177705
-9.74416e-05
-0.00115301
-0.000583679
-0.00054744
0.00113205
0.00158905
-0.00115545
0.000470026
0.000143217
0.000387538
-0.000238141
-0.000260074
-0.000676106
-0.000650505
0.00132799
-0.000494104
0.000680486
-0.000186299
-0.000943329
0.00153079
0.000496784
0.00107903
-0.000900134
0.00031388
-0.00157326
5.45445e-05
0.00152203
-0.000496736
-4.77026e-06
0.000501523
-0.00148261
-0.000503729
0.000214176
0.000251881
-0.000282968
-0.000118091
-0.000321754
0.000350969
3.60259e-05
-0.00035778
0.00063408
-0.000590639
-4.33677e-05
5.64132e-05
0.000313497
-0.000254227
-0.000160268
-0.000390615
0.000166464
0.000224151
0.000261128
-0.000391225
0.000130097
-0.000996727
0.000875746
0.00021625
0.000471712
-0.000895285
0.000423797
6.9946e-05
-0.00163995
-0.000441314
-0.00145867
0.00190605
-9.73098e-05
0.000491861
-0.000394536
0.000772314
0.000337841
0.000104684
-0.0003055
-0.000960879
0.000593699
0.000367393
0.00116825
-0.00057183
-0.000595871
-0.000100645
-0.000239997
0.000340642
-0.00101313
0.0014892
0.00053227
-0.00073082
0.000198625
-0.000389388
0.00031966
6.97286e-05
-0.000403207
0.000546225
-0.000143002
0.000355608
-0.000163105
-0.000192502
0.00049376
0.0011841
0.00128624
-6.44621e-05
0.000263409
-0.000583238
0.000943838
-0.000275389
-0.00117797
0.000325325
-0.000490082
0.00016476
5.56584e-05
-0.000442602
-0.000601392
-0.000633154
-0.000406756
0.000125875
0.000280882
-0.00142619
0.000649434
-0.000532674
0.000631334
-0.000141129
-0.000249486
-0.000274293
-0.000249932
-0.000753591
0.000302341
0.000532064
-0.00010034
-0.000138851
0.000671183
0.000780724
0.000195278
-0.000975764
-0.000648278
0.000593561
5.47664e-05
-0.000608159
-0.000313108
0.000921686
-0.000497157
-0.00010914
0.00060634
-4.83688e-05
0.000506566
-0.00092816
0.000421942
-0.000503392
0.000736531
-0.00023304
0.000251887
0.000136761
-0.000257757
-0.000206191
0.000482682
-0.000276479
0.000954813
-0.00145432
0.000501006
0.00098406
0.00118192
-0.00213722
0.000496549
-0.00107921
-7.16879e-05
-0.00159995
0.00167717
-0.000356981
0.000256336
-0.000371052
0.000215367
-0.00209917
0.000504688
-0.000266666
-0.000411988
0.000340205
-0.000497961
0.000157759
2.85339e-05
0.000305339
5.54631e-06
-8.63457e-05
0.000191476
0.000164131
-0.000395499
-0.000927569
0.00132773
9.92465e-05
0.000453326
-0.000552536
0.0024607
-0.00108188
-0.00136244
6.23693e-05
-0.000306354
0.000243985
-0.000574741
0.000113786
0.000460967
-0.00127357
0.000580125
0.000298742
-0.00144272
0.00114884
-0.000250344
-0.00016831
-0.000164016
-0.000443474
-0.000180363
-0.000146991
0.000327354
0.000125187
5.12574e-06
-0.000387415
0.000148453
0.000238962
0.000344577
0.000239473
-0.00049856
0.000259095
-0.000786726
0.00179472
0.000358156
4.76062e-05
0.000208049
-0.000458471
0.000250425
-0.00103795
7.89604e-05
0.000959433
-0.00179335
0.00122017
-0.00127786
-0.000420605
0.00170312
-0.000486945
0.000524542
9.93533e-05
0.000508863
-4.52363e-05
0.000682197
-0.00193872
0.000216464
0.000428462
-0.000578331
-0.000413795
0.000698341
0.000343844
6.12989e-05
-0.000478794
0.000381499
-0.00106098
0.000245532
0.000398605
-0.000644107
3.97432e-07
-0.000179938
-0.00119862
0.000314674
-0.00075606
0.000262041
3.20796e-05
-0.000405882
0.000373804
0.000683463
0.000386479
-0.00106929
0.00176759
7.48569e-05
-0.000228698
-0.00177746
0.00165202
-0.00172813
7.54621e-05
0.000453357
-0.000409855
6.72e-05
0.000882148
-0.000964996
0.000102897
-0.00163508
0.00164773
-1.02943e-05
-0.000563734
-0.00106512
0.000457432
-0.00085217
0.000700135
0.00241973
-0.00122834
0.00145849
-0.000423204
-0.00103235
-0.00102964
-0.000128445
0.00115938
-0.000819622
0.000316342
-0.000466941
-1.18706e-05
0.000499586
-0.000174261
0.000676396
-5.07154e-05
0.00055418
-0.000503384
0.00049114
-0.000332088
-0.00086712
0.000362054
-0.000428315
-0.00137144
0.00181478
0.000194629
-0.000406041
5.52549e-05
-0.000366204
0.00131267
-0.00112217
0.00141308
-0.000287836
0.000262693
-0.000468872
-0.000747771
0.00064202
0.000105836
-0.000437676
0.000242052
0.0002757
-0.000496425
9.32324e-05
-0.00054547
-3.95711e-05
0.000585115
-0.000240304
0.000333385
-9.30805e-05
-0.000517177
0.000466534
-0.001157
0.00044608
0.000711155
0.000756846
0.000411886
-0.000568413
0.00125533
-5.22051e-05
0.000320035
-0.000305071
-0.000215719
-0.000164981
0.000380701
-0.00187319
0.000398012
0.00100668
0.000154335
-0.00116006
-0.00013564
0.000534271
-0.000399027
0.000238261
-0.000206231
-0.000120616
0.000430922
0.000469136
0.000598052
3.60833e-05
0.00145561
-0.000682982
0.000793279
0.000539827
-0.00133095
0.00145983
0.000966529
0.00073699
-0.000782052
4.51566e-05
0.000504171
-0.0017294
0.000452604
-0.00096199
0.000445674
0.000206759
-0.000422477
-0.000329608
0.000149245
0.00164105
-0.000840772
-0.000797605
-0.00070684
0.000174231
3.21182e-05
-0.000606845
-0.0013773
0.000969724
0.000408507
0.000705506
-0.00197189
0.00126789
0.000397612
-0.000173016
-0.000224596
0.000267892
0.000232471
-0.000500358
-0.000147185
-0.000281832
0.00042902
-0.000657184
0.000578473
7.87445e-05
-7.14716e-05
0.00109036
0.000235627
-0.000307377
-0.000979756
-0.000138567
-0.000194266
-0.000830673
-0.000238995
0.0010705
0.000912282
-0.000454239
-0.000457898
0.000297721
-0.00106952
-0.000806024
0.000139636
0.000269395
-0.000476793
0.0002074
6.10841e-05
-0.000709309
0.00119682
-0.00062983
-0.000566249
-0.00038794
0.000335738
-0.000212265
-0.00115742
0.00137287
-8.93877e-05
0.000350516
0.000655526
2.75169e-05
0.00103755
-0.000139747
-0.000167583
0.000468234
-0.00014999
0.000417885
-0.000435295
0.000495421
-6.01252e-05
-0.00130668
0.00109745
-0.00102576
-0.000859454
-4.75608e-05
-0.00158469
0.000972695
-0.000362296
1.40714e-05
-0.000316578
-0.000378142
-0.000517396
0.00131273
-0.000384759
-0.000368765
0.000456581
0.00141399
0.00105975
-0.000263402
0.00037301
0.000433028
-0.000749528
-0.000448112
-0.000198498
0.000646629
0.00226453
-0.000919166
-0.00132895
0.000504307
-0.000588533
8.42702e-05
0.0015862
-2.38467e-05
-0.000312014
0.000802876
-0.000635272
-5.3079e-05
-0.000694599
6.88279e-05
0.000938684
0.000817835
-2.05718e-05
-0.000716342
0.00167704
-0.00209483
0.000447802
0.00174556
-0.000351387
0.000706422
-0.000634994
-7.13782e-05
-0.000201789
-0.00102908
-0.000661943
0.000143437
0.000518533
0.000219097
-0.000304868
0.000386139
-0.000847157
-0.00105719
0.000972952
-0.000736924
0.000257658
0.000479314
-4.82441e-05
-0.000387051
-0.000184157
-0.000326444
0.000510614
-0.00195494
0.000449854
-0.00078004
-0.000354109
0.00113441
0.00191614
-0.00119874
-0.00121572
0.00112701
8.99303e-05
0.0013004
1.05317e-05
0.000377464
-0.000169414
0.000692332
-1.07346e-05
0.000340815
0.00085424
-0.0012927
0.000439769
-0.000579026
0.000552841
0.000134096
-0.000718009
0.000584033
0.000262099
-0.000373641
0.000111542
-0.000662278
0.000667105
-4.73894e-06
-0.00187554
0.000603072
0.00023679
0.000123178
-0.000359968
0.000163424
-0.000369655
-0.000461056
-0.00144369
0.00191346
0.000522577
-0.00164156
0.000302946
0.000260758
-0.000563693
-0.000487761
-0.000169382
0.000158292
-0.000711655
0.000135746
-0.000119949
6.52032e-06
0.00129915
-0.000995543
-0.000108833
-0.000500093
0.000194455
0.00131326
0.000757834
-0.000886111
-0.000448432
-0.000512812
-0.000155249
0.00185935
0.000719353
0.00028353
-0.00100259
0.000285901
3.36033e-06
0.00155274
-0.00154287
-0.00143504
0.00185897
-0.000417466
0.000199985
0.000535009
-0.000664786
-0.000256294
0.000350212
0.000355768
-2.95801e-05
0.000729869
-0.00140447
-0.000318902
0.000240162
-0.00151447
0.000735304
0.000781347
0.000347202
-0.000497187
0.00143565
-0.00064707
0.000594373
-0.000745334
0.000690688
0.000497504
-0.000911368
0.000414072
0.001954
-0.00126369
0.000592338
-0.000994452
0.000402355
0.00064127
-5.83424e-05
-0.000484366
0.000333882
0.000417637
-0.000751427
0.000921037
-0.00131199
-5.74407e-05
-0.000331945
-0.000357197
0.000175581
0.000181617
0.00031315
-0.000281069
-6.61415e-05
0.000305534
0.000978487
-0.000478089
-0.00038887
-0.000612724
-0.000259784
0.00087283
0.000354133
-0.000141256
-0.000212877
-0.000186103
-0.000170536
0.00035664
-0.000761988
0.000802134
-0.00154914
0.00219816
-0.000640038
0.000144915
-0.00058023
0.000428585
6.68365e-05
5.70638e-05
-0.000505161
-0.000518868
-0.00014304
-0.00048413
0.000929504
-0.000445075
0.000324623
-0.000459756
0.000135134
-0.000162551
-0.000703534
0.000866511
-0.000673746
-0.000380928
-0.000663548
0.000314023
0.000349571
0.000457181
-0.000524305
0.000193726
-0.000955419
-0.000325843
-0.000122904
0.000448747
0.000709947
0.000309708
-0.00101933
0.000706869
-0.00162984
0.000927113
0.000587443
0.000324964
-0.00117184
0.000805975
0.000596532
0.00137689
-0.00195191
0.000161546
-0.00137587
-0.000941723
0.000435084
0.000753119
-0.00124703
-0.00144427
0.00217327
-0.000711765
-0.000181984
0.000455137
-0.000937593
0.000482698
0.00150705
-0.000377703
-0.00112585
4.62505e-05
0.000711722
-0.0019343
0.000391065
-0.00184901
0.000234508
0.0016233
0.000357549
1.3463e-06
-3.86697e-05
-0.00153175
0.00157319
-0.00178427
0.0015595
0.000279196
0.00135585
-0.000849362
-0.000504857
0.000120815
-0.000659403
0.000601666
-0.00021816
0.000280529
0.00065137
0.000302946
-0.000954075
3.33436e-05
-0.000462196
0.00156452
-0.000222659
-0.00126082
-0.000404592
0.000423012
-9.15804e-06
-0.000858918
0.000104482
0.000754514
4.51386e-06
0.000776404
-0.000481847
-0.00104671
0.00152857
-0.000449062
0.000461949
-1.28812e-05
0.000229289
-0.000750192
0.00052102
-0.000104356
-0.000393904
0.00101683
-0.000496846
-0.0001365
0.000633411
0.00164707
-0.000379071
-0.00126226
-0.000187779
0.000335986
-0.00014238
0.000311559
-0.000647905
-0.000201422
0.00131748
-0.000193752
-0.00012703
0.000320782
-7.9276e-06
-0.000387842
-0.000159158
0.000482438
-0.00032327
0.00113424
0.000222724
-0.000321166
0.000148448
-0.00073275
7.50475e-06
0.000725429
-0.00040875
0.000638139
-0.000668211
8.92264e-05
0.000748053
-0.00185478
0.00115422
2.40535e-05
-2.40535e-05
0.000830081
3.19084e-05
0.00168337
-0.00171406
-0.000896829
0.0018583
-0.000957614
0.000433785
-0.000492933
5.91547e-05
-0.00053397
0.00161901
-0.00130662
0.00120734
0.00010425
0.00122619
-0.00063708
-0.000587976
0.00176326
-0.00123174
-0.00048258
0.000573563
5.3301e-06
-0.000455425
-0.000758329
-0.00101289
0.000214386
0.000139747
0.000654058
0.000436953
-0.00109036
-0.00128264
0.00129703
-0.000207775
0.000509219
-0.000241407
-0.00015762
0.000517299
-0.000690053
0.00195322
-0.00125672
-0.00153624
-0.000331359
2.02131e-05
-0.000469268
0.000189858
0.000363238
-0.000553084
-0.000300281
0.000358167
-5.78861e-05
-0.000635663
-0.000521094
0.00151611
-0.00080518
0.000965637
-0.000532858
0.000103689
0.000590644
0.000928245
-0.000421339
0.00102643
0.000581103
-0.000253026
-0.000328058
0.00123555
-0.000505839
-2.9342e-05
0.000336064
0.000621388
-0.0016647
0.00104854
0.00154958
-0.00070082
-0.000847203
-0.000258327
-9.21394e-06
0.000267541
0.00214718
-7.13341e-05
0.00119695
-0.000240921
0.00146549
0.000480866
-0.00193658
-0.000404487
0.000407397
5.52498e-05
-0.000944179
0.000546551
0.000313475
-0.000800607
0.0012115
0.000365564
-0.00157174
-5.70673e-05
0.000404273
0.000357681
-0.000167218
-0.000190463
0.000794344
0.00116059
-0.00136195
0.00171701
-0.000316944
0.000586559
-0.000793626
0.000207135
0.000331992
0.000132972
6.62492e-06
0.000310215
0.000154396
-0.000464598
0.000364906
-0.00168664
-0.000440914
-0.00142954
-0.000226482
0.00167239
-0.000654398
0.00199931
-0.00132407
4.57657e-05
-0.00191244
0.00169796
0.000225765
0.000466138
-9.56408e-05
-0.000780681
0.000842506
-6.13847e-05
-0.00036992
3.34385e-06
0.000367883
0.00112113
0.000389836
-0.0014467
0.00201521
-0.00137419
-0.000640377
-0.00234163
0.000907236
0.00145277
0.000320416
-0.00174841
0.000179583
-0.000400714
0.000221131
0.00137843
-0.00197624
0.00061259
0.0020955
-0.000713974
-0.00135917
0.000169871
-0.000404062
0.000234193
0.000251653
0.000260267
0.000540846
0.000656567
0.000478055
0.000814144
-0.000335389
-0.000478598
0.00144554
-0.00092596
-0.000517537
-0.000529571
0.00191861
-0.00136416
0.000300472
0.000854298
-0.000260992
-0.000241002
0.000574958
-0.00136562
-2.95632e-05
0.00140424
0.000382269
-0.00181804
-0.000370997
0.000184896
-0.00123945
0.000775547
0.00046445
0.000390972
-0.000118032
-0.000272939
-8.14478e-06
0.00103002
0.000359764
-0.000122074
-0.000799303
-0.000353336
0.0011533
0.000409342
-0.00168628
-0.00017763
-0.000146839
0.00032447
0.00033514
3.62559e-05
-0.000371396
-0.000894504
-0.00142684
-0.000376553
-0.000286939
-0.000247881
0.000623768
4.00845e-07
-0.00189996
0.000409517
0.00121293
-0.000389499
0.00012003
-0.000520716
-0.00120494
0.00060628
0.00142885
0.000276608
-0.000299382
0.00113651
-0.000834666
0.000567246
-0.000467962
-0.000216117
-0.000479214
0.0012596
-0.00195093
0.00071023
0.000631772
0.000362603
-0.000994335
0.000984873
-0.00094016
-2.21968e-05
0.000259581
-0.000682621
-0.000778569
0.00149082
-0.000561587
0.00127078
-0.00118313
-8.16476e-05
0.000560458
-3.31691e-05
0.000565433
0.000298918
3.51026e-05
-0.00033402
0.000519298
-0.00019778
-0.000321514
-0.00118754
0.00040784
-0.000442509
0.000339956
-0.000231344
-0.00011175
0.000343094
-0.00147227
-0.000571989
0.00034134
-0.000105713
0.000133252
0.000295366
8.588e-05
-0.000317224
-0.000436374
0.000268034
0.00016834
0.000384442
-0.00021457
0.000147168
-0.000387471
-0.000350415
-0.000386461
0.00133527
-0.00175118
0.00039314
0.000428474
-0.00122707
0.000423097
-0.000122311
0.00136564
-0.00212402
-0.00207392
0.00135576
0.00117378
-0.00185727
4.55161e-05
0.00110639
-1.08168e-05
-0.00109395
0.000750917
0.000331146
-0.00108175
-0.000320778
3.03583e-05
0.00029042
-0.000668206
-0.00138886
-1.55701e-05
0.00153383
-0.00151542
-0.000352946
0.000183342
0.000169604
0.00051628
-4.90658e-05
-0.000467194
0.00089249
0.00112239
-0.000912877
-0.00129382
0.000596977
0.00069782
0.00201474
-0.00139496
-0.000611746
-3.1916e-05
-0.000325281
-0.000363161
-0.000549757
0.000981097
0.000480885
-0.00146089
0.000867505
-0.0011645
0.000197798
0.000159883
6.60345e-05
-0.000324361
0.000364835
-2.16292e-05
0.000360926
-0.00177258
0.000434373
-0.000598355
-0.000650002
0.000104607
-0.000298203
0.000353254
-5.50505e-05
-0.000113672
0.00052066
0.000285711
-0.000806252
0.00127319
0.00124519
0.000407065
0.00153794
-0.000911839
-0.00046678
0.000768537
0.00142237
-0.000398338
-0.000506421
0.000247517
-0.00127603
-0.000565897
0.000403594
0.000194334
0.000213578
-0.000407911
-0.000245307
0.000689777
-0.000444406
0.00177189
-0.0011544
0.000183709
0.00023429
0.000170479
-0.000404768
-0.000547074
-0.000326714
-0.00145516
0.0017846
0.000263703
-0.000389775
0.000126072
0.000474111
-0.00200868
0.000747323
-0.00163999
0.000685212
0.000232963
-0.000918119
-0.000319205
-8.75497e-05
5.10142e-05
0.00142104
0.000859267
0.000236121
0.000198723
-0.000434843
2.3023e-05
-0.000465515
-0.00053952
0.000112438
0.000427094
-0.000149729
0.00058927
-0.000439473
-0.000388037
0.000254038
-0.000453636
0.0015245
-0.00105472
-0.000480355
-6.6574e-05
0.000546959
0.00138888
-0.00171296
-0.0021245
0.00105709
0.00109458
0.00196944
-0.00126259
-0.0001768
0.000502128
-0.000310317
1.00361e-05
0.000711357
-0.00198767
0.00129637
-0.000371354
0.00155501
0.00193691
-0.000462146
0.000492814
-0.00145887
0.000959453
-0.00132035
0.000361971
0.00177943
-0.00174625
0.000347589
-0.00196184
-0.000654575
-0.000596351
0.00187315
0.000787812
0.000574405
-0.000575214
8.32166e-07
0.000314995
-0.000410347
9.53521e-05
0.000486854
-0.00195657
0.000137393
-0.000657966
0.000520659
0.000518155
0.001125
7.27007e-05
-0.000379055
-6.31897e-05
0.00029748
8.07963e-05
0.000285657
0.000481243
0.00033304
0.000377424
-4.22835e-05
-0.000246673
0.000377417
-0.00012474
-0.000572699
-6.12749e-05
-0.00112995
0.000674418
-0.000622145
-0.0003239
0.000946427
0.000404513
-0.000142593
0.000482801
-0.000596174
0.00049998
9.62086e-05
-0.000517958
0.000602039
-8.40409e-05
-0.000461289
0.000187874
0.000273419
0.000729604
-0.000663262
2.2015e-05
0.000536898
5.77166e-05
-0.000594592
-0.00197027
0.00133777
-0.000762358
-0.000408753
0.000153753
0.000254207
-0.000407959
0.00132805
-0.00176382
-0.000600962
3.33209e-05
0.00123124
0.000464738
-0.00169174
0.00206949
-0.000415815
-0.00164636
-0.000109193
0.000303528