/*--------------------------------*- C++ -*----------------------------------*\
| =========                 |                                                 |
| \\      /  F ield         | OpenFOAM: The Open Source CFD Toolbox           |
|  \\    /   O peration     | Version:  v2012                                 |
|   \\  /    A nd           | Website:  www.openfoam.com                      |
|    \\/     M anipulation  |                                                 |
\*---------------------------------------------------------------------------*/
FoamFile
{
    version     2.0;
    format      ascii;
    class       surfaceVectorField;
    location    "650";
    object      ddtCorrDdt0(Uf);
}
// * * * * * * * * * * * * * * * * * * * * * * * * * * * * * * * * * * * * * //

dimensions      [0 1 -2 0 0 0 0];


internalField   nonuniform List<vector> 
20673
(
(-5.51038e-05 0.000226815 1.52089e-20)
(-4.96124e-05 0.000237518 -7.63898e-20)
(-4.49608e-05 0.000226019 2.78714e-18)
(-2.45869e-07 -1.18221e-06 1.60199e-19)
(-1.99324e-06 -7.25321e-06 -8.80262e-19)
(-1.96964e-06 -1.92306e-06 -1.03771e-18)
(0.00289921 -0.00140671 9.01297e-19)
(0.00291801 -0.00151745 2.80756e-18)
(0.00279688 -0.00123281 -5.8592e-18)
(7.6791e-05 7.79207e-05 -3.12621e-19)
(7.10301e-05 7.11945e-05 4.95746e-18)
(7.37602e-05 7.32503e-05 2.446e-18)
(-1.42346e-06 -6.42106e-05 -1.00804e-18)
(9.28273e-07 -6.2673e-05 -3.78439e-18)
(8.4758e-07 -6.88253e-05 -6.28173e-19)
(-2.60717e-05 0.000143297 -7.47963e-17)
(-2.21781e-05 0.000160328 -1.35441e-16)
(-7.79127e-06 0.000137668 -1.22155e-16)
(0.00301245 -5.34424e-05 3.00977e-18)
(0.00305905 -0.000284922 5.21782e-18)
(0.00253364 -8.32943e-05 6.61533e-18)
(0.00340087 -0.00231252 -9.22785e-18)
(0.00321275 -0.00231383 -2.25532e-18)
(0.00333794 -0.00246725 5.84388e-19)
(-0.00063965 -0.00217276 5.4652e-18)
(-0.00107614 -0.00195333 2.15931e-17)
(-0.00131985 -0.00200074 3.04979e-18)
(-0.000175453 0.000323133 -2.07737e-17)
(-0.000190909 0.000346886 2.41619e-18)
(-0.000207401 0.00031943 2.03962e-17)
(-0.00264986 0.000379677 8.02767e-18)
(-0.0026013 0.000599226 2.08678e-17)
(-0.00284737 0.000447694 1.39198e-17)
(-0.000169264 0.000658144 -4.7963e-19)
(-0.000183495 0.000722672 8.92805e-18)
(-0.000228983 0.000649339 7.59307e-18)
(7.42476e-05 8.18007e-05 -6.7951e-18)
(0.00399238 -0.000284806 3.99538e-18)
(0.00421875 -0.000443949 8.86556e-18)
(0.00373029 -0.000187136 1.66289e-17)
(-2.24083e-05 -6.15992e-06 2.87189e-18)
(-1.89316e-05 -1.25864e-06 -5.76596e-18)
(-2.81989e-05 -4.90481e-06 2.38029e-19)
(-2.2637e-05 1.71393e-05 -8.47217e-19)
(-2.23864e-05 1.13366e-05 -9.58621e-19)
(-2.05717e-05 1.41585e-05 -1.07801e-18)
(-4.66639e-06 -1.42522e-05 -8.31421e-20)
(-4.62828e-06 -1.02393e-05 2.64253e-20)
(-3.69054e-06 -1.54784e-05 1.41765e-19)
(0.000319279 -0.000149694 6.48844e-19)
(0.000334232 -0.000124179 -8.63854e-19)
(0.000354131 -0.000161981 2.1711e-18)
(-8.74193e-05 0.000677805 3.84525e-20)
(-0.000130442 0.000586339 3.6902e-18)
(3.66317e-06 -2.5268e-05 -2.72885e-19)
(3.99699e-06 -2.38386e-05 -8.34863e-20)
(4.93368e-06 -2.11763e-05 -1.20061e-18)
(1.11513e-06 3.07739e-05 -1.8898e-19)
(1.68604e-06 3.68221e-05 -1.03509e-18)
(1.11613e-06 2.99582e-05 -1.34285e-18)
(0.00303834 0.000106459 2.20555e-18)
(0.00346305 -2.49647e-05 9.03956e-18)
(2.08313e-06 -4.26499e-05 1.10444e-18)
(1.06103e-06 -4.41051e-05 1.66047e-19)
(1.26617e-06 -4.28537e-05 -6.79304e-19)
(0.0035121 -0.00217584 6.76809e-18)
(0.00362698 -0.00234397 -4.47952e-18)
(-4.73375e-06 3.47334e-05 9.89746e-19)
(-5.76734e-06 3.55396e-05 1.49123e-18)
(-3.62646e-06 4.16875e-05 2.90293e-18)
(0.00181536 0.00178932 6.48009e-18)
(0.00249371 0.001748 -4.11753e-18)
(0.00262993 0.00159216 -4.36259e-19)
(-1.00737e-06 1.56396e-05 3.2339e-18)
(-3.68662e-06 1.99265e-05 -1.01764e-17)
(-4.3169e-06 1.49529e-05 5.66483e-18)
(3.8688e-06 3.35358e-05 -3.0603e-18)
(4.86777e-06 3.35717e-05 7.79601e-19)
(7.13888e-06 3.81577e-05 1.09436e-17)
(0.000180185 4.48534e-05 -4.98882e-18)
(0.000191177 2.49677e-05 -4.15691e-18)
(0.000208255 4.45867e-05 -1.80308e-18)
(0.000103182 0.000775746 -1.23307e-17)
(0.000161043 0.000767643 2.34346e-18)
(0.000146695 0.000837086 7.21493e-18)
(-1.8324e-05 0.000275781 -6.71269e-19)
(-2.77799e-05 0.000265714 -6.52262e-18)
(-1.53165e-05 0.000261499 3.33723e-18)
(-3.9967e-06 0.000151117 -7.0013e-19)
(-5.23647e-06 0.000145681 -1.61715e-18)
(-2.80525e-06 0.000147493 -2.18e-18)
(-7.15569e-06 -7.43937e-07 6.84208e-18)
(-6.44273e-06 6.3627e-08 -1.79102e-17)
(-6.0511e-06 -4.95998e-09 -5.99428e-18)
(-2.69604e-06 -4.9015e-05 -4.26062e-18)
(-2.34287e-06 -4.97406e-05 -1.23394e-17)
(-2.97651e-06 -5.01275e-05 9.68404e-18)
(-2.56118e-06 3.25829e-05 4.17023e-19)
(-1.71825e-06 4.03463e-05 2.53709e-18)
(-2.71482e-06 3.61728e-05 3.35968e-18)
(-0.00417301 0.00258117 6.45053e-18)
(-0.00400622 0.00226909 -1.08519e-17)
(-0.00259461 0.00255857 6.9779e-18)
(2.3934e-06 -4.13871e-05 5.90793e-19)
(3.13277e-06 -4.06403e-05 1.80284e-19)
(0.00244668 -0.00162004 -4.01798e-19)
(0.00261728 -0.00140671 3.0565e-19)
(0.00279725 -0.00144324 -7.5334e-18)
(5.8753e-05 0.000114494 2.93062e-18)
(6.01032e-05 0.000123984 -4.62614e-18)
(0.000616809 0.000643418 -6.05556e-18)
(0.00049297 0.000366346 -9.3128e-18)
(0.000365813 0.000590277 -1.1203e-17)
(3.85701e-06 1.11018e-06 -1.3568e-19)
(4.29122e-06 6.73027e-07 -2.46646e-19)
(4.45968e-06 3.31074e-07 -2.03417e-19)
(4.48753e-07 2.00602e-05 -2.51094e-19)
(4.02969e-07 1.0463e-05 -3.32824e-20)
(2.38128e-07 1.08997e-05 -2.92784e-18)
(1.73796e-05 -9.04543e-07 -6.48876e-19)
(1.72796e-05 1.71103e-06 -2.90309e-18)
(1.67222e-05 -3.79756e-07 -1.64008e-18)
(2.20861e-05 5.26204e-05 1.94622e-18)
(2.70651e-05 4.96326e-05 -1.25135e-17)
(2.73791e-05 5.78781e-05 3.19331e-17)
(1.87316e-05 7.98706e-05 -3.23135e-18)
(1.86529e-05 8.15741e-05 -2.79454e-18)
(1.99027e-05 8.1618e-05 8.99062e-19)
(-5.09068e-06 -3.86554e-05 3.88632e-18)
(-9.59755e-06 -3.93393e-05 -1.06138e-17)
(-6.19172e-06 -4.17386e-05 3.31069e-18)
(0.000303356 -0.000185809 -1.15117e-17)
(0.000286666 -0.000144648 1.01496e-18)
(0.000114791 -0.000712826 7.10544e-19)
(0.000109175 -0.000647892 -6.0285e-19)
(5.41822e-05 -0.000696237 2.86287e-18)
(-2.60501e-05 0.000169372 -2.95679e-17)
(-1.96225e-05 0.000163621 5.69752e-17)
(-2.84679e-05 0.00016364 6.01236e-17)
(-3.47113e-06 -1.72144e-06 1.95254e-19)
(-3.70593e-06 -1.20992e-06 -1.37394e-19)
(-3.47212e-06 -1.36107e-06 -1.62392e-19)
(3.30091e-05 -2.89789e-06 5.86447e-18)
(3.7787e-05 -7.59858e-07 4.50774e-18)
(3.47425e-05 -8.28087e-06 -3.43649e-18)
(-1.02644e-06 2.1465e-05 4.67106e-18)
(1.73138e-06 1.63461e-05 4.16911e-19)
(-4.0883e-06 1.27777e-05 -2.44062e-18)
(-3.08896e-05 0.00017017 -4.57961e-17)
(-3.385e-05 0.000242298 -7.25575e-17)
(-3.45419e-06 -4.79154e-05 -5.0108e-18)
(-2.2086e-06 -4.73992e-05 -2.85991e-18)
(-5.08812e-06 -1.28838e-05 1.91344e-19)
(-4.9927e-06 -1.81753e-05 -3.91254e-19)
(6.47197e-05 7.3874e-05 1.16478e-18)
(6.24596e-05 8.18352e-05 -7.38134e-18)
(7.03419e-05 7.98016e-05 -7.26874e-18)
(-0.00265909 0.000159191 -1.82384e-17)
(-0.00247298 0.000306702 -2.50256e-17)
(5.89069e-07 2.3605e-05 1.43647e-19)
(1.95852e-06 3.17756e-05 -1.22259e-18)
(1.71555e-06 2.60744e-05 -1.58244e-18)
(4.30888e-05 0.000107343 -7.56899e-18)
(4.49915e-05 0.000107869 -5.97233e-19)
(4.28491e-05 0.000113114 -1.01276e-18)
(1.74058e-05 7.83746e-05 6.1912e-19)
(1.83159e-05 7.82758e-05 3.70398e-20)
(-0.000944661 -0.000374437 -2.82143e-17)
(-0.000671685 -0.000539353 3.59939e-18)
(-0.000973871 -0.000447794 -5.40569e-18)
(-1.32421e-07 4.14785e-06 4.64043e-19)
(4.29595e-07 8.17218e-06 4.59071e-19)
(0.00430123 -0.000324669 -3.98546e-18)
(2.92011e-06 -2.67378e-05 6.03806e-19)
(1.906e-06 -2.68615e-05 -3.12662e-19)
(1.28327e-05 0.000179905 5.86288e-17)
(1.66417e-05 0.000132478 9.70052e-17)
(0.00377425 0.000859956 4.30686e-17)
(0.00313976 0.000639745 -2.48116e-17)
(0.00220995 -0.000189301 3.33646e-17)
(-3.33955e-07 -6.64242e-05 -2.72112e-18)
(-3.27891e-08 -6.85194e-05 -1.02006e-18)
(-2.51806e-07 2.72346e-05 3.82507e-19)
(-1.03346e-06 1.78489e-05 5.34669e-19)
(-0.000420456 -0.00242088 8.67012e-18)
(-0.000583646 -0.00242706 -4.84054e-19)
(-0.000469618 -0.00260229 3.17213e-17)
(-5.9516e-05 0.000150391 -6.2914e-19)
(-6.68926e-05 0.000162682 -1.57407e-18)
(-7.46998e-05 0.000144078 -9.76195e-19)
(1.23844e-06 -5.86182e-05 -3.09334e-20)
(3.74787e-07 -6.20265e-05 2.47228e-18)
(-8.83716e-05 -0.00236862 -8.98386e-18)
(-0.000236803 -0.00240864 -1.46742e-17)
(-0.00510971 -0.000108398 5.31693e-18)
(-0.00510386 -0.000137364 -2.02424e-18)
(-0.00510916 -5.89051e-05 -8.19659e-18)
(-2.80285e-06 3.47098e-05 -1.38697e-18)
(-3.74752e-06 2.49448e-05 -6.22983e-18)
(-1.59358e-05 0.000169842 5.39521e-17)
(-2.35271e-06 0.000182759 2.86295e-17)
(-7.22992e-06 0.000179715 1.18962e-18)
(0.000533894 0.000824459 4.09182e-18)
(0.00050733 0.000736281 -1.22153e-18)
(0.000419019 0.000785473 -3.82012e-18)
(-0.00358788 -0.000445274 9.45419e-18)
(-0.00371734 -0.000620703 -2.9243e-18)
(-0.00346085 -0.000509542 -3.69371e-17)
(3.21257e-05 7.93852e-05 -8.9648e-19)
(3.30822e-05 7.9118e-05 5.68852e-19)
(3.25641e-05 8.32511e-05 -2.35405e-18)
(0.0012189 0.00289767 2.79556e-18)
(0.00145164 0.00286059 -3.28005e-18)
(0.000575563 0.00309618 -6.70008e-18)
(2.959e-06 4.31991e-05 -1.95893e-18)
(3.54141e-06 4.46757e-05 -1.0752e-18)
(3.75058e-06 4.3768e-05 7.12395e-19)
(6.59654e-06 3.23965e-05 5.28302e-19)
(7.13376e-06 2.70561e-05 -2.13172e-18)
(6.18734e-06 3.26823e-05 -4.31278e-19)
(3.38655e-08 -6.23268e-05 -7.25069e-19)
(-1.05097e-05 0.000162708 -2.56179e-17)
(-1.71054e-05 0.000154308 5.00108e-17)
(-2.12838e-05 0.000169336 6.46619e-18)
(0.00228717 -0.00186727 -4.36787e-18)
(0.00209842 -0.001856 1.26467e-17)
(0.00122225 -0.000688816 6.862e-17)
(0.00134527 -0.000626492 -1.23124e-17)
(0.00137004 -0.000652361 -4.40699e-17)
(3.18254e-05 7.98603e-05 2.10453e-18)
(3.25445e-05 7.64385e-05 2.86061e-18)
(7.34232e-06 5.68933e-06 4.84502e-19)
(7.96683e-06 5.16773e-06 1.02019e-19)
(7.39992e-06 1.34584e-05 1.75842e-18)
(0.00538918 -0.00182125 1.54739e-17)
(0.00114847 0.000655745 -9.4581e-18)
(2.94039e-05 -3.00486e-06 5.64991e-18)
(3.27927e-05 1.87102e-06 1.69197e-18)
(1.75834e-05 -2.36779e-06 1.55739e-18)
(1.80087e-05 -7.43105e-07 1.24745e-18)
(-0.00414939 -0.0010544 -1.58756e-18)
(-0.0041398 -0.000920728 9.12337e-18)
(-0.00401356 -0.00101749 1.21347e-17)
(-0.000177066 0.000585558 -5.74605e-18)
(-0.000167556 0.000540033 -3.14675e-17)
(-0.000209804 0.000546259 -1.02429e-17)
(2.72534e-06 9.25958e-06 1.02511e-19)
(2.701e-06 1.30239e-05 1.87078e-18)
(2.38767e-06 6.89718e-06 4.16191e-19)
(-7.28983e-06 -4.0415e-05 -5.32711e-18)
(-1.00904e-05 -4.31019e-05 -2.8597e-19)
(-8.96151e-06 -4.16769e-05 -3.67409e-18)
(0.0020992 -0.00395053 3.75659e-17)
(0.00675185 -0.000939991 -7.43233e-18)
(-1.90718e-05 0.000148348 -1.3624e-17)
(-3.04852e-05 0.000145936 7.23986e-18)
(-3.18965e-05 0.000157802 -2.90122e-17)
(-0.00143054 -0.000985299 -9.09102e-18)
(-0.00137992 -0.00110745 -1.26101e-17)
(-0.00154113 -0.0010699 -1.40669e-17)
(0.000194175 -0.000506021 6.47887e-18)
(0.000236543 -0.000530325 3.33493e-19)
(0.000239735 -0.000479767 1.88877e-17)
(0.000368114 0.00232517 -5.02651e-18)
(0.000460028 0.00250716 -1.41218e-18)
(0.000606221 0.00237127 -1.84249e-17)
(1.31904e-05 8.68805e-05 -1.77751e-17)
(1.25957e-05 8.36297e-05 -1.59288e-17)
(1.47385e-05 8.48912e-05 -3.99372e-17)
(4.10752e-06 -7.6846e-06 -3.95941e-19)
(3.94633e-06 -8.71788e-06 7.47922e-19)
(4.8673e-06 -8.17277e-06 6.40291e-20)
(-5.61687e-06 -1.52753e-05 -1.39233e-17)
(-3.26608e-06 -7.44507e-06 -3.71914e-17)
(2.95986e-06 -1.59996e-05 9.39452e-18)
(2.24802e-05 6.16806e-05 2.44289e-17)
(1.54915e-05 5.01299e-05 2.85644e-18)
(3.64993e-05 5.03983e-05 -2.81508e-18)
(3.84247e-05 4.89243e-05 -1.64282e-19)
(3.80386e-05 4.40269e-05 -3.18694e-18)
(1.85088e-06 -8.33262e-06 -5.5095e-19)
(1.61425e-06 -7.44473e-06 -6.17592e-19)
(2.29294e-06 -4.82655e-06 -8.82817e-20)
(-0.00107004 -0.00124056 -2.08047e-17)
(-0.00124179 -0.0010353 6.60868e-18)
(-0.00079311 -0.00125521 -3.69518e-17)
(0.000150074 -2.17743e-05 3.61779e-18)
(0.00016428 9.49673e-07 1.86192e-17)
(0.000174894 -3.17608e-05 5.61261e-18)
(9.36912e-05 -0.000764702 -8.34501e-18)
(0.000166626 -0.000750737 2.06883e-18)
(-4.04043e-06 -6.49532e-06 -2.33467e-19)
(-3.98915e-06 -3.85305e-06 6.01847e-20)
(-5.86749e-05 0.000271498 -1.51221e-18)
(-6.50965e-05 0.000260589 5.50131e-18)
(-7.48209e-05 0.000272688 -7.49972e-18)
(0.000366451 0.00125814 -3.06429e-17)
(0.000315048 0.00108529 7.92155e-18)
(0.000149148 0.0011748 8.68647e-18)
(0.000901326 0.000906563 1.02154e-17)
(0.000942098 0.000635795 9.7473e-18)
(-0.000222249 0.00110827 6.01384e-18)
(-0.000127393 0.00115397 9.86259e-18)
(-0.000210385 0.00121348 1.68124e-18)
(-0.00100321 -0.00143086 -9.25006e-18)
(-0.00153486 -0.00122881 1.57553e-17)
(-1.45355e-06 -2.95987e-05 5.73974e-19)
(9.09645e-07 -2.73629e-05 -9.7304e-18)
(-7.68296e-06 -3.14966e-05 1.03998e-18)
(-3.35987e-06 0.000213154 5.63259e-17)
(-2.78537e-05 0.000189261 -4.74318e-17)
(3.84576e-06 0.000198281 4.49463e-17)
(-4.37284e-06 1.15289e-05 1.6796e-18)
(-3.48566e-06 2.00092e-05 1.10744e-18)
(-3.64781e-06 1.42314e-05 2.0354e-18)
(-7.9043e-06 0.000156307 -1.86089e-17)
(-9.47351e-06 0.000156878 1.80794e-17)
(-8.90047e-07 0.000158994 -1.5485e-17)
(0.0074126 0.000130638 3.83268e-18)
(0.00740733 9.38002e-05 8.77782e-18)
(0.00727725 0.000111834 1.71029e-17)
(-3.26801e-06 -4.88863e-05 8.8802e-18)
(-3.54126e-06 -4.61771e-05 1.99504e-18)
(-2.76492e-06 -4.90136e-05 6.80067e-19)
(1.5967e-06 2.80713e-05 -7.47506e-19)
(1.16641e-06 2.90035e-05 6.06267e-19)
(-0.000258122 -0.00243625 -1.1157e-17)
(-0.00038261 -0.00228303 -5.11289e-18)
(0.00707249 -0.000186181 7.79008e-18)
(0.00695593 -0.000249081 -4.84253e-18)
(0.00689335 -0.000275503 6.68169e-18)
(-2.72286e-06 3.20029e-05 -2.32497e-17)
(2.93406e-06 2.68034e-05 -8.2317e-18)
(-2.85632e-06 1.17203e-06 -1.22785e-19)
(-1.83627e-06 2.02161e-06 3.00944e-20)
(-2.05709e-06 7.58668e-07 5.45367e-20)
(-7.51642e-06 -3.94423e-05 4.12616e-18)
(-6.59949e-06 -4.01303e-05 -2.23326e-18)
(1.23872e-05 6.92796e-05 2.42658e-18)
(1.19115e-05 7.0965e-05 -4.90666e-19)
(1.14831e-05 6.5955e-05 1.03851e-18)
(-3.47063e-06 8.60272e-07 -7.69657e-21)
(-7.28369e-07 6.67738e-07 3.40052e-20)
(1.32568e-05 7.64506e-06 -5.945e-19)
(1.41627e-05 6.08353e-06 8.29072e-20)
(1.34015e-05 6.39941e-06 7.04476e-19)
(-3.12687e-05 0.000150206 -1.87993e-17)
(0.00624563 -0.00022198 1.10638e-18)
(0.00632146 -0.000287006 8.09709e-19)
(0.00654583 -0.000200985 -6.94754e-18)
(2.80216e-07 -2.47479e-05 -1.21516e-19)
(-1.4779e-06 -2.2961e-05 -1.15379e-18)
(1.90616e-05 8.22424e-05 1.91465e-18)
(1.83278e-05 8.09105e-05 -2.79525e-18)
(9.57115e-07 3.11148e-05 3.06168e-18)
(7.75114e-07 2.19815e-05 1.99346e-18)
(-0.00251966 0.00237125 -1.31304e-17)
(-0.00126251 0.00292574 -6.76702e-18)
(-0.00390915 0.00284681 1.05577e-17)
(0.00368671 -0.00201039 -2.79021e-18)
(0.00333882 -0.00203015 8.60033e-18)
(-6.69519e-05 0.000226648 7.83107e-18)
(-5.85141e-05 0.000217357 3.16598e-18)
(2.87674e-06 9.90309e-05 3.85251e-17)
(8.77674e-06 7.90721e-05 -2.85407e-17)
(5.15377e-08 -6.86093e-05 -9.27985e-18)
(1.08854e-07 -6.66839e-05 1.67333e-18)
(-4.13296e-06 -4.79498e-05 -4.07779e-18)
(-4.22604e-06 -5.02211e-05 6.61712e-18)
(-0.00563716 0.0017379 -1.38766e-18)
(-0.00538236 0.00189409 9.76521e-18)
(-0.00497948 0.0015599 -6.31196e-18)
(1.08574e-05 4.71038e-05 3.599e-19)
(9.88491e-06 4.65381e-05 6.4157e-19)
(9.23783e-06 4.41025e-05 1.77454e-18)
(-3.74838e-06 -8.4547e-06 -1.96488e-18)
(-4.1658e-06 -1.66849e-05 -2.60143e-18)
(-4.4193e-06 -8.88115e-06 -1.34787e-17)
(2.73237e-05 6.70853e-05 1.15772e-17)
(2.81899e-05 7.23242e-05 -1.94271e-17)
(3.39539e-05 6.79089e-05 -1.67063e-17)
(-1.63675e-06 2.72259e-05 -2.34314e-18)
(-6.26139e-07 3.49552e-05 2.91436e-18)
(0.00118363 -0.00304731 8.05776e-18)
(0.000795902 -0.00273495 3.97863e-18)
(0.000898351 -0.00282944 1.14105e-19)
(0.000243265 3.56274e-06 -6.99757e-19)
(0.000204023 -2.88092e-05 -1.62335e-18)
(0.000200008 2.40233e-06 -2.16693e-18)
(-1.44393e-06 2.54209e-05 -9.61102e-19)
(-9.53806e-07 3.22367e-05 -3.09778e-18)
(1.10041e-05 4.34412e-05 -5.47247e-19)
(1.0366e-05 4.32665e-05 -4.29865e-19)
(9.71659e-06 4.1302e-05 -1.42337e-18)
(-1.51938e-05 0.000143346 6.79465e-19)
(-1.81306e-05 0.000136731 5.71425e-18)
(-2.0056e-05 0.000143862 -1.60602e-18)
(-0.000359864 -0.000274175 5.10958e-18)
(-0.000389716 -0.000310379 1.74862e-17)
(-0.000327793 -0.000309472 -3.55922e-18)
(-3.10764e-06 0.000225444 -1.41209e-17)
(7.81638e-06 0.000213273 5.68654e-17)
(-0.00108303 0.000194804 3.31446e-18)
(-0.00115656 0.000127216 -5.20049e-18)
(-0.00116482 0.000251484 7.58295e-18)
(-8.73604e-05 7.06326e-05 9.87907e-19)
(-8.31243e-05 7.73297e-05 -4.32199e-18)
(-9.32036e-05 8.23141e-05 -1.44722e-18)
(4.50745e-05 0.000145815 -1.41415e-18)
(3.95208e-05 0.000148947 -1.68047e-18)
(4.16736e-05 0.00014221 1.52789e-18)
(0.000416022 -0.000264366 6.4519e-18)
(0.000305462 -0.000184784 4.3895e-17)
(0.000313717 -0.000207347 1.69846e-17)
(-5.76524e-05 0.000142886 2.71506e-19)
(-5.57783e-05 0.000149835 6.25506e-18)
(0.00301591 -0.00406281 -4.31725e-18)
(0.00189444 -0.00420346 2.61118e-18)
(0.00137464 -0.00394216 1.0712e-17)
(-0.00355962 -0.000308689 2.10459e-17)
(-0.00372489 -0.000411182 7.17796e-18)
(-0.00149642 0.00152993 -1.11191e-17)
(-0.00411234 0.00170968 9.1851e-18)
(-8.13791e-06 -4.81377e-05 4.85715e-18)
(-8.40272e-06 -4.9715e-05 3.92729e-18)
(-7.44413e-06 -4.87178e-05 -6.69719e-18)
(-8.38817e-06 4.54588e-06 -2.92559e-18)
(-1.81756e-05 5.27354e-06 -3.32323e-17)
(-8.61169e-06 6.97911e-06 1.76789e-17)
(4.01007e-06 3.95628e-05 6.26097e-19)
(3.93966e-06 3.73461e-05 -1.00193e-18)
(2.05151e-06 3.76361e-05 -1.37059e-18)
(-0.00150549 -0.00085393 1.95892e-17)
(-0.0013448 -0.000889853 1.9026e-17)
(-0.000333248 0.00106322 -3.21915e-18)
(-0.000246644 0.00100183 -1.47209e-17)
(0.000303952 0.00217868 3.77803e-18)
(0.000162641 0.0022808 1.8201e-17)
(3.57073e-05 5.50625e-05 -2.92343e-18)
(3.46305e-05 5.14851e-05 -8.49828e-19)
(-0.00012322 -0.000485665 5.35039e-18)
(-0.000174014 -0.000484898 1.23565e-17)
(-0.000155156 -0.000540786 5.17537e-18)
(1.37307e-05 6.68261e-05 -1.56549e-18)
(1.3842e-05 6.81379e-05 -2.19196e-19)
(1.30078e-05 6.48257e-05 4.97575e-18)
(-4.20267e-06 -1.43094e-05 1.50671e-17)
(-7.14623e-06 -1.05427e-05 7.05244e-18)
(-0.000103171 0.000105775 -6.32564e-19)
(-9.5029e-05 9.7265e-05 -2.33236e-18)
(-9.48818e-05 0.000109829 -2.82254e-18)
(0.00191024 0.000322747 4.20917e-17)
(0.00180828 0.000250716 -4.75471e-17)
(0.00180892 0.000389067 2.2798e-17)
(9.41921e-05 0.00131527 7.37492e-19)
(6.96355e-05 0.00140018 4.90082e-18)
(3.94228e-06 0.00133158 6.53763e-18)
(-6.31869e-06 -5.41283e-06 -3.40909e-19)
(-7.53259e-06 -2.77775e-06 2.25072e-19)
(-7.50057e-06 -8.88488e-06 -3.26151e-19)
(0.00298739 -0.00426685 -3.10356e-18)
(0.00274708 -0.00417748 -2.76897e-19)
(0.00281923 -0.00442267 4.93869e-18)
(-8.78556e-05 5.21763e-05 -1.95675e-18)
(-8.5534e-05 4.40568e-05 -1.09388e-18)
(-9.59362e-05 5.03688e-05 -1.5667e-18)
(0.00620894 -0.000150135 2.17951e-18)
(0.00589864 -0.000271068 -1.46221e-18)
(-1.25542e-05 0.000153687 -1.32385e-16)
(-1.88439e-05 0.000163462 2.60231e-17)
(0.00147195 -0.00328906 -1.42163e-17)
(0.00139816 -0.00338707 1.50899e-17)
(3.62147e-06 -1.9888e-05 -4.38163e-20)
(3.25908e-06 -2.34732e-05 -9.49926e-20)
(4.31602e-06 -2.01973e-05 6.46743e-20)
(-0.000180771 0.000628267 8.89651e-18)
(-0.000141068 0.000613401 2.04438e-18)
(-2.44145e-05 0.000291861 1.50652e-17)
(-6.65364e-06 0.000286998 7.2289e-18)
(1.23847e-05 4.96909e-05 -2.11975e-18)
(1.16659e-05 4.74301e-05 1.24916e-18)
(6.63546e-06 4.39723e-06 -5.07587e-19)
(6.51902e-06 -1.7259e-06 8.13178e-19)
(-2.23515e-05 -2.10649e-06 6.42468e-19)
(-1.93855e-05 -4.04045e-06 7.18334e-18)
(-2.2218e-05 -2.54388e-06 -3.462e-18)
(0.000901085 0.00202802 3.68911e-18)
(0.00109919 0.0018374 -1.16292e-18)
(-0.000867698 0.00113804 -6.83993e-18)
(-0.00097104 0.0011908 6.46068e-18)
(-0.0009931 0.00106048 -2.5739e-17)
(0.000502501 -0.000301144 -3.80774e-19)
(0.000670534 -0.000248443 -4.75949e-17)
(0.000156729 6.23577e-05 4.5802e-18)
(0.000153915 7.72776e-05 -4.48672e-18)
(0.000166447 7.02974e-05 -1.19255e-17)
(-0.000843525 0.00187461 -2.34433e-18)
(-0.000736439 0.00193432 7.5974e-18)
(-0.000847313 0.00199843 -1.75177e-18)
(-0.00612565 -0.00103879 4.71359e-18)
(-0.00613226 -0.000883348 -8.6734e-19)
(-0.00600814 -0.00142974 -2.66149e-18)
(0.0010816 -0.000734491 -1.07052e-17)
(0.00108469 -0.000713968 8.88573e-17)
(-0.000962683 0.000617895 -4.83988e-18)
(-0.000952038 0.000691058 1.44293e-17)
(-0.00100363 0.000675907 1.44042e-17)
(1.7233e-06 -5.22516e-05 -1.12981e-18)
(2.21303e-06 -4.897e-05 3.60223e-19)
(2.64308e-06 -4.90822e-05 -3.85517e-19)
(-1.71884e-05 9.23121e-05 -1.18412e-17)
(-7.82474e-06 9.00717e-05 4.85737e-17)
(-1.07487e-05 0.000104425 1.09829e-17)
(-1.81282e-06 1.27577e-05 2.69322e-17)
(-1.69512e-06 1.3122e-05 -4.04448e-18)
(1.03069e-06 1.87469e-07 -2.77584e-19)
(1.13615e-06 -3.56673e-08 -3.12041e-19)
(2.26668e-06 5.96666e-06 -1.36039e-18)
(3.15758e-06 1.38127e-05 6.51616e-20)
(0.000116185 -5.39224e-05 -3.03257e-18)
(0.000101123 -4.47795e-05 -1.56363e-18)
(0.000100066 -6.52556e-05 2.85612e-18)
(-0.00138506 0.00437031 -2.39116e-17)
(-0.00339428 0.00179874 9.74664e-18)
(0.00354652 0.00236275 -3.78907e-17)
(7.07491e-06 1.21361e-05 8.63864e-19)
(5.77625e-06 1.39181e-05 3.78952e-19)
(5.74495e-06 8.8067e-06 6.18984e-19)
(-2.61898e-06 -2.30137e-06 6.64335e-20)
(-3.3643e-06 -1.50963e-06 2.0884e-19)
(-0.000225385 -0.000378165 1.13238e-18)
(-0.000196097 -0.000343694 -4.47285e-18)
(-0.000185154 -0.000389324 4.67127e-18)
(-0.000383946 -0.000238711 -1.8843e-17)
(-0.000339753 -0.000247295 -1.54568e-17)
(-0.00508507 -0.000134219 -4.8162e-18)
(-0.00509978 -7.70056e-05 4.13203e-18)
(0.000966042 -0.000905529 -2.10933e-17)
(0.00150531 -0.00137595 1.03619e-17)
(0.00303329 -0.00108128 -5.65657e-18)
(-2.81278e-06 2.4774e-05 -1.48287e-18)
(-2.35557e-06 2.84249e-05 2.61652e-18)
(7.67821e-07 2.29658e-05 -1.30591e-18)
(1.20102e-07 1.53599e-05 -3.52515e-18)
(0.000152305 -0.000486747 8.45759e-18)
(0.000148259 -0.000535982 -4.66027e-18)
(0.00207209 0.00043938 2.16326e-18)
(0.00141791 0.000669679 -2.64309e-18)
(0.00172493 0.00039366 1.83841e-18)
(-2.22819e-06 -1.29024e-06 6.89904e-18)
(-2.02579e-06 -6.81899e-06 9.24398e-19)
(0.00315881 -0.000423996 -3.51364e-18)
(0.00326123 -0.000615019 -2.72629e-19)
(0.0027554 -0.000468154 -1.98664e-17)
(-0.00505285 -3.17785e-05 -2.92226e-19)
(-0.00507938 -4.93212e-05 -1.02279e-17)
(-0.00504373 -6.37519e-05 -2.94483e-18)
(-0.000837003 0.00173521 -7.27992e-18)
(-0.000986674 0.001809 -1.68475e-18)
(3.81155e-06 -1.08366e-05 -1.10792e-18)
(2.98016e-06 -1.12933e-05 1.01298e-19)
(8.70235e-05 0.000130702 -1.35633e-17)
(0.000100982 0.000129828 1.39726e-18)
(9.0593e-05 0.000144079 -2.88182e-17)
(4.70325e-05 -0.00040492 1.00124e-17)
(7.79568e-05 -0.00043483 9.63778e-18)
(8.84796e-05 -0.000389704 2.01568e-18)
(-0.00136324 0.000475876 1.46514e-17)
(-0.00125435 0.000641954 -4.35546e-17)
(-0.00149705 0.00054082 1.08207e-17)
(2.89808e-07 5.18255e-05 -2.23456e-18)
(1.50237e-06 5.14132e-05 4.29398e-19)
(1.77969e-06 5.37898e-05 1.25087e-18)
(-0.00124946 -0.00013852 1.76935e-17)
(-0.000915646 -0.000180795 -1.1694e-17)
(4.99976e-06 -1.53588e-05 -4.56452e-20)
(4.14993e-06 -1.80723e-05 5.27125e-20)
(0.000418315 0.000689791 -3.69527e-17)
(0.000435852 0.000632247 -1.24817e-17)
(0.000378519 0.000650916 -1.32962e-17)
(4.38133e-06 1.44877e-06 -1.45054e-20)
(3.31516e-06 8.99819e-07 1.49551e-19)
(0.000481334 -0.00190437 -4.15869e-20)
(0.000677607 -0.00167566 3.79511e-18)
(0.000786361 -0.00178386 -4.48065e-18)
(-0.00137391 -0.000844433 4.50767e-17)
(-0.0015195 -0.000652793 3.84175e-18)
(-0.00115074 -0.000834744 -4.00805e-18)
(-2.56932e-05 1.81066e-05 -1.92567e-18)
(-2.45123e-05 2.32535e-05 -2.29935e-19)
(-0.000243134 -0.000185633 -6.98209e-18)
(-0.00173646 8.13322e-05 2.32459e-17)
(0.000316316 0.000428611 4.80262e-18)
(4.55753e-05 0.000149349 3.09089e-18)
(5.0468e-05 0.000143951 -1.10468e-18)
(3.41205e-06 -1.41241e-05 5.3493e-20)
(3.32338e-06 -1.34797e-05 -1.14729e-18)
(-0.00469777 0.00268113 6.45035e-18)
(-0.00412065 0.00284909 -4.41059e-18)
(0.00024278 0.00129391 -9.11944e-18)
(0.000145543 0.00117032 -1.22499e-17)
(0.000148139 5.51422e-05 4.7165e-18)
(0.000157735 4.69278e-05 -6.71179e-18)
(0.00328508 -0.0016265 4.25346e-18)
(0.00306509 -0.00156735 5.53061e-18)
(0.00318886 -0.00133462 -1.35528e-17)
(-0.00505006 2.46727e-06 -1.03023e-17)
(-0.00497253 -2.29817e-05 -1.15333e-17)
(8.03932e-07 -3.44471e-06 6.53352e-19)
(4.5697e-07 -2.51941e-06 1.52489e-19)
(6.37873e-07 -2.66337e-06 2.79166e-19)
(-1.77008e-07 0.000155627 7.96131e-19)
(-6.32203e-06 0.0001566 -5.55124e-18)
(-0.00424284 -0.00110964 -2.5194e-18)
(-0.00409112 -0.00123229 -1.12843e-17)
(0.000937068 -0.000506869 -1.70903e-17)
(0.000978298 -0.000457986 -1.06121e-17)
(0.000886468 -0.000490363 -1.48471e-17)
(4.08035e-06 4.06493e-05 -1.25433e-19)
(5.0257e-06 3.83553e-05 2.82165e-19)
(2.09498e-07 2.66682e-05 2.48649e-20)
(1.28329e-06 2.78866e-05 -5.75379e-20)
(3.01185e-07 2.81259e-05 2.90493e-19)
(-0.00161993 0.000730676 -4.69703e-18)
(-0.0016051 0.00093262 -8.38454e-19)
(-0.00137138 -0.00151521 6.96753e-18)
(-0.00145719 -0.00139684 1.53531e-19)
(-0.00153577 -0.00154867 5.74905e-18)
(1.11666e-06 2.35419e-06 5.67156e-20)
(5.29603e-07 1.9341e-06 5.77457e-19)
(1.07547e-06 2.99107e-06 -5.30157e-19)
(-0.00404757 0.00310302 -1.71281e-18)
(-0.00373842 0.00330271 3.65786e-18)
(-0.00332056 0.00294717 4.48897e-18)
(0.000961553 -0.000182462 -4.70574e-18)
(0.000959831 -0.000274843 -1.19558e-17)
(0.000885869 -0.000222515 -3.98006e-18)
(-1.21777e-05 5.94675e-06 1.7666e-17)
(-9.43626e-06 8.75627e-06 1.24974e-17)
(-1.85463e-05 0.000215169 -3.36478e-18)
(-2.38978e-05 0.00022453 -2.51636e-18)
(-1.06177e-05 0.000221083 1.37712e-17)
(3.26557e-06 3.64996e-05 -1.71763e-18)
(4.52123e-06 3.83468e-05 -1.74072e-18)
(-6.30997e-05 2.5114e-05 -1.59581e-18)
(-6.03111e-05 3.09913e-05 -4.70647e-19)
(-5.65849e-05 2.50358e-05 -6.31828e-19)
(-0.00481855 -0.000180109 2.65294e-19)
(-0.00471999 -0.000200487 1.4657e-17)
(-0.00476471 -8.67293e-05 1.99886e-17)
(4.08975e-05 -5.07739e-06 1.89999e-18)
(4.13481e-05 -4.37591e-06 3.08311e-18)
(4.16044e-05 -4.66956e-06 -4.64593e-19)
(-0.000365075 0.00067832 1.08695e-17)
(-0.000358548 0.000625555 -1.98693e-17)
(-0.000309401 0.00066754 -2.00501e-17)
(1.09934e-05 0.00010431 4.58396e-17)
(2.42251e-05 9.28779e-05 -2.56028e-17)
(2.94598e-05 0.00011176 1.80798e-17)
(1.15504e-05 6.69749e-05 -9.39349e-19)
(1.33344e-05 7.05621e-05 -7.45674e-19)
(2.07828e-06 3.85094e-05 6.30528e-20)
(2.00373e-06 3.70596e-05 -4.51623e-18)
(-0.000691568 0.000195871 -1.25665e-18)
(-0.000767017 0.000181118 -1.85482e-18)
(-0.00073516 0.000258143 -3.98571e-18)
(-0.00038964 0.00136386 3.187e-18)
(-0.000633202 0.00114127 2.77961e-18)
(-0.000283111 0.00117309 2.58277e-18)
(-0.00100508 0.000250716 -1.31293e-19)
(-0.001004 0.000142302 -8.12266e-18)
(-2.31478e-05 1.97632e-06 -3.14483e-18)
(-2.11812e-05 2.47607e-06 -2.42341e-18)
(-2.17177e-05 -9.79509e-07 4.51859e-18)
(-2.55781e-05 6.24091e-07 1.30663e-18)
(1.03252e-06 5.2496e-06 -1.17453e-20)
(9.99962e-07 4.56196e-06 4.58565e-19)
(4.13816e-07 3.30815e-06 -1.76495e-19)
(0.00710169 -0.000108995 -1.34571e-18)
(0.00719232 -0.000111198 2.96843e-18)
(-0.00419987 0.00198155 -2.25869e-17)
(-0.00434645 0.00182427 -1.1076e-17)
(-0.00450814 0.00192669 -3.8529e-18)
(-0.00189071 0.00486796 1.38489e-18)
(-0.00229584 0.00481208 1.87702e-18)
(-0.0019648 0.00529418 -1.29039e-17)
(4.0341e-06 -1.6136e-05 1.34385e-18)
(3.85658e-06 -1.50911e-05 1.46935e-18)
(-0.00449039 0.000405187 -7.44979e-18)
(-0.0044415 0.000520885 -1.93467e-17)
(-0.00432302 0.000531625 -1.35019e-18)
(0.00304638 -0.000853272 -4.92151e-18)
(0.00306811 -6.98271e-05 3.93881e-18)
(0.00287229 -0.000639453 5.67314e-18)
(0.00390632 -0.00399056 -3.53529e-18)
(0.00374379 -0.00383801 -1.66428e-18)
(0.00122349 0.00296953 3.02399e-18)
(0.00179815 0.00285207 -3.01138e-19)
(0.000538857 0.000926909 -5.62977e-18)
(0.000650881 0.000875466 3.11506e-18)
(5.90985e-06 3.54549e-05 -2.50089e-19)
(6.88306e-07 1.58705e-06 -9.18355e-20)
(-2.77365e-07 1.89961e-06 1.04218e-19)
(1.60807e-06 3.1758e-06 4.06885e-20)
(0.000287054 -0.000211728 -1.26228e-17)
(0.000256419 -0.000206853 7.96417e-18)
(0.000268085 -0.000243831 1.44774e-17)
(-0.000924893 -0.00147326 3.38822e-17)
(-0.000633715 -0.0012719 1.45974e-18)
(-0.000938386 -0.00123646 7.54869e-19)
(0.000514969 -0.00141467 6.01495e-18)
(0.000622567 -0.00136041 4.09151e-18)
(0.000607727 -0.00151452 2.8007e-17)
(4.15124e-05 0.000106724 -3.63039e-18)
(4.36961e-05 0.000103257 -3.28658e-18)
(0.000397419 -0.000374548 6.38808e-18)
(-0.000987152 -0.000713306 1.17793e-17)
(2.94336e-05 0.000283299 3.62019e-18)
(2.62814e-05 0.000270619 1.60346e-17)
(1.31145e-05 3.8426e-06 4.54111e-19)
(1.33078e-05 4.88568e-06 -2.78582e-19)
(1.37695e-05 3.58108e-06 -1.39801e-18)
(-0.00560092 0.00241268 -2.40523e-17)
(-0.00565712 0.00234131 -8.84349e-19)
(-0.00529038 0.0023533 -1.38798e-17)
(1.60903e-06 -2.37764e-05 1.11375e-19)
(1.55832e-06 -2.2649e-05 -5.61932e-19)
(2.67043e-06 -2.23674e-05 -1.61743e-18)
(0.0031655 -0.00428962 -4.83408e-18)
(0.00291419 -0.00408511 1.27941e-18)
(1.12956e-05 1.11844e-05 4.35552e-18)
(9.55131e-06 1.586e-05 3.93994e-18)
(1.24155e-06 1.82005e-06 -3.30492e-21)
(1.79666e-06 2.59285e-06 -4.97607e-19)
(-3.3066e-05 4.21951e-05 -1.61816e-18)
(-3.20518e-05 4.56151e-05 -1.55926e-18)
(-3.1454e-05 3.70062e-05 7.70617e-19)
(-8.75863e-05 6.62887e-05 5.18974e-18)
(-8.12327e-05 6.33232e-05 3.02828e-18)
(-3.09616e-05 1.52699e-05 -1.39712e-17)
(-2.31059e-05 9.85726e-06 -2.64578e-17)
(-0.00414237 0.00332584 1.94065e-18)
(-0.00423702 0.00300815 -1.54242e-18)
(-4.7487e-05 5.61673e-05 1.73961e-18)
(-5.08668e-05 5.94914e-05 1.63941e-18)
(-4.79863e-05 5.0925e-05 -3.2206e-18)
(3.85118e-05 1.41116e-05 2.06864e-18)
(3.71194e-05 1.7755e-05 1.19882e-19)
(3.79677e-05 1.71638e-05 -2.79936e-18)
(0.00334804 0.00141105 6.47119e-18)
(0.00324972 0.00172406 4.81928e-17)
(0.00344275 0.00161304 1.65955e-17)
(0.003552 -0.00167767 8.49297e-18)