/*--------------------------------*- C++ -*----------------------------------*\
| =========                 |                                                 |
| \\      /  F ield         | OpenFOAM: The Open Source CFD Toolbox           |
|  \\    /   O peration     | Version:  v2012                                 |
|   \\  /    A nd           | Website:  www.openfoam.com                      |
|    \\/     M anipulation  |                                                 |
\*---------------------------------------------------------------------------*/
FoamFile
{
    version     2.0;
    format      ascii;
    class       surfaceScalarField;
    location    "600";
    object      phi;
}
// * * * * * * * * * * * * * * * * * * * * * * * * * * * * * * * * * * * * * //

dimensions      [0 3 -1 0 0 0 0];
oriented        oriented;


internalField   nonuniform List<scalar> 
20580
(
-0.132509
0.00880629
0.123702
0.127029
-0.249749
0.122722
0.259676
-0.132645
0.00626302
0.00249251
-0.00875553
0.586055
-0.622047
0.0360514
0.263758
-0.188174
-0.0755818
-0.30215
0.0475898
0.58058
-0.583213
0.00273736
-0.0147484
0.0120702
0.00267823
0.422949
-0.246298
-0.176647
0.143049
0.0110812
-0.15413
-0.519472
0.313882
0.205606
-0.207113
0.284737
-0.0776215
0.0035163
-0.000907651
-0.00260865
0.191183
-0.0344249
-0.156757
-0.11634
0.101242
0.0150989
0.00815136
0.00537929
-0.0135307
-0.172198
0.358043
-0.185835
0.0992522
-0.110345
0.011093
-0.117953
-0.0145558
0.0626639
-0.193654
0.130991
0.233933
-0.202281
-0.0316507
0.0250599
-0.0395511
0.0144912
-0.585695
0.59222
-0.00651375
0.0799955
-0.094542
0.0145465
-0.00164854
0.117234
-0.115585
-0.016691
-0.0666729
0.0833639
-0.0919625
0.0744029
0.0175597
-0.00683217
0.0241048
-0.0172727
0.487204
-0.325345
-0.161832
0.00543463
-0.00319483
-0.0022398
-0.225773
-0.0763743
-0.114642
0.128313
-0.0136708
0.0239953
-0.0174966
-0.00649863
-0.155288
0.150301
0.00498741
-0.0171575
-0.00632048
0.023478
-0.615379
0.0296895
0.0100064
-0.0684301
0.0584237
0.00186141
-0.000528524
-0.00133289
-0.130488
-0.161679
0.292173
-0.0048387
-0.00462661
0.00946531
-0.0265631
0.019731
0.014737
-0.014737
0.0949073
-0.0025954
-0.0923119
0.0230315
-0.0297189
0.00668734
0.451963
-0.278976
-0.172973
-0.540269
-0.0702819
-0.130732
0.0483146
0.0824171
-0.0516648
-0.212683
0.264351
-0.298399
0.0912865
0.0124781
-0.0126488
0.000170691
0.14495
-0.284172
0.139224
-0.102157
-0.0141831
-0.0495238
-0.126659
0.176184
0.00589355
-0.000925635
-0.00496792
0.103162
-0.233646
0.00894989
-0.123592
-0.00822126
0.00338256
-0.0223491
0.0921196
-0.0697704
0.00257147
-0.0022211
-0.000350366
-0.355996
-0.163459
0.0723946
-0.0890856
-0.218389
-0.196503
0.414895
-0.195448
0.143786
-0.0424049
0.0904802
-0.0480753
-0.081461
0.0390561
0.00311
-0.000538528
-0.0935829
0.0645404
0.354957
-0.249234
-0.105716
0.00427422
0.00351366
-0.00778788
0.0080268
-0.00019773
-0.00782907
0.166855
-0.186369
0.0195141
-0.0326167
-0.221831
0.254452
-0.00243221
0.00021111
0.180947
-0.0187178
-0.162228
0.22109
-0.215493
-0.00559501
0.0161067
-0.00795529
0.343629
-0.529371
0.185792
0.0945178
-0.0145223
0.450223
-0.216725
-0.233482
0.246356
0.108608
-0.104129
0.11943
-0.0153016
-0.0221704
-0.133118
-0.00141361
0.0029799
-0.00156629
-0.00158737
-0.000844845
0.00503821
-0.00704477
0.00200657
0.0653465
0.168588
0.0116411
-0.00167731
-0.00996381
0.230018
0.146613
-0.376625
0.00306516
0.00236947
0.267227
-0.122277
-0.306772
0.0810016
0.0141561
-0.0141561
0.00853123
-0.00349303
-0.00326418
0.00379355
-0.000529369
0.0263897
0.0701854
-0.0965751
0.147676
-0.352814
0.205151
-0.0907709
0.109045
-0.0182738
0.00838558
-0.00923254
0.000846954
0.0179003
0.0960483
-0.113949
-0.112075
0.0213039
0.122517
-0.0473446
-0.0751719
0.0834183
-0.119784
0.0363659
-0.168895
-0.0798139
0.248712
-0.470787
0.131914
0.338887
0.133009
-0.173341
0.0403329
-0.165177
-0.305594
0.00753254
0.000494257
-0.0766656
-0.230104
-0.339314
0.167126
-0.00918833
0.152262
-0.143073
0.33811
0.113868
-0.102967
0.117431
-0.0144645
0.0165982
0.112696
-0.129294
-0.118529
0.111315
0.00721384
0.163949
-0.213472
0.169318
-0.400151
0.230869
0.469453
0.111235
-0.00327309
0.00953611
0.00729563
-0.00302141
0.0719401
-0.101676
0.0297357
0.160077
-0.420454
0.260396
-0.276211
0.289237
-0.0130209
0.00357088
-0.00148569
-0.00208519
0.0844643
-0.113984
0.0295194
0.026934
-0.0660661
0.0391321
0.343258
-0.195568
0.0551131
0.0946293
-0.149742
0.00842662
0.00372434
-0.012151
0.148312
0.0169593
-0.165271
-0.199442
-0.00283765
-0.134908
0.187145
-0.0522362
-0.0748659
0.0848723
0.0147542
0.00924107
-0.00267307
0.145722
-0.000513097
-0.00386947
0.00438257
-0.0483828
-0.00551941
-0.00152536
-0.0116985
0.124204
-0.112505
-0.16561
0.0245975
0.141013
-0.109015
0.0048863
0.251267
-0.230527
-0.0207379
-0.066721
0.296744
-0.0780677
0.00156112
0.0765066
-0.0023847
-0.0628173
0.0652021
-0.0377596
0.230269
-0.192507
0.518073
-0.174391
0.0053364
0.0170547
-0.0146448
-0.00240991
-0.0662291
0.121342
-0.0572896
-0.0547851
-0.11336
0.0103937
-0.106706
0.123304
0.104547
-0.0988586
-0.00568841
-0.215092
-0.021562
0.236655
0.128424
0.188713
-0.317136
0.311542
0.213214
-0.524733
0.00234975
-0.000488332
-0.18794
0.0912155
0.0967243
-0.0507725
0.210966
-0.160191
-0.417481
-0.163534
0.581032
0.0254122
-0.0209114
-0.00450087
0.160767
-0.0277582
-0.0427678
-0.0879638
0.00154904
0.00196726
-0.0247346
0.00463202
0.0201025
-0.0174754
-0.00725921
0.0119686
0.000509476
0.156385
-0.165573
0.046115
-0.0424826
-0.00363241
0.535808
-0.328458
-0.207334
0.440628
-0.271263
0.157656
-0.143733
-0.0139225
0.551651
-0.110797
-0.440808
-0.0019786
-0.00128557
-0.0726565
-0.019944
0.0926005
0.0923183
-0.10593
0.0136118
0.257196
0.183474
0.185541
-0.16714
-0.0183998
0.110812
-0.0184942
0.102916
-0.0184521
0.121297
0.00771898
-0.174295
0.166577
0.18481
-0.0364973
-0.0151403
0.0151403
0.00547773
0.011577
0.0948967
0.0334166
-0.0722028
-0.0589609
0.131164
0.228884
0.00638653
-0.235269
-0.135693
-0.241797
0.377511
-0.0735244
0.0711397
-0.131649
-0.0562902
-0.0015466
0.000638952
0.132141
0.131618
-0.226265
0.188508
-0.0984776
0.116314
-0.0178364
0.119502
-0.0246053
0.202244
0.104832
-0.307068
0.128597
-0.314889
0.1863
-0.0114502
-0.0709177
0.082368
0.113172
-0.11396
0.000788464
0.00160269
-0.000861747
-0.000740945
0.00929633
-0.00418853
-0.0051078
0.0164536
0.174729
-0.0045401
-0.0500342
0.0545743
0.00268376
-0.00108107
0.193554
-0.211647
0.0180936
0.12089
-0.136545
0.0156549
0.0151097
-0.00582033
-0.00928934
0.203849
-0.0103713
-0.193476
-0.10349
0.10722
-0.00373024
-0.244975
-0.0312317
0.00415705
-0.646712
0.399012
0.247706
-0.134918
0.16065
-0.0257318
-0.213449
0.182731
0.0307197
-0.246533
-0.0518644
-0.00687789
0.0852514
-0.0783735
-0.175539
-0.140433
0.31598
-0.00190422
0.0238568
-0.203581
0.460823
0.121894
-0.110219
-0.0116749
-0.00197753
0.000563917
-0.00293982
0.00398619
-0.00104637
0.0339816
-0.138697
0.104715
0.141985
-0.0210938
0.668651
-0.363796
-0.304846
-0.0290463
-0.0490214
0.171464
-0.456156
0.284708
0.0153837
0.00288593
-0.00452712
0.00164119
0.084716
-0.156919
-0.0353342
0.239185
-0.480429
0.222561
0.00317241
0.00612393
0.229593
0.257643
0.0714722
-0.0464123
0.00673184
-0.00271201
-0.00401983
-0.102954
0.120855
0.142309
-0.559782
-0.0394359
0.0870257
-0.0475898
0.00184957
-0.00106289
-0.000786671
-0.00661742
0.0296489
-0.00224823
0.179927
-0.179122
-0.000804143
0.0629184
-0.0600966
-0.00282176
0.0830919
-0.0899698
0.0287841
0.156757
0.0993962
-0.0292108
0.152817
-0.157971
0.00515481
0.000723094
-0.00601331
0.00529022
-0.107054
0.117035
-0.00998016
-0.311668
0.650353
-0.338578
0.0589489
0.155143
-0.214091
0.0105672
0.0242034
0.00120885
-0.00879835
-0.00344759
0.0122459
-0.349534
0.213863
0.0502163
0.185913
0.154856
-0.340765
0.0998725
-0.0957034
-0.00416901
0.112116
-0.103434
-0.00868189
-0.0993153
0.158265
0.146349
0.0144188
-0.129968
0.0229132
-0.093772
0.302405
-0.208627
0.0543393
0.0681773
-0.1305
0.0410548
0.0894452
0.10011
-0.0775411
-0.022569
0.458871
-0.189892
-0.268968
-0.293296
0.046764
0.118698
-0.0144263
0.0210521
-0.0066258
0.0127663
-9.25155e-05
-0.0126738
0.154458
-0.0169895
-0.137468
0.389984
-0.229891
0.0932922
0.00962431
-0.0989924
0.105285
-0.00629221
-0.0945482
0.118928
-0.0243801
0.159285
-0.0129358
-0.0187799
0.00435368
0.00676821
-0.00705549
0.000287272
0.147661
-0.196178
0.0485187
-0.102174
-0.0606618
0.162836
-0.0773535
0.0861705
-0.00881698
0.183347
0.168431
-0.351763
0.226116
0.297417
-0.523511
-0.112787
0.0182392
-0.0219285
0.143183
-0.121254
-0.462243
0.23182
0.230448
0.494308
0.129307
-0.623602
0.405486
-0.234008
-0.566824
0.5736
-0.00669975
-0.0175754
-0.15507
0.172646
0.53768
-0.011222
-0.00352645
-0.0903538
0.153018
0.151812
-0.288732
0.136927
0.0070459
0.00306417
0.000506711
0.058312
0.213736
-0.272046
0.0039413
0.0102343
0.000212831
-0.0104471
0.0706586
0.18061
-0.182358
0.240671
-0.215341
0.124987
0.00134703
-0.000692888
-0.000654139
0.0109487
0.00166263
-0.0126113
0.159885
-0.0272085
-0.132676
0.463463
0.122654
0.0464398
-0.000324867
0.179828
0.144675
-0.150659
0.00598414
0.0104574
-0.000223126
0.092506
-0.0833175
-0.00918854
-0.256194
0.205425
-0.0916653
0.0143118
-0.00771329
0.0902334
-0.0825201
0.00493267
-0.00656477
0.0016321
0.109796
-0.00078174
-0.109014
0.0439342
-0.109548
0.0656134
0.000518273
-0.00103137
0.00572926
-0.00273816
-0.0029911
-0.0325259
-0.0594366
0.316714
-0.18811
-0.00483311
0.0137859
-0.00895282
-0.00721708
0.00721708
0.00316533
-0.0303964
0.0272311
-0.0371912
0.0403565
0.144277
0.0492773
0.161745
-0.0285965
-0.133148
0.021289
-0.155786
0.134497
0.00500935
0.00663178
0.0526318
-0.111148
0.0585166
-0.217409
-0.30254
0.520031
-0.105866
-0.434288
-0.0486785
0.180014
-0.131334
-0.00250714
0.00743981
0.0264554
0.371864
-0.188498
0.000853722
0.0503966
0.112857
-0.163253
-0.181043
0.0461354
-0.0462594
0.257228
0.00102536
0.000321664
0.0981004
-0.00480823
0.0141568
-0.00964222
-0.203805
0.184526
-0.219858
-0.0276799
0.0234032
0.00427677
0.246258
-0.0173718
0.00555464
-0.0630443
0.210706
-0.126318
-0.0890231
0.139253
-0.0888564
0.332531
0.290347
-0.138527
0.119179
-0.133341
0.014162
-0.0218715
0.11792
-0.113791
0.120436
-0.0066446
-0.0825792
-0.0196525
-0.00802742
0.190943
0.0393266
0.00254331
-0.106483
0.0930133
0.0134694
-0.193191
0.433302
-0.240085
0.0913447
0.00116138
-0.106548
0.125595
-0.0190471
0.00850153
-0.000115947
0.16872
-0.217398
-0.136838
0.00748418
-0.0901608
0.0678117
-0.0842457
0.0788225
0.00542318
0.111763
-0.12301
0.0112472
0.0110398
-0.00883289
-0.00220688
0.28919
-0.237435
-0.051751
0.0197346
-0.0923911
0.00170905
0.013028
0.0183345
-0.184054
0.16572
0.00669396
-0.00597086
-0.0289972
-0.152912
0.181909
-0.00881578
0.00393299
0.00488279
0.082595
-0.184768
-0.0318913
-0.130771
0.118559
-0.115925
-0.00263311
0.0591955
-0.0917359
0.0325405
0.306744
-0.178317
0.237389
-0.154813
-0.0825749
0.0924271
-0.114355
0.013807
-0.29513
-0.0244494
0.31959
-0.00645999
0.160918
-0.0341568
0.00132026
0.0328366
-0.209517
0.176904
-0.0750656
-0.0614791
-0.0105444
0.0119612
-0.00141673
0.10321
-0.255093
0.151885
-0.0455393
0.111543
-0.0660041
-0.156785
0.151628
0.00515663
-0.00331227
0.0142609
0.188942
-0.199312
0.130474
-0.132123
-0.0654435
0.0609034
-0.00186755
0.16387
-0.157098
-0.00677207
-0.013879
0.00508064
0.000262199
-0.0873089
0.047873
-0.279865
0.186099
0.116739
0.00244056
0.155291
-0.18067
0.0253794
-0.124284
-0.0125543
0.41906
-0.2083
-0.210744
-0.0153776
0.0153776
-0.0082499
0.0303555
-0.0221056
-0.0784821
0.0862408
-0.00775865
-0.055143
0.239671
-0.0114089
0.0853507
-0.0792956
-0.00605511
0.011724
0.00104226
0.486431
-0.215704
-0.270689
-0.0148473
0.0100142
-0.108395
0.10229
0.00610534
-0.0100656
-0.00753888
0.0176045
0.167037
-0.0142198
-0.0171502
-0.0674996
0.0846498
-0.0400077
-0.237683
0.277694
0.56944
-0.0177446
0.000259124
0.00563443
0.0887277
-0.00981346
-0.0789143
0.14563
0.277323
-0.208314
-0.0414325
-0.136268
0.0612027
-0.157955
0.462207
-0.304209
-0.0367873
0.0285374
0.0352584
0.126487
-0.123827
0.0172792
-0.224065
0.220049
0.00401724
0.0132351
0.275959
-0.329209
0.250585
0.078624
-0.0776958
-0.00654988
-0.0791684
-0.209555
-0.0294375
-0.299772
0.0166594
-0.0604033
0.043744
-0.0342813
0.000124515
-0.169205
-0.0302358
0.0198377
-0.0908872
0.0710495
0.216046
-0.434434
0.516277
-0.218836
0.273381
-0.170168
0.00324337
0.126659
-0.145408
0.0187488
-0.327496
0.029444
0.29806
-0.316388
0.214653
0.101739
-0.0341014
0.106042
-0.121597
0.298342
-0.176741
-0.0225531
0.0190604
0.00349274
-0.170246
-0.380332
0.550602
-0.153259
-0.0591326
0.212393
-0.0136868
-0.016032
0.00489251
-0.0948587
0.0899664
0.432898
-0.612319
0.179522
0.498943
-0.199207
-0.299721
-0.197418
-0.0266451
0.321488
-0.125654
-0.195827
0.0856916
-0.0985106
0.012819
-0.055305
0.0477571
0.00754786
0.192576
-0.0126484
-0.00994215
-0.035529
0.0454712
0.21824
0.266269
-0.486553
0.220298
-0.00651121
0.0124349
-0.00592372
-0.0703231
-0.157073
0.0828337
0.0742394
-0.299999
0.273199
0.0268046
0.00424357
-0.124924
0.113226
0.0695202
-0.0181972
-0.051323
-0.23729
0.0683967
-0.170984
0.00339384
0.167591
-0.0215784
-0.197221
0.170703
0.0265191
-0.00886373
0.00612557
0.0887673
-0.00341659
-0.0889806
0.0104985
-0.233766
0.0828432
0.150924
-0.00356397
-0.159881
-0.149811
0.3097
0.00319347
-0.137304
-0.0194803
0.0395016
0.0800005
0.179687
-0.024395
0.21145
-0.109389
0.114282
0.12906
-0.447538
-0.174461
-0.0134445
0.0127139
0.0007306
0.00393631
-0.0104475
-0.00578458
-0.0167685
-0.00876535
-0.000703825
0.00946917
-0.0386456
0.00663752
-0.0142072
0.00756964
0.00185038
0.148755
-0.027256
-0.121499
0.577492
-0.30792
-0.269565
0.0455099
-0.0910492
0.147854
-0.394149
-0.375319
0.0802005
0.0178914
-0.137511
0.11962
0.00253857
-0.000733001
-0.00180557
-0.0598281
-0.186656
0.246487
0.205457
-0.228207
0.0227515
-0.139346
0.0974985
0.0418479
-0.147975
0.00977871
0.138197
0.395949
-0.181424
-0.214524
-0.0250569
-0.018845
0.0439018
0.461184
-0.287474
-0.173699
0.013824
-0.00944558
-0.00437841
0.0867126
-0.00102102
0.166178
0.284059
-0.300773
0.206708
0.0940683
0.100167
-0.106234
0.0060677
0.0167927
-0.232621
0.0625238
-0.0727683
0.0102445
-0.0375037
0.0830137
-0.142945
0.358888
-0.215921
-0.00473135
0.0043199
0.000411448
-0.00924868
0.108501
0.108113
-0.103936
-0.00417734
-0.0491412
-0.184624
-0.012116
-0.0482874
-0.00449048
-0.000383313
0.00487379
-0.33917
0.196241
-0.00688975
-0.0836467
0.0905365
0.369596
-0.178565
-0.191024
0.108381
-0.0553255
0.0652393
-0.00991375
-0.00697782
-0.00183796
0.193476
-0.171696
-0.0217797
0.144675
-0.0180147
0.231094
-0.405371
0.174279
0.119569
-0.121303
0.00173365
0.0129364
-0.00450976
0.00348994
-0.00271722
-0.000772724
-0.257571
0.398324
-0.140737
-0.0159348
0.00916879
0.006766
-0.351935
0.120368
-0.00947056
0.166058
-0.160937
-0.00511943
0.336448
0.150019
-0.076914
-0.138577
0.00364787
-0.00350156
-0.000146307
0.116874
-0.0576787
-0.00108348
0.204915
-0.26474
-0.174304
0.329165
-0.0139563
0.02054
-0.00658365
0.143176
0.408134
-0.551298
-0.116683
-0.00183898
0.118522
-0.179592
0.245728
-0.0661349
0.182691
-0.166407
-0.0162829
0.190451
-0.0358596
-0.15459
-0.0258543
0.0328777
-0.00702337
0.00710888
-0.000340666
0.0890373
-0.228251
0.139216
0.0148844
-0.0131754
0.089477
0.180439
-0.269912
-0.000333564
0.129528
-0.129195
-0.0189457
-0.00761742
0.00654666
-0.00747229
0.28319
-0.316307
0.0331226
0.142529
-0.00748192
0.0909002
-0.00380046
0.000298894
0.011013
-0.0883514
0.0773384
-0.0172428
0.136812
0.0907999
-0.0212797
0.186756
-0.0206972
-0.0762256
0.158821
-0.00260737
0.0054933
0.0369556
-0.00496053
-0.0319951
-0.05703
0.122413
-0.0653829
0.0103252
0.00349884
-0.0816549
0.0938532
-0.0121983
0.00475418
0.0223155
-0.0270697
0.311194
-0.209895
-0.101295
0.0814155
0.0107041
0.075652
-0.0928022
0.516666
-0.244889
-0.271763
0.0128573
0.00129885
0.0262089
-0.00951676
-0.0166921
0.164105
0.0192006
0.310336
-0.133352
-0.176979
-0.0468023
0.0368602
-0.110714
0.125731
-0.0150174
-0.0253234
0.0416374
-0.0163139
-0.26295
0.183788
0.604364
-0.0566897
-0.547638
-0.0961641
0.129848
-0.0336836
-0.131136
-0.0168389
-0.503893
0.333673
0.00055997
0.504482
0.099918
-0.0976763
0.0160215
0.223136
-0.21462
-0.00851504
0.00951325
-0.133797
-0.254163
0.174353
0.210091
0.185859
-0.133395
-0.00377605
0.137171
-0.00703352
-0.00890127
0.173469
-0.149684
-0.0237855
0.000116717
0.016162
-0.28777
0.485172
-0.197368
-0.421947
0.0170998
0.404865
0.00410321
-0.147837
-0.148193
-0.168192
-0.0986311
0.125979
-0.0273476
-0.265657
0.176309
0.0893505
-0.11357
-0.0435026
0.0883303
-0.0069148
0.326988
-0.558257
0.231275
-0.00972968
0.0115213
-0.00179162
0.308649
0.36001
-0.109306
0.0998557
0.00945013
0.0114092
0.00347526
-0.0179027
-0.00543987
0.0233426
0.0176371
0.0250628
-0.0503863
-0.0518425
-0.0875037
0.0941071
-0.113644
0.0195374
0.0210091
0.00519977
0.228836
-0.380601
0.151779
-0.0369561
0.0118993
0.134146
-0.15293
0.171266
-0.000439711
-0.00832563
0.00477719
0.085405
-0.0901822
-0.352508
0.159337
-0.12559
0.0269593
-0.10748
0.309731
-0.019264
0.0240182
-0.0143598
0.00298869
0.0113711
0.0174122
0.19221
-0.209617
0.0530902
-0.0250785
-0.00884061
0.0339191
0.61938
-0.329963
-0.289409
0.38228
0.237106
0.129523
-0.0122888
-0.0110032
0.00127349
-0.052198
0.0638573
-0.0116593
-0.218829
0.0364721
0.12261
-0.111115
-0.0114948
0.160726
-0.282319
0.318288
-0.382207
0.0639211
0.0672865
-0.084985
0.0176985
0.00668421
0.137358
-0.0934855
-0.0438725
0.166493
0.312735
-0.479178
-0.0646297
-0.0658703
0.0918408
0.0388755
-0.130716
0.0239876
-0.137183
0.113196
-0.265588
0.0851172
0.180471
-0.197011
-0.0292527
-0.127738
0.0170242
-0.177128
0.0809637
-0.127577
0.0848094
0.01248
0.154376
-0.126214
-0.0601544
-0.119668
0.0626383
-0.0921216
0.0739244
-0.0323078
-0.0780373
0.026178
-0.0387299
0.012552
-0.00820473
0.0707286
-0.0763252
0.0190356
0.00375859
0.00111017
-0.00486876
-0.0251477
-0.102448
0.127596
0.00895302
-0.0642786
-0.00210581
0.153934
0.188664
-0.342587
0.105333
-0.181558
-0.121308
0.0890007
-0.0136023
0.184117
-0.170514
0.220954
-0.437662
-0.452851
0.246182
0.206686
0.115462
-0.102036
-0.0134259
0.00148501
0.00955476
-0.207271
0.0540129
-0.00509751
0.00238551
0.190418
-0.478151
0.0117387
-0.0639367
-0.0382967
0.0976642
-0.0593674
0.0114491
-0.000991701
-0.0884909
-0.0370994
-0.0199406
0.208884
0.102193
0.157486
0.000899197
0.0105499
0.0775357
0.0598224
-0.143586
0.118439
0.00943217
-0.316552
0.329792
-0.0872101
0.101618
-0.0144082
0.00615633
-0.0619749
-0.0357013
0.184727
-0.0275022
-0.157225
0.111536
-0.108159
-0.00337759
-0.251507
0.211502
-0.338057
-0.0304732
-0.181174
0.339943
-0.0216528
0.0247495
-0.00718855
-0.0175609
-0.414297
-0.152468
0.0862055
-0.018919
0.00709574
-0.122592
0.0341016
0.00272875
-0.00173402
-0.000994731
-0.00387596
-0.00535657
-0.096652
0.034677
-0.0147019
0.108809
0.166481
-0.148843
0.138362
-0.236683
-0.0566118
0.0232299
0.339868
-0.363055
-0.00155407
-0.420374
0.393721
0.148253
-0.130868
-0.0173851
-0.0234522
-0.088786
0.112238
0.10407
-0.0122289
-0.0114681
0.085871
-0.244455
0.0120087
0.232449
0.00388768
0.482286
0.114729
0.00701135
-0.00451883
0.00915994
-0.143375
0.134215
0.0380377
0.444252
0.233694
0.245603
-0.479295
-0.015481
0.0227485
-0.00726756
0.0307137
-0.218886
0.0240105
0.0299281
-0.0539387
0.0229202
-0.0019111
0.115813
0.0942869
-0.125169
0.0308824
-0.233675
-0.149796
0.383492
0.00253067
-0.0200273
0.00251342
0.158282
-0.160795
0.0586621
-0.245315
0.0033453
0.341023
0.183017
-0.524038
0.0227817
-0.253307
-0.155725
-0.184439
0.340176
-0.0183575
0.147781
-0.129423
-0.00662785
0.0074223
-0.000794447
0.0278896
-0.193622
0.165733
-0.174971
0.175209
-0.000236725
-0.115238
0.00684255
0.00408804
-0.0005981
-0.173393
0.114432
0.0143738
0.137181
-0.151554
0.0265294
-0.00558029
-0.0209492
-0.358955
0.382232
0.020209
-0.33013
-0.191785
0.521938
0.0475931
0.250752
-0.078175
-0.0114022
0.0895772
-0.0755607
0.117873
-0.0423125
-0.016977
-0.101552
0.118682
-0.0142418
-0.10444
0.0163716
-0.540817
0.313136
0.227682
0.372908
0.224107
0.119533
-0.119866
0.235448
0.0757507
-0.121952
-0.418864
0.20032
-0.224501
0.0241826
0.115517
-0.00549712
-0.11002
-0.400179
0.436034
-0.0358189
0.0938214
-0.108189
0.0143672
0.0243333
-0.057012
0.0474887
0.00952331
0.00147111
0.117211
-0.00182997
-0.000245499
0.00207547
-0.0031988
0.127403
0.479386
0.120249
-0.118654
-0.00159535
-0.519116
0.238252
0.280895
0.139355
0.098036
-0.0151602
0.0413382
0.0251304
-0.00172719
-5.29997e-07
-0.0298801
0.0242998
-0.179843
0.303616
-0.123767
-0.193088
0.210505
0.118967
-0.077808
-0.0411584
0.224142
-0.208878
-0.0152618
-0.188485
-0.193708
0.38221
-0.0139264
-0.0256247
0.0958059
0.00406655
0.000716303
0.00635151
-0.00706781
-0.0161693
-0.117617
0.0420568
-0.347087
0.305035
0.0420538
0.00806033
-0.333383
0.102087
-0.0554859
-0.0466008
-0.0813272
-0.0424999
0.252511
0.487525
0.139755
-0.627277
0.0290275
0.0822879
0.106199
0.00069833
-0.106897
-0.00116452
-0.253602
0.0385112
-0.629541
0.364154
0.26541
-0.00748406
0.000856212
-0.25313
-0.0124569
-0.0170446
-0.160032
0.177077
0.360504
-0.518409
0.00164602
0.000459194
-0.00210521
-0.480832
0.169256
-0.0170034
0.003828
-0.282439
-0.121874
0.404317
0.011513
-0.114467
0.180707
-0.155907
-0.0247996
0.132001
-0.070656
-0.0613445
0.00975691
-0.313745
0.0919181
-0.263875
0.152896
0.110981
0.599132
-0.348302
-0.250784
-0.0177719
-0.067518
0.0852899
0.0736613
-0.240577
0.166917
-0.0157447
0.0122971
-0.0492389
0.256009
-0.206767
-0.0813523
0.0272534
0.054099
-0.00540936
-0.009502
0.0149114
0.0164051
-0.17571
0.159305
-0.159775
0.413425
-0.253602
-0.000580698
-0.00796459
0.00854528
-0.0392654
-0.00992488
0.0491902
0.226879
-0.137841
0.097465
0.0204084
0.0442307
-0.280913
-0.0119535
0.000516845
0.0114367
0.32666
-0.172716
-0.0639845
-0.0573239
0.474099
-0.224165
-0.249921
0.428631
0.170536
0.05935
-0.0353394
0.0113289
0.290309
0.208648
-0.183277
0.0566183
-0.00434191
-0.00352305
0.00786496
-0.0529494
0.065083
-0.0121336
-0.0350666
0.00998811
-0.131757
-0.217755
-0.00192413
0.00568272
0.115038
0.343842
-0.608601
0.208465
-0.229064
0.207504
-0.407508
0.301726
0.2893
-0.550571
0.261276
0.0314478
-0.0108117
-0.0206361
0.0424695
-0.0126223
-0.0298472
-0.277642
0.102109
-0.436217
0.536171
0.145624
0.047853
0.0699515
0.268167
-0.00759056
0.00700986
-0.0027607
-0.00149847
0.00188082
-0.00136254
-0.179956
-0.0839168
-0.0865223
0.250224
0.266456
-0.0288406
-0.164813
0.068915
-0.107212
-0.143683
0.372534
0.185413
-0.515528
-0.103867
0.0924595
0.0114077
-0.00559665
-0.00876317
0.12376
-0.0294732
-0.00976098
0.153649
-0.0217432
-0.131905
-0.40994
0.213442
0.158786
-0.00832025
-0.150465
0.119322
-0.0218564
0.0132528
-0.014012
0.000759161
0.155637
-0.173211
0.0630267
0.00779508
-0.0708218
-0.119036
0.0377093
0.0639579
0.430361
0.0121834
0.00847825
-0.0206616
-0.0037734
0.0159568
0.00126708
0.00837787
-0.00964495
-0.0687472
-0.0515208
0.0622448
-0.010724
-0.0965778
0.179422
0.0582926
0.00462585
-0.021193
0.088131
-0.066938
-0.191827
0.178226
-0.586476
0.369151
-0.0327772
0.0300444
0.00273275
-0.234939
0.223386
0.0115554
-0.477969
0.318244
0.0357375
0.247458
-0.218741
-0.0161961
0.000913021
-0.108107
0.225466
-0.383257
0.157811
0.00680241
0.151984
-0.000782575
-0.00119495
-0.125127
-0.117463
0.242593
0.00219358
0.0129467
0.0785309
-0.220764
0.142234
0.00351052
0.106086
-0.109596
-0.000885559
0.00465322
-0.00376766
-0.290654
0.0793141
-0.0683011
-0.220829
0.113873
0.106956
0.177521
-0.161115
-0.0641007
0.0111513
-0.0210662
-0.102594
-0.00157281
0.104166
0.154462
0.00677045
-0.0111124
-0.161387
0.322128
-0.160734
0.00144453
-0.0119082
0.0104637
-0.0209379
-0.163115
0.00221337
-0.00154596
-0.000667411
-0.0137558
0.0128334
0.000922386
0.0101283
-0.00868377
0.000611945
0.130695
-0.131307
-0.144252
-0.156006
0.300262
0.119853
-0.29969
-0.327884
0.657383
-0.329491
-0.17491
0.41923
-0.108374
-0.31085
-0.00513939
-0.162153
-0.0121417
0.021898
-0.153433
0.131536
-0.0544398
-0.118953
0.118603
-0.215179
-0.368831
0.237098
0.00145155
-0.189457
0.188007
-0.175331
0.168295
0.00703744
-0.150179
-0.150592
-0.125071
0.190419
0.0122081
0.00495767
-0.0171657
-0.0137237
-0.0705443
0.0842681
0.0238551
0.168047
-0.191901
-0.138977
-0.00330354
0.14228
-0.0242142
-0.00856298
0.22824
-0.00435887
-0.0022059
-0.561909
0.203001
0.141642
0.000760209
-0.142401
-0.134699
0.208361
-0.19102
0.355674
-0.164644
0.110758
-0.140297
0.0295389
-0.158851
0.425134
-0.148918
0.374408
-0.0604354
0.10437
-0.0925446
0.281259
0.101543
0.0139744
-0.301458
0.153269
-0.0128573
0.00112497
0.0117323
-0.0833304
0.0963624
-0.013032
0.0108534
-0.09538
0.0845266
0.0815122
-0.0884019
0.135103
-0.328829
0.193734
1.15291e-05
-0.114977
0.10753
0.00744688
0.528329
0.00878708
-0.0224111
-0.205794
0.00112037
-0.00547924
0.209303
-0.207819
-0.00148374
-0.0654446
0.065975
0.0253697
-0.0110569
0.00051246
-0.12556
0.089104
0.0364561
0.124396
0.190688
-0.315077
-0.0324717
-0.0214123
0.0873873
0.0137185
-0.108953
-0.111876
0.323338
0.161868
-0.258927
0.38909
-0.130147
0.0632548
0.09663
0.255065
-0.305713
0.0506516
0.000487396
-0.00497787
5.55593e-05
0.276667
0.300832
-0.0458005
-0.0606821
-0.105121
0.0268296
0.0782915
-0.305699
0.149986
-0.00683
0.0190381
-0.0102361
-0.00676731
0.106631
-0.0108252
-0.215937
0.166701
0.00732465
0.025553
0.152356
-0.162287
0.479091
-0.316777
0.00580463
-0.00508833
-0.130289
0.144663
0.378133
-0.260941
-0.11718
0.425351
-0.180817
-0.244521
-0.190719
0.172002
-0.165005
0.140222
0.0247838
0.0115398
-0.0173602
0.000912142
0.00215302
0.0205552
0.134569
-0.155123
0.0202362
-0.00436732
-0.0158689
0.0677071
-0.215578
0.147871
0.164529
0.159046
-0.323571
-0.0854185
0.04025
0.0451684
-0.236875
-0.215959
-0.0122733
-0.0792916
0.0915649
-0.401237
0.593609
-0.246099
-0.34747
0.129535
0.0798166
-0.20935
-0.0810991
0.00263187
-0.0150393
0.0124074
-0.00997186
-0.00198166
-0.0792807
0.091448
-0.0121673
0.000130414
-0.00683674
0.00670632
-0.00607611
0.0228204
-0.0167443
0.121028
0.0277271
-0.0915138
-0.208481
-0.150518
-0.150937
0.0168366
0.139411
0.502731
0.0363
-0.538929
0.146206
-0.137046
0.0163428
-0.0322055
-0.0529216
-0.115143
0.548145
-0.105734
0.142958
-0.0372234
-0.00546066
-0.100527
0.110612
-0.0100845
-0.00580002
-0.00893701
0.125231
-0.101694
0.438182
-0.166714
0.091547
-0.0885975
-0.00294947
0.0189752
0.181346
-0.0044944
-0.00765655
0.027133
-0.299827
-0.329691
0.142431
0.235716
0.442391
-0.273152
-0.169227
0.219975
-0.0372425
0.0961428
-0.0927424
-0.00340043
-0.00572298
0.0280385
0.00466841
-0.0201494
0.0560971
0.110384
0.313666
-0.472505
0.016138
0.0854803
0.228817
0.0926761
0.0139734
-0.081473
0.00260902
-0.00299233
0.131463
-0.113571
0.00135354
0.00781525
0.00580378
-0.00544767
0.0036177
0.0181495
0.113785
-0.131934
-0.0240241
0.179661
-0.00737086
0.00544672
0.188233
-0.164377
0.0765631
0.0894715
-0.166034
0.0877949
0.0311716
-0.0198231
0.336124
-0.143895
-0.192224
0.050058
0.015025
0.325466
-0.160934
-0.0314747
-0.0116339
0.0431086
0.0025664
-0.377352
-0.184512
0.173995
0.147799
-0.0370406
0.106118
-0.00595181
0.181482
-0.141596
-0.0398849
-0.345791
0.552548
-0.20673
0.0284014
-0.207992
-0.173558
0.213104
-0.039545
-0.118912
-0.116842
0.235756
0.0159136
0.0492229
-0.0651364
0.277958
-0.458699
0.180746
0.00729474
-0.0465601
0.00846933
-0.00720225
0.179008
0.146462
-0.181422
0.157399
-0.0283903
-0.136615
-0.488477
0.243601
0.0256667
-0.000536327
-0.00573207
0.000146802
0.0135506
0.00292226
-0.0164729
0.208997
0.244614
-0.453597
0.0259909
-0.209152
0.183163
0.0181038
0.173748
-0.191851
-0.221097
-0.0242416
0.24534
-0.098369
0.0184308
0.0799382
0.0264128
0.377759
-0.598632
0.220877
-0.0142896
0.114759
-0.100469
-0.131423
-0.0457039
-0.064799
0.0171277
0.0476713
0.151867
0.000242788
0.039509
-0.213067
-0.222337
0.0536576
0.168681
0.0889978
0.118713
-0.0142252
-0.104488
0.117467
-0.233242
0.367743
-0.134495
0.00553977
-0.00191661
0.00136345
0.00055316
-0.0350541
0.0249885
-0.00329338
0.00993089
-0.0420154
0.0105406
0.00276082
0.00114799
0.00106538
0.366558
-0.192577
-0.173974
-0.338062
0.163763
0.182146
0.118379
-0.300517
-0.0142617
-0.0740897
-0.107482
-0.0379258
-0.115401
-0.0135573
0.0129441
0.000613175
-0.320158
0.158779
0.187316
0.338668
-0.525916
0.37895
-0.0144221
-0.0777724
0.302237
0.215876
0.13355
-0.211149
0.0776004
0.0982844
0.0926606
0.0644645
-0.0508994
-0.0135651
-0.110448
0.215015
-0.104566
-0.336447
-0.182644
-0.448266
0.258385
-0.142035
0.329873
-0.187831
0.185812
-0.621992
0.122378
-0.112126
-0.010251
-0.0801391
-0.0182298
-0.0444709
0.121034
-0.046547
0.0098434
0.0367036
-0.200905
0.34654
-0.14563
0.154928
0.0034908
-0.0181989
0.0127895
-0.0092036
0.000370702
0.066823
-0.002626
-0.064197
0.0631922
0.0416993
-0.104891
0.0517413
0.0345607
0.427675
-0.125983
0.1125
0.0134835
0.0210103
-0.243344
-0.425153
0.142719
-0.18685
0.198328
-0.0114764
0.00354988
0.112699
-0.283848
0.171154
0.114354
0.00435886
-0.0764996
0.0642263
0.298748
-0.193909
-0.304531
0.113519
-0.15845
0.125254
0.0331965
-0.000509094
0.363896
0.208739
-0.572631
0.0255045
0.03896
-0.126123
0.308278
0.0768529
-0.0911145
0.463254
-0.22956
-0.0985092
-0.179126
0.0720681
-0.0629286
-0.0282907
0.0912194
0.0565109
0.228227
0.0163554
-0.0830283
0.00377782
0.00375472
-0.0929522
-0.0232448
0.0076739
0.0155709
-0.344059
0.10638
0.00092687
0.0123259
-0.0846301
0.0634371
-0.394642
0.299992
0.0946549
-0.00546823
-0.0831293
0.0251622
-0.104168
0.0769797
0.0271881
-0.222675
-0.193006
-0.115839
0.308854
0.432172
-0.443034
0.0108939
0.307985
0.253996
-0.0465344
-0.207458
-0.136985
0.141218
-0.00423253
-0.112189
-0.0149413
0.12713
-0.184834
0.309236
-0.215938
0.431983
-0.102037
0.0311196
-0.242406
0.422152
-0.179724
-0.036158
0.0270401
0.00911787
-0.181927
0.0204635
0.000819708
-0.00181331
0.000993599
0.0698982
-0.102424
0.249089
-0.474024
0.224942
0.0138888
0.246445
-0.535076
0.288681
0.190005
-0.0260554
0.111302
-0.127811
0.0165093
0.0794522
-0.0126291
0.131736
-0.131124
0.333698
-0.593668
0.259976
0.114456
-0.0250106
-0.0863934
0.0372733
0.0491202
0.108929
-0.105418
0.0249003
-0.10416
0.0792597
0.133535
-0.0999717
-0.0335626
0.106307
-0.129759
-0.0796737
-0.0416286
0.12945
-0.00344567
-0.126004
0.0801307
-0.190578
0.22556
0.193517
0.0622057
-0.00285571
0.00399658