/*--------------------------------*- C++ -*----------------------------------*\
| =========                 |                                                 |
| \\      /  F ield         | OpenFOAM: The Open Source CFD Toolbox           |
|  \\    /   O peration     | Version:  v2012                                 |
|   \\  /    A nd           | Website:  www.openfoam.com                      |
|    \\/     M anipulation  |                                                 |
\*---------------------------------------------------------------------------*/
FoamFile
{
    version     2.0;
    format      ascii;
    class       volScalarField;
    location    "900";
    object      nut;
}
// * * * * * * * * * * * * * * * * * * * * * * * * * * * * * * * * * * * * * //

dimensions      [0 2 -1 0 0 0 0];


internalField   nonuniform List<scalar> 
13917
(
0.00042369
0.00218465
0.0114087
0.00316033
0.00672405
3.56844e-05
0.0115422
0.00852536
0.0108509
0.000274813
0.00110969
0.00164309
0.00332582
0.00158495
0.000594259
0.000809639
0.00225886
0.000596254
0.00190028
0.00672256
0.0067258
0.0127328
0.0067232
0.010952
0.00673246
0.0121849
0.000162399
0.000110338
3.00473e-05
0.000323197
0.000453506
0.000760188
0.000222043
0.000576862
0.00582326
8.35467e-06
0.0067232
0.0118156
0.00272139
0.00293939
0.00673418
0.00672616
0.00672622
7.25407e-05
0.00349826
0.000487782
0.000689297
0.000675029
5.31204e-05
0.00672051
0.00142901
0.00197391
6.07795e-05
0.000517431
0.00202617
0.00117966
0.00112123
0.003422
0.00126473
0.00345805
0.00657912
0.00253811
0.000338652
0.00672241
3.64048e-05
0.00152607
0.00672457
0.00637519
0.000550703
0.000376347
0.0067238
0.0105807
0.0100737
0.00673104
4.66802e-05
0.00223728
0.00553274
0.00226315
0.0125968
0.00672518
0.00672456
0.0067242
3.55108e-05
0.0128699
0.00939631
0.00246545
0.00672411
0.000649369
0.00146224
0.00672769
0.0116732
0.00029588
0.00505616
0.00120102
0.000998602
3.68179e-05
0.000826936
0.000695143
0.00152712
5.65609e-05
0.00672228
0.000255214
7.02516e-05
0.00217528
0.00673263
0.0107358
4.08956e-05
0.000753646
0.00215439
0.000396284
0.0110025
0.0036286
0.00202437
0.0132229
0.00121936
5.00585e-05
0.00672573
3.84211e-05
0.00504653
0.000529703
0.00672595
0.00071778
0.00632587
0.000131283
0.00672384
0.00131714
0.00334852
0.00672446
0.00672195
3.54929e-05
0.0116276
0.00117802
0.00332185
0.00672593
0.00107695
0.0101797
0.000421304
5.22073e-05
0.00672465
0.00055538
0.00052156
0.00675138
0.00150894
5.82525e-05
0.00530659
0.00890431
3.89426e-05
0.00185491
0.00674469
0.000635831
0.000931183
5.03756e-05
0.00133395
0.00029427
0.000927915
0.00358872
0.000431519
0.000884837
0.00330207
0.00135014
0.000800728
0.000159618
0.00672523
0.000823807
0.00201903
0.00155185
0.00218188
0.000837641
0.00456968
0.00025569
0.000277567
0.00378304
0.00203401
0.00165694
0.00792625
0.000246987
0.0122955
4.07703e-05
0.00940825
0.00504966
0.000296419
0.000448769
0.00675194
0.00672395
0.000416022
0.0114554
0.000311288
0.00336149
0.000748537
0.00164823
0.000296191
0.00936965
0.00023891
0.00672334
5.4479e-05
0.000162156
0.00416992
0.00476762
4.65933e-05
0.000202774
0.00197819
0.00672057
0.000982151
0.00110027
0.00805486
0.000698396
0.00673398
0.00366138
0.000724923
0.0108514
0.00166054
0.0119425
0.00422637
0.00164298
0.00673131
2.65918e-05
0.000797496
0.00471749
0.00672971
0.00705265
0.00554537
0.000374044
0.00672717
0.0124374
0.0111092
0.000757882
0.000201015
0.000937304
0.0067308
0.000162132
0.00217435
0.000796952
0.00961365
0.002582
0.00672109
0.000707367
0.0129184
0.0074377
0.00672506
0.00672231
0.00404131
0.000731661
0.00672561
0.000892203
0.000515293
0.000158213
0.000502877
0.00672506
0.000210161
0.00352738
0.00531996
0.000253081
4.80833e-05
0.00350709
0.00365579
0.00128766
0.00707663
0.00114176
0.000348966
0.000656275
0.00672571
0.0039733
0.00903306
0.000241159
0.00673027
0.00894476
0.00371823
0.00249183
0.012691
0.00236031
0.0067248
0.00672096
0.00071072
0.0103623
0.000559544
0.00136999
0.000718701
0.00206979
0.00672095
0.00634546
0.00672207
0.00871222
0.00190264
0.00672543
0.000579386
0.000273931
0.000167061
0.000684033
0.000361659
0.0042041
0.000146606
0.00974161
0.00803336
0.00672925
0.00337271
0.00672365
0.00427634
0.00672518
3.06465e-05
0.0067208
0.000375642
0.00051082
0.00481199
0.000931954
0.00153759
5.17817e-05
0.000272453
0.000302406
0.00590437
0.00397152
0.0100719
0.00529139
0.00672602
0.00672451
0.00583106
0.00478649
0.0112225
0.00636458
0.013097
0.0044078
0.000177087
0.00122182
4.8179e-05
0.000823166
0.000158731
3.40379e-05
0.000638181
0.000714102
4.67421e-05
0.0020515
0.0113954
5.56038e-05
0.00513791
0.000644083
0.00298322
0.000657916
0.0123404
4.02918e-05
7.81346e-05
8.04775e-05
0.00998729
0.00672473
0.000294225
0.0122338
0.00242791
0.00111715
0.00440858
4.29389e-05
0.00191364
0.000552348
2.96417e-05
0.00672103
0.0036478
0.000243756
0.00672203
0.00672612
0.00672379
0.0067448
0.000464497
0.00840978
3.163e-05
0.0115575
0.0067283
0.000248046
0.00118981
0.000955829
0.0128322
0.0119044
0.0119297
0.00672332
0.000720602
0.0067262
0.00620261
0.00356381
4.66553e-05
0.000449425
0.0025559
0.00672434
0.000756707
0.000282575
0.000626734
1.3675e-05
0.0118482
0.00237719
0.000195665
0.000288735
0.00672201
0.00789821
0.0128783
0.00302193
0.000308911
0.00672729
0.000724814
0.00492453
0.00672493
0.00140584
0.0123568
0.00144946
0.00863372
0.00172857
0.00125521
3.26701e-05
0.00216556
3.05581e-05
3.07928e-05
0.00672319
4.34487e-05
0.00248132
0.00673075
0.000349782
0.00672548
0.00673346
0.00672599
0.000698693
0.0067254
0.00409444
0.0105546
0.000959796
0.00026361
0.0106524
0.00481518
0.00107264
0.00672702
0.000430466
0.00269946
0.000669318
0.00672352
0.00909526
0.0108094
0.0100985
0.000736627
0.000489569
0.000729566
0.00268893
0.000625638
0.00145031
0.000355818
0.00219128
0.00672225
0.0125969
0.0119111
0.0124482
0.000192862
0.000539836
0.0125395
0.0131568
0.00534446
0.00672143
0.000722974
0.0014338
0.00301575
0.000362779
0.000713896
0.00679531
0.000492362
0.00101159
0.00504771
0.00672331
0.000740334
0.000767069
0.000322047
0.00626631
0.00672555
0.00333357
0.00685972
0.000401435
0.00672313
0.0102824
3.4282e-05
0.000403538
0.00681593
0.00119516
0.000920486
0.0139284
3.18275e-05
0.00130163
0.00026913
0.000752253
0.000439832
0.000461665
0.00144958
0.00134369
3.84876e-05
0.00172834
0.000707291
0.00677005
0.000835954
0.00131407
0.00676552
0.000430504
0.00238409
0.00589938
0.0114009
0.0055806
0.00672683
0.00955544
0.00279303
0.00672547
0.00390528
0.00296594
0.000249749
0.00542538
0.00716078
0.000555835
0.00072031
0.00226414
0.0116724
0.00024186
0.00172924
0.00672567
0.00447996
5.06622e-05
0.0060268
0.00676704
0.00890645
0.0113076
0.00121566
0.00672613
0.00216007
0.00249693
0.000420421
0.00678549
0.0067249
0.00672
0.00672006
0.0069674
0.000510225
0.00121889
0.000316267
0.00673252
0.00672186
0.000500322
0.0146117
0.000772915
0.00408069
0.00673017
0.00672807
0.00680555
0.00912357
0.00672392
0.00672822
0.000797005
0.00150496
0.00127554
0.00306343
0.00131626
0.000723537
0.000759796
4.87763e-05
0.000388392
0.000445972
0.000568783
0.0005371
0.000309866
0.00672869
0.00492771
0.00672753
0.000983348
0.00223193
0.000941672
0.000118596
0.00672398
0.00032755
0.000318873
0.000352789
0.000577164
0.000223924
0.00107923
0.00672395
0.0124441
0.000214923
0.0136457
0.00240353
0.00101993
0.000392949
0.0124316
0.000369758
0.000675747
0.000188001
0.000741876
0.00130972
0.00321411
0.000125937
6.82049e-05
0.0025466
0.000823172
4.96396e-05
0.0135566
0.00226823
0.00107832
0.000870773
0.00048648
0.000604852
0.00164146
2.92064e-05
0.00963066
0.0102537
0.000305174
0.00672259
0.00452036
0.00221834
0.00673282
0.00073335
0.000918543
0.000231374
0.000335258
0.0126474
0.000458688
0.00151315
0.0121839
0.00194398
0.003594
0.00672525
0.00672378
0.00366617
0.0111792
3.37414e-05
0.00197353
0.00165712
0.00672755
0.00199009
5.29365e-05
0.00163519
0.00124765
0.00133988
0.000777232
0.00514359
0.000173199
0.00167797
0.000249457
0.00673156
0.000457273
0.00215699
0.0013947
0.000300225
0.000125557
0.000913884
0.00672023
0.00675609
0.00319535
7.82473e-05
0.000371867
0.000583134
1.45286e-05
0.000870681
0.00672087
0.000436884
2.97737e-05
0.000112791
0.00530257
0.00047628
0.00672489
0.00210048
0.00125995
0.0137069
0.00672501
0.00012708
0.00210573
0.00122785
0.000271135
0.0099243
0.000130686
0.00229271
0.00928031
0.000613594
0.0032701
0.00245785
0.00111488
0.000280801
0.000599243
0.00672483
0.0023387
0.000140285
0.0026171
0.000581544
0.00136078
0.00675835
0.00108407
0.0105921
0.00605167
0.00362119
0.00672022
0.0047722
0.00672575
0.000803627
0.00451857
0.00110452
0.00908416
0.00094088
0.000199946
0.00672022
0.000201299
0.00672474
0.000443222
0.00672011
0.000152875
0.00327211
0.000651238
1.6377e-05
0.0145337
0.00683581
0.00672429
0.000321743
0.000425254
0.00664909
0.0137266
0.000661394
0.00673219
0.000701168
3.12072e-05
0.000444611
0.000391666
0.000751117
0.0122895
0.000417987
0.00215674
0.000382422
5.28359e-05
0.000650572
3.03984e-05
0.000617817
0.00282846
0.000934423
0.000590788
0.0067872
0.00213999
0.00039999
0.000655313
0.00672533
0.00672523
0.000817343
0.00236841
0.000518566
0.00642207
0.00672662
0.00672588
0.00137109
0.00673299
0.000933379
0.00672043
0.00668055
0.00180971
3.7041e-05
0.00672217
0.0067254
0.000130633
0.000462734
0.00132752
0.00842684
0.000215909
0.00444535
0.0020813
0.00047971
0.00295708
0.00672587
0.00671991
0.00140901
0.00246947
0.00672554
0.00182034
0.000829081
0.00160003
0.000167115
0.000212354
0.00114567
0.00673273
0.00672624
0.00197203
0.00530022
0.00174364
0.00664141
0.00158525
0.00672376
0.000950649
0.00672172
0.00673207
0.000717498
0.000401564
0.00431831
0.000519246
0.00580941
0.0067296
0.0133822
8.88852e-05
0.00233034
0.00261779
0.00718772
0.000690538
0.00263086
0.000246058
0.00283628
0.00672114
0.00673034
0.00169031
0.000473619
0.000938949
0.000585141
0.0103407
0.00235058
0.000939672
0.00203013
0.00672733
0.00143321
0.00384538
0.00672188
0.000403775
0.000147165
0.00250436
0.0109505
0.00566031
0.000284337
0.00672938
0.00674136
0.00168283
0.00207832
0.00672546
0.000415024
0.00673929
0.000434527
0.00680537
0.00678879
0.000258367
0.00402965
0.00420087
0.000521986
0.00672585
0.00672716
0.00341487
0.00673526
0.00365049
2.36832e-05
0.00580157
0.00677312
0.0119384
0.00864947
0.00168304
0.000394946
0.000633352
0.00149576
0.0067527
0.000399224
0.0071448
0.000142186
0.00672364
0.00262319
0.0131692
0.000926127
0.0128247
0.00672574
0.00121911
0.00360289
0.00104463
0.0024516
0.00217268
3.95809e-05
0.00673443
0.000394498
0.00671995
0.00401307
0.00672287
0.0104118
0.00673161
0.00588949
0.00675345
0.00577446
0.00265893
0.00023866
8.78617e-05
0.00678592
0.000253249
0.00672381
0.0118884
0.00672291
0.00538848
0.00672378
0.00162623
0.00672364
0.000476438
0.00336055
0.00879986
0.00047572
0.000367358
0.00609414
0.00408477
0.00304988
0.0067249
0.00758498
0.0106648
0.0129189
0.000221956
0.000394416
0.00226471
0.0127686
0.00107424
0.0131261
0.00676228
0.00512139
0.00251756
0.00672367
0.00144897
0.000301966
0.00696549
0.00526763
0.00672642
0.00172686
5.51865e-05
0.00354239
0.000220756
0.000854599
0.00309772
2.24511e-05
0.000163757
0.000869934
0.00314204
0.00347457
0.00302706
3.88843e-05
0.00680277
0.000276659
0.000334129
0.00734969
0.0113417
0.00217866
0.00497879
0.00284784
0.00228898
0.00672851
0.00138214
0.00671976
0.000772617
0.000374455
0.00712573
0.000612084
0.00599578
0.000487167
0.0134545
0.000414699
0.00197104
0.00428428
0.00482979
0.00193391
0.000191481
0.00628756
0.00672363
0.00673258
0.012197
0.000911647
0.000263888
0.000575318
9.0546e-05
0.00673174
0.000461556
0.00195648
0.0067234
0.00192697
0.011875
0.00442407
0.00677829
0.00672815
0.00360138
0.00103438
0.00165721
0.000995952
0.00590252
0.00198573
0.000468371
0.00659065
0.000448266
8.73342e-05
0.0125616
0.00360452
0.000143633
0.000994802
0.00897512
0.0130243
0.00673175
0.00971117
0.000623697
3.87333e-05
0.00672369
0.0124702
0.00672499
0.0011158
0.000388912
0.000569748
0.010457
0.000228916
0.00119981
0.00968698
0.00672043
0.000742877
0.00679153
0.000625103
0.0118647
0.002862
0.00672525
0.0017855
0.00304784
0.00758691
0.00672918
0.00672315
0.00112145
0.000450665
0.000906538
3.27554e-05
0.00153811
0.00243786
0.00215869
0.000836604
0.00206135
0.00796731
0.0015628
0.00425576
0.01273
0.00191584
0.00656784
0.0106554
0.000363355
0.00192035
0.000460322
0.000752641
0.00395502
0.00148603
0.00274804
0.000382652
0.00672627
0.000792853
5.4298e-05
0.00672565
0.00049874
0.00593578
0.000150401
0.00672027
0.000513754
0.000705031
0.00228343
0.00384647
0.00669432
2.63594e-05
0.000254137
0.00838432
0.00590582
0.00262554
0.000836897
0.00400444
0.000402778
0.000256617
0.00460732
0.000507498
0.00656986
0.00712652
0.00207719
0.00168106
0.00549888
0.000738781
0.00673217
0.00112527
0.00245496
0.00672333
0.00672485
0.00848913
0.0119308
0.00074586
0.00126748
0.00672235
0.00391354
0.0112855
0.00162558
0.00673272
0.000423366
0.00652063
0.000445957
0.00672449
0.00673151
0.0024594
0.00151583
0.00928154
0.00258755
0.00205869
0.0067313
0.000639956
0.00672111
3.28348e-05
0.000505376
0.00672567
0.00858099
0.000186539
0.000532626
0.0130241
3.20365e-05
0.00677376
0.00201305
0.0032521
3.37285e-05
0.000569539
0.00916549
0.00544431
0.000863318
0.013123
4.28973e-05
0.00083748
0.0013992
0.000142431
3.55704e-05
0.00967439
0.000120599
0.000288963
0.0133911
0.00166216
0.000767541
0.00848855
0.000102085
0.00676449
0.00208054
0.00540771
0.000331107
0.00582499
0.00019086
0.000393298
0.000452787
0.00858017
0.00113873
0.00929761
0.00208519
0.000497974
0.000462024
0.000277358
0.00090252
0.00671398
0.00171015
0.00911039
0.00672562
0.000793606
0.00675364
0.00134956
0.00505642
0.000251009
0.00136257
4.02583e-05
0.000163815
9.72467e-05
0.00929325
5.06216e-05
0.0050817
0.000960187
0.0110572
0.00674108
0.00672503
0.000898478
0.00338067
0.00672528
0.00055066
6.67246e-05
0.000278126
0.00361642
0.00307974
0.00567585
0.000485171
0.00028342
0.00672039
0.000670179
0.0123319
0.000225455
0.000424531
0.00149004
0.000443694
0.0011768
0.00147682
0.00820094
0.000888318
0.00215796
2.05088e-05
0.000755817
0.00672602
0.00473373
0.00287179
0.0049959
0.00140304
0.000219158
0.00673224
0.00102723
0.00672168
0.000918301
0.00678658
0.000220243
0.00140814
0.000331176
0.00429668
0.000242036
0.00477622
0.00752981
0.00672819
0.0005745
0.00672355
0.000695833
0.00844223
0.00144567
0.00673352
0.000660382
0.00354801
0.000660555
0.0115887
0.00420099
0.00182235
0.000474772
0.00075267
0.0129834
0.00673271
0.00044764
0.00318583
0.00672487
0.000299107
0.00189717
0.00672173
0.000915362
0.00447462
0.00115254
0.000561547
0.0090546
0.000632953
0.0100966
0.00122634
0.00672172
0.000374856
0.00284204
0.00312542
0.000338882
0.00126301
0.000484788
0.00673434
0.000593047
0.00049239
0.000551494
0.00674065
0.0067265
0.00123731
0.00173523
0.00672615
0.000239777
0.00675947
0.000731443
0.000767526
0.0011638
3.80561e-05
0.0124493
0.00256266
0.00116594
0.00242946
0.00203953
0.00148746
3.54045e-05
0.00330766
0.000791152
0.00535345
0.000983261
0.000426931
0.000620815
0.00676972
0.0067255
0.00672279
0.00331738
0.000445105
0.00679052
0.000842866
0.00217838
0.00182629
0.00028466
0.0104422
0.000336084
0.00176891
0.0128214
0.00244336
0.00401311
0.0023919
0.000120123
0.00673429
0.00413111
0.0047372
0.0033657
0.00307141
0.0120956
0.000344612
0.0022578
0.00672069
0.00560555
0.0134546
0.00258478
0.00014678
0.000910875
0.00672722
0.000562274
0.000716966
0.00672753
0.00672237
0.0125877
0.00547991
0.00267751
0.00188751
0.00325901
0.000737436
0.000213257
0.00483828
0.00138942
3.01053e-05
0.00310173
0.000502058
0.00103016
0.00288829
0.00164485
4.7224e-05
0.000364388
0.006726
0.00127819
0.0112546
0.000973449
0.000134134
0.0112219
3.88865e-05
3.89539e-05
0.000587249
0.00220941
0.00672506
0.00672771
0.00324509
0.000831992
0.00225515
0.00285403
0.00138838
0.00672592
0.00424799
0.00576224
0.00122114
0.00184622
0.00830063
0.00016165
0.00167889
0.00945397
0.000409173
0.000781821
0.00672239
0.000500783
0.00289477
0.00266612
0.00122325
0.000884083
0.000603232
0.000106651
0.0113673
0.000527713
0.00489276
0.0108289
0.00672674
0.00308003
0.000173338
0.00672584
0.00525565
0.000651757
0.00918334
0.00633217
0.00922221
0.00267758
0.00677347
0.00128104
3.34387e-05
0.000658538
0.00259348
0.00593737
0.00162235
0.000626253
0.0120761
0.00672506
0.000135387
0.00672064
0.00319767
0.00056068
0.00569198
0.0114211
0.00074627
7.61406e-05
0.00672606
0.00411161
0.000395214
3.39272e-05
0.00326555
9.18171e-05
0.00411706
0.00677344
2.48108e-05
0.00274147
0.000451701
0.000107905
0.00672504
0.00684391
0.00105615
0.000628973
0.000532075
6.63394e-05
0.000238036
0.000190315
0.00163082
0.0112281
0.000359647
0.00276322
0.000366691
0.00124402
0.00382016
0.00047068
0.00372563
0.00220421
0.00959563
0.00172928
0.00674384
5.01715e-05
0.00237851
0.00389068
0.00239727
0.00978409
0.000290079
0.000472279
0.00672564
0.00672573
0.00672445
0.00672239
0.000469141
0.000145496
0.000180747
0.000878611
0.00672192
0.000984551
0.00226604
0.00051116
0.00132664
0.00429844
0.001133
0.000856926
0.00212294
3.83608e-05
0.00959381
0.00013816
0.00881693
0.00256544
0.00673507
8.18823e-05
0.00632181
3.64067e-05
0.00672374
0.00220342
0.00105967
0.0122106
0.0041178
0.00036892
0.00436033
0.00015394
0.000850768
0.011629
0.000564408
0.0011699
0.000796849
0.00104838
0.000262318
0.00216603
0.00672362
0.000373452
0.0079068
0.00672359
0.00181334
0.00672545
0.00396063
0.00747932
0.0125747
0.00672142
0.00407404
0.00211418
0.00555982
0.000233274
0.000573924
0.00352909
0.00672299
0.00672248
0.00173222
0.000803817
0.000767677
0.000370427
0.00575016
0.0132573
0.00215998
0.0142603
5.28347e-05
0.000515351
0.000160767
0.000985303
0.0127191
0.000461862
0.00120385
0.00185885
0.0108213
0.00990292
0.00672134
0.0067247
0.000302813
0.0123761
0.00663542
0.00678742
0.00339033
0.0120649
0.00036307
0.00126097
0.00123183
0.000796021
4.20746e-05
0.00230773
0.0131138
0.00414228
0.000237015
0.000299821
0.00352027
0.00673351
0.00672023
0.000525751
0.00872085
0.00124798
0.00194698
0.00140455
0.000140056
0.00335557
0.0015534
0.00860189
0.00269647
0.00483431
3.91544e-05
0.00672738
0.00672367
0.00900881
0.00672684
0.00676172
0.00125196
4.86696e-05
0.000835349
0.00349071
0.000367829
0.00672667
0.0133122
0.000544431
0.00505009
0.00270066
4.59818e-05
0.000609168
0.00408108
0.0010069
0.0135072
0.00672379
0.00874941
0.00341834
0.00881688
0.000328559
0.000225683
0.00542803
0.00229978
0.000181654
0.00123205
0.0083182
0.000566663
0.000339462
0.000518653
0.0011952
0.000399827
0.00437074
0.00141199
0.0119479
0.00282438
0.00672778
0.00442099
0.0010402
0.00313546
0.000695636
0.00672651
0.000517732
0.00208178
4.32565e-05
0.000142807
0.00548254
0.00672059
7.03537e-05
0.00285809
0.000791687
0.00115024
0.000510112
0.004083
0.00189078
0.00151822
0.00217506
0.00732525
0.0129674
0.00672511
0.00672015
0.0020778
0.00163144
0.00672762
0.00199421
0.000561765
0.000887293
5.46865e-05
0.00676597
0.0137849
0.00738816
0.00672605
0.00205883
0.000931783
0.00166691
4.10173e-05
0.00212392
0.00707466
0.000399047
0.00111203
0.000836685
0.00672634
0.000905428
0.00410688
0.00340532
0.000300201
0.00866592
0.00995103
0.00672533
0.00672135
0.00146237
0.00367466
0.000416753
0.00160924
0.00041936
0.00212782
0.0106795
0.0032093
0.0135586
0.00672665
0.0128707
0.0024532
0.00672696
0.00839872
3.28303e-05
6.03124e-05
0.000162261
0.000146757
0.000842174
0.00602682
0.00690795
0.00672823
0.00672728
6.58814e-05
0.00195212
0.00381486
0.00893999
0.000460473
0.0101365
0.000374281
0.000251422
0.00678826
0.00139228
0.00146181
0.0133205
0.000660256
0.0128356
0.0067839
0.00385494
0.00347014
0.00348299
0.000228096
3.99428e-05
0.0019897
0.00672354
0.000662671
0.000816225
0.00088205
0.000627814
7.26244e-05
0.00672164
3.06436e-05
0.000362271
0.00261685
0.000571569
0.00121771
0.00143254
0.0138958
0.00672001
0.000413056
0.0101207
0.0014567
0.000917873
0.000547004
5.06001e-05
0.00134325
0.00366703
0.00138791
0.000785416
0.00207887
0.00038785
0.00269841
0.0130654
0.00672279
8.99331e-05
4.0567e-05
0.0123108
0.000594662
0.00035365
0.00193346
0.000144852
0.00672557
0.0121314
0.00153855
0.00422383
0.000977515
0.0067222
0.00672569
4.32171e-05
0.00672551
0.00672325
0.00320803
0.000786003
0.00211438
0.000516725
0.00095615
0.000246429
0.000373398
0.00672525
5.84949e-05
3.10003e-05
0.000322905
0.000360424
0.000437955
0.000528062
0.00808345
0.000355675
0.00672606
0.00597751
0.0101801
0.00672604
0.00141184
0.00672424
3.64359e-05
0.000297906
0.00404094
3.78073e-05
0.0128081
0.0067229
0.00216669
0.011843
0.00787803
0.00201641
0.00672905
0.00337736
0.0111345
4.75e-05
0.00672478
0.0136304
0.0023164
9.20136e-05
0.011314
0.00124809
0.0067248
0.000903946
0.000295653
0.00101484
0.0119553
0.014078
0.00674479
0.0090777
3.48182e-05
0.00796848
0.00672737
0.000113883
0.00201863
0.0052536
0.0141672
0.00150979
0.000810868
0.00154526
0.000446523
0.000605462
0.00682224
0.0134661
0.0037361
0.00673349
0.00253656
0.000270819
0.00620592
0.000814912
0.0135214
0.00877313
0.00061329
0.00236858
0.0042918
0.0142078
0.000652574
0.000728964
0.00674359
0.00129684
0.000308181
0.00185219
0.000260148
2.69017e-05
0.00672358
0.000777294
0.00683769
0.00015549
0.00722288
0.00294015
0.00672502
0.00672633
0.00168927
0.000564701
0.0023204
0.0137571
0.013227
0.00676588
0.00673476
0.00672389
0.0067224
2.31029e-05
0.00677796
0.0116799
0.00043649
0.00205804
0.00526458
0.000311323
0.0142646
0.0010028
4.17074e-05
0.008003
0.00200567
0.00372338
0.000255544
0.000208386
4.54771e-05
0.00373274
0.00773658
0.00190873
0.00673536
8.79904e-05
0.00677813
0.000605636
0.00217569
0.0103268
0.0003205
6.14739e-05
0.000453673
0.000636605
0.00672359
0.000267776
0.001274
0.00672573
3.87747e-05
0.00672192
0.00202561
0.000846493
0.00238946
0.0075387
0.00116205
3.50697e-05
0.00129164
0.0067255
0.00970938
0.0126998
0.000753524
0.00025118
0.00151127
0.000345944
0.00135816
0.00203023
0.000598647
0.00144958
0.000636619
0.000620837
0.0102742
0.000133735
0.0003279
0.00170073
0.00286103
0.0140496
0.00672012
0.0107435
0.000760942
0.0124749
0.000571255
0.00250606
0.00460873
0.000761583
9.08782e-05
0.00418236
0.0137955
8.47086e-05
0.00520104
0.00274188
0.0088349
0.00104056
0.00228947
0.000596312
0.000677473
0.00117232
0.00664788
0.00672601
0.0020077
0.00151237
0.000379041
0.00672353
0.00129086
0.00673636
0.00983683
0.000915266
0.000361537
0.000748828
0.000780313
0.000199945
0.00129786
0.000345347
0.00674162
8.03177e-05
0.0132884
0.00287179
0.00334442
0.00872002
0.00101127
4.19909e-05
0.00672833
0.000791115
0.0134965
0.00180768
0.00547048
0.00350124
0.000240341
0.0141987
0.00346179
0.0067378
0.00250059
8.944e-05
0.000834998
0.0121028
0.000818792
0.000162317
0.000416804
0.000342318
0.00276526
0.00802871
0.00861744
0.0013191
0.000771936
0.00122433
0.000323036
0.00585002
0.000881648
0.00204422
0.000234685
0.00673322
3.42596e-05
0.00543496
0.00328306
0.00518239
0.00115942
0.00319215
0.0140467
0.00672564
0.00107125
0.00672518
0.00153264
0.00114558
0.000164951
0.0103587
0.000459886
0.00672135
0.000359169
0.00113619
0.00341675
0.000639176
0.00675539
0.00623674
0.0128117
0.000714262
7.19817e-05
0.00672159
0.000964815
0.00134136
0.000754473
0.00675396
0.00338082
0.0067229
0.00114701
0.0067236
0.00140637
0.00278342
0.00616841
0.0120022
0.00505911
0.000876192
0.00198319
0.00672598
0.0121247
0.0052368
0.000421366
0.0137947
0.00183794
0.0105638
0.00350135
0.0132954
0.00185841
0.0126047
0.00117683
0.000955663
0.00432665
0.000822007
0.00118891
0.00140557
0.0003449
0.0129589
0.00031916
0.000207187
0.000537855
0.0010718
0.000213614
0.000261412
0.000651462
0.00442993
0.00443946
0.00109462
0.000197749
0.000681149
0.000793483
0.00896914
0.00849846
6.00494e-05
0.00356236
0.00215108
4.17182e-05
0.00168156
0.000777364
0.00307026
0.00774159
0.00478376
0.00202073
0.00529557
0.00152792
0.00756859
0.00012626
0.00672819
0.00472301
0.0032099
0.00523809
0.000904325
0.00145862
0.000447287
0.00083867
0.00249897
0.00134452
6.90828e-05
0.000164513
0.000513821
0.0100765
0.011666
0.00496797
0.00672582
0.00482192
7.21359e-05
0.00306058
0.0001522
0.00909471
0.0112488
0.00672817
0.00632684
0.0121004
0.000118085
0.00673107
0.00674427
0.000489963
0.00424719
0.0122849
0.000944704
0.000490094
0.00672458
0.000634229
0.00118964
5.14338e-05
0.000274001
0.000193797
0.00178353
0.000595684
0.00074217
0.0013639
0.00328482
0.000927136
0.0111987
0.000730528
0.0030987
0.0067233
0.0131209
0.000312189
0.000393754
0.00672329
0.00672561
0.000238881
0.00739144
0.000100928
0.00566231
0.00527496
0.00149974
0.0129488
0.00142545
0.0067726
0.00401301
0.00035666
0.000610598
0.00672528
0.0113385
0.00827682
0.0046308
0.000252558
0.00687134
0.00032333
0.00323772
0.00658442
0.00239645
0.00195952
0.000393837
0.000795174
7.20384e-05
0.000359178
0.00674089
0.00244583
0.00807076
0.00582849
0.000353073
0.000480695
0.00486274
0.00059454
0.00672563
0.000949093
0.000705565
0.00672253
0.00960238
0.00672761
0.000286881
0.0131291
0.000437771
0.00237392
0.00672628
0.013835
0.00672592
0.00116265
0.00191007
0.000137961
0.000118356
0.000775765
0.0129269
0.000195225
0.000131851
0.00146902
0.000932137
0.00606418
0.00672357
0.00418297
0.0123838
0.000312977
0.00125811
0.000789264
0.000829161
0.00803993
0.0137652
0.000727621
0.00053037
0.00672472
0.0120585
0.00445861
0.00390471
0.000783401
0.00120772
0.000424813
4.18365e-05
0.000171075
0.000424292
0.000825206
0.0143151
0.00143068
0.00672279
0.00303357
0.000151048
0.00673839
0.00998262
0.00672132
0.00672349
0.000521706
0.000162823
0.0031612
0.00673861
0.000681049
0.00673444
3.40416e-05
0.00553625
3.37614e-05
0.00206843
0.012648
0.00929065
0.000442726
0.000315495
0.00954972
3.58115e-05
0.00672462
0.000379664
0.000169143
0.000322711
3.91032e-05
0.0107887
0.0116301
0.0127669
5.12217e-05
0.00238481
0.00085749
0.00672094
0.00435098
0.00105224
0.00289122
0.00139567
0.00207873
0.00585392
0.000647399
0.0119891
0.00672449
0.00144775
0.00672016
0.00866231
0.00153342
0.0135952
0.0105134
0.000304393
0.00672437
0.00555837
0.0084021
3.67469e-05
0.00672356
6.65362e-05
0.00672505
0.00020714
4.53717e-05
0.000506913
0.000971225
0.00299818
0.00674432
0.00616704
0.00090476
0.0105817
0.000730433
0.00025756
0.00534198
0.00180699
0.00673079
0.00672299
0.00166412
0.00452101
0.00128368
0.0108548
0.000417866
0.0020172
0.0138075
0.000369491
0.00672536
0.00120996
0.00673143
3.88645e-05
0.00411627
0.000767833
0.00567066
0.00672513
0.00651283
9.28741e-05
0.00332459
3.18173e-05
0.006766
0.000256037
0.00687426
3.85076e-05
0.00672402
0.00104504
0.00160281
0.000203187
0.00995867
0.00672608
0.00759204
0.000328547
0.000204069
0.00680372
0.00673055
0.0103955
0.000598304
0.00420856
0.0045945
0.00073667
0.000738475
0.000179069
0.0138561
0.00137895
0.000283004
0.00124178
0.00672778
0.00856165
0.00351368
0.0127675
0.00484641
0.00194395
0.00672346
0.0094185
0.0122228
0.0067277
3.84038e-05
0.000707305
0.00672123
0.00482128
0.00674048
4.00318e-05
0.0136463
0.000343489
0.00254618
0.000574003
0.00672445
0.00335993
0.00151421
0.00672234
0.000535864
0.00335768
0.001548
0.000283629
0.000567779
0.00672108
0.00867
0.000808832
0.00672418
0.000263327
0.00109682
0.000292022
0.0006678
0.00648812
0.000486012
0.00362283
0.000356796
0.000371588
0.00137043
0.0131692
0.00152006
0.00224455
0.000320602
0.00472724
0.00015712
6.8817e-05
0.000164638
0.00672502
0.00437533
0.00672528
0.000251582
0.0013652
0.00122996
0.00862078
0.00691451
0.0105272
0.0067258
4.31047e-05
0.0132171
0.0142996
0.00530438
0.00323274
0.000882765
0.0123837
0.000856109
0.00123266
0.000351786
0.00683695
0.00025586
5.65955e-05
0.000505634
0.011752
0.000156208
0.00673819
0.000164854
0.000701249
0.00251049
0.00313851
0.00145988
0.0128609
0.000349888
0.00761273
0.0011792
0.00100696
0.00295583
0.000242395
0.00878081
0.00235174
0.00108424
0.0113296
0.00803738
0.000450654
0.00193391
0.000975661
0.00175564
7.55213e-05
0.00163573
0.000276609
0.0141463
0.00674638
0.00343564
0.000211825
8.9548e-05
0.00672088
0.00672345
0.00118522
3.83498e-05
0.00467383
0.000504279
7.73178e-05
0.000174756
0.00971953
0.011876
0.0139647
0.0138098
0.000653687
0.00674986
8.40687e-05
0.00607862
0.00605145
0.00437749
3.50257e-05
5.79719e-05
3.19627e-05
0.00412988
0.00672562
2.77993e-05
0.00166168
0.00114029
3.15121e-05
0.00581768
0.00672618
4.18983e-05
0.0135866
0.00227065
9.07649e-05
0.000500181
0.00673038
0.000559089
0.0123675
3.86518e-05
0.00672557
0.003759
0.000559534
0.00167888
0.00672655
0.00246685
0.00249689
0.00337143
0.00250724
0.000334071
0.000238853
0.000182577
3.46191e-05
0.00119263
0.0102005
0.000636883
0.00221338
0.000659851
0.00231539
9.97625e-05
0.00663371
0.000591634
0.000419124
0.000571347
5.83355e-05
0.00331796
0.000190803
0.00242461
0.00929584
0.00060149
0.00391906
0.00518418
0.0043512
3.29507e-05
0.00122109
4.00974e-05
3.83012e-05
3.83797e-05
0.000546357
0.000311269
0.00507521
0.00268336
0.00883982
0.000348479
0.000121597
0.00400237
0.00457495
0.000575378
0.0137358
0.00672156
0.00603677
0.000134051
6.70733e-05
0.000280601
0.00527973
0.00672281
0.00103129
0.00314579
0.002277
0.00100686
9.14338e-05
0.000194687
0.0040218
0.00303992
0.00279226
0.00672503
0.00959046
0.00218161
0.00918786
6.77829e-05
0.00439178
3.60423e-05
0.000324239
0.01152
0.00242203
0.00204622
0.00669893
0.00672364
0.00303676
3.72214e-05
3.77496e-05
0.0128025
0.00672363
0.00328732
5.20588e-05
0.00672542
0.000993283
0.000882081
4.65299e-05
4.51255e-05
0.000214401
0.000255883
0.00674035
0.00061802
0.000284003
5.43859e-05
6.79185e-05
0.000215181
0.00672281
8.42989e-05
0.00598561
0.000183153
0.0130165
3.69836e-05
0.00320496
6.56416e-05
0.00340933
0.000747699
0.0019069
0.00338738
0.000384581
0.0024527
0.0124139
7.29274e-05
0.00021844
7.05795e-05
0.000193635
0.0110947
0.0137305
0.000446836
0.0123248
0.000112428
0.00547307
0.000110218
0.0142575
6.53316e-05
0.00672515
0.000497948
3.38288e-05
0.000461612
0.00278278
0.00308128
0.00033364
0.00672465
0.00568929
0.00171271
0.000158027
0.00672559
0.00663709
0.0119907
0.000935878
0.00701512
3.6372e-05
0.0134771
0.000382565
0.00673665
0.00113983
0.00675582
0.000161256
0.000704256
0.000397574
0.000793943
0.000246361
0.00676125
0.0128793
0.00104763
0.000522408
0.012801
5.48816e-05
0.00539079
0.0143079
0.00437915
0.00280917
0.00672395
0.000406878