/*--------------------------------*- C++ -*----------------------------------*\
| =========                 |                                                 |
| \\      /  F ield         | OpenFOAM: The Open Source CFD Toolbox           |
|  \\    /   O peration     | Version:  v2012                                 |
|   \\  /    A nd           | Website:  www.openfoam.com                      |
|    \\/     M anipulation  |                                                 |
\*---------------------------------------------------------------------------*/
FoamFile
{
    version     2.0;
    format      ascii;
    class       volScalarField;
    location    "600";
    object      nut;
}
// * * * * * * * * * * * * * * * * * * * * * * * * * * * * * * * * * * * * * //

dimensions      [0 2 -1 0 0 0 0];


internalField   nonuniform List<scalar> 
13917
(
0.00287466
0.00219325
0.00100776
0.0059654
0.00586766
0.00235034
0.00318863
0.00206805
0.00268331
0.000237079
0.00240719
0.00683236
0.00367391
0.00405979
0.00494749
0.00180604
0.00683539
0.00192988
0.00162166
0.00148775
0.00404158
0.0068174
0.00187947
0.00681699
0.00601958
0.00321521
0.0110708
0.00016431
0.00197827
0.00685862
0.000130565
0.00254775
0.00680646
0.00873085
0.00682142
0.00250209
0.00656519
0.00695331
0.00290044
0.00464234
0.00677418
0.00675398
0.00285561
0.00190258
0.00191492
0.000426372
0.00415747
0.00250782
0.0199179
0.00681916
0.00683127
0.000756019
0.000441634
0.00683212
0.00683351
0.000705754
6.311e-06
0.00194965
0.00676697
0.000545501
0.00938815
0.00573736
0.00683629
0.00591442
0.00679121
0.00748687
0.00194788
0.00246883
0.00190256
0.0026649
0.00285082
0.00781566
0.00681387
0.00680522
0.00407213
0.00589423
0.00638442
0.00681498
0.00628787
0.00679746
0.00678216
0.00684909
0.00681076
0.00289343
0.00671791
0.00239664
0.00197693
0.006763
0.00468036
0.00685343
0.00677427
0.00271741
0.0204389
0.00685243
0.00680344
0.00202403
0.00511715
0.00689252
0.00675234
0.0016061
0.00680995
0.00679653
0.00678002
0.00682363
0.00639203
0.00238734
0.00705328
0.00578474
0.00668458
0.0138306
0.00673361
0.00911018
0.00213928
0.00276445
0.00656202
0.00538138
0.00173964
0.00678983
0.00122772
0.00678579
0.00687381
0.00684973
0.00192514
0.00114054
0.00328654
0.00384168
0.00607074
0.00387105
0.00683986
0.00114943
0.0022157
0.000880645
0.0100215
0.00613278
0.00223395
0.0144286
0.0105441
0.00370349
0.00274059
0.00694545
0.00414458
0.00683416
0.00206439
0.00678902
0.00680113
0.00626582
0.00292711
0.00978437
0.00223122
0.00683441
0.0049958
0.00680932
0.00679439
0.00678633
0.00846448
0.00670604
0.00681622
0.0104831
0.00679162
0.00679799
0.00673443
0.00867932
0.004951
0.00305313
0.00794452
0.00128024
0.000159146
0.00384027
0.00669515
0.00264495
0.0068034
0.00984761
0.00270051
0.00942741
0.00123419
0.00679466
0.00620804
0.00068207
0.00230466
0.00450462
0.00299581
0.00681272
0.00683165
0.000653821
0.00121671
0.00103601
0.00683011
0.000605995
0.00685255
0.00210992
0.00130676
0.00205734
0.000795891
0.00298205
0.00684886
0.00345646
0.00465879
0.00944217
0.00682212
0.00674785
0.0042606
0.00271826
0.0025279
0.00661815
0.00966105
0.00252199
0.00494802
0.00683278
0.000731674
0.006783
0.00678101
0.00529804
0.00466001
0.00227343
0.00257392
0.00307281
0.00946758
0.00688033
0.00676834
0.00676618
0.00285962
0.000631893
0.000529773
0.00671925
0.00683264
0.0157559
0.00248592
0.00674546
0.00673998
0.00676463
0.00677877
0.00677674
0.00698562
0.00254984
0.00681158
0.00671194
0.00128347
0.00690156
0.00681781
0.00671914
0.0113143
0.00219135
0.000659826
0.00961385
0.000916027
0.00678843
0.00547559
0.00115586
0.00225833
0.00198195
0.00665857
0.00227412
0.00679255
0.00308396
0.00156068
0.00679858
0.00675647
0.00592118
0.00604874
0.00680738
0.00623326
0.0182989
0.00685404
0.00673604
0.00669208
0.00673603
0.00679248
0.00684366
0.00236504
0.00683817
0.00561651
0.00777235
0.00680203
0.0063124
0.000274871
0.00676414
0.00205889
0.00778884
0.00676545
0.0044287
0.00682031
0.0084082
0.00679625
0.00614742
0.00678958
0.00679136
0.0010939
0.00691472
0.000976843
0.00454768
0.0183783
0.00608075
0.00332423
0.00349562
0.00681095
0.00185426
0.00598037
0.00574684
0.00590947
0.00626761
0.00684664
0.00689363
0.00074739
0.00406759
0.00371743
0.00643022
0.00671903
0.0101622
0.00153882
0.00683977
0.0051876
0.0059918
0.00108394
0.001645
0.00854032
0.00922321
0.00643878
0.000962653
0.00634871
0.00225365
0.000671542
0.00101562
0.00683396
0.00566172
0.00994499
0.0067631
0.00210411
0.0020759
0.00682089
0.00973658
0.00672371
0.00183409
0.00681802
0.000298977
0.00671972
0.00344356
0.00232406
0.00566861
0.00683721
0.00191687
0.00170198
0.00681469
0.00676456
0.00975727
0.00178385
0.0067887
0.00309591
0.00675516
0.00681929
0.00238286
0.00111852
0.00675759
0.00591854
0.00683148
0.00327309
0.00332504
0.000911439
0.001075
0.00204586
0.00182706
0.00704514
0.00684394
0.0068135
0.00568396
0.000913401
0.00680554
0.00218536
0.00220666
0.0119485
0.00683353
0.000920164
0.00490367
0.0205103
0.00673658
0.000517856
0.000427914
0.00217845
0.00680862
0.000183096
0.00681472
0.00796375
0.000718147
0.00674136
0.0206474
0.00673629
0.0138065
0.00680386
0.00185178
0.013803
0.00663896
0.0165956
0.0023336
0.00670835
0.00872526
0.00105377
0.00669849
0.00101138
0.00682599
0.00231646
0.00102176
0.0067267
0.00305689
0.00647404
0.00678019
0.00671947
0.00684287
0.0110431
0.00141744
0.00682578
0.00684277
0.00682908
0.0019601
0.00225553
0.00679353
0.00669533
0.00166817
0.00103302
0.00679803
0.0066605
0.0077649
0.011109
0.0087381
0.0015881
0.000818974
0.0068441
0.00678278
0.00378524
0.00671784
0.0067942
0.00680274
0.00678408
0.00684347
0.0038662
0.00682569
0.00436781
0.00663196
0.00163471
0.00678533
0.00678969
0.0087119
0.00430686
0.00231396
0.00680926
0.00673247
0.00680748
0.00678811
0.00658074
0.00670477
0.00720802
0.00639939
0.00261142
0.00673268
0.00245949
0.00639793
0.00678747
0.000917986
0.00696996
0.00683101
0.0156334
0.00679118
0.00675684
0.00682808
0.00673291
0.00676708
0.00680803
0.0103225
0.00939429
0.00676176
0.00426955
0.0016982
0.00678965
0.00161877
0.00182807
0.00889429
0.00266322
0.00243066
0.0133899
0.0138556
0.00670029
0.00668872
0.00636225
0.00667448
0.0023716
0.00678828
0.00683177
0.0068025
0.00312421
0.00481809
0.00134105
0.00191221
0.00643414
0.00619248
0.00192034
0.00346387
0.00682536
0.00645473
0.00266322
0.00437506
0.00844622
0.00671848
0.00334537
0.000652186
0.00671511
0.0110826
0.00676602
0.00678787
0.00170825
0.00681123
0.00684149
0.000713159
0.010737
0.0171644
0.00673114
0.00505321
0.00647547
0.00197691
0.00179405
0.00683047
0.00683325
0.00672651
0.00170611
0.0129725
0.00684682
0.00681936
0.00675378
0.00677169
0.00622485
0.00352147
0.00680149
0.00193525
0.0067151
0.00682804
0.00654885
0.00865882
0.0067154
0.00396611
0.00680414
0.002217
0.00150006
0.00224372
0.00135545
0.00148373
0.00656027
0.00187825
0.00873155
0.00394791
0.00822387
0.006837
0.00682919
0.00637213
0.0067645
0.00677401
0.00677594
0.0151811
0.00428883
0.00730291
0.00188098
0.00322228
0.00142727
0.00676345
0.00163434
0.00691136
0.00665075
0.00679557
0.00680484
0.00107103
0.00682722
0.00681475
0.00683043
0.00138337
0.00620459
0.00672104
0.00188226
0.00192297
0.013392
0.00112771
0.00989401
0.00866407
0.00671579
0.00262815
0.00680609
0.00999691
0.0121514
0.00657749
0.00373213
0.00681072
0.00248137
0.00311013
0.00680439
0.00690543
0.00684378
0.000593756
0.00673813
0.00214767
0.00682877
0.00671747
0.00681646
0.000638413
0.00550073
0.000959492
0.00173979
0.00351343
6.77001e-05
0.00748301
0.00681661
0.0048115
0.00683538
0.00203701
0.00676592
0.000336558
0.00676707
0.00619017
0.00680574
0.0138781
0.00251137
0.0079119
0.00680869
0.00252202
0.00683023
0.00679539
0.0076981
0.00131733
0.00680132
0.000865226
0.00671897
0.00670519
0.00681276
0.00876728
0.00673752
0.00600305
0.00677454
0.00681686
0.00112065
0.00680709
0.000977652
0.00686258
0.00671728
0.00986305
0.0021524
0.0068306
0.000436243
0.00112977
0.0012936
0.000593436
0.00675833
0.00414529
0.00768768
0.000982331
0.00400771
0.00656049
0.00615368
0.00688318
0.00683523
0.00765354
0.00132192
0.00519811
0.00774734
0.00225864
0.000521562
0.00287293
0.0035432
0.00307936
0.000793386
0.00536611
0.00684438
0.00599288
0.0077733
0.0067174
0.00683942
0.00681995
0.00639412
0.00684157
0.0027754
0.00199754
0.00677036
0.00211519
0.00681019
0.00908443
0.00682314
0.00684487
0.0110363
0.00159681
0.0112712
0.00682182
0.00662178
0.00684882
0.00598216
0.0028379
0.00679933
0.00281348
0.00467872
0.00678509
0.0112798
0.00595249
0.00977588
0.00515447
0.006905
0.00682213
0.00843602
0.0170335
0.00462239
0.00292937
0.0113931
0.00672206
0.00684487
0.00658159
0.00208949
0.0140266
0.00253986
0.00613263
0.00375453
0.00198201
0.00644872
0.000929698
0.00194869
0.00680686
0.00662347
0.0068805
0.00281079
0.00619937
0.000966434
0.00561069
0.00643253
0.00289736
0.00733594
0.0145588
0.00661207
0.0025914
0.00412994
0.001035
0.00687714
0.00194833
0.00488141
0.0131427
0.00676725
0.0058822
0.00689467
0.00674492
0.00679916
0.00480018
0.00636563
0.000702134
0.00100321
0.00675451
0.000971607
0.00257564
0.00278283
0.000850308
0.00680979
0.00191589
0.00393651
0.00671132
0.00158183
0.0011086
0.00210568
0.00681204
0.00677025
0.00683706
0.00188037
0.0068098
0.00679857
0.0019357
0.006805
0.00680375
0.000890359
0.00110778
0.00379408
0.0129389
0.00325895
0.0024676
0.00679802
0.00630853
0.000182754
0.00658439
0.00702153
0.00683402
0.00682981
0.00682394
0.00547429
0.0021858
0.00681224
0.00788993
0.00677117
0.0139305
0.00634179
0.00274427
0.00681784
0.00163807
0.00611817
0.00804858
0.00370503
0.00682598
0.00840118
0.00678682
0.00552165
0.00320778
0.00339168
0.00652982
0.00683076
0.00676244
0.00872401
0.00294101
0.000953784
0.0118362
0.00674193
0.00205198
0.00670763
0.0061543
0.0118018
0.00671947
0.0052058
0.00360353
0.00243431
0.00163613
0.00518745
0.00675451
0.00683224
0.00100074
0.0067606
0.00683151
0.00672709
0.00683048
0.00187711
0.00675031
0.0019644
0.00680763
0.00258345
0.00532841
0.00392888
0.00286827
0.0154476
0.00173604
0.00277305
0.00672008
0.00672027
0.00679587
0.00678646
0.00672915
0.00302879
0.00675827
0.00255332
0.00683377
2.71452e-05
0.00681773
0.00206676
0.00127122
0.00684781
0.00438584
0.00676688
0.00659802
0.0038803
0.00681344
0.00949558
0.00131186
0.00791629
0.00684449
0.00673581
0.00679093
0.00676354
0.00837567
0.00672202
0.00138455
0.00675972
0.0128031
0.00619098
0.00677887
0.00182797
0.00583733
0.00672525
0.0110935
0.00384462
0.00655942
0.00183868
0.00676713
0.00159977
0.00683252
0.00676232
0.00563517
0.00685999
0.00616123
0.00205409
0.00479297
0.0067427
0.012793
0.000170985
0.00671065
0.00662993
0.00683139
0.000893168
0.00673325
0.0017674
0.00682351
0.0110936
0.00614205
0.00713973
0.00683785
0.00678471
0.0137829
0.00687688
0.0072691
0.00772354
0.00672991
0.00672638
0.00420073
0.00671517
0.00672138
0.00142695
0.00671093
0.00717139
0.00458174
0.00188036
0.000684196
0.00438535
0.0109336
0.00678582
0.00150429
0.00673634
0.00687102
0.0133646
0.00682197
0.00683428
0.00670506
0.00682982
0.00684412
0.00685389
0.00684897
0.00675687
0.00369202
0.00671125
0.00675523
0.00215843
0.00721108
0.00853279
0.00202697
0.00678962
0.0137868
0.00674699
0.000351932
0.0128805
0.000164266
0.00678194
0.00672258
0.00676085
0.00682997
0.00677589
0.00681527
0.00674387
0.00300082
0.00672641
0.00069396
0.00328049
0.00675018
0.00883878
0.00673813
0.00683911
0.00571028
0.00911463
0.00319479
0.0067934
0.0117183
0.00684033
0.00683979
0.000798226
0.00670851
0.00820701
0.00634324
0.0022335
0.00678402
0.00684251
0.00479905
0.000387296
0.00674005
0.00863437
0.00599664
0.00692883
0.00657649
0.00673899
0.00676506
0.0022173
0.00193032
0.00517654
0.00943744
0.000936008
0.000584251
0.00211249
0.0068525
0.00900289
0.00684686
0.00909752
0.00150645
0.00272044
0.00676263
0.00979377
0.0174529
0.000110168
0.00768417
0.0129698
0.00683576
0.00675735
0.0019245
0.00680971
0.00682015
0.000169637
0.00446402
0.00684503
0.00220041
0.00673403
0.0068181
0.00675584
0.0147121
0.00961249
0.00680082
0.00680257
0.00309945
0.00678673
0.00684203
0.00455015
0.00536318
0.00678765
0.00879698
0.00779133
0.0069646
0.0132175
0.00600068
0.00712511
0.00682335
0.00682039
0.00648321
0.00464914
0.0131634
0.00382881
0.00390625
0.0056725
0.0056173
0.00663781
0.00827248
0.00632468
0.00673353
0.00196996
0.00678405
0.0129959
0.00162014
0.0018018
0.00189799
0.000318458
0.0144476
0.00589342
0.0103932
0.00695474
0.000387294
0.00676208
0.00167392
0.00119585
0.00850197
0.00405068
0.00664291
0.00435353
0.00386552
0.00670878
0.00873929
0.00277042
0.00103544
0.00872285
0.00682238
0.00205639
0.00666924
0.00683221
0.00610563
0.00707375
0.00680559
0.0067481
0.00675981
0.000879991
0.00673108
0.00672941
0.00338452
0.00678585
0.00681651
0.00117268
0.0019431
0.00673294
0.00684252
0.00197558
0.0042046
0.00235061
0.0108107
0.00682709
0.00673516
0.0167541
0.00679557
0.00669845
0.0102732
0.00774455
0.00573914
0.0017318
0.00493122
0.00174994
0.00137165
0.00535809
0.00211851
0.00684356
0.0010767
0.00814627
0.00119103
0.0121655
0.0205756
0.00684007
0.00682692
0.00685071
0.00681995
0.00682511
0.000945169
0.00686647
0.00210444
0.00673056
0.00188786
0.00890308
0.006709
0.00172026
0.0144923
0.00673854
0.00215623
0.00549443
0.00674709
0.00674814
0.00874943
0.00171102
0.00549773
0.00504658
0.00607661
0.00108632
0.00672734
0.00360783
0.00266434
0.00639548
0.00678533
0.00054114
0.0067479
0.00563657
0.00343191
0.00635727
0.00553347
0.00197369
0.00601794
0.00673661
0.000856003
0.00204464
0.00683331
0.0067453
0.00623447
0.00024192
0.000219672
0.00682394
0.00212162
0.00427003
0.00628436
0.00248215
0.00681323
0.00672134
0.00683847
0.00673884
0.00696634
0.00659971
0.000145242
0.00675563
0.00366566
0.00805043
0.00414173
0.00197959
0.00960068
0.00718051
0.00682141
0.00680162
0.0067166
0.00676327
0.00175545
0.00847188
0.00752482
0.00115895
0.00418477
0.00199387
0.00335171
0.00465532
0.00560973
0.00193695
0.00684984
0.00168979
0.00476495
0.00681102
0.00681699
0.0101991
0.0019818
0.00793756
0.00729346
0.000750352
0.00684451
0.000378602
0.00693924
0.00672195
0.00598326
0.00624341
0.0068482
0.00575578
0.00146372
0.00525496
0.00680654
0.00674872
0.00674855
0.00678263
0.00673972
0.00351177
0.00373469
0.00466309
0.005195
0.003682
0.00232166
0.00116967
0.00684098
0.00436731
0.000514123
0.00109444
0.00719441
0.0067307
0.00674753
0.00742468
0.00673127
0.0126597
0.00581275
0.00434629
0.0068318
0.00673547
0.00108366
0.00412061
0.00673867
0.00673418
0.0147355
0.000328886
0.00728161
0.00679703
0.00683172
0.0208438
0.00680186
0.00684435
0.00121834
0.00964415
0.00516772
0.00234659
0.00681305
0.000463744
0.00672307
0.00644893
0.00526161
0.00674293
0.001098
0.00672583
0.00677777
0.000126533
0.0020957
0.0118982
0.00108976
0.00671891
0.00312344
0.00680287
0.00684416
0.00656719
0.0068003
0.00682682
0.00121519
0.00681109
0.0013674
0.00613723
0.00636877
0.00679114
0.00685043
0.00683859
0.00889976
0.00679888
0.00134104
0.00211409
0.00683569
0.00203347
0.00222016
0.00275235
0.00682041
0.00615785
0.00675609
0.00681379
0.0118408
0.00242277
0.00627382
0.00681405
0.00683689
0.00680825
0.00190059
0.00677992
0.00956265
0.00196761
0.0068398
0.00671887
0.00678446
0.00208776
0.0059477
0.0168583
0.00613981
0.014001
0.00635472
0.000960949
0.00657906
0.00699114
0.00673159
0.00679343
0.00531343
0.00736238
0.00678982
0.00996413
0.00683198
0.00682311
0.00112958
0.000668808
0.00168299
0.00776632
0.00412523
0.00139836
0.00613176
0.00685183
0.00722799
0.0067381
0.00679537
0.00244132
0.00676312
0.0101557
0.00626274
0.00675537
0.00676115
0.00685463
0.00870796
0.00681295
0.00674929
0.00235158
0.00671955
0.00679935
0.00693602
0.00684808
0.00203081
0.00682004
0.00644718
0.00671643
0.00501383
0.00226209
0.00671822
0.00671981
0.00680432
0.00671885
0.00352899
0.00678847
0.00683627
0.00682138
0.0067494
0.00678323
0.00679945
0.00186453
0.00678621
0.00159526
0.00682227
0.00202314
0.0068199
0.00682526
0.00679276
0.0068001
0.00499017
0.0061862
0.00294569
0.0124176
0.00893211
0.0106497
0.00971054
0.00194687
0.00311562
0.00682717
0.00679257
0.00408374
0.00869666
0.00679765
0.0071582
0.00680063
0.00177666
0.00778707
0.00379995
0.00148043
0.00880726
0.017574
0.00683234
0.00200865
0.00675485
0.00282539
0.00387791
0.0101872
0.00182813
0.00683187
0.00287511
0.00102749
0.00683056
0.00166962
0.01089
0.00670224
0.00671605
0.00934653
0.00806221
0.00685072
0.00230795
0.00681806
0.00105026
0.000748951
0.00682653
0.00682683
8.11403e-05
0.0068439
0.00673815
0.00622412
0.0067533
0.000329939
0.0055227
0.00305146
0.0095005
0.00673907
0.00254598
0.00680901
0.00895628
0.0017737
0.00339154
0.00681554
0.00322614
0.00679684
0.00685357
0.00324081
0.00681534
0.00206218
0.0067689
0.00676526
0.00673617
0.0105453
0.00671654
0.00563609
0.00490978
0.0153383
0.00682379
0.00683475
0.00672813
0.00908539
0.00683147
0.000744935
0.00684191
0.00450464
0.00671891
0.0065984
0.00106431
0.00683041
0.0068545
0.00761335
0.00149971
0.00993812
0.00674648
0.00681587
0.00998347
0.00682957
0.0084117
0.0068308
0.00631193
0.00691475
0.0066287
0.0020776
0.00525786
0.00359363
0.00174232
0.00678341
0.000611151
0.00674077
0.00594866
0.00672528
0.00431105
0.00674205
0.00674609
0.00655416
0.0135475
0.00683788
0.0111022
0.00302103
0.0118353
0.00674537
0.00437539
0.00800686
0.00191176
0.00050724
0.00121004
0.00682243
0.00101482
0.00370528
0.0065743
0.000594072
0.00679045
0.000768248
0.00225572
0.00684233
0.00254718
0.00671891
0.00582832
0.000378044
0.00642864
0.00651163
0.00723305
0.0145637
0.00673081
0.0058269
0.00676147
0.00682924
0.00467766
0.00154089
0.000995108
0.00680725
0.00426029
0.0101992
0.00620271
0.0129823
0.000206842
0.00671772
0.00673164
0.00123661
0.00780845
0.00376363
0.00915645
0.00120244
0.00476938
0.00346688
0.00853653
0.0086572
0.0123357
0.00671616
0.00122766
0.00215761
0.00143986
0.00679298
0.00273868
0.00177252
0.00162802
0.0156471
0.00668808
0.000847548
0.00923969
0.0024636
0.00673102
0.00673358
0.00224651
0.00684486
0.0103613
0.00448369
0.00667021
0.000684714
0.00549133
0.00671784
0.00261222
0.00258353
0.006797
0.00826452
0.00629071
0.00903691
0.00685682
0.00907365
0.00089141
0.00120676
0.00680215
0.00524199
0.00341309
0.00167185
0.000848822
0.00203407
0.0048502
0.000640877
0.00674296
0.00540632
0.00667117
0.000987457
0.00238504
0.00678845
0.00671553
0.00676338
0.000387656
0.00126672
0.00684983
0.00382123
0.000741358
0.00672213
0.00575429
0.00659894
0.00786577
0.00604233
0.0101169
0.00088157
0.00309877
0.00651496
7.52076e-05
0.00674686
0.00238234
0.00732398
0.00427803
0.0023848
0.00202589
0.00202537
0.00708296
0.00683863
0.00678039
0.0105423
0.000643347
0.00676132
0.00166106
0.00147548
0.00102064
0.00191988
0.000975996
0.0106288
0.000957715
0.00785526
0.00527578
0.00194121
0.00682131
0.00682052
0.00681104
0.00674959
0.0010557
0.00169549
0.00680426
0.00215641
0.00132138
0.00674358
0.011874
0.00763752
0.00684397
0.00683077
0.00682791
0.00676634
0.00207342
0.0067409
0.00558795
0.00268086
0.00134107
0.00628561
0.00151004
0.0041243
0.00295558
0.000857
0.00679869
0.00675711
0.00679988
0.00685025
0.00863516
0.00216255
0.00444886
0.00696695
0.00680373
0.00680405
0.00313402
0.00680605
0.00684998
0.00264481
0.00421569
0.00701177
0.013704
0.00973082
0.00677922
0.012278
0.00674504
0.000980213
0.00671658
0.00158781
0.00904313
0.00676585
0.000544694
0.00657562
0.00419391
0.00682611
0.00678875
0.00512767
0.00602603
0.00675012
0.00682724
0.00689317
0.00695628
0.00123456
0.00682713
0.00437293
0.00671767
0.00690933
0.000496198
0.00283479
0.00652697
0.00103195
0.002804
0.00991713
0.0141489
0.00689812
0.0067629
0.00728445
0.00680163
0.00179438
0.00679485
0.00462357
0.00672671
0.00678368
0.00515271
0.00828759
0.00672892
0.00681832
0.00672831
0.00153123
0.000747201
0.00074238
0.00672853
0.00657872
0.00673056
0.00930477
0.00683577
0.000786331
0.00205023
0.00680135
0.000561382
0.00280015
0.00811355
0.00482474
0.00684649
0.00467907
0.00238697
0.00123704
0.00682355
0.00682109
0.00674102
0.00968436
0.00678355
0.00681703
0.00669048
0.00671905
0.00631707
0.00422538
0.00684023
0.00683626
0.00954601
0.00346408
0.0105021
0.0121525
0.00672801
0.00616373
0.00683164
0.000845051
0.0029814
0.00680221
0.00680501
0.00672497
0.00674082
0.0175037
0.00198842
0.00872059
0.00893391
0.00676088
0.00644923
0.00475864
0.000156139
0.00675176
0.00664224
0.00677127
0.00314541
0.00678344
0.00589511
0.00682642
0.00106516
0.00860829
0.00667678
0.0067415
0.0028066
0.00413893
0.00681611
0.00571919
0.00670748
0.00181275
0.000188496
0.00672843
0.00886948
0.0054949
0.00672963
0.00404367
0.00206474
0.00763985
0.0171394
0.00471788
0.0062819
0.00683978
0.00482475
0.0068102
0.00204467
0.00405896
0.00683263
0.00410786
0.000989065
0.0104131
0.00674541
0.000901876
0.0122748
0.00931984
0.00681221
0.00680211
0.0103508
0.000966621
0.00284051
0.00681326
0.0146059
0.00197939
0.00674815
0.00457154
0.00509275
0.00682765
0.000523949
0.00683323
0.00600399
0.00683074
0.00670188
0.00682354
0.0067286
0.0067995
0.00679696
0.00673004
0.00150193
0.00294645
0.00651388
0.00164137
0.00682457
0.0067306
0.00673842
0.00679347
0.012566
0.0139786
0.000249557
0.0123199
0.00323881
0.00772698
0.00480241
0.0094382
0.0131786
0.00730445
0.0067722
0.00338903
0.00675356
0.00683181
0.00685221
0.00668382
0.00123991
0.00202623
0.00354277
0.00674164
0.00673114
0.00185169
0.00682825
0.00682339
0.00682774
0.00991835
0.00470952
0.00157702
0.0067744
0.0123291
0.00681977
0.00678983
0.00677858
0.00206198
0.00675716
0.00118933
0.00917053
0.00452941
0.00699078
0.011032
0.00691213
0.00407372
0.0143843
0.000841734
0.00681471
0.00685359
0.00672987
0.00893794
0.00670658
0.00290322
0.00471169
0.00136562
0.00105638
0.000429336
0.00203472
0.0081033
0.00685019
0.00671487
0.00167211
0.000536485
0.00678588
0.00678182
0.0207879
0.00671698
0.000663006
0.006845
0.00683519
0.00562927
0.00677937
0.00128309
0.00908273
0.00762437
0.00411906
0.00681904
0.00227659
0.00677757
0.0012756
0.00674535
0.00159603
0.00225708
0.00682284
0.0068275
0.00673688
0.00108726
0.00394738
0.00121321
0.000465399
0.00476162
0.00256522
0.00203896
0.00190186
0.00543017
0.00674711
0.00919154
0.00679947
0.00981172
0.00108877
0.00890384
0.0056376
0.00684581
0.00194064
0.00520775
0.00683045
0.00508622
0.00682003
0.00678883
0.00342831
0.0068191
0.00248278
0.000855682
0.00018821
0.00799904
0.0043541
0.00463487
0.00677589
0.00678018
0.00680422
0.000752889
0.00215375
0.00923748
0.00352349
0.00680843
0.00675665
0.00678472
0.00107385
0.00657169
0.00673177
0.00543587
0.0022867
0.00243407
0.0021479
0.0029251
0.00951668
0.00464074
0.00245605
0.0067509
0.00303482
0.000499788
0.00566761
0.00390219
0.00680899
0.00466527
0.00285038
0.00680745
0.00183094
0.0099188
0.0118409
0.00414889
0.00671908
0.00876353
0.00682171
0.00672262
0.00681301
0.00430766
4.85045e-05
0.00691492
0.00138915
0.00456444
0.00688158
0.00308788
0.00161757
0.0097036
0.00485592
0.00851102
0.00681469
0.0058116
0.00618583
0.00720392
0.0027624
0.00684884
0.0102987
0.00675809
0.00679833
0.0139932
0.000635868
0.00160906
0.000338749
0.00325007
0.00619824
0.000538419
0.00680165
0.00672417
0.0067754
0.00214796
0.00674933
0.00329471
0.00462465
0.00558292
0.000293165
0.00680937
0.00526729
0.00685913
0.00998119
0.0073363
0.00677592
0.00682698
0.00306975
0.000869557
0.00123398
0.00136446
0.00974432
0.0090772
0.000334258
0.00659974
0.000758451
0.0060901
0.00416989
4.49308e-05
0.00683262
0.00683125
0.0067696
0.00677079
0.00673031
0.00227501
0.0076699
0.00373917
0.010432
0.00250865
0.000216157
0.00959224
0.00976826
0.00587709
0.00857488
0.00100724
0.0020769
0.0067152
0.00682842
0.0019558
0.00544691
0.00669151
0.00722968
0.0101069
0.0067906
0.00680093
0.00677074
0.0017861
0.00681208
0.00138226
0.00922736
0.00674288
0.00671921
0.00677633
0.00680925
0.00210233
0.00875726
0.00314751
0.00153173
0.000860006
0.00673867
0.0141108
0.00101975
0.00682906
0.000647367
0.000188767
0.00877161
0.00059012
0.00679368
0.00683393
0.00110436
0.00912795
0.000715621
0.00249366
0.00685394
0.00669699
0.00661552
0.00383611
0.00471286
0.00141794
0.006826
0.00440388
0.0138803
0.00890518
0.00661617
0.00683886
0.0107116
0.00966585
0.00681725
0.00504971
0.000895414
0.00672828
0.00672758
0.00896836
0.00674501
0.000977659
0.0136558
0.00508247
0.00675291
0.00271043
0.00117828
0.00680434
0.00677326
0.0169548
0.00335729
0.00677345
0.00285154
0.000673113
0.00112572
0.00957397
0.00145018
0.00540048
0.0142472
0.0127609
0.00348369
0.00671759
0.00229681
0.00672159
0.006795
0.00683833
0.00485517
0.000958782
0.00398033
0.00622749
0.00684077
0.00676588
0.00681282
0.00660829
0.00348785
0.0040798
0.000227737
0.0028436
0.00396623
0.00159088
0.00647957
0.00705853
0.00407069
0.00682314
0.00387756
0.00339627
0.00539378
0.000711722
0.0125123
0.0068143
0.000486243
0.00829796
0.00531368
0.00224605
0.00152722
0.00207566
0.00191798
0.00560891
0.00174547
0.00160774
0.00147913
0.0013615
0.00185491
0.00135165
0.00614814
0.00672249
0.00257616
0.00221515
0.0067525
0.000327855
0.00863396
0.000643994
0.0101454
0.00676188
0.00681957
0.00564798
0.00369049
0.00655056
0.00661485
0.00196149
0.00853441
0.0187313
0.00681763
0.00318134
0.00441284
0.00262443
0.0138211
0.00329782
0.000419652
0.00898532
0.00182373
0.00886732
0.000922355
0.00609352
0.00928515
0.0066938
0.00734692
0.00967836
0.00678278
0.00145544
0.000956151
0.00631492
0.00682669
0.000993811
0.0164863
0.00685563
0.00685742
0.00775726
0.000244233
0.00120578
0.00683422
0.000975853
0.000791572
0.0102463
0.00683627
0.00679362
0.00672726
0.00680693
0.00690957
0.007449
0.0208062
0.00858152
0.00220831
0.0010987
0.0124439
0.00692079
0.00672601
0.00880941
0.00685392
0.00854129
0.00683253
0.0092316
0.00655346
0.00677967
0.010589
0.00677768
0.0018899
0.00721927
0.00684004
0.00662985
0.00642513
0.00127262
0.006987
0.000748678
0.010271
0.00695542
0.00692377
0.00313594
0.00127246
0.00753325
0.00844967
0.00101632
0.00108339
0.00172495
0.00185964
0.00724705
0.0068542
0.00674723
0.00671582
0.00100273
0.00187812
0.0107077
0.00453172
0.00147805
0.00678899
0.0119791
0.000429972
0.00315731
0.00672723
0.00589154
0.00670583
0.00974921
0.00309051
0.0151395
0.000985132
0.00176607
0.00108003
0.0067331
0.00228906
0.000729956
0.000906845
0.000248406
0.00675492
0.00161942
0.00680704
0.00676285
0.00170861
0.012041
0.000520577
0.00682129
0.00116538
0.00105888
0.010055
0.00329951
0.00703992
0.00528755
0.00683819
0.0015702
0.0068129
0.00156518
0.00684347
0.000897286
0.00664475
0.00188791
0.0128264
0.00753543
0.00694394
0.00202692
0.00975367
0.00179149
0.00661338
0.0137002
0.00193224
0.00688813
0.00671637
0.00491434
0.00373429
0.000785315
0.000383989
0.00768279
0.00449436
0.00692462
0.00565297
0.00914939
0.0178645
0.000983033
0.00291369
0.00194025
0.00177595
0.00640718
0.00271129
0.00681455
3.98413e-05
0.00351168
0.000380695
0.00494088
0.00665947
0.000355087
0.000132726
0.00272206
0.00222756
0.00656042
0.00766598
0.000723781
0.000665948
0.00196045
0.00671717
0.00671066
0.00851213
0.00733088
0.00597452
0.00682154
0.0044318
0.00440722
0.00443037
0.00219133
0.0095977
0.00523883
0.00940654
0.000794145
0.0176466
0.00681752
0.000528232
0.00851387
0.00694517
0.00236759
0.00674597
0.00429609
0.00680375
0.0136345
0.00676969
0.00678556
0.00913358
0.00110037
0.00671496
0.00811944
0.00680376
0.00682661
0.00674364
0.00683823
0.0068217
0.000515197
0.00993066
0.0067905
0.00366892
0.00200321
0.002031
0.000233725
0.00234906
0.00533845
0.00211605
0.00671865
0.013326
0.00345492
0.00734428
0.0069328
0.00329553
0.000135262
0.00130299
0.00019976
0.00916035
0.00671955
0.00599296
0.00167496
0.00171296
0.00387189
0.00680321
0.00488906
0.00122002
0.00679233
0.00403287
0.00671974
0.00564744
0.00149995
0.00572696
0.00128733
0.00132804
0.0089774
0.00682425
0.00684456
0.00212669
0.00673908
0.00682486
0.00682742
0.00520728
0.00678561
0.00672568
0.0067719
0.00439086
0.00670233
0.00495337
0.00685334
0.00342915
0.00202087
0.00641143
0.00597596
0.00638221
0.00674051
0.00217998
0.00203399
0.00689327
0.00679464
0.00306855
0.00329283
0.00827787
0.00332762
0.000840777
0.00673209
0.00683265
0.00198928
0.00959108
0.00201526
0.00368498
0.00672431
0.0103183
0.00680817
0.00672568
0.00212463
0.00384016
0.000715696
0.00981817
0.00162378
0.00130226
0.00445611
0.00450211
0.00683224
0.00682111
0.00164797
0.0143008
0.00206884
0.000896539
0.00867663
0.00500621
0.00681108
0.00304007
0.000989033
0.00196495
0.00679677
0.00201509
0.00208481
0.00147845
0.00681822
0.00678931
0.000715487
0.00149101
7.03519e-05
0.00886971
0.00659844
0.00172418
0.0068199
0.0020239
0.00112153
0.00683364
0.000664154
0.00566201
0.0010637
0.0163156
0.00678094
0.00683065
0.00672034
0.00858535
0.00110054
0.00667144
0.00207496
0.00186125
0.00681574
0.00683292
0.00115142
0.007932
0.000614779
0.00934306
0.00120068
0.00230748
0.000286388
0.00171394
0.00239968
0.00682592
0.0022694
0.00804442
0.00679887
0.00207022
0.00157198
0.00680045
0.00272832
0.00463501
0.00202802
0.0053371
0.00144308
0.00678423
0.00592997
0.00308732
0.00671514
0.00685983
0.00674774
0.00676888
0.00679447
0.00682114
0.00332487
0.00682994
0.00680556
0.0127226
0.0022248
0.0068076
0.00149197
0.00542762
0.00666632
0.00675567
0.00207668
0.0061694
0.00102182
0.00678521
0.00677371
0.00148482
0.000830549
0.0068167
0.00680592
0.000801755
0.00351456
0.00100179
0.00155346
0.00682238
0.00192429
0.00345464
0.00680574
0.00260649
0.00816657
0.00690936
0.00159531
0.00685812
0.00277237
0.00683077
0.00502187
0.00675023
0.00677815
0.00474515
0.00156341
0.000317887
0.00187276
0.00679431
0.00496831
0.0102408
0.00310219
0.0012531
0.00204593
0.00679309
0.00188617
0.00284712
0.00123264
0.00634642
0.00519506
0.00857319
0.0114721
0.00353158
0.00682244
0.00136281
0.00680825
0.00199751
0.0101774
0.00682719
0.0101829
0.00683369
0.00984589
0.00213191
0.00679608
0.00154749
0.00977508
0.0123912
0.0042164
0.00146545
0.00283485
0.00671479
0.0157976
0.00673405
0.00360569
0.00673784
0.00643276
0.00873237
0.00210629
0.00679509
0.00375406
0.000997714
0.00682287
0.00682992
0.00379481
0.00639408
0.00678762
0.0042645
0.0065177
0.00682361
0.00675781
0.0020031
0.00194961
0.0012631
0.00672058
0.00202929
0.00878299
0.00504337
0.00681851
0.00683066
0.00276738
0.00182203
0.0068136
0.00678089
0.00677051
0.00685319
0.00601016
0.00315855
0.00692028
0.00197558
0.00639636
0.00676076
0.0066874
0.00221684