/*--------------------------------*- C++ -*----------------------------------*\
| =========                 |                                                 |
| \\      /  F ield         | OpenFOAM: The Open Source CFD Toolbox           |
|  \\    /   O peration     | Version:  v2012                                 |
|   \\  /    A nd           | Website:  www.openfoam.com                      |
|    \\/     M anipulation  |                                                 |
\*---------------------------------------------------------------------------*/
FoamFile
{
    version     2.0;
    format      ascii;
    class       volScalarField;
    location    "150";
    object      nut;
}
// * * * * * * * * * * * * * * * * * * * * * * * * * * * * * * * * * * * * * //

dimensions      [0 2 -1 0 0 0 0];


internalField   nonuniform List<scalar> 
13917
(
0.00323171
0.00180712
0.00106877
0.0052435
0.00547209
0.00196966
0.00285031
0.00172996
0.00252241
0.000264676
0.00202407
0.00684308
0.00377342
0.00157005
0.00405148
0.00197875
0.00682538
0.00159073
0.000776123
0.00114839
0.00306342
0.00683771
0.00135751
0.00683766
0.00553132
0.00225944
0.0174573
0.000222889
0.00139275
0.00678632
0.000171559
0.0020013
0.00636886
0.0099214
0.00681667
0.00210265
0.0055789
0.00688807
0.00253934
0.00450851
0.00680441
0.0067512
0.00266361
0.00108672
0.00106896
0.000289974
0.00332163
0.002191
0.0142042
0.0068165
0.0068439
0.00042157
0.000469613
0.00684855
0.00684847
0.000399943
4.25874e-05
0.00147364
0.0067545
0.000345822
0.00971872
0.00478726
0.00684088
0.00528722
0.00972022
0.00266403
0.0013899
0.0021886
0.00159622
0.00286766
0.00613183
0.00875457
0.00682487
0.0067673
0.00304242
0.00559032
0.00641248
0.00677993
0.00557968
0.0067762
0.00677884
0.00682671
0.00682274
0.00624544
0.0067176
0.00210008
0.00157067
0.00676291
0.00454297
0.00684453
0.00676612
0.00250843
0.0113161
0.006829
0.00680339
0.00142465
0.011782
0.00683819
0.00675221
0.0015051
0.00683662
0.00682141
0.0067754
0.00680692
0.00642081
0.00495616
0.00760035
0.00451882
0.00667692
0.0184772
0.00673439
0.0104346
0.00145524
0.00293685
0.00950517
0.00490796
0.000844999
0.00679534
0.000674617
0.00679675
0.00684316
0.00681601
0.00142037
0.000648555
0.00346646
0.00625105
0.00540991
0.00272008
0.0068324
0.000606916
0.00197961
0.000769031
0.0123368
0.00557555
0.00170966
0.0182157
0.00974189
0.00381861
0.00186112
0.00688109
0.00514357
0.00680306
0.00453693
0.00679231
0.00681503
0.0066891
0.00594335
0.0099577
0.00232697
0.00685065
0.00485005
0.00682312
0.00680844
0.00679697
0.0143497
0.00673442
0.0068009
0.0126226
0.00681387
0.00680972
0.0067365
0.0104642
0.00401162
0.00452744
0.00956538
0.00159421
0.00017804
0.00648311
0.00668506
0.00180721
0.00682581
0.0123568
0.00249061
0.00897394
0.000718393
0.0068192
0.00553548
0.000387378
0.00206675
0.00366215
0.00280714
0.00683517
0.00684498
0.000342717
0.000733339
0.00077568
0.00684435
0.000338634
0.00678886
0.00179776
0.000743967
0.00114383
0.00041343
0.00328946
0.00682642
0.00365999
0.00459728
0.0118375
0.00681575
0.00677484
0.00389386
0.00293196
0.00258538
0.00649331
0.0160587
0.00191099
0.0048023
0.00680148
0.000405755
0.00677967
0.00676157
0.0046301
0.00423577
0.00220463
0.0016527
0.00210049
0.0116853
0.00686809
0.00675253
0.00675209
0.0046656
0.00034535
0.000250142
0.00671942
0.00683231
0.0175874
0.00260252
0.00672975
0.00672645
0.00679023
0.00676378
0.0067633
0.00778213
0.00281475
0.00682229
0.00669347
0.000755777
0.0076041
0.00683518
0.00671915
0.0172238
0.00449868
0.000392226
0.0118149
0.000510103
0.0067922
0.0080704
0.00067484
0.00153008
0.00116665
0.00661488
0.00225271
0.00680422
0.00209957
0.000926308
0.00680796
0.00678229
0.00530177
0.00606295
0.00679447
0.00668975
0.0123292
0.006818
0.00672117
0.00672352
0.00672157
0.0068038
0.00684768
0.00184612
0.00680861
0.00582719
0.00865835
0.00681892
0.0063642
0.00030009
0.00676228
0.00102828
0.00847548
0.00676268
0.00481037
0.00680511
0.01011
0.0068265
0.00606602
0.00679795
0.00679135
0.000517422
0.00686067
0.00455742
0.005194
0.0133558
0.00662975
0.00778517
0.00359102
0.0068178
0.00122581
0.00601007
0.00537023
0.00569169
0.0057611
0.00682561
0.00686986
0.00042528
0.00386294
0.00282129
0.00569182
0.00671884
0.0123961
0.00168047
0.00682528
0.00568665
0.00537638
0.00266964
0.00163914
0.00979798
0.0087432
0.00352217
0.000597533
0.00640002
0.00533836
0.00248363
0.00104937
0.00683721
0.00474741
0.0168591
0.00679005
0.00175371
0.00110224
0.00682012
0.0122787
0.00672319
0.0018044
0.00680897
0.000291647
0.00671468
0.00278464
0.00175281
0.00508475
0.00683555
0.00118811
0.00418813
0.00681789
0.00679214
0.0113802
0.00422465
0.00710178
0.00149781
0.00675199
0.00682922
0.00457169
0.000629682
0.00675378
0.00532783
0.00684756
0.00142695
0.00257241
0.000493972
0.000573051
0.00109413
0.00175254
0.00791235
0.00683565
0.00681596
0.00460653
0.000488727
0.00681776
0.00237984
0.00205205
0.0171334
0.00684718
0.000539175
0.00558645
0.00829219
0.00672517
0.000245647
0.000315459
0.00166782
0.00682652
0.00157032
0.00680459
0.00960428
0.000369019
0.00672788
0.0110416
0.00673789
0.013136
0.00677154
0.00178053
0.0129284
0.00574539
0.017416
0.00105986
0.00667907
0.00985909
0.000992056
0.00636416
0.000461502
0.00683798
0.00103204
0.000929301
0.00672618
0.00272892
0.00579976
0.0067802
0.00671779
0.00683824
0.010308
0.00175642
0.00683477
0.00683976
0.0068479
0.00131668
0.00186975
0.00679383
0.00668549
0.0016582
0.000566285
0.0067998
0.00660744
0.00644993
0.0137568
0.00498129
0.000753236
0.00350782
0.00681557
0.00678305
0.00305055
0.00671613
0.00679307
0.00681078
0.00678323
0.00681556
0.00618466
0.00683702
0.00424589
0.00695963
0.00114283
0.00676799
0.00680368
0.00988193
0.00369482
0.00241897
0.00680796
0.0067351
0.00680073
0.0067757
0.00550696
0.00670708
0.00550672
0.00618922
0.00523131
0.00673545
0.00210346
0.00595866
0.00678667
0.000513037
0.00711261
0.00684784
0.0158864
0.00677488
0.00675736
0.00684759
0.00673336
0.00675054
0.00680892
0.012543
0.00950899
0.00674536
0.00836986
0.00169343
0.00679113
0.00105727
0.00230402
0.0102943
0.00240207
0.00533819
0.0153003
0.0152937
0.0066998
0.00237438
0.00535562
0.00663691
0.00286444
0.00678035
0.00685002
0.00680208
0.00285236
0.00439985
0.000669575
0.00139011
0.00716256
0.0062219
0.00155061
0.00159262
0.00683428
0.00207115
0.00208269
0.0048408
0.00974062
0.00671803
0.00131499
0.000377881
0.00671256
0.0128253
0.00676635
0.00677584
0.001145
0.00680584
0.00684283
0.000398547
0.0126553
0.0155403
0.00673275
0.00457818
0.00642994
0.00187872
0.000541248
0.00684286
0.00684912
0.00672731
0.00105077
0.010064
0.00683825
0.00683321
0.00677911
0.00677165
0.00634872
0.00323472
0.00679707
0.00138255
0.00671264
0.00684672
0.0058767
0.00995688
0.00670451
0.00363009
0.0067929
0.00185008
0.000922987
0.0012432
0.000800191
0.00142402
0.00573643
0.0014155
0.0114729
0.00573545
0.00875593
0.00681632
0.00684714
0.00766497
0.00677457
0.00979015
0.00677377
0.0105314
0.00415182
0.0103383
0.00105535
0.00299314
0.00226087
0.00674667
0.00180822
0.00685797
0.00666919
0.00957945
0.00679993
0.00101869
0.00684502
0.00681711
0.00684882
0.000705723
0.00632206
0.00670786
0.00121171
0.00128392
0.00992255
0.00444813
0.01211
0.0100997
0.00670501
0.00278693
0.00679485
0.0095022
0.0116154
0.00663675
0.00487209
0.00683507
0.00196231
0.00289953
0.00679969
0.00685302
0.00685166
0.00309791
0.00674141
0.00176888
0.00684684
0.00670517
0.00684056
0.000389642
0.00713437
0.00156581
0.00106292
0.00320155
0.000481729
0.00829158
0.00678211
0.00500642
0.00684243
0.00205024
0.00677606
0.00171917
0.00676564
0.0063095
0.00681951
0.010583
0.00193798
0.0106191
0.006799
0.00199775
0.00682963
0.0068258
0.00873113
0.00116456
0.006809
0.000464536
0.00671884
0.00670576
0.00683712
0.0100626
0.00674075
0.00560673
0.00677384
0.00682001
0.000509591
0.00682868
0.000511959
0.00682706
0.00671361
0.00988791
0.00175776
0.00684436
0.000446061
0.000984753
0.00112307
0.000330104
0.00674213
0.0033677
0.00871278
0.00095151
0.00329466
0.00585412
0.00631553
0.0068421
0.00683358
0.00735141
0.000800115
0.00507037
0.00954239
0.0017352
0.0024128
0.000635158
0.00384315
0.00252257
0.000423217
0.00586009
0.00682444
0.00460844
0.0100886
0.0067138
0.00681967
0.00684635
0.00692011
0.00684784
0.00296423
0.0018769
0.00676626
0.00117183
0.00679657
0.010605
0.00680769
0.0068334
0.012878
0.00102143
0.0138837
0.00682795
0.00679822
0.0068333
0.00541245
0.00245562
0.00679869
0.00292127
0.0054545
0.00984258
0.0145058
0.00547031
0.0119903
0.00466118
0.00686463
0.00682496
0.00930411
0.0163201
0.00464279
0.00309173
0.00841097
0.00671669
0.00683002
0.00568727
0.00500616
0.0132393
0.00195207
0.00553421
0.00343185
0.00199473
0.00649648
0.00050556
0.0018293
0.00680878
0.00578447
0.00683636
0.00246722
0.00624625
0.000957205
0.00517938
0.00662704
0.00301415
0.00672286
0.00966197
0.00568728
0.00207527
0.00386705
0.000963166
0.00684739
0.00199676
0.00652272
0.0185876
0.00677836
0.00534506
0.00688486
0.0067498
0.00681266
0.00339158
0.00605288
0.000430885
0.000527047
0.00673906
0.000783049
0.00238404
0.00255351
0.000455022
0.0068164
0.00205626
0.0107906
0.0066997
0.00101792
0.000613102
0.0019169
0.00679981
0.00675444
0.00683581
0.0020169
0.00623067
0.00678416
0.00188822
0.00680507
0.00678444
0.000497637
0.00565048
0.00303456
0.0148947
0.00151439
0.00454419
0.0068107
0.00634893
0.000340094
0.00662424
0.00216906
0.00683105
0.00680917
0.00683308
0.00498127
0.00117367
0.00680021
0.00519097
0.00678769
0.0131508
0.00520352
0.00248414
0.00680803
0.000993299
0.00540614
0.00933325
0.00299349
0.00682631
0.00956994
0.00627672
0.00589043
0.00298053
0.00288301
0.00657361
0.0068061
0.00677223
0.0113035
0.00258482
0.00088886
0.0132705
0.00674652
0.00186362
0.00669077
0.00710546
0.00869774
0.00669927
0.00769379
0.00330806
0.00245323
0.000831839
0.0106918
0.00673485
0.00681038
0.000535451
0.00674364
0.00684854
0.0066377
0.00684625
0.00183681
0.00673167
0.00168375
0.00680986
0.00286404
0.00565519
0.00169893
0.00537211
0.0159956
0.00193604
0.00744065
0.00671358
0.00671895
0.00681323
0.00676336
0.00673036
0.0026603
0.00676512
0.00252695
0.00685064
0.00103027
0.00641646
0.00193902
0.000640977
0.00682602
0.00426125
0.00583802
0.00663398
0.00354284
0.00681099
0.0117073
0.000790549
0.00509218
0.00682635
0.00673895
0.0068158
0.00678299
0.00976538
0.00671577
0.00145388
0.00675884
0.0157606
0.0061135
0.00678358
0.00208215
0.00491083
0.00671824
0.0152274
0.00446414
0.0064975
0.00110751
0.00674822
0.00132472
0.00664964
0.00678331
0.00627592
0.00682725
0.00543702
0.00113037
0.00530928
0.00677402
0.0111249
0.00124379
0.006703
0.00664564
0.00684812
0.0026917
0.00673582
0.00128112
0.00683931
0.0128984
0.00606017
0.00319801
0.0068374
0.00678983
0.0141126
0.00687714
0.00674023
0.0107279
0.0067005
0.00672384
0.00689108
0.00670775
0.00671618
0.000858107
0.00667062
0.0101424
0.00445042
0.00238823
0.00038952
0.00395733
0.012849
0.00678102
0.000917995
0.00674043
0.00727545
0.0153045
0.00644928
0.00669771
0.00670276
0.00684202
0.00678315
0.00682008
0.00681714
0.00676563
0.00346709
0.00669965
0.00673349
0.00149492
0.00895613
0.0099285
0.0011865
0.00681377
0.0145479
0.00675152
0.000246746
0.00979994
0.000171007
0.0067756
0.00671526
0.00676088
0.00684692
0.0067705
0.0067934
0.00674815
0.00238599
0.00672419
0.000715824
0.00778841
0.00674598
0.0118515
0.00674264
0.00683627
0.00481391
0.0105541
0.0012734
0.00681872
0.012519
0.00682791
0.00683683
0.000799114
0.00670565
0.0127999
0.00561151
0.00397107
0.00676625
0.00681161
0.00418659
0.00708278
0.00667312
0.00970072
0.00683845
0.00691325
0.00658949
0.00674283
0.00674894
0.00224703
0.00183141
0.00500652
0.0105802
0.00085744
0.00632348
0.00212976
0.00681782
0.00984418
0.00681413
0.00774103
0.000905187
0.00247456
0.00626039
0.0064408
0.0144144
0.000426552
0.00685906
0.0129628
0.00678087
0.00676399
0.00182511
0.00681312
0.00683644
0.000735911
0.00488079
0.00681367
0.00207997
0.00737605
0.0068304
0.00675023
0.0104133
0.0113926
0.00678283
0.00679628
0.00278017
0.00680122
0.00683635
0.00314688
0.00452394
0.00680406
0.00944023
0.00686512
0.00223792
0.00923911
0.00675773
0.00761226
0.00682779
0.00681119
0.00541702
0.00515434
0.0109918
0.00497046
0.0030627
0.0052424
0.00492341
0.0068497
0.00943313
0.00640418
0.00676333
0.00150175
0.00678564
0.0187846
0.000966681
0.00180894
0.00200918
0.000187385
0.0132734
0.00414554
0.0125926
0.00688334
0.000232142
0.00675557
0.00103487
0.000701803
0.00855454
0.00369874
0.00666496
0.00416442
0.00139916
0.0066781
0.00994831
0.00224149
0.000577851
0.0085066
0.00680228
0.00206994
0.00613413
0.00684865
0.00640397
0.00288962
0.00680405
0.00673372
0.00605562
0.00178049
0.00672792
0.00670164
0.00316001
0.00678091
0.00683531
0.000610178
0.00223425
0.00676204
0.00682166
0.00120521
0.004121
0.00188751
0.0128579
0.00683024
0.0067387
0.0162776
0.00678228
0.00666172
0.0125945
0.00833579
0.0048818
0.00105343
0.00400375
0.0018192
0.00111224
0.00517807
0.00500063
0.00683445
0.000641173
0.00967606
0.000767953
0.0112037
0.00585254
0.00681538
0.00684635
0.00686167
0.00683827
0.00684405
0.000968807
0.00683362
0.0015111
0.00671446
0.00196412
0.010255
0.00635468
0.00152896
0.0151661
0.00674302
0.00265366
0.00445915
0.00671863
0.00675354
0.00946588
0.00109705
0.00608393
0.00569918
0.00870932
0.000594826
0.00675991
0.00451508
0.00213593
0.00615161
0.00679143
0.00042463
0.00675337
0.00514818
0.00249303
0.00572582
0.00511469
0.00146792
0.00192124
0.00673891
0.000466673
0.00417992
0.00685073
0.00674894
0.00674335
0.000719616
0.00019347
0.00679713
0.00199054
0.0050615
0.010504
0.00252928
0.00683127
0.00671988
0.00681302
0.00674224
0.00695739
0.00609852
0.000471423
0.00677935
0.00333709
0.00447481
0.00503763
0.00115131
0.0114449
0.00947884
0.00682517
0.00679557
0.00671492
0.00674539
0.00216286
0.0109657
0.00259046
0.000601096
0.0035974
0.00154726
0.00309834
0.00735633
0.00498721
0.00120689
0.00682929
0.00138777
0.00575863
0.00678076
0.00675324
0.0121804
0.00136322
0.00487868
0.00908826
0.000419501
0.00683214
0.000335568
0.00692561
0.00672123
0.00631848
0.00929161
0.00682736
0.00462877
0.000761288
0.00510725
0.00611262
0.00673
0.00675296
0.00676401
0.00674379
0.00323383
0.00195261
0.00487894
0.0050482
0.00334245
0.00206179
0.000634135
0.00681777
0.0037132
0.000281809
0.00103003
0.00781551
0.00671151
0.00672913
0.00791799
0.00673032
0.0102501
0.0052096
0.00422603
0.00684067
0.00673459
0.000244903
0.00388159
0.00672288
0.00673679
0.0149136
9.22726e-05
0.00802114
0.00681273
0.00684965
0.00830416
0.00681266
0.00681221
0.00067375
0.0100455
0.00567258
0.00191979
0.00646164
0.0022045
0.0067235
0.00641235
0.00487527
0.00672553
0.00104263
0.00672673
0.00675777
0.00103951
0.00182944
0.0122443
0.000978094
0.00671862
0.00270125
0.00678323
0.0068283
0.00658897
0.0068025
0.00684432
0.00117403
0.00682888
0.00082215
0.00635244
0.00609504
0.00680575
0.00665701
0.00683408
0.00959883
0.00680246
0.000842525
0.00148785
0.00683582
0.00157191
0.00184926
0.00235262
0.00683928
0.00726613
0.00674951
0.00678243
0.0195596
0.00196036
0.00696276
0.00680347
0.00682887
0.00675842
0.00139076
0.0067818
0.0116608
0.00140178
0.00681102
0.0067184
0.0067542
0.00147697
0.0056254
0.0160096
0.00294314
0.0178373
0.00590279
0.000531475
0.0065346
0.00866326
0.00671533
0.00679824
0.00515386
0.0125815
0.00675816
0.0117061
0.00684888
0.00680608
0.000634736
0.000418496
0.00176083
0.00345193
0.00388672
0.000727086
0.0117435
0.00681859
0.00901381
0.00674268
0.00681942
0.000570294
0.00673814
0.0121572
0.00751419
0.00675429
0.00677081
0.0068207
0.0115502
0.0068442
0.00673064
0.00157745
0.00671982
0.00677794
0.00694861
0.00681494
0.00172757
0.00683229
0.00649245
0.00671024
0.0113729
0.000184108
0.00671164
0.00671299
0.00678888
0.00671821
0.00324571
0.00680994
0.00681646
0.00683153
0.00674902
0.00677141
0.0068159
0.00134365
0.00675612
0.000921656
0.00684208
0.00179133
0.00679194
0.00684332
0.00679272
0.00680338
0.00484669
0.00611047
0.00270173
0.0120028
0.00287022
0.0127838
0.0115923
0.00118626
0.00544026
0.00684581
0.00680811
0.0113627
0.00674305
0.00674486
0.00785034
0.00676914
0.00177828
0.00662055
0.00347539
0.000855681
0.00490826
0.0149113
0.00680853
0.00170258
0.00675041
0.0104496
0.00352316
0.0125501
0.00147804
0.00684642
0.000392299
0.00258645
0.00682695
0.00124157
0.020947
0.00642578
0.00671485
0.0148354
0.0087752
0.00681721
0.00205973
0.00682584
0.00605968
0.000429733
0.00684555
0.00679885
0.000371583
0.0068248
0.00674234
0.00553839
0.00673758
0.000244068
0.00435042
0.00267767
0.0105022
0.00674307
0.00121695
0.00682056
0.0137289
0.00112298
0.0100577
0.00678638
0.00281613
0.00680963
0.0068228
0.00305439
0.00683342
0.00223256
0.0067472
0.00674634
0.00673869
0.0179536
0.00671502
0.00790954
0.00322895
0.010503
0.00683886
0.00680854
0.00672944
0.0107253
0.00684533
0.00254133
0.00681543
0.00962933
0.0066833
0.00663511
0.000708349
0.00684786
0.00684243
0.00823375
0.000763697
0.0117024
0.0067391
0.00991646
0.0111918
0.00684695
0.00935908
0.00684534
0.00624238
0.00917573
0.00658983
0.00157756
0.00585691
0.00280927
0.00113588
0.00679647
0.00154196
0.00674546
0.0079936
0.0067261
0.00469905
0.00674698
0.00674726
0.00659452
0.0133353
0.00681303
0.00323888
0.0010974
0.00781461
0.00674998
0.00381018
0.010785
0.00137679
0.000588327
0.000716227
0.00679334
0.000548313
0.00716373
0.0065192
0.00105096
0.00679507
0.000416927
0.00250916
0.00682087
0.00259901
0.00671855
0.00890448
0.000347177
0.0057095
0.0065316
0.00804672
0.0101863
0.00673301
0.00521777
0.00674313
0.00684701
0.008012
0.000908636
0.000751743
0.0068184
0.00440322
0.0123192
0.00645475
0.0112901
0.00065262
0.00671739
0.00673455
0.00109207
0.00574416
0.00112332
0.00920286
0.00116017
0.0046415
0.00227003
0.0113467
0.0100268
0.0102355
0.00671496
0.000727687
0.00154013
0.00080452
0.00680792
0.00254188
0.00104924
0.00132898
0.00997051
0.00668039
0.00204254
0.0102265
0.00165615
0.00673375
0.00673694
0.00131964
0.00681912
0.0124961
0.0048203
0.00677411
0.000446183
0.0047995
0.00671143
0.00208793
0.00222069
0.00681281
0.0109044
0.0066266
0.0116229
0.00682791
0.0103079
0.000179974
0.000929298
0.00680493
0.00528419
0.00264738
0.00129016
0.000472611
0.00144458
0.00819957
0.00287666
0.0067154
0.00543588
0.00667506
0.000513874
0.00249888
0.00679895
0.00670969
0.00671268
0.000443652
0.00109299
0.00682637
0.002267
0.000498463
0.00672014
0.00511083
0.00603846
0.0102972
0.00596685
0.0119826
0.0026828
0.00273003
0.00569162
0.000952343
0.00675022
0.00159367
0.00805659
0.0045721
0.00108465
0.00191407
0.00170787
0.00459728
0.0098314
0.00679367
0.00456776
0.00228222
0.00673683
0.00165769
0.000916459
0.000554079
0.00227348
0.00393102
0.00742194
0.000526913
0.00878721
0.0056851
0.00211875
0.00680412
0.00683012
0.00682906
0.00674417
0.000653871
0.00122687
0.00680295
0.00184366
0.0011958
0.00674622
0.0107397
0.010397
0.00678435
0.00684541
0.00681325
0.00675662
0.00179286
0.00674601
0.00852733
0.00234495
0.000808881
0.00526193
0.000838789
0.00299982
0.00240463
0.00216587
0.00681466
0.00674412
0.00680042
0.00682291
0.0113531
0.00218484
0.00383326
0.00972813
0.00681546
0.00680722
0.00243298
0.00677492
0.0068173
0.000930353
0.00395344
0.00784412
0.0147222
0.00898441
0.00679025
0.0103824
0.00674942
0.000377835
0.0067103
0.00079908
0.0053126
0.00676662
0.000468386
0.00715995
0.00343643
0.00682721
0.00679961
0.00524677
0.00587875
0.00673493
0.00683314
0.00686474
0.00689105
0.00118563
0.00682764
0.00421973
0.00671725
0.00684786
0.000901221
0.00233135
0.00649696
0.000553883
0.000807247
0.0124338
0.00217304
0.00689912
0.00675453
0.00790173
0.00681823
0.00115828
0.00680725
0.00786603
0.00675294
0.00680721
0.00405655
0.00980151
0.00673125
0.00678798
0.00671206
0.00151919
0.000683639
0.00041733
0.0067303
0.0065351
0.00672789
0.0101886
0.00683484
0.0024989
0.00176237
0.00681518
0.000343531
0.00227508
0.0102212
0.00447617
0.00681555
0.00548251
0.00168583
0.000701724
0.00683481
0.00682942
0.00676628
0.0113768
0.00678415
0.00681805
0.00973692
0.0066852
0.00677131
0.00386917
0.00682912
0.00681803
0.00927519
0.00321681
0.00628823
0.0179225
0.00673184
0.00739227
0.00683974
0.000479421
0.00179764
0.00680408
0.00680669
0.00672813
0.00674572
0.00531495
0.00172735
0.00935293
0.0103577
0.00675442
0.00628164
0.00462419
0.00117075
0.00675935
0.00932498
0.010159
0.00650124
0.00677817
0.00526033
0.00682112
0.00837497
0.0113813
0.00676914
0.00674247
0.00239506
0.00730201
0.0068312
0.00510959
0.00668478
0.00181177
0.000254122
0.006713
0.0102602
0.00440694
0.0067322
0.00430129
0.00169042
0.00980079
0.00262019
0.00440631
0.006205
0.00684318
0.00389834
0.00681383
0.00172151
0.00221792
0.0068143
0.00375138
0.00104319
0.00884015
0.00673143
0.00049588
0.0101359
0.0146588
0.00679698
0.00681978
0.019787
0.003809
0.0024661
0.00681255
0.0134165
0.00213951
0.00675402
0.00479652
0.00555868
0.00684141
0.000388226
0.00684727
0.00636729
0.00680371
0.00670247
0.00683995
0.00671275
0.00968964
0.00680114
0.00672909
0.000889876
0.00271976
0.00645196
0.000809449
0.00684353
0.00673268
0.00669006
0.00678133
0.0188607
0.018274
0.000146331
0.0035058
0.00250492
0.00951079
0.00391659
0.0114694
0.0118965
0.00991612
0.00675783
0.00266105
0.00676176
0.00684911
0.00682569
0.00668982
0.00119438
0.0019659
0.00245185
0.00674323
0.00673404
0.00191612
0.00683573
0.00683286
0.00684641
0.0108692
0.00545955
0.00169172
0.00678379
0.0192039
0.00682698
0.00680998
0.00678739
0.00179764
0.00675547
0.000697487
0.0105639
0.0037998
0.0074346
0.0100867
0.00682988
0.00409535
0.0133956
0.000470824
0.00680608
0.00682469
0.00673402
0.010354
0.00670511
0.00218821
0.00219951
0.000806726
0.00147232
0.00184607
0.00146938
0.0109699
0.00681727
0.00670428
0.00967411
0.00228256
0.00679946
0.00679447
0.00787516
0.00671583
0.000385109
0.00684559
0.0068458
0.00489766
0.00679411
0.000778913
0.0105351
0.00858419
0.00376666
0.00680558
0.000867112
0.00653666
0.000695683
0.00674
0.00125262
0.00228011
0.00683218
0.00684216
0.00674237
0.00060187
0.0030357
0.00116414
0.000406476
0.00564237
0.00568412
0.00155913
0.00191029
0.00863403
0.00675198
0.0107304
0.00678052
0.0106888
0.000258155
0.0103415
0.00886707
0.00682851
0.00122961
0.00875958
0.00684271
0.0056287
0.00683838
0.00680511
0.00313625
0.00645662
0.00216729
0.000908435
0.000579626
0.00964371
0.00414608
0.00368996
0.0067579
0.00679336
0.00681689
0.00043217
0.00129615
0.00701828
0.00232155
0.00680365
0.00674033
0.00679651
0.00101081
0.00623605
0.00674455
0.00529484
0.000931519
0.00210531
0.00152572
0.00228547
0.0112709
0.00569595
0.00208588
0.00675822
0.00273824
0.000394098
0.00148198
0.00205855
0.00677691
0.00441663
0.00238482
0.00680558
0.00126992
0.0117099
0.0117034
0.00358284
0.00671799
0.00986536
0.00683013
0.00672066
0.00680554
0.001806
0.00110049
0.00683029
0.000996255
0.00764894
0.0068993
0.00247667
0.00097106
0.0118401
0.00551934
0.0113208
0.00682044
0.00878816
0.00647021
0.0101756
0.00226113
0.00681587
0.012363
0.00675789
0.00678936
0.0136224
0.00247547
0.00532209
0.000351286
0.00298914
0.00544597
0.00293414
0.00680029
0.00672514
0.00678683
0.00151798
0.00675611
0.00264939
0.0050099
0.00896809
0.00141856
0.0059801
0.00579136
0.00687191
0.011647
0.00787913
0.00678917
0.00683752
0.00278029
0.00339937
0.00119384
0.000843586
0.0113996
0.0105431
0.00172611
0.00664833
0.00172154
0.00643685
0.00316227
0.000803189
0.00685042
0.00684176
0.00677948
0.00676308
0.00672969
0.00195796
0.00858253
0.0029424
0.0186688
0.00257531
0.000564539
0.00837634
0.0123321
0.00540626
0.0113944
0.000548071
0.00148862
0.0067091
0.00684385
0.00130787
0.00578359
0.00672265
0.00854116
0.0124986
0.00677435
0.00681805
0.00676091
0.000776964
0.00681674
0.000816934
0.0107798
0.00672916
0.00671948
0.00676282
0.00679403
0.00181823
0.00998707
0.00229972
0.00403793
0.000477569
0.00674173
0.0174975
0.000576916
0.00683145
0.000295017
0.00127671
0.00599407
0.000554609
0.00740919
0.00684514
0.00316738
0.0104131
0.000391644
0.00567239
0.00682606
0.00666124
0.00590449
0.00351127
0.00795011
0.00086571
0.00683868
0.0045349
0.0165666
0.0100336
0.0066598
0.00669125
0.0127634
0.0122691
0.00682767
0.0050607
0.000506512
0.00672994
0.00672961
0.00549211
0.0067472
0.000956089
0.0179935
0.00824092
0.00675111
0.000957355
0.000564947
0.00680053
0.00677944
0.0172105
0.000746303
0.00678811
0.00230194
0.000364816
0.00106321
0.0121332
0.000812089
0.00548462
0.0165361
0.0129895
0.00313804
0.00671718
0.00220791
0.00670774
0.0067992
0.00761253
0.00472653
0.000542175
0.00364327
0.00628477
0.00681729
0.00674336
0.00605115
0.00582501
0.00346487
0.00371895
0.000209636
0.00291974
0.00262734
0.00098125
0.00606497
0.0100564
0.0033646
0.00669971
0.00350985
0.00294004
0.00537141
0.000391284
0.014556
0.00649952
0.000423829
0.00909555
0.00542665
0.00140979
0.000922574
0.00138945
0.00134687
0.00496543
0.00141111
0.00133145
0.00138269
0.00132649
0.00184917
0.000786614
0.00616609
0.00672145
0.0021392
0.00125449
0.00675245
0.000186812
0.011541
0.000416243
0.0122836
0.00676711
0.00678425
0.007532
0.00672543
0.00577428
0.0065624
0.00233223
0.0101168
0.00501307
0.00683615
0.0025003
0.0041311
0.00278964
0.015682
0.00303692
0.000512792
0.0101613
0.000960012
0.0116739
0.000525119
0.0092371
0.0117608
0.00668372
0.0101253
0.0108179
0.00676973
0.000828737
0.00052717
0.00624426
0.00680103
0.00457673
0.0115782
0.00682013
0.00682051
0.00488284
0.000253896
0.000672713
0.00684946
0.00103132
0.000431349
0.0125293
0.00723031
0.00681024
0.00672934
0.00597532
0.00689298
0.0107353
0.00792869
0.0109492
0.00135811
0.000250891
0.0108136
0.00690256
0.00672518
0.00987735
0.00682389
0.0112457
0.00682735
0.0119417
0.00576961
0.00677488
0.00478951
0.00677803
0.000998072
0.00781864
0.00684448
0.00659248
0.00565022
0.0012309
0.0077334
0.00041301
0.0121824
0.00691276
0.0068584
0.00277902
0.000704439
0.0100727
0.00982376
0.000552222
0.00101052
0.000951976
0.00454664
0.00671237
0.0068226
0.00673239
0.00670948
0.00012565
0.00163405
0.0118739
0.00441103
0.00093703
0.00678759
0.0169382
0.00105296
0.00281735
0.00672888
0.00522982
0.00670724
0.0112596
0.00254385
0.0137032
0.000164859
0.00101593
0.000716806
0.0067381
0.0018545
0.000414494
0.000121518
0.000213411
0.00675464
0.000865863
0.00681143
0.00677901
0.000829965
0.00224688
0.000570127
0.0068325
0.000624752
0.000928261
0.00858905
0.00351774
0.0100786
0.00837508
0.00682028
0.000987802
0.00682158
0.000944145
0.00682598
0.000497823
0.00661748
0.00129232
0.0154274
0.00773975
0.00687543
0.00103753
0.0109726
0.00179041
0.00657585
0.0139377
0.00193779
0.00683478
0.00672446
0.00811416
0.00352082
0.000451702
0.00010261
0.0100059
0.00494972
0.00683945
0.00850147
0.010568
0.00355301
0.00464692
0.00247308
0.00096498
0.000930364
0.00951788
0.000283517
0.00609295
0.000858405
0.00188709
0.000214439
0.00470182
0.00894079
0.000543533
0.00130586
0.00250635
0.00226151
0.00594562
0.00866468
0.000411225
0.00233075
0.00203054
0.00671571
0.00670985
0.00951619
0.010216
0.0064511
0.00666408
0.00432056
0.00355037
0.00760626
0.00198305
0.0106693
0.00527125
0.0103466
0.000442853
0.00804316
0.0063694
0.00028276
0.00969325
0.00688919
0.00238862
0.00675156
0.00393362
0.00681985
0.0165053
0.00677446
0.00679807
0.0116904
0.00401558
0.00670862
0.0105299
0.00678485
0.00684329
0.00674785
0.0068133
0.00683008
0.000355228
0.0123796
0.00675949
0.0067888
0.00137813
0.00176976
0.00147801
0.00143466
0.00527605
0.0019466
0.00671808
0.0160298
0.00274785
0.00998692
0.00695815
0.00658885
0.000871441
0.000780167
0.000599584
0.0099714
0.00671418
0.00645562
0.0010803
0.00109164
0.00314497
0.0068038
0.00300551
0.00117636
0.0068084
0.0048
0.00672
0.00878883
0.0012035
0.0032804
0.00124577
0.00129124
0.0116143
0.00684302
0.0068267
0.00160365
0.0064567
0.00683495
0.00683578
0.00527893
0.00678297
0.00672679
0.00669979
0.00273499
0.00608685
0.00445676
0.00685535
0.00261187
0.00203556
0.00573255
0.00901811
0.00563282
0.00674429
0.00146006
0.00184005
0.00688752
0.00679017
0.0048766
0.00306486
0.00916205
0.00308514
0.000469172
0.00673417
0.00684168
0.00101242
0.011911
0.00134976
0.00274262
0.00672019
0.0125619
0.00682403
0.00672698
0.00135765
0.00350319
0.000389403
0.0111179
0.000854039
0.000546257
0.00432693
0.00490136
0.00684954
0.00683868
0.000929043
0.0169462
0.00158495
0.000505461
0.00965733
0.00485089
0.00682956
0.00267527
0.00103679
0.00195032
0.00681307
0.00142681
0.00209907
0.000923339
0.00682686
0.0068013
0.00037809
0.000918412
0.000367726
0.00940093
0.00655794
0.00106979
0.0068314
0.00180795
0.000621922
0.00685028
0.000365019
0.00770737
0.000612109
0.00910029
0.00679568
0.00684331
0.00672043
0.0113282
0.000898736
0.006561
0.00114278
0.00145876
0.00682806
0.00684741
0.00121264
0.0107957
0.000347632
0.0104078
0.000631819
0.00208462
0.000112697
0.00141177
0.00212937
0.00747949
0.00209394
0.00825435
0.00681625
0.00208384
0.00143725
0.00678719
0.00403991
0.00450062
0.0012378
0.00548651
0.00142766
0.00678125
0.00619265
0.00285147
0.00671194
0.00682751
0.006734
0.00674598
0.00677667
0.00679523
0.00306021
0.00684846
0.0067967
0.0161394
0.00139082
0.00617199
0.000927019
0.00517333
0.00649623
0.00673563
0.00166471
0.00616346
0.00292879
0.0068004
0.00678526
0.000805487
0.000533784
0.00683453
0.0068236
0.000449157
0.00324339
0.000547148
0.000980244
0.00683164
0.00280662
0.00318607
0.00679155
0.000923294
0.0109258
0.00687254
0.00100834
0.00682179
0.0025244
0.00682462
0.00464937
0.00675543
0.00678941
0.00396804
0.000991397
0.000356738
0.00124286
0.00681075
0.0050381
0.0112635
0.00165017
0.00121352
0.00101673
0.00680625
0.00117484
0.00202021
0.000629764
0.00665663
0.00527061
0.00922123
0.0152649
0.00277179
0.00683566
0.000719016
0.00679259
0.00189198
0.0124864
0.0068455
0.0119514
0.00684727
0.0116632
0.00192002
0.00595588
0.000977224
0.0113374
0.0104682
0.00381407
0.000886104
0.00240557
0.00670822
0.0167108
0.00671725
0.00272371
0.0067388
0.00602226
0.00959491
0.00140422
0.00679399
0.00298526
0.000198131
0.00684187
0.00683967
0.00363001
0.00531205
0.00680224
0.00385971
0.00645766
0.00682844
0.0067577
0.00144639
0.00195641
0.000976355
0.00671982
0.00153395
0.00995674
0.00527495
0.00667857
0.00684924
0.00255944
0.000978944
0.00681255
0.00677669
0.00677696
0.00682097
0.00500299
0.00278745
0.00695177
0.00135224
0.00565845
0.00673959
0.00643613
0.00169053
0.00139141
0.00189756
0.0068043
0.00459083