/*--------------------------------*- C++ -*----------------------------------*\
| =========                 |                                                 |
| \\      /  F ield         | OpenFOAM: The Open Source CFD Toolbox           |
|  \\    /   O peration     | Version:  v2012                                 |
|   \\  /    A nd           | Website:  www.openfoam.com                      |
|    \\/     M anipulation  |                                                 |
\*---------------------------------------------------------------------------*/
FoamFile
{
    version     2.0;
    format      ascii;
    class       volScalarField;
    location    "250";
    object      k;
}
// * * * * * * * * * * * * * * * * * * * * * * * * * * * * * * * * * * * * * //

dimensions      [0 2 -2 0 0 0 0];


internalField   nonuniform List<scalar> 
13917
(
0.016689
0.000175717
0.000218491
0.000150681
0.000168597
0.000174586
0.00015964
0.000251176
0.0001574
0.00291649
0.000229175
0.000148627
0.000166449
0.0282209
0.000161384
0.0137212
0.000149646
0.000208478
0.00019473
0.0134615
0.000169775
0.000148268
0.000175221
0.000148269
0.000153971
0.000172324
0.0075481
0.00243425
0.000183353
0.000136858
0.0013311
0.000183456
0.000150924
0.0279929
0.000145859
0.000207484
0.000155883
0.000164094
0.000159735
0.000172763
0.000147918
0.00014658
0.000154827
0.000193281
0.000193118
0.000142154
0.000168055
0.0141214
0.0238029
0.000145932
0.0001484
0.000196159
0.00774145
0.000148208
0.000148686
0.00019597
5.80106e-05
0.000175177
0.000146037
0.000108277
0.0393965
0.00018901
0.000141752
0.000153487
0.0249666
0.000342805
0.000187991
0.000134081
0.000215392
0.0163624
0.0130453
0.025971
0.000148059
0.000145146
0.000170817
0.000155237
0.000157035
0.000144717
0.000154732
0.000151174
0.000150864
0.000150534
0.000147893
0.0143916
0.00014205
0.000268698
0.000182753
0.000146146
0.000172408
0.000149542
0.00014064
0.000155151
0.0226664
0.000144168
0.000150809
0.000187527
0.000149833
0.000152987
0.000145259
0.00021122
0.000144833
0.000144018
0.000151045
0.000146404
0.000156579
0.0184702
0.0227957
0.00018806
0.000147712
0.0116926
0.000145044
0.0288632
0.000182924
0.0127453
0.0244867
0.000156177
0.000193546
0.000142048
0.00020353
0.000146948
0.000150374
0.000143555
0.000193471
0.000191422
0.018567
0.0186841
0.000153002
0.000172448
0.000144345
0.000191679
0.000165574
0.000153862
0.0409013
0.000156121
0.000186772
0.0125004
0.042361
0.0200534
0.000174823
0.000163561
0.0139868
0.000144124
0.017288
0.000143779
0.000147336
0.000162812
0.0126009
0.00472949
0.0126395
0.000148489
0.000170116
0.000143153
0.00014706
0.000147013
0.00213252
0.000150435
0.000145829
0.0419342
0.000146274
0.000143504
0.000142287
0.0257237
0.000159297
0.0141237
0.0258537
0.000230068
0.00707482
0.0238079
0.000131159
0.000176953
0.00014887
0.0387802
0.000157291
0.0346157
0.000184503
0.000144573
0.000150659
0.000198597
0.000164902
0.000160156
0.000154653
0.00014843
0.000148408
0.000217903
0.00020357
0.000154774
0.000148199
0.000224253
0.000136876
0.000237701
0.000184527
0.000191671
0.000200114
0.0167001
0.000144164
0.0188414
0.000158921
0.040159
0.00014563
0.000149802
0.000165444
0.0161058
0.0173302
0.000154803
0.00901011
0.000172131
0.000170589
0.000144088
0.000198148
0.000150859
0.000141179
0.00018857
0.000190753
0.0139462
0.000186235
0.000173969
0.0292726
0.00015564
0.000137651
0.000137565
0.0228976
0.000202141
0.000174381
0.000143537
0.000142535
0.0151365
0.0161307
0.000136798
0.00013664
0.000147931
0.000137967
0.000137898
0.0243731
0.0190697
0.00014929
0.000131479
0.000186875
0.024593
0.000147627
0.000143515
0.00988013
0.0184167
0.000209213
0.0297355
0.000190199
0.000143828
0.0243736
0.000187801
0.000180156
0.000186709
0.000154271
0.0176798
0.000147181
0.000173833
0.000182819
0.000149759
0.000148527
0.000153391
0.000161743
0.000146126
0.0244665
0.0196432
0.000143571
0.000136533
0.000150908
0.000136571
0.000147204
0.00016696
0.00016982
0.000144091
0.024205
0.0238919
0.000146331
0.000157038
0.000228926
0.000137253
0.000196882
0.0275622
0.000137324
0.0201348
0.000145638
0.0248598
0.000145107
0.000159298
0.000150087
0.000143556
0.000200171
0.000156724
0.000119693
0.000162511
0.0171569
0.000168012
0.00279149
0.0197571
0.000144279
0.000178704
0.000163952
0.000156835
0.000166641
0.000154567
0.000144614
0.000154221
0.000197741
0.000219398
0.000173004
0.000154196
0.000143394
0.0415691
0.0137309
0.000143664
0.000152207
0.000156887
0.0100762
0.000195173
0.0254101
0.0319165
0.000259252
0.000212482
0.000155967
0.0111833
0.012468
0.000216701
0.000165551
0.000160971
0.00719477
0.000149741
0.000179213
0.000191455
0.000148627
0.0384008
0.000142473
0.000171727
0.000139652
0.00643752
0.000139637
0.000171332
0.000173072
0.000241856
0.000148215
0.000186621
0.0134563
0.000150406
0.000149716
0.0308683
0.0147208
0.0217354
0.0294627
0.000136938
0.000149142
0.0197838
0.000205769
0.00013705
0.00016639
0.000148231
0.000185175
0.000171986
0.000195631
0.000188471
0.000197907
0.000171566
0.0240156
0.000144679
0.000150419
0.000171541
0.000203772
0.000148157
0.0147989
0.000171315
0.00344802
0.000148952
0.000193555
0.000152672
0.019645
0.00014638
0.000167556
0.000340435
0.000175945
0.000146633
0.00147781
0.000140728
0.0260307
0.000200755
0.000146344
0.0202764
0.000151475
0.00315643
0.000140303
0.0148734
0.00322836
0.000154838
0.0178675
0.000194027
0.000153335
0.0263349
0.000212424
0.000153802
0.000200894
0.000148658
0.000196644
0.000217794
0.000142701
0.000158664
0.000154079
0.000143241
0.000140599
0.000145078
0.0410997
0.00021872
0.00014964
0.000145524
0.000147426
0.000178119
0.000367525
0.00013824
0.000131297
0.00019481
0.000193605
0.00014389
0.000154464
0.0279431
0.00554487
0.000406275
0.000195806
0.0055927
0.00014159
0.000137811
0.00016665
0.000140501
0.000138314
0.000149621
0.000137924
0.000141224
0.0227233
0.000148937
0.000174563
0.0263075
0.000178537
0.000141424
0.000146842
0.0259828
0.000165674
0.0159132
0.000139128
0.000143697
0.000141136
0.000138304
0.000155533
0.000152108
0.0268932
0.000165817
0.020623
0.000143665
0.000167996
0.000170831
0.000150576
0.000189944
0.0227169
0.000148002
0.015199
0.000141778
0.000144126
0.000147095
0.000151529
0.000140666
0.000150957
0.0413676
0.0357902
0.000140444
0.00320929
0.000194652
0.000148421
0.000180623
0.000184648
0.0263544
0.00015974
0.0190228
0.00335837
0.00346178
0.000152169
0.000285223
0.000175736
0.000153843
0.00801254
0.000141912
0.000147874
0.000150812
0.000158064
0.000168706
0.000201098
0.000179071
0.000159228
0.000159045
0.00020271
0.000180935
0.000149643
0.0297001
0.000169203
0.000162424
0.0269539
0.000142118
0.000181685
0.000199608
0.000139868
0.0406262
0.000145014
0.000138284
0.000178854
0.000139174
0.00015344
0.000197122
0.0440118
0.0209403
0.000142189
0.000151267
0.000152213
0.00467534
0.0135984
0.000149149
0.000148475
0.000141958
0.000181335
0.00352009
0.000144849
0.000147785
0.000149424
0.000142946
0.000162116
0.000162267
0.000143546
0.000179552
0.000139888
0.000147699
0.000153734
0.0262036
0.000136885
0.00015455
0.000146124
0.000167168
0.00018428
0.000189752
0.000183699
0.000216082
0.000153104
0.000195385
0.0388562
0.0224575
0.0296987
0.000143019
0.000146787
0.00017276
0.000144939
0.0258067
0.000137691
0.00311557
0.000158832
0.0321635
0.000198356
0.000154888
0.010716
0.00014041
0.000181675
0.000152747
0.000149484
0.0344579
0.000138667
0.000210527
0.00014332
0.000155343
0.000147114
0.000199934
0.000163989
0.000136091
0.000193296
0.000180103
0.00346766
0.00779797
0.0421612
0.0262563
0.000136944
0.0167528
0.000139016
0.0414514
0.0025693
0.000151527
0.000151078
0.000144426
0.00016882
0.00015419
0.000138747
0.000152751
0.000165222
0.00397477
0.000142688
0.000181276
0.000147597
0.000135952
0.000146311
0.000220767
0.0164451
0.00980638
0.000185453
0.000161995
0.000243156
0.0258731
0.000140693
0.015608
0.000163461
0.000190508
0.00014493
0.0014566
0.000142704
0.000163594
0.000147576
0.00262374
0.000169916
0.0274428
0.000144257
0.000168808
0.000145878
0.000145295
0.0251256
0.000235926
0.00014668
0.000197158
0.000143391
0.000148253
0.00014396
0.0272977
0.000142699
0.000163523
0.000137623
0.000146268
0.00020393
0.000143407
0.000195616
0.000151635
0.000139728
0.0413115
0.00018188
0.000148821
0.00823072
0.000207195
0.000176374
0.000199571
0.000140211
0.000162521
0.0243737
0.000220748
0.000165177
0.000155897
0.000164868
0.000151135
0.000144917
0.000230524
0.000185966
0.00015759
0.0268018
0.000170331
0.00705359
0.0165284
0.000216413
0.000169825
0.000199425
0.0217951
0.000144621
0.000181498
0.000279346
0.000139808
0.000145645
0.000146253
0.000159611
0.000153523
0.0169709
0.000167093
0.00014337
0.000190098
0.000143591
0.0266796
0.000145622
0.000144356
0.0432827
0.000182851
0.00344668
0.000148546
0.00014307
0.000144149
0.00015015
0.000161658
0.00014362
0.0177627
0.000164896
0.00351477
0.00368865
0.000180183
0.0423024
0.000151329
0.000152232
0.000146175
0.0290393
0.0197313
0.000159528
0.0179719
0.00646557
0.000139747
0.000144008
0.000155585
0.0166729
0.00319986
0.000170246
0.000150011
0.000154573
0.000191147
0.000154674
0.000195348
0.000167359
0.00015053
0.000151286
0.000151819
0.000161499
0.000158911
0.000223634
0.000157628
0.000157755
0.017542
0.000143692
0.00551575
0.000155258
0.00016821
0.000158479
0.000215041
0.000150221
0.00018034
0.0147938
0.00462515
0.000145164
0.000157638
0.000159383
0.000143931
0.000147338
0.000173186
0.000168974
0.000220357
0.000195857
0.000139975
0.000217219
0.000157324
0.000158154
0.00019782
0.000149534
0.000181685
0.000234419
0.000136053
0.000182808
0.000186745
0.000167047
0.000143
0.00014092
0.00014489
0.0142432
0.000150745
0.000146298
0.000171351
0.000143906
0.000142062
0.000195006
0.000129042
0.000187156
0.0079648
0.000182542
0.0206946
0.000147337
0.000158259
2.67023e-05
0.000151414
0.000144991
0.000148002
0.00014514
0.00014846
0.000158538
0.000190689
0.000142979
0.000547104
0.000148777
0.000852032
0.000155318
0.00015956
0.000139669
0.000186972
0.000159705
0.0239609
0.000189705
0.000150411
0.0254517
0.000151624
0.0229077
0.00015372
0.000220518
0.000153742
0.000142382
0.000144946
0.0369061
0.000161435
0.000138001
0.00583113
0.00014383
0.000167388
0.000131303
0.000164511
0.00561094
0.000131703
0.0239581
0.000154669
0.000218992
0.000193073
0.00687001
0.000137669
0.000145752
0.000189755
0.000140177
0.000147981
0.000153227
0.000146481
0.000171534
0.00013752
0.000224545
0.000150554
0.0158984
0.0226886
0.0034582
0.0222347
0.0143327
0.0142645
0.012257
0.000139286
0.00014775
0.000146602
0.000151679
0.000142042
0.000161644
0.000143433
0.000827879
0.000148259
0.000768832
0.000150431
0.000163664
0.000187729
0.000143497
0.000174704
0.000151635
0.00015034
0.000158743
0.00014082
0.0436698
0.000187361
0.000260282
0.00014368
0.000144877
0.00014916
0.000149114
0.0266091
0.000139475
0.000225506
0.00014246
0.00319553
0.000159456
0.000143673
0.000181053
0.000192346
0.0001396
0.00393698
0.0120984
0.000155557
0.00018684
0.000140142
0.000212772
0.000142123
0.000149083
0.0215351
0.000147958
0.00015095
0.000189773
0.0201411
0.000144186
0.015125
0.000847993
0.000147045
0.000153124
0.00014681
0.00376618
0.000144634
0.00019455
0.000147905
0.0414554
0.000159663
0.0252906
0.0001455
0.000137292
0.00347774
0.000157702
0.000142607
0.0368121
0.000152981
0.000140647
0.0157965
0.000146988
0.000147707
0.000185686
0.000153464
0.0268433
0.000172943
0.000184633
0.000197721
0.000154436
0.0401996
0.000151318
0.000184197
0.000144072
0.0263159
0.00326424
0.000148872
0.000142284
0.000148323
0.000149148
0.000141673
0.000141723
0.000143887
0.000144773
0.000162888
0.000136056
0.000152508
0.000185015
0.0248678
0.0252262
0.00018836
0.000149198
0.00348558
0.000142879
0.000160182
0.00388126
0.00644092
0.00013807
0.000139383
0.000146766
0.000147618
0.000137827
0.000141024
0.000143267
0.000170651
0.000140704
0.00970362
0.0154997
0.000141328
0.0359686
0.000144187
0.000145108
0.00018363
0.0280495
0.000183243
0.000144126
0.00313005
0.000144951
0.000145167
9.9936e-05
0.000148214
0.00190225
0.000151238
0.000245989
0.000141446
0.000143791
0.000165851
0.00171633
0.000152839
0.0283353
0.000213261
0.000159027
0.000153935
0.000144932
0.000140684
0.000189185
0.000166366
0.000157262
0.0315877
0.0120176
0.00102292
0.000190134
0.000143556
0.0309606
0.000143515
0.0325938
0.000182147
0.000158797
0.000152325
0.0321239
0.0224715
0.00270599
0.000152488
0.00112206
0.000141661
0.000143447
0.000167243
0.000150269
0.000147677
6.43088e-05
0.0198547
0.000143839
0.000159712
0.024419
0.00014309
0.000137013
0.00271811
0.0277053
0.000151296
0.000139488
0.000159153
0.000146638
0.000144818
0.000173439
0.000158135
0.0001463
0.00372861
0.000153337
0.000198863
0.00494644
0.000204327
0.0266514
0.000148741
0.000150213
0.00038649
0.0198701
0.00230029
0.000151729
0.000167521
0.000149447
0.000151364
0.000143924
0.024746
0.00016222
0.000150261
0.000178385
0.000143446
0.00452715
0.00018646
0.000193583
0.000179911
4.60177e-05
0.00316298
0.0232164
0.0362098
0.00016394
7.4942e-05
0.000137233
0.000180645
0.000187141
0.00546905
0.000156328
0.000149541
0.000157965
0.0072025
0.000153282
0.0265993
0.000168172
0.000187765
0.0286792
0.000144866
0.00019033
0.000154285
0.000147928
0.000171658
0.000312128
0.0001384
0.000139532
0.000152434
0.00851073
0.000140716
0.000153044
0.000154108
0.000151276
0.000146893
0.000187521
0.000183089
0.00015028
0.000143341
0.000215439
0.000220451
0.000170631
0.0410554
0.000148935
0.000144474
0.0189119
0.000146315
0.000153574
0.0363939
0.0280998
0.000167703
0.000180568
0.000159842
0.014177
0.000234177
0.000167433
0.0096189
0.000144471
0.000187647
0.0254831
0.000204115
0.00192085
0.012959
0.000141105
0.000147397
0.000166333
0.000147102
0.000147983
0.000224134
0.000148191
0.000174641
0.000137674
0.000179121
0.0262775
0.000153578
0.00703708
0.0115958
0.000144545
0.000185068
0.000158694
0.000152686
0.00014401
0.0305832
0.000184949
0.0215917
0.000161222
0.0319515
0.000186998
0.000143275
0.00215886
0.000168273
0.000148526
0.000143913
0.000117103
0.00014405
0.000158483
0.000171718
0.000157764
0.000149582
0.000179191
0.0224467
0.000142416
0.000212742
0.000244356
0.000148025
0.000142679
0.000161879
0.00292938
3.51886e-05
0.000141807
0.00016285
0.000166741
0.0103672
0.0169865
0.000147275
0.000140732
0.00014107
0.000144965
0.000170737
0.000155182
0.00330077
0.000149448
0.000155668
0.000453917
0.000168659
0.000188103
0.02778
0.0322595
0.000148692
0.000146459
0.000140308
0.000152178
0.000183213
0.0423253
0.000349397
0.000188491
0.000164974
0.000176873
0.000153974
0.00021379
0.000157999
0.00019269
0.000144143
0.000213245
0.000215818
0.000140907
0.000148332
0.0332881
0.000177022
0.000442613
0.025029
0.000195582
0.000144128
0.000175967
0.000162909
0.000142715
0.0192547
0.00400964
0.00014423
0.000167946
0.000193027
0.000168239
0.000150819
0.000137379
0.00014284
0.000141173
0.000143796
0.000163294
0.000178954
0.0218397
0.000168724
0.000158139
0.000164366
0.000186173
0.000143034
0.000168992
0.000187271
0.000207282
0.0229647
0.00015262
0.000137261
0.0276119
0.000141674
0.0018541
0.000152712
0.000174824
0.000149376
0.000142102
0.000113732
0.000158974
0.000152372
0.000144773
0.0323099
3.39171e-05
0.0256379
0.000148221
0.000147289
0.0150118
0.000143544
0.000141672
0.000193724
0.00273025
0.000160246
0.000166552
0.000150579
0.00741453
0.00014281
0.000156466
0.000149555
0.000137076
0.000207601
0.000142843
0.000140926
1.3076e-05
0.000179999
0.0263355
0.000209287
0.00014231
0.000163315
0.00014208
0.000143803
0.000154031
0.000152951
0.00014769
0.000202232
0.000147164
0.000185456
0.000169129
0.000167299
0.000146848
0.000148693
0.00014465
0.0314013
0.000138197
0.00414735
0.000183918
0.000155774
0.000177782
0.000166405
0.00016363
0.0001469
0.000167337
0.000141268
0.000140919
0.00390497
0.000170526
0.000192711
0.000145587
0.00014527
0.000142529
0.000203064
0.000143384
0.0288648
0.000175226
0.000144141
0.000143169
0.000139402
0.000175097
0.000227744
0.0196007
0.000141073
0.00417064
0.000165716
0.000188982
0.000154851
0.0208314
0.000137643
0.000137858
0.000157121
0.000717187
0.000139669
0.0318604
0.000147672
0.000146464
0.000193749
0.000113137
0.0148231
0.000442345
0.000158115
0.000209906
0.000255971
0.000141423
0.0217464
0.000144258
0.000144444
0.0139063
0.000138588
0.0328408
0.000401534
0.000142259
0.000144964
0.000141691
0.0409588
0.000146483
0.000137376
0.000185587
0.000142364
0.000141783
0.000147495
0.000141455
0.000174097
0.000148064
0.000154739
0.000138954
0.00256098
0.000109467
0.000139111
0.000139189
0.000151078
0.000143061
0.000154715
0.000148539
0.000145173
0.000148245
0.000144732
0.000151737
0.000146263
0.000195992
0.000139401
0.000187177
0.000147782
0.000183292
0.000141505
0.000147524
0.000143535
0.000138446
0.000170511
0.000159168
0.000156734
0.0291938
0.000113686
0.0411274
0.0283854
0.000186902
0.0235356
0.000147607
0.000145963
0.000456328
0.0314936
0.000142954
0.0255165
0.000140284
0.000193585
0.00920841
0.000154494
0.000187826
0.0231941
0.0267433
0.000145824
0.000175089
0.00014152
0.00165605
0.000155458
0.0359269
0.0146145
0.000148318
0.000151427
0.00017852
0.000150171
0.00410763
0.00334605
0.000153661
0.000140686
0.000830905
0.0285562
0.000141372
0.00016476
0.000149323
8.63507e-05
0.00019708
0.000147266
0.000141829
0.00125422
0.000143472
0.000144579
0.000150183
0.000139715
0.000692857
0.000163738
0.000161625
0.0323442
0.000143818
0.000186155
0.000147883
0.000485065
0.000179638
0.00197201
0.000141208
0.000160423
0.000142036
0.000148552
0.000154365
0.000146596
0.00741486
0.000152238
0.000140161
0.00014249
0.00315318
0.000140573
0.00605521
0.0212836
0.00838592
0.000146986
0.000142418
0.000142933
0.0151412
0.000148869
0.0116445
0.000146511
3.23604e-05
0.000153268
0.000150313
0.000147291
0.000147734
0.000149606
0.0273383
0.000193399
0.0314846
0.000147555
0.0308985
0.00396163
0.000147361
0.0282145
0.000148306
0.000157779
0.0263565
0.000154164
0.000176396
0.0212176
0.000164261
0.000183733
0.000146585
0.00522316
0.00014449
0.00587675
0.000142889
0.0197426
0.000144665
0.000145543
0.000153015
0.00104086
0.000142715
0.000122202
0.000184206
0.0265292
0.000143431
0.00016372
0.0370934
0.000335203
0.00401171
0.000186489
0.000141518
0.00019414
6.19216e-05
0.000155199
0.000812989
0.000137603
0.000199205
0.0154907
0.00014316
0.0171854
0.000143187
0.0270668
0.000576246
0.000155067
0.000154861
0.00598191
0.00302746
0.000144563
0.000152481
0.000139924
0.000147482
0.0204865
0.000182345
0.000183332
0.000147617
0.000160744
0.0335952
0.000180665
0.0138571
0.00242448
0.00014203
0.000143985
0.000202466
0.0288569
0.0171677
0.00632354
0.000203146
0.000172407
0.000203787
0.0345952
0.0264058
0.00266702
0.000140688
0.000187466
0.000174513
0.000183951
0.000145784
0.000158092
0.000180956
0.000213955
0.0081332
0.000147682
0.00496832
0.0313298
0.00017751
0.000144267
0.000144355
3.48903e-05
0.000142887
0.0422714
0.00016161
0.000146618
0.000215654
0.000208179
0.000139013
0.000168706
0.000162795
0.000146044
0.0392821
0.000163195
0.042728
0.000143413
0.0294533
5.37845e-05
0.000203277
0.000138501
0.000159614
0.000165155
0.000253945
0.000192175
0.000183445
0.0210471
0.000206467
0.000132282
0.000158431
0.000149013
0.000196116
0.0160116
0.000140773
0.000138819
0.000152397
0.00031177
0.000266207
0.000143745
0.000178207
0.000215693
0.0001406
0.000193544
0.000155233
0.042013
0.000160847
0.00232377
0.0129916
0.000161358
0.000156102
0.000637105
0.000142638
0.000180106
0.0234646
0.000167528
0.000195296
0.000164022
0.000179941
0.0273637
0.029779
0.000146378
0.0171151
0.000225666
0.000138615
0.000195102
0.000183698
0.000190944
0.00452268
0.000164752
0.0085941
0.000193429
0.0239319
0.000160167
0.000182169
0.000138851
0.000148337
0.000146704
0.000141064
0.000135783
0.000215825
0.000138366
0.000180741
0.000199576
0.000142473
0.00220797
0.0269664
0.000136971
0.0001486
0.000139548
0.000151759
0.000173663
0.000144472
0.027603
0.000162598
0.000184822
0.000157977
0.000183262
0.000203189
0.000165641
0.0129335
0.000146076
0.000152137
0.000138077
0.000142894
0.0359885
0.0001893
0.000163057
0.0363557
0.000147921
0.000150068
0.000166627
0.000140601
0.000143889
0.000187238
0.000157554
0.0241368
0.0263099
0.0376401
0.000146683
0.0415814
0.000143439
9.90125e-05
0.000138853
0.000197308
0.031861
0.000145501
0.000307751
0.0242213
0.000167302
0.00015298
0.000142592
0.000161527
0.020599
0.000139498
0.00014873
0.000154993
0.00016522
0.00020116
0.000155573
0.000158106
0.000141817
0.000154663
0.000598334
0.000167251
0.000155436
0.00019602
9.36595e-05
0.0361493
0.0116853
0.000159796
0.000151521
0.0235368
0.000146105
0.000183178
0.000147201
0.0208269
0.000149021
0.000148885
0.00017541
0.024528
0.000143949
0.000141223
0.000137464
0.000196905
0.0108955
0.000194252
0.000144555
0.00015475
0.000140766
0.0320778
0.000142716
0.00307035
0.000179481
0.000147918
0.000207405
0.000166754
0.000317581
0.00014975
0.000141646
0.000164036
0.000176201
0.000194381
0.0001483
0.000149609
0.000148483
0.0297354
0.000146742
0.000152539
0.028738
0.000153327
0.000165862
0.000156163
0.000143996
0.000145096
0.00570269
0.000153585
0.0215362
0.00341782
0.000135025
0.000706939
0.000149353
0.000192823
0.000177191
0.000153761
0.000138789
0.000134768
0.000144386
0.0191886
0.00017529
0.0310933
0.0257286
0.00014148
0.000164815
0.000172086
0.000835494
0.000144626
0.000940806
0.0311705
0.0157936
0.000144415
0.000152921
0.000149935
0.00972418
0.0354625
0.000145845
0.000145271
0.000163583
0.0269431
0.000147816
0.000153098
0.000152919
0.00019305
2.16502e-05
0.000137732
0.0260794
0.000163184
0.000144159
0.0134863
0.00017945
0.00108294
0.0115288
0.00016686
0.000158192
0.000153448
0.000159865
0.000150314
0.000204471
0.000178731
0.000145197
0.000155845
0.000221338
0.0283079
0.000139323
0.000190854
0.041563
0.00256484
0.000145774
0.000146719
0.00363345
0.00685737
0.000204967
0.000144013
0.0364947
0.00018231
0.000135913
0.0214686
0.000160805
0.000148446
0.000119226
0.000146493
0.000219133
0.000142122
0.000133517
0.000147307
0.000137439
0.0248285
0.00013815
0.000142452
0.000186808
0.000156498
0.000155883
0.0001967
0.000147029
0.000144614
0.000152909
0.000151516
0.00423381
0.004392
3.41283e-05
0.0167364
0.000169826
0.00486023
0.000210869
0.0280931
0.0359
0.024716
0.000141222
0.000164273
0.00014481
0.000147393
0.000143375
0.00014886
0.000201579
0.000180117
0.000172945
0.000142261
0.000144019
0.000178603
0.000148645
0.000149402
0.000147151
0.0342216
0.000165055
0.0129906
0.000146481
0.00381494
0.000149883
0.000148543
0.000150369
0.000172591
0.000142229
0.00018897
0.0287394
0.000174555
0.0265141
0.00388447
0.000158636
0.000160645
0.00395246
0.000192925
0.000139304
0.000143026
0.000135029
0.0259996
0.000133484
0.000209681
0.000206845
0.000186931
0.0211221
0.0244382
0.000182613
0.0404517
0.000141477
0.000137243
0.0019574
0.00873326
0.000145482
0.000146578
0.00510565
0.000140794
0.000217474
0.000156188
0.000142322
0.000158078
0.000146015
0.000185304
0.0276714
0.0253948
0.000156441
0.000146933
0.000188111
0.000151985
0.000185221
0.000140887
0.000196443
0.000188641
0.000149365
0.00014813
0.000135539
0.000193172
0.000210253
0.000202034
0.000915346
0.000163547
0.0127552
0.000185138
0.000192183
0.024493
0.000143608
0.0262059
0.000151241
0.034008
0.000123563
0.0255726
0.0232509
0.000150921
0.000178992
0.00183017
0.00014664
0.0210445
0.000146725
0.000146127
0.000158042
0.000150249
0.000163596
0.000221395
0.00126396
0.0288388
0.000158302
0.000173605
0.000151937
0.000148455
0.000147556
0.000195787
0.000188414
0.034518
0.000175061
0.000138673
0.000139937
0.000149947
0.000209491
0.000155391
0.000151127
0.000157302
0.000194813
0.000164376
0.000176946
0.000174434
0.0272551
0.00016306
0.000165565
0.000144652
0.000158149
0.000202174
0.000207576
0.000178801
0.000140611
0.0161542
0.000166036
0.000143704
0.000176549
0.0311203
0.00201182
0.000167939
0.000140921
0.0268743
0.000149646
0.000140664
0.000139005
0.0162353
0.000867973
0.000158575
0.0066788
0.0177809
0.00016854
0.000173508
0.000181126
0.042767
0.000164485
0.0346583
0.00014978
0.000250373
0.000168535
0.0346577
0.000166374
0.000142212
0.0344447
0.000146486
0.000151224
0.0106803
0.010462
0.000217422
0.000281839
0.000155535
0.000152115
0.00361392
0.00014362
0.00014246
0.000146312
0.000174901
0.000144469
0.000163764
0.000168173
0.000439107
0.00221486
0.000150517
0.0215301
0.000166996
0.0323746
0.0269331
0.000146173
0.000148408
0.000157339
0.000192203
0.000201449
0.000183822
0.0305372
0.0262675
0.000240752
0.00015004
0.0073934
0.0218337
0.000206736
0.000382129
0.000147784
0.000145847
0.000146279
0.000151551
0.000143329
0.00016588
0.025918
0.000164652
0.00326092
0.0191086
0.00403569
0.0366781
0.036333
0.000163048
0.0378609
0.000193808
0.000185354
0.000138691
0.000146936
0.000183818
0.0233546
0.000150922
0.0215375
0.0354175
0.000141825
0.000147031
0.000146895
0.000189062
0.000150032
0.000185685
0.0264897
0.000139113
0.000143849
0.000141441
0.000150929
0.000190563
0.0277497
0.000171084
0.0119161
0.000191872
0.000142618
0.00370739
0.000193444
0.000148609
8.96532e-05
0.00121164
0.0329419
0.00646416
0.0250212
0.000146181
0.00573203
0.0293941
0.000200756
0.0132579
0.000143251
0.000153646
0.000155163
0.000153616
0.0216027
0.000183557
0.000148229
0.000160336
0.00375516
0.0294463
0.000149626
0.00014995
0.0424041
0.0357146
0.000148124
0.00016175
0.00019301
0.000143482
0.000144097
0.0292789
0.000142424
0.000221948
0.00372854
0.0240832
0.000142033
0.000187683
0.000198597
0.000143411
0.000136845
0.0314071
0.0172736
0.000148788
0.000165767
0.000201319
0.000205514
0.0386825
0.00393703
0.000158327
0.00351474
0.00316487
0.00016787
0.00014181
0.000231379
0.000137035
0.000137906
0.0238995
0.000171603
0.00019037
0.00015574
0.000157877
0.000142856
0.000138186
0.000150328
0.000151118
0.0129209
0.000155319
0.000557085
0.0180699
0.000174522
0.000185238
0.0223919
0.032273
0.0156758
0.000141782
0.000156466
0.000168407
0.000157918
0.000214013
0.00429504
0.000150218
0.000723925
0.0288791
0.00015977
0.00018945
0.000186294
0.000191099
0.000192676
0.000152289
0.00019455
0.000195956
0.000197508
0.000199121
0.000192984
0.000188306
0.000160636
0.000141764
0.000165893
0.000189414
0.000142285
7.15887e-05
0.0399041
0.000218366
0.0331054
0.000136365
0.000140702
0.000283154
0.0147771
0.00015084
0.00015489
0.000181611
0.0408504
0.00693334
0.000146646
0.000164564
0.000157239
0.0111744
0.00343602
0.000155082
5.88565e-05
0.0294362
0.000191901
0.0345971
0.000191032
0.000679964
0.0392321
0.00013109
0.037132
0.0326064
0.000151687
0.000183661
0.00018929
0.000157985
0.000142071
0.000150372
0.0183561
0.000142611
0.000142934
0.0295128
9.65143e-05
0.000185703
0.00014855
0.000218619
0.000197591
0.0353996
0.0266677
0.000146726
0.000143827
0.000150648
0.000158142
0.0319434
0.00737629
0.0274793
0.000187934
0.000136592
0.0023279
0.000158456
0.000141568
0.0294087
0.00014291
0.0359316
0.000141827
0.0356354
0.000151678
0.000151195
0.013094
0.000146308
0.000193659
0.0072051
0.0001658
0.000154078
0.000152064
0.000200748
0.0245845
0.000200194
0.0339774
0.000166924
0.000156748
0.000160524
0.000184869
0.0406673
0.0364679
0.000188682
0.000209415
0.000195419
0.00833032
0.000142076
0.000142661
0.000139287
0.000138707
0.000150431
0.000207113
0.00278103
0.000174105
0.000198253
0.000143243
0.00321561
0.000292001
0.0105108
0.00014445
0.00015256
0.00013374
0.0315247
0.000122937
0.00117229
0.000177413
0.000195018
0.000164673
0.000135278
0.000169264
0.000199233
0.000131388
5.48121e-05
0.000146142
0.000196561
0.000149793
0.000148315
0.000193455
0.0148053
0.00434092
0.000148816
0.000186616
0.000168932
0.0395071
0.0185141
0.0297844
0.0254937
0.000143313
0.000181803
0.000147315
0.000197222
0.000144603
0.000191332
0.000153521
0.000177084
0.00329129
0.0069612
0.000163402
0.000199689
0.0326909
0.000193269
0.000154135
0.00949539
0.000191729
0.000153229
0.000149788
0.0228614
0.000162111
0.000194661
4.60532e-05
0.00134459
0.0197543
0.000159622
0.0203875
0.0284256
0.0142897
0.000151673
0.000164825
0.000193057
0.000191296
0.0272998
0.000215549
0.000150387
0.000443972
0.000184678
9.28903e-05
0.000161372
0.0252831
0.000300189
0.00161934
0.000158216
0.0273138
0.000155734
0.0253125
0.000200241
0.00262995
0.0152556
0.000140625
0.000133725
0.0282532
0.0359315
0.000213339
0.000150045
0.000175004
0.000163601
0.0179362
0.000225771
0.0324929
0.000158889
0.0322168
0.000194309
0.0207876
0.000150192
0.00018805
0.0290768
0.000165249
0.000187656
0.000135896
0.000155688
0.000147241
0.00330996
0.000143423
0.00014681
0.0383408
0.00807864
0.000138571
0.0386694
0.00015111
0.00014689
0.000143673
0.000142565
0.000148397
0.000111881
0.0394762
0.000139646
2.85331e-05
0.000183882
0.000175899
0.00116372
0.000188478
0.000158085
0.00016466
0.000143061
0.00323801
0.000163419
0.0394619
0.000170241
0.0167647
0.000314008
0.000185058
0.00208302
0.0318394
0.000139558
0.0233656
0.000180067
0.000183634
0.00018754
0.000143918
0.000204996
0.000202325
0.000146718
0.000625682
0.00014394
0.0258001
0.000197412
0.0237805
0.000200342
0.000199529
0.0374165
0.000147331
0.000144625
0.00018215
0.00015295
0.000148355
0.000148578
0.000160745
0.00014297
0.000142571
0.000152196
0.000175954
0.000153693
0.000160945
0.000156483
0.000173602
0.000190783
0.000154494
0.028409
0.000153844
0.000143287
0.000190084
0.000172422
0.000158553
0.000143041
9.96631e-05
0.000153508
0.0281103
0.000154034
0.000194593
0.000143423
0.000146329
0.000201765
0.0410551
0.000184871
0.000170161
0.00013574
0.0358311
0.000147486
0.000142326
0.000186566
0.000154953
0.000200317
0.0327593
0.000191771
0.000245589
0.000174375
0.0198042
0.000146906
0.000147588
0.000182288
0.0037181
0.000181186
0.000191844
0.0273098
0.000161222
0.000147037
0.000160876
0.000218172
0.00017974
0.00014694
0.000191738
0.000190179
0.000183422
0.000148289
0.000146983
0.000218614
0.000182901
0.001665
0.00456211
0.000154522
0.000185395
0.000148187
0.00017385
0.00662971
0.000148325
0.00020214
0.000319532
0.000188058
0.0198681
0.000146228
0.000145976
0.000142781
0.0369347
0.000208338
0.000154249
0.00019977
0.000193315
0.000147951
0.000146386
0.000169115
0.0379463
0.000221884
0.0314723
0.000210094
0.000163423
2.95547e-05
0.000194844
0.000163328
5.7267e-05
0.000188656
0.000222332
0.000146435
0.000190245
0.00019648
0.00015132
7.77412e-05