/*--------------------------------*- C++ -*----------------------------------*\
| =========                 |                                                 |
| \\      /  F ield         | OpenFOAM: The Open Source CFD Toolbox           |
|  \\    /   O peration     | Version:  v2012                                 |
|   \\  /    A nd           | Website:  www.openfoam.com                      |
|    \\/     M anipulation  |                                                 |
\*---------------------------------------------------------------------------*/
FoamFile
{
    version     2.0;
    format      ascii;
    class       surfaceScalarField;
    location    "250";
    object      phi;
}
// * * * * * * * * * * * * * * * * * * * * * * * * * * * * * * * * * * * * * //

dimensions      [0 3 -1 0 0 0 0];
oriented        oriented;


internalField   nonuniform List<scalar> 
20642
(
-0.0206369
0.0256216
-0.0049847
0.303114
-0.0723773
-0.230736
-0.110983
0.0963739
0.0146094
-0.352289
0.140656
0.211637
0.378193
0.0327785
-0.410968
-0.0356516
0.338767
-0.225504
0.0236372
0.201868
0.012474
0.214069
-0.226542
-0.24597
0.223522
0.0224488
0.00406874
0.00237401
-0.236489
0.248964
0.229004
0.134607
-0.363604
0.596022
-0.595953
0.193968
-0.00437503
-0.189592
0.300243
0.0396457
-0.339886
-0.0249727
0.00433584
0.583967
-0.589046
0.00509184
0.0416468
-0.263788
0.222142
-0.0317125
-0.0820355
0.113748
-0.00222838
0.0269752
-0.0247468
-0.0839839
-0.189966
0.273951
0.634997
-0.376383
-0.258604
0.203301
-0.146285
-0.0570157
0.346713
0.288294
-0.0525395
-0.186563
0.239104
0.0674372
-0.262539
0.195103
0.0352359
-0.207272
0.172037
0.00406874
0.0919087
-0.281595
0.189688
-0.682082
0.395974
0.286108
0.00204174
0.002027
0.0241699
-0.107898
0.0837285
0.0444882
0.254458
-0.298942
-0.000687267
0.0291865
-0.0284992
-0.662859
0.481407
0.181463
0.373887
-0.159818
0.267003
-0.363972
0.0969726
0.617383
-0.100155
-0.517186
-0.0239808
-0.201523
0.23096
-0.00272066
-0.228238
-0.769766
0.602476
0.167297
0.410765
0.13631
-0.547069
-0.137263
0.251984
-0.114719
0.128459
-0.111433
-0.0170262
0.0158531
0.112606
0.179471
-0.0774448
-0.102026
0.225099
-0.309082
0.0140941
-0.0380039
0.0239098
0.29546
-0.25502
-0.0404402
-0.410317
-0.252534
0.348431
-0.119419
-0.153781
0.0464563
0.107325
0.0146303
-0.000541403
-0.0140889
-0.310901
-0.0922518
0.403162
0.0145107
0.361376
-0.375878
-0.082424
-0.0713572
0.00204174
0.167741
0.0355602
-0.151915
0.562687
0.0546217
0.12485
-0.0172682
0.040162
-0.0228938
0.561549
-0.512884
-0.0486602
0.471888
-0.614669
0.142782
-0.263744
0.211208
-0.0694591
0.0640162
0.00544288
0.121648
0.450271
-0.571919
-0.27877
0.0782767
0.200494
0.18437
0.189518
-0.194842
-0.00226307
0.0193541
-0.017091
-0.11017
0.0718935
0.0382766
0.0197063
-0.0203935
-0.257675
-0.143107
0.400791
0.388755
-0.540663
0.0784454
-0.26841
-0.0546139
-0.181489
0.236105
0.422213
-0.105338
-0.316871
-0.161079
0.549842
-0.261012
0.206401
0.235783
-0.191292
-0.377938
0.443036
-0.0650904
-0.60462
0.577055
0.0275834
-0.420511
0.162847
0.0167112
0.0661923
-0.0829035
-0.230752
-0.30009
0.530882
-0.00212396
-0.203178
0.205303
-0.0947539
0.118924
-0.637566
0.603623
0.0339936
-0.0289585
0.259919
0.481956
0.102021
-0.579944
0.405534
0.174421
0.115475
0.268135
0.0273255
-0.616661
0.207031
0.409641
-0.413445
0.285833
0.127618
-0.18686
0.00989842
-0.20348
0.193582
0.588214
-0.588128
-6.20678e-05
-0.137468
-0.500058
-0.156708
-0.1005
0.257209
0.526832
-0.53181
0.00498197
0.542671
-0.015836
0.00283584
-0.380768
0.518587
-0.591881
0.0733158
-0.00778931
0.430008
-0.0788703
0.0768436
0.00202663
0.0352089
-0.0487994
0.0135905
0.423225
0.13833
0.541539
-0.405224
0.178593
-0.143358
0.531077
0.0724102
-0.00411097
0.0332975
-0.106336
-0.175258
-0.0582009
-0.0112582
0.38838
-0.180855
-0.207523
0.100472
-0.132184
0.418833
0.161355
-0.580179
0.110632
-0.0917989
-0.0188331
-0.467324
0.277602
0.189733
-0.0945181
-0.510085
0.167385
-0.577327
0.40995
0.262215
-0.183937
-0.133454
0.139967
-0.00651275
-0.017298
-0.00144134
0.0187394
0.0507042
-0.0339929
0.0766353
-0.270482
0.193849
0.259525
-0.181079
-0.423239
0.554362
-0.13111
-0.0996056
-0.0338481
-0.056919
0.158405
-0.101486
0.198808
-0.0587463
-0.140062
-0.00879288
-0.0321703
0.0409631
0.170492
0.217891
-0.0693562
0.125187
-0.0558303
0.0335724
0.145021
0.00417446
-0.0406251
0.0364506
0.016882
-0.0160715
-0.00081051
0.0517866
-0.247913
0.196128
0.617426
0.262248
0.0118522
-0.2741
-0.559926
0.398854
-0.0644006
-0.0144696
-0.541609
0.25575
0.285873
-0.152361
-0.232824
0.385195
-0.388129
0.585527
-0.197393
-0.0572661
-0.052904
-0.159896
0.0351961
-0.0311547
-0.00404145
-0.459941
0.14905
-0.197093
-0.0307718
0.227865
0.568867
-0.696197
0.127334
0.247481
-0.399831
-0.159558
0.169457
-0.137617
-0.33363
0.471254
0.541333
-0.0227255
0.0285453
-0.0370184
0.00847309
-0.612939
0.605657
0.00729115
0.56816
-0.149319
-0.176187
-0.328974
0.505189
0.0763371
-0.0584335
-0.0179036
0.0638063
-0.310075
0.246272
0.300608
0.0525747
-0.0329276
-0.0196471
0.0362057
-0.212329
0.176123
0.0146303
-0.0176216
-0.0185955
0.0362171
-0.375454
-0.225368
0.600822
0.242855
-0.191067
0.0595206
0.310533
-0.370045
0.0492472
-0.0433468
-0.00590041
-0.0698934
-0.0304703
-0.0249299
0.0554002
0.191272
-0.100176
-0.0910962
0.599501
-0.10615
-0.493346
-0.144704
-0.207582
-0.152718
0.0187092
0.134009
-0.194749
0.137831
-0.232087
0.295896
-0.166541
-0.0839872
0.25053
0.406244
0.249745
0.098693
0.147203
-0.0705866
-0.0766168
0.104666
0.00596559
0.176085
0.0227238
-0.104481
0.354233
0.0468019
0.100402
-0.38853
-0.293552
0.217613
-0.219737
0.141193
0.0500794
0.128549
-0.112696
0.0121226
-0.114946
0.102823
-0.0241387
0.00119806
0.0229407
-0.264661
-0.351992
0.0202949
-0.00244278
-0.0178521
-0.273246
0.108562
0.164685
0.0366991
-0.045492
0.50793
-0.026513
0.356501
-0.494111
0.283247
-0.237699
-0.0455468
0.0171244
-0.0190671
0.0019427
0.0175486
-0.000666612
-0.0855807
-0.234085
0.319669
0.198574
-0.0388722
-0.159702
-0.268854
0.304192
-0.0353363
-0.22605
-0.392534
-0.106262
0.308216
0.134827
-0.426853
-0.118647
0.545517
-0.0543135
0.343205
-0.288889
0.272077
-0.326388
-0.00280777
0.0509931
-0.120349
-0.180475
-0.056699
0.0549082
0.00179088
0.633295
-0.251099
-0.382152
0.724191
-0.411955
-0.312228
0.344489
0.37971
-0.0373177
-0.0172566
-0.10536
0.122617
-0.140637
0.0403791
0.100258
0.368446
0.180643
-0.549044
0.55758
-0.0856913
-0.133648
0.16722
0.0197535
0.124966
0.322778
-0.447736
-0.373989
0.498964
-0.313447
-0.456313
0.728495
-0.384
0.312403
0.416099
-0.00924505
0.0289513
-0.0309303
0.0406899
-0.00975963
0.0878498
0.298949
-0.386792
0.478388
0.0871423
-0.56553
-0.115557
0.150074
-0.0345161
-0.0241554
0.00207791
0.0220775
0.0128718
-0.512651
0.499789
0.525903
-0.157409
0.17929
0.0192838
0.0745519
-0.0614623
-0.0130896
-0.0878431
-0.0495463
-0.00715276
-0.153602
0.134066
0.0195358
-0.342866
-0.19873
-0.0462612
0.0276657
-0.162726
0.0471688
-0.249763
0.143428
0.00766331
0.115818
-0.123481
0.232594
-0.318171
-0.0337381
-0.469514
0.219833
0.249689
0.0579056
0.0967732
-0.154678
-0.046189
-0.134173
0.180362
-0.0141338
-0.340372
0.354514
0.602484
-0.187107
-0.334879
-0.113493
0.448377
0.376276
-0.56051
0.184242
-0.00308141
0.0212948
-0.0182134
0.0174882
-0.163529
0.146041
0.172305
-0.570839
0.398544
-0.665753
0.291772
-0.465627
0.132003
-0.280062
-0.385682
-0.191902
0.0620912
0.534
-0.0205621
-0.163249
0.183811
0.586501
-0.414189
0.00182757
0.0152354
0.0436776
-0.00846868
0.0802679
-0.403726
0.323472
0.314364
0.119455
-0.433813
-0.166014
0.136396
0.0296177
-0.739649
0.306221
0.433434
0.274526
-0.0988163
-0.175709
0.0200274
-0.0231088
-0.344802
-0.394841
0.018017
-0.02028
0.574992
-0.198708
0.000363465
0.0759736
0.602277
-0.00276932
-0.305588
0.390521
-0.0849294
0.283399
-0.297526
-0.330405
0.519822
-0.1894
0.110492
-0.00841179
-0.10208
0.545887
-0.585694
0.0398418
0.20337
-0.167164
-0.278099
0.0924515
0.185649
-0.547569
0.159444
-0.225538
0.219636
0.00590205
0.0158225
-0.437772
0.450652
0.160484
-0.0192647
-0.141219
-0.34445
0.465178
-0.120722
-0.356478
0.156835
0.199645
0.491596
-0.113399
-0.0753879
-0.185622
-0.597215
0.212291
0.384934
0.0492166
0.496707
0.161725
-0.00918435
-0.152541
-0.520506
0.192225
0.328285
-0.133159
0.191065
-0.248745
0.17336
-0.361452
-0.169322
0.530814
0.0390479
-0.0105026
0.0206586
-0.00353419
-0.424455
0.555633
-0.131165
-0.653527
0.196772
0.456757
-0.185984
-0.327959
0.4142
-0.0862398
0.0981755
0.0145099
-0.112685
0.0165781
-0.0450318
0.0284537
-0.0541519
0.0236816
0.502897
-0.584725
0.0818276
-0.215168
0.156421
-0.118689
0.433057
-0.0143581
0.0805504
0.0918004
-0.419757
-0.0711652
-0.039818
-0.204701
-0.391196
-0.053057
0.353303
-0.0279819
0.516452
-0.163989
-0.352456
-0.258686
0.18631
0.0151233
0.113426
-0.488111
0.569407
-0.0812834
0.012962
0.0362852
-0.359235
-0.250163
0.609443
0.133068
0.0277071
-0.647234
0.447923
0.199316
0.0176759
-0.0199043
-0.395174
0.557575
-0.16238
-0.00342406
0.155925
-0.152501
-0.0253405
-0.243512
0.648256
-0.145359
0.187959
-0.676056
0.127873
-0.115024
-0.0128492
-0.0625776
-0.0104978
0.0730754
-0.489376
0.196249
0.293133
0.186798
0.329662
-0.0335832
0.0294723
-0.0552076
0.0734445
-0.0182369
0.105737
-0.0569139
-0.0488231
-0.00401235
0.197981
-0.701981
0.357186
0.101622
0.297278
-0.398893
0.0727263
-0.060942
-0.0117844
-0.105171
-0.109996
-0.326708
-0.375266
0.147152
-0.189723
-0.189953
0.379683
-0.0165511
0.218662
-0.202111
-0.136583
0.0224011
-0.131496
0.109095
0.00245313
0.16101
-0.163463
0.059592
0.214934
-0.14613
0.156645
-0.0105148
0.0262308
0.00179247
-0.0280233
0.104795
-0.528021
-0.276339
-0.213031
0.306751
-0.27397
0.121703
-0.0951073
-0.0265956
0.614049
-0.0558365
-0.558202
0.00148284
-0.14501
-0.00111947
-0.39053
0.0987125
0.294305
-0.279787
0.188675
-0.0361006
-0.152574
-0.458324
-0.195201
-0.320255
0.260304
0.0599506
0.540278
-0.401095
-0.139177
-0.0938349
-0.111392
0.266206
-0.291545
0.365415
-0.285136
-0.0964714
0.0822869
0.0141845
-0.42989
0.627598
-0.197704
0.0346144
0.0179603
-0.0932376
0.129948
0.410335
-0.0521193
-0.488766
0.218419
0.270354
0.329577
0.244173
-0.573749
0.135007
-0.554684
0.41969
0.0301793
-0.00320412
-0.161721
0.4913
-0.00336661
0.229347
-0.225978
0.0148225
-0.14847
0.24527
-0.243772
-0.00149682
0.102453
-0.34464
0.242192
-0.0773903
0.0254699
0.0519205
0.0131929
0.0772508
0.237071
0.0545058
-0.291573
0.0124814
0.0980107
-0.304709
-0.0893463
0.394063
0.205264
0.0400058
-0.0052889
0.101663
-0.496667
-0.198647
0.0231583
0.175489
-0.0927833
-0.15596
-0.118889
-0.445883
0.564791
0.122123
0.335417
-0.457515
0.223308
-0.58884
0.365546
-0.0448957
-0.167433
0.45395
-0.125364
-0.328582
-0.572898
0.433365
0.139544
0.362274
-0.481518
0.119256
-0.138373
-0.0283682
0.166742
-0.340209
0.111877
0.228332
-0.755564
0.325481
0.430088
-0.67111
0.295657
0.107768
-0.00959223
0.00232982
0.186346
-0.493001
0.162611
-0.274854
0.271491
0.0831515
-0.0694156
-0.0137359
-0.176857
0.219663
-0.042806
-0.411459
0.533107
0.0432845
-0.12532
0.0656164
-0.0799745
0.265315
-0.513616
0.248307
0.333547
-0.701326
0.367784
-0.0721023
-0.209608
0.281711
-0.344818
0.466968
-0.422012
-0.252516
-0.358475
-0.342846
0.513261
-0.24794
-0.0432287
0.0247218
0.0185069
0.0893104
-0.394012
-0.0336748
0.209783
-0.176108
-0.00309671
0.0183321
-0.0177549
0.17824
-0.549571
0.122735
0.396693
-0.149201
-0.0192413
-0.058149
0.213762
0.069487
-0.0187788
0.00148076
-0.705627
0.26784
0.437792
0.52796
-0.20709
-0.32085
-0.596565
0.166678
0.659561
-0.34715
0.327539
-0.0605332
-0.488005
0.198418
0.289592
-0.00260063
0.0857522
-0.431553
0.556385
-0.124829
0.0101513
0.188423
0.339559
0.00480413
-0.137412
0.132609
-0.40427
0.582254
-0.177981
-0.0975205
0.405743
-0.127418
-0.0261835
0.0742981
0.031439
0.168965
-0.358682
-0.175039
0.13144
0.0435992
0.346796
0.210242
-0.557021
-0.629792
0.199908
0.429918
0.480377
-0.118093
-0.29548
-0.19328
0.426787
-0.554281
0.127511
0.438489
-0.61907
0.180628
0.00687762
-0.0421981
0.571984
-0.145179
-0.179483
-0.0460554
-0.0180988
-0.0865961
0.104695
0.361118
0.208926
-0.569988
0.153301
0.0254773
-0.178778
0.123751
0.00409024
0.0480345
-0.00220542
-0.0458291
-0.215137
0.19151
0.0236278
0.021636
-0.215115
-0.293766
0.508882
-0.517098
0.301984
-0.26958
-0.134454
0.157821
-0.562087
0.33505
0.00812123
0.0871804
-0.0953016
-0.414401
-0.165533
0.301472
-0.393715
-0.217191
0.208698
-0.176355
-0.0323415
-0.0847342
0.255662
-0.170927
-0.0796707
-0.02462
0.104291
0.132146
-0.0184738
-0.113672
0.0906581
0.365295
-0.455948
0.435284
-0.315825
-0.0523064
-0.211481
-0.00853701
-0.17268
0.181217
0.110056
0.343899
-0.130336
0.125961
0.0813157
-0.161507
0.0801911
-0.0949793
-0.183119
0.0159054
-0.0531754
0.03727
-0.480876
0.143829
-0.152366
0.131464
-0.112755
0.138122
0.329583
-0.467678
-0.0329838
0.0299237
0.00306009
-0.27253
-0.357234
0.395429
0.264138
0.028181
-0.166554
-0.307273
-0.398349
0.504274
0.129066
0.162871
-0.00114608
0.0080304
0.0259741
-0.115909
-0.0216949
0.137604
0.305267
-0.481427
0.280689
-0.0816711
-0.199015
0.120433
0.375155
-0.495583
0.113683
-0.0982239
-0.0154592
-0.120646
0.118158
0.00248897
0.257489
-0.404367
0.146884
-0.0985548
0.153922
0.324173
-0.478069
-0.0035216
0.156011
-0.152489
0.424247
-0.398175
-0.026071
-0.546252
0.408665
0.137599
0.0786821
0.535378
0.468554
-0.112045
0.372287
-0.491158
0.465355
-0.437381
-0.0279692
-0.201304
0.17145
0.0298545
0.593505
0.0158215
0.116325
-0.34507
0.483219
0.391044
0.0324556
-0.423488
0.163327
-0.256108
0.00179386
0.0327513
-0.0345452
-0.503945
-0.0190246
0.522982
0.267007
-0.195155
-0.0718503
-0.169981
-0.390521
0.156422
-0.151618
0.0473879
-0.181425
0.134037
-0.175941
-0.0804706
0.256412
-0.146365
-0.201604
-0.167256
-0.169158
0.336418
0.209909
-0.00913079
0.0458299
-0.0229862
-0.0202424
0.0174885
-0.0205853
-0.435435
0.566243
-0.130795
-0.361197
0.481846
-0.120638
-0.356942
0.447603
0.415933
-0.134887
-0.281032
0.0708404
-0.0172927
-0.0535477
0.645925
-0.339698
-0.330536
0.344726
-0.0141895
-0.066017
-0.207227
0.00430653
-0.053273
0.0489665
-0.199316
0.0854446
0.00408976
0.00111354
-0.0052033
0.426054
0.145948
0.148788
-0.0845709
-0.0642167
0.52177
0.0664683
0.146772
-0.585443
0.438677
-0.029539
0.0338456
-0.739161
0.431893
-0.0597212
-0.0261532
0.0858744
0.618054
-0.563205
-0.0548471
0.493585
-0.132414
0.119191
0.0303546
-0.110025
0.000471198
0.464888
0.424969
-0.511222
0.0862616
0.0095478
0.0992596
-0.108807
0.14666
0.00664077
0.455299
-0.396884
0.0117147
-0.0689808
-0.0460784
0.0312822
0.0147962
-0.0071789
0.0552134
-0.519673
0.0157401
0.0238875
-0.0159799
-0.00790754
0.587227
-0.480744
-0.106481
-0.0326529
-0.00797218
-0.458646
0.298751
0.545362
-0.398583
0.613012
-0.190527
-0.422483
0.313878
0.228797
-0.0893626
0.170679
-0.244637
0.160651
-0.413675
-0.209646
-0.378462
-0.756856
0.290012
0.466901
0.0816107
-0.069896
-0.42378
0.43207
-0.00827179
-0.00134113
0.115461
-0.11412
-0.10559
0.407072
0.521133
-0.0961557
-0.490323
-0.122608
0.0412351
-0.11868
-0.0642187
-0.0205885
0.0848072
-0.0140142
0.018104
0.135647
-0.127983
-0.16109
-0.0402131
0.000615727
0.0892852
-0.0899009
-0.00431205
-0.0198434
0.543211
-0.408192
-0.0798267
-0.0150899
0.0949167
-0.445483
-0.311319
-0.094562
-0.0172793
0.111841
0.125521
0.290425
-0.0223446
-0.0741269
-0.130555
0.50286
-0.184053
-0.253324
-0.364375
0.13156
0.0458807
-0.168357
0.182558
-0.0142002
-0.0699093
0.0556635
0.0142458
-0.623819
0.0882534
0.535578
0.15687
-0.177432
0.10882
0.337993
-0.446804
0.48284
-0.168959
-0.00285618
0.029087
-0.236771
0.204235
0.0325363
-0.059966
-0.358957
0.418931
-0.102912
0.125313
0.164485
0.566568
-0.425981
-0.140581
-0.014476
0.583346
0.0289311
-0.0317872
-0.0774653
-0.346292
0.130303
0.377978
0.267952
-0.413344
0.353385
0.0905933
0.0311097
-0.387817
-0.308376
0.131655
-0.0250733
-0.106581
-0.579301
0.549614
0.0297046
-0.596688
0.452149
0.144563
0.00750914
-0.096095
0.406547
0.0108892
-0.000617961
-0.0102712
0.0173808
-0.077102
-0.271851
0.341576
-0.0697237
0.110311
0.0211527
0.549545
-0.123473
0.302501
-0.262853
-0.0270167
0.0288106
0.0358697
0.0403264
-0.0761961
-0.281549
0.209448
-0.165743
-0.198227
-0.391154
0.207105
-0.209437
-0.369849
0.567179
-0.314598
-0.252569
0.503622
-0.421794
0.0331652
-0.156489
0.123324
0.189293
0.0316166
-0.220908
-0.0281989
0.0441043
0.0217072
-0.190064
-0.334973
0.271433
0.0635411
-0.115168
-0.00547795
-0.266037
-0.254466
0.0101192
0.15813
-0.168248
-0.0192933
-0.0956524
0.0200949
-0.390175
0.533742
-0.326583
-0.207156
-0.0801927
0.583815
-0.222982
-0.373683
-0.438216
0.34371
0.500865
0.1048
0.468677
-0.348241
0.406195
-0.593104
0.186951
0.0106857
0.0132018
0.177319
-0.0402616
-0.137057
-0.632366
0.455321
0.177071
0.123715
-0.108592
-0.228414
-0.395395
0.0419327
-0.0253546
0.173776
0.401224
0.144219
0.410155
-0.0227344
0.0307648
-0.175755
0.0634924
0.112263
0.413326
-0.491372
-0.212193
-0.121943
0.334142
-0.609377
0.184906
0.424474
-0.555766
0.416808
0.138971
0.180093
0.0925345
-0.272625
0.175787
-0.00917471
-0.166612
-0.372798
0.504053
-0.13124
-0.00168176
0.015563
-0.0138813
-0.0850731
0.220183
-0.135109
-0.351949
0.423087
-0.0711373
0.50662
-0.0932937
0.223012
0.310734
-0.030503
-0.0155754
0.0854973
0.195194
-0.652203
0.268523
0.3837
-0.304516
-0.00434365
0.0243711
-0.101086
0.234396
-0.125834
-0.0136711
-0.0051077
-0.363435
0.0194841
0.343951
-0.561972
0.16682
0.131963
-0.556406
0.244906
0.0826362
0.0108669
-0.529562
0.0971931
0.43237
0.0193092
-0.106164
0.286261
0.194685
0.0723235
0.0197941
-0.438514
0.319831
-0.108841
-0.0226543
0.152501
0.0248183
0.396981
-0.111142
0.276044
-0.0402588
-0.365921
-0.286261
0.205095
-0.0293067
0.321796
0.0712245
-0.337416
0.122623
0.214795
0.124205
0.356138
-0.480339
0.014348
0.00109675
-0.0154447
0.49655
0.0767053
-0.573255
-0.338024
-0.0254109
-0.37971
0.213969
0.0581174
0.244449
-0.302565
0.0520439
0.1665
-0.218543
-0.0397702
0.0756399
0.494106
0.0829659
0.00795127
-0.121349
0.113397
-0.0840617
0.0198431
0.279116
0.278799
-0.557915
-0.136752
-0.291793
0.428558
-0.180579
0.514616
-0.108379
0.0997371
0.268127
-0.367848
-0.406391
0.201519
0.204882
0.391643
-0.101933
-0.289708
0.150706
-0.0782077
0.119443
0.0228132
-0.399847
0.558909
-0.159045
-0.012211
0.080114
-0.067903
0.0661875
0.157335
0.206121
0.00257717
-0.122205
0.392484
-0.290854
0.0739748
0.074813
-0.0205638
-0.182916
0.397955
0.131275
-0.529219
-0.126364
-0.0493909
-0.135549
0.169935
-0.0343861
0.157231
-0.00472956
0.55289
-0.39524
-0.157639
0.411915
-0.530544
0.346797
0.220391
0.000287003
-0.0976848
0.352147
-0.603281
0.381268
0.222022
0.163058
-0.0299896
-0.529034
0.156251
-0.565721
0.419498
0.146238
0.016855
-0.099279
0.182806
-0.28166
0.388842
-0.10718
0.0554221
-0.232279
0.211773
-0.228324
0.0676291
-0.293466
-0.112918
-0.307977
0.202643
0.0143694
-0.0983623
0.083993
0.406939
0.138429
-0.596538
0.175396
0.421147
-0.374871
-0.301174
0.525005
-0.530532
0.00554089
0.241834
-0.343973
0.102145
-0.306933
0.198307
0.108628
0.0619411
-0.237881
0.39159
0.161311
0.605397
-0.195295
-0.410101
-0.355076
-0.130608
0.485692
-0.387399
-0.0712464
-0.150361
-0.161674
-0.0534619
-0.379391
0.129603
-0.0137852
-0.358642
-0.0575003
0.0747074
-0.0172072
0.0910355
-0.372694
-0.476299
0.101439
-0.00799615
-0.0370357
0.283479
-0.0956859
-0.187791
0.018852
0.0956089
0.169394
-0.338459
-0.0202225
0.358683
0.124572
0.316496
-0.441062
0.550161
-0.416089
-0.13406
-0.418489
0.281752
0.0185484
-0.0379246
0.0193763
-0.178105
0.200968
-0.0228618
0.0685538
-0.340404
0.168907
0.0507566
-0.297862
0.397618
0.0198783
0.137352
0.667022
-0.188633
-0.410818
0.502677
-0.0918539
-0.455918
0.0582453
0.397673
0.482409
-0.395266
-0.0215394
0.264041
-0.0975539
-0.166486
-0.00648765
-0.33197
0.115489
-0.0150171
-0.071515
-0.356415
0.427931
0.291906
-0.515912
0.224016
0.323223
-0.516826
0.193617
0.162471
-0.160018
0.149715
-0.300381
0.41179
-0.111399
0.0751831
0.228975
-0.304155
-0.361077
0.500309
-0.13922
0.0180481
0.491435
-0.19952
-0.0553028
-0.183569
0.238872
0.281769
0.115218
0.0226576
-0.00203855
-0.020619
-0.0196547
-0.405746
0.265798
0.139949
0.0112641
-0.122874
-0.0521649
-0.00231515
0.0571218
0.35708
-0.413592
0.564946
-0.151332
0.546992
-0.445634
-0.101351
-0.101947
0.37954
-0.277582
-0.0725326
-0.244454
0.31699
0.459214
0.0269903
-0.506456
0.360312
0.146158
-0.190782
-0.149426
0.102789
0.0147136
-0.0844437
0.0697301
0.227291
-0.324972
-0.0299128
-0.152612
0.182525
-0.167989
-0.014961
0.18295
-0.553828
0.413515
0.140325
-0.191284
0.188564
0.261476
0.0220063
0.555593
-0.179494
-0.376093
-0.00627662
-0.179088
0.185366
0.179821
0.447781
-0.00782805
0.0416645
0.145828
-0.112662
-0.584387
0.163702
0.420686
0.151813
0.403833
0.233619
0.230484
-0.532451
0.36847
-0.470714
0.115646
-0.0185611
-0.399068
0.559764
-0.160674
-0.0606479
0.363695
-0.494232
-0.164198
0.539957
-0.375758
-0.417105
0.137407
0.279701
0.10546
0.332695
-0.438141
-0.0766196
-0.382664
-0.130217
0.15738
-0.556425
0.419323
-0.0717055
0.302603
0.0207648
-0.323364
0.0043917
-0.558725
0.413142
0.145599
0.196561
0.21951
-0.662058
0.442551
-0.351886
-0.11882
-0.0205598
0.0223523
0.483657
-0.16042
-0.149317
0.289976
-0.00358846
0.127304
-0.0255445
0.654876
-0.435364
-0.39677
0.344191
0.0525807
0.101473
-0.0871031
0.561155
-0.40872
-0.15243
0.0906944
0.303251
-0.393939
0.120779
0.08033
-0.162911
-0.305039
0.467975
-0.0902918
0.0998396
0.289982
-0.349788
0.0598134
-0.023857
-0.00912673
0.290622
0.0999019
0.117036
-0.00553425
-0.111502
-0.34958
-0.457812
-0.116702
0.574518
-0.640165
0.478445
-0.0980506
0.536589
0.651708
-0.155158
0.0418781
-0.0510089
-0.0891996
0.330275
-0.241071
-0.611036
0.237293
0.373765
0.300352
-0.344377
0.0440262
0.160066
0.12599
0.421008
-0.109101
0.307346
-0.0702717
0.0126395
-0.209686
0.176011
-0.117756
-0.00417354
0.121929
0.101127
0.232746
-0.03806
-0.00607873
0.027297
-0.0212183
-0.382296
0.118239
0.264062
-0.117932
-0.247906
0.413525
-0.165598
-0.0194799
0.00340215
0.0160778
-0.457963
0.202305
0.11548
-0.31778
-0.220227
-0.441828
-0.2038
-0.352815
0.556622
-0.628739
0.408516
0.602171
-0.178764
-0.423401
0.566586
-0.439844
-0.126733
0.127282
0.296123
-0.42339
-0.173759
-0.0310643
0.204824
0.539998
-0.142032
0.245893
-0.335089
-0.0132793
-0.114326
0.127606
-0.0335691
0.054467
-0.0208979
-0.0653931
0.00789281
0.126259
-0.129848
-0.22191
-0.427426
-0.212738
0.477238
-0.337636
-0.139581
-0.0158593
-0.082503
0.404383
0.019865
0.0108892
0.141763
-0.41718
0.275423
0.146194
-0.0080724
0.511079
-0.502957
-0.303497
0.416794
-0.113287
-0.284126
0.425894
-0.419524
-0.177037
-0.37186
-0.134697
0.506579
-0.150897
0.161017
-0.243294
-0.367721
0.0237643
-0.0251774
0.00141303
0.392154
-0.373276
0.5264
-0.153104
-0.026051
0.0445994
-0.421109
0.173222
-0.278934
-0.309896
-0.102828
0.526057
-0.00325083
0.0321819
-0.0540182
0.197848
-0.203253
0.5793
-0.376041
-0.0677552
-0.467197
-0.152933
0.620142
0.538172
-0.0175629
0.0775866
-0.0600237
0.12094
-0.0280765
-0.20698
0.235057
0.186168
-0.335482
-0.356335
0.349849
-0.202757
0.590082
-0.446424
-0.143652
-0.0654287
-0.172269
0.366484
-0.437997
0.0647393
-0.231994
0.0232904
-0.0276025
0.304689
-0.438783
0.134098
-0.432305
0.332179
0.376515
-0.285816
-0.510869
0.354112
0.156776
-0.142348
0.00574181
-0.107828
0.102086
0.0261767
0.138853
0.226207
-0.0369129
-0.0263425
0.0219989
0.0311219
-0.00735758
-0.0995927
0.466078
-0.100894
0.106636
-0.418927
-0.151904
0.00345696
0.0203774
-0.0238343
-0.452746
-0.124574
0.065133
0.00711601
-0.072249
-0.137694
0.00934577
-0.207992
-0.286788
0.307781
-0.0209901
-0.116419
0.0988401
0.0175789
0.0126585
-0.0801764
0.0675179
-0.643814
0.229872
0.413944
0.124907
-0.433321
-0.448915
-0.308778
-0.197664
0.16759
0.384439
-0.102665
-0.076576
0.366564
-0.160215
-0.0170357
0.177251
-0.0183481
-0.000614839
0.018963
0.137342
0.193934
-0.023526
0.00368269
0.522119
0.0959373
-0.175884
0.463502
-0.287612
-0.305405
0.0406971
-0.0505642
0.00986717
0.219049
-0.291578
0.0198609
0.567368
-0.137543
0.161181
-0.259453
-0.139854
0.399318
-0.402021
0.268982
0.122664
0.0554338
0.184362
-0.239794
0.301256
-0.40319
-0.0240872
-0.425394
-0.218418
0.420265
0.131987
-0.552249
-0.0515335
-0.123003
0.427696
-0.020485
0.00195937
0.0185256
-0.329532
0.117344
-0.104298
0.331595
-0.435291
0.565191
-0.129898
0.0235503
-0.407702
0.651876
0.15469
-0.294588
0.0849817
-0.193861
-0.118191
0.312057
0.218135
-0.0319653
0.442402
0.212477
0.0554662
0.47041
-0.346201
-0.487729
0.139264
0.348473
0.0146677
-0.128944
0.114276
-0.438881
-0.00698826
0.559779
-0.280663
-0.10014
-0.0300534
0.130193
0.0832973
-0.101396
-0.0168605
-0.104488
-0.126512
0.021153
0.105359
-0.125775
-0.403787
0.0882326
-0.0908332
0.033706
0.00611926
-0.0398253
0.527307
0.090162
-0.0861325
0.247898
-0.423777
-0.00875865
0.16477
0.135896
0.0141781
0.438508
-0.380262
-0.0635796
0.228492
-0.164911
-0.401019
-0.184418
0.241241
-0.177522
-0.0637174
-0.223095
-0.25075
-0.093886
-0.0355663
0.0610362
-0.157237
-0.0210556
0.178293
0.0292134
-0.164762
-0.0656636
0.0542086
0.011455
0.0867999
-0.00901052
0.107725
-0.0987142
-0.220346
-0.411303
0.107814
0.359648
0.0949359
-0.454579
0.559858
-0.139591
-0.591623
0.44785
0.143777
-0.401446
0.54367
-0.142208
-0.222047
-0.065569
0.0782275
-0.594674
0.431611
0.163084
0.0811733
0.249105
-0.149026
-0.254673
-0.117422
-0.229255
0.346685
0.173552
-0.0125415
-0.136505
0.0393561
0.0971491
-0.300925
0.112213
-0.547635
-0.217919
0.162617
0.0537608
-0.48905
-0.300858
0.265208
0.0238402
-0.0299189
-0.104171
-0.221178
0.325355
0.149141
0.313423
-0.462542
0.16229
-0.0246868
-0.429497
0.328325
-0.247148
0.0395056
-0.00579954
-0.017028
0.389135
-0.102679
-0.286454
0.181281
-0.167813
-0.0134672
0.311716
-0.0880341
-0.22368
-0.0169758
0.00330467
-0.0227288
0.226964
-0.238763
0.15403
-0.0125336
0.0844271
0.540641
-0.0633884
-0.0993377
-0.040748
-0.0970878
-0.411922
0.399984
-0.339837
0.251561
0.0882766
0.520088
-0.00682128
-0.0904627
-0.0116384
0.51761
-0.505917
0.240232
-0.357645
-0.343919
0.0590135
0.274235
-0.147277
0.163116
-0.0158394
0.587106
-0.17977
-0.407322
0.115504
-0.0603544
0.253281
0.0540683
0.0961762
0.0175069
0.186862
-0.44479
0.126869
0.317941
0.00599593
0.238051
0.125195
-0.363243
-0.0807051
0.319296
-0.238587
-0.497931
0.32218
0.17577
0.00363277
0.018668
-0.0223008
-0.0137528
0.1494
-0.0275932
0.196908
-0.266274
0.0693681
0.020434
-0.0350617
0.153208
0.0167276
-0.166973
-0.268334
-0.137411
0.178411
-0.02154
0.386327
-0.576852
0.403658
-0.298185
-0.142625
-0.00480395
0.147429
-0.229791
-0.184308
-0.183377
-0.0791607
-0.197473
0.252909
-0.311775
0.117918
-0.120238
0.134906
0.00133301
0.115703
-0.471127
0.142176
-0.14151
0.154249
-0.0127393
-0.0923618
-0.263973
0.299388
0.11241
-0.352562
0.489164
-0.136581
0.18558
0.399951
0.0808748
-0.0663911
-0.0144837
0.0992022
-0.0985865
0.580432
-0.433882
-0.146538
0.155538
-0.616595
0.189623
0.426974
0.0670884
-0.423501
0.0152046
0.356652
-0.43322
-0.159895
-0.337915
0.497839
0.0252431
0.49485
-0.277234
0.0346023
-0.496766
0.462211
0.322555
-0.0776457
0.0667026
0.0141722
0.116676
0.169046
-0.2272
0.0581553
0.428514
0.131347
-0.419821
-0.00123147
0.127491
-0.0126376
0.0533346
0.0345521
-0.0141181
-0.127221
-0.497904
0.547154
0.339319
-0.499183
-0.0926129
0.33851
0.0373473
-0.424628
-0.159758
0.00556279
-0.0677859
0.00904662
0.128235
-0.137281
-0.0930084
0.253661
-0.592482
0.182006
0.410477
0.299252
-0.100943
-0.0121735
0.454978
-0.39238
-0.0625914
-0.198716
0.228018
-0.0293025
-0.402858
0.558172
-0.422879
-0.135282
-0.364861
0.221762
0.00450217
0.0312375
-0.0357396
-0.179781
0.151413
-0.133001
0.561518
-0.133078
0.151296
-0.018218
-0.403941
-0.00286797
0.139264
-0.462454
0.21139
0.399579
0.165511
-0.565047
-0.0720038
-0.376035
0.07931
0.375676
0.268386
0.120752
-0.0999034
-0.0158023
0.115706
-0.185659
0.245651
-0.0599917
-0.092346
-0.206591
0.486494
0.00495126
0.124695
0.43007
0.115464
-0.542327
0.244484
-0.208531
0.0347729
0.174597
0.0027745
-0.177371
0.0141671
-0.0158488
-0.21643
0.192706
-0.198981
-0.146373
0.161146
-0.014773
-0.013926
0.167134
0.162604
0.403652
0.165804
0.0898594
0.125334
-0.0250761
-0.0881634
0.0712187
0.0169447
0.0324466
0.011231
-0.117067
0.362849
-0.245779
0.281134
-0.496603
0.215477
-0.0158472
-0.626447
0.288558
-0.516567
0.108866
0.195121
0.0801685
-0.275287
0.0184997
-0.351994
0.13037
0.221629
-0.426507
0.0760516
0.0205621
-0.0966137
0.20757
-0.155525
0.0959216
-0.355674
0.259756
-0.183539
0.414045
0.014384
0.090068
-0.104452
0.0745468
-0.0862163
0.0116696
-0.0200829
-0.00344319
0.359618
-0.490218
0.104478
-0.428785
0.324318
-0.0795323
0.455369
0.112799
-0.493987
-0.0196232
-0.160758
0.181273
-0.0205143
0.0509397
0.372148
-0.269728
0.0858628
0.183866
-0.198874
0.156854
0.0420199
-0.315961
0.223619
0.0646574
-0.0751552
0.130914
0.362093
-0.492977
-0.123709
0.383776
-0.260062
-0.131136
-0.180635
-0.224744
0.505888
-0.0144038
-0.0737595
0.113099
-0.473952
0.360881
0.557598
-0.181559
0.0213436
0.10943
-0.124124
0.0146939
-0.116634
0.120491
-0.00385737
-0.0135467
0.0894365
-0.0758898
-0.156739
-0.274238
0.431005
0.105426
0.0829801
-0.188406
-0.355466
0.529033
0.0623743
0.314146
-0.528372
0.520359
-0.191709
0.360681
0.0796022
-0.0940061
0.0346888
0.32197
0.137102
-0.171618
0.445574
-0.0859222
-0.574523
0.40902
0.165507
0.137251
-0.442615
-0.140845
0.583462
-0.162462
-0.00405137
0.0215399
0.442938
-0.591517
0.148583
0.339987
0.11103
-0.12431
-0.539954
-0.119897
-0.0880996
-0.110774
-0.0715983
0.177025
0.289326
0.115827
-0.405143
-0.513641
-0.154486
-0.369532
0.524036
0.414192
0.143993
-0.537189
0.40935
0.127839
-0.242739
-0.132699
0.489995
-0.357293
0.324723
0.216629
0.0437274
-0.510913
-0.408796
-0.112009
0.520809
-0.0829107
0.275473
-0.192562
-0.183116
0.00815726
0.0467509
0.0126979
-0.159974
0.140085
-0.356971
0.527273
-0.170267
0.551967
-0.446808
-0.105148
0.148153
0.0149634
-0.547956
0.14776
0.400199
0.122735
-0.318583
-0.277952
-0.247866
-0.317332
-0.388939
0.163279
-0.369593
0.256615
0.112982
-0.0812936
0.0607051
0.441261
0.145857
0.586517
-0.143574
0.249555
-0.0603024
-0.189252
-0.596224
0.167264
0.428961
0.624364
-0.190369
-0.433983
-0.0290811
0.313448
0.103355
-0.323338
0.0111156
-0.171874
-0.145493
-0.0026278
0.18077
-0.0590532
0.225554
0.1786
-0.167484
-0.150461
-0.397492