/*--------------------------------*- C++ -*----------------------------------*\
| =========                 |                                                 |
| \\      /  F ield         | OpenFOAM: The Open Source CFD Toolbox           |
|  \\    /   O peration     | Version:  v2012                                 |
|   \\  /    A nd           | Website:  www.openfoam.com                      |
|    \\/     M anipulation  |                                                 |
\*---------------------------------------------------------------------------*/
FoamFile
{
    version     2.0;
    format      ascii;
    class       surfaceVectorField;
    location    "350";
    object      Uf_0;
}
// * * * * * * * * * * * * * * * * * * * * * * * * * * * * * * * * * * * * * //

dimensions      [0 1 -1 0 0 0 0];


internalField   nonuniform List<vector> 
20537
(
(1.01566 -0.00958283 -3.39052e-22)
(1.0155 -0.00916134 -3.64917e-22)
(1.01531 -0.00965611 -2.10671e-22)
(0.54311 0.121655 -1.28519e-20)
(0.529916 0.109207 5.05891e-21)
(0.541785 0.135976 -1.42721e-20)
(1.05153 -0.0551069 4.87289e-21)
(1.05078 -0.0557945 -3.94598e-22)
(1.05179 -0.0563531 -9.81286e-21)
(1.01576 -0.00845414 1.14908e-22)
(1.01556 -0.0086915 -5.80604e-23)
(1.01563 -0.00810863 9.76242e-23)
(1.05894 -0.0514843 -5.89681e-21)
(1.05823 -0.0514829 7.48873e-23)
(1.05859 -0.0508754 4.86803e-21)
(1.0488 0.0365735 0)
(1.03934 0.0374512 -1.19298e-21)
(1.0433 0.0291089 -3.25986e-22)
(1.03001 -0.00194679 -1.94622e-21)
(1.0306 -0.00217341 -1.38649e-21)
(1.03045 -0.00168638 3.58192e-22)
(1.0458 -0.0463422 4.21784e-21)
(1.04626 -0.0453174 7.04425e-21)
(1.04708 -0.0464359 -1.70376e-21)
(1.01018 -0.000695515 -3.83059e-23)
(1.01038 -0.000701366 2.13704e-23)
(1.01019 -0.000655516 1.59275e-22)
(1.0337 -0.0748879 4.73196e-22)
(1.03054 -0.0726174 -1.0944e-21)
(1.03426 -0.0712504 1.97518e-21)
(0.958246 -0.0965956 0)
(0.954886 -0.10348 0)
(0.973517 -0.0934494 0)
(0.618909 -0.119191 5.62428e-22)
(0.596419 -0.11186 -5.02767e-21)
(0.549825 -0.111446 4.03591e-21)
(0.981526 -0.0743517 3.58446e-21)
(1.01803 -0.0722538 -1.27469e-20)
(0.990242 -0.0739221 2.86098e-21)
(0.202313 0.157122 1.72849e-20)
(0.220794 0.163902 1.15009e-20)
(0.152177 0.154501 -1.29954e-21)
(1.01934 -0.00054013 2.16603e-21)
(1.01939 -0.000488014 2.17786e-21)
(1.01948 -0.000584466 9.43042e-22)
(1.02839 -0.0345013 -5.09806e-22)
(1.02954 -0.0351707 0)
(1.02832 -0.0360142 0)
(1.03917 -0.0242977 3.47699e-21)
(1.03836 -0.0237653 -4.55217e-22)
(1.03926 -0.0235152 -4.00489e-22)
(1.02208 -0.0186643 -1.59998e-23)
(1.02212 -0.0183822 -1.18368e-22)
(1.02246 -0.0187102 -3.87442e-23)
(1.0538 -0.0656293 -6.30034e-21)
(1.05229 -0.0638469 1.11224e-22)
(1.05197 -0.0631472 -5.4067e-21)
(1.00998 -0.000693357 0)
(1.01016 -0.000738149 -7.06192e-23)
(1.01589 -0.00811457 5.6303e-23)
(1.01594 -0.00868024 2.75793e-22)
(1.05176 -0.0539264 6.91955e-21)
(1.05256 -0.0544332 -7.13959e-21)
(1.00385 -7.99473e-06 -5.23349e-23)
(1.00437 3.47844e-05 0)
(1.00501 7.4127e-05 0)
(1.00503 -0.000109007 -9.53261e-25)
(1.00328 -1.89528e-05 -1.25621e-23)
(1.00523 -0.00011281 3.32585e-22)
(1.00337 2.03879e-06 6.85594e-23)
(1.00257 -5.95442e-05 -2.28658e-22)
(1.04454 -0.0465269 2.31481e-21)
(1.04556 -0.0476922 8.94768e-23)
(1.04907 -0.0182859 -9.37763e-21)
(1.04865 -0.0175372 -5.15928e-21)
(1.04815 -0.0181619 6.18706e-21)
(0.00986312 -0.0753793 8.57956e-21)
(0.0206045 -0.0868532 -2.25954e-20)
(1.01596 -0.00960487 1.71712e-22)
(1.01582 -0.0101516 1.39986e-22)
(1.02377 -0.0176825 -4.92275e-22)
(1.02405 -0.0180863 -4.03722e-22)
(1.02365 -0.0179286 2.18419e-22)
(1.0583 0.0327979 0)
(1.04646 0.046596 -1.93727e-22)
(1.03897 -0.0252036 -2.14213e-21)
(1.04 -0.0249508 -7.29883e-22)
(1.04957 -0.0554273 8.65322e-21)
(1.04973 -0.0569356 4.7464e-21)
(0.888317 0.145714 0)
(0.882483 0.130757 0)
(0.885426 0.147223 8.56277e-22)
(1.00491 -7.09578e-05 2.14891e-22)
(1.00636 -0.000154601 1.0442e-24)
(1.08347 -0.0567753 -4.85647e-21)
(1.0841 -0.056662 6.52242e-21)
(1.08379 -0.0575326 7.6868e-21)
(1.09443 -0.0610115 -2.13049e-20)
(1.09172 -0.0604645 -1.42085e-20)
(1.09213 -0.0605322 -7.13358e-21)
(1.05456 -0.0484166 4.87246e-21)
(1.05231 -0.0483115 0)
(1.05533 -0.0499333 0)
(1.03334 -0.0777313 -1.15609e-21)
(1.03692 -0.0760882 1.1791e-21)
(0.897286 0.145324 0)
(0.894844 0.156103 2.21011e-21)
(1.01572 -0.00638049 5.82731e-22)
(1.01572 -0.00646151 4.21053e-22)
(1.01595 -0.00661475 4.22767e-22)
(1.00999 0.000270475 3.00177e-23)
(1.00991 0.000259717 0)
(1.00972 0.000252655 -2.96791e-23)
(-0.0161592 0.0574546 -1.68153e-20)
(-0.015921 0.0529148 3.91301e-21)
(-0.0106598 0.0636385 -1.41011e-20)
(0.928287 -0.11184 -3.08749e-21)
(0.938218 -0.091546 -4.14804e-22)
(0.944052 -0.102378 -1.56857e-21)
(0.917757 -0.12242 2.8945e-21)
(0.914638 -0.120106 1.82215e-21)
(0.00445245 -0.119431 -1.1616e-20)
(0.0795748 -0.123036 0)
(0.0875198 -0.124116 1.74405e-23)
(0.899806 -0.0776445 3.60524e-21)
(0.905075 -0.0974232 -7.73259e-22)
(0.898347 -0.103467 -3.0145e-21)
(0.882507 -0.0931308 0)
(0.883727 -0.109605 2.95476e-22)
(0.865147 -0.108265 0)
(1.04944 -0.0190637 2.71677e-21)
(1.04997 -0.0183889 -3.57312e-21)
(1.0536 -0.000968298 5.75405e-21)
(1.04883 -0.002491 -5.1526e-21)
(1.05114 0.00645903 -2.37013e-22)
(1.06803 -0.0489885 8.54203e-21)
(1.06861 -0.0496764 6.8934e-21)
(1.0689 -0.0486837 4.58972e-22)
(1.06578 -0.0588006 0)
(1.06651 -0.0582154 5.93682e-21)
(1.06681 -0.0593974 5.47625e-21)
(-0.0213688 -0.105159 0)
(-0.019136 -0.0997904 1.51088e-20)
(-0.014498 -0.107728 -1.27535e-20)
(1.01903 -0.000525598 -2.50008e-21)
(1.01861 -0.000303865 -1.52606e-21)
(1.01913 -0.000565045 -2.08442e-21)
(1.01167 -0.000714571 -1.54219e-21)
(1.01158 -0.000692214 1.04889e-21)
(1.01257 -0.000809314 -5.20328e-22)
(1.01008 0.000280345 2.95403e-23)
(1.01028 0.000291209 2.72082e-24)
(1.00605 -2.2015e-05 -1.21773e-22)
(1.0066 -1.08201e-05 0)
(1.00559 -1.06165e-05 6.38369e-23)
(-0.00910162 -0.113809 1.65152e-20)
(-0.00922947 -0.114698 1.97398e-21)
(0.00417304 -0.113417 1.99598e-20)
(1.02389 -0.0173032 -4.25291e-22)
(1.02342 -0.017255 6.06336e-22)
(1.03115 -0.00473111 -1.65288e-21)
(1.03067 -0.00442545 -1.81766e-22)
(1.03129 -0.00428017 2.85562e-21)
(1.05862 -0.0461334 2.01264e-21)
(1.05591 -0.0486627 4.76092e-21)
(0.489187 -0.0140873 -8.75022e-23)
(0.482599 -0.0233943 0)
(0.422324 -0.015304 3.52985e-22)
(1.02868 -0.0372206 1.33768e-22)
(1.02553 -0.0406334 -1.22272e-21)
(1.02505 -0.0358168 -9.04369e-23)
(1.06008 -0.05313 7.06244e-21)
(1.05937 -0.0529876 7.75412e-21)
(1.05959 -0.0536816 6.87011e-21)
(0.969171 0.0520737 1.04649e-21)
(0.988847 0.0504645 -2.4084e-21)
(0.985682 0.0383818 -6.28731e-21)
(1.01385 -0.00849744 -1.66341e-22)
(1.01429 -0.00801849 -1.63642e-22)
(1.01387 -0.00759806 -2.74822e-22)
(1.08738 -0.0625052 0)
(1.08975 -0.0615213 0)
(0.892476 -0.0263289 -1.36405e-21)
(0.895877 -0.0558521 9.98406e-21)
(1.06036 -0.0330857 0)
(1.05945 -0.0334323 0)
(1.05947 -0.0323759 1.40675e-20)
(1.02162 -0.0185626 1.19502e-22)
(1.0219 -0.0190554 -1.63814e-23)
(0.343697 -0.00487599 -4.32779e-21)
(0.332915 -0.0040225 5.06232e-21)
(0.308774 -0.000320466 -3.49955e-22)
(1.03124 -0.061314 7.88979e-21)
(1.02952 -0.0618017 8.71794e-21)
(1.06245 -0.0618292 0)
(0.576714 0.140181 3.0451e-20)
(0.555149 0.110348 4.20004e-21)
(1.01921 -0.000503425 1.66428e-21)
(1.01887 -0.000534005 -2.80239e-21)
(1.01246 -0.00104006 1.4617e-21)
(1.01267 -0.00116702 2.68186e-21)
(1.0125 -0.0012201 -1.61054e-22)
(1.01216 -0.000848964 -4.66543e-23)
(1.01221 -0.000793633 0)
(1.01197 -0.000813537 -7.39878e-23)
(1.05205 -0.0533326 -2.34034e-21)
(1.0512 -0.0536615 2.05284e-21)
(0.459631 -0.00953185 -3.04011e-21)
(0.480172 -0.0135803 1.5862e-20)
(0.463577 -0.00863246 2.91188e-20)
(1.0567 -0.042703 1.55266e-20)
(1.05737 -0.0434042 2.63078e-21)
(1.05644 -0.0436318 7.62063e-21)
(0.322432 -0.00594686 8.19718e-21)
(0.294553 -0.00426385 -1.15681e-20)
(1.0341 -0.00851299 1.8492e-21)
(1.03338 -0.00846412 3.9484e-21)
(1.03357 -0.00792225 -8.04225e-22)
(0.906462 0.101963 2.01502e-21)
(0.910671 0.0966989 -1.61167e-22)
(0.904574 0.0884461 -1.20079e-21)
(1.02118 -0.0043019 -6.75219e-22)
(1.02137 -0.00455783 0)
(1.02095 -0.00441671 3.23141e-21)
(0.0424837 -0.103247 1.65842e-20)
(0.119495 -0.102473 2.31625e-20)
(0.0142765 -0.0803362 -7.20524e-22)
(1.03085 -0.0342838 -1.20423e-23)
(1.03312 -0.0385778 -2.40868e-22)
(0.63615 -0.126628 -1.49797e-21)
(0.682887 -0.127698 -1.91903e-21)
(1.04122 0.00748589 9.14162e-22)
(1.04287 0.0130585 -4.68138e-21)
(1.03557 0.0103962 1.01196e-21)
(0.697694 -0.100024 6.73725e-21)
(0.759953 -0.0789387 -1.19274e-20)
(0.76426 -0.0954909 5.99481e-21)
(1.04584 -0.023291 2.65697e-21)
(1.04506 -0.0237201 -4.22931e-21)
(1.04609 -0.0243389 -4.61367e-21)
(1.01489 -0.000222277 7.51058e-23)
(1.0145 -0.000129264 2.50271e-22)
(1.01463 -0.000162005 9.12754e-23)
(1.08239 -0.0562744 6.38192e-22)
(1.08297 -0.057101 -4.1575e-21)
(1.00559 -0.00947819 5.06814e-22)
(1.00429 -0.0119718 4.90812e-22)
(1.00292 -0.00867049 1.13483e-22)
(0.894027 0.00340382 2.55962e-21)
(1.04932 -0.0274933 -4.42485e-21)
(1.049 -0.0281667 4.74086e-21)
(1.04996 -0.028189 3.87686e-21)
(1.04585 -0.0225432 -3.10289e-21)
(1.04683 -0.0229401 2.27303e-21)
(1.00395 1.28841e-05 -8.15687e-24)
(1.00402 1.20806e-05 -2.51092e-22)
(1.00513 -7.79916e-05 -1.06383e-22)
(1.05909 -0.0523273 -5.20944e-21)
(1.05969 -0.0516913 -6.70907e-22)
(0.650859 -0.0802543 0)
(0.623335 -0.0813356 0)
(0.632539 -0.0797391 0)
(1.05577 0.00157472 -2.54896e-21)
(1.05451 -0.0102175 1.23032e-22)
(1.00239 4.57909e-05 -6.29566e-23)
(1.00384 -1.14977e-05 3.65613e-22)
(0.0306527 -0.0526579 -1.00455e-21)
(0.0825136 -0.0421448 6.67359e-21)
(0.0489972 -0.0282765 -1.09503e-20)
(1.06195 -0.0435333 -5.762e-21)
(1.06285 -0.0432902 9.27737e-22)
(1.06204 -0.0426151 -1.02819e-20)
(1.01844 -0.0111459 5.98081e-22)
(1.01865 -0.0115158 4.6757e-22)
(1.01833 -0.0112951 1.08907e-22)
(1.05472 -0.0110464 1.60819e-21)
(1.05561 -0.0114018 -1.60818e-20)
(1.00403 3.19898e-05 -1.165e-23)
(1.00503 4.22022e-05 -2.37056e-23)
(1.00422 2.54759e-05 4.27815e-24)
(1.04904 -0.00222476 -3.01354e-23)
(1.05023 -0.00934879 -9.06032e-22)
(1.04365 -0.00690797 1.15414e-21)
(1.06502 -0.0444405 -3.42568e-22)
(1.06421 -0.0446437 3.73375e-21)
(1.06486 -0.0454095 9.79459e-23)
(1.00918 0.000220172 -1.70845e-23)
(1.00912 0.000221321 -1.05136e-23)
(1.00898 0.000202455 -1.65869e-23)
(0.953534 -0.0595156 8.67866e-21)
(0.907952 -0.0586601 0)
(1.03115 0.0472037 -9.10942e-23)
(1.02913 0.0366209 1.37955e-21)
(1.00395 -3.41275e-05 -3.48471e-24)
(1.00237 -3.73214e-06 8.51625e-24)
(1.00386 -3.17274e-05 5.0058e-23)
(1.01524 -0.000354615 -1.52112e-22)
(1.01516 -0.000252412 2.89121e-23)
(1.0067 -0.00757325 0)
(1.00778 -0.00995654 6.03993e-22)
(1.0015 4.18922e-05 -4.99915e-24)
(1.00151 -1.98871e-05 6.79201e-22)
(1.00511 -6.95621e-05 0)
(1.00382 -2.72747e-05 7.27107e-23)
(0.874282 0.142687 -5.35258e-21)
(0.832503 0.105095 -8.28568e-21)
(0.682901 -0.0789677 -1.56513e-21)
(0.675082 -0.0802966 0)
(1.00849 0.000135769 -2.80731e-23)
(1.00852 0.000144168 3.96467e-23)
(1.00855 0.000150923 2.42028e-23)
(1.00668 -0.000289256 0)
(1.00653 -0.000285069 0)
(1.00437 -0.000146026 0)
(1.01115 -0.000601758 -6.45591e-22)
(1.00986 -0.000555492 -8.894e-22)
(1.00939 -0.000451485 -4.33114e-22)
(-0.0221098 0.0508486 1.71674e-20)
(-0.0117568 0.0700372 -2.16437e-20)
(1.05411 -0.0119781 6.12105e-21)
(1.05357 -0.0108852 6.05579e-22)
(0.974279 -0.0741243 0)
(0.937916 -0.0758298 -7.75176e-21)
(0.875456 0.0276664 5.34375e-21)
(0.881627 -0.076926 2.98074e-22)
(0.900952 -0.0792504 0)
(1.01731 -0.00177778 0)
(1.01681 -0.00133965 8.44299e-23)
(1.01699 -0.00196549 9.8157e-23)
(0.882129 -0.0603112 -3.47946e-21)
(0.861953 -0.0728341 3.07816e-21)
(1.05911 -0.0429924 -1.93588e-21)
(1.05987 -0.0429545 1.19061e-21)
(1.05947 -0.0438582 -7.36376e-21)
(1.01597 -0.00788891 7.87661e-23)
(1.01591 -0.00762094 8.42236e-23)
(1.05535 -0.0548218 0)
(1.05584 -0.0549346 1.94802e-21)
(1.05547 -0.0556695 0)
(1.01551 -0.00613933 -5.11039e-22)
(1.01573 -0.00628005 5.56476e-22)
(1.00914 -0.000982602 -7.77353e-23)
(1.00928 -0.00106007 -1.34873e-23)
(1.00918 -0.00101184 1.24672e-22)
(0.353436 -0.00726009 4.46526e-21)
(0.365492 -0.0107553 1.46586e-21)
(1.02137 -0.00413285 -2.1583e-21)
(1.02094 -0.00400378 2.6665e-21)
(0.879351 0.173337 3.10956e-21)
(1.00904 -0.000522433 2.5375e-23)
(1.00893 -0.000490624 -1.17604e-22)
(1.00859 -0.000426263 -1.19747e-23)
(1.00846 0.000123008 1.91448e-23)
(1.00843 0.000117156 8.05931e-23)
(1.03663 -0.0610039 8.85794e-21)
(1.04154 -0.0613885 -8.25155e-21)
(1.06776 -0.0620274 1.31962e-22)
(0.0438412 0.133249 0)
(0.0317257 0.140387 -2.11312e-21)
(0.0452755 0.145876 0)
(0.227633 0.177109 -2.22136e-22)
(0.270231 0.171806 -9.10499e-22)
(0.222762 0.171288 -3.02752e-21)
(0.0113871 -0.0732343 -4.92149e-20)
(-0.0125217 -0.0622715 -3.49524e-22)
(1.01201 -0.000851416 0)
(1.01027 -0.000419712 0)
(1.01513 -0.00235984 -3.12679e-22)
(1.01543 -0.00282063 0)
(1.01505 -0.00262748 1.95127e-22)
(1.01287 0.000433844 -8.33993e-23)
(1.01268 0.000411161 1.88059e-22)
(1.01304 0.000453201 -8.48684e-23)
(1.032 -0.0187051 1.13465e-21)
(1.03244 -0.0193945 2.57633e-21)
(1.03259 -0.0185976 8.15355e-22)
(0.931005 -0.0783413 -8.33245e-22)
(0.948448 -0.0664581 9.67683e-22)
(1.0166 0.00845601 3.86208e-22)
(1.0187 0.0084142 -4.1527e-23)
(1.01726 0.00653606 -1.16152e-21)
(1.05493 -0.054636 6.94187e-21)
(1.05515 -0.0540938 5.57426e-22)
(1.02938 -0.0016656 -9.64992e-22)
(1.02947 -0.00213604 1.40467e-21)
(0.921657 -0.120778 1.63556e-21)
(0.910791 -0.12533 2.3589e-21)
(1.08104 -0.0454239 -1.17174e-20)
(1.08077 -0.0463278 4.32897e-22)
(1.01015 -0.000659435 -5.92381e-22)
(1.0105 -0.000639529 -1.50495e-21)
(1.01138 -0.000695843 -1.97924e-22)
(0.161969 0.141737 -4.0628e-21)
(0.250121 0.15859 1.1124e-20)
(1.00554 -1.06271e-05 -1.02544e-22)
(1.00646 -4.27411e-05 2.31376e-22)
(1.03917 -0.0158751 6.8629e-21)
(1.03986 -0.0160147 0)
(1.03941 -0.015232 -2.44954e-21)
(1.03139 -0.0189116 -1.08129e-21)
(1.03143 -0.0181176 0)
(1.01213 -0.00289688 1.05043e-22)
(1.01198 -0.00277397 2.09464e-22)
(1.01212 -0.00282056 1.85741e-22)
(1.02478 -0.0168285 4.9603e-23)
(1.02484 -0.0164523 -1.96638e-21)
(1.0252 -0.0169039 -1.94715e-21)
(1.0656 -0.0599527 -1.69474e-20)
(1.06479 -0.0586898 -1.07354e-20)
(1.06742 -0.0481959 -7.39749e-21)
(1.06714 -0.049173 8.26584e-22)
(1.01266 0.000491031 4.22644e-24)
(1.01231 0.000459786 -1.29289e-24)
(1.01255 0.000475508 -6.35609e-24)
(1.05582 -0.0246629 1.77711e-21)
(1.05564 -0.0253474 5.53418e-21)
(1.05654 -0.02521 -4.99344e-21)
(-0.00609074 -0.113953 1.24256e-20)
(-0.0169733 -0.113353 2.0281e-20)
(1.00901 -0.000912211 -2.16317e-22)
(1.00912 -0.000953887 0)
(1.02284 -0.0218267 2.71279e-22)
(1.02337 -0.0224873 4.23988e-22)
(1.02336 -0.0216275 -1.19104e-22)
(1.01138 0.000317358 -6.14575e-23)
(1.01156 0.00032852 0)
(1.01124 0.000301413 -1.20288e-22)
(1.01438 0.00788872 2.84487e-22)
(1.01573 0.0108752 -2.94243e-22)
(1.06122 -0.0337961 7.85488e-21)
(1.06123 -0.032695 0)
(1.01602 -0.00803599 -1.04141e-23)
(1.01598 -0.00765575 -5.81089e-24)
(0.501458 -0.103899 1.14211e-21)
(0.47742 -0.110588 -3.77911e-23)
(0.510535 -0.103939 9.99984e-22)
(0.432955 -0.00426502 -1.5766e-20)
(0.454852 -0.00920024 -1.76911e-20)
(1.00803 -0.000158198 -6.02297e-23)
(1.00811 -0.000169572 -5.17449e-26)
(1.00817 -0.000160329 2.90524e-22)
(1.01229 -0.00302791 -1.90837e-22)
(1.01216 -0.00296957 2.25892e-22)
(0.196122 0.179636 8.61427e-21)
(0.241543 0.179608 3.07019e-21)
(1.00887 -0.000843094 -7.8436e-23)
(1.0089 -0.000863162 -6.39994e-23)
(0.887163 -0.126105 2.64011e-21)
(0.902736 -0.111112 -1.25765e-21)
(1.05809 -0.0432329 -8.09345e-21)
(1.05842 -0.042248 -1.09252e-20)
(1.01662 -0.00264739 -1.16363e-22)
(1.01684 -0.0025362 -3.85565e-22)
(1.01723 -0.00291506 -4.76667e-22)
(1.0439 -0.0673236 -2.57177e-21)
(1.0578 -0.0669741 1.11172e-21)
(1.00963 0.000259489 -3.05365e-23)
(1.00971 0.000261018 -1.64826e-23)
(1.0099 0.000276877 -6.9502e-24)
(1.03955 -0.0266107 -8.21477e-23)
(1.03882 -0.0260228 -2.02108e-21)
(1.03867 -0.026876 -6.04203e-23)
(0.996643 -0.0609058 7.38702e-21)
(1.02127 -0.00365856 -2.42252e-21)
(1.02105 -0.0034109 -8.91264e-24)
(1.0209 -0.00357884 -6.2176e-21)
(1.05326 -0.0549377 -1.12235e-20)
(1.05321 -0.0540498 -9.09518e-21)
(1.00826 9.88597e-05 2.16116e-24)
(1.00789 8.44673e-05 -6.99184e-24)
(1.00813 8.93498e-05 0)
(1.00404 -5.18099e-05 -3.78959e-22)
(1.00442 -2.1339e-05 -3.66307e-22)
(1.00516 2.93465e-05 -1.4863e-22)
(1.01343 -0.008999 -4.86279e-22)
(1.01406 -0.00926665 4.36057e-22)
(1.01217 -0.000881224 -7.61061e-22)
(1.01212 -0.000839601 -4.62882e-22)
(1.05755 -0.0525086 -9.02868e-22)
(1.05704 -0.0524239 1.08818e-21)
(1.05715 -0.0529855 -1.39281e-21)
(0.993325 -0.0571822 0)
(0.990945 -0.0618653 0)
(0.997213 -0.0609598 4.07553e-22)
(0.903567 -0.0466013 7.34018e-21)
(-0.0203096 -0.110325 0)
(-0.0275848 -0.104037 0)
(1.01558 -0.000488505 -2.61752e-24)
(1.01593 -0.00054731 -3.29759e-23)
(1.0159 -0.000671738 -1.0484e-22)
(1.05607 -0.0349831 5.27381e-21)
(1.05685 -0.0345362 3.67226e-21)
(1.056 -0.0339814 5.51428e-21)
(0.497142 -0.0028014 3.06861e-22)
(0.545508 -0.0132645 9.7144e-23)
(1.03762 -0.0154494 -3.10994e-21)
(1.03835 -0.0157192 4.69377e-21)
(1.0379 -0.0149795 -3.14071e-21)
(1.01484 -0.00200161 -3.01983e-22)
(1.01508 -0.00216452 -1.07914e-22)
(0.913302 0.136443 -1.25867e-22)
(0.927451 0.118687 -1.20305e-21)
(0.924828 0.135606 -1.42592e-21)
(1.01636 -0.00278335 7.62521e-22)
(1.01608 -0.00241044 -3.5409e-22)
(1.01212 -0.000900448 -4.48846e-23)
(1.01235 -0.000886925 2.04513e-22)
(1.01807 -0.00224917 0)
(1.01756 -0.0015127 -7.51303e-23)
(0.167201 -0.121707 4.64212e-21)
(0.241244 -0.11495 4.98833e-21)
(0.261192 -0.119933 -9.11819e-21)
(1.00298 -0.00011153 5.54499e-22)
(1.00534 -0.000162646 3.23492e-22)
(1.00254 -0.000138838 -7.04493e-22)
(1.01805 -0.0051388 0)
(1.01775 -0.00490555 -1.08153e-21)
(1.01784 -0.0051911 -2.00054e-21)
(1.0114 -0.0612683 -5.00786e-22)
(1.01094 -0.0579929 -3.7078e-22)
(1.01423 -0.0592066 9.54395e-22)
(1.02168 -0.00371711 -1.05341e-22)
(1.02151 -0.00391926 -5.61488e-22)
(0.424581 0.0571633 0)
(0.330075 0.0727143 -3.77682e-21)
(0.379918 0.0586216 0)
(1.04124 -0.0243608 0)
(1.04087 -0.0235128 0)
(1.04197 -0.0237395 0)
(0.489702 -0.0225382 -7.47504e-21)
(0.469257 -0.0188663 1.9723e-20)
(0.487658 -0.0227035 9.57571e-21)
(1.01075 0.000316059 0)
(1.01103 0.000338208 0)
(1.01094 0.000337435 4.5229e-23)
(0.760409 -0.0532172 4.11417e-21)
(0.720349 -0.0509739 -1.53283e-20)
(0.731853 -0.0512121 4.29227e-21)
(1.01853 -0.0109389 2.83166e-22)
(1.01822 -0.0107368 -2.9455e-22)
(0.888255 0.138747 -2.24469e-21)
(0.891646 0.127865 -3.07547e-21)
(0.882 0.117535 2.41513e-22)
(1.00946 0.000228661 2.1663e-23)
(1.00937 0.000226852 1.56177e-23)
(1.00922 0.000207047 5.18027e-23)
(1.01244 0.000397575 8.60678e-23)
(1.01262 0.000408045 8.42759e-23)
(1.01223 0.000379089 -2.00783e-24)
(0.966822 -0.0506313 0)
(0.966474 -0.0635491 2.83709e-22)
(0.980003 -0.0573874 -7.39588e-23)
(1.03655 -0.030252 3.60043e-21)
(1.03252 -0.0308563 4.03964e-22)
(1.03286 -0.0270671 7.3077e-22)
(-0.062006 -0.109837 -1.11077e-20)
(-0.0528657 -0.117866 3.12234e-22)
(1.01968 -0.00132005 1.48922e-21)
(1.01956 -0.00115304 0)
(1.01945 -0.00126988 0)
(0.493509 -0.0227694 1.87169e-21)
(0.512184 -0.0261949 -9.13092e-21)
(1.04072 -0.0248235 -6.50204e-22)
(1.04158 -0.0249633 7.24542e-23)
(1.0346 -0.00897568 1.38554e-21)
(1.03478 -0.00841386 0)
(0.782591 -0.06458 -8.89142e-21)
(0.754675 -0.0641974 -1.11538e-21)
(0.753814 -0.0627961 1.15754e-20)
(1.06078 -0.0572592 -1.60005e-21)
(1.05989 -0.0576146 0)
(1.06071 -0.0583964 0)
(0.659167 -0.0444294 3.36355e-22)
(0.628861 -0.0419351 1.03981e-21)
(0.628742 -0.0426361 1.17018e-21)
(1.00369 -4.19744e-06 -2.28204e-22)
(1.00371 -1.34251e-05 8.91191e-23)
(1.00238 1.43123e-05 3.85031e-22)
(1.05042 -0.0305113 4.12315e-21)
(1.05126 -0.0312672 4.84074e-21)
(1.05017 -0.0315264 -3.7118e-21)
(1.00383 2.78409e-05 5.16239e-23)
(1.00286 -4.69543e-06 4.40111e-23)
(-0.0597722 -0.0910883 -5.68079e-21)
(-0.0626031 -0.0838895 5.82416e-21)
(-0.0539407 -0.0878759 1.30116e-20)
(1.00957 0.000229636 2.99094e-23)
(1.00973 0.000249645 3.20559e-23)
(1.04328 -0.0469366 -5.38886e-21)
(1.04347 -0.045619 2.37022e-23)
(1.06778 0.0247626 0)
(1.06158 0.0321623 -1.1141e-21)
(1.03683 0.0427577 2.98707e-22)
(1.00791 -0.000148291 -1.20806e-22)
(1.00795 -0.000143154 -1.44925e-22)
(1.01526 -0.00037435 3.26276e-23)
(1.07037 -0.0464401 1.70002e-20)
(1.06947 -0.0468357 -2.41235e-23)
(1.06953 -0.0458177 1.73935e-20)
(1.02546 -0.0118297 -9.34615e-22)
(1.02454 -0.0131883 7.18562e-22)
(1.02631 -0.0135266 -2.38542e-22)
(0.510102 0.0466974 3.79605e-21)
(0.462157 0.057903 0)
(0.93901 0.0566716 2.98224e-21)
(0.952725 0.0472059 -3.53674e-21)
(1.01266 0.000415401 -6.881e-23)
(1.01306 0.000457484 -7.04511e-24)
(1.01823 -0.00510318 0)
(1.01831 -0.00535602 0)
(1.06056 0.0206205 6.91315e-22)
(1.06648 0.0255816 0)
(1.02013 -0.0860642 -4.37859e-22)
(1.03358 -0.0731657 1.69311e-21)
(1.0284 -0.0760523 3.18769e-21)
(1.01539 0.00106229 3.64626e-24)
(1.01499 0.000920817 1.33269e-23)
(1.01523 0.000996432 -3.30572e-23)
(1.01219 -0.0644533 6.24276e-22)
(1.00859 -0.063383 -3.38075e-22)
(1.00592 5.00264e-05 1.81676e-23)
(1.00575 4.83196e-05 3.19861e-24)
(0.593967 -0.0384944 -1.20312e-20)
(0.568769 -0.035455 6.25108e-21)
(0.589106 -0.0377956 1.72407e-20)
(1.06117 -0.0438595 2.63541e-21)
(1.0619 -0.0445394 -4.69282e-21)
(0.894477 0.161298 1.23634e-21)
(0.894156 0.165255 -6.40052e-22)
(0.897098 0.163687 -6.8408e-22)
(1.03088 -0.0190369 -2.76022e-21)
(1.03028 -0.0190996 3.49037e-22)
(1.03039 -0.0183996 2.163e-22)
(1.03264 -0.0260202 1.27769e-21)
(1.03279 -0.0250769 -4.24666e-21)
(1.03189 -0.0253853 -4.76824e-21)
(1.0214 0.00616455 3.01865e-22)
(1.02004 0.00774959 -2.2508e-22)
(1.01971 0.00505352 -3.32823e-22)
(1.00694 -0.0915765 0)
(1.0119 -0.096816 0)
(1.02881 -0.0116533 -1.75372e-21)
(1.02909 -0.0120843 -7.91807e-21)
(1.02849 -0.0118812 -1.11412e-21)
(1.03138 -0.0196026 1.82126e-21)
(1.0692 -0.0412626 0)
(1.06999 -0.0418435 -2.67454e-21)
(1.06881 -0.0421383 -5.15057e-22)
(0.957572 -0.0660328 1.64448e-21)
(0.960952 -0.0779918 -2.89622e-21)
(0.969233 -0.0689603 1.14602e-21)
(0.990008 -0.0526986 2.24577e-21)
(0.995328 -0.0525629 -1.01683e-21)
(1.00711 -0.0610502 -7.36944e-21)
(1.0438 -0.0614105 -6.27717e-21)
(0.47723 -0.0158503 1.53478e-20)
(0.388817 -0.00185786 1.52956e-20)
(0.36045 -0.00559155 -2.14816e-21)
(1.02243 -0.00117876 5.02535e-21)
(1.02208 -0.00101254 -4.79658e-22)
(1.0221 -0.0012525 2.13141e-22)
(1.01227 0.000384405 -5.59952e-23)
(1.02116 -0.0182918 2.18846e-23)
(1.02074 -0.0185022 -1.13316e-23)
(1.02062 -0.0179061 1.81415e-23)
(0.812996 0.160804 5.55053e-21)
(0.826959 0.146155 -4.17022e-21)
(0.794032 0.155613 2.25153e-22)
(1.01451 1.37698e-05 -1.42933e-22)
(1.01421 8.30826e-05 0)
(1.01455 1.26074e-05 0)
(1.01556 -0.0637798 7.63436e-21)
(1.01888 -0.0612165 -1.82447e-21)
(0.978711 -0.0637952 1.91358e-23)
(1.03745 -0.0160659 -2.11555e-22)
(1.037 -0.0153331 -1.75829e-22)
(1.02911 -0.0114147 5.11209e-24)
(1.02852 -0.0112054 3.97855e-21)
(1.04976 -0.0268292 -8.5124e-21)
(1.04879 -0.0269199 -1.20252e-20)
(0.812668 -0.0672746 -9.61943e-21)
(0.810881 -0.065577 -1.17265e-21)
(1.00659 -0.00684003 0)
(1.00928 -0.00561889 0)
(1.00879 -0.00911886 0)
(1.02342 0.00692339 6.66613e-22)
(1.02199 0.00463645 1.43552e-21)
(1.03884 -0.0165233 3.9353e-21)
(0.942764 0.0942855 -1.12038e-21)
(0.967725 0.0821282 -3.50085e-22)
(0.920206 0.0950144 1.45228e-21)
(1.05597 -0.0420453 7.74621e-21)
(1.05691 -0.0417495 5.31693e-22)
(1.02713 -0.0340378 -1.50544e-21)
(1.02809 -0.0332031 9.37486e-22)
(1.00941 -0.00113715 5.61128e-23)
(1.00937 -0.00109517 -1.98265e-22)
(0.906716 0.107814 -1.45374e-21)
(0.904441 0.103626 1.76044e-22)
(1.00175 0.00101107 -3.1638e-22)
(0.998815 -0.00207404 -3.13051e-22)
(1.00359 -0.00290356 -3.23787e-21)
(0.671485 -0.0467203 1.88137e-20)
(0.639385 -0.0435297 -9.15571e-21)
(0.637925 -0.0449571 -1.90825e-21)
(0.963362 -0.086151 0)
(0.948181 -0.0925009 0)
(1.01575 0.00122065 0)
(1.01553 0.00109458 -7.59758e-24)
(1.01037 0.000266385 8.50986e-24)
(1.01057 0.00029795 8.17314e-24)
(1.01064 0.000293231 -1.62698e-23)
(1.00434 7.34098e-06 4.27135e-24)
(1.00456 2.45771e-05 1.19409e-24)
(1.00534 6.79145e-05 -1.84962e-23)
(1.06959 -0.0405302 0)
(1.06859 -0.0407675 0)
(0.802386 0.178932 -8.49497e-22)
(0.827662 0.161133 -8.51412e-22)
(0.893229 -0.141892 -2.44432e-21)
(0.911121 -0.149665 5.00038e-22)
(0.89721 -0.160329 5.30025e-21)
(1.01107 -0.000852177 1.01197e-22)
(1.01129 -0.000842868 1.04876e-22)
(1.01129 -0.000898003 -5.0082e-23)
(1.02012 -8.38276e-05 6.20743e-22)
(1.02016 -0.000216064 -3.05799e-21)
(1.02032 -0.000109955 -2.83147e-21)
(0.917412 0.107689 8.07747e-22)
(0.968395 0.0867682 3.15962e-21)
(0.925809 0.101326 0)
(0.921398 0.102225 -4.08966e-23)
(0.934187 0.097778 9.02889e-23)
(1.05467 -0.0543461 6.80013e-22)
(1.05481 -0.0552583 5.74655e-21)
(1.02391 -0.0170012 -8.54247e-22)
(1.02423 -0.0173929 -3.91762e-21)
(1.03165 -0.0049984 5.05184e-21)
(1.03104 -0.00507556 0)
(1.05931 -0.035445 -6.82577e-21)
(1.05845 -0.0357874 2.14294e-21)
(1.0593 -0.0365229 2.68795e-21)
(0.919158 0.0979976 0)
(0.928916 0.0940098 -7.63833e-23)
(1.03759 -0.0654903 4.20879e-21)
(1.00993 -0.0668099 -4.23797e-21)
(1.02438 -0.0229825 -8.58032e-22)
(1.02462 -0.0226887 -1.91372e-22)
(1.02488 -0.0232774 2.10169e-21)
(0.614384 -0.130253 -3.15521e-22)
(0.675762 -0.129349 -2.9845e-21)
(1.00963 -0.00124223 6.56566e-23)
(1.00966 -0.00128537 4.60833e-23)
(1.00952 -0.00120185 0)
(0.600036 -0.0388946 -1.30663e-20)
(0.622102 -0.0411847 -1.3611e-20)
(1.05523 -0.0241726 -3.81896e-21)
(1.05613 -0.0239767 -6.40109e-21)
(1.03765 -0.0232754 -5.0082e-23)
(1.03755 -0.0240148 1.96328e-21)
(0.68495 -0.0486571 -2.48113e-23)
(0.646836 -0.0468345 -9.69478e-22)
(0.657773 -0.0467065 1.32873e-20)
(1.01994 -0.00977158 1.79258e-21)
(1.01974 -0.00982327 1.77492e-21)
(1.02009 -0.0100519 2.23545e-22)
(1.04492 0.00306947 2.69352e-22)
(1.0543 0.0031496 -1.83739e-22)
(0.668058 -0.046763 -5.62672e-21)
(0.667992 -0.0459988 -9.32082e-21)
(0.695336 -0.0492929 -1.23688e-20)
(1.01088 -0.000813077 1.29018e-23)
(1.01087 -0.000867857 2.66468e-23)
(1.06595 -0.0376746 -1.48136e-20)
(1.06682 -0.0382668 1.80892e-20)
(1.06574 -0.0387275 -1.18775e-20)
(1.04794 -0.0284264 1.59607e-21)
(1.04883 -0.0291925 0)
(1.02397 -0.0166437 0)
(1.02358 -0.0165696 0)
(0.0676086 0.122904 0)
(0.0494768 0.11427 5.56254e-21)
(1.02386 -0.022901 -8.90381e-22)
(1.0242 -0.0235874 -8.21789e-22)
(1.02708 -0.0115613 -1.32118e-21)
(1.02744 -0.0115189 -1.81681e-21)
(1.02749 -0.0119815 -6.08651e-21)
(0.740001 -0.071063 -6.63243e-21)
(0.734129 -0.0680419 -1.8645e-21)
(0.709466 -0.0684937 -9.03479e-21)
(1.01026 0.000277905 7.11267e-23)
(1.01041 0.000280721 4.9626e-23)
(1.01014 0.000262642 0)
(1.03268 -0.0267321 5.33103e-21)
(1.03341 -0.026363 4.88636e-21)
(1.0189 -0.00263325 -1.15947e-23)
(1.02001 -0.00290479 -1.17961e-21)
(1.01905 -0.00195555 8.32161e-22)
(0.709407 -0.0498573 7.15018e-21)
(0.710771 -0.0497163 8.27725e-21)
(1.08071 -0.0535356 1.84482e-21)
(1.0813 -0.0540173 -7.76194e-21)
(1.08133 -0.0532238 -1.26504e-21)
(1.01991 -0.0013568 -1.43181e-22)
(1.01981 -0.00148612 3.67743e-21)
(1.06555 -0.0427531 0)
(1.06522 -0.0436454 0)
(1.06463 -0.0427744 6.55362e-22)
(1.02014 -0.000827592 1.97403e-21)
(1.02016 -0.000960377 3.95237e-21)
(1.02037 -0.000865126 -3.52555e-22)
(0.505896 -0.0305628 4.0152e-20)
(0.504986 -0.0217616 -4.69352e-21)
(1.01891 0.00943903 0)
(1.02051 0.0121595 -3.40879e-22)
(1.01725 0.0119409 3.98407e-22)
(1.00412 -2.87382e-05 -5.14953e-23)
(1.00451 -5.50851e-06 0)
(1.00524 4.34642e-05 0)
(1.01323 -0.00324532 1.60036e-23)
(1.01336 -0.00336299 0)
(1.0132 -0.00331078 -2.2879e-23)
(1.07992 -0.0537685 -6.61192e-21)
(1.08005 -0.0528953 2.12302e-21)
(1.04969 -0.0297981 -2.0598e-21)
(1.05067 -0.0296524 -2.17404e-21)
(1.04051 -0.0145403 4.30068e-21)
(1.04052 -0.015175 -2.84508e-21)
(1.03989 -0.014757 6.69405e-21)
(1.01998 -7.21377e-05 3.67019e-21)
(1.02013 -0.0097252 -1.19051e-21)
(1.01979 -0.00952411 -5.16322e-22)
(1.02666 -0.0117011 2.52151e-21)
(1.02659 -0.0112006 -1.50051e-21)
(0.936839 -0.112767 -4.27094e-22)
(0.949168 -0.104986 0)
(0.333775 0.116109 2.2706e-20)
(0.319676 0.084362 1.08943e-20)
(0.486524 -0.0981728 3.75652e-22)
(0.513802 -0.0901343 -1.72474e-21)
(0.480825 -0.0925011 -9.19846e-21)
(1.01952 -0.0212443 0)
(1.02052 -0.0219018 3.19473e-22)
(1.01946 -0.0225173 0)
(0.726783 -0.0505992 -2.03232e-20)
(0.71692 -0.0502393 2.58173e-22)
(0.833662 -0.0186772 1.8665e-21)
(0.794066 -0.0152047 0)
(0.795425 -0.0107798 -5.33389e-22)
(1.01932 -0.000616136 1.09902e-21)
(1.05605 -0.035951 1.38604e-20)
(1.05527 -0.0353571 -6.67756e-21)
(1.05476 -0.0535434 -1.06356e-20)
(1.05364 -0.0539924 -1.28034e-20)
(1.0049 -0.0155047 1.30584e-21)
(1.00617 -0.0186182 -2.62204e-21)
(1.00777 -0.0153081 -8.18394e-22)
(1.03382 -0.00468215 -1.01421e-21)
(1.03384 -0.00803071 1.73715e-21)
(1.03085 -0.00591959 -6.49122e-22)
(1.06844 -0.0571745 7.69319e-21)
(1.06784 -0.0564572 -6.78871e-22)
(1.06873 -0.0563639 -6.90483e-21)
(1.0529 -0.0621019 -4.85069e-21)
(1.01161 -0.00145082 3.2388e-22)
(1.01235 -0.000847064 0)
(1.01245 -0.00195499 0)
(0.810024 0.192042 -8.55567e-22)
(0.802162 0.194258 -6.28425e-22)
(0.810862 0.195409 -2.37974e-21)
(0.665727 -0.044881 8.22761e-23)
(0.636661 -0.041897 1.26796e-21)
(0.642478 -0.0425578 1.33154e-21)
(1.01918 -0.000393385 1.08476e-21)
(1.01945 -0.000429104 -2.00997e-22)
(1.04281 0.00557198 2.51709e-21)
(1.03943 0.00566213 4.55136e-22)
(1.04082 0.0122912 3.69635e-22)
(1.04404 0.00184123 3.67428e-21)
(1.0415 -0.000609699 -5.38081e-22)
(1.06724 -0.0637493 -5.19993e-22)
(1.07441 -0.0626691 -2.90779e-21)
(1.06415 -0.0586388 1.15213e-20)
(1.04055 -0.0139891 -2.06412e-21)
(1.0412 -0.0144515 -5.62101e-21)
(1.03434 -0.000905385 -2.26144e-21)
(1.03804 -0.00381925 7.80473e-22)
(-0.0555823 -0.0981616 -2.33164e-20)
(-0.0645946 -0.0947143 -1.35167e-20)
(1.01245 -0.00316234 -1.65655e-22)
(1.01243 -0.00308522 -1.18625e-22)
(0.824843 0.185934 2.68098e-21)
(0.808138 0.18591 -2.29978e-22)
(1.01313 -0.00310017 -6.50845e-23)
(1.01328 -0.00315862 1.11005e-24)
(1.02011 -0.000711497 -5.41463e-21)