/*--------------------------------*- C++ -*----------------------------------*\
| =========                 |                                                 |
| \\      /  F ield         | OpenFOAM: The Open Source CFD Toolbox           |
|  \\    /   O peration     | Version:  v2012                                 |
|   \\  /    A nd           | Website:  www.openfoam.com                      |
|    \\/     M anipulation  |                                                 |
\*---------------------------------------------------------------------------*/
FoamFile
{
    version     2.0;
    format      ascii;
    class       volScalarField;
    location    "500";
    object      omega_0;
}
// * * * * * * * * * * * * * * * * * * * * * * * * * * * * * * * * * * * * * //

dimensions      [0 0 -1 0 0 0 0];


internalField   nonuniform List<scalar> 
13851
(
0.139459
0.0244443
0.0243168
4.74158
0.0220828
0.0264773
0.0242927
0.0218537
3.69416
0.0220438
0.0696725
0.0220813
0.0221219
5.25038
0.0380008
0.14373
7.54864
0.0219689
0.366985
0.13957
0.0431821
0.026449
23.0597
0.0222638
7.91027
0.0683801
0.421735
5.27458
3.50182
0.021779
4.45709
0.0242986
0.137736
4.56744
0.0462988
3.48391
0.022274
10.4725
4.43074
0.0221052
4.37437
3.62201
19.14
0.704814
3.82148
0.0219015
0.0215905
0.138354
0.0235996
0.0221151
7.7329
0.0221736
0.143511
0.0313406
5.36997
0.0221033
0.139608
4.24473
0.533076
6.06822
0.0220888
0.230235
0.022097
0.0237452
0.238549
0.255359
8.28396
0.0682944
0.0221569
4.45104
4.14935
0.0521236
0.022034
7.35524
0.0331571
0.0238637
6.115
0.0216812
7.49742
0.0219589
0.022175
0.425449
0.0455388
5.06641
5.80219
4.30582
0.0266582
6.88596
0.0220341
4.48064
0.0222107
0.0243986
23.906
4.20951
4.10727
0.408591
0.0219312
0.148015
7.39301
0.2042
0.153297
0.0437189
0.0472891
0.0220815
0.021889
0.0503307
0.0218905
4.18262
0.0243962
0.0219413
0.0315383
0.0219
0.182391
0.0668635
0.135547
0.0304507
0.0217844
0.0218102
4.91827
4.6355
0.253215
0.0218346
0.0221413
3.86267
0.278939
0.128161
0.0219299
0.0598942
4.14354
0.0486537
0.0263765
0.0325283
7.84758
4.47441
0.0711884
4.10862
0.0658507
4.23735
0.0363418
0.0481475
0.393959
0.0226566
0.0220339
0.112078
7.09541
0.0235936
0.021674
4.22989
3.51604
0.0625652
0.152491
0.174714
0.0718244
0.281104
0.0222823
0.0220557
0.0221033
4.27151
0.0443692
0.0236644
0.022243
3.4939
0.0494359
0.13864
5.0886
3.90154
3.97741
6.33925
0.0310875
6.10133
0.022104
0.0217876
0.0619745
0.0221393
4.19613
0.444717
0.165982
0.0217742
0.0331018
0.162233
0.269105
0.656618
0.0302247
0.0481882
20.8661
3.49054
0.137511
0.0296486
0.0222146
0.0218341
6.79823
0.0443193
7.1264
0.0265564
0.0234426
0.145748
0.133632
0.0221729
0.0222384
0.0726921
0.400942
4.14925
4.25437
0.0380705
3.01139
4.06419
0.0237134
0.0472734
3.73934
0.0258339
0.142628
0.0221245
0.419411
0.0222351
0.0473178
0.024666
0.022094
0.234845
0.022243
3.83075
0.0217721
0.13994
6.32818
4.13935
0.0293014
0.0478402
0.0222641
0.0969351
0.022016
0.0465622
6.85839
0.0291751
0.025819
0.0221178
4.16789
0.0217737
18.6154
4.21174
0.176721
0.0222513
1.50443
5.47423
3.90594
0.141578
0.0341774
0.149787
0.212324
0.0331976
0.380364
0.0335531
6.21798
0.146842
0.0218538
0.0263344
0.149516
3.43753
4.66192
0.0218303
0.134739
0.0220312
0.197921
0.276644
0.0267403
0.0500553
0.15032
0.0219921
0.0454817
0.117159
4.35323
0.0220833
0.0220911
0.0293875
4.18012
6.61645
0.0482959
0.0218541
0.268501
0.27816
0.121374
0.0494043
4.06806
7.73299
0.0272409
0.0345159
10.9004
0.0218799
0.0221027
0.124565
0.060503
0.0217715
0.0222323
0.0220079
0.0220011
0.0339283
0.0220961
3.75313
0.0453838
0.0219957
3.41774
3.91046
0.0221992
0.141309
7.91034
0.0227863
0.0222234
0.0474915
5.66501
6.76514
0.068048
0.022073
6.06507
0.0220963
0.0742524
6.2515
4.26706
0.0235546
10.6182
2.68546
4.22743
0.172505
0.0461262
4.26227
3.85983
5.08377
0.0223141
5.35715
22.4242
0.833984
0.761436
0.0237307
0.0675647
0.0299894
6.16172
0.0498997
0.0218765
0.0215298
0.0280802
4.15127
3.2385
0.0218714
4.07806
0.0302477
0.0328365
0.0238114
7.06423
0.265307
0.146398
0.0243869
0.0252709
3.40711
0.0222248
0.293105
0.0271222
0.0474203
0.0306512
0.0220303
0.0219931
0.1732
0.225762
0.146734
5.1425
3.46529
0.0236759
4.13053
0.251528
0.0217271
4.36293
0.0951459
6.13267
0.0274598
0.072416
0.229457
8.21287
0.165074
5.3067
0.0227374
0.542629
15.168
0.0311443
4.86824
0.034042
4.3593
0.0340166
0.0409125
0.147369
0.307264
0.0220562
0.0267685
0.0652791
0.0332987
0.0219228
0.0486778
5.23568
0.0220306
0.0474922
5.68
0.0243029
5.63756
0.0454533
7.20015
0.0264016
0.0643491
2.35101
0.285637
0.0495841
5.5799
7.29035
1.28095
0.021996
0.168109
0.0342823
0.0714815
0.0218488
20.2116
5.34918
8.07968
0.0252126
0.150329
0.24936
6.28269
0.0216091
6.98845
0.350837
23.301
0.0346298
5.99501
0.0220439
0.022127
6.5144
0.27349
0.0220419
0.0244908
0.0484071
0.0218215
5.4208
0.067805
0.0931925
0.0260121
0.0227533
0.0221911
7.249
0.0219937
0.0221696
4.05253
5.2759
0.0259248
0.240487
0.0221038
0.0220949
0.0246728
0.148814
0.0449231
0.0219326
0.0229956
0.237777
0.0234907
7.87935
0.0220764
0.0277625
3.8916
0.0360138
0.0215875
0.0221215
0.0259461
0.0223177
1.25209
4.13817
0.0344954
7.52629
0.0247162
0.0220575
4.06432
0.250599
0.0355959
0.0220503
3.83289
0.0348126
7.69313
0.0220833
0.0328091
0.170555
0.035275
3.93202
0.282958
7.86158
0.02389
0.178832
0.0219891
3.44527
0.0454202
0.133489
0.0340531
0.0241491
0.0359649
0.0624393
0.0220945
6.63568
3.97338
8.2778
5.86136
4.14485
4.72043
0.289255
0.0282626
0.0222079
9.69663
0.0220465
0.0219218
0.0303836
4.26197
0.0242136
0.0226547
0.0939446
0.0497857
0.0220486
7.40494
0.0219354
4.25393
1.13893
0.0219554
0.0235597
0.360078
4.58158
0.0217778
10.3296
14.9023
0.0217059
4.25822
0.355374
0.13952
0.0238604
4.043
6.1845
0.0217229
0.368471
0.0221465
0.0219361
3.70709
4.41296
0.0405111
0.044062
0.0220472
0.0581085
4.24337
4.21876
0.0218242
6.03461
0.0219291
0.0221645
0.0501099
0.0277205
0.0216028
0.0238801
4.31034
0.286035
4.18207
0.0238578
0.0220278
4.21917
0.0221798
0.169033
0.0277737
0.0332734
0.0340745
4.12735
6.27397
0.0263605
7.07351
0.023334
0.0678081
3.68662
4.26974
0.0221363
0.0219943
0.0475521
4.19737
0.244963
0.0571113
13.4879
0.0278562
0.0329955
8.92647
7.4663
0.172128
4.16193
0.190781
3.58672
0.0225262
0.564548
5.34475
0.0220785
18.246
6.23256
0.0310704
0.0481543
0.0220833
6.78768
0.0817142
16.2867
0.0219938
0.0221659
0.0266175
0.0491052
0.022086
4.16484
0.0221602
0.181947
0.0239517
0.073042
0.0220763
0.0220485
0.0479468
6.41038
0.049558
4.07206
0.032804
0.021831
0.0217845
0.0624958
0.0229922
0.106775
0.0246828
0.0350065
0.448993
0.0221816
5.56748
0.0222538
0.097641
6.08313
3.98896
0.0283865
16.7638
0.0908919
0.305035
6.06938
0.02189
7.24614
0.0302369
0.0322663
5.60108
4.26199
0.0217385
0.103702
0.0221493
3.47039
6.90286
0.0222554
0.0732216
5.5632
0.0222636
0.0222525
0.069106
6.8706
3.89103
0.0222304
0.148347
0.0232743
0.0220475
0.459114
0.150437
0.188967
0.0215905
0.117608
0.0472509
0.0599093
0.0226756
0.0232787
0.0765855
0.0264667
0.127769
0.0520207
0.0520762
0.140593
3.35632
0.364427
4.84515
10.1671
0.145037
4.11387
0.0406458
3.79239
0.143039
0.021928
0.0322967
0.306192
0.0273148
0.021961
0.0219571
0.0980535
5.97989
0.0279471
4.10231
0.0218349
3.99649
0.159282
8.45319
0.103382
0.026554
0.0243085
6.99519
0.187401
0.0390842
0.254713
0.0225983
7.62645
0.0986977
0.185758
0.0335688
0.601398
0.0220415
0.0222456
0.0234265
0.0220466
3.67839
0.0220009
0.388663
4.10157
0.106095
4.26235
6.58412
0.191303
0.330942
0.0286077
0.0221801
0.022075
0.0216897
0.0217847
0.0221414
0.068314
0.175572
0.0510715
4.86583
0.023201
3.69147
0.0222935
4.66329
0.042764
0.0222836
0.0221331
3.98666
0.0266629
4.17816
6.2299
0.046061
0.0697284
0.0216884
4.45326
0.0244917
0.0242509
0.515237
0.0221835
0.022664
0.0218763
0.0455649
5.63574
0.0299998
0.0338961
0.387764
4.12229
0.0292093
0.0270893
3.67621
0.0216868
3.60503
0.0222022
0.0235019
7.20547
0.0829656
0.134107
0.0984008
0.0498756
0.0222275
0.0222936
0.0732688
0.0225806
0.0222349
0.0284623
0.370276
0.021985
0.280178
4.10092
3.92971
0.0969091
5.06322
0.0368264
0.0221756
0.162162
0.0218481
0.02681
4.81074
3.44948
7.27934
3.81409
0.0223322
0.0222225
0.0717588
0.0231086
0.021852
23.4991
0.201737
4.67829
0.0989524
0.0845981
0.0220488
0.0217848
7.26682
0.0937915
0.0238293
0.022253
0.133853
0.207405
4.16494
0.0222674
0.0221521
6.87596
0.0226518
0.0340732
0.0218259
4.31365
0.0219268
5.47748
0.022075
0.157278
0.0404538
0.0723686
0.0338077
0.0220335
0.0245131
0.0220228
0.321244
0.0226661
3.80363
0.0226721
4.72063
4.1204
0.031894
0.0220042
5.01214
4.21883
0.026872
0.0824934
0.0220749
6.47209
0.0219497
0.307138
0.0220657
0.0220196
4.04606
0.0342665
0.0221115
0.0317396
4.13949
5.43985
5.54689
0.0218332
3.91178
0.0220763
0.0219922
0.0222813
0.0214953
0.0222338
5.69055
4.9254
0.0222531
0.0221563
0.040852
0.0219004
4.76843
0.166471
4.66215
4.32805
0.0244742
0.127813
0.0220714
0.0432231
0.12555
0.0218727
0.0222105
1.92392
6.79661
0.0683493
16.6162
0.0632314
0.0221012
0.0430204
0.0839031
7.54201
0.0326096
2.80495
0.0960406
0.0222241
14.0743
12.6301
4.3467
6.5154
3.64165
0.0238394
0.144775
0.022171
2.50878
0.0267653
0.0218784
5.54389
0.0230847
0.0220052
0.022136
0.0229313
4.19989
0.295983
0.021876
0.0436464
5.47656
0.0232625
16.1411
0.0232611
0.079843
4.34463
0.022099
0.229109
0.0302004
0.0334133
6.07378
0.0230702
0.404237
0.0634998
4.31669
0.0222239
4.39376
0.0308603
4.14782
7.85634
5.68614
0.045983
0.0220482
0.0223391
0.0222635
0.0389657
0.0221239
3.99489
0.0293583
0.0280649
0.0289377
0.0237749
0.0218307
0.0267603
0.0278608
0.0235633
0.0274561
5.63127
0.287134
0.0300244
0.052025
5.63869
0.0227055
4.17791
0.0216979
0.0335285
0.0226733
0.0219576
0.0461854
0.0220523
0.0218706
0.0458451
0.0220624
0.345611
0.0228185
19.1054
2.39035
0.221945
0.307101
0.0220959
4.1552
0.161966
0.0222265
0.0277507
0.0225678
4.29734
0.0232372
0.0451365
4.54106
6.42643
0.0872387
0.0221699
4.06757
3.7252
3.73281
0.0301
0.0218217
0.0218069
0.0682144
0.0220453
7.48585
0.174088
0.0221985
0.248657
0.357396
0.0218613
5.81446
6.09432
0.196367
0.0227842
4.05391
0.0679255
0.0220226
6.11334
0.026919
0.021847
0.0219476
0.0318615
0.0393825
3.87066
4.81963
0.0411819
3.97293
0.0337105
0.0220256
0.0853151
0.0219629
4.13957
0.0218427
0.0220469
0.0241243
0.0225396
4.11579
5.53885
0.25695
6.46479
6.97008
0.0292262
0.0220367
0.0228238
0.421655
0.021824
0.0219104
0.044871
7.61851
0.215825
0.0216496
0.0400703
0.0340742
0.141232
16.2192
0.0217016
0.0215908
0.023488
7.63073
0.0284286
4.22791
0.0232591
0.0221634
0.0218498
0.0219416
0.0246358
0.190828
3.64205
3.8853
0.0289311
0.0220579
5.4951
0.0223188
6.21635
4.85111
0.0307034
5.28438
3.61182
4.60865
0.053877
0.0323561
3.73981
0.0310466
0.0340373
0.0739316
0.312641
0.0225404
5.37446
0.0220276
4.69002
7.84795
0.021702
0.0239648
0.0470729
0.41391
0.0340455
0.022143
0.0279933
0.0232333
0.0257302
1.26392
0.0221634
4.26082
5.67154
0.0220312
0.0312729
0.039164
0.0220844
3.38917
15.0835
4.19968
3.39142
0.0220411
0.0247909
0.0268613
0.0222889
0.254818
0.0343803
0.0222567
0.0621892
0.0258885
4.8311
0.0405552
7.08986
0.0231362
0.0232851
0.0515094
0.0945848
0.0739112
0.0219943
16.8469
4.04
26.1702
4.38067
4.74789
3.88075
4.30307
0.0219973
0.0220287
0.0220126
0.244775
0.0443731
0.0736693
7.096
0.0221636
0.0216668
0.0220455
0.22887
0.0216639
0.0267165
0.0237766
4.10488
0.0229768
0.0218558
0.022088
0.0219871
0.022163
0.0345564
0.254025
0.0341738
5.4498
0.0220361
0.0219424
4.15294
4.29793
6.66266
3.90861
0.0487337
3.9243
0.0218171
0.0629002
0.0232876
0.0220805
0.024151
4.92278
0.0230329
0.0959248
7.93519
0.0222378
0.0219457
0.0264725
0.197203
0.022272
4.09278
0.0219961
0.237764
0.0221261
0.0222522
0.0269522
0.0998256
0.022131
0.516999
4.18396
0.199521
4.54441
0.0220445
6.29855
0.90821
0.0220511
8.04045
0.0222815
0.0426716
0.0222188
0.022093
0.0219631
0.0220464
0.0224626
0.0272939
0.0672769
0.0222336
0.0220974
0.0625384
0.0217163
8.16021
0.0221264
0.0324692
0.0334125
5.03715
4.13116
0.0221482
0.198786
0.0218206
0.0301753
0.0720614
3.75121
0.048125
0.0222724
0.11314
0.0776008
0.0840982
0.806108
0.0359629
0.154814
0.0572053
0.0678597
0.0229433
0.0218484
3.94485
5.41636
0.0247452
0.0220189
15.4754
0.0218382
0.042855
0.0219657
0.0859318
8.75047
0.0215376
6.13656
0.0263082
0.0221709
0.16236
0.0218789
0.0410395
3.31665
0.0408602
3.98867
0.0219581
0.0222649
0.0440711
0.0222265
0.0222466
0.0278282
0.0298995
0.0678788
0.0902177
0.0221056
0.040035
0.0218363
0.0220647
0.0222157
0.0220539
2.22092
0.0218756
0.0232985
0.240308
0.0218333
0.0220075
4.27151
0.0222499
18.4791
0.023197
4.41178
0.253606
0.0524866
5.7089
0.0683481
2.13288
0.0223963
0.21335
0.0273023
0.0218354
0.021906
0.0232768
0.031283
0.0219784
0.055751
0.0219085
0.0232683
16.8212
7.68187
4.57407
0.024094
0.0467362
5.01936
5.50598
0.0221739
0.0264077
2.13
0.0221784
0.0415898
5.89678
3.90063
0.0271197
0.0429608
0.0228231
0.381703
0.0222852
0.036201
5.80211
0.0221815
0.021869
8.31934
0.0450933
0.259424
4.63292
0.0989431
0.0224363
0.0219123
0.0222871
4.64029
4.33043
5.40427
0.0585727
0.0220477
4.51298
0.0221101
0.177869
0.0266515
0.0232657
0.0435244
0.0220602
6.05672
6.98514
0.0216637
0.0683914
0.045616
5.63259
0.0459296
0.0565007
0.258215
0.0334925
0.259544
0.0594397
0.0221127
0.0352166
0.0831622
4.13406
0.0220372
2.08343
0.0485408
0.059495
0.0222727
6.85772
0.0261449
0.0236731
0.0218614
0.040358
0.0391346
0.0571502
0.0221285
0.0227181
0.0588976
24.8756
0.0631695
0.0221581
0.0226455
0.0350697
0.249215
0.0221727
0.0938807
10.5101
0.0490487
4.15214
0.0388361
7.8623
0.394052
0.0219976
3.48235
0.0222385
0.0251349
0.0323782
0.0346348
0.10528
0.0458691
0.0439707
0.0460645
0.0315762
0.0242239
0.0216573
0.0862498
0.0254642
0.0289114
3.53451
0.0263657
0.0306528
0.0219541
4.84568
0.0865828
0.0221045
0.0246882
0.023289
5.83641
0.168537
0.0323532
3.82477
0.645024
1.33755
0.0963284
0.223135
0.0218984
0.317731
0.0218997
0.0269216
10.98
3.36846
0.414849
2.48593
0.0221221
7.10165
0.0218952
0.0818534
0.0253193
3.77364
5.59529
0.0257522
0.0220239
0.373577
0.0434699
0.0220235
4.18654
0.0220702
0.0237529
0.0254506
0.0222109
0.0312487
0.0233631
0.0220462
0.0353238
0.557017
0.0404341
0.0632586
0.0220195
6.49337
3.43022
0.0220055
0.239232
0.0252568
0.029288
5.2137
0.0220021
0.0227239
0.0280365
4.2204
0.0220332
0.0221831
0.0408527
3.6758
0.0219886
0.0323706
0.0346879
3.20643
0.0477046
0.0405731
0.243762
0.0220752
0.122836
0.021717
6.66234
0.030534
0.0220496
0.0268092
0.101535
0.022151
0.022154
0.145935
3.95106
0.0223054
5.97681
0.0221884
0.0217066
0.0663178
0.0220366
0.0218745
6.45935
0.0222738
0.0408011
0.158907
4.36889
2.11108
0.0218066
0.0240351
0.028149
0.0220759
0.0220452
0.0220971
3.38205
0.0221962
0.220182
0.119986
0.0218607
0.0217278
0.0304323
0.119956
0.237052
0.0567605
0.0642732
0.0239093
3.74746
0.081369
0.030029
0.0404097
0.0680404
0.0962978
17.1066
0.0374292
3.68234
4.71495
5.20998
0.0246386
0.021976
0.0390664
0.0342908
0.0218119
0.0223102
0.140654
0.0222437
0.0223266
0.0220532
0.0215925
0.0234472
0.022042
6.3842
0.0220209
9.29798
0.0220833
0.0911818
0.0225763
0.122235
0.0819922
0.0220524
4.90714
0.0239851
0.0222263
0.0396868
0.0218253
0.0310194
0.0219692
3.7676
0.0242807
0.0428732
0.10613
4.88221
0.0287142
0.260309
2.52178
0.0526538
0.0220934
0.0229568
0.115537
0.0662563
7.1611
0.0217762
4.7589
0.0221077
0.0914297
8.27393
0.0370418
3.65012
0.025401
0.0325866
0.0249475
6.753
0.031692
0.0221423
0.05021
0.14871
0.0234377
0.0220406
0.0221437
4.35721
0.0222526
0.0279462
4.35118
0.0262089
0.0219951
0.0584253
0.0251157
4.78331
0.0216665
0.022023
0.0218702
0.0260776
0.0223814
0.0221134
0.0633357
4.09346
0.0219792
0.0221032
5.31452
0.0221901
5.73745
0.0235468
6.4124
0.0218696
0.0244129
0.0218191
3.82551
4.58156
0.0307145
0.0732082
0.0269904
0.0219602
0.0221175
3.83776
0.0221371
0.0811879
0.0217934
0.0413024
0.0221907
5.45918
0.0218449
0.0442678
0.0218718
0.566592
1.18835
0.0218065
0.0454665
6.59189
0.0673568
4.05603
3.5818
0.269557
0.0234199
0.0343145
0.0978408
4.92913
0.0221245
0.0373503
0.0282143
0.0219942
3.98484
5.65917
0.0684796
0.160086
0.375751
0.0341238
4.24156
0.0218051
0.0218012
0.103685
7.44498
0.24282
0.170145
3.36249
0.0218183
6.94093
3.77769
9.02339
0.022203
5.34829
4.82866
1.27654
4.14152
3.72349
0.0841977
0.0308621
0.180985
0.0256648
0.021987
2.42215
0.0932092
0.0216409
4.85322
0.0221894
0.0295919
0.0426224
0.0268133
3.78774
0.0350655
6.01073
0.043451
0.0261623
4.62053
4.49544
0.14327
0.0223757
0.0258448
0.0742402
0.0603567
0.0218372
0.049023
0.0638791
0.153294
0.0219866
0.205915
0.0244331
0.0506886
4.2014
0.247731
0.0230864
0.142526
4.46949
0.0221802
0.0228326
8.2161
0.374553
0.024465
0.0247583
0.0220928
0.0772843
0.0252933
3.61967
0.105149
0.0225349
0.0222234
0.0661846
0.0300802
1.15384
6.42133
0.0218872
0.0220359
0.0280682
0.0221951
0.0242642
0.0229508
0.0227808
0.0258351
0.0219477
0.0249591
0.0221902
0.046373
4.64837
0.0222643
5.4564
10.7537
0.0217164
0.259717
0.142728
0.0906795
0.0227563
0.0926992
0.0271578
0.0818496
0.0298238
0.023305
0.0222095
7.03973
0.0275692
3.97831
0.0227363
0.0220392
0.0220251
0.0732423
0.0219733
0.050039
0.0598927
1.81487
0.0219251
0.312397
7.50671
3.96133
0.0218106
0.148802
1.05827
7.5789
4.73664
0.0225534
0.0222996
0.175417
3.05124
3.67365
0.0407353
0.230602
0.0222315
0.0218544
0.0409355
0.0221967
0.0221328
0.174172
0.0222655
0.0927171
0.0218596
4.51991
5.29586
4.82857
4.1855
4.10749
0.022131
0.0221464
6.48223
0.0217901
0.0218173
0.0217076
0.130315
4.56984
6.52229
0.0276816
0.0220781
0.0232116
0.037996
5.29817
0.022038
3.65341
4.61723
0.0221899
0.0221782
3.97492
0.0771229
0.0232004
0.0220433
5.59713
4.2603
0.022
0.203391
0.0222538
3.88363
3.48847
0.0233594
6.68194
6.56524
5.49303
0.0218446
0.0221238
0.0222453
0.0222862
4.38385
0.0219241
0.260371
0.223183
8.62112
0.0226885
0.0601905
0.561181
0.0497037
6.44333
4.16922
0.0216382
0.0256173
0.025802
0.137574
4.22337
0.0215793
5.40503
0.0326305
0.0424085
0.0227638
0.0219498
0.313922
0.0410647
4.76938
0.0221965
0.0568527
0.0225992
0.12386
0.024227
4.02154
4.40441
0.297659
0.092537
0.0219796
0.0239793
0.0862639
0.236666
4.13897
6.47474
0.0221499
3.8167
0.0946626
4.6625
0.0263384
0.0445323
0.0403433
0.0221036
5.53385
0.0220715
0.0327113
3.47808
4.4273
2.04411
4.4248
0.0286699
0.0491207
0.0217562
4.54152
0.0275634
6.91663
0.0217439
4.87618
0.0215444
0.0220055
0.0322693
0.0315366
0.0328539
0.0219928
3.69125
0.0429376
0.0219272
0.0385513
3.89111
0.671719
0.0220396
4.38138
0.0244862
0.0337838
0.0317257
0.021697
0.0650995
0.0219989
10.4945
0.0843176
0.0265651
0.0220315
0.406267
0.0403177
0.0217429
5.12168
4.78008
0.258692
0.0216483
2.76336
0.0221421
0.156227
0.0274224
0.126333
6.10388
3.84185
0.0347489
4.44453
0.0508714
0.028781
0.0218348
5.18703
0.120296
0.107512
0.0623588
0.0222435
3.75764
0.0904842
0.419925
0.243241
6.16676
3.64587
7.31437
4.84294
0.0292016
0.0318012
0.0220973
0.0220928
0.0215989
0.176377
0.0294532
0.0330751
4.42864
0.0219477
0.0218629
0.0405493
0.148921
0.0278708
0.0218209
4.19542
0.0243142
0.0457769
0.0222314
5.53012
0.0289159
5.66323
0.0573132
0.0342783
0.053868
0.0220903
7.80582
0.505927
0.0714083
0.0220598
0.0219123
6.63121
4.29465
3.42093
0.0218624
0.0726658
1.49243
0.0220624
0.0220097
0.0221091
4.46191
0.103792
0.0352069
0.0269041
0.0259679
4.75459
0.0931493
0.264352
0.0260967
0.032676
0.0215853
0.134287
0.0566109
0.0220202
3.79901
4.20746
4.04722
3.98096
4.55021
7.93133
6.40631
0.0231406
0.0218414
5.89147
4.89371
6.94768
0.0220869
0.0404229
0.0220482
0.0219756
3.42149
4.5322
0.0635417
0.0220066
0.360537
0.0944955
0.049459
4.20913
4.54412
0.245752
0.0219175
4.00018
3.11342
0.394248
0.0317884
0.0428727
0.0221796
0.0218828
0.039575
0.0462625
0.0245607
0.0399388
0.0278763
0.0251568
0.240712
4.03193
0.0318217
0.041715
4.00774
0.222395
0.0221117
0.478967
1.01915
4.71382
0.0419225
0.0221556
0.0296911
0.0271121
0.030427
0.0216953
0.0332082
0.0310333
0.0452335
0.261329
0.0222307
0.0230851
3.73142
3.89163
4.38145
0.568809
0.111015
0.0215278
0.0220467
0.0306228
0.0217483
6.36111
0.0220396
0.0222735
0.0217327
3.73947
19.6103
0.0224361
0.0621947
0.0286072
0.0358989
0.0303158
0.0352605
0.0402739
0.0381215
4.64596
0.026203
4.592
0.039874
4.37016
0.0296764
0.0219371
0.0218291
0.0951167
0.147595
0.0218307
0.0399641
0.0298834
0.0599557
4.11124
6.37853
4.60005
0.0222733
2.65437
0.0300596
0.0371715
0.0220322
0.070729
0.0238117
3.66188
2.18367
0.0404234
0.0220798
3.87291
0.0273265
4.18167
5.00659
0.240487
0.0244055
0.1338
4.65341
2.08016
3.71976
0.0609829
0.0219643
0.0404899
0.0218573
8.80215
0.0247676
0.032184
0.333587
4.32585
0.0219299
0.0219728
4.106
0.0424399
7.85019
0.0328514
0.0220443
0.0433706
0.219579
0.0437167
3.82271
0.0365545
1.53767
0.0252521
0.0222452
0.021958
0.303797
0.0226841
0.13533
0.0220514
0.0220272
0.283601
0.0260226
0.0221098
0.0220398
0.0359487
1.0826
0.0420074
0.0398054
0.0264801
0.0617585
0.022054
0.166088
0.0307803
0.0435194
0.0704536
0.0274733
0.0896556
0.0456356
0.0218378
0.0670152
6.15861
3.29234
0.0221174
2.85254
4.17712
0.0219768
0.0226793
0.895982
4.16377
0.0278969
4.07174
0.408759
0.0220285
0.0838186
0.021597
0.0260678
0.0621154
11.0709
0.553569
0.221412
0.424663
3.90078
3.84637
0.0232695
3.68347
0.0220387
3.17167
3.91807
0.0221014
0.0220836
3.44132
0.0221205
0.0220865
0.251016
4.39547
0.236647
0.0259996
4.06733
0.022104
4.02246
3.81133
0.0221904
1.04979
7.61774
4.37497
3.55803
3.72437
3.65595
0.0218877
0.0232238
0.0623108
0.0644879
0.0220807
0.224108
0.0220425
3.64051
0.244979
0.0498278
0.258395
3.58099
0.246625
0.250658
0.061038
7.5192
0.542244
0.0251677
0.0216401
3.46592
0.0351943
0.0217858
6.56099
0.0219866
3.64171
0.0221483
4.44119
0.0253179
0.0219889
20.8765
0.0275274
0.0357728
3.7079
6.5204
2.72439
0.0274402
0.0437011
0.0233708
0.0386688
0.127618
0.0396694
0.0222097
1.75174
0.0618302
0.0334855
3.98454
0.0408917
0.0375607
0.221136
0.0750023
0.0440074
0.0219846
0.211847
0.0218284
0.125851
0.358828
4.38094
0.0218782
0.0397806
4.48901
0.023218
0.0659648
0.0306419
0.0426627
5.85989
0.0611629
0.0234643
15.9171
0.0218884
3.85578
0.0221266
0.0229996
0.124227
3.4753
0.0330186
0.400515
0.637625
0.0309911
0.0222243
0.168332
0.0458459
4.35194
0.0265732
13.6888
0.144481
0.0308121
0.0296803
0.108079
0.0381406
0.0754851
0.0608038
0.0386272
0.0244085
0.0220779
2.92774
0.0220217
0.0290129
0.0216084
0.109392
0.0293761
0.0600456
3.88526
0.0230302
0.244926
0.0215173
0.0221609
0.0221897
0.0222069
0.026276
0.0219485
0.0853121
7.7557
0.0592451
0.0455597
0.0249138
0.0220616
0.246722
0.0220418
4.54912
5.03322
4.66657
0.146721
0.0356116
0.0269575
0.0221789
0.0299494
0.0986994
0.0434617
4.09109
0.0584573
4.69424
0.148605
0.0222104
0.0218471
3.34239
0.0219651
0.0298539
0.0650687
0.378346
0.0232443
4.25212
0.0221738
0.0260088
0.0220494
0.0226577
0.171513
0.106372
0.0222464
0.0319666
0.0356978
0.0460354
0.0569327
0.551279
0.379177
0.294709
0.133073
0.025789
0.0230259
0.0559883
3.45764
6.3306
3.90427
0.0315803
5.89552
0.103794
0.0227839
0.0219995
0.0604864
0.0221454
0.0317725
5.39361
0.0219741
0.0218234
0.625754
3.43793
0.0460926
1.79803
0.0221223
5.42254
0.0430204
4.42206
0.0296194
0.0220514
4.04188
0.0603582
0.0220379
0.0745385
0.0222532
0.168583
0.029341
0.056015
6.70385
0.0337951
5.29045
0.0219401
4.78421
0.0221365
0.0263153
0.0225267
0.0472358
0.0221442
0.0566768
3.79863
1.11872
0.0499078
0.0325253
0.0788793
0.0219215
0.0219727
0.0230195
3.0731
0.0253093
4.57126
4.55144
0.148755
0.0222162
0.15418
0.242462
0.152236
0.0256007
4.72089
0.021988
0.0215333
0.0219724
7.29608
0.0220972
0.0220251
3.90503
0.0219833
0.171925
0.102485
0.0217978
4.13764
0.0276674
4.4035
0.0219473
3.83098
0.02288
0.0720739
8.99563
0.0657953
0.0219552
0.0269686
4.70672
0.0316485
0.158005
0.031243
0.0266055
0.150681
0.0293679
0.0221891
22.5822
0.029737
0.0278454
0.142157
0.0219818
0.0218746
0.0221892
0.0303155
0.0221388
0.0260355
5.3742
12.6216
0.104308
7.18773
0.0600018
0.0336534
4.40846
4.41487
0.0224555
8.89097
9.18196
3.8444
3.25134
0.0314455
4.68245
4.02893
17.1609
3.45315
6.12873
0.0432784
0.0850528
0.0296191
0.0258075
0.0221794
1.60548
0.0222852
4.73164
0.127614
0.356735
0.0216006
0.0736063
0.0464511
0.0235895
0.0222931
0.0221187
0.125825
0.0235234
0.0222465
0.0397237
4.14229
0.0242844
0.165657
0.0218354
0.12815
0.0849813
0.0221734
0.0269195
0.0219511
4.46983
4.38152
0.166733
10.1446
0.0336088
0.088389
0.0221324
0.0408031
0.0220664
0.0223404
0.0222338
4.86534
0.0217894
0.0445989
0.825765
0.0281627
0.0310289
0.0220043
4.59926
0.207667
13.2257
4.41074
0.176894
0.340225
4.24531
0.377786
0.302708
8.28249
0.128137
0.0342318
4.43831
4.6397
0.0220466
5.05178
0.160553
5.32365
0.0216185
0.0625573
4.72165
0.0222733
4.58905
0.0253944
6.56286
0.0220926
0.0221024
0.069074
0.232689
0.0264946
0.06515
0.021811
0.0221545
3.61118
5.5817
6.46515
0.0529021
0.0221713
0.0224492
0.0221371
0.0365027
1.18547
4.40039
4.53271
4.8593
0.0326245
0.021955
0.0219846
5.87317
6.11254
0.314225
0.026454
0.0248918
0.0848353
4.70262
5.9289
0.0215263
0.0219664
4.87664
0.0230922
0.26555
0.0280372
0.0220838
0.0327879
0.0469142
4.58095
4.46074
0.0222023
0.0218235
0.0249211
0.206792
4.77552
0.0222653
0.138094
4.26628
0.021535
3.34521
4.11262
11.6448
0.022111
5.30101
4.75162
0.0393939
0.327341
0.0244947
0.313168
0.377041
0.0256137
0.0219541
6.22909
2.38269
0.0218735
0.143617
0.148375
0.0300676
0.286331
4.4174
5.24964
4.66339
0.0279219
0.0235642
0.0231215
4.21265
4.90218
4.64893
5.87517
4.57386
0.0217376
0.0442288
0.0220684
0.0221161
0.0249171
0.0219725
0.0220608
0.0221743
4.36575
13.0408
6.73481
0.0575312
0.201379
0.0360418
0.0218694
0.0219882
4.4073
0.0221402
5.84688
3.83173
0.02218
0.0219141
3.53442
0.0225802
0.585275
0.0260071
0.0217576
0.0217341
4.35426
0.0216899
4.15949
4.17043
0.021578
0.0471537
0.021934
0.0229776
0.0218923
0.118483
4.19376
0.0219754
4.62103
0.489563
0.0240777
0.0219064
0.0226758
0.023661
0.022227
0.589428
5.26197
5.66971
0.0400469
6.2954
0.0222728
0.0259507
0.0221721
0.182731
0.0234085
4.88547
0.021866
3.92337
0.310233
5.51109
0.158793
0.0218618
0.0442041
0.0219325
4.16883
0.021967
0.0288017
0.0266744
0.0257526
0.0221659
0.0222512
0.0326786
4.68572
0.0221936
0.0228907
0.0240684
0.0338115
0.179105
0.0221891
5.01646
3.78393
0.0239829
4.69935
4.50657
3.70784
6.22253
0.0215451
0.0230998
3.97414
4.16613
0.145726
3.97683
4.37931
0.0329464
0.0497464
0.0309707
4.25354
0.0220383
0.0219673
5.51789
0.129455
4.72532
0.0248987
0.0217179
0.0220476
4.91522
0.0722082
0.0238099
0.242683
0.021855
0.0618964
0.0307694
0.0310553
0.0219986
0.0221898
0.021927
0.0248592
1.43078
5.13843
0.0215866
0.0219309
4.24248
0.0220843
0.064471
0.0259746
0.0255403
0.0380408
0.0222858
4.16361
0.030063
0.0252409
19.7805
0.0868053
0.0232825
0.0324995
0.0220348
0.0225153
6.59904
0.291839
3.41995
0.0223234
0.0221555
0.0619816
0.0271934
0.0220331
0.039007
4.14558
0.026022
0.0418481
0.0254352
0.123369
0.0221164
0.0217298
4.59295
5.31262
5.2178
0.0219828
0.158986
0.0216299
0.0220251
0.0689762
4.48604
0.0690829
0.0285558
0.162449
0.0228619
0.0300133
0.0510693
0.778513
0.0223411
0.0216485
0.0225685
0.0239728
0.0271524
0.0219666
1.32177
9.75994
0.0221385
0.0322132
0.0224144
0.021677
3.66125
5.80938
5.51636
0.0779824
0.0223825
0.0574407
4.53677
0.103059
0.0999584
0.0341055
0.0299117
4.95474
0.228501
0.832476
0.0217693
0.030641
0.022116
0.0309077
6.64115
0.0216321
0.0409444
0.0254393
0.0302067
0.0230898
0.0218251
0.0218832
4.15526
0.0468897
0.0309933
0.0684961
0.0351258
6.63873
0.0313965
0.497676
0.021935
4.575
4.82959
6.74094
0.0222646
0.0323583
0.0220852
0.0219771
5.47513
0.0470914
4.59275
0.0219998
0.0452539
0.138258
4.41161
0.0280824
0.0216687
6.57549
0.0222853
0.0222841
0.0226212
0.0220377
5.81736
0.0218376
0.0218864
0.0365671
0.0273049
0.146206
0.134316
0.0332212
4.27006
0.0220146
0.181976
0.0218156
4.4916
0.0343701
0.501477
0.150435
2.85036
0.111332
4.39984
0.0231907
6.10872
0.0326261
4.75237
0.205526
0.0279512
0.23034
0.0221695
6.77768
0.0232267
0.038427
0.027195
7.41733
0.149079
4.1375
0.0310887
0.0220224
4.71924
0.249259
0.0566244
0.152659
8.20089
4.59469
0.0394402
0.286447
0.0433518
0.0218908
0.0489417
0.271633
0.0699399
26.1806
0.124766
0.0218036
0.0219827
0.142124
0.0220868
5.49949
0.0718858
0.0220854
3.75095
3.41179
3.57431
0.111389
0.0220414
0.0290212
0.0257577
4.16399
3.65637
0.0257426
5.04081
0.021897
0.0316252
1.18649
0.022008
0.0411214
0.0219365
0.0264368
0.0222513
0.166473
2.12294
0.0301639
0.0294519
0.021731
0.145906
0.0219107
0.0218363
0.0330065
0.0219305
0.224601
4.53465
4.3863
4.13091
0.0217975
4.7865
0.0221899
0.0371625
0.135551
0.022092
7.60324
0.0705066
0.0220573
0.0216629
0.0427973
0.0379655
0.184176
0.243358
0.0257893
0.0239872
3.88541
0.0636331
0.299388
0.95667
14.0381
4.10525
4.62514
1.50208
0.0221592
0.0221154
0.0474542
0.0222356
0.0517593
0.0377472
6.15641
4.85503
6.5922
0.0217151
0.0218001
0.122511
0.412305
4.2221
1.57837
3.62833
0.0562734
0.0328113
1.41697
0.267402
0.0266743
4.47007
0.0332586
0.030922
4.26145
0.0424494
0.0220046
4.75471
0.996211
0.024777
0.144188
0.0234454
3.94653
5.53365
6.11259
0.0220192
0.0216907
0.13921
0.0220204
0.0219623
0.0220234
0.0217396
0.0220283
0.0220345
4.49658
0.028175
0.0466924
4.08209
0.0219072
0.0220432
0.0321993
0.0260962
0.0266156
0.022051
0.0668677
0.0309694
0.0264322
0.0865712
4.25052
0.0220621
0.0435183
0.0220743
0.0220373
0.0215856
0.0220869
4.16853
0.0219223
0.0220326
0.0221001
0.0441798
4.03829
4.13604
4.66681
2.08015
0.0459481
4.18281
6.21344
0.0219609
0.0424871
5.8462
0.228547
0.0221143
0.0284453
0.0446584
0.0375608
0.0220636
0.0415014
0.058368
0.0443965
0.0216389
0.054389
5.48819
0.0215854
2.36489
4.52214
0.0426441
0.663581
0.0360687
0.022092
0.0258521
0.0220225
0.238467
4.5259
0.0217007
0.0436487
0.0219834
0.0219817
0.0222159
0.0222859
0.0377167
0.0221735
0.130116
0.150413
0.0260317
0.0246544
0.0463134
0.0220494
0.0443835
0.0333069
0.0224078
0.0221042
0.0221429
4.68099
0.0220253
0.282246
0.0426483
0.0222537
0.0220504
0.0217808
4.52944
0.0255224
0.042932
0.0530408
4.70114
0.0281777
3.96555
2.47562
0.0432097
0.0219801
0.243201
0.0392516
4.94813
0.0716815
4.54454
0.0216734
0.0504899
0.0493801
4.19016
0.0220157
0.0458295
4.81144
0.0218703
7.71114
10.0952
4.00022
0.0219879
0.0218093
4.59191
0.0220508
4.29358
0.172766
4.08998
4.38752