/*--------------------------------*- C++ -*----------------------------------*\
| =========                 |                                                 |
| \\      /  F ield         | OpenFOAM: The Open Source CFD Toolbox           |
|  \\    /   O peration     | Version:  v2012                                 |
|   \\  /    A nd           | Website:  www.openfoam.com                      |
|    \\/     M anipulation  |                                                 |
\*---------------------------------------------------------------------------*/
FoamFile
{
    version     2.0;
    format      ascii;
    class       volVectorField;
    location    "650";
    object      U_0;
}
// * * * * * * * * * * * * * * * * * * * * * * * * * * * * * * * * * * * * * //

dimensions      [0 1 -1 0 0 0 0];


internalField   nonuniform List<vector> 
13917
(
(1.09923 0.123345 2.75677e-20)
(1.02152 0.0425139 0)
(0.558808 -0.0685119 -2.56486e-20)
(1.05695 -0.0115425 -1.86508e-20)
(0.996242 0.0035229 -3.08507e-21)
(0.358625 0.0565499 1.09045e-20)
(0.489412 -0.0583586 1.34088e-20)
(0.563781 -0.0681456 0)
(0.382452 -0.0686619 3.56378e-20)
(1.14366 0.153102 -5.59184e-20)
(1.11773 -0.0621167 0)
(1.09506 -0.0459229 -5.49225e-20)
(1.05746 -0.0123175 0)
(-0.0170763 -0.00826873 0)
(0.972707 0.0960256 1.32049e-20)
(0.996146 0.0905306 5.2448e-21)
(1.01588 0.0478323 -2.94618e-22)
(1.14416 0.0184768 0)
(1.09391 -0.0454666 4.14839e-20)
(1.00153 0.00485771 0)
(0.999979 0.00107783 -7.67824e-21)
(0.468443 -0.0569256 -3.71339e-21)
(1.001 0.0080807 0)
(0.621458 -0.0724242 -1.81565e-20)
(0.995072 0.0156889 -3.64584e-21)
(0.499158 -0.0553208 0)
(0.78302 0.0361947 0)
(0.75764 0.124136 -7.35109e-20)
(0.732244 0.574402 -1.32633e-20)
(1.20053 0.0918883 -1.02038e-19)
(1.11404 0.113045 9.47065e-22)
(1.06242 0.090682 8.84614e-21)
(0.837363 0.0709601 0)
(0.910324 0.00226658 -4.24428e-20)
(0.991485 0.0127314 -6.10139e-21)
(1.12661 -0.0747742 2.16484e-20)
(1.00091 0.00760773 0)
(0.108076 -0.0319272 -7.0457e-20)
(1.06418 -0.0170619 -2.47324e-20)
(0.25675 -0.0121951 -1.22579e-21)
(1.00871 0.000817868 0)
(0.999987 0.000467156 6.30445e-21)
(1.02102 0.00243587 1.72647e-21)
(0.703186 0.206999 0)
(1.03994 0.0248099 0)
(0.891744 0.0162499 6.06404e-21)
(1.14153 0.0166908 0)
(1.14409 -0.0153782 -1.41755e-20)
(0.104443 0.139083 -2.65705e-19)
(1.00354 0.000806009 6.38341e-22)
(1.08779 0.0143058 -3.12454e-20)
(0.965347 0.0104621 4.62048e-21)
(0.0755057 0.118037 2.29185e-19)
(0.905689 0.00356765 2.45082e-20)
(1.0147 0.0488376 3.13654e-22)
(1.08773 0.0386405 -3.72878e-20)
(1.1185 -0.0615393 7.54779e-21)
(0.995824 0.0303045 -2.48812e-21)
(1.07339 0.0452294 -3.02566e-20)
(1.03847 0.0243786 2.01999e-21)
(0.506453 0.0451708 0)
(1.02307 0.0425907 2.17336e-21)
(-0.0304928 -0.00324739 0)
(1.00164 0.00526881 1.63834e-21)
(0.385817 0.0688834 0)
(1.00945 0.339995 0)
(0.995431 -0.000281826 0)
(0.988018 -0.000756914 7.25995e-21)
(1.15545 -0.053091 0)
(1.06561 0.138035 2.27742e-22)
(0.996637 0.00364551 -5.64036e-21)
(0.441238 -0.0761194 0)
(-0.10632 -0.0236525 5.54786e-20)
(0.995651 0.0152945 0)
(0.105788 0.212576 1.39189e-19)
(1.08754 -0.052741 1.28897e-20)
(-0.106001 -0.016356 2.83811e-20)
(1.0555 0.0271298 7.58076e-21)
(0.508952 -0.0512275 1.35117e-21)
(0.999904 0.00214834 4.35226e-22)
(1.00009 0.00321672 2.71449e-21)
(0.995985 -0.000218211 -2.08134e-20)
(0.404622 0.132422 -1.36551e-19)
(0.13413 -0.0362391 -4.24243e-22)
(-0.100233 0.0116149 1.93425e-20)
(1.05439 0.0259289 -1.41892e-20)
(1.00038 0.00413259 4.706e-21)
(1.16249 0.419241 0)
(1.08587 0.0142412 5.71223e-20)
(1.02147 0.00243517 -8.06229e-21)
(-0.0271597 -0.0310688 -4.46287e-20)
(1.18102 0.132671 0)
(1.02379 0.0239095 0)
(0.974212 0.054539 9.86076e-21)
(1.11375 0.412851 -1.4714e-19)
(0.386109 -0.00437997 -6.24707e-20)
(1.13288 -0.0504316 1.82218e-20)
(1.14474 -0.00561177 -2.8721e-20)
(1.0938 -0.0620341 2.80121e-20)
(0.608418 0.132253 0)
(1.01154 0.00590175 -1.65052e-21)
(0.844589 0.00239161 0)
(0.692893 0.191746 0)
(1.06302 0.0201426 2.76689e-22)
(1.01686 0.0124926 0)
(0.450911 -0.070197 0)
(0.813061 0.513175 -3.01842e-20)
(1.1466 -0.0166977 1.6341e-20)
(1.01778 0.0483484 2.47047e-22)
(1.11425 0.128167 0)
(-0.182817 -0.0143323 6.92185e-20)
(0.264981 -0.012773 -4.01974e-21)
(1.09662 -0.0523442 -2.46645e-21)
(0.414217 -0.0698599 -1.06586e-21)
(0.94809 0.00939523 0)
(0.082651 -0.112777 6.61642e-22)
(1.00097 0.0143789 6.06296e-21)
(0.200661 0.0977538 0)
(0.150441 -0.0142561 0)
(0.907146 0.0161548 1.22263e-20)
(0.999986 0.000904209 -7.28148e-22)
(1.15618 -0.0515861 0)
(0.119781 -0.0159819 2.76201e-20)
(0.766467 0.117361 0)
(1.00528 0.000707381 8.24809e-23)
(0.975621 0.051905 0)
(1.03532 0.0285019 3.41464e-21)
(1.00489 0.000574208 1.66494e-22)
(1.01828 0.00174741 -2.17988e-21)
(0.361678 0.0098089 0)
(0.216915 -0.0292771 0)
(0.950535 0.0084551 0)
(1.04033 0.0258288 1.0348e-21)
(0.99998 0.000856617 7.46576e-21)
(1.25917 -0.0106466 -5.82013e-20)
(0.637537 -0.075558 -1.73664e-20)
(1.0966 0.128024 -2.59367e-20)
(0.584586 0.133231 3.96754e-20)
(0.995116 0.000140766 -3.86689e-21)
(0.908052 0.0118863 0)
(1.11817 -0.0727437 -4.51789e-21)
(1.02527 0.0133466 0)
(0.962301 0.0226566 3.96658e-20)
(0.655029 0.203721 8.23367e-22)
(0.987381 -0.000434609 -5.54512e-22)
(0.656038 -0.0794119 2.60353e-20)
(0.802898 0.580492 3.7975e-21)
(0.967283 0.0109064 -1.66498e-20)
(1.02387 0.0112319 4.64594e-21)
(1.05732 0.100052 1.57405e-20)
(1.1194 -0.0242298 0)
(0.0925886 -0.146525 -1.87591e-19)
(1.1144 -0.0469685 -2.20494e-20)
(1.02786 0.18246 8.02086e-21)
(1.07916 0.0641835 -2.55367e-21)
(-0.0614729 0.0453807 8.94695e-20)
(1.06072 0.13529 1.44808e-21)
(1.12099 -0.0825917 0)
(-0.127933 -0.0136258 1.50984e-20)
(1.25445 -0.00910937 0)
(0.940047 0.045272 -1.17858e-20)
(0.783372 -0.0243158 0)
(1.00003 0.00224563 1.22006e-20)
(1.13103 -0.0495807 0)
(1.09726 -0.0516448 8.25511e-21)
(1.09466 -0.0615458 0)
(1.06211 0.0210531 1.22851e-20)
(1.13092 -0.0172199 4.18294e-20)
(1.03305 0.0213192 -4.64419e-21)
(0.837634 -0.0018377 2.99583e-20)
(1.04763 0.175233 -1.1955e-20)
(-0.304097 -0.0027067 0)
(1.09453 -0.0549475 -4.00123e-20)
(1.01359 0.0571427 0)
(0.807467 -0.0849165 1.08262e-20)
(1.01714 0.203441 0)
(0.238352 -0.0331662 4.58077e-21)
(0.163428 0.0995528 1.35344e-19)
(0.714655 -0.0821153 0)
(1.01305 0.0273014 1.06714e-21)
(1.1866 0.127409 0)
(1.11955 0.111534 -1.92479e-21)
(1.02579 0.0128789 0)
(1.00037 0.00450416 -5.63369e-21)
(0.936855 0.115592 2.09e-21)
(0.551583 -0.0586393 1.2106e-20)
(1.26747 0.139301 0)
(-0.00961788 0.0457803 -2.52047e-19)
(1.11933 0.0414373 2.19625e-21)
(1.10119 -0.0593932 2.27352e-23)
(1.13577 -0.0753109 2.80895e-20)
(-0.0515519 0.0156742 0)
(1.25722 0.179941 -2.89359e-20)
(0.999759 0.00794833 3.11711e-21)
(0.563415 0.066482 0)
(0.793662 0.0379465 -1.08265e-20)
(1.00759 0.000310949 -2.20492e-21)
(1.02401 0.0249373 -2.96166e-21)
(0.874385 0.447293 0)
(1.20777 0.477751 0)
(1.07831 -0.00327079 0)
(1.00323 0.00071922 0)
(1.1244 -0.0174516 0)
(1.11753 -0.0242583 0)
(-0.13268 -0.0197725 -9.03857e-20)
(1.2467 -0.0480513 0)
(0.991803 0.0118842 -2.02891e-20)
(0.995107 0.031378 3.51722e-22)
(1.14213 -0.00730707 5.91725e-20)
(0.57265 -0.0649155 0)
(0.964558 0.0230294 -3.67438e-20)
(0.47444 -0.0599331 1.37722e-20)
(-0.178348 -0.0135948 -3.17083e-20)
(1.10204 -0.0590083 0)
(1.01647 0.0127629 0)
(0.493537 0.411871 -1.37934e-19)
(1.13456 -0.00578428 0)
(-0.272412 -0.0107357 -1.57386e-19)
(1.00318 0.0187366 0)
(0.657293 0.066587 -5.13699e-20)
(1.01265 0.0263121 -5.51031e-22)
(1.1925 0.0678307 0)
(1.00853 0.00101496 0)
(0.0878275 -0.0362105 0)
(0.429281 -0.0689156 0)
(0.997155 0.094061 -1.69627e-20)
(1.19412 0.483574 8.93932e-20)
(1.08226 0.0631086 0)
(1.01575 0.0123035 -3.63523e-21)
(1.12637 -0.0741652 -5.12455e-20)
(1.09337 -0.0544466 1.93008e-20)
(1.11798 0.0389183 -7.82634e-21)
(0.644804 -0.0726668 0)
(-0.198516 -0.011032 0)
(1.01252 0.00309194 0)
(1.06576 0.0918369 0)
(0.0012524 -0.0351721 0)
(-0.141887 0.0140257 0)
(0.999998 0.00250833 -6.41956e-21)
(1.00634 0.00929002 -8.19862e-23)
(0.305177 -0.0122898 4.42752e-21)
(1.13783 -0.0523906 -4.3234e-20)
(1.00004 0.000134554 9.94739e-22)
(1.10416 -0.0708572 -3.58353e-20)
(1.17903 0.00768848 0)
(0.793243 -0.029349 1.12966e-20)
(1.09687 0.108474 -4.35368e-20)
(1.00005 0.00243513 -4.64621e-21)
(0.980292 0.207931 1.01116e-20)
(-0.166779 -0.0120074 0)
(1.04191 0.00299797 1.85714e-20)
(1.20297 0.144307 -1.57206e-21)
(0.570063 0.177836 1.39791e-19)
(1.03502 0.0272077 6.26239e-21)
(0.99522 0.0286582 1.3887e-20)
(1.10971 -0.041033 0)
(0.322133 -0.0186793 -1.6641e-20)
(1.11346 -0.0457972 -4.79646e-20)
(0.937737 0.120323 -2.57224e-21)
(0.976107 0.0986909 -2.19349e-20)
(1.00004 0.000236231 -1.1665e-22)
(0.098513 -0.0122189 0)
(0.62691 -0.0457216 4.32988e-20)
(1.10745 -0.0724294 3.63275e-20)
(1.01529 0.0125548 4.49253e-21)
(-0.163085 -0.0182075 7.84896e-22)
(-0.00809635 -0.0127606 -4.1276e-20)
(1.06902 -0.0846681 -1.6402e-20)
(0.490478 -0.049685 -1.5214e-21)
(1.0879 -0.0538277 1.46358e-20)
(1.00004 0.00300404 -6.7094e-22)
(1.00645 0.00085285 1.59215e-22)
(1.14045 0.0116337 2.33751e-20)
(0.0128653 -0.0271704 0)
(1.16613 -0.0297548 -9.40508e-20)
(1.07181 0.0431115 2.84326e-20)
(1.2376 -0.0490279 -5.58867e-20)
(1.08047 -0.0376774 0)
(1.01818 0.00115581 1.0521e-21)
(0.900517 0.0175136 4.90392e-20)
(1.00195 0.00477791 -2.50471e-21)
(0.768597 -0.0838585 4.57605e-20)
(1.07648 -0.0028819 0)
(1.00007 0.000136419 0)
(1.00106 0.111263 6.20087e-21)
(1.02214 0.184377 0)
(0.783589 -0.0119254 0)
(1.10864 -0.0718115 3.09994e-20)
(0.998802 0.147244 1.50277e-21)
(1.04472 0.00966791 0)
(1.2601 0.0117169 1.17875e-19)
(0.655193 -0.0727814 0)
(0.527419 -0.0479534 -6.46822e-21)
(1.00288 0.0182277 8.86371e-21)
(1.04111 -0.084988 -3.45069e-20)
(0.998389 0.000375511 8.02515e-21)
(1.04477 0.00871023 2.61169e-20)
(1.00108 0.0137174 -3.8084e-21)
(0.81521 0.620335 -4.2419e-21)
(1.00162 0.000852957 0)
(1.19751 0.0676337 6.00414e-20)
(1.09225 0.108287 2.01225e-20)
(1.03262 0.0203386 8.60474e-21)
(1.12414 -0.0196419 4.71518e-21)
(1.03929 0.0579814 0)
(0.11361 0.0612787 -4.28433e-19)
(1.01633 0.198262 3.57177e-21)
(1.17513 0.129995 -6.98049e-20)
(1.03105 0.0141965 -2.19382e-21)
(0.995893 0.0276697 -1.07851e-20)
(-0.202237 -0.0117814 0)
(0.0912382 -0.0147373 -2.84818e-20)
(1.00124 0.0149794 -2.18324e-21)
(1.00734 0.000898246 -6.32907e-22)
(0.953701 0.0259844 -6.64027e-20)
(1.01637 0.025847 -6.75674e-22)
(-0.0838937 -0.0266144 -5.15071e-20)
(1.0301 0.0141018 3.55416e-21)
(0.103496 -0.0376292 8.21784e-21)
(1.04833 -0.00540924 -1.69523e-22)
(1.21203 0.329142 5.51554e-20)
(1.10398 0.00265977 -8.31528e-20)
(0.111188 0.284747 -1.4021e-19)
(0.943878 0.0449766 -2.02464e-20)
(1.30817 -0.00164559 6.84712e-20)
(0.510192 0.305247 -2.58213e-20)
(1.00413 0.109003 2.33286e-21)
(1.13973 -0.0512985 0)
(0.955115 0.526032 1.81639e-20)
(0.996346 0.0447169 7.98229e-21)
(0.163544 -0.0297998 1.09362e-20)
(0.571485 0.0454174 8.78925e-20)
(-0.00126935 -0.0156081 4.65512e-20)
(0.921751 0.0208814 0)
(0.190322 -0.011455 2.12829e-26)
(1.07208 0.0899364 2.8365e-20)
(-0.0854624 -0.00278945 7.07227e-20)
(0.528265 0.284178 1.95869e-20)
(0.92196 0.356146 1.52824e-20)
(0.938234 0.351007 1.48298e-21)
(0.505364 -0.0661674 0)
(0.99973 0.00266218 -8.92753e-21)
(1.054 0.178502 -8.3954e-21)
(-0.149137 -0.0150613 1.25074e-19)
(0.982877 0.0304653 0)
(1.00292 0.0732415 7.11478e-21)
(0.0140276 -0.0128963 0)
(0.861258 0.481986 0)
(1.01846 0.053936 2.39462e-22)
(1.12327 -0.0733246 0)
(0.70201 0.546773 0)
(1.00953 0.00513756 9.8291e-22)
(0.131385 -0.0110499 5.83949e-21)
(1.12858 -0.0741748 1.07332e-20)
(1.00209 0.00515861 4.17454e-23)
(1.00979 0.0132331 0)
(0.998576 0.000204451 -7.47916e-21)
(1.02427 0.0108394 5.36826e-21)
(1.24932 0.00906828 -6.06398e-20)
(0.754258 -0.083915 2.50433e-20)
(0.38601 -0.275526 0)
(-0.168939 -0.0130235 -6.44011e-20)
(0.9981 0.0151602 0)
(1.21001 0.143738 9.28614e-20)
(-0.19917 0.0165687 0)
(1.11502 -0.00843166 2.19457e-20)
(0.455037 -0.0580238 -7.44705e-21)
(0.0408819 -0.0322875 -6.3895e-20)
(0.393439 -0.0683319 0)
(1.01379 0.00565055 -3.90776e-21)
(1.10156 -0.0708875 -3.33541e-20)
(1.011 0.0127809 8.02628e-22)
(0.781554 0.0806476 0)
(1.03757 0.0250867 -1.02325e-20)
(0.0855724 0.332706 3.60343e-20)
(1.18217 0.00980328 2.05634e-20)
(1.06668 -0.00902361 1.424e-21)
(0.999577 0.00319076 2.50853e-21)
(1.13959 -0.00585081 -5.26549e-20)
(1.19273 0.128699 6.02255e-20)
(1.16019 0.00417183 1.94896e-20)
(0.326722 1.09772 -7.16107e-20)
(-0.128021 -0.00401069 0)
(-0.29866 -0.00817301 2.53618e-19)
(0.985405 0.216046 -2.46235e-21)
(1.13717 0.150053 6.95231e-20)
(1.00601 0.00884591 0)
(-0.117063 0.0149122 5.64848e-20)
(0.457929 -0.0547497 -1.43008e-20)
(0.999922 0.0342534 0)
(1.29895 0.00395387 1.1067e-19)
(0.995773 0.0114132 -6.83229e-21)
(1.21393 -0.0283729 8.38167e-20)
(1.04842 -0.00480304 1.30535e-20)
(0.999797 0.00226326 0)
(1.03461 0.0611926 0)
(0.540042 -0.0493274 0)
(1.03281 0.0614966 5.76324e-21)
(0.342859 -0.0225777 0)
(-0.0646445 0.0381828 -2.30646e-19)
(1.11167 -0.0603704 5.89529e-20)
(0.442118 0.285426 -2.47117e-19)
(0.998101 0.0443443 0)
(0.495309 0.369107 1.89768e-19)
(0.468215 0.310202 -1.22149e-19)
(1.00222 0.0104262 -2.38314e-21)
(0.825861 0.482562 2.6123e-20)
(0.984277 0.0302008 0)
(0.994568 0.0133686 0)
(1.19888 0.0966614 0)
(1.00007 0.000353235 -2.14965e-21)
(0.99392 0.0151394 -1.4889e-20)
(1.01124 0.0125708 -1.20805e-21)
(1.24446 0.0130458 0)
(0.999951 0.00172171 -4.49381e-22)
(0.200208 -0.0131242 9.94946e-21)
(0.634521 -0.0581431 2.12514e-20)
(-0.130701 0.0141548 1.60555e-20)
(1.25241 0.186248 3.0451e-20)
(0.327702 -0.0285614 0)
(-0.254111 -0.0126937 4.30855e-20)
(1.1129 -0.00878534 1.31647e-20)
(0.998448 0.0145161 2.94553e-21)
(1.21415 0.00645547 0)
(1.06386 -0.0158264 3.46101e-20)
(1.07066 0.0974429 0)
(0.999772 0.0085194 -3.80758e-21)
(0.684118 -0.0833197 -4.87931e-20)
(0.517171 -0.0616399 3.87317e-20)
(0.688837 -0.0612456 -5.6595e-23)
(0.984781 0.0891727 -8.72279e-23)
(1.18255 -0.00281987 2.38112e-20)
(0.925108 0.0179282 0)
(1.06556 -0.0175526 0)
(1.15793 0.00267889 4.0868e-21)
(1.02032 0.0629787 2.06414e-21)
(1.10255 -0.070852 4.06221e-20)
(1.01886 0.0471091 2.83668e-22)
(1.0016 0.00100582 -1.46938e-21)
(-0.0536117 -0.0308379 4.91717e-20)
(0.233697 -0.0313891 3.41989e-20)
(0.253653 -0.0340911 -3.74616e-20)
(1.18343 0.214398 -6.28314e-20)
(-0.138546 0.00958105 3.64174e-20)
(0.191108 -0.0342252 -3.89886e-20)
(-0.104771 -0.0258234 6.39859e-20)
(-0.0660071 -0.0167306 -2.69108e-21)
(1.01749 0.00190544 -4.93064e-21)
(1.14183 0.00221273 0)
(1.02238 0.062806 -2.09238e-21)
(0.992772 0.0320012 -3.57754e-21)
(1.2515 -0.040709 -2.58083e-20)
(1.14262 0.0132583 0)
(1.01897 -0.000110661 -1.29521e-21)
(1.16209 0.0475654 0)
(1.11376 -0.00341041 0)
(-0.0567118 -0.0139292 0)
(1.0024 0.010828 0)
(1.14767 -0.0408841 1.93732e-20)
(-0.0145594 0.00637417 -5.41872e-20)
(1.2316 0.344032 3.41584e-20)
(0.204959 -0.0164192 -2.30077e-20)
(0.999951 0.00150941 -3.94012e-21)
(0.998772 0.0347214 -5.66916e-21)
(1.01165 0.000440573 0)
(1.0555 0.139188 0)
(1.01372 0.00523805 -8.50548e-22)
(0.610989 -0.0621043 -4.12384e-20)
(0.397477 -0.236005 0)
(1.00172 0.141792 -2.76677e-21)
(-0.0772367 0.0227549 -9.25762e-20)
(1.08712 0.0362002 2.68311e-20)
(1.12938 -0.0511177 0)
(-0.0661985 -0.0281578 -6.21218e-20)
(0.824217 0.581307 5.82746e-21)
(1.11067 -0.0599478 -3.73777e-20)
(1.12411 -0.0739001 -5.62245e-21)
(1.14675 -0.0424228 -1.07727e-20)
(1.16036 0.0651892 -6.76445e-20)
(1.20219 -0.0108937 3.29829e-20)
(1.09698 -0.0276583 0)
(1.10552 -0.0636795 7.71763e-21)
(0.375107 0.111991 0)
(1.09267 -0.035888 2.62164e-20)
(1.14482 -0.0252239 0)
(1.01511 0.000715293 0)
(1.27183 -0.0209128 0)
(1.0909 0.0171938 2.42957e-20)
(1.03072 0.00332357 -3.70318e-21)
(1.05104 0.135591 0)
(1.05796 0.0253501 -1.10342e-21)
(-0.0538799 -0.0171814 0)
(0.437918 -0.0739015 3.98568e-20)
(1.01563 0.0248271 3.27892e-22)
(1.01806 0.000934175 -1.20223e-21)
(0.636864 -0.0664503 0)
(-0.275906 -0.00972621 2.54204e-20)
(1.00006 0.000267813 1.7861e-21)
(0.182042 -0.012354 0)
(1.05849 0.00440368 0)
(1.24117 0.16565 2.1978e-20)
(1.01501 0.0267769 0)
(-0.165324 -0.0162176 0)
(1.18126 -0.0782838 4.04294e-20)
(1.06032 0.0976821 -1.60506e-20)
(1.03831 0.0382645 -4.95627e-21)
(0.353512 -0.0324306 -2.54494e-20)
(1.2561 0.137463 9.97442e-20)
(-0.257917 0.00575877 1.3948e-19)
(1.00005 0.000319582 2.16085e-21)
(-0.167004 -0.0142874 6.27759e-20)
(0.135814 0.0608223 -3.6442e-19)
(0.927071 0.0280752 0)
(1.03087 0.00383424 1.10802e-20)
(-0.131651 0.0118456 2.15417e-20)
(0.285945 -0.0470249 0)
(1.11238 -0.0123518 -6.02946e-20)
(1.01035 0.0132822 -1.70916e-22)
(1.00976 0.0482324 -3.10597e-21)
(1.0852 -0.0533113 2.37847e-20)
(1.222 -0.032003 -9.25435e-20)
(1.0194 -0.000116411 0)
(1.0093 0.0125241 6.17566e-23)
(1.00517 0.00249485 -8.15244e-23)
(1.0055 0.00260798 8.22305e-23)
(-0.187132 -0.0161885 -7.42128e-20)
(1.25112 -0.0361596 -2.69547e-20)
(1.11193 -0.0110114 6.63293e-20)
(1.26666 0.125661 -1.00555e-19)
(1.00648 0.00066745 9.56048e-23)
(1.01108 0.00560221 2.84348e-21)
(1.17891 -0.00429683 -1.16816e-20)
(0.150003 -0.0474006 -9.84977e-21)
(1.10919 0.0522611 0)
(1.03423 0.0215597 -7.55748e-22)
(0.994917 0.0138331 0)
(0.992339 0.000403674 6.0973e-21)
(0.867645 0.0189762 8.90638e-20)
(-0.0082791 0.0177755 -1.23847e-19)
(1.00053 0.00390438 -2.10946e-21)
(0.992566 0.00341712 -1.1498e-20)
(1.09935 -0.0707182 -3.50328e-20)
(1.0975 -0.0261772 2.29306e-20)
(1.10302 0.00131681 -1.19744e-20)
(0.997743 0.0331871 1.52641e-20)
(1.03005 0.0644315 0)
(1.04569 0.0962283 8.9745e-21)
(1.14243 -0.0258501 -3.51431e-20)
(0.950819 0.499554 0)
(1.27095 0.134252 5.90734e-20)
(1.21484 0.00216573 3.66502e-20)
(1.16496 -0.0180152 4.46231e-20)
(1.24005 -0.0524716 -5.30845e-20)
(1.17481 0.122935 3.64155e-20)
(1.00205 0.0176822 2.33494e-21)
(-0.153966 -0.0145134 0)
(0.992679 -0.000130728 0)
(1.00357 0.0761748 -6.14981e-21)
(1.06866 -0.00142832 -6.77005e-21)
(1.27374 -0.0223458 3.28545e-20)
(0.994002 0.293323 5.25755e-21)
(1.01026 0.0012597 1.37704e-21)
(1.23405 0.332883 -3.2707e-20)
(1.20946 0.0846109 3.14145e-20)
(-0.0988696 -0.0102464 -2.46034e-19)
(1.16662 -0.0159624 0)
(0.887883 0.137891 4.25542e-20)
(1.11617 -0.00423558 0)
(0.999443 0.00348093 5.49384e-21)
(0.457527 -0.0491106 2.38157e-20)
(1.22348 0.322629 3.29778e-20)
(0.348341 -0.0547246 0)
(1.01816 0.0449021 9.98477e-23)
(1.09876 0.0417254 0)
(1.26974 0.121132 1.12365e-19)
(0.0487076 -0.0346144 0)
(-0.203205 -0.000751079 -8.14236e-20)
(1.14742 -0.00720659 9.49451e-22)
(1.19226 0.216249 -3.70707e-20)
(0.992214 0.0895737 8.49974e-21)
(1.05819 0.0570835 1.31763e-20)
(0.996637 0.0337085 -6.45415e-21)
(0.889944 0.234447 0)
(0.670815 0.185498 -8.62591e-22)
(0.973369 -0.00281765 7.94631e-21)
(1.13205 -0.007105 -4.02938e-20)
(0.568898 0.152439 8.73636e-20)
(0.361988 -0.0564693 9.88253e-21)
(-0.251279 0.00739482 7.41289e-20)
(1.03322 0.0746186 -4.1205e-21)
(1.1277 -0.0505068 1.9765e-20)
(1.19018 -0.077238 0)
(1.00568 0.119517 5.45786e-21)
(0.968158 0.0249944 -8.47883e-21)
(0.174488 0.54491 8.48856e-20)
(0.632707 -0.0695758 0)
(0.599628 -0.0806234 2.6109e-20)
(1.26226 0.108656 7.64651e-20)
(1.01818 0.00198525 6.59862e-22)
(0.13756 -0.0130232 0)
(1.08624 -0.0524301 0)
(1.01018 0.000939219 -1.07918e-21)
(1.09654 0.0746403 0)
(1.12764 -0.034968 -3.22681e-20)
(0.846761 0.0726078 1.17763e-20)
(1.19709 0.0869488 9.95373e-20)
(0.497973 -0.0526113 0)
(1.19851 -0.0113603 -7.56327e-21)
(1.09317 -0.0242281 -1.6831e-20)
(0.458623 -0.0489934 -2.0453e-20)
(1.06023 0.0315797 -1.69193e-20)
(-0.0865889 -0.0144577 -2.46082e-20)
(0.999994 0.00223747 0)
(1.00052 0.00421146 -7.10865e-22)
(1.01617 -0.0861726 -9.71433e-21)
(0.602541 -0.0706552 0)
(0.376415 0.243571 -1.45533e-19)
(1.06078 0.0301253 0)
(1.01488 0.0551866 7.72771e-22)
(0.993001 0.00384538 1.60212e-20)
(1.08173 -0.0378865 0)
(0.0785247 0.177936 -1.00137e-20)
(1.09435 -0.0606122 2.40662e-20)
(1.06054 0.0574829 1.4878e-20)
(1.11077 -0.0584551 -2.34471e-20)
(1.1371 -0.00734194 4.63989e-20)
(1.01488 0.0275257 0)
(1.17172 0.491855 -7.17003e-20)
(1.09316 -0.0602629 -1.96826e-20)
(1.10032 -0.0716002 1.61747e-20)
(1.00497 0.0201638 7.19155e-21)
(1.19349 -0.0158872 -1.75639e-20)
(1.0571 0.0269516 1.13454e-21)
(-0.0227158 0.0488368 9.72769e-20)
(1.1496 0.149746 8.81506e-20)
(1.00483 0.286295 0)
(1.09996 0.0436623 2.74102e-21)
(1.00803 0.00291896 0)
(1.02864 0.00611868 3.5893e-21)
(1.0366 0.0290612 3.78936e-21)
(0.968861 0.356757 1.88731e-21)
(0.890212 0.0213419 0)
(1.25962 0.0452879 0)
(0.469395 0.811736 -2.59402e-20)
(1.1312 -0.0148468 -6.1146e-20)
(1.00905 0.00508892 -3.22711e-22)
(1.20345 -0.00373269 4.09434e-20)
(0.373549 0.274154 0)
(1.12942 -0.0763745 0)
(1.04117 0.00354421 -1.88565e-20)
(0.899834 0.0343061 0)
(1.00876 0.0124382 3.05757e-22)
(1.07822 -0.0181212 2.48272e-20)
(1.07584 0.0448082 2.94534e-20)
(0.264044 -0.0474216 4.99722e-20)
(0.999867 0.00233363 -2.25013e-22)
(1.23992 0.510507 0)
(1.07956 -0.015188 0)
(1.11616 -0.0624911 4.71678e-20)
(1.17784 0.145158 2.05365e-20)
(-0.12044 -0.0214006 -3.08218e-20)
(1.0278 0.284304 -1.26151e-20)
(1.00934 0.0465342 4.48394e-21)
(-0.0209459 -0.0248197 0)
(-0.278831 -0.00679834 0)
(1.00685 0.0357345 3.99621e-21)
(1.06756 -0.0022182 0)
(1.18817 -0.0748483 0)
(1.25307 0.110646 4.3438e-20)
(1.16315 -0.0299531 8.84029e-20)
(1.00016 0.000386164 0)
(1.03961 0.0381864 0)
(1.19961 0.320054 4.85166e-20)
(1.06726 -0.00998858 3.56191e-21)
(1.16015 0.00788313 4.9951e-20)
(1.10895 -0.0393302 0)
(1.02932 0.0059685 5.13795e-21)
(1.11519 -0.0268093 0)
(0.568071 -0.0692314 2.84056e-20)
(1.04062 0.00196975 7.51044e-21)
(1.05443 -0.00760598 0)
(1.00461 0.00265604 -6.94562e-22)
(0.0885063 -0.0127528 0)
(0.999955 0.00104437 8.85141e-22)
(0.985073 0.085248 0)
(-0.298714 -0.00486192 4.97538e-20)
(0.994183 0.0697634 0)
(0.66401 -0.0694177 -7.22604e-20)
(1.07805 0.0669811 0)
(0.831556 0.0768084 0)
(1.00496 0.00277951 2.12768e-22)
(1.02451 0.2181 4.20164e-21)
(1.0008 0.0130186 -6.32865e-21)
(1.15832 0.0735615 -2.7687e-20)
(1.00769 0.00175368 6.34142e-22)
(1.08663 0.26473 2.53644e-21)
(1.05821 0.0051907 -1.01459e-20)
(0.222818 0.130475 0)
(0.433171 0.686663 -4.61414e-20)
(0.147106 -0.0479998 6.19069e-20)
(1.01114 0.000424545 4.2274e-21)
(0.999661 0.0028594 1.23601e-20)
(1.16907 0.119718 -3.20308e-20)
(1.12926 0.114996 -8.28226e-23)
(0.0505301 -0.0175111 4.2889e-22)
(0.260752 -0.0600891 -4.57773e-20)
(1.1452 0.0221949 -3.6253e-20)
(0.992825 0.0122113 3.32286e-22)
(1.24298 0.0109175 -2.53248e-20)
(0.34355 0.218656 1.90859e-19)
(1.09776 -0.0708834 -3.75809e-20)
(1.25855 0.0491158 0)
(1.13565 0.00794405 0)
(0.539884 -0.0532238 -2.14808e-20)
(1.08925 0.13246 0)
(1.08001 -0.0363655 3.22022e-20)
(1.21154 0.0204855 -1.22288e-19)
(0.856519 0.426202 1.26718e-20)
(1.14356 0.0242368 4.05333e-20)
(0.30491 0.294602 -5.34592e-20)
(1.14408 0.0306338 -6.46045e-22)
(1.06039 -0.00621794 0)
(1.12895 -0.0363965 7.27987e-21)
(1.00835 0.110512 0)
(1.0343 0.00471961 1.7617e-20)
(1.07816 -0.0171325 -2.32119e-20)
(1.11607 0.122948 3.73482e-20)
(1.05309 0.0984765 1.37874e-20)
(0.999652 0.0129565 -9.54761e-21)
(1.00694 0.000532163 6.45285e-22)
(1.13427 -0.0115835 4.38117e-20)
(1.06457 0.0106411 6.57385e-21)
(1.16329 0.00930996 -6.76634e-20)
(0.993521 0.011875 -1.76682e-22)
(0.99533 0.00930575 0)
(0.999964 0.000834017 0)
(1.02584 0.0646208 0)
(1.0237 0.0010533 -2.39307e-21)
(1.05121 0.0839873 0)
(1.00409 0.00281852 -6.3213e-22)
(-0.17297 -0.0152048 0)
(1.09182 -0.0464793 1.28385e-20)
(0.470662 -0.281732 0)
(1.01251 0.00532075 4.67324e-21)
(1.00007 0.00169929 2.59032e-21)
(0.802677 0.147275 -1.17625e-20)
(1.16379 0.0629627 6.22095e-20)
(0.953401 0.00432621 -3.09272e-20)
(0.774571 0.00104795 8.81736e-20)
(1.1387 0.200792 7.26924e-20)
(0.953952 0.107103 1.00881e-19)
(1.07955 -0.0162087 2.42276e-22)
(1.18917 -0.00523245 0)
(1.05283 0.0152541 8.75312e-21)
(0.999905 0.00109548 3.66526e-22)
(1.00576 0.00232394 0)
(1.03752 0.0590586 -2.63821e-21)
(-0.321708 -0.00302682 1.24877e-19)
(1.00005 0.00144509 1.47642e-22)
(1.17005 -0.0611134 5.98621e-20)
(1.05263 0.0864262 0)
(-0.197327 0.0192925 -7.77259e-20)
(0.968596 0.227594 -1.42034e-20)
(1.1461 0.198797 -4.17167e-20)
(1.1148 -0.0619817 -3.62172e-20)
(1.02136 0.00638313 0)
(1 4.55881e-05 0)
(1.09312 -0.046807 -2.17419e-20)
(0.988175 0.00414205 -6.92005e-21)
(0.985953 0.0440226 5.30556e-21)
(0.91446 -0.00147215 -2.10101e-20)
(1.01464 0.0590876 -1.53392e-24)
(0.998613 0.000879117 0)
(1.08846 0.0548229 1.54287e-20)
(1.00648 0.00794046 0)
(1.01701 0.00089917 -5.13501e-21)
(1.05968 0.093415 -2.55764e-20)
(0.884701 -0.0218793 0)
(0.0295988 -0.0137578 2.12509e-20)
(1.08444 0.112145 -1.76449e-20)
(1.0406 0.00144749 -8.89803e-21)
(1.00939 0.000980379 -1.32843e-21)
(0.0794763 -0.0396155 3.31503e-20)
(0.954244 0.364357 -2.88085e-21)
(1.00279 0.0430363 2.35407e-21)
(1.0192 0.0442322 -3.24765e-22)
(0.865827 0.00350195 -9.09988e-20)
(1.19153 -0.0755295 -2.87458e-20)
(-0.310695 -0.00810771 7.63887e-23)
(0.895725 0.138359 0)
(1.06133 -0.00543274 -5.46024e-21)
(1.01213 0.0032136 1.38934e-21)
(1.01723 0.00105484 6.74225e-21)
(1.09415 -0.035992 -5.22525e-20)
(1.0892 0.113184 2.0536e-20)
(1.12444 -0.0713108 2.79676e-20)
(0.917783 0.0208907 -2.32703e-20)
(0.139857 -0.0258313 -1.68958e-20)
(1.02975 0.0436308 -5.93339e-21)
(0.965689 0.0606254 -6.90328e-21)
(-0.318914 -0.00474555 -1.31204e-19)
(0.995573 0.0108396 1.30819e-20)
(1.09192 0.0155248 -2.80294e-20)
(1.00564 0.032135 0)
(1.00205 0.00130138 1.81233e-23)
(1.10863 0.128553 3.2628e-20)
(0.773595 -0.00559104 0)
(1.05059 0.0277314 4.59319e-24)
(0.627958 -0.0699173 6.9955e-20)
(0.277868 -0.0159182 -1.96676e-20)
(1.18237 0.14018 1.94717e-20)
(1.00237 0.0182825 -5.71285e-21)
(1.02564 0.0025846 -6.29835e-21)
(1.09931 -0.0593683 0)
(1.19372 -0.0578128 -2.9678e-20)
(1.00007 0.000438217 2.23261e-21)
(1.23521 -0.0555627 -1.34394e-20)
(1.02514 0.00275175 6.06317e-21)
(1.11248 0.117751 -1.01369e-21)
(1.03498 -0.00182312 1.66699e-21)
(1.03548 0.00641432 -5.10787e-21)
(1.23463 -0.0321156 1.46956e-19)
(1.0411 0.0159323 -1.35293e-20)
(0.987802 -0.072384 -8.02514e-21)
(1.11792 0.0898289 -3.98285e-21)
(0.999957 0.000773278 4.04031e-21)
(1.02064 0.00341967 -3.71851e-21)
(0.981257 0.00199246 -2.25979e-20)
(1.01006 0.0206299 0)
(1.05399 -0.00658713 6.13393e-21)
(0.271372 0.688673 6.34022e-20)
(1.03939 0.00387441 0)
(1.0317 0.0104656 4.3398e-21)
(0.338281 -0.0685961 4.4727e-22)
(0.566819 -0.0775172 5.0817e-22)
(1.09449 -0.025571 0)
(1.12376 0.116298 2.02714e-21)
(1.15267 -0.00080246 -5.91536e-23)
(1.07897 0.023923 -3.09715e-20)
(1.02518 0.0145725 0)
(0.887803 0.01403 2.04341e-20)
(-0.138785 -0.0185975 3.03727e-20)
(1.09648 0.26615 -1.69826e-20)
(0.998297 0.0055371 -5.89403e-21)
(1.03695 0.0374066 3.99736e-21)
(0.291862 -0.0628595 -3.87096e-20)
(1.11658 0.0187457 0)
(-0.121788 -0.014048 5.29412e-22)
(0.999962 0.00100253 0)
(0.951006 0.00517867 1.72862e-20)
(0.0722272 -0.0120571 3.01158e-20)
(1.10877 0.0129023 -4.69872e-20)
(1.05272 0.026256 1.56712e-20)
(-0.312259 -0.00181086 -1.26876e-19)
(0.212925 0.241029 0)
(1.01032 0.0200806 3.73191e-22)
(1.20698 0.0219338 0)
(1.00609 0.00243864 4.67876e-23)
(1.03994 0.0159236 1.45147e-20)
(1.01289 0.0056015 -1.72122e-21)
(-0.137759 -0.0215356 6.42823e-20)
(1.02328 0.000915962 4.91599e-21)
(1.03975 -0.00402423 0)
(1.02573 0.0141106 0)
(0.937492 -0.0716297 0)
(1.06358 -0.0136016 -7.47525e-21)
(1.2456 0.158915 7.00328e-20)
(0.701248 -0.0913915 7.76246e-20)
(1.03599 0.00457961 -8.60661e-21)
(0.84481 0.0294401 -5.47707e-20)
(1.00055 0.00370443 2.07709e-21)
(-0.158582 -0.0126336 -1.53684e-19)
(1.00566 0.0106294 -1.08253e-21)
(1.04007 0.00332295 -7.24014e-21)
(0.998675 0.00137935 0)
(1.10016 -0.0598699 1.55085e-21)
(0.9985 0.00125934 0)
(1.19709 -0.0155276 2.75445e-20)
(0.283925 -0.0119143 9.42212e-21)
(0.680791 -0.0732899 2.77557e-20)
(0.90474 0.0347517 -2.57811e-21)
(1.12768 -0.0734947 -1.22541e-20)
(-0.272502 -0.00605051 -4.91503e-20)
(0.997063 0.0278569 0)
(0.118735 -0.0103878 0)
(0.382321 0.0389379 8.36682e-20)
(-0.251077 -0.00606703 2.44589e-20)
(0.315562 -0.0277447 1.89207e-20)
(0.319841 -0.0672523 3.29093e-20)
(0.10165 0.157024 3.33372e-19)
(1.19976 -0.00224645 3.71056e-20)
(1.01147 0.0492071 0)
(0.482663 -0.0510231 0)
(1.10819 0.0149492 4.44226e-20)
(0.42684 -0.051994 -1.57744e-20)
(1.03018 0.00423103 -5.63046e-21)
(1.02466 0.0234364 0)
(1.00428 0.0440065 9.24281e-22)
(1.00059 0.00400175 -1.96905e-21)
(1.0839 0.0192475 0)
(0.89173 0.0938673 3.12315e-20)
(0.0939181 -0.0192758 0)
(1.02447 0.0224482 -2.80459e-21)
(0.993858 0.00459989 1.02954e-22)
(-0.227534 0.0122632 -7.56885e-20)
(0.973165 0.456779 0)
(0.981413 0.000709521 -1.1948e-20)
(0.81166 -0.0509377 0)
(1.09608 0.0567427 0)
(1.04628 0.0216006 -5.55068e-21)
(0.495173 0.723571 0)
(0.805506 -0.0457346 1.59576e-21)
(0.952373 0.052769 1.94838e-20)
(1.06399 -0.0128667 7.50781e-21)
(0.255631 -0.0121552 4.12977e-20)
(-0.303985 -0.00402674 1.10856e-19)
(0.222687 0.0633973 1.22575e-19)
(1.03453 -0.0013491 0)
(1.2526 0.145007 0)
(1.20589 0.0805621 -1.58458e-20)
(-0.227618 0.000750821 -5.20494e-20)
(0.376774 -0.0675015 -6.57511e-22)
(1.09128 -0.0548978 0)
(1.01611 0.0268336 0)
(1.05388 0.015984 -8.88388e-21)
(1.02833 0.0440004 -2.67973e-21)
(1.01982 2.97999e-06 -2.61977e-21)
(1.02852 0.0656977 0)
(1.01744 0.00166763 -2.70862e-21)
(1.04811 0.0946201 -1.28647e-20)
(1.08501 0.132279 0)
(-0.0584877 0.022742 1.40707e-19)
(1.1512 -0.0453667 0)
(1.04023 -0.00348844 0)
(1.18554 -0.00610733 0)
(-0.0882971 -0.0273363 8.42441e-22)
(1.10521 0.123276 0)
(0.972629 0.0248537 6.81634e-21)
(-0.0953941 -0.0129017 0)
(1.03137 0.0199944 0)
(0.986801 0.0419717 0)
(0.817831 0.0661448 9.51493e-23)
(-0.0210697 0.0294588 0)
(0.998422 -0.000134142 -3.08382e-21)
(1.00452 0.0205145 2.1195e-21)
(0.456485 -0.0595015 3.01597e-20)
(1.11504 -0.0719703 -4.84504e-20)
(1.18721 -0.076623 -1.17774e-19)
(1.16573 -0.023327 0)
(1.12812 -0.0743317 -3.27442e-22)
(1.00817 0.0194068 0)
(1.21086 -0.00387695 -1.09973e-20)
(0.971719 0.0267669 7.91533e-21)
(1.00374 0.0111982 -2.31404e-21)
(0.969491 0.022745 8.39509e-21)
(0.571072 -0.0606981 2.11084e-20)
(-0.288656 -0.00890385 0)
(1.03286 0.00880488 -5.02959e-21)