/*--------------------------------*- C++ -*----------------------------------*\
| =========                 |                                                 |
| \\      /  F ield         | OpenFOAM: The Open Source CFD Toolbox           |
|  \\    /   O peration     | Version:  v2012                                 |
|   \\  /    A nd           | Website:  www.openfoam.com                      |
|    \\/     M anipulation  |                                                 |
\*---------------------------------------------------------------------------*/
FoamFile
{
    version     2.0;
    format      ascii;
    class       surfaceVectorField;
    location    "500";
    object      Uf_0;
}
// * * * * * * * * * * * * * * * * * * * * * * * * * * * * * * * * * * * * * //

dimensions      [0 1 -1 0 0 0 0];


internalField   nonuniform List<vector> 
20580
(
(1.15697 0.0470625 8.04295e-21)
(1.1576 0.0495292 6.31607e-20)
(1.15483 0.0480315 2.65074e-20)
(1.07664 -0.0257547 0)
(1.07714 -0.0269258 -6.40325e-21)
(1.07861 -0.025745 -1.48718e-20)
(1.07595 -0.0240514 0)
(1.07446 -0.0253025 0)
(-0.198703 -0.0128373 1.64187e-20)
(-0.175373 -0.0159228 -9.18292e-20)
(-0.198176 -0.0134359 -5.08197e-21)
(1.00223 -0.000571692 8.73159e-24)
(1.00201 -0.000529309 -5.02473e-22)
(1.0021 -0.000315704 2.07861e-22)
(1.08825 -0.0402265 2.55719e-20)
(1.08796 -0.0424431 7.3766e-21)
(1.08577 -0.0410946 9.9389e-21)
(1.06427 0.0132437 -5.17205e-21)
(1.0648 0.0142908 0)
(1.01426 -0.000912381 1.20032e-23)
(1.01394 -0.000930786 1.08887e-23)
(1.0132 -0.000575126 -6.73017e-24)
(0.222349 0.0372654 -1.39734e-21)
(0.227831 0.0377037 -8.64748e-21)
(0.201023 0.0340344 -1.17849e-20)
(0.990889 -0.00961153 -4.87876e-21)
(0.991281 -0.00890288 6.6028e-22)
(0.9917 -0.0094796 -6.24789e-21)
(1.17009 -0.106599 -6.0972e-21)
(1.16477 -0.106497 -1.29265e-20)
(1.1678 -0.111557 -3.37368e-20)
(1.00139 -0.00878036 1.71768e-21)
(1.00158 -0.00911209 -7.52689e-22)
(1.00143 -0.00920483 1.62613e-21)
(0.980923 -0.0216768 -3.28381e-21)
(0.980556 -0.022649 -2.53704e-21)
(0.981751 -0.0222292 0)
(0.0258115 0.0125793 -7.8982e-21)
(0.0137394 0.0104941 8.56161e-21)
(0.0309546 0.0145623 1.90403e-20)
(1.11135 0.00876322 -9.62808e-22)
(1.11333 0.00883553 -2.09669e-20)
(1.11192 0.00704988 1.02207e-20)
(1.10096 0.0684761 -9.20799e-21)
(1.09969 0.0681579 -5.66961e-22)
(1.10003 0.0697852 5.10244e-21)
(-0.296246 -0.00431365 -1.85123e-21)
(-0.316574 -0.00357757 1.02065e-19)
(-0.306138 -0.000787127 8.69564e-20)
(1.03742 -0.0204412 0)
(1.0384 -0.0204681 4.81402e-21)
(1.03804 -0.0214181 0)
(1.2184 0.0227945 0)
(1.22004 0.0203945 -2.48751e-20)
(1.21721 0.0236864 -2.47973e-20)
(1.15903 0.045887 -7.18772e-21)
(1.15629 0.0449603 -3.29912e-20)
(1.12573 0.00194362 1.08755e-20)
(1.12464 -6.96868e-05 1.20304e-20)
(1.12308 0.0021102 -1.3563e-20)
(1.0433 -0.0966749 3.43537e-21)
(1.03987 -0.0970339 2.61113e-21)
(1.04157 -0.0934712 -3.8164e-21)
(0.672531 -0.333777 0)
(0.524011 -0.268291 0)
(0.38659 -0.206002 0)
(1.00006 -0.00020381 -8.6471e-23)
(1.00009 -0.000270816 1.58579e-21)
(1.00006 -0.000171675 7.13174e-23)
(1.13599 -0.0161271 0)
(1.12298 -0.0165796 0)
(1.01761 -0.00699555 0)
(1.09941 0.0497251 3.06887e-20)
(1.0993 0.0507528 -9.94337e-21)
(1.10046 0.0503765 1.4089e-20)
(1.13558 0.080679 -1.98346e-22)
(1.14272 0.0816785 7.4138e-21)
(1.1402 0.0823905 -1.7282e-20)
(1.08001 0.0631108 3.16942e-20)
(1.08879 0.0637097 -1.97279e-22)
(1.01534 0.0650309 4.55809e-20)
(0.380948 0.048156 0)
(0.358622 0.0454311 -1.89454e-21)
(0.34917 0.0443864 -3.84684e-21)
(1.02235 -0.0128963 1.97814e-21)
(1.02196 -0.0133152 -1.52727e-21)
(1.02167 -0.0126218 2.06899e-21)
(-0.0911275 -0.0108619 4.26412e-20)
(-0.118272 -0.0108607 -2.83288e-20)
(-0.0757399 -0.0110209 5.19733e-20)
(1.06505 0.0127147 1.01441e-21)
(1.06368 0.012503 -5.08897e-21)
(1.14963 0.0510801 2.5703e-21)
(1.14786 0.052095 0)
(1.14792 0.0495087 3.16206e-22)
(0.279275 0.0516153 2.49375e-20)
(0.270283 0.0513583 1.27797e-20)
(0.320235 0.0555385 5.63456e-20)
(1.13416 -0.0917965 -1.54423e-20)
(1.13556 -0.0882197 0)
(1.13761 -0.0926722 0)
(0.385888 0.0467653 2.40962e-21)
(0.416243 0.0502991 1.68902e-20)
(0.395123 0.0466125 9.66312e-21)
(1.00002 -0.000132409 -2.80753e-21)
(1.00006 -0.000244017 -1.38231e-21)
(1.19606 -0.161309 -1.4689e-19)
(1.09978 -0.144765 6.53492e-21)
(1.07606 -0.137245 -4.22364e-20)
(-0.040814 0.0179455 0)
(-0.0264321 0.0189163 0)
(0.00184202 0.0195306 -5.24655e-20)
(1.00713 -0.0408997 7.61059e-22)
(1.00789 -0.0399595 -9.15278e-22)
(1.00834 -0.0412913 -1.90524e-21)
(0.120573 0.0396283 3.61232e-21)
(0.159902 0.043957 9.59715e-23)
(0.129584 0.0409361 -3.88476e-21)
(0.402683 0.0516394 6.57828e-21)
(0.41276 0.0520405 1.69667e-21)
(-0.273249 -0.00235091 1.2765e-20)
(-0.275758 -0.00349676 -4.18058e-20)
(1.09954 -0.476655 -1.46831e-20)
(1.08979 -0.483468 -9.50153e-21)
(1.08563 -0.489626 -6.07693e-20)
(0.421713 0.0565975 -8.63748e-21)
(0.411414 0.0555327 0)
(0.3858 0.0513368 -8.05205e-21)
(1.01618 -0.0244438 1.54917e-22)
(1.01541 -0.0244868 -1.45681e-22)
(1.01567 -0.0235982 -2.40654e-22)
(1.02053 9.40811e-06 -1.33527e-22)
(1.02032 5.02755e-05 2.85427e-21)
(1.11274 0.0671307 2.21848e-21)
(1.11197 0.068416 7.0747e-21)
(1.11157 0.0667371 -9.90903e-21)
(1.04932 -0.061973 -5.23507e-21)
(1.04737 -0.0599822 0)
(1.05009 -0.0599216 2.5426e-21)
(0.981291 -0.0205324 -3.65383e-21)
(0.979879 -0.020928 7.21635e-21)
(-0.234053 0.00563287 3.40476e-20)
(-0.232268 0.00478371 2.9612e-20)
(-0.26695 0.00343498 -5.8883e-20)
(0.973124 -0.0150426 1.69362e-22)
(0.974336 -0.0150871 8.2957e-21)
(0.973533 -0.0163226 -1.91516e-20)
(1.102 0.0687776 -1.13119e-20)
(1.1014 0.0675637 -3.3675e-20)
(1.08352 0.0237544 2.36267e-20)
(1.08478 0.024337 5.545e-21)
(1.08356 0.0250851 3.62053e-20)
(0.0724216 0.00950975 2.80258e-21)
(0.0898064 0.0131374 -3.8178e-20)
(0.0673031 0.00936729 -2.27588e-20)
(1.00657 -0.0418828 -1.25648e-24)
(1.00607 -0.0404715 -5.08164e-22)
(1.15083 0.05322 4.5499e-20)
(1.15161 0.0503535 -3.16116e-21)
(0.109102 0.0391196 9.38219e-21)
(0.0860401 0.0336899 -6.53327e-21)
(1.12291 0.0867044 -9.70384e-21)
(1.12413 0.0880393 1.85172e-20)
(1.12628 0.0879341 -3.67201e-20)
(-0.0872495 0.0104771 -1.06926e-20)
(-0.0772939 0.0105756 2.0819e-20)
(-0.0637891 0.0130917 2.40153e-20)
(1.00123 -0.00844145 -4.4512e-22)
(1.00136 -0.00836387 2.84228e-21)
(1.12813 0.0795497 0)
(1.13054 0.079066 0)
(0.995624 -0.00366075 -4.33002e-21)
(0.995702 -0.00408117 5.21672e-22)
(0.995214 -0.00409855 -3.73047e-21)
(1.04833 -0.0634845 -4.8594e-21)
(1.05083 -0.0632096 4.18888e-21)
(0.863958 -0.461437 8.24284e-21)
(0.888273 -0.456629 6.40984e-23)
(0.871843 -0.439424 7.21517e-23)
(0.837659 -0.465622 -8.29336e-22)
(0.856858 -0.490566 6.78016e-21)
(-0.0983483 0.00706269 -1.67418e-21)
(-0.11479 0.00615084 -2.65214e-20)
(0.699262 -0.12476 0)
(0.692773 -0.141097 0)
(1.0229 -0.0424758 0)
(1.02166 -0.0427135 -2.56463e-22)
(1.02214 -0.0413415 -8.32328e-22)
(-0.145733 -0.012173 1.97892e-20)
(-0.174561 -0.00914774 4.26623e-20)
(-0.162948 -0.00985626 0)
(-0.150968 -0.005908 -1.1846e-20)
(-0.180586 -0.00411931 8.13149e-20)
(-0.152936 -0.00721483 6.36424e-20)
(1.13431 0.00497907 1.93804e-20)
(1.1355 0.00314628 -8.03543e-22)
(1.13689 0.0053987 3.10351e-21)
(0.994884 -0.0285478 0)
(0.994047 -0.0282122 -2.10986e-21)
(0.994261 -0.0294184 5.29056e-21)
(-0.071543 0.0108353 -3.31241e-21)
(-0.100499 0.00622618 -2.93921e-21)
(1.09144 0.0219006 -1.62039e-20)
(1.0909 0.0205889 -8.53954e-21)
(1.09242 0.0209452 -1.5605e-21)
(1.02356 -0.079221 -7.65931e-22)
(1.02115 -0.0779317 3.03335e-23)
(1.02334 -0.0763211 6.16603e-22)
(-0.280424 -0.00443747 -4.36836e-20)
(-0.266166 -0.00394127 4.72831e-20)
(1.0227 -0.00637267 2.81267e-21)
(1.02252 -0.00675809 7.03535e-22)
(1.02327 -0.00673846 -6.87359e-22)
(1.14267 -0.0140837 -7.81696e-20)
(1.23123 -0.0246458 0)
(1.0058 -0.0195419 -5.33047e-22)
(1.00558 -0.0188344 -2.92224e-21)
(1.00523 -0.0192131 3.26128e-22)
(1.02426 -0.0425175 1.04072e-21)
(1.02357 -0.0439481 0)
(1.27254 -0.10147 -5.06594e-21)
(1.27281 -0.0955902 -2.95049e-21)
(1.27818 -0.101275 1.53879e-21)
(1.13032 -0.0914405 -1.71012e-20)
(1.13202 -0.0957251 8.94529e-22)
(0.00609143 0.0113651 -1.85992e-20)
(0.0149755 0.0117056 2.02334e-20)
(0.0283055 0.0157892 3.29602e-20)
(-0.0675944 0.0101952 4.66988e-20)
(-0.0490585 0.013756 0)
(-0.133077 -0.00834171 -8.00185e-20)
(-0.125487 -0.00862037 -4.5571e-20)
(-0.0952767 -0.0108365 -1.27496e-20)
(1.0454 -0.099366 -2.26002e-21)
(1.04643 -0.0957932 4.33106e-21)
(0.190989 0.0109014 -1.29949e-20)
(0.166347 0.00679727 1.34215e-20)
(0.191741 0.0118009 -9.46947e-21)
(0.991712 -0.0135566 3.1317e-21)
(0.992186 -0.0139854 -8.36246e-21)
(0.992259 -0.0131245 3.17469e-21)
(-0.0749246 -0.0120613 2.24331e-20)
(-0.111846 -0.00893546 8.85326e-20)
(0.971123 -0.0150815 -1.58307e-20)
(0.9725 -0.0133158 5.69698e-21)
(1.06588 0.0121648 3.18985e-21)
(1.06631 0.0131134 5.23578e-21)
(-0.266859 0.000306533 -9.31777e-20)
(-0.267363 -0.00163718 1.57013e-20)
(-0.142599 -0.00837434 -8.47169e-20)
(-0.166252 -0.00728266 5.81106e-20)
(-0.0503005 0.0220929 1.58965e-20)
(-0.0649774 0.018661 -4.84474e-21)
(-0.0825991 0.0166102 9.53934e-20)
(1.0914 -0.453873 1.28812e-20)
(1.08265 -0.435296 -1.61849e-20)
(1.06984 -0.447486 -3.43699e-20)
(1.01099 -0.0257369 -1.01863e-21)
(1.01027 -0.0257434 -2.367e-22)
(1.01099 -0.0266077 -6.9334e-22)
(1.10747 0.0696765 1.09005e-20)
(1.10603 0.0696053 1.07713e-20)
(1.1067 0.0684535 5.74725e-22)
(-0.182964 0.00698387 2.91779e-20)
(-0.181493 0.00611372 -2.33864e-20)
(-0.212754 0.00322844 -4.63856e-20)
(1.21567 -0.202701 3.18038e-20)
(1.22348 -0.203278 -7.93139e-22)
(1.2188 -0.210123 -2.29895e-21)
(1.10895 0.0700272 1.65465e-20)
(1.10769 0.0713849 6.92912e-21)
(0.807543 -0.126962 -6.5421e-21)
(0.805764 -0.116413 1.72972e-20)
(0.816747 -0.121037 1.76701e-20)
(0.814807 -0.160101 8.57683e-21)
(0.812847 -0.148417 1.93156e-20)
(0.801822 -0.156792 -3.84664e-21)
(0.989851 -0.0300772 -8.90671e-21)
(0.990835 -0.0303587 6.22839e-21)
(0.990049 -0.0315363 -3.15667e-21)
(1.01917 -0.02378 1.69779e-21)
(1.01978 -0.0245903 -1.47158e-21)
(1.01981 -0.0236448 -7.78223e-22)
(1.13896 -0.0116265 -9.42842e-21)
(1.14039 -0.0134629 -7.91245e-21)
(1.14164 -0.010438 -8.43562e-21)
(1.01856 -0.0229054 -3.07454e-22)
(1.01831 -0.023915 -1.86685e-22)
(-0.148936 -0.00642956 -8.00433e-20)
(-0.118806 -0.00900863 -1.99943e-19)
(1.06522 0.0111961 7.57199e-22)
(1.06673 0.0114828 -2.19947e-21)
(1.03654 -0.020446 -2.95257e-21)
(1.03687 -0.0196467 0)
(1.02929 -0.133185 -1.81848e-22)
(1.0314 -0.137652 -1.30035e-21)
(1.02607 -0.136509 4.478e-22)
(1.01696 -0.0245066 1.41075e-22)
(1.01687 -0.0254105 7.42284e-22)
(1.22191 -0.0295176 -3.81241e-22)
(1.221 -0.0262466 -4.88437e-21)
(1.22477 -0.0281163 -2.4303e-20)
(1.17167 -0.0525915 7.93675e-23)
(1.16834 -0.0512673 0)
(1.16874 -0.0549648 0)
(1.13751 0.0569026 -6.0218e-21)
(1.13596 0.0575957 4.83999e-21)
(1.13752 0.0587267 -7.96282e-21)
(1.08228 0.0231111 -7.45613e-24)
(1.08338 0.0224135 -6.935e-21)
(1.01529 -0.00849995 -1.43088e-22)
(1.01507 -0.00875791 -4.48721e-22)
(1.01567 -0.00885857 4.89978e-22)
(1.01464 -0.000805791 0)
(1.0147 -0.00122866 0)
(-0.221432 -0.00970312 -9.10571e-21)
(-0.202188 -0.0135895 -5.80989e-20)
(-0.121701 -0.0147095 3.46539e-21)
(-0.108878 -0.014732 2.09875e-20)
(1.11285 -0.363502 0)
(1.10366 -0.373864 0)
(1.11872 -0.374942 -1.3279e-20)
(1.03132 -0.0172909 2.26148e-21)
(1.03025 -0.0172266 -3.7858e-21)
(1.03064 -0.0165392 -1.6257e-21)
(1.01679 -0.0423857 3.3132e-24)
(1.0179 -0.0430907 4.16037e-22)
(1.01684 -0.0438522 5.88232e-22)
(0.0303972 0.0230658 8.41526e-21)
(0.049593 0.0265838 -5.60522e-21)
(0.0273186 0.023692 -5.28297e-21)
(1.19909 0.0378774 -1.98189e-21)
(1.20177 0.036541 0)
(1.20265 0.040221 2.71261e-20)
(0.602612 -0.204358 2.52209e-20)
(0.625744 -0.197282 9.76908e-20)
(0.621926 -0.227003 -1.96242e-20)
(1.01185 -0.0259564 -2.23257e-22)
(1.01115 -0.0248972 4.81644e-22)
(1.13628 -0.160661 1.1612e-20)
(1.13439 -0.154448 1.18544e-20)
(1.13088 -0.160023 1.31402e-20)
(0.169787 0.0435347 -1.09319e-20)
(0.136406 0.0399714 -3.47398e-20)
(0.16267 0.0430297 2.3178e-20)
(1.12399 0.013344 2.25986e-21)
(1.12562 0.0147303 -1.84517e-21)
(1.12533 0.0120202 3.21491e-21)
(1.03651 -0.0966103 3.61412e-21)
(1.03794 -0.0999764 2.93015e-21)
(1.10443 -0.0724383 -5.1691e-21)
(1.10582 -0.0691785 2.39984e-20)
(1.10206 -0.0703155 2.27859e-20)
(1.30593 -0.17968 -1.52944e-20)
(1.29289 -0.169546 -4.73586e-20)
(0.295379 0.0519817 1.57171e-21)
(0.249249 0.0486911 -3.13623e-20)
(1.1746 -0.107546 6.59475e-21)
(1.17183 -0.103092 8.14949e-20)
(-0.0522922 0.0205332 -5.64999e-20)
(-0.0787236 0.0198241 -1.29333e-20)
(-0.0882286 0.0189298 1.92568e-20)
(0.716334 -0.12299 0)
(-0.122789 -0.00845616 -1.05747e-20)
(-0.151804 -0.00661495 2.83361e-21)
(0.85285 -0.0960078 1.12744e-20)
(0.843534 -0.0946698 2.79726e-20)
(0.848501 -0.0874014 0)
(1.12125 0.0167485 -6.77414e-21)
(1.11921 0.0163245 5.52198e-21)
(1.12013 0.0184281 -4.72893e-21)
(1.27251 -0.108162 -8.33385e-21)
(1.26685 -0.102355 -9.56336e-23)
(0.974987 -0.049065 7.13525e-21)
(0.975076 -0.0469278 3.61233e-21)
(0.976879 -0.0477242 1.5867e-20)
(0.991167 -0.0132014 8.94867e-21)
(0.991086 -0.0141502 0)
(0.744252 -0.304235 2.03599e-20)
(0.72735 -0.31869 8.81002e-21)
(0.750751 -0.32225 8.65552e-21)
(1.10906 0.00863551 5.70259e-23)
(1.03258 0.0127995 -2.23466e-21)
(1.02778 0.0143658 -2.14603e-21)
(1.00994 -0.0750278 1.53217e-21)
(1.00964 -0.077133 1.23604e-21)
(1.00741 -0.0759432 -2.62518e-22)
(1.02284 -0.0059918 2.97976e-22)
(1.02217 -0.00607826 3.34836e-21)
(-0.154068 -0.00779674 -3.92104e-20)
(0.223378 0.0299574 -3.71628e-21)
(0.224817 0.0319277 -1.41709e-20)
(0.201127 0.0262082 8.93364e-21)
(1.13948 -0.165243 0)
(1.14186 -0.159711 5.6903e-21)
(1.10987 0.0690986 -1.43291e-20)
(1.11028 0.0706942 7.99823e-21)
(1.22281 -0.0335499 3.17213e-21)
(1.21856 -0.0313946 -5.37999e-20)
(1.17484 -0.0539065 -4.31299e-20)
(1.17438 -0.0502266 2.04075e-20)
(1.21044 0.0245582 -3.63213e-20)
(1.21223 0.0220158 2.20397e-20)
(1.20887 0.021679 -7.38508e-20)
(0.972841 -0.0246507 4.80734e-21)
(0.973577 -0.0260689 -5.13815e-21)
(0.971761 -0.026266 -1.18374e-21)
(0.983844 -0.0114535 -3.44876e-21)
(0.983237 -0.0108147 6.9893e-21)
(0.984229 -0.0105065 4.90178e-21)
(1.00152 -0.00715716 -1.16284e-21)
(1.00143 -0.0073028 -1.09797e-21)
(1.00132 -0.00682047 -2.26319e-21)
(-0.0534448 0.01673 0)
(-0.0752362 0.0140405 1.93263e-20)
(1.11821 0.0131202 5.44872e-21)
(1.11815 0.0150051 9.89141e-21)
(1.11686 0.0138024 0)
(1.06669 0.00168901 1.39545e-20)
(1.06739 0.00232567 0)
(1.0679 0.00133593 -9.08693e-21)
(1.00012 -0.000495753 -1.35675e-22)
(1.00013 -0.00043484 0)
(1.00019 -0.00059303 0)
(0.371639 0.0445252 -1.39738e-21)
(0.364294 0.0453771 -3.2705e-21)
(0.397657 0.0488776 -6.41552e-21)
(1.13808 -0.00890246 2.66301e-21)
(1.13604 -0.011975 0)
(1.1135 0.0657571 2.64907e-20)
(1.11431 0.0673923 1.31189e-20)
(0.0379042 0.0136587 -1.82189e-20)
(0.0194413 0.00909171 -1.66797e-20)
(0.307729 0.0481513 7.18751e-21)
(0.281139 0.0454893 -8.96248e-21)
(0.313476 0.0472856 5.513e-21)
(0.297573 0.0472489 0)
(0.338171 0.0511937 9.76052e-21)
(-0.238499 0.00569541 -1.52623e-20)
(-0.209466 0.00761214 2.1576e-22)
(1.03249 -0.12977 1.28198e-21)
(1.02753 -0.128731 -7.95133e-23)
(0.625647 0.0548537 -1.28047e-20)
(0.638721 0.0542174 -4.28448e-20)
(0.55646 0.0524001 5.96643e-21)
(1.00108 -0.00812869 -1.6769e-21)
(1.00094 -0.00779908 -7.46003e-23)
(1.00104 -0.00770971 -1.28658e-21)
(1.01558 -0.00821499 8.05008e-22)
(1.01494 -0.00807251 -3.59797e-23)
(1.15576 -0.0147714 2.66242e-20)
(1.15669 -0.0175525 0)
(1.1536 -0.016998 -1.31342e-20)
(1.00122 -0.000412633 3.91535e-22)
(1.0011 -0.000527769 1.29042e-21)
(1.00103 -0.000346458 -6.4184e-23)
(-0.040005 0.0233649 -1.23837e-19)
(-0.0153558 0.0244597 -4.5624e-20)
(1.15523 0.0744182 5.86008e-21)
(1.1464 0.0732119 3.79814e-20)
(1.15239 0.074667 -1.34313e-20)
(1.11932 0.0698722 -6.98575e-21)
(1.1209 0.0698165 1.63119e-20)
(1.11983 0.0714887 -1.40381e-20)
(1.01586 -0.00796878 -1.81526e-21)
(1.01618 -0.00834972 8.49812e-22)
(1.08949 0.023586 7.68348e-21)
(1.09052 0.0226996 -1.21676e-21)
(1.08893 0.0223782 8.07509e-21)
(1.11762 0.0701485 -1.50949e-20)
(1.11839 0.0684345 0)
(1.1966 0.0403298 6.84146e-22)
(1.19608 0.0361344 3.13909e-20)
(1.11516 -0.462666 3.48991e-20)
(1.03518 -0.126167 0)
(1.03327 -0.122008 -2.84102e-21)
(1.03761 -0.122552 1.39744e-21)
(1.12238 0.0152786 4.91833e-21)
(1.12159 0.0126845 -1.24401e-21)
(-0.290345 -0.00426279 5.18431e-20)
(-0.287402 -0.0026197 -1.90548e-20)
(0.240914 0.0337127 -1.771e-20)
(0.218752 0.027893 1.36585e-20)
(1.1462 0.0526164 0)
(1.14759 0.0541511 0)
(0.892354 -0.0704313 0)
(0.888013 -0.0663778 0)
(0.886852 -0.0730552 -3.92275e-20)
(0.977165 -0.0270924 4.556e-21)
(0.976657 -0.0258639 -4.17695e-21)
(0.978095 -0.0258002 1.34566e-21)
(1.02008 -0.0173664 -2.42521e-21)
(1.02014 -0.0180726 5.35878e-23)
(1.02091 -0.017718 -1.6229e-21)
(1.18477 0.00148987 -3.61439e-20)
(1.17928 0.00589789 2.32462e-21)
(1.11959 0.0121275 1.0129e-21)
(1.11764 0.0111994 -1.50486e-20)
(0.00340735 0.00807166 0)
(-0.00724534 0.00720374 0)
(1.08791 -0.0377471 6.3888e-21)
(1.09025 -0.0390137 -7.36026e-23)
(1.01013 -0.0726018 -2.19379e-21)
(1.01244 -0.0740208 -5.92156e-22)
(1.10471 0.0694381 1.58311e-20)
(1.10338 0.0690955 2.794e-21)
(1.10406 0.06803 1.81366e-20)
(1.1446 0.0527497 0)
(1.14491 0.0507227 0)
(1.04886 -0.0113297 5.31351e-21)
(1.04993 -0.0117772 2.55174e-21)
(1.04894 -0.0123188 5.32474e-21)
(1.04496 -0.0300798 4.73163e-21)
(1.04353 -0.0300594 -8.82362e-23)
(1.04421 -0.0289785 1.87553e-22)
(0.69922 -0.155012 2.83714e-20)
(0.719889 -0.15892 4.90098e-21)
(0.708692 -0.172336 1.74157e-20)
(1.27286 -0.113855 -3.09258e-20)
(1.27232 -0.12043 -5.47244e-20)
(1.26676 -0.115051 3.10235e-20)
(-0.0241282 0.0247019 -3.60631e-20)
(-0.00548032 0.0259336 -4.82484e-20)
(0.00743857 0.0269627 5.1968e-21)
(0.0855439 0.0380303 -2.63481e-22)
(0.0743745 0.0369731 -5.12191e-20)
(0.118133 0.0406669 -3.08594e-20)
(1.10938 0.00865272 -2.44772e-20)
(1.11057 0.0105124 -1.34073e-20)
(0.926145 -0.711496 0)
(0.923925 -0.764876 -3.41957e-20)
(0.975328 -0.76355 5.09176e-20)
(-0.051467 0.0233566 -1.0841e-20)
(-0.0385228 0.0240857 2.26556e-20)
(0.936712 -0.025655 3.39909e-20)
(0.939156 -0.0244504 -7.49777e-21)
(0.936494 -0.0225851 1.09866e-20)
(1.11246 0.0256349 -2.03667e-21)
(1.11333 0.0244169 -1.98548e-20)
(1.1116 0.0247171 -1.41562e-21)
(0.207744 0.0364131 -1.66216e-20)
(0.227753 0.0390778 -1.17997e-20)
(0.197378 0.0354048 -9.62201e-21)
(1.0813 -0.048311 0)
(1.0825 -0.0497196 0)
(1.08005 -0.0499926 -1.33937e-20)
(1.09867 0.0679169 4.77868e-21)
(1.09742 0.0678669 1.47581e-21)
(1.09777 0.0691662 -1.06004e-20)
(1.01598 -0.0420207 0)
(1.0167 -0.0414984 5.97393e-23)
(1.27815 -0.112932 4.40413e-20)
(1.0001 -0.00201927 1.12981e-21)
(1.00015 -0.0023648 -1.04191e-21)
(1.00013 -0.00243166 3.00186e-21)
(1.13805 -0.0844887 0)
(1.1401 -0.0818036 0)
(1.14136 -0.0864187 0)
(1.02558 -0.0849515 -3.07381e-21)
(1.02812 -0.0853612 -1.4724e-21)
(1.02661 -0.0876569 -1.5742e-21)
(0.981919 -0.0194361 -4.01054e-22)
(0.982636 -0.0202097 0)
(1.16965 0.0559758 -2.23006e-21)
(1.16954 0.058191 -3.83637e-20)
(1.17179 0.057168 -1.65134e-21)
(1.04886 -0.0215625 -4.05152e-21)
(1.04771 -0.0208431 2.36373e-22)
(1.04908 -0.0203263 -4.14035e-21)
(0.177464 -0.542852 -4.9921e-20)
(0.133081 -0.587969 -1.70311e-20)
(1.01557 -0.0075179 -3.25747e-22)
(1.01621 -0.00770919 -2.31755e-21)
(1.1609 0.0448043 1.40517e-21)
(1.16287 0.0434477 -2.05839e-20)
(1.16025 0.0425626 -1.96974e-20)
(-0.000847326 0.0112181 -3.92903e-20)
(-0.018825 0.00807905 -3.92746e-20)
(-0.0657184 0.0191536 -1.34218e-20)
(-0.0730658 0.0199944 5.53345e-20)
(-0.0344047 0.0215085 2.0169e-20)
(0.89843 -0.0793552 -9.90001e-21)
(0.903711 -0.0778394 -2.12855e-20)
(0.90209 -0.0837119 0)
(1.11147 0.0269705 -1.26886e-22)
(1.11323 0.0266728 1.33194e-20)
(1.00005 -0.00133069 -2.42149e-21)
(1.00002 -0.000994904 -2.19372e-21)
(1.00003 -0.00101008 -2.06907e-22)
(0.75435 -0.29032 1.07759e-20)
(0.734456 -0.284173 -1.76944e-20)
(1.00186 -0.0144937 0)
(1.00186 -0.0138514 2.19147e-21)
(1.00219 -0.0143302 -1.68575e-21)
(1.13433 -0.0833551 -3.73296e-20)
(-0.00706424 -0.0400433 -4.34171e-20)
(-0.0728341 -0.0333524 7.2905e-21)
(-0.049872 -0.0371125 6.17358e-21)
(0.895481 -0.0755475 -1.05231e-20)
(0.897306 -0.0690968 1.13402e-20)
(1.07971 -0.0463999 0)
(1.08235 -0.0460062 0)
(0.996521 -0.00176084 7.24733e-21)
(0.996154 -0.00209051 4.24722e-21)
(0.0570042 0.0353433 2.33778e-20)
(0.0926796 0.0372571 5.49838e-20)
(1.02314 -0.0130758 0)
(1.02269 -0.0123698 -2.14811e-21)
(0.858069 -0.40971 3.11318e-20)
(0.991093 -0.486733 0)
(0.0676124 0.0355764 -3.04456e-21)
(0.0585173 0.0339715 1.23759e-20)
(0.0979881 0.0373291 1.88454e-20)
(1.20759 -0.201804 -3.56949e-20)
(1.21259 -0.195134 6.80917e-20)
(1.00012 -0.000553454 -1.15411e-22)
(1.00007 -0.000397076 -5.96743e-22)
(1.28107 -0.335492 -2.79718e-21)
(1.30305 -0.33321 -1.08157e-19)
(1.31025 -0.347827 -2.57069e-21)
(-0.0620934 0.00964729 7.63008e-21)
(-0.054702 0.00957032 1.07898e-20)
(-0.0384525 0.014172 -8.70392e-20)
(0.46113 0.0610303 -5.36901e-21)
(0.43101 0.0569569 -9.20203e-22)
(1.09902 0.0670666 2.90555e-20)
(1.11428 -0.0158079 0)
(1.11451 -0.0182882 0)
(1.11198 -0.0166098 -1.11838e-20)
(0.717133 -0.35328 -2.68289e-20)
(0.710465 -0.333795 -2.8737e-20)
(0.692339 -0.34862 1.64691e-21)
(1.16786 0.0548232 1.80083e-20)
(1.16999 0.0537223 3.96623e-21)
(1.0899 0.0248143 9.40748e-21)
(1.08835 0.0244338 0)
(1.09391 -0.423983 1.5037e-21)
(1.07694 -0.420446 1.76178e-20)
(1.05074 -0.139495 0)
(1.04589 -0.139396 1.06322e-21)
(1.04852 -0.135415 0)
(0.132312 0.0105645 -6.35221e-21)
(0.114149 0.00832652 1.91888e-20)
(0.115398 0.00717334 -7.0218e-21)
(1.1851 0.0223699 0)
(1.18315 0.0251173 0)
(1.18212 0.0211476 0)
(1.01054 -0.000616639 2.00986e-22)
(1.01114 -0.000877043 5.93352e-22)
(1.01065 -0.00129947 -1.0715e-21)
(1.08942 -0.0165427 -1.93389e-20)
(1.08742 -0.0161845 1.53916e-21)
(1.08799 -0.0180417 -2.2763e-20)
(1.10507 0.0709085 6.84914e-21)
(0.373314 0.0434888 -9.39256e-21)
(0.348223 0.0419676 1.41707e-22)
(0.259541 0.0121968 1.49303e-23)
(0.278131 0.0158613 0)
(0.2682 0.0127425 -1.02438e-20)
(1.01939 -0.0170077 4.73571e-22)
(1.02005 -0.016787 -1.01963e-21)
(0.583756 -0.217967 -2.20124e-21)
(0.992614 -0.014353 -3.91663e-21)
(0.993072 -0.0147079 1.0375e-20)
(0.993159 -0.013911 3.66837e-21)
(1.15001 0.0625619 1.0168e-20)
(1.15164 0.0619478 2.63416e-20)
(1.15013 0.0607815 2.42472e-20)
(1.20353 0.0337248 -1.83276e-21)
(1.20551 0.031442 -1.66072e-21)
(1.20161 0.0314802 1.18166e-22)
(1.09089 -0.0172321 -1.12302e-21)
(1.09043 -0.0157401 2.62448e-22)
(1.13696 -0.0071073 -1.24954e-21)
(1.13917 -0.00613322 -2.72262e-20)
(1.18733 0.0207179 0)
(1.18784 0.0245308 2.04922e-20)
(0.999792 -0.0265779 -2.90142e-21)
(1.00051 -0.0273375 -6.01933e-21)
(1.00043 -0.0260364 -1.59746e-21)
(0.810069 -0.136901 -1.33863e-20)
(0.798295 -0.132488 -2.17475e-20)
(1.11549 0.0617935 1.33655e-20)
(1.11468 0.0632896 9.26788e-21)
(1.11398 0.061585 -1.81734e-21)
(1.11447 0.0699274 -3.07964e-21)
(1.10651 0.0688237 9.4638e-21)
(1.16339 0.0682737 2.2562e-20)
(0.997835 -0.00968367 1.91513e-21)
(0.998115 -0.00937021 -7.18743e-22)
(0.997896 -0.00907092 4.88516e-22)
(0.982471 -0.0184725 -3.30857e-21)
(0.981115 -0.0187428 -3.78968e-22)
(0.893337 -0.0810362 -1.94759e-20)
(0.284499 0.0478374 -4.23644e-21)
(0.29414 0.0481526 -4.20137e-21)
(0.324687 0.0516186 -9.66178e-21)
(-0.245743 -0.00608855 -8.78789e-22)
(-0.271858 -0.0040791 -7.93964e-20)
(-0.248182 -0.00670721 -5.25622e-20)
(1.1285 0.00711833 1.07857e-20)
(1.12737 0.00583295 1.7498e-20)
(1.12947 0.00543064 2.01497e-21)
(1.03227 -0.017376 -1.09036e-21)
(1.03189 -0.0181152 -3.0119e-22)
(1.19498 0.0421255 -4.91588e-21)
(1.19827 0.0435743 2.53042e-20)
(1.20878 0.0269507 0)
(1.20703 0.0293147 0)
(1.20536 0.0266781 -1.74227e-20)
(1.13995 0.0523825 -5.98993e-21)
(1.13791 0.0532863 1.15506e-20)
(1.13807 0.0511938 -1.40596e-20)
(1.13609 -0.00453978 2.05953e-20)
(1.13437 -0.00731385 6.23857e-22)
(0.27515 0.045997 0)
(0.250607 0.0419172 -1.37587e-20)
(-0.155531 0.00752701 -2.76608e-20)
(-0.152926 0.00690463 0)
(-0.184943 0.00463156 -4.4631e-20)
(1.09289 -0.0245494 -5.62167e-21)
(1.09321 -0.026284 -7.40916e-21)
(1.09479 -0.0246088 -1.03346e-20)
(1.10579 0.0056601 0)
(1.10741 0.00600551 0)
(1.10574 0.00722429 0)
(1.13798 -0.183422 0)
(1.10421 -0.172317 -4.28005e-20)
(0.958266 -0.140805 0)
(1.02174 -0.0224692 8.73945e-22)
(1.02225 -0.0233518 -4.66032e-22)
(1.021 -0.0228657 -5.04861e-22)
(1.00158 -0.00695568 -1.31556e-22)
(1.00164 -0.00677559 9.47761e-22)
(1.00144 -0.0064897 2.29536e-21)
(1.14156 0.0519176 -4.57515e-21)
(1.14113 0.0539597 2.42208e-20)
(1.15447 -0.125182 -2.33564e-20)
(1.15251 -0.120668 -3.03301e-20)
(1.14924 -0.124737 3.91314e-21)
(1.02394 -0.0131203 2.54967e-21)
(1.02464 -0.0132053 6.25848e-22)
(1.02414 -0.0126219 2.34891e-21)
(1.00019 -0.0023587 6.13352e-22)
(1.00016 -0.00235881 -1.95551e-21)
(1.00011 -0.00200502 -4.08149e-21)
(1.00185 -0.014959 0)
(1.00158 -0.0144991 2.95462e-21)
(1.0043 -0.000749892 1.57428e-22)
(1.00461 -0.00077332 3.76928e-22)
(1.00429 -0.00044749 -9.51094e-23)
(1.1095 -0.00807215 -3.07799e-20)
(1.11165 -0.00827902 -3.4557e-21)
(1.11088 -0.00620685 8.81574e-21)
(1.00173 -0.0074671 2.8042e-24)
(0.216273 0.0369403 9.56129e-21)
(0.245484 0.0403564 1.18136e-20)
(1.12802 0.00204118 7.70946e-21)
(1.12622 0.00385716 1.39261e-20)
(1.01319 -0.0343186 -2.32241e-22)
(1.01237 -0.0342813 -6.94649e-22)
(1.01309 -0.0351669 -4.24225e-22)
(0.359523 0.0398118 -1.30218e-20)
(0.0282657 0.0229595 0)
(0.0116916 0.021087 0)
(0.974265 -0.0205125 1.30288e-21)
(0.974815 -0.0218557 3.9408e-21)
(0.97575 -0.0206116 4.04091e-21)
(1.16144 0.0471867 1.95369e-20)
(-0.209844 0.00562699 5.74513e-28)
(-0.241734 0.00371161 -2.7616e-28)
(-0.208074 0.00510557 4.30174e-28)
(0.973177 -0.0503985 4.35627e-21)
(0.975457 -0.0511596 -5.4334e-21)
(0.973479 -0.0191595 -8.56702e-21)
(0.972363 -0.0207783 -4.68737e-21)
(1.12992 0.00110501 -1.08504e-21)
(1.13009 0.00357611 4.26878e-21)
(-0.0164231 0.00787021 -1.72829e-21)
(-0.0206042 0.00877759 -2.7503e-20)
(0.00212156 0.0121469 0)
(0.20842 -0.0127432 7.37391e-21)
(0.145779 -0.0097315 1.95483e-20)
(0.197585 -0.014853 -1.25298e-19)
(1.15632 -0.00308972 -6.19177e-20)
(1.1592 -0.00348964 2.85765e-20)
(1.15702 -0.00541379 -1.66915e-21)
(1.0025 -0.000554087 2.00841e-22)
(1.00239 -0.000789132 -1.62173e-22)
(0.61956 0.0555375 3.46225e-20)
(0.697913 0.0558973 6.58419e-20)
(1.00111 -0.00855909 -4.21471e-22)
(1.16195 -0.00379779 2.56934e-20)
(1.1632 -0.00647196 -5.40414e-20)
(1.1652 -0.00380386 -2.68463e-20)
(-0.214388 0.00579542 8.13829e-20)
(-0.185819 0.00904209 3.24929e-22)
(1.12011 0.070291 6.51386e-21)
(1.11879 0.0709382 -3.96169e-20)
(1.16618 0.0701668 -6.86018e-20)
(1.06589 0.000652487 1.02958e-20)
(1.06532 0.0016658 3.14441e-21)
(1.16745 -0.199442 0)
(1.25783 -0.222364 6.40788e-20)
(1.33279 -0.193203 1.32114e-19)
(1.32586 -0.187202 -5.14253e-20)
(1.32313 -0.194717 -7.64025e-21)
(-0.131701 -0.00566785 -2.28898e-20)
(-0.123264 -0.00498261 -1.45687e-19)
(-0.0946591 -0.0068746 -6.32863e-20)
(1.22372 -0.0369106 -3.48921e-22)
(1.22063 -0.0392009 -3.33537e-20)
(1.22472 -0.0406116 0)
(0.783948 -0.106023 4.3651e-20)
(0.784271 -0.0945343 1.83544e-20)
(0.771909 -0.0991976 1.39661e-20)
(-0.0267174 0.0216684 -4.19483e-20)
(-0.0160414 0.0227055 -4.20796e-20)
(0.069579 0.03064 -1.78381e-20)
(0.0896067 0.0335402 1.29329e-20)
(0.0641591 0.0301198 1.90548e-20)
(1.13168 0.0603008 -1.94559e-20)
(1.06105 0.0614331 -1.24889e-20)
(1.04635 -0.0302068 -2.90693e-21)
(1.04561 -0.0314294 4.25688e-21)
(-0.270458 -0.00334416 0)
(-0.247823 -0.00502767 0)
(-0.239503 -0.004541 -7.53571e-20)
(0.122261 0.00442713 1.61876e-21)
(0.125983 0.00364077 2.40369e-21)
(0.476047 -0.457385 0)
(0.443437 -0.430543 4.31199e-20)
(0.444439 -0.478278 -7.13215e-20)
(0.505229 -0.437212 0)
(0.514642 -0.479018 -3.7114e-22)
(0.934698 -0.0270749 2.64233e-20)
(0.936146 -0.0281437 2.27472e-20)
(1.15964 -0.0106191 8.05611e-21)
(1.15775 -0.0126114 2.60838e-20)
(1.16086 -0.0130236 2.76671e-20)
(0.945243 -0.123305 -2.81617e-21)
(0.94865 -0.118714 -3.97042e-22)
(0.951312 -0.124556 2.84634e-21)
(0.205462 0.0139295 4.86004e-22)
(0.185737 0.00890973 -1.05997e-20)
(0.790189 -0.1536 -3.10017e-20)
(0.788438 -0.140334 -2.00813e-20)
(0.775095 -0.14952 -3.43584e-20)
(1.00842 -0.00185948 -9.06298e-22)
(1.00839 -0.00221132 1.10842e-22)
(1.00879 -0.00207686 3.97751e-22)
(1.02055 -8.10746e-05 -1.08355e-23)
(1.02046 -6.99656e-05 -2.79354e-21)
(1.07266 -0.0848513 1.03539e-20)
(1.07572 -0.0855425 2.37028e-20)
(1.073 -0.0876449 -4.15869e-21)
(-0.163047 -0.00759011 5.16289e-20)
(-0.141115 -0.00635048 8.22597e-20)
(0.242946 -0.571952 -5.4633e-20)
(1.02236 -0.0220662 -1.20267e-21)
(1.02124 -0.0217275 1.69314e-21)
(-0.0937035 0.0188335 -7.69761e-20)
(0.934179 -0.120389 -2.00483e-20)
(0.940196 -0.122273 -1.7921e-20)
(0.937836 -0.116242 -1.318e-20)
(1.10338 -0.0749658 -2.5085e-20)
(1.10669 -0.0737402 -1.14799e-20)
(1.0684 0.00298206 0)
(1.06724 0.00324686 0)
(-0.0160054 0.00764709 -1.56289e-21)
(-0.0375846 0.00647508 -3.02009e-20)
(1.19243 0.0442738 3.58887e-21)
(1.19222 0.0405215 -7.86685e-21)
(1.10239 0.0704965 1.71011e-21)
(1.0246 -0.0819045 -2.13312e-21)
(1.02276 -0.0839074 -1.2155e-21)
(1.07822 -0.0449764 4.16059e-21)
(1.07736 -0.0468184 0)
(0.456257 0.04872 -3.66852e-21)
(0.461891 0.0480291 -7.48083e-22)
(0.435512 0.0452341 -5.63786e-21)
(0.976404 -0.0286105 1.09276e-20)
(0.977998 -0.028323 1.91275e-20)
(1.21225 0.0272747 -1.93122e-20)
(1.09088 -0.0241295 -9.17638e-21)
(1.09257 -0.0224012 -1.89125e-20)
(1.12979 -0.00103392 -2.8993e-20)
(1.13204 0.000655307 1.40479e-20)
(0.931323 -0.125542 -2.82745e-21)
(0.92794 -0.119081 9.40617e-21)
(0.992067 -0.0148304 -1.43791e-20)
(1.01443 -0.0345499 4.22107e-22)
(1.01354 -0.0333893 5.58721e-22)
(1.23241 -0.0958275 -1.19576e-21)
(1.2333 -0.100804 -1.37025e-19)
(1.23837 -0.0956489 -5.57301e-20)
(1.23145 -0.204583 -2.46541e-20)
(1.22773 -0.197101 2.38989e-20)
(1.18157 0.0268954 0)
(1.17965 0.0288766 0)
(1.17896 0.0254626 3.61511e-22)
(1.31401 -0.19162 1.46565e-20)
(0.446843 0.0481313 2.64218e-21)