/*--------------------------------*- C++ -*----------------------------------*\
| =========                 |                                                 |
| \\      /  F ield         | OpenFOAM: The Open Source CFD Toolbox           |
|  \\    /   O peration     | Version:  v2012                                 |
|   \\  /    A nd           | Website:  www.openfoam.com                      |
|    \\/     M anipulation  |                                                 |
\*---------------------------------------------------------------------------*/
FoamFile
{
    version     2.0;
    format      ascii;
    class       volScalarField;
    location    "950";
    object      k;
}
// * * * * * * * * * * * * * * * * * * * * * * * * * * * * * * * * * * * * * //

dimensions      [0 2 -2 0 0 0 0];


internalField   nonuniform List<scalar> 
13851
(
0.000155979
0.0256785
0.000191273
0.000155061
0.000191368
0.000165747
0.000147344
0.000179302
0.000139393
0.000191209
0.00361178
0.0297943
0.0179977
0.0186
0.000144143
0.000170377
0.00015851
0.000164002
0.00282735
0.000139277
0.000154534
0.000191005
0.000146221
0.000150118
0.000147553
0.000179854
0.000156607
0.00205788
0.000155502
0.000157624
0.000215033
0.000159171
0.000190215
0.00556184
0.00015022
0.000215344
0.00232377
0.000138687
0.000193115
0.00519932
0.000146062
0.000132641
0.00664021
0.00345866
0.00340704
0.0108109
0.00391315
0.00285395
0.000157071
0.00170392
0.000188251
0.000201216
0.0105596
0.000146084
0.000153955
0.000132773
0.000143852
0.0139341
0.000157079
0.00014816
9.92535e-05
0.0291661
0.000191189
0.000194704
0.000276171
0.000160045
0.00847413
0.00385525
0.000169278
0.000163609
0.0162262
0.0203436
0.0227944
0.000146987
0.000141445
0.000142188
0.000189959
0.0183033
0.000179515
0.0185453
0.000149876
0.00380924
0.000144368
0.0100982
0.000196245
0.0294882
0.000194601
0.00844484
0.000159156
0.000141251
0.000215923
0.000175114
0.00356093
0.000162637
0.00015875
0.000148557
0.000191892
0.0314089
0.00292205
0.000148629
0.0202061
0.000180725
0.000151891
0.00015555
0.000146381
0.000183272
0.000182865
0.000131583
0.0340518
0.000201082
0.00015016
0.000141699
0.000171589
0.000152238
0.000150149
0.0128067
0.0323364
0.000131616
0.000155034
0.00015723
0.00661167
0.000155352
0.0202836
0.00570119
0.00198891
0.00015557
0.00148746
0.000180221
0.000153881
0.000204206
0.00014578
0.000139172
0.0197563
0.000144291
0.0129955
0.000140929
0.00013169
0.0188766
0.031867
0.0245143
0.0204452
0.000153791
0.000149911
0.000136221
0.000155033
0.00345686
0.000208249
0.000203757
0.00014711
0.00319791
0.000187916
0.000153912
0.0188097
0.000144425
0.000153738
0.000154845
0.000143027
0.000154929
0.000201247
0.000188003
0.000134261
0.000162186
0.0133126
0.000139042
0.000164418
0.000134482
0.000235958
0.000169668
0.000153451
0.0214591
0.0158137
0.000136496
0.000143235
0.0244347
0.000138914
0.00382002
0.00017947
0.000150017
0.00335206
0.000131997
0.000160572
0.0232824
0.000144117
0.000192459
0.000133405
0.000146445
0.00016036
0.000148808
0.000194522
0.000196564
0.00388123
0.0118701
0.000142998
0.000169621
0.0299995
0.000153325
0.000149218
0.00313368
0.000149418
0.000142459
0.000157435
0.017099
0.000161206
0.00014376
0.000189488
0.000144275
0.0430635
0.000158711
0.0313912
0.000132748
0.0431033
0.000151504
0.00297998
0.000131497
0.000135561
0.00329962
0.000194038
0.0114693
0.000143509
0.0327249
0.000159051
0.000150091
0.0369415
0.000201518
0.045271
0.000147301
0.000165213
0.000148021
0.0152125
0.000131605
0.000178983
0.00111324
0.000136422
0.000142401
0.000185791
0.000181976
0.0448883
0.000291827
0.000136112
0.000143897
9.88117e-05
0.00618401
0.000137603
0.000190919
0.000144114
0.0422284
0.000181315
0.00393394
0.000155157
0.000160576
0.000170228
0.00611017
0.000150385
0.00015533
0.000180688
0.000532316
0.000195101
0.0211686
0.00557334
0.000144452
0.00013568
0.000162066
0.0152624
0.000139252
0.0103945
0.000153301
0.000150212
0.000161927
0.036112
0.00038011
0.000169929
0.00015376
0.00262128
0.000178092
0.000169646
0.000139299
0.00346695
0.000658733
0.0484833
0.00354901
0.000137565
0.000132274
0.000146115
0.000179738
0.0153195
0.00684841
0.00014078
0.000144178
0.00463911
0.0038935
0.000214611
0.000156354
0.000148297
0.000171631
0.00397528
0.00899442
0.00016337
0.028431
0.000139556
0.0428378
0.000161636
0.000158331
0.0477154
0.000148965
0.000187284
0.0394827
0.000140498
0.000176291
0.000162839
0.000155785
0.0356942
0.000163688
0.000150144
0.0356048
0.000133145
0.000161014
0.000173504
0.0483901
0.000197064
0.000143547
0.000181167
0.000143769
0.0129938
0.000187334
0.000145894
0.000145973
0.000196663
0.000164343
0.000153408
0.000144181
0.000148809
0.00014996
0.00349581
0.0205366
0.024065
0.000166177
0.0476044
0.0270155
0.000143756
0.000170307
0.000215192
0.00018277
0.000195112
0.000197531
0.00255229
0.000159575
0.0080593
0.0409947
0.000144395
0.002598
0.00284432
0.00367496
0.000153375
0.000198431
0.0155903
0.000143633
0.00573111
0.000145906
0.000143819
0.000141966
0.000131663
0.000142096
0.0417751
0.00306989
0.000145494
0.000175202
0.000133838
0.0278693
0.000176397
0.00556651
0.0232019
0.000145772
0.000200997
0.0001631
0.0057703
0.000144845
0.00013173
0.000170817
0.019763
0.000144981
0.0377412
0.000182134
0.000198414
0.0169532
0.00404196
0.00403205
0.000160669
0.000139668
0.000150556
0.000164761
0.000180816
0.0179368
0.000169543
0.0456843
0.0401212
0.000133947
0.000144565
0.0224343
0.0212519
0.000537517
0.0333657
0.000172365
0.000163987
0.00014862
0.0232647
0.000137715
0.000169672
0.000158044
0.000146625
0.000147422
0.000140184
0.000134379
0.000193872
0.00018966
0.0175867
0.000163878
0.000182417
0.000177325
0.00519285
0.000162294
0.00691721
0.000157779
0.00279318
0.00013159
0.000139932
0.000147932
0.000399342
0.00436943
0.000200828
0.000175021
0.0136052
0.00565308
0.000191033
0.000159912
0.000186141
0.000144532
0.00507765
0.000145988
0.0206818
0.00415974
0.000188038
0.0284636
0.000150166
0.000541321
0.0042629
0.0196578
0.000131812
0.00016572
0.00018012
0.000432939
0.000137192
0.00015006
0.000186718
0.000198542
0.000168863
0.0264341
0.000147261
0.000146543
0.0105474
0.000165584
0.000132017
0.0123451
0.00013959
0.000155955
0.000137995
0.000179079
0.000153779
0.000132435
0.000149657
0.0349042
0.00014454
0.000171536
0.000140206
0.000164527
0.00130992
0.000153058
0.000145915
0.00015238
0.000152239
0.00707553
0.000150057
0.000178936
0.000144031
0.000147119
0.0214113
0.0267933
0.000144588
0.000165971
0.000162423
0.00659277
0.0102387
0.000146622
0.00306876
0.000145141
0.000191763
0.000147336
0.0158369
0.000133208
0.0102156
0.000196688
0.000132767
0.000165399
0.0264423
0.000179723
0.00352441
0.00015496
0.00770052
0.00015733
0.000138482
0.000139464
0.000146444
0.0258822
0.00018627
0.000199009
0.00268326
0.000188757
0.000134708
0.0254426
0.00450958
0.000160745
0.000162536
0.00669205
0.00588505
0.0422264
0.00015299
0.0161962
0.0104604
0.0161924
0.000164831
0.000167408
0.00157962
0.000642744
0.000420577
0.00303276
0.0305904
0.000155427
0.0321516
0.0241891
0.000131816
0.000524391
0.00018672
0.021839
0.000155633
0.000143057
0.000142682
0.000144719
0.000193998
0.000178154
0.00505783
0.0252098
0.000139873
0.00954638
0.0272965
0.00110656
0.00446654
0.000171046
0.000131527
0.000139653
0.000687497
0.0278054
0.00015398
0.000191874
0.000213187
0.00013265
0.000187859
0.00342502
8.87907e-05
0.000197975
0.0272976
0.0246032
0.000145464
0.000146759
0.0222208
0.0394643
0.000198059
0.000169309
0.000201815
0.000131897
0.000142393
0.0226498
0.000132366
0.000155454
0.000131884
0.000139608
0.0258375
0.000193812
0.00017089
0.000132278
0.0411525
0.00301984
0.000139766
0.000141966
0.000139538
0.000149709
0.0197292
0.00346979
0.00326238
0.0185168
0.00771167
0.000167683
0.0176977
0.0284893
0.000160915
0.000169793
0.000131503
0.000170122
0.000171463
0.0328718
0.0114145
0.000191465
0.000164559
0.000138806
0.00017032
0.000149999
0.00363889
0.000188639
0.00014389
0.000167143
0.000137182
0.000161479
0.00020195
0.000147774
0.000144243
0.00017629
0.000147994
0.000191862
0.00028121
0.000199967
0.000171028
0.000198799
0.00013863
0.000224669
0.000174622
0.0193861
0.000151193
0.000148999
0.0309434
0.000156079
0.0152947
0.0408813
0.0134771
0.0130622
0.000137674
0.0240767
0.000138424
0.000139592
0.000133176
0.000139681
0.000149733
0.000164516
0.000177097
0.000132036
0.0306624
0.00019828
0.0319329
0.000141892
0.000135056
0.000143134
0.000215078
0.0311183
0.000180899
0.000161886
0.000138826
0.000147696
0.000145997
0.000143855
0.000153024
0.0302679
0.000147678
0.000131934
0.000146585
0.000143725
0.00756271
0.0121907
0.000170755
0.0294083
0.00693627
0.000143966
0.000199015
0.0197062
0.000171099
0.0304378
0.000149834
0.000162393
0.000180509
0.000162542
0.00284357
0.00014442
0.00215571
0.000146751
0.000165114
0.0314904
0.000143001
0.000154468
0.000195785
0.000138592
0.000159707
0.0121172
0.0187769
0.00018818
0.00706417
0.00389853
0.000131619
0.000141593
0.0226125
0.000213206
0.000185165
0.0413412
0.000138524
0.000166308
0.000131924
0.0072613
0.00913094
0.000160778
0.000150224
0.0015415
0.000157071
0.000142841
0.00887553
0.000933833
0.0316959
0.000132994
0.000147505
0.0182171
0.00680185
0.000205255
0.000149132
0.0361186
0.000144408
0.00229069
0.000206403
0.000189512
0.000159118
0.0118651
0.000165503
0.000152736
0.00198167
0.000148424
0.000161245
0.000154262
0.00013844
0.00966192
0.000168629
0.000197918
0.000169527
0.00089212
0.000139039
0.0127294
0.000153372
0.000165209
0.000135816
0.000143458
0.000145143
0.038764
0.000142378
0.000132052
0.000596089
0.000147063
0.0224043
0.000147119
0.000149617
0.000187098
0.0121914
0.00353627
0.000141374
0.000203721
0.0301555
0.000150225
0.0399803
0.000164777
0.000138138
0.00018476
0.0074526
0.000352706
0.000161058
0.000140955
0.0001317
0.00490775
0.000191543
0.000190267
0.000162626
0.000183104
0.000150595
0.000149275
0.000191551
0.0038933
0.000194131
0.0143887
0.000147206
0.000192104
0.00019111
0.0483499
0.000160512
0.0312753
0.00147329
0.000147186
0.0111441
0.000240234
0.0299763
0.0169661
0.0355484
0.00455525
0.000176363
0.000138293
0.000164174
0.01513
0.0102137
0.00014536
0.000147466
0.000186573
0.00361251
0.000132764
0.00967367
0.000138261
0.000145389
0.0104613
0.018137
0.00382158
0.000139551
0.000143933
0.00815641
0.00013931
0.000196811
0.000155114
0.0264952
0.000282216
0.03117
0.000182559
0.000174697
0.000150204
0.000147142
0.0199834
0.000179124
0.0200944
0.000177999
0.000169134
0.00953457
0.0296648
0.0244312
0.000145203
0.000166032
0.000139656
0.000171524
0.00015424
0.0297187
0.000166751
0.0374297
0.00013264
0.000186686
0.000143022
0.00017425
0.0001683
0.000165616
0.030012
0.000176291
0.000181071
0.000150642
0.000186827
0.00512003
0.000216121
0.000155741
0.0161122
0.000138671
0.0165829
0.00323033
0.00014872
0.0436332
0.0199892
0.0241546
0.00461746
0.000177217
0.000145198
0.0303136
0.000167702
0.012201
0.0318228
0.000141872
0.000152809
0.000432818
0.0029059
0.0284854
0.000147517
0.000141128
0.0237378
0.0313173
0.000198121
0.000160217
0.000153299
0.00329527
0.0122153
0.000192023
0.000132102
0.000176759
0.000138692
0.000158462
0.00369323
0.000148904
0.0208865
0.00376239
0.000145635
0.000150377
0.000145449
0.000154427
0.0175834
0.025508
0.000165186
0.0324443
0.000142921
0.00016531
0.000144796
0.000138804
0.000148316
0.000145442
0.0239517
0.000144671
0.000180657
0.000145362
0.000161264
0.0038809
0.00599825
0.000155132
0.0213979
0.000191216
0.00374913
0.000169228
0.000169378
0.0175237
0.000161434
0.000179271
0.0296678
0.00934116
0.0119508
0.000175549
0.00326883
0.00015072
0.000174973
0.000181154
0.0288928
0.000144668
0.0274493
0.00014137
0.000142124
0.0174685
0.000149088
0.0101685
0.000159648
0.000139594
0.000181756
0.000139684
0.00014397
0.000140636
0.000149558
8.34761e-05
0.000142091
9.01284e-05
0.012595
0.000187532
0.0212605
0.000146839
0.000153445
0.000192324
0.000144974
0.000139431
0.000189703
0.00014972
0.000141457
0.000150493
0.000147594
0.0225145
0.0311512
0.000206683
0.0334513
0.000399063
0.000142385
0.00856849
0.000164301
0.000141868
0.00377052
0.00038105
0.00111169
0.000141944
0.00374727
0.00319943
0.0174925
0.000136675
0.0182686
0.000167631
0.00015646
0.000142171
0.000138543
0.0392749
0.000209409
0.00849133
0.000142502
0.000143898
0.000991801
0.000148804
0.0107023
0.00386543
0.00518143
0.00354068
0.003039
0.000147387
0.00014535
0.00020181
0.000165585
0.000155692
0.000214273
0.000176816
0.000149907
0.000153022
0.032819
0.000141709
0.0219826
0.0114958
0.012872
0.000165012
0.000152612
0.000136975
0.000149527
0.00407904
0.00547199
0.00013667
0.000155044
0.000142246
0.000189617
0.000133465
0.000141799
0.000150291
0.00016876
0.00643263
0.000180578
0.000167281
0.000145537
0.000180269
0.0149625
0.000151082
0.011588
0.016824
0.000189882
0.000134764
0.000176997
0.000143049
0.000146313
0.000149129
0.0182597
0.000196993
0.00435149
0.000155783
0.00193917
0.000143446
0.00014694
0.000149054
0.00961406
0.000333831
0.000133938
0.000168378
0.000193896
0.0274962
0.00015295
0.0213269
0.000152246
0.0409952
0.000188695
0.0383926
0.000191853
0.000189846
0.000367513
0.0287316
0.00345513
0.0195904
0.000144085
0.000212172
0.00013333
0.000155927
0.000160043
0.000148384
0.0288089
0.000165892
0.000162632
0.00398764
0.000216244
0.00481312
0.000143649
0.000155566
0.000161616
0.000137646
0.000165409
0.0246808
0.00650184
0.0161081
0.00014072
0.000161498
0.000156053
0.0040456
0.0335112
0.000201042
0.0001369
0.000149349
0.0160306
0.000178894
0.0303415
0.0285372
0.000186636
0.000134597
0.0182984
0.000164954
0.000177596
0.000163906
0.0415541
0.00374554
0.000200908
0.000230233
0.000152196
0.00016266
0.000145353
0.0116748
0.000186303
0.0273699
0.00190623
0.000159861
0.000202504
0.000153296
0.0416043
0.000393144
0.000143665
7.6285e-05
0.0328292
9.9417e-05
0.0312699
0.000146678
0.000145687
0.0180504
0.0169453
0.014248
0.000155903
0.000146685
0.000145699
0.0228199
0.00020061
0.000149503
0.000632377
0.00019288
0.0442065
0.0167798
0.0074973
0.000144484
0.0331338
0.000157796
0.000145744
0.000200773
0.030575
0.000147463
0.000141364
0.00483318
0.0398992
0.000150265
0.000140615
0.0275637
0.000143132
0.000862427
0.000140719
0.00552885
0.000145748
0.000181029
0.0143848
0.033764
0.000152544
0.00717992
0.00380889
0.0321493
0.00923114
0.0400739
0.000184617
0.000142752
0.0135308
0.000153249
0.000143767
0.000137542
0.00121178
0.000143725
0.00130759
0.000141584
0.000153299
0.0175403
0.000186574
0.0181243
0.000153934
0.000293534
0.000139335
0.000167965
0.0187589
0.0208371
0.000140555
0.00018694
0.00377863
0.000148787
0.000138742
0.0313328
0.000169979
0.000172279
0.000199074
0.0228094
0.000417959
0.0155827
0.0286955
0.00019125
0.00328729
0.00519338
0.00129365
0.000187115
0.000137811
0.000198108
0.000142719
0.000142505
0.0313723
0.0315202
0.000154968
0.0198873
0.00033576
0.0212188
0.000818431
0.000261351
0.000144448
0.000482494
0.000846941
0.000141871
0.000152891
0.0398359
0.0327455
0.0244131
0.0403637
0.000176287
0.0404109
0.0416466
0.000167452
0.000147604
0.000143071
0.00391409
0.000141721
0.000255769
0.000152917
0.000150817
0.000155496
0.0171883
0.0467278
0.0206286
0.000150308
0.0199069
0.000159736
0.000166923
0.000141128
0.000143543
0.0132427
0.000162931
0.0288573
0.0195292
0.000474014
0.000196321
0.000144579
0.000177037
0.000148689
0.000200719
0.000149674
0.0001536
0.000149867
0.000153574
0.000206532
0.000150986
0.000171436
0.000142067
0.000172079
0.000113413
0.0183731
0.000143525
0.000179846
0.000148481
0.000208113
0.000166153
0.0268628
0.000206157
0.000166886
0.00015573
0.000153329
0.00161106
0.000145105
0.00101941
0.000144057
0.000142959
0.00014886
0.0362321
0.000161907
0.000158857
0.000170016
0.00014705
0.000184851
0.0342866
0.00842025
0.000171253
0.000145313
0.000493781
0.000138653
0.000143755
0.000164907
0.0375825
0.000146988
0.000168125
0.000224726
0.021752
0.000149627
0.000150733
0.0356271
0.000152946
0.00102575
0.000386834
0.0468847
0.000146015
0.0001864
0.000143559
0.0445056
0.00019895
0.000176639
0.000196833
0.0211659
0.000151972
0.0440652
0.0319784
0.000148843
0.0192055
0.000190039
0.00015309
0.01383
0.000146976
0.000145597
0.000137872
0.000217071
0.000819279
0.000209728
0.000153802
0.00015133
0.000164909
0.00346754
0.00126792
0.0458999
0.00342053
0.000150402
0.000199075
0.000203774
0.0133794
0.000187897
0.00372337
0.000141867
0.000169901
0.000138749
0.000424426
0.000175
0.000143484
0.0307555
0.000214389
0.000168929
0.000173488
0.000132876
0.00014705
0.000183325
0.000170943
0.000966699
0.000187346
0.000187047
0.000186684
0.000200396
0.0355633
0.000206695
0.0453728
0.000143765
0.000141371
6.7997e-05
0.0232408
0.0124906
0.000182033
0.000152161
0.017785
0.00374261
0.000143249
0.000160486
0.000139842
0.000175363
0.000187516
0.00027155
0.0113805
0.00122321
0.000152997
0.0301968
0.0153951
0.000144378
0.000213122
0.0299086
0.0121271
0.000156023
0.000188122
0.000131544
0.000159056
0.000142018
0.000159965
0.0459861
0.027062
0.00975217
0.0190734
0.000152578
0.000171836
0.000184595
0.000144946
0.000149075
0.00013858
0.0325228
0.00014144
0.0418637
0.000174478
0.000184787
0.000217104
0.000117718
0.0197634
0.0237852
0.000174887
0.000134172
0.000156255
0.0203593
0.0100793
0.000158187
0.000139599
0.000139091
0.00018656
0.000166891
0.000202752
0.0395025
0.000152336
0.000138099
0.000197423
0.00039632
0.0172905
0.0165139
0.000140723
0.000188846
0.000148416
0.0477806
0.000135567
0.0414114
0.000143168
0.000152104
0.000166415
0.000149521
0.000201089
0.000165709
0.000179356
0.0166265
0.0333888
0.000159125
0.000166051
0.00014422
0.0221799
0.0178527
0.000148336
0.000135834
0.00396813
0.000131448
0.0268792
0.000147966
0.000170192
0.000187471
0.00177112
0.000176569
0.000152871
0.00014672
0.000186974
0.0402774
0.00014284
0.000349909
0.0202282
0.0162584
0.000558566
0.000171379
0.0226787
0.000158599
0.000533857
0.000143382
0.00310933
0.00355368
0.0100704
0.0128468
0.0393828
0.000150804
0.000209483
0.00014134
0.0137977
0.00371367
0.0387264
0.0156897
0.000162818
0.0357374
0.00380807
0.000172768
0.000153907
0.000147725
0.0290339
0.000160481
0.000186749
0.000155389
0.000149158
0.000138797
0.000148018
0.0315092
1.34126e-05
0.000167981
0.0169841
0.0118337
0.000147148
0.000143996
0.000138739
0.000161739
0.0401918
0.000127941
0.000160522
0.000171039
0.000329273
0.000189758
0.000177824
0.00826371
0.000167008
0.044638
0.000165155
0.000164775
0.000143616
0.000154939
0.000188407
0.00344179
0.002727
0.032026
0.000188608
0.0374686
0.000155763
0.000157567
0.000147296
0.0110693
0.0246343
0.00687147
0.000470648
0.000155449
0.000145548
0.000142429
0.000144054
0.000138783
0.0104651
0.000165552
0.0113619
0.0001697
0.0300514
0.0213406
0.0424551
0.00019335
0.000159879
0.0150412
0.000176615
0.00252271
0.0314608
0.000138369
0.000896842
0.000162308
0.0191215
0.0083663
0.000172358
0.000705775
0.00424221
0.000156335
0.000190099
0.000166179
0.0227939
0.0030267
0.00015663
0.000146811
0.00322664
0.000791493
0.000201744
0.00252952
0.000198378
0.000162747
0.000143643
0.0200565
0.0361318
0.0001886
0.000166258
0.0322326
0.0199586
0.00014157
0.000144718
0.00015715
0.0391264
0.036079
0.000143834
0.0222032
0.000150608
0.000143425
0.000148789
0.0166224
0.00096173
0.000444082
0.0119649
0.000154366
0.00015352
0.000141625
0.00895825
0.000152069
0.0364825
0.00015699
0.0275593
0.000149309
0.000142808
0.000200767
0.00995907
0.00382487
0.000172831
0.0264782
0.000136672
0.000146947
0.000144887
0.000178317
0.000186844
0.000186635
0.000174959
0.0365986
0.00015731
0.000202464
0.000108263
0.0331363
0.000146956
0.0273
0.0333357
0.000157938
0.00584588
0.000185607
0.020726
0.000148195
0.000189019
0.000144235
0.00155917
0.0157465
0.00021248
0.0429628
0.000155918
0.000178872
0.00015295
0.023357
0.000134822
0.000139724
0.00328184
0.000190386
0.0223145
0.0180493
0.00018497
0.000164518
0.000137697
0.0283458
0.000166105
0.000142159
0.000201793
0.000139928
0.000176915
0.000145592
0.0163185
0.000154792
0.00356223
0.00232354
0.000167842
0.00091603
0.000183898
0.0480831
0.000146413
0.0122369
0.031259
0.000139546
0.000144662
0.000154237
0.000149489
0.000174957
0.000143988
0.00273591
0.000188626
0.00241901
0.000214035
0.000148194
0.000150067
0.000138032
0.0263197
0.000147249
0.000145578
0.000190819
0.000155977
0.0282789
0.042404
0.000191378
0.000157723
0.000170468
0.000153384
0.000150589
0.000184453
0.000136397
0.000156337
0.00994899
0.0434542
0.00424605
0.00015325
0.0110827
0.000323474
0.000149528
0.00151563
0.034786
0.000143901
0.00015531
0.000143278
0.0289258
0.0206716
0.00603681
0.00013632
0.000156859
0.000154032
0.000147003
0.000200929
0.000148529
0.000482047
0.00701497
0.043838
0.000138311
0.000156156
0.000154903
0.0249314
0.000132913
0.0184845
0.0117698
0.00219578
0.0103049
0.0237902
0.0329667
0.000152225
0.00526831
0.00276902
0.000151832
0.000137484
0.000140592
0.0423027
0.0113693
0.0111636
0.00014633
0.0453024
0.000148082
0.000217676
0.00013877
0.000155212
0.000151699
0.000138174
0.0233059
0.000151954
0.0286983
0.0189616
0.0171951
0.000179726
0.000180458
0.0191545
0.0394836
0.000149047
0.00676298
0.000138028
0.00013178
0.000143729
0.00058798
0.000140527
0.01691
0.000166276
0.000775228
0.000176158
0.0112137
0.0174775
0.000220299
0.000137939
0.000185009
0.000187931
0.0218574
0.000146985
0.000135093
0.000157766
0.0322066
0.000148543
0.00169408
0.01571
0.000175676
0.000185632
0.000147244
0.00477241
0.000149404
0.0414401
0.000135529
0.00877263
0.000166536
0.000146674
0.0164083
0.0149938
0.000135194
0.00018539
0.000158318
0.0107132
0.00037819
0.000291882
0.00112681
0.000149637
0.000185625
0.0292351
0.000142704
0.000560562
0.000153659
0.000188676
0.000168106
0.0130721
0.0259272
0.00014706
0.0273929
0.000152276
0.00017784
0.0326345
0.0153027
0.000174309
0.0286591
0.000185639
0.000146926
0.00163629
0.000198218
0.000166402
0.000151838
0.0297712
0.000135474
0.0165339
0.000838004
0.000199203
0.000143515
0.000166047
0.027311
0.000178251
0.0306511
0.000150786
0.000156359
0.000198861
0.0291208
0.00015981
0.0406203
0.00529892
0.0175209
0.000148955
0.0276724
0.0126045
0.0259723
0.000144147
0.000152142
0.000146515
0.0422758
0.000182286
0.00479267
0.00433492
0.000149916
0.000137493
0.000143966
0.0249088
0.0204067
0.020329
0.0176447
0.000141362
0.0272273
0.0379691
0.000198744
0.0114179
0.0287807
0.000173172
0.0153423
0.000154897
0.00015924
0.0266312
0.021461
0.000151858
0.0200163
0.000149781
0.000144904
0.0435947
0.0260021
0.0431472
0.0146359
0.0001683
0.000149826
0.000159483
0.0387582
0.0141249
0.000142789
0.000177781
0.00590539
0.000145014
0.000147619
0.0314084
0.0326916
0.000154709
0.000144405
0.000151528
0.000153403
0.000278956
0.000149445
0.000144559
0.000160759
0.000233279
0.0376526
0.00170917
0.0299741
0.000147312
0.000158993
0.0320856
0.0390709
0.000165034
0.000384438
0.00014339
0.000171838
0.000152937
0.000159319
0.00018622
0.000144197
0.0142836
0.000170782
0.000141745
0.000158235
0.015996
0.0281147
0.0240983
0.000145196
0.00017055
0.0407647
0.00623611
0.000156553
0.000146491
0.000144778
0.00301225
0.000147835
0.000148232
0.000163645
0.000144504
0.0324579
0.000393769
0.000149629
0.000157452
0.000135663
0.000148451
0.0236514
0.00617649
0.000188035
0.0121849
0.000196526
0.000150146
0.00014324
0.000146767
0.000146169
0.000149362
0.000164321
0.000192803
0.0324135
0.00015222
0.000198184
0.0242028
0.00086143
0.000144924
0.000139842
0.000155048
0.0418207
0.000145629
0.0053955
0.00157157
0.000181546
0.000146629
0.0156479
0.000136245
0.000603605
0.000137425
0.000136457
0.000148815
0.000141617
0.000176536
0.0203035
0.000600541
0.000174511
0.0146392
0.00027961
0.000365831
0.000167594
0.0262395
0.0130386
0.000198706
0.0352732
0.0327132
0.000196443
0.00458448
0.00014959
0.000140587
0.0247436
0.000142518
0.000157613
0.0398954
0.000604304
0.0265526
0.000200573
0.000140504
0.000161018
0.000147226
0.000380364
0.000138548
0.00173277
0.0230293
0.0314711
0.00691246
0.000147405
0.000135885
0.000187984
0.0185202
0.0327162
0.000200474
0.00663441
0.000140657
0.011458
0.0291249
0.000168451
0.000156947
0.000147813
0.000136334
0.000155308
0.000147733
0.00014665
0.00015709
0.0312159
0.000189668
0.0282352
0.000789788
0.00609837
0.000215503
0.000143271
0.00014253
0.000148439
0.000138684
0.000149387
0.00751836
0.0278041
0.00547089
0.0450419
0.000154799
0.0185219
0.000208548
0.0409982
0.0325551
0.000148053
0.000141554
0.00492908
0.000147577
0.000135344
0.00387501
0.0325857
0.0149895
0.000145512
0.000147368
0.000154215
0.00017423
0.0179224
0.000138227
0.000157432
0.00157097
0.000141929
0.00530779
0.00017389
0.0372917
0.000149695
0.00103231
0.0175419
0.00017331
0.0377071
0.000197325
0.0290353
0.000135936
0.000159735
0.000141055
0.000166608
0.0191195
0.000146912
0.01141
0.000147643
0.000146712
0.000144392
0.0441794
0.000177519
0.000197858
0.00331229
0.000139219
0.000180465
0.0150549
0.000184419
0.000140872
0.000152894
0.000147772
0.000185013
0.00014618
0.000142443
0.0462193
0.0442762
0.0423196
0.000997228
0.0017304
0.0184611
0.000186881
0.0465684
0.000202971
0.000135367
0.000144716
0.000131546
0.000149152
0.0397851
0.0393817
0.000138171
0.00938841
0.0444524
0.000164343
0.000151849
0.000170608
0.030202
0.0300555
0.03144
0.00292331
0.0327867
0.000131621
0.000126952
0.000197425
0.00212527
0.0281579
0.00014398
0.000198388
0.0171296
0.000170489
0.0168824
0.000150216
0.00210091
0.0180428
0.0376027
0.000187978
0.000168108
0.017936
0.000198686
0.0378326
0.0419489
0.0323078
0.000196645
0.0237487
0.000147639
0.000156445
0.000179162
0.023532
0.00274942
0.0287824
0.000150079
0.000200802
0.000191822
0.000150657
0.0339421
0.000143949
0.00019882
0.0223752
0.000143858
0.0393002
0.0393158
0.0412058
0.0279936
0.00325058
0.00359574
0.000144447
0.0407337
0.000147127
0.000141756
0.000176015
0.000156529
0.0335021
0.000156825
0.00017129
0.000157262
0.000141583
0.0245347
0.000154424
0.000196966
0.00151208
0.000138265
0.0284272
0.000197151
0.000152273
0.0136551
0.000309341
0.000143498
0.0028899
0.000151096
0.0441509
0.000780798
0.000138517
0.000196713
0.000154586
0.0425866
0.0328534
0.000188493
0.00761306
0.000161496
0.000144884
0.0409752
0.000156395
0.000146553
0.0144171
0.00017408
0.0001405
0.000141585
0.000204034
0.000154084
0.0223834
0.000185257
0.000473697
0.0204722
0.000180805
0.000186164
0.000144902
0.0434198
0.0179156
0.0247132
0.000144258
0.000137303
0.000189399
0.000167752
0.00421562
0.000146765
0.00579644
0.000145706
0.000242437
0.000148681
0.000516465
0.000169846
0.000196342
0.028832
0.0179801
0.0339316
0.0315165
0.00013183
0.00593558
0.00812116
0.0218303
0.000142911
9.88634e-05
0.0177533
0.0125151
0.000196425
0.00169569
0.0145981
0.0450889
0.000177208
0.000135666
0.000138054
0.000179248
0.000175563
0.000143627
0.00018694
0.0215361
0.00122673
0.014918
0.00957779
0.000142644
0.00014085
0.000170769
0.000143767
0.00821469
0.000138506
0.000140795
0.0476153
3.92795e-05
0.000170485
0.000197005
0.000151419
0.000189845
0.0137958
0.0334
0.0145417
0.000159037
0.0331973
0.000153112
0.000138418
0.000154417
0.0273495
0.000206565
9.51641e-05
7.9018e-06
0.000152024
0.000141604
0.000143832
0.000149632
0.00016112
0.0208805
0.0100402
0.000164971
0.0350273
0.0220596
0.00198666
0.0132766
0.000145224
0.000165923
0.000227636
0.000144632
0.000201781
0.000162025
0.000156737
0.0289349
0.0334766
0.000138515
0.000173555
0.000166107
0.000186985
0.0279029
0.0365107
0.0446155
0.000148631
0.000189805
0.0444442
0.000189723
0.000196537
0.000625712
0.0296734
0.0451093
0.046834
0.000138062
0.0220482
0.000137886
0.000154879
0.000144648
0.000185958
0.0450276
0.0156518
0.00491155
0.0106757
0.000184442
0.000134859
0.000139728
0.000147515
0.000157891
0.000177507
0.0461109
0.0459006
0.000188454
0.000221866
0.000149246
0.00018415
0.000138706
0.0401729
0.000206185
0.000148214
0.000201115
0.000196585
0.0210586
0.0270288
0.000204348
0.0080048
0.000158932
0.0263382
0.000218358
0.0270236
0.00396535
0.000152957
0.000183779
0.000146768
0.0310212
0.0131867
0.000175731
0.0368384
0.000175679
0.0297776
0.000187631
0.00020578
0.000180394
0.000140341
0.000197211
0.000185901
0.0001572
0.000183465
0.000167574
0.000169594
0.0155931
0.000207923
0.000155245
0.000167371
0.00017241
0.000169976
0.000152707
0.0343249
0.000199439
0.002747
0.00940518
0.000145295
0.0319978
0.000144581
0.000157798
0.00015607
0.0320172
0.000175345
0.0385645
0.0163263
0.000185184
0.000182808
0.000196791
0.0307079
0.000199158
0.011059
0.000166489
0.000177412
0.000142087
0.0341719
0.0057262
0.000164937
0.000146788
0.000174902
0.000160258
0.000158116
0.000179162
0.000173722
0.000148363
0.000172299
0.0216156
0.0198557
0.000244956
0.000175839
0.000133319
0.0307215
0.000168274
0.000185254
0.000240122
0.000175819
0.0255468
0.000135628
0.000167776
0.000157873
0.000171638
0.000143914
0.0323647
0.00125478
0.0153149
0.000175618
0.0361883
9.8892e-05
0.000159769
0.0299753
0.000185776
6.31031e-05
0.00988098
0.000183061
0.000156986
0.00017428
0.000188269
0.00015573
0.00186773
0.0271677
0.00324942
0.000140401
0.000144748
0.00157353
0.00760452
0.00014333
0.00017796
0.000144306
0.000167701
0.0235584
0.000166043
0.000165299
0.000140666
0.000140326
0.00733438
0.0272407
0.000147132
0.0159393
9.60346e-05
0.000135007
0.000167725
0.0340628
0.000200604
0.000196381
0.000144609
0.000162555
0.000195636
0.000147385
0.000143473
0.0444949
0.000165544
0.0325091
0.000190286
0.000160768
0.0441608
0.00019971
0.000215212
0.000140931
0.00358158
0.000165306
0.000161604
0.0238692
0.000175222
0.00014871
0.000190161
0.000157861
0.000157003
0.000135743
0.00957932
0.000145089
0.000199272
0.011962
0.000197585
0.00014183
0.000771647
0.000166567
0.0245547
0.000189403
0.0273468
0.000199226
0.0362747
0.000138906
0.000189722
0.000159336
0.000142335
0.0037556
0.0237199
0.000158169
0.000295117
0.000162559
0.000189094
0.0274087
0.000160276
0.00105882
0.000499776
0.0374363
0.0326214
0.000234125
0.00024506
0.000140292
0.000200645
0.000173913
0.00746258
0.0238864
0.0400195
0.0359304
0.0435627
0.000140127
0.000936711
0.000144128
0.000152065
0.000148045
0.00539267
0.000169155
0.00020651
0.000142798
0.00950391
0.000162792
0.0241326
0.000141858
0.000186592
0.000165985
0.000186476
0.000177319
0.000196232
0.000153754
0.000106622
0.000200663
0.000141211
0.0202524
5.11311e-05
0.00018808
0.00015568
0.000166443
0.000146321
0.000143818
0.00018511