/*--------------------------------*- C++ -*----------------------------------*\
| =========                 |                                                 |
| \\      /  F ield         | OpenFOAM: The Open Source CFD Toolbox           |
|  \\    /   O peration     | Version:  v2012                                 |
|   \\  /    A nd           | Website:  www.openfoam.com                      |
|    \\/     M anipulation  |                                                 |
\*---------------------------------------------------------------------------*/
FoamFile
{
    version     2.0;
    format      ascii;
    class       volScalarField;
    location    "100";
    object      ddt0(k);
}
// * * * * * * * * * * * * * * * * * * * * * * * * * * * * * * * * * * * * * //

dimensions      [0 2 -3 0 0 0 0];


internalField   nonuniform List<scalar> 
13917
(
0.000356556
4.34764e-06
-1.53179e-05
5.4241e-08
-2.91463e-06
5.27755e-06
8.94876e-08
0.000463779
1.10804e-07
4.80203e-05
-2.50667e-05
7.84594e-08
1.41433e-07
-0.0264061
1.61117e-06
0.000203847
-1.05004e-07
-2.54375e-05
-3.4477e-06
-0.00110818
-1.29048e-06
1.63122e-07
1.5218e-07
1.7579e-07
-3.14465e-08
-1.43779e-06
0.030879
-4.87456e-06
-4.04396e-06
1.07968e-08
-0.000384107
-1.16109e-06
4.04549e-08
0.000945515
3.78799e-08
-0.00211906
3.53246e-07
3.20138e-09
9.3076e-08
-1.94265e-06
-2.29292e-07
-1.02145e-07
1.00243e-07
-3.34106e-06
-3.4802e-06
-5.82504e-06
-7.82892e-07
-0.00918456
-0.00504549
7.15514e-08
8.19621e-08
1.10383e-06
-0.000319079
6.34602e-08
7.08956e-08
1.17091e-06
1.61759e-05
1.78642e-07
-7.72694e-08
4.4891e-06
-0.0261292
-3.23172e-05
-1.75807e-07
-1.35043e-08
0.00792017
0.000172127
-5.2415e-06
-0.00431515
6.87137e-06
-1.35694e-05
0.00917129
0.000765095
5.02333e-08
1.1441e-07
-1.44383e-06
-1.53144e-10
4.09078e-07
2.61118e-08
9.32224e-10
3.27155e-08
-9.40917e-08
-9.03148e-08
5.13752e-08
0.00894033
8.00663e-08
-6.26549e-05
-1.07055e-06
9.00439e-08
-2.18108e-06
-9.51021e-08
3.58059e-09
9.91049e-08
-0.0130777
1.42171e-08
1.52369e-07
-6.92476e-06
0.00816185
-3.8633e-08
8.68164e-08
3.2151e-05
-2.23967e-07
-1.91707e-07
-5.41606e-08
1.34015e-08
7.32768e-07
-0.00170995
0.00278257
-3.82842e-05
8.59951e-08
0.0309085
8.93647e-08
0.00118129
-3.0629e-06
-0.0094577
0.00795761
-9.65708e-09
-2.93106e-06
-4.35021e-08
-4.09167e-06
1.04027e-08
-7.99435e-08
4.74569e-09
-1.75735e-05
-5.9332e-07
-0.000502663
0.00922162
-9.92376e-10
-1.8547e-06
6.40515e-08
-8.35108e-07
5.44958e-08
-1.49067e-05
0.00140685
3.44384e-09
-1.79073e-06
0.0271193
-0.0135677
-0.000737994
-1.74536e-06
6.47741e-10
-0.00603952
-1.90276e-08
-0.00216709
3.55438e-08
6.37027e-08
-1.16804e-06
0.0087744
-0.00572273
-0.00993342
6.27977e-08
-1.74123e-06
-1.8486e-07
6.06674e-08
1.39434e-08
0.0142279
5.22368e-07
1.36097e-08
0.000815488
-1.43757e-07
-7.46898e-08
8.15316e-08
0.00458434
8.53941e-07
-0.00445287
0.000157611
-0.000321857
-0.000122201
-0.00296768
1.13908e-08
-2.76431e-06
2.4721e-07
0.00263829
1.12624e-07
-0.0275306
3.82979e-06
-1.9086e-07
5.5177e-08
-1.2688e-07
7.81481e-08
1.05475e-06
9.95966e-08
2.24585e-07
7.97795e-08
-2.18221e-06
-3.26617e-06
0.00014719
7.56388e-08
-1.48357e-06
-2.60711e-08
-4.8573e-05
4.2751e-06
-2.84863e-06
-1.42851e-06
0.000346724
7.03254e-09
-0.000416701
-1.74905e-07
0.00162782
2.68094e-08
3.95209e-07
-6.40975e-07
6.37055e-05
-0.000610267
5.23362e-07
0.0320965
-7.19749e-08
-1.6453e-06
3.44386e-08
4.01972e-07
-1.18996e-07
2.06022e-08
7.19419e-06
3.82566e-06
-0.00807341
-1.56756e-06
-1.81345e-06
0.00545304
8.87065e-08
3.28063e-08
4.03081e-08
-0.00290892
-1.4825e-06
-7.40337e-06
8.9737e-08
-1.94597e-07
0.021322
-0.000384599
3.02919e-08
3.69411e-08
-2.15667e-07
4.19266e-08
4.82354e-08
0.000692772
-0.00220069
-4.38469e-08
5.03286e-08
1.39855e-06
0.000312716
-1.52559e-07
9.1576e-08
0.0315084
-0.00364083
4.01854e-07
0.00537221
4.59122e-06
3.70183e-08
-0.00196634
1.90799e-06
-3.78735e-06
-1.29382e-06
4.68213e-07
-0.00343117
1.62819e-08
5.83506e-07
3.5455e-06
-5.845e-08
-2.33384e-07
-1.39555e-08
4.35328e-06
-3.90643e-08
-0.000353003
0.00921971
5.70474e-08
2.2865e-08
7.04056e-07
2.064e-08
1.78694e-08
1.43621e-07
6.12113e-07
7.15891e-08
-0.000666811
0.00332965
2.65999e-08
2.49341e-06
9.48977e-05
-3.90215e-08
6.1234e-06
-0.000259391
-4.00353e-08
9.03312e-05
4.66246e-09
0.00413741
-2.24075e-07
3.6653e-08
-1.02337e-07
3.51087e-08
-3.57674e-06
2.23742e-08
0.00236998
-4.21707e-07
0.00962504
-5.18191e-06
0.0253913
-0.000757144
-8.09165e-08
6.74629e-07
4.23141e-06
2.25688e-08
1.35505e-06
-1.6035e-08
8.03557e-10
3.50905e-08
1.48113e-06
-6.90025e-05
2.42488e-07
2.66182e-10
8.7045e-08
0.000988075
3.99933e-05
5.45053e-08
2.05666e-05
7.03342e-09
0.00327638
-2.81577e-06
0.00359926
-0.0240001
0.000154906
3.80789e-06
2.323e-06
0.00873232
0.00587509
-7.48704e-06
1.49657e-07
6.75981e-07
0.0305271
3.80768e-07
6.21954e-06
-2.85318e-06
-1.0734e-07
0.00291216
8.67546e-08
-3.12642e-08
1.93612e-08
-0.00175272
4.19575e-08
1.03648e-07
-1.58423e-07
0.000105421
-8.44414e-08
-1.61641e-06
0.000719881
1.4867e-07
4.1079e-07
0.00147539
-0.000617378
-0.00123895
-0.0249501
-3.06433e-08
-3.74091e-08
-0.0048225
2.0365e-06
-2.4715e-08
4.2189e-06
5.89637e-08
-4.38891e-06
4.80645e-07
2.18423e-07
8.57198e-06
6.09086e-06
-9.5562e-08
0.00110351
6.57314e-08
1.53619e-07
1.59344e-05
-1.88174e-06
-1.57342e-07
0.000167445
-6.5305e-08
-0.00359353
8.15616e-08
9.4743e-06
9.63347e-06
-0.0162813
-4.02168e-07
-9.38288e-06
8.25129e-05
-9.76315e-07
3.07932e-08
0.000955421
2.33332e-07
-0.000903605
-2.47642e-06
-5.08508e-07
-0.0148554
-2.01036e-07
0.00129172
9.43502e-09
-0.000646227
0.000466567
2.12838e-07
0.0174103
9.0545e-07
4.15434e-07
0.00117181
-1.58477e-05
1.61516e-07
-4.42799e-06
-1.37703e-09
-1.56433e-06
-1.60229e-05
8.2665e-08
1.06004e-07
-1.60924e-08
3.17602e-08
5.89102e-08
5.58793e-08
-0.00419022
-0.000253187
1.10303e-07
5.60501e-08
1.41147e-07
1.37526e-06
-0.012441
-8.12731e-09
1.55419e-08
-3.23767e-06
8.18556e-06
3.68272e-08
2.15575e-07
-0.020322
0.0106286
0.000514045
-3.65745e-06
0.00812528
3.27542e-08
-1.253e-08
-4.63678e-07
6.14574e-08
-2.16973e-08
-7.04687e-08
-2.25045e-08
5.22608e-08
-0.00125281
-4.65333e-10
-2.31469e-06
-0.000609244
9.45415e-07
2.19764e-08
7.05122e-08
0.00192712
-5.13194e-07
-0.000542979
4.55405e-09
7.41941e-08
2.58062e-07
5.17838e-08
3.8621e-07
-2.15583e-07
-0.0243641
0.000118572
-0.00273143
7.16586e-08
9.89445e-08
3.65685e-05
-1.33701e-07
4.05337e-06
-0.00252556
5.29602e-08
0.0136062
3.06666e-08
7.00459e-08
1.30445e-07
-2.22823e-07
1.83724e-08
8.79055e-08
0.00117057
-0.0253577
1.95808e-08
0.0254805
-3.14942e-06
1.22789e-07
1.01656e-06
-2.41353e-07
0.00188515
1.09737e-07
-0.000474281
0.000561175
0.00120017
-2.63331e-07
0.000146029
2.82899e-05
4.72463e-07
-0.000131651
-6.44077e-09
5.44606e-08
1.66057e-07
1.09468e-07
-1.33941e-06
-4.4877e-06
-3.71902e-07
3.91358e-07
1.33538e-06
-8.89405e-06
-2.27228e-06
1.13201e-07
-0.0266743
3.78267e-07
-4.05224e-07
-0.00353535
8.7967e-08
-1.8873e-06
4.98463e-07
5.55099e-08
0.000108444
7.05485e-08
5.27507e-08
1.35853e-06
8.16168e-09
9.37179e-08
1.69478e-06
-0.000329035
0.0110229
8.1741e-08
6.47172e-08
6.14297e-06
-0.000172236
-0.0379123
9.03537e-08
7.05985e-08
7.69366e-08
2.99638e-06
-0.00366668
8.81283e-08
-1.39996e-07
2.93386e-07
3.19208e-08
6.07496e-07
-4.48164e-08
-3.68558e-08
-3.80034e-07
5.53404e-08
1.25685e-07
-4.34672e-09
0.0029924
2.06906e-08
6.92119e-08
-9.77415e-08
9.40323e-08
6.52256e-07
-5.7801e-06
3.70035e-06
4.8975e-05
3.51765e-08
-9.98772e-06
0.00205433
-0.000867839
-0.000512592
4.95723e-08
1.19776e-07
-8.69831e-06
5.43986e-08
0.00806265
-4.35009e-08
0.00499812
-1.57039e-07
0.00518456
1.24918e-05
1.01973e-07
0.00236516
2.50621e-08
-4.53222e-07
-3.74686e-08
-4.58795e-07
0.004735
3.11738e-08
-7.90044e-06
-2.68856e-07
1.34693e-07
1.28316e-07
-6.31106e-06
-1.47776e-06
1.3599e-08
-3.18138e-06
9.13514e-07
0.00905252
0.00858985
0.000538702
0.00166194
2.17718e-08
-0.000255945
-9.15091e-08
-0.0230612
-0.00535628
5.61848e-07
-1.63255e-06
-2.12502e-07
3.79185e-07
9.63365e-08
1.02338e-08
-3.13858e-08
1.15522e-07
0.0064218
8.89871e-08
-8.24297e-07
5.4943e-08
1.66679e-08
-1.40059e-07
-2.44235e-05
0.00272859
0.00167011
-1.13684e-06
-1.51081e-08
-0.00036471
0.000309931
1.15415e-08
-0.00158891
1.15098e-07
-4.84198e-07
5.13786e-08
0.00101306
3.10434e-08
-5.13137e-06
5.92195e-08
0.00835555
5.62384e-07
0.00701376
-3.34685e-08
4.65969e-07
1.34596e-07
-2.37227e-07
0.00143595
-0.000132103
2.13552e-07
-6.08874e-07
8.81624e-08
-3.60612e-08
-2.38136e-07
0.00179628
8.82138e-08
5.09866e-06
-3.34065e-08
1.5251e-07
-1.8293e-06
-2.03203e-07
-1.23156e-06
-6.36172e-08
4.68416e-08
-0.0222771
-8.98538e-07
8.03664e-08
-0.000590295
1.52607e-06
-0.00628967
1.72949e-07
2.73114e-08
1.95262e-06
0.00247531
1.97045e-06
-2.34279e-07
3.38307e-07
-3.73931e-06
-5.6807e-08
6.38217e-08
0.00042914
7.8173e-07
-1.60224e-07
-0.00527886
4.97002e-07
-0.00354626
-0.0424633
-6.18813e-06
4.14313e-07
-9.30206e-07
0.000204029
-3.63392e-09
-2.177e-05
0.000457208
4.91531e-08
-3.11405e-08
-1.41335e-07
6.72447e-06
8.88615e-08
-0.000241975
3.96817e-08
4.17498e-08
-2.59024e-06
-1.62544e-08
0.00413798
1.27147e-08
6.01371e-08
-0.000222898
5.99608e-07
0.00114823
7.31036e-08
5.65203e-07
6.51503e-08
6.61205e-08
1.12462e-07
6.27796e-08
-0.000642931
-6.00176e-07
0.00354495
0.000533799
-2.83554e-05
0.000323204
6.12149e-08
-1.05334e-08
1.60898e-07
-0.00015741
0.0112532
-2.02525e-07
-0.000577665
-0.0045602
4.3045e-08
5.36217e-08
4.02711e-07
0.000541326
0.00117782
5.67535e-07
6.54215e-08
6.23398e-08
-4.5991e-07
1.73907e-06
-6.4928e-07
2.76651e-08
1.40915e-07
3.26826e-08
-1.04261e-08
1.12989e-07
2.10557e-06
2.28547e-05
5.03392e-08
-3.04019e-06
-0.000647888
-6.62943e-06
9.60451e-06
2.60431e-07
3.38817e-06
-8.55211e-08
2.11842e-06
-8.78429e-08
-2.84493e-07
0.00258043
-0.00268472
7.02169e-08
2.29661e-08
8.77993e-08
4.96039e-08
4.51648e-08
-3.83028e-06
0.000107043
-1.68141e-05
-4.64864e-07
3.95239e-08
2.01119e-05
1.11787e-07
1.06709e-07
-1.42642e-06
-8.17171e-08
-4.53358e-07
0.00938445
1.19788e-08
1.96449e-07
4.91256e-06
3.50536e-08
6.78354e-08
1.87368e-08
6.28917e-08
-2.07391e-05
4.21826e-08
-2.30291e-08
-3.51023e-08
4.95417e-08
2.55692e-08
1.45206e-06
0.00186077
-2.56458e-05
0.0139933
-4.12382e-06
-0.00595395
4.09263e-08
2.6892e-07
1.60086e-05
1.42651e-06
0.00041858
-8.23474e-08
-2.47478e-08
8.28351e-08
6.25903e-08
-7.20683e-06
6.39985e-08
-0.000157833
6.45584e-08
-0.00330893
2.34364e-07
1.10152e-07
2.05832e-08
-1.31878e-06
7.37416e-07
0.00250496
-2.12479e-05
-1.21375e-07
0.00327755
2.95145e-08
-0.000344042
8.98052e-08
-1.79178e-05
1.3693e-06
6.47204e-08
7.92076e-08
0.00362171
1.00862e-07
-0.00784123
0.0087716
4.76343e-08
2.50563e-08
3.69895e-08
1.63321e-06
-0.00310369
7.87005e-08
-0.000767123
7.87454e-08
-7.386e-06
-2.87725e-06
-0.00172176
7.93612e-10
-2.28349e-09
8.22051e-06
3.74251e-08
5.94097e-08
1.30769e-07
9.84075e-08
-6.52581e-08
-4.90548e-09
-9.86596e-06
1.12988e-07
0.000309458
-0.000432317
-0.00257972
-0.00383893
0.0140012
0.000245944
0.000564907
3.67061e-08
8.48937e-08
1.2755e-07
5.82781e-08
7.88798e-08
1.0544e-07
1.09662e-07
-0.0166365
5.82986e-08
0.0032791
5.03741e-08
7.76735e-08
1.05942e-05
5.99742e-08
-2.46451e-06
3.40249e-08
-8.27708e-07
4.89151e-09
2.34285e-07
-0.000844386
8.69304e-07
0.000716895
4.55552e-08
4.72468e-08
3.14715e-07
1.27716e-07
-0.000942587
3.47581e-08
-0.000210577
2.43623e-08
-0.0010537
-1.81629e-06
5.47698e-08
-3.38392e-07
-4.23541e-05
3.48279e-08
-0.000422229
4.48428e-06
8.05743e-07
-1.43565e-06
6.35955e-08
5.14758e-05
4.38906e-07
2.00687e-07
0.000793197
-2.62079e-08
5.03877e-08
-2.48801e-06
0.0005661
2.90814e-06
-0.00233233
0.000112918
-1.92605e-07
2.45685e-07
1.21868e-07
0.00584058
5.78644e-08
-3.3877e-06
1.0718e-07
8.59409e-05
-8.47812e-07
-0.0131082
5.01385e-08
-3.80338e-08
-0.000316134
9.21364e-08
-4.80508e-06
0.00211066
2.58322e-07
6.58699e-08
0.00458194
-3.23336e-07
3.51288e-07
5.73111e-07
1.8458e-07
0.00778563
-1.87339e-06
-4.62233e-07
2.5446e-06
6.0863e-08
0.000505039
1.7196e-07
2.98093e-07
8.91811e-08
-0.000539522
0.000363803
6.36633e-08
6.5461e-07
-1.82921e-07
9.49112e-08
-5.19775e-08
-2.40732e-08
7.41896e-08
9.72428e-08
-8.9986e-08
1.1282e-08
2.37286e-07
-1.51415e-06
0.000519659
0.0030252
-2.09356e-06
2.86973e-07
0.000747754
9.53317e-08
-0.000132676
-0.00399098
-0.000170568
2.10869e-08
3.61842e-08
7.78839e-08
5.77024e-08
1.83788e-08
2.48259e-07
6.01516e-08
6.84483e-07
6.39452e-08
-0.00199011
0.00396539
8.26466e-08
0.00427549
9.26637e-08
4.99252e-08
-2.42867e-05
0.00219811
-2.23554e-06
-1.25398e-07
0.00199403
3.99349e-08
6.4006e-08
8.37937e-05
1.0803e-07
0.00885065
4.60501e-08
4.38309e-05
2.67394e-08
5.75129e-08
-6.80214e-07
-0.00119883
3.84943e-08
0.000438411
-0.000115808
4.15877e-08
3.08461e-07
4.5008e-08
1.7671e-08
-1.77006e-06
6.84514e-08
-1.49869e-07
-2.51939e-05
-0.00211211
-0.000542293
-1.78827e-06
5.97293e-08
-0.000344046
1.55644e-08
-0.0309537
3.24266e-06
1.06996e-07
4.98861e-08
-0.00461571
0.00690867
-0.00514643
-1.39261e-06
0.000834237
1.67947e-08
1.06271e-07
4.75464e-08
9.62632e-08
1.05234e-07
0.00131827
0.000399969
3.60771e-08
1.0284e-07
0.000187022
-2.38601e-07
-1.12336e-08
0.007903
0.00469549
6.25964e-08
-1.26583e-07
7.18736e-08
9.40104e-08
8.39627e-08
-9.61265e-06
1.19361e-06
1.3143e-07
0.00579632
-4.57841e-07
0.000535349
-0.00383437
-6.33246e-05
-0.000473819
6.67144e-08
5.28772e-08
8.38363e-05
0.00063234
0.00107401
1.53987e-05
-6.06454e-07
5.58053e-08
4.45931e-08
1.8714e-06
0.00190788
5.83915e-05
5.43376e-07
-4.26975e-07
2.93288e-08
-0.00272617
-9.2208e-07
-2.37817e-06
-1.98032e-07
8.03309e-06
0.00126777
-0.0132403
0.00171744
-1.19708e-10
-2.35979e-06
-5.30387e-09
3.0421e-06
2.39188e-06
-0.00284748
-6.85109e-09
-4.4411e-07
-1.1673e-07
-0.00528322
3.89934e-07
0.000711571
4.62722e-07
4.89645e-06
-0.013133
-2.63658e-08
-6.61599e-07
1.72831e-07
5.16186e-08
-9.26151e-06
0.000662245
-5.43212e-08
6.1856e-08
4.44327e-08
-0.00442732
6.9325e-08
2.93157e-07
9.68271e-08
2.05107e-07
2.3086e-08
9.48474e-06
-2.79556e-07
4.96559e-07
4.28828e-08
-2.42358e-05
-5.42981e-06
3.67819e-06
0.000704362
7.91627e-08
7.86555e-08
0.0169293
-4.00942e-08
3.29736e-07
0.00205297
-0.000448858
-2.2665e-06
3.40707e-06
6.67389e-07
-0.000602618
-0.000212941
-1.05967e-06
0.00731487
8.17108e-08
1.25455e-06
0.0010311
-3.92846e-06
0.000169699
-0.0159271
5.26595e-08
1.32125e-07
1.11116e-07
2.70923e-08
1.27654e-07
3.12216e-05
-2.99164e-08
1.03672e-06
2.60053e-08
-1.89047e-07
0.00223306
2.04956e-07
-0.000172059
0.0129177
8.64705e-08
-3.8568e-07
1.48172e-06
1.66102e-07
3.87555e-08
-0.00043698
-9.5215e-07
0.000477387
-4.00666e-07
-0.0108707
6.06455e-06
7.38435e-07
-0.00474894
4.69862e-07
-1.73039e-05
5.84558e-08
4.18126e-05
4.59771e-08
5.2715e-09
-1.41182e-06
1.25826e-06
5.52944e-08
-5.2274e-07
-0.0120033
8.84027e-08
-1.83595e-05
7.72462e-05
5.65636e-08
8.66729e-08
1.10701e-06
-0.00516799
-5.00963e-05
7.9061e-08
9.18411e-08
6.9325e-05
-0.0021012
-0.000759167
1.10401e-07
6.11739e-08
5.68583e-08
4.08737e-08
8.59604e-08
3.93616e-07
-0.00604766
2.72975e-07
5.22401e-08
0.000787509
7.81191e-05
-1.95036e-06
0.0049679
-0.0127706
6.6873e-08
4.36688e-08
6.20074e-08
2.5106e-07
-2.2025e-07
-0.00141305
0.000561814
1.01796e-05
-3.3884e-07
-2.76729e-07
9.54784e-08
-0.000245648
1.18798e-07
-3.22374e-06
2.91728e-08
2.03476e-05
-0.00026737
3.84255e-08
5.44592e-08
0.00186759
1.27256e-06
0.000643866
2.22471e-07
1.76886e-06
6.5106e-08
0.000276426
1.11375e-07
8.00249e-08
-0.00136815
0.00475886
1.5633e-08
-3.62069e-06
-2.68607e-06
-1.4104e-06
3.98555e-08
-1.23574e-08
9.37963e-08
2.17269e-08
5.69741e-08
-5.151e-08
-2.24346e-06
-0.000600009
-1.38911e-06
-5.41841e-09
9.28027e-08
6.28867e-06
5.33066e-08
-1.2415e-06
-6.00383e-06
-5.39343e-06
0.0028101
3.03315e-07
-1.78058e-08
-0.000528341
6.37942e-08
0.000941492
8.02508e-09
-2.41415e-06
9.58305e-08
6.41926e-08
0.000567717
-8.57491e-08
1.85576e-07
5.61859e-08
0.00671952
0.000117544
0.000177624
5.87585e-08
9.87761e-08
-0.0171901
-7.0818e-08
6.15998e-08
1.62862e-05
0.00195999
-3.21259e-07
2.47919e-07
4.71721e-08
-0.000518521
5.55548e-08
-1.48675e-06
5.31632e-08
-1.68853e-08
-3.7015e-06
5.26596e-08
1.95543e-08
0.00151743
-6.5311e-07
0.00381249
-6.65525e-06
6.94444e-08
1.48219e-07
2.9435e-08
6.26748e-08
4.88689e-07
1.01727e-07
4.35369e-08
1.32666e-06
1.06087e-07
1.79762e-06
-1.22307e-05
-4.83764e-05
8.79526e-08
-7.63552e-06
5.92253e-08
-0.000459511
3.08548e-08
-0.00419081
-1.28518e-06
1.09757e-07
-3.80553e-07
2.37961e-07
1.60901e-07
3.73964e-08
1.01018e-06
8.2139e-08
3.66771e-08
0.000638758
3.46226e-06
-3.28681e-05
1.83807e-08
7.15394e-08
2.34255e-07
-2.11429e-05
3.20279e-08
0.00533762
9.65751e-07
6.0987e-08
7.66658e-08
8.51861e-09
1.15786e-06
-0.000381994
0.0152332
0.000534525
-0.00229549
-2.84385e-05
4.81211e-06
-7.23402e-09
0.00354845
3.39579e-08
2.64293e-08
-1.37741e-07
0.00109693
5.11593e-09
0.00150844
6.13367e-08
1.33562e-08
1.77869e-05
2.7806e-05
-0.000559128
0.000337816
-9.32996e-08
1.20194e-05
-0.000775393
-2.66953e-08
0.00402023
9.60485e-08
-1.94762e-07
-0.0152569
2.26405e-08
0.00214621
-0.000687801
2.52775e-08
9.07822e-08
-3.84234e-08
0.000912161
-1.77861e-07
-1.6422e-08
-1.53433e-06
7.47673e-08
2.42979e-08
1.06685e-06
2.46772e-08
-2.23344e-07
1.01074e-07
1.62459e-06
4.23397e-08
0.030707
-4.08099e-05
4.02089e-08
3.90095e-08
6.50337e-08
7.21876e-08
7.33126e-08
1.73935e-07
4.40325e-08
9.01511e-08
8.94976e-08
2.14422e-07
3.83725e-08
-9.67866e-06
1.18521e-08
-1.09164e-06
1.68109e-07
1.87541e-06
7.11344e-08
4.04901e-08
3.67336e-08
3.51477e-08
-1.71081e-06
-1.30365e-06
1.05852e-07
0.00382238
0.000129156
0.000937904
0.00496729
-1.61662e-06
-0.0049002
1.05802e-07
3.40918e-08
0.0161033
-0.0339037
3.56659e-07
5.81203e-05
1.3758e-08
-2.16466e-06
-0.00604085
5.2413e-08
-5.28032e-07
0.00063878
-0.00784602
-4.0622e-09
-3.005e-07
8.55762e-08
0.0015167
4.94657e-08
0.00241058
-0.00155719
6.73483e-08
0.00239372
0.0128874
-1.14248e-07
-0.00015443
0.00124086
1.38039e-07
5.96006e-08
0.000827156
-0.000337979
-2.28984e-08
8.84639e-08
-3.45807e-08
0.00511196
1.44844e-06
4.87231e-08
8.21027e-08
-0.0016597
5.86512e-08
8.11349e-08
6.05132e-08
6.21464e-08
1.93349e-05
-2.40699e-06
9.46243e-08
-0.000250886
5.91793e-08
-4.86635e-06
4.26194e-08
0.000847617
2.69864e-06
0.00134758
5.41665e-08
1.00567e-07
-1.19309e-07
-6.77888e-09
9.78476e-08
4.04925e-08
-0.000208297
1.56955e-07
5.04044e-08
9.05431e-08
0.00125136
5.85262e-08
7.8682e-05
-0.0128886
0.00196531
8.24347e-08
7.90791e-08
4.77803e-08
-1.76007e-06
7.22847e-08
-0.00468615
-4.68285e-09
0.00292117
2.13154e-07
-7.85512e-07
5.60241e-05
6.00321e-08
-9.47987e-08
-0.000343759
-2.78446e-06
0.00180796
-1.37123e-07
0.00506199
0.00542943
6.41091e-08
0.000166858
2.78245e-08
-6.07115e-07
-0.00439895
9.17657e-08
-1.34718e-06
0.000664983
1.012e-06
-7.32724e-07
6.89252e-08
-0.000744704
9.47118e-08
-0.000777427
5.05173e-08
0.000187225
8.6418e-08
1.06949e-07
1.21813e-06
0.000303641
6.57234e-08
8.30072e-05
-1.84419e-06
0.00134341
4.85659e-08
-2.90864e-07
0.0036023
-0.0106324
-0.0108127
2.16512e-06
7.1005e-08
-7.39758e-07
0.00139368
7.67581e-07
-0.000379638
-1.98849e-08
-6.48798e-07
0.000154218
6.07463e-08
-0.00072528
7.72768e-08
0.00530709
3.4648e-05
2.55596e-08
4.89694e-07
-0.00149387
0.00198075
6.03961e-08
8.23017e-09
6.35632e-08
6.62655e-08
0.00918141
3.53941e-06
8.93264e-06
-5.61498e-08
-2.58662e-07
0.0021669
0.000187613
-0.00360546
-0.00502478
8.73137e-08
8.89092e-08
-2.93607e-06
-0.0310108
-0.0190921
-0.00553718
2.05096e-06
-2.03593e-06
-1.97071e-05
0.00499846
0.000595592
-0.000980905
6.20683e-08
8.73674e-07
1.15535e-06
5.30122e-06
1.25693e-08
1.11077e-07
3.96416e-06
3.32736e-05
0.000366465
4.06852e-08
-0.0207856
-0.000210637
-2.14927e-06
8.42644e-08
8.43101e-08
-0.00438991
7.70538e-08
0.000582256
-3.35019e-07
-8.16892e-06
-1.42069e-05
0.000355045
4.27227e-08
4.71852e-07
1.29468e-07
2.16445e-08
0.000622185
1.86337e-05
-0.000380527
4.09564e-08
0.000599393
8.79029e-05
-6.79403e-06
2.73914e-08
-2.69741e-07
6.45377e-07
-1.0403e-05
4.59151e-06
-1.2139e-06
0.00923694
-0.000142763
1.01449e-07
-2.03171e-07
-3.2801e-07
-1.3707e-06
-0.000486631
-9.0047e-08
4.51338e-08
6.32364e-08
-0.00159777
1.21714e-06
1.72264e-08
-2.75959e-06
-1.5118e-05
6.3548e-08
0.000223342
4.71455e-07
0.000169665
-2.1565e-06
0.000308999
-0.0057241
8.35598e-08
8.63686e-07
0.000375533
8.18903e-08
-3.45088e-06
0.00292153
1.11401e-07
-3.60726e-06
8.43158e-08
-7.10279e-07
-0.0348097
0.00589536
8.88634e-08
-0.0121101
-0.000121408
1.21983e-08
-3.26448e-06
6.94669e-07
1.09669e-05
-0.000154406
0.0147429
-0.00527131
1.65069e-06
0.00312852
-3.51761e-07
-2.9006e-07
-6.63754e-08
7.37175e-08
2.63106e-08
7.81255e-08
-0.000325616
4.4525e-05
-9.4374e-09
2.11923e-06
-4.04476e-06
7.43365e-08
0.00158716
0.00721761
1.32701e-07
6.68558e-08
-1.14699e-07
2.24851e-07
-2.26663e-07
9.89877e-08
-0.00621464
1.33671e-07
1.97439e-06
1.43975e-06
5.77384e-06
-1.30525e-05
4.49233e-06
-0.0248241
1.3212e-08
2.54366e-07
-7.77188e-08
3.82625e-08
0.00400955
-5.31626e-07
-1.12617e-07
-0.0183597
-2.61707e-08
-8.21984e-08
7.6732e-07
2.56535e-08
7.71766e-08
-8.10802e-07
-7.88854e-08
0.000906271
0.00439679
-0.0283465
1.90805e-08
0.00866236
4.21126e-08
-6.6196e-05
4.53505e-08
-4.21017e-06
-0.0105178
7.63973e-08
-0.000629017
6.97056e-05
-9.01572e-07
9.60114e-08
-6.21717e-08
-3.85851e-07
-0.00195256
6.62273e-08
8.24527e-08
3.36508e-08
2.03434e-09
-1.93723e-06
9.32451e-08
-1.31326e-07
7.64167e-08
-1.14032e-08
-0.000175003
3.35626e-07
-1.06805e-06
-1.72882e-06
-0.00359766
0.00301633
-0.0104323
9.59835e-08
-7.19955e-08
0.00261091
9.82773e-09
-5.7772e-07
2.83757e-08
0.00825732
3.01273e-07
2.59851e-07
-6.42068e-06
0.00338797
9.10925e-08
5.20536e-08
3.51466e-08
5.1409e-07
-0.00239809
2.89211e-06
5.88648e-08
1.61031e-07
6.85835e-08
-0.000362708
-2.02511e-07
0.00512956
-6.73997e-07
1.2005e-08
-1.36153e-05
3.75916e-06
0.000827997
5.43729e-08
2.06011e-08
-4.81065e-07
-6.39996e-07
2.16495e-05
9.24216e-08
7.13234e-08
3.3678e-07
0.00259155
7.43608e-08
1.13163e-07
0.00661349
2.42892e-07
3.33586e-05
-2.33247e-08
5.76652e-08
-3.67079e-09
-0.00432485
9.07607e-08
0.000661672
0.00148378
-2.38582e-08
0.0012646
9.18206e-08
1.83973e-06
1.58813e-06
8.58457e-08
2.60887e-08
-3.29703e-08
9.61432e-08
-0.014327
-3.06404e-07
-0.000474505
0.00381764
8.83099e-08
0.000181752
-2.11525e-06
0.0030786
9.69447e-08
-0.00469927
0.0059374
0.0083679
3.95957e-08
-6.2732e-10
5.79003e-08
-0.0012792
0.00447821
-8.17157e-06
1.01424e-07
1.66189e-07
-0.00542295
1.09054e-07
-2.46456e-09
2.19882e-07
-2.01867e-06
-2.53907e-05
2.34105e-08
0.00287755
-1.93547e-06
8.69366e-08
-0.000362059
-7.22969e-07
0.00268602
-0.0119062
-7.92367e-07
-1.7546e-07
1.33458e-07
8.09988e-07
7.08983e-08
-2.78416e-05
-3.29495e-06
4.16008e-08
3.05445e-09
-2.07195e-05
0.00144813
6.24946e-08
5.05315e-06
0.00887047
0.0129657
4.43811e-08
1.07177e-07
0.000669943
0.00763644
-0.00641084
7.87802e-08
0.0153776
-3.84917e-07
-4.8108e-10
-0.000592725
-3.87706e-07
1.39628e-08
-3.17507e-07
9.19349e-08
-9.90426e-05
8.35085e-08
-2.60597e-08
9.18019e-08
3.96035e-08
0.00778117
2.96735e-08
6.619e-08
-2.78798e-07
1.0601e-07
9.23733e-07
-4.27634e-06
6.10334e-08
5.59648e-08
1.47557e-07
1.57261e-07
-0.00299215
-0.00248576
0.000404937
-0.0132125
3.08665e-07
-0.00342189
0.000178431
0.00536787
0.00926389
0.00698561
3.43867e-08
1.19099e-06
1.07362e-07
7.08795e-08
3.31829e-08
-1.91525e-07
7.64537e-07
-5.54812e-07
-1.69057e-06
6.19188e-08
8.92271e-08
-2.29545e-07
8.97521e-08
2.65622e-08
7.9444e-08
-0.000364656
-6.39221e-07
4.38974e-05
1.87595e-08
0.00091545
8.35443e-08
1.61287e-07
-7.99536e-08
-1.51873e-07
2.78017e-08
1.00573e-06
0.00149131
-2.44324e-06
-0.000513443
-0.00532629
-2.83959e-08
-2.45147e-07
0.00127058
3.35367e-06
4.64033e-08
3.9587e-08
-2.66623e-08
0.00404023
-1.83201e-08
-0.00415728
0.000122382
1.35253e-06
-0.0213439
-0.0209033
-1.08207e-06
-9.55646e-05
1.84593e-08
3.38587e-08
0.00137288
-0.00186959
9.8849e-09
5.77286e-08
-0.00571189
6.2255e-08
-3.50145e-06
1.24596e-07
-1.8386e-07
1.58554e-07
1.27543e-07
1.42707e-06
0.00257711
0.0009466
-1.84242e-08
2.60477e-08
9.23344e-07
4.11733e-08
6.45538e-06
7.22565e-08
-3.9251e-06
-1.52104e-06
4.13164e-08
2.02283e-08
1.25989e-08
1.07445e-05
-1.19465e-05
7.04997e-07
8.26303e-06
-5.4135e-07
0.00834752
-1.51185e-06
-1.5388e-06
0.00705724
3.48954e-08
0.0041744
5.38095e-08
-0.000392093
-3.93642e-05
0.00360506
0.00890764
-1.0237e-07
2.68036e-06
0.00102548
7.90385e-08
0.000544861
6.99005e-08
9.90138e-08
9.30477e-08
5.41271e-08
1.16729e-07
-9.15384e-05
-0.00189809
-0.00898944
-1.09966e-07
-2.32263e-06
1.707e-07
-7.50964e-08
5.11379e-08
1.57692e-06
-2.17179e-06
-0.0315654
2.68633e-07
5.72658e-08
5.01601e-08
9.75094e-09
-6.77654e-06
6.31727e-07
1.19438e-07
-1.35204e-07
-1.01559e-06
1.21439e-07
-1.91848e-06
-2.26392e-07
0.0045836
-5.53926e-07
1.27219e-07
1.01551e-07
1.00702e-07
0.000344903
-0.000886435
-3.20356e-06
2.15863e-08
-0.00206902
2.60059e-07
8.84929e-08
1.0357e-06
0.00220683
-0.00448379
-1.1631e-06
6.28858e-08
-0.000375685
5.23278e-08
6.15112e-08
6.02131e-08
-0.00846553
0.000222322
-3.40122e-08
-0.000183889
0.00841232
1.25627e-07
1.08251e-06
3.27172e-06
-0.000165063
-6.65376e-07
0.00493383
1.44296e-08
-0.00203673
-8.16976e-06
0.002577
2.67236e-07
2.64618e-08
0.00178076
8.10933e-08
1.62141e-07
0.0096163
-0.00319208
0.00183107
3.05854e-05
9.12799e-08
1.77595e-08
0.00534943
6.54342e-08
7.0375e-08
5.77313e-08
1.28081e-06
8.96732e-08
3.36422e-06
1.12287e-07
-0.00351226
0.00229528
5.33286e-08
0.000305846
1.14998e-07
0.00105422
-0.000416115
9.74629e-08
9.71867e-08
8.50444e-08
-1.92628e-05
9.96305e-07
1.5132e-06
0.00179304
0.00269053
-0.0001641
6.1862e-07
-0.00301318
0.00203953
-1.52779e-05
0.00143049
5.97068e-08
7.45085e-08
2.7806e-08
9.6319e-08
8.45457e-08
1.21398e-07
0.000606062
1.90301e-06
0.00100702
-0.00274202
-0.00675007
-0.0298697
0.00344186
-2.64026e-06
0.00268915
-4.0731e-07
-1.46599e-06
4.65261e-08
1.03967e-07
-1.12065e-06
-0.00052985
6.55814e-07
0.00233492
0.00269524
3.38246e-08
1.25381e-07
2.92547e-09
8.13444e-06
5.51908e-08
1.1971e-06
0.00428077
5.71025e-08
9.31964e-08
3.80505e-08
5.52622e-08
-2.19844e-06
0.00118188
-1.06782e-06
0.00207092
4.30763e-06
9.03584e-08
0.00134813
1.18727e-05
-1.04314e-07
0.00044977
0.00347495
-0.0323066
-0.0203109
-6.538e-05
7.5158e-08
0.0059267
0.000781874
1.73182e-06
0.00774857
3.96061e-08
3.84018e-07
7.133e-08
7.35922e-08
0.00762406
1.96058e-06
1.04691e-07
-2.74673e-07
0.00079404
0.000305438
3.89316e-07
-9.10938e-06
0.000453178
0.00355112
7.48502e-08
-3.19623e-07
2.28102e-06
7.10728e-08
8.56746e-08
-0.0033238
6.74243e-08
3.53408e-05
0.0016648
0.0059099
3.13276e-08
-2.36673e-06
-4.12581e-06
9.71623e-08
-2.87419e-08
7.36691e-05
-0.0301773
-3.3e-08
4.75924e-06
-1.12608e-06
-4.45634e-06
0.00278975
-4.86194e-05
-1.93656e-07
-0.00409889
0.00147852
-3.99194e-08
7.60367e-08
0.000184098
3.76214e-08
1.97062e-08
0.000712813
-1.99332e-06
2.52637e-06
1.17087e-08
-8.49838e-07
7.4351e-08
5.0605e-08
5.47326e-08
3.85574e-08
-0.000635481
1.81706e-08
2.56494e-05
-0.000665495
-6.2353e-07
-5.26933e-07
-0.00436245
0.00423799
-0.00297279
2.12519e-07
1.03211e-08
7.63521e-08
-1.74037e-07
-3.04256e-06
-0.000826436
5.98214e-08
5.55394e-06
-0.000250611
-2.24906e-07
-2.42524e-06
-6.26541e-07
-2.71052e-06
-3.05368e-06
1.80547e-08
-3.21215e-06
-3.87762e-06
-4.08766e-06
-4.65501e-06
-2.48348e-06
-4.95558e-07
6.19725e-07
6.44623e-08
2.65052e-07
-2.48614e-06
2.90899e-08
3.90741e-06
0.00146166
-9.58607e-06
0.00260293
-3.5229e-08
8.0975e-09
-0.00231712
0.00763072
4.68017e-08
6.14332e-07
-2.62389e-07
-0.0208414
-0.00594682
4.96912e-08
1.92138e-06
-8.69463e-08
0.00329916
0.000896266
9.10854e-08
-0.000180482
0.000446361
-2.79103e-06
0.00500447
1.96874e-06
-0.00393657
0.00220764
1.66062e-08
0.00091505
-9.35633e-05
2.00152e-07
4.45409e-06
5.40475e-06
-1.04181e-06
7.65993e-08
0.000191088
0.00388086
4.29569e-08
4.83733e-08
-0.0354925
0.000838886
5.02291e-06
6.9841e-08
-2.17968e-05
-2.2295e-07
0.00233653
-0.000606116
1.30083e-07
9.02915e-08
4.72043e-08
8.4898e-08
0.00630483
-0.0110158
0.00617831
-2.04391e-06
-5.13322e-05
-0.00239618
4.81905e-08
6.70555e-08
0.000174056
3.72893e-08
0.00383941
-1.83654e-07
0.00432434
2.90058e-08
6.37005e-08
-0.0074193
7.69568e-08
-3.33944e-06
3.138e-05
1.55136e-07
2.3307e-07
1.95511e-08
4.95187e-07
0.000447932
2.02656e-06
0.00141174
4.63559e-08
-3.2529e-09
9.74059e-08
5.37823e-06
-0.00137523
-0.0206836
6.76756e-06
-4.14767e-06
-3.65125e-06
0.00636695
-1.27267e-06
4.00544e-08
6.24259e-08
4.7319e-08
-6.50636e-05
-3.35102e-05
0.00168475
-2.50739e-06
-4.72118e-06
5.05766e-08
-0.00111142
-4.1233e-05
0.00333419
6.31549e-08
8.13715e-09
-3.22411e-08
0.000799537
9.97172e-06
0.00290578
-2.68874e-05
-3.65651e-06
-8.49406e-05
-1.10499e-08
1.88166e-07
1.77429e-06
-0.000122286
0.000816697
8.04747e-08
-4.43911e-06
-8.73793e-08
2.03332e-07
1.31315e-05
-0.0123615
-0.0136761
-3.17501e-08
7.47212e-06
0.000287954
-0.0240156
-0.000368187
0.00665934
0.00491291
4.76921e-08
1.98702e-06
-8.41348e-08
-4.4169e-06
4.26752e-09
5.53565e-06
-6.65377e-07
9.45163e-07
-0.000100804
-0.00061951
1.85555e-10
1.51003e-06
4.53373e-06
-1.72573e-06
-4.21677e-07
0.0116256
-1.44805e-06
-4.53078e-08
-2.845e-07
0.00680138
-1.03662e-07
3.43356e-06
1.8921e-06
-0.00488994
0.000498083
-2.15535e-08
0.00769804
0.00182972
-0.0154026
0.000962097
1.89696e-07
-3.33569e-06
-2.47633e-06
0.00732848
0.00187211
5.38801e-08
0.00186222
-3.39876e-05
2.12105e-06
-1.80861e-07
-0.00216426
-0.0037429
0.00372473
1.08707e-07
-0.0103631
3.004e-08
0.00117532
7.22601e-07
0.00369757
-0.000621051
5.89971e-08
-2.49996e-08
0.000299504
0.00172685
-5.90172e-05
5.58016e-08
-2.53889e-06
8.41499e-07
0.00877994
0.000223151
-0.00017676
-1.89235e-07
-0.000311854
2.85285e-06
-0.0129575
5.4706e-08
-6.24831e-06
-0.0108892
3.77859e-09
-1.48353e-06
1.20329e-09
-1.18467e-08
1.11239e-07
-0.00408561
6.64771e-08
3.44189e-08
0.00278035
0.00688878
4.67745e-08
0.000122843
4.56254e-08
1.14164e-07
3.2847e-08
7.58988e-08
7.90792e-08
0.00079094
0.00226071
2.94214e-09
0.000902034
-1.21903e-06
-3.07218e-07
0.00043828
-2.23257e-06
-1.65397e-07
6.80999e-08
7.36791e-08
-0.00279255
2.18482e-06
-0.000682455
-2.05493e-08
0.00763738
0.000775823
2.09704e-06
-0.00386504
-0.000407515
4.08536e-08
-0.000153644