/*--------------------------------*- C++ -*----------------------------------*\
| =========                 |                                                 |
| \\      /  F ield         | OpenFOAM: The Open Source CFD Toolbox           |
|  \\    /   O peration     | Version:  v2012                                 |
|   \\  /    A nd           | Website:  www.openfoam.com                      |
|    \\/     M anipulation  |                                                 |
\*---------------------------------------------------------------------------*/
FoamFile
{
    version     2.0;
    format      ascii;
    class       volVectorField;
    location    "100";
    object      U;
}
// * * * * * * * * * * * * * * * * * * * * * * * * * * * * * * * * * * * * * //

dimensions      [0 1 -1 0 0 0 0];


internalField   nonuniform List<vector> 
13917
(
(0.506496 0.0242617 -4.72115e-20)
(0.994351 -0.010419 1.98164e-21)
(1.1026 0.121985 -2.2112e-20)
(1.03342 0.017564 0)
(0.99607 -0.000421747 -3.58974e-21)
(0.999693 -0.0103908 8.46244e-22)
(1.04709 0.0351317 8.10175e-21)
(0.901774 0.0116015 2.25921e-22)
(1.06117 0.0251749 -1.62314e-20)
(0.0661998 -0.181346 0)
(0.913397 0.0103697 -1.33039e-20)
(1.02326 0.0142808 -3.40475e-21)
(1.00858 0.000155535 0)
(0.776788 0.204098 6.82931e-22)
(1.01572 0.0099768 -1.51787e-21)
(0.482876 0.0171646 7.60758e-20)
(1.00315 -0.000118629 0)
(0.933118 0.0252766 -1.44655e-20)
(1.06184 0.108874 3.40159e-20)
(0.549857 0.0259885 7.26962e-20)
(1.01056 0.0443371 1.63967e-22)
(1.00972 0.00711526 0)
(1.05097 0.0604792 -1.21495e-20)
(1.0096 0.00683431 0)
(1.02952 0.0255444 0)
(1.00332 0.0452075 -7.21597e-22)
(1.02682 0.0106799 -2.09331e-21)
(0.0384266 -0.109286 0)
(0.974501 0.0438472 3.57124e-21)
(1.01921 -0.00237586 6.71321e-23)
(0.0599261 -0.109911 0)
(1.07513 0.0728404 -3.28713e-22)
(1.02831 0.0194 0)
(0.547671 0.0465993 -6.55946e-21)
(1.01012 -0.000282115 -1.57613e-22)
(0.882243 0.000913206 0)
(1.01505 0.0227952 4.91296e-22)
(1.00117 9.02705e-05 8.64238e-22)
(1.04826 0.0353911 1.25338e-20)
(1.02964 0.048031 -1.76222e-22)
(1.0034 -0.000103175 0)
(1.01332 -0.00141356 5.9539e-22)
(1.05594 0.0196944 1.07071e-20)
(1.07802 0.0984378 1.13456e-20)
(1.07524 0.098582 2.92032e-22)
(0.913208 0.0587736 -6.68872e-21)
(1.01181 0.0421509 -1.55623e-22)
(0.504688 0.338192 2.74256e-21)
(0.826764 -0.299408 -3.42222e-21)
(1.01 -0.000309235 1.93835e-22)
(1.0228 0.0138412 -3.4359e-21)
(0.984878 0.0774188 -1.13762e-21)
(0.345156 0.00842742 3.54697e-20)
(1.01556 0.0122082 0)
(1.01666 0.0132559 -1.46966e-21)
(0.988722 0.082427 5.91391e-21)
(-0.0157903 -0.0324605 -1.40125e-20)
(1.04946 0.0597255 3.91555e-22)
(1.01289 -0.00161917 5.47971e-22)
(0.908858 0.0459723 5.52356e-21)
(0.340301 0.271884 9.21166e-22)
(1.03109 2.75156e-05 0)
(1.00887 -8.67815e-05 -7.42733e-23)
(1.02943 0.0248257 -1.03853e-20)
(0.918455 0.149196 -7.00552e-20)
(1.04046 -0.00626443 1.57476e-22)
(0.963085 0.040242 4.8223e-21)
(0.882871 -0.018012 0)
(0.921597 0.0279461 3.7068e-21)
(0.428241 0.0181288 0)
(1.03317 0.154346 -2.34941e-20)
(0.526534 0.0408216 -8.29274e-21)
(1.03164 0.008311 -4.88906e-21)
(1.01262 -0.00180197 -5.51902e-22)
(1.01186 0.0465634 0)
(1.02474 0.0268459 -4.9194e-21)
(1.00522 0.00707543 1.0078e-21)
(1.01232 -0.00193928 -5.13599e-22)
(1.02485 0.026122 0)
(1.02858 0.0198839 4.03802e-21)
(1.01286 0.0126213 3.84862e-22)
(1.00273 -9.48948e-05 0)
(1.03125 0.00776208 0)
(1.01109 0.116775 -2.58516e-20)
(1.01176 0.00229802 3.21213e-21)
(0.918853 0.122146 0)
(1.07405 0.071508 1.32757e-20)
(1.01121 0.00119719 -2.65943e-21)
(1.02826 0.0479338 -1.23107e-21)
(1.00383 -0.000141544 -4.03892e-22)
(1.00604 -0.000301142 1.12541e-21)
(1.05726 0.0200742 -1.12615e-20)
(0.840569 -0.314228 8.22191e-21)
(1.00932 -0.000368731 0)
(1.01533 0.0152182 5.20842e-22)
(0.968431 0.0467637 -4.21114e-21)
(1.13735 0.196655 1.08311e-20)
(1.00202 -4.20929e-05 5.10722e-22)
(1.01167 0.00132866 1.71304e-21)
(1.09584 0.0971219 0)
(1.00617 -5.991e-05 -3.21884e-22)
(1.00694 -0.000136695 0)
(1.01301 0.0129744 -1.74166e-22)
(1.00384 5.38962e-05 0)
(1.00549 0.00606117 0)
(0.963519 0.0666635 1.72116e-21)
(0.663277 0.144171 -1.20947e-20)
(1.03135 0.00548651 0)
(1.01371 -0.00101801 -1.21433e-21)
(0.939892 -0.0248505 -2.22948e-20)
(1.01831 0.000342237 1.32974e-21)
(0.566707 0.0526078 -4.43454e-20)
(0.979503 0.04895 -3.41026e-22)
(0.447915 0.360949 -4.92467e-20)
(0.931583 0.14791 6.5671e-20)
(1.02272 0.0279309 -4.00742e-21)
(1.06146 0.10524 0)
(1.00676 -0.000263207 0)
(1.09258 0.12063 -1.46557e-20)
(1.03046 0.00430807 9.48891e-21)
(1.00329 -0.000113176 -1.6747e-22)
(1.01166 -0.00190747 0)
(0.956043 0.0429586 -5.62446e-21)
(1.03024 0.0953106 -1.22872e-22)
(0.376655 0.0132604 0)
(0.973691 0.11622 -4.10491e-20)
(1.03009 0.0238629 9.36907e-23)
(1.01098 0.0490803 2.46526e-22)
(1.00814 0.00168078 8.85473e-22)
(1.03307 0.0978685 0)
(1.06477 0.0429661 0)
(1.01371 -0.0560668 0)
(0.664234 0.0499054 3.63872e-20)
(1.02193 0.0276874 -3.2387e-21)
(1.07716 0.0801358 -1.8065e-20)
(0.937807 0.0157569 2.40302e-20)
(0.300366 0.22016 5.12136e-21)
(0.333585 0.0120881 6.05758e-20)
(0.997977 0.0465049 -2.48273e-21)
(1.00041 5.63954e-05 -4.30401e-22)
(0.83253 0.224363 3.43071e-22)
(1.01205 -0.00198293 5.14948e-22)
(0.980329 0.0654893 -6.38537e-21)
(1.00953 0.00527367 5.19462e-22)
(1.02924 0.00801643 -8.36156e-21)
(1.0118 0.00258113 -1.23049e-21)
(1.0356 0.151364 0)
(0.876732 0.261276 7.97508e-21)
(0.556132 0.301014 0)
(1.01584 0.012693 0)
(1.02635 0.045978 0)
(1.00773 -0.000128611 -1.08511e-22)
(1.0289 0.00738297 0)
(1.03083 0.00395485 -5.64326e-21)
(1.11391 0.197744 0)
(1.0093 0.00399219 0)
(1.00417 1.08483e-05 0)
(0.623326 0.0442912 4.15526e-20)
(1.00493 -0.000121436 -4.77682e-22)
(1.0062 -0.000276753 0)
(1.01083 0.00452534 -3.64145e-21)
(0.830893 0.229171 2.38401e-20)
(1.00878 0.0200763 2.93275e-22)
(0.826856 0.220363 0)
(0.565446 0.290159 1.83979e-20)
(1.12718 0.11996 6.29284e-21)
(0.233496 0.00859898 2.10103e-20)
(0.403318 0.333129 2.99015e-20)
(1.01305 -0.000755771 3.44543e-23)
(0.995335 0.0493254 5.12626e-22)
(1.00943 0.00657205 0)
(0.686407 0.0599241 -3.48473e-20)
(1.06163 0.0241715 0)
(0.439073 0.235693 -1.10212e-20)
(1.01641 0.0469445 2.39837e-21)
(1.00647 -0.000125856 2.22118e-22)
(1.03413 0.0172426 -4.49017e-21)
(0.972899 0.0742327 0)
(1.06454 0.0416737 1.1938e-20)
(1.00751 0.0201514 -3.13967e-22)
(1.05396 0.0204247 -1.23939e-20)
(1.0095 0.00648301 3.71145e-22)
(1.02228 0.0139248 -7.72379e-21)
(0.978858 0.133029 1.04884e-20)
(1.09114 0.124537 3.11831e-20)
(1.02553 -0.0666465 0)
(1.02184 0.0135143 6.78051e-21)
(0.971296 0.129423 7.85953e-21)
(1.01913 -0.00250213 9.07685e-23)
(0.927136 0.110206 0)
(1.01661 0.0440469 0)
(1.07371 0.0952978 -1.78634e-20)
(1.00095 0.11861 0)
(0.523766 0.0286219 6.96278e-20)
(1.00928 -0.000279945 1.38242e-21)
(0.387497 0.0149999 3.03577e-20)
(1.03258 0.0340866 -5.09891e-21)
(0.703754 0.0530598 0)
(1.00994 -0.000237632 0)
(1.00927 0.00434078 -1.32242e-21)
(1.0141 0.0386797 -9.60642e-22)
(0.438192 0.0184046 8.95426e-21)
(0.321522 0.0114966 -3.52124e-20)
(1.01373 0.0189758 0)
(0.979791 -0.0853167 2.38826e-20)
(0.989482 0.0241582 0)
(1.02759 0.046359 9.44549e-22)
(1.01201 -0.00189214 0)
(0.978114 0.0799861 0)
(1.01259 0.0123775 -2.41826e-22)
(1.00694 0.00103478 7.6497e-22)
(0.9846 -0.0118497 8.09672e-21)
(0.977424 -0.0121561 9.58376e-22)
(0.545857 0.307829 -7.52412e-20)
(1.077 0.0785427 0)
(1.00173 0.0478287 7.77332e-22)
(0.798502 0.163094 -3.55687e-20)
(1.00592 0.000483813 0)
(1.00963 -0.00177813 -1.01882e-22)
(1.00971 -0.0017702 1.07052e-22)
(0.389801 0.340937 -2.46415e-21)
(0.988953 0.124481 -3.54505e-21)
(0.952124 0.133725 0)
(1.0177 0.00194133 0)
(1.00753 -0.000137495 5.64913e-23)
(0.84819 -0.0195323 -1.16058e-21)
(0.379129 0.013735 0)
(1.00886 -0.00151491 0)
(1.00866 -0.00147034 0)
(1.00303 -0.000170302 0)
(1.01008 -0.00188023 0)
(1.01016 -0.00188241 8.21886e-22)
(0.518014 0.0373496 0)
(0.569177 0.28849 0)
(1.01119 0.00985394 6.26087e-23)
(1.01417 -0.00123441 -2.73928e-23)
(1.01813 0.0685268 0)
(0.48378 0.0313146 3.05486e-20)
(1.00459 -0.000127434 -4.123e-23)
(1.01743 0.00183629 3.41214e-22)
(0.965762 -0.0727924 -2.53746e-20)
(0.969527 0.0625145 -2.81914e-20)
(0.986939 0.129082 -7.04071e-21)
(0.781745 0.153441 3.84117e-20)
(0.99638 0.0381669 3.33254e-22)
(1.00969 0.00543068 0)
(0.456147 0.318674 0)
(1.0176 0.0719591 1.90201e-21)
(0.983838 0.0459044 -1.79032e-21)
(1.05625 0.0848863 1.5851e-20)
(1.01431 0.0188047 -1.25942e-21)
(0.575186 0.285509 8.55718e-22)
(1.03071 0.00530692 -1.14468e-20)
(1.03301 0.0440507 -2.11033e-22)
(1.02144 0.0484219 -4.6566e-22)
(1.01091 0.00977632 0)
(1.00185 -4.60416e-05 0)
(1.03018 0.024578 8.34488e-21)
(1.0089 -0.00608471 -9.41759e-22)
(1.01041 -0.000537699 6.84587e-22)
(0.414186 0.0205339 2.92938e-20)
(0.753177 -0.180167 0)
(1.01131 -0.00193955 1.01156e-21)
(1.00839 -0.00138337 -8.43872e-22)
(1.00909 0.00404947 0)
(1.00834 -0.00139112 -8.78632e-22)
(1.03101 0.00496878 -1.01689e-20)
(1.01296 0.000299995 -4.44824e-21)
(1.04017 0.0486419 -5.95993e-21)
(1.01175 -0.00203051 0)
(0.342523 0.0137541 0)
(0.674907 0.159317 -2.24184e-20)
(1.01885 0.0105951 -1.65534e-22)
(1.00718 -0.000288321 8.94167e-22)
(0.887207 0.0280346 0)
(1.0113 -0.00230104 -1.39969e-21)
(1.07394 0.0876217 1.79698e-21)
(0.43554 0.0245965 0)
(1.0112 -0.00226661 -7.35259e-22)
(0.448746 0.0225614 -7.16976e-20)
(1.01017 -0.000705534 -1.33533e-21)
(0.842664 0.233679 1.79653e-20)
(1.00575 -0.000103929 0)
(1.01472 0.0122881 -1.8377e-21)
(1.01085 0.00991215 0)
(1.00896 0.00451464 -1.19553e-22)
(1.04294 0.130938 9.5025e-21)
(1.00265 0.000147943 2.83104e-23)
(1.15316 0.129833 -9.52516e-21)
(1.03017 0.0382291 4.03245e-21)
(0.785384 -0.227811 -6.78984e-21)
(1.01228 0.00443386 1.5173e-21)
(1.0688 -0.061858 -6.01789e-21)
(0.319491 0.0111686 0)
(1.00575 -0.0002199 4.7059e-23)
(1.03959 0.0632251 -9.62963e-21)
(1.00377 -0.00514043 -4.84663e-22)
(1.02073 0.0283872 2.95068e-21)
(0.99872 -0.00168586 3.26474e-21)
(1.0258 0.0261355 5.66881e-21)
(1.00965 -0.000529643 0)
(1.00346 0.000176024 1.02907e-22)
(0.970443 0.0597394 -3.79684e-21)
(0.988989 0.0354614 1.65368e-21)
(1.03318 0.044069 4.83131e-21)
(1.02589 0.0255011 0)
(1.01699 0.00185452 2.44672e-21)
(0.649627 0.0474912 -5.0787e-20)
(0.427426 0.0158832 -5.53477e-21)
(1.00799 0.0010534 1.55688e-21)
(1.01819 -0.0093269 -3.17132e-22)
(1.02157 0.0286926 -3.60158e-21)
(0.889414 -0.10753 0)
(1.09836 0.0846662 -5.99995e-20)
(0.672168 0.126097 0)
(0.494456 0.227461 6.5915e-21)
(1.03896 0.000422966 1.24422e-23)
(1.01623 -0.0370762 -8.23823e-21)
(1.00843 -9.2111e-05 0)
(1.03948 0.122973 0)
(0.865808 -0.0980526 3.95919e-22)
(1.10423 0.118353 2.00812e-20)
(1.01275 0.000293974 -2.51722e-23)
(1.01587 0.0109537 0)
(1.03698 -0.0149549 3.21604e-20)
(1.00906 0.00590508 -1.12164e-21)
(0.990241 -0.0138953 2.64703e-21)
(1.07104 0.0951337 -8.6429e-21)
(1.00348 -0.000132233 -1.55199e-22)
(0.699463 0.0628921 -9.66039e-23)
(1.01165 0.00178674 -3.95652e-21)
(1.07925 0.0484001 2.3044e-20)
(1.01493 -0.00310135 3.23298e-22)
(0.471649 0.0165568 0)
(1.00586 0.00101527 -3.1076e-23)
(1.03336 0.044091 5.71792e-21)
(0.988435 0.0272651 -1.54451e-21)
(1.03557 0.00137906 4.33639e-24)
(1.00444 -0.0001339 4.54145e-22)
(1.06085 0.0842189 -4.14367e-20)
(1.01116 0.0760613 -5.11741e-20)
(1.01595 0.0151599 3.37548e-21)
(1.00904 0.00550427 -4.8991e-22)
(0.59341 0.0602406 -2.84234e-21)
(1.00083 0.0722059 0)
(0.809821 0.228458 9.4569e-22)
(0.763883 0.183289 1.21832e-23)
(1.01084 -0.00211775 8.50948e-23)
(1.01195 0.0105957 -1.8573e-22)
(0.957747 0.0604084 0)
(1.00515 -0.0304725 -1.9427e-20)
(1.01075 -0.00208862 -8.00826e-23)
(1.00054 -0.00539927 0)
(1.01888 0.013294 5.25753e-21)
(1.01355 0.0733502 7.99077e-22)
(1.03318 0.0442336 9.00864e-22)
(1.01159 0.103244 -1.58619e-21)
(1.01913 0.0150361 0)
(1.06836 0.0928951 1.42919e-21)
(1.07468 0.0501733 3.04305e-21)
(0.557622 0.0474144 0)
(1.00826 0.00182976 -1.20743e-21)
(1.01637 0.0154008 0)
(0.992554 -0.00114203 0)
(1.06382 0.139879 -1.12663e-20)
(1.00379 -0.00012455 0)
(0.505477 0.0219415 -8.30253e-20)
(1.07521 0.049292 0)
(0.855417 0.163541 5.91277e-21)
(1.01657 0.0135583 -1.67239e-21)
(1.00956 -0.0096064 -4.65245e-21)
(1.01684 -0.00824267 1.32165e-21)
(0.876559 -0.297556 -8.48265e-21)
(1.01245 -0.00227761 -6.54383e-22)
(0.961349 0.138205 -4.12445e-21)
(0.890678 0.0444997 0)
(0.983688 0.0287729 3.75275e-21)
(1.01892 0.0110029 3.96841e-21)
(1.08465 0.181944 5.37856e-21)
(1.01608 -0.00323729 -6.59086e-22)
(0.531022 0.294795 -2.30881e-20)
(0.997669 0.123871 -1.58216e-20)
(1.0124 -0.00273258 -1.31884e-21)
(0.864805 -0.298481 9.52387e-22)
(1.01036 0.0101831 0)
(0.996269 0.0412075 -1.71312e-21)
(1.00761 -0.000714947 0)
(0.581384 0.0383654 -3.72501e-20)
(0.980874 0.0448966 1.80303e-21)
(1.01788 0.023132 2.10866e-21)
(0.755693 -0.0982184 -4.99436e-20)
(1.05291 0.0884543 -1.14165e-21)
(1.01471 0.0178032 -8.20651e-22)
(0.704571 0.264062 -5.17518e-21)
(1.11275 0.0684032 2.46605e-20)
(1.01939 0.0223746 -2.62622e-21)
(1.03879 0.133917 0)
(1.01257 0.0108275 0)
(1.05002 0.0977583 1.04475e-21)
(1.09911 0.122869 -3.3542e-20)
(1.01181 0.00157578 3.69954e-21)
(1.05307 0.0318449 1.47664e-20)
(1.02671 0.0254783 -3.60826e-21)
(1.00909 0.00460635 0)
(1.00735 0.00201352 0)
(1.00838 0.00221535 8.99053e-22)
(0.243547 0.227447 0)
(1.13049 0.096858 -5.0495e-21)
(1.01649 0.0145624 -1.67462e-21)
(1.00853 0.00196298 0)
(1.00966 0.00647312 0)
(1.03365 0.0569365 0)
(0.852101 -0.0852505 -6.46564e-21)
(1.01304 -0.00274676 -6.43106e-22)
(1.01287 -0.00068971 0)
(1.09657 0.0853108 3.58302e-20)
(1.01911 -0.00808915 0)
(1.00909 0.00476315 1.06212e-23)
(1.01822 0.0227472 2.12453e-21)
(0.64964 0.1807 -8.63811e-21)
(1.03255 0.276727 2.57748e-20)
(1.04463 -0.00681807 -1.67406e-22)
(1.06531 0.110707 -8.93614e-21)
(1.07852 0.126553 0)
(1.01309 -0.00257501 0)
(1.01247 -0.00259862 -6.50955e-22)
(1.00796 0.0371092 -1.82235e-22)
(1.00727 0.00192745 0)
(1.01292 -0.00275989 6.51403e-22)
(1.01116 0.0100319 0)
(1.01237 -0.00260897 0)
(1.01284 -0.00253681 4.67709e-22)
(0.47679 0.319884 -1.96911e-20)
(1.01277 0.0112186 -5.17768e-22)
(1.03225 0.0471399 0)
(0.358504 0.0156693 0)
(1.03837 0.0615143 0)
(1.00707 0.00113718 -4.15601e-22)
(1.02813 0.0073415 -4.32244e-21)
(0.734848 0.260214 0)
(1.01216 0.0383787 0)
(0.357965 0.0106748 -1.37928e-20)
(1.01429 -0.00300321 0)
(1.01801 0.00483266 -4.59931e-21)
(1.0164 -0.0033281 6.87821e-22)
(1.01054 -0.00197935 8.72537e-22)
(1.01506 0.0218353 -5.17404e-22)
(1.00988 0.0100266 0)
(0.662869 0.158345 6.12071e-22)
(1.0079 -0.0114215 6.61031e-22)
(0.949311 0.0633517 1.53885e-20)
(1.01768 0.00484471 0)
(1.05837 0.0484991 -3.19027e-21)
(1.0039 -0.00659701 -7.65673e-22)
(1.01246 0.0119844 4.74645e-22)
(0.997095 0.0442688 -1.47567e-21)
(0.788825 0.222629 -7.93734e-22)
(1.01897 0.0129444 -6.73969e-21)
(0.902204 0.203566 -2.00469e-20)
(1.0072 0.00139852 -3.19297e-23)
(1.00649 0.000679434 -8.05198e-22)
(1.00957 0.00615468 -4.14522e-23)
(1.01066 0.0105064 -6.89323e-22)
(1.00669 0.000854988 1.19816e-22)
(1.00904 0.000822857 -1.67245e-21)
(0.638477 0.0472417 -3.45115e-20)
(0.398937 0.262111 2.67386e-21)
(1.00656 0.000780119 -2.34872e-22)
(1.02376 -0.0930737 1.13791e-20)
(1.09427 0.0884856 1.41021e-20)
(1.01682 0.000580183 4.13792e-21)
(1.03533 0.0645877 0)
(1.09107 0.0643111 -4.12866e-20)
(0.669834 0.26661 3.32577e-20)
(1.05576 0.0335832 8.66203e-21)
(0.967085 0.0677461 0)
(0.941069 0.123561 0)
(0.967932 0.107186 -1.20355e-21)
(1.0102 0.0103947 9.82759e-22)
(1.03805 -0.00356057 -1.99046e-23)
(1.00098 -0.00453486 4.1109e-22)
(1.01426 0.0180508 7.31977e-22)
(0.947411 0.202172 0)
(1.00579 -0.000286313 6.83495e-25)
(1.01568 0.0118499 0)
(1.01572 0.0155036 -1.93254e-21)
(1.05647 0.0291033 3.90895e-21)
(1.01747 0.0446133 2.94579e-22)
(1.08281 0.122898 2.3323e-20)
(1.05733 0.0675163 -2.62834e-21)
(1.01777 0.00156237 6.62747e-22)
(1.00659 -0.00200223 -1.91977e-21)
(0.940191 0.0374895 6.35687e-21)
(1.03973 0.0451408 3.03013e-21)
(1.0162 0.0142697 0)
(0.761476 0.226087 4.07188e-21)
(1.04497 0.049706 -1.81077e-20)
(1.03094 0.0380866 -4.0959e-21)
(0.519377 0.290004 0)
(1.01187 0.00204761 -3.73649e-21)
(1.04141 0.0443013 -2.69404e-21)
(0.96347 0.0769618 3.45014e-21)
(1.00613 0.00112986 -2.19104e-22)
(0.530308 0.0353923 0)
(1.00653 0.000682808 5.43305e-22)
(1.01059 -0.0019764 0)
(1.03366 0.0587646 0)
(1.01414 -0.00302389 -6.9075e-22)
(1.00614 0.000514802 -1.06699e-21)
(0.97366 0.052912 2.83419e-21)
(0.592216 0.0399346 -1.98665e-20)
(0.667667 -0.122416 1.28315e-20)
(1.01086 0.00428353 -4.02837e-21)
(1.03958 0.0168396 6.96013e-21)
(1.01852 -0.0028241 3.62331e-22)
(0.919775 0.172093 1.17948e-21)
(0.794506 -0.0250787 -2.54415e-20)
(1.01589 0.0134298 2.96949e-21)
(1.0163 0.0128291 -1.26357e-21)
(1.01057 0.00383435 0)
(1.02486 0.0508252 7.89637e-22)
(0.912173 -0.277394 0)
(1.00836 0.00122133 0)
(1.00451 -0.000163618 0)
(1.00938 0.0042321 1.7275e-21)
(1.00906 0.00445654 0)
(1.00244 0.00274238 0)
(1.03754 0.0389871 0)
(1.00548 -0.000226507 -7.24314e-22)
(1.05568 0.0683844 0)
(1.0061 0.00107138 2.13153e-22)
(1.00995 0.00712234 -1.16233e-22)
(1.02686 0.0249341 0)
(0.646962 0.0934615 0)
(1.00586 -0.000424113 -8.46692e-22)
(1.04619 0.0238713 1.42676e-20)
(1.01044 -0.000395793 6.9758e-22)
(1.05799 0.0472877 2.80878e-21)
(1.03342 0.073879 0)
(0.99169 0.076394 2.1457e-21)
(1.01889 0.0486325 -2.18761e-21)
(1.11142 0.0901465 -5.85585e-21)
(1.02475 0.0233244 -4.56198e-21)
(0.949799 0.0340979 5.28882e-21)
(0.732042 0.056556 0)
(0.51098 0.310724 -2.54786e-21)
(0.380933 0.0184906 2.55198e-20)
(1.00791 0.00061417 0)
(1.00937 0.00559455 -6.60615e-23)
(1.01874 0.00277197 0)
(1.0193 0.00821333 0)
(0.914692 0.138009 3.18997e-20)
(1.01168 -0.00244026 7.70323e-22)
(0.845005 -0.265743 -5.06806e-21)
(1.03338 0.0339497 4.93506e-21)
(0.830373 0.0774164 -1.33363e-22)
(1.08655 0.0896637 1.52598e-21)
(1.05516 0.0207144 0)
(0.305397 -0.0712281 2.8136e-20)
(1.00659 0.000698314 2.77764e-22)
(1.08557 0.0629146 0)
(1.00273 -6.09551e-05 0)
(1.00995 -0.00238076 1.44617e-21)
(0.794385 0.0737861 9.32976e-22)
(1.01366 -0.00288166 1.56987e-22)
(1.1141 0.0978736 4.72114e-20)
(1.00689 -0.00010452 1.29343e-22)
(1.01556 0.000333054 -2.97475e-21)
(1.00945 0.00587619 8.36237e-23)
(1.08235 0.120161 -3.00024e-20)
(1.00105 0.00121548 0)
(1.00754 -0.00113207 0)
(1.08225 0.0954377 2.24673e-20)
(1.03487 0.0624829 0)
(0.894553 0.21749 -2.97976e-20)
(1.06886 0.151095 5.48e-20)
(0.666663 0.0467578 -2.60892e-20)
(0.637799 0.27511 -1.81795e-20)
(1.0058 -0.000379876 9.35749e-22)
(0.400181 0.0139172 -5.01201e-20)
(1.00995 -0.000247393 -1.04859e-22)
(0.334818 0.234857 -6.95842e-21)
(0.879027 0.246904 5.79618e-21)
(1.00929 -0.00274423 0)
(1.01444 -0.00621771 -1.227e-21)
(1.00685 -6.09705e-05 -2.07885e-22)
(1.04478 0.049031 8.53134e-21)
(1.05354 0.0191296 2.1434e-20)
(1.01352 -0.00289934 -1.61464e-22)
(1.00258 -3.53951e-05 -3.28978e-22)
(1.0112 0.000392915 -5.65631e-22)
(1.09388 0.152104 -2.47124e-20)
(1.01187 0.00517824 -4.40061e-21)
(1.07459 0.0683095 -2.81877e-20)
(1.01536 0.0114586 1.3072e-21)
(1.00748 -0.00108313 2.43273e-22)
(1.00555 -0.00014819 8.65864e-22)
(0.929383 0.061068 -4.89844e-21)
(0.950196 0.229904 2.80665e-20)
(0.384859 -0.0193369 0)
(1.05566 0.0823792 -4.9762e-21)
(1.03825 0.0387655 -2.58872e-21)
(1.03159 0.185831 -4.12674e-20)
(0.487288 0.0327611 0)
(1.00786 -0.000781141 -1.01842e-21)
(0.894791 0.212541 5.15191e-21)
(1.01087 0.000199086 5.87222e-22)
(1.09666 0.0698616 0)
(1.01897 0.00831753 -7.68285e-21)
(1.0889 0.175876 -1.05886e-20)
(1.00887 0.00421605 4.99104e-22)
(1.00275 0.00547996 0)
(1.02995 0.00814851 5.41925e-21)
(0.905452 0.261215 3.14704e-20)
(1.04185 0.0495865 -1.58442e-20)
(0.884154 0.156002 1.71035e-20)
(1.00496 -0.000214237 0)
(1.04084 0.0474939 1.2874e-20)
(1.00921 8.81761e-05 7.32904e-22)
(1.00552 -0.000145675 0)
(0.576268 0.0547282 0)
(1.09778 0.14322 -3.78395e-22)
(1.00978 -0.000352352 6.93236e-22)
(1.00861 0.108102 1.66531e-21)
(1.01723 0.00199838 3.20663e-21)
(1.01102 -0.00348729 7.78332e-24)
(1.00659 -0.000110365 -1.51876e-23)
(0.597098 0.0632697 5.69075e-20)
(1.01209 0.00514496 3.61967e-21)
(1.00651 -0.00733151 5.69538e-22)
(1.01176 -0.00245456 -1.39053e-23)
(1.00959 -0.000189622 2.29617e-22)
(1.05908 0.139287 3.97138e-20)
(1.00719 -9.9847e-05 1.14478e-22)
(1.02403 0.108668 0)
(1.00234 -7.86791e-05 7.36857e-22)
(1.00596 0.00113674 -1.49602e-22)
(0.305176 0.26085 -5.6158e-22)
(1.07544 0.0693757 0)
(1.01568 0.012961 -2.84744e-21)
(0.273192 0.00774319 0)
(1.11366 0.0960792 -4.97706e-20)
(0.931147 -0.118487 -5.9072e-21)
(0.957818 0.0710203 -6.82485e-21)
(1.00647 0.000633179 -2.66986e-22)
(1.01703 0.0088687 0)
(0.628672 0.0831315 -3.2276e-20)
(1.11657 0.0780949 2.69468e-20)
(1.00954 0.0356716 -5.22991e-23)
(1.01571 0.023345 1.65502e-21)
(1.00228 0.00692706 -1.75859e-21)
(1.0028 -8.91108e-05 0)
(1.00843 0.0029044 0)
(1.04271 0.00142525 -2.04186e-22)
(1.02859 0.0756024 0)
(1.02908 0.0316733 6.0996e-21)
(0.459858 0.302793 -1.34779e-20)
(1.04242 0.0505231 1.34565e-20)
(0.816593 -0.136759 -5.10589e-21)
(0.767061 -0.00392644 2.32571e-20)
(0.997895 0.0389551 1.44849e-21)
(1.03457 0.0444711 0)
(1.00811 0.119142 1.09673e-20)
(0.465008 0.0261822 3.56886e-20)
(1.00961 -0.000411763 -1.23762e-21)
(1.01827 0.0231168 0)
(1.04199 0.00586118 2.3702e-22)
(1.00602 0.00119413 -1.24834e-22)
(1.00438 -0.000124997 -2.21439e-22)
(1.00575 -0.000158123 7.2985e-22)
(1.02001 -0.00259309 -3.84944e-22)
(1.00714 0.00063702 -7.99369e-22)
(0.40661 0.0147096 3.31837e-20)
(1.07268 0.04267 -7.47492e-21)
(1.00459 0.00013294 -1.67088e-22)
(1.06992 0.0922644 -8.51238e-21)
(1.00515 -0.000234343 0)
(0.691318 0.136936 -2.37788e-20)
(1.01018 -0.000912286 0)
(1.00816 0.00147981 0)
(0.559809 0.036941 2.05407e-20)
(1.03747 0.0718445 -1.24359e-20)
(0.874208 0.131506 5.2598e-21)
(1.03147 0.0106268 1.6688e-21)
(1.01754 -0.00405306 0)
(1.0083 0.000670211 -5.22553e-22)
(1.0367 0.0141338 4.78567e-23)
(1.0481 0.0391772 -6.8157e-22)
(1.00863 0.00407796 -8.10232e-23)
(0.346427 0.0123871 3.62431e-20)
(1.03064 0.040466 -5.21953e-21)
(0.852804 -0.198439 -1.75569e-20)
(0.886524 0.162808 9.21207e-21)
(1.01505 0.0237176 -1.55275e-21)
(0.667422 0.046887 1.07156e-20)
(1.03912 0.017369 0)
(1.00302 1.49836e-05 0)
(1.00935 -3.92306e-05 -8.06341e-22)
(0.452558 0.0277234 0)
(0.674561 -0.140114 -2.89789e-20)
(1.03244 0.0348354 5.58648e-21)
(0.36441 0.0123208 1.63775e-20)
(0.877271 -0.301577 -1.5658e-20)
(1.00598 0.00112265 9.79574e-24)
(1.0081 0.00116614 -1.14915e-21)
(1.01425 0.0211975 5.18029e-22)
(0.983158 0.0733704 6.15181e-20)
(0.95891 0.0729734 0)
(1.04069 0.0496221 1.84971e-21)
(1.03594 0.0139296 5.12718e-21)
(1.04563 0.0244098 0)
(1.09773 0.069516 0)
(1.00844 0.00119673 -1.56651e-21)
(1.01707 0.104138 7.82852e-21)
(1.07177 0.0436789 3.09779e-20)
(1.01518 0.0146618 5.81263e-22)
(1.02821 0.0201128 2.89072e-22)
(1.00293 1.44873e-05 -5.04874e-22)
(1.04736 0.0386298 0)
(1.00865 -0.00336861 1.90553e-21)
(1.11212 0.067651 1.9293e-20)
(1.01928 0.0288851 -1.33368e-21)
(1.01443 -0.00957664 -8.47498e-22)
(0.352315 0.0120994 -3.43132e-20)
(1.02357 -0.003761 1.78712e-22)
(0.870669 -0.293816 4.24614e-21)
(1.01638 0.0228384 -1.25765e-21)
(1.00006 0.00299848 -3.23036e-21)
(1.03648 0.0336894 0)
(1.1162 0.079027 0)
(1.00346 -0.000127235 0)
(1.08548 0.0605316 -1.64741e-20)
(0.976251 0.223959 -3.02444e-20)
(0.86205 0.0622777 7.23876e-22)
(1.0202 0.00838228 7.65788e-21)
(1.02021 0.029225 -1.7144e-21)
(1.00549 0.000333005 4.09311e-22)
(1.01749 0.0063418 1.15044e-22)
(1.03001 0.00694439 9.51957e-21)
(1.00913 0.0289251 -1.68444e-21)
(1.00488 -0.0107927 0)
(0.93764 0.0569811 8.90869e-21)
(1.01971 0.109041 -8.42966e-21)
(1.00638 0.000509437 -2.78393e-22)
(1.11161 0.0681474 2.39864e-20)
(1.06007 0.0253215 1.95219e-20)
(1.05597 0.0297298 1.48823e-22)
(1.01155 0.113608 6.28037e-21)
(1.01191 0.0107995 0)
(1.08445 0.0634696 0)
(1.15113 0.164846 -2.80851e-20)
(1.00661 -0.000784227 -4.43696e-22)
(1.03961 0.0723183 -1.30773e-20)
(1.01042 0.0362546 0)
(1.07021 0.0434998 -1.84276e-20)
(1.00775 0.00231803 1.73092e-22)
(1.00679 0.00105448 -9.55121e-22)
(1.00837 0.00278553 0)
(0.420476 0.0163234 -1.64618e-22)
(1.0275 0.0189512 0)
(1.01034 -0.00120141 6.45172e-22)
(1.07758 0.0482721 -2.07076e-20)
(1.00877 0.00428749 2.30919e-22)
(1.00735 0.00121725 4.75587e-22)
(0.993531 0.0811235 -5.37729e-21)
(1.1473 0.157983 9.15044e-21)
(0.995213 0.039417 5.39623e-21)
(1.01082 0.255987 -1.17358e-20)
(1.01276 0.0688961 0)
(0.949346 0.0583531 0)
(1.03053 0.00655933 -1.32601e-20)
(1.00421 0.00728367 0)
(1.05502 0.174985 4.45888e-20)
(1.00959 -0.00394102 -8.25466e-22)
(1.05119 0.00719136 -1.96629e-22)
(1.00416 -0.000128844 5.60549e-22)
(1.00425 -0.000150347 0)
(1.02987 0.0114134 5.80977e-21)
(1.01765 0.0293226 0)
(0.994895 0.0822411 -3.94932e-21)
(1.00769 0.00220474 -1.76051e-22)
(1.03069 -0.0368436 1.38351e-22)
(1.00975 0.00370673 0)
(0.89634 0.253647 8.11187e-21)
(1.01704 0.0233844 -2.2894e-21)
(1.0565 0.0327851 -9.4114e-21)
(1.01476 -0.00311919 -7.22444e-22)
(1.05433 0.0861309 -2.29417e-20)
(1.01477 0.0116334 2.62545e-21)
(0.821013 0.248087 0)
(0.997573 0.0452489 -3.7091e-21)
(1.00316 -4.72472e-05 -3.95183e-22)
(0.661046 0.109783 -4.97465e-20)
(1.02751 0.0208126 -7.26708e-21)
(0.40925 0.0192665 -5.88162e-20)
(1.05365 0.0173339 1.02053e-20)
(0.992958 0.0735721 -1.4316e-21)
(1.00788 0.00303014 0)
(1.00784 0.000347627 1.92064e-23)
(1.02 0.00794195 3.67593e-23)
(0.721328 0.0720387 0)
(1.04555 0.0385624 -1.84944e-20)
(0.892669 -0.119123 5.76612e-21)
(1.01416 0.300421 8.38509e-21)
(1.01727 0.00615572 -4.25264e-21)
(1.06961 0.0445293 1.44795e-20)
(1.01406 -0.00116617 5.95099e-24)
(1.02024 0.00461564 -8.74748e-22)
(0.955855 -0.182208 9.55627e-21)
(1.01444 -0.00129827 -3.03503e-23)
(0.491568 0.312634 -8.30636e-21)
(1.04796 0.0236096 0)
(0.999876 0.0809809 0)
(1.05815 0.103557 -1.57106e-20)
(0.98926 -0.1489 0)
(1.00798 -0.00131365 2.13924e-22)
(1.0043 -9.64665e-05 1.07285e-21)
(1.0161 0.00889648 0)
(1.0065 0.000560196 2.85946e-22)
(1.01488 0.0116729 -2.26793e-21)
(1.02044 0.0220151 0)
(1.0092 0.00509855 -4.50894e-22)
(1.07676 0.0492257 0)
(1.00788 -0.0013004 0)
(0.964642 0.126132 4.81414e-21)
(1.01478 0.0144121 2.3062e-21)
(0.482817 0.0220468 9.87508e-20)
(0.398482 0.017781 0)
(0.873288 -0.0368347 2.90542e-21)
(0.937268 0.0605484 3.84548e-20)
(0.906296 0.17369 0)
(0.474136 0.0192828 -8.10298e-20)
(0.909829 -0.145499 4.48086e-22)
(1.00563 0.000667312 0)
(1.01186 -0.00379131 0)
(1.02383 0.00999921 6.5172e-21)
(1.02383 0.0204905 0)
(1.01056 0.00404338 2.99263e-21)
(1.04644 0.0391494 1.34656e-20)
(1.01173 0.00631744 8.58618e-22)
(0.849721 -0.0604987 4.68761e-21)
(1.01515 0.0120756 2.34193e-21)
(1.11934 0.131557 2.72984e-20)
(1.02744 0.0181072 0)
(1.07072 0.0363714 1.41716e-20)
(1.03527 0.0151763 0)
(1.00829 0.000347015 1.58605e-21)
(1.03084 0.0489347 2.12137e-22)
(1.02698 0.0209433 6.65618e-21)
(1.01013 -0.000132618 0)
(1.0409 0.0339802 9.9583e-21)
(1.01623 -0.00323435 6.37993e-22)
(0.666607 0.0449846 -1.82034e-20)
(1.02637 0.0782805 1.65612e-20)
(1.04812 -0.0184284 -1.90167e-22)
(1.00805 0.000893693 -2.37223e-22)
(1.02293 0.00180813 0)
(1.00919 0.00603051 6.78139e-22)
(1.00979 0.00372611 -4.52799e-22)
(0.554445 0.287595 3.99115e-21)
(1.00575 0.000809655 2.01375e-23)
(1.10475 0.124481 0)
(1.00883 0.0040959 -5.11688e-22)
(0.904702 0.143929 3.39727e-21)
(1.01487 0.0139621 2.06843e-21)
(1.01018 0.00576666 -1.34784e-21)
(1.08615 0.0614421 2.4376e-20)
(1.03374 -0.00320837 0)
(1.00586 0.000896596 -7.41267e-23)
(0.875672 0.191092 -4.50261e-22)
(0.92722 0.211148 0)
(1.01228 0.0175822 0)
(1.05893 0.0858088 4.18026e-20)
(1.00664 0.000366445 0)
(1.09024 0.11193 3.20723e-21)
(1.01726 -0.00337396 -6.28058e-22)
(1.00961 0.00390785 0)
(0.540407 0.0396941 0)
(1.00365 -0.000140111 -8.30583e-22)
(1.0337 0.0184044 0)
(1.06739 0.0917042 3.60911e-22)
(0.5217 0.0329647 -1.68298e-20)
(1.01756 -0.00330219 1.00592e-21)
(0.934049 -0.210604 0)
(1.06421 0.183278 0)
(1.01287 -0.00149473 0)
(1.00814 0.00809327 1.29667e-21)
(1.00928 0.00533629 6.08765e-22)
(1.09661 0.131518 0)
(1.02198 0.00219153 0)
(1.08391 0.0977065 0)
(1.02405 0.0126345 0)
(0.540085 0.0366645 0)
(1.01528 0.0128006 -2.52221e-21)
(0.621222 -0.0599452 -1.94888e-20)
(1.00852 0.00216724 0)
(1.01423 -0.00278863 0)
(0.969009 0.0638763 0)
(1.00752 0.000485123 1.07457e-21)
(1.02323 -0.00340808 -1.11077e-22)
(0.774632 0.0595567 0)
(1.01693 0.0194608 2.56259e-21)
(1.00705 0.00210013 -3.05028e-22)
(0.837692 -0.123555 0)
(1.01259 -0.00184751 1.21334e-21)
(1.0125 -0.00402613 0)
(1.03137 0.0764436 0)
(1.01895 0.0216206 2.64042e-21)
(0.901643 0.139499 -3.56887e-20)
(1.03137 0.0465914 0)
(1.08949 0.0658389 3.89869e-20)
(0.961091 0.0601946 1.2515e-21)
(1.04459 0.0242319 4.70637e-21)
(0.55673 0.0385208 0)
(1.01469 0.0151455 7.83621e-22)
(1.03581 0.0743574 0)
(1.01945 0.0049339 5.39046e-21)
(0.383168 0.0178553 -3.08806e-20)
(0.929494 0.127992 -3.97028e-21)
(1.03339 0.0104202 -7.90073e-21)
(1.01724 -0.00325314 0)
(1.01035 -0.000944085 7.38993e-22)
(1.0162 0.0136244 1.95313e-21)
(1.0168 -0.00328198 3.34051e-22)
(1.01138 -0.00255731 0)
(1.01106 -0.00210605 1.20695e-21)
(1.02014 0.00738059 -2.53207e-21)
(1.03609 0.0394495 8.45064e-21)
(1.00657 -0.000739811 4.29589e-22)
(1.01728 0.0190297 1.01738e-21)
(1.07031 0.0785536 3.01888e-20)
(0.570339 0.291573 -3.29982e-20)
(0.80028 0.248449 -2.01699e-21)
(1.06644 0.0887407 0)
(1.00925 0.00640388 -7.01249e-22)
(0.975601 0.076429 -6.07249e-22)
(1.01129 0.00553771 -1.13928e-21)
(1.0601 0.169336 1.29096e-20)
(0.917946 -0.26453 0)
(0.183417 0.00651506 4.12237e-20)
(1.01096 -0.00208923 0)
(1.00573 0.000740464 -1.96699e-23)
(1.01401 0.00118549 0)
(1.01275 0.010179 6.74008e-23)
(1.01081 -0.00205905 9.55231e-22)
(1.01622 -0.00339316 3.58798e-22)
(1.01379 0.00599983 -1.10188e-21)
(1.03425 0.0448983 4.16444e-21)
(1.00716 0.0021558 0)
(0.533506 0.0362257 5.20441e-20)
(0.862275 -0.139384 -4.04086e-22)
(1.00726 0.00249796 9.57275e-23)
(0.751114 0.0777982 -2.27095e-20)
(1.01987 0.00507416 -4.39112e-21)
(1.00841 0.00240244 5.32105e-22)
(1.02594 0.00678331 3.91316e-22)
(0.616604 0.0713643 -2.78674e-20)
(1.04421 0.0460797 2.21144e-21)
(1.00642 -0.000205328 -8.24001e-22)
(0.881938 0.0750568 -1.60941e-20)