/*--------------------------------*- C++ -*----------------------------------*\
| =========                 |                                                 |
| \\      /  F ield         | OpenFOAM: The Open Source CFD Toolbox           |
|  \\    /   O peration     | Version:  v2012                                 |
|   \\  /    A nd           | Website:  www.openfoam.com                      |
|    \\/     M anipulation  |                                                 |
\*---------------------------------------------------------------------------*/
FoamFile
{
    version     2.0;
    format      ascii;
    class       volVectorField;
    location    "550";
    object      ddt0(U);
}
// * * * * * * * * * * * * * * * * * * * * * * * * * * * * * * * * * * * * * //

dimensions      [0 1 -2 0 0 0 0];


internalField   nonuniform List<vector> 
13917
(
(0.00561373 -0.00206452 -2.14534e-17)
(-0.00660267 0.0094029 1.11528e-18)
(-0.00300788 -0.00692142 -2.48156e-18)
(-0.000580553 -3.27221e-05 3.76448e-19)
(0.00304072 0.00498267 9.30293e-20)
(-0.00778102 0.00785289 -9.17338e-19)
(-0.000936952 0.000177293 3.84073e-18)
(0.015026 0.0296398 -4.24245e-18)
(-0.000665423 0.000299602 3.97049e-18)
(-0.00622196 0.0158265 -6.13011e-19)
(0.0119397 0.0271225 1.84102e-18)
(-0.000495824 -0.000148054 -1.32873e-18)
(-0.000927671 -4.43178e-07 7.03354e-19)
(0.0692708 0.0112827 -6.38347e-19)
(-0.00393092 -0.00150054 2.87536e-19)
(0.00535289 -0.00125059 2.80607e-17)
(-1.49916e-05 5.23035e-06 4.85128e-21)
(0.0128458 0.0190506 5.26308e-19)
(0.000832736 -0.00285283 2.28922e-18)
(-0.00735323 -0.00541493 1.37248e-17)
(0.00303663 -0.00185178 -2.8859e-19)
(6.57824e-06 -0.000316606 -3.05185e-20)
(-0.000719737 0.000706363 -5.15725e-18)
(9.78803e-06 -0.000290381 -7.36024e-20)
(-0.000567125 -0.000317711 -3.36727e-19)
(0.00462595 -0.000905091 -2.03782e-19)
(-0.089415 -0.0395112 2.51631e-19)
(-0.00338619 0.0102643 -6.45139e-18)
(0.00988285 0.00532361 2.8872e-19)
(-0.00014067 0.000207608 -1.4345e-20)
(-0.00588544 0.00988776 -6.57325e-19)
(-0.00121404 -6.01457e-05 5.04017e-18)
(-0.000530587 -0.000169079 -3.4882e-18)
(0.00829685 -0.0026007 5.57285e-18)
(8.4871e-05 -2.84664e-05 1.93176e-20)
(0.0134772 0.0368742 2.63621e-18)
(-7.14134e-05 8.97154e-05 -1.1182e-18)
(-0.000429991 -2.90172e-06 -7.4465e-19)
(-0.000931876 0.00020625 -6.88625e-18)
(-0.00158655 -0.00434992 2.22991e-18)
(-8.18995e-05 3.70198e-06 -1.43011e-19)
(5.04913e-05 -0.000262899 1.75154e-19)
(-0.000621276 0.000228928 -2.20384e-18)
(-0.00133228 -0.00233398 -4.0377e-18)
(-0.000982014 -0.0022713 6.21065e-18)
(0.0120969 0.0269845 -3.39459e-19)
(0.00245918 -0.00159944 1.76768e-19)
(-0.0752754 -0.119294 2.58057e-17)
(0.0321555 0.0969336 -3.56719e-18)
(0.000105567 8.37018e-07 -2.67755e-20)
(-0.000510611 -0.000147283 1.47018e-18)
(0.00541991 0.00897272 -4.63194e-18)
(0.0119804 0.000405557 -2.65846e-19)
(-0.000436988 -0.000162312 2.56548e-18)
(-0.000441167 -0.000159497 4.14067e-20)
(0.00595921 0.00780297 -4.36484e-18)
(-0.00408872 0.0035928 6.22181e-18)
(-0.0007422 0.000740685 1.19068e-18)
(0.000187426 -0.000234739 -1.08794e-19)
(0.00979052 0.0299627 -6.86715e-20)
(0.0725639 0.0123005 -8.38513e-18)
(-0.00683817 -4.7968e-05 1.21946e-19)
(-0.000178565 5.34657e-06 9.63861e-21)
(-0.000555935 -0.000295684 -1.69051e-18)
(0.00384204 -0.0106791 8.67781e-18)
(0.017657 -0.00109176 -4.9263e-20)
(0.0111476 0.00872618 4.35791e-19)
(0.00884616 0.0389912 4.1815e-18)
(0.015396 0.0216311 -3.37109e-18)
(0.0109734 -0.000302997 -5.89905e-18)
(0.00498752 -0.00982894 1.27354e-17)
(0.00861777 -0.00231014 -1.12345e-17)
(-0.00052605 5.21003e-05 1.45935e-19)
(0.00019469 -0.000116662 4.02191e-19)
(0.00308062 -0.00244807 2.46443e-19)
(-0.000360768 -0.000459108 7.20128e-19)
(0.00165364 0.000705516 6.76259e-19)
(0.000274451 -8.57255e-05 -2.23393e-19)
(-0.000372488 -0.000424407 -2.37151e-18)
(-0.00052709 -0.000175903 6.55696e-19)
(-0.000499433 -0.000381128 -1.67043e-20)
(-3.5617e-05 6.06944e-06 1.1733e-19)
(-0.000534239 5.21086e-05 5.68463e-19)
(0.00875383 -0.00853557 4.82338e-18)
(-0.000631649 -3.12755e-05 1.6e-18)
(0.0413649 0.00247054 1.33276e-19)
(-0.00114117 2.02587e-07 -6.71563e-18)
(-0.000684832 -1.59992e-05 -2.71693e-19)
(-0.00105748 -0.00422157 -3.21618e-18)
(-6.70424e-06 6.9607e-06 -4.70337e-20)
(6.08689e-06 1.83045e-05 -1.2641e-19)
(-0.000609939 0.000240912 -3.09484e-18)
(0.0148698 0.106495 -1.09541e-18)
(0.000199937 -0.000112605 2.25572e-20)
(-0.000471517 -0.000128151 -2.87175e-20)
(0.011753 0.00606064 2.21194e-19)
(-0.0566961 -0.0709595 -2.59915e-19)
(-0.000100505 3.26548e-08 -7.71494e-20)
(-0.00066026 -1.76425e-05 4.55795e-19)
(-0.0103806 -0.0343893 2.398e-19)
(-0.000123672 5.55878e-06 1.16004e-19)
(-0.000134301 8.35707e-06 -1.55039e-19)
(-0.000541811 -0.000361151 6.8622e-19)
(-8.40883e-05 5.15397e-07 9.74339e-21)
(0.00135641 0.000869802 1.18552e-19)
(0.0133651 0.00720599 1.09587e-17)
(0.000317496 -0.0302667 -4.71129e-18)
(-0.00705918 -0.0023108 -2.09487e-19)
(-4.26961e-05 -0.000444861 -2.73452e-19)
(-0.096378 -0.0368851 7.06151e-20)
(-0.000858506 4.65902e-06 -5.5032e-20)
(0.0077407 -0.00322513 -5.63761e-18)
(0.0100906 0.00313719 3.71399e-19)
(-0.0463455 -0.113878 -2.49029e-17)
(0.00372905 -0.0100681 -9.53144e-18)
(-0.000190638 -0.00051457 3.42869e-18)
(0.00069307 -0.00245759 -3.60976e-18)
(-5.71211e-05 2.15557e-05 -6.17502e-20)
(-0.0021779 -0.00576041 2.46372e-18)
(-0.000510689 5.40314e-05 -1.00569e-18)
(-1.54985e-05 8.10265e-06 6.68638e-20)
(0.00022428 5.05909e-05 -1.18626e-19)
(0.0132274 0.00997233 1.28081e-18)
(0.00295944 0.000528109 -2.0143e-18)
(0.0119985 0.000505428 -7.81243e-20)
(0.0087974 -0.00817182 2.90457e-18)
(-0.000577254 -0.00024663 5.0063e-18)
(0.00363871 -0.00287002 -2.12102e-19)
(8.80012e-05 -0.000231629 -6.83606e-20)
(0.00288009 0.000223531 1.3181e-17)
(-0.000837733 0.000446342 6.91302e-20)
(-0.0307165 0.0213122 -2.33836e-18)
(0.0120421 0.00313157 -1.49081e-17)
(-0.000149504 -0.000483845 -1.00554e-18)
(-0.00143681 -0.000541619 1.06257e-17)
(-0.104613 -0.0524576 -7.81367e-19)
(0.0746691 0.0306775 -1.52902e-18)
(0.00877765 0.00136663 -9.20609e-19)
(0.00591716 -0.000188862 1.47124e-19)
(-0.000456159 -2.49527e-06 4.25852e-19)
(0.0512721 0.0438335 -2.70795e-19)
(0.000267781 -1.43083e-05 1.23092e-19)
(0.012547 0.00804411 -1.22932e-17)
(-0.000256715 -0.000209195 7.28016e-19)
(-0.000542732 3.69529e-05 8.48807e-19)
(0.000201169 -0.00260511 5.67253e-20)
(0.00520434 -0.00955151 7.86527e-18)
(-0.020047 -0.195764 -9.40335e-18)
(-0.0734111 -0.0773035 -2.6161e-17)
(-0.000435126 -0.000161627 -1.86414e-18)
(-0.000587936 -0.00349253 -1.82319e-18)
(-0.000151957 8.17903e-06 1.41047e-19)
(-0.000551287 3.88361e-05 2.52967e-18)
(-0.000518724 5.39795e-05 2.20632e-18)
(-0.0710083 -0.0736701 3.12721e-18)
(-0.000180019 0.000166029 -6.04156e-21)
(-7.85255e-05 4.08614e-07 3.15903e-21)
(0.0107622 0.00430553 6.21031e-18)
(-6.87527e-05 7.53148e-06 7.4904e-20)
(-4.8182e-05 1.63e-05 -6.75637e-20)
(-0.000451322 -9.54437e-05 -1.43785e-18)
(0.0234014 -0.0292161 -1.0491e-17)
(-0.000249257 0.0011782 -1.11662e-19)
(0.0464609 0.0584522 2.99855e-20)
(0.0675229 -0.0301291 1.27375e-18)
(-0.0148603 -0.0473127 -7.0946e-19)
(0.00786254 0.000336931 1.14636e-17)
(0.0685559 -0.0344523 -6.35655e-18)
(-0.000249485 2.36139e-05 3.52441e-21)
(0.00697733 -0.000263852 1.59063e-19)
(5.24598e-05 -0.000247293 -6.14211e-20)
(0.0117097 -0.000526793 4.35994e-18)
(-0.000648059 0.000295557 -4.17212e-18)
(0.0643004 0.0178605 -1.08815e-18)
(-0.00368127 0.0054128 -2.07977e-18)
(-0.000108613 1.10966e-05 6.73491e-20)
(-0.000586753 -1.75288e-05 4.01122e-18)
(0.00651629 0.012009 1.41585e-18)
(-0.000823557 0.000441218 -8.732e-18)
(-0.000155512 0.00142596 8.87664e-20)
(-0.000635366 0.000214515 3.27054e-18)
(4.45084e-06 -0.000249141 -1.45507e-20)
(-0.00050755 -0.000155011 1.04183e-18)
(0.0148943 0.00104108 -4.7508e-18)
(-0.00161975 -0.00613576 -1.58015e-18)
(-0.0348383 0.0200478 -4.95909e-18)
(-0.000489622 -0.000153763 -2.00111e-18)
(0.0159744 0.00322512 4.07736e-18)
(-0.000119745 0.000151601 -5.6498e-21)
(0.0364827 0.00367712 -8.46351e-19)
(-0.00449224 0.00552119 -4.28185e-19)
(-0.000924304 -0.00190148 -6.39162e-18)
(0.00933277 0.000946929 -6.9932e-18)
(0.00377735 -0.0029889 -6.56609e-18)
(0.000180009 -0.000102201 -2.89507e-19)
(0.0120632 0.000398614 3.44481e-18)
(-0.000888331 -0.000571082 5.6507e-18)
(0.0125601 0.00345285 -7.19323e-19)
(0.00010037 -5.45572e-05 5.98644e-20)
(-0.000128821 6.27118e-05 5.94649e-20)
(0.00162533 -0.0012853 1.13724e-19)
(0.0103642 -0.000459994 1.71199e-18)
(0.00915242 0.00108415 -4.55636e-18)
(-0.000417951 0.000200451 -7.11844e-19)
(-0.0781365 -0.0113084 -1.42303e-19)
(0.00285108 0.00513994 2.76528e-20)
(-0.000974344 -0.00361709 2.7115e-18)
(0.000211861 1.27936e-05 1.04098e-19)
(0.00674032 0.00986339 -6.11267e-19)
(-0.000480763 -0.000441058 2.69854e-19)
(-1.61948e-05 -0.000138011 8.2814e-21)
(0.00341708 0.0107987 1.94018e-19)
(0.00500225 0.0119175 6.75087e-19)
(-0.0705196 -0.0926938 -1.43034e-17)
(-0.00140476 -0.000416632 -1.16224e-18)
(0.00542751 -0.00115754 -2.33859e-19)
(0.00790006 -0.0202498 1.3933e-17)
(-0.000516016 -1.3123e-05 -7.40007e-19)
(0.000104367 0.000126434 9.19133e-21)
(9.7859e-05 0.000131255 3.10167e-19)
(0.0560965 -0.0535053 -1.17201e-17)
(0.0121092 0.00127395 -4.89031e-18)
(0.0202784 0.00522536 3.06047e-18)
(-0.000772895 -1.37518e-06 -3.22888e-19)
(-0.000147231 4.72507e-06 -2.78428e-20)
(-0.104206 -0.0506409 -3.87441e-19)
(0.0121302 0.000390885 3.58964e-18)
(6.9416e-05 0.000103142 2.85998e-19)
(6.84239e-05 9.92064e-05 -2.91752e-20)
(-7.93181e-05 2.78562e-06 3.76479e-20)
(0.000100295 0.000144288 3.90147e-20)
(9.36256e-05 0.000149572 3.08244e-19)
(0.00857181 -0.00221931 4.44111e-18)
(-0.00753017 -0.0839009 1.0067e-17)
(-0.00019104 -0.000468165 6.56474e-19)
(-0.000280867 5.12872e-05 4.23103e-21)
(0.000631313 0.0042035 1.42182e-18)
(0.0101933 -0.000987513 1.08559e-17)
(-4.17081e-05 1.027e-05 2.73586e-20)
(-0.00080251 -3.28108e-06 -4.22123e-19)
(-0.0850907 -0.0176737 1.3882e-18)
(0.0122993 0.00976572 -1.20422e-17)
(0.0138593 0.000869704 9.88825e-18)
(0.00703473 -0.019014 -1.73125e-19)
(-0.00404896 0.0112792 -2.80952e-18)
(-0.000266 -0.00021055 -1.85159e-19)
(0.0786506 -0.0307449 -1.47621e-17)
(0.00121236 0.00410071 5.91826e-19)
(0.00859904 0.00281539 -2.10946e-19)
(0.000192373 -0.000399306 -1.05997e-17)
(-0.000418395 0.000125385 -1.31163e-18)
(-0.0330146 -0.0870984 -1.6513e-18)
(-0.000515879 5.7006e-05 4.57593e-18)
(-0.00372326 -0.000819168 3.29152e-19)
(-0.00358382 0.00448406 9.76337e-19)
(-0.000128402 -0.000521483 5.78657e-19)
(-8.08712e-05 1.11973e-06 8.7247e-20)
(-0.000576914 -0.000266369 -7.29408e-19)
(-0.00202295 0.00362773 -1.20375e-19)
(0.000334794 -0.000320095 -1.1227e-19)
(0.0114497 0.000573393 1.15207e-17)
(0.0850049 0.0981451 -3.72008e-19)
(0.000205331 0.000137427 5.31203e-20)
(6.46656e-05 8.89159e-05 -7.53778e-20)
(-0.000120338 0.000257086 -1.12665e-20)
(6.88252e-05 8.62797e-05 1.54277e-19)
(-0.000508613 5.6489e-05 -7.53849e-19)
(-0.00094569 -1.05573e-06 1.7456e-18)
(-0.00156736 0.000655719 3.18173e-18)
(0.000190119 0.000162905 -3.63085e-19)
(0.00686915 0.00191482 3.4879e-18)
(0.00393754 -0.0321501 4.33591e-18)
(-0.000487322 -0.000137768 6.33316e-19)
(-0.000344428 0.00220431 1.17504e-20)
(0.0124598 0.0381476 -1.3943e-19)
(3.46178e-05 0.000200293 -3.08704e-19)
(-0.00629199 -0.0268051 9.50519e-19)
(0.0110796 0.000659859 -9.2699e-18)
(4.2365e-05 0.000198842 -9.03637e-20)
(0.0108373 -0.000514687 7.16716e-18)
(0.000364505 -0.000263889 -1.29727e-19)
(0.025319 -0.0280264 -5.09245e-18)
(-0.000105237 7.99755e-06 8.85173e-20)
(-0.00245764 -0.00170547 5.73643e-20)
(-8.9289e-05 -0.000557091 -3.00072e-20)
(-0.000211017 -0.000191983 8.90648e-20)
(0.00429894 -0.00455645 -3.38091e-18)
(-0.000300971 -5.7389e-06 1.48876e-20)
(-0.0229193 -0.0540717 -4.19457e-19)
(-0.00105227 -0.00114631 -6.39342e-19)
(0.0572209 0.115 -2.36301e-18)
(-0.0002852 -0.00312687 -9.29204e-20)
(-0.0570425 -0.0101178 -8.76547e-19)
(0.00727966 0.00145169 -3.0749e-18)
(-3.79063e-05 1.66473e-05 -2.88187e-19)
(-0.000613866 0.00144573 -2.08436e-18)
(-0.000290276 0.00451947 3.16963e-20)
(-4.03241e-05 -0.000500025 -5.9169e-19)
(0.0018828 0.00468752 3.77459e-19)
(-0.000408985 -0.000415014 1.1804e-18)
(0.000247433 -0.000156941 -1.39038e-19)
(-0.000280148 -7.76233e-06 2.80806e-19)
(0.0038837 0.0147113 8.28365e-18)
(0.0129535 -0.0110277 1.12173e-19)
(-0.0034656 -0.000880515 1.18989e-18)
(-0.000431218 -0.000388582 -4.99593e-19)
(-0.000794795 -8.22056e-06 -2.65736e-18)
(0.0114029 0.00419539 -9.23677e-18)
(0.00980227 -0.000389805 -2.40721e-18)
(0.000109441 -0.000184532 9.01559e-20)
(0.00508453 -0.00248919 -1.73196e-19)
(-9.13713e-05 -0.000544895 -1.02721e-19)
(0.00353691 0.0481616 7.21769e-19)
(-0.00395948 -0.000359713 -1.57598e-17)
(0.00243767 -0.0228131 8.75672e-18)
(0.0620727 0.0156703 -3.90888e-18)
(0.0160941 0.00933351 -2.55955e-20)
(-0.0251954 0.017669 8.86876e-19)
(-0.00068443 0.00179888 -2.52951e-19)
(0.00762265 -0.00903473 -4.4803e-18)
(0.0129578 0.0520942 -7.32133e-19)
(-0.00337521 -0.00653715 -5.10375e-18)
(-0.000962855 -1.20721e-06 -7.09901e-20)
(-0.00346434 -0.00184512 -1.51965e-19)
(-0.0838559 -0.0342245 -6.17085e-19)
(0.000122846 -9.0809e-05 -6.88018e-20)
(-0.00705675 0.0111075 -5.16398e-19)
(-0.000665753 -0.00181111 -2.95654e-18)
(-2.59614e-05 4.81741e-06 9.67857e-20)
(0.011545 -0.000929072 3.52222e-18)
(-0.000704123 -2.36968e-05 1.5355e-18)
(-0.000870476 0.00058518 4.09437e-18)
(-0.000180021 0.000351954 2.04195e-19)
(-0.01367 -0.00403657 8.55345e-19)
(-0.000195406 -7.02105e-05 3.43034e-19)
(-0.00298807 -0.000699934 4.58987e-19)
(0.00372315 0.00503353 9.38676e-21)
(0.0127204 0.0104985 1.0969e-20)
(-4.06527e-06 1.03703e-05 -7.86701e-20)
(-0.000160573 -0.000560306 9.25854e-19)
(0.0121318 0.00265969 3.78669e-18)
(-0.000441102 -0.000136728 1.14754e-18)
(7.78138e-05 -3.95377e-05 -2.14021e-20)
(0.00736203 -0.00358793 -2.01363e-18)
(0.0126046 0.00520821 6.09285e-18)
(0.0395899 -0.00600419 4.49701e-18)
(0.0769302 0.0375184 -1.07316e-19)
(2.56195e-05 0.000187505 -7.6931e-21)
(-0.000305251 -0.000397704 -2.89065e-19)
(0.0118663 0.0105995 -1.10582e-18)
(-0.0217623 0.0190328 4.87035e-19)
(3.38037e-05 0.000187512 2.12578e-19)
(0.000605208 0.00532377 -5.60798e-19)
(-0.000451155 -0.000164046 9.04139e-19)
(0.00731301 -0.00921213 8.49587e-19)
(-0.00320345 -0.000623349 1.2228e-18)
(0.00596429 0.00184292 3.91767e-18)
(-0.0128543 0.00824882 -2.42352e-19)
(-0.00332964 -0.0267115 -6.57352e-19)
(-0.000899523 0.000524685 -2.65402e-18)
(0.00585936 -0.00446124 2.26739e-18)
(7.5525e-05 -0.000246325 8.90968e-20)
(-0.000426328 -0.000136586 5.35033e-20)
(0.00382376 0.00586245 5.54297e-19)
(0.00218543 -0.00643663 1.11207e-17)
(-3.78546e-05 6.57557e-06 2.95729e-20)
(0.00375537 -0.00189112 6.49288e-18)
(-0.000877116 0.000528661 2.2989e-18)
(-0.00164819 0.0886917 2.33095e-18)
(-0.000475275 -0.000159564 1.56513e-18)
(-0.0175097 0.0148327 -1.05965e-20)
(0.00366468 -0.00354844 8.41675e-20)
(-0.0220915 0.0845746 -5.10837e-19)
(0.000648132 -0.000327521 -1.3302e-19)
(0.0195091 0.00261753 -1.87044e-18)
(0.0125698 0.0346434 5.4049e-19)
(0.00480838 0.00573037 -1.88971e-19)
(-0.000492952 -0.00014309 1.46931e-19)
(0.00599369 -0.0119162 1.20368e-17)
(-0.000387006 0.000380547 -1.91465e-19)
(0.071311 -0.0241495 -4.64068e-19)
(0.0104004 0.000328658 1.89306e-19)
(0.000823202 -0.000254137 4.06754e-20)
(-0.00444776 0.0861439 2.80865e-18)
(0.000124512 -0.000705915 8.17125e-20)
(-0.0296807 -0.00268856 4.40151e-21)
(0.000142542 -3.51912e-05 9.0976e-20)
(-0.0072278 -0.00848381 -1.32707e-17)
(-0.0312095 -0.00794243 6.70544e-20)
(-0.000143113 -0.000149594 1.84896e-19)
(-0.0963502 -0.0327488 -4.59965e-19)
(-8.40509e-05 -0.0215586 4.38226e-20)
(-0.000458401 3.88562e-05 -1.36322e-18)
(0.0490189 -0.0215452 3.69527e-18)
(-0.00340349 0.00525006 -4.84971e-18)
(-0.000246328 -0.00021048 -6.77211e-19)
(0.00494909 -0.00475486 1.14972e-18)
(-0.000362975 -0.000308117 5.05769e-19)
(0.00266901 -0.023421 -7.03181e-19)
(-0.00214374 -0.00667506 -7.70224e-18)
(-0.00066875 -2.02669e-05 -3.34859e-18)
(-0.000804754 0.000259061 -5.26563e-18)
(-0.000461608 -0.000375999 -8.81791e-19)
(-0.00023912 -0.000190331 4.60115e-19)
(-0.000335027 -7.3482e-05 -3.07035e-19)
(6.13661e-05 -0.000264655 -1.7356e-19)
(0.0813027 0.0315467 6.54147e-19)
(-0.0202872 -0.0412999 1.10477e-18)
(-0.000406931 -0.000152081 7.66716e-19)
(0.00013446 -0.000291169 4.72987e-20)
(-9.07986e-05 -0.000277266 -1.53693e-19)
(-0.00138348 0.00190745 -1.00073e-18)
(-0.012261 0.0514632 6.42577e-18)
(-1.64674e-05 0.000259461 -8.89647e-20)
(-0.000251629 2.34833e-05 3.42085e-21)
(-0.003709 -0.000566881 2.21276e-17)
(-0.0189763 0.0122439 4.43598e-20)
(-0.000226455 -0.000202302 -4.1722e-19)
(-0.000199151 -0.000157463 -3.39369e-18)
(0.0488463 0.020819 -1.01193e-18)
(-0.0779017 -0.0879635 -4.06573e-18)
(0.0197453 -0.00150152 2.02301e-20)
(0.00055699 -0.00320154 -1.69535e-18)
(0.00593522 -0.0095559 7.85938e-18)
(4.85173e-05 0.000256204 1.4838e-19)
(-5.30665e-06 0.000232596 1.3812e-19)
(0.00247488 -0.000302133 -1.05961e-18)
(-0.000355889 -6.99836e-05 -1.85542e-19)
(3.61764e-06 0.000259152 -5.99743e-21)
(-0.000191738 -0.000502446 -8.22346e-19)
(9.80256e-06 0.000232929 3.99313e-19)
(5.24951e-05 0.000237256 -1.0604e-20)
(0.0699461 -0.0540318 -1.44982e-17)
(-0.000386404 -0.000305367 -7.99257e-19)
(-0.00280905 -0.00409759 1.19504e-18)
(0.00710196 0.00213675 4.39138e-18)
(-0.000758749 0.00148704 -1.11514e-19)
(-2.48947e-05 -0.00014638 -2.08554e-21)
(-0.000548557 3.38826e-05 -2.67576e-18)
(0.0448191 -0.024714 -1.65287e-18)
(0.00191988 -0.00101947 -6.1592e-19)
(0.0119564 0.000503066 -2.57109e-18)
(-0.0001021 0.00032704 -2.37044e-19)
(-0.000652501 -4.77669e-05 8.30975e-19)
(-0.00042432 0.000478488 1.21623e-19)
(8.87723e-05 0.000162797 9.08704e-20)
(-0.00015429 9.97564e-05 4.93689e-19)
(0.000317953 -0.000723051 2.88417e-20)
(0.0474346 0.0253626 3.95787e-18)
(0.00458363 0.000192653 9.72968e-20)
(0.0130734 0.00902175 5.33697e-18)
(-0.000627284 -5.14605e-05 1.62058e-18)
(-0.000894166 0.000477489 1.27114e-18)
(0.00462871 -0.00204569 9.24029e-20)
(-0.000432305 -0.000446285 -3.30105e-19)
(-0.00275135 0.010419 2.03612e-18)
(0.0413006 -0.0018878 -1.14679e-18)
(-0.000455856 -0.0001616 -7.16063e-19)
(-0.0983709 -0.102307 5.84548e-19)
(-3.38355e-05 -0.0001566 3.24992e-20)
(-0.000412118 -2.09461e-05 -6.38918e-19)
(-8.54844e-05 -0.000260612 3.50735e-19)
(4.34319e-05 -0.000738916 3.77842e-20)
(-2.9165e-05 -0.000119534 5.27045e-21)
(-0.000662226 -1.45921e-05 -6.5436e-20)
(0.0115076 0.00350425 1.95968e-17)
(0.0677826 0.012068 8.66977e-18)
(-2.57065e-05 -0.000110727 4.46776e-22)
(-0.0561 0.000285981 -1.19623e-18)
(-0.00346634 -0.00114367 1.18174e-18)
(-0.000936026 5.24984e-07 -2.91044e-18)
(-0.00042591 0.00188398 5.93027e-18)
(-0.00154676 0.000933293 4.44638e-18)
(0.0499179 -0.0331942 1.29274e-17)
(-0.000807133 0.000307489 -2.50722e-18)
(0.0134051 0.00595416 -3.60896e-18)
(-0.021759 0.0558818 1.89657e-19)
(-0.0205313 0.0534762 -7.61311e-20)
(0.000234386 -0.000789649 -3.33793e-20)
(0.0164589 0.00309598 4.24893e-20)
(0.00545701 -0.00306915 6.31031e-20)
(-0.000465551 9.40762e-05 1.54602e-18)
(0.0253506 -0.00697955 -2.86468e-18)
(1.14447e-05 1.61845e-05 -4.09392e-21)
(-0.000436164 -0.000158706 -3.4758e-19)
(-0.000457491 -0.000124078 -9.02738e-20)
(-0.000741987 0.000278872 7.36343e-18)
(0.00160551 -0.00265046 -1.43737e-18)
(-0.000903488 -0.00538279 -3.89961e-18)
(-0.000540536 0.000378945 -4.98356e-18)
(-0.00172586 -0.000865232 -3.44115e-19)
(-0.000511566 0.00286973 3.41314e-19)
(0.0148033 0.0149556 -5.79288e-19)
(-0.00663711 -0.00512473 -2.24775e-18)
(-0.000417881 -0.000153935 -3.30679e-19)
(0.077359 -0.00360617 -1.17454e-18)
(-0.00121155 0.000650121 -1.13697e-17)
(-0.00111026 -0.00103226 8.84443e-19)
(0.0695527 -0.0125987 7.04566e-18)
(-0.000715925 -2.72361e-05 2.99088e-19)
(-0.0076083 -0.00525922 3.67115e-19)
(0.00848676 0.0132502 7.69033e-19)
(-0.000288168 -4.68877e-05 -1.33614e-19)
(0.00879473 0.00425908 -8.24912e-19)
(-0.000417287 -2.10751e-05 5.26402e-19)
(8.31039e-05 0.000167034 3.24119e-19)
(-0.00118272 0.00200425 5.04409e-18)
(-6.54468e-05 0.000335103 2.88743e-20)
(-0.000505871 -1.48259e-05 -8.71786e-19)
(0.00181284 0.0147344 -1.93281e-18)
(0.00740233 0.00655112 2.94014e-18)
(-0.0854982 -0.0362462 -3.19842e-19)
(-0.000492793 -8.70815e-05 -4.02169e-19)
(-0.000603562 6.62858e-05 -2.31724e-18)
(-0.00125592 0.000925496 4.29214e-19)
(0.0271411 0.00370928 4.47698e-18)
(0.0269983 0.0494221 1.62939e-18)
(-0.000435404 -0.000161923 -1.84161e-18)
(-0.000432656 -0.000159321 -7.03488e-19)
(-0.000509372 -7.98184e-05 1.51977e-18)
(-0.00287475 0.00330942 2.66648e-19)
(0.0331341 0.0782523 4.04821e-20)
(0.000163789 -0.000221482 1.83325e-19)
(-2.65192e-05 9.99391e-06 -3.29286e-22)
(-0.000161464 4.16035e-06 -3.31231e-20)
(-0.000271271 -0.000180906 -4.93218e-19)
(0.00440251 -0.000530054 -1.24731e-21)
(-0.00132932 -0.000243012 -1.13284e-18)
(5.23111e-06 1.54835e-05 2.50636e-19)
(-0.000466106 0.000417069 4.92572e-18)
(-0.000299209 -4.44604e-05 -6.05317e-20)
(-8.98363e-05 -0.000319997 1.79192e-19)
(-0.000469041 -0.000352154 -2.10294e-19)
(0.00255384 -0.0142744 -1.72106e-17)
(2.70447e-05 3.09109e-05 -5.06471e-20)
(-0.000695222 0.000126152 -2.35005e-18)
(0.000257438 -0.00030432 -6.34635e-20)
(-0.00089791 0.000468164 -4.85652e-18)
(0.000564782 0.00188819 -8.59083e-18)
(0.013451 -0.00537314 3.54536e-19)
(-0.00328282 0.00498253 1.05651e-18)
(-0.0165491 -0.0360073 -3.18157e-19)
(-0.000415424 -0.000319732 1.61592e-21)
(0.0121416 0.013259 5.24697e-19)
(0.0131426 0.00294266 2.6741e-18)
(0.0620253 -0.0666521 3.86291e-18)
(0.00678265 0.00260137 -4.52379e-18)
(0.000112894 -0.000132727 -4.37565e-20)
(-9.61936e-05 -0.000230306 1.66406e-19)
(-0.00241952 -0.00109695 -2.93712e-19)
(-0.000547773 -9.76602e-05 -1.13137e-18)
(0.00372967 -0.00883807 3.44678e-18)
(3.2483e-05 0.000213528 2.28793e-19)
(0.0741907 0.0672599 -3.08464e-19)
(-0.00090967 -0.000506585 1.5427e-18)
(0.0132101 -0.00294818 -1.07746e-17)
(-0.00991708 -0.0299103 -2.31547e-19)
(-0.000638795 0.000225776 -4.55861e-18)
(-0.00910973 0.00348853 -2.68799e-17)
(-1.80159e-05 -0.000104562 1.1572e-21)
(-0.00137104 0.00064106 8.67602e-18)
(-6.86709e-05 1.79181e-07 7.78865e-20)
(0.00149774 -0.000242531 -6.78486e-19)
(0.0123978 -0.00260322 1.16682e-18)
(-5.09615e-05 0.000292795 -2.32014e-19)
(-0.00743809 -0.00308799 -1.75915e-17)
(-0.000136757 4.72571e-06 6.80782e-21)
(-0.000934372 5.59755e-07 2.60439e-18)
(-8.24808e-05 -0.000241202 -7.67791e-20)
(-0.00106725 -0.00508804 -2.30413e-18)
(0.00481316 0.000204802 1.58901e-19)
(5.51606e-05 6.4982e-05 1.74461e-19)
(-0.00185988 -0.00207693 1.47758e-19)
(-0.00069238 0.00194153 -3.57371e-18)
(0.00228271 -0.0582538 1.38596e-18)
(0.00523011 -0.0097404 2.61369e-18)
(0.0107026 0.00558678 3.9268e-18)
(0.0557379 -0.0341198 -1.45252e-17)
(2.29425e-05 2.7569e-05 7.17659e-20)
(0.0119179 7.70287e-05 -7.91873e-18)
(-0.000197332 1.40513e-05 8.46599e-21)
(0.0721102 0.0247327 2.45777e-18)
(-0.0192675 -0.183965 2.70621e-18)
(0.001921 -0.000261627 3.32958e-19)
(0.000646441 -0.00585985 -2.35065e-20)
(-0.000135911 6.17221e-06 3.57083e-20)
(-0.00125427 0.000615387 8.83745e-18)
(-0.000628464 0.00020786 6.82737e-21)
(-2.30164e-05 0.00029477 3.24589e-19)
(-9.58866e-05 3.17979e-07 1.15023e-19)
(-0.000897759 -3.78179e-06 1.3229e-18)
(0.00441502 -0.00986101 -1.911e-17)
(-0.000476197 -8.63256e-05 -7.46077e-19)
(-0.00113603 0.000155809 -1.37999e-17)
(-0.000426328 -0.000158539 2.75539e-19)
(4.94712e-05 6.28126e-05 2.16951e-20)
(-6.36404e-05 1.06606e-05 -2.11222e-19)
(0.0111833 0.0231146 1.21783e-18)
(0.021563 -0.0203074 1.27457e-17)
(-0.027409 -0.00165591 1.70254e-17)
(0.00010656 -0.000223182 7.7407e-18)
(-0.00128456 -0.000178288 9.03109e-19)
(0.0123083 -0.0127373 -7.31907e-19)
(0.0102534 -0.000933417 1.48518e-17)
(0.000160922 -3.84475e-05 2.43103e-19)
(0.032276 -0.00547588 7.66858e-18)
(-0.000887941 -1.92632e-06 3.43763e-19)
(-0.00226835 0.00131603 -5.61316e-18)
(-0.000542969 -0.00010463 1.14146e-18)
(0.00463955 -0.0110271 6.55689e-19)
(-0.000264165 -0.000172197 4.4302e-19)
(0.0045288 -0.00156031 2.65406e-19)
(-0.000568754 4.11782e-05 -2.62769e-18)
(-0.0146948 -0.0993786 -1.93182e-18)
(-0.00138907 0.000702467 -5.87085e-18)
(0.00475212 -0.0135498 -5.92712e-18)
(5.66177e-06 1.21428e-05 8.92906e-20)
(-0.00152361 0.000555402 -5.54308e-18)
(0.000243571 -4.611e-05 -2.72417e-19)
(-0.000114527 5.32096e-06 -1.15009e-20)
(0.00530947 -0.00558533 3.81359e-18)
(-0.000787214 -0.0482098 -7.12382e-19)
(0.000234422 6.80321e-05 -2.24488e-19)
(0.00698905 0.00152581 -3.5204e-19)
(-0.000800986 -7.58088e-06 1.8391e-18)
(0.00113601 0.000317605 3.67884e-19)
(-0.000132338 5.55148e-06 -1.59885e-19)
(0.00554363 -0.00617338 3.64912e-18)
(-0.00049124 -8.04892e-05 6.08515e-19)
(-0.0015625 0.00455107 1.20404e-19)
(2.3188e-05 0.000214157 -6.56125e-20)
(0.000233827 1.91235e-05 1.60014e-19)
(0.00274334 -0.00633105 -4.43799e-18)
(-0.000140243 7.00551e-06 -4.18838e-20)
(0.00495943 -0.000188801 -7.10263e-18)
(-4.4793e-05 3.55483e-06 -1.35747e-19)
(-0.000210049 -6.4169e-05 2.99985e-19)
(0.0762636 0.0178521 5.36175e-18)
(-0.00119547 0.000124597 -4.34948e-18)
(-0.000438782 -0.000163042 9.87333e-19)
(0.00778346 0.000844101 -1.54921e-18)
(-0.00743793 -0.00255405 2.04212e-17)
(-0.0307343 0.0375125 -8.925e-19)
(0.00813459 0.0150826 1.4095e-18)
(-1.85767e-05 -9.47602e-05 2.44541e-21)
(-0.0046792 -0.00172132 5.19573e-19)
(0.00124243 -0.0134283 -7.9755e-18)
(-0.00737838 0.00321362 -3.71156e-18)
(0.0020121 -0.000290326 3.47886e-19)
(-4.81802e-05 7.36865e-06 -6.78971e-19)
(0.00505531 -0.00201012 6.53442e-19)
(-3.26788e-05 4.37127e-06 -1.3199e-19)
(-4.14193e-05 -0.000225229 -3.57856e-21)
(0.0179951 0.0110452 3.94356e-20)
(0.00107878 0.00248268 -7.57237e-19)
(-0.000617703 -0.00064234 4.42466e-18)
(0.0740129 -0.0102578 -5.18332e-18)
(-0.00131047 0.000749877 5.43457e-18)
(-0.0222737 0.0600413 -1.83978e-20)
(0.0318024 0.0496005 -2.2083e-18)
(0.0115934 -0.0133216 -2.18307e-20)
(-0.00245938 -0.000166865 -3.27067e-19)
(0.0083317 -5.00136e-05 -5.53377e-18)
(0.0104853 -0.000773412 3.803e-18)
(0.000217226 -0.000146093 -3.10541e-20)
(0.000441545 -0.0109751 -4.60338e-20)
(0.017753 0.0167346 7.76232e-21)
(-0.000220094 -6.10491e-05 1.43873e-19)
(-7.67433e-07 1.17047e-05 -2.87493e-19)
(-7.07995e-05 1.01204e-05 2.08189e-19)
(-0.00180244 0.00109838 2.03417e-19)
(-0.000580771 -1.66985e-05 4.6065e-19)
(0.0119227 1.61376e-06 -2.26594e-18)
(-0.00080133 0.000497078 -9.41016e-19)
(-0.000130835 -8.40989e-06 -4.05016e-22)
(-0.000651915 -0.0014973 4.6078e-18)
(1.42941e-05 1.34952e-05 4.51624e-20)
(0.00496981 -0.0231381 1.85174e-17)
(0.000434293 -0.000249822 1.31603e-20)
(0.000107622 -0.000225107 -3.64899e-20)
(0.00720637 0.00599162 2.53756e-18)
(0.000278181 0.00153235 -7.28149e-19)
(-0.00985292 0.10171 -1.29595e-18)
(-0.000539308 3.30691e-05 -3.54458e-18)
(-0.000237923 -0.000637647 3.52447e-20)
(0.000157564 -0.000150473 1.24597e-19)
(-0.00057571 5.38623e-05 -5.24378e-18)
(-0.00100972 0.000264433 -5.86654e-18)
(-0.000178752 -0.000174752 1.91888e-19)
(0.0110271 0.000906135 2.13085e-17)
(-0.00140211 -0.00139886 6.09786e-19)
(0.0530036 0.0460452 1.34602e-19)
(-0.0169799 0.0783038 6.9476e-19)
(0.00196908 -0.0105789 -2.21167e-19)
(0.0103674 0.00609754 -2.44002e-18)
(-0.000611311 5.52805e-05 2.75744e-18)
(-0.000102058 9.22661e-07 3.33525e-21)
(0.000268865 -1.26542e-05 2.33187e-20)
(0.0109359 0.000556673 5.22334e-18)
(-0.0878422 -0.0261266 1.05678e-19)
(-0.000931263 -0.000627777 1.65875e-18)
(0.0118324 0.000614215 2.04876e-18)
(0.0162366 0.13767 -1.63406e-19)
(-0.000195456 -7.42108e-05 -4.10689e-19)
(0.000115083 -0.00019876 -6.94195e-20)
(-0.00020013 0.000184234 -3.63774e-19)
(0.0131557 0.00393886 -3.74913e-18)
(-0.0107784 0.0882191 5.78014e-20)
(-0.0014975 0.000740417 5.80998e-19)
(-0.000561907 4.75517e-05 3.27589e-18)
(-0.000712103 0.000116192 4.19283e-18)
(-0.00228287 0.00148593 5.31351e-18)
(-0.000448939 0.00136728 -3.84302e-19)
(0.0053339 0.00105434 -3.44438e-18)
(-0.000813122 0.000494715 9.66241e-18)
(-0.000472532 -0.000143573 -3.03971e-19)
(-0.000521629 -0.000187562 -1.81495e-18)
(-0.000107346 5.41219e-07 -3.046e-21)
(-0.00100786 0.000237016 2.34523e-18)
(-0.00140793 0.00281825 -1.52595e-20)
(-0.00331339 0.00593356 -2.44211e-18)
(0.000106308 -0.000478635 -8.25234e-19)
(0.00135722 0.00260763 -1.20966e-19)
(0.0113756 0.000771221 -9.19899e-18)
(0.00153671 -0.000356535 -9.26384e-21)
(0.0468109 0.10468 -8.92265e-19)
(-0.000110246 -4.66761e-05 -6.15358e-19)
(-0.00397327 0.00535523 3.77387e-19)
(-0.000963951 -0.000292786 1.8912e-18)
(-0.00734555 0.00272138 5.51647e-18)
(-1.84076e-05 8.23514e-06 -1.06527e-19)
(-0.00125151 0.000665462 -1.81931e-18)
(0.0191229 -0.019227 -1.9243e-17)
(0.00643939 0.0279986 1.21872e-19)
(-0.000540053 -8.90428e-05 -2.6135e-18)
(4.30472e-05 -0.000545338 -6.61052e-19)
(-0.000580031 -1.2005e-05 -5.68727e-19)
(-0.000589051 -8.43562e-05 -2.45985e-18)
(-0.000543533 4.97813e-05 -3.64197e-18)
(0.00574813 -0.0070351 -1.03232e-18)
(0.00513661 -0.000819566 -2.49683e-19)
(0.00776544 0.0224911 -1.9711e-18)
(0.00547821 0.000246163 1.87579e-18)
(-7.99284e-06 -7.73407e-05 1.58165e-20)
(-0.00430779 0.00679277 9.79916e-18)
(-0.000668611 0.000294504 -1.10982e-18)
(-0.000760604 0.000282842 -2.34871e-18)
(0.00725097 0.000487679 -2.16208e-18)
(-0.000308978 -0.000439697 1.3362e-19)
(-0.00136907 0.000602405 9.6508e-18)
(-0.0488744 -0.0652941 -1.78486e-18)
(3.48465e-05 4.59142e-05 -6.99204e-20)
(0.000187403 0.00126789 -1.76336e-18)
(-0.00602998 0.00796985 -1.79266e-18)
(-0.000813103 0.000484779 -1.21861e-17)
(-5.3997e-05 -0.000177406 1.90287e-20)
(-4.66197e-05 -0.000131455 -2.97406e-20)
(-2.67676e-05 -0.000231582 -1.00985e-20)
(0.0104767 -0.000184931 -3.26394e-18)
(-0.000519082 -0.000171626 2.09511e-18)
(0.000607199 -0.000272372 1.07417e-19)
(-0.000865673 0.000559553 -1.69818e-18)
(-0.000175365 -0.000185057 -1.29984e-19)
(1.79477e-05 -0.000162207 -9.5853e-22)
(0.00530812 0.00723833 4.01934e-18)
(-0.025843 -0.0602558 1.62279e-18)
(0.0136129 -0.00623162 -5.83524e-19)
(-0.0899072 -0.0930446 6.23321e-18)
(0.00655479 -0.00789141 6.4869e-19)
(0.0113567 0.0106511 -1.4093e-18)