/*--------------------------------*- C++ -*----------------------------------*\
| =========                 |                                                 |
| \\      /  F ield         | OpenFOAM: The Open Source CFD Toolbox           |
|  \\    /   O peration     | Version:  v2012                                 |
|   \\  /    A nd           | Website:  www.openfoam.com                      |
|    \\/     M anipulation  |                                                 |
\*---------------------------------------------------------------------------*/
FoamFile
{
    version     2.0;
    format      ascii;
    class       surfaceScalarField;
    location    "550";
    object      meshPhiCN_0;
}
// * * * * * * * * * * * * * * * * * * * * * * * * * * * * * * * * * * * * * //

dimensions      [0 3 -1 0 0 0 0];
oriented        oriented;


internalField   nonuniform List<scalar> 
20642
(
-0.000357368
-5.74939e-05
0.000414862
0.00115521
-0.00197832
0.000820313
0.000226667
0.000352546
-0.000579251
0.000211017
-0.00156809
0.00134781
0.00159273
-0.00231195
0.000710427
0.00202056
-0.000869035
-0.000644499
0.00140094
-0.000758779
0.00238704
-0.00135586
-0.00103283
0.000620218
0.000586661
-0.00120914
0.000353368
5.35646e-05
0.00104326
0.00134201
0.00205935
-0.0017748
-0.000301446
-8.46314e-05
-6.83235e-05
0.00137119
-0.00208088
0.000708954
0.0016632
-0.00221771
0.000547899
-3.29643e-05
-0.000324404
-4.87909e-05
-3.82769e-05
5.76954e-05
-0.00234009
0.00103126
0.00130702
0.000853665
-0.000605004
-0.000248779
-0.00043209
0.00023748
0.00019461
0.00166597
-0.00108199
-0.000586377
0.000384538
0.00133834
-0.00174355
0.000496837
0.000432455
-0.000929781
-0.00151131
0.00187321
0.00188404
-0.000979285
-0.000910251
-0.00177007
0.000701893
0.00106585
-0.00146667
0.000826961
0.000639472
0.000353368
-0.00208686
0.000767723
0.00131687
-2.00543e-06
-4.29925e-05
4.37714e-05
0.000310405
4.29637e-05
0.00107256
-0.00038341
-0.000689372
-0.00190159
0.00127004
0.000621865
-0.000418347
0.000211092
0.000207254
-9.54072e-05
0.00140939
-0.00133783
0.000179951
-0.00153716
0.00153325
0.000174458
-0.00171454
5.08849e-05
-0.000185164
4.18648e-05
-0.00128695
0.000640319
0.00105008
-0.00159513
0.000543228
6.68823e-07
1.39131e-05
-3.39439e-05
0.000833649
-0.00125717
0.000409414
-0.0017256
0.000203161
0.00151829
0.000364714
0.000288036
-0.000652842
0.000768414
-0.000403819
-0.000238426
0.000725594
-0.000487288
0.00149066
0.000171943
-0.000571931
0.000346916
0.000225012
-0.000969745
-0.000879762
0.00184907
0.00103888
-0.00115352
0.000184698
0.00185657
0.000296274
-0.000913935
0.000617443
-0.00023445
0.000384743
-0.000150293
-0.00178126
0.00208744
-0.000327096
-0.00222404
0.00168742
0.000516876
0.000771973
-0.000475861
0.000310405
-0.000477887
0.000974157
0.00128657
-0.000467507
-0.000849043
0.000610462
0.000931514
-0.000495217
-0.000436314
-0.000670106
-0.00100179
0.00166143
5.92681e-06
4.52223e-07
-9.11299e-06
0.000687361
0.00119045
0.000386332
4.73995e-05
-0.000433742
-8.31598e-05
5.30146e-05
2.98235e-05
0.000869891
-0.00204654
0.00117469
0.00144424
-0.00126556
-0.00129855
0.000396708
-0.000239635
-0.000157073
0.000116169
0.000361759
-0.000477945
-0.000304569
-0.000113779
0.00220727
-0.00188141
-0.000346509
0.000956746
0.00031239
-0.00169689
0.000612683
0.00226666
-0.00115174
-0.00112072
0.00144188
-0.00217509
0.000723631
0.0012953
-0.000356107
0.000889098
0.00137077
-0.00118534
-0.000722882
-0.00145601
-0.000696778
0.0021366
-5.7034e-05
-5.70919e-05
7.32736e-05
0.000298376
0.00188548
-0.000594716
0.000356575
0.000238126
0.00101959
-0.000916572
-0.000193105
0.00210771
-0.00088695
-0.00122189
0.000586378
0.000485923
-0.00029961
-0.000232345
0.000419626
0.00151629
-0.000468164
3.11836e-05
-0.000105394
3.46317e-05
0.000110554
-0.000171132
-0.00123042
0.00119214
-0.00216236
0.000151358
-0.00141235
0.00123544
0.000365877
0.0015784
-0.00195798
-0.00121899
-0.00192929
0.00103905
0.00088975
-8.81779e-05
-6.48754e-05
9.80478e-05
-0.000573326
0.000185163
-0.000983628
0.00161269
-0.000629821
-1.77496e-05
-1.26703e-05
2.03435e-05
5.00312e-06
-3.00525e-05
-0.00202971
0.000559894
-0.000204309
-2.97551e-05
0.000184059
0.00230168
-0.000872547
0.000425382
4.23042e-05
-0.000467693
0.0003607
6.88743e-05
-0.000429578
0.00125539
-0.00193749
-0.000385851
-0.000885252
-0.000694632
-0.0007723
0.000281336
-0.000787053
0.000451089
-0.000239998
0.00197752
-0.00121188
-0.000121147
0.000507468
-0.0001214
-0.00116311
0.00127984
0.000486866
0.000366663
9.19476e-05
-0.000112041
-1.61309e-06
-0.000387773
-0.000284885
0.000672608
-0.000464907
-0.00135082
0.00179292
-0.000152803
5.67314e-05
-0.00127457
0.000465373
0.000790287
-0.00080945
-0.00123905
-0.000497732
-0.000324339
0.000821868
-0.000253223
0.000408167
-0.000154944
-0.000261338
-0.000333386
-0.00168929
0.000581389
0.00110195
-0.000558529
-0.00114066
-0.00140591
-0.000326875
0.00170298
0.000307408
-0.000805305
0.001233
-0.000361994
-0.000871893
-0.000379511
0.000940469
-0.000561177
0.000474018
-0.000300961
-0.00017306
-0.00141587
0.00128923
0.000870208
-0.000246253
-0.000624124
-0.00153089
0.000835982
-0.000914348
0.000476077
0.000438251
-0.000220223
-0.000155796
0.000376018
-0.00202006
0.000788883
0.00122869
-4.59105e-05
-0.00192584
0.00197696
-5.16731e-05
0.000453351
0.00082445
-0.000150355
0.000575728
-0.00038521
0.00155546
-0.00120189
0.00194959
-0.00177695
-0.000194542
-0.00106336
-0.000232867
0.00128321
0.000463357
-0.000347204
0.00227636
0.000114093
0.000259185
-0.00037328
0.00035647
-0.00216043
-0.00111914
0.00156677
-0.000449595
1.77989e-05
5.64606e-06
-3.26998e-05
0.0016623
0.000263727
-0.000745487
-0.00118426
0.00199487
-0.00162441
-0.000386514
3.67722e-05
-0.000288304
0.000294041
0.000114263
-0.000408305
-2.48476e-05
-3.25372e-05
3.68221e-05
6.66873e-06
6.70895e-05
0.00180473
-0.0014295
-0.00043601
0.000207465
0.000322827
-0.000530308
-0.00229662
0.000829172
0.00146109
3.79672e-05
-0.000310444
-0.00034564
0.00065607
-0.0016118
0.000830737
0.000780587
9.23974e-05
-0.000345594
0.000698515
-0.000352932
1.34202e-05
-1.32151e-05
-5.42086e-07
-0.000741773
-0.00128068
0.0028266
-0.00165308
-0.00119461
0.000145412
0.000295127
-0.000440541
0.00151357
0.000978517
-0.000641459
-0.000337105
-0.000262507
0.000865474
-0.00060333
1.99596e-05
-5.26525e-05
1.95109e-05
-0.00125066
0.00145328
0.000426349
-0.000915245
0.000488706
0.000396587
0.000835306
-0.00128525
-0.00101676
-0.0015296
0.00165248
-0.000127012
0.00129129
0.00172351
-0.00155386
-0.000176958
0.000590484
-0.000413604
0.000218361
-0.000606185
0.000641061
-0.00102083
0.00180643
-9.95607e-05
-0.000756901
0.000579831
-6.3981e-05
6.07208e-05
0.00111778
0.000988849
0.000767764
-0.00103075
0.000432223
0.00033607
-0.000848597
0.000401118
0.000447356
-0.000255453
0.000415492
-0.000160039
-0.000990587
0.00112251
-0.000188139
0.000405495
-0.000217356
0.000400841
-0.00141057
0.0010067
0.000284834
0.000189181
-0.000331415
0.00171734
0.00165711
0.000319814
-0.000726365
-0.000931149
0.00165435
-0.000318002
-9.8888e-05
0.00041689
8.92385e-05
-0.000309461
0.00203262
-0.00151976
-0.000520693
-0.00095917
0.00123317
-0.000274193
-0.00133074
-0.000465804
0.00179326
0.000395294
-0.000838439
-0.000487766
0.00151953
-0.00223234
-0.00119553
0.00143525
-0.000278819
-0.00245098
0.00106759
0.00137701
-0.00165103
-0.000805521
0.000461006
0.000680038
0.000190014
-0.000983205
-0.000223739
-0.000263993
0.000487723
-8.57662e-05
0.000251441
-0.000265469
-3.75616e-05
-0.000482965
0.00050247
-0.000488297
0.000433566
0.000327473
-0.000914626
0.000478325
0.000436171
0.000334094
-0.000814111
0.000479918
0.00129403
-0.00122226
-0.000172604
-1.13085e-06
4.97264e-06
-0.000793393
-0.000737718
0.000196603
0.000682938
-0.000447015
-0.000255103
0.000399362
0.000262755
-2.33568e-05
9.31117e-06
-2.57376e-05
-0.000479482
-0.000508067
0.000464957
-0.000238085
-6.64838e-05
-0.000249205
-0.000269213
0.000518413
-0.00217441
0.00131736
0.000840882
1.67713e-05
-2.60091e-05
7.80859e-06
-0.00071855
-0.000387417
0.00110561
0.000183011
-0.000395383
0.000212372
-8.47449e-05
2.95241e-05
3.3768e-05
5.51588e-05
0.00113169
0.000481457
-0.00144081
-0.000303503
-0.000207181
0.000510676
-0.000324241
0.000236934
-0.00046068
0.000434439
0.000589703
-0.00102445
0.000991146
-0.0014044
0.000312859
0.000385644
0.000148645
-0.000867495
0.000745883
0.00122962
0.000980556
-0.000669459
-0.000311323
0.00147066
0.000553841
0.000211797
-0.000264472
0.00143761
-0.00119147
0.00139075
-0.00101866
-0.000372925
-0.00119439
0.000728584
0.000465265
-0.00244455
0.000973519
0.00145301
-2.44904e-06
-0.00100725
-0.00187187
0.00237214
-0.000511199
0.00109208
0.000376411
-0.00148773
0.000397749
-0.00015718
-0.00024057
-0.00178447
0.000418883
0.00136525
-0.00137155
0.000442878
0.000907442
-7.39823e-05
0.000451899
0.000418146
-0.00205818
-0.000474393
0.000379543
-0.00163582
-0.000306155
6.88179e-05
0.00120513
-0.000859436
-0.000346677
-0.000574081
-0.000816032
-0.000377227
0.000243925
-0.000156466
0.000517161
-0.00247989
0.000812522
0.00163653
0.00167415
-0.0023741
0.000688575
0.000380131
0.000529276
-0.000909538
6.31996e-05
-0.000436919
0.000359827
0.000533569
-0.00127719
0.000742971
0.000233395
0.000164354
0.000423554
-0.000373848
0.000196144
0.000200565
-0.000392676
0.00146493
0.000575997
-0.000368553
-1.90934e-05
2.50132e-05
-0.00151354
-0.000556658
0.00206294
-0.00147723
-0.000980719
-0.00157761
-0.000348566
0.00188804
-0.000513134
0.000687467
-0.000174409
-0.00013082
-9.00336e-05
0.000142689
-0.000841286
-0.000771011
0.000428085
-0.00133931
0.00090908
1.30636e-05
-0.00108927
-0.000662553
-0.000615443
0.00127766
-0.00015691
-5.52658e-05
-4.82824e-05
0.000665129
-0.00113675
0.00047108
-0.00208069
-0.000168407
0.00223709
0.000280219
-0.00150182
0.00121666
-0.000558424
0.00214128
0.00195454
-0.00107071
0.000366673
-0.00146915
0.00107965
-0.000320055
0.000110204
0.000562892
-0.00101508
0.000451942
0.000493609
-0.00188692
0.00138621
0.000743989
0.000645639
0.000530855
0.00141779
-0.000893888
0.000887326
-8.04631e-05
-0.000125462
0.000419501
-2.4611e-05
-0.000293391
-0.00129422
-0.000349902
0.00161401
0.000139499
-0.000459573
0.000315347
-0.00114024
-0.00166655
-0.000439593
0.00210237
0.000599926
-0.000627399
2.74083e-05
0.00050585
-6.15791e-05
-0.000444275
0.000268949
0.000709542
3.8328e-05
2.01994e-05
-5.88188e-05
0.000135962
0.000804197
0.00224522
-0.000582451
0.000570985
-0.000214425
-0.00201845
0.000348185
-0.000321825
0.000548459
-0.0002427
5.17059e-05
0.00200394
-0.000347595
0.00130822
-0.000295834
0.00184258
-0.00156376
-0.000228032
-0.00175304
0.000753456
-0.000321356
-7.25734e-05
-2.09597e-05
6.34761e-05
0.000380376
-0.000234967
0.000690773
-0.000675138
-0.000115431
0.000474446
-0.000957695
0.000115879
0.00037511
-0.000501165
-0.00031536
-0.00011673
-0.000734615
-0.000124988
0.000811237
-0.00131311
0.000614497
0.0006976
-0.00189218
0.000558441
-4.48935e-06
4.24839e-05
-0.000117951
1.36205e-05
-0.000438755
-0.000401958
0.000840519
-0.000427176
0.000566252
-0.000139086
0.000330901
-0.001733
0.00138778
-0.00182434
0.00151164
0.00021263
0.000238458
-0.000487808
-3.45376e-05
0.000522336
-0.000133394
0.000569678
-0.00043632
0.00184384
-0.000473494
-3.8643e-05
0.000445387
-0.00214383
0.00133629
0.000791034
-0.00024325
-0.000246413
0.000489656
0.000825742
-0.000690043
-0.000505417
0.000448748
-0.00265179
0.00179045
-0.00141765
-0.000388224
0.0017616
-0.00105202
-0.000711014
-0.000570048
-0.000874506
0.000410703
0.000463646
-0.00123504
0.000711604
0.000522989
0.00125437
-0.000721615
0.000735596
6.91347e-05
-0.000805164
0.000227875
-0.000429656
0.00020178
-0.00169989
0.000264923
-0.00145751
0.00177399
-0.00138078
-0.000936618
0.000236571
0.000369725
-0.000606357
-4.36933e-05
4.25045e-05
-2.28987e-05
-0.000312947
-0.000290882
0.00102598
-0.000169799
0.000699796
-0.000987647
-0.00125315
0.000584193
-0.0011635
0.000578947
-0.000333556
0.000468397
0.00070297
0.00129532
-0.00199897
-0.000403398
-0.000702996
0.00109398
-0.000422895
-0.000469028
-0.00121782
-0.000677311
-0.00108396
-0.001423
0.000231711
0.000327265
-0.000559004
-0.000393169
-0.000126606
0.000510992
0.000393884
-0.000704344
-0.000370376
-0.00107304
0.000657381
0.00189452
9.14864e-05
-0.00169563
0.00159066
-0.000598326
0.000425906
0.000170376
-0.00114407
0.00040944
0.000706728
-0.00013505
0.000372528
-0.00055172
-4.92361e-05
0.00224739
-0.0012828
-0.000970722
-0.0014836
0.000690019
-0.000742386
-0.000661758
0.00140334
-0.00215373
0.000684074
0.00146019
0.000427139
-0.000797749
0.000370582
-0.000671814
0.00037696
0.00126575
-0.0019459
0.000672972
-0.000748264
0.00023505
-0.00142797
0.0021151
-0.00070496
0.000770612
-0.00151386
0.000645565
-0.000293061
3.60059e-05
-0.000755613
0.00141246
-0.000658887
0.0016857
-0.00115967
0.00180719
-0.00138518
-0.000464992
0.0013125
-0.00077749
-0.000592307
-0.00163083
-3.17077e-05
0.00163278
0.00162713
-0.000796908
0.000623223
-0.00160329
0.000968431
0.000360069
0.00135436
-0.00174069
0.00160206
0.000455464
-0.00208302
-0.000774386
0.00121131
-0.000437567
6.42989e-05
-0.0017006
0.00163467
6.81168e-05
-0.000436313
0.000356227
1.64911e-06
1.01291e-05
-0.000178013
0.000777862
0.00119358
-0.000609803
-2.10188e-05
-0.00158925
0.000754343
0.00148474
0.000421705
0.000351382
-0.000773134
-0.00098228
-0.000659517
0.00164151
-6.19965e-05
-2.17333e-05
-0.000678438
7.33342e-05
0.00033633
0.000234639
0.000917654
-0.00018889
-0.000742686
-0.000429471
-4.63943e-06
0.000420687
0.00175542
-0.00128553
-0.000473128
0.00069675
0.000554559
-0.000373136
-0.00121512
-0.000376978
0.000361015
0.000212756
0.000690952
0.000298825
0.000344323
-0.000643157
-0.00204097
0.000596176
0.00145518
-0.000710973
-0.000745521
0.00037934
-0.000135415
0.000974061
-0.000309472
0.000184472
-0.00141824
-0.000327322
0.0019655
0.000699952
-0.00027284
0.00121051
-0.00194045
7.67688e-05
-0.000329992
8.63318e-05
-0.000472135
0.000374782
0.000635959
-0.00143882
0.000756665
0.000132868
-0.000534847
4.02344e-05
-0.000565177
-0.000295548
0.00182182
0.000281647
-0.00181542
0.00152064
0.000852192
-0.000430551
-0.000918499
-0.000241569
0.00115091
-0.000453865
0.00144476
-0.000857304
0.00134266
-0.000580259
-0.000763239
-0.000886249
-0.000183381
0.00106119
0.00197508
-0.000469747
-0.000561961
0.000996104
0.000524941
-0.000658378
0.00149051
0.000284598
0.000611443
0.000845405
-0.00145698
0.00139274
-0.00137686
-5.36244e-05
-1.33219e-05
-0.000400805
0.000337772
-0.000403883
0.00198246
-0.00162804
0.00170593
0.00105959
0.000251034
-0.00135129
0.000258984
4.72243e-05
-0.000411814
-0.000426425
0.00029002
-0.000194353
0.00121387
0.000529178
-0.00119201
0.000704996
-0.000442416
-0.00026265
0.000345839
-0.000431233
-3.98405e-05
0.000673402
-0.000974488
0.00030059
-0.000198661
0.000749222
-0.000636053
0.000633939
2.10465e-06
0.000467721
0.000707325
-0.00117667
-0.000445512
0.000654413
-0.000529109
-0.000127736
0.000173371
0.000479116
-0.00142608
7.29762e-05
-0.0011233
0.000229017
-0.000691869
-0.000821841
0.000512222
0.000309559
-0.000115712
0.000126397
0.00157383
0.000492961
-0.00137893
-0.000781996
-0.000629846
0.00140972
0.00147459
-0.000370597
-0.0011061
0.000673206
-0.000546908
-0.000126351
-0.000462558
0.000917533
-0.000455295
-0.00147702
0.000938997
0.000526109
-0.00071444
-0.00166986
0.00209298
-0.00106314
-0.00152185
0.000729252
0.000791637
0.00146629
-0.000854617
-0.000828711
-0.00125244
0.00129737
-0.000410917
-0.000887299
0.00131449
-0.00088854
-0.000707329
0.000310681
0.00039663
0.000256713
-0.000815504
-0.000707211
-0.000444023
-0.000471383
0.000965515
-0.000589814
-0.000433876
0.000196942
0.000174307
-0.000371251
-0.000344211
0.00026737
-0.000459909
0.000484709
-0.00101653
0.000241605
0.000448098
-0.00037205
0.000196773
-0.000382552
-0.000459981
0.00102259
-0.00042792
0.000294876
0.000872865
-0.00144398
0.000571052
0.00124952
0.000493378
-0.000384355
0.00147257
-0.00109444
-0.00131792
0.000855183
0.000452212
-0.000337048
-0.000457766
0.000794745
-0.000498171
-0.00046877
0.000966831
0.00189161
-0.000466278
-0.00143952
0.00202213
-0.00146504
0.00109001
0.000316436
-0.00127354
0.000689444
0.000583485
-0.000538912
-0.00132706
0.00186401
0.000360161
0.00128666
-0.00167364
-0.00010153
3.16716e-05
-0.000493703
0.00213241
0.00133609
0.000430813
-0.00152171
-0.000463658
0.00197425
0.000455629
0.000741974
-0.00119922
-3.35281e-05
-0.000873138
0.000410276
0.00049107
0.000413262
0.00158961
-0.00241017
0.000795629
0.00133729
0.00034311
-0.000439996
0.000166377
0.000273616
0.000281297
-0.000365993
5.51946e-05
-0.000618545
-0.000813248
0.00142832
0.00147781
-0.00112042
0.000762915
0.000578751
-0.000909469
0.000328356
0.000580778
-0.00113299
0.00149507
-0.000363456
-0.000329321
0.000642901
0.00165509
-0.00146724
-0.0001954
0.00128149
0.000463428
-0.000178598
-0.000315255
0.000614071
0.000232132
0.000147208
-0.00119312
-0.000367659
0.0015304
-0.00155641
-0.000435617
0.00196768
-0.000769782
-0.000714998
-0.000575004
0.00182437
-0.00127994
-0.000327991
0.000530222
-0.000202241
-3.26709e-06
-0.000447282
-0.0014612
-0.000611777
0.00207222
0.00139129
-0.000993577
-0.000522801
0.000218991
0.000303803
0.000334892
-0.00133002
0.000422413
-0.000353072
-6.93413e-05
0.00103495
-0.00127006
0.000205441
0.000476912
-0.000682533
7.3331e-05
-0.000215927
-0.00151315
0.000481123
0.0010169
-0.000247362
-0.000275443
5.91645e-05
0.000377037
0.000562672
-0.000528969
-3.37306e-05
-6.81951e-06
-6.22036e-06
8.49912e-06
-1.6545e-06
0.000231009
-0.00198369
0.000535153
0.000137999
-0.00189145
0.000359127
0.000309576
0.000122126
-0.000450911
-0.000761683
0.000432814
0.000328772
-0.000449524
0.00112242
0.0010749
0.000963522
0.0006831
-0.00021976
5.04042e-05
0.000365472
-0.000415879
-0.000458002
-0.000178071
-2.35367e-05
0.000277542
4.6278e-05
0.000215941
-0.000262219
1.22004e-05
1.36011e-05
-3.09431e-05
-0.000309696
0.000785765
0.000923255
0.00135153
-0.000470864
-0.00105592
-0.000139056
0.000497561
-0.000363313
2.08693e-05
-2.31725e-05
0.000859519
0.000436962
0.00043059
0.00121782
-0.000388697
-0.000178926
6.96801e-05
8.96738e-06
-0.000219319
8.43682e-05
0.000352457
0.000330618
0.00114411
0.000288714
-0.00147378
-0.00097623
0.000555886
0.000420091
0.00199661
-0.000443613
-0.000128025
0.000417584
3.09092e-05
-7.46575e-05
0.000985984
-0.000260536
0.000629509
-0.000526158
-0.000103381
0.000258232
0.00016418
0.000519261
0.00046102
-0.000712272
0.00116634
0.000724894
-0.000498381
-0.000226559
0.000381758
-0.000198748
-0.000375558
-0.000795163
0.000465225
-0.000811093
0.000345821
7.82542e-05
-0.000189397
-0.000603353
0.00078809
-0.000184833
-0.00176006
0.00115632
0.000564894
-0.000333211
0.00168719
-0.000391484
-0.00214123
0.00166689
-7.99909e-05
-0.00171698
0.00188484
-0.000980907
-0.000224701
0.00120461
0.000152334
0.000283512
-0.000435855
-6.22403e-05
0.000109651
-7.6908e-05
0.000746095
0.000458045
-0.00199241
0.00122124
0.000749306
-3.93801e-07
1.42415e-05
0.000405797
-0.000177923
0.000706868
0.0008374
-0.0015449
0.00174997
-0.00116931
-0.000597656
-0.000472076
-0.000402578
-0.000916877
-0.000448993
-0.000982134
0.00141634
1.52436e-05
-5.17407e-06
0.0002149
0.000190896
0.00189933
-0.000805101
-0.00205127
-0.000369863
0.000355093
0.00081807
0.000915695
-0.000306559
0.000543076
-2.48002e-05
2.15679e-05
-0.000334238
0.000779221
-0.000445123
-5.13234e-05
-6.72412e-05
7.62006e-05
0.000123053
0.000703382
-0.000879905
-0.000804914
-0.000390068
-0.000288265
-0.000168542
0.000338036
-0.000169494
0.000568703
-6.05842e-06
-0.00149603
-0.000456012
0.00195016
0.000326189
-0.000770342
-0.000272231
0.00126554
-0.000845171
-0.00137776
-0.000170298
-0.000269699
0.000603191
-0.000478977
-0.000124235
0.000522515
0.00122954
0.0014284
-0.0012595
-0.000725534
-0.00142597
-0.000140729
5.44493e-05
0.000118207
-0.00151994
0.00137522
-2.7323e-05
-3.15601e-05
-0.000938821
0.000430506
0.000508011
0.0012065
-0.00159533
0.000385444
-0.000398734
-0.000308613
-0.0011593
0.000177424
0.000384521
0.00142675
-0.00181263
0.000435757
-0.000934024
-0.00137767
0.00186459
-0.00125686
0.000629608
0.000626232
0.000855361
-0.000454366
-0.00019924
-0.00106735
0.000689108
0.00105405
-0.00175109
-3.20985e-05
4.95212e-06
0.000800615
-0.000729159
-5.38636e-05
-0.000127737
2.78946e-05
-8.06262e-05
-0.000436831
-0.000890801
0.000247273
-3.42611e-06
-0.00033833
0.000238852
-0.000192574
-0.000636243
0.00120927
-0.00057382
5.65279e-05
0.00022406
-0.000339983
0.000404194
0.000349128
-0.000145203
5.99378e-05
0.000160534
0.000345311
-0.00145377
0.00104134
-0.00164533
0.00129006
-0.000279588
-0.000148334
0.000315349
-0.000829067
0.000513416
0.000759961
0.000270396
-0.00158905
0.00172496
-0.000149635
0.000140414
-0.000475837
0.000328867
0.000373277
0.00119873
-0.00159926
0.00139806
-0.00141027
4.86366e-06
0.000877889
-0.000914993
3.61064e-05
-0.00141451
-0.000380608
0.00176091
0.000382287
-0.000216636
-0.000165651
0.00142782
-0.000228039
-0.00120172
-0.00143125
-0.000516883
0.00194644
-0.000258848
0.00101774
0.0017076
-0.00102609
0.000324629
-0.000274227
-0.00143897
0.00104855
8.99007e-06
-0.000165177
0.000110881
-0.00119303
0.000385824
-0.000152429
-0.000610827
-0.000266702
-0.00114643
-0.000301234
0.000378002
0.00063333
-0.00209711
0.0014629
0.000170608
-0.000955168
-0.00164101
0.000317093
0.00153948
-0.00184207
-0.000461722
0.000283036
-0.00102462
0.000739367
-0.00108503
0.00162837
-0.000238644
0.000693146
-0.00131493
-0.000597791
0.000506892
0.00172549
-0.000438742
0.00084929
0.000380024
-0.00101693
-0.000395265
0.0019599
-3.83027e-05
-0.00115239
0.000119766
-0.000155487
-0.000332366
0.00120875
0.00164734
-0.000298314
0.000321711
-0.00160569
0.00127908
-0.00156355
0.00101354
0.000538963
-0.000275129
0.000404984
-0.000129856
6.36331e-05
-9.89776e-05
3.41411e-05
-0.00145192
0.00208441
-9.40327e-05
0.00151599
-0.00205315
0.0014364
0.000612876
-0.00133866
0.00102398
0.000312193
0.000519962
8.32071e-05
5.85987e-05
-0.000154775
-0.000912181
0.000389087
0.000522851
0.000120319
0.000509164
4.81126e-05
-3.66725e-05
-1.1457e-05
0.00190737
-0.00136367
-0.000574703
-0.0011846
-3.36212e-05
0.000188545
0.00193133
-0.000999367
-0.000968964
-0.000118122
-0.00178442
0.00187973
-0.000623994
0.00187253
-0.00125357
-0.00111106
0.000777958
0.000207891
-0.00077312
-0.000921793
-0.000257454
0.00114058
0.000625486
-0.000238388
-0.000387116
0.0012141
-0.000629312
0.000272586
-0.00105632
0.00038315
-0.000690288
-0.00146971
0.000704248
-0.000498988
0.00159297
-0.00055416
0.000340522
-0.000409096
4.34108e-05
-0.000530597
0.000845632
-0.000609601
-0.000441359
0.00105058
-0.000610785
0.000990171
0.000345833
0.000877557
-0.00124922
0.00106094
0.00033391
-0.00111491
0.00121121
-0.000338523
0.00185029
-0.000591176
0.000377765
0.00108854
-0.00148525
-0.000607052
0.00108097
0.000273717
-0.00172143
0.000313224
0.00113661
-0.00148374
0.000826292
-5.44622e-05
0.000751236
-0.00141265
-0.000407158
0.00181511
-0.00149783
0.000515334
0.00100761
0.000752394
-0.000204254
0.0012258
-0.00136021
-0.000312862
-0.00187067
-0.000645745
0.000276222
0.000369481
0.00102431
-0.00150897
0.000289772
-0.00174092
0.00144152
6.99558e-05
-8.21053e-05
-7.93404e-05
-9.27895e-05
0.000138954
0.00157189
0.000256217
-0.00184299
0.000398636
0.00123586
-0.00163895
-0.00146575
0.000331576
-0.000857276
0.00117796
-0.000134586
0.000456946
-0.000325035
-0.00160727
0.00200617
-0.000418157
-0.000730163
0.0016523
-0.00138271
-0.000674377
0.00114057
-0.000365557
6.19045e-05
-0.000731546
0.000483667
-0.000317095
-0.000321961
0.000639029
-0.00182936
0.000412359
-1.67671e-05
6.24881e-05
-0.000385946
0.000324363
-0.000964781
0.00170542
-0.000746887
0.000248315
-0.00161675
0.00122015
-0.00132682
0.00192718
-0.000603657
-0.00224225
0.00160534
0.000624193
-0.000396037
-0.00104781
0.00141482
0.000587759
0.00128748
0.000447325
-0.000130719
-0.000316609
-0.000855022
-0.00046913
0.00132243
-0.00184218
0.00034434
0.000879555
-0.00153933
0.000896898
0.000994083
-0.000997788
0.000386363
-2.36793e-06
1.83938e-05
-0.00123295
-0.000455454
0.00167758
0.000567641
-0.00188996
0.00132006
-1.24325e-05
-1.43558e-05
0.00065717
-0.0004657
0.00145328
-0.000991155
-0.00188478
0.000554664
-0.000323649
0.000810387
0.00216144
-0.00161822
-0.0005473
0.000700623
9.89396e-05
-0.000824616
0.000173463
-3.48847e-05
-0.00017184
-0.000613585
-0.000621848
-0.00123297
-0.00162443
-0.000357091
0.00196157
-0.00186451
0.00137436
0.000482461
-0.00150157
-0.000421952
0.00189887
-0.00089838
0.000103952
0.000576792
0.00180243
-0.000885102
-0.000918186
0.00148141
-0.00188984
-0.00027015
0.000355926
-8.57771e-05
0.000167597
0.000428819
0.00146741
-0.00189925
-0.000450438
-0.000780393
0.00139169
-0.000303114
-0.00212377
0.00168031
-0.000834028
-6.618e-05
0.000849667
-0.000429844
-0.000922651
0.00133826
0.00228903
-0.000932553
-0.00138226
0.00167148
-0.00131635
-0.000363141
-0.000272073
-0.00118891
0.000273775
0.00122119
-0.00152864
0.00129162
-0.00122854
-0.00197097
-0.000565751
0.000243709
0.000322024
0.00134543
0.000494311
0.00116049
-0.000769866
-0.000391643
-0.000685481
0.00116658
-0.000481577
0.000384432
0.00110959
-0.00152138
-0.000596879
-0.000999638
0.000428685
-0.00139926
-0.000532573
0.00163483
-0.00111697
0.00147605
-0.000708869
-0.000769544
-0.00050467
0.000369313
0.000424707
-0.000184391
-0.000499468
-0.000439608
0.000113817
-0.00039156
0.0002751
-0.00157623
0.00119741
-0.0013193
0.00172473
0.00011946
0.00170423
0.00045353
-0.00207968
0.000704546
-0.000862344
-6.90896e-05
0.00088137
0.00148689
0.00122347
0.000422782
0.000761953
-0.000269311
-0.000493685
0.000637438
-0.00211908
0.00147399
-0.0018809
0.00130343
0.000543913
-0.000435433
0.000585287
-0.00159467
-0.00104072
0.000126175
0.000733078
-0.000356661
0.0014092
-0.00207654
0.000659559
-0.000750254
0.000265525
0.000904138
-0.00120655
0.000856395
-0.000480479
0.000122625
0.000350312
-0.00160903
0.00204408
-0.000216208
-0.000213448
3.29908e-06
0.000137414
-0.00125558
-0.000319809
0.000756874
-0.000352822
0.000198653
-0.000139841
-0.000347126
0.000463891
0.00159755
-0.00206461
-0.000333533
-0.000312249
-0.000483572
-0.000795813
0.0012657
-0.00235762
0.0018056
0.000538053
-0.00196124
-0.000229438
0.00171955
-0.00156725
-0.000207183
-0.000376772
-0.000384991
0.00100978
0.000615607
-0.00164035
-0.000223193
0.000420135
0.0013357
-0.00189882
0.000588683
-0.00111334
0.000524555
-0.00129481
-0.000302357
0.000390404
-9.7291e-05
-0.000235364
-0.000319026
0.000249168
-0.000100242
-1.63793e-05
7.88007e-05
0.000291362
0.000172062
0.00198538
-0.000573325
-0.00142104
0.000129447
-0.00103815
0.00085899
0.00162873
0.000479758
-0.00211115
-0.00119951
-0.00137247
0.000927932
-0.000479246
-0.000563429
0.00182189
-0.000449146
0.000595294
0.00085847
-0.00054182
0.000816071
-0.000274411
-0.00068905
-0.00082103
0.00151056
0.000377712
-0.000143075
-0.000234638
0.000531388
-0.00197068
0.0014275
-0.000501006
-0.00164313
-9.12659e-05
0.00168959
0.000144674
-0.000357636
0.000212962
0.00023143
0.00172569
-0.00159993
-0.000137654
0.000491532
-0.000376541
0.00156937
-0.00116256
-0.000422972
0.000129808
0.00035385
-0.000377695
0.000895811
-0.000533351
-0.000393903
-0.000826885
0.00120273
-0.0019071
0.00137588
0.000496124
-0.000753599
0.00122447
-0.000472488
-4.17644e-05
0.000357544
0.00138789
0.000588197
0.000828501
-0.000507168
-0.000321527
0.000711748
-0.000311522
-0.000400239
0.000292943
-0.00061006
0.000380474
0.000376245
-0.00155026
0.000256779
-0.000494911
-0.000215259
-0.00149179
0.0016617
0.000647578
-0.000371399
0.0013024
-0.00184331
0.000158306
0.000717108
-0.000225969
-0.000505437
-0.000954351
0.000528441
-0.000244016
-0.000393476
-0.00145264
-0.000552278
0.00198453
0.000531779
0.000171974
-0.000406016
0.000530292
-0.00128364
0.00166616
-0.000430697
-0.000638771
-0.000619045
0.000997523
-0.000917983
0.000236376
0.000115544
-0.000351921
-0.000392825
-0.00112048
-0.000292076
0.00137054
0.000302456
0.000144865
-9.43579e-05
-0.00159183
-0.00130389
0.00124915
0.00168473
-0.000439795
0.000417626
-0.000202727
-0.00136636
0.000550056
5.16973e-05
-1.81734e-05
-4.89096e-05
0.00103821
-0.00125556
0.00154933
-0.000321385
-0.000371814
0.000601092
-0.000234108
-0.000367
-0.00138617
0.00155657
-0.000791327
-0.000765607
-0.00146174
0.000198622
-0.00100894
-0.000878741
0.00153548
-0.000534376
-0.000632182
0.00115099
-0.00157785
0.000644468
0.00161452
0.000542402
0.00135966
0.000290794
0.000213698
0.00016806
0.00162252
4.08699e-05
-0.00167319
-7.23554e-05
-0.000177043
-0.000831209
-0.00153755
0.000133548
0.0013735
-0.00154905
0.00127279
-0.00073483
0.000408206
0.000326517
-0.00110353
0.000598445
-0.000187205
0.00139038
0.000143576
0.000242248
-0.000164946
0.000401321
0.00212748
-0.000517844
-0.000321822
-0.000413104
-0.000786518
0.00121117
-0.000379386
0.000234691
0.000144694
-0.00061096
0.00106122
0.000529933
-0.000843198
0.000313218
-0.000545479
-0.00116715
0.000409635
-0.000826653
-0.000638057
0.0014581
2.31246e-05
0.000823937
-0.000847162
-0.000519369
0.000219214
0.000300143
0.000118117
-0.000482505
0.000358415
0.00195916
6.86774e-05
-0.000382947
-0.00112452
0.001368
-0.000503767
-0.000483429
0.00195131
0.00150761
-0.000512402
-0.00063031
0.0010514
-0.000421336
0.000310463
-0.000260373
-5.00899e-05
-0.00116101
-0.000440077
0.000196016
-0.000394765
5.25264e-06
-1.62407e-05
-0.00055402
7.70984e-05
0.000463882
0.000638774
0.000281192
0.000213891
-0.00049509
0.00141176
0.000251441
1.8274e-05
-1.12234e-05
0.000964224
0.000435006
-0.00158264
0.00188835
-0.000329825
-0.00131169
0.00125583
-0.00188502
0.00206859
-0.00141899
-0.00065466
0.00164886
0.000610342
0.00200282
-0.000376601
0.000488817
0.000842931
-0.00108567
0.000236065
0.00186795
0.00175204
-0.000138931
0.000166122
-0.000399602
0.00023348
7.73085e-05
-0.00167911
0.00180342
-0.000468788
0.000472302
1.0245e-05
-0.000486226
0.000202043
0.000518881
-9.58167e-05
-0.000477341
0.000453425
-0.00174214
-0.00165617
0.00176124
-0.000115905
7.88854e-05
-0.00154623
0.000334017
-0.000480471
0.000377963
-0.000565071
-0.00100827
0.00031804
-0.00195464
0.00161988
-0.000985153
0.00054222
0.000442586
0.000249447
-0.00166547
2.63747e-08
4.77634e-05
-0.000742643
0.000939346
-0.000196945
0.000434815
0.000270107
0.000914198
-0.000525344
0.000341857
-0.000806624
0.000464677
0.00104983
-0.000768951