/*--------------------------------*- C++ -*----------------------------------*\
| =========                 |                                                 |
| \\      /  F ield         | OpenFOAM: The Open Source CFD Toolbox           |
|  \\    /   O peration     | Version:  v2012                                 |
|   \\  /    A nd           | Website:  www.openfoam.com                      |
|    \\/     M anipulation  |                                                 |
\*---------------------------------------------------------------------------*/
FoamFile
{
    version     2.0;
    format      ascii;
    class       volScalarField;
    location    "550";
    object      nut;
}
// * * * * * * * * * * * * * * * * * * * * * * * * * * * * * * * * * * * * * //

dimensions      [0 2 -1 0 0 0 0];


internalField   nonuniform List<scalar> 
13917
(
0.00309153
0.00279863
0.00112964
0.00626905
0.00581813
0.00306499
0.00378816
0.0019988
0.0031838
0.000221588
0.00238398
0.00684183
0.00324408
0.00347016
0.00583814
0.00190379
0.00681583
0.00200961
0.00139406
0.00155628
0.00396842
0.00683434
0.00207309
0.00683391
0.00665574
0.00321865
0.0116087
0.000162163
0.00209349
0.00680125
0.00013154
0.00287998
0.00680192
0.0095436
0.00682696
0.00257116
0.00652601
0.00696984
0.00324673
0.0046704
0.00677297
0.00672984
0.00326392
0.00184497
0.00187123
0.000443127
0.00410252
0.00223297
0.0198451
0.00682551
0.00684162
0.000786859
0.000454474
0.00684608
0.00684514
0.000745687
8.9934e-06
0.00233031
0.00674514
0.000244297
0.0112724
0.00575216
0.00680357
0.00632025
0.00953937
0.00565969
0.00206146
0.00255075
0.00197782
0.00276168
0.00615852
0.00841876
0.00682232
0.0067901
0.00381748
0.00657839
0.00638202
0.00679786
0.00659828
0.00679149
0.00678183
0.00682451
0.00681941
0.00597252
0.00671991
0.00214823
0.00220633
0.00676589
0.00470184
0.00683389
0.0067714
0.00300495
0.0207904
0.0068494
0.00680005
0.00211693
0.00539918
0.00686299
0.00675502
0.00180522
0.00679491
0.00678429
0.00677744
0.00682225
0.00638757
0.00523001
0.00773647
0.00569089
0.00666727
0.014157
0.00673775
0.0100324
0.0022214
0.00286025
0.0093479
0.00594978
0.00151144
0.00678844
0.001162
0.00679393
0.00684342
0.0068317
0.00202034
0.00116149
0.00337489
0.00584369
0.00643094
0.00358183
0.00684979
0.00110106
0.00265326
0.000862843
0.011792
0.00651681
0.00251938
0.0147997
0.0129566
0.00373462
0.00277986
0.00696266
0.00422162
0.0068155
0.00485816
0.00680524
0.00681132
0.006244
0.00593829
0.00828396
0.00211447
0.00684791
0.00500028
0.00679005
0.0068049
0.00679422
0.0087612
0.00671549
0.00681502
0.0121002
0.00678922
0.00679578
0.00674043
0.010685
0.00618233
0.00350012
0.00964028
0.000702284
0.000171929
0.00596103
0.00668801
0.00268205
0.00681786
0.0117559
0.00305261
0.0116911
0.00152153
0.00678996
0.00677105
0.000760472
0.00275416
0.00608592
0.00346876
0.00682914
0.00684291
0.000491926
0.00115044
0.000817154
0.00684183
0.000538993
0.00679836
0.002235
0.00164974
0.00193774
0.000741199
0.00317257
0.00684648
0.00355706
0.00546668
0.0113464
0.00682848
0.00675954
0.00448026
0.00281776
0.00252841
0.00658062
0.0107045
0.00303878
0.00495792
0.00681416
0.000765339
0.0067832
0.00678292
0.0052706
0.00519171
0.00214766
0.00250083
0.00307239
0.0114077
0.006885
0.00676639
0.00676488
0.00429597
0.000677185
0.000313221
0.00672196
0.00679212
0.0162496
0.00252758
0.00674351
0.00673877
0.00676449
0.00677732
0.00677602
0.00747767
0.00323178
0.00682358
0.00669663
0.00146539
0.00732589
0.00681167
0.00672178
0.0121085
0.00494536
0.000723921
0.0114851
0.00107854
0.00680458
0.0076268
0.00127958
0.00235084
0.00199343
0.00662571
0.00257537
0.00680106
0.00442502
0.00197523
0.00680867
0.00675561
0.00637979
0.00600391
0.00680778
0.00650123
0.018941
0.00683821
0.00673385
0.00669969
0.00673414
0.00680068
0.00683473
0.00293457
0.00682282
0.00568141
0.00863838
0.00682008
0.00629063
0.000494685
0.00677033
0.00202274
0.00822565
0.00677092
0.00463298
0.00681851
0.0104465
0.00679119
0.00608214
0.00679866
0.00680614
0.00094607
0.00690862
0.00107627
0.00544337
0.0196335
0.00611599
0.00468984
0.00351059
0.00680721
0.00206693
0.00595401
0.00645941
0.00588105
0.00662117
0.00684413
0.00689344
0.000866516
0.00526973
0.00452848
0.00664859
0.00672157
0.0118732
0.00160997
0.0068462
0.00631015
0.00643127
0.00310301
0.00171195
0.00951694
0.011492
0.00605277
0.00110666
0.00632736
0.00513544
0.00271549
0.00110834
0.00682718
0.00587515
0.010606
0.00677575
0.00256517
0.00187956
0.0068069
0.0116749
0.00672574
0.00234752
0.00681282
0.000310642
0.00672263
0.00475012
0.00271284
0.0059376
0.00682346
0.00195934
0.00432009
0.00681348
0.00677754
0.0109371
0.00444571
0.00920132
0.00293782
0.00676023
0.0068313
0.00512971
0.000993746
0.00676199
0.00589486
0.0068451
0.00266664
0.00464852
0.00091326
0.00131515
0.00203713
0.00232887
0.00760264
0.00685347
0.00681184
0.00567112
0.000973105
0.00679823
0.00230929
0.00271034
0.011766
0.00684335
0.00114886
0.00613406
0.021183
0.00671571
0.000431419
0.000763725
0.00249116
0.00682646
0.00215965
0.00680189
0.00970295
0.000680938
0.00671827
0.0205277
0.00673942
0.0134933
0.00679699
0.00199078
0.0135764
0.00660764
0.0171988
0.00212131
0.00668292
0.0105942
0.00100271
0.00667368
0.000826325
0.00683965
0.00200298
0.00113373
0.00672885
0.00348234
0.00665217
0.00679404
0.00672313
0.00685428
0.0134442
0.000925782
0.00683047
0.00685394
0.0068483
0.00241515
0.00246373
0.00679987
0.00668842
0.00173561
0.00118442
0.00681448
0.00663084
0.0103262
0.0116492
0.00712046
0.00135588
0.00342412
0.0068277
0.00678998
0.00409102
0.00672114
0.00680004
0.00681289
0.00679065
0.00682935
0.00582481
0.00683807
0.00440919
0.00677462
0.00193966
0.00678852
0.0068005
0.0105625
0.00457002
0.00235777
0.00681296
0.00673764
0.00679927
0.00678795
0.00654255
0.00670594
0.00991195
0.00637507
0.00558215
0.00673776
0.00299279
0.00626086
0.00678987
0.00106742
0.00938641
0.00684525
0.0162303
0.00679587
0.00676006
0.0068482
0.00673566
0.00676905
0.00681054
0.0120002
0.0109236
0.00676285
0.00555685
0.00176603
0.00679667
0.00187366
0.00260796
0.0105297
0.00312581
0.00550799
0.0135626
0.01411
0.00670103
0.00558333
0.00617873
0.00664409
0.00536943
0.00678407
0.00684872
0.00679847
0.00361996
0.00455326
0.00123135
0.00214792
0.00643808
0.0061602
0.00197473
0.00353731
0.00682983
0.00597252
0.00324296
0.00529833
0.0103131
0.00672038
0.00341614
0.000759817
0.00671815
0.012324
0.00676914
0.00678786
0.00204809
0.00681309
0.00684289
0.000771371
0.0122483
0.0177903
0.00673654
0.00542104
0.00647998
0.00391813
0.00476744
0.0068386
0.00684562
0.00673096
0.00217487
0.0141623
0.00685481
0.00681208
0.00676785
0.00678418
0.00619857
0.00431628
0.00679458
0.00217392
0.00671812
0.00684675
0.00667498
0.00962191
0.00671377
0.00449853
0.00680601
0.0025559
0.00165973
0.00205581
0.00171705
0.00175344
0.00670952
0.00198095
0.0109981
0.00556439
0.00850255
0.0068401
0.00684945
0.00621829
0.00677678
0.00954138
0.00678207
0.0162759
0.00495085
0.00983915
0.00188869
0.00366286
0.00147033
0.00676472
0.00220279
0.0068807
0.0066449
0.00892792
0.00680888
0.00104152
0.00679532
0.0068164
0.00685018
0.00129735
0.00617394
0.00671871
0.00196212
0.00236031
0.013949
0.00451774
0.0116718
0.0102908
0.00671426
0.00269876
0.00678654
0.0123355
0.0102015
0.00657365
0.00545238
0.0067939
0.00297967
0.00352912
0.00680811
0.00687745
0.00682942
0.00328537
0.00674513
0.00246393
0.00684598
0.0067153
0.00681243
0.000550319
0.00820076
0.000954038
0.00175436
0.00425539
0.000806352
0.00799105
0.00680862
0.00756419
0.00682113
0.00216861
0.00677841
0.00183142
0.00677846
0.00614891
0.00681573
0.0143772
0.00302387
0.0104134
0.00679989
0.00309556
0.00683705
0.00678209
0.00838503
0.000821819
0.00681061
0.000861436
0.00672153
0.00669601
0.00679023
0.00967519
0.00674473
0.00596429
0.00678159
0.00682483
0.000946387
0.0067874
0.000939076
0.00682977
0.00672037
0.0117827
0.00245263
0.00684102
0.00043921
0.00105369
0.00255473
0.00060215
0.00675916
0.00568568
0.008438
0.00102144
0.00436503
0.00652275
0.00611179
0.00685052
0.00684891
0.00761374
0.00145284
0.00580404
0.00981408
0.00271665
0.00104115
0.00598353
0.00507928
0.00419612
0.000767152
0.00564147
0.00684252
0.00545125
0.00809706
0.00672048
0.0068302
0.00681569
0.00642939
0.00683666
0.0028656
0.00245851
0.00677499
0.00196895
0.00680274
0.0102748
0.00682069
0.00685285
0.0124205
0.00179118
0.0104585
0.00682753
0.00670139
0.00685355
0.00636395
0.00325813
0.00681431
0.00285698
0.00559324
0.00902683
0.0104767
0.00549788
0.0115858
0.00553489
0.00689042
0.00683003
0.00900946
0.0176982
0.0053511
0.00301739
0.0148716
0.00672507
0.00685123
0.00654152
0.0051108
0.0127056
0.00315607
0.00651598
0.0042741
0.002109
0.00644184
0.000925624
0.00241307
0.00680476
0.00678864
0.00686579
0.00339174
0.00616063
0.00103026
0.00639548
0.00641613
0.00294544
0.00699754
0.0167878
0.00657801
0.00360662
0.00478255
0.00102256
0.00684614
0.00246892
0.00768681
0.0135943
0.00677978
0.00638857
0.00690626
0.00675288
0.00680889
0.00532706
0.00628942
0.000629819
0.000978483
0.00675542
0.000967018
0.00298375
0.00330495
0.000832301
0.00681919
0.00255782
0.00433297
0.00670908
0.00177595
0.00136386
0.00251738
0.00682039
0.00677282
0.00685082
0.00194027
0.00680559
0.00679449
0.00248089
0.00682083
0.00680739
0.000951394
0.00126224
0.00438042
0.0135344
0.00262978
0.00522006
0.00680719
0.00630369
0.000168064
0.00656309
0.00713343
0.00682003
0.00682028
0.00683166
0.00626326
0.00197077
0.00682063
0.00643534
0.0067862
0.0121979
0.00657056
0.00321662
0.00681261
0.00169173
0.00604505
0.0101697
0.00382108
0.00680775
0.00932467
0.00677789
0.00572503
0.0035675
0.0040367
0.00652943
0.00683074
0.00677337
0.0107573
0.0035588
0.00262278
0.0123945
0.0067498
0.00245311
0.00669368
0.0061735
0.0121626
0.00670215
0.00734344
0.00411091
0.00383978
0.00148057
0.000167896
0.00674957
0.00682533
0.0011947
0.00676118
0.00684715
0.0067066
0.00685086
0.00241997
0.00674554
0.00216399
0.00680629
0.00273985
0.00550462
0.00372473
0.00581281
0.0161209
0.00184878
0.00215771
0.0067226
0.00670871
0.00681046
0.00677644
0.00673413
0.00365503
0.00676979
0.00243327
0.00684884
0.00104486
0.00681527
0.00250599
0.00157202
0.00684935
0.00442479
0.00677876
0.00659688
0.0046585
0.00679975
0.0114724
0.00145301
0.00795739
0.00684918
0.00674059
0.00680529
0.00677695
0.0102101
0.00672477
0.000923926
0.00676994
0.012763
0.00614033
0.00679411
0.00255526
0.00580933
0.00672796
0.010444
0.00670186
0.00651428
0.00187104
0.00676659
0.00185645
0.00679372
0.00677678
0.00602405
0.00684169
0.00644031
0.00191099
0.00509448
0.00671106
0.00916797
0.00142493
0.00668952
0.00663108
0.00685115
0.00260942
0.00673772
0.00183309
0.00683638
0.012393
0.00607914
0.0102867
0.00685048
0.00678802
0.0139338
0.00687609
0.00692763
0.01033
0.00670828
0.00673059
0.00238122
0.00669208
0.0067095
0.00155705
0.00668769
0.00988953
0.00461525
0.0026963
0.000789815
0.00480277
0.0123105
0.00677839
0.00162409
0.00674215
0.00708767
0.0134188
0.00682636
0.0067837
0.00670342
0.0068379
0.00678941
0.00683775
0.00683436
0.00676629
0.00454469
0.00670902
0.00673807
0.00229465
0.00882188
0.0104617
0.00197046
0.00680397
0.0139863
0.00675601
0.000297901
0.0138292
0.000171007
0.00678557
0.00672492
0.0067642
0.00684841
0.00678
0.00680126
0.00675202
0.00415892
0.00673073
0.000727823
0.00113922
0.00675659
0.0112402
0.00674424
0.0068513
0.00572572
0.0101363
0.00327458
0.00679283
0.0107962
0.00684346
0.0068508
0.000606698
0.00669859
0.00848037
0.00666063
0.00299291
0.00678673
0.00682663
0.00466308
0.00251726
0.00672511
0.00934851
0.00598297
0.00693431
0.00657679
0.00674428
0.0067669
0.00234499
0.00237144
0.00575465
0.0102219
0.00104355
0.00329048
0.00222903
0.00683702
0.00954556
0.00682973
0.011516
0.00190918
0.00323144
0.00674968
0.0129241
0.0179669
0.000785689
0.00706009
0.0134914
0.00677919
0.00676893
0.00236403
0.0068104
0.00683346
0.000344983
0.00468357
0.00682806
0.00264232
0.00711559
0.00678751
0.00675887
0.0156974
0.0111047
0.00679287
0.00677821
0.0036723
0.0067981
0.00685167
0.00528032
0.00625996
0.00680141
0.011079
0.00707237
0.00783129
0.0141309
0.00602903
0.00741144
0.00682834
0.00681892
0.00343518
0.00496582
0.01188
0.00571954
0.0040783
0.00599091
0.00580213
0.00670139
0.0102744
0.00631534
0.0067444
0.00226139
0.0067988
0.013945
0.00165287
0.00188296
0.00248581
0.000268658
0.0135913
0.00874627
0.0120532
0.00696853
0.000453709
0.00676484
0.00217118
0.00136956
0.00877309
0.00462182
0.00663858
0.0050788
0.00172106
0.00668364
0.0105192
0.0035161
0.00124277
0.0109214
0.00681213
0.0021855
0.0066421
0.00684993
0.00607693
0.00817097
0.00680685
0.00674852
0.00674708
0.00235445
0.00673565
0.00670752
0.00381607
0.00677786
0.00683569
0.0014496
0.00260724
0.00674359
0.00684558
0.00181298
0.00171172
0.00318631
0.0123069
0.00683178
0.00674031
0.0174375
0.00679277
0.0066718
0.0120417
0.00810342
0.00574355
0.00234396
0.00615335
0.00177626
0.000978948
0.00508417
0.00515531
0.00685142
0.00118317
0.00965005
0.00112133
0.0130017
0.0210854
0.00682741
0.00684647
0.00683313
0.00683784
0.00684306
0.00102709
0.00684925
0.00263032
0.00672802
0.00245509
0.0106648
0.00668457
0.00453939
0.0151423
0.00674436
0.00280142
0.00618839
0.00672885
0.00675665
0.00918642
0.00181953
0.00583644
0.00566855
0.00739288
0.00133049
0.00670888
0.00342781
0.00334344
0.00733481
0.00680152
0.000497027
0.00675623
0.00630935
0.0034105
0.00629603
0.00584964
0.00222646
0.00930001
0.00674337
0.000701181
0.00265495
0.00684999
0.00675386
0.00617475
0.00109599
0.000171698
0.00682143
0.00256015
0.00540809
0.000381682
0.00247593
0.00682821
0.00672439
0.00682584
0.0067438
0.00696458
0.0065615
0.000920461
0.00676844
0.00422197
0.011298
0.00520895
0.00193277
0.0112169
0.00888032
0.00682587
0.00680512
0.00671961
0.00674774
0.002501
0.0108485
0.00675828
0.00142666
0.00455129
0.0022868
0.00373063
0.00490754
0.00635245
0.00201919
0.00684942
0.00199193
0.00472126
0.00680555
0.00682297
0.0116967
0.00247551
0.0108998
0.00890513
0.000817979
0.00685097
0.000675405
0.00694668
0.00672407
0.00857423
0.00776578
0.00684731
0.00577024
0.00135345
0.00524469
0.00680228
0.00674434
0.00675777
0.00678486
0.00674632
0.00435782
0.0038022
0.00476685
0.00519266
0.00416772
0.00278739
0.00146835
0.0068425
0.00416989
0.000365824
0.00103314
0.00798976
0.00671114
0.00674361
0.00770269
0.00673438
0.0107179
0.00634291
0.00438524
0.00683723
0.00673857
0.000239422
0.00484543
0.00672276
0.00673862
0.0168092
0.000140064
0.00773963
0.00681232
0.00685189
0.0207353
0.00679955
0.0068273
0.00136032
0.0117595
0.00587667
0.00281337
0.00681009
0.0025008
0.00672648
0.00643482
0.00556128
0.00673918
0.00107292
0.00672985
0.00677872
0.000289613
0.00249045
0.0145333
0.00105167
0.00672115
0.00379511
0.00680625
0.00684896
0.00656821
0.00680383
0.00684272
0.00121731
0.00682602
0.0015834
0.0061391
0.00649388
0.00680228
0.00687186
0.00684993
0.00930422
0.00680091
0.00191505
0.00225152
0.00683886
0.00234257
0.00273386
0.00342214
0.00684033
0.00615864
0.00676157
0.00680793
0.012345
0.00328535
0.00637798
0.00681635
0.00684173
0.00677062
0.00190212
0.00679429
0.0114187
0.0024319
0.00682388
0.00672125
0.00677735
0.00261032
0.00583139
0.017439
0.00627185
0.0150778
0.00653063
0.00113957
0.00654423
0.0094079
0.00672903
0.00679659
0.00593734
0.00623326
0.00678241
0.0112483
0.00685102
0.00682152
0.00119923
0.000401565
0.0017193
0.00696513
0.00478338
0.00131079
0.0057698
0.00683665
0.00962841
0.00674409
0.00678919
0.00561486
0.00675774
0.0116781
0.00498424
0.00676479
0.00677174
0.00683847
0.0110455
0.00681024
0.00674485
0.00244304
0.0067226
0.00680163
0.00660912
0.00683249
0.00241505
0.00682965
0.0064403
0.00671873
0.00627835
0.0046858
0.00672053
0.00672213
0.00679745
0.00672113
0.00406293
0.00680468
0.00683002
0.0068295
0.00675206
0.00677175
0.00681629
0.00190517
0.00677926
0.00157638
0.00684043
0.00234522
0.00681623
0.00684163
0.0068075
0.00680427
0.00499388
0.00613189
0.00335177
0.015048
0.0100281
0.012225
0.011309
0.00196692
0.00598272
0.00684639
0.00680945
0.00469999
0.0112586
0.00676347
0.00758401
0.00679394
0.00186195
0.011476
0.00438806
0.00152586
0.00845375
0.0177817
0.00682319
0.00239313
0.00676171
0.00468707
0.00443913
0.0120053
0.00196526
0.00684417
0.00477328
0.0011828
0.00681136
0.0033538
0.00970831
0.00667901
0.00671887
0.00711215
0.00851855
0.00683573
0.00277644
0.00682766
0.00128969
0.000848028
0.00684587
0.00682363
0.000548876
0.0068471
0.0067437
0.00661825
0.00675344
0.00143868
0.00574891
0.00368392
0.0101591
0.00674595
0.00218282
0.00681753
0.00789943
0.00232873
0.00572231
0.00681088
0.00363007
0.00678928
0.00684191
0.00375665
0.00683484
0.00496501
0.00675436
0.00676447
0.00674254
0.0106731
0.00671964
0.00637629
0.00791703
0.0153247
0.00684206
0.00683358
0.00673263
0.00376274
0.00684222
0.00315172
0.00683166
0.00462372
0.00669599
0.00659298
0.000541459
0.00684748
0.00683395
0.00800035
0.00135224
0.0112461
0.00674506
0.00913892
0.0104445
0.00684904
0.00903653
0.00684677
0.00626183
0.00885559
0.00659782
0.00239906
0.00561227
0.00463402
0.00186653
0.00679376
0.00182123
0.00674665
0.00619042
0.00672918
0.00451677
0.00674806
0.00675114
0.00655436
0.0139869
0.0068381
0.00952612
0.00314566
0.011821
0.00675409
0.00478975
0.0101406
0.00259423
0.00167788
0.0014064
0.00681828
0.000989704
0.00383838
0.006531
0.00160082
0.00679288
0.00076202
0.00239721
0.00684408
0.00254436
0.00672134
0.00832688
0.00152423
0.00659011
0.00651052
0.00747468
0.0163141
0.00673501
0.00639334
0.00676028
0.00684758
0.00765703
0.00199449
0.000638632
0.00682383
0.00506139
0.0118258
0.00615859
0.00747412
0.000980109
0.00671977
0.0067365
0.00121891
0.0104816
0.00692146
0.0104838
0.00120391
0.00478371
0.00410355
0.0107771
0.010304
0.0137355
0.006719
0.0013533
0.00272397
0.00188701
0.00681059
0.00325217
0.00242634
0.00194454
0.0166689
0.00666471
0.00118728
0.00990137
0.0025413
0.00673558
0.00673858
0.00179065
0.00684358
0.0120078
0.00534699
0.00665943
0.000817794
0.00526957
0.00672019
0.00328031
0.00298506
0.00681439
0.0106036
0.00635117
0.0113403
0.00685019
0.00992069
0.000219081
0.00116408
0.00680463
0.00569324
0.00427118
0.00149459
0.000936834
0.00219544
0.00785616
0.000685606
0.00671763
0.00586686
0.00667359
0.000942156
0.00243174
0.0067767
0.00671803
0.00675013
0.000350663
0.00118837
0.00684698
0.0038833
0.000896481
0.00672603
0.005679
0.00655925
0.00990726
0.00598774
0.0117833
0.00339003
0.003726
0.00646612
0.0012869
0.00675567
0.00244228
0.00805556
0.00358791
0.00204166
0.00247577
0.00239116
0.0099332
0.00935143
0.00679114
0.0144895
0.000675929
0.00675621
0.0017266
0.00164327
0.00118549
0.00411319
0.00117753
0.014712
0.00102696
0.00881163
0.0058739
0.00252324
0.00679466
0.00682813
0.00682938
0.00675514
0.000508387
0.00197041
0.00680547
0.00261261
0.00133571
0.00675173
0.0131397
0.0101992
0.0067923
0.00684305
0.006793
0.0067546
0.00248596
0.00674718
0.00810388
0.00330792
0.00157306
0.0062362
0.00203247
0.00413939
0.00447676
0.00135362
0.00681687
0.00674267
0.00680184
0.00684589
0.0107963
0.00230312
0.00498938
0.00841593
0.00681909
0.00680958
0.00389528
0.0067999
0.00683519
0.00276601
0.00486406
0.00753405
0.015842
0.0120454
0.00678801
0.0148485
0.00675334
0.000276679
0.0067189
0.00155075
0.0121794
0.00676825
0.000565539
0.00691647
0.00432517
0.00682804
0.00678715
0.00555908
0.00863462
0.00675002
0.00683319
0.00689535
0.0069773
0.00120518
0.00683029
0.0050717
0.00671973
0.00688359
0.00155547
0.00360053
0.00651413
0.000989605
0.00231196
0.0118733
0.018006
0.00689693
0.00675677
0.00796385
0.00682063
0.00192202
0.00680403
0.00726917
0.00674047
0.00679791
0.00558917
0.0103437
0.00673327
0.00681323
0.00672523
0.00160263
0.000814479
0.000808867
0.00673244
0.00654257
0.00673526
0.00986623
0.00679012
0.00248345
0.0024319
0.00681817
0.000455921
0.00406282
0.00772123
0.00510854
0.00682946
0.00570497
0.00266933
0.00132037
0.00683258
0.00682686
0.00675455
0.0109342
0.00678645
0.006824
0.00925094
0.00669554
0.00622889
0.0048014
0.00684834
0.00683384
0.00768186
0.00387338
0.0103602
0.0125386
0.00673197
0.00627068
0.00683687
0.000923962
0.00398766
0.00680452
0.00680858
0.00672796
0.00674706
0.0203669
0.00238171
0.00906628
0.0101332
0.00676734
0.00645443
0.00477277
0.00112206
0.0067602
0.00770426
0.00935962
0.00619829
0.00678776
0.00637413
0.00682657
0.00227618
0.010812
0.00667272
0.00674617
0.00334586
0.0062355
0.00682753
0.00622176
0.00668629
0.00190434
0.000367886
0.00672617
0.0106847
0.00574482
0.00673405
0.00681069
0.00239512
0.00790918
0.0204625
0.0048664
0.00622414
0.00684756
0.00614942
0.00681128
0.00218659
0.00357777
0.0068279
0.00465625
0.00112893
0.0134574
0.00674559
0.00105624
0.014979
0.00970515
0.00680704
0.00681755
0.0104046
0.00368315
0.00288702
0.00682847
0.0164055
0.00256674
0.00675363
0.00468265
0.00571412
0.00684336
0.000447921
0.00685296
0.00596251
0.00682854
0.00670343
0.00684138
0.0067257
0.00958251
0.00680061
0.0067324
0.00156365
0.00340316
0.00646524
0.00154114
0.00684473
0.00673473
0.00671947
0.00678369
0.0142253
0.0148679
0.000174895
0.016538
0.0044325
0.00707699
0.00493154
0.0112747
0.0158072
0.00990424
0.00677542
0.00447109
0.00676204
0.00685196
0.0068472
0.00667718
0.00123862
0.00254419
0.00337254
0.00674928
0.00673589
0.00241916
0.00683538
0.00683191
0.0068481
0.0105085
0.0055959
0.00162387
0.00678216
0.0129191
0.00682384
0.00680494
0.00678722
0.00248863
0.00676657
0.00131477
0.0101483
0.00455642
0.00724149
0.00844418
0.00688483
0.00478566
0.0138391
0.000957423
0.00681137
0.00684716
0.00673364
0.0100938
0.00670642
0.00282901
0.00474609
0.00152468
0.000981306
0.000693319
0.00221286
0.0107206
0.00683466
0.00671401
0.00214176
0.00269658
0.00680257
0.00679196
0.0202984
0.00671973
0.000674483
0.00684793
0.0068008
0.00635393
0.00679206
0.00146144
0.0101225
0.00824386
0.00471465
0.00682026
0.00261741
0.0067667
0.00163754
0.0067505
0.00164649
0.00239059
0.00683076
0.00684441
0.00674317
0.00122745
0.00404708
0.00118791
0.00182103
0.0057489
0.00543358
0.00229478
0.00200466
0.00821018
0.00675613
0.0105149
0.00679197
0.0103376
0.00023047
0.0101579
0.00852984
0.00682256
0.00261933
0.00200313
0.00684881
0.00539573
0.00683982
0.00680423
0.00410644
0.00681745
0.00296774
0.00110106
0.000785877
0.0096482
0.00507146
0.00439924
0.00676277
0.00679583
0.00681341
0.000874211
0.00209807
0.0118262
0.00426809
0.00680859
0.00675704
0.00679452
0.0010118
0.00652895
0.00673817
0.00603874
0.00198173
0.00290191
0.00233291
0.00393238
0.0110458
0.00544108
0.00290231
0.00675892
0.00351215
0.000576152
0.00583507
0.00315418
0.00680253
0.0074525
0.00353513
0.00682159
0.00221005
0.0112528
0.0124576
0.00409915
0.00672183
0.01058
0.00682806
0.00672655
0.00681246
0.00737059
0.00172037
0.00688445
0.00398869
0.00773314
0.00685991
0.00409123
0.00213775
0.0115103
0.00565183
0.0107505
0.00682006
0.00598262
0.00611575
0.00952403
0.00329332
0.00684172
0.0118609
0.00676157
0.00679022
0.0144715
0.00298795
0.0026307
0.000431604
0.00373618
0.00645646
0.00325788
0.00681614
0.00672794
0.00678498
0.00274747
0.00675731
0.00514058
0.00383391
0.00617145
0.00146281
0.00680714
0.00556574
0.00684051
0.0111949
0.00766436
0.00678694
0.00683575
0.00355253
0.000941134
0.00123888
0.0015732
0.0109543
0.0106577
0.000339299
0.00662345
0.00217073
0.00660262
0.00452232
0.000823542
0.00685067
0.00685076
0.00677805
0.00676246
0.00673269
0.00274324
0.00825652
0.00549002
0.0105098
0.00299038
0.00109791
0.0120027
0.0117483
0.00582606
0.0108914
0.00100188
0.002153
0.00671749
0.00684715
0.00207315
0.00564001
0.00669947
0.00955005
0.0119654
0.0067948
0.00681426
0.00676712
0.00206048
0.0068151
0.00152077
0.0105098
0.00674279
0.006722
0.00678082
0.00680364
0.00221237
0.00960327
0.00329768
0.00410579
0.000990703
0.0067461
0.014703
0.00108489
0.00681614
0.000293931
0.0012571
0.011493
0.00273112
0.00716895
0.00685327
0.00306981
0.0100158
0.000718705
0.00542022
0.00684954
0.00666946
0.00658741
0.00426555
0.00756329
0.00166285
0.00683628
0.0051805
0.0142769
0.00967123
0.00663844
0.00692553
0.0122612
0.0117012
0.00682541
0.00548368
0.000994796
0.0067326
0.00673165
0.012211
0.00675336
0.00102404
0.0142967
0.00780449
0.00676163
0.00279926
0.0010203
0.00681693
0.00677798
0.0180377
0.00646452
0.00678748
0.00431516
0.00066797
0.00109199
0.0115424
0.00292855
0.00621636
0.0148302
0.0115763
0.00468189
0.00671969
0.0023461
0.00671889
0.00679697
0.00731058
0.00486202
0.00107884
0.00456548
0.00617068
0.00684103
0.0067598
0.00681138
0.00678958
0.00629671
0.00464181
0.00116092
0.00285708
0.00433724
0.00166868
0.00904242
0.00934183
0.00695884
0.00679569
0.00437546
0.00460154
0.0060511
0.000628815
0.0116389
0.00681353
0.00176011
0.00881842
0.00591336
0.00226894
0.00159032
0.00217454
0.00200224
0.00597563
0.00181205
0.00165984
0.00151497
0.00137211
0.00193973
0.00140381
0.0061206
0.00672476
0.00312764
0.00206938
0.00676178
0.000150544
0.0109792
0.00079351
0.0117977
0.00676655
0.00681132
0.00594657
0.00696444
0.00679949
0.00657606
0.00283558
0.0101948
0.0208029
0.00683798
0.00449564
0.00502547
0.00253352
0.0143169
0.00377405
0.000243682
0.00978623
0.00166438
0.0111131
0.00101992
0.00698577
0.0112418
0.00668646
0.00968499
0.0104627
0.00677124
0.00189715
0.00114757
0.0062679
0.00682555
0.00110363
0.0187052
0.00683999
0.0068415
0.0105882
0.00025447
0.00151138
0.00684598
0.0011068
0.000792756
0.0119989
0.00704333
0.00680647
0.0067314
0.00680428
0.00691593
0.0099614
0.0203315
0.0108354
0.00217217
0.000234699
0.0134159
0.0069271
0.00672877
0.00953021
0.00684808
0.0107075
0.00679353
0.0113616
0.0067711
0.00677429
0.0173261
0.00678025
0.00178276
0.00911315
0.00683537
0.00659807
0.00671871
0.00127169
0.00744194
0.000770757
0.0116966
0.00697999
0.00690823
0.00372681
0.00162968
0.00997776
0.0101681
0.0012407
0.00105707
0.0017308
0.00485527
0.00692562
0.00684638
0.00674688
0.00671805
0.000172702
0.00199867
0.0120671
0.00455641
0.00150836
0.00680248
0.011913
0.000420291
0.00306891
0.00673103
0.00642665
0.0067079
0.0108279
0.00536758
0.0154595
0.000177084
0.00182482
0.000669969
0.00673823
0.00275357
0.000915117
0.000203206
0.000223849
0.00675836
0.00158834
0.0068142
0.00677541
0.00177898
0.0161094
0.00178952
0.00683478
0.00145155
0.000828355
0.012564
0.00341473
0.00957325
0.0078931
0.00684284
0.00190026
0.00682899
0.00160577
0.00684392
0.000995172
0.00663156
0.00218081
0.0129204
0.00909244
0.0069602
0.00197027
0.0106003
0.00188485
0.00658863
0.0142344
0.00204049
0.00685472
0.00672754
0.00772442
0.00458316
0.000934157
0.00014536
0.00898583
0.00474592
0.00690309
0.00864395
0.0101502
0.0205912
0.00118881
0.00357807
0.00168152
0.00162444
0.00901584
0.00317244
0.00681243
0.000882544
0.00356194
0.000321771
0.00547887
0.00873408
0.000325797
0.00132681
0.00320771
0.00151958
0.00654106
0.00831987
0.00085649
0.00235828
0.00198693
0.00672027
0.00671115
0.0091786
0.00965862
0.00596293
0.00682078
0.00446524
0.00561827
0.00755219
0.00236267
0.0103194
0.00585617
0.0100145
0.000866553
0.0202544
0.00681629
0.000308246
0.0105896
0.00697406
0.002513
0.00675106
0.00486545
0.00681608
0.0142038
0.00678339
0.0067953
0.0111484
0.00387728
0.0067171
0.0103048
0.00679732
0.00684583
0.00675139
0.00683725
0.00682874
0.000343273
0.0117888
0.00678344
0.00365698
0.00213
0.00242823
0.00165686
0.00227968
0.00593866
0.00260178
0.00672097
0.0136994
0.00509612
0.00977201
0.0069111
0.00628575
0.000911489
0.00153107
0.000924933
0.00966092
0.00672236
0.00625451
0.00208097
0.00183068
0.00458892
0.00681946
0.0049012
0.00122135
0.00680485
0.0041138
0.00672253
0.00834118
0.00153627
0.00871326
0.00128934
0.00133781
0.011055
0.00684233
0.00684505
0.00238926
0.0067218
0.00683333
0.00683484
0.0057107
0.00679779
0.00672977
0.006759
0.00377466
0.00668109
0.00555367
0.0068543
0.00444803
0.00214296
0.00663239
0.00836399
0.00666698
0.00674815
0.00229037
0.00249066
0.00689182
0.00680633
0.00303094
0.00368557
0.00885712
0.00374727
0.000922698
0.00673715
0.00685055
0.00188882
0.0114514
0.00211382
0.00367916
0.00672681
0.0120247
0.00681997
0.00672985
0.00215787
0.00442101
0.000707743
0.0107283
0.00149646
0.0010523
0.00448582
0.00470763
0.00685345
0.00683595
0.00225643
0.0149676
0.00233325
0.00100372
0.0106416
0.00549941
0.00682741
0.00361022
0.00110288
0.00250155
0.00680907
0.00211126
0.00220759
0.00169883
0.0068253
0.00679844
0.000596669
0.00177569
0.000586495
0.0086587
0.00656928
0.00181044
0.00682878
0.00246766
0.00352611
0.0068474
0.000674829
0.00512789
0.00123438
0.0190656
0.00679305
0.00685157
0.00672327
0.0108024
0.00106214
0.00664161
0.00207302
0.00194213
0.00682518
0.00685354
0.000864852
0.0104464
0.000593682
0.0100676
0.00117371
0.00274716
0.000157426
0.00177938
0.002863
0.00539438
0.00239944
0.00584966
0.00681541
0.00219621
0.00162311
0.00679198
0.0025893
0.00466533
0.00184723
0.00584327
0.00148071
0.00679638
0.00604065
0.00355344
0.00671817
0.00684972
0.00674918
0.0067546
0.00678479
0.00682016
0.00377995
0.00684687
0.00679856
0.0130761
0.00220023
0.00680578
0.00174904
0.00602547
0.00717558
0.0067504
0.00241484
0.00603073
0.00283502
0.00679729
0.00678346
0.00200252
0.000488644
0.00683196
0.0068222
0.000879423
0.00392179
0.00120834
0.00182711
0.00683859
0.00190338
0.0038964
0.00679879
0.00265808
0.0107445
0.00690156
0.00197471
0.00684216
0.00322398
0.00683596
0.0056293
0.0067599
0.00678728
0.00496333
0.00181447
0.000237715
0.00236447
0.0068105
0.00540664
0.0108847
0.00263551
0.0012618
0.00177011
0.006803
0.00257693
0.00287722
0.00116416
0.0064621
0.00586018
0.00895176
0.0107552
0.00492391
0.00683278
0.00179645
0.00680301
0.00248289
0.0119657
0.00684559
0.00290909
0.00684335
0.011215
0.00252671
0.00678903
0.00173434
0.0108986
0.00949545
0.00474231
0.00155054
0.0034276
0.00671677
0.0173506
0.00673156
0.00370748
0.00674474
0.00637637
0.0106489
0.00219621
0.00678224
0.00563196
0.000175632
0.00684192
0.00683549
0.00464534
0.0063342
0.00680428
0.00475712
0.00646961
0.00682486
0.00676809
0.00219944
0.00205533
0.00124408
0.00672413
0.00227587
0.00958288
0.0051549
0.00680112
0.00684893
0.00318231
0.00169871
0.00681012
0.00679176
0.00678477
0.00684602
0.00623238
0.00369408
0.00689857
0.00210972
0.00666545
0.00675511
0.00665976
0.0024925
0.00264838
0.00199571
0.00681286
0.00509577
0.0086837
0.0048944
0.00345812
0.00520168
0.0097247
0.00215112
0.00171598
0.00135923
0.00684946
0.00681844
0.00607462
0.00240519
0.00673736