/*--------------------------------*- C++ -*----------------------------------*\
| =========                 |                                                 |
| \\      /  F ield         | OpenFOAM: The Open Source CFD Toolbox           |
|  \\    /   O peration     | Version:  v2012                                 |
|   \\  /    A nd           | Website:  www.openfoam.com                      |
|    \\/     M anipulation  |                                                 |
\*---------------------------------------------------------------------------*/
FoamFile
{
    version     2.0;
    format      ascii;
    class       volScalarField;
    location    "800";
    object      ddt0(k);
}
// * * * * * * * * * * * * * * * * * * * * * * * * * * * * * * * * * * * * * //

dimensions      [0 2 -3 0 0 0 0];


internalField   nonuniform List<scalar> 
13917
(
-1.25746e-08
8.6958e-09
-0.000442709
-7.23658e-09
-1.70951e-09
-1.5026e-06
-0.000108076
-0.000744594
-0.000357261
-7.15683e-08
-2.14549e-07
-3.15613e-07
-8.47909e-09
0.000194163
-5.79703e-09
2.15244e-08
9.94478e-09
-9.93278e-09
-3.08926e-07
-1.74331e-08
-2.5085e-09
-0.000101691
-1.03006e-08
-0.000877282
-8.71926e-09
0.000163569
-6.9989e-08
-5.06173e-08
9.82773e-08
-1.16981e-07
-6.81857e-08
-1.86733e-08
1.80279e-07
4.36462e-08
-2.53395e-09
-9.80733e-05
-1.1084e-08
-8.72908e-05
-9.99233e-09
-6.17488e-05
-4.98431e-08
-1.18855e-09
-4.60273e-08
-2.13796e-07
-2.7744e-08
-7.15151e-08
-9.39273e-09
5.8529e-08
1.65762e-06
-3.39612e-08
-3.96036e-08
-6.34933e-09
1.04636e-06
7.05478e-08
9.25983e-09
-4.55662e-08
-1.71799e-07
-3.18641e-08
-4.20562e-08
-2.51735e-08
-0.000176274
8.509e-09
0.000281546
-1.90452e-08
-3.00118e-07
0.0216919
1.19794e-09
-1.22222e-09
5.27146e-07
-9.77267e-10
-2.01291e-09
-0.00056864
0.000188421
-4.91299e-09
5.12948e-07
-4.1988e-07
0.000174145
-4.13304e-08
0.00039714
-3.05454e-09
-6.33789e-09
1.6115e-09
4.49818e-08
-0.000120338
-8.68162e-05
-4.07662e-08
-1.48212e-08
-0.0402964
-3.90279e-08
-4.57229e-08
0.000137987
-1.93228e-07
-7.87053e-09
2.49324e-09
0.0521089
1.25173e-06
-8.08018e-08
3.21112e-08
-9.92224e-07
-7.21026e-07
-4.14417e-08
1.83585e-07
-2.04997e-07
-4.06374e-08
-2.64904e-08
-0.000408452
4.47744e-07
7.87986e-08
1.02831e-08
1.41825e-08
4.08385e-05
-5.78539e-05
-4.91651e-07
-0.000347879
-3.34386e-10
-2.01041e-07
-7.92635e-09
-3.62847e-07
-0.000205275
9.7419e-08
-1.06274e-09
6.67195e-07
-0.000177189
4.0014e-08
-3.95266e-08
-3.43903e-10
-1.48009e-08
-4.06541e-08
-5.16892e-08
-5.16957e-06
-0.000180288
-1.27676e-09
-2.63749e-08
-1.69175e-09
0.0138298
-0.000858892
-4.81154e-08
-3.68554e-07
9.50922e-10
2.55503e-08
-1.68168e-06
-2.26964e-08
-7.04014e-09
-7.99896e-09
6.50054e-10
-0.0010794
-1.01782e-06
-6.81562e-09
-2.12584e-08
-1.54873e-08
-8.04784e-08
-2.28223e-07
-2.34732e-07
2.24217e-09
-3.79092e-08
-5.30813e-05
2.07537e-09
-0.000754287
0.000179509
-0.0309449
1.03573e-08
5.48094e-07
-1.98475e-09
-5.41009e-08
-4.68729e-07
-1.12107e-06
-4.18051e-08
-1.77327e-08
-1.98852e-08
1.64306e-07
-4.30275e-08
-7.01393e-05
-5.09029e-07
1.34455e-08
-0.00170618
-7.0141e-08
-0.000180319
-1.65912e-06
-0.00123177
-1.96674e-08
-1.86817e-07
-7.22825e-08
-2.31791e-08
-1.45999e-08
1.20727e-07
0.000256355
-3.79463e-07
-4.03232e-05
-3.74205e-08
-6.86255e-07
-4.28859e-05
-9.94459e-05
9.62038e-08
-8.63537e-09
-1.06378e-06
-3.93477e-07
-5.4238e-08
-6.27637e-09
-5.01964e-09
-0.0124545
-2.43136e-08
-3.39585e-08
-3.47696e-08
-7.9581e-08
0.000194024
6.91535e-05
-1.5277e-09
-3.08191e-08
2.70765e-08
4.95989e-05
-9.94848e-09
-0.000161118
0.000194437
-6.82443e-07
-2.48254e-08
1.11336e-06
-2.58094e-08
3.42397e-05
-2.26634e-08
-6.73638e-05
-2.33177e-08
5.88384e-08
-4.89998e-08
-6.10384e-05
-0.000318756
1.3447e-08
2.28041e-05
-3.85229e-08
-2.57231e-08
0.000180312
-5.06286e-07
-3.70997e-08
-0.000691105
0.000192803
-4.71076e-08
-2.2721e-08
0.000122363
-6.05448e-05
-7.3288e-09
-2.64072e-08
1.33271e-05
5.01444e-08
-3.57948e-09
-0.000178593
1.52767e-07
1.31403e-08
-1.93798e-08
-4.54201e-09
8.28493e-10
0.000199947
-2.37143e-08
-2.06272e-07
6.16874e-07
-1.52587e-08
-3.16131e-08
-2.15368e-07
2.01327e-05
-2.41309e-07
6.79736e-08
-1.20045e-08
-2.70368e-09
-0.000190765
0.000511924
-5.84733e-05
-2.90325e-08
0.000173658
0.000141835
-0.00124792
0.000335494
-4.86336e-07
-4.95968e-09
-4.14793e-08
7.94375e-10
4.2064e-05
3.71246e-07
-4.27688e-08
0.000172581
-9.37569e-08
-5.60387e-08
0.000874087
-1.85497e-08
-0.00171921
-2.34064e-08
-7.34525e-09
2.0431e-08
-1.9472e-08
-5.62439e-07
0.000102886
2.74337e-08
-3.16303e-08
-6.71199e-05
-0.000796139
0.000438383
-2.18665e-08
-0.00144224
3.58959e-10
-3.13301e-08
-6.99134e-09
-4.6473e-06
-2.68931e-08
1.47062e-07
-1.79278e-08
-2.01237e-08
-5.83006e-08
1.08455e-09
5.51158e-07
-1.59937e-08
-1.1541e-07
-2.69903e-08
-3.18851e-08
1.96281e-05
-0.000169302
-9.10148e-09
-4.67622e-08
0.00078929
-1.3553e-08
0.000185241
-2.52827e-08
-8.18522e-05
-1.29415e-08
2.13177e-07
-4.57924e-08
-6.04155e-08
-9.28648e-09
0.107331
-9.30958e-07
2.51446e-08
4.68947e-08
9.13051e-06
-8.47114e-09
-0.000167007
2.21192e-06
8.77608e-05
1.43641e-07
-0.000166661
-2.60163e-08
-7.40767e-05
-1.22154e-06
3.52856e-09
-3.41348e-07
-0.000343436
-5.39741e-09
8.36077e-09
4.61417e-05
-2.19618e-08
1.59569e-08
8.17485e-05
4.65812e-08
1.2933e-08
1.61456e-06
-4.50801e-07
-3.88439e-08
-0.000188716
2.85413e-05
-1.97611e-08
-2.94532e-08
3.61457e-09
-2.26315e-08
-0.00011887
-0.00142338
-1.70493e-05
2.74768e-05
-3.65257e-09
-4.56318e-07
-2.26369e-05
-5.25296e-08
-0.000142581
1.43417e-05
-0.000245188
-4.0993e-08
-6.76538e-05
-3.31439e-08
7.5077e-05
-2.34024e-08
-4.8083e-08
1.38969e-07
-1.19313e-08
-7.25439e-09
3.25974e-08
-9.48935e-09
8.12919e-08
2.89302e-06
-5.52563e-05
1.48159e-05
1.96805e-07
4.22237e-08
-2.5073e-08
-6.52708e-05
-4.77294e-05
-2.57359e-08
-7.75814e-06
1.52377e-09
1.5139e-05
-1.25845e-08
-4.959e-09
4.58462e-09
0.000615154
6.03227e-09
5.6809e-05
1.1538e-06
-4.2066e-07
2.19878e-06
-6.11121e-09
1.14275e-06
1.59991e-06
-1.08407e-08
5.73565e-08
-2.47673e-08
-1.46591e-09
-1.25057e-07
-5.71872e-09
-5.33208e-09
-3.03712e-08
7.46691e-05
-2.65953e-09
-0.000182924
0.00102431
-1.34455e-05
7.20742e-08
-7.06479e-06
8.6328e-05
-5.15614e-08
-3.26894e-09
2.73616e-07
-8.5196e-09
-2.27697e-08
-7.79661e-09
-0.00126516
1.92294e-06
0.00128929
-7.69605e-09
2.74938e-07
5.70545e-10
-1.10879e-08
4.66126e-08
1.4035e-08
-8.5779e-05
9.05778e-09
-2.47626e-08
0.000180674
-0.000178801
-0.000176791
-7.91672e-08
-8.04009e-06
-0.000181995
0.000135964
0.000121122
-5.05796e-08
2.73633e-08
1.4551e-08
-2.77684e-08
3.86415e-05
-5.93767e-09
-5.89977e-08
2.84849e-08
-4.51083e-08
0.000114667
-1.03857e-08
3.30047e-07
7.55642e-05
1.91533e-06
-0.000184882
-2.73846e-09
-2.55485e-08
-5.35727e-08
3.4599e-09
-3.9986e-08
0.000550926
1.29024e-06
3.25312e-08
-6.16597e-05
-4.64844e-08
-6.15831e-08
0.000151148
-6.75904e-07
-3.3778e-07
5.26675e-06
4.15268e-07
-2.01483e-08
4.6149e-07
-1.08594e-07
-1.18362e-06
-1.23328e-07
-1.55758e-07
8.33229e-08
-5.77327e-08
3.61201e-05
-4.08985e-08
-3.74593e-08
-1.56226e-09
-4.27692e-08
0.000103847
-0.000434923
-1.66958e-08
-5.91665e-08
0.000310172
7.79973e-05
-6.44089e-09
-0.000193724
-2.06449e-08
-2.18934e-07
-1.49718e-08
0.000197823
-0.000178102
-1.65403e-08
-7.33839e-09
4.21801e-05
-3.83454e-07
-2.50458e-05
-2.73698e-09
0.000196862
4.99108e-07
0.000731246
-3.69738e-08
-7.70834e-05
0.000291449
-5.90358e-08
-2.87488e-08
6.32221e-09
-4.10371e-07
7.60074e-05
-6.1336e-08
-2.853e-08
-3.32381e-08
-3.42709e-08
0.000176303
0.000135114
-5.67981e-08
4.11871e-06
-4.41204e-08
-4.01466e-08
2.80701e-07
0.000210238
-3.94012e-08
-2.31547e-08
-3.12542e-09
6.32543e-10
0.000635797
-0.000119397
-1.11282e-08
-7.20489e-10
-8.68341e-05
-1.08093e-07
-4.45782e-08
-2.88773e-08
6.55674e-09
-7.49211e-09
6.06843e-08
-2.63853e-06
2.50225e-06
3.28803e-07
1.18977e-07
5.99697e-05
-7.25039e-08
-1.77736e-08
0.000201986
5.14765e-10
1.63034e-08
-1.7603e-08
0.000435069
-1.21376e-07
-4.98753e-08
-1.00129e-06
-7.80236e-08
-1.95791e-05
1.35632e-07
4.6232e-07
-4.36794e-08
-6.48408e-09
0.000360053
6.1616e-09
-0.000324345
7.49386e-09
-4.30039e-08
3.1427e-06
1.17334e-05
0.000110296
4.95954e-08
-2.03402e-07
2.20177e-08
-2.78426e-08
-2.73178e-08
-1.11025e-06
-2.02878e-07
4.13396e-09
-1.94997e-08
6.03919e-07
-0.000358105
-2.92108e-05
2.5669e-09
-5.55554e-09
-0.000134644
1.50717e-08
-1.0782e-08
-1.29507e-06
-0.000183781
-0.00121529
8.68097e-06
-5.04492e-08
-0.000194852
-4.14029e-07
-5.48134e-08
-3.75269e-08
-3.26306e-08
4.64614e-08
-1.23347e-07
0.000330538
1.08793e-07
-8.34572e-08
0.000350697
-4.11554e-08
0.000143783
-4.57123e-09
-1.1856e-08
-0.00170683
-0.000237476
1.41705e-06
-4.20765e-08
1.30005e-08
-6.70042e-10
-9.83861e-08
9.8862e-07
-9.14262e-07
-2.84646e-08
-4.47562e-07
7.03882e-09
-1.52252e-08
-0.000132245
-8.65334e-07
1.43369e-05
-2.93162e-08
6.61101e-08
-4.24273e-08
3.44133e-05
-1.96043e-07
-8.75541e-08
-4.33206e-08
-4.30401e-08
-3.48589e-08
-1.6273e-08
-1.37837e-07
-8.93629e-08
5.8763e-05
-9.20599e-06
-8.5261e-09
-3.8483e-08
2.18669e-07
1.80447e-07
-0.000113566
-2.61293e-08
6.29202e-08
-2.80702e-08
-3.23026e-08
-4.45474e-08
0.000283414
-5.1608e-09
0.000121373
-3.12409e-08
-2.20065e-07
-9.99862e-08
0.00018846
-2.67886e-07
4.07736e-09
8.19899e-05
6.70364e-05
-1.59462e-08
-1.67966e-08
-0.000136829
-6.29198e-07
4.09561e-07
-9.70505e-09
-1.09743e-08
3.73057e-07
-1.20361e-08
8.7418e-08
-2.1446e-07
-3.52868e-08
-8.37375e-08
-0.000503514
-2.37278e-08
-8.21359e-09
-3.14412e-08
-0.000156454
-1.27671e-09
7.05399e-09
-6.80244e-05
1.46259e-08
-0.000344411
-3.68261e-08
1.75497e-07
-3.12995e-08
-3.81697e-07
-5.68868e-09
-9.29651e-09
-4.32226e-08
8.57804e-08
-2.15677e-08
-1.10499e-05
7.01358e-06
0.000233042
-5.4409e-08
-6.10176e-09
-1.80234e-08
1.58248e-08
-4.95046e-05
5.93227e-05
3.57018e-09
-3.33224e-09
6.78571e-05
-4.59549e-07
1.76465e-05
-9.16545e-06
1.92464e-08
0.000574418
-2.53919e-08
-7.96249e-08
-6.9616e-07
-2.1634e-07
-5.00455e-09
-4.02051e-07
2.65878e-08
-1.03383e-08
-4.85885e-09
2.06525e-08
-3.60538e-08
-3.14648e-08
5.1242e-08
-1.15091e-08
-4.03382e-09
-4.16751e-08
-1.52648e-08
-3.03788e-08
1.11711e-07
8.22384e-10
6.07603e-10
-1.54258e-09
1.28032e-08
-4.44156e-08
-9.9979e-09
-3.10805e-08
0.000189753
-3.03763e-07
-1.27476e-06
-4.22961e-08
-5.04681e-09
2.48227e-08
-1.88882e-09
-1.89919e-10
0.000694782
-6.2542e-10
-0.000352918
-3.23936e-08
1.29842e-07
-3.7148e-08
-1.96182e-09
-3.68637e-08
-1.59697e-10
-8.42951e-05
-3.20044e-09
6.28808e-05
-1.02299e-08
-2.60785e-05
-2.52292e-07
-1.18456e-08
-3.57343e-07
-3.35268e-08
8.4301e-12
-3.14344e-07
2.25315e-10
-1.02312e-08
0.000804658
1.39985e-08
-3.55151e-09
-4.32725e-08
-2.6856e-08
-5.86583e-08
-1.86153e-08
-6.11514e-07
-5.32881e-05
-3.34385e-08
-2.35598e-08
-5.11499e-08
-2.02693e-05
-1.0231e-07
-7.73005e-09
9.07672e-09
0.000814766
-8.76948e-05
-3.4221e-05
6.43423e-07
-1.08985e-08
-4.73484e-08
-5.71629e-08
-1.5826e-07
-2.46614e-08
-3.61983e-05
-4.5031e-09
-0.000150962
5.28672e-09
1.10651e-08
-5.0193e-05
1.85543e-09
-3.96405e-08
-2.40672e-08
-2.64272e-08
3.74586e-08
-3.18913e-07
-3.71505e-08
-0.000402684
-6.50379e-05
-2.21668e-07
-1.93025e-08
-4.03343e-08
-7.87136e-07
0.000113915
-6.86711e-09
-2.09202e-05
-4.19851e-08
3.00993e-08
-3.21012e-08
-3.31698e-08
0.000116142
-3.48594e-08
0.00187306
-2.99558e-08
-5.35946e-10
-4.35064e-08
-4.83041e-12
-3.2193e-08
-8.80336e-09
-2.39769e-06
-2.83102e-08
-2.97637e-08
-0.000471244
-0.000932811
-8.56245e-08
-2.438e-08
4.54413e-08
-4.43613e-08
-1.9446e-08
-2.00417e-07
0.00019695
-3.92643e-07
-8.1205e-09
-6.83068e-09
-2.56629e-05
-3.74495e-08
2.34403e-05
-2.35143e-09
-3.46555e-10
-0.000178477
-4.25389e-08
-3.96832e-08
-6.6846e-05
-1.42951e-06
-3.12472e-08
3.54577e-07
-3.75061e-08
-3.46322e-08
-3.88936e-08
0.000177796
-4.70137e-08
-1.91971e-08
-2.06808e-08
0.00199493
-1.01191e-08
-2.00786e-07
4.06231e-08
-3.46415e-08
-3.07201e-08
-1.37271e-08
2.19485e-05
-2.07938e-08
-2.76636e-08
-4.09016e-09
-7.68778e-07
-2.41343e-09
1.52233e-07
-2.03236e-05
-0.000581966
9.45555e-08
2.25577e-05
-5.59495e-05
-3.25639e-08
-0.000198374
-0.000166923
-4.26957e-05
-3.50313e-05
-0.000435062
-2.37815e-05
3.29453e-07
8.41099e-09
0.000337522
-4.16223e-08
-9.64869e-05
-3.57931e-08
-8.28618e-09
-4.32215e-09
-1.58687e-08
-4.18428e-08
-2.07271e-07
-0.00014154
-9.20585e-09
-1.35299e-10
-2.47002e-05
-6.43344e-07
1.27764e-09
2.99446e-07
-4.14419e-08
-3.73758e-08
1.00796e-05
7.00863e-07
2.65563e-08
-9.86146e-09
-8.27682e-05
-4.45333e-05
9.04849e-07
-3.41206e-08
-4.69787e-08
-7.05111e-08
-6.80128e-05
-0.000159354
-5.4536e-07
-1.45191e-08
-3.694e-08
5.29011e-09
-4.82141e-08
9.20924e-09
-5.05053e-08
-8.44916e-09
-2.88044e-08
-6.93347e-05
6.0015e-07
-1.95004e-08
1.20985e-07
0.000154722
1.90023e-08
-1.56278e-08
0.000162227
-1.93406e-08
-1.43558e-08
-1.92756e-08
-6.63084e-05
1.18812e-09
-2.91019e-08
-0.000223098
1.46055e-05
-2.95021e-05
3.01817e-07
-3.2199e-05
-3.12236e-08
2.81715e-07
-1.44375e-08
-1.45379e-08
-1.10211e-08
0.000378602
-1.28816e-05
-3.27103e-08
-4.66753e-08
-2.07441e-08
-0.000181425
1.16938e-08
-4.2747e-08
4.68767e-10
1.20356e-08
-4.57247e-07
-3.26784e-08
-3.44337e-08
-7.59221e-07
-0.000170777
-1.40604e-08
7.09521e-07
4.87137e-09
0.000191196
0.000153835
-2.23475e-09
3.01313e-05
3.97004e-08
-8.16534e-07
-1.33316e-09
0.000510059
-3.83568e-09
-4.62479e-08
-6.414e-08
2.04951e-07
0.000185991
4.14088e-06
-2.89613e-06
-2.78148e-05
-4.59944e-08
1.69369e-06
-3.45195e-08
9.65535e-09
-0.000272452
-2.54551e-08
-3.11772e-09
-2.1477e-09
-3.40115e-08
-6.74893e-05
-3.55169e-08
-9.68096e-09
-8.40855e-08
-4.41294e-08
-1.67663e-08
-1.22813e-07
-1.05985e-06
-7.84999e-05
-2.73219e-07
-3.76153e-08
-7.52803e-08
0.000100332
-9.73314e-08
-0.000389649
0.000133281
-2.66386e-08
-3.12617e-08
0.000117665
1.21183e-05
-9.69811e-09
1.80254e-07
-3.93265e-08
-1.66929e-08
-4.11061e-08
-3.50601e-08
-1.13121e-07
9.09955e-12
1.68707e-08
6.74418e-08
-3.24142e-08
1.5082e-08
-3.23897e-08
3.87013e-07
-4.43038e-08
8.60792e-08
2.95673e-09
-2.92818e-08
-3.38703e-08
-3.16156e-08
-4.90409e-07
6.37609e-08
-0.000557038
-6.79829e-09
5.86946e-09
-2.74114e-08
-2.60161e-08
8.57827e-08
5.15137e-08
-1.70048e-08
1.61341e-07
-3.29478e-08
0.00027028
-9.03086e-09
-8.34449e-08
5.23876e-05
1.13705e-05
-3.23903e-08
1.46493e-08
-4.90946e-05
-1.42292e-08
-2.86034e-08
-6.79753e-05
0.000178277
-5.4326e-08
-1.97624e-06
-1.87017e-08
-3.23379e-08
0.000410215
-1.29022e-09
-3.29839e-08
7.78289e-06
-3.35303e-08
0.000321534
-7.24866e-09
-3.21402e-08
-7.99484e-09
-1.14769e-06
-0.000154161
-2.59002e-08
-1.13098e-08
-3.0518e-08
5.29716e-09
-2.84786e-08
-1.26334e-06
2.58791e-08
-2.99599e-09
-0.00145012
3.52294e-07
-9.27641e-06
-0.000198065
-1.21688e-06
-3.24483e-08
-1.64977e-08
-2.04399e-08
1.9732e-07
1.35937e-08
-0.000165846
-4.67305e-05
3.49133e-09
-0.000228918
3.5201e-07
-2.5391e-08
-1.43438e-06
-4.95061e-07
4.31195e-07
0.000184729
1.02127e-06
0.000584637
-0.000156469
-2.65503e-07
2.64431e-08
8.21621e-05
-4.18384e-08
-3.6003e-08
-3.98874e-08
-0.000242524
4.84088e-09
-1.70325e-08
-3.48641e-07
-4.62567e-08
-1.78131e-08
2.47295e-05
1.14452e-08
2.35826e-05
-8.55535e-08
3.54754e-06
3.54832e-07
-4.50614e-07
-4.27599e-08
-3.09137e-08
1.27382e-08
-0.000447303
-1.10698e-08
-6.48114e-09
-5.44613e-08
7.23217e-09
-1.08381e-08
3.02581e-09
-1.48345e-06
1.16791e-06
9.80683e-07
7.98073e-07
0.00142281
3.48725e-06
-1.58806e-08
-0.000200163
0.000726648
-3.1697e-08
-2.94701e-08
-4.24929e-08
-8.41046e-05
-5.89729e-10
4.42605e-08
-8.29468e-06
-3.41088e-08
-1.37682e-08
-1.28658e-08
-3.35608e-08
1.43786e-07
-1.67519e-08
-3.08097e-08
-7.9883e-05
0.000500399
-3.35767e-08
-1.76866e-06
-2.91138e-07
0.0115019
1.38306e-08
-4.64134e-08
0.000831902
-0.000174382
-5.06247e-07
9.9126e-07
-2.40078e-08
-1.84974e-09
-3.3525e-08
7.69824e-09
-7.71163e-09
-6.00825e-09
5.36542e-08
-3.0293e-08
-2.0912e-07
-2.56135e-08
-4.27604e-08
-3.54763e-08
-9.69568e-08
-4.99827e-07
1.81759e-05
-3.22438e-08
1.64401e-08
-3.35658e-08
0.000312749
1.52094e-09
1.01938e-07
-8.52775e-09
1.70199e-06
0.000191996
-6.35348e-07
-3.18827e-08
5.79714e-07
-9.03374e-09
-2.42338e-08
0.000184016
-3.24716e-08
-1.21645e-08
3.46381e-08
-3.81078e-08
-0.000186516
-3.07056e-08
5.06024e-08
-7.22224e-09
-4.38627e-09
-1.15376e-07
1.20268e-08
-4.37129e-08
2.26459e-09
0.000204752
-2.26061e-08
0.000268113
-0.0012732
5.12233e-09
-0.000136457
-1.73866e-08
-4.36115e-08
9.55701e-08
0.000139062
-8.94044e-09
-2.91593e-09
-7.70914e-08
-0.132468
-3.00053e-08
-1.38406e-05
3.5066e-08
8.89749e-08
-2.55164e-08
-4.05288e-08
-2.34248e-06
-1.2258e-08
-1.03197e-09
3.39651e-08
-3.62792e-08
1.41485e-08
-3.03937e-08
-2.00995e-07
4.13865e-06
-2.28044e-06
-9.4856e-09
-1.22919e-07
0.00150338
-2.05924e-05
-7.87405e-08
-4.39772e-07
-7.87337e-05
-2.84797e-08
-0.000152609
-2.28489e-08
0.000357516
-8.06411e-06
-3.82496e-08
-6.04252e-09
-2.19554e-08
-1.85158e-08
-1.46167e-08
-3.54924e-08
1.05353e-07
-5.87474e-07
-4.13693e-08
-2.57516e-07
0.000152619
3.3023e-08
-3.89442e-08
-0.000354355
-3.85604e-08
-0.000196017
-1.47875e-08
-1.1748e-06
-2.8749e-08
0.00017844
-4.71007e-05
-6.76569e-09
-2.01787e-08
0.000758735
-2.07002e-08
-3.23457e-05
-2.88446e-08
-3.366e-08
-0.000331973
-2.93235e-08
-3.59996e-07
4.63861e-06
1.14793e-09
-1.37882e-08
-2.82047e-08
-4.14849e-08
-4.6198e-08
0.000483325
-6.54004e-05
-2.46364e-09
-3.65385e-08
-2.85215e-08
-9.82152e-09
-5.36368e-07
0.000140392
-6.73077e-09
1.20619e-06
-0.00159938
1.10541e-05
-0.00023024
-3.17279e-08
-9.23682e-07
-1.34435e-07
-1.88522e-08
3.1115e-10
-1.81069e-07
8.71264e-05
-7.55921e-09
-1.20535e-07
-0.000970752
1.22604e-06
8.65776e-08
-6.07924e-08
-1.05948e-08
3.77568e-10
-5.76997e-10
-6.94116e-05
-1.87996e-08
-2.55273e-08
-1.96543e-08
-4.26175e-08
-4.57508e-10
-2.95592e-08
-1.18365e-09
-1.17816e-07
-7.4443e-08
-0.00158862
1.18776e-06
-7.9144e-06
6.9845e-05
4.60656e-09
-7.36341e-09
-4.01931e-08
-4.67345e-10
0.000170403
8.13425e-09
1.02652e-08
-1.02938e-08
2.70143e-07
-1.78609e-07
0.00109639
2.01329e-05
-1.71844e-08
-6.00991e-05
-4.61695e-08
-3.72568e-08
2.55949e-07
-9.62861e-10
-2.34204e-08
3.66357e-07
0.000596711
-3.32234e-08
0.000979047
7.19988e-09
-3.33604e-08
7.64952e-09
1.37849e-06
-2.12863e-08
-1.3919e-08
-0.000192216
-4.25607e-09
-1.73238e-05
9.07617e-05
-6.49165e-09
1.24611e-06
-2.86776e-08
4.95597e-06
8.638e-08
3.31276e-10
0.000556427
1.95756e-08
-4.08013e-08
5.39834e-11
-5.24016e-05
-7.32861e-08
3.61736e-06
-9.12588e-09
-7.04334e-08
0.000141995
-3.07462e-08
-1.91251e-06
-2.66017e-08
1.16519e-08
5.46984e-08
-6.61416e-09
-5.67424e-05
1.48112e-08
4.11331e-07
2.51472e-08
5.19027e-07
4.28606e-08
-2.06363e-07
-4.89798e-09
-0.000929538
1.99306e-08
-0.000182732
1.76442e-07
-1.79792e-07
-1.00447e-08
-9.16868e-08
-1.66888e-08
-3.24375e-07
-8.37234e-05
1.33627e-08
-1.83103e-08
-3.74467e-09
-4.21925e-08
0.00175847
-3.17277e-08
0.000707648
1.14735e-05
-2.59481e-08
-1.16575e-08
-2.55669e-08
-1.53117e-09
-4.95659e-08
1.38151e-07
-2.57951e-08
-1.1478e-07
-1.21288e-08
-1.96645e-08
0.000194584
-3.67238e-08
-1.88007e-08
0.000935716
-1.38632e-08
5.83824e-05
-3.67712e-08
-3.29102e-08
-2.50356e-07
0.000130628
5.01365e-05
0.000381423
0.000784383
-2.83799e-08
-3.87455e-07
-6.96513e-05
-6.78998e-06
-1.40995e-08
-9.18601e-09
-9.79002e-08
0.000510008
-0.000185253
1.08685e-05
-1.33457e-08
-4.35745e-09
-2.81997e-08
1.05826e-05
-6.75528e-06
-6.56723e-08
3.36044e-08
1.09676e-08
7.74265e-08
-5.5573e-07
-1.63044e-08
1.67565e-08
0.000958227
-2.93398e-09
-0.00093652
-5.68554e-09
-3.37746e-08
3.39142e-05
6.53433e-05
-4.06085e-08
-1.23921e-08
-1.49029e-08
-3.26454e-08
3.7522e-09
1.74425e-07
-1.31677e-08
-1.74741e-08
-1.62896e-08
-9.87708e-08
-2.91272e-08
-2.5046e-08
4.88227e-05
-2.99932e-09
0.000126105
-5.60353e-05
-0.000240642
-1.10427e-07
-3.55418e-08
-0.000128418
-4.01538e-08
0.000370229
0.00228628
-0.00571889
1.1478e-08
8.64154e-05
-4.203e-05
-4.70941e-08
-5.3737e-09
3.39659e-08
-3.07766e-05
0.000408886
-3.35207e-08
-1.17578e-08
-0.000174671
-0.00348141
0.0129045
-1.15735e-08
6.44635e-09
-1.47858e-07
-1.73906e-08
-0.000201373
-4.67e-05
-0.000125691
0.0174569
-1.55462e-08
-3.29714e-08
-3.96616e-08
1.36074e-08
-0.000132837
-7.39513e-08
-2.3962e-08
-1.4259e-09
2.23401e-07
-8.43837e-05
-9.77885e-08
-0.000564512
-3.31807e-05
-0.000192662
1.16375e-06
9.63682e-10
-1.08884e-08
0.000721806
-3.88128e-08
-3.47694e-08
1.17306e-08
7.48398e-07
-3.43697e-08
-3.43751e-05
-3.39528e-07
-2.10063e-09
0.000134291
-2.81486e-08
-1.02333e-08
-3.49225e-05
-4.34874e-07
-2.56198e-07
-2.47271e-08
-1.02421e-05
7.6261e-05
-3.12582e-09
0.00085342
-0.0017739
-0.000142858
-0.00875991
-6.5414e-08
-2.87748e-08
-3.36752e-08
8.72379e-05
-4.29206e-08
0.000332797
-9.24053e-09
-0.0014072
7.30239e-06
-7.59627e-09
5.50393e-08
-1.8e-08
-1.15589e-08
-8.41701e-05
-0.000199106
1.32944e-10
-4.45974e-05
-6.31886e-08
-1.35689e-08
2.04674e-08
-2.72194e-08
2.17199e-07
-1.37449e-08
-5.97459e-07
-2.81962e-07
-2.49078e-08
-4.65431e-08
1.40224e-06
0.000164738
-2.73468e-08
9.07616e-09
-4.91901e-09
-1.36795e-08
-3.9532e-08
-3.79107e-08
-8.0745e-05
-0.000181285
1.45309e-05
-3.73009e-08
-4.33137e-08
9.36368e-09
-9.12927e-07
-2.78882e-08
1.10933e-08
1.96935e-07
-4.17561e-09
-0.00586584
-3.91404e-08
0.000127728
-0.000172475
-4.38207e-09
-8.09804e-05
4.40723e-07
-7.71699e-08
7.79126e-07
8.07542e-09
-6.362e-05
-2.04013e-09
2.22077e-09
-1.40554e-08
-4.01542e-08
2.0369e-05
-5.50571e-08
-1.03037e-08
-1.50145e-07
1.5128e-05
-0.000151293
-6.53466e-09
-3.75136e-08
-2.37226e-08
-1.12501e-08
3.91415e-07
-1.12881e-08
4.4147e-08
-3.49199e-08
8.57252e-05
-1.80041e-08
-0.000301621
-3.37795e-08
0.000246328
-2.59825e-08
-4.01676e-08
-0.000144018
-2.86226e-07
-2.23982e-06
-0.000113125
-5.47412e-08
-2.81161e-08
-6.75426e-10
4.74022e-05
-1.5735e-10
-2.8083e-08
1.84051e-08
-3.00719e-07
-5.61152e-05
-6.27779e-05
1.76144e-07
0.0005639
-1.00201e-07
-0.00265355
-5.98901e-08
-4.71203e-08
-3.90658e-08
0.000173757
-2.24735e-08
0.000167308
-0.000179478
-2.08826e-08
-7.41857e-10
-2.34507e-08
0.000160147
-1.39825e-06
-3.84351e-08
-7.73193e-09
6.07238e-09
-2.64837e-08
-3.0852e-08
-0.000104537
1.3465e-06
-2.13738e-08
-1.27629e-05
-1.36584e-07
0.000179676
1.19363e-07
1.12191e-08
-3.6095e-08
0.000147613
-4.22511e-08
3.2375e-08
-7.54848e-05
3.65893e-09
-1.17262e-08
-4.82273e-08
-1.82933e-06
-5.19681e-09
-0.000181207
-3.96189e-08
1.1786e-05
-9.27078e-08
-4.50973e-08
-2.73716e-08
5.80695e-05
-3.49991e-08
3.19917e-09
-6.04582e-07
-8.74043e-05
-2.73306e-08
-4.83741e-08
-2.60303e-08
7.05763e-07
-6.35327e-10
-0.000110305
-3.58563e-08
-3.47649e-08
-4.35456e-08
-1.83698e-08
-3.39351e-09
9.4539e-07
-5.48275e-10
-1.69822e-08
-2.25563e-08
-5.38815e-08
-5.11035e-09
-5.81819e-09
-9.94284e-08
-1.3583e-07
5.5226e-08
7.91835e-10
4.78223e-07
9.05863e-07
-9.5692e-07
-2.72337e-08
-1.57132e-07
1.80623e-07
-0.000727105
1.36929e-06
-3.43506e-09
0.00101744
0.000785223
-2.99412e-09
-3.89611e-08
-4.21944e-08
6.90137e-06
8.77378e-08
-2.85649e-08
-2.97816e-07
0.000184304
-5.22728e-08
-6.4508e-09
0.000881027
-0.000180629
-3.15794e-07
-3.69075e-08
-0.00141612
0.000159752
4.26474e-08
-4.96034e-09
0.000167007
-4.92857e-07
-8.56534e-08
-3.56075e-05
-4.52682e-08
-4.21242e-08
-4.23596e-08
1.07747e-07
-4.27835e-08
0.000715755
0.000149336
-1.77513e-08
0.000137809
1.57856e-07
-6.57171e-05
-3.62529e-08
-6.6541e-07
-1.10026e-10
-2.62133e-08
-0.000197774
-0.00017534
1.03927e-05
-0.00103054
5.23026e-08
1.57401e-08
-6.78561e-08
7.99959e-06
-0.0002053
3.82032e-10
-4.34049e-09
-6.2631e-08
-2.97012e-08
-4.63227e-08
-0.000435519
0.000723882
2.34259e-08
-3.05601e-08
-2.31732e-08
-0.000100369
-8.69834e-08
1.33455e-08
-1.97304e-08
1.24868e-08
-4.62347e-07
-0.000302329
7.94852e-06
-8.15639e-07
-1.1154e-08
2.52004e-05
-5.81735e-08
1.06035e-07
8.51824e-05
-6.77315e-05
-1.58187e-09
8.2278e-11
-6.98063e-08
-2.65954e-08
-9.62205e-09
-0.000314456
0.00018606
-2.64e-08
-5.19423e-08
-3.26153e-09
-2.01049e-08
-1.57981e-06
-3.47668e-08
0.000935122
1.17511e-07
-2.89364e-07
-1.27674e-08
-5.74501e-08
0.000141158
-4.16661e-08
-4.92327e-07
-8.68291e-05
-1.29379e-08
0.000183851
-1.00142e-07
-4.90653e-07
1.56329e-07
5.98681e-05
-6.55497e-05
-2.54318e-07
-3.03139e-08
-1.19293e-06
-3.39836e-08
-1.4606e-07
-1.73485e-08
0.00112326
-7.08066e-08
-0.0447032
3.89712e-05
2.41752e-08
-2.71826e-09
1.47455e-07
-4.12389e-08
-2.60911e-09
3.65813e-06
-5.27659e-08
-6.09143e-08
-3.85091e-08
-1.82908e-08
0.00029606
1.50809e-08
1.84991e-05
-1.9581e-09
-2.62059e-08
-0.000119149
-0.000190141
-5.73149e-09
3.66514e-08
-8.3858e-08
2.14502e-09
-1.89617e-07
-2.49192e-08
5.31186e-08
-4.7221e-08
7.24906e-06
2.44841e-08
0.00120803
-7.44717e-08
-5.82693e-06
-8.67078e-07
-3.24403e-08
-0.000391871
-5.47285e-08
-6.81211e-05
-9.19798e-08
3.82929e-05
0.00155539
0.00058814
0.00213051
5.21528e-06
4.94508e-07
-2.83395e-08
-0.000360157
7.28812e-08
-1.956e-09
-6.32657e-05
-0.00140571
4.22015e-09
-2.49795e-08
-3.04274e-08
-3.09944e-08
-4.37189e-08
0.000197127
-3.59746e-09
-3.3907e-08
-6.26125e-08
6.93074e-08
-1.28508e-08
-3.30103e-07
-4.06708e-08
0.00104719
7.50031e-09
3.43448e-07
-3.89234e-08
-2.60982e-08
-2.81483e-07
-0.000182134
-1.03511e-07
-1.95187e-08
-4.92039e-08
-0.00026637
-0.000296214
-2.71062e-08
0.00115055
-4.53796e-08
1.76364e-05
1.18757e-09
3.0515e-08
-0.000177118
-1.89455e-07
-6.66067e-05
1.74591e-06
-2.40213e-07
0.000204765
-7.63629e-09
-4.11676e-08
5.51728e-05
7.71024e-07
1.23035e-08
-0.000493041
-2.49968e-08
1.60804e-07
-1.03611e-07
-3.93513e-08
-5.88401e-09
-0.00127265
-0.0014882
-2.10658e-05
1.15945e-05
-4.29498e-08
-5.00429e-08
-7.07078e-05
1.78402e-08
-1.55057e-08
-2.11924e-08
-5.77766e-08
-1.21384e-07
-7.58809e-05
-0.000205666
-0.000143293
-9.84577e-08
-2.76704e-08
0.000110919
-4.5146e-08
-7.85882e-08
-5.50529e-09
-0.000224053
7.03624e-09
-4.0528e-07
-0.000175661
1.60234e-07
-2.25244e-08
3.49747e-09
1.71552e-05
-2.7614e-10
2.5513e-07
-2.03382e-08
0.000749811
0.000137584
2.85684e-07
-9.32633e-07
-2.67129e-08
-1.67085e-06
-3.67083e-07
-2.61769e-08
-1.9492e-08
-1.93835e-08
-2.22206e-08
-1.07081e-07
-3.45598e-09
-3.28304e-07
3.60582e-09
-2.37977e-08
8.59269e-05
-1.47296e-08
-2.83913e-08
-2.58239e-08
-1.51026e-09
-0.000182619
-9.57626e-09
-6.65278e-09
-5.5668e-05
-1.70763e-07
0.00139958
-1.04486e-08
4.1048e-05
-1.94749e-07
-0.000343171
9.90074e-09
1.06066e-07
-1.79505e-08
-2.60171e-08
-3.21704e-07
-4.27049e-07
2.5156e-06
0.000184379
1.44099e-06
-0.000907618
8.49594e-08
-1.70593e-07
-2.40169e-07
-0.000754537
1.74109e-08
-1.85826e-08
-1.1134e-08
-7.99608e-08
8.23038e-09
-0.000176028
-9.03591e-09
-0.000174576
0.000692582
-1.63723e-06
-1.93195e-08
-0.000506498
-4.27871e-07
-9.61534e-09
9.4394e-09
-2.53978e-08
-0.00157233
-6.66633e-09
-0.000203372
-1.33e-08
-3.60262e-08
4.43955e-05
2.22378e-09
-1.58456e-09
-1.07786e-08
0.000192067
-8.10747e-09
1.57841e-08
-4.6514e-08
-2.55485e-08
-3.46741e-08
1.44844e-10
-3.59635e-07
-1.82707e-06
-1.55486e-07
1.19903e-05
-6.77653e-05
-0.000178187
0.000175474
-3.38766e-08
-3.05806e-08
-2.97199e-08
-2.81009e-08
3.51175e-07
0.00126465
-0.000143501
-3.84553e-08
3.126e-10
0.000125545
1.90563e-05
-3.50149e-08
-1.78364e-08
1.29652e-07
-9.15489e-05
0.000435577
-3.33659e-08
-1.39363e-08
-8.65841e-09
1.73709e-05
-3.40888e-07
2.25978e-07
-1.29967e-07
-1.78879e-08
-2.96129e-09
-2.63131e-08
2.64258e-05
-6.01701e-09
-3.06828e-08
-2.76714e-08
-0.000158735
4.31677e-08
-8.41498e-05
-1.22393e-08
-0.000146437
-4.67576e-09
-4.85939e-07
-3.8611e-08
-2.72171e-08
-3.21925e-06
0.000473433
-8.80608e-08
5.10789e-06
-9.26526e-05
-6.99724e-09
6.87928e-05
-1.46196e-06
-5.40081e-08
-0.00169954
9.99157e-06
4.59392e-07
-7.50939e-10
-0.000112067
-6.73463e-05
-3.21492e-08
8.45864e-08
-0.000191975
-2.94672e-08
-2.25941e-08
-2.30599e-08
-2.55575e-08
-3.79903e-08
8.82632e-08
-2.83029e-05
5.74777e-07
-6.26365e-09
-5.31459e-08
-1.46579e-08
-0.000275473
-1.05161e-08
-2.58057e-08
1.89644e-08
-1.44091e-08
-2.58899e-08
-3.72914e-09
1.41083e-08
5.1418e-05
-1.67406e-08
5.606e-05
-1.78074e-09
0.000484766
-0.000164605
1.50582e-07
-1.5724e-09
1.45245e-11
0.000183418
-4.01093e-08
-1.70662e-08
-8.76926e-09
-3.71672e-07
-0.001101
-3.91615e-08
-0.000192691
4.51694e-08
-0.000175492
-1.32017e-09
-3.11547e-08
-3.33683e-08
-1.05843e-08
-4.40813e-05
-0.000163551
5.21236e-05
-5.98457e-09
5.08414e-08
-1.08498e-08
-6.57457e-05
4.43827e-05
-1.87004e-05
-2.75389e-08
-4.6351e-08
0.000185566
-2.94333e-08
-2.19752e-08
-1.45229e-05
-3.07877e-07
1.69959e-07
-4.65601e-07
4.55905e-08
5.90889e-08
-3.37551e-08
0.00019273
-4.52857e-08
-1.77594e-08
-7.15894e-05
3.04179e-07
-2.78177e-08
-4.74812e-05
-2.21645e-08
-9.33045e-09
-7.30519e-09
-4.64211e-07
-1.1751e-05
-2.62436e-08
2.76574e-08
-3.11099e-08
2.32224e-06
-1.04068e-08
5.6558e-06
-0.00119937
-0.000159384
2.3307e-05
-4.53197e-05
-2.92023e-08
0.000171599
1.68987e-06
-8.34109e-09
-7.43152e-08
1.49558e-07
9.01813e-08
-1.82749e-07
0.000110576
-4.55877e-05
-1.71909e-05
7.52213e-08
-2.03922e-08
6.79941e-08
-2.60517e-08
-4.32936e-05
-4.55134e-08
-1.81432e-08
-3.74548e-08
-2.866e-08
-1.56127e-08
1.70922e-07
-3.67438e-05
-3.84864e-08
-3.04888e-08
-4.47274e-08
0.000186908
-3.26822e-08
0.000220386
0.00127051
9.88875e-05
-2.43933e-09
-1.48205e-08
1.41651e-05
-8.59759e-06
-7.75835e-09
-8.93595e-07
-4.32979e-09
9.17645e-08
-2.87673e-07
1.75177e-07
-6.81387e-08
-0.000123696
-1.96829e-08
-3.17385e-08
-1.08563e-07
6.83977e-05
-3.06383e-08
-1.35863e-08
-3.00553e-08
-1.96344e-05
-6.49073e-09
-4.19104e-08
-2.0447e-08
-3.14346e-08
-8.94328e-06
1.34346e-05
-0.000319491
-2.44275e-07
0.000188317
0.000991008
-3.95388e-08
-4.25673e-08
-3.12913e-08
-9.29006e-07
-3.42388e-08
3.58856e-09
-1.84279e-08
-2.72496e-08
-3.30976e-08
2.64616e-05
-1.22246e-08
1.49103e-06
-3.64944e-08
2.7165e-07
-7.05605e-08
-9.92209e-08
-6.89623e-09
-4.19089e-08
-6.3552e-08
1.50454e-08
-0.000175577
-2.77817e-08
-0.000176712
1.14651e-08
5.33388e-08
-6.12386e-08
-2.65838e-08
-9.96078e-05
-5.23765e-05
-3.36281e-08
-2.16413e-08
-1.79961e-06
2.8782e-07
-1.34215e-07
-0.000201733
4.18201e-09
-3.65941e-05
-4.38771e-08
-3.61706e-08
-0.00176011
-8.43157e-09
0.00021872
-7.12321e-09
-1.92184e-08
-1.00562e-08
4.86959e-05
-0.000167584
-3.56387e-08
-9.42688e-07
3.61087e-06
-2.48837e-08
-2.40981e-08
-5.32473e-08
-1.89798e-07
-2.21556e-05
-2.99249e-08
-1.16731e-08
-2.10469e-08
-6.15854e-09
-2.78784e-08
-3.71656e-08
-1.70607e-08