/*--------------------------------*- C++ -*----------------------------------*\
| =========                 |                                                 |
| \\      /  F ield         | OpenFOAM: The Open Source CFD Toolbox           |
|  \\    /   O peration     | Version:  v2012                                 |
|   \\  /    A nd           | Website:  www.openfoam.com                      |
|    \\/     M anipulation  |                                                 |
\*---------------------------------------------------------------------------*/
FoamFile
{
    version     2.0;
    format      ascii;
    class       surfaceVectorField;
    location    "800";
    object      ddtCorrDdt0(Uf);
}
// * * * * * * * * * * * * * * * * * * * * * * * * * * * * * * * * * * * * * //

dimensions      [0 1 -2 0 0 0 0];


internalField   nonuniform List<vector> 
20673
(
(-0.000276636 5.99724e-05 -8.15383e-18)
(-0.000272382 6.77638e-05 -4.54464e-18)
(-0.00026566 5.94286e-05 -8.20913e-18)
(-0.000104755 -4.72773e-05 1.75831e-19)
(-0.000104087 -5.50443e-05 1.17648e-19)
(-0.000106959 -5.20703e-05 1.26821e-19)
(0.00297312 0.00064043 -3.9636e-18)
(0.00289449 0.000589711 1.97779e-18)
(0.00253007 0.000955951 -1.90381e-18)
(-1.37336e-05 0.00019539 -1.40755e-18)
(-2.50796e-05 0.000185867 2.22356e-18)
(-1.70716e-05 0.000185214 2.85119e-19)
(-7.58398e-06 -0.000136014 8.62528e-19)
(-6.66206e-06 -0.000136619 -7.24541e-19)
(-8.01626e-06 -0.000134128 -3.46459e-19)
(5.60265e-06 -0.0003926 1.96341e-18)
(1.02554e-05 -0.000388816 2.24111e-17)
(1.00014e-05 -0.000398923 3.55399e-17)
(0.00256083 0.00197363 3.32901e-18)
(0.00279845 0.00175619 -9.54435e-18)
(0.00191642 0.00210348 9.72296e-19)
(0.00384558 -0.000321526 4.07082e-18)
(0.00386339 -0.000430015 1.77724e-18)
(0.00403023 -0.000540183 -1.84047e-18)
(0.00300615 -0.00371965 5.01591e-18)
(0.00240647 -0.00352803 -2.7774e-17)
(0.0020453 -0.00347174 -1.63101e-18)
(-0.000385635 0.000158828 9.98184e-19)
(-0.000396355 0.000184724 5.80639e-18)
(-0.000418673 0.000162143 2.6722e-18)
(-0.0027926 0.00194452 -7.78715e-19)
(-0.00268504 0.00213599 2.30463e-18)
(-0.00297791 0.00207143 1.09286e-17)
(-0.000190148 0.00109473 6.46672e-19)
(-0.000184443 0.00117471 -1.67285e-18)
(-0.000263363 0.00110723 -5.17467e-18)
(-1.60439e-05 0.000204441 3.13982e-19)
(0.00624837 -0.000600388 -4.53982e-18)
(0.00644469 -0.000409279 2.18575e-18)
(0.00625892 -0.000142387 -6.33136e-19)
(-0.00014841 -0.000155877 3.45923e-18)
(-0.000144761 -0.000163651 -4.70913e-18)
(-0.000142256 -0.000162248 -1.7963e-19)
(-0.000159614 -0.00011335 -2.03647e-18)
(-0.000154472 -0.000120102 -3.77696e-19)
(-0.000153778 -0.000110911 -2.38069e-18)
(-0.000109541 -8.25766e-05 5.21045e-19)
(-0.000110564 -7.49231e-05 1.39846e-19)
(-0.00010709 -8.23088e-05 -4.83874e-19)
(-0.000236342 -0.000326264 2.98795e-18)
(-0.00020763 -0.000319461 1.33966e-18)
(-0.000215598 -0.000355688 -7.65863e-18)
(-0.000116333 0.0010852 -6.86527e-18)
(-0.000178376 0.0010258 -3.11256e-18)
(-1.12548e-05 -4.83712e-05 4.73969e-19)
(-1.06492e-05 -4.5946e-05 1.21361e-19)
(-8.93334e-06 -4.62943e-05 1.64205e-18)
(5.67773e-07 1.86064e-05 -7.81089e-19)
(8.20291e-07 1.9494e-05 -2.9428e-18)
(5.86045e-07 1.82904e-05 -1.78193e-18)
(0.00251761 0.00214334 -1.00186e-18)
(0.00309739 0.00192623 1.09962e-18)
(-1.72131e-05 -7.77167e-05 1.49893e-18)
(-1.89564e-05 -7.63714e-05 1.21384e-18)
(-1.87073e-05 -7.3829e-05 5.29661e-19)
(0.00369265 -2.04767e-05 4.5201e-18)
(0.00389839 -0.000204631 2.97417e-18)
(-3.23028e-05 -1.28524e-05 -2.03151e-18)
(-3.34459e-05 -1.09902e-05 -2.37037e-19)
(-3.03192e-05 -1.09501e-05 1.1085e-18)
(0.000125106 0.00371515 9.34496e-18)
(0.000880182 0.00356689 -8.49298e-18)
(0.00113104 0.00345751 9.87955e-18)
(-2.29473e-05 -0.000293032 -8.30547e-20)
(-2.63669e-05 -0.000296243 1.53524e-17)
(-2.19647e-05 -0.000297236 -8.47925e-18)
(-6.80304e-05 -0.000319299 1.53274e-17)
(-7.26019e-05 -0.000319765 1.59543e-17)
(-6.75112e-05 -0.000323059 -2.55039e-18)
(-5.22432e-05 -0.000552948 -2.70791e-18)
(-6.23316e-05 -0.000576119 -2.33126e-18)
(-3.1533e-05 -0.000576813 -4.09919e-18)
(1.17613e-05 0.00041944 -3.78026e-18)
(5.65657e-05 0.000387722 1.34498e-18)
(7.28986e-05 0.000450634 -1.2781e-17)
(-0.000245433 9.017e-05 1.84507e-18)
(-0.000253281 8.51254e-05 -2.9602e-18)
(-0.000241863 8.00921e-05 -4.90289e-18)
(-0.000202017 2.57828e-05 -6.63987e-19)
(-0.000200221 2.22527e-05 -2.19204e-18)
(-0.000197362 2.62945e-05 -4.72393e-18)
(-6.4317e-05 -0.0002744 -7.8737e-18)
(-6.28362e-05 -0.000284244 -1.0776e-18)
(-5.60809e-05 -0.000276668 1.25167e-17)
(-6.58322e-06 -0.000264289 -3.32729e-17)
(-2.36145e-06 -0.000263517 -5.17202e-17)
(-8.29591e-06 -0.000263323 -5.30401e-18)
(-2.37611e-05 -2.34882e-05 2.30159e-18)
(-2.4653e-05 -1.97579e-05 -1.64358e-18)
(-2.49255e-05 -2.03287e-05 -1.15594e-18)
(-0.00446342 0.00516228 1.7635e-19)
(-0.00449279 0.00493487 -2.82824e-18)
(-0.00344233 0.00533197 -3.33808e-19)
(-1.58658e-05 -8.03565e-05 -6.32859e-19)
(-1.53235e-05 -7.79249e-05 -4.81458e-19)
(0.00534446 -0.00113331 -4.83932e-18)
(0.00550378 -0.000982646 4.17242e-19)
(0.00562548 -0.000976699 -6.80658e-18)
(-3.40434e-05 0.000271225 -2.18966e-18)
(-3.26628e-05 0.000286836 -9.89243e-19)
(-0.00380039 0.000654848 -2.52068e-18)
(-0.00404489 0.000342965 -8.25027e-18)
(-0.00407792 0.000582173 -1.07677e-18)
(-1.57538e-05 -1.46774e-06 2.0582e-20)
(-1.602e-05 -1.84534e-06 -7.08808e-21)
(-1.58879e-05 -1.27493e-06 4.92489e-21)
(2.6402e-07 1.33326e-05 2.97563e-19)
(2.21026e-07 7.47233e-06 5.44035e-19)
(1.05469e-07 7.70766e-06 1.01082e-19)
(-1.11922e-05 -1.52216e-06 -5.71817e-19)
(-1.09362e-05 -5.31006e-07 9.0088e-19)
(-1.06469e-05 -1.2213e-06 9.76911e-19)
(-7.61513e-05 -0.000360397 1.32771e-17)
(-8.07271e-05 -0.000360415 1.03969e-17)
(-7.79369e-05 -0.000368068 5.88569e-17)
(-8.79658e-05 5.46704e-05 2.58613e-19)
(-9.13927e-05 5.48716e-05 5.63817e-20)
(-8.92706e-05 5.47331e-05 9.91876e-19)
(-2.6061e-05 -0.000265045 -2.82815e-18)
(-2.22775e-05 -0.00026627 -8.95332e-18)
(-2.32933e-05 -0.000264319 -3.19528e-18)
(-0.000269554 -0.000340455 -1.10612e-17)
(-0.000256589 -0.000302719 3.31572e-18)
(-0.000769748 -0.000623531 -7.90942e-18)
(-0.000716097 -0.000580937 4.81312e-19)
(-0.00078984 -0.000558239 -9.79862e-18)
(-4.16809e-05 -0.000405493 1.42288e-17)
(-1.80377e-05 -0.000425524 3.14766e-17)
(-5.06921e-05 -0.000436486 2.84734e-17)
(-1.67781e-05 -2.50167e-06 -1.39591e-18)
(-1.73483e-05 -1.82169e-06 -3.33399e-19)
(-1.65524e-05 -2.34257e-06 -4.11929e-19)
(-0.000232347 1.10774e-05 -1.12953e-18)
(-0.000232744 7.24743e-06 2.30235e-18)
(-0.000238366 9.16583e-06 2.72778e-18)
(-1.96921e-05 -0.000157486 6.55621e-18)
(-1.86069e-05 -0.000159634 7.88859e-18)
(-1.78279e-05 -0.000169608 1.43729e-17)
(-7.67722e-05 -0.000395755 8.23943e-17)
(-3.36358e-05 -0.000446005 1.57261e-17)
(-1.06029e-05 -0.000264691 1.12245e-17)
(-4.73621e-06 -0.000264829 4.63428e-18)
(-0.000111787 -8.32706e-05 8.72506e-19)
(-0.000108495 -9.03138e-05 -1.2597e-18)
(-0.000193147 -5.32051e-06 1.24466e-18)
(-0.000191013 -2.35933e-06 9.82615e-18)
(-0.000192807 -6.54851e-06 1.00315e-18)
(-0.00288949 0.00173377 4.48799e-18)
(-0.00265567 0.00179829 -1.26797e-18)
(-5.86015e-05 -0.000100578 2.33485e-19)
(-5.4824e-05 -8.95927e-05 -1.30449e-18)
(-5.73124e-05 -9.51701e-05 -3.65276e-18)
(-0.000167463 2.69458e-05 3.66157e-18)
(-0.000171709 2.42044e-05 2.0952e-18)
(-0.000168334 2.86504e-05 -2.97806e-18)
(-8.6724e-05 5.49969e-05 2.73951e-18)
(-8.49712e-05 5.46173e-05 2.9627e-19)
(-0.00186659 0.000564046 -8.73735e-18)
(-0.00144576 0.000315622 -2.56669e-17)
(-0.00190184 0.000493912 2.5762e-18)
(-0.000105467 -3.88605e-05 -2.30576e-19)
(-0.000107123 -3.73239e-05 -1.56576e-19)
(0.00677744 -0.000345661 1.38404e-17)
(-1.21691e-05 -5.04311e-05 -7.98169e-19)
(-1.38908e-05 -4.76701e-05 -5.77946e-19)
(1.38895e-05 -0.000390474 -2.45966e-18)
(9.34815e-06 -0.000389693 -3.31775e-18)
(0.00235996 -0.000913666 -4.10968e-18)
(0.00192915 0.000272451 -2.47477e-17)
(0.0024548 -0.000469758 1.9066e-17)
(-3.93061e-07 -0.000137972 -4.47355e-19)
(-4.3014e-07 -0.000136093 -1.8084e-18)
(3.0727e-06 -3.44686e-05 -1.55649e-18)
(5.29301e-07 -4.04917e-05 -5.25991e-19)
(-0.00226092 -0.00176453 -1.00423e-18)
(-0.00237612 -0.0016481 -1.83834e-17)
(-0.00244373 -0.00187039 3.69396e-18)
(-0.000270357 -6.13271e-06 -2.41655e-18)
(-0.000281665 6.08582e-06 1.37938e-18)
(-0.000290208 -1.71537e-05 -4.63152e-18)
(-5.07091e-06 -0.000134356 -1.2146e-18)
(-7.27683e-06 -0.000133387 -2.05911e-18)
(0.00377916 -0.00398362 -1.17809e-17)
(0.00354908 -0.00394323 9.68536e-19)
(-0.00433569 -0.000721809 -2.24328e-17)
(-0.00429304 -0.000877493 -1.49168e-18)
(-0.00444935 -0.000781234 -4.19388e-18)
(-3.1388e-05 -1.16194e-05 3.36217e-18)
(-3.07991e-05 -1.74874e-05 5.49954e-18)
(-7.62078e-06 -0.000427847 1.67478e-17)
(3.00055e-06 -0.000410361 1.37108e-17)
(2.28223e-06 -0.000422348 -4.28535e-17)
(0.000521789 0.00103481 3.22577e-18)
(0.000472138 0.000955838 -9.75746e-19)
(0.000404989 0.00102845 -3.94912e-18)
(-0.00107909 -0.000714322 2.06815e-18)
(-0.00127769 -0.000970633 -3.93794e-18)
(-0.000895678 -0.000809916 -2.35319e-17)
(-0.000120143 3.86974e-05 5.06513e-18)
(-0.000123957 3.72779e-05 -2.07782e-18)
(-0.000121767 4.01846e-05 -1.66949e-18)
(-0.00107363 0.00413714 -5.65874e-20)
(-0.00098119 0.00406399 7.07877e-18)
(-0.00170259 0.00421256 5.39117e-18)
(9.75169e-07 1.53253e-05 9.44619e-19)
(1.01399e-06 1.00627e-05 -1.9287e-18)
(1.22901e-06 1.00702e-05 -6.5683e-19)
(1.68076e-06 -5.84974e-06 -2.54582e-19)
(1.84076e-06 -1.47788e-05 -2.64556e-18)
(1.63756e-06 -3.99724e-06 8.37405e-19)
(-9.51254e-08 -0.000137872 2.66218e-18)
(8.78429e-06 -0.000399744 -6.91601e-18)
(-4.38373e-06 -0.000400441 2.31477e-17)
(1.83549e-06 -0.000396028 -1.06105e-17)
(0.00516331 -0.00129627 -4.88439e-18)
(0.00504828 -0.00132794 -2.78641e-18)
(0.00150284 -0.000407905 3.60605e-17)
(0.00162157 -0.000358232 2.80669e-18)
(0.00163833 -0.000328055 -2.13739e-18)
(-0.000115562 4.00895e-05 8.93228e-19)
(-0.000117383 3.79794e-05 2.98786e-18)
(-1.19084e-06 -3.88976e-05 6.98562e-19)
(-6.30231e-07 -3.79316e-05 -1.27383e-19)
(1.6827e-07 -2.83046e-05 -1.26227e-18)
(0.00227036 -0.00132985 -2.95392e-18)
(0.000855733 -0.00158114 -3.94254e-18)
(-0.000228307 1.63481e-05 9.53419e-19)
(-0.000224398 1.10832e-05 -3.307e-18)
(-1.12927e-05 -1.65085e-06 -1.26781e-18)
(-1.17215e-05 -1.50128e-06 1.26634e-19)
(-0.00186326 -0.00177959 1.11852e-17)
(-0.00188684 -0.00155385 -8.48719e-18)
(-0.00164363 -0.00165815 -1.97131e-18)
(-0.000302207 0.000381911 -9.8402e-18)
(-0.000308783 0.000342399 -9.76027e-18)
(-0.000344763 0.000363087 -8.30006e-18)
(-7.55481e-05 -2.04572e-06 5.93215e-19)
(-7.44328e-05 3.71022e-06 -7.98849e-19)
(-7.35366e-05 -3.89385e-06 2.60792e-19)
(-9.02381e-05 -0.000193745 2.82045e-18)
(-9.26798e-05 -0.000197523 2.68643e-18)
(-9.49937e-05 -0.000192206 -9.62187e-19)
(-0.000689336 -0.00180865 1.13047e-17)
(0.00393227 -7.59985e-05 5.43902e-17)
(1.74147e-05 -0.000397364 -8.49552e-18)
(1.40066e-05 -0.000387074 -5.21934e-18)
(1.79158e-05 -0.000390857 -1.38979e-18)
(-0.00231513 5.4019e-05 7.9559e-18)
(-0.00233538 -7.40738e-05 1.06837e-17)
(-0.00247389 4.26259e-05 2.21222e-17)
(-0.000565134 -0.000516406 -7.57581e-18)
(-0.000543232 -0.000565751 1.19657e-17)
(-0.000507467 -0.000521167 1.41521e-17)
(0.000940738 0.00246807 1.4768e-18)
(0.00110668 0.00259776 -4.10167e-18)
(0.00114388 0.00239727 -3.63764e-19)
(-2.54725e-05 -0.000366915 4.13937e-17)
(-2.48467e-05 -0.000357487 -2.04821e-17)
(-3.25822e-05 -0.000362261 -4.50243e-17)
(-2.38718e-05 -1.78753e-05 2.24088e-20)
(-2.46735e-05 -1.72987e-05 1.28791e-19)
(-2.42788e-05 -1.86811e-05 -1.14207e-20)
(3.46728e-06 -0.000271357 -1.4662e-17)
(-8.40845e-06 -0.000290468 1.73897e-17)
(-1.73146e-05 -0.000270662 5.92387e-18)
(-6.54511e-05 -0.000360057 -9.73663e-18)
(-7.30423e-05 -0.0003531 3.23554e-17)
(-0.000135562 2.50045e-05 4.68759e-21)
(-0.000137962 2.49796e-05 2.68225e-18)
(-0.000133848 2.38545e-05 -2.45743e-18)
(-4.41687e-05 -1.37141e-05 -3.90983e-19)
(-4.33523e-05 -1.12376e-05 -2.67237e-19)
(-4.45216e-05 -7.98994e-06 -6.5566e-19)
(0.0024093 -0.00310916 9.59669e-18)
(0.00215224 -0.00296146 -1.25903e-18)
(0.00286089 -0.00321194 1.96348e-17)
(-0.000148397 -0.000563285 5.20393e-18)
(-0.000121516 -0.000564818 7.48947e-20)
(-0.000144266 -0.000591826 1.06408e-17)
(-0.000810304 -0.000665378 3.09054e-18)
(-0.000734318 -0.000681649 -4.90031e-19)
(-0.00011142 -6.69377e-05 7.80528e-20)
(-0.000113462 -6.65052e-05 4.10994e-20)
(-0.000279289 9.35954e-05 1.32199e-17)
(-0.000285885 8.63426e-05 -3.01626e-18)
(-0.000294448 9.65052e-05 -1.87698e-19)
(-0.00142826 0.00129903 1.91606e-17)
(-0.00158533 0.00111357 -1.32045e-17)
(-0.00172492 0.00118499 1.39244e-17)
(-0.00340469 0.000952711 2.10173e-18)
(-0.00345009 0.000661455 -6.82974e-19)
(-8.33326e-05 0.00158143 7.27844e-19)
(2.07255e-05 0.00159403 -4.93518e-18)
(-2.84089e-05 0.00168903 1.3934e-19)
(0.0025164 -0.00326063 -6.71814e-18)
(0.00169157 -0.00302522 -2.06238e-17)
(-1.42611e-05 -0.000227546 -3.8224e-18)
(-1.50747e-05 -0.000232529 1.50855e-18)
(-1.14964e-05 -0.000231648 -7.20459e-19)
(3.3185e-05 -0.00047127 -6.77907e-17)
(5.06491e-05 -0.000462199 -4.57677e-17)
(1.93972e-05 -0.000426875 4.62859e-17)
(-3.3388e-05 -1.2204e-05 -5.54231e-19)
(-3.36625e-05 -6.47945e-06 -5.95202e-18)
(-3.31865e-05 -1.14044e-05 -3.57435e-18)
(-2.2575e-05 -0.00044951 7.20584e-18)
(-1.14162e-05 -0.000445502 -2.7049e-17)
(-1.20238e-05 -0.000433814 -3.56181e-18)
(0.00665978 0.000536629 -1.03297e-18)
(0.00652377 0.000556439 5.47478e-18)
(0.00659577 0.000666564 -6.97124e-18)
(-1.97058e-05 -0.000263282 -9.75333e-19)
(-2.35341e-05 -0.000262233 -1.6618e-17)
(-2.36577e-05 -0.000261512 -1.10413e-17)
(1.09157e-06 1.70936e-05 3.0801e-19)
(7.14151e-07 1.78598e-05 1.53237e-18)
(-0.00214013 -0.00188443 2.21248e-17)
(-0.00212223 -0.00168959 1.3677e-17)
(0.0076746 0.000199772 -9.36766e-18)
(0.007563 0.000262421 2.06709e-18)
(0.00762358 0.000193767 -6.95931e-18)
(-6.32978e-05 -0.000314116 -2.5035e-18)
(-6.893e-05 -0.000310639 1.49019e-18)
(-1.70713e-05 4.53821e-07 1.75525e-20)
(-1.56932e-05 9.957e-07 6.41736e-19)
(-1.65535e-05 1.39394e-07 2.01665e-19)
(-8.63427e-05 -0.00019433 -2.86764e-18)
(-8.88129e-05 -0.000190149 5.94072e-18)
(-9.00648e-05 4.98905e-05 1.09444e-18)
(-9.33693e-05 4.96747e-05 1.46877e-18)
(-9.16307e-05 4.63259e-05 -9.82701e-19)
(-1.74082e-05 2.38453e-07 -4.67327e-19)
(-1.60854e-05 2.6298e-07 4.49562e-19)
(-7.95609e-06 4.93511e-06 -2.66854e-19)
(-7.30468e-06 3.76735e-06 9.19592e-19)
(-7.33904e-06 4.26792e-06 2.64718e-19)
(6.29972e-06 -0.000408466 6.80738e-17)
(0.00650388 0.000837504 -1.09476e-18)
(0.00666838 0.000722752 -2.62576e-18)
(0.00674144 0.000739723 -3.39396e-19)
(-1.12468e-05 -0.000222282 6.68588e-18)
(-1.40621e-05 -0.000219539 4.91344e-18)
(-9.43677e-05 5.41149e-05 -5.77742e-19)
(-9.2198e-05 5.44295e-05 -2.49139e-19)
(5.30669e-07 1.86553e-05 -1.45757e-18)
(5.08628e-07 1.43206e-05 1.83159e-18)
(0.000867018 -0.000838749 1.06204e-18)
(0.00208031 -0.00076556 -1.15032e-17)
(0.000214948 -0.000293834 -2.55964e-18)
(0.00354867 0.000302045 -5.28755e-19)
(0.00344943 0.00014726 -6.54108e-18)
(-0.000287921 6.0038e-05 -8.6939e-19)
(-0.000279518 5.2996e-05 1.02158e-18)
(-2.87847e-05 -0.0003718 2.67314e-17)
(-2.51909e-05 -0.000371693 9.4539e-17)
(-6.30227e-07 -0.00013664 -4.60431e-18)
(1.43819e-07 -0.000130392 -9.62438e-18)
(-1.53347e-05 -0.000263984 1.35763e-17)
(-1.65984e-05 -0.000263523 6.77443e-18)
(-0.00531933 0.00405678 -1.43673e-18)
(-0.00492715 0.00418072 2.7278e-18)
(-0.0043121 0.00375577 -5.88453e-18)
(-4.60165e-05 4.20588e-05 3.21436e-19)
(-4.82013e-05 4.2458e-05 1.64341e-21)
(-4.66967e-05 4.06986e-05 -1.61254e-18)
(-3.92041e-05 -0.000192055 -2.63222e-18)
(-3.78046e-05 -0.000204284 -3.01289e-18)
(-3.37189e-05 -0.000192161 6.04247e-18)
(-6.12053e-05 -0.000368952 1.67671e-17)
(-5.60229e-05 -0.000374602 -1.43224e-17)
(-6.38292e-05 -0.000377026 -1.11347e-17)
(7.40048e-07 -3.44206e-05 -4.6481e-18)
(2.42997e-06 -3.04281e-05 2.03643e-18)
(0.00525569 -0.00451669 -3.92855e-19)
(0.00484842 -0.00426863 1.6214e-17)
(0.0049796 -0.00446976 -5.95182e-19)
(-6.80618e-05 -0.000626713 5.99143e-19)
(-0.000103094 -0.000623896 -7.06851e-19)
(-7.80159e-05 -0.000596919 4.9581e-18)
(-2.07729e-05 -0.000150478 2.28738e-18)
(-1.75585e-05 -0.000144359 -3.17716e-18)
(-3.8819e-05 3.84738e-05 -2.68395e-19)
(-4.08155e-05 3.92246e-05 2.67824e-20)
(-3.92295e-05 3.7994e-05 2.06284e-19)
(-0.000208834 1.57575e-05 -1.31648e-18)
(-0.000208425 1.10143e-05 3.37192e-18)
(-0.000214034 1.29586e-05 1.13145e-18)
(-0.000885512 0.00010982 -2.63415e-18)
(-0.000940492 9.79249e-05 -1.55266e-17)
(-0.000876355 5.44784e-05 -5.104e-18)
(8.64611e-06 -0.000452661 -3.61868e-18)
(2.12705e-05 -0.000466928 -3.62151e-17)
(-0.00136292 0.00101771 3.71119e-18)
(-0.00147119 0.000989486 -8.82625e-19)
(-0.00141652 0.00111369 -9.48587e-18)
(-0.000308794 -0.000119503 4.98095e-20)
(-0.000303523 -0.000108029 -8.30821e-19)
(-0.00031957 -0.000103854 -2.40724e-18)
(-0.000179355 2.73901e-05 -8.38237e-18)
(-0.00018024 3.10003e-05 6.22885e-19)
(-0.000177381 2.89138e-05 -3.11764e-19)
(0.000675353 -0.000221574 7.59868e-18)
(0.000638796 -0.000179564 4.95212e-17)
(0.000628679 -0.000211904 3.10736e-17)
(-0.00026655 -1.35532e-05 1.41871e-18)
(-0.000262918 -4.55288e-06 -2.58324e-18)
(0.000684314 -0.00135972 -7.76807e-19)
(-0.00148671 -0.00158127 -1.2713e-18)
(-0.00239058 -0.00125035 -5.91808e-18)
(-0.00099011 -0.000474764 5.36588e-19)
(-0.00131557 -0.000666005 4.50375e-18)
(0.0040284 0.000356204 -4.17053e-18)
(-0.00215271 -0.000618054 4.70408e-18)
(-6.45724e-05 -0.000237369 -2.46979e-18)
(-6.59339e-05 -0.000239967 3.1021e-18)
(-6.10773e-05 -0.000240397 2.92024e-18)
(1.36643e-05 -0.000294707 -8.81097e-18)
(4.4887e-06 -0.00029651 -7.94408e-17)
(1.38839e-05 -0.000298937 -8.77029e-18)
(1.39444e-06 9.55621e-06 -1.0231e-18)
(1.42893e-06 9.42825e-06 2.49244e-19)
(6.74101e-07 1.46536e-05 -8.20522e-19)
(-0.00231629 0.00020984 -1.50501e-17)
(-0.00218331 9.66201e-05 -1.08355e-17)
(-0.000211077 0.00157768 -1.18072e-18)
(-0.000145578 0.00147508 1.26982e-17)
(0.000844542 0.00234816 7.77149e-19)
(0.000757746 0.00250279 1.173e-17)
(-0.000136526 2.55822e-05 -4.25256e-18)
(-0.000133389 2.51891e-05 -5.63103e-19)
(-0.000807173 -0.000269878 3.87375e-18)
(-0.000842083 -0.000232101 -8.83254e-19)
(-0.000865652 -0.000291627 -6.31515e-18)
(-7.2254e-05 5.2754e-05 1.37131e-18)
(-7.5276e-05 5.28282e-05 -2.35101e-18)
(-7.40761e-05 5.1278e-05 -4.31653e-19)
(3.54737e-06 -0.000275382 -1.71814e-17)
(-1.0045e-06 -0.000272733 -3.11436e-17)
(-0.000334111 -7.11742e-05 -4.14336e-18)
(-0.000321834 -8.14176e-05 1.12727e-18)
(-0.000321008 -6.33169e-05 7.3543e-19)
(4.41262e-05 0.000458273 -1.54446e-17)
(-0.000144326 0.000350374 2.57281e-17)
(-5.22693e-05 0.00052824 -1.84681e-17)
(0.000283861 0.00164405 -6.99377e-18)
(0.000310865 0.00173342 3.57807e-19)
(0.000206505 0.001706 2.82274e-18)
(-0.000120112 -8.25071e-05 1.20093e-18)
(-0.000123618 -8.16417e-05 5.45709e-19)
(-0.000120282 -9.01226e-05 -5.03951e-19)
(0.00631888 -0.00450163 -8.31774e-19)
(0.00621763 -0.00460176 -1.74977e-18)
(0.00610656 -0.00465853 -1.07384e-17)
(-0.000322046 -0.000153972 7.47783e-19)
(-0.000324632 -0.000167677 6.88896e-19)
(-0.000337824 -0.00015622 4.45163e-19)
(0.00632696 0.000951942 -4.25326e-19)
(0.00617071 0.000926054 4.47215e-18)
(-2.12831e-05 -0.000456596 -3.56952e-17)
(-3.86423e-05 -0.000447652 3.27093e-17)
(0.00550808 -0.00460143 1.16518e-17)
(0.00539262 -0.00478518 -9.90742e-18)
(-6.58888e-05 -8.21041e-05 2.26274e-20)
(-6.85242e-05 -8.31673e-05 2.54457e-19)
(-6.70803e-05 -8.48996e-05 2.67988e-19)
(-0.000287734 0.000420527 2.47178e-18)
(-0.000258502 0.000390719 1.42981e-17)
(-0.000248895 0.000101746 -7.98108e-18)
(-0.000235242 9.55911e-05 8.55865e-19)
(-4.57206e-05 4.27842e-05 1.16999e-18)
(-4.39968e-05 4.16672e-05 1.20196e-18)
(-2.08036e-06 -4.15995e-05 -1.11358e-18)
(-3.54377e-06 -4.79543e-05 1.01856e-18)
(-0.000150441 -0.000202421 2.04025e-18)
(-0.000142547 -0.000206082 7.1409e-18)
(-0.000146548 -0.000198421 -2.83825e-18)
(-0.00101128 0.00401686 -4.75774e-18)
(-0.000710435 0.00388746 2.34814e-19)
(-0.000618502 0.00111501 -7.96802e-17)
(-0.000671798 0.00119346 -1.0448e-17)
(-0.000761175 0.00113936 -4.1995e-17)
(0.000845634 -0.000333156 -4.27369e-17)
(0.000909346 -0.000285486 -8.85087e-18)
(-0.000200207 -8.41107e-05 5.83131e-19)
(-0.000194272 -7.52707e-05 -4.26417e-18)
(-0.000192517 -8.63907e-05 1.01427e-17)
(-0.000342003 0.00256585 4.99569e-18)
(-0.000221677 0.00257582 1.82662e-18)
(-0.000297166 0.00270485 8.37015e-19)
(-0.00630076 0.0014783 -8.2825e-19)
(-0.00707226 0.00165717 2.48513e-18)
(-0.00719562 0.0013564 -3.1572e-18)
(0.00133033 -0.000434077 -1.12425e-18)
(0.00135467 -0.000457759 1.85026e-17)
(-0.00104096 0.000789773 -3.58678e-18)
(-0.00097482 0.000844081 1.08761e-17)
(-0.00107992 0.000880069 2.77728e-17)
(-1.78455e-05 -9.75371e-05 1.54664e-18)
(-1.59265e-05 -9.68596e-05 2.20852e-18)
(-1.54323e-05 -0.000100214 1.69085e-18)
(-7.00175e-06 -0.000363972 2.56273e-19)
(-1.40988e-05 -0.000367453 -4.80594e-17)
(-6.21397e-06 -0.000365294 -2.53688e-17)
(-2.0052e-05 -0.000289705 2.35739e-18)
(-2.95342e-05 -0.00028868 -8.78287e-18)
(-2.02042e-05 8.84651e-08 1.68785e-19)
(-2.02594e-05 -2.27124e-07 -2.98966e-19)
(-7.68662e-05 -7.16212e-06 2.5888e-19)
(-7.74962e-05 2.22659e-06 -5.78884e-19)
(-0.000201946 -0.000547961 2.95528e-19)
(-0.000202728 -0.000518814 5.55283e-18)
(-0.000227915 -0.000535203 1.96857e-18)
(-0.00121542 0.00125967 3.62927e-17)
(-0.00271169 0.000583735 4.25603e-17)
(0.00249407 0.000694284 1.55194e-17)
(-0.000193837 0.00013071 4.01713e-18)
(-0.000198628 0.000139382 -2.6046e-18)
(-0.000203347 0.000125445 4.70261e-19)
(-1.5972e-05 -3.27832e-06 -8.59079e-19)
(-1.67229e-05 -2.39223e-06 -2.23129e-20)
(-0.000834327 -9.03527e-05 2.44125e-18)
(-0.00078091 -7.79976e-05 -2.15914e-18)
(-0.000807511 -0.000139422 -4.39455e-18)
(-0.000890626 0.000169458 1.39633e-17)
(-0.000838708 0.00012158 1.33745e-17)
(-0.0041958 -0.000650715 -1.73278e-17)
(-0.00434535 -0.000582644 -2.00945e-17)
(0.00193632 -0.00367536 -6.03119e-18)
(0.00194064 -0.00385459 -1.85976e-17)
(0.00228809 -0.00364109 -1.81314e-17)
(-2.4308e-05 -2.79274e-05 1.44376e-18)
(-2.33728e-05 -2.56551e-05 3.25496e-18)
(-5.87178e-05 -0.000104225 -4.16563e-19)
(-6.15475e-05 -0.000110656 -4.20211e-18)
(-0.000580919 -0.00046465 -2.6147e-17)
(-0.000625519 -0.000502007 -8.80169e-18)
(0.00110484 0.00270276 4.56518e-18)
(0.000158006 0.00307045 -2.47795e-18)
(0.000676102 0.00275636 -3.16377e-18)
(-3.57169e-05 -0.000182891 3.18036e-18)
(-3.90749e-05 -0.000187809 -1.68032e-18)
(0.00298705 0.00155981 -2.91533e-18)
(0.0032429 0.00133957 -1.71348e-18)
(0.00243595 0.00161926 6.20647e-18)
(-0.00425726 -0.000349007 4.90394e-19)
(-0.00431403 -0.0004621 -1.17873e-17)
(-0.00411446 -0.0003639 -2.00161e-17)
(-0.000401681 0.00243278 -1.57781e-17)
(-0.00051211 0.00257961 -1.4946e-17)
(-4.19847e-05 -1.86278e-05 3.13564e-19)
(-4.4265e-05 -1.77812e-05 4.66566e-20)
(-2.9998e-05 -0.000444278 -4.4198e-19)
(-3.23791e-05 -0.000461682 3.45122e-18)
(-1.02257e-05 -0.000451115 -1.84869e-17)
(-0.00060609 -0.000322329 8.83857e-18)
(-0.000602862 -0.000369972 9.51418e-18)
(-0.000561801 -0.000342136 -3.68293e-19)
(-0.00348298 0.000410918 -2.34844e-17)
(-0.00333271 0.000609814 2.94162e-17)
(-0.00364061 0.000412576 -1.7618e-18)
(-3.84256e-05 -1.77694e-06 5.07122e-20)
(-3.85469e-05 -5.93616e-06 7.83732e-19)
(-3.83704e-05 -6.02284e-06 2.25697e-19)
(-0.0021237 0.00101627 -1.9396e-17)
(-0.00172965 0.000290406 -2.94538e-17)
(-6.20087e-05 -8.06827e-05 -2.03769e-19)
(-6.32727e-05 -7.89547e-05 -6.22154e-19)
(0.000220868 0.000217288 1.9197e-17)
(0.000212593 0.000160118 1.54938e-17)
(0.000167833 0.000198775 9.27342e-18)
(-1.46748e-05 -1.93592e-06 1.53608e-20)
(-1.5554e-05 -1.38674e-06 6.51693e-20)
(0.00370864 -0.00167678 3.09927e-18)
(0.0038745 -0.00146111 -6.1837e-18)
(0.0039929 -0.00152597 -3.53368e-18)
(0.00194931 -0.00279698 -1.2016e-17)
(0.00173333 -0.00260838 -7.28261e-18)
(0.00237822 -0.00283084 -2.3973e-18)
(-0.000164958 -0.000114465 2.12443e-18)
(-0.000164139 -0.000105219 3.42159e-19)
(-0.000803417 -0.000799016 2.89367e-17)
(-0.00176112 -0.00100778 4.56536e-18)
(-0.000425055 -0.000721157 -2.43779e-18)
(-0.000184268 2.614e-05 -4.262e-18)
(-0.000178326 2.58172e-05 4.91908e-18)
(-4.13285e-05 -2.47446e-05 2.7564e-19)
(-4.05418e-05 -2.21509e-05 3.40764e-19)
(-0.0044931 0.00487359 -2.68135e-18)
(-0.00408543 0.00545583 -3.26061e-18)
(0.000412154 0.00158595 -2.51369e-18)
(0.000293945 0.00150273 -1.39294e-18)
(-0.000206579 -8.07199e-05 -3.17133e-18)
(-0.000207459 -9.26734e-05 -3.59807e-18)
(0.00294732 0.000643925 5.87379e-18)
(0.00288722 0.000625479 4.09477e-18)
(0.00262588 0.00100377 -1.21451e-17)
(-0.00437181 -0.000262388 9.75736e-18)
(-0.00425765 -0.00023474 5.04698e-18)
(-2.38868e-05 -4.71182e-06 6.21354e-20)
(-2.41555e-05 -2.86124e-06 -1.99441e-19)
(-2.35828e-05 -3.25671e-06 7.88369e-20)
(-0.000201444 2.87426e-05 6.00462e-18)
(-0.000206679 2.69809e-05 2.48377e-18)
(-0.00204372 -0.00197738 2.4993e-17)
(-0.00177976 -0.00204998 1.0126e-17)
(0.001308 -0.000431922 4.50047e-18)
(0.00134654 -0.000385526 -1.44204e-17)
(0.0012584 -0.000426561 4.85504e-19)
(1.65306e-06 9.65319e-06 1.1971e-18)
(1.5124e-06 2.06046e-06 5.24081e-19)
(-2.25741e-05 9.75649e-06 -2.48896e-19)
(-2.24732e-05 7.93169e-06 2.82563e-19)
(-2.3596e-05 9.02152e-06 2.4349e-19)
(-0.00597898 0.000583699 9.19509e-18)
(-0.00586998 0.000771574 9.46679e-18)
(-0.00254347 -0.000458449 -1.39105e-17)
(-0.00256301 -0.000304668 -1.78795e-18)
(-0.00269874 -0.000401672 -2.10003e-17)
(8.14947e-07 1.55295e-06 -3.07783e-19)
(3.98833e-07 1.38978e-06 8.59975e-19)
(7.79921e-07 2.00112e-06 5.3409e-19)
(-0.00266577 0.00497371 3.59772e-19)
(-0.00231005 0.00514173 2.35934e-18)
(-0.00216426 0.00475491 -1.97526e-19)
(0.000223084 -0.000748142 2.84225e-18)
(0.000165586 -0.000810273 -1.58719e-17)
(0.000144889 -0.00071621 -3.00645e-18)
(1.0437e-05 -0.000288995 2.0293e-17)
(1.76711e-05 -0.000289593 1.25949e-17)
(-0.000240315 5.20369e-05 -5.03615e-19)
(-0.000245606 5.81252e-05 7.70909e-18)
(-0.000234729 5.45196e-05 7.38288e-18)
(4.70337e-07 2.87237e-06 3.83696e-18)
(2.05307e-06 1.11098e-05 -8.50055e-19)
(-0.000290375 -0.000209485 -1.16915e-18)
(-0.000281016 -0.000195274 -2.78444e-19)
(-0.000274741 -0.00021139 9.82243e-19)
(-0.00338374 -0.000506581 -1.08196e-18)
(-0.0031734 -0.000512193 -1.10468e-17)
(-0.00326594 -0.000294012 1.34565e-17)
(-4.47353e-05 2.53377e-05 3.9858e-19)
(-4.37394e-05 3.01277e-05 -2.4455e-19)
(-4.65549e-05 2.77823e-05 -1.69591e-18)
(-0.000432977 0.00054421 -3.628e-18)
(-0.000452265 0.000496256 -1.90424e-17)
(-0.000390228 0.000510043 1.50808e-17)
(-2.92716e-05 -0.000376241 -6.16132e-17)
(-3.51104e-05 -0.000379395 5.64049e-17)
(-2.87378e-05 -0.00038196 -5.22745e-17)
(-8.83673e-05 4.89954e-05 -2.8867e-19)
(-8.81723e-05 5.08039e-05 -3.79403e-19)
(-5.23526e-05 -7.96007e-05 -8.74881e-19)
(-5.27216e-05 -8.43187e-05 4.47162e-19)
(-0.000956265 0.000822574 8.18523e-18)
(-0.00104449 0.000841527 -1.30198e-18)
(-0.000973232 0.000908463 -2.29351e-18)
(-0.00454469 0.00126295 -4.70296e-19)
(-0.00487876 0.00104768 -1.07086e-18)
(-0.00454071 0.00109828 -3.42442e-18)
(-0.00125324 0.00104458 7.02393e-18)
(-0.00131029 0.000930205 3.20744e-18)
(-0.000156182 -0.000198033 1.3771e-18)
(-0.00015233 -0.000205098 2.57509e-18)
(-0.000149542 -0.000146903 6.68847e-18)
(-0.00015528 -0.000149788 1.12076e-18)
(7.21754e-07 3.55744e-06 1.74755e-18)
(7.24024e-07 3.09564e-06 -1.64488e-19)
(3.14014e-07 2.42941e-06 1.48502e-18)
(0.00771656 0.000165307 -1.18162e-18)
(0.0076756 0.000190072 -1.37319e-18)
(-0.00182263 0.000995228 1.07768e-17)
(-0.0017648 0.00075874 6.91115e-21)
(-0.00196869 0.00101913 -2.12584e-17)
(0.000900482 0.0054807 -3.4194e-18)
(0.000522898 0.00573322 -1.54626e-17)
(0.00104846 0.00586808 -2.42682e-18)
(-4.02082e-05 -2.94788e-05 1.38059e-20)
(-4.1746e-05 -2.68139e-05 -8.32599e-20)
(-0.00521017 -7.23696e-05 -2.6531e-18)
(-0.00512541 -8.594e-05 1.98327e-17)
(-0.00513939 -1.30433e-05 6.15837e-18)
(0.0057288 -0.000472974 1.11328e-18)
(0.00584628 -0.000424629 -4.75132e-18)
(0.00615395 -0.000367359 -5.70679e-18)
(0.00336022 -0.0013635 7.08706e-18)
(0.0025659 -0.000976414 8.72138e-18)
(-0.00135473 0.00415308 1.18415e-18)
(-0.000726782 0.00379828 -3.00199e-18)
(0.000560009 0.00113744 4.03607e-18)
(0.000640769 0.00104414 -8.35496e-18)
(1.22095e-06 -5.32064e-06 5.9448e-19)
(-1.48404e-05 2.64681e-07 -2.28932e-20)
(-1.50019e-05 6.74666e-07 1.7031e-19)
(-1.34948e-05 7.75131e-07 3.11974e-19)
(-0.000297476 -0.000349255 -1.78663e-19)
(-0.000314732 -0.00032516 5.74596e-19)
(-0.00032929 -0.000358616 -6.15265e-18)
(0.00232187 -0.00155213 1.65912e-17)
(0.00263955 -0.00132908 -6.44137e-19)
(0.00233462 -0.00133876 -3.82397e-18)
(-0.000840244 -0.00146933 3.51067e-18)
(-0.000720339 -0.00148818 9.25233e-18)
(-0.000825055 -0.00160484 -5.8689e-18)
(-0.000163244 2.93839e-05 -4.05125e-18)
(-0.000166023 2.62846e-05 -1.83559e-19)
(0.00182811 -0.0034672 2.28613e-17)
(0.00147933 -0.00363532 -4.27438e-19)
(-7.08164e-05 0.00062452 1.81469e-18)
(-7.11455e-05 0.000609586 2.84445e-18)
(-6.90838e-06 2.62556e-06 8.12069e-19)
(-7.05679e-06 3.18948e-06 4.2418e-19)
(-6.8329e-06 2.03751e-06 9.36896e-19)
(-0.00521415 0.00249078 1.98357e-17)
(-0.00531807 0.00228822 2.67782e-17)
(-0.00514402 0.00231867 7.75593e-17)
(-1.40641e-05 -3.92951e-05 -5.29912e-19)
(-1.37393e-05 -3.74611e-05 4.93437e-19)
(-1.20949e-05 -3.98364e-05 -3.25728e-20)
(0.00639862 -0.00435928 5.18354e-18)
(0.00636778 -0.00434933 3.64358e-18)
(-0.000185883 0.000120738 -2.00177e-19)
(-0.000182556 0.000134116 5.21158e-18)
(9.21319e-07 1.19388e-06 -2.16839e-19)
(1.26389e-06 1.49934e-06 -2.21015e-19)
(-0.000187751 -9.80684e-05 -3.39836e-18)
(-0.000189735 -9.97227e-05 -2.57097e-18)
(-0.00018381 -0.000105648 1.57019e-18)
(-0.000314462 -0.000127268 9.2063e-20)
(-0.000301632 -0.000130912 4.57039e-19)
(-7.18636e-06 -0.000295609 -2.19766e-17)
(-4.07208e-06 -0.000291655 4.42215e-18)
(-0.00302859 0.00542447 -1.01967e-18)
(-0.00308954 0.00514096 -5.38362e-18)
(-0.000228584 -0.000117355 4.87608e-19)
(-0.000237412 -0.000118536 -6.97926e-19)
(-0.000228607 -0.000127299 1.5491e-18)