/*--------------------------------*- C++ -*----------------------------------*\
| =========                 |                                                 |
| \\      /  F ield         | OpenFOAM: The Open Source CFD Toolbox           |
|  \\    /   O peration     | Version:  v2012                                 |
|   \\  /    A nd           | Website:  www.openfoam.com                      |
|    \\/     M anipulation  |                                                 |
\*---------------------------------------------------------------------------*/
FoamFile
{
    version     2.0;
    format      ascii;
    class       volScalarField;
    location    "800";
    object      omega;
}
// * * * * * * * * * * * * * * * * * * * * * * * * * * * * * * * * * * * * * //

dimensions      [0 0 -1 0 0 0 0];


internalField   nonuniform List<scalar> 
13917
(
0.0395173
0.0221703
4.78181
0.0234484
0.0221082
0.43217
4.42353
4.96283
5.76488
0.0639288
0.150661
0.063734
0.0235186
10.7961
0.0261148
0.0249444
0.0222888
0.0520642
0.0625644
0.0221137
0.0222668
4.33859
0.0220934
4.96513
0.0220115
4.15982
0.0415728
0.0534187
0.733979
0.0983382
0.0420763
0.0277181
0.0357909
0.0256092
0.0220277
0.685474
0.0221021
3.87075
0.0251589
6.31514
0.0219046
0.0222858
0.0215837
0.0812614
0.0220579
0.0273021
0.0512644
0.0678056
2.83802
0.0220198
0.0265743
0.0223427
3.32137
0.0259785
0.0223017
0.0265815
0.14863
0.0220298
0.0248327
0.0220172
10.4101
0.0221724
24.1193
0.0221022
0.403529
16.6117
0.0221037
0.0220455
0.165485
0.0360734
0.0221159
5.8308
4.37111
0.0220176
2.90423
0.0745337
5.74447
0.0226877
3.92208
0.0222367
0.0222045
0.0221112
0.374528
3.8571
4.84379
0.0225931
0.0221801
13.7255
0.0263128
0.0215745
4.15826
0.0854117
0.0218785
0.0229872
15.0005
0.368785
0.115301
0.0625963
0.129084
0.106891
0.0218193
0.0323919
0.0815956
0.0230628
0.0217982
6.07521
0.439337
0.0715054
0.0222936
0.0449811
4.39844
5.55998
0.0815247
5.9707
0.0229586
3.21299
0.0220101
1.4848
5.17593
0.0259712
0.0222738
0.160185
4.67601
0.0503333
0.0219808
0.0228219
0.0220291
0.0219884
0.0216069
0.408488
3.64782
0.0228652
0.0220812
0.0222743
3.4772
4.93119
0.0400709
0.113618
0.0220966
0.0258899
0.272686
0.0217664
0.0225726
0.101054
0.0220456
5.91731
0.773386
0.0222889
0.0217406
0.0283504
0.0542576
3.21466
0.0838685
0.0410719
0.0268023
6.46943
0.0346394
2.97694
7.79188
3.45676
0.0242047
0.0421874
0.0222367
0.110289
0.0798879
0.1267
0.0230343
0.0578718
0.0219015
0.0334123
0.0413398
6.80792
0.0886829
0.0225943
5.50793
0.0450621
3.64003
1.94973
5.82658
0.0219218
0.0894115
0.0435768
0.0217602
0.0221711
0.0298816
4.29286
0.330018
8.41447
0.0360024
0.118308
0.293337
5.3719
0.301307
0.0221038
0.119415
0.0400711
0.0224625
0.0218864
0.229516
6.8088
0.0259201
0.0220351
0.0536976
0.0535631
4.79051
1.59814
0.0220299
0.0220434
0.061162
4.53312
0.0224738
4.4399
6.69183
0.118721
0.0218061
0.572966
0.0535412
6.22291
0.021966
11.079
0.0219161
0.0879398
0.0218955
3.92465
6.12241
0.0252701
1.96263
0.0271241
0.0218097
0.660919
0.0868667
0.0355943
4.85661
8.96681
0.021775
0.0282023
4.11895
4.6549
0.0222288
0.0219506
5.05818
0.130891
0.0222668
0.215058
0.0936678
0.040507
0.0367711
0.0222287
0.0447897
7.39957
0.0219141
0.114164
0.141009
0.0220058
0.0220198
0.0665056
3.80001
0.0788416
0.0302084
0.0262706
0.0222712
6.05872
7.10048
0.218722
0.0218176
4.63013
6.76787
3.72208
3.85093
0.0794716
0.0222152
0.021937
0.0514782
4.13685
0.115823
0.0245579
2.24655
0.0414758
0.0215999
8.51878
0.0220902
5.51349
0.0254771
0.022262
0.0272497
0.0407489
0.0422084
0.207886
0.0322643
0.0220161
0.321633
4.88582
7.07342
0.0219674
4.27364
0.0221727
0.0220099
0.0220178
1.11844
0.0221058
0.0963483
0.0358482
0.0218821
0.0538524
0.0230746
2.38562
0.0439
0.0780232
0.0217978
0.0220108
4.48032
5.30038
0.0220042
0.021916
8.57589
0.0219032
4.23397
0.0217915
3.94
0.0223432
0.462725
0.0327651
3.02657
0.0239089
1.44544
0.307028
0.0272483
0.13021
0.512147
0.0222576
3.76116
0.120196
5.6412
0.0247826
6.64415
0.028906
4.7943
0.245876
0.109926
0.106849
4.68992
0.0222168
0.04291
4.38566
0.0221667
0.0234331
6.04942
0.279482
0.0225194
0.221488
0.671829
0.0218614
6.21273
0.288815
0.0220837
0.0218952
0.0221802
0.0217354
0.333008
5.71381
0.687255
4.38782
0.0220156
0.128125
6.60665
0.0415253
4.34969
3.99408
6.02579
0.0217683
0.215564
0.0218749
11.1462
0.0220153
3.76702
0.0935892
0.0244447
0.0221985
0.0580617
0.0974825
0.0706335
8.45032
4.5516
9.64029
0.0468207
0.0599208
0.0219585
4.81427
4.19798
0.0220482
0.743816
0.0220423
0.312565
0.022341
0.0222268
0.0231197
3.64522
0.0230844
3.49098
6.30526
0.135177
0.466453
0.022246
0.485837
0.420292
0.0220391
0.310371
0.0221497
0.0220276
0.0985621
0.0222616
0.022016
0.0218711
0.347425
0.0222478
5.57423
3.9695
5.16148
0.301557
3.42931
6.17272
0.0409177
0.022022
0.169184
0.0249523
0.029458
0.0220962
5.81888
4.41848
3.9978
0.0249174
0.106023
0.0245594
0.0255955
0.0702487
0.0229036
0.258018
0.0222808
0.0220968
4.17582
3.63073
3.632
0.126214
6.14825
3.72703
4.36761
5.78685
0.0216367
0.055994
0.0229611
0.0220729
0.682863
0.0521977
0.0218824
0.0607672
0.0388495
5.84932
0.0220349
0.112942
14.5843
0.729136
4.442
0.0222552
0.0220549
0.0224268
0.0348625
0.0217708
4.29469
0.527617
0.032084
5.40327
0.0265036
0.112492
4.51708
0.787257
0.130698
0.288243
0.11257
0.0593449
0.158681
0.0415189
0.149576
0.594521
0.0468775
0.0792928
0.0218669
1.88433
0.0273049
0.0216576
0.0334241
0.0227897
5.41159
5.97256
0.0218982
0.0216169
4.49206
8.77583
0.0222618
5.78584
0.022759
0.221475
0.0219123
5.06898
2.18017
0.0282759
0.0222964
3.40689
0.254356
6.9531
0.0222694
6.53075
2.44179
8.82173
0.0216671
4.62592
6.52119
0.0415835
0.0218883
0.0222801
0.0747969
0.331993
0.021817
0.0219014
0.0219601
0.0219545
5.18758
0.760313
0.0409941
0.319013
0.0219678
0.0218266
0.103811
5.34685
0.0329459
0.0219135
0.0220234
0.0220653
8.75725
5.94395
0.0221743
0.0220644
0.204001
0.041201
0.0327106
0.0220479
0.023195
0.0268191
0.0774674
0.408416
0.328314
0.17258
0.0951349
1.66833
0.0762746
0.0219774
6.1758
0.0220689
0.0237135
0.0240902
1.83003
0.0751891
0.021832
0.729671
0.111151
12.6765
0.0961512
0.0356316
0.0408727
0.0221897
6.88299
0.506589
4.28187
0.0221993
0.029186
0.319258
3.99372
24.5052
0.0656333
0.146033
0.0248907
0.0240413
0.0220507
0.0540844
0.0867987
0.0221642
0.0530173
0.134402
4.37303
6.2704
0.0239719
0.108856
1.56284
0.0283484
0.0223837
3.5166
6.42619
5.72709
0.287718
0.0216213
5.60247
0.0732213
0.0218658
0.0311884
0.0724547
0.0344347
0.0963433
3.94692
0.154563
0.0369067
6.82622
0.0230759
7.26472
0.0222375
0.0221676
4.37714
6.37642
0.633046
0.0230708
0.0225415
0.0220676
0.0421145
3.3608
0.119546
0.0242386
0.121889
0.0569584
0.0219166
2.01655
0.116155
0.263755
0.0219485
0.14974
0.0227672
10.2779
0.0652658
0.0749362
0.0294938
0.0218826
0.0216766
0.0220626
0.11837
0.0276721
0.329132
7.18156
0.0571525
0.0218706
0.151098
0.659245
1.18216
0.0218926
0.0270775
0.0219092
0.0284411
0.0249911
6.34955
0.0222287
4.19046
0.0281979
0.149324
0.0866677
4.39392
0.0778928
0.0222351
4.36625
17.8351
0.0220293
0.0240118
2.3528
0.230782
0.115612
0.0222376
0.0223242
0.347157
0.0245761
0.0700478
0.063358
0.0216775
0.0534659
4.81535
0.0218755
0.0228927
0.0219799
5.50765
0.0222656
0.0245878
6.15913
0.0233023
6.32943
0.0268841
0.0364859
0.0219725
0.0500347
0.0220263
0.057901
0.0218881
0.0842935
0.0227606
27.2746
3.00693
5.38289
0.0223082
0.0222062
0.0722478
0.0478765
4.74798
5.68165
0.051579
0.0220316
0.342653
0.652146
0.261087
0.277312
0.0493551
3.89032
0.0390098
0.0395301
0.145039
0.181633
0.0508612
1.09919
0.0503445
0.0234165
0.0770533
0.0273478
0.0217308
0.0282368
0.0449171
0.0277029
0.0220333
0.0219292
0.0571881
0.0232368
0.0709025
0.0220338
0.0220572
0.0222733
0.0230986
0.0215377
0.0256929
0.022
5.24633
0.0626021
0.357996
0.0217946
0.0222472
0.0480385
0.060389
0.0226882
8.2907
0.0788823
11.2641
0.0282945
0.120965
0.0223825
0.0222688
0.0219373
0.0230924
7.90577
0.022255
4.07319
0.0259675
5.97188
0.0491977
0.0802121
0.146685
0.0216769
0.022291
0.0637216
0.0220457
0.0223902
7.92834
0.0226764
0.0221805
0.0276436
0.0219443
0.0216738
0.0277628
0.0279616
6.03195
0.0347922
0.0218743
0.0218795
4.02437
0.116253
0.0221864
0.0222024
8.16911
2.07557
8.738
0.0357547
0.023426
0.0217863
0.0216558
0.0477497
0.0358308
0.238181
0.0251354
3.85183
0.0222783
0.0236057
9.45
0.0220488
0.0274506
0.0219866
0.0220809
0.0435482
0.0433597
0.02244
6.28926
4.35914
0.0878233
0.0219735
0.0215908
0.115642
3.39639
0.0222612
1.16864
0.0215908
0.0423316
0.0217201
0.0217693
0.34317
0.021967
3.26965
0.0395562
0.0222732
0.0216153
0.022067
0.0219098
0.0228117
4.14845
0.021842
0.0217589
5.27246
5.9251
0.0380466
0.0464887
0.0663037
0.0249477
0.0217805
0.0280661
5.08574
0.0890825
0.0221306
0.0222411
5.78071
0.0355349
4.49247
0.0222662
0.0227962
6.60982
0.0330565
0.0225132
7.98855
1.7379
0.0219067
0.130876
0.0219347
0.021944
0.0217819
4.38016
0.0215307
0.021893
0.0217747
3.44121
0.0245101
0.219554
0.0626766
0.0217594
0.032806
0.0221743
4.39779
0.0219659
0.0218585
0.0221815
0.120133
0.0221737
0.15432
5.79994
4.785
0.026555
0.346891
5.39594
0.0220063
6.98236
9.75196
4.88231
3.44812
5.16439
36.8034
0.140546
0.0223051
3.87084
0.0330027
4.11526
0.021662
0.0218737
0.0221868
0.0221675
0.0257162
0.0309528
4.62953
0.0218638
0.0220717
6.42688
0.291347
0.0220676
0.0383188
0.0293116
0.0221772
2.80036
0.0397651
0.0237293
0.0244499
5.74706
7.87382
1.2985
0.0217048
0.257144
0.110889
4.65185
6.06813
0.0869092
0.0219078
0.0224415
0.0222807
0.0214971
0.0231841
0.0216297
0.0269288
0.0379676
5.67707
0.128756
0.021907
0.117896
4.3992
0.0412193
0.0223006
6.51854
0.0218665
0.0223114
0.0376353
6.67571
0.0221739
0.0219494
4.44745
0.205872
1.13536
0.104649
0.718158
0.0219249
0.171947
0.0223293
0.0220002
0.0223239
4.26853
6.40907
0.0217506
0.0216114
0.0220055
2.50103
0.0229722
0.0293524
0.0220462
0.0224076
0.167025
0.0217741
0.0590865
0.342949
3.62757
0.0219775
0.0826037
0.0241472
4.56887
4.34498
0.0220179
4.53187
0.0707953
1.45038
0.0221726
3.59311
0.0222454
0.0264067
0.0422989
0.104721
4.49957
0.335653
0.170559
6.5191
0.0218642
0.289429
0.0217593
0.0273263
4.44673
0.0220824
0.0222529
0.0227602
0.0221531
5.21568
0.0216726
0.0220843
0.0543745
0.0465275
0.0492768
0.593722
0.128047
7.71037
0.0638514
0.0347871
0.0385858
4.69581
0.0391077
14.342
4.08445
0.0251997
0.0217762
3.31372
0.264461
0.0222927
0.108861
0.0333303
0.0222705
0.0260939
0.0221939
0.0423019
0.0222921
0.0483596
0.107644
0.0218827
0.0601541
0.0217959
0.0593261
0.0218835
0.0260809
0.0572386
0.0233703
0.022071
0.0217602
2.0919
0.0801283
6.19925
0.0220132
0.0221193
0.058218
0.0219876
0.0903021
0.0802524
0.0222723
0.0940179
0.021781
10.1403
0.0222566
0.0364468
5.39362
0.286248
0.0219318
0.0235551
6.79603
0.0220026
0.0219208
4.50686
4.26099
0.0242157
0.15999
0.0221043
0.0220641
4.31685
0.0229653
0.0216871
0.257137
0.0217987
1.88409
0.0221982
0.0216905
0.0221871
0.130173
3.69568
0.0221156
0.0222574
0.0219258
0.0257889
0.0220778
0.985007
0.0580499
0.0222688
5.72118
0.0494737
0.296019
3.74626
3.64739
0.0217394
0.0222434
0.0220375
0.748498
0.0262753
3.73731
5.77844
0.0238843
4.34762
2.31766
0.0487889
0.142185
0.0690243
0.38232
4.53725
0.0628523
1.00856
3.89142
0.0624503
0.0251085
4.52228
0.0539315
0.0216735
0.0232109
13.7781
0.0378684
0.0218919
0.0520064
0.0994186
0.0381859
4.40613
0.0236769
6.51196
0.0386617
0.240975
0.123526
0.275166
0.0286388
0.0217735
0.0225495
4.78315
0.021996
0.0240757
0.0217984
0.02321
0.0218655
0.0351173
0.14715
1.91103
0.0447368
0.058747
4.0157
0.353783
0.021857
2.15199
4.18546
0.0217256
0.0219119
0.0303989
6.75953
0.0222544
0.0684483
0.605294
0.0474875
0.0220582
0.0230328
0.0218127
0.1092
0.0392179
0.0219911
31.0906
3.90407
0.0426871
1.42498
0.0633029
5.2315
0.0232391
0.0252282
4.30384
2.04104
0.0877689
1.75724
0.028081
0.0222763
0.0219299
0.0221631
0.022027
0.0226185
0.0522332
0.0219401
0.120187
0.0219431
0.0281663
0.0217413
0.0796545
0.119172
0.781422
0.0219942
0.272289
0.0219285
4.41041
0.022037
0.0256256
0.0221246
0.253046
4.68947
0.137382
0.021934
0.129124
0.0220182
0.0294985
4.21975
0.0219196
0.022344
0.0448277
0.0311616
4.34794
0.0219415
0.0296119
0.023022
0.0220419
0.032108
0.0224473
0.0217493
0.0236332
6.45805
0.0243314
0.2353
5.7595
0.0508959
3.59657
0.0240943
0.0217556
0.0308082
8.37308
0.0232241
0.0361977
0.0411513
4.48814
0.0218963
5.74189
0.061584
0.0691177
0.0217162
0.0216304
0.16471
0.0224112
0.0222859
0.0336142
0.0216721
0.0243489
0.0283087
0.0683482
0.27135
4.34628
0.0249497
0.0720276
3.00458
7.50744
0.0367621
0.261664
6.61642
0.0386945
13.2456
0.0236569
20.2814
5.28123
0.0216546
0.022262
0.0219565
0.0225253
0.0444769
0.0217422
0.0238837
0.0870045
0.0232035
0.0352437
4.28921
0.0300722
0.0240033
5.76787
0.0225187
5.69699
0.0241633
0.0540168
0.021886
6.8084
6.04979
0.022017
0.0226393
3.75052
0.029403
6.7308
0.0220232
0.0217964
4.36682
0.0226278
0.0441042
9.79246
0.0220662
0.0538914
0.0289343
0.0216261
0.0219042
3.83424
5.62721
0.0221806
0.023398
0.0220498
0.0263843
0.0361909
6.07733
0.0226489
2.5645
4.19778
0.228271
2.84878
0.0225799
0.118865
0.193226
0.0289425
0.0220619
0.0585316
4.11038
0.0233497
0.0460539
5.03462
3.63988
0.299469
0.0251858
0.0222502
0.0222463
0.0220685
7.51374
0.0537721
0.0236859
0.0227452
0.0242494
0.02227
0.021974
0.0220427
0.0708014
0.0371995
5.62219
0.046595
5.07582
3.40561
0.0302799
0.0497492
0.0218122
0.0283793
8.26041
0.022118
0.0235015
0.0502869
0.115676
0.0563038
3.86497
0.221139
0.021871
3.94932
0.0215939
0.0222206
0.0460679
0.0222735
0.0219088
0.166065
6.89766
0.0218045
4.23275
0.0220998
0.0217295
0.0234192
2.68915
0.0289084
0.0241358
12.9215
0.0228744
0.240357
3.41853
0.0222462
0.0476962
0.0220116
5.89562
0.0696701
0.0220445
4.11187
0.0528672
0.0785663
0.0222785
6.57127
0.0290899
0.395913
0.0228342
0.0715919
6.87563
0.0217507
1.45789
0.0221059
0.0612365
0.0521017
0.0222453
4.56305
0.0235499
0.113329
0.0567201
0.0966633
0.040213
0.0437892
0.0225789
4.99589
0.0317048
6.99724
0.0298416
0.0624923
0.0219575
0.0434123
0.0220447
0.0674005
4.65204
0.022723
0.0218265
3.42829
0.0227609
3.20436
0.0224356
4.32559
0.278975
0.0349301
0.021992
0.021941
0.0221099
0.0216284
0.101657
0.0560075
0.0386193
0.0256543
0.0220837
2.19903
0.0234758
0.0337359
2.5128
0.0220328
13.9449
0.0501551
0.0293291
1.25977
4.362
0.322798
4.48686
9.21565
0.0218894
0.361978
5.00056
0.340684
0.0221737
0.0222174
0.111496
4.04038
5.57048
0.627313
0.0222519
0.0504115
0.0393627
3.42622
4.89264
0.0411231
0.124986
0.0238381
0.0799912
0.087519
0.0221655
0.103684
8.09909
0.0221311
3.07341
0.0222533
0.0219447
4.68462
4.04924
0.0218512
0.0223241
0.0224383
0.0218039
0.0483819
0.172343
0.0230013
0.0219901
0.0220993
0.0393356
0.0276011
0.0273512
0.335304
0.0220269
4.13929
7.59687
4.33444
0.152753
0.0515996
0.873965
0.0329104
3.82338
1.6381
9.26276
0.0224017
6.83803
3.48351
0.0217701
0.0220372
0.102646
4.54113
9.89742
0.021761
0.0220234
3.61805
4.28808
6.18367
0.0239041
0.0239077
1.87758
0.0221889
3.74546
7.28103
1.05603
2.37857
0.0220624
0.0219249
0.0218885
0.0261492
4.13093
0.0392505
0.0252654
0.0226288
0.0857197
7.1665
0.0393031
6.15264
5.32819
5.25438
2.17018
0.0220519
0.0221726
4.34488
0.0216614
0.0216722
0.0230272
2.81332
0.0366637
9.5044
0.130488
0.0220276
5.52039
0.0390467
0.0218697
6.06468
0.168234
0.0250712
0.0220721
5.10603
4.53476
0.0221805
7.50782
4.27547
6.31747
2.18989
0.0819094
0.0219282
0.0225164
1.75986
0.0254098
4.4907
0.0412306
3.11848
0.262929
0.0228878
0.0289644
0.0219246
0.0226927
4.74056
6.93338
0.0220688
4.88311
0.0418762
0.0220304
0.0247764
0.021936
0.160089
0.0224172
2.29441
0.0512804
0.0219193
0.0218754
0.0960282
8.08159
0.0383433
0.023931
0.0423194
0.0220396
0.023061
0.02706
8.79851
4.11317
4.53677
0.0217206
0.0218687
0.0223412
0.119927
0.0218768
0.0223863
0.167348
0.0573133
0.651975
0.0216426
4.50881
4.08378
0.0222843
8.88245
0.112675
0.0363618
2.05161
0.0222898
5.1494
0.0294675
0.0230391
0.0238882
0.0216578
0.20999
0.0224467
0.0227033
0.0307894
3.53042
3.63215
0.0222462
0.0220231
0.0234446
0.0219795
0.131914
0.0224319
0.0830898
0.0234451
4.16214
0.0226053
4.27939
0.0217219
5.68128
0.0223719
0.0216416
7.07405
0.317202
0.113139
0.895704
0.0442128
0.0399222
0.0220452
5.19347
0.0220646
0.0218832
0.0874488
0.0623808
10.1914
4.5048
0.121017
7.01923
0.128136
0.777118
0.0218893
0.0247866
0.0275911
4.1995
0.0248444
4.32009
4.50774
0.0221559
0.0220695
0.0220115
1.55372
3.33215
0.0232744
0.0221104
0.0256841
0.0278993
0.0373802
0.382659
0.31765
0.0220651
0.643295
0.0839647
8.50733
0.0708518
0.0232375
0.0238034
5.34069
0.0218856
0.0879891
4.61831
0.0227133
0.025289
0.172048
0.13509
0.0227546
6.6019
0.0242661
0.291298
0.0394989
0.0302342
0.0226811
4.46371
0.0218618
0.0968162
1.4473
4.89658
0.0489994
0.0661044
0.0254043
0.047628
0.0222658
5.10279
0.0264331
0.0219641
0.0295401
0.0220928
0.0222692
2.97029
0.0220693
0.0221794
0.0220435
0.127399
0.0222491
0.0329036
0.0707694
0.231636
0.115737
0.0222537
0.238939
0.475071
0.220713
0.0839894
0.0273929
0.155063
4.79338
0.638819
0.0222845
7.67061
4.22251
0.0222839
0.0240295
0.0216479
0.702127
0.104882
0.0220228
1.29145
4.24985
0.0218128
0.0222151
3.79081
4.18124
0.0637799
0.0216606
11.2807
3.29467
3.26943
0.0220294
4.21855
0.0804177
0.0706469
4.45175
0.025976
0.0216597
0.0297516
0.188228
0.0315648
3.99958
4.58728
0.0218208
6.53397
0.511581
4.60107
0.0217193
0.0519324
0.0222947
0.021925
4.21199
2.75416
0.281597
3.56878
0.0292163
0.0498253
0.0222037
4.7596
5.94747
0.0220491
0.0222375
0.0318155
0.0217966
0.0499234
4.53642
7.54256
0.050365
0.0224403
0.0221176
4.21795
0.0249708
0.0518618
0.0218
0.0229674
0.714241
3.08479
0.313018
2.92821
0.0221712
0.30006
0.0223002
0.0476767
9.90611
6.83841
0.0220741
0.0222938
0.0349444
0.0257046
0.0221908
4.48397
4.22893
0.0217787
0.0215189
0.0221911
0.0219703
2.68604
0.021729
3.91741
0.101726
0.0622353
0.0218547
0.0475484
4.73913
0.0331229
0.445745
5.9298
0.0222453
7.12749
0.0331201
0.0354429
0.359494
7.25019
4.66657
0.0588258
0.0218993
0.253809
0.0217394
0.025275
0.0222094
3.92334
0.0316438
2.2417
0.263318
0.0478561
0.0221252
0.29019
0.0266722
0.0222704
0.253075
0.0216016
0.0372786
0.033747
0.0221717
9.94231
0.0233517
0.557402
0.0228199
0.0219387
5.63771
3.72093
0.0241088
0.0325894
0.0383653
0.0573524
0.0571285
0.0260155
0.0258553
0.0250654
0.220717
0.0250228
4.03935
0.0596543
0.219069
0.114517
0.0226019
4.64988
0.0216126
4.56275
0.0242154
4.40072
5.1254
8.69995
7.66806
0.311372
0.076921
0.0219935
4.35575
0.0850063
0.0220439
7.94805
5.6858
0.0232726
0.0236666
0.030544
0.0305486
0.0319102
5.24625
0.022284
0.0294381
0.0344951
0.0321462
0.022165
0.0829213
0.0216123
4.14162
0.0236491
0.132421
0.0315907
0.0391209
0.123061
3.11824
0.085603
0.0218365
0.243136
4.33101
23.071
0.0223545
4.18863
0.028687
1.79297
0.0220648
0.0244861
3.88905
0.050737
5.06012
7.41235
0.0334284
5.08333
0.021971
0.0216016
8.92736
0.0594349
0.0244071
5.46527
0.0268048
0.0456601
0.029303
0.0705241
0.0221526
5.74178
5.273
7.01289
0.286182
0.0253772
0.056619
5.04081
0.0240192
0.0223044
0.0817719
0.021695
0.293976
7.91706
6.44029
5.42417
0.0543776
0.0224178
4.25436
0.0215993
0.0722669
0.0222354
24.3456
0.0237474
0.0473086
3.76579
0.117519
0.0220287
0.0320481
9.35079
0.0220764
0.142393
0.0217902
9.60705
4.3384
0.111496
0.082061
0.0219538
0.205119
0.134049
0.0389081
0.0217953
0.0224509
0.0221472
0.0534287
0.0221243
0.0838722
0.0221251
0.0217967
6.63309
0.021862
0.0266971
0.0249276
0.0222748
3.67463
0.0218592
0.0336906
4.07479
0.0476637
3.95122
0.0220633
4.56347
0.0500575
5.24511
0.0235326
0.123284
0.0221453
0.0403861
0.119741
0.109729
0.250008
4.18633
0.215412
1.84639
0.0269801
0.108276
0.0417363
0.702387
0.0250508
0.0220947
0.0220314
0.0507265
0.0461019
2.149
0.0526107
4.67664
6.87543
0.100427
0.0220047
4.22543
0.199935
0.0224691
0.0240585
0.0220723
4.90384
0.0220347
8.31431
0.0218501
0.0268155
4.95403
0.0782433
0.0220455
0.0220262
7.86683
0.0218713
0.0240324
0.0250981
0.0323886
0.0275042
0.0221598
0.149091
0.0817065
0.0437578
0.315749
4.46886
3.6685
6.20094
0.021737
0.0219878
0.101599
0.0224283
0.0473354
4.13335
3.79892
0.0216571
0.0220454
3.40737
0.341308
0.021673
0.021838
0.0265828
13.4015
4.06835
0.0264183
0.033877
0.0222
0.371854
0.122544
0.141551
0.0317526
0.0440163
0.0224159
0.0379077
0.313805
0.0227675
0.0221337
0.026229
4.59002
0.0251765
7.33994
0.0221084
3.8536
0.0363658
0.0278486
0.0217804
0.0219282
0.795923
7.90761
0.0583549
4.26073
9.90563
0.0225258
4.06573
0.139432
0.0218928
4.49456
0.242896
0.11189
0.0222538
3.51262
4.54757
0.0219423
0.039475
4.30529
0.0447474
0.022049
0.0217897
0.022374
0.0238251
0.081298
0.29607
0.0780581
0.0773376
0.0217236
0.0221896
4.64164
0.0218414
0.0481346
0.0265361
0.0221106
0.0498899
0.0220279
0.0237038
0.335266
0.0220018
4.5328
0.0220236
14.3071
3.69915
0.0928691
0.0222378
0.0222927
4.2719
0.0216461
0.024126
0.0223371
0.336805
1.04373
0.0334247
3.70623
0.041897
1.11881
0.0225411
0.0678333
0.0217891
0.0221406
5.06134
3.7574
1.30885
0.0237296
0.0679915
0.0678977
4.81939
4.14005
0.315075
0.0390852
0.0215944
4.20866
0.021902
0.0219608
0.292244
0.11071
0.0282659
0.199395
0.0472051
0.0315291
0.0275265
5.29747
0.0242853
0.0219956
6.7979
0.0468806
0.021716
3.48669
0.0220349
0.0221129
0.159726
0.152086
12.3656
0.0217328
0.0247705
0.0219172
2.21816
0.0218663
0.560502
3.89423
3.6219
3.47416
33.0088
0.0302056
4.51661
0.866104
0.0222102
0.0305647
0.0436215
0.0303602
1.2346
4.17848
4.49554
3.58025
2.38123
0.0221515
0.103326
0.0220423
4.84109
0.0284484
0.0230936
0.0240334
0.0226692
0.0218816
0.103968
4.4989
0.0217245
0.0235952
0.0218672
4.59871
0.0234488
5.68317
3.86434
1.2366
0.0220957
0.0218879
4.43465
0.3989
0.02214
0.302636
0.0222284
0.141367
0.187249
0.0937899
0.050516
10.5361
0.021799
0.0217903
0.223194
3.35823
0.029235
0.0467645
0.0219366
8.58397
0.0220145
0.0219552
0.0231191
0.021995
5.33908
4.06403
1.41026
0.0588736
4.29058
0.468045
0.0216627
0.0307732
0.0217001
1.26561
0.0219818
0.0248209
0.0219993
0.0219234
0.0217763
2.82143
0.02277
1.69968
0.021597
0.0325691
0.0229099
1.57247
0.0220492
0.0312419
0.0345582
0.0694346
6.94186
0.0219195
4.27447
0.0684214
0.0454828
0.0219785
0.021951
3.53347
16.1093
0.0219971
0.0218804
0.272456
0.241717
0.0381563
3.99937
0.0227479
0.352323
0.0309473
0.0217086
5.45675
0.0229631
3.94662
0.0220297
0.0226637
0.0221218
4.2712
3.60604
0.0216775
0.24607
0.238614
0.0220615
0.021862
0.0219012
0.26053
4.06833
0.064289
0.0241555
0.0394187
0.0220329
0.0220486
0.0236367
0.0220072
0.180591
0.0220622
0.0620269
0.624306
0.0358639
0.0216216
3.96977
0.0727601
0.0220419
0.0804134
0.0303082
1.20112
0.0245247
10.3624
0.0564957
0.0219923
0.0866906
0.0858658
0.0245736
6.10327
0.0585565
0.0294563
1.5394
0.0219395
0.15114
0.088188
0.127078
0.0219434
0.021975
0.0216428
0.0335372
0.0544826
0.0533171
6.48224
4.65608
3.89765
0.0222668
1.90122
3.76308
4.29694
0.0220006
0.0220243
0.05286
4.18771
0.0241477
0.0347791
32.2509
5.06519
16.3191
0.114218
0.165793
3.39415
0.386025
0.0216119
11.2141
0.273138
0.0223066
0.02232
0.0227963
4.75846
0.0964504
5.30693
0.0239333
7.95111
0.0221195
1.12185
3.85252
0.0222087
0.0336851
4.31093
4.70874
0.0551244
0.022831
0.023706
0.0223846
0.227543
0.119171
2.38552
4.19722
0.0217496
5.28586
0.167297
1.06811
0.0220308
0.0221654
2.40884
0.262595
0.0219598
0.0496728
0.0736924
0.0391656
4.09984
4.62387
4.76143
4.17907
0.0254497
0.0216635
0.0665268
4.54666
10.3063
0.0219353
0.275585
0.0908382
0.450951
0.0224419
0.0222564
1.20217
3.68298
6.40591
1.66331
4.24386
0.0219613
0.243377
4.16323
0.022234
0.062408
0.106029
0.0216865
0.160399
5.01194
0.247976
0.0222554
5.28395
0.116184
27.5176
0.0215113
0.0235753
0.0221551
0.0230839
0.0221223
0.0537191
0.0403052
0.0425148
0.334056
0.033363
4.23689
0.025291
0.0286372
0.0279915
9.10974
0.0580217
5.02153
0.0280645
0.0278453
19.1824
0.0967024
0.0220706
0.0422407
3.63642
5.36374
0.314082
0.0219747
0.0219106
0.021934
0.89549
0.0231451
2.48767
1.32841
0.260036
0.0318584
0.254756
5.61349
0.0221233
7.35743
0.0335579
0.0510359
0.0219414
0.0219058
0.0528824
4.42288
0.0220809
4.96755
0.510766
0.0974035
0.188432
0.0218745
0.022026
0.0297036
0.0228662
25.7822
25.1194
0.0841695
0.801531
0.0219613
0.0220808
0.0221629
0.0222458
7.6955
0.0231649
4.56878
0.0872368
0.0224697
0.385226
2.48071
3.47789
8.61961
0.0234889
0.0217727
0.022131
0.0234254
0.74616
0.243499
6.00907
0.0221556
0.0223948
0.160539
0.0222602
0.197982
0.023685
0.151165
0.171788
0.0413358
0.0397701
0.0217277
0.0467978
0.0381601
0.209524
0.0815317
0.0423866
0.0218709
0.243919
0.0218883
2.958
3.68525
0.931301
0.0220724
0.109627
0.0220186
0.0486862
0.0229435
0.0226626
0.0282013
8.96673
4.07731
0.0791565
0.0472868
0.230499
0.077778
3.99967
4.33743
0.0309401
4.26509
0.352679
0.0218499
0.0567589
4.35996
0.0976756
0.0222362
0.053584
2.25639
0.396572
8.3811
0.0221327
0.666808
0.0220983
0.0219313
0.0415535
0.251594
0.0222639
4.25895
5.2229
0.199916
11.2896
0.374084
4.84453
0.315164
0.0217269
0.0247178
0.0216503
0.0434769
0.288348
0.407588
0.0243467
0.0417473
0.0216367
4.42839
0.0380991
0.0472711
4.10016
0.0999424
6.81782
4.82754
0.0219688
6.76975
0.0221177
0.0283071
0.0475191
3.89492
0.150208
0.0278261
0.0231567
0.573417
0.034266
4.31913
6.03019
0.0323985
3.2934
0.0446372
0.022273
1.16244
0.0622195
0.0229932
9.09043
15.4879
0.0297299
0.0260358
0.12857
5.92093
0.0219576
0.022207
0.021673
0.0217613
0.0223334
4.83258
0.031523
3.95865
0.0219579
0.0219318
0.841188
0.0221763
0.0237758
0.0220589
0.0220339
1.58027
0.0217597
4.73876
0.0219903
0.0230399
0.0413109
0.0221772
0.146001
0.0217718
0.0222651
0.0217896
0.0276094
0.0894647
0.0244102
3.69206
0.0219348
0.043619
0.0295557
4.3151
0.0227573
0.0222688
0.0217036
0.0216876
0.395981
0.0219066
0.0218926
0.0245214
1.83031
0.0219369
0.0428168
0.03259
0.0220169
4.87504
6.78499
0.243422
4.94496
0.0247429
0.108945
0.0221517
0.100252
0.342581
0.0222919
1.70227
0.128351
4.60485
0.0307198
0.0220334
1.58362
0.0432494
0.778899
5.19446
0.0215839
0.0219841
7.47372
3.27938
0.0585138
0.0563639
0.0230454
10.7275
5.70711
0.0215151
0.0219673
0.0220964
0.0221737
0.0222482
0.0220375
0.0355502
4.32371
0.0309805
0.0221909
0.43904
0.0219886
0.808408
0.0458495
0.0220748
0.0273946
0.0219165
0.36378
0.024878
0.0519906
0.0219617
0.0222491
4.5619
4.942
0.0221773
0.0507892
0.0444696
0.0309809
0.0239155
0.0222713
0.0227366
1.55353
0.549177
0.0397769
4.88335
0.02247
24.6185
0.10412
0.0258217
17.551
0.0230614
4.35374
5.37324
3.46934
3.60351
4.17273
3.75665
0.021649
0.0271397
0.02474
0.0216388
0.0217393
0.0290374
0.0766471
0.0217787
0.029395
0.119738
0.0755291
0.319669
0.204303
0.0334948
1.73412
9.51133
0.0339541
0.0248902
0.126383
8.847
3.88665
0.0255306
0.0216254
0.0218705
0.0217803
0.0316436
3.85016
0.366084
0.021745
4.70622
0.021982
0.136438
4.14981
0.0828684
0.191195
0.090244
0.331987
0.0228236
0.033293
0.0218664
0.237004
0.0219658
0.0229541
0.03293
0.149851
0.022177
0.0244776
5.70623
0.0218223
0.0220364
0.0290243
5.72105
0.114947
0.397291
0.0385823
0.0221498
3.39187
0.0372708
0.0232641
0.0220215
0.0306495
0.0265407
0.0220321
0.0277235
4.48189
0.0235409
0.0216541
0.0469433
0.0218836
0.0316874
0.030131
0.0220681
0.0219978
4.68399
0.0217182
0.0220334
0.0216588
0.0257262
0.0214825
4.94009
0.0257889
0.211713
0.021962
0.0218989
0.0220508
4.3938
0.0637172
0.0220413
0.021614
5.57865
0.0250653
0.0660653
0.0218607
0.148305
0.0233487
0.0215605
3.41366
0.0217622
0.0222572
0.0221471
0.0219825
0.0241415
0.0221272
0.0220365
1.62736
1.53376
4.64473
0.226238
8.50633
0.0218585
4.72953
0.0219682
4.07118
8.08015
0.0218012
10.4514
0.0219801
4.19878
11.763
0.268585
4.18776
3.98548
0.804567
2.06424
6.17058
5.25942
0.0430521
0.0418085
4.63204
0.0234899
0.0216643
1.3498
0.0238121
0.028187
11.8813
0.0229576
0.631655
3.69911
6.46162
0.382404
0.115185
0.0222519
0.0281872
0.0481312
0.0222563
6.96054
0.354768
0.10849
0.0219095
0.0220696
8.16337
0.0216963
0.70431
0.0218461
9.23127
4.5295
0.0339728
0.0260762
0.0219981
10.3321
4.05702
0.025389
0.033564
0.0222857
0.0222855
0.0570731
0.0231604
0.0320013
0.0660816
0.0242279
0.032558
0.0220406
0.0320539
15.4451
0.0224946
10.8003
0.0219516
3.50553
0.0548937
0.0220394
9.64693
0.12317
0.0218524
0.154144
0.0220383
0.275409
0.0221964
0.0220112
3.89005
0.0221463
0.105197
0.0233378
0.13568
0.021845
0.0223314
0.0218615
0.030017
0.0242172
0.0222892
0.0225918
0.0253353
0.0224434
0.121043
0.0636601
0.0294951
0.0233647
0.0216345
2.35336
7.58021
0.0227691
0.022527
0.0226456
0.0376713
0.0222141
0.0349273
0.0215717
0.0222853
0.241504
0.02333
0.0222846
0.0219045
4.85452
11.1465
0.0215994
0.0713287
0.0593055
0.233444
0.221968
6.94506
4.42809
0.637606
0.022899
0.134546
0.0219289
0.0313445
7.2592
4.51035
0.134136
0.0239217
15.6178
0.0220423
0.0463326
0.412463
0.0222222
0.132694
0.0234245
0.0232258
0.0743625
0.14367
3.92016
3.42983
0.0218331
0.0216009
4.81465
3.82195
0.022232
0.0290373
0.118995
0.0220583
0.0220163
0.0240528
1.93005
0.021775
4.30895
0.0294727
0.0222102
0.220912
0.0722813
0.0670872
0.114648
4.87574
0.0244102
0.034424
0.0273825
0.0237445
9.75565
0.0314649
4.21822
4.24347
0.0659677
4.14264
0.0459787
0.0476297
0.342486
0.0217283
4.40201
0.0886209
0.033586
0.0290776
0.022178
0.0216655
4.11478
0.042968
4.25931
4.30551
0.0221159
4.29689
0.0218378
0.0219555
0.028713
11.4312
0.073118
0.0216862
4.07324
0.0219905
0.0237782
3.94876
0.0236366
3.50966
0.0222727
4.49919
3.31368
0.0687291
2.26346
0.023367
3.49816
0.0216269
5.36639
4.8087
4.4729
5.14245
0.0219462
0.0218231
0.237642
3.74586
3.48994
3.86051
3.80011
0.0221364
5.00294
3.4881
0.0224073
4.45506
0.0315782
0.0329442
12.2188
0.0381176
4.38297
0.0219357
0.0377809
0.0343144
0.203647
6.3458
0.0367009
3.61134
4.44561
0.0221722
0.0246016
0.0237724
0.0247338
3.50267
0.0220147
0.0217637
0.039135
3.76142
3.96812
0.0280367
3.91161
4.19296
0.0219609
8.63591
4.75562
0.172213
4.03095
0.0661037
0.024355
0.0221727
0.155692
0.0263069
0.0804882
10.042
4.58728
0.0289767
0.0717137
0.0257684
0.0384177
0.0216554
0.0412231
0.0246917
0.090381
4.61524
6.3637
3.8362
0.0216654
0.128409
0.0619042
4.30136
0.0232366
4.74698
4.73152
4.37368
0.0221302
0.17238
4.59892
10.8754
7.51915
0.0363832
5.51576
3.3415
0.0617303
0.0670914
0.0240252
0.0292194
4.83732
0.0453983
0.0221864
3.35491
0.0220383
0.0222691
0.12032
0.120201
0.0218226
0.0889595
0.0246738
3.79213