/*--------------------------------*- C++ -*----------------------------------*\
| =========                 |                                                 |
| \\      /  F ield         | OpenFOAM: The Open Source CFD Toolbox           |
|  \\    /   O peration     | Version:  v2012                                 |
|   \\  /    A nd           | Website:  www.openfoam.com                      |
|    \\/     M anipulation  |                                                 |
\*---------------------------------------------------------------------------*/
FoamFile
{
    version     2.0;
    format      ascii;
    class       volVectorField;
    location    "550";
    object      ddt0(U);
}
// * * * * * * * * * * * * * * * * * * * * * * * * * * * * * * * * * * * * * //

dimensions      [0 1 -2 0 0 0 0];


internalField   nonuniform List<vector> 
13851
(
(-0.000208156 0.000808282 -2.15742e-20)
(-0.0465514 0.132774 3.23212e-18)
(0.00668399 -0.00601204 -3.10675e-18)
(0.000144131 0.000742917 -1.87819e-20)
(0.00333503 0.00241607 -1.79088e-18)
(0.030564 -0.00340509 2.38646e-19)
(0.00021805 5.68638e-05 3.98496e-18)
(0.00136823 -0.00267478 1.73989e-18)
(5.85278e-05 -2.81511e-05 -6.89324e-20)
(-0.00849687 -0.0174406 1.63919e-19)
(-0.0198746 -0.0670885 3.71243e-20)
(0.0315857 -0.118586 -2.64275e-18)
(-0.00457992 0.0117983 -8.216e-18)
(0.0427359 0.132167 -3.30684e-18)
(0.000356689 1.0692e-06 2.3907e-18)
(-0.0019442 0.000337634 -3.56049e-19)
(3.41054e-05 -0.000132215 1.59765e-18)
(0.00155163 -0.00264141 3.55395e-21)
(-0.000941968 0.0165599 7.3042e-19)
(6.21207e-05 -3.08867e-05 5.05996e-20)
(0.000191645 0.000637113 1.45709e-20)
(0.00667517 -0.00469699 2.34987e-18)
(-8.62755e-06 1.36902e-06 7.88259e-21)
(0.000100702 -1.54409e-06 -1.70831e-20)
(-3.96379e-07 1.47961e-06 -2.47544e-20)
(0.0011698 -0.00308166 -2.73145e-18)
(0.000262171 2.24889e-07 7.24832e-18)
(0.00602964 -0.0178849 -6.43774e-18)
(-0.000258981 0.000621615 1.8222e-20)
(0.000773493 -1.7987e-05 4.42703e-19)
(0.0342384 -0.0100642 1.81984e-19)
(1.76446e-05 -0.000163844 -6.51423e-18)
(0.00567304 -0.00654854 3.12226e-18)
(-0.0138311 0.160685 4.95741e-19)
(9.16802e-05 -2.88254e-06 6.2994e-21)
(-0.000307037 -0.00186236 -1.3504e-17)
(-0.000271892 -0.00419084 1.19814e-17)
(0.01889 0.00845141 -8.41734e-18)
(-0.00812399 -0.0200588 -3.59435e-19)
(-0.00209461 0.121613 -1.02737e-18)
(0.00017235 -3.90617e-05 -7.48024e-19)
(-4.29493e-05 1.66777e-05 -3.94296e-20)
(-0.01403 -0.0336018 8.01193e-18)
(-0.00452675 -0.100115 -6.63117e-20)
(-0.00626261 -0.0978774 4.63593e-19)
(-0.0554861 -0.0189587 -2.9216e-18)
(0.00128845 -0.113031 2.39811e-18)
(-0.0293063 -0.0253792 -5.72043e-19)
(0.000272982 1.63207e-06 -1.12839e-17)
(0.0103055 -0.0172572 -6.40415e-19)
(0.000242132 0.00139047 5.70938e-18)
(-0.0019495 0.00377248 2.42558e-17)
(0.00144805 -0.0671845 1.6188e-17)
(0.000380657 -5.01253e-07 1.45138e-18)
(0.000303004 -5.4764e-06 -9.52992e-20)
(-4.52256e-05 1.71065e-05 4.82022e-20)
(2.71175e-05 -2.24135e-06 -6.84798e-20)
(0.0261782 -0.0704227 2.09903e-17)
(0.000709778 -7.14986e-05 -6.5829e-20)
(0.000218726 2.81784e-05 -1.06149e-18)
(0.0212869 0.00723205 -4.6599e-18)
(0.026096 0.0789769 1.37984e-17)
(-0.00461085 -0.0193248 -5.47672e-19)
(0.00271014 0.003822 2.46878e-18)
(0.0458127 0.0315208 -1.16122e-18)
(-1.76395e-05 0.00208047 1.62759e-19)
(-0.00142939 -0.00438494 7.89069e-18)
(-0.000825872 -0.102728 -1.28337e-18)
(0.000717834 7.11373e-05 -5.83351e-18)
(0.00114526 -0.00288578 6.42103e-21)
(-0.00839178 -0.000459773 6.86712e-18)
(-0.00176413 -0.00445125 -1.90205e-18)
(-0.0356744 0.141622 6.48858e-19)
(0.000389291 -2.9351e-07 -6.76693e-19)
(0.000269894 -4.29286e-06 -9.76248e-19)
(3.28642e-05 -3.65662e-06 -4.11781e-20)
(0.00599655 -0.0043945 -3.35782e-18)
(-0.00141375 -0.000896297 -6.36922e-18)
(0.00175461 -1.66394e-05 6.01854e-18)
(-0.00977913 -0.00039521 5.7579e-18)
(0.000209879 9.37818e-06 -2.66351e-18)
(-0.000320563 0.0878016 1.13292e-19)
(0.000257034 -2.20604e-07 1.72427e-18)
(-0.0475043 -0.0321895 1.75541e-17)
(-0.00135829 -0.0207167 3.59485e-18)
(0.0291339 -0.115728 5.83187e-18)
(0.0177187 -0.00747063 -7.01548e-19)
(-0.108092 0.0687273 1.42683e-18)
(0.000221723 -0.00017135 -2.19847e-18)
(-0.000328955 -0.000209654 -2.60582e-20)
(-0.000426154 -0.00170013 5.79418e-18)
(-0.0119785 0.00521291 2.76725e-19)
(-0.0017368 -0.0866863 7.07076e-19)
(0.000366612 -0.000259113 -6.64311e-18)
(0.000233118 -0.000141066 1.93144e-19)
(4.55257e-05 -2.08869e-06 1.37994e-19)
(0.00302338 0.00283012 -1.96661e-18)
(-0.017163 0.008352 -3.95518e-18)
(0.00968326 -0.0202665 -2.20351e-21)
(4.92976e-05 -1.48626e-06 -1.11354e-19)
(0.071518 0.053754 6.52857e-18)
(0.00122388 0.000638673 5.47819e-18)
(-2.72476e-05 -0.00016246 -7.94216e-19)
(0.000242962 0.000166933 1.19079e-18)
(-2.66992e-05 5.46963e-07 -5.2889e-21)
(0.0127047 -0.0159917 9.37323e-19)
(0.000989978 0.000954414 -2.78588e-18)
(-4.0579e-05 8.33776e-06 -1.58258e-21)
(-0.00242398 -0.00373132 -9.92663e-18)
(0.0327286 0.00222598 7.25367e-20)
(7.7164e-05 3.86405e-08 -3.42345e-21)
(-0.000356513 -0.000299615 -5.66662e-21)
(-0.00932553 0.00479679 2.25909e-19)
(0.000111594 -7.48943e-07 4.29985e-21)
(7.71203e-05 -9.86818e-08 -2.67985e-20)
(0.0236354 0.138113 -1.64893e-18)
(-0.0155554 0.0096519 -1.82927e-18)
(-3.75073e-05 1.24227e-05 1.10501e-19)
(0.000193744 -2.50993e-06 3.01909e-19)
(0.000288341 -2.41455e-06 4.89215e-19)
(-0.00975616 -0.0379585 -2.6537e-18)
(0.000240724 0.000155361 -9.05964e-19)
(-0.00551193 0.0129291 -3.38374e-18)
(0.045669 0.0715275 -1.88245e-18)
(-0.0442982 -0.0197819 2.01815e-19)
(-0.0017983 -0.000843741 -5.31245e-21)
(-0.0535762 0.0142587 -8.27171e-19)
(0.00154046 0.000369774 8.71781e-19)
(0.000343315 0.000546937 -1.38014e-20)
(0.0060552 0.00786178 -9.30145e-18)
(0.000183643 -3.9669e-05 2.92873e-19)
(0.000130468 -2.39262e-06 -1.01821e-20)
(-0.00835928 -0.000700203 -8.21566e-18)
(0.000260234 -1.88204e-06 4.53485e-19)
(0.0154018 0.155802 -2.32949e-19)
(0.000154204 -2.21942e-06 5.88681e-20)
(-3.66699e-05 1.1519e-05 -6.9511e-20)
(-0.00152368 -0.00439252 -3.71221e-18)
(-0.00998833 0.0938056 1.89876e-18)
(-0.0350109 0.0323616 1.14769e-18)
(0.0463492 0.0415502 -9.13885e-18)
(0.000301801 -4.11136e-06 -8.18317e-19)
(-0.001568 -0.000225198 4.39332e-20)
(2.77491e-05 3.93468e-05 2.96429e-19)
(0.000137137 7.14468e-05 -1.67737e-18)
(0.00227388 -0.102208 1.20418e-19)
(0.00432068 0.0071817 -6.24965e-20)
(0.00738054 0.00789642 -1.03354e-18)
(0.000228479 5.2418e-05 -6.2645e-19)
(-0.010139 -0.077287 2.89853e-19)
(0.000413472 0.000173625 -1.22501e-17)
(0.000279941 -2.15122e-06 1.26685e-18)
(0.060573 0.120817 4.05195e-18)
(2.52601e-05 -1.56025e-06 -2.38801e-19)
(0.000184948 -2.61697e-05 2.70176e-18)
(0.000151338 8.39601e-05 2.51502e-18)
(0.000115082 -4.81598e-05 3.99606e-20)
(0.000445651 5.34685e-05 -9.93575e-19)
(-0.00179479 0.00427096 -1.53022e-17)
(0.000400811 0.00143135 1.21962e-18)
(-1.04906e-05 3.16315e-05 1.07256e-20)
(0.000434551 9.60545e-06 -2.81869e-18)
(0.0213141 -0.0663638 -8.3359e-18)
(0.000130238 -1.80166e-06 -5.24341e-20)
(0.00119877 0.00132903 -7.22813e-19)
(-1.88199e-05 1.53407e-06 -1.15507e-20)
(0.00354761 0.00971992 6.41647e-20)
(0.000714958 0.000127675 3.30669e-18)
(0.000334763 0.000461353 -1.55082e-20)
(-0.0377867 0.00694898 -1.42439e-17)
(-0.00142838 -0.000591246 1.16694e-17)
(5.07284e-05 -5.96436e-06 -6.77404e-20)
(0.000115445 -5.07814e-05 1.43868e-19)
(-0.0238258 0.0520397 -5.95048e-19)
(0.000131127 -1.49083e-06 1.90098e-20)
(-0.0308761 -0.052526 2.95609e-19)
(0.00156349 0.000235522 -1.74542e-18)
(-0.000488993 -0.00132885 9.18295e-20)
(-0.0027509 0.0164159 2.17262e-18)
(-4.3207e-05 7.92455e-06 -1.45582e-20)
(-5.40209e-05 -0.000210925 -8.44675e-19)
(-0.00163123 -0.00434849 -1.22783e-18)
(0.000272932 -4.91496e-06 -3.96212e-18)
(0.00753391 -0.00413498 -1.89705e-18)
(-4.6991e-05 -2.8354e-06 9.0021e-21)
(9.47377e-06 -7.5259e-07 3.51538e-21)
(-0.000455625 0.00207835 1.02375e-19)
(0.00029707 -4.17363e-06 5.63234e-19)
(0.00488452 0.00323512 5.90286e-18)
(-0.0244987 0.00856313 -4.70731e-19)
(0.00169148 -0.107747 2.2226e-18)
(0.00179404 -0.0697017 -2.93235e-17)
(-0.000616564 -0.000430787 -6.29183e-20)
(0.000806849 -0.000137935 2.83979e-18)
(0.0383919 0.0661478 -8.88186e-18)
(0.000174374 -2.49639e-05 3.90551e-18)
(-0.00123309 -9.24085e-05 4.26348e-19)
(0.031714 -0.0360339 -6.78593e-19)
(-0.000633729 -0.0010697 -3.40435e-19)
(2.19666e-05 -6.76067e-06 3.72918e-20)
(-0.00164198 -0.00129123 2.64098e-19)
(-0.0801399 0.0251438 8.26269e-20)
(0.000240011 -1.49498e-06 -3.68406e-20)
(0.000249802 -4.66573e-06 -1.80084e-18)
(-0.0156973 -0.00179245 4.36687e-20)
(0.00026266 -6.1862e-06 6.68915e-19)
(0.0722517 0.0177167 -8.10808e-19)
(0.000101335 -0.000170126 -3.67361e-18)
(-0.00514585 -0.00136794 7.89261e-18)
(-4.00005e-05 6.09486e-06 -8.92525e-21)
(-0.00231497 -0.00254852 -1.05984e-17)
(5.48372e-07 -0.000139112 -8.30063e-19)
(0.0088704 -0.0180057 1.06232e-19)
(-4.076e-05 -9.45382e-07 7.93112e-21)
(1.05458e-05 -5.21765e-07 -7.37994e-20)
(-0.0320901 -0.013824 -1.9491e-19)
(0.00419862 -0.0176213 -6.50007e-19)
(-0.0503937 -0.0226145 4.15385e-18)
(0.000340259 -3.61899e-06 -2.94059e-18)
(-0.00497078 -0.00146988 -4.10368e-18)
(8.09903e-05 -0.000192995 3.80891e-19)
(0.000209432 1.12343e-05 -3.72587e-19)
(-0.00569616 0.000923404 -4.60184e-19)
(0.000585145 0.00623966 -4.39478e-18)
(-0.00447628 -0.00257564 -1.13003e-17)
(6.83058e-06 -2.38053e-07 9.72254e-20)
(0.000492023 -0.000345486 8.91225e-18)
(-1.84209e-05 4.79046e-07 -2.82794e-21)
(-0.00710902 -0.0690245 -2.5897e-22)
(-4.23134e-05 -1.97259e-06 -2.50914e-22)
(0.000660045 -0.00310305 2.90293e-18)
(0.0492815 -0.0137521 1.07598e-18)
(5.08496e-05 -6.49784e-06 -1.43625e-20)
(-0.000563161 -0.000280873 1.79811e-19)
(0.0003629 0.000941263 -2.87852e-18)
(0.0102156 -0.00133862 -4.117e-20)
(0.0721141 0.0169216 6.58578e-19)
(0.0485935 0.0365568 1.9768e-18)
(3.43602e-05 2.15436e-05 7.60444e-20)
(0.000253451 -1.01742e-06 -9.40227e-19)
(0.0300674 -0.0143717 -7.40798e-19)
(0.00293985 -0.0534119 4.9653e-19)
(0.00012247 0.0003515 -7.0883e-21)
(-0.0181322 -0.00292156 7.09524e-19)
(-3.23867e-05 1.2794e-06 -3.61201e-20)
(-0.00510949 -0.00228628 -1.2708e-17)
(0.00135633 0.000697613 -6.94852e-18)
(-0.0149082 0.066501 -1.22671e-19)
(0.000172306 0.000126063 -1.88376e-19)
(-0.000216117 0.000210061 -1.89369e-18)
(0.00669432 0.00122085 1.72111e-19)
(-0.00373288 -0.0639829 -3.75339e-19)
(0.000213194 5.26016e-06 1.44757e-18)
(0.000150182 0.000117218 1.16513e-18)
(0.000591729 0.000657219 6.24464e-18)
(-0.0475335 -0.0200008 3.13079e-18)
(-0.0213969 0.01103 2.63587e-19)
(-0.00134094 -0.0042761 3.53707e-18)
(0.0119909 -0.00675506 1.13454e-17)
(0.000292573 1.29421e-05 1.04817e-18)
(1.40708e-05 9.9244e-06 -1.41163e-20)
(0.000324374 -0.00249045 -3.45586e-20)
(0.0662825 -0.0269573 -1.87389e-19)
(-0.000298 -0.000109464 2.97954e-20)
(-0.000427356 0.0219189 1.60507e-17)
(0.000174257 -2.65884e-05 7.21209e-19)
(0.000210702 9.11325e-07 -2.49169e-18)
(0.000336917 -0.000232095 -9.12791e-18)
(-0.00531691 0.00151303 3.36904e-18)
(-0.0134115 0.00411462 -1.45188e-20)
(0.00671926 -0.000129187 -2.14008e-19)
(0.000180039 -2.98616e-05 -3.66859e-19)
(0.0750636 -0.0149123 4.30669e-19)
(0.00158919 -0.000112879 2.93541e-18)
(-0.00175833 0.000637418 -5.14931e-19)
(0.000134801 -2.51816e-06 1.42542e-19)
(-0.00239593 0.0792807 -5.04222e-19)
(-0.0141451 0.0155664 -3.80825e-20)
(-0.00526548 -0.00230072 1.39064e-17)
(-0.0270686 -0.0490339 -1.0464e-19)
(0.000236147 0.000359089 9.41491e-21)
(-3.62437e-05 -8.3645e-07 3.68138e-21)
(-2.9824e-05 -4.06446e-07 -9.40581e-22)
(0.000626445 0.000611972 4.49099e-18)
(0.0715106 -0.0535294 -1.83463e-19)
(-0.0404073 -0.093779 -4.53987e-19)
(4.87748e-05 -3.19558e-05 1.39365e-19)
(0.000345245 1.4293e-05 -1.87795e-19)
(0.0716445 -0.0266359 -2.09163e-20)
(0.00893849 0.0548372 1.35731e-20)
(0.00770024 0.00949552 9.23712e-18)
(0.000618525 -2.58035e-05 4.56579e-19)
(0.000220887 2.40057e-05 -4.70466e-21)
(0.000883238 4.62697e-05 9.98251e-19)
(0.00793692 0.0720246 -2.20649e-19)
(-0.000903468 0.0203445 -1.09365e-17)
(0.000607347 0.00118568 -1.38363e-18)
(0.0226041 -0.11677 7.26084e-18)
(0.000124583 -4.95754e-06 9.62376e-20)
(-0.00469842 -0.0023794 4.37053e-18)
(0.000412121 1.43454e-05 -1.65258e-18)
(1.30044e-05 -9.64766e-05 3.82684e-18)
(-0.00468712 -0.00255283 1.72832e-17)
(0.000177152 -7.01614e-05 3.46266e-19)
(0.0160994 -0.0142912 1.17754e-19)
(-0.00360106 -0.00140447 7.87157e-18)
(6.57649e-05 -3.31038e-05 2.45264e-21)
(0.0007415 0.000461377 -3.42557e-18)
(0.000353992 -0.000309369 1.0288e-17)
(0.000560243 -6.31459e-05 1.19841e-18)
(-0.00942012 0.0796602 9.49964e-18)
(0.000663718 0.00131229 9.56464e-20)
(0.000220965 1.19051e-05 4.44873e-19)
(-0.00887441 0.00246143 -2.95377e-18)
(-3.95513e-05 1.16179e-05 -6.22742e-20)
(-0.000270015 0.000178853 2.79636e-18)
(-0.00157275 -0.00246089 -1.92076e-20)
(-0.00428847 -0.00250062 1.65541e-18)
(-0.000211507 -0.000715694 -6.93015e-18)
(0.000327389 -3.91298e-06 2.30149e-18)
(0.00092087 0.000752481 1.69388e-18)
(0.000328359 1.3846e-06 1.0681e-18)
(0.00450807 -0.00819414 1.57748e-18)
(0.009287 0.00358002 2.77492e-19)
(-8.43267e-06 1.52082e-06 7.71003e-21)
(4.48468e-05 -2.58122e-05 -5.20003e-20)
(-0.000335657 -0.000560503 8.63398e-18)
(0.000448007 -0.000316258 -2.2547e-18)
(0.000199342 -1.66862e-05 -5.69845e-19)
(0.000344709 1.46084e-05 2.29012e-19)
(0.00018833 -6.08693e-05 -2.06172e-18)
(0.0002219 1.37764e-05 1.02552e-18)
(-0.0160949 -0.0774788 1.83705e-19)
(0.0977036 0.0726221 6.46858e-18)
(-0.0416137 0.0289038 3.93461e-18)
(-0.00188235 -0.00524094 1.17721e-18)
(-0.00379002 -0.00266635 -1.16416e-17)
(0.0288177 0.0253464 -3.89504e-18)
(0.00036617 -9.42814e-08 1.60205e-18)
(0.000865837 -0.000193281 -1.57757e-19)
(0.00923204 0.00975287 -5.0362e-18)
(-0.0156521 -0.000671786 -4.69507e-19)
(0.0171619 -0.003753 -2.95269e-19)
(-0.00143101 0.00265559 7.06329e-18)
(-0.000315831 0.0184515 -4.64958e-18)
(-0.000868339 0.00364417 2.41158e-19)
(0.00292051 -0.000872298 1.39128e-18)
(-0.00361547 -0.0019482 -3.08755e-18)
(0.000374 1.79725e-06 3.35387e-19)
(0.0123433 -0.0154547 8.9607e-20)
(0.0100429 -0.0178544 2.80516e-19)
(0.0329016 -0.0183438 -3.95228e-19)
(0.000202222 -7.26926e-06 4.08097e-18)
(0.0196221 -0.00399509 -4.66809e-19)
(-0.00786784 -0.0709812 -2.27576e-18)
(0.000108491 -5.24701e-05 2.65509e-20)
(0.0158347 -0.0194539 2.05428e-19)
(5.38436e-05 -1.31616e-05 1.16698e-20)
(0.000341248 4.30281e-06 -2.31057e-18)
(-3.6399e-05 4.49763e-07 4.51662e-20)
(-4.10262e-05 7.28584e-06 3.00642e-20)
(0.00012823 -4.61807e-05 1.12051e-21)
(-0.00320899 -0.0020214 -1.54382e-17)
(0.0308854 -0.0382689 -3.09898e-19)
(0.000227503 4.1858e-06 7.28376e-19)
(0.000736581 0.000407487 7.2999e-18)
(-3.68026e-05 4.90962e-06 -1.04662e-19)
(0.0187761 -0.119226 -1.28262e-17)
(-0.00368272 0.00243213 2.60299e-19)
(-0.0168549 -0.0489942 6.04752e-19)
(-0.0356382 0.0147528 -3.37087e-18)
(0.000225394 8.91976e-07 9.21167e-19)
(0.00663639 -0.0195785 -5.5447e-19)
(0.000273553 -0.000390004 2.87647e-18)
(-0.0200851 -0.0397697 -2.93295e-18)
(0.000178827 -2.79133e-05 -2.16154e-19)
(-3.73523e-05 1.24973e-05 -9.52852e-20)
(0.0013974 0.00812187 -2.02663e-19)
(0.109422 0.0443582 1.45386e-17)
(0.000278416 -3.70827e-06 -6.88236e-19)
(0.01368 0.0596211 -4.54646e-18)
(-0.0160211 0.00268597 5.18205e-20)
(-0.00184412 0.00268869 -4.04875e-18)
(-0.0471377 -0.000625018 -2.10311e-18)
(0.0158732 -0.0354465 5.70888e-19)
(0.0198532 -0.0322675 -4.82509e-20)
(0.00289205 -0.00386386 7.4483e-20)
(0.000134143 -1.70301e-05 1.18653e-19)
(0.000411201 1.56884e-06 6.2302e-19)
(-0.00184151 -0.00423401 -4.87092e-19)
(0.000831654 0.00071779 4.8464e-18)
(0.0488941 0.125337 4.53402e-18)
(0.000667734 0.000198026 -4.98932e-18)
(-0.00378243 -0.00269068 -9.56005e-18)
(-0.00345894 -0.00161724 1.49958e-19)
(-3.35658e-05 3.46049e-06 -1.0981e-20)
(0.00029863 1.5267e-05 2.92899e-18)
(-0.0469741 0.0207616 6.90043e-18)
(-0.00890703 -0.000633959 4.29423e-18)
(0.0441915 -0.0193165 -4.84179e-19)
(-0.0136672 0.00791979 1.86548e-18)
(0.00242396 0.00957332 3.32247e-19)
(0.000314188 -0.000429292 3.99935e-18)
(3.19072e-05 5.64721e-07 -3.79466e-20)
(0.0245831 0.0228493 -4.7942e-18)
(5.59647e-05 4.8784e-08 2.07791e-19)
(-0.00173871 5.74775e-05 -7.85945e-20)
(0.00217134 -0.00339588 -1.19696e-19)
(0.000227982 2.12349e-05 9.08886e-19)
(-2.3022e-05 2.92846e-07 -6.99551e-21)
(6.68062e-05 -3.0195e-05 -9.46677e-20)
(-2.09167e-05 3.48307e-08 1.02701e-20)
(0.00222538 0.00352138 3.21662e-18)
(0.0139367 0.00327821 3.09572e-19)
(-0.00164549 -0.011106 -1.49002e-19)
(0.000287127 -0.00358925 2.79563e-19)
(0.000895663 0.000866714 -5.68178e-18)
(0.00706905 0.00700273 5.14278e-19)
(-0.0169676 -0.0591534 -4.87555e-19)
(-0.000350361 0.000388032 -4.36559e-18)
(0.0358161 -0.023652 -2.03166e-19)
(3.22677e-05 -7.03529e-05 -3.4274e-18)
(-0.0322716 0.00386622 -4.33397e-19)
(-3.69454e-05 1.11034e-05 -2.30043e-22)
(6.79576e-05 -3.16787e-05 4.95524e-21)
(1.61127e-05 -4.30199e-08 -4.65438e-20)
(0.0258408 0.0082517 -1.28172e-17)
(-0.00400367 -0.153675 -1.85409e-18)
(0.00212588 0.00651499 4.78846e-18)
(0.00532089 0.00722386 -3.19575e-19)
(0.00357235 -0.0113482 3.48277e-18)
(-0.0160562 0.171302 8.79073e-19)
(0.0151863 -0.00988092 1.00236e-19)
(0.000286212 -1.40826e-06 -1.1034e-18)
(0.000283315 0.000893552 -9.98927e-18)
(0.000184672 -2.75893e-05 -3.8639e-19)
(-0.024114 -0.0634135 4.59048e-19)
(-2.56487e-05 1.89603e-06 -1.25544e-20)
(0.0497072 -0.0439219 -3.21772e-18)
(-0.027408 -0.0575116 -4.06039e-19)
(0.00339833 -0.00768622 -1.33101e-18)
(-0.00423936 -0.00112195 4.02754e-18)
(-0.00106343 -0.00109749 8.67166e-20)
(-0.0011405 0.0246104 -8.59128e-20)
(-0.0225047 -0.0730307 1.18462e-18)
(0.108521 0.0467848 1.78599e-17)
(-4.48831e-05 -3.58701e-06 -2.15527e-20)
(0.000404083 -0.000531776 3.17215e-19)
(0.00174401 0.000163592 -7.89988e-18)
(-0.0156573 0.00797407 4.75717e-20)
(5.35035e-05 1.75484e-06 4.49633e-20)
(0.00022503 1.74374e-05 1.35782e-18)
(0.000433098 0.000249782 -1.22158e-17)
(-0.00165325 0.0035491 -2.12938e-17)
(0.00152446 -0.00599725 -4.4507e-19)
(0.00462352 -0.103618 -2.25474e-19)
(8.78285e-07 -8.26248e-07 -1.6375e-19)
(1.68707e-05 -2.49533e-05 -1.15299e-20)
(-0.0202902 -0.0431774 -1.84629e-18)
(0.00153641 0.0014713 6.84496e-19)
(-3.97614e-05 -3.108e-06 4.2687e-21)
(-0.102863 0.0643021 5.31403e-19)
(0.000133656 -1.41409e-05 1.36464e-19)
(-3.11734e-05 0.000868142 -8.68684e-21)
(6.61376e-05 -1.35209e-05 -5.16549e-20)
(0.0030507 0.00661615 2.43375e-19)
(0.000386673 -3.36225e-05 -4.55273e-19)
(-3.77958e-05 2.77586e-06 -1.83518e-20)
(-0.00115822 -0.000790099 -1.10552e-19)
(-0.00920862 0.00400471 2.92122e-18)
(0.000251463 2.17355e-07 -1.85874e-19)
(0.000745634 0.000223189 -2.229e-18)
(0.000158352 -3.78244e-06 -4.89453e-20)
(0.000920629 -0.0062599 4.34468e-19)
(-0.0201355 0.0290956 -1.23558e-18)
(0.000136049 -3.26683e-07 -2.01046e-21)
(0.000166077 -1.42861e-05 2.05621e-19)
(0.000114099 -1.11943e-06 7.23599e-21)
(0.000108537 -4.31767e-07 -2.69384e-21)
(-0.030432 -0.110565 1.62427e-19)
(0.000211532 -4.58817e-06 3.11889e-18)
(0.0222225 -0.00788047 1.05623e-18)
(0.000276207 -6.00126e-06 2.72214e-18)
(2.12309e-05 6.10608e-07 7.41765e-20)
(0.0191479 0.0952454 -5.04324e-18)
(-0.00432205 -0.00101952 -1.39766e-18)
(0.00026069 -8.25142e-06 -2.44903e-18)
(0.000280506 -0.00748239 -6.4396e-19)
(-0.000420079 0.000282726 3.1045e-18)
(0.0152769 -0.0500876 9.49676e-19)
(-0.0489189 -0.0306315 4.87922e-18)
(9.48496e-06 -4.17989e-05 -7.89061e-21)
(0.0318397 -0.051221 3.23292e-19)
(0.000180801 -3.3855e-05 6.38926e-19)
(0.00508373 0.00142779 -4.83384e-19)
(0.000228465 1.56867e-05 1.43162e-18)
(-0.0227117 -0.0577947 -7.84052e-18)
(-3.68723e-05 7.79867e-06 -6.57366e-20)
(0.000528023 -0.0676587 -1.09322e-17)
(-0.0176523 0.0176625 8.98613e-19)
(-4.24252e-05 1.53612e-05 -1.99477e-20)
(-0.00166863 -0.00733888 4.91441e-19)
(-0.0223331 0.00295603 5.09772e-18)
(0.000435383 -0.00357277 -3.1059e-18)
(-0.00782867 0.10156 1.2123e-18)
(0.000192387 -3.86254e-06 -3.28356e-19)
(-0.0387592 0.211227 -4.61249e-18)
(0.000308307 -3.80767e-06 -6.42238e-19)
(0.000119089 -9.25112e-06 -9.31033e-22)
(0.00011915 -2.88857e-06 -1.13391e-19)
(0.000226085 4.31289e-05 1.70294e-18)
(-0.00887236 -0.000897967 -1.09599e-17)
(0.000707934 0.00128158 3.38309e-18)
(-0.00210794 0.00101202 -1.63255e-17)
(-0.00611512 0.00905312 8.70943e-19)
(0.00088652 -0.0174142 -4.17647e-18)
(-1.15256e-05 4.90292e-05 -1.39042e-21)
(-0.00448421 0.0251982 -1.17786e-17)
(-0.00572108 -0.148706 1.6873e-18)
(-1.83422e-05 -0.000253012 2.6718e-18)
(0.000448649 -2.23194e-05 5.05628e-18)
(0.0157618 -0.0408534 -1.01064e-18)
(0.0265355 0.0969869 1.18964e-18)
(-0.00127122 -0.00257268 -7.55883e-18)
(0.000411514 8.87236e-07 -1.40632e-18)
(-0.0243143 -0.0579638 2.30339e-17)
(-0.0556191 -0.0215783 -6.0862e-19)
(-0.072819 0.0198354 -6.90381e-18)
(0.000929165 0.00150353 -7.43814e-19)
(-0.00253294 -0.00829781 -1.44381e-18)
(0.0508362 0.0330751 -4.88304e-20)
(-0.00713498 0.0250049 6.36108e-20)
(-0.0606881 -0.00182055 -9.80533e-19)
(0.0201918 -0.0242198 3.64463e-18)
(0.0624977 -0.0344571 -2.45703e-18)
(0.000499757 3.61364e-05 6.4779e-19)
(0.0621992 -0.0272674 9.68158e-19)
(-6.33967e-05 -0.00319362 1.10268e-18)
(-3.58607e-05 8.9524e-06 7.71848e-20)
(-0.00955135 0.0179341 -4.92986e-20)
(0.000539514 0.00128932 -6.98416e-18)
(-0.00381266 -0.000695905 7.48764e-18)
(0.000180157 0.000164725 2.67139e-19)
(0.000277356 7.2607e-06 -8.32898e-19)
(0.000119546 -4.63733e-05 -2.89116e-19)
(0.000200089 -4.81404e-05 -6.17964e-21)
(0.00413877 0.00312841 3.64037e-19)
(0.00761401 0.00219718 -4.40689e-20)
(-0.112827 0.0830589 -1.53946e-18)
(0.0107857 -0.102757 6.96433e-21)
(0.000119014 -7.22557e-06 2.46033e-20)
(-0.0177161 -0.0400213 2.50195e-18)
(-0.00269498 -0.00129204 -1.13872e-18)
(0.014591 -0.0292911 -5.82385e-19)
(-0.0116495 -0.125531 2.08514e-18)
(0.000757421 0.000165442 -1.06605e-17)
(-4.20091e-05 -5.32972e-06 -1.19178e-20)
(6.69943e-05 -2.88621e-05 1.5007e-19)
(0.00408469 0.0295351 1.09977e-19)
(-0.0074421 0.0248906 5.74217e-18)
(0.00018323 -2.80805e-05 -2.54642e-18)
(4.50966e-05 5.76268e-05 1.71587e-19)
(-0.00129609 -0.00145473 1.00927e-17)
(-4.4942e-05 1.75016e-05 1.32403e-20)
(0.0112298 0.00917058 -4.08855e-19)
(-0.00703538 0.104676 3.12464e-18)
(0.0298314 -0.0175807 2.11439e-18)
(-0.000727819 0.00365729 -5.45563e-18)
(-0.00874548 -0.000979352 -5.24268e-18)
(-0.000220063 -0.00352501 4.8048e-19)
(0.000179458 -3.41707e-05 -2.92517e-19)
(0.000228023 2.84207e-05 -2.74947e-18)
(-0.0322857 0.0514778 -2.78587e-19)
(-0.00359967 -0.00156799 -5.22325e-19)
(-0.00102897 -0.00048201 -3.36375e-18)
(0.000629658 0.000214587 -1.45132e-18)
(-0.00847359 -0.0225332 3.02572e-18)
(-4.12359e-05 9.33034e-06 -5.33944e-22)
(0.000231461 -3.21387e-05 5.31327e-19)
(0.0533152 -0.0376063 5.35264e-19)
(-4.46592e-05 1.7388e-05 3.20595e-20)
(0.000208003 0.000171231 -1.76595e-18)
(-4.17569e-05 4.33014e-06 3.47336e-20)
(0.000178088 -1.73488e-05 1.82106e-19)
(0.000221177 -0.00299983 2.90402e-18)
(0.00316056 0.00342236 -1.75746e-18)
(0.00441792 0.00524694 2.85204e-19)
(-4.35683e-05 1.6307e-05 -6.82131e-20)
(0.0268742 0.0487601 4.69794e-18)
(0.0372281 -0.0429564 -5.61504e-20)
(0.000126001 -1.19674e-05 1.70354e-19)
(1.80701e-05 1.61144e-06 4.20645e-20)
(-0.00028049 -0.000189602 -9.32028e-20)
(0.000420728 1.44456e-06 -9.82882e-19)
(0.108799 0.0307044 4.28614e-18)
(-0.00317758 0.0219123 -1.51123e-18)
(-0.00167031 0.00325585 2.98951e-18)
(-0.0681953 0.035742 -4.24587e-18)
(-0.0413937 0.212978 1.65022e-18)
(0.000584252 0.000192059 -2.47164e-18)
(-0.00354827 -0.000496448 9.13005e-18)
(-0.00508269 -0.00115379 -1.65058e-18)
(-0.00159839 0.00419182 -3.62206e-19)
(0.000767941 3.8135e-05 3.97548e-18)
(-4.13922e-05 -6.37166e-06 8.87913e-21)
(-0.00204586 -0.00201122 1.05721e-19)
(-0.00171456 -0.00094528 -4.15238e-19)
(-0.00960726 0.00789301 1.58006e-17)
(0.0400674 -0.0451644 3.21549e-19)
(-4.6816e-05 0.0001073 6.0724e-19)
(4.59758e-05 -0.000577821 1.52018e-18)
(7.34541e-05 -2.59344e-05 -4.15198e-20)
(-0.00181448 0.00130228 6.68837e-19)
(-0.000637243 0.00138471 7.15039e-20)
(-0.00536893 0.114691 1.07604e-20)
(0.000807782 0.00184389 1.79429e-18)
(0.000281181 -5.49619e-06 6.59907e-18)
(-0.000927844 -0.00575773 -1.22318e-19)
(5.87715e-05 1.34112e-06 -2.87084e-20)
(0.000364105 -0.000158039 -4.81849e-18)
(0.0027529 0.00712942 -3.57136e-18)
(0.000223366 2.58279e-05 1.10177e-18)
(0.000184802 -2.21218e-05 4.25577e-19)
(-0.00397097 0.00178837 -9.11941e-19)
(0.000222989 -1.20887e-05 1.68426e-18)
(0.0038817 0.00249853 1.04116e-17)
(0.0267261 0.00452023 6.53081e-18)
(0.000629989 0.00567765 1.6436e-18)
(-0.00168296 0.00210326 -2.97571e-19)
(-0.000962453 -0.000703974 -1.06076e-17)
(7.42889e-05 -2.52505e-05 -4.35588e-21)
(0.0333834 -0.0213163 -1.28396e-20)
(0.00739615 0.00267015 -4.75128e-20)
(-0.0583889 0.029063 2.49716e-18)
(3.90027e-05 -0.000143412 1.23627e-18)
(5.78661e-05 -1.2308e-06 7.47662e-20)
(-0.00215113 -0.00397434 1.58854e-17)
(0.00033311 -0.000608902 -1.33366e-19)
(-0.0396868 -0.0105646 2.06181e-18)
(-0.00408911 -0.00206129 -6.42559e-18)
(-0.0417089 -0.0339291 -1.55883e-17)
(-0.104293 0.0779843 8.01296e-19)
(5.56602e-05 -6.74422e-07 -1.043e-19)
(-0.00204622 -0.00426729 5.02074e-18)
(0.000313032 0.00049048 2.52051e-20)
(0.000163492 -1.92896e-05 1.39546e-19)
(-3.62491e-05 6.53181e-06 5.10483e-20)
(0.000175885 -1.99723e-05 9.26722e-19)
(0.00217388 0.00222407 1.18662e-21)
(-0.000382302 -0.00415059 2.58709e-19)
(0.00321877 0.00556238 -9.12951e-20)
(-4.30226e-05 1.52282e-05 1.09672e-19)
(0.0427827 0.0132993 -1.40235e-18)
(-0.0219861 0.0163241 -6.2884e-19)
(0.0440664 0.0175727 8.74323e-19)
(0.000118584 -3.01869e-05 3.07579e-19)
(-3.74216e-05 2.15209e-06 3.35248e-20)
(-1.62057e-05 2.17525e-06 -2.97558e-19)
(0.0103964 0.00820876 -1.79746e-18)
(0.052596 0.0508956 4.13347e-18)
(0.000459711 0.00053523 -2.66036e-18)
(0.000373473 -0.00018627 1.02366e-17)
(0.000245401 0.00063295 -2.43403e-20)
(2.88872e-05 3.32347e-07 4.22347e-20)
(0.000124441 -4.19356e-06 5.61218e-21)
(9.41546e-05 -4.22771e-05 1.10627e-19)
(-0.00591951 -5.39764e-05 2.48332e-18)
(-0.0344602 -0.108617 1.72008e-18)
(0.000233465 -1.20849e-05 -4.11118e-19)
(-4.22229e-05 1.30335e-05 8.53871e-21)
(0.000225871 4.98639e-05 -2.83984e-18)
(0.000104836 -4.52363e-05 -4.67565e-20)
(0.0271133 -0.0466517 1.0821e-19)
(0.0108129 -0.0693155 -3.23129e-18)
(-0.00202405 0.00100039 -4.36743e-19)
(-0.0207656 0.0122844 2.39296e-17)
(-0.0256703 0.182336 5.8598e-18)
(0.000182841 -2.1576e-05 -1.58489e-18)
(-0.00199861 0.0013373 1.48762e-17)
(0.116194 0.0496973 -2.3043e-17)
(0.000819867 7.49736e-05 5.15083e-18)
(0.0373876 -0.112561 1.93536e-18)
(0.000210099 2.91607e-06 -3.85036e-18)
(0.00073586 -0.00249227 3.8668e-20)
(0.000502317 0.000543605 6.26925e-18)
(1.23488e-05 -0.00295413 6.18484e-20)
(0.0203455 -0.0292659 -9.64297e-19)
(0.000264317 -7.86984e-06 3.70623e-18)
(0.0524392 0.0353999 1.26029e-19)
(-2.40149e-05 1.70203e-06 -2.83841e-20)
(0.00040777 0.000320236 6.91745e-18)
(-0.00440436 -0.00133183 2.82124e-18)
(0.000100814 5.37877e-05 4.12421e-19)
(5.15768e-05 -0.000458534 2.68896e-19)
(-0.0120009 -0.0197663 1.08231e-18)
(0.000117252 -9.74094e-06 -6.97916e-21)
(-3.33465e-05 -0.000166848 -7.96075e-19)
(0.0795755 -0.0432859 -2.95703e-19)
(-0.0123886 0.103958 -4.37365e-19)
(0.00105829 0.0017968 -1.94148e-18)
(0.00186448 0.0216786 -1.39893e-17)
(0.0162924 -0.044614 5.19847e-20)
(-4.11358e-05 2.24865e-06 -2.52344e-20)
(0.00011968 -2.90271e-05 2.11525e-20)
(-0.000690671 0.0967325 -8.24663e-18)
(-0.00105873 -0.00136186 -9.94968e-18)
(0.0120394 -0.000472262 -2.52305e-19)
(-0.0038041 -0.00208221 1.14825e-17)
(3.13884e-05 -1.34296e-05 4.32816e-20)
(0.000428305 1.84473e-06 1.04223e-18)
(-3.66949e-05 9.91195e-06 -1.26562e-19)
(-0.0383568 0.182319 -1.80349e-18)
(-0.00207309 -0.00386023 1.52981e-18)
(0.000612718 0.000717878 -1.21128e-19)
(0.000132169 7.62158e-05 -2.2726e-19)
(-0.0249619 0.0205579 -1.81895e-19)
(0.000240093 -5.77555e-05 1.70932e-18)
(-1.86596e-05 1.76428e-06 4.00127e-19)
(-0.0266645 -0.0345727 8.58757e-18)
(-0.0306646 -0.0334646 -1.67896e-18)
(-0.0037773 -0.0024544 9.02803e-18)
(-4.08502e-05 1.3744e-05 2.34911e-20)
(0.000229095 -1.15399e-05 7.82548e-19)
(-0.00280815 -0.000529227 1.03859e-17)
(0.0106534 -0.0535143 -5.16701e-18)
(-0.000447674 -0.00140722 2.39296e-18)
(-0.000387464 0.00110853 -6.31844e-21)
(6.09647e-05 -0.00346862 -3.81449e-18)
(0.000260323 -4.32453e-06 -2.83557e-18)
(-0.030725 0.00732587 -4.16034e-20)
(0.0176696 -0.00900372 1.19811e-18)
(0.00423831 -0.00857668 6.70556e-18)
(-7.80217e-05 0.000164715 2.11055e-18)
(-0.0451033 -0.0315527 -7.13855e-18)
(0.00466409 -0.0029129 -4.62472e-19)
(0.00193258 0.00155441 2.57579e-19)
(-0.00073885 -0.00371146 -5.12138e-18)
(5.91783e-05 -1.214e-06 -1.75067e-20)
(0.000242997 -7.08523e-07 -5.46435e-19)
(0.000418761 -1.84255e-05 -1.09008e-18)
(7.41151e-05 -2.08456e-05 8.2187e-20)
(-0.0289854 -0.0376594 1.21682e-17)
(-0.00083989 -0.000868394 2.08133e-18)
(-0.00113655 0.00346636 1.2292e-17)
(0.00317795 0.00538689 -7.53658e-19)
(-0.0180901 0.0166783 -1.62843e-19)
(7.66768e-05 -2.9877e-05 -4.81478e-21)
(0.0822286 -0.0362543 4.89849e-19)
(0.000150932 -6.07825e-07 -2.59567e-20)
(0.00417031 -0.0038234 -2.49841e-19)
(-3.64942e-05 5.36044e-06 1.46811e-20)
(0.000182376 -1.61009e-05 1.62868e-19)
(0.000249873 -2.48956e-06 3.15435e-19)
(-0.00374353 -0.00142322 -1.06049e-17)
(0.000125058 -4.75907e-05 1.23367e-19)
(-3.82571e-05 1.09395e-05 -2.2961e-21)
(-0.0749086 0.0262321 4.25935e-19)
(0.000223007 3.16468e-05 -1.15298e-18)
(-0.00308984 -0.000737742 -1.21582e-17)
(-1.80191e-05 1.34614e-06 6.54264e-21)
(-0.00131257 0.000578641 1.21187e-19)
(0.000120554 0.000776998 3.23204e-18)
(0.0366307 -0.0540394 -1.58738e-18)
(0.0276022 -0.00308328 -6.06599e-19)
(0.000112506 -7.31295e-06 9.04467e-21)
(0.0609247 -0.0066057 -1.91291e-19)
(-0.0193285 0.016524 -2.43227e-17)
(0.000209 -1.85268e-06 -4.14549e-18)
(-0.00260891 -0.00126254 4.44604e-18)
(0.000414538 0.0003064 -2.67483e-18)
(6.85185e-05 -1.51596e-05 -6.02649e-20)
(0.0124254 0.00195217 8.63605e-20)
(-0.0195728 -0.0323153 4.54045e-18)
(0.0476115 -0.0060117 1.4685e-19)
(-0.00015599 0.000463415 -2.55611e-18)
(0.000124906 -5.21701e-06 5.92976e-20)