/*--------------------------------*- C++ -*----------------------------------*\
| =========                 |                                                 |
| \\      /  F ield         | OpenFOAM: The Open Source CFD Toolbox           |
|  \\    /   O peration     | Version:  v2012                                 |
|   \\  /    A nd           | Website:  www.openfoam.com                      |
|    \\/     M anipulation  |                                                 |
\*---------------------------------------------------------------------------*/
FoamFile
{
    version     2.0;
    format      ascii;
    class       volVectorField;
    location    "800";
    object      ddtCorrDdt0(U);
}
// * * * * * * * * * * * * * * * * * * * * * * * * * * * * * * * * * * * * * //

dimensions      [0 1 -2 0 0 0 0];


internalField   nonuniform List<vector> 
13917
(
(-0.00739234 -0.00297636 -3.00514e-17)
(-0.0166987 0.000852404 -7.2742e-19)
(0.00957229 -0.00203341 -6.1797e-18)
(-0.000164465 0.000831194 -4.16356e-20)
(-0.00539713 0.00754943 2.05698e-19)
(-0.0158954 -0.00137837 1.07658e-18)
(-0.000273835 0.0015987 4.62882e-18)
(-0.0203906 0.0397001 -7.06326e-19)
(0.000503281 0.00148129 -4.30924e-18)
(-0.00136431 0.0040191 5.08281e-18)
(-0.0200961 0.035505 6.67453e-19)
(-0.000422516 0.00060918 4.0717e-18)
(-9.83589e-05 7.81995e-06 6.10646e-19)
(0.140722 0.0525776 -6.03662e-19)
(-0.00311882 -0.00406622 -1.9165e-20)
(-0.00762268 -0.00190435 4.06961e-17)
(0.000190004 3.84559e-06 -3.70255e-21)
(-0.0111532 0.02909 -4.45318e-19)
(0.00505888 0.00591312 -6.8018e-18)
(-0.0189685 -0.0151152 -4.04999e-20)
(0.00205793 0.00402864 -4.63959e-19)
(-0.000978025 2.78206e-05 6.72392e-20)
(-0.000501157 0.00362934 -5.67935e-18)
(-0.000999933 1.18202e-05 -4.9038e-19)
(-0.00038234 0.000999511 -4.62278e-18)
(0.00206633 0.00615749 1.51829e-19)
(-0.0311342 -0.066146 -6.62743e-18)
(-0.000798221 0.00345574 -5.41417e-18)
(-0.00020698 0.0155967 -7.26769e-19)
(-0.000248763 -0.000284528 -3.01679e-22)
(-0.00261659 0.00271621 -1.11427e-17)
(0.00136745 0.00322156 7.3946e-18)
(-0.000357159 0.000819951 1.98164e-18)
(-0.00244626 -0.00399884 -7.55573e-19)
(-7.02692e-05 -0.000819754 -4.26663e-21)
(-0.0286919 0.0470306 -3.84849e-19)
(-0.00134683 0.00159827 1.17714e-18)
(-0.000304452 -8.45006e-06 4.7968e-19)
(-0.000238577 0.00164467 -1.17908e-18)
(0.00174898 -0.00137676 7.80851e-19)
(-6.35457e-05 6.07713e-06 -3.97295e-20)
(0.00112384 -0.000389198 -1.81587e-19)
(0.000423291 0.00122572 -8.55728e-18)
(0.00401709 0.00303527 1.05482e-17)
(0.00402698 0.00345109 -1.24299e-17)
(-0.0256231 0.0330268 4.68864e-19)
(0.00151537 0.00363498 -3.40962e-19)
(0.00445454 -0.117573 1.84562e-17)
(-0.0613592 0.0519855 4.28286e-19)
(-0.000102136 -0.000752715 1.21993e-20)
(-0.000427235 0.000589646 -3.77003e-18)
(-0.00850669 0.0157083 -4.1311e-18)
(0.00534424 -0.000593114 -7.16745e-18)
(-0.000809299 0.000441853 -5.01508e-19)
(-0.000801086 0.000533243 8.73088e-19)
(-0.00683572 0.015502 -4.04132e-18)
(-0.000269105 -0.00166305 6.76027e-18)
(-0.000650519 0.00357604 9.43892e-18)
(0.00113691 -0.000278853 5.28253e-20)
(-0.029084 0.0318997 5.28614e-21)
(0.0633959 0.0820197 -8.40533e-19)
(-0.00539795 -0.00762554 2.57487e-20)
(-0.000230115 -1.1297e-05 -1.40715e-20)
(-0.000379796 0.000984391 3.43061e-18)
(0.000870299 -0.00155235 8.99429e-18)
(0.0167354 0.0109992 1.8348e-20)
(-0.00274634 0.0191417 3.23711e-19)
(-0.0371104 0.0444605 -4.54709e-18)
(-0.0116764 0.0340164 8.31171e-18)
(6.60651e-05 -0.00145008 3.23543e-19)
(0.00231857 -0.000236703 -9.05608e-18)
(-0.00250399 -0.00360428 -1.47107e-18)
(7.45076e-06 0.000572097 3.09974e-18)
(0.00104093 -0.00021382 2.26796e-20)
(0.00265496 0.00373458 1.40982e-19)
(-0.000466145 0.00116035 -1.74064e-18)
(-0.00170453 0.00256558 1.72725e-19)
(0.00102934 -0.000139657 -4.70545e-20)
(-0.000482903 0.00113668 -2.26872e-18)
(-0.00036012 0.000839515 -2.59951e-18)
(-0.00111999 5.96056e-05 -2.18186e-19)
(0.000198448 -6.07088e-07 3.00151e-22)
(1.49704e-05 0.000551487 -4.57415e-18)
(-0.00047534 -0.0116101 -6.79062e-18)
(-0.000382749 6.52033e-05 -2.02467e-18)
(0.026338 0.0417453 -3.55293e-18)
(0.0012797 0.00324869 -2.00228e-18)
(-0.000378044 3.05002e-05 -1.14236e-18)
(0.00197777 -0.000908646 -6.92384e-19)
(0.000215167 6.46357e-06 2.3834e-20)
(0.000228949 2.9601e-05 6.06113e-21)
(0.000459835 0.00125112 8.68149e-18)
(-0.0636966 0.0314863 -6.57118e-19)
(0.000313408 -0.000755866 6.95925e-21)
(-0.0011419 0.000590109 4.89945e-19)
(0.000311515 0.0176874 -7.93578e-19)
(0.0122477 -0.0452345 -1.36857e-18)
(7.83543e-05 -1.81339e-05 4.39139e-20)
(-0.000371953 3.65118e-05 1.33217e-18)
(0.0209856 -0.0243223 -6.35449e-19)
(-0.000196318 4.76218e-06 -6.08045e-20)
(-0.000220399 7.79603e-06 2.61724e-20)
(-0.00117524 7.41068e-05 2.09378e-19)
(5.24375e-05 -4.2005e-05 2.4706e-19)
(-0.00212445 0.00227376 -2.47119e-20)
(0.00498686 -0.000947561 -9.12027e-18)
(0.0069803 -0.0324056 8.36846e-18)
(-0.00367008 -0.00943256 8.93651e-20)
(0.00123515 -0.000517824 2.30725e-19)
(-0.0428347 -0.0719682 1.15129e-18)
(-3.11856e-05 4.7282e-05 1.32716e-18)
(-0.00288155 -0.00448347 -2.60089e-17)
(0.0017275 0.0140832 1.08905e-18)
(0.00698799 -0.144297 6.78914e-19)
(0.000510754 -0.00142038 -9.80473e-18)
(-0.000469062 0.00130343 7.41235e-19)
(0.00448735 0.00575119 5.84775e-18)
(3.58319e-05 3.94863e-05 -2.54767e-20)
(0.00853601 0.000975509 -1.0633e-17)
(8.57513e-05 0.000443127 -5.41483e-19)
(0.000225522 -1.24763e-06 8.21327e-22)
(0.000847694 -0.000126464 -8.04601e-20)
(-0.00233889 0.022101 -1.79389e-19)
(0.000643668 0.00930745 5.57241e-19)
(0.00779061 -0.00138828 5.62013e-18)
(-0.00180135 -0.011293 9.01975e-18)
(-0.000357448 0.000959104 1.84684e-18)
(0.00333589 0.00402356 6.77234e-19)
(-0.000216243 -0.000644492 -4.31769e-21)
(0.00126955 0.009347 -4.57016e-19)
(0.000402067 0.00229913 -4.95131e-18)
(-0.0390777 -0.0178773 2.16321e-19)
(0.00914278 -0.00383361 8.71852e-18)
(-0.0005102 0.00134874 -5.53272e-18)
(0.00189872 0.00313344 7.18535e-18)
(-0.0426492 -0.070376 -3.60468e-19)
(0.0586284 0.0997139 1.04313e-18)
(0.0123994 -0.000227441 -4.24809e-18)
(0.00216495 0.00788557 -1.18408e-20)
(-0.000203337 -4.42216e-06 -7.1554e-19)
(0.0943088 0.0371607 -6.26828e-19)
(0.000950688 -0.000114389 1.52591e-20)
(0.00423668 0.000135799 1.28745e-17)
(-0.000666535 -7.19361e-05 -3.47758e-19)
(-3.87411e-05 0.000520218 -2.97968e-18)
(0.00285759 -0.00134402 1.37568e-19)
(0.00230938 -0.00128039 -4.56865e-18)
(0.00254383 0.0268312 -9.79071e-19)
(-0.0270216 -0.113483 4.64259e-18)
(-0.000824039 0.000475768 8.15588e-19)
(0.00164995 -7.84768e-05 -1.89991e-18)
(-0.00024888 3.49489e-06 6.4676e-20)
(-3.19185e-05 0.000498693 -8.36434e-19)
(0.000103462 0.000437301 -8.46938e-19)
(-0.00463082 -0.0508311 -5.08357e-18)
(-0.00197537 -0.000365392 -5.52306e-21)
(6.7763e-05 -5.11084e-05 -1.92015e-19)
(0.00957915 -0.00134562 2.14139e-18)
(-1.91075e-05 1.48516e-05 -1.56104e-19)
(2.7158e-05 2.99105e-05 -4.44477e-21)
(-0.000499623 5.61514e-05 8.23524e-19)
(0.034268 -0.000567967 1.81132e-17)
(-0.00288515 0.00211386 4.93479e-19)
(0.083463 0.046755 2.21737e-19)
(0.0637849 0.0261231 1.01828e-17)
(0.0292784 -0.0316252 5.04573e-19)
(0.00344402 -0.000276636 1.03203e-17)
(0.0765496 0.040034 1.67293e-17)
(-0.000273161 -0.000108037 -1.05454e-20)
(0.00290495 0.00889766 1.79731e-20)
(-0.00110065 4.72225e-05 1.21224e-19)
(0.00749376 -0.00886427 -7.91481e-20)
(0.000536219 0.00144468 6.8734e-18)
(0.0380968 0.0841979 -3.22003e-18)
(-0.00896105 0.00324574 2.34618e-18)
(-0.000164996 1.63324e-05 -1.28304e-19)
(-0.000140336 0.000834615 -2.02193e-18)
(-0.0108839 0.0183815 4.21536e-18)
(0.000405856 0.00223741 6.82729e-18)
(-0.00318015 0.0023591 4.50536e-20)
(0.000344372 0.00123072 -9.48243e-19)
(-0.00108047 2.73073e-05 1.78703e-19)
(-0.000455601 0.000592491 1.16556e-19)
(0.00359402 0.0224185 -2.97394e-18)
(0.00931514 0.00145625 7.42087e-18)
(-0.0390439 -0.0240081 -7.1684e-19)
(-0.000459963 0.000574289 1.21905e-18)
(0.00240859 0.024086 4.1499e-18)
(-0.000226131 -0.000337456 -7.38776e-21)
(0.022326 0.0383597 1.75685e-18)
(-0.00959027 0.0023289 3.7978e-18)
(0.00355244 0.00364152 -7.95311e-19)
(0.00200623 0.0168142 -3.4579e-18)
(-0.00950857 -0.00461765 5.67547e-18)
(0.00025456 -0.000749655 7.81331e-21)
(0.0066336 -0.0015392 -2.93839e-18)
(-0.000417025 0.000978495 -3.87684e-18)
(0.00800431 -0.00350253 -2.06859e-18)
(-1.09536e-05 -0.000813202 2.69661e-20)
(-0.00173928 -0.000334745 -7.55581e-20)
(0.000764099 0.00292113 -2.62997e-19)
(-0.00116011 -0.00145874 -1.09395e-17)
(0.0122181 -0.00022696 3.81133e-18)
(-0.0017718 0.00115054 -3.81398e-19)
(-0.0399471 -0.0697432 -2.02386e-18)
(-0.00521928 0.00820268 2.54759e-20)
(0.00153991 -0.00046191 1.71652e-18)
(0.000900584 -0.000155541 1.95543e-20)
(-0.00878595 0.017664 2.7161e-19)
(-0.00108635 4.3194e-07 8.74604e-20)
(-0.000172899 -0.000416691 -7.01636e-20)
(-0.0115609 0.0142823 1.80182e-18)
(-0.0115286 0.016619 -6.34138e-21)
(0.00423778 -0.101446 -1.59583e-17)
(0.00174537 0.00316507 1.40919e-18)
(0.00278412 0.00674941 -1.52151e-19)
(0.0103255 -0.00935225 9.79364e-18)
(-0.000400763 -1.54365e-05 -1.53166e-18)
(0.0003997 0.000237867 5.69829e-21)
(0.000386836 0.000257613 -1.06386e-20)
(0.0833257 0.0319836 -1.79899e-17)
(0.00206332 0.0198666 8.98208e-19)
(0.00233926 0.0290153 -9.88398e-19)
(-0.000140407 0.000113086 -2.96298e-19)
(-0.000195762 -5.19249e-06 1.7099e-20)
(-0.0603365 -0.077247 8.55706e-18)
(0.00579387 -0.00120005 3.5108e-18)
(0.000361365 0.000187297 6.65039e-20)
(0.000345345 0.000181684 -8.1976e-20)
(-4.97469e-05 6.43836e-06 -6.0596e-20)
(0.000399698 0.000287091 -2.86975e-20)
(0.000386032 0.000307824 -1.83112e-19)
(-0.00302288 -0.00335622 1.85977e-18)
(0.0610552 -0.0534844 -7.9956e-18)
(-0.000874312 2.03977e-05 -6.33687e-20)
(-0.000325896 -0.000182622 -6.22741e-21)
(-0.00490138 0.00765107 4.95092e-18)
(-2.48398e-07 -0.002864 -2.01328e-18)
(7.26996e-05 1.71474e-05 1.14106e-19)
(-0.000148823 0.000102233 -9.44533e-19)
(-0.0408319 -0.0709824 4.52425e-18)
(0.00469852 0.003142 5.85225e-18)
(0.00311099 0.0208354 1.46752e-18)
(0.00792608 -0.0103842 -1.53671e-17)
(-0.0156541 0.00609223 1.92897e-18)
(-0.000668972 -5.9682e-05 1.90497e-18)
(0.0759086 0.0332092 -8.6962e-18)
(-0.00450267 0.00831678 -4.86741e-18)
(0.00103484 0.0123999 -1.37357e-19)
(0.0016165 0.00527693 -3.52956e-18)
(-0.00163132 0.00105867 -6.25942e-19)
(0.0434932 -0.0694425 -2.71145e-17)
(6.83284e-05 0.000477673 1.77767e-18)
(-0.00250773 -0.00113912 9.17346e-19)
(-0.00738843 0.00270508 3.18365e-18)
(-0.000857586 2.37126e-05 1.4522e-21)
(-3.68962e-05 1.93462e-06 3.27065e-20)
(-0.000360882 0.000975436 -2.38614e-18)
(-0.00849213 2.4815e-05 8.44979e-19)
(0.000664899 -0.00107205 1.73782e-19)
(0.00781826 -0.00235719 3.07307e-18)
(-0.00296016 0.156653 4.82025e-19)
(0.000739468 -0.000213506 -1.41013e-20)
(0.000344489 0.000153736 -7.08619e-21)
(-0.002119 -0.000194021 1.02188e-21)
(0.000353834 0.000138212 4.99221e-20)
(8.25048e-05 0.000470563 -1.28941e-18)
(-0.000162787 1.29172e-05 1.45257e-18)
(-0.001685 0.00208306 -2.76755e-18)
(0.00075388 -0.000223426 -2.28429e-19)
(0.0123433 0.000327005 2.84355e-18)
(0.0124362 -0.030807 -1.16213e-17)
(-0.000478803 0.000442007 3.30528e-19)
(-0.0051753 0.000992745 -3.21741e-20)
(-0.0369462 0.0369279 -4.03368e-19)
(7.10063e-05 0.000466312 -4.02431e-20)
(0.0170162 -0.0178316 -3.55941e-19)
(0.00817568 -0.00297282 -3.83659e-19)
(0.000100018 0.000462864 -2.88191e-20)
(0.000332954 -0.00199639 -2.01599e-20)
(0.000670585 -0.000961664 -8.06353e-20)
(0.0364517 0.00316098 -1.07239e-17)
(-0.000153604 1.19136e-05 4.61257e-20)
(-0.0017683 -0.00275007 -5.97554e-21)
(-0.000842249 1.71649e-05 2.92236e-20)
(-0.000656272 -0.000130699 -2.61787e-20)
(0.00741259 0.0101856 -3.99878e-18)
(-0.000236414 -2.34153e-05 9.17845e-19)
(0.0320688 -0.0374381 2.07355e-18)
(-0.000283711 0.000669067 -1.3902e-18)
(-0.0214609 0.159759 -4.3977e-19)
(0.00277536 -0.00206004 -1.78019e-19)
(-0.027925 -0.0608189 -3.46453e-18)
(0.0123783 0.00018761 2.0219e-18)
(8.21983e-05 2.86461e-05 5.01071e-20)
(-0.00181021 0.00442013 5.68781e-18)
(-0.008004 0.00314115 -5.61555e-19)
(-0.000516142 0.00149101 -2.99816e-18)
(-0.0062836 0.00604678 -9.88462e-20)
(-0.000453816 0.00109234 -1.95884e-18)
(0.00042698 -0.000830358 -1.85555e-20)
(-0.000221977 -3.27138e-05 -1.03384e-19)
(-0.014985 0.0169734 1.5635e-19)
(0.0194685 0.00190412 -3.7997e-19)
(-0.00212406 -0.00102327 3.7594e-18)
(-0.000464804 0.00107085 5.14627e-18)
(-0.000169194 9.33371e-05 -2.7911e-18)
(0.00909544 -0.00195869 2.04697e-18)
(-0.00195337 -0.00114732 -1.41787e-18)
(-0.000136179 -0.000577604 -1.68915e-19)
(0.00698793 0.00282155 4.88032e-20)
(-0.000472695 0.00142831 1.54775e-18)
(-0.00533387 0.0561004 -1.65323e-19)
(0.00120417 0.000683538 -1.02695e-17)
(0.00382238 -0.0227262 -1.23185e-17)
(0.0340634 0.0807205 2.54428e-18)
(0.00995235 0.0164268 -3.84155e-20)
(-0.0327652 -0.0149378 1.54027e-18)
(-0.00487312 0.00019707 -2.47868e-19)
(0.00196923 -0.0104242 3.50766e-18)
(0.0109744 0.0642603 -4.12289e-19)
(0.00850004 -0.00246753 -8.56542e-18)
(-0.000133507 1.08341e-05 -9.21266e-19)
(-0.00239737 -0.00386124 -9.82264e-20)
(-0.0298727 -0.0661015 1.57699e-18)
(-0.00137205 0.00010958 -8.39251e-20)
(-0.0191457 0.00202622 1.50927e-18)
(0.00350561 0.00399017 -5.03684e-18)
(0.000158243 7.38547e-06 4.54066e-20)
(0.00687586 -0.00953224 6.73785e-18)
(-0.00037948 4.84556e-05 -2.71651e-18)
(0.000980075 0.00253444 2.36074e-18)
(-0.000526904 0.00053959 -1.63451e-19)
(-0.0308671 -0.0140112 1.14972e-17)
(-0.000248953 -0.000192332 2.03069e-19)
(-0.00196858 -0.000363903 3.45393e-18)
(-0.00444044 0.00915131 6.92728e-19)
(0.00591689 0.0146694 8.79352e-20)
(0.000199765 1.57576e-05 -1.09902e-20)
(0.00183049 0.00474466 1.0146e-17)
(0.00307709 -0.00711273 6.24554e-18)
(-0.00103994 0.000621098 2.5049e-20)
(-0.00146748 3.6113e-05 -1.91643e-19)
(-0.00274473 -0.00499294 -9.76072e-18)
(0.00365432 -0.00415851 1.25852e-17)
(0.0425927 0.0413972 1.47306e-18)
(0.136153 0.0562405 3.07902e-18)
(0.000110568 0.000420049 2.32108e-20)
(-0.000912265 5.09519e-05 -4.85834e-19)
(0.00493577 0.00563738 6.46123e-18)
(-0.0330211 -0.0104719 -2.02603e-19)
(0.000143054 0.000420484 1.39497e-19)
(-0.00819186 0.00497415 5.8463e-19)
(-0.000622295 0.000566993 1.21596e-18)
(0.0112359 0.00363286 1.72113e-19)
(-0.00217188 -0.000462793 -1.24748e-18)
(0.000125496 0.0134529 -1.26712e-18)
(-0.016923 -0.00543237 2.50779e-18)
(0.0189035 -0.0156112 -1.68322e-18)
(0.000810595 0.00261779 4.03448e-18)
(-0.00562733 -0.00542147 1.04761e-18)
(-0.000231765 -0.000674844 7.07119e-20)
(-0.00100941 0.00065819 -1.35534e-19)
(-0.00591344 0.0089895 -5.4054e-19)
(0.0101191 0.00772272 2.16527e-17)
(9.15451e-05 1.12604e-05 3.06985e-20)
(-0.00973591 -0.00287823 -2.89969e-18)
(0.000834031 0.00257756 -3.37189e-18)
(-0.00418605 -0.0185308 -1.59362e-18)
(-0.000837679 0.00054631 1.13346e-19)
(-0.0260163 -0.00752997 1.18952e-18)
(0.0070018 0.0010888 -1.35537e-19)
(-0.0908187 -0.0305779 2.68925e-20)
(0.00140145 1.23478e-05 3.99861e-19)
(0.00394122 0.0266171 -1.25721e-18)
(-0.0346711 0.0382567 -1.46067e-18)
(-0.00463779 0.0106819 1.21111e-19)
(-0.00049643 0.000459711 4.56989e-18)
(0.0160436 0.0101201 1.18071e-19)
(-0.000752065 0.000352051 -1.64302e-19)
(0.0632544 0.0346004 -1.32101e-17)
(0.00288516 0.0176562 -8.58874e-19)
(0.00143841 0.000167485 -2.81132e-19)
(-0.0867585 -0.00410956 6.33281e-19)
(-0.000721153 9.46761e-05 -7.45364e-20)
(-0.0181325 -0.0465836 -7.54735e-19)
(0.000325338 -0.000403286 1.66755e-20)
(-0.0157437 -0.0178905 1.83684e-17)
(-0.0142265 -0.0549155 5.62165e-19)
(-0.000984537 0.00138226 -1.12816e-19)
(-0.0791997 -0.0872346 -5.07467e-18)
(0.0169346 -0.00996675 -2.80911e-19)
(-0.00150184 0.000892918 7.27981e-19)
(0.0515868 0.0259075 4.55792e-18)
(-0.00278751 0.00319722 -1.9639e-17)
(-0.000866106 0.001206 -1.58789e-18)
(0.00755063 0.011149 3.54631e-18)
(-0.00091494 0.000127677 1.19979e-18)
(0.0199256 -0.0086313 1.0462e-18)
(0.00962855 -0.000949505 1.162e-17)
(-0.000373348 4.31757e-05 2.10106e-18)
(7.21816e-05 0.00163426 -1.64317e-17)
(-0.000440581 0.00104318 -2.50127e-18)
(-0.000632377 -0.000100972 -5.20961e-19)
(-0.000416754 -7.50712e-05 -2.83077e-19)
(-0.000294476 -0.000713274 -1.65339e-19)
(0.0676218 0.105066 7.79611e-19)
(0.0221695 -0.0330048 -6.55996e-20)
(-0.000917539 0.000602044 -3.26876e-18)
(-0.000206665 -0.000757954 7.42166e-20)
(-0.000939464 -4.91965e-05 2.50304e-20)
(-0.00312998 0.00360544 2.0563e-18)
(-0.0509526 0.0282287 1.45999e-18)
(-0.000199156 0.000572913 -1.18943e-19)
(-0.000277102 -9.36144e-05 3.71268e-21)
(0.00148218 0.000858689 1.31788e-17)
(-0.0239414 -0.00985014 -4.1443e-19)
(-0.000678821 -0.000124448 -7.19778e-19)
(-0.000978387 0.00132292 3.47629e-18)
(0.0251297 0.0735998 4.68517e-18)
(0.00372897 -0.0496366 -2.84873e-18)
(0.0176186 0.0144726 -1.54243e-20)
(0.005528 0.0055116 8.68551e-18)
(0.00646587 -0.0105426 1.0435e-17)
(0.000563504 0.000466481 -4.3477e-20)
(-0.000115722 0.000536266 1.25979e-19)
(0.000208449 0.00434707 1.19288e-18)
(-0.000408546 -7.10852e-05 1.32851e-19)
(-0.000162182 0.000587541 -1.66848e-19)
(-0.00086826 6.78975e-06 -4.96289e-19)
(-7.87956e-05 0.000548432 -2.66982e-20)
(0.000544666 0.000469027 7.42204e-20)
(0.0832739 0.0150484 -8.80297e-18)
(-0.000941459 0.000145292 -1.96195e-18)
(0.000961803 -0.00224819 -4.07796e-19)
(0.0124708 0.000266564 -3.16636e-18)
(-0.00205916 0.00418411 3.02655e-18)
(-0.000189291 -0.000435651 1.64845e-19)
(-4.95235e-05 0.000482648 2.83519e-18)
(0.0510564 0.0194354 -7.04026e-19)
(0.000665725 0.00338915 1.65361e-18)
(0.00805444 -0.0010401 -1.51989e-18)
(-0.000412856 0.000588493 -3.61301e-20)
(-0.00023894 0.00021175 -3.35831e-18)
(-0.000893546 0.000393434 2.13339e-19)
(0.000396618 0.000342712 6.27676e-20)
(-0.00140382 0.00148411 -7.49294e-19)
(-0.000666413 0.000244686 5.18701e-19)
(0.0207801 0.0728604 -6.37266e-18)
(0.00308155 0.00348927 -1.20357e-19)
(0.00555983 0.00200267 -5.15444e-18)
(-0.000248561 0.000208364 2.64296e-18)
(1.07176e-05 0.00258482 -4.44893e-18)
(0.00450132 0.0022726 1.11354e-19)
(-0.00103171 5.49762e-06 2.03255e-19)
(-0.0140394 0.00719054 8.32332e-19)
(0.0414566 0.0467959 1.17976e-18)
(-0.000597205 0.000549252 -4.39985e-18)
(-0.0211613 -0.0819251 1.44455e-18)
(-0.000233076 -0.000452825 -1.05387e-19)
(-0.000358607 -3.20184e-05 -5.50601e-19)
(-0.000925697 -7.68483e-05 9.03642e-19)
(-0.000717727 2.63063e-05 7.43634e-22)
(-0.000143227 -0.000377639 5.11989e-20)
(-0.000407106 6.63324e-06 -7.91723e-19)
(0.00967251 -0.00305653 -1.32885e-17)
(0.0486033 0.082426 -1.12748e-18)
(-0.000129086 -0.000357899 2.4466e-19)
(-0.0376833 -0.0619983 4.99282e-18)
(0.00212673 0.000933312 2.91034e-19)
(-0.000123261 2.96625e-05 2.12574e-18)
(-0.00232231 0.00492832 4.54881e-18)
(0.000940746 0.00285128 -6.06059e-18)
(0.0568217 0.0105228 1.17015e-17)
(0.000130588 0.00175688 8.96505e-18)
(0.0048251 -0.00294938 -1.17937e-17)
(-0.0266377 -0.0330717 4.3107e-19)
(-0.0302438 -0.0234909 -1.16342e-18)
(-0.000635697 0.000144661 -3.54919e-19)
(0.0133847 0.0120925 -1.11251e-20)
(0.00521771 0.00177509 3.64683e-20)
(-0.00161416 0.000937735 1.36216e-18)
(0.028089 0.033617 -1.50508e-18)
(0.000235754 2.43661e-05 4.32697e-20)
(-0.000770245 0.000434754 2.65853e-18)
(-0.00110687 0.00064022 4.55256e-19)
(0.000258107 0.00158083 -7.73633e-18)
(0.00207366 0.00223735 -6.65026e-20)
(0.00857556 0.00303723 2.30303e-17)
(0.000340698 0.00397225 -1.00157e-17)
(0.00075142 -0.00182686 5.70812e-20)
(-0.00624877 0.00133255 3.00265e-19)
(-0.00568047 0.0274206 3.46042e-19)
(-0.000608539 -0.00636111 1.98201e-18)
(-0.000924907 0.000571843 2.29954e-18)
(0.118025 0.0629286 6.23003e-19)
(-0.00113887 0.00246918 5.3142e-19)
(-0.00036962 0.000687375 3.195e-18)
(0.0566112 0.0479884 1.07528e-18)
(-0.000375596 5.98178e-05 9.05284e-19)
(-0.000860244 -0.00720319 -3.09106e-19)
(-0.0115615 0.0208678 -1.22049e-18)
(-0.00031833 -0.000115045 -4.9028e-19)
(0.0111388 -6.81809e-05 -5.7132e-18)
(-0.000366318 -2.90435e-05 -4.26642e-19)
(0.00038134 0.00036223 -1.66493e-21)
(-0.00302538 0.00398293 -2.28059e-18)
(-0.000379889 0.00062929 -4.19503e-20)
(-0.000402218 -1.76409e-05 5.59836e-20)
(-0.0164234 0.0148473 1.30446e-18)
(0.00672362 0.00419363 -6.8464e-18)
(-0.0910284 -0.0990083 -5.48864e-18)
(-0.000486322 5.73003e-05 -4.55406e-18)
(1.59323e-05 0.000920705 7.41967e-18)
(-6.63781e-05 -0.000716568 1.56012e-19)
(0.0186594 0.0422125 -2.02581e-18)
(-0.0215848 0.0321322 1.53813e-18)
(-0.000894132 0.000509046 6.72482e-19)
(-0.000794929 0.000501571 -1.32394e-18)
(-0.000469439 4.59303e-05 1.85753e-19)
(-0.00595471 0.00280175 3.16876e-18)
(-0.0473226 0.115971 2.05323e-19)
(-0.000122746 -0.000650964 1.00622e-19)
(9.50805e-05 1.7155e-05 -4.55179e-20)
(-0.00162436 -0.000453842 3.62362e-20)
(-0.000609632 -9.18266e-05 -2.8945e-21)
(0.00380833 0.0022341 -5.63556e-20)
(-0.00080089 0.00110988 -4.99517e-19)
(0.000214884 2.55012e-05 -3.7705e-20)
(0.00027554 0.00412141 3.96665e-18)
(-0.000313734 -0.000106833 -5.04852e-19)
(-0.000914151 -1.25599e-05 -3.22297e-19)
(-0.000443637 0.00102319 -3.20781e-18)
(-0.00228509 -0.0153806 1.75253e-17)
(0.00028203 -1.80918e-05 -1.66869e-21)
(3.15802e-05 0.00122482 3.49116e-19)
(0.000540185 -0.00110054 -2.91083e-19)
(5.3231e-07 0.00250987 5.19917e-18)
(-0.0017529 0.0064706 -6.26399e-18)
(0.0118099 0.0113196 3.22565e-19)
(-0.00795758 0.00317979 -3.17453e-18)
(0.0188056 -0.0294325 2.42479e-19)
(-0.000520924 0.0010173 2.17742e-18)
(-0.00618015 0.0236938 -1.96274e-18)
(0.00731999 -0.00450938 2.35633e-18)
(0.083964 0.00190512 2.09642e-18)
(0.0123303 0.000476457 -8.10242e-18)
(-7.31538e-05 -0.000526322 3.46894e-20)
(-0.000929386 -0.000134957 -6.42659e-20)
(0.000579375 -0.00227777 -4.55767e-19)
(-0.000337433 0.000344978 1.66144e-19)
(-0.00118302 -0.00321187 -1.04842e-17)
(5.20527e-05 0.00051197 8.5543e-20)
(-0.0746662 0.194229 -7.22927e-19)
(-0.000435038 0.000996448 -5.89856e-19)
(0.00293826 -0.011607 -1.38102e-20)
(0.0173932 -0.0212177 -1.20535e-19)
(0.000378368 0.00125267 -2.92592e-18)
(0.00507554 -0.0112077 1.98658e-17)
(-0.000105846 -0.000359747 -2.39012e-19)
(0.00105426 0.00282372 6.05975e-18)
(0.000112541 -2.43959e-05 2.17187e-19)
(0.00186363 -0.000479136 -9.02709e-20)
(0.00446254 -0.0112646 -1.1286e-17)
(-0.000301264 0.0005949 2.24964e-20)
(0.00203951 -0.00384545 1.28596e-17)
(-0.000208661 -1.26199e-06 -1.30081e-20)
(-0.000126898 2.1266e-05 -5.09126e-19)
(-0.000954076 -0.000104553 -1.96559e-19)
(0.00794847 0.00293935 -1.38881e-17)
(0.00349447 0.00331269 -6.54597e-21)
(0.000330077 8.2136e-05 4.89327e-20)
(0.00359638 0.00244285 5.37533e-18)
(-0.00256739 0.00460655 7.56239e-19)
(-0.0240338 -0.23159 4.02322e-18)
(0.00449045 -0.00161529 7.24932e-18)
(0.00763606 0.000546575 -7.17074e-18)
(0.0599488 0.0135724 -1.21608e-17)
(0.000278337 -1.91378e-05 1.78419e-21)
(0.00372643 -0.00142438 1.84656e-18)
(-0.000302043 -4.97507e-06 3.70155e-20)
(0.0563297 0.09215 -8.02242e-19)
(0.0180358 0.029807 -8.45403e-20)
(0.00221539 -0.00027884 -1.19893e-19)
(0.00781855 -0.00245214 -2.61512e-20)
(-0.000219371 3.95659e-06 2.02228e-20)
(-0.00113441 0.00238683 -2.09209e-18)
(0.000353915 0.00118351 7.87756e-18)
(-0.000262997 0.000620177 1.86988e-19)
(8.42222e-05 -2.45623e-05 9.38221e-20)
(-0.000203645 4.94061e-06 2.21453e-18)
(0.0106237 -0.00095256 1.45679e-18)
(-0.000498157 0.000115316 4.17698e-19)
(0.00113514 0.00315559 -3.33553e-18)
(-0.000760409 0.000406082 -1.84654e-18)
(0.000318358 8.64026e-05 3.03322e-20)
(-9.91993e-06 2.05863e-05 7.65844e-20)
(-0.0202294 0.0279701 -3.97242e-19)
(0.0316463 0.0145141 -1.51655e-18)
(-0.0351975 -0.020978 -1.32147e-17)
(0.00128913 0.00514342 -6.43875e-18)
(-0.000775701 0.00118083 -1.10821e-18)
(0.0153113 0.0159838 -6.59422e-18)
(0.000637833 -0.00316403 8.08146e-18)
(0.000352073 -0.000426153 -2.15521e-21)
(0.0367523 0.0387011 2.95772e-19)
(-0.000189386 3.99909e-06 3.70081e-18)
(0.000442925 0.00260058 -7.70972e-18)
(-0.000356611 0.000346767 -2.29785e-18)
(0.0164502 0.00919915 1.71509e-19)
(-0.000592145 -9.73303e-05 2.63169e-19)
(0.00479939 0.00149677 8.70332e-21)
(-2.35065e-05 0.000537169 5.38027e-18)
(-0.032377 -0.247744 1.01433e-18)
(-0.00149762 0.00233384 -5.88934e-18)
(0.003512 -0.00258256 7.72862e-18)
(0.000253776 8.81715e-06 -3.43225e-20)
(-0.00153687 0.00199438 -1.93439e-18)
(-8.30242e-05 -0.000580746 3.18511e-21)
(-0.000181877 5.02691e-06 1.2905e-20)
(-0.0055528 -0.00658909 -5.50719e-19)
(0.0355937 -0.0237058 8.86594e-19)
(-0.000175431 -0.000568417 1.49124e-20)
(0.000700569 0.0144605 3.47232e-21)
(-0.000162553 0.000103857 1.01723e-18)
(0.00130353 -0.000130579 -2.86728e-19)
(-0.000215222 2.67915e-06 -2.30239e-20)
(-0.0046157 -0.00687904 -9.09848e-18)
(-0.000489473 0.000124659 -1.90317e-19)
(-0.00928758 0.00147346 -7.22692e-19)
(2.17649e-05 0.0005104 -4.30956e-20)
(-0.000134777 -0.000588956 8.14878e-21)
(0.00983637 0.00827552 -1.41861e-17)
(-0.000232615 4.03919e-06 -2.90683e-20)
(0.00217413 0.0116462 3.79161e-18)
(0.000182141 -5.107e-06 -1.29968e-20)
(-0.000281262 -0.000171945 1.03788e-18)
(0.0681135 0.0881667 1.99077e-18)
(0.0012052 0.00314325 2.79741e-19)
(-0.000872885 0.000479169 -2.54026e-19)
(0.0120547 5.74379e-05 -5.80003e-18)
(0.00170898 -0.00333499 -7.002e-18)
(-0.065826 -0.00530199 -9.59056e-19)
(-0.0139223 0.0213175 1.37851e-18)
(-9.20037e-05 -0.000340906 -8.54525e-20)
(-0.00338794 -0.00497125 4.87674e-19)
(-0.00458549 -0.016052 1.18115e-17)
(-0.00322509 -0.000575693 -8.02658e-18)
(-1.40462e-05 0.00388417 -9.16186e-19)
(-0.00121468 0.00158644 1.87502e-18)
(0.00604226 0.00154121 1.30251e-19)
(0.000201444 -7.17404e-06 7.07982e-21)
(-0.000484857 -0.000628894 2.37361e-19)
(0.0110857 0.0198473 1.81229e-19)
(-0.00223837 0.00740926 9.38627e-20)
(-0.000334986 0.00105015 2.53238e-19)
(0.0587064 0.0532187 -5.49033e-19)
(-0.00146674 0.00248733 2.12769e-18)
(-0.0447307 0.028603 1.82677e-19)
(-0.0159099 0.0421682 4.22772e-18)
(0.0210557 -0.00226347 3.46346e-20)
(-0.00196319 0.000458842 5.77633e-18)
(0.00281178 0.0154943 8.97968e-19)
(-0.000189339 -0.00230886 1.32483e-17)
(0.000354936 -0.000832055 -2.4424e-22)
(0.00971939 -0.0114246 1.41566e-19)
(0.00868044 0.0233996 -2.65157e-21)
(-0.000295746 -0.000160612 1.10953e-19)
(0.000258557 -1.64252e-06 -3.42668e-21)
(-3.27811e-05 2.06274e-05 1.14188e-19)
(-0.000377532 -0.000950494 -5.75418e-20)
(-0.000413677 -6.77097e-06 -8.01398e-19)
(0.00341814 -0.00151116 -5.29493e-18)
(0.000753584 0.00230015 -2.67906e-18)
(-3.90769e-05 -5.81443e-05 5.96002e-20)
(0.00309235 0.00406883 8.51535e-19)
(0.000261153 8.33101e-06 4.75426e-20)
(0.00708697 -0.020997 1.47993e-17)
(0.000763696 -0.000908239 -1.97204e-20)
(-0.000180335 -0.000639992 6.83939e-21)
(0.00796257 0.003421 -1.05997e-18)
(-0.00139945 0.00578373 3.42786e-18)
(-0.0241059 -0.0214634 -1.7215e-19)
(-5.54472e-05 0.000624304 -1.8235e-18)
(0.000469556 -0.000200011 -1.83857e-20)
(-8.10744e-05 -0.000579623 -1.50741e-20)
(1.03819e-06 0.000803471 -1.18737e-18)
(-0.000393469 0.00180905 -1.2512e-18)
(-0.000648599 -0.000198934 -7.55783e-21)
(0.0107721 -0.000816938 -1.72311e-17)
(-0.000320154 0.000320469 -3.69329e-19)
(0.0128264 0.109905 -1.33318e-19)
(-0.0285636 -0.0460085 1.53545e-19)
(0.010899 -0.00903693 9.94043e-20)
(0.00708046 0.00172642 1.37271e-17)
(-8.56563e-06 0.000925685 -2.69669e-18)
(1.94731e-05 -3.03479e-05 1.49115e-19)
(-9.95511e-05 -0.000562797 7.4725e-21)
(0.00773711 -0.00346754 1.40001e-17)
(-0.0949419 -0.095646 1.43121e-18)
(-0.000425758 0.000945621 9.50485e-18)
(0.00878894 -0.00117928 -5.26877e-18)
(-0.0336175 0.0549891 -2.99501e-19)
(-0.000262297 -0.000203115 -1.23819e-19)
(-0.000144497 -0.00060355 2.12453e-19)
(-0.00157057 0.00145698 -1.09293e-18)
(0.00406092 -0.00590607 -7.32104e-18)
(-0.0369251 0.000252861 -9.32065e-19)
(-0.00167358 0.00225316 2.55108e-18)
(-1.49795e-05 0.000785799 4.13539e-18)
(5.25641e-07 0.00122909 -4.39758e-18)
(0.000373106 0.00261359 7.57817e-18)
(-0.00407831 0.000149251 1.30045e-19)
(0.000741621 0.0124353 9.88571e-19)
(0.000711794 0.00234608 -2.52799e-18)
(-0.00111109 0.000536071 -1.97876e-18)
(-0.000373406 0.0008477 1.95412e-18)
(4.40799e-06 -3.07569e-05 -1.51063e-19)
(-0.000407795 0.00175291 3.76169e-18)
(-0.00694808 9.61477e-05 -2.85404e-19)
(-0.00300754 0.00349219 -1.11119e-17)
(-0.000535955 0.00167193 2.35138e-18)
(0.000349475 0.00143665 -2.60469e-20)
(0.00989453 -0.000955602 -1.85432e-17)
(0.00164146 -0.000228669 2.60942e-22)
(-0.0609035 0.111862 4.66084e-19)
(-0.00115583 0.00145984 -9.20155e-19)
(-0.0103992 0.000892942 -2.71745e-20)
(-0.000465398 0.00110675 2.73592e-18)
(-0.00266163 -0.000673823 -5.27556e-18)
(0.000231262 1.61968e-07 -4.83488e-21)
(0.0010629 0.00282453 -1.08816e-17)
(0.0285933 0.0148961 4.18505e-19)
(-0.0160152 0.0814623 -8.38747e-20)
(-0.000310825 0.00035773 8.69415e-19)
(-0.000470634 0.00158245 1.52837e-18)
(-0.000405788 -4.2061e-06 2.13243e-19)
(-0.000324992 0.00026227 4.38132e-18)
(6.96293e-06 0.000511213 4.74188e-18)
(0.00850716 0.00140967 -4.988e-19)
(0.00397254 0.00353179 5.04509e-20)
(-0.0211176 0.0257637 -1.65908e-19)
(0.00178486 0.0125117 -3.60572e-18)
(-5.5986e-05 -0.000324302 4.50714e-19)
(-0.0043203 0.00324791 -3.24534e-18)
(0.000465378 0.00147823 3.32761e-18)
(0.00022336 0.00160416 2.77761e-18)
(0.00194522 0.0145345 -3.40614e-18)
(-0.000918918 2.282e-05 -3.22168e-19)
(0.0010656 0.00283326 -7.31975e-18)
(0.0177312 -0.0435246 -3.32102e-18)
(0.000306333 2.14482e-05 1.70948e-20)
(-0.00108744 0.00564538 4.85677e-18)
(-0.0130998 0.00196463 2.93291e-18)
(0.000649189 0.0023387 5.03474e-19)
(-0.000374391 -0.000498207 9.18701e-20)
(-0.000183614 -0.000393066 -6.98623e-21)
(-0.000450682 -0.00064195 -3.1975e-19)
(-0.000726547 -0.00115375 1.0125e-17)
(-0.000374767 0.000801029 1.27399e-18)
(0.000984672 -0.000876771 2.4404e-19)
(0.000920949 0.00253011 -6.68209e-18)
(-0.00067535 -0.00019175 1.06049e-19)
(-0.000195554 -0.000483481 -3.29958e-19)
(-0.00640041 0.0142286 2.09447e-18)
(0.0359279 -0.0360046 -3.67517e-18)
(0.0135431 0.00849591 9.28626e-19)
(-0.00682489 -0.0599734 1.32741e-18)
(0.00946731 0.00386139 1.81461e-19)
(0.00493813 0.0075903 2.94779e-19)
(2.75682e-05 0.000508504 5.10013e-18)
(-0.00169143 0.00302655 -5.76912e-19)
(0.0157505 0.0120545 -1.59509e-17)
(0.00206131 0.000115459 2.19218e-19)
(-0.00883646 -0.0148819 -3.194e-19)
(0.000198262 1.27803e-05 -1.74219e-20)