/*--------------------------------*- C++ -*----------------------------------*\
| =========                 |                                                 |
| \\      /  F ield         | OpenFOAM: The Open Source CFD Toolbox           |
|  \\    /   O peration     | Version:  v2012                                 |
|   \\  /    A nd           | Website:  www.openfoam.com                      |
|    \\/     M anipulation  |                                                 |
\*---------------------------------------------------------------------------*/
FoamFile
{
    version     2.0;
    format      ascii;
    class       volScalarField;
    location    "800";
    object      omega;
}
// * * * * * * * * * * * * * * * * * * * * * * * * * * * * * * * * * * * * * //

dimensions      [0 0 -1 0 0 0 0];


internalField   nonuniform List<scalar> 
13917
(
5.30152
0.0411914
0.208416
0.0221193
0.0293169
0.0405123
0.0262227
0.0965303
0.0251823
10.1709
0.0870636
0.0216958
0.0243549
1.53512
0.0273125
6.90312
0.0217867
0.0713238
0.107492
7.61625
0.0329066
0.0216959
0.0436225
0.0216987
0.0230305
0.0350861
1.85238
11.7106
0.0469989
0.0201294
10.5497
0.0642094
0.0221308
3.04842
0.0215628
0.106138
0.0237004
0.0240244
0.0262647
0.0368732
0.0216769
0.0218762
0.023774
0.102019
0.101465
0.171895
0.0311865
6.39492
1.10788
0.0215774
0.0216652
0.112079
16.6735
0.0216162
0.0216804
0.110629
5.10397
0.0436096
0.0217584
0.156326
2.90334
0.0312741
0.0210609
0.0228665
3.01567
0.105855
0.0522437
0.0824296
0.0789533
5.75323
2.58552
3.14855
0.0216926
0.0215329
0.0337242
0.0234518
0.0244994
0.0214334
0.0232541
0.0221981
0.0221344
0.0219818
0.0216797
2.78166
0.0211482
0.127679
0.0619063
0.0216101
0.0365166
0.0216902
0.0207114
0.0239454
1.06396
0.0212392
0.0220807
0.0516277
1.1847
0.0224785
0.021512
0.124753
0.0212603
0.0211815
0.0221714
0.0215685
0.0244553
3.09686
2.89124
0.0311331
0.0222069
1.88579
0.0215302
3.01319
0.0467293
6.24697
3.02167
0.023834
0.100765
0.020761
0.166085
0.0216283
0.0218867
0.0211623
0.0574149
0.0893252
5.38369
2.95252
0.0227179
0.0355201
0.0212131
0.090425
0.0317217
0.148863
3.6235
0.0237931
0.0751088
1.86441
3.04856
5.29461
0.0375983
0.0239672
0.819877
0.0212848
3.05905
0.0211853
0.0216257
0.024369
2.51614
0.354849
7.07692
0.0216472
0.0338789
0.0210841
0.021607
0.021637
1.54261
0.022441
0.0214967
3.62497
0.0213051
0.02091
0.0211269
2.82168
0.0255851
0.837512
2.55627
0.10219
23.0449
2.84586
0.0196085
0.0399909
0.0218285
3.49492
0.0251523
2.64886
0.0674396
0.021138
0.0221236
0.123369
0.0309886
0.0261457
0.0236634
0.0217384
0.0216635
0.184779
0.166792
0.137841
0.0216386
0.18517
0.020146
0.111349
0.0676714
0.0937978
0.133655
5.05671
0.0212451
5.18132
0.0253347
3.66661
0.0215275
0.0221898
0.029304
5.5253
6.72277
0.0233521
1.94756
0.035646
0.0342278
0.0212864
0.120578
0.0221299
0.0209163
0.0376968
0.038864
6.44948
0.0730136
0.0368419
2.98285
0.0227544
0.0203693
0.0203548
3.14357
0.147463
0.176256
0.0213601
0.0211827
1.88796
6.1939
0.0203131
0.0203003
0.0217131
0.0203785
0.0203676
3.28966
3.71376
0.0218257
0.019625
0.0722094
3.37287
0.0213897
0.0213575
1.95552
3.12038
0.16457
2.98497
0.0937518
0.0211918
2.61689
0.0751784
0.0434397
0.0725086
0.0231179
4.31093
0.0216384
0.0398193
0.060937
0.0219323
0.0218503
0.0228471
0.0276276
0.0216973
3.75406
1.08383
0.0211799
0.0203024
0.0225504
0.020308
0.0216431
0.0243465
0.0354252
0.0213042
4.25954
2.81071
0.0214654
0.0251664
0.308098
0.0202227
0.0900072
3.38712
0.0202349
4.26642
0.0215951
2.79435
0.0212353
0.0257838
0.0220035
0.021158
0.140132
0.0230332
0.307614
0.0274994
1.08556
0.025267
1.69342
5.56408
0.0209861
0.0497063
0.028107
0.0240999
0.0287362
0.0232161
0.0213327
0.0226025
0.122214
0.0388501
0.0386667
0.0230681
0.021341
3.6498
8.35914
0.0211364
0.0254191
0.0241354
0.768668
0.12024
2.8273
2.59866
0.0655265
0.155725
0.02488
2.50599
0.773433
0.208704
0.0241725
0.0270226
1.8448
0.0221031
0.0448963
0.092908
0.021612
3.48743
0.0211918
0.0401222
0.0204079
19.0716
0.0208029
0.0364507
0.0361526
0.0568612
0.0215068
0.0726099
2.75954
0.0219879
0.0220953
3.0104
2.84852
2.61043
1.52676
0.0202142
0.0217779
3.1991
0.156024
0.0202303
0.0286642
0.0216297
0.0519666
0.0375195
0.108253
0.0904031
0.0906173
0.0395864
3.1947
0.0212487
0.0219954
0.0306212
0.163349
0.0215353
6.10157
0.0393975
0.285079
0.0217177
0.118862
0.0260267
1.07533
0.0219044
0.178028
0.305303
0.0389299
0.0214855
0.745236
0.0206612
2.55344
0.142621
0.021898
1.10276
0.0223635
0.289021
0.0207718
6.55288
0.287059
0.0232664
1.95606
0.0780262
0.0227932
2.64931
0.209047
0.0228997
0.142625
0.0216912
0.0796039
0.20648
0.0212153
0.0257417
0.0230458
0.0211426
0.0209345
0.0212937
3.09717
0.114599
0.021841
0.0213665
0.0215496
0.0483784
0.678384
0.0202571
0.019626
0.1182
0.117842
0.0211822
0.0231324
2.60893
1.57563
0.110239
0.113513
1.99411
0.0207674
0.0202313
0.0302357
0.0209242
0.0202729
0.0218981
0.0202477
0.0207079
2.743
0.0217294
0.0396427
3.91034
0.0492986
0.0209374
0.0215896
2.66501
0.0293196
6.56209
0.020355
0.0213369
0.0207661
0.0203875
0.0235928
0.0225554
2.58991
0.0251684
3.22879
0.0213314
0.0340832
0.0258339
0.0220739
0.0910764
2.61283
0.0216007
1.64631
0.0209696
0.0213537
0.0215117
0.0223799
0.0208698
0.0222
3.60898
2.69638
0.0208498
1.79416
0.115671
0.0218387
0.0540117
0.0702637
2.61923
0.0264776
3.16699
0.280459
0.284742
0.022575
0.0840427
0.0265522
0.0229942
2.02726
0.0208392
0.0215708
0.0220862
0.0254494
0.0320292
0.149835
0.0514821
0.0236094
0.026177
0.0661249
0.0516067
0.0218425
1.52221
0.0348187
0.0275251
2.55695
0.0211566
0.0537116
0.133336
0.0208407
3.45863
0.021463
0.0203825
0.049695
0.0203652
0.0225233
0.119478
3.72906
1.82443
0.0211237
0.0223176
0.0233557
1.55951
2.30624
0.0217553
0.0216513
0.021106
0.0563443
0.504332
0.0212852
0.0214204
0.0221199
0.0211238
0.0260388
0.0276826
0.0209987
0.0522394
0.0208431
0.021582
0.0229197
2.88353
0.0204228
0.0234727
0.0217007
0.0330495
0.0636089
0.056463
0.0635975
0.134028
0.0227086
0.0596481
3.65247
2.78652
3.55566
0.021064
0.0214743
0.0246748
0.0213998
3.07463
0.0202484
0.717235
0.0253301
3.43168
0.098809
0.023765
3.48373
0.0208427
0.0606398
0.0223595
0.0227886
3.47709
0.0202969
0.198002
0.0212375
0.0227626
0.021511
0.144552
0.0263238
0.0202824
0.103137
0.0528217
0.660117
2.23916
3.73351
2.59398
0.0204301
6.03818
0.020561
2.98162
0.341374
0.0233292
0.0296985
0.0212238
0.0343229
0.0234355
0.0203109
0.0223923
0.0241024
1.58678
0.0211699
0.0580524
0.0215425
0.0202705
0.0212204
0.178794
2.58402
10.6428
0.0678553
0.0275591
0.273373
3.28142
0.020803
2.45529
0.0238776
0.0948643
0.0213936
0.666621
0.0211055
0.0264199
0.0216459
0.677479
0.0356656
3.06222
0.0211233
0.0340903
0.0215187
0.0213981
3.08054
0.102985
0.0217328
0.117506
0.0213406
0.0224371
0.0212348
2.96538
0.0211738
0.0280425
0.020237
0.0216235
0.164219
0.0211324
0.109789
0.0222042
0.0208186
3.03597
0.0597944
0.0217071
18.2733
0.186143
0.479867
0.13728
0.0208242
0.0283475
2.97535
0.22794
0.028966
0.0237141
0.0267935
0.0220648
0.0212662
0.0738498
0.0687596
0.0245606
2.56721
0.0361333
1.27049
2.34866
0.0396142
0.0347686
0.130114
3.82772
0.0213379
0.033235
0.0851658
0.0208291
0.0212866
0.0211969
0.0238154
0.022509
5.76601
0.0338487
0.0212291
0.08661
0.0210423
2.81562
0.0215886
0.0212119
3.6379
0.0597952
0.320455
0.0217393
0.0216672
0.0211977
0.0220356
0.0276299
0.0211494
6.08657
0.0293919
0.57278
0.332279
0.0328007
3.75627
0.0223211
0.0222852
0.021587
3.2894
1.93326
0.0256983
5.83657
0.574541
0.020814
0.021172
0.0236024
3.00531
0.345106
0.0359191
0.0220037
0.023469
0.0979251
0.0241464
0.107913
0.0339604
0.0220283
0.0222192
0.0223368
0.0275318
0.0261885
0.239694
0.0244526
0.0244388
5.81389
0.0213986
0.602964
0.0234278
0.0334449
0.0251798
0.211909
0.021821
0.0571918
2.53709
0.26066
0.021422
0.024477
0.0232322
0.021326
0.0216346
0.0318277
0.0257125
0.177707
0.109986
0.0207979
0.24753
0.0251279
0.0254798
0.121021
0.0218604
0.0605005
1.02612
0.020308
0.0598398
0.0793085
0.0336432
0.021073
0.0208964
0.0212594
7.10721
0.0220914
0.0217918
0.0395982
0.0211727
0.0209882
0.105937
0.330179
0.0386318
1.64273
0.0480035
3.26322
0.0216403
0.0249677
0.165855
0.0233202
0.0257585
0.0214976
0.0212647
0.0217143
0.0248944
0.0584136
0.0210708
0.0862238
0.0219845
0.39608
0.0234626
0.0264258
0.0204223
0.0733085
0.0260375
2.71417
0.0399755
0.0218902
2.8679
0.022296
3.9594
0.0232553
0.054416
0.0236001
0.0209941
0.0214084
3.41095
0.0274265
0.647564
1.58559
0.0213214
0.0338813
0.0196087
0.0268296
0.447539
0.0196431
2.62775
0.0235553
0.0564039
0.098773
0.779965
0.02045
0.0213932
0.0991092
0.0208166
0.021585
0.0227154
0.0214365
0.0396735
0.020437
0.101396
0.022026
5.62714
4.07487
0.4975
3.3301
1.68166
7.55881
0.791256
0.0207551
0.0222937
0.0215278
0.0222945
0.0211094
0.0275547
0.0212078
0.475102
0.0216154
0.660332
0.0220192
0.0301911
0.0862521
0.0211168
0.0394292
0.0222941
0.0230512
0.0254697
0.0206596
3.8615
0.0737038
0.137988
0.0211344
0.0214963
0.0219185
0.0220533
2.55868
0.0207773
0.108608
0.0210896
0.278902
0.0254619
0.0211926
0.0589065
0.0317323
0.0207899
0.337511
2.33105
0.0236962
0.0730781
0.0208028
0.125106
0.0209934
0.0220503
3.54391
0.0216447
0.0221869
0.0852489
3.87318
0.0219073
0.802561
0.446102
0.0220578
0.0229889
0.0214747
1.44473
0.0214691
0.110511
0.0216222
3.50921
0.0257993
2.51507
0.0213687
0.0201123
0.286669
0.0230072
0.0212912
3.63923
0.0226673
0.0209251
0.822905
0.0220496
0.0222878
0.0679074
0.022805
3.0924
0.0374404
0.0699051
0.12787
0.0234026
3.4377
0.0222125
0.0636181
0.0213764
3.72507
0.280008
0.0217924
0.02104
0.0224283
0.0217577
0.020727
0.0208256
0.0212587
0.0214032
0.0281352
0.0203085
0.0225081
0.0681913
2.56764
2.73108
0.0793435
0.0219258
0.286999
0.0211686
0.180599
0.457052
24.1588
0.0203286
0.0207654
0.0216982
0.0215398
0.0203065
0.0207572
0.021232
0.0359059
0.020932
12.3948
0.81815
0.0209662
3.41454
0.0213862
0.0213007
0.0305007
2.93774
0.0563991
0.0210334
0.310955
0.0213681
0.0213294
0.225246
0.0224315
1.41783
0.0222609
0.0666072
0.0209428
0.0212302
0.0295093
0.675229
0.0226225
3.11988
0.0338044
0.0231845
0.0232941
0.0214925
0.0208753
0.0861021
0.0330109
0.0244071
3.19299
9.62771
0.57038
0.090822
0.021185
3.31664
0.021164
2.62206
0.0589549
0.0258352
0.0224697
2.6911
1.75172
0.910314
0.0216902
0.513893
0.0207698
0.0212129
0.034173
0.0219766
0.0216
0.402119
4.1471
0.0212289
0.0268476
3.43651
0.0212045
0.020244
0.782556
2.81063
0.0221912
0.0206563
0.0258341
0.021568
0.021286
0.0318305
0.0250849
0.0215125
0.585666
0.021639
0.0243607
0.464809
0.0329461
3.61038
0.0217655
0.0219767
0.171156
3.90255
0.274335
0.028583
0.0307383
0.0219316
0.0222849
0.0219799
2.69429
0.0251225
0.0222918
0.0499618
0.0211569
0.260907
0.0712477
0.108337
0.0562876
0.172636
0.347259
2.55474
3.23042
0.0240384
0.186624
0.0202586
0.0546392
0.0735191
0.413687
0.0241761
0.0228042
0.0248816
1.20648
0.0227858
2.60171
0.0333128
0.0829104
2.60142
0.0212503
0.0937822
0.0230731
0.0215738
0.0273541
0.0297342
0.0202236
0.020747
0.0224963
1.9949
0.0209243
0.0226772
0.0234354
0.0222099
0.0214925
0.0867247
0.0653736
0.022295
0.0210973
0.0857408
0.156471
0.036169
3.51026
0.0217758
0.0214381
1.80998
0.0217982
0.0228675
3.25956
3.50577
0.0286637
0.0546685
0.0257684
7.74985
0.106206
0.0308282
2.25469
0.0212435
0.0746455
2.5606
0.171296
0.466218
1.10338
0.0206762
0.0215489
0.0242477
0.0215112
0.0216279
0.2442
0.0216446
0.0422033
0.020521
0.0541264
2.66319
0.0228299
1.88434
1.63847
0.0214359
0.0713689
0.0254714
0.0225653
0.0213257
3.39596
0.0666171
3.67222
0.0264776
2.79064
0.0811837
0.0215844
0.298533
0.033538
0.0225775
0.0212056
0.158797
0.0213323
0.024903
0.0346846
0.0248731
0.0219609
0.0519875
2.43715
0.0211386
0.171299
0.0665098
0.0215836
0.0211476
0.0242845
0.901363
0.166404
0.0209298
0.029385
0.0345738
0.793106
6.73032
0.021565
0.0209476
0.0206705
0.0214985
0.0246022
0.0234754
1.0701
0.0221214
0.0239367
0.03129
0.0359252
0.0784206
2.82831
2.69933
0.0217658
0.021613
0.020898
0.0224314
0.0655603
3.88495
0.0916016
0.0893901
0.0289531
0.0470735
0.0233436
0.0488291
0.0246631
0.100107
0.0212287
0.118718
0.0555745
0.0208353
0.0217274
3.08226
0.0461106
0.0328955
2.55564
0.11688
0.0212
0.229827
0.0236732
0.0212328
2.57925
0.569163
0.0212482
0.0287536
0.097887
0.031875
0.022118
0.020416
0.0211593
0.0209117
0.0213254
0.0284443
0.0474799
4.52358
0.0323101
0.0250921
0.0303898
0.0782264
0.0210614
0.0321076
0.176708
0.196817
2.80041
0.0225981
0.0203975
3.61885
0.0210595
0.272173
0.0226478
0.0398203
0.021793
0.0211126
0.197517
0.0254876
0.0225202
0.0214868
2.68666
0.168532
3.34441
0.0218127
0.0215134
1.11362
0.0208956
0.0207983
0.114379
0.565323
0.0259056
0.0319392
0.0220605
2.1137
0.0212411
0.0239782
0.0219628
0.0203809
0.196817
0.0212359
0.0208906
0.635582
0.054978
2.58858
0.193239
0.0211824
0.0290106
0.0209916
0.0211612
0.0233685
0.0224705
0.0215704
0.173675
0.0215566
0.0674309
0.0268643
0.0253715
0.0215848
0.0218878
0.0212475
3.45768
0.0202146
1.17204
0.0647907
0.0227743
0.0490527
0.0319021
0.0293079
0.0214769
0.027438
0.0209512
0.0208344
0.284484
0.0358401
0.025389
0.0214513
0.0214201
0.021012
0.0679679
0.0211578
2.93666
0.0430175
0.0213031
0.0213095
0.0206799
0.0427253
0.0327515
1.74113
0.0283849
0.254792
0.0251822
0.0894401
0.0234219
2.72718
0.0205143
0.0201793
0.0243182
0.223383
0.0207101
3.03481
0.0215417
0.0215819
0.117554
0.156315
8.42894
0.0982376
0.0249954
0.150684
0.0331222
0.020775
2.74901
0.0213964
0.0211373
2.28231
0.0205981
3.06295
0.0709905
0.0210729
0.0214153
0.0208185
3.73508
0.0212734
0.0204138
0.0697936
0.0211879
0.0209632
0.0218426
0.0207766
0.0427271
0.0216643
0.0241491
0.0207148
1.80332
0.256051
0.0207338
0.0207427
0.0221455
0.0212941
0.0235535
0.0218729
0.0214965
0.0216895
0.0214444
0.0222978
0.0214656
0.0608655
0.0206757
0.0737543
0.0216201
0.0484391
0.0208971
0.0215529
0.0211524
0.0202611
0.033942
0.0254882
0.0246808
2.65411
0.103495
3.53685
2.86019
0.0736434
3.40465
0.0215688
0.0214465
1.16953
2.60905
0.0210857
3.39039
0.0207739
0.110414
0.583399
0.0234171
0.0757794
1.57488
1.93659
0.02141
0.0444297
0.0209824
0.118121
0.0238494
3.24437
6.17834
0.0216459
0.187925
0.518769
0.0218617
1.42603
0.239473
0.0228645
0.0209542
0.144704
3.40032
0.0207713
0.0307525
0.0218058
0.422959
0.122433
0.0215053
0.0209289
0.579782
0.0211187
0.0214424
0.0220132
0.0207645
0.561411
0.0277467
0.0274745
3.2721
0.0213304
0.0530871
0.0216848
0.125108
0.0517605
0.132291
0.0208661
0.026754
0.0207793
0.0218408
0.0235439
0.0214512
1.95765
0.0224253
0.0208091
0.0211493
0.278487
0.020937
0.442699
2.5194
0.745005
0.0215425
0.0209928
0.0212406
0.810405
0.0217094
2.5767
0.0214967
0.959264
0.0227487
0.0230455
0.199922
0.0215536
0.0217204
3.44612
0.0995692
3.01369
0.0221562
3.41078
1.4963
0.0215087
3.19224
0.0216291
0.0248137
2.58122
0.0231533
0.0398578
3.74453
0.028777
0.0629023
0.0215743
1.45467
0.0214202
0.421108
0.0212447
4.28213
0.0214408
0.0215614
0.0234183
0.493476
0.0210262
0.101701
0.0592779
1.56497
0.0212499
0.0279431
3.4977
0.42786
1.6001
0.0716101
0.020896
0.100992
0.716931
0.023579
0.464995
0.020141
0.128542
6.31517
0.0210809
6.62079
0.0213116
3.32469
0.399858
0.023379
0.0236893
0.419119
0.621161
0.0214672
0.0225761
0.0207826
0.0215231
2.9957
0.060042
0.230977
0.0217076
0.0264019
3.10392
0.0272237
0.798574
0.789295
0.021146
0.0213803
0.166253
2.59598
2.35511
0.455656
0.176846
0.0358276
0.0471925
3.42299
2.57648
0.512314
0.0209542
0.073888
0.0419055
0.066286
0.0214182
0.0255234
0.0555417
0.121908
0.692439
0.0222143
0.791758
3.2501
0.040442
0.0214228
0.0214264
0.647634
0.021041
3.66644
0.0269326
0.0220025
0.172784
0.0283486
0.0207211
0.0338637
0.0285441
0.0214422
3.74197
0.024504
3.8293
0.021128
3.08415
0.175924
0.16995
0.0202584
0.0255547
0.0292146
0.120552
0.105413
0.0633604
3.01557
0.178649
0.0196827
0.0249656
0.0226328
0.111926
6.38989
0.0207104
0.0206967
0.0224767
0.491366
0.1243
0.0211824
0.0462547
0.17185
0.0209281
0.0274775
0.0234878
3.7967
0.026278
0.244336
2.71222
0.027304
0.0239574
0.396518
0.0211383
0.0434682
2.92366
0.0244015
0.0765139
0.0304779
0.0545003
2.57175
3.35482
0.0215528
0.998568
0.150302
0.0206057
0.118659
0.0620767
0.103609
1.60906
0.646616
0.586683
0.0985922
2.74068
0.0259176
0.062499
0.0206519
0.021711
0.0214863
0.020935
0.202001
0.118261
0.0202263
0.0458669
0.153944
0.021126
0.539596
3.0613
0.020181
0.0216731
0.0207714
0.0223439
0.0422351
0.0214169
2.70558
0.0283971
0.065339
0.0251583
0.0641881
0.0457202
0.0318592
1.10995
0.0214402
0.022433
0.0201894
0.0210483
3.50505
0.0885826
0.0276009
2.88239
0.0217578
0.021952
0.0305985
0.0208052
0.0212551
0.0683083
0.0246791
3.23409
2.58588
2.75447
0.0216088
2.94901
0.0212529
0.207833
0.0207004
0.124469
2.66587
0.0215356
0.328756
3.49834
0.0307545
0.0224464
0.0208211
0.0266454
2.57138
0.0207393
0.021744
0.0227393
0.0241568
0.16778
0.022765
0.0249109
0.021115
0.0227568
0.421939
0.0322559
0.0235731
0.112284
0.494886
3.30557
0.958468
0.0232659
0.022296
2.97948
0.0214321
0.0614066
0.0216306
3.05799
0.0222882
0.0219342
0.0322308
2.75732
0.0213847
0.0208655
0.0204948
0.132137
11.3263
0.108129
0.0214745
0.0234244
0.0209313
3.3374
0.0212298
1.16445
0.053714
0.02176
0.177161
0.0325812
0.195847
0.0220072
0.0207908
0.0286662
0.0393008
0.115325
0.0216886
0.0218439
0.0221715
2.94331
0.0216702
0.0223489
3.30712
0.0227572
0.0262555
0.0240689
0.0211734
0.0214491
0.301124
0.0231777
1.579
0.277974
0.0199787
1.04972
0.0217923
0.0963149
0.0452546
0.0225745
0.0203031
0.0199539
0.0214049
1.00476
0.0449746
3.51117
2.72276
0.0209691
0.0249899
0.0358647
0.630254
0.0214005
0.115112
3.38269
2.87533
0.0213552
0.0227049
0.0219161
0.785097
3.47298
0.0218561
0.0215373
0.029197
2.85572
0.0216397
0.0227767
0.0227095
0.10804
0.200897
0.020533
2.70107
0.0277711
0.0214121
2.35872
0.053358
1.35935
1.00359
0.0303069
0.0250391
0.0224026
0.0257972
0.0219787
0.0666622
0.043433
0.0215044
0.0239263
0.222113
2.63109
0.0207225
0.100535
2.93488
1.57153
0.0216735
0.0215233
0.283805
2.16952
0.119512
0.021171
2.60787
0.0626387
0.0200343
4.51608
0.0262531
0.02166
0.159513
0.0214336
0.0338345
0.020961
0.0198694
0.0215831
0.0204897
3.01736
0.0202187
0.0211715
0.0718485
0.0245476
0.0239172
0.120121
0.0214787
0.0214757
0.0226288
0.022235
0.260639
0.258733
0.19134
0.972391
0.0326777
0.364462
0.0461479
2.9006
2.77187
2.96484
0.0209297
0.0287661
0.02142
0.0215079
0.0211275
0.0226127
0.169482
0.0559517
0.0357639
0.0211041
0.0213869
0.0529018
0.0217224
0.0218029
0.0214841
3.36761
0.0293751
7.71947
0.0215981
0.283861
0.0218878
0.0218733
0.0220805
0.0405529
0.0210659
0.0792194
2.98497
0.0381206
3.67387
0.271327
0.0235099
0.0264023
0.356462
0.10366
0.0203613
0.0210771
0.0199724
2.76988
0.019852
0.108357
0.0350684
0.0721715
1.41349
1.44741
0.0608302
3.79786
0.0207768
0.0204805
0.127012
2.24274
0.0214003
0.0215793
1.11184
0.0209672
0.174376
0.0228223
0.0211731
0.0246666
0.0215005
0.0666236
2.91209
3.15035
0.0241933
0.0216637
0.0717847
0.0223738
0.0726253
0.0209199
0.123639
0.0843961
0.0218013
0.0216198
0.0200232
0.115318
0.0451396
0.17155
0.676796
0.028205
2.63707
0.0689513
0.102331
3.19912
0.0212696
2.72314
0.0221891
3.39916
0.197082
2.6802
3.05169
0.0220251
0.0504109
0.126152
0.0214736
3.8535
0.0214519
0.0214833
0.0253054
0.0219935
0.0294624
0.249048
0.525836
2.57954
0.0250475
0.0371629
0.0223561
0.021916
0.0216504
0.120942
0.0800977
2.66827
0.0415689
0.0202691
0.02079
0.0220092
0.202858
0.0236221
0.022353
0.0243744
0.0795229
0.0302238
0.0398915
0.0356516
2.77852
0.0278911
0.0312739
0.0214072
0.0253791
0.260075
0.0395849
0.0429683
0.0208032
2.45279
0.0310524
0.0211457
0.0455037
2.99285
0.242846
0.0312507
0.0209796
2.58534
0.0218448
0.0209356
0.0203085
2.32015
0.506492
0.0234967
1.80637
2.77559
0.024486
0.0357412
0.0559704
3.79706
0.028982
3.43214
0.0218836
0.0377547
0.0252308
3.58136
0.0316742
0.0209598
3.13773
0.0216655
0.0221742
1.58577
2.47224
0.0616097
0.379929
0.024018
0.0224638
1.46245
0.0211466
0.021185
0.0215634
0.0423376
0.0213868
0.029918
0.0244614
0.0697277
0.974868
0.0220707
3.83348
0.0243211
3.07104
3.53345
0.0215374
0.0216902
0.0248897
0.197408
0.169957
0.0623553
2.98831
2.64424
0.131146
0.0228914
1.83477
3.20276
0.0436784
0.427516
0.0215526
0.0213627
0.0215824
0.0222868
0.0212956
0.0316397
3.20133
0.0296945
0.279889
3.60761
1.26082
2.72093
3.34229
0.0272703
3.60819
0.0993072
0.0695075
0.0206795
0.0215122
0.0637614
4.1112
0.022551
2.6943
3.22615
0.020976
0.0215745
0.0219858
0.0813759
0.0219309
0.067932
2.76387
0.0206975
0.0214047
0.0209485
0.0221121
0.0913737
3.01484
0.0340685
2.63895
0.102189
0.0211593
0.266832
0.118804
0.0215592
0.214253
0.75015
2.63499
1.91366
3.50168
0.0213967
1.83935
3.06024
0.141171
2.71071
0.0210917
0.0228836
0.0233953
0.0231054
3.1041
0.0617819
0.0216647
0.026171
0.299586
3.14282
0.0227823
0.022011
3.61889
3.31653
0.0216885
0.0267209
0.0981834
0.0213206
0.0214104
2.62691
0.0211163
0.232835
0.277443
3.22707
0.0210497
0.0670503
0.130165
0.0211193
0.0200773
2.43036
2.36553
0.0219809
0.0318825
0.144682
0.189461
3.53799
1.36252
0.0248848
0.248759
0.331093
0.0325435
0.0211143
0.0850845
0.0204412
0.0201757
3.29028
0.035124
0.0875798
0.0239155
0.0259383
0.0210432
0.0205103
0.0220309
0.0222087
2.29939
0.023704
0.47769
6.20773
0.0407425
0.0667162
2.58659
3.47056
2.40545
0.0208733
0.0242722
0.0330577
0.0246895
0.165374
0.350392
0.0220125
0.484007
3.33334
0.0255838
0.0850586
0.0704129
0.0927139
0.10109
0.0225253
0.112036
0.122678
0.134928
0.148556
0.1049
0.0770316
0.0265177
0.0210931
0.0312142
0.0842688
0.0210818
0.166115
3.6958
0.173655
3.0849
0.020053
0.0207999
0.0361561
2.60037
0.0221412
0.0233761
0.0608209
3.22877
1.05106
0.0214505
0.0295492
0.0245279
2.8314
0.28669
0.0237734
0.178187
3.11204
0.0935055
3.36501
0.0885153
0.0950857
3.62707
0.0195994
3.69325
3.219
0.0222934
0.0652314
0.0920338
0.0247956
0.0209603
0.251253
1.05815
0.0209885
0.0210435
2.58776
0.254229
0.0738194
0.0216634
0.222556
0.118871
3.2028
3.80701
0.021555
0.0213731
0.0220958
0.0230602
3.34714
1.1318
2.99412
0.0788039
0.197225
0.433679
0.0231094
0.021055
3.17687
0.0210463
3.52043
0.0210578
3.37747
0.0223462
0.0222037
0.65625
0.0216199
0.102913
0.463785
0.0241929
0.0231495
0.0224575
0.163714
3.32566
0.140219
3.11392
0.0242614
0.0230579
0.02679
0.0709799
3.85249
2.81007
0.091095
0.194657
0.113587
2.08674
0.0211878
0.0210251
0.0207147
0.0206812
0.185261
0.0696706
0.269052
0.0380408
0.134431
0.0211263
0.276591
0.115447
2.91774
0.0214635
0.0225884
0.0198837
3.06866
0.0523568
0.55993
0.192082
0.110827
0.201354
0.0199971
0.0352676
0.132237
0.181008
0.221329
0.0216256
0.121599
0.0219042
0.0220584
0.094338
0.954079
1.71784
0.0217286
0.0804339
0.137617
2.8444
5.29129
3.32264
3.29215
0.0210978
0.0571034
0.0216577
0.126241
0.0213205
0.104322
0.022928
0.0463424
0.248298
0.445051
0.023986
0.090683
3.19466
0.109629
0.0231551
1.59743
0.100567
0.0225214
0.0223807
3.16535
0.0275079
0.119447
0.165496
0.157074
4.07018
0.0236302
2.84475
2.96225
1.00739
0.253584
0.0299519
0.100173
0.0908224
3.24579
0.0698988
0.022032
0.477974
0.0478672
0.175625
0.0264723
2.5798
0.584588
0.951114
0.0255568
1.45613
0.0236422
3.11882
0.134785
1.0409
7.48266
0.0209432
0.0198685
3.15666
3.63806
0.0330697
0.0219541
0.0389839
0.0287469
2.78862
0.0829741
3.24383
0.0251257
3.3031
0.115584
1.01359
0.0219924
0.176548
2.57316
0.0241473
0.0800013
0.0200413
0.0238288
0.0215972
0.245238
0.0211827
0.0216025
3.58952
2.31311
0.0206633
3.75136
0.0221606
0.0215072
0.0212929
0.0210093
0.0217142
0.23983
3.5332
0.0207045
0.733242
0.0642979
0.0459572
0.543965
0.0809789
0.0247412
0.0308815
0.0212945
0.24326
0.0289987
3.80354
0.0246115
2.93632
0.361607
0.0666735
0.710112
3.37843
0.0207928
3.7096
0.0527202
0.0623885
0.0371973
0.0211764
0.0375306
0.173294
0.021559
0.0643676
0.0214158
3.26368
0.132536
2.54295
0.160887
0.15404
3.54997
0.0215265
0.02132
0.0598822
0.0226371
0.0216909
0.0217172
0.026131
0.0211014
0.021196
0.0224155
0.0397276
0.022873
0.0262121
0.0228646
0.0343942
0.0956324
0.0231526
3.38529
0.0229536
0.0212471
0.0879135
0.0406579
0.0231343
0.0210952
0.529785
0.0231764
3.23441
0.0233384
0.105468
0.0212987
0.0214332
0.0884818
3.70378
0.0673094
0.0330385
0.0201591
3.21806
0.0216183
0.0211601
0.0733236
0.0235804
0.131746
3.1738
0.09241
0.111217
0.038729
4.11353
0.0214585
0.021582
0.0598284
0.255519
0.0571621
0.093994
2.56572
0.0264424
0.021537
0.026963
0.217511
0.0552193
0.0215764
0.0957475
0.0922503
0.061327
0.0217132
0.0216173
0.177851
0.0601739
0.671816
0.38883
0.0232764
0.0673821
0.0216874
0.042708
1.76991
0.0216311
0.145905
0.0493926
0.078837
1.01849
0.0215262
0.0213599
0.0212468
3.56469
0.190306
0.0230634
0.0888783
0.104414
0.021665
0.0214103
0.124621
3.6901
0.178429
3.22049
0.152595
0.029668
0.177197
0.114325
0.0294094
0.081895
0.0839051
0.116692
0.0214926
0.0930306
0.12588
0.0221872
0.515833
0.0369729
0.075381
0.0260887
0.138902
0.021106
4.0741
0.0241378
0.0208101
0.0210989
0.0207815
0.0224154
0.0222433
0.0209544
0.0237729
0.021561
0.0221338
0.248006
0.075094
0.0220723
0.0607271
0.0240489
0.0223611
0.0204665
0.0446865
0.0268644
1.62249
0.0215424
0.0215695
0.0653192
0.150485
0.0215591
0.0215144
0.106756
0.0232603
0.0881933
0.0576927
0.0215914
5.39625
0.0234567
0.0221454
0.0699275
3.84162
0.0226147
0.055372
0.0209858
0.0252109
0.0214886
0.0261718
0.02118
0.0215832
0.0481889
0.0581567
9.23408
0.0486229
0.0214737
0.0273269
3.37303
0.0468786
0.166321
0.0945303
0.0216131
0.0513726
0.81733
0.165249
1.19854
0.0250955
3.44866
0.344339
0.0283117
0.0216632
0.0717401
0.0221087
0.05458
3.18542
0.0215135
0.387688
0.0217125
2.94724
0.0491
0.0222191
0.0589032
3.05081
0.24076
0.0234836
0.0699278
0.0293795
0.0206478
2.59297
0.0205485
0.0322925
0.0210946
0.0243678
2.60442
0.0691747
0.0206104
0.0278471
0.194956
0.0215033
0.0218042
0.0272948
0.0246343
0.0214286
0.0233948
0.0238975
0.0219086
0.0210962
0.059352
0.0994602
0.161462
0.0210298
0.0560263
3.06576
4.4287
0.0208393
0.0215419
0.0246693
0.0858004
0.022032
0.0210818
0.0212092
0.0210021
0.0251666
0.0267196
0.0245754
0.0627902
0.0229689
0.0204819
0.0229474
0.0614451
0.0451894
0.10315
0.0220416
0.0274175
3.27639
0.0283237
0.0242701
4.21137
3.28089
0.0949808
0.0649762
0.150821
0.0213895
0.30632
0.0261279
5.18534
0.0214066
0.0212272
0.617744
0.0208188
0.272432
2.90229
0.0219002
13.5267
0.0296236
0.0312017
0.0259467
0.0701957
0.0278354
0.0254897
1.41171
0.0208968
0.0238824
3.57596
0.0228075
0.0214449
0.0289765
3.2444
0.0220671
0.0220679
3.28415
0.0239572
0.0259144
0.0566155
0.0203717
7.85071
0.0236923
0.0221798
0.10109
0.0554165
2.85873
0.0231807
1.9656
0.0324027
0.0855738
2.72053
0.021506
0.0314513
0.0881654
0.0220546
1.7669
0.0220815
0.0230137
2.98957
0.0222077
0.0401801
0.0845465
0.660844
0.0293051
0.025718
0.0221947
0.0235549
0.0870107
0.0239231
0.0300057
0.0832788
0.0523546
0.0217059
3.48966
0.0369094
0.0204938
0.0225776
0.0212362
0.0208874
0.0203767
0.0215228
0.0214778
0.0286479
0.0234914
0.0406382
0.0202235
0.0204671
0.0212297
0.0754026
0.0207509
0.0291103
0.066795
0.02768
0.0288179
0.0214106
0.0230206
0.0237616
0.0362007
0.0273792
0.0237836
2.65147
0.0216583
2.27563
0.0244045
0.0856723
0.0826953
0.0214926
0.0568932
0.0304166
3.2093
3.12158
0.0249201
0.0216714
0.0232555
0.029103
0.0466465
0.0213682
0.0449964
0.0511598
0.0213378
0.0569696
0.0487496
0.0653766
0.0273603
0.157146
0.0814642
0.0261372
0.324307
0.0235582
0.120794
0.0222986
0.0212574
0.0790193
0.0808221
0.0213927
0.0473671
0.0214377
0.0216169
0.0214258
0.0219355
0.021452
0.0214039
0.0213826
0.0220703
0.148822
0.022585
0.0213479
0.0223712
0.0223492
0.177541
3.04403
0.0650384
0.0236526
3.40954
0.0214117
0.02136
0.570546
0.0310288
0.0222173
0.022093
0.0215997
0.171868
0.0216977
0.0250888
0.0221462
0.0323928
3.84205
0.0214485
0.0580795
0.0629813
0.0246881
0.0412391
0.0207141
0.0216411
0.0564074
1.48981
0.023021
0.034461
2.45518
0.0879283
0.020928
2.82492
0.0224373
0.0196792
0.0626333
3.48248
0.021467
0.020751
0.0229428
0.0295226
0.0325581
0.0214164
0.0222309
0.0372783
0.0216378
0.0276974
0.0252041
1.1979
0.020407
2.4469
0.195876
0.0360612
0.0213279
0.0894222
0.0211819
0.0230471
0.0215336
0.054155
0.0201818
0.0201627
0.038664
0.0623793
0.305932
0.0218014
0.0200575
0.0230274
0.0209368
2.9668
0.0230531
0.0225466
0.0219986
0.0588942
0.0463379
0.0232117
0.0227875
0.04359
0.0216057
0.0217626
0.0231324
0.0220166
0.110147
0.0211642
0.0290716
0.0219157
0.0214923
0.0473524
0.0864532
2.85242
0.0214254
0.05983
0.193174
2.94511
3.34534
0.0301779
0.0214793
0.0240142
0.0286557
2.27092
0.0217663
0.0245549
0.0261747
0.0301447
0.0202533
0.0528876
0.0450034
1.07875
0.0219777
0.0216392
0.0870439
1.02807
0.0201121
0.0240848
0.0324573
0.0199584
0.0222917
0.0443718
0.0210157
0.0214337
0.0216646
0.024022
0.078492
0.0344497
0.0223147
0.0206655
0.0220391
0.147697
0.0199193
0.0209575
0.02515
0.0849816
0.0249734
3.74153
0.0239294
0.0214238
0.021505
0.0227758
0.0212054
0.031784
0.054372
0.0210444
0.0210089
0.0219163
0.0212955
0.0220115
0.0429146
2.61814
0.0231252
0.0955924
0.0238182
0.0213054
0.225442
0.0231446
3.52506
0.0217435
0.0216941
0.0207585
0.0214555
0.0223515
0.0298728
0.0459856
0.125924
0.0269449
0.0517554
0.0216953
0.0316235
0.0214314
0.0230465
0.0326594
2.54317
3.01446
0.0217691
3.32742
0.127064
0.0409039
0.372039
0.0198798
0.0214036
0.0216208
0.0226443
2.6727
0.0208862
0.0694365
0.175367
0.0222293
0.0797495
0.019948
0.0301394
0.344885
1.66382
0.0217308
0.254568
0.111628
0.186497
0.0254656
3.46165
0.0224028
0.112845
0.0990517
0.0205337
0.039247
0.0302844
0.023361
0.279531
0.030011
0.0210809
0.0222496
0.15351
0.0216692
0.0576697
0.0215496
0.0198906
0.0233043
0.0317448
0.0215141
0.0783776
0.0258125
0.0237756
0.0198752
0.0214625
0.514762
0.0773492
0.148002
0.032464
0.0244913
0.0269829
0.0248885
0.0214004
0.0224772
0.0326456
0.0228624
0.0237982
0.0204189
0.0252934
2.7094
0.0219167
0.777984
0.129093
0.0216465
0.0216095
0.0202746
0.0276477
0.035865
0.0200846
0.0250129
0.022675
0.0218902
0.0211435
0.0219323
0.0213956
0.02156
0.248657
0.022055
0.0264374
0.0214505
0.157141
0.0762017
0.0214274
0.275401
0.0215716
0.0235938
0.0300138
0.338673
0.0279212
0.0210071
0.0213617
0.0317126
0.0398147
0.139616
0.0226138
0.0481686
0.114335
0.0218637
0.0214513
0.114147
0.0507145
0.0301284
0.0216422
0.0227592
0.0225076
0.0230081
0.0210238
2.51312
0.0236309
0.0236064
0.0206721
0.0272842
0.02043