/*--------------------------------*- C++ -*----------------------------------*\
| =========                 |                                                 |
| \\      /  F ield         | OpenFOAM: The Open Source CFD Toolbox           |
|  \\    /   O peration     | Version:  v2012                                 |
|   \\  /    A nd           | Website:  www.openfoam.com                      |
|    \\/     M anipulation  |                                                 |
\*---------------------------------------------------------------------------*/
FoamFile
{
    version     2.0;
    format      ascii;
    class       surfaceScalarField;
    location    "450";
    object      meshPhi;
}
// * * * * * * * * * * * * * * * * * * * * * * * * * * * * * * * * * * * * * //

dimensions      [0 3 -1 0 0 0 0];
oriented        oriented;


internalField   nonuniform List<scalar> 
20642
(
-0.000109663
-1.76428e-05
0.000127306
0.000359923
-0.000616187
0.000255461
6.95632e-05
0.000108196
-0.000177769
6.52972e-05
-0.000485202
0.000417217
0.000504577
-0.000732185
0.000224915
0.000629769
-0.000270905
-0.000198277
0.000431058
-0.000233458
0.000740886
-0.000420894
-0.000320451
0.000190541
0.000180248
-0.000371462
0.000108436
1.6437e-05
0.000323734
0.000416658
0.000641205
-0.000552449
-9.38189e-05
-2.62652e-05
-2.12041e-05
0.000424752
-0.000644467
0.000219517
0.000520634
-0.000693987
0.000171413
-1.01155e-05
-9.95477e-05
-1.62493e-05
-1.27361e-05
1.91871e-05
-0.000726004
0.000319878
0.000405621
0.000262045
-0.00018571
-7.63658e-05
-0.000132593
7.28738e-05
5.97187e-05
0.00051549
-0.000334709
-0.000181459
0.000121847
0.000423908
-0.000552214
0.000152633
0.00013285
-0.000285622
-0.000479076
0.000593846
0.000582915
-0.000302888
-0.000281616
-0.000547937
0.000217252
0.000330029
-0.000451486
0.000254548
0.000196874
0.000108436
-0.000646753
0.00023789
0.00040824
-6.65001e-07
-1.42535e-05
1.45146e-05
9.52518e-05
1.3184e-05
0.000329265
-0.000117699
-0.000211627
-0.000589389
0.000393784
0.000192759
-0.000128376
6.47765e-05
6.35988e-05
-3.09969e-05
0.000458134
-0.000434876
5.58799e-05
-0.000477154
0.000476798
5.42273e-05
-0.000533013
1.63342e-05
-5.93937e-05
1.34171e-05
-0.000395869
0.000196975
0.000323914
-0.000491947
0.00016753
2.25934e-07
4.69822e-06
-1.14647e-05
0.000274403
-0.00041363
0.00013469
-0.000530279
6.2443e-05
0.000466607
0.000111948
8.84108e-05
-0.000200384
0.000235868
-0.000123952
-7.32253e-05
0.000222842
-0.000149647
0.000461349
5.31959e-05
-0.000175511
0.000106459
6.90508e-05
-0.000302204
-0.000274037
0.00057612
0.000337334
-0.000374567
5.75312e-05
0.000578213
9.09916e-05
-0.000280688
0.000189639
-7.19441e-05
0.000118063
-4.61192e-05
-0.000557806
0.00065389
-0.000102486
-0.000695441
0.000527835
0.000161604
0.000237088
-0.000146138
9.52518e-05
-0.000146818
0.000299291
0.000423655
-0.000153962
-0.000260761
0.000187496
0.000285951
-0.000152021
-0.000133934
-0.00021746
-0.000324926
0.000539094
1.99998e-06
1.52659e-07
-3.07559e-06
0.000212673
0.000368438
0.000118555
1.45457e-05
-0.000133103
-2.75198e-05
1.75433e-05
9.87083e-06
0.000269639
-0.000634466
0.000364287
0.000448632
-0.000393112
-0.000402748
0.000121735
-7.35353e-05
-4.82e-05
3.56496e-05
0.000111016
-0.00014667
-9.3461e-05
-3.49147e-05
0.000681762
-0.000580967
-0.000107051
0.000315164
0.000102852
-0.0005248
0.000189466
0.000702037
-0.000356597
-0.000347121
0.000456479
-0.000688372
0.000228974
0.000426829
-0.000117363
0.000275356
0.00042469
-0.000367357
-0.00022397
-0.000456948
-0.00021879
0.000670808
-1.89463e-05
-1.89665e-05
2.43341e-05
9.21257e-05
0.000582437
-0.000182501
0.000109423
7.30742e-05
0.000321535
-0.000289044
-6.09196e-05
0.000652175
-0.000274364
-0.000378123
0.000180013
0.000149177
-9.44446e-05
-7.32731e-05
0.000132213
0.000467817
-0.000144446
1.03968e-05
-3.51296e-05
1.15902e-05
3.7037e-05
-5.73106e-05
-0.000378105
0.000371722
-0.000674066
4.93666e-05
-0.000460796
0.000403142
0.000114341
0.000493534
-0.000611973
-0.000377674
-0.000594556
0.00032018
0.000274242
-2.90072e-05
-2.13407e-05
3.22342e-05
-0.000180741
5.83246e-05
-0.000303037
0.000496914
-0.000194082
-6.00151e-06
-4.28115e-06
6.87608e-06
1.69254e-06
-1.01618e-05
-0.000636754
0.000175625
-6.71461e-05
-9.77737e-06
6.04851e-05
0.000728982
-0.000276401
0.000130536
1.29818e-05
-0.00014352
0.000110687
2.11352e-05
-0.000131823
0.000407646
-0.000628875
-0.000126947
-0.0002911
-0.000213846
-0.000237711
8.7643e-05
-0.000245277
0.000138423
-7.36467e-05
0.000612663
-0.000375349
-3.71766e-05
0.000155729
-3.76068e-05
-0.000360179
0.000396433
0.000149455
0.000112554
3.1047e-05
-3.78241e-05
-5.44741e-07
-0.000119011
-8.74329e-05
0.000206431
-0.000143313
-0.00041658
0.000552858
-5.07403e-05
1.88312e-05
-0.00041989
0.000153295
0.000260447
-0.000250988
-0.00038402
-0.000152832
-9.9593e-05
0.000252372
-7.77049e-05
0.000125252
-4.75466e-05
-8.01972e-05
-0.000102306
-0.000522654
0.000179866
0.000341034
-0.000172754
-0.000352684
-0.000452813
-0.000105351
0.000548631
9.43905e-05
-0.000247266
0.000378712
-0.000111188
-0.000267786
-0.000116667
0.000289107
-0.000172497
0.000145459
-9.2354e-05
-5.3106e-05
-0.000438643
0.00039952
0.000267127
-7.55921e-05
-0.000191582
-0.000471331
0.000257413
-0.000280716
0.000146159
0.000134552
-6.75782e-05
-4.78079e-05
0.000115386
-0.000625469
0.000244229
0.000380543
-1.47374e-05
-0.000607569
0.000623721
-1.62933e-05
0.000149368
0.000271772
-4.6139e-05
0.000176672
-0.000122214
0.000493687
-0.00038146
0.000603165
-0.000549663
-6.02197e-05
-0.000348443
-7.63873e-05
0.00042118
0.000142194
-0.000106549
0.000729157
3.50121e-05
7.95364e-05
-0.000114549
0.000111562
-0.000676283
-0.000345347
0.000483568
-0.00013877
6.02422e-06
1.91073e-06
-1.10665e-05
0.000514386
8.15503e-05
-0.000229697
-0.000364981
0.000634535
-0.00051656
-0.000122986
1.20892e-05
-9.47703e-05
9.02305e-05
3.50632e-05
-0.000125294
-8.37281e-06
-1.09648e-05
1.2393e-05
2.25086e-06
2.26538e-05
0.000570617
-0.000451903
-0.000137882
6.36691e-05
9.90719e-05
-0.000162745
-0.000714704
0.000258002
0.000454854
1.19842e-05
-9.52779e-05
-0.000106077
0.000201352
-0.00049657
0.000255918
0.000240523
2.83534e-05
-0.000106062
0.000214376
-0.000108316
4.49015e-06
-4.41919e-06
-1.81269e-07
-0.000229705
-0.000396427
0.000896165
-0.000524182
-0.000378558
4.46217e-05
9.05639e-05
-0.000135187
0.000464983
0.000300393
-0.000196915
-0.000103489
-8.06868e-05
0.000266018
-0.000185429
6.73845e-06
-1.77744e-05
6.58806e-06
-0.00038684
0.000449695
0.00013094
-0.000281088
0.000150099
0.000121809
0.000256577
-0.000399823
-0.000316457
-0.000470212
0.000508045
-3.90525e-05
0.000409601
0.000536955
-0.000483976
-5.43272e-05
0.000181281
-0.000126974
6.70173e-05
-0.000186041
0.000197092
-0.000313827
0.000562936
-3.10239e-05
-0.000232373
0.000178018
-2.12196e-05
2.01414e-05
0.000345955
0.000305928
0.000236008
-0.000316823
0.000132676
0.000103159
-0.000260532
0.00012315
0.00013735
-7.83891e-05
0.000127499
-4.91102e-05
-0.000322988
0.000366053
-5.77331e-05
0.000124432
-6.66985e-05
0.00012366
-0.000435174
0.000310648
8.74054e-05
5.80531e-05
-0.00010781
0.000558357
0.000527238
0.000101692
-0.000224841
-0.000288138
0.000512082
-9.75831e-05
-3.03451e-05
0.000127928
2.7384e-05
-9.49623e-05
0.000633465
-0.000473471
-0.0001623
-0.000295137
0.00037944
-8.43564e-05
-0.000413141
-0.000144676
0.000556889
0.000121952
-0.000276119
-0.000149794
0.000477431
-0.00070111
-0.00038647
0.00046411
-9.01957e-05
-0.000776354
0.000338327
0.000436092
-0.000523032
-0.000255013
0.000141471
0.000208754
5.83282e-05
-0.000304274
-6.86592e-05
-8.10123e-05
0.000149669
-2.73097e-05
7.99459e-05
-8.44713e-05
-1.24853e-05
-0.000160484
0.000167029
-0.0001623
0.000144166
0.000100499
-0.000280797
0.000146851
0.000133913
0.000102569
-0.000249936
0.000147343
0.000402959
-0.000380656
-5.37223e-05
-3.81501e-07
1.67816e-06
-0.000244242
-0.000227148
6.03303e-05
0.000227218
-0.000148704
-8.48404e-05
0.000132892
8.7459e-05
-7.88867e-06
3.14389e-06
-8.55411e-06
-0.000159308
-0.000168852
0.000154588
-7.30596e-05
-2.04015e-05
-7.6475e-05
-8.26153e-05
0.000159089
-0.000685725
0.0004156
0.000265125
5.5748e-06
-8.64227e-06
2.59558e-06
-0.000220729
-0.000119017
0.000339648
5.61593e-05
-0.000121329
6.51692e-05
-2.86346e-05
9.97305e-06
1.14074e-05
1.71834e-05
0.000352315
0.000148172
-0.00044336
-9.31348e-05
-6.35769e-05
0.00015671
-9.95407e-05
7.2708e-05
-0.000141369
0.000133492
0.000181214
-0.000314787
0.00031435
-0.000445415
9.60166e-05
0.000118356
4.56595e-05
-0.00026647
0.000231046
0.000381061
0.00030107
-0.000205548
-9.55848e-05
0.000458489
0.000172577
6.49949e-05
-8.15868e-05
0.000443603
-0.000367655
0.000428155
-0.000313593
-0.000114791
-0.000367124
0.000223955
0.000143024
-0.000771222
0.000307069
0.000458589
-8.27e-07
-0.000311538
-0.000594675
0.00075383
-0.000162518
0.000356534
0.000122826
-0.000485562
0.000122055
-4.82327e-05
-7.3822e-05
-0.000554664
0.000130163
0.00042442
-0.000450943
0.000145593
0.000298461
-2.46139e-05
0.000150415
0.000132887
-0.000654314
-0.000157768
0.000126254
-0.000504481
-9.50476e-05
2.13734e-05
0.000370597
-0.000264268
-0.000106608
-0.000188766
-0.000268195
-0.000115757
7.48518e-05
-4.80146e-05
0.000158701
-0.000774953
0.000253864
0.000511573
0.000531791
-0.000753863
0.000218568
0.000116749
0.000162566
-0.000279349
2.10232e-05
-0.000145305
0.000119719
0.000164447
-0.000393575
0.000228952
7.16205e-05
5.04341e-05
0.00014093
-0.000124337
6.01893e-05
6.15459e-05
-0.000128257
0.000478373
0.000176771
-0.000113107
-6.44363e-06
8.44314e-06
-0.000474086
-0.00017446
0.00064639
-0.000466096
-0.000309252
-0.000501631
-0.000110909
0.000600472
-0.000157512
0.000211029
-5.3536e-05
-4.22976e-05
-2.90841e-05
4.60933e-05
-0.000259204
-0.000237499
0.000132051
-0.000413151
0.000280488
4.27115e-06
-0.000355926
-0.000203825
-0.000189361
0.000393097
-4.815e-05
-1.86716e-05
-1.6313e-05
0.000204366
-0.000349252
0.000144735
-0.000660103
-5.3465e-05
0.000709912
8.68196e-05
-0.000465341
0.000377093
-0.000177026
0.000678581
0.000605279
-0.000331474
0.000119658
-0.000479544
0.0003525
-0.000103591
3.56944e-05
0.000172903
-0.000311782
0.000138815
0.000158378
-0.000605647
0.000445051
0.000229051
0.000198795
0.000164381
0.000439193
-0.000278619
0.000276467
-2.50892e-05
-3.84999e-05
0.00012873
-7.55221e-06
-9.00309e-05
-0.000417965
-0.000113075
0.000521373
4.6299e-05
-0.00015253
0.000104678
-0.000353152
-0.000528232
-0.000139414
0.000666495
0.000184121
-0.000192551
8.41171e-06
0.000155229
-1.88965e-05
-0.000136333
8.25618e-05
0.000217825
1.26809e-05
6.6833e-06
-1.94589e-05
4.1794e-05
0.000247231
0.00071341
-0.00018514
0.000175221
-6.58015e-05
-0.00063965
0.000110298
-9.87661e-05
0.000168321
-7.52923e-05
1.60314e-05
0.000627491
-0.000108868
0.000402666
-9.39001e-05
0.000584674
-0.000496078
-7.09877e-05
-0.000545985
0.000231288
-9.86457e-05
-2.43201e-05
-7.02878e-06
2.12643e-05
0.000116724
-7.21029e-05
0.00021782
-0.000212918
-3.64147e-05
0.000145649
-0.000293992
3.84916e-05
0.000124609
-0.00016646
-9.67724e-05
-3.58202e-05
-0.000237127
-4.03703e-05
0.000261948
-0.000404267
0.000189211
0.000214768
-0.000587284
0.0001733
-1.48525e-06
1.40576e-05
-3.95165e-05
4.55937e-06
-0.000134708
-0.000123407
0.000258061
-0.000131087
0.000173765
-4.26811e-05
0.000103379
-0.000541506
0.000433804
-0.000579234
0.000480078
6.52484e-05
7.31741e-05
-0.000149692
-1.05985e-05
0.000160288
-4.09456e-05
0.000174863
-0.000133926
0.000571257
-0.000146733
-1.2862e-05
0.000148275
-0.000675019
0.000420908
0.000249019
-7.46453e-05
-7.56157e-05
0.000150259
0.00025382
-0.000212095
-0.000168176
0.000149399
-0.000841003
0.000558838
-0.000442335
-0.000121195
0.000544141
-0.00032497
-0.000219565
-0.000175475
-0.000268513
0.000126105
0.000142367
-0.000379697
0.000218795
0.000160785
0.000386673
-0.000222445
0.000225841
2.1226e-05
-0.000247194
6.99266e-05
-0.000131846
6.19189e-05
-0.000547355
8.52682e-05
-0.0004551
0.000554131
-0.000437374
-0.000296487
7.26108e-05
0.000113479
-0.000186105
-1.47558e-05
1.43486e-05
-7.73169e-06
-9.60319e-05
-8.93025e-05
0.000314994
-5.61882e-05
0.000231602
-0.00030883
-0.000391663
0.000179588
-0.00035764
0.000177958
-0.000110691
0.000155461
0.000219306
0.000404316
-0.00062382
-0.000132972
-0.000231637
0.000360622
-0.000129826
-0.000144043
-0.000377982
-0.000210132
-0.000338716
-0.000444444
7.11108e-05
0.000100437
-0.000171555
-0.00013056
-4.20448e-05
0.000169704
0.000120889
-0.000216171
-0.000113706
-0.000353697
0.000216785
0.000590855
2.88609e-05
-0.000535067
0.000502077
-0.000198215
0.000141113
5.64402e-05
-0.000374889
0.000134152
0.000231696
-4.14418e-05
0.000114316
-0.000182763
-1.63127e-05
0.000698222
-0.000398547
-0.000301466
-0.000456668
0.000212378
-0.000228932
-0.000204026
0.000432738
-0.000671685
0.00021331
0.000455559
0.000131095
-0.000244841
0.000113739
-0.000206162
0.00011568
0.000393334
-0.000604487
0.000209042
-0.000229685
7.21526e-05
-0.000449092
0.000665414
-0.000221828
0.000237691
-0.000466858
0.000198125
-8.99403e-05
1.13474e-05
-0.000232329
0.00043434
-0.000202609
0.000521966
-0.000358978
0.00057435
-0.000440103
-0.000147829
0.000419152
-0.000248378
-0.00018909
-0.000524426
-1.01912e-05
0.000525138
0.000501222
-0.000245443
0.000194783
-0.000500924
0.000302575
0.000115834
0.000435986
-0.000560199
0.00050815
0.000144376
-0.000660492
-0.00023799
0.000372299
-0.000134487
1.99937e-05
-0.000528998
0.000508547
2.26415e-05
-0.000145004
0.000118419
5.52176e-07
3.39356e-06
-5.4634e-05
0.000238734
0.000366958
-0.000187481
-6.67957e-06
-0.000505273
0.000234346
0.000461445
0.00012947
0.000107876
-0.000237358
-0.0003029
-0.000203429
0.000506247
-2.05176e-05
-7.19104e-06
-0.000208247
2.251e-05
0.000103212
7.20052e-05
0.000304233
-6.26074e-05
-0.000246184
-0.00014277
-1.54253e-06
0.000139893
0.000543849
-0.00039817
-0.000146598
0.000222444
0.000177181
-0.000124011
-0.000383053
-0.000125312
0.000120042
7.05541e-05
0.000229112
9.17066e-05
0.000105671
-0.00019738
-0.000641664
0.000187394
0.000448601
-0.000219178
-0.000229783
0.000116406
-4.15538e-05
0.000299308
-9.50932e-05
5.95912e-05
-0.000458322
-0.00010135
0.000608273
0.000214825
-8.37365e-05
0.000374853
-0.000600709
2.35575e-05
-0.000101262
2.86817e-05
-0.00015684
0.000124522
0.000198726
-0.000449459
0.000236353
4.41182e-05
-0.000177585
1.33711e-05
-0.000187763
-9.19484e-05
0.000566705
8.88975e-05
-0.000573154
0.000480233
0.000261646
-0.000132193
-0.00030269
-7.96446e-05
0.000379338
-0.000139276
0.000451616
-0.000267994
0.000412493
-0.000178257
-0.000234481
-0.000291823
-6.04119e-05
0.000349443
0.000620768
-0.000147673
-0.000172664
0.000306078
0.000161137
-0.000202093
0.00046536
8.88104e-05
0.000188464
0.00026064
-0.000449143
0.000449547
-0.000444342
-1.7297e-05
-4.26425e-06
-0.000128359
0.000108182
-0.000128179
0.000628972
-0.000513326
0.000538024
0.000343244
8.12623e-05
-0.00043758
8.19739e-05
1.49399e-05
-0.000130355
-0.000130854
8.90266e-05
-6.30009e-05
0.000393344
0.000162774
-0.000366672
0.000216376
-0.000135783
-8.06116e-05
0.000107338
-0.000133929
-1.23704e-05
0.000206903
-0.000299393
9.23516e-05
-6.09727e-05
0.00022995
-0.000195206
0.000194557
6.45909e-07
0.000143767
0.000217435
-0.00036168
-0.000136713
0.000216644
-0.000175144
-4.22884e-05
5.73927e-05
0.000158627
-0.000449875
2.41505e-05
-0.000369927
7.53892e-05
-0.000215808
-0.000252265
0.000157231
9.50192e-05
-3.86941e-05
4.22708e-05
0.000493173
0.00015439
-0.000430701
-0.000240384
-0.000193589
0.00043335
0.000455853
-0.000114577
-0.00034187
0.000206619
-0.000167854
-3.87796e-05
-0.000142054
0.000281781
-0.000139818
-0.000484246
0.000307986
0.000172587
-0.000226951
-0.000530073
0.000649092
-0.000329611
-0.000468679
0.000224583
0.000243835
0.000458457
-0.000267205
-0.000256591
-0.000387957
0.000398852
-0.000126318
-0.000272776
0.00040547
-0.000274027
-0.000217097
9.53548e-05
0.000121737
8.09255e-05
-0.000251148
-0.000217762
-0.000136367
-0.000144763
0.000310424
-0.000189708
-0.000139429
6.04344e-05
5.34886e-05
-0.000113923
-0.000110114
8.55177e-05
-0.000152845
0.00016115
-0.000312385
7.42467e-05
0.000148884
-0.000123596
6.27097e-05
-0.000121922
-0.0001413
0.000314131
-0.000131313
9.04867e-05
0.000268695
-0.000444532
0.000175821
0.000395136
0.000155965
-0.0001186
0.000454376
-0.000337612
-0.000432313
0.000280603
0.000148348
-0.000103469
-0.000140523
0.000243975
-0.000153023
-0.000144003
0.000296997
0.000591977
-0.000145858
-0.000450453
0.000632776
-0.000463413
0.000344902
0.000100078
-0.000391471
0.000211946
0.000179359
-0.00017385
-0.000427861
0.000601166
0.000116172
0.000415296
-0.000540049
-3.42963e-05
1.06989e-05
-0.000157179
0.000678646
0.000424741
0.000136868
-0.000489854
-0.000149172
0.000635547
0.000140318
0.000228535
-0.000369313
-1.12408e-05
-0.000268142
0.000126002
0.000157825
0.00013295
0.000503594
-0.000763283
0.0002519
0.000414201
0.000106236
-0.000135019
5.10553e-05
8.39633e-05
9.31457e-05
-0.000121172
1.82853e-05
-0.000190461
-0.000250369
0.000439809
0.000482109
-0.000365416
0.000234399
0.000177806
-0.00027935
0.000100858
0.000178401
-0.000350265
0.000462284
-0.000112399
-0.000101216
0.000198022
0.000513175
-0.000454781
-6.059e-05
0.000397543
0.00014221
-5.48054e-05
-9.67474e-05
0.000188452
7.12327e-05
4.51728e-05
-0.000386346
-0.000119132
0.000495702
-0.000494239
-0.00013841
0.000625009
-0.000252428
-0.000234426
-0.000179628
0.000569887
-0.000399697
-0.000100651
0.000162711
-6.2062e-05
-1.08635e-06
-0.000148701
-0.000462871
-0.000193907
0.000656587
0.00042922
-0.000306454
-0.00016043
6.72011e-05
9.32272e-05
0.000103175
-0.00040883
0.000129623
-0.000108345
-2.12783e-05
0.000335721
-0.000411842
6.30591e-05
0.000146384
-0.000209496
2.41368e-05
-7.10802e-05
-0.000494652
0.000157258
0.000332529
-7.59068e-05
-8.4524e-05
1.96604e-05
0.0001253
0.000172677
-0.000162333
-1.03515e-05
-2.30245e-06
-2.1007e-06
2.86994e-06
-5.13461e-07
7.16435e-05
-0.000629747
0.000164251
4.23545e-05
-0.000608854
0.000115672
0.000103046
4.06383e-05
-0.000150049
-0.000233787
0.000132848
0.000100912
-0.000138124
0.000344887
0.00034321
0.000307506
0.000209629
-6.74395e-05
1.54672e-05
0.00011215
-0.000127618
-0.00014056
-5.46505e-05
-7.79089e-06
9.19315e-05
1.4201e-05
6.62642e-05
-8.04653e-05
4.12234e-06
4.59887e-06
-1.04582e-05
-9.50742e-05
0.000241231
0.000295664
0.000433078
-0.000153946
-0.000345074
-4.61389e-05
0.000165094
-0.00012053
7.06227e-06
-7.84021e-06
0.000264249
0.000134346
0.000132372
0.000374459
-0.000129153
-5.88517e-05
2.29076e-05
2.79597e-06
-6.84175e-05
2.63383e-05
0.000108163
0.000101461
0.000361035
9.11419e-05
-0.000465013
-0.000299697
0.000170658
0.000128966
0.000625849
-0.00013908
-4.26379e-05
0.000139072
1.04146e-05
-2.51721e-05
0.000302816
-8.00112e-05
0.000193202
-0.000161481
-3.17288e-05
7.92421e-05
5.03811e-05
0.00015944
0.000141554
-0.000219327
0.000359204
0.000222487
-0.000152964
-6.95348e-05
0.000117148
-6.09884e-05
-0.000123081
-0.000260449
0.000142801
-0.000248966
0.000106153
2.4349e-05
-5.90062e-05
-0.000185167
0.000241865
-5.67252e-05
-0.000549889
0.000361378
0.000173364
-0.00010226
0.000536482
-0.000124528
-0.000688508
0.000535995
-2.47246e-05
-0.000530986
0.000602053
-0.000301575
-6.90885e-05
0.00037038
4.67472e-05
8.70025e-05
-0.000133752
-2.07231e-05
3.64872e-05
-2.56245e-05
0.000229456
0.000140858
-0.000645039
0.00039552
0.000242513
-1.33257e-07
4.8182e-06
0.000124525
-5.45981e-05
0.000217858
0.000258148
-0.000476174
0.000566897
-0.000378692
-0.000193675
-0.000144942
-0.000123609
-0.000285827
-0.000147004
-0.000321429
0.000463662
5.15964e-06
-1.75127e-06
6.59451e-05
5.85791e-05
0.000599358
-0.000253934
-0.00065149
-0.000122971
0.000118102
0.000264937
0.000296738
-9.40928e-05
0.00016669
-8.39279e-06
7.29961e-06
-0.000102621
0.000239247
-0.000136662
-1.69991e-05
-2.22763e-05
2.52438e-05
3.96751e-05
0.000226908
-0.00028379
-0.000247096
-0.000119745
-9.02665e-05
-5.17193e-05
0.000103731
-5.20115e-05
0.000174529
-1.85925e-06
-0.000465894
-0.000142086
0.000607439
0.000100183
-0.000236584
-8.83713e-05
0.000410671
-0.000264535
-0.000430993
-5.22585e-05
-8.27611e-05
0.000185106
-0.000146987
-3.81249e-05
0.000161863
0.000381026
0.000443936
-0.000391326
-0.000233174
-0.000458526
-4.66062e-05
1.80295e-05
3.79196e-05
-0.000487289
0.000440952
-9.03839e-06
-1.04409e-05
-0.000288358
0.000132232
0.000156045
0.000372792
-0.000492833
0.000119072
-0.000122379
-9.47219e-05
-0.000356393
5.45442e-05
0.000119648
0.000444163
-0.000564191
0.000133843
-0.000286892
-0.000441764
0.000598054
-0.000386835
0.000193804
0.000192742
0.000262613
-0.000139494
-6.11394e-05
-0.00034815
0.000220751
0.000337511
-0.000560718
-1.06179e-05
1.63806e-06
0.000257946
-0.000234892
-1.78777e-05
-4.24177e-05
9.40333e-06
-2.71925e-05
-0.000143287
-0.000292134
7.846e-05
-1.08705e-06
-0.000107403
7.32948e-05
-5.90938e-05
-0.000195356
0.000371302
-0.000176181
1.84422e-05
7.31504e-05
-0.000111034
0.000124079
0.000107173
-4.83499e-05
1.99339e-05
4.92629e-05
0.000105965
-0.000474926
0.00034028
-0.000530497
0.000416062
-8.57953e-05
-4.55182e-05
9.68639e-05
-0.000254659
0.000157711
0.000250578
8.91379e-05
-0.000491873
0.000533986
-4.63618e-05
4.6626e-05
-0.000157998
0.000109217
0.000120723
0.000387939
-0.000517407
0.000431902
-0.000435596
1.50177e-06
0.00027001
-0.000281404
1.11043e-05
-0.000450667
-0.000121336
0.000561171
0.00011731
-6.64775e-05
-5.08323e-05
0.000440292
-7.03259e-05
-0.000370518
-0.000460393
-0.000166365
0.000626306
-8.53662e-05
0.00033562
0.000547234
-0.000328837
9.96172e-05
-8.41505e-05
-0.000444022
0.000323637
2.95058e-06
-5.42481e-05
3.64042e-05
-0.000386117
0.000118395
-4.67749e-05
-0.000187996
-8.22865e-05
-0.000353623
-9.24376e-05
0.000115995
0.000200968
-0.000665666
0.00046447
5.50328e-05
-0.000308198
-0.00052981
0.000102335
0.00047917
-0.000573177
-0.000141688
9.33199e-05
-0.000337846
0.000243831
-0.000333608
0.0005032
-7.37697e-05
0.00021347
-0.000404887
-0.000183459
0.000161006
0.000548448
-0.000134711
0.000260776
0.00011669
-0.000312243
-0.000123653
0.000613044
-1.18727e-05
-0.000357073
3.9254e-05
-5.10026e-05
-0.000102236
0.000371811
0.000523668
-9.15447e-05
9.96908e-05
-0.000497609
0.000396506
-0.000511865
0.000331908
0.000176425
-8.44269e-05
0.000124275
-3.98479e-05
2.10832e-05
-3.27931e-05
1.13126e-05
-0.00046046
0.000661211
-2.92191e-05
0.000471271
-0.000639648
0.000447642
0.000190897
-0.000412672
0.000315714
9.62375e-05
0.000159566
2.55346e-05
1.94707e-05
-5.1431e-05
-0.000279986
0.000119427
0.000160487
3.69267e-05
0.000156269
1.5938e-05
-1.21463e-05
-3.79504e-06
0.000595292
-0.000425459
-0.000179394
-0.000366947
-1.06678e-05
5.97597e-05
0.000604352
-0.000312737
-0.000303113
-3.64777e-05
-0.000551345
0.00058084
-0.000196453
0.000589395
-0.000394458
-0.000366126
0.000238929
6.38511e-05
-0.000237368
-0.000299468
-8.37041e-05
0.000370688
0.000191945
-7.31548e-05
-0.000118795
0.000373057
-0.000193366
8.37987e-05
-0.000324692
0.000117636
-0.000217394
-0.000462597
0.000216169
-0.000153163
0.000490838
-0.000170724
0.000113263
-0.000136019
1.44305e-05
-0.000162972
0.000259749
-0.000187358
-0.000135662
0.000322919
-0.000187556
0.000304055
0.000111172
0.000281963
-0.000401388
0.000343193
0.000107933
-0.00035778
0.000388746
-0.00010388
0.000573935
-0.000183361
0.000123437
0.000355851
-0.000485417
-0.000186363
0.000331855
8.71543e-05
-0.000548311
0.000101124
0.000367201
-0.000479202
0.000253776
-1.67258e-05
0.000231512
-0.00044497
-0.000128316
0.000571869
-0.000461834
0.000158872
0.000311313
0.00023239
-6.26787e-05
0.000378475
-0.000419948
-9.89579e-05
-0.00059199
-0.000198184
8.47753e-05
0.000113399
0.000335037
-0.000493399
9.39686e-05
-0.000564703
0.000467733
2.33914e-05
-2.74643e-05
-2.63196e-05
-3.07678e-05
4.60891e-05
0.000487755
7.94639e-05
-0.000571879
0.00012355
0.000383175
-0.000508011
-0.00045307
0.000102477
-0.000275704
0.000378839
-4.46693e-05
0.000151652
-0.000107862
-0.000512711
0.000640133
-0.000133479
-0.000233724
0.000529088
-0.000429484
-0.000207269
0.000350586
-0.000121419
1.90072e-05
-0.000224606
0.000151416
-9.73186e-05
-9.88138e-05
0.000196126
-0.000576102
0.000129823
-5.60037e-06
2.08861e-05
-0.000118433
9.95361e-05
-0.000299064
0.000528686
-0.000231448
7.61988e-05
-0.00049699
0.000375125
-0.000417592
0.000606666
-0.000190084
-0.000711972
0.000509911
0.000198133
-0.000128662
-0.000340186
0.000459484
0.000183415
0.000401975
0.000137269
-4.01131e-05
-9.71562e-05
-0.000263036
-0.00014434
0.000406875
-0.0005736
0.000107182
0.000271372
-0.000474873
0.00028064
0.000311166
-0.000306392
0.000118647
-7.87132e-07
6.11715e-06
-0.000400618
-0.000148068
0.000545258
0.000183317
-0.000610489
0.000426539
-4.12925e-06
-4.76909e-06
0.000201685
-0.000143348
0.000447336
-0.000305037
-0.000593056
0.000174477
-9.93534e-05
0.000248775
0.000686904
-0.000514154
-0.000174002
0.000232045
3.27465e-05
-0.000273038
5.74235e-05
-1.15461e-05
-5.68891e-05
-0.000188641
-0.000191161
-0.000400397
-0.000509229
-0.000111997
0.0006151
-0.000579128
0.000427019
0.000149844
-0.000477382
-0.000134226
0.000603862
-0.000275799
3.44467e-05
0.000191051
0.000557175
-0.000273544
-0.000283866
0.00046368
-0.000591295
-8.2899e-05
0.000109221
-2.63218e-05
5.14295e-05
0.000135741
0.000464755
-0.000601431
-0.000138224
-0.000240485
0.000428909
-9.30145e-05
-0.000673815
0.000533217
-0.000270363
-2.14718e-05
0.000275561
-0.000140842
-0.000302201
0.000438449
0.000711825
-0.00029007
-0.000429742
0.000518927
-0.000408558
-0.000112739
-8.60773e-05
-0.000365713
8.64182e-05
0.000385639
-0.000482577
0.000401526
-0.000381874
-0.000617667
-0.000173617
7.47894e-05
9.88231e-05
0.000417488
0.000153332
0.000356345
-0.000236388
-0.000120261
-0.000210809
0.000358803
-0.000148119
0.000124654
0.000360021
-0.000493472
-0.00018404
-0.000308292
0.000132918
-0.000433685
-0.000173909
0.000533747
-0.000364555
0.00045465
-0.000218304
-0.000237026
-0.00016759
0.000122654
0.000130327
-5.65831e-05
-0.000153409
-0.000135018
3.7785e-05
-0.000129988
9.13355e-05
-0.000509578
0.000387219
-0.000407806
0.000533502
3.78923e-05
0.000540877
0.000144577
-0.000663219
0.000216239
-0.000279067
-2.23771e-05
0.000285336
0.000458228
0.000389132
0.000134384
0.000252197
-8.91415e-05
-0.000163392
0.000199996
-0.000665006
0.000462728
-0.000595636
0.000412901
0.000172188
-0.00013365
0.000189753
-0.000517063
-0.000336664
4.07984e-05
0.000241811
-0.000109475
0.000439597
-0.000647534
0.000205647
-0.000230341
8.63876e-05
0.000294366
-0.000392668
0.000263963
-0.000159525
4.07153e-05
0.000116325
-0.000512595
0.000651371
-6.63465e-05
-6.54994e-05
1.09238e-06
4.54858e-05
-0.000388364
-9.89554e-05
0.00023235
-0.000108311
6.09593e-05
-4.64255e-05
-0.000115232
0.000147236
0.000507355
-0.000655536
-0.000102363
-9.58302e-05
-0.000159258
-0.000261966
0.000416858
-0.000745955
0.000571487
0.000170193
-0.00062334
-7.04094e-05
0.00053245
-0.00048501
-6.4141e-05
-0.000115642
-0.000118166
0.000314314
0.00019155
-0.000510447
-6.849e-05
0.000128924
0.000418845
-0.000595225
0.000180863
-0.000342037
0.000161147
-0.000416271
-0.000100638
0.000129984
-3.23898e-05
-7.79567e-05
-0.000105677
7.88286e-05
-3.17391e-05
-5.42641e-06
2.61095e-05
8.94089e-05
5.27999e-05
0.000618261
-0.000178558
-0.000442365
4.14148e-05
-0.000332259
0.000274992
0.000516038
0.000151916
-0.000668741
-0.000395026
-0.000449739
0.000304158
-0.000147195
-0.000175158
0.000566346
-0.00013783
0.000183513
0.000264695
-0.000166297
0.000250474
-8.42242e-05
-0.00021164
-0.000252904
0.000465307
0.000115906
-4.39046e-05
-7.20019e-05
0.000166114
-0.000616138
0.00044648
-0.000153881
-0.000512082
-2.84618e-05
0.000526686
4.4395e-05
-0.000109745
6.53502e-05
7.65989e-05
0.00053323
-0.000494329
-4.25046e-05
0.000163214
-0.000125013
0.000512667
-0.000379677
-0.000138203
4.31043e-05
0.00011751
-0.000124908
0.000296257
-0.000176322
-0.000129379
-0.000271486
0.000395006
-0.000594949
0.000429393
0.000154728
-0.000232108
0.000377197
-0.000145546
-1.38984e-05
0.00011896
0.00043235
0.000183146
0.00025435
-0.000155696
-9.87085e-05
0.000218432
-9.5605e-05
-0.00012283
8.99048e-05
-0.000187229
0.000116804
0.000115503
-0.000491491
8.50436e-05
-0.000163906
-6.80349e-05
-0.000471275
0.000525066
0.00019875
-0.000113985
0.000420375
-0.000594778
4.85782e-05
0.000238438
-7.51118e-05
-0.000167998
-0.000309225
0.000165497
-7.64768e-05
-0.00012325
-0.000456949
-0.000173817
0.000624453
0.000176866
5.71948e-05
-0.000134806
0.000176089
-0.000403744
0.000524234
-0.000135548
-0.000196577
-0.000190529
0.000318993
-0.000293498
7.25354e-05
3.54563e-05
-0.000107992
-0.000124532
-0.000358878
-9.36159e-05
0.000439083
9.28135e-05
4.44542e-05
-2.93861e-05
-0.000495958
-0.000418864
0.000401334
0.000547239
-0.000142885
0.000128154
-6.22098e-05
-0.000420789
0.000169424
1.746e-05
-6.13899e-06
-1.6519e-05
0.000342226
-0.000407702
0.000503185
-0.000104433
-0.000119771
0.000184458
-7.18412e-05
-0.000112622
-0.000453888
0.00047994
-0.000243953
-0.000236086
-0.000451945
6.14109e-05
-0.000317362
-0.000276555
0.000495757
-0.000175871
-0.000207967
0.000378784
-0.000488152
0.000199381
0.000513198
0.000172303
0.00042167
9.01474e-05
6.55761e-05
5.15715e-05
0.000525211
1.32222e-05
-0.000541487
-2.32053e-05
-5.68138e-05
-0.000263066
-0.000486315
4.12678e-05
0.000424605
-0.000478714
0.000411855
-0.000225543
0.000125292
0.00010022
-0.000338805
0.000183741
-5.78551e-05
0.00042969
4.40581e-05
7.4337e-05
-5.0616e-05
0.000123151
0.000676409
-0.000164713
-9.87761e-05
-0.000126795
-0.000258445
0.000398121
-0.00011642
7.20181e-05
4.44014e-05
-0.000201169
0.000349549
0.000162704
-0.000258877
9.61613e-05
-0.000167658
-0.000358825
0.000125939
-0.000256435
-0.000197973
0.000452449
7.10352e-06
0.000253118
-0.000260247
-0.000159378
6.727e-05
9.21049e-05
3.92059e-05
-0.000160149
0.000118981
0.000626885
2.19614e-05
-0.000127154
-0.000354783
0.000431723
-0.000154666
-0.000151387
0.00061097
0.000469393
-0.000159548
-0.000193798
0.000323294
-0.00012956
9.52697e-05
-7.9899e-05
-1.53707e-05
-0.000382128
-0.000135155
6.01503e-05
-0.000121139
1.77365e-06
-5.48452e-06
-0.000184416
2.56698e-05
0.000154469
0.000202231
8.62902e-05
6.56371e-05
-0.000151929
0.000438411
7.80615e-05
6.17427e-06
-3.79054e-06
0.000296698
0.000133867
-0.000490278
0.000585076
-0.000102228
-0.000422813
0.000395576
-0.000593589
0.000644867
-0.000442356
-0.000203994
0.000512841
0.000189739