/*--------------------------------*- C++ -*----------------------------------*\
| =========                 |                                                 |
| \\      /  F ield         | OpenFOAM: The Open Source CFD Toolbox           |
|  \\    /   O peration     | Version:  v2012                                 |
|   \\  /    A nd           | Website:  www.openfoam.com                      |
|    \\/     M anipulation  |                                                 |
\*---------------------------------------------------------------------------*/
FoamFile
{
    version     2.0;
    format      ascii;
    class       volVectorField;
    location    "650";
    object      cellDisplacement;
}
// * * * * * * * * * * * * * * * * * * * * * * * * * * * * * * * * * * * * * //

dimensions      [0 1 0 0 0 0 0];


internalField   nonuniform List<vector> 
13917
(
(0 -0.00697602 0)
(0 -0.0063209 0)
(0 -0.00697144 0)
(0 -0.00619803 0)
(0 -0.00532079 0)
(0 -0.00629226 0)
(0 -0.00674391 0)
(0 -0.00651039 0)
(0 -0.00674689 0)
(0 -0.006976 0)
(0 -0.00650319 0)
(0 -0.00570491 0)
(0 -0.000191205 0)
(0 -0.00661918 0)
(0 -0.00603163 0)
(0 -0.00697602 0)
(0 -0.000139556 0)
(0 -0.00651829 0)
(0 -0.00696117 0)
(0 -0.006976 0)
(0 -0.00659643 0)
(0 -0.00485047 0)
(0 -0.00690597 0)
(0 -0.00480562 0)
(0 -0.00640099 0)
(0 -0.00658172 0)
(0 -0.00686034 0)
(0 -0.00697602 0)
(0 -0.00655173 0)
(0 -8.68327e-05 0)
(0 -0.006976 0)
(0 -0.00694674 0)
(0 -0.00614724 0)
(0 -0.00697598 0)
(0 -0.00319897 0)
(0 -0.00649852 0)
(0 -0.0062506 0)
(0 -0.0002153 0)
(0 -0.00675302 0)
(0 -0.00674411 0)
(0 -4.12986e-05 0)
(0 -0.00214953 0)
(0 -0.00665498 0)
(0 -0.00696236 0)
(0 -0.00696146 0)
(0 -0.00694671 0)
(0 -0.00658681 0)
(0 -0.00697487 0)
(0 -0.00634508 0)
(0 -0.00323601 0)
(0 -0.00565213 0)
(0 -0.0069428 0)
(0 -0.00697602 0)
(0 -0.0053798 0)
(0 -0.00552015 0)
(0 -0.00694424 0)
(0 -0.00697602 0)
(0 -0.00690278 0)
(0 -0.00209396 0)
(0 -0.00694502 0)
(0 -0.00696503 0)
(0 -0.00359947 0)
(0 -1.37131e-05 0)
(0 -0.00637801 0)
(0 -0.00697476 0)
(0 -0.000131241 0)
(0 -0.00654145 0)
(0 -0.00647855 0)
(0 -0.00652429 0)
(0 -0.00697602 0)
(0 -0.0069741 0)
(0 -0.006976 0)
(0 -0.0057148 0)
(0 -0.00207197 0)
(0 -0.00661764 0)
(0 -0.00639517 0)
(0 -0.00527993 0)
(0 -0.00201665 0)
(0 -0.00637456 0)
(0 -0.00618076 0)
(0 -0.00555842 0)
(0 -0.000162271 0)
(0 -0.00566181 0)
(0 -0.00697468 0)
(0 -0.0018603 0)
(0 -0.00664516 0)
(0 -0.00694463 0)
(0 -0.000961486 0)
(0 -0.00673027 0)
(0 -0.000166629 0)
(0 -0.000270439 0)
(0 -0.00667095 0)
(0 -0.00632281 0)
(0 -0.00279083 0)
(0 -0.00577989 0)
(0 -0.00655899 0)
(0 -0.00681434 0)
(0 -0.000233063 0)
(0 -0.00108151 0)
(0 -0.00681679 0)
(0 -3.94891e-05 0)
(0 -4.80198e-05 0)
(0 -0.00561252 0)
(0 -0.000427058 0)
(0 -0.0052304 0)
(0 -0.00697516 0)
(0 -0.00697559 0)
(0 -0.00356187 0)
(0 -0.00217057 0)
(0 -0.00686236 0)
(0 -0.00123758 0)
(0 -0.00697597 0)
(0 -0.00656941 0)
(0 -0.00697494 0)
(0 -0.0069747 0)
(0 -0.00641635 0)
(0 -0.00695982 0)
(0 -0.000168524 0)
(0 -0.00696959 0)
(0 -0.00542972 0)
(0 -0.000201587 0)
(0 -0.00199553 0)
(0 -0.00654837 0)
(0 -0.00694874 0)
(0 -0.00697602 0)
(0 -0.00697487 0)
(0 -0.00635441 0)
(0 -0.00662693 0)
(0 -0.00345264 0)
(0 -0.00695048 0)
(0 -0.00686593 0)
(0 -0.00691084 0)
(0 -0.0069758 0)
(0 -0.00640457 0)
(0 -0.00695393 0)
(0 -0.00685512 0)
(0 -0.006961 0)
(0 -0.00697602 0)
(0 -0.00657865 0)
(0 -0.000116438 0)
(0 -0.00569226 0)
(0 -0.00199258 0)
(0 -0.00697508 0)
(0 -0.00399318 0)
(0 -0.00552725 0)
(0 -0.00220842 0)
(0 -0.00697415 0)
(0 -0.00458533 0)
(0 -0.00697519 0)
(0 -0.00544785 0)
(0 -0.00670722 0)
(0 -4.25036e-05 0)
(0 -0.00545898 0)
(0 -0.00544678 0)
(0 -0.00681769 0)
(0 -0.00478709 0)
(0 -0.000489995 0)
(0 -0.00697585 0)
(0 -8.11884e-05 0)
(0 -0.000138117 0)
(0 -0.00323349 0)
(0 -0.00697308 0)
(0 -0.00627019 0)
(0 -0.00567207 0)
(0 -0.00697166 0)
(0 -0.00682329 0)
(0 -0.00697602 0)
(0 -0.00697219 0)
(0 -1.81943e-05 0)
(0 -0.00658679 0)
(0 -0.00487116 0)
(0 -0.00697577 0)
(0 -0.00674275 0)
(0 -0.00696336 0)
(0 -0.00690677 0)
(0 -6.80499e-05 0)
(0 -0.00620505 0)
(0 -0.00694362 0)
(0 -0.00685951 0)
(0 -0.00628877 0)
(0 -0.00663789 0)
(0 -0.00481742 0)
(0 -0.00564135 0)
(0 -0.00695948 0)
(0 -0.00696978 0)
(0 -0.00690793 0)
(0 -0.00559056 0)
(0 -0.00695862 0)
(0 -0.000107351 0)
(0 -0.00663941 0)
(0 -0.0069043 0)
(0 -0.00695986 0)
(0 -0.0069568 0)
(0 -0.00697601 0)
(0 -0.00282898 0)
(0 -0.00697602 0)
(0 -0.0066298 0)
(0 -0.00697574 0)
(0 -0.00313427 0)
(0 -0.00475534 0)
(0 -0.00656209 0)
(0 -0.00697602 0)
(0 -0.00697602 0)
(0 -0.00611777 0)
(0 -0.00687883 0)
(0 -0.00644791 0)
(0 -0.00672144 0)
(0 -0.0020251 0)
(0 -0.0069447 0)
(0 -0.00554069 0)
(0 -0.00272587 0)
(0 -0.00534317 0)
(0 -0.00536712 0)
(0 -0.006975 0)
(0 -0.00695259 0)
(0 -0.00659172 0)
(0 -0.00697496 0)
(0 -0.000548905 0)
(0 -0.00112164 0)
(0 -0.00110423 0)
(0 -0.0069728 0)
(0 -0.00695783 0)
(0 -0.00695889 0)
(0 -0.00237621 0)
(0 -9.27061e-06 0)
(0 -0.0068563 0)
(0 -0.00697602 0)
(0 -0.00102313 0)
(0 -0.000983487 0)
(0 -3.85288e-05 0)
(0 -0.00113783 0)
(0 -0.0011199 0)
(0 -0.00697601 0)
(0 -0.00697467 0)
(0 -0.00518361 0)
(0 -3.83841e-05 0)
(0 -0.00692802 0)
(0 -0.00697601 0)
(0 -0.000108858 0)
(0 -0.00221076 0)
(0 -0.00687436 0)
(0 -0.00697514 0)
(0 -0.00695914 0)
(0 -0.00697514 0)
(0 -0.00692142 0)
(0 -0.00403568 0)
(0 -0.00697204 0)
(0 -0.00693183 0)
(0 -0.00656255 0)
(0 -0.00694694 0)
(0 -0.00609518 0)
(0 -0.0069749 0)
(0 -0.00549387 0)
(0 -0.00682469 0)
(0 -0.00690099 0)
(0 -0.00520518 0)
(0 -1.81663e-05 0)
(0 -0.00637855 0)
(0 -0.00507428 0)
(0 -0.00290411 0)
(0 -0.00697601 0)
(0 -0.00646104 0)
(0 -0.00215726 0)
(0 -0.000963363 0)
(0 -0.00485111 0)
(0 -0.000985839 0)
(0 -0.005504 0)
(0 -0.000356795 0)
(0 -0.00685029 0)
(0 -0.00219098 0)
(0 -0.00697602 0)
(0 -0.00697545 0)
(0 -0.00513796 0)
(0 -0.00508312 0)
(0 -0.00694463 0)
(0 -0.000877941 0)
(0 -0.00680709 0)
(0 -0.00697601 0)
(0 -0.000893674 0)
(0 -0.00697602 0)
(0 -0.00283518 0)
(0 -0.00697261 0)
(0 -5.39537e-05 0)
(0 -0.00593964 0)
(0 -0.00524857 0)
(0 -0.00386214 0)
(0 -0.00696377 0)
(0 -0.000345769 0)
(0 -0.00682661 0)
(0 -0.00667898 0)
(0 -0.00645569 0)
(0 -0.00225063 0)
(0 -0.00688033 0)
(0 -0.00697602 0)
(0 -0.000149738 0)
(0 -0.00691009 0)
(0 -0.00516985 0)
(0 -0.00641499 0)
(0 -0.00526855 0)
(0 -0.00637993 0)
(0 -0.00279685 0)
(0 -0.000424838 0)
(0 -0.00693947 0)
(0 -0.00447214 0)
(0 -0.00681787 0)
(0 -0.0063598 0)
(0 -0.00205677 0)
(0 -0.00697582 0)
(0 -0.00697602 0)
(0 -0.00323323 0)
(0 -0.000736139 0)
(0 -0.00642658 0)
(0 -0.00535414 0)
(0 -0.00696723 0)
(0 -0.00697565 0)
(0 -0.00696342 0)
(0 -8.15866e-05 0)
(0 -0.00690916 0)
(0 -0.00502347 0)
(0 -0.00697446 0)
(0 -0.0053918 0)
(0 -0.00697135 0)
(0 -0.000314171 0)
(0 -0.00599483 0)
(0 -0.00686594 0)
(0 -0.00488168 0)
(0 -0.00633736 0)
(0 -0.00695882 0)
(0 -0.000122993 0)
(0 -0.00697574 0)
(0 -0.00149272 0)
(0 -0.00691441 0)
(0 -0.00084713 0)
(0 -0.00697601 0)
(0 -0.00181617 0)
(0 -0.00681128 0)
(0 -0.00647074 0)
(0 -6.05514e-05 0)
(0 -0.000167173 0)
(0 -0.00694831 0)
(0 -0.00697491 0)
(0 -0.00575662 0)
(0 -0.00485112 0)
(0 -0.00697593 0)
(0 -0.006975 0)
(0 -0.00696659 0)
(0 -0.00660315 0)
(0 -0.000869577 0)
(0 -0.00525332 0)
(0 -0.00697519 0)
(0 -0.00691245 0)
(0 -0.000890653 0)
(0 -0.00522566 0)
(0 -0.0055236 0)
(0 -0.00670094 0)
(0 -0.00681775 0)
(0 -0.006952 0)
(0 -0.00690016 0)
(0 -0.00679804 0)
(0 -0.00691105 0)
(0 -0.00697599 0)
(0 -0.00353413 0)
(0 -0.0057748 0)
(0 -0.005341 0)
(0 -0.00696773 0)
(0 -9.70309e-05 0)
(0 -0.00697602 0)
(0 -0.00690896 0)
(0 -0.00107761 0)
(0 -0.00557093 0)
(0 -0.00690962 0)
(0 -0.000758176 0)
(0 -0.00627159 0)
(0 -0.00200427 0)
(0 -0.00695974 0)
(0 -0.00694631 0)
(0 -0.00648393 0)
(0 -0.00520963 0)
(0 -0.00697206 0)
(0 -0.000854454 0)
(0 -0.00697114 0)
(0 -0.00695819 0)
(0 -0.00197832 0)
(0 -0.00629661 0)
(0 -0.0053108 0)
(0 -0.000965922 0)
(0 -0.00209586 0)
(0 -0.00697597 0)
(0 -0.000959591 0)
(0 -0.0062553 0)
(0 -0.00686459 0)
(0 -0.00678181 0)
(0 -0.00602585 0)
(0 -0.00697041 0)
(0 -0.00697267 0)
(0 -0.00621262 0)
(0 -0.00696385 0)
(0 -0.00524495 0)
(0 -0.00677572 0)
(0 -0.00697093 0)
(0 -0.00132435 0)
(0 -0.00674732 0)
(0 -0.00636947 0)
(0 -0.00379365 0)
(0 -0.00218771 0)
(0 -0.00365132 0)
(0 -0.00696124 0)
(0 -0.00683088 0)
(0 -0.00567981 0)
(0 -0.00366893 0)
(0 -0.00468587 0)
(0 -0.00689681 0)
(0 -0.00641765 0)
(0 -0.000849685 0)
(0 -2.08294e-05 0)
(0 -0.00696655 0)
(0 -0.00690426 0)
(0 -0.00395891 0)
(0 -0.00622987 0)
(0 -0.00696058 0)
(0 -0.00678788 0)
(0 -0.000126476 0)
(0 -0.0069625 0)
(0 -0.00697419 0)
(0 -0.00138238 0)
(0 -0.000847949 0)
(0 -0.00652839 0)
(0 -0.0020605 0)
(0 -0.000866782 0)
(0 -0.00522535 0)
(0 -0.000866394 0)
(0 -0.00134894 0)
(0 -0.00697308 0)
(0 -0.00530936 0)
(0 -0.0067701 0)
(0 -0.00697602 0)
(0 -0.00690591 0)
(0 -0.00281573 0)
(0 -0.00538891 0)
(0 -0.00697091 0)
(0 -0.00655272 0)
(0 -0.00697602 0)
(0 -0.00085011 0)
(0 -0.00372728 0)
(0 -0.000884801 0)
(0 -0.00114855 0)
(0 -0.0062169 0)
(0 -0.00531086 0)
(0 -0.00695888 0)
(0 -0.00200748 0)
(0 -0.0069752 0)
(0 -0.0036866 0)
(0 -0.00687389 0)
(0 -0.00208087 0)
(0 -0.00547924 0)
(0 -0.00692306 0)
(0 -0.00696576 0)
(0 -0.00547947 0)
(0 -0.00680833 0)
(0 -0.00293642 0)
(0 -0.000833647 0)
(0 -0.00460878 0)
(0 -0.00534129 0)
(0 -0.00254294 0)
(0 -0.00070439 0)
(0 -0.00697583 0)
(0 -0.0069649 0)
(0 -0.00245012 0)
(0 -0.0068866 0)
(0 -0.00696602 0)
(0 -0.000770697 0)
(0 -0.00691508 0)
(0 -0.00695425 0)
(0 -0.00697216 0)
(0 -0.00677751 0)
(0 -0.00697512 0)
(0 -0.00105424 0)
(0 -0.00105998 0)
(0 -0.00534153 0)
(0 -0.000109995 0)
(0 -0.00212027 0)
(0 -0.00605284 0)
(0 -0.00696584 0)
(0 -0.000262912 0)
(0 -0.00532647 0)
(0 -0.00579887 0)
(0 -0.0067441 0)
(0 -0.0066319 0)
(0 -0.00696835 0)
(0 -0.00692618 0)
(0 -0.00235423 0)
(0 -0.0051015 0)
(0 -0.00653706 0)
(0 -0.00681993 0)
(0 -0.00564574 0)
(0 -0.00662081 0)
(0 -0.00686021 0)
(0 -0.00668334 0)
(0 -0.00696968 0)
(0 -0.00170178 0)
(0 -0.00682554 0)
(0 -0.00694559 0)
(0 -0.00159828 0)
(0 -0.00697594 0)
(0 -0.000839519 0)
(0 -0.00112524 0)
(0 -0.00690198 0)
(0 -0.000868156 0)
(0 -0.000592674 0)
(0 -0.00693604 0)
(0 -0.00697588 0)
(0 -0.00685949 0)
(0 -0.00312006 0)
(0 -0.00633282 0)
(0 -0.00246218 0)
(0 -0.00696252 0)
(0 -0.0069403 0)
(0 -0.00555644 0)
(0 -0.00545948 0)
(0 -0.00286827 0)
(0 -0.00689686 0)
(0 -0.00404643 0)
(0 -0.00345342 0)
(0 -0.000117153 0)
(0 -0.00468765 0)
(0 -0.00369892 0)
(0 -0.00418041 0)
(0 -0.00674265 0)
(0 -0.000224809 0)
(0 -0.00692661 0)
(0 -0.00147323 0)
(0 -0.00478246 0)
(0 -0.00635054 0)
(0 -0.00697582 0)
(0 -0.000647524 0)
(0 -0.00659097 0)
(0 -0.00293943 0)
(0 -0.0068677 0)
(0 -0.00693021 0)
(0 -0.00665888 0)
(0 -0.0069054 0)
(0 -0.00682802 0)
(0 -0.00627443 0)
(0 -0.00652995 0)
(0 -0.00697569 0)
(0 -0.00697344 0)
(0 -0.00697601 0)
(0 -0.00301832 0)
(0 -0.0045072 0)
(0 -0.00237015 0)
(0 -0.0047154 0)
(0 -0.0069749 0)
(0 -0.000900544 0)
(0 -0.00540208 0)
(0 -0.00663334 0)
(0 -0.00697547 0)
(0 -0.00681538 0)
(0 -0.00665311 0)
(0 -0.00697593 0)
(0 -0.00243681 0)
(0 -0.00694715 0)
(0 -0.000283129 0)
(0 -0.00286096 0)
(0 -0.00697556 0)
(0 -0.000851164 0)
(0 -0.00697182 0)
(0 -1.80241e-05 0)
(0 -0.000561844 0)
(0 -0.00458478 0)
(0 -0.00696783 0)
(0 -0.00416031 0)
(0 -0.00087233 0)
(0 -0.00696292 0)
(0 -0.00691081 0)
(0 -0.00485581 0)
(0 -0.00697393 0)
(0 -0.00697579 0)
(0 -0.0069721 0)
(0 -0.00061634 0)
(0 -0.00697602 0)
(0 -4.30522e-05 0)
(0 -0.00696229 0)
(0 -0.00459242 0)
(0 -0.00288578 0)
(0 -0.000806226 0)
(0 -4.25325e-05 0)
(0 -0.00685401 0)
(0 -0.00662034 0)
(0 -0.000869046 0)
(0 -0.000278731 0)
(0 -0.000377902 0)
(0 -0.00697361 0)
(0 -0.00353151 0)
(0 -0.00694163 0)
(0 -0.00525979 0)
(0 -0.0008298 0)
(0 -0.000100734 0)
(0 -0.00694642 0)
(0 -0.00697088 0)
(0 -0.00697592 0)
(0 -0.00694433 0)
(0 -0.00674305 0)
(0 -0.006969 0)
(0 -0.00697601 0)
(0 -0.00215342 0)
(0 -0.0069659 0)
(0 -0.000371631 0)
(0 -0.00696346 0)
(0 -0.00471991 0)
(0 -0.00697209 0)
(0 -0.00359782 0)
(0 -0.00424547 0)
(0 -0.00558758 0)
(0 -0.00481621 0)
(0 -0.00685749 0)
(0 -0.00697478 0)
(0 -0.000243916 0)
(0 -0.00684338 0)
(0 -0.00338968 0)
(0 -2.95355e-05 0)
(0 -0.00697597 0)
(0 -0.00680442 0)
(0 -0.00343015 0)
(0 -0.00695374 0)
(0 -0.00222107 0)
(0 -0.00270829 0)
(0 -3.08573e-05 0)
(0 -0.00697594 0)
(0 -0.00349707 0)
(0 -0.00512704 0)
(0 -0.000880893 0)
(0 -0.00339327 0)
(0 -0.00696713 0)
(0 -4.08289e-05 0)
(0 -0.00695479 0)
(0 -0.000174933 0)
(0 -0.00180046 0)
(0 -0.00696386 0)
(0 -0.00694388 0)
(0 -0.00549706 0)
(0 -0.00697602 0)
(0 -0.00697153 0)
(0 -0.00634824 0)
(0 -0.00694462 0)
(0 -0.0023447 0)
(0 -0.00604587 0)
(0 -0.00697588 0)
(0 -0.0069727 0)
(0 -0.00651689 0)
(0 -0.00626398 0)
(0 -0.00428209 0)
(0 -0.000207019 0)
(0 -0.00376024 0)
(0 -7.90687e-05 0)
(0 -0.00693288 0)
(0 -0.00655254 0)
(0 -0.00696988 0)
(0 -0.00686362 0)
(0 -0.00639345 0)
(0 -0.00694329 0)
(0 -0.0045155 0)
(0 -0.00681547 0)
(0 -0.00695728 0)
(0 -0.00697602 0)
(0 -0.00283133 0)
(0 -0.00460905 0)
(0 -5.81201e-05 0)
(0 -0.00180318 0)
(0 -0.000272095 0)
(0 -9.67089e-05 0)
(0 -0.00247735 0)
(0 -0.000596089 0)
(0 -0.00697602 0)
(0 -0.00688478 0)
(0 -0.000589522 0)
(0 -0.00695711 0)
(0 -0.000267503 0)
(0 -0.00697553 0)
(0 -0.00280033 0)
(0 -0.00342614 0)
(0 -0.00697591 0)
(0 -0.00692735 0)
(0 -0.00179429 0)
(0 -0.00581852 0)
(0 -0.000758501 0)
(0 -0.00323731 0)
(0 -0.0061728 0)
(0 -0.00678766 0)
(0 -0.00379826 0)
(0 -0.00697602 0)
(0 -0.00671579 0)
(0 -0.00422344 0)
(0 -0.00176656 0)
(0 -0.00456784 0)
(0 -0.00697579 0)
(0 -0.00633543 0)
(0 -0.000346751 0)
(0 -0.00342646 0)
(0 -0.006976 0)
(0 -0.00686587 0)
(0 -0.00664283 0)
(0 -0.00697602 0)
(0 -0.00528272 0)
(0 -0.00192415 0)
(0 -0.00331692 0)
(0 -0.00620436 0)
(0 -0.00697503 0)
(0 -0.00181378 0)
(0 -0.00685672 0)
(0 -0.00614116 0)
(0 -0.00659371 0)
(0 -0.00696429 0)
(0 -0.00500497 0)
(0 -0.00695241 0)
(0 -0.00688632 0)
(0 -0.00572475 0)
(0 -0.00618936 0)
(0 -0.000349779 0)
(0 -0.00678024 0)
(0 -0.00505955 0)
(0 -0.00697303 0)
(0 -0.00642316 0)
(0 -0.0027232 0)
(0 -0.00697602 0)
(0 -0.000145452 0)
(0 -0.00532531 0)
(0 -0.00624329 0)
(0 -0.00629181 0)
(0 -0.0066539 0)
(0 -0.00697237 0)
(0 -0.000195835 0)
(0 -0.00694396 0)
(0 -0.00697074 0)
(0 -7.76873e-05 0)
(0 -0.00480145 0)
(0 -0.0064347 0)
(0 -0.000439053 0)
(0 -0.00415503 0)
(0 -0.00553066 0)
(0 -0.00573486 0)
(0 -0.00204755 0)
(0 -0.00694444 0)
(0 -0.00695453 0)
(0 -0.00223981 0)
(0 -0.00697343 0)
(0 -0.00673933 0)
(0 -0.00674867 0)
(0 -0.00695582 0)
(0 -0.00529749 0)
(0 -0.00694673 0)
(0 -0.00682269 0)
(0 -0.000734085 0)
(0 -0.00692781 0)
(0 -0.00690895 0)
(0 -0.00688193 0)
(0 -0.00335391 0)
(0 -0.00264869 0)
(0 -0.00371831 0)
(0 -0.00697602 0)
(0 -0.00610873 0)
(0 -0.00279858 0)
(0 -0.00691086 0)
(0 -0.0038926 0)
(0 -0.00297795 0)
(0 -0.00694339 0)
(0 -0.00681886 0)
(0 -0.00570095 0)
(0 -0.00679837 0)
(0 -0.00669239 0)
(0 -0.00697522 0)
(0 -0.00554424 0)
(0 -0.00531164 0)
(0 -0.00697017 0)
(0 -0.0028496 0)
(0 -0.00362883 0)
(0 -0.000164333 0)
(0 -0.000281326 0)
(0 -0.00577108 0)
(0 -0.00642964 0)
(0 -0.00667405 0)
(0 -0.0033013 0)
(0 -0.000716232 0)
(0 -0.00448172 0)
(0 -0.00463415 0)
(0 -0.00626098 0)
(0 -0.00677487 0)
(0 -0.000865257 0)
(0 -0.00694772 0)
(0 -0.00597992 0)
(0 -0.00697088 0)
(0 -0.00573671 0)
(0 -0.000121466 0)
(0 -0.00697574 0)
(0 -0.00620253 0)
(0 -0.00697601 0)
(0 -0.00659979 0)
(0 -0.00578432 0)
(0 -0.00502374 0)
(0 -0.00280648 0)
(0 -0.00471014 0)
(0 -0.00697571 0)
(0 -0.00677125 0)
(0 -0.00637137 0)
(0 -0.00677747 0)
(0 -0.0040483 0)
(0 -0.00688392 0)
(0 -2.78496e-05 0)
(0 -0.0034384 0)
(0 -0.00390886 0)
(0 -3.85646e-05 0)
(0 -0.00697252 0)
(0 -0.00660779 0)
(0 -0.00581678 0)
(0 -0.00695831 0)
(0 -0.00518845 0)
(0 -0.00127132 0)
(0 -0.000343193 0)
(0 -0.00690332 0)
(0 -0.00233187 0)
(0 -0.00530309 0)
(0 -0.00619496 0)
(0 -0.00440318 0)
(0 -0.00691223 0)
(0 -0.00121908 0)
(0 -0.00668247 0)
(0 -0.00570965 0)
(0 -0.00697602 0)
(0 -0.00697602 0)
(0 -0.00543463 0)
(0 -0.00697524 0)
(0 -0.00681716 0)
(0 -0.00697602 0)
(0 -0.00531254 0)
(0 -0.00171598 0)
(0 -0.00262053 0)
(0 -0.0052845 0)
(0 -0.0061367 0)
(0 -0.00299093 0)
(0 -0.0067806 0)
(0 -0.00399806 0)
(0 -0.00643913 0)
(0 -0.00536786 0)
(0 -0.00697363 0)
(0 -0.00606877 0)
(0 -0.00685639 0)
(0 -0.00688566 0)
(0 -0.00302478 0)
(0 -0.00675348 0)
(0 -0.00620535 0)
(0 -0.00299565 0)
(0 -0.00669106 0)
(0 -0.000835592 0)
(0 -0.00697579 0)
(0 -0.00693585 0)
(0 -0.000646305 0)
(0 -0.00320776 0)
(0 -0.00415681 0)
(0 -0.00484192 0)
(0 -0.00455145 0)
(0 -0.00697033 0)
(0 -0.00181886 0)
(0 -0.00681212 0)
(0 -0.00350564 0)
(0 -0.00107558 0)
(0 -0.00584735 0)
(0 -0.00402171 0)
(0 -0.00694598 0)
(0 -0.00364816 0)
(0 -0.00191948 0)
(0 -0.00173127 0)
(0 -0.00696646 0)
(0 -0.00610679 0)
(0 -0.0069488 0)
(0 -0.00228915 0)
(0 -0.00680849 0)
(0 -0.000816809 0)
(0 -0.00458527 0)
(0 -0.006976 0)
(0 -0.000282831 0)
(0 -0.00623127 0)
(0 -0.00695585 0)
(0 -0.00697601 0)
(0 -0.000825874 0)
(0 -0.00526577 0)
(0 -0.0069708 0)
(0 -0.00208639 0)
(0 -0.00521486 0)
(0 -0.00448286 0)
(0 -0.00697395 0)
(0 -0.00394047 0)
(0 -0.00696409 0)
(0 -0.00557741 0)
(0 -0.00697593 0)
(0 -0.00591714 0)
(0 -0.00693683 0)
(0 -0.00370039 0)
(0 -0.000602241 0)
(0 -0.000974758 0)
(0 -0.000527278 0)
(0 -0.000125746 0)
(0 -0.00697561 0)
(0 -0.00608092 0)
(0 -0.00236179 0)
(0 -0.00542349 0)
(0 -0.00205592 0)
(0 -0.0025908 0)
(0 -0.00693344 0)
(0 -0.00617744 0)
(0 -0.00697492 0)
(0 -0.00676194 0)
(0 -0.00695387 0)
(0 -0.00694169 0)
(0 -0.00657549 0)
(0 -0.00697592 0)
(0 -0.00580015 0)
(0 -0.00693074 0)
(0 -0.00396336 0)
(0 -0.00697602 0)
(0 -0.00107956 0)
(0 -0.00590913 0)
(0 -0.000836597 0)
(0 -0.00290827 0)
(0 -0.00558319 0)
(0 -0.000827088 0)
(0 -0.00163227 0)
(0 -0.00227418 0)
(0 -0.00460808 0)
(0 -0.00674192 0)
(0 -0.000687878 0)
(0 -0.00605137 0)
(0 -0.0069485 0)
(0 -0.0069728 0)
(0 -0.00697159 0)
(0 -0.00695379 0)
(0 -0.00487876 0)
(0 -0.00099809 0)
(0 -0.00369454 0)
(0 -0.00697025 0)
(0 -0.0039992 0)
(0 -0.00697602 0)
(0 -0.00105364 0)
(0 -0.00181177 0)
(0 -0.00103453 0)
(0 -0.00509037 0)
(0 -0.00102388 0)
(0 -0.000904143 0)
(0 -0.00383801 0)
(0 -0.00682271 0)
(0 -0.00237268 0)
(0 -0.00697593 0)
(0 -0.00538723 0)
(0 -0.00290165 0)
(0 -0.00697564 0)
(0 -0.00406932 0)
(0 -0.00369204 0)
(0 -0.00350524 0)
(0 -0.00697591 0)
(0 -0.00682233 0)
(0 -9.73587e-05 0)
(0 -0.0018303 0)
(0 -0.00311551 0)
(0 -0.00358837 0)
(0 -0.0069738 0)
(0 -0.00267724 0)
(0 -0.00679597 0)
(0 -0.00626928 0)
(0 -0.00582507 0)
(0 -0.00284036 0)
(0 -0.00210151 0)
(0 -0.00658052 0)
(0 -0.00518702 0)
(0 -0.00625598 0)
(0 -0.00697599 0)
(0 -0.00380882 0)
(0 -0.000390508 0)
(0 -0.00523888 0)
(0 -0.00429143 0)
(0 -0.00255581 0)
(0 -0.00695976 0)
(0 -0.00688201 0)
(0 -0.00653484 0)
(0 -0.00697599 0)
(0 -0.00697588 0)
(0 -0.00514399 0)
(0 -0.0069612 0)
(0 -0.00218756 0)
(0 -0.006976 0)
(0 -0.00202074 0)
(0 -0.00695992 0)
(0 -0.00690102 0)
(0 -0.00675563 0)
(0 -0.0061998 0)
(0 -0.00694 0)
(0 -0.00686198 0)
(0 -0.00697462 0)
(0 -0.000773155 0)
(0 -0.00469636 0)
(0 -0.000846509 0)
(0 -0.00400532 0)
(0 -0.00688809 0)
(0 -0.00565495 0)
(0 -0.00552337 0)
(0 -0.00690166 0)
(0 -0.00697602 0)
(0 -0.00207953 0)
(0 -0.00680106 0)
(0 -0.00697601 0)
(0 -2.02375e-05 0)
(0 -0.000906641 0)
(0 -0.00543646 0)
(0 -0.00697502 0)
(0 -0.00610649 0)
(0 -3.57469e-05 0)
(0 -0.00673068 0)
(0 -0.00532314 0)
(0 -0.00348135 0)
(0 -0.00570779 0)
(0 -0.00618609 0)
(0 -0.00520693 0)
(0 -0.00425411 0)
(0 -0.000795813 0)
(0 -0.00188926 0)
(0 -0.00395734 0)
(0 -0.00376513 0)
(0 -0.00697601 0)
(0 -0.00586428 0)
(0 -0.00602674 0)
(0 -0.000935455 0)
(0 -0.00697601 0)
(0 -0.000940734 0)
(0 -0.000783915 0)
(0 -0.00655169 0)
(0 -0.00609759 0)
(0 -0.00629044 0)
(0 -0.000806124 0)
(0 -0.00697045 0)
(0 -0.00273774 0)
(0 -0.0048531 0)
(0 -0.00692531 0)
(0 -0.00388231 0)
(0 -6.34e-05 0)
(0 -0.00694469 0)
(0 -0.00696504 0)
(0 -0.00694324 0)
(0 -0.00695902 0)
(0 -0.00184896 0)
(0 -0.00695818 0)
(0 -0.00697587 0)
(0 -0.000209463 0)
(0 -0.00695993 0)
(0 -0.000937254 0)
(0 -0.00689141 0)
(0 -0.00692694 0)
(0 -0.00390158 0)
(0 -0.0066167 0)
(0 -0.00289559 0)
(0 -0.00661964 0)
(0 -0.00641529 0)
(0 -0.006042 0)
(0 -0.00697073 0)
(0 -0.00682775 0)
(0 -0.00691398 0)
(0 -0.00696459 0)
(0 -0.000309562 0)
(0 -0.00696301 0)
(0 -0.00623807 0)
(0 -0.00516103 0)
(0 -0.00406212 0)
(0 -0.00185472 0)
(0 -0.000666309 0)
(0 -0.0020382 0)
(0 -0.00622396 0)
(0 -0.00697483 0)
(0 -0.00247754 0)
(0 -0.00606831 0)
(0 -0.00661875 0)
(0 -0.00581749 0)
(0 -0.00521105 0)
(0 -0.00689438 0)
(0 -0.0069511 0)
(0 -0.00488583 0)
(0 -0.00310081 0)
(0 -0.00667821 0)
(0 -0.000943798 0)
(0 -0.0062804 0)
(0 -0.0069759 0)
(0 -0.00586793 0)
(0 -0.00402728 0)
(0 -0.00685089 0)
(0 -0.00283479 0)
(0 -0.00609686 0)
(0 -0.00697584 0)
(0 -0.00697601 0)
(0 -0.00560336 0)
(0 -0.0068847 0)
(0 -0.00633069 0)
(0 -0.00697602 0)
(0 -0.00679317 0)
(0 -0.00662354 0)
(0 -0.00697375 0)
(0 -0.00337274 0)
(0 -0.00693341 0)
(0 -0.0069727 0)
(0 -0.00697021 0)
(0 -0.00411861 0)
(0 -0.00621999 0)
(0 -0.0013099 0)
(0 -0.00470831 0)
(0 -0.000309636 0)
(0 -0.00527792 0)
(0 -0.00483836 0)
(0 -0.00697313 0)
(0 -0.000278821 0)
(0 -0.00688072 0)
(0 -0.00130866 0)
(0 -0.0069407 0)
(0 -0.00697169 0)
(0 -0.00616877 0)
(0 -0.00696168 0)
(0 -0.0067986 0)
(0 -0.00417627 0)
(0 -0.00695506 0)
(0 -0.0061698 0)
(0 -0.00611333 0)
(0 -0.00422265 0)
(0 -0.00697601 0)
(0 -0.00694205 0)
(0 -0.00697602 0)
(0 -0.00658816 0)
(0 -0.0069702 0)
(0 -0.00690696 0)
(0 -0.000778241 0)
(0 -0.00547214 0)
(0 -0.00683594 0)
(0 -0.000803206 0)
(0 -0.00409755 0)
(0 -0.00693684 0)
(0 -0.00423405 0)
(0 -0.00644134 0)
(0 -0.00659408 0)
(0 -0.00616263 0)
(0 -0.00613404 0)
(0 -0.00692868 0)
(0 -0.00693326 0)
(0 -0.00335526 0)
(0 -0.00693137 0)
(0 -0.00585734 0)
(0 -0.00528942 0)
(0 -0.00357782 0)
(0 -0.0021721 0)
(0 -0.00697463 0)
(0 -0.00696821 0)
(0 -0.00260246 0)
(0 -0.0068484 0)
(0 -0.00071713 0)
(0 -0.00522983 0)
(0 -0.00697602 0)
(0 -0.00544756 0)
(0 -0.00113627 0)
(0 -0.00130414 0)
(0 -0.00427866 0)
(0 -0.000236694 0)
(0 -0.00616979 0)
(0 -0.0069747 0)
(0 -0.00465396 0)
(0 -0.00663244 0)
(0 -0.00182204 0)
(0 -0.000739413 0)
(0 -0.00695222 0)
(0 -0.00697478 0)
(0 -0.00696932 0)
(0 -0.00586586 0)
(0 -0.000585974 0)
(0 -0.00127764 0)
(0 -0.0060079 0)
(0 -0.00695209 0)
(0 -0.00697573 0)
(0 -0.00066925 0)
(0 -0.00689173 0)
(0 -0.00652839 0)
(0 -0.00692113 0)
(0 -0.00660228 0)
(0 -0.000693744 0)
(0 -0.00640083 0)
(0 -0.00696191 0)
(0 -0.00289794 0)
(0 -0.00677776 0)
(0 -0.000717146 0)
(0 -0.00230102 0)
(0 -0.00578199 0)
(0 -0.00697588 0)
(0 -0.00689183 0)
(0 -0.00178833 0)
(0 -0.00697233 0)
(0 -0.0069307 0)
(0 -0.00326419 0)
(0 -0.00694159 0)
(0 -0.000372549 0)
(0 -0.00155407 0)
(0 -0.00696666 0)
(0 -0.00426399 0)
(0 -0.00288685 0)
(0 -0.00557762 0)
(0 -0.00695689 0)
(0 -0.00668324 0)
(0 -0.0061463 0)
(0 -0.00118191 0)
(0 -0.0036856 0)
(0 -0.00271102 0)
(0 -0.00396164 0)
(0 -0.00675342 0)
(0 -0.00681734 0)
(0 -0.00697602 0)
(0 -0.00669865 0)
(0 -0.00667672 0)
(0 -0.006849 0)
(0 -0.00690158 0)
(0 -0.00299427 0)
(0 -0.00662062 0)
(0 -0.00695683 0)
(0 -0.00697232 0)
(0 -0.00697535 0)
(0 -0.00591538 0)
(0 -0.00115539 0)
(0 -0.00697601 0)
(0 -0.00101232 0)
(0 -0.0009466 0)
(0 -0.00636451 0)
(0 -0.00676638 0)
(0 -0.00572428 0)
(0 -0.0010202 0)
(0 -0.00697319 0)
(0 -0.00666698 0)
(0 -0.00583375 0)
(0 -0.00404515 0)
(0 -0.00692959 0)
(0 -0.00697269 0)
(0 -0.00697601 0)
(0 -0.00444401 0)
(0 -0.00475341 0)
(0 -0.00624632 0)
(0 -0.00013285 0)
(0 -0.00142186 0)
(0 -0.00688622 0)
(0 -0.0041751 0)
(0 -0.00658119 0)
(0 -0.0068429 0)
(0 -0.00611178 0)
(0 -0.00697472 0)
(0 -0.0029482 0)
(0 -0.0055797 0)
(0 -0.0061363 0)
(0 -0.00110594 0)
(0 -0.00697221 0)
(0 -0.00312833 0)
(0 -0.00262099 0)
(0 -0.00690664 0)
(0 -0.00693856 0)
(0 -0.00692493 0)
(0 -0.00697141 0)
(0 -0.00249017 0)
(0 -0.00681218 0)
(0 -0.00300113 0)
(0 -0.00315753 0)
(0 -0.00520557 0)
(0 -0.000755925 0)
(0 -0.00541392 0)
(0 -0.00697173 0)
(0 -0.0053942 0)
(0 -0.00692489 0)
(0 -0.00401562 0)
(0 -0.00214728 0)
(0 -0.00539282 0)
(0 -0.000683957 0)
(0 -0.00356534 0)
(0 -0.00697601 0)
(0 -0.000712515 0)
(0 -0.00637168 0)
(0 -0.00694624 0)
(0 -0.000612757 0)
(0 -0.00692472 0)
(0 -0.00684383 0)
(0 -0.00681817 0)
(0 -0.00514988 0)
(0 -0.00349148 0)
(0 -0.00286135 0)
(0 -0.00228471 0)
(0 -0.000631825 0)
(0 -0.00630113 0)
(0 -0.00262566 0)
(0 -0.000460095 0)
(0 -0.00319004 0)
(0 -0.00110352 0)
(0 -0.00657543 0)
(0 -0.00389511 0)
(0 -0.00697493 0)
(0 -0.00688627 0)
(0 -0.0021636 0)
(0 -0.00218173 0)
(0 -0.0018392 0)
(0 -0.00688049 0)
(0 -0.00192024 0)
(0 -0.00684347 0)
(0 -0.00367289 0)
(0 -1.5377e-05 0)
(0 -0.00218112 0)
(0 -0.0069169 0)
(0 -0.00585798 0)
(0 -0.00697153 0)
(0 -0.00130969 0)
(0 -0.000684381 0)
(0 -0.00651206 0)
(0 -0.000621593 0)
(0 -0.00192528 0)
(0 -0.00697592 0)
(0 -0.00507347 0)
(0 -0.000457737 0)
(0 -0.00689248 0)
(0 -0.00694012 0)
(0 -0.00697602 0)
(0 -0.000692433 0)
(0 -0.00663832 0)
(0 -0.0068952 0)
(0 -0.00195308 0)
(0 -0.00156416 0)
(0 -0.00697209 0)
(0 -0.00408301 0)
(0 -6.36901e-05 0)
(0 -0.00692853 0)
(0 -0.0016253 0)
(0 -0.00697586 0)
(0 -0.00071713 0)
(0 -0.00340035 0)
(0 -0.00470389 0)
(0 -0.0016156 0)
(0 -0.00697575 0)
(0 -7.00756e-05 0)
(0 -0.00119209 0)
(0 -0.00695027 0)
(0 -0.00262937 0)
(0 -0.00288823 0)
(0 -0.000764429 0)
(0 -0.0014869 0)
(0 -0.00691453 0)
(0 -0.00566592 0)
(0 -0.00504535 0)
(0 -0.00151499 0)
(0 -0.00687574 0)
(0 -0.00514194 0)
(0 -0.00161436 0)
(0 -0.00170932 0)
(0 -0.00606953 0)
(0 -0.00204769 0)
(0 -0.00660936 0)
(0 -0.00458037 0)
(0 -0.00269926 0)
(0 -0.00572053 0)
(0 -0.00107436 0)
(0 -0.0059759 0)
(0 -0.00513327 0)
(0 -0.00657102 0)
(0 -0.0018294 0)
(0 -0.00694679 0)
(0 -0.00472889 0)
(0 -0.00638502 0)
(0 -0.00249884 0)
(0 -0.00537633 0)
(0 -0.00383675 0)
(0 -0.000771955 0)
(0 -0.00670034 0)
(0 -0.00587312 0)
(0 -0.00671506 0)
(0 -0.0069287 0)
(0 -0.00106889 0)
(0 -0.00697587 0)
(0 -0.0069751 0)
(0 -0.00695006 0)
(0 -0.00697528 0)
(0 -0.00480441 0)
(0 -0.00505862 0)
(0 -0.00683958 0)
(0 -0.00695807 0)
(0 -0.0011319 0)
(0 -0.00697601 0)
(0 -0.00211211 0)
(0 -0.00696591 0)
(0 -0.00520292 0)
(0 -0.00658162 0)
(0 -0.00694449 0)
(0 -0.00668156 0)
(0 -0.00690675 0)
(0 -0.000363565 0)
(0 -0.0069185 0)
(0 -0.0030072 0)
(0 -0.00243997 0)
(0 -0.00661899 0)
(0 -0.00697582 0)
(0 -0.00697595 0)
(0 -0.00557414 0)
(0 -0.00509634 0)
(0 -0.00687089 0)
(0 -0.000125527 0)
(0 -0.00695996 0)
(0 -9.21448e-05 0)
(0 -0.00622112 0)
(0 -0.00177986 0)
(0 -5.4564e-05 0)
(0 -0.00697601 0)
(0 -0.00155473 0)
(0 -0.00685456 0)
(0 -0.00535504 0)
(0 -0.00683693 0)
(0 -0.00693463 0)
(0 -0.00520118 0)
(0 -0.00258322 0)
(0 -0.00697434 0)
(0 -0.00305121 0)
(0 -0.00415699 0)
(0 -0.00611963 0)
(0 -0.00212573 0)
(0 -0.00695909 0)
(0 -0.00589357 0)
(0 -0.00677253 0)
(0 -0.006976 0)
(0 -0.0039903 0)
(0 -0.00669579 0)
(0 -0.00566355 0)
(0 -6.91792e-05 0)
(0 -0.00688674 0)
(0 -0.0024778 0)
(0 -0.00239828 0)
(0 -0.00676498 0)
(0 -9.16491e-05 0)
(0 -0.000378326 0)
(0 -0.00663735 0)
(0 -0.00507598 0)
(0 -0.00696392 0)
(0 -0.00608352 0)
(0 -0.00230316 0)
(0 -0.00337133 0)
(0 -0.000592074 0)
(0 -0.00196597 0)
(0 -0.00379175 0)
(0 -0.0069562 0)
(0 -0.00537278 0)
(0 -0.00434416 0)
(0 -0.00278486 0)
(0 -0.00327738 0)
(0 -0.00530843 0)
(0 -0.0054796 0)
(0 -0.00697496 0)
(0 -0.000316206 0)
(0 -0.0067935 0)
(0 -0.00613195 0)
(0 -0.00295771 0)
(0 -0.00697264 0)
(0 -0.00522145 0)
(0 -0.000173467 0)
(0 -0.00697601 0)
(0 -0.00695837 0)
(0 -0.00697591 0)
(0 -0.00288716 0)
(0 -0.00697543 0)
(0 -0.00676623 0)
(0 -0.00499987 0)
(0 -0.006976 0)
(0 -0.00519562 0)
(0 -0.00587648 0)
(0 -0.00697073 0)
(0 -0.0058578 0)
(0 -0.00647622 0)
(0 -0.00697601 0)
(0 -0.00638063 0)
(0 -0.00693917 0)
(0 -0.00531185 0)
(0 -0.00697457 0)
(0 -0.00421621 0)
(0 -0.0038419 0)
(0 -0.0031056 0)
(0 -0.00697602 0)
(0 -0.00430059 0)
(0 -0.00103821 0)
(0 -0.00496293 0)
(0 -0.00467529 0)
(0 -0.00288778 0)
(0 -0.00104671 0)
(0 -0.00682863 0)
(0 -0.00669609 0)
(0 -0.00394972 0)
(0 -0.00651568 0)
(0 -0.00697568 0)
(0 -0.00639596 0)
(0 -0.00693585 0)
(0 -0.00692307 0)
(0 -0.00248115 0)
(0 -0.00695293 0)
(0 -0.00678218 0)
(0 -0.00606697 0)
(0 -0.00696903 0)
(0 -0.000628339 0)
(0 -0.00695475 0)
(0 -0.00697602 0)
(0 -0.00294519 0)
(0 -0.00697602 0)
(0 -0.00235112 0)
(0 -0.00697531 0)
(0 -0.00695716 0)
(0 -0.00635916 0)
(0 -0.00523085 0)
(0 -0.0038515 0)
(0 -0.00536083 0)
(0 -0.00379973 0)
(0 -0.00633599 0)
(0 -0.00220166 0)
(0 -0.00513673 0)
(0 -0.00697493 0)
(0 -0.00689568 0)
(0 -0.00697316 0)
(0 -0.0042653 0)
(0 -0.00666426 0)
(0 -0.00697584 0)
(0 -0.00289152 0)
(0 -0.00522694 0)
(0 -0.00697455 0)
(0 -0.00200956 0)
(0 -0.00372493 0)
(0 -0.00697068 0)
(0 -0.00695756 0)
(0 -0.00693232 0)
(0 -0.00527549 0)
(0 -0.00697176 0)
(0 -0.00670061 0)
(0 -0.00577742 0)
(0 -0.00697556 0)
(0 -0.00697151 0)
(0 -0.00408727 0)
(0 -0.001658 0)
(0 -0.0069355 0)
(0 -0.00687449 0)
(0 -0.00689616 0)
(0 -0.00496617 0)
(0 -0.00675132 0)
(0 -0.00688322 0)
(0 -0.00678948 0)
(0 -0.00533109 0)
(0 -0.00213934 0)
(0 -0.00657024 0)
(0 -0.006976 0)
(0 -0.00657165 0)
(0 -0.00376912 0)
(0 -0.00391124 0)
(0 -0.00632401 0)
(0 -0.0028177 0)
(0 -0.00697584 0)
(0 -0.00667112 0)
(0 -0.00115608 0)
(0 -0.00693505 0)
(0 -0.00216429 0)
(0 -0.00160915 0)
(0 -0.00683555 0)
(0 -0.00680279 0)
(0 -0.00505696 0)
(0 -0.00697567 0)
(0 -0.00261238 0)
(0 -0.00697577 0)
(0 -0.00258133 0)
(0 -0.00697598 0)
(0 -0.00697232 0)
(0 -0.00697085 0)
(0 -0.000756608 0)
(0 -0.00653964 0)
(0 -0.00640702 0)
(0 -0.00670357 0)
(0 -0.00692239 0)
(0 -0.00694432 0)
(0 -0.0069749 0)
(0 -0.00677961 0)
(0 -2.97103e-05 0)
(0 -0.00656561 0)
(0 -0.00297289 0)
(0 -0.00695668 0)
(0 -0.00697602 0)
(0 -7.22552e-05 0)
(0 -0.00141935 0)
(0 -0.00619888 0)
(0 -0.00693447 0)
(0 -0.00669211 0)
(0 -0.00271527 0)
(0 -0.00680761 0)
(0 -0.00692941 0)
(0 -0.00224863 0)
(0 -0.00212507 0)
(0 -0.00615495 0)
(0 -0.00697576 0)
(0 -0.00586519 0)
(0 -0.00236259 0)
(0 -0.00697502 0)
(0 -0.00676242 0)
(0 -0.00613097 0)
(0 -0.00696998 0)
(0 -0.00357326 0)
(0 -0.00657911 0)
(0 -0.00697567 0)
(0 -0.000157304 0)
(0 -0.00676318 0)
(0 -0.00686191 0)
(0 -0.00693703 0)
(0 -0.00695545 0)
(0 -0.00697539 0)
(0 -0.00524472 0)
(0 -0.00626119 0)
(0 -0.0067677 0)
(0 -0.00163508 0)
(0 -0.00696677 0)
(0 -0.00692641 0)
(0 -0.00690082 0)
(0 -0.00696459 0)