/*--------------------------------*- C++ -*----------------------------------*\
| =========                 |                                                 |
| \\      /  F ield         | OpenFOAM: The Open Source CFD Toolbox           |
|  \\    /   O peration     | Version:  v2012                                 |
|   \\  /    A nd           | Website:  www.openfoam.com                      |
|    \\/     M anipulation  |                                                 |
\*---------------------------------------------------------------------------*/
FoamFile
{
    version     2.0;
    format      ascii;
    class       volScalarField;
    location    "700";
    object      k_0;
}
// * * * * * * * * * * * * * * * * * * * * * * * * * * * * * * * * * * * * * //

dimensions      [0 2 -2 0 0 0 0];


internalField   nonuniform List<scalar> 
13917
(
0.0179261
0.00017839
0.000211387
0.000151637
0.000162804
0.000178442
0.000161024
0.0002161
0.00015842
0.00220147
0.000201186
0.000149738
0.00016756
0.0301981
0.000166292
0.0146822
0.000150895
0.000192455
0.000195613
0.0143675
0.000170553
0.000149667
0.000176885
0.000149675
0.000155292
0.000172148
0.00298962
0.00125322
0.000179096
0.000137183
0.00119841
0.000184985
0.000152004
0.0300636
0.000146007
0.000232338
0.000157737
0.000160796
0.0001611
0.000175202
0.000150393
0.000145713
0.00015574
0.000195114
0.000194855
4.39794e-05
0.000169067
0.0200313
0.000717129
0.000146117
0.000149522
0.000195418
0.00834377
0.000149582
0.000150056
0.00019511
0.000238903
0.000176831
0.000145512
0.000280204
0.0248528
0.000182745
0.000141828
0.000154772
0.0324302
0.000126782
0.000181944
0.00023569
0.000198832
0.0175374
0.021329
0.0278521
0.00014888
0.000144401
0.000171694
0.000156716
0.000157284
0.000144151
0.000156172
0.000152284
0.000152583
0.00015079
0.000148725
0.0221181
0.000142151
0.000221982
0.000184212
0.000146338
0.000174752
0.00015098
0.000141302
0.00015606
0.000553549
0.000143737
0.000152447
0.000182031
0.00147155
0.000151167
0.000145433
0.00022171
0.000146912
0.000145878
0.000152809
0.000145698
0.000157066
0.0273443
0.0252538
0.000189158
0.000147258
0.0076439
0.000145202
0.0310642
0.000179182
0.0204168
0.0319558
0.000157709
0.000194421
0.000143754
0.000212168
0.000147715
0.000150635
0.000142921
0.000185574
0.000191602
0.0198513
0.0265923
0.000154237
0.000173311
0.00014452
0.000191889
0.00016689
0.00015366
0.0454399
0.000157654
0.000188404
0.0104776
0.0231188
0.0213624
0.000173839
0.000160314
0.0153046
0.00014357
0.0263232
0.000144484
0.000148188
0.000161255
0.0206769
0.00321658
0.0177343
0.000149871
0.000172232
0.000144575
0.000147913
0.000147757
0.00243165
0.000152444
0.000145218
0.046009
0.000149197
0.000145657
0.000142574
0.0331914
0.000161799
0.0141192
0.0271613
0.000256715
0.00727002
0.0257544
0.00013124
0.000175559
0.000150331
0.0434459
0.000158279
0.0251634
0.000187727
0.000147272
0.000151601
0.000196783
0.00016619
0.000162629
0.00015559
0.000149854
0.000149553
0.000168043
0.000212551
0.000155116
0.000149355
0.000183993
0.000137242
0.000246055
0.000188165
0.000193265
0.000197742
0.0178801
0.000143783
0.0201497
0.000160514
0.0452679
0.000145692
0.000151633
0.000166707
0.0172825
0.0183245
0.000156901
0.0039643
0.000171541
0.000172781
0.000143493
0.00019648
0.000152574
0.000141108
0.000172584
0.00017408
0.018935
0.00018785
0.000173703
0.0346612
0.000154948
0.000138011
0.000137958
0.0248919
0.000205526
6.09294e-05
0.000143632
0.000142541
0.0167819
0.0172014
0.000137079
0.000136867
0.000150297
0.000138416
0.000138373
0.0261291
0.0208026
0.000150753
0.000131516
0.000188178
0.0263155
0.000150469
0.000143605
0.00432656
0.0280995
0.000216554
0.0346887
0.000193813
0.000144544
0.0259112
0.000189104
0.00017708
0.000187935
0.000156281
0.0198778
0.000147973
0.00017664
0.000185848
0.000151249
0.000150304
0.000154661
0.000163216
0.000146202
0.0260885
0.0138459
0.000142952
0.000136702
0.000152925
0.00013673
0.000147984
0.000168197
0.000171799
0.000143433
0.0256228
0.0269019
0.000147443
0.000158845
0.00155338
0.000137988
0.000206752
0.0293702
0.000138038
0.0215799
0.000145531
0.0329217
0.000147671
0.000163168
0.000151593
0.000144207
0.000200339
0.000154231
0.000166141
0.000164325
0.0140453
0.000163221
0.000643112
0.0210254
0.000146476
0.000180412
0.000162816
0.000158419
0.000162511
0.000155985
0.000144232
0.000152614
0.000197068
0.00023651
0.000175701
0.000155593
0.000143482
0.0459811
0.0146663
0.000143675
0.000149774
0.000158462
0.000497992
0.000198251
0.0281927
0.0260459
0.000137784
0.000215889
0.000158281
0.0187818
0.000817378
0.000207442
0.000166783
0.000165633
0.00277637
0.000151393
0.000180901
0.000192989
0.000150594
0.0431623
0.000142576
0.000172953
0.000141335
0.00671563
0.000139687
0.000173851
0.00017209
0.000141956
0.000150024
0.000187936
0.0216489
0.000151962
0.000151384
0.0333319
0.0232987
0.0300083
0.0289503
0.000137601
0.000150614
0.030024
0.000209064
0.000137696
0.000162931
0.000149509
0.000186742
0.000174551
0.000194695
0.000194742
0.000207502
0.000172895
0.0258151
0.000144927
0.000151971
0.000164754
0.000211077
0.000150628
0.0158171
0.000172608
0.0031384
0.000150338
0.000200185
0.000151628
0.000345203
0.000147222
0.000122097
0.00182882
0.00017367
0.000147783
0.00761341
0.00014309
0.0269287
0.000201099
0.000147502
0.000401736
0.000152984
0.00121556
0.000139792
0.0160037
0.00120942
0.000156506
0.0200633
0.000201349
0.000155274
0.031751
0.000220837
0.00015536
0.000200398
0.000150087
0.000203477
0.000212322
0.000142809
0.000159875
0.000155449
0.000143836
0.000140761
0.000145442
0.0234733
0.000242513
0.000151105
0.0001459
0.000148727
0.000180086
0.000224966
0.000139378
0.000131405
0.000197842
0.000200664
0.000144613
0.00015611
0.0282849
0.031078
0.000309558
0.000196753
0.0129066
0.000142643
0.000138803
0.000167374
0.000140648
0.000139408
0.000151109
0.000138879
0.000142218
0.0245992
0.000150401
0.000177358
0.0278155
0.000180339
0.000141362
0.000147659
0.0321623
0.000166876
0.0170148
0.000140633
0.000143964
0.000143584
0.000138862
0.000157403
0.000153567
0.0277813
8.78068e-05
0.029979
0.000143923
0.000169502
0.000155718
0.000152227
0.000192924
0.0301233
0.000149261
0.0364015
0.000141752
0.000144168
0.000148356
0.000153064
0.000140577
0.000151139
0.0455826
0.025127
0.000140359
0.000834729
0.0001976
0.000148781
0.000182321
0.000185885
0.030729
0.00016096
0.0276465
0.00297833
0.00319765
0.000153642
0.000131031
0.000147966
0.000155857
0.0182222
0.000142763
0.000149226
0.000152436
0.000159178
0.000170152
0.000204687
0.000180548
0.000155324
0.000160217
0.000191729
0.000184803
0.000151113
0.0281767
0.000171012
0.000164249
0.0272639
0.000142213
0.000185722
0.000201703
0.000139961
0.0435415
0.000145019
0.00013886
0.000180839
0.000140646
0.000153165
0.000197299
0.0476984
0.030026
0.000142448
0.000152172
0.000152481
0.0139937
0.0145579
0.000150572
0.00014985
0.000142174
0.000184028
0.003576
0.000145036
0.000150485
0.000151204
0.000143481
0.0001585
0.000163992
0.000144781
0.000180985
0.000139979
0.000149023
0.000155082
0.0286162
0.000136808
0.000155618
0.000146225
0.000168639
0.000185624
0.000188692
0.000186807
0.000232516
0.000154446
0.000185634
0.0444045
0.0239345
0.0313501
0.000142877
0.000148006
0.000162456
0.000145642
0.0331586
0.000138495
0.00658303
0.000160421
0.0388262
0.000210241
0.000155816
0.00941285
0.000140296
0.000182974
0.000151089
0.000152261
0.0406843
0.000139963
0.000217689
0.000143851
0.00015604
0.00014838
0.000202253
0.000158717
0.000136148
0.000195387
0.000181802
0.0105373
0.0159937
0.0467424
0.0296486
0.000136867
0.0179058
0.000139563
0.0236016
0.00462484
0.000155243
0.000156075
0.000146296
0.000170626
0.000155103
0.000140003
0.000151001
0.000166272
0.0116555
0.000143028
0.000182707
0.00014893
0.000136
0.000149218
0.000127713
0.0262727
0.0086898
0.000186735
0.000163699
0.00297675
0.0276797
0.00014015
0.0256182
0.000164432
0.000192028
0.000145651
0.00577849
0.000143196
0.000159854
0.000148446
0.0104995
0.000171824
0.0342747
0.000145126
0.000170763
0.000146101
0.000146841
0.0270452
0.000264414
0.000147023
0.000195833
0.000143481
0.000149302
0.000145218
0.0294609
0.000143041
0.000163383
0.000138455
0.000146547
0.000211367
0.00014482
0.0001949
0.000151092
0.0001398
0.0242541
0.000183328
0.000150236
0.00896184
0.000220757
0.000232085
0.000202539
0.000140101
0.000167891
0.0264436
0.000215624
0.000166275
0.000157691
0.0001614
0.000150669
0.000145404
0.00020991
0.000187206
0.000159131
0.0266214
0.0001722
0.000210773
0.0179178
0.000242214
0.000172152
0.000197622
0.0233201
0.000144273
0.000183533
0.000329783
0.000139887
0.000146089
0.000149256
0.000158262
0.000153652
0.0181978
0.000168318
0.000143054
0.000191559
0.000144287
0.0299725
0.000145486
0.000144512
0.0465531
0.00018425
0.00298143
0.000149368
0.000145293
0.000144161
0.000150986
0.000163095
0.000144226
0.0189625
0.000166884
0.00818887
0.00291953
0.000181606
0.0470343
0.000152249
0.000150558
0.000146442
0.0309659
0.0255842
0.000161174
0.0192358
0.00235469
0.000139798
0.000144076
0.00015755
0.0250094
0.00396997
0.000172206
0.000150849
0.000155655
0.000192662
0.00015699
0.000194547
0.000168601
0.000152155
0.000152418
0.000150074
0.000162969
0.000160754
0.000184466
0.000159255
0.000173297
0.0187779
0.00014177
0.00316772
0.000156999
0.000172311
0.000159995
0.00021826
0.000150759
0.000181563
0.0244451
0.00297958
0.00014589
0.000159241
0.000158666
0.00014436
0.000148184
0.000171995
7.404e-05
0.000189675
0.000195016
0.000139842
0.000120208
0.000158338
0.000159298
0.000196257
0.000151047
0.000182982
0.00034068
0.000136022
0.000184162
0.000191034
0.000168307
0.000143156
0.000140862
0.000145344
0.0151973
0.00015183
0.000146496
0.000172606
0.000144597
0.000142019
0.000194583
0.000166453
0.000183227
0.0311943
0.000183936
0.0315501
0.000148169
0.000158094
0.000809852
0.000155101
0.000206502
0.000149598
0.000145425
0.00014934
0.000160186
0.000190611
0.000143123
0.000341485
0.000150365
0.00606253
0.000157013
0.000160765
0.000141338
0.000188174
0.000163861
0.0323405
0.000187725
0.000151947
0.0280045
0.00015279
0.0244459
0.0001546
0.000242937
0.000155747
0.000142102
0.000145591
0.0416627
0.000162943
0.000234808
0.0350645
0.000144237
0.000168673
0.000131328
0.00017125
0.00158266
0.000131736
0.0254121
0.000155717
0.000241997
0.000193791
0.000270987
0.00013758
0.000145619
0.000196036
0.000140035
0.000149348
0.000154718
0.000147641
0.000172808
0.000137431
0.000241416
0.000152196
0.0171236
0.0241966
0.000301839
0.0319635
0.0350252
0.0152907
0.000383712
0.000139289
0.000148134
0.000147538
0.000152941
0.000142283
0.000163119
0.000143983
0.000212765
0.000149641
0.00415359
0.000151492
0.000164791
0.000194585
0.000143328
0.000177354
0.000152815
0.000153656
0.000160199
0.000143183
0.0485098
0.000188478
0.000251743
0.000143667
0.000145174
0.000150704
0.000150841
0.0276163
0.000139489
0.000252716
0.000142909
0.00328662
0.000162481
0.000144339
0.00018229
0.000182509
0.000139615
0.00297292
0.0227641
0.000157972
0.00018813
0.000139917
0.000228863
0.00014488
0.000150796
0.0231147
0.000147666
0.000151929
0.000191184
0.0216172
0.000146685
0.000596867
0.00430312
0.000147329
0.000154454
0.000148027
0.00965988
0.000144895
0.000196819
0.00014897
0.0444985
0.000163341
0.0223172
0.000145915
0.000138645
0.00161042
0.000157679
0.000141348
0.0429913
0.000154668
0.00014081
0.00367318
0.000147481
0.000148038
0.000186868
0.000155028
0.0339873
0.000175546
0.000185963
0.000200031
0.000155524
0.0434069
0.000153055
0.000185476
0.00014437
0.0279211
0.00346023
0.00014963
0.000145019
0.00014974
0.000150569
0.000144092
0.000141948
0.000143318
0.000145324
0.000164689
0.000136025
0.000154144
0.000186537
0.0263409
0.0327471
0.000189762
0.000150729
0.001903
0.0001433
0.000801645
0.00274147
0.00660317
0.000138729
0.000139385
0.000147022
0.000148943
0.000138455
0.000143358
0.000143701
0.000173017
0.000140878
0.0101071
0.00189811
0.000141528
0.0412173
0.000144505
0.000145513
0.000185315
0.0303776
0.000187582
0.000146641
0.00308374
0.000144895
0.000145483
0.000388933
0.000149232
0.00599972
0.000152229
0.000260907
0.000141415
0.000143119
0.000167215
0.000232773
0.00015417
0.0303317
0.000177936
0.000157623
0.000155047
0.000145268
0.000140625
0.000191029
0.000167526
0.000158792
0.0337183
0.0131786
0.000233295
0.000192178
0.000142957
0.0329083
0.000142879
0.026143
0.000184772
0.000159997
0.000153618
0.0246591
0.0333338
0.0118171
0.000149486
0.00570804
0.000144104
0.000144
0.000168422
0.000151888
0.000148738
0.000148584
0.0212342
0.000143141
0.000160745
0.0261145
0.000143587
0.000137618
0.00894155
0.0322715
0.000152532
0.000140009
0.000160525
0.00014745
0.000145036
0.000171709
0.000161183
0.000147173
0.00719493
0.000150288
0.00301674
0.00188215
0.000173167
0.0283364
0.000149534
0.00015128
0.00023105
0.0213411
0.000720756
0.000153767
0.000168297
0.000150167
0.000152368
0.000146444
0.0323197
0.000177944
0.000152059
0.000179838
0.000144081
0.00293322
0.000187613
0.000196213
0.000181095
0.000568845
0.00445479
0.0269726
0.0395403
0.000160344
0.00069144
0.000137868
0.000183423
0.000188842
0.00150459
0.000157641
0.000152243
0.000159484
0.000207943
0.000155151
0.0301371
0.000170179
0.000191909
0.028356
0.000145085
0.000192002
0.000155864
0.000149288
0.000159638
0.00192857
0.000140023
0.000139352
0.000153725
0.0181942
0.000140876
0.00015479
0.000155005
0.000152994
0.000148132
0.00019392
0.000184341
0.000152045
0.000143256
0.000216391
0.00019628
0.000175183
0.0445925
0.000149815
0.000144758
0.0296793
0.000146525
0.000155371
0.039987
0.0298593
0.000164872
0.000183659
0.000161846
0.0151954
0.000264192
0.000168886
0.0177677
0.000144599
0.000188786
0.0279009
0.000213797
0.00519007
0.000340862
0.000142047
0.00014869
0.000167327
0.000148339
0.000149336
0.000175998
0.000148051
0.000176702
0.000137495
0.000180297
0.0320566
0.000155195
0.0167602
0.0366179
0.000144867
0.000186365
0.000162069
0.000154224
0.000144485
0.0324368
0.000186221
0.0231905
0.000162914
0.0263836
0.000191917
0.000145414
0.000432098
0.000170217
0.000153636
0.000144633
0.000169295
0.000144517
0.000160098
0.000172041
0.00016077
0.000150296
0.000180656
0.0196143
0.000142728
0.000201019
0.000268194
0.000149399
0.00014307
0.000160998
0.0117199
0.0004913
0.000141385
0.00016395
0.000159203
0.000286921
0.0181195
0.000148321
0.000140833
0.000141991
0.000145291
0.000170255
0.000157171
0.0137076
0.000151261
0.000156831
0.00177816
0.000159345
0.00018947
0.0329301
0.026627
0.000149477
0.00014599
0.000140417
0.000153815
0.000184434
0.0480313
0.000277394
0.000195446
0.000166107
0.000178388
0.000154895
0.000168206
0.000159639
0.000194646
0.000143814
0.000225722
0.000178967
0.000140383
0.000149116
0.0362101
0.000179114
0.00112585
0.0261528
0.000197276
0.000144167
0.00131525
0.00016178
0.000142804
0.0286688
0.00776101
0.000143917
0.000164655
0.000193453
0.000170136
0.000151875
0.000137325
0.000143264
0.000141069
0.000144154
0.000165093
0.000182465
0.0232496
0.000170751
0.000159559
0.000165695
0.000191193
0.000142862
0.000170241
0.000103115
0.000220652
0.0258318
0.000154573
0.000137259
0.029292
0.000141759
0.000560206
0.000153886
0.000177613
0.000150688
0.000142172
1.83013e-05
0.000160532
0.000154351
0.000145046
0.0245614
0.000341666
0.0274087
0.000149685
0.000148563
0.000329957
0.000145895
0.000142791
0.000202388
0.00724911
0.000161924
0.000168218
0.000151619
0.0159384
0.000142987
0.000157746
0.000150263
0.000137073
0.000220087
0.000143055
0.000140824
0.000130923
0.000181393
0.0217581
0.000218747
0.000142432
0.000164822
0.000142051
0.000143761
0.000155249
0.000153492
0.000148957
0.000210347
0.000148205
0.000187058
0.000158721
0.000217167
0.000147697
0.000147192
0.000144927
0.0331738
0.000139753
0.000222936
0.000185416
0.000156342
0.00017928
0.000168046
0.000165156
0.000148181
0.000170869
0.000141406
0.000140379
0.00339665
0.000174342
0.000165996
0.000145137
0.000145338
0.000143442
0.000194386
0.000144007
0.034203
0.000177242
0.000143434
0.00014326
0.000139009
0.000177223
0.0014429
0.033075
0.000207674
0.00244023
0.000209138
0.00019293
0.000157421
0.03022
0.000137467
0.000139355
0.000158652
0.000870828
0.000139236
0.0344538
0.000149001
0.000145736
0.00020204
0.000145628
0.0158338
0.00032213
0.000159624
0.000214368
0.00153511
0.000141832
0.0308053
0.000144572
0.000147051
0.012001
0.000138298
0.0358271
0.000156027
0.00014267
0.000145592
0.000141941
0.0460917
0.000149699
0.000137338
0.000187118
0.000142512
0.000141698
0.000146722
0.000142281
0.000175591
0.000148998
0.000156709
0.000138937
0.000389918
0.000213477
0.000139102
0.000139181
0.000152319
0.000143152
0.000155773
0.000150096
0.000144892
0.000149142
0.000144894
0.000153317
0.000147327
0.000187828
0.00013901
0.000188326
0.00014913
0.000182245
0.000141029
0.000148765
0.00014418
0.000139987
0.00017252
0.000162475
0.000157778
0.0235687
0.000178854
0.0448904
0.0330303
0.000188277
0.0337189
0.000148915
0.00014698
7.07335e-05
0.0262853
0.000143688
0.0272545
0.000139782
0.000196171
0.00118664
0.000155605
0.000188781
0.0316711
0.0284588
0.000145601
0.000176572
0.000141744
0.000152392
0.000156628
0.0395913
0.0158047
0.000149545
0.000208131
0.000109346
0.000151496
0.0126468
0.00312732
0.000155169
0.000140829
0.000842484
0.0304054
0.000141839
0.000166084
0.000150834
0.000134077
0.000197256
0.000148583
0.00014138
0.0065147
0.000143336
0.000144895
0.000151096
0.000139527
0.00540807
0.000167331
0.000163146
0.034426
0.00014418
0.000187111
0.000148695
0.000777277
0.000182407
0.000302389
0.0001407
0.000161849
0.000144221
0.000147438
0.000155253
0.000147832
0.0175882
0.000153731
0.000139975
0.000142799
0.00246188
0.000140723
0.0031156
0.0254054
0.00436196
0.000148183
0.000142097
0.000143172
0.000789265
0.000150292
0.0220833
0.000146163
0.00304014
0.000154892
0.000154041
0.000116592
0.000149083
0.000150727
0.0291032
0.000193969
0.0341306
0.000148438
0.0377818
0.0349397
0.000148652
0.0301467
0.000149698
0.000160951
0.0265411
0.000156572
0.000174426
0.0228003
0.000165911
0.000185049
0.000147379
0.012107
0.00014483
0.0018892
0.000143093
0.0211889
0.000145022
0.000145734
0.0001552
0.00638866
0.000142468
0.000175748
0.000188983
0.0257202
0.000143897
0.000165048
0.0424794
0.000225316
0.00581157
0.000188192
0.00014102
0.000193654
0.00153551
0.000157659
0.0047501
0.00013903
0.000197418
0.0167074
0.000142942
0.0183025
0.000143282
0.0343146
0.00372432
0.000156555
0.000155819
0.0015815
0.00487506
0.000144803
0.00015365
0.000139713
0.000148806
0.0282852
0.000185518
2.96037e-05
0.000148777
0.000162468
0.0367533
0.000129773
0.000419414
0.0100234
0.000142133
0.000144226
0.000211403
0.0272542
0.0154787
0.00212569
0.000210891
0.000174361
0.000205938
0.0404574
0.0291491
0.00499423
0.000140833
0.000188534
0.000176696
0.00018808
0.000146829
0.000159176
0.000184326
0.000232508
0.00320597
0.00014745
0.00525479
0.0333727
0.00017546
0.000144503
0.00014462
0.000239126
0.000142532
0.0464479
0.000163384
0.000145935
0.000199672
0.00018294
0.000138993
0.000170724
0.000164287
0.000147108
0.0451735
0.000169118
0.0477594
0.000142823
0.0315765
0.000292311
0.000214269
0.000140082
0.000161242
0.000166508
0.000274713
0.000195831
0.000184923
0.0288983
0.000227011
0.000132234
0.000160021
0.000151041
0.000195412
0.0171449
0.000142259
0.000138785
0.000153713
0.00115519
0.000268429
0.000143261
0.000181681
0.00020294
0.000140763
0.000300709
0.000157313
0.0471185
0.000164094
0.0038969
0.0240809
0.000162903
0.000158625
0.00395748
0.000143035
0.000177439
0.0259468
0.000168462
0.000202028
0.000165144
0.000181351
0.0267478
0.0367458
0.000147158
0.0008555
0.000237073
0.000138316
0.000198193
0.000185081
0.000198187
0.0141523
9.28077e-05
0.0015165
0.00019363
0.027325
0.000161837
0.000183405
0.000138695
0.000149174
0.000147881
0.000141191
9.32426e-05
0.000236198
0.000139984
0.000180971
0.0002051
0.000142839
0.00623308
0.0339259
0.00013737
0.000150013
0.000139341
0.000153587
0.000175134
0.000144817
0.0263857
0.000164095
0.000186603
0.000161356
0.000187426
0.000201845
0.000171462
0.0043975
0.000147177
0.000153991
0.000139619
0.000142318
0.0418322
0.000190801
0.000164392
0.0264733
0.000149234
0.000151669
0.000167594
0.00014008
0.000143307
0.000192945
0.00015902
0.0259212
0.0225237
0.0243074
0.000147411
0.0232449
0.000143894
0.000453536
0.000138817
0.000198721
0.0246908
0.000145534
0.000908401
0.0258701
0.000168164
0.00015315
0.000144593
0.000163146
0.0287629
0.000139288
0.000149612
0.00015323
0.000161975
0.000211772
0.0001562
0.000159639
0.000141928
0.000152244
0.00470803
0.00016921
0.000156904
0.000195425
0.00023526
0.0403692
0.000971285
0.000159639
0.000153356
0.0256646
0.000147237
0.000184495
0.00014802
0.0284215
0.000149361
0.000150536
0.000166374
0.03278
0.000144159
0.000140695
0.000137307
0.000198689
0.011801
0.0001955
0.000144773
0.00015735
0.000140941
0.034056
0.00014259
0.00881075
0.000180903
0.000149239
0.000109223
0.000171597
0.000920575
0.000150455
0.000142682
0.000165941
0.000173936
0.000203082
0.000149219
0.000151143
0.000148826
0.0323789
0.000146719
0.000153106
0.0357704
0.000155009
0.000187175
0.000157493
0.000144084
0.000144827
0.00569771
0.000154485
0.0304448
0.00243921
0.000135867
0.0223799
0.000150638
0.000193146
0.00018037
0.000154379
0.00014035
0.000135562
0.000144732
0.000559658
0.000176743
0.0327826
0.0296611
0.000141637
6.77503e-05
0.000174196
0.00333349
0.000145104
0.00450317
0.0379432
0.0234345
0.000144004
0.000154141
0.000150982
0.000302954
0.0413107
0.000145591
0.000145445
0.000165147
0.0257693
0.000148761
0.000154307
0.000155022
0.000195518
0.00135664
0.000137551
0.0326111
0.000167137
0.000144379
0.0235849
0.000180889
0.0237236
0.000394762
0.000168159
0.000161613
0.00015407
0.000162041
0.000151947
0.000190656
0.000180418
0.000144936
0.000157116
0.000172622
0.0228956
0.000139119
0.000195342
0.0235222
0.00767462
0.000145743
0.000147728
0.00344803
0.0142302
0.000214899
0.000144647
0.0251125
0.000183599
0.000136953
0.022915
0.000162467
0.000149843
0.00020446
0.000147636
0.000180292
0.000141735
0.000134009
0.000148594
0.000137284
0.0323597
0.000139685
0.000142585
0.000187875
0.000157544
0.000158615
0.000198155
0.00014833
0.000144852
0.000154399
0.000152977
0.00269236
0.00269432
0.000607488
0.000408369
0.000175476
0.00178219
0.000184722
0.0338935
0.024918
0.0323165
0.000141227
0.000166273
0.000145301
0.000148688
0.00014282
0.000150739
0.000208931
0.000181453
0.000173326
0.000142604
0.000144254
0.000179822
0.000149602
0.000150925
0.000148455
0.0361568
0.000167025
0.0138183
0.000147172
0.00323588
0.00015144
0.000150125
0.000151873
0.000174039
0.000142638
0.000189775
0.0309838
0.000176407
0.028168
0.00585369
0.000155084
0.000162358
0.00309863
0.000195006
0.000140992
0.000142428
0.000135878
0.0295215
0.000134012
0.000212506
0.000198133
0.00018826
0.0265475
0.0127573
0.000184035
0.0462369
0.000142229
0.000137139
0.00158458
0.0178287
0.000146459
0.000147344
0.000331116
0.000140934
0.000208463
0.000156648
0.00014224
0.000159761
0.000146815
0.000186757
0.030075
0.0272674
0.000157771
0.000146162
0.000194465
0.000153221
0.000190075
0.000141001
0.000199405
0.000190443
0.000150883
0.000149488
0.00013647
0.000201217
0.000193047
0.000213263
0.00675035
0.000165405
0.0202666
0.000186699
0.000194405
0.0318775
0.000144096
0.030687
0.00015245
0.0358489
9.02862e-05
0.0298244
0.0308482
0.000151337
0.000181746
0.0018473
0.000147758
0.0225638
0.000147979
0.000147054
0.000159259
0.000151246
0.000164984
9.04748e-05
0.00570674
0.0266581
0.000159829
0.000175279
0.000153437
0.000149865
0.000148398
0.000197567
0.000189939
0.025547
0.000178034
0.000140354
0.000139773
0.000151417
0.000221472
0.000157696
0.000152567
0.000158845
0.000201843
0.000165788
0.000174408
0.000179549
0.032302
0.000164901
0.000167058
0.000145113
0.000159337
0.00109398
0.00356455
0.000179811
0.000140077
0.0255062
0.000167902
0.000144242
0.000178503
0.0338309
0.00448187
0.000169068
0.000141052
0.0293924
0.000151191
0.000140834
0.000140742
0.0133867
0.00576403
0.000155016
0.0155025
0.0259827
0.000169341
0.00017955
0.000184193
0.0476044
0.000166418
0.0405311
0.000151359
0.00153566
0.0001649
0.0412258
0.000168089
0.000141586
0.0374804
0.000146734
0.000152688
0.0363117
0.0202401
0.000211301
0.00138887
0.000156579
0.000153256
0.0115618
0.000144222
0.000142657
0.000147045
0.000177144
0.000144917
0.000168871
0.000169049
0.00476314
0.00624237
0.000151487
0.0230789
0.000167942
0.0348901
0.0286508
0.000146916
0.00014937
0.000158534
0.000207538
0.000208843
0.00018544
0.0330516
0.0314114
0.000336584
0.000151354
0.0161696
0.0237395
0.000187815
0.00318827
0.000149141
0.000146835
0.000146944
0.000153387
0.00014344
0.000167339
0.0277894
0.000170178
0.00308535
0.0212788
0.0156398
0.0244097
0.0408218
0.000165971
0.0435389
0.000193346
0.000186919
0.000138642
0.000148149
0.000185218
0.0249185
0.000152851
0.030851
0.0391396
0.00014183
0.00014795
0.000147405
0.000196164
0.000151637
0.000187083
0.0305372
0.000138887
0.000143946
0.000141453
0.000152113
0.000192571
0.0298415
0.000170943
0.0197733
0.000195146
0.000142959
0.00259229
0.00020096
0.000150654
0.000673983
0.00421014
0.025662
0.0068552
0.0267372
0.000147236
0.0120857
0.0315501
0.000203846
0.0207713
0.000142711
0.000155516
0.000156685
0.000154617
0.0290854
0.000185409
0.00014923
0.000162034
0.00370887
0.0315002
0.00015095
0.000148265
0.0461626
0.0402503
0.000148984
0.000163363
0.000193757
0.000143697
0.000144294
0.0237128
0.000142796
0.000189817
0.00280684
0.0314424
0.000142406
0.000193232
0.00019838
0.000143848
0.000138105
0.0261667
0.0169696
0.00015036
0.000172003
0.000204448
0.000218526
0.0436292
0.0116034
0.000159914
0.00237954
0.00342558
0.000170082
0.000141923
0.000199589
0.000136916
0.000139409
0.0256316
0.000173429
0.000192004
0.000156998
0.000162322
0.000142545
0.000138026
0.000151295
0.000152155
0.0224129
0.000156542
0.00439968
0.0191946
0.00017747
0.00018643
0.0290627
0.0390296
0.0242196
0.00014426
0.000157763
0.000170637
0.000159492
0.000207179
0.00262264
0.000151154
0.00447314
0.0307648
0.000161411
0.000191182
0.000187412
0.000193031
0.000194879
0.000153417
0.000197125
0.000199028
0.000201155
0.000204348
0.000195534
0.000189149
0.000160548
0.000141892
0.000167608
0.00019099
0.00014269
0.000329407
0.0452725
0.000197318
0.0363461
0.000137526
0.000140152
0.00173125
0.023211
0.000151849
0.000157085
0.00018282
0.0255401
0.000284872
0.000147905
0.000167821
0.000158696
0.0106063
0.00370805
0.000156096
0.000617679
0.0315258
0.000192991
0.0401353
0.000191996
0.0047543
0.0445008
0.000131179
0.0435204
0.0347886
0.000153229
0.000187337
0.00019392
0.000160941
0.00014172
0.000189201
0.00550933
0.000142068
0.000142348
0.0263571
0.00125635
0.000189973
0.000149867
0.000171649
0.000195937
0.0388426
0.028318
0.000147611
0.00014402
0.000151655
0.000157142
0.0384056
0.000352402
0.0342242
0.000189526
6.78565e-05
0.00418201
0.000157165
0.000141692
0.0314337
0.000142308
0.0418338
0.000141976
0.0407296
0.000152761
0.000152984
0.000485766
0.00014632
0.000195203
0.00285676
0.000167001
0.000156503
0.000153184
0.000207452
0.026333
0.00020455
0.0368011
0.000164661
0.000153925
0.000161964
0.000189142
0.0468842
0.0262669
0.000194232
0.00022015
0.000197328
0.0165426
0.000140843
0.000142042
0.000139058
0.000138656
6.99803e-05
0.000191131
0.00310768
0.00017616
0.000200813
0.000143807
0.00327099
0.00119085
0.00925686
0.000144653
0.000153747
0.000134284
0.03388
0.000162271
0.0106116
7.28253e-05
0.000196654
9.60537e-05
0.000136174
0.000170905
0.000203179
0.000125867
0.000904638
0.000146376
0.000198646
0.000151355
0.000148791
0.000203014
0.000234148
0.00505767
0.000150245
0.000192235
0.000181653
0.0237975
0.0199192
0.0367203
0.0328218
0.000143252
0.000183864
0.000148304
0.000199598
0.000144368
0.000196175
0.000155372
0.000179042
0.00240518
0.00154593
0.000159775
0.000210332
0.0349171
0.000195568
0.000156391
0.0371252
0.000193838
0.000151476
0.000150669
0.0302582
0.000163855
0.000197935
0.000290714
0.00447223
0.021181
0.000155803
0.0285693
0.0307103
0.000450123
0.000179186
0.0001666
0.000194444
0.000192319
0.0344769
0.000209803
0.000151369
0.00333803
0.000195477
0.000430164
0.000162966
0.0262661
0.000825158
0.00609079
0.000159322
0.0108113
0.000157268
0.0272202
0.000202891
0.00818998
0.0162948
0.000140775
0.000134296
0.0302146
0.042401
0.000178211
0.000151045
0.000177227
0.000168846
0.0260474
0.0001988
0.0346242
0.000160506
0.0342477
0.000197314
0.000980161
0.000151172
8.0851e-05
0.0265015
0.000162179
0.000189345
0.000136923
0.000156977
0.000148149
0.00232255
0.000144022
0.000147586
0.0437502
0.0154481
0.000138506
0.0448825
0.000152268
0.000148111
0.000144103
0.000142181
0.000149257
0.000950793
0.0440597
0.000139216
0.00590953
0.000185333
0.000177339
0.0049805
0.000190106
0.000159666
0.000165916
0.000143154
0.00214939
0.000167073
0.0457594
0.000170538
0.0242604
0.00228238
0.000186993
0.00855566
0.0337601
0.0001396
0.0249441
0.000182324
0.000184932
0.000178091
0.000144611
0.000192828
0.000210069
0.000147581
0.000186384
0.000144038
0.0330989
0.000200771
0.0259183
0.000206599
0.000205449
0.0429598
0.000148607
0.000144353
0.000183606
0.00015434
0.000149298
0.000149502
0.000162386
0.000143459
0.000142784
0.000153543
0.000177363
0.000155118
0.000162537
0.000156764
0.000177918
0.000192581
0.000155952
0.0356213
0.000155231
0.00014369
0.000191867
0.000173822
0.000158051
0.000143457
0.00339752
0.000154391
0.0300165
0.000154972
0.000194674
0.00014369
0.000147329
0.000211767
0.0459868
0.000186335
0.000170643
0.000136107
0.0392106
0.000148409
0.000142538
0.00018806
0.00015611
0.00019741
0.0350306
0.000192615
0.000277058
0.000176757
0.0212162
0.000148136
0.000148699
0.000186095
0.00261598
0.000182616
0.000192953
0.0276407
0.000162807
0.000148122
0.00016237
0.000188066
0.000181056
0.000147829
0.000193748
0.000192101
0.000184944
0.000149109
0.000147782
0.000191226
0.000184847
0.00813779
0.00196466
0.000156902
0.000186614
0.000149064
0.000175291
0.0143647
0.000149662
0.000203436
0.000153662
0.00019032
0.00195189
0.000147018
0.00014708
0.000142926
0.0427344
0.000218992
0.00015597
0.000209659
0.000195634
0.000148845
0.000147544
0.000185051
0.0440046
0.00019522
0.0335595
0.000212213
0.000164659
0.000446195
0.000197639
0.000164639
0.00939536
0.00019049
0.0111659
0.000147465
0.000192054
0.000199715
0.000152678
0.00940938
0.000174951