/*--------------------------------*- C++ -*----------------------------------*\
| =========                 |                                                 |
| \\      /  F ield         | OpenFOAM: The Open Source CFD Toolbox           |
|  \\    /   O peration     | Version:  v2012                                 |
|   \\  /    A nd           | Website:  www.openfoam.com                      |
|    \\/     M anipulation  |                                                 |
\*---------------------------------------------------------------------------*/
FoamFile
{
    version     2.0;
    format      ascii;
    class       volVectorField;
    location    "250";
    object      U;
}
// * * * * * * * * * * * * * * * * * * * * * * * * * * * * * * * * * * * * * //

dimensions      [0 1 -1 0 0 0 0];


internalField   nonuniform List<vector> 
13917
(
(0.492969 0.00953123 -4.50942e-20)
(1.02641 0.00335259 3.13422e-21)
(1.08285 0.0668392 3.66995e-20)
(1.03649 0.0112097 0)
(1.0136 -0.000516832 0)
(1.02812 0.00501064 -3.0099e-21)
(1.05081 0.023381 -9.98091e-21)
(0.987524 -0.02386 0)
(1.05987 0.0141363 0)
(0.0288338 -0.107555 -3.29221e-22)
(0.992995 -0.0200387 -2.38006e-22)
(1.02788 0.0100591 4.8581e-21)
(1.01017 8.89874e-05 3.96213e-21)
(0.702475 0.0622626 2.00273e-20)
(1.02465 0.0146796 5.50154e-22)
(0.470139 0.00418065 6.08251e-20)
(1.00239 3.17333e-05 -3.795e-22)
(0.993541 -0.00567301 4.64339e-21)
(1.06618 0.0603925 -6.61488e-21)
(0.508945 0.0264211 0)
(1.02035 0.0292838 0)
(1.0171 0.00712249 -3.00902e-22)
(1.0589 0.0389585 0)
(1.01698 0.00693912 0)
(1.035 0.0180948 0)
(1.01621 0.0275665 -1.25733e-23)
(0.988025 0.0920546 -8.73277e-21)
(0.0131317 -0.073647 0)
(1.00322 0.017557 2.69242e-21)
(1.0099 -0.000489899 -4.58797e-26)
(0.035818 -0.0782281 -5.02848e-20)
(1.07254 0.044327 0)
(1.03287 0.013352 0)
(0.540237 0.024297 4.50947e-21)
(1.01563 0.00235836 -8.02101e-23)
(0.988396 -0.0370789 0)
(1.02507 0.0173914 8.74414e-22)
(1.00439 0.000145218 -9.7046e-22)
(1.05174 0.0234228 0)
(1.03235 0.0391038 -5.84696e-21)
(1.00071 -3.3076e-05 0)
(1.01698 0.00241484 -3.60289e-22)
(1.055 0.0104082 1.10252e-20)
(1.0732 0.05638 0)
(1.07196 0.0563432 0)
(1.02369 0.0332837 -2.22371e-21)
(1.02165 0.0283997 0)
(0.397443 0.207971 0)
(0.818436 -0.132776 0)
(1.01555 0.00233642 9.86255e-23)
(1.02741 0.00978119 -6.59716e-21)
(1.03958 0.0484133 7.15342e-21)
(0.36297 -0.00146951 2.38468e-20)
(1.02196 0.00982231 -2.80541e-21)
(1.02308 0.010513 -1.62905e-21)
(1.04037 0.0500553 -5.25694e-21)
(-0.0305423 -0.0266852 4.4799e-20)
(1.058 0.0387206 1.48043e-20)
(1.01636 0.00249761 -3.31837e-22)
(1.02539 0.0290542 3.23218e-22)
(0.316059 0.0622915 -3.04875e-21)
(1.03093 -0.000820876 -3.29332e-22)
(1.00211 -5.0628e-05 0)
(1.03481 0.0175187 -1.03245e-20)
(0.866358 0.078441 0)
(1.00245 0.00276979 0)
(0.9997 0.0119697 -1.99789e-21)
(0.997604 -0.0421781 7.12983e-21)
(0.988073 -0.0094668 6.12458e-21)
(0.436093 0.00535431 0)
(0.992504 0.080055 1.52665e-20)
(0.52113 0.0204294 5.70772e-21)
(1.03312 0.00404917 0)
(1.01571 0.00231442 9.95683e-22)
(1.02053 0.0309583 -8.90036e-22)
(1.03163 0.0196252 -2.64101e-21)
(1.01601 0.00622295 -1.67234e-21)
(1.01517 0.00232978 -3.19615e-22)
(1.03161 0.019061 2.31322e-21)
(1.03323 0.0137151 0)
(1.02076 0.0110048 0)
(1.00273 6.32434e-05 0)
(1.03266 0.00364844 -5.7274e-21)
(0.990576 0.0660154 4.32093e-21)
(1.01567 0.00186201 3.11249e-21)
(0.945266 0.0331325 0)
(1.072 0.0435982 0)
(1.01516 0.000998834 0)
(1.03122 0.0382106 4.57575e-21)
(1.00295 5.93409e-05 4.54164e-22)
(1.00468 0.00016953 2.27366e-22)
(1.0561 0.0105967 -8.51424e-23)
(0.816308 -0.132329 3.20681e-21)
(1.01405 0.00234803 5.30689e-22)
(1.02316 0.0123805 2.01517e-21)
(0.999573 0.0169199 -3.44527e-21)
(1.04532 0.12999 3.71253e-21)
(1.00385 0.000105067 -4.00978e-27)
(1.01556 0.00110024 0)
(1.03787 0.0824184 2.28135e-21)
(1.00141 -1.28109e-05 0)
(1.00171 -2.76764e-05 8.97732e-23)
(1.02104 0.0113103 0)
(1.00652 0.000352395 -4.22329e-23)
(1.01632 0.00572044 8.24835e-22)
(0.973074 0.0488739 3.24812e-20)
(0.587931 0.0870799 7.55434e-21)
(1.03211 0.00187518 1.68211e-21)
(1.01775 0.00263101 7.39175e-22)
(0.923189 0.0859848 -1.00439e-20)
(1.01962 -3.10637e-05 3.22734e-21)
(0.555804 0.0281296 -3.25801e-20)
(1.00371 0.0216825 -5.05887e-21)
(0.301819 0.210246 0)
(0.88183 0.0775537 -2.66803e-21)
(1.03025 0.0205399 0)
(1.06603 0.0588654 5.81522e-21)
(1.00352 0.000108991 -3.98099e-22)
(1.07877 0.0659534 -1.08153e-20)
(1.03125 0.000940411 -3.80788e-21)
(1.00344 9.85522e-05 8.66341e-23)
(1.01411 0.0019563 0)
(0.995667 0.0105091 2.08943e-21)
(1.0534 0.0549739 -2.26694e-20)
(0.396746 0.0026274 2.30531e-20)
(0.952007 0.0668233 -6.77907e-21)
(1.03513 0.0166597 3.82473e-21)
(1.01929 0.0321074 5.16247e-22)
(1.01388 0.00340075 8.70235e-23)
(1.05455 0.0558886 3.79199e-20)
(1.06476 0.0267139 0)
(1.06412 0.0317773 1.94068e-21)
(0.669863 0.036856 0)
(1.02967 0.0203812 -3.83153e-21)
(1.0734 0.0480392 0)
(0.900062 0.0936006 1.99595e-20)
(0.294469 0.0152298 1.03571e-21)
(0.35511 0.003331 0)
(1.01317 0.02655 0)
(1.00249 7.7746e-05 7.28024e-22)
(0.813889 0.0979567 -2.09781e-21)
(1.01465 0.00216992 -3.12137e-22)
(0.989682 0.0479876 -3.07994e-20)
(1.01532 0.00522863 -4.09278e-23)
(1.031 0.00410265 1.01095e-21)
(1.02162 0.00600939 3.31067e-22)
(0.997639 0.0796949 5.20731e-22)
(0.89479 0.160732 -1.98694e-21)
(0.442953 0.185888 4.84375e-20)
(1.02233 0.010176 1.83374e-21)
(1.03071 0.0357326 4.45593e-21)
(1.0019 -3.34799e-05 0)
(1.03058 0.00364557 0)
(1.03148 0.000595982 -1.04471e-22)
(1.02024 0.132334 -4.60454e-21)
(1.0177 0.0051733 -4.42055e-22)
(1.00683 0.000363253 4.87461e-23)
(0.631038 0.0338425 0)
(1.0017 1.48466e-05 -3.51326e-22)
(1.00298 2.38326e-05 4.39265e-22)
(1.01554 0.00385732 2.58296e-21)
(0.744989 0.113641 -1.15901e-20)
(1.0226 0.0159778 2.15693e-22)
(0.792363 0.102265 1.25093e-21)
(0.495874 0.136654 -6.21462e-21)
(1.04017 0.0957945 -3.16579e-21)
(0.244696 -0.00129934 -2.7823e-20)
(0.342827 0.165761 -1.26581e-20)
(1.00466 -0.000170185 3.06063e-23)
(1.01106 0.0270988 0)
(1.01712 0.00680757 0)
(0.685821 0.0402212 -1.19997e-20)
(1.0601 0.0133172 0)
(0.441213 0.0433505 0)
(1.04646 0.0424898 -6.87025e-21)
(1.00184 6.79512e-06 -1.6784e-22)
(1.03702 0.0108916 -8.01142e-21)
(1.03651 0.0464594 0)
(1.06445 0.0258362 1.99799e-20)
(1.02219 0.0159226 -2.30766e-22)
(1.05354 0.0112065 2.11975e-21)
(1.01701 0.00674091 0)
(1.02707 0.00995614 5.60424e-21)
(1.03262 0.0664599 0)
(1.07818 0.0675006 -1.0459e-20)
(1.06913 0.0340462 0)
(1.02663 0.00970527 -6.96303e-21)
(1.02993 0.064353 -8.81306e-21)
(1.00987 -0.000445441 0)
(0.955247 0.0296633 7.71749e-21)
(1.04638 0.0423114 0)
(1.07141 0.0548555 0)
(1.04245 0.0626558 -4.57094e-22)
(0.504561 0.0138386 -2.46916e-20)
(1.01408 0.00233063 0)
(0.406253 0.00398417 0)
(1.03875 0.0249227 0)
(0.709057 0.0393251 2.44751e-20)
(1.01531 0.00235039 0)
(1.01744 0.00537537 0)
(1.02378 0.0269616 -3.01015e-21)
(0.442831 0.0053143 -5.97016e-21)
(0.343591 0.00243568 -2.94348e-21)
(1.02393 0.0152733 0)
(0.998608 0.0691153 -2.61224e-21)
(1.0152 0.0139207 3.05608e-22)
(1.03162 0.0366278 -5.27525e-21)
(1.01464 0.00203896 0)
(1.0374 0.0486811 0)
(1.02049 0.0108893 4.71454e-22)
(1.01167 0.00251225 0)
(1.01164 -0.00970629 6.93835e-22)
(1.00849 -0.0111614 6.69804e-22)
(0.444058 0.190829 -1.53028e-20)
(1.07339 0.047261 7.1234e-21)
(1.01462 0.0284287 1.35443e-23)
(0.728651 0.087424 2.24958e-20)
(1.01027 0.000615055 0)
(1.00879 0.00112261 6.54623e-23)
(1.00876 0.00110376 4.8664e-22)
(0.322655 0.181395 1.4811e-20)
(1.03844 0.0638605 9.10463e-21)
(1.02228 0.0638617 0)
(1.01989 0.00100596 1.21156e-21)
(1.00173 -5.55165e-05 0)
(0.831222 0.0872852 -1.0845e-20)
(0.397302 0.00304657 -2.16605e-20)
(1.00799 0.00100308 -6.01167e-22)
(1.00772 0.000953583 0)
(1.00065 -4.95757e-05 -3.85754e-22)
(1.00911 0.00114539 -5.89326e-23)
(1.00908 0.00112338 -4.6998e-22)
(0.512304 0.0179947 1.27991e-20)
(0.488163 0.174064 -2.41301e-20)
(1.01861 0.00895395 0)
(1.00574 -0.000238152 0)
(1.04831 0.0464737 -3.95189e-21)
(0.487802 0.0146735 0)
(1.00208 3.39432e-05 3.25365e-23)
(1.01967 0.000987305 2.36496e-21)
(0.975023 0.0754708 8.13298e-23)
(0.981221 0.0477137 1.98544e-20)
(1.03778 0.0654475 -4.06429e-21)
(0.715507 0.0835236 -5.65915e-23)
(1.04465 0.0406475 -5.35045e-21)
(1.01549 0.00531467 0)
(0.396289 0.155395 -1.30276e-21)
(1.04837 0.0474335 0)
(1.00659 0.0216608 2.66151e-21)
(1.06363 0.0501487 -4.34004e-21)
(1.0241 0.0150923 8.09407e-22)
(0.49011 0.175852 6.04525e-22)
(1.03167 0.00172298 -4.80548e-21)
(1.04248 0.0388106 0)
(1.047 0.0422908 0)
(1.01848 0.00898883 6.23018e-22)
(1.00029 -9.06133e-06 0)
(1.03534 0.0172274 8.21581e-21)
(1.02132 -0.000642659 -2.40746e-21)
(1.01577 0.00282938 -7.41684e-22)
(0.431723 0.00891784 1.96256e-20)
(0.61965 -0.143325 -1.11976e-21)
(1.01401 0.00174264 -3.00978e-22)
(1.00754 0.000934391 0)
(1.01777 0.00521046 4.42781e-22)
(1.00761 0.000959761 -5.44012e-22)
(1.03184 0.00140756 -8.579e-21)
(1.01544 0.000189956 -1.81056e-23)
(1.05019 0.0350919 -6.34034e-21)
(1.01449 0.00171273 -3.16122e-22)
(0.36185 0.00566385 2.49133e-21)
(0.598673 0.0944098 0)
(1.02356 0.00788989 0)
(1.01874 0.00227384 5.4342e-22)
(1.02366 0.0187751 0)
(1.00865 0.000974669 0)
(1.03225 0.0737509 6.92137e-21)
(0.4515 0.0124813 1.86219e-20)
(1.00868 0.000975232 5.22862e-22)
(0.455999 0.00844574 -4.88473e-20)
(1.0153 0.00273155 7.16139e-22)
(0.756142 0.113846 5.58593e-21)
(1.00149 -3.80358e-06 0)
(1.02294 0.0143912 -1.10222e-22)
(1.01852 0.00913555 0)
(1.01473 0.00475874 -2.71315e-22)
(1.05799 0.0689858 0)
(1.00624 0.000269456 0)
(1.05113 0.102601 -6.96333e-22)
(1.03689 0.0290961 0)
(0.619748 -0.160783 6.14747e-22)
(1.02299 0.00615214 1.29216e-23)
(1.06897 0.0693058 0)
(0.340305 0.00272339 -2.6228e-21)
(1.00306 6.29003e-05 -3.09149e-23)
(1.05418 0.0420695 0)
(1.01856 -0.00119052 1.57111e-22)
(1.0289 0.0209152 -3.73296e-21)
(1.0153 -0.000497283 7.01051e-22)
(1.0323 0.0189699 -6.02061e-21)
(1.01449 0.00246098 3.11065e-22)
(1.00726 0.000344833 0)
(1.03744 0.0423208 4.30675e-21)
(1.00669 0.023649 0)
(1.04212 0.0383032 0)
(1.03227 0.0184774 3.04687e-21)
(1.01939 0.00106775 0)
(0.656618 0.0361799 0)
(0.43052 0.00354874 -1.13113e-20)
(1.01339 0.00301409 6.69679e-23)
(1.01385 0.00530179 1.13423e-21)
(1.02948 0.0211306 -4.37375e-21)
(0.960503 -0.075378 1.75908e-22)
(1.08276 0.0518252 -2.64076e-21)
(0.607067 0.0748622 0)
(0.492824 0.0438322 0)
(1.00283 -0.00503476 -1.89311e-22)
(1.06045 0.0348265 -1.64861e-21)
(1.01924 0.00263342 0)
(1.01682 0.0681146 1.38887e-20)
(0.927179 -0.0738914 0)
(1.08389 0.0653982 -1.403e-20)
(1.01492 0.000210557 0)
(1.02407 0.0148337 -3.81084e-23)
(1.01027 0.0867748 -6.24659e-22)
(1.01715 0.00639049 -1.04531e-22)
(1.02673 0.00100401 -4.44444e-21)
(1.07022 0.0547188 6.77474e-21)
(1.00211 1.33515e-05 -1.91132e-22)
(0.697434 0.0416714 2.79615e-20)
(1.01556 0.00146766 3.09254e-21)
(1.07508 0.0296804 -4.82614e-21)
(1.01087 0.000961962 -5.16096e-22)
(0.44325 0.0192969 0)
(1.0101 0.00165588 -2.88167e-22)
(1.04246 0.03703 3.34088e-21)
(1.01399 0.0147742 -4.67164e-22)
(1.00501 -0.00672417 8.10457e-23)
(1.00304 9.0035e-05 0)
(1.06566 0.0497795 -1.06756e-20)
(1.01403 0.0515994 -3.51047e-20)
(1.02344 0.0121803 1.42266e-21)
(1.01718 0.00612696 -1.77759e-22)
(0.580023 0.0330803 -1.64089e-20)
(1.0069 0.0509279 3.79692e-20)
(0.751969 0.0903531 0)
(0.714144 0.0373897 -2.06242e-20)
(1.00835 0.000927998 5.99979e-23)
(1.01927 0.00932831 -6.15688e-22)
(0.971324 0.0477658 0)
(1.05761 0.0330629 -6.9353e-21)
(1.00841 0.000937487 -5.64658e-23)
(1.01714 -0.00205026 -5.70474e-22)
(1.02451 0.0101123 -2.70324e-21)
(1.01208 0.0455423 0)
(1.04268 0.0375811 1.30238e-21)
(1.04687 0.0576049 8.36256e-21)
(1.04983 0.0413187 -3.65453e-21)
(1.02837 0.0736747 -3.51987e-21)
(1.07205 0.0309563 0)
(0.539009 0.0255507 -2.03208e-20)
(1.01413 0.00351996 1.24545e-22)
(1.02376 0.0122919 0)
(1.01224 -0.00169964 2.63674e-21)
(1.06675 0.0731611 1.79892e-20)
(1.00176 2.94209e-06 5.94603e-22)
(0.488096 0.00825229 5.99675e-20)
(1.07237 0.0303643 0)
(0.933754 -0.131812 2.8565e-22)
(1.02317 0.0107879 -4.05483e-21)
(1.0538 0.0366609 0)
(1.01512 0.00513956 2.58626e-22)
(0.898225 -0.0743246 0)
(1.01607 0.00323025 0)
(1.02507 0.0667896 4.74283e-21)
(1.02508 0.02447 -1.44046e-21)
(1.01171 0.0141899 -1.69934e-21)
(1.02376 0.00821899 0)
(1.06843 0.0903829 0)
(1.0119 0.000870228 2.67115e-22)
(0.467752 0.132222 7.2891e-21)
(1.04107 0.0644688 -7.17606e-21)
(1.01586 0.00336876 4.07386e-22)
(0.892591 -0.0917734 -1.72745e-21)
(1.01828 0.00944961 1.56717e-22)
(1.04086 -0.0154644 0)
(1.01087 0.00175817 -2.16171e-22)
(0.530177 0.0325637 -1.66025e-21)
(1.04292 -0.0129797 0)
(1.02666 0.0174769 2.85238e-21)
(0.783814 0.0718143 1.04418e-20)
(1.02394 0.066671 -1.55608e-22)
(1.02395 0.014398 8.73311e-23)
(0.625143 0.116625 0)
(1.09055 0.0487474 1.44593e-20)
(1.02738 0.0168417 7.96119e-22)
(1.05636 0.0700306 -8.44335e-22)
(1.01966 0.0093029 -2.3353e-21)
(1.01993 0.0693811 0)
(1.08182 0.0670543 -2.30136e-20)
(1.01568 0.00129713 -3.58959e-21)
(1.0547 0.0200712 0)
(1.03288 0.0183648 9.34686e-23)
(1.01473 0.00474215 5.92704e-22)
(1.01193 0.00220762 6.78316e-22)
(1.01441 0.00373458 1.88865e-22)
(0.215157 0.0133013 -1.12964e-21)
(1.0455 0.0889141 0)
(1.02347 0.0115825 3.86205e-21)
(1.01466 0.00371938 -1.83661e-22)
(1.01673 0.00661667 5.07608e-22)
(1.05061 0.040919 -2.18347e-20)
(1.03354 -0.065336 -3.24703e-22)
(1.00955 0.00103389 -1.22688e-22)
(1.00453 -0.000151907 -2.56749e-23)
(1.08195 0.0518996 -1.03038e-20)
(1.0548 0.038795 0)
(1.01497 0.00498118 -6.47667e-22)
(1.02677 0.0172018 7.62725e-21)
(0.655975 0.0396381 5.75801e-21)
(0.911374 0.156947 -1.69147e-21)
(0.998635 0.0042994 0)
(1.06758 0.0611984 7.2944e-21)
(1.05584 0.0698331 4.88685e-21)
(1.0123 0.00145245 3.16281e-22)
(1.00918 0.00102044 4.79435e-22)
(1.02054 0.0245716 4.40761e-22)
(1.0118 0.00211101 -7.11298e-22)
(1.00957 0.00105579 1.24314e-22)
(1.01868 0.00912485 -3.65315e-22)
(1.00922 0.00104294 9.04551e-24)
(1.01197 0.0013997 -6.47226e-22)
(0.409806 0.17214 -1.6479e-20)
(1.01995 0.00960475 2.40833e-21)
(1.03489 0.0403497 1.0385e-21)
(0.37724 0.00765047 -1.89483e-20)
(1.05336 0.0415305 0)
(1.01191 0.00262249 -7.43873e-25)
(1.02992 0.00370454 0)
(0.651877 0.118357 0)
(1.02266 0.026283 -7.73439e-22)
(0.378693 0.000407457 -1.24371e-20)
(1.0104 0.00100572 -4.96252e-22)
(1.02101 0.00314228 -8.14344e-21)
(1.01223 0.000873893 0)
(1.00943 0.00116957 5.74368e-22)
(1.02497 0.0168265 -9.01513e-22)
(1.01798 0.00931442 -1.5108e-22)
(0.684613 0.0330701 -8.57861e-21)
(1.01318 0.00738863 4.04735e-22)
(0.961122 0.0481114 -2.14105e-20)
(1.02077 0.00319556 7.37404e-21)
(1.06127 0.0310498 8.3605e-21)
(1.0154 0.010099 4.22282e-22)
(1.02021 0.0105427 0)
(1.04423 0.0416725 5.58621e-21)
(0.736915 0.0836885 0)
(1.02445 0.00981292 0)
(0.740797 0.140203 4.35915e-21)
(1.01221 0.00280388 -6.86675e-23)
(1.01085 0.000814046 -5.72494e-22)
(1.01653 0.00637037 -3.45843e-22)
(1.01853 0.00969969 4.63988e-22)
(1.01118 0.0022913 8.3455e-24)
(1.01332 0.000781356 0)
(0.645079 0.0353525 0)
(0.385174 0.05856 0)
(1.01094 0.00218303 0)
(1.05701 0.0619952 -1.05171e-20)
(1.08071 0.0529874 -1.06777e-20)
(1.01889 0.000341356 0)
(1.05287 0.043257 0)
(1.08226 0.0408933 0)
(0.587834 0.128467 -3.8445e-21)
(1.057 0.0210303 0)
(0.975214 0.0483222 -3.60858e-20)
(1.00272 -0.0855516 0)
(1.00601 -0.0784042 -1.24725e-21)
(1.01821 0.00961402 1.00807e-23)
(1.00358 -0.00032776 0)
(1.01616 0.0119341 -2.19131e-22)
(1.02386 0.0146364 0)
(0.945439 0.0879375 0)
(1.00456 0.000159234 -2.39866e-22)
(1.0219 0.00949591 2.96263e-21)
(1.02347 0.01251 -2.54371e-21)
(1.05682 0.017629 -1.04583e-20)
(1.02456 0.0315331 4.18167e-21)
(1.07465 0.0666165 1.13419e-20)
(1.06306 0.0419334 0)
(1.02259 0.00175904 0)
(1.019 0.00117073 5.95362e-22)
(0.991266 0.00223191 -5.44828e-21)
(1.03939 0.0462796 -1.04154e-20)
(1.02318 0.0113993 1.91196e-21)
(0.64137 0.0762382 -9.25688e-21)
(1.05334 0.0342419 -1.7603e-20)
(1.03766 0.0289214 -5.03692e-21)
(0.466132 0.115115 0)
(1.01574 0.00166103 -3.62354e-21)
(1.04015 0.0472045 1.3793e-21)
(1.0339 0.0463875 -5.53774e-21)
(1.01043 0.00145365 -4.44499e-22)
(0.540943 0.0271296 1.79435e-21)
(1.0109 0.000816223 0)
(1.00938 0.00114679 6.22067e-22)
(1.05108 0.0414888 1.47873e-20)
(1.01038 0.001047 5.28414e-22)
(1.01058 0.000651202 1.98543e-21)
(1.03899 0.0412316 -4.13623e-21)
(0.602207 0.033208 -2.76204e-20)
(0.675488 0.0627848 1.53197e-20)
(1.01549 0.00363768 4.81414e-23)
(1.04133 0.0099554 5.90134e-21)
(1.01995 -0.000312334 1.44407e-21)
(0.961988 0.0727266 1.35714e-21)
(0.922816 -0.00346579 1.59271e-21)
(1.0227 0.0107962 3.5212e-21)
(1.02266 0.010211 6.70196e-22)
(1.01511 0.00327724 7.94424e-22)
(1.04752 0.0419763 -1.42098e-21)
(0.908747 -0.150798 2.09106e-21)
(1.01417 0.00328555 -8.82999e-23)
(1.00221 1.67354e-05 -2.53646e-22)
(1.01733 0.00528274 0)
(1.01458 0.00456069 0)
(1.01349 0.00524616 0)
(1.04423 0.028556 0)
(1.00402 0.000140458 0)
(1.06233 0.0424762 9.24718e-21)
(1.01036 0.001376 -4.09205e-22)
(1.01707 0.00704161 0)
(1.03289 0.0179136 -3.45268e-21)
(0.597929 0.0561116 -3.27281e-20)
(1.00643 0.000475441 -1.09031e-22)
(1.04796 0.0147827 0)
(1.01582 0.00275706 0)
(1.06082 0.0302941 2.466e-21)
(1.05344 0.0469133 -1.03687e-20)
(1.00018 0.0390962 0)
(1.04684 0.0425528 6.27965e-21)
(1.04475 0.0839877 0)
(1.03108 0.0169262 4.77836e-21)
(0.996496 0.00432484 -1.42577e-23)
(0.736407 0.0413679 -6.22581e-21)
(0.440367 0.171506 0)
(0.398038 0.0107973 0)
(1.01295 0.00264595 1.48281e-22)
(1.01624 0.0059681 3.04569e-22)
(1.02401 0.00158431 0)
(1.02308 0.00576479 0)
(0.870179 0.0740488 -1.03571e-20)
(1.009 0.00103365 0)
(0.830589 -0.16408 -4.76528e-22)
(1.03941 0.0247074 -1.07208e-20)
(0.824951 0.0500018 0)
(1.03661 0.0775622 -4.38063e-21)
(1.05453 0.011299 -2.51107e-21)
(0.121624 -0.044441 2.00718e-20)
(1.01092 0.00214392 0)
(1.07893 0.0393779 0)
(1.00468 0.000146255 0)
(1.01608 0.00354477 -4.1333e-22)
(0.788665 0.0475596 0)
(1.00996 0.00103225 -6.10944e-22)
(1.08863 0.0577152 3.33116e-20)
(1.00154 -4.39283e-05 2.44471e-22)
(1.01769 0.000154151 0)
(1.01645 0.00619615 -1.6463e-22)
(1.07445 0.0655561 -1.04383e-20)
(1.01272 0.0043545 -7.34271e-24)
(1.00695 0.000812878 -3.04008e-22)
(1.07513 0.0552155 0)
(1.05235 0.0426032 0)
(0.91596 0.137322 1.06285e-20)
(1.03493 0.0783918 1.82022e-20)
(0.674594 0.0366139 -1.20939e-20)
(0.558812 0.132912 -6.6328e-21)
(1.00644 0.000457961 0)
(0.415263 0.002301 1.99755e-20)
(1.00279 -5.15906e-05 -1.68626e-22)
(0.329965 0.0301311 0)
(0.910846 0.147119 -6.12997e-22)
(1.01594 0.00387551 -1.42558e-21)
(1.01798 0.00510024 -8.02345e-22)
(1.0016 -1.13174e-05 -7.92289e-23)
(1.05294 0.0338574 1.66716e-20)
(1.05304 0.0102469 0)
(1.00997 0.00106502 1.2507e-22)
(1.00467 0.000161982 0)
(1.01392 0.000332918 4.32341e-21)
(1.06412 0.0788955 0)
(1.01654 0.00425419 -1.06837e-21)
(1.07231 0.0419005 -2.29217e-20)
(1.02152 0.00921168 -1.46309e-21)
(1.00678 0.000767858 -1.45208e-22)
(1.00213 3.48778e-05 1.96728e-22)
(1.02345 0.0367726 4.98071e-22)
(0.87962 0.106436 -6.67604e-21)
(0.252468 -0.00255984 -6.11282e-20)
(1.06323 0.0490515 -4.21198e-21)
(1.04478 0.0281493 0)
(1.05929 0.0907292 0)
(0.492153 0.0158805 0)
(1.01118 0.0018209 4.745e-22)
(0.856866 0.0871283 2.39235e-21)
(1.01335 0.000116673 -5.16439e-22)
(1.08439 0.0451987 -4.61347e-21)
(1.02286 0.005907 -2.41743e-21)
(1.07551 0.0880982 0)
(1.01431 0.00435987 -3.60901e-22)
(1.01381 0.00690853 0)
(1.03162 0.00411709 0)
(0.92939 0.175426 -9.42952e-21)
(1.0515 0.0349975 8.45999e-22)
(0.824199 0.081712 0)
(1.00431 0.000152239 0)
(1.05017 0.0341445 6.89491e-21)
(1.01502 0.00270125 -6.79573e-22)
(1.00117 -4.02638e-05 -1.52673e-22)
(0.553643 0.0305227 0)
(1.02581 0.0999587 2.14497e-21)
(1.01572 0.00245769 4.63043e-22)
(1.04566 0.0592444 -1.77609e-21)
(1.01958 0.00112732 0)
(1.0156 0.00240096 1.10005e-23)
(1.00148 -3.6405e-05 0)
(0.572627 0.035551 1.9675e-20)
(1.01669 0.00420127 9.53605e-22)
(1.02051 -0.00177662 2.4404e-21)
(1.00895 0.00102804 -3.18081e-22)
(1.01543 0.00252764 -4.38411e-22)
(1.06466 0.0727979 9.53658e-21)
(1.00174 -2.62089e-05 0)
(1.05119 0.0598868 0)
(1.00289 6.47542e-05 -6.30862e-22)
(1.01026 0.00166078 4.4666e-22)
(0.281798 0.0488484 0)
(1.07275 0.0425046 0)
(1.02238 0.0104399 -2.07347e-21)
(0.294426 -0.00111335 1.67617e-21)
(1.08812 0.0570871 -3.55557e-20)
(1.06873 -0.0359469 -9.56205e-22)
(1.033 0.0441494 7.30536e-21)
(1.01069 0.00203741 -2.16288e-24)
(1.02545 0.0149187 -1.42913e-22)
(0.580649 0.0513948 -5.48182e-21)
(1.09076 0.0514453 -2.87081e-20)
(1.02165 0.0241117 -1.35554e-21)
(1.02545 0.0176915 0)
(1.01363 0.00777813 1.05731e-21)
(1.00352 9.73938e-05 2.07511e-22)
(1.0145 0.00396622 0)
(0.999162 -0.00506054 7.71705e-22)
(1.05199 0.0479107 0)
(1.03548 0.0231561 -1.12537e-20)
(0.412968 0.11972 0)
(1.05217 0.0354153 0)
(1.01285 -0.0792837 4.6571e-22)
(0.887125 -0.00403848 0)
(1.01135 0.0258761 -9.01933e-22)
(1.04426 0.0355995 -1.01496e-20)
(1.04499 0.0632207 8.39337e-21)
(0.470228 0.0109968 2.43851e-20)
(1.01449 0.00242921 0)
(1.02343 0.0181837 -1.03363e-21)
(0.996715 -0.0102557 -2.56047e-22)
(1.01034 0.00166163 5.25413e-22)
(1.00464 0.00019102 3.51603e-22)
(1.0021 2.25823e-05 -1.73237e-22)
(1.02109 -0.0010267 1.03396e-21)
(1.01156 0.000688799 9.38149e-22)
(0.421172 0.00277111 -7.46873e-21)
(1.07022 0.0259684 -1.96826e-20)
(1.00783 0.000458838 8.93821e-23)
(1.06978 0.0534275 -2.10665e-20)
(1.0046 0.000172056 0)
(0.624938 0.0800446 1.53432e-20)
(1.01525 0.00274993 7.06002e-22)
(1.01388 0.00332576 -1.03342e-22)
(0.569909 0.0302595 0)
(1.05473 0.0457389 -1.2571e-20)
(0.937127 -0.149161 -4.90551e-21)
(1.03346 0.00592058 1.18853e-20)
(1.01373 0.00151094 5.4558e-22)
(1.01373 0.00287179 0)
(1.03846 0.00812311 0)
(1.05244 0.0262488 2.0277e-20)
(1.01443 0.00448468 7.00686e-22)
(0.368597 0.00284763 2.71304e-20)
(1.03734 0.0315607 0)
(0.8537 -0.0432449 -2.6893e-21)
(0.954622 -0.132334 4.61542e-21)
(1.02139 0.0181387 0)
(0.675845 0.037222 1.45495e-20)
(1.04106 0.0104306 -1.19569e-20)
(1.00572 0.000229579 -4.931e-23)
(1.01526 0.00265384 3.84069e-22)
(0.466973 0.0148939 -1.83759e-20)
(0.713999 0.0608545 -1.23269e-20)
(1.03873 0.0256369 -5.98294e-21)
(0.385536 0.00197701 -1.08807e-20)
(0.863053 -0.201492 1.17389e-21)
(1.01029 0.00177181 -2.62894e-22)
(1.01364 0.00312951 -6.29605e-23)
(1.02452 0.016501 9.02788e-22)
(0.988578 0.0509731 3.9629e-20)
(0.969971 -0.123091 1.21649e-21)
(1.05089 0.0355037 1.81065e-21)
(1.0378 0.00804667 -2.24261e-21)
(1.04762 0.0152694 4.54743e-21)
(1.08505 0.0452772 -3.50595e-22)
(1.01882 0.00340854 0)
(1.04878 0.0581158 0)
(1.06967 0.0267006 3.33827e-20)
(1.02286 0.0119704 -1.40239e-21)
(1.03301 0.0139393 2.29149e-21)
(1.00564 0.000223802 4.80198e-24)
(1.05177 0.0259717 -1.93449e-20)
(1.02042 0.000800802 -4.89551e-23)
(1.09026 0.0487342 0)
(1.02796 0.0212522 1.63685e-21)
(1.01564 -0.00073079 0)
(0.374107 0.00228653 -5.74464e-21)
(1.0118 -2.44933e-05 -1.07445e-22)
(0.85387 -0.191869 0)
(1.02574 0.0173688 0)
(1.02394 0.00907794 0)
(1.04202 0.02403 0)
(1.09038 0.0515804 0)
(1.00339 8.72192e-05 -8.53505e-23)
(1.07907 0.037856 1.3635e-20)
(0.91342 0.101819 1.59111e-20)
(0.903024 -0.020318 2.44214e-22)
(1.02381 0.00572611 4.69129e-21)
(1.02859 0.021509 4.01071e-21)
(1.00973 0.000366515 -1.90789e-21)
(1.02113 0.0045245 0)
(1.03143 0.00314453 -1.02918e-21)
(1.01233 0.0194086 0)
(1.01341 0.00928623 0)
(1.02872 0.036931 4.84387e-21)
(1.04965 0.0599127 0)
(1.01043 0.00189333 0)
(1.08759 0.0490379 -1.5872e-23)
(1.05904 0.014354 0)
(1.05657 0.0181479 1.29281e-22)
(1.04652 0.0612524 0)
(1.01934 0.00956483 1.0822e-21)
(1.07817 0.039662 -3.01484e-20)
(1.05713 0.119177 -4.14077e-21)
(1.0064 0.000629636 0)
(1.0556 0.0457136 1.26551e-20)
(1.04638 0.0415561 0)
(1.06857 0.0266699 0)
(1.01326 0.00340006 3.92247e-23)
(1.01144 0.00244465 -8.20289e-23)
(1.01441 0.00391708 0)
(0.426652 0.00410453 1.44556e-20)
(1.03216 0.0130933 2.40934e-21)
(1.01556 0.00291756 3.60359e-22)
(1.07393 0.0296289 4.192e-21)
(1.01467 0.00468036 -4.89838e-22)
(1.01239 0.00280916 3.13617e-23)
(1.04183 0.0499094 1.01048e-20)
(1.04648 0.112095 -4.45207e-21)
(1.00229 0.02002 0)
(0.874098 0.151514 0)
(1.01355 0.0430733 -8.79372e-24)
(0.964445 0.0474293 -2.14306e-20)
(1.0318 0.00278339 1.40586e-21)
(1.01549 0.00610713 2.30842e-21)
(1.06679 0.0877077 0)
(1.01561 0.00330732 1.41513e-21)
(1.04239 -0.000322103 3.79392e-22)
(1.00291 7.69519e-05 2.21032e-22)
(1.00471 0.000162544 0)
(1.03231 0.00673719 0)
(1.02693 0.0214792 0)
(0.999718 0.0430121 -6.51463e-22)
(1.01314 0.00334174 -8.45934e-23)
(1.00364 0.0186638 0)
(1.0172 0.0049098 0)
(0.928916 0.154848 2.5236e-21)
(1.02618 0.0176586 -5.47987e-21)
(1.05743 0.0203594 -1.67529e-20)
(1.01081 0.00100866 0)
(1.06281 0.0507113 1.95551e-20)
(1.02348 0.0144403 -1.91167e-22)
(0.737363 0.11395 1.26965e-20)
(1.00167 0.0235998 -7.21047e-22)
(1.00203 6.26523e-05 0)
(0.601631 0.0662757 0)
(1.0326 0.014588 0)
(0.426765 0.00765184 -1.96326e-20)
(1.05284 0.0088132 0)
(0.991514 0.0360328 1.41977e-21)
(1.01798 0.00441941 0)
(1.01251 0.00233476 -1.72616e-22)
(1.02352 0.005393 -2.31933e-21)
(0.711685 0.0437328 3.42465e-20)
(1.05045 0.0262954 0)
(1.06262 -0.0491576 -1.64106e-21)
(0.877304 0.163492 1.8255e-21)
(1.02087 0.00438285 0)
(1.06825 0.027414 -4.08265e-21)
(1.0056 -0.000242108 -1.10701e-23)
(1.02672 0.00410776 -1.03854e-21)
(0.944956 -0.161337 -4.52381e-21)
(1.00597 -0.000253969 0)
(0.426498 0.159117 1.62983e-20)
(1.04931 0.0143748 0)
(0.99322 0.0416924 -1.65479e-21)
(1.06464 0.0581224 1.59228e-21)
(1.03535 -0.0676944 0)
(1.0086 0.0011391 -1.20994e-22)
(1.00544 0.000261197 0)
(1.05087 0.0401949 -3.46093e-21)
(1.01067 0.00199571 -1.97941e-23)
(1.02131 0.00947983 -1.35119e-21)
(1.02795 0.0164822 0)
(1.01597 0.00559294 -4.85958e-22)
(1.07341 0.0302767 0)
(1.00837 0.00109329 0)
(0.968313 0.0542213 0)
(1.02256 0.0118679 1.28138e-21)
(0.474706 0.00771833 0)
(0.417266 0.00669142 -2.52209e-21)
(0.962583 -0.0534729 0)
(0.9509 0.0475028 5.3821e-21)
(0.771617 0.1308 0)
(0.464085 0.0059725 0)
(0.961348 -0.0873981 2.94768e-22)
(1.00959 0.00150087 4.34896e-22)
(1.01563 0.00183436 -6.4737e-22)
(1.02709 0.00643761 -2.89514e-21)
(1.02988 0.0148815 0)
(1.01517 0.0034703 0)
(1.05125 0.0265708 8.04551e-21)
(1.01689 0.00530423 -9.12244e-22)
(1.01763 -0.0646047 -2.94039e-21)
(1.02166 0.00978268 0)
(1.09301 0.0710965 -1.3939e-20)
(1.03195 0.0124421 4.28787e-23)
(1.06831 0.0216205 0)
(1.05081 0.0446875 0)
(1.01333 0.00252763 -4.02631e-22)
(1.03248 0.0403858 4.22277e-22)
(1.03223 0.0147502 0)
(1.01731 0.00443919 -8.63093e-22)
(1.04574 0.0235609 0)
(1.01204 0.000859 -2.69206e-22)
(0.677227 0.0378126 0)
(1.05145 0.0489738 0)
(0.99643 0.00241218 5.57727e-22)
(1.01341 0.00293367 -7.00284e-23)
(1.02408 -3.40122e-05 -4.9242e-21)
(1.01704 0.00645928 1.02179e-22)
(1.01743 0.00496312 0)
(0.492368 0.121842 0)
(1.00985 0.00162293 0)
(1.03193 0.0941119 6.11287e-22)
(1.01417 0.00421488 4.2061e-22)
(0.975959 -0.110914 0)
(1.02153 0.0147665 6.0489e-22)
(1.01582 0.00537278 1.20683e-21)
(1.07943 0.0384694 0)
(1.03131 -0.00309455 0)
(1.01005 0.00173146 0)
(0.956247 -0.106285 -2.99557e-21)
(0.89667 0.0895747 0)
(1.02327 0.0147529 -8.50579e-22)
(1.06483 0.050506 1.19229e-20)
(1.01065 0.00188408 -1.44975e-22)
(1.03217 0.0867813 -2.31507e-21)
(1.01349 0.000967364 3.77074e-24)
(1.0173 0.00505736 0)
(0.522966 0.0205411 -2.55142e-20)
(1.00464 0.000133638 -1.16372e-23)
(1.03686 0.0118473 2.23768e-21)
(1.06864 0.0531458 1.25303e-20)
(0.508095 0.0155586 -2.38184e-20)
(1.01427 0.000988553 -8.33315e-22)
(0.926815 -0.116416 0)
(1.06891 0.0908803 0)
(1.01696 0.00308145 6.95024e-22)
(1.01711 0.00769247 5.1592e-23)
(1.01618 0.00579902 2.59527e-22)
(1.07223 0.0715389 -4.81175e-21)
(1.02335 0.000440528 0)
(1.07577 0.0562423 -1.90807e-20)
(1.02801 0.00856285 -9.32232e-23)
(0.550419 0.0287104 0)
(1.02267 0.0147761 0)
(0.802059 -0.0295909 9.66515e-22)
(1.01467 0.00379026 0)
(1.00899 0.000609486 -2.19185e-22)
(1.04024 -0.0247528 0)
(1.01175 0.000452173 0)
(1.01164 -0.000336747 0)
(0.779284 0.043528 -6.08163e-21)
(1.02538 0.0151433 3.2326e-21)
(1.01171 0.00238082 -2.84624e-22)
(0.852414 -0.0751383 -1.29974e-21)
(1.01676 0.00337361 -7.39872e-22)
(1.01587 0.00149719 4.30064e-22)
(1.05298 0.048003 0)
(1.02696 0.0163679 0)
(0.854412 0.0747399 -5.93834e-21)
(1.03477 0.0391891 3.27192e-21)
(1.08107 0.04157 0)
(1.03502 0.0416137 0)
(1.04675 0.0152703 4.20175e-21)
(0.565965 0.028058 0)
(1.02287 0.0125002 -1.2678e-21)
(1.05435 0.0468631 0)
(1.02213 0.00297572 4.22707e-21)
(0.40261 0.00873271 1.11495e-22)
(0.982748 -0.10171 0)
(1.03499 0.00552268 -5.91826e-21)
(1.01336 0.000832601 -8.02266e-22)
(1.0165 0.00361243 0)
(1.02297 0.0108845 0)
(1.01274 0.000861634 -8.30957e-22)
(1.01218 0.00187157 -3.21369e-22)
(1.01404 0.00179317 -3.39341e-22)
(1.02344 0.0048883 8.72341e-23)
(1.04308 0.0293691 2.16475e-21)
(1.00627 0.000586301 -1.23001e-22)
(1.02544 0.014794 -1.10591e-21)
(1.07003 0.0471054 0)
(0.497011 0.15075 1.45007e-20)
(0.71415 0.116377 -1.41843e-20)
(1.06823 0.0518047 2.24469e-22)
(1.01708 0.006706 -4.35632e-24)
(1.03422 -0.0383739 -5.61548e-22)
(1.01625 0.00468262 0)
(1.0678 0.0853371 2.66162e-21)
(0.919177 -0.16651 -9.54254e-22)
(0.196852 -0.00255409 -5.52237e-20)
(1.0093 0.00108086 6.83646e-22)
(1.00978 0.00160553 -2.88166e-22)
(1.01735 0.000904117 -1.81329e-21)
(1.0194 0.00861491 0)
(1.00906 0.00104553 -9.71806e-22)
(1.01207 0.00093058 0)
(1.01822 0.00474983 2.22526e-21)
(1.04444 0.0363063 -5.36436e-21)
(1.01182 0.00241267 2.82605e-22)
(0.457329 0.0349983 1.07028e-21)
(0.885327 -0.0840476 1.30658e-21)
(1.01225 0.00296993 0)
(0.739462 0.0478618 -1.60543e-20)
(1.02251 0.00303661 6.08208e-22)
(1.01448 0.00380514 -2.5956e-23)
(1.03027 0.00370684 -7.37234e-22)
(0.587607 0.0406028 -3.01929e-22)
(1.03943 0.0490301 0)
(1.0023 7.73435e-06 3.90754e-22)
(0.934387 -0.156602 -4.15477e-22)
(1.01463 0.00239648 -2.51084e-22)
(1.01441 0.00358325 -6.93272e-23)
(1.08824 0.0492181 -9.51944e-21)
(1.01568 0.00201108 -4.30343e-22)
(0.997581 0.145882 1.37985e-22)
(1.03762 0.0121138 0)
(0.987308 0.0493426 3.27527e-21)
(1.01193 0.00267116 1.10393e-22)
(1.01428 0.00177893 0)
(1.02436 0.027946 6.90915e-21)
(1.05334 -0.0522451 0)
(1.03121 0.0164953 0)
(0.511512 0.0196211 -1.94215e-20)
(1.02556 -0.0108677 -1.81847e-21)