/*--------------------------------*- C++ -*----------------------------------*\
| =========                 |                                                 |
| \\      /  F ield         | OpenFOAM: The Open Source CFD Toolbox           |
|  \\    /   O peration     | Version:  v2012                                 |
|   \\  /    A nd           | Website:  www.openfoam.com                      |
|    \\/     M anipulation  |                                                 |
\*---------------------------------------------------------------------------*/
FoamFile
{
    version     2.0;
    format      ascii;
    class       surfaceVectorField;
    location    "250";
    object      Uf_0;
}
// * * * * * * * * * * * * * * * * * * * * * * * * * * * * * * * * * * * * * //

dimensions      [0 1 -1 0 0 0 0];


internalField   nonuniform List<vector> 
20642
(
(0.480226 0.00708735 -4.32303e-21)
(0.490362 0.00886663 -2.33844e-20)
(0.501046 0.0131308 -1.98694e-20)
(1.02744 0.00415138 7.33305e-22)
(1.02679 0.00229397 -4.34953e-22)
(1.0249 0.00415438 4.76374e-22)
(1.08321 0.0660682 -7.66618e-21)
(1.08229 0.066911 -1.14502e-20)
(1.08213 0.067641 0)
(1.03678 0.0110419 -3.29593e-21)
(1.03672 0.0115997 -1.80499e-21)
(1.03614 0.0110872 1.64057e-21)
(1.01456 -0.00060828 3.23308e-22)
(1.01291 -0.00134817 2.33619e-21)
(1.01314 0.000733484 0)
(1.02764 0.00657709 7.41698e-22)
(1.02943 0.00539175 4.93515e-22)
(1.05137 0.023375 -4.75263e-21)
(1.05057 0.0228756 -4.16732e-21)
(1.05067 0.0237394 1.2402e-22)
(0.990755 -0.0225182 -6.15713e-21)
(0.989186 -0.0303291 -4.30527e-21)
(0.98138 -0.0227723 1.69275e-21)
(1.06 0.0137571 -5.75657e-21)
(1.05944 0.0142397 -4.48473e-21)
(1.06036 0.014583 0)
(0.01892 -0.0942152 -5.61802e-21)
(0.0417137 -0.0993217 1.48361e-21)
(0.991007 -0.0147344 -3.98857e-21)
(0.998 -0.0207516 3.20146e-21)
(1.02767 0.00988566 2.44183e-21)
(1.02793 0.0103043 8.19514e-22)
(1.02817 0.00996625 5.22776e-21)
(1.01282 0.000159065 1.45784e-21)
(1.01296 9.42942e-05 -5.31039e-21)
(0.707217 0.0476041 -2.61961e-21)
(0.666488 0.0688701 2.84868e-21)
(0.733725 0.063977 0)
(1.02432 0.0148435 -9.76041e-24)
(1.02507 0.0148894 8.8354e-22)
(1.02457 0.0144196 4.77283e-22)
(0.467298 0.00511873 -6.56537e-21)
(0.445105 -0.000131954 3.45221e-20)
(1.00271 5.68398e-05 0)
(1.00274 4.23438e-05 0)
(1.00149 1.10564e-05 2.25567e-22)
(0.991101 -0.00768498 -3.35045e-21)
(0.992427 -0.0019313 6.25823e-21)
(0.997676 -0.00703972 2.95068e-22)
(1.06607 0.0595821 9.35303e-22)
(1.06696 0.0606293 -2.56686e-21)
(1.06539 0.0608178 3.15122e-21)
(0.476756 0.0211001 -3.349e-20)
(0.520742 0.0293754 1.35727e-20)
(0.517126 0.0290155 -2.4082e-20)
(1.02091 0.0288087 1.44902e-21)
(1.02039 0.0300755 -3.13605e-22)
(1.01975 0.0286941 3.76618e-22)
(1.01705 0.00703343 1.79308e-22)
(1.01711 0.00712178 7.58921e-23)
(1.01722 0.00727967 1.73842e-22)
(1.05857 0.038803 -6.04581e-21)
(1.05923 0.0384002 3.04901e-21)
(1.05917 0.0394903 2.99214e-21)
(1.01701 0.00684903 -1.10565e-22)
(1.0169 0.00675243 -4.47093e-23)
(1.03492 0.0178365 0)
(1.03538 0.0182756 1.32945e-21)
(1.03475 0.0181797 -8.35549e-22)
(1.01537 0.0279124 8.43819e-23)
(1.0169 0.0281739 3.1271e-22)
(1.01632 0.0265668 1.97145e-22)
(0.954977 0.0904754 -4.58324e-21)
(0.998922 0.0895585 -4.46095e-21)
(1.00507 0.0979727 -5.16296e-21)
(0.0245751 -0.0756911 0)
(1.0015 0.0170788 -1.75113e-21)
(1.00349 0.0194641 1.25838e-21)
(1.00485 0.0161296 0)
(1.00988 -0.000469915 9.29107e-23)
(1.01002 -0.000526573 -4.25381e-23)
(1.00974 -0.000492149 -4.22405e-24)
(0.00226914 -0.0496752 0)
(0.0332249 -0.0633948 0)
(1.07229 0.0439321 -6.47052e-21)
(1.07312 0.0441491 2.14659e-21)
(1.0723 0.0446098 -7.72818e-21)
(1.03308 0.0135908 -4.35231e-21)
(1.03255 0.0132226 -2.23819e-21)
(1.03307 0.0131327 1.54192e-21)
(0.529255 0.021939 7.13801e-21)
(0.547379 0.0261642 1.14342e-20)
(0.544159 0.0253596 6.58097e-22)
(1.01558 0.00235119 0)
(1.01546 0.00236489 -1.01012e-22)
(1.01596 0.00233649 1.44231e-22)
(0.993753 -0.0400665 3.43408e-21)
(0.982786 -0.0421104 -3.5477e-21)
(1.02505 0.0170798 -4.27665e-22)
(1.02531 0.0175508 -3.90215e-22)
(1.02488 0.0174936 6.2369e-22)
(1.00348 0.000106123 -1.06641e-21)
(1.00632 0.000277073 -1.65285e-22)
(1.00315 7.68106e-05 -8.57796e-22)
(1.05217 0.0238517 -1.06963e-20)
(1.05197 0.0229836 -1.04148e-20)
(1.03172 0.038704 0)
(1.03235 0.0398593 -1.75659e-21)
(1.03302 0.0386977 0)
(1.00067 -4.25416e-05 -6.7027e-23)
(1.00048 -1.18984e-05 -1.18069e-22)
(1.00134 -6.21689e-06 2.37383e-22)
(1.01666 0.00247892 3.4795e-22)
(1.01735 0.00251853 5.52524e-22)
(1.01694 0.00228148 9.97592e-23)
(1.05564 0.010383 -1.63047e-21)
(1.05474 0.0108799 -3.4539e-21)
(1.05474 0.00982806 -1.24913e-20)
(1.07269 0.0562895 -1.78881e-20)
(1.07341 0.0556373 -6.779e-21)
(1.07371 0.0569473 -1.29185e-20)
(1.07165 0.0555425 9.75938e-23)
(1.07161 0.0569957 7.56744e-23)
(1.02509 0.0311738 -1.03102e-22)
(1.02402 0.0346893 -2.49068e-22)
(1.02353 0.0332623 -2.34962e-22)
(1.02162 0.0276383 2.54226e-22)
(1.02239 0.0287931 1.73202e-21)
(0.348653 0.209659 0)
(0.421083 0.199356 0)
(0.401067 0.206047 -2.20251e-20)
(0.817865 -0.132058 -5.68357e-22)
(0.784491 -0.144637 -4.13926e-22)
(0.858404 -0.116694 5.156e-21)
(1.0154 0.00236885 2.09724e-22)
(1.01579 0.00231362 1.40519e-22)
(1.02722 0.00987677 1.48886e-21)
(1.02737 0.00955021 -3.38441e-21)
(1.04035 0.0492542 4.40569e-21)
(1.03869 0.0484092 1.86049e-21)
(1.04042 0.0474309 3.60046e-21)
(0.299075 -0.00143369 0)
(0.37974 0.000587199 0)
(0.29508 -0.00228267 0)
(1.02215 0.00997782 -8.64056e-23)
(1.02193 0.00966481 1.3676e-21)
(1.0218 0.00980114 2.0714e-21)
(1.02313 0.0106981 7.08479e-22)
(1.02288 0.0103732 1.1707e-21)
(1.02323 0.0104823 -2.484e-22)
(1.04135 0.0498448 2.68765e-21)
(1.04017 0.0510221 2.16053e-21)
(0.164444 -0.01239 -1.0246e-20)
(1.05775 0.0390433 0)
(1.058 0.0379304 -4.35928e-21)
(1.01603 0.00240381 -7.63883e-23)
(1.01634 0.00264854 1.6524e-22)
(1.02592 0.0263859 -3.47526e-22)
(1.02795 0.0287351 5.66266e-22)
(0.35311 0.0577367 -8.12592e-22)
(0.298741 0.0540534 -4.31942e-22)
(0.289037 0.0709938 0)
(1.03163 0.000661441 -1.465e-22)
(1.03134 -0.0020481 -1.62311e-22)
(1.02948 -0.00043018 -6.26783e-22)
(1.00192 -5.42269e-05 -1.85995e-23)
(1.00203 -4.7117e-05 5.09078e-23)
(1.00242 -6.28475e-05 9.14183e-24)
(1.03511 0.0173657 -2.22774e-21)
(1.03443 0.0173641 0)
(0.872516 0.0770885 0)
(0.871589 0.0796364 7.05125e-21)
(0.842373 0.078417 0)
(1.00038 0.00334476 6.0303e-23)
(1.00301 0.00100563 -2.73869e-22)
(1.00371 0.00452354 -3.05666e-22)
(0.999675 0.0141409 -7.27408e-22)
(0.997833 0.0110954 -5.11417e-22)
(1.00189 0.0104805 9.35719e-22)
(1.00329 -0.038467 4.21174e-21)
(0.998855 -0.0511361 3.35153e-21)
(0.984478 -0.00804516 -1.51605e-21)
(0.446015 0.00678845 0)
(0.431118 0.00475948 -5.89248e-23)
(0.426464 0.00420911 0)
(0.995092 0.0798362 -5.02384e-22)
(1.00867 0.0803995 3.67837e-21)
(0.96662 0.0791874 3.35587e-21)
(0.516425 0.0191844 7.06361e-21)
(0.513473 0.0191117 8.78965e-21)
(1.0329 0.0038546 -2.17774e-21)
(1.03359 0.00400078 2.96564e-21)
(1.03295 0.00427921 6.95706e-22)
(1.01543 0.00234005 -1.71864e-22)
(1.0157 0.00222033 -5.09601e-22)
(1.01986 0.0314833 -9.0696e-22)
(1.02126 0.031331 -6.99086e-22)
(1.03162 0.0193806 4.69089e-21)
(1.03198 0.0199183 -2.73009e-21)
(1.03128 0.0195814 1.31648e-21)
(1.01614 0.00598882 4.39681e-22)
(1.01576 0.00606971 1.36648e-21)
(1.01604 0.00673932 1.38341e-22)
(1.0149 0.002247 -1.5497e-22)
(1.01514 0.00242352 1.76554e-22)
(1.03199 0.0190097 1.40187e-21)
(1.03121 0.0188497 -7.46693e-22)
(1.03311 0.0138456 2.93327e-21)
(1.03355 0.013819 -3.36793e-21)
(1.02092 0.0111753 2.40976e-22)
(1.02063 0.0109551 1.85366e-23)
(1.02072 0.0108291 6.5251e-22)
(1.00308 8.32556e-05 4.46035e-23)
(1.00308 8.27675e-05 4.37478e-23)
(1.00171 1.58253e-05 0)
(1.03286 0.0033979 -2.42243e-21)
(1.03221 0.00365697 -3.18765e-22)
(0.966506 0.0658553 1.71751e-20)
(1.0044 0.0670151 1.18422e-20)
(0.99865 0.0657521 0)
(1.01571 0.00175468 1.48526e-21)
(1.01579 0.00197027 -1.25011e-21)
(1.01552 0.00187358 -1.43627e-21)
(0.950027 0.0305485 -3.79678e-21)
(0.943787 0.0401455 7.04528e-22)
(0.93983 0.0276679 -9.96798e-22)
(1.07242 0.0429693 0)
(1.07137 0.0435497 0)
(1.01541 0.00104029 0)
(1.0152 0.00105616 0)
(1.0147 0.000778169 1.74426e-21)
(1.03137 0.0373148 0)
(1.03044 0.03841 2.17274e-21)
(1.00251 6.5911e-05 -2.30092e-22)
(1.00352 8.1759e-05 -1.15977e-22)
(1.0046 0.000160013 -2.20224e-22)
(1.00437 0.000141337 9.44405e-23)
(1.00488 0.000219839 -1.37531e-23)
(1.05637 0.0111469 3.61973e-21)
(0.860529 -0.109505 0)
(0.787331 -0.145687 -1.44971e-21)
(1.01406 0.00234223 -6.26446e-22)
(1.01428 0.00239153 6.43123e-23)
(1.01387 0.00232 6.88278e-23)
(1.02333 0.0124511 -1.64149e-21)
(1.02302 0.0121683 -3.0094e-22)
(1.02316 0.01252 2.01081e-21)
(0.99815 0.0184864 -1.14835e-21)
(1.03104 0.132357 -4.13436e-21)
(1.05091 0.124097 2.54769e-21)
(1.03961 0.129778 -1.79479e-21)
(1.00427 0.000134655 0)
(1.00435 0.000121631 4.19741e-24)
(1.00248 5.84376e-05 -7.55151e-23)
(1.01562 0.00121542 -1.87314e-21)
(1.01555 0.00100441 0)
(1.04095 0.083731 -2.13079e-21)
(1.03654 0.0793824 -1.50224e-21)
(1.03455 0.0848767 0)
(1.00159 -1.10214e-05 -2.06554e-22)
(1.00158 -1.94867e-05 2.85506e-22)
(1.00105 -9.57373e-06 1.2317e-22)
(1.00164 -1.5722e-05 -1.75557e-22)
(1.00213 -4.29845e-05 -1.06175e-22)
(1.02111 0.0114349 0)
(1.02114 0.0113249 0)
(1.0067 0.000372824 -2.33551e-24)
(1.00667 0.000340594 0)
(1.00571 0.000262045 6.08892e-23)
(1.01656 0.00590531 -3.67549e-22)
(1.0164 0.00515499 -4.21382e-22)
(0.979574 0.0473684 -2.11816e-21)
(0.976249 0.0485143 5.14862e-21)
(0.941647 0.0499679 0)
(0.592708 0.0910742 2.60484e-21)
(0.590116 0.0824671 -1.48071e-20)
(0.578823 0.0891732 -3.36756e-21)
(1.03097 0.00313975 -7.42222e-23)
(1.03451 0.00210277 -2.87099e-21)
(1.01774 0.00288073 7.57381e-22)
(1.01809 0.00257608 -4.99682e-22)
(0.912204 0.0907372 4.81525e-21)
(0.9023 0.0801444 -5.46239e-21)
(1.01957 3.92172e-06 6.04822e-22)
(1.01965 -6.07777e-05 -1.97754e-21)
(0.568159 0.0308992 2.37096e-20)
(0.553026 0.0277871 1.42703e-21)
(1.00533 0.0215729 1.4492e-21)
(1.0027 0.0231079 1.12298e-21)
(0.867424 0.0760612 3.12234e-21)
(0.905512 0.0790624 -8.26954e-21)
(1.03005 0.0204635 -6.53942e-21)
(1.03047 0.0210325 -9.75949e-22)
(1.03048 0.0202341 2.86754e-21)
(1.06526 0.0583972 1.10432e-20)
(1.06669 0.058397 -1.54231e-20)
(1.00323 7.00042e-05 1.03737e-22)
(1.00381 0.000143719 -6.15086e-24)
(1.00347 9.42537e-05 1.25332e-23)
(1.07833 0.0667068 -5.31183e-21)
(1.07965 0.0658954 0)
(1.07782 0.0652921 0)
(1.0314 0.000747098 -1.98653e-21)
(1.03157 0.00119362 2.3274e-21)
(1.03091 0.000951896 -5.76849e-21)
(1.00413 0.000140844 2.72569e-22)
(1.00297 7.15955e-05 -1.52599e-22)
(1.01437 0.00199601 1.8973e-22)
(1.01407 0.00191615 1.10243e-22)
(1.01387 0.00196104 -1.93753e-22)
(0.996185 0.00717227 -1.09097e-21)
(0.993708 0.0119535 -2.44908e-21)
(1.05409 0.0553678 -3.26135e-21)
(1.05278 0.0549629 2.35189e-22)
(1.0539 0.0538587 -3.3743e-21)
(0.386779 0.00139316 1.41256e-21)
(0.406986 0.00467719 -2.02324e-20)
(0.391807 0.00171936 -7.38038e-21)
(0.941379 0.0664996 1.16333e-20)
(0.935581 0.0660139 -5.46587e-21)
(1.03525 0.0169765 3.67965e-21)
(1.0354 0.0165348 5.87157e-21)
(1.03478 0.0165129 -1.59274e-21)
(1.01843 0.0314637 -3.48914e-22)
(1.01941 0.0330075 2.48974e-22)
(1.014 0.00346618 7.27644e-23)
(1.01388 0.00336379 1.76521e-22)
(1.01375 0.00337536 1.94425e-24)
(1.05537 0.0553509 0)
(1.05448 0.0564288 -1.35277e-22)
(1.06463 0.0263135 0)
(1.06439 0.027045 -1.67805e-21)
(1.06534 0.0267894 0)
(1.06656 0.0333718 0)
(1.06281 0.0337747 0)
(1.06528 0.0299106 0)
(0.689078 0.0383014 2.44071e-20)
(0.656687 0.0360748 2.94488e-21)
(0.66348 0.0365034 -4.1907e-21)
(1.02958 0.0207823 -4.34455e-21)
(1.02957 0.0199622 -1.20898e-21)
(1.07336 0.0475662 3.56672e-21)
(1.07283 0.0483267 -1.37499e-20)
(1.07403 0.0482946 1.12702e-20)
(0.866487 0.0914797 2.83176e-22)
(0.921301 0.101114 4.11941e-21)
(0.253212 0.0130132 2.43454e-21)
(0.313181 0.021211 3.04658e-21)
(0.32129 0.00523895 -4.47398e-21)
(0.348643 0.00284032 -2.97666e-22)
(0.345516 0.00234806 -3.05158e-22)
(0.366195 0.00501519 -7.95264e-23)
(1.01211 0.0267668 -7.19986e-22)
(1.01394 0.0274546 -4.08594e-22)
(1.01337 0.0253782 -1.32712e-22)
(1.00336 0.000147476 -5.02038e-22)
(0.802811 0.0994904 -1.91493e-22)
(0.820882 0.0847586 -3.06274e-22)
(0.821468 0.104673 -7.10252e-22)
(1.01465 0.00211279 2.86437e-22)
(1.01439 0.00216994 -1.49812e-22)
(0.973786 0.0480648 4.17856e-21)
(1.014 0.0483176 -4.63496e-21)
(1.01543 0.00527179 -1.18454e-22)
(1.01521 0.00507239 7.08895e-22)
(1.01535 0.00525937 1.91507e-22)
(1.03079 0.00387367 9.73341e-22)
(1.03135 0.00409303 2.92734e-21)
(1.03089 0.0043241 0)
(1.02233 0.00613835 -8.23409e-23)
(1.02113 0.00657554 1.25538e-22)
(1.02107 0.00542698 -1.25677e-22)
(1.01661 0.0791158 5.16977e-21)
(0.976283 0.0786125 -1.44418e-21)
(0.902559 0.153724 9.4454e-22)
(0.444321 0.188084 0)
(0.470205 0.176549 1.46567e-20)
(0.408657 0.180737 1.53745e-20)
(1.02252 0.0101963 -1.1607e-21)
(1.02237 0.0103351 -2.48703e-23)
(1.03111 0.0362161 6.57591e-22)
(1.03084 0.0350985 6.5132e-22)
(1.02995 0.0358021 -4.53e-23)
(1.00168 -3.35189e-05 -4.42183e-23)
(1.0018 -3.34377e-05 1.01758e-22)
(1.00231 -3.03661e-05 -1.26804e-22)
(1.03025 0.00368 6.81165e-23)
(1.03068 0.00343744 -3.33016e-21)
(1.01405 0.128867 2.17162e-21)
(1.00821 0.136068 1.2253e-20)
(1.01758 0.0052794 -2.63061e-22)
(1.01775 0.00518656 9.52685e-23)
(1.01781 0.00509009 9.86329e-23)
(1.00672 0.000372819 -2.15994e-24)
(1.00713 0.000362796 -2.26241e-23)
(0.642987 0.0354091 3.47525e-21)
(0.635264 0.0338159 1.40942e-20)
(0.614305 0.0323864 1.75399e-20)
(1.00193 2.24898e-05 1.45289e-22)
(1.00191 2.40827e-05 9.53834e-23)
(1.0011 -9.26499e-06 1.72139e-22)
(1.00295 3.61582e-05 1.6016e-22)
(1.00244 -8.55091e-06 -1.89978e-22)
(1.01552 0.00375043 -1.77772e-22)
(1.01571 0.00397654 -8.55084e-22)
(1.0154 0.0038536 -3.47685e-22)
(0.748978 0.113667 -6.76172e-21)
(0.766159 0.111853 -9.49186e-22)
(0.721546 0.114276 -4.88641e-21)
(1.02243 0.0159822 5.40902e-23)
(1.02269 0.0163205 -4.70662e-23)
(1.02269 0.0157406 3.62803e-23)
(0.785895 0.0869093 1.4099e-22)
(0.482221 0.133716 -3.44415e-21)
(0.483809 0.141997 3.37919e-22)
(0.519531 0.132068 2.33797e-21)
(1.0451 0.0993991 -4.28658e-21)
(1.04252 0.0928497 1.16289e-21)
(1.03515 0.0954362 -1.89611e-21)
(0.301702 -0.00196149 -2.27617e-20)
(0.331048 0.172988 1.00997e-20)
(0.36749 0.159093 4.01807e-21)
(0.322961 0.16223 0)
(1.0046 -0.000162869 -9.26469e-24)
(1.00474 -0.000174939 1.18671e-23)
(1.00466 -0.000175298 6.65157e-24)
(1.01026 0.0255131 -3.5605e-22)
(1.0108 0.0283748 5.56128e-22)
(1.01707 0.00681298 -3.92572e-23)
(1.0171 0.00674421 -9.05411e-23)
(1.01719 0.00704761 1.38906e-23)
(0.692722 0.0409615 7.66528e-21)
(0.695844 0.0412633 0)
(0.663081 0.0380052 0)
(1.05971 0.0128777 -6.47187e-21)
(0.469555 0.042761 2.26168e-21)
(0.40972 0.0509066 4.35511e-21)
(0.431514 0.0356913 6.65111e-21)
(1.0466 0.0424784 1.07269e-21)
(1.04676 0.0425632 0)
(1.04655 0.042719 0)
(1.00168 -8.20879e-07 1.72939e-22)
(1.00226 1.88437e-05 1.42868e-22)
(1.00158 -2.79845e-06 -3.1062e-22)
(1.03744 0.0110782 -2.47129e-21)
(1.0369 0.0106047 4.88552e-22)
(1.03728 0.0474928 -1.17922e-22)
(1.03539 0.0462325 2.73753e-22)
(1.03766 0.045512 4.95261e-21)
(1.06481 0.0254687 0)
(1.06391 0.0257302 -3.00671e-21)
(1.02208 0.0162336 1.4842e-22)
(1.02223 0.0155217 -1.59591e-22)
(1.0541 0.0112125 -4.91315e-21)
(1.05328 0.0107008 -1.40267e-20)
(1.05323 0.011637 -1.28287e-20)
(1.01691 0.00661505 7.61958e-23)
(1.02687 0.00983144 0)
(1.02711 0.0101574 0)
(1.03196 0.0653163 -4.00287e-21)
(1.03521 0.0655215 7.59222e-22)
(1.03153 0.0682481 -4.27808e-21)
(1.0771 0.0675738 -4.56051e-21)
(1.07877 0.0683431 -5.1697e-21)
(1.06838 0.0368942 1.98334e-21)
(1.07579 0.0327823 -2.21707e-21)
(1.02657 0.00948729 8.08923e-22)
(1.02644 0.00977862 8.27067e-22)
(1.02747 0.0652172 -2.20923e-21)
(1.03093 0.0620905 1.7744e-21)
(1.01001 -0.00043432 3.23094e-24)
(1.00968 -0.000425103 -4.17323e-23)
(0.956977 0.0244742 -1.17694e-21)
(0.95936 0.0343968 -3.35276e-21)
(1.04662 0.0422815 2.81035e-22)
(1.04647 0.0423441 -3.71194e-22)
(1.07077 0.054753 0)
(1.07179 0.0541801 9.55578e-21)
(1.0418 0.0633589 -8.37459e-21)
(1.0438 0.0627236 -1.03438e-21)
(1.04212 0.0613257 -7.46129e-22)
(0.49556 0.0109096 3.88688e-21)
(0.512647 0.0172209 1.28469e-20)
(0.501083 0.0135968 2.86122e-21)
(1.01429 0.00235998 -8.06785e-23)
(1.01395 0.00230921 -6.13558e-23)
(0.401707 0.00359763 0)
(0.416426 0.00582428 -9.94683e-21)
(0.396446 0.00240765 1.2168e-20)
(1.0391 0.0248288 -3.9401e-21)
(1.03875 0.0253274 7.42443e-22)
(1.03841 0.0246116 -9.79679e-22)
(0.722751 0.040473 8.40053e-21)
(0.716204 0.0397123 1.4137e-20)
(1.01543 0.00237628 5.24063e-23)
(1.01498 0.00235832 -3.79602e-22)
(1.0174 0.00532959 -3.89641e-23)
(1.01738 0.00548592 -3.83308e-22)
(1.02332 0.0266388 0)
(1.02407 0.0275168 0)
(1.02418 0.0263537 8.39033e-22)
(0.435774 0.00413556 -2.71656e-21)
(0.434011 0.00465772 -2.84975e-21)
(0.453001 0.00708734 -4.45601e-22)
(0.349227 0.00246999 0)
(0.322238 0.00052243 0)
(1.02403 0.0151951 -7.60088e-22)
(1.02402 0.015502 4.22324e-22)
(1.02379 0.0151123 0)
(0.989458 0.0735832 3.30797e-21)
(1.02624 0.073671 5.73136e-21)
(0.98201 0.0633321 1.38461e-20)
(1.01465 0.0143017 -1.2051e-22)
(1.01544 0.0128058 -3.38746e-22)
(1.01605 0.0145654 2.48052e-22)
(1.03227 0.0364822 3.30734e-21)
(1.01487 0.0020355 1.85626e-22)
(1.03701 0.0495233 -3.90404e-21)
(1.02035 0.0107034 -2.47059e-22)
(1.02052 0.0110192 -8.33383e-22)
(1.01179 0.00257062 -2.3046e-23)
(1.01155 0.00248084 -3.61398e-23)
(1.01166 0.00248915 -2.77048e-23)
(1.01026 -0.0104546 7.88533e-22)
(1.01362 -0.0097457 0)
(1.01084 -0.0074193 4.62736e-22)
(1.00894 -0.0137996 7.48558e-22)
(1.00567 -0.0107302 -6.12369e-23)
(0.468578 0.182272 0)
(1.07285 0.0469809 3.26923e-21)
(1.07384 0.0469259 -1.64583e-21)
(1.01451 0.029455 -4.10016e-23)
(0.721489 0.0854431 -1.26956e-20)
(0.717883 0.0894397 1.04179e-20)
(0.749553 0.0885298 -1.18499e-20)
(1.01034 0.000610291 -8.12139e-22)
(1.00933 0.000566865 2.4818e-23)
(1.01108 0.000621324 7.91734e-22)
(1.00877 0.00111245 0)
(1.00897 0.00115964 0)
(1.00861 0.001095 1.37982e-22)
(1.00893 0.00112321 -2.76325e-22)
(1.00859 0.00108 -1.51642e-22)
(0.340673 0.181907 2.86802e-22)
(1.0381 0.0647329 7.47884e-21)
(1.03999 0.0639434 -6.13266e-21)
(1.03782 0.0623593 3.30879e-21)
(1.02416 0.0651027 -2.42045e-21)
(1.02294 0.0642455 3.48628e-21)
(1.02283 0.0612896 2.11311e-21)
(1.01979 0.00098309 1.37036e-21)
(1.01998 0.00110771 -1.23601e-21)
(1.01997 0.000916376 -1.23788e-21)
(1.00185 -5.60898e-05 -2.41775e-23)
(1.00141 -4.81387e-05 -6.5056e-23)
(0.80695 0.0804868 -3.91453e-21)
(0.816741 0.0918218 6.74758e-22)
(0.405988 0.00428351 -1.07505e-20)
(1.00786 0.00098063 0)
(1.00808 0.00101736 -1.2947e-22)
(1.00808 0.00102809 -3.40322e-22)
(1.00763 0.000945068 2.64696e-22)
(1.00763 0.000929481 -2.90649e-22)
(1.00113 -3.14968e-05 1.20916e-22)
(1.00037 -4.62244e-05 0)
(1.00909 0.00113391 -1.71014e-23)
(1.0093 0.00118108 3.31863e-23)
(1.00926 0.0011439 3.00568e-22)
(1.00893 0.0010989 2.65899e-23)
(0.500793 0.0150726 -6.7233e-21)
(0.513701 0.0182754 -2.13714e-20)
(0.487476 0.175368 1.31892e-20)
(0.471674 0.180369 5.74575e-21)
(0.502949 0.165049 2.33728e-20)
(1.01865 0.00906447 2.44976e-23)
(1.01847 0.008805 -9.85615e-22)
(1.01871 0.0090192 4.05204e-22)
(1.00567 -0.000239483 -5.32062e-24)
(1.00587 -0.00024475 1.02154e-23)
(1.00569 -0.000230341 5.03787e-23)
(1.04851 0.0468868 5.17692e-23)
(1.04799 0.0461751 -1.05637e-21)
(1.04874 0.0461748 8.8592e-21)
(0.490049 0.0153735 -2.39916e-20)
(0.478324 0.0126009 -9.69469e-21)
(0.494741 0.0160788 -1.05093e-20)
(1.0026 3.90447e-05 4.65475e-22)
(1.00183 3.28299e-05 2.26914e-22)
(1.0018 2.00067e-05 -2.51887e-23)
(1.01962 0.0010679 -1.02415e-22)
(1.01961 0.000880737 -1.13699e-21)
(0.994189 0.0821156 5.02816e-21)
(0.940362 0.0723163 0)
(0.970346 0.0478435 5.64262e-21)
(0.965278 0.0475302 -2.85613e-21)
(1.00533 0.0480679 0)
(1.03818 0.0670484 -1.09494e-21)
(0.726238 0.0824825 4.32444e-21)
(0.697744 0.0818283 1.29958e-21)
(1.04462 0.0411986 -2.47329e-21)
(1.04536 0.0407354 -7.72116e-22)
(1.04462 0.0403116 -5.42616e-21)
(1.0155 0.00526605 -8.97983e-22)
(1.01563 0.0054434 3.58393e-22)
(0.412212 0.156713 2.16211e-21)
(0.405723 0.147038 -3.20696e-21)
(1.049 0.0476688 -6.35842e-21)
(1.04801 0.0477326 -3.36995e-21)
(1.00694 0.0230588 -2.1178e-21)
(1.00741 0.0202369 -1.86204e-21)
(1.06345 0.0495752 3.00421e-21)
(1.06322 0.0504463 -4.14194e-21)
(1.06429 0.050302 2.24207e-21)
(1.024 0.0148714 4.53701e-22)
(1.02427 0.0152244 -2.84714e-22)
(0.507912 0.167676 0)
(1.03175 0.0015735 3.99699e-21)
(1.03134 0.00174105 1.21424e-21)
(1.03191 0.00199354 -4.1326e-24)
(1.04231 0.038688 2.4295e-21)
(1.04237 0.0391549 2.03692e-21)
(1.0429 0.0388453 2.02421e-21)
(1.04701 0.0425368 -2.49143e-21)
(1.04726 0.0423279 -2.53536e-22)
(1.04693 0.0422479 -2.75176e-21)
(1.0185 0.00911028 -2.82169e-22)
(1.01858 0.00905972 4.25824e-23)
(1.01833 0.00885561 -3.32542e-22)
(1.00049 1.40262e-06 1.88245e-22)
(1.0357 0.0174151 -4.40937e-21)
(1.02101 -0.00122245 -9.04889e-22)
(1.02095 0.000161733 1.8326e-22)
(1.02236 -0.000500998 6.09501e-23)
(1.01553 0.00279005 0)
(1.0158 0.00280136 -5.63097e-22)
(1.01598 0.00292295 -5.62024e-22)
(0.441338 0.0106509 9.21814e-21)
(0.429097 0.0083172 -9.74938e-21)
(0.424197 0.0078973 0)
(0.619804 -0.154368 5.46855e-23)
(0.61762 -0.130964 -2.40534e-21)
(0.633162 -0.148345 -1.09433e-21)
(1.01425 0.00173453 2.34171e-24)
(1.01394 0.00174417 0)
(1.01382 0.00174258 0)
(1.00757 0.000946952 5.35853e-22)
(1.0074 0.000887491 -3.11893e-22)
(1.01766 0.00534759 3.52542e-22)
(1.01791 0.00507662 2.93947e-22)
(1.00775 0.000994832 -2.72858e-22)
(1.00751 0.000934504 -1.14811e-23)
(1.03226 0.00140434 -9.09206e-22)
(1.01671 0.000228563 -8.88034e-22)
(1.0123 0.000164355 -4.59906e-22)
(1.05021 0.0346146 3.76799e-21)
(1.0506 0.0353092 -3.00563e-21)
(1.04982 0.0353032 7.44392e-22)
(1.01458 0.00173241 1.15385e-22)
(1.01468 0.00169649 -1.12545e-22)
(0.350826 0.00403624 0)
(0.36902 0.0067434 0)
(0.592689 0.101229 -1.25595e-21)
(0.60942 0.0939072 2.0479e-20)
(1.02367 0.00807896 -1.67199e-21)
(1.02373 0.00779794 3.3664e-21)
(1.02328 0.00778865 -2.66545e-21)
(1.01908 0.0024325 -3.50672e-22)
(1.01895 0.00178427 4.99499e-22)
(1.01826 0.00256315 2.12821e-22)
(1.02484 0.021493 -7.74648e-22)
(1.03159 0.0181485 5.9402e-22)
(1.00645 0.0165305 2.0814e-21)
(1.00866 0.000975664 -2.49331e-22)
(1.00883 0.00100449 2.16153e-23)
(1.0085 0.000955158 -3.83628e-22)
(1.03015 0.0738087 4.06798e-21)
(1.03381 0.0763541 3.94362e-21)
(1.03303 0.0706392 2.24482e-21)
(0.459054 0.0137737 -1.74785e-23)
(0.453908 0.0130535 9.2328e-21)
(1.00851 0.000951365 -2.3129e-22)
(1.00885 0.00100533 2.99274e-25)
(0.463029 0.00982273 0)
(0.457912 0.00910587 -1.53769e-20)
(1.01527 0.00274495 1.8382e-22)
(1.01509 0.0026624 -1.62906e-22)
(0.787086 0.111352 9.32948e-21)
(0.740556 0.115046 3.92763e-21)
(1.00166 -1.3198e-06 2.13863e-22)
(1.00103 -1.57004e-05 0)
(1.02319 0.0144845 -1.38579e-23)
(1.02281 0.0146463 1.00577e-22)
(1.0227 0.0142316 -9.89543e-23)
(1.01844 0.00914967 0)
(1.01867 0.00937798 0)
(1.01487 0.00487104 -8.68246e-22)
(1.01467 0.00470705 2.42991e-22)
(1.01467 0.00471794 1.49774e-22)
(1.05738 0.0695025 -3.56071e-21)
(1.058 0.0676537 6.98419e-21)
(1.05931 0.0693422 -1.82906e-23)
(1.00677 0.0003243 2.45859e-22)
(1.00677 0.00029363 -4.44696e-22)
(1.00454 0.00016519 -6.76155e-23)
(1.04802 0.107631 -8.9843e-22)
(1.05703 0.103145 3.0072e-22)
(1.03729 0.0290216 2.39515e-21)
(1.03685 0.0296321 8.68657e-22)
(1.03655 0.0287399 3.62334e-21)
(1.02338 0.00549779 2.4188e-22)
(1.02316 0.00706512 4.19162e-22)
(1.06256 0.0663277 0)
(1.06097 0.0728946 3.67526e-21)
(1.07913 0.0696391 0)
(0.334937 0.00207337 0)
(1.00327 7.09537e-05 -9.49781e-23)
(1.0032 7.49179e-05 2.29695e-22)
(1.05384 0.0417656 0)
(1.05433 0.042418 7.66625e-21)
(1.05466 0.0416907 0)
(1.01805 -0.0016468 0)
(1.01964 -0.00149045 -3.6381e-22)
(1.0184 -0.000126864 0)
(1.02921 0.0210195 -2.26111e-21)
(1.02873 0.0212035 3.04581e-21)
(1.02876 0.0204669 -2.11002e-21)
(1.01608 -0.00126556 3.71973e-22)
(1.01564 0.000666111 8.47915e-22)
(1.03228 0.0187262 -1.02833e-22)
(1.03262 0.0192496 2.60034e-21)
(1.01449 0.0024511 0)
(1.01469 0.00250868 1.67007e-22)
(1.01428 0.00243255 0)
(1.00788 0.000396444 0)
(1.00655 0.00029588 0)
(1.03856 0.041697 -5.99115e-22)
(1.03635 0.0418776 -4.89939e-21)
(1.03807 0.0436198 3.84101e-21)
(1.00886 0.0246502 3.41645e-22)
(1.0041 0.0258746 2.54611e-22)
(1.00621 0.0208432 -5.83991e-22)
(1.04241 0.0379132 0)
(1.04168 0.0382935 0)
(1.03261 0.0184159 1.30617e-21)
(1.03194 0.0182671 -2.44515e-21)
(1.01949 0.00110124 -2.09878e-22)
(1.01935 0.000975527 -2.65798e-21)
(1.01932 0.00112838 0)
(0.650954 0.0359133 -1.07126e-20)
(0.675061 0.0371875 -1.97564e-20)
(0.431309 0.00229811 -2.09743e-20)
(0.402347 0.00197875 1.13563e-20)
(1.01352 0.00307271 -5.47244e-23)
(1.0134 0.00297334 1.84728e-22)
(1.01326 0.00299358 9.63079e-23)
(1.01452 0.00524685 3.64744e-22)
(1.01369 0.00614507 -7.58474e-22)
(1.01339 0.00485717 -5.37385e-24)
(1.0297 0.0215273 2.36593e-21)
(0.944983 -0.0758541 6.84263e-22)
(0.960786 -0.0819505 3.80694e-21)
(0.976775 -0.0694442 6.71641e-22)
(1.08245 0.0518071 7.57907e-22)
(1.08316 0.0523458 2.64456e-20)
(1.08303 0.0513471 1.5189e-20)
(0.616668 0.0779143 7.32717e-21)
(0.604305 0.0702602 -8.30384e-21)
(0.598329 0.0755441 4.05722e-21)
(0.496893 0.0520514 -9.47227e-21)
(0.521747 0.0379592 2.01812e-21)
(1.00402 -0.00610119 6.04111e-23)
(1.00322 -0.00263051 -1.04409e-22)
(1.0008 -0.00544036 -4.26679e-22)
(1.05904 0.034307 -1.87829e-21)
(1.06057 0.0370608 0)
(1.01909 0.00306079 -1.04667e-22)
(1.01974 0.0025555 -2.573e-22)
(1.03703 0.0695754 -1.48726e-21)
(1.00963 0.0690329 -5.62929e-21)
(0.906687 -0.0794873 0)
(0.928983 -0.0670726 9.88991e-23)
(1.08395 0.0653632 -6.89785e-21)
(1.0838 0.0648276 -5.887e-21)
(1.01636 0.000370656 -1.43819e-21)
(1.0116 7.01256e-05 -3.58829e-21)
(1.02376 0.0146696 2.52477e-23)
(1.024 0.0152448 6.92152e-24)
(1.03792 0.0899639 4.00954e-22)
(1.01716 0.00625394 1.71553e-22)
(1.01711 0.00642772 1.98708e-22)
(1.0172 0.00647722 1.67252e-22)
(1.02523 0.000599227 -1.7099e-22)
(1.02817 0.000332542 0)
(1.06998 0.0540119 7.14201e-21)
(1.06983 0.0553207 -1.00014e-21)
(1.00258 3.75225e-05 3.48096e-22)
(1.00235 2.51254e-05 5.5064e-23)
(1.00136 -9.02002e-06 2.93249e-22)
(0.717534 0.0442693 5.94724e-21)
(0.685682 0.0408744 -9.75632e-21)
(1.01563 0.00137431 -1.53594e-21)
(1.01565 0.00159107 3.09915e-21)
(1.01546 0.0014831 2.22907e-21)
(1.07454 0.0296471 5.62009e-22)
(1.07536 0.0301751 1.46822e-21)
(1.01084 0.000983643 7.20469e-22)
(1.01071 0.0009395 -1.43939e-22)
(1.0111 0.000955455 4.21932e-22)
(0.37923 0.0154536 -6.85551e-21)
(0.386756 0.0125144 -1.93189e-20)
(1.01019 0.00171371 -1.44994e-22)
(1.01006 0.00165261 -3.74406e-22)
(1.01005 0.00159984 -2.12462e-22)
(1.04258 0.0373978 2.17739e-21)
(1.04204 0.036948 2.40901e-21)
(1.04275 0.0368042 1.19249e-22)
(1.01304 0.0143404 9.99944e-22)
(1.01426 0.015987 2.1476e-22)
(1.00563 -0.00837492 5.88416e-23)
(1.00614 -0.00518675 1.43196e-21)
(1.00358 0.000139024 -1.37333e-22)
(1.00294 7.88684e-05 -2.26843e-22)
(1.06523 0.0501124 1.19582e-20)
(1.06626 0.0499655 -7.21185e-21)
(1.06552 0.0491493 1.09743e-20)
(1.00072 0.0508859 5.3685e-21)
(1.03559 0.0521955 -1.04191e-20)
(1.00451 0.0517805 1.03649e-21)
(1.02362 0.0122381 7.05105e-22)
(1.02346 0.012365 -3.95848e-22)
(1.02331 0.0119284 1.02479e-21)
(1.01724 0.00605376 -4.38406e-23)
(1.01714 0.00603427 -4.53391e-23)
(0.583577 0.0334442 -1.06459e-20)
(0.588938 0.0351007 -1.01044e-21)
(0.98964 0.0509028 4.02411e-21)
(0.996567 0.0510369 3.15452e-21)
(1.02889 0.0508236 -1.20504e-20)
(0.746321 0.0866782 -1.45903e-21)
(0.778714 0.0879886 -3.76274e-22)
(0.725061 0.0947804 -2.34689e-21)
(0.755279 0.0252161 -2.34537e-21)
(0.689226 0.0277082 -1.54863e-21)
(1.00837 0.000933213 -2.46409e-22)
(1.00818 0.000906153 -1.24125e-22)
(1.01931 0.00945192 5.38587e-22)
(1.01912 0.00917763 0)
(1.01938 0.00938634 0)
(0.960391 0.0475654 -2.81502e-21)
(0.955907 0.0475908 0)
(0.996151 0.0478469 0)
(1.05669 0.0345383 -1.67002e-21)
(1.05789 0.0313304 1.21258e-21)
(1.00858 0.000963528 -1.94795e-22)
(1.00826 0.000913526 -9.2454e-23)
(1.01736 -0.00318441 0)
(1.02448 0.00995709 -3.72493e-23)
(1.02476 0.0102951 6.30187e-22)
(1.02435 0.0101107 -1.30324e-22)
(1.01263 0.0441821 2.52763e-22)
(1.01027 0.0454209 -3.9336e-23)
(1.0129 0.0472079 2.31496e-22)
(1.04308 0.0377264 0)
(1.04633 0.0582614 -3.25423e-21)
(1.04788 0.0576912 -3.27924e-21)
(1.04662 0.0565666 2.7929e-22)
(1.05055 0.0411002 0)
(1.0501 0.0420933 -2.00018e-21)
(1.04924 0.0413321 -1.37137e-22)
(1.02747 0.0706158 -7.83416e-23)
(1.02662 0.0762843 9.89542e-22)
(1.07225 0.0307107 -4.16251e-21)
(1.07158 0.0311821 9.71724e-22)
(1.07238 0.0315547 -1.53306e-20)
(0.546531 0.0281668 -9.92351e-21)
(0.530232 0.0228813 -3.6869e-20)
(0.540931 0.0260355 2.39469e-21)
(1.01427 0.00355222 2.83445e-23)
(1.01412 0.00355592 -1.00444e-22)
(1.02395 0.0125515 -3.28315e-22)
(1.02378 0.0121149 9.91844e-22)
(1.01253 -0.00286034 -7.34519e-22)
(1.01097 -0.001353 2.10669e-21)
(1.06555 0.0728193 8.68525e-22)
(1.06708 0.0717926 -4.38611e-21)
(1.06779 0.0743534 1.23361e-20)
(1.00197 1.07096e-05 -1.20632e-22)
(1.00105 -1.78283e-06 -1.44394e-22)
(1.00207 8.18102e-06 -1.99549e-22)
(0.468519 0.00605351 9.69005e-21)
(1.07291 0.0303065 9.5118e-21)
(1.072 0.0300204 1.67423e-20)
(0.928273 -0.139296 2.48756e-21)
(0.939813 -0.128842 -4.82471e-22)
(1.02307 0.0108417 0)
(1.02339 0.0109578 0)
(1.05462 0.0379658 1.51313e-21)
(1.05478 0.0358984 2.8863e-21)
(1.05247 0.0371233 3.15057e-21)
(1.01575 0.00565923 8.95692e-24)
(1.01494 0.00442245 -1.37823e-22)
(0.896674 -0.0812145 0)
(0.938671 -0.0479518 -3.80137e-21)
(0.868887 -0.0858429 0)
(1.01596 0.00331077 -7.99765e-22)
(1.01637 0.00331932 1.88063e-22)
(1.0158 0.00305557 1.38374e-22)
(1.02509 0.0686076 7.58472e-22)
(1.02061 0.0245859 6.33764e-23)
(1.01153 0.01278 6.51558e-22)
(1.01097 0.0152617 -2.28187e-21)
(1.02361 0.00829932 -2.25658e-21)
(1.02405 0.00834731 1.37768e-21)
(1.07147 0.0888782 -7.55584e-21)
(1.07056 0.0897509 -7.36221e-21)
(1.0525 0.0915309 -6.9883e-21)
(1.01207 0.000867906 -3.70377e-23)