/*--------------------------------*- C++ -*----------------------------------*\
| =========                 |                                                 |
| \\      /  F ield         | OpenFOAM: The Open Source CFD Toolbox           |
|  \\    /   O peration     | Version:  v2012                                 |
|   \\  /    A nd           | Website:  www.openfoam.com                      |
|    \\/     M anipulation  |                                                 |
\*---------------------------------------------------------------------------*/
FoamFile
{
    version     2.0;
    format      ascii;
    class       surfaceScalarField;
    location    "950";
    object      phi;
}
// * * * * * * * * * * * * * * * * * * * * * * * * * * * * * * * * * * * * * //

dimensions      [0 3 -1 0 0 0 0];
oriented        oriented;


internalField   nonuniform List<scalar> 
20580
(
-0.132003
0.00980488
0.122198
0.125911
-0.248106
0.122196
0.25805
-0.132138
0.00640867
0.00246494
-0.00887362
0.582443
-0.618088
0.0356752
0.262366
-0.186695
-0.0756702
-0.299403
0.0468142
0.573094
-0.575701
0.00266001
-0.0182365
0.0148951
0.00334141
0.422151
-0.24409
-0.178059
0.143305
0.0100019
-0.153307
-0.518317
0.311113
0.207213
-0.206135
0.284287
-0.0781506
0.00568425
-0.00180452
-0.00387973
0.189145
-0.0335598
-0.155585
-0.113886
0.0991265
0.0147597
0.00834013
0.0055986
-0.0139387
-0.171321
0.35598
-0.184654
0.0977351
-0.109502
0.0117671
-0.11644
-0.0155632
0.0629414
-0.192319
0.129378
0.233632
-0.201506
-0.0321252
0.0255142
-0.0403158
0.0148017
-0.584001
0.591545
-0.0075379
0.0840794
-0.0995373
0.0154579
-0.0016298
0.115465
-0.113835
-0.0170904
-0.0639615
0.0810519
-0.0957477
0.0774689
0.0182788
-0.00834404
0.0294781
-0.0211341
0.483741
-0.322925
-0.160802
0.00549944
-0.00332911
-0.00217033
-0.224069
-0.0753326
-0.112267
0.12685
-0.0145828
0.0290611
-0.0211759
-0.00788517
-0.155364
0.1496
0.00576386
-0.0209299
-0.00756922
0.0284991
-0.615056
0.0310584
0.00868017
-0.0712364
0.0625563
0.00114957
0.000805654
-0.00195522
-0.129499
-0.161639
0.291141
-0.00669124
-0.00508911
0.0117803
-0.0320129
0.0236689
0.0154181
-0.0154181
0.0950015
-0.00220011
-0.0928014
0.0273468
-0.0355422
0.00819536
0.45004
-0.277175
-0.172857
-0.532637
-0.0697376
-0.128313
0.0476774
0.080636
-0.0509118
-0.212149
0.263062
-0.29818
0.0920449
0.0121199
-0.0123125
0.000192612
0.145661
-0.28417
0.13851
-0.0999947
-0.0138915
-0.0489158
-0.12541
0.174326
0.00859711
-0.00121212
-0.00738499
0.103261
-0.232757
0.00990789
-0.122175
-0.0105961
0.00390489
-0.0224842
0.0896297
-0.0671455
0.00209799
-0.0013569
-0.000741088
-0.352876
-0.165432
0.0704591
-0.0875495
-0.21526
-0.199469
0.41473
-0.194493
0.143583
-0.0424368
0.0908271
-0.0483902
-0.0817552
0.0393184
0.0024406
-0.000342616
-0.0937033
0.064653
0.353802
-0.248061
-0.105738
0.0043436
0.00345993
-0.00780353
0.00815341
-0.000107388
-0.00804603
0.164954
-0.185048
0.0200944
-0.0334583
-0.220696
0.254157
-0.00166943
0.000312531
0.179117
-0.0186178
-0.160499
0.220794
-0.214729
-0.00606393
0.0165848
-0.00824471
0.341082
-0.524821
0.183766
0.0989627
-0.0148832
0.448681
-0.217099
-0.231574
0.245083
0.108722
-0.104692
0.118688
-0.0139959
-0.0230971
-0.132266
-0.00279596
0.00488304
-0.00208708
-0.000639316
-0.00103011
0.00518548
-0.00720595
0.00202047
0.0657617
0.167871
0.0161539
-0.00244864
-0.0137052
0.231099
0.144878
-0.375974
0.00316027
0.00233916
0.267226
-0.121564
-0.304059
0.0799914
0.0141945
-0.0141945
0.00880777
-0.00362229
-0.0025271
0.00258283
-5.57338e-05
0.0268696
0.0701333
-0.0970028
0.146399
-0.35116
0.204768
-0.088724
0.106881
-0.0181567
0.00787367
-0.00870437
0.000830701
0.0168541
0.0968951
-0.113749
-0.109871
0.0211471
0.122621
-0.0473303
-0.0752902
0.0834491
-0.119909
0.0364603
-0.167868
-0.0805281
0.248398
-0.46871
0.131715
0.337002
0.131144
-0.171944
0.0407998
-0.164927
-0.303775
0.00776268
0.000390739
-0.0757281
-0.22833
-0.337298
0.165983
-0.00974613
0.152357
-0.142611
0.336265
0.113783
-0.103305
0.116761
-0.0134561
0.0174746
0.111467
-0.128942
-0.117317
0.109282
0.00803563
0.162384
-0.211299
0.16763
-0.396851
0.22924
0.463258
0.10989
-0.00331232
0.009721
0.00716142
-0.00281782
0.0717027
-0.102035
0.0303321
0.159146
-0.417833
0.258697
-0.275543
0.288113
-0.0125669
0.00484483
-0.00172167
-0.00312316
0.0830969
-0.112952
0.029855
0.0269176
-0.0661878
0.0392702
0.341651
-0.195245
0.0559525
0.0939655
-0.149918
0.010441
0.00443814
-0.0148792
0.146228
0.01742
-0.163648
-0.199223
-0.0022817
-0.133617
0.186453
-0.052836
-0.0772185
0.0858987
0.0178029
0.0112582
-0.00170304
0.145008
-0.00101899
-0.00265417
0.00367316
-0.0484239
-0.00567064
-0.00153531
-0.0118311
0.124328
-0.112497
-0.163528
0.0236783
0.13985
-0.108214
0.00352163
0.251053
-0.229889
-0.0211636
-0.0650196
0.296121
-0.0782946
0.00158704
0.0767076
-0.00359083
-0.0664122
0.070003
-0.0382009
0.230089
-0.191887
0.513594
-0.172485
0.00547866
0.0216412
-0.0185388
-0.00310237
-0.0655083
0.121461
-0.0564135
-0.0534575
-0.112503
0.00919761
-0.105511
0.122985
0.103878
-0.097424
-0.00645399
-0.214438
-0.0222157
0.236654
0.127003
0.18972
-0.316722
0.307838
0.215433
-0.523259
0.00126403
-0.000114461
-0.186134
0.0906871
0.0954468
-0.0502154
0.209236
-0.159019
-0.415163
-0.164919
0.580091
0.0310058
-0.0255406
-0.00546516
0.159511
-0.0283661
-0.0423685
-0.0859448
0.00254287
0.00314138
-0.0299904
0.00569082
0.0242995
-0.0211848
-0.00880558
0.0117007
0.000419173
0.155862
-0.165608
0.0521834
-0.0475268
-0.00465655
0.534516
-0.325129
-0.209378
0.436797
-0.269143
0.156912
-0.142208
-0.0147038
0.548569
-0.109729
-0.438816
-0.000701059
-0.00182604
-0.0695422
-0.0209945
0.0905367
0.0900446
-0.103973
0.0139289
0.254872
0.181947
0.183633
-0.165383
-0.0182492
0.108791
-0.0187468
0.102158
-0.0190608
0.121871
0.00824081
-0.174268
0.166028
0.183137
-0.0369081
-0.0157447
0.0157447
0.00683653
0.0148046
0.0928684
0.0339818
-0.0724113
-0.0588066
0.131218
0.228206
0.00710344
-0.235309
-0.135102
-0.240165
0.375279
-0.0769603
0.0733695
-0.129852
-0.0562812
-0.00285834
0.00105383
0.13095
0.131418
-0.225975
0.187775
-0.0963463
0.113943
-0.0175971
0.117898
-0.0250299
0.201028
0.103991
-0.305014
0.12822
-0.313268
0.185053
-0.0114976
-0.0710177
0.0825153
0.113603
-0.113026
-0.000577714
0.00226108
-0.00261121
0.000350133
0.0118195
-0.00612894
-0.00569053
0.0158266
0.173319
-0.00472412
-0.0502698
0.0549939
0.00210273
0.000158352
0.193349
-0.211755
0.0184061
0.119971
-0.134989
0.0150183
0.0187542
-0.00717475
-0.0115794
0.202437
-0.00975754
-0.192679
-0.101196
0.10498
-0.00378419
-0.243989
-0.0315516
0.00538934
-0.64607
0.39411
0.251963
-0.135265
0.160086
-0.0248209
-0.213103
0.181989
0.031115
-0.245567
-0.0526119
-0.00801922
0.0851657
-0.0771464
-0.174438
-0.139661
0.314102
-0.00189481
0.0240095
-0.20199
0.456886
0.121371
-0.108723
-0.0126478
-0.00361264
0.000816679
-0.00155321
0.00303383
-0.00148062
0.0341973
-0.13878
0.104583
0.140367
-0.0203958
0.668348
-0.36885
-0.299493
-0.0291608
-0.0491338
0.172853
-0.454852
0.282008
0.0143357
0.00281079
-0.00438644
0.00157565
0.0845736
-0.156985
-0.0356783
0.238116
-0.480454
0.219217
0.00356101
0.00825845
0.228075
0.255682
0.0728006
-0.0472864
0.00889762
-0.00446446
-0.00443316
-0.103667
0.120522
0.143977
-0.559136
-0.0400663
0.0871294
-0.0470631
0.00101704
9.3947e-05
-0.00111099
-0.00805214
0.035399
-0.0020695
0.179163
-0.177667
-0.00149555
0.063116
-0.0602921
-0.00282385
0.0817688
-0.089788
0.0285169
0.155116
0.0997996
-0.0296663
0.152999
-0.157549
0.00455018
0.00103951
-0.00869647
0.00765696
-0.105316
0.11618
-0.0108636
-0.308207
0.642923
-0.334662
0.0589534
0.153755
-0.212707
0.0105344
0.0295518
0.00145401
-0.0118675
-0.00435768
0.0162252
-0.347295
0.212205
0.0503244
0.187126
0.153144
-0.340268
0.0991036
-0.0937835
-0.00532004
0.111673
-0.10228
-0.00939251
-0.0983648
0.157319
0.144456
0.015055
-0.128857
0.0235405
-0.0924983
0.301394
-0.208892
0.0543329
0.0682877
-0.128233
0.0406996
0.0875338
0.103285
-0.0798787
-0.0234059
0.458663
-0.192529
-0.266129
-0.293136
0.0475691
0.118771
-0.0175647
0.025571
-0.00800633
0.01302
-9.00821e-05
-0.01293
0.153514
-0.017522
-0.135992
0.387531
-0.228377
0.0919979
0.0101598
-0.0976929
0.104668
-0.00697495
-0.0925358
0.117605
-0.0250692
0.158118
-0.0136625
-0.0228895
0.00532488
0.0062501
-0.00653585
0.000285756
0.146272
-0.194922
0.0486511
-0.101743
-0.0596951
0.161439
-0.0804575
0.0894564
-0.00899898
0.182058
0.167753
-0.349803
0.228121
0.293855
-0.521965
-0.111358
0.0188218
-0.0208845
0.142389
-0.121504
-0.459014
0.230298
0.22873
0.490103
0.133686
-0.623782
0.404629
-0.231769
-0.561827
0.568734
-0.00686799
-0.0180513
-0.153408
0.17146
0.53597
-0.0138957
-0.00434082
-0.0889807
0.151922
0.150716
-0.287573
0.136861
0.0086219
0.00439684
0.000447989
0.058994
0.213007
-0.272
0.00493169
0.00977221
0.000228797
-0.010001
0.0709683
0.180086
-0.181649
0.240643
-0.213384
0.124403
0.00270754
-0.0019931
-0.000714442
0.012266
0.00269138
-0.0149574
0.158383
-0.0261588
-0.132225
0.460049
0.122425
0.0520998
8.35174e-05
0.181647
0.143092
-0.149915
0.00682322
0.0100556
-0.000283385
0.0956329
-0.0853676
-0.0102653
-0.254189
0.203975
-0.094364
0.0139065
-0.00576671
0.0894651
-0.0836984
0.00517668
-0.00650869
0.00133201
0.109845
-0.00179661
-0.108049
0.0439393
-0.109627
0.0656882
-0.000881773
-0.000137215
0.00738529
-0.00324854
-0.00413675
-0.0331094
-0.0626383
0.315141
-0.186917
-0.00503605
0.014358
-0.00932191
-0.0106307
0.0106307
0.00322703
-0.0305748
0.0273477
-0.0373353
0.0405623
0.144316
0.049033
0.160975
-0.0292966
-0.131678
0.0216177
-0.155897
0.13428
0.00687906
0.0092748
0.0526476
-0.111264
0.0586165
-0.215465
-0.299094
0.5146
-0.104721
-0.427858
-0.0492124
0.179634
-0.130421
-0.00238353
0.00756021
0.0266364
0.369795
-0.187727
0.00102962
0.0506988
0.11264
-0.163339
-0.180213
0.0465962
-0.0459837
0.255221
0.00238992
0.000317623
0.0975948
-0.00559693
0.0139488
-0.0101479
-0.202954
0.18319
-0.218867
-0.0329409
0.0280773
0.00486363
0.246234
-0.0180272
0.00618514
-0.063076
0.209349
-0.125728
-0.0876557
0.139338
-0.0886389
0.332006
0.289202
-0.138482
0.117653
-0.132793
0.0151405
-0.0209016
0.117797
-0.112159
0.119626
-0.00746703
-0.0829852
-0.0237196
-0.00922134
0.190454
0.0396358
0.00276868
-0.105347
0.0906608
0.014686
-0.191949
0.430031
-0.238068
0.0938076
0.00182531
-0.106437
0.124372
-0.0179341
0.00806011
-0.000186448
0.167774
-0.216986
-0.134722
0.00717261
-0.0880679
0.0655837
-0.088123
0.0809928
0.00713022
0.112384
-0.1224
0.0100163
0.0152827
-0.0123284
-0.00295434
0.287674
-0.236463
-0.0512092
0.0203599
-0.0899021
0.00181029
0.0136078
0.0189085
-0.18317
0.164262
0.00920727
-0.00816776
-0.0295312
-0.151444
0.180975
-0.0115221
0.00450297
0.00701917
0.0815014
-0.183244
-0.0313534
-0.129287
0.118365
-0.114798
-0.00356637
0.057938
-0.0915982
0.0336602
0.306137
-0.179133
0.235951
-0.153433
-0.0825169
0.0928819
-0.113766
0.0137345
-0.294445
-0.0235934
0.318044
-0.00579007
0.159304
-0.0401603
0.00185022
0.0383101
-0.209529
0.176073
-0.0736744
-0.0613143
-0.0107935
0.0122831
-0.00148961
0.103182
-0.253901
0.150721
-0.0453532
0.112115
-0.066762
-0.15498
0.149769
0.00521151
-0.00475858
0.0170246
0.188493
-0.19825
0.12859
-0.13022
-0.0658461
0.061122
-0.00127887
0.163335
-0.155736
-0.00759931
-0.018732
0.00686445
0.000377728
-0.0874927
0.0474265
-0.278668
0.186173
0.116313
0.00133962
0.153675
-0.179546
0.0258709
-0.122494
-0.0122279
0.416532
-0.20717
-0.209353
-0.0161
0.0161
-0.00973269
0.0354381
-0.0257054
-0.0826351
0.0905295
-0.00789437
-0.0553404
0.238531
-0.0104918
0.0840614
-0.077199
-0.0068624
0.0119733
0.00104672
0.482032
-0.213492
-0.26852
-0.0154926
0.0104565
-0.107639
0.102988
0.00465154
-0.0101664
-0.0077176
0.017884
0.166703
-0.0137034
-0.0184174
-0.0717085
0.090126
-0.0411279
-0.236509
0.277638
0.566597
-0.0180058
0.000325427
0.00827168
0.0871167
-0.010523
-0.0765937
0.143823
0.27833
-0.207154
-0.0409506
-0.134685
0.0610109
-0.157258
0.4587
-0.30142
-0.0421698
0.0324371
0.0358479
0.125127
-0.122586
0.0161491
-0.222406
0.21826
0.00414688
0.0128634
0.274813
-0.328715
0.250855
0.0778599
-0.0796294
-0.00849362
-0.0782098
-0.209359
-0.0286179
-0.300097
0.0189037
-0.0678845
0.0489808
-0.0396567
-0.000503622
-0.168537
-0.0306856
0.0201392
-0.0895248
0.0693856
0.218942
-0.434202
0.51456
-0.220693
0.272145
-0.168962
0.00402122
0.125109
-0.143632
0.0185232
-0.326647
0.029878
0.296773
-0.314743
0.213297
0.101448
-0.0345977
0.1063
-0.121093
0.296527
-0.175432
-0.0259858
0.0212636
0.00472216
-0.172683
-0.377174
0.549869
-0.151849
-0.0586158
0.210466
-0.0162811
-0.0192611
0.00460094
-0.0947632
0.0901624
0.427382
-0.604242
0.176911
0.497793
-0.201608
-0.296176
-0.195834
-0.0265706
0.319304
-0.124721
-0.19458
0.085284
-0.0986887
0.0134047
-0.0630658
0.0544084
0.00865738
0.191113
-0.0119501
-0.0100183
-0.0357563
0.0457746
0.216806
0.267678
-0.485299
0.217629
-0.00809537
0.0153451
-0.00724973
-0.0679287
-0.157122
0.0829857
0.074136
-0.299556
0.272137
0.027422
0.00566362
-0.125024
0.113193
0.0703832
-0.0186414
-0.0517418
-0.236737
0.0688709
-0.169678
0.00258865
0.16709
-0.0204094
-0.195301
0.168823
0.0264779
-0.0110736
0.00782508
0.0866697
-0.00260837
-0.0924826
0.00984754
-0.233364
0.0824276
0.150937
-0.00265746
-0.15858
-0.150124
0.308708
0.00393755
-0.135583
-0.0193966
0.0383578
0.0795406
0.178715
-0.0250389
0.210647
-0.109588
0.114189
0.127615
-0.445185
-0.172879
-0.0137687
0.013044
0.000724657
0.0048315
-0.0129269
-0.0074848
-0.018501
-0.00883496
-0.000772789
0.00960775
-0.0441621
0.00648074
-0.0140701
0.00758941
0.00238741
0.148848
-0.0274998
-0.121349
0.57692
-0.302539
-0.274377
0.0469168
-0.0922699
0.14958
-0.393669
-0.373688
0.0792485
0.0181054
-0.137607
0.119502
0.0016464
0.000787154
-0.00243355
-0.0596622
-0.185227
0.244891
0.20493
-0.228118
0.0231891
-0.139731
0.0973885
0.0423429
-0.147637
0.0105325
0.137104
0.395771
-0.182934
-0.212836
-0.0278793
-0.0205799
0.0484592
0.459786
-0.285852
-0.173928
0.0168916
-0.0116332
-0.00525841
0.0870155
-0.00173148
0.166571
0.282117
-0.298728
0.205275
0.0934542
0.100707
-0.105352
0.00464514
0.017917
-0.230924
0.0660497
-0.0784877
0.012438
-0.0380936
0.0850104
-0.142382
0.356068
-0.213674
-0.00375313
0.00382289
-6.97634e-05
-0.00995328
0.107688
0.10763
-0.102491
-0.00513957
-0.0487792
-0.184584
-0.0136042
-0.0542803
-0.00390078
-0.000512386
0.00441316
-0.336771
0.194398
-0.00808437
-0.0824624
0.0905468
0.368388
-0.177521
-0.190863
0.108632
-0.0616546
0.0718375
-0.0101829
-0.00836888
-0.00315326
0.192585
-0.170155
-0.0224293
0.142891
-0.0177816
0.22919
-0.405014
0.175825
0.1178
-0.119687
0.00188657
0.0158134
-0.0053724
0.00273275
-0.00160214
-0.00113061
-0.256045
0.395421
-0.139368
-0.0162211
0.00927245
0.00694861
-0.350235
0.12033
-0.0086089
0.164409
-0.159467
-0.00494068
0.333882
0.148169
-0.0762955
-0.138432
0.00296803
-0.00256406
-0.000403976
0.116483
-0.0585449
-0.000785091
0.203418
-0.263078
-0.175493
0.32864
-0.0169034
0.0248524
-0.00794903
0.147332
0.40406
-0.551387
-0.115265
-0.00297646
0.118241
-0.177911
0.243618
-0.0657065
0.180891
-0.164623
-0.0162671
0.189521
-0.036354
-0.153166
-0.030311
0.0387316
-0.00842056
0.00662271
-0.000372615
0.0890117
-0.226997
0.137986
0.0155206
-0.0137103
0.0886622
0.179213
-0.267873
0.000708372
0.128097
-0.128806
-0.0227818
-0.00923115
0.0089446
-0.0101567
0.281942
-0.315439
0.0334992
0.142817
-0.00757221
0.0910213
-0.00298531
0.000421254
0.011123
-0.0866199
0.0754968
-0.0171898
0.13499
0.0918811
-0.0214979
0.185002
-0.0205932
-0.0760067
0.157509
-0.00325907
0.00606986
0.0411815
-0.0053317
-0.0358498
-0.0577025
0.122831
-0.065128
0.0126616
0.00422996
-0.0811691
0.0921899
-0.0110208
0.00553617
0.0266431
-0.0321793
0.309865
-0.208724
-0.101139
0.078485
0.0111447
0.0762758
-0.0946933
0.51545
-0.246698
-0.268744
0.0129296
0.00126487
0.0306834
-0.0113399
-0.0193435
0.164103
0.0196089
0.309442
-0.133495
-0.175944
-0.0470886
0.0370703
-0.111361
0.125644
-0.014283
-0.0267754
0.043574
-0.0167986
-0.261751
0.183545
0.602546
-0.0573129
-0.545214
-0.0963621
0.129802
-0.0334399
-0.13002
-0.0176169
-0.502603
0.329934
0.000945339
0.50212
0.100444
-0.0959763
0.0148072
0.222713
-0.214547
-0.00816526
0.00923945
-0.131733
-0.253992
0.173466
0.211235
0.184536
-0.132765
-0.00454984
0.137315
-0.00719532
-0.00902573
0.172787
-0.148295
-0.0244919
0.000379661
0.0167759
-0.28526
0.481795
-0.196517
-0.419005
0.0169396
0.402075
0.00498755
-0.147195
-0.147689
-0.167052
-0.0990804
0.125311
-0.0262302
-0.263998
0.17492
0.0890797
-0.11372
-0.0434013
0.085907
-0.00742207
0.322459
-0.557641
0.235185
-0.0130956
0.0152889
-0.00219325
0.313232
0.35512
-0.107423
0.0979023
0.00952076
0.0118551
0.00366551
-0.0213899
-0.00667283
0.0280628
0.0174826
0.0252274
-0.0520028
-0.0523512
-0.0873801
0.0950158
-0.113751
0.0187353
0.024389
0.00629441
0.227565
-0.377967
0.150409
-0.0412688
0.0133894
0.134258
-0.151548
0.170457
-0.000296181
-0.00853878
0.00610683
0.0842196
-0.0903265
-0.349809
0.15787
-0.124869
0.0257885
-0.106603
0.307635
-0.0233732
0.0289093
-0.0141575
0.00299219
0.0111653
0.0168974
0.191724
-0.208619
0.0531554
-0.0289693
-0.00988427
0.0388536
0.617971
-0.336044
-0.281923
0.386825
0.231149
0.127579
-0.0121141
-0.0147647
0.00166905
-0.0576993
0.0706314
-0.0129321
-0.218537
0.0368888
0.122267
-0.109891
-0.012376
0.159509
-0.2806
0.317151
-0.382494
0.0653438
0.0641643
-0.0820151
0.0178508
0.0074682
0.137226
-0.0943307
-0.0428951
0.164353
0.310162
-0.47449
-0.0638217
-0.0644117
0.0921224
0.0387129
-0.130835
0.0236136
-0.135253
0.111639
-0.265273
0.0846743
0.180599
-0.196317
-0.029657
-0.127583
0.0162221
-0.177162
0.0807996
-0.125377
0.0830085
0.0115886
0.153366
-0.124649
-0.0603989
-0.120036
0.0623332
-0.0927428
0.0741014
-0.0327942
-0.076708
0.030828
-0.0456615
0.0148335
-0.0105356
0.0765853
-0.0747793
0.0183658
0.00537959
0.00138484
-0.00676443
-0.0257003
-0.102101
0.127802
0.00953708
-0.0711917
-0.00109322
0.153188
0.18745
-0.340633
0.10413
-0.180136
-0.120275
0.0874805
-0.0141766
0.183918
-0.169741
0.218881
-0.435971
-0.450985
0.246306
0.204688
0.113325
-0.100259
-0.0130652
0.00207721
0.0132055
-0.205431
0.0535825
-0.00709066
0.0026262
0.189407
-0.474648
0.0132756
-0.0709749
-0.0387493
0.0980952
-0.0593459
0.0109998
-0.000944227
-0.0870007
-0.0378682
-0.0192868
0.207781
0.101838
0.156213
0.000774595
0.0102252
0.0766762
0.0605497
-0.143814
0.118114
0.00991778
-0.315185
0.32805
-0.0883122
0.10224
-0.0139276
0.00590158
-0.059838
-0.0361383
0.184167
-0.0281471
-0.15602
0.110634
-0.108895
-0.00173886
-0.251812
0.210686
-0.332835
-0.0308567
-0.180898
0.340515
-0.0233631
0.0299279
-0.00876862
-0.0211593
-0.410936
-0.150862
0.0831412
-0.0189769
0.00866758
-0.121859
0.0348587
0.00193569
-0.000468519
-0.00146717
-0.00364477
-0.0050596
-0.094903
0.0350651
-0.0140515
0.109067
0.166438
-0.148955
0.133642
-0.235719
-0.0574164
0.0231132
0.336805
-0.359896
-0.0014638
-0.417531
0.392409
0.146739
-0.130405
-0.0163339
-0.0245332
-0.0874029
0.111936
0.104172
-0.01205
-0.0116655
0.0891344
-0.244137
0.012443
0.231695
0.00485843
0.49097
0.106045
0.00704858
-0.00458364
0.0099734
-0.143333
0.13336
0.0484163
0.442556
0.23007
0.249119
-0.479189
-0.0185429
0.0273757
-0.0088328
0.0311229
-0.217817
0.0261999
0.0333139
-0.0595138
0.0269934
-0.00260438
0.114365
0.0926262
-0.123898
0.0312718
-0.232425
-0.148015
0.380451
0.00303206
-0.024208
0.00209672
0.158267
-0.160364
0.058529
-0.243755
0.00389195
0.345628
0.178269
-0.523896
0.0232733
-0.253161
-0.154627
-0.183282
0.337916
-0.0183333
0.1461
-0.127767
-0.00942662
0.0104875
-0.00106088
0.0285575
-0.193131
0.164574
-0.173787
0.174788
-0.00100121
-0.115789
0.00814976
0.00300581
-0.000273059
-0.173349
0.114542
0.0139389
0.137282
-0.151221
0.0317674
-0.00665901
-0.0251083
-0.35565
0.378787
0.0241981
-0.327159
-0.193336
0.520507
0.0474547
0.249074
-0.0816271
-0.0118961
0.0935232
-0.0738097
0.116135
-0.0423247
-0.0177657
-0.0995516
0.117661
-0.0131497
-0.104512
0.0170518
-0.537911
0.317097
0.220815
0.381091
0.215924
0.119343
-0.118635
0.234111
0.0757556
-0.116279
-0.421632
0.198449
-0.222398
0.0239491
0.115071
-0.00454657
-0.110525
-0.398751
0.433172
-0.0344022
0.0945201
-0.108197
0.0136771
0.0238029
-0.0621298
0.0522119
0.00991789
0.000479364
0.117182
-0.0021043
0.000224612
0.00187969
-0.00310872
0.127437
0.479271
0.120762
-0.11793
-0.00283243
-0.515586
0.235944
0.279658
0.138933
0.0970184
-0.0175804
0.0484084
0.0297112
-0.00163392
-8.72279e-05
-0.0353658
0.0287067
-0.178686
0.302387
-0.123698
-0.192468
0.209368
0.119328
-0.0777864
-0.0415417
0.223851
-0.208181
-0.015669
-0.187113
-0.192878
0.38
-0.014222
-0.0260939
0.0938785
0.00522506
0.000939452
0.00870205
-0.0096415
-0.016104
-0.115867
0.0420576
-0.347689
0.30425
0.0434407
0.00810803
-0.331022
0.102569
-0.0559716
-0.0465977
-0.0796007
-0.0429857
0.250874
0.493153
0.132848
-0.626
0.0278579
0.0814239
0.106171
-0.000272984
-0.105898
-0.00258768
-0.253592
0.039155
-0.627791
0.360599
0.267204
-0.0106572
0.00123055
-0.253271
-0.0120017
-0.0176327
-0.158561
0.176194
0.357216
-0.514448
0.000522956
0.00214159
-0.00266455
-0.475191
0.167031
-0.0177312
0.00402087
-0.284463
-0.119208
0.403673
0.0105498
-0.114217
0.17954
-0.154283
-0.0252569
0.132312
-0.0710422
-0.0612699
0.0103804
-0.313191
0.0924971
-0.262285
0.15171
0.110576
0.596063
-0.345185
-0.250854
-0.0177073
-0.064527
0.0822343
0.0740952
-0.24058
0.166485
-0.0203754
0.0160177
-0.0486603
0.254583
-0.205921
-0.0886981
0.0310177
0.0576803
-0.00660422
-0.0117228
0.018327
0.0170488
-0.175143
0.158095
-0.159552
0.410455
-0.250879
-0.000635104
-0.00816365
0.00879876
-0.0449934
-0.0113933
0.0563867
0.22565
-0.136638
0.0965814
0.0195532
0.0450472
-0.280765
-0.0163123
0.000656721
0.0156555
0.324785
-0.171592
-0.0641242
-0.0561504
0.473391
-0.226196
-0.247188
0.425383
0.170698
0.0646452
-0.0384453
0.0118542
0.287012
0.210788
-0.181389
0.0559798
-0.00499944
-0.00490124
0.00990069
-0.0532352
0.0654805
-0.0122453
-0.0402656
0.0112963
-0.131187
-0.216096
-0.00243173
0.00781132
0.117291
0.341376
-0.604853
0.206124
-0.229068
0.206853
-0.401841
0.297163
0.284028
-0.550508
0.266483
0.0363676
-0.0117423
-0.0246253
0.0500064
-0.014887
-0.0351193
-0.275948
0.101513
-0.433609
0.534071
0.144198
0.0483866
0.069297
0.266972
-0.00783132
0.00719622
-0.00163816
-0.00249489
0.00102581
-0.00190759
-0.179142
-0.083142
-0.0846773
0.247382
0.268075
-0.0292913
-0.163028
0.0688195
-0.107569
-0.142247
0.36982
0.187155
-0.514306
-0.103614
0.0928095
0.0108046
-0.0055203
-0.00863721
0.122764
-0.0301375
-0.0101461
0.151654
-0.0208847
-0.13077
-0.410059
0.210593
0.158292
-0.00910216
-0.14919
0.11756
-0.0209788
0.013349
-0.0141406
0.000791527
0.154058
-0.172109
0.0639034
0.00860371
-0.0725071
-0.117827
0.0382259
0.0594696
0.43064
0.013423
0.00844576
-0.0218687
-0.00374202
0.017165
0.00171041
0.0112654
-0.0129758
-0.0708535
-0.0571763
0.0680674
-0.0108911
-0.0968497
0.179278
0.0585027
0.00461326
-0.0229088
0.0883467
-0.0654379
-0.191556
0.17738
-0.58056
0.365138
-0.0376246
0.0348909
0.00273369
-0.234605
0.222632
0.0119752
-0.474834
0.315308
0.0351129
0.246832
-0.217952
-0.0166518
0.00131011
-0.107377
0.223631
-0.381127
0.157506
0.00761069
0.150682
-0.00201928
-0.00159336
-0.124229
-0.117452
0.241682
0.00223425
0.0135105
0.0788431
-0.220689
0.141846
0.00419014
0.104359
-0.108549
-0.000121843
0.00604992
-0.00592808
-0.287157
0.0774772
-0.0663542
-0.220269
0.114002
0.106268
0.176955
-0.159906
-0.0644827
0.0112474
-0.0215038
-0.100988
-0.00276295
0.103751
0.152204
0.00866631
-0.0136658
-0.16001
0.319797
-0.159783
0.00187546
-0.0158244
0.0139489
-0.0214674
-0.161702
0.00361968
-0.00199989
-0.00161979
-0.0137478
0.0128093
0.000938566
0.0139418
-0.0120664
0.00124763
0.128956
-0.130203
-0.143091
-0.156422
0.299515
0.119751
-0.298434
-0.32118
0.65798
-0.336796
-0.172801
0.419808
-0.112327
-0.307478
-0.00663548
-0.161625
-0.0126431
0.0221569
-0.153514
0.131357
-0.0542992
-0.119049
0.118143
-0.214992
-0.366533
0.235358
0.00175285
-0.187859
0.186107
-0.17458
0.16824
0.00634051
-0.149249
-0.149478
-0.124356
0.190119
0.0147788
0.0059225
-0.0207013
-0.0136347
-0.0675702
0.0812049
0.0242856
0.166557
-0.190842
-0.138432
-0.00404761
0.14248
-0.0283936
-0.00923099
0.228204
-0.00451854
-0.00199015
-0.556876
0.201251
0.141774
0.000244213
-0.142018
-0.134271
0.208366
-0.190544
0.354119
-0.16357
0.111306
-0.140157
0.0288516
-0.156262
0.423947
-0.148543
0.372186
-0.0605206
0.10446
-0.0914764
0.281197
0.102115
0.0129559
-0.299872
0.152185
-0.0129296
0.00110189
0.0118277
-0.0830769
0.096323
-0.0132461
0.0116805
-0.0950414
0.0833609
0.0803804
-0.0884647
0.134315
-0.326837
0.192527
0.000333549
-0.114474
0.1061
0.00837459
0.527802
0.0093385
-0.0228735
-0.205244
0.000695829
-0.00521437
0.208984
-0.207858
-0.00112562
-0.0655764
0.0663263
0.0274813
-0.0113359
0.000542484
-0.125414
0.0898951
0.0355194
0.124031
0.189482
-0.313509
-0.0383632
-0.0228104
0.0891367
0.0146612
-0.108267
-0.112002
0.320819
0.160993
-0.257383
0.386173
-0.128783
0.0620612
0.0963223
0.25401
-0.305509
0.0515005
0.000492011
-0.00439279
0.0010485
0.280972
0.29595
-0.0465454
-0.0588014
-0.104707
0.025751
0.0789557
-0.303511
0.14889
-0.00809277
0.0228716
-0.0106548
-0.00707643
0.105821
-0.0119429
-0.214756
0.166097
0.00883139
0.0299002
0.151726
-0.159484
0.476576
-0.317078
0.008348
-0.00740855
-0.13035
0.14429
0.375632
-0.259248
-0.116378
0.423934
-0.180998
-0.24293
-0.188861
0.170244
-0.163038
0.138657
0.0243815
0.0140998
-0.0212745
0.00112419
0.00203608
0.020544
0.13292
-0.153463
0.0245889
-0.00531752
-0.0192714
0.0672703
-0.213494
0.146224
0.165312
0.157698
-0.323008
-0.0855771
0.0403583
0.0452188
-0.237086
-0.21389
-0.0118743
-0.0799341
0.0918083
-0.398283
0.590552
-0.246165
-0.344367
0.129706
0.0793357
-0.209041
-0.0810704
0.00319856
-0.0183885
0.01519
-0.0137622
-0.00255005
-0.0774179
0.0900307
-0.0126128
5.83274e-05
-0.00635512
0.00629679
-0.00690936
0.0265987
-0.0196893
0.120894
0.0279542
-0.0920778
-0.207476
-0.149977
-0.149894
0.0176999
0.138046
0.495694
0.0358374
-0.53148
0.146197
-0.136223
0.0173356
-0.0308264
-0.0514222
-0.113344
0.540778
-0.1048
0.142643
-0.0378434
-0.00475726
-0.0991322
0.11009
-0.0109582
-0.00605335
-0.00936473
0.123652
-0.0999839
0.433887
-0.165525
0.0958811
-0.0915783
-0.00430283
0.0188572
0.179593
-0.00530637
-0.00957279
0.027535
-0.301727
-0.326052
0.141471
0.234168
0.440938
-0.271555
-0.169377
0.219636
-0.0376467
0.0954126
-0.0909125
-0.00450015
-0.0065425
0.0331856
0.00576881
-0.0243117
0.0559593
0.110479
0.314797
-0.471053
0.0155351
0.0867047
0.227359
0.0919475
0.0155786
-0.0872871
0.00190916
-0.00242154
0.131574
-0.113468
0.00127111
0.00800134
0.00714617
-0.00553509
0.00343079
0.0180147
0.112221
-0.130235
-0.0243655
0.178424
-0.00963798
0.00720625
0.187201
-0.162915
0.0762275
0.0896998
-0.165927
0.0878229
0.0315052
-0.019231
0.334754
-0.143648
-0.191104
0.0502961
0.0151845
0.324932
-0.159618
-0.0366711
-0.0133311
0.0500023
0.00339849
-0.373933
-0.18292
0.173934
0.147768
-0.0364621
0.105178
-0.00447123
0.180158
-0.139975
-0.0401822
-0.342441
0.550587
-0.208132
0.0283389
-0.206249
-0.173242
0.213164
-0.0399223
-0.118066
-0.115785
0.233852
0.0161085
0.0493929
-0.0655014
0.281549
-0.458269
0.176721
0.00857755
-0.0535709
0.0118986
-0.0101882
0.179689
0.145245
-0.180214
0.155849
-0.0279789
-0.135059
-0.487296
0.240604
0.030679
-0.000967822
-0.00855353
0.000557296
0.0173031
0.0035682
-0.0208713
0.210318
0.241973
-0.452284
0.0264654
-0.208821
0.182356
0.018662
0.172776
-0.191438
-0.220445
-0.0248243
0.24527
-0.0967425
0.0187702
0.0779723
0.0267501
0.383836
-0.598404
0.214569
-0.0145672
0.113467
-0.0989001
-0.131203
-0.045958
-0.072032
0.0199614
0.0520706
0.150249
0.000370638
0.0398964
-0.213138
-0.221328
0.0530117
0.168317
0.0891079
0.118207
-0.0150763
-0.10313
0.116933
-0.231907
0.367086
-0.135176
0.00818211
-0.00319986
0.00178541
0.00141445
-0.0354889
0.0253225
-0.00327636
0.0097571
-0.0489684
0.0122973
0.0034041
0.00211793
0.00150174
0.365758
-0.193096
-0.172659
-0.337572
0.162082
0.181079
0.117544
-0.298619
-0.0142994
-0.0723205
-0.10611
-0.037522
-0.114067
-0.0140011
0.0133978
0.000603272
-0.317838
0.157832
0.185108
0.335049
-0.520123
0.378771
-0.0136455
-0.0761578
0.299689
0.213927
0.132266
-0.209632
0.0773674
0.0984291
0.0920254
0.0721076
-0.0569063
-0.0152013
-0.11073
0.214846
-0.104115
-0.334482
-0.181091
-0.447661
0.255138
-0.142156
0.328834
-0.186675
0.186145
-0.619736
0.122273
-0.112272
-0.0100012
-0.0782385
-0.018504
-0.0447763
0.121004
-0.0523049
0.011436
0.0408689
-0.198882
0.34606
-0.147175
0.155092
0.00418025
-0.0221504
0.0155461
-0.0128328
0.000504453
0.072791
-0.00261629
-0.0701747
0.063371
0.0416409
-0.105012
0.0570272
0.034347
0.424368
-0.126361
0.112399
0.0139617
0.02139
-0.242717
-0.424494
0.140034
-0.185288
0.196759
-0.0114705
0.0037032
0.112129
-0.282081
0.169954
0.112974
0.00523257
-0.0773206
0.0654464
0.296694
-0.1927
-0.303088
0.112549
-0.158511
0.125075
0.0334359
0.000509608
0.368767
0.203586
-0.572352
0.0288098
0.0432977
-0.125153
0.306237
0.0748165
-0.0891159
0.463027
-0.232957
-0.0977564
-0.178188
0.0722176
-0.0632169
-0.0282443
0.0914611
0.0558465
0.228441
0.0165983
-0.0805597
0.00382667
0.00393601
-0.0904848
-0.028116
0.0093476
0.0187684
-0.34377
0.107263
0.000873085
0.012476
-0.0838614
0.0609526
-0.392677
0.300241
0.0924386
-0.00470015
-0.0868781
0.0257904
-0.104225
0.0770662
0.0271593
-0.221963
-0.192099
-0.114411
0.306515
0.43054
-0.440164
0.00964065
0.307301
0.25337
-0.0468629
-0.206505
-0.136869
0.141306
-0.00443662
-0.110484
-0.0155942
0.126078
-0.183668
0.307702
-0.212762
0.431703
-0.102182
0.0311642
-0.240789
0.418877
-0.178077
-0.0407463
0.0298977
0.0108487
-0.181079
0.0203919
0.000882976
-0.00112093
0.000237954
0.0699552
-0.103065
0.252344
-0.473532
0.221191
0.014909
0.24502
-0.530792
0.285798
0.188043
-0.0256593
0.111869
-0.127658
0.0157899
0.0866915
-0.0139005
0.130711
-0.129463
0.338253
-0.593395
0.255144
0.112524
-0.0249902
-0.0865721
0.0373008
0.0492713
0.107855
-0.103664
0.0247872
-0.102642
0.0778547
0.13346
-0.100182
-0.0332778
0.104997
-0.12953
-0.0783569
-0.0413296
0.127575
-0.00271009
-0.124865
0.0796637
-0.190393
0.224066
0.192474
0.068003
-0.00335778
0.00411941
-0.0413813
0.21333
-0.171948
-0.424159
0.264686