/*--------------------------------*- C++ -*----------------------------------*\
| =========                 |                                                 |
| \\      /  F ield         | OpenFOAM: The Open Source CFD Toolbox           |
|  \\    /   O peration     | Version:  v2012                                 |
|   \\  /    A nd           | Website:  www.openfoam.com                      |
|    \\/     M anipulation  |                                                 |
\*---------------------------------------------------------------------------*/
FoamFile
{
    version     2.0;
    format      ascii;
    class       volVectorField;
    location    "950";
    object      U_0;
}
// * * * * * * * * * * * * * * * * * * * * * * * * * * * * * * * * * * * * * //

dimensions      [0 1 -1 0 0 0 0];


internalField   nonuniform List<vector> 
13851
(
(1.1315 0.0508766 6.11897e-20)
(1.06976 -0.0238847 0)
(1.06823 -0.0229105 0)
(-0.185555 -0.0164301 5.86864e-20)
(1.00202 -0.000443268 -2.02128e-22)
(1.07932 -0.0376383 0)
(1.05734 0.010886 -1.49145e-20)
(1.01314 -0.000771275 0)
(0.308475 0.0389459 2.25285e-22)
(0.991007 -0.00693891 0)
(1.15735 -0.0979464 0)
(1.00116 -0.00806814 5.63134e-21)
(0.98039 -0.018544 0)
(0.0989346 0.0120837 0)
(1.09871 0.00864908 2.14164e-20)
(1.08538 0.0516078 -3.13052e-21)
(-0.302847 -0.0038548 0)
(1.03444 -0.0194634 0)
(1.19929 0.0389169 9.86547e-21)
(1.13298 0.0490819 -5.46968e-20)
(1.11042 0.00340918 2.26001e-20)
(1.03707 -0.0896954 0)
(0.563327 -0.275019 0)
(1.00007 -0.000212319 -4.2808e-21)
(1.19468 -0.0227788 0)
(1.08536 0.0416587 -3.07819e-20)
(1.09083 0.0683473 0)
(1.15488 0.0736463 1.11259e-20)
(0.45408 0.0361302 -1.12465e-20)
(1.02023 -0.0121772 1.71012e-21)
(-0.0810408 -0.0144707 -1.5407e-19)
(1.05752 0.0102584 0)
(1.12319 0.0518996 -3.70101e-21)
(0.379108 0.0646695 0)
(1.12641 -0.0827375 3.09636e-20)
(0.486458 0.0358145 0)
(1.00004 -0.000190597 4.64812e-21)
(1.22236 -0.142626 -1.33229e-20)
(0.0140706 0.0152747 0)
(1.00574 -0.0374701 0)
(0.201526 0.0494672 -8.51289e-20)
(0.490202 0.0396458 1.12782e-20)
(-0.234164 -0.0061459 0)
(1.09683 -0.469208 8.45426e-20)
(0.503537 0.0461328 -2.23342e-20)
(1.01404 -0.0222946 1.76432e-22)
(1.0197 -5.03906e-05 4.53299e-21)
(1.0909 0.0532764 -1.39243e-23)
(1.04413 -0.0560888 -5.41881e-21)
(0.980075 -0.0175949 -7.28576e-21)
(-0.23183 0.00254204 1.78211e-26)
(0.973304 -0.0117195 1.72184e-20)
(1.08583 0.0515993 0)
(1.07365 0.0205981 -6.6735e-21)
(0.163847 0.00928093 0)
(1.0047 -0.0377443 0)
(1.12483 0.0529214 0)
(0.167934 0.0433844 6.38465e-20)
(1.08423 0.0634708 -1.66476e-20)
(-0.0265141 0.0119144 -4.40587e-20)
(1.00107 -0.00761887 -1.80818e-21)
(1.09397 0.0672992 0)
(0.995451 -0.00225059 -8.71298e-21)
(1.04452 -0.0582911 -8.27882e-21)
(0.875681 -0.441211 1.48513e-22)
(0.857276 -0.461326 -1.79977e-22)
(-0.0477513 0.00766587 5.18157e-20)
(0.693355 -0.119757 0)
(1.01938 -0.0388688 -1.8768e-21)
(-0.151593 -0.0140059 2.15267e-19)
(-0.151227 -0.00517972 -1.73762e-19)
(1.1199 0.00728128 3.20084e-20)
(0.993285 -0.0257143 -2.37107e-21)
(-0.0285411 0.00986159 5.49955e-21)
(1.08024 0.0182247 -1.17246e-20)
(1.01927 -0.0725604 6.229e-23)
(-0.278201 -0.00603388 -8.74312e-20)
(1.02125 -0.00637295 5.90316e-21)
(1.24417 -0.0275201 0)
(1.00455 -0.0175469 0)
(1.02057 -0.0394826 -1.18137e-22)
(1.25573 -0.0854828 -9.84988e-20)
(1.12287 -0.0844202 -3.37152e-20)
(0.0875729 0.0123096 -6.4653e-20)
(-0.0107028 0.0127052 -2.41606e-21)
(-0.105262 -0.0105274 0)
(1.04027 -0.090884 -8.33101e-21)
(0.270953 0.00625717 2.6605e-20)
(0.991611 -0.0111294 -2.04234e-20)
(-0.0775533 -0.0136143 0)
(0.972067 -0.0109072 -1.69425e-20)
(1.0587 0.0100517 0)
(-0.221717 -0.005325 -9.06146e-20)
(-0.138419 -0.0102178 -8.47839e-20)
(-0.034702 0.0174341 -1.03432e-19)
(1.08107 -0.43009 0)
(1.00917 -0.0238296 -3.59486e-21)
(1.08795 0.0529336 2.35454e-20)
(-0.168329 0.00495647 0)
(1.21162 -0.190395 -4.51789e-21)
(1.08828 0.0537067 0)
(0.809992 -0.113559 -7.22215e-20)
(0.810269 -0.146363 9.06998e-20)
(0.989173 -0.0273383 -5.31175e-21)
(1.01757 -0.0220363 1.67063e-21)
(1.1258 -0.00712712 -8.71723e-21)
(1.01686 -0.0217715 -1.96932e-21)
(-0.131969 -0.00709506 1.84668e-19)
(1.05882 0.00930289 0)
(1.03354 -0.0188974 0)
(1.02486 -0.127781 -3.48603e-21)
(1.01479 -0.0227104 -4.45818e-22)
(1.20914 -0.017594 9.31267e-21)
(1.15688 -0.0446269 -5.03487e-20)
(1.11091 0.0542216 0)
(1.07302 0.0194231 1.10737e-20)
(1.01419 -0.00807554 0)
(1.0138 -0.000902239 -2.68461e-21)
(-0.201959 -0.0143366 0)
(-0.115247 -0.0174785 -8.91757e-20)
(1.10985 -0.355265 1.42879e-20)
(1.028 -0.0159919 -6.63364e-21)
(1.01456 -0.0394211 3.80328e-22)
(0.0956859 0.0295213 2.44073e-20)
(1.17573 0.0493152 5.98422e-20)
(0.61481 -0.200427 -1.17039e-19)
(1.00968 -0.0235356 4.4861e-21)
(1.12648 -0.147886 -2.46836e-20)
(0.226568 0.0513177 0)
(1.10912 0.0143177 0)
(1.03374 -0.0916224 0)
(1.09545 -0.0643191 4.17231e-21)
(1.31941 -0.158477 1.20356e-20)
(0.362228 0.0624546 0)
(1.16159 -0.0950797 0)
(-0.0454759 0.0177501 8.20802e-20)
(0.70651 -0.112218 -6.47696e-20)
(-0.12048 -0.00912812 -9.52142e-20)
(0.847712 -0.0855635 4.8741e-20)
(1.10486 0.0171026 1.28628e-20)
(1.2532 -0.0890018 9.49254e-20)
(0.974242 -0.0429068 2.62478e-21)
(0.990913 -0.0112197 1.56611e-20)
(0.74336 -0.305224 7.55391e-20)
(1.15198 0.0166615 7.85118e-20)
(1.00596 -0.0707568 -6.02539e-21)
(1.02103 -0.00595505 -6.43405e-21)
(-0.129665 -0.0112053 8.58745e-20)
(0.310657 0.0267731 1.36659e-20)
(1.13154 -0.150077 3.16923e-20)
(1.08914 0.0538299 0)
(1.20776 -0.0207555 0)
(1.16083 -0.0437143 5.65085e-20)
(1.18853 0.0367094 1.04931e-19)
(0.97212 -0.0215193 9.83448e-21)
(0.983503 -0.00796455 0)
(1.00122 -0.00641853 2.31615e-21)
(-0.0226008 0.0116319 0)
(1.10312 0.0137791 -3.39172e-20)
(1.06028 0.000892763 1.39515e-20)
(1.00014 -0.00049284 1.08537e-21)
(0.467041 0.0354362 -1.29733e-20)
(1.12309 -0.00637155 0)
(1.0918 0.0533191 0)
(0.102844 0.0107868 0)
(0.400517 0.0492996 3.67143e-21)
(0.412096 0.050906 0)
(-0.215014 0.00427685 -1.71833e-20)
(1.02561 -0.12297 1.27276e-21)
(0.730588 0.0655301 6.40758e-20)
(1.00079 -0.00703064 0)
(1.01412 -0.00767907 0)
(1.14062 -0.0102868 5.71016e-21)
(1.00106 -0.000414275 0)
(-0.00629791 0.0225064 1.05086e-19)
(1.10689 0.0746527 4.55196e-20)
(1.0944 0.0572086 7.56153e-21)
(1.0147 -0.0076432 -1.92095e-21)
(1.07852 0.019566 -2.90115e-20)
(1.09391 0.0562147 -6.44602e-21)
(1.17209 0.0487897 -6.34016e-20)
(1.10321 -0.450854 -3.39139e-20)
(1.03105 -0.116087 0)
(1.1072 0.0144436 0)
(-0.245539 -0.00661446 0)
(0.319323 0.0269037 -3.18005e-22)
(1.12166 0.0532341 0)
(0.888721 -0.0636359 -1.69381e-20)
(0.976548 -0.0223918 8.30093e-21)
(1.01848 -0.0164537 -3.61884e-21)
(1.23691 0.0120077 1.40577e-19)
(1.10391 0.0127187 0)
(0.0783625 0.00598986 0)
(1.0807 -0.035591 1.89652e-20)
(1.00778 -0.0687186 0)
(1.08684 0.0522358 0)
(1.11999 0.0522107 6.24834e-22)
(1.04465 -0.0113285 4.91773e-21)
(1.03998 -0.0276152 1.70578e-22)
(0.709386 -0.155113 0)
(1.25428 -0.0999502 6.00362e-20)
(0.028659 0.029108 -4.59576e-20)
(0.150219 0.0449602 0)
(1.09717 0.00939736 0)
(0.941599 -0.704373 -7.06257e-20)
(-0.00369216 0.0269907 0)
(0.937178 -0.0190052 -6.13291e-21)
(1.09745 0.0230215 7.31174e-21)
(0.301426 0.0410712 -2.05504e-22)
(1.07386 -0.0451112 1.63553e-22)
(1.08466 0.0512042 -4.61247e-20)
(1.01394 -0.0386057 -8.53618e-22)
(1.257 -0.0958866 -1.43997e-20)
(1.00011 -0.00211335 2.47135e-21)
(1.12987 -0.0756393 0)
(1.02277 -0.0801846 -4.10413e-21)
(0.981356 -0.016537 -6.46762e-21)
(1.14298 0.0629169 -2.94239e-20)
(1.04395 -0.0196298 8.59176e-21)
(0.153327 -0.535029 6.43816e-20)
(1.01473 -0.00723448 -4.5036e-22)
(1.1373 0.0476803 0)
(0.06719 0.00846665 6.06082e-20)
(-0.0289108 0.0187711 7.34884e-20)
(0.900613 -0.0730855 -3.17905e-20)
(1.09716 0.023888 4.63448e-22)
(1.00002 -0.00106487 -4.38736e-21)
(0.746234 -0.28397 -3.98052e-20)
(1.00138 -0.0128309 0)
(1.12664 -0.076964 1.80145e-20)
(-0.0323395 -0.0371969 -4.47125e-20)
(0.894374 -0.0643407 -2.84686e-20)
(1.0737 -0.0430412 8.46509e-21)
(0.996252 -0.000350708 0)
(0.13593 0.0437708 -1.60572e-20)
(1.02089 -0.012002 1.72334e-21)
(0.915906 -0.434341 6.99805e-20)
(0.129069 0.0408108 3.50065e-20)
(1.20403 -0.185442 7.02321e-20)
(1.0001 -0.000471362 0)
(1.28131 -0.317018 5.35807e-21)
(0.0012987 0.0125273 6.29099e-20)
(0.533879 0.0486611 1.5611e-20)
(1.08503 0.0511841 4.57871e-20)
(1.10199 -0.0138237 0)
(0.707365 -0.33694 -4.67808e-21)
(1.14272 0.0603272 2.69847e-20)
(1.07812 0.0206521 3.03421e-20)
(1.08357 -0.412223 0)
(1.04378 -0.129703 7.27758e-21)
(0.210498 0.00597535 1.05386e-20)
(1.1621 0.0316752 1.06635e-20)
(1.01017 -0.00081603 0)
(1.07928 -0.0151313 0)
(1.08725 0.0529688 -2.86493e-20)
(0.455571 0.0334725 0)
(0.342103 0.00824002 -8.06473e-21)
(1.01803 -0.015758 -1.52917e-22)
(0.590691 -0.196081 1.75312e-19)
(0.992465 -0.0119951 1.43714e-20)
(1.12221 0.0628638 2.1565e-20)
(1.17954 0.0443649 0)
(1.08102 -0.0145533 0)
(1.12318 -0.00317787 0)
(1.16536 0.0317047 0)
(0.999054 -0.0240898 0)
(0.805216 -0.123247 -8.84886e-20)
(1.09342 0.0508745 -6.04855e-21)
(1.1769 0.0781187 5.19915e-20)
(0.997669 -0.00787428 -6.61275e-21)
(0.981277 -0.0155475 0)
(0.895121 -0.0715333 7.35389e-20)
(0.396131 0.0559068 0)
(-0.252497 -0.0084625 1.78373e-21)
(1.11342 0.0081422 2.61276e-20)
(1.02898 -0.0164947 0)
(1.17088 0.0521231 4.23671e-21)
(1.18395 0.0406782 -6.57707e-20)
(1.11396 0.0503008 -1.39752e-20)
(1.1212 -0.00249171 7.89236e-21)
(0.364956 0.0517461 0)
(-0.133473 0.00538426 -8.92766e-20)
(1.0843 -0.0223784 0)
(1.09383 0.00629345 -4.2933e-20)
(1.1611 -0.173153 -5.27346e-20)
(1.01959 -0.0212227 0)
(1.00135 -0.00609001 -4.74629e-21)
(1.1157 0.0511546 9.24298e-21)
(1.14298 -0.11315 0)
(1.02222 -0.0122213 -4.96203e-22)
(1.00013 -0.00208129 2.39054e-21)
(1.00114 -0.0132 0)
(1.00416 -0.000619068 -1.17428e-22)
(1.09873 -0.00560139 -4.31996e-20)
(1.0014 -0.00649221 -4.8598e-21)
(0.31986 0.0414886 -1.37446e-20)
(1.11212 0.00470433 0)
(1.01078 -0.0317644 8.04936e-23)
(0.462355 0.032083 0)
(0.0840945 0.0271346 0)
(0.974407 -0.0170847 -8.46768e-21)
(1.13591 0.0497398 -1.94746e-20)
(-0.202808 0.00331449 1.80424e-20)
(0.973096 -0.0452237 1.17423e-20)
(0.973035 -0.0163705 9.3286e-21)
(1.11443 0.00444036 -2.90567e-20)
(0.0555556 0.00915527 0)
(0.24791 -0.00527538 3.65259e-20)
(1.14114 0.00188305 0)
(1.00223 -0.000582574 0)
(0.767215 0.0675511 -6.46374e-20)
(1.00089 -0.00746607 0)
(1.14699 0.00173827 3.08137e-20)
(-0.185904 0.00552593 0)
(1.17608 0.0809038 8.82359e-20)
(1.05912 0.000533334 0)
(1.25763 -0.205291 0)
(1.31952 -0.169157 -1.96904e-20)
(-0.102253 -0.00362477 1.42602e-19)
(1.20968 -0.0286844 -4.28563e-21)
(0.780208 -0.0921215 4.599e-20)
(-0.000340611 0.0194561 -8.43419e-20)
(0.136683 0.0382239 -2.78164e-20)
(1.17075 0.0712208 0)
(1.04127 -0.0283797 -8.61608e-21)
(-0.251533 -0.00653693 -1.01017e-19)
(0.157547 -0.000126545 3.92947e-20)
(0.461466 -0.44816 9.57145e-20)
(0.496684 -0.454005 -5.92554e-20)
(0.935554 -0.0201777 1.13767e-20)
(1.14408 -0.00560833 0)
(0.946291 -0.114807 -1.613e-20)
(0.279322 0.00701927 -2.04234e-20)
(0.785114 -0.138902 0)
(1.008 -0.00190825 -1.33032e-22)
(1.01974 -0.000121695 -4.78511e-21)
(1.06734 -0.0797614 -1.03377e-20)
(-0.129576 -0.00681973 -1.16576e-19)
(0.207071 -0.541692 -4.91856e-20)
(1.01962 -0.020441 -6.57736e-22)
(-0.044582 0.0175262 -1.06866e-19)
(0.935563 -0.112057 0)
(1.09622 -0.0672195 1.0274e-20)
(1.06051 0.00172016 0)
(0.0465889 0.006556 0)
(1.16777 0.0519871 1.46142e-20)
(1.08619 0.0522192 3.12036e-21)
(1.02055 -0.077974 3.84163e-22)
(1.07119 -0.042226 0)
(0.528932 0.0337171 0)
(0.976415 -0.0240119 9.04175e-21)
(1.18782 0.0399782 -3.44023e-20)
(1.08289 -0.0212092 0)
(1.11573 0.00319656 6.11523e-20)
(0.929704 -0.114356 -1.10508e-20)
(0.991806 -0.0119697 -7.20606e-21)
(1.01155 -0.0313681 1.58136e-21)
(1.21971 -0.0850806 0)
(1.21962 -0.186265 -2.63312e-21)
(1.15839 0.0352363 -8.97925e-20)
(1.35215 -0.172399 -6.77763e-20)
(0.538852 0.0350661 -1.66756e-20)
(1.00716 -0.072189 8.60353e-21)
(0.112259 0.0402265 -3.78646e-20)
(1.12613 0.067934 5.00898e-20)
(1.02723 -0.00859692 0)
(1.16262 0.0835915 -7.43914e-20)
(1.13145 0.034534 -1.56896e-20)
(-0.154067 0.00720891 -5.81843e-20)
(1.06538 -0.0773062 2.59287e-20)
(1.08207 0.0442005 -1.45657e-20)
(1.0828 0.0626212 0)
(1.2876 -0.0887081 0)
(1.21646 -0.0949963 0)
(0.270101 0.00718515 1.66391e-20)
(1.04457 -0.0389031 4.01956e-21)
(1.10747 0.07618 -5.48693e-20)
(-0.328766 -0.00578418 0)
(1.09759 -0.025251 0)
(0.231356 0.00977559 4.47095e-20)
(1.10441 -0.0270958 -2.09104e-20)
(0.15606 0.0413549 0)
(1.093 0.00525361 2.93915e-20)
(1.07568 0.0314641 0)
(1.16852 0.0262311 -2.34452e-20)
(1.2431 -0.163407 0)
(0.983542 -0.00888173 0)
(1.0818 -0.0273934 2.18608e-20)
(1.14718 -0.115969 3.57074e-20)
(1.07991 0.0193587 0)
(1.01229 -0.0243654 -2.5445e-22)
(1.11315 0.00997417 -2.30836e-21)
(0.64927 0.0831253 0)
(0.994077 -0.0256729 -2.77588e-21)
(1.09886 0.0220605 -7.20139e-21)
(-0.21408 -0.0155518 2.21365e-19)
(1.06452 -0.0397249 2.54733e-20)
(1.25844 -0.474985 0)
(1.08488 0.0299786 -5.27872e-20)
(0.311831 -0.00630366 3.32306e-20)
(1.07626 -0.0465218 -2.19732e-20)
(1.08497 0.0407881 1.32756e-20)
(0.918408 -0.678886 5.35986e-20)
(1.17906 0.0465081 0)
(1.12646 -0.0122873 0)
(0.323072 0.00561871 0)
(-0.0186415 0.00887904 -7.9116e-20)
(1.25123 -0.312336 0)
(0.998287 -0.0241411 -1.8778e-23)
(1.21615 -0.0818442 0)
(1.10594 -0.0335886 -4.66959e-20)
(1.08265 0.0435057 -1.40738e-20)
(1.02656 -0.0176062 -9.05048e-21)
(-0.238217 -0.00478506 0)
(0.599594 0.0796221 2.51905e-20)
(1.24965 -0.0580775 0)
(1.07081 -0.0402764 0)
(1.16827 0.0285228 0)
(1.09799 0.0689035 5.16582e-20)
(-0.238027 -0.0108206 0)
(1.02412 -0.00343521 0)
(-0.287133 -0.00416008 -1.14042e-19)
(1.2524 -0.149205 0)
(0.307392 -0.187986 1.63097e-21)
(1.04804 -0.132474 0)
(1.1678 0.0576686 4.73979e-20)
(0.987185 -0.0161285 1.07585e-20)
(1.00124 -0.000354951 0)
(0.154161 0.00690659 0)
(1.10003 0.0701446 -2.59006e-20)
(0.990316 -0.00748011 0)
(1.06963 -0.0253413 0)
(1.10049 0.0222173 0)
(1.01246 -0.00863376 -2.0087e-21)
(0.673503 0.0827261 -7.55021e-20)
(1.14405 -0.00295341 1.40717e-20)
(1.13197 0.0331343 1.45745e-20)
(1.07388 -0.00109268 0)
(1.04526 -0.0377779 -1.22886e-20)
(0.97183 -0.00571622 8.40575e-21)
(1.31825 -0.098706 0)
(1.00966 -0.0310206 0)
(0.972909 -0.00470587 1.08119e-20)
(0.886843 0.0584185 0)
(0.683229 0.0819802 1.01241e-20)
(1.03064 -0.0891527 0)
(1.08888 0.062153 1.76369e-20)
(0.99566 -0.00173882 -8.3495e-21)
(1.00151 -0.0061573 4.95604e-21)
(1.06675 -0.0406149 -2.557e-20)
(1.16113 0.0353243 8.61208e-20)
(1.08181 0.0313856 -2.31539e-20)
(1.01213 -0.0257769 3.75165e-22)
(1.05424 -0.0306352 -9.76371e-21)
(1.11131 -0.344283 -3.28282e-20)
(1.06183 -0.0181025 1.83241e-20)
(0.352632 -0.0149079 7.18829e-20)
(1.00135 -0.00755844 2.57134e-21)
(1.07355 0.00982763 -2.52873e-20)
(0.509541 0.047846 0)
(0.937129 -0.157537 -2.18376e-20)
(1.01888 -0.000730458 0)
(1.00037 -0.00651738 0)
(1.07353 -0.00204408 0)
(1.04741 -0.0103068 1.13698e-20)
(1.23509 -0.362706 3.55206e-20)
(0.807682 0.0566413 -9.59262e-21)
(1.10292 -0.0122748 -5.23899e-21)
(0.322545 -1.12306 -7.52055e-20)
(1.06838 -0.0392386 0)
(1.00009 -0.0101909 -5.69092e-21)
(0.267474 0.0504819 0)
(1.0846 0.0631473 0)
(0.876779 -0.120143 -4.11675e-20)
(0.99516 -0.0294961 -1.41603e-22)
(0.124746 0.0354249 -7.32958e-21)
(0.857065 -0.0909333 2.276e-20)
(1.18703 -0.641115 0)
(0.988561 -0.0264898 -1.09154e-20)
(1.09808 -0.0590908 1.8777e-20)
(1.22025 -0.0919613 0)
(1.08599 0.0174474 -4.25695e-21)
(0.171166 0.04384 -2.42886e-20)
(1.09638 0.0689302 -4.7919e-20)
(1.29918 -0.068184 9.22144e-21)
(0.975374 -0.0687632 -8.34078e-21)
(1.21111 -0.0251736 0)
(1.00016 -0.025367 4.58789e-21)
(0.443028 0.0344402 9.25317e-21)
(1.0854 0.0293276 4.07443e-20)
(1.11846 0.0525351 -2.36055e-20)
(1.10438 -0.0317283 3.77424e-20)
(1.02111 -0.0748528 2.24737e-22)
(0.943541 -0.155208 2.7376e-20)
(1.14094 -0.00700088 -4.83307e-20)
(1.0018 -0.000533984 9.99333e-22)
(-0.268423 -0.00660117 1.22683e-19)
(0.236812 0.0465504 0)
(0.394487 -0.0199594 -5.37011e-22)
(-0.179499 -0.0069057 -4.88414e-20)
(0.827633 0.0582922 0)
(-0.225779 0.00173987 -7.79084e-20)
(1.18346 0.0434738 7.60235e-20)
(0.911804 -0.0767837 1.03108e-21)
(0.999658 -0.0027657 -8.53262e-21)
(1.24332 -0.479659 9.43471e-20)
(0.991057 -0.00622082 5.98413e-21)
(1.01199 -0.0236991 0)
(0.905699 -0.0933623 -2.99921e-20)
(0.0179062 0.0260901 1.02246e-19)
(1.06728 -0.0172824 0)
(0.969886 -0.0381522 3.33053e-21)
(1.07193 -0.277032 -2.34936e-21)
(1.13391 -0.033735 1.73375e-20)
(0.98911 -0.00155864 -9.87166e-22)
(0.703436 0.0167388 -6.4463e-20)
(1.00789 -0.0228543 -1.53386e-21)
(0.27419 0.0557327 -6.17818e-21)
(1.22548 -0.347419 -6.65519e-20)
(1.00495 -0.0181468 0)
(1.06219 -0.00883897 -2.08037e-20)
(1.25412 -0.123089 5.48704e-20)
(1.16536 0.0805784 -9.80182e-20)
(1.0216 -0.0124791 -2.82916e-21)
(1.01576 -0.0869008 7.37951e-20)
(1.08894 -0.403272 -1.01521e-19)
(1.03127 -0.00333839 0)
(-0.0532953 0.00411891 3.31645e-20)
(1.19652 0.0391996 0)
(1.14135 0.0457307 0)
(0.973958 -0.0670335 1.07088e-20)
(0.904624 0.0601413 0)
(-0.0790065 0.00992684 3.58318e-20)
(1.03195 -0.00355503 0)
(1.22977 -0.00345893 8.82577e-20)
(1.01697 -0.0390858 0)
(1.00833 -0.0234103 -3.10889e-23)
(0.954475 0.0518732 3.36627e-20)
(0.160493 0.0414993 0)
(1.11756 -0.0325786 0)
(1.08076 0.0312105 2.19699e-20)
(0.990435 -0.00493525 -1.64274e-21)
(1.08932 0.0361812 0)
(0.258669 0.0546168 -2.55819e-20)
(-0.0242471 0.014365 -1.18657e-19)
(1.03501 -0.0066999 0)
(-0.279648 -0.000397428 -1.17232e-19)
(1.01177 -0.0251538 9.59018e-23)
(1.01819 -0.039828 0)
(1.12726 -0.0103484 -8.86161e-21)
(1.07011 0.014048 -2.38117e-20)
(1.02437 -0.00315173 -7.42606e-21)
(1.01648 -0.0726686 -4.54521e-22)
(-0.0379159 0.00364858 0)
(1.23794 -0.160137 -4.77998e-20)
(-0.0688681 0.00347031 0)
(1.06525 -0.0177325 0)
(0.992667 -0.012726 7.10917e-21)
(0.419629 0.0555614 -7.90707e-21)
(0.999436 -0.00385815 9.34588e-21)
(1.21691 -0.0722678 1.55379e-20)
(1.07725 0.00460045 -2.00196e-20)
(1.08202 0.016643 0)
(1.10297 -0.0179997 -2.87607e-20)
(0.612255 0.053993 0)
(-0.119798 0.00747075 -7.11654e-22)
(1.07983 -0.0314532 2.70344e-21)
(-0.287633 -0.00547873 1.00064e-19)
(1.05807 -0.00142781 0)
(1.15103 -0.0185434 0)
(0.49943 0.0418583 5.64577e-21)
(0.189448 0.0150056 -1.95083e-20)
(1.01075 -0.039637 0)
(0.999423 -0.0252527 0)
(0.81741 -0.155176 -7.10229e-20)
(-0.0583995 0.0039369 2.46662e-21)
(1.08522 0.0561268 1.35603e-20)
(1.08832 0.0358398 0)
(1.08217 -0.564987 1.29557e-19)
(1.07001 0.0147368 2.88178e-20)
(1.09106 0.00577793 -2.07829e-20)
(0.0651303 -0.04938 -1.76528e-19)
(0.652722 0.00858402 0)
(1.08495 -0.334516 -7.89925e-21)
(0.257859 0.0535138 1.93911e-20)
(1.10694 0.0618131 6.10364e-22)
(0.545989 0.0384888 -1.2024e-20)
(1.04046 -0.0375648 -9.89868e-21)
(1.08483 0.0632599 5.16183e-20)
(1.2247 0.0534106 7.01898e-22)
(0.999768 -0.00880755 0)
(-0.305347 -0.00129913 0)
(0.453153 0.0462522 0)
(1.03072 -0.121261 0)
(1.10671 0.0165401 0)
(1.0015 -0.0348431 -5.87083e-21)
(0.472481 -0.838582 0)
(1.14108 -0.182951 0)
(0.614743 -0.19559 -1.75813e-19)
(1.00897 -0.0315211 0)
(1.00074 -0.00048917 0)
(0.909852 -0.0446157 0)
(1.13266 -0.0363821 2.16925e-20)
(1.00141 -0.00728617 2.45044e-21)
(-0.0125106 0.0234009 -1.10039e-19)
(1.00087 -0.000582205 -5.36566e-22)
(1.10842 0.0613517 1.16135e-20)
(0.968769 -0.065433 9.82081e-22)
(1.08342 0.0438595 -7.82436e-21)
(0.990108 -0.0270079 -5.52943e-21)
(0.988382 -0.00167182 1.24096e-21)
(1.0907 -0.15743 -4.24974e-20)
(-0.277856 -0.0023326 -1.09552e-19)
(1.12814 -0.0172096 0)
(-0.05963 0.0171702 0)
(1.09844 -0.0620931 -5.07116e-21)
(1.01264 -0.00964015 -9.3229e-22)
(1.03005 -0.0110367 -7.88561e-21)
(1.14331 -0.0119904 2.50875e-20)
(1.05313 -0.0315815 -6.85038e-21)
(1.18461 -0.029737 0)
(1.07137 -0.0192375 1.88975e-21)
(0.876734 -0.112455 -2.22535e-20)
(1.08195 0.0618198 -7.44236e-21)
(0.999318 -0.0035824 -9.58049e-21)
(0.343961 0.00357599 2.90488e-20)
(1.00006 -0.00144348 0)
(1.08376 0.0479283 4.81955e-21)
(-0.270658 -0.00536315 -1.10712e-19)
(0.467798 0.0508251 -1.21139e-20)
(0.881675 -0.024967 0)
(0.826885 -0.276691 1.41308e-19)
(1.06085 -0.276447 -1.85527e-20)
(1.21857 -0.2382 1.28685e-19)
(0.42254 0.0473375 -2.37026e-20)
(1.03733 -0.00777924 -8.84577e-21)
(0.611266 0.0146358 5.5247e-20)
(0.940893 -0.116878 3.74309e-20)
(1.10008 -0.0252465 0)
(-0.167897 -0.0089312 0)
(1.27442 0.00238692 0)
(1.02766 -0.00906055 0)
(1.18256 -0.0320619 0)
(1.044 -0.0105529 4.97702e-21)
(0.511655 0.034937 1.20932e-20)
(-0.249957 0.000898107 0)
(1.02323 -0.0412592 8.64017e-23)
(0.691709 -0.14486 0)
(0.663873 0.0793281 8.51764e-20)
(0.999984 -0.00119854 5.70631e-21)
(0.999977 -0.00160882 -7.05521e-21)
(1.08485 0.0421758 3.84054e-20)
(0.32542 0.00125299 -1.63129e-20)
(0.979462 0.0634526 -4.76052e-21)
(0.973268 -0.014993 7.4809e-21)
(1.17271 0.0219088 1.80989e-20)
(1.06014 -0.018059 -8.8377e-21)
(0.987256 -0.00267329 2.08735e-20)
(1.0813 0.0606081 0)
(1.17218 0.0246194 2.58179e-20)
(1.21336 -0.172005 -3.4961e-20)
(1.02283 -0.00288276 3.7734e-21)
(1.09443 0.050798 2.26225e-20)
(0.90553 -0.204392 -4.29232e-21)
(1.08364 0.0393513 0)
(0.956874 -0.0172452 3.50942e-20)
(1.00648 -0.0660971 0)
(1.13361 -0.182903 0)
(0.914019 -0.0457515 0)
(1.09225 0.0521153 2.44194e-20)
(1.11751 0.00818433 -3.88992e-21)
(1.12043 0.00513668 1.69399e-20)
(1.07343 -0.322152 6.78049e-21)
(1.17358 -0.647738 1.83854e-20)
(1.20143 0.0356148 0)
(0.727871 0.0739675 7.82924e-21)
(1.11727 -0.0938201 0)
(1.08969 0.0533972 0)
(0.128337 0.0187496 -2.16217e-20)
(1.02105 -0.173587 0)
(0.924894 0.0518111 -3.87253e-20)
(1.14008 0.0480001 0)
(1.03107 -0.0204248 5.18406e-21)
(1.09003 0.00473335 0)
(1.19771 0.032258 -1.87613e-20)
(1.05503 -0.0855029 0)
(1.00464 -0.0169087 3.01895e-21)
(1.00515 -0.0160252 6.10593e-21)
(1.08487 0.04781 -2.15918e-20)
(0.263376 0.00436776 4.4579e-21)
(1.07491 0.00971246 2.13534e-20)
(0.0937619 0.0362932 3.94626e-20)
(1.01244 -0.0100069 2.26722e-23)
(0.949497 0.0640044 5.09124e-21)
(0.999415 -0.36648 0)
(-0.21258 0.00305722 0)
(1.18307 -0.0372669 0)
(1.07846 -0.0459199 2.4245e-20)
(1.0688 -0.021315 0)
(-0.199572 0.00570668 0)
(1.21509 -0.166561 0)
(1.0215 -0.166772 -3.01495e-21)
(1.09793 0.0701946 1.31792e-20)
(1.04402 -0.0357742 1.06127e-20)
(1.26055 -0.433746 -1.30866e-19)
(1.08438 0.04807 -1.03967e-20)
(1.11021 0.0619417 -2.29175e-21)
(1.10337 -0.0432052 0)
(1.26866 -0.136199 1.17875e-19)
(0.987909 -0.0165622 6.05863e-21)
(1.00007 -0.00169287 0)
(0.940482 -0.0186652 -2.1487e-20)
(0.986604 -0.00344005 -1.56215e-20)
(0.480801 0.0414685 5.99627e-21)
(1.00392 -0.00075759 1.2572e-21)
(1.07964 0.0595199 0)
(0.38459 0.0531751 8.01726e-21)
(1.18652 -0.0388674 -1.28705e-20)
(-0.00774421 0.0171497 0)
(-0.154563 0.0061734 0)
(1.11127 0.062848 1.98228e-20)
(1.2273 -0.234244 -8.42533e-20)
(0.884523 -0.0323754 3.20468e-20)
(0.998592 -0.000151121 0)
(0.982518 -0.0148158 -6.68095e-21)
(1.02014 -0.00647539 0)
(1.02934 -0.0110883 5.71752e-21)
(1.00102 -0.000541245 0)
(1.14918 -0.0122775 3.57135e-20)
(1.20275 -0.0110934 0)
(0.902268 -0.215873 0)
(1.17824 0.0732436 -4.43411e-20)
(1.02222 -0.0623017 0)
(0.294135 0.038671 -1.76718e-20)
(0.999979 -0.000152325 0)
(-0.154722 -0.0197691 -1.79796e-19)
(1.11564 -0.0894431 9.10353e-21)
(0.999932 -0.000299485 0)
(0.996984 -0.000674687 -7.04703e-21)
(0.450346 0.0514515 -2.92623e-20)
(1.08022 -0.0393718 5.36228e-21)
(0.989705 0.0719278 1.33407e-20)
(0.47162 0.0458954 8.40407e-20)
(1.10343 0.0161573 -1.83783e-20)
(1.12649 0.0217231 -6.1609e-20)
(1.03085 -0.00252238 1.27575e-20)
(0.341241 0.0604243 -2.07275e-20)
(0.984088 -0.0794764 0)
(1.06833 -0.018494 5.49305e-21)
(1.08273 0.0615389 0)
(0.998626 -0.000643015 4.39816e-23)
(0.97318 -0.0411544 0)
(1.03477 -0.0120959 -6.23172e-21)
(1.08737 0.0282395 0)
(0.237846 0.00649037 9.92581e-21)
(1.08976 -0.0585547 0)
(1.10426 -0.0380964 -2.01859e-20)
(1.25614 -0.156227 0)
(-0.0563318 0.0126204 9.08788e-20)
(0.886044 -0.0545728 0)
(0.986007 -0.102758 -6.53167e-22)
(0.530813 0.0410491 1.40201e-20)
(1.01973 -0.00627562 0)
(0.51982 0.0396032 -1.0573e-20)
(1.00039 -0.00122423 0)
(1.06236 -0.0166013 0)
(1.24954 -0.0208535 1.67745e-20)
(1.10195 0.0421704 -2.73287e-21)
(1.11241 0.053356 7.11365e-21)
(1.18525 -0.095436 -2.70083e-20)
(1.12889 -0.0148664 9.74333e-21)
(0.99951 -0.000915254 -5.32394e-21)
(0.999988 -0.000159166 -3.80555e-21)
(1.15471 -0.0176573 6.40469e-20)
(1.04198 -0.0374778 -5.48172e-21)
(0.999633 -0.000744732 0)
(1.07363 0.0133865 0)
(1.24544 -0.196709 -3.32753e-21)
(1.00463 -0.00550411 1.89317e-21)
(1.20631 -0.252141 0)
(1.27885 -0.462252 0)
(1.03068 0.0702198 0)
(1.18369 -0.090984 0)
(-0.0375094 -0.0223371 -1.76952e-22)
(0.838298 -0.0884939 -6.99334e-21)
(0.99845 -0.000453351 0)
(1.21539 -0.105905 0)
(1.01189 -0.0104367 4.18079e-22)
(1.0824 -0.0255033 0)
(0.7739 0.0768858 1.32637e-20)
(0.54933 0.0339026 0)
(0.60206 0.0146275 0)
(0.570461 0.0449606 -2.73616e-21)
(1.02691 -0.0416369 -3.18899e-21)
(1.02313 -0.0404449 -8.67187e-23)
(0.977617 -0.274665 -2.41157e-21)
(1.00298 -0.0634941 4.64402e-21)
(1.02166 -0.0188801 -1.26569e-22)
(0.588216 -0.300084 8.94043e-20)
(1.12022 0.0640084 -3.48424e-22)
(0.218893 0.0119372 0)
(1.08342 0.0482062 -3.23823e-22)
(1.10312 0.0426714 0)
(0.985187 -0.0052968 1.98391e-20)
(1.02002 -0.012649 2.66765e-22)
(1.30376 -0.325347 1.00814e-19)
(1.13404 0.0318055 -6.35186e-20)
(1.06431 -0.0164456 0)
(0.999803 -0.000152767 4.26363e-21)
(1.10941 0.0537292 1.94849e-20)
(1.2202 -0.0398341 -7.9315e-20)
(0.105959 0.036991 -3.94874e-20)
(0.972289 -0.0196078 -9.47236e-21)
(1.00091 -0.00334285 3.28602e-21)
(0.219181 0.00420073 -2.76525e-20)
(0.958006 -0.015893 -2.88686e-20)
(1.1037 -0.022578 2.08132e-20)
(1.01209 -0.00815913 -4.98333e-22)
(0.0377371 0.0282223 -7.18155e-20)
(1.00962 -0.000474503 -6.21235e-22)
(-0.26189 -0.00809782 0)
(0.994769 -0.00527673 2.39421e-21)
(1.19593 -0.189429 0)
(1.10838 -0.00243029 2.52012e-20)
(0.954225 -0.278626 3.32393e-21)
(1.10523 -0.0414972 2.34436e-20)
(0.992646 -0.0247396 8.84035e-21)
(1.06939 -0.0280473 -9.08285e-21)
(1.00328 -0.00393453 1.91617e-21)
(1.07833 0.0578024 -8.63641e-21)
(0.960995 -0.0250064 1.47389e-20)
(0.362626 0.0114198 6.93521e-21)
(1.04611 -0.0349689 -1.15344e-20)
(1.02995 0.0898876 0)
(0.310105 0.0523731 -3.0557e-20)
(1.09924 -0.0476997 -2.02604e-20)
(1.00388 -0.00282449 -1.88002e-21)
(-0.187788 -0.0205583 0)
(0.807095 0.0595497 0)
(1.08212 -0.0313364 -2.97889e-20)
(1.10043 0.0423172 -5.15383e-20)
(0.982562 -0.0138694 0)
(0.297114 0.00462331 3.59781e-20)
(1.03193 -0.0210844 0)
(1.19975 0.0295435 2.18807e-20)
(0.999102 -0.00958011 0)
(1.00356 -0.00410676 -1.08981e-21)
(1.02499 0.0747159 -2.46958e-20)
(1.10369 -0.0162509 4.5226e-20)
(1.00042 -0.00698845 4.32026e-21)
(1.07479 0.0207357 -4.28132e-21)
(0.164802 0.0449987 -6.8e-20)
(0.725793 -0.79009 -1.91709e-20)
(0.614 0.0772756 -5.44182e-20)
(1.01719 -0.0157421 1.03725e-21)
(0.146497 0.0218943 3.0562e-20)
(0.997426 -0.00833311 3.77787e-21)
(1.00443 -0.00519033 -1.72497e-21)
(0.973572 -0.0224459 -9.64186e-21)
(1.01973 -0.000204486 0)
(0.999875 -0.00219325 0)
(0.55823 0.0686268 -4.64148e-20)
(0.743544 0.0785455 0)
(1.04447 -0.020649 -1.14645e-20)
(1.0009 -0.00079797 5.26804e-24)
(1.11878 -0.0297707 0)
(1.01534 -0.0225983 1.07824e-21)
(-0.156021 -0.0247716 0)
(1.21917 -0.102252 9.18143e-21)
(0.10934 0.0142871 -4.5829e-21)
(0.0125766 0.0192369 0)
(1.06898 -0.0291146 0)
(1.09309 0.0520909 0)
(0.999778 -0.00933161 5.17372e-21)
(1.11061 0.00103229 -2.99901e-22)
(0.99398 -0.348896 5.46111e-21)
(1.03665 -0.00717049 9.31806e-21)
(1.00034 -0.00120515 3.96664e-22)
(1.28954 -0.300761 0)
(-0.239368 0.00149159 0)
(1.12434 0.0218606 3.63512e-20)
(-0.328099 -0.00739359 0)
(1.10814 0.0298533 0)
(0.995767 -0.00259306 1.34436e-20)
(1.12252 -0.0412598 0)
(1.09967 0.0429086 4.59443e-20)
(-0.291219 -0.00199227 -1.06784e-19)
(1.09669 -0.00667353 4.71012e-21)
(1.1008 0.0704577 -4.68288e-20)
(1.13643 0.0320901 6.90939e-20)
(1.00021 -0.00232091 0)
(0.396234 -0.122997 0)
(0.291001 -0.0866425 0)
(0.269286 0.0111009 -1.92466e-20)
(1.26381 0.00439653 -7.43951e-20)
(0.964117 0.0501459 2.30369e-20)
(0.978282 -0.0696308 3.86512e-21)
(0.728324 -0.350243 -5.68912e-20)
(0.972317 -0.00295763 4.70597e-21)
(1.14179 0.0845173 0)
(1.054 -0.0822467 0)
(1.00783 -0.00151875 -2.88009e-22)
(0.564964 0.073453 -6.55619e-20)
(1.01854 -0.0614051 3.36094e-24)
(1.0038 -0.00259266 -3.72006e-23)
(1.01201 -0.0396895 -9.22387e-22)
(1.01716 -0.0596957 4.78273e-22)
(0.00617118 0.0256174 1.00104e-19)
(1.19253 0.0360716 -3.5389e-20)
(1.01165 -0.0145682 -1.51811e-22)
(1.12438 -0.0386349 0)
(0.0710834 0.0102052 7.41077e-21)
(1.03602 -0.0564777 -4.85776e-21)
(-0.343313 -0.00530564 7.65706e-20)
(0.957131 -0.0416769 -1.95049e-20)
(1.10791 0.0389455 -5.2869e-20)
(0.12293 0.0386749 -3.78792e-20)
(1.00122 -0.00671495 2.77222e-21)
(1.08205 0.0564984 -1.49438e-20)
(1.06371 -0.0970625 3.86155e-22)
(1.10222 -0.0486764 0)
(0.681504 -0.817414 0)
(1.02091 -0.0607852 0)
(1.25019 -0.0754315 -1.19369e-19)
(1.08389 0.0404766 -2.50501e-20)
(0.209608 0.0502626 3.238e-20)
(1.04555 -0.00515447 1.06742e-20)
(0.319703 0.00943928 2.21697e-21)
(1.09641 -0.0276081 3.4967e-20)
(0.0621447 0.0210918 8.53915e-21)
(-0.278023 -0.000301024 -9.66522e-20)
(0.297363 0.00563346 -2.41897e-21)
(1.1011 0.0185456 0)
(0.989718 -0.0230849 -5.14347e-21)
(1.02626 -0.0427793 -1.49732e-21)
(0.999966 -0.00115597 0)
(1.07505 0.0304524 1.71555e-20)
(0.996958 -0.00251058 -7.44533e-21)
(0.18411 0.0457878 2.82754e-20)
(1.02721 -0.113162 3.05093e-21)
(0.924834 -0.0851989 1.00784e-20)
(0.888973 -0.0512196 6.20711e-22)
(0.980345 -0.0682921 -1.21501e-20)
(1.0168 -0.0151891 7.44236e-23)
(1.06421 0.0158089 0)
(1.06078 -0.0832504 0)
(1.0621 -0.0100124 1.23999e-20)
(1.04105 -0.0943718 9.7504e-21)
(0.347164 0.045914 0)
(1.0777 0.0560766 1.70646e-20)
(1.09355 -0.0193995 -1.65663e-20)
(1.11017 -0.146917 -9.68555e-21)
(0.596015 0.0721557 5.95016e-20)
(0.970508 -0.0406345 0)
(-0.112764 -0.00222203 1.55777e-19)
(1.01913 -0.00624028 2.88114e-21)
(1.02837 -0.136838 -3.90882e-21)
(0.959237 -0.0236832 2.3299e-22)
(1.0224 -0.0275808 4.28161e-21)
(1.07555 -0.160933 0)
(0.999884 -0.0105355 5.72889e-21)
(1.01193 -0.014224 1.51451e-22)