/*--------------------------------*- C++ -*----------------------------------*\
| =========                 |                                                 |
| \\      /  F ield         | OpenFOAM: The Open Source CFD Toolbox           |
|  \\    /   O peration     | Version:  v2012                                 |
|   \\  /    A nd           | Website:  www.openfoam.com                      |
|    \\/     M anipulation  |                                                 |
\*---------------------------------------------------------------------------*/
FoamFile
{
    version     2.0;
    format      ascii;
    class       volVectorField;
    location    "550";
    object      cellDisplacement;
}
// * * * * * * * * * * * * * * * * * * * * * * * * * * * * * * * * * * * * * //

dimensions      [0 1 0 0 0 0 0];


internalField   nonuniform List<vector> 
13851
(
(0 -0.0399679 0)
(0 -0.0386175 0)
(0 -0.0385376 0)
(0 -0.0400046 0)
(0 -0.00186674 0)
(0 -0.0390774 0)
(0 -0.0382603 0)
(0 -0.00362124 0)
(0 -0.0400045 0)
(0 -0.0306105 0)
(0 -0.0398941 0)
(0 -0.0202993 0)
(0 -0.0358029 0)
(0 -0.0400046 0)
(0 -0.0396348 0)
(0 -0.0399697 0)
(0 -0.0400047 0)
(0 -0.03461 0)
(0 -0.0399912 0)
(0 -0.0399656 0)
(0 -0.0397213 0)
(0 -0.039233 0)
(0 -0.0400041 0)
(0 -0.000808223 0)
(0 -0.0399994 0)
(0 -0.0398719 0)
(0 -0.0399942 0)
(0 -0.0399989 0)
(0 -0.0400044 0)
(0 -0.027855 0)
(0 -0.0400044 0)
(0 -0.0382238 0)
(0 -0.0399649 0)
(0 -0.040004 0)
(0 -0.0397843 0)
(0 -0.0400043 0)
(0 -0.000708067 0)
(0 -0.0400002 0)
(0 -0.0400043 0)
(0 -0.0360849 0)
(0 -0.0400043 0)
(0 -0.0400042 0)
(0 -0.0400047 0)
(0 -0.0399993 0)
(0 -0.0400041 0)
(0 -0.0320405 0)
(0 -0.00626662 0)
(0 -0.0399674 0)
(0 -0.0384665 0)
(0 -0.0357464 0)
(0 -0.0400047 0)
(0 -0.0364183 0)
(0 -0.039968 0)
(0 -0.0393592 0)
(0 -0.0400047 0)
(0 -0.0361617 0)
(0 -0.0399676 0)
(0 -0.0400044 0)
(0 -0.0399947 0)
(0 -0.0400047 0)
(0 -0.0195822 0)
(0 -0.0399927 0)
(0 -0.0249262 0)
(0 -0.0385542 0)
(0 -0.0399955 0)
(0 -0.0399973 0)
(0 -0.0400047 0)
(0 -0.0399672 0)
(0 -0.0364167 0)
(0 -0.0400046 0)
(0 -0.0400045 0)
(0 -0.039807 0)
(0 -0.0347541 0)
(0 -0.0400047 0)
(0 -0.0394584 0)
(0 -0.038742 0)
(0 -0.0400047 0)
(0 -0.0237406 0)
(0 -0.0399988 0)
(0 -0.0294737 0)
(0 -0.0365539 0)
(0 -0.0399909 0)
(0 -0.0397733 0)
(0 -0.0400046 0)
(0 -0.0400047 0)
(0 -0.0400044 0)
(0 -0.0392741 0)
(0 -0.0400047 0)
(0 -0.0313517 0)
(0 -0.0400044 0)
(0 -0.0365302 0)
(0 -0.0383226 0)
(0 -0.0400047 0)
(0 -0.0400045 0)
(0 -0.0400045 0)
(0 -0.0399963 0)
(0 -0.0325482 0)
(0 -0.0399705 0)
(0 -0.0400047 0)
(0 -0.0399787 0)
(0 -0.0399731 0)
(0 -0.039897 0)
(0 -0.0399189 0)
(0 -0.0356046 0)
(0 -0.0323152 0)
(0 -0.0397933 0)
(0 -0.0320796 0)
(0 -0.0400045 0)
(0 -0.0382932 0)
(0 -0.0343401 0)
(0 -0.039618 0)
(0 -0.0323102 0)
(0 -0.0399752 0)
(0 -0.0398824 0)
(0 -0.0399661 0)
(0 -0.0393146 0)
(0 -0.0214541 0)
(0 -0.00439946 0)
(0 -0.0400046 0)
(0 -0.0400045 0)
(0 -0.0399894 0)
(0 -0.0323153 0)
(0 -0.0364292 0)
(0 -0.0400046 0)
(0 -0.0399877 0)
(0 -0.0399898 0)
(0 -0.0323479 0)
(0 -0.0398844 0)
(0 -0.0400044 0)
(0 -0.039775 0)
(0 -0.0392494 0)
(0 -0.0395251 0)
(0 -0.0399994 0)
(0 -0.0400041 0)
(0 -0.0399015 0)
(0 -0.0400045 0)
(0 -0.0399606 0)
(0 -0.0400045 0)
(0 -0.0398126 0)
(0 -0.0397602 0)
(0 -0.0399896 0)
(0 -0.0380218 0)
(0 -0.0316898 0)
(0 -0.0399874 0)
(0 -0.0399994 0)
(0 -0.0386768 0)
(0 -0.0230999 0)
(0 -0.0400045 0)
(0 -0.0400046 0)
(0 -0.039895 0)
(0 -0.0399725 0)
(0 -0.0399729 0)
(0 -0.0398929 0)
(0 -0.0399864 0)
(0 -0.0370282 0)
(0 -0.034068 0)
(0 -0.0170772 0)
(0 -0.0400044 0)
(0 -0.0397257 0)
(0 -0.0380878 0)
(0 -0.00183002 0)
(0 -0.0400043 0)
(0 -0.0397808 0)
(0 -0.0399666 0)
(0 -0.0400047 0)
(0 -0.0400043 0)
(0 -0.0400043 0)
(0 -0.0400047 0)
(0 -0.0395826 0)
(0 -0.0400023 0)
(0 -0.0186688 0)
(0 -0.020862 0)
(0 -0.0398582 0)
(0 -0.00164681 0)
(0 -0.0400044 0)
(0 -0.0399938 0)
(0 -0.039977 0)
(0 -0.0209445 0)
(0 -0.0394492 0)
(0 -0.0399748 0)
(0 -0.0399862 0)
(0 -0.0399983 0)
(0 -0.0395358 0)
(0 -0.0397618 0)
(0 -0.0400047 0)
(0 -0.0400046 0)
(0 -0.0399667 0)
(0 -0.0396327 0)
(0 -0.036619 0)
(0 -0.0299434 0)
(0 -0.0399985 0)
(0 -0.0397226 0)
(0 -0.0400046 0)
(0 -0.0390958 0)
(0 -0.0385919 0)
(0 -0.0399693 0)
(0 -0.0399635 0)
(0 -0.0358828 0)
(0 -0.0364478 0)
(0 -0.0399679 0)
(0 -0.0399895 0)
(0 -0.0400045 0)
(0 -0.0400044 0)
(0 -0.0396222 0)
(0 -0.0400038 0)
(0 -0.0400045 0)
(0 -0.0388087 0)
(0 -0.03975 0)
(0 -0.0400045 0)
(0 -0.0390171 0)
(0 -0.0399691 0)
(0 -0.0362731 0)
(0 -0.0399907 0)
(0 -0.00693556 0)
(0 -0.0397908 0)
(0 -0.0389776 0)
(0 -0.0354506 0)
(0 -0.0399852 0)
(0 -0.0362489 0)
(0 -0.0400046 0)
(0 -0.0203753 0)
(0 -0.0399659 0)
(0 -0.0400046 0)
(0 -0.0400045 0)
(0 -0.0396092 0)
(0 -0.0397614 0)
(0 -0.00362053 0)
(0 -0.0399841 0)
(0 -0.0263555 0)
(0 -0.0397773 0)
(0 -0.0400044 0)
(0 -0.0396098 0)
(0 -0.0389852 0)
(0 -0.0231924 0)
(0 -0.0400044 0)
(0 -0.0280448 0)
(0 -0.0400038 0)
(0 -0.0400044 0)
(0 -0.0399747 0)
(0 -0.00172121 0)
(0 -0.0399991 0)
(0 -0.0400047 0)
(0 -0.040004 0)
(0 -0.039967 0)
(0 -0.0395386 0)
(0 -0.039993 0)
(0 -0.0399829 0)
(0 -0.0394637 0)
(0 -0.0399947 0)
(0 -0.03966 0)
(0 -0.0400047 0)
(0 -0.0399666 0)
(0 -0.00396953 0)
(0 -0.0390023 0)
(0 -0.0399719 0)
(0 -0.0400044 0)
(0 -0.0400047 0)
(0 -0.0295093 0)
(0 -0.0399919 0)
(0 -0.0311631 0)
(0 -0.0399814 0)
(0 -0.0399865 0)
(0 -0.0390569 0)
(0 -0.0397897 0)
(0 -0.0399692 0)
(0 -0.0334428 0)
(0 -0.0399075 0)
(0 -0.0399556 0)
(0 -0.0399979 0)
(0 -0.0245126 0)
(0 -0.0353537 0)
(0 -0.0396301 0)
(0 -0.0400042 0)
(0 -0.0400047 0)
(0 -0.0397692 0)
(0 -0.0327232 0)
(0 -0.0399872 0)
(0 -0.0399865 0)
(0 -0.039957 0)
(0 -0.0397789 0)
(0 -0.0400043 0)
(0 -0.0400047 0)
(0 -0.0391579 0)
(0 -0.0395446 0)
(0 -0.0400009 0)
(0 -0.0322284 0)
(0 -0.0164265 0)
(0 -0.0399602 0)
(0 -0.0398754 0)
(0 -0.0287478 0)
(0 -0.00679666 0)
(0 -0.0268275 0)
(0 -0.00250022 0)
(0 -0.039529 0)
(0 -0.0172048 0)
(0 -0.0400045 0)
(0 -0.0397428 0)
(0 -0.0349291 0)
(0 -0.0400044 0)
(0 -0.0400046 0)
(0 -0.0365405 0)
(0 -0.0399682 0)
(0 -0.0400047 0)
(0 -0.0381594 0)
(0 -0.0366564 0)
(0 -0.0397621 0)
(0 -0.0400047 0)
(0 -0.0400036 0)
(0 -0.0398836 0)
(0 -0.00238257 0)
(0 -0.0400021 0)
(0 -0.0194297 0)
(0 -0.0398998 0)
(0 -0.0400047 0)
(0 -0.0399977 0)
(0 -0.0379781 0)
(0 -0.0400004 0)
(0 -0.0399979 0)
(0 -0.0400044 0)
(0 -0.0399723 0)
(0 -0.0399118 0)
(0 -0.0400044 0)
(0 -0.0400045 0)
(0 -0.0399985 0)
(0 -0.036647 0)
(0 -0.0400046 0)
(0 -0.0400047 0)
(0 -0.0400033 0)
(0 -0.0400028 0)
(0 -0.0388618 0)
(0 -0.0398783 0)
(0 -0.0396216 0)
(0 -0.0400047 0)
(0 -0.0399312 0)
(0 -0.00659908 0)
(0 -0.00709393 0)
(0 -0.0393442 0)
(0 -0.0400045 0)
(0 -0.0400046 0)
(0 -0.0319811 0)
(0 -0.0400045 0)
(0 -0.039641 0)
(0 -0.0395475 0)
(0 -0.0381399 0)
(0 -0.0400046 0)
(0 -0.039986 0)
(0 -0.0399709 0)
(0 -0.038909 0)
(0 -0.0389043 0)
(0 -0.0400042 0)
(0 -0.0367548 0)
(0 -0.0399877 0)
(0 -0.0391193 0)
(0 -0.0397638 0)
(0 -0.0396685 0)
(0 -0.0314972 0)
(0 -0.0348347 0)
(0 -0.0399733 0)
(0 -0.0399811 0)
(0 -0.0399666 0)
(0 -0.0399989 0)
(0 -0.0400042 0)
(0 -0.0387466 0)
(0 -0.0400044 0)
(0 -0.039987 0)
(0 -0.0294544 0)
(0 -0.0399983 0)
(0 -0.0399361 0)
(0 -0.0400047 0)
(0 -0.0392917 0)
(0 -0.0398842 0)
(0 -0.0399933 0)
(0 -0.0399992 0)
(0 -0.0399701 0)
(0 -0.0400046 0)
(0 -0.0376561 0)
(0 -0.0399948 0)
(0 -0.0400046 0)
(0 -0.0394476 0)
(0 -0.0400047 0)
(0 -0.0395442 0)
(0 -0.0400043 0)
(0 -0.0395179 0)
(0 -0.0396349 0)
(0 -0.0399665 0)
(0 -0.039987 0)
(0 -0.0341465 0)
(0 -0.0390914 0)
(0 -0.0398866 0)
(0 -0.0394742 0)
(0 -0.0328373 0)
(0 -0.0397793 0)
(0 -0.0400031 0)
(0 -0.034613 0)
(0 -0.0397535 0)
(0 -0.0400046 0)
(0 -0.0386358 0)
(0 -0.0400018 0)
(0 -0.0397263 0)
(0 -0.0400034 0)
(0 -0.0390842 0)
(0 -0.0398596 0)
(0 -0.0400035 0)
(0 -0.0399879 0)
(0 -0.0397824 0)
(0 -0.0400047 0)
(0 -0.0400047 0)
(0 -0.0399983 0)
(0 -0.0335416 0)
(0 -0.0399709 0)
(0 -0.0395666 0)
(0 -0.0398798 0)
(0 -0.0324095 0)
(0 -0.0400047 0)
(0 -0.0400031 0)
(0 -0.0399993 0)
(0 -0.0388611 0)
(0 -0.0399692 0)
(0 -0.0399927 0)
(0 -0.0400047 0)
(0 -0.0244467 0)
(0 -0.0400046 0)
(0 -0.0399888 0)
(0 -0.0400044 0)
(0 -0.0396839 0)
(0 -0.039999 0)
(0 -0.0340873 0)
(0 -0.00144701 0)
(0 -0.0400047 0)
(0 -0.0399928 0)
(0 -0.0311371 0)
(0 -0.0386279 0)
(0 -0.0397675 0)
(0 -0.0215865 0)
(0 -0.0400028 0)
(0 -0.0398833 0)
(0 -0.0399315 0)
(0 -0.038901 0)
(0 -0.0376182 0)
(0 -0.0363872 0)
(0 -0.0399988 0)
(0 -0.0347536 0)
(0 -0.0362117 0)
(0 -0.0400017 0)
(0 -0.0400029 0)
(0 -0.0391998 0)
(0 -0.0399911 0)
(0 -0.0244949 0)
(0 -0.0165239 0)
(0 -0.0387297 0)
(0 -0.0399689 0)
(0 -0.0397106 0)
(0 -0.0333363 0)
(0 -0.0378625 0)
(0 -0.0399872 0)
(0 -0.0380958 0)
(0 -0.0400033 0)
(0 -0.0192426 0)
(0 -0.0390972 0)
(0 -0.0400041 0)
(0 -0.0398056 0)
(0 -0.00741013 0)
(0 -0.0181188 0)
(0 -0.0388643 0)
(0 -0.0363363 0)
(0 -0.0399991 0)
(0 -0.0400024 0)
(0 -0.0395603 0)
(0 -0.0400047 0)
(0 -0.0387672 0)
(0 -0.0242804 0)
(0 -0.0400044 0)
(0 -0.0399928 0)
(0 -0.0398122 0)
(0 -0.0353041 0)
(0 -0.0400046 0)
(0 -0.0398011 0)
(0 -0.0400035 0)
(0 -0.0355547 0)
(0 -0.0395281 0)
(0 -0.039973 0)
(0 -0.0395523 0)
(0 -0.0400045 0)
(0 -0.0399935 0)
(0 -0.0399987 0)
(0 -0.0388956 0)
(0 -0.0399745 0)
(0 -0.0336886 0)
(0 -0.0400044 0)
(0 -0.0397167 0)
(0 -0.0399639 0)
(0 -0.0395468 0)
(0 -0.038822 0)
(0 -0.0397915 0)
(0 -0.0398646 0)
(0 -0.00209911 0)
(0 -0.0400046 0)
(0 -0.0400044 0)
(0 -0.0400032 0)
(0 -0.0400046 0)
(0 -0.0400022 0)
(0 -0.0400046 0)
(0 -0.0399877 0)
(0 -0.0395657 0)
(0 -0.0119291 0)
(0 -0.0400026 0)
(0 -0.0304411 0)
(0 -0.0325286 0)
(0 -0.039664 0)
(0 -0.0400044 0)
(0 -0.0384492 0)
(0 -0.0379858 0)
(0 -0.0399619 0)
(0 -0.0397962 0)
(0 -0.0310801 0)
(0 -0.0400021 0)
(0 -0.0321921 0)
(0 -0.0400043 0)
(0 -0.0399983 0)
(0 -0.0298476 0)
(0 -0.0381041 0)
(0 -0.039989 0)
(0 -0.0399984 0)
(0 -0.028635 0)
(0 -0.0400011 0)
(0 -0.040003 0)
(0 -0.0307671 0)
(0 -0.0400044 0)
(0 -0.03999 0)
(0 -0.0399659 0)
(0 -0.0388587 0)
(0 -0.0400015 0)
(0 -0.0400047 0)
(0 -0.0311371 0)
(0 -0.0399892 0)
(0 -0.0363851 0)
(0 -0.032468 0)
(0 -0.0400005 0)
(0 -0.0400043 0)
(0 -0.0396862 0)
(0 -0.039696 0)
(0 -0.0305987 0)
(0 -0.0398303 0)
(0 -0.0400043 0)
(0 -0.0400044 0)
(0 -0.032881 0)
(0 -0.0400047 0)
(0 -0.0330639 0)
(0 -0.0365065 0)
(0 -0.039794 0)
(0 -0.0390677 0)
(0 -0.0245856 0)
(0 -0.0387323 0)
(0 -0.0400044 0)
(0 -0.039985 0)
(0 -0.0400044 0)
(0 -0.0383397 0)
(0 -0.0313026 0)
(0 -0.0400042 0)
(0 -0.0151488 0)
(0 -0.0399712 0)
(0 -0.0391262 0)
(0 -0.0394677 0)
(0 -0.0395391 0)
(0 -0.0400036 0)
(0 -0.0400047 0)
(0 -0.0390561 0)
(0 -0.0400046 0)
(0 -0.0378267 0)
(0 -0.0398827 0)
(0 -0.0400042 0)
(0 -0.0400046 0)
(0 -0.0363879 0)
(0 -0.0337358 0)
(0 -0.0399201 0)
(0 -0.0400044 0)
(0 -0.0399888 0)
(0 -0.0398216 0)
(0 -0.0400036 0)
(0 -0.0390952 0)
(0 -0.03949 0)
(0 -0.0400042 0)
(0 -0.0400023 0)
(0 -0.0399831 0)
(0 -0.0400043 0)
(0 -0.0399816 0)
(0 -0.0400041 0)
(0 -0.0373316 0)
(0 -0.0399953 0)
(0 -0.0399979 0)
(0 -0.0228057 0)
(0 -0.0400046 0)
(0 -0.0400032 0)
(0 -0.039576 0)
(0 -0.039771 0)
(0 -0.0358102 0)
(0 -0.0400046 0)
(0 -0.0399339 0)
(0 -0.0400036 0)
(0 -0.0348912 0)
(0 -0.00192009 0)
(0 -0.0394201 0)
(0 -0.0397872 0)
(0 -0.0186568 0)
(0 -0.0400045 0)
(0 -0.00231711 0)
(0 -0.0399798 0)
(0 -0.0388936 0)
(0 -0.0398871 0)
(0 -0.0354429 0)
(0 -0.0315082 0)
(0 -0.0398444 0)
(0 -0.0400047 0)
(0 -0.0397833 0)
(0 -0.0400045 0)
(0 -0.0395445 0)
(0 -0.0228172 0)
(0 -0.0315619 0)
(0 -0.0398655 0)
(0 -0.0378221 0)
(0 -0.0399455 0)
(0 -0.0386726 0)
(0 -0.0397971 0)
(0 -0.0399944 0)
(0 -0.0152754 0)
(0 -0.0400047 0)
(0 -0.00491151 0)
(0 -0.039933 0)
(0 -0.0400046 0)
(0 -0.0400042 0)
(0 -0.0395878 0)
(0 -0.0400033 0)
(0 -0.0399599 0)
(0 -0.0399877 0)
(0 -0.0400033 0)
(0 -0.0338151 0)
(0 -0.0400025 0)
(0 -0.0396494 0)
(0 -0.0394874 0)
(0 -0.0400046 0)
(0 -0.039997 0)
(0 -0.0298704 0)
(0 -0.039941 0)
(0 -0.0357183 0)
(0 -0.0400042 0)
(0 -0.0400047 0)
(0 -0.0368411 0)
(0 -0.0399702 0)
(0 -0.0400028 0)
(0 -0.00452897 0)
(0 -0.00611066 0)
(0 -0.0398775 0)
(0 -0.0400047 0)
(0 -0.0400005 0)
(0 -0.0365779 0)
(0 -0.0399665 0)
(0 -0.0379703 0)
(0 -0.0321761 0)
(0 -0.0399949 0)
(0 -0.0399688 0)
(0 -0.0399765 0)
(0 -0.0223216 0)
(0 -0.0399551 0)
(0 -0.0399081 0)
(0 -0.0398359 0)
(0 -0.038012 0)
(0 -0.0385009 0)
(0 -0.0399281 0)
(0 -0.0393851 0)
(0 -0.0399618 0)
(0 -0.039797 0)
(0 -0.0397999 0)
(0 -0.0399792 0)
(0 -0.0400031 0)
(0 -0.0399904 0)
(0 -0.0400029 0)
(0 -0.0400006 0)
(0 -0.03997 0)
(0 -0.0400046 0)
(0 -0.0398168 0)
(0 -0.040001 0)
(0 -0.0399682 0)
(0 -0.0341285 0)
(0 -0.0394592 0)
(0 -0.0399882 0)
(0 -0.0393009 0)
(0 -0.0289952 0)
(0 -0.0283347 0)
(0 -0.0399343 0)
(0 -0.0400046 0)
(0 -0.0391412 0)
(0 -0.0400045 0)
(0 -0.0232807 0)
(0 -0.040001 0)
(0 -0.0399852 0)
(0 -0.0400047 0)
(0 -0.0399408 0)
(0 -0.0391278 0)
(0 -0.0385535 0)
(0 -0.0400047 0)
(0 -0.0399763 0)
(0 -0.0397973 0)
(0 -0.0399935 0)
(0 -0.0374321 0)
(0 -0.040002 0)
(0 -0.039937 0)
(0 -0.0399801 0)
(0 -0.0395404 0)
(0 -0.0399933 0)
(0 -0.0339799 0)
(0 -0.00565 0)
(0 -0.0387077 0)
(0 -0.0325226 0)
(0 -0.0400042 0)
(0 -0.00288694 0)
(0 -0.0399939 0)
(0 -0.0400042 0)
(0 -0.0399452 0)
(0 -0.0400044 0)
(0 -0.0400047 0)
(0 -0.0399821 0)
(0 -0.0399893 0)
(0 -0.0395814 0)
(0 -0.0162276 0)
(0 -0.0350371 0)
(0 -0.0231246 0)
(0 -0.0312735 0)
(0 -0.00221435 0)
(0 -0.0398848 0)
(0 -0.0399729 0)
(0 -0.0399203 0)
(0 -0.0399983 0)
(0 -0.038384 0)
(0 -0.0400045 0)
(0 -0.00119718 0)
(0 -0.0400046 0)
(0 -0.0397505 0)
(0 -0.00252239 0)
(0 -0.0216196 0)
(0 -0.0400042 0)
(0 -0.0391201 0)
(0 -0.0400006 0)
(0 -0.0400031 0)
(0 -0.0397417 0)
(0 -0.0398884 0)
(0 -0.0303918 0)
(0 -0.0400041 0)
(0 -0.0390425 0)
(0 -0.0385133 0)
(0 -0.0399951 0)
(0 -0.016193 0)
(0 -0.037971 0)
(0 -0.033489 0)
(0 -0.0397224 0)
(0 -0.0400047 0)
(0 -0.0394282 0)
(0 -0.0395436 0)
(0 -0.0399901 0)
(0 -0.0400045 0)
(0 -0.0396288 0)
(0 -0.0394054 0)
(0 -0.0400041 0)
(0 -0.0223874 0)
(0 -0.0400042 0)
(0 -0.00428158 0)
(0 -0.03814 0)
(0 -0.0399986 0)
(0 -0.0399144 0)
(0 -0.039964 0)
(0 -0.03994 0)
(0 -0.0397929 0)
(0 -0.0105024 0)
(0 -0.00111261 0)
(0 -0.0398935 0)
(0 -0.0374117 0)
(0 -0.00918722 0)
(0 -0.0391844 0)
(0 -0.03999 0)
(0 -0.0151797 0)
(0 -0.039987 0)
(0 -0.0400015 0)
(0 -0.0399999 0)
(0 -0.0399372 0)
(0 -0.0400043 0)
(0 -0.0398353 0)
(0 -0.0168957 0)
(0 -0.0399696 0)
(0 -0.0235433 0)
(0 -0.0391005 0)
(0 -0.0400026 0)
(0 -0.0400041 0)
(0 -0.0400025 0)
(0 -0.0400039 0)
(0 -0.0369768 0)
(0 -0.0367003 0)
(0 -0.0399527 0)
(0 -0.0384006 0)
(0 -0.0317584 0)
(0 -0.0400041 0)
(0 -0.0399828 0)
(0 -0.0400047 0)
(0 -0.0399368 0)
(0 -0.0399203 0)
(0 -0.0332022 0)
(0 -0.0281502 0)
(0 -0.0400008 0)
(0 -0.039932 0)
(0 -0.0382695 0)
(0 -0.00695929 0)
(0 -0.0399642 0)
(0 -0.0399776 0)
(0 -0.0400044 0)
(0 -0.0369042 0)
(0 -0.0101586 0)
(0 -0.0400047 0)
(0 -0.0379105 0)
(0 -0.0395422 0)
(0 -0.0207578 0)
(0 -0.0400044 0)
(0 -0.00274556 0)
(0 -0.0400046 0)
(0 -0.0268319 0)
(0 -0.0399719 0)
(0 -0.0396724 0)
(0 -0.0399555 0)
(0 -0.0395593 0)
(0 -0.0346579 0)
(0 -0.0386382 0)
(0 -0.0117563 0)
(0 -0.0399934 0)
(0 -0.0379649 0)
(0 -0.0400046 0)
(0 -0.0375475 0)
(0 -0.0400003 0)
(0 -0.0400043 0)
(0 -0.0395018 0)
(0 -0.00909122 0)
(0 -0.0400046 0)
(0 -0.0400024 0)
(0 -0.0391195 0)
(0 -0.0399135 0)
(0 -0.0349205 0)
(0 -0.0400047 0)
(0 -0.0344061 0)
(0 -0.0399878 0)
(0 -0.0245054 0)
(0 -0.0122455 0)
(0 -0.0400001 0)
(0 -0.0395563 0)
(0 -0.0189721 0)
(0 -0.039391 0)
(0 -0.0400044 0)
(0 -0.0400043 0)
(0 -0.040003 0)
(0 -0.0292891 0)
(0 -0.0400046 0)
(0 -0.025291 0)
(0 -0.0144625 0)
(0 -0.0369393 0)
(0 -0.0084298 0)
(0 -0.00864131 0)
(0 -0.0400031 0)
(0 -0.0400027 0)
(0 -0.0363923 0)
(0 -0.00291447 0)
(0 -0.0396985 0)
(0 -0.032222 0)
(0 -0.0400046 0)
(0 -0.0399721 0)
(0 -0.0400046 0)
(0 -0.0400044 0)
(0 -0.0386394 0)
(0 -0.0399609 0)
(0 -0.0235105 0)
(0 -0.0397123 0)
(0 -0.0399814 0)
(0 -0.0335429 0)
(0 -0.00420702 0)
(0 -0.0399989 0)
(0 -0.0400047 0)
(0 -0.0398819 0)
(0 -0.0400047 0)
(0 -0.0398636 0)
(0 -0.0244907 0)
(0 -0.0397232 0)
(0 -0.0399187 0)
(0 -0.0400047 0)
(0 -0.0394924 0)
(0 -0.0399979 0)
(0 -0.0399369 0)
(0 -0.00747462 0)
(0 -0.0400037 0)
(0 -0.0400039 0)
(0 -0.0400047 0)
(0 -0.0399981 0)
(0 -0.0400002 0)
(0 -0.0388725 0)
(0 -0.0399932 0)
(0 -0.0362457 0)
(0 -0.0399964 0)
(0 -0.0392461 0)
(0 -0.00541618 0)
(0 -0.0400032 0)
(0 -0.0382962 0)
(0 -0.008366 0)
(0 -0.0363932 0)
(0 -0.0382088 0)
(0 -0.0400044 0)
(0 -0.0399877 0)
(0 -0.027368 0)
(0 -0.0397361 0)
(0 -0.0400046 0)
(0 -0.0382829 0)
(0 -0.0400047 0)
(0 -0.0385657 0)
(0 -0.0399099 0)
(0 -0.0400043 0)
(0 -0.017768 0)
(0 -0.0399907 0)
(0 -0.0394826 0)
(0 -0.0395395 0)
(0 -0.0400045 0)
(0 -0.0383053 0)
(0 -0.0399897 0)
(0 -0.0398505 0)
(0 -0.0400043 0)
(0 -0.0359338 0)
(0 -0.0400047 0)
(0 -0.0394262 0)
(0 -0.0400046 0)
(0 -0.0400047 0)
(0 -0.0400047 0)
(0 -0.039743 0)
(0 -0.034824 0)
(0 -0.0370808 0)
(0 -0.00465047 0)
(0 -0.0396059 0)
(0 -0.0221506 0)
(0 -0.0400045 0)
(0 -0.0395016 0)
(0 -0.0395362 0)
(0 -0.0396024 0)
(0 -0.0388086 0)
(0 -0.0288478 0)
(0 -0.0388858 0)
(0 -0.0393261 0)
(0 -0.0380851 0)
(0 -0.0393312 0)
(0 -0.0400036 0)
(0 -0.0399928 0)
(0 -0.0393802 0)
(0 -0.0398554 0)
(0 -0.040003 0)
(0 -0.0380567 0)
(0 -0.0400045 0)
(0 -0.021704 0)
(0 -0.0396757 0)
(0 -0.0380268 0)
(0 -0.0345107 0)
(0 -0.0398348 0)
(0 -0.0248134 0)
(0 -0.0271433 0)
(0 -0.039912 0)
(0 -0.0343006 0)
(0 -0.0399889 0)
(0 -0.037674 0)
(0 -0.0400047 0)
(0 -0.0399965 0)
(0 -0.0399833 0)
(0 -0.0399872 0)
(0 -0.0356448 0)
(0 -0.0400045 0)
(0 -0.0399739 0)
(0 -0.00744342 0)
(0 -0.0393374 0)
(0 -0.037838 0)
(0 -0.0400044 0)
(0 -0.0385674 0)
(0 -0.0399073 0)
(0 -0.0399982 0)
(0 -0.0400047 0)
(0 -0.0399349 0)
(0 -0.0362242 0)
(0 -0.0400038 0)
(0 -0.0399975 0)
(0 -0.0400008 0)
(0 -0.039474 0)
(0 -0.0231245 0)
(0 -0.0326624 0)
(0 -0.0398811 0)
(0 -0.0344539 0)
(0 -0.0400047 0)
(0 -0.0399733 0)
(0 -0.0132534 0)
(0 -0.0399863 0)
(0 -0.0399893 0)
(0 -0.0332058 0)
(0 -0.0400035 0)
(0 -0.0400046 0)
(0 -0.0399813 0)
(0 -0.0376711 0)
(0 -0.0400037 0)
(0 -0.0398794 0)
(0 -0.0201204 0)
(0 -0.0400047 0)
(0 -0.0393699 0)
(0 -0.0328273 0)
(0 -0.0317494 0)
(0 -0.0394158 0)
(0 -0.0396197 0)
(0 -0.0400044 0)
(0 -0.0400043 0)
(0 -0.03967 0)
(0 -0.0400043 0)
(0 -0.039505 0)
(0 -0.0329066 0)
(0 -0.0399798 0)
(0 -0.0279541 0)
(0 -0.0399994 0)
(0 -0.0331828 0)
(0 -0.0116257 0)
(0 -0.0388693 0)
(0 -0.0373201 0)
(0 -0.0400043 0)
(0 -0.0400047 0)
(0 -0.0399882 0)
(0 -0.0400047 0)
(0 -0.0400032 0)
(0 -0.0396085 0)
(0 -0.0350544 0)
(0 -0.0376486 0)
(0 -0.039991 0)
(0 -0.0329667 0)
(0 -0.0035193 0)
(0 -0.0397712 0)
(0 -0.0399992 0)
(0 -0.0399905 0)
(0 -0.00625228 0)
(0 -0.0397394 0)
(0 -0.0395653 0)
(0 -0.039966 0)
(0 -0.0400046 0)
(0 -0.0307376 0)
(0 -0.0240268 0)
(0 -0.0379475 0)
(0 -0.0399987 0)
(0 -0.0391503 0)
(0 -0.0400043 0)
(0 -0.0384976 0)
(0 -0.00937545 0)
(0 -0.0329409 0)
(0 -0.0319763 0)
(0 -0.038958 0)
(0 -0.039981 0)
(0 -0.040004 0)
(0 -0.0400043 0)
(0 -0.0396122 0)
(0 -0.0247662 0)
(0 -0.0400016 0)
(0 -0.0363879 0)
(0 -0.0399995 0)
(0 -0.0400047 0)
(0 -0.0396838 0)
(0 -0.0400047 0)
(0 -0.0400043 0)
(0 -0.0400044 0)
(0 -0.0398017 0)
(0 -0.0394713 0)
(0 -0.0400046 0)
(0 -0.0394254 0)
(0 -0.0397493 0)
(0 -0.039956 0)
(0 -0.0399887 0)
(0 -0.0373757 0)
(0 -0.0400043 0)
(0 -0.0331747 0)
(0 -0.0400024 0)
(0 -0.0399992 0)
(0 -0.0218195 0)
(0 -0.0389194 0)
(0 -0.0398474 0)
(0 -0.0399903 0)
(0 -0.039535 0)
(0 -0.00879475 0)
(0 -0.0391691 0)
(0 -0.0385552 0)
(0 -0.0388177 0)
(0 -0.0400029 0)
(0 -0.0177906 0)
(0 -0.0400027 0)
(0 -0.0400047 0)
(0 -0.0335049 0)
(0 -0.039431 0)
(0 -0.0396114 0)
(0 -0.0222067 0)
(0 -0.0400042 0)
(0 -0.0400046 0)
(0 -0.0400044 0)
(0 -0.0400046 0)
(0 -0.0245584 0)
(0 -0.0389584 0)
(0 -0.0392121 0)
(0 -0.0370807 0)
(0 -0.0399885 0)
(0 -0.039549 0)
(0 -0.00668719 0)
(0 -0.0398551 0)
(0 -0.0393291 0)
(0 -0.0400012 0)
(0 -0.0396842 0)
(0 -0.0400046 0)
(0 -0.0384807 0)
(0 -0.0383796 0)
(0 -0.0399303 0)
(0 -0.039933 0)
(0 -0.0398953 0)
(0 -0.0330827 0)
(0 -0.0400047 0)
(0 -0.0400046 0)
(0 -0.0400042 0)
(0 -0.0400046 0)
(0 -0.0400026 0)
(0 -0.0400043 0)
(0 -0.0400046 0)
(0 -0.0327419 0)
(0 -0.0309922 0)
(0 -0.0350049 0)
(0 -0.0399881 0)
(0 -0.0397051 0)
(0 -0.0398949 0)
(0 -0.0400047 0)
(0 -0.0357302 0)
(0 -0.0146975 0)
(0 -0.0308188 0)
(0 -0.0399844 0)
(0 -0.0232932 0)
(0 -0.0390389 0)
(0 -0.0387671 0)
(0 -0.0400014 0)
(0 -0.0383774 0)
(0 -0.0234358 0)
(0 -0.0240343 0)
(0 -0.034477 0)
(0 -0.00312988 0)
(0 -0.0397799 0)
(0 -0.0399877 0)
(0 -0.0397361 0)
(0 -0.0400023 0)
(0 -0.0296518 0)
(0 -0.032237 0)
(0 -0.0400044 0)
(0 -0.0400042 0)
(0 -0.0400047 0)
(0 -0.0400002 0)
(0 -0.0399222 0)
(0 -0.0400008 0)
(0 -0.0220018 0)
(0 -0.0399245 0)
(0 -0.038392 0)
(0 -0.0263248 0)
(0 -0.0383104 0)
(0 -0.0400046 0)
(0 -0.0377398 0)
(0 -0.0399363 0)
(0 -0.0400003 0)
(0 -0.0360945 0)
(0 -0.0342591 0)
(0 -0.0393898 0)
(0 -0.0399825 0)
(0 -0.00276595 0)
(0 -0.0400013 0)
(0 -0.0348182 0)
(0 -0.0399859 0)
(0 -0.0221129 0)
(0 -0.0363767 0)
(0 -0.0391373 0)
(0 -0.0399801 0)
(0 -0.0360096 0)
(0 -0.039995 0)
(0 -0.0400045 0)
(0 -0.0399817 0)
(0 -0.040004 0)
(0 -0.0339258 0)
(0 -0.0400047 0)
(0 -0.0399953 0)
(0 -0.0277548 0)
(0 -0.0399992 0)
(0 -0.0369759 0)
(0 -0.0398875 0)
(0 -0.0367089 0)
(0 -0.0352281 0)
(0 -0.0192056 0)
(0 -0.0318232 0)
(0 -0.0374746 0)
(0 -0.0394817 0)
(0 -0.0398772 0)
(0 -0.0364353 0)
(0 -0.0250771 0)
(0 -0.0399603 0)
(0 -0.0297113 0)
(0 -0.0400026 0)
(0 -0.0221565 0)
(0 -0.039507 0)
(0 -0.0394832 0)
(0 -0.0400047 0)
(0 -0.0399975 0)
(0 -0.0191506 0)
(0 -0.0399826 0)
(0 -0.0192057 0)
(0 -0.0392785 0)
(0 -0.0399244 0)
(0 -0.0399997 0)
(0 -0.0397618 0)
(0 -0.00260597 0)
(0 -0.0399515 0)
(0 -0.0399716 0)
(0 -0.0399179 0)
(0 -0.0399953 0)
(0 -0.0397842 0)
(0 -0.0399688 0)
(0 -0.0398264 0)
(0 -0.0398808 0)
(0 -0.0382964 0)
(0 -0.0325052 0)
(0 -0.0399999 0)
(0 -0.0400047 0)
(0 -0.0388559 0)
(0 -0.020424 0)
(0 -0.0400046 0)
(0 -0.02449 0)
(0 -0.0397144 0)
(0 -0.0274047 0)
(0 -0.0399367 0)
(0 -0.0399996 0)
(0 -0.0232304 0)
(0 -0.0400046 0)
(0 -0.0390403 0)
(0 -0.00864881 0)
(0 -0.0399761 0)
(0 -0.00753865 0)
(0 -0.0398767 0)
(0 -0.0400046 0)
(0 -0.0396954 0)
(0 -0.0400003 0)
(0 -0.019757 0)
(0 -0.00351019 0)
(0 -0.0399006 0)
(0 -0.00985689 0)
(0 -0.00806759 0)
(0 -0.0391334 0)
(0 -0.0393814 0)
(0 -0.0398794 0)
(0 -0.0399407 0)
(0 -0.0359584 0)
(0 -0.0397517 0)
(0 -0.0320146 0)
(0 -0.0236187 0)
(0 -0.0113428 0)
(0 -0.0273587 0)
(0 -0.0399989 0)
(0 -0.0335774 0)
(0 -0.0386231 0)
(0 -0.0399905 0)
(0 -0.0240362 0)
(0 -0.0204238 0)
(0 -0.0400042 0)
(0 -0.00766633 0)
(0 -0.0400047 0)
(0 -0.0378714 0)
(0 -0.0400039 0)
(0 -0.0399857 0)
(0 -0.0399326 0)
(0 -0.0400005 0)
(0 -0.039889 0)
(0 -0.0400034 0)
(0 -0.0368604 0)
(0 -0.0399794 0)
(0 -0.0392688 0)
(0 -0.0321918 0)
(0 -0.0321384 0)
(0 -0.0386234 0)
(0 -0.0394457 0)
(0 -0.0342021 0)
(0 -0.0398659 0)
(0 -0.0234022 0)
(0 -0.0383411 0)
(0 -0.0400046 0)
(0 -0.0400047 0)
(0 -0.0400035 0)
(0 -0.0382521 0)
(0 -0.039921 0)
(0 -0.0400047 0)
(0 -0.0400045 0)
(0 -0.0157821 0)
(0 -0.0389839 0)
(0 -0.0400031 0)
(0 -0.0360377 0)
(0 -0.0397226 0)
(0 -0.0399997 0)
(0 -0.0400042 0)
(0 -0.0390532 0)
(0 -0.0397036 0)
(0 -0.038105 0)
(0 -0.0399902 0)
(0 -0.00227385 0)
(0 -0.0397922 0)
(0 -0.0399989 0)
(0 -0.0366256 0)
(0 -0.00344305 0)
(0 -0.0400025 0)
(0 -0.0397628 0)
(0 -0.0399894 0)
(0 -0.040004 0)
(0 -0.0399361 0)
(0 -0.0375894 0)
(0 -0.0234041 0)
(0 -0.036524 0)
(0 -0.0400046 0)
(0 -0.0399973 0)
(0 -0.0400016 0)
(0 -0.0398606 0)
(0 -0.032871 0)
(0 -0.0400046 0)
(0 -0.0235366 0)
(0 -0.039974 0)
(0 -0.0394266 0)
(0 -0.0377222 0)
(0 -0.0397257 0)
(0 -0.0251734 0)
(0 -0.0400033 0)
(0 -0.0400031 0)
(0 -0.0304137 0)
(0 -0.0398821 0)
(0 -0.0397212 0)
(0 -0.0399997 0)
(0 -0.0397659 0)
(0 -0.0398168 0)
(0 -0.039989 0)
(0 -0.0394911 0)
(0 -0.0399923 0)
(0 -0.0398358 0)
(0 -0.0231772 0)
(0 -0.0395421 0)
(0 -0.0399767 0)
(0 -0.0400018 0)
(0 -0.0250943 0)
(0 -0.0399973 0)
(0 -0.0397857 0)
(0 -0.0398316 0)
(0 -0.0028834 0)
(0 -0.0400033 0)
(0 -0.0389529 0)
(0 -0.0387517 0)
(0 -0.0318847 0)
(0 -0.0397294 0)
(0 -0.0397049 0)
(0 -0.0399359 0)
(0 -0.000793802 0)
(0 -0.0379927 0)
(0 -0.0398777 0)
(0 -0.0400047 0)
(0 -0.039881 0)
(0 -0.0184296 0)
(0 -0.0379496 0)
(0 -0.0395294 0)
(0 -0.0399836 0)
(0 -0.0158254 0)
(0 -0.0399396 0)
(0 -0.0400006 0)
(0 -0.0398517 0)
(0 -0.040004 0)
(0 -0.039598 0)
(0 -0.0400047 0)
(0 -0.0399896 0)
(0 -0.0330359 0)
(0 -0.0399979 0)
(0 -0.000670249 0)
(0 -0.0390465 0)
(0 -0.039455 0)
(0 -0.0395584 0)
(0 -0.0399422 0)
(0 -0.0397291 0)
(0 -0.0398233 0)
(0 -0.0398264 0)
(0 -0.0394804 0)
(0 -0.0389341 0)
(0 -0.0226186 0)
(0 -0.0399748 0)
(0 -0.0388206 0)
(0 -0.0395816 0)
(0 -0.0399971 0)
(0 -0.039204 0)
(0 -0.0395917 0)
(0 -0.0288698 0)
(0 -0.0400046 0)
(0 -0.0399318 0)
(0 -0.0358761 0)
(0 -0.0386488 0)
(0 -0.0385837 0)
(0 -0.0400047 0)
(0 -0.0399714 0)
(0 -0.0394532 0)
(0 -0.0400041 0)
(0 -0.0399949 0)
(0 -0.0399976 0)
(0 -0.0399339 0)
(0 -0.0399912 0)
(0 -0.027285 0)
(0 -0.0400001 0)
(0 -0.0043415 0)
(0 -0.0394474 0)
(0 -0.0400005 0)
(0 -0.0400042 0)
(0 -0.0399909 0)
(0 -0.0399994 0)
(0 -0.0219485 0)
(0 -0.0400047 0)
(0 -0.027022 0)
(0 -0.0399131 0)
(0 -0.0391893 0)
(0 -0.0400003 0)
(0 -0.0400033 0)
(0 -0.0387003 0)
(0 -0.00722566 0)
(0 -0.0399898 0)
(0 -0.0398977 0)
(0 -0.0277862 0)
(0 -0.0400046 0)
(0 -0.0281959 0)
(0 -0.0388084 0)
(0 -0.0388362 0)
(0 -0.0366727 0)
(0 -0.0394866 0)
(0 -0.0386613 0)
(0 -0.0333643 0)
(0 -0.0396633 0)
(0 -0.0399923 0)
(0 -0.0396796 0)
(0 -0.0398751 0)
(0 -0.0280222 0)
(0 -0.0400047 0)
(0 -0.0400041 0)
(0 -0.0116528 0)
(0 -0.0399917 0)
(0 -0.0391685 0)
(0 -0.0396265 0)
(0 -0.040002 0)
(0 -0.0121731 0)
(0 -0.0380655 0)
(0 -0.0395272 0)
(0 -0.0400046 0)
(0 -0.0271437 0)
(0 -0.00787081 0)
(0 -0.0397003 0)
(0 -0.0400005 0)
(0 -0.011796 0)
(0 -0.039686 0)
(0 -0.0396995 0)
(0 -0.039997 0)
(0 -0.039783 0)
(0 -0.0396976 0)
(0 -0.0399856 0)
(0 -0.0275169 0)
(0 -0.0399903 0)
(0 -0.0192693 0)
(0 -0.0400047 0)
(0 -0.0394681 0)
(0 -0.0300539 0)
(0 -0.0389537 0)
(0 -0.0399399 0)
(0 -0.009469 0)
(0 -0.0358732 0)
(0 -0.0399683 0)
(0 -0.0400034 0)
(0 -0.0362455 0)
(0 -0.0400047 0)
(0 -0.010589 0)
(0 -0.0203888 0)
(0 -0.0398763 0)
(0 -0.0246269 0)
(0 -0.0335147 0)
(0 -0.0400028 0)
(0 -0.00369512 0)
(0 -0.0396895 0)
(0 -0.0399737 0)
(0 -0.0400044 0)
(0 -0.0399962 0)
(0 -0.0327449 0)
(0 -0.0389468 0)
(0 -0.0395416 0)
(0 -0.0173899 0)
(0 -0.0346053 0)
(0 -0.0231702 0)
(0 -0.0399987 0)
(0 -0.0120166 0)
(0 -0.0399914 0)
(0 -0.0399564 0)
(0 -0.00409884 0)
(0 -0.0301245 0)
(0 -0.0394385 0)
(0 -0.039957 0)
(0 -0.0399913 0)
(0 -0.0399257 0)
(0 -0.039879 0)
(0 -0.0387833 0)
(0 -0.0400044 0)
(0 -0.0399313 0)
(0 -0.0392593 0)
(0 -0.0396704 0)
(0 -0.0399205 0)
(0 -0.0399355 0)
(0 -0.0400045 0)
(0 -0.0395812 0)
(0 -0.0400046 0)
(0 -0.0400002 0)
(0 -0.0400045 0)
(0 -0.0386087 0)
(0 -0.0346902 0)
(0 -0.0396862 0)
(0 -0.0397921 0)
(0 -0.0322793 0)
(0 -0.03633 0)
(0 -0.0399787 0)
(0 -0.00555631 0)
(0 -0.0369558 0)
(0 -0.0252798 0)
(0 -0.0230891 0)
(0 -0.0379534 0)
(0 -0.0352817 0)
(0 -0.0400046 0)
(0 -0.00798941 0)
(0 -0.04 0)
(0 -0.0173474 0)
(0 -0.0399583 0)
(0 -0.0374387 0)
(0 -0.039959 0)
(0 -0.0399454 0)
(0 -0.0348121 0)
(0 -0.0400029 0)
(0 -0.038919 0)
(0 -0.00930597 0)
(0 -0.0396605 0)
(0 -0.0316819 0)
(0 -0.0396499 0)
(0 -0.0346778 0)
(0 -0.0400038 0)
(0 -0.038856 0)
(0 -0.0397198 0)
(0 -0.0399865 0)
(0 -0.0400027 0)
(0 -0.039475 0)
(0 -0.0399922 0)
(0 -0.0399967 0)
(0 -0.0398616 0)
(0 -0.0355867 0)
(0 -0.0377219 0)
(0 -0.0399746 0)
(0 -0.0398775 0)
(0 -0.0400047 0)
(0 -0.0292555 0)
(0 -0.0400045 0)
(0 -0.0362159 0)
(0 -0.0399791 0)
(0 -0.0400031 0)
(0 -0.0396652 0)
(0 -0.0399999 0)
(0 -0.0391158 0)
(0 -0.0395058 0)
(0 -0.0390945 0)
(0 -0.0400032 0)
(0 -0.0395073 0)
(0 -0.00415321 0)
(0 -0.0398507 0)
(0 -0.0399664 0)
(0 -0.0383837 0)
(0 -0.0294539 0)
(0 -0.00951171 0)
(0 -0.0400043 0)
(0 -0.0063557 0)
(0 -0.0394356 0)
(0 -0.0400042 0)
(0 -0.0393162 0)
(0 -0.0333789 0)
(0 -0.0398788 0)
(0 -0.039029 0)
(0 -0.0400017 0)
(0 -0.0158089 0)
(0 -0.0329818 0)
(0 -0.0224817 0)
(0 -0.0393539 0)
(0 -0.036775 0)
(0 -0.0357096 0)
(0 -0.0398603 0)
(0 -0.0400043 0)
(0 -0.0327653 0)
(0 -0.0246622 0)
(0 -0.0400012 0)
(0 -0.0357659 0)
(0 -0.0400046 0)
(0 -0.0377834 0)
(0 -0.0400035 0)
(0 -0.0321472 0)
(0 -0.0389916 0)
(0 -0.020164 0)
(0 -0.0400046 0)
(0 -0.040004 0)
(0 -0.0395997 0)
(0 -0.0399577 0)
(0 -0.039463 0)
(0 -0.034094 0)
(0 -0.0231327 0)
(0 -0.0400037 0)
(0 -0.00475911 0)
(0 -0.039911 0)
(0 -0.00482955 0)
(0 -0.0396473 0)
(0 -0.0140275 0)
(0 -0.0400021 0)
(0 -0.0230105 0)
(0 -0.0397168 0)
(0 -0.00386577 0)
(0 -0.0399962 0)
(0 -0.039998 0)
(0 -0.0309354 0)
(0 -0.0398347 0)
(0 -0.0400031 0)
(0 -0.0398761 0)
(0 -0.0400009 0)
(0 -0.0399996 0)
(0 -0.0399843 0)
(0 -0.0386709 0)
(0 -0.0395638 0)
(0 -0.0399371 0)
(0 -0.0399986 0)
(0 -0.0354225 0)
(0 -0.0395721 0)
(0 -0.0395621 0)
(0 -0.0349506 0)
(0 -0.0400046 0)
(0 -0.0400044 0)
(0 -0.0398836 0)
(0 -0.039972 0)
(0 -0.0399895 0)
(0 -0.0396248 0)
(0 -0.0400041 0)
(0 -0.0320369 0)
(0 -0.0305243 0)
(0 -0.0399435 0)
(0 -0.0400028 0)
(0 -0.0399824 0)
(0 -0.0399719 0)
(0 -0.0399972 0)
(0 -0.0227529 0)
(0 -0.0400033 0)
(0 -0.0400046 0)
(0 -0.0400029 0)
(0 -0.0063801 0)
(0 -0.0400047 0)
(0 -0.0400043 0)
(0 -0.0399988 0)
(0 -0.0400041 0)
(0 -0.0400046 0)
(0 -0.0399184 0)
(0 -0.0394684 0)
(0 -0.0399753 0)
(0 -0.039293 0)
(0 -0.034629 0)
(0 -0.0399973 0)
(0 -0.039932 0)
(0 -0.0221406 0)
(0 -0.0400047 0)
(0 -0.01279 0)
(0 -0.0395484 0)
(0 -0.0397046 0)
(0 -0.0394145 0)
(0 -0.0399968 0)
(0 -0.0397841 0)
(0 -0.0400047 0)
(0 -0.0397008 0)
(0 -0.0393717 0)
(0 -0.0399995 0)
(0 -0.0400043 0)
(0 -0.0399662 0)
(0 -0.037347 0)
(0 -0.0392929 0)
(0 -0.0398955 0)
(0 -0.0399181 0)
(0 -0.019521 0)
(0 -0.0397875 0)
(0 -0.039945 0)
(0 -0.0399679 0)
(0 -0.0341406 0)
(0 -0.0399794 0)
(0 -0.0389765 0)
(0 -0.039856 0)
(0 -0.040002 0)
(0 -0.0399929 0)
(0 -0.0384747 0)
(0 -0.03997 0)
(0 -0.0400046 0)
(0 -0.0365551 0)
(0 -0.0380995 0)
(0 -0.0400033 0)
(0 -0.0399892 0)
(0 -0.0387799 0)
(0 -0.0387275 0)
(0 -0.0214426 0)
(0 -0.0399307 0)
(0 -0.0387417 0)
(0 -0.0400042 0)
(0 -0.0399424 0)
(0 -0.0377496 0)
(0 -0.00402302 0)
(0 -0.0399651 0)
(0 -0.0395273 0)
(0 -0.0399951 0)
(0 -0.0400047 0)
(0 -0.0316376 0)
(0 -0.0267864 0)