/*--------------------------------*- C++ -*----------------------------------*\
| =========                 |                                                 |
| \\      /  F ield         | OpenFOAM: The Open Source CFD Toolbox           |
|  \\    /   O peration     | Version:  v2012                                 |
|   \\  /    A nd           | Website:  www.openfoam.com                      |
|    \\/     M anipulation  |                                                 |
\*---------------------------------------------------------------------------*/
FoamFile
{
    version     2.0;
    format      ascii;
    class       surfaceScalarField;
    location    "550";
    object      meshPhi;
}
// * * * * * * * * * * * * * * * * * * * * * * * * * * * * * * * * * * * * * //

dimensions      [0 3 -1 0 0 0 0];
oriented        oriented;


internalField   nonuniform List<scalar> 
20580
(
0.000315693
-0.000353108
3.73828e-05
0.00078124
-0.000345767
-0.000436667
2.87678e-05
0.000750698
-0.000173971
0.000228089
-5.4118e-05
-6.15279e-05
-4.60408e-05
6.93379e-05
-4.53625e-05
-0.000655835
0.000700028
0.000491974
-0.000769927
-0.000121346
-7.16583e-05
0.000126349
8.73093e-05
0.000107234
-0.000194544
0.000201177
-0.00111683
0.000912847
-0.000300944
0.000514937
-0.00021412
0.000148088
0.00060539
-0.000764087
-0.000898808
0.000167847
0.00072972
6.72509e-05
-0.000172543
0.000105292
0.000315275
-0.000591337
0.000275707
0.000283205
5.04998e-05
-0.00033373
0.000219932
-0.00016594
-5.39922e-05
0.00104889
-0.000323337
-0.000732154
0.000185476
0.000120882
-0.000306371
-9.62627e-05
0.00041192
-0.000650523
0.000252003
0.000398181
-0.000261613
-0.000475343
0.00073598
0.000227422
-0.00010918
-0.000118242
-4.29147e-05
-1.60631e-06
3.68324e-05
0.000271292
-6.39671e-06
-0.000264901
0.000507566
-0.000309654
-0.000198021
0.000328578
-0.00021866
-0.000109927
0.000102663
0.000166194
-0.000268862
0.00023734
-0.000129419
-0.000107921
-0.00021624
-0.000767341
0.00096507
3.09755e-05
-0.000204645
0.000173669
-0.000346776
0.000836866
-0.000322587
-6.34317e-05
0.000385983
-9.99145e-05
-0.0001326
0.000232514
0.000361657
0.000118435
-0.000480284
-0.000228281
0.000270555
-4.22749e-05
-6.8157e-09
-4.63302e-05
0.000304224
-0.000180157
-0.000124071
-0.000181392
-5.17246e-05
0.000233116
-0.00105693
0.000842655
0.000210435
-0.000192265
0.00024281
-5.05455e-05
0.000106806
0.000130533
0.000116202
6.52157e-05
0.000349998
-0.000282607
-6.74003e-05
0.000168541
4.95458e-05
-0.000218087
-0.000207767
-0.000774819
0.000973159
-0.000152235
0.000284903
0.000111049
-0.000286403
0.000175329
-0.00103079
0.000451929
0.000576702
-4.40785e-05
-0.000855471
0.000133339
4.80789e-05
-0.000181418
-0.00106788
0.000311055
0.000755615
-8.69575e-05
0.000370134
0.000676681
-0.000516089
-0.000161177
-0.000137966
0.000224473
-8.65077e-05
-0.00074697
-0.000312781
-0.000345941
2.33219e-05
-1.27303e-05
-0.000179535
0.000340015
-0.000183797
-0.000156227
-0.000195503
-1.44917e-05
0.000209995
-0.000605006
0.000741678
0.000229375
9.91924e-05
-0.000991518
0.00102221
-3.27543e-05
-0.000436956
-0.000595546
-0.000339936
0.000152616
0.000187307
-0.000212272
-0.000127673
-2.48171e-05
-0.000170686
-5.67937e-05
0.00030773
-0.00036604
-0.00061972
0.000981431
0.000218175
-0.000186065
-3.21102e-05
0.000125897
-0.0001883
6.24022e-05
0.000299423
0.000190468
-0.0004901
0.00106446
-0.000712588
-0.000354995
0.00017087
-0.000185362
-0.000291654
0.000633767
-0.000342616
-0.000365146
-0.00042419
0.000787981
4.89125e-05
0.000171019
0.00112716
-0.000192936
-0.000967349
-4.36716e-05
0.000314957
-0.000195292
0.00107072
-0.000885977
0.000543263
-0.000913441
0.000305036
6.98706e-06
-0.000312038
0.000640064
-0.000278653
-0.000166764
-4.43271e-05
0.000211091
-3.44764e-05
0.000205347
-0.000143056
-0.000105934
0.00024899
-0.000704076
0.000441599
5.19349e-05
-0.000178711
0.000126776
-0.000967616
0.000943078
2.06038e-05
0.000172978
-0.000142003
-0.000157995
-0.000910507
0.000387293
-0.000735765
0.000102568
7.88496e-05
5.91648e-05
-0.000202221
0.000240569
-4.54823e-05
-0.000195087
-0.00022802
0.000317875
-8.98667e-05
0.00141639
-0.000580176
-0.000844545
-0.000211748
-0.00018247
0.000394188
0.00011087
7.25337e-05
-0.000183404
0.00039809
-0.000208029
-0.000190089
0.000117394
-0.000329167
0.000170162
-0.000467293
0.000297093
0.00044395
-6.41202e-05
-0.00037989
-0.000953651
0.00107911
-0.000127554
0.000375358
-0.000959229
0.000574633
0.000565375
-7.91899e-05
-0.000486389
0.00107345
-0.000708667
-4.92017e-05
0.000175099
0.000756257
-0.00037077
0.000252635
0.000789245
0.000701881
-0.000260311
-0.000442006
0.000871541
-0.00108958
0.000311382
7.01616e-06
-0.000318423
-0.000469519
0.000321671
0.000147743
0.000230854
0.00012297
-0.000353857
0.000461425
0.000214543
0.00104968
-0.000446815
-0.000625792
9.51007e-05
-0.00028534
-0.000156398
-1.7573e-05
4.76101e-05
0.000170564
0.000355662
-6.99013e-05
-0.00028578
-0.00114573
9.81061e-05
0.00103492
0.000594928
0.000198874
-0.000796988
-0.000171545
0.000225712
-5.41663e-05
0.000347208
-4.16532e-05
-0.00030557
-0.000322547
2.33646e-05
0.000299178
0.000410528
0.000996897
-0.000483796
0.000342285
0.000141383
0.000126071
-0.000229762
0.00010369
0.000526967
-0.000490951
-3.62254e-05
0.000260314
-0.000736544
-0.000667854
-5.47081e-05
0.000722032
0.000152456
0.000151762
0.000139361
-0.000239276
-0.000439702
0.000138652
0.000231514
-0.000108433
-0.000123082
0.000329112
7.25163e-05
-0.000178451
0.000563458
-0.000224726
-0.000338809
-0.000356912
0.000612433
-0.000255764
-6.26776e-05
0.000367697
-0.000173725
-0.000630524
0.000803056
-0.00106678
9.61775e-05
3.57476e-05
-0.000276484
0.000240723
0.000318043
-0.000170946
-0.000147101
0.000881755
-0.000475545
-0.0004076
9.62937e-05
0.000996771
-0.000145481
7.36257e-05
0.000116174
-0.0001898
-0.000395204
-8.8681e-05
0.000304886
-0.000187513
-9.68807e-05
0.000408232
-0.000313934
-0.000155674
-0.000162281
-0.000181276
0.000343541
-0.000716056
0.00101788
-0.000302859
0.00108964
-0.000932833
-0.000158064
0.000782564
-0.000830891
3.37416e-05
-4.07412e-06
-0.000177319
2.59313e-05
-0.000353096
0.000326976
0.000893777
-0.000475748
-0.000419731
-9.77399e-05
8.93302e-05
-2.08652e-06
-0.000177595
-6.66854e-05
0.00024428
6.40935e-06
0.000558744
0.000360041
-0.000249024
0.000185395
-0.000118144
0.000171104
-0.000205969
3.48643e-05
-7.9745e-05
0.000250849
-7.43684e-05
0.000207707
0.000460336
0.000241059
0.000132556
0.000106929
-0.000239487
-8.23025e-05
-0.000623138
0.000694228
0.000199487
0.00081912
-0.000209527
-0.000282248
0.000491636
4.85935e-05
-0.000117765
3.98783e-05
2.2267e-05
0.000218301
-0.000237604
0.000328015
-9.04202e-05
0.00028159
4.23086e-05
-0.000323922
0.00095189
-0.000780035
-0.000379882
-0.000260792
0.00064018
-9.38891e-05
0.000375453
-1.15163e-05
0.000358708
0.000121967
-0.000656964
0.000235648
0.000420817
-0.000133385
0.000660055
6.17331e-05
0.000119684
0.000169811
-9.61853e-05
0.000270855
-0.000334318
0.000672782
-0.000577011
-9.59004e-05
0.000648471
-0.0010454
0.000395736
0.00125705
-0.0010017
-0.000269755
0.000180253
0.000137784
-0.000478799
0.000504455
-1.39931e-05
-0.00015855
0.000642452
-0.000688949
0.0003513
0.000528967
-0.000143714
-0.000247371
0.000391055
-3.67183e-06
0.000274501
0.000841927
-0.00103577
0.000188537
-0.00108622
0.000172322
0.00090878
-0.000439404
0.000211268
0.000228124
-0.000228781
-0.000114757
0.000343523
-0.000242055
8.55207e-05
0.000156534
-0.000146762
-9.50192e-05
0.000241781
0.000595425
-0.000280532
0.000207333
-0.000183012
-2.43216e-05
-0.000194398
-4.7657e-05
0.000449297
0.000316026
-0.000765479
-0.000499628
-5.72238e-05
0.000556638
-9.54145e-05
0.000218034
-0.000122619
0.00059615
-0.000751872
0.000154741
0.000331924
-2.45229e-06
-0.000329499
-0.000236926
0.00082881
-0.000291472
-9.51822e-06
0.000327589
-0.000322331
0.000511008
-1.91822e-05
-0.000492026
0.000191199
0.000502155
-0.000694355
-0.000940034
0.000895156
0.000333977
-0.000168626
-0.000165365
-0.00103659
0.00102777
3.65282e-06
5.29547e-05
0.000118112
0.000812083
0.000109815
-0.00024386
-0.000147584
0.00039141
3.02541e-05
-0.000197018
-0.000156651
-8.45743e-05
0.000241225
-0.000630802
0.000196119
0.000434528
5.94052e-06
-0.000505766
-1.17114e-05
0.000152342
-0.000146125
0.000310365
-0.000274632
-0.00105405
0.000111639
0.000931597
0.000629198
0.000246005
-0.000195019
-5.0987e-05
0.000483843
0.000188747
0.000786458
-0.000191593
4.3713e-05
0.000879705
-0.00020423
5.7467e-05
-0.00112004
0.000883376
0.000121942
0.000105478
-0.000101426
-0.000119199
0.000220625
0.00019008
0.000207975
-9.92702e-05
-4.07115e-06
0.000283627
1.03311e-05
-0.000293965
-0.000167326
-2.47822e-05
0.000192108
0.000257383
-8.88433e-05
0.000382394
-0.000530057
-0.000188271
0.000717831
0.000235809
2.84215e-05
-0.000264239
0.000161126
0.000172835
-0.000632042
0.000251683
9.38303e-05
0.000224032
-0.000328908
-0.000312967
0.000641492
0.00022169
-7.31383e-05
-0.000148552
-0.000364307
-4.83458e-05
0.000412617
0.000190544
-8.23802e-05
-0.000176651
-0.000779129
0.000632791
0.000145224
-0.00032621
2.89486e-05
-0.000206544
-0.000185063
0.000224841
-3.97782e-05
0.000451608
0.000791104
7.03207e-06
-0.000943384
0.000936404
4.15658e-06
-0.000180563
-0.000158424
0.000338969
-0.000270034
-0.000105229
0.000375245
-0.000458243
-0.000321604
0.000496745
-0.000490531
-1.60667e-05
-0.000348271
-0.00124553
0.000333328
0.000907954
0.000408794
-0.00023866
5.64458e-05
-0.000331062
0.000274577
-0.000201175
-0.000124325
0.000325493
-0.000257373
0.00102801
-0.00077756
-2.87953e-05
-0.000911818
-0.000147088
-0.000212687
-2.93461e-05
0.000242032
0.000174981
-0.000201097
2.61163e-05
-0.000344402
0.000525632
-0.000181423
-0.000343906
-0.000812398
0.000288864
-0.000300395
-0.000156826
-0.000180758
0.000337568
-0.000269345
-0.000158495
0.000427797
-8.11405e-05
0.000577663
-1.30075e-08
-0.000212674
0.000124817
5.66004e-05
-0.000181418
0.000691498
-4.6729e-05
-0.000645508
0.00065207
-0.00054906
-0.00010337
0.000153917
8.94213e-05
-0.000243343
0.00137158
-0.000924687
-0.000457191
-0.000754422
0.000723789
1.6691e-05
4.80575e-05
-0.000317434
-0.000517706
0.00026637
0.000251202
7.46477e-05
-0.000988403
0.000896888
0.000255573
-0.000338052
7.39421e-05
-0.000307284
-0.000756056
-7.59526e-05
-6.59315e-05
9.34771e-05
0.000701751
-0.000485866
-0.000216377
1.3553e-05
-0.000110794
0.000198103
-0.00045094
-0.000199825
0.00109313
-0.000266984
-0.00083056
-0.000199333
-2.39661e-05
-0.000147579
-0.00100921
0.000711155
0.000296746
-0.000340152
0.000152301
-0.000181418
2.91168e-05
-0.000778041
0.000603272
-0.000836026
-0.000173951
-8.32624e-05
-0.000367918
-0.000167488
-4.19492e-05
0.000209437
0.000195061
-0.000226309
3.12466e-05
0.000129593
-0.000434431
0.000304725
6.03788e-05
-0.000161369
-0.000126433
0.000258987
-0.000697711
0.000237045
0.000198339
-0.000435477
-4.29894e-05
0.00019529
-0.000245132
-6.96867e-05
0.000314813
0.000233296
0.000658082
-6.82045e-05
0.000222117
-0.000343043
0.000186492
0.000156542
-0.000230486
8.99984e-06
0.000221486
-0.000216813
0.000373396
-0.000156612
0.000488194
-0.000199178
-0.000289037
8.39397e-05
0.000147574
-0.000130686
0.000261519
-0.000130833
0.000263239
-0.000160581
-0.000359058
-0.000731601
-0.000202488
6.7495e-05
0.000134993
9.34153e-05
8.80022e-05
0.000227675
-0.000223478
-4.19861e-06
5.12332e-06
0.00022255
-7.36534e-05
0.000522919
-0.00021938
0.000482678
-0.000263417
-0.00069016
0.000260006
0.000429818
0.000160394
-0.000108459
0.0004995
-0.000219501
-0.000280025
0.000323708
-0.000326452
-4.99439e-05
-0.000453557
0.000227401
0.000760544
-0.00018296
-0.000578287
-0.00019229
-3.81966e-05
0.000187278
0.000239605
0.00111978
-0.000202134
-0.000670951
0.00048068
0.000189972
-0.000131153
-0.000537133
-0.000598634
0.000121326
6.05143e-07
-0.000168093
-7.98732e-05
0.000368721
-0.000334355
0.000866217
-0.000676308
0.000636767
0.000148396
0.000133963
7.3199e-05
-0.000207162
-0.000307741
0.000955103
-0.000319122
0.000728589
-3.8026e-05
0.000349566
-0.00043306
-0.00016421
-0.00050702
-3.27923e-06
5.17569e-05
0.00103601
0.000364027
-2.25478e-05
-0.00034151
-0.000349916
0.000141862
-0.000291428
-7.79306e-05
0.000369327
-0.000190594
-0.000110667
0.000244628
0.000153309
-0.000629805
-0.000196446
7.80597e-05
0.000236647
-0.000314723
-0.00109061
2.48338e-05
0.00104825
2.43226e-05
-0.000269461
0.000427849
-3.33203e-05
-0.000394586
-0.000109802
0.000220672
0.000470519
0.00028915
0.000115259
-0.000420931
0.000152711
0.000187293
0.0001391
0.000136001
-0.000275106
-0.000324556
-7.9345e-05
0.000403866
-9.56372e-05
-0.00010247
0.000198107
0.000452215
0.000278141
-0.000732547
-0.000248265
1.06532e-05
0.000212976
-9.67744e-05
-0.00070207
0.000278591
0.00042289
0.000102047
0.000119643
0.000663552
-0.000468482
-0.000195536
4.96864e-05
-0.00021159
0.000161903
0.000494709
0.000156872
0.000554059
-0.000286589
-0.000333049
-7.1838e-05
0.000404853
0.000378139
-0.000110417
-0.000267737
0.000318599
0.000769874
-3.93739e-05
-0.000644842
0.000683147
-0.000312398
-0.000205415
-0.000552881
0.000852669
-0.000935561
7.59846e-05
-0.000441766
9.71905e-05
0.000244087
-0.000238179
-5.90909e-06
0.000543019
0.000519198
-0.000591651
0.00053421
-0.000166412
-2.96904e-05
0.000196102
-0.000820205
0.00011733
0.000701175
-0.000299857
0.000185521
0.000114331
0.000427031
4.21848e-05
-0.000469423
0.000252576
-5.75171e-05
-0.000579694
-0.000173137
0.000270393
0.000237041
-6.82552e-05
0.000275585
-0.000311702
-0.000414551
-0.000165366
0.000579697
2.18913e-07
-0.000185282
-0.000201802
-1.32197e-05
0.000296839
-0.000530813
-0.000719007
-1.59083e-05
0.000379903
0.000633387
-8.0277e-05
-0.000553526
-0.000338744
0.000453903
-0.000127705
0.00100163
-0.000884497
9.07087e-05
9.07087e-05
0.000255955
-0.000119252
-0.000136704
0.000248045
1.01575e-05
-0.000258208
0.000755366
-0.000119874
-0.000349147
-0.000236318
-9.81234e-05
0.000334431
-2.83278e-05
0.000203309
-0.000315253
0.00102162
-0.000731512
-6.31634e-05
-0.000139324
-0.000238798
-0.000121605
0.000360385
0.000140586
-0.000222228
8.16405e-05
0.00018245
-0.000511671
0.000325961
-0.000233113
-9.2854e-05
0.00102725
-0.000710705
-0.000318779
-3.18968e-05
5.20741e-05
-0.000181418
4.3452e-05
-0.000153245
0.000292715
-0.000139479
0.000960766
-0.000762041
0.000196669
-0.000543463
-0.000106574
-0.000485273
0.000991554
-0.000282256
-0.000737227
0.000116956
0.000138997
-0.000433349
0.000213861
-8.72791e-06
0.000436514
0.000527066
0.000164233
-0.000692425
0.000820904
-0.000371397
-0.000609864
-0.0003381
0.000947915
-0.000155991
0.000295085
-0.00124455
0.000972249
-0.000962933
0.000353166
-0.000295904
0.000109986
0.000185915
-1.49982e-05
0.000259083
-0.000461906
0.000721378
-0.000325739
0.000136918
0.000188809
-0.000918937
-7.25359e-05
-1.90016e-05
0.000727294
-0.000215004
-0.0006068
-0.000339803
0.000411232
0.000103132
-0.000514593
0.000712734
-0.000969058
0.000250943
-6.23109e-05
0.000788072
-0.000728245
0.000232955
0.000122689
0.000997952
-0.000302768
-0.000697832
0.000130173
7.89167e-05
-0.000209091
0.000944724
-0.000596513
-0.000363971
-0.000633531
0.000728003
-9.54087e-05
-0.000175067
0.000224612
0.000588503
-0.00033132
-0.000257314
0.000280992
3.60057e-05
-0.000382045
-5.26853e-05
0.000687043
-0.00064434
-0.00023233
0.000758287
-0.000375501
0.00103236
-0.00066138
0.000306241
-7.5738e-05
-0.00023051
0.000146962
9.57453e-05
-0.00024271
4.31187e-05
-0.0005736
5.32579e-05
-0.000157178
0.00010392
0.000538831
-0.000906257
6.60288e-05
0.000830601
-0.000159695
-5.41809e-05
0.000213876
-0.000173038
-0.000167384
-0.000315255
0.000482525
0.000387512
0.000492578
-0.000883162
9.50255e-05
0.000168847
0.00039452
-2.5982e-05
0.00020413
-0.00017815
-0.000177805
-0.000777549
-0.000519823
0.000722515
-0.000203206
-0.000347135
0.000195677
0.000378234
-0.000574328
0.000121141
0.000140377
1.58208e-05
-0.000252147
-5.7176e-05
0.000305215
-0.000276337
0.000612603
-0.000336924
-0.000313718
-0.00112152
0.00103224
8.41449e-05
-0.000196105
-0.000197625
0.000624401
0.000225147
-0.00022884
-9.89483e-05
0.000731819
0.000499676
0.000298476
0.000289846
0.000273016
4.60107e-05
-0.000123132
8.17383e-05
0.000102811
-0.000184549
-0.000195942
3.62467e-05
0.000261069
-0.000130898
0.000121779
-0.00017471
5.29307e-05
-0.000148945
0.000193991
-2.94624e-05
-0.000164529
-0.000286
-0.000236282
0.000654194
-0.000418136
6.89084e-06
-0.000488736
0.000477745
-0.000218814
-8.10467e-05
-0.00100176
-0.000116775
-0.000149635
0.000994814
-0.000595622
0.000197229
0.000398224
-0.000222202
-9.40008e-06
0.000231602
0.000831009
-0.000732991
-9.98349e-05
0.000517363
0.000303092
-0.000821458
-1.22668e-05
0.000286409
-0.000274185
0.000308382
-0.000482734
0.000174188
3.20429e-05
0.00083018
-0.000862872
-0.000223562
0.000264644
-4.10849e-05
-0.000374922
-0.000615327
0.000982556
-0.000100656
-0.000125464
0.000226119
-2.80595e-05
0.000334292
-0.000925363
0.000721108
-1.90721e-05
0.000731644
-0.000714635
-0.000151237
-0.000179135
0.000330358
-0.000270867
-0.00106505
0.000216326
2.96626e-05
-0.000245993
-0.000241842
2.30246e-05
-0.00120756
0.000179326
0.00101366
-0.000119561
-0.000105285
0.000224846
0.000325616
-0.000140153
-0.000192935
-0.000176845
0.000369749
-0.000660799
0.000383666
0.000277565
-0.000167583
-0.000126188
0.000218208
-9.20196e-05
-0.000463633
-0.000755176
0.000355512
-0.000244836
-0.00011069
-0.000186009
-0.000833562
0.00101495
-0.000962457
-0.000213983
-6.88409e-05
0.00028282
0.000180251
-0.000130565
-0.00019259
-0.000392275
0.000584517
-0.000140438
0.000551428
0.000959652
-6.53415e-05
-0.000895657
0.000383328
4.80392e-05
-0.000431489
-0.000105566
0.000231637
-0.000155792
-6.64715e-05
0.000222263
-0.000913113
-0.000112299
0.00101499
5.80653e-05
0.000103092
-0.000161158
-0.000229827
-0.000809411
-0.000493937
-0.000523861
-0.000199068
0.000722189
0.000623278
-0.000961678
-0.000771445
0.000346148
-7.85104e-05
-0.000150183
0.000228693
0.000164989
0.000213129
-0.000198072
0.000755843
7.31113e-05
0.000947478
-1.41414e-05
-0.000179425
-6.64552e-05
0.000245879
-0.000655417
0.000514836
0.000133852
-0.000327155
0.000411904
-8.47828e-05
-0.000624805
-4.14853e-05
0.000665315
-0.00025778
-0.000387689
0.00064496
-0.000371829
0.000721826
-0.000350497
-0.000142928
-9.46378e-05
0.000237564
-8.33079e-05
0.000208125
-0.000692416
5.99757e-05
0.000631408
7.74314e-05
0.000135545
-0.000895537
0.000728514
0.000164434
-0.000518734
0.000297852
0.000220764
-0.000132587
0.000239392
0.000128571
9.59019e-05
0.000616095
0.000272765
-0.000892453
-0.000791749
0.000406744
3.71722e-05
2.46594e-05
-0.000174843
-0.000344025
0.000140888
0.000203123
0.000489871
-0.000106683
0.000164833
-0.000190817
5.35612e-05
-0.000578102
0.000691857
-0.000197599
0.000159913
8.60916e-05
-0.000151166
0.000279503
-0.00012834
0.000328653
5.09669e-05
-0.000379652
0.000103167
-0.000203824
0.000328117
-4.81054e-06
-0.000323324
-0.000225172
0.000131583
9.35874e-05
-0.000235347
-0.000613975
0.000846356
8.07592e-05
-0.000264563
0.000185298
0.000140656
-4.60141e-05
0.000811504
-0.000774642
-8.70725e-05
0.00018964
-0.000136992
0.000270734
-0.000133744
-0.000197077
-0.000490524
1.09773e-05
0.000837507
-0.000851903
-0.00014088
0.000194138
0.000296747
9.82963e-05
-0.000395112
0.000185305
4.04948e-05
-0.000225802
-0.000551924
-0.000697065
-7.2955e-05
8.81829e-05
-3.862e-05
0.000558135
0.000114467
-0.000672755
-0.000235128
0.00054332
0.000167627
0.000760241
-0.000199936
4.46352e-05
-0.000140727
-1.06964e-05
0.000338794
0.000471109
0.000247153
-0.000718945
-0.000419227
8.0394e-05
0.000474952
0.000601526
-0.000660015
0.000691546
-0.000456543
0.00057723
-0.000120865
0.000173721
-0.000115656
-0.000324263
-0.000242356
0.000566401
-0.000193008
-0.000574956
-0.000854431
-1.42911e-05
0.000846136
0.000776687
-0.00096604
0.000177513
-0.000481642
0.000199262
0.000612536
-0.000676969
0.000407389
-1.76667e-05
-0.000389775
4.03431e-05
0.00067816
-0.000720001
0.00028092
-0.000448418
-0.000241579
0.00032233
0.000635061
-2.59889e-05
-0.000612375
-0.000123845
-7.91168e-05
0.000202962
-0.000225875
0.000209156
-8.21022e-05
-0.000346499
0.000428546
-0.000120622
0.000198053
-0.000184658
0.000252188
-6.75309e-05
0.0005557
0.000264136
-7.8833e-05
0.000302656
-0.00031497
-0.000221836
-0.000149606
0.000371422
7.80714e-05
-0.000215065
0.00105803
-0.000150234
-0.000916804
-4.70176e-05
-0.000176546
-0.000209767
-0.000405261
-0.000297339
0.000218943
-9.71645e-05
-0.00032309
0.000190568
0.000132514
-0.000311467
-0.000792005
-2.18845e-05
0.000429215
0.000959353
-0.000122555
-0.000133824
-9.13479e-05
5.80997e-05
-0.000169558
0.000111459
0.00111419
-0.000527324
-0.000589727
-0.000131683
-0.000190941
0.000277954
-8.70146e-05
3.53329e-05
0.000182236
-0.000222625
-0.000244221
0.000275263
3.94293e-05
-0.000349165
6.04304e-05
-0.000184275
-0.000168991
-0.00010972
0.000278707
-0.000221265
-0.00061521
-0.000277315
-0.00012913
0.00040641
0.000773703
0.000221402
0.00064381
0.000313954
-0.000958832
0.000289935
-2.46417e-05
-0.000265301
-0.000349183
0.000119661
0.000237149
-0.000356843
-0.00105734
0.000801056
0.000223739
0.000268071
-0.000211654
-0.000281921
0.000462682
-0.000180856
-0.000493466
0.00021014
0.000283187
-0.000400524
0.000743825
-0.000343641
-0.000473156
0.000823022
-0.000156451
0.000453117
0.000126217
0.000431761
0.000152128
0.000207878
0.000549532
-0.000250317
-0.000326319
0.000516584
-6.54567e-05
0.000394071
-4.70686e-05
0.000251196
0.000292
-0.000171129
0.000246777
-3.7318e-05
-0.000209461
0.000299674
-8.33528e-05
-1.0901e-05
0.000315769
0.000137205
-0.000218444
8.12389e-05
0.000612875
-0.000455174
-0.000157903
-0.000245877
3.18906e-05
-0.000340548
-0.00100431
0.000775872
0.000221499
0.000439308
0.000252048
6.81959e-05
0.000223789
0.000733438
-0.000320761
-0.000413405
0.00101597
4.34199e-05
-1.11345e-05
-0.000956832
0.00095664
-0.000276924
-0.000157819
0.000434688
-0.000183695
8.80576e-05
6.80716e-05
-0.000702441
8.18498e-05
-0.000201049
-0.000923143
4.44521e-05
-0.000259879
9.08848e-05
0.000312213
-1.44381e-05
-0.0002978
0.000138428
-0.000181418
-0.00042513
0.000403188
-0.000686025
0.000105423
-0.000708377
0.000735482
0.000220703
-8.22748e-05
0.000320257
-0.00020062
0.000222984
0.000389648
-0.000251376
0.000379744
0.00043787
8.03023e-05
0.000197614
-0.000277921
-0.000359073
-0.00035412
0.000343403
-0.000358438
0.000700769
-0.000342827
0.000185759
0.000115058
-0.000300828
0.000589102
0.000436258
-0.000239437
0.000842804
-0.000527028
-0.000494409
0.00113707
-9.32804e-05
0.000229137
-0.000135857
5.03887e-05
-0.000164192
-5.40616e-05
0.000343987
-0.000208771
-4.81749e-05
-0.000377007
-0.000143952
-7.53414e-05
0.000219293
0.000165966
-9.34323e-05
-4.06363e-05
-0.000313502
-0.000302009
8.01568e-05
0.000242904
0.000312719
0.000695636
-0.000879817
0.000850483
0.00121405
-0.000606707
-0.000635297
0.000956928
-0.000192517
-9.63858e-05
0.000251451
0.000214133
-0.000465697
0.000430204
-0.000299918
-0.000130317
0.000169462
-0.000451458
0.000284953
-0.000118765
0.000573734
-0.000786246
0.000210964
-0.000206209
-8.84886e-05
8.84886e-05
9.7878e-05
0.00013021
-0.000556457
0.000248089
0.00030813
-0.000123857
3.2941e-05
0.000865752
-0.000865699
-8.32025e-07
-0.000208868
-2.58482e-05
0.000234716
-0.000748099
9.12036e-05
0.00029372
-0.00023116
-6.25633e-05
-0.000186228
0.000264298
0.00025914
0.000407854
-4.28345e-05
-0.000365098
-0.000997828
0.0010061
-2.17978e-05
-0.00023739
0.000104789
0.000765015
-0.000335069
-0.000430668
-0.000783585
4.88578e-05
-0.000266228
-0.00069539
0.000695863
-1.49047e-06
-0.000929909
0.000298041
0.00108443
-0.000783382
-0.000308752
0.000549596
-0.000288464
-0.000261356
-0.000135314
-7.59103e-05
0.000211225
-0.000739958
0.000312651
0.000426655
-0.000207278
-0.000479194
0.000685995
5.29217e-05
-0.000291735
4.38136e-05
-0.000199606
-0.000304012
-0.00027307
0.000707017
-0.000359699
-0.000347819
-0.000114638
0.00024851
-0.000133873
0.000539708
0.000643644
0.000155917
-0.000217343
0.000208987
-6.82651e-06
-0.000829298
0.000524273
-0.00022082
0.000297289
-7.64758e-05
-0.000454925
2.18748e-05
0.000432976
0.000415946
-0.000185129
0.000272639
-0.000414038
0.000141345
-0.000489819
-0.00018899
-0.000333167
0.000520387
-7.80701e-05
7.80701e-05
-0.000292142
-0.000226692
0.000579562
-0.000817857
-0.000352833
0.000163472
0.0003539
0.000313802
-0.000668562
0.000292578
-0.000299607
7.01406e-06
0.000587435
7.13782e-05
-0.000681672
-0.00015651
-0.000185944
0.000342435
0.000265819
-9.07511e-05
-0.000242283
0.00033303
0.00040752
-0.000134935
-0.000248121
0.000174803
7.33175e-05
-0.000497217
0.000272427
-6.886e-07
-0.000265515
-0.000146265
0.000411744
-0.000243174
0.000886695
-0.000663341
-0.000627598
0.000587254
0.000287787
-4.10119e-05
-0.000177954
0.000251153
-0.000198186
0.000100591
0.000147918
-0.00109214
0.000145575
0.000942703
0.000418997
0.00069185
-5.09064e-05
-0.000299096
0.000349948
-0.000328469
-0.000469453
0.000796505
-0.00103903
0.00105486
-2.70282e-05
-0.000215301
0.000106119
0.000135778
-0.000316358
-0.000193654
7.91177e-05
0.000114536
-0.000349675
-5.24913e-05
-0.0004025
0.000539525
0.000416149
-0.000956704
-0.00102629
0.000244824
0.000147958
0.000128736
-0.000276699
-0.000417888
0.0004091
-7.54517e-05
-0.000295352
0.000341045
-4.69582e-05
0.000301848
-0.000178903
-0.000172642
0.000359184
-0.000186565
-0.000129741
0.000242221
-0.000959116
6.10667e-06
0.000439901
-0.00046129
4.70886e-05
-0.000182403
0.000378238
-0.000779121
0.000674457
-0.000401164
-0.000273764
0.000807614
0.00015116
-0.000192232
-4.21793e-05
0.000234411
1.64692e-05
0.000115238
-6.6209e-05
0.000201754
0.00089223
-0.00100115
0.000106302
0.00039163
-0.000201584
-0.000266506
-0.000316413
0.000582601
7.05054e-05
0.000287501
-0.000358056
-0.000566124
0.000181382
-0.000897047
-0.00017938
0.000672919
-0.000494761
-0.000155035
-0.000446892
0.000571922
0.000319397
-0.000214442
-0.000104964
-0.000895579
0.000338574
0.000556241
8.90602e-05
0.000135781
-0.000834561
0.000451988
0.000380298
2.33984e-05
-0.000243305
0.000219902
0.000237015
-0.000157269
-7.97467e-05
-0.000645624
0.000269297
0.000375827
0.000477843
-0.0001596
-0.000348783
0.000242129
-0.0001462
-9.59287e-05
-0.000157525
0.000256221
-9.86982e-05
-0.000125996
-0.000567319
-0.000418716
0.000440517
-0.000945587
6.4778e-05
0.000138381
-0.000181418
4.30369e-05
-0.000180258
-0.000830591
0.000260168
-0.000191984
-0.000177589
0.000954855
-0.000785343
0.000302637
-0.000480593
3.82583e-05
0.000255457
-0.000560497
0.000666214
-0.000728556
-6.14479e-05
-0.000455072
0.000213603
-0.000138617
-7.49867e-05
-0.00024566
0.000125226
0.000120432
5.05042e-05
-0.000241447
0.00125148
-0.000814567
0.000207691
-7.04868e-05
-0.000926207
0.000662925
-1.50665e-05
0.000573833
0.000406916
0.000609618
-0.00019251
-0.000315068
0.000354191
2.837e-05
-0.000386741
-0.000119561
0.000255599
-0.00013604
-0.000140482
0.000273022
-0.000132541
-0.000200376
-0.000840531
-0.000146992
-1.67182e-05
0.000392513
-0.000585434
0.000894669
-2.85144e-05
8.69718e-05
0.000155157
-0.000344891
-0.000113151
-0.000139652
0.000223591
0.000403121
-0.000583621
-0.000178964
0.000775028
-0.000829838
0.000578755
-0.000327073
0.000372953
-6.07724e-05
0.0011519
-0.000104348
-0.000209384
-1.75602e-05
-0.000242977
-8.70696e-05
0.000330039
0.000163214
-0.000105114
-0.00012715
0.000534896
-0.000104207
0.000132862
-0.000407048
0.000274074
0.00019776
0.000820657
-0.000253039
0.000577027
-0.000324257
-1.95959e-05
-0.000399186
0.000109079
7.47876e-05
-0.000183867
0.000430437
0.000270779
0.000166351
-0.000292029
0.000125672
-3.7331e-05
-0.000380612
0.000340913
-9.27883e-05
-0.000170497
0.000233126
-6.26301e-05
-0.000193171
2.26724e-05
-0.000192832
0.00012427
6.85629e-05
-0.000142843
-0.000167419
-0.000100818
0.000268233
0.000757415
-0.00014552
-1.60395e-05
0.000251842
0.000324768
-0.000180097
-0.000144678
0.000304248
0.000428366
0.000100804
0.000169339
0.000174013
2.9651e-05
-0.000203665
0.000539036
0.000234771
-0.000775425
0.000132135
0.000313225
0.000978879
-0.000366234
-0.000371564
0.000908702
-0.000201633
0.000144324
0.00101803
-7.91335e-05
-0.00095193
-0.000556236
0.000302938
-0.000168535
0.000198789
-0.000829654
0.00071937
0.000108485
0.000222471
-0.000102787
-0.000764079
0.000209033
0.000554387
-0.000427927
0.000201276
0.000226581
0.000247695
-0.000178402
-6.92935e-05
-0.000679194
-0.000153045
-0.000190991
-7.65704e-05
-0.000385907
0.000462029
-0.000273029
-0.000373054
-0.000157722
-8.79386e-05
0.000806828
-0.000297811
0.000374864
-7.70691e-05
-0.000223214
0.000152713
6.08897e-05
0.000995772
-0.000209114
-0.00079165
-0.000194447
9.30254e-05
0.000101422
0.000709781
-0.00043179
-7.87334e-05
0.000190823
-0.00011209
8.18139e-05
0.000103891
-0.000185705
-9.73696e-05
-9.70773e-05
-0.000623645
0.000382779
0.000240625
-0.000961458
0.00077182
0.000187059
-0.000853471
-0.000242498
-0.000187766
-4.3076e-05
0.000226136
0.000278326
-0.000245621
0.000984717
-0.000742356
-0.000108621
-0.000428047
0.000663179
-0.000662386
0.000246437
0.000415676
-0.000506822
0.00020277
0.000561404
0.000195122
0.000304492
0.000931301
0.000749692
-0.000449002
-0.000301738
-0.000323454
-0.000458844
0.000781539
0.00055814
-0.000578839
-0.000598108
-0.000106657
0.000177795
-0.000226343
4.85469e-05
0.000322498
-0.000185853
-0.000136654
-0.000676754
0.000422871
0.000253251
-0.000312611
0.000488003
-0.000175539
-0.000109997
0.000284008
-0.000413731
0.000206279
-0.00019728
-0.000357975
0.00086731
-0.000236905
0.000601033
-0.000364453
-0.000658124
-0.000238008
0.00102629
-0.00024919
-0.000783196
-0.000425123
-0.000118348
0.000543289
-0.00087199
-4.31164e-05
0.00105856
-5.57767e-05
0.000315795
0.000172367
-0.000853822
-7.97748e-05
-4.11741e-05
0.000333737
-0.000150325
0.000760582
-9.4345e-05
0.000180659
-8.63144e-05
-0.000178618
-0.000124741
0.000303352
-0.000329514
0.000131995
0.000197502
0.000211428
0.000144069
-0.000989497
0.000145573
0.000838295
-0.000210424
0.000170961
0.000177958
-0.000348945
-1.71772e-05
-0.000644857
0.0008497
-0.000547682
0.000238855
-3.25764e-05
0.000382924
0.000336152
-0.000719581
0.000344621
0.000282321
-0.000258004
4.58742e-05
-0.000212286
-0.000106695
-0.000359028
0.000465649
-0.000930791
0.000811321
0.000114911
0.000114454
0.000329162
-4.68488e-05
-0.000236264
-0.000483604
0.000406561
0.000819182
-0.000855273
-0.000854955
-0.000136919