/*--------------------------------*- C++ -*----------------------------------*\
| =========                 |                                                 |
| \\      /  F ield         | OpenFOAM: The Open Source CFD Toolbox           |
|  \\    /   O peration     | Version:  v2012                                 |
|   \\  /    A nd           | Website:  www.openfoam.com                      |
|    \\/     M anipulation  |                                                 |
\*---------------------------------------------------------------------------*/
FoamFile
{
    version     2.0;
    format      ascii;
    class       volVectorField;
    location    "200";
    object      ddtCorrDdt0(U);
}
// * * * * * * * * * * * * * * * * * * * * * * * * * * * * * * * * * * * * * //

dimensions      [0 1 -2 0 0 0 0];


internalField   nonuniform List<vector> 
13851
(
(0.000257828 -0.00127847 -1.01388e-18)
(-0.0526765 -0.205576 -6.01804e-19)
(-0.00739751 0.0179249 -7.74683e-21)
(-0.000279755 -0.00105632 6.7561e-19)
(-0.0107805 -0.00282791 -2.44783e-18)
(-0.0624078 0.0045271 6.84365e-20)
(-0.000171457 -2.55488e-05 3.22523e-18)
(-0.00105973 0.00608156 -3.90786e-18)
(0.000283442 -1.35309e-05 1.46009e-19)
(0.0258837 0.0202033 -3.04829e-18)
(0.0214452 -0.0995848 -1.96546e-19)
(-0.00166661 0.126974 -5.03624e-18)
(0.00464178 -0.0445658 -5.81555e-18)
(0.0160384 -0.10712 -1.0855e-17)
(-7.06172e-05 2.51785e-06 -1.53986e-20)
(0.00334329 -0.00188157 -4.84072e-19)
(-5.24269e-05 3.79156e-05 1.18729e-18)
(-0.00186095 0.00598327 -5.33001e-19)
(-0.0226015 -0.040458 2.8748e-19)
(0.00028039 -1.03271e-05 -1.27065e-19)
(-0.000277257 -0.000894563 -1.48579e-19)
(-0.0091323 0.0155015 4.49908e-18)
(2.00786e-05 -8.04324e-06 2.58384e-20)
(0.00019034 -3.43966e-06 1.51891e-19)
(2.20189e-05 -4.04063e-06 -8.83299e-20)
(-0.000357025 0.00669388 -5.10353e-19)
(-0.000497366 0.00012679 2.20501e-18)
(-0.00861448 0.0549492 2.00262e-17)
(0.000382764 -0.000994238 6.54359e-19)
(-0.00156382 0.000495454 -1.35255e-19)
(-0.077603 0.0143163 9.12067e-19)
(-1.83096e-05 9.13591e-05 5.61458e-18)
(-0.00499393 0.0177197 8.5115e-19)
(-0.038724 -0.0200854 6.62027e-20)
(0.000206107 -2.44417e-06 2.24736e-20)
(0.0068971 0.002306 6.32785e-18)
(0.0132749 0.00605088 1.0545e-17)
(-0.0524388 0.006474 1.20902e-18)
(0.0277972 0.024104 4.46808e-19)
(-0.0434836 0.0129665 7.26195e-19)
(-4.54724e-05 7.24465e-05 2.58323e-19)
(-0.000149073 -9.20161e-05 -8.19537e-20)
(0.0671689 0.0823978 2.67221e-17)
(0.0230992 -0.0754969 4.96517e-19)
(0.0171029 -0.100333 -2.0828e-18)
(0.233247 -0.122911 -1.60224e-17)
(0.00116099 -0.0472823 2.24263e-18)
(0.0700237 -0.0553841 -9.8739e-20)
(-0.000527424 0.000132938 2.25271e-18)
(0.00671625 0.0303038 -8.35583e-20)
(-0.00165764 -0.00443933 -8.11616e-18)
(-0.00066501 -0.013864 -6.28205e-18)
(-0.0130405 0.099444 -1.96608e-17)
(-7.2034e-05 1.1838e-06 3.47224e-18)
(-8.73905e-06 9.6042e-06 -1.59778e-19)
(-0.000156598 -0.000108414 -9.32975e-20)
(0.000188298 -1.15973e-05 -2.51068e-19)
(-0.0279208 0.0547966 1.40245e-17)
(-0.00140195 0.000578951 5.07135e-20)
(-0.000194982 6.90213e-06 1.14842e-18)
(-0.0551594 0.0128403 3.87716e-19)
(-0.0432935 -0.133011 5.25727e-18)
(0.024044 0.0270703 -6.05358e-19)
(-0.0113363 -0.00677187 4.67478e-18)
(-0.0388664 -0.0805605 2.52393e-18)
(-0.000327353 -0.00314176 -4.54801e-20)
(0.00833874 0.00688744 1.70445e-17)
(-0.0133211 0.0147439 1.48497e-18)
(-0.00161775 0.000130998 1.91087e-18)
(-0.000983417 0.00616216 -7.50609e-19)
(-0.000169895 0.000488102 -2.84139e-17)
(-0.00287143 0.00958914 -1.78362e-19)
(-0.0530227 -0.195988 -2.16858e-18)
(-6.98308e-05 2.14477e-06 -1.59109e-19)
(-1.69157e-06 1.82029e-05 1.56569e-19)
(0.000339876 -3.49179e-05 8.86363e-20)
(-0.0084578 0.0140805 -1.94879e-18)
(-0.00300078 -0.00237347 -7.91972e-18)
(-0.00421526 0.000927304 8.90767e-18)
(0.00445218 0.000718396 -1.65999e-17)
(-0.000247267 -7.14448e-06 -2.70205e-18)
(-0.00097121 0.113375 3.71219e-21)
(-0.000139166 -3.53182e-05 3.57749e-19)
(0.212039 -0.112069 1.34013e-17)
(0.021437 0.0334231 -4.49744e-19)
(0.0111173 0.118654 6.70615e-18)
(-0.031928 0.0211602 -7.72465e-19)
(0.191371 -0.0779121 -8.031e-18)
(-0.000398249 0.000336881 -2.60016e-19)
(0.000427642 -0.000486337 6.56272e-20)
(0.00689323 0.00163701 -8.69053e-18)
(0.0109153 -0.00955615 -5.59643e-19)
(-0.0178691 0.0596632 4.12358e-19)
(-0.000678671 0.000605729 -3.97755e-18)
(-0.000424197 0.000299253 3.31406e-19)
(0.000182817 -8.91293e-06 6.09215e-20)
(-0.0106609 -0.00415244 -2.00143e-18)
(0.0215011 -0.0559251 1.30634e-17)
(0.0106991 0.0368846 4.32783e-20)
(0.000157063 -6.28096e-06 1.1019e-20)
(-0.0718846 -0.281336 -1.26013e-17)
(-0.00342951 -0.00107777 1.24483e-17)
(0.000179804 0.000399391 -5.30231e-20)
(-0.000488734 -0.000194032 3.96071e-19)
(-0.000112741 -7.55982e-06 -2.29341e-20)
(-0.0136059 0.0402746 -9.38428e-19)
(-0.00310955 -0.00216168 1.1135e-17)
(-0.000182496 -0.000102289 -6.50805e-20)
(-0.00784071 0.0102744 1.29083e-17)
(-0.0584671 -0.0130163 2.23076e-18)
(0.000180553 8.34311e-07 1.37553e-19)
(0.000521566 -0.000503375 5.13298e-19)
(0.00887524 -0.00831014 6.02633e-19)
(7.01261e-05 1.33043e-06 -3.20279e-19)
(0.000203005 2.42402e-06 2.91776e-19)
(-0.0533042 -0.204516 8.20222e-18)
(0.0179319 -0.0559174 4.95686e-18)
(-0.000132869 -4.95137e-05 -5.60754e-21)
(0.00011345 3.057e-06 -8.8744e-21)
(-3.01082e-06 1.37692e-05 -3.62786e-19)
(0.0431068 0.0988868 -3.294e-17)
(-0.000484018 -0.000159002 6.32968e-18)
(0.00695889 -0.0472779 2.34381e-18)
(-0.024612 -0.262991 1.08724e-18)
(0.0705457 -0.0539626 2.91458e-20)
(0.000148046 -0.00281498 -3.02191e-19)
(0.0617987 -0.0807497 -2.5939e-19)
(-0.00402061 -0.000162056 4.43521e-18)
(-0.000485157 -0.000701099 2.67462e-19)
(-0.0245956 -0.0107183 5.41409e-19)
(-4.53712e-05 7.22944e-05 3.259e-20)
(0.000170888 8.30577e-05 2.54299e-19)
(-0.000203155 0.00102564 2.02297e-17)
(-0.000135515 -3.92627e-05 6.59148e-19)
(-0.0169759 -0.0893861 -2.78768e-18)
(0.000150479 2.23014e-05 -3.38719e-20)
(-0.000130384 -4.39381e-05 1.16854e-19)
(-0.00164264 0.00815692 -1.15274e-17)
(0.0168388 -0.121785 -4.55491e-18)
(0.12212 0.00966711 2.38855e-18)
(-0.0665331 -0.270365 9.30298e-18)
(-4.9442e-06 1.01929e-05 1.17432e-19)
(0.00183058 -0.000435009 -4.02329e-19)
(-0.000157236 -4.75567e-05 -7.0158e-20)
(-0.000316198 -0.000333094 -6.13645e-18)
(0.0242303 -0.0418802 -7.17303e-19)
(-0.00359429 0.0125172 -9.13819e-21)
(-0.027375 -0.00901122 1.2748e-18)
(-0.000170177 -1.85273e-05 -4.19373e-18)
(0.0140548 -0.123637 3.2837e-19)
(0.000588085 -0.000459499 7.40936e-18)
(1.61818e-05 1.29851e-05 -1.91635e-19)
(0.0120111 -0.118443 1.09102e-17)
(0.000185175 -1.03325e-05 -3.38599e-20)
(-0.000301328 1.43066e-05 -3.17593e-18)
(-0.000353776 -0.000341454 2.52398e-18)
(0.00016398 0.000103675 -7.28523e-19)
(-0.000912935 0.000141447 7.2219e-19)
(-0.0018994 -0.0149229 -1.24486e-18)
(-0.00220272 -0.00428808 2.64257e-18)
(-0.000299067 7.2495e-06 -2.10476e-22)
(-0.000905452 0.000189756 -3.54702e-18)
(-0.0247658 0.0651172 7.52678e-18)
(0.000178074 8.53018e-05 -6.88478e-20)
(-0.00297263 -0.00212548 -1.44771e-19)
(-0.0001304 -6.32683e-05 5.36468e-19)
(-0.00692074 0.0146068 3.23451e-20)
(-0.00162921 4.53568e-06 -6.46318e-19)
(-0.000428549 -0.000537975 2.68646e-19)
(0.0270466 -0.0974285 -3.10451e-18)
(-0.00319093 -0.00187213 1.43313e-17)
(0.00025696 -8.09009e-06 3.11823e-19)
(0.000159818 0.000123742 -1.27673e-19)
(0.119732 -0.00835886 -3.17969e-18)
(0.000177684 7.8483e-05 2.87518e-19)
(0.0734145 -0.0473051 3.03401e-19)
(-0.00394827 0.000184232 -4.17954e-18)
(0.00141541 0.00122209 2.28087e-19)
(-0.0163883 -0.04313 -3.78553e-18)
(-0.000205268 -0.000118698 -3.27297e-20)
(0.000131275 0.000132837 -9.74508e-19)
(-0.00495428 0.00908651 3.0698e-18)
(-0.000121383 -3.94411e-05 -6.98627e-19)
(-0.0115549 0.0156027 -7.57095e-18)
(-0.000209995 -1.10849e-05 -1.81954e-21)
(0.000100374 -1.29377e-05 -1.36452e-19)
(0.000346679 -0.00326157 5.73866e-19)
(-4.07934e-06 8.74927e-06 7.62333e-20)
(-0.0153416 -0.00251389 -9.06289e-19)
(0.0349731 -0.0218712 -8.77424e-19)
(-0.00273451 -0.00552851 -1.00035e-18)
(-0.0173857 0.0896481 -3.47188e-18)
(0.000663692 -0.000756549 4.59392e-19)
(-0.00174005 0.000610925 3.38272e-18)
(-0.0692537 -0.123731 -3.29231e-18)
(-0.00029118 -2.11487e-05 -3.41307e-18)
(0.0014589 -0.000367753 -9.80007e-19)
(-0.0252483 0.155387 -6.21979e-18)
(0.00142263 0.000894271 -9.36233e-19)
(0.000351213 -2.65962e-05 5.04616e-19)
(0.00070889 -0.00278392 3.92475e-19)
(0.1576 -0.117672 2.01048e-19)
(4.86889e-05 4.47049e-06 3.098e-20)
(-0.000112027 0.000125184 2.97589e-19)
(0.026104 -0.0050699 3.15596e-20)
(-0.000125445 -3.97387e-05 2.28887e-18)
(-0.166297 0.114104 7.82128e-18)
(-0.000163235 0.00018531 5.44527e-18)
(-0.00407787 0.000198507 -1.08237e-17)
(-0.000257694 -7.62439e-05 3.40252e-20)
(-0.00349653 -0.000178712 -1.3103e-17)
(0.000136241 0.000353233 -6.98357e-20)
(-0.0108109 0.183088 -8.60693e-19)
(-0.000213912 -7.8668e-05 1.57961e-21)
(-0.000124104 -4.86263e-05 -1.25135e-20)
(-0.00945471 -0.0897117 -2.60702e-19)
(0.00645894 0.0355956 2.33637e-19)
(0.223189 -0.127813 5.1465e-18)
(-7.76864e-05 -7.13464e-06 4.73028e-19)
(-0.00379026 -3.01415e-05 7.25007e-18)
(-0.000119373 0.000215055 -8.5425e-18)
(-0.000252506 -3.24646e-06 5.34752e-19)
(0.0120844 -0.0222783 -5.89717e-18)
(-0.0101867 -0.0151831 -1.26302e-18)
(-0.00210656 0.00442192 5.44274e-18)
(5.57749e-05 -5.86004e-06 6.60986e-20)
(-0.000917399 0.000844549 -2.77116e-18)
(-8.33827e-05 -4.82877e-06 -9.83729e-21)
(-0.0366244 0.0847248 2.70525e-18)
(-0.000222448 -7.40247e-05 1.89042e-20)
(0.000622999 0.00630203 -3.41259e-19)
(-0.147848 0.0461004 -1.88145e-18)
(0.000255507 -1.15104e-05 -3.82173e-19)
(0.000515307 -0.000729759 -3.46239e-19)
(-0.00127396 -0.00297755 9.49548e-18)
(-0.0209108 0.00834555 -9.87974e-19)
(-0.190823 0.111895 -1.01126e-17)
(-0.00593311 -0.0911896 8.10163e-19)
(-0.000140038 -3.18575e-05 1.06793e-19)
(-0.000120293 0.000122167 -4.2538e-19)
(-0.0746301 0.0353501 1.26604e-19)
(0.0533439 -0.00709016 1.0074e-19)
(-0.000569696 0.00039683 -1.45245e-20)
(0.0301031 -0.00450912 -3.78119e-19)
(-0.000142191 -1.31435e-05 8.31123e-20)
(-0.00159111 0.0028957 8.40395e-18)
(-0.00383257 -0.00109671 -1.02623e-17)
(-0.0128108 0.0723983 -8.71414e-18)
(-0.000415905 -0.000395491 -2.67603e-19)
(0.000221111 -0.00078649 -6.29612e-18)
(-0.00788324 0.000937709 -1.942e-19)
(0.056801 -0.0203361 -6.85637e-20)
(-0.00030538 -0.000122243 1.84224e-18)
(-0.000367005 -0.000400414 1.44112e-18)
(-0.00151377 -0.0016833 2.01232e-18)
(0.0630712 -0.0316126 8.41455e-19)
(0.0299666 -0.0245491 1.09728e-18)
(-0.00353868 0.00748531 5.66139e-18)
(3.47983e-05 0.00483882 1.03968e-17)
(-0.000100557 9.00943e-06 2.32379e-18)
(-0.000133611 -4.8056e-05 -1.35264e-19)
(0.000366571 0.00494672 5.33964e-19)
(-0.0528359 -0.0129885 -2.1621e-18)
(-8.90032e-06 -0.000662209 1.89486e-19)
(-0.0191217 -0.0485205 2.10164e-18)
(-0.0003058 -2.54267e-05 2.42904e-18)
(-0.000295617 -0.000114746 -3.03126e-18)
(-0.00062393 0.000541049 5.1823e-18)
(0.0113723 -0.0236224 -1.27551e-17)
(-0.00295301 -0.0128901 1.10839e-18)
(-0.0074701 0.00286942 -4.7116e-19)
(-0.000308586 1.25783e-05 -4.15221e-19)
(-0.0814363 -0.0503618 6.74757e-19)
(-0.00371416 0.00106087 4.069e-18)
(0.002847 -0.00233823 -9.62497e-19)
(0.000171303 8.69516e-05 -6.13609e-19)
(-0.00407088 0.115191 1.67523e-20)
(-0.0242711 -0.0145555 -2.38854e-19)
(-0.000236527 0.00749643 1.02711e-17)
(0.0119141 -0.109893 -1.05302e-19)
(-0.000470828 0.000548828 1.60223e-20)
(-0.000247378 -4.26881e-05 4.11104e-20)
(-0.000127262 -7.04443e-06 1.16252e-20)
(-0.00156091 -0.00149589 -7.21975e-18)
(-0.0403097 0.000253561 -7.74135e-19)
(0.066003 -0.0642258 -4.12398e-18)
(0.000314245 -2.54403e-06 -6.01516e-20)
(-8.05088e-05 -3.02748e-06 2.62165e-19)
(-0.0844774 -0.0274706 4.76946e-19)
(0.00255004 0.107154 1.92739e-19)
(-0.0302206 -0.0116784 1.7226e-18)
(-0.00123593 0.000419716 -1.27834e-19)
(-0.000198996 8.76227e-06 1.05403e-19)
(-0.00203133 0.000249304 -8.28337e-18)
(0.00159552 0.115524 1.40092e-18)
(-0.0180968 -0.0470379 -1.27402e-19)
(-0.00179487 -0.00211541 -1.38818e-19)
(0.0228954 0.114083 -1.45045e-18)
(0.000167455 8.85168e-05 9.82113e-20)
(-0.0018907 0.00263092 2.11178e-18)
(-0.000850236 0.000171998 8.22791e-18)
(-2.71082e-05 -5.58985e-05 1.52473e-18)
(-0.00224132 0.00748831 7.55867e-18)
(-0.000160576 0.000340353 -6.02039e-19)
(-0.0248797 0.0391359 1.25167e-18)
(0.00289929 -0.00840575 5.81765e-18)
(0.000305503 -1.09447e-06 -6.2652e-20)
(-0.00183884 -0.00091097 4.03901e-18)
(-0.000632636 0.000682506 1.39815e-18)
(-0.00110506 0.000484823 1.18435e-18)
(0.00215959 -0.129647 -1.35676e-18)
(-0.00198018 -0.00235397 6.24565e-20)
(-0.000319718 -9.42151e-05 2.76396e-18)
(0.0171181 -0.0307043 -7.92283e-18)
(-0.000138438 -7.44986e-05 1.88152e-19)
(0.000344818 -0.000759587 7.68205e-18)
(0.002139 -0.0031245 -2.64502e-19)
(-0.00311457 0.00785828 2.04664e-18)
(0.00410499 3.36171e-05 -3.67307e-18)
(-7.97563e-05 -6.44241e-06 -1.33813e-19)
(-0.00269054 -0.0016666 -3.60015e-18)
(-7.54527e-05 8.06387e-06 1.48104e-18)
(0.00265038 0.00265649 5.62814e-18)
(-0.0117279 -0.00170264 -3.36746e-19)
(4.23919e-05 -6.04926e-06 -1.82479e-19)
(0.000246823 0.000106023 -1.15874e-19)
(0.00408707 -0.000546389 4.9841e-18)
(-0.000832083 0.000762852 5.6581e-19)
(-0.00032429 4.32906e-05 -6.12166e-19)
(-7.89297e-05 -6.61132e-06 3.37912e-19)
(-0.000167311 0.000317812 -1.04944e-18)
(-0.000321333 -8.05574e-05 -1.4825e-18)
(0.0208363 -0.103947 6.28884e-19)
(-0.00996142 -0.221235 -9.29951e-18)
(-0.00390974 -0.118621 -4.08083e-18)
(0.00558566 0.00823876 -1.1084e-18)
(-0.00432358 0.00780853 -2.4907e-17)
(-0.109515 -0.0135856 4.08213e-19)
(-7.10928e-05 1.8483e-06 1.03595e-18)
(-0.00185087 0.00076087 -5.07029e-18)
(-0.0335953 -0.0101104 -1.61599e-18)
(0.0164189 -0.0058877 -2.42277e-19)
(-0.0364523 0.0190128 -4.97662e-18)
(0.000274249 -0.0106316 -2.00906e-18)
(-0.0259817 -0.0421766 1.14648e-18)
(0.000376838 -0.00419935 -1.26016e-19)
(0.00727652 0.00202881 3.36901e-19)
(-0.000798559 -0.00280028 -2.92784e-18)
(-7.05788e-05 2.48314e-06 -6.22261e-19)
(0.0221877 0.0165094 2.78591e-19)
(0.0255235 0.0107761 -3.60195e-19)
(-0.0399451 0.0813318 4.81124e-18)
(-0.000329363 3.83852e-05 8.86074e-19)
(-0.0434344 0.0205927 -2.36302e-18)
(-0.0372694 0.0735327 8.16272e-19)
(0.000163394 0.000139141 -1.10926e-19)
(0.0163553 -0.000574606 -2.53007e-18)
(0.000233973 7.85849e-05 4.37153e-19)
(-7.5384e-05 4.57446e-06 -9.01138e-19)
(-0.000161983 -1.63e-05 -1.09572e-19)
(-0.000192176 -0.000105514 1.14683e-20)
(0.000148724 9.3161e-05 2.3208e-20)
(-0.000840864 -0.00302115 1.56209e-17)
(-0.00207159 0.151846 2.15001e-18)
(-0.000167796 0.000132746 9.28347e-19)
(-0.00179266 -0.000740638 -4.16714e-18)
(-0.000138457 -8.98268e-05 -1.31772e-19)
(0.0304823 0.124236 1.69105e-18)
(0.00546564 -0.00640729 -4.29259e-19)
(0.0240747 -0.0422697 1.76341e-18)
(0.0159213 -0.102015 3.25171e-18)
(-0.00016855 0.000150629 -1.21693e-18)
(0.00389666 0.0412205 -6.29031e-19)
(-0.000440464 0.000762142 -8.60506e-18)
(0.0413188 -0.0460847 -4.66833e-19)
(-3.79837e-05 8.16303e-05 7.92389e-20)
(-0.000128693 -4.78224e-05 2.46388e-20)
(-0.00314118 -0.00847305 2.43325e-19)
(-0.0771623 -0.234064 2.72384e-17)
(1.87284e-06 1.16488e-05 7.71917e-21)
(-0.0130988 -0.107093 2.00753e-18)
(0.0153086 -0.00890419 4.91711e-19)
(0.00116153 -0.0113726 1.73152e-19)
(0.0334758 -0.112409 4.83937e-18)
(0.0408257 0.00343222 4.44665e-20)
(0.0385587 0.0183116 4.73238e-20)
(-0.000904695 0.00594911 -4.09776e-19)
(0.000138291 4.01731e-05 -1.70853e-20)
(-7.13659e-05 1.02612e-06 9.84931e-19)
(0.00493109 0.00653702 -8.45221e-19)
(-0.00239078 -0.00164918 -2.08769e-18)
(0.0422548 -0.0829102 -3.09426e-19)
(-0.00153174 -0.000169302 -6.92562e-18)
(-0.00314664 0.00448437 1.15297e-17)
(0.00138769 -0.00633866 -6.01851e-18)
(-0.000133348 -7.56192e-05 -9.02742e-20)
(-0.000102581 9.07603e-06 -1.40854e-18)
(0.00828838 -0.115713 3.75435e-18)
(0.00159006 0.00119861 -3.22539e-18)
(-0.150532 0.0802349 5.69053e-19)
(0.0196105 -0.0485568 -1.61569e-17)
(-0.00443078 -0.00983915 -7.30951e-20)
(-0.000503777 0.000864471 2.60469e-18)
(0.000137332 -2.7417e-06 -2.22941e-19)
(-0.093908 -0.00688224 3.46158e-19)
(0.000269445 5.08745e-05 9.23526e-19)
(0.00310883 -0.00125647 -1.50919e-18)
(-0.000290239 0.00505938 -6.54654e-19)
(-0.000164501 1.1584e-05 8.75306e-19)
(-0.000101522 -4.32628e-06 3.128e-21)
(0.000303224 -1.13736e-05 7.04152e-20)
(-0.000129774 -6.33244e-05 1.30495e-19)
(-0.00986841 -0.00681229 2.15535e-18)
(-0.0317526 -0.00119906 -1.80538e-19)
(0.0140066 0.00498298 2.68505e-18)
(0.0010182 0.00683276 6.30973e-19)
(-0.00275078 -0.00202724 -6.70342e-18)
(-0.0118559 -0.00985571 2.32075e-19)
(0.0541174 -0.0347877 -1.19092e-19)
(0.0003995 -0.00117292 -1.76522e-18)
(-0.0370732 0.0884562 -5.20349e-18)
(-6.85155e-05 -0.000101683 2.22168e-18)
(-0.0224304 -0.0807224 -4.92392e-19)
(-0.000136919 -4.84645e-05 -8.23402e-20)
(0.000294856 -1.21967e-05 -2.67095e-20)
(9.69906e-05 -7.78588e-06 2.6954e-20)
(-0.066765 0.0209936 1.57995e-18)
(0.0187842 0.015566 -2.36623e-19)
(-0.0140609 -0.0137454 5.85386e-20)
(-0.00907168 -0.010095 -5.94385e-20)
(0.00581609 0.00708213 -1.79421e-17)
(-0.0433683 -0.0531591 -1.7296e-18)
(-0.0240223 0.0257416 -2.67711e-19)
(9.39689e-06 1.09356e-05 1.61998e-19)
(-0.000921384 -0.00296336 -9.41037e-18)
(-3.60375e-05 8.16982e-05 -1.92674e-19)
(0.0557482 -0.0419239 1.98101e-20)
(-9.1454e-05 -7.38706e-06 -5.7443e-20)
(-0.0223045 0.095497 -3.54279e-17)
(0.0466392 -0.0897452 -1.57549e-18)
(-0.000161113 0.0170715 1.88921e-18)
(-0.00500266 -0.00102952 -4.06273e-18)
(0.00183634 0.00064613 2.06338e-19)
(-0.0255883 0.0126306 -3.83391e-20)
(0.0445996 -0.0850095 1.41368e-18)
(-0.0772208 -0.19725 7.04176e-18)
(-0.000210296 -1.66666e-05 1.31961e-20)
(-0.000652847 0.00112359 5.01124e-19)
(-0.00433662 0.000491765 -7.98406e-18)
(-0.00589043 -0.0158213 -8.27117e-19)
(0.000257564 4.20886e-05 -1.72487e-19)
(-0.000336391 -4.83101e-05 9.71544e-19)
(0.000352427 -0.000589569 -1.34001e-17)
(-0.000619657 -0.0128442 9.76601e-18)
(0.000179972 0.011991 -1.07821e-18)
(0.036229 0.172813 -7.96283e-19)
(6.68901e-05 -8.53229e-06 6.5615e-20)
(0.000275134 0.000114767 6.1318e-19)
(0.081072 0.14527 3.52754e-17)
(-0.00371955 -0.00220932 2.1913e-19)
(-0.000241573 -3.96122e-05 -1.88699e-20)
(0.203073 -0.0746303 1.23068e-18)
(0.000140272 4.30312e-05 1.11686e-19)
(-3.56613e-05 -0.00131286 -8.68455e-19)
(0.000253204 1.13242e-05 1.13608e-20)
(-0.00868185 -0.0118384 -2.87284e-19)
(-0.000734647 0.000340195 1.3875e-18)
(-0.000248206 -6.6808e-05 -2.03649e-20)
(0.00176411 0.000316699 -2.86307e-19)
(0.0176445 -0.0344841 7.05293e-18)
(-0.000145993 -4.09388e-05 -5.94162e-19)
(-0.00174622 -0.000221703 -2.70407e-19)
(0.000144994 2.48461e-05 2.47012e-19)
(0.00160796 0.0101067 -2.3953e-20)
(-0.0383565 -0.0227107 3.83784e-20)
(6.07186e-05 -8.9124e-08 8.38102e-20)
(-4.24955e-05 0.000186854 -6.03056e-21)
(0.000118275 1.57737e-06 3.33724e-19)
(0.000114056 -7.21578e-07 1.73062e-19)
(0.0801577 -0.0795119 -2.19638e-18)
(-0.000276632 -0.000108915 -1.12561e-18)
(-0.0442449 0.0219698 -2.02019e-19)
(-0.000115787 -3.69078e-05 -6.81203e-19)
(0.000153132 -2.68407e-06 -1.32064e-20)
(-0.0694083 -0.265925 5.51999e-17)
(-0.00547312 -0.000786128 -3.28776e-18)
(-0.000128936 -4.10532e-05 -6.46217e-20)
(0.00347756 0.0115401 -2.62389e-19)
(0.000571285 -0.00102529 6.19256e-19)
(0.0501712 0.026532 -2.25344e-19)
(0.243323 -0.120466 -6.27773e-18)
(0.000275597 0.000153962 8.16885e-20)
(0.0108017 0.138059 -3.24924e-18)
(-4.0773e-05 7.3439e-05 -2.73792e-20)
(-0.0133475 0.00157351 -1.48082e-18)
(-0.000180205 8.68793e-06 2.16301e-18)
(-0.0636431 0.0324747 7.94101e-18)
(-0.000144978 -4.04191e-05 -8.80954e-21)
(-0.0102039 0.10948 5.25364e-18)
(0.0242505 -0.0332348 1.17137e-18)
(-0.000143119 -8.17354e-05 -1.08785e-20)
(0.00608796 0.00975631 -1.70551e-18)
(0.0302643 -0.0605409 3.43715e-19)
(0.00143209 0.00697071 -2.36493e-18)
(-0.0105744 0.10198 -1.27549e-18)
(0.000122694 5.69523e-06 -1.31705e-20)
(-0.0455118 -0.106151 -8.69559e-18)
(-8.48794e-06 7.46785e-06 4.01028e-19)
(0.000212954 6.08729e-05 -2.05113e-19)
(0.000181239 0.000105199 9.20038e-20)
(-0.000155976 -5.76792e-06 9.15872e-19)
(0.00212474 0.00189956 -3.24879e-18)
(-0.00278076 -0.00342588 -4.97433e-19)
(0.00482708 -0.00811915 -6.09596e-19)
(0.00230397 -0.034513 -4.33618e-19)
(0.0129286 0.0318115 5.02938e-19)
(-0.000322505 5.93843e-07 -4.45562e-22)
(-0.00454225 -0.0642584 -6.75119e-20)
(0.0338495 0.00191499 -4.95766e-18)
(8.42101e-05 0.000245726 1.89456e-20)
(-0.000928479 0.000251583 6.4984e-18)
(0.0431531 0.0333144 -6.47344e-20)
(-0.0290783 -0.252829 -1.24283e-17)
(-0.00549785 -0.000454888 5.7732e-18)
(-7.04581e-05 -4.74256e-06 1.42794e-18)
(-0.0618664 0.00893501 -1.5e-17)
(0.204071 -0.126868 1.37182e-17)
(0.19784 -0.129371 -1.52536e-18)
(-0.00256588 -0.00258951 -2.12891e-19)
(0.00822353 0.010459 1.30576e-18)
(-0.0112899 -0.21998 -2.56439e-18)
(-0.0292771 0.00266658 8.5313e-21)
(0.0579974 -0.0380624 -2.69696e-19)
(-0.0236217 0.154664 2.41987e-18)
(-0.0228547 0.109218 -4.05429e-18)
(-0.00101556 0.000217967 -6.42558e-19)
(-0.0329291 0.117751 3.31021e-18)
(-0.0034644 -0.00114075 -8.23592e-18)
(-0.000144891 -4.64839e-05 -3.40032e-20)
(-0.0251506 -0.00603631 1.76491e-19)
(-0.00230938 -0.00366337 -6.17684e-18)
(-0.00652732 -0.000921594 4.69923e-18)
(-0.000452559 -0.000458505 -8.19013e-19)
(-0.000105668 5.73029e-05 -5.13383e-20)
(0.000159488 9.25644e-05 -1.72709e-20)
(-6.58214e-05 0.000130054 -2.34997e-19)
(-0.0135911 -0.00326995 4.65253e-18)
(-0.0165949 -0.0010053 8.174e-19)
(0.17017 -0.0749206 7.04953e-18)
(0.0462261 0.153935 8.01275e-19)
(0.000220548 1.22882e-05 1.11411e-19)
(0.0798663 0.126201 -2.92301e-17)
(-0.00225926 -0.00374833 3.58986e-18)
(-0.0186144 0.0844275 9.24772e-20)
(0.0380331 -0.0392297 -3.2356e-18)
(-0.00176007 -7.96851e-05 2.15696e-18)
(-0.00023263 -3.42463e-05 -1.54179e-20)
(0.000291688 -1.38851e-05 -4.47469e-19)
(-0.0105824 0.0424811 -3.09298e-20)
(-0.000788295 -0.0663358 -5.39452e-21)
(-0.000302627 3.17014e-05 1.68437e-19)
(0.0020607 -0.00109927 2.45317e-18)
(0.00828301 -0.000800118 -4.4688e-18)
(-0.000164277 -0.000118536 5.51526e-21)
(-0.0186851 -0.0142241 -1.49976e-18)
(-0.0304253 -0.254102 -1.31828e-18)
(-0.0271355 0.0717569 7.58566e-19)
(-0.00321257 -0.0117408 -1.3094e-17)
(0.00185945 0.00216356 5.18707e-18)
(-0.00416588 0.00141553 1.26417e-18)
(-4.1356e-05 7.4749e-05 -1.67229e-19)
(-0.000165303 9.56985e-06 -4.63385e-18)
(0.0653173 -0.153296 -1.7087e-19)
(0.00177682 -0.00678436 4.78904e-18)
(0.00546322 -0.00232552 -8.63226e-18)
(-0.00144015 -0.000212034 2.552e-19)
(0.0330308 0.0251615 -2.75502e-20)
(-0.000194814 -0.00011594 8.98023e-20)
(-3.41807e-05 5.32362e-05 2.91799e-19)
(-0.0272981 0.100141 4.78815e-18)
(-0.000162866 -0.000112013 1.27789e-20)
(-0.000522255 -0.000421664 9.28669e-19)
(-0.000211334 -0.000106277 1.10105e-20)
(0.000121383 2.52033e-05 5.95827e-20)
(-0.00438446 -0.00179097 8.30774e-18)
(-0.0117778 -0.005303 -5.43842e-18)
(-0.00763635 -0.0071339 2.17857e-18)
(-0.000170239 -0.000119125 2.38212e-19)
(-0.0338692 -0.104882 1.59548e-18)
(-0.0122808 0.170248 -2.12356e-18)
(0.000153405 6.4251e-05 -3.92395e-20)
(0.000179411 -6.78374e-06 -1.27815e-19)
(9.78871e-05 -0.000654629 -2.74172e-19)
(-7.09957e-05 7.71854e-07 -1.15394e-18)
(-0.0899399 -0.211109 -2.89436e-17)
(-0.0166534 0.111446 -3.42847e-18)
(-0.00926337 0.147401 6.14636e-18)
(0.174798 -0.163699 8.5582e-19)
(-0.0310021 -0.0485906 3.9749e-18)
(-0.00130289 -0.000160602 2.89977e-18)
(-0.00702078 -0.000924812 4.86394e-19)
(-0.00488255 1.22287e-05 1.17181e-17)
(0.00104263 -0.00492247 -6.69699e-19)
(-0.00172699 0.000221961 -2.1962e-18)
(-0.00023342 -2.51835e-05 6.97253e-21)
(0.00134316 -0.00357417 -4.38098e-19)
(0.0036129 0.000511217 -2.40262e-18)
(0.017269 -0.0428241 -6.7903e-18)
(-0.00915333 0.00124356 9.78613e-19)
(0.00193424 -0.00144256 2.10876e-18)
(9.09475e-05 0.000944705 1.05946e-18)
(0.000272902 -5.93119e-06 1.14963e-19)
(0.00263725 -0.00355806 -5.55409e-19)
(0.000302671 -0.00133373 1.28041e-19)
(-0.011625 0.0767937 6.93019e-19)
(-0.00392598 -0.00474306 -4.52582e-18)
(-0.000111698 -3.45824e-05 -2.23011e-18)
(0.0043419 0.00977916 -9.0719e-19)
(0.000254064 3.96743e-05 1.46998e-19)
(-0.0007044 0.000434402 -1.24858e-17)
(-0.016289 -0.0142283 1.16447e-18)
(-0.000190722 6.06214e-06 1.1694e-18)
(-3.21976e-05 9.37372e-05 1.80188e-20)
(0.00625715 -0.00545346 4.14793e-19)
(-0.000208599 -5.5989e-05 3.43729e-18)
(-0.0121117 -0.00221386 -2.20539e-19)
(-0.0617344 0.0278493 -3.04747e-19)
(-0.00933955 -0.013835 3.12396e-18)
(0.00204798 -0.00496142 2.23451e-19)
(0.00575999 -0.001658 8.7874e-18)
(0.00026331 -1.09282e-05 -2.8196e-19)
(-0.0947342 0.096821 -1.13568e-19)
(-0.009109 -0.000692218 -3.75722e-20)
(0.139472 -0.178538 2.46823e-18)
(7.39359e-05 0.000384506 4.74931e-20)
(0.000199162 -7.24783e-06 7.69271e-19)
(-0.0073231 0.0100297 -1.12298e-17)
(-0.000465796 0.00151691 6.78832e-21)
(0.0484455 -0.110257 1.48406e-18)
(-0.00166467 -0.000768598 8.92326e-18)
(0.0904689 -0.116524 6.04948e-18)
(0.188203 -0.0951955 -3.38472e-19)
(0.00026441 4.67043e-05 -5.66059e-19)
(-0.00518617 0.010178 6.62631e-18)
(-0.00058056 0.000763865 5.07007e-20)
(0.000129502 2.89464e-05 5.57793e-20)
(-0.000153848 -4.10853e-05 -8.78165e-20)
(0.000122245 2.98771e-05 5.60009e-20)
(-0.000691148 0.00466731 -1.06679e-21)
(0.00235399 0.00738743 -1.1928e-18)
(-0.00871613 -0.0096585 5.75529e-19)
(-0.000169102 -0.000111383 -1.14107e-19)
(-0.134027 0.0637511 -2.55304e-18)
(0.0299975 -0.0314851 1.03445e-19)
(-0.15227 0.0473247 3.76479e-18)
(0.000164932 7.00586e-05 1.53753e-19)
(-0.000175803 -3.50494e-05 2.38023e-20)
(7.05069e-06 -1.91811e-05 -1.34797e-19)
(-0.0340048 -0.00471973 -5.50788e-18)
(-0.0964603 -0.105391 -9.49587e-19)
(-0.000789979 -0.00138272 -7.51307e-18)
(-0.000715879 0.000490301 1.07718e-17)
(-0.00077801 0.000813867 -6.45821e-20)
(0.000152014 -3.29828e-06 -2.63984e-19)
(0.000215232 9.56246e-06 -4.3389e-21)
(0.000184097 9.57562e-05 -4.73251e-19)
(0.015639 -0.0124978 -9.70502e-18)
(-0.0610878 0.225252 3.78298e-19)
(-0.000200789 -5.70125e-05 -1.24826e-19)
(-0.000176605 -0.000114159 -4.88937e-20)
(-0.000156476 -1.76455e-05 -6.31442e-18)
(0.00017738 0.000101781 -3.96113e-19)
(-0.00184283 0.0823155 -9.33752e-19)
(-0.0199398 0.0786369 -4.99587e-18)
(0.00315756 -0.00313619 1.11392e-18)
(0.0178843 -0.0699826 -3.91164e-18)
(-0.0422702 -0.171075 3.59422e-18)
(-2.93595e-05 9.37636e-05 2.3336e-19)
(0.00393619 -0.00858608 7.66142e-18)
(-0.0699227 -0.218432 -2.29231e-17)
(-0.00188363 0.000152181 -1.72542e-19)
(-0.0171598 0.12253 -2.02912e-17)
(-0.000248162 -1.519e-05 1.12451e-18)
(-0.000416827 0.00520643 6.46215e-19)
(-0.000956561 -0.00138012 6.72936e-18)
(0.00116901 0.00555463 -4.63817e-19)
(-0.0148994 0.187918 4.36275e-18)
(-0.000124705 -3.93905e-05 2.61107e-18)
(-0.018684 -0.270374 -6.9587e-19)
(-9.2476e-05 -6.28795e-06 -1.21262e-19)
(-0.00091106 -0.000449266 5.71273e-18)
(-0.00410861 -0.00102397 3.4307e-18)
(0.000297794 -2.44513e-05 -1.14178e-18)
(4.67438e-05 0.00109413 -4.41739e-20)
(0.0339151 0.0182198 3.5182e-19)
(0.000214076 6.96097e-05 -1.48486e-19)
(7.73605e-05 5.47951e-05 -1.82475e-18)
(-0.0733699 -0.0198142 -8.36847e-19)
(0.107289 -0.0534006 -1.34843e-18)
(-0.00451287 -0.00432016 2.07297e-18)
(-0.0281943 -0.0435256 -1.13846e-18)
(0.0440224 -0.00111094 -2.08501e-19)
(-0.000207864 -9.45648e-05 -2.74362e-20)
(0.000162025 6.83828e-05 -9.17706e-20)
(-0.0563428 -0.266969 1.83398e-17)
(0.00768187 -0.0005838 3.83395e-19)
(-0.0256396 0.00709632 7.35474e-19)
(-0.00143027 -0.00139874 1.74058e-18)
(0.000323456 3.66378e-05 9.47076e-20)
(-7.07106e-05 -2.03879e-06 -1.03547e-19)
(-0.000136509 -4.30808e-05 -8.40394e-20)
(-0.0271226 -0.0147477 -2.88974e-18)
(0.0107497 0.00125634 1.01814e-17)
(-0.00160693 -0.0011628 -1.53058e-19)
(-6.47166e-05 -7.51232e-05 1.29067e-19)
(-0.0341782 -0.0397423 -1.84188e-19)
(-0.0004523 0.000184342 -6.11516e-19)
(-8.40685e-07 -2.2496e-05 -7.22312e-20)
(0.163032 0.0993117 -6.69955e-18)
(0.0702043 -0.0321514 -6.30214e-19)
(0.0054775 -0.00896179 1.21267e-17)
(-0.000144202 -8.5279e-05 4.95539e-20)
(-0.000193976 -4.65575e-05 -9.21359e-19)
(-0.00616965 -0.00137993 1.58922e-17)
(-0.00599849 0.076358 -7.32476e-18)
(0.00629627 0.00106415 9.20275e-18)
(0.000245671 -0.00101638 2.13602e-19)
(-0.00910499 0.00374629 7.2961e-18)
(-0.000132975 -4.42023e-05 -2.47942e-18)
(-0.0253933 -0.0661509 4.6715e-19)
(-0.0215271 0.0386739 -5.83797e-18)
(-0.000483864 0.0195404 2.31167e-18)
(2.00718e-05 -0.00062564 -2.66703e-19)
(0.190266 -0.120527 -5.74886e-18)
(-0.00353884 0.00581428 3.29417e-19)
(-0.00166121 -6.81862e-05 -3.21422e-19)
(0.0144292 0.0044946 -1.0725e-18)
(0.000203263 -5.98929e-06 7.08487e-19)
(2.03986e-05 2.29067e-06 -1.32671e-20)
(-0.00081765 0.000313481 -5.14629e-19)
(0.000257213 -5.20171e-06 2.19516e-19)
(0.143089 0.132419 1.13417e-17)
(0.00196442 0.000900667 1.01899e-18)
(-0.00177018 -0.0120933 -1.62072e-18)
(-0.00573938 -0.00748375 -3.29092e-18)
(-0.0280555 -0.0214407 1.06205e-19)
(0.000274046 -1.06543e-05 1.76298e-19)
(-0.0674439 -0.0342474 9.33332e-19)
(0.000172437 9.07243e-06 -4.57695e-20)
(-0.00240239 0.00671331 3.80096e-19)
(-0.000151413 -3.38536e-05 6.68245e-20)
(-2.11548e-05 0.000106898 1.1459e-19)
(5.63718e-05 2.68884e-05 -1.30716e-19)
(0.00317982 -0.00854246 -8.6356e-18)
(0.000151444 0.000101962 1.63343e-19)
(-0.000122228 -4.19877e-05 -3.6871e-21)
(0.0508764 -0.0514827 2.58924e-19)
(-0.000171927 8.81305e-06 -5.58932e-18)
(-0.00565694 -0.00167639 1.11402e-17)
(-5.69894e-05 -1.26697e-06 7.97855e-20)
(0.00120205 -0.00100213 1.24021e-18)
(-3.63325e-05 -0.00282474 7.87613e-18)
(-0.00634057 0.0863516 -1.25955e-18)
(-0.0227993 0.135607 -8.40346e-19)
(0.000223179 -2.09858e-06 6.73456e-20)
(-0.0695251 -0.0414632 -3.54028e-20)
(0.0129565 -0.0737719 2.83816e-18)
(-0.000288502 -0.000116651 -4.61775e-19)
(0.00227347 -0.00945646 -1.00876e-17)
(-0.000940348 -0.000412863 -9.21361e-19)
(0.000258174 1.10912e-05 5.36123e-19)
(-0.0112317 0.00485061 2.66957e-19)
(0.0913531 0.085343 1.18587e-17)
(-0.0729889 -0.0245026 1.38042e-19)
(1.65958e-05 -0.00123039 6.01297e-19)
(0.000218964 1.33458e-05 -4.25695e-20)
(-0.000175497 -0.000104894 2.0729e-21)
(0.0493713 -0.050084 2.41241e-18)