/*--------------------------------*- C++ -*----------------------------------*\
| =========                 |                                                 |
| \\      /  F ield         | OpenFOAM: The Open Source CFD Toolbox           |
|  \\    /   O peration     | Version:  v2012                                 |
|   \\  /    A nd           | Website:  www.openfoam.com                      |
|    \\/     M anipulation  |                                                 |
\*---------------------------------------------------------------------------*/
FoamFile
{
    version     2.0;
    format      ascii;
    class       volScalarField;
    location    "200";
    object      k;
}
// * * * * * * * * * * * * * * * * * * * * * * * * * * * * * * * * * * * * * //

dimensions      [0 2 -2 0 0 0 0];


internalField   nonuniform List<scalar> 
13851
(
0.000154839
0.00571266
0.000185995
0.000153716
0.000186955
0.0030147
0.000146625
0.000175924
0.000139827
0.000195287
0.00590452
0.0197172
0.00634707
0.0199743
0.000144075
0.000168512
0.000156942
0.000161385
0.000380335
0.000139654
0.000153201
0.00018515
0.000142765
0.000150855
0.000143933
0.000176669
0.000155207
0.00367594
0.000154339
0.000155584
0.0072656
0.00015753
0.000185359
0.00298955
0.000150986
0.000203619
0.00012201
0.000207836
0.000198228
0.00324462
0.000145313
0.000132179
0.0097467
0.00551836
0.00590118
0.0240459
0.00475126
0.00453552
0.000155632
0.000982591
0.000186103
0.000199521
0.0161114
0.000145999
0.000153966
0.000132272
0.00014327
0.0179312
0.000155111
0.000147304
0.000200551
0.0330947
0.000196676
0.00019075
0.00724263
0.000159388
0.000792353
0.00397077
0.000166819
0.000161319
0.0152363
0.00900585
0.0069023
0.000146854
0.000141396
0.000142835
0.000184507
0.016185
0.00017614
0.0175925
0.000149016
0.00522655
0.000143992
0.0137388
0.00019864
0.0188084
0.000538489
0.0035655
0.000157512
0.000142212
0.000203866
0.000201604
0.00384333
0.00016069
0.000157132
0.000147882
0.00018781
0.0263366
0.0012565
0.000147826
0.00943465
0.000177858
0.000150802
0.000154342
0.000141465
0.000607436
0.000180138
0.000131232
0.0222863
0.00368882
0.000150238
0.000142653
0.000183742
0.000153014
0.0001503
0.00414131
0.0265404
0.000131409
0.000156486
0.000157602
0.0108638
0.000154153
0.00900885
0.00649411
0.00390333
0.000149638
0.00522159
0.000177014
0.000152502
0.000198972
0.000145059
0.000139224
0.0183356
0.000143936
0.00285548
0.000140968
0.000131505
0.00757823
0.0280304
0.032574
0.0105044
0.000153719
0.000151654
0.000135927
0.000153706
0.00465347
0.000999724
0.0001992
0.000146437
0.00614415
0.000185673
0.000154108
0.0179655
0.000143707
0.000152564
0.000153538
0.00014292
0.000153338
0.000199512
0.000185769
0.000133477
0.000160317
0.0180088
0.000139102
0.000162053
0.00013402
0.00136879
0.000167198
0.000152081
0.0220496
0.0141456
0.000136725
0.0001431
0.0319154
0.00013895
0.00291171
0.000176244
0.000151153
0.000378358
0.000131499
0.000158841
0.0106296
0.000143814
0.000186223
0.00013233
0.000144114
0.000159961
0.000148704
0.000189277
0.000206124
0.00414367
0.0175745
0.000143776
0.000167048
0.0328261
0.000152182
0.000150681
0.00584098
0.000150521
0.000143076
0.000149756
0.0276306
0.000164144
0.000143431
0.000192802
0.000143942
0.0291881
0.000157113
0.028129
0.000132076
0.0338052
0.000150428
0.00620134
0.000131062
0.000135128
0.00569576
0.000194503
0.0280154
0.000143401
0.0291775
0.000157415
0.000149244
0.0274401
0.000198806
0.038779
0.000144713
0.00016301
0.000142637
0.0210307
0.00013114
0.000175837
0.0184043
0.000136634
0.000143377
0.00018356
0.000180628
0.0316558
0.00997543
0.000135773
0.000143553
0.0058187
0.00158208
0.000137748
0.00019544
0.000139001
0.0370693
0.0001783
0.00442017
0.000153802
0.00015885
0.000174829
0.00135532
0.000149358
0.00015396
0.000178299
0.00028946
0.000203189
0.00882222
0.00582466
0.000144245
0.000135283
0.000160318
0.00331627
0.000138986
0.00327154
0.000152162
0.000149195
0.000160044
0.0255831
0.00020013
0.000173472
0.00015258
0.0114664
0.00017475
0.000167732
0.000139351
0.00514504
0.00254006
0.0421398
0.00614643
0.000138208
0.000131672
0.000141131
0.000177306
0.00368887
0.00137052
0.000141289
0.000144086
0.0118795
0.00388658
0.000202493
0.000154498
0.000147429
0.000168928
0.00415857
0.00273778
0.000161166
0.0175486
0.000139611
0.0371723
0.000159817
0.000156771
0.0409655
0.000148015
0.000739722
0.0320229
0.000140983
0.000173576
0.000160874
0.000154023
0.0280449
0.000161474
0.00014909
0.0273221
0.000132686
0.000159271
0.000156854
0.0410407
0.000195485
0.000143419
0.000178495
0.000143651
0.01202
0.000185902
0.000142747
0.000145776
0.000195023
0.000162237
0.000152269
0.000144095
0.000147868
0.000148917
0.00610478
0.0119782
0.0240028
0.000166953
0.0398203
0.026851
0.0001437
0.000167654
0.000203155
0.000201354
0.000203201
0.000196493
0.00023998
0.000161154
0.00423008
0.0342135
0.000144336
0.00099369
0.000940006
0.00395636
0.000152239
0.000194826
0.0208758
0.000143491
0.00536962
0.000145726
0.00014371
0.000137917
0.00013125
0.000141999
0.034135
0.00524624
0.000144887
0.000172488
0.000133304
0.0173393
0.000175123
0.00340021
0.0232271
0.000145132
0.000202112
0.000161121
0.00371569
0.000144271
0.000131529
0.000186
0.00980049
0.00014492
0.0283288
0.000203047
0.000197808
0.0198606
0.00189372
0.00199347
0.000162086
0.000139641
0.000150279
0.000165301
0.00017822
0.021776
0.000167134
0.0382903
0.0327176
0.000133431
0.000144345
0.0229857
0.019829
0.0154638
0.026616
0.000189534
0.000161935
0.000147187
0.0234705
0.000138126
0.000167714
0.000159174
0.000145974
0.000141897
0.000140662
0.000133885
0.000190192
0.000194136
0.0158149
0.000162616
0.000179762
0.000186904
0.00104724
0.000160465
0.00553151
0.000156264
0.00569382
0.00013141
0.000140393
0.00014562
0.000281664
0.00334043
0.000198082
0.000184545
0.0128015
0.00305136
0.000393169
0.000160268
0.000183964
0.000143989
0.00112676
0.00014104
0.0130578
0.00479483
0.00018481
0.025351
0.000151725
0.00313544
0.00468778
0.0127779
0.000131324
0.000163487
0.000176751
0.000443927
0.000137493
0.000149007
0.000184543
0.000197896
0.000167241
0.0209864
0.000144529
0.000146333
0.0138759
0.000163075
0.000131453
0.0152109
0.000139564
0.000154694
0.0001383
0.000178078
0.000152314
0.000131807
0.000151087
0.0261723
0.00014413
0.000168955
0.000140205
0.000169718
0.0047928
0.000154188
0.000145374
0.000153248
0.000152962
0.000611657
0.000149058
0.00104898
0.000143757
0.00014569
0.0139768
0.0239664
0.000144205
0.000173524
0.000160634
0.00216423
0.018036
0.000146393
0.00499848
0.00014451
0.000186102
0.000146544
0.0218332
0.000132469
0.015919
0.000206351
0.000132311
0.000173884
0.0236462
0.000176863
0.00544744
0.000156294
0.00251595
0.000157314
0.000138543
0.000139554
0.00014589
0.024119
0.00018378
0.000198322
0.000108557
0.000191555
0.000133897
0.0186922
0.00327103
0.000159011
0.000160624
0.00214424
0.00520386
0.0315828
0.000152612
0.0222737
0.0189183
0.0322093
0.000162551
0.000176555
0.00757518
0.00317584
0.000304254
0.00585378
0.0189832
0.000153738
0.0198478
0.010502
0.000131566
0.00255584
0.00018429
0.0195855
0.000154216
0.000142872
0.000142584
0.000144142
0.000188941
0.000176086
0.00573786
0.020802
0.000139989
0.0132198
0.0238594
0.00254499
0.0038837
0.000168458
0.000131038
0.000140105
0.00373489
0.0210118
0.000152785
0.000189771
0.000204152
0.000132149
0.000195432
0.00493997
0.000110393
0.00019631
0.0253651
0.0110093
0.000144793
0.000146103
0.0264276
0.0324482
0.000196927
0.000166934
0.000205024
0.000131417
0.000142137
0.0149726
0.000131892
0.000154044
0.000131381
0.000139538
0.0115816
0.00018944
0.000173768
0.000131801
0.0292516
0.00611881
0.000139786
0.000141227
0.000139365
0.000149482
0.0101974
0.00516822
0.00572555
0.0351652
0.00215708
0.000165435
0.0159159
0.0256129
0.000163097
0.000167263
0.000131017
0.000156508
0.000169341
0.0234194
0.0043234
0.000189453
0.000162501
0.000139154
0.000168477
0.000150745
0.00502155
0.000186124
0.000143638
0.000167224
0.000137469
0.000159635
0.000198528
0.000146952
0.000143756
0.000174989
0.00014701
0.000187116
0.000232609
0.00019769
0.000169195
0.00019746
0.000138962
0.00382665
0.000182119
0.0348324
0.000150126
0.00014856
0.018905
0.000154474
0.0186756
0.0348904
0.0274176
0.0222938
0.000138043
0.0118139
0.000140201
0.000139531
0.000132457
0.000139611
0.000252172
0.00016388
0.000175692
0.000131592
0.0275657
0.000209633
0.0292823
0.000141884
0.000133557
0.000139856
0.00020066
0.0359592
0.000178616
0.000160006
0.000140039
0.000146251
0.000146537
0.000143734
0.00012462
0.0250315
0.000146724
0.000131492
0.000146015
0.000143602
0.00424679
0.0176044
0.000168942
0.0257638
0.00312009
0.000143513
0.000198184
0.0113888
0.000168449
0.0201523
0.00014897
0.000160402
0.000178222
0.000161348
0.00629761
0.000144069
0.00768544
0.000141487
0.000163169
0.0279528
0.000143713
0.000153184
0.000202554
0.000138683
0.000158048
0.00813028
0.0280094
0.00018551
0.00211759
0.00204267
0.000131191
0.000141599
0.0177198
0.000202138
0.000184929
0.0348411
0.000139226
0.0001651
0.000131666
0.00211122
0.000939001
0.00015876
0.000149183
0.00480657
0.000155616
0.000139622
0.00904678
0.000308391
0.026834
0.000132534
0.000146571
0.0162526
0.011029
0.000200034
0.000149778
0.0228331
0.00014404
0.00532622
0.000201752
0.000185947
0.000157487
0.0268688
0.000167725
0.000152224
0.000144745
0.000148078
0.000164038
0.000152734
0.000138767
0.00932353
0.000166471
0.00019665
0.000171514
0.00357093
0.000139396
0.00591579
0.000154828
0.000166814
0.000134061
0.00014309
0.00014507
0.0318199
0.000142272
0.000131802
0.00161556
0.000146347
0.0199321
0.000142556
0.000151244
0.000185078
0.00491121
0.00503211
0.000141564
0.0115457
0.0263203
0.000149216
0.0300443
0.000162854
0.00013845
0.000328254
0.00961787
0.0101586
0.000159262
0.000141064
0.000131322
0.00388484
0.000188508
0.00019489
0.000160462
0.000320197
0.000150315
0.000150546
0.000189179
0.0045744
0.000188404
0.00316653
0.000146321
0.000186719
0.000189216
0.0403823
0.00015842
0.0278015
0.00011974
0.000146477
0.0152708
0.00135008
0.0279954
0.0270555
0.0282735
0.00235755
0.000174427
0.000138604
0.00016506
0.0182831
0.0126414
0.000145295
0.000145752
0.000184281
0.00401186
0.000132382
0.0145704
0.000138914
0.000144792
0.012275
0.016078
0.00238464
0.0001395
0.00014383
0.0129189
0.000159052
0.000195845
0.000155823
0.0253375
0.000347332
0.0325458
0.000179766
0.000171969
0.000149139
0.000146381
0.00471786
0.000176864
0.0187751
0.000187677
0.000166731
0.0079158
0.0277508
0.0214671
0.000144731
0.000163898
0.000139679
0.000169749
0.000152992
0.0222428
0.000165708
0.0342999
0.000132277
0.000184639
0.000142666
0.000201969
0.000166023
0.000163496
0.0257734
0.00017364
0.000180789
0.000151281
0.000184722
0.0032447
0.000226943
0.000154263
0.0144747
0.000138485
0.0263155
0.00480995
0.000147701
0.0353008
0.00939312
0.0213967
0.0018611
0.000183065
0.000145038
0.0257169
0.000166568
0.00464491
0.0286399
0.000141819
0.000151776
0.000258665
0.0063777
0.0287299
0.00014655
0.000140876
0.0165133
0.0279485
0.00019657
0.000158472
0.000153434
0.0041622
0.0185598
0.000190034
0.000131857
0.000174649
0.000138756
0.000160447
0.00125132
0.00014765
0.0156421
0.00219738
0.000145
0.000152289
0.00014529
0.000152883
0.0160756
0.0235562
0.000162992
0.0277788
0.000142579
0.000163122
0.000144699
0.000138874
0.000147399
0.000144843
0.021751
0.000144261
0.000178322
0.000144841
0.000159495
0.00159792
0.00997899
0.000156524
0.0271567
0.000196595
3.11582e-05
0.000167015
0.000166947
0.0164188
0.000159597
0.000177146
0.0216201
0.00332723
0.018341
0.000172325
0.00626827
0.000149678
0.000172342
0.000178321
0.0285655
0.000145115
0.0340999
0.000141396
0.000142095
0.0234978
0.000146179
0.00169135
0.000157982
0.000139682
0.000199516
0.000139737
0.000143865
0.000144948
0.000148663
0.000160125
0.000142021
0.000173855
0.0183474
0.000189666
0.0288694
0.000146139
0.000154959
0.000165259
0.000144356
0.000139477
0.000187807
0.000148985
0.000141975
0.000149429
0.000144348
0.0197719
0.024723
0.000214026
0.0267904
6.98261e-05
0.000142124
0.00789812
0.000162254
0.000141785
0.00341667
0.000580141
0.0051206
0.000141892
0.005109
0.00634018
0.0205147
0.000136866
0.00729964
0.000165547
0.000155059
0.000147711
0.000139215
0.020421
0.000853321
0.000827991
0.000143229
0.0001436
0.00473113
0.000147774
0.00551007
0.00355563
0.0278052
0.000245575
0.00435866
0.000145237
0.000144753
0.000204401
0.00017012
0.000154441
0.00020649
0.000173474
0.000149157
0.000152862
0.027721
0.000142246
0.0193404
0.00122262
0.00327212
0.000219227
0.00015222
0.000136798
0.000148554
0.00495072
0.00260052
0.000136867
0.000157261
0.000143019
0.000187535
0.000133112
0.000142579
0.000149417
0.000166245
0.000726072
0.00017915
0.000165817
0.000145492
0.000178004
0.00916128
0.000150243
0.016023
0.0177689
0.000187983
0.000134408
0.000174314
0.000142856
0.000142976
0.000148186
0.0161675
0.000195787
0.00338541
0.000154532
0.00531813
0.000143224
0.000142009
0.000148105
0.00808175
0.0103816
0.000133129
0.000165876
0.000203268
0.0251265
0.000154016
0.0161118
0.000272558
0.0291704
0.000189002
0.0264973
0.00018952
0.000187937
0.000366677
0.0251017
0.00393017
0.0292856
0.000143019
0.00022573
0.000132979
0.000154449
0.000158385
0.000147348
0.0254222
0.000163858
0.000160691
0.0028521
0.000207825
0.00061953
0.000143526
0.000154246
0.000159543
0.000137533
0.000166975
0.0155746
0.0022002
0.0130433
0.000140618
0.000159666
0.000157228
0.00587223
0.0258948
0.00020196
0.000136655
0.000148635
0.0228764
0.000176079
0.017678
0.025819
0.00060684
0.000134203
0.00533202
0.000166659
0.000174214
0.000161849
0.0320889
0.00517022
0.000197542
0.00341012
0.000151092
0.000165313
0.000144758
0.0184165
0.000188144
0.0241553
0.00398833
0.000158207
0.000200346
0.000152145
0.0315829
0.000148278
0.000139701
0.000264743
0.0289744
0.000254709
0.0183871
0.000146623
0.000145036
0.0163701
0.012013
0.021244
0.000155597
0.000146071
0.000145061
0.0201229
0.000198164
0.000148593
0.000586347
0.000189509
0.0294837
0.004247
0.00167748
0.000144245
0.0195309
0.000156273
0.000145245
0.0001998
0.0364264
0.000146728
0.000141448
0.00820374
0.029339
0.000147453
0.000140514
0.0349828
0.000139325
0.00366052
0.000140621
0.0038939
0.000145074
0.000178704
0.0102387
0.025388
0.000151472
0.00767053
0.0030851
0.0262714
0.00123355
0.0287569
0.000437552
0.000142502
0.0150825
0.000154502
0.000143645
0.000137363
0.00513211
0.00014332
0.000117398
0.000141649
0.000153193
0.0157427
0.000184937
0.0132063
0.000152709
0.000198418
0.000139416
0.000165641
0.00543364
0.0111058
0.000140585
0.000184326
0.00490798
0.00014784
0.000139478
0.0272199
0.000167391
0.000170489
0.000198393
0.0302045
0.00896136
0.00412758
0.016076
0.000586937
0.0059706
0.00297569
0.0302126
0.000184275
0.000135218
0.000197265
0.000142451
0.000142479
0.0301438
0.0276859
0.000153467
0.0194907
0.00108628
0.018635
0.00187035
0.000739429
0.000143884
0.00170453
0.000477304
0.000143284
0.000151791
0.0315833
0.0269375
0.0145187
0.0289849
0.000174964
0.036999
0.0333199
0.000165152
0.000147542
0.000142916
0.00465082
0.000141553
0.000124876
0.000152807
0.000149909
0.000153922
0.00985585
0.0379075
0.0190376
0.00014925
0.00642869
0.000157659
0.000164386
0.000141059
0.000139714
0.0174551
0.000161101
0.0260543
0.00484757
0.000432918
0.000195181
0.000144512
0.000175897
0.000147743
0.000197872
0.000150479
0.000152414
0.000148851
0.000153545
0.000201965
0.000150069
0.000169216
0.000143863
0.000169949
0.000194341
0.0168659
0.000143374
0.000176744
0.000143472
0.000209451
0.000159571
0.0247033
0.000231543
0.000164693
0.000154412
0.000152921
0.0021481
0.000144457
0.00411542
0.000143963
0.000143643
0.0001502
0.0283179
0.000160029
0.000157945
0.000180635
0.000143203
0.000182584
0.0269623
0.00292563
0.000168542
0.000144728
0.000295731
0.000135644
0.000144343
0.000220336
0.0342643
0.000141869
0.00016555
0.000305737
0.00788141
0.000148788
0.000149822
0.032795
0.000151828
0.000555528
7.38998e-05
0.0377324
0.000145304
0.00016278
0.000143277
0.0385247
0.000196252
0.000173559
0.000196141
0.0198139
0.000150991
0.0334816
0.0182098
0.000147929
0.0126554
0.000188143
0.000152829
0.0173225
0.000146131
0.000145485
0.00013842
0.000207052
0.00102597
0.00020264
0.000152582
0.000150469
0.000162942
0.00512924
2.53742e-05
0.0366599
0.00561928
0.000149568
0.000196452
0.00019853
0.0205209
0.000188614
0.00410469
0.000141684
0.000180444
0.000139447
0.000304214
0.000173139
0.000143211
0.0325984
0.00022651
0.000166512
0.000167117
0.000132177
0.000142735
0.000183413
0.000168744
0.00259238
0.000184184
0.000184255
0.000188566
0.000195494
0.0194103
0.000216644
0.0362301
0.000143599
0.000141837
0.000214931
0.0221598
0.0197953
0.00257231
0.000153362
0.0165791
0.00514776
0.000143926
0.000158768
0.00013976
0.000172561
0.000185407
0.00117134
0.0169997
6.12296e-05
0.00015189
0.0285964
0.0137209
0.000144151
0.000228254
0.0278264
0.0188067
0.000154663
0.00018613
0.000131078
0.000158728
0.00014297
0.000158202
0.0380422
0.0246871
0.015194
0.0213785
0.000151565
0.000170027
0.000185695
0.000140683
0.000149047
0.000139212
0.0221959
0.000141311
0.0307433
0.000172919
0.000189029
0.000205946
0.000170872
0.017464
0.00913106
0.000172069
0.00013364
0.00016536
0.00596462
0.00131332
0.000156629
0.000139529
0.00013931
0.00018233
0.000164784
0.000199501
0.0209789
0.000151381
0.000138694
0.000195085
0.000259619
0.0157799
0.00360756
0.000140616
0.000186037
0.000147531
0.0417467
0.000135195
0.0374777
0.000142726
0.000151159
0.000168886
0.000149274
0.000208727
0.000163463
0.000176231
0.0188997
0.0271473
0.000157478
0.000163884
0.000143687
0.00753048
0.0207586
0.000148961
0.000135534
0.00426771
0.000131247
0.0251976
0.000142685
0.000167961
0.000185471
0.00033265
0.000174797
0.000151554
0.000146143
0.000184961
0.0314058
0.000142569
0.000267909
0.0148772
0.00144511
0.000172402
0.000169484
0.0196383
0.000157146
0.000290817
0.000143183
0.00594011
0.00571965
0.0102382
0.0213352
0.0212391
0.000147663
0.000816578
0.000141497
0.0126794
0.00352701
0.030978
0.0188776
0.000160946
0.0189977
0.00611629
0.000170989
0.000152516
0.000146878
0.0265471
0.000158746
0.000184711
0.000157756
0.000148204
0.000138841
0.000147076
0.0265672
0.000184081
0.00016598
0.0233944
0.00302755
0.0001443
0.000143678
0.000139509
0.000168203
0.0366339
0.00014259
0.000158668
0.000171021
0.00924263
0.000187127
0.00017474
0.0126594
0.000165028
0.0359315
0.000163173
0.000162967
0.000143362
0.000157118
0.000185387
0.00569021
0.00592276
0.0291946
0.000184296
0.0317635
0.000156879
0.000156067
0.000143994
0.0162739
0.0234288
0.00398384
0.00077769
0.000154134
0.000144916
0.000142392
0.000143955
0.000139435
0.0171333
0.000163562
0.0174235
0.000167817
0.0283119
0.011953
0.0365827
0.00022138
0.000158199
0.0213592
0.000175467
0.0294159
0.0291843
0.000138441
0.000621214
0.000160408
0.0128659
0.00848885
0.000170661
0.00041966
0.00377132
0.000157941
0.000194796
0.000165032
0.030073
0.00538373
0.000155208
0.000146197
0.00589997
0.000157154
0.00019894
0.00862391
0.000197585
0.000169445
0.000143946
0.00694257
0.033102
0.000190371
0.000164072
0.0264293
0.0257065
0.000141706
0.000144347
0.000155684
0.0305501
0.0273671
0.00014361
0.0201569
0.00014975
0.00014326
0.00014784
0.0199576
0.000383037
0.000518832
0.0190466
0.000152918
0.000152336
0.000141486
0.00703122
0.00015197
0.031044
0.000155808
0.00732226
0.000148595
0.00014252
0.000197729
0.0162178
0.00370013
0.00017105
0.0248031
0.000136466
0.000146059
0.000144483
0.000175069
0.000183563
0.000183707
0.00017201
0.0239029
0.000155832
0.000197319
0.0112058
0.0183416
0.000146807
0.0246484
0.0300067
0.000156532
0.0036395
0.00018349
0.0133878
0.00014717
0.000191785
0.000144874
0.0297656
0.0145154
0.000225936
0.034127
0.000154417
0.000176598
0.000151652
0.0209389
0.000134358
0.000139646
0.00509491
0.00019451
0.0194103
0.00456481
0.000182757
0.00016252
0.000138217
0.0178199
0.000168441
0.000143473
0.000198524
0.000145136
0.000173901
0.000144958
0.000917601
0.000154746
0.00459343
0.00565868
0.000170572
0.00150448
0.000184113
0.0420202
0.000145815
0.0125628
0.02448
0.000139655
0.000144221
0.000152877
0.000148752
0.000172039
0.000143952
0.000826102
0.000186734
0.00484923
0.000218756
0.000147318
0.000149145
0.00013868
0.0119148
0.000146305
0.000144871
0.000166124
0.000154682
0.00899844
0.0327312
0.000189221
0.000156638
0.000168384
0.000152195
0.000149725
0.000199224
0.000136153
0.000154992
0.0153158
0.0389546
0.000189041
0.000152056
0.0138918
0.000136987
0.000148813
0.00433065
0.0236904
0.000143688
0.000154029
0.000143171
0.0153914
0.0254529
0.00677172
0.000136021
0.000155418
0.000154055
0.000146326
0.000199152
0.0001476
0.000368256
0.0114579
0.0338958
0.00013847
0.000154803
0.000153736
0.0288686
0.000132204
0.02457
0.0166307
0.00280485
0.00343051
0.0238589
0.0191152
0.000152369
0.00771064
0.000757558
0.00015089
0.00013796
0.000140498
0.0331403
0.0173297
0.01672
0.000142489
0.0371189
0.000147064
0.000203392
0.000139565
0.000153757
0.000150745
0.000138312
0.0257324
0.000151034
0.0313864
0.0244756
0.0245413
0.000177216
0.000178189
0.0259167
0.0304691
0.000149278
0.00811443
0.000138663
0.000131551
0.000143465
0.000334619
0.000141405
0.0196315
0.000168341
0.00306369
0.000173706
0.0163717
0.0217214
0.000218426
0.000138039
0.000186205
0.000189828
0.026764
0.000146894
0.000133403
0.000157568
0.0327134
0.00014813
0.00508282
0.0200599
0.000172681
0.000181694
0.000147042
0.00431715
0.000148534
0.0377126
0.000135744
0.0108553
0.000164406
0.000145887
0.0201686
0.0232889
0.000135433
0.000183201
0.000156728
0.0135207
0.000410642
0.00684059
0.00293259
0.000148703
0.000187267
0.0263215
0.000143408
0.000303447
0.000153357
0.000186772
0.000165731
0.0170527
0.0221122
0.000146175
0.024834
0.00015123
0.000174362
0.0249081
0.0203518
0.000172199
0.0249093
0.000169304
0.000146307
0.00515636
0.000196417
0.000164171
0.000150906
0.0276383
0.000135775
0.0158157
0.00164438
0.000194939
0.000143416
0.000165351
0.0242112
0.000174813
0.03
0.000149893
0.000154959
0.0017367
0.0254229
0.000158226
0.0323656
0.00439196
0.019675
0.000148009
0.0242155
0.0141958
0.0255185
0.00014395
0.000156809
0.000146183
0.0342217
0.000170172
0.00417314
0.00436441
0.000148938
0.00013786
0.000143767
0.0268159
0.00902475
0.00921234
0.0223672
0.000141231
0.0254441
0.0269937
0.000197838
0.0164401
0.0252738
0.000169938
0.0165493
0.000153652
0.000157693
0.0133853
0.0134881
0.00015176
0.0155892
0.00014877
0.00014445
0.0276817
0.0222583
0.0321309
0.0134575
0.000166397
0.000148881
0.000159421
0.0264814
0.0218006
0.00014256
0.00017541
0.00308369
0.000144601
0.000146653
0.0195647
0.0269895
0.000153332
0.000144227
0.000150613
0.000152058
0.0054969
0.000148709
0.000145188
0.000158949
0.000274434
0.0279895
0.000866624
0.0285776
0.000146389
0.000157038
0.0273331
0.0288689
0.000162451
0.00595304
0.000143287
0.000168948
0.000151578
0.000155018
0.000185645
0.000144802
0.00649762
0.000168706
0.000142325
0.000156314
0.0168177
0.0243362
0.0212244
0.000144754
0.000170097
0.0304552
0.0022313
0.000155154
0.000146487
0.000144587
0.00601888
0.000146868
0.000149021
0.00016171
0.000144091
0.0280016
0.00213094
0.00014863
0.000155955
0.000135339
0.000147529
0.0185186
0.00194679
0.000185611
0.0172581
0.000208378
0.000149231
0.000143151
0.000145938
0.000145838
0.000148403
0.000165024
0.000198912
0.0255863
0.000151977
0.000195145
0.0211733
0.00190423
0.000144308
0.000139757
0.000153816
0.0279066
0.000145336
0.00398262
2.62231e-05
0.000186844
0.000149077
0.0139545
0.000135876
0.000777546
0.000137388
0.000136144
0.000148342
0.00014258
0.000192562
0.0100802
0.000973297
0.000171687
0.003118
0.00028228
0.000322126
0.000165242
0.0225578
0.0195345
0.000194191
0.0262883
0.0206269
0.000195468
0.00426621
0.000148828
0.000141458
0.0141711
0.000142368
0.000156107
0.0286057
0.000292074
0.014777
0.000239563
0.000140871
0.000159323
0.000146319
0.000304944
0.000139311
0.000407977
0.0192636
0.0225937
0.0107065
0.000146516
0.00013628
0.000185957
0.0228802
0.0285586
0.000196903
0.000865049
0.000140566
0.00245465
0.0272277
0.00666681
0.000154981
0.000146871
0.000135959
0.000153903
0.000146887
0.000146056
0.000155627
0.0269586
0.000187443
0.025283
0.000298597
0.00697182
0.000203746
0.000143095
0.00014163
0.000148153
0.000138534
0.000148606
0.00273464
0.0239893
0.00954209
0.0372285
0.000153626
0.0221351
0.000199455
0.0323829
0.0301094
0.000147151
0.000142381
0.00113808
0.000146706
0.000135623
0.00585125
0.0282832
0.00376897
0.000144886
0.000146406
0.000155212
0.000172025
0.0181194
0.000138903
0.000156725
5.23064e-05
0.000137561
0.00311705
0.000171719
0.0266792
0.000148774
5.74082e-05
0.0240076
0.000171675
0.0251991
0.000195878
0.0264518
0.000135592
0.000157939
0.000141218
0.000164651
0.022008
0.000143533
0.0165332
0.00014753
0.00014703
0.000144242
0.0369872
0.000174559
0.000195732
0.00807975
0.000139415
0.000180342
0.0173007
0.000185144
0.000141775
0.00015319
0.000146902
0.000184653
0.000146164
0.000143087
0.040254
0.0341863
0.0349208
0.000194947
0.000188834
0.0202323
0.000184836
0.0390198
0.000197218
0.000134952
0.00014076
0.00013134
0.00014819
0.0277958
0.0277152
0.000138438
0.0147063
0.0397336
0.000162397
0.000151423
0.000169488
0.029121
0.0185814
0.0274653
0.00019773
0.0287804
0.000131393
0.00018066
0.000192564
0.00498351
0.0151912
0.000143696
0.000196826
0.0180648
0.0001686
0.0244838
0.000149198
0.000467487
0.0188914
0.0341215
0.000185927
0.000166073
0.015881
0.000196426
0.0348424
0.0365454
0.0276978
0.000195657
0.0207666
0.000146665
0.000158617
0.000176182
0.0214192
0.00579374
0.0264151
0.000150776
0.000195719
0.00019685
0.000151272
0.0217138
0.000143708
0.000198039
0.0198241
0.000143678
0.0219647
0.0284181
0.0370819
0.0263428
0.00362528
0.0011139
0.000144389
0.0290348
0.00014716
0.00014262
0.000172821
0.000155115
0.0305445
0.000155389
0.000170627
0.000155788
0.000142479
0.0231466
0.000153109
0.0001963
0.00496692
0.000138353
0.0266311
0.000193007
0.000151636
0.0169607
0.000150395
0.000143405
0.0180733
0.000150122
0.0391955
0.000308712
0.000138663
0.000194424
0.000153266
0.0316072
0.0291515
0.00018619
0.0168267
0.00016137
0.000144676
0.0276633
0.000155052
0.000146256
0.00344641
0.000171654
0.000140404
0.000142154
0.000198278
0.00015272
0.0196281
0.0001756
0.000261226
0.014321
0.000178543
0.000182679
0.000144808
0.0328875
0.01654
0.0221619
0.000144044
0.000137615
0.000185667
0.000165816
0.00557206
0.000146446
0.00303044
0.000145758
0.000276011
0.000149316
0.000270806
0.000200523
0.000195324
0.0269065
0.00210491
0.0233414
0.0278289
0.00013159
0.000518559
0.000677159
0.0199442
0.000142866
0.00019724
0.0161262
0.0227181
0.000195092
0.000198372
0.00854945
0.0354085
0.000174774
0.000181566
0.000138187
0.000176448
0.000173068
0.000143423
0.000184932
0.0179529
0.000837552
0.0247658
0.00212176
0.000142431
0.000141027
0.000174981
0.000143534
0.00978624
0.000139224
0.000141195
0.0393841
0.000192335
0.000167232
0.000193511
0.000152391
0.000191865
0.0208847
0.0301938
0.0212456
0.000157511
0.0297548
0.00015226
0.00013846
0.000153275
0.0240213
0.000141585
0.000185601
0.000196362
0.000151005
0.00014209
0.000143573
0.000148871
0.000159332
0.0112581
0.00122657
0.000162971
0.0227119
0.0193203
0.000505473
0.0185494
0.000144722
0.00016369
0.000239647
0.000144294
0.000224445
0.000160161
0.000155306
0.0301937
0.0303906
0.000139246
0.000171132
0.000163991
0.000186176
0.026476
0.0210102
0.0350844
0.00014829
0.00018753
0.0361561
0.000187686
0.000194605
0.000271472
0.0281768
0.0350417
0.040019
0.000138677
0.0181035
0.000138303
0.000153661
0.0001442
0.000181428
0.0349395
0.0140755
0.00345939
0.0172446
0.000180461
0.000135025
0.000139649
0.000146547
0.000159161
0.000174358
0.0373691
0.0404717
0.000186411
0.00560395
0.00014828
0.000180651
0.000138806
0.0364059
0.000221916
0.000147879
0.000204601
0.000193759
0.00682004
0.0248989
0.0001989
0.0130667
0.000157295
0.023549
0.00018192
0.0128414
0.00358208
0.000151975
0.000180869
0.000145896
0.0212143
0.0202192
0.000172561
0.0277395
0.000184404
0.0286329
0.000183741
0.000228168
0.000178192
0.000140246
0.000195264
0.000187197
0.00015573
0.000181199
0.000165303
0.000167504
0.0166332
0.000202021
0.000153576
0.000165424
0.00016949
0.000167971
0.000152264
0.0208117
0.000194441
0.00419285
0.00816037
0.000144719
0.0292923
0.000144411
0.000157164
0.000154503
0.0290693
0.000174008
0.0358872
0.0223699
0.00018203
0.000192995
0.000196005
0.0228089
0.000197397
0.0145733
0.000168294
0.000174953
0.000143219
0.0317879
0.00340463
0.000167325
0.000144287
0.000173451
0.000158526
0.000156521
0.000176867
0.00017126
0.00014733
0.00017036
0.0246478
0.00932411
0.000588175
0.000172743
0.000132848
0.026904
0.000165851
0.000183096
0.0105167
0.000173355
0.0133472
0.000135966
0.00016694
0.000157209
0.000169476
0.000143463
0.0302916
0.00459696
0.0151687
0.000174089
0.0239169
0.000181009
0.000158088
0.0232543
0.000183664
0.000202274
0.00974142
0.000181712
0.000155535
0.000171817
0.000183415
0.000155923
5.44201e-05
0.0253902
0.00367469
0.000140299
0.000165892
0.000371949
0.000328338
0.000143122
0.000174739
0.000144962
0.000165756
0.0236391
0.000164069
0.000163251
0.000140566
0.00014025
0.000499755
0.0236969
0.000146482
0.00281436
0.00021414
0.000135212
0.000164307
0.0317838
0.000195018
0.000194029
0.000144202
0.000160663
0.000204169
0.000145429
0.000143316
0.0320581
0.000163384
0.0303222
0.000188296
0.000158984
0.0336405
0.000198184
0.000204083
0.000140819
0.00601743
0.000163247
0.00015976
0.0202276
0.000172211
0.000147771
0.000190551
0.000156333
0.000159198
0.000135902
0.0257801
0.000144554
0.000220882
0.0126096
0.000192022
0.000142679
0.00024912
0.00016429
0.0320463
0.00020699
0.024883
0.0001939
0.0329285
0.000138931
0.000187313
0.000157703
0.000142125
0.006199
0.0131621
0.000156703
0.00344574
0.000161852
0.000185881
0.0251518
0.000158549
0.000372729
0.0101161
0.0291469
0.0246193
0.000275537
0.000260576
0.000140659
0.000217627
0.000172152
0.00947359
0.0102644
0.0360752
0.0202356
0.0367948
0.000140056
0.0291092
0.000143949
0.000151097
0.000147027
0.00389939
0.000203271
0.000228406
0.000142636
0.0101165
0.000160868
0.0214665
0.00014273
0.000187999
0.000163767
0.00018432
0.000174551
0.000194253
0.000152582
0.000198109
0.000215733
0.000141088
0.0101346
0.00017092
0.000200816
0.000155314
0.000164292
0.000146263
0.000143667
0.000182935
0.000405957
0.0163615