/*--------------------------------*- C++ -*----------------------------------*\
| =========                 |                                                 |
| \\      /  F ield         | OpenFOAM: The Open Source CFD Toolbox           |
|  \\    /   O peration     | Version:  v2012                                 |
|   \\  /    A nd           | Website:  www.openfoam.com                      |
|    \\/     M anipulation  |                                                 |
\*---------------------------------------------------------------------------*/
FoamFile
{
    version     2.0;
    format      ascii;
    class       surfaceVectorField;
    location    "200";
    object      Uf_0;
}
// * * * * * * * * * * * * * * * * * * * * * * * * * * * * * * * * * * * * * //

dimensions      [0 1 -1 0 0 0 0];


internalField   nonuniform List<vector> 
20537
(
(1.01825 -0.00914426 0)
(1.01801 -0.00870658 7.03165e-22)
(1.01793 -0.00932601 8.93317e-22)
(0.728011 0.217937 -7.02664e-21)
(0.671871 0.184942 4.3053e-22)
(0.717313 0.237709 2.26377e-21)
(1.06164 -0.0462952 5.01962e-21)
(1.06175 -0.0477862 -1.23598e-21)
(1.06332 -0.0472911 -5.24521e-21)
(1.0182 -0.00782249 -5.44391e-22)
(1.01803 -0.00813983 2.23434e-22)
(1.01803 -0.00745379 -4.32991e-22)
(1.05815 -0.0432805 0)
(1.05786 -0.0428047 0)
(1.05837 -0.0428374 -8.68898e-21)
(1.02485 0.0679193 9.35856e-22)
(1.01578 0.0613614 1.38119e-21)
(1.03035 0.0545575 -2.88638e-21)
(1.02932 -0.00128313 5.44286e-21)
(1.0299 -0.00148028 -6.18782e-21)
(1.02972 -0.00101367 2.80963e-21)
(1.05086 -0.0429657 -3.27515e-21)
(1.05085 -0.0419632 2.8152e-21)
(1.05198 -0.0425647 4.89033e-21)
(1.00921 -0.00211361 -1.11033e-22)
(1.0094 -0.00219635 -1.05234e-21)
(1.00914 -0.00208805 -5.46128e-22)
(1.05262 -0.0849881 0)
(1.04676 -0.0831058 -1.16369e-22)
(1.05125 -0.0792157 3.29164e-21)
(0.899245 -0.0422791 -3.36671e-21)
(0.899463 -0.0686633 -2.45506e-22)
(0.910646 -0.0726743 7.24255e-23)
(0.718104 -0.141224 1.37188e-21)
(0.691369 -0.123956 -1.71572e-20)
(0.652239 -0.127067 5.16202e-21)
(0.981508 -0.0781433 0)
(1.01458 -0.0740857 3.84163e-21)
(0.99172 -0.0786186 -5.81619e-21)
(0.285925 0.218966 2.21028e-20)
(0.303015 0.223678 -1.4847e-20)
(0.2344 0.216843 0)
(1.01885 -0.000458697 3.57137e-22)
(1.01888 -0.000413026 1.46275e-21)
(1.01898 -0.000487977 1.0386e-21)
(1.029 -0.0345053 -5.6621e-22)
(1.03048 -0.0351714 -1.36699e-21)
(1.02915 -0.0363677 -2.55268e-21)
(1.03975 -0.0225072 1.4003e-21)
(1.0389 -0.0220015 -4.21048e-22)
(1.03977 -0.0217317 1.42769e-21)
(1.02747 -0.0137536 -1.62411e-21)
(1.02688 -0.0134209 -3.05018e-22)
(1.02767 -0.013129 3.228e-22)
(1.03432 -0.0569703 -2.02729e-21)
(1.03229 -0.0525444 -3.77104e-21)
(1.03365 -0.0527511 -4.43826e-21)
(1.00902 -0.0020382 8.84586e-23)
(1.00928 -0.00214599 4.55174e-22)
(1.0183 -0.00743375 -1.90198e-22)
(1.01838 -0.00806457 -2.72559e-22)
(1.06048 -0.0452002 9.42404e-22)
(1.06171 -0.0445735 2.93712e-21)
(1.00148 4.67325e-05 -2.18825e-22)
(1.00173 7.1182e-05 -1.72873e-22)
(1.00202 9.71103e-05 1.66936e-22)
(1.00392 -0.000191258 3.17573e-22)
(1.00249 -6.51936e-05 0)
(1.00403 -0.000195558 0)
(1.00126 3.34098e-05 -1.69124e-22)
(1.00098 3.04525e-07 -1.40394e-22)
(1.04983 -0.0436137 -3.09037e-21)
(1.05125 -0.0442829 -6.93217e-21)
(1.04888 -0.0161716 2.49167e-21)
(1.04841 -0.0154774 2.50875e-21)
(1.04799 -0.0161037 -6.43225e-21)
(0.0172345 -0.103632 7.53159e-21)
(0.0393009 -0.134688 -1.64567e-21)
(1.01854 -0.00909442 7.0821e-22)
(1.01851 -0.00972596 0)
(1.02514 -0.0146991 1.34495e-22)
(1.02525 -0.0150904 -2.50761e-22)
(1.02502 -0.0147789 -5.49742e-22)
(1.0346 0.0702179 6.55016e-22)
(1.01031 0.0845495 8.26087e-22)
(1.03962 -0.0234301 3.52759e-21)
(1.04064 -0.0231279 0)
(1.06008 -0.0485478 -6.48451e-21)
(1.06162 -0.0500088 8.303e-22)
(0.919018 0.185419 4.20668e-21)
(0.909379 0.181928 2.13572e-21)
(0.905726 0.195736 -6.24829e-21)
(1.00388 -0.000153396 2.72821e-22)
(1.0051 -0.000292345 2.19574e-22)
(1.08776 -0.0541628 -1.10371e-20)
(1.08867 -0.053673 1.94491e-20)
(1.08886 -0.0551349 2.01177e-20)
(1.10275 -0.0612435 -1.16708e-20)
(1.09874 -0.0605555 -2.28195e-21)
(1.09961 -0.060001 -1.12399e-20)
(1.05621 -0.0182927 1.5732e-21)
(1.05075 -0.0181674 1.91597e-21)
(1.05636 -0.0228143 -2.45523e-21)
(1.05391 -0.0893558 1.35107e-21)
(1.05808 -0.0847073 -5.70962e-21)
(0.939275 0.172882 -3.33448e-22)
(0.929995 0.182116 5.03887e-21)
(1.01685 -0.00592054 1.40601e-22)
(1.01692 -0.00599106 1.80422e-22)
(1.01711 -0.00613196 0)
(1.0068 0.00161128 -2.85518e-25)
(1.00666 0.00154352 -7.24243e-23)
(1.00658 0.00150205 7.85721e-23)
(-0.020206 0.097887 7.2205e-22)
(-0.0137212 0.0873986 -3.02382e-20)
(-0.0033911 0.105236 2.01597e-20)
(0.900207 -0.123089 3.48373e-21)
(0.906253 -0.143852 3.82004e-22)
(0.903088 -0.123567 -2.03241e-21)
(0.894934 -0.0934333 -1.26392e-21)
(0.901177 -0.121557 2.19707e-21)
(0.0385089 -0.227919 -4.60826e-21)
(0.128349 -0.223395 -2.16782e-20)
(0.118909 -0.20902 -1.67567e-20)
(0.918412 -0.169435 4.60305e-21)
(0.913667 -0.160765 1.0997e-21)
(0.92296 -0.155846 1.89889e-21)
(0.883319 -0.142236 0)
(0.885714 -0.164886 2.39086e-21)
(0.866964 -0.155682 -9.69989e-22)
(1.04929 -0.0168963 2.79474e-21)
(1.04974 -0.0162188 3.17179e-21)
(1.04872 -0.017608 -5.81701e-21)
(1.04291 -0.0166322 9.19114e-23)
(1.04836 -0.00887194 -1.0137e-21)
(1.06737 -0.0445636 -7.22628e-22)
(1.06788 -0.0454001 -6.45591e-21)
(1.06836 -0.0443679 -6.99627e-23)
(1.06112 -0.055982 0)
(1.06244 -0.0553796 -5.64985e-21)
(1.06239 -0.0573553 0)
(-0.0314385 -0.196154 -2.47301e-21)
(-0.0292215 -0.187279 -2.36054e-20)
(-0.0207864 -0.19849 1.77523e-20)
(1.01854 -0.00046863 1.83095e-21)
(1.01812 -0.000258911 1.13664e-21)
(1.01867 -0.000498309 2.56624e-22)
(1.01179 -0.000683278 -4.01818e-22)
(1.01169 -0.000661608 -6.36732e-23)
(1.01271 -0.000768601 -2.78307e-22)
(1.00694 0.00168477 -6.77102e-23)
(1.00702 0.00172935 6.93988e-23)
(1.0032 -0.000130831 3.2462e-22)
(1.00367 -0.00016285 3.38863e-23)
(1.0029 -0.000103871 -7.73019e-23)
(-0.00269361 -0.208694 2.97746e-20)
(-0.0019397 -0.209668 2.14288e-20)
(0.0193301 -0.206845 1.7914e-20)
(1.02524 -0.0145113 2.77827e-22)
(1.02496 -0.0143532 6.04876e-22)
(1.03062 -0.00392492 2.37569e-22)
(1.03012 -0.00365073 -1.32318e-21)
(1.03072 -0.0034863 -1.91906e-21)
(1.06062 -0.012326 -1.96789e-21)
(1.06109 -0.0185006 -8.42623e-22)
(0.425762 0.0191099 -5.4231e-21)
(0.420748 0.00338571 -1.20778e-21)
(0.353284 0.0143711 -1.25886e-20)
(1.05373 -0.0355364 -3.00134e-23)
(1.05077 -0.0428997 -2.7554e-21)
(1.04721 -0.0359239 4.19879e-22)
(1.05777 -0.0452595 -6.10804e-21)
(1.05731 -0.0445896 -1.66684e-21)
(1.05687 -0.0453126 -5.94226e-21)
(0.884852 0.0682931 1.30384e-20)
(0.909801 0.0774659 -2.3683e-21)
(0.92308 0.0600303 4.44651e-21)
(1.01608 -0.00850431 2.45595e-22)
(1.01649 -0.00774509 6.22748e-22)
(1.01589 -0.00743141 1.29982e-23)
(1.09662 -0.0631709 0)
(1.09911 -0.0615527 -1.09724e-20)
(0.923409 -0.164352 -5.96797e-22)
(0.9223 -0.172869 -6.40807e-22)
(1.0607 -0.0293561 1.56459e-22)
(1.0599 -0.0297202 3.62238e-22)
(1.05983 -0.0287554 6.35214e-21)
(1.02701 -0.0142714 -9.95337e-22)
(1.02791 -0.0143087 -1.33225e-21)
(0.347491 -0.000934475 -3.59629e-21)
(0.336522 -6.65571e-06 -2.7551e-20)
(0.312397 0.00379379 1.1766e-20)
(1.04162 -0.0601083 1.1734e-20)
(1.03974 -0.05994 -6.06296e-21)
(1.07255 -0.0604244 -8.03973e-21)
(0.78006 0.25013 1.17724e-20)
(0.744586 0.199042 -2.13252e-21)
(1.01872 -0.000432278 -1.88914e-21)
(1.01835 -0.000485583 1.64063e-21)
(1.01268 -0.00100141 4.05065e-22)
(1.0129 -0.00112038 1.19117e-22)
(1.01274 -0.00117831 1.9802e-22)
(1.01159 -0.0029987 0)
(1.01155 -0.00296581 0)
(1.01131 -0.00289197 2.71911e-22)
(1.05985 -0.0445652 0)
(1.05947 -0.0455311 5.27548e-21)
(0.483533 -0.00897161 0)
(0.503375 -0.0145527 0)
(0.489285 -0.00852764 -1.83122e-20)
(1.05817 -0.0377332 -1.09069e-23)
(1.05873 -0.0382579 3.90441e-21)
(1.05802 -0.0384343 4.85857e-22)
(0.325557 -0.00169758 -2.47824e-20)
(0.297473 6.18547e-06 -4.58477e-20)
(1.03373 -0.00742784 2.58656e-21)
(1.03304 -0.00740049 1.64826e-21)
(1.03319 -0.00688035 -2.79904e-21)
(0.876077 0.0184503 5.03433e-21)
(0.880759 0.0279003 1.28065e-22)
(0.877209 0.0521011 1.44428e-22)
(1.02101 -0.00374658 -7.9425e-22)
(1.02122 -0.00396875 -1.0954e-21)
(1.02082 -0.00384693 5.28819e-22)
(0.124677 -0.239587 1.39205e-20)
(0.216323 -0.24061 0)
(0.0957508 -0.224346 -1.72856e-21)
(1.05503 -0.0293155 1.94644e-21)
(1.06183 -0.0350532 -2.48712e-22)
(0.739069 -0.158973 3.64384e-21)
(0.776852 -0.155161 -1.94078e-20)
(1.04852 0.0252779 -2.03173e-21)
(1.04621 0.0339948 3.78118e-21)
(1.03941 0.0270007 -1.11445e-21)
(0.75034 -0.164242 6.44618e-21)
(0.788551 -0.130201 -8.72596e-22)
(0.808567 -0.150549 2.61709e-21)
(1.0462 -0.0211823 -2.17085e-21)
(1.04548 -0.021638 0)
(1.04652 -0.0221713 3.18104e-21)
(1.00909 -0.0017683 0)
(1.00891 -0.0016911 6.44066e-22)
(1.0089 -0.00156814 0)
(1.0863 -0.0535563 -1.89941e-20)
(1.08702 -0.0549618 -2.18898e-20)
(1.01149 -0.0171224 0)
(1.01124 -0.0205373 0)
(1.00824 -0.0172171 1.22433e-21)
(0.916358 -0.154145 9.39889e-21)
(1.04995 -0.0249868 0)
(1.04972 -0.0256351 0)
(1.05062 -0.025576 2.20617e-23)
(1.04613 -0.0204685 -4.94976e-21)
(1.04711 -0.0207775 -1.91599e-21)
(1.00194 -5.68634e-05 -6.6305e-23)
(1.00203 -5.51516e-05 5.27418e-22)
(1.00276 -0.000156534 1.25299e-21)
(1.05766 -0.0439324 5.87436e-21)
(1.05852 -0.0439105 0)
(0.642836 -0.107897 7.60464e-21)
(0.612442 -0.112023 5.9692e-21)
(0.626873 -0.110627 1.61787e-20)
(1.05427 -0.0184582 -3.19627e-22)
(1.04757 -0.0275116 -9.25699e-23)
(1.00102 7.57508e-06 -6.18803e-22)
(1.00183 -6.11739e-05 -5.49435e-22)
(0.0857052 -0.0272018 -1.71777e-20)
(0.168737 -0.00849699 8.88766e-22)
(0.116599 0.0177342 -7.61925e-20)
(1.06234 -0.0385296 -4.33778e-22)
(1.06313 -0.0383913 1.61156e-20)
(1.06245 -0.0377512 4.00153e-21)
(1.02052 -0.0101512 -6.18942e-23)
(1.0208 -0.0104582 3.21783e-23)
(1.02053 -0.0103114 -4.87522e-23)
(1.05378 -0.00895441 -1.45475e-21)
(1.05465 -0.0092483 0)
(1.00306 0.000126543 5.63357e-23)
(1.0037 0.000201513 -1.0666e-22)
(1.00326 0.000129568 3.92287e-23)
(1.06432 0.0161338 3.26841e-22)
(1.06919 0.00723086 -4.70147e-21)
(1.05933 0.00677261 -5.11464e-22)
(1.06499 -0.039618 -3.20727e-22)
(1.06422 -0.0397144 3.46541e-21)
(1.06472 -0.0404943 9.25509e-23)
(1.00672 0.00149187 4.0466e-23)
(1.00658 0.00142773 4.10507e-23)
(1.00654 0.00136426 1.43947e-22)
(0.963252 -0.0567229 -1.13774e-21)
(0.917547 -0.0553398 -2.16242e-21)
(0.996924 0.0688926 -1.57261e-21)
(1.0085 0.0549052 0)
(1.00252 -0.000103115 0)
(1.00141 -3.02539e-05 0)
(1.00241 -9.26891e-05 0)
(1.00922 -0.00186281 1.27032e-22)
(1.00929 -0.00198843 0)
(1.01182 -0.0145772 -4.06685e-22)
(1.01419 -0.0167721 0)
(1.00108 9.66042e-06 -2.67692e-22)
(1.00106 -3.64814e-05 4.99123e-22)
(1.00344 -0.000173571 0)
(1.00248 -9.04366e-05 0)
(0.914275 0.227274 -6.75879e-21)
(0.892467 0.195543 -1.05663e-20)
(0.67797 -0.103075 0)
(0.665493 -0.103847 0)
(1.00566 0.000846395 0)
(1.00566 0.000891562 -5.81926e-24)
(1.00575 0.000926222 0)
(1.00663 -0.000326592 0)
(1.00645 -0.000319866 -7.14726e-23)
(1.00441 -0.000162039 0)
(1.01131 -0.000577721 7.70498e-22)
(1.01002 -0.000539627 -1.51022e-22)
(1.00954 -0.000433252 1.93527e-22)
(-0.0375935 0.088661 2.42196e-20)
(-0.0174093 0.120299 -3.11162e-20)
(1.05326 -0.0098756 6.326e-21)
(1.05268 -0.00885504 -5.80602e-21)
(0.972302 -0.0762391 2.73468e-21)
(0.938342 -0.08093 -1.22762e-20)
(0.884098 0.0935196 -3.82676e-21)
(0.880475 -0.119396 4.16999e-22)
(0.903028 -0.126798 0)
(1.0074 0.000759354 3.64775e-22)
(1.00769 0.00147603 6.74484e-22)
(1.0072 0.00169878 -6.76556e-22)
(0.880084 -0.0950684 4.11096e-22)
(0.863107 -0.102475 7.93706e-21)
(1.06004 -0.037938 -2.11699e-21)
(1.06062 -0.0379229 5.60991e-21)
(1.06029 -0.0386099 3.01973e-22)
(1.01836 -0.00716693 3.87417e-22)
(1.01831 -0.00687455 5.92036e-22)
(1.04999 -0.0400465 1.53261e-21)
(1.05071 -0.0412964 -1.50351e-21)
(1.04896 -0.0417293 -9.53395e-22)
(1.01661 -0.00570422 -1.40216e-22)
(1.0168 -0.00582936 -4.34311e-23)
(1.00896 -0.00152174 1.85781e-22)
(1.00915 -0.0016085 -2.47748e-22)
(1.00904 -0.00150867 -1.16536e-22)
(0.357445 -0.00345593 1.55035e-20)
(0.369397 -0.00702755 1.9135e-20)
(1.02116 -0.003598 0)
(1.02075 -0.00348544 1.85139e-21)
(0.915154 0.247888 4.50161e-21)
(1.0088 -0.000693212 -1.00526e-22)
(1.00866 -0.000666582 -3.36691e-25)
(1.00831 -0.000560705 -1.57722e-22)
(1.00567 0.000787571 0)
(1.00557 0.000754375 -7.94953e-23)
(1.04717 -0.0603763 2.06956e-20)
(1.05213 -0.0613491 -1.64179e-20)
(1.07783 -0.0617963 -8.82569e-21)
(0.0820275 0.205159 0)
(0.0822522 0.209809 -2.62012e-22)
(0.093092 0.219781 4.14791e-21)
(0.302697 0.271305 0)
(0.346278 0.266609 2.73089e-21)
(0.296157 0.269838 0)
(0.0480243 -0.0699217 5.97448e-20)
(0.0164737 -0.0501882 1.65577e-20)
(1.01215 -0.000817796 -5.082e-22)
(1.0104 -0.000397215 -2.6154e-22)
(1.01614 -0.00580346 3.54575e-22)
(1.01661 -0.00628483 1.31887e-21)
(1.01616 -0.00622035 -1.30348e-21)
(1.00824 0.00208299 2.24802e-22)
(1.00805 0.00200639 -3.00359e-22)
(1.00832 0.00210827 1.39461e-22)
(1.03235 -0.0169386 -2.21097e-21)
(1.0328 -0.017625 -4.87311e-21)
(1.03292 -0.0168657 -3.08505e-21)
(0.910104 -0.160683 -3.92573e-21)
(0.916001 -0.155576 0)
(1.0309 0.0142881 1.53505e-23)
(1.03144 0.0104927 -5.90452e-22)
(1.02717 0.0129737 2.05957e-21)
(1.04906 -0.0382358 3.73273e-21)
(1.05104 -0.0383005 -8.24018e-22)
(1.02868 -0.00103598 -9.08956e-22)
(1.02881 -0.00148859 3.57628e-21)
(0.891058 -0.0630096 -1.42785e-21)
(0.892313 -0.0569609 -2.24794e-21)
(1.08176 -0.0404118 -1.86614e-20)
(1.08163 -0.0414226 -1.74695e-20)
(1.01032 -0.000641767 9.86628e-23)
(1.01068 -0.00062418 -2.05071e-22)
(1.01157 -0.000674268 -2.34359e-22)
(0.246422 0.206655 -8.91655e-21)
(0.335106 0.220657 1.42246e-20)
(1.0028 -0.000105243 1.81035e-22)
(1.00349 -0.000165134 -2.92556e-22)
(1.03914 -0.0142977 -6.76926e-21)
(1.03981 -0.0144135 -3.50077e-21)
(1.03933 -0.0136787 2.26897e-22)
(1.03176 -0.0171034 1.10844e-21)
(1.03178 -0.016346 2.71305e-21)
(1.0131 -0.00360371 -3.6033e-22)
(1.01288 -0.00348575 -8.01798e-23)
(1.01308 -0.00357042 -2.43575e-22)
(1.02583 -0.0144248 1.931e-22)
(1.02587 -0.0141493 7.40418e-22)
(1.02616 -0.014566 1.02318e-21)
(1.06018 -0.0574455 7.89192e-21)
(1.05975 -0.0553448 4.9764e-21)
(1.06684 -0.0436061 6.52861e-21)
(1.06638 -0.0445669 1.34555e-20)
(1.01042 0.0034 0)
(1.01012 0.00324013 0)
(1.01046 0.00333678 4.7943e-25)
(1.05583 -0.0218336 2.57091e-22)
(1.05571 -0.0224728 -3.29362e-21)
(1.05653 -0.0222891 -2.6598e-21)
(0.00116138 -0.208672 -5.98338e-21)
(-0.0168727 -0.209162 8.95849e-21)
(1.00878 -0.00143998 2.90939e-22)
(1.0089 -0.00153652 4.22125e-23)
(1.02236 -0.0179307 -2.01627e-23)
(1.02285 -0.0190418 -1.66968e-23)
(1.02313 -0.0179488 -2.85138e-22)
(1.00732 0.00180907 2.65739e-23)
(1.0074 0.00183194 5.32743e-23)
(1.00716 0.00173732 -1.42398e-22)
(1.03031 0.0194346 7.14622e-22)
(1.03555 0.016116 7.71434e-24)
(1.06153 -0.029959 2.21041e-23)
(1.06147 -0.0289537 5.6759e-21)
(1.01839 -0.00734745 -2.14805e-22)
(1.01837 -0.00692038 1.52373e-22)
(0.463375 -0.150152 2.66345e-21)
(0.43857 -0.164078 6.46786e-21)
(0.478421 -0.155449 -8.57663e-22)
(0.458546 -0.00215646 0)
(0.477399 -0.00800409 0)
(1.00578 -0.000928788 -8.85622e-22)
(1.00592 -0.000981392 -8.77745e-22)
(1.0059 -0.000995143 -2.74114e-22)
(1.01333 -0.00372668 0)
(1.01314 -0.00363403 1.35919e-22)
(0.270334 0.272529 0)
(0.318462 0.268973 4.39684e-21)
(1.00859 -0.00135598 0)
(1.00866 -0.00133777 0)
(0.890239 -0.186163 1.2266e-21)
(0.908473 -0.168555 2.83608e-21)
(1.05921 -0.0381295 2.07325e-21)
(1.05946 -0.037339 -3.32537e-21)
(1.01798 -0.00563534 -7.83618e-22)
(1.01824 -0.00543014 -1.14135e-21)
(1.01875 -0.00592661 -1.2432e-21)
(1.02893 -0.0606193 3.82346e-21)
(1.03823 -0.0604101 3.42699e-21)
(1.00712 0.00173376 8.37408e-24)
(1.00728 0.00180289 -8.21951e-23)
(1.00736 0.00187195 -7.82556e-23)
(1.04033 -0.0248141 -1.31808e-21)
(1.03954 -0.0242597 -5.39125e-22)
(1.03947 -0.025132 -3.61331e-21)
(1.00717 -0.0598355 7.47263e-21)
(1.02101 -0.00317993 -7.64466e-23)
(1.02078 -0.00296272 -1.1943e-21)
(1.02065 -0.00311144 -2.87007e-21)
(1.06285 -0.0442103 3.82669e-21)
(1.06152 -0.0434566 2.57509e-21)
(1.00662 0.000758919 0)
(1.00628 0.000642866 1.29113e-23)
(1.0066 0.000715878 6.21117e-25)
(1.00139 -1.61325e-05 -1.28847e-22)
(1.00156 -6.56032e-06 1.08542e-23)
(1.00202 -4.98517e-06 3.61883e-22)
(1.01577 -0.00928188 3.94081e-22)
(1.01653 -0.0093612 -2.11309e-22)
(1.01235 -0.000848494 6.74884e-22)
(1.01228 -0.000807797 5.60797e-22)
(1.05677 -0.0424252 4.12804e-21)
(1.05683 -0.0418121 -1.43766e-22)
(1.05607 -0.0420418 3.92326e-21)
(0.987205 -0.0770783 1.85344e-24)
(0.985603 -0.0849506 8.65769e-25)
(0.994325 -0.0812834 -4.53812e-22)
(0.916709 -0.173075 -2.28387e-21)
(-0.0279206 -0.204345 -2.36688e-20)
(-0.040449 -0.19633 -3.68174e-21)
(1.00933 -0.00194469 5.78085e-22)
(1.00954 -0.00224486 4.42081e-22)
(1.00938 -0.00207734 -3.54865e-22)
(1.05698 -0.0313327 -1.03232e-22)
(1.05764 -0.0308765 -1.2211e-22)
(1.05681 -0.0304375 1.20021e-20)
(0.432043 0.0381221 5.46444e-21)
(0.492719 0.0248005 1.07411e-20)
(1.03762 -0.0139213 -1.35207e-21)
(1.03833 -0.0141665 2.26997e-21)
(1.03785 -0.0134741 3.30691e-21)
(1.01567 -0.00542444 -2.5392e-22)
(1.01598 -0.00547644 3.34307e-22)
(0.964383 0.0852167 1.06063e-21)
(0.983965 0.0507339 -4.4902e-21)
(0.982128 0.090857 -1.21213e-20)
(1.01768 -0.0058965 7.61445e-22)
(1.01729 -0.0053924 1.03442e-21)
(1.01163 -0.00302767 0)
(1.01187 -0.00310751 3.30445e-22)
(1.00715 3.13408e-05 5.05781e-22)
(1.00784 0.00014928 3.973e-22)
(0.149256 -0.165153 1.87388e-21)
(0.207944 -0.145209 4.15778e-21)
(0.238415 -0.158172 1.63504e-21)
(1.00314 -0.000116586 -5.53602e-23)
(1.00546 -0.000175612 -7.79777e-23)
(1.00269 -0.000144505 -9.0861e-24)
(1.01833 -0.0046297 -6.66636e-22)
(1.01803 -0.00442824 -8.43097e-22)
(1.01815 -0.00469526 -6.50944e-22)
(1.01478 -0.0759582 -8.85555e-22)
(1.01277 -0.0714791 2.70773e-22)
(1.01783 -0.0719429 -2.20845e-22)
(1.0214 -0.00322906 1.14298e-21)
(1.02127 -0.00340815 1.22837e-21)
(0.373107 0.15561 1.97404e-21)
(0.29149 0.173798 5.68871e-21)
(0.339559 0.159928 5.70245e-21)
(1.0418 -0.0224848 -1.16274e-21)
(1.04136 -0.0216697 3.53607e-21)
(1.04246 -0.0218435 -1.15503e-21)
(0.499446 -0.0220524 1.72521e-21)
(0.478667 -0.0178188 -1.08483e-21)
(0.49686 -0.0220356 -7.86823e-21)
(1.00856 0.00243168 1.25567e-22)
(1.00883 0.00257195 5.83527e-23)
(1.00862 0.00250604 6.29045e-23)
(0.77569 -0.0565239 -1.15695e-20)
(0.734448 -0.0538106 9.38709e-21)
(0.746616 -0.0545483 -1.16615e-20)
(1.02049 -0.00995251 5.84336e-23)
(1.02023 -0.00980459 -7.78953e-23)
(0.910408 0.103845 -7.68865e-21)
(0.926212 0.0659189 2.98616e-21)
(0.906909 0.0505906 6.04505e-21)
(1.00735 0.00174373 2.50674e-24)
(1.00716 0.00167118 2.29027e-23)
(1.00713 0.00160649 5.86977e-23)
(1.008 0.00202832 4.22085e-22)
(1.00818 0.00209789 1.67987e-22)
(1.00789 0.0020044 4.13598e-22)
(0.926735 0.0391265 -4.56375e-21)
(0.91775 0.0233905 1.56898e-22)
(0.928592 0.0126029 -8.8815e-21)
(1.06073 -0.0189377 -1.03077e-20)
(1.05542 -0.022748 -1.50759e-21)
(1.05266 -0.0161355 2.8203e-21)
(-0.0477726 -0.231065 -1.67276e-20)
(-0.0439277 -0.224794 1.2005e-20)
(1.01925 -0.0011299 0)
(1.01911 -0.000983968 0)
(1.01903 -0.00109107 0)
(0.503785 -0.0224991 1.48632e-20)
(0.522307 -0.0263284 -4.44482e-23)
(1.04133 -0.0229635 -4.3147e-21)
(1.04221 -0.0230539 -9.66409e-21)
(1.03425 -0.00785218 9.2345e-22)
(1.03438 -0.00731328 4.58622e-21)
(0.798608 -0.0781298 -2.91184e-23)
(0.770289 -0.0788351 1.25458e-21)
(0.770297 -0.0764084 -1.08563e-21)
(1.05505 -0.0504304 -3.69204e-21)
(1.05349 -0.0502573 -2.54543e-21)
(1.05409 -0.0520939 5.53319e-21)
(0.669913 -0.0440835 3.17605e-20)
(0.638986 -0.0415319 -9.33657e-21)
(0.638671 -0.0419143 1.15301e-20)
(1.00124 1.08721e-05 1.91265e-23)
(1.00124 1.16465e-05 1.56265e-23)
(1.00075 2.20626e-05 -1.39661e-23)
(1.05133 -0.0277179 3.76345e-21)
(1.05221 -0.0283543 -9.43624e-22)
(1.05122 -0.0287067 -3.65365e-21)
(1.00287 0.00010682 4.64904e-23)
(1.0023 4.54535e-05 -1.35868e-23)
(-0.0944103 -0.179951 0)
(-0.102858 -0.169051 1.48817e-20)
(-0.0860658 -0.174877 1.81317e-20)
(1.00754 0.00181306 -8.04464e-23)
(1.00758 0.00188851 6.39501e-24)
(1.04877 -0.0445369 -3.33018e-21)
(1.04841 -0.0431466 -2.91104e-21)
(1.01047 0.108674 -7.89863e-22)
(1.00181 0.110472 -4.53817e-22)
(0.950153 0.132033 -1.67107e-21)
(1.0057 -0.000856936 4.99661e-22)
(1.00566 -0.000871307 -2.27959e-22)
(1.00914 -0.0016738 5.62378e-24)
(1.07017 -0.0421052 -1.65881e-21)
(1.0692 -0.0424541 4.55347e-21)
(1.06933 -0.0413866 2.4706e-22)
(1.02605 0.00538667 9.32292e-23)
(1.02535 0.00197206 3.40677e-23)
(1.0291 0.00237513 2.52016e-21)
(0.459651 0.140982 -7.35475e-21)
(0.40586 0.152783 -7.16783e-21)
(0.840892 0.0678522 1.91693e-21)
(0.868854 0.0552945 1.75645e-20)
(1.00813 0.00205578 2.27856e-22)
(1.00842 0.00215182 4.13594e-23)
(1.01847 -0.00457916 -1.21284e-21)
(1.0186 -0.00480757 -9.84924e-22)
(1.05088 0.0550798 7.97713e-23)
(1.04735 0.0694396 5.50202e-22)
(1.0011 -0.0969699 0)
(1.01788 -0.093309 -5.51665e-22)
(1.009 -0.0831942 -2.39347e-22)
(1.01327 0.00501005 3.57822e-24)
(1.01274 0.00474884 -6.63423e-23)
(1.01292 0.00511244 -8.61869e-23)
(1.01725 -0.0801471 -1.65365e-21)
(1.01165 -0.0801504 -5.91514e-22)
(1.00428 0.000291387 -6.52208e-23)
(1.00409 0.000264127 -1.69798e-22)
(0.603818 -0.0386979 1.42999e-20)
(0.577907 -0.0352941 7.30071e-21)
(0.598615 -0.0376768 -1.22407e-20)
(1.06166 -0.0387445 -2.10169e-20)
(1.0622 -0.0393753 -8.86447e-21)
(0.911887 0.17199 4.34223e-21)
(0.909456 0.191133 -4.24586e-21)
(0.900146 0.189686 -2.1217e-21)
(1.03128 -0.0171877 -1.49591e-21)
(1.0307 -0.0171989 -6.18598e-22)
(1.0308 -0.0165352 1.28301e-21)
(1.03317 -0.0243891 5.75009e-22)
(1.0333 -0.0233822 -2.77067e-21)
(1.03236 -0.0236902 1.65249e-21)
(1.02264 0.00417974 -9.8519e-22)
(1.02108 0.00556028 -1.1634e-21)
(1.021 0.00274064 -9.73601e-22)
(0.984687 -0.0949893 3.33075e-22)
(0.995218 -0.113008 0)
(1.02894 -0.0103319 -1.78713e-22)
(1.02923 -0.0107239 6.13427e-21)
(1.02866 -0.0105257 2.7152e-21)
(1.03177 -0.0177518 -1.34187e-21)
(1.06916 -0.0367843 1.22279e-20)
(1.06995 -0.0373691 -2.2803e-22)
(1.06878 -0.0376484 3.22844e-21)
(0.969286 -0.104731 -1.63716e-21)
(0.976328 -0.118924 -1.15102e-21)
(0.984589 -0.105068 2.24921e-22)
(0.980713 -0.0718553 -2.9721e-21)
(0.988254 -0.0693939 0)
(1.01802 -0.061127 -1.65965e-20)
(1.0545 -0.0619208 -7.76561e-21)
(0.540468 -0.0285945 -2.14081e-20)
(0.442242 -0.00599167 0)
(0.42 -0.0156471 3.50818e-21)
(1.02187 -0.000872626 2.38569e-22)
(1.02152 -0.000729448 1.21352e-21)
(1.02156 -0.000959023 1.33061e-21)
(1.00783 0.00196177 1.38035e-22)
(1.02653 -0.0145519 -6.84822e-22)
(1.02646 -0.0151477 -5.0457e-22)
(1.02578 -0.014777 -7.32882e-22)
(0.911625 0.211926 5.27503e-22)
(0.906493 0.198634 3.55479e-21)
(0.897654 0.212061 4.21875e-22)
(1.00812 0.000889292 -2.65335e-22)
(1.00805 0.00104491 4.99605e-22)
(1.00818 0.00116072 -1.95117e-22)
(1.00073 -0.0500393 9.82976e-22)
(1.00277 -0.0445834 0)
(0.964042 -0.0495347 5.89258e-22)
(1.03748 -0.0145257 -2.32561e-21)
(1.037 -0.0138242 -2.27962e-21)
(1.02919 -0.0101246 3.54439e-23)
(1.02863 -0.00992188 -3.06281e-21)
(1.05029 -0.0243054 9.04428e-21)
(1.04938 -0.0244689 6.56048e-22)
(0.828012 -0.0805135 3.34096e-22)
(0.827138 -0.0781207 3.24674e-22)
(0.996765 0.00482129 1.16882e-22)
(1.00007 0.00343403 1.69774e-22)
(0.996844 0.000664421 -9.08705e-22)
(1.02483 0.00534357 -2.58485e-21)
(1.02347 0.00277537 -4.22439e-22)
(1.03886 -0.014928 -1.44999e-21)
(0.927757 0.138293 9.04959e-22)
(0.933487 0.115809 8.4582e-22)
(0.90604 0.13106 8.15179e-21)
(1.05756 -0.037264 4.3386e-22)
(1.05827 -0.036978 7.29033e-21)
(1.02738 -0.0340907 2.38415e-21)
(1.02847 -0.0329102 1.53788e-21)
(1.00933 -0.00169262 3.61052e-22)
(1.00925 -0.00169724 2.45536e-23)
(0.87666 -0.0153912 4.61146e-23)
(0.877335 0.014133 3.18191e-23)
(1.00475 0.0341201 -9.75581e-22)
(0.9967 0.0370786 1.64206e-22)
(0.998765 0.0286621 1.62621e-22)
(0.681046 -0.0427244 -9.30661e-21)
(0.648488 -0.0396423 0)
(0.647003 -0.0406728 1.37326e-20)
(0.90313 -0.0195829 3.508e-22)
(0.894119 -0.00783256 4.76553e-22)
(1.01382 0.00524773 2.07067e-23)
(1.01349 0.00492076 1.77139e-23)
(1.00842 0.00224595 2.0956e-23)
(1.0085 0.00235031 4.84431e-23)
(1.00871 0.00238998 -7.09748e-23)
(1.00341 0.000129872 2.50192e-23)
(1.00363 0.000160728 -2.66404e-23)
(1.00407 0.000255569 -1.45368e-23)
(1.06953 -0.036075 0)
(1.06856 -0.0363016 0)
(0.909195 0.224421 0)
(0.922183 0.211259 0)
(0.89714 -0.205198 -1.62869e-21)
(0.918261 -0.213288 5.04912e-22)
(0.901151 -0.225853 -7.83124e-21)
(1.01041 -0.00258337 -9.18512e-22)
(1.01061 -0.00264949 -2.09417e-22)
(1.01071 -0.00270111 4.4271e-23)
(1.0195 5.03485e-05 0)
(1.01956 -7.5156e-05 -1.04358e-21)
(1.0197 3.98834e-05 0)
(0.930023 0.162121 -9.7135e-22)
(0.950283 0.139468 5.88006e-22)
(0.892103 -0.0176192 -5.92976e-22)
(0.884406 -0.0531141 -6.58595e-22)
(0.891049 -0.057015 3.43964e-21)
(1.04847 -0.0365109 -2.18465e-21)
(1.04734 -0.0386926 2.42425e-21)
(1.02523 -0.0143384 -4.99504e-23)
(1.02544 -0.0146971 1.44851e-21)
(1.03112 -0.00415932 2.09229e-22)
(1.03054 -0.00425457 -1.9408e-22)
(1.05991 -0.0315356 -6.97205e-22)
(1.05916 -0.0318867 -7.15399e-21)
(1.05996 -0.0324954 -2.37382e-21)
(0.888924 0.0118002 0)
(0.900835 0.00528144 2.41893e-22)
(1.01987 -0.0528096 2.66131e-21)
(0.997199 -0.0564398 -3.09113e-21)
(1.02406 -0.0199759 0)
(1.02443 -0.0196965 0)
(1.02461 -0.0205008 -9.33182e-22)
(0.723078 -0.169641 -3.23266e-21)
(0.77713 -0.172567 1.08928e-21)
(1.0096 -0.00186537 5.88432e-25)
(1.00967 -0.00186961 -1.56712e-22)
(1.00948 -0.00177108 4.86372e-22)
(0.610272 -0.0394164 9.55404e-22)
(0.632758 -0.0417629 1.33543e-20)
(1.05522 -0.0214002 3.654e-21)
(1.05605 -0.0211544 3.00573e-21)
(1.03816 -0.0215335 -3.17077e-21)
(1.03811 -0.0222759 -3.09962e-21)
(0.695071 -0.0457313 -1.68624e-20)
(0.656263 -0.0436809 6.3999e-21)
(0.667499 -0.0439729 -4.04283e-21)
(1.02103 -0.00875877 -4.91172e-22)
(1.02091 -0.00881404 7.81903e-22)
(1.02123 -0.00898905 8.16924e-22)
(1.05592 0.0216684 -5.12426e-21)
(1.06505 0.0266873 6.30225e-22)
(0.684772 -0.053606 -2.1183e-21)
(0.68509 -0.0535596 5.96364e-21)
(0.712473 -0.0569732 -7.26855e-21)
(1.01014 -0.00248168 -1.78891e-22)
(1.01022 -0.00252965 -5.74929e-23)
(1.06602 -0.0333635 5.92812e-21)
(1.06685 -0.0339112 4.59121e-21)
(1.06585 -0.0343617 -4.79647e-21)
(1.04874 -0.025974 5.60915e-21)
(1.04966 -0.0266261 3.81693e-21)
(1.02525 -0.0141199 4.24837e-22)
(1.02501 -0.0139984 0)
(0.0905609 0.197942 0)
(0.0753196 0.183049 5.58772e-21)
(1.02343 -0.019755 0)
(1.02371 -0.0207201 0)
(1.02734 -0.0101928 -2.27489e-21)
(1.02767 -0.0101656 -4.62025e-22)
(1.02774 -0.0105783 -1.15664e-22)
(0.749854 -0.0897636 -6.54223e-21)
(0.746009 -0.0865017 -1.50916e-20)
(0.719896 -0.0891833 -6.95669e-21)
(1.00682 0.00162698 -1.81313e-22)
(1.00688 0.0016574 0)
(1.00666 0.00155161 0)
(1.03325 -0.0251584 -1.51911e-22)
(1.03401 -0.0247545 4.62899e-22)
(1.00685 -0.00102626 -1.69751e-22)
(1.00711 -0.00228142 -1.81878e-22)
(1.00776 -0.00152226 -4.17052e-23)
(0.719402 -0.0457627 2.7858e-21)
(0.720946 -0.0461024 6.73568e-22)
(1.08318 -0.0501031 -4.47539e-21)
(1.08418 -0.0506066 3.90251e-21)
(1.08393 -0.0494967 -4.09019e-21)
(1.01946 -0.00115533 0)
(1.01939 -0.00127446 -5.58859e-22)
(1.06562 -0.0380813 -2.66937e-21)
(1.06523 -0.038895 5.27979e-21)
(1.06475 -0.038043 1.50695e-21)
(1.01962 -0.000660484 9.64631e-22)
(1.01966 -0.000781522 0)
(1.01985 -0.000682447 -1.5426e-21)
(0.562682 -0.0532571 7.90169e-21)
(0.55223 -0.0368251 4.53719e-21)
(1.01958 0.00719572 3.40129e-22)
(1.02094 0.0103592 2.2931e-21)
(1.01748 0.00944177 2.03234e-21)
(1.00148 3.5462e-05 -1.40252e-22)
(1.00168 4.88122e-05 -1.92585e-22)
(1.00207 6.72305e-05 0)
(1.01477 -0.00428903 8.97465e-22)
(1.015 -0.00440521 0)
(1.01472 -0.00429619 -1.33346e-22)
(1.08218 -0.0506333 -6.86701e-21)
(1.08216 -0.0494144 -9.01658e-21)
(1.05056 -0.0271222 7.35025e-21)
(1.05146 -0.0269043 5.04208e-22)
(1.04034 -0.0129759 -4.00211e-21)
(1.04039 -0.0135785 -5.01846e-21)
(1.03975 -0.0132064 2.1133e-21)
(1.01936 4.70235e-05 -1.09343e-21)
(1.02115 -0.00870177 -1.99211e-21)
(1.02084 -0.00855298 -2.0067e-21)
(1.02697 -0.0103068 -4.81516e-22)
(1.02685 -0.00985902 -1.59299e-22)
(0.893172 -0.0647415 -4.32889e-22)
(0.899836 -0.097848 -1.77793e-21)
(0.42975 0.174185 -1.84227e-20)
(0.421352 0.139079 2.29595e-20)
(0.440208 -0.130598 -4.04402e-21)
(0.470309 -0.116449 0)
(0.431614 -0.117408 0)
(1.02825 -0.0193038 -8.46425e-22)
(1.02999 -0.0192164 -2.4615e-21)
(1.02921 -0.0209429 -6.06186e-22)
(0.737532 -0.0480608 -6.05392e-21)
(0.727382 -0.0471412 5.63613e-21)
(0.821289 0.0348482 -6.19854e-22)
(0.780344 0.0388794 -6.29205e-22)
(0.785263 0.0469021 -1.70597e-21)
(1.01885 -0.000526171 2.63941e-21)
(1.05706 -0.0321909 3.03679e-22)
(1.05631 -0.0317282 6.04926e-21)
(1.04977 -0.0343555 -5.37886e-21)
(1.04693 -0.0344997 -6.04874e-21)
(1.01318 -0.0242193 0)
(1.0157 -0.0274383 -9.26787e-22)
(1.01644 -0.0227078 0)
(1.03699 0.0242947 -8.30562e-21)
(1.03949 0.0183585 -2.3814e-21)
(1.03235 0.020137 3.00423e-21)
(1.06565 -0.0547131 -7.69402e-21)
(1.06501 -0.0534854 8.28822e-22)
(1.06628 -0.0536728 7.46981e-23)
(1.03237 -0.0482781 1.55919e-21)
(1.01466 -0.00547171 -4.91266e-22)
(1.01509 -0.00454278 -6.15893e-22)
(1.01554 -0.00559685 -1.04195e-21)
(0.891437 0.231414 -3.22871e-21)
(0.897725 0.232401 -3.87846e-21)
(0.892406 0.232724 -3.71583e-21)
(0.680298 -0.0488993 6.11432e-21)
(0.65048 -0.0453566 -1.9519e-21)
(0.656808 -0.04648 8.88977e-22)
(1.01865 -0.000334972 -4.43085e-21)
(1.01893 -0.000356407 -3.1725e-21)
(1.02353 -0.0295368 -5.63144e-21)
(1.02404 -0.0215349 2.97417e-22)
(1.02892 -0.0256304 -1.7106e-21)
(1.01774 -0.0380386 -3.51679e-22)
(1.0166 -0.0306476 -3.45984e-22)
(1.09147 -0.0351563 -3.04344e-22)
(1.10246 -0.0351975 -6.87688e-21)
(1.08425 -0.0262152 0)
(1.04034 -0.0124528 -1.59726e-22)
(1.041 -0.0128651 3.80592e-21)
(1.03523 0.0314149 2.15293e-21)
(1.04413 0.028649 5.12902e-23)
(-0.0846266 -0.190109 -1.45676e-20)
(-0.100708 -0.185385 2.30034e-20)
(1.01357 -0.00384791 0)
(1.01353 -0.00381926 0)
(0.885752 0.229454 7.37051e-21)
(0.889424 0.229029 -3.91975e-21)
(1.01459 -0.00415648 5.08088e-22)
(1.01484 -0.00427347 -1.79753e-22)
(1.01957 -0.000555441 3.10632e-21)