/*--------------------------------*- C++ -*----------------------------------*\
| =========                 |                                                 |
| \\      /  F ield         | OpenFOAM: The Open Source CFD Toolbox           |
|  \\    /   O peration     | Version:  v2012                                 |
|   \\  /    A nd           | Website:  www.openfoam.com                      |
|    \\/     M anipulation  |                                                 |
\*---------------------------------------------------------------------------*/
FoamFile
{
    version     2.0;
    format      ascii;
    class       pointVectorField;
    location    "950";
    object      pointDisplacement;
}
// * * * * * * * * * * * * * * * * * * * * * * * * * * * * * * * * * * * * * //

dimensions      [0 1 0 0 0 0 0];


internalField   nonuniform List<vector> 
14246
(
(0 0 0)
(-0 -0.0565587 -0)
(0 0 0)
(-0 -0.0565587 -0)
(0 0 0)
(0 0 0)
(0 0 0)
(0 0 0)
(0 0 0)
(0 0 0)
(0 0 0)
(0 0 0)
(0 0 0)
(0 0 0)
(0 0 0)
(0 0 0)
(0 0 0)
(0 0 0)
(0 0 0)
(0 0 0)
(0 0 0)
(0 0 0)
(0 0 0)
(0 0 0)
(0 0 0)
(0 0 0)
(0 0 0)
(0 0 0)
(0 0 0)
(0 0 0)
(0 0 0)
(0 0 0)
(0 0 0)
(0 0 0)
(0 0 0)
(0 0 0)
(0 0 0)
(0 0 0)
(0 0 0)
(0 0 0)
(0 0 0)
(0 0 0)
(0 0 0)
(0 0 0)
(0 0 0)
(0 0 0)
(0 0 0)
(0 0 0)
(0 0 0)
(0 0 0)
(0 0 0)
(0 0 0)
(0 0 0)
(0 0 0)
(0 0 0)
(0 0 0)
(0 0 0)
(0 0 0)
(0 0 0)
(0 0 0)
(0 0 0)
(0 0 0)
(0 0 0)
(0 0 0)
(0 0 0)
(0 0 0)
(0 0 0)
(0 0 0)
(0 0 0)
(0 0 0)
(0 0 0)
(0 0 0)
(0 0 0)
(0 0 0)
(0 0 0)
(-0 -0.0565587 -0)
(-0 -0.0565587 -0)
(-0 -0.0565587 -0)
(-0 -0.0565587 -0)
(-0 -0.0565587 -0)
(-0 -0.0565587 -0)
(-0 -0.0565587 -0)
(-0 -0.0565587 -0)
(-0 -0.0565587 -0)
(-0 -0.0565587 -0)
(-0 -0.0565587 -0)
(-0 -0.0565587 -0)
(-0 -0.0565587 -0)
(-0 -0.0565587 -0)
(-0 -0.0565587 -0)
(-0 -0.0565587 -0)
(-0 -0.0565587 -0)
(-0 -0.0565587 -0)
(-0 -0.0565587 -0)
(-0 -0.0565587 -0)
(-0 -0.0565587 -0)
(-0 -0.0565587 -0)
(-0 -0.0565587 -0)
(-0 -0.0565587 -0)
(-0 -0.0565587 -0)
(-0 -0.0565587 -0)
(-0 -0.0565587 -0)
(-0 -0.0565587 -0)
(-0 -0.0565587 -0)
(-0 -0.0565587 -0)
(-0 -0.0565587 -0)
(-0 -0.0565587 -0)
(-0 -0.0565587 -0)
(-0 -0.0565587 -0)
(-0 -0.0565587 -0)
(-0 -0.0565587 -0)
(-0 -0.0565587 -0)
(-0 -0.0565587 -0)
(-0 -0.0565587 -0)
(-0 -0.0565587 -0)
(-0 -0.0565587 -0)
(-0 -0.0565587 -0)
(-0 -0.0565587 -0)
(-0 -0.0565587 -0)
(-0 -0.0565587 -0)
(-0 -0.0565587 -0)
(-0 -0.0565587 -0)
(-0 -0.0565587 -0)
(-0 -0.0565587 -0)
(-0 -0.0565587 -0)
(-0 -0.0565587 -0)
(-0 -0.0565587 -0)
(-0 -0.0565587 -0)
(-0 -0.0565587 -0)
(-0 -0.0565587 -0)
(-0 -0.0565587 -0)
(-0 -0.0565587 -0)
(-0 -0.0565587 -0)
(-0 -0.0565587 -0)
(-0 -0.0565587 -0)
(-0 -0.0565587 -0)
(-0 -0.0565587 -0)
(-0 -0.0565587 -0)
(-0 -0.0565587 -0)
(-0 -0.0565587 -0)
(-0 -0.0565587 -0)
(-0 -0.0565587 -0)
(-0 -0.0565587 -0)
(-0 -0.0565587 -0)
(-0 -0.0565587 -0)
(-0 -0.0565587 -0)
(-0 -0.0565587 -0)
(-0 -0.0565587 -0)
(-0 -0.0565587 -0)
(-0 -0.0565587 -0)
(-0 -0.0565587 -0)
(-0 -0.0565587 -0)
(-0 -0.0565587 -0)
(-0 -0.0565587 -0)
(-0 -0.0565587 -0)
(-0 -0.0565587 -0)
(-0 -0.0565587 -0)
(-0 -0.0565587 -0)
(-0 -0.0565587 -0)
(-0 -0.0565587 -0)
(-0 -0.0565587 -0)
(-0 -0.0565587 -0)
(-0 -0.0565587 -0)
(-0 -0.0565587 -0)
(-0 -0.0565587 -0)
(-0 -0.0565587 -0)
(-0 -0.0565587 -0)
(-0 -0.0565587 -0)
(-0 -0.0565587 -0)
(-0 -0.0565587 -0)
(-0 -0.0565587 -0)
(-0 -0.0565587 -0)
(-0 -0.0565587 -0)
(-0 -0.0565587 -0)
(-0 -0.0565587 -0)
(-0 -0.0565587 -0)
(-0 -0.0565587 -0)
(-0 -0.0565587 -0)
(-0 -0.0565587 -0)
(-0 -0.0565587 -0)
(-0 -0.0565587 -0)
(-0 -0.0565587 -0)
(-0 -0.0565587 -0)
(-0 -0.0565587 -0)
(-0 -0.0565587 -0)
(-0 -0.0565587 -0)
(-0 -0.0565587 -0)
(-0 -0.0565587 -0)
(-0 -0.0565587 -0)
(-0 -0.0565587 -0)
(-0 -0.0565587 -0)
(-0 -0.0565587 -0)
(-0 -0.0565587 -0)
(-0 -0.0565587 -0)
(-0 -0.0565587 -0)
(-0 -0.0565587 -0)
(-0 -0.0565587 -0)
(-0 -0.0565587 -0)
(-0 -0.0565587 -0)
(-0 -0.0565587 -0)
(-0 -0.0565587 -0)
(-0 -0.0565587 -0)
(-0 -0.0565587 -0)
(-0 -0.0565587 -0)
(-0 -0.0565587 -0)
(-0 -0.0565587 -0)
(-0 -0.0565587 -0)
(-0 -0.0565587 -0)
(-0 -0.0565587 -0)
(-0 -0.0565587 -0)
(0 0 0)
(0 0 0)
(0 0 0)
(0 0 0)
(0 0 0)
(0 0 0)
(0 0 0)
(0 0 0)
(0 0 0)
(0 0 0)
(0 0 0)
(0 0 0)
(0 0 0)
(0 0 0)
(0 0 0)
(0 0 0)
(0 0 0)
(0 0 0)
(0 0 0)
(0 0 0)
(0 0 0)
(0 0 0)
(0 0 0)
(0 0 0)
(0 0 0)
(0 0 0)
(0 0 0)
(0 0 0)
(0 0 0)
(0 0 0)
(0 0 0)
(0 0 0)
(0 0 0)
(0 0 0)
(0 0 0)
(0 0 0)
(0 0 0)
(0 0 0)
(0 0 0)
(0 0 0)
(0 0 0)
(0 0 0)
(0 0 0)
(0 0 0)
(0 0 0)
(0 0 0)
(0 0 0)
(0 0 0)
(0 0 0)
(0 0 0)
(0 0 0)
(0 0 0)
(0 0 0)
(0 0 0)
(0 0 0)
(0 0 0)
(0 0 0)
(0 0 0)
(0 0 0)
(0 0 0)
(0 0 0)
(0 0 0)
(0 0 0)
(0 0 0)
(0 0 0)
(0 0 0)
(0 0 0)
(0 0 0)
(0 0 0)
(0 0 0)
(0 0 0)
(-0 -0.0565587 -0)
(-0 -0.0565587 -0)
(-0 -0.0565587 -0)
(-0 -0.0565587 -0)
(-0 -0.0565587 -0)
(-0 -0.0565587 -0)
(-0 -0.0565587 -0)
(-0 -0.0565587 -0)
(-0 -0.0565587 -0)
(-0 -0.0565587 -0)
(-0 -0.0565587 -0)
(-0 -0.0565587 -0)
(-0 -0.0565587 -0)
(-0 -0.0565587 -0)
(-0 -0.0565587 -0)
(-0 -0.0565587 -0)
(-0 -0.0565587 -0)
(-0 -0.0565587 -0)
(-0 -0.0565587 -0)
(-0 -0.0565587 -0)
(-0 -0.0565587 -0)
(-0 -0.0565587 -0)
(-0 -0.0565587 -0)
(-0 -0.0565587 -0)
(-0 -0.0565587 -0)
(-0 -0.0565587 -0)
(-0 -0.0565587 -0)
(-0 -0.0565587 -0)
(-0 -0.0565587 -0)
(-0 -0.0565587 -0)
(-0 -0.0565587 -0)
(-0 -0.0565587 -0)
(-0 -0.0565587 -0)
(-0 -0.0565587 -0)
(-0 -0.0565587 -0)
(-0 -0.0565587 -0)
(-0 -0.0565587 -0)
(-0 -0.0565587 -0)
(-0 -0.0565587 -0)
(-0 -0.0565587 -0)
(-0 -0.0565587 -0)
(-0 -0.0565587 -0)
(-0 -0.0565587 -0)
(-0 -0.0565587 -0)
(-0 -0.0565587 -0)
(-0 -0.0565587 -0)
(-0 -0.0565587 -0)
(-0 -0.0565587 -0)
(-0 -0.0565587 -0)
(-0 -0.0565587 -0)
(-0 -0.0565587 -0)
(-0 -0.0565587 -0)
(-0 -0.0565587 -0)
(-0 -0.0565587 -0)
(-0 -0.0565587 -0)
(-0 -0.0565587 -0)
(-0 -0.0565587 -0)
(-0 -0.0565587 -0)
(-0 -0.0565587 -0)
(-0 -0.0565587 -0)
(-0 -0.0565587 -0)
(-0 -0.0565587 -0)
(-0 -0.0565587 -0)
(-0 -0.0565587 -0)
(-0 -0.0565587 -0)
(-0 -0.0565587 -0)
(-0 -0.0565587 -0)
(-0 -0.0565587 -0)
(-0 -0.0565587 -0)
(-0 -0.0565587 -0)
(-0 -0.0565587 -0)
(-0 -0.0565587 -0)
(-0 -0.0565587 -0)
(-0 -0.0565587 -0)
(-0 -0.0565587 -0)
(-0 -0.0565587 -0)
(-0 -0.0565587 -0)
(-0 -0.0565587 -0)
(-0 -0.0565587 -0)
(-0 -0.0565587 -0)
(-0 -0.0565587 -0)
(-0 -0.0565587 -0)
(-0 -0.0565587 -0)
(-0 -0.0565587 -0)
(-0 -0.0565587 -0)
(-0 -0.0565587 -0)
(-0 -0.0565587 -0)
(-0 -0.0565587 -0)
(-0 -0.0565587 -0)
(-0 -0.0565587 -0)
(-0 -0.0565587 -0)
(-0 -0.0565587 -0)
(-0 -0.0565587 -0)
(-0 -0.0565587 -0)
(-0 -0.0565587 -0)
(-0 -0.0565587 -0)
(-0 -0.0565587 -0)
(-0 -0.0565587 -0)
(-0 -0.0565587 -0)
(-0 -0.0565587 -0)
(-0 -0.0565587 -0)
(-0 -0.0565587 -0)
(-0 -0.0565587 -0)
(-0 -0.0565587 -0)
(-0 -0.0565587 -0)
(-0 -0.0565587 -0)
(-0 -0.0565587 -0)
(-0 -0.0565587 -0)
(-0 -0.0565587 -0)
(-0 -0.0565587 -0)
(-0 -0.0565587 -0)
(-0 -0.0565587 -0)
(-0 -0.0565587 -0)
(-0 -0.0565587 -0)
(-0 -0.0565587 -0)
(-0 -0.0565587 -0)
(-0 -0.0565587 -0)
(-0 -0.0565587 -0)
(-0 -0.0565587 -0)
(-0 -0.0565587 -0)
(-0 -0.0565587 -0)
(-0 -0.0565587 -0)
(-0 -0.0565587 -0)
(-0 -0.0565587 -0)
(-0 -0.0565587 -0)
(-0 -0.0565587 -0)
(-0 -0.0565587 -0)
(-0 -0.0565587 -0)
(-0 -0.0565587 -0)
(-0 -0.0565587 -0)
(-0 -0.0565587 -0)
(-0 -0.0565587 -0)
(-0 -0.0565587 -0)
(-0 -0.0565587 -0)
(-0 -0.0565587 -0)
(0 -0.0565587 0)
(0 -0.0565586 0)
(0 -0.0565587 0)
(0 -0.0565587 0)
(0 -0.0565586 0)
(0 -0.0565586 0)
(0 -0.0565587 0)
(0 -0.0565586 0)
(0 -0.0565586 0)
(0 -0.0565587 0)
(0 -0.0565586 0)
(0 -0.0565587 0)
(0 -0.0565587 0)
(0 -0.0565586 0)
(0 -0.0565587 0)
(0 -0.056558 0)
(0 -0.00299687 0)
(0 -0.00338744 0)
(0 -0.00365389 0)
(0 -0.00454246 0)
(0 -0.00409343 0)
(0 -0.00487876 0)
(0 -0.00389156 0)
(0 -0.0565586 0)
(0 -0.00263966 0)
(0 -0.0026867 0)
(0 -0.00198455 0)
(0 -0.0565586 0)
(0 -0.0565587 0)
(0 -0.0565587 0)
(0 -0.0565586 0)
(0 -0.0565587 0)
(0 -0.0565586 0)
(0 -0.0565587 0)
(0 -0.0565587 0)
(0 -0.0565587 0)
(0 -0.0565585 0)
(0 -0.0565586 0)
(0 -0.0565586 0)
(0 -0.0565586 0)
(0 -0.0565587 0)
(0 -0.0020083 0)
(0 -0.00383332 0)
(0 -0.00366349 0)
(0 -0.00346994 0)
(0 -0.00121565 0)
(0 -0.0013969 0)
(0 -0.000778885 0)
(0 -0.00440716 0)
(0 -0.00442186 0)
(0 -0.00310768 0)
(0 -0.0036385 0)
(0 -0.00379002 0)
(0 -0.00295232 0)
(0 -0.00233335 0)
(0 -0.00254143 0)
(0 -0.00161223 0)
(0 -0.000822009 0)
(0 -0.000376595 0)
(0 -0.00422131 0)
(0 -0.00800503 0)
(0 -0.00782035 0)
(0 -0.0114188 0)
(0 -0.0111868 0)
(0 -0.0144945 0)
(0 -0.0142199 0)
(0 -0.0173311 0)
(0 -0.0169929 0)
(0 -0.0198816 0)
(0 -0.0194721 0)
(0 -0.022115 0)
(0 -0.0216489 0)
(0 -0.0241285 0)
(0 -0.0236099 0)
(0 -0.0259524 0)
(0 -0.0264969 0)
(0 -0.0281748 0)
(0 -0.0287122 0)
(0 -0.0302619 0)
(0 -0.0307752 0)
(0 -0.0322162 0)
(0 -0.0327097 0)
(0 -0.0340418 0)
(0 -0.0345485 0)
(0 -0.035747 0)
(0 -0.0362716 0)
(0 -0.0373422 0)
(0 -0.0378256 0)
(0 -0.0388155 0)
(0 -0.0392724 0)
(0 -0.0401916 0)
(0 -0.0406074 0)
(0 -0.0414888 0)
(0 -0.0418493 0)
(0 -0.04268 0)
(0 -0.0430272 0)
(0 -0.0437836 0)
(0 -0.0441171 0)
(0 -0.0448079 0)
(0 -0.0451315 0)
(0 -0.045769 0)
(0 -0.0460865 0)
(0 -0.0454367 0)
(0 -0.0463466 0)
(0 -0.046007 0)
(0 -0.0468725 0)
(0 -0.0465268 0)
(0 -0.0473561 0)
(0 -0.0470025 0)
(0 -0.0478042 0)
(0 -0.0474339 0)
(0 -0.048176 0)
(0 -0.0478346 0)
(0 -0.0485154 0)
(0 -0.0481831 0)
(0 -0.0488784 0)
(0 -0.0484958 0)
(0 -0.0492013 0)
(0 -0.0487957 0)
(0 -0.0494694 0)
(0 -0.0486423 0)
(0 -0.0490614 0)
(0 -0.049711 0)
(0 -0.049294 0)
(0 -0.0499254 0)
(0 -0.0495038 0)
(0 -0.0501216 0)
(0 -0.0496909 0)
(0 -0.0502872 0)
(0 -0.049062 0)
(0 -0.0498567 0)
(0 -0.0504166 0)
(0 -0.0499813 0)
(0 -0.0505288 0)
(0 -0.0500707 0)
(0 -0.0506005 0)
(0 -0.0501485 0)
(0 -0.0506676 0)
(0 -0.0502088 0)
(0 -0.0507318 0)
(0 -0.0502421 0)
(0 -0.0507628 0)
(0 -0.0497115 0)
(0 -0.0500923 0)
(0 -0.0502503 0)
(0 -0.0507645 0)
(0 -0.0502419 0)
(0 -0.0507412 0)
(0 -0.0512271 0)
(0 -0.051206 0)
(0 -0.0507162 0)
(0 -0.0511772 0)
(0 -0.0516432 0)
(0 -0.0516045 0)
(0 -0.0511326 0)
(0 -0.0515537 0)
(0 -0.0520022 0)
(0 -0.0519474 0)
(0 -0.0514918 0)
(0 -0.0518838 0)
(0 -0.0514219 0)
(0 -0.0518141 0)
(0 -0.0522452 0)
(0 -0.0521849 0)
(0 -0.0517418 0)
(0 -0.0521139 0)
(0 -0.0526037 0)
(0 -0.0524584 0)
(0 -0.0520361 0)
(0 -0.0523646 0)
(0 -0.0527865 0)
(0 -0.0526599 0)
(0 -0.052208 0)
(0 -0.0525739 0)
(0 -0.0529512 0)
(0 -0.0528752 0)
(0 -0.0524873 0)
(0 -0.0527827 0)
(0 -0.0523814 0)
(0 -0.0526811 0)
(0 -0.0530614 0)
(0 -0.0529618 0)
(0 -0.0525729 0)
(0 -0.0528566 0)
(0 -0.0524594 0)
(0 -0.0527465 0)
(0 -0.0531228 0)
(0 -0.0530141 0)
(0 -0.0526311 0)
(0 -0.0529006 0)
(0 -0.0532634 0)
(0 -0.0531519 0)
(0 -0.0527823 0)
(0 -0.0530368 0)
(0 -0.0526602 0)
(0 -0.0529195 0)
(0 -0.0532732 0)
(0 -0.0531593 0)
(0 -0.0528005 0)
(0 -0.0530415 0)
(0 -0.0533832 0)
(0 -0.0532692 0)
(0 -0.0529168 0)
(0 -0.0531484 0)
(0 -0.0527836 0)
(0 -0.0530177 0)
(0 -0.0526435 0)
(0 -0.05288 0)
(0 -0.0532359 0)
(0 -0.053101 0)
(0 -0.0527387 0)
(0 -0.0529644 0)
(0 -0.0533081 0)
(0 -0.0531759 0)
(0 -0.0528232 0)
(0 -0.0530365 0)
(0 -0.0526757 0)
(0 -0.0528916 0)
(0 -0.0297151 0)
(0 -0.0509395 0)
(0 -0.045433 0)
(0 -0.0463723 0)
(0 -0.0457135 0)
(0 -0.0466601 0)
(0 -0.0459816 0)
(0 -0.0477301 0)
(0 -0.0551993 0)
(0 -0.0553726 0)
(0 -0.0552497 0)
(0 -0.0554164 0)
(0 -0.0552873 0)
(0 -0.0554524 0)
(0 -0.0553179 0)
(0 -0.0554823 0)
(0 -0.0382877 0)
(0 -0.0553435 0)
(0 -0.0555012 0)
(0 -0.0550243 0)
(0 -0.0553605 0)
(0 -0.0555094 0)
(0 -0.0556059 0)
(0 -0.0553688 0)
(0 -0.0555133 0)
(0 -0.0551966 0)
(0 -0.0553702 0)
(0 -0.055511 0)
(0 -0.0556432 0)
(0 -0.0556372 0)
(0 -0.0555023 0)
(0 -0.0556252 0)
(0 -0.0554864 0)
(0 -0.0556062 0)
(0 -0.0557352 0)
(0 -0.0557139 0)
(0 -0.0368522 0)
(0 -0.0558333 0)
(0 -0.05581 0)
(0 -0.0556874 0)
(0 -0.055781 0)
(0 -0.0558944 0)
(0 -0.055864 0)
(0 -0.0557467 0)
(0 -0.0558289 0)
(0 -0.0559376 0)
(0 -0.0559016 0)
(0 -0.0560019 0)
(0 -0.0559648 0)
(0 -0.0558623 0)
(0 -0.0559254 0)
(0 -0.056019 0)
(0 -0.0559798 0)
(0 -0.0560663 0)
(0 -0.0560276 0)
(0 -0.0561067 0)
(0 -0.0560664 0)
(0 -0.0561406 0)
(0 -0.0560988 0)
(0 -0.0561699 0)
(0 -0.0561278 0)
(0 -0.0561945 0)
(0 -0.0561532 0)
(0 -0.0562155 0)
(0 -0.0561756 0)
(0 -0.0562335 0)
(0 -0.0561952 0)
(0 -0.0562487 0)
(0 -0.0562121 0)
(0 -0.0562635 0)
(0 -0.0562278 0)
(0 -0.0562766 0)
(0 -0.0562423 0)
(0 -0.0562873 0)
(0 -0.0562529 0)
(0 -0.0562963 0)
(0 -0.0562623 0)
(0 -0.0563036 0)
(0 -0.0562702 0)
(0 -0.0563098 0)
(0 -0.056276 0)
(0 -0.0563153 0)
(0 -0.0562823 0)
(0 -0.0563203 0)
(0 -0.0562876 0)
(0 -0.0563248 0)
(0 -0.0562919 0)
(0 -0.0563287 0)
(0 -0.0562957 0)
(0 -0.0563317 0)
(0 -0.0562999 0)
(0 -0.0563337 0)
(0 -0.0563027 0)
(0 -0.0563355 0)
(0 -0.0563039 0)
(0 -0.056337 0)
(0 -0.0563053 0)
(0 -0.0563383 0)
(0 -0.0563066 0)
(0 -0.0563393 0)
(0 -0.056308 0)
(0 -0.0563397 0)
(0 -0.0563085 0)
(0 -0.0563398 0)
(0 -0.0563086 0)
(0 -0.0563397 0)
(0 -0.0563083 0)
(0 -0.0563394 0)
(0 -0.0563076 0)
(0 -0.0563393 0)
(0 -0.0563072 0)
(0 -0.0563395 0)
(0 -0.0563064 0)
(0 -0.0563384 0)
(0 -0.0563056 0)
(0 -0.0563363 0)
(0 -0.0563036 0)
(0 -0.0563337 0)
(0 -0.0563009 0)
(0 -0.0563308 0)
(0 -0.0562981 0)
(0 -0.0563282 0)
(0 -0.0562931 0)
(0 -0.0563254 0)
(0 -0.0562896 0)
(0 -0.0563229 0)
(0 -0.0562889 0)
(0 -0.0563203 0)
(0 -0.0562865 0)
(0 -0.0563167 0)
(0 -0.0562823 0)
(0 -0.056313 0)
(0 -0.0562782 0)
(0 -0.056309 0)
(0 -0.0562741 0)
(0 -0.0563053 0)
(0 -0.0562708 0)
(0 -0.0563006 0)
(0 -0.0562653 0)
(0 -0.0562949 0)
(0 -0.0562599 0)
(0 -0.0562896 0)
(0 -0.0562547 0)
(0 -0.056284 0)
(0 -0.0562471 0)
(0 -0.0562779 0)
(0 -0.0562393 0)
(0 -0.0562715 0)
(0 -0.0562314 0)
(0 -0.0562638 0)
(0 -0.0562239 0)
(0 -0.0562556 0)
(0 -0.0562165 0)
(0 -0.0562479 0)
(0 -0.0562072 0)
(0 -0.0562393 0)
(0 -0.0561967 0)
(0 -0.0562301 0)
(0 -0.0561863 0)
(0 -0.0562202 0)
(0 -0.0562614 0)
(0 -0.0562518 0)
(0 -0.0562097 0)
(0 -0.0562419 0)
(0 -0.0563036 0)
(0 -0.0563262 0)
(0 -0.0563436 0)
(0 -0.0563541 0)
(0 -0.0563675 0)
(0 -0.0563672 0)
(0 -0.0562716 0)
(0 -0.056272 0)
(0 -0.0562608 0)
(0 -0.0562296 0)
(0 -0.0561753 0)
(0 -0.0563675 0)
(0 -0.0562505 0)
(0 -0.0562054 0)
(0 -0.056238 0)
(0 -0.0560511 0)
(0 -0.0563631 0)
(0 -0.0561622 0)
(0 -0.0558267 0)
(0 -0.0563493 0)
(0 -0.0563297 0)
(0 -0.0469114 0)
(0 -0.0462248 0)
(0 -0.0562672 0)
(0 -0.0562812 0)
(0 -0.0561777 0)
(0 -0.0471083 0)
(0 -0.0462989 0)
(0 -0.0472947 0)
(0 -0.046603 0)
(0 -0.047495 0)
(0 -0.0467765 0)
(0 -0.0458538 0)
(0 -0.0459442 0)
(0 -0.0449869 0)
(0 -0.0450732 0)
(0 -0.043983 0)
(0 -0.0441179 0)
(0 -0.0468984 0)
(0 -0.0479148 0)
(0 -0.0429339 0)
(0 -0.0430715 0)
(0 -0.0418368 0)
(0 -0.0419549 0)
(0 -0.0431773 0)
(0 -0.0420384 0)
(0 -0.0432461 0)
(0 -0.0407291 0)
(0 -0.0176481 0)
(0 -0.056443 0)
(0 -0.0564097 0)
(0 -0.0564269 0)
(0 -0.0564581 0)
(0 -0.0564429 0)
(0 -0.056472 0)
(0 -0.0564561 0)
(0 -0.0564829 0)
(0 -0.0564674 0)
(0 -0.0564911 0)
(0 -0.0564772 0)
(0 -0.0564975 0)
(0 -0.0564837 0)
(0 -0.0565018 0)
(0 -0.0564881 0)
(0 -0.0565048 0)
(0 -0.0564235 0)
(0 -0.0564906 0)
(0 -0.0565064 0)
(0 -0.0564684 0)
(0 -0.0461676 0)
(0 -0.0564911 0)
(0 -0.0565063 0)
(0 -0.0512275 0)
(0 -0.0331386 0)
(0 -0.0564903 0)
(0 -0.0565045 0)
(0 -0.056503 0)
(0 -0.0402938 0)
(0 -0.041697 0)
(0 -0.0408493 0)
(0 -0.0394071 0)
(0 -0.0399864 0)
(0 -0.0413904 0)
(0 -0.0405408 0)
(0 -0.0418981 0)
(0 -0.0410631 0)
(0 -0.0396456 0)
(0 -0.0401858 0)
(0 -0.0415606 0)
(0 -0.0407116 0)
(0 -0.0392561 0)
(0 -0.0398018 0)
(0 -0.0412216 0)
(0 -0.0403229 0)
(0 -0.0417076 0)
(0 -0.0408193 0)
(0 -0.0393773 0)
(0 -0.0398822 0)
(0 -0.0413013 0)
(0 -0.0403754 0)
(0 -0.0388933 0)
(0 -0.0393994 0)
(0 -0.0408788 0)
(0 -0.0399054 0)
(0 -0.0383811 0)
(0 -0.038881 0)
(0 -0.0403649 0)
(0 -0.0393552 0)
(0 -0.0378347 0)
(0 -0.0383241 0)
(0 -0.0397959 0)
(0 -0.0387782 0)
(0 -0.0402107 0)
(0 -0.0392167 0)
(0 -0.0377196 0)
(0 -0.0381716 0)
(0 -0.0396996 0)
(0 -0.0386201 0)
(0 -0.0370763 0)
(0 -0.0374775 0)
(0 -0.0388982 0)
(0 -0.0378214 0)
(0 -0.036329 0)
(0 -0.0366991 0)
(0 -0.0381484 0)
(0 -0.0370302 0)
(0 -0.0384468 0)
(0 -0.0373203 0)
(0 -0.0358499 0)
(0 -0.0361392 0)
(0 -0.0375673 0)
(0 -0.0363814 0)
(0 -0.0377704 0)
(0 -0.0365781 0)
(0 -0.0379061 0)
(0 -0.0366994 0)
(0 -0.0379132 0)
(0 -0.0367251 0)
(0 -0.0354283 0)
(0 -0.0354852 0)
(0 -0.0367553 0)
(0 -0.0354893 0)
(0 -0.0367297 0)
(0 -0.0354312 0)
(0 -0.0366546 0)
(0 -0.0353232 0)
(0 -0.036543 0)
(0 -0.0351389 0)
(0 -0.0338988 0)
(0 -0.0336663 0)
(0 -0.0324031 0)
(0 -0.0321239 0)
(0 -0.0308335 0)
(0 -0.0305184 0)
(0 -0.0291875 0)
(0 -0.0288532 0)
(0 -0.0346026 0)
(0 -0.0363362 0)
(0 -0.0274823 0)
(0 -0.0271221 0)
(0 -0.0277517 0)
(0 -0.0257469 0)
(0 -0.0253443 0)
(0 -0.0266601 0)
(0 -0.0239735 0)
(0 -0.0248329 0)
(0 -0.026107 0)
(0 -0.0390078 0)
(0 -0.0379433 0)
(0 -0.0241957 0)
(0 -0.0253892 0)
(0 -0.0535028 0)
(0 -0.0535939 0)
(0 -0.0523922 0)
(0 -0.0522879 0)
(0 -0.0565147 0)
(0 -0.0565222 0)
(0 -0.0565166 0)
(0 -0.0565237 0)
(0 -0.0565181 0)
(0 -0.0565251 0)
(0 -0.0565194 0)
(0 -0.0565263 0)
(0 -0.0565208 0)
(0 -0.0565275 0)
(0 -0.0565221 0)
(0 -0.0565286 0)
(0 -0.0565233 0)
(0 -0.0565296 0)
(0 -0.0565245 0)
(0 -0.0565306 0)
(0 -0.0565256 0)
(0 -0.0565315 0)
(0 -0.0565266 0)
(0 -0.0565324 0)
(0 -0.0565276 0)
(0 -0.0565333 0)
(0 -0.0565286 0)
(0 -0.056534 0)
(0 -0.0565294 0)
(0 -0.0565346 0)
(0 -0.0565302 0)
(0 -0.0565354 0)
(0 -0.056531 0)
(0 -0.056536 0)
(0 -0.0565319 0)
(0 -0.0565366 0)
(0 -0.0565325 0)
(0 -0.0565371 0)
(0 -0.0565331 0)
(0 -0.0565377 0)
(0 -0.0565337 0)
(0 -0.0565382 0)
(0 -0.0565342 0)
(0 -0.0565386 0)
(0 -0.0565346 0)
(0 -0.0565391 0)
(0 -0.056535 0)
(0 -0.0565395 0)
(0 -0.0565356 0)
(0 -0.0565399 0)
(0 -0.0565366 0)
(0 -0.0565404 0)
(0 -0.0565371 0)
(0 -0.0565409 0)
(0 -0.0565375 0)
(0 -0.0565412 0)
(0 -0.0565378 0)
(0 -0.0565416 0)
(0 -0.0565382 0)
(0 -0.0565419 0)
(0 -0.0565385 0)
(0 -0.0565423 0)
(0 -0.0565389 0)
(0 -0.0565426 0)
(0 -0.0565392 0)
(0 -0.0565429 0)
(0 -0.0565395 0)
(0 -0.0565432 0)
(0 -0.0565399 0)
(0 -0.0565434 0)
(0 -0.0565402 0)
(0 -0.0565437 0)
(0 -0.0565404 0)
(0 -0.0565439 0)
(0 -0.0565405 0)
(0 -0.0565442 0)
(0 -0.0565407 0)
(0 -0.0565444 0)
(0 -0.056541 0)
(0 -0.0565446 0)
(0 -0.0565415 0)
(0 -0.0565448 0)
(0 -0.0565419 0)
(0 -0.0565451 0)
(0 -0.0565422 0)
(0 -0.0565453 0)
(0 -0.0565424 0)
(0 -0.0565455 0)
(0 -0.0565425 0)
(0 -0.0565457 0)
(0 -0.0565427 0)
(0 -0.0565459 0)
(0 -0.0565429 0)
(0 -0.056546 0)
(0 -0.0565432 0)
(0 -0.0565462 0)
(0 -0.0565433 0)
(0 -0.0565322 0)
(0 -0.0565463 0)
(0 -0.0565434 0)
(0 -0.0565465 0)
(0 -0.0565435 0)
(0 -0.0565466 0)
(0 -0.0565435 0)
(0 -0.0565366 0)
(0 -0.0565467 0)
(0 -0.0565436 0)
(0 -0.0565468 0)
(0 -0.0565437 0)
(0 -0.0565469 0)
(0 -0.0565438 0)
(0 -0.0565404 0)
(0 -0.0565469 0)
(0 -0.0565439 0)
(0 -0.0565469 0)
(0 -0.056544 0)
(0 -0.0565469 0)
(0 -0.0565439 0)
(0 -0.0565418 0)
(0 -0.056547 0)
(0 -0.0565439 0)
(0 -0.0565471 0)
(0 -0.0565439 0)
(0 -0.0565429 0)
(0 -0.0565472 0)
(0 -0.0565437 0)
(0 -0.0565471 0)
(0 -0.0565437 0)
(0 -0.0565471 0)
(0 -0.0565437 0)
(0 -0.0565449 0)
(0 -0.0565471 0)
(0 -0.0565438 0)
(0 -0.056547 0)
(0 -0.0565437 0)
(0 -0.056547 0)
(0 -0.0565435 0)
(0 -0.0565246 0)
(0 -0.0565338 0)
(0 -0.0565142 0)
(0 -0.0565397 0)
(0 -0.0565382 0)
(0 -0.0565356 0)
(0 -0.0565466 0)
(0 -0.0565293 0)
(0 -0.0565469 0)
(0 -0.0565434 0)
(0 -0.05654 0)
(0 -0.0565468 0)
(0 -0.0565432 0)
(0 -0.0565466 0)
(0 -0.0565428 0)
(0 -0.0565395 0)
(0 -0.0565396 0)
(0 -0.0565471 0)
(0 -0.0565464 0)
(0 -0.0565424 0)
(0 -0.0565198 0)
(0 -0.0565083 0)
(0 -0.0565477 0)
(0 -0.0565461 0)
(0 -0.0565419 0)
(0 -0.0565456 0)
(0 -0.0565413 0)
(0 -0.0565484 0)
(0 -0.056545 0)
(0 -0.0565406 0)
(0 -0.0565488 0)
(0 -0.0565365 0)
(0 -0.0565447 0)
(0 -0.0565399 0)
(0 -0.0565496 0)
(0 -0.0565443 0)
(0 -0.0565389 0)
(0 -0.0565497 0)
(0 -0.0565435 0)
(0 -0.0565496 0)
(0 -0.0565498 0)
(0 -0.0234165 0)
(0 -0.0222834 0)
(0 -0.0494887 0)
(0 -0.0565272 0)
(0 -0.0244839 0)
(0 -0.0265066 0)
(0 -0.0565322 0)
(0 -0.0565497 0)
(0 -0.0565346 0)
(0 -0.0565361 0)
(0 -0.056539 0)
(0 -0.0565399 0)
(0 -0.0565396 0)
(0 -0.0565402 0)
(0 -0.0564881 0)
(0 -0.0564716 0)
(0 -0.0554192 0)
(0 -0.0553217 0)
(0 -0.0554494 0)
(0 -0.0553538 0)
(0 -0.0554778 0)
(0 -0.0553864 0)
(0 -0.0555054 0)
(0 -0.0554105 0)
(0 -0.0555278 0)
(0 -0.055425 0)
(0 -0.0555462 0)
(0 -0.0554459 0)
(0 -0.0555656 0)
(0 -0.0554728 0)
(0 -0.0555847 0)
(0 -0.0554979 0)
(0 -0.0556017 0)
(0 -0.0555128 0)
(0 -0.0556164 0)
(0 -0.0555213 0)
(0 -0.0556256 0)
(0 -0.0555336 0)
(0 -0.0556353 0)
(0 -0.0555452 0)
(0 -0.0556495 0)
(0 -0.0555559 0)
(0 -0.0556613 0)
(0 -0.0555656 0)
(0 -0.0554514 0)
(0 -0.0554617 0)
(0 -0.0555749 0)
(0 -0.0554735 0)
(0 -0.0555833 0)
(0 -0.0554815 0)
(0 -0.0555897 0)
(0 -0.0554816 0)
(0 -0.0555943 0)
(0 -0.0554849 0)
(0 -0.0555979 0)
(0 -0.0554927 0)
(0 -0.0555996 0)
(0 -0.0554898 0)
(0 -0.0555992 0)
(0 -0.0554874 0)
(0 -0.0555982 0)
(0 -0.0554925 0)
(0 -0.0555962 0)
(0 -0.0554859 0)
(0 -0.0555911 0)
(0 -0.0554732 0)
(0 -0.0555836 0)
(0 -0.0554683 0)
(0 -0.0555752 0)
(0 -0.05546 0)
(0 -0.0555657 0)
(0 -0.0554507 0)
(0 -0.0555538 0)
(0 -0.0554349 0)
(0 -0.0555383 0)
(0 -0.05541 0)
(0 -0.0555197 0)
(0 -0.055388 0)
(0 -0.0552692 0)
(0 -0.0552434 0)
(0 -0.0553642 0)
(0 -0.0552162 0)
(0 -0.0553378 0)
(0 -0.0551843 0)
(0 -0.0553072 0)
(0 -0.0551482 0)
(0 -0.0552723 0)
(0 -0.0551081 0)
(0 -0.0552331 0)
(0 -0.0550634 0)
(0 -0.055189 0)
(0 -0.0550124 0)
(0 -0.0553376 0)
(0 -0.05514 0)
(0 -0.0549555 0)
(0 -0.0553972 0)
(0 -0.0549779 0)
(0 -0.05542 0)
(0 -0.0553866 0)
(0 -0.055304 0)
(0 -0.0548172 0)
(0 -0.0547521 0)
(0 -0.0548929 0)
(0 -0.0546808 0)
(0 -0.0548241 0)
(0 -0.0545998 0)
(0 -0.0547423 0)
(0 -0.0545028 0)
(0 -0.0546317 0)
(0 -0.0543904 0)
(0 -0.0545194 0)
(0 -0.0553249 0)
(0 -0.0553744 0)
(0 -0.0553366 0)
(0 -0.0550948 0)
(0 -0.0565336 0)
(0 -0.0565321 0)
(0 -0.0565257 0)
(0 -0.0565237 0)
(0 -0.0565496 0)
(0 -0.0542697 0)
(0 -0.0544092 0)
(0 -0.0565158 0)
(0 -0.0565136 0)
(0 -0.0541365 0)
(0 -0.0542739 0)
(0 -0.0565556 0)
(0 -0.0565546 0)
(0 -0.0565558 0)
(0 -0.0565548 0)
(0 -0.0565559 0)
(0 -0.0565551 0)
(0 -0.0565561 0)
(0 -0.0565552 0)
(0 -0.0565562 0)
(0 -0.0565554 0)
(0 -0.0565564 0)
(0 -0.0565556 0)
(0 -0.0565565 0)
(0 -0.0565557 0)
(0 -0.0565566 0)
(0 -0.0565558 0)
(0 -0.0565567 0)
(0 -0.056556 0)
(0 -0.0565568 0)
(0 -0.0565562 0)
(0 -0.0539852 0)
(0 -0.0541205 0)
(0 -0.0538179 0)
(0 -0.0539507 0)
(0 -0.0214473 0)
(0 -0.0203409 0)
(0 -0.0255154 0)
(0 -0.0275199 0)
(0 -0.0543701 0)
(0 -0.0341074 0)
(0 -0.0565569 0)
(0 -0.0565563 0)
(0 -0.0565493 0)
(0 -0.056557 0)
(0 -0.0565564 0)
(0 -0.0565571 0)
(0 -0.0565565 0)
(0 -0.0416644 0)
(0 -0.0565183 0)
(0 -0.0565571 0)
(0 -0.0565566 0)
(0 -0.054604 0)
(0 -0.0564687 0)
(0 -0.0564494 0)
(0 -0.0410962 0)
(0 -0.0565549 0)
(0 -0.0565162 0)
(0 -0.0565572 0)
(0 -0.0565567 0)
(0 -0.0565559 0)
(0 -0.0565561 0)
(0 -0.0565568 0)
(0 -0.0565562 0)
(0 -0.0565569 0)
(0 -0.0565563 0)
(0 -0.056557 0)
(0 -0.0565564 0)
(0 -0.0565571 0)
(0 -0.0565566 0)
(0 -0.0565572 0)
(0 -0.0565567 0)
(0 -0.0565573 0)
(0 -0.0565568 0)
(0 -0.0542442 0)
(0 -0.0540711 0)
(0 -0.0537666 0)
(0 -0.0538845 0)
(0 -0.055217 0)
(0 -0.0565573 0)
(0 -0.0565569 0)
(0 -0.0565574 0)
(0 -0.0565569 0)
(0 -0.0541802 0)
(0 -0.053992 0)
(0 -0.053681 0)
(0 -0.0537852 0)
(0 -0.0534556 0)
(0 -0.0535558 0)
(0 -0.0532064 0)
(0 -0.0533012 0)
(0 -0.0536508 0)
(0 -0.0533885 0)
(0 -0.0530218 0)
(0 -0.0530985 0)
(0 -0.0534597 0)
(0 -0.0531637 0)
(0 -0.0535232 0)
(0 -0.0532183 0)
(0 -0.0528458 0)
(0 -0.0528903 0)
(0 -0.0524978 0)
(0 -0.0525296 0)
(0 -0.0529161 0)
(0 -0.0525396 0)
(0 -0.0529265 0)
(0 -0.0525377 0)
(0 -0.05292 0)
(0 -0.0525047 0)
(0 -0.0528939 0)
(0 -0.052464 0)
(0 -0.0528572 0)
(0 -0.0524318 0)
(0 -0.0528087 0)
(0 -0.0523676 0)
(0 -0.0527374 0)
(0 -0.0522814 0)
(0 -0.0521168 0)
(0 -0.0526432 0)
(0 -0.0521814 0)
(0 -0.0525275 0)
(0 -0.0520419 0)
(0 -0.0523857 0)
(0 -0.0518807 0)
(0 -0.0565487 0)
(0 -0.0565534 0)
(0 -0.0565575 0)
(0 -0.056557 0)
(0 -0.0565038 0)
(0 -0.0565016 0)
(0 -0.026532 0)
(0 -0.0285214 0)
(0 -0.0243404 0)
(0 -0.0194564 0)
(0 -0.0183819 0)
(0 -0.0554539 0)
(0 -0.0562902 0)
(0 -0.0549705 0)
(0 -0.0565575 0)
(0 -0.0565571 0)
(0 -0.0565576 0)
(0 -0.0565572 0)
(0 -0.0565576 0)
(0 -0.0565572 0)
(0 -0.0565566 0)
(0 -0.0565567 0)
(0 -0.0565573 0)
(0 -0.0565568 0)
(0 -0.0565574 0)
(0 -0.0565569 0)
(0 -0.0565575 0)
(0 -0.056557 0)
(0 -0.0565576 0)
(0 -0.0565571 0)
(0 -0.0556983 0)
(0 -0.0556864 0)
(0 -0.0557004 0)
(0 -0.0565551 0)
(0 -0.0565576 0)
(0 -0.0565572 0)
(0 -0.0565577 0)
(0 -0.0565573 0)
(0 -0.0565561 0)
(0 -0.0565577 0)
(0 -0.0565573 0)
(0 -0.0565566 0)
(0 -0.0421318 0)
(0 -0.0520777 0)
(0 -0.0565068 0)
(0 -0.0556755 0)
(0 -0.0539909 0)
(0 -0.0542789 0)
(0 -0.0553077 0)
(0 -0.0556384 0)
(0 -0.0565554 0)
(0 -0.0516748 0)
(0 -0.0565566 0)
(0 -0.0555385 0)
(0 -0.0564931 0)
(0 -0.0564967 0)
(0 -0.0565544 0)
(0 -0.0565226 0)
(0 -0.0564456 0)
(0 -0.056423 0)
(0 -0.0565578 0)
(0 -0.0565574 0)
(0 -0.0275788 0)
(0 -0.0295813 0)
(0 -0.0531 0)
(0 -0.0556565 0)
(0 -0.0565564 0)
(0 -0.0557469 0)
(0 -0.0532759 0)
(0 -0.0565578 0)
(0 -0.0565574 0)
(0 -0.0565578 0)
(0 -0.0565575 0)
(0 -0.056557 0)
(0 -0.0565571 0)
(0 -0.0565576 0)
(0 -0.0565572 0)
(0 -0.0565576 0)
(0 -0.0565573 0)
(0 -0.0565577 0)
(0 -0.0565573 0)
(0 -0.0565578 0)
(0 -0.0565574 0)
(0 -0.0565566 0)
(0 -0.0557202 0)
(0 -0.0565571 0)
(0 -0.0174443 0)
(0 -0.0164127 0)
(0 -0.0172559 0)
(0 -0.0153318 0)
(0 -0.0160722 0)
(0 -0.0141849 0)
(0 -0.0148125 0)
(0 -0.0129747 0)
(0 -0.013471 0)
(0 -0.0565578 0)
(0 -0.0565575 0)
(0 -0.0565579 0)
(0 -0.0565575 0)
(0 -0.0546692 0)
(0 -0.056558 0)
(0 -0.0565576 0)
(0 -0.0565571 0)
(0 -0.0565572 0)
(0 -0.0565576 0)
(0 -0.0565573 0)
(0 -0.0565577 0)
(0 -0.0565574 0)
(0 -0.0565578 0)
(0 -0.0565574 0)
(0 -0.0565556 0)
(0 -0.0565573 0)
(0 -0.0211678 0)
(0 -0.0303837 0)
(0 -0.031331 0)
(0 -0.0564808 0)
(0 -0.0564849 0)
(0 -0.0520748 0)
(0 -0.056556 0)
(0 -0.0117028 0)
(0 -0.0565579 0)
(0 -0.0565575 0)
(0 -0.0565579 0)
(0 -0.0565576 0)
(0 -0.056558 0)
(0 -0.0565576 0)
(0 -0.0565571 0)
(0 -0.0452998 0)
(0 -0.0514929 0)
(0 -0.0472423 0)
(0 -0.0531435 0)
(0 -0.0565576 0)
(0 -0.0519687 0)
(0 -0.0321505 0)
(0 -0.0330625 0)
(0 -0.0230843 0)
(0 -0.0206461 0)
(0 -0.056558 0)
(0 -0.0565577 0)
(0 -0.0565568 0)
(0 -0.0565565 0)
(0 -0.0120652 0)
(0 -0.0138108 0)
(0 -0.0565578 0)
(0 -0.0565576 0)
(0 -0.0565578 0)
(0 -0.033837 0)
(0 -0.0347349 0)
(0 -0.0354401 0)
(0 -0.0363165 0)
(0 -0.0369588 0)
(0 -0.0378184 0)
(0 -0.0383912 0)
(0 -0.0392266 0)
(0 -0.0397398 0)
(0 -0.0405366 0)
(0 -0.0410157 0)
(0 -0.0400261 0)
(0 -0.0355958 0)
(0 -0.0417721 0)
(0 -0.0422146 0)
(0 -0.0122829 0)
(0 -0.056516 0)
(0 -0.0565274 0)
(0 -0.0481712 0)
(0 -0.0489048 0)
(0 -0.0484997 0)
(0 -0.0492173 0)
(0 -0.0488065 0)
(0 -0.0480582 0)
(0 -0.0483751 0)
(0 -0.0490906 0)
(0 -0.04868 0)
(0 -0.0479133 0)
(0 -0.0482303 0)
(0 -0.0489765 0)
(0 -0.0485337 0)
(0 -0.0492555 0)
(0 -0.0488202 0)
(0 -0.0480593 0)
(0 -0.0483517 0)
(0 -0.0490941 0)
(0 -0.0486325 0)
(0 -0.0493555 0)
(0 -0.0489056 0)
(0 -0.048152 0)
(0 -0.0484319 0)
(0 -0.0491463 0)
(0 -0.0486626 0)
(0 -0.0478164 0)
(0 -0.0481802 0)
(0 -0.0488835 0)
(0 -0.0484285 0)
(0 -0.0477013 0)
(0 -0.0479496 0)
(0 -0.0487291 0)
(0 -0.0481818 0)
(0 -0.0474219 0)
(0 -0.0476498 0)
(0 -0.0484609 0)
(0 -0.0478645 0)
(0 -0.046956 0)
(0 -0.0473069 0)
(0 -0.0480751 0)
(0 -0.0475319 0)
(0 -0.0467095 0)
(0 -0.0469336 0)
(0 -0.0477441 0)
(0 -0.0471626 0)
(0 -0.0462762 0)
(0 -0.0465279 0)
(0 -0.0473751 0)
(0 -0.0467449 0)
(0 -0.0458576 0)
(0 -0.0460706 0)
(0 -0.046933 0)
(0 -0.0462552 0)
(0 -0.0528231 0)
(0 -0.015386 0)
(0 -0.0163577 0)
(0 -0.0516275 0)
(0 -0.0512011 0)
(0 -0.0273748 0)
(0 -0.0297495 0)
(0 -0.0273338 0)
(0 -0.0296913 0)
(0 -0.0272523 0)
(0 -0.0295911 0)
(0 -0.0271747 0)
(0 -0.0297466 0)
(0 -0.0270787 0)
(0 -0.0291834 0)
(0 -0.0252152 0)
(0 -0.027748 0)
(0 -0.0261241 0)
(0 -0.0285984 0)
(0 -0.0270189 0)
(0 -0.0244344 0)
(0 -0.0253657 0)
(0 -0.027881 0)
(0 -0.0262565 0)
(0 -0.0564184 0)
(0 -0.0563924 0)
(0 -0.0563962 0)
(0 -0.0564407 0)
(0 -0.0268774 0)
(0 -0.0564669 0)
(0 -0.0564712 0)
(0 -0.0564623 0)
(0 -0.0565581 0)
(0 -0.0565578 0)
(0 -0.0565573 0)
(0 -0.0565574 0)
(0 -0.0565578 0)
(0 -0.0565575 0)
(0 -0.0565579 0)
(0 -0.0565575 0)
(0 -0.0565579 0)
(0 -0.0565576 0)
(0 -0.056558 0)
(0 -0.0565577 0)
(0 -0.0565581 0)
(0 -0.0565578 0)
(0 -0.0565573 0)
(0 -0.0565574 0)
(0 -0.0565578 0)
(0 -0.0565574 0)
(0 -0.0565579 0)
(0 -0.0565575 0)
(0 -0.0565579 0)
(0 -0.0565576 0)
(0 -0.056558 0)
(0 -0.0565577 0)
(0 -0.0565569 0)
(0 -0.0287024 0)
(0 -0.0271004 0)
(0 -0.024543 0)
(0 -0.0254204 0)
(0 -0.0279279 0)
(0 -0.0262854 0)
(0 -0.0429266 0)
(0 -0.0433232 0)
(0 -0.0426534 0)
(0 -0.0436885 0)
(0 -0.0430099 0)
(0 -0.0440117 0)
(0 -0.043266 0)
(0 -0.0442747 0)
(0 -0.0435047 0)
(0 -0.0444761 0)
(0 -0.0436897 0)
(0 -0.0446158 0)
(0 -0.0438268 0)
(0 -0.044697 0)
(0 -0.0439259 0)
(0 -0.0448273 0)
(0 -0.0470916 0)
(0 -0.0464161 0)
(0 -0.0455367 0)
(0 -0.0236528 0)
(0 -0.0245628 0)
(0 -0.0271225 0)
(0 -0.0254393 0)
(0 -0.0289871 0)
(0 -0.0310806 0)
(0 -0.0122878 0)
(0 -0.0140053 0)
(0 -0.0305057 0)
(0 -0.056558 0)
(0 -0.0563616 0)
(0 -0.056364 0)
(0 -0.056558 0)
(0 -0.0279225 0)
(0 -0.0262795 0)
(0 -0.0236989 0)
(0 -0.0245949 0)
(0 -0.0270819 0)
(0 -0.0254339 0)
(0 -0.0565572 0)
(0 -0.0565573 0)
(0 -0.0565578 0)
(0 -0.0565574 0)
(0 -0.0565578 0)
(0 -0.0565575 0)
(0 -0.0565579 0)
(0 -0.0565575 0)
(0 -0.056558 0)
(0 -0.0565576 0)
(0 -0.056558 0)
(0 -0.0565577 0)
(0 -0.0278255 0)
(0 -0.0261892 0)
(0 -0.0237152 0)
(0 -0.0244936 0)
(0 -0.0268931 0)
(0 -0.0252027 0)
(0 -0.0227129 0)
(0 -0.0234952 0)
(0 -0.0258708 0)
(0 -0.0242521 0)
(0 -0.0564123 0)
(0 -0.0564343 0)
(0 -0.0225343 0)
(0 -0.0201023 0)
(0 -0.0103876 0)
(0 -0.056558 0)
(0 -0.0565251 0)
(0 -0.0565346 0)
(0 -0.0565366 0)
(0 -0.0565423 0)
(0 -0.0565444 0)
(0 -0.0565402 0)
(0 -0.0565463 0)
(0 -0.0565443 0)
(0 -0.0565492 0)
(0 -0.0217058 0)
(0 -0.0225178 0)
(0 -0.0249848 0)
(0 -0.0232765 0)
(0 -0.0564883 0)
(0 -0.0564751 0)
(0 -0.056491 0)
(0 -0.0564785 0)
(0 -0.0565581 0)
(0 -0.0565581 0)
(0 -0.0565578 0)
(0 -0.0565573 0)
(0 -0.0565574 0)
(0 -0.0565579 0)
(0 -0.0565575 0)
(0 -0.056558 0)
(0 -0.0565576 0)
(0 -0.056558 0)
(0 -0.0565577 0)
(0 -0.0256515 0)
(0 -0.0239701 0)