/*--------------------------------*- C++ -*----------------------------------*\
| =========                 |                                                 |
| \\      /  F ield         | OpenFOAM: The Open Source CFD Toolbox           |
|  \\    /   O peration     | Version:  v2012                                 |
|   \\  /    A nd           | Website:  www.openfoam.com                      |
|    \\/     M anipulation  |                                                 |
\*---------------------------------------------------------------------------*/
FoamFile
{
    version     2.0;
    format      ascii;
    class       volVectorField;
    location    "800";
    object      ddt0(U);
}
// * * * * * * * * * * * * * * * * * * * * * * * * * * * * * * * * * * * * * //

dimensions      [0 1 -2 0 0 0 0];


internalField   nonuniform List<vector> 
13851
(
(0.00324384 0.00112666 1.45234e-17)
(0.000234231 3.96773e-06 -2.06416e-17)
(0.000235619 6.46687e-06 5.25232e-18)
(-0.00187198 -0.00364535 -3.15679e-17)
(0.000201573 -3.70133e-06 -5.2107e-19)
(0.000239103 -1.2525e-05 1.16181e-17)
(8.24085e-05 0.000222565 -4.70067e-18)
(0.000408797 7.91056e-07 -3.15958e-19)
(-0.00690904 -0.00243793 -6.84593e-19)
(4.83463e-05 -4.24969e-05 2.58161e-18)
(0.000144279 2.55059e-05 2.23417e-17)
(9.44975e-05 -6.8554e-05 -4.2373e-19)
(6.03615e-05 -9.0363e-05 -5.37733e-18)
(-0.00658748 -0.000230464 -3.17576e-18)
(0.000568488 0.000134615 5.78669e-18)
(-0.00226669 0.00448502 -2.02085e-20)
(0.00199973 -5.50028e-05 -2.34729e-17)
(0.000194922 4.52482e-05 4.00461e-18)
(-0.00497841 -0.0114657 -2.69919e-17)
(0.00334248 0.000806715 -1.11399e-17)
(0.000637071 -9.52755e-05 3.60355e-19)
(0.000223386 -1.28216e-05 5.34954e-19)
(0.00210805 0.00313808 -8.14185e-17)
(3.69202e-05 2.49308e-06 4.13127e-19)
(-0.000728559 0.00862137 -9.87931e-18)
(-0.000273503 0.00125008 3.84284e-17)
(0.00700977 -0.00259014 1.09577e-17)
(-0.0142311 -0.0146126 -3.10861e-17)
(-0.00440023 0.00749079 -2.4977e-18)
(0.0002356 2.30303e-05 2.50787e-18)
(-0.00208249 0.00533216 -8.91939e-17)
(9.28954e-05 0.000211705 3.04196e-18)
(0.00231803 0.00141113 2.36936e-18)
(-0.00324862 0.00227945 -2.44581e-18)
(0.000176482 2.05284e-05 -5.36969e-18)
(-0.00056754 0.0084028 1.47523e-17)
(1.53287e-05 2.47728e-06 -4.52636e-19)
(0.0108738 0.00582015 4.1112e-17)
(-0.00380831 0.00556176 -3.38708e-17)
(0.000159698 -0.000125078 2.34174e-18)
(-0.00487973 -0.00420124 1.19544e-17)
(-0.00461893 0.00838733 -3.22597e-18)
(-0.00197777 0.00037078 -7.95584e-17)
(-0.000340571 -0.00178313 3.59879e-17)
(-0.00735065 0.00662427 1.65794e-17)
(0.000179826 -7.13707e-05 -1.3521e-18)
(0.00041176 4.85813e-06 1.41126e-19)
(0.00123193 0.00386625 -1.19537e-17)
(0.000205362 2.22675e-05 -1.91404e-18)
(4.71746e-05 -8.61112e-05 9.27876e-20)
(0.00835008 0.000507132 2.66585e-17)
(5.0434e-05 -0.000119283 -2.4011e-17)
(-0.00174917 0.0044887 -1.98979e-18)
(0.000160634 0.000420071 6.09142e-18)
(-0.00964842 -0.000390426 -7.54761e-18)
(0.00016516 -0.000128206 -2.07128e-18)
(0.00249177 0.0015155 -1.26355e-17)
(-0.00391712 -0.00416 -1.26163e-17)
(0.00992971 0.00913024 -4.18472e-17)
(-0.00556948 -0.000147546 1.40695e-17)
(9.73671e-05 -7.32923e-05 -2.74525e-19)
(0.00538636 -0.00156694 1.46504e-17)
(2.50691e-05 -0.000133607 -1.33271e-18)
(0.000214507 2.28753e-05 2.51712e-19)
(-5.07147e-05 -0.000552576 -5.71667e-18)
(-9.57748e-05 -0.00051977 -9.11277e-20)
(-0.00583884 -6.06273e-05 -3.06564e-17)
(3.71326e-05 -0.00032864 4.95231e-17)
(0.000185647 -6.0755e-05 -3.59793e-19)
(-0.00627166 -0.0019314 -4.21025e-17)
(0.00243497 0.00220646 -1.41979e-16)
(0.000788288 -0.000267885 1.51119e-17)
(0.000111233 -7.63776e-05 -1.78766e-18)
(-0.00586545 -5.06963e-05 -1.25305e-18)
(0.000271607 0.000399378 1.09357e-17)
(0.000199058 -5.53944e-05 5.35975e-19)
(0.00207723 -0.000139411 4.71326e-17)
(0.000262071 1.88105e-05 2.28898e-18)
(0.00360639 0.0132764 3.06082e-17)
(0.000148975 -1.0641e-05 1.26682e-18)
(0.000191442 -5.38982e-05 5.33233e-19)
(0.00224293 -0.0063028 4.08565e-17)
(0.00017571 1.92099e-05 -2.53948e-18)
(-0.00584794 -0.000135514 5.00226e-17)
(-0.00561712 -7.71517e-05 5.46662e-18)
(6.28591e-05 0.00444039 -1.04348e-17)
(0.00022644 -8.7169e-06 4.03842e-19)
(-0.00190812 0.00140585 -1.12755e-17)
(7.7585e-05 -2.36275e-05 3.11622e-18)
(-0.00267091 0.00523465 5.70247e-17)
(3.95796e-05 -0.000123279 1.50595e-17)
(0.000103359 0.000216101 -2.37346e-18)
(0.00221654 0.000378783 1.4189e-16)
(-0.000747907 0.00397087 -1.40468e-17)
(0.00649792 0.00396734 3.45628e-17)
(0.000230605 -0.00143025 -2.08876e-17)
(0.000161909 -8.02453e-05 -2.15447e-19)
(1.60661e-06 0.00480868 3.27521e-18)
(0.0056521 -0.00107535 3.66102e-17)
(2.17238e-05 0.00167318 1.51536e-17)
(0.000483115 0.00504029 8.03467e-18)
(6.18776e-05 -0.000298175 3.76024e-17)
(9.31328e-05 -0.000298041 -9.68263e-18)
(0.000106652 -0.00010334 -2.77936e-18)
(0.000187046 -4.95216e-05 1.49844e-18)
(0.000451454 -0.00039607 -3.65549e-18)
(0.000187162 -5.41028e-05 6.50401e-19)
(0.00218192 0.00271541 1.34108e-16)
(0.000113652 0.00020459 -2.82057e-18)
(0.000202248 4.37685e-05 -1.8736e-18)
(0.000268224 -6.14537e-05 -1.74565e-18)
(0.00017739 -6.9513e-05 4.76262e-19)
(-0.00236787 0.00252936 -1.22132e-18)
(-4.64827e-05 -3.04988e-05 1.74493e-17)
(0.001643 0.00126292 -5.93712e-18)
(0.000162012 0.000400705 -4.42377e-18)
(0.000265907 -1.08381e-05 3.16841e-18)
(0.000414068 1.27335e-06 9.27633e-20)
(-0.00107219 -0.00318125 1.45968e-17)
(-0.00593815 -0.00252351 -1.66722e-17)
(0.0010948 -0.00114486 1.26797e-18)
(0.000206475 4.38176e-05 3.33013e-18)
(0.000180466 -9.18951e-05 1.7073e-20)
(-0.00446659 0.000201254 2.05711e-18)
(0.00430312 -0.00875438 2.82674e-17)
(4.14469e-05 -0.000346121 2.71561e-17)
(0.000166804 -7.75902e-05 -5.80752e-19)
(0.00027246 0.000187936 -2.29117e-17)
(-0.00499261 0.000779969 -1.40779e-17)
(0.000823712 8.01865e-05 -2.68551e-17)
(0.000226469 -2.03395e-05 -4.42669e-18)
(0.00021124 -3.96842e-06 -8.08553e-18)
(0.00427919 0.00607504 4.96e-17)
(-0.00248345 0.00179272 -5.23905e-18)
(0.000151591 5.08624e-06 -2.7839e-17)
(0.00371646 0.00535202 8.38881e-18)
(3.62653e-05 -0.000317505 4.38633e-17)
(0.00060181 0.00380151 -2.26957e-17)
(8.20438e-05 -0.00027305 3.0714e-17)
(0.000786592 0.000224881 8.51742e-18)
(0.0012229 -0.00545264 -4.86294e-17)
(0.000106538 -0.000198046 8.09233e-19)
(7.24659e-05 -2.07248e-05 -4.39361e-18)
(5.21687e-05 -0.000375401 3.48805e-17)
(0.0139576 0.01676 3.22744e-17)
(0.000185687 -0.000100135 -8.26482e-19)
(0.000261234 1.64866e-05 -2.51625e-18)
(-0.00152666 0.00427446 3.83234e-17)
(-0.0100165 0.00182512 -6.58576e-18)
(0.000272374 0.000215702 3.87999e-17)
(0.000919329 0.00475169 -3.29075e-17)
(-0.00178433 0.00235538 -1.31423e-17)
(-7.90765e-05 4.55496e-06 -7.37903e-18)
(-0.00223613 -0.00903059 -2.34664e-17)
(6.72506e-05 -0.000160653 -4.72471e-18)
(3.6543e-05 -3.135e-05 -2.77405e-18)
(0.000111971 -6.67123e-05 -2.66581e-19)
(-0.00350126 0.00486294 8.1631e-18)
(0.00070888 0.000176942 2.09655e-18)
(0.000178237 0.000108377 -7.14685e-18)
(4.66235e-05 3.53173e-06 -1.41196e-18)
(-0.00288254 0.00798906 -3.90557e-18)
(0.000484712 -0.00036142 -5.28155e-19)
(0.00145289 0.00359925 -1.48035e-17)
(-0.00676005 -0.000538653 1.18139e-17)
(-0.00685843 -0.00199735 7.16862e-18)
(-0.00593636 -0.00269149 -6.86403e-18)
(0.00815149 0.000822216 2.85527e-17)
(0.000261957 -5.69237e-05 3.83161e-18)
(-0.000551845 -0.0145782 -5.03955e-17)
(9.8058e-05 -7.93316e-05 1.89557e-19)
(0.000281191 -1.0108e-05 -2.96888e-19)
(0.000223764 -0.000617772 9.70086e-19)
(0.000158497 -3.4834e-06 -6.61568e-21)
(0.0065416 0.00425139 -1.65735e-17)
(-0.00439008 0.000894071 -3.61947e-18)
(0.00303289 0.00303432 6.75423e-18)
(0.000281501 -3.94032e-06 -1.38962e-18)
(0.000234997 0.000422987 1.60763e-17)
(0.00266791 0.00321997 -2.75255e-18)
(0.00463967 -0.00783362 -1.47342e-17)
(3.56351e-05 -0.00180454 -2.877e-17)
(0.000252694 -3.87392e-05 -9.09358e-19)
(0.000792533 0.000118739 1.78545e-17)
(0.00173324 -2.77729e-05 1.50451e-18)
(-0.00984702 0.00222587 -7.56533e-18)
(0.00214953 0.00150259 -1.01532e-17)
(8.0094e-05 -0.000256816 -1.0283e-17)
(6.75376e-05 -0.000133464 7.89831e-18)
(0.000215688 -1.60326e-05 -1.19841e-18)
(0.0174586 0.0170377 -1.73553e-17)
(0.000706228 0.000136905 -5.32041e-19)
(-0.0061866 0.000109141 -1.94504e-17)
(0.000242633 -1.69336e-05 -1.00258e-17)
(0.000187106 -9.55773e-05 3.77862e-19)
(-0.000911387 0.00475154 4.20485e-18)
(0.00201866 0.00139446 6.75373e-18)
(0.000188469 1.20253e-05 -9.3106e-19)
(0.000200461 4.73615e-05 6.69794e-18)
(4.98933e-05 -0.00032712 -1.01855e-17)
(-0.00111344 -0.00507116 4.38609e-17)
(0.00925799 -0.00239719 3.60608e-17)
(-0.00221815 -0.00551964 -3.03205e-17)
(0.000552196 0.000165206 2.96402e-18)
(-0.0010995 -0.0011383 -4.74897e-18)
(0.00894231 -0.0024539 -3.30297e-17)
(3.28201e-05 -0.000249605 -7.59766e-18)
(0.000658453 0.000467776 -1.85059e-18)
(-0.00548062 -0.00276745 -7.17214e-18)
(0.000224903 4.80567e-06 -1.07704e-18)
(-0.00308903 0.00395857 2.31968e-18)
(0.000182213 -9.354e-05 -1.47026e-19)
(-0.000338485 -0.00616686 -1.28585e-17)
(2.31164e-05 8.87983e-06 -1.39414e-18)
(0.000176806 -5.54316e-06 -7.05181e-18)
(0.000211619 -4.53823e-05 -1.92076e-18)
(4.53899e-05 -7.67258e-05 -4.01546e-18)
(0.00689385 0.00226618 7.09224e-18)
(0.000191325 3.07443e-05 1.62502e-18)
(0.00018123 -0.000613325 -5.20198e-18)
(0.000279635 -1.80745e-06 -1.12893e-18)
(0.00369961 0.000278915 5.0234e-18)
(-0.00625037 -0.000114855 -5.33212e-17)
(0.00508223 0.00507322 -1.16991e-16)
(8.48401e-05 -0.000251247 1.18511e-17)
(0.000641134 0.000498081 6.60885e-19)
(2.76844e-05 1.42584e-05 -1.75747e-18)
(6.38941e-05 -0.000364909 -1.9874e-18)
(0.000124913 -1.17268e-05 1.11127e-18)
(0.000182184 1.00861e-06 2.0209e-18)
(-0.00019285 -0.00763032 1.40726e-17)
(7.97145e-05 -0.000252236 -1.55701e-17)
(0.000226914 4.22663e-06 -3.86081e-18)
(9.48183e-06 -0.000138025 8.04721e-19)
(-0.00245441 -0.00493474 4.26882e-17)
(0.000235422 2.71623e-05 -5.42726e-19)
(-0.00933455 0.00210711 -3.17335e-17)
(-0.000817281 -0.00572478 2.15874e-17)
(-3.22783e-05 0.00138951 3.83752e-17)
(2.53473e-05 4.05042e-06 1.78463e-18)
(0.00439579 0.000928975 -1.22785e-18)
(-0.00565064 5.72419e-07 3.83415e-17)
(-0.00661862 0.00743792 -1.5591e-18)
(-0.00262584 0.00391927 -2.04273e-18)
(0.000378418 -9.50681e-05 1.49124e-17)
(2.99271e-05 -0.000363145 1.00102e-17)
(0.00620431 0.00174107 -2.12678e-18)
(0.000218504 0.000440988 -1.42714e-17)
(0.000406986 -0.00138098 1.56991e-17)
(0.000285475 -2.4528e-05 -4.46069e-18)
(-0.00871008 0.000553393 1.0084e-17)
(0.00193582 -0.00375909 2.42503e-17)
(0.000365185 -3.48107e-06 9.65352e-19)
(0.000280999 5.67257e-06 3.7238e-18)
(-0.000426117 0.00511258 -4.24259e-18)
(-0.00210772 0.00745832 3.73207e-18)
(0.00776641 0.00162309 9.0362e-18)
(0.000239078 -1.88391e-05 1.12716e-18)
(4.8602e-05 -0.000347622 1.90928e-17)
(6.83278e-05 -2.13961e-05 -6.70354e-18)
(0.00145134 0.00278698 -8.97064e-18)
(0.00216331 -0.00894347 -7.19459e-18)
(0.000291535 2.43485e-06 8.75467e-18)
(0.000545515 -0.000366176 5.7947e-18)
(0.0016928 -0.00417531 -2.55041e-17)
(0.000111863 -5.35477e-05 1.57636e-18)
(6.60288e-05 -0.000298911 4.87186e-18)
(0.00118416 0.0027527 -3.681e-18)
(-0.00548331 -0.00675776 -1.05915e-17)
(8.18926e-05 -0.000105382 -8.08391e-19)
(4.24367e-05 -7.44114e-05 4.19074e-18)
(8.25677e-05 -0.000251044 -6.38491e-19)
(-0.000984604 -0.00384844 -4.26794e-18)
(-0.00325346 -0.00127931 -7.99895e-17)
(0.000755354 -0.000103869 -5.86837e-18)
(0.000207521 4.41549e-05 1.55428e-19)
(0.00609138 -0.00751602 -8.14941e-18)
(-3.48735e-05 -0.00921785 -3.4257e-17)
(0.00175286 0.00124395 2.51005e-17)
(0.000569952 -0.000327816 -3.09841e-18)
(-0.00171245 -0.00353393 -3.07636e-20)
(0.000768546 -0.00107575 -1.67691e-17)
(0.00028348 -2.54393e-05 7.92321e-20)
(0.000469442 0.000141244 -2.78631e-18)
(0.016012 0.00785108 -2.37409e-17)
(0.000202889 -2.61257e-05 -3.27152e-18)
(0.000100755 -6.23931e-05 -4.84689e-19)
(0.0018094 0.00128438 5.95907e-18)
(0.000147732 0.000100522 2.06951e-17)
(0.000229863 3.31902e-05 3.08751e-18)
(4.41541e-05 7.75376e-06 -2.45752e-18)
(0.000130137 -9.98687e-06 -2.15775e-18)
(0.00027987 -2.26744e-07 -7.90511e-20)
(0.000434395 -2.8819e-05 -2.99284e-18)
(0.000106131 -6.40336e-05 1.55755e-18)
(-0.00601582 -0.00281106 -3.51302e-18)
(0.000677504 -0.000114286 -4.20145e-18)
(0.000165088 -0.000102231 -3.18399e-19)
(-0.00114787 0.00770433 -1.21464e-17)
(-0.00456694 0.000145107 -4.63049e-18)
(5.85167e-05 -0.000128414 1.2968e-18)
(0.00372661 0.000664811 7.17134e-18)
(0.00888341 -0.00038961 -8.21884e-17)
(0.0001092 -0.000201303 -2.58154e-18)
(4.71415e-05 -0.000132974 3.47451e-18)
(0.000696755 -0.000166448 -4.0589e-18)
(-0.00588821 -0.00045113 6.36931e-18)
(0.00689011 -0.00645562 -8.77784e-18)
(0.000509538 -0.000892842 -8.72329e-18)
(0.000216272 -4.50114e-06 6.18324e-19)
(-0.00181113 -0.0152364 4.48425e-17)
(0.000101066 -7.74435e-05 1.89469e-19)
(0.000363239 -0.00106982 2.47439e-17)
(0.00889896 -0.000363378 7.24851e-17)
(-0.00376797 -0.00216283 2.16574e-17)
(0.00017893 0.000103195 2.07547e-17)
(0.0148465 0.00797802 1.7959e-17)
(-0.00584278 0.00682014 -1.44423e-18)
(0.0042743 0.000580324 -1.31258e-17)
(-0.000739033 0.00255734 -3.25055e-17)
(4.56218e-05 -0.000301107 -4.96961e-18)
(0.00294598 0.00635559 2.89468e-17)
(-0.0043789 0.000350236 1.02435e-17)
(-0.0120961 -0.0164671 -7.09332e-18)
(0.000197395 4.74572e-05 -1.04546e-17)
(-0.000241793 0.00180475 -4.87502e-17)
(-0.00215594 0.000473311 -8.73206e-18)
(0.00014744 -0.000352666 -1.08965e-17)
(0.000125802 -0.000311649 1.09463e-17)
(2.76971e-05 -0.000252629 2.17551e-17)
(0.000236605 -0.000785104 2.76261e-17)
(0.000176385 -0.000201547 -2.26777e-18)
(-0.00130883 0.0017254 -3.56903e-18)
(4.94344e-05 -0.000297637 -2.48633e-17)
(0.000332502 -4.15601e-06 2.85514e-19)
(0.00043082 4.45984e-06 5.04879e-18)
(0.000222679 2.34413e-05 1.56071e-17)
(0.00353334 0.000674607 1.75354e-17)
(0.00020419 -0.000585852 -3.87512e-18)
(0.000203887 -2.36284e-05 2.13298e-18)
(0.00589407 0.00423955 9.04642e-17)
(0.000161791 -0.000214622 -1.11306e-17)
(0.000212005 -2.92899e-06 7.6167e-18)
(0.000177061 0.000120389 3.15892e-18)
(-0.00535849 -0.000115113 1.87152e-18)
(0.00644284 -0.00647664 5.1361e-18)
(-0.00140562 0.00492395 2.95937e-19)
(0.000203379 -4.96593e-05 1.59084e-18)
(0.000229528 6.67139e-06 3.0595e-19)
(0.00708464 0.00644183 7.67282e-18)
(6.85893e-05 -0.000140421 -6.04348e-18)
(-0.00112222 -0.00995042 -1.95242e-17)
(0.000282329 -1.96293e-05 -9.37862e-18)
(0.000677041 -0.000203869 -8.04351e-18)
(0.000158059 -0.000222299 -3.10345e-18)
(7.05453e-05 -1.97956e-05 4.51337e-18)
(0.000175435 -9.92771e-05 1.16494e-19)
(0.00109677 -0.00108556 -7.57346e-17)
(-0.000291911 0.00189288 -1.74651e-17)
(0.00273849 -0.00332538 -3.37098e-17)
(0.000745526 0.00775857 -3.97034e-17)
(0.00632117 0.00720258 -7.74688e-18)
(0.000188686 -9.81344e-05 1.71484e-18)
(-0.00116544 -0.0052195 -8.87834e-18)
(0.00210209 0.00444653 -1.47827e-19)
(0.000218117 1.42229e-05 3.68494e-18)
(-0.00655926 -0.000631405 -3.0608e-17)
(0.00224819 -0.000188742 -5.28764e-18)
(0.00608165 -0.00128941 -4.80329e-17)
(0.000219461 2.23337e-05 -3.93783e-18)
(-0.000771021 0.000968113 1.30767e-17)
(0.00802133 0.00844302 -1.04247e-17)
(-0.00989995 -0.0142324 -3.59687e-17)
(0.000430713 -0.00106053 1.30214e-17)
(-0.00395781 0.00169231 7.03172e-18)
(0.000201003 4.08692e-05 -1.42198e-17)
(-0.00497003 0.00185546 2.37644e-18)
(-0.00306615 0.000628634 5.51561e-17)
(0.000298303 -7.99486e-05 -2.92336e-18)
(-0.00894019 0.000860446 4.22603e-19)
(0.000292106 -0.000111186 1.59283e-18)
(0.000450279 -0.0066523 -1.45549e-17)
(0.000461751 0.000134534 2.50708e-18)
(4.38926e-05 0.000597463 -6.94003e-18)
(0.000671444 -0.0039876 4.4088e-18)
(-0.00221781 0.00183513 1.15354e-17)
(3.75032e-05 -3.23425e-05 4.67812e-18)
(0.000264563 -2.26786e-05 3.39702e-18)
(0.000136592 8.27988e-05 -1.18718e-17)
(0.000258432 0.000422412 -1.11631e-17)
(0.000186075 -8.31816e-05 -5.82892e-20)
(0.000792189 -7.98043e-05 -1.88448e-19)
(-0.0092425 0.00683526 -3.12242e-18)
(0.00010155 -7.34339e-05 -2.53109e-19)
(0.000711081 0.000440275 1.27639e-17)
(0.00176207 -0.00201533 4.36843e-18)
(0.000218971 1.83401e-05 1.17642e-17)
(-0.00456531 -0.0084511 -4.14184e-18)
(0.000223538 0.000719546 1.35808e-17)
(0.00640886 -0.00775464 4.80129e-17)
(0.000224244 1.02228e-06 2.24176e-18)
(-0.00021389 0.0011641 1.38573e-17)
(-0.000522598 -0.000292843 -1.69355e-17)
(0.00326468 -0.00930383 7.44517e-18)
(0.000367975 -0.000368933 -1.68848e-17)
(0.00746849 0.00119193 4.12585e-18)
(-0.00591734 1.78876e-05 -4.37878e-17)
(0.00364012 0.000984238 5.33468e-18)
(0.0001239 -5.43192e-05 -2.96588e-18)
(0.00118135 -0.000811436 7.98377e-17)
(0.000258959 -0.000107992 8.56888e-18)
(-0.000644624 0.0010758 -1.43022e-18)
(0.000207013 4.03195e-05 -2.82545e-18)
(0.000290943 0.000441519 9.18625e-20)
(-0.0147582 0.0033231 6.38528e-18)
(-0.0134105 -0.0132797 3.34438e-17)
(0.000224297 7.4561e-06 5.15883e-18)
(0.00105892 -0.00426434 -2.71974e-18)
(0.00178736 -0.0029895 -1.96441e-17)
(-0.00276178 -0.00177283 7.16731e-17)
(0.000251973 -2.05471e-06 2.22119e-18)
(-8.10479e-05 0.00126863 -6.40482e-17)
(-0.00357262 0.000931597 -7.44057e-17)
(0.00641791 0.00202037 -1.18925e-16)
(0.000293607 -1.8818e-05 6.35403e-18)
(-0.00408197 -0.01558 7.21156e-19)
(7.34906e-05 -3.61218e-05 4.39644e-18)
(0.00016257 -2.86438e-06 9.06518e-20)
(-0.00965308 -0.000259422 1.47362e-17)
(-0.00030908 -0.00342552 -2.07919e-18)
(4.98591e-05 -3.52094e-05 2.26899e-18)
(0.000233878 3.08845e-06 2.16291e-17)
(0.000741569 0.000423927 -2.97132e-18)
(0.000264848 -2.72923e-05 6.85669e-19)
(-0.0152834 0.00370027 -3.08464e-17)
(0.000309187 -0.000854077 1.19908e-17)
(0.0021453 -0.000282508 -3.03909e-18)
(0.00025801 0.000105101 1.31655e-17)
(0.000199372 4.27529e-05 2.84095e-18)
(8.31927e-06 -0.000114544 -1.64275e-17)
(-0.00755737 -0.0138838 5.40718e-17)
(0.000162691 -0.00010401 -7.07272e-21)
(4.67701e-06 -0.00010456 6.64917e-18)
(0.00684517 0.0141544 1.99109e-17)
(-0.0104539 0.00772244 -2.86049e-18)
(0.000222736 -2.74958e-05 4.5911e-18)
(0.00642509 0.00645175 1.41805e-17)
(3.26736e-06 -0.000137082 -2.21898e-18)
(0.00012691 -5.9699e-05 4.55076e-19)
(0.00021848 1.48095e-05 4.87583e-18)
(0.00255143 -0.00371432 3.75292e-17)
(0.000127194 0.000699776 1.12127e-17)
(0.000164714 -8.75694e-05 2.57413e-20)
(0.000201593 3.16925e-05 -2.44631e-18)
(0.0011933 -0.00103361 -2.51333e-17)
(0.000216257 1.50976e-05 2.93548e-18)
(0.00959535 -0.000666827 9.75151e-17)
(0.000120083 -6.61554e-05 1.38965e-18)
(0.000227929 0.000245202 1.09867e-17)
(-0.00747409 0.00597137 -3.81454e-18)
(0.000206779 -0.000229994 -2.12404e-17)
(0.000393775 -2.56104e-07 5.31425e-19)
(9.03755e-05 -8.53806e-05 -1.30923e-18)
(0.00025855 9.41366e-05 -1.55318e-17)
(0.000183107 1.50055e-05 1.22556e-17)
(0.00521809 -0.00185327 -2.08981e-17)
(0.00479913 0.0138717 -6.57058e-18)
(0.000390345 -9.92263e-05 -2.0498e-17)
(0.000812674 -0.000276376 5.00352e-18)
(0.000220914 1.01685e-05 -7.92451e-18)
(0.000113103 -6.12792e-05 1.18894e-18)
(-0.00208479 0.000503427 9.08037e-18)
(0.00818834 0.00700874 2.09113e-18)
(0.000110703 -0.000265362 1.64715e-17)
(0.000121402 -0.000105991 -1.06615e-18)
(-0.00426853 0.000339056 -1.20615e-17)
(8.29818e-05 -0.000263929 -1.95146e-17)
(-0.0166575 0.00764904 4.05438e-17)
(0.000109626 -0.000100085 -8.29959e-19)
(0.000216903 -2.08953e-05 -1.51469e-17)
(0.000660598 -0.00126903 -1.60341e-17)
(0.000372007 0.00039194 -1.41013e-17)
(-0.00441294 0.000540783 -6.13488e-18)
(0.00250037 -0.00393455 2.23111e-17)
(-0.0114008 -0.0138325 -1.20426e-17)
(0.000137433 -0.000182109 2.0243e-18)
(-0.00128216 0.00286546 4.71664e-17)
(0.00013231 -6.71862e-05 -7.86865e-19)
(-0.00360056 0.00721991 3.29709e-19)
(0.000260765 0.000696416 -1.47056e-17)
(0.00192411 0.00139736 -2.2189e-17)
(0.000267958 -0.000104807 -1.32012e-17)
(0.000201728 -4.86406e-05 -9.38854e-19)
(0.000210285 -0.000223983 -1.90074e-18)
(0.000278672 -0.000687098 3.69364e-18)
(0.000190635 -4.37167e-06 -1.11982e-19)
(-0.00599117 -0.000227294 -2.79123e-17)
(-0.0025344 0.000403691 -1.62873e-17)
(0.00975424 0.00118856 -5.69874e-17)
(0.00190742 0.00254351 -6.19006e-17)
(0.00530157 0.0136788 7.16742e-19)
(-0.00270366 -0.0005957 -2.24856e-17)
(0.00121643 -0.00979548 5.34045e-17)
(0.000100278 -0.000243188 -1.08186e-17)
(2.59853e-05 -1.47702e-05 3.63414e-18)
(-0.0123215 -0.00416109 -8.12068e-17)
(3.67768e-05 -4.92047e-05 -1.01155e-18)
(0.000169631 -8.06788e-05 -4.88649e-20)
(0.000111597 -0.000243558 -1.49707e-17)
(0.00763926 0.00365178 -4.40228e-17)
(0.000235045 1.43005e-05 -4.6157e-18)
(9.64805e-05 -0.000202955 -4.27505e-18)
(0.000773836 -0.000359511 -1.84163e-17)
(0.00013092 -0.000222378 -1.24262e-17)
(1.5466e-05 -4.44007e-05 -5.73608e-18)
(-0.0031488 0.01198 -2.2143e-17)
(0.000155084 -7.06968e-05 5.15931e-19)
(-0.00413902 0.001441 -2.23072e-17)
(0.0049162 -0.0010802 2.70297e-17)
(0.0001502 -1.80549e-05 -5.53955e-20)
(0.000209993 4.17495e-05 4.59576e-19)
(-0.00355635 -0.00219416 -2.96359e-17)
(-0.00876964 -0.00494648 8.97029e-18)
(0.000230201 2.96184e-05 -1.61167e-18)
(0.00585423 0.00283562 -3.83427e-17)
(-0.0142908 -0.00680218 8.5921e-17)
(0.000219023 1.04915e-05 -1.21181e-18)
(-0.00121564 -0.00401992 9.21742e-17)
(-0.00304603 -0.010651 3.34497e-17)
(0.00387876 -0.000384751 1.65423e-17)
(0.000143584 -0.000179641 -1.39063e-19)
(0.00625454 0.013767 -2.09576e-17)
(-0.00314536 -0.00110864 1.8677e-18)
(0.000200757 1.06626e-05 -1.13596e-18)
(-0.00662569 0.00690002 1.7818e-17)
(0.000180264 -7.56674e-05 -4.6463e-19)
(0.00015085 -7.71772e-05 2.74749e-19)
(0.0114346 0.0131441 -1.52721e-17)
(0.000989445 -0.00675213 -1.05114e-17)
(0.000236871 -0.000164732 -5.66616e-19)
(0.000108809 0.000679359 -3.42979e-18)
(3.10807e-05 -4.42664e-05 -4.24556e-18)
(0.000284106 0.00106316 1.40821e-17)
(-0.00486151 0.00115719 2.28939e-17)
(-0.000952501 0.00607824 2.37089e-17)
(0.000192804 3.79262e-06 -1.26634e-18)
(0.000565888 -0.000951874 -6.07082e-17)
(0.000179304 -8.53315e-05 3.06646e-20)
(0.000182635 -6.85667e-05 7.38542e-19)
(0.000393376 -0.000397793 4.43292e-18)
(0.000164073 0.0003006 2.83467e-18)
(0.000246953 -5.232e-07 -2.38201e-19)
(0.000201397 -6.42382e-05 -5.18901e-19)
(-0.00246981 -0.0035344 7.33793e-17)
(-0.00211757 0.0016453 -4.79929e-17)
(-0.00188397 -0.00337086 -6.9544e-17)
(0.000228412 1.46836e-05 4.44408e-18)
(7.47449e-05 -1.79818e-05 7.15388e-19)
(-0.00127911 -0.004213 -8.93303e-18)
(5.04595e-05 -5.55911e-05 -3.09145e-18)
(0.00161245 -0.000257284 -1.34387e-17)
(0.00028305 0.000173861 3.52188e-18)
(0.000317561 0.000375003 1.09815e-17)
(0.00034739 -0.000105049 -2.23356e-18)
(-0.00479477 0.00863353 1.11618e-18)
(0.00121993 -0.00138236 2.31157e-17)
(0.000250532 -1.806e-05 1.13128e-17)
(-0.00232404 0.00131267 -2.32463e-17)
(0.000182148 8.39188e-05 -6.99482e-18)
(-9.70164e-05 -0.000523523 1.43694e-17)
(-0.00533057 0.00832905 -2.6484e-18)
(-0.00963558 -0.00058298 -1.41818e-17)
(0.000173509 -0.000109477 1.69489e-19)
(0.000116912 -6.38516e-05 -1.55858e-18)
(9.79891e-05 -0.000303434 3.59507e-18)
(-0.00298506 -0.00282023 -1.08639e-16)
(-0.00074065 0.00996005 1.82905e-17)
(0.000236135 0.0010323 -4.87525e-18)
(0.00541161 0.0125488 1.66816e-16)
(0.00015489 0.000316117 -5.74843e-18)
(0.000437622 0.00014971 7.60718e-18)
(-0.00357409 -0.00801433 -6.15476e-17)
(-0.00436824 0.00764425 1.24811e-17)
(0.000893806 -0.000817749 5.51026e-18)
(-0.0037365 0.00126791 6.98419e-18)
(0.00144771 0.000479971 6.33725e-19)
(0.00257131 0.00924345 -2.24695e-19)
(0.000197685 3.9405e-05 3.43305e-18)
(0.00915118 0.010445 5.22367e-17)
(-0.0046576 -0.0167965 4.3656e-17)
(0.000104669 -8.62613e-05 -5.6427e-18)
(0.00310143 0.000753864 -1.03193e-16)
(0.00802263 0.00643106 -4.68359e-17)
(0.000260682 -4.48805e-05 -1.53203e-18)
(0.000815378 0.000181565 -4.04742e-18)
(0.000148011 -0.000128417 -2.81705e-18)
(0.00230092 0.000546071 1.0103e-18)
(0.000439966 0.000387628 -1.18833e-18)
(-0.0144641 -0.0046408 -3.3024e-18)
(0.000168822 -0.000107429 2.1169e-19)
(0.000118221 -3.162e-06 -2.46705e-19)
(6.40289e-05 -0.000249285 3.98016e-18)
(0.000136398 -0.000192544 8.66363e-18)
(0.000144156 -6.48587e-05 3.91617e-19)
(0.00777417 0.00355715 6.60006e-17)
(0.000122483 -5.10268e-06 3.05607e-19)
(0.00127518 0.000729761 -5.17406e-19)
(0.000133576 -0.000197475 6.08285e-18)
(-0.000663361 0.00116973 7.63632e-18)
(0.000113312 -9.97863e-05 -1.66292e-18)
(1.67043e-05 -3.8451e-05 1.75514e-18)
(0.000355737 8.47872e-05 -1.01497e-17)
(0.000330839 -0.000925793 4.47281e-17)
(0.000291088 -0.000348526 2.48618e-17)
(0.00458682 0.00477548 1.56859e-17)
(0.000210549 -1.31818e-05 2.08309e-17)
(0.000234394 -3.06224e-05 1.44982e-18)
(0.000198662 2.1095e-05 6.49954e-19)
(0.000146241 -0.000622136 1.28127e-18)
(0.000198943 3.42516e-05 2.0707e-18)
(-0.000750748 0.000463206 -2.74494e-17)
(0.000242 7.42839e-06 -1.4363e-18)
(0.000106798 -0.000262566 -4.1667e-18)
(0.0084715 0.0111213 3.80615e-18)
(2.4914e-05 -5.58436e-05 2.3602e-18)
(0.0102753 0.000766205 8.35861e-18)
(2.72536e-05 1.38763e-05 -1.26712e-19)
(-0.00170611 0.0016441 -3.70298e-18)
(-0.0027685 0.00141775 -1.98175e-17)
(-0.00757519 0.000428027 -9.43304e-18)
(2.4564e-05 -0.000266527 -2.13585e-17)
(-0.01521 -0.0046581 1.74278e-17)
(0.000709184 -0.00037765 -7.39686e-18)
(0.00178006 0.00179334 1.77718e-17)
(0.00854688 0.00508813 5.32803e-17)
(0.000189231 5.35106e-06 1.41362e-18)
(-0.00455009 0.0103602 4.58961e-17)
(0.000173623 -0.000208871 2.201e-17)
(0.000300926 -9.25521e-05 2.31521e-17)
(0.00307697 0.0028595 9.91739e-17)
(0.00317328 0.0193621 -2.3395e-17)
(0.000234467 1.57172e-05 -2.4099e-19)
(-0.000576346 0.000406888 3.76191e-17)
(0.000185145 1.16016e-05 -8.55093e-19)
(0.00295611 0.00821815 -4.74217e-18)
(0.00444113 0.00133486 1.66633e-18)
(0.000187229 -3.50896e-05 -6.08229e-19)
(4.16811e-05 -0.000324192 -6.79554e-17)
(-0.0143811 -0.00318395 -9.2339e-17)
(2.50295e-05 1.83211e-05 2.53284e-19)
(2.61523e-05 1.74927e-05 8.29294e-19)
(-0.000378359 0.00126471 -4.60564e-17)
(0.0100928 0.000592288 1.65277e-18)
(0.00514883 0.0140387 -1.01473e-17)
(4.28771e-05 -0.000128211 4.74229e-19)
(-0.000302391 -0.00388374 -4.50539e-17)
(0.000216942 1.55975e-05 2.0263e-18)
(2.4001e-05 -2.92764e-05 2.72858e-18)
(0.0063682 0.0133237 -8.02599e-18)
(7.70089e-05 -0.00426729 5.36051e-17)
(-0.000599196 0.00133431 -4.02566e-17)
(0.00027662 -2.12071e-06 -9.50218e-19)
(0.00131077 0.00256784 -4.33209e-19)
(0.000191964 -0.000307904 -5.04689e-18)
(-0.00017562 0.000989063 -3.0601e-18)
(4.0795e-05 -0.000213832 1.24183e-17)
(0.000182489 -0.000103877 -1.12821e-18)
(0.000460022 0.000325689 4.67369e-18)
(6.41423e-05 -0.000245242 1.01023e-17)
(0.00123054 0.00324856 1.75838e-18)
(0.000792225 -0.000202357 -4.44914e-18)
(0.000731158 -0.000292426 -2.68331e-17)
(0.000816297 -0.000686587 8.01074e-18)
(0.00144153 -0.000319431 -2.97496e-17)
(-0.00564613 -0.0100656 -7.07293e-18)
(0.00410304 -0.00573543 2.26361e-17)
(0.00316266 -0.000265742 4.20773e-17)
(0.000908605 0.00440252 1.77634e-17)
(-0.00566925 -0.000423995 -3.33542e-17)
(0.00034728 -0.000121347 -1.79585e-18)
(0.0109914 0.0137636 1.4051e-17)
(0.0040334 2.65565e-05 -3.33188e-17)
(0.000202211 4.56389e-05 -1.14061e-18)
(0.00042129 0.000144076 -7.12414e-18)
(-0.00565329 -0.00852506 -1.66766e-17)
(0.000225672 1.50583e-05 1.16321e-17)
(0.000150633 -6.57455e-06 -1.26838e-18)
(0.000152321 -4.83214e-06 -2.81457e-19)
(-0.00138257 0.0020149 -1.2303e-17)
(-0.00320836 0.00147073 8.19099e-18)
(0.000240165 0.000243467 -9.84355e-18)
(0.000134024 -0.0052932 -2.292e-18)
(0.000246046 -3.33514e-05 -1.2164e-18)
(0.0047616 0.0127226 5.02849e-18)
(0.000300682 -0.000779349 -2.81262e-19)
(0.00905357 -0.000179545 5.14617e-17)
(-0.000392671 0.000545047 2.70084e-17)
(0.000224663 -6.00455e-06 -1.58094e-18)
(0.000238058 7.91936e-06 1.18476e-17)
(0.0091031 -2.96378e-05 -4.09188e-17)
(-0.000865465 0.00115764 5.36485e-17)
(0.000338878 -0.000107358 9.19313e-18)
(0.000472827 -0.00411522 -6.60146e-18)
(0.000198084 4.40376e-05 -6.51844e-18)
(-0.00251248 -0.00205049 -2.96586e-17)
(-0.00164699 0.00197445 6.46552e-18)
(0.00106365 0.0008752 5.45669e-18)
(0.000231114 -7.14402e-05 8.9502e-18)
(-0.00640068 -0.000375514 -4.7658e-17)
(7.47555e-05 -3.42886e-05 -4.01807e-18)
(2.26633e-05 1.38478e-05 2.16579e-18)
(3.55266e-05 -0.000246281 -1.32318e-17)
(2.63181e-05 -2.57514e-05 3.32811e-18)
(-0.00658145 0.00732656 4.1228e-18)
(0.000274459 -7.48123e-07 -2.93174e-20)
(0.00497818 0.0127542 6.03629e-18)
(-0.00199251 -0.00377527 5.99899e-18)
(-0.000286318 0.000640662 -1.94258e-17)
(0.000425563 0.006546 1.86125e-17)
(0.00516587 -0.00132517 6.22408e-18)
(0.000761837 0.00089174 -2.26793e-18)
(0.00178568 0.00216309 -4.312e-17)
(3.53595e-05 -0.000264111 -1.12608e-17)
(-3.32295e-06 -6.7509e-05 1.25906e-18)
(4.06837e-05 -6.45547e-05 1.30745e-18)
(0.000263799 2.18857e-05 1.67492e-18)
(0.000201809 2.38284e-05 -1.04393e-18)
(0.000133323 -5.26549e-06 -1.15347e-19)
(-9.0629e-06 -0.000684695 -3.77904e-19)
(-0.00299985 0.00144633 -8.26768e-18)
(0.000195462 -0.000323346 1.70809e-18)
(-0.0109679 -0.0139008 6.89137e-17)
(0.000190206 -4.64933e-05 1.14416e-18)
(-0.00626858 -0.0025555 6.36273e-18)
(1.01589e-06 6.96491e-06 3.38022e-18)
(-0.00130457 -0.00436859 3.99203e-17)
(0.000190398 3.38949e-05 8.49222e-18)
(1.63042e-05 1.3836e-05 -2.67834e-18)
(7.73947e-06 -0.0001315 1.31468e-18)
(-0.00723996 -0.000762977 8.04782e-18)
(0.000240278 -1.43095e-05 -2.06394e-17)
(-0.000834839 -0.00374771 7.85037e-18)
(0.00860124 0.00380608 4.87812e-17)
(0.000741193 0.000220218 -2.41419e-18)
(0.00136505 -0.000322809 2.24396e-17)
(0.000206233 1.75583e-05 -1.75988e-18)
(-0.0034566 0.00204284 -5.63719e-18)
(0.000164949 -0.000152392 1.28305e-18)
(0.000239632 1.16316e-05 2.45714e-18)
(0.00738187 0.0122434 -4.15423e-18)
(8.55694e-06 -6.41167e-05 1.69251e-18)
(0.00010531 -0.000198432 -6.52792e-18)
(0.000190043 1.78161e-05 -7.9863e-19)
(0.000339497 0.000683811 -5.47721e-18)
(-0.00694888 0.0011159 1.10513e-17)
(0.000220955 -1.50349e-05 2.07366e-17)
(0.000243466 -8.90623e-05 -3.39151e-17)
(-0.00369194 0.0017276 4.03759e-17)
(-0.00115181 0.00533408 2.9287e-17)
(5.94706e-05 -0.000262696 -4.91274e-18)
(0.000199858 -0.000136331 -2.60756e-19)
(-0.00218055 0.00970259 -3.51944e-18)
(0.000279773 2.18143e-05 -7.24909e-19)
(-0.00111771 0.00929081 3.74936e-18)