/*--------------------------------*- C++ -*----------------------------------*\
| =========                 |                                                 |
| \\      /  F ield         | OpenFOAM: The Open Source CFD Toolbox           |
|  \\    /   O peration     | Version:  v2012                                 |
|   \\  /    A nd           | Website:  www.openfoam.com                      |
|    \\/     M anipulation  |                                                 |
\*---------------------------------------------------------------------------*/
FoamFile
{
    version     2.0;
    format      ascii;
    class       volScalarField;
    location    "800";
    object      k;
}
// * * * * * * * * * * * * * * * * * * * * * * * * * * * * * * * * * * * * * //

dimensions      [0 2 -2 0 0 0 0];


internalField   nonuniform List<scalar> 
13851
(
0.000202725
0.000155058
0.000154849
0.0195806
0.000148437
0.000157592
0.000155968
0.000147742
0.0517856
0.000148428
0.000176999
0.000148463
0.000149057
0.0291034
0.000169877
0.000204974
0.016995
0.000148771
0.000253841
0.000202632
0.000172957
0.00015627
0.0327773
0.000149734
0.0333691
0.000186275
7.92571e-05
0.0213299
0.0481744
0.000146852
0.0443245
0.000155936
0.000202506
0.0704311
0.000170224
0.0478345
0.00014981
0.0298483
0.0652269
0.000148984
0.0702237
0.0503229
0.00613397
0.000221278
0.0531094
0.000147781
0.000145639
0.000203857
0.000152846
0.000149011
0.0247203
0.000149264
0.000204971
0.000165287
0.0273839
0.000148981
0.000202879
0.0676299
8.83361e-05
0.0295467
0.000148512
0.000219602
0.000148598
0.000153124
0.000181301
0.000181922
0.0239196
0.000166312
0.000149281
0.0282783
0.0397283
0.000177328
0.000148588
0.02628
0.000166704
0.000152953
0.0222682
0.000146065
0.0214591
0.00014781
0.000149359
0.000242566
0.000169709
0.0309543
0.0308836
0.0432306
0.000156532
0.0211455
0.000148403
0.0442601
0.000149377
0.000156105
0.00934607
0.0390754
0.0591463
0.000199603
0.000147914
0.000205995
0.0259638
0.000194782
0.000207323
0.00016197
0.000163156
0.000148849
0.0001478
0.000175749
0.000147788
0.0420094
0.000156066
0.000148614
0.000159968
0.000147801
0.000202781
0.000179314
0.000202249
0.000164402
0.000146587
0.000147231
0.0170672
0.0317503
0.000189869
0.000147855
0.000149179
0.0485596
0.000225538
0.000172323
0.000147905
0.000171771
0.0649995
0.000176429
0.000156179
0.000162839
0.010224
0.0691578
0.000177635
0.0588199
0.000165929
0.0418371
0.000160309
0.000176407
0.0002329
0.000150567
0.000148427
0.000171329
0.0386481
0.000152448
0.000145994
0.03962
0.0418376
0.000172455
0.000206827
0.000201325
0.000180438
0.000223625
0.000149588
0.000148693
0.000148605
0.0613447
0.000174174
0.000154409
0.000149584
0.0481013
0.000175292
0.000203882
0.0297228
0.0558081
0.0569655
0.029306
0.00015979
0.0769778
0.000148616
0.000146566
0.000179584
0.000148827
0.0625719
0.00012101
0.000209331
0.000146501
0.000166753
0.000208427
0.000225105
0.000216634
0.000159312
0.000176193
0.00707166
0.0425883
0.000202484
0.000157491
0.000149394
0.000147296
0.0212869
0.000174119
0.0239914
0.000157824
0.000152184
0.000205538
0.000201693
0.000149958
0.000149873
0.00016722
0.000232186
0.0634636
0.0678052
0.000169899
0.000347048
0.0595795
0.000152316
0.000176478
0.0530489
0.000156628
0.000204433
0.000149117
0.000238837
0.000149537
0.000170911
0.000154091
0.000148923
0.000221671
0.000150014
0.00049704
0.000146466
0.000202534
0.0265262
0.0605353
0.000157141
0.00017678
0.000149743
0.000169699
0.000148083
0.000170517
0.0328318
0.000157083
0.00015659
0.00014872
0.0657421
0.000146846
0.0173684
0.0667139
0.000191337
0.000149645
0.000328194
0.0315189
0.0534622
0.000204413
0.000165991
0.000174703
0.000218493
0.000167038
0.0001987
0.000161406
0.0227722
0.00020151
0.000147216
0.000158055
0.000206539
0.0467139
0.0243496
0.000147236
0.000172914
0.000148372
0.000215349
0.000223607
0.000158672
0.000175878
0.000202033
0.000148291
0.000162529
0.000199142
0.00981152
0.000148504
0.0001489
0.000157287
0.0612095
0.0118797
0.000175825
0.000148026
0.000224759
0.000223334
0.000199054
0.000175526
0.0598885
0.0254541
0.000158981
0.000167072
0.0295612
0.000147799
0.000148597
0.000199739
0.000173902
0.000146922
0.000149517
0.000148038
0.000147882
0.000166079
0.000148553
0.0534266
0.000174116
0.000148464
0.0464924
0.0458862
0.000149341
0.000203009
0.0250496
0.0001508
0.000149422
0.000175245
0.0289632
0.0758458
0.000182473
0.000148353
0.0740976
0.000148565
0.000184047
0.0300833
0.00757563
0.000154092
0.0168233
0.00101969
0.0469059
0.000200614
0.000162561
0.0638547
0.0549542
0.0178239
0.000150114
0.0243162
0.00819808
0.000212513
0.000207485
0.000152342
0.000181677
0.000157915
0.02236
0.000163718
0.000147031
0.000144943
0.000158385
0.0435611
0.000375357
0.00014773
0.0579537
0.000157957
0.000163091
0.000154662
0.02483
0.000224944
0.000205771
0.000153689
0.000155903
0.0460216
0.000149422
0.000227522
0.000158881
0.00017515
0.000158541
0.000148391
0.00014844
0.000197445
0.00019808
0.000201992
0.00270101
0.0469605
0.000152573
0.064671
0.000222315
0.000146913
0.009377
0.000191958
0.0305465
0.000157868
0.000187707
0.000149079
0.021047
0.000195587
0.0250533
0.000151248
8.65002e-05
0.0066524
0.000163028
0.0277137
0.000165294
0.0698528
0.000166701
0.000173505
0.000200966
0.000210713
0.000148703
0.000158254
0.000174918
0.000167021
0.000147935
0.000176173
0.0691512
0.000148573
0.000176475
0.0121293
0.000154458
0.0016566
0.00017615
0.0790361
0.000157313
0.000184842
0.000313449
0.000228727
0.000175132
0.0206847
0.0265403
0.000344897
0.000148319
0.000196818
0.000165283
0.000187364
0.000147872
0.00717585
0.0737519
0.0246916
0.000155845
0.000201632
0.000184301
0.0129751
0.000145689
0.0180609
0.000217943
0.0323921
0.000162023
0.0300131
0.000148621
0.000148751
0.0234494
0.000163839
0.000148446
0.000155085
0.000176918
0.000146786
0.070764
0.000182043
0.000191454
0.000158129
0.000151288
0.000149315
0.0117625
0.000148419
0.000149242
0.0339361
0.0678801
0.000155632
0.000250182
0.000148638
0.000148542
0.000155011
0.000202293
0.000176018
0.000148023
0.000152058
0.000189254
0.000153414
0.0789198
0.000148426
0.000160864
0.0538095
0.000160835
0.000145281
0.000148738
0.00015797
0.000150511
0.000331609
0.0418906
0.000166238
0.000597506
0.000155134
0.000148329
0.0620891
0.000152892
0.000160192
0.000148693
0.0525954
0.000159628
0.00161312
0.000148849
0.000163209
0.000196487
0.000168441
0.0590258
0.000165681
0.0173212
0.000152707
0.000201817
0.000148295
0.0468413
0.000176012
0.00020165
0.000165109
0.000153359
0.000160866
0.000180086
0.00014851
0.0135685
0.0600516
0.0799003
0.00727303
0.0400912
0.0329414
0.000227822
0.00015664
0.000149343
0.00313622
0.000148428
0.000147905
0.000157817
0.065263
0.000154761
0.000150548
0.000173478
0.000173995
0.000148486
0.0832986
0.000147898
0.066736
0.000296585
0.00014781
0.000153816
0.000222163
0.0110132
0.000146936
0.0582662
0.0153267
0.000147288
0.0554348
0.00025261
0.000202202
0.000152656
0.0320565
0.030287
0.000147539
0.000235784
0.000149217
0.000147918
0.0256408
0.0706764
0.000169531
0.000175402
0.000148441
0.000182076
0.0668577
0.0613782
0.000148293
0.0233851
0.000147988
0.000149294
0.000175356
0.000161066
0.00014566
0.000152943
0.0573668
0.000208055
0.0537939
0.000154162
0.00014836
0.0611734
0.000149147
0.00019768
0.000160591
0.000166687
0.000165693
0.053376
0.0301162
0.000157673
0.0168654
0.000153557
0.000181065
0.0511871
0.0333408
0.000149131
0.000148326
0.000163641
0.0550641
0.000244039
0.000181679
0.00714085
0.000161265
0.000165849
0.0403061
0.0851551
0.000182131
0.064873
0.000213162
0.0489545
0.000150659
1.80199e-05
0.011507
0.000148458
0.0105741
0.0877547
0.000159817
0.000176349
0.000148868
0.000507633
0.000175483
0.0525624
0.000148442
0.000149021
0.000155389
0.000173518
0.000148489
0.0621913
0.000148981
0.00021244
0.000152685
0.000187905
0.000148828
0.000148511
0.000167532
0.0236055
0.00017477
0.0569313
0.00016324
0.000146866
0.000147646
0.000179801
0.000152014
0.000189013
0.000155573
0.000159885
3.18034e-05
0.000149156
0.0201908
0.00014967
0.00019445
0.0193609
0.0560391
0.00015688
0.0438003
0.000172928
0.000203646
0.0873093
0.000148702
0.0866892
0.000158023
0.000163899
0.00924539
0.00128907
0.000147081
0.000188468
0.000149857
0.0473863
0.0255592
0.000149704
0.000167056
0.0730355
0.00014974
0.000149662
0.000186526
0.0169464
0.0226388
0.000149436
0.000200571
0.000152975
0.000148542
0.000152897
0.000201128
0.000193977
0.000145429
0.000199172
0.000163827
0.0001831
0.000150575
0.000151894
0.000174224
0.000155182
0.000201561
0.000177248
0.000177094
0.000178415
7.14974e-05
0.000251013
0.058013
0.0482088
0.000205368
0.0375027
0.000163442
0.0293483
0.000203178
0.000148469
0.000165223
0.000227443
0.000157455
0.000147809
0.000147757
0.000194646
0.022382
0.000161089
0.0636466
0.000146902
0.0268905
0.000178073
0.0237826
0.00018797
0.000157495
0.000154898
0.0278537
0.000194078
0.000163099
0.000146945
0.000150917
0.00272848
0.000194793
0.000212631
0.000164333
0.000272772
0.000148612
0.000149611
0.000151895
0.000148557
0.0512631
0.000147874
6.76032e-05
0.0600164
0.000188509
0.063158
0.0288052
0.000214655
0.000207905
0.000156704
0.000149134
0.000148823
0.00014608
0.000147608
0.000148842
0.000181599
0.000202012
0.000164589
0.014204
0.000151862
0.0516438
0.000149954
0.0226962
0.000168426
0.000149881
0.000148816
0.0563178
0.000157836
0.0263816
0.0878271
0.000175402
0.000184553
0.000147125
0.0694127
0.000153561
0.00015486
3.98479e-05
0.000149158
0.000150535
0.000148435
0.000175986
0.0240619
0.000160963
0.000164828
0.000223026
0.0576949
0.000157079
0.00015637
0.0505796
0.000146028
0.0496929
0.000149289
0.000153492
0.0186203
0.000189931
0.000201762
0.00018384
0.000175053
0.000149475
0.000149954
0.000182336
0.00015083
0.000149529
0.000161874
0.000216017
0.000147773
0.000200957
0.0011073
0.0188902
0.000183638
0.0445033
0.000160454
0.000149102
0.00019421
0.000146996
0.000158384
0.0542519
0.046592
0.0862347
0.051563
0.000149897
0.000149562
0.000169053
0.00015157
0.000147665
0.026934
0.000216027
0.0293999
0.000194667
0.00019035
0.000148606
0.000146903
0.00345946
0.00019141
0.000154095
0.000149658
0.000201794
0.000205644
0.0653157
0.000149545
0.000148935
0.0206209
0.000150521
0.0001655
0.000146794
0.0667457
0.000148158
0.0217668
0.000148483
0.000188542
0.000170922
0.000168671
0.000164678
0.000148581
0.000155048
0.000148022
6.58628e-05
0.000150535
0.0287372
0.000151154
0.0294491
0.0625612
0.00016294
0.000147885
0.0135555
0.0423506
0.000158262
0.000189896
0.00014881
0.019488
0.000148594
0.000228439
0.000148386
0.000148
0.0216339
0.000165939
0.000148671
0.000165804
0.0651425
0.000424182
0.0755571
0.000147206
0.040089
0.000148468
0.000147818
0.000149582
0.000144543
0.00014953
0.0800921
0.0585622
0.00015006
0.000148954
0.00017
0.000147815
0.0170479
0.000195348
0.0330934
0.0652219
0.000154963
0.000201447
0.000148414
0.000172716
0.000175218
0.000148595
0.000149349
0.00056484
0.0272923
0.000183974
0.00836226
0.000183083
0.00014862
0.000170677
0.000190309
0.0203215
0.000164994
0.0034692
0.000192006
0.000149456
0.0581052
0.0559871
0.029407
0.0118402
0.0244114
0.000152649
0.000174414
0.000149248
0.00109829
0.000156951
0.000147052
0.0778585
0.000151615
0.000147889
0.000149143
0.000151304
0.0635555
0.000227026
0.000147272
0.000171141
0.0293755
0.000152137
0.0076333
0.000151633
0.000188782
0.069377
0.000148576
0.000233161
0.000159932
0.000164031
0.000486118
0.0001516
0.000240169
0.000184476
0.0691155
0.000150308
0.0268514
0.00016257
0.0407092
0.0214946
0.0217446
0.000175519
0.000148665
0.000149967
0.000149739
0.000172207
0.00014876
0.061121
0.000158651
0.000156574
0.000156924
0.000152545
0.000147145
0.000159944
0.000158112
0.000153789
0.000157288
0.0848627
9.86874e-05
0.000162181
0.000169444
0.0774664
0.000150636
0.0466313
0.000146064
0.000161078
0.000150556
0.000148406
0.000166661
0.0001483
0.000147225
0.000162823
0.000148738
0.00021192
0.000151605
0.00933598
0.00290528
0.000219278
0.000225402
0.00014947
0.0596415
0.000206592
0.000149475
0.000157917
0.000150337
0.0500658
0.000151613
0.000162666
0.00837501
0.00997746
0.000177391
0.000149566
0.0538689
0.0056514
0.0282229
0.000159839
0.000146817
0.000148224
0.000182557
0.000148639
0.0259086
0.000198247
0.000149276
0.000223412
0.000215844
0.00014833
0.0859741
0.0197596
0.000214987
0.000151415
0.0532509
0.000181431
0.000148057
0.0239948
0.000156181
0.000148104
0.000147916
0.000165614
0.000172427
0.0561645
0.0475255
0.000173172
0.0572029
0.000167061
0.000148448
0.000168458
0.00014778
0.00165312
0.000148439
0.000148187
0.000153205
0.000150729
0.0612626
0.0221417
0.000237715
0.0292686
0.0853637
0.000157138
0.000148623
0.000151605
0.000241888
0.000148368
0.000148626
0.000169055
0.0287169
0.000187374
0.000146003
0.000165478
0.000164973
0.000201843
0.00718703
0.000147297
0.000145544
0.000153899
0.0141433
0.00016181
0.0668159
0.000151839
0.000149015
0.000148163
0.000147907
0.000154074
0.000214448
0.0492821
0.055263
0.000156883
0.000148335
0.00162082
0.00015054
0.0395936
0.0373054
0.000158181
0.0267388
0.0502981
0.0400654
0.000180488
0.000164784
0.0445775
0.000163045
0.000160338
0.000169377
0.0002046
0.000150652
0.000491388
0.000148473
0.0490483
0.0225503
0.000146092
0.000152838
0.000166934
0.000233519
0.000166018
0.000148865
0.000160876
0.000151575
0.000157802
0.00023749
0.000149025
0.0458202
0.0240531
0.000148517
0.000163849
0.000172068
0.000148495
0.0455217
0.0117573
0.061646
0.0341369
0.000148222
0.000154405
0.000157252
0.000149623
0.00023743
0.000166443
0.000149685
0.000183242
0.000154857
0.0408795
0.000171103
0.0248107
0.000151444
0.000152143
0.000163608
0.000190986
0.000184079
0.000148274
0.00925357
0.0443455
0.0259265
0.0372338
0.0529011
0.055768
0.0386862
0.000148263
0.000148343
0.000149163
0.000244067
0.000175496
0.000183648
0.0136857
0.000150075
0.000145703
0.000148449
0.000227671
0.000145932
0.000158774
0.000152748
0.030431
0.000151191
0.000147031
0.000148532
0.000148361
0.000149003
0.000160007
0.000233456
0.000160437
0.0638583
0.000148311
0.000147934
0.0649767
0.0653708
0.0210657
0.0199881
0.000163805
0.0251945
0.00014677
0.000169131
0.000152125
0.000148505
0.000155356
0.0258495
0.000152445
0.00019141
0.003939
0.000150186
0.000148331
0.000155169
0.000214475
0.000149799
0.030491
0.000149081
0.000225345
0.00014877
0.000150026
0.000158465
0.00017117
0.000149086
6.64502e-05
0.0406438
0.000212652
0.0692453
0.000148615
0.0240988
4.8372e-05
0.000148339
0.0228111
0.000149599
0.000161679
0.000149396
0.000149966
0.000147648
0.000148522
0.000150298
0.000155791
0.00018403
0.000149777
0.000148599
0.000165585
0.000146956
0.0847742
0.000148773
0.000164083
0.000167025
0.0345259
0.00556841
0.000148922
0.000215094
0.000146744
0.000164056
0.000172842
0.0161511
0.000176596
0.000149802
0.000198223
0.000167738
0.000189936
3.11234e-05
0.000160938
0.000198571
0.000181623
0.000184773
0.000151092
0.000147905
0.0188079
0.0115428
0.000154658
0.000148034
0.00827607
0.000146956
0.000172113
0.000147782
0.000176753
0.0202315
0.000145156
0.0155957
0.000157485
0.000149068
0.000208723
0.000147041
0.00016129
0.0359218
0.0001702
0.0208568
0.000147618
0.000149749
0.000161868
0.000149475
0.000149608
0.000160777
0.000161791
0.000184038
0.000178232
0.00014896
0.000165446
0.000147753
0.000148372
0.000149398
0.000148353
0.000558162
0.000148508
0.000151726
0.00024244
0.000146911
0.000147956
0.0631471
0.000149633
0.0116078
0.000152807
0.0620697
0.000223621
0.000164315
0.00226737
0.000177682
0.000276083
0.000150495
0.000207058
0.000157749
0.000147814
0.000147798
0.000151683
0.000163453
0.000148289
0.000171065
0.000147339
0.000152129
0.00678592
0.0245668
0.000295365
0.00015519
0.000163328
0.0363902
0.0290731
0.000149102
0.000158463
0.00032446
0.00014979
0.000168446
0.00146057
0.0552516
0.00015968
0.00017379
0.000151048
0.000218507
0.000149894
0.000161169
0.0281056
0.000149252
0.000147939
0.084183
0.000170816
0.00024084
0.0703376
0.000194938
0.000150018
0.000147361
0.000150147
0.0313066
0.00886006
0.0541882
0.000174476
0.000148585
0.0416402
0.000148671
0.000200925
0.000155349
0.00015337
0.000172749
0.000148356
0.0872959
0.0861961
0.000147109
0.000183553
0.000176346
0.00321421
0.00017178
0.000181519
0.00023911
0.000166985
0.000127038
0.000182455
0.000148686
0.000168225
0.00016825
0.0359286
0.000148201
0.00233571
0.000172675
0.000182869
0.000149805
0.0827484
0.000157873
0.000152421
0.000147698
0.000166544
0.000166051
0.000166291
0.000148801
0.000150796
0.000171939
0.0082714
0.000175595
0.000148986
0.000150499
0.000168188
0.000217173
0.000149095
0.000180059
0.0232104
0.000167593
0.0571795
0.000171923
0.0253457
0.000239885
0.000148283
0.00186224
0.000149551
0.000154797
0.000165581
0.00016651
0.000189502
0.000176029
0.000165763
0.000167088
0.00016249
0.000153384
0.000145866
0.000169436
0.000156928
0.000157407
0.00358836
0.000156447
0.000159242
0.000147759
0.0258383
0.00017879
0.000148952
0.000155532
0.000151649
0.0288321
0.000198179
0.000165609
0.0528342
0.000190615
0.000404425
0.000189828
0.000238261
0.000147384
0.000184642
0.000148578
0.000155554
0.0255447
0.0452252
0.000243658
0.000678803
0.000148745
0.0251419
0.000147358
0.000189887
0.000154646
0.0217756
0.0801592
0.000158459
0.000148017
0.000235475
0.000161818
0.000148172
0.0373045
0.000148479
0.000152532
0.000156981
0.000149372
0.000161907
0.000151791
0.000148602
0.00016317
0.000254244
0.000171181
0.000175676
0.000148159
0.0295549
0.0460017
0.000147902
0.000228075
0.000154565
0.00015729
0.055629
0.000147882
0.000150695
0.000156742
0.0456904
0.000148204
0.000149155
0.000169799
0.0271454
0.000147783
0.0001597
0.000161679
0.00270694
0.000171706
0.000169387
0.000221597
0.000148494
0.000172452
0.000146107
0.0278439
0.000161002
0.000148429
0.000159793
0.00018655
0.000148925
0.000149686
0.000202725
0.049687
0.000150499
0.0292263
0.000149202
0.000146074
0.000181652
0.00014819
0.000148516
0.0872387
0.000149814
0.000170935
0.000207894
0.0524885
0.00198036
0.000148298
0.000152717
0.000156516
0.00014841
0.000148641
0.000148587
0.00966566
0.000149264
0.000146728
0.000199036
0.000147917
0.000147099
0.00016164
0.000199022
0.000236239
0.000166442
0.000176691
0.000153001
0.0532666
0.000175749
0.000163988
0.000172104
0.00017163
0.000187824
0.0248571
0.000170886
0.0303744
0.0279559
0.0231394
0.000155475
0.0001484
0.000167369
0.000159295
0.000147901
0.000150548
0.000177766
0.000149596
0.000149918
0.000148304
0.00014548
0.000153624
0.000149175
0.0214434
0.000147996
0.0460008
0.000148463
0.000173265
0.000150787
0.000199321
0.00017311
0.000148685
0.0597319
0.000152639
0.000149475
0.000171302
0.00014765
0.000158894
0.000148787
0.0498828
0.000153679
0.000171283
0.000170374
0.0569549
0.000157993
0.000143445
0.00345442
0.000169388
0.000149417
0.000152001
0.000175355
0.000180563
0.0242845
0.000147016
0.0321798
0.000149019
0.000169134
0.0814151
0.000165236
0.0196564
0.000155176
0.000164347
0.000154254
0.0858968
0.000161826
0.000148854
0.000168535
0.000199479
0.000152521
0.000148332
0.000148872
0.0641452
0.000149664
0.000157316
0.0668662
0.000155506
0.00014829
0.000171265
0.000154785
0.045244
0.000145719
0.000148438
0.000147101
0.000154855
0.000150376
0.000149458
0.000183123
0.062398
0.000148169
0.000148633
0.0481547
0.000150231
0.0160225
0.000154402
0.0797531
0.000147767
0.000153484
0.000146742
0.0316162
0.068873
0.000159232
0.000168931
0.000155586
0.000148225
0.000148717
0.0501817
0.000148816
0.000189821
0.000147521
0.000173674
0.00014922
0.0615319
0.000146949
0.000175025
0.000147788
0.000219003
0.000311337
0.000147439
0.000166124
0.0880717
0.000184585
0.0265896
0.0166923
0.000202836
0.000151901
0.000165488
0.000190127
0.0148898
0.000150097
0.00017062
0.00015665
0.000148492
0.028322
0.0372749
0.000184499
0.000205963
0.000236802
0.000162632
0.0607954
0.000147836
0.000147346
0.000187312
0.0861034
0.000214718
0.000199437
0.00371238
0.000146794
0.0842791
0.0363272
0.0809163
0.000149298
0.0308506
0.0446972
0.000335494
0.000412098
0.0464657
0.000190483
0.000161585
0.000202763
0.000154455
0.000148386
0.00136373
0.00019159
0.00014574
0.0355731
0.000149214
0.000158521
0.000172509
0.000155604
0.000747896
0.000160347
0.0121262
0.000174751
0.000154976
0.0197382
0.0720016
0.000201812
0.000149877
0.000154606
0.000183114
0.000168356
0.000146848
0.000173156
0.000167267
0.000197056
0.00014832
0.000208634
0.000153676
0.000168505
0.0376428
0.000121729
0.000151347
0.000184696
0.0327366
0.000149242
0.000151057
0.0778573
0.000225177
0.000154254
0.000155176
0.00014855
0.000174195
0.000157139
0.0501119
0.000189039
0.000150257
0.000149443
0.000166331
0.000159314
7.32776e-05
0.0285936
0.000147669
0.000148217
0.000158296
0.00014925
0.000154315
0.000151327
0.000151388
0.000154749
0.000147941
0.000154259
0.000149304
0.000176168
0.0129507
0.000149743
0.0693306
0.0159685
0.000146122
0.000182012
0.000186516
0.000178843
0.000150774
0.00019163
0.000158808
0.0001684
0.00016192
0.000152276
0.000149343
0.023912
0.000161147
0.0210836
0.000150729
0.000148478
0.000148129
0.000172899
0.000148102
0.000176094
0.000182374
0.000296749
0.000147543
0.00015128
0.0112027
0.0464046
0.000146735
0.000194291
0.000220929
0.0135467
0.00196595
0.000150304
0.000149741
0.000193151
0.00262389
0.0122761
0.000171066
0.000233588
0.000149499
0.000148044
0.000164491
0.000149267
0.000149094
0.000198881
0.000149754
0.000169253
0.000147728
0.07246
0.0695547
0.0387077
0.035938
0.0433216
0.000149078
0.000148914
0.0855001
0.000147221
0.000147558
0.000146101
0.000183093
0.0715061
0.0256096
0.000156288
0.000149728
0.000151984
0.000162941
0.0295774
0.000148125
0.0178215
0.0740776
0.000149215
0.000149124
0.036066
0.000188716
0.000153269
0.000148319
0.0749936
0.0442213
0.000148974
0.000216683
0.000149671
0.0483058
0.000127669
0.000153982
0.0264355
0.0158852
0.0571548
0.000147566
0.000150049
0.000149611
0.000149898
0.0667396
0.000147893
0.000196592
0.000228762
0.0224436
0.000151197
0.00017385
0.000175683
0.000173644
0.0839975
0.0511082
0.000145501
0.000157115
0.000157259
0.000203093
0.0570367
0.00014532
0.0246292
0.000160662
0.00017322
0.000150789
0.000147526
0.000222578
0.000168328
0.0188008
0.000149265
0.000173739
0.000150925
0.000199521
0.000154731
0.0608234
0.0131306
0.000203155
0.000193332
0.000148256
0.000153051
0.00018988
0.000181563
0.0600303
0.0880593
0.000148916
0.0211157
0.000170328
0.0719761
0.000159451
0.000170272
0.000169025
0.000149314
0.0641093
0.000148419
0.000164791
0.0315965
0.071231
0.000642469
0.0701973
0.000157987
0.000175653
0.00014713
0.0729265
0.000157035
0.0439149
0.000147071
0.0519667
0.000145205
0.000148025
0.000164238
0.000158591
0.000159925
0.000148424
0.0383602
0.000174218
0.000147918
0.000166028
0.0324602
0.000222017
0.000148572
0.0557545
0.000154027
0.000166968
0.000165376
0.000145894
0.000177921
0.000147996
0.0246033
0.000172748
0.000159448
0.000148329
0.000229086
0.000169633
0.000147073
0.0501428
0.0101105
0.000224103
0.00014692
0.00165191
0.000148878
0.000190811
0.000160108
0.00018091
0.0154222
0.0372096
0.000159566
0.0701501
0.000169668
0.00015779
0.000147103
0.0613872
0.000179299
0.000189535
0.000165379
0.00014959
0.0250396
0.000183049
0.000236792
0.00024642
0.087484
0.0385867
0.00585362
0.0327432
0.000158048
0.000158742
0.000148588
0.000149245
0.000145471
0.000210348
0.000158662
0.000159922
0.0618878
0.000147879
0.000147004
0.000172639
0.00020008
0.000159929
0.000147241
0.0647411
0.000154316
0.000176259
0.000149445
0.0225256
0.000157226
0.0788515
0.000166544
0.000165622
0.000171377
0.000148546
0.0105091
0.000186312
0.000179923
0.000148769
0.000147262
0.0236253
0.0440249
0.0465709
0.000148205
0.000180122
0.000412936
0.000149258
0.000147973
0.000149092
0.0699843
0.000171589
0.000163208
0.000160159
0.000157922
0.0517049
0.000179089
0.000224076
0.000158785
0.000164585
0.000145458
0.000182782
0.000173029
0.000148404
0.0489325
0.0532444
0.0624765
0.0485761
0.040949
0.083861
0.0863816
0.00015144
0.000148353
0.0717382
0.0378388
0.0392503
0.000148886
0.000170513
0.000148587
0.000148141
0.0142677
0.0728802
0.0001823
0.000148035
0.000121337
0.000191318
0.000174452
0.0376907
0.00287835
0.00021072
0.000147296
0.0605718
0.0062915
0.000225107
0.000165313
0.000171716
0.000149273
0.000147289
0.000168313
0.000172235
0.000154039
0.000171588
0.0001599
0.000154505
0.000236901
0.0357529
0.000159297
0.000173049
0.045656
0.000222306
0.000148682
0.000192343
0.000230258
0.0273574
0.000169297
0.000149493
0.000161522
0.000157418
0.000158534
0.000145899
0.000159006
0.000164101
0.000175374
0.000200999
0.000149497
0.000151834
0.0382098
0.052017
0.0693365
0.000218953
0.000197835
0.000144996
0.000148508
0.000162055
0.00014697
0.0871987
0.000148485
0.000149812
0.000146418
0.0487249
0.0186503
0.000150014
0.00018253
0.000158605
0.000161735
0.000161479
0.000159803
0.000170985
0.00016657
0.0208429
0.000157856
0.0400539
0.000167264
0.0682793
0.000160464
0.000147426
0.000147023
0.000192191
0.000202558
0.000146795
0.000163025
0.0001608
0.000175694
0.0334609
0.0238047
0.0378767
0.000149811
0.000145334
0.000158778
0.000164573
0.000148313
0.000179345
0.000152769
0.029521
0.000293208
0.00016597
0.000148494
0.0514059
0.000155832
0.0351525
0.0368848
0.000239807
0.000153691
0.000196867
0.0442705
0.000184225
0.0504434
0.000176915
0.000148529
0.000167281
0.000148265
0.0830689
0.000154057
0.000162466
0.00012131
0.0658354
0.000148311
0.000148262
0.0407221
0.000169516
0.0801643
0.000158791
0.000148317
0.000170759
0.000219192
0.000162513
0.0177741
0.000164467
0.000768542
0.00015557
0.00014961
0.000148179
0.000214188
0.000150592
0.000181912
0.000148644
0.000148785
0.000209057
0.000158062
0.000149308
0.000148208
0.000164467
0.000155297
0.000173452
0.000168668
0.000155295
0.000177881
0.000148715
0.000190582
0.000162247
0.000172139
0.000166853
0.000160898
0.000174199
0.000163095
0.000148136
0.00018413
0.0476597
0.0348609
0.00014952
0.000520561
0.0347353
0.000148221
0.00015059
0.000226109
0.0400045
0.000156208
0.0343858
0.000242762
0.000149475
0.000190003
0.000145417
0.000157467
0.000178676
0.0351991
0.000203348
0.000248575
0.000119431
0.0481411
0.0527901
0.000153464
0.0450744
0.00014842
0.00728449
0.0497831
0.000148614
0.000148437
0.0339324
0.000149044
0.000148529
0.000199254
0.0596295
0.000219189
0.000158146
0.0449008
0.00014859
0.0518941
0.0392756
0.000149208
0.000148188
0.0113854
0.0434698
0.0365533
0.040247
0.0329161
0.000147331
0.000151573
0.000179419
0.000182824
0.000148503
0.00021949
0.000148352
0.0411858
0.000238487
0.000164244
0.000244744
0.0420831
0.000244797
0.000233645
0.00016546
0.0187029
0.00025002
0.000156707
0.000145689
0.0108672
0.000161426
0.000147123
0.0818606
0.000148235
0.0138204
0.000149154
0.0712261
0.000157125
0.000148177
0.00573752
0.000156037
0.000160587
0.0304938
0.0789683
0.000562384
0.000160275
0.000175273
0.000151863
0.000171442
0.000199322
0.000171822
0.00014935
0.000335925
0.000180467
0.000161767
0.0319365
0.000170623
0.000162326
0.000197767
0.000183337
0.000174637
0.000148148
0.000205967
0.000147051
0.000199467
3.14347e-05
0.0407539
0.000147144
0.000168246
0.0250683
0.00015291
0.000178244
0.000164397
0.000170225
0.0766827
0.000180755
0.000151944
0.0265653
0.000147187
0.0507854
0.000148773
0.000152104
0.000199405
0.0475965
0.000161911
0.000188338
0.000221001
0.00016432
0.000149774
0.000176797
0.000171762
0.0619847
0.000155289
0.0035389
0.000202821
0.000164361
0.000161308
0.000177799
0.000166372
0.000167495
0.000180868
0.000162653
0.000154364
0.000149688
0.000855668
0.000148494
0.000160142
0.00014549
0.000196606
0.000160752
0.000181056
0.0426836
0.000151224
0.000218118
0.00014466
0.000149194
0.000149216
0.000149326
0.000158887
0.000147675
0.000190453
0.0252529
0.000181129
0.000173964
0.000156439
0.000148926
0.000136618
0.00014865
0.0379363
0.0419303
0.0277317
0.000205244
0.000163936
0.000159696
0.00014914
0.000158136
0.000170371
0.000169048
0.0477103
0.00018119
0.0570664
0.000205988
0.000149352
0.000146903
0.0344595
0.000148199
0.000162082
0.000166274
0.000236687
0.000153198
0.0663265
0.00014909
0.000156026
0.000148594
0.000150545
0.000176668
0.000196432
0.000149688
0.000165619
0.00015965
0.000174735
0.000181031
0.000216551
0.000198667
0.000210501
0.000202844
0.000158572
0.000151705
0.00018093
0.0470474
0.0836033
0.0530314
0.000164676
0.0345051
0.000196133
0.000151612
0.000147982
0.000183259
0.000148906
0.000165617
0.0220767
0.00014808
0.000147769
0.000284463
0.0164662
0.000176348
0.000475161
0.000149045
0.0273851
0.000168973
0.0696716
0.00015726
0.000148719
0.0525872
0.000164943
0.000148584
0.000171701
0.000149666
0.000189424
0.000160036
0.000164178
0.084804
0.000159632
0.0559442
0.000147713
0.0517144
0.000149098
0.000157134
0.000150399
0.000171192
0.000148877
0.000166105
0.0510155
0.000207724
0.000174795
0.000161272
0.000168191
0.000148186
0.000149168
0.000152331
0.00312817
0.000156749
0.0735184
0.0349458
0.000188169
0.000149403
0.000191572
0.000204213
0.000200905
0.000158233
0.0386206
0.000148308
0.000144972
0.000148172
0.011366
0.000149232
0.000148524
0.0525657
0.000148113
0.00020015
0.000171698
0.000148131
0.0610106
0.000161203
0.0707062
0.000148425
0.00358094
0.000151394
0.000167052
0.0284445
0.000182544
0.00014793
0.000159846
0.0428146
0.000165431
0.00019291
0.000163266
0.000156867
0.000186565
0.000158368
0.000150251
0.0068245
0.000160576
0.00016117
0.000204308
0.000148202
0.000147631
0.000149197
0.00016434
0.000149106
0.000155349
0.061346
0.0152658
0.000171274
0.00944115
0.000182986
0.000167723
0.0673909
0.0489204
0.000150056
0.0157419
0.0577669
0.0361347
0.00174676
0.000162251
0.0403268
0.0549708
0.0454041
0.00186622
0.0836017
0.000162921
0.000169416
0.000157881
0.000158221
0.000149694
0.000323385
0.000149895
0.0183891
0.000174243
0.000198242
0.000145236
0.000186641
0.000163734
0.000152119
0.000149951
0.000148681
0.000173726
0.000153795
0.00015026
0.00017228
0.0553656
0.000154747
0.000191278
0.000146847
0.000173666
0.000169147
0.000149234
0.000156399
0.000147678
0.0714931
0.0632978
0.000206605
0.00562691
0.00016133
0.000188914
0.000148815
0.000172692
0.00014881
0.00015
0.000149527
0.0581476
0.000146973
0.000175909
0.000237329
0.000157649
0.000163469
0.000148161
0.0665339
0.00020526
0.04045
0.0340718
0.000200295
0.00023389
0.0318702
0.000236946
6.64806e-05
0.016364
0.000174174
0.000159013
0.00274596
0.0744417