/*--------------------------------*- C++ -*----------------------------------*\
| =========                 |                                                 |
| \\      /  F ield         | OpenFOAM: The Open Source CFD Toolbox           |
|  \\    /   O peration     | Version:  v2012                                 |
|   \\  /    A nd           | Website:  www.openfoam.com                      |
|    \\/     M anipulation  |                                                 |
\*---------------------------------------------------------------------------*/
FoamFile
{
    version     2.0;
    format      ascii;
    class       volScalarField::Internal;
    location    "800";
    object      V0;
}
// * * * * * * * * * * * * * * * * * * * * * * * * * * * * * * * * * * * * * //

dimensions      [0 3 0 0 0 0 0];


value           nonuniform List<scalar> 
13851
(
0.00531058
0.0201099
0.026534
0.00134029
0.172249
0.0236025
0.0282836
0.152378
0.00141713
0.077184
0.0091553
0.0980648
0.0348057
0.00115765
0.0128301
0.00429919
0.00118529
0.0494279
0.00369346
0.00601657
0.0136664
0.0221972
0.00165135
0.181853
0.00301066
0.00740225
0.00312885
0.00282594
0.00183473
0.0856989
0.00185562
0.0292123
0.0059022
0.00224988
0.00893645
0.00212332
0.183604
0.00233202
0.00186494
0.0426683
0.00187351
0.00185359
0.00138009
0.00330407
0.00198619
0.0691247
0.165267
0.00397603
0.0332248
0.0407235
0.00138192
0.0400803
0.00485563
0.0143806
0.00156877
0.0313387
0.00514772
0.00159664
0.00334636
0.0014567
0.103545
0.00340757
0.0939248
0.0244837
0.00379155
0.00307049
0.0011306
0.00497095
0.0461372
0.00138589
0.0014791
0.0107487
0.0415852
0.00130872
0.0139931
0.024071
0.00162509
0.122617
0.0034411
0.0827587
0.0418737
0.00405997
0.011231
0.00151183
0.00142423
0.00185423
0.0199002
0.00137635
0.0634359
0.00147789
0.0409268
0.0261966
0.00135332
0.00164335
0.00178608
0.00315305
0.0698469
0.00492279
0.00132507
0.00477365
0.00426694
0.00838789
0.00815622
0.0405747
0.0669808
0.0106821
0.0756301
0.00136181
0.0273684
0.0482864
0.0141868
0.0783735
0.0042354
0.00693686
0.00492555
0.017318
0.0888018
0.155876
0.0010913
0.00173331
0.00390816
0.0768392
0.0339018
0.00129084
0.00418639
0.00454758
0.0716503
0.00795493
0.00171758
0.0101115
0.0200361
0.0167662
0.00257016
0.00213687
0.00756765
0.00177435
0.00660652
0.00137151
0.0110747
0.0115085
0.00434361
0.0295766
0.054569
0.00398441
0.0026547
0.0262723
0.127069
0.00162479
0.00168496
0.00655144
0.00340477
0.00513265
0.00654306
0.00401398
0.0360108
0.0534556
0.135901
0.00146597
0.00797141
0.0223383
0.176945
0.00199911
0.0110221
0.00524498
0.00123668
0.0017491
0.00208307
0.00149755
0.0154772
0.0021742
0.107068
0.110082
0.00897523
0.161864
0.00175007
0.00346509
0.00416657
0.0970855
0.0143461
0.00493037
0.00428694
0.00384918
0.0152346
0.0145268
0.00135309
0.0013912
0.00494764
0.0127903
0.0374751
0.0799226
0.00263689
0.011634
0.000860253
0.0228381
0.0263429
0.00510366
0.00397808
0.0436447
0.04635
0.0064537
0.00426412
0.00168581
0.00206516
0.0136532
0.00158944
0.00145185
0.0236758
0.00938677
0.00159601
0.0192945
0.0044009
0.0316239
0.00350309
0.159116
0.00971649
0.0196593
0.0428725
0.00326647
0.0474101
0.00116073
0.107958
0.00538423
0.00135393
0.00192711
0.012446
0.00896407
0.169518
0.00431729
0.0955216
0.0113739
0.00187806
0.014252
0.0238018
0.10242
0.00176589
0.0945633
0.00194182
0.00178476
0.00511085
0.161876
0.00269097
0.00147138
0.00221022
0.0048324
0.0161713
0.00309264
0.00345206
0.0136439
0.00317828
0.0132861
0.00126151
0.0056279
0.174225
0.0206067
0.00417862
0.00183776
0.00141003
0.0688756
0.00386793
0.0569263
0.00400965
0.00459458
0.0135478
0.00966126
0.00535018
0.0569697
0.00703153
0.0050643
0.00340575
0.0965655
0.0426439
0.0109128
0.00211228
0.00145596
0.00929423
0.0645531
0.00359839
0.00396321
0.00574055
0.0111545
0.00181967
0.00129588
0.0166443
0.0120911
0.00241876
0.0672568
0.128551
0.00425621
0.00826269
0.0817999
0.15539
0.0778155
0.160005
0.014785
0.134293
0.00143171
0.010763
0.0430574
0.00183977
0.00101312
0.039745
0.00487094
0.00129313
0.0271479
0.0361157
0.0110483
0.00133867
0.00171341
0.00793319
0.166843
0.00249993
0.100285
0.00771016
0.00135293
0.00324875
0.0295578
0.00223901
0.003119
0.00186428
0.0046234
0.00793847
0.00173485
0.00162766
0.00259016
0.0430741
0.00144877
0.00135617
0.00192798
0.0023093
0.0120159
0.00860769
0.01495
0.00112285
0.00778206
0.144968
0.155408
0.0167539
0.00163724
0.00132601
0.0784908
0.00174246
0.014821
0.0130999
0.0200799
0.001083
0.00419636
0.00439957
0.0254218
0.0221095
0.0015842
0.0354194
0.00373514
0.0195692
0.0105841
0.0127698
0.055639
0.048345
0.00516685
0.00433618
0.00519236
0.00280963
0.00177426
0.0178026
0.00162626
0.00391582
0.0845406
0.00299839
0.00606765
0.00147547
0.0198979
0.0071383
0.00337163
0.00246353
0.00550457
0.00143685
0.0263168
0.00274719
0.00153461
0.0157279
0.00112338
0.0144347
0.00187527
0.0132187
0.010431
0.0055085
0.00312491
0.0482959
0.0206322
0.00657039
0.0122963
0.0491428
0.00870062
0.00191589
0.0328397
0.00955665
0.00150387
0.0263369
0.00277525
0.00902689
0.00190119
0.0193575
0.00837788
0.0021524
0.00411695
0.0112523
0.00148403
0.0013983
0.00279842
0.0493447
0.0050042
0.0127864
0.00763116
0.0655864
0.00140982
0.00187111
0.00256612
0.023037
0.00529964
0.00332753
0.00141532
0.0960507
0.00132274
0.0041345
0.00152471
0.0109695
0.0033155
0.0448337
0.15368
0.00129308
0.00299583
0.0673845
0.016119
0.00904567
0.106753
0.00192518
0.00748689
0.00650366
0.0200556
0.0324594
0.0412357
0.00262252
0.0530157
0.0468243
0.00276072
0.00211057
0.0185539
0.00334012
0.0930157
0.126857
0.0268889
0.00466612
0.00923998
0.0482693
0.0325741
0.00358255
0.0354639
0.00175022
0.13383
0.0194292
0.00191731
0.00804927
0.149562
0.1034
0.0204723
0.0412358
0.00265735
0.0023587
0.0137993
0.00112143
0.025816
0.0950843
0.00152303
0.00325775
0.0100485
0.0398409
0.00149026
0.0110009
0.00167426
0.0307804
0.0153927
0.00516346
0.013736
0.00190472
0.00274347
0.00298068
0.0175215
0.00399638
0.0546244
0.00160744
0.0113183
0.00328948
0.0161954
0.0261004
0.00962449
0.00844642
0.147681
0.00130961
0.00134637
0.00222213
0.0013006
0.00269877
0.00154135
0.00344106
0.0139469
0.133473
0.00271662
0.0748978
0.0608513
0.011987
0.00188059
0.0266233
0.0269672
0.00502495
0.00832259
0.060397
0.00242499
0.066509
0.00172816
0.00323012
0.0700929
0.0293391
0.003724
0.00287061
0.0954627
0.00250027
0.00250959
0.0702474
0.00177845
0.00387788
0.00468724
0.020481
0.00267893
0.00142175
0.0591929
0.00350422
0.0507507
0.0675423
0.00287291
0.00146214
0.0134532
0.00981219
0.0678529
0.00654941
0.00172542
0.00172463
0.0632433
0.00110383
0.0536117
0.0409222
0.0103661
0.0153366
0.0903936
0.0186612
0.00168543
0.00384812
0.00156341
0.0289587
0.0552709
0.00187245
0.12183
0.00548219
0.0208874
0.0145335
0.0155864
0.00192483
0.00142921
0.019872
0.00157785
0.0310635
0.00801903
0.00187462
0.00152927
0.040835
0.0468175
0.0063308
0.00135462
0.00358486
0.0081837
0.00170371
0.0139607
0.0120375
0.00191405
0.00238332
0.00546273
0.00154874
0.00372217
0.0016726
0.0340167
0.00275468
0.00317719
0.100283
0.00134269
0.00217252
0.0143597
0.0109276
0.0403194
0.00151005
0.00583867
0.00205784
0.0445487
0.170064
0.012852
0.00914069
0.129688
0.00159915
0.163239
0.00402292
0.0228371
0.00694926
0.0370039
0.0473385
0.00995883
0.00117256
0.0110382
0.00154831
0.0135108
0.0991056
0.0663286
0.00846583
0.0280739
0.00575006
0.024839
0.0099613
0.00329602
0.122959
0.00119343
0.153623
0.00576447
0.0013745
0.00199207
0.0116915
0.00200091
0.00555692
0.00445109
0.00178848
0.0580461
0.001798
0.0130669
0.0144776
0.00147537
0.00307797
0.0586493
0.00618658
0.0420166
0.00164247
0.00126738
0.0327001
0.00504849
0.00212217
0.170399
0.139694
0.00561798
0.00109214
0.00260424
0.0220617
0.00543372
0.0347231
0.0600182
0.00282775
0.004787
0.00498916
0.111196
0.00388136
0.00822291
0.00789068
0.0248036
0.0250723
0.00672726
0.013246
0.00488571
0.0108022
0.0103986
0.00559128
0.00236521
0.00321353
0.0019178
0.00283568
0.00296304
0.00141602
0.0100539
0.00253871
0.00446273
0.0483538
0.0135314
0.00378379
0.0173507
0.0862943
0.0838203
0.00580878
0.00133235
0.0184356
0.00160937
0.0997779
0.00247526
0.00410792
0.00127623
0.00597255
0.0183775
0.0248723
0.0015228
0.00394295
0.0111894
0.00255741
0.0372266
0.00278809
0.00497297
0.00414555
0.0150327
0.00359115
0.0385231
0.155666
0.0256193
0.0647902
0.00176033
0.127321
0.00352092
0.00179183
0.00553556
0.00169836
0.00100793
0.00386503
0.00357975
0.0138888
0.11762
0.0403751
0.10131
0.0695371
0.152834
0.00773646
0.00514776
0.00683718
0.00283569
0.0259652
0.00155395
0.170602
0.00130559
0.00962684
0.150273
0.105188
0.00192571
0.0209199
0.00222094
0.00205863
0.00804493
0.00570967
0.0677065
0.00209414
0.0175301
0.0252408
0.00279341
0.12224
0.0340486
0.0512193
0.00957712
0.00127006
0.0172256
0.0150782
0.00367035
0.00167898
0.0129156
0.0145312
0.00188128
0.10671
0.00201511
0.149897
0.0315347
0.00300575
0.006425
0.00554272
0.0052688
0.00972102
0.123002
0.159755
0.00737397
0.0333599
0.102053
0.0185095
0.00368196
0.105115
0.00393033
0.00274427
0.0026708
0.00556551
0.00170706
0.0102709
0.111638
0.00554381
0.0945984
0.0185943
0.00239518
0.00183394
0.00183695
0.00192837
0.0442335
0.0325692
0.00557077
0.0248821
0.0680921
0.00157418
0.00374314
0.0010802
0.00507456
0.00610981
0.0521438
0.0647768
0.00226751
0.00615728
0.0277682
0.156115
0.00367478
0.00429643
0.00161209
0.0358742
0.151688
0.00116608
0.0306486
0.0144027
0.126042
0.00185997
0.144946
0.00169213
0.0815042
0.00489811
0.0122719
0.00618311
0.0126947
0.0422874
0.019977
0.148661
0.00312089
0.0287293
0.00157237
0.0267666
0.00277406
0.00174768
0.0137986
0.109397
0.00148029
0.00231617
0.0189154
0.00636511
0.0421326
0.00130014
0.0468091
0.00309432
0.0942549
0.113215
0.00240489
0.0128723
0.100917
0.0111946
0.00153126
0.00173014
0.00201098
0.0706825
0.00140516
0.0857151
0.134698
0.0343394
0.114224
0.125523
0.00202377
0.00219777
0.0366508
0.158768
0.0128554
0.041024
0.00168826
0.00477001
0.000940358
0.00169623
0.0184572
0.00445862
0.0966126
0.012992
0.00503728
0.0658908
0.13723
0.0033393
0.00111662
0.00760406
0.00108352
0.00736238
0.0851155
0.0110017
0.00594959
0.00123836
0.0147691
0.00251339
0.00561459
0.116277
0.00167997
0.00152463
0.00120176
0.0026146
0.00248353
0.0176823
0.00282026
0.0369469
0.00296059
0.0181752
0.150613
0.00172929
0.0248006
0.129738
0.0383232
0.029093
0.00163989
0.00387952
0.0746055
0.0106448
0.00135935
0.0260069
0.00154928
0.0226894
0.00567519
0.00182302
0.121886
0.0031822
0.0123275
0.0138632
0.00176348
0.026143
0.00425534
0.00891675
0.0016482
0.042114
0.00123178
0.0158257
0.00129333
0.00126604
0.00120134
0.010199
0.0418919
0.041204
0.179318
0.0112697
0.0976527
0.00158765
0.0153147
0.014464
0.0111558
0.0208452
0.0786948
0.0186927
0.0177867
0.0231971
0.0170801
0.00168042
0.0031127
0.0157684
0.00855953
0.00218523
0.0303574
0.00166177
0.106283
0.0115326
0.0256327
0.0498131
0.00937766
0.0841062
0.0787941
0.00761469
0.0406578
0.00382518
0.0286967
0.00116126
0.00319109
0.00354922
0.00341209
0.0452185
0.00161158
0.00462787
0.137312
0.0153246
0.0281402
0.0018746
0.0224579
0.00772659
0.00294638
0.00142198
0.00652999
0.0408371
0.0020812
0.00334154
0.00233028
0.0129263
0.095781
0.0597023
0.0061782
0.0406959
0.00124699
0.00451603
0.121914
0.00366685
0.00311086
0.0458877
0.00184768
0.00151709
0.00452168
0.022846
0.00192441
0.00866448
0.113639
0.00109894
0.0136716
0.0461525
0.0695765
0.014765
0.0111957
0.00165405
0.00144664
0.0114041
0.00161337
0.0144475
0.0460554
0.00417756
0.0830167
0.00255763
0.0684004
0.134075
0.0172302
0.0385373
0.00161568
0.00148245
0.00344867
0.00129407
0.00212178
0.0135626
0.0425794
0.0288804
0.0038071
0.0599097
0.141607
0.0097402
0.00286412
0.00341459
0.150945
0.0102665
0.0126279
0.00481013
0.00106216
0.055211
0.0995399
0.0284977
0.00333652
0.0185803
0.0017087
0.024354
0.15336
0.0571046
0.0650295
0.0212456
0.00406328
0.00181118
0.0016448
0.0116819
0.0891168
0.00261196
0.0328466
0.00274669
0.00139112
0.0115767
0.00095851
0.00175155
0.00161288
0.00764137
0.0145072
0.00139261
0.0152977
0.0107279
0.00455125
0.00363196
0.0384558
0.00154667
0.0464426
0.00199531
0.0026571
0.101731
0.0181886
0.00837113
0.00347157
0.0144231
0.137542
0.018163
0.0245366
0.0243311
0.00203557
0.0943007
0.00220837
0.00123844
0.0458914
0.0146732
0.0111833
0.0959779
0.00153954
0.00127742
0.00165138
0.00142169
0.0858116
0.0213684
0.0176446
0.0330396
0.00364101
0.0125362
0.140319
0.00658803
0.0176208
0.0022429
0.0120562
0.00108251
0.0243235
0.0216188
0.00664211
0.00596679
0.00675165
0.05251
0.0012032
0.00148203
0.00137755
0.00124763
0.00195735
0.00154195
0.00136008
0.05273
0.0530092
0.0415572
0.00345123
0.0103246
0.00696589
0.0012392
0.0416339
0.120849
0.067892
0.00360565
0.100102
0.019514
0.0184192
0.00186478
0.021047
0.0759215
0.100162
0.0451918
0.178045
0.00987683
0.00363922
0.00877439
0.00226344
0.0589011
0.0599765
0.00174487
0.0017511
0.00126364
0.00266162
0.00640925
0.00257027
0.0760691
0.00612442
0.0252036
0.0823849
0.0172022
0.00138662
0.0325331
0.00561085
0.00212062
0.0407994
0.043088
0.0152788
0.00345147
0.154675
0.00178791
0.0465915
0.00354791
0.0989582
0.0392788
0.0214952
0.00460922
0.0295083
0.00278206
0.0010812
0.00366247
0.00199313
0.046128
0.00133386
0.00293268
0.0635537
0.00270321
0.0343837
0.0064565
0.0365787
0.0450621
0.102611
0.0518362
0.031298
0.0134569
0.00721478
0.0398478
0.0942718
0.00672531
0.0698634
0.00189144
0.102824
0.0142779
0.0133594
0.00137722
0.00297063
0.0955436
0.00402505
0.119544
0.0153868
0.00653428
0.00302217
0.0101934
0.155729
0.00542927
0.00512011
0.00563125
0.00359512
0.00905412
0.00589141
0.00724417
0.00670837
0.0200806
0.0673788
0.00227532
0.00131108
0.0218153
0.0890591
0.00124617
0.103837
0.0106199
0.0858167
0.00626134
0.00306404
0.0820957
0.00104196
0.0201232
0.145588
0.00425479
0.139122
0.00598166
0.00140608
0.0102289
0.00268876
0.0861487
0.160673
0.00729115
0.130929
0.119927
0.0197175
0.0162357
0.0070374
0.00529069
0.0334331
0.0096667
0.0637236
0.0921663
0.12746
0.0624142
0.00281573
0.0489887
0.0142573
0.0033566
0.105533
0.113488
0.00135691
0.130408
0.00114716
0.0318164
0.00191494
0.00346665
0.00594886
0.00225338
0.00643885
0.00187539
0.0333337
0.00412583
0.0171324
0.0664519
0.047641
0.0146643
0.0165554
0.0459025
0.00760559
0.084987
0.0207314
0.00131021
0.00123368
0.0021735
0.01885
0.00722203
0.00133437
0.0015849
0.108961
0.0215781
0.00220545
0.0455666
0.0116296
0.00210266
0.00173523
0.0184936
0.0111413
0.0273685
0.00311785
0.137272
0.00852002
0.00247086
0.0301554
0.138684
0.00173838
0.00969696
0.00344408
0.00195649
0.00532769
0.0293825
0.0795378
0.0302552
0.0013246
0.00290634
0.00238731
0.00811788
0.0485322
0.00104698
0.0890915
0.00445432
0.0156865
0.0308384
0.0105099
0.0791496
0.00165457
0.00217735
0.0745328
0.00692099
0.00871164
0.00238815
0.00956036
0.00772327
0.00332351
0.0132018
0.00305857
0.00586491
0.0886686
0.0120815
0.00437007
0.00246539
0.0832402
0.00250825
0.00937763
0.00761638
0.159078
0.00192384
0.0215427
0.022087
0.0636626
0.00977601
0.011806
0.00602541
0.161529
0.0283918
0.00646696
0.00122603
0.00868955
0.0918962
0.0292219
0.0134852
0.00394008
0.0896522
0.00563879
0.00208536
0.0081992
0.00190102
0.0119586
0.00123322
0.00357394
0.0458232
0.00274424
0.132673
0.0210787
0.0110905
0.0131271
0.00549909
0.00964507
0.00968812
0.0101228
0.0146169
0.0171887
0.103083
0.00555892
0.0227654
0.0144195
0.00297339
0.0182259
0.0142626
0.0880748
0.00144116
0.00581141
0.0322818
0.0244335
0.0219441
0.00121063
0.00456405
0.0106261
0.00190741
0.00307024
0.00286199
0.00549131
0.00291895
0.0723954
0.00260234
0.116836
0.0144207
0.00278013
0.00147531
0.00277646
0.00215155
0.072891
0.00111577
0.0754929
0.00644315
0.0141167
0.00247072
0.00186978
0.0164128
0.150892
0.0036517
0.00745904
0.0662478
0.00152093
0.0733123
0.0178828
0.0220146
0.0359078
0.0147781
0.0227425
0.0589959
0.0120814
0.00374162
0.0120496
0.00897463
0.0570883
0.00124349
0.00185197
0.118359
0.00329404
0.0184956
0.0122004
0.00237108
0.114026
0.0289757
0.0142273
0.0011487
0.0692397
0.145834
0.0139674
0.00236628
0.119629
0.0131355
0.0110838
0.0029423
0.0094296
0.0117046
0.00444626
0.0720146
0.00323032
0.111558
0.00125042
0.0138245
0.0658001
0.0193276
0.00576521
0.134936
0.044114
0.00449489
0.00193481
0.0351629
0.00128267
0.112882
0.11024
0.00803666
0.0872601
0.0464835
0.00211353
0.151996
0.0114397
0.00531769
0.0016409
0.00303314
0.0559681
0.0141605
0.0140897
0.126637
0.0334233
0.0870594
0.00267046
0.125276
0.00316833
0.00407221
0.103724
0.0682236
0.0154213
0.00393539
0.00332913
0.00646775
0.00731685
0.0197408
0.00139843
0.00618915
0.0152148
0.0115295
0.00659713
0.00566033
0.00132163
0.0118059
0.00150287
0.0021956
0.00159342
0.023638
0.0411007
0.0114331
0.00960068
0.0658085
0.030937
0.00502458
0.161676
0.0364314
0.0599773
0.0916504
0.028721
0.0450663
0.00122812
0.133136
0.0019965
0.125918
0.00497211
0.0340928
0.00571698
0.00549212
0.0344622
0.00196595
0.0149995
0.115654
0.00889887
0.0696632
0.012883
0.0388337
0.00191099
0.022047
0.00979864
0.00368823
0.0022267
0.0147466
0.00246181
0.00331211
0.00791587
0.0450561
0.0312297
0.00518594
0.00796829
0.000982291
0.0714787
0.00189784
0.0402571
0.00504465
0.00195583
0.0122474
0.00272118
0.0220228
0.013927
0.0165727
0.00205727
0.0134212
0.13178
0.00900998
0.00471043
0.0222495
0.0604692
0.135374
0.00157028
0.162333
0.0147963
0.00181914
0.0138259
0.0468281
0.00831438
0.0198765
0.0022232
0.117143
0.0449356
0.088119
0.0161568
0.030773
0.0449282
0.00598026
0.00167947
0.0560618
0.105921
0.00237341
0.0420901
0.00126653
0.0280537
0.00188133
0.0618078
0.017038
0.138589
0.00145432
0.00193522
0.0110661
0.00490281
0.0151063
0.0508244
0.0966903
0.00188709
0.139218
0.00589714
0.122525
0.0107848
0.119787
0.00218236
0.101968
0.00976818
0.135861
0.00364599
0.00251176
0.0649694
0.00798342
0.00190851
0.00588531
0.00237176
0.00264099
0.00402746
0.0259076
0.0124602
0.00531606
0.00286057
0.041792
0.0119767
0.0139632
0.0427896
0.00133499
0.00176809
0.00683928
0.00478345
0.00347934
0.0122148
0.0017982
0.0549912
0.0703503
0.00548506
0.00214023
0.0040932
0.00467474
0.002775
0.0616239
0.00205826
0.00142698
0.00192985
0.149968
0.00121248
0.00150832
0.00290963
0.00160297
0.00140327
0.00515318
0.0136192
0.00392923
0.0166318
0.0491405
0.00290242
0.00615668
0.0980411
0.0012967
0.120819
0.0142431
0.0112583
0.0147331
0.00286173
0.00937655
0.00128
0.00925103
0.0159186
0.00249142
0.00151955
0.00512243
0.0291456
0.0188797
0.00657859
0.0059227
0.114184
0.00991848
0.00583451
0.00471792
0.0471119
0.00411129
0.0149725
0.00858787
0.00224055
0.0029069
0.0247656
0.00506842
0.00127644
0.0284817
0.0263284
0.00197503
0.00379888
0.0211019
0.0194051
0.0971788
0.00622631
0.0263817
0.0018385
0.00609045
0.0298833
0.141971
0.00570009
0.0145886
0.00284477
0.00128431
0.0646281
0.066412
0.0123381
0.107348
0.0232403
0.0262346
0.024234
0.0151931
0.0598499
0.018365
0.0390413
0.00960338
0.0030481
0.145681
0.00206144
0.000822234
0.0979478
0.00244916
0.00499495
0.00624331
0.0200815
0.00566438
0.0167659
0.0049754
0.0156816
0.0216553
0.149101
0.00116262
0.0169895
0.00188438
0.0215703
0.0416005
0.0881158
0.00607437
0.0560421
0.00853033
0.00701035
0.00230493
0.0837345
0.00299324
0.0028083
0.00143626
0.0723967
0.00521165
0.00198849
0.00285853
0.00299394
0.0270369
0.0347234
0.00404077
0.00276357
0.00285753
0.0117409
0.0031358
0.123552
0.0509132
0.00848684
0.125788
0.0428496
0.00423217
0.153425
0.00462512
0.0598046
0.00137449
0.0021456
0.00215208
0.00137531
0.00141222
0.0382957
0.0970247
0.00236799
0.0743587
0.0657021
0.0953715
0.00531265
0.00188665
0.0013925
0.0145647
0.0461732
0.0216727
0.00978099
0.00102743
0.131028
0.00254174
0.00157319
0.132455
0.10864
0.00150836
0.00601216
0.0300084
0.0671907
0.00223098
0.00133407
0.045965
0.0044995
0.15084
0.00141971
0.00223016
0.0281678
0.0016124
0.001011
0.00231731
0.0638137
0.0451101
0.139691
0.153349
0.00182775
0.0689013
0.00373476
0.00313211
0.0010924
0.0180689
0.00891551
0.00316427
0.0093449
0.00215075
0.00156
0.121893
0.0215805
0.0217267
0.00435787
0.00185399
0.107525
0.00129922
0.0123831
0.010664
0.0171153
0.129804
0.00360826
0.0111951
0.00150065
0.13099
0.00838985
0.0303781
0.00332534
0.0251021
0.00153439
0.00243666
0.00367029
0.00521505
0.0479933
0.0141624
0.005781
0.00335913
0.00169165
0.00198574
0.132992
0.00254225
0.00468267
0.00182984
0.0151533
0.0103483
0.0114605
0.0458678
0.00216341
0.0918612
0.0143649
0.00129269
0.00180776
0.00251397
0.00177391
0.0156198
0.00811691
0.0687753
0.00151865
0.0159913
0.00192334
0.0682259
0.00217546
0.0801979
0.0982167
0.0137138
0.00874831
0.00964351
0.0403558
0.00144764
0.0102796
0.0566707
0.0114022
0.00136634
0.00328993
0.0525727
0.00158931
0.020952
0.0119569
0.0154746
0.118179
0.00790624
0.0864731
0.00234536
0.00571996
0.019689
0.056801
0.00360353
0.0110891
0.0568439
0.00238915
0.00319371
0.0036956
0.0868466
0.00321471
0.0915044
0.00429596
0.0140519
0.0050964
0.00293094
0.00120199
0.010006
0.0018671
0.0084008
0.0134776
0.0806224
0.00210216
0.00534894
0.00493526
0.00738732
0.156552
0.00151094
0.00532176
0.00350323
0.00333227
0.00202272
0.00129424
0.00301087
0.00151483
0.0128962
0.00819317
0.0878768
0.0468467
0.10003
0.00399886
0.016459
0.0101394
0.00166082
0.0667785
0.112867
0.0111535
0.00496643
0.0187641
0.129143
0.00171808
0.0249992
0.00868765
0.0306937
0.00141385
0.0138177
0.00197977
0.00625981
0.0130881
0.00765068
0.0835247
0.00115813
0.00316611
0.00720678
0.0433909
0.103632
0.0012388
0.00111184
0.0016067
0.0506371
0.00536654
0.00297104
0.0452966
0.101171
0.0453218
0.00186358
0.00340489
0.0121245
0.01963
0.0200976
0.00209261
0.00495358
0.00336383
0.0197829
0.0142884
0.0985256
0.00475022
0.00856831
0.0452076
0.00189126
0.00166412
0.00144779
0.00193574
0.0014517
0.00168417
0.00242841
0.0254392
0.0652861
0.00217169
0.0012204
0.0026805
0.0301156
0.0114113
0.0544748
0.0536111
0.0026278
0.00212592
0.00769922
0.055464
0.00325382
0.00628191
0.0100356
0.00141244
0.00274687
0.00356715
0.116155
0.00169259
0.00263118
0.00345888
0.0142526
0.0107336
0.0411617
0.0824466
0.0116249
0.00993337
0.0204434
0.011303
0.0170991
0.0152051
0.00330947
0.00136348
0.0141369
0.0106
0.00144636
0.00350214
0.0957162
0.00249674
0.00246309
0.00109361
0.0108324
0.0425336
0.015637
0.0210997
0.0129716
0.116244
0.0100164
0.0141474
0.008782
0.00416703
0.155148
0.0234307
0.00126465
0.00189242
0.00171134
0.00307535
0.00496328
0.10337
0.056958
0.0148627
0.0700803
0.00183575
0.0388682
0.156235
0.0845215
0.00187885
0.00209061
0.0284687
0.00851347
0.0156615
0.00971878
0.0155062
0.00768912
0.0116559
0.0113619
0.00127417
0.0193328
0.00142236
0.0109551
0.00161339
0.0165637
0.145768
0.0797106
0.00513365
0.00462769
0.117783
0.00909775
0.0156778
0.00785847
0.00248955
0.00162226
0.00227325
0.147976
0.00265836
0.0112706
0.0109732
0.0593483
0.00727803
0.0193911
0.00133136
0.00242866
0.0105617
0.0798888
0.00189249
0.0114602
0.00116502
0.00127657
0.00328656
0.0228708
0.00478383
0.00215843
0.00305113
0.00143804
0.00773096
0.0451069
0.0109062
0.0465453
0.0024943
0.0142242
0.0146812
0.0029628
0.00183355
0.0561335
0.0486529
0.00148349
0.0108648
0.00167754
0.00994568
0.0534907
0.0109938
0.00309233
0.00815083
0.00272839
0.0109072
0.00283303
0.0185612
0.102381
0.0491608
0.00372277
0.0270201
0.0037428
0.059198
0.0434138
0.00396833
0.0170253
0.0434936
0.0918537
0.0122986
0.00268811
0.010456
0.0115655
0.014877
0.0077529
0.0395343
0.00549795
0.0146954
0.01087
0.00509023
0.0181828
0.0053251
0.00711941
0.052855
0.0071614
0.00158241
0.00141245
0.0458808
0.00237213
0.00118579
0.0494369
0.024682
0.00259859
0.0013446
0.0137049
0.00137055
0.00330823
0.0465094
0.00633088
0.103393
0.0198439
0.00717446
0.00212516
0.00271484
0.00343559
0.00308858
0.00193673
0.00146745
0.0300362
0.00118678
0.0585031
0.00259012
0.00137985
0.0867709
0.128123
0.00139838
0.0416369
0.0821296
0.00312483
0.00191517
0.00446626
0.0190915
0.00126167
0.144138
0.00194609
0.00127796
0.14685
0.00256664
0.00315404
0.001312
0.00134279
0.00140968
0.00132038
0.0741667
0.0226486
0.00865422
0.00716899
0.0774387
0.00352298
0.0613294
0.00137324
0.00361121
0.00706745
0.00409996
0.00135656
0.00324242
0.00358717
0.00572235
0.00153398
0.00362267
0.0203853
0.100628
0.00256274
0.0102159
0.0746028
0.00195539
0.0504149
0.00251997
0.0398366
0.00173359
0.0252073
0.0522174
0.00145713
0.0103888
0.00818994
0.00121722
0.00227224
0.00250259
0.017161
0.00893802
0.021387
0.01109
0.0047742
0.0110324
0.116471
0.00236796
0.00835724
0.0112594
0.00130924
0.0110483
0.0106559
0.00405363
0.00515263
0.00987696
0.0522878
0.00419238
0.0813007
0.00521222
0.00272199
0.00114292
0.0723394
0.0112776
0.000982514
0.031548
0.00796401
0.01544
0.0108642
0.00212268
0.00736175
0.0211749
0.00191086
0.115124
0.00184136
0.109965
0.0292112
0.00516466
0.00178903
0.0123926
0.00258548
0.00355234
0.0149135
0.0426185
0.00390689
0.010302
0.00152849
0.0155012
0.00223603
0.00460487
0.0145097
0.0154774
0.0060072
0.0115303
0.00504147
0.00766209
0.0101784
0.0215263
0.0439042
0.00270925
0.0490453
0.0162622
0.0859925
0.00508488
0.0158721
0.00784456
0.00134382
0.0249955
0.00460489
0.109051
0.038965
0.124376
0.0783061
0.0196411
0.0828423
0.00506225
0.00121239
0.00775628
0.00997882
0.0224658
0.0425082
0.00299916
0.0383351
0.0022794
0.00239777
0.00140167
0.0047918
0.0120809
0.0182893
0.126867
0.0128773
0.00452313
0.0108206
0.00133967
0.0089643
0.00163683
0.00277606
0.145777
0.110623
0.00146286
0.0513931
0.0154907
0.00552812
0.00342058
0.0275336
0.00167842
0.109627
0.0185476
0.0555897
0.0305738
0.00425473
0.00464521
0.0363929
0.0144443
0.0091771
0.00953526
0.00685372
0.0030558
0.00331869
0.00428469
0.00498409
0.0171327
0.0254021
0.0077639
0.00178957
0.00208414
0.00194555
0.0121627
0.00193998
0.00513993
0.0307306
0.0837576
0.00772349
0.0962001
0.015069
0.00111979
0.0559085
0.074567
0.00336845
0.00253377
0.00897755
0.00327167
0.0390022
0.00123571
0.00974812
0.00166746
0.0119104
0.0376929
0.00187738
0.00702782
0.0431485
0.00580002
0.135026
0.00485053
0.0155236
0.00638863
0.00200133
0.00938453
0.00225458
0.0604417
0.00185181
0.027552
0.0161181
0.0257692
0.0101677
0.135481
0.00597405
0.00186055
0.0024754
0.00932241
0.0128287
0.00505089
0.0503023
0.121565
0.0321012
0.00269896
0.0219474
0.00178306
0.00130649
0.00599979
0.130094
0.0047471
0.00388163
0.00456524
0.0122857
0.00125434
0.0493196
0.107089
0.0508498
0.00258925
0.0434587
0.0454678
0.00180512
0.0552405
0.00472837
0.00464046
0.0627814
0.00161703
0.0189763
0.00175522
0.0477665
0.00262518
0.0295871
0.00520281
0.00166234
0.00649581
0.060661
0.0183259
0.00226628
0.0160219
0.00478395
0.0149951
0.0187481
0.00479257
0.0151399
0.0376717
0.00122862
0.0153577
0.015177
0.00394489
0.0479925
0.0669325
0.13487
0.0151042
0.0353475
0.0150107
0.0023277
0.00093711
0.00360157
0.00103041
0.0075273
0.0129855
0.00173869
0.00166513
0.0280084
0.000836814
0.00226691
0.00137611
0.00286039
0.0143917
0.00218073
0.00139455
0.00177915
0.00279914
0.0019066
0.00772825
0.005013
0.0133174
0.0201257
0.153828
0.00270731
0.153136
0.00169675
0.00419054
0.00359191
0.109354
0.00637345
0.00735454
0.0238717
0.149185
0.145979
0.00411711
0.0272434
0.0394754
0.0104626
0.00119175
0.0226464
0.00379712
0.112282
0.00392196
0.00589029
0.0338955
0.0162831
0.0846447
0.0016908
0.00191966
0.00432111
0.0018746
0.012069
0.00529661
0.106659
0.0105934
0.15515
0.0342118
0.125916
0.00190687
0.0635474
0.00871494
0.00340791
0.0151967
0.0147475
0.0567355
0.00155347
0.0044935
0.00173365
0.00114939
0.00450247
0.00276386
0.00117328
0.00356436
0.00286065
0.00127076
0.003958
0.00992332
0.00299514
0.0015566
0.0629503
0.00157295
0.00464074
0.00211087
0.124959
0.00741866
0.00200927
0.148577
0.00147026
0.0168733
0.000962948
0.131763
0.0436859
0.00683562
0.00346001
0.0188546
0.00712264
0.0619262
0.0448783
0.00130891
0.00222332
0.00169539
0.00806032
0.042461
0.0290364
0.116441
0.0100284
0.00234885
0.00191419
0.00277243
0.00336751
0.0118357
0.118451
0.129955
0.00126618
0.00140417
0.00417794
0.0152983
0.0196228
0.00549526
0.0015122
0.00155438
0.0823528
0.064302
0.00145957
0.0252377
0.00343101
0.0141428
0.0373573
0.0147801
0.00845914
0.00136544
0.00122558
0.141066
0.0696359
0.019319
0.002494
0.00179015
0.140949
0.00487412
0.00134631
0.114198
0.00264775
0.00191268
0.00178445
0.0715643
0.00157403
0.00145531
0.00886371
0.00300309
0.0207897
0.00261999
0.00332236
0.0214049
0.0584402
0.00147214
0.00274131
0.127518
0.00436039
0.0047659
0.0158441
0.00423019
0.00127068
0.00160935
0.00171316
0.0159543
0.0241396
0.0316251
0.00159448
0.0014627
0.00141071
0.00122135
0.00126716
0.0748789
0.00834907
0.12682
0.124216
0.0158741
0.0814222
0.0540931
0.152208
0.00185192
0.0016311
0.000995085
0.00656398
0.00414379
0.00923539
0.0668769
0.118167
0.00123635
0.0932542
0.00090931
0.0018987
0.106172
0.0527733
0.00141974
0.0289959
0.00371518
0.0195296
0.0967142
0.0863011
0.00119624
0.0893386
0.00123473
0.00133928
0.106275
0.0102085
0.050333
0.0313122
0.0454729
0.00528107
0.00247735
0.0823095
0.00175231
0.00286803
0.0221552
0.0534137
0.0258724
0.0253932
0.134606
0.00351202
0.00132416
0.00113514
0.0103239
0.00160536
0.142648
0.0212641
0.0318752
0.00442517
0.021027
0.0022275
0.114988
0.00132907
0.00308689
0.00157826
0.00427374
0.116164
0.0106601
0.043265
0.00131331
0.16275
0.0149451
0.0172815
0.0210911
0.0306433
0.144131
0.0102322
0.00172499
0.0214675
0.0295804
0.0292189
0.0106136
0.0036603
0.137322
0.00152463
0.00186319
0.0249745
0.00185798
0.00145842
0.00244914
0.0020537
0.115189
0.0240751
0.00239277
0.00175396
0.00501502
0.0019046
0.00184998
0.0146166
0.00876989
0.0146041
0.00123555
0.0637539
0.122608
0.0020462
0.0050865
0.00181674
0.0223277
0.149759
0.0685177
0.0013168
0.00632079
0.161018
0.00461218
0.0451249
0.00705219
0.0153104
0.0163323
0.0461603
0.1202
0.0878125
0.0191563
0.00245575
0.00176342
0.105031
0.0582204
0.00152798
0.041643
0.00586073
0.0160547
0.0165178
0.0110045
0.148818
0.00124366
0.0154708
0.0169448
0.000951975
0.00652242
0.0224767
0.0134466
0.0368062
0.0296227
0.00165866
0.00271611
0.00139564
0.033567
0.103045
0.00865974
0.014336
0.067432
0.0112035
0.00152888
0.0169756
0.00996582
0.0156491
0.00500009
0.0674493
0.0731828
0.00140356
0.00244202
0.00234265
0.0510392
0.00450278
0.0752288
0.0541503
0.00522811
0.00183952
0.00651009
0.0157676
0.00447242
0.0331131
0.0148476
0.0067236