/*--------------------------------*- C++ -*----------------------------------*\
| =========                 |                                                 |
| \\      /  F ield         | OpenFOAM: The Open Source CFD Toolbox           |
|  \\    /   O peration     | Version:  v2012                                 |
|   \\  /    A nd           | Website:  www.openfoam.com                      |
|    \\/     M anipulation  |                                                 |
\*---------------------------------------------------------------------------*/
FoamFile
{
    version     2.0;
    format      ascii;
    class       volScalarField;
    location    "950";
    object      ddt0(omega);
}
// * * * * * * * * * * * * * * * * * * * * * * * * * * * * * * * * * * * * * //

dimensions      [0 0 -2 0 0 0 0];


internalField   nonuniform List<scalar> 
13917
(
0.000110205
2.05628e-07
-0.0167438
-5.03744e-06
-5.16174e-07
-0.00694128
-0.0432958
-0.00430548
0.053459
-0.00019669
-0.00037353
-0.000353819
-5.2851e-06
-0.543508
-5.1689e-07
6.25553e-06
9.31044e-07
1.13775e-05
-0.000325875
-2.2915e-06
-3.67205e-07
-0.0448316
-1.71246e-06
-0.000640437
-1.69279e-06
-0.0484909
-0.00303316
0.00028943
0.0086721
-0.000850153
-0.000117763
-1.67158e-05
-4.70549e-05
-0.000105416
-7.54222e-07
-0.0228015
-1.76821e-06
-0.0148006
-7.22794e-06
0.0070935
-6.88869e-06
-2.00508e-07
-6.03011e-06
0.000947353
-3.87769e-06
-4.168e-05
3.94401e-05
1.73247e-05
0.00248741
-4.65354e-06
5.96337e-05
-1.15891e-06
0.0121193
2.57223e-05
8.97856e-07
-2.10465e-05
-0.000235637
-3.41093e-06
-1.10757e-05
-3.58798e-06
-0.029823
5.90407e-07
0.0586437
-2.51711e-06
0.00259364
-0.0283548
1.49473e-07
3.69708e-09
0.000393374
7.9828e-05
-4.49204e-07
0.0428408
3.29345e-05
-1.23805e-06
0.00189682
-0.000386853
-0.0202249
-6.92893e-06
-0.0430366
-4.08493e-07
-1.13757e-06
1.82527e-07
0.017611
-0.0142921
-0.00646185
-6.40826e-06
-1.67225e-06
0.30563
1.89789e-05
-6.1478e-06
-0.000510576
-0.00142634
-1.93778e-06
1.15574e-06
0.66318
-0.00933497
-7.55391e-05
-9.94833e-05
-0.000802286
-0.0112017
-5.33778e-06
8.45127e-05
0.00131334
-8.06765e-06
-3.64307e-06
0.0365566
6.90394e-05
2.25351e-05
9.3109e-07
0.000196221
0.0148631
0.00480183
-0.000571599
0.0467422
-2.31259e-08
-0.00281011
-1.68741e-06
0.00250615
0.00963745
-3.91183e-06
-1.83388e-07
0.000548441
0.00518449
0.000488183
-5.33778e-06
9.00342e-07
-2.67057e-06
-5.49158e-06
-7.13606e-06
-0.0170372
-0.0179646
-2.73507e-07
-3.72538e-06
-2.52657e-07
-0.0136618
-0.00023445
0.000103141
-0.00875785
1.37215e-07
-0.000378987
-0.01055
-3.42589e-06
-2.29218e-06
-0.000277021
7.39657e-08
0.01632
0.00251473
-1.41605e-06
-3.21172e-06
-1.5868e-05
-0.000125041
-0.0019247
-0.000418304
-0.000136957
-1.9521e-05
0.00399583
0.000493332
-0.168206
-0.0330844
0.177033
-1.14761e-06
-0.00442718
-3.78281e-07
-0.00035995
-0.000564092
-0.000922159
-7.93609e-06
-0.00011495
-3.03689e-06
-0.000352947
9.03045e-05
0.0348327
-0.000558666
1.52732e-06
0.00131959
2.48819e-05
-0.0225931
0.00148188
0.00637836
-2.48282e-06
0.00133771
-0.000189058
-3.40155e-06
-1.71013e-06
9.31784e-05
-0.0461471
0.000367302
0.00905471
-3.77165e-05
-0.000534221
-0.0343299
-0.0113123
-0.00123943
-1.51658e-06
-0.0226906
0.00224375
-8.97639e-06
-1.99801e-06
-0.00278318
-3.54935
-2.00427e-05
-4.63324e-06
-0.000183493
-0.00015028
-0.00512908
0.000909873
-6.97154e-07
-3.29127e-06
-7.3664e-05
-0.0354374
-2.25147e-06
-0.0406196
-0.00614283
-0.000552504
-3.37838e-06
0.000512018
-1.47689e-05
0.027179
-2.79726e-06
-0.0251799
-2.4966e-06
-0.00022379
-6.78688e-06
-0.0100054
0.0383418
7.75645e-06
-0.146395
-2.01174e-05
-3.41691e-06
-0.0391208
-0.000553136
-3.51914e-05
-0.00533711
0.00537031
-6.39913e-06
-1.91159e-05
0.00693758
-0.00195581
-1.06594e-06
-3.5258e-06
-0.00140836
0.000134744
-4.73597e-07
-0.0163662
0.000519817
-0.00175174
-4.22004e-05
-7.98028e-07
0.000300915
-0.00915588
-4.09534e-06
-0.000471689
-0.00945739
-2.90542e-06
-3.38006e-06
-0.000421446
0.0122713
-0.000428672
-0.000165819
-1.35907e-06
-3.67294e-07
0.0187404
-0.00656594
0.0164259
-3.86109e-06
0.00451008
-0.110024
-0.117718
-0.0407419
-0.000434173
-8.13872e-07
-5.80247e-06
8.59459e-05
-0.0119773
0.000691782
-1.48167e-05
-0.00686592
-7.83067e-05
-7.65193e-06
-0.00972885
-2.51791e-06
0.00323471
-1.74632e-05
-9.75539e-07
4.51197e-05
-9.4507e-05
0.000173351
-0.0399827
-7.03297e-06
-4.18146e-06
-0.0189465
-0.00106395
-0.00419426
-2.69925e-06
-0.0856291
2.10774e-07
-4.17527e-06
-1.56117e-06
0.0598369
-3.61152e-06
0.000174795
-3.38234e-05
-3.06326e-06
-0.000138464
7.98618e-06
-0.000255409
-8.22204e-05
1.7199e-05
-3.47358e-06
-3.42734e-06
0.0158333
0.024516
-1.74203e-06
-6.46303e-06
-0.00755989
-2.06964e-06
0.00445306
-3.47452e-06
-0.00794494
-4.31987e-06
-0.000282071
6.23485e-05
0.000800809
-7.66806e-06
-1.08551
-0.0164273
4.57465e-05
0.000124792
-0.00142389
-6.95889e-07
-0.0137608
0.00984295
-0.0637347
0.000100264
0.0119528
-2.00891e-05
-0.00716609
-0.0258257
-0.00306206
0.000972499
-0.0246535
-6.22074e-07
8.93239e-05
0.0133196
-2.81167e-06
2.80156e-06
-0.118044
-0.0022078
1.68843e-06
0.00019493
0.000610546
-5.19737e-06
0.00753677
-0.0397257
-2.67934e-06
-3.69048e-06
5.83039e-07
-3.36456e-06
-0.0217763
0.00656652
0.0489223
0.0134788
-1.29526e-06
-0.00177771
-0.0122487
-0.000100896
-0.0424277
-0.00677574
0.0479777
-5.66161e-06
0.00949792
-4.09692e-06
-0.0248003
-3.47046e-06
-0.000787459
0.000502616
-1.03979e-05
-8.74355e-07
-8.84526e-05
-0.000556216
0.000100613
0.0309201
0.000512752
0.0532063
-0.000923127
-0.000262996
-3.46829e-06
-0.0031864
-0.0481842
-2.63589e-06
0.0753905
-4.55769e-07
0.00486736
-4.41197e-06
-5.92371e-07
-1.8512e-05
-0.0220696
-1.51855e-05
0.00896535
0.029213
-0.000706875
0.0450536
-3.82661e-07
-0.00983058
0.024993
-1.89727e-06
-0.00160805
-3.26592e-06
-7.48994e-07
-0.000528915
-7.52542e-07
-1.04516e-06
-3.70911e-06
-0.00198673
-3.75248e-07
0.0115678
-0.0301407
-0.0109417
-0.00163119
-0.0042727
0.0202778
-9.93316e-05
-1.20465e-06
0.00117839
-7.3675e-06
-2.21439e-05
-1.47653e-06
0.0128283
-0.0446231
-0.0195259
2.3395e-06
0.000567301
-8.12671e-05
-8.63644e-06
0.000137724
2.87095e-06
0.0238231
5.20182e-07
-3.34776e-06
0.0123177
-0.0202776
-0.0237177
0.000572124
-0.0153944
-0.0191357
0.0193787
-0.0346966
-7.05777e-06
2.30258e-05
-2.05879e-06
-3.12074e-06
-0.0168597
6.73251e-05
-8.29255e-06
4.25683e-05
-7.79443e-05
-0.0235748
-1.85106e-06
-0.000287403
0.0567702
0.00611449
0.00743284
-3.89178e-07
-2.65161e-06
-8.80112e-06
-5.96585e-06
-5.42869e-06
-0.035334
-0.0467586
-2.43126e-05
-0.00216368
-2.02234e-05
-0.000497994
0.0223838
0.0043045
-0.000802458
0.00100937
-0.000162925
8.21773e-05
0.000221355
-0.000132731
-0.000482797
-0.00332514
-0.000191944
8.32949e-05
-7.9403e-06
0.0171169
-9.75519e-05
-4.35993e-06
0.000152398
-7.36395e-06
-0.0201347
0.0421348
-2.31291e-06
-8.08634e-06
-0.0232175
0.0391678
-8.95171e-07
0.0112406
-6.13713e-06
0.000459743
-2.05221e-06
-0.00290806
-0.190764
-1.43952e-05
-2.78695e-06
-0.0112837
0.00136139
-0.0118503
-3.56514e-07
-0.00737906
0.000277279
-0.0116154
-4.29398e-06
-0.00327318
0.0175224
-0.000111172
-3.55695e-06
7.3197e-07
-0.000369574
-0.00600383
-8.87551e-06
-3.61304e-06
-4.65566e-06
-4.8052e-06
0.00273318
-0.0138085
-0.000107032
-0.000587136
-5.82841e-06
-5.23704e-06
0.000183147
0.052728
-2.68658e-05
-3.2119e-06
-9.08492e-07
3.82588e-08
-0.0146655
-0.0167818
-1.50706e-06
-1.61998e-07
-0.00250442
-0.000145757
-0.000225046
-2.99358e-06
3.45023e-06
-1.12324e-05
4.83248e-05
0.00203456
0.000392536
0.000909249
0.000113453
0.00268671
0.00067999
-2.38537e-06
-0.00963355
1.8727e-07
2.31581e-06
-1.09983e-05
0.0557155
-0.000576602
-6.7688e-06
0.00112934
-0.00164278
0.0774166
0.00014314
0.00124277
-8.86252e-05
-8.34565e-07
0.00301812
-0.0104185
-0.0287783
2.25758e-07
-2.53819e-05
0.000136764
-0.00423094
0.156153
-5.99385e-05
0.00143012
2.30362e-06
-6.87344e-06
-3.06773e-06
0.00431238
0.00109396
5.57361e-07
1.46862e-05
-0.00567643
-0.0266522
-0.00915597
-3.41119e-06
-0.000683169
-0.106914
-0.000281262
-1.4295e-06
-0.00126129
0.00734618
0.0234018
-0.00146018
-6.94387e-06
0.0152627
-0.000370859
-7.52631e-06
-2.55947e-05
-0.000175439
-0.000350079
-0.00121505
-0.0449485
0.00041409
-9.68481e-05
0.00477022
-8.31475e-06
-0.0512221
-6.83203e-07
-1.54751e-06
-0.0733368
0.0115864
0.0360037
-8.26498e-06
-5.98028e-06
-2.37844e-07
-7.76226e-05
0.00319789
-0.000817081
-4.90304e-06
-0.000788939
-7.17495e-05
-2.04271e-06
-0.333697
-0.000743343
0.0388657
-3.18167e-06
0.000194077
-7.11674e-06
0.045388
0.000324647
0.001289
-2.71527e-05
-5.84371e-06
-4.37869e-06
-3.0087e-06
0.00203689
-0.000143696
0.00462003
-0.00744333
-8.58329e-05
-5.18058e-06
0.000538861
-0.00871231
-0.0654124
-4.16233e-06
7.2705e-05
-3.51614e-06
-2.75183e-05
-1.22161e-05
0.0229733
-6.5956e-07
3.01476
-2.9427e-05
-0.000272518
0.000715511
0.00110573
0.00142512
4.23326e-07
-0.0131718
0.12982
-1.73114e-06
-1.0545e-05
-0.200706
-0.00186564
0.000719888
-1.3035e-06
-2.69773e-06
-0.00766142
-1.05806e-05
0.000109203
-0.000392156
-4.40282e-06
-0.000242704
-0.0142039
-4.09973e-06
-5.05122e-06
-4.38063e-06
0.0158105
-1.77386e-07
4.69229e-06
0.0307306
2.77219e-06
0.0065968
-1.9004e-05
0.000166495
-4.3716e-06
0.000536628
-1.40989e-06
3.52628e-05
-5.93366e-06
0.00190712
-6.14021e-06
0.0155778
0.0740182
0.0518125
-8.74388e-06
-7.31071e-07
0.000165495
-8.34719e-05
-0.027818
0.061057
-6.09143e-05
-8.39934e-07
-0.00229318
-0.0277267
0.0241023
-0.00146319
4.75141e-05
-0.0389576
-6.20277e-05
-5.41284e-05
0.000960679
0.000267423
-8.00388e-05
-0.00822433
1.11357e-05
-7.32127e-06
-0.000114809
1.57557e-05
-4.10616e-06
-2.65306e-05
0.000209865
-1.39835e-05
-1.24898e-06
-5.68667e-06
-6.84905e-05
-8.22705e-06
0.000109855
-5.61143e-07
-4.74187e-07
-2.21065e-07
-9.85566e-06
-5.55928e-06
-1.03625e-05
-4.2879e-06
-0.00202335
-0.000336456
-0.0162925
-5.69986e-06
-6.90418e-07
-5.34431e-05
8.25435e-05
1.60276e-06
-0.0197775
0.000621454
-0.0033367
-2.97385e-05
-0.000264253
-5.40616e-06
-3.65217e-07
-5.15921e-06
-6.69781e-06
0.0175871
-6.09392e-07
-0.0475361
-1.17832e-05
-0.00980423
-0.00111559
0.000380631
-0.000395035
-4.77666e-06
6.70381e-10
-0.000332577
-1.56142e-07
-9.119e-07
-0.00681864
2.1677e-06
-3.46358e-07
-2.23329e-05
-3.77006e-06
-7.96207e-06
-1.424e-05
0.00341861
-0.0397598
-2.62267e-05
-4.09706e-06
-7.03853e-06
0.000335675
0.00191363
-8.35508e-07
7.43979e-08
-0.00749306
-0.149035
0.0483485
-0.00127764
-7.29776e-06
-6.43451e-06
-7.90847e-06
-0.000181018
6.67172e-06
0.00895907
0.000156273
-0.00919237
-4.01904e-07
3.08606e-06
0.0481409
-4.47666e-07
0.000161599
-2.49986e-06
-3.57766e-06
1.81655e-05
-0.00712516
-5.67688e-06
0.00990777
0.0120005
-0.000351673
-2.48578e-06
-5.10478e-06
-0.000537228
-0.035933
-9.02504e-07
-0.00758132
-5.12896e-06
-0.000172967
-3.88902e-06
-4.09391e-06
-0.000574621
-3.94896e-06
0.0558334
-1.74888e-05
-8.39126e-08
-5.83321e-06
-4.57847e-08
-3.35207e-06
-5.01046e-06
-0.00698686
-4.14215e-06
-3.76671e-06
0.0436716
0.0247171
-0.000104848
-0.000111151
0.000126365
-1.7019e-05
-3.0009e-06
-0.000378483
-0.00773242
0.00182173
-9.12154e-07
-2.93151e-06
0.0593152
-4.36182e-05
0.00902377
-3.1665e-07
4.30766e-07
0.0385824
-4.84208e-05
-5.99097e-06
-2.39276e-05
-0.00176093
-3.21187e-06
0.000909682
-5.24544e-06
-3.9559e-06
-5.29842e-06
0.00662178
-6.00157e-06
-3.67418e-06
-3.06013e-06
0.0373723
-8.47211e-06
0.000992323
0.00466483
-4.1885e-06
7.74114e-05
-1.62691e-06
0.0125203
-2.99201e-06
-4.2503e-06
-4.86784e-07
-0.000599651
-2.8107e-07
0.000614752
-0.00617618
-0.00517293
4.53654e-05
-0.0382304
0.0248957
-3.34457e-06
0.0166988
-0.0327006
0.0206109
-0.00681158
0.0409321
-0.0363097
0.000392708
1.06746e-06
-0.0428361
-4.56432e-05
-0.046951
-4.23184e-06
-2.03267e-06
-3.48343e-07
-1.8836e-06
-1.88292e-05
0.00103966
0.0111111
-2.12265e-06
-6.93615e-08
-0.0112418
-0.0156455
1.94128e-07
-0.00177072
-2.48714e-05
-4.67225e-06
0.0736375
-0.00333711
3.9854e-06
-8.717e-06
0.00846955
0.0469895
0.00215322
-3.99475e-06
0.00151203
-0.000771458
0.00888724
0.0489311
-0.000548551
-1.9675e-06
-5.48493e-06
-1.16277e-06
-6.71581e-06
-4.97774e-06
-7.04853e-06
-1.20021e-05
-0.000146009
-0.00423673
9.10477e-05
-3.82782e-06
-0.0001872
0.0212183
0.000113989
-2.05287e-06
-0.0307838
-2.94545e-06
-1.5844e-06
-8.52422e-05
-0.00185976
1.02622e-07
-3.19947e-06
-0.0387347
0.0129747
-0.128227
0.000292368
-0.0325152
-3.26895e-06
0.000726752
-2.19817e-06
-2.39438e-06
-2.18181e-06
-0.0437367
0.031833
-3.91956e-06
-5.86712e-06
-2.17731e-06
-0.105312
1.18641e-05
-2.63678e-05
-1.11363e-07
1.1411e-06
0.000390118
-4.26193e-06
7.8954e-05
0.00955018
-0.025299
-2.59129e-06
-0.00203671
-2.37675e-06
-0.000828556
0.0198633
-1.07385e-06
0.016733
0.000128025
5.91849e-05
-7.08413e-08
-0.0208311
-5.5998e-07
-2.17361e-05
-0.000201774
0.000298585
-0.0297554
0.050926
0.00112438
0.00826554
-6.20913e-06
0.00662638
-4.1048e-06
-3.17522e-05
-0.0368591
-2.95843e-06
-4.38474e-07
-8.64722e-07
-4.47563e-06
-0.00405903
-5.14903e-06
-1.64196e-06
-0.00019593
7.93066e-06
4.44255e-05
-0.0119788
-0.000619317
0.00981175
-0.000248758
-4.436e-05
-5.37266e-05
-0.0196881
-0.000117968
-0.0117676
-0.0478746
-1.74161e-05
-4.24796e-06
0.00153043
0.0322188
-1.5321e-06
0.00116392
-2.84653e-05
-4.82594e-06
-2.76192e-05
-4.66552e-06
-0.000295976
4.95013e-10
-6.65248e-05
-0.0027613
-3.99977e-06
5.24679e-05
-3.82339e-06
-0.000151283
-6.05109e-06
0.000491766
3.66053e-05
-8.64709e-06
-4.32318e-06
-3.90929e-06
0.0341565
-4.25005e-05
0.005788
-1.22571e-06
9.94495e-07
-4.50517e-05
-2.64266e-06
0.000478557
-0.000165103
-4.81106e-06
0.000465214
-3.91533e-06
-0.0227375
-1.5369e-06
-9.47471e-05
-0.0603338
0.00216655
-3.51684e-06
2.58795e-06
0.00853188
-2.3543e-06
-3.5355e-06
0.00594277
0.0116963
-6.36535e-05
0.000492389
-2.51228e-06
-4.2452e-06
-0.0396464
-2.74021e-07
-4.70601e-06
0.00453314
-3.88086e-06
-0.187029
-1.25922e-06
-4.58229e-06
-7.59747e-07
-0.000688702
-0.00221033
-3.27758e-06
-1.17335e-06
-3.20192e-06
2.15164e-06
-3.84911e-06
-0.0826998
-9.45563e-06
-3.93794e-07
0.00955451
-0.00270999
0.00790649
-0.0224089
-3.76188e-05
-3.96624e-06
-2.27809e-06
-1.94199e-06
0.0115354
-1.07395e-05
-0.00285337
0.0279826
4.35597e-06
-0.0391329
-0.0016492
-0.000189258
-0.000550159
0.000989015
0.0290173
-0.0248477
-0.00235451
-0.0321572
-0.0149576
-0.000400659
2.47804e-07
-0.0155819
-0.000238662
-4.27657e-06
-8.60716e-06
-0.0114322
-9.20755e-05
-2.30077e-06
-0.000216346
0.00114582
-2.90352e-05
-0.020193
1.72283e-07
0.00304768
-6.66286e-05
0.0281967
0.00137328
0.000752267
-2.40558e-05
-3.77825e-06
-4.91033e-06
-0.0109691
-1.98935e-06
1.0801e-05
-7.71934e-06
-5.84764e-06
-2.37167e-06
0.000446834
-0.000518962
0.00360268
-0.00158834
0.00588983
-0.0177576
-0.00878066
-2.78196e-06
-0.159278
-0.0357812
-4.56071e-06
-3.56417e-06
-2.74268e-05
0.0181523
-1.98813e-07
0.000147155
0.00581409
-0.00013358
-1.74109e-06
-6.45807e-06
-3.95992e-06
0.00122548
-0.000165666
-4.26168e-06
-0.11764
-0.040711
9.37975e-05
0.0102931
-0.000385541
-8.62057
2.74447e-06
-1.75604e-05
-0.00235061
-0.0649588
-0.000535517
0.0523142
-1.92737e-05
-3.29238e-07
-4.03629e-06
4.28525e-06
-1.27608e-06
1.13696e-06
-4.90514e-05
-3.16343e-06
-0.000330411
-3.60133e-06
-2.29541e-05
-4.1829e-06
-0.000314904
-0.000944846
-0.0153203
-3.33753e-06
0.00118895
-4.03614e-06
0.00356072
-4.82678e-07
-0.000678811
-1.00918e-06
0.00266528
-0.00197034
-0.000780561
-3.27606e-06
0.000139379
-9.53205e-07
-2.16806e-05
0.00827948
-3.76745e-06
-2.00163e-06
0.00011863
-2.56331e-05
-0.0410422
-3.21902e-06
0.000143042
-5.11762e-06
-1.22798e-06
0.000635981
4.61447e-06
-6.00446e-06
-9.18289e-07
-0.0120274
-1.03477e-05
0.00326955
0.0174798
-0.000136143
-0.00673607
-9.73931e-06
-5.94813e-06
-0.000134543
0.0320944
-6.30815e-06
1.41869e-05
-0.000129281
-2.13503
-3.13691e-06
0.000232357
5.91992e-05
0.000134132
-3.79441e-06
-5.76144e-06
0.000658155
-1.4986e-06
-1.28966e-07
0.000352988
-4.44321e-06
4.4489e-06
-2.06307e-05
-0.00039404
-0.0121262
-0.0470307
-8.38319e-06
-0.000337528
0.0967694
-0.0107434
-9.06177e-05
-0.00248355
0.0115981
-3.69321e-05
-0.0188713
1.9606e-06
-10.6816
-0.0147614
-4.36227e-06
-8.08759e-07
-3.08108e-06
-5.59849e-06
0.000128648
-4.18898e-06
-2.23461e-05
-0.000525514
-8.99114e-06
-4.28179e-05
-0.00608319
5.92576e-05
-1.16633e-05
0.0523403
-6.07282e-06
0.00916186
-1.09359e-05
0.0025813
-3.22511e-06
0.00830151
0.0302847
-8.73179e-07
-5.89238e-06
-0.0257699
4.68125e-05
-0.0103379
-3.94773e-06
-3.94853e-06
-0.029761
-6.0393e-06
0.00144208
0.0298337
-9.03757e-08
-4.80686e-05
-2.02606e-05
-5.78596e-06
-6.39806e-06
-0.0385687
0.0256192
-1.86245e-06
-9.04625e-06
-3.19174e-06
-1.06722e-05
0.00311709
-0.0374291
-3.30189e-07
-0.00203985
-0.0838724
0.0185626
-0.0961971
-5.99053e-06
-0.000563668
-0.000771499
-5.36448e-05
-4.86438e-07
-0.000313397
-0.00644401
8.97785e-07
1.53904e-05
0.00254227
-0.00636817
0.0104485
6.99759e-05
-9.70539e-07
3.04138e-08
-1.4574e-07
0.0331406
-3.88831e-05
-1.00653e-05
-5.94225e-06
-1.26087e-05
-2.06964e-07
-3.14164e-06
-2.55776e-07
-0.000316579
-5.86801e-05
0.00490857
-0.00388288
0.00452793
0.00556796
-5.25328e-05
-0.000155773
-5.2739e-06
-0.000107658
0.0145917
1.27071e-07
-7.51743e-08
-1.22121e-06
0.000601703
-0.0041602
-0.0241234
0.0290462
-2.82964e-06
-0.0162334
-6.00123e-06
-4.84223e-06
-0.0040028
-1.26194e-07
-4.11832e-06
0.000603824
-0.00744045
-3.87763e-06
-0.0183907
2.26906e-07
-4.00424e-06
-3.84158e-07
0.00351896
-2.19632e-05
-1.08384e-05
-0.0146736
-2.61159e-06
0.0101174
-0.0138159
-8.99069e-07
-0.00443121
-3.9398e-06
-0.0119789
0.000163841
-1.83791e-07
-0.0429994
-7.94554e-05
0.000338326
-7.07669e-08
0.0362232
-0.000494759
0.00332598
-5.37824e-06
0.000111322
0.0225604
-3.76742e-06
0.0147173
-3.43463e-06
7.64596e-05
6.71559e-05
-9.05437e-07
-0.000652432
3.02874e-06
0.000588003
-5.77324e-06
-0.00395276
-4.56938e-05
-0.00449739
-3.29265e-07
0.00190473
0.00013161
0.0116473
0.000293378
-0.000420085
-2.31507e-06
-6.97309e-05
-2.11258e-06
-0.000279092
-0.0166725
-1.40294e-06
-2.76536e-06
0.000865243
-7.13733e-06
0.0678536
-5.25975e-06
-0.0235873
0.0340596
-2.11872e-05
-2.07466e-06
-3.17451e-06
-4.34748e-07
-6.87847e-06
0.0006488
0.00207814
0.00125093
-1.161e-05
-2.71035e-06
-0.00111681
-9.3978e-06
-2.47528e-05
0.172315
-1.79832e-06
0.0539841
-2.36622e-06
-2.60419e-05
-0.000286167
-0.0101159
-0.0197787
-0.0123822
0.0089302
-3.1155e-06
-0.00214114
0.0139062
0.0303297
-1.62433e-06
-1.13543e-06
-0.000246441
-0.043976
0.0111705
-0.000192936
-4.12077e-06
-0.00171338
-3.92661e-05
-0.0127068
-0.00392035
-0.000118253
-4.00169e-05
-5.10168e-08
-0.000316171
-0.000516801
-1.78371e-06
0.00206294
-0.0148846
-4.29328e-07
-0.19414
-6.07051e-07
-3.87715e-06
-0.0275567
0.000514429
-5.34427e-06
-4.20132e-06
-3.14699e-06
-3.78174e-06
-1.74398e-05
0.000590548
-6.36643e-06
-2.68568e-06
-2.1197e-06
-0.000115526
-1.8659e-05
-1.69634e-05
-0.00578402
-8.30533e-07
0.0107315
-0.00414301
0.00374958
6.2528e-05
4.67447e-05
-0.102054
-3.9718e-05
-0.0396637
-0.106665
-0.0109666
1.37438e-06
-0.0214425
-0.000457955
-6.38827e-06
-1.27702e-06
0.00290705
0.0030768
-0.0192145
-4.20091e-06
-1.38229e-06
-0.0215777
10.9527
0.864016
-5.64378e-06
-1.46626e-06
0.00353433
-1.90452e-06
-0.0243225
0.00569826
-0.0535502
-0.124638
-2.07281e-06
-3.43103e-06
-5.46581e-06
-0.000191596
-0.00190029
-0.000109084
-1.76897e-05
3.78338e-07
0.000727637
0.029046
-0.000111864
-0.00104786
-0.00716285
0.00477538
0.00306632
-4.91296e-07
-1.60774e-06
-0.0192049
-5.47684e-06
-4.23998e-06
2.8883e-06
-0.000882161
-4.75274e-05
0.00917593
-0.0007859
-1.08726e-06
0.0605799
-4.55509e-05
-2.23127e-06
-0.00793789
0.00119253
-9.40793e-05
-4.22192e-06
0.0012544
0.0131393
-3.10783e-07
-0.0113282
-0.0730608
-0.0228823
0.0706604
-0.000447415
-2.8745e-06
-5.91535e-06
0.0231472
-1.87151e-05
-0.00730885
5.55147e-05
-0.826132
0.00154213
-5.33067e-06
0.000179207
-2.34977e-06
-9.15945e-07
-0.00715881
0.0101756
9.56161e-08
-0.00330434
-0.000113622
-1.53485e-06
3.10344e-05
-3.22361e-06
0.00130414
-3.27787e-06
-0.0038962
-0.00107657
-2.7302e-06
-6.38866e-06
0.0338525
-0.0388418
-3.33015e-05
-1.25344e-06
-8.10758e-05
-1.85077e-06
-8.39649e-06
2.038e-05
0.039956
0.00298323
0.00726052
-5.31058e-06
-5.86197e-06
1.09152e-06
-0.000688092
-3.43011e-06
1.06638e-06
0.000467695
-0.000110679
-0.0706731
-4.54426e-06
0.0194034
0.00388724
-5.91606e-07
0.0215979
2.68142e-05
-9.20114e-05
-0.00137414
8.62233e-07
-0.00346745
0.000440672
1.20923e-06
-6.77552e-06
-5.61001e-06
0.00410753
-9.07458e-06
-5.27698e-06
-3.40915e-05
0.00722862
-0.00691884
-7.00139e-07
-5.1062e-06
-1.98085e-06
-2.56095e-06
0.000917754
-8.41191e-07
0.000352469
-9.35242e-06
-0.00964471
-5.76566e-06
-0.0318064
-4.84278e-06
0.0482505
-4.59757e-06
-5.72661e-06
-0.0226111
-0.0101565
-0.0613645
-0.049898
1.28011e-05
-5.15597e-05
-2.73037e-07
0.020953
-1.59975e-07
-3.3475e-06
-0.00621772
-0.000318641
0.00704666
0.00887472
-3.27893e-05
-0.00764159
1.05677e-05
0.10451
-8.40878e-06
-1.4372e-05
7.7785e-05
0.0174831
2.82187e-05
0.0188283
0.00153095
-4.51609e-06
-2.74739e-07
-2.37719e-06
-0.0491959
-0.00230229
-8.74874e-06
-1.36863e-06
2.01602e-05
-1.8745e-05
-4.51851e-05
0.0391892
-0.0131212
-2.93684e-06
0.0609425
0.000705904
0.00296568
0.000130645
-3.47514e-07
-1.2094e-05
0.0590404
-5.81338e-06
0.000771767
-0.0273431
1.53128e-06
-1.0159e-05
0.000558678
0.00868189
-3.99243e-07
0.0645975
-1.1593e-05
0.00600144
-7.53748e-05
6.89401e-05
-6.01792e-06
0.012361
-4.58895e-06
-0.000583871
0.00578451
-0.0105296
4.70656e-05
0.000138219
-1.8245e-05
0.000379306
-7.16022e-08
-0.0159012
-2.01984e-05
-4.04561e-06
-2.80985e-05
-2.49109e-06
-4.6294e-07
0.00528725
-5.14266e-07
-2.25902e-06
-2.43812e-06
-1.8685e-05
-1.09938e-06
-2.11372e-05
-0.000313537
-0.000997862
0.000110171
3.79408e-08
-0.0170811
0.00309663
-0.000609739
0.000370571
-0.000425671
0.000916693
-0.00207022
-0.0026366
-4.68219e-07
-0.00167616
-0.0301716
-3.93687e-07
-8.92e-06
-6.00857e-06
-0.164402
0.00184966
-4.35208e-06
0.00936392
0.0162887
-7.00176e-06
-1.41693e-06
-0.0249188
-0.00210297
-0.000338843
-5.20575e-06
0.0190653
0.000114656
0.000474229
-1.33908e-06
0.0197341
-0.000438612
0.000206733
0.00769275
-2.00599e-05
-5.99474e-06
-2.59082e-05
-0.000518385
-3.76308e-05
-0.0384117
0.0221089
-2.78516e-06
-0.00191168
0.00290286
0.010574
-5.21208e-06
-0.00523795
7.83979e-08
-2.59204e-06
-0.000212094
-0.0999528
0.000324522
-0.15042
7.32487e-05
0.00010225
-8.93173e-06
0.00255898
0.0100075
-1.16107e-07
-2.34231e-06
-0.000351412
-4.25782e-06
-0.000155929
-0.0164458
-0.0135986
6.45933e-05
-5.20234e-06
-4.66409e-06
0.00825408
1.28657e-07
-1.72549e-05
-3.01146e-06
2.90152e-06
-0.00213511
-0.101001
-0.0197801
-0.00417249
-1.7406e-06
0.00271878
-8.953e-06
-0.00170799
-0.031545
0.00325404
-5.99565e-07
4.07223e-09
-7.23953e-05
-2.97633e-06
-1.51143e-06
0.00601385
0.0192255
-3.61174e-06
-7.33502e-06
-3.2003e-07
-2.91128e-06
0.013001
-4.05142e-06
-0.0305989
0.00124822
-0.000259287
-2.41114e-06
-4.57483e-05
0.0204664
-4.43586e-05
0.00191539
-0.00897075
-1.29592e-06
0.000215248
5.5746e-05
0.000379429
-0.000836282
0.0334302
0.0123981
-0.000269174
-3.14971e-06
0.0174437
-4.04131e-06
-0.000111788
-2.35197e-06
-0.0255071
-8.56361e-05
-0.170697
0.0169181
7.87959e-05
-4.96233e-07
-0.00118233
-1.90027e-05
-3.41949e-07
-0.0820492
-7.21315e-06
-3.52787e-05
-2.86849e-05
-2.39795e-06
-0.0323785
3.06437e-06
-0.283774
5.32663e-07
-3.19305e-06
-0.0161801
-0.0210594
-1.34817e-05
-0.000227101
-0.000104696
-0.00013071
-0.000291842
-2.09879e-05
8.20553e-07
-1.50824e-05
0.00217507
4.39155e-05
-0.0220978
0.000799673
-0.0113887
-0.000534877
-6.05906e-06
0.0107307
-7.55311e-06
-0.0381976
-5.07194e-05
0.0121184
0.102391
0.0200217
0.00933664
0.00352517
-0.000360689
-4.21756e-06
-0.0197469
-0.000554061
-2.48122e-07
0.03979
0.0157694
-4.48312e-07
-9.69165e-06
-2.35547e-05
-2.49397e-05
-1.16808e-05
-0.00734385
-4.75021e-07
-2.88019e-05
-7.75774e-05
-0.0001488
-1.82818e-06
-0.000541625
-5.14093e-06
-0.0235056
5.68624e-06
0.000737345
-2.76603e-05
-3.24911e-05
-0.000890548
-0.180978
0.000194678
-2.80663e-06
-0.0045151
-0.036367
0.000764765
-5.17247e-06
-0.00916688
-2.68562e-05
-0.0052182
8.31583e-08
3.35536e-06
-0.0166201
-0.000269943
0.00665737
0.0395476
-5.39079e-05
0.0510318
-1.32459e-06
-5.10359e-06
0.0435919
-0.0040954
4.46946e-06
0.0471237
-1.66848e-05
-0.00109963
-0.000272592
0.000148321
-2.21619e-06
-0.00295829
0.011434
-0.0128378
0.000890854
-1.5796e-05
0.000115356
0.0114457
4.50952e-06
-1.77675e-06
-0.00077243
-7.8988e-06
-0.00619251
-0.00273108
0.0115847
0.0365008
-0.000270828
-5.42085e-06
0.0202665
-5.98096e-06
-0.000280409
-7.78793e-07
0.033444
-1.73605e-06
0.00193828
-0.0105547
0.00177241
-3.161e-06
-2.50675e-05
0.0371751
-1.56358e-07
0.000152663
-3.18157e-06
-0.00535417
0.0189182
0.000429244
-0.0245926
-3.72359e-06
-0.00377074
-0.000665631
-3.19493e-05
-3.03749e-06
-5.43722e-06
-2.98911e-06
-0.000263978
-4.92225e-07
-0.000569372
4.04223e-07
-3.35007e-06
-0.0170273
-2.63832e-06
-1.74422e-05
-1.61594e-05
-2.69178e-07
-0.0191983
-2.26669e-06
-0.000223547
0.00263533
-0.000156823
-0.0178588
-1.1617e-06
0.00927024
-0.000244362
0.0467241
-1.37262e-07
-0.000501325
-4.46832e-06
-4.90623e-05
-0.000540677
-0.000787684
0.000345263
0.0151575
0.000780662
-0.200597
5.42707e-05
-0.000234112
-0.000278475
0.0113056
3.99751e-05
-4.39787e-06
-1.55574e-06
-0.000231257
0.000179047
-0.100168
-7.62753e-05
-0.00993677
-0.00717002
0.000557456
-1.99225e-06
-0.0964831
0.000432224
-1.66176e-06
1.02122e-05
-3.13588e-06
0.00413826
-1.15192e-06
0.0131933
-2.56562e-06
-2.04597e-05
0.0190694
-0.000289261
-9.60435e-07
-1.54098e-06
-0.00566375
-2.00714e-06
4.63253e-06
-1.53114e-05
-0.000137657
-2.05251e-05
-1.27647e-07
-0.000345947
-0.000127544
0.00168191
0.00188481
0.00384405
-0.0168029
0.00633816
-4.78149e-06
-3.21686e-06
0.000353929
-5.44822e-06
0.000736155
-0.01172
-0.0120855
-5.51568e-06
-2.29175e-07
-0.0128851
-0.0339386
-4.91953e-06
-2.59907e-06
5.37457e-05
0.00991182
-0.0454386
-1.81026e-05
-2.14004e-05
-9.92091e-07
-0.0033242
-0.000563225
-0.00226608
-0.000471971
0.000544003
-5.49145e-07
-2.6182e-05
-0.00220534
5.7292e-06
-4.12943e-06
-1.58408e-05
-0.0339429
-1.53045e-06
0.02266
-1.63347e-06
-0.0155899
2.97171e-05
0.00153911
-5.30621e-06
-3.33779e-06
-0.00100445
-0.0106989
-0.00350818
0.00810405
-0.00216569
-5.39553e-07
0.00371511
-0.000514203
-7.62701e-06
-0.071892
-0.0583458
7.64151e-05
-8.17612e-08
-0.0144452
0.00752296
-4.13228e-06
-0.000220427
0.00299224
-7.45378e-05
-2.40632e-06
-3.27536e-06
-4.66999e-06
-1.08796e-05
0.000105759
-0.000623435
0.00386106
-4.29213e-05
-7.40438e-06
-1.5019e-06
-0.00211437
-2.40293e-06
-6.281e-05
0.000385933
-3.79684e-06
0.000158216
-1.19068e-06
4.34587e-06
-0.00236225
-2.57172e-06
0.0163884
-9.30015e-07
-4.16705
-0.0326333
0.000304209
-2.67534e-08
5.08744e-10
0.0238477
-5.6317e-06
-6.34694e-06
-1.25656e-06
0.000864031
0.0391096
-2.92022e-05
-0.0247277
-0.001624
-0.144884
8.44516e-08
-9.48963e-05
-4.0887e-06
-1.19446e-06
-0.00376949
-0.0166756
0.0163743
-3.56787e-06
0.000107684
-0.000230543
-0.00339582
0.0106142
0.00087405
2.00355e-05
-6.43969e-06
0.0115742
-3.55017e-06
-3.13644e-06
0.000714201
-0.000270941
2.14956e-05
0.0019588
-0.00160402
0.000194277
-2.02028e-05
0.0554223
-1.46184e-05
-2.69023e-06
0.00598655
0.00290762
-4.02158e-06
-0.00138832
-3.07026e-06
-1.40553e-06
0.00127774
0.00326658
0.0111856
-3.88531e-06
3.68436e-05
-3.09378e-06
-0.00277396
-2.12313e-06
0.0271936
-0.137695
-0.0261765
0.00392363
-0.166274
0.000352413
0.00579319
-0.0184496
-9.83182e-07
-0.000124012
0.00158487
9.87325e-05
0.000118049
-0.0066002
0.00318897
-0.0296654
-0.00506465
-2.41863e-06
0.000257977
-3.54569e-06
-0.00402537
-2.55158e-05
-7.15481e-06
-1.02626e-05
-6.02953e-06
-2.23004e-06
0.000481623
0.00432262
-5.41612e-06
-1.39543e-05
-6.08242e-06
-0.00763991
-9.73179e-06
0.0245521
-0.0179756
0.0327029
-3.32015e-07
-2.18833e-06
-0.023079
0.226634
-8.06353e-07
0.00794749
-6.10616e-07
-0.00073315
0.000233492
0.000372827
-0.000236938
-0.105674
-3.00913e-06
-4.03349e-06
0.00013765
-0.000938188
-2.27466e-05
-0.000209946
-3.04057e-06
-0.0402711
-1.31083e-06
-5.79426e-06
-5.07543e-06
-3.30183e-06
0.0104869
-0.0120155
-0.159197
-0.000198512
0.0245248
-0.00698222
-5.62586e-06
-4.94457e-05
-4.57207e-06
0.0050239
-3.9772e-06
3.65624e-06
-2.31859e-06
-3.47509e-06
-3.9302e-06
-3.88052
-5.69989e-06
0.0552869
-4.2609e-06
0.000770977
-9.14258e-06
0.000784015
-1.3916e-06
-3.65545e-05
-7.44041e-05
-0.000240071
-0.044123
-3.42848e-06
0.00010458
-0.000260727
-0.000138094
-8.75758e-06
-3.01756e-06
-0.00532675
-0.00316946
-4.10271e-06
-3.13561e-06
0.00306206
0.0059586
0.00122894
-0.0144088
1.56544e-06
-0.0169676
-3.04395e-05
-5.2156e-06
0.00195898
-4.72044e-06
-0.0459694
-1.19469e-06
-5.18683e-06
-1.45139e-06
-0.0159646
-0.0224762
-5.1171e-06
-0.0287054
0.00212736
-3.36608e-06
-3.2475e-06
-7.38504e-06
-0.0355105
0.00330759
-0.000244842
-9.31793e-06
-3.05018e-05
-1.43797e-06
-3.27347e-06
-9.27468e-06
-2.5678e-06
0.000480482
-2.71467e-06
-0.00034247
-0.00160412
-2.2005e-05
-7.35399e-06
-0.000653545
-0.00010947
-1.33585e-06
0.000373744
-3.52076e-05
-0.134314
2.67179e-05
-0.0289022
7.14406e-05
-1.5699e-06
0.000193964
-0.000623398
-1.54128e-05
0.0196885
-0.000325917
-2.2178e-05
-0.206438
-1.7585e-06
0.00126535
0.00109381
-0.002598
-3.11292e-06
-3.08802e-06
-5.98687e-06
-0.00517085
-0.000235785
-0.000201028
-0.00506104
0.00515257
-0.0222482
-3.70678e-07
-0.0031111
-0.038416
0.0122633
-2.37531e-06
-1.20134e-06
-3.85979e-05
-0.0484661
3.75994e-06
-6.64985e-05
-0.0318869
-0.019301
-3.47908
-0.00172709
0.00125848
-0.0104516
-0.0160613
-5.11522e-06
14.6618
0.00111531
-4.25513e-06
-5.06211e-06
1.58094e-06
-0.00321977
-0.000773565
0.0133391
-4.71906e-06
-0.574169
-2.57208e-06
-0.0159981
-0.00296413
-1.68281e-06
-5.78767e-05
0.011897
0.00017928
-2.87502e-05
-6.82145e-06
4.47542e-06
-1.20102e-06
-0.0424531
-0.000659955
-0.860286
0.00941385
-3.47464e-06
-0.00536623
-0.00184662
0.235731
-3.55055e-06
-1.88546e-06
0.259737
-0.0156401
-3.15622e-06
2.63576e-05
0.00535472
-0.000113599
-0.0195707
-0.0320431
0.0110639
0.0138965
2.69968e-06
-4.48718e-06
0.00250227
0.00598555
-0.00837081
-3.981e-06
-0.00605603
0.0079951
0.0028325
-4.0547e-06
-5.83688e-07
-0.0266744
-0.13821
0.0965863
0.0351032