/*--------------------------------*- C++ -*----------------------------------*\
| =========                 |                                                 |
| \\      /  F ield         | OpenFOAM: The Open Source CFD Toolbox           |
|  \\    /   O peration     | Version:  v2012                                 |
|   \\  /    A nd           | Website:  www.openfoam.com                      |
|    \\/     M anipulation  |                                                 |
\*---------------------------------------------------------------------------*/
FoamFile
{
    version     2.0;
    format      ascii;
    class       volScalarField;
    location    "950";
    object      omega;
}
// * * * * * * * * * * * * * * * * * * * * * * * * * * * * * * * * * * * * * //

dimensions      [0 0 -1 0 0 0 0];


internalField   nonuniform List<scalar> 
13917
(
0.0396289
0.0221753
4.76316
0.0234903
0.0221082
0.432356
4.40839
4.94074
5.69421
0.0641938
0.152183
0.0643158
0.0235618
11.1009
0.0261329
0.024962
0.0222939
0.0523014
0.0631385
0.0221137
0.0222668
4.32309
0.0220935
4.94947
0.022012
4.15327
0.0411082
0.0534183
0.737372
0.0987147
0.0422137
0.0277736
0.0358262
0.0256042
0.0220279
0.811738
0.0221022
3.85071
0.0252317
6.29588
0.0219049
0.0222858
0.0215847
0.0813417
0.0220659
0.0272872
0.0514943
0.0681536
2.83273
0.0220198
0.0266532
0.0223434
3.30506
0.0259872
0.0223069
0.0266502
0.149978
0.0220319
0.0248776
0.0220242
10.3677
0.0221775
23.7506
0.0221023
0.403589
16.717
0.0221037
0.0220455
0.166897
0.0361537
0.0221159
5.77497
4.34289
0.022018
2.90299
0.0752386
5.73102
0.0227066
3.91678
0.0222368
0.0222046
0.0221112
0.373372
3.83149
4.82688
0.0226109
0.0221802
14.0034
0.0263887
0.0215756
4.12725
0.0859427
0.021881
0.0229927
15.1602
0.374858
0.11619
0.0629171
0.1305
0.106527
0.0218197
0.0323613
0.0817014
0.0230892
0.0217992
6.02638
0.441631
0.0718852
0.022299
0.0451206
4.36297
5.53584
0.0823488
5.90878
0.0229587
3.21838
0.0220104
1.4851
5.14495
0.0259781
0.0222739
0.161353
4.64779
0.0503807
0.0219808
0.0228264
0.0220351
0.0219885
0.0216075
0.414919
3.62915
0.0228654
0.0220892
0.0222743
3.71986
4.9172
0.0401829
0.11358
0.0220966
0.0258656
0.303165
0.0217686
0.0225745
0.101005
0.0220455
5.89605
0.776195
0.0222898
0.0217424
0.0284086
0.0546195
3.21794
0.0845722
0.0411344
0.0268631
6.46428
0.0346949
3.22545
7.7933
3.64626
0.0242099
0.0420157
0.0222367
0.111146
0.0806869
0.128084
0.0230603
0.0582287
0.0219062
0.0333599
0.0414442
6.77226
0.089584
0.022601
5.51657
0.0451357
3.62166
1.94845
5.81749
0.0219237
0.0898547
0.0437281
0.0217625
0.0221712
0.0298902
4.28772
0.333085
8.38523
0.0361596
0.119592
0.320718
5.34986
0.304096
0.0221039
0.119843
0.0399939
0.0224646
0.021889
0.230068
6.86392
0.025999
0.0220351
0.0540341
0.0539303
4.76722
1.69938
0.0220302
0.0220456
0.0614839
4.523
0.0224753
4.42217
6.67181
0.120013
0.021807
0.574708
0.0538306
6.18494
0.0219669
11.0343
0.021918
0.0882736
0.0218957
3.89857
6.07023
0.0252894
1.97714
0.0271881
0.0218106
0.761499
0.0877662
0.0357481
4.84379
8.94328
0.0217754
0.0282624
4.08084
4.64625
0.0222289
0.0219509
5.03748
0.131906
0.0222668
0.216225
0.0940365
0.0402294
0.0368787
0.0222287
0.0448804
7.37725
0.0219239
0.114718
0.141467
0.0220119
0.0220217
0.0670502
3.78535
0.0795297
0.0302132
0.026292
0.0222712
6.01626
7.07836
0.241374
0.0218185
4.60043
6.8611
3.89777
3.84393
0.0802687
0.0222153
0.021937
0.051715
4.1181
0.116407
0.0246001
2.41592
0.0418031
0.0216003
8.51458
0.0220902
5.51575
0.0255492
0.022262
0.0272798
0.0408099
0.0418446
0.210956
0.0323019
0.0220263
0.317232
4.87588
7.0462
0.0219682
4.39251
0.0221727
0.0220202
0.022018
1.12302
0.0221058
0.0968375
0.0359466
0.0218866
0.0541987
0.0230946
2.38328
0.0439606
0.0784649
0.0218015
0.0220127
4.44654
5.24924
0.0220046
0.0219162
8.57193
0.0219051
4.2013
0.0217948
3.90939
0.0223637
0.465634
0.0329265
3.02498
0.0239109
1.57843
0.308189
0.0272783
0.131208
0.514763
0.0222613
3.7384
0.120622
5.68474
0.0248012
6.6246
0.0289743
4.76647
0.244582
0.110322
0.107591
4.66787
0.0222169
0.0430067
4.34872
0.0221688
0.0234447
6.12625
0.280236
0.0225272
0.21766
0.675083
0.0218617
6.18895
0.339266
0.0220837
0.0218959
0.0221802
0.0217372
0.33056
5.71372
0.701199
4.35296
0.0220159
0.128676
6.62832
0.0417951
4.33235
3.96736
5.96323
0.0217687
0.230313
0.0218757
11.1161
0.0220222
3.76564
0.09397
0.0245032
0.0221986
0.0583822
0.0979453
0.0709528
8.38414
4.52477
9.58614
0.0468062
0.0601371
0.0219588
4.80313
4.18609
0.0220508
0.779237
0.0220424
0.311368
0.0223614
0.0222269
0.0231322
3.63602
0.0230959
3.47548
6.23341
0.136443
0.465699
0.0222495
0.486699
0.419864
0.0220392
0.311253
0.0221519
0.0220279
0.0989177
0.0222616
0.0220164
0.0218718
0.34766
0.0222479
5.54954
3.96908
5.18921
0.304251
3.41417
6.13766
0.0411795
0.0220222
0.170022
0.0250216
0.0295304
0.0220964
5.80275
4.40694
4.00042
0.0249344
0.106472
0.0245469
0.0256756
0.0705632
0.0229141
0.275418
0.0222863
0.0220968
4.13597
3.61302
3.61468
0.126928
6.18878
3.70423
4.32244
5.78957
0.0216372
0.0562664
0.0229726
0.0220752
0.711053
0.0524383
0.0218821
0.0609941
0.0390846
5.84371
0.022035
0.11366
14.4597
0.736059
4.42277
0.0222553
0.0220575
0.022429
0.034944
0.0217712
4.29269
0.550469
0.0321268
5.38742
0.0265718
0.113386
4.46658
0.790288
0.132056
0.329535
0.113303
0.0595674
0.159493
0.0418356
0.151266
0.595989
0.0472436
0.079786
0.0218672
1.997
0.0273925
0.0216615
0.0334903
0.0228106
5.40205
5.91754
0.0219
0.0216173
4.48825
8.72802
0.0222618
5.75934
0.0227844
0.223207
0.0219141
5.04462
2.41592
0.0283345
0.0223058
3.39274
0.256279
6.96588
0.0222694
6.51069
2.43847
8.80943
0.021671
4.61202
6.45802
0.04186
0.021889
0.0222847
0.0754914
0.33038
0.0218166
0.021902
0.0219602
0.0219546
5.16046
0.791366
0.0412669
0.322512
0.0219681
0.0218269
0.104272
5.26602
0.033067
0.0219185
0.0220237
0.0220653
8.74059
5.91393
0.0221744
0.0220644
0.210261
0.041518
0.032878
0.0220504
0.0232085
0.0268629
0.0779321
0.41027
0.33128
0.173479
0.0956033
1.79608
0.0765986
0.0219781
6.155
0.0220688
0.0237269
0.0241399
1.90762
0.0754692
0.0218322
0.736457
0.111759
12.5319
0.0966218
0.0354349
0.0411298
0.0221898
6.84399
0.51017
4.25049
0.022204
0.0292781
0.322454
3.96434
24.3755
0.0659407
0.14665
0.0249069
0.0240728
0.0220531
0.0540854
0.0868743
0.0221636
0.0533063
0.134555
4.3398
6.27838
0.023993
0.10975
1.71613
0.0283993
0.0223857
3.51458
6.40517
5.69785
0.290911
0.0216219
5.56216
0.0739153
0.0218662
0.0312859
0.0729484
0.0343995
0.0967997
3.94117
0.155382
0.0371581
6.78673
0.0231003
7.28
0.0222375
0.0221677
4.48193
6.35084
0.631887
0.0230952
0.0225464
0.0220676
0.0424448
3.35711
0.120889
0.024273
0.1231
0.057271
0.0219185
2.035
0.117451
0.285959
0.0219496
0.150543
0.0227877
10.1638
0.065559
0.0750975
0.029592
0.0218828
0.0216796
0.0220695
0.118708
0.0276503
0.332643
7.15716
0.0574905
0.0218708
0.151868
0.657015
1.38066
0.0219019
0.0270834
0.0219098
0.0285668
0.025038
6.28184
0.0222288
4.3137
0.0283184
0.150697
0.0870889
4.36521
0.0781525
0.0222392
4.34894
17.7461
0.022032
0.0240606
2.53292
0.232456
0.116229
0.0222376
0.022334
0.348708
0.0246369
0.0703551
0.0638908
0.0216807
0.0538482
4.79548
0.0218848
0.0229236
0.02198
5.46854
0.0222657
0.0246018
6.12548
0.0233113
6.31275
0.026944
0.0365398
0.0219726
0.0501995
0.0220265
0.0581353
0.0218883
0.08503
0.0227859
27.1928
3.00635
5.30137
0.0223103
0.0222063
0.0725569
0.0480327
4.7431
5.59824
0.0518107
0.0220317
0.342979
0.649112
0.277841
0.280924
0.0496077
3.88562
0.0391192
0.0398234
0.145883
0.182077
0.0510908
1.10098
0.0505581
0.0234561
0.0776106
0.0273792
0.0217359
0.0283588
0.0450456
0.0277564
0.0220335
0.0219293
0.0575127
0.0232684
0.0712195
0.0220339
0.0220572
0.0222734
0.0231108
0.0215394
0.0257333
0.022
5.22213
0.0631775
0.36138
0.0217951
0.0222472
0.048072
0.0606166
0.0226873
8.27085
0.0792462
11.2523
0.0284169
0.121501
0.0223986
0.0222689
0.0219374
0.0231106
7.88524
0.0222551
4.32495
0.0260118
5.98623
0.0489782
0.0805125
0.148063
0.0216781
0.022291
0.0643038
0.0220456
0.0223941
7.92386
0.0226838
0.0221805
0.0277164
0.0219445
0.0216741
0.0278171
0.0281551
6.01514
0.0348841
0.0218837
0.0218798
3.98794
0.116686
0.02219
0.0222074
8.16421
2.26433
8.69073
0.0355413
0.0234657
0.0217867
0.0216561
0.0481175
0.0359269
0.232513
0.0251545
3.82873
0.0222855
0.0236116
9.40413
0.0220489
0.0275403
0.0219889
0.0220809
0.0436808
0.0426159
0.0224546
6.26802
4.34206
0.0880357
0.0219742
0.0215929
0.116901
3.56344
0.0222612
1.25375
0.0215929
0.0424731
0.0217272
0.0217749
0.34085
0.0219749
3.28708
0.0396873
0.0222732
0.0216163
0.0220669
0.0219111
0.022841
4.14679
0.02185
0.0217627
5.19851
5.89495
0.0383151
0.0466411
0.0665883
0.025001
0.0217827
0.0280421
5.06434
0.089865
0.0221308
0.0222494
5.70131
0.0357055
4.45615
0.0222662
0.0227948
6.54661
0.0332126
0.0225293
7.98322
1.73695
0.021908
0.131542
0.0219348
0.0219512
0.0217823
4.34666
0.0215323
0.0219043
0.0217769
3.45438
0.0245712
0.221229
0.0631584
0.0217654
0.0328085
0.0221744
4.36315
0.0219662
0.021867
0.0221815
0.121459
0.0221737
0.155155
5.77273
4.77674
0.0265589
0.394895
5.36492
0.0220084
6.94203
9.70826
4.85193
3.43334
5.09014
36.8364
0.141192
0.0223099
3.86404
0.0331553
4.10185
0.0216656
0.0218764
0.0221904
0.0221676
0.0257824
0.0310173
4.59093
0.0218664
0.0220717
6.4404
0.292305
0.0220673
0.0375004
0.0294016
0.0221883
2.79734
0.0383037
0.0237348
0.0245095
5.7251
7.82994
1.29963
0.0217114
0.25915
0.111466
4.63454
6.00295
0.0878078
0.0219097
0.0224584
0.0222879
0.0214973
0.0231978
0.0216301
0.0269734
0.0380743
5.65584
0.129593
0.0219184
0.118474
4.35161
0.0413383
0.0223023
6.5166
0.0218706
0.0223149
0.0376317
6.64783
0.0221739
0.0219506
4.42689
0.199623
1.28864
0.105158
0.836868
0.0219261
0.172889
0.0223311
0.0220003
0.0223257
4.26482
6.37031
0.0217548
0.0216125
0.022008
2.71948
0.022984
0.0294481
0.0220461
0.0224137
0.167796
0.0217806
0.0593149
0.345703
3.61126
0.0219828
0.0829119
0.0241687
4.54201
4.29997
0.0220182
4.49766
0.0711155
1.4497
0.0221726
3.58282
0.0222454
0.0264722
0.0424224
0.105224
4.49372
0.372237
0.174253
6.49462
0.0218644
0.290081
0.0217649
0.0273596
4.4233
0.0220848
0.0222529
0.0227736
0.0221631
5.20068
0.0216736
0.0220844
0.0547525
0.046692
0.0495535
0.590825
0.129452
7.697
0.0644162
0.0349493
0.0388693
4.68485
0.0393913
14.308
4.07695
0.0252653
0.0217831
3.29812
0.285082
0.0222935
0.109259
0.0334574
0.0222879
0.0261656
0.0222048
0.0424328
0.0222921
0.0486054
0.107511
0.0218834
0.0603656
0.0218005
0.0590895
0.0218837
0.0261277
0.0575191
0.0234041
0.0220819
0.0217645
2.09326
0.0803992
6.18695
0.0220136
0.0221244
0.0585609
0.0219898
0.0907046
0.0806367
0.0222898
0.0943908
0.0217854
10.1122
0.0222573
0.0366924
5.43304
0.287537
0.021933
0.0235688
6.78092
0.0220028
0.0219214
4.48859
4.22153
0.0242121
0.16277
0.0221044
0.0220752
4.31346
0.0229811
0.0216883
0.250953
0.0218039
2.14438
0.0221983
0.0216915
0.0221904
0.131599
3.67897
0.0221174
0.0222609
0.0219269
0.0258104
0.0220778
0.986198
0.0582899
0.0222688
5.71338
0.0492654
0.294379
3.72339
3.64534
0.0217433
0.0222452
0.0220403
0.751795
0.0262922
3.71971
5.74418
0.0238896
4.32546
2.31741
0.0490553
0.143774
0.0690312
0.381969
4.53101
0.0627056
1.02106
3.86274
0.0630088
0.0251258
4.5084
0.0539197
0.0216772
0.0232397
13.714
0.0379427
0.0218937
0.0520583
0.0997718
0.0382912
4.39963
0.023693
6.49666
0.0389453
0.255342
0.123943
0.277622
0.0287227
0.0217774
0.0225602
4.77017
0.0219964
0.0240813
0.0217987
0.0232224
0.0218686
0.0352106
0.148765
1.91031
0.0437754
0.0592663
4.01871
0.355195
0.0218606
2.35401
4.18534
0.0217273
0.0219126
0.0305019
6.73805
0.0222544
0.0687197
0.607958
0.0476295
0.022059
0.0230646
0.0218185
0.109601
0.0392868
0.0219912
31.0824
3.89916
0.0427735
1.53404
0.0638732
5.19222
0.0232486
0.0252851
4.30746
2.17315
0.0886556
1.75828
0.0281412
0.0222763
0.0219381
0.0221686
0.0220274
0.0226201
0.0523944
0.0219413
0.12136
0.0219434
0.0282437
0.0217464
0.0799067
0.120451
0.790301
0.0219961
0.274699
0.0219367
4.41631
0.0220371
0.025584
0.0221247
0.253726
4.66431
0.138861
0.0219353
0.129957
0.0220209
0.0295709
4.18422
0.021926
0.0223458
0.0449764
0.031259
4.32823
0.0219427
0.029635
0.0230555
0.0220421
0.0319344
0.0224538
0.0217497
0.0236375
6.4384
0.0243631
0.237813
5.73849
0.0511237
3.58038
0.024123
0.021756
0.0308314
8.33474
0.0232603
0.0362664
0.0414425
4.5777
0.0218976
5.74819
0.0618123
0.0694053
0.021718
0.0216312
0.167747
0.0224132
0.022286
0.0335967
0.0216754
0.024355
0.0283783
0.0688863
0.268813
4.33534
0.0250185
0.0725808
3.03402
7.48506
0.0370076
0.262066
6.60121
0.0388876
13.1948
0.0236554
20.1652
5.32035
0.0216588
0.022262
0.0219568
0.0225469
0.044624
0.0217478
0.0238809
0.0879047
0.0232286
0.0353073
4.26436
0.0300664
0.0240455
5.69935
0.0225346
5.67366
0.024215
0.0545211
0.0218872
6.78069
6.01422
0.0220197
0.0226626
3.74389
0.0294237
6.73671
0.0220232
0.0218018
4.33627
0.0226494
0.044245
9.72414
0.0220661
0.0541271
0.0290033
0.021627
0.0219043
3.82818
5.59685
0.0221877
0.0234301
0.022052
0.0264273
0.0360716
6.08211
0.0226532
2.5639
4.3187
0.239913
3.08187
0.0226004
0.120182
0.193662
0.0289633
0.0220619
0.0590053
4.08501
0.0233545
0.0460932
5.01367
3.64051
0.301187
0.0251847
0.022254
0.0222463
0.0220684
7.47669
0.0540736
0.023726
0.0227705
0.0242869
0.02227
0.0219761
0.0220427
0.0713295
0.0374603
5.62019
0.0464231
5.06435
3.38988
0.0303183
0.0500263
0.0218126
0.0284241
8.22885
0.0221222
0.0235168
0.0505878
0.116328
0.0566954
3.86352
0.219963
0.0218749
3.93517
0.0215949
0.0222324
0.0462285
0.0222735
0.0219187
0.16742
6.88717
0.0218097
4.23465
0.0221043
0.0217334
0.0234343
2.68799
0.0289745
0.0241873
12.8576
0.0228893
0.233156
3.40493
0.0222462
0.0477611
0.0220116
5.86934
0.0699506
0.0220445
4.10978
0.0531344
0.0786596
0.0222785
6.53279
0.0291251
0.404194
0.0228636
0.0717141
6.84187
0.0217545
1.46025
0.022108
0.0614599
0.0521571
0.0222453
4.55611
0.0235603
0.113986
0.0569575
0.0963384
0.0403082
0.0432351
0.0225824
4.97679
0.0317661
6.97194
0.0298367
0.0630019
0.0219621
0.0435619
0.0220457
0.0679963
4.64365
0.0227312
0.0218281
3.4258
0.0227818
3.22474
0.0224492
4.32539
0.297767
0.0350194
0.0219924
0.0219417
0.02211
0.021629
0.102123
0.0558867
0.0385567
0.0256952
0.0220837
2.30999
0.0235097
0.0338195
2.5714
0.0220335
13.8152
0.0504486
0.0294717
1.26016
4.341
0.323987
4.48602
9.28389
0.0218907
0.365132
4.9807
0.363107
0.0221737
0.022218
0.112507
4.03744
5.54867
0.633602
0.0222708
0.0510191
0.0395573
3.41224
4.90369
0.0414062
0.126015
0.0238558
0.0803171
0.0884108
0.0221655
0.104013
8.08599
0.0221312
3.32459
0.0222533
0.0219517
4.6874
4.01556
0.0218515
0.0223445
0.02245
0.0218088
0.0484927
0.173907
0.0230324
0.0219903
0.0220994
0.0396258
0.0276643
0.0274093
0.336333
0.0220272
4.09793
7.59642
4.28412
0.153138
0.0517993
1.00129
0.0330542
3.81669
1.82654
9.41749
0.0224075
6.78648
3.46814
0.0217704
0.0220374
0.102938
4.51025
9.8776
0.0217675
0.0220261
3.60119
4.68279
6.34831
0.0239303
0.0239117
1.8756
0.022192
3.72332
7.25803
1.19733
2.45325
0.0220633
0.0219262
0.0218887
0.026136
4.10398
0.0395172
0.0253333
0.0226277
0.0865699
7.13506
0.0395922
6.15107
5.33581
5.23545
2.16972
0.022052
0.0221726
4.34513
0.0216622
0.0216757
0.0230354
2.8136
0.0368413
9.45595
0.131074
0.0220278
5.43486
0.0391684
0.0218727
6.06816
0.168729
0.0250447
0.0220845
5.10145
4.49232
0.0221805
7.49206
4.38449
6.28268
2.25912
0.0821999
0.02193
0.0225315
1.78206
0.0254618
4.49112
0.0413686
3.2281
0.260003
0.0228889
0.0289859
0.0219265
0.0226958
4.71565
6.90671
0.0220687
4.88238
0.0421604
0.0220332
0.0247938
0.0219368
0.160896
0.0224284
2.29718
0.0515043
0.021921
0.0218756
0.0966489
8.08567
0.0385285
0.0239501
0.0424692
0.0220405
0.0230842
0.0271485
8.7609
4.0943
4.50055
0.0217212
0.0218689
0.0223464
0.121273
0.0218776
0.0223919
0.168765
0.0576686
0.783815
0.0216467
4.46081
4.06546
0.0222843
8.85669
0.113429
0.0365999
2.05099
0.0222946
5.13703
0.0294836
0.0230444
0.0238892
0.0216585
0.209922
0.022449
0.02273
0.0307823
3.51455
3.61524
0.0222462
0.0220232
0.0234695
0.0219847
0.132433
0.0224332
0.0833999
0.0234784
4.14037
0.0226284
4.25046
0.0217226
5.59978
0.022384
0.0216424
7.03129
0.317636
0.112631
1.02369
0.0442198
0.0401404
0.0220453
5.1583
0.0220646
0.021884
0.0874818
0.0629534
10.1355
4.48325
0.121518
7.00304
0.128613
0.816461
0.0218893
0.0248352
0.0276875
4.15435
0.0248419
4.27534
4.48657
0.0221703
0.0220694
0.022014
1.56855
3.33193
0.0233046
0.0221105
0.0257039
0.0279641
0.0375646
0.384791
0.319068
0.0220651
0.647405
0.084297
8.48458
0.0711579
0.0232518
0.0238346
5.25628
0.0218858
0.0883392
4.60581
0.0227189
0.0253258
0.173609
0.135823
0.0227582
6.50964
0.0243041
0.290656
0.0397962
0.0302791
0.022704
4.42413
0.0218622
0.0972249
1.44793
4.86917
0.0491985
0.0664055
0.0254738
0.0475557
0.0222658
5.07613
0.0265143
0.0219727
0.029641
0.0220929
0.0222692
2.96125
0.0220694
0.0221794
0.0220461
0.128414
0.0222496
0.0329795
0.0712939
0.233544
0.116158
0.0222537
0.239111
0.476817
0.222372
0.0842975
0.0274902
0.155827
4.78721
0.645283
0.0222845
7.67968
4.2227
0.0222839
0.0240641
0.0216485
0.738473
0.105284
0.0220337
1.29201
4.20622
0.0218131
0.0222158
3.78597
4.16115
0.0643675
0.0216616
11.2885
3.27911
3.26796
0.0220296
4.17087
0.0812216
0.0707452
4.42302
0.0260394
0.0216604
0.0298477
0.189457
0.0316983
3.99727
4.53563
0.0218224
6.52188
0.514782
4.5807
0.0217201
0.0510893
0.0222944
0.0219268
4.16603
2.93745
0.283652
3.7701
0.0292407
0.0500286
0.0222059
4.72143
5.91363
0.022049
0.0222455
0.0317994
0.0218039
0.0502137
4.49661
7.5229
0.0505736
0.0224539
0.0221314
4.1698
0.0249748
0.0521134
0.0218015
0.0229756
0.720971
3.27262
0.340638
2.92761
0.0221712
0.30107
0.0223024
0.0476774
9.86938
6.83009
0.0220742
0.0222938
0.035168
0.0257066
0.0221916
4.42967
4.18294
0.0217819
0.021519
0.0221912
0.0219706
2.68619
0.0217333
3.9155
0.102138
0.0627981
0.0218576
0.0476998
4.68633
0.0332749
0.448319
5.90642
0.0222486
7.10717
0.033124
0.0355832
0.361051
7.20821
4.64541
0.0593388
0.0219006
0.256096
0.0217437
0.0252579
0.0222109
3.92298
0.031695
2.34222
0.286388
0.0480699
0.0221253
0.292716
0.0267518
0.0222704
0.2621
0.0216022
0.0375384
0.0338791
0.0221733
9.9138
0.0233632
0.55294
0.0228247
0.0219394
5.61263
3.6987
0.0241108
0.0325794
0.0386347
0.057567
0.0575993
0.0260962
0.0258766
0.0251188
0.217897
0.0250401
4.04163
0.0594895
0.241221
0.115764
0.0226226
4.59172
0.0216131
4.54897
0.024215
4.36401
5.34059
8.80895
7.69314
0.311368
0.0763806
0.0220039
4.31777
0.0852178
0.0220439
7.90718
5.6669
0.0232771
0.0237066
0.0306288
0.0306339
0.0320614
5.22574
0.022284
0.029581
0.0347036
0.0321665
0.022165
0.0837232
0.021614
4.14345
0.0236573
0.132989
0.031694
0.0393081
0.123664
3.36812
0.0860265
0.0218378
0.245818
4.30624
22.9563
0.0223717
4.19211
0.0287785
1.79562
0.0220648
0.0245002
3.86004
0.0511587
5.04785
7.36866
0.033375
5.00544
0.0219735
0.0216035
8.87897
0.0590795
0.0244207
5.39386
0.0268593
0.0456034
0.0293339
0.0708393
0.0221597
5.74723
5.25781
7.03124
0.287337
0.0254287
0.0568452
5.02379
0.0240307
0.0223078
0.0820687
0.0216952
0.294225
7.87711
6.39343
5.35873
0.0547725
0.0224362
4.20383
0.0216003
0.0727763
0.0222354
24.2429
0.0237656
0.0472218
3.74457
0.117908
0.0220288
0.0321053
9.25789
0.0220764
0.143229
0.0217924
9.59298
4.29461
0.112263
0.081785
0.0219541
0.205543
0.135319
0.0390893
0.0217975
0.0224711
0.0221472
0.0538239
0.0221243
0.0846603
0.0221247
0.0217999
6.57829
0.0218654
0.0267526
0.0249897
0.0222748
3.65374
0.0218619
0.0337653
4.0339
0.0480347
3.95362
0.0220637
4.52435
0.0504765
5.16887
0.0235481
0.124366
0.0221603
0.0405996
0.120927
0.110818
0.252695
4.14389
0.217025
1.86261
0.0269831
0.109281
0.0417914
0.742295
0.0250627
0.0221087
0.0220321
0.0510927
0.0462236
2.33936
0.0528885
4.67036
6.86898
0.102724
0.0220072
4.41897
0.200346
0.0224711
0.0240648
0.022074
4.91254
0.0220351
8.25175
0.0218532
0.0269018
4.9196
0.0783145
0.0220456
0.0220268
7.84546
0.0218737
0.0240434
0.0251516
0.0324547
0.0275698
0.0221636
0.151144
0.081412
0.0438831
0.319775
4.44778
3.64808
6.17224
0.0217376
0.0219893
0.101984
0.0224465
0.0468917
4.13685
3.77553
0.021658
0.0220455
3.39372
0.38528
0.021674
0.0218395
0.0265999
13.3218
4.06451
0.0264736
0.0339592
0.0222002
0.373174
0.123706
0.141761
0.0317027
0.0441972
0.0224161
0.0380434
0.31184
0.0227688
0.0221432
0.0262795
4.57411
0.0251876
7.31307
0.0221085
3.82696
0.0364382
0.0281208
0.0217809
0.0219289
0.802184
7.89773
0.0578121
4.24337
9.85048
0.0225291
4.02877
0.14107
0.0218931
4.59768
0.25383
0.112633
0.0222538
3.49764
4.52857
0.0219512
0.0395899
4.28178
0.0448852
0.0220517
0.0217926
0.0223861
0.023865
0.0815798
0.295047
0.0773615
0.0776252
0.0217238
0.0221929
4.6407
0.0218437
0.0482714
0.02656
0.0221267
0.0500862
0.0220281
0.0237133
0.336554
0.022002
4.49813
0.0220238
14.4008
3.68341
0.0932589
0.0222419
0.0222927
4.22135
0.0216469
0.024155
0.0223383
0.33825
1.09665
0.0335537
3.68541
0.0417991
1.28339
0.0225405
0.0682705
0.021795
0.0221407
5.06074
3.73362
1.34636
0.0237536
0.0683518
0.0682935
4.80796
4.09552
0.316066
0.039206
0.0215953
4.17006
0.0219078
0.0219668
0.29327
0.111722
0.0282513
0.199812
0.0472716
0.0315611
0.027592
5.21498
0.0243249
0.0219959
6.78731
0.0475968
0.0217174
3.47137
0.022035
0.022113
0.160497
0.153018
12.31
0.0217342
0.0247855
0.0219185
2.21808
0.0218684
0.534051
4.07179
3.60643
3.4583
33.0459
0.0302323
4.48492
0.866303
0.0222103
0.0306074
0.0436671
0.0303971
1.23474
4.15352
4.46849
3.56826
2.38713
0.0221543
0.104053
0.0220423
4.84149
0.0285352
0.0231252
0.0240683
0.0226857
0.0218833
0.104562
4.4695
0.021725
0.0236215
0.0218674
4.57701
0.0234749
5.6128
3.86514
1.27277
0.0220958
0.0218897
4.43099
0.379177
0.0221402
0.302894
0.0222285
0.142017
0.187631
0.0941664
0.0508538
10.5868
0.0218005
0.0217967
0.221067
3.34291
0.0293098
0.0468854
0.0219384
8.55059
0.0220149
0.0219552
0.0231395
0.0219968
5.31131
4.04478
1.57773
0.0593829
4.23935
0.474828
0.0216634
0.0309069
0.0217011
1.26811
0.0219909
0.0248338
0.0220003
0.0219241
0.0217807
2.74275
0.0227972
1.69967
0.0216012
0.0325221
0.0229132
1.56996
0.0220493
0.0313699
0.0347681
0.0696905
6.89827
0.0219202
4.24943
0.0687275
0.0456541
0.0219784
0.021952
3.51786
16.0909
0.0220066
0.0218851
0.272381
0.238395
0.0384027
3.96527
0.0227533
0.40157
0.0310861
0.0217093
5.4614
0.0229959
3.94011
0.0220302
0.0226786
0.0221219
4.25774
3.58993
0.0216783
0.246686
0.238245
0.0220615
0.0218664
0.0219016
0.26068
4.02849
0.0645507
0.024209
0.0395446
0.022033
0.0220506
0.0236663
0.0220074
0.18244
0.0220637
0.0625721
0.630252
0.0359818
0.021622
3.97556
0.0731854
0.022042
0.0808206
0.0304273
1.36234
0.0245249
10.3166
0.0567115
0.0219948
0.087027
0.0862006
0.0246166
6.03195
0.059055
0.0296012
1.77719
0.0219416
0.152311
0.0882963
0.127616
0.0219439
0.0219771
0.0216435
0.0328853
0.0549108
0.0537197
6.47783
4.64296
3.89767
0.0222668
1.90119
3.75002
4.24517
0.0220016
0.022027
0.0531612
4.17968
0.0241588
0.0349731
32.2905
5.05307
16.3771
0.114984
0.166616
3.37997
0.383374
0.0216137
11.6287
0.275982
0.0223172
0.0223353
0.0228056
4.72662
0.0969885
5.28937
0.0239596
8.14777
0.0221265
1.2105
3.83357
0.0222119
0.0338556
4.2732
4.70775
0.0553456
0.0228498
0.023715
0.0223858
0.228131
0.120466
2.46941
4.1497
0.0217514
5.28869
0.168391
1.16616
0.0220309
0.0221655
2.46825
0.26234
0.0219618
0.0498665
0.0734131
0.0391429
4.10237
4.60143
4.71589
4.13277
0.0254685
0.021666
0.0668375
4.52331
10.2843
0.0219428
0.275815
0.0905487
0.4535
0.0224646
0.0222564
1.20488
3.93289
6.61356
1.66295
4.22701
0.0219619
0.260451
4.11902
0.0222359
0.0626526
0.10645
0.0216874
0.161345
4.94841
0.240253
0.0222554
5.26592
0.116755
27.4625
0.0215125
0.0236145
0.0221595
0.0231188
0.0221263
0.0539226
0.040377
0.0424636
0.335824
0.033526
4.21594
0.0252901
0.0287674
0.0280446
9.05988
0.0580877
4.99752
0.0281106
0.0278367
19.1679
0.0973954
0.0220713
0.042196
3.85606
5.33701
0.312565
0.021977
0.0219124
0.0219364
0.99655
0.0231548
2.48742
1.32783
0.260878
0.0319338
0.257661
5.58562
0.0221273
7.34435
0.0335963
0.0510916
0.0219443
0.021913
0.0531068
4.37195
0.0220809
4.95232
0.513269
0.0990739
0.18964
0.0218767
0.0220261
0.0298083
0.0228954
25.6899
25.0311
0.0846085
0.807789
0.0219636
0.0220868
0.022171
0.0222458
7.6532
0.0231938
4.53737
0.0873531
0.0224929
0.381063
2.57237
3.46369
8.5861
0.023522
0.0217787
0.0221311
0.0234666
0.742063
0.242943
5.92931
0.0221557
0.0224136
0.160934
0.0222602
0.196052
0.0236874
0.151545
0.172342
0.0413603
0.0398863
0.0217294
0.0470072
0.0382633
0.210629
0.081092
0.0425746
0.0218714
0.24711
0.0218899
3.03758
3.67463
0.933079
0.0220745
0.109475
0.0220209
0.0489324
0.0229643
0.0226878
0.0282094
8.92612
4.07252
0.0793267
0.0473792
0.227359
0.0781103
3.99916
4.28622
0.0309832
4.22357
0.354847
0.0218524
0.056597
4.30375
0.0972458
0.0222363
0.0537913
2.24662
0.403069
8.4058
0.0221428
0.778772
0.0220982
0.021933
0.0418771
0.275334
0.0222639
4.24121
5.19588
0.201043
11.2412
0.376455
4.80656
0.318827
0.0217282
0.024757
0.0216534
0.0428123
0.291315
0.409134
0.0243575
0.0418066
0.0216404
4.38896
0.0383179
0.0474419
4.0919
0.0997695
6.79095
4.77441
0.0219709
6.765
0.0221176
0.0283269
0.0470974
3.88279
0.151674
0.0278537
0.0231927
0.575779
0.034368
4.31253
6.0088
0.0317947
3.2777
0.0449888
0.022273
1.16562
0.0624828
0.0229965
9.0635
15.4064
0.0298351
0.0260399
0.129938
5.93779
0.0219593
0.0222153
0.0216738
0.0217624
0.0223326
4.82915
0.0315224
3.93156
0.021958
0.0219395
0.867477
0.022188
0.0237815
0.022059
0.0220341
1.77778
0.0217628
4.73963
0.0220003
0.0230671
0.0414244
0.0221769
0.145442
0.021775
0.0222652
0.0217922
0.0276782
0.0895193
0.0244628
3.67963
0.0219369
0.0434936
0.0296562
4.2665
0.0227582
0.0222688
0.0217099
0.0216896
0.394954
0.0219082
0.0218976
0.0245671
1.90202
0.0219371
0.0428449
0.0326587
0.0220192
4.87122
6.75114
0.262053
4.94089
0.0248009
0.110059
0.022153
0.100091
0.343358
0.0223078
1.8838
0.129759
4.61288
0.0307448
0.0220335
1.5821
0.0433442
0.785223
5.13587
0.0215876
0.0219856
7.47825
3.26361
0.0590014
0.0567066
0.0230546
10.6653
5.72212
0.0215164
0.0219679
0.0221061
0.0221738
0.0222482
0.0220376
0.0355792
4.26925
0.0310143
0.0221928
0.434688
0.0219889
0.814606
0.0464903
0.0220897
0.0274668
0.0219177
0.365999
0.0248835
0.050632
0.0219634
0.0222585
4.5284
4.91467
0.0221773
0.0511764
0.0444802
0.0310177
0.0239171
0.0222713
0.0227636
1.57318
0.553307
0.0400758
4.8964
0.0224902
24.5168
0.104678
0.0258598
17.4653
0.0230648
4.3182
5.35662
3.45422
3.72758
4.13065
3.74449
0.0216538
0.0271993
0.0247586
0.0216417
0.021744
0.0291389
0.0767305
0.0217826
0.0294067
0.120866
0.0756373
0.342713
0.203964
0.0335885
1.75543
9.51539
0.033926
0.0249104
0.127776
8.80538
3.85851
0.0255362
0.0216289
0.0218723
0.0217828
0.0317471
3.82651
0.367481
0.0217513
4.67217
0.0219823
0.137919
4.15058
0.0813659
0.192581
0.0894072
0.333072
0.0228266
0.0332659
0.0218675
0.237428
0.0219677
0.0229722
0.0330777
0.151606
0.0221772
0.0244609
5.62831
0.0218225
0.0220432
0.0290097
5.70763
0.115376
0.459778
0.0385652
0.0221499
3.37604
0.0372318
0.0232869
0.0220219
0.0306797
0.0265815
0.0220324
0.0278382
4.46787
0.0235544
0.0216564
0.0469421
0.0218847
0.0316097
0.0301411
0.0220682
0.0219981
4.6838
0.0217194
0.0220335
0.02166
0.0257463
0.0214837
4.908
0.0258345
0.213144
0.0219621
0.0219049
0.0220638
4.35751
0.0643015
0.0220415
0.0216181
5.56237
0.0250802
0.0664033
0.0218615
0.149097
0.0233603
0.0215615
3.54794
0.0217689
0.0222594
0.0221472
0.021992
0.0241443
0.0221272
0.0220367
1.62958
1.53209
4.64308
0.240985
8.45745
0.0218604
4.68743
0.0219684
4.06965
8.03079
0.0218014
10.4032
0.0219803
4.18148
11.7154
0.26876
4.15013
3.96589
0.80968
2.13671
6.14226
5.24041
0.0431585
0.0421343
4.61936
0.0234953
0.0216656
1.44026
0.0238427
0.02822
11.867
0.0229658
0.675982
3.67771
6.43125
0.383886
0.116069
0.0222519
0.0282017
0.0482742
0.0222655
6.94143
0.355939
0.108996
0.0219114
0.0220696
8.13053
0.0216981
0.711616
0.0218502
9.18827
4.50766
0.0343786
0.0261
0.0220004
10.294
4.05947
0.0254023
0.0336371
0.0222857
0.0222855
0.057552
0.0231628
0.0320307
0.0665053
0.0242392
0.0327282
0.0220407
0.032059
15.3608
0.0225143
10.7852
0.0219575
3.52731
0.0545667
0.0220395
9.73831
0.124319
0.0218537
0.154731
0.0220384
0.303177
0.0221987
0.0220116
3.88762
0.0221465
0.105721
0.0233608
0.136886
0.0218483
0.0223341
0.0218622
0.0300797
0.0242241
0.022292
0.0225954
0.0252817
0.0224466
0.122297
0.0642264
0.0296407
0.0233616
0.021639
2.34659
7.79322
0.0227721
0.0225298
0.0226482
0.0377375
0.0222183
0.0350116
0.0215728
0.0222853
0.235404
0.0233353
0.0222847
0.0219057
4.83147
11.0817
0.0216002
0.0712302
0.0588813
0.235136
0.21713
6.8939
4.39595
0.64396
0.0229219
0.135784
0.0219291
0.031348
7.21579
4.47946
0.134462
0.0239219
15.5428
0.0220424
0.046481
0.411659
0.0222252
0.134089
0.0234374
0.0232369
0.0746253
0.145307
3.9247
3.41401
0.0218334
0.0216029
4.80424
3.799
0.0222352
0.0290537
0.120297
0.022058
0.0220164
0.0240715
2.02428
0.0217762
4.28291
0.0295393
0.0222194
0.231835
0.072967
0.067691
0.115234
4.86943
0.0244133
0.0345702
0.0275365
0.0237509
9.70612
0.0316083
4.22395
4.1954
0.066401
4.13852
0.0460928
0.0477391
0.342505
0.0217295
4.36022
0.0889591
0.0336352
0.0290855
0.0221781
0.0216683
4.11615
0.0430959
4.25837
4.31495
0.022116
4.2661
0.0218385
0.0219574
0.0286853
11.3801
0.0737874
0.0216921
4.07876
0.0219924
0.0237875
3.94153
0.023652
3.4938
0.0222728
4.46804
3.52173
0.0691821
2.36156
0.0233715
3.48288
0.0216311
5.35396
4.79398
4.45351
5.12074
0.0219464
0.0218278
0.239724
3.73572
3.47605
3.84461
3.78356
0.0221404
4.97863
3.47293
0.0224103
4.59014
0.0315664
0.0330196
12.1894
0.0381443
4.37641
0.0219361
0.0377821
0.0344668
0.204857
6.31514
0.036782
3.59548
4.44357
0.0221723
0.0246095
0.0237817
0.0247814
3.4884
0.022015
0.0217646
0.0392864
3.74734
3.95582
0.0281066
3.89495
4.1832
0.0219628
8.59125
4.72439
0.174096
4.01377
0.0663349
0.0243652
0.0221729
0.156739
0.0263574
0.0807714
9.99963
4.5707
0.0289817
0.0723523
0.0257623
0.0386972
0.0216558
0.0415486
0.0246948
0.0906443
4.61111
6.52195
3.83804
0.0216697
0.129821
0.0624459
4.26127
0.0232357
4.72462
4.72235
4.31726
0.0221464
0.172872
4.57076
10.8426
7.47308
0.0364582
5.51145
3.49209
0.062214
0.0676133
0.0240613
0.0292478
4.806
0.0453805
0.0221865
3.33975
0.0220452
0.0222831
0.12159
0.121437
0.0218289
0.0900726