/*--------------------------------*- C++ -*----------------------------------*\
| =========                 |                                                 |
| \\      /  F ield         | OpenFOAM: The Open Source CFD Toolbox           |
|  \\    /   O peration     | Version:  v2012                                 |
|   \\  /    A nd           | Website:  www.openfoam.com                      |
|    \\/     M anipulation  |                                                 |
\*---------------------------------------------------------------------------*/
FoamFile
{
    version     2.0;
    format      ascii;
    class       surfaceVectorField;
    location    "700";
    object      ddtCorrDdt0(Uf);
}
// * * * * * * * * * * * * * * * * * * * * * * * * * * * * * * * * * * * * * //

dimensions      [0 1 -2 0 0 0 0];


internalField   nonuniform List<vector> 
20537
(
(-9.99124e-05 0.000822388 8.38193e-22)
(5.95927e-05 0.000917995 5.18513e-20)
(-0.000132702 0.00104842 1.23766e-19)
(-0.0261153 0.125062 -1.46785e-18)
(-0.0371333 0.11401 -2.34024e-18)
(-0.0163983 0.106747 -8.12416e-19)
(0.00509415 -0.00726397 8.96068e-19)
(0.00439145 -0.00800554 -1.47764e-18)
(0.00547582 -0.0084969 -2.32667e-18)
(0.000273398 0.000703763 4.53367e-21)
(0.000199391 0.000834902 1.20919e-20)
(0.000420088 0.0007934 -5.66196e-21)
(0.00372996 0.00187646 1.11373e-18)
(0.00415356 0.00159726 1.04696e-18)
(0.00370716 0.00139816 -1.75081e-18)
(0.0294122 -0.0131223 -1.1782e-18)
(0.0297914 -0.0074954 4.1441e-19)
(0.0256328 -0.00976322 4.70159e-19)
(4.82017e-05 2.75141e-05 -1.02749e-18)
(4.86841e-05 2.69692e-05 -1.74333e-18)
(4.76464e-05 3.28193e-05 1.62905e-18)
(0.000381485 -0.00315151 -1.73596e-18)
(0.000432775 -0.00278728 -1.97435e-18)
(0.000777933 -0.00302745 -4.49118e-18)
(-4.34265e-05 -1.97948e-05 1.25902e-20)
(-4.32995e-05 -1.81095e-05 -4.23379e-20)
(-4.25247e-05 -1.55208e-05 -3.94945e-21)
(-0.0142199 -0.0163065 6.16971e-19)
(-0.0151085 -0.0135921 5.48537e-20)
(-0.0119376 -0.0144211 -1.79146e-19)
(-0.0290979 -0.037483 2.59486e-18)
(-0.024131 -0.0528813 -1.03847e-19)
(-0.0242527 -0.0548558 -1.33183e-19)
(0.0189736 -0.119807 -1.16307e-18)
(0.0237778 -0.122152 -4.18268e-19)
(0.0190141 -0.125587 -1.63558e-19)
(-0.00312341 0.0156274 1.74648e-18)
(-0.00252604 0.0151916 -7.83711e-18)
(-0.00312701 0.0141514 -4.59411e-18)
(0.0235552 0.139015 1.87092e-18)
(0.0204247 0.141291 -1.26739e-18)
(0.00929763 0.14696 4.61406e-18)
(2.02654e-05 -2.40842e-06 5.48882e-19)
(2.06485e-05 -1.45763e-06 1.17491e-19)
(2.0564e-05 -2.18449e-06 8.03932e-19)
(-0.00180939 0.00107018 -1.40565e-18)
(-0.00184849 0.000758957 -1.45969e-18)
(-0.00217024 0.000985608 -2.2926e-19)
(-0.000118209 -0.000112937 8.46741e-19)
(-0.000114381 -7.64255e-05 3.5104e-19)
(-8.68017e-05 -0.000103915 -8.33507e-19)
(0.000564945 -0.00308585 -1.30216e-19)
(0.000808943 -0.00267741 -4.15365e-20)
(0.00104955 -0.00325803 3.35053e-19)
(0.0018271 0.0178144 7.84316e-18)
(0.00353249 0.0183665 -2.10616e-18)
(0.00344045 0.0161895 5.30798e-18)
(-4.34668e-05 -2.10653e-05 1.1305e-19)
(-4.38506e-05 -2.37621e-05 1.20866e-20)
(0.000352479 0.000587052 2.34168e-20)
(0.000172809 0.00061145 -2.73738e-20)
(0.00498761 -0.00598677 1.27103e-18)
(0.00602524 -0.00628572 -5.66539e-19)
(-3.54899e-05 1.65192e-06 2.12854e-20)
(-3.76231e-05 1.30268e-06 -3.58545e-20)
(-4.11532e-05 1.73929e-06 -1.13276e-19)
(-4.24036e-05 -1.13388e-06 -6.27955e-20)
(-3.24938e-05 -9.269e-07 -3.08865e-21)
(-4.40645e-05 -5.62841e-07 -5.27354e-20)
(-3.25246e-05 1.18429e-06 1.89482e-19)
(-2.53004e-05 1.25053e-06 1.23673e-19)
(-3.5704e-05 -0.00329261 1.95615e-18)
(0.000376022 -0.00363506 3.70254e-18)
(0.000144972 -7.66454e-05 6.87961e-18)
(0.000138137 -6.59071e-05 -1.56156e-19)
(0.000132526 -8.11672e-05 1.40208e-18)
(0.00497844 -0.023077 4.19378e-20)
(0.0128308 -0.0269064 5.67824e-18)
(-0.00011539 0.000672131 -5.79596e-20)
(-0.000268683 0.000748461 -4.04046e-20)
(0.000622568 -0.000196577 3.9277e-19)
(0.000661318 -9.81835e-05 1.88743e-19)
(0.000719646 -0.000220192 4.61762e-20)
(0.0284082 -0.0181606 -1.52248e-18)
(0.03373 -0.0171386 -5.93108e-19)
(-0.000156578 -0.000118971 1.92333e-18)
(-0.000121682 -0.000152031 7.75285e-19)
(0.00335959 -0.0076593 1.42794e-18)
(0.00345787 -0.00898352 -6.76942e-20)
(-2.55079e-05 0.0926749 1.05082e-18)
(-0.00927065 0.13337 6.67223e-19)
(-0.0102565 0.119289 -1.61903e-18)
(-4.04818e-05 -1.43829e-06 -5.75889e-20)
(-4.45929e-05 -2.75032e-06 1.24676e-21)
(-0.00130581 -0.00183846 -1.90041e-18)
(-0.00108911 -0.0019854 3.74641e-18)
(-0.00146043 -0.00215574 1.13476e-17)
(-0.00190666 -0.00447369 1.71942e-18)
(-0.0024523 -0.00398083 -1.05054e-17)
(-0.00200914 -0.00420803 9.90539e-18)
(0.02226 0.00294345 -9.50159e-19)
(0.0218027 0.00567129 -1.72817e-19)
(0.0198202 0.00274488 -4.02691e-18)
(-0.0160841 -0.017913 1.27689e-19)
(-0.0128103 -0.0190519 1.36723e-19)
(0.0134126 0.0544486 7.16383e-20)
(0.0102508 0.0399819 3.55107e-19)
(1.47006e-05 -2.75184e-05 4.81832e-20)
(1.61362e-05 -2.26226e-05 -2.0124e-19)
(1.37289e-05 -3.03587e-05 2.80394e-19)
(-4.4279e-05 1.81574e-05 -2.07275e-20)
(-4.38632e-05 1.8122e-05 1.02491e-20)
(-4.3181e-05 1.82947e-05 9.33071e-22)
(-0.00995364 -0.0328232 -3.73141e-18)
(-0.0140576 -0.0297674 -4.66877e-18)
(-0.0112652 -0.028359 -2.21846e-18)
(-0.0105848 -0.0844578 -5.11737e-20)
(-0.00905525 -0.0965809 1.20556e-19)
(-0.0134606 -0.0850145 1.8921e-19)
(-0.0117276 -0.0647879 2.08588e-18)
(-0.00754704 -0.081926 5.72975e-19)
(-0.0452283 -0.00415782 -3.41822e-18)
(-0.0491044 -0.00455742 -6.57009e-18)
(-0.0539371 0.00528227 -5.27473e-18)
(-0.000141002 -0.112015 7.46844e-20)
(-0.00123776 -0.106642 2.57056e-18)
(0.00239193 -0.102811 -2.74747e-18)
(-0.0394365 0.0119601 -8.93747e-19)
(-0.0232411 -0.00619198 -1.0583e-18)
(-0.0180267 0.0168286 -4.85874e-19)
(0.000151015 -8.82137e-05 9.08265e-19)
(0.000156715 -7.03894e-05 -1.4142e-19)
(0.00637117 -0.0211498 -6.75595e-19)
(0.00488255 -0.0182789 3.10264e-18)
(0.00889291 -0.0179963 -3.79843e-19)
(0.000445492 0.00134552 2.21452e-18)
(0.000265961 0.00142612 7.81834e-18)
(0.000321983 0.00122518 5.91284e-18)
(-0.0010936 0.00468269 2.77939e-18)
(-0.00115137 0.0042621 3.49935e-18)
(-0.00162244 0.00444983 1.242e-18)
(-8.65002e-05 -0.0631596 4.49872e-18)
(-0.000935763 -0.0619161 5.83893e-18)
(0.00062579 -0.0616425 -2.46002e-18)
(1.88194e-05 -2.13125e-06 -3.43124e-19)
(1.89053e-05 -1.87737e-06 1.92025e-19)
(1.83854e-05 -2.24435e-06 -3.256e-19)
(-1.14153e-06 -3.7104e-06 -3.06708e-20)
(-1.58439e-07 -3.28598e-06 1.38991e-19)
(5.33058e-07 -4.6989e-06 -8.11769e-19)
(-4.47989e-05 1.77688e-05 -4.11018e-20)
(-4.56345e-05 1.7871e-05 -3.28826e-20)
(-5.36528e-05 -1.435e-07 9.22729e-20)
(-5.48679e-05 -7.95685e-07 6.0356e-20)
(-5.24562e-05 -8.59814e-07 1.18416e-19)
(0.00976064 -0.0653486 7.43132e-18)
(0.00824862 -0.0640529 -1.33235e-18)
(0.0176635 -0.0654524 1.17119e-17)
(0.000532656 -0.000162791 4.1688e-20)
(0.000568791 -0.000268115 6.68583e-19)
(5.64519e-05 -2.35405e-06 -4.02298e-20)
(5.60689e-05 -9.90349e-07 5.96823e-20)
(5.65256e-05 3.8168e-06 -3.15089e-19)
(0.0253222 0.00294188 -2.80174e-18)
(0.0227367 0.000325356 7.28847e-19)
(0.0542001 0.0615267 -5.80302e-18)
(0.0444164 0.0708082 -5.92371e-18)
(0.0473288 0.0732707 -7.33097e-18)
(-0.0084202 -0.0196141 -1.42019e-18)
(-0.0123293 -0.0197114 -2.47034e-19)
(-0.00968635 -0.0162303 -7.20087e-19)
(0.00325254 0.00314409 -3.96919e-18)
(0.00376449 0.00298912 -1.28801e-18)
(0.00363764 0.00351365 -7.47639e-18)
(0.0534918 0.0225285 4.61193e-19)
(0.0492981 0.016956 4.56335e-19)
(0.0422856 0.0216338 9.0724e-19)
(0.000293621 0.00218152 -1.45379e-19)
(0.000517092 0.0018724 -3.38015e-19)
(0.000735845 0.00230197 -7.77563e-20)
(-0.00151119 -0.00445589 2.82315e-18)
(-0.00139088 -0.00474084 -5.48694e-18)
(-0.00116233 -0.108626 -1.72853e-19)
(0.00037523 -0.11347 -8.18127e-19)
(0.000597402 -0.000107391 -7.36972e-19)
(0.000611135 -0.000157117 4.79878e-18)
(0.000563887 -0.000144228 5.43506e-18)
(0.000165249 -0.00289361 2.00576e-19)
(0.000128736 -0.00355176 2.88015e-20)
(-0.00589648 -0.000670385 -2.30264e-18)
(-0.00609209 -0.00052985 -1.13088e-17)
(-0.00565347 -0.000400475 -1.24559e-17)
(-0.000260309 -0.0048124 2.22658e-18)
(-0.000334912 -0.00485518 3.48406e-18)
(-0.000858827 -0.0049353 8.87059e-18)
(-0.0167342 0.130419 1.74179e-18)
(-0.0304203 0.137156 -1.48958e-18)
(1.97762e-05 -1.91379e-06 -1.68175e-19)
(1.91376e-05 -9.02062e-07 -3.74924e-19)
(-1.90543e-06 -2.18908e-06 6.32019e-19)
(-1.42476e-06 -3.09078e-06 1.30131e-18)
(-2.29571e-06 -2.7784e-06 -4.66293e-19)
(-5.89965e-05 1.11155e-05 -1.2698e-20)
(-4.87057e-05 1.98366e-05 8.33046e-21)
(-5.0973e-05 6.20332e-06 7.45536e-20)
(0.00505178 -0.00531603 1.64968e-18)
(0.00436444 -0.00591507 1.33223e-18)
(-0.000655381 -0.000214961 -3.20473e-18)
(-0.000839088 -0.000289601 2.02601e-18)
(-0.000571974 -0.000278114 9.84666e-19)
(0.00151892 -0.000488979 2.16336e-18)
(0.00163138 -0.000358555 -4.04847e-18)
(0.00170301 -0.000539726 2.80486e-18)
(-0.00750137 -0.000578127 8.4132e-19)
(-0.00755512 -0.000417195 5.03986e-18)
(6.80137e-05 -2.07053e-05 -1.33772e-18)
(6.67248e-05 -2.27214e-05 7.22447e-19)
(6.6682e-05 -1.9031e-05 1.10834e-18)
(0.000709179 0.0665786 1.73022e-19)
(0.00460369 0.0703621 -1.13246e-18)
(0.00079707 0.0815739 -1.11211e-19)
(2.84922e-05 -1.49584e-06 -1.24409e-19)
(2.98451e-05 -1.25489e-06 1.81013e-18)
(2.82076e-05 9.96288e-07 -4.58555e-19)
(-0.0409849 -0.0181017 6.88269e-19)
(-0.0415167 -0.0182685 -6.04586e-18)
(-0.0378505 -0.0234372 9.12405e-19)
(-0.0052041 -0.0194397 -1.48631e-19)
(-0.00656153 -0.0229338 -4.88637e-19)
(0.0127108 -0.115348 2.57181e-18)
(0.015139 -0.11358 -9.48239e-18)
(0.0141693 -0.0123863 -1.0778e-18)
(0.0176914 -0.0121129 -1.66614e-18)
(0.0149417 -0.0093982 -1.58404e-18)
(-0.118344 0.0988858 -1.21464e-18)
(-0.118143 0.101093 -1.84591e-18)
(-0.11797 0.0924204 -9.55347e-19)
(6.8888e-05 -0.000202778 6.10137e-19)
(4.60592e-05 -0.000215509 6.68125e-18)
(7.23746e-05 -0.000232397 1.01596e-18)
(-0.000438699 -0.000148988 2.72158e-20)
(-0.000351938 -0.000134387 -6.97742e-20)
(-0.000436273 -7.16878e-05 -2.41374e-19)
(-0.00134274 -0.00159552 -9.27232e-18)
(-0.00154947 -0.0016775 -8.62607e-18)
(-0.00928394 0.00790579 -1.27532e-19)
(-0.0128257 0.00823688 -5.58017e-19)
(-0.00976099 0.0109738 4.06663e-20)
(-0.000121476 -0.10052 -2.66135e-19)
(0.000166402 -0.000330921 -9.44947e-19)
(0.000163392 -0.000365461 2.33108e-19)
(0.000202204 -0.000344742 3.69872e-19)
(7.63736e-05 -0.000179966 -6.18256e-19)
(9.91085e-05 -0.000193333 3.30513e-18)
(-4.39342e-05 -1.34406e-06 8.50953e-21)
(-4.36134e-05 -1.27275e-06 -4.67567e-20)
(-4.85956e-05 -1.54694e-06 1.53852e-20)
(0.00379811 0.00244185 9.02297e-18)
(0.00329726 0.00217184 -6.42985e-18)
(-0.0131084 0.0161275 -8.10933e-19)
(-0.0147622 0.0163132 3.4715e-18)
(-0.0138289 0.0135942 9.47431e-18)
(0.00955278 -0.023297 -2.08696e-19)
(0.00483623 -0.0241143 -8.65269e-19)
(-3.18116e-05 -7.55036e-07 6.86489e-20)
(-4.39586e-05 -9.17498e-07 2.14394e-21)
(0.0296983 0.075457 3.14419e-18)
(0.0638061 0.0776522 -1.1414e-18)
(0.0374003 0.0890688 -3.25264e-19)
(0.00130069 0.000341552 -4.35594e-18)
(0.00118486 0.000394178 1.21012e-18)
(0.00119843 0.000258447 -1.35641e-18)
(-0.000152625 -0.000103378 -3.05605e-19)
(-0.000171803 -0.000134868 -2.26211e-19)
(-0.00018987 -9.45105e-05 -9.41674e-20)
(0.000156397 7.82663e-05 6.6543e-19)
(0.000164481 8.32297e-05 4.42462e-18)
(-2.34416e-05 2.91356e-07 -1.05927e-20)
(-2.79462e-05 3.08342e-07 -8.95334e-22)
(-2.41946e-05 8.72503e-08 1.56498e-20)
(0.0107289 -0.0184617 -1.55054e-19)
(0.00809917 -0.0213733 1.13926e-18)
(0.00741348 -0.0172791 1.19993e-19)
(0.000985866 0.000665511 -2.03594e-18)
(0.00110807 0.000648754 -1.64582e-18)
(0.00104268 0.000788874 1.42245e-18)
(-3.66898e-05 5.04752e-06 4.98361e-21)
(-3.70628e-05 7.30085e-06 -3.24111e-21)
(-3.60195e-05 4.83472e-06 -1.16204e-20)
(-8.07787e-05 -0.00456114 5.3748e-19)
(-7.26251e-05 -0.00433971 -2.00819e-18)
(0.0347261 -0.00531901 -4.31002e-19)
(0.0292522 -0.00252319 5.78574e-21)
(-3.90682e-05 3.57617e-07 -4.23853e-20)
(-2.84134e-05 2.55907e-07 -3.45684e-21)
(-3.85995e-05 3.41811e-07 1.42007e-19)
(-0.000573661 -0.000176803 8.01381e-20)
(-0.000438439 -0.00026757 -5.36568e-20)
(-0.00653348 0.00784406 -7.25878e-19)
(-0.00860031 0.00585046 1.16888e-18)
(-1.94603e-05 -5.49115e-07 -2.41346e-20)
(-1.96967e-05 5.54684e-08 -4.45595e-20)
(-4.26478e-05 5.65863e-07 1.89361e-20)
(-3.88243e-05 3.24471e-07 -1.07208e-19)
(-0.0191392 0.182472 2.70126e-18)
(-0.0290557 0.192526 1.72814e-18)
(-0.0113473 0.0151827 -3.89831e-18)
(-0.0119118 0.018003 -6.49835e-18)
(-4.02043e-05 1.27724e-05 1.21235e-19)
(-4.05671e-05 1.34556e-05 -3.40151e-20)
(-3.95637e-05 1.3391e-05 -1.08544e-20)
(-2.40379e-05 -2.57726e-06 4.34188e-20)
(-2.48402e-05 -2.01169e-06 1.90883e-19)
(-1.56946e-05 -1.56481e-06 3.19008e-19)
(-2.87648e-06 -1.9991e-06 -1.401e-19)
(-3.98994e-06 -6.56742e-07 6.84906e-20)
(-2.81617e-06 -1.01564e-06 -1.89405e-19)
(-0.008291 -0.0359415 9.89702e-18)
(-0.00613514 -0.0356173 -1.0432e-17)
(0.000160461 6.53269e-05 -1.36465e-17)
(0.000151284 7.02972e-05 -4.14552e-18)
(-0.00305531 0.0171973 2.63819e-19)
(-0.00422582 0.0162379 6.16665e-18)
(0.0140801 0.135487 2.88587e-18)
(-0.0554298 0.0374898 -9.56606e-20)
(-0.0561951 0.00836647 -3.42305e-19)
(-0.00199684 -0.000596476 -2.20998e-19)
(-0.00176898 -0.000138004 -1.02782e-19)
(-0.0022844 -0.000122181 -3.08887e-19)
(-0.0692794 0.0659422 1.81661e-18)
(-0.0558342 0.0703809 -6.30419e-19)
(0.00148693 -7.94698e-05 3.95718e-18)
(0.00141562 2.24483e-05 -3.1341e-18)
(0.00158391 1.93672e-05 -1.28741e-18)
(0.000374065 0.000455573 -1.11444e-20)
(0.000508417 0.000499727 -2.00738e-20)
(0.00860203 0.00638605 1.25806e-18)
(0.00772983 0.00592249 2.7393e-18)
(0.00788293 0.00733063 1.79701e-18)
(1.41344e-05 -2.4692e-05 2.63167e-19)
(1.35894e-05 -3.00696e-05 2.79388e-19)
(-2.78162e-05 2.05669e-07 -6.72484e-20)
(-2.81304e-05 4.67861e-07 1.55355e-19)
(-2.80355e-05 2.84562e-07 1.44669e-19)
(-0.00572128 -0.000702678 1.05455e-17)
(-0.00601658 -0.000891318 5.9638e-18)
(2.84851e-05 -4.40646e-06 -2.69943e-19)
(2.74841e-05 -1.85473e-06 -1.37677e-19)
(-0.0376533 0.18973 -3.47165e-18)
(-2.73108e-05 -9.00959e-07 -1.1685e-19)
(-2.74818e-05 -1.33079e-07 5.46302e-20)
(-2.77925e-05 -4.23196e-07 1.71371e-19)
(-3.94173e-05 1.16515e-05 3.1128e-20)
(-4.06549e-05 1.18495e-05 4.55249e-20)
(-0.000202169 -0.00475009 -4.37399e-18)
(-0.000176143 -0.0046593 -5.05196e-18)
(-0.000786931 -0.0048055 -8.0951e-18)
(0.0162753 0.0618396 -2.03663e-18)
(0.00635937 0.0754987 -7.25247e-20)
(0.0191567 0.0628826 -2.06352e-18)
(-0.047466 -0.00236675 1.38667e-19)
(-0.0685755 -0.0167754 2.00214e-18)
(-0.0521048 -0.0213535 2.32917e-18)
(0.0186999 0.0606156 2.91418e-18)
(0.00795772 0.069635 3.54646e-19)
(-2.22613e-06 -3.0865e-06 -7.05912e-19)
(-9.38547e-07 -2.60684e-06 -7.22958e-20)
(-0.0014982 0.000243437 3.24593e-19)
(-0.00178176 1.32701e-05 1.72423e-19)
(-0.00182818 0.000500927 2.02158e-19)
(3.48268e-05 2.28865e-05 9.67121e-20)
(1.83158e-05 3.30589e-05 -6.77604e-22)
(3.94928e-05 4.18563e-05 1.96757e-20)
(5.69803e-05 9.18403e-05 2.57352e-18)
(3.79084e-05 9.91027e-05 3.1914e-18)
(4.65445e-05 7.26187e-05 -1.6044e-18)
(-0.00402315 -0.105227 -1.95898e-19)
(-0.00288062 -0.0999453 -4.15827e-19)
(0.00553218 0.00646839 -1.7264e-19)
(0.00670839 0.00440491 2.49828e-20)
(0.00432254 0.00510071 -1.93131e-19)
(0.00994114 0.00699644 -8.69013e-18)
(0.00968501 0.00538672 -1.46609e-18)
(4.67506e-05 2.75328e-05 -2.26533e-19)
(4.85958e-05 2.17692e-05 1.97329e-19)
(-0.015541 -0.0459803 -9.3281e-19)
(-0.0102362 -0.0398169 -6.28199e-19)
(0.000212313 -2.19708e-05 -4.57912e-18)
(0.000134232 -5.83328e-05 -2.41895e-19)
(-5.07207e-06 -2.35328e-07 1.45492e-19)
(-5.20367e-06 -6.81307e-07 1.69386e-20)
(-2.89226e-06 -1.16205e-06 -3.56818e-20)
(0.0230819 0.143588 6.49689e-19)
(0.0457005 0.130175 -7.64336e-19)
(-5.22022e-05 4.99866e-08 1.73999e-20)
(-5.4467e-05 5.62031e-07 -1.1802e-19)
(5.80792e-05 -5.41572e-05 3.20004e-18)
(6.04009e-05 -5.8091e-05 -2.06673e-19)
(6.36021e-05 -5.22505e-05 1.33139e-18)
(6.79264e-05 0.000117403 -1.56828e-19)
(7.34277e-05 9.11154e-05 -2.24177e-19)
(-2.45325e-05 -4.32326e-05 -1.06904e-19)
(-2.32196e-05 -4.001e-05 1.08793e-20)
(-2.42698e-05 -3.86416e-05 1.49571e-20)
(0.000366719 -2.60843e-05 4.63031e-19)
(0.000323412 -2.45501e-05 -1.7892e-19)
(0.000344429 1.38593e-05 6.18019e-19)
(-0.00129401 0.0052914 -1.70826e-18)
(-0.000661697 0.00498579 -1.084e-18)
(0.000599723 0.00124155 -7.84979e-19)
(0.00059562 0.00145234 2.49576e-18)
(2.43718e-06 2.62606e-05 -1.33814e-21)
(-5.62406e-06 1.82273e-05 3.76627e-20)
(6.88934e-06 1.46369e-05 -5.08558e-21)
(0.000293757 -0.000119386 4.92826e-18)
(0.000305043 -0.000137067 -8.3278e-19)
(0.000317048 -0.000107766 4.01333e-18)
(0.00983744 -0.0641208 -3.9625e-18)
(0.00492518 -0.0660356 1.14456e-18)
(-2.78509e-05 -1.01703e-07 -1.30595e-19)
(-2.81433e-05 -6.06784e-07 -5.02573e-20)
(0.00162991 0.00110648 4.11304e-19)
(0.00129415 0.00119342 -1.57625e-19)
(0.00139125 0.000872378 -7.95904e-21)
(-2.61209e-05 4.6702e-06 -1.23558e-19)
(-2.08421e-05 4.94782e-06 -1.02111e-19)
(-2.71832e-05 6.54724e-06 2.5043e-21)
(0.0041986 0.00894412 -2.27639e-19)
(0.00763402 0.00856482 -6.77256e-19)
(0.000624896 -7.081e-05 8.24307e-19)
(0.000579196 -6.78212e-05 -9.50362e-19)
(0.000268897 0.000422514 -3.7904e-21)
(0.000375601 0.000361695 2.2804e-21)
(-0.0378436 0.023219 2.40534e-18)
(-0.0469863 0.0178441 -5.56632e-18)
(-0.0336243 0.0174418 6.30276e-18)
(-0.000699275 -0.000175199 -3.4235e-18)
(-0.000688656 -0.000182442 -3.25676e-18)
(-4.52812e-05 -5.64647e-06 3.03925e-20)
(-4.50573e-05 -3.84102e-06 7.33632e-21)
(-4.55673e-05 -6.57471e-06 2.8616e-20)
(-2.58755e-05 -4.5761e-05 -6.48832e-20)
(-2.35243e-05 -4.60807e-05 -2.81904e-20)
(-0.0290242 0.0124626 2.01058e-19)
(-0.0461714 0.016193 -1.20183e-18)
(-2.78202e-05 -6.59756e-07 3.46008e-20)
(-2.76177e-05 3.32014e-07 1.20366e-20)
(-0.0178501 -0.0196154 -1.52278e-18)
(-0.0332732 -0.0318307 6.83501e-20)
(0.001567 -0.000222565 -2.03989e-18)
(0.00140314 -0.000191495 7.00643e-19)
(-0.000957741 -0.00104265 1.15837e-19)
(-0.000736651 -0.00118601 1.45538e-19)
(-0.00102788 -0.00135179 1.18781e-19)
(0.000416203 0.018679 -1.83928e-18)
(0.000517901 0.0167654 4.86805e-19)
(-3.76794e-05 5.41614e-06 1.83483e-20)
(-3.69217e-05 2.99413e-06 -2.19085e-20)
(-3.84328e-05 5.90992e-06 2.90895e-21)
(-0.000203863 -0.000177922 -2.26366e-18)
(-0.000198096 -0.000128581 5.56716e-21)
(-0.000246595 -0.000144566 -1.12905e-18)
(0.000149437 -0.00467028 -7.26085e-18)
(2.72163e-05 -7.48341e-06 -7.05286e-19)
(2.63315e-05 -7.63364e-06 1.23334e-19)
(2.59763e-05 -5.06351e-06 -1.39445e-18)
(0.00692968 -0.00668251 -2.15656e-18)
(0.00658969 -0.00559326 -2.06468e-18)
(-3.6806e-05 -2.49015e-06 7.83106e-21)
(-3.67882e-05 -2.03361e-06 -1.80218e-20)
(-3.72688e-05 -1.62705e-06 4.75039e-21)
(-4.22991e-05 8.87475e-08 -1.62994e-20)
(-4.4732e-05 -4.77306e-07 1.77949e-20)
(-4.70479e-05 -1.2221e-06 4.8582e-20)
(-6.78077e-05 0.00246588 4.10383e-19)
(-9.52656e-05 0.00200219 -2.83105e-19)
(-2.1955e-06 -2.69992e-06 6.19259e-20)
(-1.57832e-06 -3.4193e-06 -2.81494e-19)
(0.00524236 0.00210869 3.69291e-18)
(0.00579633 0.0016847 -1.06126e-18)
(0.00598685 0.00245072 -9.02603e-19)
(-0.0197471 0.0168106 6.45104e-20)
(-0.0245821 0.0178311 -3.69931e-19)
(-0.0217999 0.0132231 -4.98895e-19)
(0.00125502 -0.112495 -2.93548e-20)
(0.000598815 -0.0644543 -1.32393e-17)
(-0.00131005 -0.0635527 -2.02245e-18)
(-0.000709438 -0.00018166 -5.80806e-20)
(-0.000724143 -0.000374332 -3.89442e-20)
(-0.000897554 -0.00022715 -6.79518e-20)
(0.000652925 -0.000387616 -3.70119e-18)
(0.000646171 -0.00032175 -1.77677e-18)
(0.00059558 -0.000357863 1.62622e-19)
(0.0607344 0.0505638 -7.2063e-20)
(0.0522374 0.051938 -1.9658e-18)
(5.54956e-05 -4.52424e-05 -1.77088e-18)
(5.73446e-05 -4.97235e-05 1.35828e-18)
(5.93021e-05 -4.51796e-05 -3.25622e-18)
(-0.00122096 0.000383569 1.46641e-19)
(-0.00118512 9.46545e-05 5.97269e-21)
(0.0322495 -0.0411071 -1.64292e-18)
(0.0392126 -0.0458321 1.5915e-19)
(0.0376168 -0.0438195 3.02241e-18)
(-0.00119323 -0.000838322 -1.23635e-19)
(-0.000906859 -0.000750227 -3.35084e-19)
(-6.7957e-05 2.79474e-06 6.38278e-20)
(-7.21457e-05 1.61042e-05 6.38913e-20)
(-0.00218662 -0.00108151 9.52144e-20)
(-0.00157332 -0.000862385 2.09201e-20)
(-0.0708524 0.0495418 -4.21865e-20)
(-0.0800359 0.0629358 -1.34184e-18)
(-0.0776548 0.0421921 9.59412e-18)
(6.75262e-07 -9.90358e-07 -2.74037e-19)
(-8.73704e-06 -2.05685e-06 -2.36761e-19)
(9.23393e-07 -1.01164e-06 1.67228e-19)
(2.98327e-05 -1.0419e-05 7.42846e-19)
(2.83797e-05 -1.14217e-05 1.62329e-19)
(2.86705e-05 -1.46693e-05 3.69257e-19)
(-0.0176974 0.00297068 -1.60572e-19)
(-0.0156833 0.00418179 1.5227e-20)
(-0.0152897 0.00194959 2.49255e-20)
(2.84776e-05 -9.9579e-06 -5.98055e-19)
(2.83841e-05 -7.30696e-06 9.89446e-19)
(0.0776766 0.00109301 -1.24644e-18)
(0.0764101 0.00392075 -5.77675e-19)
(0.0781698 -0.00155355 -6.65981e-19)
(-6.63257e-05 -0.000173138 -8.53849e-19)
(-5.28974e-05 -0.000148525 1.55427e-18)
(-3.42352e-05 -0.000172805 3.57559e-18)
(-0.0028404 -0.00114548 8.16483e-19)
(-0.00281105 -0.00102929 3.15145e-18)
(-0.00302794 -0.00122635 6.9031e-18)
(-3.13066e-05 1.24543e-06 -4.42131e-21)
(-2.92333e-05 3.41222e-06 1.19012e-22)
(-3.27474e-05 5.17211e-06 -2.6454e-20)
(-0.000284431 -0.00195489 2.85732e-18)
(-0.00117663 -0.00201048 1.02031e-18)
(-0.000994783 -0.00185192 2.2341e-18)
(-0.00011875 -0.000104354 1.42869e-19)
(-0.000132692 -7.69593e-05 -2.29448e-19)
(0.0120463 -0.0270995 6.65378e-19)
(0.0200506 -0.0398828 -4.27598e-19)
(0.0103719 -0.0441972 1.77101e-18)
(-3.47568e-05 -3.16469e-06 2.50022e-21)
(-3.5147e-05 -1.52664e-06 1.72274e-20)
(-3.48275e-05 -3.19463e-06 6.91783e-21)
(9.56971e-06 2.16488e-06 2.75381e-20)
(1.02165e-05 -1.11829e-05 1.52227e-20)
(-2.59928e-06 -2.3518e-06 1.97239e-20)
(-0.0311464 0.0130448 5.36706e-19)
(-0.0321984 0.00274967 1.04015e-18)
(-0.0317472 -0.00318511 4.80968e-19)
(0.000981633 -0.0205175 9.58341e-18)
(-0.00219917 -0.0184469 -2.61314e-18)
(0.000871049 -0.0167355 -2.98514e-18)
(-0.03885 -0.0108291 1.48638e-17)
(-0.0405045 -0.000664573 4.27146e-18)
(1.96767e-05 -7.66955e-06 -1.85064e-18)
(1.93838e-05 -7.06338e-06 -9.42867e-19)
(1.88072e-05 -6.99978e-06 3.73143e-19)
(-0.00269354 -0.00108363 -4.60041e-18)
(-0.00283868 -0.0012688 -1.50988e-18)
(-9.62763e-05 -0.000174588 -3.67451e-18)
(-7.56686e-05 -0.000201884 -2.03289e-18)
(6.81681e-05 -2.2294e-05 -1.85975e-18)
(6.90955e-05 -1.82189e-05 -1.81815e-18)
(-0.00480872 0.00459076 -2.50966e-18)
(-0.00545449 0.00438809 7.90823e-19)
(-0.00478292 0.00370183 -3.24102e-18)
(0.00199862 0.00591102 -9.098e-19)
(0.00241108 0.00650963 3.39554e-19)
(0.0015977 0.00658592 -2.60291e-19)
(-0.00225435 -0.00272012 -4.70411e-18)
(-0.0027316 -0.00262062 3.53444e-18)
(-0.00277261 -0.00270547 -5.35981e-18)
(-4.13406e-05 7.82562e-09 4.9569e-20)
(-4.17593e-05 3.42104e-07 4.77652e-20)
(-2.93644e-05 1.6455e-07 -1.16617e-19)
(0.000256434 -0.000444241 -1.4721e-18)
(0.000311165 -0.000465339 7.6353e-19)
(0.000263032 -0.000506911 -8.60128e-19)
(-2.23385e-05 3.17531e-07 2.51698e-20)
(-1.53032e-05 3.24309e-07 1.88105e-20)
(-0.0097043 -0.0563436 -2.53962e-18)
(-0.00959135 -0.0546732 1.07468e-17)
(-0.00790048 -0.0569103 -7.76826e-18)
(-3.40584e-05 -4.31202e-06 -7.77894e-21)
(-3.43978e-05 -2.50133e-06 -8.37374e-21)
(-0.000467578 -0.00346129 9.84504e-19)
(-0.000390493 -0.00299775 -3.26467e-18)
(0.042251 -0.0264974 -2.74987e-19)
(0.0431025 -0.0206977 -2.28638e-19)
(0.0508456 -0.025508 1.39101e-19)
(-4.49573e-05 -4.89688e-06 -8.46409e-21)
(-4.55311e-05 -7.19362e-06 -7.84346e-20)
(-0.000672462 -5.07432e-05 7.47643e-20)
(0.00031524 0.000813221 -5.14724e-19)
(0.000393848 0.000913786 1.21411e-18)
(0.000428883 0.000794768 -3.70184e-20)
(0.0107565 -0.00378561 2.09345e-20)
(0.00919598 -0.00308488 1.45917e-20)
(0.00920945 -0.00469383 -1.21772e-19)
(0.0764732 -0.000594923 -1.10561e-18)
(0.0760973 0.00391845 -3.27923e-18)
(0.0561614 0.0242526 -9.91929e-19)
(0.0517308 0.0284923 -2.73702e-19)
(2.12766e-05 8.06134e-06 8.31571e-20)
(4.30082e-05 6.11446e-06 -5.8184e-20)
(3.00246e-05 -6.1811e-06 -1.56193e-19)
(3.07298e-05 -8.76637e-06 -3.21055e-20)
(0.0236873 -0.0190912 -9.87717e-19)
(0.0263247 -0.0234115 2.87496e-18)
(-0.0142909 -0.0590418 4.55843e-18)
(-0.00335614 -0.056352 -7.11103e-19)
(-0.0119851 -0.0494223 1.30916e-18)
(0.000254106 0.000267538 9.40044e-20)
(0.000172017 0.000205506 2.79698e-21)
(0.000165057 0.000333304 1.15402e-20)
(-0.0194259 0.00112725 3.486e-19)
(-0.0200926 0.00402436 1.37312e-19)
(-3.11106e-05 2.76332e-07 5.11864e-21)
(-3.06537e-05 1.03989e-06 -1.26503e-20)
(-0.00298261 -0.00225916 2.38003e-18)
(-0.00330604 -0.00216175 2.15273e-18)
(-0.00312737 -0.00230693 5.02869e-18)
(0.00142057 0.000288365 -7.56445e-19)
(0.00140521 0.000451278 -4.58322e-18)
(0.00111028 0.00194999 4.72902e-18)
(-0.00421382 0.0291172 -1.84005e-18)
(-0.0099847 0.0275424 8.06624e-19)
(8.75932e-05 0.000134969 6.06882e-19)
(0.000106452 0.000156318 6.34721e-19)
(0.000103633 0.000127193 2.6689e-19)
(-0.000291055 0.000320408 5.78829e-19)
(-0.000219572 0.000282852 1.08644e-18)
(-0.000245791 0.00037606 8.34137e-19)
(0.00664526 -0.00121539 1.28397e-20)
(0.00724567 7.68093e-05 -1.82792e-19)
(0.00588797 -0.000167609 -1.37775e-19)
(-0.0248587 -0.0559304 4.71984e-19)
(-0.0143592 -0.0706671 6.13643e-19)
(7.38018e-05 -1.32389e-06 -3.64172e-19)
(7.57399e-05 1.21413e-06 -1.19132e-18)
(7.66603e-05 3.13008e-06 1.43887e-18)
(6.45725e-05 0.0001503 -3.22427e-19)
(0.000574178 0.000432219 -5.32685e-19)
(0.000509657 0.000464438 1.25041e-18)
(0.000589535 0.000498801 9.82552e-19)
(-0.072873 0.0098811 -9.43247e-20)
(-0.0604319 -0.0104791 7.93023e-20)
(-0.0636757 -0.000196177 -1.04126e-17)
(-0.0169618 0.0202854 1.32117e-19)
(-0.0157218 0.0156912 2.73417e-19)
(0.000295551 -0.00452046 -1.66297e-18)
(-0.000114764 -0.00455182 -8.53972e-19)
(0.00395288 -0.00577133 -1.29119e-17)
(0.0043935 -0.00249294 6.65976e-18)
(0.00696258 -0.00630648 3.31515e-18)
(2.98063e-05 4.73892e-07 3.26142e-19)
(2.89416e-05 1.15789e-06 -9.76827e-19)
(2.94499e-05 -2.24018e-06 -1.19959e-18)
(2.70868e-06 1.06252e-05 -1.83097e-20)
(-0.000201019 -0.00259673 9.17348e-20)
(-0.000598624 -0.00273863 3.85121e-20)
(-0.00048512 -0.00224722 -1.11014e-19)
(0.0738207 -0.0707417 2.05324e-18)
(0.0789575 -0.0627025 5.86992e-19)
(0.0740529 -0.0542646 -2.13486e-18)
(-0.00034415 -7.69011e-05 3.58653e-21)
(-0.000308883 -1.374e-05 2.91099e-20)
(-0.000381309 1.98446e-06 1.08678e-19)
(0.00351861 0.0218088 2.68718e-18)
(0.00535497 0.0219652 9.84931e-18)
(0.00335937 0.0236444 4.18176e-19)
(5.12697e-05 -4.49113e-05 2.09595e-18)
(5.39327e-05 -3.98557e-05 -9.38576e-19)
(7.12685e-05 -5.71024e-06 5.7684e-19)
(7.16619e-05 -3.31538e-06 -5.12904e-19)
(0.000180032 -0.000298798 -3.63675e-18)
(0.000143297 -0.000310352 1.8832e-18)
(-0.00465324 0.0053936 -2.73782e-18)
(-0.00421027 0.00457514 -1.21602e-18)
(-0.0125923 0.0102796 -3.98291e-19)
(-0.0101452 0.00800196 6.84373e-20)
(-0.0136158 0.00620644 -3.05183e-19)
(0.00695759 -0.00268858 1.14853e-18)
(0.00566124 -0.00231988 -3.51904e-19)
(5.13524e-05 -5.49604e-05 2.43413e-18)
(0.0609123 -0.0314733 -1.9749e-19)
(0.0574367 -0.0212093 -5.75556e-19)
(0.0713776 -0.0285845 3.95599e-20)
(0.00140524 -0.000593951 2.56033e-18)
(0.00135726 -0.000451317 3.22901e-19)
(-0.00174932 0.00142642 -2.47175e-19)
(-0.00149982 0.00115919 -9.7793e-19)
(-2.80066e-05 4.19524e-07 1.19483e-19)
(-2.80689e-05 3.83293e-07 -3.79984e-20)
(0.000118216 0.0473638 -9.16706e-19)
(-0.00254136 0.0639596 -6.94681e-20)
(-0.00760239 0.0198493 1.4571e-19)
(-0.0121652 0.0209026 -4.40373e-20)
(-0.0107326 0.0161263 -8.83192e-19)
(-0.00287895 -0.00317089 -5.43324e-19)
(-0.00353138 -0.0030001 3.2334e-19)
(-0.00370029 -0.00304587 -3.13006e-18)
(-0.0321474 -0.0237968 1.25161e-18)
(-0.0307687 -0.0163569 -7.50586e-18)
(0.000358131 0.000316211 -2.95459e-21)
(0.000305766 0.000202932 1.71436e-20)
(-3.08472e-05 -3.03181e-06 -6.87985e-21)
(-3.05046e-05 -7.29939e-07 -7.26792e-21)
(-2.83295e-05 -2.18462e-06 3.25482e-21)
(-2.51582e-05 -9.09711e-08 4.71524e-20)
(-2.63207e-05 -4.33393e-07 -8.29304e-21)
(-2.91622e-05 -6.72577e-07 -2.74331e-20)
(0.000564465 0.00039048 2.86204e-18)
(0.000623282 0.000404155 -9.3737e-19)
(0.0657055 -0.0760051 -7.18819e-20)
(0.0701375 -0.0738927 1.25905e-18)
(-0.016831 -0.0290989 -4.2179e-19)
(-0.0324542 -0.0644388 1.87131e-18)
(-0.0252011 -0.042656 -1.80544e-18)
(-4.93909e-05 -2.391e-05 -1.28768e-19)
(-5.00708e-05 -1.87103e-05 -6.13396e-20)
(-5.42537e-05 -2.33826e-05 5.59179e-20)
(2.15905e-05 8.23199e-06 -1.29252e-18)
(2.25542e-05 6.54775e-06 1.19464e-19)
(2.2125e-05 8.76685e-06 1.5327e-19)
(0.0607712 -0.0417543 2.17181e-18)
(0.0514596 -0.0330141 3.90658e-18)
(0.0117856 0.0437011 6.41212e-19)
(0.00837755 0.0197477 -1.33879e-18)
(0.0113862 0.015645 -5.35971e-19)
(0.0110073 0.00761987 1.41702e-18)
(0.00983587 0.00848475 -5.74667e-18)
(0.000468607 -0.000149608 4.65325e-19)
(0.000512619 -8.9802e-05 -1.04466e-18)
(5.7925e-05 -2.68098e-06 4.29887e-18)
(5.63929e-05 -8.18413e-06 -3.94743e-19)
(0.00071841 -0.000174429 -2.34955e-18)
(0.00074127 -0.000234579 1.65342e-18)
(0.000788593 -0.000178234 8.75679e-18)
(0.00952249 0.0610314 4.6913e-18)
(0.0126232 0.0542926 9.90697e-19)
(0.00343643 0.0199927 -1.31001e-17)
(0.00162222 0.0213588 -3.73785e-18)
(0.000887133 0.00112833 -1.08394e-19)
(0.000874757 0.00100232 -2.16711e-19)
(0.000714395 0.00108661 5.88739e-19)
(0.0092222 -0.113371 5.37169e-18)
(0.00459279 -0.108166 5.96539e-18)
(-2.78656e-05 -2.41075e-07 -7.94278e-20)
(-2.76172e-05 -1.07374e-06 -3.7249e-20)
(-2.78841e-05 -2.83449e-07 -3.0657e-21)
(-0.00281722 -0.00219681 -6.02938e-18)
(-0.00256923 -0.00234692 -1.54488e-18)
(0.000276392 -0.000115881 9.96499e-19)
(0.00028967 -9.74865e-05 1.04005e-18)
(-0.000104964 -4.20055e-05 1.0478e-18)
(-0.000138506 -4.34239e-05 8.90999e-19)
(-0.00228838 -0.00324251 6.14864e-18)
(-0.00321771 -0.00311499 1.92969e-18)
(-0.00285735 -0.00314355 6.82942e-18)
(2.57701e-05 -7.31047e-05 1.86841e-19)
(1.77028e-05 -8.10402e-05 -4.20601e-21)
(2.81589e-05 -7.93766e-05 -8.79751e-20)
(0.0126268 -0.0155793 5.39797e-19)
(0.0148593 -0.0193349 -4.48711e-19)
(-0.00248501 4.19835e-05 -4.67202e-18)
(-0.00266056 0.00029074 2.27199e-18)