/*--------------------------------*- C++ -*----------------------------------*\
| =========                 |                                                 |
| \\      /  F ield         | OpenFOAM: The Open Source CFD Toolbox           |
|  \\    /   O peration     | Version:  v2012                                 |
|   \\  /    A nd           | Website:  www.openfoam.com                      |
|    \\/     M anipulation  |                                                 |
\*---------------------------------------------------------------------------*/
FoamFile
{
    version     2.0;
    format      ascii;
    class       volScalarField;
    location    "350";
    object      k_0;
}
// * * * * * * * * * * * * * * * * * * * * * * * * * * * * * * * * * * * * * //

dimensions      [0 2 -2 0 0 0 0];


internalField   nonuniform List<scalar> 
13917
(
0.00016543
0.000149344
0.0596189
0.000154357
0.00014866
0.000192024
0.0580244
0.0611676
0.0764627
0.000173059
0.000203795
0.000183906
0.000154533
0.0166712
0.000155236
0.000154226
0.00014972
0.00017558
0.000183513
0.000148661
0.000149761
0.0575983
0.000148543
0.0583355
0.000148193
0.0543097
0.000161431
0.000164174
0.000206429
0.000183974
0.00016712
0.000157886
0.000159995
0.00015443
0.000148355
0.000109783
0.000148601
0.045154
0.000157766
0.0189091
0.000147501
0.000149898
0.000145214
0.000168024
0.000149179
0.000155772
0.000175322
0.000182795
0.000387238
0.000147984
0.000158577
0.000149785
0.000455909
0.000154746
0.000149771
0.000157911
0.000203457
0.000148566
0.000155272
0.000148979
0.0813522
0.000149363
0.00793873
0.000148582
0.0001909
0.0233123
0.000148637
0.000148495
0.00020578
0.000162983
0.000148705
0.0752023
0.0436003
0.000148204
0.000396648
0.000187475
0.031197
0.000151356
0.0506484
0.000149545
0.000149315
0.000148679
0.000188816
0.0493011
0.0451034
0.000151128
0.000149141
0.0083479
0.000158219
0.000145189
0.0479058
0.000179166
0.000147923
0.000151226
0.0136397
0.000188256
0.000196145
0.000180656
0.000199071
0.000169989
0.000146683
0.000158516
0.000167898
0.000152501
0.000146787
0.0772172
0.000192665
0.000183714
0.000149754
0.000167959
0.0478538
0.0207077
0.000189109
0.0773989
0.000151115
0.000413762
0.000148037
0.000259939
0.0259085
0.000154719
0.000149812
0.000204617
0.0291709
0.00016354
0.000147792
0.000150913
0.000148951
0.000147856
0.000145262
0.000190293
0.0421846
0.000150947
0.000149265
0.000149815
0.00406869
0.0572397
0.00016557
0.000170607
0.000148591
0.000154551
0.000136236
0.000147015
0.000150342
0.000170071
0.000148511
0.0648868
0.000210168
0.000149635
0.000146686
0.000158344
0.000178832
0.000420851
0.000189254
0.000163583
0.000157547
0.0230287
0.000162163
0.00365397
0.0255883
0.00494653
0.000153009
0.00016158
0.000149546
0.000195151
0.000188661
0.000198655
0.000152414
0.000179782
0.000148322
0.000158956
0.000164232
0.0257071
0.000191199
0.000150551
0.0484631
0.00016471
0.0446613
0.000301905
0.0593176
0.000147961
0.000180347
0.000167999
0.000146988
0.000149077
0.00015793
0.0544345
0.000213468
0.0289556
0.000166438
0.000197258
4.7326e-05
0.0498158
0.000211372
0.000148616
0.000171688
0.000161139
0.000154031
0.000147992
0.000181121
0.00129579
0.000158304
0.000148089
0.000178177
0.000178614
0.03825
0.00115081
0.000148351
0.00014866
0.000180276
0.0564367
0.000150111
0.058688
0.0281776
0.000197327
0.000146811
0.000198432
0.000177476
0.0293873
0.000147827
0.0765515
0.000147892
0.000183208
0.00014729
0.0483235
0.0784952
0.000154572
0.000399435
0.000157921
0.000146822
0.00012691
0.000190653
0.00016623
0.0560928
0.0231686
0.000146361
0.000158394
0.0526258
0.0344115
0.000149489
0.00014756
0.0209926
0.000199424
0.000149757
0.000163116
0.000187716
0.000161298
0.000164681
0.000149488
0.000164002
0.0258126
0.000149089
0.000184415
0.000173282
0.000148844
0.000148506
0.000184289
0.027294
0.000187861
0.000158117
0.000155481
0.00014979
0.0238041
0.0762935
5.1475e-05
0.000146862
0.0411485
0.024599
0.0108646
0.0498162
0.000188801
0.000149391
0.000147437
0.000175665
0.0421228
0.000194568
0.000154869
0.00169403
0.000173939
0.000145192
0.052938
0.000148493
0.0517496
0.00015766
0.000149722
0.000156554
0.000163532
0.000161695
0.000150178
0.000159904
0.000149384
0.000180761
0.0552687
0.0816589
0.000147827
0.0159899
0.000149082
0.000149382
0.000148078
0.000227098
0.000148569
0.000185007
0.000164026
0.000148219
0.000178432
0.000151793
0.00034533
0.000164393
0.000177881
0.000147688
0.000148435
0.0447331
0.0276579
0.000148005
0.000147372
0.0489216
0.000147895
0.0470027
0.000147579
0.0512723
0.000151166
0.000217743
0.000165373
0.000434084
0.000152605
0.000199974
0.000184126
0.000156583
0.000199138
0.000199114
0.000149546
0.0424919
0.000171481
0.0282721
0.000153672
0.0197931
0.000159132
0.058095
0.000180554
0.000172855
0.000172329
0.0604613
0.000149401
0.00016476
0.0528468
0.000149215
0.000152207
0.0258815
0.000184138
0.000150405
0.000185099
0.000202594
0.000146934
0.0223514
7.29897e-05
0.000148448
0.000147277
0.000149135
0.000146654
0.000194256
0.0549271
0.000209058
0.0500643
0.000148133
0.000186773
0.0078451
0.000172119
0.0581857
0.046921
0.0784678
0.000146369
9.68915e-05
0.000147147
0.0675435
0.000148955
0.000451133
0.000187636
0.00015624
0.000149269
0.000179205
0.000182182
0.000182225
0.000642192
0.0531232
0.0229062
0.000164431
0.000172099
0.000147607
0.0377645
0.0560264
0.000148692
0.000192333
0.000148291
0.0002347
0.000151139
0.000149472
0.000151809
0.045459
0.000151733
0.0305197
0.0106799
0.000200602
0.000194183
0.0001495
0.000194544
0.000191137
0.000148178
0.000185759
0.00014913
0.000148264
0.000183822
0.00014972
0.000148245
0.000147116
0.000250218
0.000149624
0.0229019
0.0473139
0.00502798
0.000207814
0.0366558
0.0297738
0.000171726
0.000148148
0.00020161
0.000157386
0.000159557
0.00014857
0.0617323
0.0569768
0.0457073
0.000154094
0.000190863
0.000153292
0.000158446
0.000182204
0.000151278
0.000104205
0.000149731
0.000148539
0.0520058
0.0430894
0.045176
0.000182842
0.00338778
0.0465612
0.0564994
0.030326
0.000145448
0.000177939
0.000151372
0.000148805
0.000308094
0.000175906
0.000148786
0.000177183
0.000170176
0.0288362
0.000148152
0.000194963
0.0152057
0.000238745
0.0277604
0.000149678
0.000148737
0.000153928
0.000162178
0.000146381
0.0524152
0.000199413
0.000159889
0.0365232
0.000157858
0.000195672
0.0615796
0.000211527
0.00019972
0.000115211
0.000194952
0.000175961
0.000201037
0.000173236
0.000203307
0.000207344
0.000176699
0.000186456
0.000148059
0.00173089
0.000159397
0.000146649
0.000161386
0.000151677
0.0311268
0.0769121
0.000147814
0.00014543
0.0533461
0.0245181
0.000149721
0.0226055
0.000152159
0.000199741
0.000147929
0.0360832
0.0014449
0.000158332
0.000149918
0.039865
0.000207774
0.0119988
0.000149777
0.029088
0.000346175
0.0519166
0.000146747
0.0408758
0.0845552
0.000172306
0.000147233
0.000149666
0.000187637
0.000238379
0.000148116
0.000147291
0.000147572
0.000147536
0.0359915
0.000452549
0.000171929
0.000210242
0.00014789
0.000146722
0.000190497
0.0760165
0.000163766
0.000148429
0.000148226
0.000148456
0.0582109
0.0549112
0.000149097
0.000148455
9.30152e-05
0.000172841
0.000165367
0.000148668
0.000151911
0.000156755
0.000185902
0.000193255
0.000212812
0.000202565
0.000189727
0.000925045
0.000177695
0.000147882
0.0301223
0.000148467
0.000152625
0.000155292
0.00179684
0.000169703
0.000146798
0.000242761
0.000186861
0.00753144
0.000189833
0.000160077
0.000171534
0.000149202
0.0830122
0.000220654
0.059976
0.000149444
0.000160772
0.000213578
0.0490827
0.00986938
0.000181601
0.000185692
0.000154065
0.000153713
0.000148697
0.000165085
0.000168693
0.000149217
0.000177295
0.000172355
0.0610258
0.0141832
0.000153282
0.000194946
0.000908108
0.000157544
0.000149898
0.000443568
0.070547
0.0665287
0.000210306
0.000145373
0.0251031
0.000187153
0.000147214
0.000161718
0.000185276
0.000159446
0.000183919
0.0512354
0.000200557
0.00016998
0.0829221
0.000152306
0.0257149
0.000149551
0.000149049
0.0182306
0.0722933
0.000205027
0.000152309
0.000150395
0.000148462
0.00017442
0.000439433
0.000197411
0.000154056
0.000198051
0.000178821
0.000147964
0.000347782
0.000196841
0.000128357
0.000147755
0.000199989
0.000151587
0.0141923
0.000173667
0.000169563
0.000161014
0.000147057
0.000146538
0.000149096
0.00017374
0.000156022
0.00023201
0.000523523
0.000179361
0.000146992
0.000199243
0.000205739
0.000474807
0.000148949
0.00015564
0.000147342
0.000162107
0.000155519
0.0839322
0.000149487
0.000516577
0.000161706
0.000203603
0.000178827
0.0432143
0.000170396
0.000149527
0.0397265
0.0110366
0.000148643
0.0001552
0.00302065
0.000205704
0.000194626
0.000149544
0.000150022
0.000203983
0.000156474
0.000181851
0.000183224
0.000146598
0.000178742
0.0594908
0.000148934
0.000152876
0.00014771
0.0258754
0.000149753
0.000153715
0.0277714
0.000151914
0.0678367
0.000157545
0.000160223
0.000147661
0.000166049
0.000148126
0.000175006
0.00014709
0.000172934
0.000152142
0.0175188
0.00031787
0.076011
0.000152551
0.00014932
0.000176778
0.000169761
0.0307675
0.0784711
0.000175179
0.000148322
0.000247007
0.000204688
0.000141541
0.000213055
0.000175132
0.0493365
0.000164756
0.000172665
0.000196492
0.000177999
0.000174841
0.000234908
0.000174222
0.000154082
0.000186514
0.000156722
0.000147643
0.000161851
0.000168187
0.000157732
0.000148187
0.000147472
0.000179157
0.000153154
0.000181973
0.000148312
0.000148376
0.000149807
0.000151696
0.00014508
0.000155697
0.00014785
0.0348805
0.000183628
0.00018732
0.000146517
0.00014962
0.000163291
0.000176302
0.000150627
0.068387
0.000174429
0.0483019
0.000161848
0.000193762
0.000150717
0.000149777
0.000147417
0.000151792
0.0193997
0.000149676
0.0074319
0.000156099
0.00952158
0.000164819
0.000175052
0.000203055
0.000145983
0.000149934
0.000183984
0.000148494
0.000149928
0.0512732
0.000150736
0.000149136
0.000158715
0.000147505
0.000145921
0.000157888
0.000156408
0.0253415
0.000163235
0.000148933
0.000147235
0.0534694
0.000173709
0.000149292
0.000149441
0.0574838
0.00162594
0.0229818
0.000160088
0.000154092
0.000146437
0.000145765
0.000177141
0.000163907
0.000235134
0.00015397
0.0393539
0.000149778
0.000152233
0.0191756
0.000148336
0.000159637
0.000148367
0.000148424
0.00016733
0.000161787
0.000150625
0.0695127
0.0250183
0.000179388
0.00014787
0.00014563
0.000196787
0.00730175
0.000149717
0.000498487
0.000145578
0.000167161
0.00014802
0.000147928
0.000238831
0.000148946
0.0179737
0.000166992
0.000149806
0.000145445
0.000148757
0.000147589
0.000152649
0.000429874
0.000148633
0.000147475
0.0724029
0.070306
0.000170912
0.000169093
0.000181445
0.000155977
0.000147139
0.000156272
0.0360075
0.000173715
0.000148801
0.000149743
0.0788045
0.000166999
0.0565642
0.000149756
0.00015081
0.0234881
0.000165238
0.000150881
0.0172613
0.000288554
0.000147549
0.000193975
0.0001474
0.000148788
0.000146449
0.045179
0.000145
0.000149278
0.000147119
0.023965
0.000156531
0.00019978
0.000165713
0.000148012
0.0001587
0.000149095
0.051576
0.000147677
0.000148758
0.000149143
0.000197563
0.000149088
0.00020069
0.0200602
0.0534686
0.000155274
0.000103729
0.0327546
0.000148405
0.0210828
0.081549
0.0368376
0.036849
0.0718112
0.00797812
0.000197271
0.000149763
0.0504424
0.000165067
0.0556162
0.000146596
0.000147921
0.000149343
0.000149047
0.000157274
0.00015817
0.0317352
0.000147836
0.000148467
0.0110663
0.000186964
0.000148751
0.000160427
0.000160458
0.000149791
0.000308012
0.000160662
0.000152425
0.000156383
0.0203394
0.0238314
0.000252788
0.000147861
0.000205227
0.000186907
0.0339655
0.0793737
0.000190738
0.000147927
0.000150892
0.000149774
0.000144679
0.000151889
0.000145364
0.000156858
0.000164267
0.0408262
0.000198316
0.000149311
0.000193354
0.0581321
0.00016636
0.000149627
0.0274695
0.000148092
0.000149705
0.00016049
0.0415459
0.000149089
0.00014778
0.0593379
0.000159328
0.000410591
0.000191935
0.000240107
0.000147605
0.000202875
0.000149732
0.00014792
0.000149745
0.0534842
0.0283547
0.000147548
0.000145443
0.000148495
0.0029794
0.000151459
0.000161079
0.000148469
0.000150081
0.000201694
0.000148135
0.000175638
0.000196508
0.0455793
0.000148701
0.000171973
0.000153486
0.0406793
0.0557057
0.000148222
0.0436852
0.00018268
0.000266169
0.000149081
0.0451342
0.0001496
0.000157636
0.000166315
0.000191849
0.0551457
0.000139641
0.000206419
0.0738281
0.000146938
0.00023479
0.000147927
0.000156698
0.0598841
0.000148853
0.000149657
0.000151152
0.000149618
0.0392525
0.000145869
0.000148481
0.000179036
0.00016992
0.000175794
0.000202268
0.000198793
0.0186823
0.000184408
0.000166358
0.000172077
0.03665
0.00017148
0.0589957
0.0536543
0.000157053
0.000148227
0.0355295
0.000139061
0.000149643
0.000191026
0.000164217
0.000150718
0.00015781
0.000149792
0.000166543
0.000149943
0.000174722
0.000170737
0.000147183
0.000176628
0.000147892
0.000166663
0.000147065
0.000154883
0.000178353
0.00015348
0.000149586
0.000147588
0.000287499
0.000176469
0.0630566
0.000148246
0.000149189
0.000179732
0.000148363
0.000184748
0.000176422
0.000150713
0.000188029
0.00014776
0.0708308
0.000149533
0.000169665
0.0287621
0.000234221
0.000147662
0.000152432
0.0169815
0.000147934
0.000147418
0.0379642
0.0502291
0.000152976
0.000204893
0.000148594
0.000149593
0.0535624
0.000151587
0.000146051
0.000205449
0.000148012
0.00111286
0.00014927
0.000146046
0.000149316
0.000199226
0.0342132
0.000149006
0.000149549
0.000147601
0.000155012
0.000148387
0.000225509
0.000176325
0.000149773
0.0575195
0.000164913
0.000238005
0.0487896
0.0004332
0.000147369
0.000149473
0.000148667
0.000207055
0.000155452
0.0341358
0.0313773
0.000152547
0.0591829
0.000318287
0.000175149
0.000201488
0.000169202
0.00018945
0.0545861
0.000167215
0.000407243
0.0519859
0.000183202
0.000154342
0.0375936
0.000164186
0.000146725
0.000152856
0.0728144
0.000162896
0.000147757
0.000166338
0.000186625
0.000164606
0.036988
0.000152703
0.0670584
0.000171918
0.00014796
0.000193676
0.000206657
0.000159868
0.000147635
0.000150487
0.0570901
0.00014794
0.000152791
0.000147221
0.000151939
0.000147948
0.00016042
0.000202734
0.000299993
0.000162608
0.000165035
0.044614
0.000191268
0.000147973
0.00235289
0.0507223
0.000146504
0.000147364
0.000161605
0.0227159
0.000149667
0.000180618
0.000209202
0.000166834
0.000148695
0.000153044
0.000148173
0.000190931
0.000163085
0.000147789
0.0201946
0.0498845
0.000163584
0.000607485
0.000183615
0.00201815
0.000151814
0.000156391
0.0453477
0.00187671
0.00019101
0.000264851
0.000158372
0.000149831
0.000148899
0.000149337
0.000148429
0.000150448
0.000166763
0.000147714
0.000197521
0.000147496
0.00015929
0.00014769
0.000175221
0.000197411
0.000319444
0.000148322
0.000209247
0.000148885
0.0432822
0.000148274
0.00015436
0.00014876
0.000232936
0.0393209
0.000200587
0.000147704
0.000198334
0.000148612
0.000159602
0.0483904
0.000148614
0.000149781
0.000169121
0.000161722
0.0587496
0.000147734
0.000158187
0.000153247
0.000148236
0.000158583
0.000150211
0.000146206
0.000152201
0.0285744
0.000154076
0.000156548
0.0646836
0.000174736
0.0362551
0.000153698
0.000146247
0.000158828
0.0238846
0.000153644
0.000162173
0.000172298
0.00206734
0.000147479
0.00337946
0.000177278
0.000181183
0.00014643
0.000145528
0.000205902
0.000149941
0.000149898
0.000159105
0.000146593
0.000153181
0.000158816
0.000184788
0.000182027
0.056628
0.00015733
0.000185496
0.0117257
0.0157113
0.000169724
0.000181489
0.0217584
0.000168823
0.069166
0.000152236
0.00813558
0.00335797
0.000146737
0.000149723
0.000147611
0.000151524
0.000168616
0.000147792
0.000152575
0.000190844
0.000152531
0.000160334
0.0441762
0.000157611
0.000154593
0.0767165
0.000150866
0.0227985
0.000155509
0.000165181
0.000147412
0.0281304
0.0286287
0.000148629
0.000151828
0.0460836
0.000157244
0.015159
0.000148011
0.00014804
0.0605974
0.000151631
0.000162466
0.00889039
0.000148447
0.000175119
0.000159207
0.000145524
0.000147245
0.0492198
0.0307163
0.000149514
0.000153336
0.000148685
0.00015638
0.000160091
0.0289017
0.000150543
0.000330269
0.0148446
0.000127244
0.00306579
0.000151439
0.000197268
0.000178412
0.000156982
0.000148395
0.000181303
0.0455743
0.00015185
0.000162804
0.0600934
0.000457429
0.000184414
0.000153995
0.000149524
0.000149607
0.00014847
0.0243278
0.000177804
0.000154252
0.000152136
0.000154375
0.000149786
0.00014825
0.000148475
0.000185116
0.000170794
0.0544096
0.000163353
0.00851141
0.0324957
0.000158592
0.000175567
0.000146638
0.000157575
0.0239258
0.000149159
0.000152457
0.000176455
0.000194766
0.000164381
0.0453328
0.000165427
0.000148088
0.0420287
0.000145294
0.000149928
0.000163786
0.000149807
0.00014909
0.000205598
0.0659182
0.000148024
0.0479737
0.000149098
0.0001473
0.000152299
0.000355883
0.000158997
0.000155512
0.0756622
0.000151396
0.000230999
0.0414148
0.000149607
0.000163598
0.000147932
0.0194401
0.000181129
0.000148512
0.0513498
0.0001767
0.000167857
0.000149846
0.0270159
0.00015726
0.000189607
0.000152657
0.000167468
0.0284007
0.000147433
0.000248923
0.000148945
0.000176806
0.000163941
0.000149601
0.0310541
0.000152325
0.000194425
0.000176127
0.000169316
0.000162799
0.000163056
0.000150392
0.0597422
0.000159082
0.0193726
0.000157817
0.000182767
0.000148553
0.000168051
0.000148622
0.000185532
0.0549494
0.000150876
0.000147241
0.000440065
0.000151635
0.0167818
0.000150519
0.0503231
0.000148662
0.000163178
0.000147912
0.000147574
0.000148679
0.000145415
0.000188866
0.000165778
0.000160845
0.000155672
0.000148446
0.00220034
0.000153526
0.000162441
0.00686638
0.000148524
0.0172608
0.000176185
0.000163321
0.000249175
0.0411195
0.000177943
0.0499888
0.0226416
0.000147453
0.00019732
0.0314233
0.000187164
0.000149089
0.000149406
0.000195727
0.0510285
0.0229216
0.000227437
0.000150846
0.000164435
0.000169342
0.0399285
0.00279575
0.000172128
0.000198155
0.000152958
0.000175942
0.000190995
0.000149032
0.000187162
0.0626118
0.000148803
0.00630478
0.000149663
0.000148772
0.0342308
0.0503276
0.000146875
0.000151114
0.000150379
0.000147979
0.000166157
0.0002067
0.000152964
0.000147841
0.000148564
0.00017178
0.000158186
0.000157801
0.00018869
0.000148379
0.0543093
0.0163292
0.0623384
0.000175531
0.000173233
0.000202169
0.000164686
0.0495109
0.00128896
0.0107352
0.000150055
0.0847763
0.0346309
0.000146334
0.000148199
0.000184062
0.0552546
0.0643481
0.000148103
0.000148632
0.0435353
0.00162523
0.00751906
0.000153337
0.000152593
0.000294997
0.000149286
0.0491876
0.0298419
0.000637094
0.000205947
0.000148734
0.000147645
0.000147097
0.000154949
0.0354715
0.000171065
0.000157244
0.000150464
0.00017278
0.023955
0.000171832
0.0547062
0.014303
0.0250674
0.000314869
0.000148358
0.00014908
0.0493571
0.000145742
0.000146645
0.000151416
0.000374611
0.000167605
0.0376929
0.000192971
0.000148179
0.0774905
0.000166892
0.000147944
0.0163235
0.000175843
0.000153947
0.000149778
0.00515588
0.0599704
0.000149137
0.0686067
0.0169867
0.0593712
0.000169353
0.000175812
0.000147916
0.000150773
0.000336011
0.00015607
0.0484438
0.000167844
0.000534823
0.000202019
0.000151006
0.000157324
0.000147999
0.00015062
0.055735
0.0195534
0.000148474
0.0214801
0.000172664
0.00014866
0.000153708
0.000147556
0.000202626
0.000150315
0.00031201
0.000164655
0.000147872
0.000147015
0.000169639
0.022747
0.000168395
0.00015314
0.000168312
0.000148579
0.000152187
0.000159385
0.0191012
0.0300238
0.057707
0.000146094
0.000146962
0.00014988
0.000197468
0.000147192
0.000150016
0.00020602
0.000179622
3.75017e-05
0.000146565
0.0608315
0.0301037
0.000149885
0.0181718
0.00019502
0.000169332
0.000318854
0.000149708
0.0361569
0.000157513
0.000151324
0.000152587
0.000145706
0.000165657
0.00015388
0.000152287
0.000157821
0.0309153
0.0360545
0.000149612
0.000148024
0.000152684
0.000148691
0.00019516
0.000149989
0.000183228
0.000153506
0.043749
0.000151779
0.0596544
0.00014614
0.0791089
0.000150281
0.000145613
0.0608558
0.000184421
0.00017149
0.000467582
0.000162413
0.000170159
0.000148463
0.0358251
0.000148457
0.000147225
0.00016853
0.000183654
0.0450091
0.0399366
0.000193602
0.0704594
0.000192096
0.000191293
0.000148687
0.000155514
0.000160039
0.0552778
0.000153673
0.0546398
0.0301316
0.000150194
0.000148773
0.000148522
0.000349345
0.000424287
0.000153043
0.000148664
0.000154999
0.000158309
0.00016813
0.000238627
0.000192821
0.000148315
0.000205148
0.000181409
0.0222823
0.000181737
0.000151946
0.000153468
0.0757987
0.000147072
0.000184295
0.0573652
0.00015074
0.000155227
0.000206803
0.000173109
0.000150755
0.02388
0.00015436
0.000235884
0.000172482
0.000158241
0.000151808
0.057238
0.000146978
0.000171206
0.000261139
0.0591668
0.000173061
0.000175597
0.000157443
0.00016361
0.00014975
0.0607591
0.000158608
0.000149036
0.000161182
0.000148514
0.000149776
0.000384451
0.000148434
0.000149118
0.00014868
0.000198658
0.000149519
0.000161683
0.000185042
0.000200591
0.000189879
0.000149661
0.0001831
0.000193197
0.000203524
0.000180882
0.000155974
0.000201965
0.0519519
0.000236435
0.000149887
0.0446086
0.0504178
0.000149882
0.000153917
0.000145589
0.000212898
0.000184382
0.000149507
0.000250996
0.0536863
0.000146649
0.0001494
0.0457752
0.0325016
0.000184105
0.000145789
0.0365006
0.036897
0.000480611
0.000148149
0.0568393
0.000189097
0.000167368
0.0497179
0.000157198
0.000145682
0.000160997
0.000198235
0.000163551
0.0495186
0.063097
0.000147224
0.0645253
0.000197055
0.0363976
0.00014614
0.000163662
0.00014966
0.000147927
0.0599995
0.00439623
0.000231805
0.00677331
0.000157813
0.000173701
0.000151473
0.0626063
0.022238
0.000148466
0.000149695
0.000158318
0.000148396
0.000175865
0.0632156
0.0753797
0.000174213
0.000150522
0.000150036
0.0599288
0.000153994
0.000176081
0.000147057
0.000151308
0.000240139
0.00598079
0.000119722
0.000359389
0.000149069
0.00023164
0.000152526
0.000163769
0.0800079
0.02
0.000148456
0.000149956
0.000168434
0.000154558
0.000149311
0.0643562
0.0552021
0.000147434
0.00014496
0.00014921
0.000147696
0.000328263
0.000147407
0.0473028
0.000189244
0.000183699
0.000147859
0.00016692
0.0658614
0.000165141
0.000193711
0.0470125
0.0001495
0.0266042
0.000158918
0.000159717
0.000189059
0.0271274
0.0358519
0.000182118
0.000147524
0.000188978
0.000147475
0.000154075
0.00014935
0.0461843
0.000159017
0.000723197
6.55059e-05
0.000173353
0.000148762
0.000207287
0.000158603
0.000149785
0.000181207
0.000145226
0.000171066
0.000164618
0.000149231
0.0735141
0.000152062
0.000201592
0.000150887
0.000147552
0.0540981
0.0471566
0.000152858
0.000158608
0.000170979
0.000171533
0.000180784
0.000158451
0.000155105
0.000156043
0.000210327
0.000154041
0.0465754
0.000166486
0.000111513
0.000196546
0.000151492
0.0663318
0.000145258
0.0576396
0.000152934
0.0540289
0.00286624
0.0213939
0.0343176
0.000233153
0.000168261
0.000149358
0.0615116
0.000169591
0.000148507
0.0217894
0.0623271
0.000151669
0.000154247
0.000160733
0.000160776
0.000164526
0.0346476
0.000149883
0.000163452
0.000167641
0.000159421
0.000149026
0.000189183
0.000145646
0.0480792
0.000152381
0.00019242
0.000162229
0.000168992
0.000182812
0.0042071
0.000181748
0.000147256
0.000186998
0.0594956
0.0637403
0.0001508
0.0453662
0.000160348
0.000290996
0.000148459
0.000153527
0.0524836
0.000178734
0.0275241
0.0259891
0.000159061
0.0730403
0.000148378
0.000145611
0.0223874
0.0001647
0.000153472
0.0734692
0.000157192
0.00016333
0.000157778
0.000176737
0.000149414
0.0502035
0.0578474
0.00923169
0.000234808
0.000156031
0.000171606
0.029317
0.000153004
0.000149682
0.00017616
0.000146089
0.000183395
0.0481628
0.021208
0.0276429
0.000179202
0.000151022
0.0592189
0.000145303
0.000185383
0.000149536
0.0354014
0.000152888
0.000164378
0.0386438
0.000192366
0.000148064
0.000159402
0.0105431
0.000148818
0.000201163
0.000147265
0.0586942
0.0547373
0.000194983
0.000167495
0.000147566
0.000166165
0.000200368
0.000168664
0.000147266
0.000151278
0.000148893
0.000178883
0.000148757
0.000189443
0.00014906
0.000147576
0.0839648
0.000147972
0.000157142
0.000156648
0.000149819
0.0443729
0.000147838
0.000161413
0.0559981
0.00017731
0.0444707
0.000148727
0.0594214
0.000178415
0.072776
0.000152489
0.000198115
0.000150237
0.000170346
0.000197485
0.000195562
0.000211329
0.0536086
0.000206377
0.000390017
0.000155593
0.00019505
0.000163033
0.000185877
0.000153907
0.000150024
0.000148498
0.00017758
0.000164838
0.00153611
0.000176889
0.0537953
0.056613
0.000170206
0.000148502
0.00916767
0.000178133
0.000150112
0.000152848
0.000148792
0.0448308
0.000148489
0.0169182
0.000147859
0.000159143
0.0373936
0.000170434
0.000148333
0.000148446
0.0251117
0.000147837
0.000152968
0.000156051
0.00016067
0.000158208
0.000149266
0.000202548
0.000167833
0.00016268
0.000219958
0.0445789
0.0425517
0.030714
0.000146221
0.000148233
0.000171658
0.000151023
0.000163189
0.0452387
0.0422716
0.000145743
0.000148436
0.0413753
9.76194e-05
0.000145919
0.000147328
0.00015528
0.0559217
0.0517834
0.000157004
0.000162421
0.000149285
0.00024209
0.00019816
0.000173799
0.000158251
0.000163552
0.000149976
0.000166441
0.000230216
0.000150779
0.000149523
0.000156603
0.0585437
0.000154281
0.0226076
0.000148645
0.0503285
0.000162091
0.000156339
0.000146449
0.000147485
0.000242082
0.0569742
0.000164596
0.024596
0.0557078
0.000150256
0.052085
0.000200827
0.00014829
0.019512
9.60788e-05
0.00019486
0.000149663
0.0397982
0.0373537
0.000149025
0.000162684
0.0294347
0.000166306
0.000148724
0.000147473
0.000150284
0.000154256
0.00018185
0.00023574
0.00016749
0.000179512
0.000146447
0.000149305
0.0492259
0.000147648
0.00016805
0.000155231
0.000150316
0.000173718
0.000148158
0.000152507
0.000242703
0.000147911
0.0432455
0.00014817
0.00391281
0.048852
0.000187049
0.000149496
0.000149947
0.058335
0.000145619
0.000153707
0.00014978
0.000201917
0.000253642
0.00016437
0.0479467
0.000162632
0.000239694
0.000150298
0.000183873
0.000148119
0.000148866
0.0210689
0.0462476
0.000263932
0.000152997
0.000183107
0.000183514
0.0384835
0.0565556
0.000233046
0.000166669
0.000145249
0.0501805
0.000148465
0.000148704
0.000230245
0.000195673
0.000156801
0.000177761
0.000163859
0.000159614
0.000158176
0.0754323
0.000154508
0.000147874
0.0205047
0.000164085
0.000146377
0.0349036
0.000148105
0.00014868
0.000202647
0.000185618
0.0386163
0.000146491
0.00015374
0.000147616
0.000307885
0.000147727
0.000198497
0.00930394
0.0458672
0.0325454
0.0143145
0.00015758
0.0427768
0.000221658
0.000149354
0.000158408
0.000162676
0.000157787
0.000247081
0.0443572
0.051542
0.0459289
0.000350161
0.000149166
0.000193333
0.000148145
0.0209573
0.000159962
0.00015308
0.00015391
0.000151115
0.000147701
0.000192618
0.0531208
0.000146106
0.000153036
0.000146951
0.0394208
0.000152822
0.0786094
0.0441308
0.000238395
0.000148584
0.000147769
0.0364132
0.000190199
0.000148861
0.000189907
0.000149486
0.000187032
0.000177317
0.000188336
0.000176969
0.0303887
0.000147067
0.000148214
0.000227458
0.0357277
0.000159603
0.000166385
0.00014795
0.0159658
0.000148177
0.000147603
0.00015206
0.000148304
0.00681616
0.0433863
0.000803213
0.000182441
0.0583932
0.000173946
0.000145715
0.000163387
0.000146105
0.000252608
0.000149151
0.000153827
0.000148212
0.000147442
0.000147771
0.000383894
0.000152378
0.000275035
0.00014628
0.000158622
0.000157732
0.000266191
0.000148265
0.000163298
0.00016771
0.000171839
0.0780497
0.000147438
0.0320287
0.000175762
0.000164563
0.000149631
0.000147747
0.0367522
0.00955542
0.000149238
0.000148235
0.000244206
0.000236089
0.000160631
0.0556392
0.000150814
4.3514e-05
0.000163698
0.000146077
0.0497149
0.000153131
0.0516348
0.000148455
0.000151028
0.000148738
0.039457
0.0440074
0.000145869
0.000180479
0.000232403
0.000148281
0.000148116
0.000147615
0.000181878
0.0551895
0.000174657
0.000155713
0.000167329
0.000148164
0.000148666
0.000153229
0.000147943
0.000208088
0.000148746
0.000182955
0.000298033
0.000164545
0.000145338
0.0411653
0.000184759
0.000148219
0.000177547
0.000162491
0.00053247
0.000153282
0.0809361
0.000175069
0.00014845
0.000182456
0.000182797
0.000154941
0.0822048
0.00018168
0.000163567
0.000724665
0.00014814
0.000184519
0.000168818
0.000181413
0.000147572
0.000148247
0.000145581
0.000158871
0.000179682
0.000178976
0.0555064
0.0319937
0.0451722
0.000149761
0.000298033
0.0502881
0.0614766
0.000148254
0.000148644
0.000177466
0.0549749
0.000153143
0.000167344
0.0111963
0.0339092
0.0039385
0.000171191
0.000203416
0.0400073
0.000219927
0.000145688
0.00181065
0.000224524
0.000150045
0.000150536
0.000151043
0.0599576
0.000184513
0.059498
0.000153352
0.00729535
0.000149314
0.000257696
0.033622
0.000149389
0.000166013
0.0482965
0.0492067
0.000174173
0.000151553
0.000152484
0.000149903
0.000184501
0.000197422
0.000238314
0.0592446
0.000146787
0.0180811
0.000190658
0.000753559
0.000148067
0.000149028
0.00609581
0.000182057
0.000148131
0.000172412
0.000167071
0.000160923
0.0469206
0.0602434
0.0648128
0.0572264
0.000154665
0.000146304
0.000166155
0.0275199
0.060986
0.000148815
0.000182422
0.000168838
0.00019302
0.000151563
0.000149687
0.000236669
0.00637275
0.00720655
0.000271013
0.0251354
0.000147718
0.000181219
0.056023
0.000149446
0.000165585
0.000190604
0.000145991
0.000204095
0.0690704
0.000179879
0.000149679
0.0203064
0.000194465
0.0436383
0.00014475
0.000154126
0.000149272
0.000153466
0.00014915
0.000170877
0.000162719
0.000162435
0.000185793
0.000165704
0.0425025
0.00015419
0.000162613
0.000157906
0.0211344
0.000164746
0.0331053
0.000157679
0.000156282
0.0108632
0.000169579
0.00014878
0.000162733
0.00918312
0.0636567
0.000233911
0.000148338
0.000147847
0.000148182
0.000116523
0.000151676
0.000334142
0.000258111
0.0001816
0.000161044
0.000208699
0.028375
0.000149141
0.0658506
0.000160152
0.000163645
0.000148301
0.000148689
0.000174943
0.059622
0.000148418
0.0298147
0.000213987
0.000169745
0.000198045
0.000147824
0.00014808
0.000161714
0.000152654
0.0557961
0.0243366
0.000169651
0.00024227
0.000148272
0.000149129
0.000149513
0.000149604
0.0825364
0.000152836
0.0416871
0.000168754
0.000151664
0.000189645
0.000332393
0.040095
0.0207897
0.000153468
0.000148041
0.000148804
0.000154259
0.000215435
0.000180221
0.0817283
0.000148967
0.000151033
0.000175934
0.000149709
0.000168124
0.000152292
0.000174726
0.000175969
0.000162684
0.00016283
0.000146501
0.000172277
0.00016232
0.000180342
0.000167813
0.000163057
0.000147039
0.000187317
0.000147693
0.000633911
0.0484268
0.000224118