/*--------------------------------*- C++ -*----------------------------------*\
| =========                 |                                                 |
| \\      /  F ield         | OpenFOAM: The Open Source CFD Toolbox           |
|  \\    /   O peration     | Version:  v2012                                 |
|   \\  /    A nd           | Website:  www.openfoam.com                      |
|    \\/     M anipulation  |                                                 |
\*---------------------------------------------------------------------------*/
FoamFile
{
    version     2.0;
    format      ascii;
    class       volVectorField;
    location    "650";
    object      U_0;
}
// * * * * * * * * * * * * * * * * * * * * * * * * * * * * * * * * * * * * * //

dimensions      [0 1 -1 0 0 0 0];


internalField   nonuniform List<vector> 
13917
(
(1.09208 0.119764 2.1563e-20)
(1.01904 0.0409002 0)
(0.598462 -0.0593622 2.22036e-20)
(1.055 -0.00839714 0)
(0.996153 0.0022877 -1.24462e-20)
(0.358815 0.0482671 0)
(0.524749 -0.0495691 0)
(0.605871 -0.0590901 0)
(0.432732 -0.0640194 4.75928e-20)
(1.13481 0.148453 -3.72258e-20)
(1.10981 -0.0516326 -1.96564e-21)
(1.09061 -0.0377286 0)
(1.05551 -0.00909157 2.24191e-22)
(0.0145346 -0.00174495 5.43186e-20)
(0.969945 0.0914998 0)
(0.992954 0.0865964 0)
(1.01341 0.0458099 2.72111e-22)
(1.13479 0.0204928 -1.07449e-20)
(1.08961 -0.0373539 1.35365e-21)
(1.00137 0.00450691 4.0466e-21)
(0.999971 0.000909411 4.04431e-21)
(0.503284 -0.0483168 0)
(1.00075 0.00738202 6.49563e-21)
(0.663825 -0.0629015 -3.19444e-20)
(0.994504 0.0139684 0)
(0.531163 -0.0465511 -2.12583e-20)
(0.782531 0.0291259 -4.70356e-20)
(0.756395 0.116564 7.39831e-20)
(0.731586 0.563258 1.51774e-20)
(1.18898 0.089216 -3.59633e-20)
(1.10635 0.109932 -2.82267e-20)
(1.05707 0.088047 -7.29826e-21)
(0.836376 0.0644016 0)
(0.91024 -0.00277298 -6.41347e-20)
(0.991046 0.0108077 6.08883e-21)
(1.11757 -0.0619836 -1.96014e-20)
(1.00068 0.00693618 4.34802e-22)
(0.139841 -0.0250508 -2.4345e-20)
(1.06191 -0.0131467 -2.17456e-20)
(0.281775 -0.00531765 3.61019e-20)
(1.00824 0.000782206 0)
(0.999987 0.000404078 0)
(1.02038 0.00269993 2.51323e-21)
(0.701777 0.198625 8.52191e-20)
(1.03734 0.0247074 -6.73602e-21)
(0.891386 0.0107665 -2.51119e-20)
(1.13233 0.0188496 -9.44206e-21)
(1.13433 -0.0106554 3.75551e-20)
(0.103959 0.13069 -1.64997e-19)
(1.00332 0.000761198 -4.27157e-22)
(1.08256 0.01632 1.36205e-20)
(0.965018 0.00714248 0)
(0.0749462 0.10927 0)
(0.905584 -0.00157524 2.33995e-20)
(1.01222 0.0467424 -3.55925e-21)
(1.08204 0.0390011 -1.08381e-20)
(1.11064 -0.0511635 -1.30879e-20)
(0.994585 0.0281085 0)
(1.0684 0.0449357 1.25473e-20)
(1.03596 0.0242395 0)
(0.560641 0.0527258 -9.90516e-20)
(1.02054 0.0410196 0)
(-0.0026398 0.00206994 -3.70698e-20)
(1.00146 0.00488908 0)
(0.385409 0.0604152 5.85955e-20)
(1.06301 0.355302 1.3149e-19)
(0.995445 -0.00159172 1.28333e-20)
(0.988052 -0.00282978 8.95701e-21)
(1.14305 -0.0449836 5.29198e-20)
(1.05956 0.133739 0)
(0.996539 0.0024834 5.86632e-21)
(0.494132 -0.0716185 7.70787e-21)
(-0.0801345 -0.0185908 -4.99417e-20)
(0.995107 0.0136281 -3.71389e-21)
(0.105758 0.20434 -1.39825e-19)
(1.08436 -0.0437863 0)
(-0.0771215 -0.0105878 0)
(1.05199 0.0274152 0)
(0.538313 -0.0425462 -8.87709e-21)
(0.999881 0.00183164 -4.69595e-22)
(1.00004 0.00286139 0)
(0.995998 -0.00145493 -6.01654e-21)
(0.404748 0.12346 -1.32208e-19)
(0.166649 -0.0293863 0)
(-0.0873149 0.0183242 0)
(1.05098 0.0262548 -1.80037e-20)
(1.00029 0.00374229 3.6537e-22)
(1.20061 0.427349 -1.1695e-19)
(1.08079 0.0162253 -1.0249e-20)
(1.02083 0.00272814 -6.05871e-21)
(0.00263977 -0.0260197 0)
(1.1707 0.128577 0)
(1.02196 0.0232524 6.85801e-22)
(0.97242 0.0509254 -1.11228e-20)
(1.15238 0.422849 1.39874e-19)
(0.385829 -0.0130108 0)
(1.12354 -0.0418476 1.61103e-20)
(1.13507 -0.00176243 2.41733e-20)
(1.09001 -0.0514955 3.22364e-23)
(0.608071 0.123959 0)
(1.01089 0.00571885 4.73621e-22)
(0.844467 -0.00389101 4.58918e-20)
(0.691643 0.183578 5.28892e-20)
(1.0593 0.0210961 0)
(1.0158 0.0121706 5.98532e-22)
(0.505925 -0.0663453 -5.74512e-20)
(0.811161 0.502022 1.92416e-20)
(1.13663 -0.0118976 1.46151e-20)
(1.01522 0.046371 7.48207e-22)
(1.10653 0.124457 -3.18645e-20)
(-0.167996 -0.00920524 0)
(0.290214 -0.00587572 -3.52658e-20)
(1.09209 -0.043231 8.86609e-21)
(0.467621 -0.065778 0)
(0.947817 0.00544037 -1.90284e-22)
(0.0827582 -0.121372 -8.33176e-20)
(1.00041 0.0131944 1.16961e-20)
(0.200049 0.0889902 3.12339e-20)
(0.179618 -0.00737453 0)
(0.906743 0.0110381 -4.7752e-20)
(0.999983 0.000781101 -6.32421e-21)
(1.14402 -0.0436902 -4.75142e-20)
(0.149616 -0.00920344 -1.19745e-20)
(0.765289 0.109856 0)
(1.00496 0.00067099 -1.24356e-21)
(0.973878 0.048383 9.65103e-21)
(1.03279 0.0280194 -5.489e-21)
(1.00459 0.000543859 -1.27866e-21)
(1.0177 0.00184059 8.07602e-22)
(0.361168 0.00130279 0)
(0.247781 -0.022161 -2.80804e-23)
(0.950289 0.00456914 -2.91441e-20)
(1.03766 0.0256823 6.70798e-21)
(0.999976 0.000717498 -4.0656e-21)
(1.27511 -0.00953859 0)
(0.679741 -0.0658102 4.66614e-20)
(1.08953 0.124248 -2.28029e-20)
(0.584206 0.125119 0)
(0.995116 -0.00121407 -1.92155e-20)
(0.907766 0.00679586 8.7927e-20)
(1.10574 -0.0603352 0)
(1.02384 0.0133025 -1.87574e-21)
(0.961637 0.0191404 0)
(0.654023 0.195179 -5.24017e-20)
(0.98739 -0.00253678 -4.33474e-21)
(0.712672 -0.0736723 2.36737e-20)
(0.801696 0.568786 0)
(0.966934 0.00764409 1.41528e-20)
(1.0226 0.0112387 0)
(1.05203 0.0969713 -1.28597e-20)
(1.1119 -0.0184117 -6.4405e-20)
(0.0921887 -0.15501 -9.16411e-20)
(1.10741 -0.0385075 -1.95158e-20)
(1.02259 0.176541 4.95349e-21)
(1.07351 0.0629902 -2.00533e-20)
(-0.0507818 0.0538126 0)
(1.0549 0.130999 0)
(1.13633 -0.0704703 0)
(-0.0989936 -0.00761415 -1.31402e-20)
(1.27021 -0.00703777 0)
(0.938889 0.0408184 0)
(0.783506 -0.0312784 -3.94144e-20)
(1.00001 0.00197775 1.2096e-20)
(1.12193 -0.0410647 7.358e-21)
(1.09263 -0.0426246 7.23046e-21)
(1.09074 -0.0510687 -2.33699e-20)
(1.05841 0.0219231 1.02142e-20)
(1.12235 -0.0121596 3.79477e-20)
(1.03092 0.0211523 0)
(0.837597 -0.00823084 2.97272e-20)
(1.04187 0.169617 5.18244e-21)
(-0.294357 0.00343792 9.54611e-20)
(1.09034 -0.0454922 -3.58772e-20)
(1.01086 0.0547124 -3.88288e-22)
(0.858382 -0.0771833 -9.47004e-21)
(1.01195 0.196952 -1.44643e-21)
(0.269623 -0.0259922 3.98988e-21)
(0.163063 0.0907695 -3.32649e-20)
(0.770307 -0.0758877 0)
(1.01149 0.0260526 1.0265e-21)
(1.17602 0.12347 -2.16603e-20)
(1.11163 0.108495 0)
(1.02436 0.012878 -6.49054e-21)
(1.00028 0.00407635 0)
(0.934311 0.110089 -1.85233e-20)
(0.584195 -0.0495613 -1.06301e-20)
(1.25371 0.133796 9.28021e-20)
(0.0046338 0.0542298 0)
(1.11166 0.0419597 -1.52898e-20)
(1.09608 -0.0491822 3.10391e-20)
(1.11746 -0.0628902 0)
(-0.0367198 0.0223249 1.51125e-19)
(1.24466 0.173484 5.54914e-20)
(0.999538 0.00710381 1.11243e-20)
(0.563125 0.0580407 8.14041e-20)
(0.793124 0.0309931 4.46997e-20)
(1.00721 0.000302303 1.11954e-21)
(1.02214 0.0242365 9.68715e-22)
(0.871489 0.436603 6.34795e-21)
(1.21163 0.468633 5.27724e-20)
(1.07428 -8.09047e-05 4.32067e-21)
(1.00303 0.000678776 5.55067e-22)
(1.11642 -0.0123352 5.77497e-20)
(1.11023 -0.0184374 5.22964e-20)
(-0.106921 -0.0143735 0)
(1.23147 -0.0440525 -2.45036e-20)
(0.991399 0.00999748 -7.05765e-21)
(0.99383 0.0291178 3.26904e-21)
(1.13264 -0.00327226 -5.83306e-21)
(0.608292 -0.0556462 -1.96464e-20)
(0.963874 0.0195672 -9.08677e-21)
(0.510261 -0.0512966 -1.19555e-20)
(-0.153242 -0.00780712 0)
(1.09679 -0.0488528 -2.16334e-20)
(1.01541 0.0124125 -4.30048e-22)
(0.493255 0.402693 1.87413e-19)
(1.12571 -0.00178539 0)
(-0.258899 -0.00501976 1.46723e-19)
(1.00234 0.0174344 3.02525e-21)
(0.716011 0.074286 9.71453e-20)
(1.01116 0.0250952 -1.9054e-21)
(1.18098 0.0663555 -4.8445e-20)
(1.00807 0.00097131 0)
(0.119988 -0.0298596 -1.36118e-20)
(0.484098 -0.0658255 4.90835e-20)
(0.99383 0.0900654 7.58939e-21)
(1.18463 0.469105 6.06249e-20)
(1.07646 0.0620134 0)
(1.01473 0.0119467 -2.5313e-21)
(1.11403 -0.0615587 5.57878e-21)
(1.08935 -0.0450877 3.38657e-20)
(1.11041 0.0395934 6.98506e-21)
(0.685655 -0.0629681 1.17854e-20)
(-0.173645 -0.00511252 0)
(1.01192 0.00302406 -9.97509e-22)
(1.06026 0.0891978 -9.28332e-21)
(0.031894 -0.0302959 -3.35171e-20)
(-0.131098 0.0209262 0)
(0.999965 0.00220608 -7.13729e-21)
(1.00581 0.0087838 -2.79372e-21)
(0.329682 -0.00523737 3.96735e-21)
(1.12795 -0.0437034 -9.67433e-21)
(1.00004 0.000124582 -2.87753e-21)
(1.09603 -0.0589277 0)
(1.16705 0.00985236 3.46432e-20)
(0.793409 -0.0363606 -3.43179e-20)
(1.08991 0.105462 1.12272e-20)
(1.00002 0.00214985 -5.92922e-21)
(0.975888 0.201094 -6.14453e-21)
(-0.14017 -0.00601246 0)
(1.04023 0.00436344 -9.26259e-21)
(1.19199 0.139611 -2.48297e-20)
(0.569408 0.169225 1.44997e-19)
(1.03256 0.0267848 4.72885e-21)
(0.994053 0.0264814 -1.23058e-20)
(1.10333 -0.0333144 8.38797e-21)
(0.346874 -0.0115506 3.76892e-21)
(1.10662 -0.0374781 0)
(0.935068 0.114746 0)
(0.973206 0.0941825 -8.56395e-21)
(1.00003 0.000218523 1.71504e-22)
(0.127691 -0.00546436 1.37527e-20)
(0.690512 -0.0440452 4.48821e-21)
(1.09595 -0.0597754 -3.22891e-20)
(1.01428 0.0121713 1.73179e-21)
(-0.1415 -0.0135885 -5.47316e-20)
(0.0226452 -0.00625578 -1.719e-20)
(1.09705 -0.0725871 0)
(0.519507 -0.0411821 2.24306e-20)
(1.0847 -0.0447038 -1.34609e-20)
(0.999993 0.00265697 0)
(1.00608 0.000811126 0)
(1.13129 0.0141781 -3.28102e-22)
(0.0439499 -0.0212433 3.26243e-20)
(1.15405 -0.0243361 -6.51357e-20)
(1.06695 0.042903 -5.16968e-22)
(1.2376 -0.0452809 8.49671e-23)
(1.07758 -0.0309897 -1.60619e-20)
(1.01762 0.00122678 8.12926e-22)
(0.969569 0.0214454 -1.16024e-20)
(1.00177 0.00445404 0)
(0.820161 -0.0760825 -1.25017e-21)
(1.07259 0.000228987 -3.73688e-21)
(1.00007 0.000126318 2.63224e-21)
(0.997323 0.106908 1.32098e-22)
(1.01696 0.178374 -1.1305e-21)
(0.783748 -0.0188663 -4.55219e-21)
(1.09815 -0.0595314 0)
(0.99456 0.141926 -4.5069e-21)
(1.04252 0.0106796 -5.74328e-21)
(1.23611 0.010534 1.082e-19)
(0.696434 -0.0631253 0)
(0.590413 -0.0463256 4.13851e-20)
(1.00208 0.0169366 -2.33128e-22)
(1.07595 -0.0738033 -6.00824e-20)
(0.998372 -0.000434832 3.17686e-21)
(1.0426 0.00978836 1.63118e-20)
(1.00056 0.0125897 -4.41749e-21)
(0.814128 0.608424 0)
(1.00151 0.000799345 0)
(1.18574 0.0660882 5.47781e-20)
(1.08548 0.105256 -1.58331e-20)
(1.03056 0.020211 2.92852e-21)
(1.11618 -0.0142972 -6.82346e-20)
(1.03561 0.056227 -6.96732e-21)
(0.112916 0.0523147 0)
(1.01122 0.191891 2.49007e-21)
(1.16502 0.126053 3.23231e-20)
(1.02933 0.0143372 9.86896e-21)
(0.994764 0.0255606 1.78931e-20)
(-0.188641 -0.00645596 0)
(0.121358 -0.00801791 0)
(1.00064 0.0137765 -2.72625e-21)
(1.00693 0.000856129 5.6766e-22)
(1.02257 0.0301197 0)
(1.01476 0.0248096 4.72578e-22)
(-0.056958 -0.0217014 4.64179e-20)
(1.02842 0.0142185 -7.66724e-21)
(0.136158 -0.0313061 -7.26181e-21)
(1.04672 -0.00311924 0)
(1.20183 0.319014 -4.93649e-20)
(1.09772 0.00587114 -6.58066e-20)
(0.111253 0.276527 0)
(0.942705 0.0406209 1.03738e-20)
(1.29741 -0.00192371 0)
(0.509675 0.296313 1.0142e-19)
(1.00038 0.104769 7.21398e-21)
(1.12966 -0.0427893 -4.47094e-20)
(0.951448 0.513787 -2.71913e-21)
(0.994513 0.0420924 1.63027e-22)
(0.195217 -0.0227406 0)
(0.571335 0.0372773 -1.78659e-19)
(0.0299477 -0.0090578 -2.51526e-21)
(0.921224 0.0161153 -4.13109e-21)
(0.217449 -0.00476609 0)
(1.06636 0.0874628 -5.09526e-21)
(-0.0691171 0.00287841 1.36691e-19)
(0.527854 0.275304 7.57593e-20)
(0.918258 0.346612 -6.62319e-21)
(0.934294 0.341521 1.05171e-20)
(0.543822 -0.0574089 0)
(0.999694 0.00221992 0)
(1.04802 0.172835 1.31699e-20)
(-0.133039 -0.010156 5.96028e-20)
(0.9818 0.0277048 1.33106e-20)
(1.00001 0.0699977 4.24246e-21)
(0.044261 -0.00643078 -3.69315e-21)
(0.858722 0.470841 0)
(1.01568 0.0517692 3.65014e-22)
(1.11048 -0.0613199 4.37015e-20)
(0.701309 0.536078 0)
(1.00897 0.00494266 -3.12839e-23)
(0.160162 -0.00410034 -4.99928e-21)
(1.11331 -0.061659 2.76242e-20)
(1.00189 0.0048088 0)
(1.00897 0.0126071 -1.12956e-22)
(0.998572 -0.000560224 0)
(1.023 0.010886 0)
(1.23016 0.00824289 -1.3702e-19)
(0.808364 -0.0771916 2.26195e-20)
(0.385944 -0.284181 0)
(-0.154095 -0.00791844 1.22688e-19)
(0.997544 0.0136918 7.07832e-21)
(1.19877 0.138986 2.7566e-20)
(-0.187758 0.0232589 -1.51575e-21)
(1.10789 -0.00415399 -1.3043e-20)
(0.490315 -0.0495425 0)
(0.072538 -0.0263977 -2.80597e-20)
(0.446381 -0.0652139 7.32694e-20)
(1.01309 0.00553324 -1.01459e-21)
(1.09235 -0.0587955 2.94837e-20)
(1.01015 0.0122294 1.11169e-21)
(0.84648 0.0889565 5.19917e-20)
(1.03507 0.0248794 -6.38392e-21)
(0.0855034 0.323975 0)
(1.17004 0.0117508 1.86223e-20)
(1.06383 -0.00571312 -8.49636e-21)
(0.999531 0.00265272 0)
(1.13036 -0.00190164 -7.87115e-20)
(1.18192 0.124657 8.21998e-20)
(1.14952 0.0069828 0)
(0.325866 1.0862 -7.04945e-20)
(-0.113593 0.00175083 -7.41669e-20)
(-0.285758 -0.00228803 -1.42045e-19)
(0.980826 0.20908 -8.99256e-21)
(1.12855 0.14554 6.28451e-20)
(1.00552 0.00835737 3.13955e-21)
(-0.105642 0.0218157 -5.4533e-20)
(0.491399 -0.0462546 -1.87983e-20)
(0.998439 0.0321149 4.33236e-21)
(1.26901 0.00240497 -5.05705e-20)
(0.995389 0.0098924 0)
(1.20284 -0.02545 0)
(1.04675 -0.00255976 5.53804e-21)
(0.999772 0.00187846 0)
(1.03103 0.0591843 4.02715e-21)
(0.565934 -0.0407187 0)
(1.02929 0.0594377 2.784e-21)
(0.367673 -0.0152872 -1.49741e-20)
(-0.0533812 0.0352715 0)
(1.10517 -0.0500681 0)
(0.441707 0.276605 2.49125e-19)
(0.996252 0.0418069 0)
(0.4951 0.360062 -1.92843e-19)
(0.467958 0.301208 0)
(1.00183 0.00963408 0)
(0.823711 0.471584 -4.64688e-21)
(0.983221 0.0274734 -1.16139e-20)
(0.994112 0.0116749 -4.45464e-21)
(1.18747 0.0938149 1.38871e-20)
(1.00006 0.000326581 -2.44247e-21)
(0.993372 0.0133396 0)
(1.01039 0.0120389 -1.09071e-21)
(1.23335 0.0125907 2.17298e-22)
(0.999934 0.00146391 4.84873e-22)
(0.227575 -0.00635621 -8.63844e-21)
(0.662079 -0.0488285 -1.23285e-21)
(-0.125252 0.0163953 1.52701e-20)
(1.24012 0.179656 0)
(0.354499 -0.0211585 0)
(-0.23827 -0.00707996 0)
(1.10597 -0.00448625 2.34494e-20)
(0.997913 0.0131139 -6.54419e-21)
(1.20027 0.00765832 0)
(1.06155 -0.0120291 3.0425e-20)
(1.06489 0.0946404 0)
(0.999521 0.00763218 8.53076e-21)
(0.739973 -0.0770371 -8.49912e-20)
(0.551933 -0.0527485 0)
(0.716579 -0.0516505 1.04699e-21)
(0.98195 0.0850708 0)
(1.17009 -2.4209e-05 2.15087e-20)
(0.92466 0.0132717 2.75465e-20)
(1.0632 -0.0135331 2.12303e-20)
(1.14735 0.00564313 3.6773e-21)
(1.01721 0.0605512 -1.90941e-22)
(1.0933 -0.0585316 0)
(1.01632 0.0452213 0)
(1.00149 0.000942403 2.62586e-21)
(-0.0258543 -0.0262579 4.44445e-20)
(0.26444 -0.0242235 -2.96465e-20)
(0.284748 -0.0268019 3.65479e-20)
(1.17357 0.207602 -1.04686e-19)
(-0.134117 0.0127522 0)
(0.223349 -0.0271009 -1.69017e-20)
(-0.0840973 -0.0220033 -6.03791e-20)
(-0.0358192 -0.0106758 3.69344e-20)
(1.01688 0.00196766 2.58711e-21)
(1.1325 0.00547582 0)
(1.01923 0.0604003 4.42959e-22)
(0.991501 0.0295987 3.75613e-21)
(1.2245 -0.0378235 0)
(1.13331 0.0156626 1.53232e-20)
(1.01869 -4.95118e-05 0)
(1.15186 0.0475521 5.83113e-20)
(1.10673 0.000406763 0)
(-0.0262006 -0.00810238 1.98031e-20)
(1.00198 0.0100174 -1.31167e-22)
(1.13698 -0.0338059 -5.05081e-20)
(-0.00140645 0.0163781 -1.54506e-19)
(1.22147 0.333652 0)
(0.233087 -0.00956851 -1.99822e-20)
(0.999938 0.00127445 4.2192e-21)
(0.997311 0.0325103 -5.60837e-21)
(1.01107 0.000430845 0)
(1.04981 0.13475 6.53421e-22)
(1.01303 0.0051345 2.02653e-21)
(0.643114 -0.0527394 -3.62816e-20)
(0.397394 -0.244661 3.0995e-20)
(0.997497 0.136672 4.20063e-21)
(-0.06479 0.0299444 8.91193e-20)
(1.08151 0.0367038 2.12084e-20)
(1.12045 -0.0423821 -4.17429e-20)
(-0.0435755 -0.024645 0)
(0.822932 0.569428 2.61101e-21)
(1.10432 -0.0496755 0)
(1.10951 -0.0612396 0)
(1.13608 -0.0351484 7.62458e-20)
(1.15039 0.0642372 2.41962e-20)
(1.18825 -0.00823073 2.238e-20)
(1.09188 -0.0216393 -2.06895e-20)
(1.09938 -0.0528029 0)
(0.374941 0.10351 -8.11405e-20)
(1.08828 -0.0290229 2.58327e-20)
(1.13479 -0.0196157 1.66814e-20)
(1.0145 0.000716311 0)
(1.26266 -0.0196867 -5.94912e-20)
(1.0854 0.0190548 0)
(1.02964 0.00412782 3.0443e-21)
(1.04552 0.131196 0)
(1.05436 0.0258251 -9.3393e-22)
(-0.0233557 -0.0111994 -1.76775e-20)
(0.491985 -0.0698784 0)
(1.01409 0.023808 -6.04537e-22)
(1.01752 0.000991788 -8.58401e-22)
(0.67185 -0.0567892 -1.07305e-20)
(-0.260458 -0.00400368 0)
(1.00006 0.000247784 0)
(0.209871 -0.00564333 0)
(1.05567 0.00632231 -2.62513e-20)
(1.22921 0.15986 -2.16242e-20)
(1.01342 0.0256339 -1.53049e-22)
(-0.141626 -0.0110652 -3.49534e-20)
(1.18224 -0.0693809 7.03821e-20)
(1.05496 0.094733 9.74316e-21)
(1.03528 0.0373849 -3.90854e-21)
(0.380561 -0.0248621 0)
(1.24315 0.13229 0)
(-0.248438 0.0127034 1.25144e-19)
(1.00004 0.000295419 2.79341e-21)
(-0.141161 -0.00838316 0)
(0.135822 0.0518404 0)
(0.996569 0.0325832 0)
(1.02975 0.00461136 -1.8322e-21)
(-0.119933 0.0187074 2.07083e-20)
(0.336018 -0.0451639 0)
(1.10552 -0.00772446 -3.13031e-21)
(1.0095 0.0126735 -1.16109e-22)
(1.00747 0.0459867 4.74834e-21)
(1.08239 -0.0443491 2.12888e-20)
(1.2018 -0.0297312 0)
(1.01914 -3.69106e-05 -5.85377e-22)
(1.00853 0.0119209 9.33433e-22)
(1.00485 0.0023671 -1.48785e-21)
(1.00516 0.00247676 -6.06549e-22)
(-0.165718 -0.0112231 0)
(1.22446 -0.0337922 8.32644e-22)
(1.1051 -0.00651382 0)
(1.25246 0.120586 -1.85612e-19)
(1.00611 0.000633327 1.82493e-22)
(1.01046 0.00542162 -8.2621e-22)
(1.16664 -0.00130501 -4.24831e-20)
(0.187809 -0.0454152 0)
(1.10207 0.052072 0)
(1.03203 0.0214149 5.1379e-21)
(0.994428 0.0121481 0)
(0.992332 -0.00126796 -6.04056e-21)
(0.936192 0.0231058 0)
(0.00927384 0.0248346 -1.99495e-19)
(1.00044 0.00356249 3.96939e-21)
(0.992469 0.00175621 1.16912e-20)
(1.09052 -0.0585789 -7.76472e-21)
(1.09232 -0.0203139 2.00385e-20)
(1.09686 0.00463409 -6.334e-20)
(0.996341 0.0309804 0)
(1.02657 0.0621798 -1.90198e-21)
(1.0409 0.0931132 0)
(1.13264 -0.0201328 -6.31541e-20)
(0.947181 0.487704 0)
(1.25715 0.128898 -5.40054e-20)
(1.20073 0.00353579 -3.32698e-20)
(1.15331 -0.0135506 0)
(1.2309 -0.0482461 -4.7654e-20)
(1.16465 0.119272 4.80139e-22)
(1.00129 0.0163678 -1.1769e-20)
(-0.12758 -0.0086363 -5.10525e-20)
(0.99269 -0.00176132 1.00109e-20)
(1.00056 0.0728588 -1.27907e-20)
(1.06533 0.00132087 0)
(1.26003 -0.0209366 -2.98169e-20)
(0.989043 0.284807 2.77112e-21)
(1.00974 0.0012179 0)
(1.22402 0.322799 3.04216e-20)
(1.19745 0.0821049 2.70754e-20)
(-0.0882978 0.00403999 2.3446e-19)
(1.15492 -0.0117069 4.37577e-20)
(0.885666 0.131358 -4.37615e-20)
(1.10892 -0.000332025 0)
(0.99939 0.00288824 -5.8076e-21)
(0.517804 -0.047545 -4.37958e-20)
(1.21309 0.31267 2.6719e-20)
(0.384776 -0.0470255 -4.48658e-21)
(1.01571 0.0430757 6.9796e-22)
(1.09236 0.0420633 -8.39347e-21)
(1.25576 0.116249 1.17757e-19)
(0.0806532 -0.0288065 1.49307e-20)
(-0.190002 0.00549609 0)
(1.13749 -0.00323082 8.51242e-22)
(1.18211 0.209338 5.76215e-20)
(0.989184 0.0855912 2.11695e-21)
(1.0537 0.0558398 -1.36932e-21)
(0.995249 0.0314379 1.43633e-20)
(0.886958 0.22667 0)
(0.669772 0.177103 -5.3102e-20)
(0.973456 -0.00577266 -7.86327e-21)
(1.12342 -0.00297532 0)
(0.568498 0.144036 0)
(0.399032 -0.0487155 8.56203e-21)
(-0.241884 0.014375 7.07612e-20)
(1.02933 0.0720464 -1.37369e-21)
(1.11899 -0.0418105 3.15529e-20)
(1.17828 -0.0673024 -6.3711e-20)
(1.0017 0.115044 2.69627e-21)
(0.96736 0.0216489 8.68445e-21)
(0.175057 0.536536 8.69948e-20)
(0.693933 -0.0666812 2.79276e-20)
(0.653854 -0.0744239 3.41285e-20)
(1.24797 0.104192 -2.33678e-20)
(1.01757 0.00207882 0)
(0.166609 -0.00622479 0)
(1.08324 -0.0435644 0)
(1.00966 0.000906625 0)
(1.08989 0.0731416 3.48774e-20)
(1.11923 -0.0280629 -5.74269e-21)
(0.845727 0.0661722 0)
(1.18563 0.0845327 0)
(0.527768 -0.0439896 1.97861e-20)
(1.1847 -0.00853114 2.72755e-20)
(1.08841 -0.018654 7.53615e-21)
(0.518869 -0.0476275 0)
(1.05632 0.0317383 2.42977e-20)
(-0.0562543 -0.008159 -2.14929e-20)
(0.999961 0.00195168 0)
(1.00044 0.00384382 -6.93326e-21)
(1.05363 -0.0749117 3.41268e-20)
(0.663451 -0.067746 3.11612e-20)
(0.376408 0.234892 -4.08433e-21)
(1.05688 0.0303887 0)
(1.01217 0.0528589 -1.72914e-21)
(0.992891 0.00222897 -1.08018e-20)
(1.07869 -0.0311187 -9.45506e-21)
(0.0779877 0.169362 1.60844e-19)
(1.09034 -0.050289 0)
(1.05593 0.0562715 0)
(1.10426 -0.0483951 0)
(1.12804 -0.0032549 4.15343e-20)
(1.01326 0.026346 1.87843e-22)
(1.16325 0.477607 0)
(1.08932 -0.0500153 -1.75459e-20)
(1.09177 -0.05921 3.0275e-20)
(1.00399 0.0188982 1.22502e-21)
(1.17982 -0.012557 0)
(1.0535 0.0272909 8.63316e-21)
(-0.00865953 0.0461512 -1.32401e-20)
(1.14052 0.145202 -4.01745e-20)
(0.999665 0.277936 0)
(1.09346 0.0438922 2.42452e-21)
(1.00757 0.0027972 9.02283e-22)
(1.02747 0.00663287 -2.81736e-21)
(1.03399 0.028601 5.62087e-21)
(0.964446 0.347112 3.28518e-21)
(0.889725 0.0158076 2.81142e-20)
(1.24679 0.0435999 -1.71539e-19)
(0.472649 0.801378 3.10352e-20)
(1.12262 -0.0100171 -3.94648e-20)
(1.00851 0.0048863 3.34254e-23)
(1.18949 -0.00156115 3.64137e-20)
(0.37341 0.265263 -2.10538e-19)
(1.12424 -0.0634324 1.9602e-20)
(1.0395 0.00483559 1.26476e-20)
(0.899147 0.0289797 -1.28293e-20)
(1.00801 0.011819 -1.14103e-21)
(1.07474 -0.0135906 -2.48086e-20)
(1.07072 0.044578 0)
(0.312305 -0.0458446 0)
(0.99984 0.00197411 -7.55598e-21)
(1.23144 0.494849 -8.9789e-20)
(1.07585 -0.0108915 0)
(1.10851 -0.0519119 1.04201e-20)
(1.16773 0.140635 1.87528e-20)
(-0.0952419 -0.0165129 5.51449e-20)
(1.02216 0.275988 0)
(1.00712 0.04434 -6.72224e-21)
(0.0096773 -0.0190193 0)
(-0.25886 -0.000846831 0)
(1.00511 0.0338589 0)
(1.06435 0.00055997 8.41808e-21)
(1.18913 -0.0662401 0)
(1.23988 0.106418 -4.02345e-20)
(1.15134 -0.0244167 9.84707e-20)
(1.00015 0.000357677 0)
(1.03654 0.0373565 0)
(1.18983 0.310292 8.60106e-20)
(1.0644 -0.00657521 0)
(1.14953 0.0104333 -5.97845e-20)
(1.10264 -0.0318212 -7.81477e-21)
(1.02813 0.00652313 3.25635e-21)
(1.10813 -0.0207227 1.46698e-20)
(0.608204 -0.0600258 -3.69313e-20)
(1.03908 0.0033505 -6.27766e-21)
(1.05248 -0.00488326 0)
(1.00432 0.00251495 -1.58558e-21)
(0.11824 -0.00632963 0)
(0.999949 0.000864489 2.77861e-21)
(0.98229 0.081235 0)
(-0.28894 0.00125042 4.70692e-20)
(0.991571 0.0664073 0)
(0.7246 -0.0662014 3.51666e-20)
(1.07239 0.0656379 1.80819e-20)
(0.830485 0.0702512 -6.61927e-20)
(1.00465 0.00263572 0)
(1.01911 0.21128 0)
(1.00031 0.0119124 2.47508e-21)
(1.14852 0.072197 3.76344e-20)
(1.00726 0.00167817 0)
(1.07959 0.256854 0)
(1.05537 0.00704175 0)
(0.267802 0.155282 8.87779e-20)
(0.43427 0.677172 -9.28692e-20)
(0.18488 -0.0457273 0)
(1.01057 0.000414751 -1.11559e-21)
(0.999621 0.0023635 4.41673e-21)
(1.15911 0.116213 0)
(1.12094 0.111823 -3.66261e-20)
(0.080758 -0.0100748 -4.57091e-20)
(0.305886 -0.0570043 4.09062e-20)
(1.13579 0.0239498 4.38292e-20)
(0.992421 0.0104285 -5.50649e-21)
(1.23177 0.010766 0)
(0.343469 0.209885 1.91838e-19)
(1.08935 -0.0587329 -3.34626e-20)
(1.24204 0.0468045 8.90974e-20)
(1.12683 0.0108094 0)
(0.568249 -0.0444712 1.00861e-20)
(1.08243 0.128479 1.15796e-20)
(1.07712 -0.0298521 -2.87022e-20)
(1.19788 0.0209726 7.43077e-20)
(0.853724 0.415903 -4.17384e-20)
(1.13427 0.0258623 -4.66001e-20)
(0.304448 0.286222 1.99371e-19)
(1.1348 0.0318239 1.91576e-20)
(1.05791 -0.00336964 -8.81928e-21)
(1.12037 -0.0293501 -1.94438e-20)
(1.00444 0.106322 6.1202e-21)
(1.03296 0.00560684 1.44017e-20)
(1.07464 -0.0127014 1.548e-20)
(1.10829 0.11945 6.36257e-20)
(1.04797 0.095408 -1.08638e-20)
(0.999189 0.0117497 -1.37375e-21)
(1.00654 0.000505413 -8.86621e-22)
(1.12543 -0.00706775 3.91399e-20)
(1.06108 0.0123154 0)
(1.15248 0.0117118 8.18319e-20)
(0.99312 0.0101509 0)
(0.995039 0.0078278 1.03404e-20)
(0.999961 0.000683876 0)
(1.02245 0.0622647 0)
(1.02314 0.00157907 -3.83082e-21)
(1.04644 0.0814309 4.9682e-21)
(1.00382 0.00266425 0)
(-0.149674 -0.0100885 0)
(1.08782 -0.0382876 0)
(0.470448 -0.290678 0)
(1.01185 0.00518771 1.16663e-21)
(1.00006 0.00152828 -3.02073e-21)
(0.801107 0.13983 0)
(1.15363 0.0621004 0)
(0.953256 0.000544327 -8.78105e-21)
(0.839974 0.00425313 -1.27222e-19)
(1.13012 0.194583 -6.66303e-20)
(1.02694 0.116689 -9.51716e-20)
(1.07588 -0.0118159 2.14426e-22)
(1.17616 -0.00248514 0)
(1.0499 0.0162004 -1.07381e-20)
(0.99991 0.00095692 6.33535e-21)
(1.00541 0.00220932 1.26852e-21)
(1.03387 0.0572218 8.40403e-21)
(-0.313803 0.00346273 0)
(1.00004 0.00130224 -1.73884e-22)
(1.19929 -0.0561155 7.98414e-20)
(1.04775 0.0838022 1.93474e-20)
(-0.186254 0.0262651 -1.48174e-19)
(0.964293 0.220295 6.91541e-21)
(1.13729 0.192622 3.78068e-20)
(1.10757 -0.0514759 -3.96357e-21)
(1.02043 0.00651795 -3.09734e-21)
(1 4.21988e-05 0)
(1.08896 -0.038539 7.84804e-22)
(0.988034 0.00210012 -4.22028e-22)
(0.984336 0.0410538 6.73762e-21)
(0.982163 0.00195049 1.956e-20)
(1.01182 0.0566143 0)
(0.998604 0.000108639 -1.19644e-20)
(1.08246 0.0542574 2.8525e-20)
(1.00598 0.00752195 -9.73087e-22)
(1.01642 0.000926815 -3.538e-21)
(1.0544 0.0906271 1.0952e-20)
(0.885023 -0.0275153 -6.50741e-20)
(0.0594289 -0.0063337 3.61385e-20)
(1.07795 0.108901 0)
(1.03909 0.00286419 -7.69522e-21)
(1.00889 0.000941746 -8.75112e-23)
(0.112257 -0.033871 4.30182e-20)
(0.950087 0.354643 -3.15169e-21)
(1.00089 0.0407103 -2.87448e-21)
(1.01675 0.042463 -8.66263e-22)
(0.933241 0.00707554 4.3061e-20)
(1.18725 -0.0668184 -3.55222e-20)
(-0.299524 -0.00201521 2.36523e-20)
(0.893394 0.131911 0)
(1.05874 -0.0026183 -1.41349e-20)
(1.01153 0.00313803 7.02594e-22)
(1.01664 0.00108926 4.68982e-21)
(1.0896 -0.0290796 -2.26575e-20)
(1.08252 0.109928 1.79136e-20)
(1.1162 -0.0600454 2.44751e-20)
(0.917279 0.0160487 -2.33991e-20)
(0.171228 -0.0187575 4.92748e-21)
(1.02692 0.0422405 5.60073e-21)
(0.963849 0.0566504 -7.88164e-21)
(-0.308675 0.00146721 -8.19583e-21)
(0.995224 0.00932144 7.30085e-21)
(1.08638 0.017528 6.16327e-21)
(1.00411 0.0303386 -1.7108e-21)
(1.00191 0.00122178 -5.71107e-22)
(1.10113 0.12482 3.56905e-21)
(0.773599 -0.0129271 0)
(1.04733 0.0278211 0)
(0.68872 -0.0666772 -6.26775e-20)
(0.303533 -0.00896335 1.73819e-20)
(1.17206 0.135803 5.4833e-20)
(1.00158 0.0169507 1.04186e-20)
(1.02486 0.00314861 5.01794e-21)
(1.09446 -0.0491705 4.47697e-20)
(1.21328 -0.0528338 -2.66605e-20)
(1.00006 0.000404894 -3.20035e-21)
(1.21381 -0.0504249 6.02026e-20)
(1.02436 0.00327476 0)
(1.10483 0.114437 2.84322e-20)
(1.03406 -0.000428661 0)
(1.03397 0.00725193 -4.17051e-21)
(1.20754 -0.0295722 5.63333e-20)
(1.0388 0.0163818 1.6298e-21)
(1.00787 -0.0610956 -7.22623e-21)
(1.11015 0.0877363 -1.02394e-20)
(0.999955 0.000618252 7.87832e-21)
(1.01993 0.00362953 1.36319e-21)
(0.981206 -0.000541946 0)
(1.00891 0.0195813 0)
(1.05201 -0.0039638 -5.30478e-21)
(0.272767 0.680001 7.2031e-20)
(1.03781 0.00506205 1.19062e-20)
(1.03014 0.0108615 6.60629e-21)
(0.383264 -0.0630312 0)
(0.622922 -0.0722193 5.64401e-20)
(1.08961 -0.0198367 9.93946e-21)
(1.11568 0.113077 6.01098e-20)
(1.14241 0.00256296 -3.09782e-20)
(1.07412 0.0250594 0)
(1.0237 0.0144604 1.91414e-21)
(0.887579 0.00849339 5.98669e-20)
(-0.112834 -0.0129651 -5.36891e-20)
(1.08919 0.258196 -1.74377e-20)
(0.998163 0.00458512 0)
(1.03402 0.0365467 0)
(0.339164 -0.0598867 -3.63322e-20)
(1.1092 0.020793 3.09875e-20)
(-0.105063 -0.00914621 1.05016e-19)
(0.999953 0.000810919 -8.77382e-21)
(0.950831 0.00130999 3.34847e-20)
(0.101585 -0.00523295 1.94088e-20)
(1.10202 0.0153378 -1.0643e-20)
(1.0494 0.0265018 1.63186e-20)
(-0.304524 0.00481892 1.2086e-19)
(0.212552 0.232497 2.83141e-20)
(1.00919 0.019075 0)
(1.19372 0.0224753 2.62684e-22)
(1.00572 0.00232094 -3.3333e-22)
(1.03769 0.0163286 2.85597e-21)
(1.01221 0.00546518 -1.51946e-21)
(-0.115182 -0.0173114 5.90284e-20)
(1.02277 0.00142441 -3.72927e-21)
(1.03865 -0.002227 7.03016e-21)
(1.02425 0.0140444 0)
(0.959119 -0.0606218 0)
(1.06121 -0.0100007 0)
(1.23345 0.153269 1.05746e-19)
(0.701614 -0.0992471 -7.66483e-20)
(1.03457 0.00555878 -2.32453e-21)
(0.844341 0.0231453 1.33575e-20)
(1.00048 0.00339098 0)
(-0.143482 -0.00751627 -3.6472e-20)
(1.00511 0.0100076 0)
(1.03848 0.00457927 -1.80411e-20)
(0.998642 0.000633507 0)
(1.09521 -0.0496065 -5.78262e-20)
(0.998477 0.000450973 -3.94728e-22)
(1.18326 -0.0123544 0)
(0.308593 -0.00491364 -1.6738e-20)
(0.720735 -0.0632321 0)
(0.903996 0.0295462 0)
(1.11267 -0.0612292 -1.09146e-20)
(-0.262472 7.82048e-05 0)
(0.995907 0.0257978 0)
(0.147295 -0.00366684 0)
(0.431885 0.0465256 0)
(-0.240431 -6.59689e-05 -4.66206e-20)
(0.342676 -0.0203434 -2.9847e-20)
(0.363482 -0.0616171 0)
(0.124233 0.176666 -3.16232e-19)
(1.18612 -7.35755e-05 -8.95172e-22)
(1.00908 0.0470037 -1.87391e-21)
(0.512127 -0.0425619 -3.16893e-20)
(1.10146 0.0172217 1.02151e-20)
(0.460096 -0.0437042 -6.83332e-21)
(1.02907 0.00494814 -5.98363e-21)
(1.02282 0.0228384 0)
(1.00228 0.0417206 5.04883e-21)
(1.0005 0.00366152 -3.14449e-22)
(1.07884 0.0208218 -2.22089e-20)
(0.890119 0.0879396 0)
(0.124523 -0.0121672 1.47085e-20)
(1.02268 0.0218944 0)
(0.993727 0.00306806 1.107e-20)
(-0.217352 0.0195662 0)
(0.968943 0.445473 1.85208e-21)
(0.981388 -0.00180123 -1.18886e-20)
(0.812076 -0.0578459 -4.47357e-20)
(1.08965 0.0561737 -1.59202e-20)
(1.04347 0.0219046 4.59958e-21)
(0.496774 0.713826 5.17514e-20)
(0.805763 -0.0526265 -1.5653e-21)
(0.950919 0.0485478 2.00803e-20)
(1.06154 -0.00931727 1.31592e-20)
(0.281175 -0.00533282 0)
(-0.293299 0.00204395 0)
(0.222451 0.0546463 -1.50261e-20)
(1.0336 -1.30136e-05 0)
(1.23994 0.139656 0)
(1.19396 0.0782854 -5.97641e-20)
(-0.217981 0.00728243 4.97786e-20)
(0.429276 -0.0646443 -7.45145e-20)
(1.08758 -0.0455162 -9.53256e-22)
(1.01448 0.0257348 0)
(1.05086 0.0169191 2.30812e-20)
(1.02554 0.0425466 -2.95104e-21)
(1.01958 0.000153681 -3.99711e-21)
(1.02504 0.0633803 3.74673e-21)
(1.01684 0.00172623 7.30247e-21)
(1.04327 0.0915986 0)
(1.07834 0.128279 8.86747e-21)
(-0.0449071 0.0296329 9.07444e-20)
(1.13993 -0.0379065 0)
(1.03906 -0.00171032 -1.13238e-20)
(1.17277 -0.00316214 0)
(-0.0664597 -0.0238108 4.25617e-20)
(1.09783 0.119718 -2.93665e-20)
(0.971816 0.0217087 1.44595e-20)
(-0.0660115 -0.00684997 4.80439e-20)
(1.02937 0.0198307 -3.65299e-21)
(0.98523 0.0390712 -2.42818e-20)
(0.816921 0.0593033 1.45509e-19)
(-0.00592327 0.0367337 4.47802e-20)
(0.998425 -0.000946833 1.223e-20)
(1.00355 0.0191887 1.406e-21)
(0.492671 -0.0510397 5.19365e-20)
(1.10418 -0.060232 -4.24439e-20)
(1.17008 -0.0663681 -6.94584e-20)
(1.1539 -0.0184435 7.51236e-22)
(1.11722 -0.0615605 2.35697e-20)
(1.00713 0.0183255 -1.95862e-22)
(1.19671 -0.00199549 0)