/*--------------------------------*- C++ -*----------------------------------*\
| =========                 |                                                 |
| \\      /  F ield         | OpenFOAM: The Open Source CFD Toolbox           |
|  \\    /   O peration     | Version:  v2012                                 |
|   \\  /    A nd           | Website:  www.openfoam.com                      |
|    \\/     M anipulation  |                                                 |
\*---------------------------------------------------------------------------*/
FoamFile
{
    version     2.0;
    format      ascii;
    class       surfaceScalarField;
    location    "400";
    object      meshPhiCN_0;
}
// * * * * * * * * * * * * * * * * * * * * * * * * * * * * * * * * * * * * * //

dimensions      [0 3 -1 0 0 0 0];
oriented        oriented;


internalField   nonuniform List<scalar> 
20537
(
0.00181356
8.41986e-05
-0.00190961
-0.00226426
0.00167075
0.000592718
0.000227604
0.000875286
-0.00110341
0.00300408
-0.00163657
-0.0013815
-0.000659702
-0.000420324
0.00107965
-0.00160253
-0.000562737
0.00216115
0.00212286
-0.00170279
-0.000446694
-0.000654891
0.00133644
-0.000682663
0.000904175
-0.00118434
0.00024772
-0.00153322
0.00068164
0.000850753
0.00021344
-0.00058093
0.000365921
0.00103665
5.71238e-05
-0.00109391
-0.000503574
0.000643234
-0.000139698
-0.000267009
-0.000398506
0.000665515
0.000163904
0.000442759
-0.000724847
0.000912117
0.000632563
-0.00154746
-0.00204218
0.00060079
0.00143592
0.000254825
0.00140656
-0.00166696
-0.000420399
-0.00035003
0.000770338
0.00114734
-0.000277076
0.00135714
0.00162451
0.0012867
-0.0010597
3.93905e-05
-8.04897e-06
-4.39021e-05
-9.87403e-05
0.000104671
-6.10505e-05
5.41271e-06
2.13514e-05
0.000683898
-0.00134001
-0.00158035
0.00126696
0.000309409
0.00025935
0.000131787
0.00242265
-0.000622311
0.00231141
-0.000345892
-0.00197545
0.000519785
-0.00212604
-0.00108672
-0.000960321
0.00137601
-0.000501342
0.000752344
0.000462761
-0.00121639
7.16728e-05
-0.000227659
0.000471547
0.000111076
-0.000582675
-0.000653398
0.000321385
0.000331989
-0.000485151
-0.000430572
0.000915558
-0.00111971
-0.000414188
0.00164246
-0.000891264
0.00230305
-0.00129523
-0.0010398
-7.71759e-05
-2.54395e-05
9.81337e-05
-0.000334313
0.000111708
0.000222605
-0.000405465
-0.000151654
0.000556413
0.000131505
-0.00053752
-0.000532047
0.000302028
0.000230018
-0.000154897
0.000543957
-0.000388966
0.00201781
-0.000585645
-0.00143283
-0.00121332
-0.000370693
-0.00150255
0.00129816
0.000197573
0.000552877
-0.000981093
0.000427911
-0.000421298
0.00084086
-0.000419668
-0.000131257
0.000316532
-0.000185275
-7.48566e-05
0.000319523
-0.000357232
7.89782e-05
0.00022275
-0.000408731
2.25363e-05
-0.000103784
3.31271e-05
-0.00015813
9.57631e-05
0.000180034
0.000231137
-0.000411171
0.00188979
0.000411248
-0.00175235
0.00214732
-0.000419005
-0.000937411
0.000452052
0.000511636
0.000127006
-0.000638666
-0.000767151
-0.00131925
0.00208229
0.000396542
0.000512296
-0.000909066
-0.00180843
0.000358002
0.0014494
-0.000590843
0.00207977
-0.00149905
-0.000358898
-0.000294518
-9.59583e-05
0.000554057
-0.000657978
-0.000649758
0.00130638
0.00173065
-0.00148192
0.000305568
-6.03403e-06
-0.000299534
-0.000231984
-0.000286887
0.000518859
-0.00139336
-0.000870875
-0.000515168
0.000308915
0.00059011
-0.000112483
-0.000573211
-0.000397092
-0.000727776
0.0011039
0.000337705
0.00094862
-0.000282285
0.000403483
-0.000121198
0.00122981
-0.000716085
-0.000514486
6.46534e-05
-0.000328673
-0.00214802
0.000644929
0.00148441
-3.12805e-05
4.59776e-05
-1.46147e-05
0.00143846
-0.00201456
0.000523365
-0.000294266
0.000524237
-0.000229972
0.00116999
-0.0019412
-8.36818e-05
0.00112019
0.000586762
-0.00209527
0.00150307
-0.00139972
0.00108035
0.000318936
0.00140591
0.000129768
-0.00154013
-0.000867287
0.000670224
0.000183572
0.000712943
-0.000241445
0.00261209
-0.0015051
-0.00111569
0.000375636
0.00155699
-0.000815496
-0.000743825
0.00213469
-0.000733733
7.65364e-05
1.23955e-05
-0.000118781
-0.00095959
0.00029956
0.000597822
-0.000487643
-0.000110187
-0.00119604
-0.000312893
6.40455e-05
-2.2514e-05
0.000508045
-0.00053167
2.36297e-05
-0.000689344
-0.000434187
0.00112296
0.00232685
-0.00099749
-0.00134402
0.00103865
-0.00144922
6.46963e-06
-9.98832e-06
1.12793e-06
-0.000591173
-0.00142319
0.00200941
0.000540463
0.000440244
-0.000981157
-4.3783e-05
-1.08109e-05
5.14974e-05
0.000283425
-0.000465611
-0.00209923
0.00153273
-7.11558e-05
6.72798e-05
-3.38331e-05
-0.000643286
-0.000237857
0.00144351
0.00115738
-2.7143e-05
-2.55781e-05
-0.000160674
4.91133e-05
-0.000866815
0.00186555
0.00036163
0.000236181
7.48014e-05
-5.25973e-05
-2.65153e-05
-0.000136078
-8.36635e-05
0.000142305
-0.00034351
7.22914e-05
0.000179666
-0.000329767
-4.54573e-06
-0.00079423
0.0018282
0.000189568
-0.000693181
0.00201226
0.000615672
0.00139928
-8.1047e-05
0.000374261
-0.000299279
0.00205478
-0.00144156
0.000925576
-9.47707e-06
-0.000916683
0.00265454
-0.00131849
-0.000347626
0.000787535
-0.000440066
0.000950931
0.00131677
0.000303135
-0.00102454
0.000669694
-4.1143e-06
0.000309682
-0.00039614
0.00177782
0.00102759
-0.000243966
-0.000169319
0.000351097
3.06761e-05
3.8553e-05
-0.000267496
-0.00026727
0.000534753
0.000850525
-0.000527801
-0.00032273
0.00047661
-0.00091923
0.000442647
7.64361e-05
0.000431611
-0.000317432
0.000280088
0.00170391
-0.000736384
-0.000983119
1.89655e-05
0.000175534
-0.000199673
0.000906792
-0.00173341
0.000818809
-0.000551916
0.000399473
-3.83607e-05
1.66961e-06
3.54631e-05
-0.00091378
0.000565943
0.00163869
0.000450243
0.000509707
-0.000378711
0.000884503
-0.000409844
0.000251527
2.94179e-05
-0.000378186
0.000324855
-0.000591864
0.000107106
-9.94872e-05
-2.44476e-05
-0.00126612
0.00128441
-0.00106098
0.00195896
-0.000269106
0.00158991
-0.00135126
-0.00162995
0.00199977
-0.000378495
-0.000667811
0.000246409
0.000982824
-0.000430279
-2.50202e-05
2.46729e-05
-2.67484e-07
0.00138887
-0.000755635
-0.000635154
-0.000173707
0.00035374
0.000844016
-0.000587628
-0.00166412
-0.000550665
0.00220936
2.19527e-05
-0.000184727
0.00015698
-7.59029e-06
-3.15996e-05
-0.00123734
0.000578081
0.00147426
0.00116396
0.000319778
-0.000509923
0.000190139
-0.00031416
3.18748e-05
0.000491094
-0.000110272
-0.000409413
-0.00161069
0.00131173
0.000931639
-0.000455009
0.000243228
0.000552004
-0.00198909
0.00140298
-0.000338212
0.00126301
0.000883823
0.000448504
-0.00134481
-0.000820389
0.000399909
4.43577e-05
1.23092e-05
-5.91762e-05
-0.000637172
0.00175603
-0.00112276
-0.000499492
-0.00181375
0.00124887
0.000509959
-0.000958774
-0.000101256
-8.0151e-06
7.09763e-06
1.90429e-07
5.30439e-05
2.9459e-06
-7.58608e-05
-0.00207242
0.0014719
-0.000371277
-6.75357e-05
0.000465316
0.00049339
-0.000958999
0.00111361
-0.00150912
0.000394345
0.000399175
-0.000331601
0.000200344
0.000790194
-0.000132226
-0.000668528
-0.00070356
-0.000519814
0.00122213
-0.000313662
0.000825264
-3.35615e-05
-0.00142957
0.00145562
0.000535208
0.00115323
-0.00147225
0.000481757
0.000988877
-0.000765695
0.00163534
0.00074506
-0.00116327
-0.000391471
0.000304126
-0.000640305
0.000312824
0.000327475
4.7595e-05
-0.000171606
3.83503e-05
-0.000755176
0.00168865
-0.00098376
-0.00145436
0.000682281
0.000771172
-0.00041614
-0.00145068
0.000995393
-0.000674959
-0.000320468
-0.00181936
0.00168867
0.000126056
0.000232753
-0.000418529
0.000185775
3.91635e-05
-2.94395e-05
-1.11731e-05
0.000492671
-0.000367437
-0.000125238
0.00164868
0.00066095
-0.000527139
0.00152384
-0.000997189
-3.10636e-05
-9.1371e-06
3.78834e-05
-4.54941e-05
-0.000149359
0.000189506
0.000153047
-0.000495601
0.000340266
-0.00223973
0.000779292
0.00145616
-0.000242021
-0.000290027
-0.00117192
0.000689618
0.000398001
-0.000156548
0.000389301
-0.000501046
-0.00132212
-0.00180773
-0.000355743
0.000515353
-0.000294627
-0.000220735
0.000835263
-0.000305758
-0.000529643
0.000491309
-0.00028543
-0.000205882
-3.07544e-05
-1.89689e-05
3.12305e-05
0.00155105
-0.00104823
-0.000505041
-1.75874e-06
5.22762e-06
-0.000235114
0.000331438
-9.63246e-05
1.28636e-06
-3.36831e-05
-0.000784376
0.00146693
0.000573358
0.00105947
-0.00163447
0.000387104
7.6095e-05
0.000136109
-0.000364791
-0.000581943
0.00094641
-0.00195187
0.00147871
0.000470296
0.000771416
0.00022394
-0.00146183
-0.000347313
0.000195675
-0.000182368
0.000727007
-0.00152745
0.00210191
-0.00158599
-0.00136882
7.56488e-05
0.00129064
-2.1838e-05
3.27115e-05
-1.1172e-05
-0.000639165
-0.000815966
-1.04322e-05
-2.34e-06
0.000265233
-0.000379499
0.000114264
0.000285482
-0.000975323
0.000450806
0.000950593
-0.00140194
-0.000667516
-0.00118829
0.00184745
-0.00176351
0.00150451
0.000253593
-0.000378075
-0.00120339
0.00157263
-0.000195294
-0.00117441
0.00166262
-0.00178759
0.000111885
-0.00173628
0.0012994
-0.000759823
-0.000540105
0.000400651
-0.00193494
0.00153182
-0.000574722
0.00168702
-0.000478731
0.000211449
0.000422276
-0.00015708
-0.000265198
-0.00169194
0.00120593
0.000420652
0.000145062
-0.000278765
-0.00164792
0.00191966
-0.00124003
0.00204781
-0.000809229
-0.000157183
0.000419166
-0.000269836
0.000285075
0.000427915
-0.000713048
-0.00126511
0.00122503
9.44848e-06
0.00164006
7.15044e-05
0.00148335
0.000221939
0.000293404
-0.000623311
0.000715298
-9.73404e-05
-0.00156513
0.00117836
-0.00146098
-0.000954529
0.00200055
-0.00104874
0.000631164
0.000597823
-0.000858664
0.00176769
-0.000428047
-0.000644674
3.4547e-06
-3.47719e-05
0.000121072
-0.00041411
0.0002901
0.000504173
-0.000314329
-0.000189846
0.000461452
-0.000249409
-2.33647e-05
1.9945e-06
2.67333e-05
-1.277e-05
-1.58788e-05
5.5456e-06
3.18424e-07
-7.61e-06
0.000566536
0.000732328
-0.0019795
0.000738352
0.000507398
0.00156948
-0.00207544
0.00138786
-0.000779939
-0.000636351
0.000908665
0.000139464
-0.00113369
-0.00198779
0.00103083
5.79527e-06
-1.44957e-05
9.30936e-06
-0.000470796
-0.000443143
0.00199139
-0.00011023
-0.00171219
-6.19565e-05
0.000668536
0.000526138
-0.00119579
-2.03871e-05
2.65175e-05
0.000766529
-0.000481516
-0.00190186
0.00171008
0.000188269
-0.00123822
0.00115438
-0.000630694
-0.000366058
0.000953262
-0.000130017
0.000395249
0.00127325
0.000113775
0.00190528
-0.00130943
0.00049185
-0.000358107
-0.000133745
0.00240613
-0.000768468
-0.00165752
0.00146713
-0.00206369
-0.000129567
-0.000381193
0.000510756
0.000544489
0.000810097
0.00123892
-0.000767567
-0.00047203
0.000781557
-0.0016
0.00170024
0.000283676
0.000549957
0.000300549
-0.000975207
-0.000929819
0.00112145
0.000527034
-0.00166331
0.000381867
9.23854e-05
-0.000474264
3.75944e-05
-0.000135263
9.27057e-05
-0.00170332
-6.39454e-05
4.32205e-05
-0.000424482
0.000375767
0.000217703
0.000286465
0.000326359
-0.000706278
0.000379835
-0.000477052
-0.000773138
0.000389172
-0.00100503
0.000615328
0.00138136
-0.000377241
-0.00108808
9.48325e-05
0.000327443
0.00210173
-0.00128032
-0.000831528
3.6923e-05
6.96898e-06
-5.91098e-05
2.96888e-05
-0.00129504
0.00124085
-0.000427143
0.000753405
0.000750596
0.000798052
0.000870727
-0.0016038
0.000726569
0.00098478
0.000532019
0.00184923
-0.000882001
0.00198706
-0.000423882
-0.000158412
0.000316634
0.000330304
-0.000315575
0.000587367
-0.000271801
0.00210588
-0.000782764
-0.0013292
0.000290071
0.000201774
0.000846044
-0.00037821
-0.000467884
-0.000458433
-0.00119708
0.000492326
0.000363573
-0.000834515
-0.000211397
-0.00133978
0.00154459
-0.00203759
0.000867619
0.00116625
-0.000762458
0.000275238
0.000487106
0.000416419
-0.00189938
0.000318368
0.00157034
-0.00139835
0.00199058
-0.000591735
0.000443405
-0.000269972
-0.000173436
0.000519821
-0.000196392
-0.00028351
0.000498913
-0.000218868
-0.000537552
0.0002504
-0.000519706
0.000973619
-0.000454097
0.00167669
-0.000812443
-0.00121494
-0.000824682
-0.00032174
8.66267e-05
-0.000285402
-0.00135777
-0.00196523
0.000567397
0.0012636
-0.00125852
0.000261518
0.00102658
-1.50237e-05
2.25578e-06
-5.88069e-05
1.22572e-05
-0.00154722
0.000455883
0.00105274
0.000280099
0.000163303
0.000115308
-0.00096145
0.000844736
-0.00147389
-0.000310693
0.00175402
0.000598441
0.000639626
-1.42869e-05
-0.000123608
0.000132994
-0.000117713
-0.0011206
-0.000228967
-0.00131926
0.00154601
0.00217414
-0.000212946
-0.0002596
0.00057937
-0.00178546
0.000282481
-0.000631204
-0.00160963
-0.001673
0.00108156
0.000588709
0.00159031
0.000584506
0.00221859
-0.00090888
-0.00134941
-5.84205e-05
1.41364e-06
-0.00219717
0.0016836
0.000507043
0.000128177
-0.000404118
0.000275944
0.000113095
0.000949012
-0.000399064
-0.00172437
-0.000255893
-0.00050666
-0.000205052
-0.000304876
0.000259072
-0.00051695
0.000255369
0.000536212
-0.000279668
0.00200021
-0.00118698
-0.000823413
0.000359107
-0.000867452
0.000465316
-0.000226029
-0.000150924
0.00025746
0.000686321
0.00141171
0.000905671
-0.000516903
0.000289951
-0.00068845
0.000339287
0.00077674
-0.00111723
0.000238594
0.000252711
-0.000276046
0.000488338
-0.000212296
-0.000115502
9.75421e-05
-0.00144603
-0.000300311
-0.000575182
0.000323801
-4.19922e-05
-0.000281809
0.00159955
-0.00102795
-0.000261179
0.000622796
-0.000554807
-0.00165019
-0.00074261
-0.000932752
-6.63819e-05
-1.54276e-05
5.47826e-05
0.000439371
0.000406603
0.000518111
0.000197157
-0.000742344
0.00140599
-0.000775562
0.000727586
0.00126468
-0.000562979
-0.00134157
0.00187568
4.30153e-06
0.00128283
-0.000768581
0.000129036
-0.000111352
-0.000437585
0.000833928
-0.00147163
0.00193038
-0.00046163
-0.000392932
0.000414641
-2.17099e-05
-0.00145707
0.00218376
-0.000733876
-0.000464987
0.00143601
-0.00203294
0.000592361
-0.00123541
0.00103936
-0.000554188
0.00179454
-0.0012449
0.000476592
-0.000996492
0.000599117
0.00130085
0.000452908
-0.000302104
6.58784e-05
-4.05594e-05
0.000454293
0.000796696
4.29573e-05
-1.01496e-05
0.000465962
0.000448699
-0.000914834
0.00129965
-0.000433392
-0.000866036
-0.000483981
-0.000494433
0.00097823
0.00200582
-0.000574142
-0.0002981
-0.00095363
0.00141499
0.0020485
0.000219469
-0.000862861
0.000497817
0.000857858
0.00132179
6.68524e-06
-0.00124481
2.52654e-06
1.0633e-05
-1.78664e-05
-0.000486361
0.00112099
-0.000634802
-0.00138391
0.000209207
0.0011722
-0.00131206
0.000724074
0.000587307
-0.000232591
0.000379371
-0.00014678
0.000779242
-0.00155977
-0.000106008
0.000364538
-0.000261109
-0.000277688
-0.00110708
0.000437018
0.000146053
-8.25115e-06
-1.04816e-06
0.000769068
0.000647318
-0.00141846
-0.00105496
3.64159e-05
-0.000663789
0.000461741
0.000120335
-0.000610069
-0.000664732
0.00187636
-0.00122688
0.000459903
0.000932025
-9.12735e-05
0.00219988
-0.000912101
-0.00129235
0.000475026
0.000659883
-0.00113488
2.36258e-05
-7.36081e-05
0.000173181
-0.0014935
0.000177161
0.000206265
-0.000383426
-0.00200644
0.000337166
1.65359e-05
9.26051e-06
-0.000628278
-0.000771734
-0.000441546
0.000758956
-0.00156246
-0.000843885
0.000572138
0.00023987
0.00196921
-0.00164987
-0.000322234
-0.00197453
0.0015221
0.00044179
2.4573e-05
-0.000752013
0.00151613
0.000623118
-0.000241268
-0.00111529
-0.000943251
0.000634585
0.000556749
-0.00119239
-0.00051068
0.000205467
-0.00199507
0.000134972
0.00185372
-0.000115402
0.000414395
-0.000301199
-3.2088e-05
-2.09175e-05
0.000439543
-0.00179681
0.00133006
2.52029e-05
-9.67076e-05
2.27217e-05
-0.00210388
0.000647481
0.0014549
-0.00169779
0.00195379
-0.000270383
-0.00151663
-0.000583079
0.00172917
-0.000536199
-9.51667e-05
2.92645e-06
0.000628715
-0.000353703
-0.000275011
-0.000344647
0.000112056
0.0018075
-0.00135849
-0.000494023
8.97349e-05
-0.00209088
0.00107723
-0.00163562
0.00132327
-0.00124996
0.000205648
-0.000499915
-0.00107886
0.00123099
0.000837607
-0.000723665
-0.00219896
0.00124957
-0.000500343
0.00100487
-0.000504868
0.00134984
-0.00195918
0.000583877
-0.000135972
0.000338035
-0.000202063
-5.30213e-05
1.81576e-05
3.0034e-05
0.000311417
5.11543e-06
-0.000842837
-0.000690662
0.00153245
-0.000110604
8.07747e-05
-0.00199344
0.00207718
-0.000169625
0.000538212
-0.000368594
0.000472476
-0.00125792
0.000500229
0.000168819
-0.000669262
8.81372e-05
-0.000298379
-0.00126087
-0.000678835
0.00193811
-0.00011985
0.000229829
-0.000731768
0.000230304
0.000457695
-0.000350522
0.00102668
-0.000720827
-0.000487646
-0.00139718
0.00185428
0.000153894
0.000169907
-0.000511012
-0.000469927
0.000980591
0.000343521
-0.000735713
0.000392098
0.00027538
0.000312268
-0.000587688
0.00194523
-2.22485e-05
-3.5669e-06
-0.00053256
0.000710406
-0.000177895
0.000424872
0.000874085
-0.00162427
0.000983557
-0.00135981
0.000601848
0.000399428
0.000919004
0.00136918
0.000643582
0.00019672
0.000295944
-0.000269716
0.000244712
-9.5802e-05
0.000237983
-0.000373955
0.000507675
-0.000381431
-0.000258878
-0.00152932
-0.00158462
-0.00041345
0.000516242
0.00143338
0.000275105
-0.000383773
-0.00171187
0.00210961
-0.00106169
-0.000410011
-0.00048969
0.00102186
-0.000532369
0.000371457
-0.00200972
0.000581979
-0.00107181
-0.000413222
0.000617484
-0.000204276
-2.28087e-05
-3.53216e-05
0.000393292
0.000471473
-0.000359014
0.000146346
0.000212668
0.00056684
-0.00176279
-0.00132524
0.00148469
-0.000224183
0.00111022
0.000445939
-0.00135818
0.00162628
-0.000301071
0.000946024
-0.000480992
-0.00147094
0.00195152
-0.000483643
0.00171041
-0.000630579
-0.000660399
0.00113543
0.000267462
6.69535e-05
-0.000382903
0.000403749
-0.000226588
-0.000407497
0.000196974
0.000210522
0.000553621
0.00144921
-0.00200703
0.00138821
-0.000963749
-0.000603889
-8.68431e-06
-5.93093e-06
1.41201e-05
-0.000761052
-3.03042e-05
4.33735e-05
-1.31164e-05
0.000134462
-0.000667062
0.000317356
-0.001588
0.000536638
0.000272841
-0.000809611
0.00057858
-1.56812e-05
-0.000562942
8.79096e-05
-6.93279e-05
0.00153528
0.000475854
-0.00201302
-0.00201475
0.000598425
0.0014137
0.000322647
0.000650732
-0.000365544
-0.000473348
0.000838723
0.000295276
-0.000141382
0.000540147
-0.000289865
-0.000250294
-0.00128517
-0.00191319
0.00132114
0.000755898
0.000735803
-0.00149167
-0.000405615
-0.000385317
0.000737505
-0.000352263
0.00102524
-0.00068693
0.000684414
-0.00200705
-1.76405e-05
-0.00133923
0.00147936
-0.000195069
0.000535327
1.70098e-05
6.72176e-05
-0.00123405
0.00179304
4.60602e-05
-3.61719e-05
-0.000777678
0.000534624
0.000183765
2.93871e-05
-0.00044262
-0.000447557
0.00114894
0.000848219
6.93955e-05
-5.5765e-05
0.000508795
0.000440209
-0.00089697
0.00137715
0.000376854
-0.000962355
0.000543307
9.76106e-05
2.18624e-05
-0.000141242
-0.000396682
0.00023196
0.000166213
-0.000295669
0.000423849
-0.000904982
0.00135528
-0.00143306
-0.000589724
0.00020829
0.000693222
-0.00195412
-0.00135367
0.000657272
0.00069499
-0.000222789
-0.000136225
-0.000162393
-0.000256136
-0.00151111
-0.000397871
-0.00125897
0.000607919
-1.13637e-05
2.39746e-06
-0.000353713
-0.000924399
0.0016468
-0.000724541
-0.000620046
0.000306915
0.000313111
0.00134954
0.000641657
0.000860585
-0.000324087
0.000553562
-0.00131541
0.000759243
0.00108158
-0.000427265
-0.000687775
-0.000668853
-0.00101782
0.00168383
0.00148586
-0.00050399
-0.00099495
0.000652484
-0.000152409
0.000490303
0.000423971
-0.000914548
0.00123913
0.000429695
0.00134298
-0.00213184
0.000577454
-0.00014489
-0.00148396
0.000279032
0.0012026
0.000323027
-0.000807147
0.000644619
0.00147529
0.00200635
-0.00118414
-0.00143882
0.00120788
0.00207726
-0.000634875
-0.00146232
0.000525377
-0.000505727
0.000971501
0.000722539
0.000112615
-0.000575283
0.00171029
-0.0011379
-0.000686031
0.000300644
0.000400323
0.000647983
0.00196268
-0.000798802
-0.00116686
0.00088892
-0.000493783
-9.5943e-05
0.00222362
-0.000595072
-2.18823e-05
8.66829e-05
-0.000101183
0.000486936
-0.000203521
0.00169821
5.96065e-05
-0.00176503
-0.000370075
0.000165021
0.000306268
0.000115611
-0.000421881
0.000520551
-0.000292358
-0.000228194
-0.00148279
0.000854211
0.000663752
-0.000171731
0.000200038
-2.09604e-05
-2.76961e-06
-0.000857795
3.18521e-05
0.000769539
3.84893e-05
-2.47627e-05
-0.000689347
-0.000143853
-1.54201e-06
9.33078e-06
-8.013e-06
-0.00213312
0.000669212
0.0014085
0.000557199
1.31915e-05
5.30937e-05
-0.0006095
0.000977362
-0.000367956
-0.00141864
-0.000810744
0.000201176
0.00138037
-0.000407719
-0.00100755
2.27649e-05
-9.53007e-06
-1.62793e-05
-2.46633e-05
4.23208e-05
-2.77029e-05
0.00108243
-0.000719035
0.000763395
-0.000421725
-0.000341706
0.00101056
-8.27741e-05
-0.000928165
-0.00141447
-2.19338e-05
3.37007e-07
5.21448e-05
-9.08413e-05
-0.000280933
0.000186936
4.41679e-05
0.00160974
-0.000373509
-0.00125727
0.000531907
0.000150034
-0.000681974
-0.000544216
-0.000454408
0.000998608
0.00137299
0.000683584
5.98658e-05
-4.9881e-05
-0.00186945
0.00135203
-0.000222704
0.00179928
-0.000682304
-0.000513714
0.00119579
0.000154798
-0.000340301
0.000185504
-0.00153018
0.000404906
0.000171322
-0.00057624
0.0012997
-0.00198081
0.000684601
0.00128357
-0.000415935
0.000759349
3.2904e-05
-0.000591601
-0.000911865
0.000968872
0.00201977
-0.00139367
0.00144591
-2.86512e-05
0.00103878
0.000528979
0.000462425
0.00134101
0.00209279
-1.22549e-05
1.00254e-05
0.00121177
-0.00110805
0.000230944
0.000148426
0.00118583
-0.00035129
-0.000854406
0.000314842
-0.0017952
0.00147233
-0.00135553
0.00203651
-0.000242676
-0.00053148
0.000665011
-0.0021674
0.000175777
-0.00040155
0.000806391
-0.000404823
0.000976269
-0.00048626
-0.000346559
0.000774405
-0.000512399
-6.91648e-06
3.47939e-05
0.00039691
0.000946993
0.000334576
0.000294142
2.60012e-05
0.000552537
-0.000481523
-0.00147339
0.00040907
-0.000102804
0.00088515
-0.000296099
-0.000614454
-0.00023617
5.49107e-05
6.32108e-05
3.78334e-05
-0.00128263
0.0019761
0.00034646
-0.000583948
0.000237469
0.000370537
-0.00180362
0.00142705
-0.000633016
0.00199203
-0.00137461
-0.000412788
0.000295118
0.00180493
-0.0013418
-0.00046818
2.1253e-05
-5.43472e-05
-0.000192756
0.000439466
-0.00024671
-0.00190324
-3.36027e-05
-0.000214277
-0.000163732
0.000378007
-7.76644e-05
0.00207905
-0.000727965
0.000345581
-0.000179262
-0.00016632
0.000304198
7.37396e-06
-0.000311572
0.000670935
4.19548e-05
0.00094617
0.00052541
0.000242919
0.000227419
-0.000470345
-0.00190301
0.000121439
0.000329481
-0.00119246
0.000590388
0.000601713
-0.000580407
-0.000732263
-0.00186971
0.000588931
0.0012757
0.000278529
-0.000361398
0.00128336
-0.000930962
-0.000343286
-0.000952821
0.00128479
0.000610604
-0.000289244
-0.000136171
7.77738e-05
-4.13767e-05
-0.00038178
-0.00160075
0.000958878
-0.000589274
-0.000405411
0.000212655
-0.000763751
0.00162486
-0.00086306
0.000566315
-0.000744017
0.00188739
-0.000292986
-0.000123781
0.000686333
-0.000121043
0.000110736
-0.000267824
9.02242e-05
-0.00156053
2.1867e-05
1.25198e-05
-0.00176614
0.00117334
0.000557037
-8.52886e-05
0.000346242
-0.000342032
-0.000368065
-1.31312e-05
-0.000472604
-7.28573e-05
8.90565e-05
-2.08508e-05
-0.00201537
0.000514872
0.00149753
-0.000574139
-0.00136688
0.000179009
0.000166572
-1.12943e-05
1.15498e-05
-6.49818e-06
0.000520757
0.00104122
-0.00157575
0.00076244
-0.000680044
-8.2578e-05
-0.00118722
0.000504676
-0.000963435
0.000145046
0.000816639
0.00030318
-0.00025721
-9.47127e-05
0.00226934
-0.000272528
0.00070381
-0.000298922
-0.00170179
0.00025175
-0.000534126
0.000282368
4.83223e-06
0.00120564
-0.000294248
-0.000579422
-0.000418075
-0.000711609
0.00112468
0.000268746
-0.000157038
0.00164765
0.000616669
0.00170899
-0.00041628
-0.00129756
-6.16919e-05
4.61325e-05
0.00110939
-0.00059511
0.00124052
-0.000645939
-0.00149881
8.56547e-05
0.00141158
0.00155258
0.000151309
0.000679519
-0.00110277
7.84908e-05
-0.000454318
-0.000995563
0.00150246
-0.000742916
0.000772071
-0.00046069
-0.000845236
0.00130507
0.000984337
-0.000491254
-0.000629729
0.00143741
0.000618153
0.000483664
-0.000664987
3.02333e-05
0.000634616
0.000466818
0.00195233
-0.00158828
0.000169446
-0.000788444
0.000618951
0.000625655
-0.000350319
0.00158324
-0.00218919
-0.000325365
0.000498696
-0.000173335
0.000573621
0.00138669
-0.000323626
-0.000369374
0.000692971
-0.00083859
0.000437063
0.000526243
-0.000325296
-0.000200954
0.000166824
-0.000795152
0.000625762
-0.000892985
0.00155081
-0.0006595
0.000632431
-0.00136827
0.00204737
0.000452965
-0.000221827
0.000198869
-0.000531157
0.00161054
-0.00110391
-3.16606e-05
-3.65966e-05
4.38439e-05
-0.00106131
0.000479014
-3.58093e-05
8.26178e-08
3.53656e-05
8.76681e-05
2.41996e-05
-0.000116454
0.000176803
0.000161729
-0.000338533
0.000623282
0.000236497
-0.00160229
-0.000317082
0.00188509
-0.000199147
-0.000249904
0.00039138
-0.000141475
-0.000502474
-1.24269e-05
-0.000175846
-0.000726274
-0.000904736
0.00107672
6.59092e-05
0.000238288
-1.01924e-05
0.000542071
0.000396564
0.000340851
-0.00197874
0.00150871
0.000459259
0.000273931
0.000313426
0.000905368
-0.000582912
0.000352665
0.000410687
0.00103183
-0.000592059
-0.000579496
0.00117714
-0.00155963
0.00193506
-0.000611896
-0.00165252
0.00025974
-0.000976033
0.00041926
0.000556374
0.000160002
-0.000201994
0.00118467
-0.00174739
0.00135342
-0.000211941
0.000424595
-0.000659808
0.000336159
-0.000205507
-0.000201991
-0.00141726
0.00177819
-0.000397269
0.000633965
-0.00132658
0.000691201
-0.000541936
0.000876585
-0.0015958
-0.0014152
0.00172233
0.000107657
0.000640783
-0.000748505
-7.32275e-05
-8.97109e-05
-0.000290905
0.000393769
-0.000102864
-1.65625e-05
9.97093e-05
-6.29375e-05
0.000825177
0.00113814
0.000205766
-0.00138473
0.000779823
-0.00115508
0.000374905
-0.000329446
-0.000706439
0.00133891
-0.00031633
0.00126253
-0.000434392
-0.000828809
-0.00146102
-0.000191345
-8.7773e-05
-5.29889e-05
-0.00092602
-0.00147993
0.000641987
-0.00186054
0.00121645
-0.000562997
0.00191781
-0.00136279
-0.000299138
4.92334e-05
0.000324098
8.7063e-05
0.000131298
0.000704974
-0.000815936
0.0020699
-0.00127345
-3.5796e-05
-0.000331645
-0.000255724
0.000373657
-0.000194648
-0.000636107
0.000800435
0.00219481
-0.00102191
-0.00193897
0.000702254
0.00121075
-0.00037479
0.000160512
-0.000289969
7.05362e-05
0.00182698
3.93733e-05
-0.000383725
0.00018395
0.000199775
-0.0010037
-0.000456837
0.00142298
0.00191562
-0.00123847
-0.000683796
-0.000488876
0.000536027
-0.00143489
0.000385195
-0.000866538
0.000481331
0.00138051
0.000610737
-0.00201339
-0.000140749
-4.20095e-05
0.00157112
-0.000845771
-0.00072514
-0.000393249
0.0002367
0.000399956
-0.00087346
0.000429573
0.00127455
0.000437648
-0.00187737
0.00142599
0.000824243
-0.000694174
-0.000200371
-0.00023309
0.00043346
-0.000822607
0.000157456
1.52268e-05
-9.30288e-05
-0.00133771
0.000443164
-0.000252124
-0.000534389
0.000741273
-7.67773e-05
-0.000154389
-0.000577423
3.62964e-05
4.93347e-05
-2.08236e-05
0.000492197
0.000555924
-0.00104824
-0.0012366
0.00124049
0.000184312
-0.00181775
-0.00150323
-0.000699478
0.00160972
-0.000100599
-0.000281349
0.000381948
0.000328641
-0.000498273
0.001597
-0.000830235
0.000660074
-0.000490667
0.00135493
-0.000258928
-0.000839437
0.00148468
0.00167974
-0.00100222
0.000530189
-0.000828103
-0.00221417
0.000614166
0.00157472
-0.00168927
0.00184102
-0.000148491
0.00036382
-0.00021533
-0.00160822
0.000210779
-0.00104408
0.001015
0.000359268
-0.00181139
0.00137308
-4.50365e-05
-0.000300583
7.22101e-05
0.000228373
-0.000235076
9.30481e-05
0.00146734
-0.00071146
-0.00112956
-0.000370577
-0.000513983
2.59116e-05
0.00048804
0.000415856
-0.00118137
0.000648001
-0.00139508
0.00074547
-0.000287843
-0.00117957
0.001456
-0.000436778
0.00191254
-0.000804289
-0.00204617
0.000457067
0.00158762
0.000168464
0.000180618
-0.000349082
-0.00111376
-0.000208272
0.00132095
8.47476e-05
0.000512716
0.00169156
0.00055209
0.000709588
0.0005971
-0.000403257
0.000174758
8.6942e-05
-0.000733233
0.000855506
-0.000122228
-0.000935384
0.00129612
-0.00144643
0.000690585
-0.000400627
-0.000492313
0.000157745
0.000327765
-0.000177123
-0.000643325
-0.000369973
-0.00102325
-0.000500554
-0.000948276
0.000177488
-0.00116472
-4.00511e-05
1.87707e-05
2.05275e-05
0.000562682
0.00143956
0.000349502
0.000261076
0.000953272
-0.00144648
-0.000606358
0.000596133
0.000216181
-0.000416552
0.000811676
-0.00157447
0.000761524
0.000409699
0.000396706
0.000565785
0.000118437
-7.20676e-05
-0.000462679
3.31716e-05
0.00031022
-0.0017029
0.000483158
-0.000593549
-0.000345208
0.000938568
-0.00183242
0.00123406
0.000586
-0.00093983
-0.000205758
0.00112168
-0.00194022
0.00129246
3.39853e-05
-1.32755e-05
0.000197975
0.000484525
-0.00102873
-0.00130164
0.000282379
-0.000543569
0.000678528
-0.000265505
-0.000413053
-0.000191688
-0.00119438
0.00177272
-0.0012911
-0.000482555
0.00126616
-0.000714704
0.00137241
-0.000898772
0.000248606
0.00065011
-0.0015239
-0.000494778
0.00201353
0.000572797
0.000785867
-0.00135984
0.000430246
-0.000626878
0.00038872
0.000154874
-0.000833725
0.00136809
0.000177684
-0.000426292
0.000248608
-0.000385254
0.000421799
-6.74036e-05
0.000653051
-0.000463521
0.00110224
0.000520059
0.0013434
0.000456656
-1.47973e-05
-2.60726e-05
-0.000565035
-0.000310748
0.000850558
7.97053e-05
-0.00080273
0.000722911
-0.00132978
0.001901
-0.000534596
0.000344373
0.000820661
-0.00122979
0.00164487
-0.000461119
0.00147247
0.000578709
0.00112076
-0.00195438
0.000607038
0.00012145
0.000701071
0.00121439
-0.00181312
0.000598222
-0.000721926
0.000342557
0.000379312
-0.000953262
-0.000256354
0.0012092
3.30893e-05
-8.6637e-05
-0.00188742
0.000406622
0.00144759
-0.000749305
0.00172367
-0.000975922
0.00209054
-0.0019621
-0.00067855
0.00156112
-0.000886666
-0.000412972
-8.79115e-05
-0.00102675
-0.000584017
-0.00126027
-0.00143321
0.00185694
-0.00112268
0.000534774
0.000587958
-0.00111861
0.000157567
0.000199487
0.000215153
0.000223086
0.000307752
-0.000530865
0.00187363
-4.58049e-05
0.000385921
0.000256689
-0.000642677
-0.000175569
-0.000164945
6.0024e-05
-0.000301754
0.000234875
0.00218035
-0.00145707
-0.000742633
-0.000468154
0.000631865
-0.000164784
-0.00149665
0.000869124
0.000625036
5.78676e-05
-0.000471672
-2.93226e-05
-2.60467e-05
0.0011729
-0.000849776
-0.000593656
-0.000387674
2.21948e-05
-0.000155202
0.00012743
0.000321686
0.000829285
-0.000232688
-0.00158828
0.000456788
0.000715244
-0.00117332
0.000586697
-0.000240256
-0.00191054
0.000795164
0.00140034
-0.000479315
0.000308979
-0.000568218
-0.000408172
-0.000349855
0.000757896
-0.000408104
-0.00191533
0.000454413
0.000128619
0.000454011
0.000474214
-0.000928354
-0.000441437
0.000806263
-0.00036498
3.81643e-05
-0.000220968
0.000176467
5.07307e-05
-0.000818756
-0.000225217