/*--------------------------------*- C++ -*----------------------------------*\
| =========                 |                                                 |
| \\      /  F ield         | OpenFOAM: The Open Source CFD Toolbox           |
|  \\    /   O peration     | Version:  v2012                                 |
|   \\  /    A nd           | Website:  www.openfoam.com                      |
|    \\/     M anipulation  |                                                 |
\*---------------------------------------------------------------------------*/
FoamFile
{
    version     2.0;
    format      ascii;
    class       volScalarField;
    location    "50";
    object      ddt0(k);
}
// * * * * * * * * * * * * * * * * * * * * * * * * * * * * * * * * * * * * * //

dimensions      [0 2 -3 0 0 0 0];


internalField   nonuniform List<scalar> 
13851
(
1.46922e-08
2.76945e-08
2.57156e-08
-9.30368e-05
-4.98828e-08
-1.53521e-08
-1.14397e-07
-7.35504e-08
-6.86468e-05
6.93277e-09
9.98084e-08
-7.41005e-09
-6.21815e-08
-0.000844785
-2.15486e-07
-3.57274e-06
-0.000471525
-9.31984e-08
5.10831e-06
2.64353e-07
-1.66464e-07
-1.54505e-07
-0.00971173
-9.10649e-09
0.00816148
-9.58603e-07
-7.81043e-05
-0.00105205
0.00330226
-4.5716e-08
-0.000446497
-1.10763e-07
-1.29799e-06
-0.00131682
5.29505e-09
0.00394166
-3.92501e-09
0.00252555
0.000322902
8.44191e-08
-0.00103094
0.00415963
-0.000159548
3.03889e-05
0.0045348
2.20399e-08
-9.13588e-08
-3.56781e-06
-1.64562e-07
-6.27243e-08
0.000967289
-4.10147e-08
-3.56555e-06
-1.53735e-07
-0.000513804
7.5882e-08
-6.75843e-07
-0.00066885
-7.11689e-05
-0.000155561
-1.07284e-08
-5.5758e-05
6.16596e-09
-1.65281e-07
3.59035e-06
2.90432e-06
-2.52094e-07
2.18544e-06
4.30138e-08
-0.000294474
-0.000186165
-1.60725e-07
-1.01427e-07
-8.5426e-05
-2.02487e-07
-5.8694e-08
-0.000410472
-7.41158e-08
0.00663895
-8.77852e-08
2.21644e-08
-2.7918e-06
1.12513e-08
-0.000770206
-0.000368374
-0.000376925
-1.51602e-07
-0.000314027
-1.56191e-08
-0.00061651
-2.76805e-08
-1.06523e-07
0.000452729
-0.000366906
0.00142874
-1.26892e-05
-1.60985e-08
-3.38412e-06
0.00113002
1.02751e-07
-3.358e-06
3.67475e-07
9.67379e-08
-6.57106e-08
1.67536e-08
7.00486e-08
1.85261e-08
-0.000217258
-1.05081e-07
-9.46266e-08
-2.72373e-07
2.56716e-08
2.58963e-06
4.23608e-07
-3.35569e-06
-1.45043e-07
-4.47699e-08
-7.80658e-08
-8.8312e-05
-0.000321164
-7.45679e-06
-8.33473e-08
7.52961e-08
-0.000855694
3.37596e-07
4.02971e-06
-2.95868e-09
-1.67937e-07
-0.00101356
-3.52966e-07
-1.46774e-07
-4.63499e-08
0.00123023
-0.00132397
9.32734e-08
0.00125189
3.25322e-06
-0.000298645
1.55158e-07
-4.20874e-07
-2.84027e-06
7.45142e-08
-1.81361e-08
3.03692e-06
0.00224028
8.39847e-09
-7.36657e-08
-0.00039948
0.00082702
-9.12511e-09
-3.20879e-06
2.42209e-06
4.4814e-07
4.14557e-06
-1.99662e-08
-3.37925e-08
-2.01033e-08
0.000332048
-3.42878e-07
-4.39869e-08
-1.26702e-08
0.0036889
6.83244e-08
-3.63651e-06
-0.000831691
0.000814455
0.000595932
0.000964511
-2.17879e-07
-0.00289123
-1.58309e-08
-4.71966e-08
3.15914e-07
-3.98907e-08
0.00160274
-7.22941e-05
-4.61394e-06
-4.94927e-08
-1.9779e-07
-4.53244e-06
-1.69483e-08
1.48171e-05
-1.57846e-07
-3.70968e-07
-0.00025856
0.000961872
-1.51342e-06
4.11411e-08
-3.69614e-08
-1.5741e-08
0.000279622
-3.34336e-07
-0.00108117
-7.89908e-09
9.20205e-09
-3.50899e-06
-1.94258e-06
-2.63784e-09
-1.28993e-07
-1.08688e-06
3.59276e-06
0.000636509
-0.00074652
-2.31527e-07
0.000214191
0.000635682
3.07896e-08
-5.12843e-07
-0.00044087
-7.30135e-08
-3.70001e-06
7.47651e-08
1.39596e-06
-6.84559e-09
6.54904e-08
-9.98431e-08
-6.71685e-08
4.52086e-06
-4.44081e-08
-1.36338e-07
-4.67244e-08
5.15229e-07
-0.000719357
0.0014035
4.82741e-09
-5.49762e-07
-6.20926e-09
2.7153e-06
-1.13662e-08
4.74135e-08
0.000573941
1.13534e-08
-6.07169e-08
-2.64449e-09
-0.000522103
-5.04971e-08
0.00338716
-0.000585573
7.25371e-07
-7.46589e-09
0.000533686
-0.000554828
0.00509518
-3.66838e-06
-6.28803e-09
-2.97788e-06
2.59497e-06
-1.84848e-07
-7.13956e-06
-2.37177e-07
-0.000465747
1.25908e-06
-8.63022e-08
2.21669e-08
-3.47788e-06
0.00323886
0.00041604
-2.43644e-08
3.38663e-06
-1.50942e-08
-3.66346e-06
1.10643e-06
1.28216e-08
8.1832e-08
1.38924e-06
-1.04956e-07
1.00883e-06
-3.05766e-06
-0.000665292
1.46821e-08
-6.19459e-08
-2.26031e-08
-0.00105273
-0.000166005
-1.83199e-07
-8.48504e-08
1.65162e-06
1.99314e-06
-2.47293e-06
3.81148e-08
-0.00111815
0.000924291
2.93527e-08
-1.57132e-07
0.0268035
-3.22912e-09
-2.11644e-08
-2.2125e-06
4.99712e-08
-5.72291e-08
-1.25838e-08
-1.89786e-08
-6.35564e-08
-5.28465e-08
-1.70197e-08
-0.000215266
-1.744e-07
6.41389e-08
0.00320201
-0.000838161
-3.75167e-08
3.54856e-07
0.00110209
8.28212e-08
-3.83192e-08
-1.49061e-07
-0.000443488
-6.51042e-05
2.53484e-07
-5.14984e-08
-0.00305179
-1.18144e-08
3.70612e-07
0.00114049
-0.000377104
-4.43015e-08
-0.0536761
9.19414e-05
-0.00017
1.43469e-06
1.04374e-07
0.00141837
-0.000905904
-0.000975771
-1.25698e-07
-0.00033513
-0.000436835
-7.97265e-06
-1.66131e-06
3.33327e-08
3.43999e-07
-3.30645e-08
-0.000283012
-1.92157e-06
-8.42564e-08
-9.17502e-08
-1.59741e-07
-0.000161927
7.49638e-06
-1.64284e-09
0.00130497
-1.54475e-08
-4.93692e-08
-5.55324e-08
-0.000194847
6.8714e-07
-3.59236e-06
-7.89267e-08
-7.03105e-08
0.00362479
-3.42871e-08
3.46309e-06
2.4299e-08
-1.34437e-07
2.38908e-09
-1.62194e-08
6.74611e-08
-1.49318e-07
-1.01868e-06
9.43768e-07
0.000682708
0.00418223
4.33936e-09
-0.000385398
2.73747e-07
-7.24866e-08
-0.000927362
-2.00926e-07
0.00111845
-1.68891e-07
-6.71354e-07
-1.15299e-05
-0.00101946
-1.48371e-07
-0.000247128
-1.59339e-07
9.57465e-05
-0.000144124
2.82044e-08
-0.000295736
4.06886e-08
-0.000927116
-1.44778e-07
-1.05653e-07
1.40137e-06
2.35792e-06
-3.81957e-08
2.11523e-08
-3.61209e-08
-1.97567e-07
1.78833e-08
-2.38313e-07
-0.00316306
-8.47138e-08
-5.0322e-07
-1.83142e-05
-7.81729e-08
-0.0055045
-3.95505e-07
0.000106242
-6.3914e-08
-7.93969e-07
0.0001413
1.04836e-06
9.10534e-08
0.000291615
-0.000223943
-0.000126768
-1.09503e-07
-3.82587e-07
5.04493e-08
-6.9617e-07
-7.43833e-08
-0.000248503
-0.0061543
0.000958177
-5.8124e-08
1.44727e-06
-1.26556e-05
-0.000104698
-5.73557e-08
-0.000322279
7.08963e-06
-0.00843843
-2.85864e-07
-0.00338125
-7.30691e-08
-4.11679e-08
-0.000545276
1.31774e-05
-1.75003e-09
1.95085e-08
-5.11355e-07
-4.91693e-08
-0.00820769
3.13918e-07
-2.43339e-07
-3.98395e-08
-1.62237e-07
-1.84655e-08
-0.000686533
5.92888e-08
-1.75639e-08
0.00999496
-0.00421591
-1.33022e-07
-9.76281e-06
6.87572e-09
-2.09402e-08
-7.75652e-08
1.06512e-06
-2.76939e-07
3.51709e-08
-7.01952e-08
-8.81314e-07
3.09702e-08
-0.00121217
-1.19793e-08
-1.16097e-07
0.00438795
-9.52278e-08
-8.82831e-08
-2.25267e-08
-2.62682e-08
8.0977e-09
-8.89275e-06
0.0108828
-1.04972e-08
0.000144506
-5.97725e-08
8.37575e-09
-0.00149411
-6.66113e-05
-9.09136e-10
-5.19227e-08
-0.000947202
1.4644e-07
-0.0745454
-7.52424e-08
-2.0752e-08
-2.67679e-07
-2.39785e-07
-0.000975851
-2.70758e-05
1.53233e-05
6.74725e-08
1.69724e-06
-9.67635e-08
0.00294403
-3.90811e-07
-1.957e-06
4.59332e-08
-7.22259e-08
-1.7151e-07
2.39832e-07
-4.66826e-08
-0.00027674
-0.00143249
-0.00137368
-7.97307e-05
0.0104148
-6.73387e-05
1.36655e-06
2.2961e-09
-1.20902e-08
-0.00210218
9.19599e-09
1.03152e-08
6.8306e-08
0.00160296
3.4406e-08
6.57168e-08
-8.17381e-07
1.63381e-07
2.23603e-10
0.00754439
-4.43107e-08
-0.00123532
-2.54033e-05
-8.91392e-08
1.72509e-08
-2.44144e-06
-0.00085636
-5.1082e-08
-0.00104362
-0.0101157
-3.69724e-08
-0.000360449
3.14239e-06
8.1739e-07
7.02633e-08
0.00918775
0.000585187
-3.58268e-08
6.62782e-06
6.39218e-08
-3.73814e-08
0.0100364
-0.000998059
1.21741e-07
-2.71311e-07
4.06125e-09
-8.02559e-07
-0.00113136
0.000855233
-4.13104e-08
-0.000414179
1.90491e-08
4.96811e-08
8.58675e-08
-1.30137e-07
-5.22634e-08
-4.8583e-08
-0.000429123
1.37996e-06
-0.000332164
3.0959e-08
-1.66105e-08
-0.000724858
-2.26929e-08
-7.91912e-07
-8.68815e-08
-2.07463e-07
1.61719e-08
0.00662739
0.000945042
7.32573e-09
-0.000273224
-3.23793e-08
4.64411e-07
0.00437739
-0.000324482
8.56166e-08
-9.63547e-08
-1.2213e-06
-0.00036595
8.42193e-06
-7.8028e-07
0.0252532
-1.35344e-07
-1.54723e-07
0.00127294
0.00719417
-1.32194e-06
-0.00126237
-5.77889e-06
0.00519346
-1.49433e-07
-0.000288121
-0.000211467
6.55859e-09
0.00026355
-0.00102505
-2.1092e-07
-4.10739e-07
4.40095e-08
-8.49882e-06
-2.81624e-07
-0.00120245
4.91211e-08
-3.01142e-08
3.77404e-08
1.96321e-07
-1.72254e-08
0.00144554
-3.13114e-08
-5.8977e-06
8.39271e-08
-8.28752e-07
-6.82333e-08
-2.07435e-09
-1.26037e-07
-0.000400806
1.60917e-07
0.00122869
-2.93301e-08
-4.1544e-08
-7.25019e-08
2.95878e-07
-7.87118e-08
9.90566e-07
3.30968e-08
5.23828e-08
-8.20201e-05
-1.68233e-08
0.000669213
-6.66335e-09
-1.69199e-06
-0.000316395
0.00229326
-2.36138e-06
-0.00219998
-7.78015e-07
-2.7946e-06
-0.000347232
-2.9247e-08
0.00562219
-3.23656e-08
3.05752e-08
-9.43758e-05
0.000297162
-7.54887e-08
9.49947e-07
-3.34115e-09
0.00387946
0.000715867
-1.46415e-08
-1.41146e-06
-0.0100405
-6.48481e-09
-6.03166e-09
-8.74285e-07
0.000647996
0.00756349
-3.66964e-08
1.24511e-06
2.4317e-08
-4.7236e-09
-2.36851e-05
1.44047e-06
-3.60391e-07
-5.93888e-08
-3.12081e-06
3.65061e-07
-5.88695e-07
1.88406e-08
1.94063e-08
-1.94331e-07
8.3373e-08
-3.26278e-06
-1.81472e-07
-1.23129e-07
4.9181e-07
-0.00291034
5.44705e-06
0.00226377
-0.0017018
-3.36732e-06
-0.000731616
-1.49973e-07
0.0112062
7.58168e-07
-9.62325e-08
-1.30983e-07
6.75749e-06
-1.6978e-07
-8.29434e-08
-7.69884e-08
-1.89481e-06
-0.000360011
-1.12731e-07
-0.000259134
-4.62737e-08
0.00823598
8.28787e-07
0.00104623
7.73116e-07
-5.65951e-08
2.92569e-08
0.00104364
2.53436e-07
-1.8344e-07
9.36699e-05
-1.47509e-07
0.000211091
-1.78341e-06
-5.22216e-06
3.32217e-08
-8.59952e-06
-7.93007e-08
-5.67482e-09
2.92647e-08
-7.67288e-09
0.00421636
-6.21656e-08
-4.0754e-05
-0.000874716
7.51563e-07
0.00110434
0.00113999
-5.59642e-06
-3.95723e-06
-4.70328e-07
-9.46992e-10
-6.23893e-08
-7.12525e-08
-7.34158e-08
-3.3851e-08
4.17452e-07
3.09513e-06
-6.56081e-08
-0.000506178
-4.9488e-08
-0.000281958
3.09091e-10
-9.38627e-05
1.454e-08
-2.16477e-09
-3.5644e-09
0.00173092
-2.38823e-08
0.00632377
-0.000859502
-3.97942e-07
-2.80078e-07
-2.72936e-08
-0.00131809
3.05286e-08
3.17746e-08
-1.87863e-05
-3.69697e-09
6.78737e-08
-4.74586e-08
-4.53065e-07
-0.000380346
-6.51385e-08
4.56099e-08
-3.70542e-06
0.000748865
-2.78222e-08
-2.64814e-09
0.00537039
-7.50546e-08
0.00508555
-2.25847e-08
3.1744e-08
0.00561935
-1.89535e-06
-3.01235e-06
-4.33915e-08
1.09182e-07
-3.42417e-09
3.00183e-10
5.70693e-07
-1.55339e-07
1.0531e-10
-1.43851e-07
1.27689e-05
-4.35656e-08
7.21185e-06
0.000544792
0.0063115
6.77308e-08
-0.000909999
-2.79393e-07
-3.14021e-09
-1.01811e-07
-4.40155e-08
2.45792e-08
0.003023
0.00405233
0.00619662
0.00639202
-5.42523e-08
-4.90331e-09
-8.09297e-08
4.5634e-08
-2.87036e-08
-0.0122415
-4.70053e-06
-0.000311962
-1.80456e-06
-1.86902e-06
-1.11184e-08
-4.63285e-08
0.00208925
-1.53266e-07
3.3082e-08
-3.53814e-09
-3.36342e-06
1.22436e-06
-0.000396971
-1.92721e-08
-2.61553e-08
-0.000461828
1.54166e-08
3.22599e-08
-5.20654e-08
0.0016051
-9.94952e-08
-0.000328576
1.76872e-08
3.92769e-07
-8.84722e-08
1.02451e-07
4.25868e-08
-9.76386e-08
6.26158e-09
-3.9931e-08
4.17891e-05
3.01338e-08
0.000469872
-1.37537e-07
-0.00740493
-0.0015974
-1.06181e-08
-5.63364e-08
-3.49315e-05
0.00974863
1.30635e-08
-1.89107e-06
-5.91098e-08
-4.06379e-05
-1.01951e-07
5.81182e-06
1.39282e-08
-3.97842e-08
0.00653112
1.33429e-09
-1.79431e-08
-1.59552e-07
-0.000564461
1.55678e-05
-0.00899598
-2.31274e-08
-0.000762678
1.70533e-08
-4.17927e-08
-2.62587e-08
-9.24588e-08
-8.00311e-09
-0.00660912
0.00181715
-4.97093e-08
-3.21126e-08
9.68015e-08
2.59419e-08
-3.06857e-05
-1.7156e-07
-0.000692768
0.00135632
4.61249e-09
-3.28259e-06
9.59734e-09
-1.12698e-07
-4.89311e-07
-2.84453e-08
-1.56275e-08
-0.000983144
0.000720312
-3.19864e-07
-0.00027925
-8.87506e-07
-1.06689e-09
1.81966e-07
-1.96289e-06
-0.000309542
-5.35008e-08
0.00253023
6.26015e-09
-1.58423e-08
0.000828947
0.00148713
-0.000114175
0.000989489
0.00925848
6.37247e-08
-3.20113e-06
-1.30358e-08
0.0083809
-1.77649e-07
-8.2198e-08
-0.00814431
-2.33719e-08
-5.08494e-08
8.99496e-08
5.83112e-09
0.00146116
5.29542e-06
-3.51918e-08
1.3331e-07
-0.000626053
-1.37747e-07
-0.00025799
6.73008e-08
-1.53844e-06
-0.000535659
-2.16282e-08
-3.64894e-05
-1.81648e-07
1.80377e-08
-4.9968e-05
-2.74976e-08
-2.5626e-06
-6.78618e-07
-0.000925111
-1.20731e-08
5.25029e-05
3.28727e-08
-0.000763191
0.000178101
-6.75974e-05
-4.26149e-07
-9.76713e-08
-4.26755e-08
-4.09652e-09
-1.00679e-07
-4.29464e-09
-0.000931669
-1.44689e-07
1.19126e-08
-1.21103e-07
6.49078e-08
-1.91956e-08
-1.31508e-07
-1.71857e-07
2.03696e-08
-1.71225e-07
0.00135001
-7.25875e-06
1.81415e-08
-1.51059e-07
-0.00851833
7.05443e-08
-0.000155945
-7.02142e-08
-3.92069e-08
2.79537e-08
4.10859e-09
-1.18705e-07
1.02562e-08
-3.69547e-08
-9.43028e-07
-2.99974e-08
3.6945e-06
-8.53991e-08
0.000197463
-4.35555e-05
2.58082e-06
5.81711e-06
-5.63565e-08
0.000969527
1.80622e-06
-1.25112e-08
-1.74267e-07
5.83567e-08
-0.00018109
5.82919e-08
-1.24246e-07
-0.000701268
-2.64127e-05
2.81348e-07
-1.31579e-07
0.00571312
-0.000722127
0.010887
-1.80138e-07
-3.96045e-08
-3.93322e-08
2.499e-07
-9.41924e-08
0.000586203
-3.1825e-07
-1.41275e-08
3.92636e-07
-3.16008e-06
-5.86874e-08
0.000889516
-0.000295768
-4.75399e-06
-1.45691e-07
0.00645922
3.92244e-07
-2.04343e-08
-0.000496055
-3.44323e-08
-7.61199e-08
-8.9842e-08
-1.72009e-07
-1.4764e-07
-0.000566005
-0.000797981
-3.49417e-07
0.000156706
-2.06682e-07
-6.48239e-08
-4.96654e-06
-6.96186e-08
-0.00073663
-3.57543e-08
-3.79058e-08
-1.13327e-08
-1.53054e-07
-0.00140301
0.000103358
-1.6801e-06
0.00100194
0.00278459
-4.27521e-08
-7.16574e-08
-9.94958e-08
-2.66141e-06
-3.67339e-08
-1.29048e-07
1.68268e-08
0.00731465
-4.38123e-06
-8.46049e-08
-5.15839e-08
4.7237e-08
1.25015e-06
-0.000164945
-3.68782e-08
-5.06869e-08
-3.64669e-08
-0.000322532
-1.47761e-07
-0.00101475
3.40665e-08
-2.60641e-08
-7.11763e-08
-7.5924e-08
-1.0864e-07
-4.86665e-06
0.00603065
0.00150542
-2.51689e-07
1.37968e-08
-0.00329022
6.91012e-09
-0.00470688
0.000451845
-2.05117e-08
-0.000346372
0.00391673
-0.000686944
-5.98195e-07
-5.96144e-08
-0.000855745
1.98101e-08
-7.45562e-08
-1.65167e-07
6.9669e-06
-1.46976e-07
0.000119051
-6.63231e-08
0.00411392
0.000385637
-6.89005e-08
7.58034e-08
-6.85942e-08
-5.63747e-06
-3.14167e-08
-3.05899e-08
-8.5447e-08
3.23041e-08
-4.61737e-08
-9.91013e-06
-1.31995e-08
0.00936178
-0.000348181
-8.03127e-08
-4.22784e-08
-1.77297e-07
2.72285e-09
0.00313444
-0.000251886
0.00119063
0.000728015
2.6476e-09
-1.47359e-07
-1.64733e-07
-8.17143e-09
2.4055e-06
-5.1267e-08
-4.62379e-09
-1.05554e-06
1.68133e-08
-0.00349271
-1.19608e-07
-0.000544443
2.64722e-08
-1.25091e-07
8.26433e-07
2.85745e-07
3.5839e-07
-1.14856e-07
-0.000248
-0.000469935
-0.0126398
-8.27166e-05
0.00347339
0.000343819
-0.000732602
-1.07417e-07
-1.60683e-08
-3.10708e-08
-1.07783e-05
-3.3823e-07
4.06284e-07
-0.000272476
-1.26886e-08
-8.51575e-08
4.47364e-09
-6.7825e-06
-7.39332e-08
5.94236e-10
-1.43915e-08
0.00768955
8.87834e-08
-4.66612e-08
1.05705e-08
7.59447e-09
-2.94242e-08
-3.16623e-08
-9.08401e-06
-6.85311e-08
-0.0116346
3.60723e-09
-6.63325e-08
-0.0011507
-0.00155585
-0.00038142
0.00704303
-2.81208e-07
0.00856233
-4.50248e-08
-1.97487e-07
-1.14801e-07
2.01633e-08
-6.15379e-08
-0.00035435
2.37877e-08
3.01057e-07
0.00136336
2.62857e-09
8.26223e-10
2.47936e-08
-5.14162e-06
-2.3456e-09
0.0079103
-2.98727e-08
-2.9388e-06
-7.1275e-10
-6.67901e-08
2.02299e-08
9.34581e-08
-6.31816e-08
-6.31836e-05
-0.000245648
-4.32154e-06
-0.00133352
-6.45712e-08
-0.000288967
0.000229423
2.34262e-08
-0.000675489
-1.84973e-08
1.49198e-06
-3.62493e-08
-3.94483e-08
-4.55657e-08
2.53636e-09
-2.5484e-09
5.22298e-08
-5.80397e-07
-1.37714e-07
9.48228e-09
3.71202e-06
-6.88686e-08
0.00201005
-4.15657e-09
1.90184e-08
-2.00543e-07
-0.00019452
-3.87288e-05
-1.58463e-08
-5.28237e-06
-5.57303e-08
-1.5029e-07
-6.20281e-08
0.00566694
-4.68069e-07
-3.81516e-09
-2.96212e-06
-6.92098e-07
-1.67275e-06
4.45798e-05
-7.17795e-08
2.41144e-06
-8.65376e-07
-9.50327e-07
9.29471e-08
-8.0294e-08
0.00622405
-3.11793e-05
-1.77893e-07
-2.19139e-08
-0.000219551
-3.91785e-08
-4.55432e-08
-6.17612e-08
-9.32367e-08
-0.000205925
-4.52082e-08
-0.000293885
-1.39926e-09
-2.43409e-08
-4.32457e-06
-7.94016e-08
9.30548e-07
0.000929518
5.2443e-08
0.00654235
-5.27994e-08
-6.43782e-09
2.3326e-06
-8.17246e-09
-7.73136e-09
-9.35111e-08
3.02777e-08
-4.41215e-07
1.98372e-07
-4.5755e-08
-1.20119e-07
-6.98565e-08
7.79201e-09
-9.97929e-09
2.33671e-08
0.00203956
-3.90477e-08
6.26801e-08
-2.08587e-05
-4.01036e-08
-2.721e-08
-0.00139191
-4.74582e-09
0.000351437
2.20608e-08
-0.000243846
2.12169e-06
-3.87717e-07
0.00122712
1.57694e-07
-1.04338e-05
-8.73118e-08
9.71542e-07
-1.59396e-07
-7.88243e-08
1.48315e-08
6.19922e-08
1.04783e-08
-9.26459e-09
-2.24919e-08
-6.32678e-08
-1.35501e-07
-0.00019839
0.000921016
0.00129859
-5.08301e-08
-2.12773e-06
0.000936413
0.000120402
-2.06142e-08
-6.98734e-09
-7.07154e-06
-5.55515e-08
-4.34207e-08
-0.0996325
0.00193472
-6.57007e-08
-4.02066e-07
3.26343e-08
-4.09235e-06
2.53846e-09
-4.66269e-08
-0.00591823
-8.76041e-09
-7.93314e-08
0.0017043
1.0766e-07
-4.97963e-06
-0.00128143
-1.93839e-06
3.77307e-08
-6.33672e-08
-6.51604e-08
-0.000264626
-0.000160798
-0.0130389
8.4397e-08
-1.13716e-08
0.000979982
-3.82759e-09
1.11566e-06
-3.91775e-07
-3.48819e-08
-7.00872e-08
1.52538e-08
-6.62334e-05
0.00340791
-1.66096e-08
-3.75042e-08
-3.59831e-07
-0.0334868
1.79353e-07
-6.92885e-07
-9.27242e-06
-2.02274e-07
-6.06595e-05
-9.30268e-07
-4.59582e-10
-2.44654e-07
-5.24279e-06
0.00941003
4.38834e-09
0.00161647
2.06971e-07
-6.57428e-07
-2.74228e-09
0.00158436
1.57475e-08
5.83519e-08
-1.7593e-08
-1.98261e-07
-1.66429e-07
3.0418e-07
-5.01256e-08
5.86008e-08
1.70565e-08
0.000377021
6.4105e-08
-1.51126e-08
2.18257e-08
-2.40816e-07
4.09533e-06
-2.43532e-08
-2.88483e-07
0.0622909
-8.8614e-08
0.00249273
-1.25295e-07
0.00111189
-2.85584e-06
-1.13803e-07
-9.83637e-05
-1.55051e-08
-1.53759e-07
-1.66604e-07
-2.49889e-08
1.14744e-06
-4.92923e-07
-1.57968e-07
-1.1697e-07
-4.27313e-09
-2.53174e-08
-7.80333e-08
1.09565e-06
2.33113e-08
-1.03359e-08
-9.31221e-05
-1.83337e-07
-9.85707e-08
-8.3061e-08
-0.000260506
-1.94797e-07
-5.09193e-08
3.15091e-08
3.34026e-08
-0.000410996
-1.74868e-07
-1.68708e-07
0.00510418
3.76209e-06
0.000110988
6.87027e-07
-3.79908e-05
-5.39844e-08
2.9531e-06
-1.29054e-07
-1.12558e-07
0.00618331
0.00287037
5.13823e-06
-0.000167392
-3.02806e-09
-0.000166361
-5.25398e-08
-1.89368e-06
-2.46315e-08
0.00900812
-0.00658113
-1.34871e-07
-4.9268e-08
3.48715e-06
4.39401e-07
-3.45632e-09
-0.000176346
5.02259e-09
6.01331e-08
2.04994e-08
-3.53153e-08
-7.27652e-08
2.7631e-08
-2.66973e-08
-1.51257e-07
-3.31019e-06
-1.67733e-07
7.13492e-08
-1.11216e-08
0.00111964
0.00341628
-4.97784e-08
-3.18707e-05
-1.96232e-08
2.87089e-09
-0.00886306
-4.31523e-08
9.54769e-08
-1.91701e-08
0.000875782
6.16529e-09
-2.38842e-08
1.00389e-07
0.0104455
-4.8934e-08
-8.05629e-08
3.76375e-08
0.000136205
1.41174e-07
7.69407e-08
-2.30914e-06
4.91903e-09
8.35981e-07
-6.43801e-08
-1.13584e-05
-1.13513e-07
6.1926e-09
-1.09866e-07
4.77529e-07
-2.80773e-08
-4.68345e-08
1.21451e-06
0.00925059
6.34104e-09
-0.000428287
-2.33433e-08
-6.97057e-08
2.9765e-07
-5.59236e-10
-3.78194e-08
-0.00217622
-3.61036e-11
-4.73738e-08
-4.13802e-06
-0.000190698
0.000115858
-3.93877e-08
3.16971e-09
4.95595e-08
-1.9114e-08
-9.69617e-08
4.01777e-09
0.00453593
-1.93813e-08
-3.12634e-05
-3.26241e-06
-8.09128e-08
-7.08523e-08
-1.16078e-08
-3.18561e-06
-1.48297e-05
-1.52089e-07
1.86531e-07
-4.47366e-08
4.20776e-05
-1.66586e-07
-1.46225e-07
-3.30899e-07
-8.61138e-09
8.9347e-07
-0.00137768
-1.6064e-07
0.000504915
-0.00832333
0.000198327
3.30693e-08
6.50806e-08
1.46551e-08
-3.26806e-07
-7.32967e-08
2.44238e-09
2.45815e-07
-1.31874e-08
-8.01047e-08
1.23527e-08
-6.4113e-08
1.62151e-09
-7.5116e-08
-0.000417265
-5.21206e-08
-0.00194968
-1.82579e-08
-9.54537e-07
-1.51579e-07
-2.66415e-06
-1.13466e-07
-9.3514e-08
0.00175015
8.91126e-08
-1.0426e-08
-2.20748e-07
-6.72688e-08
-6.56293e-08
-8.88079e-08
0.0072675
-1.16982e-07
1.11386e-07
2.39315e-06
0.0023318
-1.32479e-07
-3.1514e-05
-5.14236e-05
-5.39802e-08
-6.20448e-08
-4.06524e-08
-2.10477e-07
4.50945e-07
0.00024783
-6.16695e-08
-0.000269495
9.73107e-08
2.69312e-06
-0.00114201
-9.80185e-08
0.00892014
-1.54173e-07
1.5582e-08
-3.63547e-08
0.00243668
-1.07694e-07
-3.47858e-08
-6.51471e-08
2.08216e-06
-1.63776e-07
8.19834e-09
-3.09552e-08
0.000528888
-3.05854e-09
-1.13968e-07
-0.00147143
-2.13961e-08
-1.13508e-07
-6.08632e-08
-1.57406e-07
0.00151728
-8.45525e-08
-7.46034e-08
-5.61368e-08
4.03573e-08
-9.34684e-08
-8.04105e-08
-9.0695e-07
-0.00155943
-1.08406e-07
4.83872e-09
-0.0136989
-1.94363e-08
-0.000288958
-1.0361e-07
0.000880455
-1.64128e-08
2.51193e-08
-5.10078e-08
0.000155938
-0.00132552
1.50001e-07
6.74241e-08
-2.22348e-07
3.9172e-08
1.24668e-09
0.00769819
-3.58926e-08
-1.8099e-06
-1.19334e-07
-1.63939e-07
-1.48582e-08
-0.0125273
-4.96508e-08
-4.3933e-07
-7.85171e-08
1.38508e-06
-0.000378185
-6.64318e-08
-1.85342e-07
0.000348589
-9.67323e-07
0.00720499
0.00733653
1.51265e-07
3.20756e-08
4.19495e-08
7.96395e-07
-0.000734511
-3.65212e-08
-1.86552e-07
5.65736e-09
6.76853e-08
0.000281129
-0.000290205
-5.33652e-07
1.78651e-06
-4.01035e-06
-1.50813e-07
-0.000343068
-7.42656e-08
-6.25162e-08
6.05197e-07
0.00466482
4.79668e-06
6.68698e-07
-0.00057421
-4.36463e-08
0.00225998
0.000149197
-0.00171039
-1.97452e-08
0.000152127
-0.00085391
-0.000153606
-0.000415764
-0.000946642
-1.98187e-06
-5.40831e-08
3.00779e-06
1.9326e-10
3.32507e-08
-6.53463e-05
-4.94471e-07
-7.75812e-08
-0.00027452
-2.36e-08
-3.79731e-07
-1.89413e-07
2.75021e-08
0.000376834
-1.27235e-08
-3.82786e-05
-3.91402e-07
1.1199e-07
-0.0106373
0.000277167
1.00974e-06
-5.7319e-09
3.78968e-09
5.22864e-07
6.15377e-08
-5.76848e-08
2.59994e-07
-3.94983e-07
7.11582e-07
-4.56749e-08
3.40624e-06
-3.65096e-08
-9.70713e-08
0.00874294
-9.36508e-05
4.07244e-09
-6.25083e-07
-0.000237044
-1.10965e-08
3.31867e-08
-0.00154445
-4.96833e-06
-1.81213e-07
-5.40236e-08
-1.85199e-09
6.24933e-09
-3.92886e-08
0.00482591
1.15664e-06
4.93646e-08
-1.70797e-08
-3.18269e-06
-1.67385e-07
-4.58673e-05
0.000922984
1.00178e-08
8.16764e-09
-1.72225e-07
-2.2605e-08
-9.52094e-08
5.44903e-09
-1.49882e-07
1.64555e-08
-8.14806e-08
-3.58903e-08
-3.93773e-08
-5.17238e-07
-0.000648796
-6.35054e-09
-0.00964582
-0.000403382
-6.70935e-08
2.25497e-06
1.35834e-06
1.50774e-08
9.3025e-08
-7.71285e-07
2.69931e-08
7.19805e-07
1.08425e-08
-1.59344e-07
-1.7416e-08
7.37032e-05
-1.33475e-07
0.00641427
8.4275e-08
-1.3938e-08
-3.25698e-09
-2.08495e-08
-1.09431e-07
-3.10838e-08
-9.88828e-07
0.000297589
-7.21117e-08
6.73692e-05
-0.000241036
-0.000435673
-4.07955e-08
-2.93587e-07
-6.1959e-06
-0.000574078
-0.000167435
1.24586e-09
5.29632e-08
3.36473e-07
-0.000419402
0.0062369
-6.03714e-08
-2.72286e-05
-1.55287e-08
-8.54187e-08
-1.43025e-07
-2.02848e-08
-1.1163e-08
-3.97671e-07
-4.8354e-09
2.00039e-06
-2.46901e-08
-0.0011058
-0.00475545
-0.00484629
0.00830919
-0.000335209
-5.1351e-08
-2.05314e-08
-0.00287287
-6.04135e-08
-6.55906e-08
-6.26486e-08
5.45805e-07
-0.00135223
0.000188487
2.20362e-08
-1.78706e-08
-1.20526e-07
-1.32797e-07
-0.00063913
-3.70049e-08
0.00760492
-0.00120565
-2.23683e-08
-4.81862e-09
-0.00020932
-1.60123e-06
-4.62046e-08
1.79518e-08
-0.00961453
0.000794536
-7.95801e-08
-2.83071e-06
-5.37875e-09
-0.00072055
-0.000804493
-9.61366e-08
0.000660769
-0.000296671
-0.0124774
-2.2799e-08
-3.45126e-08
-6.19547e-09
-4.97923e-09
-0.00149761
7.61678e-09
-2.02676e-05
-3.08911e-05
0.000492608
-1.35666e-07
1.56145e-07
1.15933e-05
2.03561e-07
-0.0030251
-0.00020514
-8.94434e-08
2.57738e-08
2.87303e-08
-3.67773e-06
0.00291883
-5.71447e-08
-0.000317405
-1.37087e-07
-3.81054e-07
8.77054e-08
-5.41297e-08
-1.74899e-06
-8.11321e-09
2.40701e-05
-2.08774e-08
2.86445e-08
-1.49692e-07
-2.00325e-06
3.06682e-08
-0.0015577
-0.00621811
-5.62841e-06
-1.78304e-06
-6.34627e-08
-1.94356e-08
-7.34838e-07
3.60989e-06
-0.00053766
-0.0016984
-2.89652e-08
0.00765238
7.0703e-07
0.00162479
-1.29065e-07
1.32188e-07
9.10838e-08
-1.24864e-07
-0.0123293
1.14142e-08
-1.68624e-08
0.000715714
-0.00121626
-0.000476947
-0.00120981
-1.36467e-07
-5.57349e-08
-7.32279e-08
-0.000887882
-1.17489e-07
0.00135106
-7.60588e-08
0.00176485
-4.52969e-08
-2.42787e-08
-1.72149e-10
-3.75326e-08
-8.54409e-08
4.11294e-08
0.000258842
-4.1061e-07
4.97463e-09
-1.10158e-07
0.000160567
2.35803e-05
-6.09893e-08
-0.000256369
-1.36076e-07
-2.08584e-07
-1.73574e-07
-7.60484e-08
2.72555e-07
-3.10166e-08
0.00351652
-4.74654e-07
-1.14017e-07
-1.09312e-08
-3.56121e-06
7.24311e-08
-7.57618e-08
-0.00900853
-2.71037e-05
1.07176e-06
-1.77991e-08
0.000151838
-1.43367e-08
4.74111e-07
-5.92541e-08
-4.38482e-07
0.000112918
-8.87224e-05
-9.02793e-08
-0.00126095
-6.2817e-08
9.35036e-08
-1.9827e-08
-0.00414249
-3.02855e-07
1.13033e-06
3.92791e-06
-1.22481e-08
0.0101756
2.26535e-07
-2.68993e-06
-5.70259e-06
-0.000731417
0.000379787
0.00130076
-5.3991e-05
-2.08881e-07
-3.90439e-08
7.09582e-09
-1.24084e-07
-6.42627e-08
-1.96133e-06
-1.46556e-07
1.2557e-08
-0.00036364
-8.65687e-08
-6.11665e-08
-3.43623e-07
1.41515e-06
2.32903e-08
-7.74418e-08
0.000807234
-1.18165e-07
-4.61396e-07
8.98838e-08
-0.000392728
-9.45649e-09
-0.00764712
5.84915e-07
3.68537e-08
-2.16152e-08
1.22011e-08
-3.93374e-05
1.06694e-05
3.60454e-07
5.32098e-08
-7.05549e-08
-0.000603693
-0.000263003
0.0033868
-7.78156e-08
3.47354e-07
9.52368e-05
-8.65258e-08
-2.50095e-08
4.18807e-08
-0.00129871
-6.05217e-07
-1.54398e-07
-1.25386e-07
-1.39911e-08
0.00357524
1.27957e-07
2.23914e-06
-1.07748e-07
1.79523e-09
-5.83707e-08
8.50604e-07
7.47668e-08
-6.90108e-08
0.00804468
-0.000279331
-0.000363255
0.0101447
-0.000696759
0.000456515
-0.00222046
2.34484e-08
-4.11196e-08
-0.00598441
0.00100961
0.00186647
4.65775e-08
-3.83701e-08
-8.40439e-09
-1.06083e-07
0.00550242
-0.00142823
-3.10468e-07
-2.51815e-08
-1.95208e-05
1.96213e-07
2.25696e-07
-0.000757428
-1.7976e-05
-5.04315e-05
-6.73228e-08
-0.00151385
0.00345273
6.11246e-06
-1.76098e-07
5.81031e-08
-2.48006e-08
-4.12244e-08
9.2313e-08
1.83942e-07
-1.27418e-07
-3.39747e-07
2.26726e-08
-2.81054e-08
4.08133e-06
-0.000267922
-8.08369e-08
-4.08953e-07
-0.000280066
-3.6523e-06
3.51126e-09
5.4989e-06
-4.4164e-06
-7.77014e-05
9.76365e-08
-1.33163e-07
2.61657e-08
-1.68654e-07
-1.11198e-07
-7.50518e-08
8.19717e-08
-1.11784e-07
-4.58358e-07
4.24322e-06
-1.24321e-08
-1.44754e-07
0.000129758
0.00693661
0.000951584
1.88001e-06
-2.78226e-06
-4.81383e-08
-3.3176e-09
3.10311e-08
-7.3977e-08
0.000265611
-1.39077e-08
-2.87603e-09
-6.04437e-08
0.00711905
-0.0164872
3.12841e-08
-7.60012e-07
-1.80295e-07
-1.03318e-07
-2.59839e-09
-3.79573e-07
-1.47474e-07
1.13869e-08
-0.000184442
2.22526e-08
0.000956505
-4.34196e-09
0.00157055
-6.55075e-08
-6.36666e-08
-2.38938e-08
-3.56254e-07
9.20432e-07
-5.78791e-08
-6.43095e-08
-4.25629e-08
1.62786e-07
0.0087255
0.000404417
0.00319899
-2.2965e-09
-4.18882e-05
4.11056e-09
-1.19285e-07
4.02297e-09
2.87574e-07
-1.81055e-08
0.000586619
-8.16249e-05
5.27958e-08
1.95822e-08
0.00740397
-4.17611e-08
-0.000590514
0.00103234
4.80968e-06
-7.12871e-08
1.59888e-06
0.0040856
4.9352e-05
-0.00109798
2.62184e-07
-6.64723e-08
1.84723e-08
-6.30467e-08
-0.00116707
-4.01439e-08
-7.20056e-08
8.63204e-05
0.00162027
-5.46643e-08
2.65966e-09
-0.000155216
1.27783e-07
-0.000929879
2.51252e-07
1.67701e-08
1.60669e-07
2.02634e-06
1.30519e-09
0.00692639
-1.14153e-07
0.000341693
-1.46343e-07
-2.76873e-09
2.6086e-08
-5.00662e-07
3.20151e-08
-1.06467e-07
-2.20303e-08
-4.90265e-09
4.62756e-07
-2.61447e-08
-1.20674e-07
2.95622e-10
-1.00619e-07
0.000128467
-4.03676e-07
7.81614e-08
3.8124e-08
3.22584e-07
-2.10714e-08
-8.86165e-07
2.05028e-08
4.96957e-08
-2.05157e-06
-1.31468e-07
2.09443e-07
2.67594e-07
-6.4873e-08
-7.46452e-07
-0.0010432
0.000897131
-7.35258e-08
-0.000394707
-0.000390104
-7.38155e-08
2.43316e-08
-2.79584e-06
-0.000793563
2.55248e-07
-0.000226632
8.42692e-08
-1.77501e-08
-1.7803e-06
-6.8049e-08
2.41012e-08
3.51915e-07
0.00373229
-4.98647e-06
-5.31463e-06
1.33873e-05
0.00959049
-0.000782719
-4.37845e-08
-0.000704607
-5.85757e-09
0.00255826
-0.000160873
1.55279e-09
-4.31675e-08
0.000652516
-3.91643e-08
1.60965e-08
2.27373e-05
0.00123614
1.34608e-06
-4.11726e-08
-0.000122997
-4.4294e-08
0.00797835
-0.000332633
-2.03903e-08
-0.00346283
0.000630362
0.000951743
0.000562051
-0.000148042
0.00038834
-4.36452e-08
3.99419e-08
3.22646e-07
-4.01745e-07
1.81765e-08
-7.51517e-06
1.1449e-08
8.65787e-05
2.00904e-05
-2.48021e-07
-5.90628e-06
0.000395802
3.6601e-06
-3.34057e-07
1.51438e-06
-0.000417721
1.44734e-05
2.76339e-09
-7.91439e-08
0.00506913
-1.20052e-07
-5.96605e-08
0.00132245
-1.11545e-07
0.00627975
-3.41559e-08
-0.00123899
-2.87845e-08
-1.07915e-07
0.00223725
7.32833e-09
-3.2829e-08
0.000422784
-0.00435063
0.000576437
-9.26111e-08
-2.0464e-07
9.19563e-08
-2.88877e-07
7.58596e-07
-3.37137e-07
-1.70671e-09
6.60919e-05
1.00614e-07
-1.86627e-07
7.83986e-05
4.55907e-08
-8.59218e-08
-5.91341e-07
5.47174e-07
-4.5681e-07
-1.11029e-07
1.96241e-07
-1.956e-08
2.79628e-07
-2.50014e-05
0.000128749
-5.98373e-08
5.88278e-08
-0.000274308
2.49129e-08
2.51303e-07
-1.51519e-07
1.48056e-07
-0.0065042
-5.22047e-08
3.81599e-08
-0.00481996
-5.94165e-08
0.00760857
-2.36315e-08
-4.89788e-08
-6.02524e-07
0.00392855
-1.66987e-07
6.27175e-06
-2.73739e-06
-1.31408e-07
-1.34332e-07
7.77334e-07
1.99098e-07
-7.6099e-05
3.02108e-08
-0.0229146
1.36201e-06
-1.47492e-07
2.56985e-08
-7.2645e-08
-3.83671e-08
-3.23204e-07
-2.01951e-07
-4.94115e-08
-1.58323e-07
-1.44259e-08
0.00149043
-1.0785e-07
-3.92767e-08
-9.07189e-08
-2.67834e-06
-1.04873e-09
-3.29105e-07
-0.000898158
1.06985e-08
3.69174e-06
-7.03162e-08
-4.70733e-08
-2.57544e-08
-1.01209e-09
-1.00029e-07
-7.45618e-08
-1.86639e-06
0.00096696
-6.15129e-07
-5.74636e-08
-2.05756e-08
-1.87529e-08
-6.52604e-05
-3.17443e-08
0.00433477
-0.0108029
-0.000366749
-4.28315e-06
-1.14565e-07
-7.1852e-08
-2.21013e-08
-5.54552e-08
2.11044e-06
-1.00289e-09
0.000674533
-7.20277e-07
-0.000217402
-3.55447e-06
-1.67236e-08