/*--------------------------------*- C++ -*----------------------------------*\
| =========                 |                                                 |
| \\      /  F ield         | OpenFOAM: The Open Source CFD Toolbox           |
|  \\    /   O peration     | Version:  v2012                                 |
|   \\  /    A nd           | Website:  www.openfoam.com                      |
|    \\/     M anipulation  |                                                 |
\*---------------------------------------------------------------------------*/
FoamFile
{
    version     2.0;
    format      ascii;
    class       pointVectorField;
    location    "400";
    object      pointDisplacement;
}
// * * * * * * * * * * * * * * * * * * * * * * * * * * * * * * * * * * * * * //

dimensions      [0 1 0 0 0 0 0];


internalField   nonuniform List<vector> 
14386
(
(0 0 0)
(0 0.0692801 0)
(0 0 0)
(0 0.0692801 0)
(0 0 0)
(0 0 0)
(0 0 0)
(0 0 0)
(0 0 0)
(0 0 0)
(0 0 0)
(0 0 0)
(0 0 0)
(0 0 0)
(0 0 0)
(0 0 0)
(0 0 0)
(0 0 0)
(0 0 0)
(0 0 0)
(0 0 0)
(0 0 0)
(0 0 0)
(0 0 0)
(0 0 0)
(0 0 0)
(0 0 0)
(0 0 0)
(0 0 0)
(0 0 0)
(0 0 0)
(0 0 0)
(0 0 0)
(0 0 0)
(0 0 0)
(0 0 0)
(0 0 0)
(0 0 0)
(0 0 0)
(0 0 0)
(0 0 0)
(0 0 0)
(0 0 0)
(0 0 0)
(0 0 0)
(0 0 0)
(0 0 0)
(0 0 0)
(0 0 0)
(0 0 0)
(0 0 0)
(0 0 0)
(0 0 0)
(0 0 0)
(0 0 0)
(0 0 0)
(0 0 0)
(0 0 0)
(0 0 0)
(0 0 0)
(0 0 0)
(0 0 0)
(0 0 0)
(0 0 0)
(0 0 0)
(0 0 0)
(0 0 0)
(0 0 0)
(0 0 0)
(0 0 0)
(0 0 0)
(0 0 0)
(0 0 0)
(0 0 0)
(0 0 0)
(0 0 0)
(0 0 0)
(0 0 0)
(0 0 0)
(0 0 0)
(0 0 0)
(0 0 0)
(0 0 0)
(0 0 0)
(0 0 0)
(0 0 0)
(0 0 0)
(0 0 0)
(0 0 0)
(0 0 0)
(0 0 0)
(0 0 0)
(0 0 0)
(0 0 0)
(0 0 0)
(0 0 0)
(0 0 0)
(0 0 0)
(0 0 0)
(0 0 0)
(0 0 0)
(0 0 0)
(0 0 0)
(0 0 0)
(0 0 0)
(0 0 0)
(0 0 0)
(0 0 0)
(0 0 0)
(0 0 0)
(0 0 0)
(0 0 0)
(0 0 0)
(0 0 0)
(0 0 0)
(0 0 0)
(0 0 0)
(0 0 0)
(0 0 0)
(0 0 0)
(0 0 0)
(0 0 0)
(0 0 0)
(0 0 0)
(0 0 0)
(0 0 0)
(0 0 0)
(0 0 0)
(0 0 0)
(0 0 0)
(0 0 0)
(0 0 0)
(0 0 0)
(0 0.0692801 0)
(0 0.0692801 0)
(0 0.0692801 0)
(0 0.0692801 0)
(0 0.0692801 0)
(0 0.0692801 0)
(0 0.0692801 0)
(0 0.0692801 0)
(0 0.0692801 0)
(0 0.0692801 0)
(0 0.0692801 0)
(0 0.0692801 0)
(0 0.0692801 0)
(0 0.0692801 0)
(0 0.0692801 0)
(0 0.0692801 0)
(0 0.0692801 0)
(0 0.0692801 0)
(0 0.0692801 0)
(0 0.0692801 0)
(0 0.0692801 0)
(0 0.0692801 0)
(0 0.0692801 0)
(0 0.0692801 0)
(0 0.0692801 0)
(0 0.0692801 0)
(0 0.0692801 0)
(0 0.0692801 0)
(0 0.0692801 0)
(0 0 0)
(0 0 0)
(0 0 0)
(0 0 0)
(0 0 0)
(0 0 0)
(0 0 0)
(0 0 0)
(0 0 0)
(0 0 0)
(0 0 0)
(0 0 0)
(0 0 0)
(0 0 0)
(0 0 0)
(0 0 0)
(0 0 0)
(0 0 0)
(0 0 0)
(0 0 0)
(0 0 0)
(0 0 0)
(0 0 0)
(0 0 0)
(0 0 0)
(0 0 0)
(0 0 0)
(0 0 0)
(0 0 0)
(0 0 0)
(0 0 0)
(0 0 0)
(0 0 0)
(0 0 0)
(0 0 0)
(0 0 0)
(0 0 0)
(0 0 0)
(0 0 0)
(0 0 0)
(0 0 0)
(0 0 0)
(0 0 0)
(0 0 0)
(0 0 0)
(0 0 0)
(0 0 0)
(0 0 0)
(0 0 0)
(0 0 0)
(0 0 0)
(0 0 0)
(0 0 0)
(0 0 0)
(0 0 0)
(0 0 0)
(0 0 0)
(0 0 0)
(0 0 0)
(0 0 0)
(0 0 0)
(0 0 0)
(0 0 0)
(0 0 0)
(0 0 0)
(0 0 0)
(0 0 0)
(0 0 0)
(0 0 0)
(0 0 0)
(0 0 0)
(0 0 0)
(0 0 0)
(0 0 0)
(0 0 0)
(0 0 0)
(0 0 0)
(0 0 0)
(0 0 0)
(0 0 0)
(0 0 0)
(0 0 0)
(0 0 0)
(0 0 0)
(0 0 0)
(0 0 0)
(0 0 0)
(0 0 0)
(0 0 0)
(0 0 0)
(0 0 0)
(0 0 0)
(0 0 0)
(0 0 0)
(0 0 0)
(0 0 0)
(0 0 0)
(0 0 0)
(0 0 0)
(0 0 0)
(0 0 0)
(0 0 0)
(0 0 0)
(0 0 0)
(0 0 0)
(0 0 0)
(0 0 0)
(0 0 0)
(0 0 0)
(0 0 0)
(0 0 0)
(0 0 0)
(0 0 0)
(0 0 0)
(0 0 0)
(0 0 0)
(0 0 0)
(0 0 0)
(0 0 0)
(0 0 0)
(0 0 0)
(0 0 0)
(0 0 0)
(0 0 0)
(0 0 0)
(0 0 0)
(0 0 0)
(0 0 0)
(0 0 0)
(0 0.0692801 0)
(0 0.0692801 0)
(0 0.0692801 0)
(0 0.0692801 0)
(0 0.0692801 0)
(0 0.0692801 0)
(0 0.0692801 0)
(0 0.0692801 0)
(0 0.0692801 0)
(0 0.0692801 0)
(0 0.0692801 0)
(0 0.0692801 0)
(0 0.0692801 0)
(0 0.0692801 0)
(0 0.0692801 0)
(0 0.0692801 0)
(0 0.0692801 0)
(0 0.0692801 0)
(0 0.0692801 0)
(0 0.0692801 0)
(0 0.0692801 0)
(0 0.0692801 0)
(0 0.0692801 0)
(0 0.0692801 0)
(0 0.0692801 0)
(0 0.0692801 0)
(0 0.0692801 0)
(0 0.0692801 0)
(0 0.0692801 0)
(0 0.00235198 0)
(0 0.06928 0)
(0 0.0692801 0)
(0 0.06928 0)
(0 0.00295046 0)
(0 0.00131453 0)
(0 0.000954512 0)
(0 0.00170513 0)
(0 0.00379586 0)
(0 0.000679233 0)
(0 0.00412586 0)
(0 0.000473708 0)
(0 0.00441558 0)
(0 0.0049438 0)
(0 0.000463725 0)
(0 0.06928 0)
(0 0.000412715 0)
(0 0.000363054 0)
(0 0.000349688 0)
(0 0.000271595 0)
(0 0.000244163 0)
(0 0.00209001 0)
(0 0.00169033 0)
(0 0.00112044 0)
(0 0.06928 0)
(0 0.06928 0)
(0 0.000158121 0)
(0 0.000154825 0)
(0 0.00445975 0)
(0 0.00477064 0)
(0 0.0042993 0)
(0 0.00355235 0)
(0 0.00247488 0)
(0 0.000631608 0)
(0 0.000808188 0)
(0 0.000454633 0)
(0 0.000444808 0)
(0 0.000429088 0)
(0 0.0692799 0)
(0 0.000100964 0)
(0 8.26223e-05 0)
(0 0.00462837 0)
(0 0.00315837 0)
(0 0.0025325 0)
(0 0.00221745 0)
(0 0.00225416 0)
(0 0.00158109 0)
(0 0.00132175 0)
(0 0.001237 0)
(0 0.00107319 0)
(0 0.000202306 0)
(0 0.000443122 0)
(0 0.00075039 0)
(0 0.000514175 0)
(0 0.000206717 0)
(0 0.000246845 0)
(0 0.000325694 0)
(0 0.000641786 0)
(0 3.37571e-05 0)
(0 0.0650179 0)
(0 0.0645809 0)
(0 0.0648423 0)
(0 0.0643947 0)
(0 0.0646618 0)
(0 0.0650898 0)
(0 0.0649112 0)
(0 0.0644751 0)
(0 0.064728 0)
(0 0.0651433 0)
(0 0.0649637 0)
(0 0.064537 0)
(0 0.0647768 0)
(0 0.0643381 0)
(0 0.0645824 0)
(0 0.0649983 0)
(0 0.0648144 0)
(0 0.0643805 0)
(0 0.064617 0)
(0 0.0650835 0)
(0 0.0648335 0)
(0 0.0644035 0)
(0 0.0646209 0)
(0 0.0650221 0)
(0 0.0648203 0)
(0 0.0652001 0)
(0 0.0650045 0)
(0 0.0646129 0)
(0 0.0648024 0)
(0 0.065176 0)
(0 0.0649771 0)
(0 0.0653366 0)
(0 0.0651378 0)
(0 0.0654859 0)
(0 0.0652873 0)
(0 0.0649255 0)
(0 0.065077 0)
(0 0.0654286 0)
(0 0.0652196 0)
(0 0.0655624 0)
(0 0.0653513 0)
(0 0.0656915 0)
(0 0.0654711 0)
(0 0.0657959 0)
(0 0.0655787 0)
(0 0.0658782 0)
(0 0.0656789 0)
(0 0.0659556 0)
(0 0.0657576 0)
(0 0.0660289 0)
(0 0.0658165 0)
(0 0.0660964 0)
(0 0.065875 0)
(0 0.0661506 0)
(0 0.0659269 0)
(0 0.066194 0)
(0 0.0659671 0)
(0 0.0662282 0)
(0 0.0659958 0)
(0 0.0662548 0)
(0 0.0660126 0)
(0 0.066269 0)
(0 0.0660137 0)
(0 0.0662708 0)
(0 0.0660025 0)
(0 0.0662628 0)
(0 0.065985 0)
(0 0.0662438 0)
(0 0.0659643 0)
(0 0.0662169 0)
(0 0.065937 0)
(0 0.0661826 0)
(0 0.0658926 0)
(0 0.0661255 0)
(0 0.0658293 0)
(0 0.0660496 0)
(0 0.0657529 0)
(0 0.0659705 0)
(0 0.0656646 0)
(0 0.0658809 0)
(0 0.0655614 0)
(0 0.0657762 0)
(0 0.06545 0)
(0 0.0656603 0)
(0 0.0653268 0)
(0 0.0655232 0)
(0 0.0651895 0)
(0 0.0653692 0)
(0 0.0650305 0)
(0 0.0652073 0)
(0 0.064855 0)
(0 0.0650313 0)
(0 0.0646701 0)
(0 0.0648355 0)
(0 0.0644646 0)
(0 0.0642915 0)
(0 0.0640785 0)
(0 0.0653088 0)
(0 0.0656975 0)
(0 0.0655324 0)
(0 0.0647007 0)
(0 0.0638955 0)
(0 0.0636753 0)
(0 0.0646206 0)
(0 0.0634798 0)
(0 0.0632526 0)
(0 0.0630389 0)
(0 0.0627994 0)
(0 0.0625719 0)
(0 0.0623244 0)
(0 0.0620835 0)
(0 0.0618287 0)
(0 0.061574 0)
(0 0.0613115 0)
(0 0.0615579 0)
(0 0.0610288 0)
(0 0.0612633 0)
(0 0.0607234 0)
(0 0.0604837 0)
(0 0.0601664 0)
(0 0.0609422 0)
(0 0.059919 0)
(0 0.059588 0)
(0 0.0593292 0)
(0 0.0589865 0)
(0 0.0587104 0)
(0 0.0583617 0)
(0 0.0580611 0)
(0 0.0577147 0)
(0 0.0573948 0)
(0 0.0570453 0)
(0 0.0567112 0)
(0 0.0563556 0)
(0 0.0566758 0)
(0 0.0559805 0)
(0 0.056296 0)
(0 0.0555822 0)
(0 0.0558751 0)
(0 0.05516 0)
(0 0.0548693 0)
(0 0.054441 0)
(0 0.0541342 0)
(0 0.053701 0)
(0 0.0554254 0)
(0 0.0533822 0)
(0 0.0529453 0)
(0 0.0526128 0)
(0 0.0521738 0)
(0 0.0518244 0)
(0 0.0513835 0)
(0 0.0510183 0)
(0 0.0505779 0)
(0 0.0509206 0)
(0 0.0501113 0)
(0 0.0504298 0)
(0 0.0496213 0)
(0 0.0492901 0)
(0 0.0488006 0)
(0 0.0484484 0)
(0 0.0479202 0)
(0 0.0475996 0)
(0 0.0470962 0)
(0 0.0490762 0)
(0 0.0467549 0)
(0 0.0462738 0)
(0 0.0458939 0)
(0 0.0454187 0)
(0 0.0450241 0)
(0 0.0445524 0)
(0 0.0649837 0)
(0 0.044146 0)
(0 0.0436775 0)
(0 0.0440546 0)
(0 0.043182 0)
(0 0.0435265 0)
(0 0.0426604 0)
(0 0.0423076 0)
(0 0.0418002 0)
(0 0.0414312 0)
(0 0.0409385 0)
(0 0.0421266 0)
(0 0.04055 0)
(0 0.0400605 0)
(0 0.039661 0)
(0 0.0391701 0)
(0 0.0387682 0)
(0 0.0382835 0)
(0 0.0378749 0)
(0 0.0374002 0)
(0 0.036984 0)
(0 0.0365204 0)
(0 0.0369029 0)
(0 0.0360334 0)
(0 0.0363823 0)
(0 0.0355238 0)
(0 0.0351692 0)
(0 0.0346692 0)
(0 0.0349937 0)
(0 0.03415 0)
(0 0.033819 0)
(0 0.0333121 0)
(0 0.0329735 0)
(0 0.0324786 0)
(0 0.0321324 0)
(0 0.0316501 0)
(0 0.0319647 0)
(0 0.0311489 0)
(0 0.0308282 0)
(0 0.0303397 0)
(0 0.0300136 0)
(0 0.0295375 0)
(0 0.029206 0)
(0 0.0287426 0)
(0 0.0290433 0)
(0 0.0282613 0)
(0 0.0279551 0)
(0 0.0274868 0)
(0 0.0271756 0)
(0 0.02672 0)
(0 0.0264037 0)
(0 0.0259616 0)
(0 0.0262481 0)
(0 0.0255025 0)
(0 0.0252119 0)
(0 0.024766 0)
(0 0.0244716 0)
(0 0.0240384 0)
(0 0.0237401 0)
(0 0.0233191 0)
(0 0.0235902 0)
(0 0.0228816 0)
(0 0.0226084 0)
(0 0.022183 0)
(0 0.021906 0)
(0 0.0214939 0)
(0 0.0647585 0)
(0 0.0651113 0)
(0 0.0648807 0)
(0 0.0652267 0)
(0 0.0212134 0)
(0 0.0208165 0)
(0 0.0210681 0)
(0 0.020406 0)
(0 0.0201523 0)
(0 0.0206204 0)
(0 0.0199754 0)
(0 0.020143 0)
(0 0.0195265 0)
(0 0.0660857 0)
(0 0.057045 0)
(0 0.0374288 0)
(0 0.044592 0)
(0 0.0661693 0)
(0 0.0664091 0)
(0 0.0664748 0)
(0 0.0514345 0)
(0 0.0688578 0)
(0 0.0688967 0)
(0 0.0688445 0)
(0 0.0688842 0)
(0 0.0688303 0)
(0 0.0688706 0)
(0 0.0689205 0)
(0 0.0689069 0)
(0 0.0688564 0)
(0 0.0688933 0)
(0 0.0688414 0)
(0 0.0688789 0)
(0 0.0689504 0)
(0 0.0688248 0)
(0 0.068863 0)
(0 0.0688063 0)
(0 0.0688454 0)
(0 0.0687861 0)
(0 0.0688261 0)
(0 0.068882 0)
(0 0.0688635 0)
(0 0.0689158 0)
(0 0.068898 0)
(0 0.0689469 0)
(0 0.0689296 0)
(0 0.0688786 0)
(0 0.0689109 0)
(0 0.0689758 0)
(0 0.0688569 0)
(0 0.06889 0)
(0 0.0687435 0)
(0 0.0688324 0)
(0 0.0688661 0)
(0 0.0688047 0)
(0 0.0688394 0)
(0 0.0688976 0)
(0 0.0688709 0)
(0 0.0689254 0)
(0 0.0688991 0)
(0 0.0689498 0)
(0 0.0689241 0)
(0 0.0689718 0)
(0 0.0689464 0)
(0 0.0689925 0)
(0 0.0689666 0)
(0 0.0690119 0)
(0 0.0689856 0)
(0 0.0690288 0)
(0 0.0690013 0)
(0 0.0690416 0)
(0 0.069008 0)
(0 0.069052 0)
(0 0.0690232 0)
(0 0.069062 0)
(0 0.0690312 0)
(0 0.0690692 0)
(0 0.0690377 0)
(0 0.0690737 0)
(0 0.0690413 0)
(0 0.0690766 0)
(0 0.069044 0)
(0 0.0690777 0)
(0 0.0690451 0)
(0 0.0690768 0)
(0 0.0690428 0)
(0 0.0690736 0)
(0 0.069038 0)
(0 0.0690682 0)
(0 0.0690312 0)
(0 0.0690607 0)
(0 0.0690223 0)
(0 0.0690506 0)
(0 0.0690113 0)
(0 0.0690378 0)
(0 0.0689968 0)
(0 0.0690223 0)
(0 0.0689777 0)
(0 0.0690035 0)
(0 0.0689554 0)
(0 0.0689824 0)
(0 0.0689885 0)
(0 0.0690078 0)
(0 0.0689319 0)
(0 0.0689545 0)
(0 0.0689155 0)
(0 0.0690537 0)
(0 0.068774 0)
(0 0.0618186 0)
(0 0.0690476 0)
(0 0.0657333 0)
(0 0.0691012 0)
(0 0.0690956 0)
(0 0.0687364 0)
(0 0.068702 0)
(0 0.068661 0)
(0 0.0686242 0)
(0 0.0685772 0)
(0 0.0685378 0)
(0 0.068486 0)
(0 0.0684423 0)
(0 0.068388 0)
(0 0.0683384 0)
(0 0.0682843 0)
(0 0.0683931 0)
(0 0.0682832 0)
(0 0.0683402 0)
(0 0.0682237 0)
(0 0.0682816 0)
(0 0.068159 0)
(0 0.0682166 0)
(0 0.0561178 0)
(0 0.0556594 0)
(0 0.0680885 0)
(0 0.0681453 0)
(0 0.0680268 0)
(0 0.069107 0)
(0 0.0665013 0)
(0 0.0656716 0)
(0 0.0658809 0)
(0 0.0649651 0)
(0 0.0325953 0)
(0 0.0215975 0)
(0 0.0188876 0)
(0 0.0241457 0)
(0 0.0268295 0)
(0 0.034443 0)
(0 0.0285352 0)
(0 0.0257598 0)
(0 0.0401278 0)
(0 0.0563491 0)
(0 0.0566614 0)
(0 0.0559503 0)
(0 0.056237 0)
(0 0.0555118 0)
(0 0.0557698 0)
(0 0.0550139 0)
(0 0.0552602 0)
(0 0.0544947 0)
(0 0.0546961 0)
(0 0.0539082 0)
(0 0.0540747 0)
(0 0.0532364 0)
(0 0.0534327 0)
(0 0.052561 0)
(0 0.0527885 0)
(0 0.0518229 0)
(0 0.051897 0)
(0 0.0510167 0)
(0 0.051078 0)
(0 0.0501768 0)
(0 0.0502328 0)
(0 0.0493068 0)
(0 0.0511141 0)
(0 0.0502453 0)
(0 0.0511276 0)
(0 0.050216 0)
(0 0.0511172 0)
(0 0.0501663 0)
(0 0.0510601 0)
(0 0.0500626 0)
(0 0.0509604 0)
(0 0.0499178 0)
(0 0.0488828 0)
(0 0.0508297 0)
(0 0.0497337 0)
(0 0.050643 0)
(0 0.0494837 0)
(0 0.0504021 0)
(0 0.0492154 0)
(0 0.0501343 0)
(0 0.0489023 0)
(0 0.0498253 0)
(0 0.0485403 0)
(0 0.0494741 0)
(0 0.0475941 0)
(0 0.0513116 0)
(0 0.0481332 0)
(0 0.049071 0)
(0 0.0476739 0)
(0 0.0486168 0)
(0 0.0499821 0)
(0 0.0495312 0)
(0 0.0508533 0)
(0 0.050412 0)
(0 0.0490501 0)
(0 0.0499351 0)
(0 0.0516918 0)
(0 0.0485245 0)
(0 0.0494097 0)
(0 0.0479391 0)
(0 0.0488301 0)
(0 0.0472918 0)
(0 0.0481974 0)
(0 0.0497011 0)
(0 0.049079 0)
(0 0.0505414 0)
(0 0.049925 0)
(0 0.0484096 0)
(0 0.0492593 0)
(0 0.0513382 0)
(0 0.0476869 0)
(0 0.0485446 0)
(0 0.0519481 0)
(0 0.0492396 0)
(0 0.0483516 0)
(0 0.0483041 0)
(0 0.0473789 0)
(0 0.0468865 0)
(0 0.0477663 0)
(0 0.0473525 0)
(0 0.0463952 0)
(0 0.0463785 0)
(0 0.0454019 0)
(0 0.0453934 0)
(0 0.0443975 0)
(0 0.0443972 0)
(0 0.0433856 0)
(0 0.043343 0)
(0 0.0423155 0)
(0 0.042227 0)
(0 0.0411824 0)
(0 0.0410437 0)
(0 0.0399833 0)
(0 0.0401378 0)
(0 0.0389202 0)
(0 0.0390865 0)
(0 0.0378338 0)
(0 0.03803 0)
(0 0.0367566 0)
(0 0.0369772 0)
(0 0.0357006 0)
(0 0.0359238 0)
(0 0.0346403 0)
(0 0.0348723 0)
(0 0.0335834 0)
(0 0.0338235 0)
(0 0.0325345 0)
(0 0.0327791 0)
(0 0.0314928 0)
(0 0.031748 0)
(0 0.0397736 0)
(0 0.0304558 0)
(0 0.0307167 0)
(0 0.0294299 0)
(0 0.0296529 0)
(0 0.0284221 0)
(0 0.0286524 0)
(0 0.0354118 0)
(0 0.0274316 0)
(0 0.0276963 0)
(0 0.0264406 0)
(0 0.026739 0)
(0 0.0254703 0)
(0 0.0257663 0)
(0 0.0245086 0)
(0 0.0248117 0)
(0 0.0235644 0)
(0 0.0238721 0)
(0 0.031173 0)
(0 0.0226306 0)
(0 0.0229487 0)
(0 0.0241227 0)
(0 0.0232047 0)
(0 0.0220479 0)
(0 0.022307 0)
(0 0.0211627 0)
(0 0.0214273 0)
(0 0.0225238 0)
(0 0.0216515 0)
(0 0.0205675 0)
(0 0.0207974 0)
(0 0.0197255 0)
(0 0.0199588 0)
(0 0.0189004 0)
(0 0.0191371 0)
(0 0.0180925 0)
(0 0.018334 0)
(0 0.0193351 0)
(0 0.0185375 0)
(0 0.0175502 0)
(0 0.017759 0)
(0 0.0167862 0)
(0 0.0170004 0)
(0 0.0160431 0)
(0 0.0162617 0)
(0 0.0171775 0)
(0 0.0164414 0)
(0 0.0155434 0)
(0 0.0157255 0)
(0 0.0148443 0)
(0 0.01503 0)
(0 0.0141639 0)
(0 0.0143529 0)
(0 0.0151787 0)
(0 0.0145024 0)
(0 0.0136944 0)
(0 0.0138516 0)
(0 0.0130581 0)
(0 0.0132068 0)
(0 0.0139709 0)
(0 0.0133293 0)
(0 0.0124589 0)
(0 0.0127099 0)
(0 0.0134268 0)
(0 0.0128243 0)
(0 0.0121595 0)
(0 0.0122336 0)
(0 0.0128561 0)
(0 0.0122857 0)
(0 0.0116525 0)
(0 0.0117169 0)
(0 0.0123258 0)
(0 0.0117592 0)
(0 0.0123314 0)
(0 0.0117697 0)
(0 0.0111963 0)
(0 0.0112127 0)
(0 0.0117537 0)
(0 0.0112023 0)
(0 0.0117061 0)
(0 0.0111643 0)
(0 0.0106571 0)
(0 0.0106249 0)
(0 0.0111067 0)
(0 0.0105703 0)
(0 0.011031 0)
(0 0.0104926 0)
(0 0.0100372 0)
(0 0.00996007 0)
(0 0.0103946 0)
(0 0.0098665 0)
(0 0.00943463 0)
(0 0.0102775 0)
(0 0.00975332 0)
(0 0.0101417 0)
(0 0.00962325 0)
(0 0.00998778 0)
(0 0.00947121 0)
(0 0.00981515 0)
(0 0.00929502 0)
(0 0.00963319 0)
(0 0.00909555 0)
(0 0.0087674 0)
(0 0.00942437 0)
(0 0.00888652 0)
(0 0.00919228 0)
(0 0.00866882 0)
(0 0.00894955 0)
(0 0.00842624 0)
(0 0.00868795 0)
(0 0.00972458 0)
(0 0.0105151 0)
(0 0.00815886 0)
(0 0.00841147 0)
(0 0.00789943 0)
(0 0.0227025 0)
(0 0.0270934 0)
(0 0.00788454 0)
(0 0.00812545 0)
(0 0.00864824 0)
(0 0.00834807 0)
(0 0.0088703 0)
(0 0.0085556 0)
(0 0.0281414 0)
(0 0.00803727 0)
(0 0.00823074 0)
(0 0.0460133 0)
(0 0.0469173 0)
(0 0.0486273 0)
(0 0.0477915 0)
(0 0.0494464 0)
(0 0.0486263 0)
(0 0.0502257 0)
(0 0.0494208 0)
(0 0.0509851 0)
(0 0.0501768 0)
(0 0.0485487 0)
(0 0.0493178 0)
(0 0.0508645 0)
(0 0.0500839 0)
(0 0.0484144 0)
(0 0.0491893 0)
(0 0.0508329 0)
(0 0.049941 0)
(0 0.0482349 0)
(0 0.0490011 0)
(0 0.050666 0)
(0 0.0497415 0)
(0 0.0513619 0)
(0 0.050452 0)
(0 0.0487564 0)
(0 0.0494823 0)
(0 0.0511396 0)
(0 0.050189 0)
(0 0.0484511 0)
(0 0.0491803 0)
(0 0.0508745 0)
(0 0.0498827 0)
(0 0.051531 0)
(0 0.0505548 0)
(0 0.0488329 0)
(0 0.0495191 0)
(0 0.0512307 0)
(0 0.0501966 0)
(0 0.0484368 0)
(0 0.00771515 0)
(0 0.00789614 0)
(0 0.0339907 0)
(0 0.0450762 0)
(0 0.0441427 0)
(0 0.0231708 0)
(0 0.00907816 0)
(0 0.0554679 0)
(0 0.00738282 0)
(0 0.00755237 0)
(0 0.0178131 0)
(0 0.043104 0)
(0 0.0421484 0)
(0 0.00704131 0)
(0 0.00720043 0)
(0 0.00770956 0)
(0 0.00687086 0)
(0 0.0463725 0)
(0 0.0409986 0)
(0 0.0400142 0)
(0 0.0381857 0)
(0 0.0453503 0)
(0 0.0387569 0)
(0 0.03773 0)
(0 0.0308517 0)
(0 0.0139394 0)
(0 0.0173175 0)
(0 0.0472151 0)
(0 0.065143 0)
(0 0.067951 0)
(0 0.0678844 0)
(0 0.0656305 0)
(0 0.064111 0)
(0 0.0689908 0)
(0 0.069017 0)
(0 0.0690305 0)
(0 0.0690539 0)
(0 0.0690659 0)
(0 0.0690864 0)
(0 0.0690966 0)
(0 0.0691147 0)
(0 0.0691236 0)
(0 0.0691397 0)
(0 0.0691474 0)
(0 0.0691615 0)
(0 0.069168 0)
(0 0.0691803 0)
(0 0.0691859 0)
(0 0.0691968 0)
(0 0.0692015 0)
(0 0.0692111 0)
(0 0.0692149 0)
(0 0.0692058 0)
(0 0.0692184 0)
(0 0.0692097 0)
(0 0.0692212 0)
(0 0.0692133 0)
(0 0.0692241 0)
(0 0.0692166 0)
(0 0.0692272 0)
(0 0.0692196 0)
(0 0.0692298 0)
(0 0.0692222 0)
(0 0.0692321 0)
(0 0.0692245 0)
(0 0.0692341 0)
(0 0.0692267 0)
(0 0.0692359 0)
(0 0.0692233 0)
(0 0.0692199 0)
(0 0.0692407 0)
(0 0.0692309 0)
(0 0.0692281 0)
(0 0.0692376 0)
(0 0.0692346 0)
(0 0.0692435 0)
(0 0.0692403 0)
(0 0.0692488 0)
(0 0.0692461 0)
(0 0.0692512 0)
(0 0.0692556 0)
(0 0.0692575 0)
(0 0.0692369 0)
(0 0.0692433 0)
(0 0.0692612 0)
(0 0.0692627 0)
(0 0.0692337 0)
(0 0.0692401 0)
(0 0.0692658 0)
(0 0.0692668 0)
(0 0.0691331 0)
(0 0.0692086 0)
(0 0.0687866 0)
(0 0.0683303 0)
(0 0.068222 0)
(0 0.068269 0)
(0 0.0681519 0)
(0 0.0682017 0)
(0 0.0680826 0)
(0 0.0681272 0)
(0 0.068004 0)
(0 0.0680449 0)
(0 0.0679065 0)
(0 0.0679546 0)
(0 0.0678035 0)
(0 0.0678569 0)
(0 0.0678804 0)
(0 0.0676979 0)
(0 0.0677521 0)
(0 0.0675839 0)
(0 0.0676391 0)
(0 0.0678019 0)
(0 0.0676905 0)
(0 0.0692299 0)
(0 0.0692363 0)
(0 0.0692456 0)
(0 0.0692421 0)
(0 0.0692505 0)
(0 0.069247 0)
(0 0.0692548 0)
(0 0.0692512 0)
(0 0.0692584 0)
(0 0.0692548 0)
(0 0.0689904 0)
(0 0.0692694 0)
(0 0.0692702 0)
(0 0.0692678 0)
(0 0.0692709 0)
(0 0.0678469 0)
(0 0.0677381 0)
(0 0.0692423 0)
(0 0.0363792 0)
(0 0.0353276 0)
(0 0.0374164 0)
(0 0.0523479 0)
(0 0.0678904 0)
(0 0.0677823 0)
(0 0.0679335 0)
(0 0.0678238 0)
(0 0.0676615 0)
(0 0.067704 0)
(0 0.0675147 0)
(0 0.0678634 0)
(0 0.0677447 0)
(0 0.0679017 0)
(0 0.0677837 0)
(0 0.0692687 0)
(0 0.0692716 0)
(0 0.0692612 0)
(0 0.0692578 0)
(0 0.0692695 0)
(0 0.0692722 0)
(0 0.0692739 0)
(0 0.0692743 0)
(0 0.0692727 0)
(0 0.0692747 0)
(0 0.0692732 0)
(0 0.069275 0)
(0 0.0692736 0)
(0 0.0692754 0)
(0 0.069274 0)
(0 0.0692757 0)
(0 0.0692743 0)
(0 0.0692759 0)
(0 0.0692746 0)
(0 0.0692761 0)
(0 0.0692749 0)
(0 0.0692763 0)
(0 0.0692752 0)
(0 0.0692723 0)
(0 0.0691326 0)
(0 0.0675304 0)
(0 0.0675227 0)
(0 0.0408635 0)
(0 0.0395419 0)
(0 0.0517216 0)
(0 0.0692648 0)
(0 0.0682688 0)
(0 0.0681965 0)
(0 0.0683156 0)
(0 0.0682427 0)
(0 0.0681177 0)
(0 0.0681639 0)
(0 0.0682854 0)
(0 0.0682058 0)
(0 0.0683243 0)
(0 0.0682416 0)
(0 0.0683563 0)
(0 0.0682714 0)
(0 0.0683815 0)
(0 0.0682957 0)
(0 0.068402 0)
(0 0.0683144 0)
(0 0.0684174 0)
(0 0.068328 0)
(0 0.0682183 0)
(0 0.0682304 0)
(0 0.068337 0)
(0 0.0682375 0)
(0 0.0683419 0)
(0 0.0682395 0)
(0 0.0683419 0)
(0 0.0682357 0)
(0 0.0683357 0)
(0 0.0682254 0)
(0 0.0683232 0)
(0 0.0682092 0)
(0 0.0681044 0)
(0 0.0680844 0)
(0 0.0681881 0)
(0 0.0680572 0)
(0 0.068162 0)
(0 0.0680235 0)
(0 0.0681335 0)
(0 0.0679869 0)
(0 0.0680952 0)
(0 0.0679424 0)
(0 0.0680406 0)
(0 0.0678884 0)
(0 0.0679837 0)
(0 0.0678249 0)
(0 0.0679177 0)
(0 0.0677486 0)
(0 0.0681518 0)
(0 0.0679712 0)
(0 0.0676654 0)
(0 0.068114 0)
(0 0.0692252 0)
(0 0.0692634 0)
(0 0.0692603 0)
(0 0.0692537 0)
(0 0.0692562 0)
(0 0.0692624 0)
(0 0.0692582 0)
(0 0.0692641 0)
(0 0.0692598 0)
(0 0.0692652 0)
(0 0.069261 0)
(0 0.0692657 0)
(0 0.0692613 0)
(0 0.0692657 0)
(0 0.0692606 0)
(0 0.0692651 0)
(0 0.0692597 0)
(0 0.0692642 0)
(0 0.0692583 0)
(0 0.069263 0)
(0 0.0692563 0)
(0 0.0692618 0)
(0 0.0692539 0)
(0 0.0692534 0)
(0 0.0692476 0)
(0 0.0692554 0)
(0 0.0406369 0)
(0 0.0392808 0)
(0 0.040359 0)
(0 0.0389423 0)
(0 0.0400284 0)
(0 0.0385491 0)
(0 0.0374502 0)
(0 0.0369935 0)
(0 0.0358804 0)
(0 0.0353542 0)
(0 0.0342304 0)
(0 0.0336328 0)
(0 0.0325028 0)
(0 0.0347675 0)
(0 0.0329777 0)
(0 0.0341142 0)
(0 0.0322591 0)
(0 0.0333934 0)
(0 0.0314577 0)
(0 0.032595 0)
(0 0.0305634 0)
(0 0.0317148 0)
(0 0.0294228 0)
(0 0.0295932 0)
(0 0.0307542 0)
(0 0.0285408 0)
(0 0.0297115 0)
(0 0.0319166 0)
(0 0.0308817 0)
(0 0.0366801 0)
(0 0.0342227 0)
(0 0.0355731 0)
(0 0.0330492 0)
(0 0.0343448 0)
(0 0.0318715 0)
(0 0.0332041 0)
(0 0.0307128 0)
(0 0.0678023 0)
(0 0.06773 0)
(0 0.0692486 0)
(0 0.0349211 0)
(0 0.0359859 0)
(0 0.0680327 0)
(0 0.0677874 0)
(0 0.0285933 0)
(0 0.0675685 0)
(0 0.0345381 0)
(0 0.0330762 0)
(0 0.0365266 0)
(0 0.0369382 0)
(0 0.0360241 0)
(0 0.0363985 0)
(0 0.0354763 0)
(0 0.0358073 0)
(0 0.0348843 0)
(0 0.0351709 0)
(0 0.0342482 0)
(0 0.0360985 0)
(0 0.0344972 0)
(0 0.0335667 0)
(0 0.0337832 0)
(0 0.0328427 0)
(0 0.0326383 0)
(0 0.0319048 0)
(0 0.0317156 0)
(0 0.0309707 0)
(0 0.0307981 0)
(0 0.030035 0)
(0 0.0298849 0)
(0 0.0674789 0)
(0 0.0443627 0)
(0 0.0452714 0)
(0 0.0442928 0)
(0 0.0451587 0)
(0 0.0441876 0)
(0 0.0632622 0)
(0 0.0321736 0)
(0 0.029548 0)
(0 0.0291201 0)
(0 0.0289921 0)
(0 0.0692756 0)
(0 0.033351 0)
(0 0.0344483 0)
(0 0.0282377 0)
(0 0.0281002 0)
(0 0.0273601 0)
(0 0.0272169 0)
(0 0.0264913 0)
(0 0.0263658 0)
(0 0.0450134 0)
(0 0.0440466 0)
(0 0.0256348 0)
(0 0.0255127 0)
(0 0.0459393 0)
(0 0.0247818 0)
(0 0.0246622 0)
(0 0.0569375 0)
(0 0.0673743 0)
(0 0.0692771 0)
(0 0.0692765 0)
(0 0.0157918 0)
(0 0.0395401 0)
(0 0.0466147 0)
(0 0.0682647 0)
(0 0.0596872 0)
(0 0.0301434 0)
(0 0.0692714 0)
(0 0.0643988 0)
(0 0.0315881 0)
(0 0.0614744 0)
(0 0.0611344 0)
(0 0.0692717 0)
(0 0.069274 0)
(0 0.0676409 0)
(0 0.0675619 0)
(0 0.0692735 0)
(0 0.0270515 0)
(0 0.0616585 0)
(0 0.0684382 0)
(0 0.0330207 0)
(0 0.0339724 0)
(0 0.068046 0)
(0 0.0316653 0)
(0 0.0327861 0)
(0 0.0537059 0)
(0 0.0680312 0)
(0 0.0692679 0)
(0 0.0239397 0)
(0 0.0238263 0)
(0 0.0245165 0)
(0 0.0236982 0)
(0 0.0672777 0)
(0 0.0448399 0)
(0 0.0438668 0)
(0 0.0684632 0)
(0 0.0692754 0)
(0 0.069275 0)
(0 0.0671651 0)
(0 0.02965 0)
(0 0.0320416 0)
(0 0.0342235 0)
(0 0.0231166 0)
(0 0.022991 0)
(0 0.0228961 0)
(0 0.0236439 0)
(0 0.0227549 0)
(0 0.0220976 0)
(0 0.021965 0)
(0 0.0213185 0)
(0 0.0211952 0)
(0 0.0205595 0)
(0 0.0204395 0)
(0 0.0198161 0)
(0 0.0196987 0)
(0 0.0202868 0)
(0 0.0195552 0)
(0 0.0189722 0)
(0 0.0188376 0)
(0 0.0182609 0)
(0 0.0181349 0)
(0 0.0186808 0)
(0 0.017986 0)
(0 0.0185018 0)
(0 0.0178148 0)
(0 0.017305 0)
(0 0.0171413 0)
(0 0.0176203 0)
(0 0.0169561 0)
(0 0.0174053 0)
(0 0.01675 0)
(0 0.0171713 0)
(0 0.0165237 0)
(0 0.0161054 0)
(0 0.0158886 0)
(0 0.0162786 0)
(0 0.0156538 0)
(0 0.0160164 0)
(0 0.0154025 0)
(0 0.0157411 0)
(0 0.0151371 0)
(0 0.0154552 0)
(0 0.0148587 0)
(0 0.0151595 0)
(0 0.0145678 0)
(0 0.0148493 0)
(0 0.0142605 0)
(0 0.0145157 0)
(0 0.0139338 0)
(0 0.0141656 0)
(0 0.01359 0)
(0 0.013803 0)
(0 0.0132354 0)
(0 0.0134303 0)
(0 0.0128838 0)
(0 0.0130398 0)
(0 0.0124385 0)
(0 0.0136798 0)
(0 0.0147967 0)
(0 0.0126333 0)
(0 0.0692727 0)
(0 0.0154733 0)
(0 0.0686676 0)
(0 0.0692688 0)
(0 0.027968 0)
(0 0.0267692 0)
(0 0.0689928 0)
(0 0.0613039 0)
(0 0.060775 0)
(0 0.0298409 0)
(0 0.0310093 0)
(0 0.0286648 0)
(0 0.0331689 0)
(0 0.0341286 0)
(0 0.0296996 0)
(0 0.0681364 0)
(0 0.0473883 0)
(0 0.0338686 0)
(0 0.0322032 0)
(0 0.00443904 0)
(0 0.00392242 0)
(0 0.00428677 0)
(0 0.00376811 0)
(0 0.00412826 0)
(0 0.0692661 0)
(0 0.0687206 0)
(0 0.0686735 0)
(0 0.0166382 0)
(0 0.0139903 0)
(0 0.0541648 0)
(0 0.0225545 0)
(0 0.0692766 0)
(0 0.0692762 0)
(0 0.0692768 0)
(0 0.0674656 0)
(0 0.0673794 0)
(0 0.0430628 0)
(0 0.042875 0)
(0 0.0420704 0)
(0 0.0418998 0)
(0 0.0410751 0)
(0 0.0409169 0)
(0 0.0417545 0)
(0 0.0406742 0)
(0 0.0399257 0)
(0 0.0519033 0)
(0 0.0526663 0)
(0 0.0531674 0)
(0 0.0538993 0)
(0 0.0543565 0)
(0 0.0550412 0)
(0 0.0554574 0)
(0 0.0561006 0)
(0 0.0564617 0)
(0 0.0570842 0)
(0 0.0573946 0)
(0 0.0579965 0)
(0 0.0582642 0)
(0 0.0588435 0)
(0 0.0590884 0)
(0 0.0585763 0)
(0 0.0585088 0)
(0 0.0593055 0)
(0 0.0587219 0)
(0 0.0594978 0)
(0 0.0589052 0)
(0 0.0596701 0)
(0 0.0590606 0)
(0 0.0597998 0)
(0 0.0591945 0)
(0 0.0599002 0)
(0 0.0593164 0)
(0 0.0599937 0)
(0 0.0594078 0)
(0 0.0600611 0)
(0 0.0594664 0)
(0 0.0600944 0)
(0 0.0594956 0)
(0 0.0601088 0)
(0 0.0595045 0)
(0 0.0600557 0)
(0 0.0593884 0)
(0 0.0591282 0)
(0 0.060482 0)
(0 0.0600988 0)
(0 0.059495 0)
(0 0.0606827 0)
(0 0.059904 0)
(0 0.0596511 0)
(0 0.0606539 0)
(0 0.0612168 0)
(0 0.0603938 0)
(0 0.0601426 0)
(0 0.0611694 0)
(0 0.0588749 0)
(0 0.0588676 0)
(0 0.0587185 0)
(0 0.0593793 0)
(0 0.0598707 0)
(0 0.0608541 0)
(0 0.0610868 0)
(0 0.061709 0)
(0 0.0616442 0)
(0 0.0611028 0)
(0 0.0617579 0)
(0 0.0590776 0)
(0 0.0595735 0)
(0 0.05822 0)
(0 0.0582096 0)
(0 0.0622261 0)
(0 0.0622783 0)
(0 0.0615224 0)
(0 0.0617316 0)
(0 0.0627173 0)
(0 0.0627638 0)
(0 0.0587452 0)
(0 0.0592484 0)
(0 0.0600456 0)
(0 0.0597299 0)
(0 0.0589006 0)
(0 0.0593823 0)
(0 0.0605121 0)
(0 0.0585255 0)
(0 0.0590048 0)
(0 0.0615615 0)
(0 0.061018 0)
(0 0.0582582 0)
(0 0.0621504 0)
(0 0.062329 0)
(0 0.0581315 0)
(0 0.0586172 0)
(0 0.0594673 0)
(0 0.0590782 0)
(0 0.0598958 0)
(0 0.0594974 0)
(0 0.0603002 0)
(0 0.0599011 0)
(0 0.0590748 0)
(0 0.0594881 0)
(0 0.0603046 0)
(0 0.0598916 0)
(0 0.0590611 0)
(0 0.0594675 0)
(0 0.0602448 0)
(0 0.0598466 0)
(0 0.0590295 0)
(0 0.059436 0)
(0 0.0602251 0)
(0 0.0598407 0)
(0 0.0590238 0)
(0 0.0593985 0)
(0 0.0602993 0)
(0 0.0597381 0)
(0 0.0283484 0)
(0 0.0255596 0)
(0 0.0331169 0)
(0 0.031374 0)
(0 0.0692179 0)
(0 0.0692122 0)
(0 0.0520842 0)
(0 0.0320222 0)
(0 0.0302495 0)
(0 0.0309037 0)
(0 0.0291375 0)
(0 0.0284245 0)
(0 0.02731 0)
(0 0.0265172 0)
(0 0.0254044 0)
(0 0.0245278 0)
(0 0.0234211 0)
(0 0.0243064 0)
(0 0.0223307 0)
(0 0.0232209 0)
(0 0.0212474 0)
(0 0.0221525 0)
(0 0.0201884 0)
(0 0.0211072 0)
(0 0.0191577 0)
(0 0.0200864 0)
(0 0.0181513 0)
(0 0.0190841 0)
(0 0.022479 0)
(0 0.0171709 0)
(0 0.0181019 0)
(0 0.0162181 0)
(0 0.0171519 0)
(0 0.0152986 0)
(0 0.0162304 0)
(0 0.0192203 0)
(0 0.014404 0)
(0 0.0153312 0)
(0 0.0135332 0)
(0 0.0144558 0)
(0 0.0219605 0)
(0 0.0180113 0)
(0 0.0298306 0)
(0 0.0161738 0)
(0 0.0126873 0)
(0 0.0136055 0)
(0 0.0575424 0)
(0 0.0575296 0)
(0 0.0587372 0)
(0 0.0592162 0)
(0 0.00360782 0)
(0 0.00396244 0)
(0 0.0314364 0)
(0 0.00344161 0)
(0 0.00379026 0)
(0 0.0600747 0)
(0 0.0596065 0)
(0 0.0586968 0)
(0 0.0591138 0)
(0 0.0600053 0)
(0 0.0397327 0)
(0 0.0403759 0)
(0 0.0389433 0)
(0 0.0290905 0)
(0 0.0302756 0)
(0 0.033356 0)
(0 0.0314343 0)
(0 0.0343965 0)
(0 0.0325606 0)
(0 0.0294332 0)
(0 0.0306136 0)
(0 0.0336703 0)
(0 0.0317692 0)
(0 0.0347571 0)
(0 0.0328869 0)
(0 0.0297604 0)
(0 0.0309003 0)
(0 0.0339727 0)
(0 0.0320209 0)
(0 0.0674762 0)
(0 0.067286 0)
(0 0.044635 0)
(0 0.0163481 0)
(0 0.0350267 0)
(0 0.0331127 0)
(0 0.0299499 0)
(0 0.0310771 0)
(0 0.0341808 0)
(0 0.0321915 0)
(0 0.0396515 0)
(0 0.0670626 0)
(0 0.066942 0)
(0 0.067045 0)
(0 0.0093966 0)
(0 0.0680899 0)
(0 0.0153061 0)
(0 0.0144518 0)
(0 0.0127829 0)
(0 0.0136243 0)
(0 0.0119856 0)
(0 0.0128221 0)
(0 0.0112142 0)
(0 0.0120472 0)
(0 0.0135971 0)
(0 0.0128153 0)
(0 0.0113029 0)
(0 0.0120565 0)
(0 0.0105894 0)
(0 0.0113485 0)
(0 0.0135303 0)
(0 0.0099058 0)
(0 0.0106648 0)
(0 0.0154443 0)
(0 0.041117 0)
(0 0.0407487 0)
(0 0.027432 0)
(0 0.0581827 0)
(0 0.0574878 0)
(0 0.0581249 0)
(0 0.0482336 0)
(0 0.0345606 0)
(0 0.0194957 0)
(0 0.0436998 0)
(0 0.0546191 0)
(0 0.0506128 0)
(0 0.0510043 0)
(0 0.0501659 0)
(0 0.0505329 0)
(0 0.0574179 0)
(0 0.0580249 0)
(0 0.0673829 0)
(0 0.0671841 0)
(0 0.0672802 0)
(0 0.0631806 0)
(0 0.0632141 0)
(0 0.0631268 0)
(0 0.0577317 0)
(0 0.00924501 0)
(0 0.0099826 0)
(0 0.0113113 0)
(0 0.0106435 0)
(0 0.00932145 0)
(0 0.00998654 0)
(0 0.00868257 0)
(0 0.0093581 0)
(0 0.069234 0)
(0 0.0532523 0)
(0 0.0112409 0)
(0 0.00812534 0)
(0 0.00876881 0)
(0 0.061461 0)
(0 0.0559847 0)
(0 0.0692727 0)
(0 0.0032703 0)
(0 0.0036129 0)
(0 0.00412825 0)
(0 0.00394385 0)
(0 0.00445483 0)
(0 0.00426247 0)
(0 0.00375519 0)
(0 0.0040656 0)
(0 0.0045681 0)
(0 0.00436202 0)
(0 0.00386482 0)
(0 0.00415189 0)
(0 0.00366083 0)
(0 0.00393847 0)
(0 0.00442368 0)
(0 0.00419998 0)
(0 0.00467947 0)
(0 0.00444458 0)
(0 0.00397387 0)
(0 0.0042071 0)
(0 0.00467134 0)
(0 0.0044219 0)
(0 0.00396785 0)
(0 0.00417093 0)
(0 0.00461844 0)
(0 0.00435468 0)
(0 0.00479614 0)
(0 0.0045184 0)
(0 0.00495378 0)
(0 0.00466152 0)
(0 0.0042393 0)
(0 0.00436782 0)
(0 0.00478337 0)
(0 0.00447457 0)
(0 0.00407385 0)
(0 0.00416583 0)
(0 0.00455919 0)
(0 0.00423556 0)
(0 0.00462163 0)
(0 0.00428232 0)
(0 0.00466075 0)
(0 0.00391347 0)
(0 0.00430488 0)
(0 0.00467587 0)
(0 0.00430295 0)
(0 0.00466659 0)
(0 0.0042763 0)
(0 0.00463259 0)
(0 0.00393088 0)
(0 0.00422456 0)
(0 0.00457377 0)
(0 0.00500254 0)
(0 0.00493699 0)
(0 0.00448896 0)
(0 0.00484355 0)
(0 0.00531268 0)
(0 0.00521044 0)
(0 0.0047222 0)
(0 0.00508208 0)
(0 0.00501754 0)
(0 0.00559121 0)
(0 0.00545686 0)
(0 0.00372779 0)
(0 0.00492585 0)
(0 0.00529358 0)
(0 0.00584588 0)
(0 0.005676 0)
(0 0.0051013 0)
(0 0.00547716 0)
(0 0.00607329 0)
(0 0.00586828 0)
(0 0.00648584 0)
(0 0.00627493 0)
(0 0.00563254 0)
(0 0.00603245 0)
(0 0.00524369 0)
(0 0.00669826 0)
(0 0.00644937 0)
(0 0.00575697 0)
(0 0.00616646 0)
(0 0.00688264 0)
(0 0.00659289 0)
(0 0.00584915 0)
(0 0.00626854 0)
(0 0.00703671 0)
(0 0.00670551 0)
(0 0.00749805 0)
(0 0.00716013 0)
(0 0.00633746 0)
(0 0.00678433 0)
(0 0.00763263 0)
(0 0.00724897 0)
(0 0.00636967 0)
(0 0.00682561 0)
(0 0.00773161 0)
(0 0.00729767 0)
(0 0.00822864 0)
(0 0.00777987 0)
(0 0.0068246 0)
(0 0.00728789 0)
(0 0.00824835 0)
(0 0.033198 0)
(0 0.0353676 0)
(0 0.0362931 0)
(0 0.0374104 0)
(0 0.0382466 0)
(0 0.0575315 0)
(0 0.0690428 0)
(0 0.0634521 0)
(0 0.0692041 0)
(0 0.0691971 0)
(0 0.0250444 0)
(0 0.0496768 0)
(0 0.0500162 0)
(0 0.0332838 0)
(0 0.0675458 0)
(0 0.0673626 0)
(0 0.0674435 0)
(0 0.0178235 0)
(0 0.0627251 0)
(0 0.0628853 0)
(0 0.0625722 0)
(0 0.0692776 0)
(0 0.0692773 0)
(0 0.0240251 0)
(0 0.0609308 0)
(0 0.0456543 0)
(0 0.0446991 0)
(0 0.0568306 0)
(0 0.056793 0)
(0 0.0624927 0)
(0 0.0630287 0)
(0 0.0626397 0)
(0 0.0631519 0)
(0 0.062771 0)
(0 0.0632576 0)
(0 0.0365086 0)
(0 0.0628706 0)
(0 0.0633469 0)
(0 0.0629425 0)
(0 0.0634175 0)
(0 0.0686481 0)
(0 0.0685958 0)
(0 0.0686223 0)
(0 0.0668127 0)
(0 0.0669123 0)
(0 0.0134019 0)
(0 0.0586364 0)
(0 0.0670727 0)