/*--------------------------------*- C++ -*----------------------------------*\
| =========                 |                                                 |
| \\      /  F ield         | OpenFOAM: The Open Source CFD Toolbox           |
|  \\    /   O peration     | Version:  v2012                                 |
|   \\  /    A nd           | Website:  www.openfoam.com                      |
|    \\/     M anipulation  |                                                 |
\*---------------------------------------------------------------------------*/
FoamFile
{
    version     2.0;
    format      ascii;
    class       surfaceVectorField;
    location    "400";
    object      Uf_0;
}
// * * * * * * * * * * * * * * * * * * * * * * * * * * * * * * * * * * * * * //

dimensions      [0 1 -1 0 0 0 0];


internalField   nonuniform List<vector> 
20642
(
(0.436304 0.0087212 6.24114e-22)
(0.445871 0.0104028 5.46131e-20)
(0.456661 0.0143397 3.11306e-20)
(1.02775 0.0111547 -1.80998e-22)
(1.02738 0.00972341 7.00859e-22)
(1.02581 0.0110663 6.5469e-22)
(1.0882 0.0706605 -8.06136e-21)
(1.08724 0.0714735 -6.2824e-21)
(1.08956 0.0720417 -1.77959e-20)
(1.03934 0.0125534 0)
(1.03929 0.0131715 0)
(1.03864 0.0126066 0)
(1.01542 0.00285156 -9.73978e-23)
(1.01419 0.00207149 1.323e-21)
(1.01412 0.00382716 -8.94969e-23)
(1.02773 0.013023 -2.74743e-22)
(1.02919 0.0122722 -5.96283e-22)
(1.05571 0.026113 -6.48424e-21)
(1.05482 0.0255652 8.82414e-21)
(1.05494 0.026525 1.43138e-21)
(0.999579 -0.0127019 2.15457e-21)
(0.998979 -0.0193687 0)
(0.991815 -0.0135636 -1.11794e-21)
(1.06509 0.0153045 -9.28547e-21)
(1.06448 0.015852 0)
(1.0655 0.016212 0)
(0.0162795 -0.0817503 1.5819e-22)
(0.0351054 -0.0859097 1.37252e-22)
(0.999159 -0.00611566 7.92996e-22)
(1.00543 -0.0108291 -1.7495e-21)
(1.02916 0.0113459 -1.67978e-21)
(1.02947 0.0118167 -1.01247e-21)
(1.02972 0.011427 4.67085e-22)
(1.01323 0.000183381 -5.59362e-23)
(1.01338 0.000114818 3.51829e-21)
(0.69958 0.0387786 0)
(0.6533 0.0556596 0)
(0.720778 0.0555607 -5.03056e-22)
(1.0237 0.0183652 -6.72314e-23)
(1.02433 0.0185765 2.73299e-22)
(1.02407 0.0181225 -2.78254e-23)
(0.424051 0.00676241 -2.17052e-20)
(0.403353 0.00182611 -1.89827e-20)
(1.00134 2.2553e-05 -1.57252e-24)
(1.00136 8.14954e-06 -1.61019e-24)
(1.00036 -7.00467e-06 9.53453e-25)
(0.998812 -0.00010445 2.76235e-21)
(0.999581 0.00482175 9.1459e-22)
(1.0043 0.000748285 -3.17038e-22)
(1.07326 0.0644867 -1.32925e-20)
(1.07418 0.0654847 -6.60918e-22)
(1.07266 0.0657081 -5.77899e-21)
(0.434195 0.0221986 1.32133e-20)
(0.474634 0.0298417 1.09809e-20)
(0.471581 0.0290129 -2.65108e-20)
(1.02365 0.032001 6.48693e-22)
(1.0232 0.0332051 0)
(1.02257 0.0319037 3.75238e-22)
(1.01652 0.00881123 0)
(1.01662 0.00887341 0)
(1.01673 0.00909966 1.83549e-22)
(1.06424 0.0432345 -1.41425e-21)
(1.06495 0.0427561 -1.48489e-20)
(1.06494 0.0439773 -4.20873e-21)
(1.01643 0.00865652 0)
(1.01634 0.00848821 0)
(1.03744 0.020107 -1.63478e-21)
(1.03796 0.0205825 1.85924e-23)
(1.03726 0.0204912 3.51886e-21)
(1.01855 0.0311956 2.52265e-22)
(1.01994 0.0314325 1.88946e-22)
(1.0194 0.0299471 -2.3993e-22)
(0.924147 0.0861 3.28712e-21)
(0.970953 0.0865321 3.22373e-21)
(0.978396 0.0937772 3.11276e-21)
(0.020659 -0.0658996 1.9028e-20)
(1.00651 0.0214538 -2.06809e-22)
(1.00815 0.0235689 1.15859e-22)
(1.00939 0.0206895 -2.08852e-22)
(1.01009 -0.00119963 2.30418e-23)
(1.01025 -0.00128211 -6.04695e-23)
(1.00997 -0.00121319 -8.28318e-24)
(0.00284875 -0.0441476 -1.0234e-20)
(0.0285839 -0.0554762 1.84401e-20)
(1.0793 0.0484802 4.66298e-21)
(1.08018 0.0487256 -5.93684e-21)
(1.0793 0.0492052 -4.71546e-21)
(1.03529 0.0154223 -5.21628e-22)
(1.03468 0.015016 8.22631e-22)
(1.03527 0.014908 2.48144e-21)
(0.485329 0.0232135 -1.47925e-21)
(0.503087 0.0273168 2.39282e-20)
(0.499929 0.0266085 5.60864e-22)
(1.01335 0.00321006 1.40987e-23)
(1.0132 0.0031713 -7.50736e-23)
(1.01365 0.00321359 7.43673e-23)
(1.0033 -0.026996 0)
(0.994079 -0.0296323 -1.22107e-21)
(1.02667 0.0200064 -1.0993e-21)
(1.027 0.0204698 3.25966e-21)
(1.02656 0.0204909 3.62594e-21)
(1.00269 0.000126675 -1.11067e-21)
(1.0053 0.00030718 -9.39275e-22)
(1.00241 9.35084e-05 -1.06242e-21)
(1.05661 0.0266368 6.76916e-21)
(1.05637 0.0256709 -6.14034e-21)
(1.03403 0.042004 -1.13699e-21)
(1.03458 0.0431911 -7.01988e-23)
(1.03533 0.0420992 -2.26475e-21)
(1.00013 -4.6911e-05 7.49353e-23)
(1.00001 -1.10818e-05 3.0404e-23)
(1.00068 -4.70698e-05 0)
(1.01377 0.00222608 -1.17836e-22)
(1.01434 0.00237009 0)
(1.01409 0.00215453 -3.74432e-22)
(1.06019 0.0116459 -1.06701e-22)
(1.05921 0.0122034 4.08438e-21)
(1.05918 0.011043 -2.60921e-21)
(1.0797 0.0611647 0)
(1.0804 0.060524 0)
(1.08071 0.0618137 0)
(1.07865 0.0604239 -7.32297e-21)
(1.07864 0.0618571 0)
(1.03594 0.0464342 3.50359e-22)
(1.03442 0.0490138 -1.26701e-21)
(1.03571 0.0485238 -1.44282e-22)
(1.0243 0.030868 2.60086e-23)
(1.02505 0.0319703 2.47315e-21)
(0.306767 0.174064 -1.55371e-20)
(0.37633 0.168372 1.44211e-20)
(0.360901 0.172814 -1.26511e-20)
(0.841138 -0.0959065 3.04323e-21)
(0.808277 -0.110022 1.31909e-20)
(0.884359 -0.0825826 2.94764e-21)
(1.01321 0.00322243 -9.42713e-23)
(1.01358 0.00322869 2.78099e-23)
(1.02866 0.0113441 1.51048e-21)
(1.02883 0.0109669 7.9784e-21)
(1.04755 0.0578566 5.50001e-21)
(1.04589 0.0574765 6.29033e-21)
(1.04723 0.0562797 1.19784e-21)
(0.265683 0.000602811 -4.04607e-21)
(0.338198 0.00256231 1.19589e-20)
(0.261893 -0.000212539 1.07964e-20)
(1.02285 0.0117763 2.72581e-22)
(1.0226 0.0114076 3.4597e-21)
(1.02244 0.0115905 3.36373e-21)
(1.024 0.0125666 1.87747e-21)
(1.02371 0.0121892 -1.01174e-21)
(1.02412 0.0122909 -2.25764e-21)
(1.04855 0.0581225 6.45362e-22)
(1.0477 0.0594376 -3.85394e-21)
(0.151799 -0.00909811 -4.01155e-20)
(1.06335 0.0435425 -8.33394e-22)
(1.06357 0.0422943 1.36367e-20)
(1.01324 0.00206283 2.08068e-22)
(1.01345 0.00223707 -1.21021e-22)
(1.03238 0.0435663 4.50965e-22)
(1.03843 0.0438858 1.69354e-21)
(0.343106 0.0564688 -2.3542e-22)
(0.289932 0.0523762 3.7654e-21)
(0.278396 0.0671414 -2.15167e-21)
(1.02721 0.00532264 -3.01603e-22)
(1.02754 0.0030349 0)
(1.02559 0.00377258 0)
(1.00172 -6.93039e-05 2.59313e-23)
(1.00184 -6.74884e-05 -1.07497e-23)
(1.00232 -8.99463e-05 -4.49005e-23)
(1.03763 0.0195831 2.83347e-21)
(1.03689 0.0195929 2.21736e-21)
(0.826341 0.0767877 0)
(0.825649 0.079082 0)
(0.795791 0.0778263 1.47819e-20)
(0.998017 0.00129097 0)
(1.0011 -0.0010214 -7.97053e-23)
(1.00155 0.00290214 2.44446e-22)
(1.00502 0.0188518 2.08896e-22)
(1.00358 0.0161656 -4.72992e-22)
(1.00704 0.0157567 1.53988e-21)
(1.01064 -0.0248195 -2.74481e-21)
(1.00886 -0.0359898 -1.7063e-21)
(0.993193 -0.000864839 -1.31926e-21)
(0.403409 0.00861715 -1.22755e-20)
(0.388945 0.00656791 -4.50323e-21)
(0.384322 0.00605554 -2.75933e-20)
(0.954549 0.0808914 0)
(0.969557 0.0813894 0)
(0.923885 0.0797067 0)
(0.472698 0.0204978 -2.63955e-21)
(0.469799 0.020457 -2.43954e-21)
(1.03496 0.00458918 -9.86439e-22)
(1.03573 0.0047533 -1.69456e-21)
(1.03501 0.00505902 0)
(1.01276 0.00194283 2.49566e-22)
(1.01303 0.0019308 7.35687e-23)
(1.02271 0.0345413 0)
(1.02401 0.0344064 -1.30598e-21)
(1.0339 0.0219102 0)
(1.03431 0.0224802 -2.1979e-21)
(1.03355 0.0221464 -4.09038e-22)
(1.01605 0.00846511 -1.15352e-22)
(1.01576 0.0085297 4.66918e-22)
(1.01594 0.0091083 -3.59025e-22)
(1.01231 0.00180931 0)
(1.01249 0.00190318 0)
(1.03428 0.0214868 0)
(1.03343 0.0213398 0)
(1.03533 0.0157078 -9.43758e-22)
(1.03582 0.0156705 -9.47295e-22)
(1.02122 0.0134609 0)
(1.02087 0.0132028 -3.50862e-22)
(1.021 0.013036 -1.0467e-21)
(1.00159 5.29673e-05 -1.60875e-22)
(1.00159 5.21736e-05 1.66331e-22)
(1.00047 1.46013e-07 1.06478e-22)
(1.03492 0.00408515 -2.30872e-21)
(1.0342 0.00436827 1.98951e-21)
(0.922621 0.0680344 -1.66071e-20)
(0.963424 0.0693704 0)
(0.95705 0.0682048 0)
(1.01566 0.00206264 2.23207e-21)
(1.01575 0.00231722 -7.27346e-22)
(1.01543 0.00220595 3.39709e-21)
(0.960385 0.0303503 -7.78023e-21)
(0.953617 0.038336 -3.91054e-22)
(0.951168 0.0269974 -3.64573e-21)
(1.07944 0.0474469 2.45606e-21)
(1.07832 0.048065 1.1703e-20)
(1.01534 0.00120984 1.0646e-21)
(1.01509 0.00122639 0)
(1.0146 0.000902743 3.13528e-21)
(1.03376 0.0405975 -4.93569e-21)
(1.03278 0.0416174 2.264e-21)
(1.00118 3.20538e-05 0)
(1.00209 3.33438e-05 -6.4961e-23)
(1.00319 7.91242e-05 -3.1358e-22)
(1.00299 6.36149e-05 2.68385e-22)
(1.00349 0.000123823 -4.00946e-23)
(1.06102 0.0124795 9.13103e-21)
(0.88198 -0.0735824 3.73422e-21)
(0.806198 -0.107021 1.30005e-21)
(1.01177 0.00277728 -7.28498e-23)
(1.01192 0.00279187 -7.52643e-24)
(1.01158 0.00269132 -1.49713e-23)
(1.02425 0.014729 -1.12979e-21)
(1.02387 0.0144265 8.74382e-22)
(1.02405 0.0148504 1.90192e-21)
(1.00358 0.0225627 3.87407e-22)
(1.01596 0.123707 -4.26277e-21)
(1.04295 0.117889 -1.76015e-21)
(1.0335 0.122615 -1.38708e-21)
(1.00268 0.000131878 -4.04986e-23)
(1.00275 0.000120842 4.41619e-22)
(1.00113 5.51303e-05 -3.74953e-23)
(1.01556 0.00141628 9.25073e-22)
(1.0155 0.00116681 -3.34572e-22)
(1.03807 0.0835025 -4.74951e-22)
(1.03516 0.0794744 8.24771e-22)
(1.03269 0.0841402 -4.81101e-22)
(1.00114 -3.67039e-05 -3.90946e-24)
(1.00111 -4.52616e-05 0)
(1.00061 -2.14757e-05 8.91178e-23)
(1.0012 -4.19157e-05 -3.47258e-24)
(1.00171 -8.40793e-05 -7.30066e-23)
(1.02144 0.0137867 0)
(1.0215 0.0136304 0)
(1.00501 0.000386454 0)
(1.00499 0.000358573 0)
(1.00406 0.000273974 -6.82203e-23)
(1.01635 0.00839517 2.47978e-22)
(1.01626 0.0077795 2.84295e-22)
(0.935409 0.0542629 2.15243e-21)
(0.93202 0.0550769 0)
(0.895501 0.0568409 0)
(0.545533 0.0844815 -3.59013e-21)
(0.542699 0.0771025 1.44689e-20)
(0.530101 0.0827788 -3.12459e-21)
(1.02605 0.00720796 -1.78418e-21)
(1.0282 0.00718712 -3.201e-22)
(1.01457 0.00267165 0)
(1.01497 0.002567 0)
(0.879269 0.0854576 4.60905e-21)
(0.868678 0.0759047 -3.04867e-23)
(1.0203 4.60769e-05 -3.54818e-21)
(1.02039 -1.21006e-05 2.33811e-22)
(0.52344 0.03188 1.47361e-20)
(0.508609 0.0287809 8.06686e-21)
(1.0097 0.0254548 -1.63899e-22)
(1.00739 0.0267381 1.48278e-22)
(0.820966 0.0760042 0)
(0.860249 0.0790056 0)
(1.03227 0.0231638 4.87915e-21)
(1.03275 0.0237536 4.27121e-21)
(1.03271 0.0228904 -4.7995e-21)
(1.0724 0.0633493 -1.28828e-20)
(1.07381 0.0633051 6.91532e-22)
(1.00222 -1.65755e-06 -6.7558e-24)
(1.00279 4.5169e-05 -1.62484e-22)
(1.00242 1.26858e-05 5.26415e-23)
(1.08549 0.0712424 8.31541e-21)
(1.08674 0.070461 1.84528e-21)
(1.08511 0.0698852 -6.76778e-21)
(1.03333 0.0011479 2.07725e-21)
(1.03352 0.0016412 -2.52465e-21)
(1.03279 0.00137018 3.13212e-21)
(1.00255 0.000102154 -6.8779e-23)
(1.00148 4.28061e-05 -4.48996e-23)
(1.01192 0.00165625 -1.75449e-23)
(1.01168 0.00160732 -4.04562e-22)
(1.01149 0.00158716 -4.19121e-22)
(1.00231 0.0127329 -9.06129e-22)
(1.00001 0.0167252 -8.43872e-22)
(1.06122 0.0611218 9.24363e-21)
(1.05989 0.0608693 -7.63355e-21)
(1.06088 0.0596538 8.98605e-21)
(0.344406 0.00376261 4.12085e-21)
(0.364133 0.00698938 -1.9879e-22)
(0.349384 0.00399569 9.73004e-21)
(0.896125 0.0685927 7.65967e-21)
(0.890065 0.0683398 -6.87719e-21)
(1.03777 0.0191493 -2.32707e-21)
(1.03793 0.0186581 -2.25119e-21)
(1.03725 0.018643 2.04435e-21)
(1.02137 0.0345082 0)
(1.02228 0.0359716 0)
(1.01235 0.00437561 1.85474e-23)
(1.0122 0.00423805 -4.54956e-23)
(1.01212 0.00425022 0)
(1.06246 0.060976 1.26165e-20)
(1.06173 0.0621475 -7.91998e-22)
(1.07055 0.0291735 -7.64878e-21)
(1.07031 0.029992 -6.71135e-21)
(1.07136 0.0296915 -6.6599e-22)
(1.06447 0.0438772 1.24512e-21)
(1.06052 0.0443474 1.62618e-21)
(1.06374 0.0412832 2.89342e-21)
(0.638921 0.0426244 0)
(0.606879 0.0402895 0)
(0.613825 0.0405605 -1.76928e-20)
(1.03178 0.0235313 -6.59557e-22)
(1.03173 0.022647 1.12377e-21)
(1.08041 0.052341 7.37681e-21)
(1.07984 0.0531152 -1.47993e-20)
(1.08108 0.0531167 1.33654e-20)
(0.832175 0.0853328 7.47797e-21)
(0.88891 0.094778 -8.5387e-22)
(0.245824 0.0156673 -3.74241e-22)
(0.306921 0.0235824 2.66985e-22)
(0.316463 0.0102961 2.78165e-22)
(0.304948 0.00524586 0)
(0.301658 0.00476165 0)
(0.321822 0.00756836 0)
(1.01564 0.0301672 -2.29946e-23)
(1.01725 0.0307744 1.59216e-22)
(1.01673 0.0289105 -3.27277e-22)
(1.00255 0.000165102 -8.92773e-22)
(0.782037 0.0817719 -5.85216e-21)
(0.804911 0.0677139 4.45232e-22)
(0.800705 0.090048 -6.75931e-22)
(1.01213 0.00172902 3.40585e-22)
(1.0119 0.00169813 1.20726e-22)
(0.929138 0.0553616 4.53908e-22)
(0.972266 0.0554277 -2.41465e-22)
(1.01491 0.00642615 -9.52187e-22)
(1.01465 0.00619278 3.18781e-22)
(1.01479 0.00643192 3.8638e-22)
(1.03264 0.00460094 4.11799e-21)
(1.03325 0.00484798 -1.10132e-21)
(1.03273 0.00510131 9.04567e-21)
(1.0175 0.00633653 1.77297e-22)
(1.01621 0.00612353 3.55492e-23)
(1.01648 0.00532569 -6.86029e-23)
(0.977932 0.0803913 1.80476e-20)
(0.934108 0.079943 1.80487e-21)
(0.888222 0.133636 2.84898e-21)
(0.396169 0.16119 1.21751e-20)
(0.420374 0.153359 1.90321e-22)
(0.360648 0.154983 0)
(1.02328 0.0120062 -1.45849e-21)
(1.0231 0.0121955 7.63151e-22)
(1.03355 0.0394803 -1.38156e-22)
(1.03332 0.0383455 3.19712e-21)
(1.03239 0.0390003 3.96853e-21)
(1.00131 -5.72415e-05 0)
(1.00142 -6.37591e-05 6.8807e-23)
(1.00199 -7.27354e-05 -8.79919e-23)
(1.03204 0.00438322 -1.10443e-21)
(1.03251 0.00411558 -1.57191e-22)
(0.991881 0.120092 6.32503e-21)
(0.986702 0.125822 -8.65837e-22)
(1.01659 0.00746124 7.37584e-23)
(1.01678 0.00746533 7.59549e-23)
(1.01675 0.00733954 6.08745e-23)
(1.00502 0.000383453 9.17623e-23)
(1.00544 0.000388084 -4.80137e-23)
(0.592891 0.0399013 8.10126e-23)
(0.585023 0.0384299 1.4013e-20)
(0.56467 0.0367057 1.75371e-20)
(1.00105 -1.68089e-05 -1.32834e-22)
(1.00105 -1.27182e-05 -6.04505e-23)
(1.00036 -2.61478e-05 -2.54962e-22)
(1.00196 -2.57448e-05 -6.76241e-23)
(1.00145 -5.68089e-05 1.7217e-22)
(1.01532 0.00446408 -1.76117e-21)
(1.01552 0.00473354 1.86995e-23)
(1.01517 0.0045921 1.90901e-21)
(0.709832 0.106454 -3.24238e-21)
(0.725997 0.105167 -5.47584e-21)
(0.681886 0.106283 -4.61179e-21)
(1.02396 0.0196932 -5.92565e-23)
(1.02424 0.0199116 -9.75924e-22)
(1.0241 0.0193649 -6.15206e-22)
(0.765985 0.0665881 -1.98442e-21)
(0.458551 0.121366 -1.07318e-20)
(0.458788 0.127956 -1.05917e-21)
(0.49367 0.120223 -9.58679e-21)
(1.04357 0.0974779 -2.15569e-21)
(1.03993 0.0917272 3.05975e-21)
(1.03313 0.093614 -2.06853e-21)
(0.268362 0.000359434 -1.10805e-20)
(0.309359 0.152705 -1.4635e-21)
(0.346805 0.141297 -3.2645e-22)
(0.302797 0.144522 -8.73786e-22)
(1.0048 -0.000339636 8.55727e-25)
(1.00494 -0.000373863 -7.11459e-24)
(1.00488 -0.000355597 -6.6074e-24)
(1.01397 0.0290027 2.63297e-22)
(1.01443 0.0316125 8.12191e-23)
(1.01648 0.0086651 -3.70025e-22)
(1.0165 0.00863386 -4.99795e-23)
(1.01665 0.00893272 -3.50534e-23)
(0.643929 0.0439259 -1.1079e-20)
(0.646899 0.0444463 2.76515e-22)
(0.614753 0.0410739 -2.06145e-20)
(1.06475 0.0143345 -7.58889e-21)
(0.456836 0.0455056 2.50067e-21)
(0.399143 0.0512025 3.65111e-21)
(0.421964 0.038519 2.88303e-21)
(1.0503 0.0495283 -4.66672e-21)
(1.05064 0.0494601 1.09552e-21)
(1.05047 0.049927 -1.73581e-21)
(1.00107 -3.20167e-05 -5.95631e-23)
(1.00164 -2.80809e-05 -2.27759e-22)
(1.00095 -3.32811e-05 1.78158e-22)
(1.04008 0.0125886 2.7258e-21)
(1.03947 0.0120678 -5.50027e-22)
(1.04454 0.0570387 3.82879e-21)
(1.04321 0.0563733 -1.08368e-21)
(1.04443 0.0554077 2.94699e-22)
(1.07072 0.0282274 -2.70134e-21)
(1.06973 0.0285381 3.22056e-21)
(1.02372 0.020017 4.33434e-22)
(1.02372 0.0193514 1.95704e-22)
(1.0585 0.0125833 -5.75453e-21)
(1.05759 0.012029 8.64012e-22)
(1.05755 0.0130634 -1.02455e-20)
(1.01627 0.00843321 0)
(1.02826 0.011303 -5.79343e-22)
(1.02854 0.0116724 -5.26803e-22)
(1.04163 0.0725532 -7.01211e-21)
(1.04448 0.0723879 -4.11571e-21)
(1.04155 0.0750113 -5.01753e-21)
(1.08433 0.0720773 1.58092e-22)
(1.08472 0.0727851 1.33547e-20)
(1.06585 0.0465606 -1.5824e-21)
(1.07113 0.0434645 -1.60341e-21)
(1.02792 0.0109158 0)
(1.02778 0.0112554 9.44381e-22)
(1.03974 0.0725948 8.66214e-22)
(1.04013 0.0700721 -6.22988e-21)
(1.01019 -0.00116676 -8.19358e-23)
(1.00988 -0.00112606 1.51805e-23)
(0.967632 0.0254342 -4.04153e-21)
(0.968976 0.0343428 -2.34487e-21)
(1.05002 0.049232 -4.1325e-21)
(1.04995 0.0496391 2.45318e-21)
(1.07776 0.0596403 -9.68966e-24)
(1.07877 0.0590646 8.82321e-22)
(1.05125 0.0698736 9.04291e-21)
(1.05254 0.0691098 -4.30807e-22)
(1.05091 0.0680562 4.25949e-21)
(0.450989 0.0122522 8.49793e-21)
(0.467847 0.0181488 -2.30893e-20)
(0.456143 0.0145884 -3.71061e-20)
(1.01199 0.00285309 0)
(1.01168 0.00277198 5.25916e-23)
(0.359298 0.00568622 0)
(0.373617 0.00799962 0)
(0.354041 0.00461162 0)
(1.04215 0.0277323 1.43763e-21)
(1.04177 0.0282763 -1.80881e-21)
(1.04139 0.0274949 -3.27586e-21)
(0.67234 0.0449164 -9.56615e-21)
(0.66559 0.0443619 0)
(1.01311 0.00312777 5.9713e-23)
(1.01274 0.00310932 -2.32273e-22)
(1.01638 0.00742083 1.81236e-23)
(1.01645 0.00760033 2.37405e-23)
(1.02587 0.0298654 1.0272e-21)
(1.02662 0.0307 1.35651e-21)
(1.02669 0.0295565 0)
(0.393584 0.00595312 1.12927e-20)
(0.391837 0.0064494 2.07111e-21)
(0.410395 0.00884888 4.49831e-21)
(0.305755 0.00479161 -8.89471e-21)
(0.280107 0.00275666 -1.57633e-20)
(1.02528 0.0180739 4.26051e-22)
(1.02532 0.0184536 4.54144e-22)
(1.02499 0.0180596 4.80613e-22)
(0.959195 0.0732868 -1.14015e-21)
(0.999565 0.0741262 3.88781e-21)
(0.950662 0.064177 -5.28549e-21)
(1.01766 0.019141 -1.36002e-22)
(1.01828 0.0178786 8.18395e-23)
(1.0188 0.01932 -4.0325e-23)
(1.0347 0.0398183 -4.35225e-21)
(1.01235 0.00174209 1.01706e-22)
(1.04468 0.0587332 0)
(1.02053 0.0129036 -7.9588e-22)
(1.02071 0.0132912 -9.15221e-22)
(1.01021 0.00316583 1.30537e-22)
(1.00998 0.0030464 3.13744e-22)
(1.01006 0.00306099 3.26518e-22)
(1.01355 -0.00595 -9.28736e-22)
(1.01618 -0.00496738 3.07919e-22)
(1.01352 -0.00339398 4.57592e-22)
(1.01314 -0.00890315 -9.52198e-22)
(1.00981 -0.00685802 7.58569e-22)
(0.423225 0.156379 2.15234e-20)
(1.07988 0.051717 0)
(1.08092 0.0516797 1.02265e-20)
(1.01777 0.0326067 2.54529e-22)
(0.675941 0.0817179 2.449e-21)
(0.672704 0.0850057 -7.39805e-21)
(0.704211 0.0848053 -1.19788e-20)
(1.00956 0.000681923 1.76908e-21)
(1.00859 0.000609127 -3.92028e-22)
(1.01036 0.000717124 5.12509e-22)
(1.00722 0.000593129 2.28458e-23)
(1.00738 0.000625095 -5.19671e-23)
(1.00705 0.000593387 1.19028e-22)
(1.00738 0.000587676 1.84412e-22)
(1.00706 0.000574441 1.55763e-22)
(0.317557 0.158899 -5.91154e-22)
(1.0475 0.0715983 -5.45699e-21)
(1.04991 0.070626 -2.91997e-22)
(1.04768 0.0695179 -1.38336e-21)
(1.03915 0.0728411 3.1196e-21)
(1.03849 0.0727566 -2.57177e-21)
(1.03731 0.0698589 0)
(1.02043 0.00118812 2.98317e-21)
(1.02065 0.00133817 1.98178e-21)
(1.02064 0.00111966 7.94064e-22)
(1.00165 -6.54915e-05 4.85772e-23)
(1.00116 -5.47443e-05 -2.65756e-23)
(0.771753 0.0751525 -4.19172e-21)
(0.78106 0.0857812 -4.67489e-22)
(0.363648 0.00628519 0)
(1.00633 0.000546507 4.56048e-23)
(1.00655 0.000566065 -7.61342e-23)
(1.00652 0.000579615 7.42904e-23)
(1.0061 0.000531474 -3.3507e-22)
(1.00613 0.000510427 5.39371e-23)
(1.00046 -2.98937e-05 2.72157e-23)
(0.999928 -5.47604e-05 6.22198e-23)
(1.00756 0.000581926 -2.58064e-24)
(1.00774 0.000612706 0)
(1.00773 0.000575136 3.68573e-22)
(1.00741 0.000559846 -3.32823e-23)
(0.457271 0.0165155 -6.02254e-21)
(0.469963 0.0195877 9.06716e-21)
(0.443959 0.151456 8.99067e-21)
(0.431418 0.154908 0)
(0.46205 0.143505 0)
(1.01851 0.0110002 -9.53476e-22)
(1.01831 0.010692 -1.01945e-23)
(1.0186 0.0109367 -6.31121e-22)
(1.00589 -0.000562783 -1.41433e-23)
(1.00609 -0.000592004 -7.75874e-24)
(1.00589 -0.00056384 7.33189e-24)
(1.05432 0.0535709 -2.20161e-21)
(1.05358 0.0529904 -7.18551e-21)
(1.05433 0.0527555 -4.523e-21)
(0.446747 0.0170985 8.1078e-21)
(0.435201 0.0143391 -1.27857e-20)
(0.451374 0.0177479 -9.88963e-21)
(1.00151 -9.57099e-06 -3.98578e-23)
(1.0008 -2.55379e-06 -5.39726e-24)
(1.00078 -1.44314e-05 -3.39202e-23)
(1.02024 0.00127808 9.35688e-22)
(1.02023 0.00106435 -1.18633e-21)
(0.965157 0.0803129 2.72099e-22)
(0.907559 0.0705352 -4.29481e-21)
(0.925275 0.055446 -1.43704e-21)
(0.919716 0.0554212 2.90581e-21)
(0.96251 0.0559479 1.02753e-20)
(1.04725 0.0734833 0)
(0.680434 0.0793314 -1.71808e-21)
(0.652107 0.0781438 -1.02495e-20)
(1.04856 0.0501967 5.25585e-22)
(1.04883 0.0496985 -2.81576e-21)
(1.04832 0.049694 -3.14455e-21)
(1.01501 0.0064057 -2.75603e-22)
(1.01514 0.00663174 -2.28387e-22)
(0.390177 0.139194 7.32247e-22)
(0.385339 0.131634 5.37781e-21)
(1.05501 0.0542807 0)
(1.054 0.0545783 0)
(1.01107 0.0267999 1.02258e-21)
(1.01154 0.0243024 9.36008e-22)
(1.07014 0.0545591 1.01894e-20)
(1.06996 0.0554703 -2.77434e-21)
(1.07106 0.0552675 -5.05987e-21)
(1.0252 0.0176841 -8.50291e-22)
(1.02556 0.0180373 4.99471e-22)
(0.461521 0.145709 3.84046e-22)
(1.03371 0.00206267 1.29956e-21)
(1.03325 0.00224485 6.70966e-21)
(1.03388 0.00252755 2.2904e-21)
(1.04515 0.0431058 -2.76962e-21)
(1.04513 0.0436301 -2.46518e-21)
(1.04579 0.043365 1.52731e-21)
(1.0509 0.0492247 6.48865e-21)
(1.05123 0.0487561 -1.04084e-21)
(1.05063 0.0487354 -6.80624e-23)
(1.01831 0.0110873 0)
(1.01841 0.0110145 -3.89954e-22)
(1.01812 0.0107906 0)
(1.00002 -4.32789e-06 -1.35546e-22)
(1.03828 0.0196272 -4.87789e-21)
(1.02045 0.00320573 1.40399e-22)
(1.02018 0.00424534 0)
(1.02136 0.00395402 -2.62933e-22)
(1.01289 0.00302909 1.84258e-22)
(1.01313 0.00312912 4.17596e-22)
(1.01324 0.0031856 6.62828e-22)
(0.397903 0.0129764 9.77623e-21)
(0.385993 0.0105606 9.80163e-21)
(0.381066 0.0102002 -3.98506e-22)
(0.61687 -0.137276 2.68846e-21)
(0.620767 -0.117763 1.17908e-21)
(0.64002 -0.130044 4.59617e-22)
(1.01193 0.00158465 1.09473e-22)
(1.01165 0.00159408 -2.33801e-22)
(1.01152 0.00157379 -2.43952e-24)
(1.00603 0.000546278 1.18777e-23)
(1.00588 0.000501378 1.12495e-22)
(1.01679 0.0076417 -1.24287e-22)
(1.01698 0.00745239 1.11963e-22)
(1.00619 0.000580309 -7.40781e-23)
(1.00596 0.000546621 1.03308e-22)
(1.03426 0.00187705 9.90127e-22)
(1.01721 0.000270224 -3.1993e-21)
(1.01267 0.000187176 -2.61002e-21)
(1.05458 0.0387844 0)
(1.05504 0.0395807 -1.07138e-21)
(1.05414 0.0395817 -7.77582e-21)
(1.01222 0.00159171 9.9637e-23)
(1.01234 0.00157604 9.92241e-23)
(0.305639 0.00675689 -5.67413e-21)
(0.323457 0.00962949 6.57081e-21)
(0.54589 0.0930472 0)
(0.563123 0.0871537 1.23687e-20)
(1.02464 0.00937632 0)
(1.02471 0.00904462 -2.89183e-21)
(1.0242 0.00904774 -1.05756e-21)
(1.01839 0.00576401 -3.6872e-22)
(1.01845 0.00526893 -6.49522e-22)
(1.01782 0.00581561 -3.7924e-23)
(1.02595 0.0398372 -2.05127e-21)
(1.03299 0.036511 -1.3238e-21)
(1.00039 0.0359638 -3.43784e-22)
(1.00743 0.000292151 1.72217e-22)
(1.00761 0.000288794 3.21758e-23)
(1.00729 0.000275047 3.04467e-22)
(1.03004 0.0741665 -1.18098e-21)
(1.03328 0.0766141 -3.61629e-22)
(1.03267 0.0715817 -2.61666e-22)
(0.415298 0.0161226 -9.1571e-21)
(0.410127 0.0154581 9.16974e-21)
(1.00727 0.000297141 -4.56892e-23)
(1.00759 0.000316924 -4.19491e-23)
(0.420136 0.0116033 -1.20623e-20)
(0.415069 0.0109435 8.95813e-21)
(1.01267 0.00290411 -2.47836e-22)
(1.01253 0.00288554 -3.9768e-23)
(0.748523 0.105206 1.50031e-22)
(0.702501 0.107556 2.78942e-21)
(1.00107 -3.06608e-05 -4.7339e-23)
(1.0005 -2.95343e-05 1.19363e-22)
(1.02276 0.0177278 0)
(1.02231 0.0177226 0)
(1.02235 0.0173382 6.54729e-23)
(1.01824 0.0111443 0)
(1.0185 0.0113919 0)
(1.01416 0.00602774 7.2465e-22)
(1.01392 0.00583853 -1.29024e-21)
(1.01395 0.00582756 -1.04728e-21)
(1.0655 0.0742247 3.36383e-21)
(1.06589 0.0724937 0)
(1.06729 0.0740012 -6.47058e-21)
(1.00546 0.000361432 5.51696e-22)
(1.00549 0.000331971 -4.96012e-22)
(1.00339 0.000181574 8.53203e-22)
(1.04728 0.104561 2.36069e-22)
(1.05528 0.100939 9.9001e-22)
(1.04018 0.0322569 3.05155e-22)
(1.0397 0.0329028 -8.80595e-22)
(1.03939 0.03194 2.44997e-21)
(1.01867 0.00625184 0)
(1.01783 0.00757074 8.27899e-23)
(1.04116 0.0696205 0)
(1.0395 0.0746627 4.99988e-21)
(1.06588 0.072961 0)
(0.290523 0.00456091 7.92521e-22)
(1.00214 5.94883e-06 4.68344e-23)
(1.0021 9.33817e-06 -1.47157e-22)
(1.05919 0.0468699 -3.19183e-22)
(1.05981 0.0475872 -4.37776e-21)
(1.06012 0.0467154 2.50825e-21)
(1.01827 0.00247458 -8.05406e-22)
(1.01949 0.00281295 -1.01014e-21)
(1.01835 0.00371534 -3.29512e-22)
(1.03141 0.0238118 -2.61801e-21)
(1.03093 0.0240386 -2.41331e-21)
(1.03091 0.0232503 -5.52996e-23)
(1.01671 0.00253677 7.95531e-22)
(1.01616 0.00404756 0)
(1.03459 0.0211624 1.58147e-21)
(1.03498 0.0217238 -4.5568e-21)
(1.01209 0.00281535 2.75128e-22)
(1.01224 0.00283379 4.03607e-22)
(1.01189 0.00272804 -8.72918e-23)
(1.00652 0.000454479 -3.04408e-23)
(1.00521 0.000330432 -3.33949e-22)
(1.04444 0.0522393 1.07333e-21)
(1.04336 0.0527822 1.66107e-21)
(1.0444 0.0537811 -1.2094e-21)
(1.00365 0.020413 5.95709e-22)
(0.999282 0.0204799 7.80272e-22)
(1.00217 0.0164794 -2.51233e-22)
(1.04535 0.0422641 0)
(1.04449 0.0426037 0)
(1.03493 0.0208071 1.40012e-21)
(1.03419 0.0206651 -1.3927e-21)
(1.02008 0.00131132 3.40938e-21)
(1.01992 0.00116102 -2.88465e-21)
(1.01989 0.00133738 3.20505e-21)
(0.600989 0.0402739 -1.43123e-20)
(0.624535 0.0418379 -2.0771e-20)
(0.389396 0.00423209 -6.24138e-21)
(0.36228 0.00394067 1.2938e-20)
(1.01179 0.00385903 9.25437e-24)
(1.01165 0.00373391 0)
(1.01154 0.00374906 7.47094e-23)
(1.01179 0.00433985 1.92583e-22)
(1.01045 0.00493812 -3.59605e-22)
(1.01091 0.00356982 -2.40066e-22)
(1.03196 0.0243294 2.67351e-21)
(0.973104 -0.0708176 -4.13082e-22)
(0.990296 -0.0712263 0)
(1.0018 -0.0609229 0)
(1.08946 0.0571883 1.0626e-20)
(1.09007 0.0577812 1.21452e-20)
(1.09008 0.0568181 1.70617e-20)
(0.57047 0.0734554 -1.17795e-20)
(0.557863 0.0666569 6.08059e-21)
(0.55143 0.0710925 6.82543e-21)
(0.481637 0.0540259 -6.73714e-21)
(0.507079 0.0424773 6.93547e-23)
(1.00272 -0.00870917 -8.56571e-22)
(1.00157 -0.00495857 -1.88139e-23)
(0.999044 -0.00821054 6.89771e-23)
(1.05657 0.0449984 -2.6121e-21)
(1.05753 0.0469859 -3.34492e-21)
(1.01827 0.00621348 -3.28164e-22)
(1.01881 0.00591173 -8.88536e-23)
(0.999898 0.0720209 1.97078e-20)
(0.969168 0.0713152 -1.02453e-20)
(0.93288 -0.0770614 -9.90887e-22)
(0.954878 -0.0666931 3.64735e-21)
(1.08862 0.0699975 -1.71544e-21)
(1.0895 0.0694439 4.52884e-23)
(1.0169 0.000408043 3.57385e-22)
(1.012 8.52387e-05 1.24522e-21)
(1.02323 0.0180484 0)
(1.02327 0.0185695 0)
(1.01459 0.0881703 -4.16872e-21)
(1.01646 0.00828945 0)
(1.01644 0.00840796 1.52258e-23)
(1.01656 0.00852352 -1.40487e-23)
(1.02633 0.0082789 0)
(1.02865 0.00823173 -7.76847e-22)
(1.07694 0.0589013 -5.30221e-22)
(1.07683 0.0602121 -2.6254e-21)
(1.00129 4.72738e-06 -5.08465e-23)
(1.00112 -4.59752e-07 -1.37779e-22)
(1.00031 -2.59683e-05 9.87246e-23)
(0.668478 0.0470986 5.94267e-21)
(0.636991 0.0436395 6.67578e-21)
(1.01555 0.00160613 -8.48641e-22)
(1.01558 0.00186609 -2.17126e-21)
(1.01535 0.00173774 1.73975e-21)
(1.08168 0.0327019 -8.90501e-21)
(1.08261 0.0332788 -3.35548e-20)
(1.00991 9.00733e-06 -8.55771e-23)
(1.00982 7.72056e-06 1.79911e-22)
(1.01021 -2.72138e-05 -1.96162e-22)
(0.345489 0.0170964 -1.34789e-21)
(0.352163 0.0137986 4.94777e-21)
(1.00885 0.0020716 -1.05858e-22)
(1.00869 0.00199292 -4.21965e-22)
(1.00871 0.00192943 0)
(1.04561 0.0416989 0)
(1.04503 0.0411468 2.74417e-22)
(1.04586 0.0410481 -2.5949e-21)
(1.01632 0.0192035 -2.13749e-22)
(1.01736 0.0205787 9.17044e-23)
(1.00464 -0.0110932 -8.00865e-23)
(1.00513 -0.00752957 -7.36037e-23)
(1.00222 7.27144e-05 2.52299e-22)
(1.00161 2.72115e-05 2.25541e-23)
(1.07201 0.0550348 4.12437e-21)
(1.07306 0.054853 1.6415e-20)
(1.07227 0.0540338 2.33262e-20)
(0.95837 0.056557 0)
(0.996644 0.0578749 1.02901e-20)
(0.962517 0.0570836 -1.26567e-20)
(1.02459 0.0144166 3.66893e-21)
(1.02441 0.0145975 -1.55561e-21)
(1.02422 0.0140823 -3.85219e-22)
(1.0165 0.00814338 0)
(1.01637 0.00805227 9.33078e-23)
(0.538531 0.0344592 5.1287e-22)
(0.543808 0.0359575 -7.68805e-21)
(0.946377 0.0573579 0)
(0.95389 0.0570532 0)
(0.988712 0.0572799 -1.09582e-20)
(0.719095 0.0876731 7.22213e-22)
(0.750666 0.0888185 2.48842e-21)
(0.697134 0.0940072 2.68879e-21)
(0.754182 0.0214096 3.86884e-21)
(0.686511 0.0201544 0)
(1.00712 0.000308281 1.47927e-22)
(1.00695 0.000285634 0)
(1.01933 0.0114112 -3.87355e-22)
(1.01912 0.0110828 2.32454e-23)
(1.01943 0.0113209 -1.60313e-21)
(0.914342 0.0557529 2.86398e-21)
(0.909327 0.0560949 7.53061e-22)
(0.952226 0.0564437 0)
(1.05529 0.0451969 -8.4737e-22)
(1.05537 0.0428834 4.21386e-21)
(1.00729 0.000333039 2.51023e-22)
(1.00699 0.000317954 -1.54206e-22)
(1.01806 0.00112387 8.28464e-22)
(1.02556 0.011557 0)
(1.02588 0.0119415 0)
(1.02541 0.0117488 0)
(1.01572 0.046118 2.49248e-22)
(1.0135 0.0471464 -6.91031e-23)
(1.01583 0.048923 7.69565e-24)
(1.04614 0.042128 0)
(1.05434 0.0648215 0)
(1.0557 0.0640957 4.27644e-21)
(1.0544 0.0632217 0)
(1.05129 0.0494478 1.96967e-23)
(1.05089 0.0499565 -1.77409e-21)
(1.05049 0.0494701 2.31109e-22)
(1.02779 0.0711377 0)
(1.02681 0.0761174 -6.46106e-22)
(1.07913 0.0339354 3.01069e-21)
(1.07839 0.0344694 1.01266e-20)
(1.07929 0.0348716 1.74114e-20)
(0.501887 0.0286452 2.31356e-24)
(0.485774 0.0236055 -1.05604e-24)
(0.496495 0.0266995 1.03148e-20)
(1.0126 0.00449238 1.87852e-23)
(1.01249 0.00449994 -5.30205e-23)
(1.02499 0.0147555 2.64494e-21)
(1.02478 0.0142397 -6.41493e-22)
(1.01416 0.000769255 -7.35469e-22)
(1.01268 0.00182393 1.13486e-21)
(1.07316 0.0771751 5.37469e-21)
(1.07493 0.0762018 1.19506e-20)
(1.07401 0.0784876 1.67818e-20)
(1.00089 -1.89193e-05 1.59539e-22)
(1.00016 -1.69214e-05 -2.10018e-23)
(1.00096 -2.21264e-05 1.35845e-22)
(0.425235 0.00746299 2.68453e-20)
(1.07987 0.0334695 -8.90658e-21)
(1.07884 0.0331639 -9.68133e-21)
(0.905602 -0.118201 -1.80819e-21)
(0.914583 -0.106425 -2.03729e-21)
(1.02393 0.0127548 2.1918e-21)
(1.0243 0.0128608 1.6587e-21)
(1.05408 0.0475158 1.89487e-21)
(1.0543 0.0461119 1.55033e-21)
(1.05257 0.0469749 -4.9583e-22)
(1.01288 0.00517884 -1.33753e-21)
(1.01264 0.00377641 2.92463e-22)
(0.916064 -0.0468613 5.99856e-21)
(0.954437 -0.0170684 6.35709e-21)
(0.885454 -0.0500209 2.01351e-21)
(1.01297 0.00235943 1.56804e-22)
(1.01329 0.00253299 0)
(1.01289 0.00224704 -2.69303e-22)
(1.04109 0.0756249 2.71672e-21)
(1.02058 0.0427165 1.5856e-21)
(1.01506 0.0178879 -5.19527e-22)
(1.01459 0.0200051 0)
(1.02457 0.00964016 3.33487e-22)
(1.02506 0.00967677 0)
(1.05556 0.0908578 -1.75227e-21)
(1.05648 0.0916976 -1.86366e-21)
(1.02775 0.0923555 7.26942e-21)
(1.01126 -0.000151794 9.0659e-23)
(1.01118 -9.37319e-05 -2.87089e-22)
(1.01084 -8.49753e-05 -1.92097e-22)
(0.457108 0.115497 4.60755e-21)