/*--------------------------------*- C++ -*----------------------------------*\
| =========                 |                                                 |
| \\      /  F ield         | OpenFOAM: The Open Source CFD Toolbox           |
|  \\    /   O peration     | Version:  v2012                                 |
|   \\  /    A nd           | Website:  www.openfoam.com                      |
|    \\/     M anipulation  |                                                 |
\*---------------------------------------------------------------------------*/
FoamFile
{
    version     2.0;
    format      ascii;
    class       volVectorField;
    location    "300";
    object      U;
}
// * * * * * * * * * * * * * * * * * * * * * * * * * * * * * * * * * * * * * //

dimensions      [0 1 -1 0 0 0 0];


internalField   nonuniform List<vector> 
13851
(
(1.0166 -0.0144018 -5.107e-23)
(0.67716 -0.183188 -9.16192e-22)
(1.03357 -0.0636341 2.45119e-21)
(1.01583 -0.0137941 -7.14747e-23)
(1.06455 -0.0696557 -1.06871e-20)
(0.984177 -0.0366095 2.18882e-21)
(1.03241 -0.00294447 0)
(1.04481 -0.0495983 -7.90018e-21)
(1.00573 -0.00114525 0)
(1.02483 -0.0344892 -3.90343e-22)
(0.938959 0.127371 0)
(0.379373 0.0846855 6.74679e-21)
(0.97557 -0.0842564 0)
(0.000462018 -0.0823705 0)
(1.01981 -0.000721137 7.11116e-21)
(1.03653 -0.0373413 -2.33211e-21)
(1.04301 -0.0272553 7.78595e-21)
(1.01599 -0.0219668 1.6717e-22)
(1.0837 -0.102218 -1.34053e-20)
(1.00565 -0.00118249 4.15915e-23)
(1.01571 -0.0135792 9.68889e-25)
(1.03692 -0.0648667 -6.00984e-21)
(1.00234 0.000135569 1.30523e-22)
(1.00098 -8.40443e-05 -1.15221e-22)
(1.00161 3.52326e-05 0)
(1.04312 -0.0493991 -7.69189e-22)
(1.05342 -0.0210988 3.76795e-21)
(0.00102637 -0.068812 0)
(1.01675 -0.0142553 0)
(1.02431 -0.0234231 -2.32545e-21)
(0.973915 -0.0361203 2.56254e-21)
(1.04347 -0.0282919 -1.18672e-20)
(1.03308 -0.0610566 0)
(0.928829 -0.162086 2.74889e-21)
(1.00157 -0.000105839 6.71515e-23)
(1.09417 -0.0617168 0)
(1.09949 -0.0617064 5.09194e-20)
(1.04014 -0.109796 0)
(1.02139 -0.0330632 0)
(0.923795 -0.151066 0)
(1.01462 -0.00869977 1.34567e-21)
(1.00898 0.00141157 3.86232e-24)
(0.0332235 0.108457 -5.20978e-20)
(0.903521 0.131339 4.14746e-21)
(0.903145 0.144826 -7.47965e-21)
(0.199326 0.0636212 -3.39649e-20)
(0.911505 0.117273 5.30166e-21)
(0.894276 0.117483 4.39682e-21)
(1.05441 -0.0217483 0)
(0.982742 0.00797076 -1.80589e-21)
(1.08008 -0.0592391 1.6826e-20)
(1.08646 -0.0708974 -1.399e-20)
(-0.0311833 0.0631179 0)
(1.01941 -0.000637628 -2.54548e-21)
(1.01045 -0.000875632 -2.22196e-21)
(1.00927 0.00149004 4.04623e-24)
(1.00213 0.000106295 1.38409e-22)
(-0.0894723 0.049604 1.70067e-20)
(1.02407 -0.0226617 0)
(1.03315 -0.00578919 3.97823e-21)
(1.03453 -0.110992 0)
(0.528318 -0.156306 -5.59748e-21)
(1.00429 0.00152565 7.16399e-21)
(1.06979 -0.0734996 -1.68768e-20)
(1.005 -0.102978 1.65648e-22)
(1.01678 -0.0159576 0)
(1.07661 -0.0616084 1.55912e-20)
(0.930047 0.0735823 -2.67423e-21)
(1.066 -0.0389026 1.55419e-20)
(1.01586 -0.0209276 1.44941e-22)
(0.307701 -0.00415296 -9.55532e-21)
(1.0011 -0.064552 -5.46985e-22)
(0.613309 -0.179116 1.47094e-21)
(1.01941 -0.000666296 -2.29684e-21)
(1.01091 -0.00148177 0)
(1.00732 -0.00162208 -4.58333e-22)
(1.0392 -0.063588 2.83597e-21)
(0.424216 -0.00687551 0)
(1.06087 -0.0525732 -8.72262e-21)
(0.290605 -0.00751644 4.04047e-20)
(1.03623 -0.0101844 -8.89365e-21)
(0.896242 -0.106659 5.38434e-23)
(1.02167 -0.00553384 -3.27756e-21)
(0.167639 0.0770663 0)
(0.999504 -0.000158665 -3.89048e-21)
(0.419763 0.079534 -6.74612e-21)
(0.99045 -0.0197592 -1.96112e-21)
(0.858158 -0.0417708 -1.35333e-20)
(1.05001 -0.0271801 0)
(1.01002 0.00246256 0)
(1.09438 -0.0614491 0)
(1.02652 -0.00508865 7.90686e-22)
(0.933646 0.0372831 -4.02867e-21)
(1.05406 -0.0320115 9.32103e-21)
(1.05059 -0.0263652 0)
(1.00063 4.84248e-05 0)
(1.06669 -0.07048 -1.27276e-20)
(0.642799 -0.0477919 0)
(0.977053 0.0107555 2.09095e-21)
(1.00016 3.97683e-05 0)
(-0.104562 0.0582402 -5.50347e-21)
(1.06938 -0.0526834 1.36159e-21)
(1.01839 -0.0143419 0)
(1.0607 -0.0131882 -1.00918e-20)
(1.00405 0.000119677 -2.95845e-23)
(0.986917 -0.00556733 2.37169e-21)
(1.07326 -0.0547594 1.39114e-20)
(1.00858 0.0010777 4.57861e-23)
(0.888931 -0.0634099 -2.07864e-21)
(0.988685 -0.0431231 1.93931e-21)
(1.0001 -1.18157e-05 1.7498e-22)
(1.01019 0.00265036 4.05335e-22)
(1.024 -0.00564746 0)
(0.999313 2.68644e-05 0)
(1.00059 -2.48856e-05 -1.69813e-22)
(0.796701 -0.147509 -5.36832e-21)
(0.672321 -0.0546746 -1.75053e-20)
(1.00759 0.00079738 -4.46206e-23)
(1.00321 -0.000309909 -6.74787e-22)
(1.00853 -0.000632172 1.0936e-21)
(0.0229472 0.121137 5.11604e-20)
(1.05951 -0.0136297 0)
(0.945924 -0.0860874 -1.19079e-20)
(0.846579 -0.067533 4.30292e-22)
(0.931823 0.0874219 -9.10885e-21)
(1.01551 0.00681259 0)
(0.959429 0.0394391 1.04315e-20)
(1.065 -0.0529281 3.12412e-21)
(1.01522 -0.0130872 -3.5763e-23)
(1.067 -0.0900172 1.83846e-20)
(1.01447 -0.00842049 0)
(1.00565 -0.00163155 3.45383e-22)
(0.327479 -0.00870962 0)
(1.02168 -0.00519923 7.6755e-21)
(0.799331 -0.171028 5.23515e-21)
(1.00549 -0.000696955 -5.82454e-23)
(1.00753 0.000718833 -2.50478e-22)
(1.01154 -0.0633282 -1.85813e-20)
(0.115618 -0.197227 0)
(0.260449 -0.064519 0)
(-0.118183 0.0593472 0)
(1.01002 -0.000820347 -1.90015e-21)
(1.01179 -0.00144773 -4.72386e-24)
(1.01127 0.00234307 0)
(1.03532 -0.022392 -2.41861e-21)
(0.899618 0.110426 -1.32101e-21)
(1.02448 -0.00599929 -4.12996e-23)
(1.06409 -0.0920539 -7.2021e-21)
(1.0316 -0.00290713 0)
(0.906283 0.145165 2.54985e-21)
(1.09259 -0.0529753 4.16582e-20)
(1.00876 -0.000784408 0)
(-0.00405735 -0.0599187 -9.86406e-21)
(1.0021 8.87251e-05 -1.70533e-22)
(1.04304 -0.0184933 9.42975e-21)
(1.03451 -0.0221663 0)
(1.00896 -0.00442442 -4.29263e-22)
(1.02613 -0.0212278 -4.44741e-21)
(1.08606 -0.0722995 -1.39421e-20)
(1.07874 -0.059281 -2.70645e-22)
(1.0127 0.00194758 2.89613e-23)
(1.06172 -0.0292533 -1.40653e-20)
(-0.0806131 0.0479681 -2.12029e-20)
(1.00549 -0.00154106 0)
(1.02612 -0.0312751 -1.47147e-21)
(1.00999 0.00196437 2.31835e-22)
(1.02752 -0.00773179 1.02814e-22)
(1.06746 -0.0392134 -1.5815e-20)
(1.01516 -0.0127954 9.06006e-23)
(0.541852 -0.0317877 5.89991e-20)
(0.408376 -0.0053489 0)
(1.00377 -0.000107334 2.77377e-22)
(1.00915 -0.00460596 5.7311e-22)
(0.209027 -0.0945261 -8.2651e-21)
(1.00532 -0.00140361 0)
(0.87396 0.149516 0)
(1.06361 -0.052221 6.25436e-21)
(1.01012 -0.00170935 -5.87938e-22)
(1.0767 -0.1 0)
(1.00934 0.00130431 0)
(1.04318 -0.0299343 0)
(0.978123 -0.0629904 -9.77854e-23)
(1.02159 -0.0044661 7.07925e-21)
(1.03738 -0.0679804 0)
(1.00803 0.000441425 -6.17725e-25)
(1.00152 0.000103004 4.73365e-22)
(1.01737 -0.0160212 0)
(1.01036 -0.000972506 -1.08538e-21)
(1.06165 -0.0759085 1.15584e-20)
(1.04879 -0.0382041 2.69695e-22)
(0.91602 0.0885729 2.06921e-21)
(-0.042038 0.0623187 1.15785e-20)
(1.01099 0.0032224 -4.95434e-22)
(1.06155 -0.0404786 -1.12706e-20)
(0.549555 -0.155107 0)
(1.04134 -0.0180868 0)
(1.01134 -0.00175156 7.46542e-22)
(0.880454 -0.0991614 -3.38616e-21)
(1.01031 -0.00172285 0)
(1.00745 -0.00172329 0)
(1.01479 0.00714674 -3.54378e-22)
(0.369845 -0.0565245 -1.40462e-20)
(1.0015 -0.000142591 2.53601e-22)
(1.01759 -0.00654441 4.92601e-21)
(1.03908 -0.0363047 8.05421e-22)
(1.02207 -0.00470446 -1.78575e-21)
(0.319228 -0.157459 -5.84341e-22)
(1.04541 -0.0273203 1.77971e-20)
(0.448549 -0.0191682 0)
(1.01083 0.00159272 -2.68565e-23)
(0.688311 -0.0479095 -9.82604e-21)
(1.01825 -0.0139486 0)
(0.894783 -0.112967 0)
(1.00909 0.00112472 0)
(1.01097 0.00224062 0)
(0.998821 0.0767282 0)
(0.996869 -0.00895041 2.02078e-21)
(0.144982 0.0807207 0)
(1.01993 -0.00162432 -3.09485e-21)
(0.463118 -0.0212415 0)
(1.04529 -0.0279954 -1.10122e-20)
(1.03718 -0.0105421 1.25609e-20)
(0.72217 -0.0496806 -6.59883e-22)
(1.07963 -0.0791803 -1.19865e-20)
(0.594694 -0.0422283 9.78756e-21)
(1.0011 6.48756e-05 -1.79418e-23)
(1.05513 -0.0357376 0)
(1.00318 6.52027e-05 0)
(-0.060142 0.104627 -5.83361e-21)
(1.00939 0.00119665 -2.5788e-23)
(1.04238 -0.0479656 5.54675e-21)
(0.945317 -0.0645259 -1.04568e-20)
(1.00366 -8.39909e-05 -2.81794e-22)
(1.01086 0.00295268 6.05039e-24)
(1.08042 -0.0553632 0)
(1.00693 -0.0362736 -1.6504e-21)
(0.369122 -0.154183 6.43103e-22)
(1.00996 -0.110855 0)
(1.01132 0.0023416 0)
(1.01796 -0.00668089 -2.76821e-21)
(0.971832 -0.0272784 0)
(0.9382 0.0756138 3.08002e-22)
(1.01597 0.00234141 0)
(1.0397 -0.0345933 0)
(1.00514 0.000183937 7.98992e-23)
(0.543601 -0.0351892 1.25129e-20)
(1.06854 -0.0539525 0)
(0.908308 -0.16031 -4.54664e-21)
(1.03338 -0.0226929 4.08404e-21)
(1.03682 -0.029627 3.93245e-21)
(1.00654 -0.0110827 0)
(0.934269 0.0911479 -4.59903e-24)
(1.03069 -0.0143672 0)
(1.03422 -0.0229458 -4.3566e-21)
(1.07869 -0.0497694 -2.14002e-20)
(1.04171 0.0452245 4.10282e-23)
(1.04785 -0.0411824 0)
(0.991914 -0.0625486 1.62465e-20)
(0.364693 0.00569522 -2.3341e-20)
(1.02308 -0.0017241 3.70098e-21)
(1.01094 0.00225113 -2.50893e-22)
(1.01678 -0.0194058 0)
(0.908112 -0.0980968 7.62468e-22)
(1.01185 0.00325683 0)
(1.00964 -0.112695 -4.89768e-21)
(1.0407 -0.0182768 0)
(1.03069 -0.0138133 6.8499e-23)
(1.05399 -0.0311742 -9.5022e-21)
(0.75929 -0.0531247 6.43827e-22)
(1.03437 0.0100003 9.23986e-23)
(1.00556 -0.00995589 0)
(1.0423 -0.0188121 0)
(0.956027 -0.0715848 0)
(1.06064 -0.0508005 0)
(1.0359 -0.0368647 4.63902e-21)
(1.0058 -0.00177551 3.53013e-22)
(0.894805 -0.110042 0)
(1.04127 0.00242775 2.43109e-22)
(0.601714 -0.0483517 -1.934e-20)
(0.95224 0.119295 2.61989e-21)
(1.01621 0.00226758 7.33645e-24)
(1.01052 0.00143447 6.77498e-24)
(1.00436 0.000118739 5.53988e-24)
(1.07831 -0.0486866 7.19317e-21)
(0.887792 -0.0985228 1.00412e-22)
(0.851799 0.175866 0)
(1.00661 -0.00156026 0)
(1.02087 -0.000378139 -6.64297e-21)
(0.945762 -0.0665789 -1.20159e-21)
(0.902652 -0.0998635 -7.26426e-23)
(1.06587 -0.0962947 -2.65283e-20)
(1.02468 -0.0221923 0)
(1.0334 -0.0062822 4.79778e-21)
(1.06486 -0.042539 -4.03871e-22)
(0.90718 -0.104189 3.00467e-22)
(1.02842 -0.108979 1.63811e-20)
(1.02852 -0.0307296 -3.692e-21)
(0.425964 0.0945478 8.29831e-21)
(1.00607 -0.00200256 1.88636e-22)
(0.563624 -0.0372162 -3.57838e-20)
(1.06146 -0.0284624 -1.47737e-20)
(1.04189 -0.0271176 1.1837e-22)
(0.615752 -0.0493686 1.93976e-20)
(1.01988 -0.0125193 6.97392e-21)
(0.985086 -0.0110676 0)
(0.632378 -0.0383701 -1.45116e-20)
(1.00639 -0.00150816 2.36856e-22)
(1.07419 -0.045639 1.23076e-20)
(1.05304 -0.0325921 0)
(1.0244 -0.0214824 -8.63701e-22)
(0.162252 -0.197418 -1.76196e-20)
(1.02816 -0.0311895 -2.00903e-21)
(1.02889 -0.0142266 -7.49348e-21)
(0.699385 -0.0486458 0)
(1.00921 0.00158301 -2.74024e-22)
(1.03741 -0.0303086 1.52404e-21)
(1.01367 0.00854297 -3.76301e-22)
(0.645316 -0.0515956 1.77645e-20)
(1.0924 -0.0596836 9.09707e-21)
(1.02021 -0.00179889 0)
(1.07337 -0.0521162 -6.32562e-21)
(1.02076 -0.00122783 -6.34038e-21)
(0.420551 0.00138765 -7.72437e-21)
(1.00679 -0.0153572 -7.09549e-22)
(1.00223 0.000129701 0)
(1.01004 -0.00539859 -8.8872e-23)
(1.09185 -0.0595425 0)
(1.05488 -0.0343812 -8.69002e-21)
(1.04394 -0.017349 0)
(1.02073 -0.000250577 6.57326e-21)
(1.01995 -0.0123669 -2.69549e-21)
(1.02824 -0.0140542 8.05092e-21)
(0.92275 0.135784 0)
(0.115541 0.0362594 -1.42605e-20)
(0.577218 -0.0713789 -2.206e-20)
(1.01489 -0.0146973 8.56622e-22)
(0.657133 -0.0522116 -8.53443e-21)
(0.77271 -0.144271 7.31025e-21)
(1.01968 -0.000708503 0)
(1.0608 -0.0415894 0)
(1.0626 -0.0988157 2.00328e-20)
(1.02753 0.00196175 0)
(0.995385 -0.0409111 3.45508e-21)
(1.08549 -0.0673387 -1.52601e-20)
(1.07605 -0.107218 1.46334e-20)
(1.01527 -0.00911093 -6.35362e-22)
(0.84248 -0.152617 4.31515e-22)
(0.604427 -0.0375738 0)
(1.01981 -0.000579516 -4.95872e-21)
(0.984941 0.00336454 -5.9406e-22)
(0.98274 0.00880913 1.06214e-21)
(0.975601 -0.0906307 -3.97337e-21)
(1.04443 -0.0169468 5.12387e-21)
(0.991788 -0.0428235 2.54857e-21)
(-0.0694548 0.100978 0)
(1.00936 -0.00481747 0)
(0.823991 -0.158189 -1.00299e-21)
(1.00994 -0.00529377 4.74202e-23)
(1.02061 -0.00113434 5.94354e-21)
(1.00583 0.000229558 -6.10655e-23)
(1.00881 0.00113469 -1.89284e-23)
(1.00855 -0.00401573 2.7971e-22)
(0.636996 -0.0408945 0)
(0.885732 -0.0659617 0)
(1.02016 -0.0087579 -1.73648e-21)
(1.0737 -0.0441966 0)
(1.01003 0.0018538 5.14553e-23)
(0.404532 0.103143 -6.99916e-21)
(1.03474 -0.0395821 0)
(0.867361 0.16181 2.24329e-22)
(0.568659 -0.0453875 -4.60751e-20)
(1.0201 -0.00906067 0)
(0.992189 -0.00784594 2.26471e-21)
(1.05088 -0.0332432 -2.24221e-20)
(0.855284 0.167529 -1.90593e-21)
(1.01353 -0.0075791 5.38247e-22)
(1.00757 0.000851454 0)
(1.01625 -0.0144222 1.33306e-21)
(-0.0623505 0.0803072 -5.86801e-21)
(1.01059 -0.00121433 0)
(0.194427 -0.194937 1.43817e-20)
(1.02947 -0.000941 0)
(1.08653 -0.067802 0)
(0.478965 -0.0166741 -3.46976e-21)
(0.948447 0.0252177 -3.30635e-21)
(0.949335 0.0112846 1.89158e-21)
(1.00614 -0.00244032 0)
(1.00645 -0.0019998 3.00688e-22)
(1.01895 -0.000379215 2.75138e-21)
(1.01593 -0.0152986 -1.79422e-21)
(1.07446 -0.0513358 0)
(0.0365038 -0.0858511 0)
(1.06952 -0.0383616 0)
(0.633087 -0.0453737 3.65465e-20)
(0.626327 -0.0390983 -1.52644e-20)
(1.00993 0.00185769 -6.3847e-23)
(1.02356 -0.00176736 0)
(0.555576 -0.0561801 4.77557e-20)
(0.321685 -0.00770516 0)
(0.944576 -0.0526081 9.25363e-21)
(0.689032 -0.0547617 -4.50626e-21)
(1.01621 -0.0160567 -6.07308e-22)
(1.05139 -0.0343664 0)
(1.00036 4.88366e-05 4.50686e-22)
(0.831899 -0.141676 0)
(1.00471 -0.000483764 0)
(1.0372 -0.0371575 2.18813e-22)
(1.00703 -0.00250714 7.48144e-22)
(1.0297 -0.00433313 -6.61032e-21)
(1.0036 6.41481e-05 1.30609e-23)
(1.00626 -0.00138316 -2.53898e-22)
(1.01005 0.00195361 2.86892e-22)
(1.07108 -0.0717139 0)
(1.00654 -0.0463583 1.46826e-21)
(0.464934 0.00390088 -3.304e-20)
(1.01536 -0.0187762 -3.75371e-22)
(1.07407 -0.0536155 -2.17429e-20)
(1.01287 -0.0249713 1.24202e-21)
(0.953851 0.0948898 4.9307e-24)
(1.03573 -0.0311104 2.39728e-21)
(0.953719 -0.0858525 7.6652e-21)
(1.04133 -0.026313 7.70487e-21)
(1.00945 0.0555924 2.88511e-21)
(1.0076 0.000685047 9.43555e-24)
(1.00607 -0.00132711 1.16108e-22)
(1.00087 5.77463e-05 -3.19057e-22)
(1.0331 -0.121382 0)
(0.892095 0.158132 2.8347e-21)
(1.07539 -0.0816027 0)
(1.01464 -0.0239276 -1.94148e-21)
(0.430686 0.00183275 4.41665e-20)
(0.935239 -0.15899 -2.83954e-21)
(0.990438 -0.0146701 0)
(1.00773 -0.000621862 8.96128e-22)
(1.0817 -0.0552219 -1.14904e-20)
(1.01335 -0.00727851 -5.40972e-22)
(0.951067 0.106843 5.19481e-22)
(1.00397 0.000125417 -4.98717e-23)
(0.841928 -0.0548025 -7.24033e-21)
(0.91077 0.141363 1.07838e-21)
(1.03261 -0.0552559 0)
(0.444415 -0.0163891 3.69706e-21)
(1.01082 -0.00128436 0)
(1.03323 -0.0217492 -1.77007e-22)
(0.896202 0.15291 0)
(0.0803688 0.0933475 1.70653e-20)
(1.00828 0.000500305 0)
(1.05201 -0.0366275 0)
(1.0623 -0.053287 9.12675e-21)
(1.03834 0.00727192 7.21038e-23)
(1.00419 -0.000369813 -2.40729e-22)
(1.02753 -0.0143871 -6.08809e-21)
(1.0923 -0.0518106 0)
(1.0856 -0.0702047 4.77666e-20)
(1.01147 -0.0185995 -2.04539e-21)
(0.40959 0.171092 -3.6654e-22)
(1.00146 0.000101835 0)
(1.0103 -0.0056319 7.03613e-23)
(0.0386117 0.11979 0)
(1.02519 -0.0318599 -1.40471e-21)
(1.01022 0.00134974 -2.90884e-23)
(0.777606 -0.0236918 0)
(1.00629 -0.00190284 -6.35227e-22)
(1.01626 -0.0143427 2.41081e-22)
(1.00468 -0.000716841 -1.75441e-22)
(1.02472 -0.043195 -2.07385e-22)
(1.02486 -0.0194444 0)
(1.01053 0.00150234 0)
(1.011 -0.0014088 0)
(0.726738 -0.0547486 -2.0798e-20)
(1.0221 -0.0059059 3.79404e-21)
(1.06953 -0.0410853 -3.62391e-20)
(1.00579 -0.00080208 6.47504e-22)
(1.00765 -0.00457872 0)
(1.03699 -0.00157655 2.52842e-22)
(0.999157 -3.5444e-06 0)
(1.01266 -0.00777662 0)
(0.999261 3.62649e-05 0)
(0.999167 -4.95901e-06 -2.29742e-23)
(0.85929 0.160316 -1.93292e-21)
(1.03139 -0.0132404 2.0158e-21)
(0.986023 -0.0240011 0)
(1.02156 -0.00411708 -7.13358e-21)
(1.001 9.35645e-05 -5.86226e-22)
(-0.0931205 -0.016654 -7.80353e-21)
(0.43027 -0.0145919 -1.03067e-20)
(1.02301 -0.00488188 -2.06713e-21)
(1.00736 -0.0027887 0)
(1.03658 -0.0314917 0)
(0.921839 0.0617802 2.11506e-21)
(0.163517 0.0841359 -2.12491e-21)
(1.01042 -0.00576172 4.23665e-23)
(0.879664 -0.0315061 0)
(1.01392 -0.0078372 0)
(1.05654 -0.0711594 1.05655e-20)
(1.03091 -0.00559577 0)
(-0.0460477 0.126963 -2.14542e-20)
(1.00738 0.000494034 0)
(-0.0258493 0.075676 0)
(1.04826 -0.0472537 -8.01421e-22)
(1.00897 0.00144602 -8.23266e-23)
(1.00947 -0.00111502 0)
(0.578691 -0.0289801 0)
(1.04107 -0.0478337 -6.52364e-21)
(0.914261 -0.143687 -2.86812e-21)
(1.00426 -0.000395318 0)
(0.918485 -0.185199 9.90998e-21)
(1.00972 -0.000703423 2.43251e-21)
(1.00477 -0.0011052 -1.64874e-22)
(1.00591 -0.00192991 -3.79437e-22)
(1.02996 -0.00267323 3.38006e-21)
(0.345181 -0.0125835 -1.62284e-20)
(1.0764 -0.0577896 0)
(1.08909 -0.0640211 8.02826e-21)
(1.09427 -0.0828816 2.73729e-20)
(1.00004 -0.00630838 0)
(1.01302 0.00203399 0)
(0.85506 -0.106024 2.4667e-21)
(0.883359 0.159968 7.72328e-21)
(1.04423 -0.0301782 0)
(1.0609 -0.0300339 1.1872e-20)
(0.933887 0.0497553 -3.42097e-21)
(0.868746 -0.100075 -2.76348e-21)
(0.730565 -0.0505324 8.32999e-21)
(1.01766 -0.000414904 1.58041e-22)
(-0.0521715 0.127506 2.68141e-20)
(0.213435 0.0637514 3.60367e-20)
(0.297846 -0.0303864 -1.74242e-20)
(1.02726 -0.0318269 -2.49975e-21)
(1.00957 0.00061683 -1.02559e-21)
(0.830744 0.0848097 2.11334e-21)
(1.03784 -0.0159015 0)
(1.06625 0.0229593 -4.93744e-22)
(0.882559 -0.115736 4.81418e-21)
(0.713555 -0.0720774 0)
(1.02566 -0.0215927 6.73675e-21)
(0.693004 -0.0847489 0)
(0.965374 -0.0586657 0)
(1.00758 0.000574795 1.04089e-23)
(1.03994 -0.00561813 0)
(1.07789 -0.057847 0)
(0.405409 -0.00906654 -1.3874e-20)
(1.03296 -0.0233317 -2.06854e-21)
(1.01756 -0.00455767 0)
(1.00875 -0.00423871 0)
(1.01594 -0.00796021 1.1085e-21)
(1.06355 -0.0739756 1.28326e-20)
(1.01422 -0.0388292 -1.25457e-22)
(0.922364 -0.0662445 1.19987e-20)
(0.399499 0.173266 0)
(1.00438 -0.000463236 -6.50689e-23)
(0.0382448 0.117006 -3.96952e-20)
(0.471323 -0.0154682 -1.50073e-20)
(0.971402 0.00799957 2.90597e-21)
(0.884587 0.165866 -3.32934e-22)
(1.06811 -0.0407729 9.21645e-22)
(1.00967 0.0011677 1.44007e-23)
(1.00594 -0.001222 -1.18011e-22)
(1.02798 -0.0275812 0)
(0.824132 -0.099736 0)
(1.04397 -0.0189824 -1.26807e-20)
(1.09101 -0.0568526 1.95938e-21)
(1.09329 -0.0614546 -6.23459e-21)
(1.0093 0.00146221 7.48098e-23)
(1.01079 -0.0299055 -2.11551e-21)
(0.907943 -0.0925788 0)
(0.988545 -0.0849507 1.42184e-21)
(1.08264 -0.0704187 2.23634e-20)
(0.355373 -0.0139934 1.62995e-20)
(0.964496 -0.059 1.61263e-20)
(1.01408 -0.00813825 0)
(1.03017 -0.00404588 6.70392e-21)
(0.546863 0.0333289 2.80149e-22)
(0.61513 -0.0378976 -1.77045e-22)
(1.09073 -0.0606831 -1.95475e-20)
(1.07053 -0.0374279 0)
(1.00628 0.00880461 -5.07349e-21)
(1.00907 0.00123782 -2.25872e-23)
(1.01348 -0.00489114 7.85136e-22)
(0.813764 -0.0675414 5.45954e-22)
(1.00899 0.0013515 -6.26578e-23)
(1.03214 -0.0230365 1.85453e-21)
(1.00934 0.00126476 -6.88668e-23)
(1.00665 -0.00154718 8.77002e-22)
(0.945067 -0.0592888 -2.15567e-21)
(1.06747 -0.0729322 1.51311e-20)
(1.01412 -0.0214277 -1.09835e-21)
(1.00904 0.00133194 -6.27165e-23)
(0.248218 -0.191171 -1.42074e-20)
(0.870071 -0.0709539 1.59438e-21)
(1.00639 -0.00217116 0)
(1.00267 0.000143894 0)
(1.01173 0.00333754 9.22588e-23)
(1.01942 -0.000491881 -5.21134e-21)
(-0.0762133 0.0865268 0)
(0.899596 -0.14884 2.38947e-21)
(0.902778 -0.140504 0)
(0.257575 -0.0527342 -3.21644e-20)
(0.908477 -0.188626 -5.37246e-21)
(1.06971 -0.0354179 -8.25615e-21)
(0.385564 -0.00599445 -5.06934e-21)
(0.426969 -0.0157211 -1.51214e-20)
(1.01636 -0.00938835 8.96275e-22)
(1.06516 -0.0399583 -1.92279e-21)
(1.00981 0.00118547 -1.4509e-23)
(1.01491 0.00864774 -4.6053e-23)
(1.03885 -0.0389941 0)
(0.782172 -0.0654817 3.1313e-20)
(0.850173 -0.129627 0)
(1.09019 -0.0567106 1.45827e-20)
(1.0468 -0.0350388 6.69072e-21)
(1.00533 -0.00101883 -4.66191e-23)
(1.03471 -0.0370331 1.72297e-21)
(1.01171 -0.00291725 0)
(0.912382 -0.139034 4.70763e-21)
(1.07576 -0.0618599 1.86676e-20)
(1.02113 -0.00387114 0)
(1.01365 -0.0155407 -1.82929e-21)
(1.00412 -0.000388468 1.2887e-22)
(1.05547 -0.0299663 2.63982e-20)
(1.07443 -0.0842391 -1.22486e-20)
(1.0323 -0.00560912 7.30745e-21)
(1.01297 -0.00705709 0)
(1.03539 -0.0395218 -1.81375e-21)
(1.02946 -0.0088627 8.15578e-21)
(1.06294 -0.0713733 1.28532e-20)
(1.02917 -0.115202 0)
(1.07883 -0.0777249 1.45593e-20)
(1.03335 -0.0373904 0)
(1.09117 -0.0606704 2.18368e-20)
(1.00516 -0.000969995 4.74026e-23)
(0.955833 -0.0368062 0)
(1.00734 -0.0133246 2.53466e-23)
(0.189729 -0.0238926 0)
(1.01849 -0.0139222 6.76244e-22)
(1.00057 1.55447e-05 0)
(0.918802 -0.0625771 0)
(1.0206 -0.0192306 -1.05133e-22)
(0.435679 0.0017075 0)
(0.573622 -0.0354207 0)
(0.0605034 0.110308 3.69666e-20)
(0.764604 -0.0338627 0)
(1.00462 -0.000509321 -1.3814e-22)
(0.974647 -0.0645734 1.68003e-20)
(1.01686 0.00221508 -6.65118e-23)
(1.0065 -0.00172019 -3.70855e-22)
(1.0074 0.000470703 5.27263e-23)
(1.00673 -0.00172348 2.21588e-22)
(1.01998 -0.000361216 0)
(1.01504 -0.0175081 0)
(1.02391 -0.0414955 8.90626e-22)
(1.00878 0.00123168 5.97873e-23)
(0.704995 -0.143222 -2.88237e-21)
(1.05033 -0.0445889 1.86393e-21)
(0.673606 -0.146682 4.0273e-21)
(1.008 -0.00360002 -3.14826e-22)
(1.00727 0.000400908 -4.44053e-23)
(1.00353 0.000213524 4.52052e-22)
(1.05882 -0.0978539 0)
(0.53896 -0.159726 1.78029e-21)
(1.08391 -0.0479931 -3.83664e-20)
(1.05525 -0.0306291 -2.10847e-20)
(1.01722 0.00221559 9.01787e-23)
(1.00075 7.45902e-05 5.20669e-22)
(1.00339 -0.000278629 7.48447e-23)
(1.00919 -0.00463271 -4.21355e-22)
(1.10385 -0.0643391 0)
(0.301735 0.0510387 1.22287e-20)
(1.0289 -0.00855726 0)
(1.00882 0.0012111 -5.64892e-23)
(1.03033 -0.00230682 -3.49941e-21)
(1.00919 -0.00464059 1.28259e-22)
(0.945153 -0.0400533 -2.92908e-21)
(-0.0562913 0.0468977 2.25376e-20)
(1.03542 -0.0373349 0)
(0.625752 -0.0502619 -3.56526e-20)
(0.912783 -0.169511 9.80411e-22)
(1.0128 -0.00676066 0)
(1.08834 -0.0644993 0)
(0.02537 0.0850633 -1.45278e-20)
(1.06576 -0.0414598 3.25734e-20)
(0.375386 0.0638223 -4.34619e-21)
(1.03553 -0.0104555 8.55712e-21)
(1.01673 -0.0203305 -1.44061e-22)
(1.0828 -0.0477378 3.5608e-20)
(1.01634 -0.0185123 0)
(0.882026 -0.100433 -7.49554e-21)
(1.02252 -0.00462694 -5.79093e-21)
(0.835726 0.033774 -3.42357e-21)
(1.00383 9.68599e-05 -1.46727e-22)
(1.07682 -0.0274753 2.38332e-20)
(0.465952 -0.0199934 -3.29385e-21)
(1.00772 -0.00138746 0)
(1.01987 -0.0170757 -1.9469e-21)
(1.01217 0.00868155 -2.17278e-21)
(1.00493 -0.0012165 2.33249e-22)
(1.04278 -0.0289853 4.55422e-21)
(0.927136 -0.0746023 -1.74165e-21)
(0.142997 -0.130624 0)
(1.07417 -0.0618283 0)
(1.03667 -0.115452 -1.56017e-20)
(0.935969 0.0364419 0)
(1.00906 0.00116172 7.5257e-23)
(1.0078 -0.00342613 1.79061e-22)
(-0.0944528 -0.0288993 2.36915e-20)
(1.09378 -0.0612759 -6.51594e-21)
(1.00551 -0.0393213 2.5149e-23)
(0.593416 -0.0374541 -8.53203e-21)
(1.00571 -0.000265401 1.70031e-22)
(1.01632 -6.89185e-05 -5.77579e-23)
(1.00751 0.000599252 9.42686e-24)
(0.904464 -0.179199 0)
(1.06882 -0.0608739 2.97392e-20)
(1.02826 -0.0282448 -2.70059e-21)
(1.01537 -0.0114827 1.14544e-21)
(1.0355 0.0155489 7.96679e-22)
(1.05096 -0.0230211 0)
(1.00378 0.0002394 -5.00584e-22)
(0.0755291 0.0943306 -8.49521e-21)
(0.9956 0.0649647 5.22474e-22)
(0.53701 -0.0226758 1.71318e-21)
(1.00925 0.0015574 9.32882e-23)
(1.02896 -0.00807674 3.80563e-21)
(0.401351 -0.00715627 4.01119e-20)
(-0.0255947 -0.0169989 3.1846e-20)
(1.09325 -0.0610297 -2.83454e-21)
(1.01107 -0.00274995 0)
(0.855737 -0.057283 0)
(1.02215 -0.00514868 3.24329e-21)
(1.02217 0.0436246 0)
(1.01542 -0.0806522 5.64831e-21)
(1.03012 -0.0566904 -4.64421e-21)
(1.03689 -0.0280305 0)
(0.104939 0.102208 -1.12322e-21)
(1.00507 -0.00519802 1.91407e-21)
(1.0096 -0.00412598 0)
(1.10225 -0.0613014 -2.47832e-20)
(1.00074 2.59741e-05 -3.36528e-22)
(1.00084 -7.01932e-05 -1.03061e-21)
(1.02512 -0.0201174 0)
(1.00506 -0.000888524 -1.03422e-22)
(0.0797506 0.100892 -3.50837e-20)
(1.04116 -0.0378411 2.54599e-21)
(1.08413 -0.06981 -3.24971e-20)
(1.01542 -0.0208196 1.87183e-21)
(1.04204 0.00645529 1.02551e-22)
(1.00545 -0.00111998 -2.20836e-22)
(0.927661 -0.0870482 3.0954e-21)
(1.00252 -0.00023313 3.71123e-22)
(1.00493 -0.00377478 0)
(1.00698 0.00039052 5.73176e-23)
(1.01228 -0.00628039 1.10171e-21)
(1.0085 -0.00095326 -1.45907e-21)
(0.617651 -0.0368322 2.56872e-20)
(1.00874 -0.00421373 -2.91275e-22)
(1.00765 0.00104283 -1.3776e-23)
(1.0453 -0.0050357 6.77804e-21)
(1.031 -0.00419213 -8.12702e-23)
(0.422523 -0.0103669 -1.841e-20)
(1.00288 7.56482e-05 0)
(1.0119 -0.00209834 -1.20321e-21)
(1.08451 -0.0554259 0)
(0.906272 -0.0310642 5.22878e-21)
(0.905917 -0.100614 1.89163e-21)
(1.00379 -0.000315164 3.80296e-23)
(0.971725 -0.0617996 -2.09934e-21)
(0.648407 -0.0616176 3.35658e-20)
(1.03138 -0.0137818 -6.68783e-23)
(0.714738 -0.0473717 -1.78119e-20)
(1.07553 -0.0273377 -3.23349e-20)
(1.00482 -0.000766806 -3.30356e-22)
(1.00219 -0.0121786 -1.28351e-22)
(0.048385 0.103544 4.27131e-20)
(0.973987 -0.0530659 4.72755e-21)
(1.03445 -0.0298305 -4.60447e-21)
(1.00425 -0.000407402 -7.7267e-23)
(1.00856 0.00110998 -5.03195e-23)
(0.88909 0.162376 0)
(1.02457 -0.0559234 2.4864e-21)
(1.03298 -0.052059 0)
(1.02792 -0.0299838 2.3958e-21)
(0.999998 -0.0109964 8.46047e-22)
(1.01864 -0.00044639 0)
(1.0117 -0.002341 1.21509e-21)
(1.0936 -0.055699 -4.32932e-20)
(0.864899 0.0772361 0)
(1.05914 -0.0748552 -1.1886e-20)
(0.871668 -0.123637 -1.18807e-22)
(1.02837 -0.00776409 -3.27221e-21)
(1.05876 -0.0722048 0)
(1.0828 -0.0608416 -1.8409e-21)
(0.666786 -0.05435 -2.01267e-20)
(1.02733 -0.0277533 0)
(0.190185 -0.132923 -3.84582e-22)
(1.10212 -0.0853898 -2.58364e-20)
(1.03153 -0.00384325 -7.09486e-23)
(0.274217 0.0370103 3.35854e-20)
(0.964623 -0.0313679 0)
(0.650393 -0.12632 0)
(0.1538 -0.124073 0)
(0.644479 -0.0406353 2.15508e-20)
(0.912256 0.0637917 3.92519e-22)
(1.03778 -0.0408928 -6.55523e-21)
(1.00491 -0.000837093 1.89898e-22)
(1.01679 -0.0148437 7.98109e-23)
(-0.0991828 0.0645571 3.27566e-20)
(0.199371 0.0633192 -5.80024e-20)
(1.00933 -0.00463337 0)
(1.0007 6.05144e-05 0)
(1.07992 -0.0566222 -1.6289e-20)
(0.957128 -0.0824425 3.40927e-24)
(1.00838 0.00136342 3.05627e-22)
(-0.0336249 0.0310098 -6.97214e-21)
(1.00549 -0.00024553 -3.47521e-22)
(1.02134 -0.00828287 -7.02579e-21)
(0.0564257 0.113053 -1.25529e-21)
(0.407643 -0.00721096 -1.7318e-20)
(0.929171 0.0284556 -4.03002e-23)
(1.00646 -0.00176478 0)
(1.02066 -0.000911214 6.11803e-21)
(-0.0341532 -0.00274488 -3.45975e-20)
(1.09879 -0.0645376 7.71114e-21)
(1.09062 -0.0602695 0)
(1.01417 -0.00710557 -1.41027e-21)
(0.602576 -0.0738386 4.15464e-20)
(0.995221 -0.0900732 -1.43842e-21)
(0.59281 -0.152651 -3.1999e-21)
(1.07174 -0.0544979 0)
(1.07228 -0.0439737 -1.09127e-20)
(1.02809 -0.0145301 -3.83887e-21)
(1.03072 -0.00506345 1.9282e-21)
(0.580654 -0.184796 6.53506e-22)
(1.08694 -0.0440705 2.08276e-20)
(0.314838 -0.00801511 -1.35333e-20)
(1.01376 -0.0178067 -1.90832e-22)
(1.06816 -0.0379536 0)
(0.103661 0.092255 3.35983e-20)
(0.635302 -0.12062 -3.68326e-20)
(0.452467 -0.0117908 -1.67404e-20)
(1.02499 -0.00503192 0)
(1.06959 -0.0326957 0)
(1.00624 -0.0020693 -2.25518e-22)
(1.03421 -0.0376263 -3.97695e-21)
(1.01956 -0.0166638 1.65391e-21)
(0.310182 0.0575918 1.37283e-21)
(1.01093 -0.000117708 0)
(0.436308 -0.0267408 -1.89527e-20)
(1.00814 0.00130185 -1.34099e-22)
(1.08361 -0.0551109 3.33498e-21)
(1.01336 -0.00596105 0)
(1.00266 -0.0836095 1.08808e-21)
(1.0707 -0.036252 -1.04831e-20)
(1.06815 -0.0327584 1.59506e-20)
(0.624929 -0.0453268 0)
(1.07705 -0.0442481 0)
(1.02365 -0.0451415 7.16527e-22)
(1.00064 -6.19386e-05 7.21953e-23)
(1.08268 -0.0558861 -3.04221e-21)
(0.856782 0.164496 0)
(0.987084 -0.000142744 0)
(1.0309 -0.0233193 0)
(0.39692 -0.00656793 2.21701e-20)
(1.01154 0.00304542 0)
(0.233081 -0.106941 0)
(0.88206 -0.0126248 1.75362e-22)
(1.02519 -0.0121958 4.76647e-21)
(0.660624 -0.0444986 3.06325e-20)
(-0.0816812 0.0668602 1.95589e-20)
(0.435988 -0.0121099 2.11056e-21)
(0.923166 0.0815652 2.35374e-22)
(1.01152 -0.0166261 0)
(1.00957 -0.0049509 1.34635e-22)
(0.527273 -0.0200538 1.63674e-20)
(1.01601 -0.000228147 4.50465e-21)
(0.829131 -0.159973 2.09855e-22)
(0.442977 -0.0196556 -4.29994e-22)
(1.00816 -0.00372879 2.27639e-22)
(1.04975 -0.0122102 0)
(1.04089 -0.119528 0)
(0.866804 -0.0460205 0)
(0.161114 -0.10239 0)
(1.0266 -0.00956225 6.16428e-21)
(1.00285 8.56204e-05 -1.7529e-22)
(0.515984 -0.0532301 0)
(0.455693 -0.0195436 -2.46495e-20)
(1.08236 -0.0722884 -5.61471e-21)
(1.03409 -0.028903 -4.74087e-21)
(1.01323 -0.00678266 0)
(0.881915 0.020871 2.29376e-22)
(0.0386345 0.122938 0)
(1.08276 -0.0618317 -6.81859e-21)
(1.00766 0.00108097 -5.27677e-23)
(1.03784 -0.041583 6.94959e-21)
(1.00504 -0.00126995 0)
(1.00393 -0.00023528 -1.76131e-21)
(0.972071 0.0140532 -5.75218e-22)
(1.00017 5.22058e-05 -5.27274e-22)
(0.843397 -0.0861362 0)
(0.969631 0.098266 -1.35806e-21)
(1.02129 -0.00861594 8.34279e-21)
(1.01166 -0.00117877 6.59776e-22)
(1.00972 -0.00504562 -2.98929e-23)
(1.02583 -0.0204886 0)
(0.348218 -0.00685947 1.89344e-20)
(0.578186 -0.0327349 -6.23062e-21)
(1.05299 -0.0359376 8.2298e-21)
(0.194512 -0.146893 -1.41795e-21)
(1.01343 -0.00579598 8.98233e-22)
(1.05083 -0.0361578 0)
(1.00932 -0.00471573 0)
(1.00518 -0.00135382 2.77726e-22)
(1.02097 -0.0119701 1.56174e-21)
(1.02076 -0.00852342 -5.89468e-21)
(0.389528 -0.0112081 -1.77462e-20)
(1.02311 -0.0052287 5.81758e-21)
(1.08163 -0.0484174 -8.62881e-21)
(1.02511 -0.00543578 -5.29668e-21)
(1.03535 -0.0301487 -5.38731e-23)
(0.965606 0.00906111 0)
(-0.0231647 -0.0428669 -1.65197e-20)
(1.0037 -0.000351314 4.63035e-22)
(0.556335 0.0446686 -5.52714e-22)
(1.03531 -0.0530244 -1.21194e-21)
(1.09058 -0.0720834 -2.74254e-20)
(1.04174 -0.0385063 0)
(1.04675 -0.0400865 0)
(0.307055 -0.00611522 0)
(1.0564 -0.0295357 -7.41144e-21)
(1.0099 -0.0365955 1.40922e-21)
(0.319828 0.0712511 4.3833e-21)
(0.958818 -0.192571 0)
(-0.0257628 0.111737 -2.68549e-20)
(1.04885 -0.0474396 0)
(0.918463 0.139728 -1.31734e-21)
(1.0183 -0.0134016 -1.65765e-21)
(1.07612 -0.0431062 2.14603e-20)
(1.071 -0.0530111 1.27278e-20)
(0.158646 -0.122519 0)
(1.00316 -0.0002161 -7.31035e-24)
(0.1424 -0.108988 -3.24198e-21)
(1.00762 -0.00328568 3.11264e-22)
(1.00818 -0.00374894 1.82034e-22)
(0.0299213 -0.108527 -6.84222e-21)