/*--------------------------------*- C++ -*----------------------------------*\
| =========                 |                                                 |
| \\      /  F ield         | OpenFOAM: The Open Source CFD Toolbox           |
|  \\    /   O peration     | Version:  v2012                                 |
|   \\  /    A nd           | Website:  www.openfoam.com                      |
|    \\/     M anipulation  |                                                 |
\*---------------------------------------------------------------------------*/
FoamFile
{
    version     2.0;
    format      ascii;
    class       pointVectorField;
    location    "600";
    object      pointDisplacement;
}
// * * * * * * * * * * * * * * * * * * * * * * * * * * * * * * * * * * * * * //

dimensions      [0 1 0 0 0 0 0];


internalField   nonuniform List<vector> 
14386
(
(0 0 0)
(0 0.08 0)
(0 0 0)
(0 0.08 0)
(0 0 0)
(0 0 0)
(0 0 0)
(0 0 0)
(0 0 0)
(0 0 0)
(0 0 0)
(0 0 0)
(0 0 0)
(0 0 0)
(0 0 0)
(0 0 0)
(0 0 0)
(0 0 0)
(0 0 0)
(0 0 0)
(0 0 0)
(0 0 0)
(0 0 0)
(0 0 0)
(0 0 0)
(0 0 0)
(0 0 0)
(0 0 0)
(0 0 0)
(0 0 0)
(0 0 0)
(0 0 0)
(0 0 0)
(0 0 0)
(0 0 0)
(0 0 0)
(0 0 0)
(0 0 0)
(0 0 0)
(0 0 0)
(0 0 0)
(0 0 0)
(0 0 0)
(0 0 0)
(0 0 0)
(0 0 0)
(0 0 0)
(0 0 0)
(0 0 0)
(0 0 0)
(0 0 0)
(0 0 0)
(0 0 0)
(0 0 0)
(0 0 0)
(0 0 0)
(0 0 0)
(0 0 0)
(0 0 0)
(0 0 0)
(0 0 0)
(0 0 0)
(0 0 0)
(0 0 0)
(0 0 0)
(0 0 0)
(0 0 0)
(0 0 0)
(0 0 0)
(0 0 0)
(0 0 0)
(0 0 0)
(0 0 0)
(0 0 0)
(0 0 0)
(0 0 0)
(0 0 0)
(0 0 0)
(0 0 0)
(0 0 0)
(0 0 0)
(0 0 0)
(0 0 0)
(0 0 0)
(0 0 0)
(0 0 0)
(0 0 0)
(0 0 0)
(0 0 0)
(0 0 0)
(0 0 0)
(0 0 0)
(0 0 0)
(0 0 0)
(0 0 0)
(0 0 0)
(0 0 0)
(0 0 0)
(0 0 0)
(0 0 0)
(0 0 0)
(0 0 0)
(0 0 0)
(0 0 0)
(0 0 0)
(0 0 0)
(0 0 0)
(0 0 0)
(0 0 0)
(0 0 0)
(0 0 0)
(0 0 0)
(0 0 0)
(0 0 0)
(0 0 0)
(0 0 0)
(0 0 0)
(0 0 0)
(0 0 0)
(0 0 0)
(0 0 0)
(0 0 0)
(0 0 0)
(0 0 0)
(0 0 0)
(0 0 0)
(0 0 0)
(0 0 0)
(0 0 0)
(0 0 0)
(0 0 0)
(0 0 0)
(0 0 0)
(0 0.08 0)
(0 0.08 0)
(0 0.08 0)
(0 0.08 0)
(0 0.08 0)
(0 0.08 0)
(0 0.08 0)
(0 0.08 0)
(0 0.08 0)
(0 0.08 0)
(0 0.08 0)
(0 0.08 0)
(0 0.08 0)
(0 0.08 0)
(0 0.08 0)
(0 0.08 0)
(0 0.08 0)
(0 0.08 0)
(0 0.08 0)
(0 0.08 0)
(0 0.08 0)
(0 0.08 0)
(0 0.08 0)
(0 0.08 0)
(0 0.08 0)
(0 0.08 0)
(0 0.08 0)
(0 0.08 0)
(0 0.08 0)
(0 0 0)
(0 0 0)
(0 0 0)
(0 0 0)
(0 0 0)
(0 0 0)
(0 0 0)
(0 0 0)
(0 0 0)
(0 0 0)
(0 0 0)
(0 0 0)
(0 0 0)
(0 0 0)
(0 0 0)
(0 0 0)
(0 0 0)
(0 0 0)
(0 0 0)
(0 0 0)
(0 0 0)
(0 0 0)
(0 0 0)
(0 0 0)
(0 0 0)
(0 0 0)
(0 0 0)
(0 0 0)
(0 0 0)
(0 0 0)
(0 0 0)
(0 0 0)
(0 0 0)
(0 0 0)
(0 0 0)
(0 0 0)
(0 0 0)
(0 0 0)
(0 0 0)
(0 0 0)
(0 0 0)
(0 0 0)
(0 0 0)
(0 0 0)
(0 0 0)
(0 0 0)
(0 0 0)
(0 0 0)
(0 0 0)
(0 0 0)
(0 0 0)
(0 0 0)
(0 0 0)
(0 0 0)
(0 0 0)
(0 0 0)
(0 0 0)
(0 0 0)
(0 0 0)
(0 0 0)
(0 0 0)
(0 0 0)
(0 0 0)
(0 0 0)
(0 0 0)
(0 0 0)
(0 0 0)
(0 0 0)
(0 0 0)
(0 0 0)
(0 0 0)
(0 0 0)
(0 0 0)
(0 0 0)
(0 0 0)
(0 0 0)
(0 0 0)
(0 0 0)
(0 0 0)
(0 0 0)
(0 0 0)
(0 0 0)
(0 0 0)
(0 0 0)
(0 0 0)
(0 0 0)
(0 0 0)
(0 0 0)
(0 0 0)
(0 0 0)
(0 0 0)
(0 0 0)
(0 0 0)
(0 0 0)
(0 0 0)
(0 0 0)
(0 0 0)
(0 0 0)
(0 0 0)
(0 0 0)
(0 0 0)
(0 0 0)
(0 0 0)
(0 0 0)
(0 0 0)
(0 0 0)
(0 0 0)
(0 0 0)
(0 0 0)
(0 0 0)
(0 0 0)
(0 0 0)
(0 0 0)
(0 0 0)
(0 0 0)
(0 0 0)
(0 0 0)
(0 0 0)
(0 0 0)
(0 0 0)
(0 0 0)
(0 0 0)
(0 0 0)
(0 0 0)
(0 0 0)
(0 0 0)
(0 0 0)
(0 0 0)
(0 0 0)
(0 0.08 0)
(0 0.08 0)
(0 0.08 0)
(0 0.08 0)
(0 0.08 0)
(0 0.08 0)
(0 0.08 0)
(0 0.08 0)
(0 0.08 0)
(0 0.08 0)
(0 0.08 0)
(0 0.08 0)
(0 0.08 0)
(0 0.08 0)
(0 0.08 0)
(0 0.08 0)
(0 0.08 0)
(0 0.08 0)
(0 0.08 0)
(0 0.08 0)
(0 0.08 0)
(0 0.08 0)
(0 0.08 0)
(0 0.08 0)
(0 0.08 0)
(0 0.08 0)
(0 0.08 0)
(0 0.08 0)
(0 0.08 0)
(0 0.00271761 0)
(0 0.0799996 0)
(0 0.0799996 0)
(0 0.0799996 0)
(0 0.00340847 0)
(0 0.00151637 0)
(0 0.00110075 0)
(0 0.00196953 0)
(0 0.00438723 0)
(0 0.000782725 0)
(0 0.00477155 0)
(0 0.000543776 0)
(0 0.00510766 0)
(0 0.00571814 0)
(0 0.000534051 0)
(0 0.0799996 0)
(0 0.000473858 0)
(0 0.000417795 0)
(0 0.000401545 0)
(0 0.000312435 0)
(0 0.000280384 0)
(0 0.00241482 0)
(0 0.00195084 0)
(0 0.00129218 0)
(0 0.0799996 0)
(0 0.0799996 0)
(0 0.000181866 0)
(0 0.000177896 0)
(0 0.00515625 0)
(0 0.00551817 0)
(0 0.00497291 0)
(0 0.00410449 0)
(0 0.00285902 0)
(0 0.000727678 0)
(0 0.000931787 0)
(0 0.000521979 0)
(0 0.00051066 0)
(0 0.000493837 0)
(0 0.0799996 0)
(0 0.000116075 0)
(0 9.49538e-05 0)
(0 0.00535306 0)
(0 0.00364862 0)
(0 0.00292599 0)
(0 0.00256221 0)
(0 0.00260428 0)
(0 0.00182549 0)
(0 0.00152505 0)
(0 0.00142663 0)
(0 0.00123776 0)
(0 0.000232703 0)
(0 0.000508734 0)
(0 0.000864936 0)
(0 0.000590277 0)
(0 0.000237425 0)
(0 0.000283473 0)
(0 0.00037477 0)
(0 0.00073945 0)
(0 3.88065e-05 0)
(0 0.0750875 0)
(0 0.0745837 0)
(0 0.0748849 0)
(0 0.0743689 0)
(0 0.0746765 0)
(0 0.0751699 0)
(0 0.0749638 0)
(0 0.074461 0)
(0 0.0747523 0)
(0 0.075231 0)
(0 0.0750237 0)
(0 0.0745318 0)
(0 0.0748078 0)
(0 0.0743021 0)
(0 0.0745834 0)
(0 0.0750629 0)
(0 0.0748504 0)
(0 0.0743503 0)
(0 0.0746226 0)
(0 0.0751603 0)
(0 0.0748718 0)
(0 0.0743761 0)
(0 0.0746263 0)
(0 0.0750888 0)
(0 0.0748557 0)
(0 0.0752935 0)
(0 0.0750676 0)
(0 0.0746161 0)
(0 0.0748341 0)
(0 0.0752649 0)
(0 0.0750352 0)
(0 0.0754497 0)
(0 0.0752199 0)
(0 0.0756213 0)
(0 0.0753917 0)
(0 0.0749745 0)
(0 0.0751486 0)
(0 0.0755542 0)
(0 0.0753125 0)
(0 0.075708 0)
(0 0.0754638 0)
(0 0.0758564 0)
(0 0.0756016 0)
(0 0.0759764 0)
(0 0.0757252 0)
(0 0.0760709 0)
(0 0.0758404 0)
(0 0.0761597 0)
(0 0.0759308 0)
(0 0.0762438 0)
(0 0.0759982 0)
(0 0.0763212 0)
(0 0.0760651 0)
(0 0.0763832 0)
(0 0.0761246 0)
(0 0.0764328 0)
(0 0.0761704 0)
(0 0.0764718 0)
(0 0.0762031 0)
(0 0.076502 0)
(0 0.0762219 0)
(0 0.0765179 0)
(0 0.0762226 0)
(0 0.0765194 0)
(0 0.0762091 0)
(0 0.0765096 0)
(0 0.0761882 0)
(0 0.0764871 0)
(0 0.0761637 0)
(0 0.0764554 0)
(0 0.0761316 0)
(0 0.0764153 0)
(0 0.0760797 0)
(0 0.0763488 0)
(0 0.0760059 0)
(0 0.0762605 0)
(0 0.0759172 0)
(0 0.0761686 0)
(0 0.0758145 0)
(0 0.0760645 0)
(0 0.0756947 0)
(0 0.0759428 0)
(0 0.0755652 0)
(0 0.0758082 0)
(0 0.0754222 0)
(0 0.0756491 0)
(0 0.0752627 0)
(0 0.0754704 0)
(0 0.0750782 0)
(0 0.0752823 0)
(0 0.0748743 0)
(0 0.075078 0)
(0 0.0746599 0)
(0 0.074851 0)
(0 0.0744215 0)
(0 0.0742214 0)
(0 0.0739744 0)
(0 0.0754027 0)
(0 0.0758563 0)
(0 0.0756704 0)
(0 0.0747146 0)
(0 0.073763 0)
(0 0.0735077 0)
(0 0.0746018 0)
(0 0.0732817 0)
(0 0.0730184 0)
(0 0.0727714 0)
(0 0.0724937 0)
(0 0.0722309 0)
(0 0.071944 0)
(0 0.0716656 0)
(0 0.0713702 0)
(0 0.0710759 0)
(0 0.0707716 0)
(0 0.0710564 0)
(0 0.0704438 0)
(0 0.070715 0)
(0 0.07009 0)
(0 0.0698129 0)
(0 0.0694453 0)
(0 0.0703431 0)
(0 0.0691595 0)
(0 0.068776 0)
(0 0.068477 0)
(0 0.0680799 0)
(0 0.0677611 0)
(0 0.067357 0)
(0 0.06701 0)
(0 0.0666084 0)
(0 0.0662392 0)
(0 0.0658341 0)
(0 0.0654487 0)
(0 0.0650365 0)
(0 0.0654062 0)
(0 0.064602 0)
(0 0.0649662 0)
(0 0.0641407 0)
(0 0.0644788 0)
(0 0.0636519 0)
(0 0.0633163 0)
(0 0.0628204 0)
(0 0.0624662 0)
(0 0.0619645 0)
(0 0.0639585 0)
(0 0.0615965 0)
(0 0.0610903 0)
(0 0.0607067 0)
(0 0.0601987 0)
(0 0.0597956 0)
(0 0.0592853 0)
(0 0.0588634 0)
(0 0.0583533 0)
(0 0.0587491 0)
(0 0.0578127 0)
(0 0.0581807 0)
(0 0.0572453 0)
(0 0.0568627 0)
(0 0.056296 0)
(0 0.0558892 0)
(0 0.0552776 0)
(0 0.0549074 0)
(0 0.0543247 0)
(0 0.0566143 0)
(0 0.0539305 0)
(0 0.0533736 0)
(0 0.0529349 0)
(0 0.0523847 0)
(0 0.0519292 0)
(0 0.051383 0)
(0 0.0750222 0)
(0 0.050914 0)
(0 0.0503716 0)
(0 0.0508069 0)
(0 0.0497982 0)
(0 0.050196 0)
(0 0.0491947 0)
(0 0.0487873 0)
(0 0.0482002 0)
(0 0.0477742 0)
(0 0.0472041 0)
(0 0.0485772 0)
(0 0.0467556 0)
(0 0.0461892 0)
(0 0.045728 0)
(0 0.0451599 0)
(0 0.0446963 0)
(0 0.0441351 0)
(0 0.0436641 0)
(0 0.0431143 0)
(0 0.0426345 0)
(0 0.0420975 0)
(0 0.0425386 0)
(0 0.0415336 0)
(0 0.0419359 0)
(0 0.0409435 0)
(0 0.0405348 0)
(0 0.0399558 0)
(0 0.04033 0)
(0 0.0393548 0)
(0 0.0389733 0)
(0 0.0383863 0)
(0 0.0379961 0)
(0 0.0374231 0)
(0 0.0370242 0)
(0 0.0364658 0)
(0 0.0368282 0)
(0 0.0358855 0)
(0 0.035516 0)
(0 0.0349505 0)
(0 0.0345748 0)
(0 0.0340236 0)
(0 0.0336417 0)
(0 0.0331053 0)
(0 0.0334517 0)
(0 0.0325484 0)
(0 0.0321956 0)
(0 0.0316537 0)
(0 0.0312951 0)
(0 0.0307681 0)
(0 0.0304037 0)
(0 0.0298921 0)
(0 0.0302223 0)
(0 0.0293613 0)
(0 0.0290265 0)
(0 0.0285108 0)
(0 0.0281717 0)
(0 0.0276708 0)
(0 0.0273272 0)
(0 0.0268403 0)
(0 0.0271525 0)
(0 0.0263346 0)
(0 0.0260199 0)
(0 0.0255281 0)
(0 0.0252092 0)
(0 0.0247328 0)
(0 0.0747612 0)
(0 0.0751697 0)
(0 0.0749025 0)
(0 0.0753032 0)
(0 0.0244099 0)
(0 0.0239511 0)
(0 0.0242407 0)
(0 0.0234768 0)
(0 0.023185 0)
(0 0.0237235 0)
(0 0.0229794 0)
(0 0.0231722 0)
(0 0.0224612 0)
(0 0.0763108 0)
(0 0.0658357 0)
(0 0.0431497 0)
(0 0.0514303 0)
(0 0.0763983 0)
(0 0.0766816 0)
(0 0.0767539 0)
(0 0.0593456 0)
(0 0.0795129 0)
(0 0.0795576 0)
(0 0.0794974 0)
(0 0.0795431 0)
(0 0.079481 0)
(0 0.0795274 0)
(0 0.0795849 0)
(0 0.0795692 0)
(0 0.0795109 0)
(0 0.0795534 0)
(0 0.0794935 0)
(0 0.0795367 0)
(0 0.0796193 0)
(0 0.0794744 0)
(0 0.0795183 0)
(0 0.0794529 0)
(0 0.079498 0)
(0 0.0794295 0)
(0 0.0794756 0)
(0 0.0795401 0)
(0 0.0795187 0)
(0 0.0795791 0)
(0 0.0795584 0)
(0 0.0796149 0)
(0 0.0795949 0)
(0 0.079536 0)
(0 0.0795733 0)
(0 0.0796482 0)
(0 0.0795109 0)
(0 0.079549 0)
(0 0.0793805 0)
(0 0.0794825 0)
(0 0.0795214 0)
(0 0.0794505 0)
(0 0.0794905 0)
(0 0.0795577 0)
(0 0.0795268 0)
(0 0.0795898 0)
(0 0.0795594 0)
(0 0.0796179 0)
(0 0.0795881 0)
(0 0.0796433 0)
(0 0.0796139 0)
(0 0.0796672 0)
(0 0.0796372 0)
(0 0.0796895 0)
(0 0.0796591 0)
(0 0.079709 0)
(0 0.0796772 0)
(0 0.0797238 0)
(0 0.0796849 0)
(0 0.0797357 0)
(0 0.0797024 0)
(0 0.0797473 0)
(0 0.0797117 0)
(0 0.0797556 0)
(0 0.0797191 0)
(0 0.0797607 0)
(0 0.0797233 0)
(0 0.079764 0)
(0 0.0797263 0)
(0 0.0797653 0)
(0 0.0797275 0)
(0 0.0797642 0)
(0 0.0797248 0)
(0 0.0797605 0)
(0 0.0797193 0)
(0 0.0797542 0)
(0 0.0797113 0)
(0 0.0797455 0)
(0 0.0797009 0)
(0 0.0797337 0)
(0 0.0796882 0)
(0 0.0797189 0)
(0 0.0796714 0)
(0 0.0797009 0)
(0 0.0796492 0)
(0 0.079679 0)
(0 0.0796234 0)
(0 0.0796545 0)
(0 0.0796623 0)
(0 0.0796843 0)
(0 0.0795961 0)
(0 0.0796223 0)
(0 0.079578 0)
(0 0.0797379 0)
(0 0.079415 0)
(0 0.0713595 0)
(0 0.0797302 0)
(0 0.0759001 0)
(0 0.0797926 0)
(0 0.0797859 0)
(0 0.0793716 0)
(0 0.0793318 0)
(0 0.0792845 0)
(0 0.079242 0)
(0 0.0791879 0)
(0 0.0791423 0)
(0 0.0790826 0)
(0 0.079032 0)
(0 0.0789695 0)
(0 0.0789121 0)
(0 0.0788497 0)
(0 0.0789751 0)
(0 0.0788482 0)
(0 0.0789138 0)
(0 0.0787794 0)
(0 0.0788461 0)
(0 0.0787046 0)
(0 0.0787708 0)
(0 0.0647592 0)
(0 0.0642289 0)
(0 0.078623 0)
(0 0.0786883 0)
(0 0.078552 0)
(0 0.0797993 0)
(0 0.0767865 0)
(0 0.0758359 0)
(0 0.0760633 0)
(0 0.0750033 0)
(0 0.0375603 0)
(0 0.0248541 0)
(0 0.0217243 0)
(0 0.0277964 0)
(0 0.0308965 0)
(0 0.0396927 0)
(0 0.0328642 0)
(0 0.0296579 0)
(0 0.0462682 0)
(0 0.0650312 0)
(0 0.0653933 0)
(0 0.0645712 0)
(0 0.0649038 0)
(0 0.0640653 0)
(0 0.0643647 0)
(0 0.0634907 0)
(0 0.0637767 0)
(0 0.0628916 0)
(0 0.0631256 0)
(0 0.0622145 0)
(0 0.0624083 0)
(0 0.0614391 0)
(0 0.0616674 0)
(0 0.0606597 0)
(0 0.0609242 0)
(0 0.0598081 0)
(0 0.0598955 0)
(0 0.0588781 0)
(0 0.0589507 0)
(0 0.0579094 0)
(0 0.0579759 0)
(0 0.0569062 0)
(0 0.058994 0)
(0 0.0579921 0)
(0 0.0590114 0)
(0 0.05796 0)
(0 0.0590012 0)
(0 0.0579045 0)
(0 0.0589373 0)
(0 0.0577868 0)
(0 0.0588244 0)
(0 0.0576218 0)
(0 0.0564258 0)
(0 0.0586758 0)
(0 0.0574116 0)
(0 0.0584626 0)
(0 0.0571253 0)
(0 0.0581869 0)
(0 0.056818 0)
(0 0.0578801 0)
(0 0.0564591 0)
(0 0.0575259 0)
(0 0.0560436 0)
(0 0.057123 0)
(0 0.0549499 0)
(0 0.0592382 0)
(0 0.0555761 0)
(0 0.0566601 0)
(0 0.0550481 0)
(0 0.0561379 0)
(0 0.0577131 0)
(0 0.0571947 0)
(0 0.05872 0)
(0 0.0582126 0)
(0 0.0566414 0)
(0 0.057664 0)
(0 0.0596889 0)
(0 0.0560364 0)
(0 0.0570593 0)
(0 0.0553624 0)
(0 0.0563918 0)
(0 0.0546166 0)
(0 0.0556629 0)
(0 0.0573981 0)
(0 0.0566812 0)
(0 0.0583687 0)
(0 0.0576584 0)
(0 0.0559099 0)
(0 0.0568911 0)
(0 0.0592889 0)
(0 0.0550768 0)
(0 0.0560671 0)
(0 0.0599638 0)
(0 0.0568267 0)
(0 0.055803 0)
(0 0.0557461 0)
(0 0.0546796 0)
(0 0.0541539 0)
(0 0.0551699 0)
(0 0.0546469 0)
(0 0.0535432 0)
(0 0.0535217 0)
(0 0.0523956 0)
(0 0.0523834 0)
(0 0.051235 0)
(0 0.0512321 0)
(0 0.0500655 0)
(0 0.0500188 0)
(0 0.0488312 0)
(0 0.0487316 0)
(0 0.0475242 0)
(0 0.0473667 0)
(0 0.046141 0)
(0 0.0463168 0)
(0 0.044912 0)
(0 0.0451016 0)
(0 0.0436564 0)
(0 0.0438805 0)
(0 0.0424117 0)
(0 0.0426639 0)
(0 0.0411916 0)
(0 0.041447 0)
(0 0.0399668 0)
(0 0.0402323 0)
(0 0.038746 0)
(0 0.0390209 0)
(0 0.0375343 0)
(0 0.0378145 0)
(0 0.0363312 0)
(0 0.0366235 0)
(0 0.0459016 0)
(0 0.0351334 0)
(0 0.0354323 0)
(0 0.0339487 0)
(0 0.0342038 0)
(0 0.0327848 0)
(0 0.0330481 0)
(0 0.0408606 0)
(0 0.0316406 0)
(0 0.0319437 0)
(0 0.0304961 0)
(0 0.0308379 0)
(0 0.0293757 0)
(0 0.0297149 0)
(0 0.0282655 0)
(0 0.0286128 0)
(0 0.0271753 0)
(0 0.0275279 0)
(0 0.0359642 0)
(0 0.0260969 0)
(0 0.0264614 0)
(0 0.0278143 0)
(0 0.0267541 0)
(0 0.0254211 0)
(0 0.0257174 0)
(0 0.0243989 0)
(0 0.0247016 0)
(0 0.0259647 0)
(0 0.0249574 0)
(0 0.0237086 0)
(0 0.0239709 0)
(0 0.0227362 0)
(0 0.0230026 0)
(0 0.0217836 0)
(0 0.0220538 0)
(0 0.0208509 0)
(0 0.0211268 0)
(0 0.0222795 0)
(0 0.0213589 0)
(0 0.0202223 0)
(0 0.0204604 0)
(0 0.0193406 0)
(0 0.0195849 0)
(0 0.018483 0)
(0 0.0187323 0)
(0 0.0197862 0)
(0 0.0189369 0)
(0 0.0179035 0)
(0 0.018111 0)
(0 0.017097 0)
(0 0.0173088 0)
(0 0.0163122 0)
(0 0.0165277 0)
(0 0.0174778 0)
(0 0.0166979 0)
(0 0.0157684 0)
(0 0.0159475 0)
(0 0.0150347 0)
(0 0.0152041 0)
(0 0.016083 0)
(0 0.0153432 0)
(0 0.014342 0)
(0 0.0146288 0)
(0 0.0154535 0)
(0 0.0147586 0)
(0 0.0139936 0)
(0 0.0140775 0)
(0 0.0147935 0)
(0 0.014136 0)
(0 0.0134078 0)
(0 0.0134806 0)
(0 0.0141808 0)
(0 0.013528 0)
(0 0.0141859 0)
(0 0.0135387 0)
(0 0.0128794 0)
(0 0.0128969 0)
(0 0.0135189 0)
(0 0.0128836 0)
(0 0.0134628 0)
(0 0.0128386 0)
(0 0.0122555 0)
(0 0.0122172 0)
(0 0.0127711 0)
(0 0.0121533 0)
(0 0.0126828 0)
(0 0.0120629 0)
(0 0.0115394 0)
(0 0.0114497 0)
(0 0.011949 0)
(0 0.0113411 0)
(0 0.0108448 0)
(0 0.0118133 0)
(0 0.01121 0)
(0 0.0116562 0)
(0 0.0110596 0)
(0 0.0114782 0)
(0 0.0108839 0)
(0 0.0112789 0)
(0 0.0106807 0)
(0 0.0110689 0)
(0 0.0104507 0)
(0 0.010074 0)
(0 0.0108282 0)
(0 0.0102098 0)
(0 0.0105609 0)
(0 0.00995906 0)
(0 0.0102814 0)
(0 0.00967974 0)
(0 0.0099803 0)
(0 0.0111729 0)
(0 0.012085 0)
(0 0.0093721 0)
(0 0.00966222 0)
(0 0.00907412 0)
(0 0.0261679 0)
(0 0.031253 0)
(0 0.0090566 0)
(0 0.00933329 0)
(0 0.00993418 0)
(0 0.00958898 0)
(0 0.0101892 0)
(0 0.00982731 0)
(0 0.0324546 0)
(0 0.00923163 0)
(0 0.0094538 0)
(0 0.0531474 0)
(0 0.0541914 0)
(0 0.0561645 0)
(0 0.0552011 0)
(0 0.0571106 0)
(0 0.0561651 0)
(0 0.0580106 0)
(0 0.0570826 0)
(0 0.0588876 0)
(0 0.057956 0)
(0 0.0560773 0)
(0 0.0569662 0)
(0 0.0587513 0)
(0 0.0578518 0)
(0 0.0559251 0)
(0 0.0568206 0)
(0 0.0587174 0)
(0 0.0576896 0)
(0 0.0557207 0)
(0 0.0566066 0)
(0 0.058528 0)
(0 0.0574626 0)
(0 0.0593325 0)
(0 0.0582839 0)
(0 0.0563271 0)
(0 0.057166 0)
(0 0.0590782 0)
(0 0.0579822 0)
(0 0.0559768 0)
(0 0.0568188 0)
(0 0.0587734 0)
(0 0.0576296 0)
(0 0.0595312 0)
(0 0.0584054 0)
(0 0.0564189 0)
(0 0.0572109 0)
(0 0.0591857 0)
(0 0.0579929 0)
(0 0.0559626 0)
(0 0.00886132 0)
(0 0.00906913 0)
(0 0.0392117 0)
(0 0.052067 0)
(0 0.0509889 0)
(0 0.0267235 0)
(0 0.0104279 0)
(0 0.064018 0)
(0 0.00847931 0)
(0 0.00867392 0)
(0 0.0205311 0)
(0 0.0497914 0)
(0 0.0486878 0)
(0 0.00808677 0)
(0 0.00826938 0)
(0 0.00885435 0)
(0 0.00789112 0)
(0 0.0535542 0)
(0 0.0473622 0)
(0 0.0462252 0)
(0 0.044058 0)
(0 0.0523311 0)
(0 0.0447756 0)
(0 0.0435894 0)
(0 0.0355855 0)
(0 0.0160558 0)
(0 0.0199452 0)
(0 0.0544633 0)
(0 0.075223 0)
(0 0.0784642 0)
(0 0.0783876 0)
(0 0.075777 0)
(0 0.0740419 0)
(0 0.0796656 0)
(0 0.0796958 0)
(0 0.0797114 0)
(0 0.0797384 0)
(0 0.0797523 0)
(0 0.079776 0)
(0 0.0797878 0)
(0 0.0798086 0)
(0 0.079819 0)
(0 0.0798375 0)
(0 0.0798464 0)
(0 0.0798626 0)
(0 0.0798702 0)
(0 0.0798844 0)
(0 0.0798909 0)
(0 0.0799035 0)
(0 0.0799089 0)
(0 0.07992 0)
(0 0.0799244 0)
(0 0.079914 0)
(0 0.0799285 0)
(0 0.0799184 0)
(0 0.0799317 0)
(0 0.0799226 0)
(0 0.079935 0)
(0 0.0799264 0)
(0 0.0799386 0)
(0 0.0799298 0)
(0 0.0799416 0)
(0 0.0799329 0)
(0 0.0799443 0)
(0 0.0799356 0)
(0 0.0799466 0)
(0 0.0799382 0)
(0 0.0799488 0)
(0 0.0799341 0)
(0 0.0799301 0)
(0 0.0799542 0)
(0 0.0799429 0)
(0 0.0799396 0)
(0 0.0799506 0)
(0 0.0799471 0)
(0 0.0799575 0)
(0 0.0799537 0)
(0 0.0799635 0)
(0 0.0799605 0)
(0 0.0799663 0)
(0 0.0799714 0)
(0 0.0799736 0)
(0 0.0799498 0)
(0 0.0799572 0)
(0 0.0799779 0)
(0 0.0799796 0)
(0 0.079946 0)
(0 0.0799535 0)
(0 0.0799832 0)
(0 0.0799844 0)
(0 0.0798298 0)
(0 0.0799172 0)
(0 0.0794307 0)
(0 0.078903 0)
(0 0.078778 0)
(0 0.0788323 0)
(0 0.0786973 0)
(0 0.0787549 0)
(0 0.0786175 0)
(0 0.0786691 0)
(0 0.0785269 0)
(0 0.0785743 0)
(0 0.0784147 0)
(0 0.0784704 0)
(0 0.078296 0)
(0 0.0783578 0)
(0 0.0783843 0)
(0 0.0781744 0)
(0 0.0782371 0)
(0 0.0780432 0)
(0 0.0781071 0)
(0 0.0782948 0)
(0 0.0781666 0)
(0 0.0799416 0)
(0 0.0799491 0)
(0 0.0799598 0)
(0 0.0799557 0)
(0 0.0799655 0)
(0 0.0799614 0)
(0 0.0799705 0)
(0 0.0799663 0)
(0 0.0799746 0)
(0 0.0799704 0)
(0 0.0796641 0)
(0 0.0799874 0)
(0 0.0799883 0)
(0 0.0799856 0)
(0 0.0799891 0)
(0 0.0783469 0)
(0 0.0782217 0)
(0 0.079956 0)
(0 0.0420315 0)
(0 0.0408167 0)
(0 0.0432294 0)
(0 0.0604118 0)
(0 0.0783973 0)
(0 0.0782728 0)
(0 0.0784472 0)
(0 0.0783209 0)
(0 0.0781338 0)
(0 0.078183 0)
(0 0.0779638 0)
(0 0.0783666 0)
(0 0.07823 0)
(0 0.078411 0)
(0 0.0782751 0)
(0 0.0799866 0)
(0 0.0799899 0)
(0 0.0799778 0)
(0 0.0799739 0)
(0 0.0799874 0)
(0 0.0799905 0)
(0 0.0799925 0)
(0 0.079993 0)
(0 0.0799912 0)
(0 0.0799935 0)
(0 0.0799917 0)
(0 0.0799939 0)
(0 0.0799922 0)
(0 0.0799942 0)
(0 0.0799927 0)
(0 0.0799946 0)
(0 0.0799931 0)
(0 0.0799949 0)
(0 0.0799934 0)
(0 0.0799951 0)
(0 0.0799937 0)
(0 0.0799954 0)
(0 0.079994 0)
(0 0.0799907 0)
(0 0.0798293 0)
(0 0.0779828 0)
(0 0.0779724 0)
(0 0.0471613 0)
(0 0.0456366 0)
(0 0.059737 0)
(0 0.079982 0)
(0 0.0788309 0)
(0 0.0787472 0)
(0 0.0788847 0)
(0 0.0788004 0)
(0 0.0786559 0)
(0 0.0787092 0)
(0 0.0788495 0)
(0 0.0787573 0)
(0 0.0788942 0)
(0 0.0787985 0)
(0 0.0789311 0)
(0 0.0788328 0)
(0 0.0789601 0)
(0 0.0788608 0)
(0 0.0789837 0)
(0 0.0788823 0)
(0 0.0790014 0)
(0 0.0788978 0)
(0 0.078771 0)
(0 0.0787849 0)
(0 0.0789081 0)
(0 0.0787929 0)
(0 0.0789136 0)
(0 0.078795 0)
(0 0.0789135 0)
(0 0.0787906 0)
(0 0.0789061 0)
(0 0.0787784 0)
(0 0.0788916 0)
(0 0.0787596 0)
(0 0.0786383 0)
(0 0.0786149 0)
(0 0.0787349 0)
(0 0.0785833 0)
(0 0.0787045 0)
(0 0.078544 0)
(0 0.0786713 0)
(0 0.0785015 0)
(0 0.0786268 0)
(0 0.0784498 0)
(0 0.0785635 0)
(0 0.0783871 0)
(0 0.0784974 0)
(0 0.0783135 0)
(0 0.0784208 0)
(0 0.0782249 0)
(0 0.0786946 0)
(0 0.078484 0)
(0 0.0781284 0)
(0 0.0786503 0)
(0 0.0799362 0)
(0 0.0799804 0)
(0 0.0799767 0)
(0 0.0799692 0)
(0 0.079972 0)
(0 0.0799792 0)
(0 0.0799744 0)
(0 0.0799811 0)
(0 0.0799762 0)
(0 0.0799824 0)
(0 0.0799776 0)
(0 0.079983 0)
(0 0.0799779 0)
(0 0.0799829 0)
(0 0.0799771 0)
(0 0.0799823 0)
(0 0.079976 0)
(0 0.0799812 0)
(0 0.0799744 0)
(0 0.0799798 0)
(0 0.0799721 0)
(0 0.0799784 0)
(0 0.0799693 0)
(0 0.0799688 0)
(0 0.079962 0)
(0 0.079971 0)
(0 0.0469023 0)
(0 0.0453379 0)
(0 0.046584 0)
(0 0.0449495 0)
(0 0.0462047 0)
(0 0.044498 0)
(0 0.0432278 0)
(0 0.0427031 0)
(0 0.0414164 0)
(0 0.0408117 0)
(0 0.0395126 0)
(0 0.0388255 0)
(0 0.0375193 0)
(0 0.0401369 0)
(0 0.0380717 0)
(0 0.0393847 0)
(0 0.0372442 0)
(0 0.0385542 0)
(0 0.0363207 0)
(0 0.0376342 0)
(0 0.0352898 0)
(0 0.0366198 0)
(0 0.0339723 0)
(0 0.0341714 0)
(0 0.0355127 0)
(0 0.0329579 0)
(0 0.0343107 0)
(0 0.0368557 0)
(0 0.0356631 0)
(0 0.0423763 0)
(0 0.0395398 0)
(0 0.0410974 0)
(0 0.0381839 0)
(0 0.0396775 0)
(0 0.0368228 0)
(0 0.038359 0)
(0 0.0354839 0)
(0 0.0782925 0)
(0 0.0782093 0)
(0 0.0799632 0)
(0 0.0403494 0)
(0 0.0415791 0)
(0 0.0785576 0)
(0 0.0782702 0)
(0 0.0330217 0)
(0 0.0780163 0)
(0 0.0398762 0)
(0 0.0381958 0)
(0 0.0421073 0)
(0 0.0425841 0)
(0 0.041528 0)
(0 0.041962 0)
(0 0.0408966 0)
(0 0.0412806 0)
(0 0.0402143 0)
(0 0.0405472 0)
(0 0.0394812 0)
(0 0.0416188 0)
(0 0.039771 0)
(0 0.0386959 0)
(0 0.0389483 0)
(0 0.0378617 0)
(0 0.0376233 0)
(0 0.036778 0)
(0 0.0365573 0)
(0 0.0356989 0)
(0 0.0354973 0)
(0 0.034618 0)
(0 0.0344426 0)
(0 0.0779124 0)
(0 0.0511899 0)
(0 0.0522374 0)
(0 0.0511066 0)
(0 0.0521049 0)
(0 0.0509828 0)
(0 0.0730304 0)
(0 0.0371682 0)
(0 0.0341381 0)
(0 0.0335613 0)
(0 0.0334113 0)
(0 0.0799946 0)
(0 0.0385379 0)
(0 0.0398051 0)
(0 0.0325421 0)
(0 0.0323812 0)
(0 0.0315286 0)
(0 0.031361 0)
(0 0.0305252 0)
(0 0.030378 0)
(0 0.0519347 0)
(0 0.0508175 0)
(0 0.029536 0)
(0 0.0293926 0)
(0 0.0530047 0)
(0 0.0285507 0)
(0 0.0284101 0)
(0 0.0657137 0)
(0 0.0777913 0)
(0 0.0799963 0)
(0 0.0799956 0)
(0 0.0181959 0)
(0 0.045587 0)
(0 0.0537674 0)
(0 0.0788234 0)
(0 0.068892 0)
(0 0.0347455 0)
(0 0.0799897 0)
(0 0.0743687 0)
(0 0.0364985 0)
(0 0.0709592 0)
(0 0.0705653 0)
(0 0.07999 0)
(0 0.0799926 0)
(0 0.0781063 0)
(0 0.0780153 0)
(0 0.0799921 0)
(0 0.0311679 0)
(0 0.0711721 0)
(0 0.079025 0)
(0 0.0380698 0)
(0 0.0391693 0)
(0 0.0785773 0)
(0 0.0365928 0)
(0 0.0378872 0)
(0 0.0619843 0)
(0 0.0785596 0)
(0 0.0799856 0)
(0 0.0275781 0)
(0 0.0274448 0)
(0 0.0282396 0)
(0 0.0272947 0)
(0 0.0776792 0)
(0 0.0517318 0)
(0 0.0506073 0)
(0 0.0790547 0)
(0 0.0799943 0)
(0 0.0799938 0)
(0 0.077549 0)
(0 0.034156 0)
(0 0.0370039 0)
(0 0.0395218 0)
(0 0.0266052 0)
(0 0.0264802 0)
(0 0.0263687 0)
(0 0.0272295 0)
(0 0.0262036 0)
(0 0.0254469 0)
(0 0.0252921 0)
(0 0.0245478 0)
(0 0.0244039 0)
(0 0.0236722 0)
(0 0.023532 0)
(0 0.0228146 0)
(0 0.0226774 0)
(0 0.0233541 0)
(0 0.0225102 0)
(0 0.0218394 0)
(0 0.0216824 0)
(0 0.021019 0)
(0 0.0208719 0)
(0 0.0214999 0)
(0 0.0206984 0)
(0 0.0212918 0)
(0 0.0204994 0)
(0 0.0199129 0)
(0 0.0197226 0)
(0 0.0202735 0)
(0 0.0195076 0)
(0 0.020024 0)
(0 0.0192685 0)
(0 0.0197528 0)
(0 0.0190062 0)
(0 0.0185253 0)
(0 0.018274 0)
(0 0.0187223 0)
(0 0.0180021 0)
(0 0.0184189 0)
(0 0.0177114 0)
(0 0.0181006 0)
(0 0.0174046 0)
(0 0.0177702 0)
(0 0.0170829 0)
(0 0.0174288 0)
(0 0.016747 0)
(0 0.0170705 0)
(0 0.0163923 0)
(0 0.0166855 0)
(0 0.0160153 0)
(0 0.0162817 0)
(0 0.0156189 0)
(0 0.0158636 0)
(0 0.01521 0)
(0 0.015434 0)
(0 0.0148048 0)
(0 0.0149841 0)
(0 0.0142919 0)
(0 0.0157234 0)
(0 0.0170132 0)
(0 0.0145167 0)
(0 0.0799912 0)
(0 0.0177965 0)
(0 0.079292 0)
(0 0.0799866 0)
(0 0.0323156 0)
(0 0.0309307 0)
(0 0.0796676 0)
(0 0.0707614 0)
(0 0.0701491 0)
(0 0.0344871 0)
(0 0.0358364 0)
(0 0.0331288 0)
(0 0.0382436 0)
(0 0.0393521 0)
(0 0.0342267 0)
(0 0.0786744 0)
(0 0.0546924 0)
(0 0.0391373 0)
(0 0.0372152 0)
(0 0.00509711 0)
(0 0.00450368 0)
(0 0.00492227 0)
(0 0.00432651 0)
(0 0.00474023 0)
(0 0.0799836 0)
(0 0.079354 0)
(0 0.0792997 0)
(0 0.0191439 0)
(0 0.016079 0)
(0 0.062509 0)
(0 0.0259705 0)
(0 0.0799957 0)
(0 0.0799953 0)
(0 0.079996 0)
(0 0.077904 0)
(0 0.0778047 0)
(0 0.0496805 0)
(0 0.049461 0)
(0 0.0485334 0)
(0 0.0483339 0)
(0 0.047383 0)
(0 0.0471977 0)
(0 0.0481634 0)
(0 0.0469147 0)
(0 0.0460523 0)
(0 0.0599399 0)
(0 0.0608213 0)
(0 0.0613982 0)
(0 0.0622439 0)
(0 0.06277 0)
(0 0.0635614 0)
(0 0.0640403 0)
(0 0.064784 0)
(0 0.0651994 0)
(0 0.0659192 0)
(0 0.0662761 0)
(0 0.066972 0)
(0 0.0672795 0)
(0 0.0679494 0)
(0 0.0682305 0)
(0 0.0676425 0)
(0 0.0675603 0)
(0 0.0684797 0)
(0 0.0678047 0)
(0 0.0687001 0)
(0 0.0680147 0)
(0 0.0688975 0)
(0 0.0681926 0)
(0 0.0690457 0)
(0 0.0683456 0)
(0 0.0691601 0)
(0 0.0684848 0)
(0 0.0692664 0)
(0 0.0685888 0)
(0 0.0693426 0)
(0 0.0686549 0)
(0 0.0693796 0)
(0 0.068687 0)
(0 0.0693948 0)
(0 0.0686958 0)
(0 0.0693453 0)
(0 0.0685794 0)
(0 0.0682805 0)
(0 0.069833 0)
(0 0.0693818 0)
(0 0.0686834 0)
(0 0.0700572 0)
(0 0.0691754 0)
(0 0.0688847 0)
(0 0.0700226 0)
(0 0.0706737 0)
(0 0.0697413 0)
(0 0.0694525 0)
(0 0.0706177 0)
(0 0.0679678 0)
(0 0.0679579 0)
(0 0.0677934 0)
(0 0.0685722 0)
(0 0.0691396 0)
(0 0.070273 0)
(0 0.0705406 0)
(0 0.071242 0)
(0 0.0711658 0)
(0 0.0705394 0)
(0 0.0712996 0)
(0 0.0682249 0)
(0 0.0687975 0)
(0 0.0672107 0)
(0 0.0671971 0)
(0 0.0718402 0)
(0 0.0719017 0)
(0 0.0710437 0)
(0 0.0712841 0)
(0 0.0724086 0)
(0 0.0724633 0)
(0 0.0678421 0)
(0 0.0684233 0)
(0 0.0693427 0)
(0 0.0689794 0)
(0 0.0680228 0)
(0 0.0685791 0)
(0 0.0698816 0)
(0 0.0675908 0)
(0 0.0681445 0)
(0 0.071069 0)
(0 0.0704402 0)
(0 0.0672665 0)
(0 0.0717679 0)
(0 0.0719731 0)
(0 0.0671369 0)
(0 0.0676981 0)
(0 0.0686786 0)
(0 0.0682307 0)
(0 0.0691739 0)
(0 0.0687151 0)
(0 0.069641 0)
(0 0.0691814 0)
(0 0.0682283 0)
(0 0.0687059 0)
(0 0.0696474 0)
(0 0.0691716 0)
(0 0.0682139 0)
(0 0.0686831 0)
(0 0.0695796 0)
(0 0.0691209 0)
(0 0.0681786 0)
(0 0.0686479 0)
(0 0.0695581 0)
(0 0.0691151 0)
(0 0.0681728 0)
(0 0.0686055 0)
(0 0.0696446 0)
(0 0.0689977 0)
(0 0.0327523 0)
(0 0.0295334 0)
(0 0.0382255 0)
(0 0.0362147 0)
(0 0.0799278 0)
(0 0.0799212 0)
(0 0.0601398 0)
(0 0.0369602 0)
(0 0.0349151 0)
(0 0.0356676 0)
(0 0.0336301 0)
(0 0.0328099 0)
(0 0.031522 0)
(0 0.0306098 0)
(0 0.0293242 0)
(0 0.0283149 0)
(0 0.0270367 0)
(0 0.0280559 0)
(0 0.0257776 0)
(0 0.0268025 0)
(0 0.024527 0)
(0 0.0255693 0)
(0 0.0233047 0)
(0 0.0243629 0)
(0 0.0221151 0)
(0 0.0231845 0)
(0 0.0209533 0)
(0 0.0220273 0)
(0 0.0259513 0)
(0 0.0198216 0)
(0 0.0208937 0)
(0 0.0187218 0)
(0 0.0197972 0)
(0 0.0176602 0)
(0 0.0187335 0)
(0 0.0221894 0)
(0 0.0166274 0)
(0 0.0176954 0)
(0 0.0156219 0)
(0 0.0166847 0)
(0 0.0253453 0)
(0 0.0207868 0)
(0 0.0344275 0)
(0 0.018673 0)
(0 0.0146451 0)
(0 0.0157027 0)
(0 0.0664273 0)
(0 0.0664108 0)
(0 0.0678432 0)
(0 0.0683963 0)
(0 0.00414244 0)
(0 0.00454974 0)
(0 0.0362169 0)
(0 0.00395153 0)
(0 0.00435195 0)
(0 0.0693864 0)
(0 0.068847 0)
(0 0.0677977 0)
(0 0.0682793 0)
(0 0.0693074 0)
(0 0.0458267 0)
(0 0.0465677 0)
(0 0.0449171 0)
(0 0.0336211 0)
(0 0.0349899 0)
(0 0.0385469 0)
(0 0.0363287 0)
(0 0.0397495 0)
(0 0.0376307 0)
(0 0.0340188 0)
(0 0.0353832 0)
(0 0.0389131 0)
(0 0.0367185 0)
(0 0.0401688 0)
(0 0.0380099 0)
(0 0.0343991 0)
(0 0.0357163 0)
(0 0.0392644 0)
(0 0.0370111 0)
(0 0.0779168 0)
(0 0.0776972 0)
(0 0.0514929 0)
(0 0.0188003 0)
(0 0.0404823 0)
(0 0.0382728 0)
(0 0.0346197 0)
(0 0.0359223 0)
(0 0.0395068 0)
(0 0.03721 0)
(0 0.0457718 0)
(0 0.07743 0)
(0 0.0772904 0)
(0 0.07741 0)
(0 0.0107942 0)
(0 0.0786264 0)
(0 0.0176637 0)
(0 0.016677 0)
(0 0.0147524 0)
(0 0.0157209 0)
(0 0.0138311 0)
(0 0.0147939 0)
(0 0.0129397 0)
(0 0.0138984 0)
(0 0.0156858 0)
(0 0.0147819 0)
(0 0.0130382 0)
(0 0.0139052 0)
(0 0.012214 0)
(0 0.0130875 0)
(0 0.0156037 0)
(0 0.0114246 0)
(0 0.012298 0)
(0 0.0177561 0)
(0 0.0474624 0)
(0 0.0470391 0)
(0 0.0316139 0)
(0 0.0671645 0)
(0 0.0663609 0)
(0 0.0670962 0)
(0 0.0556626 0)
(0 0.0399232 0)
(0 0.0224621 0)
(0 0.0503991 0)
(0 0.0630756 0)
(0 0.0583952 0)
(0 0.058849 0)
(0 0.0578793 0)
(0 0.058305 0)
(0 0.0662786 0)
(0 0.0669791 0)
(0 0.0778093 0)
(0 0.0775798 0)
(0 0.077691 0)
(0 0.0729446 0)
(0 0.0729843 0)
(0 0.0728813 0)
(0 0.0666766 0)
(0 0.0106616 0)
(0 0.0115106 0)
(0 0.0130419 0)
(0 0.0122714 0)
(0 0.0107479 0)
(0 0.0115135 0)
(0 0.0100109 0)
(0 0.0107884 0)
(0 0.0799465 0)
(0 0.0614452 0)
(0 0.0129589 0)
(0 0.0093681 0)
(0 0.0101083 0)
(0 0.0709516 0)
(0 0.0646479 0)
(0 0.0799911 0)
(0 0.00375473 0)
(0 0.00414821 0)
(0 0.00474018 0)
(0 0.00452836 0)
(0 0.00511534 0)
(0 0.00489439 0)
(0 0.00431166 0)
(0 0.00466827 0)
(0 0.00524556 0)
(0 0.00500888 0)
(0 0.00443769 0)
(0 0.00476755 0)
(0 0.00420344 0)
(0 0.00452248 0)
(0 0.00507995 0)
(0 0.00482308 0)
(0 0.00537404 0)
(0 0.00510431 0)
(0 0.00456346 0)
(0 0.00483161 0)
(0 0.00536508 0)
(0 0.00507864 0)
(0 0.00455691 0)
(0 0.00479045 0)
(0 0.00530473 0)
(0 0.00500186 0)
(0 0.00550922 0)
(0 0.00519028 0)
(0 0.00569072 0)
(0 0.00535507 0)
(0 0.00486977 0)
(0 0.00501779 0)
(0 0.00549549 0)
(0 0.00514084 0)
(0 0.00468018 0)
(0 0.00478624 0)
(0 0.00523852 0)
(0 0.0048668 0)
(0 0.00531076 0)
(0 0.00492098 0)
(0 0.00535623 0)
(0 0.00449683 0)
(0 0.00494741 0)
(0 0.00537415 0)
(0 0.00494574 0)
(0 0.00536402 0)
(0 0.00491567 0)
(0 0.00532547 0)
(0 0.00451838 0)
(0 0.00485675 0)
(0 0.00525839 0)
(0 0.005751 0)
(0 0.00567614 0)
(0 0.00516139 0)
(0 0.00556923 0)
(0 0.00610823 0)
(0 0.00599129 0)
(0 0.00543028 0)
(0 0.0058444 0)
(0 0.00576612 0)
(0 0.00642946 0)
(0 0.00627578 0)
(0 0.00428128 0)
(0 0.00566551 0)
(0 0.00608887 0)
(0 0.00672363 0)
(0 0.00652919 0)
(0 0.00586862 0)
(0 0.00630145 0)
(0 0.00698666 0)
(0 0.00675187 0)
(0 0.00746171 0)
(0 0.00722017 0)
(0 0.00648167 0)
(0 0.00694226 0)
(0 0.00602366 0)
(0 0.00770771 0)
(0 0.00742247 0)
(0 0.0066263 0)
(0 0.00709801 0)
(0 0.00792157 0)
(0 0.00758931 0)
(0 0.00673392 0)
(0 0.00721723 0)
(0 0.00810082 0)
(0 0.00772096 0)
(0 0.00863268 0)
(0 0.0082451 0)
(0 0.00729853 0)
(0 0.00781377 0)
(0 0.0087899 0)
(0 0.00834953 0)
(0 0.0073375 0)
(0 0.00786324 0)
(0 0.00890603 0)
(0 0.00840749 0)
(0 0.00947911 0)
(0 0.00896335 0)
(0 0.0078635 0)
(0 0.00839758 0)
(0 0.00950339 0)
(0 0.0383406 0)
(0 0.0408442 0)
(0 0.0419099 0)
(0 0.0432013 0)
(0 0.0441639 0)
(0 0.0664162 0)
(0 0.0797257 0)
(0 0.0732489 0)
(0 0.0799118 0)
(0 0.0799037 0)
(0 0.0289407 0)
(0 0.0573148 0)
(0 0.0577087 0)
(0 0.0383789 0)
(0 0.0779962 0)
(0 0.0777848 0)
(0 0.0778778 0)
(0 0.0205048 0)
(0 0.0724308 0)
(0 0.0726149 0)
(0 0.0722552 0)
(0 0.0799968 0)
(0 0.0799965 0)
(0 0.0276793 0)
(0 0.0703382 0)
(0 0.0527265 0)
(0 0.0516227 0)
(0 0.065606 0)
(0 0.0655642 0)
(0 0.0721612 0)
(0 0.0727796 0)
(0 0.0723299 0)
(0 0.072921 0)
(0 0.0724805 0)
(0 0.0730421 0)
(0 0.0421628 0)
(0 0.0725946 0)
(0 0.0731443 0)
(0 0.0726766 0)
(0 0.0732248 0)
(0 0.0792704 0)
(0 0.0792101 0)
(0 0.0792407 0)
(0 0.0771408 0)
(0 0.0772565 0)
(0 0.0154728 0)
(0 0.0676742 0)
(0 0.0774514 0)
(0 0.0775619 0)
(0 0.0798279 0)
(0 0.0087933 0)
(0 0.0444834 0)
(0 0.072753 0)
(0 0.0508822 0)
(0 0.0700672 0)
(0 0.0798931 0)
(0 0.0798833 0)
(0 0.0798947 0)
(0 0.0791445 0)
(0 0.0791759 0)
(0 0.0237357 0)
(0 0.0798717 0)
(0 0.0655298 0)
(0 0.0185606 0)
(0 0.0398493 0)
(0 0.0733928 0)
(0 0.0733149 0)
(0 0.0313438 0)