/*--------------------------------*- C++ -*----------------------------------*\
| =========                 |                                                 |
| \\      /  F ield         | OpenFOAM: The Open Source CFD Toolbox           |
|  \\    /   O peration     | Version:  v2012                                 |
|   \\  /    A nd           | Website:  www.openfoam.com                      |
|    \\/     M anipulation  |                                                 |
\*---------------------------------------------------------------------------*/
FoamFile
{
    version     2.0;
    format      ascii;
    class       volScalarField;
    location    "150";
    object      p;
}
// * * * * * * * * * * * * * * * * * * * * * * * * * * * * * * * * * * * * * //

dimensions      [0 2 -2 0 0 0 0];


internalField   nonuniform List<scalar> 
13917
(
-0.075331
0.0126617
-0.0748329
-0.0203046
0.00707339
0.0131485
-0.0315127
0.0126108
-0.0449473
-0.0719578
0.0126403
-0.012117
-0.0106619
-0.0144503
0.00820308
-0.0751911
0.00224656
0.0105162
-0.062674
-0.0699352
0.00133254
0.00208004
-0.0409833
0.00218249
-0.0150663
0.0028706
0.0372554
-0.071273
0.00660535
0.000379681
-0.0684459
-0.0599407
-0.0154117
-0.0778398
0.00350435
0.0159501
-0.00246787
-0.000272088
-0.0326543
-0.000943543
0.00171079
0.00302502
-0.0402247
-0.0644401
-0.0637715
-0.0103281
0.000730093
-0.186946
0.0105278
0.00349452
-0.0118826
-0.0253465
-0.0679505
-0.00466031
-0.00551713
-0.0290377
-0.0660068
-0.0395795
0.00298911
-0.0050464
-0.0774399
0.00392459
0.000297417
-0.0151713
-0.0932599
0.00325711
0.00782057
0.0174969
0.0108389
-0.0722191
-0.0901695
-0.0763049
-0.0203968
0.00298047
0.00127945
-0.0103164
0.00585062
0.00294935
-0.0105638
-0.0155213
0.000300345
0.00230531
-0.0201877
-0.0787595
-0.00598303
-0.00270966
-0.0592252
-0.00574511
-0.00113209
0.00220114
0.00223749
-0.0412985
0.00661733
0.00318402
-0.00296444
0.00712351
-0.00724765
0.00205393
-0.00592718
0.0148475
0.00111633
0.00107465
0.000280964
0.00183737
0.00583269
-0.0632074
-0.113663
0.00493183
0.00304357
0.0356756
-0.0119558
-0.0785012
0.00597014
-0.194152
-0.0945822
-0.00818377
-0.0614934
0.00196345
-0.0731569
-0.0198313
0.00231929
0.00291999
0.00807055
-0.0462714
-0.0660161
-0.0780128
-0.016005
0.00186097
0.00270436
-0.0485636
-0.0493108
0.039907
-0.0659249
-0.00763283
-0.0616687
0.0276412
-0.0530969
-0.0603292
0.00373678
-0.000167862
-0.0262684
0.00292211
-0.0647779
-0.000559912
-0.0186217
0.00301709
-0.0889033
-0.0400457
-0.176364
-0.00474925
-0.00222043
0.000938362
-0.01842
-0.0201326
-0.00502441
0.00422947
0.00184727
-0.0661599
0.00181393
0.00194467
-0.00393403
-0.1285
0.002328
-0.0259655
-0.135332
0.0155028
-0.068562
-0.145971
0.000112308
0.00425855
0.0026443
-0.0716894
-0.0453263
-0.0641175
-0.0101794
0.00146548
-0.021011
-0.0233101
-0.0489892
0.00296482
-0.0384933
0.00241401
-0.011356
-0.0543515
-0.073859
0.0431426
-0.0111
-0.0515988
0.000462205
-0.000559602
-0.00772761
-0.0625327
-0.0514801
-0.0747725
0.0031774
-0.0671941
-0.0157778
-0.0660664
0.00343942
0.00394936
-0.000654598
-0.073434
-0.0604226
-0.000983771
0.0591416
0.00711627
-0.00213589
0.00294551
-0.0263064
0.000743886
0.00200233
0.00776048
0.00777116
-0.182228
-0.0615209
0.003293
-0.112544
-0.00211529
0.00238417
0.00237295
-0.159
-0.0523734
-0.0526455
-0.0114233
0.000234591
0.024261
-0.068211
0.00238231
0.00236823
0.00165461
0.0023831
0.00237222
-0.0759765
-0.16966
0.00111346
0.000174873
-0.027369
-0.0739416
0.0020213
-0.0112587
0.0505012
-0.0647607
-0.0557698
-0.109245
-0.00377072
-0.000706667
-0.14188
-0.0292068
0.00566411
-0.0528575
-0.00149274
-0.1697
-0.0199855
-0.00830351
-0.012624
0.00170623
0.00171152
-0.0159246
0.00697675
0.00343689
-0.0670244
-0.00394941
0.00302783
0.00235814
0.00442581
0.00237237
-0.0202439
-0.0107722
-0.026166
0.00305645
-0.0596051
-0.118592
-0.00918405
0.00629869
0.00133487
0.00213503
0.0123344
-0.0674044
0.00215346
-0.0727936
0.00338157
-0.125161
0.00140744
0.00667542
0.00197045
9.09189e-05
-0.0667392
0.000612796
0.0134497
-0.0112415
-0.0101862
0.00285011
0.0567218
-0.0589564
0.0020269
-0.0339946
0.00708712
-0.00655635
0.00737657
-0.0114096
0.00325021
0.00063689
-0.0150255
0.00403026
-0.00874592
-0.0116611
-0.0109102
-0.0644877
-0.0730717
0.00271037
0.00204744
-0.00715781
0.00919143
-0.0687112
-0.104891
-0.0668817
0.00175198
0.0337812
0.00605341
-0.0805336
0.00771123
-0.0742151
-0.0104391
0.00775056
0.0408183
0.00344127
0.013987
-0.0616242
0.00221002
-0.0734377
-0.00583384
-0.0625132
0.00201382
-0.0588292
0.000843156
-0.0107847
0.00671121
0.00057338
0.00223322
-0.0547889
-0.067827
-0.00383884
0.00356901
-0.0791792
-0.068976
-0.0895814
-0.00603074
0.00214037
0.000203287
-0.0642879
0.0306312
0.00216038
0.00760748
-0.0081011
0.00387012
-0.0102916
-0.0458906
0.0123263
0.00898043
-0.0585839
-0.0782067
0.00277048
-0.00428457
0.00724197
-0.0740265
0.00204215
-0.0744986
-0.0588666
-0.0142786
-0.00526362
0.0218068
0.00214664
0.00561969
0.00294707
-0.0548507
-0.00399732
0.00769576
-0.00910294
-0.0950742
0.00199663
-0.13027
-0.0541118
0.00289901
0.00687483
0.00307335
-0.00812851
0.00269472
-0.076574
-0.0068565
-0.00486177
0.0277432
0.00849954
-0.00184286
-0.121034
-0.0701835
-0.00628833
-0.0674711
-0.000865999
0.00747587
-0.0746772
-0.0059919
-0.0374503
-0.0124121
-0.000367066
-0.000956026
0.00278686
-0.0550016
0.0202905
-0.00473165
0.00302218
0.00163656
-0.0259085
0.0201574
0.00204312
0.000130706
-0.0683788
0.0237571
0.000148132
-0.00516194
-0.0544146
-0.0382061
0.00333677
-0.0639479
-0.0790805
0.00251937
0.00204151
0.00134058
-0.000998683
0.0020612
0.00139683
0.002068
0.00249418
-0.159845
-0.000894561
-0.00084129
-0.0599589
-0.0321377
0.00202868
-0.0178377
-0.123064
-6.01637e-05
-0.0649051
0.00202021
-0.0108095
0.00204193
0.0023875
-0.00245829
0.00360169
-0.041836
0.00314597
-0.0643438
-0.0105421
-0.0441821
0.00304603
0.000630429
-0.00723982
-0.0847026
-0.00834842
-0.0187857
0.00199872
-0.000763219
0.00155628
0.00291748
0.00195237
-0.00411249
-0.0650133
-0.0769246
0.00192468
0.055266
-0.0679693
-0.0110587
-0.032083
-0.0706343
-0.134559
-0.0400961
-0.0712561
-0.0123922
-0.0108268
0.00348522
0.00201336
0.00252604
-0.00136056
-0.0848232
0.00222144
-0.00498862
-0.0034432
-0.0406347
-0.000481788
-0.0723976
-0.048039
0.00323249
0.00661915
0.00955398
0.00492855
-0.00446541
-0.0206838
-0.0318903
-0.0121913
-0.115719
-0.00610097
0.00651538
-0.0234845
7.71586e-05
-0.0637255
-0.000960849
0.00236997
-0.0270479
0.00203257
-0.00174867
-0.0104941
-0.0621181
0.0131303
-0.00409194
-0.0258014
0.00349866
-0.068147
0.0256691
-0.00444167
-0.00527618
-0.00406502
-0.015842
-0.00983191
0.00299241
0.00202193
0.00378684
-0.000616158
0.00494738
-0.0204794
0.00220504
-0.0472148
5.10921e-05
0.0014301
-0.0127309
-0.0911526
0.00233301
-0.0310422
0.00345373
-0.0436261
-0.0368322
0.00379142
-0.0128147
0.021368
-0.011106
0.00894546
-0.0662445
-0.162778
-0.0605449
0.00271566
0.00168859
0.00302189
-0.0106619
-0.0911835
0.00214396
-0.0173629
-0.0166793
-0.0729742
0.0163647
-0.0394733
-0.0956804
0.00200818
-0.066704
0.00204322
0.00358247
-0.0720232
0.00202442
-0.0711294
0.000540378
-0.0110398
0.00177578
-0.0715373
0.00487897
0.00235403
-0.0653491
-0.0308502
-0.0321575
-0.0871401
-0.0659912
-0.132809
0.00232662
-0.0692466
0.000660282
-0.0619209
-0.046594
0.0036972
0.00198805
0.00110986
-0.031421
-0.0381285
0.0020386
0.00207675
-0.00868376
-0.0879967
-0.00472837
-0.0592269
-0.00480275
0.00233624
0.00186846
-0.0154924
-0.108955
-0.09513
-0.0515824
-0.0214461
-0.0907966
-0.0733675
0.00274539
-0.089127
-0.00961767
-0.0716696
-0.0103224
-0.093139
-0.000585774
0.0049434
-0.0191243
-0.0359445
-0.0284458
-0.101655
0.00228198
-0.0264717
0.00344397
0.00108308
-0.0791059
0.0038659
0.00364817
-0.0474713
-0.0110824
0.00353313
0.00090185
-0.0811503
-0.00497429
0.00736626
0.00212093
0.00356908
-0.0731079
0.000917356
-0.0514909
0.0022904
0.000599249
-0.0720146
-0.0599115
-0.00439969
-0.0584997
-0.0707269
0.0218639
-0.0202053
0.00198758
0.00890515
-0.0875023
-0.0694291
0.000671919
-0.00297219
0.00498425
0.00231849
0.00242332
0.00249961
-0.0359431
-0.0129929
-0.116858
-0.0293901
0.020945
0.0193686
0.0034991
-0.0151154
-0.0531995
-0.0734461
0.00325938
0.0054366
0.00145223
0.000482732
0.00231614
0.00176915
0.00339973
-0.00267634
-0.0705145
-0.0564041
0.00161331
-0.0605658
0.00230117
-0.107455
0.00337116
0.00277893
-0.0627193
-0.0378258
-0.0168386
-0.0199393
0.0018733
0.00296048
-0.0236988
-0.0327254
0.000655828
-0.0621988
-0.0102083
-0.0126356
-0.0179516
0.00484053
-0.0627536
-0.0253484
0.00188927
0.00353749
-0.0679597
0.021937
-0.0154167
-0.0641969
-0.0207047
0.000828968
0.00277623
-0.0017097
-0.0663161
-0.00943162
-0.0272238
-0.0230946
-0.0305169
-0.0722183
0.00577932
-0.0475605
-0.0556093
-0.00293533
-0.0150886
0.00179877
-0.0319468
0.00677079
-0.0697944
-0.00531132
0.00389996
-0.0631939
0.000971703
-0.0175337
-0.00350443
0.0100616
-0.0201793
-0.0696664
0.00227158
-0.0671131
-0.106785
-0.00203095
-0.0113939
-0.00595197
-0.00271477
-0.00982624
-0.0192458
0.00794587
0.00294474
-0.0130629
-0.0506059
0.00204333
-0.069167
-0.0439377
-0.0402202
-0.0512087
0.000521656
-0.0657843
0.000337406
0.00234345
-0.0389554
-0.00196848
-0.0541685
0.00198356
0.00188584
0.00247083
-0.0725989
-0.0147556
0.00340524
-0.0609816
0.000692764
0.00220379
-0.0307627
0.00408086
0.00721404
-0.0298039
0.00384842
-0.0638963
-0.019746
0.00601303
-0.0886475
0.00363643
0.00482887
0.00220879
0.00230244
-0.0185283
-0.00407853
0.00321633
0.00200806
0.0036767
0.00372399
-0.0488884
-0.00401126
-0.0408323
0.00201963
-0.0525998
0.00714929
-0.119076
0.00673326
0.00223267
-0.0984748
-0.0143073
-0.0674113
-0.0382122
0.00568479
0.00538481
0.00271389
-0.0113983
-0.0787485
-0.0300665
0.0212577
-0.0414656
-0.00976271
-0.0537699
0.000124146
0.00408642
-0.00858918
0.000166258
-0.147301
-0.0327515
0.00483853
-0.0598247
0.00982494
0.002509
0.00230437
0.0156305
0.002065
-0.00403972
-0.007349
0.00180283
-0.0603096
0.0024955
-0.00306965
-0.0024141
-0.0743792
-0.0664
0.00796987
-0.0636216
-0.0112452
-0.0739699
0.0087641
0.00128699
0.0034726
-0.0139335
-0.0109384
-0.00390859
-0.0310212
-0.00367229
0.0198973
-0.00415308
-0.0788588
-0.014909
-0.0543532
0.0164945
0.00292682
0.000106915
-0.0137696
0.00367167
-0.0249855
0.0019774
-0.0626453
-0.0364923
0.0035693
0.00277464
-0.0148872
0.00313773
0.0038873
-0.120596
0.00117419
0.00871884
-0.000777273
-0.0159527
0.00674517
-0.00152563
-0.0675671
0.00456815
0.00116798
-0.0204431
-0.0898196
0.000827666
-0.0543824
0.0022554
0.0112721
0.00191679
0.00376549
-0.0766849
0.00228002
-0.0204472
-0.0595159
-0.0759747
0.00193857
0.00616016
-0.0939268
0.00298783
0.00452102
0.00189013
-0.0800058
-0.0142741
-0.0662479
-0.013364
-0.0622759
0.00705203
0.0455049
0.00296057
0.00172469
-0.00914005
-0.00415145
0.000780895
-0.0662662
-0.00424839
-0.0002702
0.00305396
0.00293654
0.00347911
-0.0374867
-0.00595792
-0.0928365
-0.00185178
-0.0691732
-0.0162356
-0.0295037
-0.0647324
-0.00200984
-0.038211
-0.0119907
-0.0623109
-0.0125916
-0.0214571
0.00195872
0.00358035
-0.00474846
0.00194407
0.00269715
0.00309405
-0.0117249
-0.0184417
0.00233137
-0.00466961
-0.0581237
-0.146185
-0.124955
-0.0583426
0.00301634
-0.00881906
-0.00375085
-0.0873899
-0.0114222
-0.0586168
0.0022994
0.00128291
-0.0082989
-0.00184791
0.00228875
0.00205595
-0.00633522
-0.0146511
-0.000408947
-0.0836875
0.00660184
0.000567974
-0.0786097
-0.0122483
0.00273753
0.00437551
-0.0828939
0.00776147
0.00166975
-0.0159698
0.0032937
0.00293116
-0.0682211
0.00353225
-0.0380515
-0.0210095
0.00143432
0.00193645
0.00299233
-0.000949868
0.0108309
-0.0115141
-0.0738888
0.00591615
-0.000296747
0.00485325
-0.015104
0.00186111
-0.0657649
-0.0579199
-0.0125469
-0.0682169
-0.0930908
0.0107425
-0.0663182
0.00303611
-0.0639084
0.00294074
-0.0447931
-0.0153188
-0.0384366
-0.0108872
0.0395197
0.00617689
-0.0666022
0.00185448
-0.042818
0.00198057
-0.00395417
-0.0586693
-0.00236778
-0.012953
0.0516311
-0.0726998
0.00298548
-0.0502326
-0.072696
0.000485556
0.00221902
-0.0206084
-0.119408
-0.0112523
0.00059652
-0.031336
-0.016952
0.00292796
0.00747219
0.00297395
-0.0138361
-0.0219463
0.00194008
0.00461341
-0.00788799
0.00545378
-0.0639059
-0.0205214
-0.0143872
0.00116508
-0.0765736
-0.00214328
0.00182836
0.00122665
-0.0259038
-0.0210452
0.00188245
-0.11812
0.00397819
0.00399932
-0.0496819
-0.00042342
0.00122524
-0.0496215
-0.0675161
-0.0679163
-0.0511833
-0.00653337
-0.0402609
-0.074982
-0.000200372
-0.0553851
0.00223862
-0.0139262
-0.0251932
-0.0158119
-0.024358
0.00363791
-0.0179816
0.0208209
-0.00242825
-0.123908
-0.0227602
-0.00345729
-0.0775619
0.00227089
-0.0704949
-0.0059376
-0.00189817
0.00526895
0.00379894
0.00179472
0.0021362
-0.0113112
-0.0664882
2.58753e-05
-0.00362416
-0.038833
-0.00249103
-0.00783347
0.0131807
-0.0692867
0.00388067
0.00277481
-0.00123308
0.00046996
0.0117903
-0.0651822
-0.0182727
-0.0137654
0.0115367
0.00344599
-0.00317285
-0.0765251
-0.063513
0.00719097
-0.0104147
0.00113123
-0.0634345
0.000428251
-0.00113741
-0.0934462
0.00291812
-0.031864
-0.142937
-0.0736578
-0.0256483
0.00642816
0.00242311
0.00140035
-0.00870379
-0.00784754
0.001696
-0.0695316
0.00226876
-0.0265185
0.00240873
-0.0674251
-0.129908
-0.00530059
-0.0618709
-0.026132
-0.0137545
-0.0699707
0.00424676
-0.00617188
-0.00923283
-0.0622434
-0.0498447
-0.0733216
-0.00709694
-0.118729
0.00130752
0.00192794
0.00709936
-0.0252314
0.00174451
-0.00133712
0.00882107
-0.00955232
-0.00471731
0.00236576
0.00273081
-0.0266167
-0.05032
0.052047
-0.00405366
0.0105988
0.00278486
-0.00358615
-0.00337378
0.00265008
-0.0667017
-0.0849473
0.00270929
-0.0537325
0.00232895
0.00957234
-0.059216
-0.0128533
-0.000434388
0.00241106
-0.0151647
-0.00363229
-0.00162794
-0.0661606
0.00392476
-0.0297667
0.00420025
0.00233849
-0.0570992
-0.122539
-0.110453
-0.0209165
0.000684551
-0.000408409
-0.00447255
-0.0702841
-0.0627596
0.00320638
0.0166802
1.87167e-05
-0.0499098
-0.036822
0.00271333
-0.00400329
-0.0645265
0.00314883
0.00224929
0.00252077
0.00268868
-0.0209778
-0.0795749
-0.0261139
0.00326587
-0.144649
-0.0033759
0.0029046
0.00561331
-0.00208414
-0.00772188
-0.0920652
-0.0164837
0.00317109
0.00701006
-0.0576731
-0.00306034
-0.0161029
0.00246726
-0.00347396
0.00209475
-0.00987673
-0.01917
0.00189442
-0.0626952
-0.003066
-0.0248777
-0.0454716
0.00263597
0.00276956
5.99698e-05
-0.046156
-0.0697084
-0.125385
-0.00116775
0.00246781
-0.0619581
-0.000541567
-0.00172858
-0.0181644
0.000190663
-0.00768683
-0.000681126
-0.0728367
-0.019921
-0.000191801
-0.0146307
0.0480335
-0.0795304
-0.072552
0.00349499
0.000864375
0.00733789
0.00185394
0.00252697
0.029758
-0.0150171
-0.00858754
-0.0329957
-0.0161263
-0.068028
-0.00836465
0.00521014
-0.0270357
0.00244751
-0.0700012
-0.00802367
0.00206596
0.0538708
-0.0595019
0.0594289
-0.071337
-0.00704254
-0.0345765
0.00213016
0.00289526
0.00497604
-0.00836405
-0.00814051
-0.0702885
-0.0125183
-0.0273712
0.00518966
0.00256053
-0.0174905
0.00202053
0.00268809
-0.061024
0.00186556
0.0223829
-0.057464
-0.00857926
-0.0505174
-0.0341217
-0.0342748
-0.00577453
0.00455882
0.00100328
0.0027152
0.000838879
0.0109281
0.00379683
0.00200431
0.00336225
0.00228174
0.0074348
-0.000668048
-0.112873
-0.0279019
0.00305854
-0.0102592
0.00264023
-0.0250397
0.00394245
0.00630021
0.00481247
0.000551532
0.00283385
-0.00156505
0.0033067
-0.118189
0.00242443
0.0018352
-0.0114316
0.00340567
0.00264808
-0.0789236
-0.00148529
0.00186072
0.0310759
0.00342298
-0.0630427
0.00402622
-0.0195183
0.0356668
0.00357854
0.00266154
-0.118967
-0.0126014
0.00135831
0.0515702
0.00257148
-0.081308
0.00313939
-0.000743309
-0.0117436
0.00268402
-0.0637515
0.0016865
0.00246938
-0.0591949
-0.00712002
0.00215489
0.00191786
0.00258793
-0.0527639
-0.0169524
0.005652
0.00149768
0.0563178
0.0109733
0.00139467
0.00138953
-0.0109043
-0.00983517
-0.0320635
0.00337771
0.0033014
-0.0179455
-0.00552671
-0.00487213
-0.00966527
0.00706551
0.00264733
-0.051039
0.00191696
0.0124589
0.00270322
-0.00841834
0.000272741
0.00193888
-0.00132264
0.00652096
-0.0403236
0.0555721
0.00260395
-0.0653085
-0.115933
-0.0560855
-0.0643345
0.00115722
-0.00972742
0.0193783
-0.0359178
0.00231068
-0.0713741
0.00267191
-0.068784
-0.0165763
-0.0290873
-0.046949
-0.0493939
0.0153623
0.00217797
-0.0532266
0.000576537
-0.00162868
-0.0290636
-0.0770269
-0.0752028
-0.00955817
0.010089
0.0457781
0.00223812
-0.0549682
0.00318751
-0.00696695
-0.00156474
0.00403039
-0.0657316
0.00263704
-0.0466888
-0.000543271
0.0207067
-0.00612292
-0.00508604
0.0027485
-0.0685964
0.00287805
-0.0139427
-0.0200162
0.00215343
-0.0505423
0.00844988
-0.0290066
-0.0645611
-0.0101869
0.00376831
-0.0206669
0.00385686
-0.0148862
-0.000526575
0.00269839
-0.0334158
0.00145748
0.00197625
-0.0399411
-0.00559572
-0.0745903
-0.00655142
0.00219538
-0.00436642
-0.000238262
-0.00112244
-0.0229253
-0.0305651
-0.00678498
0.00265352
0.00275998
-0.00798291
0.00693339
-0.00390189
-0.0654019
0.0021927
-0.0245102
-0.00507706
0.0036118
-0.0738096
-0.00349752
0.00227154
-0.0657012
-0.0594683
-0.0802777
0.0035031
-0.0715588
-0.0485111
-0.00145129
-0.0716753
-0.00119894
0.00566446
-0.125442
0.00241651
0.0081189
-0.0766805
0.00424359
-0.0491653
-0.017606
-0.068439
-0.0133578
-0.0216175
-0.0083203
-0.0743314
-0.0139199
-0.0117652
0.0051909
-0.0437358
0.00276772
0.00203238
0.00955879
-0.0573239
-0.00656128
-0.000611176
-0.0696364
0.0201008
0.0281762
-0.0227428
0.00273953
-0.0496398
-0.0272112
0.000940404
-0.0928296
0.00175488
-0.0472744
-0.0744532
0.00286602
-0.0596973
-0.0104707
-0.0709194
-0.0431828
-0.00871616
0.00527124
-0.0163299
-0.0222134
-0.014072
-0.0175813
0.00222988
-0.00299066
-0.0800772
-0.0100403
-0.0704829
0.00333043
-0.0142078
-0.0805941
0.00421237
0.00755236
-0.0670551
-0.00612934
-0.0121828
-0.0705803
-0.0331252
0.0477053
-0.030314
-0.0711569
0.000210724
0.00558998
-0.0768814
-0.133137
-0.0137682
-0.0014569
-0.0351677
-0.0235713
-0.00410598
-0.00811836
-0.0425155
-0.00807792
0.00567797
-0.00974419
0.00299711
0.0063096
-0.0660028
0.00468963
-0.0132706
-0.0134156
0.0234284
0.00288879
-0.0648627
-0.0127864
0.00241018
0.00647002
0.00197014
0.00149085
-0.0238812
-0.0338336
-0.00876917
-0.0626409
0.00391533
-0.062348
0.00308239
-0.0748146
-0.0798239
-0.0709197
0.00191581
-0.00743582
0.00413093
-0.00824073
0.00193758
-0.0562474
-0.0852365
-0.0184565
0.000128924
-0.0116511
0.00358545
-0.0541281
-0.0662975
0.0011683
0.0015953
-0.0103829
0.0246443
-0.0102954
0.00311712
0.00181037
0.0162439
-0.000549966
0.00294904
-0.00100006
-0.0634601
0.00729814
-0.0091747
-0.064933
-0.0279948
0.00127621
-0.0930055
-0.00305581
0.00516235
-0.10639
-0.00840035
0.00585577
-0.0557661
-0.0576242
-0.0234615
-0.0725586
-0.0167606
-0.0210277
-0.0195221
0.0025617
-0.0683394
-0.0349744
0.0197324
-0.0772959
0.0487107
-0.0150704
-0.0284131
-0.130635
-0.0092814
-0.068716
0.000150313
-0.0198014
-0.00858912
0.000863887
-0.0725153
-0.00149909
0.00181814
0.0122675
-0.0700836
-0.00295981
-0.0219407
-0.0993686
0.000356351
-0.00378424
0.000100933
-0.0015881
-0.053561
-0.0131763
-0.126416
-0.0327978
-0.0253367
0.00404475
-0.00276073
0.00678864
0.0101726
0.00782451
-0.00831865
-0.00163164
0.00176696
0.00299024
-0.0678762
-0.0703438
-0.000469246
-0.101947
0.0034637
0.000226467
0.00486642
0.00268017
0.00309082
0.0136124
-0.0198016
-0.0777873
0.0585908
-0.0600758
-0.0193561
-0.0196573
-0.00690908
-0.0704182
0.00158679
-0.067635
0.0354349
-0.00154291
0.0286507
-0.0717096
0.000655576
-0.00446717
0.00182507
-0.00471333
-0.0791768
0.00219372
-0.0181817
0.000547108
-0.000716973
-0.0699575
-0.00947592
-0.0170879
-0.00508537
0.00153635
-0.0931634
-0.0230386
0.00483046
-0.0550893
0.0229319
-0.077436
-0.00984572
-0.00354767
0.000638866
-0.0931089
-0.00747408
-0.0475454
-0.0197927
-0.0765271
0.00407688
0.00352106
0.00766645
-0.123853
-0.0122894
0.00272821
0.00241734
-0.0723137
-0.0763005
-0.0122155
-0.0139083
0.00292742
-0.000122279
-0.0627241
0.000191629
-0.0866311
-0.0583363
0.00335252
-0.0255709
0.009867
0.00270754
-0.0276934
0.00253462
-0.0108674
0.00715088
0.0327728
-0.0174972
-0.00272513
0.00398619
-0.0848444
-0.00144164
-0.0106216
-0.0745394
-0.00445814
0.00401975
-0.022801
0.00270652
0.003323
-0.0311983
-0.0363525
-0.0556518
-0.00109744
0.00167425
-0.047037
-0.00817648
-0.024938
-0.00410277
-0.0092599
0.00198333
0.00161168
-0.0128475
-0.00531307
-0.0552359
-0.0602661
-0.12724
0.00101198
0.00317362
-0.000444848
-0.0776772
-0.0120285
-0.00163636
-0.0736187
-0.0777404
0.00151854
-0.016735
-0.0144896
0.0102769
-0.0754035
0.00235464
-0.0117279
-0.0321372
-0.136935
-0.0168583
-0.0180507
0.000242759
-0.0690846
-0.0886671
0.00237339
-0.129159
0.00844714
-0.0129611
-0.0788859
-0.0564056
-0.0443286
-0.00428269
-0.00075508
0.0060594
-0.0106786
0.00169779
-0.00189591
0.0124141
0.00312454
0.0033206
-0.0244722
-0.0732308
0.0545995
0.00217828
0.00418535
-0.00841851
-0.0349818
0.00336882
-0.0123937
0.00118704
-0.0769978
0.0211902
0.00122031
-0.00987074
-0.0677281
0.00174714
-0.0642485
-0.00701043
-0.000128643
-0.00147114
0.00197359
0.00594048
0.00275815
0.00147243
0.00276439
0.00242762
-0.100502
0.00188774
-0.00353349
-0.0461195
-0.0392258
0.00201375
-0.0667668
-0.00450016
-0.0141493
-0.00706749
-0.00663126
-0.000271471
-0.000432018
-0.0764501
-0.0143189
0.0111637
-0.0273853
0.00884419
-0.119822
0.0386913
-0.106169
0.00172297
0.00487362
-0.0127053
-0.00111714
0.00307463
0.00355836
-0.0702681
-0.0631274
0.00227455
-0.00260151
-0.0123899
-0.0661891
-0.0161403
-0.00177143
-0.00328603
-0.061355
-0.00914921
-0.073532
-0.0189874
-0.000727525
-0.00278082
0.00351727
0.00247482
-0.0530396
-0.000525395
-0.0343714
-0.0794508
0.00149496
-0.0630704
-0.034901
0.00146776
-0.015081
-0.00769219
-0.00858867
0.00199149
0.00303661
0.00164465
-0.115827
0.0013726
0.0207308
0.0100505
-0.0331684
-0.00476214
0.00740676
-0.0555854
-0.0657819
0.00259965
0.00230285
0.00250454
-0.0676262
-0.00827808
-0.0179013
0.00431344
-0.00157608
-0.0250723
-0.00711149
0.000204917
-0.00332696
-0.0141371
-0.0291913
-0.0854108
-0.0778176
-0.0235265
0.00157716
0.0156666
-0.0122162
0.000639842
0.000862104
-0.0682169
-0.0660712
-0.00219818
-0.000156903
0.00176521
0.0274922
0.00577099
-0.0697951
-0.0628586
-0.00970762
-0.0783304
-0.059395
-0.06882
-0.0739078
-0.00714432
-0.130413
-0.0119074
-0.0606866
-0.0733483
-0.136031
-0.0834105
0.00227568
-0.0135685
0.00212145
0.00243148
-0.0770648
-0.00435214
-0.0120729
-0.035827
-0.0167653
-0.0408801
-0.0687897
-0.0686484
-0.110323
-0.0185736
0.00121778
-0.00627629
0.00367374
-0.0195031
0.00120744
-0.0598368
-0.0288485
-0.0052966
0.00187396
0.00211136
0.00231568
-0.0698918
0.000188839
0.0034304
-0.0106236
0.0105794
-0.0411968
0.00560245
0.0114871
-0.127433
-0.00951102
-0.0406981
-0.0123341
-0.0369936
0.0180062
0.00550902
0.00310967
0.00270369
-0.0743033
-0.0245041
0.00117939
-0.0276844
-0.0820636
-0.012359
9.98736e-05
-0.00146876
-0.119517
-0.00225082
-0.000722795
0.00190451
0.0574323
-0.0952394
0.00149992
-0.0486645
-0.0953775
-0.00708975
0.0115722
-0.0116012
-0.0618332
-0.00898767
-0.0751361
-0.00139719
0.0046805
0.0028007
-0.0671196
-0.0313163
0.00293174
-0.0774529
-0.00882313
-0.00639419
-0.0451767
-0.0661052
0.0209287
0.0124172
-0.0359243
-0.0176705
-0.0892132
0.000843584
-0.00658168
-0.0176269
-0.0220262
-0.0116656
0.00864809
-0.00793319
0.00118856
-0.0730495
-0.0191453
-0.074318
-0.00819227
-0.0759788
-0.0648634
-0.0162676
-0.0160872
-0.034136
-0.012799
-0.07002
-0.0293939
-0.0807465
-0.136933
-0.0223274
0.00416349
-0.0674452
-0.0938734
0.00685563
-0.0848412
-0.00307126
0.00196898
-0.0184035
-0.000613481
-0.00756456
-0.0419593
-0.075174
0.010101
0.00158054
-0.173976
-0.0655875
-0.0497283
-0.0768373
0.0078574
-0.0676754
-0.0459189
-0.060235
0.00168353
0.0023768
-0.0535671
-0.064461
0.0043021
-0.113827
-0.0789455
0.00193935
-0.0156684
0.00347226
0.0194044
-0.00185444
-0.0318219
-0.121454
0.00221553
-0.0120457
0.00172552
-0.0121603
-0.0651813
-0.0783599
0.00311155
-0.0688282
-0.00202291
-0.00445687
-0.00583801
0.0285341
0.00217712
-0.0756137
-0.0762133
-0.0172799
0.0355567
-0.0703557
0.00204518
-0.0763249
-0.075659
-0.000537093
-0.0756121
0.00304088
-0.00256918
-0.00806488
-0.0311661
-0.0747201
-0.0254835
-0.0151239
-0.0139349
-0.00259871
-0.0724376
0.00401543
0.00198437
-0.0630932
-0.0787627
-0.0192357
-0.00398415
-0.0223719
-0.0104814
-0.0128333
0.0434093
-0.00268123
-0.0695965
-0.00381538
-0.0716541
-0.000496807
0.0126118
-0.0663754
0.00129405
0.00171468
0.0316989
0.0333924
0.00382745
0.0108577
-0.0447723
-0.0698883
-0.0688536
-0.0406505
-0.010357
-0.0109831
-0.013017
-0.0139344
-0.00524991
0.015874
0.00241453
0.0018076
-0.0781323
-5.92567e-05
-0.0196728
-0.0253396
0.00591592
0.00284961
0.00255875
-0.0185499
-0.0184417
-0.066177
-0.0253954
-0.0375629
-0.0612322
-0.00503927
-0.0464806
-0.0728894
-0.0699613
-0.0608544
0.00193276
-0.0258328
-0.0146932
-0.0101243
-0.0201196
-0.0212608
-0.0196455
-0.0552931
-0.0666549
-0.00665213
-0.0620422
-0.0471799
-0.0637362
-0.0653996
-0.0187984
-0.0668241
-0.068088
-0.0691396
-0.0699514
-0.0669522
-0.0460333
0.00683705
-0.00345312
-0.0302509
-0.0607432
-0.00119295
-0.0406716
-0.0668751
-0.00183182
-0.0825155
0.00172989
0.00276025
0.00437012
-0.097846
-0.0184929
-0.000344318
-0.0685136
-0.0874087
-0.00143412
-0.00517889
0.00691179
-0.0191736
-0.117009
-0.00657188
-0.0355645
-0.086426
-0.0736305
-0.0602579
-0.0770551
-0.0253816
-0.00161517
-0.0671906
0.000138852
-0.0650464
-0.066646
-0.00545443
-0.00677236
0.00201454
0.00598011
0.00270996
-0.00751568
-0.0153366
0.00287421
0.00291412
-0.0153173
-0.0738241
-0.00369017
-0.00704162
-0.0724991
-0.0456418
-0.0779598
-0.0616457
-0.0155579
-0.0119899
-0.0179234
-0.00167056
-0.078082
0.00685711
-0.111722
-0.0602271
-0.0748083
-0.0216259
-0.000689499
-0.00156205
-0.0712318
0.00300801
-0.0701458
0.000305994
-0.0748567
-0.0183172
-0.000612124
-0.00364992
-0.00172858
-0.0641654
-0.0170422
-0.0115665
0.00202341
-0.0182873
-0.0700096
-0.0748275
0.00817677
-0.076494
-0.00173648
0.00127465
-0.0309516
-0.00244354
-0.0631171
-0.0952926
0.00735698
-0.0718775
-0.0660137
-0.0940173
0.000736752
0.00299779
0.00222979
0.00167407
-0.0833105
0.0134366
-0.00774512
0.00102505
-0.0694015
0.000451328
-0.0128534
-0.0145029
-0.105807
-0.0136174
-0.0168487
0.00150586
-0.0752537
0.0017991
-0.0359256
-0.0823745
-0.0651291
-0.074956
0.0017063
-0.0387082
0.00332145
-0.0839099
-0.0750976
-0.00884023
-0.0673223
0.000198578
0.00391963
0.0241674
-0.0148455
0.0393537
0.00020152
0.00610622
0.0446379
-0.0413036
-0.0689692
-0.0739717
-0.0704601
0.00270955
-0.0235497
0.00330451
-0.0682604
0.00323841
0.00811079
0.00342862
-0.0299646
-0.0135464
-0.0140061
-7.72914e-07
0.00979092
-0.0675664
-0.0698806
0.00321727
-0.0408112
-0.0691777
0.00210009
0.00419883
-0.0732469
-0.0187727
0.00856592
-0.0814484
-0.00566369
-0.076098
0.0012525
-0.103473
-0.0811724
-0.00221355
-0.00160351
-0.0257902
-0.0630575
-0.0588722
-0.0760685
0.0201538
-0.0179431
-0.0831862
0.0129519
-0.044333
-0.00313721
-0.13207
0.0349968
-0.0754212
-0.0418815
0.00886658
-0.00759977
-0.0785302
-0.00509504
-0.0898056
-0.0625457
-0.00126687
0.00140861
-0.0728808
-0.0662661
0.00556657
-0.0162031
0.00138729
0.00927461
-0.0894229
0.0158436
-0.0655242
-0.0080116
-0.0636069
0.00402954
-0.0100126
-0.0173488
-0.042613
-0.102414
-0.000837721
-0.0655484
0.0017711
-0.0229229
-0.0165614
-0.012554
-0.00199499
-0.0186274
-0.0683889
-0.0752364
0.00176564
-0.0644934
-0.0132225
0.00222334
-0.00847238
0.00283846
-0.0189559
-0.074146
-0.068672
0.00266388
-0.0308798
-0.0555699
-0.0564224
-0.093835
-0.0612699
-0.00933793
-0.0498781
-0.0100387
-0.0140219
0.00679527
-0.063719
-0.00507498
-0.0748466
-0.0855577
-0.0230937
-0.0674605
-0.0622445
0.000956161
-0.0698072
-0.0221651
-0.0466634
0.00684986
0.000489307
0.0090766
-0.0706479
-0.0159202
0.00886242
-0.0119493
-0.0724733
-0.0689976
-0.0220521
-0.0698718
-0.069848
-0.0691861
-0.00707493
0.00325125
-0.0562064
-0.00938748
-0.0165515
-0.0171159
-0.00530653
0.00062112
-0.00675279
-0.0093855
0.00225941
-0.00933464
-0.0023587
-0.00549538
0.0105045
-0.0699413
-0.00918139
-0.0695852
-0.0111165
-0.00702358
-0.0629922
-0.0558237
-0.00244215
0.00111518
-0.035025
-0.0369731
-0.070557
-0.0361813
-0.0222902
-0.0096165
0.00247691
0.00420703
-0.0654066
-0.0562805
0.00178722
0.00214933
-0.075858
-0.0171104
-0.00568502
-0.05822
-0.0275957
-0.0451154
-0.0688066
-0.0585104
-0.00937787
0.000826396
-0.0746134
0.000317147
-0.0119011
-0.0043709
-0.00832121
-0.0555869
-0.0193918
-0.107766
-0.00384543
-0.0115228
-0.0300094
-0.0734047
-0.0639215
-0.0164267
-0.0645838
-0.0682884
-0.0312508
-0.0202095
-0.0192373
-0.0468663
-0.0233218
-0.0678385
-0.020379
0.00344226
-0.0491237
-0.0188098
-0.0556225
-0.0335037
-0.00635469
-0.046766
0.00289779
-0.0172593
-0.014997
-0.0153014
0.000937213
-0.00870311
-0.0692981
-0.0720262
-0.00408142
0.00700415
-0.0661088
-0.0182348
0.00141278
0.0479969
-0.0662838
-0.0441636
-0.0668832
0.0320192
-0.0481028
-0.0780515
-0.0673944
-0.0438231
-0.0032075
-0.0649867
-0.00972301
-0.011241
-0.0693376
-0.0685078
-0.00844392
-0.0368452
-0.00295216
0.00146246
-0.00602971
-0.069399
0.000439313
-0.0610796
-0.0377577
0.000561625
0.0030583
0.00195773
-0.00716856
-0.0093622
0.00262068
-0.0362383
-0.00641735
-0.00756412
-0.0137177
-0.0594053
-0.019665
-0.0273585
-0.0118715
0.00199354
0.00252596
-0.0502132
0.00548765
-0.0777387
-0.0157856
-0.0178378
-1.0536e-05
0.0248516
-0.0114869
-0.0111667
-0.0049696
-0.0351022
0.00367034
-0.0273567
0.00313077
-0.121236
-0.0348471
-0.0102718
0.0143383
-0.0633659
0.00136963
-0.0217962
0.00285522
-0.0381162
0.0034438
-0.00303351
-0.00380406
-0.0183382
0.00921341
-0.0312386
-0.0663278
-0.0209213
-0.0109021
-0.00336875
-0.0612015
0.00370914
-0.0698478
-0.061873
-0.0187282
-0.011504
0.00383945
-0.073261
-0.0482051
-0.00882396
-0.0618425
-0.0222422
0.00549673
-0.0164914
0.00479906
-0.0128198
-0.0620575
-0.0796573
-0.00422997
0.00274614
-0.00629091
-0.0870316
0.0152458
-0.0143984
-0.0346803
-0.0764092
-0.011461
-0.0268713
-0.0442155
-0.0312123
0.0018399
0.0510573
0.00240708
0.0019028
-0.00277697
0.00315779
-0.111535
-0.0575217
0.00122386
0.00605089
-0.080142
-0.0064505
-0.00621188
-0.0181177
0.00353367
-0.00936993
-0.0253537