/*--------------------------------*- C++ -*----------------------------------*\
| =========                 |                                                 |
| \\      /  F ield         | OpenFOAM: The Open Source CFD Toolbox           |
|  \\    /   O peration     | Version:  v2012                                 |
|   \\  /    A nd           | Website:  www.openfoam.com                      |
|    \\/     M anipulation  |                                                 |
\*---------------------------------------------------------------------------*/
FoamFile
{
    version     2.0;
    format      ascii;
    class       surfaceVectorField;
    location    "150";
    object      Uf;
}
// * * * * * * * * * * * * * * * * * * * * * * * * * * * * * * * * * * * * * //

dimensions      [0 1 -1 0 0 0 0];


internalField   nonuniform List<vector> 
20642
(
(0.446979 0.00153711 -3.95953e-21)
(0.452224 0.000498079 -3.76614e-21)
(0.470847 0.00278732 8.47513e-22)
(0.987924 0.0204853 -2.21386e-21)
(0.985439 0.0226438 -2.06032e-21)
(0.98956 0.0243332 2.67077e-23)
(1.10675 0.065764 -1.96399e-20)
(1.10774 0.0674553 -6.87315e-22)
(1.10827 0.0656327 -1.17479e-20)
(1.03658 0.0155355 0)
(1.03644 0.0161838 0)
(1.03582 0.0155268 -3.09811e-21)
(1.00673 0.016624 6.62278e-22)
(1.00647 0.0187912 7.51111e-22)
(1.00866 0.0179942 -4.82941e-22)
(0.991293 0.0180037 1.57628e-21)
(0.987992 0.0152864 1.75159e-21)
(1.05183 0.0324205 0)
(1.0509 0.0316229 -1.12183e-20)
(1.05084 0.0327199 -1.20815e-21)
(0.96764 0.0817735 2.99188e-22)
(0.958547 0.0860049 -6.36146e-22)
(0.97044 0.0919639 0)
(1.06424 0.0215158 0)
(1.06349 0.0220737 4.49645e-21)
(1.0646 0.0225812 0)
(0.0318715 -0.111464 -3.21657e-21)
(0.0724803 -0.145314 5.67109e-22)
(0.976507 0.0794689 3.81953e-21)
(0.967364 0.0735436 1.40486e-21)
(1.02587 0.0133429 -2.31998e-21)
(1.02612 0.01387 -2.2524e-21)
(1.02647 0.0134716 -1.3639e-21)
(1.01161 0.000230161 0)
(1.0118 0.000155482 1.18397e-21)
(0.972287 0.266155 0)
(0.968731 0.286986 -3.9286e-21)
(0.99923 0.268405 -2.371e-22)
(1.01163 0.00942893 4.43812e-22)
(1.0105 0.00880772 2.50141e-21)
(1.01049 0.0104821 0)
(0.436745 0.00147142 2.04281e-20)
(0.407265 -0.00208966 0)
(1.001 -4.88442e-05 3.63165e-22)
(1.00098 -6.16103e-05 -9.47537e-23)
(1.00022 -4.36435e-05 3.72492e-22)
(0.984521 0.0769557 2.19794e-21)
(0.992065 0.0740392 -1.58948e-21)
(0.984209 0.069533 -1.72197e-21)
(1.08768 0.0818192 9.72926e-22)
(1.09005 0.082026 5.84433e-21)
(1.08851 0.0841884 2.5374e-21)
(0.368001 -0.0369604 2.56282e-20)
(0.446546 -0.0356454 5.96219e-21)
(0.449942 -0.0216523 1.01566e-20)
(1.02701 0.0377575 0)
(1.02793 0.0385276 1.08074e-22)
(1.0268 0.0388117 1.43574e-22)
(1.0126 0.00867269 -2.04219e-23)
(1.01271 0.00872238 1.47157e-22)
(1.01283 0.00897966 -1.04407e-23)
(1.06015 0.0568534 -9.26564e-22)
(1.06128 0.0560484 1.35351e-20)
(1.06129 0.0580169 3.80746e-21)
(1.01247 0.00851608 1.24588e-22)
(1.01242 0.00831863 1.98615e-22)
(1.0335 0.0231798 -3.28742e-21)
(1.03399 0.0236885 -2.78574e-21)
(1.03328 0.0235548 4.30815e-21)
(1.02569 0.0427184 0)
(1.02604 0.0413086 2.08554e-22)
(1.02427 0.0415021 3.3171e-22)
(0.680632 -0.148296 6.50259e-21)
(0.741246 -0.13213 -1.18981e-20)
(0.760372 -0.141226 7.88983e-21)
(0.0304925 -0.0822338 -2.88183e-21)
(1.01335 0.0593097 5.73795e-22)
(1.01645 0.0568069 5.42713e-22)
(1.01184 0.0553618 -7.54323e-23)
(1.01214 -0.00266357 -7.57901e-23)
(1.01237 -0.00278767 1.61514e-23)
(1.01208 -0.00264037 -4.3128e-24)
(0.010954 -0.0523013 -5.87241e-21)
(0.0438201 -0.0797016 3.94915e-22)
(1.08152 0.0599161 -5.61742e-21)
(1.08251 0.0598299 8.07111e-21)
(1.08183 0.0607159 -7.19508e-23)
(1.03184 0.0181595 -4.00014e-21)
(1.03126 0.0176931 6.17213e-22)
(1.03189 0.0176182 5.70623e-22)
(0.517803 0.0122569 1.18177e-21)
(0.53588 0.0144624 9.54099e-21)
(0.534467 0.014829 -1.72725e-21)
(1.01011 0.0016351 3.14973e-22)
(1.01007 0.00153646 3.50761e-22)
(1.01035 0.00146738 2.93425e-22)
(0.948008 0.0842965 -1.09997e-22)
(0.951245 0.0970702 -5.67772e-22)
(1.02111 0.0235671 -9.15961e-23)
(1.02167 0.024145 7.73434e-23)
(1.02099 0.0243442 -8.72119e-23)
(1.00103 9.86057e-05 1.00031e-22)
(1.00299 0.000242206 -2.63054e-23)
(1.00084 6.80327e-05 4.48762e-23)
(1.05277 0.0331721 -2.55981e-21)
(1.05269 0.03205 0)
(1.03151 0.0347515 2.40789e-22)
(1.03129 0.0344502 2.27469e-22)
(1.03112 0.0349108 2.2232e-22)
(1.00082 -7.218e-05 0)
(1.00066 -3.94625e-05 0)
(1.00152 -7.05177e-05 1.89236e-22)
(1.01242 -0.000217326 -2.70627e-22)
(1.01299 -0.000398261 0)
(1.01246 -0.000462771 2.87204e-22)
(1.05921 0.0170038 8.04191e-21)
(1.05807 0.0175181 -3.16218e-21)
(1.05818 0.0162607 -8.47616e-21)
(1.09019 0.0715281 5.28082e-21)
(1.09019 0.0703128 -1.34601e-20)
(1.09154 0.0712817 -1.58504e-20)
(1.08857 0.0718892 7.36521e-21)
(1.08988 0.0732763 1.05433e-20)
(0.973588 0.154884 0)
(0.981441 0.150837 0)
(0.97928 0.164081 1.92624e-21)
(1.02618 0.0367604 -5.18574e-23)
(1.02728 0.0366897 -7.75038e-23)
(0.437007 0.0137851 -4.73317e-20)
(0.485309 0.0170841 -1.00648e-20)
(0.495633 0.0500484 -2.64918e-20)
(0.723918 0.0244679 -1.83106e-21)
(0.727967 0.0643254 -9.26699e-22)
(0.746275 0.0337312 -2.2034e-21)
(1.00999 0.00176839 0)
(1.01021 0.00169471 3.00226e-22)
(1.02533 0.0132951 1.2174e-21)
(1.02558 0.0129167 -3.65951e-23)
(1.02999 0.113948 1.4166e-21)
(1.02531 0.117512 6.26434e-21)
(1.02448 0.11111 3.7719e-21)
(0.302846 0.00187428 3.43684e-21)
(0.384956 0.00324467 -1.1909e-21)
(0.299649 0.00107956 -8.98307e-21)
(1.01862 0.0127356 3.3183e-23)
(1.01845 0.0123286 -9.22075e-22)
(1.0182 0.0124449 0)
(1.01971 0.0138071 -6.51722e-22)
(1.01949 0.0133758 -3.85948e-22)
(1.01994 0.0135807 -1.42346e-21)
(1.03317 0.111335 -6.52842e-22)
(1.03438 0.117218 -2.69835e-21)
(0.126555 -0.0158942 -1.14062e-20)
(1.05879 0.0574233 -6.31411e-21)
(1.05911 0.0554454 -1.92856e-21)
(1.01192 -9.3986e-05 4.21032e-23)
(1.01231 5.60569e-05 -2.77942e-22)
(0.964169 0.160398 1.5274e-21)
(0.965145 0.146456 0)
(0.514743 0.250866 -1.88193e-20)
(0.473076 0.259706 -8.22444e-21)
(0.469584 0.253388 6.42544e-21)
(1.01514 -0.0127181 -9.02298e-22)
(1.01225 -0.0128201 0)
(1.01356 -0.00955199 0)
(1.00382 -0.000134519 -1.13496e-22)
(1.00395 -0.000118089 1.28623e-22)
(1.00453 -0.000172757 4.37398e-23)
(1.03375 0.022664 0)
(1.033 0.0226286 1.22036e-21)
(0.865541 0.0559737 1.56435e-20)
(0.866874 0.0581926 2.21503e-20)
(0.836636 0.0547391 2.47444e-20)
(0.997957 -0.0141404 0)
(1.00293 -0.0138678 0)
(1.00025 -0.00970437 3.43524e-22)
(1.01025 0.0621954 -1.99376e-21)
(1.00638 0.065054 -1.37683e-21)
(1.00505 0.0601458 -5.91867e-22)
(0.946645 0.0726839 -8.53302e-22)
(0.937947 0.0818033 -3.58923e-22)
(0.985959 0.085389 1.03215e-21)
(0.440657 0.00617323 0)
(0.424006 0.00524346 0)
(0.421014 0.00500198 -1.28273e-20)
(0.983923 0.0644863 1.67501e-20)
(1.00014 0.0666991 7.94148e-21)
(0.955622 0.0622684 -1.91881e-20)
(0.503374 0.010321 1.29411e-20)
(0.502265 0.0111362 2.06689e-21)
(1.03317 0.00684502 2.05231e-21)
(1.03394 0.00709178 -1.41759e-21)
(1.03315 0.00732601 4.26928e-21)
(1.01142 -1.31744e-05 2.88951e-22)
(1.01151 -0.000171007 1.15671e-21)
(1.02908 0.0391882 1.06496e-22)
(1.02905 0.0381891 -5.93653e-23)
(1.02975 0.0249063 -2.02713e-21)
(1.03014 0.0254719 1.15666e-21)
(1.02937 0.0251624 -1.58079e-21)
(1.01247 0.0124713 7.58786e-22)
(1.01274 0.0131352 9.85751e-22)
(1.01321 0.0126485 2.17815e-22)
(1.01098 2.51694e-05 0)
(1.01129 0.000137307 0)
(1.03015 0.0244679 1.2055e-21)
(1.02927 0.0243242 0)
(1.03182 0.018461 -3.91567e-22)
(1.03235 0.0184689 -3.51848e-21)
(1.01601 0.0131805 4.35114e-23)
(1.01579 0.0128102 1.30448e-22)
(1.01598 0.0128267 7.65662e-23)
(1.00094 -2.45625e-05 -3.88474e-22)
(1.00096 -2.40351e-05 -3.7659e-22)
(1.0001 -3.79029e-05 0)
(1.03322 0.00632787 6.99702e-21)
(1.03242 0.00653513 4.78468e-21)
(0.947095 0.0508857 -2.15817e-20)
(0.986552 0.0521099 -5.515e-21)
(0.980293 0.0513623 1.90519e-22)
(1.01302 0.0022064 3.92114e-22)
(1.0131 0.00248196 -6.58891e-22)
(1.01277 0.00234427 -1.05283e-21)
(1.03536 0.12309 -1.58436e-21)
(1.04448 0.130355 -2.55863e-21)
(1.03005 0.133937 -1.74178e-21)
(1.08131 0.0587662 -5.16865e-21)
(1.08035 0.0597385 -1.15969e-20)
(1.01268 0.00128214 7.32978e-22)
(1.01241 0.00128878 -1.92603e-21)
(1.01191 0.000949438 -8.68902e-22)
(1.03151 0.0350392 -8.38619e-22)
(1.03175 0.0348819 -3.07053e-22)
(1.00089 -3.77052e-05 0)
(1.00164 -7.09336e-05 0)
(1.00275 -0.000100624 -2.95619e-22)
(1.00261 -0.000103939 -3.35612e-22)
(1.00306 -9.14527e-05 4.17846e-22)
(1.06004 0.0179794 3.82322e-21)
(0.727511 -0.0187472 9.32373e-22)
(0.718387 -0.000859943 -1.09773e-22)
(1.00932 0.00136942 6.12705e-22)
(1.00954 0.00134732 3.84615e-22)
(1.00922 0.00134512 -3.10232e-22)
(1.01913 0.0160442 -1.85202e-23)
(1.01876 0.0155757 -1.39431e-22)
(1.01877 0.0160827 -6.03415e-22)
(1.01559 0.0637657 5.90546e-23)
(0.918149 -0.1076 4.69918e-22)
(0.973622 -0.0951478 3.07389e-22)
(0.996047 -0.0762168 2.34375e-22)
(1.00126 4.80643e-05 0)
(1.0013 4.06528e-05 2.97488e-24)
(1.00009 9.04565e-06 -3.92974e-22)
(1.01292 0.00150462 -2.53128e-22)
(1.01285 0.00124232 1.02604e-21)
(1.06487 -0.0337072 7.92098e-21)
(1.06421 -0.0183351 2.58726e-21)
(1.07608 -0.0223798 5.05505e-21)
(1.00254 -8.35591e-05 6.85788e-23)
(1.00248 -9.46303e-05 2.68774e-24)
(1.00182 -4.56266e-05 1.88482e-22)
(1.00264 -9.46396e-05 8.4389e-23)
(1.00315 -0.000179963 5.53685e-23)
(1.01604 0.0134623 -4.80286e-23)
(1.01621 0.0134909 -7.99849e-23)
(1.00314 0.000228062 -1.29872e-22)
(1.00309 0.00020573 7.38224e-22)
(1.0023 0.000157762 3.93802e-22)
(1.01224 0.0115689 3.8379e-22)
(1.01172 0.0118777 -8.41423e-22)
(0.969106 0.0516862 -5.3138e-21)
(0.965254 0.0519539 1.75836e-20)
(0.930285 0.0547634 -6.70329e-21)
(0.61725 -0.000486515 1.5461e-22)
(0.602059 -0.00823076 3.9464e-21)
(0.592903 -0.0158803 -5.22675e-21)
(1.01883 -0.0113714 2.85951e-21)
(1.01951 -0.0156769 -9.57627e-22)
(1.01353 -0.00019563 -3.25843e-22)
(1.01357 -0.000635584 3.12579e-22)
(0.628167 -0.167137 1.89782e-21)
(0.610433 -0.151509 5.28727e-21)
(1.01894 0.000261891 1.79075e-21)
(1.01907 0.000259979 3.44508e-21)
(0.556843 0.0168191 1.296e-20)
(0.539852 0.0142914 5.9756e-21)
(1.01863 0.0542245 0)
(1.02077 0.0576487 0)
(0.85882 0.0547243 -2.24532e-20)
(0.897074 0.0594396 -1.85421e-20)
(1.02815 0.0262962 -3.24508e-22)
(1.02865 0.0268262 1.58932e-21)
(1.02856 0.02597 -7.71911e-22)
(1.08528 0.0816022 -3.13693e-21)
(1.08677 0.0798517 3.8602e-21)
(1.00253 -0.000121077 2.08014e-23)
(1.00304 -0.000119034 -2.79099e-22)
(1.00267 -0.00011899 -1.2912e-22)
(1.10663 0.0728365 2.62651e-21)
(1.10636 0.0707556 2.29775e-21)
(1.10422 0.0724335 1.20675e-20)
(1.03201 0.00316104 2.75039e-21)
(1.03213 0.00368735 1.45041e-21)
(1.03141 0.00332139 9.3537e-21)
(1.00171 -9.64879e-06 -2.22042e-23)
(1.00081 -2.94223e-05 4.93788e-23)
(1.01037 -6.6941e-05 0)
(1.01006 -6.57458e-05 -6.73225e-22)
(1.00998 -1.11894e-05 -2.8908e-22)
(1.0023 0.0679068 0)
(1.00842 0.070419 0)
(1.06623 0.0926456 1.11522e-20)
(1.06341 0.0939834 -8.99423e-21)
(1.06395 0.0902572 -2.77342e-21)
(0.395539 0.00384134 -5.3702e-21)
(0.415703 0.00647396 0)
(0.399795 0.00400776 -9.27991e-21)
(0.921997 0.051125 -8.3183e-21)
(0.916176 0.0513383 4.64138e-21)
(1.03397 0.0222175 -3.11534e-21)
(1.03418 0.0217471 -3.2003e-21)
(1.0335 0.0216787 1.32848e-21)
(1.02907 0.0404347 0)
(1.03026 0.039783 0)
(1.00937 0.00352372 5.51103e-25)
(1.00926 0.00340111 -2.14197e-22)
(1.00916 0.00342853 -3.86008e-22)
(1.06825 0.0907194 8.41385e-21)
(1.06868 0.0941893 1.30997e-20)
(1.06916 0.0379957 7.11977e-21)
(1.0688 0.0389633 6.24717e-21)
(1.07008 0.0386564 -4.16027e-21)
(0.920679 0.0379169 4.35993e-21)
(0.93012 0.0443304 2.18966e-21)
(0.917255 0.0487152 -6.42346e-21)
(0.681457 0.0416726 -5.39325e-21)
(0.651117 0.0396304 6.29146e-22)
(0.657835 0.0391045 -1.08048e-20)
(1.02768 0.0267192 -4.46616e-22)
(1.02755 0.0258069 5.06462e-23)
(1.08431 0.0633177 -1.08569e-20)
(1.08423 0.0642848 -1.96632e-20)
(1.08535 0.0636438 -2.67216e-21)
(0.583669 -0.187492 -9.09216e-21)
(0.651438 -0.176598 -7.04122e-21)
(0.423913 0.274624 -1.52257e-20)
(0.473359 0.266026 -5.94395e-22)
(0.471014 0.269871 -1.02587e-20)
(0.361546 0.00696571 7.68557e-21)
(0.358333 0.006576 -1.57188e-21)
(0.378397 0.00926347 8.50751e-21)
(1.02435 0.0461392 0)
(1.02525 0.0442914 0)
(1.02276 0.0446363 0)
(1.00093 0.0001289 6.26053e-22)
(0.957382 0.26606 1.36977e-21)
(0.974835 0.253649 -2.74545e-21)
(0.973116 0.261238 1.12825e-20)
(1.01067 -2.99959e-05 0)
(1.01055 5.98706e-05 2.85541e-22)
(0.963836 0.0535101 2.23492e-22)
(1.00431 0.0524489 -1.15524e-20)
(1.01147 0.00632996 -7.63136e-23)
(1.01125 0.00607697 -4.50189e-23)
(1.01135 0.00629476 8.70093e-25)
(1.03075 0.00659407 4.73176e-22)
(1.03135 0.00691746 -1.99018e-21)
(1.03077 0.00711898 -3.71974e-23)
(1.01929 0.00112489 -1.70081e-21)
(1.01837 0.00229188 5.07816e-22)
(1.01775 0.000916097 -2.1177e-22)
(1.00539 0.0643715 -1.52303e-21)
(0.963247 0.0619657 6.96863e-21)
(0.957653 0.114132 -1.32236e-20)
(0.484023 -0.00622711 3.13901e-20)
(0.487597 -0.0154888 -1.72705e-20)
(0.436501 -0.0398985 -3.49979e-20)
(1.01905 0.0130827 -4.2333e-22)
(1.01877 0.0132065 1.58333e-22)
(1.03143 0.0351199 -2.61908e-22)
(1.03133 0.0351214 1.38982e-21)
(1.0314 0.0351976 7.3255e-22)
(1.00291 -0.000117815 -9.51028e-24)
(1.003 -0.000123928 -1.48351e-22)
(1.00365 -0.000171309 1.82676e-22)
(1.03016 0.00630419 -1.7142e-21)
(1.03069 0.00608348 3.31781e-21)
(0.848208 -0.134469 -7.28276e-21)
(0.871958 -0.120858 1.08417e-22)
(1.01145 0.00702987 -6.40982e-23)
(1.01141 0.00719945 2.05405e-23)
(1.01134 0.00674675 -3.08783e-22)
(1.00317 0.000220896 -3.18728e-22)
(1.00356 0.000209404 -3.32822e-22)
(0.637574 0.0406353 -2.70094e-21)
(0.629961 0.0398343 0)
(0.610889 0.0376189 0)
(1.00165 -8.66857e-05 -4.00964e-22)
(1.00168 -8.45151e-05 1.89766e-22)
(1.00099 -5.90135e-05 8.77886e-24)
(1.00234 -0.000130166 2.59897e-22)
(1.00185 -0.000135893 2.34467e-22)
(1.01233 0.00461131 -1.40143e-23)
(1.0125 0.00489141 -9.35356e-22)
(1.01215 0.00472596 1.28769e-21)
(0.819901 0.114407 2.7324e-21)
(0.828001 0.107889 -4.5577e-21)
(0.793773 0.10504 2.98126e-20)
(1.0151 0.025384 0)
(1.01615 0.0253681 -1.34472e-22)
(1.01529 0.024299 -4.82307e-22)
(0.940153 0.261332 0)
(0.634662 0.18593 2.74634e-20)
(0.637477 0.177615 -1.5949e-20)
(0.66463 0.175432 2.13836e-21)
(1.06931 -0.0638343 -6.21658e-22)
(1.06997 -0.0555083 -6.87442e-22)
(1.08821 -0.0452671 3.85763e-21)
(0.304648 0.00149093 -9.416e-21)
(0.506146 0.212259 2.47396e-21)
(0.538455 0.208202 -2.76088e-20)
(0.498855 0.219284 -2.79619e-20)
(1.00712 -0.00077223 -1.70778e-23)
(1.00726 -0.000848664 1.18924e-23)
(1.00725 -0.000809324 9.52799e-24)
(1.02321 0.0482321 -5.6263e-22)
(1.02601 0.0478151 3.99249e-22)
(1.01246 0.00854553 0)
(1.01244 0.00857107 5.15321e-22)
(1.01269 0.00886503 1.21663e-22)
(0.686341 0.0364417 6.28452e-21)
(0.68917 0.0378882 0)
(0.658914 0.034435 0)
(1.06396 0.0204167 0)
(0.602649 0.244425 -9.61619e-21)
(0.555401 0.24939 -4.91598e-21)
(0.567512 0.253862 1.69332e-20)
(1.01788 0.0686683 1.86727e-21)
(1.02041 0.0687493 1.66511e-21)
(1.01865 0.0719845 -1.24577e-21)
(1.00218 -9.06606e-05 0)
(1.00274 -0.000115956 -3.69177e-22)
(1.00203 -8.46114e-05 0)
(1.03734 0.015652 0)
(1.03678 0.0150452 -4.55343e-22)
(1.02147 0.121445 2.88707e-21)
(1.01666 0.126118 7.95605e-21)
(1.01549 0.118925 -3.14979e-21)
(1.06944 0.0368765 0)
(1.06822 0.0371802 0)
(1.01493 0.0266421 2.68153e-22)
(1.01406 0.025317 0)
(1.05724 0.0178487 -2.51923e-21)
(1.05631 0.0171487 -8.3376e-21)
(1.05612 0.0182749 -7.66715e-21)
(1.01225 0.00826477 3.2304e-22)
(1.0249 0.0132131 0)
(1.02513 0.0136326 0)
(1.05945 0.148878 -4.55997e-21)
(1.06271 0.143655 0)
(1.06425 0.150557 1.03739e-20)
(1.10707 0.0748193 -8.15175e-21)
(1.10841 0.0730844 1.42263e-20)
(0.922908 0.0259246 -2.77327e-21)
(0.90768 0.0291947 6.93992e-21)
(1.0246 0.0127708 0)
(1.02438 0.0131152 6.4954e-22)
(1.05664 0.156349 -5.73604e-21)
(1.05177 0.148527 -5.71138e-21)
(1.01218 -0.0026618 -7.83408e-23)
(1.01188 -0.00253724 -3.87067e-23)
(1.02825 0.115938 2.86138e-22)
(1.04146 0.112132 1.5033e-21)
(1.01611 0.065428 2.05083e-21)
(1.01392 0.0688214 1.483e-21)
(1.08709 0.0719336 -3.70102e-21)
(1.08742 0.0705725 4.438e-21)
(1.06568 0.127229 3.16229e-22)
(1.06589 0.122417 -5.92673e-21)
(1.06099 0.124194 -3.89543e-21)
(0.453727 -0.000613972 0)
(0.474384 -0.000194098 -9.89013e-21)
(0.452997 -0.00243588 -1.28048e-20)
(1.00947 0.00137717 7.10463e-22)
(1.0092 0.00138923 -3.63979e-22)
(0.408023 0.00555834 1.71537e-20)
(0.423622 0.00713021 1.62388e-20)
(0.403658 0.00450224 -1.59472e-21)
(1.03701 0.0309406 -1.01264e-21)
(1.03656 0.0313455 2.36489e-21)
(1.03636 0.030581 2.24683e-21)
(0.713092 0.0435401 -5.87803e-21)
(0.706665 0.0438524 1.11587e-20)
(1.01009 0.00144648 -2.3332e-22)
(1.00977 0.00155214 -7.92673e-22)
(1.01148 0.00685725 2.71044e-22)
(1.01157 0.00725425 -2.93431e-22)
(1.02598 0.0350327 -5.90506e-22)
(1.02683 0.0349135 -2.81686e-22)
(1.02619 0.0341766 -6.8883e-23)
(0.425036 0.00420532 0)
(0.42532 0.0049168 0)
(0.444166 0.00594944 0)
(0.362182 0.00645792 4.64155e-23)
(0.335631 0.00458144 2.41622e-20)
(1.01891 0.0206502 -2.38938e-22)
(1.01884 0.0213005 -4.27883e-23)
(1.01833 0.020597 -3.52525e-23)
(0.720277 -0.0991058 7.85185e-21)
(0.776736 -0.0950129 -8.97857e-21)
(0.712136 -0.0839965 -1.71203e-20)
(1.0089 0.040862 1.15703e-21)
(1.00678 0.0390467 5.80767e-22)
(1.00924 0.0382029 1.75723e-21)
(1.03133 0.0351988 -1.03541e-21)
(1.01075 -0.000136617 -3.03751e-22)
(1.02685 0.123626 0)
(1.01561 0.0124353 -1.86876e-22)
(1.01563 0.0127282 -2.13279e-22)
(1.0075 0.00249312 1.44423e-22)
(1.0073 0.00239531 6.87784e-22)
(1.00738 0.00237035 -2.54538e-23)
(0.996518 0.0250881 -3.03952e-21)
(0.996539 0.0215068 -5.07305e-21)
(1.00026 0.0238995 -3.93957e-21)
(0.99264 0.0268634 -1.20315e-22)
(0.997392 0.030037 -3.35781e-22)
(0.54465 0.0315392 3.1017e-20)
(1.08336 0.0629513 3.38354e-21)
(1.08443 0.0624671 -1.16176e-20)
(1.02717 0.0438343 3.98553e-22)
(0.736889 0.0454427 1.37963e-20)
(0.739027 0.048762 0)
(0.766727 0.0539449 -1.45005e-20)
(1.00676 0.000590195 -2.82339e-22)
(1.00587 0.000511489 0)
(1.00753 0.000650749 3.58372e-22)
(1.00653 -0.000449875 -1.19165e-25)
(1.00665 -0.000431612 0)
(1.00634 -0.000413207 0)
(1.00671 -0.000488206 -1.07175e-23)
(1.00641 -0.000450652 -4.02058e-22)
(0.514866 0.200823 2.73505e-20)
(1.06356 0.139118 -8.67701e-21)
(1.06505 0.132316 -9.23014e-21)
(1.05864 0.135441 -2.49677e-21)
(1.05511 0.163803 -6.38593e-22)
(1.05406 0.171821 0)
(1.04535 0.163358 2.53931e-21)
(1.01861 0.00162252 -1.07894e-21)
(1.01881 0.00181978 -2.6621e-22)
(1.01886 0.0015802 -8.53104e-22)
(1.00373 -0.000130163 -1.8812e-23)
(1.0029 -9.24455e-05 -2.03323e-23)
(0.522783 -0.192733 5.75611e-22)
(0.54268 -0.209592 -6.52017e-21)
(0.41137 0.00604109 1.22982e-22)
(1.00568 -0.000345412 4.30516e-22)
(1.00588 -0.000356629 0)
(1.00583 -0.000327507 -5.90171e-22)
(1.00545 -0.000322241 5.67994e-22)
(1.00552 -0.000360263 -1.27733e-22)
(1.00123 -9.29155e-05 0)
(1.00051 -5.20294e-05 0)
(1.00689 -0.000525676 -5.55037e-24)
(1.00702 -0.00051502 4.68512e-22)
(1.00708 -0.000562635 -4.73565e-22)
(1.00679 -0.000524654 0)
(0.486598 0.00820807 1.47866e-20)
(0.498929 0.00951467 2.49103e-22)
(0.59121 0.0544586 -1.77477e-20)
(0.595214 0.081238 -2.28187e-20)
(0.624981 0.0749421 -4.3225e-20)
(1.01439 0.0106048 0)
(1.01424 0.0103641 0)
(1.01445 0.01059 -1.5062e-22)
(1.00816 -0.00128351 -8.46254e-25)
(1.00834 -0.00134876 4.77162e-24)
(1.00811 -0.00127688 1.07341e-23)
(1.04027 0.0845866 3.76512e-22)
(1.03698 0.0836319 -8.1487e-21)
(1.0393 0.0816799 -4.38086e-21)
(0.48602 0.0113905 -1.62247e-20)
(0.472862 0.00946745 -6.68215e-23)
(0.489224 0.0114641 7.26421e-21)
(1.00176 -9.10258e-05 0)
(1.00111 -5.55123e-05 0)
(1.00113 -6.61394e-05 -3.85126e-22)
(1.01837 0.00170463 -1.59585e-21)
(1.01841 0.00145418 0)
(0.730364 -0.116636 1.00346e-21)
(0.654333 -0.113538 8.72044e-21)
(0.960839 0.0541908 1.24409e-20)
(0.956269 0.0547828 -2.16576e-21)
(0.996441 0.0542949 8.19286e-21)
(1.0684 0.140488 1.00678e-20)
(0.736661 0.043714 -2.94115e-21)
(0.709841 0.0370409 1.04495e-20)
(1.00285 0.0856763 5.30764e-23)
(0.999575 0.0817485 1.17905e-22)
(0.997469 0.0865549 -3.75236e-23)
(1.01158 0.0063389 -3.51349e-23)
(1.01168 0.00654916 -8.19207e-23)
(0.579917 0.194168 2.77864e-20)
(0.57125 0.202582 2.44334e-21)
(1.04324 0.0860156 -5.88173e-21)
(1.04044 0.0882099 3.04317e-21)
(1.0206 0.0522454 5.12493e-22)
(1.01689 0.0517178 0)
(1.0739 0.0724067 3.86689e-22)
(1.0745 0.0739079 5.20263e-22)
(1.07582 0.0726409 2.18059e-21)
(1.01895 0.0200328 -3.01291e-23)
(1.01947 0.0206107 -2.43813e-23)
(0.591046 0.0366394 1.48834e-20)
(1.03226 0.00414313 -3.77071e-21)
(1.03177 0.00426394 2.30911e-21)
(1.03238 0.00463688 -1.74774e-21)
(1.03009 0.0424002 1.01369e-21)
(1.02897 0.0423492 -7.29646e-22)
(1.02978 0.0434099 -1.61799e-21)
(1.02287 0.0674369 4.10564e-23)
(1.02564 0.0659172 3.30729e-22)
(1.02264 0.0645124 -2.50827e-21)
(1.0143 0.0106349 5.62866e-23)
(1.01434 0.0105939 -3.38398e-23)
(1.01413 0.0104147 5.82243e-23)
(1.00069 -2.08278e-05 0)
(1.03444 0.0227581 -5.09051e-23)
(1.00458 0.00719517 1.15291e-21)
(1.00602 0.00676611 1.60133e-21)
(1.005 0.00497271 1.42792e-21)
(1.01086 0.00140934 3.80763e-22)
(1.01101 0.00135705 6.08659e-24)
(1.01129 0.00140825 4.39352e-22)
(0.44959 0.0111828 -8.04209e-21)
(0.436973 0.00921253 -1.86988e-22)
(0.432766 0.00907837 -7.92298e-21)
(0.760185 0.203482 0)
(0.781744 0.198494 -1.73638e-22)
(0.766238 0.182781 -2.6605e-22)
(1.00985 -6.83509e-05 -5.06606e-22)
(1.00959 2.36386e-05 7.45105e-23)
(1.00957 -2.93273e-05 4.90969e-23)
(1.00535 -0.000273206 -1.02851e-23)
(1.00525 -0.000299948 -2.51e-23)
(1.01149 0.00767539 -7.94121e-23)
(1.0113 0.00741283 3.17482e-22)
(1.00547 -0.000255443 1.56872e-22)
(1.00526 -0.000239201 4.61218e-23)
(1.03288 0.00400862 2.08848e-21)
(1.01521 0.000350441 -8.58777e-22)
(1.01104 0.00022711 0)
(1.04572 0.047662 -8.62957e-21)
(1.04601 0.0490471 4.43585e-21)
(1.04464 0.048583 -1.1722e-20)
(1.01013 -0.00016866 -5.88396e-22)
(1.01013 -0.000132492 2.60943e-22)
(0.36221 0.00891079 7.93171e-21)
(0.379632 0.0118694 7.94072e-21)
(0.630518 0.0089642 0)
(0.640126 0.0138046 0)
(1.02133 0.010768 -2.81764e-22)
(1.02148 0.0104404 -1.63035e-21)
(1.02092 0.0103784 1.35557e-21)
(1.0088 0.00809217 -4.49821e-22)
(1.00797 0.00878876 -4.57408e-22)
(1.00894 0.00938078 -9.07997e-22)
(0.957334 0.165768 2.10736e-21)
(0.947441 0.156561 -1.65663e-22)
(0.947975 0.171611 7.85745e-22)
(1.00727 -0.00065009 -7.41775e-22)
(1.00746 -0.000683805 -3.29406e-22)
(1.00717 -0.000655086 -3.62577e-22)
(1.06267 -0.00149177 2.13522e-21)
(1.06029 -0.0100062 3.02663e-21)
(1.05408 -0.00182522 3.69107e-21)
(0.466877 0.0136514 7.51388e-21)
(0.462352 0.0133553 0)
(1.0071 -0.000619067 0)
(1.00739 -0.000643737 -2.34177e-22)
(0.457634 0.00797412 0)
(0.453922 0.0077021 0)
(1.01069 0.00144083 3.53764e-22)
(1.01045 0.00138894 6.57484e-22)
(0.855451 0.124061 9.94955e-21)
(0.818402 0.123579 -1.0151e-20)
(1.00221 -8.95247e-05 3.18553e-22)
(1.0015 -5.63728e-05 2.65557e-22)
(1.01305 0.0107363 -1.35769e-22)
(1.01379 0.0102987 -5.71223e-22)
(1.01363 0.011265 8.36866e-23)
(1.01429 0.0106575 4.42906e-23)
(1.01445 0.0108427 -2.51472e-22)
(1.01074 0.00575495 3.93072e-23)
(1.01052 0.00552306 0)
(1.01058 0.00555714 -2.49747e-23)
(1.09312 0.104602 5.71746e-21)
(1.09114 0.101888 4.97629e-21)
(1.09513 0.101247 3.68991e-21)
(1.00315 0.000269743 1.23789e-23)
(1.00317 0.000248315 1.06171e-23)
(1.00148 0.000124994 9.86573e-23)
(1.05748 -0.0725662 1.61087e-21)
(1.0361 -0.0841118 -3.40481e-21)
(1.03436 0.0339985 -3.0814e-21)
(1.0339 0.0342942 -2.14633e-21)
(1.0339 0.0335896 4.28073e-22)
(1.02023 -0.000267797 -8.59356e-22)
(1.02179 0.0013608 -1.737e-21)
(0.847054 -0.0692803 2.89256e-21)
(0.843515 -0.0866953 -1.03654e-20)
(0.899979 -0.0757183 -2.11345e-20)
(0.34731 0.00663948 0)
(1.00229 -0.000104951 4.65851e-22)
(1.00229 -9.88319e-05 0)
(1.05096 0.0638299 -8.63681e-21)
(1.05224 0.0653545 -3.91529e-21)
(1.05295 0.0634797 9.6497e-21)
(1.00485 0.0116748 -1.21737e-21)
(1.00437 0.00934341 -1.65073e-21)
(1.00608 0.010692 -5.50077e-22)
(1.02735 0.0270854 -2.3929e-21)
(1.0269 0.0274011 1.43593e-21)
(1.02677 0.0265831 -2.26184e-21)
(1.00551 0.014353 -5.83138e-22)
(1.00743 0.0144593 5.03312e-22)
(1.03048 0.0241382 -1.02088e-21)
(1.03084 0.0247107 2.44967e-21)
(1.00976 0.00134598 -2.967e-22)
(1.00998 0.00134166 -9.51341e-22)
(1.00963 0.00134067 -3.1455e-22)
(1.00408 0.000343761 0)
(1.00294 0.000243647 -1.51605e-22)
(1.00303 0.1144 2.93993e-21)
(1.00417 0.121445 1.77188e-21)
(1.00961 0.116378 -3.34442e-21)
(1.04616 0.0216341 9.57153e-22)
(1.04782 0.0300669 -9.82883e-23)
(1.03702 0.0244959 2.56164e-22)
(1.0312 0.042461 1.09121e-21)
(1.03041 0.0415755 1.90561e-21)
(1.03085 0.0237772 -1.85858e-21)
(1.03009 0.0236211 -1.64696e-22)
(1.01818 0.00171988 -1.45878e-21)
(1.01803 0.00152469 0)
(1.01795 0.00172544 2.49336e-21)
(0.645422 0.0403362 1.27508e-20)
(0.667675 0.0424153 -5.13742e-21)
(0.418446 0.00293719 -3.37798e-21)
(0.38949 0.0038294 1.87038e-20)
(1.0089 0.00302102 -1.30492e-22)
(1.00879 0.00287822 -2.81214e-22)
(1.00869 0.00292266 1.74372e-22)
(1.01194 0.00336355 1.03407e-21)
(1.01009 0.00426209 5.66731e-22)
(1.01064 0.0022875 3.75365e-22)
(1.02796 0.0275118 1.37303e-21)
(0.922633 0.0630047 -5.88802e-22)
(0.915558 0.0467077 6.27022e-22)
(0.933686 0.0488818 0)
(1.09279 0.0615637 3.69587e-21)
(1.0933 0.0613681 0)
(1.09267 0.061138 0)
(0.62613 0.00820386 1.71161e-20)
(0.603596 4.90444e-05 -8.20328e-21)
(0.604944 -0.00387567 3.87965e-21)
(0.629095 0.238472 -2.64385e-20)
(0.646185 0.242107 -2.54105e-21)
(1.01107 -0.0205422 -3.17741e-21)
(1.0062 -0.0173842 1.56486e-22)
(1.00691 -0.0233345 -5.08812e-22)
(0.941664 0.0513868 4.80481e-21)
(0.943956 0.0413795 3.69579e-22)
(1.00937 0.00765188 4.16953e-22)
(1.00883 0.00682148 4.76866e-22)
(1.02252 0.0546353 1.86673e-20)
(0.99226 0.0536905 -3.03792e-21)
(0.90901 0.0796862 -2.12143e-21)
(0.930613 0.077715 -5.64839e-22)
(1.10577 0.0640866 1.56179e-21)
(1.10631 0.0657487 -1.19286e-20)
(1.01508 0.000457888 3.25855e-21)
(1.01057 0.00010662 -1.08998e-21)
(1.01239 0.0101948 1.82289e-22)
(1.01263 0.00881162 4.185e-22)
(0.804471 -0.118474 -6.64094e-21)
(1.0121 0.00831613 -1.06375e-21)
(1.0122 0.00840217 -1.33422e-21)
(1.01229 0.00867184 3.43495e-22)
(0.983371 0.0272068 2.21812e-21)
(0.981052 0.0229647 2.36639e-22)
(1.08564 0.0719781 1.52701e-20)
(1.08667 0.0735295 -7.53174e-21)
(1.00115 -6.87566e-05 -1.893e-22)
(1.00105 -6.85217e-05 -3.27736e-22)
(1.00037 -6.22733e-05 -5.29156e-22)
(0.709332 0.0387745 4.87597e-21)
(0.679656 0.0354045 -8.06292e-21)
(1.01292 0.00171027 -3.30963e-22)
(1.01295 0.00199053 2.45891e-21)
(1.01271 0.00183982 1.64728e-21)
(1.08203 0.0423753 7.53406e-21)
(1.08306 0.0430314 9.80348e-21)
(1.00988 -0.00150659 8.90064e-23)
(1.00984 -0.001515 1.5135e-22)
(1.01018 -0.00159684 3.06208e-22)
(0.255319 -0.036524 2.16469e-21)
(0.279806 -0.0194007 -1.03287e-20)
(1.00628 0.00173868 -8.87411e-23)
(1.00615 0.00166005 -2.88247e-22)
(1.00616 0.00161752 1.78764e-22)
(1.03206 0.0425525 2.3083e-21)
(1.03232 0.0416875 9.71927e-22)
(1.03297 0.0424963 1.10277e-21)
(1.00913 0.0431269 5.95714e-22)
(1.01148 0.0417392 1.53288e-22)
(1.01541 -0.0207137 4.79481e-23)
(1.0129 -0.0161987 6.92777e-23)
(1.00194 -6.11109e-05 -3.43456e-22)
(1.00138 -6.51968e-05 5.35574e-22)
(1.07687 0.0715462 5.0305e-21)
(1.07805 0.0705377 -1.61843e-21)
(1.07644 0.0700717 6.00503e-21)
(0.98852 0.0508636 -2.13041e-21)
(1.02463 0.0513684 8.95096e-21)
(0.991815 0.0504349 9.8672e-21)
(1.01974 0.0158459 3.93549e-22)
(1.01941 0.0159731 1.2485e-22)
(1.01937 0.0153527 1.4686e-22)
(1.01196 0.00820949 8.68261e-23)
(1.01193 0.00795461 -1.0293e-21)
(0.573903 0.0191602 -6.23518e-21)
(0.577938 0.019156 8.25264e-22)
(0.97838 0.0532144 -1.59451e-21)
(0.984868 0.0520879 -1.64026e-20)
(1.01854 0.0524967 -6.15614e-21)
(0.857382 0.207314 -2.80407e-21)
(0.884819 0.201228 -5.76636e-21)
(0.838127 0.203382 -1.60591e-20)
(0.969792 0.238153 6.3057e-22)
(0.946561 0.254483 4.1686e-22)
(1.00693 -0.000587556 3.40605e-22)
(1.0068 -0.000586734 3.7883e-22)
(1.01498 0.0111141 6.32961e-23)
(1.01484 0.0108446 0)
(1.01507 0.0110921 2.72824e-23)
(0.951817 0.0556281 -1.32383e-21)
(0.947815 0.0564587 -1.69264e-21)
(0.988049 0.0558405 8.35092e-21)
(0.947884 0.0573567 -2.77631e-21)
(0.938214 0.0605391 -6.79708e-21)
(1.00706 -0.000593554 -1.21859e-22)
(1.00677 -0.000563822 2.939e-22)
(1.00288 0.0133873 8.00263e-22)
(1.02182 0.0131429 -5.27297e-22)
(1.02208 0.0135904 5.27128e-22)
(1.02159 0.0133148 -1.17277e-23)
(1.04199 0.0439868 -1.24775e-21)
(1.0443 0.0457715 -2.50648e-23)
(1.04489 0.0423326 -7.98076e-22)
(1.03179 0.0434661 6.64992e-22)
(1.0603 0.111777 -6.15105e-21)
(1.06121 0.107818 4.44566e-21)
(1.05695 0.108637 6.13763e-22)
(0.982857 0.0540733 3.42811e-23)
(0.98774 0.0508851 -1.47754e-21)
(0.988874 0.0566728 1.88342e-22)
(1.06118 0.0071304 3.58785e-21)
(1.06933 0.00256433 0)
(1.07914 0.0437793 8.96727e-22)
(1.07831 0.0444067 1.20892e-21)
(1.07934 0.0448393 -8.25492e-22)
(0.521489 0.00680348 0)
(0.502991 0.00489686 1.05698e-20)
(0.518222 0.00806501 0)
(1.00961 0.00360885 6.17544e-22)
(1.00949 0.00362828 1.18306e-21)
(1.02013 0.016329 -3.64915e-22)
(1.02005 0.0157178 -5.84911e-22)
(1.00456 0.019522 8.46273e-22)
(1.00671 0.0212337 2.08404e-22)
(1.10618 0.0952971 3.89917e-21)
(1.10617 0.0921222 -1.58531e-21)
(1.10915 0.0943565 8.13695e-21)
(1.00112 -7.72913e-05 -2.32998e-23)
(1.00047 -4.34603e-05 4.63936e-22)
(1.00115 -7.91735e-05 2.29399e-22)
(0.420289 -0.000571907 -7.23223e-21)
(1.07998 0.0432422 -1.08762e-20)
(1.07881 0.0428919 -6.93104e-23)
(0.884884 -0.150896 -4.07816e-21)
(0.895078 -0.13156 -4.51764e-22)
(1.01953 0.0139727 2.06736e-22)
(1.01995 0.0141754 -2.04827e-22)
(0.962739 0.0534495 -2.85841e-21)
(0.956752 0.058348 7.63389e-22)
(0.965884 0.0611285 2.68651e-21)
(1.01357 0.00454274 -1.9815e-21)
(1.01289 0.00257978 -7.6573e-22)
(0.732961 -0.062519 8.12232e-22)
(0.748261 -0.102968 -6.54327e-21)
(0.741549 -0.103104 1.7967e-21)
(1.01242 0.000889452 3.22613e-22)
(1.01274 0.0007477 0)
(1.01217 0.000624822 0)
(1.0638 0.164226 9.61888e-21)
(0.966657 0.175015 2.92695e-21)
(1.00683 0.0455229 0)
(1.00995 0.0463783 0)
(1.02118 0.0110299 5.37029e-22)
(1.02172 0.0111358 -2.37961e-22)
(1.09878 0.0952479 0)
(1.10239 0.100023 0)