/*--------------------------------*- C++ -*----------------------------------*\
| =========                 |                                                 |
| \\      /  F ield         | OpenFOAM: The Open Source CFD Toolbox           |
|  \\    /   O peration     | Version:  v2012                                 |
|   \\  /    A nd           | Website:  www.openfoam.com                      |
|    \\/     M anipulation  |                                                 |
\*---------------------------------------------------------------------------*/
FoamFile
{
    version     2.0;
    format      ascii;
    class       surfaceVectorField;
    location    "550";
    object      Uf_0;
}
// * * * * * * * * * * * * * * * * * * * * * * * * * * * * * * * * * * * * * //

dimensions      [0 1 -1 0 0 0 0];


internalField   nonuniform List<vector> 
20580
(
(1.1263 0.0511911 4.50497e-21)
(1.12616 0.0536196 3.65807e-21)
(1.12416 0.0515221 1.21412e-20)
(1.06864 -0.0226843 -3.78763e-21)
(1.06914 -0.023725 4.16293e-21)
(1.07041 -0.0225858 -7.9333e-21)
(1.06796 -0.0211543 6.70317e-21)
(1.06668 -0.0223482 2.92716e-21)
(-0.193463 -0.0142677 0)
(-0.16824 -0.017627 0)
(-0.192799 -0.0152979 0)
(1.00209 -0.000524542 -5.96015e-22)
(1.00188 -0.000485368 -6.22223e-22)
(1.00197 -0.000289125 -6.26657e-22)
(1.0797 -0.0354147 4.52318e-23)
(1.07953 -0.0374705 1.68866e-21)
(1.07748 -0.0363382 9.96936e-21)
(1.05642 0.0108825 0)
(1.05683 0.0117802 1.28418e-20)
(1.01339 -0.000853307 1.13197e-23)
(1.01308 -0.00086878 1.02692e-23)
(1.01237 -0.000535417 -6.42773e-24)
(0.324262 0.0392094 6.63422e-21)
(0.330063 0.0390507 -9.19062e-21)
(0.301995 0.0354229 -8.97567e-23)
(0.990609 -0.00729501 -8.74699e-21)
(0.991024 -0.00663025 -2.49179e-21)
(0.991421 -0.00723612 -5.02313e-21)
(1.16101 -0.0945795 1.11337e-20)
(1.15579 -0.0947101 1.06892e-21)
(1.15896 -0.0995632 -2.27786e-20)
(1.0011 -0.00782456 1.8247e-21)
(1.00126 -0.00814074 -1.96981e-21)
(1.00111 -0.00820584 1.72722e-21)
(0.980301 -0.0180473 5.8955e-21)
(0.979906 -0.0189516 7.45636e-21)
(0.981096 -0.0186403 1.24997e-20)
(0.112785 0.0130285 -1.16771e-20)
(0.0991905 0.00988341 1.2876e-20)
(0.117429 0.0152342 1.38318e-21)
(1.09636 0.010157 -8.76532e-21)
(1.09805 0.0103941 -8.87965e-21)
(1.09702 0.00874692 -9.78366e-21)
(1.08609 0.0522215 1.38494e-21)
(1.08564 0.0522789 0)
(1.08601 0.0526903 8.05467e-21)
(-0.297116 -0.00492121 -3.72279e-20)
(-0.31974 -0.004152 0)
(-0.307969 -0.00132615 7.80976e-20)
(1.03377 -0.01887 0)
(1.03465 -0.0188871 0)
(1.03432 -0.0197545 0)
(1.19742 0.0470359 5.107e-21)
(1.20002 0.0447224 4.63915e-21)
(1.19787 0.0488612 -2.48242e-20)
(1.12841 0.0509215 0)
(1.12643 0.0491849 0)
(1.10956 0.00586597 1.66484e-20)
(1.10885 0.00396637 -6.84304e-21)
(1.10726 0.00573193 -3.87044e-20)
(1.03889 -0.0898779 9.52183e-21)
(1.03561 -0.0902723 -4.24117e-22)
(1.03722 -0.0868502 0)
(0.723835 -0.346636 6.21543e-20)
(0.574818 -0.283446 -4.00364e-20)
(0.439801 -0.220515 2.38054e-20)
(1.00006 -0.000200214 -1.29565e-22)
(1.00009 -0.000264121 1.78753e-21)
(1.00006 -0.000168279 1.35504e-21)
(1.22261 -0.0104048 -1.71882e-20)
(1.21263 -0.0112894 1.40656e-21)
(1.11544 -0.000105365 -1.9679e-21)
(1.08342 0.0415991 -2.92704e-20)
(1.08336 0.0423282 9.50406e-21)
(1.08417 0.0420521 -1.34411e-20)
(1.08959 0.0636101 -2.11209e-20)
(1.08844 0.0648562 -5.01119e-21)
(1.08747 0.0638187 -2.02695e-20)
(1.16647 0.0899238 -2.601e-20)
(1.16949 0.0903459 -4.96125e-20)
(1.12623 0.093437 -4.51911e-20)
(0.470329 0.0350325 0)
(0.446271 0.0333414 -7.28426e-21)
(0.437931 0.0326183 0)
(1.02041 -0.0119837 -3.36972e-21)
(1.02004 -0.0123529 1.44156e-21)
(1.0198 -0.0117199 2.32749e-22)
(-0.0786488 -0.0092946 2.5323e-20)
(-0.107796 -0.00953965 -5.40229e-20)
(-0.0612868 -0.00897947 4.5886e-21)
(1.05709 0.0104802 -1.19447e-20)
(1.05596 0.0102616 0)
(1.11891 0.0522023 -7.93497e-21)
(1.1172 0.0524026 2.47724e-21)
(1.118 0.0505022 -2.55034e-20)
(0.382586 0.0648809 -1.09605e-20)
(0.372232 0.0644679 1.89906e-20)
(0.430804 0.0691989 2.24802e-20)
(1.12536 -0.081895 0)
(1.12654 -0.0783233 0)
(1.12873 -0.0825518 0)
(0.469011 0.0339306 3.36708e-21)
(0.500307 0.0363001 0)
(0.47695 0.0335423 -1.39104e-20)
(1.00002 -0.000130818 -3.06899e-21)
(1.00006 -0.000239648 -2.06061e-21)
(1.26254 -0.152483 -1.0151e-19)
(1.19044 -0.139912 1.2569e-20)
(1.17102 -0.131976 -5.21411e-20)
(-0.0154289 0.0175665 7.05814e-20)
(0.00101575 0.0188286 -4.55654e-20)
(0.0337339 0.0192982 -3.05552e-20)
(1.0051 -0.037196 1.5519e-21)
(1.00587 -0.0363395 -3.02724e-21)
(1.00624 -0.037587 -7.81483e-21)
(0.190742 0.0559592 -1.52909e-20)
(0.238211 0.0614443 6.07911e-20)
(0.201987 0.0572715 -1.2842e-20)
(0.493674 0.0375997 0)
(0.50263 0.0375686 -1.64051e-21)
(-0.278875 -0.00298867 1.2832e-20)
(-0.28136 -0.00422236 0)
(1.10037 -0.461967 -1.47883e-20)
(1.09196 -0.469376 -3.35703e-20)
(1.0864 -0.474908 -3.90011e-20)
(0.519119 0.042788 1.07501e-21)
(0.509711 0.0424783 8.8341e-21)
(0.482379 0.0388723 1.21159e-20)
(1.01431 -0.0222974 0)
(1.0136 -0.0223267 0)
(1.01387 -0.0215202 2.9369e-22)
(1.01959 -8.26613e-05 5.84379e-22)
(1.0194 -2.27436e-05 -1.35323e-22)
(1.09056 0.0519401 1.64777e-20)
(1.09017 0.0523526 -6.28561e-22)
(1.09012 0.051594 8.57529e-21)
(1.04441 -0.0569995 6.36489e-21)
(1.04258 -0.0551655 -1.22034e-21)
(1.04512 -0.0550737 -1.31823e-21)
(0.980697 -0.0169879 -3.48203e-21)
(0.979299 -0.0172723 -6.83745e-21)
(-0.234374 0.00614083 7.41557e-21)
(-0.232103 0.00534098 -1.04911e-19)
(-0.270052 0.00341836 -1.085e-19)
(0.972778 -0.0110576 0)
(0.973992 -0.011199 4.25438e-21)
(0.973144 -0.0123297 5.76664e-21)
(1.08652 0.0522131 1.40191e-21)
(1.08608 0.0518241 -2.91955e-22)
(1.07188 0.0204082 0)
(1.07288 0.0209422 2.44871e-21)
(1.07184 0.0214971 1.28624e-20)
(0.16588 0.00906139 8.24639e-23)
(0.184943 0.0128252 2.9379e-20)
(0.160584 0.00901639 1.11234e-20)
(1.00454 -0.0381043 4.06751e-21)
(1.0041 -0.0367767 -7.80175e-23)
(1.1193 0.054369 6.44935e-22)
(1.12084 0.0521985 -1.86686e-20)
(0.176628 0.0549278 -5.26475e-20)
(0.150299 0.0481607 -5.37525e-20)
(1.08407 0.05729 2.64838e-20)
(1.08522 0.057249 -6.6107e-21)
(1.08593 0.0579977 1.37167e-20)
(-0.0269871 0.0127442 8.78183e-21)
(-0.0152683 0.0134977 -1.90382e-21)
(-0.00353463 0.0169719 2.15946e-21)
(1.00096 -0.00750405 0)
(1.00109 -0.00745192 0)
(1.09207 0.0626924 1.61138e-22)
(1.09254 0.0635055 -2.44953e-21)
(0.995555 -0.00193999 -3.9541e-21)
(0.995618 -0.00236428 3.63611e-21)
(0.995132 -0.00230996 8.91041e-21)
(1.0435 -0.0584366 1.04312e-20)
(1.04584 -0.0581234 -4.53816e-22)
(0.865864 -0.450425 0)
(0.889954 -0.445311 6.646e-22)
(0.873377 -0.428442 0)
(0.839745 -0.454892 3.38134e-21)
(0.859178 -0.479504 1.24362e-21)
(-0.039307 0.00879742 1.32592e-20)
(-0.0537562 0.00711481 -1.32483e-20)
(0.699726 -0.116775 -2.1958e-20)
(0.693256 -0.133084 2.3814e-21)
(1.01995 -0.0389323 1.297e-21)
(1.01879 -0.0391366 -2.18149e-22)
(1.01928 -0.0378805 4.68038e-22)
(-0.137811 -0.0161938 -1.50617e-20)
(-0.168906 -0.012618 -1.12441e-20)
(-0.156747 -0.0134352 9.33086e-20)
(-0.139862 -0.00491975 -4.15537e-20)
(-0.172136 -0.00349265 -1.39519e-20)
(-0.141576 -0.00649009 7.49873e-21)
(1.1167 0.00967863 -1.78371e-21)
(1.11805 0.0082421 3.28298e-20)
(1.11891 0.010486 1.4129e-20)
(0.993772 -0.0254241 -3.90601e-21)
(0.992969 -0.0250754 8.9175e-24)
(0.993129 -0.0261977 -5.49056e-21)
(-0.00784837 0.0139351 -4.05967e-21)
(-0.0352127 0.00756701 -1.84172e-21)
(1.0785 0.0193705 8.34742e-21)
(1.07815 0.0182642 1.5065e-20)
(1.07938 0.0186569 9.73253e-21)
(1.02004 -0.0734497 -1.30877e-22)
(1.01773 -0.0722246 -1.25758e-22)
(1.01984 -0.0706945 5.89821e-22)
(-0.2799 -0.00499988 -4.34893e-20)
(-0.264278 -0.00445967 6.38977e-20)
(1.02102 -0.00603926 9.98124e-22)
(1.02083 -0.00639413 -2.67344e-21)
(1.02151 -0.00638248 -2.76062e-21)
(1.22701 -0.0060598 2.72876e-20)
(1.27323 -0.0136846 -4.75257e-20)
(1.00478 -0.0178 3.39378e-22)
(1.0046 -0.017167 -3.27125e-21)
(1.00425 -0.0174951 3.59862e-22)
(1.02124 -0.0389907 6.83733e-22)
(1.02055 -0.0403107 -1.01265e-21)
(1.26193 -0.0879617 -7.81665e-21)
(1.26246 -0.0823855 1.10108e-20)
(1.26699 -0.0880957 4.52346e-20)
(1.12166 -0.0817292 0)
(1.12348 -0.0858254 5.56503e-21)
(0.0897466 0.0114818 2.10619e-21)
(0.0997754 0.0124589 1.5255e-20)
(0.112942 0.0169317 1.26069e-20)
(-0.00237894 0.0133809 0)
(0.0144873 0.0182317 3.19952e-22)
(-0.122767 -0.00696131 -4.51452e-20)
(-0.113806 -0.00716741 -1.37288e-20)
(-0.0812825 -0.0090953 0)
(1.04092 -0.0924075 2.09595e-21)
(1.04187 -0.0889802 -2.31034e-21)
(0.26953 0.00780513 2.11943e-20)
(0.243574 0.00454835 9.09603e-21)
(0.271803 0.00821461 8.51326e-22)
(0.991274 -0.0111929 0)
(0.991728 -0.0116509 0)
(0.991839 -0.0108324 0)
(-0.0612675 -0.0106318 -2.88273e-20)
(-0.101553 -0.00775759 5.87687e-20)
(0.970798 -0.0109785 -2.68772e-21)
(0.972215 -0.00934156 -9.71635e-21)
(1.05781 0.0100522 -4.6122e-22)
(1.05814 0.010865 -1.02267e-20)
(-0.273659 -0.000386554 -8.1336e-20)
(-0.274204 -0.00243891 1.56656e-20)
(-0.133696 -0.00720927 -4.23362e-20)
(-0.159034 -0.00647179 9.19719e-21)
(-0.0280009 0.0245552 6.25241e-21)
(-0.0449096 0.020238 -5.70224e-20)
(-0.0652012 0.0183205 1.0811e-20)
(1.09154 -0.439518 3.24063e-20)
(1.0825 -0.421236 0)
(1.07007 -0.433526 0)
(1.0094 -0.0234079 1.48622e-21)
(1.00872 -0.0234072 -5.87348e-22)
(1.00936 -0.0241994 -8.26903e-22)
(1.08844 0.0524106 1.02533e-20)
(1.08792 0.0523637 2.8025e-21)
(1.08811 0.0519672 5.75595e-22)
(-0.165978 0.00965266 -2.76255e-20)
(-0.163317 0.0086408 -2.19013e-20)
(-0.196833 0.00451187 4.36466e-20)
(1.20937 -0.187161 3.20042e-20)
(1.21707 -0.187336 -3.57554e-21)
(1.2128 -0.194365 -2.2693e-21)
(1.08894 0.0526307 -1.23957e-20)
(1.08842 0.0530317 1.47538e-20)
(0.807514 -0.118941 6.57337e-21)
(0.805745 -0.108466 -1.73656e-20)
(0.816659 -0.113069 -3.71542e-20)
(0.814718 -0.151829 -4.4551e-21)
(0.812763 -0.140256 -9.312e-22)
(0.80185 -0.148561 -1.90446e-20)
(0.988776 -0.0265607 -1.14648e-21)
(0.989731 -0.0268704 4.518e-21)
(0.988918 -0.0279281 -6.68138e-21)
(1.01711 -0.0217417 -1.17762e-21)
(1.01765 -0.0224916 -2.28134e-21)
(1.0177 -0.0216291 3.39682e-21)
(1.12325 -0.00470362 -5.25398e-21)
(1.12487 -0.00625299 2.50364e-20)
(1.12566 -0.00327119 2.02716e-20)
(1.01657 -0.0209317 -9.81611e-22)
(1.0163 -0.0218474 1.94257e-22)
(-0.138103 -0.00529401 0)
(-0.104813 -0.00771533 -1.15268e-19)
(1.05729 0.00922541 1.01536e-20)
(1.05855 0.0095173 1.6346e-20)
(1.03299 -0.01888 4.72353e-23)
(1.0333 -0.0181542 0)
(1.02565 -0.125099 -6.82944e-22)
(1.02773 -0.129389 2.432e-21)
(1.02255 -0.128356 -1.19752e-21)
(1.01504 -0.0223652 0)
(1.01492 -0.0231843 -3.57135e-22)
(1.20934 -0.0124531 -5.19252e-21)
(1.20805 -0.00880891 -4.56097e-21)
(1.21232 -0.0106022 3.006e-20)
(1.15928 -0.040894 -7.24971e-20)
(1.15589 -0.0398326 -1.78753e-20)
(1.15658 -0.04348 -2.88469e-20)
(1.10761 0.0526329 -1.01652e-20)
(1.10628 0.0526469 0)
(1.10705 0.0540143 0)
(1.07092 0.0198116 0)
(1.07186 0.0193036 0)
(1.01411 -0.00784669 0)
(1.0139 -0.00807569 0)
(1.01445 -0.00818179 -1.40136e-21)
(1.01375 -0.000752332 0)
(1.0138 -0.0011479 0)
(-0.217861 -0.0109374 0)
(-0.197204 -0.0147723 0)
(-0.111479 -0.0192033 4.00243e-20)
(-0.0979856 -0.0193734 0)
(1.1112 -0.349666 0)
(1.10228 -0.360092 0)
(1.1171 -0.360819 0)
(1.02838 -0.0160341 3.61077e-22)
(1.02742 -0.0159765 3.03002e-21)
(1.02779 -0.0153533 1.058e-21)
(1.01422 -0.0387557 -4.0806e-22)
(1.01524 -0.0394226 -7.60367e-23)
(1.01423 -0.040119 2.00006e-22)
(0.101583 0.0304374 8.07731e-21)
(0.121967 0.0349389 -1.62016e-20)
(0.0973004 0.0314099 8.70074e-21)
(1.16878 0.0574343 -1.16896e-20)
(1.1725 0.0569212 2.97199e-20)
(1.17223 0.0608785 -6.48407e-21)
(0.603485 -0.196391 0)
(0.626548 -0.189226 0)
(0.622886 -0.218919 5.08325e-21)
(1.0102 -0.023626 1.68243e-21)
(1.0096 -0.0226502 1.97631e-21)
(1.13 -0.148933 0)
(1.12797 -0.142907 -1.77407e-20)
(1.12472 -0.148512 -1.10007e-20)
(0.255484 0.0568309 -3.661e-21)
(0.217234 0.0524754 -2.54767e-20)
(0.246887 0.0565281 -6.18888e-21)
(1.1064 0.0155338 1.50502e-20)
(1.10764 0.0169787 2.71187e-20)
(1.10778 0.0145861 2.10953e-20)
(1.0324 -0.0899047 -3.87968e-22)
(1.03378 -0.0930987 4.0167e-21)
(1.09617 -0.0648391 -1.86895e-21)
(1.0973 -0.0616598 8.91727e-22)
(1.09382 -0.0629401 -1.99603e-21)
(1.33238 -0.163498 -1.02e-19)
(1.32596 -0.155706 4.52899e-21)
(0.400795 0.0649727 -2.80116e-20)
(0.348246 0.0615122 2.80689e-21)
(1.16541 -0.0952658 2.90935e-20)
(1.1625 -0.0910332 5.50602e-20)
(-0.0297812 0.0215924 2.80688e-20)
(-0.0603868 0.0209515 -1.17469e-20)
(-0.0712065 0.0198406 1.30131e-20)
(0.716744 -0.114988 3.15708e-20)
(-0.110392 -0.0069578 -1.0693e-20)
(-0.142318 -0.00550317 2.81843e-21)
(0.852525 -0.0883597 3.55969e-20)
(0.843289 -0.0870036 1.19261e-20)
(0.848244 -0.0797978 -1.67745e-20)
(1.10365 0.0180393 -5.61264e-21)
(1.10196 0.0174079 -2.14868e-20)
(1.10243 0.01927 7.78179e-21)
(1.26165 -0.0943644 -1.0782e-20)
(1.25627 -0.088584 -4.91154e-20)
(0.973661 -0.0439226 1.15029e-20)
(0.973796 -0.0418706 3.95505e-21)
(0.975538 -0.0426986 2.10515e-20)
(0.990744 -0.0108074 0)
(0.990626 -0.0117139 9.8944e-23)
(0.745183 -0.29525 -1.54294e-21)
(0.728489 -0.309827 -8.85754e-21)
(0.751849 -0.313115 -2.18592e-20)
(1.20467 0.0266849 3.6972e-20)
(1.14036 0.0283261 -5.57872e-20)
(1.13805 0.0310518 -3.1982e-20)
(1.00702 -0.0694158 0)
(1.0067 -0.0714127 0)
(1.00459 -0.0702657 0)
(1.02116 -0.0056905 1.97085e-21)
(1.02055 -0.00576428 2.38245e-21)
(-0.146609 -0.00684076 2.70948e-20)
(0.319644 0.0248663 -5.98037e-22)
(0.322049 0.0270204 -8.71977e-21)
(0.296415 0.0219613 -5.59241e-23)
(1.13329 -0.153356 0)
(1.13543 -0.147828 0)
(1.08931 0.0523814 -1.54761e-20)
(1.08936 0.052996 -2.40116e-21)
(1.21065 -0.016807 0)
(1.20592 -0.0147384 -2.63107e-20)
(1.16252 -0.0419568 -3.6906e-20)
(1.16175 -0.0382996 -2.74963e-20)
(1.18617 0.0465892 0)
(1.18893 0.0442464 0)
(1.18521 0.0429451 0)
(0.972198 -0.0203642 2.3415e-21)
(0.972896 -0.0217674 -1.42308e-22)
(0.971095 -0.0218669 2.19152e-21)
(0.983539 -0.00845602 5.9842e-21)
(0.98297 -0.00778869 -6.85343e-21)
(0.983959 -0.00758237 -8.32155e-21)
(1.0013 -0.00641444 3.84348e-23)
(1.00121 -0.00653414 2.14998e-21)
(1.00112 -0.00610476 2.19903e-21)
(-0.0298596 0.0158766 7.38654e-20)
(-0.0549412 0.0131738 6.42954e-20)
(1.10151 0.0146132 2.5446e-20)
(1.10127 0.0162228 8.1263e-21)
(1.10033 0.0150071 -3.65905e-22)
(1.05891 0.0012604 0)
(1.05948 0.00182228 2.05463e-21)
(1.05995 0.000990509 8.6556e-21)
(1.00012 -0.000480738 -1.53126e-22)
(1.00013 -0.000421928 4.21532e-22)
(1.00018 -0.000570612 0)
(0.457012 0.0319689 5.4833e-21)
(0.450992 0.0330645 -2.34771e-21)
(0.48468 0.0351102 5.48443e-21)
(1.12205 -0.00233167 -7.06478e-20)
(1.1206 -0.00538207 -3.25683e-20)
(1.09109 0.0514249 -1.1779e-22)
(1.09125 0.052281 0)
(0.126109 0.0146684 -1.9418e-20)
(0.106283 0.0094229 -2.47814e-20)
(0.413444 0.0468317 5.68063e-21)
(0.385751 0.0440817 9.28425e-21)
(0.419319 0.0453689 0)
(0.402987 0.0467784 -2.76774e-21)
(0.445158 0.0501817 5.84028e-21)
(-0.239436 0.00607158 5.97278e-20)
(-0.207737 0.00845376 6.8593e-20)
(1.02873 -0.121767 -1.12378e-21)
(1.02392 -0.12082 0)
(0.759979 0.0795295 2.95146e-20)
(0.772253 0.0785329 0)
(0.688005 0.0756244 -3.97773e-20)
(1.00083 -0.007212 0)
(1.00071 -0.0069066 4.44215e-22)
(1.00081 -0.00684301 0)
(1.01439 -0.00759809 -1.15994e-21)
(1.01381 -0.0074527 0)
(1.13945 -0.00544462 2.79973e-21)
(1.14071 -0.00796864 2.80305e-21)
(1.13769 -0.00786614 -1.28144e-20)
(1.00115 -0.000380551 -4.39442e-22)
(1.00104 -0.000485963 -9.03435e-22)
(1.00097 -0.000319817 2.57514e-22)
(-0.0160809 0.0264471 8.17485e-22)
(0.0127092 0.0272006 7.65131e-21)
(1.10253 0.0709821 5.1707e-21)
(1.10531 0.0696446 -3.38618e-20)
(1.10166 0.070343 -2.30066e-20)
(1.0929 0.0543596 3.00682e-21)
(1.09366 0.0547798 0)
(1.09254 0.0552386 -9.73929e-21)
(1.01466 -0.00738094 -1.39056e-21)
(1.01494 -0.00773243 1.35925e-21)
(1.07678 0.0206176 -1.50734e-20)
(1.07768 0.0199644 -5.86722e-21)
(1.0764 0.0196009 -1.43269e-20)
(1.09216 0.0540683 1.08039e-21)
(1.09283 0.0535857 -1.84771e-22)
(1.16528 0.0590458 -6.66347e-22)
(1.16632 0.0547055 -5.74232e-20)
(1.11547 -0.447813 -9.93386e-21)
(1.0313 -0.118255 4.39477e-21)
(1.02942 -0.114276 5.56738e-21)
(1.03361 -0.11474 3.8402e-21)
(1.10478 0.0169559 -1.54559e-20)
(1.10446 0.0146912 -2.56257e-20)
(-0.29451 -0.00506201 0)
(-0.291536 -0.00331221 -1.19181e-20)
(0.337444 0.0278065 1.52277e-20)
(0.314165 0.0225714 1.22991e-22)
(1.11573 0.0522587 7.19969e-21)
(1.11627 0.0539223 7.68789e-21)
(0.891829 -0.063299 -1.31744e-20)
(0.887539 -0.0592508 0)
(0.886347 -0.0658606 3.93809e-20)
(0.976411 -0.0229794 1.02814e-21)
(0.975932 -0.0217665 -7.44949e-23)
(0.977363 -0.02178 1.06812e-20)
(1.01816 -0.0159552 0)
(1.0182 -0.0165971 0)
(1.01892 -0.0162909 -3.40889e-21)
(1.25632 0.0209233 4.11725e-20)
(1.25238 0.0256679 -9.63353e-22)
(1.10285 0.0139616 6.61707e-21)
(1.10131 0.0129164 1.50106e-20)
(0.0874624 0.0078185 0)
(0.0760436 0.00590957 0)
(1.07928 -0.0331276 1.13955e-21)
(1.08146 -0.0341835 -7.21835e-21)
(1.00724 -0.0671071 -1.69681e-21)
(1.00944 -0.0684777 0)
(1.08749 0.0523119 -2.59446e-21)
(1.08697 0.0522291 -2.66814e-21)
(1.08711 0.0518112 1.45333e-22)
(1.11433 0.0519255 1.12943e-22)
(1.11517 0.0504423 -2.80096e-22)
(1.04388 -0.0104585 5.12332e-21)
(1.04482 -0.010844 -3.69214e-21)
(1.04396 -0.0113434 5.14217e-21)
(1.04045 -0.0275753 -1.8014e-21)
(1.03916 -0.0275791 4.79836e-22)
(1.03977 -0.0265793 1.45432e-21)
(0.699744 -0.146943 7.8705e-20)
(0.720298 -0.150747 -2.40668e-20)
(0.709254 -0.164109 -6.42255e-21)
(1.26178 -0.0997784 -8.07752e-21)
(1.26114 -0.105911 -2.02412e-21)
(1.25585 -0.100756 -2.68805e-20)
(0.00563088 0.0329204 2.8096e-20)
(0.0270353 0.0344295 0)
(0.0427382 0.0362318 0)
(0.147321 0.053062 -7.29974e-23)
(0.133367 0.0515566 4.63714e-21)
(0.185616 0.0567627 4.45845e-20)
(1.09466 0.00983074 -2.22321e-21)
(1.09549 0.0115504 1.25897e-20)
(0.930107 -0.696958 -2.61227e-20)
(0.929437 -0.751626 -3.02655e-20)
(0.980805 -0.750027 -3.47812e-20)
(-0.0262739 0.0310053 -1.65475e-20)
(-0.0107963 0.0322695 -1.02281e-20)
(0.936369 -0.019785 0)
(0.938831 -0.0186832 1.02452e-20)
(0.936227 -0.0167438 7.6115e-21)
(1.09522 0.0242433 3.60839e-21)
(1.09608 0.0233643 9.74971e-23)
(1.09465 0.023403 3.84327e-21)
(0.308635 0.0393769 -1.30457e-22)
(0.329523 0.042639 5.14149e-22)
(0.297482 0.0387328 3.28538e-21)
(1.07369 -0.043244 -9.31618e-21)
(1.07486 -0.0444974 -5.14886e-21)
(1.07261 -0.0448653 1.92693e-21)
(1.08524 0.0523872 0)
(1.08479 0.0525995 7.28722e-21)
(1.08523 0.0528668 9.59912e-21)
(1.01347 -0.0384043 -4.98008e-22)
(1.01417 -0.0379465 -3.17856e-22)
(1.26646 -0.0990703 3.19959e-21)
(1.00009 -0.00190227 -1.19887e-21)
(1.00013 -0.00221443 9.22106e-22)
(1.00011 -0.00227005 -2.56861e-22)
(1.12879 -0.0746123 0)
(1.13057 -0.0718476 -1.26575e-20)
(1.13205 -0.0762653 0)
(1.02192 -0.078888 4.46458e-22)
(1.02435 -0.079266 1.41666e-22)
(1.02291 -0.0814542 8.57838e-23)
(0.981353 -0.0159824 0)
(0.982037 -0.0167886 0)
(1.13381 0.0634084 0)
(1.13251 0.0652039 -1.95177e-21)
(1.13483 0.0652044 0)
(1.04394 -0.019719 3.44918e-21)
(1.04292 -0.0190844 3.5468e-23)
(1.04414 -0.0185893 -3.27581e-21)
(0.178837 -0.538087 -4.24257e-20)
(0.134134 -0.583469 2.66219e-20)
(1.01441 -0.00696287 -2.54458e-22)
(1.015 -0.00715447 -1.28018e-21)
(1.13044 0.0505513 -1.95358e-20)
(1.13261 0.0500244 2.93765e-20)
(1.13064 0.0483833 -1.78704e-20)
(0.0816827 0.0109497 -1.21104e-23)
(0.0639466 0.00719591 3.72645e-22)
(-0.0456538 0.020541 -3.79296e-20)
(-0.054052 0.0212768 7.36204e-21)
(-0.00931483 0.0230834 1.33065e-19)
(0.897812 -0.0721875 -1.96198e-20)
(0.903051 -0.0707512 -1.74076e-20)
(0.901401 -0.0765236 -3.08598e-20)
(1.09428 0.0251608 -1.78245e-20)
(1.09565 0.0251812 0)
(1.00005 -0.00127349 6.55201e-21)
(1.00002 -0.000960099 1.80193e-21)
(1.00002 -0.000973049 1.59449e-21)
(0.755173 -0.281364 9.54796e-21)
(0.735343 -0.275339 8.38932e-21)
(1.00125 -0.0130694 2.48657e-21)
(1.00128 -0.0124794 2.48909e-21)
(1.00158 -0.0129445 -2.37626e-21)
(1.12519 -0.0736608 -1.82329e-20)
(0.0154276 -0.0413742 -2.60092e-22)
(-0.058278 -0.0349244 -7.37187e-21)
(-0.033323 -0.037309 -6.01673e-20)
(0.894898 -0.0683883 -2.27016e-21)
(0.896751 -0.0620383 -3.14949e-21)
(1.07216 -0.0415364 7.40413e-22)
(1.07458 -0.0410521 -3.97943e-21)
(0.996503 -0.000236833 0)
(0.996128 -0.000487096 4.06238e-21)
(0.114426 0.0493633 -2.10934e-20)
(0.156192 0.0524795 -3.23407e-20)
(1.02112 -0.0121564 -1.23478e-21)
(1.02074 -0.0115107 -1.13784e-21)
(0.905304 -0.416544 2.35337e-20)
(1.02948 -0.489115 7.23824e-20)
(0.124729 0.0497816 -2.65286e-21)
(0.11317 0.0477089 1.12669e-20)
(0.160279 0.0525242 1.7367e-20)
(1.20137 -0.186653 6.92162e-20)
(1.20599 -0.179835 3.77324e-20)
(1.00012 -0.000536348 -1.30176e-22)
(1.00007 -0.000387479 -1.44708e-21)
(1.27158 -0.318697 -2.77015e-21)
(1.29434 -0.31642 4.59491e-21)
(1.3014 -0.33155 7.3603e-20)
(0.00433061 0.0128749 -4.16338e-21)
(0.0128855 0.0129088 -3.97944e-21)
(0.0280441 0.0186463 -1.85688e-20)
(0.559082 0.0458792 -4.96083e-21)
(0.527271 0.0424654 -2.77061e-20)
(1.08512 0.0520247 1.29462e-20)
(1.10145 -0.0112969 1.46746e-21)
(1.10188 -0.0135056 2.88199e-20)
(1.09948 -0.0121809 1.06418e-20)
(0.71861 -0.344276 -2.22982e-20)
(0.711805 -0.324915 -5.54992e-20)
(0.693897 -0.339825 -2.40593e-20)
(1.13294 0.061647 7.98393e-22)
(1.13522 0.0614537 0)
(1.07704 0.0216488 -7.27861e-21)
(1.07579 0.0212426 1.60955e-20)
(1.0935 -0.409834 -1.97856e-20)
(1.07658 -0.406605 -1.54151e-20)
(1.04648 -0.130848 0)
(1.04179 -0.130853 1.01425e-21)
(1.04429 -0.126955 0)
(0.222613 0.00848605 -6.89199e-21)
(0.203644 0.00688719 -4.21501e-21)
(0.203524 0.00583965 5.61335e-21)
(1.16016 0.0369982 -4.64527e-21)
(1.15744 0.0391223 9.31661e-20)
(1.15752 0.0350079 1.91535e-20)
(1.00988 -0.00056064 -6.04247e-22)
(1.01045 -0.000797304 -5.16736e-22)
(1.00999 -0.00119534 1.0022e-21)
(1.07949 -0.013722 -4.24057e-21)
(1.07771 -0.0134969 1.69908e-21)
(1.07831 -0.0151471 -1.11576e-20)
(1.08765 0.0527938 0)
(0.457386 0.0313059 3.14054e-21)
(0.432029 0.0309082 -1.01436e-20)
(0.323184 0.00889849 8.60391e-21)
(0.342748 0.0116947 7.40088e-21)
(0.330973 0.00919059 0)
(1.01754 -0.0156142 1.2693e-21)
(1.01817 -0.0154337 0)
(0.584703 -0.210082 0)
(0.992137 -0.0120445 0)
(0.992574 -0.0124255 3.54562e-21)
(0.992696 -0.0116683 0)
(1.11517 0.0615805 0)
(1.11676 0.0617307 0)
(1.11606 0.0601921 0)
(1.17533 0.0544176 8.17302e-21)
(1.17831 0.0526414 -6.85136e-22)
(1.17412 0.0514387 0)
(1.08082 -0.0142706 0)
(1.08031 -0.0129599 0)
(1.12082 -0.000772741 -1.0657e-20)
(1.12279 0.000340891 -2.13833e-20)
(1.16297 0.0358942 -5.02101e-20)
(1.16251 0.0398596 -3.6807e-20)
(0.99864 -0.0238842 -6.3555e-21)
(0.999308 -0.0246071 3.2819e-21)
(0.999284 -0.0234205 8.74125e-23)
(0.810008 -0.128822 1.34361e-20)
(0.79832 -0.124411 2.18346e-20)
(1.09263 0.0497821 1.58666e-20)
(1.09199 0.0504487 9.82305e-21)
(1.09185 0.0494442 7.77304e-21)
(1.16337 0.0905208 -5.15128e-21)
(1.16537 0.0911218 1.62733e-20)
(1.16678 0.0886542 3.68164e-20)
(0.997536 -0.00810005 -7.52878e-22)
(0.997833 -0.00784348 -4.95313e-21)
(0.997625 -0.00752886 3.11271e-21)
(0.98193 -0.0151073 0)
(0.980589 -0.0152634 0)
(0.892736 -0.0738092 1.88066e-20)
(0.388678 0.0538806 0)
(0.399165 0.053778 2.13402e-20)
(0.431617 0.0580468 0)
(-0.243907 -0.00758162 -5.06573e-21)
(-0.271555 -0.0052299 1.02487e-19)
(-0.246751 -0.00842365 8.87123e-20)
(1.11117 0.0107764 -5.09466e-22)
(1.11044 0.00945893 7.84063e-23)
(1.11229 0.00947762 6.65119e-21)
(1.02923 -0.0161074 2.46026e-21)
(1.02887 -0.0167817 2.83556e-22)
(1.16283 0.0601289 4.27691e-21)
(1.16578 0.0625001 8.50228e-21)
(1.18351 0.0487213 0)
(1.18079 0.0508228 -6.4138e-22)
(1.1798 0.047422 0)
(1.11083 0.050078 -1.12248e-20)
(1.10911 0.0501486 -1.04242e-20)
(1.1098 0.0487485 1.1827e-20)
(1.11963 0.00139464 2.81856e-20)
(1.1185 -0.00134254 3.13409e-20)
(0.378767 0.0524327 -9.49968e-21)
(0.352666 0.0476132 -2.10961e-22)
(-0.125703 0.0101664 -1.84113e-20)
(-0.121796 0.00948554 3.08936e-20)
(-0.155816 0.00590285 2.72229e-20)
(1.08304 -0.0207364 0)
(1.08343 -0.0223008 -7.08879e-21)
(1.08478 -0.0206945 1.97405e-20)
(1.0919 0.00691334 9.30374e-21)
(1.09323 0.00734455 0)
(1.09169 0.00825561 -1.39471e-20)
(1.21697 -0.179142 7.96129e-22)
(1.18764 -0.167768 8.85647e-22)
(1.04776 -0.14132 6.03046e-20)
(1.01951 -0.0206001 0)
(1.01996 -0.0214181 0)
(1.01881 -0.0209479 -7.72624e-22)
(1.00136 -0.00624284 -2.18059e-21)
(1.00142 -0.00608984 -6.89322e-23)
(1.00124 -0.00582594 2.46029e-21)
(1.11223 0.0502062 -2.96633e-20)
(1.1113 0.051617 2.13423e-20)
(1.14651 -0.113518 0)
(1.14443 -0.109181 0)
(1.14139 -0.113287 -7.48138e-21)
(1.02184 -0.0122062 1.57449e-21)
(1.02247 -0.0122933 -2.50776e-22)
(1.02205 -0.0117602 -2.66808e-22)
(1.00017 -0.0022094 -5.03067e-22)
(1.00014 -0.00221099 2.95894e-21)
(1.0001 -0.0018937 2.35285e-21)
(1.00121 -0.0134894 2.2302e-21)
(1.00097 -0.0130462 2.67422e-21)
(1.00402 -0.000696161 0)
(1.00431 -0.000719741 -2.65168e-22)
(1.00401 -0.000414552 -4.15212e-22)
(1.09644 -0.00473373 -3.90071e-20)
(1.09836 -0.00473971 7.07827e-21)
(1.09747 -0.00296736 -3.68571e-20)
(1.00148 -0.00670591 -2.29287e-23)
(0.317755 0.0394117 -1.26311e-21)
(0.348435 0.0428858 9.03851e-21)
(1.11149 0.00621398 8.05917e-21)
(1.10968 0.00758701 9.68778e-21)
(1.01111 -0.0312548 2.06681e-22)
(1.01033 -0.0312101 8.49511e-22)
(1.01097 -0.0320294 -1.21364e-21)
(0.441599 0.0282956 -1.27333e-20)
(0.100117 0.0298746 1.67429e-20)
(0.0821288 0.0275628 1.67896e-20)
(0.973736 -0.0164564 -1.16875e-21)
(0.974239 -0.0177954 6.34971e-21)
(0.975212 -0.0166592 8.34709e-21)
(1.13015 0.0528938 1.34953e-20)
(-0.20324 0.00723236 1.77357e-20)
(-0.237374 0.00434277 7.52309e-20)
(-0.200531 0.00668839 4.74144e-20)
(0.971856 -0.0451428 0)
(0.974073 -0.0459351 1.1728e-21)
(0.973006 -0.0151056 -1.2535e-21)
(0.971857 -0.0166024 -4.32001e-21)
(1.1133 0.00570734 1.63125e-20)
(1.11314 0.00793841 -4.01327e-21)
(0.06305 0.00923734 -1.70002e-20)
(0.058307 0.0101259 2.70474e-20)
(0.0815951 0.0139661 2.93007e-20)
(0.272085 -0.0129633 -6.99174e-21)
(0.200276 -0.00960648 5.50333e-20)
(0.25942 -0.0144636 7.41271e-20)
(1.13802 0.0058306 -4.95725e-21)
(1.14085 0.00596918 -7.0957e-21)
(1.13916 0.00367802 1.32942e-20)
(1.00234 -0.000507824 1.13889e-21)
(1.00223 -0.000723142 3.60954e-22)
(0.755057 0.0805989 -2.70038e-20)
(0.83163 0.0818001 2.36668e-20)
(1.00083 -0.00759137 0)
(1.14354 0.00611952 1.83014e-20)
(1.14511 0.0037112 -6.31947e-21)
(1.14669 0.00659002 -1.9842e-20)
(-0.20882 0.00726037 -6.66092e-20)
(-0.177761 0.0115265 -3.11235e-20)
(1.15948 0.090457 4.70866e-21)
(1.16252 0.0906297 -3.67106e-20)
(1.15926 0.0879021 -5.15818e-20)
(1.05826 0.000351741 5.47623e-21)
(1.05773 0.00120197 -4.43439e-21)
(1.23811 -0.194932 0)
(1.30119 -0.208407 -3.17123e-20)
(1.33278 -0.171331 -4.94357e-20)
(1.30892 -0.164762 9.37895e-21)
(1.30698 -0.171803 -3.48391e-20)
(-0.116988 -0.00508155 4.16798e-20)
(-0.107258 -0.00430828 -2.07178e-20)
(-0.0761089 -0.0059995 0)
(1.21185 -0.0204349 -2.02243e-21)
(1.20871 -0.0231157 3.21626e-20)
(1.21316 -0.0244301 3.63231e-20)
(0.784049 -0.0981027 2.03511e-20)
(0.784383 -0.0866684 4.27188e-20)
(0.77207 -0.0912868 1.39011e-20)
(-0.000132541 0.022833 1.42582e-20)
(0.0122322 0.0241403 -1.38213e-20)
(0.143504 0.0401288 -3.91135e-22)
(0.165258 0.0440201 -1.01871e-20)
(0.136648 0.0398422 -3.87987e-22)
(1.18344 0.0880811 0)
(1.16061 0.0883405 1.38476e-20)
(1.0417 -0.0276681 5.71576e-23)
(1.04103 -0.0288017 -5.42462e-21)
(-0.271313 -0.0034664 -1.60986e-22)
(-0.247119 -0.00507933 1.06459e-19)
(-0.237874 -0.00446149 -1.08282e-22)
(0.189044 0.00222415 1.18271e-20)
(0.191547 0.00181886 2.0653e-20)
(0.478386 -0.450115 4.9366e-20)
(0.445461 -0.423442 6.17225e-20)
(0.446899 -0.471273 5.84876e-20)
(0.507447 -0.429629 -1.24874e-19)
(0.517219 -0.471519 -1.27117e-19)
(0.934361 -0.0211335 2.73622e-20)
(0.935775 -0.0222645 0)
(1.14244 -0.000862465 -7.20621e-21)
(1.141 -0.00308348 0)
(1.14402 -0.00296549 -2.62066e-20)
(0.943678 -0.115736 4.51532e-21)
(0.947036 -0.111261 7.35309e-21)
(0.949629 -0.116981 5.77435e-21)
(0.284199 0.01012 8.28944e-21)
(0.262802 0.00624638 -6.48215e-21)
(0.790291 -0.145402 -7.4473e-21)
(0.788533 -0.132204 2.01675e-20)
(0.775259 -0.141347 1.8923e-20)
(1.0079 -0.0017162 -1.46747e-22)
(1.00786 -0.00204019 -4.60687e-22)
(1.00824 -0.00191463 -3.42073e-22)
(1.0196 -0.000180038 -4.05057e-21)
(1.0195 -0.000146 -9.8033e-22)
(1.06661 -0.0779606 -1.99558e-21)
(1.06952 -0.0785171 -4.99704e-21)
(1.067 -0.0806003 -2.11249e-21)
(-0.151613 -0.00762245 6.77229e-21)
(-0.127782 -0.00595002 -5.71104e-20)
(0.24499 -0.567038 -8.52774e-20)
(1.0201 -0.0202528 1.14925e-21)
(1.01909 -0.0199226 0)
(-0.0778693 0.0203534 -5.60861e-20)
(0.932817 -0.112829 0)
(0.938731 -0.114705 -9.62263e-21)
(0.936431 -0.108784 4.20706e-21)
(1.09529 -0.0672881 2.3577e-20)
(1.09839 -0.0659509 -1.59031e-20)
(1.06032 0.00242142 -1.1384e-22)
(1.05932 0.00260093 2.19278e-21)
(0.0639306 0.00799644 -3.85438e-20)
(0.0432259 0.00743269 -5.88528e-20)
(1.15929 0.0613226 -2.14906e-20)
(1.16075 0.0575183 -2.89627e-20)
(1.0868 0.0526967 0)
(1.02101 -0.0759927 -5.08478e-22)
(1.01924 -0.0778972 -9.11525e-22)
(1.07075 -0.0402773 6.48943e-21)
(1.07003 -0.0420246 4.34704e-21)
(0.529389 0.0359897 2.94474e-21)
(0.534122 0.0356318 1.06392e-20)
(0.507314 0.0335962 7.86185e-21)
(0.975617 -0.0243877 0)
(0.977202 -0.0242037 5.66339e-21)
(1.1879 0.0501358 -1.79839e-20)
(1.08121 -0.0204752 0)
(1.08262 -0.0188087 0)
(1.11349 0.00373648 1.8667e-21)
(1.11532 0.00562597 2.61538e-20)
(0.93001 -0.117881 0)
(0.926677 -0.111541 0)
(0.991575 -0.0124522 0)
(1.01227 -0.0314891 -8.75628e-22)
(1.01147 -0.030405 -4.45304e-22)
(1.22227 -0.0817933 -4.34225e-21)
(1.22318 -0.086734 -6.7413e-20)
(1.22815 -0.0815782 -2.97323e-20)
(1.22499 -0.188221 2.43756e-20)
(1.22095 -0.181 -4.74655e-20)
(1.15542 0.0405174 9.72528e-21)
(1.15286 0.0418685 -4.22878e-20)
(1.15317 0.0382947 -4.28219e-20)
(1.33644 -0.173272 -1.95844e-20)
(0.521031 0.0352624 9.84554e-21)
(0.551908 0.0375636 -1.97584e-22)
(1.00858 -0.0725452 -1.04217e-21)
(1.00643 -0.0735615 2.41014e-21)
(0.0918992 0.0457015 -1.69982e-20)
(1.11963 0.065524 -2.31125e-20)
(1.11785 0.0651308 -1.18012e-20)
(1.11956 0.0669645 -2.34684e-20)
(1.02731 -0.0087094 5.04673e-21)
(1.02727 -0.00811927 4.64359e-21)
(1.02662 -0.00836294 7.92622e-22)