/*--------------------------------*- C++ -*----------------------------------*\
| =========                 |                                                 |
| \\      /  F ield         | OpenFOAM: The Open Source CFD Toolbox           |
|  \\    /   O peration     | Version:  v2012                                 |
|   \\  /    A nd           | Website:  www.openfoam.com                      |
|    \\/     M anipulation  |                                                 |
\*---------------------------------------------------------------------------*/
FoamFile
{
    version     2.0;
    format      ascii;
    class       pointVectorField;
    location    "450";
    object      pointDisplacement;
}
// * * * * * * * * * * * * * * * * * * * * * * * * * * * * * * * * * * * * * //

dimensions      [0 1 0 0 0 0 0];


internalField   nonuniform List<vector> 
14386
(
(0 0 0)
(0 0.0565703 0)
(0 0 0)
(0 0.0565703 0)
(0 0 0)
(0 0 0)
(0 0 0)
(0 0 0)
(0 0 0)
(0 0 0)
(0 0 0)
(0 0 0)
(0 0 0)
(0 0 0)
(0 0 0)
(0 0 0)
(0 0 0)
(0 0 0)
(0 0 0)
(0 0 0)
(0 0 0)
(0 0 0)
(0 0 0)
(0 0 0)
(0 0 0)
(0 0 0)
(0 0 0)
(0 0 0)
(0 0 0)
(0 0 0)
(0 0 0)
(0 0 0)
(0 0 0)
(0 0 0)
(0 0 0)
(0 0 0)
(0 0 0)
(0 0 0)
(0 0 0)
(0 0 0)
(0 0 0)
(0 0 0)
(0 0 0)
(0 0 0)
(0 0 0)
(0 0 0)
(0 0 0)
(0 0 0)
(0 0 0)
(0 0 0)
(0 0 0)
(0 0 0)
(0 0 0)
(0 0 0)
(0 0 0)
(0 0 0)
(0 0 0)
(0 0 0)
(0 0 0)
(0 0 0)
(0 0 0)
(0 0 0)
(0 0 0)
(0 0 0)
(0 0 0)
(0 0 0)
(0 0 0)
(0 0 0)
(0 0 0)
(0 0 0)
(0 0 0)
(0 0 0)
(0 0 0)
(0 0 0)
(0 0 0)
(0 0 0)
(0 0 0)
(0 0 0)
(0 0 0)
(0 0 0)
(0 0 0)
(0 0 0)
(0 0 0)
(0 0 0)
(0 0 0)
(0 0 0)
(0 0 0)
(0 0 0)
(0 0 0)
(0 0 0)
(0 0 0)
(0 0 0)
(0 0 0)
(0 0 0)
(0 0 0)
(0 0 0)
(0 0 0)
(0 0 0)
(0 0 0)
(0 0 0)
(0 0 0)
(0 0 0)
(0 0 0)
(0 0 0)
(0 0 0)
(0 0 0)
(0 0 0)
(0 0 0)
(0 0 0)
(0 0 0)
(0 0 0)
(0 0 0)
(0 0 0)
(0 0 0)
(0 0 0)
(0 0 0)
(0 0 0)
(0 0 0)
(0 0 0)
(0 0 0)
(0 0 0)
(0 0 0)
(0 0 0)
(0 0 0)
(0 0 0)
(0 0 0)
(0 0 0)
(0 0 0)
(0 0 0)
(0 0 0)
(0 0 0)
(0 0 0)
(0 0 0)
(0 0.0565703 0)
(0 0.0565703 0)
(0 0.0565703 0)
(0 0.0565703 0)
(0 0.0565703 0)
(0 0.0565703 0)
(0 0.0565703 0)
(0 0.0565703 0)
(0 0.0565703 0)
(0 0.0565703 0)
(0 0.0565703 0)
(0 0.0565703 0)
(0 0.0565703 0)
(0 0.0565703 0)
(0 0.0565703 0)
(0 0.0565703 0)
(0 0.0565703 0)
(0 0.0565703 0)
(0 0.0565703 0)
(0 0.0565703 0)
(0 0.0565703 0)
(0 0.0565703 0)
(0 0.0565703 0)
(0 0.0565703 0)
(0 0.0565703 0)
(0 0.0565703 0)
(0 0.0565703 0)
(0 0.0565703 0)
(0 0.0565703 0)
(0 0 0)
(0 0 0)
(0 0 0)
(0 0 0)
(0 0 0)
(0 0 0)
(0 0 0)
(0 0 0)
(0 0 0)
(0 0 0)
(0 0 0)
(0 0 0)
(0 0 0)
(0 0 0)
(0 0 0)
(0 0 0)
(0 0 0)
(0 0 0)
(0 0 0)
(0 0 0)
(0 0 0)
(0 0 0)
(0 0 0)
(0 0 0)
(0 0 0)
(0 0 0)
(0 0 0)
(0 0 0)
(0 0 0)
(0 0 0)
(0 0 0)
(0 0 0)
(0 0 0)
(0 0 0)
(0 0 0)
(0 0 0)
(0 0 0)
(0 0 0)
(0 0 0)
(0 0 0)
(0 0 0)
(0 0 0)
(0 0 0)
(0 0 0)
(0 0 0)
(0 0 0)
(0 0 0)
(0 0 0)
(0 0 0)
(0 0 0)
(0 0 0)
(0 0 0)
(0 0 0)
(0 0 0)
(0 0 0)
(0 0 0)
(0 0 0)
(0 0 0)
(0 0 0)
(0 0 0)
(0 0 0)
(0 0 0)
(0 0 0)
(0 0 0)
(0 0 0)
(0 0 0)
(0 0 0)
(0 0 0)
(0 0 0)
(0 0 0)
(0 0 0)
(0 0 0)
(0 0 0)
(0 0 0)
(0 0 0)
(0 0 0)
(0 0 0)
(0 0 0)
(0 0 0)
(0 0 0)
(0 0 0)
(0 0 0)
(0 0 0)
(0 0 0)
(0 0 0)
(0 0 0)
(0 0 0)
(0 0 0)
(0 0 0)
(0 0 0)
(0 0 0)
(0 0 0)
(0 0 0)
(0 0 0)
(0 0 0)
(0 0 0)
(0 0 0)
(0 0 0)
(0 0 0)
(0 0 0)
(0 0 0)
(0 0 0)
(0 0 0)
(0 0 0)
(0 0 0)
(0 0 0)
(0 0 0)
(0 0 0)
(0 0 0)
(0 0 0)
(0 0 0)
(0 0 0)
(0 0 0)
(0 0 0)
(0 0 0)
(0 0 0)
(0 0 0)
(0 0 0)
(0 0 0)
(0 0 0)
(0 0 0)
(0 0 0)
(0 0 0)
(0 0 0)
(0 0 0)
(0 0 0)
(0 0 0)
(0 0 0)
(0 0 0)
(0 0.0565703 0)
(0 0.0565703 0)
(0 0.0565703 0)
(0 0.0565703 0)
(0 0.0565703 0)
(0 0.0565703 0)
(0 0.0565703 0)
(0 0.0565703 0)
(0 0.0565703 0)
(0 0.0565703 0)
(0 0.0565703 0)
(0 0.0565703 0)
(0 0.0565703 0)
(0 0.0565703 0)
(0 0.0565703 0)
(0 0.0565703 0)
(0 0.0565703 0)
(0 0.0565703 0)
(0 0.0565703 0)
(0 0.0565703 0)
(0 0.0565703 0)
(0 0.0565703 0)
(0 0.0565703 0)
(0 0.0565703 0)
(0 0.0565703 0)
(0 0.0565703 0)
(0 0.0565703 0)
(0 0.0565703 0)
(0 0.0565703 0)
(0 0.00191933 0)
(0 0.0565703 0)
(0 0.0565703 0)
(0 0.0565703 0)
(0 0.00240638 0)
(0 0.00106826 0)
(0 0.000775267 0)
(0 0.00139005 0)
(0 0.00309921 0)
(0 0.000550847 0)
(0 0.00337292 0)
(0 0.000380777 0)
(0 0.00361033 0)
(0 0.00404051 0)
(0 0.000375527 0)
(0 0.0565703 0)
(0 0.000331919 0)
(0 0.000293499 0)
(0 0.000281334 0)
(0 0.000219402 0)
(0 0.000196451 0)
(0 0.00170542 0)
(0 0.0013753 0)
(0 0.000910074 0)
(0 0.0565703 0)
(0 0.0565703 0)
(0 0.000127691 0)
(0 0.000124743 0)
(0 0.0036439 0)
(0 0.00390028 0)
(0 0.00351541 0)
(0 0.00289851 0)
(0 0.00201878 0)
(0 0.000511926 0)
(0 0.000656118 0)
(0 0.000365615 0)
(0 0.000357639 0)
(0 0.000346941 0)
(0 0.0565703 0)
(0 8.14535e-05 0)
(0 6.66029e-05 0)
(0 0.00378187 0)
(0 0.00257582 0)
(0 0.00206631 0)
(0 0.00180973 0)
(0 0.00183885 0)
(0 0.00128761 0)
(0 0.00107473 0)
(0 0.00100475 0)
(0 0.00087187 0)
(0 0.000163396 0)
(0 0.000356307 0)
(0 0.000608878 0)
(0 0.00041338 0)
(0 0.000166394 0)
(0 0.000198629 0)
(0 0.000263262 0)
(0 0.000520293 0)
(0 2.72303e-05 0)
(0 0.0530958 0)
(0 0.0527394 0)
(0 0.0529524 0)
(0 0.0525873 0)
(0 0.0528048 0)
(0 0.0531539 0)
(0 0.0530079 0)
(0 0.0526522 0)
(0 0.0528582 0)
(0 0.0531968 0)
(0 0.0530499 0)
(0 0.0527019 0)
(0 0.0528969 0)
(0 0.0525391 0)
(0 0.052738 0)
(0 0.0530771 0)
(0 0.0529266 0)
(0 0.0525728 0)
(0 0.0527652 0)
(0 0.0531456 0)
(0 0.0529413 0)
(0 0.0525906 0)
(0 0.0527674 0)
(0 0.0530945 0)
(0 0.0529293 0)
(0 0.053239 0)
(0 0.0530789 0)
(0 0.0527594 0)
(0 0.0529133 0)
(0 0.0532181 0)
(0 0.0530552 0)
(0 0.0533485 0)
(0 0.0531855 0)
(0 0.0534695 0)
(0 0.0533066 0)
(0 0.0530114 0)
(0 0.0531341 0)
(0 0.0534212 0)
(0 0.0532496 0)
(0 0.0535296 0)
(0 0.0533564 0)
(0 0.0536343 0)
(0 0.0534535 0)
(0 0.0537189 0)
(0 0.0535407 0)
(0 0.0537855 0)
(0 0.0536219 0)
(0 0.0538481 0)
(0 0.0536856 0)
(0 0.0539072 0)
(0 0.0537329 0)
(0 0.0539617 0)
(0 0.05378 0)
(0 0.0540052 0)
(0 0.0538217 0)
(0 0.05404 0)
(0 0.0538539 0)
(0 0.0540673 0)
(0 0.0538767 0)
(0 0.0540884 0)
(0 0.0538897 0)
(0 0.0540993 0)
(0 0.0538898 0)
(0 0.0541001 0)
(0 0.0538798 0)
(0 0.0540928 0)
(0 0.0538646 0)
(0 0.0540765 0)
(0 0.0538469 0)
(0 0.0540537 0)
(0 0.0538238 0)
(0 0.0540249 0)
(0 0.0537867 0)
(0 0.0539775 0)
(0 0.0537341 0)
(0 0.0539147 0)
(0 0.0536709 0)
(0 0.0538493 0)
(0 0.0535978 0)
(0 0.0537752 0)
(0 0.0535126 0)
(0 0.0536887 0)
(0 0.0534205 0)
(0 0.053593 0)
(0 0.0533188 0)
(0 0.0534799 0)
(0 0.0532054 0)
(0 0.0533529 0)
(0 0.0530742 0)
(0 0.0532192 0)
(0 0.0529293 0)
(0 0.053074 0)
(0 0.0527769 0)
(0 0.0529127 0)
(0 0.0526075 0)
(0 0.0524654 0)
(0 0.05229 0)
(0 0.0533054 0)
(0 0.0536294 0)
(0 0.0535009 0)
(0 0.0528269 0)
(0 0.0521397 0)
(0 0.0519585 0)
(0 0.0527357 0)
(0 0.051798 0)
(0 0.051611 0)
(0 0.0514356 0)
(0 0.0512385 0)
(0 0.0510518 0)
(0 0.0508481 0)
(0 0.0506503 0)
(0 0.0504406 0)
(0 0.0502316 0)
(0 0.0500155 0)
(0 0.0502178 0)
(0 0.0497828 0)
(0 0.0499756 0)
(0 0.0495316 0)
(0 0.0493347 0)
(0 0.0490737 0)
(0 0.0497116 0)
(0 0.0488707 0)
(0 0.0485984 0)
(0 0.0483861 0)
(0 0.0481041 0)
(0 0.0478778 0)
(0 0.0475908 0)
(0 0.0473446 0)
(0 0.0470594 0)
(0 0.0467976 0)
(0 0.0465099 0)
(0 0.0462367 0)
(0 0.045944 0)
(0 0.046206 0)
(0 0.0456355 0)
(0 0.0458938 0)
(0 0.0453082 0)
(0 0.0455482 0)
(0 0.0449614 0)
(0 0.0447233 0)
(0 0.0443715 0)
(0 0.0441202 0)
(0 0.0437643 0)
(0 0.0451793 0)
(0 0.0435032 0)
(0 0.0431442 0)
(0 0.0428719 0)
(0 0.0425112 0)
(0 0.0422252 0)
(0 0.0418626 0)
(0 0.0415636 0)
(0 0.0412013 0)
(0 0.0414822 0)
(0 0.0408177 0)
(0 0.0410792 0)
(0 0.0404153 0)
(0 0.0401434 0)
(0 0.0397416 0)
(0 0.0394526 0)
(0 0.0390193 0)
(0 0.0387563 0)
(0 0.0383432 0)
(0 0.0399682 0)
(0 0.0380636 0)
(0 0.0376688 0)
(0 0.0373576 0)
(0 0.0369675 0)
(0 0.0366445 0)
(0 0.0362572 0)
(0 0.0530343 0)
(0 0.0359248 0)
(0 0.0355401 0)
(0 0.0358487 0)
(0 0.0351336 0)
(0 0.0354158 0)
(0 0.0347059 0)
(0 0.034417 0)
(0 0.034001 0)
(0 0.0336989 0)
(0 0.0332949 0)
(0 0.0342686 0)
(0 0.0329771 0)
(0 0.0325756 0)
(0 0.0322489 0)
(0 0.0318461 0)
(0 0.0315176 0)
(0 0.0311198 0)
(0 0.0307863 0)
(0 0.0303966 0)
(0 0.0300572 0)
(0 0.0296765 0)
(0 0.0299885 0)
(0 0.0292767 0)
(0 0.0295615 0)
(0 0.0288585 0)
(0 0.0285694 0)
(0 0.028159 0)
(0 0.0284236 0)
(0 0.0277329 0)
(0 0.0274631 0)
(0 0.027047 0)
(0 0.0267711 0)
(0 0.0263649 0)
(0 0.0260829 0)
(0 0.025687 0)
(0 0.0259433 0)
(0 0.0252759 0)
(0 0.0250147 0)
(0 0.0246139 0)
(0 0.0243484 0)
(0 0.0239577 0)
(0 0.0236879 0)
(0 0.0233078 0)
(0 0.0235526 0)
(0 0.0229133 0)
(0 0.022664 0)
(0 0.0222802 0)
(0 0.0220269 0)
(0 0.0216536 0)
(0 0.0213963 0)
(0 0.0210341 0)
(0 0.0212674 0)
(0 0.0206584 0)
(0 0.0204219 0)
(0 0.0200569 0)
(0 0.0198175 0)
(0 0.019463 0)
(0 0.0192204 0)
(0 0.0188759 0)
(0 0.0190964 0)
(0 0.0185182 0)
(0 0.0182961 0)
(0 0.0179482 0)
(0 0.0177233 0)
(0 0.0173863 0)
(0 0.0528491 0)
(0 0.0531392 0)
(0 0.0529497 0)
(0 0.0532342 0)
(0 0.0171587 0)
(0 0.0168342 0)
(0 0.0170383 0)
(0 0.0164989 0)
(0 0.0162933 0)
(0 0.0166728 0)
(0 0.0161475 0)
(0 0.0162834 0)
(0 0.0157814 0)
(0 0.0539558 0)
(0 0.0465116 0)
(0 0.0304223 0)
(0 0.036291 0)
(0 0.0540124 0)
(0 0.0542166 0)
(0 0.0542656 0)
(0 0.0419062 0)
(0 0.056226 0)
(0 0.0562576 0)
(0 0.056215 0)
(0 0.0562472 0)
(0 0.0562033 0)
(0 0.0562361 0)
(0 0.0562767 0)
(0 0.0562656 0)
(0 0.0562243 0)
(0 0.0562544 0)
(0 0.056212 0)
(0 0.0562425 0)
(0 0.0563011 0)
(0 0.0561984 0)
(0 0.0562294 0)
(0 0.0561831 0)
(0 0.0562149 0)
(0 0.0561664 0)
(0 0.056199 0)
(0 0.0562447 0)
(0 0.0562295 0)
(0 0.0562722 0)
(0 0.0562576 0)
(0 0.0562975 0)
(0 0.0562833 0)
(0 0.0562416 0)
(0 0.056268 0)
(0 0.0563211 0)
(0 0.0562238 0)
(0 0.0562507 0)
(0 0.0561318 0)
(0 0.0562036 0)
(0 0.0562311 0)
(0 0.0561809 0)
(0 0.0562092 0)
(0 0.0562568 0)
(0 0.0562349 0)
(0 0.0562795 0)
(0 0.0562579 0)
(0 0.0562994 0)
(0 0.0562783 0)
(0 0.0563173 0)
(0 0.0562965 0)
(0 0.0563343 0)
(0 0.0563129 0)
(0 0.0563501 0)
(0 0.0563285 0)
(0 0.0563639 0)
(0 0.0563413 0)
(0 0.0563744 0)
(0 0.0563467 0)
(0 0.0563828 0)
(0 0.0563592 0)
(0 0.056391 0)
(0 0.0563657 0)
(0 0.0563969 0)
(0 0.056371 0)
(0 0.0564005 0)
(0 0.0563739 0)
(0 0.0564029 0)
(0 0.0563761 0)
(0 0.0564038 0)
(0 0.0563769 0)
(0 0.0564029 0)
(0 0.0563749 0)
(0 0.0564003 0)
(0 0.056371 0)
(0 0.0563958 0)
(0 0.0563653 0)
(0 0.0563896 0)
(0 0.0563579 0)
(0 0.0563812 0)
(0 0.0563489 0)
(0 0.0563707 0)
(0 0.0563369 0)
(0 0.0563579 0)
(0 0.0563212 0)
(0 0.0563424 0)
(0 0.0563028 0)
(0 0.056325 0)
(0 0.0563306 0)
(0 0.0563462 0)
(0 0.0562834 0)
(0 0.0563021 0)
(0 0.056271 0)
(0 0.0563844 0)
(0 0.0561557 0)
(0 0.050433 0)
(0 0.0563787 0)
(0 0.0536621 0)
(0 0.0564232 0)
(0 0.0564183 0)
(0 0.056125 0)
(0 0.0560967 0)
(0 0.0560633 0)
(0 0.0560331 0)
(0 0.0559948 0)
(0 0.0559625 0)
(0 0.0559203 0)
(0 0.0558843 0)
(0 0.0558402 0)
(0 0.0557994 0)
(0 0.0557553 0)
(0 0.0558439 0)
(0 0.055754 0)
(0 0.0558004 0)
(0 0.0557051 0)
(0 0.0557522 0)
(0 0.055652 0)
(0 0.0556987 0)
(0 0.0457475 0)
(0 0.0453717 0)
(0 0.055594 0)
(0 0.0556401 0)
(0 0.0555439 0)
(0 0.0564279 0)
(0 0.05429 0)
(0 0.0536218 0)
(0 0.0537741 0)
(0 0.0530213 0)
(0 0.0264631 0)
(0 0.0174729 0)
(0 0.0152614 0)
(0 0.0195527 0)
(0 0.0217454 0)
(0 0.0279721 0)
(0 0.0231368 0)
(0 0.0208682 0)
(0 0.0326319 0)
(0 0.0459408 0)
(0 0.0461983 0)
(0 0.0456151 0)
(0 0.0458517 0)
(0 0.045257 0)
(0 0.04547 0)
(0 0.0448501 0)
(0 0.0450537 0)
(0 0.0444259 0)
(0 0.0445926 0)
(0 0.0439464 0)
(0 0.0440846 0)
(0 0.0433972 0)
(0 0.04356 0)
(0 0.0428456 0)
(0 0.0430342 0)
(0 0.0422431 0)
(0 0.0423062 0)
(0 0.0415853 0)
(0 0.041638 0)
(0 0.0409004 0)
(0 0.0409488 0)
(0 0.0401914 0)
(0 0.0416698 0)
(0 0.0409615 0)
(0 0.0416835 0)
(0 0.0409401 0)
(0 0.0416776 0)
(0 0.0409022 0)
(0 0.0416338 0)
(0 0.0408203 0)
(0 0.0415554 0)
(0 0.0407052 0)
(0 0.0398581 0)
(0 0.041452 0)
(0 0.040558 0)
(0 0.0413028 0)
(0 0.0403572 0)
(0 0.0411094 0)
(0 0.0401416 0)
(0 0.0408942 0)
(0 0.0398895 0)
(0 0.0406454 0)
(0 0.0395974 0)
(0 0.0403622 0)
(0 0.0388224 0)
(0 0.0418545 0)
(0 0.0392683 0)
(0 0.0400364 0)
(0 0.0388964 0)
(0 0.0396686 0)
(0 0.0407826 0)
(0 0.0404173 0)
(0 0.041496 0)
(0 0.0411385 0)
(0 0.0400273 0)
(0 0.0407516 0)
(0 0.0421824 0)
(0 0.0396006 0)
(0 0.040325 0)
(0 0.0391248 0)
(0 0.0398538 0)
(0 0.0385981 0)
(0 0.039339 0)
(0 0.0405663 0)
(0 0.04006 0)
(0 0.0412535 0)
(0 0.0407517 0)
(0 0.0395151 0)
(0 0.0402095 0)
(0 0.0419049 0)
(0 0.0389265 0)
(0 0.0396272 0)
(0 0.0423612 0)
(0 0.0401336 0)
(0 0.0394104 0)
(0 0.0393685 0)
(0 0.0386151 0)
(0 0.0382744 0)
(0 0.0389934 0)
(0 0.0385902 0)
(0 0.0378105 0)
(0 0.0377934 0)
(0 0.0369979 0)
(0 0.0369871 0)
(0 0.0361757 0)
(0 0.0361716 0)
(0 0.0353473 0)
(0 0.0353164 0)
(0 0.0344751 0)
(0 0.0344068 0)
(0 0.0335515 0)
(0 0.0334424 0)
(0 0.0325741 0)
(0 0.0326961 0)
(0 0.0317034 0)
(0 0.0318352 0)
(0 0.030814 0)
(0 0.0309703 0)
(0 0.0299327 0)
(0 0.0301089 0)
(0 0.029069 0)
(0 0.0292475 0)
(0 0.0282022 0)
(0 0.0283879 0)
(0 0.0273384 0)
(0 0.0275307 0)
(0 0.0264812 0)
(0 0.0266771 0)
(0 0.02563 0)
(0 0.0258345 0)
(0 0.0324071 0)
(0 0.0247828 0)
(0 0.0249919 0)
(0 0.023945 0)
(0 0.024123 0)
(0 0.0231218 0)
(0 0.0233055 0)
(0 0.0288372 0)
(0 0.0223124 0)
(0 0.0225241 0)
(0 0.021503 0)
(0 0.0217421 0)
(0 0.0207109 0)
(0 0.0209481 0)
(0 0.0199262 0)
(0 0.0201691 0)
(0 0.0191555 0)
(0 0.0194021 0)
(0 0.0253728 0)
(0 0.0183931 0)
(0 0.018648 0)
(0 0.0196017 0)
(0 0.0188521 0)
(0 0.0179126 0)
(0 0.0181192 0)
(0 0.0171901 0)
(0 0.0174012 0)
(0 0.0182912 0)
(0 0.017579 0)
(0 0.0166993 0)
(0 0.0168818 0)
(0 0.0160121 0)
(0 0.0161974 0)
(0 0.015339 0)
(0 0.0155271 0)
(0 0.0146802 0)
(0 0.0148725 0)
(0 0.0156839 0)
(0 0.0150339 0)
(0 0.014234 0)
(0 0.0143996 0)
(0 0.0136118 0)
(0 0.0137815 0)
(0 0.0130065 0)
(0 0.0131798 0)
(0 0.013921 0)
(0 0.0133217 0)
(0 0.0125951 0)
(0 0.0127391 0)
(0 0.0120263 0)
(0 0.0121734 0)
(0 0.0114729 0)
(0 0.0116228 0)
(0 0.0122906 0)
(0 0.0117408 0)
(0 0.0110875 0)
(0 0.0112119 0)
(0 0.0105705 0)
(0 0.0106881 0)
(0 0.0113056 0)
(0 0.0107842 0)
(0 0.0100808 0)
(0 0.0102806 0)
(0 0.0108602 0)
(0 0.0103703 0)
(0 0.00983262 0)
(0 0.00989031 0)
(0 0.0103933 0)
(0 0.00993016 0)
(0 0.00941867 0)
(0 0.00946873 0)
(0 0.00996047 0)
(0 0.00950088 0)
(0 0.00996283 0)
(0 0.00950722 0)
(0 0.0090443 0)
(0 0.0090554 0)
(0 0.00949207 0)
(0 0.00904483 0)
(0 0.00945149 0)
(0 0.00901211 0)
(0 0.00860267 0)
(0 0.00857472 0)
(0 0.00896357 0)
(0 0.00852888 0)
(0 0.00890056 0)
(0 0.0084644 0)
(0 0.00809696 0)
(0 0.00803308 0)
(0 0.00838351 0)
(0 0.00795598 0)
(0 0.00760783 0)
(0 0.00828727 0)
(0 0.00786315 0)
(0 0.00817609 0)
(0 0.00775682 0)
(0 0.00805033 0)
(0 0.00763286 0)
(0 0.00790965 0)
(0 0.00748956 0)
(0 0.00776171 0)
(0 0.00732763 0)
(0 0.00706365 0)
(0 0.00759222 0)
(0 0.0071581 0)
(0 0.00740413 0)
(0 0.00698172 0)
(0 0.00720764 0)
(0 0.00678538 0)
(0 0.00699611 0)
(0 0.00783383 0)
(0 0.00847682 0)
(0 0.0065693 0)
(0 0.00677272 0)
(0 0.00636036 0)
(0 0.0184319 0)
(0 0.0220411 0)
(0 0.00634781 0)
(0 0.00654181 0)
(0 0.00696344 0)
(0 0.0067211 0)
(0 0.00714227 0)
(0 0.00688822 0)
(0 0.0228826 0)
(0 0.0064703 0)
(0 0.00662607 0)
(0 0.0375633 0)
(0 0.0383023 0)
(0 0.0396976 0)
(0 0.0390169 0)
(0 0.0403673 0)
(0 0.039699 0)
(0 0.0410043 0)
(0 0.0403483 0)
(0 0.0416251 0)
(0 0.0409665 0)
(0 0.0396375 0)
(0 0.0402669 0)
(0 0.0415299 0)
(0 0.0408942 0)
(0 0.039531 0)
(0 0.0401653 0)
(0 0.0415072 0)
(0 0.0407811 0)
(0 0.0393881 0)
(0 0.0400158 0)
(0 0.0413753 0)
(0 0.0406224 0)
(0 0.0419454 0)
(0 0.0412042 0)
(0 0.0398197 0)
(0 0.0404137 0)
(0 0.0417664 0)
(0 0.0409912 0)
(0 0.0395726 0)
(0 0.0401681 0)
(0 0.0415506 0)
(0 0.0407414 0)
(0 0.0420864 0)
(0 0.04129 0)
(0 0.0398849 0)
(0 0.040445 0)
(0 0.0418418 0)
(0 0.040998 0)
(0 0.039562 0)
(0 0.00621045 0)
(0 0.00635611 0)
(0 0.0276635 0)
(0 0.0368002 0)
(0 0.0360372 0)
(0 0.0188387 0)
(0 0.00730964 0)
(0 0.0452255 0)
(0 0.0059424 0)
(0 0.00607875 0)
(0 0.014457 0)
(0 0.0351914 0)
(0 0.0344105 0)
(0 0.00566699 0)
(0 0.0057949 0)
(0 0.00620518 0)
(0 0.00552993 0)
(0 0.0378458 0)
(0 0.0334743 0)
(0 0.0326699 0)
(0 0.0310938 0)
(0 0.0369479 0)
(0 0.0316461 0)
(0 0.030807 0)
(0 0.0250978 0)
(0 0.0112943 0)
(0 0.0140308 0)
(0 0.0384415 0)
(0 0.0531854 0)
(0 0.0554815 0)
(0 0.0554275 0)
(0 0.053572 0)
(0 0.052356 0)
(0 0.0563335 0)
(0 0.0563549 0)
(0 0.056366 0)
(0 0.056385 0)
(0 0.0563949 0)
(0 0.0564117 0)
(0 0.0564201 0)
(0 0.0564348 0)
(0 0.0564422 0)
(0 0.0564553 0)
(0 0.0564616 0)
(0 0.0564731 0)
(0 0.0564785 0)
(0 0.0564886 0)
(0 0.0564932 0)
(0 0.0565021 0)
(0 0.056506 0)
(0 0.0565138 0)
(0 0.056517 0)
(0 0.0565096 0)
(0 0.0565199 0)
(0 0.0565127 0)
(0 0.0565221 0)
(0 0.0565157 0)
(0 0.0565245 0)
(0 0.0565184 0)
(0 0.0565271 0)
(0 0.0565209 0)
(0 0.0565292 0)
(0 0.056523 0)
(0 0.0565311 0)
(0 0.056525 0)
(0 0.0565328 0)
(0 0.0565268 0)
(0 0.0565343 0)
(0 0.0565238 0)
(0 0.056521 0)
(0 0.0565382 0)
(0 0.05653 0)
(0 0.0565277 0)
(0 0.0565355 0)
(0 0.056533 0)
(0 0.0565404 0)
(0 0.0565377 0)
(0 0.0565447 0)
(0 0.0565425 0)
(0 0.0565466 0)
(0 0.0565503 0)
(0 0.0565518 0)
(0 0.0565349 0)
(0 0.0565402 0)
(0 0.0565548 0)
(0 0.0565561 0)
(0 0.0565322 0)
(0 0.0565375 0)
(0 0.0565586 0)
(0 0.0565595 0)
(0 0.0564498 0)
(0 0.0565119 0)
(0 0.0561678 0)
(0 0.0557931 0)
(0 0.0557046 0)
(0 0.0557432 0)
(0 0.0556476 0)
(0 0.0556885 0)
(0 0.0555912 0)
(0 0.0556279 0)
(0 0.0555272 0)
(0 0.0555609 0)
(0 0.0554479 0)
(0 0.0554875 0)
(0 0.055364 0)
(0 0.0554079 0)
(0 0.0554262 0)
(0 0.0552781 0)
(0 0.0553227 0)
(0 0.0551854 0)
(0 0.0552308 0)
(0 0.0553637 0)
(0 0.0552731 0)
(0 0.0565291 0)
(0 0.0565344 0)
(0 0.056542 0)
(0 0.0565391 0)
(0 0.0565461 0)
(0 0.0565431 0)
(0 0.0565496 0)
(0 0.0565466 0)
(0 0.0565525 0)
(0 0.0565495 0)
(0 0.0563318 0)
(0 0.0565616 0)
(0 0.0565622 0)
(0 0.0565603 0)
(0 0.0565628 0)
(0 0.0554008 0)
(0 0.0553123 0)
(0 0.0565393 0)
(0 0.0297066 0)
(0 0.0288472 0)
(0 0.0305537 0)
(0 0.0426688 0)
(0 0.0554366 0)
(0 0.0553486 0)
(0 0.055472 0)
(0 0.0553828 0)
(0 0.0552504 0)
(0 0.0552853 0)
(0 0.0551296 0)
(0 0.0554153 0)
(0 0.0553187 0)
(0 0.0554467 0)
(0 0.0553507 0)
(0 0.056561 0)
(0 0.0565634 0)
(0 0.0565548 0)
(0 0.056552 0)
(0 0.0565616 0)
(0 0.0565639 0)
(0 0.0565652 0)
(0 0.0565656 0)
(0 0.0565643 0)
(0 0.0565659 0)
(0 0.0565647 0)
(0 0.0565662 0)
(0 0.0565651 0)
(0 0.0565665 0)
(0 0.0565654 0)
(0 0.0565667 0)
(0 0.0565656 0)
(0 0.0565669 0)
(0 0.0565659 0)
(0 0.0565671 0)
(0 0.0565661 0)
(0 0.0565673 0)
(0 0.0565663 0)
(0 0.0565639 0)
(0 0.0564496 0)
(0 0.0551437 0)
(0 0.055135 0)
(0 0.0332994 0)
(0 0.032222 0)
(0 0.0422257 0)
(0 0.0565578 0)
(0 0.0557412 0)
(0 0.0556816 0)
(0 0.0557792 0)
(0 0.0557192 0)
(0 0.0556168 0)
(0 0.0556544 0)
(0 0.0557539 0)
(0 0.0556884 0)
(0 0.0557855 0)
(0 0.0557175 0)
(0 0.0558116 0)
(0 0.0557417 0)
(0 0.055832 0)
(0 0.0557616 0)
(0 0.0558487 0)
(0 0.0557767 0)
(0 0.0558612 0)
(0 0.0557877 0)
(0 0.0556977 0)
(0 0.0557075 0)
(0 0.055795 0)
(0 0.0557131 0)
(0 0.0557988 0)
(0 0.0557145 0)
(0 0.0557987 0)
(0 0.0557113 0)
(0 0.0557934 0)
(0 0.0557026 0)
(0 0.0557831 0)
(0 0.0556892 0)
(0 0.0556031 0)
(0 0.0555864 0)
(0 0.0556716 0)
(0 0.0555639 0)
(0 0.05565 0)
(0 0.0555359 0)
(0 0.0556263 0)
(0 0.0555057 0)
(0 0.0555947 0)
(0 0.055469 0)
(0 0.0555497 0)
(0 0.0554244 0)
(0 0.0555029 0)
(0 0.0553722 0)
(0 0.0554485 0)
(0 0.0553093 0)
(0 0.0556437 0)
(0 0.0554935 0)
(0 0.0552409 0)
(0 0.0556119 0)
(0 0.0565252 0)
(0 0.0565566 0)
(0 0.056554 0)
(0 0.0565486 0)
(0 0.0565507 0)
(0 0.0565557 0)
(0 0.0565523 0)
(0 0.0565571 0)
(0 0.0565536 0)
(0 0.056558 0)
(0 0.0565546 0)
(0 0.0565585 0)
(0 0.0565548 0)
(0 0.0565584 0)
(0 0.0565542 0)
(0 0.0565579 0)
(0 0.0565534 0)
(0 0.0565572 0)
(0 0.0565523 0)
(0 0.0565562 0)
(0 0.0565507 0)
(0 0.0565552 0)
(0 0.0565487 0)
(0 0.0565483 0)
(0 0.0565435 0)
(0 0.0565499 0)
(0 0.0331184 0)
(0 0.0320129 0)
(0 0.0328954 0)
(0 0.0317403 0)
(0 0.0326292 0)
(0 0.0314231 0)
(0 0.0305235 0)
(0 0.0301547 0)
(0 0.0292435 0)
(0 0.0288182 0)
(0 0.0278984 0)
(0 0.0274149 0)
(0 0.0264903 0)
(0 0.0283432 0)
(0 0.0268842 0)
(0 0.0278131 0)
(0 0.0263008 0)
(0 0.0272272 0)
(0 0.0256494 0)
(0 0.0265781 0)
(0 0.0249219 0)
(0 0.0258624 0)
(0 0.0239902 0)
(0 0.0241326 0)
(0 0.0250812 0)
(0 0.0232762 0)
(0 0.0242332 0)
(0 0.0260312 0)
(0 0.0251901 0)
(0 0.0299485 0)
(0 0.0279437 0)
(0 0.0290437 0)
(0 0.0269845 0)
(0 0.0280389 0)
(0 0.0260217 0)
(0 0.0271061 0)
(0 0.0250746 0)
(0 0.0553599 0)
(0 0.0553012 0)
(0 0.0565444 0)
(0 0.028518 0)
(0 0.0293873 0)
(0 0.0555469 0)
(0 0.0553414 0)
(0 0.0233236 0)
(0 0.0551611 0)
(0 0.0281618 0)
(0 0.0269796 0)
(0 0.0296844 0)
(0 0.0300226 0)
(0 0.0292751 0)
(0 0.0295832 0)
(0 0.0288292 0)
(0 0.0291021 0)
(0 0.0283474 0)
(0 0.0285844 0)
(0 0.02783 0)
(0 0.0293428 0)
(0 0.0280366 0)
(0 0.0272757 0)
(0 0.0274562 0)
(0 0.0266872 0)
(0 0.0265166 0)
(0 0.0259202 0)
(0 0.0257622 0)
(0 0.0251565 0)
(0 0.0250122 0)
(0 0.0243917 0)
(0 0.024266 0)
(0 0.0550874 0)
(0 0.0361395 0)
(0 0.0368795 0)
(0 0.0360785 0)
(0 0.0367836 0)
(0 0.0359887 0)
(0 0.0516196 0)
(0 0.0262636 0)
(0 0.0241229 0)
(0 0.0236443 0)
(0 0.0235365 0)
(0 0.0565667 0)
(0 0.0272379 0)
(0 0.0281334 0)
(0 0.0229234 0)
(0 0.0228079 0)
(0 0.0222066 0)
(0 0.0220863 0)
(0 0.021497 0)
(0 0.021391 0)
(0 0.036661 0)
(0 0.0358695 0)
(0 0.0207974 0)
(0 0.020694 0)
(0 0.0374191 0)
(0 0.0201005 0)
(0 0.0199991 0)
(0 0.0464262 0)
(0 0.0550013 0)
(0 0.0565679 0)
(0 0.0565674 0)
(0 0.0128064 0)
(0 0.0321488 0)
(0 0.0379483 0)
(0 0.0557344 0)
(0 0.0486809 0)
(0 0.0244838 0)
(0 0.0565633 0)
(0 0.0525839 0)
(0 0.0257942 0)
(0 0.0501493 0)
(0 0.0498699 0)
(0 0.0565635 0)
(0 0.0565653 0)
(0 0.055228 0)
(0 0.0551637 0)
(0 0.056565 0)
(0 0.021948 0)
(0 0.050301 0)
(0 0.0558779 0)
(0 0.0268365 0)
(0 0.0276147 0)
(0 0.0555644 0)
(0 0.0258631 0)
(0 0.0267777 0)
(0 0.0437854 0)
(0 0.0555514 0)
(0 0.0565602 0)
(0 0.0194128 0)
(0 0.0193165 0)
(0 0.0198766 0)
(0 0.0192086 0)
(0 0.0549218 0)
(0 0.0365153 0)
(0 0.0357185 0)
(0 0.0558993 0)
(0 0.0565665 0)
(0 0.0565662 0)
(0 0.0548292 0)
(0 0.0240527 0)
(0 0.026139 0)
(0 0.0279181 0)
(0 0.0187093 0)
(0 0.0186347 0)
(0 0.0185542 0)
(0 0.0191606 0)
(0 0.018436 0)
(0 0.0179031 0)
(0 0.0177923 0)
(0 0.0172683 0)
(0 0.0171653 0)
(0 0.0166501 0)
(0 0.0165499 0)
(0 0.0160449 0)
(0 0.0159468 0)
(0 0.016423 0)
(0 0.0158274 0)
(0 0.0153555 0)
(0 0.0152434 0)
(0 0.0147766 0)
(0 0.0146715 0)
(0 0.0151132 0)
(0 0.0145478 0)
(0 0.0149651 0)
(0 0.0144061 0)
(0 0.0139937 0)
(0 0.0138581 0)
(0 0.0142454 0)
(0 0.0137052 0)
(0 0.0140682 0)
(0 0.0135355 0)
(0 0.0138758 0)
(0 0.0133494 0)
(0 0.0130115 0)
(0 0.0128332 0)
(0 0.0131482 0)
(0 0.0126405 0)
(0 0.0129333 0)
(0 0.0124347 0)
(0 0.0127082 0)
(0 0.0122178 0)
(0 0.0124748 0)
(0 0.0119906 0)
(0 0.0122338 0)
(0 0.0117535 0)
(0 0.0119808 0)
(0 0.0115032 0)
(0 0.0117092 0)
(0 0.0112374 0)
(0 0.0114246 0)
(0 0.010958 0)
(0 0.01113 0)
(0 0.0106699 0)
(0 0.0108274 0)
(0 0.0103845 0)
(0 0.0105106 0)
(0 0.0100235 0)
(0 0.0110323 0)
(0 0.0119428 0)
(0 0.010182 0)
(0 0.0565643 0)
(0 0.0124977 0)
(0 0.0560684 0)
(0 0.056561 0)
(0 0.0228364 0)
(0 0.0218574 0)
(0 0.0563346 0)
(0 0.0500097 0)
(0 0.0495746 0)
(0 0.0243749 0)
(0 0.025328 0)
(0 0.0234154 0)
(0 0.0269617 0)
(0 0.0277462 0)
(0 0.0241118 0)
(0 0.0556286 0)
(0 0.0386258 0)
(0 0.0276611 0)
(0 0.0263023 0)
(0 0.00357072 0)
(0 0.00315474 0)
(0 0.00344822 0)
(0 0.00303065 0)
(0 0.00332064 0)
(0 0.0565589 0)
(0 0.056113 0)
(0 0.0560747 0)
(0 0.0134512 0)
(0 0.0112814 0)
(0 0.0441538 0)
(0 0.0182699 0)
(0 0.0565675 0)
(0 0.0565672 0)
(0 0.0565677 0)
(0 0.0550847 0)
(0 0.0550146 0)
(0 0.035064 0)
(0 0.0349064 0)
(0 0.0342512 0)
(0 0.0341077 0)
(0 0.0334361 0)
(0 0.0333026 0)
(0 0.0339847 0)
(0 0.0330999 0)
(0 0.0324911 0)
(0 0.0423647 0)
(0 0.0429888 0)
(0 0.043396 0)
(0 0.043995 0)
(0 0.0443662 0)
(0 0.044927 0)
(0 0.0452649 0)
(0 0.0457922 0)
(0 0.0460853 0)
(0 0.0465958 0)
(0 0.0468474 0)
(0 0.0473411 0)
(0 0.0475577 0)
(0 0.0480328 0)
(0 0.0482308 0)
(0 0.0478166 0)
(0 0.0477553 0)
(0 0.0484061 0)
(0 0.0479272 0)
(0 0.0485611 0)
(0 0.0480749 0)
(0 0.0486998 0)
(0 0.0481997 0)
(0 0.0488038 0)
(0 0.048307 0)
(0 0.0488837 0)
(0 0.0484046 0)
(0 0.0489579 0)
(0 0.0484771 0)
(0 0.0490107 0)
(0 0.0485228 0)
(0 0.0490359 0)
(0 0.0485446 0)
(0 0.0490457 0)
(0 0.0485498 0)
(0 0.0490188 0)
(0 0.0484796 0)
(0 0.048269 0)
(0 0.0493611 0)
(0 0.0490355 0)
(0 0.0485401 0)
(0 0.0495148 0)
(0 0.0489022 0)
(0 0.0486973 0)
(0 0.0494894 0)
(0 0.0499515 0)
(0 0.0493032 0)
(0 0.0490995 0)
(0 0.049911 0)
(0 0.0480334 0)
(0 0.0480254 0)
(0 0.0479141 0)
(0 0.0484768 0)
(0 0.0488787 0)
(0 0.0496798 0)
(0 0.0498685 0)
(0 0.0503541 0)
(0 0.0502994 0)
(0 0.0498548 0)
(0 0.0503958 0)
(0 0.0482317 0)
(0 0.0486372 0)
(0 0.0474965 0)
(0 0.0474859 0)
(0 0.0507788 0)
(0 0.0508231 0)
(0 0.050225 0)
(0 0.0503945 0)
(0 0.0511823 0)
(0 0.0512217 0)
(0 0.0479614 0)
(0 0.0483729 0)
(0 0.0490233 0)
(0 0.0487668 0)
(0 0.0480901 0)
(0 0.0484841 0)
(0 0.0494051 0)
(0 0.0477849 0)
(0 0.0481771 0)
(0 0.05023 0)
(0 0.0497837 0)
(0 0.0475441 0)
(0 0.0507374 0)
(0 0.0508821 0)
(0 0.0474642 0)
(0 0.0478618 0)
(0 0.0485555 0)
(0 0.0482392 0)
(0 0.0489066 0)
(0 0.0485824 0)
(0 0.0492375 0)
(0 0.0489126 0)
(0 0.0482383 0)
(0 0.0485766 0)
(0 0.0492426 0)
(0 0.0489063 0)
(0 0.0482288 0)
(0 0.048561 0)
(0 0.0491953 0)
(0 0.048871 0)
(0 0.0482043 0)
(0 0.0485366 0)
(0 0.0491807 0)
(0 0.0488675 0)
(0 0.0482005 0)
(0 0.048507 0)
(0 0.0492424 0)
(0 0.0487847 0)
(0 0.0231432 0)
(0 0.0208696 0)
(0 0.026987 0)
(0 0.0255668 0)
(0 0.0565193 0)
(0 0.0565146 0)
(0 0.0425 0)
(0 0.0260913 0)
(0 0.0246471 0)
(0 0.0251764 0)
(0 0.0237377 0)
(0 0.0231607 0)
(0 0.0222495 0)
(0 0.0216077 0)
(0 0.0206985 0)
(0 0.0199879 0)
(0 0.0190843 0)
(0 0.0198017 0)
(0 0.0181945 0)
(0 0.0189159 0)
(0 0.0173109 0)
(0 0.0180447 0)
(0 0.0164476 0)
(0 0.0171926 0)
(0 0.0156073 0)
(0 0.01636 0)
(0 0.0147866 0)
(0 0.0155425 0)
(0 0.0183195 0)
(0 0.0139873 0)
(0 0.014742 0)
(0 0.0132108 0)
(0 0.0139677 0)
(0 0.012461 0)
(0 0.0132164 0)
(0 0.0156622 0)
(0 0.0117315 0)
(0 0.0124832 0)
(0 0.0110214 0)
(0 0.0117694 0)
(0 0.017884 0)
(0 0.0146641 0)
(0 0.0242988 0)
(0 0.0131788 0)
(0 0.0103314 0)
(0 0.0110755 0)
(0 0.046941 0)
(0 0.0469283 0)
(0 0.0479676 0)
(0 0.0483592 0)
(0 0.00290166 0)
(0 0.0031871 0)
(0 0.0255103 0)
(0 0.00276784 0)
(0 0.00304844 0)
(0 0.04906 0)
(0 0.0486785 0)
(0 0.0479358 0)
(0 0.048277 0)
(0 0.0490046 0)
(0 0.0323292 0)
(0 0.0328521 0)
(0 0.0316871 0)
(0 0.0237621 0)
(0 0.0247291 0)
(0 0.0272437 0)
(0 0.0256755 0)
(0 0.0280941 0)
(0 0.0265963 0)
(0 0.0240428 0)
(0 0.0250076 0)
(0 0.0275033 0)
(0 0.0259519 0)
(0 0.0283912 0)
(0 0.0268649 0)
(0 0.024312 0)
(0 0.0252432 0)
(0 0.027752 0)
(0 0.0261588 0)
(0 0.0550942 0)
(0 0.0549386 0)
(0 0.0363441 0)
(0 0.0132014 0)
(0 0.0286131 0)
(0 0.0270509 0)
(0 0.0244679 0)
(0 0.0253892 0)
(0 0.0279236 0)
(0 0.0262997 0)
(0 0.0323248 0)
(0 0.0547447 0)
(0 0.0546455 0)
(0 0.0547304 0)
(0 0.00756684 0)
(0 0.055598 0)
(0 0.012458 0)
(0 0.0117605 0)
(0 0.0104037 0)
(0 0.0110846 0)
(0 0.00975246 0)
(0 0.010429 0)
(0 0.00912225 0)
(0 0.00979602 0)
(0 0.011056 0)
(0 0.0104166 0)
(0 0.00918809 0)
(0 0.00979713 0)
(0 0.00860605 0)
(0 0.00921985 0)
(0 0.0109934 0)
(0 0.00804872 0)
(0 0.00866243 0)
(0 0.0124639 0)
(0 0.0335194 0)
(0 0.0332215 0)
(0 0.0222687 0)
(0 0.0474618 0)
(0 0.0468918 0)
(0 0.0474124 0)
(0 0.0393077 0)
(0 0.0282105 0)
(0 0.0158104 0)
(0 0.0355601 0)
(0 0.0445844 0)
(0 0.0412318 0)
(0 0.0415543 0)
(0 0.0408662 0)
(0 0.0411689 0)
(0 0.0468325 0)
(0 0.0473285 0)
(0 0.0550183 0)
(0 0.0548556 0)
(0 0.0549346 0)
(0 0.0515628 0)
(0 0.0515915 0)
(0 0.0515172 0)
(0 0.047139 0)
(0 0.00751024 0)
(0 0.00810701 0)
(0 0.00918512 0)
(0 0.00864178 0)
(0 0.00756923 0)
(0 0.00810742 0)
(0 0.00704968 0)
(0 0.00759611 0)
(0 0.0565327 0)
(0 0.0433962 0)
(0 0.00912498 0)
(0 0.0065965 0)
(0 0.00711634 0)
(0 0.0501461 0)
(0 0.0456941 0)
(0 0.0565643 0)
(0 0.0026299 0)
(0 0.00290563 0)
(0 0.00332054 0)
(0 0.00317206 0)
(0 0.00358352 0)
(0 0.00342864 0)
(0 0.00302018 0)
(0 0.00327016 0)
(0 0.00367486 0)
(0 0.00350898 0)
(0 0.00310858 0)
(0 0.00333987 0)
(0 0.00294444 0)
(0 0.00316816 0)
(0 0.00355899 0)
(0 0.00337902 0)
(0 0.00376534 0)
(0 0.00357634 0)
(0 0.00319714 0)
(0 0.00338528 0)
(0 0.00375937 0)
(0 0.00355866 0)
(0 0.00319285 0)
(0 0.00335678 0)
(0 0.0037174 0)
(0 0.00350522 0)
(0 0.00386105 0)
(0 0.00363759 0)
(0 0.00398862 0)
(0 0.00375343 0)
(0 0.00341303 0)
(0 0.00351711 0)
(0 0.00385225 0)
(0 0.00360374 0)
(0 0.00328056 0)
(0 0.00335526 0)
(0 0.00367262 0)
(0 0.0034121 0)
(0 0.0037237 0)
(0 0.0034505 0)
(0 0.00375604 0)
(0 0.00315284 0)
(0 0.00346948 0)
(0 0.00376908 0)
(0 0.00346881 0)
(0 0.00376246 0)
(0 0.00344821 0)
(0 0.00373589 0)
(0 0.00316934 0)
(0 0.00340737 0)
(0 0.00368929 0)
(0 0.00403462 0)
(0 0.00398253 0)
(0 0.00362167 0)
(0 0.00390796 0)
(0 0.00428583 0)
(0 0.0042043 0)
(0 0.00381096 0)
(0 0.00410184 0)
(0 0.00404337 0)
(0 0.0045121 0)
(0 0.00440498 0)
(0 0.00299979 0)
(0 0.00397698 0)
(0 0.00427458 0)
(0 0.00471978 0)
(0 0.00458416 0)
(0 0.00412079 0)
(0 0.00442518 0)
(0 0.00490584 0)
(0 0.00474194 0)
(0 0.0052399 0)
(0 0.00507131 0)
(0 0.00455316 0)
(0 0.00487712 0)
(0 0.00422193 0)
(0 0.0054142 0)
(0 0.00521491 0)
(0 0.00465615 0)
(0 0.00498798 0)
(0 0.00556601 0)
(0 0.00533366 0)
(0 0.00473317 0)
(0 0.00507333 0)
(0 0.00569372 0)
(0 0.00542799 0)
(0 0.00606823 0)
(0 0.0057971 0)
(0 0.00513222 0)
(0 0.00549506 0)
(0 0.00618079 0)
(0 0.0058724 0)
(0 0.00516126 0)
(0 0.00553153 0)
(0 0.00626432 0)
(0 0.0059148 0)
(0 0.00666792 0)
(0 0.00630613 0)
(0 0.00553297 0)
(0 0.00590898 0)
(0 0.00668628 0)
(0 0.0270852 0)
(0 0.028854 0)
(0 0.0296052 0)
(0 0.0305194 0)
(0 0.0311978 0)
(0 0.0469342 0)
(0 0.0563761 0)
(0 0.0517749 0)
(0 0.0565079 0)
(0 0.0565021 0)
(0 0.0204523 0)
(0 0.0404664 0)
(0 0.0407467 0)
(0 0.0270597 0)
(0 0.0551498 0)
(0 0.055 0)
(0 0.0550656 0)
(0 0.0144061 0)
(0 0.0512065 0)
(0 0.0513364 0)
(0 0.0510828 0)
(0 0.0565683 0)
(0 0.056568 0)
(0 0.0194863 0)
(0 0.0497106 0)
(0 0.0372612 0)
(0 0.0364798 0)
(0 0.0463597 0)
(0 0.0463313 0)
(0 0.0510147 0)
(0 0.0514525 0)
(0 0.0511335 0)
(0 0.0515521 0)
(0 0.0512396 0)
(0 0.0516372 0)
(0 0.0297874 0)
(0 0.0513197 0)
(0 0.051709 0)
(0 0.0513772 0)
(0 0.0517655 0)
(0 0.0560538 0)
(0 0.0560112 0)
(0 0.056033 0)
(0 0.0545392 0)
(0 0.0546214 0)