/*--------------------------------*- C++ -*----------------------------------*\
| =========                 |                                                 |
| \\      /  F ield         | OpenFOAM: The Open Source CFD Toolbox           |
|  \\    /   O peration     | Version:  v2012                                 |
|   \\  /    A nd           | Website:  www.openfoam.com                      |
|    \\/     M anipulation  |                                                 |
\*---------------------------------------------------------------------------*/
FoamFile
{
    version     2.0;
    format      ascii;
    class       volVectorField;
    location    "700";
    object      ddtCorrDdt0(U);
}
// * * * * * * * * * * * * * * * * * * * * * * * * * * * * * * * * * * * * * //

dimensions      [0 1 -2 0 0 0 0];


internalField   nonuniform List<vector> 
13917
(
(8.52054e-05 0.000177976 -2.22691e-18)
(9.02971e-06 0.00011894 -4.10762e-19)
(-0.00842996 0.00434846 -1.84712e-17)
(0.000196704 6.71029e-05 -4.43103e-18)
(-4.77068e-06 -1.00224e-05 4.80772e-18)
(-3.467e-05 -0.000404283 -1.38046e-16)
(-0.0078669 0.00374235 -4.36588e-19)
(-0.00751913 0.00410324 -1.32025e-17)
(-0.000538594 -0.00207266 -1.08838e-17)
(0.00019671 0.000310515 -2.17793e-17)
(0.00107165 0.00252213 3.35926e-18)
(0.000736213 0.000485475 -3.93066e-19)
(0.000203566 6.53716e-05 5.67883e-18)
(0.00126225 -0.000104019 3.08494e-17)
(-4.60281e-05 0.000143368 -7.01534e-18)
(-3.04785e-05 0.000156674 3.78131e-18)
(1.91154e-06 0.000114033 -7.58848e-19)
(-0.000181921 -8.45036e-05 -6.17907e-18)
(0.000705748 0.000449063 -2.44877e-18)
(-1.77531e-05 -1.25112e-05 -6.17061e-19)
(-8.20312e-07 -2.21998e-05 -2.24646e-18)
(-0.00767141 0.00360484 1.88622e-18)
(-1.85552e-05 4.73886e-06 -4.98381e-19)
(-0.0080435 0.00436519 -8.45234e-18)
(-5.98091e-06 5.66956e-05 1.55221e-17)
(-0.00883748 0.00265238 -6.45409e-18)
(-2.60047e-05 -3.81708e-05 3.08464e-17)
(-0.000111066 -7.30752e-05 -3.15741e-18)
(-0.00060521 -0.000366358 -2.89828e-18)
(0.000616895 -9.31651e-05 1.63519e-17)
(0.000125402 0.000141563 -1.59119e-17)
(3.36361e-05 0.000137062 4.78924e-18)
(-5.58017e-05 1.8721e-05 1.38885e-17)
(5.33499e-06 4.7693e-05 1.44915e-17)
(-4.5245e-06 6.10585e-05 -2.91913e-18)
(0.0041205 0.00403671 2.45225e-17)
(-1.85206e-05 -6.92228e-06 7.31609e-19)
(0.00157914 0.000958594 2.06206e-18)
(0.000274643 0.000110241 2.93965e-18)
(-0.0128105 -0.0004609 -7.45142e-18)
(-6.48561e-06 -5.28874e-07 -3.33985e-20)
(-5.59765e-09 -6.54315e-06 3.7232e-18)
(1.58806e-05 -2.32326e-06 -8.66001e-19)
(-0.000186456 -0.000152437 9.19825e-17)
(4.50809e-05 4.48266e-05 -3.86287e-18)
(-1.25122e-06 5.02366e-05 2.63599e-17)
(-0.000189191 -5.60895e-05 5.19898e-18)
(-0.000572608 0.000287911 -1.97922e-17)
(-1.40718e-05 -0.000481002 -4.32892e-17)
(-1.09205e-05 3.00177e-06 1.32325e-18)
(5.67209e-05 0.000110863 9.04818e-18)
(-3.70788e-06 -2.99286e-05 2.35026e-17)
(-2.27294e-06 -0.000496797 7.16978e-17)
(4.88131e-06 4.97284e-05 1.1452e-18)
(5.65579e-07 0.00011484 -2.04174e-19)
(3.99023e-05 4.45901e-05 -4.42604e-18)
(0.000900733 0.00248638 -4.75616e-18)
(-9.38139e-06 -1.69342e-05 3.28516e-18)
(4.66339e-05 5.01382e-05 -5.46126e-18)
(4.28319e-05 4.76333e-05 3.98419e-18)
(-0.00632462 0.000471197 -4.80409e-17)
(9.52994e-06 0.000121536 -4.23098e-19)
(0.0010148 -0.000245088 -2.81375e-17)
(-1.74704e-05 -7.46415e-06 -7.92305e-19)
(-5.63976e-05 -0.00038983 9.95256e-17)
(-0.00230356 -0.00279518 -6.73565e-17)
(2.30082e-06 1.33859e-06 3.95507e-19)
(3.25475e-06 7.35625e-05 -9.05416e-18)
(-0.00199031 0.00132085 8.52377e-18)
(9.48593e-06 0.000213419 1.78725e-19)
(-6.11107e-06 -2.16617e-05 -6.17118e-18)
(-0.000534998 -0.00197554 -1.09143e-18)
(0.000368033 -0.00141289 2.82257e-17)
(-5.39876e-06 6.01375e-05 -1.2174e-17)
(-2.1086e-05 -0.000508206 7.6e-17)
(0.000686392 3.13548e-05 -6.97351e-18)
(0.00338994 -0.000689361 -2.52193e-17)
(5.43238e-05 3.34052e-05 6.45488e-19)
(-0.00926759 0.00102327 7.02536e-18)
(-2.70349e-06 -5.01317e-05 4.71789e-19)
(-7.08345e-06 -5.91681e-05 -6.50178e-19)
(2.40909e-06 -1.83116e-05 9.58381e-18)
(-6.4471e-05 -0.000400509 -3.05527e-17)
(0.00143598 0.0011507 1.33924e-17)
(-0.000806349 0.000216191 3.49789e-18)
(5.57623e-05 3.0013e-05 -1.5661e-17)
(-1.10745e-05 -5.64217e-05 -1.77784e-18)
(-0.00679274 -0.000509211 -2.64793e-17)
(6.23366e-05 0.000109187 2.97462e-18)
(1.66538e-05 -1.16523e-06 -6.56666e-20)
(0.00241667 -0.00113639 -8.54306e-18)
(0.00043148 0.000258391 -1.29404e-17)
(1.63688e-05 8.99317e-05 -9.42401e-19)
(-2.50167e-05 6.55675e-05 1.43487e-18)
(7.43753e-06 0.000618799 2.64444e-17)
(-1.24429e-05 -0.000395855 3.22523e-17)
(-0.000510414 0.00179988 -8.65169e-18)
(-0.000432483 0.000130047 -9.87244e-18)
(0.00179291 -0.000313432 -1.16128e-17)
(-0.000106317 -0.000240379 6.5261e-18)
(-5.05419e-06 9.97764e-06 3.87948e-19)
(5.36715e-06 2.69122e-05 1.9689e-17)
(-0.000164641 -0.000158541 -5.77055e-17)
(6.48413e-05 3.89443e-05 1.1e-17)
(4.94096e-06 4.7675e-05 2.62938e-19)
(-5.68311e-05 -0.00263623 5.71187e-18)
(-0.00061496 -0.000212367 -1.57896e-17)
(-0.000640085 0.000314034 4.66375e-18)
(4.00995e-06 0.000120227 4.04223e-20)
(0.000122937 0.00019072 -3.54632e-17)
(-0.00492538 -0.000248127 -1.61638e-17)
(-0.0127363 -0.000428966 9.20868e-18)
(0.00107137 0.000443087 -1.57085e-17)
(-0.000241217 -0.0025706 2.69668e-17)
(1.16627e-07 -3.91412e-06 -1.2842e-17)
(1.93237e-05 -0.000522915 -2.52295e-17)
(-8.09427e-06 5.74574e-05 -2.74009e-19)
(-3.91924e-05 -0.000471137 9.94287e-18)
(-0.0072284 0.000568553 5.45792e-18)
(-4.25191e-06 5.07073e-05 -4.42667e-18)
(-2.85074e-07 -1.5529e-05 5.79781e-19)
(-0.00195569 0.00117905 -3.2905e-18)
(-0.00402046 0.000771804 2.21774e-18)
(-0.000100305 -6.48986e-05 -1.13985e-17)
(-6.67156e-06 1.69236e-06 5.42725e-19)
(-2.4076e-05 5.64428e-05 -5.31925e-18)
(3.59087e-05 7.91186e-05 8.86725e-19)
(-8.4757e-06 1.33905e-06 2.99299e-20)
(1.32031e-05 -2.44093e-06 1.79124e-18)
(-2.39641e-05 -0.000406009 3.4548e-18)
(-0.00498646 0.00189926 1.33162e-18)
(9.89421e-07 -1.05211e-05 1.22271e-17)
(4.44977e-05 4.96038e-05 1.0515e-18)
(-5.24845e-07 -1.72733e-05 2.53918e-18)
(0.000395511 -0.00301516 1.24491e-17)
(-0.00833581 0.00453743 -3.30512e-18)
(7.61768e-05 0.000191063 4.09541e-18)
(-0.000107191 -0.000250928 3.01325e-17)
(9.85025e-07 1.12787e-05 1.01897e-18)
(2.29991e-07 4.89495e-05 1.41722e-17)
(0.00322252 0.0036957 1.13144e-17)
(2.96404e-05 3.72645e-05 2.42519e-19)
(-6.47317e-06 -1.49921e-05 -1.68564e-17)
(-0.000175845 -0.000203571 3.16676e-17)
(1.51488e-06 6.98916e-05 9.27365e-18)
(-2.37649e-05 -0.00145569 7.26119e-18)
(-0.000692255 -0.000292264 -2.81043e-18)
(-3.86322e-06 -3.2974e-05 -1.27303e-17)
(2.76338e-05 2.75057e-05 -1.63289e-18)
(2.36517e-05 0.000157023 -2.59982e-18)
(-8.64071e-05 0.00065682 -2.1263e-17)
(1.75767e-05 -0.000502983 5.33278e-17)
(0.000480449 0.00128807 -2.5873e-18)
(-0.000100263 0.000236489 2.40879e-18)
(5.0164e-05 6.80994e-05 2.82645e-18)
(-0.000184164 -0.000552094 9.02756e-17)
(4.7555e-06 0.000204821 -8.81613e-19)
(-0.00312664 0.00496405 -4.49589e-18)
(0.00349555 -0.000587822 2.0454e-17)
(0.00261759 -0.00296668 6.556e-18)
(-2.3451e-05 5.62757e-05 -1.30891e-17)
(3.57982e-05 -2.99387e-05 4.81294e-17)
(-2.7534e-06 -4.38876e-05 -7.68905e-18)
(-0.000388106 0.00174044 4.39282e-18)
(0.00102412 0.000493026 1.18648e-17)
(0.00176037 -0.000205505 1.21622e-17)
(6.49847e-05 3.63664e-05 -1.31289e-18)
(-0.000329975 0.000476475 6.81156e-18)
(3.85512e-05 5.3578e-05 5.30814e-18)
(1.36125e-05 1.89885e-05 2.32773e-17)
(-6.74552e-05 0.000249337 3.17297e-18)
(-0.00423954 -3.22842e-05 -6.04576e-18)
(0.00115513 0.000192998 -1.11803e-17)
(-1.56473e-06 0.0001306 2.99181e-19)
(-0.00131974 0.000556225 1.30464e-17)
(-0.000152038 0.000238666 -1.80146e-18)
(-0.00509087 0.00209694 -3.85875e-18)
(-3.32293e-05 -0.000473658 -4.28587e-17)
(-6.98458e-05 -0.00112569 1.60119e-18)
(-3.17132e-06 3.27887e-05 1.02556e-18)
(0.000481851 0.000227564 8.28417e-18)
(0.000141809 0.000133231 -4.11423e-18)
(3.06994e-05 3.08326e-05 1.79698e-18)
(-1.17923e-05 -5.71139e-05 3.07642e-18)
(-8.04269e-05 0.000124014 -1.79949e-17)
(-0.00950076 0.0027574 -3.46415e-18)
(0.00120288 0.000756044 4.93656e-17)
(-0.000559048 -0.000550108 -6.30109e-17)
(1.1222e-05 -8.57701e-06 -1.23789e-17)
(0.00178876 0.00069897 -3.81644e-18)
(0.000826746 0.0043988 -4.50001e-19)
(-0.00104359 0.000224949 7.14353e-17)
(0.000732807 0.00103292 -4.87349e-17)
(-1.62456e-05 -9.5633e-06 -2.36467e-18)
(-4.89719e-05 -0.000276396 -4.6836e-17)
(-2.78638e-05 -2.63506e-05 4.92212e-18)
(-5.5573e-06 9.67519e-07 -2.58623e-19)
(1.65666e-05 9.1817e-05 1.38579e-18)
(-0.000570219 -6.27982e-05 -8.87403e-18)
(-0.00139499 0.00346022 1.76843e-17)
(0.000148388 0.00017916 6.76709e-18)
(-1.24161e-05 2.59891e-06 -9.02853e-19)
(-0.000200032 0.000506032 7.40708e-18)
(-4.31361e-05 0.000647328 2.21833e-17)
(0.000689206 -0.00118677 -9.58812e-18)
(-0.00211089 -0.00328429 1.41673e-17)
(-4.68594e-06 6.67528e-05 -5.79163e-20)
(-9.20418e-06 -1.51604e-05 -5.15307e-18)
(-0.000442298 0.000200652 2.85318e-17)
(-0.00966189 0.00379961 -1.48582e-17)
(-7.96236e-06 -1.98976e-05 1.74677e-17)
(-0.00740448 0.00385392 8.0405e-20)
(0.000996909 -0.000843013 -4.93229e-18)
(0.00172591 0.000782218 3.77969e-18)
(3.3386e-06 4.55412e-05 -7.11799e-20)
(-0.000291563 -0.000443459 1.02491e-17)
(-0.000315246 0.000240772 -1.12948e-18)
(-0.00464241 -0.000468549 9.02717e-18)
(-4.74744e-06 1.09305e-05 6.29326e-19)
(-0.00693565 0.000396153 8.59203e-17)
(-3.85573e-06 2.60978e-05 -8.45888e-19)
(0.000454522 -0.000322361 1.54106e-17)
(-4.66707e-06 -4.40985e-07 1.62774e-20)
(0.00263 0.000562895 1.00779e-17)
(-4.51588e-05 -0.00287312 -2.81116e-18)
(-3.19399e-05 0.000161432 -4.20304e-18)
(-0.00082851 0.000673766 -3.14966e-17)
(5.19081e-05 6.27643e-05 -5.22149e-18)
(1.49792e-06 3.99965e-05 -1.76958e-18)
(0.00486031 0.00362512 -2.1884e-17)
(0.00107799 0.000162693 8.39411e-18)
(4.24636e-06 -7.20145e-07 -4.77953e-18)
(-0.0090799 0.00464852 1.00035e-17)
(0.000949244 -0.000785237 -2.99788e-18)
(-1.72182e-06 1.17999e-05 2.09004e-19)
(3.71032e-05 0.000134927 -4.51405e-18)
(0.00204726 -0.00126781 -3.31645e-17)
(-0.000238825 -0.000110226 4.90322e-17)
(-3.78666e-06 -5.04118e-05 4.43249e-18)
(-4.34631e-06 8.8669e-06 1.27546e-18)
(-0.0122931 -0.000767557 -7.6351e-18)
(-0.000873853 0.00188053 6.57975e-18)
(-4.45035e-07 -1.57614e-06 2.78093e-19)
(0.00353507 0.00232838 -9.2955e-18)
(-0.000416092 -0.000580828 3.95594e-18)
(4.17514e-05 -2.81632e-05 -5.75537e-17)
(8.72956e-05 0.000141987 -6.94626e-18)
(-4.04709e-06 -4.77069e-05 2.62243e-18)
(-0.000180078 0.000190232 -4.73979e-18)
(0.00203379 -0.000685604 3.48074e-17)
(7.15763e-05 3.65661e-05 9.07465e-18)
(0.000556914 0.000401436 -3.91723e-17)
(-0.000146721 -0.00028682 8.83417e-17)
(3.57946e-05 7.45466e-05 3.2811e-19)
(-8.98932e-06 -1.86246e-05 5.51949e-18)
(0.000436882 0.00094355 -1.86623e-17)
(-0.0120962 -0.00070895 -7.62511e-18)
(0.000472075 0.00121307 -5.697e-18)
(-8.62482e-05 0.000127461 5.82595e-18)
(-4.74603e-05 0.000148308 5.24529e-18)
(-3.85943e-07 -2.67455e-06 -7.60715e-19)
(-0.00425916 0.00043349 2.7188e-18)
(-0.000366902 -0.00281577 3.51148e-18)
(0.00587047 0.000298357 6.0286e-18)
(5.48544e-07 3.71476e-05 2.21521e-18)
(-0.00211393 -0.00126971 -2.80419e-17)
(0.00217683 7.99981e-05 2.66083e-17)
(-0.00407821 0.00493598 -8.64632e-18)
(-0.00940373 0.000911899 -8.01602e-18)
(0.000731476 -2.67729e-05 -1.47393e-17)
(-6.41296e-06 -5.75255e-05 2.73473e-19)
(-4.09145e-06 4.92904e-07 -8.53287e-20)
(-0.000228213 -8.5304e-06 2.88401e-17)
(0.00335295 0.000141161 -1.63267e-17)
(-0.0013534 5.57589e-05 1.46212e-17)
(4.70374e-05 4.85796e-05 2.40899e-17)
(-0.00145332 -0.00357457 -1.84345e-17)
(0.000479235 0.000330668 3.1769e-18)
(1.18483e-05 -1.59383e-06 2.17225e-18)
(-0.00488609 -0.000261878 2.80078e-18)
(-1.72327e-05 2.9985e-07 -6.41783e-19)
(-0.00159143 0.000687975 -1.9643e-17)
(0.000150125 0.000169926 -4.00163e-18)
(-7.56883e-07 -1.71167e-06 4.15424e-19)
(-3.94045e-05 0.000175548 2.07323e-19)
(-0.000111907 0.000236205 -1.68189e-18)
(3.12992e-05 -2.9137e-05 -2.22523e-17)
(0.00400308 0.00269974 8.90505e-18)
(-7.68127e-05 0.00018977 -1.57567e-18)
(6.3792e-05 1.62075e-05 -3.47419e-18)
(0.00220705 -0.00258051 3.73297e-17)
(-0.00894491 0.00466435 -7.02811e-18)
(-0.000531558 -0.00267799 1.155e-17)
(-4.17895e-06 1.63842e-05 -6.05493e-19)
(-0.00354141 0.00399155 -1.17968e-17)
(-2.23433e-06 -9.18414e-05 -2.82222e-18)
(6.53028e-05 1.91497e-05 -4.64922e-18)
(-8.8206e-06 5.86403e-05 1.22233e-18)
(-0.000740918 -0.000334569 4.2476e-18)
(-1.55227e-05 -2.71303e-06 -4.08036e-19)
(0.000509288 -0.000350273 -5.52728e-18)
(7.81459e-05 0.000143187 8.50191e-18)
(3.87172e-05 4.8729e-05 -2.68267e-18)
(-0.000191736 0.000556156 -6.68406e-18)
(2.42982e-05 0.000131448 7.68701e-20)
(-3.13331e-05 -0.000482598 7.42358e-17)
(-0.000140601 0.000234946 1.88247e-18)
(0.000398118 0.000229741 5.46252e-18)
(3.90465e-05 1.69258e-05 3.76786e-18)
(-8.47462e-06 -1.79838e-05 -4.35972e-18)
(-0.00481325 -0.00010885 1.47469e-17)
(-0.00245798 0.000607964 9.44518e-18)
(-7.34087e-06 5.28207e-05 3.90161e-19)
(-3.97192e-06 -1.31201e-07 5.31492e-20)
(-0.00530072 -0.000623869 -4.2876e-17)
(7.62491e-07 5.5706e-05 4.42071e-20)
(0.000389391 -0.0015449 -3.46928e-17)
(3.75276e-05 1.9476e-05 -1.48377e-18)
(0.00249676 0.000630089 9.31445e-18)
(0.000125427 4.95295e-05 -1.61814e-18)
(-0.0005111 0.000969932 -1.58124e-17)
(1.02745e-05 0.000216988 -1.32527e-18)
(-3.68098e-05 -0.000537717 -3.60555e-18)
(-2.34716e-05 5.28401e-05 6.59704e-18)
(-0.00562585 -0.00373344 -3.15638e-17)
(-0.000229342 -0.000380039 -8.7941e-18)
(-3.26024e-05 0.000176222 -3.38198e-18)
(-0.00097058 0.0017692 -2.94098e-18)
(-0.000769389 -3.02877e-05 6.83901e-18)
(-1.32058e-05 4.46351e-05 -1.07032e-19)
(-0.00196246 0.00165939 -1.00286e-18)
(-2.66769e-05 -0.000261605 1.15319e-17)
(0.0025063 0.000201078 -1.82459e-17)
(-1.06288e-05 4.41209e-05 -2.39921e-17)
(-0.011477 2.75677e-06 6.07211e-18)
(4.54645e-05 0.000125194 4.05728e-18)
(-0.00280016 0.000914651 1.53105e-16)
(-0.000214889 -0.000356205 5.31682e-18)
(-0.000454272 7.84762e-05 -2.97759e-18)
(-0.000443212 0.000102622 8.07782e-18)
(-0.0074784 0.00417834 2.12148e-17)
(-4.30269e-06 -6.95769e-05 -4.59007e-19)
(-6.5871e-05 0.000262055 -5.41815e-18)
(-0.004851 -0.000180921 7.58039e-17)
(-1.0224e-05 -1.88268e-05 -2.911e-18)
(-1.49502e-05 0.000144315 1.50306e-18)
(0.00150674 0.000109173 2.27621e-17)
(-0.000596247 -0.000111251 9.83837e-18)
(3.87068e-06 0.00013285 -6.73938e-20)
(0.000624592 0.00421304 1.25562e-17)
(-0.000545383 -0.000375559 3.92613e-18)
(-7.01938e-06 -2.21626e-06 -2.96587e-20)
(-0.00709771 0.000296462 -5.78388e-18)
(0.00300575 0.00432465 -1.84989e-18)
(-1.7523e-05 4.69847e-06 2.78509e-18)
(-4.62376e-06 -8.8997e-06 -3.39019e-19)
(-2.51299e-08 -9.32342e-05 2.19901e-18)
(2.87183e-05 2.18891e-05 -1.74624e-18)
(0.00136478 -0.00248041 -5.21581e-17)
(-0.000415013 -0.000574393 -7.49868e-18)
(9.00856e-05 -0.000492948 6.7739e-18)
(-0.0047638 -4.92733e-05 -4.39615e-17)
(-6.83012e-06 6.21257e-05 2.33285e-18)
(0.00061161 0.000428097 2.7634e-17)
(-9.82176e-05 -0.000369876 -8.9344e-18)
(-7.20766e-05 0.000360581 -3.28119e-18)
(-0.00718923 0.00373613 -3.3586e-18)
(0.00335009 0.000143653 1.48765e-17)
(-0.000253175 -0.00280337 -3.59892e-17)
(1.55881e-06 2.39442e-05 7.44957e-19)
(0.00481787 0.00041717 2.88437e-19)
(-5.09104e-06 -3.01605e-06 -8.67549e-20)
(-0.00767523 0.000215118 -2.67022e-17)
(4.1133e-05 5.40583e-05 -1.44223e-18)
(-3.01229e-05 -0.000572335 -4.95758e-19)
(-0.000388455 -0.000645692 -5.31246e-19)
(0.000197442 0.000140049 -7.28065e-18)
(-5.62887e-06 -8.04751e-05 1.74534e-18)
(-0.00038525 0.000176565 -1.01825e-17)
(0.00052558 0.000250819 4.75838e-19)
(-0.000422472 -0.000224747 2.23914e-18)
(-0.000292369 -0.00110033 -6.82917e-18)
(-0.00285953 0.000771271 -5.82809e-18)
(-0.00468445 -0.000461038 1.36387e-17)
(-0.00019321 0.000200291 -1.57505e-18)
(0.000176704 0.000288729 3.29277e-17)
(-4.61901e-06 1.24511e-05 -1.47323e-18)
(-0.000317093 -7.15779e-05 -5.35408e-17)
(-0.00791138 0.0033076 1.9749e-18)
(-1.00585e-05 9.62652e-07 -5.00865e-18)
(0.00517255 -0.00445394 -8.95595e-18)
(-8.98958e-06 7.25942e-05 -2.74603e-18)
(-0.00121017 -0.00248842 4.70847e-18)
(0.000122629 5.38488e-05 1.46391e-18)
(-3.01142e-06 -6.08891e-05 7.18872e-19)
(1.77669e-05 0.000141285 -1.18488e-18)
(-0.00853346 -0.00134602 -6.01186e-18)
(1.66043e-05 0.000143787 -9.32498e-19)
(-0.0118256 -0.000793714 -4.52061e-18)
(-0.000350728 0.000191138 -1.24047e-17)
(0.00138885 0.00184681 1.43316e-18)
(-0.000180586 -0.000424271 -1.7137e-16)
(-1.18548e-05 4.47706e-05 -1.63648e-18)
(-0.000259234 -0.00043012 3.00259e-17)
(-0.000207811 -0.000419068 -6.95091e-18)
(-1.34857e-05 4.56437e-05 -2.36398e-20)
(-0.000575055 -0.000159423 7.81194e-19)
(-1.0346e-05 -2.1405e-05 1.73431e-18)
(-5.34616e-06 6.93448e-05 2.38574e-18)
(0.000604484 -3.57191e-05 -1.75634e-17)
(-7.6239e-07 -4.39835e-06 2.50636e-18)
(-5.55181e-06 5.6461e-05 4.27742e-18)
(-5.18681e-06 -1.61492e-06 1.59586e-19)
(0.000819815 -0.00210774 3.42049e-17)
(-1.95116e-06 -3.9141e-05 1.90457e-19)
(-0.0111558 0.000160888 -4.0782e-18)
(-0.00806377 -0.000965337 -5.58734e-18)
(0.000116749 -0.000112871 1.94688e-18)
(0.000638816 0.00101764 -2.56423e-18)
(-0.0112486 0.000116683 -5.64567e-18)
(-0.00388959 -0.000663774 -1.97729e-17)
(-4.55494e-05 0.000351172 1.2171e-18)
(-8.13821e-06 6.49684e-05 -2.19997e-18)
(-0.000121891 -0.00145924 6.75869e-18)
(0.000261346 0.000109871 -2.50724e-18)
(4.23782e-05 0.000138343 -8.53111e-18)
(-1.60238e-05 4.76259e-06 -2.54769e-18)
(-0.000372713 -0.000997289 -9.8869e-19)
(-0.00867647 0.00364102 -1.15245e-18)
(-0.0078605 -0.00121798 -1.04489e-17)
(-3.20501e-05 0.000148001 -5.37797e-18)
(-0.000640145 -0.000677899 1.68928e-17)
(-5.71751e-06 4.00886e-05 -1.18115e-17)
(0.000284476 0.000122181 -2.9454e-18)
(-0.000481693 -0.000167662 1.54976e-17)
(4.20607e-06 0.000147585 -1.22003e-21)
(0.00522332 -3.40901e-06 -1.60593e-17)
(5.40233e-06 0.000120708 -5.73395e-20)
(-1.50819e-05 -3.08792e-06 1.19202e-18)
(4.12689e-05 -0.00178556 9.12659e-18)
(-0.00558353 0.00197907 3.20156e-18)
(-0.00567332 0.00216033 -7.39233e-20)
(0.000127165 0.000686969 -2.41601e-18)
(0.00025618 -0.000169019 8.10222e-18)
(-0.00197741 0.0019747 4.11422e-18)
(-0.00441667 -0.0012979 -3.11479e-17)
(0.0038588 -0.000301566 -1.18491e-18)
(1.46257e-05 -6.85707e-08 -4.50072e-19)
(-0.000332741 6.42071e-05 2.91539e-18)
(5.85279e-06 0.000145543 -2.35267e-20)
(-1.08474e-05 -1.55107e-05 -2.4113e-18)
(-0.00162503 -0.00332329 -7.59766e-17)
(-0.000226118 -4.09889e-05 -3.61567e-17)
(1.39807e-05 1.25468e-06 -5.64771e-19)
(8.97774e-05 -0.000249977 -1.36979e-17)
(-4.65064e-05 0.000286007 2.91017e-19)
(0.00377791 -0.000252242 2.30639e-17)
(-1.26634e-05 4.94985e-05 1.49848e-18)
(-0.00116629 0.000992779 1.09616e-17)
(-0.000385482 -0.000827194 5.51449e-18)
(-0.000671387 0.0010734 1.18147e-17)
(-0.0100445 0.000487028 -8.0451e-18)
(-1.4159e-06 -3.42279e-05 -1.11357e-18)
(-8.99577e-06 -1.27403e-06 -1.08718e-17)
(-4.31967e-06 1.97349e-06 -6.92758e-20)
(-8.03512e-06 0.000212317 2.29293e-19)
(1.91136e-06 2.30829e-05 -9.03524e-19)
(-0.0101015 0.00218048 -1.71297e-17)
(6.69647e-05 -0.000469866 -2.60028e-17)
(-6.92571e-05 0.00019163 -7.66522e-19)
(-0.000367552 -0.000219853 1.06152e-17)
(4.017e-05 4.65536e-05 -2.99577e-18)
(-0.000270043 0.00184005 4.48468e-18)
(-0.00438186 -0.0013979 -3.1414e-18)
(-0.000707184 -0.000261911 -8.00684e-19)
(0.00143844 0.00174037 -1.58418e-18)
(0.00344073 0.00393214 -1.18696e-17)
(-0.00117598 0.00109578 -1.34294e-17)
(0.000200207 -0.000158967 2.34537e-17)
(-0.000804513 -0.00133964 1.38219e-17)
(0.00031252 0.000494322 1.42304e-17)
(0.00228082 0.00137508 1.01699e-17)
(-6.73483e-05 -0.00040301 6.3492e-18)
(0.000465224 0.000471466 1.35559e-17)
(-0.000745362 0.000521488 1.63111e-17)
(1.1952e-05 2.91667e-06 -3.41773e-19)
(0.00029903 -0.00392504 1.54508e-17)
(4.389e-05 0.000102071 -4.29023e-18)
(3.9488e-05 1.55203e-05 -2.76944e-18)
(-9.9269e-06 0.000205087 -3.47584e-18)
(5.62642e-05 3.21581e-05 -4.35094e-18)
(0.00383219 -0.000206622 -2.11907e-17)
(-0.000248033 -0.0024899 7.47006e-18)
(-1.20343e-06 4.72995e-05 -2.11793e-19)
(1.2333e-05 -1.06045e-06 -8.86908e-19)
(-0.010553 0.00351349 -4.69598e-18)
(-0.00392834 -0.000645046 2.19526e-17)
(-6.47878e-07 -3.30061e-06 -6.30377e-19)
(-0.0104116 0.000247888 -3.50125e-18)
(0.000105312 7.1464e-05 1.91783e-17)
(0.000716564 0.000785622 7.7392e-18)
(-1.05339e-06 4.59223e-05 -1.00427e-19)
(-0.000552241 -0.00119721 1.99078e-17)
(-0.00391388 0.00108531 -7.92145e-18)
(2.85473e-05 0.000149657 4.89438e-18)
(3.26095e-05 0.000101667 -7.95748e-19)
(-0.0108404 0.000227789 6.74473e-18)
(0.00110972 0.000666407 4.09189e-17)
(6.76313e-05 -0.000328397 -4.00962e-17)
(-5.02134e-07 -3.72983e-06 -2.18015e-18)
(0.0014077 -0.000841303 -4.1671e-17)
(-2.79897e-05 -0.00047681 -3.14087e-17)
(-0.00588009 -0.000254125 5.38472e-17)
(3.9382e-05 1.26227e-05 5.48262e-18)
(-0.000647656 0.000154584 -1.87858e-17)
(-0.00184948 -0.00232413 2.53442e-17)
(-1.82159e-05 0.000410887 -1.37131e-17)
(-4.7919e-06 -7.27762e-06 3.96317e-19)
(-5.21113e-06 9.71983e-05 -4.82645e-19)
(0.000545113 -2.53059e-05 -4.36708e-18)
(-0.00118645 -0.00268183 -3.767e-17)
(1.44894e-05 1.72571e-06 8.84157e-19)
(-4.42055e-06 -9.21351e-06 4.44343e-19)
(-5.77457e-06 5.90122e-06 4.58832e-19)
(-5.4029e-06 4.82432e-06 2.24366e-19)
(-0.0018229 -0.00108364 -1.10332e-17)
(-0.00129879 -0.00335981 1.32464e-17)
(-1.55729e-05 0.000379845 8.30927e-18)
(0.00141672 0.000583043 -3.62488e-17)
(-6.44919e-06 8.38339e-09 -9.35995e-21)
(-5.34859e-06 6.82575e-06 -4.33793e-19)
(-0.000685864 -0.000591297 -6.24576e-18)
(-0.00188267 -0.00293606 -1.11068e-17)
(4.38277e-05 1.35989e-05 -9.19306e-18)
(3.96782e-05 5.04565e-05 -2.32155e-18)
(-6.65702e-06 6.77251e-05 -2.58797e-18)
(8.77134e-07 6.931e-05 4.88495e-19)
(-0.0055811 -0.000282351 1.12806e-17)
(-0.0014618 0.000300937 -5.15906e-17)
(-1.16645e-05 -4.95101e-05 -2.3898e-18)
(-2.55409e-06 7.02638e-05 -1.74354e-18)
(0.00461384 0.000139819 1.4231e-17)
(0.000284132 0.000484118 -7.33148e-19)
(1.77177e-05 0.000228613 1.59278e-17)
(-1.06883e-05 -7.65604e-06 -1.95585e-18)
(1.31103e-05 0.000147596 -6.81744e-20)
(1.17712e-05 0.00016275 -4.0622e-18)
(-0.00069051 0.000575824 -2.27235e-17)
(-0.000722792 1.18309e-06 -8.59788e-18)
(0.00131356 0.000715473 -7.52456e-17)
(-0.000231984 -0.00154801 -5.67434e-18)
(-0.000984864 -0.000101155 1.36801e-18)
(-0.00212689 -0.00325635 -8.55219e-18)
(0.000404593 0.000182729 -2.07531e-18)
(-4.61479e-06 2.61787e-05 1.0775e-18)
(0.00173251 -0.000851685 -3.1014e-17)
(1.66055e-06 6.46594e-05 -1.56355e-18)
(-1.50145e-05 0.000149822 -2.13345e-18)
(0.000144874 0.000129923 9.79757e-18)
(5.46752e-05 -0.00371403 1.48847e-17)
(-0.000341545 0.00022686 3.49188e-18)
(-4.91728e-06 1.59418e-06 2.64839e-19)
(-0.000636344 0.00106904 -2.81952e-17)
(0.000714072 -0.000195119 1.22104e-17)
(-0.000170285 -0.00060386 -5.07227e-17)
(-0.000939922 -0.000173986 -1.3269e-17)
(-0.000117274 7.40521e-05 5.63533e-17)
(-8.00855e-05 0.000303992 1.43307e-17)
(-6.44814e-06 -8.30655e-05 -1.52741e-18)
(-0.000777541 -0.00264344 -2.14271e-17)
(-0.00050935 0.00105652 -1.18023e-17)
(-0.00367236 0.00325474 -4.70117e-18)
(4.04346e-06 0.000114744 -7.92004e-20)
(3.39309e-05 3.30365e-05 -1.0946e-17)
(0.00145537 0.000560353 2.67068e-17)
(0.00321081 -2.24098e-05 -1.22418e-17)
(-0.00120689 -0.000424594 1.10727e-17)
(-0.000502049 0.000124333 -4.79427e-19)
(0.000145638 0.000742994 -4.01079e-17)
(-3.00442e-05 0.000152589 -4.27933e-18)
(3.79872e-05 9.06646e-05 -1.83875e-19)
(-8.36731e-06 -7.26715e-06 1.60195e-18)
(-0.000240225 6.6119e-05 1.80628e-17)
(-0.000161912 -0.000183317 -1.03171e-17)
(3.72077e-06 -2.41948e-05 -2.19632e-18)
(-0.000294774 0.000277119 -9.27316e-18)
(-0.000119203 -0.000280292 -4.51009e-17)
(-0.00375373 0.00330502 -3.58136e-18)
(3.16274e-05 -0.00032276 2.71673e-17)
(1.31406e-05 0.00015491 1.15162e-18)
(-0.000160114 0.00178825 5.19841e-18)
(-0.00438784 0.00127043 9.95824e-18)
(-4.19245e-05 0.000183145 3.55718e-19)
(-1.01957e-05 -1.97482e-05 -7.82961e-18)
(-0.00013411 -0.000686703 1.03356e-17)
(0.00101549 -0.0032529 2.31115e-17)
(-0.00123874 -0.000520029 -1.02027e-17)
(0.00148476 0.000339444 6.30964e-17)
(1.39874e-05 -2.23462e-06 -1.69942e-18)
(-0.00662268 0.000496072 -1.62358e-18)
(0.000611232 2.57256e-05 6.0414e-19)
(-4.65872e-06 9.54284e-07 4.51069e-19)
(6.73326e-05 6.06927e-05 8.85667e-18)
(-0.000259813 0.00100783 -1.21512e-17)
(-5.72304e-05 2.7547e-05 -1.41912e-17)
(0.00057239 -0.000143022 -6.92477e-18)
(-0.00927389 0.00137845 7.18012e-18)
(-0.000853874 -0.00121548 6.50653e-18)
(0.000278212 0.000419408 -9.57758e-18)
(-0.000709444 -0.00276427 -4.85903e-18)
(5.1889e-05 3.92386e-05 1.9421e-18)
(0.00392443 -0.000317062 -9.88399e-19)
(-3.87932e-06 -4.60661e-05 3.86029e-18)
(-1.18679e-05 -4.88346e-05 2.63677e-18)
(-0.00392325 0.00406957 1.67055e-17)
(0.000925471 -0.00321383 2.3109e-17)
(-0.000123779 -0.000441449 7.96399e-17)
(5.34019e-05 3.74742e-05 5.90876e-19)
(-2.51259e-07 0.000129424 -2.27432e-18)
(-3.16597e-06 6.56164e-05 -1.51367e-18)
(0.000479652 0.000339051 -4.34619e-18)
(-4.49409e-06 -0.000501916 -1.47147e-17)
(0.00162438 -0.000179701 -1.61826e-17)
(3.96655e-05 8.68432e-05 -5.38674e-18)
(0.00135289 0.00166479 -5.47401e-18)
(-0.00038197 0.000222994 1.08171e-17)
(-3.62551e-07 4.85281e-05 -2.09737e-19)
(-0.00136536 0.000574518 -1.22411e-17)
(0.00149746 -0.000257338 8.00808e-18)
(0.00473585 -0.00219235 -6.2833e-18)
(-7.36588e-06 -4.154e-06 9.63556e-19)
(-0.0010343 -0.00105716 -6.45339e-18)
(5.42463e-05 3.29706e-05 -2.42868e-19)
(-0.000611021 0.000113568 4.25303e-17)
(0.000228405 0.000304498 -3.83468e-17)
(-0.000323983 0.000247083 -2.48923e-18)
(3.61171e-05 3.07562e-05 1.43204e-17)
(-6.24227e-06 -2.5476e-06 2.3092e-20)
(3.3869e-05 -4.15405e-06 2.07615e-18)
(3.74364e-05 7.61568e-05 -4.41934e-19)
(-0.000467868 0.000155829 -3.25033e-19)
(-9.29408e-06 4.96389e-05 -2.55824e-18)
(0.001438 -0.00121093 -1.2996e-16)
(-0.000589976 -0.000805911 1.42601e-17)
(-0.000326095 0.000422726 1.22721e-17)
(-6.51058e-06 -4.02388e-06 -5.63047e-21)
(-0.000501312 -0.00127706 1.1751e-18)
(-0.000139492 -0.000456883 -4.35377e-17)
(0.00256006 0.00471661 1.1366e-17)
(6.81983e-05 3.29092e-05 -4.76887e-18)
(-1.92421e-05 5.79607e-05 -2.10861e-17)
(-4.22579e-06 -8.80016e-06 6.73368e-19)
(0.000275131 0.000247224 5.8443e-19)
(4.65284e-05 5.03392e-05 -8.92424e-19)
(-0.00198479 -0.00241297 -1.99505e-17)
(-3.26166e-06 -5.7503e-05 -2.08964e-18)
(-0.00126497 0.00108183 3.73615e-17)
(0.000240959 0.00024625 -7.25357e-19)
(0.00123028 0.00243215 -1.69342e-17)
(0.000381311 0.000334751 9.79461e-18)
(-0.000305652 -0.0014372 -1.13606e-17)
(-0.000315576 0.000292146 1.85872e-18)
(-5.49667e-06 8.95183e-05 -6.19859e-19)
(0.00367452 -0.000270844 5.67121e-18)
(-0.0018709 -0.000539323 1.65119e-17)
(-8.32231e-06 3.19297e-05 1.60689e-18)
(0.00014897 0.000127511 -1.68566e-17)
(-0.0033858 -8.74526e-05 3.6956e-18)
(0.00128375 0.000294645 -1.15455e-17)
(-0.00129929 0.00015873 -2.71773e-17)
(-2.01194e-06 -5.564e-06 1.67775e-18)
(3.36281e-05 9.69903e-05 -6.93341e-20)
(-0.000467486 0.000914366 -3.84756e-17)
(0.000205175 0.000144498 1.59881e-18)
(-0.000373106 -0.000245554 -2.51213e-17)
(0.0004032 0.000884452 2.67566e-17)
(3.50128e-05 -2.72555e-06 6.1701e-20)
(3.13129e-05 0.000684755 3.42388e-18)
(-0.00838124 0.00435322 1.04369e-17)
(7.05716e-05 3.8197e-05 -1.81185e-18)
(0.000160139 6.92687e-05 -5.97657e-19)
(-6.95345e-06 8.68753e-06 5.56448e-19)
(-0.00280717 0.000528465 -8.86358e-18)
(-5.51336e-07 -2.37439e-05 1.25219e-18)
(-3.25216e-05 0.000142861 -6.34948e-19)
(-0.00413226 1.30127e-05 -2.28965e-17)
(-1.90839e-05 0.000129493 -9.90485e-19)
(0.00109098 -0.00309869 3.38882e-18)
(5.10045e-05 7.43689e-05 -7.82783e-19)
(-6.39892e-05 1.3936e-05 3.43718e-17)
(-6.34356e-06 8.03501e-06 -3.86839e-19)
(-0.000170273 0.000258388 -2.80993e-18)
(-1.03183e-05 6.06946e-05 -2.40258e-18)
(0.000228185 -0.000106445 2.89563e-18)
(-5.32393e-06 -7.37077e-07 2.16964e-20)
(-0.000241201 0.000424757 1.49382e-17)
(0.0001025 6.78464e-05 -1.28938e-18)
(-0.00203787 -0.00130834 -1.10636e-17)
(-0.000410581 -0.000735028 7.66979e-18)
(-0.00196863 -0.00287931 -1.02653e-17)
(-7.0603e-06 2.02161e-06 -1.34815e-19)
(-4.9463e-06 -7.65251e-05 -2.3579e-19)
(0.000372314 0.000157696 -1.13155e-17)
(0.000174562 0.000142209 -4.16542e-18)
(0.000832456 0.000311777 -3.12158e-17)
(-0.000902737 -0.00294057 1.47163e-17)
(-0.000152522 -0.000102116 2.70858e-17)
(-4.81174e-06 7.11916e-05 4.70754e-18)
(0.000580435 -0.00210825 -1.57588e-17)
(-0.000100565 -0.000453215 -2.43706e-18)
(0.00441695 -0.00181756 5.01349e-18)
(0.00164417 -0.00101221 7.37883e-17)
(-0.000229096 6.59171e-05 -2.20467e-17)
(-0.0091123 0.000217178 2.93927e-18)
(5.42358e-05 0.000202338 -3.15941e-18)
(0.00047118 0.000327544 -5.86242e-19)
(0.000164826 -0.00115076 2.25566e-17)
(-0.000538855 -6.70977e-05 1.07042e-18)
(-0.000127222 -9.68028e-05 -1.968e-17)
(-0.00013501 -0.000481621 -7.69791e-17)
(-7.63788e-05 -0.000118916 -3.4571e-18)
(0.000168051 0.000102747 -6.94216e-19)
(-0.000317332 0.00106465 -9.90271e-18)
(-2.92355e-05 0.00018046 1.79773e-18)
(4.76797e-05 1.41161e-05 -1.8842e-18)
(0.000264362 0.000244045 4.41337e-18)
(0.000129938 0.000172836 2.32046e-17)
(2.05587e-05 0.000157936 2.3143e-18)
(-1.00481e-05 6.41404e-05 -7.21569e-18)
(-4.95208e-06 -1.27226e-07 -4.09733e-20)
(-0.000367518 0.00034363 -3.44435e-18)
(8.97956e-05 6.6611e-05 7.68775e-18)
(-0.000363983 -0.000289412 4.24595e-17)
(-6.70169e-06 7.36926e-05 1.08247e-18)
(-9.00994e-06 6.6004e-05 -3.9854e-18)
(-1.21567e-07 -1.86287e-05 -3.14447e-18)
(8.91211e-06 0.000150597 -6.22345e-19)
(2.25474e-05 1.38484e-05 4.99077e-18)
(2.46063e-05 0.000142064 1.3029e-17)
(-9.2644e-06 1.12268e-05 -6.72949e-19)
(-0.00074346 -0.00109269 -2.79939e-17)
(0.000701099 0.000364637 -6.26101e-18)
(0.00014567 -0.000468451 2.2184e-17)
(-2.06122e-06 1.74274e-05 -2.9454e-19)
(-1.94092e-06 -2.7951e-05 9.87929e-19)
(-0.000140852 -2.92258e-05 4.67503e-19)
(0.000202366 -0.000185288 -2.9558e-17)
(7.6588e-07 -1.65807e-05 8.72468e-20)
(-0.00393507 -0.00018799 2.09896e-17)
(4.90428e-05 0.000466781 -4.88571e-19)
(-0.00875462 -9.27371e-05 -6.80744e-18)