/*--------------------------------*- C++ -*----------------------------------*\
| =========                 |                                                 |
| \\      /  F ield         | OpenFOAM: The Open Source CFD Toolbox           |
|  \\    /   O peration     | Version:  v2012                                 |
|   \\  /    A nd           | Website:  www.openfoam.com                      |
|    \\/     M anipulation  |                                                 |
\*---------------------------------------------------------------------------*/
FoamFile
{
    version     2.0;
    format      ascii;
    class       surfaceScalarField;
    location    "700";
    object      meshPhi;
}
// * * * * * * * * * * * * * * * * * * * * * * * * * * * * * * * * * * * * * //

dimensions      [0 3 -1 0 0 0 0];
oriented        oriented;


internalField   nonuniform List<scalar> 
20673
(
0.000130107
8.21084e-05
-0.000212119
-0.000141193
-0.000174695
0.000317333
0.000105467
-3.31673e-05
-7.22993e-05
0.00032465
2.9482e-05
-0.000353139
-0.000390219
0.000402245
-1.02324e-05
-8.99882e-05
9.31167e-05
-3.12837e-06
7.33316e-05
2.72563e-05
-0.000100587
-8.86713e-05
7.12539e-05
1.74177e-05
-8.46684e-05
1.5189e-05
6.94798e-05
-0.000166538
3.46523e-05
0.000131924
-0.00011987
-5.42752e-06
0.000125306
-0.000167351
0.000175249
-7.85244e-06
0.000237759
4.87944e-05
-7.72488e-05
2.84544e-05
-0.000182755
0.000308821
-0.000125819
0.000126594
0.000159531
-0.000285748
0.00038953
-0.000126329
-0.000262037
-0.000177642
8.25646e-06
0.000169441
3.69456e-05
-0.000204245
0.000237542
-0.000241685
1.17365e-05
6.67456e-05
-1.76821e-06
-6.39467e-05
-7.80528e-06
8.11373e-05
-1.52016e-05
0.000288986
-0.000268922
-4.366e-05
-4.50106e-05
-0.000427624
0.000401414
2.85675e-05
-0.000101111
5.99318e-05
4.11792e-05
-7.35972e-05
-9.43678e-05
0.000167969
2.74913e-05
-0.000116694
8.92074e-05
5.24221e-05
-0.000102926
5.05053e-05
1.11049e-05
-0.000137958
0.000126874
9.98641e-05
0.000103577
-0.000203355
0.000143125
0.000106378
-0.000249254
-0.000159775
-3.12625e-05
0.000191058
-6.15957e-05
0.000254155
-0.000192558
0.000167743
0.000232117
-0.000398621
-6.44795e-05
-2.77379e-05
9.22199e-05
0.000250172
-0.000260578
-8.13113e-05
6.41413e-05
1.71701e-05
-0.000259183
0.000325426
-6.12682e-05
6.49718e-05
-3.70361e-06
3.58832e-05
3.58252e-05
-4.67068e-05
2.92049e-06
2.19442e-05
-2.41336e-05
0.000277314
5.82778e-05
-0.000319295
0.000142081
-0.00013155
-1.05277e-05
-0.000288239
0.000380284
-9.00821e-05
-0.000254784
0.000239011
1.57936e-05
3.69918e-05
-0.000214568
0.00019376
-0.000111092
-8.263e-05
7.65175e-05
-6.72583e-05
-9.25917e-06
-5.06951e-06
-4.29751e-05
6.49169e-05
-0.000306605
0.000127411
0.000179507
-0.000246948
0.000364619
-0.000117434
8.34389e-05
-6.92136e-06
-0.000240011
0.00017842
0.000302095
8.8572e-05
-0.000161054
-9.45127e-05
0.000255903
3.28897e-05
-0.000152749
0.000377451
8.9758e-05
-0.000465314
-0.000329642
0.000270827
5.93722e-05
5.87864e-05
-0.000345095
-9.79135e-05
8.87177e-05
9.19667e-06
-0.000391715
0.00025215
-1.88579e-05
0.000268743
-2.39455e-05
-0.000101352
1.13638e-05
-2.75666e-05
-6.36355e-05
9.12031e-05
2.34178e-05
-0.000385275
-0.000369252
-3.98135e-05
-9.34189e-05
-1.68288e-05
0.000110255
-0.000167783
-3.21216e-05
0.000200014
-4.14191e-06
-0.000384585
-7.4956e-05
-9.71197e-06
8.10738e-05
-5.46929e-05
-2.63808e-05
-0.000440023
1.50769e-05
7.01709e-05
-2.32544e-06
-6.78455e-05
0.000194725
-0.000102047
-9.26375e-05
5.85813e-05
-6.55013e-05
6.92002e-06
-0.000390297
0.000341521
4.99643e-05
7.76774e-05
2.5613e-05
-0.00010329
4.20817e-06
0.000140171
-0.000143313
0.000192693
-3.9437e-05
-0.000149974
-0.000323096
9.13404e-05
-9.34117e-05
2.07144e-06
-5.53037e-05
-2.60075e-05
-9.0847e-05
8.39882e-05
6.85904e-06
-0.000265127
-0.000123913
0.000214299
-0.000202196
-7.54827e-06
4.45904e-05
-7.21562e-05
-0.000117398
-0.000188826
1.53134e-05
0.000275364
-8.21426e-05
6.30084e-05
1.91342e-05
6.26111e-05
-0.000199217
0.000136635
0.000460611
-0.00015151
-0.000305387
-0.000140971
0.000329282
-0.000187849
-3.5061e-05
7.9652e-05
-7.55279e-05
-2.21228e-05
9.76507e-05
-0.000135598
1.6083e-05
0.000119528
-9.3136e-05
0.000186258
-9.30809e-05
-0.00014597
0.000135646
1.03362e-05
7.85702e-05
6.73687e-05
-0.000145936
-0.000193079
-7.02088e-05
0.000277328
0.000120272
-0.000214101
9.38278e-05
0.000103911
3.81747e-05
-0.000154107
0.000314819
-0.000159888
0.000232638
-0.000373778
0.000148308
4.32167e-05
4.93417e-05
-9.25578e-05
-0.000120846
0.000107776
1.30722e-05
0.000130912
6.28791e-05
-0.000412038
0.000286972
-0.00010494
-8.23786e-05
0.00018739
-8.56956e-05
7.58501e-05
9.84565e-06
-8.72124e-05
2.59441e-05
-0.000146452
6.15243e-06
0.000140324
-3.22248e-05
7.54419e-05
5.79907e-05
-0.000261928
0.000203975
8.17844e-05
-5.26741e-05
-2.91103e-05
-0.00031431
-8.86075e-05
0.000407033
6.50993e-06
7.10386e-05
-7.75485e-05
5.95244e-05
1.33388e-05
-7.28632e-05
0.000254796
-5.53992e-05
-0.000199387
-6.11128e-05
6.46642e-05
3.89046e-05
-0.000132316
7.40799e-05
-4.71659e-05
-2.6914e-05
0.000154745
-0.000127248
-3.15261e-05
6.69933e-05
-1.85041e-05
0.000197552
-0.000338009
-0.000356312
0.000286003
7.21579e-05
2.29086e-05
-3.47003e-05
0.000189173
4.80777e-05
-0.000211436
1.75888e-05
-7.43721e-05
1.43958e-05
5.99763e-05
0.00031289
-0.000254845
0.000351369
3.07559e-05
6.75167e-05
-2.56853e-08
5.48194e-06
-8.85498e-05
8.30704e-05
-8.90188e-05
4.53594e-05
0.000203592
-7.33909e-05
-3.21643e-05
0.000110736
-0.000389764
4.04273e-06
0.000204779
5.00332e-05
8.93565e-05
2.61793e-05
-0.000115532
-0.000106534
0.000398177
-0.000286125
-0.00035445
-9.97244e-06
0.000364752
4.43161e-07
0.000109568
-0.000110008
-0.000362551
-6.831e-06
-7.09531e-05
0.000105959
-3.50048e-05
6.87586e-05
-0.000108509
3.97521e-05
-0.000386672
0.000139979
-9.10545e-05
0.000376856
-0.000279734
-0.000143761
-0.000102465
0.000246483
-0.000171123
0.000175803
-4.62666e-06
3.95345e-05
4.22501e-05
-0.000205372
8.0405e-05
0.000124994
0.000198315
-0.000199183
9.28664e-07
0.000113667
0.000162847
-0.000276181
-9.79876e-05
2.08599e-05
7.71279e-05
7.45324e-05
-0.000242183
0.000121169
-4.2634e-05
-7.85323e-05
7.14759e-05
-1.28946e-05
-8.09456e-05
8.643e-05
-0.000243432
-3.06687e-05
0.00027426
0.000131503
-0.000192108
6.06012e-05
0.000140284
-0.000155778
1.65805e-05
2.04082e-05
-0.000155991
3.46514e-05
-0.000181071
-0.000143808
-2.14961e-06
0.000150275
-0.0003036
-9.54643e-05
-7.57915e-05
0.000171302
-0.000445459
0.000377242
7.1447e-05
0.000200396
-8.01246e-05
0.000101379
0.000101631
-0.000202934
-1.62979e-05
6.67923e-05
-5.04943e-05
-0.00010359
0.000159339
-5.57262e-05
-0.000391006
0.000223674
0.000168224
4.79879e-05
6.07664e-05
-0.000108753
-0.000187901
0.000163456
2.44877e-05
6.04703e-06
-8.0419e-05
7.34081e-05
-6.68981e-05
2.95748e-05
-0.000100527
-0.000392432
3.08219e-05
0.00036477
0.000172453
-0.000109817
0.000225693
-0.000125735
0.00028658
-0.000387651
0.000244455
-2.59828e-05
-8.98124e-06
0.000203117
-0.000194027
-6.27249e-05
-3.83851e-05
-0.00012575
5.25811e-05
7.31752e-05
-1.38068e-05
-8.41805e-05
-0.000132372
-6.67557e-05
0.000199234
-0.000101375
-5.41292e-06
0.000106798
-0.00013775
8.00312e-05
5.77218e-05
-7.09259e-05
-1.99207e-05
-1.52633e-05
-9.03832e-05
0.000105652
8.56432e-05
-0.000353844
0.000273159
0.00012069
-0.000121073
3.8344e-07
8.69782e-05
-0.00016057
1.36676e-05
1.79826e-05
0.000227439
0.000236261
0.000109664
-1.38985e-05
-9.57613e-05
-1.97742e-05
-5.58304e-05
7.56056e-05
-0.000316923
0.000214491
0.000102851
4.12895e-05
-3.36158e-05
0.000156775
-0.000209969
5.32575e-05
2.72422e-05
-0.000198306
2.61676e-05
5.49061e-05
7.12612e-05
3.29189e-05
-0.000104177
-0.000206323
0.000375111
0.000388785
-9.71583e-06
-0.000198579
0.000105487
0.000109857
-6.77828e-05
-4.20739e-05
3.3741e-05
-0.00038764
5.42675e-05
3.94821e-05
-9.37492e-05
6.32238e-05
-8.52748e-05
2.2051e-05
-0.000156585
5.52239e-05
-0.000142794
0.000382226
6.90067e-05
-0.000107609
3.86024e-05
-0.000105486
0.000197657
-9.21123e-05
7.37101e-05
-7.77963e-05
4.08622e-06
-5.54958e-06
-0.00028663
0.000295192
-7.995e-05
-1.79623e-05
8.48619e-05
-0.000473622
0.000155362
-8.4445e-05
-7.0895e-05
8.47534e-05
-2.85583e-05
-7.58152e-05
7.00484e-05
5.76685e-06
2.95067e-05
5.32618e-05
-8.27681e-05
0.000289055
-0.000162129
2.26857e-05
9.03166e-05
-0.000113
0.000262425
-0.000148469
0.000289423
-0.0004246
-9.6242e-05
3.17649e-05
5.56235e-05
-0.000159191
-0.00020399
7.17289e-05
-2.3058e-05
9.23439e-05
-6.92851e-05
2.04959e-06
6.11743e-05
7.15185e-05
0.000116547
-0.000168878
-8.96816e-05
0.000233035
-2.59377e-05
-5.62048e-05
-6.81628e-05
7.56688e-05
-7.5059e-06
0.000140439
2.72768e-06
-0.000218395
-0.000142692
0.000369554
1.0708e-05
-6.7563e-05
-3.78171e-05
-8.24866e-05
0.000120314
-1.02767e-05
-4.72058e-08
1.19763e-05
0.000100307
3.27185e-05
-0.000133021
8.44627e-05
7.32329e-05
-0.000157671
-2.55118e-05
0.000157011
-0.000166149
0.000209856
-4.35846e-05
-1.02478e-05
-0.000143036
0.000104272
-0.000208997
0.000104785
-4.37589e-05
-2.38555e-05
6.76144e-05
-0.000313553
-5.60825e-05
0.000372393
0.000168565
-3.19516e-05
-0.000136594
0.000124412
-0.000120584
-3.82735e-06
-0.000305522
-4.87431e-05
-0.000320286
0.000411701
-0.000199002
0.000119963
7.90773e-05
-8.85756e-05
5.47973e-05
3.37784e-05
-7.54828e-05
-0.000129861
-0.000163238
0.000154343
-0.00026423
8.17066e-05
2.14135e-05
-2.05029e-05
4.83593e-07
5.05234e-05
2.35564e-05
0.000113799
-7.6489e-05
-3.73089e-05
-0.000131505
2.78852e-05
0.000103623
-8.12249e-05
0.000377529
8.38581e-05
-5.57758e-05
-2.80823e-05
-5.7287e-05
-1.92026e-05
7.64897e-05
9.53596e-05
2.58109e-05
-2.61532e-06
8.0293e-05
7.54819e-05
0.000119275
0.00018484
-5.71977e-05
3.30188e-06
7.69797e-05
0.000122807
-0.000192709
6.99598e-05
-8.55451e-05
4.59887e-05
3.95564e-05
-0.000114552
-2.46687e-05
0.000139236
-0.000229292
-9.97718e-05
-2.89473e-05
0.000100211
0.000126236
-0.000218397
-0.00016535
0.000112933
7.84629e-05
-5.98016e-05
-2.57876e-05
8.55905e-05
0.000231622
-0.000232735
8.51285e-06
-4.34329e-05
9.14218e-05
-0.000170565
-0.000145853
-8.26627e-06
7.75829e-07
-0.000304326
0.00016214
0.000142404
0.000148489
4.98831e-05
-0.000100826
-9.12907e-05
9.65008e-05
3.80929e-06
-0.000255659
9.44829e-05
0.000161295
-4.2827e-05
0.000339798
-0.000294681
-8.14527e-05
-4.14083e-05
0.000122865
-8.19879e-05
5.89305e-05
5.54361e-05
5.83636e-05
0.000326262
-0.000328365
6.22286e-05
-0.000121905
5.96778e-05
0.000260053
-0.000301639
4.12142e-05
-0.000365219
0.000324798
0.000139188
-0.000449088
-1.94685e-05
8.82282e-05
8.63686e-05
-3.54401e-05
-3.69251e-05
9.06913e-05
6.46886e-05
7.69478e-05
-0.000242955
-0.000319613
-0.000122267
0.000174931
-1.81028e-05
0.000230228
-0.000372088
0.000142635
-2.08573e-06
4.12953e-05
-3.92096e-05
-0.000138128
-4.97254e-05
-0.000104573
-9.46098e-05
-0.000425413
0.000373162
5.64304e-05
-0.000424604
0.000106079
-9.31665e-05
4.66853e-05
4.64812e-05
1.94395e-05
4.91981e-05
-6.86376e-05
0.00028259
-0.000367686
-5.60993e-05
7.38643e-06
7.00508e-05
4.42694e-05
-0.00010407
-0.000332989
0.000483572
-0.000147058
-8.30131e-05
2.83202e-05
-0.000462218
4.17849e-05
-1.01436e-05
-6.56716e-05
-0.000172063
-0.000175502
0.000349156
3.96037e-05
-0.000126046
8.64467e-05
-3.15978e-05
-0.000196612
0.000228401
-6.17394e-05
7.06428e-05
-8.90356e-06
-0.000325583
8.23546e-05
-0.000141081
6.01381e-05
1.11792e-05
6.82051e-05
-7.93837e-05
-7.59043e-05
-0.000228182
-0.000115702
7.78934e-05
-9.91108e-05
6.9253e-06
9.21878e-05
-0.000394571
0.000178212
0.000217352
-8.5794e-05
6.34867e-05
2.23074e-05
3.75284e-05
8.31627e-05
-6.06706e-05
3.38354e-06
0.000121535
0.000150999
-0.000272473
-5.45434e-05
6.76524e-05
-1.3109e-05
-0.000185637
0.000229671
-4.38072e-05
8.9359e-05
-2.32031e-05
-6.61557e-05
0.000107334
-9.61542e-05
-0.000166049
6.59664e-05
0.000100092
-3.91547e-05
-0.000126884
2.66679e-05
7.87999e-05
1.25353e-05
0.000161449
-0.000172644
-0.000104791
0.000206239
-6.42649e-05
-2.14307e-05
-0.000383031
7.8903e-05
0.000304917
0.000195424
-0.000329536
0.000134625
-3.99061e-05
-3.73427e-05
0.000109877
-2.08659e-07
-0.000335162
0.000444519
-0.000108125
-5.94264e-05
-7.83195e-05
8.91775e-05
-3.67544e-05
-3.18425e-05
0.000261404
-0.000214054
-1.48511e-05
7.43755e-05
-2.12294e-05
0.000105346
-8.41128e-05
0.000242454
-3.20212e-06
-0.000124974
-0.000267092
0.000399222
0.00026448
-5.87502e-06
0.000268069
-0.00035346
-0.00011993
3.84809e-05
6.77124e-05
2.82101e-05
-9.59215e-05
-8.00935e-05
0.000107643
-2.75495e-05
-2.71959e-05
-6.59705e-05
-0.000318103
0.000467089
-0.000146227
0.000137037
3.15437e-05
-3.57498e-05
-3.1063e-05
6.68128e-05
-0.000224782
2.53181e-05
0.000199559
8.15241e-05
-3.32763e-05
-5.22687e-05
7.88489e-05
-0.00031483
0.000138429
0.000189559
-1.38716e-05
-0.000117629
-0.000351429
6.0949e-05
0.000297529
-0.000103135
2.31861e-05
0.000335018
-0.000274358
-6.87002e-05
6.96058e-06
0.000159144
-7.46587e-05
0.000311306
-0.00032895
1.83751e-05
0.000141256
4.02919e-05
-0.00017986
-0.000103207
-9.53214e-05
0.000115078
5.73944e-05
-0.000121376
-2.65835e-05
0.000147987
-1.7754e-05
6.24517e-05
-4.46976e-05
3.91984e-05
5.01607e-05
7.96632e-06
6.57437e-05
0.000193789
-8.94685e-05
-0.000163905
-2.5989e-06
-0.000282774
7.15865e-05
-1.91013e-05
-4.90614e-05
6.22577e-05
-9.26109e-05
3.03535e-05
0.00050938
-0.000194481
-0.000313173
-8.34106e-05
-5.76667e-05
0.000427929
-4.9283e-05
-0.000376598
0.000129133
-8.90828e-05
-4.0045e-05
-0.000338234
0.000167665
-0.00014119
0.000155168
9.78994e-05
-0.000246186
0.000148785
5.23001e-05
-8.37608e-05
3.1461e-05
0.000278018
-0.000179538
-4.45152e-05
-4.40604e-05
-6.95181e-05
8.06852e-05
-1.1167e-05
-9.34113e-05
6.19917e-06
8.72175e-05
-0.0001147
8.46985e-05
3.00018e-05
-0.000249064
-0.000144547
-2.24538e-05
9.14609e-05
-4.64949e-05
9.40901e-05
-0.000357472
0.00026922
-1.09651e-05
2.48953e-06
-0.000384368
-0.000417432
3.56254e-05
0.000383227
0.000111654
-0.000100531
2.61239e-05
-1.86205e-06
-0.000356098
-0.000103413
0.000461417
1.26733e-05
-0.000358323
-9.01092e-05
-2.98158e-05
0.000103657
-9.84651e-05
2.54094e-05
-7.99528e-05
-0.000103124
5.88902e-05
4.42343e-05
7.65656e-05
-7.11321e-05
-5.43355e-06
8.57678e-05
-0.000101026
-8.66554e-05
6.24655e-05
2.419e-05
6.91064e-05
-7.1077e-05
1.97063e-06
-4.86638e-06
-0.000219811
8.76577e-05
-0.000402698
0.000103926
-0.000140698
3.67826e-05
-2.01572e-05
-0.000238513
-0.000120796
-0.000113297
0.00023429
0.000329699
-0.000239744
9.72882e-05
2.96437e-05
8.02142e-05
-4.92917e-05
-5.38314e-05
-0.000139919
-0.000134622
0.000274831
-0.000102273
0.000140851
-3.85613e-05
-0.000195248
0.000316843
0.000102775
0.000223237
-0.00018631
6.49672e-05
-0.000325467
1.12839e-05
0.000314884
-0.000102817
-9.8737e-07
0.000103807
-0.000306559
-0.00010416
4.46785e-05
5.2492e-05
-5.857e-05
-2.4443e-05
-6.6598e-05
7.26451e-05
7.4568e-06
-7.40548e-05
0.000131247
-0.000122255
-8.97661e-06
1.16766e-05
6.4889e-05
-5.2621e-05
-3.31729e-05
-8.08513e-05
3.44555e-05
4.63958e-05
5.40494e-05
-8.09776e-05
2.69281e-05
-0.000201757
0.000179506
4.38695e-05
9.76324e-05
-0.0001853
8.77153e-05
1.447e-05
-0.00033925
-9.1276e-05
-0.000301698
0.000394236
-2.01417e-05
0.000101808
-8.16633e-05
0.000159849
6.88183e-05
2.13337e-05
-6.21846e-05
-0.000198885
0.000122886
7.60442e-05
0.000241771
-0.000118339
-0.000123315
-2.0832e-05
-4.96759e-05
7.05079e-05
-0.000209858
0.000308509
0.000110171
-0.000151268
4.11121e-05
-8.05972e-05
6.61646e-05
1.44327e-05
-8.34586e-05
0.000113061
-2.95995e-05
7.36053e-05
-3.37602e-05
-3.9845e-05
0.000102921
0.000244878
0.000266
-1.32627e-05
5.42099e-05
-0.00012072
0.000195359
-5.67534e-05
-0.000242838
6.73373e-05
-0.000101439
3.41027e-05
1.15208e-05
-9.16142e-05
-0.000124475
-0.00013105
-8.41933e-05
2.60545e-05
5.8139e-05
-0.000295067
0.000134367
-0.000110254
0.000130675
-2.92115e-05
-5.16396e-05
-5.67754e-05
-5.1733e-05
-0.000155981
6.25795e-05
0.000110129
-2.07689e-05
-2.87398e-05
0.000138924
0.000161597
4.04194e-05
-0.000201966
-0.000134185
0.000122859
1.13359e-05
-0.000125863
-6.48002e-05
0.000190753
-0.000102903
-2.25902e-05
0.000125502
-1.00117e-05
0.000104842
-0.000192096
8.73278e-05
-0.000104193
0.000152449
-4.82351e-05
5.15239e-05
2.7977e-05
-5.2749e-05
-4.26785e-05
9.99083e-05
-5.72272e-05
0.000197542
-0.000300877
0.000103654
0.000202739
0.000243522
-0.000440273
0.000102777
-0.000223376
-1.4817e-05
-0.00033072
0.000346639
-7.38897e-05
5.30577e-05
-7.68019e-05
4.45776e-05
-0.000433674
0.000104272
-5.46613e-05
-8.46195e-05
7.04172e-05
-0.00010307
3.26536e-05
5.90606e-06
6.32004e-05
1.16821e-06
-1.82145e-05
3.96326e-05
3.39726e-05
-8.17467e-05
-0.000191723
0.000274446
2.05429e-05
9.38331e-05
-0.000114369
0.000508467
-0.000223537
-0.000281521
1.29095e-05
-6.34105e-05
5.05011e-05
-0.000118963
2.3552e-05
9.54131e-05
-0.000263569
0.000120061
6.16954e-05
-0.000297969
0.000237307
-5.18176e-05
-3.48377e-05
-3.39493e-05
-9.17939e-05
-3.73324e-05
-3.04249e-05
6.77573e-05
2.63916e-05
1.08236e-06
-8.01888e-05
3.07274e-05
4.94614e-05
7.13223e-05
4.95674e-05
-0.000103195
5.36289e-05
-0.000162071
0.00036979
7.41344e-05
9.85396e-06
4.30628e-05
-9.48965e-05
5.18341e-05
-0.000214808
1.63412e-05
0.000198561
-0.000370447
0.000252057
-0.000264274
-8.69863e-05
0.000352241
-0.000100788
0.000108573
2.05647e-05
0.000103688
-9.21018e-06
0.000140941
-0.00040051
4.47503e-05
8.86107e-05
-0.000119575
-8.55128e-05
0.000144357
7.11702e-05
1.26879e-05
-9.91035e-05
7.89647e-05
-0.000219571
5.08221e-05
8.25064e-05
-0.000133322
8.19487e-08
-3.7096e-05
-0.000247357
6.49481e-05
-0.000156493
5.42388e-05
6.63997e-06
-8.40112e-05
7.73715e-05
0.000141444
7.99826e-05
-0.000221288
0.000364595
1.54386e-05
-4.73446e-05
-0.000368008
0.000342119
-0.000357878
1.56269e-05
9.38382e-05
-8.48352e-05
1.39096e-05
0.000183731
-0.000201071
2.14448e-05
-0.000338612
0.000341217
-2.1317e-06
-0.000116684
-0.000220432
9.46692e-05
-0.000176338
0.000144881
0.000500425
-0.000254032
0.000301738
-8.75516e-05
-0.000213563
-0.000213082
-2.65816e-05
0.000239938
-0.000169646
6.5477e-05
-9.66507e-05
-2.45706e-06
0.000103408
-3.60696e-05
0.000140005
-1.04973e-05
0.000114707
-0.000104193
0.000101659
-6.87373e-05
-0.000179484
7.4941e-05
-8.86402e-05
-0.000283852
0.00037561
4.02851e-05
-8.40441e-05
1.14431e-05
-7.57761e-05
0.000271625
-0.000232068
0.000292241
-5.9525e-05
5.43736e-05
-9.70497e-05
-0.000154779
0.00013289
2.19066e-05
-9.01067e-05
4.98441e-05
5.67839e-05
-0.000102753
1.92979e-05
-0.000112906
-8.19077e-06
0.000121112
-4.97392e-05
6.90055e-05
-1.92662e-05
-0.000107048
9.65655e-05
-0.000239479
9.2331e-05
0.000147197
0.000156632
8.52411e-05
-0.000118108
0.000260878
-1.08057e-05
6.62423e-05
-6.31458e-05
-4.46504e-05
-3.41484e-05
7.87991e-05
-0.00038729
8.22935e-05
0.000208314
3.19366e-05
-0.000240049
-2.80757e-05
0.000110588
-8.25927e-05
4.93164e-05
-4.26866e-05
-2.49657e-05
8.91921e-05
9.71017e-05
0.00012379
7.46883e-06
0.000301233
-0.000141337
0.000164082
0.000111658
-0.00027527
0.000301914
0.000199888
0.000152547
-0.000161874
9.3468e-06
0.000104357
-0.000357956
9.36764e-05
-0.000199103
9.22493e-05
4.27959e-05
-8.74461e-05
-6.8224e-05
3.08916e-05
0.000339561
-0.000173966
-0.000165034
-0.000146303
3.60628e-05
6.64799e-06
-0.000125608
-0.000285059
0.000200706
8.45483e-05
0.000145972
-0.00040798
0.000262332
8.23021e-05
-3.58132e-05
-4.64898e-05
5.54495e-05
4.81178e-05
-0.000103566
-3.0465e-05
-5.83348e-05
8.88005e-05
-0.000136029
0.000119737
1.62991e-05
-1.46689e-05
0.000224274
4.87711e-05
-6.36221e-05
-0.000202789
-2.85246e-05
-3.99789e-05
-0.000171908
-4.94602e-05
0.000221544
0.000188824
-9.40179e-05
-9.47751e-05
6.16232e-05
-0.000221373
-0.000166838
2.8903e-05
5.57608e-05
-9.86891e-05
4.29287e-05
1.26436e-05
-0.000146817
0.000247682
-0.000130341
-0.000117183
-8.02976e-05
6.94927e-05
-4.3856e-05
-0.000239097
0.000283668
-1.85019e-05
7.25513e-05
0.000136557
5.73545e-06
0.000216051
-2.90952e-05
-3.46872e-05
9.69173e-05
-3.10456e-05
8.64958e-05
-9.0101e-05
0.000102546
-1.24452e-05
-0.000269992
0.000226809
-0.000212172
-0.00017777
-9.85032e-06
-0.000328193
0.000201312
-7.4981e-05
2.91256e-06
-6.55263e-05
-7.82689e-05
-0.000107018
0.000271551
-7.96385e-05
-7.63281e-05
9.45012e-05
0.000292196
0.000218984
-5.45204e-05
7.72075e-05
8.96295e-05
-0.00015514
-9.27524e-05
-4.10861e-05
0.000133842
0.000468412
-0.000190111
-0.000274884
0.000104385
-0.000121818
1.74428e-05
0.000327778
-4.9359e-06
-6.4582e-05
0.000166186
-0.000131494
-1.09867e-05
-0.000143773
1.42428e-05
0.000194247
0.000168853
-4.2467e-06
-0.000147886
0.00034536
-0.000431359
9.22115e-05
0.000360276
-7.25225e-05
0.000146221
-0.000131436
-1.47744e-05
-4.17669e-05
-0.000213002
-0.000137014
2.96895e-05
0.000107329
4.53514e-05
-6.31048e-05
7.99212e-05
-0.000175339
-0.000218312
0.000200926
-0.000152533
5.33318e-05
9.92115e-05
-9.98597e-06
-8.01152e-05
-3.81176e-05
-6.75687e-05
0.000105689
-0.000403538
9.28646e-05
-0.000161453
-7.32936e-05
0.000234801
0.000395892
-0.000247661
-0.000251531
0.000233182
1.86067e-05
0.000269042
2.17885e-06
7.81293e-05
-3.5066e-05
0.000144164
-2.23449e-06
7.05436e-05
0.000176737
-0.000267446
9.09849e-05
-0.000119849
0.000114429
2.77564e-05
-0.00014862
0.000120888
5.42504e-05
-7.73377e-05
2.30874e-05
-0.000137083
0.000138082
-9.80901e-07
-0.000387861
0.00012472
4.90118e-05
2.5496e-05
-7.45078e-05
3.38261e-05
-7.65127e-05
-9.53314e-05
-0.000298511
0.000395659
0.000108073
-0.000339471
6.27053e-05
5.39731e-05
-0.000116676
-0.000100961
-3.506e-05
3.2764e-05
-0.000147302
2.85397e-05
-2.52369e-05
1.36946e-06
0.000268302
-0.000205572
-2.25271e-05
-0.000103513
4.02217e-05
0.000271641
0.000156858
-0.000183408
-9.28143e-05
-0.000106139
-3.19741e-05
0.000382947
0.000148884
5.86822e-05
-0.000207505
5.91771e-05
6.93726e-07
0.000320569
-0.000318491
-0.000296712
0.000384384
-8.63187e-05
4.13756e-05
0.000110735
-0.00013757
-5.30489e-05
7.24884e-05
7.42075e-05
-6.1681e-06
0.000151044
-0.000290647
-6.60077e-05
4.97097e-05
-0.000313376
0.000152152
0.000161678
7.18654e-05
-0.00010291
0.000297076
-0.000133893
0.000123025
-0.000154272
0.000142876
0.000102977
-0.000188641
8.57072e-05
0.000404883
-0.000261857
0.000122604
-0.000205835
8.32811e-05
0.00013235
-1.20407e-05
-9.99472e-05
6.91096e-05
8.64458e-05
-0.000155536
0.000190368
-0.00027116
-1.18894e-05
-6.87076e-05
-7.39367e-05
3.63439e-05
3.75934e-05
6.48171e-05
-5.81769e-05
-1.36066e-05
6.28758e-05
0.000203513
-9.89589e-05
-8.04915e-05
-0.000126825
-5.37714e-05
0.000180664
7.33e-05
-2.92377e-05
-4.40623e-05
-3.85203e-05
-3.52983e-05
7.3819e-05
-0.000157712
0.000166022
-0.000320758
0.000455121
-0.000132506
2.99954e-05
-0.0001201
8.87118e-05
1.38343e-05
1.18113e-05
-0.000104561
-0.000107399
-2.96075e-05
-0.000100199
0.000192379
-9.21161e-05
6.71922e-05
-9.51627e-05
2.79708e-05
-3.36454e-05
-0.000145619
0.000179354
-0.000139436
-7.88352e-05
-0.000137346
6.49987e-05
7.23567e-05
9.46311e-05
-0.000108525
4.00964e-05
-0.000197745
-6.74458e-05
-2.54397e-05
9.28852e-05
0.000146941
6.41021e-05
-0.000210975
0.00014617
-0.000337021
0.000191721
0.000121589
6.7261e-05
-0.000242526
0.00016681
0.000122982
0.00028389
-0.000402371
3.34233e-05
-0.00028466
-0.000194922
9.00562e-05
0.000155863
-0.000258076
-0.000299304
0.000450341
-0.000147478
-3.75172e-05
9.42021e-05
-0.000194057
9.99066e-05
0.000311526
-7.80751e-05
-0.00023271
9.57302e-06
0.000147314
-0.000400519
8.09816e-05
-0.000383094
4.85817e-05
0.000336323
7.45782e-05
2.8109e-07
-8.00013e-06
-0.000316888
0.000325473
-0.0003663
0.000320271
5.7336e-05
0.000280571
-0.000175757
-0.000104469
2.50156e-05
-0.000136576
0.000124628
-4.51556e-05
5.80651e-05
0.000134818
6.27028e-05
-0.00019747
6.90187e-06
-9.56706e-05
0.000322671
-4.5928e-05
-0.000260021
-8.44661e-05
8.82768e-05
-1.91092e-06
-0.000177783
2.16262e-05
0.000156173
9.34295e-07
0.000160704
-9.9728e-05
-0.000216634
0.000316375
-9.29492e-05
9.56166e-05
-2.66622e-06
4.74601e-05
-0.000155281
0.000107845
-2.16003e-05
-8.15331e-05
0.000210381
-0.00010284
-2.82536e-05
0.000131107
0.000340212
-7.82962e-05
-0.000260707
-3.92182e-05
7.01344e-05
-2.97162e-05
6.4362e-05
-0.000133849
-4.16628e-05
0.000272523
-4.01036e-05
-2.62932e-05
6.63968e-05
-1.65618e-06
-8.09976e-05
-3.29433e-05
9.98574e-05
-6.6912e-05
0.000234718
4.60901e-05
-6.64763e-05
3.07265e-05
-0.000151669
1.55337e-06
0.000150153
-8.46066e-05
0.000132087
-0.000138309
1.84684e-05
0.000153966
-0.000381738
0.000237557
5.08825e-06
-5.08825e-06
0.000171808
6.60554e-06
0.000348474
-0.000354828
-0.000185517
0.000384414
-0.000198093
8.97872e-05
-0.00010203
1.22441e-05
-0.000110461
0.00033493
-0.000270808
0.000250234
2.16103e-05
0.000253737
-0.00013183
-0.000121668
0.000364405
-0.000254577
-9.97191e-05
0.000120012
1.13104e-06
-9.86241e-05
-0.000156935
-0.000209655
4.43746e-05
2.89254e-05
0.000135374
9.04386e-05
-0.000225675
-0.000264795
0.000267799
-4.27795e-05
0.000104907
-4.99676e-05
-3.2625e-05
0.000107074
-0.000142715
0.00040397
-0.000259903
-0.000317601
-6.85079e-05
4.18381e-06
-9.71316e-05
3.92977e-05
7.51848e-05
-0.00011448
-6.21534e-05
7.41349e-05
-1.19815e-05
-0.000131571
-0.000107858
0.00031352
-0.000166495
0.000199083
-0.00010984
2.12253e-05
0.00011978
0.000192117
-8.72031e-05
0.000212448
0.000120279
-5.23724e-05
-6.79029e-05
0.000255735
-0.000104699
-6.07334e-06
6.956e-05
0.000128441
-0.000344062
0.000216734
0.000320658
-0.000145019
-0.000175313
-5.34695e-05
-1.90714e-06
5.53767e-05
0.000444766
-1.47786e-05
0.000247646
-4.98444e-05
0.000303037
9.94387e-05
-0.000400448
-8.41738e-05
8.47636e-05
1.15049e-05
-0.000195431
0.000113128
6.48855e-05
-0.000165715
0.000250452
7.55634e-05
-0.000324925
-1.18121e-05
8.36782e-05
7.40346e-05
-3.46116e-05
-3.9423e-05
0.00016442
0.000240163
-0.000280179
0.000353293
-6.52002e-05
0.000121408
-0.000164267
4.28735e-05
6.87175e-05
2.80479e-05
1.39606e-06
6.42099e-05
3.19576e-05
-9.6165e-05
7.50713e-05
-0.000346909
-9.12618e-05
-0.000294942
-4.67303e-05
0.000345107
-0.000134938
0.000412274
-0.000272973
9.47285e-06
-0.000394499
0.000350317
4.6574e-05
9.64834e-05
-1.97962e-05
-0.00016158
0.000174379
-1.27051e-05
-7.71546e-05
6.98046e-07
7.67241e-05
0.000230585
8.01948e-05
-0.000297554
0.000417098
-0.00028442
-0.000132539
-0.000483942
0.000187513
0.000300252
6.62479e-05
-0.000361485
3.71727e-05
-8.29451e-05
4.57729e-05
0.000284494
-0.000407819
0.000126423
0.000431634
-0.000147062
-0.000279926
3.51607e-05
-8.36347e-05
4.84743e-05
5.20882e-05
5.38713e-05
0.000111929
0.000135878
9.89504e-05
0.000168512
-6.94186e-05
-9.906e-05
0.000298988
-0.000191511
-0.000107041
-0.00010909
0.000395286
-0.000281039
6.21927e-05
0.000176826
-5.40211e-05
-4.98844e-05
0.000119009
-0.000283271
-6.13288e-06
0.000291257
7.89652e-05
-0.00037547
-7.67906e-05
3.82706e-05
-0.000256499
0.000160498
9.61167e-05
8.0925e-05
-2.44307e-05
-5.64942e-05
-1.69796e-06
0.000213187
7.44656e-05
-2.52675e-05
-0.000165403
-7.31171e-05
0.000238661
8.463e-05
-0.000348616
-3.67673e-05
-3.03939e-05
6.71611e-05
6.93694e-05
7.50447e-06
-7.6874e-05
-0.000184853
-0.000294878
-7.79415e-05
-5.93928e-05
-5.11951e-05
0.00012887
8.26805e-08
-0.000391852
8.44502e-05
0.000250174
-8.06201e-05
2.48443e-05
-0.000106862
-0.000247266
0.00012522
0.000294318
5.72537e-05
-6.19268e-05
0.000235095
-0.00017265
0.000117413
-9.68627e-05
-4.47341e-05
-9.91927e-05
0.000259804
-0.000402321
0.000146478
0.000130767
7.50529e-05
-0.000205811
0.000205211
-0.000195907
-4.62861e-06
5.37292e-05
-0.000141092
-0.000160948
0.000308199
-0.000115915
0.000263427
-0.000245325
-1.69296e-05
0.000116005
-6.87481e-06
0.000117037
6.18713e-05
7.26569e-06
-6.9137e-05
0.000107487
-4.09375e-05
-6.65483e-05
-0.000245795
8.44143e-05
-9.15924e-05
7.03656e-05
-4.78845e-05
-2.31304e-05
7.1015e-05
-0.00030452
-0.000118304
7.0652e-05
-2.18809e-05
2.75813e-05
6.11369e-05
1.77758e-05
-6.56603e-05
-9.03231e-05
5.54793e-05
3.4844e-05
7.95737e-05
-4.44127e-05
3.04616e-05
-8.02009e-05
-7.25312e-05
-7.99923e-05
0.000276157
-0.000362157
8.13741e-05
8.86659e-05
-0.00025392
8.75744e-05
-2.53164e-05
0.000281316
-0.000437497
-0.000427921
0.000279754
0.000242764
-0.000384103
9.47813e-06
0.000228867
-2.23753e-06
-0.000226283
0.000155426
6.85409e-05
-0.000223901
-6.6396e-05
6.28369e-06
6.01123e-05
-0.000137854
-0.000286561
-3.22501e-06
0.000317712
-0.000313911
-7.30543e-05
3.79489e-05
3.51054e-05
0.000106863
-1.0156e-05
-9.67032e-05
0.000184728
0.000232308
-0.000188956
-0.00026774
0.000123539
0.000144407
0.000416142
-0.00028809
-0.000126328
-6.60633e-06
-6.73301e-05
-7.51706e-05
-0.000113794
0.000203034
9.95149e-05
-0.000302319
0.000179443
-0.000240867
4.09412e-05
3.30934e-05
1.36681e-05
-6.71376e-05
7.55155e-05
-4.47694e-06
7.44614e-05
-0.000365651
8.99101e-05
-0.000123852
-0.000134543
2.16525e-05
-6.1724e-05
7.31188e-05
-1.13947e-05
-2.35284e-05
0.000107767
5.9137e-05
-0.000166879
0.000263057
0.00025722
8.40848e-05
0.000317919
-0.000188475
-9.51618e-05
0.000156703
0.000294275
-8.06196e-05
-0.000101175
5.12232e-05
-0.000264068
-0.00011713
8.35373e-05
4.02248e-05
4.4208e-05
-8.44325e-05
-5.07748e-05
0.000142773
-9.1985e-05
0.000365987
-0.000238414
3.80251e-05
4.84944e-05
3.52864e-05
-8.37807e-05
-0.000113235
-6.7595e-05
-0.000301065
0.000369231
5.45823e-05
-8.06772e-05
2.60949e-05
9.77434e-05
-0.000414056
0.000154588
-0.000339236
0.000141828
4.82196e-05
-0.000190036
-6.60714e-05
-1.81216e-05
1.05749e-05
0.000293939
0.000177748
4.88735e-05
4.11327e-05
-9.00058e-05
4.76541e-06
-9.63543e-05
-0.000111672
2.3273e-05
8.84021e-05
-3.09917e-05
0.00012197
-9.09642e-05
-8.03176e-05
5.25818e-05
-9.37774e-05
0.00031516
-0.000218018
-9.9427e-05
-1.37799e-05
0.000113213
0.000287352
-0.000354396
-0.000439744
0.000218796
0.000226595
0.000407498
-0.000261236
-3.65949e-05
0.000103933
-6.42307e-05
2.07732e-06
0.000146559
-0.000409506
0.00026712
-7.63662e-05
0.000319829
0.000400524
-9.55607e-05
0.000102005
-0.000301797
0.000198539
-0.000273214
7.49024e-05
0.000368384
-0.000361516
7.18877e-05
-0.000405734
-0.000135488
-0.000123013
0.000386422
0.000163065
0.000118894
-0.000119061
1.72247e-07
6.5199e-05
-8.49353e-05
1.97364e-05
0.000100465
-0.000403723
2.84387e-05
-0.000136191
0.00010777
0.000107218
0.000232788
1.50479e-05
-7.84584e-05
-1.30793e-05
6.15738e-05
1.67236e-05
5.91265e-05
9.96083e-05
6.8933e-05
7.81214e-05
-8.75212e-06
-5.1125e-05
7.81195e-05
-2.58192e-05
-0.000118661
-1.26948e-05