/*--------------------------------*- C++ -*----------------------------------*\
| =========                 |                                                 |
| \\      /  F ield         | OpenFOAM: The Open Source CFD Toolbox           |
|  \\    /   O peration     | Version:  v2012                                 |
|   \\  /    A nd           | Website:  www.openfoam.com                      |
|    \\/     M anipulation  |                                                 |
\*---------------------------------------------------------------------------*/
FoamFile
{
    version     2.0;
    format      ascii;
    class       surfaceScalarField;
    location    "700";
    object      phi;
}
// * * * * * * * * * * * * * * * * * * * * * * * * * * * * * * * * * * * * * //

dimensions      [0 3 -1 0 0 0 0];
oriented        oriented;


internalField   nonuniform List<scalar> 
20673
(
-0.172091
0.161803
0.0102872
0.369957
-0.305665
-0.0642929
0.0230543
-0.0507419
0.0276876
0.150945
-0.276291
0.125345
-0.363829
-0.113425
0.477251
-0.0200558
-0.00249433
0.0225501
0.0355101
-0.0302625
-0.00524757
0.00907717
0.0195318
-0.0286089
0.0137016
-0.0260524
0.0123509
-0.0561017
0.157762
-0.10166
-0.106817
0.105402
0.00141478
0.149401
0.00440433
-0.153805
-0.097971
-0.000496383
-0.000429943
0.000926326
0.204184
-0.0383629
-0.165821
0.241113
-0.242182
0.00106891
-0.105732
0.299625
-0.193894
0.140508
-0.163035
0.0225267
0.150122
-0.00072095
0.337692
0.260902
-0.598602
-0.368478
0.5729
-0.204423
0.0328559
0.00265415
-0.596965
0.335242
0.261718
0.046046
-0.0369688
-0.308293
-0.0585913
0.366882
-0.00450757
0.0329899
-0.0284823
-0.105669
0.0778371
0.0278323
-0.0999382
0.0516747
0.0482635
-0.065408
0.052645
0.0127631
-0.148027
0.109541
0.0384858
0.156427
-0.170851
0.0144244
0.195097
-0.20593
0.0108324
-0.0965851
0.138068
-0.0414831
0.174342
-0.0485353
-0.125806
-0.386475
0.362181
0.0242928
0.0877781
-0.107983
0.0202051
-0.362906
-0.234064
-0.00426529
-0.00250096
0.00676625
-0.18594
-0.0550009
-0.0166556
0.000868629
0.0157869
-0.575726
0.585632
-0.00993099
0.685453
-0.381849
-0.303605
0.362642
-0.534632
0.171974
-0.0498067
-0.0181464
0.0679531
-0.170291
-0.155438
0.325727
0.0963711
0.0711945
-0.167566
0.147211
-0.00670316
-0.0168766
-0.111654
0.128531
-0.0036223
0.0103085
-0.00668618
-0.676745
0.433906
0.242822
0.0432269
-0.164984
0.121757
-0.282909
0.0331799
0.249728
-0.00674826
0.00312596
0.0553859
0.118956
0.167232
-0.272965
0.212688
-0.223783
0.0110942
-0.11215
0.00533283
0.270477
-0.351919
0.0814401
0.0847613
0.160795
-0.245557
-0.331868
0.161575
-0.0174813
-0.0187014
0.0361827
0.16386
0.206095
-0.000496383
-0.163011
0.500696
0.0159184
-0.0359742
-0.0781906
0.0859565
-0.00776593
-0.515619
0.321239
0.262067
-0.361965
-0.105508
0.103629
0.00187913
-0.16206
0.182009
-0.0199493
-0.524919
0.161089
-0.0158469
0.0295485
0.000219357
-0.00399633
0.00377698
0.14174
-0.450036
-0.00761672
-0.00698474
0.0146015
-0.0184918
0.143889
-0.125397
0.00462544
0.00015116
-0.0047766
0.0726405
0.190658
-0.2633
0.0352001
-0.0322917
-0.00290846
-0.61162
0.330774
0.280844
-0.320663
0.599033
-0.278373
-0.259853
0.00783636
0.0248184
-0.0326547
0.0061142
-0.0103795
0.00272805
0.00338799
-0.00611605
-0.212554
0.285193
0.370161
0.201635
-0.5718
-0.0887015
0.010511
0.211969
-0.168743
0.512691
-0.150063
-0.00180521
0.00193232
-0.000127115
0.122279
-0.00389045
-0.118389
-0.0512629
0.364847
-0.313588
-0.261066
0.0524352
0.20863
-0.0392963
-0.0494052
0.0249547
-0.0350779
0.0101232
0.0859925
-0.124403
0.0384103
0.128684
-0.00117897
-0.127506
-0.0651846
-0.0362566
0.101441
0.0517282
-0.0640759
0.0123478
-0.452972
0.556345
-0.103386
0.122069
0.00826501
-0.130334
0.0188916
-0.0686983
-0.271719
0.0727709
0.198947
-0.482062
0.0888019
0.393253
0.0349941
-0.0262877
-0.00870637
-0.0026867
-0.0626289
0.0653156
0.0942937
-0.11117
0.103528
0.196095
0.162058
-0.150776
-0.0112821
0.00262826
0.00678891
-0.00941717
-0.00311148
-0.0135441
-0.110905
0.131248
-0.0203433
0.0318446
0.00314953
-0.274407
0.117101
0.157306
0.00703204
-0.0076397
0.000607656
-0.362431
0.498734
-0.136307
0.0109645
-0.0119472
0.000982651
-0.00727112
0.00940056
-0.00212945
-0.0772834
0.165395
-0.0881113
0.49343
0.192022
-0.096447
-0.0090612
0.00165321
0.00551848
-0.00717168
-0.0562727
-0.0436655
-0.605307
0.122651
0.48264
-0.24561
-0.0154565
0.099381
0.21872
-0.318103
-0.531175
-0.0741526
-0.489238
0.58259
-0.0933777
0.0224603
0.00834014
-0.0128609
0.00452077
-0.0825798
-0.191827
0.148386
-0.303826
0.213181
-0.58166
-0.13052
0.0649485
0.0655711
0.00805258
0.0379934
-0.0167241
-0.155367
0.0514328
0.000295312
-0.116621
0.437861
0.101306
-0.17859
-0.0936613
0.112283
-0.0186216
0.450175
-0.190996
-0.259184
-0.215915
0.276935
-0.0610202
-0.0715577
0.0244696
0.0470881
-0.0696974
0.331764
0.0441209
0.00574595
-0.0498669
0.017626
0.0436648
-0.0612908
0.0180639
-0.300973
0.502615
-0.167285
-0.335335
0.223982
-0.214095
-0.00988714
0.154446
0.00429654
-0.158743
-0.000473175
0.00750522
0.021607
-0.115357
0.0937496
-0.0819605
-0.0435597
0.12552
0.218776
-0.213992
-0.00478419
0.00225803
0.00229252
-0.00455055
-0.174386
0.012326
0.0334822
-0.0917887
0.0583065
-0.000585246
0.00521068
-0.0770545
-0.053465
-0.148096
0.218954
-0.0708583
-0.08579
-0.00587051
0.0916605
0.247179
0.352072
-0.599253
0.112354
-0.0263614
-0.134224
0.0233191
0.0284544
-0.093639
-0.202563
-0.0691567
-0.157523
0.153912
0.0036113
0.133773
0.220411
-0.354187
0.0250027
0.0970659
0.150198
-0.142731
-0.00746694
0.0176303
-0.00757631
-0.010054
0.108822
0.00570697
-0.114529
-0.00682316
0.235738
-0.228916
0.0617902
-0.0482258
-0.0135644
-0.0429475
-0.0701054
0.113053
0.0147113
-0.0063712
0.00035293
0.0106116
0.0597442
-0.0156233
-0.258403
0.401117
-0.142717
0.00580678
0.116473
-0.0131485
0.169575
0.297149
0.153021
-0.0865504
0.456707
0.190063
-0.092067
-0.0979965
0.0357322
-0.0402397
-0.0326485
0.128766
-0.0961176
-0.000404944
0.00266297
0.151522
-0.151047
-0.000474842
-0.106703
0.0972894
0.0094141
-0.0107011
0.0752828
-0.0645817
0.000175073
0.00255298
-0.114638
0.0953296
0.0193087
0.624081
-0.280822
-0.343264
-0.0316319
-0.013724
0.045356
-0.102218
-0.00345164
0.626358
-0.62639
-0.303515
0.252249
0.0061462
-0.081027
0.0748808
-0.0886687
0.0886271
4.16586e-05
0.0244675
0.176148
-0.200616
-0.338149
-0.338608
0.163484
-0.0022336
-0.16125
0.153426
0.00102027
-0.00527058
0.00548994
-0.0760645
0.105044
-0.0289799
-0.280349
-0.106127
-0.0905149
0.36099
0.00826829
0.120416
0.0167818
0.0319772
-0.0487589
-0.286728
0.0708119
0.0381142
-0.0284968
-0.00961739
0.00721572
0.000264992
-0.00748071
-0.0061408
-0.100563
-0.413298
-0.0687711
-0.0585077
0.0418873
0.0166204
0.14864
-0.00527384
-0.143366
0.0103118
0.00397402
-0.0142859
-0.490547
0.290034
0.20051
0.0405009
-0.0579822
-0.395596
0.13719
0.000215926
0.115073
-0.115289
-0.126958
-0.448788
-0.00576656
9.80496e-05
0.00566851
0.0325948
-0.0243111
-0.0082837
0.0633574
0.177755
-0.119846
0.0184666
0.101379
0.037743
0.181033
-0.454113
0.0408075
0.0043416
0.0834365
0.123469
-0.0146477
-0.0103228
0.161845
-0.0583237
0.0212937
0.03703
0.00844248
-0.00122676
-0.587047
0.486185
0.100843
0.193909
0.00118805
-0.00218073
0.00037552
-0.00330051
-0.00251186
0.00581237
-0.298853
0.546029
-0.460069
0.440341
0.01972
-0.0184736
0.00147008
-0.118431
0.0944265
0.0240041
0.398654
-0.601745
0.20309
-0.0762378
0.0911021
-0.0148643
-0.144702
0.141778
0.00292415
-0.103147
0.0173567
-0.167491
-0.0126751
0.180166
0.581638
-0.229569
0.140035
0.00551461
-0.14555
0.00690378
-0.00753294
0.000629165
-0.286605
0.385923
-0.0993198
0.0542353
-0.134184
0.0799482
-0.0380629
-0.00989094
0.0479538
-0.238687
0.338066
-0.281651
-0.0702699
-0.0259192
-0.10534
0.131259
0.000660916
0.0142813
-0.0149422
0.10524
-0.0836326
0.122401
0.0676621
0.013508
0.190676
0.242695
0.36918
-0.611876
-0.00352629
0.00517949
0.00487967
0.0405935
-0.0454732
0.0546859
-0.0881237
0.0334377
-0.380277
-0.0738429
-0.00184326
-0.00569789
0.00754115
-0.000912287
0.000496401
0.000415886
-0.0435888
0.077071
0.0349521
0.000248069
-0.122716
0.104224
0.260973
0.47
-0.657128
0.187105
-0.142096
0.00254495
0.139551
-0.00165881
0.00176318
-0.00010437
0.117061
-0.13393
0.0168694
-0.170642
0.255402
-0.10879
0.0327254
-0.144821
-0.0149259
-0.0919039
-0.450091
0.541969
-0.0738723
0.0695496
0.00432274
0.255496
0.278997
-0.5345
0.0574776
0.00431263
-0.208932
0.233399
-0.0727421
0.471393
0.0836929
0.112475
-0.196168
0.0491477
-0.131108
0.105851
-0.111722
0.0224744
-0.0987123
-0.00370509
0.131448
-0.127743
0.376174
-0.0906333
-0.285543
0.0831426
-0.0966078
0.0134652
-0.0283789
-0.0299448
0.0275559
-0.0226762
-0.226018
-0.264533
0.082684
-0.0257694
-0.0569147
-0.480317
0.0114201
0.468897
0.185606
0.190566
-0.473278
0.110843
0.0616373
-0.0440113
-0.0577294
0.517498
-0.459782
-0.10725
0.107466
-0.18007
0.0125786
-0.264558
0.398328
0.00358285
0.159901
-0.245844
0.0278295
0.218014
-0.0082233
0.00219601
0.00602729
0.0849436
-0.127891
0.125526
-0.129417
-0.274992
-0.107476
0.382464
0.0678922
-0.349544
0.000640972
-0.00933044
0.00868947
0.00618594
-0.00409204
-0.0020939
0.288166
0.210565
-0.390072
0.621084
-0.231033
-0.0640366
-0.00983569
-0.289016
-0.0676816
0.356694
-0.000951191
-0.00304514
0.102325
-0.377322
-0.00617086
0.000404301
-0.331024
0.254415
0.0766072
0.104215
-0.0111386
-0.0930765
0.216449
-0.143599
-0.07285
0.0176177
-0.0119833
-0.00563436
0.0621459
-0.210242
-0.00132293
-0.0757316
-0.0519597
0.0108067
0.041153
0.181974
-0.0982815
-0.0620512
-0.0563795
-0.00757304
0.0716227
-0.0640497
0.0549918
-0.28021
0.225217
-0.00446276
-0.0056876
0.0101504
-0.0521982
0.0205663
-0.000600655
-0.000311633
-0.188638
0.169948
0.0186899
-0.0121672
0.000300958
0.0118662
-0.159676
-0.0577556
0.217432
-0.00141939
0.00411526
-0.00269587
-0.0443137
-0.00764598
0.0725624
-0.0941428
0.0215804
0.0946683
-0.0221058
0.0364309
-0.0133766
-0.562829
0.339769
0.223059
0.144194
0.00600431
-0.00570775
0.00833601
-0.178909
0.293521
-0.114613
0.222584
-0.00169401
-0.22089
-0.00190027
0.00147033
-0.0664503
0.0725965
-0.213354
-0.0523531
0.265705
-0.0816389
0.0709379
-0.0372827
-0.0281254
-0.598146
0.323378
0.274752
-0.00875186
0.00148074
-0.109612
0.0346415
0.0749708
-0.264249
0.519737
0.50656
-0.358351
-0.148216
0.113801
-0.594116
0.235114
0.267495
-0.013068
0.0962106
-0.0402318
0.0591968
-0.018965
-0.0380635
0.0219336
0.0161299
0.00819704
-0.00755607
-0.373407
-0.00312981
0.376534
-0.062309
0.116544
-0.00946517
0.0101145
-0.000649371
0.12472
-0.165554
0.0408337
0.00785171
-0.00404933
0.00239053
0.00630705
0.210263
-0.476973
0.266696
0.0901365
-0.0354506
0.321042
-0.493303
0.172254
-0.0153441
0.055845
-0.143808
-0.188062
0.0159831
0.00163457
-0.0282715
-0.116431
0.181347
0.0870433
-0.268391
0.462794
-0.571134
0.108338
0.139963
-0.131695
-0.0935352
0.099342
0.124353
-0.12827
0.00391727
-0.0132198
-0.0378796
0.0510994
-0.00715541
0.00573602
0.0141003
-0.0037885
0.00558152
0.134454
0.0622636
-0.118365
0.0168741
-0.476951
-0.00635954
0.00305903
-0.0212489
-0.00996292
0.0312119
-0.0302094
0.288422
-0.258214
0.0923153
-0.0936382
-0.303577
0.500422
-0.196847
0.0386208
0.0737198
-0.112341
-0.0986114
-0.232414
-0.3231
-0.23973
-0.293876
0.110601
0.183275
-0.0264965
-0.00773778
0.0342342
-0.0771423
-0.216734
-0.0199015
0.0205625
0.00391486
-0.00120178
-0.00271308
0.0796078
-0.0840944
0.00448661
0.0274387
-0.044827
0.0173884
-0.214394
0.269385
-0.0334996
-0.0250081
0.0382453
0.58781
-0.245105
-0.34271
-0.069137
-0.296051
0.117141
0.213031
-0.339096
0.126063
-0.0756053
-0.0724214
-0.363407
0.6061
-0.392636
0.460728
-0.068094
0.387766
-0.0667294
0.0910525
-0.10412
-0.323769
-0.287852
-0.0105926
-0.00157454
-0.0025638
0.038909
-0.0363452
0.00356472
0.00296889
-0.00653361
-0.081646
-0.0329923
-0.00634974
-0.0133482
0.019698
0.00970196
0.00216838
-0.0118703
0.165658
-0.0409384
-0.471997
0.0985873
0.11101
0.0136866
-0.124697
-0.266134
0.0801937
0.206992
-0.194733
-0.0122587
0.228529
0.395547
0.0195125
0.0371698
-0.020388
-0.0525923
0.0500285
-0.189064
0.208383
-0.0193194
0.109192
0.0269606
-0.136153
-0.165487
-0.0231508
-0.259356
0.204355
0.00513859
0.119214
0.19479
-0.241997
0.047206
-0.0795138
0.0844752
-0.00496138
-0.174223
0.27775
-0.436088
0.378348
-0.00199491
0.00104372
0.0115593
0.00315207
0.0159665
-0.00440726
0.0438135
0.090943
-0.134757
0.00612338
-0.00255866
0.00964466
-0.0141074
-0.000706548
-0.00445732
0.00516387
0.00356975
-0.000857954
-0.0027118
0.146546
0.363002
-0.50957
-0.131539
0.0016822
0.129857
0.225273
-0.0304838
0.34618
-0.263427
-0.0827542
-0.112626
0.0315367
0.0810889
0.00511544
0.480275
-0.533679
0.0533763
0.0123265
-0.137852
0.125525
-0.00483781
-0.149263
0.1541
0.00225876
-0.00161832
-0.000640442
0.342618
0.245187
0.121296
-0.00888762
-0.112408
0.00131825
0.00079454
-0.00211279
0.102861
-0.0179512
-0.0849099
0.00103081
-0.0112493
0.0102185
0.249129
-0.251231
0.22102
0.516815
0.109516
-0.149524
-0.0248619
0.505897
-0.295649
-0.0328504
-0.0103597
0.0432101
-0.0321622
-0.00590122
-0.154803
0.151098
0.00296409
-0.00546076
0.00249667
0.0229079
0.18978
0.0979701
0.0143837
0.0017087
-0.00241525
-0.00881667
0.0524815
-0.012335
0.0919428
-0.00337878
-0.0902825
0.104725
0.0165705
0.122799
-0.148152
0.0253525
0.0859458
0.032663
-0.118609
-0.171195
0.177371
-0.00617578
0.0910793
-0.108266
0.017187
0.0237548
-0.137934
-0.0139035
0.151838
0.104808
0.00398659
-0.108795
-0.525819
0.539253
-0.0134605
0.1074
-0.028969
-0.0784311
0.215394
-0.0154793
-0.199915
-0.429741
0.302905
0.12683
-0.160737
0.0112125
-0.264253
0.184356
0.0798955
-0.000684461
0.00294322
0.011726
0.0201186
0.0899071
-0.378926
-0.51211
0.42018
-0.0356479
-0.0100848
0.0457326
0.0124273
-0.00272532
0.593329
-0.224153
-0.00892047
0.00995128
-0.312729
0.232175
0.080553
0.126296
-0.0969092
-0.0293866
0.00739167
0.323575
-0.33097
0.00801941
-0.00520305
-0.00281637
0.0637749
-0.0966776
0.0329027
0.043762
0.18022
0.304861
-0.190253
-0.11461
0.0193141
-0.0256638
-0.117092
0.0844433
-0.0127695
0.0127109
5.86184e-05
0.242714
-0.606122
-0.000117598
-0.007193
0.0073106
-0.00787037
0.0800088
-0.0135627
-0.0664461
-0.352436
-0.0773098
-0.00402364
0.00741163
0.0240563
-0.0125002
-0.0115561
-0.129736
0.166471
-0.0367348
0.125143
0.38141
-0.216973
0.265136
-0.0481644
-0.139195
-0.0623048
0.100926
-0.0429072
0.523156
-0.516347
0.157988
0.646676
-0.43649
-0.210199
0.405313
0.241348
0.0053189
-0.00716216
-0.0474896
-0.065136
0.0359215
-0.103017
0.117441
-0.0144237
0.568934
-0.0989541
-0.048029
-0.404954
-0.0106957
0.119888
-0.0129844
0.00523238
0.00775198
0.150521
-0.168011
0.0174894
-0.114703
0.335111
0.45123
-0.238201
-0.285257
-0.0924706
0.377728
0.0159721
0.000888685
-0.000713612
0.398467
0.162653
-0.561124
-0.267346
-0.140897
0.408242
0.0106226
-0.0227824
-0.148413
0.105613
0.110836
0.043052
-0.294284
-0.149146
0.261499
-0.112354
0.183362
-0.220347
0.036985
-0.00465636
0.109464
0.0641059
-0.071679
0.0257488
0.100019
0.0109909
-0.149363
0.0606821
0.088681
0.0196151
0.0854293
0.00759198
0.117934
0.451837
-0.292824
-0.159016
0.00710886
-0.000205086
-0.452806
0.249911
-0.0273279
0.251835
0.0057164
-0.257552
0.0775376
0.0298625
0.0828249
0.0201136
-0.102939
-0.0143954
0.396646
-0.382267
-0.00091218
0.103773
0.110628
-0.140169
0.0295407
0.00243932
0.00164776
-0.00408708
-0.0818853
-0.0674778
0.00420594
0.0934829
-0.0976889
0.141872
-0.14671
0.32081
0.141983
0.0423592
-0.0148033
0.103303
-0.0244752
0.0190374
0.00543781
0.170169
-0.344393
-0.156932
0.186453
-0.0295219
0.111943
0.00549802
-0.00276268
-0.00128666
0.0122775
-0.0122775
0.118608
-0.119787
-0.0659694
0.109783
-0.0372124
-0.20497
0.198687
-0.227571
0.0288836
-0.211502
0.254553
-0.075219
-0.0149418
0.0901608
-0.0526661
0.0262792
0.147072
0.00156749
0.01337
-0.0164047
-0.00807051
-0.00317023
-0.00959931
0.0201053
-0.21808
0.197974
-0.00987248
0.107843
0.0930953
-0.0293204
0.0860087
0.0920835
-0.178092
-0.291039
0.0881437
0.202895
-0.0304515
0.00291209
0.0275394
0.0545172
-0.0351053
-0.0194119
-0.0494959
0.0380096
0.0114863
-0.0389758
-0.0692343
0.10821
-0.535104
0.0458447
-0.00667872
-0.00207314
0.00469456
-0.463331
0.448914
0.186067
-0.183258
-0.00280913
-0.00665306
-0.112671
0.119324
-0.125071
0.0284861
-0.0155696
0.12511
0.0373543
-0.0105437
-0.0268106
0.111629
-0.0256831
-0.0204432
0.191801
-0.171358
0.0210359
0.0213233
0.26489
-0.197827
-0.067064
0.00348476
8.49979e-05
0.275429
-0.574284
-0.00919423
0.407658
0.0676877
0.0149964
0.0406034
0.0139139
0.0322993
-0.00742586
-0.0248735
0.0971859
0.167703
0.257431
-0.264255
-0.448117
0.180771
0.00450616
-0.149327
0.00269176
0.114299
-0.0858449
0.220872
-0.0221854
0.0998402
-0.112175
0.134689
-0.261807
0.269196
-0.0519449
-0.0679008
0.11549
-0.00119027
-0.0800447
0.0715439
0.00850086
-0.047036
0.35871
-0.311678
-0.0838191
-0.0255968
0.109416
-0.0735958
0.000360133
0.00355472
0.0327956
0.124966
0.109542
-0.0267167
-0.189197
0.0322656
-0.256967
0.533442
-0.276492
0.290493
0.0858893
-0.376389
-0.0913438
0.310062
-0.088797
-0.00993143
0.0987284
0.154754
-0.058383
-0.0562644
0.105013
-0.0487487
-0.0382575
0.0250377
-0.140271
-0.0172527
-0.221435
-0.376725
0.0278362
-0.0904519
0.0626157
0.0225613
0.00973807
-0.103337
0.0848216
0.0185154
0.0581664
-0.344775
-0.180041
0.14814
0.0319005
-0.119846
-0.396508
-0.159834
-0.0419435
0.201777
-0.052956
0.213751
0.00554591
0.0185104
-0.282958
0.613731
-0.0702021
0.188476
-0.00261087
-0.185865
0.0830589
0.0223434
0.149045
-0.060993
-0.0880521
0.0048822
2.94377e-06
-0.00488514
-0.0215087
-0.0907187
0.112227
0.0485037
-0.265478
0.00140287
-7.61118e-05
-0.00132676
0.00992727
0.00235021
0.35365
-0.265039
-0.088613
0.221248
0.0305867
0.107856
-0.0784384
-0.0294177
0.0853908
-0.124367
0.118291
-0.00123048
-0.346468
-0.243106
0.589569
0.0342633
0.270597
-0.104383
0.0932442
0.242816
-0.0614698
-0.112587
-0.0156837
-0.150226
0.124306
0.386518
-0.09603
-0.144831
0.150363
-0.00553279
-0.0294482
0.399452
-0.175958
-0.223496
-0.265655
-0.0316293
0.297283
0.669407
-0.390765
-0.278656
0.00403054
0.00215541
-0.408409
0.62159
-0.201676
0.0126124
0.00408806
0.0135422
0.00956125
0.20133
-0.210891
0.0493663
-0.00876288
-0.0274137
-0.186579
0.0662701
0.071798
0.232904
0.122197
-0.00464493
-0.117552
-0.0973117
-0.37597
0.139318
-0.00560345
-0.133714
0.323342
-0.582005
0.258642
0.111771
-0.102095
-0.00967548
-0.219008
-0.0937218
-0.01903
0.0203482
0.0497161
-0.043394
-0.0063221
-0.00317594
-0.00980843
-0.555032
-0.0713894
-0.231367
0.129551
-0.121959
-0.147848
0.163476
-0.0156288
0.00114438
-0.00348144
0.00233707
0.0182524
-0.0178388
-0.000413654
-0.135125
-0.0279096
-0.332566
-0.0120839
0.344648
0.107263
-0.0162107
-0.0265476
0.0191217
-0.0834238
0.00337908
0.0574282
-0.113693
0.14233
0.000551463
-0.142882
-0.0297036
-0.00604165
0.0357453
-0.165323
0.151827
0.0134963
0.16029
-0.175216
0.00172451
0.093918
-0.0956425
-0.0774965
-0.0035305
-0.149087
0.0139619
-0.00190305
0.0195352
-0.0176321
0.147558
-0.153184
0.00562596
-0.280186
0.0806448
0.19954
0.0989832
-0.105636
0.0709418
0.111032
-0.404077
0.316614
0.0874586
-0.185212
0.0253775
0.0149965
0.147061
-0.169476
-0.0446189
-0.382161
-0.0395057
0.421663
0.178843
0.148477
-0.0147935
-0.133683
-0.0631333
0.242377
-0.179245
-0.138853
0.0262661
0.00889662
-0.341464
-0.227579
0.462411
-0.234834
0.140367
-0.548777
0.215091
-0.158326
-0.0567655
0.222418
0.222095
-0.444524
0.0264692
0.186128
-0.212597
0.622691
-0.282564
-0.34014
0.00658539
0.00143402
-0.146843
0.145781
0.00106192
0.03905
-0.0378583
0.236181
-0.513348
0.27715
-0.357717
-0.201419
0.559134
-0.0350517
0.0860041
-0.0509524
0.152326
-0.0295264
0.250104
-0.194668
-0.0554361
0.0417369
0.0166383
-0.0583751
0.136929
-0.0402165
-0.0967127
-0.0752135
0.0598694
0.00326351
0.0971938
-0.125188
0.0279945
-0.0889894
0.260297
-0.171309
-0.636802
0.0293432
0.607458
0.59507
-0.189772
-0.256217
0.0103725
0.0156844
-0.0160232
0.000338854
-0.603005
0.245286
-0.0938923
0.0200239
0.0738684
-0.127904
0.154373
-0.00158216
-0.00788301
0.110354
-0.137141
0.0267866
0.11265
0.024279
-0.0126694
0.0957283
-0.438269
0.102232
0.336027
0.281731
0.315284
0.00327872
-0.429629
0.2763
0.153328
-0.299294
0.0807157
0.218578
-0.0485217
-0.0215525
0.0700741
0.251192
-0.0154543
0.0942559
0.451778
-0.546035
-0.0078892
0.177558
-0.169669
-0.0575129
-0.416568
0.474071
0.321402
-0.470171
0.148746
-0.162168
0.0134829
-0.000778473
0.00192285
0.166459
-0.17765
0.0111906
0.250603
0.148846
0.460605
0.125
0.00381917
-0.00658185
0.00587123
0.331409
-0.101791
-0.229619
-0.108757
0.278925
0.0647277
-0.0229908
-0.0856873
0.10335
-0.0176627
-0.0125002
-0.00179796
0.0142981
-0.112476
0.116682
-0.0500896
-0.230097
-0.233194
-0.353871
0.501137
-0.179756
0.00913627
-0.14707
-0.0136113
0.0214799
-0.090316
0.068836
0.0499905
0.119958
-0.00997389
0.00428628
-0.286166
0.0876366
0.198529
0.0339751
-0.215747
0.181771
0.0113412
-0.0141062
0.00276503
0.146172
-0.44975
0.00247317
0.212921
0.273546
-0.356809
0.0832607
0.333838
0.259354
-0.593203
0.00489277
-0.155668
0.0870851
0.018766
0.204725
-0.276468
0.0717415
0.0447727
0.00459353
0.00131635
0.0138527
-0.0151691
0.030656
0.225817
-0.308951
-0.118769
0.427711
-0.0907505
-0.0118462
0.102597
-0.0742772
-0.323388
0.566098
-0.0839842
0.102855
-0.018871
-0.43551
0.126551
-0.155855
-0.27879
0.36392
-0.0851336
0.437109
-0.154336
-0.282777
-0.109794
-0.241429
-0.102405
0.343831
0.0290266
-0.0906798
0.145209
0.0409564
-0.186165
0.387697
-0.586299
0.198601
0.372003
-0.501831
0.129815
-0.0156906
-0.267472
0.283163
0.0297496
-0.319438
0.289685
-0.338813
0.073156
-0.0320845
0.0445796
-0.0124951
0.288626
0.0513716
-0.340001
-0.109813
0.39986
-0.290052
0.0226862
-0.00820175
-0.0144844
-0.0270492
0.0327952
-0.151737
0.131294
-0.160996
0.000661351
-0.121269
0.120608
-0.0513081
-0.166142
0.217449
0.470887
-0.162836
-0.308056
0.12518
-0.0539853
-0.00538818
0.114207
-0.0024362
0.270236
-0.481773
0.211536
-0.30226
0.112006
-0.0035933
0.0218457
-0.0518313
-0.0829315
0.134763
-0.00120916
0.00574432
-0.00453516
0.528064
0.167525
0.000701447
-0.00479349
-0.182914
0.155468
0.0274459
-0.277053
0.0644982
0.015622
-0.0150019
-0.000620081
-0.0187956
0.0101764
0.00861926
0.352563
-0.322817
0.103159
-0.101434
0.488426
0.106631
-0.338409
0.0969775
0.426699
-0.19053
-2.15322e-05
-0.00567636
0.469535
-0.247129
-0.328
0.279885
-0.0511048
-0.273048
0.0738325
0.199215
0.0331978
0.093098
-0.0920358
0.0460246
0.303632
0.0742137
-0.37785
0.0978493
-0.123778
0.0259289
0.374416
0.163839
-0.538259
0.00698788
0.502872
-0.481197
-0.0216803
0.346789
0.364208
0.215744
-0.579953
0.00653885
0.458463
0.0278098
-0.0128648
0.0167818
-0.00391697
0.0167715
-0.0543778
0.0376063
0.000898383
-0.180939
-0.0424137
-0.0671986
-0.012173
0.0139427
-0.00176972
-0.280556
0.348446
0.000419058
-0.00709778
-0.0264737
0.00777228
-0.0137804
0.00160746
-0.000295619
0.0163943
-0.0160987
0.00652714
0.016159
-0.0162803
0.0187196
-0.0719143
0.0997505
0.178823
0.0863124
0.0050626
-0.15406
-0.0288541
0.00679943
-0.0280484
-0.411195
0.0587534
0.0907165
0.274128
0.276355
0.0550522
0.537064
0.16362
-0.230421
0.0668004
0.120219
-0.146708
0.026489
-0.0043611
0.00522821
-0.000867107
0.371049
-0.280336
0.425098
-0.184373
-0.240726
-0.00241537
0.0105389
-0.00812355
0.00881137
-0.0779783
0.0691669
-0.269191
0.253501
0.0227951
0.0227634
-0.176141
0.153377
-0.0729286
-0.205452
0.278378
0.0249766
0.0247396
0.0886843
-0.0658892
0.161278
-0.211839
0.0505614
-0.166175
-0.106873
0.013641
-0.0123246
0.0125403
-0.00119917
0.00326315
-0.0152103
-0.362346
0.0835519
-0.0877358
-0.029356
-0.00948469
0.120113
-0.00756073
-0.00418618
0.0117469
-0.0279044
-0.12083
0.122988
-0.00215883
0.255891
0.169413
-0.258404
-0.0765147
-0.209653
-0.504915
-0.113607
0.0659448
0.508082
-0.361556
0.169524
0.0138375
-0.0630044
-0.102319
-0.00473709
0.00242796
0.00230913
-0.132295
0.0354215
0.0968731
-0.095248
-0.232755
0.124154
-0.00315979
0.00452437
-0.00136457
0.166696
0.327038
-0.245234
-0.0818048
-0.00311678
-0.00090483
0.00402161
-0.360364
0.0958022
-0.304686
0.00539054
0.0737438
-0.108573
0.0348288
0.00233112
0.000632967
0.482632
0.29891
-0.345949
-0.0248019
0.0347799
-0.00997799
-0.101673
0.059259
-0.0286429
0.0934467
-0.0648037
-0.137766
0.0374072
0.100358
-0.0443463
-0.0636369
-0.486233
0.173777
0.312452
-0.102163
0.10025
0.00191298
0.172673
0.154364
0.010989
0.356648
-0.367642
-0.0800149
-0.211024
-0.0474629
0.0146125
0.00116359
-0.0136638
-0.368258
0.0897114
0.278542
0.497543
-0.125553
-0.0731737
0.346718
0.0221688
0.0669467
-0.182028
-0.0053182
0.187346
-0.23149
-0.198139
-0.302363
0.0890079
-0.00214346
0.363337
-0.0597087
-0.00883443
-0.0761084
-0.0139501
0.0900584
-0.0122879
-0.0050991
0.017387
-0.326496
0.0878067
0.117853
-0.025753
-0.0921003
0.183521
-0.163416
-0.00618655
0.000983504
-0.00416644
0.00100664
0.0103273
-0.0035384
-0.120928
0.121589
-0.00506025
-0.0137354
0.463198
0.00556691
-0.0320634
-0.471113
0.478985
-0.0730524
-0.150731
0.172479
-0.156851
-0.0156289
-0.0770834
-0.0447764
0.00912848
0.0457789
0.0295708
-0.0753497
0.0912159
0.0163408
-0.107557
-0.0151614
0.0457274
-0.030566
-0.283806
-0.272102
0.55589
-0.0580043
0.101158
-0.0431533
0.106165
0.330939
-0.0851784
0.15612
0.030799
-0.0223708
-0.00842816
0.229839
0.116341
0.169593
-0.640707
0.218015
-0.266911
0.0488946
0.100997
-0.255122
0.154123
-0.00317772
-0.00155937
0.465382
-0.102408
-0.362986
0.511652
-0.176415
0.0085951
-0.0209395
0.13176
-0.110821
0.147489
-0.146374
-0.00111525
-0.026236
-0.000311573
-0.0999534
-0.00768265
0.107636
0.0149772
0.000419956
-0.0153971
-0.00179506
-0.131753
0.113223
-0.165054
-0.000808605
0.000544916
-0.17452
0.0047487
0.0544279
-0.0591766
0.00195662
0.0310333
0.204681
-0.00646599
-0.198215
-0.306044
-0.0582977
0.364338
0.00219908
0.0207349
-0.022934
-0.0376449
-0.247111
0.265175
-0.146042
0.0377485
0.108293
0.155914
-0.00539247
-0.344321
0.117388
0.226931
-0.0279872
0.191607
-0.143361
0.244356
0.155755
0.28824
0.308774
0.137202
0.00512813
-0.0262481
0.0507176
-0.368167
0.13925
-0.129792
-0.00945804
0.109961
0.208018
-0.317982
0.104379
-0.097851
-0.0065277
-0.250361
0.573682
0.156692
0.00203526
-0.133575
-0.23145
0.168316
0.319927
-0.0821233
-0.237806
-0.295629
-0.0726336
0.0388593
-0.0375357
-0.0013236
-0.0916615
-0.0296451
0.121307
-0.0236731
0.0524854
-0.0288122
0.264593
0.196134
-0.323628
0.266874
0.0567531
0.0082061
-0.270802
-0.0860092
0.0191767
0.116347
-0.135524
-0.126994
0.0353323
-0.234588
-0.109734
0.0278596
0.113919
-0.257352
0.367308
-0.0184736
0.0513733
-0.0328997
-0.290525
0.0434138
-4.2787e-06
0.191805
-0.000826729
-0.00107354
-0.0757812
0.101368
-0.0255873
-0.0928168
0.399492
-0.306679
-0.223025
0.19232
0.030704
0.00205818
-0.014923
0.353254
-0.34227
0.472575
-0.117538
-0.355043
-0.0114636
0.00390288
-0.00414617
0.00412463
0.0309119
-0.196399
-0.0093907
-0.0860014
0.0953921
0.542678
-0.281783
0.229292
-0.0117307
0.238349
-0.21052
-0.351917
-0.0863613
-0.0931853
0.023197
0.0699884
0.305831
-0.286825
-0.0190092
0.0235612
0.0667349
-0.0902961
0.195578
0.403453
-0.444445
0.0925184
-0.296491
0.194699
0.00594606
-0.1059
0.012508
0.0026163
-0.0151243
-0.220768
-0.0752841
0.00101462
-0.23645
0.235434
-0.347674
-0.138562
0.197994
-0.184486
0.479718
-0.145891
0.0206582
0.136895
-0.124569
-0.584435
0.261046
0.0164938
0.0427029
0.115936
-0.0951692
0.037165
0.0138245
-0.00417989
-0.0214323
-0.00901916
0.394278
-0.304571
-0.30151
0.0562756
-0.257649
0.337793
-0.080146
-0.00864589
-0.178468
0.140105
0.00129904
0.0125982
-0.0138972
-0.00469685
-0.00967927
0.0143761
0.230625
-0.168479
0.00599707
0.00830422
-0.015289
-0.143056
0.145883
-0.00282689
-0.0964691
0.0870784
-0.114181
0.0926719
-0.00141764
-0.0127992
0.110472
-0.00609293
0.0352153
0.0554228
-0.0906381
0.0105839
-0.00446975
0.13432
0.00340364
-0.137724
0.17117
-0.000760573
-0.0247023
0.0763769
-0.397557
-0.013643
0.21471
-0.141939
0.0375062
-0.0327575
-0.126762
0.144648
-0.0178862
0.37239
-0.282486
0.123636
-0.00143985
-0.0998343
0.119011
-0.00353981
0.00157133
-0.00111279
-0.000458542
0.214719
-0.0017485
-0.212971
-0.0542736
0.0391122
0.0286938
0.130464
-0.159158
-0.0180296
0.0862968
-0.0682672
-0.0514637
-0.0524888
0.103953
0.12277
-0.0895726
-0.159706
0.18247
-0.367169
0.205077
0.0444591
0.304987
-0.43008
0.12509
-0.0458197
0.207097
-0.499394
-0.026451
0.184356
-0.369044
0.11274
0.256301
0.00580274
0.109821
-0.115624
-0.0160223
0.107102
0.0116797
0.00560477
-0.0172845
0.0782012
0.03085
-0.109051
-0.0321803
-0.0598555
-0.0424802
-0.010112
0.0729173
0.260135
-0.362993
0.102855
0.00667239
0.00823162
-0.0433306
0.0350989
0.3235
-0.39025
0.0667449
0.352722
-0.152004
-0.0107719
0.162776
0.0025859
0.0130985
0.34312
-0.593822
0.250702
0.130309
-0.00737124
-0.122938
0.0743504
-0.00280341
-0.071547
0.121591
-0.152742
0.0311514
0.373229
-0.268327
-0.104904
-0.286594
0.229818
0.0567749
-0.179353
0.322181
-0.142831
-0.0812883
-0.0647533
-0.146888
0.103328
0.231913
0.005577
-0.024607
0.0354827
-0.0242976
-0.0111851
-0.118976
0.124491
-0.100389
0.0164048
-0.0186273
0.152947
0.100699
-0.0906177
-0.0100816
-0.212827
0.222388
-0.204503
0.153194
0.0117023
0.0437519
-0.0554543
-0.0685893
0.0985633
-0.029974
0.00263985
-0.00453475
0.034232
-0.0479027
-0.5889
-0.415017
0.309276
0.105738
-0.146285
0.310143
0.345766
-0.0701507
-0.275616
0.117785
0.15915
-0.0563939
-0.0774015
0.133795
0.370237
-0.0763578
-0.293882
-0.000530067
0.0995755
-0.0990454
-0.499807
0.442284
-0.167596
-0.297917
0.128952
-0.0163015
-0.00625985
0.1061
-0.0597722
0.0949874
-0.354524
0.0739662
0.0350346
-0.175008
-0.240011
0.0127857
0.0449739
-0.0577596
0.274502
0.225918
-0.184658
0.136123
0.457671
-0.187437
0.0201028
0.0760617
-0.0961645
-0.00130435
0.0655642
-0.101821
0.277417
-0.073671
-0.0586236
0.358445
-0.144515
-0.213932
0.149236
0.00343906
-0.00343612
0.2333
0.102478
-0.33578
0.195058
-0.275074
-0.13924
0.118301
0.171412
0.014655
0.00628305
0.282349
0.116497
-0.177779
0.0612814
0.249704
-0.281335
0.117813
-0.499978
0.137439
-0.01722
-0.0954378
-0.168818
-0.213991
-0.23531
0.449287
-0.162871
-0.0489685
-0.00330448
-0.00422846
-0.201751
-0.0142491
0.216
-0.0652159
0.0866958
-0.033002
-0.00152943
-0.00320249
0.0157105
-0.222042
0.02029
-0.445168
0.231163
0.052657
0.125411
-0.178069
0.0102287
0.000542632