/*--------------------------------*- C++ -*----------------------------------*\
| =========                 |                                                 |
| \\      /  F ield         | OpenFOAM: The Open Source CFD Toolbox           |
|  \\    /   O peration     | Version:  v2012                                 |
|   \\  /    A nd           | Website:  www.openfoam.com                      |
|    \\/     M anipulation  |                                                 |
\*---------------------------------------------------------------------------*/
FoamFile
{
    version     2.0;
    format      ascii;
    class       volScalarField;
    location    "450";
    object      ddt0(omega);
}
// * * * * * * * * * * * * * * * * * * * * * * * * * * * * * * * * * * * * * //

dimensions      [0 0 -2 0 0 0 0];


internalField   nonuniform List<scalar> 
13851
(
-0.00103198
2.62731e-06
2.57394e-06
-0.0234175
1.1859e-07
3.14565e-06
1.1288e-05
8.36982e-07
-0.0359096
2.94624e-07
0.000294405
3.55591e-07
-1.30636e-06
0.0320233
-9.79652e-06
-0.0027392
0.0530724
6.38076e-07
0.0187983
-0.000941723
1.18645e-06
6.96529e-06
-0.0926616
2.60935e-08
-0.18837
-0.000220796
0.00522635
-0.863953
-0.0408665
7.39807e-07
-0.0446354
1.10648e-05
-0.00174304
-0.0404498
5.72797e-05
-0.0261171
1.29175e-08
0.220368
-0.0228655
1.7079e-06
-0.00189116
-0.053315
-0.124479
-0.0100587
-0.0776314
6.49946e-07
5.42135e-07
-0.00134484
2.59069e-06
-1.34848e-06
0.0523643
-1.07666e-06
-0.00287746
2.59533e-05
0.0209202
1.60826e-06
-0.00205129
-0.00743521
0.0189237
-0.0221435
3.16994e-07
0.0238305
2.10453e-07
2.59026e-06
-0.0283805
-0.032121
-0.00114961
-7.18166e-05
3.27047e-06
-0.00169517
-0.0137016
-5.7575e-06
-1.60657e-06
-0.00780505
1.1504e-05
6.93219e-06
0.0241055
3.6487e-07
-0.46186
-4.89418e-07
3.36495e-06
0.0120998
6.21285e-05
0.0185646
-0.0261519
-0.0308624
8.33838e-06
0.0322195
1.74513e-07
-0.0434108
-9.76544e-07
1.04459e-05
0.074893
-0.0169517
0.00363236
0.022259
-1.48318e-07
-0.00223511
-0.000730976
-0.00290748
-0.00210556
-0.00376402
-0.00240799
-1.52962e-06
1.13569e-06
5.62798e-05
1.09617e-06
-0.0219414
1.0287e-05
6.51361e-07
-0.00011608
8.40202e-07
-0.00203324
0.000200588
0.00124395
2.62751e-05
4.1772e-07
7.54525e-07
-0.0337811
0.0242429
0.0105553
7.62937e-07
3.2127e-06
-0.017451
0.0106216
-0.0213275
-1.25376e-07
-0.000593542
-0.0297476
-3.19583e-05
7.80382e-06
1.77628e-05
0.41572
-0.035065
0.000355201
-0.00441421
-0.0077049
-0.0229794
-0.00167849
-3.93599e-05
0.0118525
2.11245e-06
5.04976e-08
-0.00757917
0.192866
8.29252e-06
3.25989e-07
-0.0153026
-0.0267763
-0.000894828
-0.0013975
-0.00164171
0.000188783
0.0115527
-9.17971e-07
-4.83315e-07
1.80668e-07
-0.0149768
-2.31583e-05
5.15161e-06
3.64258e-08
-0.0348386
5.16249e-05
-0.00117311
0.0233651
-0.0508157
-0.0465385
0.0187032
-3.06075e-07
0.035825
2.41074e-07
4.33204e-07
0.000249133
9.67139e-08
0.00226093
-0.00444906
0.00250898
4.6439e-07
1.39278e-05
0.00131733
0.00849964
-0.0161762
1.3336e-06
-3.65961e-05
0.00620572
-0.0286791
-0.00164428
-5.82797e-05
-1.12221e-06
8.96509e-07
0.934626
-2.17808e-05
0.0924668
3.80624e-06
7.79715e-06
-0.00264384
-0.000782551
9.54019e-07
7.35483e-07
0.00956061
0.0124786
0.0352378
0.0129622
-1.15047e-05
0.319937
0.0241098
1.97612e-06
-4.39771e-05
-0.0303
2.37554e-06
-0.0027454
2.89783e-06
0.0108041
-1.86929e-08
6.30796e-05
7.52906e-06
-1.4212e-06
-0.00363665
7.64812e-07
0.0310438
4.74042e-07
-0.00266189
0.0494591
-0.00241627
1.28979e-05
-5.1126e-05
1.90751e-08
-0.00976836
4.00627e-07
5.82065e-05
-0.00207182
5.07549e-05
2.20618e-06
3.018e-08
0.00335494
7.25346e-07
0.457242
0.0181649
-0.00334751
2.04388e-08
0.110899
-0.0181639
-0.0796438
-0.00317806
1.21071e-05
0.0139022
-0.00228741
2.21654e-05
0.00995188
6.83739e-05
0.0270526
0.00293539
3.21278e-07
4.2389e-06
-0.0026596
-0.0274222
0.00974563
8.34136e-07
-0.0104579
1.70364e-07
-0.00292618
0.00689005
4.9347e-06
5.4494e-05
0.00459945
-1.32731e-06
-0.00660772
-0.000539333
-0.739715
5.32475e-07
-1.30727e-06
3.06853e-05
-0.00824194
-0.0318587
-9.11883e-06
7.16603e-07
0.0074896
0.0107859
0.000637579
5.81601e-05
-0.0118278
0.00503041
4.8517e-06
-4.68131e-06
-0.0982641
1.2586e-06
1.6428e-07
-7.49808e-05
-0.000548771
7.07487e-07
3.93488e-09
3.22439e-07
2.45474e-07
4.62037e-06
2.17057e-07
-0.0356401
2.93923e-06
1.23546e-06
-0.0215691
-0.016604
-1.02823e-06
-0.00138108
0.0200295
2.95572e-06
-1.15119e-06
2.57737e-06
-0.0488216
-0.122689
0.000297284
1.40073e-07
0.0452599
2.89138e-07
0.00041341
-0.00884763
-0.627626
4.77368e-06
-0.202947
0.401511
-0.0264892
-0.00505799
-0.00634504
-0.0116509
-0.0199356
-1.09487
7.30575e-07
0.0354179
-0.0531264
-0.0153228
0.0144229
1.19909e-06
0.000317763
9.3816e-06
0.0103525
0.00606579
2.02053e-07
4.47349e-07
6.23691e-06
-0.0195639
0.0530825
1.17025e-06
0.00185862
6.35692e-05
1.88858e-05
5.84982e-06
-0.0325278
0.00431011
-0.00270535
7.82414e-06
1.82883e-06
7.62683e-05
-1.39873e-06
0.0150053
4.57555e-06
3.94528e-06
-0.000250104
6.99915e-08
1.4003e-06
0.0053845
-0.00353518
0.00107669
0.0398208
-0.00341142
8.58136e-06
0.00825011
-0.00420513
3.04415e-07
-0.378884
-0.00100282
-0.0171182
3.9752e-06
-8.22824e-05
0.0179262
0.979459
0.00801877
0.0179643
8.84381e-07
0.0015033
-0.092695
1.05753e-05
0.016192
1.93698e-05
0.0411235
-1.97937e-06
5.30634e-05
0.00583423
-0.000675083
-4.68715e-07
4.26643e-06
-3.18663e-06
1.71082e-05
5.0323e-07
-1.73592e-05
-0.0266876
-1.47731e-06
-4.00277e-05
-0.0079029
1.30023e-06
-0.7471
-1.01576e-05
-0.110347
3.10886e-06
-0.000152674
-0.0828849
0.0107709
8.04928e-05
0.0144711
-0.0236117
-0.0433314
-1.26192e-06
0.00172213
2.30596e-05
-0.000114746
8.95881e-07
-0.0551684
0.0100517
-0.00197886
1.95553e-06
0.00636718
0.00774435
-0.0461126
5.59811e-08
0.0474086
0.00422738
0.126967
1.95505e-05
0.101824
-9.37254e-07
9.74947e-08
0.0444265
-0.00432695
2.09616e-07
2.53599e-06
-4.68052e-05
2.4352e-07
0.00927025
0.000191273
-0.000661367
6.45586e-06
8.135e-07
-5.56556e-07
1.32723
9.2724e-07
-4.65063e-07
-0.0212748
-0.0260545
7.9329e-06
0.0136301
1.14169e-07
2.14085e-07
1.27011e-06
0.00186887
1.81616e-05
6.59541e-07
5.53534e-07
0.00400882
2.11982e-06
-0.218627
3.28087e-07
1.13977e-05
-0.0803726
7.76099e-05
1.05115e-07
1.41356e-07
5.84176e-06
1.36378e-06
0.0462397
-0.0330199
1.20426e-05
0.0417897
1.27688e-06
5.86449e-07
-0.0157218
0.0148352
4.25425e-05
-1.18912e-06
-0.0178657
-1.21278e-05
22.1185
-1.60609e-06
2.16556e-05
0.00782071
1.46107e-06
-0.0222896
0.00379555
0.0623699
8.71862e-06
-0.00430635
-1.26782e-06
-0.0310498
-2.18344e-05
-0.000790723
2.13384e-05
7.33746e-06
0.000928221
0.000214823
1.11229e-07
-0.0291064
-0.014331
-0.230522
-0.00101938
-0.0298908
0.0175179
0.0114675
9.80625e-06
-8.6457e-08
-0.724671
2.86776e-07
4.20462e-07
-5.6787e-06
0.011097
3.09032e-06
1.45507e-06
-0.00424843
0.000114401
5.71174e-08
0.0524871
-3.70698e-07
-0.0314753
0.0294643
-5.30492e-07
3.41364e-06
0.00598187
-0.617087
7.37063e-07
-0.17457
0.169258
1.9845e-07
0.00413889
0.0190167
-0.00261641
8.4932e-06
-0.00635596
-0.0125872
2.68999e-07
-0.0125654
3.23227e-06
-3.40986e-07
-0.00465872
0.0530127
5.49713e-05
1.54986e-05
2.04967e-07
-0.000139597
-0.0327152
-0.0144954
2.99249e-07
0.00810045
4.83991e-07
3.3604e-06
8.0231e-05
1.73753e-05
4.18033e-08
7.24357e-06
0.00641289
-0.000864197
0.00402158
2.80044e-06
9.81394e-08
-0.0107045
-9.47142e-08
-0.000872725
6.57462e-06
6.29282e-06
1.46533e-05
-0.0769515
-0.0148844
3.98318e-06
0.0464211
4.05789e-06
0.000247774
-0.0611734
0.0025622
2.80425e-06
-1.33243e-06
0.010785
0.0035796
-0.00427165
-0.000135629
-0.611361
1.94222e-05
-6.60072e-07
-0.109192
0.0681074
0.00130426
-0.026379
0.00322693
-0.0223941
1.21893e-06
0.0265969
0.660385
4.97611e-07
0.156829
-0.0629987
-4.1542e-06
-3.81698e-05
6.35238e-07
-0.0427148
-0.00118275
-0.0501388
8.38435e-07
7.58689e-08
-9.42278e-06
0.000109897
2.97102e-07
0.0110676
7.43291e-08
0.00218606
8.32417e-06
-0.000192747
-1.48133e-06
4.01275e-08
6.38728e-06
0.00672078
9.93348e-05
-0.000703305
2.0278e-05
2.48152e-07
4.46986e-07
0.000248126
5.7065e-07
-0.00044346
3.12404e-06
-0.000573095
0.0153512
-1.12466e-07
-0.00138238
1.04918e-08
-0.000422141
0.0319027
-0.067967
0.00371079
0.106647
-0.00274579
-0.00984823
-0.0640381
4.35353e-07
0.0386335
4.44523e-05
1.49368e-05
-0.01007
-0.141143
3.56556e-07
-0.000515846
9.58691e-07
-0.014077
0.0582234
3.20958e-06
0.0124089
0.0541102
5.22901e-09
5.50604e-09
-0.000222958
0.00557246
0.0823277
-1.18109e-06
0.00355468
1.80794e-06
4.84316e-08
0.0186912
0.0052839
-0.00308085
3.97171e-08
-0.000499764
-5.46146e-05
-7.7618e-05
9.40181e-08
7.36156e-06
-0.00362398
1.12078e-05
-0.000932616
-2.07807e-05
4.74167e-07
-0.00158611
-0.487319
0.010287
0.036393
-0.100432
-0.00188398
-0.00419292
0.000434018
-0.0056269
-0.00272419
7.91914e-07
4.16734e-07
0.00591225
6.49274e-06
-4.08348e-07
-3.10814e-07
-0.000808257
0.0426671
1.06133e-05
0.0120573
2.41496e-07
0.0400232
-0.00466443
0.036361
-0.0015665
3.43935e-06
2.66773e-06
0.00670082
-0.00127159
0.000123061
0.0037223
7.30467e-07
-3.32587
-0.000801675
0.00142932
2.34109e-05
0.0415945
-1.07172e-06
-3.46322e-09
1.26328e-06
1.35674e-08
-0.0645462
2.44156e-07
0.00980484
-0.0146961
-0.00103039
-0.0162939
-0.0170738
0.000222137
-0.0300027
0.00071271
-1.78192e-08
-1.21409e-06
4.2676e-07
4.59226e-07
7.9953e-08
0.000348456
-0.00140152
-0.00156951
-0.844599
6.0891e-06
-0.0314954
3.30112e-09
-0.00442499
5.97127e-05
1.2534e-08
1.17209e-08
-0.0623519
3.83531e-06
0.0956357
-0.0592196
-2.95281e-05
-8.92895e-05
2.17785e-07
-0.0398946
1.08412e-05
2.95042e-06
0.0203424
-3.06193e-08
1.99539e-06
4.26883e-07
-2.86208e-05
0.0220376
1.12416e-05
2.32638e-05
0.00405071
-0.00742456
2.24478e-05
0.000115143
-0.0476464
4.4051e-07
-0.0381443
5.11838e-08
2.29618e-06
-0.433807
-0.000111854
0.0010282
0.00192099
0.00010346
-2.71235e-08
3.81052e-09
0.000368608
1.07057e-06
-1.4918e-08
1.38248e-05
0.0108661
2.49473e-07
0.013626
5.43563
0.130645
0.0026311
-0.0169693
0.00193939
-2.16695e-08
0.00401278
1.26029e-07
4.60582e-06
0.0468495
0.00155121
0.0507073
-0.0575776
3.24711e-06
3.31679e-06
-0.00438387
7.14174e-06
1.11718e-06
-0.0194099
-0.00328849
0.0143449
-0.000462305
-0.000146553
-1.10309e-07
7.56367e-07
-0.283083
-0.000401242
2.77276e-06
1.03208e-08
0.00112184
-0.00055161
0.0206311
-9.63538e-07
2.71277e-08
0.0496966
1.3691e-08
1.81632e-05
2.13183e-07
0.017819
4.41899e-07
0.0389476
4.58883e-07
-0.00371737
1.46867e-05
-0.00101646
2.32733e-05
-1.55478e-06
2.26132e-06
2.15813e-07
0.0120953
1.24543e-07
0.0143985
4.78928e-07
-0.0189555
-0.00995806
1.67758e-05
2.55028e-07
-0.00429848
-0.0287957
3.98921e-06
-0.000160418
-1.05317e-06
0.0226847
7.53744e-07
0.00443719
5.9622e-07
2.22075e-07
0.0820077
1.35949e-05
1.96595e-07
2.54476e-05
-0.0216854
-0.0648797
0.0597219
7.76501e-07
-0.00767106
5.5418e-07
2.45525e-07
-9.35614e-07
4.26711e-07
-3.16488e-08
0.0997089
0.0243973
6.38524e-07
7.4615e-08
6.3605e-05
8.66434e-07
-0.0143912
0.00772319
0.00623497
-0.0177821
2.10736e-06
-0.000685948
5.45036e-07
5.6902e-06
0.00284989
4.03106e-07
3.33484e-08
-0.658492
0.0443836
-9.60861e-05
0.0481454
-6.96405e-05
2.19157e-07
6.30527e-05
-0.00013006
0.0298059
4.55974e-06
-0.0908775
-0.00023384
-3.41136e-09
-0.15341
-0.125103
0.0128206
0.901707
0.00559832
9.13569e-06
0.0145896
-2.88079e-07
0.171096
4.46989e-06
2.03997e-07
0.0837369
6.55831e-06
2.27229e-07
2.91385e-06
6.30567e-06
0.0152221
0.012162
8.2292e-08
6.81088e-05
0.00779328
3.46297e-06
0.0662151
3.2815e-06
-2.92236e-05
0.0560348
2.41586e-07
-0.0178044
1.17752e-05
2.26054e-05
-0.049387
6.46028e-06
0.0219367
-0.00011879
-0.0187849
1.37002e-06
0.00853117
1.16409e-05
-0.0186228
0.0729898
0.00186641
-3.059e-05
-1.51697e-06
3.30979e-06
1.66546e-08
5.60841e-05
1.06178e-07
-0.0250463
1.23205e-06
9.82177e-06
0.000111209
9.18379e-06
6.97785e-07
2.1211e-05
6.65255e-06
3.34671e-06
6.3557e-06
-0.0324662
-0.00421802
9.56941e-06
0.00102013
0.0863364
1.81263e-06
-0.019021
4.92126e-07
-9.58799e-05
1.33221e-07
1.90881e-06
6.91019e-05
6.34048e-07
1.46945e-07
-0.000446193
-3.91478e-07
-0.0122542
4.89958e-07
0.130445
-0.512879
0.00233873
-0.00516594
5.51276e-07
-0.00994071
0.00157434
-1.54685e-08
6.88609e-06
8.00633e-07
-0.0240356
2.4741e-06
-0.00279643
-0.301028
0.008778
-0.000581956
1.05444e-06
-0.0805672
-0.613886
0.00375489
3.98608e-06
2.82321e-07
2.76808e-07
0.000304575
-1.33726e-06
0.00812552
0.000405559
-9.8409e-08
-0.00467089
-0.0160994
4.56193e-07
-0.0323112
0.0469542
-0.00309473
6.68344e-07
-0.0790209
0.000405743
3.41694e-07
0.0277975
1.85302e-05
5.43832e-07
-7.52192e-07
1.48878e-05
4.65837e-05
-0.027568
-0.0670335
-6.36042e-06
-0.0397755
4.78811e-06
-6.22554e-07
0.0160498
-2.43509e-07
0.0467098
3.35117e-07
1.87217e-07
9.65094e-06
9.3591e-07
-0.0065371
-0.000778971
0.00493125
-0.015263
0.0652175
9.82315e-06
-1.34084e-06
4.73228e-07
0.0172724
2.90686e-07
8.48639e-07
7.56599e-05
-0.202515
-0.0273553
2.08777e-07
-1.62976e-05
2.35469e-05
0.00257325
-0.00378404
2.55357e-07
7.64774e-08
4.42641e-06
0.407916
1.40525e-05
-0.0324849
7.61907e-06
2.11355e-08
5.20883e-07
-5.77614e-07
7.06669e-06
-0.00189741
-0.0211771
-0.0617512
0.000527668
6.19446e-07
-7.08748
1.40001e-06
0.0973243
-0.0123247
0.000465949
0.00479741
-0.0567856
-0.0141786
-6.61728e-05
4.4837e-06
-0.0122646
8.74221e-06
4.06925e-05
-0.00257896
0.0111891
1.48502e-06
-0.0886887
-6.08342e-07
0.0643493
0.315921
5.0784e-07
8.50079e-06
3.9364e-05
0.00954734
7.33155e-06
5.46375e-08
6.17078e-06
1.1473e-06
6.78909e-06
0.0691803
-7.92891e-08
-0.0384106
0.0212146
-8.47454e-07
4.84417e-06
3.58767e-05
4.42509e-07
0.00335154
-0.0602059
-0.0110854
0.0109415
5.53634e-07
5.74845e-06
4.76577e-06
-1.05113e-06
0.00509638
7.45312e-06
-1.38811e-09
-0.000132009
4.42591e-06
-0.0496847
9.85655e-06
0.0359828
9.03281e-07
4.30419e-06
-0.00246002
0.000328516
0.000380354
-1.24015e-06
-0.0959933
-0.017675
-0.409609
0.013875
0.0526053
-0.0447425
-0.0205522
-1.10192e-06
1.77587e-07
6.96113e-07
-0.00341879
5.83584e-07
0.000461296
0.0042193
1.15922e-06
4.22981e-07
2.22279e-07
-0.00331872
2.71309e-07
5.1115e-06
8.30735e-06
0.042168
4.12531e-06
1.24347e-07
4.85312e-07
-7.89993e-08
6.89204e-08
-4.97792e-05
-0.00233888
5.05197e-05
0.012484
4.62462e-07
-5.43676e-07
-0.0286346
-0.0110272
0.0480933
0.109667
0.000630606
0.0291281
2.92437e-07
0.00187214
4.36281e-06
4.02879e-07
6.94142e-06
0.0285752
1.62988e-06
0.000600622
-0.396033
1.14345e-06
1.84491e-06
7.12134e-06
-0.000750705
1.05337e-08
0.0232404
6.93608e-07
-0.00408342
1.70008e-08
5.99001e-07
4.76832e-06
-0.00162573
-1.54972e-06
-0.00975517
-0.0148463
-0.000122138
-0.03146
-8.21208e-07
0.0112519
0.0360248
6.28141e-07
0.711153
-1.03305e-06
-0.00104598
-1.15858e-06
1.47556e-06
1.94788e-07
7.07023e-09
4.52916e-06
0.000185567
-0.000129921
9.74061e-07
8.69015e-08
-0.00592448
2.1819e-07
0.00460781
2.03685e-08
1.43429e-05
1.2133e-05
-0.0122562
-0.531289
-1.6281e-08
-0.00275547
2.11422e-07
2.50759e-05
0.00135596
0.203425
-4.08816e-05
1.64809e-08
-0.000662226
-0.00288768
8.57986e-05
-0.0274227
-0.000134045
-0.00151154
-0.000145132
-8.61217e-05
4.00917e-06
8.78525e-07
0.103402
-0.00190471
1.84773e-06
3.45336e-07
0.0345431
2.17848e-07
2.27985e-05
-1.27715e-07
0.00150184
0.592348
3.12392e-07
-0.0265172
3.4879e-06
2.16736e-08
0.000951186
1.93667e-07
-0.0010117
0.00988282
4.65628e-05
0.111532
1.90783e-07
2.24919e-08
-0.00773771
-5.19548e-08
1.69485e-08
7.89751e-06
1.19464e-05
-0.000100824
0.000992164
-1.33561e-06
-2.19988e-05
8.90935e-07
5.7174e-07
-6.51786e-08
5.8369e-07
0.0894693
4.16681e-07
3.45708e-06
0.0199996
2.68423e-07
3.05188e-07
-0.0038073
3.25963e-09
0.153176
2.33842e-06
-0.00127932
-0.00201189
0.000747725
-0.507583
0.000327201
-0.0583633
7.17398e-07
-0.00218323
4.72482e-06
7.99939e-07
7.32527e-07
2.79574e-06
8.38791e-06
-2.75507e-07
-0.000497357
-3.96846e-08
3.87427e-06
-0.0262
0.0590012
0.111127
6.26032e-06
0.00728705
-0.0126889
0.0467533
-9.63824e-08
5.53998e-06
-0.0753712
6.77701e-07
4.35776e-05
-0.444078
-0.0671061
6.48237e-06
-2.30739e-05
6.53001e-06
-0.0153169
6.03586e-10
-0.000302797
-0.00554004
-7.53634e-07
9.10762e-07
-0.00534448
7.84646e-05
0.0162717
-0.0377497
-0.000894775
1.91063e-07
-2.98128e-08
4.6596e-07
0.00375215
0.539461
0.024488
-0.000433055
-9.62564e-08
-0.00884255
1.79155e-07
-0.00155973
0.000228694
4.07143e-06
1.11538e-05
6.17717e-07
-0.0580243
0.0593728
6.59487e-07
7.16677e-05
-3.66671e-07
-0.235268
5.33107e-05
-0.000113709
0.0117163
7.46393e-06
-0.0325608
-0.0001602
1.35887e-07
-1.76944e-06
0.0157157
-0.0138078
5.66871e-07
-0.252576
7.58362e-05
-0.000113039
1.13633e-08
0.0530516
4.41076e-06
8.55048e-06
1.16476e-06
3.50882e-05
4.24503e-05
-0.000259095
5.30315e-08
6.32044e-06
-0.000798732
0.0586739
-3.41687e-05
-5.35161e-08
1.84777e-09
6.63989e-07
-0.000490447
-9.59982e-08
-8.5592e-05
-0.227341
-0.000335106
-0.0589581
4.65421e-05
0.000937184
0.0197222
-1.13448e-06
0.640375
4.50304e-08
6.23508e-06
1.97792e-06
1.14836e-05
0.000373545
-3.47342e-05
-3.3132e-05
1.81828e-05
1.63024e-05
9.26219e-06
2.53521e-07
-0.0053885
4.11367e-06
1.71825e-05
-0.730737
4.04526e-06
0.000242109
-4.20511e-07
0.0248089
-0.000771299
-1.43387e-06
3.10774e-06
3.60929e-08
-0.0649568
0.00184038
3.5144e-06
-0.0753472
0.019192
0.0847688
0.000916203
-0.0253935
-1.00216e-07
-0.012095
7.82989e-07
0.000124022
-0.0388484
0.00554753
-0.0199643
-0.290195
7.22369e-08
-0.0972133
-8.68991e-08
-0.000118058
1.23244e-05
0.0300935
0.103189
1.64269e-05
1.93967e-07
-0.0161717
-0.00452694
4.36439e-07
-0.00233097
8.45369e-08
9.03482e-06
4.2002e-06
-9.94163e-07
1.58547e-05
1.52098e-06
-2.65615e-07
2.59752e-05
0.0301505
-5.09562e-06
-0.000122158
3.85942e-07
-0.0181511
0.00553332
2.48484e-07
0.0216364
1.11533e-05
1.4426e-05
-0.0378726
2.36201e-07
3.68249e-06
8.77847e-06
-0.00419657
5.79721e-07
2.23185e-08
4.44855e-05
0.0157895
2.42551e-07
1.21989e-05
4.60261e-05
-0.538799
7.14389e-05
4.70132e-05
-0.00302418
7.63829e-08
0.00207366
5.40265e-07
-0.0142054
1.38932e-05
2.38971e-07
1.49881e-05
0.00192874
3.98762e-08
6.59234e-07
0.00200612
-0.0415078
1.44395e-06
-0.02534
-3.73386e-08
5.37299e-07
0.000256662
5.49909e-07
4.1878e-07
-0.0659939
6.40376e-09
1.14076e-05
0.00011976
-0.0196395
-0.359883
2.67228e-07
3.87367e-06
9.80186e-06
2.77008e-07
-1.37532e-06
4.08578e-07
0.264298
-8.73358e-08
-0.0383834
0.000545737
9.31711e-07
2.46368e-07
1.19934e-05
0.00063944
0.0246423
-0.00472192
0.00044288
7.84426e-06
-0.0407818
0.000693908
2.88079e-05
-1.41423e-05
0.000722191
0.000456294
0.316813
4.04183e-05
0.0111526
0.0129078
-0.0382413
3.54955e-06
1.66399e-06
4.02799e-05
0.00071323
4.61251e-07
1.45208e-06
-0.000804255
2.23942e-08
2.78139e-06
6.47207e-07
5.28521e-08
3.52615e-06
5.80591e-07
0.0338868
2.14577e-07
-0.0060555
2.47818e-07
-0.00449683
1.4638e-06
0.00058037
-0.00315991
-1.51723e-06
0.0255963
1.1393e-05
-4.13433e-08
-5.35997e-06
8.28038e-07
5.41292e-06
6.34947e-07
-0.0285659
6.08096e-06
6.6422e-05
-0.0163387
0.0358895
1.10691e-05
-0.035488
-0.538466
-0.00088365
6.16413e-07
7.50516e-07
0.00137372
0.000335632
0.0532042
7.23507e-07
0.0388284
2.48927e-06
-0.0072342
-0.194244
1.78334e-05
0.0169366
5.76701e-06
1.3374e-05
9.81958e-06
0.053541
1.31671e-05
7.74751e-08
-0.000579953
0.00214642
2.74298e-06
5.24716e-07
5.49008e-08
-0.0214656
4.28781e-11
1.29548e-05
-0.0234136
1.13645e-05
-1.28348e-06
-0.000228831
6.13742e-06
0.00128313
4.11189e-07
-6.18689e-07
4.16171e-08
-0.000136696
6.42528e-07
6.4572e-07
-7.41622e-05
-0.0131816
-1.1062e-06
1.05289e-07
0.0229555
1.34823e-06
-0.0300207
8.46004e-06
0.0528142
1.23697e-06
1.07761e-05
2.39944e-07
0.0117404
-0.0256253
0.000371995
-0.00130235
8.26988e-05
5.50689e-07
4.32575e-08
-0.0366482
7.44859e-08
-0.000326738
5.29842e-07
3.84927e-05
-1.12492e-07
0.0264823
1.88152e-07
-2.45257e-05
6.58202e-07
0.07499
0.0298406
7.64517e-07
0.000152638
-0.0158767
-7.92567e-05
0.0566357
0.0528871
-0.00553767
1.50978e-06
2.11108e-05
0.000679817
-0.693136
1.45065e-06
2.97313e-05
1.03453e-05
1.94944e-06
0.011699
0.139386
-0.000106741
0.0016716
0.000897682
1.97395e-05
-0.0145055
4.19164e-07
7.73247e-07
0.00234224
0.0691799
-0.00142376
0.000683445
-0.13083
3.27899e-07
0.0631218
-0.0076782
-0.235982
2.56127e-08
0.0297406
-0.0406482
0.0863679
-0.0220788
-0.0133174
-9.8691e-05
1.36617e-05
-0.000563101
2.19055e-05
3.51355e-07
0.429455
-0.000159285
1.71334e-07
-0.0191319
-8.70073e-08
-0.000613729
-9.72037e-06
1.05476e-05
0.868241
-0.000357739
-0.0202265
-1.24896e-05
-4.70772e-06
0.0815309
0.0685425
0.00193981
-4.16655e-07
4.99699e-06
0.000447491
-0.000396538
1.53437e-07
9.2634e-05
0.000531235
-0.00470048
-8.14265e-07
-0.000690933
9.59961e-06
0.000710361
-0.0109953
-0.0449829
4.03869e-07
0.00396308
0.00114104
-9.37945e-07
6.47767e-06
-0.252159
0.0102783
1.99423e-06
1.24737e-06
3.85607e-07
0.000992704
6.17268e-06
-0.04676
0.000707065
8.62957e-07
4.00868e-08
0.00631171
1.7868e-05
0.0343027
0.0225127
7.12914e-07
5.94151e-07
6.59714e-06
-2.77189e-08
1.08347e-06
6.49949e-06
7.12271e-07
6.93991e-06
-7.23254e-07
9.68508e-06
-1.10087e-06
-4.48914e-05
-0.742829
1.72585e-08
0.0120901
0.0756762
5.70979e-07
-0.0274107
-0.00408758
8.28704e-05
3.78558e-06
2.07186e-05
4.74495e-06
-0.00591983
6.65701e-06
2.49133e-06
3.63586e-08
0.0419028
2.43595e-05
0.127241
3.32487e-06
-9.76146e-10
4.98978e-07
0.0010205
-1.06352e-06
4.51727e-05
-0.000122555
-0.0356575
-3.17301e-07
0.00256182
1.7495
-0.017614
3.12769e-07
-0.00176429
0.0792534
1.26239
-0.731606
-3.13849e-07
4.30616e-06
0.00313003
-0.0018195
0.160836
1.49527e-05
0.0250708
4.45554e-08
6.81972e-07
1.41646e-05
-7.25071e-08
-1.81631e-07
-0.000784173
1.55904e-08
-0.00650001
1.17568e-06
0.0718785
-0.0207191
-0.0550929
0.00145685
-0.0162214
-1.07818e-06
-1.45205e-08
-0.0777714
7.06831e-07
8.01701e-07
5.15192e-07
0.00435153
-0.0452399
0.0430189
1.09804e-05
9.17926e-07
4.40964e-06
8.95471e-06
0.0164536
2.05658e-07
0.0695877
0.0823802
-8.57087e-08
-3.94757e-08
-0.00562661
-0.000262034
4.34796e-06
5.78033e-07
0.069402
-0.00865763
6.08755e-07
-0.0034234
5.2102e-09
-0.0180878
0.356883
7.13132e-06
-0.190472
0.00404206
0.0442326
1.05713e-06
1.40484e-06
-7.31727e-09
1.54741e-08
-0.0175765
1.10595e-07
-0.00616
-0.00791066
0.0980246
4.32773e-07
0.000637099
0.0570744
0.000110954
-0.0775693
-0.00444848
2.89241e-07
4.00582e-06
3.67105e-06
-0.00188943
-0.0570376
3.38571e-08
0.0216684
-9.61283e-05
-2.69347e-05
3.65113e-06
2.3167e-07
0.0117613
3.80224e-05
-0.0199298
-6.91461e-08
-0.000231336
6.68833e-07
-3.44618e-05
2.84161e-06
-0.0113998
0.218436
-0.00264768
-0.000799765
-8.80431e-07
9.36361e-06
-0.000307703
-0.0284737
-0.0185271
-0.0569245
4.45645e-08
0.0802011
-0.00273614
-0.0355511
1.96945e-05
7.40879e-05
6.32323e-05
9.41433e-07
0.045117
5.72783e-07
9.47392e-06
0.0121891
0.0380542
-0.151808
-0.0376326
1.64942e-05
2.52707e-05
4.70016e-07
0.0765125
1.13327e-05
0.111664
4.25965e-07
0.0151609
2.56991e-07
2.60338e-07
1.06853e-05
-4.79536e-05
1.29421e-05
5.21981e-07
-0.0164205
-2.06369e-05
7.70509e-08
3.33667e-05
0.00458658
-0.341171
-6.06622e-07
-0.002066
5.52717e-06
2.35923e-06
1.1916e-05
5.00501e-07
0.000236936
1.36203e-07
0.180451
-0.00405097
1.49594e-05
2.95616e-07
0.0136573
6.11776e-05
3.96068e-07
-0.0431585
0.655678
0.00014361
7.04782e-07
-0.373727
1.68929e-08
0.00433514
7.6916e-06
0.000455499
-0.633603
-0.0120447
-0.00029112
-0.0398981
0.000133432
0.000455626
5.52361e-07
-0.0345774
-0.00210232
0.000219171
-0.00978035
3.25604e-08
-0.00812078
0.000494375
0.0186894
0.0111281
-0.0606376
-0.0144698
0.307732
0.0203235
8.64052e-05
1.12818e-05
3.75573e-07
8.62106e-07
2.70126e-08
-0.00361726
7.5328e-06
-0.00219132
0.00352122
-7.22372e-07
8.09282e-08
-7.86115e-06
0.000754261
3.86525e-06
6.80793e-07
0.0372549
1.26751e-06
-2.37981e-05
2.0085e-06
0.0341561
1.35303e-05
0.0967664
-0.00164677
1.97441e-05
0.000537923
4.38484e-07
0.00911568
0.0402404
0.000102708
6.8863e-07
2.27766e-07
0.0507566
-0.0326958
-0.0172341
5.98273e-07
0.00019171
-0.007007
5.94699e-07
3.16627e-07
3.11004e-06
-0.0403554
0.00385886
1.28647e-05
1.98218e-05
5.28757e-06
0.0551723
0.00154878
0.00236941
1.32053e-05
1.19717e-05
8.42232e-08
-0.0021985
0.000210923
-5.36146e-07
-0.0151555
-0.000379401
-0.0201401
-0.0350528
-0.027163
-0.078927
-0.0695217
6.90712e-07
3.60174e-07
0.0852521
-0.00658279
0.141793
5.08806e-07
2.23121e-05
-9.89695e-09
-1.04124e-06
0.0195329
0.0563933
-8.65214e-05
2.9307e-07
-0.00963507
0.000485997
0.000111439
-0.0204458
-0.533844
0.0171561
2.3433e-07
-0.0134679
0.425342
0.0075848
7.97187e-06
4.35809e-05
-7.38953e-07
3.241e-08
5.47208e-05
8.70819e-05
6.33704e-06
-2.09337e-05
4.42355e-06
9.77003e-06
-0.00180159
-0.00634517
-5.63156e-06
-2.69496e-05
-0.0165776
-0.00464915
5.76405e-08
-0.0591944
0.0330119
0.0154793
6.14904e-05
8.85344e-07
9.78505e-06
4.65933e-06
1.17947e-05
5.10787e-07
-1.09761e-05
4.54578e-06
-2.68742e-05
-0.000389875
2.94585e-08
2.89866e-06
-0.0158671
-0.0651622
0.0480946
0.0191522
-0.000854261
3.05393e-07
6.77314e-08
1.30254e-05
4.80374e-07
-0.0152851
1.19291e-08
1.48205e-08
6.03381e-07
-0.0091175
-0.231176
1.02322e-08
-5.17913e-05
7.06483e-06
-9.99298e-05
1.3162e-05
-3.06474e-05
3.77109e-06
2.97387e-05
-0.022175
4.38094e-06
-0.0106626
4.63188e-05
0.0269826
1.06301e-05
2.57683e-07
5.25503e-07
-0.000640712
0.00122799
1.74035e-07
-1.23608e-05
1.21639e-05
-0.000174728
0.000557114
-0.229092
0.00369705
1.06115e-08
0.339725
9.87351e-05
2.67619e-06
3.57025e-07
0.000182473
8.35786e-06
0.0139562
-0.0534685
4.93166e-05
4.72772e-07
-0.0565042
3.46128e-05
-0.00109013
-0.0150142
-0.00908209
8.02632e-06
-0.000208649
0.0560887
0.177935
-0.0139858
0.000249326
1.62543e-06
3.34588e-05
4.65302e-07
-0.169842
9.63391e-06
2.05154e-05
-0.00789193
-0.009741
1.37635e-06
-4.40112e-08
-0.00408082
6.4735e-05
-0.183785
-0.000234524
5.44116e-07
7.005e-05
-0.00512354
0.000345
0.147656
1.55282e-05
0.0697669
1.36881e-06
-3.68737e-08
3.39015e-07
0.00856027
2.92806e-07
-0.000569015
-2.14084e-07
2.23339e-06
0.00505071
5.68037e-06
1.15222e-06
5.22299e-07
3.08766e-05
-0.0171394
-1.93602e-05
6.09654e-05
1.00988e-05
0.000297029
-8.01184e-07
-0.00115786
1.26041e-05
4.521e-05
0.00370414
2.25444e-05
0.00104399
-0.000841449
4.64822e-07
-0.000131055
0.115495
0.0113892
5.7336e-07
-0.558288
-0.00296829
-1.01495e-06
1.83899e-07
0.0214053
-0.0205279
-0.000112317
-0.00264125
-0.00661249
7.63516e-07
6.03593e-05
4.19037e-08
3.59162e-06
0.000146681
-0.0337086
0.0263807
-0.0222003
0.0410017
-0.0167205
-0.0191394
4.16089e-06
-0.0153608
1.42677e-07
0.205725
-0.0175243
3.47735e-07
1.10828e-07
0.0102172
-8.45213e-07
4.61154e-07
-0.021195
-0.0187875
0.00939169
6.32668e-06
-0.0160455
9.96132e-08
-0.0693814
-0.0120415
2.04652e-08
0.00913842
1.14143
-0.00384336
-0.00398517
-0.0164845
0.00948388
-1.38849e-08
1.68659e-06
0.000242895
-8.48483e-05
4.69267e-07
-0.00634181
4.81482e-07
-0.022262
-0.010497
0.000280625
0.00927107
-0.0271047
-0.00830146
0.0022122
-0.000929048
0.0620489
0.0134195
5.01186e-06
1.878e-07
0.266735
6.86728e-06
7.34955e-07
0.0639053
-1.18278e-06
0.215835
-8.40674e-07
-0.0179526
5.97378e-06
-9.00232e-07
16.9795
4.25756e-06
-7.50321e-05
0.0107234
-0.100475
2.12077
8.45243e-06
2.82776e-05
6.1795e-06
6.81069e-06
-0.0013315
-9.41142e-06
-2.03031e-08
-0.0458962
0.000108082
3.82668e-06
0.00475928
4.57913e-05
2.4513e-05
-0.00355851
0.000429582
-3.53758e-05
-9.08484e-07
0.00220654
5.67686e-07
-0.000861644
0.0136875
-0.0140251
4.15929e-08
3.59626e-05
-0.0079
2.04949e-06
0.000328
1.79265e-05
4.94085e-05
0.0873808
-2.1961e-05
2.26144e-06
0.0280414
2.12819e-08
-0.04722
9.53171e-08
6.90073e-07
-0.00115671
-0.019652
2.64753e-05
-0.0754862
-0.0141692
6.89219e-06
7.76156e-07
-0.0032805
6.96775e-05
-0.00904827
-5.34385e-06
-0.773889
0.000599974
1.17898e-05
1.19901e-05
-0.002664
4.76095e-05
-0.00320677
-7.5491e-06
-0.000457144
1.62009e-06
9.24944e-07
0.141875
-1.40946e-06
8.97038e-06
1.25527e-07
0.000258749
1.08456e-05
-7.39281e-05
-0.0165715
1.61277e-07
0.0076285
2.21694e-07
-1.09606e-06
-7.15501e-08
-4.82898e-08
1.16584e-05
-2.7027e-07
6.78439e-05
0.00414712
-6.27745e-05
3.84975e-05
5.47627e-06
2.3593e-06
-0.0384001
-7.54044e-07
0.0371158
-0.0315901
0.0253378
0.000350529
1.80905e-05
9.95959e-06
-1.0248e-07
-7.39699e-06
-0.00391607
7.07396e-05
-0.00570705
-8.38539e-05
-0.0291147
-0.00113318
2.06735e-08
1.23101e-07
0.0113058
-1.76503e-07
5.06397e-06
0.00950065
-0.0103409
3.03756e-06
-0.0294772
-4.2656e-08
4.58171e-06
-5.01388e-09
2.63355e-06
-0.00924287
-1.8618e-05
2.85792e-06
1.17025e-05
-0.00451382
-4.35712e-06
-0.000106168
-0.0202079
0.00910333
0.00339738
-0.00200162
1.7169e-05
2.45516e-06
-0.000112173
-0.00827813
-0.0546163
-0.0766655
2.82632e-06
-0.324362
-0.000717784
6.6294e-07
2.06764e-07
-0.000127011
-9.51185e-09
1.84572e-05
0.0248436
-9.33098e-07
6.72135e-07
0.00888352
0.0085397
-2.81312e-05
-0.0966332
-9.86293e-07
0.0186697
4.53172e-05
0.0360052
-0.000414504
2.36783e-07
-0.0751159
-0.0111572
-1.1193e-06
-0.00545788
-4.39133e-09
-0.00339405
1.00239e-05
-0.0111468
0.0638118
0.00111395
-0.0130089
-4.88711e-07
-0.0806285
-1.67499e-06
2.83619e-06
4.71294e-06
9.07809e-05
4.96113e-08
-0.00142072
-0.048574
0.00821863
0.000116829
-2.6427e-06
-0.00092275
1.60973e-06
8.17778e-07
1.85097e-06
-0.280533
4.50025e-06
0.0280005
-0.0274718
-0.00201248
-6.71341e-08
-0.00207805
0.00438
0.00199142
1.5752e-05
-0.0133337
-1.06918e-06
2.12523e-07
-9.27141e-07
0.925428
1.02931e-06
-1.44762e-06
-0.0720586
-7.99124e-07
-0.00450004
0.000935111
2.67395e-07
-0.00767465
2.24443e-05
-0.0100206
1.58251e-06
0.0061249
3.24849e-06
0.00932652
-0.48672
5.80031e-06
-8.30604e-07
1.19454e-05
0.0158945
1.64009e-05
-0.00151061
9.76233e-06
4.5642e-06
-0.00104561
9.3116e-05
1.35896e-06
0.022005
9.65457e-06
1.69402e-05
-0.00271042
-1.15197e-06
8.81697e-07
3.89023e-08
3.0114e-05
-1.57461e-06
1.17438e-05
-0.00963611
0.265261
0.00397993
0.00758394
-0.000142484
4.14314e-05
-0.0179005
-0.0422924
-1.6679e-07
0.0525723
-0.00228649
-0.00779981
0.800936
1.5901e-05
-0.00598293
-0.0806573
-0.293257
0.584357
-0.00291464
-3.957e-06
-0.00047298
-9.7532e-06
9.88848e-06
-2.47649e-07
-0.171225
1.25673e-08
-0.0207672
0.00705318
-0.000597374
1.3707e-07
-8.95146e-05
0.000142033
1.31328e-06
-9.20665e-10
9.57449e-08
0.00923358
3.58811e-06
1.21983e-06
1.24106e-05
0.000636176
2.43221e-06
0.00387953
1.67718e-07
0.0143952
-0.00548484
-1.45498e-06
1.17925e-05
-1.66674e-07
-0.0255524
0.00215609
0.00117786