/*--------------------------------*- C++ -*----------------------------------*\
| =========                 |                                                 |
| \\      /  F ield         | OpenFOAM: The Open Source CFD Toolbox           |
|  \\    /   O peration     | Version:  v2012                                 |
|   \\  /    A nd           | Website:  www.openfoam.com                      |
|    \\/     M anipulation  |                                                 |
\*---------------------------------------------------------------------------*/
FoamFile
{
    version     2.0;
    format      ascii;
    class       volVectorField;
    location    "450";
    object      U_0;
}
// * * * * * * * * * * * * * * * * * * * * * * * * * * * * * * * * * * * * * //

dimensions      [0 1 -1 0 0 0 0];


internalField   nonuniform List<vector> 
13851
(
(1.13219 0.0492191 -8.24767e-21)
(1.07042 -0.0230443 0)
(1.06887 -0.0220763 0)
(-0.187834 -0.0137586 -5.86275e-20)
(1.00202 -0.000449528 0)
(1.08025 -0.0367679 6.4969e-21)
(1.05727 0.011993 -9.73942e-21)
(1.01325 -0.000771819 0)
(0.292648 0.0361207 1.8482e-20)
(0.991059 -0.00742005 -2.88487e-21)
(1.16064 -0.0967292 0)
(1.00119 -0.00829202 1.86506e-21)
(0.980531 -0.0189196 0)
(0.0866543 0.0131554 3.45722e-23)
(1.09934 0.00990882 2.07608e-20)
(1.08595 0.0590083 2.85485e-21)
(-0.316123 -0.00184541 6.15038e-20)
(1.0348 -0.0191396 -5.73266e-21)
(1.19415 0.0456178 -7.51066e-20)
(1.1334 0.0476267 0)
(1.11103 0.0047183 4.52971e-20)
(1.03821 -0.0900842 3.1627e-21)
(0.540975 -0.265146 8.91202e-20)
(1.00007 -0.000207439 -4.67687e-21)
(1.19431 -0.0112803 0)
(1.08555 0.0445138 -2.86366e-20)
(1.10111 0.069119 5.07511e-21)
(1.15139 0.0709582 4.17464e-20)
(0.433565 0.0412189 1.0824e-20)
(1.02044 -0.0121416 0)
(-0.087198 -0.0154241 -7.73321e-20)
(1.05748 0.011336 1.85891e-20)
(1.12494 0.0506444 -6.11049e-20)
(0.370335 0.0605516 -2.72727e-20)
(1.12868 -0.0817004 0)
(0.46838 0.0426423 4.68826e-21)
(1.00004 -0.000186402 4.62669e-21)
(1.19432 -0.143843 0)
(0.00015285 0.0204685 -5.87442e-20)
(1.00613 -0.0378352 4.02403e-21)
(0.202518 0.0507271 -2.83279e-20)
(0.471263 0.0450352 0)
(-0.237215 -0.00355144 0)
(1.09716 -0.473067 0)
(0.484723 0.0491877 2.21263e-20)
(1.01432 -0.0224471 0)
(1.01965 -1.59954e-05 -5.31105e-21)
(1.09443 0.0582807 -1.09987e-22)
(1.04501 -0.0560472 0)
(0.98021 -0.0179702 0)
(-0.239261 0.00653627 -3.68587e-20)
(0.973393 -0.0121507 0)
(1.08676 0.0586866 -2.60824e-21)
(1.07383 0.0220247 -1.27039e-20)
(0.142136 0.0104458 -5.98501e-20)
(1.00509 -0.0381158 0)
(1.12646 0.0514066 6.48946e-20)
(0.169778 0.0451282 -3.99073e-21)
(1.09751 0.0711921 0)
(-0.024921 0.0135189 4.17519e-20)
(1.00109 -0.00782203 -1.78894e-21)
(1.10198 0.0681658 -4.18396e-20)
(0.995457 -0.00260975 -8.21623e-21)
(1.04544 -0.0582544 -8.16585e-21)
(0.875537 -0.443785 5.77992e-21)
(0.856974 -0.463874 0)
(-0.0464374 0.00955241 -6.11136e-20)
(0.693341 -0.121203 0)
(1.01989 -0.0391601 -1.24097e-21)
(-0.154583 -0.0113746 0)
(-0.160524 -0.00582272 -1.75357e-19)
(1.12037 0.0085698 0)
(0.993503 -0.0259901 -9.1083e-21)
(-0.0280824 0.0114274 -5.21638e-21)
(1.08058 0.0196145 0)
(1.02011 -0.0730714 1.51252e-22)
(-0.291158 -0.0044858 -8.88866e-20)
(1.02137 -0.00620419 0)
(1.24622 -0.0161374 3.12275e-20)
(1.00472 -0.0176694 5.72351e-21)
(1.0211 -0.0397637 0)
(1.26484 -0.0807583 -6.43277e-21)
(1.1251 -0.0834727 -3.32129e-20)
(0.0774455 0.0133445 6.33409e-20)
(-0.00998891 0.0139652 0)
(-0.112449 -0.0116347 0)
(1.04146 -0.0912435 8.33354e-21)
(0.242194 0.00954412 1.69767e-20)
(0.991692 -0.0115588 1.34284e-20)
(-0.0835483 -0.0143351 1.83988e-19)
(0.97215 -0.0113473 -4.36579e-21)
(1.05869 0.0111368 0)
(-0.230278 -0.00233106 9.0864e-20)
(-0.14497 -0.0107657 -8.52158e-20)
(-0.045949 0.0243327 -7.73613e-20)
(1.08184 -0.433681 6.89671e-20)
(1.00943 -0.02398 -1.29925e-21)
(1.09061 0.0593939 -2.18836e-20)
(-0.166016 0.00864106 0)
(1.21662 -0.19251 0)
(1.09149 0.0601747 -6.22807e-21)
(0.810152 -0.115029 0)
(0.810453 -0.147889 -1.82975e-20)
(0.989401 -0.0276693 2.72037e-21)
(1.01787 -0.0221852 0)
(1.12639 -0.00552346 5.78164e-20)
(1.01715 -0.0219214 0)
(-0.14086 -0.00816616 1.86278e-19)
(1.05883 0.0103584 1.03332e-20)
(1.03389 -0.0185933 -5.67216e-21)
(1.02615 -0.128634 -7.56195e-22)
(1.01507 -0.0228719 0)
(1.21059 -0.0117418 9.30588e-21)
(1.15869 -0.0420991 0)
(1.11426 0.0540534 3.00509e-20)
(1.0732 0.0208239 1.05513e-20)
(1.01433 -0.00811164 3.28302e-21)
(1.01392 -0.000901205 -2.44248e-21)
(-0.204068 -0.011667 0)
(-0.118812 -0.0147435 4.45661e-20)
(1.11143 -0.358656 0)
(1.02829 -0.0157845 -2.20397e-21)
(1.01504 -0.0397718 -1.76407e-21)
(0.0959013 0.0289709 0)
(1.16951 0.0502466 -5.74653e-20)
(0.614654 -0.20191 0)
(1.00994 -0.023682 -2.31997e-21)
(1.12941 -0.14832 2.61841e-20)
(0.225022 0.0491483 0)
(1.10974 0.0155173 -3.71975e-21)
(1.03487 -0.0920672 -2.6947e-21)
(1.09694 -0.0634874 1.67244e-20)
(1.31336 -0.162414 -9.62432e-20)
(0.353962 0.0582044 0)
(1.16494 -0.0937025 0)
(-0.0581825 0.02409 2.76131e-20)
(0.706487 -0.113654 0)
(-0.128032 -0.0100934 -9.58016e-20)
(0.847915 -0.0869501 4.84511e-20)
(1.10555 0.0183283 0)
(1.26217 -0.0848601 0)
(0.974571 -0.043585 2.17783e-20)
(0.990997 -0.0116431 -1.76443e-20)
(0.74323 -0.30702 0)
(1.15387 0.0259795 4.58575e-21)
(1.00669 -0.0714047 6.01895e-21)
(1.02115 -0.00578861 0)
(-0.135749 -0.011702 8.6144e-20)
(0.28653 0.0279009 -6.79277e-21)
(1.13459 -0.150544 -3.01587e-20)
(1.09268 0.0598715 -3.04621e-20)
(1.20942 -0.0150706 0)
(1.16267 -0.0410407 3.72012e-20)
(1.18362 0.0413882 -2.08988e-21)
(0.972275 -0.0220074 -1.45322e-20)
(0.983564 -0.00836541 1.52455e-20)
(1.00123 -0.00655604 0)
(-0.037031 0.0165913 1.04022e-19)
(1.10376 0.0150288 4.16172e-21)
(1.06046 0.00176976 -1.32759e-20)
(1.00014 -0.000481044 -1.22387e-21)
(0.447404 0.0412525 6.64179e-21)
(1.12369 -0.00480888 -6.40247e-20)
(1.09547 0.0579548 1.0793e-20)
(0.0901568 0.0116425 2.88529e-20)
(0.383612 0.0463756 1.04037e-20)
(0.395823 0.0474812 -1.25503e-20)
(-0.222912 0.00851319 1.70212e-20)
(1.02688 -0.123772 -1.3082e-21)
(0.729283 0.0746679 -1.53028e-20)
(1.0008 -0.00719736 3.65665e-21)
(1.01426 -0.00771332 -6.01273e-22)
(1.14113 -0.00825279 -5.6201e-21)
(1.00105 -0.000414074 0)
(-0.0174315 0.0300729 1.17699e-19)
(1.11307 0.071268 6.58853e-20)
(1.09976 0.0609242 7.23804e-21)
(1.01485 -0.00766886 -4.17541e-21)
(1.07882 0.0209873 1.75075e-20)
(1.09889 0.0601639 0)
(1.16644 0.0494178 4.31695e-20)
(1.10387 -0.454708 0)
(1.03233 -0.116776 -1.39651e-21)
(1.10784 0.0156518 0)
(-0.253298 -0.00406143 0)
(0.295221 0.0280468 0)
(1.12371 0.0520018 0)
(0.88896 -0.0649083 1.6838e-20)
(0.976718 -0.0228322 -6.41797e-21)
(1.01873 -0.0165315 0)
(1.23985 0.0214521 -7.68818e-20)
(1.10455 0.0139592 9.02097e-21)
(0.0661515 0.00777911 -2.22217e-20)
(1.08161 -0.0346871 2.0985e-20)
(1.0085 -0.0693392 2.31456e-21)
(1.08869 0.0590925 -2.0452e-20)
(1.12214 0.0512212 -6.02076e-22)
(1.04491 -0.0107655 -1.42228e-20)
(1.04049 -0.0272846 -1.76091e-22)
(0.70936 -0.156634 0)
(1.26363 -0.0971313 1.19586e-20)
(0.0243794 0.0372321 4.45694e-20)
(0.152288 0.0482683 2.81653e-20)
(1.09776 0.0106634 4.7606e-21)
(0.941346 -0.708739 0)
(-0.0070446 0.034611 2.43821e-20)
(0.9373 -0.0199145 -6.10231e-21)
(1.0982 0.0244036 -2.09201e-20)
(0.287275 0.0378713 -1.72336e-20)
(1.07486 -0.0443957 0)
(1.08426 0.0586821 -2.77662e-21)
(1.0144 -0.0389485 2.30852e-21)
(1.26662 -0.0924537 0)
(1.0001 -0.00205954 3.10077e-22)
(1.1321 -0.074419 -2.56558e-21)
(1.02373 -0.0806988 -3.31492e-21)
(0.981485 -0.0169044 1.98684e-20)
(1.14227 0.0588564 2.81706e-20)
(1.04435 -0.019117 8.37798e-21)
(0.152816 -0.535092 -1.15643e-19)
(1.01488 -0.00725611 3.04871e-21)
(1.13711 0.0463028 -3.06234e-20)
(0.0572579 0.0100628 -5.95877e-20)
(-0.0408623 0.0255468 -1.23309e-19)
(0.900895 -0.0743466 3.16037e-20)
(1.09792 0.0252839 2.88449e-20)
(1.00002 -0.00103753 -1.35343e-22)
(0.746161 -0.28573 0)
(1.00148 -0.0131109 -4.29177e-21)
(1.12884 -0.0758154 0)
(-0.037631 -0.0347468 1.41193e-23)
(0.894624 -0.0656043 3.57351e-22)
(1.07466 -0.0423035 -8.33796e-21)
(0.996255 -0.000612093 1.48184e-20)
(0.138524 0.0466568 0)
(1.02111 -0.0119424 3.07271e-21)
(0.899105 -0.429195 0)
(0.131207 0.0449723 0)
(1.2089 -0.187289 0)
(1.0001 -0.000460237 -3.40686e-22)
(1.28905 -0.322581 -5.39946e-21)
(0.00103818 0.0137503 8.61034e-21)
(0.516069 0.0523304 -2.54369e-20)
(1.08501 0.0583684 0)
(1.10275 -0.0125539 0)
(0.707077 -0.338705 0)
(1.14196 0.0568079 1.75206e-21)
(1.0784 0.0220959 1.42342e-20)
(1.08449 -0.415742 -3.51138e-20)
(1.04528 -0.130424 7.36547e-21)
(0.182412 0.00816909 0)
(1.15966 0.0330991 -5.17259e-21)
(1.01026 -0.000820406 -1.80403e-22)
(1.0799 -0.014117 0)
(1.08966 0.0599241 2.50677e-20)
(0.435431 0.0392834 -1.95227e-20)
(0.320043 0.0128106 0)
(1.01827 -0.0158361 -2.44226e-21)
(0.590518 -0.19749 3.58486e-20)
(0.992554 -0.0124134 7.22644e-21)
(1.1251 0.060228 -2.07752e-20)
(1.17367 0.0467346 0)
(1.08166 -0.0135236 0)
(1.12376 -0.00165704 -5.68882e-21)
(1.16265 0.0333322 0)
(0.999272 -0.0242977 -4.96743e-21)
(0.805374 -0.124736 -2.28246e-21)
(1.0965 0.0545835 0)
(1.17032 0.0699096 -1.63349e-20)
(0.997699 -0.00822325 6.64204e-21)
(0.981397 -0.0159162 -2.64738e-20)
(0.895391 -0.0728062 -7.31066e-20)
(0.38338 0.0510825 7.01283e-21)
(-0.254367 -0.00559805 0)
(1.11399 0.00939601 1.66882e-20)
(1.02929 -0.0162771 3.42049e-21)
(1.16499 0.0518397 6.4066e-20)
(1.17845 0.0442635 -6.54993e-20)
(1.11648 0.0501005 -1.34562e-20)
(1.12178 -0.00100022 0)
(0.352808 0.0472744 4.06794e-21)
(-0.128314 0.0084748 -2.84902e-20)
(1.08508 -0.0213369 0)
(1.0944 0.00753056 0)
(1.13123 -0.171678 -1.65429e-21)
(1.0199 -0.0213392 3.66668e-21)
(1.00136 -0.0062168 -2.3689e-21)
(1.11817 0.0507026 0)
(1.14607 -0.112563 0)
(1.02244 -0.0121234 3.84698e-21)
(1.00012 -0.00202956 -9.41333e-23)
(1.00125 -0.0134827 5.67405e-21)
(1.00421 -0.000627128 3.55229e-23)
(1.09936 -0.0043645 -5.61034e-20)
(1.00141 -0.00664004 -2.41921e-21)
(0.304811 0.0382775 4.89405e-21)
(1.1127 0.00598475 -2.91082e-20)
(1.01114 -0.0320363 -1.87092e-21)
(0.442844 0.038324 0)
(0.0839554 0.0268756 9.27241e-21)
(0.974529 -0.0175203 0)
(1.13596 0.0480913 3.7952e-20)
(-0.20499 0.00723883 1.7531e-20)
(0.973437 -0.0459358 -1.17028e-20)
(0.973157 -0.0168182 0)
(1.11498 0.00575536 0)
(0.0486463 0.0106722 -3.85741e-21)
(0.229484 -0.00589435 1.4904e-19)
(1.14126 0.00369817 0)
(1.00224 -0.000592849 0)
(0.766206 0.0758199 0)
(1.0009 -0.00765969 0)
(1.14695 0.00378196 -3.48017e-21)
(-0.188536 0.00981667 0)
(1.17033 0.0712 -6.62931e-20)
(1.05929 0.00139449 0)
(1.23494 -0.205478 0)
(1.33062 -0.175176 9.81438e-20)
(-0.113374 -0.00472668 0)
(1.21193 -0.0230908 -6.9868e-20)
(0.780293 -0.0935695 0)
(-0.0129863 0.0261298 2.8348e-20)
(0.13688 0.0370304 -2.55091e-20)
(1.16618 0.0697212 -4.48439e-20)
(1.04179 -0.0280459 1.65863e-20)
(-0.259175 -0.00543772 -6.87549e-23)
(0.13673 0.00313394 1.87645e-20)
(0.460718 -0.449291 -1.643e-19)
(0.495915 -0.455283 1.06823e-19)
(0.935685 -0.021108 -5.5312e-21)
(1.14439 -0.00351673 3.71737e-20)
(0.946918 -0.116045 3.06831e-20)
(0.250975 0.0104163 -1.91861e-20)
(0.785233 -0.14042 0)
(1.00807 -0.00190913 0)
(1.01969 -8.41413e-05 0)
(1.0687 -0.0795952 0)
(-0.140469 -0.00757198 4.34993e-23)
(0.20648 -0.541876 0)
(1.01992 -0.0205501 -1.57633e-21)
(-0.0562393 0.0241203 8.34453e-20)
(0.936125 -0.113331 0)
(1.09777 -0.0664247 -4.09394e-20)
(1.06068 0.00261923 1.07204e-20)
(0.0390636 0.00843391 0)
(1.16242 0.0513662 -7.07165e-20)
(1.08768 0.0594734 2.31182e-20)
(1.02145 -0.0784904 1.05081e-21)
(1.07212 -0.0415232 0)
(0.516047 0.0425424 -1.05817e-20)
(0.976597 -0.0244636 1.77138e-20)
(1.18226 0.044299 0)
(1.08363 -0.0201751 0)
(1.11629 0.00453142 0)
(0.930259 -0.115636 0)
(0.991895 -0.0123846 -1.46599e-20)
(1.01191 -0.0316353 1.67633e-21)
(1.22556 -0.0816767 1.71349e-20)
(1.22495 -0.188456 0)
(1.15603 0.036012 0)
(1.35733 -0.178408 6.88673e-20)
(0.526284 0.044029 -4.84035e-21)
(1.00791 -0.0728422 -1.2614e-20)
(0.11502 0.0438996 -3.48373e-20)
(1.12894 0.0640625 0)
(1.02738 -0.008307 5.31362e-21)
(1.15723 0.0733547 6.15274e-20)
(1.1316 0.0345789 6.03088e-20)
(-0.152183 0.0113506 5.58001e-20)
(1.06669 -0.077142 1.71423e-20)
(1.0814 0.0472947 -4.25291e-22)
(1.0921 0.0701687 1.66332e-20)
(1.28295 -0.0826849 0)
(1.22236 -0.0924213 -1.29005e-19)
(0.241533 0.010398 1.61315e-20)
(1.04526 -0.0386491 7.57893e-21)
(1.11455 0.072452 -5.32622e-20)
(-0.333449 -0.00344054 -2.70682e-20)
(1.09848 -0.0240446 5.16985e-20)
(0.203905 0.0118032 -2.2694e-20)
(1.10536 -0.0257969 6.19109e-20)
(0.157002 0.0466105 -1.63919e-20)
(1.09356 0.00646722 0)
(1.07573 0.0331771 0)
(1.1661 0.028528 2.24869e-20)
(1.24986 -0.165428 -6.28568e-20)
(0.98361 -0.00927662 -2.26259e-20)
(1.0826 -0.0264102 -1.04196e-20)
(1.15043 -0.115429 -3.59297e-20)
(1.08023 0.0207763 -1.61896e-20)
(1.01257 -0.0245385 -1.79001e-22)
(1.11372 0.0111989 0)
(0.632081 0.0769197 0)
(0.994296 -0.0259421 1.0867e-20)
(1.09962 0.0234039 0)
(-0.2157 -0.0129125 2.48569e-19)
(1.06537 -0.0390994 1.88008e-20)
(1.25686 -0.479689 -7.99872e-20)
(1.08528 0.0317674 5.02345e-20)
(0.292268 -0.00634593 -2.06614e-19)
(1.0773 -0.045792 0)
(1.08515 0.0434992 2.51109e-20)
(0.917216 -0.682551 0)
(1.17278 0.0484371 3.80724e-21)
(1.12715 -0.0106313 -4.89745e-20)
(0.300123 0.00976147 -2.65603e-23)
(-0.0191287 0.0103432 0)
(1.25667 -0.3173 3.92063e-20)
(0.998502 -0.0243557 -2.21184e-22)
(1.22163 -0.0783785 0)
(1.10701 -0.0322931 4.60483e-20)
(1.08222 0.0465698 0)
(1.02687 -0.0174791 -8.5957e-21)
(-0.243427 -0.00233072 -4.69444e-22)
(0.587172 0.0740332 -2.42189e-20)
(1.2469 -0.0470332 0)
(1.07171 -0.0395563 -4.06653e-21)
(1.1656 0.0306308 0)
(1.10491 0.0680997 0)
(-0.240043 -0.00801498 0)
(1.02415 -0.00324248 0)
(-0.295218 -0.00249752 -1.14797e-19)
(1.26029 -0.150835 -5.11196e-20)
(0.293203 -0.179398 7.83734e-20)
(1.0496 -0.133197 6.76507e-22)
(1.16982 0.0690969 1.39251e-19)
(0.98731 -0.0164724 2.64523e-21)
(1.00123 -0.000355141 0)
(0.131548 0.00854624 4.85161e-20)
(1.10665 0.0686365 2.82608e-21)
(0.990372 -0.00795092 -1.01601e-20)
(1.07031 -0.0245107 0)
(1.10125 0.0235313 0)
(1.01259 -0.00867613 -8.98193e-22)
(0.661045 0.076322 2.30983e-20)
(1.14425 -0.000930407 0)
(1.13206 0.0333241 -5.69587e-20)
(1.07425 -7.45102e-05 1.89048e-20)
(1.04593 -0.0374895 -1.20028e-20)
(0.97188 -0.00615017 3.34742e-20)
(1.31966 -0.0943654 4.44053e-20)
(1.01 -0.0312833 -1.04674e-21)
(0.972954 -0.00512919 -1.52448e-20)
(0.879835 0.0705651 0)
(0.666041 0.0750366 0)
(1.03173 -0.0896211 -1.69027e-21)
(1.09664 0.0683556 1.70128e-20)
(0.995665 -0.00207174 -5.11776e-23)
(1.00152 -0.0062934 7.21357e-21)
(1.06762 -0.0399661 1.3254e-20)
(1.15852 0.0362679 1.89323e-22)
(1.08206 0.0332101 -2.46101e-20)
(1.01243 -0.0259705 0)
(1.05488 -0.0300705 2.38709e-20)
(1.11301 -0.347608 0)
(1.06233 -0.0173241 8.8622e-21)
(0.330814 -0.0172349 7.38745e-20)
(1.00137 -0.00775588 5.31468e-21)
(1.07382 0.0110106 4.79564e-21)
(0.490947 0.0503075 0)
(0.937837 -0.158991 -2.35421e-20)
(1.01889 -0.000691171 1.11579e-21)
(1.00038 -0.00664481 0)
(1.07393 -0.0010367 -2.31025e-20)
(1.04767 -0.0097035 2.16589e-20)
(1.23957 -0.368064 4.02454e-20)
(0.800402 0.0680573 9.0699e-21)
(1.10365 -0.0110083 -2.62441e-21)
(0.320863 -1.12343 0)
(1.06924 -0.03855 -1.33898e-20)
(1.00014 -0.010515 6.33364e-22)
(0.261923 0.0472742 -3.49192e-20)
(1.0936 0.0696176 -1.70819e-20)
(0.877125 -0.121567 4.08765e-20)
(0.995422 -0.0297915 8.3214e-21)
(0.124669 0.0343957 0)
(0.857308 -0.0923393 2.26186e-20)
(1.18155 -0.642544 0)
(0.988778 -0.0268206 3.59397e-21)
(1.09953 -0.0581578 5.75227e-20)
(1.22631 -0.0890982 1.34047e-19)
(1.08644 0.0188303 0)
(0.170758 0.0422043 -2.36625e-20)
(1.10428 0.0682369 2.89133e-21)
(1.30063 -0.0576947 2.9182e-20)
(0.975911 -0.0696475 -8.38605e-21)
(1.21312 -0.0193733 7.90356e-20)
(1.00039 -0.0255724 -5.79901e-21)
(0.422065 0.0396831 1.47544e-20)
(1.08584 0.0310727 -2.39831e-20)
(1.1208 0.051645 6.9817e-22)
(1.10541 -0.0304417 -2.81285e-20)
(1.02199 -0.0753419 0)
(0.944308 -0.156603 4.31324e-21)
(1.14135 -0.00501157 5.97075e-20)
(1.0018 -0.000540694 0)
(-0.270799 -0.00393152 1.22951e-19)
(0.232367 0.0438732 3.82818e-20)
(0.371631 -0.0224533 1.23479e-19)
(-0.180259 -0.00374658 0)
(0.819965 0.0694716 0)
(-0.241958 0.00460538 0)
(1.1774 0.0466699 7.33659e-20)
(0.912145 -0.0780215 2.55547e-20)
(0.999652 -0.00268416 0)
(1.23431 -0.481411 0)
(0.991103 -0.00670747 0)
(1.01227 -0.0238612 0)
(0.906078 -0.0946628 0)
(0.00756717 0.0341562 -9.59531e-20)
(1.06782 -0.0164257 0)
(0.970164 -0.038822 3.21623e-21)
(1.0737 -0.279438 1.60297e-21)
(1.13515 -0.0318441 2.90032e-20)
(0.989128 -0.00205987 -1.45e-20)
(0.698097 0.024662 -4.35786e-20)
(1.00813 -0.0229877 0)
(0.270342 0.0527986 -2.3488e-20)
(1.22959 -0.352522 0)
(1.00513 -0.0182613 -2.14257e-21)
(1.06256 -0.0080075 -2.07954e-20)
(1.26311 -0.122768 0)
(1.15939 0.0715131 0)
(1.02183 -0.0124051 -3.05072e-21)
(0.981584 -0.0872829 1.00584e-19)
(1.07111 -0.400367 0)
(1.03128 -0.00302077 0)
(-0.06878 0.00578047 3.38983e-20)
(1.19126 0.0451069 7.69471e-20)
(1.1406 0.0445731 0)
(0.974473 -0.0679121 -3.83485e-21)
(0.896946 0.0716845 -4.23632e-21)
(-0.0737544 0.0123986 -1.11748e-20)
(1.03197 -0.00322621 -4.84466e-21)
(1.23085 0.00439058 -4.95902e-20)
(1.01746 -0.0394081 1.15381e-22)
(1.00858 -0.023555 0)
(0.95646 0.0690736 -2.79426e-20)
(0.161064 0.0472489 -2.00589e-20)
(1.11868 -0.0310532 0)
(1.08097 0.033016 2.07322e-20)
(0.990472 -0.00543278 -1.49037e-20)
(1.09002 0.0383719 0)
(0.255859 0.0520303 -1.80403e-20)
(-0.0381919 0.0199653 -3.04678e-20)
(1.03511 -0.00629955 1.24734e-21)
(-0.294788 0.00177614 -1.78842e-19)
(1.01206 -0.0253334 0)
(1.0187 -0.0401437 4.87078e-22)
(1.1279 -0.00870151 7.64555e-20)
(1.07027 0.0152959 2.24227e-20)
(1.02438 -0.00295912 4.64959e-21)
(1.0173 -0.0732082 4.1145e-22)
(-0.0534691 0.00587796 1.47642e-19)
(1.24467 -0.161904 4.84217e-20)
(-0.084573 0.00533702 0)
(1.06578 -0.0169028 -2.85416e-21)
(0.992763 -0.0131306 3.64413e-22)
(0.406056 0.0507064 -1.53969e-20)
(0.99943 -0.00382318 -2.35733e-21)
(1.22202 -0.0681979 1.44537e-19)
(1.07764 0.00573304 1.9319e-20)
(1.08241 0.0180071 -3.31782e-20)
(1.10379 -0.0167054 -3.73595e-20)
(0.596685 0.058604 -1.10663e-20)
(-0.114787 0.010761 5.01171e-20)
(1.08068 -0.0305248 0)
(-0.293638 -0.00368051 2.51925e-20)
(1.05826 -0.000606964 1.38814e-20)
(1.1518 -0.0160597 2.82051e-20)
(0.480736 0.0468965 1.0989e-20)
(0.168676 0.0154646 0)
(1.0112 -0.0400119 -1.49811e-21)
(0.999654 -0.0254638 0)
(0.817621 -0.156725 0)
(-0.0741983 0.00632686 -1.61e-19)
(1.08914 0.0670352 1.26469e-20)
(1.08894 0.0380268 -1.0212e-20)
(1.07212 -0.563191 1.47329e-19)
(1.07015 0.0160099 -2.45316e-20)
(1.09158 0.00702854 0)
(0.0537852 -0.0462408 -1.32207e-19)
(0.645011 0.0162551 0)
(1.08649 -0.337556 4.9832e-20)
(0.254356 0.0506494 0)
(1.11206 0.0613243 -3.88513e-20)
(0.532168 0.0470519 2.6952e-21)
(1.04111 -0.0373884 -9.74532e-21)
(1.09848 0.0720476 9.44217e-21)
(1.22074 0.0645119 -9.4741e-20)
(0.999801 -0.00910014 4.43003e-21)
(-0.318376 0.0017754 0)
(0.446984 0.0562392 0)
(1.03203 -0.122003 -1.99977e-21)
(1.10738 0.0177474 0)
(1.00184 -0.0351835 -6.10553e-21)
(0.468156 -0.839939 0)
(1.14435 -0.184187 0)
(0.589821 -0.189201 1.77002e-19)
(1.00931 -0.0317896 3.78509e-21)
(1.00073 -0.00048448 0)
(0.910064 -0.0457762 0)
(1.13397 -0.034538 0)
(1.00143 -0.00747004 -2.72763e-21)
(-0.022819 0.0310751 6.81156e-20)
(1.00085 -0.000579654 -1.13011e-21)
(1.11321 0.0607962 3.56697e-20)
(0.969248 -0.066339 2.85429e-20)
(1.0831 0.0470608 0)
(0.990331 -0.0273269 1.13349e-20)
(0.9884 -0.00216631 -1.23667e-21)
(1.09297 -0.158221 1.49414e-20)
(-0.293139 -0.000141421 -5.53354e-20)
(1.12893 -0.0154767 -2.57636e-20)
(-0.0719555 0.0234876 1.52969e-20)
(1.09993 -0.0611847 -4.08757e-20)
(1.01278 -0.00968814 -7.9809e-22)
(1.03025 -0.0107119 -7.52579e-21)
(1.14387 -0.00985397 -3.13901e-21)
(1.05377 -0.0310487 -8.93321e-21)
(1.18622 -0.0257544 0)
(1.07197 -0.0183429 1.65129e-20)
(0.877069 -0.113858 0)
(1.09415 0.0714058 -9.26045e-21)
(0.999312 -0.00354524 -4.90253e-21)
(0.324636 0.00802035 1.18241e-20)
(1.00006 -0.00140545 0)
(1.08285 0.0524709 4.29792e-20)
(-0.276336 -0.00357183 0)
(0.44984 0.0492946 -3.11186e-21)
(0.881773 -0.026211 0)
(0.800978 -0.27007 -7.04321e-20)
(1.06251 -0.27881 -2.24314e-20)
(1.22273 -0.241382 3.7429e-20)
(0.415695 0.0576283 0)
(1.03746 -0.0073369 -1.70619e-20)
(0.604731 0.021999 -2.81101e-20)
(0.941503 -0.118142 -1.83274e-20)
(1.10098 -0.0240072 1.04401e-22)
(-0.168407 -0.00589187 -8.63972e-20)
(1.27749 0.0116454 7.90944e-21)
(1.02782 -0.00876954 0)
(1.1843 -0.0282078 2.22114e-20)
(1.04423 -0.0099988 1.22728e-20)
(0.496114 0.042945 -2.73221e-21)
(-0.261705 0.00455379 -8.68401e-20)
(1.0238 -0.0415054 0)
(0.691659 -0.146295 0)
(0.655687 0.0749143 -3.01658e-20)
(0.999983 -0.00116085 -5.77225e-21)
(0.999975 -0.0015564 3.4889e-21)
(1.08491 0.0451369 3.57578e-20)
(0.305606 0.00535021 -1.32988e-20)
(0.97223 0.0752101 1.40494e-20)
(0.973383 -0.0154354 0)
(1.17051 0.0248707 0)
(1.06062 -0.017302 -1.72122e-20)
(0.987281 -0.00314765 -8.49322e-21)
(1.09307 0.0722929 0)
(1.16967 0.0273973 -2.51433e-20)
(1.21878 -0.173572 0)
(1.02285 -0.00271911 0)
(1.0976 0.0542065 0)
(0.906086 -0.206081 0)
(1.08371 0.0418148 0)
(0.956996 -0.0179158 -3.49347e-20)
(1.00717 -0.0667204 0)
(1.13671 -0.184111 4.00918e-21)
(0.914235 -0.0468941 1.27647e-20)
(1.09557 0.0564207 0)
(1.11802 0.0094571 3.78764e-21)
(1.12089 0.00646602 3.27036e-20)
(1.07495 -0.325009 -3.19841e-20)
(1.17376 -0.653254 3.75834e-20)
(1.197 0.0424601 0)
(0.70771 0.0690991 -2.38064e-20)
(1.08793 -0.0926436 -1.39247e-19)
(1.0931 0.0591142 3.66424e-20)
(0.117929 0.018772 -2.16008e-20)
(1.02246 -0.174887 3.75654e-21)
(0.926098 0.0683772 3.22878e-20)
(1.13952 0.046524 0)
(1.03144 -0.0202167 0)
(1.09051 0.00592346 1.77796e-20)
(1.1936 0.0385501 -7.18762e-20)
(1.05633 -0.0855938 -1.49283e-20)
(1.0048 -0.01703 -2.22516e-22)
(1.00531 -0.0161346 6.33762e-21)
(1.08455 0.0524293 2.17967e-21)
(0.234506 0.00771193 1.73777e-20)
(1.0752 0.010901 1.04536e-20)
(0.0964251 0.0406733 0)
(1.01259 -0.0100554 6.63426e-22)
(0.940957 0.0743632 -1.91933e-20)
(1.00015 -0.369266 1.27253e-21)
(-0.215683 0.00689782 0)
(1.18507 -0.0334093 0)
(1.0795 -0.0451638 5.72004e-21)
(1.06941 -0.0204627 0)
(-0.203264 0.00989898 1.55013e-20)
(1.22071 -0.167935 1.25614e-19)
(1.02291 -0.168007 0)
(1.10535 0.0687968 -3.14893e-21)
(1.04466 -0.0354855 1.03461e-20)
(1.2549 -0.436443 -8.58181e-20)
(1.08377 0.0528439 -9.45606e-21)
(1.11475 0.0609584 -1.79183e-20)
(1.10459 -0.0420245 3.96933e-20)
(1.27865 -0.137787 -6.007e-20)
(0.988038 -0.0169022 -1.50613e-20)
(1.00007 -0.00164719 -3.1673e-22)
(0.940605 -0.0195367 -2.13812e-20)
(0.986634 -0.0039006 1.75226e-20)
(0.461216 0.0454944 -1.17569e-20)
(1.00396 -0.000769264 0)
(1.08922 0.0710124 9.68081e-23)
(0.371556 0.0485246 -1.60055e-20)
(1.18874 -0.0349366 2.59652e-20)
(-0.0211833 0.0231948 2.97198e-20)
(-0.151877 0.0100564 0)
(1.1158 0.0615965 2.39817e-20)
(1.23165 -0.237561 -6.79989e-21)
(0.884647 -0.0336127 9.8144e-22)
(0.998593 -0.000111054 2.21766e-21)
(0.982636 -0.0151786 0)
(1.02027 -0.00633825 -3.06852e-21)
(1.02955 -0.0107772 7.30438e-21)
(1.00101 -0.000541386 -1.15729e-21)
(1.14971 -0.00988693 -2.76016e-20)
(1.20356 -0.00543418 -5.99719e-20)
(0.902816 -0.217611 0)
(1.17223 0.0692234 -4.15443e-20)
(1.02299 -0.0627081 1.98563e-21)
(0.279239 0.0357756 1.11502e-22)
(0.999979 -0.000144007 -1.83001e-21)
(-0.157261 -0.0171405 -1.19443e-19)
(1.1178 -0.0887116 -2.59576e-20)
(0.999934 -0.000279155 0)
(0.996986 -0.000850532 7.01206e-21)
(0.43274 0.0491935 -1.67838e-20)
(1.08119 -0.0385041 2.01874e-22)
(0.975642 0.0711138 1.02119e-22)
(0.465706 0.0564398 0)
(1.10411 0.0173975 0)
(1.12677 0.0225797 5.21955e-20)
(1.03084 -0.00221287 -8.39502e-21)
(0.334288 0.0568842 1.90706e-20)
(0.984745 -0.080359 1.60967e-21)
(1.06889 -0.0176322 1.72721e-21)
(1.09497 0.0719392 0)
(0.998624 -0.000602996 1.69512e-20)
(0.973489 -0.0418212 -1.90802e-20)
(1.035 -0.011687 0)
(1.08789 0.029934 0)
(0.209175 0.00922233 3.06121e-20)
(1.09111 -0.0577694 -2.86431e-20)
(1.10541 -0.0368652 -1.99499e-20)
(1.26391 -0.158404 2.86433e-20)
(-0.0706445 0.017917 1.22485e-19)
(0.886268 -0.0558478 0)
(0.986817 -0.103745 -7.54708e-21)
(0.514362 0.0480312 7.85395e-21)
(1.01986 -0.00614202 -2.81768e-21)
(0.503235 0.0467677 -1.48238e-20)
(1.00039 -0.00120203 -1.48634e-21)
(1.06284 -0.0158082 -2.44255e-20)
(1.25217 -0.0101418 0)
(1.10391 0.0437655 4.2523e-20)
(1.11548 0.0530813 -2.03906e-20)
(1.1895 -0.0935633 8.01665e-20)
(1.12962 -0.0131349 -9.07909e-21)
(0.99951 -0.00082359 1.069e-20)
(0.999988 -0.000152063 -7.72509e-21)
(1.15544 -0.0150527 6.32863e-20)
(1.04263 -0.0372609 5.09791e-21)
(0.999632 -0.000658583 -1.58782e-20)
(1.07386 0.0146436 -3.98325e-20)
(1.25107 -0.199953 0)
(1.00469 -0.00557558 2.39759e-21)
(1.21009 -0.255337 -5.76147e-20)
(1.28005 -0.467757 8.0671e-20)
(1.02033 0.0725588 0)
(1.18776 -0.0889661 -5.22162e-20)
(-0.0431412 -0.0210736 -8.66504e-20)
(0.838486 -0.0898951 6.94915e-21)
(0.998451 -0.000429684 -1.5523e-20)
(1.22142 -0.104065 -4.75636e-20)
(1.01203 -0.0104794 0)
(1.08318 -0.0245031 0)
(0.753594 0.0720516 2.69009e-20)
(0.538088 0.0430209 -8.98128e-21)
(0.594736 0.0219853 2.74578e-20)
(0.555557 0.0524427 2.58239e-21)
(1.0275 -0.0418198 0)
(1.02368 -0.040684 0)
(0.978559 -0.276787 2.93377e-21)
(1.00363 -0.0641346 -4.70768e-22)
(1.02196 -0.0189248 -3.59742e-21)
(0.569642 -0.291523 -8.11992e-20)
(1.12354 0.0613768 3.35938e-22)
(0.192999 0.013571 -2.26035e-20)
(1.08222 0.0528854 -3.7575e-20)
(1.10514 0.0441621 -2.75909e-20)
(0.98523 -0.0057307 -1.00832e-20)
(1.02025 -0.0126278 1.88719e-21)
(1.30043 -0.327863 -1.01645e-19)
(1.13396 0.0320858 -3.03898e-20)
(1.06481 -0.0156194 -8.74764e-21)
(0.999802 -8.76925e-05 2.10886e-21)
(1.11281 0.0538378 1.87481e-20)
(1.22358 -0.0339107 8.04498e-20)
(0.108067 0.0418473 0)
(0.97243 -0.0200796 -4.88846e-21)
(1.0009 -0.00334775 3.53052e-21)
(0.190368 0.0070299 -1.09659e-20)
(0.95812 -0.016539 3.05343e-20)
(1.10458 -0.0212764 0)
(1.01222 -0.00819728 0)
(0.0284998 0.0367836 1.17898e-19)
(1.00971 -0.000477077 0)
(-0.268285 -0.00671552 0)
(0.994795 -0.00571595 -7.15238e-21)
(1.20052 -0.19125 5.88951e-20)
(1.10901 -0.00110724 4.94683e-20)
(0.955008 -0.28073 0)
(1.10644 -0.0402723 -2.30213e-20)
(0.992853 -0.0250177 8.86593e-21)
(1.07009 -0.0272358 -8.39157e-21)
(1.00332 -0.0040169 -1.05844e-21)
(1.08568 0.0703383 -2.41738e-20)
(0.961168 -0.0256683 -1.46778e-20)
(0.340763 0.0165273 1.20158e-20)
(1.04676 -0.0346094 -7.4044e-21)
(1.0151 0.0822187 0)
(0.302114 0.0485298 0)
(1.1005 -0.0466258 0)
(1.00392 -0.00287173 2.13094e-21)
(-0.189282 -0.0180344 0)
(0.797394 0.0688686 9.42142e-21)
(1.08298 -0.0303757 -5.83919e-21)
(1.10238 0.0441134 -1.03551e-20)
(0.982669 -0.0142344 1.60896e-21)
(0.271638 0.00842225 -3.1175e-20)
(1.03232 -0.0208642 -5.28277e-21)
(1.19619 0.036063 0)
(0.99915 -0.00992374 0)
(1.0036 -0.00418835 1.27015e-21)
(1.01308 0.0745023 0)
(1.10447 -0.0149479 3.87036e-20)
(1.00043 -0.00715021 1.24933e-22)
(1.07499 0.0221715 -4.07996e-21)
(0.166686 0.0452428 0)
(0.72342 -0.792471 0)
(0.60646 0.0739223 2.75763e-22)
(1.01743 -0.0158296 -8.53069e-22)
(0.13578 0.0214093 -5.99978e-21)
(0.997464 -0.00871028 0)
(1.0045 -0.00526403 -1.86622e-21)
(0.973734 -0.0229216 1.45714e-20)
(1.01969 -0.000160312 0)
(0.999873 -0.00211929 -4.36587e-21)
(0.554907 0.071456 4.22839e-20)
(0.722467 0.0734814 1.46315e-20)
(1.04489 -0.0201348 -5.44898e-21)
(1.00089 -0.000795212 -5.8714e-22)
(1.11984 -0.0282161 0)
(1.01563 -0.0227578 1.65275e-22)
(-0.157662 -0.0223913 0)
(1.22539 -0.100093 0)
(0.0982453 0.0148897 -4.50526e-21)
(-0.000294313 0.0257494 0)
(1.0697 -0.0283232 2.78016e-20)
(1.09651 0.0560484 0)
(0.99982 -0.00964394 6.44892e-22)
(1.11122 0.00236444 -1.23395e-20)
(0.994777 -0.351558 -5.644e-21)
(1.03677 -0.00674177 2.03893e-20)
(1.00033 -0.00118163 0)
(1.29695 -0.306176 3.57957e-20)
(-0.250704 0.00538958 0)
(1.12472 0.0227358 -3.52864e-20)
(-0.339862 -0.00509744 0)
(1.10918 0.030917 1.92128e-20)
(0.995773 -0.00292924 4.42771e-21)
(1.12386 -0.0396847 0)
(1.10169 0.0447815 0)
(-0.307482 0.000724711 1.08793e-19)
(1.09734 -0.00544915 0)
(1.10778 0.0726749 4.48266e-20)
(1.13617 0.03233 1.69563e-20)
(1.0002 -0.00226737 -6.33785e-21)
(0.374355 -0.117664 -1.81754e-19)
(0.27144 -0.0816724 2.00848e-19)
(0.241275 0.0139297 -9.39196e-21)
(1.26673 0.0138119 -9.21555e-21)
(0.967572 0.0672617 0)
(0.97884 -0.0704943 3.84571e-21)
(0.728061 -0.352112 0)
(0.972352 -0.0033863 9.56692e-21)
(1.14625 0.0763776 1.52444e-20)
(1.05525 -0.0823145 0)
(1.0079 -0.00151986 -4.36392e-23)
(0.55959 0.0724939 -1.17768e-19)
(1.01928 -0.0618607 0)
(1.00384 -0.0026372 3.66253e-23)
(1.01247 -0.0400571 3.24435e-21)
(1.01787 -0.0601538 5.40008e-22)
(-0.00313997 0.0337474 -1.05994e-19)
(1.18771 0.0414178 -4.44542e-21)
(1.01183 -0.0146296 -3.12164e-23)
(1.12568 -0.0370007 2.95655e-20)
(0.0626129 0.0117007 7.2431e-21)
(1.03685 -0.0565967 -1.35238e-21)
(-0.354889 -0.00308477 1.03462e-19)
(0.957406 -0.0425047 -1.00365e-20)
(1.10955 0.0399427 -4.05399e-22)
(0.122435 0.0459276 -3.55354e-20)
(1.00123 -0.0068712 0)
(1.08582 0.0681666 -1.38615e-20)
(1.06519 -0.0971868 1.28707e-20)
(1.10353 -0.0475622 0)
(0.678449 -0.820089 -1.3137e-20)
(1.02166 -0.0612002 -1.97304e-21)
(1.25814 -0.0697342 1.18919e-20)
(1.08394 0.0431098 -2.33371e-20)
(0.210259 0.0503149 -3.01007e-20)
(1.04568 -0.00457255 0)
(0.293725 0.013669 -2.02047e-21)
(1.09733 -0.0264288 -1.71598e-20)
(0.0610536 0.021337 8.18065e-21)
(-0.293179 0.0030037 9.77849e-20)
(0.270735 0.00947907 -1.53421e-20)
(1.10181 0.0198162 -1.45996e-20)
(0.989905 -0.0233876 -1.03848e-20)
(1.02686 -0.0429844 0)
(0.999965 -0.0011173 5.74707e-21)
(1.07511 0.0321293 -1.61727e-20)
(0.996958 -0.00271957 1.11398e-20)
(0.183704 0.0440774 2.67044e-20)
(1.02842 -0.113862 3.26562e-21)
(0.925245 -0.0864123 0)
(0.889181 -0.0524785 1.80034e-20)
(0.980895 -0.0691383 1.2096e-20)
(1.01702 -0.0152733 1.90834e-21)
(1.06425 0.0170989 -1.68861e-20)
(1.06212 -0.0832256 0)
(1.06247 -0.00918843 -2.60603e-20)
(1.04227 -0.0947507 -9.7524e-21)
(0.339843 0.0570553 -9.24262e-20)
(1.08269 0.0694345 1.58907e-20)
(1.09433 -0.0182303 1.62356e-20)
(1.11275 -0.147413 0)
(0.590992 0.0714739 9.7706e-20)