/*--------------------------------*- C++ -*----------------------------------*\
| =========                 |                                                 |
| \\      /  F ield         | OpenFOAM: The Open Source CFD Toolbox           |
|  \\    /   O peration     | Version:  v2012                                 |
|   \\  /    A nd           | Website:  www.openfoam.com                      |
|    \\/     M anipulation  |                                                 |
\*---------------------------------------------------------------------------*/
FoamFile
{
    version     2.0;
    format      ascii;
    class       pointVectorField;
    location    "950";
    object      pointDisplacement;
}
// * * * * * * * * * * * * * * * * * * * * * * * * * * * * * * * * * * * * * //

dimensions      [0 1 0 0 0 0 0];


internalField   nonuniform List<vector> 
14386
(
(0 0 0)
(-0 -0.08 -0)
(0 0 0)
(-0 -0.08 -0)
(0 0 0)
(0 0 0)
(0 0 0)
(0 0 0)
(0 0 0)
(0 0 0)
(0 0 0)
(0 0 0)
(0 0 0)
(0 0 0)
(0 0 0)
(0 0 0)
(0 0 0)
(0 0 0)
(0 0 0)
(0 0 0)
(0 0 0)
(0 0 0)
(0 0 0)
(0 0 0)
(0 0 0)
(0 0 0)
(0 0 0)
(0 0 0)
(0 0 0)
(0 0 0)
(0 0 0)
(0 0 0)
(0 0 0)
(0 0 0)
(0 0 0)
(0 0 0)
(0 0 0)
(0 0 0)
(0 0 0)
(0 0 0)
(0 0 0)
(0 0 0)
(0 0 0)
(0 0 0)
(0 0 0)
(0 0 0)
(0 0 0)
(0 0 0)
(0 0 0)
(0 0 0)
(0 0 0)
(0 0 0)
(0 0 0)
(0 0 0)
(0 0 0)
(0 0 0)
(0 0 0)
(0 0 0)
(0 0 0)
(0 0 0)
(0 0 0)
(0 0 0)
(0 0 0)
(0 0 0)
(0 0 0)
(0 0 0)
(0 0 0)
(0 0 0)
(0 0 0)
(0 0 0)
(0 0 0)
(0 0 0)
(0 0 0)
(0 0 0)
(0 0 0)
(0 0 0)
(0 0 0)
(0 0 0)
(0 0 0)
(0 0 0)
(0 0 0)
(0 0 0)
(0 0 0)
(0 0 0)
(0 0 0)
(0 0 0)
(0 0 0)
(0 0 0)
(0 0 0)
(0 0 0)
(0 0 0)
(0 0 0)
(0 0 0)
(0 0 0)
(0 0 0)
(0 0 0)
(0 0 0)
(0 0 0)
(0 0 0)
(0 0 0)
(0 0 0)
(0 0 0)
(0 0 0)
(0 0 0)
(0 0 0)
(0 0 0)
(0 0 0)
(0 0 0)
(0 0 0)
(0 0 0)
(0 0 0)
(0 0 0)
(0 0 0)
(0 0 0)
(0 0 0)
(0 0 0)
(0 0 0)
(0 0 0)
(0 0 0)
(0 0 0)
(0 0 0)
(0 0 0)
(0 0 0)
(0 0 0)
(0 0 0)
(0 0 0)
(0 0 0)
(0 0 0)
(0 0 0)
(0 0 0)
(0 0 0)
(0 0 0)
(0 0 0)
(-0 -0.08 -0)
(-0 -0.08 -0)
(-0 -0.08 -0)
(-0 -0.08 -0)
(-0 -0.08 -0)
(-0 -0.08 -0)
(-0 -0.08 -0)
(-0 -0.08 -0)
(-0 -0.08 -0)
(-0 -0.08 -0)
(-0 -0.08 -0)
(-0 -0.08 -0)
(-0 -0.08 -0)
(-0 -0.08 -0)
(-0 -0.08 -0)
(-0 -0.08 -0)
(-0 -0.08 -0)
(-0 -0.08 -0)
(-0 -0.08 -0)
(-0 -0.08 -0)
(-0 -0.08 -0)
(-0 -0.08 -0)
(-0 -0.08 -0)
(-0 -0.08 -0)
(-0 -0.08 -0)
(-0 -0.08 -0)
(-0 -0.08 -0)
(-0 -0.08 -0)
(-0 -0.08 -0)
(0 0 0)
(0 0 0)
(0 0 0)
(0 0 0)
(0 0 0)
(0 0 0)
(0 0 0)
(0 0 0)
(0 0 0)
(0 0 0)
(0 0 0)
(0 0 0)
(0 0 0)
(0 0 0)
(0 0 0)
(0 0 0)
(0 0 0)
(0 0 0)
(0 0 0)
(0 0 0)
(0 0 0)
(0 0 0)
(0 0 0)
(0 0 0)
(0 0 0)
(0 0 0)
(0 0 0)
(0 0 0)
(0 0 0)
(0 0 0)
(0 0 0)
(0 0 0)
(0 0 0)
(0 0 0)
(0 0 0)
(0 0 0)
(0 0 0)
(0 0 0)
(0 0 0)
(0 0 0)
(0 0 0)
(0 0 0)
(0 0 0)
(0 0 0)
(0 0 0)
(0 0 0)
(0 0 0)
(0 0 0)
(0 0 0)
(0 0 0)
(0 0 0)
(0 0 0)
(0 0 0)
(0 0 0)
(0 0 0)
(0 0 0)
(0 0 0)
(0 0 0)
(0 0 0)
(0 0 0)
(0 0 0)
(0 0 0)
(0 0 0)
(0 0 0)
(0 0 0)
(0 0 0)
(0 0 0)
(0 0 0)
(0 0 0)
(0 0 0)
(0 0 0)
(0 0 0)
(0 0 0)
(0 0 0)
(0 0 0)
(0 0 0)
(0 0 0)
(0 0 0)
(0 0 0)
(0 0 0)
(0 0 0)
(0 0 0)
(0 0 0)
(0 0 0)
(0 0 0)
(0 0 0)
(0 0 0)
(0 0 0)
(0 0 0)
(0 0 0)
(0 0 0)
(0 0 0)
(0 0 0)
(0 0 0)
(0 0 0)
(0 0 0)
(0 0 0)
(0 0 0)
(0 0 0)
(0 0 0)
(0 0 0)
(0 0 0)
(0 0 0)
(0 0 0)
(0 0 0)
(0 0 0)
(0 0 0)
(0 0 0)
(0 0 0)
(0 0 0)
(0 0 0)
(0 0 0)
(0 0 0)
(0 0 0)
(0 0 0)
(0 0 0)
(0 0 0)
(0 0 0)
(0 0 0)
(0 0 0)
(0 0 0)
(0 0 0)
(0 0 0)
(0 0 0)
(0 0 0)
(0 0 0)
(0 0 0)
(0 0 0)
(0 0 0)
(-0 -0.08 -0)
(-0 -0.08 -0)
(-0 -0.08 -0)
(-0 -0.08 -0)
(-0 -0.08 -0)
(-0 -0.08 -0)
(-0 -0.08 -0)
(-0 -0.08 -0)
(-0 -0.08 -0)
(-0 -0.08 -0)
(-0 -0.08 -0)
(-0 -0.08 -0)
(-0 -0.08 -0)
(-0 -0.08 -0)
(-0 -0.08 -0)
(-0 -0.08 -0)
(-0 -0.08 -0)
(-0 -0.08 -0)
(-0 -0.08 -0)
(-0 -0.08 -0)
(-0 -0.08 -0)
(-0 -0.08 -0)
(-0 -0.08 -0)
(-0 -0.08 -0)
(-0 -0.08 -0)
(-0 -0.08 -0)
(-0 -0.08 -0)
(-0 -0.08 -0)
(-0 -0.08 -0)
(0 -0.00269615 0)
(0 -0.0799998 0)
(0 -0.0799998 0)
(0 -0.0799998 0)
(0 -0.00337721 0)
(0 -0.00150771 0)
(0 -0.00109564 0)
(0 -0.00195642 0)
(0 -0.00434219 0)
(0 -0.000779689 0)
(0 -0.00471849 0)
(0 -0.000543271 0)
(0 -0.00504571 0)
(0 -0.00564856 0)
(0 -0.000532339 0)
(0 -0.0799998 0)
(0 -0.000473421 0)
(0 -0.000416675 0)
(0 -0.000401136 0)
(0 -0.000311775 0)
(0 -0.000280078 0)
(0 -0.0023969 0)
(0 -0.00193895 0)
(0 -0.00128555 0)
(0 -0.0799998 0)
(0 -0.0799998 0)
(0 -0.000181554 0)
(0 -0.000177691 0)
(0 -0.0051016 0)
(0 -0.00545281 0)
(0 -0.00491462 0)
(0 -0.00406552 0)
(0 -0.00283463 0)
(0 -0.000725164 0)
(0 -0.000927815 0)
(0 -0.000521485 0)
(0 -0.000510174 0)
(0 -0.00049239 0)
(0 -0.0799998 0)
(0 -0.000115912 0)
(0 -9.48482e-05 0)
(0 -0.0052861 0)
(0 -0.0036142 0)
(0 -0.00290182 0)
(0 -0.00254261 0)
(0 -0.00258604 0)
(0 -0.00181377 0)
(0 -0.00151604 0)
(0 -0.00141889 0)
(0 -0.00123178 0)
(0 -0.000232259 0)
(0 -0.000508226 0)
(0 -0.00086145 0)
(0 -0.000589712 0)
(0 -0.000237174 0)
(0 -0.000283193 0)
(0 -0.000373867 0)
(0 -0.000736751 0)
(0 -3.87598e-05 0)
(0 -0.0750221 0)
(0 -0.0745122 0)
(0 -0.074817 0)
(0 -0.0742947 0)
(0 -0.0746061 0)
(0 -0.0751056 0)
(0 -0.074897 0)
(0 -0.0743881 0)
(0 -0.074683 0)
(0 -0.0751676 0)
(0 -0.0749579 0)
(0 -0.07446 0)
(0 -0.0747396 0)
(0 -0.0742278 0)
(0 -0.0745128 0)
(0 -0.0749981 0)
(0 -0.0747834 0)
(0 -0.0742772 0)
(0 -0.0745531 0)
(0 -0.0750975 0)
(0 -0.0748058 0)
(0 -0.0743041 0)
(0 -0.0745577 0)
(0 -0.0750259 0)
(0 -0.0747904 0)
(0 -0.0752336 0)
(0 -0.0750054 0)
(0 -0.0745486 0)
(0 -0.0747697 0)
(0 -0.0752056 0)
(0 -0.0749736 0)
(0 -0.0753931 0)
(0 -0.0751611 0)
(0 -0.0755674 0)
(0 -0.0753356 0)
(0 -0.0749135 0)
(0 -0.0750903 0)
(0 -0.0755007 0)
(0 -0.0752567 0)
(0 -0.0756569 0)
(0 -0.0754105 0)
(0 -0.0758078 0)
(0 -0.0755506 0)
(0 -0.0759298 0)
(0 -0.0756764 0)
(0 -0.0760261 0)
(0 -0.0757937 0)
(0 -0.0761167 0)
(0 -0.0758859 0)
(0 -0.0762026 0)
(0 -0.0759549 0)
(0 -0.0762818 0)
(0 -0.0760235 0)
(0 -0.0763453 0)
(0 -0.0760846 0)
(0 -0.0763964 0)
(0 -0.0761319 0)
(0 -0.0764368 0)
(0 -0.076166 0)
(0 -0.0764684 0)
(0 -0.0761862 0)
(0 -0.0764856 0)
(0 -0.0761881 0)
(0 -0.0764883 0)
(0 -0.0761757 0)
(0 -0.0764797 0)
(0 -0.076156 0)
(0 -0.0764582 0)
(0 -0.0761327 0)
(0 -0.0764277 0)
(0 -0.0761018 0)
(0 -0.0763887 0)
(0 -0.0760511 0)
(0 -0.0763233 0)
(0 -0.0759784 0)
(0 -0.0762361 0)
(0 -0.0758907 0)
(0 -0.0761452 0)
(0 -0.0757892 0)
(0 -0.0760422 0)
(0 -0.0756705 0)
(0 -0.0759217 0)
(0 -0.0755423 0)
(0 -0.0757883 0)
(0 -0.0754006 0)
(0 -0.0756306 0)
(0 -0.0752427 0)
(0 -0.0754533 0)
(0 -0.0750597 0)
(0 -0.0752671 0)
(0 -0.0748576 0)
(0 -0.0750645 0)
(0 -0.0746448 0)
(0 -0.0748391 0)
(0 -0.0744081 0)
(0 -0.0742047 0)
(0 -0.0739595 0)
(0 -0.0753752 0)
(0 -0.0758204 0)
(0 -0.0756232 0)
(0 -0.0746512 0)
(0 -0.0737446 0)
(0 -0.0734912 0)
(0 -0.0745915 0)
(0 -0.0732616 0)
(0 -0.0730004 0)
(0 -0.0727494 0)
(0 -0.0724743 0)
(0 -0.072207 0)
(0 -0.0719229 0)
(0 -0.0716395 0)
(0 -0.0713469 0)
(0 -0.0710475 0)
(0 -0.0707461 0)
(0 -0.071036 0)
(0 -0.070422 0)
(0 -0.0706976 0)
(0 -0.0700712 0)
(0 -0.06979 0)
(0 -0.0694246 0)
(0 -0.0703287 0)
(0 -0.0691336 0)
(0 -0.068753 0)
(0 -0.0684485 0)
(0 -0.0680547 0)
(0 -0.0677301 0)
(0 -0.0673298 0)
(0 -0.0669767 0)
(0 -0.0665792 0)
(0 -0.0662039 0)
(0 -0.0658031 0)
(0 -0.0654113 0)
(0 -0.0650036 0)
(0 -0.065379 0)
(0 -0.0645732 0)
(0 -0.0649439 0)
(0 -0.0641167 0)
(0 -0.0644615 0)
(0 -0.0636329 0)
(0 -0.0632906 0)
(0 -0.0628002 0)
(0 -0.0624395 0)
(0 -0.0619426 0)
(0 -0.0639458 0)
(0 -0.0615698 0)
(0 -0.061067 0)
(0 -0.0606775 0)
(0 -0.0601727 0)
(0 -0.0597613 0)
(0 -0.0592554 0)
(0 -0.0588257 0)
(0 -0.0583208 0)
(0 -0.058724 0)
(0 -0.0577858 0)
(0 -0.0581614 0)
(0 -0.0572243 0)
(0 -0.0568332 0)
(0 -0.0562736 0)
(0 -0.0558567 0)
(0 -0.055255 0)
(0 -0.0548756 0)
(0 -0.0542996 0)
(0 -0.0566006 0)
(0 -0.0538992 0)
(0 -0.0533476 0)
(0 -0.0529022 0)
(0 -0.0523567 0)
(0 -0.0518942 0)
(0 -0.051352 0)
(0 -0.0750133 0)
(0 -0.0508756 0)
(0 -0.0503374 0)
(0 -0.0507804 0)
(0 -0.0497692 0)
(0 -0.0501745 0)
(0 -0.0491712 0)
(0 -0.0487564 0)
(0 -0.0481749 0)
(0 -0.0477417 0)
(0 -0.047177 0)
(0 -0.0485592 0)
(0 -0.0467215 0)
(0 -0.0461605 0)
(0 -0.0456925 0)
(0 -0.0451295 0)
(0 -0.0446594 0)
(0 -0.0441033 0)
(0 -0.0436257 0)
(0 -0.0430812 0)
(0 -0.0425949 0)
(0 -0.0420638 0)
(0 -0.0425107 0)
(0 -0.0415049 0)
(0 -0.0419128 0)
(0 -0.0409192 0)
(0 -0.0405052 0)
(0 -0.0399302 0)
(0 -0.0403099 0)
(0 -0.0393332 0)
(0 -0.0389462 0)
(0 -0.0383633 0)
(0 -0.0379675 0)
(0 -0.0373986 0)
(0 -0.0369942 0)
(0 -0.03644 0)
(0 -0.0368078 0)
(0 -0.0358639 0)
(0 -0.0354892 0)
(0 -0.0349278 0)
(0 -0.0345472 0)
(0 -0.0339998 0)
(0 -0.0336132 0)
(0 -0.0330806 0)
(0 -0.0334316 0)
(0 -0.0325273 0)
(0 -0.0321701 0)
(0 -0.0316318 0)
(0 -0.0312691 0)
(0 -0.0307455 0)
(0 -0.0303773 0)
(0 -0.0298689 0)
(0 -0.0302029 0)
(0 -0.029341 0)
(0 -0.0290025 0)
(0 -0.0284897 0)
(0 -0.0281469 0)
(0 -0.0276489 0)
(0 -0.0273018 0)
(0 -0.0268178 0)
(0 -0.0271335 0)
(0 -0.0263148 0)
(0 -0.0259969 0)
(0 -0.0255078 0)
(0 -0.0251858 0)
(0 -0.024712 0)
(0 -0.0747539 0)
(0 -0.0751636 0)
(0 -0.0748982 0)
(0 -0.0752998 0)
(0 -0.0243862 0)
(0 -0.0239299 0)
(0 -0.0242224 0)
(0 -0.023458 0)
(0 -0.0231634 0)
(0 -0.0237076 0)
(0 -0.022963 0)
(0 -0.0231585 0)
(0 -0.0224469 0)
(0 -0.0762683 0)
(0 -0.0657936 0)
(0 -0.0431048 0)
(0 -0.0513873 0)
(0 -0.0763777 0)
(0 -0.0766472 0)
(0 -0.0767281 0)
(0 -0.0593023 0)
(0 -0.0795061 0)
(0 -0.0795515 0)
(0 -0.0794905 0)
(0 -0.0795369 0)
(0 -0.0794739 0)
(0 -0.079521 0)
(0 -0.0795793 0)
(0 -0.0795634 0)
(0 -0.0795043 0)
(0 -0.0795474 0)
(0 -0.0794867 0)
(0 -0.0795306 0)
(0 -0.0796142 0)
(0 -0.0794674 0)
(0 -0.079512 0)
(0 -0.0794457 0)
(0 -0.0794914 0)
(0 -0.079422 0)
(0 -0.0794688 0)
(0 -0.0795342 0)
(0 -0.0795126 0)
(0 -0.0795737 0)
(0 -0.0795529 0)
(0 -0.07961 0)
(0 -0.0795899 0)
(0 -0.0795302 0)
(0 -0.0795681 0)
(0 -0.0796439 0)
(0 -0.0795049 0)
(0 -0.0795436 0)
(0 -0.0793723 0)
(0 -0.0794763 0)
(0 -0.0795157 0)
(0 -0.0794439 0)
(0 -0.0794845 0)
(0 -0.0795526 0)
(0 -0.0795214 0)
(0 -0.0795851 0)
(0 -0.0795544 0)
(0 -0.0796137 0)
(0 -0.0795837 0)
(0 -0.0796394 0)
(0 -0.0796098 0)
(0 -0.0796637 0)
(0 -0.0796335 0)
(0 -0.0796864 0)
(0 -0.0796557 0)
(0 -0.0797062 0)
(0 -0.0796741 0)
(0 -0.0797212 0)
(0 -0.079682 0)
(0 -0.0797334 0)
(0 -0.0796998 0)
(0 -0.0797451 0)
(0 -0.0797093 0)
(0 -0.0797536 0)
(0 -0.0797169 0)
(0 -0.0797589 0)
(0 -0.0797212 0)
(0 -0.0797624 0)
(0 -0.0797245 0)
(0 -0.0797638 0)
(0 -0.0797258 0)
(0 -0.0797628 0)
(0 -0.0797232 0)
(0 -0.0797592 0)
(0 -0.0797178 0)
(0 -0.079753 0)
(0 -0.0797099 0)
(0 -0.0797444 0)
(0 -0.0796997 0)
(0 -0.0797327 0)
(0 -0.0796871 0)
(0 -0.079718 0)
(0 -0.0796704 0)
(0 -0.0797001 0)
(0 -0.0796483 0)
(0 -0.0796784 0)
(0 -0.0796227 0)
(0 -0.0796541 0)
(0 -0.0796594 0)
(0 -0.0796823 0)
(0 -0.0795955 0)
(0 -0.0796211 0)
(0 -0.0795737 0)
(0 -0.0797353 0)
(0 -0.0794081 0)
(0 -0.0713285 0)
(0 -0.0797297 0)
(0 -0.0758595 0)
(0 -0.0797909 0)
(0 -0.079785 0)
(0 -0.0793641 0)
(0 -0.0793239 0)
(0 -0.0792759 0)
(0 -0.079233 0)
(0 -0.079178 0)
(0 -0.079132 0)
(0 -0.0790715 0)
(0 -0.0790204 0)
(0 -0.078957 0)
(0 -0.078899 0)
(0 -0.0788357 0)
(0 -0.078963 0)
(0 -0.0788346 0)
(0 -0.0789012 0)
(0 -0.078765 0)
(0 -0.0788328 0)
(0 -0.0786896 0)
(0 -0.0787569 0)
(0 -0.0647481 0)
(0 -0.0642224 0)
(0 -0.0786073 0)
(0 -0.0786737 0)
(0 -0.0785351 0)
(0 -0.079798 0)
(0 -0.0767562 0)
(0 -0.075784 0)
(0 -0.0760463 0)
(0 -0.0749802 0)
(0 -0.0375261 0)
(0 -0.0248277 0)
(0 -0.0217095 0)
(0 -0.027768 0)
(0 -0.0308666 0)
(0 -0.0396768 0)
(0 -0.0328477 0)
(0 -0.0296416 0)
(0 -0.0462278 0)
(0 -0.0649868 0)
(0 -0.0653445 0)
(0 -0.0645192 0)
(0 -0.0648479 0)
(0 -0.0640058 0)
(0 -0.064302 0)
(0 -0.0634248 0)
(0 -0.0637072 0)
(0 -0.0628193 0)
(0 -0.0630494 0)
(0 -0.0621357 0)
(0 -0.0623251 0)
(0 -0.0613533 0)
(0 -0.061577 0)
(0 -0.0605666 0)
(0 -0.0608259 0)
(0 -0.0597076 0)
(0 -0.0597896 0)
(0 -0.0587704 0)
(0 -0.0588379 0)
(0 -0.0577945 0)
(0 -0.0578559 0)
(0 -0.056784 0)
(0 -0.0588762 0)
(0 -0.057867 0)
(0 -0.0588886 0)
(0 -0.0578298 0)
(0 -0.0588734 0)
(0 -0.0577692 0)
(0 -0.0588044 0)
(0 -0.0576463 0)
(0 -0.0586862 0)
(0 -0.0574761 0)
(0 -0.0562773 0)
(0 -0.0585324 0)
(0 -0.0572604 0)
(0 -0.0583137 0)
(0 -0.0569686 0)
(0 -0.0580325 0)
(0 -0.0566558 0)
(0 -0.0577202 0)
(0 -0.0562912 0)
(0 -0.0573604 0)
(0 -0.0558701 0)
(0 -0.0569519 0)
(0 -0.0547744 0)
(0 -0.0590864 0)
(0 -0.0553968 0)
(0 -0.0564832 0)
(0 -0.054863 0)
(0 -0.0559552 0)
(0 -0.0575389 0)
(0 -0.0570146 0)
(0 -0.0585486 0)
(0 -0.0580353 0)
(0 -0.0564554 0)
(0 -0.0574807 0)
(0 -0.0595205 0)
(0 -0.0558446 0)
(0 -0.0568701 0)
(0 -0.0551647 0)
(0 -0.0561965 0)
(0 -0.054413 0)
(0 -0.0554615 0)
(0 -0.0572054 0)
(0 -0.0564823 0)
(0 -0.0581789 0)
(0 -0.0574622 0)
(0 -0.0557045 0)
(0 -0.0566885 0)
(0 -0.0591022 0)
(0 -0.0548651 0)
(0 -0.0558585 0)
(0 -0.0598335 0)
(0 -0.0567097 0)
(0 -0.0556788 0)
(0 -0.0556273 0)
(0 -0.0545537 0)
(0 -0.0539363 0)
(0 -0.0549543 0)
(0 -0.0545266 0)
(0 -0.0534161 0)
(0 -0.0533999 0)
(0 -0.0522674 0)
(0 -0.0522606 0)
(0 -0.0511058 0)
(0 -0.0511084 0)
(0 -0.0499357 0)
(0 -0.0498836 0)
(0 -0.0486957 0)
(0 -0.0485906 0)
(0 -0.0473833 0)
(0 -0.0472203 0)
(0 -0.0459951 0)
(0 -0.0461763 0)
(0 -0.0447669 0)
(0 -0.0449617 0)
(0 -0.043512 0)
(0 -0.0437415 0)
(0 -0.0422685 0)
(0 -0.0425261 0)
(0 -0.04105 0)
(0 -0.0413106 0)
(0 -0.039827 0)
(0 -0.0400975 0)
(0 -0.0386082 0)
(0 -0.0388879 0)
(0 -0.0373988 0)
(0 -0.0376835 0)
(0 -0.0361981 0)
(0 -0.0364947 0)
(0 -0.0457503 0)
(0 -0.0350031 0)
(0 -0.0353061 0)
(0 -0.0338213 0)
(0 -0.03408 0)
(0 -0.0326606 0)
(0 -0.0329273 0)
(0 -0.0407136 0)
(0 -0.0315201 0)
(0 -0.0318273 0)
(0 -0.0303796 0)
(0 -0.0307253 0)
(0 -0.029263 0)
(0 -0.0296057 0)
(0 -0.0281565 0)
(0 -0.028507 0)
(0 -0.02707 0)
(0 -0.0274255 0)
(0 -0.0358268 0)
(0 -0.0259955 0)
(0 -0.0263627 0)
(0 -0.0277151 0)
(0 -0.0266582 0)
(0 -0.0253259 0)
(0 -0.0256249 0)
(0 -0.0243073 0)
(0 -0.0246124 0)
(0 -0.025875 0)
(0 -0.0248708 0)
(0 -0.0236228 0)
(0 -0.0238876 0)
(0 -0.0226538 0)
(0 -0.0229224 0)
(0 -0.0217045 0)
(0 -0.0219768 0)
(0 -0.0207751 0)
(0 -0.0210529 0)
(0 -0.0222046 0)
(0 -0.0212871 0)
(0 -0.0201515 0)
(0 -0.0203915 0)
(0 -0.019273 0)
(0 -0.0195189 0)
(0 -0.0184185 0)
(0 -0.0186694 0)
(0 -0.0197222 0)
(0 -0.0188756 0)
(0 -0.0178435 0)
(0 -0.0180526 0)
(0 -0.0170399 0)
(0 -0.0172531 0)
(0 -0.0162579 0)
(0 -0.0164748 0)
(0 -0.0174237 0)
(0 -0.0166464 0)
(0 -0.015718 0)
(0 -0.0158985 0)
(0 -0.0149869 0)
(0 -0.0151575 0)
(0 -0.0160354 0)
(0 -0.0152979 0)
(0 -0.0142979 0)
(0 -0.014586 0)
(0 -0.0154097 0)
(0 -0.0147172 0)
(0 -0.0139535 0)
(0 -0.0140383 0)
(0 -0.0147535 0)
(0 -0.014098 0)
(0 -0.0133707 0)
(0 -0.0134446 0)
(0 -0.0141441 0)
(0 -0.0134931 0)
(0 -0.0141504 0)
(0 -0.0135051 0)
(0 -0.0128464 0)
(0 -0.0128651 0)
(0 -0.0134865 0)
(0 -0.012853 0)
(0 -0.0134318 0)
(0 -0.0128094 0)
(0 -0.0122267 0)
(0 -0.0121896 0)
(0 -0.0127432 0)
(0 -0.012127 0)
(0 -0.0126563 0)
(0 -0.0120378 0)
(0 -0.0115145 0)
(0 -0.011426 0)
(0 -0.0119252 0)
(0 -0.0113186 0)
(0 -0.0108225 0)
(0 -0.0117908 0)
(0 -0.0111887 0)
(0 -0.0116349 0)
(0 -0.0110395 0)
(0 -0.0114582 0)
(0 -0.010865 0)
(0 -0.01126 0)
(0 -0.0106629 0)
(0 -0.0110513 0)
(0 -0.0104341 0)
(0 -0.0100572 0)
(0 -0.0108118 0)
(0 -0.0101943 0)
(0 -0.0105456 0)
(0 -0.00994464 0)
(0 -0.0102673 0)
(0 -0.00966663 0)
(0 -0.00996739 0)
(0 -0.0111568 0)
(0 -0.0120638 0)
(0 -0.00936009 0)
(0 -0.00965038 0)
(0 -0.00906206 0)
(0 -0.0260811 0)
(0 -0.031129 0)
(0 -0.00904556 0)
(0 -0.00932242 0)
(0 -0.00992259 0)
(0 -0.00957834 0)
(0 -0.0101779 0)
(0 -0.00981699 0)
(0 -0.0323433 0)
(0 -0.00922188 0)
(0 -0.00944436 0)
(0 -0.052922 0)
(0 -0.0539682 0)
(0 -0.0559517 0)
(0 -0.0549813 0)
(0 -0.0569008 0)
(0 -0.055948 0)
(0 -0.0578037 0)
(0 -0.0568685 0)
(0 -0.0586839 0)
(0 -0.0577446 0)
(0 -0.0558553 0)
(0 -0.0567462 0)
(0 -0.0585411 0)
(0 -0.0576347 0)
(0 -0.0556978 0)
(0 -0.0565969 0)
(0 -0.0585047 0)
(0 -0.05747 0)
(0 -0.0554906 0)
(0 -0.0563804 0)
(0 -0.0583129 0)
(0 -0.0572406 0)
(0 -0.0591219 0)
(0 -0.0580664 0)
(0 -0.0560984 0)
(0 -0.0569416 0)
(0 -0.0588653 0)
(0 -0.0577624 0)
(0 -0.0557458 0)
(0 -0.0565924 0)
(0 -0.0585584 0)
(0 -0.0574081 0)
(0 -0.0593212 0)
(0 -0.058189 0)
(0 -0.0561912 0)
(0 -0.0569885 0)
(0 -0.0589747 0)
(0 -0.0577761 0)
(0 -0.0557347 0)
(0 -0.00885239 0)
(0 -0.0090605 0)
(0 -0.0390834 0)
(0 -0.0518353 0)
(0 -0.0507549 0)
(0 -0.0266155 0)
(0 -0.010417 0)
(0 -0.0639447 0)
(0 -0.00847114 0)
(0 -0.00866603 0)
(0 -0.0204537 0)
(0 -0.0495517 0)
(0 -0.0484464 0)
(0 -0.0080793 0)
(0 -0.00826218 0)
(0 -0.0088468 0)
(0 -0.00788345 0)
(0 -0.0533487 0)
(0 -0.0471155 0)
(0 -0.0459778 0)
(0 -0.0439241 0)
(0 -0.0522137 0)
(0 -0.0445239 0)
(0 -0.0433379 0)
(0 -0.035464 0)
(0 -0.0160004 0)
(0 -0.0198831 0)
(0 -0.0544253 0)
(0 -0.0751676 0)
(0 -0.0784467 0)
(0 -0.0783688 0)
(0 -0.075745 0)
(0 -0.0739639 0)
(0 -0.0796615 0)
(0 -0.0796921 0)
(0 -0.0797079 0)
(0 -0.0797352 0)
(0 -0.0797492 0)
(0 -0.0797733 0)
(0 -0.0797852 0)
(0 -0.0798064 0)
(0 -0.0798168 0)
(0 -0.0798356 0)
(0 -0.0798446 0)
(0 -0.0798611 0)
(0 -0.0798687 0)
(0 -0.0798832 0)
(0 -0.0798896 0)
(0 -0.0799024 0)
(0 -0.0799079 0)
(0 -0.0799191 0)
(0 -0.0799236 0)
(0 -0.079913 0)
(0 -0.0799277 0)
(0 -0.0799175 0)
(0 -0.079931 0)
(0 -0.0799217 0)
(0 -0.0799343 0)
(0 -0.0799256 0)
(0 -0.079938 0)
(0 -0.0799291 0)
(0 -0.079941 0)
(0 -0.0799321 0)
(0 -0.0799437 0)
(0 -0.0799349 0)
(0 -0.079946 0)
(0 -0.0799375 0)
(0 -0.0799482 0)
(0 -0.0799334 0)
(0 -0.0799294 0)
(0 -0.0799538 0)
(0 -0.0799423 0)
(0 -0.0799391 0)
(0 -0.0799502 0)
(0 -0.0799466 0)
(0 -0.0799571 0)
(0 -0.0799533 0)
(0 -0.0799633 0)
(0 -0.0799602 0)
(0 -0.0799661 0)
(0 -0.0799713 0)
(0 -0.0799735 0)
(0 -0.0799494 0)
(0 -0.0799569 0)
(0 -0.0799778 0)
(0 -0.0799795 0)
(0 -0.0799456 0)
(0 -0.0799531 0)
(0 -0.0799831 0)
(0 -0.0799844 0)
(0 -0.0798279 0)
(0 -0.0799163 0)
(0 -0.0794229 0)
(0 -0.0788895 0)
(0 -0.0787628 0)
(0 -0.0788177 0)
(0 -0.0786809 0)
(0 -0.078739 0)
(0 -0.0785999 0)
(0 -0.0786519 0)
(0 -0.0785079 0)
(0 -0.0785557 0)
(0 -0.078394 0)
(0 -0.0784502 0)
(0 -0.0782736 0)
(0 -0.0783359 0)
(0 -0.0783635 0)
(0 -0.0781502 0)
(0 -0.0782135 0)
(0 -0.078017 0)
(0 -0.0780816 0)
(0 -0.0782718 0)
(0 -0.0781417 0)
(0 -0.0799411 0)
(0 -0.0799487 0)
(0 -0.0799596 0)
(0 -0.0799554 0)
(0 -0.0799653 0)
(0 -0.0799612 0)
(0 -0.0799703 0)
(0 -0.0799661 0)
(0 -0.0799745 0)
(0 -0.0799703 0)
(0 -0.0796625 0)
(0 -0.0799874 0)
(0 -0.0799883 0)
(0 -0.0799856 0)
(0 -0.0799892 0)
(0 -0.0783245 0)
(0 -0.0781974 0)
(0 -0.0799557 0)
(0 -0.0417772 0)
(0 -0.0405635 0)
(0 -0.0429744 0)
(0 -0.0603235 0)
(0 -0.0783753 0)
(0 -0.0782491 0)
(0 -0.0784258 0)
(0 -0.0782977 0)
(0 -0.0781081 0)
(0 -0.0781578 0)
(0 -0.0779363 0)
(0 -0.078344 0)
(0 -0.0782055 0)
(0 -0.0783889 0)
(0 -0.0782511 0)
(0 -0.0799866 0)
(0 -0.0799899 0)
(0 -0.0799778 0)
(0 -0.0799739 0)
(0 -0.0799875 0)
(0 -0.0799906 0)
(0 -0.0799926 0)
(0 -0.0799931 0)
(0 -0.0799912 0)
(0 -0.0799936 0)
(0 -0.0799918 0)
(0 -0.079994 0)
(0 -0.0799923 0)
(0 -0.0799943 0)
(0 -0.0799928 0)
(0 -0.0799947 0)
(0 -0.0799931 0)
(0 -0.079995 0)
(0 -0.0799935 0)
(0 -0.0799952 0)
(0 -0.0799938 0)
(0 -0.0799955 0)
(0 -0.0799941 0)
(0 -0.0799907 0)
(0 -0.0798273 0)
(0 -0.077955 0)
(0 -0.0779455 0)
(0 -0.0470094 0)
(0 -0.0454799 0)
(0 -0.0595408 0)
(0 -0.079982 0)
(0 -0.078818 0)
(0 -0.0787335 0)
(0 -0.0788728 0)
(0 -0.0787877 0)
(0 -0.0786416 0)
(0 -0.0786958 0)
(0 -0.0788377 0)
(0 -0.0787448 0)
(0 -0.0788833 0)
(0 -0.0787869 0)
(0 -0.0789209 0)
(0 -0.0788219 0)
(0 -0.0789505 0)
(0 -0.0788506 0)
(0 -0.0789748 0)
(0 -0.0788727 0)
(0 -0.0789931 0)
(0 -0.0788889 0)
(0 -0.0787608 0)
(0 -0.0787752 0)
(0 -0.0788998 0)
(0 -0.0787839 0)
(0 -0.0789058 0)
(0 -0.0787865 0)
(0 -0.0789062 0)
(0 -0.0787826 0)
(0 -0.0788994 0)
(0 -0.078771 0)
(0 -0.0788854 0)
(0 -0.0787527 0)
(0 -0.0786303 0)
(0 -0.0786075 0)
(0 -0.0787286 0)
(0 -0.0785764 0)
(0 -0.0786988 0)
(0 -0.0785377 0)
(0 -0.0786662 0)
(0 -0.0784958 0)
(0 -0.0786223 0)
(0 -0.0784448 0)
(0 -0.0785596 0)
(0 -0.0783828 0)
(0 -0.0784942 0)
(0 -0.0783098 0)
(0 -0.0784181 0)
(0 -0.078222 0)
(0 -0.0786822 0)
(0 -0.0784753 0)
(0 -0.0781265 0)
(0 -0.0786392 0)
(0 -0.0799357 0)
(0 -0.0799804 0)
(0 -0.0799767 0)
(0 -0.079969 0)
(0 -0.079972 0)
(0 -0.0799792 0)
(0 -0.0799743 0)
(0 -0.0799811 0)
(0 -0.0799762 0)
(0 -0.0799824 0)
(0 -0.0799776 0)
(0 -0.0799831 0)
(0 -0.0799779 0)
(0 -0.079983 0)
(0 -0.0799771 0)
(0 -0.0799823 0)
(0 -0.079976 0)
(0 -0.0799813 0)
(0 -0.0799744 0)
(0 -0.0799799 0)
(0 -0.0799722 0)
(0 -0.0799785 0)
(0 -0.0799694 0)
(0 -0.0799688 0)
(0 -0.079962 0)
(0 -0.079971 0)
(0 -0.0467449 0)
(0 -0.0451759 0)
(0 -0.0464212 0)
(0 -0.0447823 0)
(0 -0.0460365 0)
(0 -0.0443257 0)
(0 -0.0430569 0)
(0 -0.0425274 0)
(0 -0.0412428 0)
(0 -0.0406335 0)
(0 -0.0393371 0)
(0 -0.0386459 0)
(0 -0.0373431 0)
(0 -0.0399543 0)
(0 -0.0378883 0)
(0 -0.039198 0)
(0 -0.0370573 0)
(0 -0.0383638 0)
(0 -0.0361308 0)
(0 -0.0374404 0)
(0 -0.0350974 0)
(0 -0.0364231 0)
(0 -0.0337844 0)
(0 -0.0339772 0)
(0 -0.0353137 0)
(0 -0.0327628 0)
(0 -0.0341099 0)
(0 -0.0366521 0)
(0 -0.0354571 0)
(0 -0.0421252 0)
(0 -0.039288 0)
(0 -0.0408466 0)
(0 -0.0379349 0)
(0 -0.0394314 0)
(0 -0.0365789 0)
(0 -0.0381173 0)
(0 -0.0352451 0)
(0 -0.0782729 0)
(0 -0.0781884 0)
(0 -0.0799631 0)
(0 -0.040093 0)
(0 -0.0413212 0)
(0 -0.0785425 0)
(0 -0.0782648 0)
(0 -0.0328191 0)
(0 -0.078013 0)
(0 -0.0396825 0)
(0 -0.0379882 0)
(0 -0.0420603 0)
(0 -0.0425326 0)
(0 -0.0414748 0)
(0 -0.0419044 0)
(0 -0.0408381 0)
(0 -0.0412174 0)
(0 -0.0401506 0)
(0 -0.0404788 0)
(0 -0.0394127 0)
(0 -0.0415505 0)
(0 -0.0396977 0)
(0 -0.0386228 0)
(0 -0.0388705 0)
(0 -0.0377843 0)
(0 -0.0375506 0)
(0 -0.0367013 0)
(0 -0.0364851 0)
(0 -0.0356228 0)
(0 -0.0354257 0)
(0 -0.0345427 0)
(0 -0.0343716 0)
(0 -0.0779099 0)
(0 -0.0510716 0)
(0 -0.0521254 0)
(0 -0.0509938 0)
(0 -0.0519983 0)
(0 -0.0508753 0)
(0 -0.0730064 0)
(0 -0.0369307 0)
(0 -0.0339044 0)
(0 -0.033487 0)
(0 -0.0333411 0)
(0 -0.0799947 0)
(0 -0.0382804 0)
(0 -0.0395455 0)
(0 -0.0324689 0)
(0 -0.032312 0)
(0 -0.0314566 0)
(0 -0.0312928 0)
(0 -0.0304545 0)
(0 -0.0303109 0)
(0 -0.0518334 0)
(0 -0.0507153 0)
(0 -0.0294666 0)
(0 -0.0293268 0)
(0 -0.0529042 0)
(0 -0.0284828 0)
(0 -0.0283457 0)
(0 -0.065661 0)
(0 -0.0777877 0)
(0 -0.0799964 0)
(0 -0.0799957 0)
(0 -0.0181298 0)
(0 -0.0455634 0)
(0 -0.0537479 0)
(0 -0.0788187 0)
(0 -0.0688601 0)
(0 -0.0346658 0)
(0 -0.0799898 0)
(0 -0.0742988 0)
(0 -0.0362499 0)
(0 -0.0709463 0)
(0 -0.0705555 0)
(0 -0.0799901 0)
(0 -0.0799927 0)
(0 -0.0780844 0)
(0 -0.0779921 0)
(0 -0.0799922 0)
(0 -0.0311032 0)
(0 -0.0711637 0)
(0 -0.0790183 0)
(0 -0.0379877 0)
(0 -0.0390865 0)
(0 -0.0785575 0)
(0 -0.0363357 0)
(0 -0.0376271 0)
(0 -0.0618905 0)
(0 -0.0785399 0)
(0 -0.0799856 0)
(0 -0.0275118 0)
(0 -0.0273818 0)
(0 -0.0281786 0)
(0 -0.0272351 0)
(0 -0.0776766 0)
(0 -0.0516357 0)
(0 -0.0505105 0)
(0 -0.0790459 0)
(0 -0.0799944 0)
(0 -0.0799939 0)
(0 -0.077545 0)
(0 -0.0341239 0)
(0 -0.0367934 0)
(0 -0.0393107 0)
(0 -0.0265889 0)
(0 -0.0264188 0)
(0 -0.0263104 0)
(0 -0.0271736 0)
(0 -0.0261486 0)
(0 -0.02539 0)
(0 -0.025238 0)
(0 -0.0244923 0)
(0 -0.0243511 0)
(0 -0.0236182 0)
(0 -0.0234808 0)
(0 -0.0227623 0)
(0 -0.0226281 0)
(0 -0.0233059 0)
(0 -0.0224638 0)
(0 -0.0217921 0)
(0 -0.0216379 0)
(0 -0.0209729 0)
(0 -0.0208284 0)
(0 -0.0214578 0)
(0 -0.0206575 0)
(0 -0.0212521 0)
(0 -0.0204607 0)
(0 -0.0198731 0)
(0 -0.019685 0)
(0 -0.0202371 0)
(0 -0.0194722 0)
(0 -0.0199899 0)
(0 -0.0192353 0)
(0 -0.0197208 0)
(0 -0.0189751 0)
(0 -0.0184931 0)
(0 -0.0182438 0)
(0 -0.0186932 0)
(0 -0.0179739 0)
(0 -0.0183918 0)
(0 -0.017685 0)
(0 -0.0180755 0)
(0 -0.0173801 0)
(0 -0.017747 0)
(0 -0.0170603 0)
(0 -0.0174072 0)
(0 -0.0167263 0)
(0 -0.0170517 0)
(0 -0.0163738 0)
(0 -0.0166689 0)
(0 -0.0159986 0)
(0 -0.0162665 0)
(0 -0.0156037 0)
(0 -0.0158497 0)
(0 -0.0151962 0)
(0 -0.0154215 0)
(0 -0.0147923 0)
(0 -0.0149728 0)
(0 -0.0142805 0)
(0 -0.0157052 0)
(0 -0.0169877 0)
(0 -0.0145031 0)
(0 -0.0799912 0)
(0 -0.0177653 0)
(0 -0.0792837 0)
(0 -0.0799867 0)
(0 -0.0320834 0)
(0 -0.0307051 0)
(0 -0.0796639 0)
(0 -0.0707562 0)
(0 -0.0701425 0)
(0 -0.0342323 0)
(0 -0.0355776 0)
(0 -0.0328785 0)
(0 -0.0381567 0)
(0 -0.0392644 0)
(0 -0.0341597 0)
(0 -0.0786715 0)
(0 -0.0545609 0)
(0 -0.0388746 0)
(0 -0.036953 0)
(0 -0.00509263 0)
(0 -0.00449965 0)
(0 -0.00491778 0)
(0 -0.00432252 0)
(0 -0.00473574 0)
(0 -0.0799836 0)
(0 -0.0793456 0)
(0 -0.0792905 0)
(0 -0.0191051 0)
(0 -0.0160664 0)
(0 -0.0624401 0)
(0 -0.0259188 0)
(0 -0.0799958 0)
(0 -0.0799954 0)
(0 -0.0799961 0)
(0 -0.0778797 0)
(0 -0.0777789 0)
(0 -0.0495778 0)
(0 -0.0493636 0)
(0 -0.0484303 0)
(0 -0.0482362 0)
(0 -0.0472799 0)
(0 -0.0471003 0)
(0 -0.048072 0)
(0 -0.0468231 0)
(0 -0.045955 0)
(0 -0.0597595 0)
(0 -0.0606443 0)
(0 -0.0612273 0)
(0 -0.0620766 0)
(0 -0.0626086 0)
(0 -0.0634037 0)
(0 -0.063888 0)
(0 -0.0646357 0)
(0 -0.065056 0)
(0 -0.0657803 0)
(0 -0.066142 0)
(0 -0.0668424 0)
(0 -0.0671547 0)
(0 -0.0678287 0)
(0 -0.0681144 0)
(0 -0.0675172 0)
(0 -0.0674403 0)
(0 -0.068368 0)
(0 -0.0676891 0)
(0 -0.0685926 0)
(0 -0.0679032 0)
(0 -0.068794 0)
(0 -0.068085 0)
(0 -0.068946 0)
(0 -0.0682418 0)
(0 -0.0690639 0)
(0 -0.0683848 0)
(0 -0.0691737 0)
(0 -0.0684923 0)
(0 -0.0692534 0)
(0 -0.0685619 0)
(0 -0.0692937 0)
(0 -0.0685973 0)
(0 -0.069312 0)
(0 -0.0686094 0)
(0 -0.0692417 0)
(0 -0.0684629 0)
(0 -0.0681595 0)
(0 -0.0697406 0)
(0 -0.0693021 0)
(0 -0.0686003 0)
(0 -0.0699811 0)
(0 -0.0690629 0)
(0 -0.0687678 0)
(0 -0.0699494 0)
(0 -0.070604 0)
(0 -0.0696327 0)
(0 -0.0693396 0)
(0 -0.0705508 0)
(0 -0.0678778 0)
(0 -0.0678714 0)
(0 -0.0676896 0)
(0 -0.0684508 0)
(0 -0.0690223 0)
(0 -0.0701683 0)
(0 -0.07044 0)
(0 -0.0711783 0)
(0 -0.0711048 0)
(0 -0.0704753 0)
(0 -0.0712334 0)
(0 -0.0680989 0)
(0 -0.0686756 0)
(0 -0.067117 0)
(0 -0.0671071 0)
(0 -0.0717798 0)
(0 -0.0718391 0)
(0 -0.070947 0)
(0 -0.0711912 0)
(0 -0.0723514 0)
(0 -0.0724041 0)
(0 -0.0677112 0)
(0 -0.0682966 0)
(0 -0.0692249 0)
(0 -0.0688569 0)
(0 -0.0678912 0)
(0 -0.0684516 0)
(0 -0.0697678 0)
(0 -0.0674541 0)
(0 -0.0680119 0)
(0 -0.0710106 0)
(0 -0.0703789 0)
(0 -0.0671507 0)
(0 -0.0716788 0)
(0 -0.0718874 0)
(0 -0.066995 0)
(0 -0.0675604 0)
(0 -0.0685504 0)
(0 -0.0680967 0)
(0 -0.0690489 0)
(0 -0.0685842 0)
(0 -0.0695196 0)
(0 -0.069054 0)
(0 -0.0680917 0)
(0 -0.0685726 0)
(0 -0.0695235 0)
(0 -0.0690421 0)
(0 -0.0680751 0)
(0 -0.0685481 0)
(0 -0.0694534 0)
(0 -0.0689898 0)
(0 -0.0680381 0)
(0 -0.0685116 0)
(0 -0.0694309 0)
(0 -0.0689832 0)
(0 -0.0680317 0)
(0 -0.0684685 0)
(0 -0.0695179 0)
(0 -0.0688646 0)
(0 -0.0325243 0)
(0 -0.029315 0)
(0 -0.038053 0)
(0 -0.0360422 0)
(0 -0.0799272 0)
(0 -0.0799205 0)
(0 -0.0599772 0)
(0 -0.036791 0)
(0 -0.0347466 0)
(0 -0.035502 0)
(0 -0.0334658 0)
(0 -0.0326434 0)
(0 -0.0313604 0)
(0 -0.0304467 0)
(0 -0.0291666 0)
(0 -0.028157 0)
(0 -0.0268846 0)
(0 -0.0279039 0)
(0 -0.0256316 0)
(0 -0.0266562 0)
(0 -0.0243872 0)
(0 -0.0254289 0)
(0 -0.0231711 0)
(0 -0.0242284 0)
(0 -0.0219878 0)
(0 -0.023056 0)
(0 -0.0208323 0)
(0 -0.0219049 0)
(0 -0.0258001 0)
(0 -0.019707 0)
(0 -0.0207775 0)
(0 -0.0186136 0)
(0 -0.0196871 0)
(0 -0.0175585 0)
(0 -0.0186294 0)
(0 -0.0220574 0)
(0 -0.0165317 0)
(0 -0.0175972 0)
(0 -0.0155322 0)
(0 -0.0165923 0)
(0 -0.0252106 0)
(0 -0.0206755 0)
(0 -0.0342657 0)
(0 -0.0185608 0)
(0 -0.0145613 0)
(0 -0.015616 0)
(0 -0.06633 0)
(0 -0.0663173 0)
(0 -0.0676989 0)
(0 -0.0682573 0)
(0 -0.00413849 0)
(0 -0.00454528 0)
(0 -0.0362006 0)
(0 -0.00394765 0)
(0 -0.00434755 0)
(0 -0.0692572 0)
(0 -0.0687125 0)
(0 -0.067653 0)
(0 -0.0681396 0)
(0 -0.0691777 0)
(0 -0.0457353 0)
(0 -0.0464819 0)
(0 -0.0448201 0)
(0 -0.0333655 0)
(0 -0.0347295 0)
(0 -0.0382818 0)
(0 -0.0360641 0)
(0 -0.0394814 0)
(0 -0.0373628 0)
(0 -0.0337573 0)
(0 -0.0351179 0)
(0 -0.0386433 0)
(0 -0.0364509 0)
(0 -0.0398982 0)
(0 -0.0377406 0)
(0 -0.0341355 0)
(0 -0.0354499 0)
(0 -0.0389942 0)
(0 -0.0367429 0)
(0 -0.0778919 0)
(0 -0.0776696 0)
(0 -0.051402 0)
(0 -0.0187744 0)
(0 -0.0402118 0)
(0 -0.0380037 0)
(0 -0.0343554 0)
(0 -0.0356563 0)
(0 -0.0392379 0)
(0 -0.0369435 0)
(0 -0.0455983 0)
(0 -0.0774271 0)
(0 -0.0772863 0)
(0 -0.0774047 0)
(0 -0.0107823 0)
(0 -0.0786082 0)
(0 -0.0175695 0)
(0 -0.0165881 0)
(0 -0.014671 0)
(0 -0.0156372 0)
(0 -0.0137551 0)
(0 -0.014715 0)
(0 -0.0128688 0)
(0 -0.0138246 0)
(0 -0.0156045 0)
(0 -0.0147066 0)
(0 -0.01297 0)
(0 -0.0138357 0)
(0 -0.012151 0)
(0 -0.0130228 0)
(0 -0.0155286 0)
(0 -0.0113664 0)
(0 -0.0122377 0)
(0 -0.0177371 0)
(0 -0.0472936 0)
(0 -0.0468649 0)
(0 -0.0315378 0)
(0 -0.0670782 0)
(0 -0.0662711 0)
(0 -0.0670136 0)
(0 -0.0555491 0)
(0 -0.0396847 0)
(0 -0.0223896 0)
(0 -0.0503532 0)
(0 -0.0629125 0)
(0 -0.0583494 0)
(0 -0.0587978 0)
(0 -0.0578259 0)
(0 -0.0582463 0)
(0 -0.0661925 0)
(0 -0.0669 0)
(0 -0.0777827 0)
(0 -0.0775505 0)
(0 -0.0776626 0)
(0 -0.0728905 0)
(0 -0.0729281 0)
(0 -0.0728293 0)
(0 -0.0665294 0)
(0 -0.0106077 0)
(0 -0.0114545 0)
(0 -0.0129803 0)
(0 -0.0122135 0)
(0 -0.0106956 0)
(0 -0.0114593 0)
(0 -0.0099623 0)
(0 -0.0107377 0)
(0 -0.079946 0)
(0 -0.0614276 0)
(0 -0.0128997 0)
(0 -0.00932252 0)
(0 -0.0100614 0)
(0 -0.0708959 0)
(0 -0.0645014 0)
(0 -0.0799912 0)
(0 -0.00375094 0)
(0 -0.0041439 0)
(0 -0.00473524 0)
(0 -0.0045235 0)
(0 -0.00510983 0)
(0 -0.00488894 0)
(0 -0.0043069 0)
(0 -0.00466292 0)
(0 -0.00523951 0)
(0 -0.00500291 0)
(0 -0.00443247 0)
(0 -0.00476171 0)
(0 -0.00419837 0)
(0 -0.00451679 0)
(0 -0.00507345 0)
(0 -0.00481674 0)
(0 -0.00536683 0)
(0 -0.00509729 0)
(0 -0.00455733 0)
(0 -0.00482484 0)
(0 -0.00535738 0)
(0 -0.0050712 0)
(0 -0.00455041 0)
(0 -0.00478333 0)
(0 -0.00529663 0)
(0 -0.0049941 0)
(0 -0.00550045 0)
(0 -0.00518189 0)
(0 -0.00568129 0)
(0 -0.00534605 0)
(0 -0.00486178 0)
(0 -0.00500921 0)
(0 -0.00548585 0)
(0 -0.00513169 0)
(0 -0.00467208 0)
(0 -0.0047776 0)
(0 -0.00522881 0)
(0 -0.00485764 0)
(0 -0.00530051 0)
(0 -0.00491135 0)
(0 -0.00534547 0)
(0 -0.00448827 0)
(0 -0.00493733 0)
(0 -0.00536292 0)
(0 -0.00493528 0)
(0 -0.00535238 0)
(0 -0.00490487 0)
(0 -0.00531347 0)
(0 -0.00450871 0)
(0 -0.00484567 0)
(0 -0.00524609 0)
(0 -0.00573773 0)
(0 -0.00566254 0)
(0 -0.00514887 0)
(0 -0.00555539 0)
(0 -0.00609327 0)
(0 -0.00597607 0)
(0 -0.0054163 0)
(0 -0.00582903 0)
(0 -0.00575472 0)
(0 -0.00641279 0)
(0 -0.00625894 0)
(0 -0.00427509 0)