/*--------------------------------*- C++ -*----------------------------------*\
| =========                 |                                                 |
| \\      /  F ield         | OpenFOAM: The Open Source CFD Toolbox           |
|  \\    /   O peration     | Version:  v2012                                 |
|   \\  /    A nd           | Website:  www.openfoam.com                      |
|    \\/     M anipulation  |                                                 |
\*---------------------------------------------------------------------------*/
FoamFile
{
    version     2.0;
    format      ascii;
    class       volScalarField;
    location    "100";
    object      ddt0(omega);
}
// * * * * * * * * * * * * * * * * * * * * * * * * * * * * * * * * * * * * * //

dimensions      [0 0 -2 0 0 0 0];


internalField   nonuniform List<scalar> 
13917
(
0.1465
0.00121749
-0.00110179
9.30354e-06
-0.000359925
0.00196339
2.15082e-05
0.0751914
-3.98195e-06
-0.451591
-0.0545744
7.70559e-06
9.5332e-06
-1.47467
0.000297351
0.416844
-5.24072e-06
-0.0154083
-0.00112741
3.0474
-0.000759072
4.44255e-06
-7.59245e-05
4.61516e-06
1.24354e-05
-0.000983245
0.907777
-0.215827
-0.00359031
2.33525e-05
0.829675
-0.00102947
1.43572e-05
-0.0320698
5.09523e-06
-0.779916
4.87211e-05
-2.55878e-06
2.02638e-05
-0.00029769
-1.04775e-05
-1.24035e-05
-4.08427e-06
-0.00159196
-0.00153888
-0.00944856
-0.000442309
2.64667
-0.189668
5.17986e-06
6.04499e-06
-0.00142284
0.233539
1.83144e-06
-3.81529e-07
-0.00209678
0.288599
-4.02952e-05
-1.47924e-06
-0.00745297
-0.728263
0.00593388
-7.12657e-06
1.50271e-05
0.148498
0.0116154
-0.0055042
-1.05109
-0.0136224
0.179984
0.299976
0.00870529
1.71213e-06
2.38806e-05
-0.000805243
5.76132e-06
-4.53976e-06
1.39292e-05
9.38106e-06
1.49373e-05
2.48827e-06
-4.56922e-06
1.50918e-06
0.147507
4.85015e-06
-0.0236936
-0.00101323
5.35842e-06
-0.000488124
-4.60877e-06
5.39599e-07
-4.21854e-06
-0.322996
3.05869e-06
5.17321e-06
-0.00415041
1.92452
-2.78423e-06
5.03567e-06
0.0102728
-1.04065e-05
-8.59159e-06
4.01414e-06
9.96776e-07
2.80936e-05
0.0270648
0.21099
0.00364089
8.97734e-05
0.35031
5.16437e-06
-0.039475
-0.00286475
3.34272
0.146101
5.40926e-07
-0.00156265
-2.07908e-06
0.00523767
4.6832e-07
-1.67841e-06
5.22273e-06
-0.00840164
-0.00125531
0.140176
0.106948
1.55136e-05
-0.00111585
5.2635e-07
-0.00164668
-6.13312e-05
-0.0837531
-0.149612
3.21799e-06
-0.0013118
0.643584
-0.405003
0.0758496
-0.00124739
-2.94807e-06
-0.478302
-1.618e-06
0.0274576
9.77268e-07
3.07705e-06
6.39589e-06
0.320031
-0.397561
3.89587
3.90571e-07
-0.000523989
-8.98867e-06
3.1556e-06
3.25892e-07
1.23512
3.156e-05
6.95593e-07
-0.150761
-6.55376e-06
-3.04746e-06
4.48778e-06
0.033584
0.000217262
-0.40642
-0.232165
0.256485
-0.0963955
-0.283994
7.99725e-07
-0.00200659
7.29432e-06
-0.155308
-2.08055e-06
-0.630598
0.00222374
-9.83946e-06
8.15594e-06
-0.00380802
-4.46756e-05
0.000226258
-3.91483e-06
5.87946e-06
5.89771e-06
-0.00750535
0.00573713
-0.132172
4.2631e-06
0.00142045
7.18476e-06
-0.0302308
0.00237141
-0.00181951
-0.00470922
0.316574
3.08939e-06
0.13177
-8.82811e-06
-0.130646
4.93393e-06
2.19092e-05
-0.000303862
0.204494
0.120722
5.52454e-05
0.28284
-0.000340621
-0.000360006
4.2211e-06
-0.0035212
2.39902e-06
-2.36781e-07
0.00736971
0.0117743
2.91931
-0.0013351
-0.00121
0.0277052
3.3246e-06
1.46338e-06
2.38006e-06
-0.194148
-0.00315737
-0.0186359
5.52271e-06
-9.24727e-06
0.19544
0.167044
1.69717e-06
1.84678e-06
-9.0058e-06
3.34334e-06
3.47873e-06
0.0375253
0.579717
4.01834e-06
2.51867e-06
0.000403768
0.037613
-6.19528e-06
5.63549e-06
0.160031
0.0229697
0.000418389
0.00518529
0.00262502
1.17165e-06
-0.28558
0.000315849
-0.00278598
-0.00132248
4.16392e-05
0.990866
4.12567e-07
0.000490887
0.00182366
1.65604e-06
-3.74853e-06
1.4109e-05
0.0006613
2.18337e-06
0.0361588
0.529916
6.12475e-06
1.53365e-06
3.91568e-05
1.12875e-06
2.49908e-07
1.19103e-05
0.000294719
3.39606e-06
0.0288467
0.12843
9.23885e-07
0.000193781
0.02795
-3.8809e-06
0.015019
-0.00836652
-3.30255e-06
0.120948
1.66985e-08
0.043764
-1.06133e-05
5.69626e-05
-3.62335e-07
-4.03696e-08
0.000807948
-3.65989e-07
1.25364
-4.49757e-05
0.633421
-9.37849e-05
0.794806
0.0980306
-3.08163e-06
0.000142619
0.000714788
1.22651e-06
0.000328099
8.3985e-06
1.81957e-06
7.41679e-07
-0.00359655
-0.0123707
0.000438966
1.16592e-05
5.36076e-06
-0.145575
0.180654
-4.05301e-07
0.00771262
2.62121e-07
0.0798598
0.00029026
0.072642
-0.539518
0.0226049
0.0110342
0.000171098
0.242973
0.0375375
0.00173831
1.06489e-05
0.000137152
0.763082
1.71392e-05
0.00267802
-0.00130399
-3.61086e-06
-0.152688
5.25356e-06
-0.00015462
4.47807e-06
-0.743624
2.17048e-06
0.000323995
-0.000514174
0.0182244
-2.37602e-06
-0.00129522
0.0796019
3.16366e-06
1.71069e-05
-0.0703563
0.0593471
-0.350684
-1.01787
-2.68332e-06
5.451e-06
0.01838
-0.0183113
-2.04422e-06
0.000880341
3.21147e-07
-0.00276996
0.000371541
-0.00205821
0.00533298
0.0146308
-0.000207142
0.0575067
1.26042e-06
3.38327e-06
0.00100967
0.0054171
-6.98704e-06
0.452075
-0.000177838
-0.06613
2.91924e-07
0.0084714
0.00281515
-0.439803
-0.000116842
-0.0212823
0.0165462
-0.00106769
5.34427e-07
0.661365
2.38013e-06
-0.297141
-0.00430102
-0.000133184
-0.331664
-8.69929e-06
0.0782419
-7.12732e-07
2.30944
0.00944696
2.24045e-05
-0.168104
0.00694014
2.92785e-05
-0.199978
-0.00237387
1.82576e-05
-0.00235875
6.33372e-06
0.00430592
-0.00136097
4.97266e-06
3.95819e-06
1.10746e-05
1.17576e-07
3.31634e-06
2.29781e-06
-0.0124222
0.319719
8.41191e-07
1.41082e-06
2.82004e-06
0.000659656
-0.391536
-2.07592e-06
1.02595e-06
-0.000401323
0.00456578
8.50101e-08
2.49096e-05
-0.736645
0.861668
0.00823694
-0.00149189
0.418139
3.71306e-07
-3.64528e-06
-0.000256306
3.4702e-06
-3.25789e-06
1.67749e-06
-4.16844e-06
3.6083e-06
-0.173552
6.31771e-06
-0.000132414
0.000463237
0.000340101
-2.53229e-08
3.4356e-06
-0.145335
-0.000292825
0.192867
-2.76953e-06
4.36028e-06
9.53371e-07
4.45823e-06
5.29366e-05
-1.23004e-05
-0.8284
0.010768
0.0186006
4.05142e-06
-6.2202e-05
0.00868663
1.49715e-06
0.0020795
-0.41447
1.57646e-07
0.594503
6.26416e-07
3.77994e-06
2.32975e-06
-9.73197e-06
-1.64597e-07
6.73975e-06
-0.155871
-0.636506
5.32922e-08
0.507559
-0.000627027
7.91312e-06
0.000219599
0.000164695
-0.178314
8.08991e-07
0.0194955
0.0176114
0.0266095
-1.53656e-05
0.0123122
0.011038
3.7834e-05
0.143933
6.89882e-08
6.36253e-07
5.4397e-06
-4.67488e-06
-0.000602763
0.000206997
-0.00047308
-0.000341716
5.78005e-05
-0.0153244
0.00061906
1.13702e-06
-1.08723
0.000151812
-5.07232e-05
-0.35356
5.35211e-06
0.00113904
-0.000444873
3.1229e-06
-0.144428
3.70663e-06
4.60416e-06
0.000587426
-1.93153e-06
3.23122e-06
-0.00100868
-0.120167
-0.26185
4.63243e-06
1.33387e-06
0.000583023
0.000915474
-0.965098
1.03378e-06
4.41391e-07
4.40031e-06
0.00145219
-0.154797
3.93996e-07
-5.59705e-06
1.73097e-05
3.65096e-07
7.92888e-05
4.49243e-05
-1.01482e-06
-0.000544063
3.09368e-06
3.26933e-06
1.34153e-05
0.0423568
1.17428e-06
1.67249e-06
1.00372e-06
-3.69951e-05
-0.000173121
-0.00473866
0.00164753
-0.0193523
1.27524e-05
-0.00583314
-0.11662
-0.138238
-0.0349246
-4.97611e-07
2.24674e-06
-0.000750672
3.55868e-06
0.115891
-4.12496e-06
0.517595
-4.13276e-06
-0.0513184
0.0316056
-4.54438e-06
-0.735049
2.2752e-07
-0.000346168
-2.62134e-06
-7.07725e-05
-0.0862692
2.33928e-06
0.00788747
-1.21026e-05
9.11555e-06
2.14528e-06
-0.000880271
-0.000268666
5.98497e-07
-0.00162545
0.000194887
0.408625
0.415778
-0.123539
-0.19906
1.24266e-06
0.16559
-4.30166e-06
-0.578921
-0.370883
6.96804e-05
0.00280283
-9.88741e-06
0.000160025
-4.30357e-06
7.24569e-07
-2.12411e-06
6.73763e-06
0.683355
4.92485e-06
-0.000832148
2.00373e-06
8.69691e-07
-4.84353e-06
-0.0178363
0.416514
-5.18387
-0.00114381
3.852e-05
0.103067
0.0116323
-8.1972e-07
0.0975349
6.72751e-06
0.00090891
2.84281e-06
0.452532
2.64625e-07
0.000305299
2.9289e-06
0.606677
0.000268816
0.113844
-1.13948e-06
0.000225988
2.96958e-06
-1.05863e-05
0.028086
0.0560825
6.87392e-06
-0.00289832
5.42231e-06
6.55489e-06
-1.07796e-05
-0.0133012
4.80904e-06
0.000842456
-4.00133e-06
4.78015e-06
0.00587198
-9.30663e-06
-0.0018513
-2.54291e-06
2.47514e-06
-0.62724
-0.000884807
1.33802e-06
0.558597
0.000414142
-0.186212
-0.00184174
5.46805e-07
0.000463702
0.104666
0.023626
-0.000180318
4.65401e-05
0.000222151
-1.51393e-06
5.10737e-06
0.026872
-0.000352699
-7.97455e-06
-0.382153
0.000201833
-0.0812988
-1.3442
-0.00201511
0.000285851
-0.00163
0.0833721
2.05264e-06
-0.00205279
0.0289996
2.70203e-06
-8.98206e-07
-4.63373e-06
-0.000514361
4.57641e-06
0.164309
-8.312e-05
2.30532e-06
-0.00178639
-1.07831e-06
0.049977
-9.44731e-08
4.07289e-07
-0.131736
-0.00010356
0.0328648
5.07346e-06
9.58907e-05
-2.49577e-08
2.72963e-06
3.10569e-05
8.79339e-07
0.148472
-6.5391e-05
0.210161
0.0132937
-0.00210169
-0.113157
2.39272e-06
4.40172e-07
3.6048e-06
-0.0364719
-0.454535
-1.08876e-05
0.156444
-0.212956
2.22781e-06
-1.80972e-07
5.71504e-05
0.0409883
0.00339664
0.000251497
3.55184e-06
2.22856e-06
0.00108265
0.000121194
-0.00211487
-9.66949e-05
4.62753e-06
1.44844e-05
-1.46066e-08
3.50892e-05
0.000204732
0.0228834
-2.11795e-06
0.000383145
0.146414
0.000105164
0.0408789
2.95768e-05
0.00122536
8.29592e-06
0.0211057
-2.05921e-06
-0.000304072
0.535787
-0.0434825
4.57423e-06
-2.63479e-06
2.49584e-06
2.76331e-06
1.73212e-06
-0.00337973
0.0195215
-0.0185482
-0.0018567
1.74646e-06
0.0420341
-3.662e-06
-2.29592e-06
-0.00325126
3.62004e-06
-0.000394838
1.69192
4.57595e-07
-0.000257402
0.00317588
-8.73178e-05
4.25904e-06
-1.15863e-07
4.21983e-06
0.243479
1.3659e-05
-6.50752e-06
-0.000162689
4.81227e-07
-6.14421e-07
-0.00136898
1.21616
-0.00703529
0.731113
-0.00226991
0.0139915
1.1589e-06
-4.60407e-05
-0.0245011
0.000176674
0.11259
-2.79528e-06
-3.33032e-07
6.61599e-06
-4.04286e-06
-0.00526994
3.76787e-06
-0.0169816
7.78623e-06
-0.196476
2.87512e-05
-2.85378e-06
3.1176e-06
-0.00131873
0.000122392
-0.0320767
-0.00697931
-5.04233e-06
0.0791571
1.39904e-05
0.0652658
-4.34229e-06
0.00267869
8.61972e-05
1.64841e-06
4.44014e-06
-0.125507
4.00997e-05
-0.225021
1.09118
2.79246e-06
-9.81924e-05
2.0932e-06
0.000426408
-0.092798
3.45353e-06
-0.23359
-4.95484e-08
-0.00063212
-0.00160014
-0.0444802
9.24053e-09
5.04996e-07
0.00326243
1.11777e-06
3.32389e-06
1.5364e-05
2.54407e-06
-0.000179899
-7.53591e-07
-0.0105483
4.49844e-06
0.248008
0.0684854
-0.199619
0.01476
0.69568
0.211337
0.100568
1.75352e-06
1.99369e-05
7.82913e-06
1.17262e-05
4.46296e-06
3.75123e-05
5.73783e-06
-0.560542
2.01428e-06
0.724867
1.35597e-05
-3.98636e-05
0.00570033
1.46652e-06
-0.000310921
1.40043e-05
-0.000169416
1.808e-05
1.06033e-06
-0.078233
-0.00039773
0.00222155
-5.14253e-07
2.62636e-06
1.02514e-05
1.20482e-05
-0.310637
1.66161e-06
0.137731
6.30373e-07
-0.0119695
-6.89501e-05
2.94077e-06
-0.000360565
0.00725213
1.67289e-06
-0.00146919
0.202446
7.71084e-05
-0.00132961
3.54381e-06
0.0174281
0.00013361
1.24012e-05
0.111339
-3.16143e-07
9.68291e-06
-0.00134963
0.151767
0.00027044
-0.0380141
0.375954
4.18785e-05
6.76774e-06
2.18307e-06
0.596883
3.41401e-06
-0.00161119
8.37005e-06
-0.148047
4.36011e-06
-0.239709
1.50942e-06
-5.33048e-06
-0.0227633
5.59669e-06
-0.000159102
-0.0870549
1.9781e-05
3.57922e-06
0.35382
-0.000103225
3.29502e-05
-0.00030986
1.95177e-05
0.109877
-6.65426e-05
-2.01655e-05
-0.0043466
2.6441e-06
-0.159716
7.80347e-06
-0.000236296
5.22994e-06
0.00229698
-0.00374669
1.83854e-06
0.000151839
-9.33286e-07
6.32177e-07
-1.27785e-05
-6.25731e-06
2.77417e-06
5.11492e-06
3.4452e-05
3.86373e-07
1.49595e-05
-0.00120447
-0.192512
-0.0556808
-0.00144279
9.52546e-06
0.0542059
5.2563e-06
0.0115512
-0.156346
-0.174462
2.58186e-06
1.73387e-06
4.49927e-06
6.7882e-06
2.50453e-06
4.60814e-06
3.26405e-06
0.000308961
3.46174e-06
0.625646
0.303205
4.52486e-06
-0.111258
5.33682e-06
2.72415e-06
0.00194711
-0.0141546
0.000972313
-4.78069e-06
0.0484393
4.1598e-06
9.64207e-07
-0.0347706
1.44132e-05
1.28606
9.68983e-06
0.0178006
2.88672e-09
4.62691e-06
-0.000336962
-0.0317796
1.36316e-05
-0.0268435
0.000275969
3.00061e-06
3.06166e-06
2.46691e-06
-1.89914e-07
-0.000964307
-6.35695e-05
-1.14206e-05
-0.075471
2.574
-0.0120575
-0.000760319
4.78195e-06
-0.0544761
4.60027e-06
-0.597396
0.00165743
1.33765e-06
1.25436e-05
-0.0755827
-0.509292
-0.103587
-0.000359573
0.148475
-3.70901e-06
5.71899e-06
-7.59285e-05
4.33353e-06
7.27209e-06
-0.109196
0.145854
4.98335e-06
-1.29269e-05
0.0424073
-1.11544e-05
-9.80951e-08
0.710536
-0.0122316
1.15538e-05
-5.33989e-06
1.80733e-05
4.69228e-06
5.11435e-07
-0.00361598
0.000158448
7.58181e-06
0.317824
-0.00028189
-0.00885241
-0.131589
0.00329775
0.00581249
3.70193e-06
1.27934e-05
0.0437832
0.195946
0.0650915
0.00565962
-0.000339683
-1.60385e-06
1.13616e-05
0.000205144
-0.0957096
0.00640024
2.58266e-05
-0.000541031
1.53963e-07
-0.0435199
-0.00100698
-0.000494383
-0.000186572
-0.0155345
0.00381408
-1.19455
-0.144548
-3.01289e-06
-0.0191362
-1.20855e-07
0.00154819
0.000772197
-0.0910338
9.0511e-06
-8.80362e-05
3.70639e-07
-0.126879
2.75337e-05
-0.238626
0.000235232
0.00343452
-0.50504
-3.19798e-07
0.000681997
2.10952e-05
6.95062e-06
-0.00147095
-0.00961549
-3.89471e-06
3.5862e-06
1.30485e-05
0.041086
3.70869e-06
2.03779e-05
-3.86347e-06
8.76981e-06
-7.16696e-07
0.00532832
-7.1116e-05
2.51638e-05
-1.41451e-07
-0.0130069
0.0176346
0.00142156
-0.162648
8.82649e-06
4.57698e-06
0.0755849
-5.97348e-06
2.88136e-05
-0.143126
-0.0193011
-0.0014373
0.00168948
0.000144032
0.230475
0.0176706
-0.00045103
0.476696
1.98159e-07
-6.63423e-05
-0.177876
0.00579994
0.00889992
-0.491652
3.49522e-06
2.93096e-06
2.84119e-06
-4.80035e-07
3.28558e-06
0.024714
-2.94174e-07
0.000486992
1.22691e-06
-0.000267506
-0.157239
1.96067e-05
-0.0477612
0.619733
4.94189e-06
2.60951e-07
0.000209393
1.46973e-05
2.14472e-06
-0.0500916
-0.000947326
0.0864641
-9.50939e-05
-0.413298
0.00400636
9.73018e-05
-0.313617
0.000233799
-0.00194213
2.42946e-06
0.0608478
2.25828e-06
-5.20231e-06
-0.000977668
0.000143472
-1.99785e-06
-0.00055194
-0.220447
5.00936e-06
-0.0345395
0.039505
3.63414e-06
4.66555e-06
0.000168434
-0.347282
-0.0303404
4.52035e-06
-3.24305e-05
-0.00975467
-0.020179
0.120691
7.19824e-06
3.51305e-06
4.21109e-06
2.38633e-06
-9.47481e-07
5.2118e-05
-0.189231
1.72702e-05
4.76148e-06
0.00560675
-0.00778039
-0.00138581
-0.00233857
-0.443688
3.57251e-06
1.81238e-06
3.59905e-06
1.40125e-05
-1.91929e-05
-0.0502761
-0.00307119
0.00664665
-0.00022805
-0.000408648
-4.20646e-06
-0.0497776
1.72836e-05
-0.00188565
4.53144e-06
-0.00943249
-0.0672884
3.07819e-06
1.7588e-06
-0.106635
0.00051656
0.0617629
-0.228418
0.00167811
1.36857e-07
0.125072
2.98762e-06
4.69122e-06
-0.306297
0.271963
4.22584e-06
-0.00216425
-0.00154571
-0.000435758
1.39244e-05
-9.38587e-07
4.99894e-06
-2.1654e-07
3.28763e-06
5.74607e-05
0.000558143
0.0806143
-0.000357381
1.54108e-05
-2.7824e-05
0.00370113
7.94083e-08
-0.000561956
-0.0151884
-0.00228656
0.13905
1.8681e-05
-1.59772e-06
-0.0178941
3.61583e-06
0.105373
1.49253e-05
-0.000250816
1.60004e-06
3.62808e-06
0.0475556
1.03391e-05
1.32694e-05
3.35026e-06
0.164788
0.146814
0.0190258
7.12778e-06
2.8599e-06
-0.416763
-2.75691e-06
3.48684e-06
0.00961884
0.116102
-5.89589e-05
9.33327e-05
1.37727e-05
0.127013
3.22377e-06
-0.000105264
-1.88628e-06
-1.53388e-06
0.00736878
2.9847e-06
-2.64646e-07
-0.292543
-0.000724325
-0.0605368
0.00777973
4.20541e-06
4.3406e-05
1.74986e-07
6.22965e-07
2.29287e-05
6.2238e-06
-6.64561e-08
0.00859051
6.93483e-06
0.000456065
-0.000902556
-0.00431953
4.44627e-06
-0.00015793
1.44719e-06
-0.0561841
3.76462e-07
-0.0746634
-0.00112012
7.21228e-06
-0.000456971
8.35287e-05
5.1062e-05
3.92788e-07
-0.000226899
4.20644e-06
2.22801e-06
-0.00263509
0.00120287
-0.00437999
7.2932e-07
3.79474e-06
7.0975e-05
-0.0154589
4.52425e-07
0.0124817
0.000401636
2.81692e-06
4.6648e-06
-1.41941e-06
0.000484839
-0.0747479
0.162163
0.0981816
-0.027725
-0.00173864
0.00293277
1.56569e-05
0.189081
1.45237e-06
-1.32011e-06
-1.16962e-05
0.00868066
-1.44161e-06
-0.0825421
7.1485e-06
1.03734e-06
0.0140848
0.0208668
0.237765
-0.0069257
4.5893e-06
0.0121756
-0.086336
-5.93482e-06
0.180182
5.53826e-06
-1.0215e-05
-0.235652
7.26674e-07
-0.0978914
-0.0445933
7.63428e-07
5.13784e-06
-7.28623e-06
-0.111397
-7.27661e-06
-1.70191e-06
-0.00136213
4.35102e-06
-4.73153e-07
0.000111663
1.55847e-06
-0.000323055
8.16053e-06
0.000111898
2.24374e-06
0.605199
-0.0377928
1.98383e-06
1.9178e-06
1.04551e-05
4.39914e-06
3.14545e-07
9.52667e-06
-2.86093e-06
7.70139e-06
5.34477e-06
9.88466e-06
1.33308e-06
-0.00650952
-1.1008e-06
-0.00130976
3.88284e-06
-0.000963115
4.86535e-06
9.00053e-08
2.42449e-07
1.56034e-06
-0.000510219
-5.96128e-05
-4.64834e-06
0.0374505
0.0325827
-0.163617
-0.00729236
-0.00134377
0.0142089
3.39097e-06
1.72993e-06
1.40347
-0.643211
0.000113236
0.0172648
-3.71744e-08
0.000581977
-0.341658
3.39482e-06
-0.00113684
0.219933
-0.129516
3.55949e-07
-0.00037901
4.68909e-06
0.206928
4.89559e-06
-0.13532
2.79313
2.50406e-06
-0.0229137
1.28032
-5.22219e-06
0.194168
-0.000101781
1.66707e-05
3.36859e-06
0.0155948
-0.0228858
-5.20785e-06
-3.40901e-05
5.2686e-06
1.99351
-0.00257166
1.05446e-06
5.20731e-06
0.346988
1.36253e-06
4.64979e-06
9.41525e-06
3.46717e-06
-0.0304486
-8.18458e-05
4.4317e-05
-0.0754833
3.48977e-06
-0.00323177
7.52244e-07
0.0190601
0.00125621
0.159113
4.27965e-06
2.70749e-05
-5.13402e-06
-2.75365e-07
-3.46833e-06
5.23613e-07
0.179195
1.15011e-05
2.54822e-06
5.13982e-06
0.00441538
3.30424e-06
-0.0139542
-1.46248
0.251916
4.82542e-06
2.90751e-06
2.7457e-06
0.119127
1.67178e-06
0.0106204
1.01103e-07
1.35721
1.91186e-05
-0.000216023
0.0277113
4.84518e-06
-4.41574e-06
-0.00264922
-0.00156234
-0.076441
-1.14685e-05
-0.038158
1.05437
6.87138e-06
-0.0205054
6.93572e-06
-2.63215e-05
-0.352238
2.31688e-05
-0.00124138
0.115113
0.000266031
-0.00091466
3.51794e-06
0.280772
5.4193e-06
-0.0377499
2.92339e-06
0.131423
4.96293e-06
6.16102e-06
8.368e-05
0.0841413
1.14617e-06
0.0243433
0.00118588
0.366837
2.51779e-06
-0.000149287
-0.124672
-0.367477
-2.96219
0.000878011
4.88577e-06
-0.00166968
0.778069
6.89772e-05
0.196751
-4.86575e-06
-0.0029038
0.21914
2.48981e-06
0.119516
4.70675e-06
-0.0153457
-0.0184198
7.16595e-06
1.65255e-05
-0.0531785
0.242732
3.51674e-06
1.45382e-05
3.56661e-06
6.04622e-06
0.0992053
0.00192606
0.0102154
4.01613e-06
-1.84321e-05
-0.107285
-0.00550831
-0.104459
-0.246988
5.27954e-06
5.2381e-06
-0.000154104
-0.73543
-0.339468
-0.358343
0.0067479
-0.000687001
-0.00358878
-0.0916712
-0.21998
-0.049178
3.54888e-06
-0.000329618
0.000573786
0.00266096
-3.05764e-07
-6.39904e-06
0.00177956
0.00162701
0.0844335
7.60386e-05
-1.96283
-0.061604
-0.00171495
4.95381e-06
4.96282e-06
-0.137835
3.99326e-06
-0.141756
-3.65792e-05
-0.000987734
-0.0200313
0.0344829
2.20618e-06
0.000242377
3.81848e-05
3.71999e-07
-0.0851724
0.000259426
-0.0858994
5.43686e-07
-0.0439698
0.0921489
0.00110676
1.40806e-06
-6.37762e-05
0.000148705
0.0100141
0.00379552
-0.0010542
0.0957292
0.175938
5.89675e-06
-2.20557e-05
3.76447e-05
-0.00192732
0.186302
-4.19556e-06
2.469e-06
1.23566e-05
-1.1832
0.0158191
1.92391e-06
0.00054595
-0.0166619
3.5164e-06
0.0188965
5.77071e-05
-0.0977489
-8.06503e-05
0.0286369
-0.00407397
4.18832e-05
8.55217e-05
0.292623
4.30316e-06
-0.00279264
0.221823
3.13025e-07
0.00459967
-3.30364e-05
-0.000753919
-0.767195
-0.0280775
4.68804e-06
-0.452176
0.0863458
-3.72944e-09
-0.000598036
-6.17949e-05
0.00753852
0.39291
1.10828
-0.349736
-0.000723733
0.0772158
-6.59232e-05
-0.000157849
-8.86943e-07
3.52754e-06
4.88237e-08
4.02206e-06
0.0329765
-0.00363835
-3.46531e-06
-0.000407752
0.00273785
3.89918e-06
0.0947349
0.12127
1.91707e-05
2.25466e-06
-4.65271e-06
1.20389e-05
-0.000313471
5.62181e-06
-0.340708
4.22033e-05
0.000612053
0.000170059
0.00256404
-0.00345196
0.00132967
-1.21174
9.53571e-09
1.37902e-05
-4.84912e-06
1.60656e-06
-0.101606
0.00069195
-0.000112557
-0.629195
5.34284e-06
3.95786e-06
0.000211727
1.60776e-06
3.72319e-06
0.00386138
8.69852e-06
0.0461478
-0.11571
-0.657491
6.43004e-07
0.39188
2.35881e-06
0.15301
2.46544e-06
-0.000498142
-0.181256
3.53485e-06
-0.704994
0.0432369
-0.000370662
7.29243e-06
-2.50362e-06
-0.000123785
-0.743382
3.66153e-06
8.20902e-06
5.53524e-07
-3.15446e-06
-0.00186049
7.46034e-06
1.76323e-07
4.63427e-06
-7.74206e-07
0.276371
0.000192222
-7.21249e-05
-0.00191741
-0.083066
-0.128636
-0.484731
4.91952e-06
2.79753e-06
0.178079
-6.28033e-07
-0.000704368
1.14939e-06
0.0622806
-5.55753e-06
1.1855e-05
-0.000817139
0.0220454
5.40206e-06
3.74073e-06
1.69831e-06
0.00440009
3.84521
0.00111209
3.41724e-06
1.77557e-05
3.71684e-06
-0.071464
-8.59185e-06
0.500897
-0.000647409
5.42442e-06
-0.0188761
0.0013086
0.00660798
-2.17026e-06
-1.66726e-06
-3.96091e-05
-0.00122157
0.0169622
8.18294e-06
3.27334e-06
7.54213e-07
-0.0465612
3.49017e-06
9.48868e-06
-0.0139743
1.95455e-05
0.00703624
9.70752e-06
-4.61777e-08
7.76792e-07
-0.301393
-4.63373e-06
0.251537
0.00349156
-3.11259e-07
0.626367
2.21161e-06
-0.000320906
0.000816629
7.25797e-06
6.0733e-07
-1.75103e-06
5.51448e-06
-0.44805
-0.00039132
-0.0501749
0.0118956
4.52282e-06
0.0105955
-0.000694102
0.491397
5.36427e-06
-0.208477
-0.0380383
0.104853
2.13651e-06
1.48312e-05
1.20445e-05
0.0346893
-0.0974341
-0.00102284
5.90084e-06
6.12067e-05
-0.33224
7.82323e-06
1.45166e-05
1.68231e-05
0.000661866
0.137661
9.88552e-07
-0.100414
-1.60451e-05
5.17166e-06
-0.385723
-0.000675298
1.06139
-0.457844
-0.000411617
3.75839e-05
9.89165e-06
0.000164622
4.24749e-06
-0.015438
-0.00156778
-1.91537e-06
1.20253e-05
-0.000403292
-0.0376866
3.45049e-06
0.00302537
0.393559
1.24264
-4.50836e-06
6.49733e-06
0.00240106
0.334975
-0.374312
2.68941e-06
0.699238
-0.000278742
9.00297e-07
0.0858869
-9.83159e-05
6.46639e-06
-0.0170024
2.57072e-06
-0.0326282
4.49861e-06
-1.32269e-06
4.83593e-06
1.94341e-06
0.14824
7.85156e-07
3.92264e-06
-0.000980584
-3.80086e-06
8.74664e-05
-0.000751465
2.58807e-06
3.23253e-06
1.49413e-05
8.22442e-06
-0.0478348
-0.0333993
0.291546
-0.500285
0.000822012
-0.128702
-0.000719364
0.018792
0.292814
0.172124
7.52873e-07
0.000270921
5.90753e-06
6.96988e-06
6.91617e-07
-7.30645e-06
0.00826313
-0.000567978
-0.00107797
3.12863e-06
5.30537e-06
-0.000256408
1.00304e-05
4.51723e-06
5.28919e-06
-0.084848
-5.78839e-05
0.286107
8.16839e-07
-0.00240771
2.63802e-06
9.38296e-06
-1.3936e-06
-0.000260041
8.83492e-07
-0.000392473
-0.0362179
-0.000863128
0.00439335
-0.393866
-4.30572e-06
-1.92495e-05
-0.00833078
0.000131002
5.33022e-06
-5.86313e-07
-1.21563e-06
0.0538102
-6.88697e-07
-0.250978
0.113555
6.49745e-05
-1.72805
-0.633185
-0.00100852
-0.0744613
3.47348e-07
1.86871e-06
0.0825333
0.0756726
1.09398e-07
2.65349e-06
-0.332256
3.53032e-06
-0.00586894
6.55239e-06
-7.03381e-06
1.9333e-05
7.33746e-06
0.000232849
-0.0105052
0.00947377
1.07886e-05
1.76663e-06
0.00420947
1.29819e-05
0.00345133
3.6842e-06
-0.000846093
-0.000717706
4.23584e-06
5.91112e-06
2.12233e-06
0.00764048
-0.00404748
0.00100643
-0.0246461
-6.66431e-05
0.183594
-0.00115955
0.000503166
0.0165187
1.85076e-06
0.00246138
1.21113e-05
-0.0763497
0.0200474
-0.0211594
0.0999607
-5.69306e-06
0.0012839
0.0483793
4.11026e-06
0.116723
2.76403e-06
5.68839e-06
3.29995e-06
1.30667e-05
1.61596e-06
0.0685459
0.079344
-0.393721
4.01251e-06
-0.0010789
1.06909e-05
4.30311e-06
2.06262e-06
-2.51932e-05
-0.00153688
-0.589598
0.000575192
1.1806e-06
2.54766e-06
1.93696e-06
-0.00951469
6.716e-05
3.2552e-06
-9.85478e-06
0.00626944
2.61798e-06
-0.00141578
0.00275927
-0.0166036
-0.000106218
5.68857e-06
5.7121e-06
3.75578e-06
-0.101071
-0.0629534
-0.00187442
6.70036e-07
-0.730561
0.000152564
3.11067e-06
0.000441278
-0.0703437
-0.152351
-0.000471978
3.55203e-06
-0.280626
3.23472e-06
3.39061e-06
3.18914e-06
-0.18813
0.426107
-4.27328e-06
-0.27736
0.261629
2.41185e-06
0.00363987
0.00166961
-0.0974831
-0.000111652
-0.0862828
4.35267e-06
-0.168621
-0.000133981
-0.0635321
0.000114043
-9.00696e-07
-0.124905
5.13651e-06
7.33822e-06
0.812831
0.0388024
0.663455
-0.288268
-3.1175e-06
1.47489e-05
0.788175
1.82869e-06
3.99919e-06
2.83828e-06
0.0005752
4.89409e-06
0.000880352
4.53289e-09
-0.14378
0.483223
1.12673e-05
0.0886291
2.42238e-06
-0.0894647
0.00350242
4.98569e-06
9.55508e-06
2.51035e-06
0.29276
0.0100263
0.000456443
-0.0656436
-0.109107
0.0225217
6.58965e-05
0.0863068
0.386846
-0.00886101
0.45371
5.16944e-06
3.77575e-06
1.01878e-06
7.50461e-06
4.89433e-06
-6.99094e-06
0.0048901
0.000566046
0.00492686
0.430237
-0.255426
-0.645978
-0.125824
-0.000218655
-0.108781
-0.00169315
-0.00125331
2.60825e-06
3.58376e-06
-0.00106737
0.0641176
3.86795e-05
0.0758754
-0.127824
9.86347e-07
7.49302e-06
-5.282e-06
0.0083121
4.22838e-06
6.33383e-05
0.0315836
2.97699e-06
5.55735e-06
1.52992e-06
1.22175e-05
-0.00129871
-0.0302915
-0.000785901
0.11161
0.0015764
4.97874e-06
0.0198361
0.0117342
-2.79615e-06
0.273308
0.521793
-0.591621
-1.66809
0.0269017
3.32524e-06
0.442878
-0.0468983
0.0020613
0.145935
3.06296e-06
3.07785e-05
1.23267e-05
-2.86454e-06
0.0442341
0.000815022
9.79854e-06
-3.0801e-05
-0.00182922
-0.0448731
5.03165e-05
0.000171558
-0.149192
-0.12147
5.05855e-06
-0.00010868
-8.19621e-05
4.16251e-06
5.10238e-06
-0.153859
3.49684e-06
0.0227521
0.00471666
0.00809434
1.11477e-06
0.00330193
-0.00107267
4.50322e-06
-2.67393e-06
0.0277249
-0.581161
7.36912e-06
0.00142294
-0.00444179
0.00122453
-0.149104
-0.131447
-2.50203e-05
-0.0591055
0.0207276
0.000120134
4.61451e-06
-0.0116816
2.10696e-06
-2.34026e-06
0.042437
-0.000832338
0.000922131
9.04326e-06
3.10443e-05
3.02174e-06
2.25022e-06
1.16375e-05
1.27606e-05
-0.92804
1.04085e-05
-0.00362731
0.122951
0.000314783
-0.000931347
-0.725376
-0.0534663
-1.21713
5.30703e-05
8.44576e-06
0.000197722
-2.4423e-05
-0.00441689
0.014041
9.85819e-06
-0.0229332
-0.0311614
-5.43544e-05
-0.00142042
-0.000868095
-0.00154878
-0.00121764
1.40806e-05
-0.00115243
-0.000858096
0.000180109
0.00200056
-0.000821693
-0.00107552
-3.88669e-05
3.72806e-06
0.00011527
-0.00150535
1.15814e-06
-0.0103597
-0.121704
-0.00276954
-0.0960616
-2.4541e-07
-1.54157e-06
-0.231758
0.370164
1.23402e-05
6.00514e-05
-0.000178447
-0.725798
-0.384941
1.05159e-06
0.000550152
4.33161e-06
-0.764496
-0.000802551
-2.32373e-06
-0.019384
-0.0361434
-0.00165857
-0.0755414
0.000169855
-0.153913
-0.122383
1.14162e-06
-0.0639436
-0.0788493
9.96663e-06
0.00240131
0.00378323
-4.54669e-05
3.35973e-06
0.605127
0.367426
3.82468e-06
5.82418e-06
-0.669541
0.493824
0.00311082
-3.50178e-07
0.00179712
-0.00290494
-0.132345
-0.00127617
7.26549e-06
5.39082e-06
1.27138e-05
3.10945e-06
-0.0325546
-0.41853
0.0925651
-0.00149535
-0.0042798
-0.107403
3.05447e-06
3.71532e-06
-0.0430004
1.45434e-06
-0.100881
-8.06004e-06
-0.0929882
1.40839e-05
6.5683e-06
-0.212416
3.57012e-06
-0.00117551
-0.0171399
8.21113e-06
2.41202e-05
1.4255e-05
0.00399749
0.0359995
0.00233639
-0.115968
-2.99921e-06
-1.58957e-06
3.16606e-05
0.00310726
-0.0452285
-0.655323
0.00461736
0.00579751
-0.00140861
0.576412
3.25822e-05
-1.45762e-06
3.31179e-06
2.6487e-06
-0.0296676
-0.0190262
0.141244
-0.000993483
-0.00128948
1.16303e-06
-0.0119618
-0.0249254
-0.845
3.6876e-06
1.53378e-05
-1.5433e-06
-0.0793934
0.000807496
0.350161
-0.019445
-0.00120739
0.00122235
3.31517e-07
2.67038e-05
0.00187645
-0.0229856
0.399019
5.12405e-06
-0.00148797
3.70273e-06
1.37327e-06
0.0168212
-0.507482
-1.49686
5.11251e-06
0.00414217
0.0128004
-0.521967
0.153414
-0.0175842
-0.00641954
-3.94726e-07
0.000910856
2.89191e-06
-0.0011833
3.89402e-06
0.00554353
-3.15387e-05
0.000338144
-0.00565969
-0.0242063
-3.44882e-06
0.0151539
-0.0841134
0.00135188
-1.27239e-05
0.578939
0.000700616
-3.44237e-06
-1.61595e-05
0.0238535
3.31552e-05
0.0008927
0.0777606
-0.190584
0.157573
-4.31909e-06
0.255345
-0.026216
-0.503541
0.665352
0.000117371
-0.00127284
-0.00131493
0.00789957
0.509603
1.25667e-05
0.512216
0.00176287
-0.0155489
-7.97446e-05
-0.319074
-1.57344
0.764049
-3.8821e-06
-0.350389
5.69194e-06
0.0172033
-0.00358221
0.447044
0.22605
3.28373e-06
-1.11451e-06
-0.0186116
-0.0662877
-0.00455694
1.26205e-05
-0.000762547
0.000519779
0.235763
-0.0359575
-0.0703034
-3.54575e-05
-0.0735641
0.00151065
-0.413243
1.25647e-05
-0.0160071
-0.389317
-3.57308e-06
-0.000835792
2.58197e-06
1.27897e-05
6.74885e-06
-0.0549805
3.70908e-06
1.43574e-06
-0.119681
0.26072
2.66095e-06
-0.0669065
1.34918e-05
3.38132e-06
1.57371e-06
4.42612e-06
6.09915e-06
0.367564
-0.153078
-1.56588e-06
0.679127
-0.0011014
-0.000409393
0.477433
-0.00152609
-2.32845e-05
-4.98545e-05
4.45406e-06
-0.0368625
0.000616924
-0.0470574
-6.86269e-07
0.081206
0.349252
0.000966994
-0.112081
-0.066698
2.02184e-06
0.0554144
0.000846719
-0.000804518
0.000752159
-4.53143e-08
0.112214
0.00831891
6.69954e-06
-0.358537
5.79143e-06
-0.00172638
-0.000138029
-1.17043
0.00772017
0.00490211
-0.12368
-9.4693e-07
3.88877e-06
-0.000921114
1.32775e-05
9.50881e-06
9.14975e-06
-8.30969e-05
2.37686e-06
3.68558e-06
1.16584e-05
-0.00138199
1.35499e-05
-4.16134e-05
7.80017e-06
0.00125357
0.000548947
1.18462e-05
-0.0265672
1.1883e-05
2.40879e-06
-0.0016231
-0.000258839
3.30882e-06
4.60113e-06
0.353427
-3.9908e-06
-0.0178392
-4.40467e-06
-0.000899354
2.94517e-06
4.58994e-06
0.00905886
-0.125578
-0.0011426
-0.000655477
-9.04205e-07
-0.139031
6.65946e-06
4.56953e-06
-0.00141618
6.6215e-06
-0.00641809
-0.0871179
-0.00186821
-0.0170338
-0.000669598
0.131745
3.26928e-06
5.57302e-06
0.00224792
-0.0236334
-0.000846476
0.000373593
-0.393683
-0.000100329
5.27795e-06
3.85544e-05
0.00116785
-0.000435103
6.62363e-06
-0.00166285
0.000224635
0.000260727
3.3717e-06
1.09206e-06
-0.0035059
0.000998853
0.11123
-0.132944
-5.26158e-06
-0.00107183
5.57705e-06
-0.000319201
-0.752205
-5.9198e-07
-0.00345255
-0.0402128
0.00168955
-0.266867
6.78374e-06
1.1071e-06
3.49987e-06
-0.105355
0.00825879
3.09988e-05
0.0102894
-0.000861218
5.62625e-06
1.38657e-06
0.256703
-0.0873323
-0.00272675
-0.069198
-0.00638731
-3.16727e-05
0.208966
-0.00102127
-1.42031e-05
-0.430951
-0.00100954
-0.470138
4.54254e-06
0.000626356
-0.000871751
8.55868e-06
0.204937
-5.17085e-05
-0.00815278
-9.06208e-05
0.000827781
1.45713e-06
0.0195967
-3.8253e-06
2.53139e-06
-1.49262e-06
1.86864e-06
1.11863e-05
9.75688e-06
1.98157e-06
-2.93796e-06
-6.80259e-07
7.13721e-06
-0.0185614
-0.00144365
1.0766e-05
0.000578411
-2.44469e-06