/*--------------------------------*- C++ -*----------------------------------*\
| =========                 |                                                 |
| \\      /  F ield         | OpenFOAM: The Open Source CFD Toolbox           |
|  \\    /   O peration     | Version:  v2012                                 |
|   \\  /    A nd           | Website:  www.openfoam.com                      |
|    \\/     M anipulation  |                                                 |
\*---------------------------------------------------------------------------*/
FoamFile
{
    version     2.0;
    format      ascii;
    class       volVectorField;
    location    "550";
    object      cellDisplacement;
}
// * * * * * * * * * * * * * * * * * * * * * * * * * * * * * * * * * * * * * //

dimensions      [0 1 0 0 0 0 0];


internalField   nonuniform List<vector> 
13851
(
(0 -0.0565106 0)
(0 -0.0545815 0)
(0 -0.0544676 0)
(0 -0.0565627 0)
(0 -0.00261291 0)
(0 -0.055237 0)
(0 -0.0540826 0)
(0 -0.00507504 0)
(0 -0.0565626 0)
(0 -0.0432496 0)
(0 -0.0564049 0)
(0 -0.028629 0)
(0 -0.0506026 0)
(0 -0.0565628 0)
(0 -0.0560362 0)
(0 -0.0565134 0)
(0 -0.0565628 0)
(0 -0.048867 0)
(0 -0.0565436 0)
(0 -0.0565072 0)
(0 -0.0561594 0)
(0 -0.0554605 0)
(0 -0.0565619 0)
(0 -0.00113456 0)
(0 -0.0565553 0)
(0 -0.0563751 0)
(0 -0.056548 0)
(0 -0.0565546 0)
(0 -0.0565624 0)
(0 -0.0392617 0)
(0 -0.0565625 0)
(0 -0.0540302 0)
(0 -0.0565063 0)
(0 -0.0565619 0)
(0 -0.056248 0)
(0 -0.0565622 0)
(0 -0.000994276 0)
(0 -0.0565565 0)
(0 -0.0565623 0)
(0 -0.0509813 0)
(0 -0.0565623 0)
(0 -0.0565622 0)
(0 -0.0565628 0)
(0 -0.0565551 0)
(0 -0.056562 0)
(0 -0.045211 0)
(0 -0.00882153 0)
(0 -0.0565101 0)
(0 -0.0543643 0)
(0 -0.0505226 0)
(0 -0.0565628 0)
(0 -0.0514722 0)
(0 -0.056511 0)
(0 -0.0556458 0)
(0 -0.0565628 0)
(0 -0.051091 0)
(0 -0.0565102 0)
(0 -0.0565624 0)
(0 -0.0565488 0)
(0 -0.0565628 0)
(0 -0.0276165 0)
(0 -0.0565458 0)
(0 -0.0352125 0)
(0 -0.0544897 0)
(0 -0.0565495 0)
(0 -0.0565519 0)
(0 -0.0565628 0)
(0 -0.0565092 0)
(0 -0.0514466 0)
(0 -0.0565627 0)
(0 -0.0565627 0)
(0 -0.0562815 0)
(0 -0.0491058 0)
(0 -0.0565628 0)
(0 -0.055786 0)
(0 -0.0547609 0)
(0 -0.0565628 0)
(0 -0.0334495 0)
(0 -0.0565544 0)
(0 -0.0415904 0)
(0 -0.0516415 0)
(0 -0.0565432 0)
(0 -0.0562322 0)
(0 -0.0565628 0)
(0 -0.0565628 0)
(0 -0.0565625 0)
(0 -0.0555191 0)
(0 -0.0565628 0)
(0 -0.0442943 0)
(0 -0.0565625 0)
(0 -0.0516304 0)
(0 -0.0541706 0)
(0 -0.0565628 0)
(0 -0.0565626 0)
(0 -0.0565626 0)
(0 -0.0565507 0)
(0 -0.0459424 0)
(0 -0.0565144 0)
(0 -0.0565628 0)
(0 -0.0565258 0)
(0 -0.0565182 0)
(0 -0.0564094 0)
(0 -0.0564405 0)
(0 -0.050316 0)
(0 -0.0455964 0)
(0 -0.056262 0)
(0 -0.0452619 0)
(0 -0.0565626 0)
(0 -0.0541284 0)
(0 -0.0484824 0)
(0 -0.0560104 0)
(0 -0.0455942 0)
(0 -0.0565209 0)
(0 -0.0563886 0)
(0 -0.0565081 0)
(0 -0.0555822 0)
(0 -0.0302029 0)
(0 -0.00617026 0)
(0 -0.0565627 0)
(0 -0.0565626 0)
(0 -0.0565409 0)
(0 -0.0456014 0)
(0 -0.051467 0)
(0 -0.0565627 0)
(0 -0.0565387 0)
(0 -0.0565413 0)
(0 -0.0456567 0)
(0 -0.0563909 0)
(0 -0.0565624 0)
(0 -0.0562357 0)
(0 -0.0554838 0)
(0 -0.0558767 0)
(0 -0.0565553 0)
(0 -0.056562 0)
(0 -0.0564155 0)
(0 -0.0565626 0)
(0 -0.0564998 0)
(0 -0.0565626 0)
(0 -0.0562894 0)
(0 -0.0562147 0)
(0 -0.0565413 0)
(0 -0.0537456 0)
(0 -0.0447738 0)
(0 -0.0565379 0)
(0 -0.0565553 0)
(0 -0.054669 0)
(0 -0.0325441 0)
(0 -0.0565626 0)
(0 -0.0565627 0)
(0 -0.0564061 0)
(0 -0.0565173 0)
(0 -0.0565176 0)
(0 -0.0564035 0)
(0 -0.0565369 0)
(0 -0.0523372 0)
(0 -0.0481451 0)
(0 -0.0240684 0)
(0 -0.0565624 0)
(0 -0.0561655 0)
(0 -0.0538328 0)
(0 -0.0025706 0)
(0 -0.0565623 0)
(0 -0.0562442 0)
(0 -0.0565089 0)
(0 -0.0565628 0)
(0 -0.0565623 0)
(0 -0.0565622 0)
(0 -0.0565628 0)
(0 -0.0559598 0)
(0 -0.0565595 0)
(0 -0.0263291 0)
(0 -0.0293662 0)
(0 -0.0563545 0)
(0 -0.0023051 0)
(0 -0.0565625 0)
(0 -0.0565474 0)
(0 -0.0565236 0)
(0 -0.029484 0)
(0 -0.0557731 0)
(0 -0.0565205 0)
(0 -0.0565365 0)
(0 -0.0565535 0)
(0 -0.0558929 0)
(0 -0.0562169 0)
(0 -0.0565628 0)
(0 -0.0565627 0)
(0 -0.0565089 0)
(0 -0.0560339 0)
(0 -0.0517582 0)
(0 -0.0422164 0)
(0 -0.0565541 0)
(0 -0.0561612 0)
(0 -0.0565628 0)
(0 -0.0552635 0)
(0 -0.0545479 0)
(0 -0.0565128 0)
(0 -0.0565044 0)
(0 -0.0506851 0)
(0 -0.051484 0)
(0 -0.0565102 0)
(0 -0.0565412 0)
(0 -0.0565625 0)
(0 -0.0565624 0)
(0 -0.0560183 0)
(0 -0.0565614 0)
(0 -0.0565626 0)
(0 -0.0548624 0)
(0 -0.0562005 0)
(0 -0.0565625 0)
(0 -0.0551504 0)
(0 -0.0565126 0)
(0 -0.0512452 0)
(0 -0.0565429 0)
(0 -0.00978296 0)
(0 -0.0562572 0)
(0 -0.0550966 0)
(0 -0.0501035 0)
(0 -0.0565351 0)
(0 -0.0512029 0)
(0 -0.056562 0)
(0 -0.0286791 0)
(0 -0.0565077 0)
(0 -0.0565628 0)
(0 -0.0565625 0)
(0 -0.0560001 0)
(0 -0.0562167 0)
(0 -0.0051054 0)
(0 -0.0565332 0)
(0 -0.0371938 0)
(0 -0.056238 0)
(0 -0.0565623 0)
(0 -0.0560012 0)
(0 -0.055105 0)
(0 -0.0327651 0)
(0 -0.0565624 0)
(0 -0.0395324 0)
(0 -0.0565615 0)
(0 -0.0565624 0)
(0 -0.0565201 0)
(0 -0.00241818 0)
(0 -0.0565549 0)
(0 -0.0565628 0)
(0 -0.0565619 0)
(0 -0.0565096 0)
(0 -0.0558985 0)
(0 -0.0565457 0)
(0 -0.0565318 0)
(0 -0.0557939 0)
(0 -0.0565485 0)
(0 -0.0560701 0)
(0 -0.0565628 0)
(0 -0.0565086 0)
(0 -0.00555903 0)
(0 -0.0551321 0)
(0 -0.0565166 0)
(0 -0.0565624 0)
(0 -0.0565627 0)
(0 -0.0416001 0)
(0 -0.0565443 0)
(0 -0.0440256 0)
(0 -0.0565298 0)
(0 -0.056537 0)
(0 -0.0552102 0)
(0 -0.0562569 0)
(0 -0.0565124 0)
(0 -0.0472376 0)
(0 -0.0564243 0)
(0 -0.0564933 0)
(0 -0.0565532 0)
(0 -0.0346168 0)
(0 -0.0499661 0)
(0 -0.0560299 0)
(0 -0.0565622 0)
(0 -0.0565628 0)
(0 -0.0562275 0)
(0 -0.0461812 0)
(0 -0.056538 0)
(0 -0.0565369 0)
(0 -0.0564952 0)
(0 -0.0562415 0)
(0 -0.0565623 0)
(0 -0.0565628 0)
(0 -0.0553534 0)
(0 -0.0559078 0)
(0 -0.0565575 0)
(0 -0.0454674 0)
(0 -0.0231461 0)
(0 -0.0564997 0)
(0 -0.0563781 0)
(0 -0.0405328 0)
(0 -0.00958109 0)
(0 -0.0378646 0)
(0 -0.0035048 0)
(0 -0.0558851 0)
(0 -0.0242456 0)
(0 -0.0565625 0)
(0 -0.05619 0)
(0 -0.049335 0)
(0 -0.0565624 0)
(0 -0.0565627 0)
(0 -0.0516465 0)
(0 -0.056511 0)
(0 -0.0565628 0)
(0 -0.0539408 0)
(0 -0.0518103 0)
(0 -0.0562176 0)
(0 -0.0565628 0)
(0 -0.0565613 0)
(0 -0.0563906 0)
(0 -0.0033362 0)
(0 -0.0565592 0)
(0 -0.0274037 0)
(0 -0.0564137 0)
(0 -0.0565628 0)
(0 -0.0565529 0)
(0 -0.0536763 0)
(0 -0.0565567 0)
(0 -0.0565531 0)
(0 -0.0565625 0)
(0 -0.0565168 0)
(0 -0.0564305 0)
(0 -0.0565624 0)
(0 -0.0565626 0)
(0 -0.0565541 0)
(0 -0.0517683 0)
(0 -0.0565628 0)
(0 -0.0565628 0)
(0 -0.0565602 0)
(0 -0.0565596 0)
(0 -0.0549379 0)
(0 -0.056383 0)
(0 -0.0560167 0)
(0 -0.0565628 0)
(0 -0.056458 0)
(0 -0.00924636 0)
(0 -0.00998685 0)
(0 -0.0556185 0)
(0 -0.0565626 0)
(0 -0.0565619 0)
(0 -0.0451147 0)
(0 -0.0565626 0)
(0 -0.0560445 0)
(0 -0.0559088 0)
(0 -0.0539072 0)
(0 -0.0565628 0)
(0 -0.0565363 0)
(0 -0.056515 0)
(0 -0.0549989 0)
(0 -0.0549894 0)
(0 -0.0565621 0)
(0 -0.0519504 0)
(0 -0.0565387 0)
(0 -0.0552984 0)
(0 -0.05622 0)
(0 -0.0560838 0)
(0 -0.0444994 0)
(0 -0.0491997 0)
(0 -0.0565181 0)
(0 -0.0565291 0)
(0 -0.0565086 0)
(0 -0.0565546 0)
(0 -0.056562 0)
(0 -0.0547684 0)
(0 -0.0565625 0)
(0 -0.0565377 0)
(0 -0.0415561 0)
(0 -0.0565538 0)
(0 -0.0564653 0)
(0 -0.0565628 0)
(0 -0.0555435 0)
(0 -0.0563927 0)
(0 -0.0565467 0)
(0 -0.0565551 0)
(0 -0.0565136 0)
(0 -0.0565628 0)
(0 -0.0532072 0)
(0 -0.0565487 0)
(0 -0.0565628 0)
(0 -0.0557679 0)
(0 -0.0565628 0)
(0 -0.055906 0)
(0 -0.0565623 0)
(0 -0.0558697 0)
(0 -0.0560385 0)
(0 -0.0565086 0)
(0 -0.0565375 0)
(0 -0.0482562 0)
(0 -0.0552577 0)
(0 -0.0563941 0)
(0 -0.0558086 0)
(0 -0.0463498 0)
(0 -0.0562419 0)
(0 -0.0565605 0)
(0 -0.0489048 0)
(0 -0.0562053 0)
(0 -0.0565627 0)
(0 -0.0546061 0)
(0 -0.0565587 0)
(0 -0.0561678 0)
(0 -0.056561 0)
(0 -0.0552461 0)
(0 -0.0563575 0)
(0 -0.0565609 0)
(0 -0.0565389 0)
(0 -0.0562466 0)
(0 -0.0565627 0)
(0 -0.0565628 0)
(0 -0.0565536 0)
(0 -0.0473795 0)
(0 -0.0565147 0)
(0 -0.0559378 0)
(0 -0.0563864 0)
(0 -0.0457301 0)
(0 -0.0565628 0)
(0 -0.0565606 0)
(0 -0.0565552 0)
(0 -0.054928 0)
(0 -0.0565124 0)
(0 -0.0565458 0)
(0 -0.0565628 0)
(0 -0.0344778 0)
(0 -0.0565628 0)
(0 -0.0565402 0)
(0 -0.0565624 0)
(0 -0.0561044 0)
(0 -0.0565547 0)
(0 -0.0481705 0)
(0 -0.00202546 0)
(0 -0.0565628 0)
(0 -0.056546 0)
(0 -0.0439954 0)
(0 -0.0545962 0)
(0 -0.0562253 0)
(0 -0.0303837 0)
(0 -0.0565602 0)
(0 -0.0563901 0)
(0 -0.0564588 0)
(0 -0.0549905 0)
(0 -0.0531531 0)
(0 -0.0514271 0)
(0 -0.0565545 0)
(0 -0.0490857 0)
(0 -0.0511786 0)
(0 -0.0565585 0)
(0 -0.0565603 0)
(0 -0.0554131 0)
(0 -0.0565436 0)
(0 -0.0346041 0)
(0 -0.0232803 0)
(0 -0.0547402 0)
(0 -0.0565119 0)
(0 -0.0561457 0)
(0 -0.0470615 0)
(0 -0.0535026 0)
(0 -0.0565378 0)
(0 -0.0538385 0)
(0 -0.0565609 0)
(0 -0.0271291 0)
(0 -0.0552713 0)
(0 -0.056562 0)
(0 -0.056279 0)
(0 -0.0104177 0)
(0 -0.0255657 0)
(0 -0.0549379 0)
(0 -0.0513321 0)
(0 -0.0565548 0)
(0 -0.0565596 0)
(0 -0.0559295 0)
(0 -0.0565619 0)
(0 -0.054794 0)
(0 -0.0342779 0)
(0 -0.0565624 0)
(0 -0.056546 0)
(0 -0.0562886 0)
(0 -0.0498828 0)
(0 -0.0565627 0)
(0 -0.056273 0)
(0 -0.0565611 0)
(0 -0.0502459 0)
(0 -0.0558812 0)
(0 -0.0565177 0)
(0 -0.0559192 0)
(0 -0.0565626 0)
(0 -0.056547 0)
(0 -0.0565544 0)
(0 -0.0549837 0)
(0 -0.0565199 0)
(0 -0.0475838 0)
(0 -0.0565624 0)
(0 -0.0561541 0)
(0 -0.056505 0)
(0 -0.0559095 0)
(0 -0.0548748 0)
(0 -0.0562589 0)
(0 -0.0563636 0)
(0 -0.00293893 0)
(0 -0.0565628 0)
(0 -0.0565625 0)
(0 -0.0565607 0)
(0 -0.0565628 0)
(0 -0.0565593 0)
(0 -0.0565628 0)
(0 -0.0565387 0)
(0 -0.0559381 0)
(0 -0.016847 0)
(0 -0.0565597 0)
(0 -0.0430098 0)
(0 -0.0459105 0)
(0 -0.0560778 0)
(0 -0.0565624 0)
(0 -0.0543424 0)
(0 -0.0536954 0)
(0 -0.0565017 0)
(0 -0.0562657 0)
(0 -0.0439159 0)
(0 -0.0565592 0)
(0 -0.0454371 0)
(0 -0.0565623 0)
(0 -0.0565536 0)
(0 -0.0421194 0)
(0 -0.0538532 0)
(0 -0.0565405 0)
(0 -0.0565538 0)
(0 -0.0403704 0)
(0 -0.0565577 0)
(0 -0.0565604 0)
(0 -0.0434319 0)
(0 -0.0565624 0)
(0 -0.056542 0)
(0 -0.0565076 0)
(0 -0.0549314 0)
(0 -0.0565583 0)
(0 -0.0565628 0)
(0 -0.0439558 0)
(0 -0.0565408 0)
(0 -0.0514031 0)
(0 -0.0458296 0)
(0 -0.0565569 0)
(0 -0.0565623 0)
(0 -0.0561088 0)
(0 -0.056125 0)
(0 -0.0432333 0)
(0 -0.0563156 0)
(0 -0.0565623 0)
(0 -0.0565625 0)
(0 -0.0464214 0)
(0 -0.0565628 0)
(0 -0.0466735 0)
(0 -0.0515753 0)
(0 -0.0562631 0)
(0 -0.0552304 0)
(0 -0.0346773 0)
(0 -0.0547473 0)
(0 -0.0565624 0)
(0 -0.0565347 0)
(0 -0.0565625 0)
(0 -0.0541864 0)
(0 -0.0442223 0)
(0 -0.0565621 0)
(0 -0.0213981 0)
(0 -0.0565151 0)
(0 -0.0553118 0)
(0 -0.0557989 0)
(0 -0.055899 0)
(0 -0.0565613 0)
(0 -0.0565628 0)
(0 -0.055207 0)
(0 -0.0565628 0)
(0 -0.0534597 0)
(0 -0.0563893 0)
(0 -0.0565621 0)
(0 -0.0565628 0)
(0 -0.0514097 0)
(0 -0.0476523 0)
(0 -0.0564422 0)
(0 -0.0565625 0)
(0 -0.0565404 0)
(0 -0.0563034 0)
(0 -0.0565613 0)
(0 -0.0552698 0)
(0 -0.0558299 0)
(0 -0.0565621 0)
(0 -0.0565594 0)
(0 -0.0565319 0)
(0 -0.0565623 0)
(0 -0.0565301 0)
(0 -0.0565619 0)
(0 -0.0527445 0)
(0 -0.0565495 0)
(0 -0.0565532 0)
(0 -0.0321988 0)
(0 -0.0565628 0)
(0 -0.0565607 0)
(0 -0.0559503 0)
(0 -0.0562301 0)
(0 -0.0505938 0)
(0 -0.0565619 0)
(0 -0.0564617 0)
(0 -0.0565612 0)
(0 -0.0492823 0)
(0 -0.00268998 0)
(0 -0.0557318 0)
(0 -0.0562528 0)
(0 -0.0262988 0)
(0 -0.0565625 0)
(0 -0.00324587 0)
(0 -0.0565276 0)
(0 -0.0549817 0)
(0 -0.0563968 0)
(0 -0.0500857 0)
(0 -0.0445221 0)
(0 -0.0563337 0)
(0 -0.0565628 0)
(0 -0.0562478 0)
(0 -0.0565626 0)
(0 -0.0559045 0)
(0 -0.0321227 0)
(0 -0.0445411 0)
(0 -0.0563648 0)
(0 -0.0534448 0)
(0 -0.0564787 0)
(0 -0.0546605 0)
(0 -0.0562672 0)
(0 -0.0565483 0)
(0 -0.0215755 0)
(0 -0.0565628 0)
(0 -0.00692643 0)
(0 -0.0564618 0)
(0 -0.0565628 0)
(0 -0.0565621 0)
(0 -0.0559703 0)
(0 -0.0565608 0)
(0 -0.0564987 0)
(0 -0.0565385 0)
(0 -0.0565609 0)
(0 -0.0477453 0)
(0 -0.0565597 0)
(0 -0.0560565 0)
(0 -0.0558248 0)
(0 -0.0565628 0)
(0 -0.056552 0)
(0 -0.0421453 0)
(0 -0.0564722 0)
(0 -0.0504513 0)
(0 -0.0565621 0)
(0 -0.0565628 0)
(0 -0.0520496 0)
(0 -0.0565134 0)
(0 -0.0565602 0)
(0 -0.00640165 0)
(0 -0.00863654 0)
(0 -0.0563829 0)
(0 -0.0565628 0)
(0 -0.0565569 0)
(0 -0.051699 0)
(0 -0.0565085 0)
(0 -0.0536593 0)
(0 -0.0454679 0)
(0 -0.056549 0)
(0 -0.0565118 0)
(0 -0.0565227 0)
(0 -0.0314757 0)
(0 -0.0564925 0)
(0 -0.056425 0)
(0 -0.056324 0)
(0 -0.0537321 0)
(0 -0.0544183 0)
(0 -0.0564533 0)
(0 -0.0556819 0)
(0 -0.0565022 0)
(0 -0.0562671 0)
(0 -0.0562713 0)
(0 -0.0565263 0)
(0 -0.0565604 0)
(0 -0.0565425 0)
(0 -0.0565602 0)
(0 -0.056557 0)
(0 -0.0565137 0)
(0 -0.0565628 0)
(0 -0.0562947 0)
(0 -0.0565576 0)
(0 -0.0565109 0)
(0 -0.0481785 0)
(0 -0.055786 0)
(0 -0.0565393 0)
(0 -0.0555572 0)
(0 -0.0409108 0)
(0 -0.0399711 0)
(0 -0.0564635 0)
(0 -0.0565628 0)
(0 -0.0553339 0)
(0 -0.0565625 0)
(0 -0.032778 0)
(0 -0.0565576 0)
(0 -0.0565348 0)
(0 -0.0565628 0)
(0 -0.0564719 0)
(0 -0.0553085 0)
(0 -0.0544906 0)
(0 -0.0565628 0)
(0 -0.0565223 0)
(0 -0.0562668 0)
(0 -0.056547 0)
(0 -0.0528879 0)
(0 -0.056559 0)
(0 -0.0564673 0)
(0 -0.0565279 0)
(0 -0.0558995 0)
(0 -0.0565465 0)
(0 -0.0480176 0)
(0 -0.00796961 0)
(0 -0.0547191 0)
(0 -0.0459584 0)
(0 -0.0565622 0)
(0 -0.0040473 0)
(0 -0.0565476 0)
(0 -0.0565622 0)
(0 -0.0564781 0)
(0 -0.0565624 0)
(0 -0.0565628 0)
(0 -0.0565308 0)
(0 -0.0565409 0)
(0 -0.0559611 0)
(0 -0.0229219 0)
(0 -0.0495177 0)
(0 -0.0325748 0)
(0 -0.0441315 0)
(0 -0.00310061 0)
(0 -0.0563922 0)
(0 -0.0565176 0)
(0 -0.0564425 0)
(0 -0.0565537 0)
(0 -0.0542501 0)
(0 -0.0565626 0)
(0 -0.00168775 0)
(0 -0.0565627 0)
(0 -0.0561996 0)
(0 -0.00355865 0)
(0 -0.030543 0)
(0 -0.0565621 0)
(0 -0.0552979 0)
(0 -0.0565571 0)
(0 -0.0565606 0)
(0 -0.0561884 0)
(0 -0.0563975 0)
(0 -0.0429012 0)
(0 -0.0565621 0)
(0 -0.0551914 0)
(0 -0.0544336 0)
(0 -0.0565493 0)
(0 -0.0228763 0)
(0 -0.053674 0)
(0 -0.0472784 0)
(0 -0.0561621 0)
(0 -0.0565628 0)
(0 -0.0557381 0)
(0 -0.0559043 0)
(0 -0.056542 0)
(0 -0.0565625 0)
(0 -0.0560285 0)
(0 -0.0557076 0)
(0 -0.056562 0)
(0 -0.0315323 0)
(0 -0.0565621 0)
(0 -0.00601852 0)
(0 -0.053902 0)
(0 -0.0565541 0)
(0 -0.0564347 0)
(0 -0.0565051 0)
(0 -0.0564705 0)
(0 -0.0562615 0)
(0 -0.0148349 0)
(0 -0.00156918 0)
(0 -0.0564046 0)
(0 -0.0528588 0)
(0 -0.0129771 0)
(0 -0.0553961 0)
(0 -0.0565419 0)
(0 -0.0213508 0)
(0 -0.0565376 0)
(0 -0.0565583 0)
(0 -0.0565561 0)
(0 -0.0564665 0)
(0 -0.0565623 0)
(0 -0.0563217 0)
(0 -0.0238684 0)
(0 -0.0565128 0)
(0 -0.0331508 0)
(0 -0.0552709 0)
(0 -0.0565599 0)
(0 -0.056562 0)
(0 -0.0565598 0)
(0 -0.0565617 0)
(0 -0.0522411 0)
(0 -0.0518486 0)
(0 -0.0564886 0)
(0 -0.0542758 0)
(0 -0.0447973 0)
(0 -0.056562 0)
(0 -0.0565318 0)
(0 -0.0565627 0)
(0 -0.0564671 0)
(0 -0.056443 0)
(0 -0.0469198 0)
(0 -0.039679 0)
(0 -0.0565572 0)
(0 -0.0564595 0)
(0 -0.0540866 0)
(0 -0.00982733 0)
(0 -0.0565054 0)
(0 -0.0565243 0)
(0 -0.0565625 0)
(0 -0.0521615 0)
(0 -0.0142916 0)
(0 -0.0565628 0)
(0 -0.0535877 0)
(0 -0.0559033 0)
(0 -0.0292115 0)
(0 -0.0565624 0)
(0 -0.00384345 0)
(0 -0.0565628 0)
(0 -0.0379019 0)
(0 -0.0565161 0)
(0 -0.0560897 0)
(0 -0.0564925 0)
(0 -0.0559267 0)
(0 -0.04897 0)
(0 -0.0546106 0)
(0 -0.0165273 0)
(0 -0.0565468 0)
(0 -0.0536659 0)
(0 -0.0565627 0)
(0 -0.0530524 0)
(0 -0.0565567 0)
(0 -0.0565623 0)
(0 -0.0558439 0)
(0 -0.0127643 0)
(0 -0.0565626 0)
(0 -0.0565596 0)
(0 -0.0552977 0)
(0 -0.0564334 0)
(0 -0.0493522 0)
(0 -0.0565627 0)
(0 -0.0485743 0)
(0 -0.0565388 0)
(0 -0.0346033 0)
(0 -0.0172157 0)
(0 -0.0565563 0)
(0 -0.0559236 0)
(0 -0.0267704 0)
(0 -0.0556909 0)
(0 -0.0565624 0)
(0 -0.0565617 0)
(0 -0.0565605 0)
(0 -0.0412877 0)
(0 -0.0565628 0)
(0 -0.0357171 0)
(0 -0.020339 0)
(0 -0.0522114 0)
(0 -0.0118692 0)
(0 -0.0122082 0)
(0 -0.0565606 0)
(0 -0.0565601 0)
(0 -0.0514069 0)
(0 -0.00408399 0)
(0 -0.0561265 0)
(0 -0.0454674 0)
(0 -0.0565626 0)
(0 -0.0565163 0)
(0 -0.0565628 0)
(0 -0.0565624 0)
(0 -0.0546122 0)
(0 -0.0565008 0)
(0 -0.0331946 0)
(0 -0.0561466 0)
(0 -0.0565294 0)
(0 -0.0473596 0)
(0 -0.00591449 0)
(0 -0.0565545 0)
(0 -0.0565628 0)
(0 -0.0563881 0)
(0 -0.0565628 0)
(0 -0.0563622 0)
(0 -0.0345971 0)
(0 -0.0561613 0)
(0 -0.0564408 0)
(0 -0.0565628 0)
(0 -0.0558329 0)
(0 -0.0565532 0)
(0 -0.0564665 0)
(0 -0.0105339 0)
(0 -0.0565614 0)
(0 -0.0565617 0)
(0 -0.0565628 0)
(0 -0.0565535 0)
(0 -0.0565565 0)
(0 -0.0549505 0)
(0 -0.056546 0)
(0 -0.0512269 0)
(0 -0.0565511 0)
(0 -0.0554788 0)
(0 -0.00758722 0)
(0 -0.0565607 0)
(0 -0.0541252 0)
(0 -0.0117431 0)
(0 -0.051417 0)
(0 -0.0540008 0)
(0 -0.0565625 0)
(0 -0.0565387 0)
(0 -0.0385708 0)
(0 -0.0561798 0)
(0 -0.0565628 0)
(0 -0.0541033 0)
(0 -0.0565628 0)
(0 -0.0545187 0)
(0 -0.0564281 0)
(0 -0.0565624 0)
(0 -0.0250457 0)
(0 -0.056543 0)
(0 -0.0558166 0)
(0 -0.0558979 0)
(0 -0.0565619 0)
(0 -0.0541379 0)
(0 -0.0565415 0)
(0 -0.0563448 0)
(0 -0.0565623 0)
(0 -0.0507626 0)
(0 -0.0565627 0)
(0 -0.0557371 0)
(0 -0.0565628 0)
(0 -0.0565628 0)
(0 -0.0565627 0)
(0 -0.0561903 0)
(0 -0.0492096 0)
(0 -0.05239 0)
(0 -0.00657091 0)
(0 -0.0559973 0)
(0 -0.031294 0)
(0 -0.0565625 0)
(0 -0.055844 0)
(0 -0.0558957 0)
(0 -0.0559909 0)
(0 -0.0548593 0)
(0 -0.0406615 0)
(0 -0.0549725 0)
(0 -0.055593 0)
(0 -0.0538258 0)
(0 -0.0556007 0)
(0 -0.0565613 0)
(0 -0.0565461 0)
(0 -0.0556719 0)
(0 -0.0563494 0)
(0 -0.0565605 0)
(0 -0.0537957 0)
(0 -0.0565626 0)
(0 -0.0305645 0)
(0 -0.0560928 0)
(0 -0.0537537 0)
(0 -0.0487244 0)
(0 -0.05632 0)
(0 -0.0350311 0)
(0 -0.038251 0)
(0 -0.0564307 0)
(0 -0.0484746 0)
(0 -0.0565403 0)
(0 -0.0532333 0)
(0 -0.0565628 0)
(0 -0.0565511 0)
(0 -0.0565324 0)
(0 -0.056538 0)
(0 -0.0503433 0)
(0 -0.0565625 0)
(0 -0.0565191 0)
(0 -0.0104958 0)
(0 -0.0556093 0)
(0 -0.0534856 0)
(0 -0.0565625 0)
(0 -0.0545214 0)
(0 -0.056424 0)
(0 -0.0565536 0)
(0 -0.0565627 0)
(0 -0.0564632 0)
(0 -0.0511645 0)
(0 -0.0565616 0)
(0 -0.0565526 0)
(0 -0.0565573 0)
(0 -0.0558044 0)
(0 -0.032557 0)
(0 -0.046113 0)
(0 -0.056387 0)
(0 -0.0486871 0)
(0 -0.0565628 0)
(0 -0.0565181 0)
(0 -0.0187188 0)
(0 -0.0565368 0)
(0 -0.0565409 0)
(0 -0.0468758 0)
(0 -0.0565611 0)
(0 -0.0565628 0)
(0 -0.0565296 0)
(0 -0.0532285 0)
(0 -0.0565615 0)
(0 -0.0563846 0)
(0 -0.0283401 0)
(0 -0.0565627 0)
(0 -0.0556569 0)
(0 -0.0463334 0)
(0 -0.0448172 0)
(0 -0.0557255 0)
(0 -0.0560167 0)
(0 -0.0565624 0)
(0 -0.0565623 0)
(0 -0.0560872 0)
(0 -0.0565623 0)
(0 -0.0558518 0)
(0 -0.0464938 0)
(0 -0.0565271 0)
(0 -0.0394322 0)
(0 -0.0565553 0)
(0 -0.0468489 0)
(0 -0.016344 0)
(0 -0.0549432 0)
(0 -0.0527281 0)
(0 -0.0565623 0)
(0 -0.0565627 0)
(0 -0.0565394 0)
(0 -0.0565628 0)
(0 -0.0565607 0)
(0 -0.0559989 0)
(0 -0.0495285 0)
(0 -0.0531969 0)
(0 -0.0565433 0)
(0 -0.0465437 0)
(0 -0.00494228 0)
(0 -0.0562292 0)
(0 -0.056555 0)
(0 -0.0565428 0)
(0 -0.0087882 0)
(0 -0.0561836 0)
(0 -0.0559355 0)
(0 -0.0565078 0)
(0 -0.0565628 0)
(0 -0.0433907 0)
(0 -0.0338898 0)
(0 -0.0536321 0)
(0 -0.0565543 0)
(0 -0.0553478 0)
(0 -0.0565623 0)
(0 -0.0544138 0)
(0 -0.0131886 0)
(0 -0.0464961 0)
(0 -0.0451343 0)
(0 -0.0550685 0)
(0 -0.0565293 0)
(0 -0.0565618 0)
(0 -0.0565622 0)
(0 -0.0560049 0)
(0 -0.0349714 0)
(0 -0.0565583 0)
(0 -0.051406 0)
(0 -0.0565555 0)
(0 -0.0565628 0)
(0 -0.0561059 0)
(0 -0.0565628 0)
(0 -0.0565623 0)
(0 -0.0565625 0)
(0 -0.0562752 0)
(0 -0.0558029 0)
(0 -0.0565627 0)
(0 -0.0557365 0)
(0 -0.0561987 0)
(0 -0.0564933 0)
(0 -0.05654 0)
(0 -0.0528073 0)
(0 -0.0565619 0)
(0 -0.0468746 0)
(0 -0.0565595 0)
(0 -0.056555 0)
(0 -0.0307264 0)
(0 -0.0550181 0)
(0 -0.0563381 0)
(0 -0.0565423 0)
(0 -0.0558935 0)
(0 -0.0123636 0)
(0 -0.0553728 0)
(0 -0.0545029 0)
(0 -0.054872 0)
(0 -0.0565599 0)
(0 -0.0251354 0)
(0 -0.05656 0)
(0 -0.0565628 0)
(0 -0.0473424 0)
(0 -0.0557453 0)
(0 -0.0560048 0)
(0 -0.0313509 0)
(0 -0.0565621 0)
(0 -0.0565628 0)
(0 -0.0565625 0)
(0 -0.0565627 0)
(0 -0.0346588 0)
(0 -0.0550684 0)
(0 -0.0554294 0)
(0 -0.0524118 0)
(0 -0.0565399 0)
(0 -0.0559136 0)
(0 -0.00944436 0)
(0 -0.0563504 0)
(0 -0.0556023 0)
(0 -0.0565579 0)
(0 -0.0561065 0)
(0 -0.0565628 0)
(0 -0.0543968 0)
(0 -0.0542422 0)
(0 -0.0564568 0)
(0 -0.0564609 0)
(0 -0.0564072 0)
(0 -0.0467304 0)
(0 -0.0565628 0)
(0 -0.0565627 0)
(0 -0.0565622 0)
(0 -0.0565627 0)
(0 -0.0565599 0)
(0 -0.0565623 0)
(0 -0.0565628 0)
(0 -0.0462491 0)
(0 -0.0437822 0)
(0 -0.0494337 0)
(0 -0.0565393 0)
(0 -0.0561378 0)
(0 -0.0564067 0)
(0 -0.0565628 0)
(0 -0.0504723 0)
(0 -0.0206735 0)
(0 -0.0435451 0)
(0 -0.0565342 0)
(0 -0.032828 0)
(0 -0.0551856 0)
(0 -0.0547975 0)
(0 -0.0565581 0)
(0 -0.05425 0)
(0 -0.0329995 0)
(0 -0.0339398 0)
(0 -0.0486952 0)
(0 -0.00438798 0)
(0 -0.0562425 0)
(0 -0.0565387 0)
(0 -0.0561798 0)
(0 -0.0565594 0)
(0 -0.0418853 0)
(0 -0.0455051 0)
(0 -0.0565624 0)
(0 -0.0565622 0)
(0 -0.0565628 0)
(0 -0.0565565 0)
(0 -0.0564451 0)
(0 -0.0565573 0)
(0 -0.0309717 0)
(0 -0.0564482 0)
(0 -0.0542601 0)
(0 -0.037185 0)
(0 -0.05415 0)
(0 -0.0565628 0)
(0 -0.0533309 0)
(0 -0.0564657 0)
(0 -0.0565566 0)
(0 -0.0509867 0)
(0 -0.0483653 0)
(0 -0.0556884 0)
(0 -0.0565314 0)
(0 -0.00389683 0)
(0 -0.0565581 0)
(0 -0.0491683 0)
(0 -0.0565362 0)
(0 -0.0312397 0)
(0 -0.0513842 0)
(0 -0.0553234 0)
(0 -0.0565275 0)
(0 -0.0508955 0)
(0 -0.0565492 0)
(0 -0.0565626 0)
(0 -0.0565305 0)
(0 -0.0565619 0)
(0 -0.047942 0)
(0 -0.0565628 0)
(0 -0.0565494 0)
(0 -0.0392021 0)
(0 -0.056555 0)
(0 -0.0522633 0)
(0 -0.0563959 0)
(0 -0.0518853 0)
(0 -0.0497662 0)
(0 -0.0270306 0)
(0 -0.0449683 0)
(0 -0.0529539 0)
(0 -0.0558193 0)
(0 -0.0563815 0)
(0 -0.051466 0)
(0 -0.035428 0)
(0 -0.0564994 0)
(0 -0.041923 0)
(0 -0.0565599 0)
(0 -0.0313014 0)
(0 -0.0558528 0)
(0 -0.0558211 0)
(0 -0.0565628 0)
(0 -0.0565526 0)
(0 -0.0270532 0)
(0 -0.0565315 0)
(0 -0.0270165 0)
(0 -0.055531 0)
(0 -0.056448 0)
(0 -0.0565558 0)
(0 -0.056217 0)
(0 -0.00366939 0)
(0 -0.0564875 0)
(0 -0.0565154 0)
(0 -0.0564394 0)
(0 -0.0565495 0)
(0 -0.0562485 0)
(0 -0.0565117 0)
(0 -0.0563101 0)
(0 -0.0563866 0)
(0 -0.0541348 0)
(0 -0.0458681 0)
(0 -0.056556 0)
(0 -0.0565627 0)
(0 -0.0549201 0)
(0 -0.028772 0)
(0 -0.0565628 0)
(0 -0.0344882 0)
(0 -0.0561496 0)
(0 -0.0386524 0)
(0 -0.0564658 0)
(0 -0.0565557 0)
(0 -0.0327717 0)
(0 -0.0565628 0)
(0 -0.0551843 0)
(0 -0.0121651 0)
(0 -0.0565224 0)
(0 -0.0105655 0)
(0 -0.0563805 0)
(0 -0.0565626 0)
(0 -0.0561222 0)
(0 -0.0565566 0)
(0 -0.0278085 0)
(0 -0.00494665 0)
(0 -0.0564146 0)
(0 -0.0139154 0)
(0 -0.0113922 0)
(0 -0.0553222 0)
(0 -0.055673 0)
(0 -0.0563846 0)
(0 -0.0564714 0)
(0 -0.0508174 0)
(0 -0.0562012 0)
(0 -0.0451686 0)
(0 -0.0333443 0)
(0 -0.0160164 0)
(0 -0.0386418 0)
(0 -0.0565545 0)
(0 -0.0474059 0)
(0 -0.0546002 0)
(0 -0.0565427 0)
(0 -0.0338458 0)
(0 -0.028765 0)
(0 -0.0565621 0)
(0 -0.0108272 0)
(0 -0.0565628 0)
(0 -0.0535188 0)
(0 -0.0565618 0)
(0 -0.0565358 0)
(0 -0.05646 0)
(0 -0.0565568 0)
(0 -0.0563977 0)
(0 -0.0565607 0)
(0 -0.0520731 0)
(0 -0.0565268 0)
(0 -0.0555105 0)
(0 -0.0454242 0)
(0 -0.0453517 0)
(0 -0.0546008 0)
(0 -0.0557656 0)
(0 -0.0483036 0)
(0 -0.0563645 0)
(0 -0.0329566 0)
(0 -0.0541866 0)
(0 -0.0565628 0)
(0 -0.0565628 0)
(0 -0.056561 0)
(0 -0.0540669 0)
(0 -0.0564435 0)
(0 -0.0565628 0)
(0 -0.0565625 0)
(0 -0.0222915 0)
(0 -0.0551073 0)
(0 -0.0565603 0)
(0 -0.0509023 0)
(0 -0.0561596 0)
(0 -0.0565557 0)
(0 -0.0565622 0)
(0 -0.0552076 0)
(0 -0.0561343 0)
(0 -0.0538531 0)
(0 -0.0565422 0)
(0 -0.0032086 0)
(0 -0.0562599 0)
(0 -0.0565546 0)
(0 -0.0517634 0)
(0 -0.00482933 0)
(0 -0.0565597 0)
(0 -0.0562174 0)
(0 -0.0565412 0)
(0 -0.0565618 0)
(0 -0.056466 0)
(0 -0.0531327 0)
(0 -0.03296 0)
(0 -0.0515941 0)
(0 -0.0565628 0)
(0 -0.0565523 0)
(0 -0.0565584 0)
(0 -0.0563572 0)
(0 -0.046451 0)
(0 -0.0565628 0)
(0 -0.0332508 0)
(0 -0.0565191 0)
(0 -0.0557408 0)
(0 -0.0533109 0)
(0 -0.0561657 0)
(0 -0.035547 0)
(0 -0.0565609 0)
(0 -0.0565605 0)
(0 -0.0429404 0)
(0 -0.0563885 0)
(0 -0.0561606 0)
(0 -0.0565558 0)
(0 -0.0562221 0)
(0 -0.0562966 0)
(0 -0.0565406 0)
(0 -0.0558321 0)
(0 -0.0565454 0)
(0 -0.0563234 0)
(0 -0.0327429 0)
(0 -0.0559046 0)
(0 -0.0565226 0)
(0 -0.0565588 0)
(0 -0.035419 0)
(0 -0.0565524 0)
(0 -0.0562504 0)
(0 -0.0563178 0)
(0 -0.00406489 0)
(0 -0.0565609 0)
(0 -0.0550618 0)
(0 -0.0547776 0)
(0 -0.0449766 0)
(0 -0.0561692 0)
(0 -0.0561342 0)
(0 -0.0564647 0)
(0 -0.00111106 0)
(0 -0.0536935 0)
(0 -0.0563813 0)
(0 -0.0565628 0)
(0 -0.0563862 0)
(0 -0.026039 0)
(0 -0.0536439 0)
(0 -0.0558867 0)
(0 -0.0565329 0)
(0 -0.0223533 0)
(0 -0.0564698 0)
(0 -0.0565569 0)
(0 -0.0563441 0)
(0 -0.0565618 0)
(0 -0.055986 0)
(0 -0.0565628 0)
(0 -0.0565414 0)
(0 -0.0466654 0)
(0 -0.0565531 0)
(0 -0.000940331 0)
(0 -0.0551943 0)
(0 -0.0557802 0)
(0 -0.0559269 0)
(0 -0.056474 0)
(0 -0.0561714 0)
(0 -0.0563037 0)
(0 -0.0563081 0)
(0 -0.0558131 0)
(0 -0.0550355 0)
(0 -0.0318739 0)
(0 -0.05652 0)
(0 -0.054873 0)
(0 -0.0559598 0)
(0 -0.0565521 0)
(0 -0.0554188 0)
(0 -0.0559729 0)
(0 -0.040731 0)
(0 -0.0565628 0)
(0 -0.0564587 0)
(0 -0.0507011 0)
(0 -0.0546265 0)
(0 -0.0545425 0)
(0 -0.0565628 0)
(0 -0.0565154 0)
(0 -0.0557778 0)
(0 -0.056562 0)
(0 -0.0565489 0)
(0 -0.0565527 0)
(0 -0.0564621 0)
(0 -0.0565439 0)
(0 -0.0384619 0)
(0 -0.0565558 0)
(0 -0.00609819 0)
(0 -0.0557705 0)
(0 -0.0565569 0)
(0 -0.0565621 0)
(0 -0.0565432 0)
(0 -0.0565553 0)
(0 -0.0310085 0)
(0 -0.0565628 0)
(0 -0.0380867 0)
(0 -0.0564329 0)
(0 -0.0553992 0)
(0 -0.0565566 0)
(0 -0.0565608 0)
(0 -0.0547086 0)
(0 -0.0101394 0)
(0 -0.0565416 0)
(0 -0.0564105 0)
(0 -0.0392363 0)
(0 -0.0565627 0)
(0 -0.0398369 0)
(0 -0.0548586 0)
(0 -0.0548958 0)
(0 -0.0518338 0)
(0 -0.0558216 0)
(0 -0.0546528 0)
(0 -0.0471489 0)
(0 -0.0560749 0)
(0 -0.0565451 0)
(0 -0.0561 0)
(0 -0.0563779 0)
(0 -0.0395716 0)
(0 -0.0565628 0)
(0 -0.0565619 0)
(0 -0.0163776 0)
(0 -0.0565444 0)
(0 -0.0553697 0)
(0 -0.0560244 0)
(0 -0.056559 0)
(0 -0.0171121 0)
(0 -0.0538057 0)
(0 -0.0558823 0)
(0 -0.0565628 0)
(0 -0.038328 0)
(0 -0.0110705 0)
(0 -0.0561288 0)
(0 -0.0565569 0)
(0 -0.016577 0)
(0 -0.0561083 0)
(0 -0.0561267 0)
(0 -0.0565519 0)
(0 -0.0562463 0)
(0 -0.0561248 0)
(0 -0.0565358 0)
(0 -0.0388771 0)
(0 -0.056542 0)
(0 -0.0271196 0)
(0 -0.0565628 0)
(0 -0.0557951 0)
(0 -0.0424613 0)
(0 -0.0550676 0)
(0 -0.0564704 0)
(0 -0.0133186 0)
(0 -0.0506682 0)
(0 -0.0565111 0)
(0 -0.056561 0)
(0 -0.0512036 0)
(0 -0.0565628 0)
(0 -0.0149231 0)
(0 -0.0287031 0)
(0 -0.0563801 0)
(0 -0.0347512 0)
(0 -0.0473174 0)
(0 -0.0565601 0)
(0 -0.00521919 0)
(0 -0.0561141 0)
(0 -0.056519 0)
(0 -0.0565624 0)
(0 -0.0565508 0)
(0 -0.046231 0)
(0 -0.0550584 0)
(0 -0.0559037 0)
(0 -0.0244877 0)
(0 -0.0489013 0)
(0 -0.0327192 0)
(0 -0.0565544 0)
(0 -0.0169679 0)
(0 -0.0565441 0)
(0 -0.0564944 0)
(0 -0.00575116 0)
(0 -0.0425086 0)
(0 -0.0557532 0)
(0 -0.0564952 0)
(0 -0.0565439 0)
(0 -0.0564501 0)
(0 -0.0563834 0)
(0 -0.0548202 0)
(0 -0.0565625 0)
(0 -0.0564579 0)
(0 -0.0555039 0)
(0 -0.0560869 0)
(0 -0.0564425 0)
(0 -0.0564643 0)
(0 -0.0565625 0)
(0 -0.0559618 0)
(0 -0.0565627 0)
(0 -0.0565565 0)
(0 -0.0565625 0)
(0 -0.0545695 0)
(0 -0.0489894 0)
(0 -0.0561075 0)
(0 -0.0562604 0)
(0 -0.0455574 0)
(0 -0.0513244 0)
(0 -0.0565256 0)
(0 -0.00783244 0)
(0 -0.0522099 0)
(0 -0.0356966 0)
(0 -0.0325615 0)
(0 -0.0536387 0)
(0 -0.049825 0)
(0 -0.0565628 0)
(0 -0.0112149 0)
(0 -0.0565562 0)
(0 -0.024443 0)
(0 -0.0564966 0)
(0 -0.0528972 0)
(0 -0.056498 0)
(0 -0.056478 0)
(0 -0.0491934 0)
(0 -0.0565603 0)
(0 -0.055019 0)
(0 -0.0131478 0)
(0 -0.0560728 0)
(0 -0.0446973 0)
(0 -0.0560567 0)
(0 -0.0489643 0)
(0 -0.0565615 0)
(0 -0.0549227 0)
(0 -0.0561571 0)
(0 -0.0565366 0)
(0 -0.05656 0)
(0 -0.0558062 0)
(0 -0.0565452 0)
(0 -0.0565514 0)
(0 -0.0563583 0)
(0 -0.0502601 0)
(0 -0.0533021 0)
(0 -0.0565198 0)
(0 -0.0563819 0)
(0 -0.0565627 0)
(0 -0.0412538 0)
(0 -0.0565625 0)
(0 -0.0511655 0)
(0 -0.056526 0)
(0 -0.0565605 0)
(0 -0.0560774 0)
(0 -0.0565561 0)
(0 -0.0552934 0)
(0 -0.0558513 0)
(0 -0.055264 0)
(0 -0.0565607 0)
(0 -0.0558512 0)
(0 -0.00582323 0)
(0 -0.0563427 0)
(0 -0.0565083 0)
(0 -0.0542465 0)
(0 -0.0416061 0)
(0 -0.0133773 0)
(0 -0.0565623 0)
(0 -0.00898085 0)
(0 -0.0557499 0)
(0 -0.0565621 0)
(0 -0.0555804 0)
(0 -0.0471502 0)
(0 -0.0563829 0)
(0 -0.0551693 0)
(0 -0.0565585 0)
(0 -0.0222431 0)
(0 -0.0465994 0)
(0 -0.0316515 0)
(0 -0.0556373 0)
(0 -0.0519514 0)
(0 -0.0504341 0)
(0 -0.0563574 0)
(0 -0.0565624 0)
(0 -0.0462734 0)
(0 -0.0348421 0)
(0 -0.0565579 0)
(0 -0.050525 0)
(0 -0.0565628 0)
(0 -0.0534029 0)
(0 -0.0565612 0)
(0 -0.0453511 0)
(0 -0.0551186 0)
(0 -0.028373 0)
(0 -0.0565628 0)
(0 -0.0565618 0)
(0 -0.0559845 0)
(0 -0.0564957 0)
(0 -0.0557926 0)
(0 -0.0481451 0)
(0 -0.0326804 0)
(0 -0.0565614 0)
(0 -0.00667538 0)
(0 -0.05643 0)
(0 -0.00678485 0)
(0 -0.0560559 0)
(0 -0.0198112 0)
(0 -0.0565592 0)
(0 -0.0323966 0)
(0 -0.0561535 0)
(0 -0.00541654 0)
(0 -0.0565507 0)
(0 -0.0565533 0)
(0 -0.0436378 0)
(0 -0.0563199 0)
(0 -0.0565606 0)
(0 -0.0563799 0)
(0 -0.0565575 0)
(0 -0.0565557 0)
(0 -0.0565338 0)
(0 -0.054667 0)
(0 -0.055934 0)
(0 -0.0564667 0)
(0 -0.0565542 0)
(0 -0.0500419 0)
(0 -0.0559487 0)
(0 -0.0559326 0)
(0 -0.0493606 0)
(0 -0.0565627 0)
(0 -0.0565624 0)
(0 -0.0563906 0)
(0 -0.0565164 0)
(0 -0.0565413 0)
(0 -0.0560198 0)
(0 -0.056562 0)
(0 -0.0452145 0)
(0 -0.0430531 0)
(0 -0.0564756 0)
(0 -0.0565601 0)
(0 -0.0565311 0)
(0 -0.0565161 0)
(0 -0.0565522 0)
(0 -0.0320324 0)
(0 -0.0565608 0)
(0 -0.0565627 0)
(0 -0.0565603 0)
(0 -0.00897384 0)
(0 -0.0565628 0)
(0 -0.0565624 0)
(0 -0.0565543 0)
(0 -0.0565616 0)
(0 -0.0565627 0)
(0 -0.0564404 0)
(0 -0.0557957 0)
(0 -0.056521 0)
(0 -0.0555508 0)
(0 -0.0489103 0)
(0 -0.0565523 0)
(0 -0.0564595 0)
(0 -0.031202 0)
(0 -0.0565628 0)
(0 -0.0180608 0)
(0 -0.0559112 0)
(0 -0.0561356 0)
(0 -0.0557228 0)
(0 -0.0565517 0)
(0 -0.0562484 0)
(0 -0.0565628 0)
(0 -0.0561312 0)
(0 -0.0556627 0)
(0 -0.0565555 0)
(0 -0.0565623 0)
(0 -0.0565081 0)
(0 -0.0527872 0)
(0 -0.0555508 0)
(0 -0.0564074 0)
(0 -0.0564391 0)
(0 -0.02746 0)
(0 -0.0562531 0)
(0 -0.0564776 0)
(0 -0.0565105 0)
(0 -0.0482204 0)
(0 -0.0565268 0)
(0 -0.0550957 0)
(0 -0.0563504 0)
(0 -0.056559 0)
(0 -0.0565462 0)
(0 -0.0543875 0)
(0 -0.0565133 0)
(0 -0.0565628 0)
(0 -0.0516641 0)
(0 -0.0538456 0)
(0 -0.0565608 0)
(0 -0.0565408 0)
(0 -0.0548115 0)
(0 -0.0547374 0)
(0 -0.0302707 0)
(0 -0.056457 0)
(0 -0.0547635 0)
(0 -0.0565621 0)
(0 -0.0564742 0)
(0 -0.05336 0)
(0 -0.00565754 0)
(0 -0.0565063 0)
(0 -0.0558806 0)
(0 -0.0565492 0)
(0 -0.0565628 0)
(0 -0.0446349 0)
(0 -0.037824 0)
(0 -0.0556434 0)