/*--------------------------------*- C++ -*----------------------------------*\
| =========                 |                                                 |
| \\      /  F ield         | OpenFOAM: The Open Source CFD Toolbox           |
|  \\    /   O peration     | Version:  v2012                                 |
|   \\  /    A nd           | Website:  www.openfoam.com                      |
|    \\/     M anipulation  |                                                 |
\*---------------------------------------------------------------------------*/
FoamFile
{
    version     2.0;
    format      ascii;
    class       volScalarField;
    location    "550";
    object      omega_0;
}
// * * * * * * * * * * * * * * * * * * * * * * * * * * * * * * * * * * * * * //

dimensions      [0 0 -1 0 0 0 0];


internalField   nonuniform List<scalar> 
13851
(
0.135413
0.024193
0.0240711
4.85408
0.0220827
0.0261358
0.0239494
0.0218486
3.87703
0.0220429
0.0687856
0.0220807
0.0221126
5.50134
0.0368435
0.135423
7.80353
0.021929
0.355327
0.135535
0.0419458
0.0262461
23.1431
0.0222638
7.77187
0.0653552
0.252364
4.52707
3.6388
0.0217689
4.62951
0.0239566
0.133461
4.96134
0.0456481
3.61293
0.0222741
10.2786
4.7264
0.0220839
4.78545
3.7578
19.4152
0.696425
3.95999
0.0218905
0.0215823
0.129651
0.0234733
0.0221064
7.99231
0.0221661
0.135172
0.0303968
5.64055
0.0220822
0.135448
4.63155
0.272482
6.05098
0.0220882
0.268336
0.0220966
0.0236138
0.233864
0.250661
8.16463
0.0670112
0.0221271
4.57902
4.32913
0.0508513
0.0220229
7.32116
0.0321131
0.0237635
6.34847
0.0216717
7.13619
0.0219538
0.0221425
0.405998
0.04491
5.11268
5.80919
4.48088
0.026439
7.03957
0.0220317
4.6529
0.0222032
0.024052
24.5792
4.37952
4.39072
0.405753
0.0219208
0.138433
7.58799
0.200917
0.142973
0.0432925
0.046986
0.0220679
0.0218765
0.049267
0.0218781
4.36173
0.0240502
0.0219057
0.0312981
0.0218886
0.179582
0.0659194
0.130113
0.0295837
0.0217798
0.0218057
5.02876
4.76182
0.251173
0.021813
0.0221149
4.07167
0.257776
0.125462
0.0219197
0.0591458
4.50967
0.0471891
0.0261749
0.0320223
7.38227
4.86461
0.0702567
4.38627
0.0642854
4.41239
0.0359167
0.0465762
0.377596
0.0226281
0.0220314
0.109546
6.9834
0.023515
0.0216646
4.3984
3.65243
0.0617164
0.142257
0.172403
0.0709157
0.26428
0.0222692
0.0220524
0.0221028
4.54896
0.0429523
0.0234188
0.022243
3.62704
0.048344
0.129901
5.34888
4.08662
4.16306
6.56975
0.0308299
6.24738
0.0221034
0.0217832
0.0608438
0.0221392
4.50185
0.273972
0.155179
0.0217693
0.0320482
0.151426
0.249003
0.647828
0.0299729
0.0466686
21.2671
3.6259
0.13334
0.0295734
0.0222016
0.0218239
6.3755
0.0429073
7.36142
0.0262059
0.0233688
0.136769
0.129341
0.0220968
0.0221779
0.0733697
0.384881
4.4805
4.64034
0.0369014
3.00233
4.36702
0.023694
0.0455531
3.93731
0.0255462
0.134803
0.0220977
0.400542
0.0222349
0.0466465
0.0245378
0.0220859
0.221129
0.0221691
3.8327
0.0217676
0.135806
6.1262
4.42952
0.0292322
0.0460609
0.022264
0.0948956
0.0220145
0.045903
7.04224
0.029131
0.0255277
0.0221176
4.53419
0.0217631
18.4329
4.58831
0.174297
0.0222513
1.40317
5.56393
4.03354
0.13383
0.0333704
0.151055
0.200632
0.0321324
0.376748
0.0332607
6.42639
0.141905
0.0218512
0.0259364
0.13988
3.57168
4.75513
0.0218205
0.132054
0.0220289
0.18829
0.256702
0.0263027
0.0489407
0.145256
0.0219825
0.0440937
0.110839
3.05887
0.0220826
0.0220838
0.0293293
4.43396
6.73081
0.0469455
0.0218289
0.248317
0.2596
0.117148
0.0482555
4.32009
7.89166
0.0268156
0.0335344
10.6753
0.0218664
0.0221022
0.120629
0.0596839
0.0217593
0.0222322
0.0220061
0.0220008
0.0330843
0.0220956
3.94557
0.0441244
0.0219792
3.54711
4.09355
0.0221886
0.137211
8.14729
0.0227535
0.0222136
0.04624
5.51424
7.02853
0.0666605
0.0220728
6.1732
0.0220957
0.0728715
6.45562
2.88732
0.0233161
10.3
2.35424
4.41568
0.170317
0.0451227
4.56795
4.12634
4.0219
0.0222473
5.55093
22.4987
0.839767
0.756966
0.0237115
0.0663229
0.0298503
6.32222
0.0513464
0.0218752
0.0215234
0.0277749
4.33626
3.23597
0.0218585
4.35191
0.0301177
0.0323289
0.0235457
6.54299
0.245644
0.137445
0.0242692
0.025008
3.51737
0.022211
0.272946
0.0266962
0.0461679
0.0305618
0.0220278
0.0219767
0.169494
0.221376
0.14173
4.48669
3.57564
0.0235943
4.48668
0.225424
0.0217074
3.05256
0.0927339
6.31266
0.0271675
0.0692467
0.229844
7.68631
0.161967
5.40603
0.0226445
0.26364
15.4249
0.030541
5.0261
0.0333307
4.76284
0.0330632
0.039274
0.143089
0.301003
0.0220527
0.0263821
0.0644999
0.0322396
0.0219109
0.0472752
5.39402
0.0220188
0.0457833
5.77836
0.0240954
5.40376
0.0436076
7.44355
0.0260882
0.0615943
2.34969
0.264236
0.0485541
5.65958
7.22428
1.21246
0.021986
0.16543
0.0336111
0.068326
0.0218286
20.5488
5.56953
7.65538
0.0249478
0.145599
0.269205
6.40065
0.0215946
7.20035
0.342568
23.4283
0.0343062
5.46527
0.0220376
0.022127
6.80511
0.268707
0.0220408
0.0242395
0.0467025
0.0218175
5.56912
0.066501
0.0907715
0.0255795
0.0226588
0.0221864
6.40742
0.0219777
0.0221654
3.94252
5.4013
0.0257458
0.256985
0.0221035
0.0220944
0.0244444
0.143626
0.0430769
0.02192
0.0228687
0.23496
0.0233026
8.10478
0.0220758
0.0271515
4.02855
0.0359023
0.0215821
0.0221208
0.025524
0.0222218
1.19288
4.08551
0.0336787
7.56865
0.0244807
0.0220568
4.39533
0.236713
0.0354862
0.0220356
4.07746
0.0346469
7.27028
0.02207
0.0322792
0.167436
0.034134
4.23855
0.268395
7.31318
0.0238294
0.176413
0.0219784
3.57836
0.0435914
0.129204
0.0333692
0.0240386
0.0359542
0.0612319
0.0220944
6.77761
4.28355
8.49171
5.93895
4.08168
4.92721
0.268354
0.0281899
0.0222075
9.3011
0.0220458
0.021911
0.0302927
4.58928
0.0239642
0.022629
0.0936469
0.0489494
0.0220479
7.53119
0.0219256
4.63335
1.08955
0.0219499
0.0233454
0.351484
3.31475
0.021766
10.377
14.695
0.0216734
4.48451
0.33775
0.135288
0.0238017
3.90939
6.27881
0.0216881
0.351189
0.0221189
0.0219261
3.57458
4.82861
0.0396846
0.0422693
0.0220465
0.0557398
4.62531
4.50247
0.0217812
6.26311
0.0219172
0.0221339
0.0490679
0.0270884
0.0215883
0.0237816
4.54389
0.278102
4.40529
0.0236388
0.0220253
4.45883
0.0221792
0.166738
0.0271915
0.0322381
0.0333026
4.21437
6.41579
0.0260075
7.27005
0.0231202
0.0666876
3.82144
4.44034
0.0221115
0.0219836
0.0477632
4.42648
0.238443
0.0547523
13.1998
0.0272058
0.0320991
9.17526
7.59842
0.170188
4.52382
0.18035
3.70347
0.0224529
0.259517
3.85448
0.0220778
18.8268
6.54684
0.0308127
0.0466233
0.0220646
6.81358
0.0806752
16.3825
0.0219779
0.0221658
0.0265801
0.0482903
0.0220854
4.47076
0.0221601
0.174738
0.0238938
0.0698357
0.0220625
0.0220476
0.047375
6.65119
0.0485783
4.34051
0.0322759
0.0218265
0.0217598
0.0613594
0.022867
0.105665
0.0244042
0.0348147
0.242626
0.022181
5.69783
0.0222538
0.0930967
6.26873
4.14595
0.0289042
16.7611
0.0903327
0.300983
6.41358
0.0218416
7.40568
0.0301031
0.0316255
5.67626
2.87142
0.0217174
0.102623
0.0220728
3.59102
7.14553
0.0222168
0.0733177
5.71816
0.0222636
0.0222524
0.0660645
7.03935
3.63841
0.0222206
0.14439
0.0231047
0.0220462
0.21498
0.146208
0.186163
0.0215789
0.111161
0.0469303
0.0574144
0.022662
0.023211
0.0758895
0.0264208
0.120369
0.0506788
0.0507973
0.138646
3.26805
0.346122
4.90274
10.1565
0.135606
4.24723
0.0403888
3.69054
0.138691
0.0218976
0.0314427
0.287895
0.0270562
0.0219563
0.0219528
0.0933624
6.02925
0.0273286
4.4493
0.0218304
3.80793
0.156667
8.71418
0.102484
0.0262331
0.0240615
7.22388
0.184417
0.0387584
0.268269
0.0225136
7.32297
0.0940324
0.17749
0.0329608
0.565742
0.0220344
0.0222455
0.0234093
0.0220452
3.81777
0.0220006
0.224715
4.34187
0.10521
4.55859
6.75988
0.183235
0.325039
0.0286256
0.02218
0.0220685
0.0216808
0.0217604
0.0221412
0.0671217
0.172482
0.0506071
3.6138
0.023123
3.8795
0.0222935
4.77671
0.0421968
0.0222836
0.0221328
4.15187
0.0263187
3.96714
6.53836
0.0445383
0.0679041
0.0216559
4.85292
0.0244052
0.0240021
0.266925
0.0221832
0.022635
0.0218372
0.0437481
5.75765
0.0295595
0.0332467
0.377379
4.38651
0.0291734
0.0269508
3.80197
0.0216781
3.73197
0.0222022
0.0233099
6.77279
0.0795443
0.128991
0.0972798
0.0488897
0.0222273
0.0222936
0.0721875
0.0225007
0.0222348
0.0277835
0.360307
0.0219844
0.276677
3.95597
3.60304
0.0958131
5.22652
0.0369712
0.0221753
0.159889
0.0218439
0.0264162
4.82446
3.55411
7.43553
3.92845
0.0222862
0.022185
0.0717038
0.0230493
0.0218379
23.5762
0.191405
4.82953
0.094365
0.0813002
0.0220469
0.0217747
6.86978
0.0914644
0.0236104
0.022253
0.12837
0.202899
4.52861
0.0222549
0.0221518
7.00583
0.0226392
0.0333346
0.0218223
4.6548
0.021923
5.66391
0.0220745
0.154985
0.0393495
0.0717994
0.0331724
0.0220225
0.0242663
0.0220224
0.21579
0.0226486
3.88506
0.0225789
4.35461
4.44091
0.0313494
0.0220039
5.10292
4.16048
0.0264928
0.0790841
0.0220687
6.54625
0.0219157
0.29051
0.0220649
0.0220192
3.68842
0.033492
0.0221108
0.0307675
4.51075
5.45664
5.74834
0.0218243
4.07323
0.0220756
0.0219916
0.0222681
0.0214897
0.0222336
5.95676
4.98423
0.0221808
0.0221563
0.0400075
0.0218889
4.86552
0.163772
4.77938
4.63961
0.0242322
0.120277
0.0220707
0.0420107
0.124097
0.0218239
0.0222105
1.8089
7.05024
0.0666015
17.022
0.0610785
0.0221008
0.0421707
0.0802901
7.80861
0.0318349
1.46822
0.0935684
0.0222239
14.2725
12.8703
4.44434
5.75471
3.50521
0.0237748
0.146284
0.0221678
0.902689
0.0265196
0.0218772
5.79999
0.0230138
0.0220049
0.0221108
0.0228694
4.51677
0.277228
0.0218702
0.0428507
5.43209
0.0231621
16.5058
0.0232276
0.0769644
4.73619
0.0220984
0.235556
0.0298595
0.0328312
6.0976
0.0229983
0.389233
0.0607789
4.72231
0.0221287
4.51139
0.030287
4.27804
8.1347
5.83211
0.0444131
0.022038
0.022294
0.0222635
0.037458
0.0221235
4.32406
0.029118
0.0279825
0.0289253
0.0237103
0.0218222
0.0261876
0.0275724
0.02335
0.0272158
6.06172
0.209258
0.0294344
0.0513612
5.85643
0.0226783
4.36953
0.0216909
0.0332483
0.0226561
0.0219368
0.0456862
0.0220515
0.021865
0.0452986
0.0220589
0.337196
0.0227071
19.7155
1.3841
0.208814
0.29611
0.0220398
4.43125
0.155992
0.0222263
0.0274699
0.0225439
4.49456
0.023208
0.044592
3.28379
6.52289
0.0857921
0.0221198
4.1758
2.22529
3.63165
0.0297668
0.0218173
0.0217637
0.0668274
0.022037
7.57977
0.170851
0.022198
0.226437
0.34887
0.0218254
6.21183
6.29025
0.186947
0.0226856
4.15399
0.066756
0.0220219
6.36518
0.0267769
0.0218175
0.0219392
0.030918
0.0378569
4.08332
5.00162
0.0396128
4.17024
0.0326769
0.0220205
0.0865264
0.0219589
3.74997
0.0217999
0.0220466
0.0240287
0.0224622
4.39136
5.67703
0.237827
6.6192
7.20085
0.0291464
0.0220234
0.022713
0.401028
0.0217808
0.0219005
0.0442576
7.41783
0.220764
0.0216417
0.0395931
0.033417
0.136822
16.5637
0.0216677
0.021576
0.0232594
6.98527
0.0277438
4.61162
0.0231947
0.0221632
0.0218191
0.0219323
0.024505
0.183061
3.75074
4.05172
0.0289512
0.0220571
5.2453
0.0222217
6.03398
4.98308
0.0306097
5.49563
3.75129
4.7638
0.0517155
0.0315866
3.91347
0.0304219
0.0338328
0.0736001
0.30776
0.0224691
5.38588
0.0220227
4.64493
7.31608
0.021695
0.023906
0.046564
0.397543
0.0332254
0.0221428
0.0274069
0.0232164
0.0253104
1.26192
0.0221628
4.23088
5.79137
0.0220252
0.0305532
0.03765
0.0220837
3.4968
15.6855
4.48911
3.48835
0.0220401
0.0246357
0.026586
0.022273
0.238131
0.033521
0.0222566
0.0597015
0.025847
4.68771
0.039434
6.66216
0.0231201
0.0231904
0.0510558
0.0922992
0.0725606
0.0219854
17.5006
4.20092
26.2622
4.58607
4.74436
4.06925
4.39088
0.0219896
0.0220263
0.021958
0.238717
0.0425777
0.0723632
7.26048
0.0220771
0.0216621
0.0220447
0.209732
0.0216543
0.0262663
0.023689
3.93149
0.0229404
0.0218517
0.0220873
0.0219731
0.0221629
0.0344238
0.229844
0.0339599
5.49643
0.0220347
0.0219328
4.51645
4.63949
6.72728
3.63655
0.0485328
3.73093
0.0218129
0.0622118
0.0231937
0.02208
0.0238497
5.10644
0.0228816
0.0937356
7.34594
0.0221528
0.0219259
0.0264185
0.187029
0.022272
3.93285
0.0219425
0.204973
0.0221258
0.0221812
0.0265622
0.0989937
0.0221206
0.239204
4.36242
0.179978
4.92302
0.0220388
6.53809
0.275071
0.0220502
7.50902
0.0222666
0.042525
0.0222067
0.0220007
0.0219619
0.0220458
0.0224161
0.0272377
0.0653355
0.022178
0.0220972
0.0611496
0.0216938
8.3084
0.0221262
0.0318241
0.0323612
5.13353
2.20064
0.0221475
0.188655
0.0218172
0.0293243
0.0712466
3.35737
0.0464855
0.0222724
0.10686
0.0773237
0.0812187
0.402614
0.0358061
0.151944
0.0548646
0.0655764
0.0229064
0.0218273
3.5736
5.5074
0.0245597
0.0220181
15.8056
0.0218334
0.0417524
0.0219622
0.0846627
8.29004
0.0215229
6.28267
0.0259664
0.0221707
0.151481
0.0218776
0.040702
3.41667
0.0399752
3.63711
0.0219568
0.0222649
0.043119
0.0222262
0.0222465
0.0272411
0.0293524
0.0660367
0.0890626
0.0220903
0.039566
0.0218176
0.0220639
0.0222154
0.0220531
2.01264
0.0218337
0.023266
0.257188
0.0218286
0.0220066
4.56228
0.0222497
19.1034
0.0230266
4.63839
0.236144
0.0523735
5.31554
0.0674744
2.12334
0.022316
0.207248
0.0270176
0.0218147
0.0218951
0.0232463
0.0306299
0.0219651
0.0549744
0.0219054
0.0231693
17.1208
7.94094
4.53293
0.0238026
0.0478205
5.17532
5.64371
0.0221732
0.0259734
2.12663
0.0221136
0.0409825
5.25916
4.06234
0.026596
0.0414287
0.0227682
0.371998
0.0222852
0.0359801
5.21658
0.0221627
0.0218633
8.45778
0.0444233
0.254728
5.01497
0.0940756
0.0224136
0.0219094
0.0222147
4.84082
2.72502
5.37367
0.0577511
0.0220456
4.71178
0.0221097
0.174624
0.0266567
0.0230554
0.0423907
0.0220593
6.40322
7.20833
0.0216262
0.0667449
0.043747
5.13895
0.0451995
0.0541629
0.248505
0.0324528
0.20699
0.0570154
0.0221123
0.0340836
0.0841138
4.02488
0.0220362
0.984614
0.0477865
0.056992
0.0222727
7.10292
0.0257539
0.0236091
0.021848
0.0398323
0.0386201
0.0568072
0.0221285
0.0226695
0.0581385
25.5757
0.0623516
0.0221576
0.0226292
0.0339226
0.239294
0.022172
0.0929963
10.2142
0.0484824
4.30248
0.0373318
8.07445
0.380873
0.0219897
2.82575
0.0222385
0.0249749
0.0314771
0.0337864
0.104126
0.0440654
0.0435029
0.045521
0.0310588
0.0241259
0.0216477
0.0849614
0.0251168
0.02879
1.66554
0.026144
0.0304424
0.021949
4.88834
0.0855605
0.0220896
0.024411
0.0232787
5.67301
0.166447
0.0314491
3.95733
0.315638
1.25733
0.0944975
0.23643
0.0218932
0.316343
0.021889
0.0268879
10.7499
3.47235
0.391878
2.30662
0.0221218
6.70405
0.0218902
0.0782136
0.0251994
3.56329
5.89943
0.0252675
0.0220236
0.357937
0.0430876
0.0220218
4.38115
0.02207
0.0236877
0.0251021
0.0221999
0.0307689
0.0233481
0.0220435
0.034935
0.534344
0.0392726
0.0624396
0.0220176
6.68311
3.52912
0.022005
0.266623
0.0251406
0.0292038
5.20028
0.0220016
0.0226891
0.027929
4.43351
0.022032
0.0221829
0.0400455
3.57323
0.0219881
0.0321805
0.034377
1.44768
0.0470013
0.0398003
0.222209
0.0220751
0.120889
0.0217119
6.69393
0.0301082
0.022049
0.0262593
0.100374
0.0221508
0.0220899
0.141269
4.0143
0.0222088
6.03475
0.0221881
0.0217006
0.0649861
0.0220356
0.0218316
6.69712
0.0222738
0.0397566
0.148084
4.57578
1.1745
0.0217632
0.0240035
0.028076
0.0220754
0.0220366
0.0220964
2.77813
0.0221958
0.208172
0.11482
0.0218546
0.021704
0.0299478
0.114827
0.264296
0.0568312
0.0634389
0.0238126
3.93309
0.0801952
0.0291805
0.039008
0.0670742
0.0948723
17.2747
0.0360464
3.77671
4.2613
5.3336
0.0243576
0.0219589
0.0384526
0.0343331
0.0217846
0.0222112
0.138715
0.0222436
0.0222791
0.0220525
0.0215803
0.0232357
0.0219926
6.6132
0.0220206
9.2818
0.0220828
0.0906084
0.0224998
0.117865
0.0811576
0.0220423
4.98318
0.0239776
0.022226
0.0383987
0.0218072
0.0308486
0.0219287
3.86275
0.0241508
0.0419577
0.104854
4.92172
0.0285058
0.209574
1.4606
0.0518845
0.022037
0.0228277
0.114162
0.0651715
7.42592
0.0217629
4.88411
0.022085
0.0898393
8.47689
0.0365379
3.43059
0.0252383
0.0319139
0.0248339
7.00284
0.0312456
0.0221422
0.0495776
0.145083
0.0233196
0.0220394
0.0221435
4.64927
0.0222525
0.02776
4.72208
0.0260807
0.0219857
0.0577
0.0249512
4.70215
0.0216616
0.0220179
0.0218669
0.0260666
0.0223037
0.0220574
0.0611637
4.4219
0.0219706
0.0221029
5.23141
0.0220954
5.87436
0.0232799
6.68472
0.0218557
0.0243255
0.0218153
3.90419
4.94347
0.0305021
0.0726444
0.0270347
0.0219463
0.0221171
3.92562
0.022137
0.0775182
0.0217851
0.0396495
0.0221902
5.48123
0.0218407
0.0425834
0.0218673
0.556394
1.12912
0.0217901
0.0449945
6.85637
0.0650609
3.8643
3.25134
0.26405
0.0234006
0.0336168
0.0959767
3.8907
0.0220302
0.0359637
0.0281354
0.0219758
4.08125
5.79638
0.0665185
0.15428
0.362437
0.0337304
4.46659
0.021777
0.0217856
0.102476
7.62162
0.233634
0.167595
1.85319
0.0218137
7.17832
3.90474
9.22001
0.0222029
5.56925
4.99852
1.20956
4.17453
3.90462
0.0805888
0.0304034
0.178071
0.0256143
0.0219722
2.08109
0.0907662
0.0216312
4.91398
0.022189
0.0293996
0.0413952
0.0267366
2.30397
0.034893
6.11677
0.041745
0.0260931
3.91872
4.90036
0.138667
0.0223695
0.0258085
0.0730397
0.0598434
0.0218341
0.0482386
0.0634987
0.151156
0.021974
0.199915
0.0243242
0.0501415
4.09669
0.202117
0.0230754
0.140141
4.66627
0.0221618
0.0227772
8.44511
0.362625
0.0242895
0.0245192
0.0220922
0.0764913
0.0249119
3.75156
0.103932
0.0225096
0.0222233
0.0673169
0.0298186
0.414647
6.65315
0.0218772
0.0220347
0.0277725
0.0221948
0.0240621
0.0228883
0.0226824
0.0257847
0.0219389
0.0248459
0.0221817
0.0445816
3.38084
0.0222643
5.57447
11.0925
0.0217112
0.255555
0.14084
0.0897252
0.0227216
0.0901071
0.0267414
0.0808922
0.0292439
0.0231952
0.0222095
7.30311
0.026926
3.68119
0.0227036
0.0220372
0.0220238
0.0722527
0.0219651
0.0488741
0.0575499
1.80339
0.0219202
0.25935
6.64681
4.14818
0.0218063
0.146652
1.05984
6.77497
3.68838
0.0225461
0.0222643
0.172444
1.56324
3.08651
0.039652
0.266422
0.0222315
0.0218287
0.040525
0.0221963
0.0221302
0.171492
0.0222655
0.0913048
0.0218449
4.94821
5.44517
4.61791
4.06397
4.26619
0.0221232
0.0221457
6.68831
0.0217752
0.0218002
0.0217008
0.127984
4.98128
6.76907
0.0275956
0.0219999
0.023119
0.0376541
5.30551
0.0220377
3.3354
5.054
0.0221893
0.0221779
4.13951
0.073695
0.0229915
0.0220422
5.78021
4.45287
0.0219548
0.193029
0.0222538
4.08949
3.40413
0.0231145
6.84843
6.73435
5.48183
0.0218314
0.0220303
0.0222452
0.0222861
4.74072
0.0219136
0.256691
0.234697
8.92052
0.0225938
0.0594015
0.288953
0.0488998
6.63759
4.38209
0.0216332
0.0252683
0.0254472
0.130603
4.35868
0.0215683
5.49351
0.0323631
0.0409429
0.0227299
0.021949
0.302691
0.0404022
4.87139
0.0221961
0.0561196
0.0225148
0.119915
0.0239828
4.33118
3.40896
0.292609
0.0882191
0.0219675
0.0238848
0.0840239
0.231741
4.36627
6.73489
0.0221498
3.54434
0.0937031
5.01885
0.0258011
0.0438663
0.0396055
0.0220585
5.57634
0.0220708
0.0319851
3.56591
4.84219
1.8512
4.83397
0.0284543
0.0479255
0.0217373
4.96645
0.0273669
6.82415
0.0217243
4.8558
0.0215302
0.0220035
0.0315827
0.0314234
0.0326557
0.0219773
3.82642
0.0412753
0.0219166
0.0380205
3.991
0.655004
0.022035
4.60333
0.0243434
0.0327508
0.0307944
0.0216931
0.0643265
0.0219965
10.2322
0.0836193
0.0260307
0.0220296
0.391799
0.039459
0.0217231
5.05759
3.08143
0.240219
0.0216127
1.17887
0.0221415
0.153394
0.0268774
0.125316
5.24066
3.98635
0.0346335
4.85027
0.0502104
0.0286072
0.0218274
5.23889
0.118847
0.106205
0.0603312
0.0222435
3.60681
0.0892031
0.401125
0.252461
6.50213
3.7772
6.65882
5.05405
0.0290236
0.0316692
0.0220966
0.0220477
0.0215879
0.169228
0.0292284
0.0331695
4.68782
0.0219397
0.0218601
0.039012
0.144992
0.027389
0.0218168
4.53596
0.0241163
0.0439379
0.0222062
5.7306
0.0287959
5.90802
0.0571527
0.033558
0.0531547
0.0220896
7.92717
0.302457
0.0705315
0.0220414
0.0219114
7.00187
4.474
3.54696
0.0218321
0.0718335
0.64132
0.0220126
0.0220088
0.0220817
4.86461
0.103628
0.0347947
0.0263263
0.0255531
4.73765
0.0917902
0.24488
0.0256066
0.0319759
0.0215721
0.132852
0.0558053
0.0220153
3.87288
4.42669
4.39125
4.02506
4.71162
8.12538
6.6348
0.0231262
0.021799
5.98912
5.09195
6.83944
0.022068
0.0394031
0.0220468
0.0219666
3.05633
4.96375
0.0618792
0.0220046
0.269403
0.0921206
0.0485289
4.29578
3.68468
0.268504
0.0219166
4.31326
2.17565
0.383671
0.030868
0.0418666
0.022174
0.0218774
0.0388576
0.0454764
0.0244227
0.0385713
0.027391
0.0250331
0.226635
4.19548
0.0316423
0.0401988
4.19418
0.197444
0.0221115
0.471515
1.0106
4.82961
0.0411938
0.0221058
0.0291544
0.0268458
0.0302544
0.0216911
0.0331418
0.0302436
0.0435885
0.256878
0.0222307
0.0229901
3.86739
3.99889
4.75816
0.321148
0.104901
0.0215152
0.0220457
0.0300966
0.0217313
6.66846
0.022038
0.0222735
0.0217241
3.82015
19.493
0.022414
0.0601837
0.0283102
0.0356176
0.0298335
0.0352581
0.0391267
0.0375212
4.76575
0.0258154
4.7689
0.0392812
4.72793
0.0292585
0.0219365
0.0218222
0.0925907
0.142666
0.0218275
0.0395869
0.0294446
0.0591085
3.97847
6.52221
4.44155
0.0222733
1.41809
0.0298603
0.036714
0.0220304
0.0698717
0.0237224
3.74345
2.17695
0.0399355
0.0220792
3.97411
0.0272814
4.3995
5.18464
0.231546
0.024289
0.130754
4.57342
1.0204
3.92752
0.060144
0.0219391
0.039926
0.0218233
8.96148
0.0246514
0.0317031
0.264738
4.64823
0.0219065
0.0219595
4.30387
0.0417779
8.07374
0.0327231
0.0220432
0.0426139
0.207793
0.0435021
3.50005
0.0360958
0.706199
0.0250181
0.0222451
0.0219448
0.29455
0.0226636
0.13411
0.0220488
0.0220011
0.27832
0.0256003
0.0220664
0.0220388
0.0354601
0.516413
0.0404458
0.0390547
0.0264089
0.0608628
0.0220383
0.164127
0.03025
0.0425109
0.0709568
0.02684
0.0882298
0.0453514
0.0218064
0.0649602
6.33104
3.38609
0.0220606
2.64583
4.37437
0.0219658
0.0226645
0.888278
4.26403
0.0278115
4.21762
0.3872
0.0219584
0.0807527
0.0215868
0.0257135
0.0611388
10.9354
0.551209
0.237134
0.256518
3.95045
4.09235
0.0230575
3.86678
0.0220367
2.42833
4.14573
0.0221007
0.0220835
3.54081
0.022115
0.0220859
0.27872
4.56612
0.223089
0.0255658
4.25331
0.022104
4.10513
3.98197
0.0221903
0.328784
6.79865
4.58456
3.66614
3.87818
3.75153
0.0218822
0.0232023
0.061231
0.0627255
0.0220802
0.193255
0.0220413
3.78601
0.285584
0.0495775
0.267806
3.7212
0.284757
0.227863
0.0601371
7.76822
0.522077
0.0248175
0.0216314
2.91804
0.0349185
0.0217722
6.82747
0.0219779
3.21432
0.0221425
4.86439
0.0249369
0.0219822
20.5563
0.0274933
0.035551
3.80348
6.66758
2.6046
0.026873
0.0419158
0.0233252
0.0372636
0.124349
0.0382554
0.0222097
1.73734
0.0605267
0.0331321
4.08874
0.0399285
0.0372261
0.217093
0.0738034
0.0423561
0.0219776
0.206255
0.0218211
0.122692
0.200053
4.5356
0.0218749
0.0391062
4.6156
0.0230482
0.0650533
0.0297837
0.0418565
6.02298
0.0597284
0.0234398
15.8335
0.0218856
3.95015
0.0221259
0.0228689
0.12091
3.59983
0.0326458
0.393681
0.628501
0.030169
0.0221669
0.166892
0.0450946
4.62114
0.0265445
13.3355
0.139879
0.0299698
0.0291763
0.107244
0.0375798
0.0749512
0.0593106
0.0382997
0.0242228
0.0220004
2.6561
0.0220122
0.0285958
0.0216027
0.10493
0.0289152
0.0584179
4.02538
0.0230212
0.233247
0.021511
0.0221525
0.0221893
0.0222067
0.0257813
0.0219445
0.0819407
7.92339
0.0574761
0.0443893
0.024569
0.0220329
0.207736
0.0220263
4.4148
4.90471
4.84203
0.137418
0.0351637
0.0264286
0.0221783
0.0298115
0.0974477
0.0428741
4.30698
0.0565494
4.90972
0.138696
0.0222103
0.0218441
3.43752
0.0219525
0.0292534
0.0664269
0.363207
0.023052
4.6287
0.0221735
0.0257961
0.022048
0.0226273
0.170049
0.101014
0.0222042
0.0310317
0.0350369
0.0447368
0.0548491
0.54286
0.37513
0.286321
0.125464
0.0252985
0.0229333
0.053842
3.57377
6.52532
4.02501
0.0307589
5.45314
0.0982705
0.0226687
0.0219973
0.0579618
0.0221447
0.0308205
5.56696
0.0219664
0.0218018
0.583697
3.17601
0.0442631
1.63352
0.0221152
5.68579
0.0424075
4.79635
0.0294679
0.0220341
4.13246
0.0585405
0.0220309
0.0741195
0.0222531
0.165763
0.0289482
0.0551687
6.96114
0.0337092
5.27516
0.0219342
4.97609
0.0221252
0.0260142
0.0224769
0.0465593
0.022144
0.0563606
3.90699
1.11037
0.0489731
0.0321906
0.0781062
0.0219032
0.021966
0.0228685
1.11727
0.0249603
5.00493
4.58026
0.147247
0.0222158
0.151816
0.23756
0.14804
0.0251303
4.88821
0.0219762
0.0215222
0.0219617
6.50216
0.0220541
0.0220154
4.0185
0.0219768
0.169475
0.10189
0.0217601
4.40826
0.0270237
4.82132
0.0219236
2.08544
0.0227988
0.0727649
9.17473
0.0642527
0.0219475
0.0264198
4.6078
0.0307081
0.156077
0.0306143
0.0263514
0.148006
0.0291625
0.0220941
23.0542
0.029319
0.0272055
0.134668
0.021972
0.021864
0.0221891
0.0294489
0.0221254
0.0259063
5.39989
12.5996
0.104147
7.29507
0.0574724
0.0325077
4.73842
4.60382
0.0224378
9.18097
9.21307
3.97552
2.75046
0.0309439
4.54503
4.15544
17.4024
2.88833
6.36443
0.0429708
0.0842844
0.0294805
0.0253567
0.0221741
1.54049
0.0222852
4.83423
0.127449
0.352371
0.0215948
0.0712224
0.0461346
0.0235766
0.0222931
0.0221186
0.126069
0.0233068
0.0221599
0.0382005
4.38049
0.0240467
0.163125
0.0218319
0.128906
0.0837602
0.0221585
0.0267434
0.0219475
4.89262
4.64632
0.160199
9.61742
0.0333154
0.0865646
0.0221321
0.0392755
0.0220644
0.0222924
0.0222336
4.91506
0.0217791
0.0427586
0.803896
0.0279422
0.0303394
0.0220005
4.88478
0.203238
13.4609
4.63244
0.173649
0.322188
4.38273
0.358739
0.197475
8.51332
0.128317
0.0341314
3.47888
5.06862
0.0220456
5.15517
0.157655
5.51889
0.0216131
0.0607314
5.03557
0.0222732
4.70574
0.0253557
6.79296
0.0220923
0.0221004
0.0681907
0.228404
0.025987
0.0643275
0.021789
0.0221009
3.70421
5.66724
6.62363
0.0507285
0.0220753
0.022435
0.0221364
0.0361968
1.17893
4.64583
3.8597
3.84703
0.0321277
0.0219541
0.0219841
5.85963
6.24637
0.302499
0.0263676
0.0247495
0.0832482
4.82394
6.02514
0.0215129
0.0219606
5.0907
0.0229873
0.264297
0.0279312
0.0220655
0.0324895
0.0466087
4.68528
4.67264
0.0222023
0.0218007
0.0247191
0.210601
5.13695
0.0222652
0.135943
4.47994
0.0215227
2.96996
4.1892
11.9422
0.0221106
5.43075
4.95906
0.0390139
0.324529
0.0241501
0.311074
0.357944
0.0252657
0.0219458
6.39188
1.70603
0.0218639
0.13908
0.146309
0.0294568
0.271107
4.62748
5.47891
5.07013
0.0273088
0.0235443
0.0229508
4.59715
5.10707
4.85254
5.95171
4.72335
0.021721
0.042657
0.0220681
0.0221157
0.024817
0.0219694
0.0220601
0.022145
4.47861
13.2007
6.98624
0.0572246
0.195865
0.0356717
0.0218592
0.0219878
4.51843
0.0221394
6.0068
3.95778
0.0221795
0.021889
3.67821
0.0225348
0.577099
0.025726
0.0217529
0.0217167
4.52067
0.0216807
4.40151
4.33613
0.0215678
0.04618
0.021912
0.0228265
0.0218444
0.11647
3.95326
0.0219726
5.05788
0.487625
0.0239912
0.0218796
0.0226405
0.023528
0.0222267
0.559837
5.46044
5.78068
0.0385003
6.44981
0.0222727
0.0255635
0.0220745
0.180257
0.0233631
4.88345
0.0218634
4.01271
0.269056
5.72858
0.147935
0.0218595
0.043586
0.021916
4.3552
0.0219517
0.0285534
0.0264005
0.0254401
0.0221362
0.0222511
0.0325059
5.11893
0.022185
0.0228048
0.0238545
0.0335665
0.168399
0.0221886
5.12018
3.8856
0.0238031
5.04301
4.62802
3.49327
6.3878
0.0215374
0.0230429
3.74159
4.3411
0.142686
4.04546
4.51027
0.0326208
0.0488496
0.0302409
4.33808
0.0220371
0.0219666
5.58773
0.125972
4.83437
0.0245815
0.0217111
0.0220467
5.01934
0.069968
0.0237242
0.239759
0.0218264
0.0593597
0.0302199
0.0304763
0.0219222
0.0221893
0.0219224
0.0245874
1.41553
5.12251
0.0215768
0.0219075
4.5737
0.0220626
0.0635745
0.0259512
0.0255213
0.0366436
0.0222858
4.28143
0.0294119
0.0252431
20.308
0.0846582
0.0232239
0.0314425
0.0220289
0.0224724
6.76809
0.2914
3.52707
0.022254
0.0221548
0.0611737
0.0271219
0.0220317
0.0375994
4.36221
0.0258441
0.0412743
0.0253238
0.119932
0.022116
0.0216964
4.70938
5.26193
5.14238
0.0219724
0.153112
0.0215971
0.0220233
0.0659392
4.73783
0.0671982
0.0281804
0.156467
0.0227269
0.0293294
0.0531026
0.774671
0.0222823
0.021641
0.0225498
0.0238822
0.0265629
0.0219612
1.29772
9.86892
0.0220849
0.0320377
0.0224061
0.0216467
3.84862
5.99164
5.65169
0.0745979
0.022376
0.055403
4.95134
0.101995
0.0951033
0.033911
0.0297629
5.16554
0.216659
0.813768
0.0217653
0.0304832
0.0221113
0.0304645
6.90391
0.0216271
0.0405191
0.0254205
0.0299762
0.0230389
0.0217924
0.0218803
4.34389
0.0457546
0.0302833
0.0667515
0.0348534
6.31201
0.0312031
0.489524
0.0219259
4.80716
4.98554
6.90442
0.0222646
0.0316909
0.0220849
0.0219625
5.65058
0.0460655
4.79582
0.0219957
0.0451085
0.131404
4.75374
0.0279885
0.0216417
6.79406
0.0222853
0.0222842
0.0225781
0.0220366
5.96281
0.0218246
0.0218772
0.0362602
0.0272171
0.144236
0.13203
0.0331282
4.62456
0.021932
0.178841
0.0217777
4.68506
0.0340137
0.493431
0.148207
2.77656
0.10787
4.64541
0.0230443
6.42191
0.0324507
4.92062
0.202556
0.0278163
0.226314
0.0221483
6.9589
0.0230792
0.0379415
0.0271017
7.19112
0.140978
4.34433
0.0309267
0.0220161
4.92191
0.244024
0.0543051
0.149926
8.38154
4.86623
0.0390623
0.280622
0.0424486
0.0218811
0.0483164
0.266357
0.0693297
26.3266
0.122528
0.0217985
0.0219359
0.140804
0.0220865
5.46648
0.0713254
0.0220851
3.83963
1.99117
3.33645
0.110177
0.0219917
0.0289252
0.0257087
4.43331
3.77098
0.0256885
5.20702
0.0218745
0.0315275
1.11302
0.022004
0.0405399
0.021932
0.0262112
0.0222513
0.164532
0.811627
0.0300657
0.0292993
0.0217158
0.143547
0.0218903
0.0218285
0.0330382
0.0219254
0.220944
4.84742
3.9311
4.49775
0.0217873
4.97288
0.0221895
0.0371034
0.134539
0.0220226
7.74605
0.0699042
0.0220388
0.0216339
0.0421045
0.0376252
0.182173
0.235585
0.02576
0.0238977
4.13874
0.0616863
0.286365
0.898722
13.7801
4.04465
4.82045
1.37943
0.0221522
0.022115
0.0468175
0.0222106
0.0510414
0.0363557
6.36888
5.07013
6.73826
0.0216848
0.0217793
0.121086
0.262643
4.42072
1.44493
3.73063
0.0543027
0.0326877
1.2871
0.265129
0.0261657
4.8152
0.0331451
0.0303678
4.46108
0.0409006
0.0219355
4.71539
0.966438
0.0244384
0.142758
0.0233815
3.84889
5.78533
5.6046
0.0220154
0.0216844
0.134926
0.0220171
0.0219218
0.022021
0.021731
0.0220264
0.0220331
4.72056
0.0279536
0.046392
4.28299
0.0219024
0.0220421
0.031602
0.0256067
0.0261813
0.0220501
0.0661213
0.0306894
0.0263701
0.0856666
4.44829
0.0220614
0.0424697
0.0220736
0.0220357
0.0215708
0.0220861
4.49679
0.0218981
0.0220265
0.0220994
0.0436611
4.30704
4.32969
4.90767
1.82663
0.0448892
4.40693
6.49603
0.0219574
0.0423377
5.89582
0.235914
0.0221135
0.0277695
0.0430175
0.037824
0.0220629
0.0398314
0.0567916
0.0444383
0.0216316
0.0536571
4.15398
0.0215765
1.99436
4.92378
0.0423755
0.691102
0.0356245
0.0220914
0.0255067
0.022015
0.236945
4.78491
0.0216781
0.043397
0.0219757
0.0219814
0.022195
0.0222859
0.0373968
0.0221729
0.128309
0.147584
0.0258303
0.0245316
0.0455503
0.0220485
0.0444724
0.0322878
0.0223635
0.0221035
0.0221423
5.11386
0.0220169
0.27189
0.0409782
0.0222536
0.0220356
0.0217435
4.71668
0.0253555
0.0425138
0.0523427
4.9872
0.0281074
4.2878
2.10556
0.0431765
0.0219752
0.234825
0.0386932
5.10947
0.0709516
4.73423
0.0216345
0.0497951
0.048761
4.57285
0.0220073
0.0444723
5.11411
0.0218594
7.8737
10.1992
3.52907
0.0219795
0.0217777
5.02651
0.0220499
4.48793
0.169533
4.29101