/*--------------------------------*- C++ -*----------------------------------*\
| =========                 |                                                 |
| \\      /  F ield         | OpenFOAM: The Open Source CFD Toolbox           |
|  \\    /   O peration     | Version:  v2012                                 |
|   \\  /    A nd           | Website:  www.openfoam.com                      |
|    \\/     M anipulation  |                                                 |
\*---------------------------------------------------------------------------*/
FoamFile
{
    version     2.0;
    format      ascii;
    class       pointVectorField;
    location    "250";
    object      pointDisplacement;
}
// * * * * * * * * * * * * * * * * * * * * * * * * * * * * * * * * * * * * * //

dimensions      [0 1 0 0 0 0 0];


internalField   nonuniform List<vector> 
14324
(
(0 0 0)
(-0 -0.0306164 -0)
(0 0 0)
(-0 -0.0306164 -0)
(0 0 0)
(0 0 0)
(0 0 0)
(0 0 0)
(0 0 0)
(0 0 0)
(0 0 0)
(0 0 0)
(0 0 0)
(0 0 0)
(0 0 0)
(0 0 0)
(0 0 0)
(0 0 0)
(0 0 0)
(0 0 0)
(0 0 0)
(0 0 0)
(0 0 0)
(0 0 0)
(0 0 0)
(0 0 0)
(0 0 0)
(0 0 0)
(0 0 0)
(0 0 0)
(0 0 0)
(0 0 0)
(0 0 0)
(0 0 0)
(0 0 0)
(0 0 0)
(0 0 0)
(0 0 0)
(0 0 0)
(0 0 0)
(0 0 0)
(0 0 0)
(0 0 0)
(0 0 0)
(0 0 0)
(0 0 0)
(0 0 0)
(0 0 0)
(0 0 0)
(0 0 0)
(0 0 0)
(0 0 0)
(0 0 0)
(0 0 0)
(0 0 0)
(0 0 0)
(0 0 0)
(0 0 0)
(0 0 0)
(0 0 0)
(0 0 0)
(0 0 0)
(0 0 0)
(0 0 0)
(0 0 0)
(0 0 0)
(0 0 0)
(0 0 0)
(0 0 0)
(0 0 0)
(0 0 0)
(0 0 0)
(0 0 0)
(0 0 0)
(0 0 0)
(0 0 0)
(-0 -0.0306164 -0)
(-0 -0.0306164 -0)
(-0 -0.0306164 -0)
(-0 -0.0306164 -0)
(-0 -0.0306164 -0)
(-0 -0.0306164 -0)
(-0 -0.0306164 -0)
(-0 -0.0306164 -0)
(-0 -0.0306164 -0)
(-0 -0.0306164 -0)
(-0 -0.0306164 -0)
(-0 -0.0306164 -0)
(-0 -0.0306164 -0)
(-0 -0.0306164 -0)
(-0 -0.0306164 -0)
(-0 -0.0306164 -0)
(-0 -0.0306164 -0)
(-0 -0.0306164 -0)
(-0 -0.0306164 -0)
(-0 -0.0306164 -0)
(-0 -0.0306164 -0)
(-0 -0.0306164 -0)
(-0 -0.0306164 -0)
(-0 -0.0306164 -0)
(-0 -0.0306164 -0)
(-0 -0.0306164 -0)
(-0 -0.0306164 -0)
(-0 -0.0306164 -0)
(-0 -0.0306164 -0)
(-0 -0.0306164 -0)
(-0 -0.0306164 -0)
(-0 -0.0306164 -0)
(-0 -0.0306164 -0)
(-0 -0.0306164 -0)
(-0 -0.0306164 -0)
(-0 -0.0306164 -0)
(-0 -0.0306164 -0)
(-0 -0.0306164 -0)
(-0 -0.0306164 -0)
(-0 -0.0306164 -0)
(-0 -0.0306164 -0)
(-0 -0.0306164 -0)
(-0 -0.0306164 -0)
(-0 -0.0306164 -0)
(-0 -0.0306164 -0)
(-0 -0.0306164 -0)
(-0 -0.0306164 -0)
(-0 -0.0306164 -0)
(-0 -0.0306164 -0)
(-0 -0.0306164 -0)
(-0 -0.0306164 -0)
(-0 -0.0306164 -0)
(-0 -0.0306164 -0)
(-0 -0.0306164 -0)
(-0 -0.0306164 -0)
(-0 -0.0306164 -0)
(-0 -0.0306164 -0)
(-0 -0.0306164 -0)
(-0 -0.0306164 -0)
(-0 -0.0306164 -0)
(-0 -0.0306164 -0)
(-0 -0.0306164 -0)
(-0 -0.0306164 -0)
(-0 -0.0306164 -0)
(-0 -0.0306164 -0)
(-0 -0.0306164 -0)
(-0 -0.0306164 -0)
(-0 -0.0306164 -0)
(-0 -0.0306164 -0)
(-0 -0.0306164 -0)
(-0 -0.0306164 -0)
(-0 -0.0306164 -0)
(-0 -0.0306164 -0)
(-0 -0.0306164 -0)
(-0 -0.0306164 -0)
(-0 -0.0306164 -0)
(-0 -0.0306164 -0)
(-0 -0.0306164 -0)
(-0 -0.0306164 -0)
(-0 -0.0306164 -0)
(-0 -0.0306164 -0)
(-0 -0.0306164 -0)
(-0 -0.0306164 -0)
(-0 -0.0306164 -0)
(-0 -0.0306164 -0)
(-0 -0.0306164 -0)
(-0 -0.0306164 -0)
(-0 -0.0306164 -0)
(-0 -0.0306164 -0)
(-0 -0.0306164 -0)
(-0 -0.0306164 -0)
(-0 -0.0306164 -0)
(-0 -0.0306164 -0)
(-0 -0.0306164 -0)
(-0 -0.0306164 -0)
(-0 -0.0306164 -0)
(-0 -0.0306164 -0)
(-0 -0.0306164 -0)
(-0 -0.0306164 -0)
(-0 -0.0306164 -0)
(-0 -0.0306164 -0)
(-0 -0.0306164 -0)
(-0 -0.0306164 -0)
(-0 -0.0306164 -0)
(-0 -0.0306164 -0)
(-0 -0.0306164 -0)
(-0 -0.0306164 -0)
(-0 -0.0306164 -0)
(-0 -0.0306164 -0)
(-0 -0.0306164 -0)
(-0 -0.0306164 -0)
(-0 -0.0306164 -0)
(-0 -0.0306164 -0)
(-0 -0.0306164 -0)
(-0 -0.0306164 -0)
(-0 -0.0306164 -0)
(-0 -0.0306164 -0)
(-0 -0.0306164 -0)
(-0 -0.0306164 -0)
(-0 -0.0306164 -0)
(-0 -0.0306164 -0)
(-0 -0.0306164 -0)
(-0 -0.0306164 -0)
(-0 -0.0306164 -0)
(-0 -0.0306164 -0)
(-0 -0.0306164 -0)
(-0 -0.0306164 -0)
(-0 -0.0306164 -0)
(-0 -0.0306164 -0)
(-0 -0.0306164 -0)
(-0 -0.0306164 -0)
(-0 -0.0306164 -0)
(-0 -0.0306164 -0)
(-0 -0.0306164 -0)
(-0 -0.0306164 -0)
(-0 -0.0306164 -0)
(-0 -0.0306164 -0)
(-0 -0.0306164 -0)
(-0 -0.0306164 -0)
(-0 -0.0306164 -0)
(-0 -0.0306164 -0)
(-0 -0.0306164 -0)
(-0 -0.0306164 -0)
(-0 -0.0306164 -0)
(-0 -0.0306164 -0)
(-0 -0.0306164 -0)
(-0 -0.0306164 -0)
(-0 -0.0306164 -0)
(-0 -0.0306164 -0)
(-0 -0.0306164 -0)
(-0 -0.0306164 -0)
(0 0 0)
(0 0 0)
(0 0 0)
(0 0 0)
(0 0 0)
(0 0 0)
(0 0 0)
(0 0 0)
(0 0 0)
(0 0 0)
(0 0 0)
(0 0 0)
(0 0 0)
(0 0 0)
(0 0 0)
(0 0 0)
(0 0 0)
(0 0 0)
(0 0 0)
(0 0 0)
(0 0 0)
(0 0 0)
(0 0 0)
(0 0 0)
(0 0 0)
(0 0 0)
(0 0 0)
(0 0 0)
(0 0 0)
(0 0 0)
(0 0 0)
(0 0 0)
(0 0 0)
(0 0 0)
(0 0 0)
(0 0 0)
(0 0 0)
(0 0 0)
(0 0 0)
(0 0 0)
(0 0 0)
(0 0 0)
(0 0 0)
(0 0 0)
(0 0 0)
(0 0 0)
(0 0 0)
(0 0 0)
(0 0 0)
(0 0 0)
(0 0 0)
(0 0 0)
(0 0 0)
(0 0 0)
(0 0 0)
(0 0 0)
(0 0 0)
(0 0 0)
(0 0 0)
(0 0 0)
(0 0 0)
(0 0 0)
(0 0 0)
(0 0 0)
(0 0 0)
(0 0 0)
(0 0 0)
(0 0 0)
(0 0 0)
(0 0 0)
(0 0 0)
(0 0 0)
(-0 -0.0306164 -0)
(-0 -0.0306164 -0)
(-0 -0.0306164 -0)
(-0 -0.0306164 -0)
(-0 -0.0306164 -0)
(-0 -0.0306164 -0)
(-0 -0.0306164 -0)
(-0 -0.0306164 -0)
(-0 -0.0306164 -0)
(-0 -0.0306164 -0)
(-0 -0.0306164 -0)
(-0 -0.0306164 -0)
(-0 -0.0306164 -0)
(-0 -0.0306164 -0)
(-0 -0.0306164 -0)
(-0 -0.0306164 -0)
(-0 -0.0306164 -0)
(-0 -0.0306164 -0)
(-0 -0.0306164 -0)
(-0 -0.0306164 -0)
(-0 -0.0306164 -0)
(-0 -0.0306164 -0)
(-0 -0.0306164 -0)
(-0 -0.0306164 -0)
(-0 -0.0306164 -0)
(-0 -0.0306164 -0)
(-0 -0.0306164 -0)
(-0 -0.0306164 -0)
(-0 -0.0306164 -0)
(-0 -0.0306164 -0)
(-0 -0.0306164 -0)
(-0 -0.0306164 -0)
(-0 -0.0306164 -0)
(-0 -0.0306164 -0)
(-0 -0.0306164 -0)
(-0 -0.0306164 -0)
(-0 -0.0306164 -0)
(-0 -0.0306164 -0)
(-0 -0.0306164 -0)
(-0 -0.0306164 -0)
(-0 -0.0306164 -0)
(-0 -0.0306164 -0)
(-0 -0.0306164 -0)
(-0 -0.0306164 -0)
(-0 -0.0306164 -0)
(-0 -0.0306164 -0)
(-0 -0.0306164 -0)
(-0 -0.0306164 -0)
(-0 -0.0306164 -0)
(-0 -0.0306164 -0)
(-0 -0.0306164 -0)
(-0 -0.0306164 -0)
(-0 -0.0306164 -0)
(-0 -0.0306164 -0)
(-0 -0.0306164 -0)
(-0 -0.0306164 -0)
(-0 -0.0306164 -0)
(-0 -0.0306164 -0)
(-0 -0.0306164 -0)
(-0 -0.0306164 -0)
(-0 -0.0306164 -0)
(-0 -0.0306164 -0)
(-0 -0.0306164 -0)
(-0 -0.0306164 -0)
(-0 -0.0306164 -0)
(-0 -0.0306164 -0)
(-0 -0.0306164 -0)
(-0 -0.0306164 -0)
(-0 -0.0306164 -0)
(-0 -0.0306164 -0)
(-0 -0.0306164 -0)
(-0 -0.0306164 -0)
(-0 -0.0306164 -0)
(-0 -0.0306164 -0)
(-0 -0.0306164 -0)
(-0 -0.0306164 -0)
(-0 -0.0306164 -0)
(-0 -0.0306164 -0)
(-0 -0.0306164 -0)
(-0 -0.0306164 -0)
(-0 -0.0306164 -0)
(-0 -0.0306164 -0)
(-0 -0.0306164 -0)
(-0 -0.0306164 -0)
(-0 -0.0306164 -0)
(-0 -0.0306164 -0)
(-0 -0.0306164 -0)
(-0 -0.0306164 -0)
(-0 -0.0306164 -0)
(-0 -0.0306164 -0)
(-0 -0.0306164 -0)
(-0 -0.0306164 -0)
(-0 -0.0306164 -0)
(-0 -0.0306164 -0)
(-0 -0.0306164 -0)
(-0 -0.0306164 -0)
(-0 -0.0306164 -0)
(-0 -0.0306164 -0)
(-0 -0.0306164 -0)
(-0 -0.0306164 -0)
(-0 -0.0306164 -0)
(-0 -0.0306164 -0)
(-0 -0.0306164 -0)
(-0 -0.0306164 -0)
(-0 -0.0306164 -0)
(-0 -0.0306164 -0)
(-0 -0.0306164 -0)
(-0 -0.0306164 -0)
(-0 -0.0306164 -0)
(-0 -0.0306164 -0)
(-0 -0.0306164 -0)
(-0 -0.0306164 -0)
(-0 -0.0306164 -0)
(-0 -0.0306164 -0)
(-0 -0.0306164 -0)
(-0 -0.0306164 -0)
(-0 -0.0306164 -0)
(-0 -0.0306164 -0)
(-0 -0.0306164 -0)
(-0 -0.0306164 -0)
(-0 -0.0306164 -0)
(-0 -0.0306164 -0)
(-0 -0.0306164 -0)
(-0 -0.0306164 -0)
(-0 -0.0306164 -0)
(-0 -0.0306164 -0)
(-0 -0.0306164 -0)
(-0 -0.0306164 -0)
(-0 -0.0306164 -0)
(-0 -0.0306164 -0)
(-0 -0.0306164 -0)
(-0 -0.0306164 -0)
(-0 -0.0306164 -0)
(-0 -0.0306164 -0)
(-0 -0.0306164 -0)
(-0 -0.0306164 -0)
(-0 -0.0306164 -0)
(-0 -0.0306164 -0)
(-0 -0.0306164 -0)
(-0 -0.0306164 -0)
(-0 -0.0306164 -0)
(-0 -0.0306164 -0)
(-0 -0.0306164 -0)
(-0 -0.0306164 -0)
(-0 -0.0306164 -0)
(-0 -0.0306164 -0)
(-0 -0.0306164 -0)
(-0 -0.0306164 -0)
(-0 -0.0306164 -0)
(-0 -0.0306164 -0)
(-0 -0.0306164 -0)
(0 -0.0306164 0)
(0 -0.0306164 0)
(0 -0.0306164 0)
(0 -0.0306164 0)
(0 -0.0306164 0)
(0 -0.0306164 0)
(0 -0.0306164 0)
(0 -0.0306164 0)
(0 -0.0306164 0)
(0 -0.0306164 0)
(0 -0.0306164 0)
(0 -0.0306164 0)
(0 -0.0306164 0)
(0 -0.0306164 0)
(0 -0.0306164 0)
(0 -0.0306164 0)
(0 -0.0306164 0)
(0 -0.00177169 0)
(0 -0.00196669 0)
(0 -0.00201734 0)
(0 -0.00203475 0)
(0 -0.0021517 0)
(0 -0.00236204 0)
(0 -0.0306164 0)
(0 -0.00130517 0)
(0 -0.00142645 0)
(0 -0.00245301 0)
(0 -0.00204407 0)
(0 -0.00108538 0)
(0 -0.0306164 0)
(0 -0.0306164 0)
(0 -0.0306164 0)
(0 -0.0306164 0)
(0 -0.0306164 0)
(0 -0.0306164 0)
(0 -0.0306164 0)
(0 -0.0306164 0)
(0 -0.0306164 0)
(0 -0.0306164 0)
(0 -0.0306164 0)
(0 -0.0306164 0)
(0 -0.0306164 0)
(0 -0.0306164 0)
(0 -0.0306163 0)
(0 -0.00106508 0)
(0 -0.00209134 0)
(0 -0.00186653 0)
(0 -0.00197488 0)
(0 -0.000731173 0)
(0 -0.000805825 0)
(0 -0.0306164 0)
(0 -0.000409634 0)
(0 -0.002274 0)
(0 -0.00238526 0)
(0 -0.00161594 0)
(0 -0.0021003 0)
(0 -0.00191571 0)
(0 -0.00241106 0)
(0 -0.00128935 0)
(0 -0.00150594 0)
(0 -0.00125554 0)
(0 -0.000937616 0)
(0 -0.000462012 0)
(0 -0.000169838 0)
(0 -0.0294522 0)
(0 -0.0293233 0)
(0 -0.0294344 0)
(0 -0.0293037 0)
(0 -0.0294307 0)
(0 -0.0292587 0)
(0 -0.0293875 0)
(0 -0.0292476 0)
(0 -0.0293625 0)
(0 -0.0292169 0)
(0 -0.0293325 0)
(0 -0.029194 0)
(0 -0.0293023 0)
(0 -0.0291659 0)
(0 -0.0292715 0)
(0 -0.0291274 0)
(0 -0.0292375 0)
(0 -0.0290927 0)
(0 -0.0291989 0)
(0 -0.0290444 0)
(0 -0.0291586 0)
(0 -0.0289942 0)
(0 -0.0291115 0)
(0 -0.0289525 0)
(0 -0.0290592 0)
(0 -0.0288984 0)
(0 -0.0290075 0)
(0 -0.0288412 0)
(0 -0.0289527 0)
(0 -0.0287836 0)
(0 -0.028892 0)
(0 -0.0287138 0)
(0 -0.0288192 0)
(0 -0.0286394 0)
(0 -0.0287464 0)
(0 -0.0285634 0)
(0 -0.0286772 0)
(0 -0.0284787 0)
(0 -0.0286039 0)
(0 -0.0283907 0)
(0 -0.0285184 0)
(0 -0.0283041 0)
(0 -0.0284276 0)
(0 -0.0290934 0)
(0 -0.0288508 0)
(0 -0.0285286 0)
(0 -0.0282039 0)
(0 -0.0283267 0)
(0 -0.0280966 0)
(0 -0.0282196 0)
(0 -0.0279508 0)
(0 -0.0279831 0)
(0 -0.0281045 0)
(0 -0.0278498 0)
(0 -0.0279777 0)
(0 -0.0277041 0)
(0 -0.0278376 0)
(0 -0.0275455 0)
(0 -0.0276862 0)
(0 -0.0288188 0)
(0 -0.0291153 0)
(0 -0.0283468 0)
(0 -0.0273772 0)
(0 -0.0275224 0)
(0 -0.0271978 0)
(0 -0.0273434 0)
(0 -0.0276589 0)
(0 -0.0274785 0)
(0 -0.0277848 0)
(0 -0.0276058 0)
(0 -0.0272831 0)
(0 -0.0274068 0)
(0 -0.0270768 0)
(0 -0.0271959 0)
(0 -0.0275054 0)
(0 -0.0273015 0)
(0 -0.0276041 0)
(0 -0.0269904 0)
(0 -0.0293356 0)
(0 -0.0273987 0)
(0 -0.027692 0)
(0 -0.0274869 0)
(0 -0.0277729 0)
(0 -0.0275661 0)
(0 -0.0278604 0)
(0 -0.0276337 0)
(0 -0.0279178 0)
(0 -0.0295037 0)
(0 -0.0276825 0)
(0 -0.0279593 0)
(0 -0.0277152 0)
(0 -0.0274155 0)
(0 -0.0279909 0)
(0 -0.0277394 0)
(0 -0.0280183 0)
(0 -0.028138 0)
(0 -0.0277539 0)
(0 -0.0280274 0)
(0 -0.0277527 0)
(0 -0.028015 0)
(0 -0.0277351 0)
(0 -0.0279989 0)
(0 -0.0272261 0)
(0 -0.0277105 0)
(0 -0.0279658 0)
(0 -0.0274315 0)
(0 -0.0276624 0)
(0 -0.0279123 0)
(0 -0.0275905 0)
(0 -0.0282701 0)
(0 -0.0278471 0)
(0 -0.0275124 0)
(0 -0.0281498 0)
(0 -0.0280851 0)
(0 -0.028372 0)
(0 -0.0283106 0)
(0 -0.0285747 0)
(0 -0.0285152 0)
(0 -0.0287448 0)
(0 -0.0286846 0)
(0 -0.0289021 0)
(0 -0.0288393 0)
(0 -0.0285839 0)
(0 -0.0290564 0)
(0 -0.0289863 0)
(0 -0.0291893 0)
(0 -0.0291146 0)
(0 -0.0293062 0)
(0 -0.0293717 0)
(0 -0.029477 0)
(0 -0.0295337 0)
(0 -0.0294126 0)
(0 -0.0295706 0)
(0 -0.0295086 0)
(0 -0.0296538 0)
(0 -0.0295916 0)
(0 -0.0297269 0)
(0 -0.0296636 0)
(0 -0.0297922 0)
(0 -0.0297289 0)
(0 -0.0295926 0)
(0 -0.0296566 0)
(0 -0.0298486 0)
(0 -0.0297877 0)
(0 -0.0297156 0)
(0 -0.0298397 0)
(0 -0.0297649 0)
(0 -0.0298808 0)
(0 -0.0297917 0)
(0 -0.029916 0)
(0 -0.0298498 0)
(0 -0.0299512 0)
(0 -0.0298862 0)
(0 -0.0299793 0)
(0 -0.0295121 0)
(0 -0.0300169 0)
(0 -0.0297922 0)
(0 -0.0305776 0)
(0 -0.0305709 0)
(0 -0.0305783 0)
(0 -0.0305718 0)
(0 -0.0305791 0)
(0 -0.0305726 0)
(0 -0.0305798 0)
(0 -0.0305734 0)
(0 -0.0305802 0)
(0 -0.030574 0)
(0 -0.0305805 0)
(0 -0.0305745 0)
(0 -0.0305671 0)
(0 -0.0305678 0)
(0 -0.0305619 0)
(0 -0.0305751 0)
(0 -0.0305686 0)
(0 -0.0305757 0)
(0 -0.0305693 0)
(0 -0.0305761 0)
(0 -0.0305695 0)
(0 -0.0305765 0)
(0 -0.0305699 0)
(0 -0.0305768 0)
(0 -0.0305704 0)
(0 -0.0305771 0)
(0 -0.0305711 0)
(0 -0.0305774 0)
(0 -0.0305713 0)
(0 -0.0305776 0)
(0 -0.0305712 0)
(0 -0.0305777 0)
(0 -0.0305712 0)
(0 -0.0305776 0)
(0 -0.0305712 0)
(0 -0.0305776 0)
(0 -0.0305712 0)
(0 -0.030564 0)
(0 -0.0305643 0)
(0 -0.030564 0)
(0 -0.0305595 0)
(0 -0.0305715 0)
(0 -0.0305645 0)
(0 -0.0305717 0)
(0 -0.0305644 0)
(0 -0.0305716 0)
(0 -0.0305643 0)
(0 -0.0305714 0)
(0 -0.0305643 0)
(0 -0.0305713 0)
(0 -0.0305644 0)
(0 -0.0305714 0)
(0 -0.0305643 0)
(0 -0.0305713 0)
(0 -0.030564 0)
(0 -0.0305711 0)
(0 -0.0305637 0)
(0 -0.0305709 0)
(0 -0.0305635 0)
(0 -0.0305553 0)
(0 -0.0305551 0)
(0 -0.0305565 0)
(0 -0.0305647 0)
(0 -0.0305549 0)
(0 -0.030563 0)
(0 -0.0305544 0)
(0 -0.0305626 0)
(0 -0.030554 0)
(0 -0.0305624 0)
(0 -0.0305538 0)
(0 -0.0305623 0)
(0 -0.0305533 0)
(0 -0.0305617 0)
(0 -0.0305523 0)
(0 -0.0305609 0)
(0 -0.0305516 0)
(0 -0.0305603 0)
(0 -0.0305509 0)
(0 -0.0305596 0)
(0 -0.03055 0)
(0 -0.03054 0)
(0 -0.0305389 0)
(0 -0.0305442 0)
(0 -0.0305491 0)
(0 -0.0305378 0)
(0 -0.0305482 0)
(0 -0.0305369 0)
(0 -0.0305471 0)
(0 -0.0305355 0)
(0 -0.0305249 0)
(0 -0.0305459 0)
(0 -0.0305337 0)
(0 -0.0305446 0)
(0 -0.030532 0)
(0 -0.0305431 0)
(0 -0.0305301 0)
(0 -0.0305414 0)
(0 -0.0305279 0)
(0 -0.0305151 0)
(0 -0.0305126 0)
(0 -0.0305257 0)
(0 -0.03051 0)
(0 -0.0305232 0)
(0 -0.0305069 0)
(0 -0.0305204 0)
(0 -0.0305031 0)
(0 -0.0304884 0)
(0 -0.0304826 0)
(0 -0.0304989 0)
(0 -0.0304773 0)
(0 -0.0304941 0)
(0 -0.0304721 0)
(0 -0.0304897 0)
(0 -0.0304667 0)
(0 -0.030485 0)
(0 -0.0304573 0)
(0 -0.0304607 0)
(0 -0.030479 0)
(0 -0.0304547 0)
(0 -0.0304728 0)
(0 -0.0304468 0)
(0 -0.0304647 0)
(0 -0.0304294 0)
(0 -0.0304366 0)
(0 -0.0304547 0)
(0 -0.0304249 0)
(0 -0.0304445 0)
(0 -0.0304122 0)
(0 -0.0305705 0)
(0 -0.0305681 0)
(0 -0.0304329 0)
(0 -0.0303977 0)
(0 -0.0305774 0)
(0 -0.0305785 0)
(0 -0.0305556 0)
(0 -0.0305563 0)
(0 -0.0305461 0)
(0 -0.0305066 0)
(0 -0.0305833 0)
(0 -0.030583 0)
(0 -0.0304189 0)
(0 -0.0303808 0)
(0 -0.0303573 0)
(0 -0.0303375 0)
(0 -0.0303114 0)
(0 -0.0304801 0)
(0 -0.030585 0)
(0 -0.0304027 0)
(0 -0.0305841 0)
(0 -0.0304385 0)
(0 -0.0302879 0)
(0 -0.0302593 0)
(0 -0.030422 0)
(0 -0.0304555 0)
(0 -0.0304389 0)
(0 -0.0216756 0)
(0 -0.03047 0)
(0 -0.0304537 0)
(0 -0.0304831 0)
(0 -0.030231 0)
(0 -0.0302002 0)
(0 -0.0208806 0)
(0 -0.0215056 0)
(0 -0.0304668 0)
(0 -0.0304941 0)
(0 -0.0305084 0)
(0 -0.0206981 0)
(0 -0.0213334 0)
(0 -0.0220999 0)
(0 -0.0219314 0)
(0 -0.0211535 0)
(0 -0.0217556 0)
(0 -0.0209654 0)
(0 -0.0215669 0)
(0 -0.0207633 0)
(0 -0.0213648 0)
(0 -0.0205439 0)
(0 -0.0211507 0)
(0 -0.0304362 0)
(0 -0.0304778 0)
(0 -0.0305037 0)
(0 -0.0304866 0)
(0 -0.0305115 0)
(0 -0.0226562 0)
(0 -0.030494 0)
(0 -0.0305172 0)
(0 -0.0203103 0)
(0 -0.0209226 0)
(0 -0.0304998 0)
(0 -0.0305221 0)
(0 -0.0305041 0)
(0 -0.030525 0)
(0 -0.030481 0)
(0 -0.0219278 0)
(0 -0.0200615 0)
(0 -0.0206816 0)
(0 -0.0301681 0)
(0 -0.030134 0)
(0 -0.0305061 0)
(0 -0.030526 0)
(0 -0.0227801 0)
(0 -0.0234333 0)
(0 -0.0228014 0)
(0 -0.0234227 0)
(0 -0.0228228 0)
(0 -0.0234288 0)
(0 -0.0228181 0)
(0 -0.0197976 0)
(0 -0.0204251 0)
(0 -0.0195192 0)
(0 -0.0201536 0)
(0 -0.0210098 0)
(0 -0.020745 0)
(0 -0.0198707 0)
(0 -0.0204691 0)
(0 -0.0195744 0)
(0 -0.0201811 0)
(0 -0.019268 0)
(0 -0.0198957 0)
(0 -0.0234482 0)
(0 -0.0227805 0)
(0 -0.018955 0)
(0 -0.0195769 0)
(0 -0.0305326 0)
(0 -0.0305072 0)
(0 -0.030529 0)
(0 -0.018616 0)
(0 -0.0192216 0)
(0 -0.0300991 0)
(0 -0.0300597 0)
(0 -0.0300951 0)
(0 -0.030018 0)
(0 -0.03005 0)
(0 -0.0299721 0)
(0 -0.0300059 0)
(0 -0.0299219 0)
(0 -0.0299609 0)
(0 -0.023415 0)
(0 -0.0227303 0)
(0 -0.0221362 0)
(0 -0.0182458 0)
(0 -0.0188591 0)
(0 -0.0212784 0)
(0 -0.0197934 0)
(0 -0.0194364 0)
(0 -0.0184886 0)
(0 -0.0190701 0)
(0 -0.0181053 0)
(0 -0.0186855 0)
(0 -0.0196138 0)
(0 -0.0192274 0)
(0 -0.0182771 0)
(0 -0.0188192 0)
(0 -0.0178427 0)
(0 -0.0183729 0)
(0 -0.0173856 0)
(0 -0.0179005 0)
(0 -0.0188231 0)
(0 -0.0183612 0)
(0 -0.0174166 0)
(0 -0.0178821 0)
(0 -0.018766 0)
(0 -0.0183107 0)
(0 -0.0190581 0)
(0 -0.0188539 0)
(0 -0.0178053 0)
(0 -0.0181804 0)
(0 -0.0191368 0)
(0 -0.0184884 0)
(0 -0.0175657 0)
(0 -0.0178731 0)
(0 -0.0187816 0)
(0 -0.018138 0)
(0 -0.0190042 0)
(0 -0.0183458 0)
(0 -0.017496 0)
(0 -0.0191717 0)
(0 -0.0185087 0)
(0 -0.0193081 0)
(0 -0.0186129 0)
(0 -0.019406 0)
(0 -0.0186885 0)
(0 -0.0194639 0)
(0 -0.0187387 0)
(0 -0.0194791 0)
(0 -0.0179484 0)
(0 -0.0187381 0)
(0 -0.0194545 0)
(0 -0.0187072 0)
(0 -0.0194071 0)
(0 -0.0185931 0)
(0 -0.0192976 0)
(0 -0.0184142 0)
(0 -0.0191282 0)
(0 -0.0176387 0)
(0 -0.0298666 0)
(0 -0.0299054 0)
(0 -0.0305066 0)
(0 -0.0305251 0)
(0 -0.0233585 0)
(0 -0.0226518 0)
(0 -0.0240681 0)
(0 -0.0200773 0)
(0 -0.0232743 0)
(0 -0.0225492 0)
(0 -0.0231726 0)
(0 -0.0224327 0)
(0 -0.0217706 0)
(0 -0.0216336 0)
(0 -0.0223173 0)
(0 -0.0215025 0)
(0 -0.0300208 0)
(0 -0.0300676 0)
(0 -0.018215 0)
(0 -0.020127 0)
(0 -0.0199117 0)
(0 -0.0305038 0)
(0 -0.0305224 0)
(0 -0.0222013 0)
(0 -0.0298059 0)
(0 -0.0298439 0)
(0 -0.0207676 0)
(0 -0.0206308 0)
(0 -0.0305422 0)
(0 -0.0305375 0)
(0 -0.0305187 0)
(0 -0.0305341 0)
(0 -0.0305519 0)
(0 -0.0305472 0)
(0 -0.0305306 0)
(0 -0.0305434 0)
(0 -0.0305591 0)
(0 -0.030554 0)
(0 -0.0305385 0)
(0 -0.0305498 0)
(0 -0.0305649 0)
(0 -0.0305592 0)
(0 -0.0305434 0)
(0 -0.0305528 0)
(0 -0.030542 0)
(0 -0.0305675 0)
(0 -0.0305616 0)
(0 -0.0305454 0)
(0 -0.0305544 0)
(0 -0.0305365 0)
(0 -0.0305458 0)
(0 -0.0305625 0)
(0 -0.0304828 0)
(0 -0.0299758 0)
(0 -0.02983 0)
(0 -0.0300136 0)
(0 -0.0297399 0)
(0 -0.029779 0)
(0 -0.0298787 0)
(0 -0.0298145 0)
(0 -0.0299098 0)
(0 -0.0298468 0)
(0 -0.0299377 0)
(0 -0.029876 0)
(0 -0.0299628 0)
(0 -0.0299024 0)
(0 -0.0299862 0)
(0 -0.0299268 0)
(0 -0.0300084 0)
(0 -0.0299479 0)
(0 -0.0300247 0)
(0 -0.0299653 0)
(0 -0.0300378 0)
(0 -0.0299808 0)
(0 -0.0300518 0)
(0 -0.0299952 0)
(0 -0.0300656 0)
(0 -0.0300109 0)
(0 -0.0300787 0)
(0 -0.0300204 0)
(0 -0.0300878 0)
(0 -0.0300273 0)
(0 -0.0300953 0)
(0 -0.0300391 0)
(0 -0.0301033 0)
(0 -0.0300483 0)
(0 -0.0301103 0)
(0 -0.0300554 0)
(0 -0.0301163 0)
(0 -0.0301665 0)
(0 -0.0301715 0)
(0 -0.030122 0)
(0 -0.0301757 0)
(0 -0.030127 0)
(0 -0.0301794 0)
(0 -0.0301317 0)
(0 -0.0301832 0)
(0 -0.0301352 0)
(0 -0.030187 0)
(0 -0.030137 0)
(0 -0.0301886 0)
(0 -0.0188445 0)
(0 -0.0301384 0)
(0 -0.0301892 0)
(0 -0.0302333 0)
(0 -0.0302339 0)
(0 -0.0301901 0)
(0 -0.0302337 0)
(0 -0.0198256 0)
(0 -0.0196648 0)
(0 -0.029709 0)
(0 -0.0302218 0)
(0 -0.0301906 0)
(0 -0.0302326 0)
(0 -0.0182836 0)
(0 -0.0298906 0)
(0 -0.0305353 0)
(0 -0.0302709 0)
(0 -0.0301903 0)
(0 -0.0302335 0)
(0 -0.0238547 0)
(0 -0.0301301 0)
(0 -0.0299233 0)
(0 -0.0299648 0)
(0 -0.0301897 0)
(0 -0.0302348 0)
(0 -0.0302774 0)
(0 -0.0302746 0)
(0 -0.0302342 0)
(0 -0.0302758 0)
(0 -0.0302334 0)
(0 -0.030275 0)
(0 -0.0302316 0)
(0 -0.0302729 0)
(0 -0.0303164 0)
(0 -0.0302289 0)
(0 -0.0302703 0)
(0 -0.0303106 0)
(0 -0.0303079 0)
(0 -0.0302676 0)
(0 -0.0303051 0)
(0 -0.0302643 0)
(0 -0.0303024 0)
(0 -0.0302602 0)
(0 -0.0302984 0)
(0 -0.0302552 0)
(0 -0.0302929 0)
(0 -0.0302492 0)
(0 -0.0168219 0)
(0 -0.0304981 0)
(0 -0.0298111 0)
(0 -0.0188107 0)
(0 -0.0186379 0)
(0 -0.0300749 0)
(0 -0.0282628 0)
(0 -0.0272403 0)
(0 -0.0271485 0)
(0 -0.0268598 0)
(0 -0.030343 0)
(0 -0.0200286 0)
(0 -0.0302205 0)
(0 -0.0287095 0)
(0 -0.0292078 0)
(0 -0.0290035 0)
(0 -0.0299303 0)
(0 -0.0299649 0)
(0 -0.02726 0)
(0 -0.0201188 0)
(0 -0.0288346 0)
(0 -0.0298634 0)
(0 -0.0299041 0)
(0 -0.0303446 0)
(0 -0.0194854 0)
(0 -0.0184417 0)
(0 -0.0300912 0)
(0 -0.0267498 0)
(0 -0.026441 0)
(0 -0.0189702 0)
(0 -0.0178895 0)
(0 -0.0180434 0)
(0 -0.0297945 0)
(0 -0.029758 0)
(0 -0.0301406 0)
(0 -0.0300827 0)
(0 -0.0298316 0)
(0 -0.0299408 0)
(0 -0.0300424 0)
(0 -0.016886 0)
(0 -0.0170355 0)
(0 -0.0279429 0)
(0 -0.0283719 0)
(0 -0.0280996 0)
(0 -0.0282876 0)
(0 -0.0280081 0)
(0 -0.0282016 0)
(0 -0.0279072 0)
(0 -0.0281115 0)
(0 -0.0277935 0)
(0 -0.0275761 0)
(0 -0.0297168 0)
(0 -0.0305821 0)
(0 -0.0192743 0)
(0 -0.0182255 0)
(0 -0.0301838 0)
(0 -0.026314 0)
(0 -0.0259843 0)
(0 -0.0266207 0)
(0 -0.0300547 0)
(0 -0.0306143 0)
(0 -0.0306136 0)
(0 -0.0306144 0)
(0 -0.0306138 0)
(0 -0.0306145 0)
(0 -0.0306139 0)
(0 -0.0306146 0)
(0 -0.030614 0)
(0 -0.0306147 0)
(0 -0.0306141 0)
(0 -0.0306133 0)
(0 -0.0306135 0)
(0 -0.0306143 0)
(0 -0.0306136 0)
(0 -0.0306144 0)
(0 -0.0306138 0)
(0 -0.0306145 0)
(0 -0.0306139 0)
(0 -0.0306146 0)
(0 -0.030614 0)
(0 -0.0306146 0)
(0 -0.0306141 0)
(0 -0.0306147 0)
(0 -0.0306142 0)
(0 -0.0306135 0)
(0 -0.0306136 0)
(0 -0.0306143 0)
(0 -0.0306137 0)
(0 -0.0306144 0)
(0 -0.0306138 0)
(0 -0.0306145 0)
(0 -0.0306139 0)
(0 -0.0306131 0)
(0 -0.0306133 0)
(0 -0.0306141 0)
(0 -0.0306134 0)
(0 -0.0306142 0)
(0 -0.0306136 0)
(0 -0.0306143 0)
(0 -0.0306137 0)
(0 -0.0306144 0)
(0 -0.0306138 0)
(0 -0.0306145 0)
(0 -0.0306139 0)
(0 -0.0306131 0)
(0 -0.0306133 0)
(0 -0.0306141 0)
(0 -0.0306134 0)
(0 -0.0306141 0)
(0 -0.0306135 0)
(0 -0.0306142 0)
(0 -0.0306137 0)
(0 -0.0306144 0)
(0 -0.0306138 0)
(0 -0.0306144 0)
(0 -0.0306139 0)
(0 -0.0306131 0)
(0 -0.0306133 0)
(0 -0.030614 0)
(0 -0.0306134 0)
(0 -0.0306142 0)
(0 -0.0306136 0)
(0 -0.0306142 0)
(0 -0.0306137 0)
(0 -0.0306128 0)
(0 -0.0306143 0)
(0 -0.0306138 0)
(0 -0.0306145 0)
(0 -0.0306139 0)
(0 -0.0306146 0)
(0 -0.0306141 0)
(0 -0.0306133 0)
(0 -0.0306134 0)
(0 -0.0306141 0)
(0 -0.0306136 0)
(0 -0.0306127 0)
(0 -0.0306129 0)
(0 -0.0306139 0)
(0 -0.0306131 0)
(0 -0.0306139 0)
(0 -0.0306132 0)
(0 -0.0306141 0)
(0 -0.0306134 0)
(0 -0.0306142 0)
(0 -0.0306136 0)
(0 -0.0306126 0)
(0 -0.0306128 0)
(0 -0.0306137 0)
(0 -0.030613 0)
(0 -0.0306138 0)
(0 -0.0306132 0)
(0 -0.0306121 0)
(0 -0.0306124 0)
(0 -0.0306133 0)
(0 -0.0306126 0)
(0 -0.0306135 0)
(0 -0.0306128 0)
(0 -0.0306114 0)
(0 -0.0306137 0)
(0 -0.030613 0)
(0 -0.0306138 0)
(0 -0.0306132 0)
(0 -0.030614 0)
(0 -0.0306134 0)
(0 -0.0306124 0)
(0 -0.0306126 0)
(0 -0.0306135 0)
(0 -0.0306128 0)
(0 -0.0306137 0)
(0 -0.030613 0)
(0 -0.0306119 0)
(0 -0.0306122 0)
(0 -0.0306132 0)
(0 -0.0306124 0)
(0 -0.0306134 0)
(0 -0.0306127 0)
(0 -0.0306136 0)
(0 -0.0306129 0)
(0 -0.0306137 0)
(0 -0.030613 0)
(0 -0.0306119 0)
(0 -0.0306122 0)
(0 -0.0306132 0)
(0 -0.0306125 0)
(0 -0.0306113 0)
(0 -0.0306115 0)
(0 -0.0306127 0)
(0 -0.0306118 0)
(0 -0.0306104 0)
(0 -0.0306108 0)
(0 -0.0306121 0)
(0 -0.0306111 0)
(0 -0.0306124 0)
(0 -0.0306115 0)
(0 -0.0306129 0)
(0 -0.0306118 0)
(0 -0.030613 0)
(0 -0.030612 0)
(0 -0.0306106 0)
(0 -0.030611 0)
(0 -0.0306123 0)
(0 -0.0306113 0)
(0 -0.0306097 0)
(0 -0.0306101 0)
(0 -0.0306116 0)
(0 -0.0306105 0)
(0 -0.0306119 0)
(0 -0.0306108 0)
(0 -0.0306091 0)
(0 -0.0306096 0)
(0 -0.0306112 0)
(0 -0.03061 0)
(0 -0.0306116 0)
(0 -0.0306104 0)
(0 -0.0306085 0)
(0 -0.030609 0)
(0 -0.0306108 0)
(0 -0.0306094 0)
(0 -0.0306112 0)
(0 -0.0306099 0)
(0 -0.0306078 0)
(0 -0.0306083 0)
(0 -0.0306103 0)
(0 -0.0306088 0)
(0 -0.0306065 0)
(0 -0.0306071 0)
(0 -0.0306093 0)
(0 -0.0306076 0)
(0 -0.0306097 0)
(0 -0.0306081 0)
(0 -0.0306056 0)
(0 -0.0306061 0)
(0 -0.0306088 0)
(0 -0.0306066 0)
(0 -0.0306109 0)
(0 -0.0306037 0)
(0 -0.0306043 0)
(0 -0.0306076 0)
(0 -0.030605 0)
(0 -0.0306091 0)
(0 -0.0306118 0)
(0 -0.0306014 0)
(0 -0.0306021 0)
(0 -0.0306056 0)
(0 -0.0306027 0)
(0 -0.0306062 0)
(0 -0.0306033 0)
(0 -0.0306127 0)
(0 -0.0306123 0)
(0 -0.0306067 0)
(0 -0.0306038 0)
(0 -0.0305998 0)
(0 -0.0305978 0)
(0 -0.0306003 0)
(0 -0.0306043 0)
(0 -0.0306123 0)
(0 -0.0306128 0)
(0 -0.0306135 0)
(0 -0.0305955 0)
(0 -0.0306125 0)
(0 -0.0306144 0)
(0 -0.0306007 0)
(0 -0.0306047 0)
(0 -0.0306142 0)
(0 -0.0306146 0)
(0 -0.0306089 0)
(0 -0.0306148 0)
(0 -0.0306148 0)
(0 -0.0306148 0)
(0 -0.030601 0)
(0 -0.0306049 0)
(0 -0.030615 0)
(0 -0.030615 0)
(0 -0.0306078 0)
(0 -0.030608 0)
(0 -0.030605 0)
(0 -0.030608 0)
(0 -0.030605 0)
(0 -0.030608 0)
(0 -0.0306047 0)
(0 -0.0306077 0)
(0 -0.0306009 0)
(0 -0.030615 0)
(0 -0.030615 0)
(0 -0.0297523 0)
(0 -0.0274466 0)
(0 -0.0276644 0)
(0 -0.0173335 0)
(0 -0.0171097 0)
(0 -0.0161488 0)
(0 -0.0159176 0)
(0 -0.0261119 0)
(0 -0.0256315 0)
(0 -0.0257587 0)
(0 -0.0252529 0)
(0 -0.025377 0)
(0 -0.0248492 0)
(0 -0.0249694 0)
(0 -0.0247067 0)
(0 -0.0242791 0)
(0 -0.0273 0)
(0 -0.0275184 0)
(0 -0.0296281 0)
(0 -0.030613 0)
(0 -0.030604 0)
(0 -0.0306069 0)
(0 -0.0272145 0)
(0 -0.0306102 0)
(0 -0.0157838 0)
(0 -0.0159112 0)
(0 -0.0241102 0)
(0 -0.026168 0)
(0 -0.0264723 0)
(0 -0.0190456 0)
(0 -0.0296619 0)
(0 -0.0148689 0)
(0 -0.0146501 0)
(0 -0.030258 0)
(0 -0.023657 0)
(0 -0.0295273 0)
(0 -0.0294908 0)
(0 -0.0271361 0)
(0 -0.0273558 0)
(0 -0.0302834 0)
(0 -0.0278902 0)
(0 -0.0306027 0)
(0 -0.0306057 0)
(0 -0.0259982 0)
(0 -0.0306105 0)
(0 -0.0286076 0)
(0 -0.015675 0)
(0 -0.0144172 0)
(0 -0.0133241 0)
(0 -0.0131055 0)
(0 -0.0145733 0)
(0 -0.0146722 0)
(0 -0.0160014 0)
(0 -0.0147409 0)
(0 -0.0159928 0)
(0 -0.0147809 0)
(0 -0.0159917 0)
(0 -0.0148443 0)
(0 -0.016063 0)
(0 -0.0148667 0)
(0 -0.0161073 0)
(0 -0.0148389 0)
(0 -0.0161251 0)
(0 -0.0269555 0)
(0 -0.0277224 0)
(0 -0.0275574 0)
(0 -0.0240841 0)
(0 -0.0141675 0)
(0 -0.012865 0)
(0 -0.0189335 0)
(0 -0.0306009 0)
(0 -0.0306039 0)
(0 -0.030608 0)
(0 -0.0306062 0)
(0 -0.0306096 0)
(0 -0.0306079 0)
(0 -0.0306038 0)
(0 -0.0306056 0)
(0 -0.0306092 0)
(0 -0.0306069 0)
(0 -0.0306101 0)
(0 -0.0306079 0)
(0 -0.0306108 0)
(0 -0.0306084 0)
(0 -0.0306112 0)
(0 -0.0306089 0)
(0 -0.0306115 0)
(0 -0.0306093 0)
(0 -0.0306116 0)
(0 -0.0306094 0)
(0 -0.0306117 0)
(0 -0.0306095 0)
(0 -0.0306117 0)
(0 -0.0306094 0)
(0 -0.0306115 0)
(0 -0.0306088 0)
(0 -0.0306114 0)
(0 -0.0234618 0)
(0 -0.0305973 0)
(0 -0.0293792 0)
(0 -0.0293373 0)
(0 -0.0138934 0)
(0 -0.0125988 0)
(0 -0.0136136 0)
(0 -0.0123517 0)
(0 -0.0134696 0)
(0 -0.0118655 0)
(0 -0.0129369 0)
(0 -0.0116922 0)
(0 -0.0125817 0)
(0 -0.0113324 0)
(0 -0.012184 0)
(0 -0.0107898 0)
(0 -0.0117676 0)
(0 -0.010565 0)
(0 -0.0113627 0)
(0 -0.0101707 0)
(0 -0.0109208 0)
(0 -0.00974292 0)
(0 -0.0104848 0)
(0 -0.00931554 0)
(0 -0.0102077 0)
(0 -0.00884925 0)
(0 -0.00950955 0)
(0 -0.00832254 0)
(0 -0.00888459 0)
(0 -0.0100469 0)
(0 -0.00937086 0)
(0 -0.0082748 0)
(0 -0.0086847 0)
(0 -0.00764572 0)
(0 -0.00975645 0)
(0 -0.0090067 0)
(0 -0.0100421 0)
(0 -0.00924197 0)
(0 -0.0102513 0)
(0 -0.00940425 0)
(0 -0.0103942 0)
(0 -0.0094942 0)
(0 -0.0104724 0)
(0 -0.00841617 0)
(0 -0.0095105 0)
(0 -0.0104829 0)
(0 -0.00945869 0)
(0 -0.0104258 0)
(0 -0.011073 0)
(0 -0.0115756 0)
(0 -0.00933591 0)
(0 -0.0103013 0)
(0 -0.0114488 0)
(0 -0.00848666 0)
(0 -0.0306066 0)
(0 -0.00914874 0)
(0 -0.0101158 0)
(0 -0.0112479 0)
(0 -0.0110408 0)
(0 -0.00987449 0)
(0 -0.0107852 0)
(0 -0.0306041 0)
(0 -0.00935197 0)
(0 -0.0295597 0)
(0 -0.0296916 0)
(0 -0.0229842 0)
(0 -0.02318 0)
(0 -0.0119329 0)
(0 -0.0306132 0)
(0 -0.030613 0)
(0 -0.0306112 0)
(0 -0.0306128 0)
(0 -0.0263073 0)
(0 -0.0254773 0)
(0 -0.0250653 0)
(0 -0.0255534 0)
(0 -0.0251377 0)
(0 -0.0256106 0)
(0 -0.0251891 0)
(0 -0.024697 0)
(0 -0.0247404 0)
(0 -0.0252186 0)
(0 -0.0247625 0)
(0 -0.025225 0)
(0 -0.0247628 0)
(0 -0.0242807 0)
(0 -0.0242705 0)
(0 -0.0247413 0)
(0 -0.0242417 0)
(0 -0.0246961 0)
(0 -0.024197 0)
(0 -0.0246314 0)
(0 -0.0241257 0)
(0 -0.0245464 0)
(0 -0.0240233 0)
(0 -0.0244355 0)
(0 -0.0238943 0)
(0 -0.0243007 0)
(0 -0.023746 0)
(0 -0.0241433 0)
(0 -0.0235717 0)
(0 -0.0239632 0)
(0 -0.0233726 0)
(0 -0.0237615 0)
(0 -0.0234655 0)
(0 -0.0243328 0)
(0 -0.024127 0)
(0 -0.0246782 0)
(0 -0.0244676 0)
(0 -0.0237565 0)
(0 -0.0238984 0)
(0 -0.0242348 0)
(0 -0.0247847 0)
(0 -0.0245477 0)
(0 -0.0239842 0)
(0 -0.0242976 0)
(0 -0.023717 0)
(0 -0.0240296 0)
(0 -0.0245935 0)
(0 -0.0243267 0)
(0 -0.0248739 0)
(0 -0.0246063 0)
(0 -0.0251348 0)
(0 -0.0248688 0)
(0 -0.0253777 0)
(0 -0.0251118 0)
(0 -0.0256005 0)
(0 -0.0253385 0)
(0 -0.0258078 0)
(0 -0.0255475 0)
(0 -0.0259975 0)
(0 -0.0257009 0)
(0 -0.0261827 0)
(0 -0.0259479 0)
(0 -0.0263623 0)
(0 -0.0261136 0)
(0 -0.0257254 0)
(0 -0.0258681 0)
(0 -0.0262737 0)
(0 -0.0260157 0)
(0 -0.0264364 0)
(0 -0.0261794 0)
(0 -0.0265859 0)
(0 -0.0263261 0)
(0 -0.0266913 0)
(0 -0.0264531 0)
(0 -0.0267979 0)
(0 -0.0265684 0)
(0 -0.0269198 0)
(0 -0.0266734 0)
(0 -0.0270471 0)
(0 -0.0267926 0)
(0 -0.0271562 0)
(0 -0.0269138 0)
(0 -0.0272524 0)
(0 -0.0270147 0)
(0 -0.0273398 0)
(0 -0.0271044 0)
(0 -0.0274214 0)
(0 -0.0271877 0)
(0 -0.0268519 0)
(0 -0.0269353 0)
(0 -0.0272694 0)
(0 -0.0270191 0)
(0 -0.0273448 0)
(0 -0.0265838 0)
(0 -0.0262765 0)
(0 -0.0255496 0)
(0 -0.024327 0)
(0 -0.0250861 0)
(0 -0.0272795 0)
(0 -0.0269935 0)
(0 -0.0275551 0)
(0 -0.011298 0)
(0 -0.0306118 0)
(0 -0.00959196 0)
(0 -0.0105459 0)
(0 -0.0306132 0)
(0 -0.0306109 0)
(0 -0.0306125 0)
(0 -0.01344 0)
(0 -0.028376 0)
(0 -0.00811793 0)
(0 -0.0104769 0)
(0 -0.013331 0)
(0 -0.022963 0)
(0 -0.0227433 0)
(0 -0.0295872 0)
(0 -0.029716 0)
(0 -0.0258158 0)
(0 -0.0267495 0)
(0 -0.0306067 0)
(0 -0.0119948 0)
(0 -0.0234289 0)
(0 -0.0306103 0)
(0 -0.0260581 0)
(0 -0.0279065 0)
(0 -0.0254789 0)
(0 -0.0144611 0)
(0 -0.00925175 0)
(0 -0.0102499 0)
(0 -0.0267176 0)
(0 -0.0305762 0)
(0 -0.0265179 0)
(0 -0.0200382 0)
(0 -0.0197922 0)
(0 -0.0250506 0)
(0 -0.0277406 0)
(0 -0.00883462 0)
(0 -0.00981856 0)
(0 -0.0265935 0)
(0 -0.0111608 0)
(0 -0.0107572 0)
(0 -0.0305948 0)
(0 -0.0252764 0)
(0 -0.0249105 0)
(0 -0.0256493 0)
(0 -0.0304841 0)
(0 -0.0172101 0)
(0 -0.0305904 0)
(0 -0.0284077 0)
(0 -0.0306134 0)
(0 -0.0297137 0)
(0 -0.0299644 0)
(0 -0.025387 0)
(0 -0.0300669 0)
(0 -0.0306144 0)
(0 -0.0292151 0)
(0 -0.0291678 0)
(0 -0.0292879 0)
(0 -0.0291133 0)
(0 -0.0292304 0)
(0 -0.0290505 0)
(0 -0.0291667 0)
(0 -0.0306082 0)
(0 -0.00935565 0)
(0 -0.0103628 0)
(0 -0.0224828 0)
(0 -0.0226769 0)
(0 -0.0306142 0)
(0 -0.0299958 0)
(0 -0.0306152 0)
(0 -0.0279514 0)
(0 -0.0280661 0)
(0 -0.02822 0)
(0 -0.0283244 0)
(0 -0.0284651 0)
(0 -0.0285622 0)
(0 -0.0286895 0)
(0 -0.0287778 0)
(0 -0.0288918 0)
(0 -0.0289713 0)
(0 -0.0288596 0)
(0 -0.0290482 0)
(0 -0.0289331 0)
(0 -0.0291115 0)
(0 -0.0289985 0)
(0 -0.0291711 0)
(0 -0.0290583 0)
(0 -0.0292235 0)
(0 -0.0288056 0)
(0 -0.0289979 0)
(0 -0.0289175 0)
(0 -0.0290972 0)