/*--------------------------------*- C++ -*----------------------------------*\
| =========                 |                                                 |
| \\      /  F ield         | OpenFOAM: The Open Source CFD Toolbox           |
|  \\    /   O peration     | Version:  v2012                                 |
|   \\  /    A nd           | Website:  www.openfoam.com                      |
|    \\/     M anipulation  |                                                 |
\*---------------------------------------------------------------------------*/
FoamFile
{
    version     2.0;
    format      ascii;
    class       pointVectorField;
    location    "150";
    object      pointDisplacement;
}
// * * * * * * * * * * * * * * * * * * * * * * * * * * * * * * * * * * * * * //

dimensions      [0 1 0 0 0 0 0];


internalField   nonuniform List<vector> 
14332
(
(0 0 0)
(-0 -0.08 -0)
(0 0 0)
(-0 -0.08 -0)
(0 0 0)
(0 0 0)
(0 0 0)
(0 0 0)
(0 0 0)
(0 0 0)
(0 0 0)
(0 0 0)
(0 0 0)
(0 0 0)
(0 0 0)
(0 0 0)
(0 0 0)
(0 0 0)
(0 0 0)
(0 0 0)
(0 0 0)
(0 0 0)
(0 0 0)
(0 0 0)
(0 0 0)
(0 0 0)
(0 0 0)
(0 0 0)
(0 0 0)
(0 0 0)
(0 0 0)
(0 0 0)
(0 0 0)
(0 0 0)
(0 0 0)
(0 0 0)
(0 0 0)
(0 0 0)
(0 0 0)
(0 0 0)
(0 0 0)
(0 0 0)
(0 0 0)
(0 0 0)
(0 0 0)
(0 0 0)
(0 0 0)
(0 0 0)
(0 0 0)
(0 0 0)
(0 0 0)
(0 0 0)
(0 0 0)
(0 0 0)
(0 0 0)
(0 0 0)
(0 0 0)
(0 0 0)
(0 0 0)
(0 0 0)
(0 0 0)
(0 0 0)
(0 0 0)
(0 0 0)
(0 0 0)
(0 0 0)
(0 0 0)
(0 0 0)
(0 0 0)
(0 0 0)
(0 0 0)
(0 0 0)
(0 0 0)
(0 0 0)
(0 0 0)
(0 0 0)
(0 0 0)
(0 0 0)
(0 0 0)
(0 0 0)
(0 0 0)
(0 0 0)
(0 0 0)
(0 0 0)
(0 0 0)
(0 0 0)
(0 0 0)
(0 0 0)
(0 0 0)
(0 0 0)
(0 0 0)
(0 0 0)
(0 0 0)
(0 0 0)
(0 0 0)
(0 0 0)
(0 0 0)
(0 0 0)
(0 0 0)
(0 0 0)
(0 0 0)
(0 0 0)
(0 0 0)
(0 0 0)
(0 0 0)
(0 0 0)
(0 0 0)
(0 0 0)
(0 0 0)
(0 0 0)
(0 0 0)
(0 0 0)
(0 0 0)
(0 0 0)
(0 0 0)
(0 0 0)
(0 0 0)
(0 0 0)
(0 0 0)
(0 0 0)
(0 0 0)
(0 0 0)
(0 0 0)
(0 0 0)
(0 0 0)
(0 0 0)
(0 0 0)
(0 0 0)
(0 0 0)
(0 0 0)
(0 0 0)
(0 0 0)
(0 0 0)
(0 0 0)
(-0 -0.08 -0)
(-0 -0.08 -0)
(-0 -0.08 -0)
(-0 -0.08 -0)
(-0 -0.08 -0)
(-0 -0.08 -0)
(-0 -0.08 -0)
(-0 -0.08 -0)
(-0 -0.08 -0)
(-0 -0.08 -0)
(-0 -0.08 -0)
(-0 -0.08 -0)
(-0 -0.08 -0)
(-0 -0.08 -0)
(-0 -0.08 -0)
(-0 -0.08 -0)
(-0 -0.08 -0)
(-0 -0.08 -0)
(-0 -0.08 -0)
(-0 -0.08 -0)
(-0 -0.08 -0)
(-0 -0.08 -0)
(-0 -0.08 -0)
(-0 -0.08 -0)
(-0 -0.08 -0)
(-0 -0.08 -0)
(-0 -0.08 -0)
(-0 -0.08 -0)
(-0 -0.08 -0)
(-0 -0.08 -0)
(-0 -0.08 -0)
(-0 -0.08 -0)
(-0 -0.08 -0)
(-0 -0.08 -0)
(-0 -0.08 -0)
(-0 -0.08 -0)
(-0 -0.08 -0)
(-0 -0.08 -0)
(-0 -0.08 -0)
(-0 -0.08 -0)
(-0 -0.08 -0)
(-0 -0.08 -0)
(-0 -0.08 -0)
(-0 -0.08 -0)
(-0 -0.08 -0)
(0 0 0)
(0 0 0)
(0 0 0)
(0 0 0)
(0 0 0)
(0 0 0)
(0 0 0)
(0 0 0)
(0 0 0)
(0 0 0)
(0 0 0)
(0 0 0)
(0 0 0)
(0 0 0)
(0 0 0)
(0 0 0)
(0 0 0)
(0 0 0)
(0 0 0)
(0 0 0)
(0 0 0)
(0 0 0)
(0 0 0)
(0 0 0)
(0 0 0)
(0 0 0)
(0 0 0)
(0 0 0)
(0 0 0)
(0 0 0)
(0 0 0)
(0 0 0)
(0 0 0)
(0 0 0)
(0 0 0)
(0 0 0)
(0 0 0)
(0 0 0)
(0 0 0)
(0 0 0)
(0 0 0)
(0 0 0)
(0 0 0)
(0 0 0)
(0 0 0)
(0 0 0)
(0 0 0)
(0 0 0)
(0 0 0)
(0 0 0)
(0 0 0)
(0 0 0)
(0 0 0)
(0 0 0)
(0 0 0)
(0 0 0)
(0 0 0)
(0 0 0)
(0 0 0)
(0 0 0)
(0 0 0)
(0 0 0)
(0 0 0)
(0 0 0)
(0 0 0)
(0 0 0)
(0 0 0)
(0 0 0)
(0 0 0)
(0 0 0)
(0 0 0)
(0 0 0)
(0 0 0)
(0 0 0)
(0 0 0)
(0 0 0)
(0 0 0)
(0 0 0)
(0 0 0)
(0 0 0)
(0 0 0)
(0 0 0)
(0 0 0)
(0 0 0)
(0 0 0)
(0 0 0)
(0 0 0)
(0 0 0)
(0 0 0)
(0 0 0)
(0 0 0)
(0 0 0)
(0 0 0)
(0 0 0)
(0 0 0)
(0 0 0)
(0 0 0)
(0 0 0)
(0 0 0)
(0 0 0)
(0 0 0)
(0 0 0)
(0 0 0)
(0 0 0)
(0 0 0)
(0 0 0)
(0 0 0)
(0 0 0)
(0 0 0)
(0 0 0)
(0 0 0)
(0 0 0)
(0 0 0)
(0 0 0)
(0 0 0)
(0 0 0)
(0 0 0)
(0 0 0)
(0 0 0)
(0 0 0)
(0 0 0)
(0 0 0)
(0 0 0)
(0 0 0)
(0 0 0)
(0 0 0)
(0 0 0)
(0 0 0)
(0 0 0)
(0 0 0)
(-0 -0.08 -0)
(-0 -0.08 -0)
(-0 -0.08 -0)
(-0 -0.08 -0)
(-0 -0.08 -0)
(-0 -0.08 -0)
(-0 -0.08 -0)
(-0 -0.08 -0)
(-0 -0.08 -0)
(-0 -0.08 -0)
(-0 -0.08 -0)
(-0 -0.08 -0)
(-0 -0.08 -0)
(-0 -0.08 -0)
(-0 -0.08 -0)
(-0 -0.08 -0)
(-0 -0.08 -0)
(-0 -0.08 -0)
(-0 -0.08 -0)
(-0 -0.08 -0)
(-0 -0.08 -0)
(-0 -0.08 -0)
(-0 -0.08 -0)
(-0 -0.08 -0)
(-0 -0.08 -0)
(-0 -0.08 -0)
(-0 -0.08 -0)
(-0 -0.08 -0)
(-0 -0.08 -0)
(-0 -0.08 -0)
(-0 -0.08 -0)
(-0 -0.08 -0)
(-0 -0.08 -0)
(-0 -0.08 -0)
(-0 -0.08 -0)
(-0 -0.08 -0)
(-0 -0.08 -0)
(-0 -0.08 -0)
(-0 -0.08 -0)
(-0 -0.08 -0)
(-0 -0.08 -0)
(-0 -0.08 -0)
(-0 -0.08 -0)
(-0 -0.08 -0)
(-0 -0.08 -0)
(0 -0.0799997 0)
(0 -0.00267309 0)
(0 -0.0799998 0)
(0 -0.0799997 0)
(0 -0.0799998 0)
(0 -0.00307581 0)
(0 -0.0799997 0)
(0 -0.00215897 0)
(0 -0.00133983 0)
(0 -0.000579685 0)
(0 -0.00459827 0)
(0 -0.000951494 0)
(0 -0.00156303 0)
(0 -0.0799997 0)
(0 -0.00437939 0)
(0 -0.000640649 0)
(0 -0.00493208 0)
(0 -0.000639057 0)
(0 -0.00564638 0)
(0 -0.0799997 0)
(0 -0.000561927 0)
(0 -0.000595199 0)
(0 -0.000377159 0)
(0 -0.000368201 0)
(0 -0.000299855 0)
(0 -0.00245758 0)
(0 -0.00102139 0)
(0 -0.0799997 0)
(0 -0.0799998 0)
(0 -0.0799998 0)
(0 -0.000252547 0)
(0 -0.000170402 0)
(0 -0.00427211 0)
(0 -0.00454758 0)
(0 -0.00454256 0)
(0 -0.00570682 0)
(0 -0.00305385 0)
(0 -0.00215831 0)
(0 -0.00138481 0)
(0 -0.000712358 0)
(0 -0.000933749 0)
(0 -0.000570392 0)
(0 -0.000480715 0)
(0 -0.000193868 0)
(0 -0.0799997 0)
(0 -0.0799998 0)
(0 -0.000102229 0)
(0 -9.82037e-05 0)
(0 -0.00630106 0)
(0 -0.00359308 0)
(0 -0.00301001 0)
(0 -0.00261003 0)
(0 -0.0021475 0)
(0 -0.00188802 0)
(0 -0.000842364 0)
(0 -0.00113781 0)
(0 -0.0014678 0)
(0 -0.000307861 0)
(0 -0.00110194 0)
(0 -0.00051763 0)
(0 -0.00034282 0)
(0 -0.000304795 0)
(0 -0.000249263 0)
(0 -0.000452482 0)
(0 -4.93066e-05 0)
(0 -0.0751635 0)
(0 -0.0748982 0)
(0 -0.0752998 0)
(0 -0.0750246 0)
(0 -0.0754161 0)
(0 -0.0751303 0)
(0 -0.0755114 0)
(0 -0.075217 0)
(0 -0.075592 0)
(0 -0.0752841 0)
(0 -0.0756508 0)
(0 -0.0753304 0)
(0 -0.0756899 0)
(0 -0.0753579 0)
(0 -0.075713 0)
(0 -0.0753703 0)
(0 -0.0757161 0)
(0 -0.075375 0)
(0 -0.0756936 0)
(0 -0.0753425 0)
(0 -0.0756501 0)
(0 -0.0752541 0)
(0 -0.0755815 0)
(0 -0.0751511 0)
(0 -0.0754847 0)
(0 -0.075044 0)
(0 -0.075351 0)
(0 -0.0749103 0)
(0 -0.0752236 0)
(0 -0.0747658 0)
(0 -0.075095 0)
(0 -0.074606 0)
(0 -0.0749143 0)
(0 -0.0743997 0)
(0 -0.074691 0)
(0 -0.0740862 0)
(0 -0.0738477 0)
(0 -0.0735258 0)
(0 -0.0237077 0)
(0 -0.022963 0)
(0 -0.0732636 0)
(0 -0.0729285 0)
(0 -0.0231586 0)
(0 -0.022447 0)
(0 -0.0726425 0)
(0 -0.0722924 0)
(0 -0.022637 0)
(0 -0.0219219 0)
(0 -0.0221175 0)
(0 -0.0213946 0)
(0 -0.0719779 0)
(0 -0.0716187 0)
(0 -0.0215596 0)
(0 -0.0208574 0)
(0 -0.071271 0)
(0 -0.0708961 0)
(0 -0.0209846 0)
(0 -0.0203036 0)
(0 -0.0201682 0)
(0 -0.0705125 0)
(0 -0.0701141 0)
(0 -0.0709269 0)
(0 -0.0203998 0)
(0 -0.0197376 0)
(0 -0.0696892 0)
(0 -0.0692759 0)
(0 -0.0198125 0)
(0 -0.020436 0)
(0 -0.0191631 0)
(0 -0.0760022 0)
(0 -0.0752008 0)
(0 -0.0749749 0)
(0 -0.0754695 0)
(0 -0.0752684 0)
(0 -0.0757185 0)
(0 -0.0755099 0)
(0 -0.0759389 0)
(0 -0.0757074 0)
(0 -0.0761413 0)
(0 -0.075907 0)
(0 -0.0763277 0)
(0 -0.0760849 0)
(0 -0.0765011 0)
(0 -0.0762441 0)
(0 -0.0766498 0)
(0 -0.0763906 0)
(0 -0.076776 0)
(0 -0.0765248 0)
(0 -0.0768952 0)
(0 -0.0766419 0)
(0 -0.0769986 0)
(0 -0.0767411 0)
(0 -0.077088 0)
(0 -0.0768271 0)
(0 -0.0764571 0)
(0 -0.0765393 0)
(0 -0.0769076 0)
(0 -0.0766194 0)
(0 -0.0769717 0)
(0 -0.0766764 0)
(0 -0.0770182 0)
(0 -0.0767225 0)
(0 -0.0770611 0)
(0 -0.076742 0)
(0 -0.0770819 0)
(0 -0.0767633 0)
(0 -0.0770852 0)
(0 -0.0768121 0)
(0 -0.0771048 0)
(0 -0.0768291 0)
(0 -0.0771198 0)
(0 -0.07682 0)
(0 -0.0771085 0)
(0 -0.0767986 0)
(0 -0.0770841 0)
(0 -0.0767722 0)
(0 -0.0770618 0)
(0 -0.0767428 0)
(0 -0.0770378 0)
(0 -0.0767095 0)
(0 -0.0770036 0)
(0 -0.0766697 0)
(0 -0.076963 0)
(0 -0.076626 0)
(0 -0.076146 0)
(0 -0.0764868 0)
(0 -0.076386 0)
(0 -0.0767253 0)
(0 -0.019216 0)
(0 -0.0185793 0)
(0 -0.0688086 0)
(0 -0.0683923 0)
(0 -0.0772998 0)
(0 -0.0186087 0)
(0 -0.0179856 0)
(0 -0.0678768 0)
(0 -0.0674605 0)
(0 -0.0179905 0)
(0 -0.0173847 0)
(0 -0.0173662 0)
(0 -0.0669003 0)
(0 -0.0664791 0)
(0 -0.0173618 0)
(0 -0.0167777 0)
(0 -0.0774328 0)
(0 -0.0658848 0)
(0 -0.0654465 0)
(0 -0.0662526 0)
(0 -0.0773254 0)
(0 -0.0167276 0)
(0 -0.0172525 0)
(0 -0.0161673 0)
(0 -0.0648135 0)
(0 -0.0643636 0)
(0 -0.0161004 0)
(0 -0.015555 0)
(0 -0.0154745 0)
(0 -0.0149414 0)
(0 -0.0636894 0)
(0 -0.0632313 0)
(0 -0.0148527 0)
(0 -0.0143276 0)
(0 -0.0144018 0)
(0 -0.0625085 0)
(0 -0.0620377 0)
(0 -0.0138052 0)
(0 -0.0138747 0)
(0 -0.0137135 0)
(0 -0.0612763 0)
(0 -0.0608171 0)
(0 -0.0615179 0)
(0 -0.0603328 0)
(0 -0.0610158 0)
(0 -0.0598369 0)
(0 -0.0605296 0)
(0 -0.05931 0)
(0 -0.0585665 0)
(0 -0.058041 0)
(0 -0.0587499 0)
(0 -0.0575175 0)
(0 -0.0132053 0)
(0 -0.0131036 0)
(0 -0.0567153 0)
(0 -0.0562 0)
(0 -0.0570021 0)
(0 -0.0556746 0)
(0 -0.0750459 0)
(0 -0.0126277 0)
(0 -0.0124987 0)
(0 -0.0564595 0)
(0 -0.0551261 0)
(0 -0.0542944 0)
(0 -0.0537521 0)
(0 -0.054569 0)
(0 -0.0531905 0)
(0 -0.0539861 0)
(0 -0.0526037 0)
(0 -0.05336 0)
(0 -0.0519926 0)
(0 -0.0527229 0)
(0 -0.0513681 0)
(0 -0.0505895 0)
(0 -0.0499783 0)
(0 -0.0688497 0)
(0 -0.0119992 0)
(0 -0.011893 0)
(0 -0.0507364 0)
(0 -0.0493592 0)
(0 -0.0485522 0)
(0 -0.0479441 0)
(0 -0.0487316 0)
(0 -0.0473285 0)
(0 -0.048093 0)
(0 -0.0467035 0)
(0 -0.0114111 0)
(0 -0.0112934 0)
(0 -0.0117987 0)
(0 -0.0458938 0)
(0 -0.0452862 0)
(0 -0.0460711 0)
(0 -0.0446706 0)
(0 -0.0454298 0)
(0 -0.0440428 0)
(0 -0.0447773 0)
(0 -0.0434043 0)
(0 -0.0441138 0)
(0 -0.0427581 0)
(0 -0.0420072 0)
(0 -0.041379 0)
(0 -0.0421088 0)
(0 -0.0407506 0)
(0 -0.0108262 0)
(0 -0.0109795 0)
(0 -0.0106935 0)
(0 -0.0399759 0)
(0 -0.0393694 0)
(0 -0.0401189 0)
(0 -0.0387576 0)
(0 -0.0394791 0)
(0 -0.0381365 0)
(0 -0.0388445 0)
(0 -0.0375092 0)
(0 -0.0367797 0)
(0 -0.0361735 0)
(0 -0.0368703 0)
(0 -0.035561 0)
(0 -0.0362224 0)
(0 -0.0349455 0)
(0 -0.0342384 0)
(0 -0.0336535 0)
(0 -0.0343303 0)
(0 -0.033066 0)
(0 -0.0337063 0)
(0 -0.0324733 0)
(0 -0.0102394 0)
(0 -0.0101004 0)
(0 -0.0317922 0)
(0 -0.0312314 0)
(0 -0.0318822 0)
(0 -0.0306664 0)
(0 -0.0312903 0)
(0 -0.0300979 0)
(0 -0.0306951 0)
(0 -0.0295285 0)
(0 -0.0288983 0)
(0 -0.0283548 0)
(0 -0.0289584 0)
(0 -0.0278087 0)
(0 -0.0283827 0)
(0 -0.0272595 0)
(0 -0.026659 0)
(0 -0.0261371 0)
(0 -0.0759978 0)
(0 -0.0796784 0)
(0 -0.0796226 0)
(0 -0.079654 0)
(0 -0.0795955 0)
(0 -0.079626 0)
(0 -0.0795567 0)
(0 -0.0795939 0)
(0 -0.0795274 0)
(0 -0.07956 0)
(0 -0.0794896 0)
(0 -0.079523 0)
(0 -0.0795901 0)
(0 -0.0795539 0)
(0 -0.0796179 0)
(0 -0.0795781 0)
(0 -0.0796426 0)
(0 -0.079599 0)
(0 -0.0796602 0)
(0 -0.0796161 0)
(0 -0.0796724 0)
(0 -0.0796264 0)
(0 -0.0796822 0)
(0 -0.0796343 0)
(0 -0.0796891 0)
(0 -0.0795737 0)
(0 -0.0794546 0)
(0 -0.0796388 0)
(0 -0.0796922 0)
(0 -0.00967272 0)
(0 -0.00951494 0)
(0 -0.0794504 0)
(0 -0.0540402 0)
(0 -0.0255087 0)
(0 -0.0250146 0)
(0 -0.0617172 0)
(0 -0.027804 0)
(0 -0.0796409 0)
(0 -0.0796917 0)
(0 -0.0444294 0)
(0 -0.0528699 0)
(0 -0.00911484 0)
(0 -0.00893494 0)
(0 -0.00936155 0)
(0 -0.0604289 0)
(0 -0.0608432 0)
(0 -0.0594972 0)
(0 -0.0598915 0)
(0 -0.0584794 0)
(0 -0.0588592 0)
(0 -0.0573718 0)
(0 -0.0577196 0)
(0 -0.05616 0)
(0 -0.0564649 0)
(0 -0.0797296 0)
(0 -0.0796377 0)
(0 -0.079687 0)
(0 -0.0243585 0)
(0 -0.0238928 0)
(0 -0.0758041 0)
(0 -0.0454478 0)
(0 -0.0548247 0)
(0 -0.0551067 0)
(0 -0.0567618 0)
(0 -0.0553716 0)
(0 -0.0570212 0)
(0 -0.0556022 0)
(0 -0.0572509 0)
(0 -0.0558076 0)
(0 -0.0574577 0)
(0 -0.0559875 0)
(0 -0.0576345 0)
(0 -0.0561316 0)
(0 -0.0577784 0)
(0 -0.0562366 0)
(0 -0.0578921 0)
(0 -0.0563123 0)
(0 -0.0579685 0)
(0 -0.0563537 0)
(0 -0.0580087 0)
(0 -0.0563589 0)
(0 -0.058015 0)
(0 -0.0563274 0)
(0 -0.0579862 0)
(0 -0.0562629 0)
(0 -0.0579202 0)
(0 -0.00854259 0)
(0 -0.00874916 0)
(0 -0.00835617 0)
(0 -0.0561686 0)
(0 -0.0578221 0)
(0 -0.0796286 0)
(0 -0.0796779 0)
(0 -0.0795753 0)
(0 -0.0560415 0)
(0 -0.0576904 0)
(0 -0.0232106 0)
(0 -0.022774 0)
(0 -0.0234257 0)
(0 -0.0223343 0)
(0 -0.0558835 0)
(0 -0.0575212 0)
(0 -0.00797934 0)
(0 -0.00778575 0)
(0 -0.0533883 0)
(0 -0.0796169 0)
(0 -0.0796645 0)
(0 -0.0556744 0)
(0 -0.0573109 0)
(0 -0.0593594 0)
(0 -0.0229555 0)
(0 -0.0218891 0)
(0 -0.0212473 0)
(0 -0.020828 0)
(0 -0.0554203 0)
(0 -0.0570687 0)
(0 -0.0797125 0)
(0 -0.0595293 0)
(0 -0.0201665 0)
(0 -0.0197777 0)
(0 -0.0551428 0)
(0 -0.0568014 0)
(0 -0.0586396 0)
(0 -0.0583892 0)
(0 -0.0565113 0)
(0 -0.0581429 0)
(0 -0.0561975 0)
(0 -0.0578391 0)
(0 -0.0558458 0)
(0 -0.057493 0)
(0 -0.0796014 0)
(0 -0.0796478 0)
(0 -0.0797038 0)
(0 -0.0796887 0)
(0 -0.0796281 0)
(0 -0.0796685 0)
(0 -0.0797268 0)
(0 -0.079705 0)
(0 -0.0796436 0)
(0 -0.0796775 0)
(0 -0.0797357 0)
(0 -0.0797083 0)
(0 -0.0797605 0)
(0 -0.0797356 0)
(0 -0.0797827 0)
(0 -0.0797594 0)
(0 -0.0798007 0)
(0 -0.079779 0)
(0 -0.0798168 0)
(0 -0.0797955 0)
(0 -0.0798325 0)
(0 -0.0798096 0)
(0 -0.0798442 0)
(0 -0.0798214 0)
(0 -0.079853 0)
(0 -0.0798313 0)
(0 -0.079861 0)
(0 -0.0798391 0)
(0 -0.079868 0)
(0 -0.0798468 0)
(0 -0.079874 0)
(0 -0.0798541 0)
(0 -0.0798791 0)
(0 -0.0798598 0)
(0 -0.0798837 0)
(0 -0.079865 0)
(0 -0.0798879 0)
(0 -0.0798698 0)
(0 -0.0798918 0)
(0 -0.0798736 0)
(0 -0.0798943 0)
(0 -0.0798769 0)
(0 -0.0798964 0)
(0 -0.0798793 0)
(0 -0.0798985 0)
(0 -0.0798812 0)
(0 -0.0798576 0)
(0 -0.0798398 0)
(0 -0.0797977 0)
(0 -0.0797368 0)
(0 -0.0796134 0)
(0 -0.0799157 0)
(0 -0.0799082 0)
(0 -0.0554552 0)
(0 -0.057082 0)
(0 -0.0594595 0)
(0 -0.0542426 0)
(0 -0.00743232 0)
(0 -0.00723702 0)
(0 -0.055021 0)
(0 -0.0566309 0)
(0 -0.0214253 0)
(0 -0.022917 0)
(0 -0.054552 0)
(0 -0.0561829 0)
(0 -0.0798926 0)
(0 -0.0190937 0)
(0 -0.0187352 0)
(0 -0.00689895 0)
(0 -0.00670183 0)
(0 -0.00700675 0)
(0 -0.0545809 0)
(0 -0.0798266 0)
(0 -0.0797396 0)
(0 -0.00637955 0)
(0 -0.00655069 0)
(0 -0.0180303 0)
(0 -0.0177002 0)
(0 -0.00617764 0)
(0 -0.0544014 0)
(0 -0.0749044 0)
(0 -0.0169776 0)
(0 -0.0166769 0)
(0 -0.0172734 0)
(0 -0.0173655 0)
(0 -0.0163703 0)
(0 -0.0170259 0)
(0 -0.0160575 0)
(0 -0.00587418 0)
(0 -0.00567106 0)
(0 -0.0166811 0)
(0 -0.0157393 0)
(0 -0.0151017 0)
(0 -0.0148105 0)
(0 -0.0531293 0)
(0 -0.0516027 0)
(0 -0.0513709 0)
(0 -0.0497463 0)
(0 -0.0495231 0)
(0 -0.047802 0)
(0 -0.0475881 0)
(0 -0.0536916 0)
(0 -0.071945 0)
(0 -0.0773293 0)
(0 -0.0457958 0)
(0 -0.0455991 0)
(0 -0.0141595 0)
(0 -0.0138954 0)
(0 -0.0145141 0)
(0 -0.0136255 0)
(0 -0.0537694 0)
(0 -0.0053847 0)
(0 -0.00518195 0)
(0 -0.0129949 0)
(0 -0.0127512 0)
(0 -0.0236447 0)
(0 -0.0437449 0)
(0 -0.043567 0)
(0 -0.04392 0)
(0 -0.0162024 0)
(0 -0.0164611 0)
(0 -0.0142138 0)
(0 -0.00491019 0)
(0 -0.00471126 0)
(0 -0.00494042 0)
(0 -0.0121099 0)
(0 -0.0118919 0)
(0 -0.0416243 0)
(0 -0.0414788 0)
(0 -0.0757086 0)
(0 -0.0153726 0)
(0 -0.0155907 0)
(0 -0.00445337 0)
(0 -0.00463904 0)
(0 -0.00424763 0)
(0 -0.0112415 0)
(0 -0.0110488 0)
(0 -0.0647481 0)
(0 -0.0642223 0)
(0 -0.0649996 0)
(0 -0.0644564 0)
(0 -0.0652199 0)
(0 -0.0646634 0)
(0 -0.0655099 0)
(0 -0.0648381 0)
(0 -0.0655986 0)
(0 -0.0649471 0)
(0 -0.0656853 0)
(0 -0.0650247 0)
(0 -0.0642061 0)
(0 -0.0657427 0)
(0 -0.0650669 0)
(0 -0.0657663 0)
(0 -0.0650484 0)
(0 -0.0657507 0)
(0 -0.0664762 0)
(0 -0.0649956 0)
(0 -0.0664508 0)
(0 -0.0671665 0)
(0 -0.0671286 0)
(0 -0.0678329 0)
(0 -0.0394428 0)
(0 -0.0393361 0)
(0 -0.0761431 0)
(0 -0.0798732 0)
(0 -0.0590061 0)
(0 -0.00396884 0)
(0 -0.00380235 0)
(0 -0.0144875 0)
(0 -0.0146641 0)
(0 -0.0103913 0)
(0 -0.0102234 0)
(0 -0.010848 0)
(0 -0.010046 0)
(0 -0.0105499 0)
(0 -0.0106385 0)
(0 -0.00985965 0)
(0 -0.00926261 0)
(0 -0.00909928 0)
(0 -0.0660181 0)
(0 -0.0104207 0)
(0 -0.0791576 0)
(0 -0.0790439 0)
(0 -0.0791441 0)
(0 -0.0677839 0)
(0 -0.0684763 0)
(0 -0.03184 0)
(0 -0.0401702 0)
(0 -0.0153635 0)
(0 -0.0217096 0)
(0 -0.0305136 0)
(0 -0.0670615 0)
(0 -0.0396768 0)
(0 -0.0328478 0)
(0 -0.0296416 0)
(0 -0.0385526 0)
(0 -0.0601447 0)
(0 -0.0372125 0)
(0 -0.0371467 0)
(0 -0.0392018 0)
(0 -0.0370547 0)
(0 -0.0390485 0)
(0 -0.0369383 0)
(0 -0.0388697 0)
(0 -0.0367852 0)
(0 -0.0386625 0)
(0 -0.0366006 0)
(0 -0.0346522 0)
(0 -0.0344998 0)
(0 -0.0364126 0)
(0 -0.0343464 0)
(0 -0.037248 0)
(0 -0.0752173 0)
(0 -0.0349233 0)
(0 -0.064294 0)
(0 -0.0641998 0)
(0 -0.0634808 0)
(0 -0.0633555 0)
(0 -0.0626185 0)
(0 -0.00826223 0)
(0 -0.00884685 0)
(0 -0.00843116 0)
(0 -0.00784988 0)
(0 -0.00800767 0)
(0 -0.00858489 0)
(0 -0.00815042 0)
(0 -0.00757756 0)
(0 -0.00771048 0)
(0 -0.00872221 0)
(0 -0.00714155 0)
(0 -0.00726587 0)
(0 -0.00670062 0)
(0 -0.00681744 0)
(0 -0.00737501 0)
(0 -0.00691897 0)
(0 -0.0065697 0)
(0 -0.00746774 0)
(0 -0.0070044 0)
(0 -0.00355639 0)
(0 -0.00646116 0)
(0 -0.00654041 0)
(0 -0.0033854 0)
(0 -0.00357668 0)
(0 -0.0323586 0)
(0 -0.0322483 0)
(0 -0.0341761 0)
(0 -0.0321188 0)
(0 -0.0763189 0)
(0 -0.0523242 0)
(0 -0.0765039 0)
(0 -0.0763234 0)
(0 -0.0747477 0)
(0 -0.0790277 0)
(0 -0.0791294 0)
(0 -0.00849841 0)
(0 -0.00835776 0)
(0 -0.0746031 0)
(0 -0.0135462 0)
(0 -0.0136868 0)
(0 -0.0792366 0)
(0 -0.079222 0)
(0 -0.0791134 0)
(0 -0.0792057 0)
(0 -0.0790954 0)
(0 -0.0791895 0)
(0 -0.0790732 0)
(0 -0.079169 0)
(0 -0.0790441 0)
(0 -0.0791432 0)
(0 -0.0795262 0)
(0 -0.0339852 0)
(0 -0.0319674 0)
(0 -0.0684162 0)
(0 -0.0690958 0)
(0 -0.0300419 0)
(0 -0.0299338 0)
(0 -0.0318014 0)
(0 -0.0298028 0)
(0 -0.0316162 0)
(0 -0.0296507 0)
(0 -0.0314189 0)
(0 -0.0294867 0)
(0 -0.0276731 0)
(0 -0.0275515 0)
(0 -0.0293091 0)
(0 -0.0274126 0)
(0 -0.0790125 0)
(0 -0.0791142 0)
(0 -0.00754315 0)
(0 -0.00316913 0)
(0 -0.00332876 0)
(0 -0.0148292 0)
(0 -0.0138159 0)
(0 -0.0149813 0)
(0 -0.0139237 0)
(0 -0.0151264 0)
(0 -0.0140141 0)
(0 -0.0152622 0)
(0 -0.00600257 0)
(0 -0.0060768 0)
(0 -0.0140897 0)
(0 -0.0153796 0)
(0 -0.0291125 0)
(0 -0.0272525 0)
(0 -0.0255346 0)
(0 -0.0253931 0)
(0 -0.0270767 0)
(0 -0.0252555 0)
(0 -0.026885 0)
(0 -0.0251053 0)
(0 -0.0266766 0)
(0 -0.0249374 0)
(0 -0.023325 0)
(0 -0.0232 0)
(0 -0.0247558 0)
(0 -0.0230597 0)
(0 -0.0245601 0)
(0 -0.0229035 0)
(0 -0.00298459 0)
(0 -0.0213735 0)
(0 -0.0212565 0)
(0 -0.0227325 0)
(0 -0.0211234 0)
(0 -0.0624745 0)
(0 -0.0617302 0)
(0 -0.0638902 0)
(0 -0.0141525 0)
(0 -0.00775451 0)
(0 -0.0076361 0)
(0 -0.00820676 0)
(0 -0.00750639 0)
(0 -0.00804514 0)
(0 -0.00736579 0)
(0 -0.0690215 0)
(0 -0.00682696 0)
(0 -0.00670686 0)
(0 -0.0757805 0)
(0 -0.0696918 0)
(0 -0.0697455 0)
(0 -0.0784181 0)
(0 -0.0782219 0)
(0 -0.0783282 0)
(0 -0.0781265 0)
(0 -0.0782324 0)
(0 -0.0793206 0)
(0 -0.0279567 0)
(0 -0.0799784 0)
(0 -0.0799693 0)
(0 -0.0799745 0)
(0 -0.0799659 0)
(0 -0.079971 0)
(0 -0.0799622 0)
(0 -0.0799677 0)
(0 -0.0799575 0)
(0 -0.0799636 0)
(0 -0.0799517 0)
(0 -0.0799581 0)
(0 -0.079969 0)
(0 -0.0799636 0)
(0 -0.0799733 0)
(0 -0.0799682 0)
(0 -0.0799451 0)
(0 -0.0799768 0)
(0 -0.0799721 0)
(0 -0.0799622 0)
(0 -0.0799662 0)
(0 -0.0799764 0)
(0 -0.0799695 0)
(0 -0.0799589 0)
(0 -0.0799624 0)
(0 -0.0799722 0)
(0 -0.0799653 0)
(0 -0.0799745 0)
(0 -0.0799674 0)
(0 -0.0799761 0)
(0 -0.0799686 0)
(0 -0.0799769 0)
(0 -0.079969 0)
(0 -0.079977 0)
(0 -0.0799686 0)
(0 -0.0799762 0)
(0 -0.0799513 0)
(0 -0.0799777 0)
(0 -0.0799676 0)
(0 -0.0799744 0)
(0 -0.0799591 0)
(0 -0.0799586 0)
(0 -0.0799504 0)
(0 -0.0789751 0)
(0 -0.0790805 0)
(0 -0.0225379 0)
(0 -0.019618 0)
(0 -0.0125656 0)
(0 -0.00554438 0)
(0 -0.00561461 0)
(0 -0.00613519 0)
(0 -0.00566928 0)
(0 -0.0472603 0)
(0 -0.0780129 0)
(0 -0.00279609 0)
(0 -0.0026095 0)
(0 -0.0236037 0)
(0 -0.0792899 0)
(0 -0.0789804 0)
(0 -0.078937 0)
(0 -0.0790438 0)
(0 -0.0696057 0)
(0 -0.0689098 0)
(0 -0.00787349 0)
(0 -0.0779099 0)
(0 -0.00617679 0)
(0 -0.00570756 0)
(0 -0.00520679 0)
(0 -0.00524302 0)
(0 -0.0799653 0)
(0 -0.0799716 0)
(0 -0.0789004 0)
(0 -0.0790023 0)
(0 -0.0788557 0)
(0 -0.0789535 0)
(0 -0.0703258 0)
(0 -0.0703592 0)
(0 -0.0663428 0)
(0 -0.0061689 0)
(0 -0.00606905 0)
(0 -0.0195254 0)
(0 -0.0179869 0)
(0 -0.0615628 0)
(0 -0.060819 0)
(0 -0.0609833 0)
(0 -0.0600641 0)
(0 -0.0602191 0)
(0 -0.0592963 0)
(0 -0.0594438 0)
(0 -0.058508 0)
(0 -0.0586521 0)
(0 -0.0577312 0)
(0 -0.0578275 0)
(0 -0.0569386 0)
(0 -0.0569849 0)
(0 -0.0560777 0)
(0 -0.0561334 0)
(0 -0.055209 0)
(0 -0.0552718 0)
(0 -0.0543523 0)
(0 -0.0622957 0)
(0 -0.0543976 0)
(0 -0.0534825 0)
(0 -0.0550894 0)
(0 -0.0535116 0)
(0 -0.0526029 0)
(0 -0.0525375 0)
(0 -0.0516628 0)
(0 -0.0517139 0)
(0 -0.0507797 0)
(0 -0.0578934 0)
(0 -0.0574744 0)
(0 -0.0508157 0)
(0 -0.0498879 0)
(0 -0.0498227 0)
(0 -0.048937 0)
(0 -0.0489908 0)
(0 -0.0480513 0)
(0 -0.0480902 0)
(0 -0.0471628 0)
(0 -0.0471866 0)
(0 -0.0462636 0)
(0 -0.0462747 0)
(0 -0.0453594 0)
(0 -0.0453188 0)
(0 -0.0444247 0)
(0 -0.0444601 0)
(0 -0.0435348 0)
(0 -0.0434639 0)
(0 -0.042584 0)
(0 -0.0479642 0)
(0 -0.0426486 0)
(0 -0.0417093 0)
(0 -0.0416098 0)
(0 -0.0407505 0)
(0 -0.0408343 0)
(0 -0.0398919 0)
(0 -0.0399576 0)
(0 -0.0390335 0)
(0 -0.0390825 0)
(0 -0.0381764 0)
(0 -0.0382101 0)
(0 -0.0373214 0)
(0 -0.0373404 0)
(0 -0.0364694 0)
(0 -0.0124484 0)
(0 -0.0406844 0)
(0 -0.0114614 0)
(0 -0.0784238 0)
(0 -0.0783262 0)
(0 -0.00474876 0)
(0 -0.00478404 0)
(0 -0.0788007 0)
(0 -0.0788986 0)
(0 -0.0777876 0)
(0 -0.0288978 0)
(0 -0.0282933 0)
(0 -0.0293574 0)
(0 -0.0287281 0)
(0 -0.0297624 0)
(0 -0.0291092 0)
(0 -0.0792043 0)
(0 -0.00613164 0)
(0 -0.00599409 0)
(0 -0.00555794 0)
(0 -0.0054141 0)
(0 -0.00786197 0)
(0 -0.00711679 0)
(0 -0.00718929 0)
(0 -0.0389357 0)
(0 -0.0128522 0)
(0 -0.00243017 0)
(0 -0.00225653 0)
(0 -0.00240176 0)
(0 -0.033351 0)
(0 -0.0799801 0)
(0 -0.0799773 0)
(0 -0.079967 0)
(0 -0.0799743 0)
(0 -0.0799819 0)
(0 -0.0799785 0)
(0 -0.079985 0)
(0 -0.0799818 0)
(0 -0.0799872 0)
(0 -0.0799843 0)
(0 -0.079989 0)
(0 -0.0799863 0)
(0 -0.0799904 0)
(0 -0.0799879 0)
(0 -0.0799916 0)
(0 -0.0799892 0)
(0 -0.0799849 0)
(0 -0.0799864 0)
(0 -0.0799903 0)
(0 -0.0799876 0)
(0 -0.0799912 0)
(0 -0.0799887 0)
(0 -0.0799919 0)
(0 -0.0799896 0)
(0 -0.0799926 0)
(0 -0.0799905 0)
(0 -0.0799932 0)
(0 -0.0799912 0)
(0 -0.0799936 0)
(0 -0.0799916 0)
(0 -0.079994 0)
(0 -0.0799921 0)
(0 -0.0799943 0)
(0 -0.0799925 0)
(0 -0.0799947 0)
(0 -0.0799929 0)
(0 -0.079995 0)
(0 -0.0799933 0)
(0 -0.0799908 0)
(0 -0.0799913 0)
(0 -0.0799937 0)
(0 -0.0799917 0)
(0 -0.079994 0)
(0 -0.079992 0)
(0 -0.0799942 0)
(0 -0.0799924 0)
(0 -0.0799886 0)
(0 -0.0799891 0)
(0 -0.0799871 0)
(0 -0.0799814 0)
(0 -0.0799708 0)
(0 -0.0113717 0)
(0 -0.078505 0)
(0 -0.0784091 0)
(0 -0.0782177 0)
(0 -0.0783002 0)
(0 -0.0784852 0)
(0 -0.0783729 0)
(0 -0.0785526 0)
(0 -0.0784356 0)
(0 -0.0786097 0)
(0 -0.0784887 0)
(0 -0.0786575 0)
(0 -0.0785314 0)
(0 -0.0786961 0)
(0 -0.0785653 0)
(0 -0.0783883 0)
(0 -0.0784176 0)
(0 -0.0785901 0)
(0 -0.0784384 0)
(0 -0.0786066 0)
(0 -0.0784499 0)
(0 -0.0786155 0)
(0 -0.0784513 0)
(0 -0.078613 0)
(0 -0.0782842 0)
(0 -0.0782491 0)
(0 -0.07823 0)
(0 -0.0784428 0)
(0 -0.0785987 0)
(0 -0.0364156 0)
(0 -0.0355872 0)
(0 -0.0356216 0)
(0 -0.0347656 0)
(0 -0.0705554 0)
(0 -0.0784226 0)
(0 -0.0785747 0)
(0 -0.00620084 0)
(0 -0.0711637 0)
(0 -0.0799819 0)
(0 -0.0789181 0)
(0 -0.0709203 0)
(0 -0.0602706 0)
(0 -0.0694827 0)
(0 -0.0687597 0)
(0 -0.0613495 0)
(0 -0.0620674 0)
(0 -0.0799956 0)
(0 -0.028416 0)
(0 -0.0179416 0)
(0 -0.0776765 0)
(0 -0.00553311 0)
(0 -0.00545328 0)
(0 -0.0059575 0)
(0 -0.00536077 0)
(0 -0.0790906 0)
(0 -0.0799944 0)
(0 -0.077545 0)
(0 -0.034778 0)
(0 -0.0339313 0)
(0 -0.0103749 0)
(0 -0.0103188 0)
(0 -0.0163714 0)
(0 -0.0163638 0)
(0 -0.00485999 0)
(0 -0.0047864 0)
(0 -0.00525602 0)
(0 -0.00469969 0)
(0 -0.00207407 0)
(0 -0.00222942 0)
(0 -0.0783911 0)
(0 -0.0785419 0)
(0 -0.0782285 0)
(0 -0.0787143 0)
(0 -0.07868 0)
(0 -0.0785006 0)
(0 -0.0786373 0)
(0 -0.0799963 0)
(0 -0.0265889 0)
(0 -0.00497895 0)
(0 -0.00482949 0)
(0 -0.006444 0)
(0 -0.00648008 0)
(0 -0.057039 0)
(0 -0.0281005 0)
(0 -0.0284584 0)
(0 -0.0274739 0)
(0 -0.0278098 0)
(0 -0.0268479 0)
(0 -0.0271621 0)
(0 -0.0262232 0)
(0 -0.0265158 0)
(0 -0.0255998 0)
(0 -0.0258708 0)
(0 -0.0249782 0)
(0 -0.0252289 0)
(0 -0.0243601 0)
(0 -0.026095 0)
(0 -0.025434 0)
(0 -0.0262729 0)
(0 -0.0255942 0)
(0 -0.0264059 0)
(0 -0.0271062 0)
(0 -0.0272106 0)
(0 -0.0264948 0)
(0 -0.0154215 0)
(0 -0.0147924 0)
(0 -0.0149728 0)
(0 -0.0142806 0)
(0 -0.0145132 0)
(0 -0.0138836 0)
(0 -0.0140666 0)
(0 -0.0134576 0)
(0 -0.0136047 0)
(0 -0.0130045 0)
(0 -0.0131315 0)
(0 -0.00429641 0)
(0 -0.00433176 0)
(0 -0.00424544 0)
(0 -0.00480278 0)
(0 -0.00435063 0)
(0 -0.00190459 0)
(0 -0.0729705 0)
(0 -0.0787382 0)
(0 -0.0788389 0)
(0 -0.0787546 0)
(0 -0.0707562 0)
(0 -0.0713515 0)
(0 -0.0701425 0)
(0 -0.0339385 0)
(0 -0.0787414 0)
(0 -0.0272705 0)
(0 -0.0788063 0)
(0 -0.0788547 0)
(0 -0.0610853 0)
(0 -0.0617888 0)
(0 -0.0163706 0)
(0 -0.0178674 0)
(0 -0.0552938 0)
(0 -0.0799898 0)
(0 -0.005259 0)
(0 -0.00466954 0)
(0 -0.00509266 0)
(0 -0.00449968 0)
(0 -0.00491781 0)
(0 -0.00931021 0)
(0 -0.00929085 0)
(0 -0.00940619 0)
(0 -0.0265402 0)
(0 -0.00388744 0)
(0 -0.003908 0)
(0 -0.00435247 0)
(0 -0.00391179 0)
(0 -0.0160665 0)
(0 -0.0784474 0)
(0 -0.0331116 0)
(0 -0.0330959 0)
(0 -0.0355039 0)
(0 -0.0240841 0)
(0 -0.023489 0)
(0 -0.0125315 0)
(0 -0.0126522 0)
(0 -0.0231883 0)
(0 -0.0226165 0)
(0 -0.0228966 0)
(0 -0.0220468 0)
(0 -0.0223062 0)
(0 -0.0214786 0)
(0 -0.0211969 0)
(0 -0.0206513 0)
(0 -0.0209127 0)
(0 -0.0201079 0)
(0 -0.0198253 0)
(0 -0.0193047 0)
(0 -0.0190009 0)
(0 -0.0185038 0)
(0 -0.0203493 0)
(0 -0.00423513 0)
(0 -0.00416604 0)
(0 -0.0165376 0)
(0 -0.00174677 0)
(0 -0.0399737 0)
(0 -0.0147723 0)
(0 -0.0799935 0)
(0 -0.0480898 0)
(0 -0.0166992 0)
(0 -0.0148154 0)
(0 -0.0703308 0)
(0 -0.0693236 0)
(0 -0.0700356 0)
(0 -0.0685741 0)
(0 -0.0362006 0)
(0 -0.0786684 0)
(0 -0.00159237 0)
(0 -0.0787614 0)
(0 -0.0789207 0)
(0 -0.0787648 0)
(0 -0.0774271 0)
(0 -0.0772862 0)
(0 -0.013733 0)
(0 -0.0176318 0)
(0 -0.0111941 0)
(0 -0.0109458 0)
(0 -0.0117126 0)
(0 -0.0114352 0)
(0 -0.0121945 0)
(0 -0.0118897 0)
(0 -0.0126403 0)
(0 -0.0123095 0)
(0 -0.0130503 0)
(0 -0.0115801 0)
(0 -0.0616629 0)
(0 -0.00513892 0)
(0 -0.00439462 0)
(0 -0.0181772 0)
(0 -0.0177113 0)
(0 -0.00347574 0)
(0 -0.00348244 0)
(0 -0.0120371 0)
(0 -0.0121542 0)
(0 -0.0499733 0)
(0 -0.0698677 0)
(0 -0.0705657 0)
(0 -0.0224698 0)
(0 -0.0228703 0)
(0 -0.0272877 0)
(0 -0.00573583 0)
(0 -0.00573439 0)
(0 -0.0607718 0)
(0 -0.0600683 0)
(0 -0.0614632 0)
(0 -0.0624723 0)
(0 -0.0265423 0)
(0 -0.0258165 0)
(0 -0.0119153 0)
(0 -0.00370729 0)
(0 -0.00365558 0)
(0 -0.070936 0)
(0 -0.0714798 0)
(0 -0.00826161 0)
(0 -0.00828845 0)
(0 -0.0180114 0)
(0 -0.017261 0)
(0 -0.0703924 0)
(0 -0.0126952 0)
(0 -0.0115555 0)
(0 -0.0116539 0)
(0 -0.0110841 0)
(0 -0.0111571 0)
(0 -0.0697045 0)
(0 -0.0169413 0)
(0 -0.0280491 0)
(0 -0.0799809 0)
(0 -0.0131891 0)
(0 -0.0132777 0)
(0 -0.0134244 0)
(0 -0.0102821 0)
(0 -0.00433674 0)
(0 -0.0287673 0)
(0 -0.00145165 0)
(0 -0.0712514 0)
(0 -0.0705984 0)
(0 -0.0714504 0)
(0 -0.0707998 0)
(0 -0.0716309 0)
(0 -0.070982 0)
(0 -0.0717988 0)
(0 -0.0711515 0)
(0 -0.0719475 0)
(0 -0.0713062 0)
(0 -0.072078 0)
(0 -0.0714451 0)
(0 -0.0721948 0)
(0 -0.0715631 0)
(0 -0.0722955 0)
(0 -0.0716619 0)
(0 -0.0709015 0)
(0 -0.0709809 0)
(0 -0.0717473 0)
(0 -0.0710294 0)
(0 -0.0718109 0)
(0 -0.0710949 0)
(0 -0.0718116 0)
(0 -0.0711292 0)
(0 -0.0718031 0)
(0 -0.0711484 0)
(0 -0.0718408 0)
(0 -0.0711621 0)
(0 -0.0718705 0)
(0 -0.0711545 0)
(0 -0.0718721 0)
(0 -0.0711192 0)
(0 -0.0703689 0)
(0 -0.0703244 0)
(0 -0.0710647 0)
(0 -0.0702613 0)
(0 -0.0709851 0)
(0 -0.070174 0)
(0 -0.0708854 0)
(0 -0.0700623 0)
(0 -0.0701092 0)
(0 -0.070383 0)
(0 -0.0702968 0)
(0 -0.0695326 0)
(0 -0.0707618 0)
(0 -0.0699262 0)
(0 -0.0691865 0)
(0 -0.0690435 0)
(0 -0.0682499 0)
(0 -0.0681046 0)
(0 -0.0716645 0)
(0 -0.0706098 0)
(0 -0.0725663 0)
(0 -0.0722413 0)
(0 -0.0672578 0)
(0 -0.0671069 0)
(0 -0.0679384 0)
(0 -0.0669316 0)
(0 -0.0724636 0)
(0 -0.072751 0)
(0 -0.0677483 0)
(0 -0.0667311 0)
(0 -0.0673887 0)
(0 -0.0663392 0)
(0 -0.0664554 0)
(0 -0.00132165 0)
(0 -0.00145229 0)
(0 -0.00650277 0)
(0 -0.00571811 0)
(0 -0.00651104 0)
(0 -0.00568604 0)
(0 -0.0788733 0)
(0 -0.0790244 0)
(0 -0.0790604 0)
(0 -0.00453939 0)
(0 -0.0030546 0)
(0 -0.00306537 0)
(0 -0.0132912 0)
(0 -0.0339015 0)
(0 -0.0330433 0)
(0 -0.0621304 0)
(0 -0.0631061 0)
(0 -0.00395446 0)
(0 -0.00409612 0)
(0 -0.0603364 0)
(0 -0.0714767 0)
(0 -0.0720059 0)
(0 -0.0720057 0)
(0 -0.0678496 0)
(0 -0.0323315 0)
(0 -0.0330072 0)
(0 -0.00390165 0)
(0 -0.0725148 0)
(0 -0.0724964 0)
(0 -0.0725095 0)
(0 -0.0785575 0)
(0 -0.0784789 0)
(0 -0.010593 0)
(0 -0.0106525 0)
(0 -0.0112023 0)
(0 -0.0106884 0)
(0 -0.0597155 0)
(0 -0.0590222 0)
(0 -0.0066774 0)
(0 -0.00668718 0)
(0 -0.00717139 0)
(0 -0.00716702 0)
(0 -0.00765934 0)
(0 -0.00667754 0)
(0 -0.00320359 0)
(0 -0.00316909 0)
(0 -0.00358996 0)
(0 -0.00311995 0)
(0 -0.00322362 0)
(0 -0.0130458 0)
(0 -0.0137637 0)
(0 -0.00650409 0)
(0 -0.00563745 0)
(0 -0.0272599 0)
(0 -0.0265018 0)
(0 -0.0175178 0)
(0 -0.0675356 0)
(0 -0.0665082 0)
(0 -0.0656537 0)
(0 -0.068498 0)
(0 -0.0134022 0)
(0 -0.0116283 0)
(0 -0.0117628 0)
(0 -0.0114716 0)
(0 -0.0785852 0)
(0 -0.0026458 0)
(0 -0.00266188 0)
(0 -0.0030596 0)
(0 -0.00266166 0)
(0 -0.0186554 0)
(0 -0.00723987 0)
(0 -0.0775596 0)
(0 -0.0773032 0)
(0 -0.0774324 0)
(0 -0.00117965 0)
(0 -0.00129043 0)
(0 -0.0703899 0)
(0 -0.0710737 0)
(0 -0.0679986 0)
(0 -0.0677814 0)
(0 -0.00106165 0)
(0 -0.00351017 0)
(0 -0.00305629 0)
(0 -0.00267445 0)
(0 -0.0026266 0)
(0 -0.00261411 0)
(0 -0.0789756 0)
(0 -0.0791162 0)
(0 -0.00499254 0)
(0 -0.00501775 0)
(0 -0.00714152 0)
(0 -0.00664804 0)
(0 -0.0216695 0)
(0 -0.0220388 0)
(0 -0.0232683 0)
(0 -0.0224048 0)
(0 -0.0236583 0)
(0 -0.0227547 0)
(0 -0.0240409 0)
(0 -0.0230918 0)
(0 -0.0244185 0)
(0 -0.023424 0)
(0 -0.0247875 0)
(0 -0.0101486 0)
(0 -0.0101742 0)
(0 -0.0698772 0)
(0 -0.00351038 0)
(0 -0.00365092 0)
(0 -0.00336148 0)
(0 -0.0627679 0)
(0 -0.0797844 0)
(0 -0.0654232 0)
(0 -0.0645129 0)
(0 -0.0771674 0)
(0 -0.0772901 0)
(0 -0.0796836 0)
(0 -0.0774023 0)
(0 -0.0692372 0)
(0 -0.0338132 0)
(0 -0.0798527 0)
(0 -0.0258874 0)
(0 -0.0799837 0)
(0 -0.0797318 0)
(0 -0.0133664 0)
(0 -0.0126582 0)
(0 -0.0617401 0)
(0 -0.0112233 0)
(0 -0.0653429 0)
(0 -0.0654487 0)
(0 -0.0799007 0)
(0 -0.0771245 0)
(0 -0.0799957 0)
(0 -0.0799121 0)
(0 -0.00303656 0)
(0 -0.00264435 0)
(0 -0.00227948 0)
(0 -0.00226895 0)
(0 -0.0756732 0)
(0 -0.0773588 0)
(0 -0.0773702 0)
(0 -0.0799933 0)
(0 -0.0760926 0)
(0 -0.0772357 0)
(0 -0.0133472 0)
(0 -0.011867 0)