/*--------------------------------*- C++ -*----------------------------------*\
| =========                 |                                                 |
| \\      /  F ield         | OpenFOAM: The Open Source CFD Toolbox           |
|  \\    /   O peration     | Version:  v2012                                 |
|   \\  /    A nd           | Website:  www.openfoam.com                      |
|    \\/     M anipulation  |                                                 |
\*---------------------------------------------------------------------------*/
FoamFile
{
    version     2.0;
    format      ascii;
    class       pointVectorField;
    location    "450";
    object      pointDisplacement;
}
// * * * * * * * * * * * * * * * * * * * * * * * * * * * * * * * * * * * * * //

dimensions      [0 1 0 0 0 0 0];


internalField   nonuniform List<vector> 
14332
(
(0 0 0)
(-0 -0.0739091 -0)
(0 0 0)
(-0 -0.0739091 -0)
(0 0 0)
(0 0 0)
(0 0 0)
(0 0 0)
(0 0 0)
(0 0 0)
(0 0 0)
(0 0 0)
(0 0 0)
(0 0 0)
(0 0 0)
(0 0 0)
(0 0 0)
(0 0 0)
(0 0 0)
(0 0 0)
(0 0 0)
(0 0 0)
(0 0 0)
(0 0 0)
(0 0 0)
(0 0 0)
(0 0 0)
(0 0 0)
(0 0 0)
(0 0 0)
(0 0 0)
(0 0 0)
(0 0 0)
(0 0 0)
(0 0 0)
(0 0 0)
(0 0 0)
(0 0 0)
(0 0 0)
(0 0 0)
(0 0 0)
(0 0 0)
(0 0 0)
(0 0 0)
(0 0 0)
(0 0 0)
(0 0 0)
(0 0 0)
(0 0 0)
(0 0 0)
(0 0 0)
(0 0 0)
(0 0 0)
(0 0 0)
(0 0 0)
(0 0 0)
(0 0 0)
(0 0 0)
(0 0 0)
(0 0 0)
(0 0 0)
(0 0 0)
(0 0 0)
(0 0 0)
(0 0 0)
(0 0 0)
(0 0 0)
(0 0 0)
(0 0 0)
(0 0 0)
(0 0 0)
(0 0 0)
(0 0 0)
(0 0 0)
(0 0 0)
(0 0 0)
(0 0 0)
(0 0 0)
(0 0 0)
(0 0 0)
(0 0 0)
(0 0 0)
(0 0 0)
(0 0 0)
(0 0 0)
(0 0 0)
(0 0 0)
(0 0 0)
(0 0 0)
(0 0 0)
(0 0 0)
(0 0 0)
(0 0 0)
(0 0 0)
(0 0 0)
(0 0 0)
(0 0 0)
(0 0 0)
(0 0 0)
(0 0 0)
(0 0 0)
(0 0 0)
(0 0 0)
(0 0 0)
(0 0 0)
(0 0 0)
(0 0 0)
(0 0 0)
(0 0 0)
(0 0 0)
(0 0 0)
(0 0 0)
(0 0 0)
(0 0 0)
(0 0 0)
(0 0 0)
(0 0 0)
(0 0 0)
(0 0 0)
(0 0 0)
(0 0 0)
(0 0 0)
(0 0 0)
(0 0 0)
(0 0 0)
(0 0 0)
(0 0 0)
(0 0 0)
(0 0 0)
(0 0 0)
(0 0 0)
(0 0 0)
(0 0 0)
(0 0 0)
(-0 -0.0739091 -0)
(-0 -0.0739091 -0)
(-0 -0.0739091 -0)
(-0 -0.0739091 -0)
(-0 -0.0739091 -0)
(-0 -0.0739091 -0)
(-0 -0.0739091 -0)
(-0 -0.0739091 -0)
(-0 -0.0739091 -0)
(-0 -0.0739091 -0)
(-0 -0.0739091 -0)
(-0 -0.0739091 -0)
(-0 -0.0739091 -0)
(-0 -0.0739091 -0)
(-0 -0.0739091 -0)
(-0 -0.0739091 -0)
(-0 -0.0739091 -0)
(-0 -0.0739091 -0)
(-0 -0.0739091 -0)
(-0 -0.0739091 -0)
(-0 -0.0739091 -0)
(-0 -0.0739091 -0)
(-0 -0.0739091 -0)
(-0 -0.0739091 -0)
(-0 -0.0739091 -0)
(-0 -0.0739091 -0)
(-0 -0.0739091 -0)
(-0 -0.0739091 -0)
(-0 -0.0739091 -0)
(-0 -0.0739091 -0)
(-0 -0.0739091 -0)
(-0 -0.0739091 -0)
(-0 -0.0739091 -0)
(-0 -0.0739091 -0)
(-0 -0.0739091 -0)
(-0 -0.0739091 -0)
(-0 -0.0739091 -0)
(-0 -0.0739091 -0)
(-0 -0.0739091 -0)
(-0 -0.0739091 -0)
(-0 -0.0739091 -0)
(-0 -0.0739091 -0)
(-0 -0.0739091 -0)
(-0 -0.0739091 -0)
(-0 -0.0739091 -0)
(0 0 0)
(0 0 0)
(0 0 0)
(0 0 0)
(0 0 0)
(0 0 0)
(0 0 0)
(0 0 0)
(0 0 0)
(0 0 0)
(0 0 0)
(0 0 0)
(0 0 0)
(0 0 0)
(0 0 0)
(0 0 0)
(0 0 0)
(0 0 0)
(0 0 0)
(0 0 0)
(0 0 0)
(0 0 0)
(0 0 0)
(0 0 0)
(0 0 0)
(0 0 0)
(0 0 0)
(0 0 0)
(0 0 0)
(0 0 0)
(0 0 0)
(0 0 0)
(0 0 0)
(0 0 0)
(0 0 0)
(0 0 0)
(0 0 0)
(0 0 0)
(0 0 0)
(0 0 0)
(0 0 0)
(0 0 0)
(0 0 0)
(0 0 0)
(0 0 0)
(0 0 0)
(0 0 0)
(0 0 0)
(0 0 0)
(0 0 0)
(0 0 0)
(0 0 0)
(0 0 0)
(0 0 0)
(0 0 0)
(0 0 0)
(0 0 0)
(0 0 0)
(0 0 0)
(0 0 0)
(0 0 0)
(0 0 0)
(0 0 0)
(0 0 0)
(0 0 0)
(0 0 0)
(0 0 0)
(0 0 0)
(0 0 0)
(0 0 0)
(0 0 0)
(0 0 0)
(0 0 0)
(0 0 0)
(0 0 0)
(0 0 0)
(0 0 0)
(0 0 0)
(0 0 0)
(0 0 0)
(0 0 0)
(0 0 0)
(0 0 0)
(0 0 0)
(0 0 0)
(0 0 0)
(0 0 0)
(0 0 0)
(0 0 0)
(0 0 0)
(0 0 0)
(0 0 0)
(0 0 0)
(0 0 0)
(0 0 0)
(0 0 0)
(0 0 0)
(0 0 0)
(0 0 0)
(0 0 0)
(0 0 0)
(0 0 0)
(0 0 0)
(0 0 0)
(0 0 0)
(0 0 0)
(0 0 0)
(0 0 0)
(0 0 0)
(0 0 0)
(0 0 0)
(0 0 0)
(0 0 0)
(0 0 0)
(0 0 0)
(0 0 0)
(0 0 0)
(0 0 0)
(0 0 0)
(0 0 0)
(0 0 0)
(0 0 0)
(0 0 0)
(0 0 0)
(0 0 0)
(0 0 0)
(0 0 0)
(0 0 0)
(0 0 0)
(0 0 0)
(-0 -0.0739091 -0)
(-0 -0.0739091 -0)
(-0 -0.0739091 -0)
(-0 -0.0739091 -0)
(-0 -0.0739091 -0)
(-0 -0.0739091 -0)
(-0 -0.0739091 -0)
(-0 -0.0739091 -0)
(-0 -0.0739091 -0)
(-0 -0.0739091 -0)
(-0 -0.0739091 -0)
(-0 -0.0739091 -0)
(-0 -0.0739091 -0)
(-0 -0.0739091 -0)
(-0 -0.0739091 -0)
(-0 -0.0739091 -0)
(-0 -0.0739091 -0)
(-0 -0.0739091 -0)
(-0 -0.0739091 -0)
(-0 -0.0739091 -0)
(-0 -0.0739091 -0)
(-0 -0.0739091 -0)
(-0 -0.0739091 -0)
(-0 -0.0739091 -0)
(-0 -0.0739091 -0)
(-0 -0.0739091 -0)
(-0 -0.0739091 -0)
(-0 -0.0739091 -0)
(-0 -0.0739091 -0)
(-0 -0.0739091 -0)
(-0 -0.0739091 -0)
(-0 -0.0739091 -0)
(-0 -0.0739091 -0)
(-0 -0.0739091 -0)
(-0 -0.0739091 -0)
(-0 -0.0739091 -0)
(-0 -0.0739091 -0)
(-0 -0.0739091 -0)
(-0 -0.0739091 -0)
(-0 -0.0739091 -0)
(-0 -0.0739091 -0)
(-0 -0.0739091 -0)
(-0 -0.0739091 -0)
(-0 -0.0739091 -0)
(-0 -0.0739091 -0)
(0 -0.0739091 0)
(0 -0.00246866 0)
(0 -0.073909 0)
(0 -0.0739091 0)
(0 -0.073909 0)
(0 -0.00283969 0)
(0 -0.0739091 0)
(0 -0.00199459 0)
(0 -0.00123894 0)
(0 -0.00053791 0)
(0 -0.0042448 0)
(0 -0.000880392 0)
(0 -0.00144477 0)
(0 -0.0739091 0)
(0 -0.00404184 0)
(0 -0.000594522 0)
(0 -0.00455038 0)
(0 -0.000591714 0)
(0 -0.00521034 0)
(0 -0.0739091 0)
(0 -0.000521431 0)
(0 -0.00055139 0)
(0 -0.000349896 0)
(0 -0.000341309 0)
(0 -0.000278148 0)
(0 -0.00226983 0)
(0 -0.000944815 0)
(0 -0.073909 0)
(0 -0.0739089 0)
(0 -0.0739091 0)
(0 -0.000234161 0)
(0 -0.000158101 0)
(0 -0.00394316 0)
(0 -0.00419848 0)
(0 -0.0041918 0)
(0 -0.00526566 0)
(0 -0.00281997 0)
(0 -0.00199443 0)
(0 -0.00128024 0)
(0 -0.000659786 0)
(0 -0.000864283 0)
(0 -0.000529278 0)
(0 -0.00044611 0)
(0 -0.000179784 0)
(0 -0.0739091 0)
(0 -0.0739091 0)
(0 -9.48193e-05 0)
(0 -9.1109e-05 0)
(0 -0.00581414 0)
(0 -0.00331715 0)
(0 -0.00277972 0)
(0 -0.0024106 0)
(0 -0.00198362 0)
(0 -0.00174483 0)
(0 -0.000779491 0)
(0 -0.0010527 0)
(0 -0.00135711 0)
(0 -0.000285433 0)
(0 -0.00101917 0)
(0 -0.000480317 0)
(0 -0.000318078 0)
(0 -0.00028273 0)
(0 -0.00023125 0)
(0 -0.000419277 0)
(0 -4.57416e-05 0)
(0 -0.0694478 0)
(0 -0.0692029 0)
(0 -0.0695734 0)
(0 -0.0693193 0)
(0 -0.0696805 0)
(0 -0.0694166 0)
(0 -0.0697682 0)
(0 -0.0694964 0)
(0 -0.0698423 0)
(0 -0.069558 0)
(0 -0.0698962 0)
(0 -0.0696004 0)
(0 -0.0699321 0)
(0 -0.0696254 0)
(0 -0.069953 0)
(0 -0.0696365 0)
(0 -0.0699555 0)
(0 -0.0696405 0)
(0 -0.0699344 0)
(0 -0.0696101 0)
(0 -0.0698939 0)
(0 -0.0695281 0)
(0 -0.0698302 0)
(0 -0.0694327 0)
(0 -0.0697403 0)
(0 -0.0693333 0)
(0 -0.0696165 0)
(0 -0.0692094 0)
(0 -0.0694984 0)
(0 -0.0690755 0)
(0 -0.0693792 0)
(0 -0.0689275 0)
(0 -0.0692118 0)
(0 -0.0687364 0)
(0 -0.0690051 0)
(0 -0.0684472 0)
(0 -0.0682263 0)
(0 -0.0679295 0)
(0 -0.0219613 0)
(0 -0.021273 0)
(0 -0.0676867 0)
(0 -0.0673777 0)
(0 -0.0214538 0)
(0 -0.020796 0)
(0 -0.067113 0)
(0 -0.0667901 0)
(0 -0.0209714 0)
(0 -0.0203104 0)
(0 -0.020491 0)
(0 -0.0198227 0)
(0 -0.066499 0)
(0 -0.0661678 0)
(0 -0.0199749 0)
(0 -0.0193257 0)
(0 -0.0658459 0)
(0 -0.0655001 0)
(0 -0.019443 0)
(0 -0.0188134 0)
(0 -0.0186885 0)
(0 -0.065145 0)
(0 -0.0647777 0)
(0 -0.0655272 0)
(0 -0.0189019 0)
(0 -0.0182896 0)
(0 -0.0643842 0)
(0 -0.0640032 0)
(0 -0.0183584 0)
(0 -0.0189348 0)
(0 -0.0177579 0)
(0 -0.0702204 0)
(0 -0.0694762 0)
(0 -0.069267 0)
(0 -0.0697242 0)
(0 -0.0695378 0)
(0 -0.0699538 0)
(0 -0.0697605 0)
(0 -0.070157 0)
(0 -0.0699428 0)
(0 -0.0703437 0)
(0 -0.070127 0)
(0 -0.0705157 0)
(0 -0.070291 0)
(0 -0.0706758 0)
(0 -0.070438 0)
(0 -0.070813 0)
(0 -0.0705731 0)
(0 -0.0709294 0)
(0 -0.070697 0)
(0 -0.0710394 0)
(0 -0.070805 0)
(0 -0.0711348 0)
(0 -0.0708964 0)
(0 -0.0712172 0)
(0 -0.0709758 0)
(0 -0.0706336 0)
(0 -0.0707093 0)
(0 -0.0710499 0)
(0 -0.0707832 0)
(0 -0.0711089 0)
(0 -0.0708357 0)
(0 -0.0711517 0)
(0 -0.0708781 0)
(0 -0.0711911 0)
(0 -0.0708958 0)
(0 -0.0712101 0)
(0 -0.0709152 0)
(0 -0.071213 0)
(0 -0.0709602 0)
(0 -0.0712308 0)
(0 -0.0709757 0)
(0 -0.0712445 0)
(0 -0.070967 0)
(0 -0.0712339 0)
(0 -0.0709471 0)
(0 -0.0712112 0)
(0 -0.0709225 0)
(0 -0.0711905 0)
(0 -0.0708952 0)
(0 -0.0711681 0)
(0 -0.0708642 0)
(0 -0.0711363 0)
(0 -0.0708272 0)
(0 -0.0710986 0)
(0 -0.0707866 0)
(0 -0.0703457 0)
(0 -0.0706593 0)
(0 -0.0705648 0)
(0 -0.0708833 0)
(0 -0.0178064 0)
(0 -0.0172177 0)
(0 -0.0635705 0)
(0 -0.0631868 0)
(0 -0.0714104 0)
(0 -0.0172444 0)
(0 -0.0166682 0)
(0 -0.0627096 0)
(0 -0.0623259 0)
(0 -0.0166722 0)
(0 -0.016112 0)
(0 -0.0160954 0)
(0 -0.0618075 0)
(0 -0.0614193 0)
(0 -0.0160903 0)
(0 -0.0155502 0)
(0 -0.0715343 0)
(0 -0.0608693 0)
(0 -0.0604653 0)
(0 -0.0612081 0)
(0 -0.0714369 0)
(0 -0.0155034 0)
(0 -0.0159888 0)
(0 -0.0149852 0)
(0 -0.0598795 0)
(0 -0.0594648 0)
(0 -0.0149228 0)
(0 -0.0144182 0)
(0 -0.0143433 0)
(0 -0.0138501 0)
(0 -0.0588409 0)
(0 -0.0584186 0)
(0 -0.0137676 0)
(0 -0.0132817 0)
(0 -0.0133509 0)
(0 -0.0577496 0)
(0 -0.0573157 0)
(0 -0.0127983 0)
(0 -0.012863 0)
(0 -0.012713 0)
(0 -0.0566109 0)
(0 -0.0561876 0)
(0 -0.0568364 0)
(0 -0.0557412 0)
(0 -0.0563733 0)
(0 -0.0552841 0)
(0 -0.0559251 0)
(0 -0.0547986 0)
(0 -0.0541103 0)
(0 -0.0536261 0)
(0 -0.0542826 0)
(0 -0.0531438 0)
(0 -0.0122426 0)
(0 -0.0121481 0)
(0 -0.0524011 0)
(0 -0.0519263 0)
(0 -0.052669 0)
(0 -0.0514423 0)
(0 -0.0693369 0)
(0 -0.0117076 0)
(0 -0.0115877 0)
(0 -0.052169 0)
(0 -0.0509369 0)
(0 -0.0501668 0)
(0 -0.0496671 0)
(0 -0.0504235 0)
(0 -0.0491497 0)
(0 -0.0498862 0)
(0 -0.0486089 0)
(0 -0.0493095 0)
(0 -0.0480458 0)
(0 -0.0487223 0)
(0 -0.0474702 0)
(0 -0.0467492 0)
(0 -0.046186 0)
(0 -0.06361 0)
(0 -0.0111253 0)
(0 -0.0110266 0)
(0 -0.046888 0)
(0 -0.0456155 0)
(0 -0.0448682 0)
(0 -0.0443082 0)
(0 -0.0450373 0)
(0 -0.043741 0)
(0 -0.0444488 0)
(0 -0.0431649 0)
(0 -0.0105804 0)
(0 -0.010471 0)
(0 -0.0109389 0)
(0 -0.0424152 0)
(0 -0.0418552 0)
(0 -0.0425821 0)
(0 -0.0412879 0)
(0 -0.0419913 0)
(0 -0.0407095 0)
(0 -0.04139 0)
(0 -0.0401213 0)
(0 -0.0407786 0)
(0 -0.0395259 0)
(0 -0.0388303 0)
(0 -0.0382515 0)
(0 -0.0389276 0)
(0 -0.0376725 0)
(0 -0.0100384 0)
(0 -0.0101807 0)
(0 -0.00991505 0)
(0 -0.0369549 0)
(0 -0.0363961 0)
(0 -0.0370904 0)
(0 -0.0358323 0)
(0 -0.0365003 0)
(0 -0.0352599 0)
(0 -0.0359161 0)
(0 -0.0346821 0)
(0 -0.0340062 0)
(0 -0.0334475 0)
(0 -0.0340931 0)
(0 -0.0328827 0)
(0 -0.0334954 0)
(0 -0.0323149 0)
(0 -0.0316602 0)
(0 -0.0311209 0)
(0 -0.0317483 0)
(0 -0.0305797 0)
(0 -0.0311732 0)
(0 -0.0300333 0)
(0 -0.00949455 0)
(0 -0.00936539 0)
(0 -0.0294021 0)
(0 -0.0288851 0)
(0 -0.0294883 0)
(0 -0.0283643 0)
(0 -0.0289426 0)
(0 -0.0278401 0)
(0 -0.0283939 0)
(0 -0.0273152 0)
(0 -0.0267309 0)
(0 -0.0262299 0)
(0 -0.0267896 0)
(0 -0.0257265 0)
(0 -0.0262587 0)
(0 -0.0252201 0)
(0 -0.0246633 0)
(0 -0.0241821 0)
(0 -0.070215 0)
(0 -0.0736126 0)
(0 -0.0735612 0)
(0 -0.0735902 0)
(0 -0.0735362 0)
(0 -0.0735643 0)
(0 -0.0735004 0)
(0 -0.0735346 0)
(0 -0.0734733 0)
(0 -0.0735033 0)
(0 -0.0734384 0)
(0 -0.0734692 0)
(0 -0.0735311 0)
(0 -0.0734977 0)
(0 -0.0735567 0)
(0 -0.07352 0)
(0 -0.0735795 0)
(0 -0.0735392 0)
(0 -0.0735957 0)
(0 -0.0735549 0)
(0 -0.0736069 0)
(0 -0.0735644 0)
(0 -0.073616 0)
(0 -0.0735717 0)
(0 -0.0736223 0)
(0 -0.0735157 0)
(0 -0.0734062 0)
(0 -0.0735758 0)
(0 -0.0736251 0)
(0 -0.00896929 0)
(0 -0.00882286 0)
(0 -0.0734022 0)
(0 -0.0499398 0)
(0 -0.0235995 0)
(0 -0.0231441 0)
(0 -0.0570173 0)
(0 -0.025725 0)
(0 -0.0735777 0)
(0 -0.0736245 0)
(0 -0.041062 0)
(0 -0.0488504 0)
(0 -0.00845224 0)
(0 -0.00828534 0)
(0 -0.00868047 0)
(0 -0.0558266 0)
(0 -0.0562085 0)
(0 -0.0549645 0)
(0 -0.0553279 0)
(0 -0.0540229 0)
(0 -0.0543727 0)
(0 -0.0529982 0)
(0 -0.0533184 0)
(0 -0.0518772 0)
(0 -0.0521577 0)
(0 -0.0736599 0)
(0 -0.0735747 0)
(0 -0.0736202 0)
(0 -0.0225358 0)
(0 -0.0221068 0)
(0 -0.0700312 0)
(0 -0.0420113 0)
(0 -0.0506423 0)
(0 -0.0509015 0)
(0 -0.0524308 0)
(0 -0.0511449 0)
(0 -0.0526692 0)
(0 -0.0513568 0)
(0 -0.0528803 0)
(0 -0.0515454 0)
(0 -0.0530703 0)
(0 -0.0517107 0)
(0 -0.0532329 0)
(0 -0.051843 0)
(0 -0.0533651 0)
(0 -0.0519394 0)
(0 -0.0534693 0)
(0 -0.0520086 0)
(0 -0.053539 0)
(0 -0.0520458 0)
(0 -0.0535752 0)
(0 -0.0520497 0)
(0 -0.0535801 0)
(0 -0.0520197 0)
(0 -0.0535527 0)
(0 -0.0519592 0)
(0 -0.053491 0)
(0 -0.00792185 0)
(0 -0.00811345 0)
(0 -0.0077489 0)
(0 -0.0518713 0)
(0 -0.0533996 0)
(0 -0.0735663 0)
(0 -0.0736118 0)
(0 -0.0735171 0)
(0 -0.0517533 0)
(0 -0.0532773 0)
(0 -0.0214742 0)
(0 -0.0210722 0)
(0 -0.0216765 0)
(0 -0.0206674 0)
(0 -0.0516066 0)
(0 -0.0531203 0)
(0 -0.00739971 0)
(0 -0.00722006 0)
(0 -0.0493139 0)
(0 -0.0735554 0)
(0 -0.0735993 0)
(0 -0.0514127 0)
(0 -0.0529251 0)
(0 -0.0548207 0)
(0 -0.0212435 0)
(0 -0.0202575 0)
(0 -0.0196621 0)
(0 -0.0192763 0)
(0 -0.0511772 0)
(0 -0.0527006 0)
(0 -0.073644 0)
(0 -0.0549814 0)
(0 -0.0186626 0)
(0 -0.0183047 0)
(0 -0.05092 0)
(0 -0.0524527 0)
(0 -0.0541524 0)
(0 -0.0539201 0)
(0 -0.0521839 0)
(0 -0.0536917 0)
(0 -0.0518931 0)
(0 -0.0534102 0)
(0 -0.0515674 0)
(0 -0.0530896 0)
(0 -0.073541 0)
(0 -0.0735838 0)
(0 -0.0736356 0)
(0 -0.0736216 0)
(0 -0.0735656 0)
(0 -0.0736029 0)
(0 -0.0736567 0)
(0 -0.0736366 0)
(0 -0.0735798 0)
(0 -0.0736111 0)
(0 -0.0736649 0)
(0 -0.0736396 0)
(0 -0.0736878 0)
(0 -0.0736648 0)
(0 -0.0737084 0)
(0 -0.0736868 0)
(0 -0.073725 0)
(0 -0.0737049 0)
(0 -0.0737398 0)
(0 -0.0737201 0)
(0 -0.0737544 0)
(0 -0.0737332 0)
(0 -0.0737651 0)
(0 -0.073744 0)
(0 -0.0737732 0)
(0 -0.0737532 0)
(0 -0.0737806 0)
(0 -0.0737604 0)
(0 -0.0737871 0)
(0 -0.0737675 0)
(0 -0.0737927 0)
(0 -0.0737742 0)
(0 -0.0737974 0)
(0 -0.0737795 0)
(0 -0.0738016 0)
(0 -0.0737843 0)
(0 -0.0738055 0)
(0 -0.0737888 0)
(0 -0.0738091 0)
(0 -0.0737923 0)
(0 -0.0738115 0)
(0 -0.0737953 0)
(0 -0.0738133 0)
(0 -0.0737975 0)
(0 -0.0738153 0)
(0 -0.0737993 0)
(0 -0.0737775 0)
(0 -0.073761 0)
(0 -0.0737221 0)
(0 -0.0736659 0)
(0 -0.0735519 0)
(0 -0.0738312 0)
(0 -0.0738243 0)
(0 -0.0512058 0)
(0 -0.0527092 0)
(0 -0.0549079 0)
(0 -0.0500982 0)
(0 -0.00689258 0)
(0 -0.00671131 0)
(0 -0.0508039 0)
(0 -0.0522919 0)
(0 -0.0198302 0)
(0 -0.02123 0)
(0 -0.05037 0)
(0 -0.0518774 0)
(0 -0.0738099 0)
(0 -0.0176703 0)
(0 -0.0173404 0)
(0 -0.00639808 0)
(0 -0.00621515 0)
(0 -0.00649765 0)
(0 -0.0504077 0)
(0 -0.073749 0)
(0 -0.0736688 0)
(0 -0.00591653 0)
(0 -0.00607533 0)
(0 -0.0166867 0)
(0 -0.0163828 0)
(0 -0.00572918 0)
(0 -0.0502381 0)
(0 -0.0692077 0)
(0 -0.0157128 0)
(0 -0.0154361 0)
(0 -0.015985 0)
(0 -0.0160747 0)
(0 -0.0151538 0)
(0 -0.015762 0)
(0 -0.0148659 0)
(0 -0.00544797 0)
(0 -0.00525951 0)
(0 -0.0154444 0)
(0 -0.014573 0)
(0 -0.0139815 0)
(0 -0.0137134 0)
(0 -0.049076 0)
(0 -0.0476644 0)
(0 -0.0474517 0)
(0 -0.0459497 0)
(0 -0.0457448 0)
(0 -0.0441537 0)
(0 -0.0439572 0)
(0 -0.0495797 0)
(0 -0.0664698 0)
(0 -0.0714393 0)
(0 -0.0423005 0)
(0 -0.0421196 0)
(0 -0.0131096 0)
(0 -0.0128665 0)
(0 -0.0134405 0)
(0 -0.0126181 0)
(0 -0.049648 0)
(0 -0.00499411 0)
(0 -0.00480602 0)
(0 -0.012033 0)
(0 -0.0118088 0)
(0 -0.021874 0)
(0 -0.0404058 0)
(0 -0.0402422 0)
(0 -0.0405668 0)
(0 -0.0149942 0)
(0 -0.0152321 0)
(0 -0.013164 0)
(0 -0.00455406 0)
(0 -0.00436953 0)
(0 -0.00458194 0)
(0 -0.0112139 0)
(0 -0.0110134 0)
(0 -0.0384466 0)
(0 -0.0383128 0)
(0 -0.0699505 0)
(0 -0.0142251 0)
(0 -0.0144257 0)
(0 -0.0041304 0)
(0 -0.00430263 0)
(0 -0.00393957 0)
(0 -0.0104101 0)
(0 -0.0102329 0)
(0 -0.0598406 0)
(0 -0.0593552 0)
(0 -0.0600723 0)
(0 -0.0595708 0)
(0 -0.0602753 0)
(0 -0.0597614 0)
(0 -0.0605423 0)
(0 -0.0599219 0)
(0 -0.0606235 0)
(0 -0.0600218 0)
(0 -0.0607027 0)
(0 -0.0600927 0)
(0 -0.0593376 0)
(0 -0.0607549 0)
(0 -0.0601308 0)
(0 -0.0607759 0)
(0 -0.0601128 0)
(0 -0.0607605 0)
(0 -0.0614305 0)
(0 -0.0600632 0)
(0 -0.0614061 0)
(0 -0.0620671 0)
(0 -0.0620312 0)
(0 -0.0626816 0)
(0 -0.0364311 0)
(0 -0.0363331 0)
(0 -0.0703461 0)
(0 -0.073792 0)
(0 -0.0545013 0)
(0 -0.00368104 0)
(0 -0.00352665 0)
(0 -0.0134051 0)
(0 -0.0135672 0)
(0 -0.00962299 0)
(0 -0.00946868 0)
(0 -0.0100481 0)
(0 -0.00930553 0)
(0 -0.00976863 0)
(0 -0.00985518 0)
(0 -0.00913396 0)
(0 -0.00858013 0)
(0 -0.00842983 0)
(0 -0.0609943 0)
(0 -0.00965449 0)
(0 -0.0731297 0)
(0 -0.0730245 0)
(0 -0.0731172 0)
(0 -0.0626355 0)
(0 -0.0632749 0)
(0 -0.0294525 0)
(0 -0.0371409 0)
(0 -0.0142401 0)
(0 -0.0201143 0)
(0 -0.02822 0)
(0 -0.0619684 0)
(0 -0.0367063 0)
(0 -0.0304035 0)
(0 -0.0274431 0)
(0 -0.0356397 0)
(0 -0.0555433 0)
(0 -0.0343704 0)
(0 -0.0343101 0)
(0 -0.0362097 0)
(0 -0.0342258 0)
(0 -0.0360689 0)
(0 -0.0341192 0)
(0 -0.0359046 0)
(0 -0.0339787 0)
(0 -0.0357142 0)
(0 -0.0338093 0)
(0 -0.0320081 0)
(0 -0.0318685 0)
(0 -0.0336369 0)
(0 -0.031728 0)
(0 -0.0344029 0)
(0 -0.0694899 0)
(0 -0.0322557 0)
(0 -0.0594162 0)
(0 -0.0593282 0)
(0 -0.0586651 0)
(0 -0.0585484 0)
(0 -0.0578687 0)
(0 -0.00766369 0)
(0 -0.00820571 0)
(0 -0.00782032 0)
(0 -0.00728135 0)
(0 -0.00742763 0)
(0 -0.00796279 0)
(0 -0.00755993 0)
(0 -0.00702877 0)
(0 -0.00715198 0)
(0 -0.00809004 0)
(0 -0.00662446 0)
(0 -0.00673971 0)
(0 -0.0062156 0)
(0 -0.0063239 0)
(0 -0.00684088 0)
(0 -0.006418 0)
(0 -0.00609422 0)
(0 -0.00692679 0)
(0 -0.00649715 0)
(0 -0.00329854 0)
(0 -0.00599346 0)
(0 -0.00606687 0)
(0 -0.00314001 0)
(0 -0.00331737 0)
(0 -0.0298904 0)
(0 -0.0297896 0)
(0 -0.031572 0)
(0 -0.0296712 0)
(0 -0.0705048 0)
(0 -0.0483108 0)
(0 -0.0706745 0)
(0 -0.0705065 0)
(0 -0.0690606 0)
(0 -0.0730096 0)
(0 -0.0731037 0)
(0 -0.0078725 0)
(0 -0.0077431 0)
(0 -0.0689306 0)
(0 -0.0125331 0)
(0 -0.0126621 0)
(0 -0.0732029 0)
(0 -0.0731893 0)
(0 -0.0730889 0)
(0 -0.0731744 0)
(0 -0.0730723 0)
(0 -0.0731594 0)
(0 -0.0730518 0)
(0 -0.0731404 0)
(0 -0.073025 0)
(0 -0.0731166 0)
(0 -0.0734721 0)
(0 -0.031397 0)
(0 -0.0295326 0)
(0 -0.0632185 0)
(0 -0.0638462 0)
(0 -0.0277523 0)
(0 -0.0276537 0)
(0 -0.0293806 0)
(0 -0.027534 0)
(0 -0.029211 0)
(0 -0.0273949 0)
(0 -0.0290301 0)
(0 -0.0272447 0)
(0 -0.0255677 0)
(0 -0.0254565 0)
(0 -0.0270818 0)
(0 -0.0253293 0)
(0 -0.0729958 0)
(0 -0.0730899 0)
(0 -0.00699665 0)
(0 -0.00293941 0)
(0 -0.0030874 0)
(0 -0.013719 0)
(0 -0.0127806 0)
(0 -0.0138586 0)
(0 -0.0128795 0)
(0 -0.0139918 0)
(0 -0.0129621 0)
(0 -0.0141163 0)
(0 -0.00556819 0)
(0 -0.00563695 0)
(0 -0.0130311 0)
(0 -0.0142238 0)
(0 -0.0269012 0)
(0 -0.0251825 0)
(0 -0.0235938 0)
(0 -0.0234643 0)
(0 -0.0250213 0)
(0 -0.0233384 0)
(0 -0.0248457 0)
(0 -0.023201 0)
(0 -0.0246546 0)
(0 -0.0230473 0)
(0 -0.0215558 0)
(0 -0.0214417 0)
(0 -0.0228811 0)
(0 -0.0213134 0)
(0 -0.0227017 0)
(0 -0.0211706 0)
(0 -0.00276829 0)
(0 -0.019755 0)
(0 -0.0196484 0)
(0 -0.0210142 0)
(0 -0.0195268 0)
(0 -0.0577347 0)
(0 -0.0570483 0)
(0 -0.0590479 0)
(0 -0.0130881 0)
(0 -0.00718358 0)
(0 -0.00707468 0)
(0 -0.007604 0)
(0 -0.00695525 0)
(0 -0.00745501 0)
(0 -0.00682567 0)
(0 -0.0637768 0)
(0 -0.00632587 0)
(0 -0.00621524 0)
(0 -0.0700132 0)
(0 -0.0643958 0)
(0 -0.0644462 0)
(0 -0.07245 0)
(0 -0.072269 0)
(0 -0.072367 0)
(0 -0.0721809 0)
(0 -0.0722785 0)
(0 -0.0732806 0)
(0 -0.0258258 0)
(0 -0.0738895 0)
(0 -0.073881 0)
(0 -0.0738858 0)
(0 -0.0738779 0)
(0 -0.0738826 0)
(0 -0.0738744 0)
(0 -0.0738795 0)
(0 -0.0738701 0)
(0 -0.0738758 0)
(0 -0.0738648 0)
(0 -0.0738707 0)
(0 -0.0738807 0)
(0 -0.0738757 0)
(0 -0.0738847 0)
(0 -0.0738799 0)
(0 -0.0738586 0)
(0 -0.0738879 0)
(0 -0.0738835 0)
(0 -0.0738744 0)
(0 -0.0738781 0)
(0 -0.0738875 0)
(0 -0.0738812 0)
(0 -0.0738714 0)
(0 -0.0738746 0)
(0 -0.0738836 0)
(0 -0.0738773 0)
(0 -0.0738857 0)
(0 -0.0738792 0)
(0 -0.0738872 0)
(0 -0.0738803 0)
(0 -0.0738879 0)
(0 -0.0738806 0)
(0 -0.073888 0)
(0 -0.0738803 0)
(0 -0.0738873 0)
(0 -0.0738644 0)
(0 -0.0738888 0)
(0 -0.0738794 0)
(0 -0.0738856 0)
(0 -0.0738715 0)
(0 -0.0738711 0)
(0 -0.0738635 0)
(0 -0.0729612 0)
(0 -0.0730587 0)
(0 -0.0208356 0)
(0 -0.0181339 0)
(0 -0.011625 0)
(0 -0.00514329 0)
(0 -0.00520835 0)
(0 -0.00569101 0)
(0 -0.00525895 0)
(0 -0.0436554 0)
(0 -0.0720762 0)
(0 -0.00259341 0)
(0 -0.00242039 0)
(0 -0.0218097 0)
(0 -0.0732523 0)
(0 -0.0729659 0)
(0 -0.0729261 0)
(0 -0.0730249 0)
(0 -0.0643155 0)
(0 -0.0636728 0)
(0 -0.00729666 0)
(0 -0.0719811 0)
(0 -0.00572949 0)
(0 -0.00529433 0)
(0 -0.00483002 0)
(0 -0.00486351 0)
(0 -0.0738772 0)
(0 -0.073883 0)
(0 -0.0728923 0)
(0 -0.0729865 0)
(0 -0.072851 0)
(0 -0.0729415 0)
(0 -0.0649812 0)
(0 -0.0650128 0)
(0 -0.0613099 0)
(0 -0.00571624 0)
(0 -0.00562429 0)
(0 -0.0180498 0)
(0 -0.0166263 0)
(0 -0.0568927 0)
(0 -0.0562067 0)
(0 -0.0563595 0)
(0 -0.0555105 0)
(0 -0.0556546 0)
(0 -0.0548024 0)
(0 -0.0549396 0)
(0 -0.0540755 0)
(0 -0.0542095 0)
(0 -0.0533592 0)
(0 -0.0534491 0)
(0 -0.0526284 0)
(0 -0.0526721 0)
(0 -0.0518344 0)
(0 -0.0518867 0)
(0 -0.0510331 0)
(0 -0.0510921 0)
(0 -0.0502429 0)
(0 -0.0575687 0)
(0 -0.0502858 0)
(0 -0.0494407 0)
(0 -0.0509215 0)
(0 -0.0494685 0)
(0 -0.0486293 0)
(0 -0.048568 0)
(0 -0.0477611 0)
(0 -0.0478092 0)
(0 -0.0469465 0)
(0 -0.0535109 0)
(0 -0.0531212 0)
(0 -0.0469807 0)
(0 -0.0461239 0)
(0 -0.0460627 0)
(0 -0.0452456 0)
(0 -0.0452964 0)
(0 -0.0444286 0)
(0 -0.0444656 0)
(0 -0.043609 0)
(0 -0.0436321 0)
(0 -0.0427796 0)
(0 -0.042791 0)
(0 -0.0419457 0)
(0 -0.0419069 0)
(0 -0.0410822 0)
(0 -0.0411161 0)
(0 -0.0402615 0)
(0 -0.0401948 0)
(0 -0.0393833 0)
(0 -0.0443471 0)
(0 -0.039444 0)
(0 -0.0385764 0)
(0 -0.0384834 0)
(0 -0.0376908 0)
(0 -0.0377694 0)
(0 -0.0368988 0)
(0 -0.0369606 0)
(0 -0.0361069 0)
(0 -0.0361534 0)
(0 -0.0353164 0)
(0 -0.0353487 0)
(0 -0.0345277 0)
(0 -0.0345464 0)
(0 -0.0337417 0)
(0 -0.0115175 0)
(0 -0.0375823 0)
(0 -0.0106036 0)
(0 -0.072455 0)
(0 -0.0723649 0)
(0 -0.00440522 0)
(0 -0.00443783 0)
(0 -0.0728002 0)
(0 -0.0728908 0)
(0 -0.0718683 0)
(0 -0.0267365 0)
(0 -0.026179 0)
(0 -0.027163 0)
(0 -0.0265826 0)
(0 -0.027539 0)
(0 -0.0269366 0)
(0 -0.0731733 0)
(0 -0.00568801 0)
(0 -0.00556047 0)
(0 -0.00515602 0)
(0 -0.00502264 0)
(0 -0.00728227 0)
(0 -0.0065922 0)
(0 -0.00665854 0)
(0 -0.0360153 0)
(0 -0.0118876 0)
(0 -0.00225403 0)
(0 -0.00209303 0)
(0 -0.00222774 0)
(0 -0.0308154 0)
(0 -0.0738909 0)
(0 -0.0738883 0)
(0 -0.0738788 0)
(0 -0.0738855 0)
(0 -0.0738925 0)
(0 -0.0738894 0)
(0 -0.0738954 0)
(0 -0.0738924 0)
(0 -0.0738974 0)
(0 -0.0738948 0)
(0 -0.0738991 0)
(0 -0.0738966 0)
(0 -0.0739004 0)
(0 -0.0738981 0)
(0 -0.0739015 0)
(0 -0.0738993 0)
(0 -0.0738953 0)
(0 -0.0738967 0)
(0 -0.0739003 0)
(0 -0.0738978 0)
(0 -0.0739011 0)
(0 -0.0738988 0)
(0 -0.0739018 0)
(0 -0.0738997 0)
(0 -0.0739024 0)
(0 -0.0739004 0)
(0 -0.0739029 0)
(0 -0.0739011 0)
(0 -0.0739034 0)
(0 -0.0739015 0)
(0 -0.0739037 0)
(0 -0.0739019 0)
(0 -0.073904 0)
(0 -0.0739023 0)
(0 -0.0739043 0)
(0 -0.0739027 0)
(0 -0.0739046 0)
(0 -0.0739031 0)
(0 -0.0739008 0)
(0 -0.0739012 0)
(0 -0.0739034 0)
(0 -0.0739016 0)
(0 -0.0739037 0)
(0 -0.0739019 0)
(0 -0.073904 0)
(0 -0.0739023 0)
(0 -0.0738987 0)
(0 -0.0738992 0)
(0 -0.0738973 0)
(0 -0.073892 0)
(0 -0.0738822 0)
(0 -0.0105216 0)
(0 -0.0725299 0)
(0 -0.0724414 0)
(0 -0.0722648 0)
(0 -0.0723408 0)
(0 -0.0725114 0)
(0 -0.0724078 0)
(0 -0.0725736 0)
(0 -0.0724655 0)
(0 -0.0726262 0)
(0 -0.0725144 0)
(0 -0.0726702 0)
(0 -0.0725537 0)
(0 -0.0727057 0)
(0 -0.0725848 0)
(0 -0.0724215 0)
(0 -0.0724484 0)
(0 -0.0726076 0)
(0 -0.0724674 0)
(0 -0.0726227 0)
(0 -0.0724779 0)
(0 -0.0726308 0)
(0 -0.0724791 0)
(0 -0.0726283 0)
(0 -0.0723249 0)
(0 -0.0722934 0)
(0 -0.0722753 0)
(0 -0.0724711 0)
(0 -0.072615 0)
(0 -0.0336908 0)
(0 -0.0329265 0)
(0 -0.0329595 0)
(0 -0.0321685 0)
(0 -0.0651973 0)
(0 -0.0724523 0)
(0 -0.0725927 0)
(0 -0.00575168 0)
(0 -0.0657582 0)
(0 -0.0738925 0)
(0 -0.0729081 0)
(0 -0.0655301 0)
(0 -0.055677 0)
(0 -0.064201 0)
(0 -0.0635333 0)
(0 -0.0566948 0)
(0 -0.0573569 0)
(0 -0.0739051 0)
(0 -0.026262 0)
(0 -0.0165858 0)
(0 -0.0717658 0)
(0 -0.00512719 0)
(0 -0.00505373 0)
(0 -0.00552146 0)
(0 -0.00496852 0)
(0 -0.0730682 0)
(0 -0.0739041 0)
(0 -0.0716445 0)
(0 -0.0321812 0)
(0 -0.0313987 0)
(0 -0.00959854 0)
(0 -0.00954759 0)
(0 -0.015133 0)
(0 -0.0151247 0)
(0 -0.00450399 0)
(0 -0.00443627 0)
(0 -0.00487197 0)
(0 -0.0043564 0)
(0 -0.00192377 0)
(0 -0.00206781 0)
(0 -0.0724231 0)
(0 -0.0725623 0)
(0 -0.072273 0)
(0 -0.0727216 0)
(0 -0.0726898 0)
(0 -0.072524 0)
(0 -0.0726501 0)
(0 -0.0739058 0)
(0 -0.0246235 0)
(0 -0.0046191 0)
(0 -0.00448049 0)
(0 -0.00596841 0)
(0 -0.00600107 0)
(0 -0.0526918 0)
(0 -0.0260038 0)
(0 -0.0263363 0)
(0 -0.025426 0)
(0 -0.0257381 0)
(0 -0.0248487 0)
(0 -0.0251407 0)
(0 -0.0242725 0)
(0 -0.0245446 0)
(0 -0.0236976 0)
(0 -0.0239497 0)
(0 -0.0231242 0)
(0 -0.0233575 0)
(0 -0.022554 0)
(0 -0.0241584 0)
(0 -0.0235485 0)
(0 -0.0243243 0)
(0 -0.023698 0)
(0 -0.0244485 0)
(0 -0.0250948 0)
(0 -0.0251925 0)
(0 -0.0245319 0)
(0 -0.0142972 0)
(0 -0.0137148 0)
(0 -0.0138818 0)
(0 -0.0132409 0)
(0 -0.0134562 0)
(0 -0.0128733 0)
(0 -0.0130426 0)
(0 -0.0124786 0)
(0 -0.0126149 0)
(0 -0.0120589 0)
(0 -0.0121764 0)
(0 -0.00398569 0)
(0 -0.00401837 0)
(0 -0.00393851 0)
(0 -0.00445511 0)
(0 -0.00403577 0)
(0 -0.00176662 0)
(0 -0.0674156 0)
(0 -0.0727425 0)
(0 -0.0728357 0)
(0 -0.0727593 0)
(0 -0.0653821 0)
(0 -0.0659311 0)
(0 -0.0648162 0)
(0 -0.0314064 0)
(0 -0.0727452 0)
(0 -0.0252491 0)
(0 -0.0728063 0)
(0 -0.0728499 0)
(0 -0.0564497 0)
(0 -0.0570985 0)
(0 -0.0151336 0)
(0 -0.0165184 0)
(0 -0.0511133 0)
(0 -0.0738998 0)
(0 -0.00487879 0)
(0 -0.00433214 0)
(0 -0.00472452 0)
(0 -0.00417458 0)
(0 -0.00456235 0)
(0 -0.00861373 0)
(0 -0.0085966 0)
(0 -0.00870176 0)
(0 -0.0245749 0)
(0 -0.00360628 0)
(0 -0.00362524 0)
(0 -0.00403738 0)
(0 -0.00362864 0)
(0 -0.0148942 0)
(0 -0.0724747 0)
(0 -0.0306421 0)
(0 -0.0306287 0)
(0 -0.0328483 0)
(0 -0.0222973 0)
(0 -0.0217483 0)
(0 -0.0116207 0)
(0 -0.0117323 0)
(0 -0.0214688 0)
(0 -0.0209413 0)
(0 -0.0212016 0)
(0 -0.0204156 0)
(0 -0.0206569 0)
(0 -0.0198913 0)
(0 -0.0196294 0)
(0 -0.0191259 0)
(0 -0.019369 0)
(0 -0.0186245 0)
(0 -0.0183618 0)
(0 -0.0178814 0)
(0 -0.017599 0)
(0 -0.0171404 0)
(0 -0.0188491 0)
(0 -0.00392539 0)
(0 -0.00386183 0)
(0 -0.0152956 0)
(0 -0.00162024 0)
(0 -0.0369766 0)
(0 -0.013655 0)
(0 -0.0739033 0)
(0 -0.0444663 0)
(0 -0.0154439 0)
(0 -0.0136959 0)
(0 -0.0649896 0)
(0 -0.0640533 0)
(0 -0.0647109 0)
(0 -0.063361 0)
(0 -0.0334984 0)
(0 -0.072678 0)
(0 -0.00147705 0)
(0 -0.0727647 0)
(0 -0.072912 0)
(0 -0.0727693 0)
(0 -0.0715357 0)
(0 -0.0714058 0)
(0 -0.0127335 0)
(0 -0.0163241 0)
(0 -0.0103706 0)
(0 -0.0101417 0)
(0 -0.0108518 0)
(0 -0.0105959 0)
(0 -0.011299 0)
(0 -0.0110176 0)
(0 -0.0117128 0)
(0 -0.0114073 0)
(0 -0.0120934 0)
(0 -0.0107317 0)
(0 -0.0569722 0)
(0 -0.00476394 0)
(0 -0.0040772 0)
(0 -0.0168368 0)
(0 -0.016407 0)
(0 -0.00322429 0)
(0 -0.00323039 0)
(0 -0.0111624 0)
(0 -0.0112708 0)
(0 -0.0461582 0)
(0 -0.064555 0)
(0 -0.0651998 0)
(0 -0.0207875 0)
(0 -0.0211563 0)
(0 -0.025266 0)
(0 -0.00531194 0)
(0 -0.00530991 0)
(0 -0.0561592 0)
(0 -0.0555104 0)
(0 -0.0567968 0)
(0 -0.0577288 0)
(0 -0.0245779 0)
(0 -0.0239068 0)
(0 -0.0110497 0)
(0 -0.00343623 0)
(0 -0.00338874 0)
(0 -0.0655453 0)
(0 -0.0660467 0)
(0 -0.00764367 0)
(0 -0.00766919 0)
(0 -0.0166861 0)
(0 -0.0159919 0)
(0 -0.065044 0)
(0 -0.0117653 0)
(0 -0.010716 0)
(0 -0.0108071 0)
(0 -0.0102792 0)
(0 -0.0103466 0)
(0 -0.064412 0)
(0 -0.0156944 0)
(0 -0.0259688 0)
(0 -0.0738917 0)
(0 -0.0121914 0)
(0 -0.0122743 0)
(0 -0.0124407 0)
(0 -0.00951452 0)
(0 -0.00402268 0)
(0 -0.0266234 0)
(0 -0.00134654 0)
(0 -0.0658124 0)
(0 -0.0652084 0)
(0 -0.0659967 0)
(0 -0.065395 0)
(0 -0.066164 0)
(0 -0.0655638 0)
(0 -0.0663197 0)
(0 -0.0657211 0)
(0 -0.0664576 0)
(0 -0.0658646 0)
(0 -0.0665788 0)
(0 -0.0659935 0)
(0 -0.0666873 0)
(0 -0.0661031 0)
(0 -0.0667809 0)
(0 -0.066195 0)
(0 -0.0654914 0)
(0 -0.0655652 0)
(0 -0.0662743 0)
(0 -0.0656105 0)
(0 -0.0663335 0)
(0 -0.0656715 0)
(0 -0.0663345 0)
(0 -0.0657036 0)
(0 -0.0663271 0)
(0 -0.0657216 0)
(0 -0.0663623 0)
(0 -0.0657347 0)
(0 -0.0663901 0)
(0 -0.0657281 0)
(0 -0.066392 0)
(0 -0.0656959 0)
(0 -0.0650018 0)
(0 -0.0649611 0)
(0 -0.0656461 0)
(0 -0.0649034 0)
(0 -0.0655731 0)
(0 -0.0648233 0)
(0 -0.0654816 0)
(0 -0.0647207 0)
(0 -0.0647591 0)
(0 -0.0650135 0)
(0 -0.0649302 0)
(0 -0.0642287 0)
(0 -0.065368 0)
(0 -0.0645957 0)
(0 -0.0639113 0)
(0 -0.0637799 0)
(0 -0.0630456 0)
(0 -0.0629121 0)
(0 -0.0662017 0)
(0 -0.0652283 0)
(0 -0.0670325 0)
(0 -0.0667286 0)
(0 -0.0621286 0)
(0 -0.06199 0)
(0 -0.0627594 0)
(0 -0.061829 0)
(0 -0.0669386 0)
(0 -0.0672016 0)
(0 -0.0625847 0)
(0 -0.0616446 0)
(0 -0.0622488 0)
(0 -0.0612787 0)
(0 -0.0613854 0)
(0 -0.00122597 0)
(0 -0.00134711 0)
(0 -0.00602128 0)
(0 -0.00529412 0)
(0 -0.00602814 0)
(0 -0.00526375 0)
(0 -0.072868 0)
(0 -0.0730077 0)
(0 -0.0730411 0)
(0 -0.00421147 0)
(0 -0.00283366 0)
(0 -0.00284354 0)
(0 -0.0123247 0)
(0 -0.0313734 0)
(0 -0.0305811 0)
(0 -0.0574119 0)
(0 -0.0583131 0)
(0 -0.00366897 0)
(0 -0.00380037 0)
(0 -0.0557639 0)
(0 -0.0660444 0)
(0 -0.0665324 0)
(0 -0.0665317 0)
(0 -0.0626978 0)
(0 -0.029922 0)
(0 -0.0305445 0)
(0 -0.0036199 0)
(0 -0.0670016 0)
(0 -0.0669851 0)
(0 -0.0669963 0)
(0 -0.0725754 0)
(0 -0.0725028 0)
(0 -0.0098239 0)
(0 -0.00987888 0)
(0 -0.0103883 0)
(0 -0.0099119 0)
(0 -0.0551835 0)
(0 -0.0545441 0)
(0 -0.00619364 0)
(0 -0.00620258 0)
(0 -0.00665161 0)
(0 -0.00664742 0)
(0 -0.00710395 0)
(0 -0.0061935 0)
(0 -0.00296941 0)
(0 -0.00293783 0)
(0 -0.00332831 0)
(0 -0.00289263 0)
(0 -0.00298758 0)
(0 -0.0120908 0)
(0 -0.0127557 0)
(0 -0.00602094 0)
(0 -0.00521813 0)
(0 -0.0252412 0)
(0 -0.0245412 0)
(0 -0.0162305 0)
(0 -0.062389 0)
(0 -0.0614397 0)
(0 -0.060649 0)
(0 -0.0632784 0)
(0 -0.0124182 0)
(0 -0.0107486 0)
(0 -0.0108738 0)
(0 -0.0106028 0)
(0 -0.0726012 0)
(0 -0.00245445 0)
(0 -0.00246927 0)
(0 -0.00283808 0)
(0 -0.00246897 0)
(0 -0.017278 0)
(0 -0.00669842 0)
(0 -0.0716579 0)
(0 -0.0714214 0)
(0 -0.0715406 0)
(0 -0.00109427 0)
(0 -0.00119703 0)
(0 -0.0650367 0)
(0 -0.0656683 0)
(0 -0.0628303 0)
(0 -0.0626288 0)
(0 -0.000984792 0)
(0 -0.00325472 0)
(0 -0.00283395 0)
(0 -0.00247966 0)
(0 -0.00243557 0)
(0 -0.00242516 0)
(0 -0.0729625 0)
(0 -0.0730924 0)
(0 -0.00462307 0)
(0 -0.00464701 0)
(0 -0.00662361 0)
(0 -0.00616601 0)
(0 -0.0200459 0)
(0 -0.020386 0)
(0 -0.0215229 0)
(0 -0.0207229 0)
(0 -0.0218821 0)
(0 -0.0210452 0)
(0 -0.0222346 0)
(0 -0.0213557 0)
(0 -0.0225826 0)
(0 -0.0216618 0)
(0 -0.0229227 0)
(0 -0.00941173 0)
(0 -0.00943528 0)
(0 -0.064571 0)
(0 -0.00325709 0)
(0 -0.00338744 0)
(0 -0.00311897 0)
(0 -0.0579997 0)
(0 -0.07371 0)
(0 -0.0604371 0)
(0 -0.0595949 0)
(0 -0.071296 0)
(0 -0.0714091 0)
(0 -0.0736173 0)
(0 -0.0715078 0)