/*--------------------------------*- C++ -*----------------------------------*\
| =========                 |                                                 |
| \\      /  F ield         | OpenFOAM: The Open Source CFD Toolbox           |
|  \\    /   O peration     | Version:  v2012                                 |
|   \\  /    A nd           | Website:  www.openfoam.com                      |
|    \\/     M anipulation  |                                                 |
\*---------------------------------------------------------------------------*/
FoamFile
{
    version     2.0;
    format      ascii;
    class       volVectorField;
    location    "1000";
    object      U_0;
}
// * * * * * * * * * * * * * * * * * * * * * * * * * * * * * * * * * * * * * //

dimensions      [0 1 -1 0 0 0 0];


internalField   nonuniform List<vector> 
13917
(
(1.09774 0.121288 2.51527e-20)
(1.02095 0.0416671 0)
(0.591513 -0.0773799 8.16934e-22)
(1.05537 -0.0114436 -3.3561e-22)
(0.996234 0.00333121 1.22513e-20)
(0.358671 0.0558309 -5.36163e-21)
(0.51922 -0.066995 -1.25905e-20)
(0.594562 -0.0755895 0)
(0.400208 -0.0621604 0)
(1.14185 0.150285 1.43752e-20)
(1.11387 -0.06787 -7.44403e-20)
(1.09108 -0.0466457 0)
(1.05583 -0.0122063 3.29248e-20)
(-0.0145675 -0.00717877 3.87729e-20)
(0.972327 0.0945144 0)
(0.995634 0.0890541 6.49743e-22)
(1.01534 0.0469249 3.32706e-22)
(1.14195 0.0180622 -1.16146e-20)
(1.09 -0.0460842 -5.79165e-21)
(1.00154 0.00483152 -2.8914e-21)
(0.999978 0.00106268 3.82867e-21)
(0.497452 -0.0653857 0)
(1.00099 0.00795044 6.16859e-21)
(0.653902 -0.0804972 -1.81316e-20)
(0.994966 0.0150938 1.25667e-21)
(0.531637 -0.0626453 0)
(0.782984 0.0347175 -4.69134e-20)
(0.757706 0.122649 -7.32356e-20)
(0.733699 0.573146 -4.45633e-20)
(1.1967 0.0896188 -9.94386e-20)
(1.11229 0.11106 9.98246e-22)
(1.06125 0.0891516 -7.9617e-21)
(0.837333 0.0694384 0)
(0.910283 0.00100002 4.22376e-20)
(0.991399 0.0120804 -6.14143e-21)
(1.11791 -0.0854741 2.56461e-20)
(1.0009 0.00751148 0)
(0.111363 -0.0325552 -4.22501e-20)
(1.06223 -0.0170075 5.82463e-21)
(0.297194 -0.0107281 -3.40532e-20)
(1.00861 0.000806498 0)
(0.999987 0.000455504 5.74017e-21)
(1.02073 0.00244187 4.54774e-21)
(0.703428 0.205592 -8.39778e-20)
(1.03912 0.0243188 -7.99179e-21)
(0.891677 0.0148808 0)
(1.13937 0.0162618 -5.1936e-21)
(1.14263 -0.015874 -1.38176e-20)
(0.104395 0.138557 3.27992e-20)
(1.00353 0.000788612 -3.62075e-23)
(1.08606 0.0138016 -1.51677e-20)
(0.965281 0.00970428 0)
(0.0754284 0.117464 3.83397e-20)
(0.905645 0.00227462 -4.83351e-20)
(1.01417 0.0479152 4.94207e-22)
(1.08612 0.0378748 3.60357e-20)
(1.11506 -0.0671102 5.65956e-20)
(0.995579 0.0297421 2.54358e-21)
(1.07201 0.0443858 2.91652e-20)
(1.03768 0.0238886 0)
(0.5353 0.0448848 -2.76039e-21)
(1.02248 0.0417334 0)
(-0.0285186 -0.00205921 -4.32156e-20)
(1.00164 0.00522582 -1.35819e-21)
(0.385799 0.0680964 0)
(1.03145 0.345279 -2.85099e-20)
(0.995429 -0.000525512 1.6874e-21)
(0.988019 -0.00145409 -7.22103e-21)
(1.15707 -0.0542831 0)
(1.06456 0.135955 2.20114e-22)
(0.996631 0.00348698 -1.16191e-20)
(0.459554 -0.0697464 3.50024e-20)
(-0.096892 -0.01994 -1.37318e-20)
(0.995548 0.0147114 0)
(0.105823 0.212132 1.38588e-19)
(1.08329 -0.052033 0)
(-0.104137 -0.0139396 5.67638e-20)
(1.05438 0.0266307 0)
(0.54353 -0.0554508 -9.14808e-21)
(0.999903 0.00215811 7.03024e-21)
(1.00009 0.00325218 1.12332e-20)
(0.995984 -0.000401413 -1.55678e-20)
(0.404778 0.131538 -2.74273e-19)
(0.138336 -0.0371544 2.42337e-20)
(-0.0977214 0.0126701 0)
(1.05328 0.0254571 6.95818e-21)
(1.00038 0.00417616 7.78976e-21)
(1.18014 0.42227 1.53868e-19)
(1.08417 0.0137506 -2.19268e-20)
(1.02117 0.00244256 -7.43054e-21)
(-0.022047 -0.0274717 0)
(1.17832 0.12967 0)
(1.0233 0.0233763 -6.06226e-21)
(0.973928 0.0534908 2.04479e-20)
(1.131 0.416553 -1.45022e-19)
(0.386009 -0.00518722 -2.54653e-19)
(1.13212 -0.0536517 -8.84168e-21)
(1.14299 -0.00593178 8.56903e-22)
(1.0863 -0.0615408 -2.33033e-20)
(0.608639 0.131067 -1.19787e-19)
(1.01139 0.00581174 -1.31329e-21)
(0.844528 0.000917774 4.9537e-20)
(0.693103 0.190391 5.22642e-20)
(1.06173 0.0197578 1.14682e-20)
(1.01658 0.012229 -1.06972e-21)
(0.469425 -0.0630537 0)
(0.81436 0.511527 0)
(1.14522 -0.0171141 1.59282e-20)
(1.01721 0.0474207 -1.18973e-22)
(1.11259 0.125957 -3.48284e-20)
(-0.169324 -0.014352 1.34308e-19)
(0.305096 -0.0115629 3.32422e-20)
(1.0916 -0.0531649 2.34584e-21)
(0.43265 -0.0627687 0)
(0.948034 0.00846547 2.17419e-22)
(0.0825737 -0.113133 0)
(1.00087 0.0139332 -8.39541e-21)
(0.200625 0.0971612 -3.01429e-20)
(0.171577 -0.0150844 0)
(0.907076 0.0148642 1.1217e-20)
(0.999985 0.000890725 3.0365e-21)
(1.15771 -0.0525248 -2.36001e-20)
(0.133211 -0.0169696 6.44927e-21)
(0.76652 0.115861 -5.40213e-20)
(1.00523 0.000692101 2.64827e-23)
(0.975339 0.050899 1.61001e-20)
(1.03458 0.027887 0)
(1.00485 0.000561808 -1.15911e-22)
(1.01805 0.00173728 0)
(0.361571 0.00905634 3.00019e-19)
(0.234222 -0.0331675 -1.01808e-20)
(0.95048 0.00755058 2.90109e-20)
(1.0395 0.0253121 6.98223e-21)
(0.99998 0.000841008 0)
(1.26718 -0.00615343 -7.07909e-21)
(0.670827 -0.0841892 0)
(1.09517 0.125914 0)
(0.584785 0.132166 2.31723e-19)
(0.995114 -0.000137359 0)
(0.907993 0.0106058 0)
(1.10809 -0.0822647 0)
(1.02479 0.0130611 0)
(0.962183 0.0218342 -1.27959e-21)
(0.655294 0.202417 0)
(0.987378 -0.00113988 -5.51927e-22)
(0.674048 -0.0734549 -5.15268e-20)
(0.804489 0.578971 1.3197e-20)
(0.967214 0.0101608 0)
(1.02343 0.0110014 4.258e-21)
(1.05623 0.0984102 0)
(1.11738 -0.0254458 0)
(0.0924158 -0.146898 0)
(1.1113 -0.0496277 4.40102e-23)
(1.02734 0.180208 7.67673e-21)
(1.07773 0.063031 0)
(-0.0595763 0.04835 0)
(1.05971 0.13327 0)
(1.13667 -0.090858 0)
(-0.126415 -0.0114044 -4.48323e-20)
(1.26201 -0.00462961 6.50214e-20)
(0.939887 0.0440966 0)
(0.78327 -0.0257897 -8.68221e-20)
(1.00003 0.00225649 1.11684e-20)
(1.12999 -0.0527504 0)
(1.09242 -0.0525588 7.86449e-21)
(1.08741 -0.0612852 2.45106e-20)
(1.06084 0.0206566 -1.17801e-20)
(1.12922 -0.018093 4.13442e-20)
(1.03238 0.0208684 -8.96409e-21)
(0.837574 -0.00331448 -8.73241e-20)
(1.04694 0.172934 1.14665e-20)
(-0.295317 -0.00214517 0)
(1.08906 -0.0552156 0)
(1.01302 0.0560808 -2.02397e-22)
(0.826082 -0.0825222 0)
(1.0168 0.201127 -2.13629e-21)
(0.256414 -0.0376266 4.25261e-21)
(0.16344 0.0989622 3.32096e-20)
(0.732365 -0.0765583 6.01168e-20)
(1.0127 0.0268465 0)
(1.18371 0.124429 0)
(1.1177 0.109537 -3.03573e-20)
(1.0253 0.0126146 0)
(1.00038 0.00454557 -5.89129e-21)
(0.936639 0.113953 0)
(0.587002 -0.0663794 2.13621e-20)
(1.26296 0.133858 5.01058e-20)
(-0.00636812 0.0486886 0)
(1.1173 0.0406003 -1.66104e-20)
(1.09457 -0.0613657 2.04604e-21)
(1.13117 -0.0850092 -2.81914e-20)
(-0.04779 0.0166927 0)
(1.25445 0.174281 -2.8456e-20)
(0.999748 0.0078266 6.99112e-21)
(0.563436 0.0653511 1.61211e-19)
(0.793621 0.036459 3.38091e-20)
(1.00751 0.000304982 0)
(1.0235 0.0243843 0)
(0.875461 0.445336 0)
(1.21404 0.475453 -2.30054e-19)
(1.07647 -0.00360474 -1.43905e-20)
(1.00322 0.000704588 -1.38788e-21)
(1.12256 -0.0184089 1.58255e-20)
(1.11545 -0.0254605 8.03953e-21)
(-0.124284 -0.0164959 -1.46029e-20)
(1.24582 -0.040077 -2.65915e-20)
(0.991724 0.0112392 -6.83792e-21)
(0.994856 0.0307999 -3.01887e-21)
(1.14042 -0.00770351 4.49352e-20)
(0.608541 -0.0741945 0)
(0.964437 0.0222249 -1.33562e-20)
(0.503052 -0.0685192 0)
(-0.171115 -0.0110378 -3.12604e-20)
(1.0956 -0.0611244 0)
(1.01619 0.012502 0)
(0.494266 0.411161 1.83899e-19)
(1.13277 -0.00636216 0)
(-0.258994 -0.00951055 2.28308e-19)
(1.003 0.0183186 -2.45438e-21)
(0.688698 0.0663659 -1.52585e-19)
(1.01231 0.0258826 0)
(1.18871 0.066433 0)
(1.00843 0.00100046 0)
(0.0900774 -0.035805 0)
(0.44791 -0.0618095 7.17924e-20)
(0.99663 0.0925479 -6.31341e-21)
(1.19546 0.479662 1.17948e-19)
(1.08079 0.0619731 0)
(1.01549 0.0120631 -3.99523e-22)
(1.11376 -0.0842487 -5.46528e-20)
(1.0881 -0.0545116 0)
(1.11598 0.0381119 -2.35626e-20)
(0.679922 -0.0820889 0)
(-0.191367 -0.00857165 0)
(1.01237 0.00302997 0)
(1.06456 0.090289 2.63467e-21)
(0.00773211 -0.0311404 0)
(-0.140804 0.0158452 1.48171e-20)
(0.999994 0.00252693 -6.60573e-21)
(1.00623 0.00910194 0)
(0.346351 -0.0102237 0)
(1.13793 -0.055509 1.07565e-20)
(1.00004 0.000133996 -3.31381e-21)
(1.09289 -0.0779255 1.65545e-20)
(1.17634 0.00831678 3.72907e-20)
(0.793134 -0.0308438 1.06417e-19)
(1.09532 0.10663 0)
(1.00005 0.00245277 -1.01214e-20)
(0.980128 0.205762 1.04859e-20)
(-0.161851 -0.00960856 6.90532e-20)
(1.04103 0.00297059 7.10344e-21)
(1.20008 0.140681 -1.00833e-19)
(0.570295 0.176741 7.39433e-20)
(1.03429 0.0266212 0)
(0.994989 0.0281017 -1.41932e-20)
(1.10662 -0.0428905 0)
(0.361956 -0.0171642 -1.41276e-20)
(1.11036 -0.0482851 -2.33723e-20)
(0.937516 0.118656 -1.97347e-20)
(0.975713 0.0971598 0)
(1.00004 0.000234891 0)
(0.112001 -0.0124459 -7.61424e-21)
(0.650376 -0.0425087 4.69102e-21)
(1.08715 -0.0756306 -2.51337e-20)
(1.01503 0.0123183 0)
(-0.149946 -0.0154848 -5.84272e-20)
(-0.00728846 -0.0118838 -2.04026e-20)
(1.0892 -0.0928953 3.4335e-20)
(0.525011 -0.0535597 -2.57816e-21)
(1.08341 -0.0530109 -2.82464e-20)
(1.00004 0.0030345 -5.29225e-22)
(1.00638 0.000836641 -8.80963e-24)
(1.13837 0.0112157 6.99391e-20)
(0.0134886 -0.0255917 2.38786e-21)
(1.16568 -0.0291237 -7.13444e-20)
(1.07045 0.0423044 -1.3457e-20)
(1.24123 -0.0406837 -2.70901e-20)
(1.07753 -0.03781 1.756e-20)
(1.01795 0.00114998 -3.19763e-21)
(0.935482 0.0162968 -4.7518e-20)
(1.00195 0.00472465 0)
(0.787912 -0.0817695 0)
(1.07468 -0.00319575 4.08072e-21)
(1.00007 0.000136188 2.65736e-21)
(1.00051 0.109592 6.42234e-21)
(1.02167 0.182129 6.1079e-21)
(0.783519 -0.0133912 -7.45096e-20)
(1.09527 -0.0794142 0)
(0.998314 0.145315 -1.2676e-21)
(1.04379 0.00955295 1.91396e-20)
(1.24673 0.0130273 1.13584e-19)
(0.69004 -0.0820959 0)
(0.550777 -0.0450237 -1.05054e-19)
(1.00271 0.0178018 -4.68193e-21)
(1.06093 -0.0899118 -3.45257e-20)
(0.998386 0.00041009 -2.82294e-21)
(1.04383 0.00860915 2.65842e-20)
(1.00099 0.0132923 1.18827e-20)
(0.816975 0.618909 -4.51645e-21)
(1.00163 0.000850801 0)
(1.19354 0.0662044 -5.8272e-20)
(1.09076 0.106464 0)
(1.03195 0.0199131 -1.17474e-20)
(1.1223 -0.0206812 -3.98985e-21)
(1.03841 0.0568697 5.86857e-22)
(0.113583 0.0607414 -2.12528e-19)
(1.01596 0.195972 5.22906e-21)
(1.17251 0.127138 -6.81917e-20)
(1.03044 0.0139462 1.19734e-20)
(0.995668 0.0271243 1.10223e-20)
(-0.189775 -0.0118934 -1.10287e-19)
(0.101034 -0.0151668 4.07023e-20)
(1.00112 0.0145292 0)
(1.00726 0.000883389 1.34066e-22)
(0.989139 0.0249182 0)
(1.01599 0.0253771 1.04486e-21)
(-0.0742089 -0.0225756 -7.56263e-20)
(1.02951 0.0138462 -6.00561e-21)
(0.106454 -0.0369905 8.54936e-21)
(1.04714 -0.00534501 -5.86046e-21)
(1.21247 0.324605 1.02165e-19)
(1.10203 0.00205404 -3.54286e-20)
(0.111277 0.284373 -2.75893e-19)
(0.943714 0.0438291 1.01613e-20)
(1.30433 0.00153722 2.51851e-21)
(0.510688 0.304358 0)
(1.00355 0.107347 0)
(1.13994 -0.0541222 -4.95936e-20)
(0.95659 0.523792 -1.78187e-20)
(0.996 0.0439182 0)
(0.173769 -0.032435 -1.06899e-20)
(0.571473 0.0443107 -1.78195e-19)
(-0.000728055 -0.0148764 -2.98049e-21)
(0.92167 0.0196808 -4.09929e-21)
(0.223476 -0.0111192 -1.78967e-26)
(1.0708 0.0884059 1.14449e-20)
(-0.0774026 -0.0047481 0)
(0.528752 0.283226 0)
(0.922648 0.353959 1.55165e-20)
(0.938872 0.348754 -7.77342e-21)
(0.534979 -0.0746812 6.01382e-20)
(0.999727 0.00269209 -1.12141e-21)
(1.05329 0.17614 1.5646e-20)
(-0.135432 -0.0154453 -1.82369e-19)
(0.982678 0.0297936 0)
(1.0024 0.0719637 7.5403e-21)
(0.0159909 -0.0121845 0)
(0.862445 0.480077 -1.15411e-20)
(1.01786 0.0529095 0)
(1.12078 -0.0823014 -7.42059e-20)
(0.703302 0.5456 3.88341e-20)
(1.00941 0.00507479 4.89254e-22)
(0.151843 -0.0111226 1.06902e-20)
(1.11932 -0.0848227 3.03791e-20)
(1.00208 0.00508964 4.6782e-23)
(1.00961 0.0130493 2.06155e-22)
(0.998575 0.000244522 2.79532e-21)
(1.02382 0.0106282 5.11339e-21)
(1.23873 0.0107109 -8.72376e-20)
(0.772035 -0.0793316 0)
(0.385508 -0.276142 0)
(-0.156164 -0.0134935 3.15965e-20)
(0.997997 0.0146279 -3.33854e-21)
(1.20699 0.139965 9.08699e-20)
(-0.197336 0.0184806 2.56626e-21)
(1.11301 -0.00919755 -4.13326e-20)
(0.482665 -0.0664478 6.96854e-21)
(0.0424787 -0.0306358 -9.98179e-20)
(0.41194 -0.061257 0)
(1.01361 0.005531 -1.73277e-21)
(1.08409 -0.0741868 4.5849e-20)
(1.01081 0.0126079 -4.59803e-22)
(0.816574 0.0805196 5.38692e-20)
(1.03679 0.0245719 7.67679e-21)
(0.0856232 0.332344 1.44222e-19)
(1.17929 0.0104556 0)
(1.06492 -0.00914675 1.19922e-20)
(0.999575 0.00323633 0)
(1.13783 -0.00632877 5.17222e-20)
(1.18973 0.125584 -2.96004e-20)
(1.15807 0.00427299 -2.40005e-21)
(0.327313 1.09819 7.16396e-20)
(-0.120635 -0.00557719 0)
(-0.285485 -0.00689011 -1.96384e-19)
(0.98526 0.213825 5.45381e-21)
(1.13541 0.147327 0)
(1.00591 0.00865751 5.94962e-23)
(-0.115564 0.0166941 -5.66042e-20)
(0.487313 -0.0628389 0)
(0.999626 0.0336688 5.91786e-22)
(1.28424 0.00634312 -5.32971e-20)
(0.99571 0.0108897 0)
(1.21198 -0.0233313 1.22438e-19)
(1.04724 -0.00475356 -6.27184e-21)
(0.999795 0.00228049 1.02885e-21)
(1.03379 0.0600335 4.95007e-21)
(0.575259 -0.0478277 0)
(1.03201 0.0603331 -1.81005e-21)
(0.382144 -0.0210755 0)
(-0.0622281 0.0371509 0)
(1.10683 -0.0649607 3.37448e-21)
(0.442493 0.284647 -1.98418e-19)
(0.997746 0.0435632 -7.44247e-21)
(0.49598 0.368308 -2.37347e-19)
(0.468688 0.309372 1.56451e-20)
(1.00217 0.010144 2.55994e-21)
(0.827041 0.480806 1.05279e-20)
(0.984081 0.0295386 -1.69616e-22)
(0.994478 0.0127785 5.65295e-21)
(1.19519 0.094265 0)
(1.00007 0.000352428 2.15678e-21)
(0.993818 0.0145252 0)
(1.01105 0.0124003 5.07548e-22)
(1.23899 0.0146394 -5.15677e-20)
(0.999949 0.001719 -7.40393e-21)
(0.232604 -0.0132796 0)
(0.670534 -0.0582613 -9.21839e-21)
(-0.129964 0.0144479 0)
(1.24992 0.1807 2.9948e-20)
(0.363451 -0.029608 -6.38505e-21)
(-0.240459 -0.0110972 5.15587e-21)
(1.11088 -0.00954993 6.46396e-20)
(0.998352 0.0140057 9.10149e-21)
(1.20985 0.00821113 0)
(1.06196 -0.0157884 0)
(1.06941 0.0958174 0)
(0.999754 0.00835448 0)
(0.702328 -0.0781185 -2.45147e-20)
(0.549574 -0.0704866 0)
(0.725939 -0.0610449 0)
(0.984352 0.0877206 -5.78822e-22)
(1.18012 -0.00173051 2.31716e-20)
(0.925034 0.0167618 6.9946e-21)
(1.06355 -0.0175258 1.16509e-20)
(1.1559 0.00272033 3.97792e-21)
(1.01966 0.0618106 -1.78026e-21)
(1.08365 -0.0727387 0)
(1.01829 0.0461972 0)
(1.00161 0.00100306 0)
(-0.0427546 -0.0263423 7.20358e-20)
(0.252692 -0.0356322 -4.56857e-21)
(0.273294 -0.0388236 -4.25063e-21)
(1.18216 0.210347 6.79546e-21)
(-0.138129 0.0100926 -3.62663e-20)
(0.201971 -0.0375186 -9.38434e-21)
(-0.0882847 -0.0242166 3.11866e-20)
(-0.0663849 -0.0149247 4.54944e-20)
(1.01726 0.00188247 1.0859e-21)
(1.13991 0.00183984 2.60092e-20)
(1.02171 0.0616366 1.04935e-21)
(0.992527 0.0313937 0)
(1.24461 -0.0335767 4.80949e-20)
(1.1405 0.0128638 -3.94666e-20)
(1.01876 -0.000106059 1.19358e-21)
(1.15923 0.0467726 -3.60034e-21)
(1.11178 -0.00410166 -2.41901e-20)
(-0.0574601 -0.0123287 0)
(1.00234 0.0105248 -3.17643e-21)
(1.14768 -0.0420954 -9.37966e-20)
(-0.0114478 0.00870899 5.40277e-20)
(1.23253 0.339377 3.38607e-20)
(0.234254 -0.0174519 2.12832e-20)
(0.999949 0.00150177 7.8533e-21)
(0.998482 0.0341248 -6.39003e-21)
(1.01151 0.000431146 -2.42947e-21)
(1.05457 0.137135 7.83127e-22)
(1.01354 0.00512532 2.7513e-21)
(0.649489 -0.0691436 -2.07286e-20)
(0.397021 -0.236697 0)
(1.00121 0.139894 -3.12286e-21)
(-0.0749218 0.0249583 -9.27005e-20)
(1.08552 0.0354699 3.05578e-21)
(1.12815 -0.0545656 -3.67637e-20)
(-0.0491693 -0.0266166 -9.03086e-20)
(0.825842 0.579673 -7.48961e-22)
(1.10567 -0.0642466 0)
(1.11319 -0.0840932 -1.09309e-20)
(1.14686 -0.0438181 6.34091e-20)
(1.1575 0.0639548 1.31521e-20)
(1.19928 -0.00846336 1.03019e-19)
(1.09429 -0.0284698 0)
(1.09792 -0.0676629 7.29502e-21)
(0.375181 0.111229 1.59379e-19)
(1.08957 -0.0365405 2.5184e-20)
(1.14377 -0.0259125 -1.82632e-20)
(1.01491 0.000699024 -5.05107e-21)
(1.26906 -0.0149932 -6.28059e-20)
(1.08917 0.0166479 -1.17491e-20)
(1.03016 0.00332425 8.15401e-23)
(1.05013 0.133596 -9.68276e-21)
(1.05679 0.0248853 -1.0559e-21)
(-0.0544242 -0.0155084 0)
(0.456425 -0.0668709 0)
(1.01527 0.0243887 -4.54966e-22)
(1.01784 0.000928822 -5.49217e-21)
(0.676443 -0.0756581 2.28179e-20)
(-0.262442 -0.00810661 -2.46002e-20)
(1.00006 0.000267095 1.77357e-21)
(0.211919 -0.0126508 -1.28552e-21)
(1.05716 0.00424955 0)
(1.23827 0.160696 4.44316e-20)
(1.01465 0.0263098 2.08546e-22)
(-0.154806 -0.0132148 0)
(1.19096 -0.0765266 -1.00474e-19)
(1.05919 0.0960676 0)
(1.03749 0.0374634 7.35152e-21)
(0.388705 -0.0339461 -1.61192e-20)
(1.25189 0.132412 1.47927e-19)
(-0.257761 0.00761696 -1.30823e-19)
(1.00004 0.000318118 4.09664e-23)
(-0.160462 -0.0116448 6.20727e-20)
(0.13589 0.0602424 0)
(0.963423 0.0265084 -7.86463e-20)
(1.0303 0.00383189 1.03732e-20)
(-0.129863 0.0130593 -2.15312e-20)
(0.307238 -0.0446344 4.46225e-20)
(1.1103 -0.0131763 5.84227e-20)
(1.01016 0.0131008 -2.16296e-22)
(1.00929 0.0473481 0)
(1.08125 -0.0522903 2.27108e-20)
(1.21614 -0.026751 0)
(1.01919 -0.000110929 7.07564e-22)
(1.00913 0.0123466 4.21503e-22)
(1.00512 0.00243948 -2.64805e-22)
(1.00544 0.00255276 2.67116e-22)
(-0.174753 -0.0136936 0)
(1.24356 -0.0294296 2.62235e-20)
(1.10987 -0.0118013 -3.89429e-20)
(1.2615 0.120571 0)
(1.00641 0.000655377 0)
(1.01094 0.0055218 2.26561e-21)
(1.17667 -0.00331355 1.1372e-20)
(0.168024 -0.0420586 0)
(1.10731 0.051268 2.23538e-20)
(1.03353 0.0211107 1.08277e-20)
(0.994825 0.0132445 0)
(0.992335 -0.00012024 -6.06313e-21)
(0.902924 0.01721 8.66299e-20)
(-0.00280975 0.0187806 0)
(1.00053 0.00394453 3.45729e-21)
(0.992549 0.00289364 5.78906e-21)
(1.08191 -0.0730073 -7.97506e-21)
(1.09489 -0.0269836 2.21041e-20)
(1.10106 0.000704519 -2.31175e-20)
(0.997467 0.0326067 0)
(1.02928 0.0632302 3.14442e-21)
(1.04473 0.0946414 0)
(1.14133 -0.0266671 3.48199e-20)
(0.952197 0.497294 0)
(1.26624 0.128812 -1.12954e-19)
(1.21058 0.00423642 3.55402e-20)
(1.16375 -0.0175125 4.3588e-20)
(1.24158 -0.0442871 1.41846e-20)
(1.17208 0.120227 0)
(1.00189 0.0172329 0)
(-0.148283 -0.0118376 -5.58708e-20)
(0.992678 -0.00062766 1.06856e-20)
(1.00303 0.0748578 -8.29244e-21)
(1.06703 -0.00164972 0)
(1.26959 -0.0161595 0)
(0.994257 0.290829 -4.78354e-22)
(1.01015 0.00124002 9.84528e-22)
(1.23494 0.328157 -6.64582e-20)
(1.20524 0.0824408 -2.31229e-20)
(-0.0968373 -0.00687491 -2.45087e-19)
(1.16525 -0.0153775 0)
(0.88783 0.136203 -2.03375e-20)
(1.11419 -0.00493814 -2.99454e-20)
(0.999441 0.00352736 0)
(0.480291 -0.04617 2.28915e-20)
(1.22395 0.317947 -2.85139e-20)
(0.366609 -0.0606103 5.11283e-21)
(1.01762 0.0440334 0)
(1.09701 0.0408928 8.93208e-21)
(1.26452 0.116089 0)
(0.0509447 -0.0326994 3.53616e-20)
(-0.195664 0.000888755 0)
(1.14572 -0.00748968 -3.11528e-20)
(1.19097 0.21202 2.72991e-20)
(0.991734 0.0881132 0)
(1.05706 0.056025 -1.10342e-20)
(0.996362 0.0331126 6.45968e-21)
(0.890144 0.232548 0)
(0.671041 0.184163 -5.2503e-20)
(0.973374 -0.0035397 -8.32014e-21)
(1.13025 -0.00774299 0)
(0.569108 0.151384 -1.68131e-19)
(0.380814 -0.0623474 -2.94381e-20)
(-0.251144 0.00930109 0)
(1.0324 0.0732871 3.77089e-21)
(1.12622 -0.0539103 1.55694e-20)
(1.19744 -0.0758081 7.27308e-20)
(1.00511 0.11777 -1.60378e-21)
(0.968018 0.0242121 -2.55141e-20)
(0.174903 0.544876 -2.34992e-20)
(0.651461 -0.0624701 0)
(0.619115 -0.0765062 1.33241e-20)
(1.2565 0.104144 0)
(1.01794 0.00197072 5.87022e-22)
(0.157002 -0.013586 1.23217e-20)
(1.0822 -0.0516578 0)
(1.01007 0.000924591 7.46588e-22)
(1.09488 0.0733093 0)
(1.12601 -0.0367636 2.46761e-20)
(0.846727 0.0710885 -1.17342e-20)
(1.19332 0.084866 7.33841e-20)
(0.532123 -0.0576603 0)
(1.19582 -0.00909354 -3.0352e-20)
(1.09064 -0.0248801 -7.56211e-21)
(0.481209 -0.0457746 1.95926e-20)
(1.05904 0.0309893 0)
(-0.0871415 -0.0126888 2.48147e-20)
(0.999991 0.00224831 4.20877e-22)
(1.00053 0.00424969 -6.03863e-21)
(1.0372 -0.0914338 6.89851e-20)
(0.621361 -0.0635334 3.10271e-22)
(0.376697 0.242859 1.09967e-19)
(1.05957 0.0295632 0)
(1.01431 0.0541531 -5.78664e-22)
(0.992982 0.00335026 5.31536e-21)
(1.07875 -0.0380461 -1.97062e-20)
(0.0784493 0.17744 -9.96749e-21)
(1.0874 -0.0602882 0)
(1.05937 0.0564219 1.78101e-21)
(1.10588 -0.0624613 0)
(1.13536 -0.00787478 0)
(1.01451 0.0270418 0)
(1.17322 0.4881 -3.86935e-20)
(1.08643 -0.0596437 2.32463e-21)
(1.07975 -0.0680088 3.12341e-20)
(1.00476 0.019791 2.92537e-21)
(1.1913 -0.0136694 -6.96536e-20)
(1.05595 0.0264563 1.0857e-21)
(-0.0193408 0.0478885 1.38387e-20)
(1.14765 0.146896 -4.3301e-20)
(1.00502 0.283756 0)
(1.0982 0.0428008 2.65571e-21)
(1.00793 0.00288118 0)
(1.02813 0.00609344 -6.86604e-21)
(1.03583 0.0284419 -7.18692e-21)
(0.969524 0.354339 -4.45649e-22)
(0.890138 0.0199612 0)
(1.25341 0.0443113 -7.65938e-20)
(0.471398 0.811687 -2.62571e-20)
(1.12949 -0.0156423 -5.94736e-20)
(1.00894 0.00502721 -6.89428e-22)
(1.19996 -0.00172712 0)
(0.373855 0.273451 -2.31971e-20)
(1.12748 -0.0882552 4.23277e-20)
(1.04031 0.00351549 0)
(0.899753 0.0329501 0)
(1.00859 0.0122537 -9.54255e-22)
(1.07599 -0.0183963 6.02902e-21)
(1.07443 0.043969 -3.82219e-20)
(0.285004 -0.0448383 0)
(0.999865 0.00235043 7.40848e-21)
(1.24227 0.506496 1.0254e-19)
(1.07742 -0.0155054 -1.4234e-24)
(1.11187 -0.0681821 -3.40874e-20)
(1.17541 0.141994 0)
(-0.109779 -0.0178535 -2.9922e-20)
(1.02792 0.281625 -1.16159e-20)
(1.00888 0.0456869 1.0434e-21)
(-0.0203281 -0.0228366 -1.07991e-20)
(-0.267276 -0.0050837 -7.89811e-20)
(1.00649 0.0351325 1.32467e-21)
(1.06593 -0.00241957 3.00346e-21)
(1.19669 -0.0702659 0)
(1.24795 0.106415 0)
(1.16271 -0.0295501 1.07809e-19)
(1.00016 0.000388477 -2.15536e-21)
(1.03877 0.0373925 -2.50198e-21)
(1.19997 0.315652 -4.79758e-20)
(1.06546 -0.0101112 0)
(1.15792 0.0079326 -1.5822e-20)
(1.10592 -0.0410491 3.14449e-20)
(1.02879 0.00594673 7.51224e-21)
(1.11297 -0.0280857 0)
(0.600801 -0.0779361 -2.7713e-20)
(1.03977 0.00195696 7.31225e-21)
(1.05301 -0.00756328 0)
(1.00457 0.00259326 0)
(0.0989026 -0.0130657 -2.6377e-20)
(0.999954 0.00102866 8.98789e-22)
(0.984646 0.0838342 9.72251e-21)
(-0.290231 -0.00445227 0)
(0.99373 0.0685413 -7.18503e-21)
(0.682216 -0.0621522 3.20699e-20)
(1.07663 0.065784 0)
(0.831531 0.0753059 0)
(1.00491 0.0027157 0)
(1.02422 0.215671 8.27664e-21)
(1.00072 0.0126074 -8.64648e-21)
(1.15553 0.0721252 1.31468e-20)
(1.0076 0.00172809 -4.68893e-22)
(1.08645 0.261658 0)
(1.05691 0.0050329 1.96199e-20)
(0.235157 0.13724 0)
(0.434366 0.68653 0)
(0.165277 -0.0428135 4.81296e-20)
(1.01101 0.00041524 1.71835e-21)
(0.999659 0.00289573 0)
(1.16642 0.117154 -7.24662e-20)
(1.12728 0.112886 2.03893e-20)
(0.053778 -0.0169646 0)
(0.278619 -0.0532098 -4.45235e-20)
(1.14293 0.0217444 -5.94567e-20)
(0.992752 0.0115928 5.64999e-21)
(1.23804 0.0127568 0)
(0.343764 0.217956 -1.9006e-19)
(1.0781 -0.0682633 -2.9278e-20)
(1.25063 0.0477054 9.35045e-20)
(1.13365 0.00746879 0)
(0.57545 -0.0558859 1.2236e-21)
(1.08794 0.130341 2.55146e-20)
(1.07712 -0.0365152 0)
(1.20695 0.0212781 3.99633e-20)
(0.857506 0.424315 -1.27781e-20)
(1.14128 0.0237424 4.48786e-20)
(0.305146 0.294073 0)
(1.14173 0.0300555 -2.0047e-20)
(1.05884 -0.00628317 0)
(1.12746 -0.0382768 2.89392e-20)
(1.00774 0.108836 0)
(1.03364 0.00470388 4.76962e-21)
(1.07597 -0.0174099 0)
(1.11435 0.120804 -1.2451e-21)
(1.05205 0.0968593 -1.31692e-20)
(0.999577 0.0125209 1.47412e-20)
(1.00686 0.000522921 -1.27963e-22)
(1.13255 -0.0122454 4.2617e-20)
(1.06318 0.0103699 6.30202e-21)
(1.16098 0.00940872 0)
(0.99345 0.0112724 2.86398e-21)
(0.995287 0.00883252 0)
(0.999963 0.000817205 0)
(1.02511 0.06342 1.50041e-22)
(1.02336 0.00106608 -2.32457e-21)
(1.05017 0.0825436 1.65462e-20)
(1.00405 0.00275043 -1.39576e-21)
(-0.162189 -0.0124677 0)
(1.08788 -0.0468307 -1.22764e-20)
(0.470032 -0.282553 0)
(1.01235 0.00522241 5.12292e-22)
(1.00007 0.00170118 0)
(0.802783 0.1457 0)
(1.16086 0.0617829 1.52019e-20)
(0.953364 0.00345386 -3.17847e-20)
(0.806199 -0.000365378 -9.66202e-20)
(1.13754 0.197525 7.12901e-20)
(0.993512 0.10747 -5.05331e-20)
(1.07737 -0.0165231 0)
(1.18659 -0.00373736 0)
(1.05172 0.0150046 8.35505e-21)
(0.999906 0.00108394 0)
(1.0057 0.00227731 0)
(1.03666 0.0579284 1.13443e-21)
(-0.318633 -0.00215979 -3.73754e-21)
(1.00005 0.00144332 -2.42671e-21)
(1.18141 -0.052473 -2.81502e-20)
(1.05157 0.084952 -7.81933e-21)
(-0.195674 0.0213732 -1.54815e-19)
(0.968566 0.225411 -5.53377e-21)
(1.14484 0.195459 -8.28818e-20)
(1.11038 -0.0674279 3.49512e-20)
(1.02101 0.00629143 3.91645e-21)
(1 4.50405e-05 0)
(1.08909 -0.04726 3.34675e-20)
(0.988148 0.00345078 -1.37051e-20)
(0.985669 0.0432012 -1.76516e-20)
(0.946263 -0.00136279 4.04461e-20)
(1.01406 0.057991 -5.5392e-22)
(0.998613 0.000922497 0)
(1.08687 0.0538124 -1.60758e-20)
(1.00638 0.00778648 0)
(1.01679 0.000884399 0)
(1.05855 0.0918517 8.57915e-21)
(0.884665 -0.0232931 8.18382e-21)
(0.0329027 -0.012786 2.08822e-20)
(1.08307 0.110296 0)
(1.03974 0.00143897 8.63545e-21)
(1.00928 0.000966444 -1.48915e-21)
(0.0830699 -0.0375259 0)
(0.954958 0.362016 -2.25986e-21)
(1.00241 0.0422826 2.45967e-21)
(1.01864 0.0433709 2.86285e-22)
(0.898313 0.00277185 1.31352e-19)
(1.19973 -0.0723317 4.99248e-20)
(-0.298841 -0.00708903 -9.78134e-20)
(0.895654 0.136656 1.72302e-20)
(1.05977 -0.00551998 0)
(1.01199 0.00315255 2.53966e-23)
(1.01701 0.00103947 -2.46108e-21)
(1.09104 -0.0367189 -2.57185e-20)
(1.08778 0.111302 0)
(1.12583 -0.0788905 -2.76267e-20)
(0.917706 0.019665 0)
(0.149059 -0.0277477 0)
(1.02905 0.0427312 -2.80737e-21)
(0.965416 0.0594602 7.54258e-21)
(-0.308057 -0.0036816 -1.44506e-19)
(0.995517 0.0103273 -7.02047e-21)
(1.09016 0.014983 0)
(1.00532 0.0316093 4.53539e-21)
(1.00206 0.00128851 -1.14982e-21)
(1.10705 0.126378 0)
(0.77352 -0.00707586 9.60812e-20)
(1.04956 0.027215 -1.50921e-20)
(0.646415 -0.0627207 0)
(0.317083 -0.015115 1.64179e-20)
(1.17977 0.13703 -3.94976e-20)
(1.00221 0.0178399 0)
(1.02523 0.00259391 0)
(1.09264 -0.0607012 0)
(1.20281 -0.0491528 -4.33483e-20)
(1.00007 0.000437283 4.67593e-23)
(1.23421 -0.0480597 1.31345e-20)
(1.02474 0.00276095 2.78304e-21)
(1.11077 0.1157 3.10932e-20)
(1.03428 -0.00176627 -3.0731e-21)
(1.03479 0.00637856 -9.39765e-21)
(1.22561 -0.0262273 0)
(1.04026 0.0156891 1.279e-20)
(1.01355 -0.0649148 0)
(1.11598 0.0882018 0)
(0.999957 0.000755622 3.84868e-21)
(1.02034 0.00340806 0)
(0.981243 0.00126706 -2.10891e-20)
(1.0098 0.020323 -1.84899e-22)
(1.0526 -0.00656042 5.82992e-21)
(0.272266 0.688819 -6.33282e-20)
(1.03858 0.00385036 -6.70963e-21)
(1.03109 0.0103442 -7.86955e-21)
(0.354464 -0.0646593 3.27522e-20)
(0.585494 -0.0715521 6.34233e-20)
(1.0919 -0.026263 -3.15507e-20)
(1.12189 0.114207 1.97504e-21)
(1.15077 -0.000909057 3.32515e-20)
(1.07743 0.0233895 1.0064e-20)
(1.0247 0.0142478 0)
(0.88775 0.0126497 5.97711e-20)
(-0.131259 -0.0154642 8.92563e-20)
(1.09628 0.26299 1.92782e-20)
(0.99829 0.00547483 0)
(1.03616 0.0366188 0)
(0.309892 -0.0559354 7.77413e-20)
(1.11461 0.0181194 3.36805e-20)
(-0.108976 -0.0151889 -7.19974e-20)
(0.99996 0.000985662 -2.62815e-22)
(0.950964 0.00427954 3.34148e-20)
(0.0811637 -0.0118198 -4.34548e-20)
(1.10685 0.0122904 0)
(1.05165 0.0257772 7.26783e-21)
(-0.312094 -0.000602038 1.25877e-19)
(0.213024 0.240524 3.04258e-20)
(1.01007 0.0197846 6.99139e-22)
(1.20267 0.022596 0)
(1.00602 0.00239231 -6.147e-23)
(1.03912 0.0156781 -1.7049e-20)
(1.01272 0.00549401 -1.43154e-21)
(-0.124257 -0.0185447 3.15291e-20)
(1.02296 0.000928195 -4.52358e-21)
(1.03886 -0.00392713 7.84896e-21)
(1.02524 0.0138056 0)
(0.965952 -0.0646833 0)
(1.06175 -0.0136027 -7.15593e-21)
(1.24245 0.153915 0)
(0.700995 -0.0927695 7.40667e-20)
(1.03528 0.00456041 -8.10556e-21)
(0.844749 0.0279609 0)
(1.00056 0.00374211 1.32892e-22)
(-0.146079 -0.0133542 0)
(1.00555 0.0103887 -1.30198e-21)
(1.03923 0.00330042 0)
(0.998674 0.00142098 -1.28881e-21)
(1.09346 -0.0614763 -1.94902e-21)
(0.998501 0.00129938 3.91174e-22)
(1.19473 -0.0131277 8.8215e-20)
(0.32456 -0.0102108 7.91803e-21)
(0.717758 -0.0833142 0)
(0.904649 0.0334204 0)
(1.11956 -0.0840445 1.18329e-20)
(-0.264716 -0.00590137 -2.41793e-20)
(0.996832 0.0273236 0)
(0.137584 -0.0104641 -2.40038e-20)
(0.408211 0.0387109 8.31194e-20)
(-0.24288 -0.00621023 -4.81272e-20)
(0.350273 -0.0291818 -1.27812e-20)
(0.335222 -0.0636699 -5.02659e-20)
(0.107077 0.162122 1.03045e-19)
(1.19645 -0.000435557 1.07731e-19)
(1.01097 0.0482966 0)
(0.516657 -0.0556755 1.07237e-20)
(1.10628 0.0143352 0)
(0.454312 -0.0596974 1.45657e-20)
(1.02963 0.0042271 -3.54375e-21)
(1.02415 0.0229068 2.37775e-21)
(1.00388 0.0432335 -4.17174e-21)
(1.00059 0.00403913 0)
(1.08227 0.0187325 0)
(0.891632 0.0923124 0)
(0.101776 -0.0196872 -1.6625e-20)
(1.02397 0.0219383 4.68701e-21)
(0.993838 0.00415541 -1.72356e-22)
(-0.226603 0.0143535 -7.52107e-20)
(0.974362 0.45437 -1.49689e-20)
(0.981406 -1.4998e-05 2.26108e-20)
(0.811538 -0.0524644 0)
(1.0944 0.0556941 2.18206e-20)
(1.04532 0.0212223 0)
(0.496649 0.723422 0)
(0.80538 -0.0472471 0)
(0.952169 0.0516072 -4.91673e-22)
(1.06218 -0.0128899 0)
(0.295446 -0.0111015 1.71829e-20)
(-0.292974 -0.00321181 1.07693e-19)
(0.222683 0.0627833 -1.21306e-19)
(1.03385 -0.00130191 0)
(1.24876 0.139927 0)
(1.20174 0.0785766 1.54303e-20)
(-0.225958 0.00123909 -5.16828e-20)
(0.395355 -0.0604324 -1.2257e-19)
(1.08615 -0.0545323 4.87898e-20)
(1.01572 0.0263489 -1.56504e-22)
(1.05275 0.0157165 8.94667e-21)
(1.02765 0.0430979 0)
(1.01961 1.09935e-05 -2.41462e-21)
(1.02776 0.0644804 -3.44273e-21)
(1.01721 0.00164862 0)
(1.04712 0.0930528 -3.43708e-21)
(1.08375 0.130183 -3.55549e-22)
(-0.05554 0.0248007 4.68285e-20)
(1.1518 -0.0465855 0)
(1.03934 -0.00341028 0)
(1.18315 -0.00475829 0)
(-0.0716279 -0.0254129 -7.42474e-20)
(1.10365 0.121186 -2.74947e-20)
(0.972484 0.0241187 2.46686e-23)
(-0.0951587 -0.0109285 0)
(1.03073 0.0195672 6.61031e-21)
(0.986522 0.0411853 0)
(0.817793 0.0646191 -1.00807e-22)
(-0.0172538 0.0317906 0)
(0.99842 -9.83452e-05 -3.07254e-21)
(1.00432 0.020123 -1.20062e-21)
(0.483425 -0.0678268 -2.83595e-20)
(1.10952 -0.0815496 -4.69807e-20)
(1.19361 -0.076603 -1.37235e-19)
(1.16484 -0.0227448 8.59022e-23)
(1.11832 -0.0849376 -3.19019e-22)
(1.00794 0.0191021 1.28649e-21)
(1.20709 -0.00152335 0)
(0.971565 0.0260125 7.93189e-21)
(1.00366 0.0108962 -2.51297e-21)
(0.96936 0.0219845 1.68091e-20)
(0.607722 -0.0679122 1.85269e-20)
(-0.276513 -0.00806178 1.0384e-19)
(1.03223 0.00873093 9.70048e-21)