/*--------------------------------*- C++ -*----------------------------------*\
| =========                 |                                                 |
| \\      /  F ield         | OpenFOAM: The Open Source CFD Toolbox           |
|  \\    /   O peration     | Version:  v2012                                 |
|   \\  /    A nd           | Website:  www.openfoam.com                      |
|    \\/     M anipulation  |                                                 |
\*---------------------------------------------------------------------------*/
FoamFile
{
    version     2.0;
    format      ascii;
    class       surfaceVectorField;
    location    "1000";
    object      Uf;
}
// * * * * * * * * * * * * * * * * * * * * * * * * * * * * * * * * * * * * * //

dimensions      [0 1 -1 0 0 0 0];


internalField   nonuniform List<vector> 
20673
(
(1.09665 0.123828 1.11599e-20)
(1.10079 0.121255 -3.97828e-21)
(1.096 0.118763 2.54217e-20)
(1.02151 0.0416496 -1.61358e-22)
(1.02029 0.040986 -7.45745e-22)
(1.02052 0.0429454 3.9005e-22)
(0.55969 -0.0750052 -8.2707e-21)
(0.595529 -0.0773955 -7.7961e-21)
(0.622737 -0.078449 7.5855e-21)
(1.05566 -0.0119213 -1.88971e-22)
(1.05587 -0.0108792 -1.31206e-20)
(1.05476 -0.0112355 -2.50106e-21)
(0.996441 0.00338716 -4.02971e-21)
(0.996264 0.00296859 -5.25463e-21)
(0.995955 0.00352384 -5.2681e-21)
(0.371902 0.0587959 -6.36491e-21)
(0.360109 0.0317438 -5.42302e-21)
(0.343166 0.059668 6.74161e-20)
(0.505656 -0.0647122 1.18181e-20)
(0.499895 -0.0664921 1.88082e-21)
(0.551522 -0.0694178 1.92595e-20)
(0.619746 -0.0767647 0)
(0.569519 -0.0740287 4.65228e-21)
(0.58881 -0.0771106 0)
(0.429708 -0.0657881 4.71183e-21)
(0.39777 -0.0623395 -1.33841e-20)
(0.363673 -0.0581425 8.23462e-21)
(1.1382 0.148846 1.81905e-20)
(1.1444 0.148673 4.19601e-22)
(1.14206 0.154865 -3.7546e-20)
(1.11454 -0.0676293 1.40329e-20)
(1.11292 -0.0680266 3.36126e-20)
(1.11493 -0.0693316 9.71601e-21)
(1.09078 -0.0462149 3.60373e-21)
(1.09121 -0.0476333 9.02017e-21)
(1.09209 -0.0460637 -1.51442e-20)
(1.0565 -0.0122391 5.0729e-21)
(-0.0213388 -0.0049169 6.19512e-21)
(0.000359169 -0.00918766 4.68383e-20)
(-0.0279009 -0.00633051 4.06053e-20)
(0.97397 0.0958109 6.11316e-21)
(0.969758 0.0952438 2.2324e-20)
(0.972831 0.0915099 5.04832e-21)
(0.995912 0.0910035 -5.09035e-22)
(0.993598 0.0885498 -3.47943e-21)
(0.997292 0.08725 -2.34092e-21)
(1.01475 0.0474898 9.03321e-23)
(1.01619 0.0471467 1.84758e-22)
(1.01504 0.0459327 2.76486e-22)
(1.14104 0.0175506 -5.24083e-21)
(1.14211 0.0199248 -2.97599e-20)
(1.14394 0.0167217 3.99375e-20)
(1.08952 -0.0467314 -8.31885e-22)
(1.08997 -0.0451341 2.5599e-21)
(1.00159 0.00504049 5.11818e-22)
(1.00161 0.00481789 -1.46233e-21)
(1.00142 0.00466317 1.38515e-21)
(0.99998 0.000954458 0)
(0.999967 0.00128388 -2.02537e-21)
(0.999983 0.000964968 0)
(0.504396 -0.0652301 2.05753e-20)
(0.467863 -0.0648815 1.18773e-20)
(1.00091 0.00773113 3.06051e-21)
(1.00097 0.00815731 -2.78766e-22)
(1.0011 0.00801632 2.67971e-21)
(0.661513 -0.0825239 0)
(0.671513 -0.0831442 0)
(0.995236 0.0149041 -2.92027e-21)
(0.994757 0.0146879 -1.39747e-21)
(0.994983 0.0154747 -9.1434e-21)
(0.558001 -0.0641679 1.70749e-20)
(0.519905 -0.0604305 -5.25315e-21)
(0.516046 -0.0623107 1.52524e-20)
(0.788576 0.0353954 2.79884e-20)
(0.779609 0.0410289 1.42504e-20)
(0.780801 0.0291178 5.97722e-20)
(0.761357 0.11975 -3.16702e-20)
(0.759893 0.132277 -1.8444e-20)
(0.750945 0.123128 -1.0904e-20)
(0.717359 0.558563 5.99949e-21)
(0.748531 0.56896 -1.17601e-20)
(0.726721 0.602528 -2.19113e-20)
(1.19565 0.0921543 1.15414e-20)
(1.19509 0.0873421 1.80375e-21)
(1.20015 0.0882831 -2.40997e-21)
(1.11477 0.110384 -1.66446e-20)
(1.11162 0.113485 2.18571e-21)
(1.11048 0.108868 -2.90523e-20)
(1.06287 0.0898209 2.55119e-22)
(1.05997 0.0905414 2.68241e-22)
(1.06084 0.0871675 -5.77053e-23)
(0.842159 0.0700887 -5.80692e-21)
(0.834396 0.0728226 0)
(0.835659 0.0633763 0)
(0.907965 0.0016846 6.43122e-20)
(0.91071 -0.00132159 -1.10941e-20)
(0.91199 0.00257343 -1.18468e-20)
(0.991542 0.0116145 -1.44819e-21)
(0.990999 0.0122497 2.57364e-21)
(0.991708 0.0125079 2.95235e-21)
(1.11604 -0.0847076 0)
(1.118 -0.0851357 1.43194e-20)
(1.11736 -0.0873194 2.08458e-20)
(1.00078 0.0074114 -6.18944e-22)
(1.00092 0.0073127 0)
(0.123594 -0.0343767 1.1319e-20)
(0.0977103 -0.030808 0)
(0.110421 -0.0316682 0)
(1.06205 -0.0163156 0)
(1.06291 -0.0171509 0)
(0.30019 -0.0107688 -5.93717e-22)
(0.275733 -0.00761532 1.07459e-20)
(0.304121 -0.0102341 1.76211e-21)
(1.00852 0.000917433 2.6135e-22)
(1.00891 0.000900576 -3.74647e-22)
(1.00809 0.000519996 -3.46344e-22)
(0.999994 0.000677796 2.80023e-21)
(1 0.000316764 -1.21576e-21)
(0.999998 0.000345441 5.9272e-21)
(1.02097 0.00244527 -2.39476e-21)
(1.02067 0.0026185 2.1637e-21)
(1.02056 0.0023037 7.74043e-21)
(0.697222 0.195771 -5.39491e-20)
(0.713698 0.20349 8.50571e-20)
(0.696722 0.21762 -1.51884e-21)
(1.03839 0.0240942 9.64419e-22)
(1.03931 0.0248172 0)
(1.03957 0.02392 -6.20236e-21)
(0.890911 0.0177094 1.16417e-20)
(0.889433 0.0131422 -1.54929e-20)
(0.89484 0.0142798 2.55388e-20)
(1.14017 0.0142877 -3.54091e-20)
(1.1379 0.0175344 4.87185e-21)
(1.14403 -0.016409 1.47262e-20)
(1.14267 -0.0139725 6.58026e-21)
(1.14119 -0.0165629 -6.49816e-21)
(0.0908111 0.124498 0)
(0.0901417 0.160143 5.50195e-21)
(0.119906 0.139016 0)
(1.00333 0.00074315 2.52012e-22)
(1.00362 0.00067413 3.50203e-22)
(1.00356 0.00104276 2.9168e-22)
(1.08529 0.0139689 -3.3839e-21)
(1.08634 0.0149605 -3.70495e-21)
(1.0868 0.0133726 -2.93027e-21)
(0.966184 0.00989552 -6.19056e-21)
(0.964972 0.00855559 -5.44153e-21)
(0.964585 0.0106377 -2.85286e-20)
(0.0845071 0.0945966 7.001e-20)
(0.0510967 0.127456 1.10044e-19)
(0.9049 0.00479134 5.63696e-20)
(0.903749 0.000342884 8.25039e-21)
(1.01449 0.0490166 0)
(1.01318 0.0475733 1.10652e-21)
(1.08573 0.0366409 8.13278e-21)
(1.08501 0.0387074 7.06283e-22)
(1.0875 0.0383498 9.4198e-22)
(1.11655 -0.0673774 -2.46998e-20)
(1.11501 -0.0658097 -1.02389e-20)
(0.995211 0.0302871 -2.19994e-22)
(0.995248 0.0288705 -3.54131e-22)
(0.996298 0.0298524 1.25863e-21)
(1.07121 0.0432588 7.31598e-21)
(1.0733 0.0442658 -4.20126e-21)
(1.07128 0.0456629 2.82721e-20)
(1.03724 0.0242371 -3.95799e-21)
(1.03742 0.0233454 9.69316e-22)
(0.607212 0.0542234 7.37678e-20)
(0.458249 0.0370764 -4.08931e-20)
(0.516023 0.0413657 1.28642e-21)
(1.02278 0.0409625 0)
(1.02284 0.0428928 0)
(-0.019157 -0.00262528 -1.72007e-20)
(1.00159 0.00523909 9.24919e-23)
(1.00178 0.00540867 1.65208e-21)
(0.379912 0.0938729 9.22363e-20)
(0.403549 0.0630449 -5.06531e-20)
(1.12466 0.385543 -6.11388e-20)
(1.08634 0.358017 -1.12406e-20)
(0.827642 0.273055 -3.21763e-20)
(0.995727 -0.000459969 9.93498e-21)
(0.995272 -0.000306031 -4.1551e-21)
(0.98771 -0.00123014 1.12076e-20)
(0.988475 -0.00127655 1.87901e-21)
(1.15754 -0.0535472 1.53596e-21)
(1.15548 -0.0549022 -1.64576e-20)
(1.15878 -0.0560702 0)
(1.062 0.134958 6.44581e-22)
(1.06735 0.134917 0)
(1.06388 0.140995 -9.87092e-21)
(0.996869 0.00329053 6.03048e-21)
(0.996583 0.00380417 6.81822e-21)
(0.497309 -0.0733614 -4.40712e-21)
(0.461564 -0.0700803 2.70092e-21)
(-0.110906 -0.0179797 2.66904e-20)
(-0.0859475 -0.0213219 3.499e-21)
(-0.0936588 -0.0203774 4.14044e-20)
(0.99589 0.0150769 7.78415e-22)
(0.99562 0.0141423 -1.64045e-21)
(0.0909446 0.195038 -6.08228e-20)
(0.125707 0.213456 -6.07175e-21)
(0.0929544 0.233677 9.34708e-20)
(1.08335 -0.0525975 -2.0189e-21)
(1.08279 -0.0518534 7.73475e-21)
(1.08379 -0.0515838 1.32946e-20)
(-0.114544 -0.0119963 -2.6533e-20)
(-0.0894989 -0.016346 -3.36565e-20)
(-0.105151 -0.0122332 3.5726e-20)
(1.05384 0.0260475 -6.44209e-21)
(1.05519 0.0265744 1.79955e-21)
(1.05405 0.0276049 -1.85645e-20)
(0.531914 -0.0531363 -5.67742e-21)
(0.528849 -0.0555402 -3.91933e-21)
(0.568324 -0.0573004 8.37094e-21)
(0.999933 0.00193433 3.45805e-21)
(0.99988 0.00225845 3.50326e-21)
(0.9999 0.00230237 -7.34331e-23)
(1.00006 0.00313941 3.1691e-21)
(1.00008 0.00345178 -3.93134e-21)
(1.00009 0.00306696 -6.0552e-22)
(0.996135 -0.000152989 -1.41566e-20)
(0.38945 0.120102 1.88122e-20)
(0.399972 0.150211 -1.4545e-19)
(0.421274 0.12613 -7.83712e-21)
(0.153654 -0.0390471 3.19442e-20)
(0.14095 -0.0382703 1.4467e-21)
(-0.0729915 0.0151731 1.12719e-22)
(-0.115346 0.0120452 -3.62872e-20)
(-0.103879 0.0116915 1.08248e-19)
(1.05242 0.0256301 -3.33796e-21)
(1.05355 0.0247071 1.03539e-20)
(1.00038 0.00436139 -1.96838e-21)
(1.00044 0.00428184 3.15174e-21)
(1.00032 0.00395372 1.36816e-21)
(1.1408 0.413044 -3.91471e-20)
(1.22251 0.441859 8.70361e-21)
(1.08365 0.0129792 4.1746e-21)
(1.08348 0.0148173 -3.11906e-21)
(1.02124 0.00234202 2.96622e-21)
(1.02134 0.00264593 -3.73695e-21)
(-0.00845557 -0.0289427 -1.19946e-20)
(-0.0364461 -0.0259863 7.46948e-21)
(-0.0234293 -0.0268732 1.43946e-20)
(1.18142 0.126768 -5.46193e-21)
(1.17544 0.129006 3.94612e-21)
(1.17901 0.133312 -4.55936e-22)
(1.02341 0.0239214 1.47692e-21)
(1.02376 0.023134 2.7264e-21)
(1.02277 0.0231139 0)
(0.974546 0.0522827 -1.42017e-20)
(0.972486 0.05349 7.83801e-21)
(0.97495 0.0547887 -4.92705e-21)
(1.19929 0.438054 5.74977e-20)
(1.07352 0.408655 -1.0453e-19)
(0.374126 0.00462172 0)
(0.402854 -0.00257169 0)
(0.379948 -0.029941 0)
(1.13127 -0.0530246 -7.80062e-21)
(1.13324 -0.0530402 -3.26749e-20)
(1.13239 -0.0551089 0)
(1.14168 -0.00682619 -1.69153e-20)
(1.14441 -0.00667235 -1.30274e-20)
(1.14297 -0.00435687 -7.78749e-22)
(1.08692 -0.0615341 -1.13325e-20)
(1.08612 -0.0623048 1.91681e-20)
(1.08575 -0.0615701 -1.06527e-20)
(0.594927 0.13147 -1.69026e-21)
(0.614968 0.116976 4.82424e-20)
(0.61684 0.143374 9.98738e-20)
(1.01112 0.00565983 2.81142e-22)
(1.01158 0.00576325 0)
(1.01139 0.00615408 1.10548e-21)
(0.840886 -0.00157118 -1.43567e-20)
(0.844336 0.00579591 -5.34244e-22)
(0.848451 -0.000994148 2.27338e-20)
(0.680852 0.18908 -7.22717e-20)
(0.698814 0.180455 -1.8043e-20)
(1.06123 0.0202393 1.36951e-22)
(1.06246 0.0199685 -5.34946e-21)
(1.0614 0.0187234 9.69798e-21)
(1.01635 0.0123446 -2.45893e-22)
(1.01639 0.0117736 -5.00869e-22)
(1.01695 0.0123015 -1.06842e-21)
(0.448839 -0.0624992 8.49831e-21)
(0.43838 -0.0620939 -2.39557e-20)
(0.517311 -0.0639709 -4.68748e-20)
(0.821132 0.495683 4.32541e-21)
(0.792985 0.513749 -1.92124e-20)
(0.831935 0.521728 -6.04864e-21)
(1.14512 -0.0181436 6.67502e-21)
(1.14642 -0.0159196 7.39082e-21)
(1.01776 0.0467256 -2.30308e-22)
(1.01768 0.0484755 -8.4891e-23)
(1.11345 0.123404 1.67394e-20)
(1.10982 0.126183 -3.33229e-20)
(1.11463 0.128404 -1.63543e-20)
(-0.15348 -0.0146385 -1.47279e-20)
(-0.184751 -0.0138715 3.3056e-20)
(-0.171122 -0.0141462 6.14887e-20)
(0.316998 -0.0136404 0)
(0.293334 -0.0102707 0)
(1.09203 -0.0529673 -1.82554e-21)
(1.09105 -0.0533148 -9.60372e-21)
(1.0918 -0.0540304 1.64531e-20)
(0.448634 -0.0639554 9.36833e-21)
(0.382959 -0.0622095 4.15018e-20)
(0.949165 0.00806801 -5.75989e-21)
(0.947776 0.0100805 3.90558e-21)
(0.947073 0.00735231 -7.38388e-21)
(0.0879639 -0.129963 0)
(0.0989589 -0.100152 0)
(0.0610458 -0.105367 1.9163e-20)
(1.00094 0.013615 -1.25385e-21)
(1.00101 0.0142566 3.86657e-21)
(1.00065 0.0139249 6.58714e-21)
(0.181339 0.098096 -2.0817e-21)
(0.211403 0.0796508 8.05616e-21)
(0.212526 0.114791 -9.55238e-20)
(0.162336 -0.0125743 2.57445e-21)
(0.170491 -0.014609 9.43533e-21)
(0.183452 -0.0183169 -5.92974e-21)
(0.907465 0.0127205 6.35969e-21)
(0.904644 0.0159669 1.19516e-20)
(0.909254 0.0164357 9.32317e-21)
(1.00001 0.001028 0)
(0.999987 0.00101362 0)
(1.15941 -0.0523551 3.15159e-20)
(1.15682 -0.0515994 -3.7516e-20)
(0.121871 -0.0144594 0)
(0.142507 -0.0187104 0)
(0.134658 -0.0179769 -1.24882e-20)
(0.763212 0.107879 3.14499e-20)
(0.774912 0.116584 6.08529e-21)
(1.00502 0.000650701 -4.58326e-22)
(1.00524 0.000945705 -4.87421e-22)
(1.00535 0.000552008 -1.65075e-22)
(0.974491 0.0496205 1.59866e-20)
(0.976786 0.0509291 -8.53687e-21)
(1.03444 0.027289 7.3698e-22)
(1.0352 0.0281812 1.83646e-21)
(1.03411 0.0282461 0)
(1.0047 0.000665454 2.56533e-22)
(1.00457 0.000325454 -2.35742e-22)
(1.01798 0.00186303 0)
(1.01823 0.00170207 1.93063e-21)
(1.01792 0.00158987 0)
(0.345915 0.00569444 0)
(0.243285 -0.0360621 -1.89344e-21)
(0.231819 -0.0331602 8.45603e-21)
(0.221019 -0.029916 1.39923e-20)
(0.950706 0.00569849 -1.7428e-20)
(0.951705 0.00844442 1.11684e-20)
(1.0402 0.0255228 0)
(1.03899 0.0257708 0)
(0.999969 0.000928295 0)
(0.999998 0.000632089 0)
(1.26194 -0.00552896 0)
(1.27364 -0.00303507 0)
(1.23824 -0.0129936 1.34394e-20)
(0.708719 -0.0874028 2.29873e-20)
(0.651086 -0.0826794 1.78351e-20)
(1.09697 0.128618 9.91779e-24)
(1.09247 0.125717 -1.07796e-20)
(0.578485 0.142672 -8.20042e-20)
(0.578955 0.1148 -1.37766e-19)
(0.995232 0.000157951 -1.90871e-20)
(0.994775 -0.000205064 -8.66771e-21)
(0.906008 0.00876944 -1.38111e-20)
(0.910267 0.00991341 8.98034e-21)
(1.11102 -0.0832968 1.41655e-20)
(1.10816 -0.0826486 -3.04259e-20)
(1.10523 -0.0805541 2.21643e-20)
(1.02507 0.0128447 0)
(1.02501 0.0134113 0)
(1.02432 0.0129001 -2.50918e-21)
(0.96335 0.0219227 1.40345e-21)
(0.961216 0.0226612 1.64836e-20)
(0.961946 0.0200742 3.78154e-20)
(0.664002 0.19305 -8.01437e-20)
(0.643663 0.199317 3.73717e-20)
(0.662234 0.216008 1.02044e-20)
(0.987491 -0.000496858 2.59344e-20)
(0.986928 -0.00106561 1.40147e-20)
(0.701395 -0.07552 2.09765e-22)
(0.624 -0.0713577 -1.20992e-22)
(0.696564 -0.0744948 -3.8404e-20)
(0.810141 0.601188 1.7773e-22)
(0.817731 0.571725 -1.50147e-21)
(0.782896 0.572899 2.15354e-21)
(0.967501 0.0115245 7.78216e-21)
(0.968065 0.00935517 8.23836e-21)
(1.02363 0.0108029 3.45712e-21)
(1.02369 0.0113457 2.11133e-21)
(1.02303 0.0108662 9.48869e-22)
(1.05762 0.0971683 -8.39923e-21)
(1.054 0.0976447 -3.3408e-21)
(1.05656 0.101443 9.97434e-21)
(1.11673 -0.0252138 0)
(1.11823 -0.0268949 1.82135e-22)
(1.1183 -0.0240578 -1.98247e-20)
(0.112111 -0.151234 0)
(0.0727331 -0.160535 3.10969e-20)
(1.11086 -0.0487518 -1.40172e-20)
(1.11253 -0.0494934 7.92806e-21)
(1.1107 -0.0503286 6.4115e-21)
(1.02422 0.180894 -1.30355e-21)
(1.0273 0.176034 0)
(1.03182 0.180098 0)
(1.07932 0.0624854 -1.15675e-21)
(1.07725 0.0644607 -2.50942e-21)
(1.07652 0.061526 3.75573e-22)
(-0.0353383 0.0462505 8.69055e-20)
(-0.0539666 0.0522964 -2.14352e-21)
(-0.086752 0.0448099 -2.35893e-20)
(1.057 0.135503 6.12276e-22)
(1.05985 0.130618 5.38751e-21)
(1.11216 -0.0929755 1.78948e-20)
(1.13963 -0.0897681 -1.63541e-20)
(1.14565 -0.0894516 -8.34018e-21)
(-0.146551 -0.00969306 2.27016e-20)
(-0.122078 -0.0126352 2.97511e-20)
(1.28499 -0.00294914 -3.45387e-20)
(1.23089 -0.00352911 1.22561e-20)
(0.941752 0.0439328 -1.28565e-21)
(0.938959 0.0455451 -4.76587e-21)
(0.938813 0.041931 1.54426e-20)
(0.789037 -0.0279647 -1.29364e-20)
(0.783365 -0.0194867 4.75417e-20)
(0.777498 -0.0304274 3.97863e-20)
(1 0.00241487 0)
(1.00002 0.00233171 -3.3678e-22)
(0.999986 0.00198642 0)
(1.12893 -0.0536983 -7.51636e-21)
(1.12996 -0.0513165 -1.68171e-21)
(1.09332 -0.0526651 -2.25376e-21)
(1.09226 -0.0517572 1.9942e-20)
(1.08742 -0.0608195 -1.69492e-22)
(1.08799 -0.0615663 0)
(1.06105 0.0215326 7.17736e-21)
(1.06001 0.0203733 -2.25667e-21)
(1.12939 -0.0168532 9.03548e-22)
(1.12794 -0.0185599 1.82552e-20)
(1.13051 -0.0191681 3.30753e-20)
(1.03218 0.0204141 4.19088e-21)
(1.03299 0.0210314 6.92467e-22)
(1.03196 0.0212843 7.27657e-21)
(0.837686 -0.00783622 -1.28516e-20)
(0.83318 -0.000632405 -2.9485e-20)
(1.04942 0.174851 -1.98884e-21)
(1.0422 0.174297 -7.26678e-21)
(1.04744 0.168188 -2.17288e-21)
(-0.293002 -0.00325977 -5.06704e-22)
(-0.30985 -0.00191277 -9.95774e-21)
(-0.279373 -0.00350581 2.63927e-20)
(1.08863 -0.0548632 -6.6405e-21)
(1.08904 -0.0558178 2.86422e-20)
(1.08969 -0.0549333 2.33454e-20)
(1.01362 0.0553043 3.57261e-22)
(1.01356 0.0570924 5.1622e-25)
(1.01179 0.0558845 0)
(0.805286 -0.0817875 7.66498e-22)
(0.796415 -0.0819413 0)
(0.868535 -0.0824788 1.0244e-20)
(1.01632 0.198834 1.58177e-21)
(1.01342 0.203822 -7.41186e-22)
(1.02122 0.203653 0)
(0.25469 -0.0366043 1.91809e-20)
(0.270244 -0.0398537 5.39734e-21)
(0.150402 0.0811295 -1.27232e-19)
(0.151077 0.118508 -1.68448e-20)
(0.715982 -0.0771014 -2.53496e-20)
(0.784028 -0.0777314 0)
(1.01252 0.0264104 5.30663e-23)
(1.0132 0.0270765 -2.61364e-25)
(1.01235 0.0272693 4.59143e-23)
(1.18702 0.125319 -5.25113e-20)
(1.18331 0.121144 -1.58895e-20)
(1.11985 0.111898 3.02388e-20)
(1.11839 0.107291 1.45931e-20)
(1.02576 0.0127396 -1.55063e-21)
(1.02504 0.0122507 0)
(1.00035 0.00446303 -2.47535e-21)
(1.00045 0.00480491 -2.73869e-21)
(0.937082 0.116579 -3.99313e-21)
(0.933166 0.112622 3.6064e-21)
(0.939247 0.112079 9.24833e-21)
(0.604891 -0.0678515 0)
(0.600319 -0.0682731 -1.13003e-20)
(1.25731 0.133118 1.41709e-21)
(1.26488 0.131052 7.39363e-22)
(1.26601 0.138139 -9.78894e-20)
(-0.0169028 0.046251 3.80042e-20)
(0.0522148 0.0610106 -4.76401e-21)
(1.11663 0.0393751 -3.26398e-21)
(1.11621 0.0419604 1.3068e-20)
(1.11891 0.0407076 2.51336e-20)
(1.09504 -0.0613246 4.65666e-21)
(1.09412 -0.0614397 -2.31093e-22)
(1.09457 -0.0623926 -7.88132e-21)
(1.12638 -0.0835866 3.36119e-21)
(1.13193 -0.0855709 -1.04088e-20)
(1.13559 -0.08565 2.10158e-20)
(-0.0249764 0.0175137 5.96379e-20)
(-0.0387109 0.017123 8.11108e-20)
(1.25208 0.177606 2.56585e-20)
(1.25232 0.170808 5.73712e-20)
(1.26044 0.174786 -4.61431e-21)
(0.999752 0.00810888 -4.7804e-21)
(0.999842 0.00773256 -2.8544e-21)
(0.999673 0.00762246 1.50801e-21)
(0.567112 0.0530276 3.76706e-20)
(0.572765 0.0730775 7.72289e-20)
(0.547893 0.0673239 3.63298e-20)
(0.797038 0.0320193 -2.59317e-20)
(0.79621 0.0431877 -1.94367e-20)
(1.00965 0.000379749 0)
(1.00929 0.000375262 0)
(1.023 0.024574 1.10252e-21)
(1.02407 0.0246825 7.54493e-22)
(0.869363 0.462426 0)
(0.864048 0.43508 6.39199e-21)
(0.891178 0.443872 0)
(1.22919 0.489612 -7.22532e-20)
(1.23202 0.469255 8.06581e-20)
(1.13745 0.441789 -6.20324e-20)
(1.07565 -0.00339365 7.42379e-21)
(1.07673 -0.00422385 2.02846e-21)
(1.07709 -0.00284803 -1.15004e-20)
(1.00314 0.000892955 -5.16516e-22)
(1.00313 0.000557458 -1.56151e-22)
(1.12253 -0.0197255 3.22205e-22)
(1.12117 -0.0178986 0)
(1.12397 -0.017802 2.62048e-20)
(1.11544 -0.0268138 1.20365e-21)
(1.11485 -0.0241796 1.83657e-20)
(-0.127499 -0.0160613 3.6767e-20)
(-0.134433 -0.015495 0)
(1.24445 -0.0395649 2.67795e-20)
(1.24277 -0.0419171 1.98501e-20)
(1.24052 -0.0395346 1.26895e-21)
(0.992021 0.0112008 -3.4916e-21)
(0.991548 0.0109975 -3.41518e-21)
(0.994139 0.030519 3.9317e-22)
(0.995152 0.0314492 -1.42905e-21)
(1.13919 -0.00699591 -5.46945e-22)
(1.14029 -0.00927307 -3.20471e-21)
(0.577204 -0.0721389 1.2915e-21)
(0.635627 -0.0748728 -8.15462e-21)
(0.617568 -0.0745461 -1.76936e-20)
(0.965222 0.0209438 -2.18999e-20)
(0.964938 0.0233162 -8.87116e-21)
(0.491732 -0.0672491 -3.6608e-21)
(0.481289 -0.0672351 4.59851e-21)
(0.536307 -0.0704842 -2.69166e-20)
(-0.183349 -0.0105929 2.54377e-20)
(-0.157722 -0.0123513 1.55626e-20)
(-0.177191 -0.0104689 -5.80484e-21)
(1.09559 -0.0604436 6.26201e-21)
(1.09627 -0.0616439 1.26779e-20)
(1.01588 0.0122906 -1.69556e-21)
(1.01632 0.0127864 2.78452e-23)
(0.493923 0.388583 -1.92758e-20)
(0.51367 0.423526 -1.73594e-20)
(0.460642 0.424537 -1.80775e-20)
(1.13151 -0.00704773 -2.065e-20)
(1.13411 -0.00712166 -1.97645e-20)
(1.1327 -0.00478952 2.33099e-21)
(-0.273927 -0.0083197 7.66967e-21)
(-0.242465 -0.0113902 -6.85519e-20)
(-0.259927 -0.00779049 -5.24368e-20)
(1.00287 0.0180774 4.33202e-21)
(1.00325 0.0184942 -1.35598e-21)
(1.00287 0.0188705 -1.91997e-21)
(0.756324 0.0751696 4.51389e-20)
(0.710699 0.0730947 5.85096e-20)
(1.01177 0.0256398 0)
(1.01262 0.0255566 -3.1603e-22)
(1.19121 0.0664133 -2.53482e-20)
(1.18747 0.0642498 -4.55431e-22)
(1.18746 0.0685254 -2.6381e-20)
(1.00838 0.00119147 4.33251e-22)
(1.00817 0.000825362 8.53588e-22)
(0.0987197 -0.0365946 8.81589e-21)
(0.0732809 -0.0344775 0)
(0.0924102 -0.035328 -4.78611e-21)
(0.429559 -0.0615389 4.63683e-21)
(0.41955 -0.0610857 2.2636e-20)
(0.495354 -0.0621715 5.28334e-20)
(0.995384 0.0942789 2.87383e-21)
(0.998971 0.0930284 -8.85102e-22)
(1.18049 0.484348 6.45486e-20)
(1.22318 0.496904 2.38826e-20)
(1.19165 0.465792 4.2702e-20)
(1.08216 0.0631164 0)
(1.08076 0.0603238 -7.29704e-21)
(1.01519 0.0121727 4.28975e-23)
(1.01531 0.0116282 -8.4871e-23)
(1.10822 -0.0828734 0)
(1.11519 -0.0847658 -1.61953e-21)
(1.08761 -0.0548132 -1.95527e-20)
(1.08821 -0.0539042 -2.78521e-20)
(1.11448 0.0380782 -4.54302e-20)
(1.11685 0.0368578 -1.73219e-20)
(0.686107 -0.0822289 -2.00605e-20)
(0.639501 -0.0807631 -2.10949e-20)
(0.708789 -0.0827639 5.99288e-21)
(-0.19149 -0.00752723 4.58153e-20)
(-0.21263 -0.00703718 2.43091e-20)
(1.01217 0.00309084 -6.18152e-22)
(1.01256 0.0031381 0)
(1.01235 0.00271538 0)
(1.06576 0.0887974 -1.09641e-20)
(1.06508 0.0925489 1.11431e-20)
(0.0109712 -0.0320313 9.48602e-21)
(0.0238937 -0.0328113 1.03226e-20)
(-0.128264 0.0165103 -1.14583e-22)
(-0.157013 0.0141383 -7.27153e-20)
(-0.131798 0.0170023 0)
(0.99999 0.00238337 0)
(0.999973 0.00278388 3.28428e-21)
(1.00605 0.00886659 -1.28186e-22)
(1.00647 0.00912196 6.48894e-23)
(1.00623 0.0093219 1.40915e-21)
(0.340416 -0.00972732 8.53098e-21)
(0.358353 -0.012611 1.23649e-20)
(1.13905 -0.0547322 -4.94257e-21)
(1.13706 -0.0551924 -8.21267e-21)
(1.1382 -0.0571296 1.22722e-21)
(1.00006 0.000134219 5.11861e-22)
(1.00003 0.00010246 5.89223e-22)
(1.00006 0.000168488 -1.35121e-21)
(1.09423 -0.0788108 1.35447e-21)
(1.09238 -0.0780144 2.01613e-20)
(1.09402 -0.0770893 -1.69582e-20)
(1.17814 0.00956994 -3.26999e-20)
(1.17685 0.00625128 2.03944e-20)
(1.17426 0.009415 2.45043e-20)
(0.798294 -0.0278569 -1.42553e-19)
(0.793765 -0.0375077 -9.51698e-20)
(1.09304 0.106678 -7.36065e-22)
(1.0961 0.110196 -2.81129e-20)
(1.09667 0.105153 -5.36688e-22)
(1.00002 0.00274515 -1.54196e-23)
(1.00004 0.00231511 -4.43969e-21)
(0.982113 0.210417 -1.48682e-21)
(0.983482 0.200716 0)
(0.97374 0.20498 6.04562e-21)
(-0.155259 -0.0107841 0)
(-0.152863 -0.00988967 0)
(-0.185542 -0.0066303 0)
(1.04065 0.00325568 1.63755e-21)
(1.04086 0.00259213 7.86492e-21)
(1.04164 0.00311015 8.28727e-21)
(1.2036 0.140763 1.29595e-20)
(1.19806 0.144239 1.66719e-20)
(1.19853 0.136421 4.4027e-20)
(0.5684 0.160303 -4.52043e-20)
(0.583869 0.181031 0)
(0.553981 0.186366 0)
(1.03368 0.0263788 2.06433e-21)
(1.03473 0.0262439 -1.16252e-22)
(0.995338 0.0276076 -4.14812e-21)
(0.994366 0.0279622 -1.42851e-21)
(1.1063 -0.0419739 -1.37369e-20)
(1.10786 -0.0430082 -1.30425e-21)
(1.106 -0.0436319 3.66145e-21)
(0.370838 -0.0186654 5.02907e-21)
(0.35635 -0.0160059 0)
(0.354029 -0.0162184 4.04302e-21)
(1.10917 -0.0483096 -2.22473e-20)
(1.11099 -0.0471997 1.2886e-20)
(0.940041 0.120967 -1.15618e-20)
(0.934429 0.122156 1.4603e-20)
(0.977912 0.0956911 -1.37034e-20)
(0.975313 0.099485 -6.05578e-21)
(1.00005 0.000291303 0)
(1.00005 0.000253167 0)
(1.00002 0.000170468 0)
(0.101992 -0.0109448 2.35907e-21)
(0.109787 -0.0115098 1.93208e-21)
(0.593142 -0.0415414 1.76201e-21)
(0.681457 -0.0445316 -3.57758e-20)
(0.675983 -0.0421537 -2.10139e-21)
(1.08567 -0.0751693 1.0028e-20)
(1.08893 -0.0761574 1.56292e-20)
(1.09209 -0.0762749 3.4554e-21)
(1.01466 0.0121104 2.71637e-21)
(1.01513 0.0126438 7.65185e-22)
(-0.163689 -0.014191 -2.37387e-21)
(-0.136381 -0.0171432 -5.43951e-21)
(-0.147536 -0.0156244 -5.75142e-20)
(-0.00289701 -0.0143064 1.63726e-21)
(0.00261597 -0.0130122 0)
(-0.0224213 -0.00961901 0)
(1.06493 -0.0924278 4.64433e-21)
(1.08136 -0.0927746 1.59023e-20)
(0.529812 -0.0531526 -1.27428e-20)
(0.500242 -0.0525426 -8.63801e-21)
(1.08392 -0.0531823 -8.97549e-21)
(1.08301 -0.0533307 -5.66965e-21)
(1.00002 0.00318557 -2.87196e-21)
(1.00639 0.000729532 0)
(1.00605 0.000777548 0)
(1.00645 0.00114681 0)
(1.13955 0.0121285 -1.3815e-20)
(1.13685 0.0119676 2.38964e-20)
(1.13867 0.00957159 2.26092e-20)
(0.0267648 -0.0275403 -3.03975e-20)
(0.00804356 -0.0240923 -4.23421e-20)
(0.00222221 -0.0238986 3.19092e-20)
(1.16418 -0.0292958 9.98584e-21)
(1.1662 -0.0273823 -3.04439e-21)
(1.16688 -0.0308989 -3.28691e-20)
(1.06909 0.0424765 -1.69911e-20)
(1.07095 0.0412206 -1.39704e-20)
(1.24137 -0.0386125 1.37031e-20)
(1.21332 -0.0457035 -2.53431e-23)
(1.07821 -0.0379195 8.10359e-21)
(1.07734 -0.0371963 3.11474e-20)
(1.0179 0.00103445 4.24955e-21)
(1.01787 0.00128994 2.5849e-21)
(1.01811 0.00115689 -9.68623e-23)
(0.955599 0.0229203 -4.0818e-21)
(0.947741 0.0171494 -4.26335e-20)
(0.854962 0.00407111 1.05315e-20)
(1.00202 0.00490674 1.60288e-21)
(1.00203 0.00469126 0)
(1.00182 0.00456877 0)
(0.805052 -0.0828396 -1.60755e-20)
(0.734842 -0.0812097 -3.09722e-22)
(1.07445 -0.00224485 -1.88666e-21)
(1.07402 -0.00364773 8.24458e-21)
(1.00006 0.000104005 -7.95097e-22)
(1.0001 0.000164382 0)
(1.00189 0.107976 -4.59633e-22)
(1.00072 0.112654 1.64006e-21)
(0.997856 0.108268 -3.81473e-21)
(1.0224 0.18666 -3.11922e-21)
(1.01789 0.181324 7.81122e-23)
(0.778089 -0.00965861 0)
(0.788395 -0.00918758 -4.13563e-20)
(1.09994 -0.0804686 1.12601e-21)
(1.09654 -0.079387 -1.4625e-21)
(0.999719 0.142398 -3.73371e-21)
(1.00004 0.148515 -3.39364e-21)
(0.993999 0.144493 4.12044e-21)
(1.04378 0.0090907 7.93345e-21)
(1.04442 0.00990779 -9.98934e-21)
(1.04333 0.00973925 -5.93987e-21)
(1.24255 0.011715 -3.18017e-21)
(1.2458 0.015715 2.33718e-20)
(1.26136 0.012614 8.20659e-20)
(0.725304 -0.0833578 -6.73554e-21)
(0.659519 -0.0825984 9.46675e-21)
(0.516504 -0.0466549 3.08129e-21)
(0.521707 -0.0453195 5.60645e-20)
(1.00243 0.0178273 -8.68602e-22)
(1.00279 0.0174742 3.9948e-21)
(1.04771 -0.0905588 -5.24712e-21)
(1.0906 -0.0893377 1.76994e-20)
(1.03647 -0.0896353 0)
(0.998496 0.000351386 1.45325e-22)
(0.998391 0.00061687 0)
(0.998207 0.000395352 0)
(1.04338 0.00826497 4.03371e-21)
(1.04447 0.00836376 8.26706e-21)
(1.00085 0.0129337 -5.64266e-21)
(1.00121 0.0132597 -5.90359e-21)
(0.840067 0.631499 2.23495e-20)
(0.792748 0.637495 3.35077e-21)
(1.00162 0.000943855 -4.21676e-23)
(1.00176 0.000822126 0)
(1.00151 0.000741738 3.26878e-22)
(1.1947 0.0683821 -3.18092e-20)
(1.19475 0.0642204 -3.20822e-21)
(1.08939 0.109128 0)
(1.08961 0.104123 -8.97047e-21)
(1.03131 0.0197284 -1.55162e-21)
(1.03232 0.0195303 -1.85498e-21)
(1.12367 -0.0216222 1.33701e-20)
(1.12092 -0.0209859 -1.95486e-20)
(1.03734 0.057372 2.8643e-21)
(1.03825 0.0556563 4.95439e-21)
(1.03961 0.0574453 -1.03329e-21)
(0.119561 0.0606058 4.4971e-20)
(0.107105 0.0446005 -1.38849e-19)
(0.104667 0.0767501 1.56402e-19)
(1.0199 0.193419 1.56908e-22)
(1.0125 0.193844 1.42511e-21)
(1.1721 0.123258 -5.93014e-20)
(1.1692 0.129519 1.76714e-20)
(1.03 0.0139233 -1.9051e-22)
(1.03067 0.014548 3.62259e-21)
(1.03072 0.0137203 3.08736e-21)
(0.996255 0.0272378 -2.73053e-21)
(0.995409 0.0264455 -1.35378e-21)
(-0.174563 -0.0121761 -1.77069e-20)
(-0.197032 -0.0113939 -7.39895e-20)
(-0.202669 -0.0114104 2.22233e-20)
(0.0995135 -0.0140358 3.36464e-23)
(0.0910787 -0.0133484 6.67963e-21)
(0.113501 -0.0180858 -3.32516e-22)
(1.001 0.0149162 0)
(1.00133 0.0146001 0)
(1.00708 0.000672825 -5.08288e-22)
(1.00751 0.000907823 -2.82867e-22)
(1.00711 0.00119258 4.2887e-22)
(0.94719 0.0219744 3.62581e-20)
(1.06628 0.0314827 4.75143e-20)
(1.01559 0.0249086 -6.41745e-23)
(1.01585 0.0258765 -8.20737e-23)
(1.01665 0.0253897 5.85238e-22)
(-0.0587499 -0.0243422 -2.59487e-20)
(-0.0770204 -0.0221563 -2.55752e-20)
(1.02925 0.0134792 -3.30323e-21)
(1.02925 0.0142854 -4.56378e-21)
(0.103759 -0.0372083 -2.61748e-20)
(0.123915 -0.039317 -2.8682e-21)
(1.04721 -0.00504557 -3.55702e-21)
(1.04668 -0.00567841 9.07478e-21)
(1.04757 -0.00573064 -1.44315e-21)
(1.2188 0.320976 -2.58859e-20)
(1.20634 0.320244 2.68284e-20)
(1.2116 0.333224 2.46162e-20)
(1.10148 0.00128187 -4.82245e-20)
(1.10146 0.00329285 -2.66424e-21)
(1.10353 0.00223729 -3.64176e-20)
(0.097781 0.308785 -6.76178e-20)
(0.0961358 0.268541 8.82795e-20)
(0.131329 0.286094 -1.35577e-19)
(0.944962 0.0451027 -3.42984e-21)
(0.944494 0.0416944 -6.79884e-21)
(1.29535 0.00479611 -3.7587e-20)
(1.29335 0.00396744 2.06253e-20)
(0.516832 0.295321 9.47016e-20)
(0.489964 0.305807 -7.80734e-20)
(0.518057 0.327885 1.01313e-19)
(1.00589 0.108181 -2.10525e-21)
(1.00343 0.104859 8.12546e-22)
(1.13998 -0.0530382 1.47978e-20)
(1.14115 -0.0549423 8.5392e-21)
(0.954811 0.510227 8.17041e-21)
(0.972197 0.528345 0)
(0.942724 0.533638 1.98917e-22)
(0.996887 0.0437525 7.81753e-21)
(0.995391 0.0432581 1.49315e-21)
(0.99581 0.045087 1.01516e-21)
(0.186933 -0.0348193 8.84413e-21)
(0.160848 -0.0304681 -1.1034e-20)
(0.17191 -0.0314928 -6.06326e-21)
(0.58215 0.0417998 0)
(0.561439 0.0329337 -6.41536e-20)
(0.0136753 -0.0171547 1.46073e-21)
(-0.00505877 -0.0146958 -5.64872e-22)
(0.923183 0.0183096 -1.26906e-20)
(0.919587 0.0195495 -1.34314e-20)
(0.922401 0.0223264 1.86493e-20)
(0.227399 -0.0119844 5.03987e-21)
(0.203473 -0.00810329 4.29143e-21)
(0.231031 -0.011196 1.49526e-20)
(1.06891 0.0878557 -2.55213e-21)
(1.07133 0.0912179 -1.40982e-20)
(1.07231 0.0876098 2.08737e-21)
(-0.100487 -0.0046505 -4.11735e-20)
(-0.0700462 -0.00423606 4.50311e-20)
(-0.0587632 -0.00561072 -2.1789e-22)
(0.52313 0.264147 -2.44225e-21)
(0.548623 0.287303 3.5636e-20)
(0.930079 0.350874 -1.1131e-20)
(0.91342 0.348556 1.55263e-21)
(0.922667 0.366173 -1.65235e-21)
(0.948288 0.356258 -3.96872e-21)
(0.939764 0.337822 2.87123e-22)
(0.530203 -0.0739977 -1.67949e-20)
(0.500306 -0.0736701 -5.88205e-21)
(0.999759 0.0024946 1.88732e-21)
(0.999695 0.00278795 -1.58899e-21)
(0.999726 0.00282948 -5.81416e-22)
(1.05632 0.173662 9.70643e-21)
(1.05341 0.180661 -7.38676e-21)
(-0.117772 -0.0165563 -3.36974e-20)
(-0.131898 -0.0156676 -1.51451e-19)
(0.98337 0.02961 1.49516e-21)
(0.98245 0.0305033 -4.85797e-21)
(0.982112 0.0288157 -7.06139e-21)
(1.00277 0.0734701 -2.96796e-22)
(1.00353 0.0710816 1.48507e-21)
(1.00079 0.071578 3.57363e-22)
(0.0194969 -0.0138524 1.48167e-20)
(0.0268107 -0.0138754 7.62381e-21)
(0.846119 0.481283 1.23999e-20)
(0.87869 0.489308 -1.36254e-21)
(1.0173 0.0520053 -1.32643e-22)
(1.01728 0.0536144 2.57112e-22)
(1.01913 0.053055 7.28547e-22)
(1.12172 -0.0816931 -3.33532e-20)
(1.11886 -0.0818992 2.65398e-20)
(0.682122 0.553836 5.0522e-20)
(0.708336 0.525491 -1.23477e-20)
(1.00913 0.00505376 -1.87494e-22)
(1.00956 0.00531168 5.04813e-22)
(1.00949 0.00482785 -3.44822e-22)
(0.154215 -0.0124055 -9.84202e-21)
(0.134401 -0.0086629 -1.30583e-20)
(1.11969 -0.0844115 1.73827e-21)
(1.12475 -0.0865335 7.3099e-21)
(1.11498 -0.0836967 -4.76806e-21)
(1.00201 0.00511761 2.2856e-22)