/*--------------------------------*- C++ -*----------------------------------*\
| =========                 |                                                 |
| \\      /  F ield         | OpenFOAM: The Open Source CFD Toolbox           |
|  \\    /   O peration     | Version:  v2012                                 |
|   \\  /    A nd           | Website:  www.openfoam.com                      |
|    \\/     M anipulation  |                                                 |
\*---------------------------------------------------------------------------*/
FoamFile
{
    version     2.0;
    format      ascii;
    class       surfaceVectorField;
    location    "1000";
    object      Uf_0;
}
// * * * * * * * * * * * * * * * * * * * * * * * * * * * * * * * * * * * * * //

dimensions      [0 1 -1 0 0 0 0];


internalField   nonuniform List<vector> 
20673
(
(1.09665 0.123827 1.2181e-20)
(1.10079 0.121254 -2.5728e-21)
(1.09599 0.118761 -3.72617e-22)
(1.02151 0.0416477 0)
(1.02029 0.040984 -2.26792e-22)
(1.02052 0.0429435 0)
(0.559817 -0.0750449 3.48934e-20)
(0.595662 -0.0774376 -1.3267e-20)
(0.622872 -0.0784861 7.90048e-21)
(1.05566 -0.0119203 1.87981e-20)
(1.05587 -0.0108784 -1.37828e-22)
(1.05476 -0.0112347 -6.15613e-21)
(0.996441 0.0033859 1.0087e-21)
(0.996264 0.00296737 -1.81586e-23)
(0.995955 0.00352234 5.41526e-21)
(0.371902 0.0587972 -3.14703e-21)
(0.360109 0.0317453 1.47335e-19)
(0.343167 0.0596693 6.18746e-20)
(0.505774 -0.0647256 -5.74037e-21)
(0.500015 -0.0665092 -1.49469e-21)
(0.55164 -0.0694314 6.33627e-21)
(0.619885 -0.0768217 -7.65337e-21)
(0.56965 -0.0740851 -1.4167e-20)
(0.588945 -0.07717 -1.89853e-20)
(0.429743 -0.0658116 1.73773e-20)
(0.397798 -0.0623592 0)
(0.363696 -0.0581631 2.12989e-20)
(1.13819 0.148845 6.44652e-21)
(1.1444 0.148672 -1.42502e-20)
(1.14206 0.154863 6.48479e-21)
(1.11449 -0.0676364 -1.64758e-20)
(1.11287 -0.0680306 -5.34493e-20)
(1.11488 -0.0693388 -5.52955e-20)
(1.09077 -0.0462084 -2.70527e-21)
(1.0912 -0.0476259 0)
(1.09208 -0.0460576 -9.17233e-23)
(1.0565 -0.0122381 1.52545e-20)
(-0.0212646 -0.0049186 -3.26097e-21)
(0.000434658 -0.00919303 1.96977e-20)
(-0.0278321 -0.00633075 4.39941e-20)
(0.97397 0.0958077 0)
(0.969758 0.0952407 9.17516e-21)
(0.97283 0.0915068 0)
(0.995911 0.0910006 -3.03935e-21)
(0.993597 0.0885469 3.19974e-22)
(0.997291 0.0872471 -5.27783e-22)
(1.01475 0.0474875 2.68907e-22)
(1.01619 0.0471445 1.14428e-22)
(1.01504 0.0459304 1.96705e-22)
(1.14104 0.0175467 -8.59866e-21)
(1.14211 0.0199213 -3.59588e-20)
(1.14394 0.0167177 4.11562e-20)
(1.08951 -0.0467243 1.55664e-20)
(1.08996 -0.0451287 -2.72846e-21)
(1.00159 0.00504005 -2.06903e-21)
(1.00161 0.00481748 2.87734e-22)
(1.00142 0.00466284 -4.37773e-23)
(0.99998 0.000954953 1.94174e-21)
(0.999967 0.00128449 5.86119e-21)
(0.999983 0.00096545 3.78207e-22)
(0.504515 -0.0652404 0)
(0.467984 -0.0648946 0)
(1.00091 0.00773025 3.05849e-21)
(1.00097 0.00815633 -2.78759e-22)
(1.0011 0.00801537 2.79678e-21)
(0.661656 -0.08258 -9.19765e-21)
(0.671657 -0.0832035 2.61694e-21)
(0.995235 0.0149036 7.17195e-22)
(0.994756 0.0146873 -2.17925e-22)
(0.994983 0.0154742 3.66849e-21)
(0.558103 -0.064147 1.02116e-20)
(0.520013 -0.0604103 0)
(0.516156 -0.0622934 0)
(0.788577 0.0353933 -8.37811e-21)
(0.779609 0.0410268 -2.17765e-20)
(0.780801 0.0291157 -4.88169e-22)
(0.761357 0.119748 -6.50675e-20)
(0.759893 0.132275 -3.81619e-20)
(0.750946 0.123126 1.21385e-20)
(0.717366 0.558562 -5.26345e-22)
(0.748538 0.568959 -2.3298e-20)
(0.726728 0.602528 -1.80317e-20)
(1.19565 0.0921607 -4.47201e-20)
(1.19509 0.0873487 -1.58361e-20)
(1.20014 0.0882904 -5.098e-20)
(1.11477 0.110383 -1.42282e-20)
(1.11162 0.113485 1.66786e-20)
(1.11047 0.108867 -1.57334e-20)
(1.06287 0.0898198 -2.37925e-21)
(1.05997 0.0905402 5.229e-22)
(1.06084 0.0871664 -4.12933e-21)
(0.842159 0.070086 -5.80662e-21)
(0.834396 0.0728199 0)
(0.835659 0.0633737 0)
(0.907965 0.00168147 -4.70969e-21)
(0.91071 -0.00132471 2.14243e-20)
(0.91199 0.00257031 1.33371e-20)
(0.991541 0.0116137 -6.66419e-21)
(0.990999 0.0122492 3.22714e-21)
(0.991708 0.0125072 -3.00177e-21)
(1.11593 -0.0846829 -1.66588e-20)
(1.11789 -0.0851203 1.08606e-20)
(1.11728 -0.087296 8.23882e-21)
(1.00078 0.00741062 0)
(1.00092 0.00731192 0)
(0.123646 -0.0344067 -1.20204e-20)
(0.0977629 -0.0308336 -1.78924e-20)
(0.110479 -0.0316947 -1.27465e-20)
(1.06205 -0.0163144 2.71497e-21)
(1.0629 -0.0171496 8.66635e-21)
(0.300286 -0.0107565 -5.10953e-21)
(0.275826 -0.00760668 -2.21616e-20)
(0.304213 -0.0102223 -9.5726e-21)
(1.00852 0.000917426 0)
(1.00891 0.000900562 -7.34478e-22)
(1.00809 0.000519987 0)
(0.999994 0.000678109 4.3549e-21)
(1 0.000316918 -1.21535e-21)
(0.999998 0.0003456 2.71155e-21)
(1.02097 0.0024452 -2.13562e-21)
(1.02067 0.00261847 -1.97972e-21)
(1.02056 0.00230364 3.70395e-21)
(0.697223 0.19577 -1.09972e-20)
(0.713699 0.203489 1.02298e-22)
(0.696724 0.217618 1.46346e-20)
(1.03839 0.0240942 -3.93528e-21)
(1.03931 0.0248173 -5.15179e-22)
(1.03957 0.0239201 -4.01238e-21)
(0.890911 0.0177063 0)
(0.889433 0.013139 3.67557e-20)
(0.89484 0.0142767 -1.36896e-20)
(1.14017 0.0142833 -2.49565e-20)
(1.13791 0.0175305 -4.87317e-21)
(1.14403 -0.016422 2.20387e-21)
(1.14267 -0.0139846 7.03729e-21)
(1.14119 -0.0165756 -6.08059e-21)
(0.0908109 0.1245 3.57491e-20)
(0.0901416 0.160145 9.19292e-21)
(0.119906 0.139018 6.40202e-20)
(1.00333 0.000743087 -8.03579e-22)
(1.00362 0.000674078 -1.33667e-22)
(1.00356 0.00104269 2.27026e-22)
(1.08528 0.0139672 -1.80638e-20)
(1.08633 0.0149588 -1.4451e-20)
(1.0868 0.0133708 3.93677e-21)
(0.966184 0.00989446 0)
(0.964972 0.00855447 -1.75259e-20)
(0.964585 0.0106365 0)
(0.0845068 0.0945986 1.54347e-19)
(0.0510963 0.12746 -1.04947e-20)
(0.9049 0.00478819 -2.33376e-20)
(0.903749 0.000339731 1.40598e-20)
(1.01448 0.0490143 2.54167e-22)
(1.01318 0.047571 2.39462e-22)
(1.08573 0.03664 1.95126e-20)
(1.085 0.0387065 7.06431e-22)
(1.08749 0.038349 3.24049e-20)
(1.1165 -0.0673879 2.4708e-20)
(1.11496 -0.065817 2.67316e-20)
(0.995211 0.0302864 -4.11053e-22)
(0.995248 0.0288699 -6.36068e-21)
(0.996298 0.0298517 1.25814e-21)
(1.07121 0.0432583 7.84271e-21)
(1.0733 0.0442654 -1.02357e-20)
(1.07128 0.0456625 1.37257e-20)
(1.03724 0.0242371 3.89063e-21)
(1.03742 0.0233454 -1.83338e-21)
(0.607268 0.05422 -7.37667e-20)
(0.458299 0.037069 4.0892e-20)
(0.516072 0.0413599 -1.2865e-21)
(1.02278 0.0409607 0)
(1.02284 0.042891 1.30816e-22)
(-0.0190776 -0.00262888 1.95246e-20)
(1.00159 0.00523862 2.37479e-21)
(1.00178 0.00540815 -9.03926e-22)
(0.379913 0.0938746 9.22342e-20)
(0.40355 0.063046 0)
(1.12474 0.385555 7.33899e-20)
(1.08642 0.358029 2.79466e-21)
(0.82772 0.273067 -6.61039e-20)
(0.995727 -0.000461378 -7.08895e-21)
(0.995272 -0.000307603 7.95117e-22)
(0.987711 -0.0012311 -3.59326e-21)
(0.988475 -0.00127766 -7.57964e-21)
(1.15753 -0.0535886 -1.10201e-20)
(1.15548 -0.0549442 3.32712e-20)
(1.15878 -0.0561146 4.46156e-20)
(1.062 0.134956 1.18446e-22)
(1.06735 0.134915 7.74908e-23)
(1.06387 0.140992 -8.52267e-23)
(0.996869 0.00328948 -2.0555e-21)
(0.996583 0.00380293 -8.41258e-22)
(0.497353 -0.0733889 -1.78667e-20)
(0.461606 -0.0701083 2.68957e-20)
(-0.110972 -0.0179739 -1.41336e-20)
(-0.0860117 -0.0213157 -4.3701e-20)
(-0.0937224 -0.0203701 -6.74954e-21)
(0.99589 0.0150763 0)
(0.99562 0.0141415 4.21039e-21)
(0.0909445 0.19504 6.08214e-20)
(0.125707 0.213458 1.36242e-19)
(0.0929545 0.23368 6.44659e-20)
(1.08335 -0.0525866 -1.51803e-20)
(1.08279 -0.0518439 0)
(1.08378 -0.0515739 0)
(-0.114602 -0.0119993 5.2529e-21)
(-0.0895574 -0.0163513 -1.16758e-21)
(-0.105207 -0.0122372 2.35127e-20)
(1.05384 0.0260474 3.42262e-21)
(1.05519 0.0265742 5.7833e-22)
(1.05405 0.0276048 -7.04672e-21)
(0.532 -0.0530944 -5.5426e-21)
(0.528939 -0.0554991 2.04138e-21)
(0.568401 -0.0572552 -9.80887e-21)
(0.999933 0.0019351 -3.06703e-22)
(0.99988 0.00225927 7.22007e-21)
(0.9999 0.00230317 3.45602e-21)
(1.00007 0.00314008 5.41159e-21)
(1.00008 0.00345239 9.06666e-21)
(1.00009 0.00306763 5.21866e-21)
(0.996135 -0.000154217 -3.79629e-21)
(0.389451 0.120104 -4.29344e-20)
(0.399972 0.150212 -1.29421e-19)
(0.421274 0.126132 -2.02385e-19)
(0.153707 -0.0390825 2.49452e-20)
(0.140998 -0.0383049 1.24641e-20)
(-0.0729656 0.0151629 0)
(-0.115321 0.0120363 -1.14434e-20)
(-0.103853 0.0116823 4.79077e-20)
(1.05242 0.02563 7.12128e-21)
(1.05355 0.0247071 -5.4247e-22)
(1.00038 0.00436167 4.3271e-22)
(1.00044 0.0042821 1.29244e-21)
(1.00032 0.00395411 3.93938e-21)
(1.14089 0.413038 8.09333e-21)
(1.22255 0.441856 1.24586e-19)
(1.08365 0.0129774 -1.06347e-20)
(1.08348 0.0148157 6.09334e-21)
(1.02124 0.00234192 -9.06754e-21)
(1.02134 0.00264585 -2.41389e-21)
(-0.00851248 -0.0289524 0)
(-0.0365056 -0.0259946 -8.46821e-21)
(-0.0234866 -0.0268831 -3.75317e-20)
(1.18142 0.12677 0)
(1.17544 0.129008 -3.29927e-20)
(1.179 0.133313 -1.98894e-20)
(1.02341 0.0239203 -2.69436e-21)
(1.02376 0.0231329 -1.66588e-21)
(1.02277 0.0231128 -2.61368e-21)
(0.974545 0.05228 1.83809e-20)
(0.972486 0.0534872 4.54447e-22)
(0.974949 0.0547859 4.79181e-21)
(1.19933 0.438028 -2.44236e-20)
(1.07362 0.408663 -1.30854e-20)
(0.374126 0.00462297 6.76063e-20)
(0.402854 -0.0025705 -1.85897e-19)
(0.379948 -0.0299397 -1.11385e-19)
(1.13124 -0.0530478 -4.63303e-21)
(1.13322 -0.0530652 2.60831e-20)
(1.13237 -0.0551339 -4.01764e-21)
(1.14168 -0.00683549 2.24741e-20)
(1.14441 -0.00668194 -1.57655e-20)
(1.14297 -0.00436579 -2.56954e-20)
(1.08691 -0.0615018 1.33786e-21)
(1.08612 -0.0622699 -1.05677e-20)
(1.08575 -0.0615367 -1.07008e-20)
(0.594929 0.131469 8.94749e-20)
(0.614969 0.116975 -5.40005e-20)
(0.616841 0.143374 -1.0087e-19)
(1.01112 0.00565951 4.8601e-22)
(1.01158 0.00576289 -6.2388e-22)
(1.01139 0.00615373 -9.82083e-22)
(0.840886 -0.00157389 -2.79056e-20)
(0.844336 0.0057933 3.62907e-20)
(0.848451 -0.000996922 6.92894e-21)
(0.680853 0.189079 2.16532e-21)
(0.698815 0.180454 -3.10464e-20)
(1.06123 0.0202389 -1.4403e-22)
(1.06246 0.019968 3.49106e-21)
(1.0614 0.0187229 1.25986e-20)
(1.01635 0.0123438 -5.40308e-22)
(1.01639 0.0117728 1.31536e-22)
(1.01695 0.0123008 -4.25538e-22)
(0.448864 -0.0625064 0)
(0.438402 -0.0620975 0)
(0.517339 -0.0639787 -4.31259e-20)
(0.821138 0.49568 5.07141e-21)
(0.792991 0.513746 0)
(0.831941 0.521725 2.54004e-21)
(1.14512 -0.0181574 4.77695e-22)
(1.14642 -0.0159327 7.39309e-21)
(1.01775 0.0467234 -5.75253e-23)
(1.01768 0.0484733 -5.25582e-23)
(1.11345 0.123403 -1.81916e-20)
(1.10982 0.126182 -1.76374e-20)
(1.11463 0.128403 -3.78058e-20)
(-0.153439 -0.0146199 -1.47287e-20)
(-0.184712 -0.0138549 -1.69883e-20)
(-0.171084 -0.0141281 6.14936e-20)
(0.317097 -0.0136246 1.56727e-20)
(0.293434 -0.010259 8.66439e-21)
(1.09201 -0.0529547 4.78221e-21)
(1.09104 -0.0533015 -2.49871e-20)
(1.09178 -0.0540165 1.02083e-21)
(0.448661 -0.0639658 0)
(0.382977 -0.062216 0)
(0.949165 0.00806587 1.30102e-20)
(0.947776 0.0100784 1.775e-20)
(0.947073 0.00735008 -1.15107e-20)
(0.0879637 -0.129961 0)
(0.0989587 -0.100149 -4.02547e-20)
(0.0610453 -0.105365 -1.91627e-20)
(1.00094 0.0136143 1.25302e-21)
(1.00101 0.014256 -3.86429e-21)
(1.00064 0.0139242 -1.44445e-21)
(0.18134 0.0980978 2.53311e-21)
(0.211403 0.0796526 -7.60248e-20)
(0.212526 0.114793 1.52746e-19)
(0.162506 -0.0125721 5.23981e-21)
(0.170663 -0.0146082 -7.66848e-21)
(0.183619 -0.0183169 1.12169e-20)
(0.907465 0.0127174 5.85946e-21)
(0.904644 0.0159637 1.14456e-20)
(0.909254 0.0164326 5.40792e-22)
(1.00001 0.00102846 1.36002e-21)
(0.999987 0.00101409 -1.47618e-22)
(1.15941 -0.052396 -4.18727e-21)
(1.15681 -0.0516383 -1.35623e-20)
(0.122022 -0.0144637 -9.88229e-22)
(0.142657 -0.018717 3.11678e-21)
(0.134806 -0.0179839 1.88927e-20)
(0.763213 0.107877 4.11284e-20)
(0.774912 0.116582 -2.35951e-20)
(1.00502 0.000650692 -4.02565e-23)
(1.00524 0.000945695 9.26646e-24)
(1.00535 0.000551995 -3.54124e-24)
(0.974491 0.0496179 -1.05438e-20)
(0.976786 0.0509265 1.91486e-20)
(1.03444 0.0272887 0)
(1.0352 0.0281808 -3.63602e-21)
(1.03411 0.0282457 -2.63067e-21)
(1.0047 0.000665437 -3.05783e-22)
(1.00457 0.000325451 -8.30476e-23)
(1.01798 0.00186309 3.2467e-22)
(1.01823 0.00170212 0)
(1.01791 0.00158992 -2.21425e-21)
(0.345915 0.00569576 1.01335e-19)
(0.24343 -0.0360725 -3.75403e-21)
(0.231964 -0.0331713 -1.62112e-20)
(0.221168 -0.0299249 2.92217e-21)
(0.950706 0.00569647 3.13771e-20)
(0.951705 0.00844244 -3.65291e-21)
(1.0402 0.0255228 4.60421e-21)
(1.03899 0.0257708 -5.57304e-22)
(0.999969 0.000928795 4.2925e-22)
(0.999998 0.000632431 -3.7713e-21)
(1.26192 -0.00548806 2.89828e-20)
(1.27364 -0.00300964 -1.86078e-20)
(1.23822 -0.0129568 1.10261e-20)
(0.708865 -0.0874569 -2.29894e-20)
(0.651227 -0.0827325 0)
(1.09697 0.128617 0)
(1.09247 0.125716 -1.39473e-20)
(0.578486 0.142672 2.16817e-20)
(0.578956 0.1148 2.22172e-21)
(0.995232 0.00015637 -8.30874e-23)
(0.994775 -0.000206735 5.25757e-21)
(0.906008 0.0087663 0)
(0.910267 0.00991028 -8.97997e-21)
(1.11091 -0.0832928 -6.07249e-21)
(1.10806 -0.0826392 0)
(1.10514 -0.0805505 0)
(1.02507 0.0128448 0)
(1.02501 0.0134113 0)
(1.02431 0.0129001 -2.51194e-21)
(0.963349 0.0219211 -7.08004e-21)
(0.961216 0.0226593 6.41211e-22)
(0.961946 0.0200727 -5.76666e-22)
(0.664004 0.193049 -2.69504e-20)
(0.643665 0.199317 0)
(0.662236 0.216007 -9.74236e-22)
(0.987491 -0.000497795 -5.13622e-21)
(0.986928 -0.00106646 -2.49935e-21)
(0.701454 -0.0755617 3.66306e-21)
(0.624055 -0.0713931 1.33525e-20)
(0.696618 -0.0745326 -6.2975e-20)
(0.810149 0.601186 5.57975e-21)
(0.817738 0.571723 5.34615e-21)
(0.782903 0.572897 5.5694e-21)
(0.967501 0.0115236 0)
(0.968065 0.00935427 -4.05007e-21)
(1.02363 0.0108031 4.70871e-21)
(1.02368 0.0113458 7.05839e-22)
(1.02302 0.0108663 -4.90438e-22)
(1.05762 0.0971669 0)
(1.054 0.0976432 -6.76586e-21)
(1.05656 0.101441 0)
(1.11672 -0.0252218 3.83759e-21)
(1.11822 -0.0269036 -1.2638e-20)
(1.1183 -0.0240662 1.98319e-20)
(0.112111 -0.151232 0)
(0.0727329 -0.160532 0)
(1.11084 -0.0487557 -1.19571e-20)
(1.1125 -0.0494987 -1.74274e-21)
(1.11068 -0.0503319 1.55318e-20)
(1.02422 0.180891 6.84671e-21)
(1.0273 0.176031 -9.59956e-23)
(1.03182 0.180095 3.72077e-21)
(1.07931 0.0624849 0)
(1.07725 0.0644603 0)
(1.07651 0.0615255 1.1774e-20)
(-0.035327 0.046254 0)
(-0.0539574 0.0523015 -3.85216e-20)
(-0.0867436 0.0448142 -4.6417e-20)
(1.057 0.135501 4.3954e-22)
(1.05985 0.130616 0)
(1.11222 -0.093069 1.78996e-20)
(1.13966 -0.0898606 -1.63589e-20)
(1.14566 -0.0895425 2.54092e-20)
(-0.14661 -0.00969444 -5.37149e-20)
(-0.122138 -0.0126376 -2.97632e-20)
(1.28499 -0.00289843 3.05992e-20)
(1.23086 -0.00348664 5.17611e-20)
(0.941752 0.0439297 4.85827e-21)
(0.938959 0.045542 0)
(0.938813 0.041928 0)
(0.789037 -0.0279669 1.2936e-20)
(0.783364 -0.0194889 -8.12515e-20)
(0.777498 -0.0304295 1.91977e-20)
(1 0.00241559 1.76645e-21)
(1.00002 0.0023324 8.3201e-22)
(0.999986 0.00198709 8.41656e-21)
(1.12891 -0.0537198 -1.99019e-20)
(1.12993 -0.0513379 0)
(1.09331 -0.0526535 2.03831e-20)
(1.09224 -0.0517461 -1.21848e-20)
(1.08741 -0.0607894 1.27165e-20)
(1.08797 -0.061535 9.20634e-21)
(1.06105 0.0215322 -5.64693e-21)
(1.06 0.0203729 -5.55146e-21)
(1.12938 -0.0168635 -9.81452e-21)
(1.12793 -0.0185705 5.03618e-21)
(1.13051 -0.0191794 6.65859e-21)
(1.03217 0.0204141 -1.02983e-20)
(1.03299 0.0210314 2.22163e-21)
(1.03196 0.0212842 -8.30236e-22)
(0.837686 -0.00783891 -6.03298e-20)
(0.83318 -0.000635019 -6.41027e-20)
(1.04942 0.174848 1.35407e-20)
(1.04219 0.174293 -1.14896e-22)
(1.04744 0.168185 5.47779e-21)
(-0.292951 -0.00325471 0)
(-0.3098 -0.00190814 -3.14071e-20)
(-0.279322 -0.00349997 0)
(1.08862 -0.0548469 0)
(1.08903 -0.0558005 0)
(1.08968 -0.0549172 6.73874e-21)
(1.01362 0.0553019 -2.88063e-22)
(1.01356 0.05709 -3.87295e-22)
(1.01179 0.055882 2.31167e-23)
(0.805379 -0.081855 0)
(0.796503 -0.0820059 3.35797e-21)
(0.868623 -0.082549 1.02487e-20)
(1.01632 0.19883 1.38417e-21)
(1.01341 0.203818 -1.02722e-21)
(1.02122 0.203649 -4.87916e-22)
(0.254836 -0.0366138 -2.68285e-22)
(0.270385 -0.039866 -5.3975e-21)
(0.150402 0.0811313 1.76822e-20)
(0.151077 0.118509 6.41933e-20)
(0.716046 -0.0771475 1.63388e-20)
(0.784088 -0.0777801 3.49473e-20)
(1.01252 0.0264091 0)
(1.0132 0.0270751 0)
(1.01235 0.027268 8.3687e-22)
(1.18701 0.125322 -1.643e-20)
(1.1833 0.121147 0)
(1.11985 0.111898 -1.37788e-20)
(1.11839 0.10729 -1.45958e-20)
(1.02576 0.0127398 -1.55213e-21)
(1.02504 0.0122508 0)
(1.00035 0.00446329 -4.93494e-21)
(1.00045 0.00480505 -9.64874e-22)
(0.937082 0.116576 -1.10116e-20)
(0.933165 0.112619 0)
(0.939247 0.112076 0)
(0.604983 -0.067826 1.09406e-21)
(0.600414 -0.0682515 -2.89508e-21)
(1.25729 0.133124 1.00151e-19)
(1.26486 0.131059 -3.88353e-20)
(1.26599 0.138145 2.24896e-20)
(-0.0168899 0.0462541 -5.35625e-20)
(0.0522336 0.0610154 2.30855e-20)
(1.11663 0.0393737 -1.99675e-20)
(1.11621 0.0419593 -2.17427e-21)
(1.1189 0.0407063 -8.35575e-21)
(1.09502 -0.0613024 1.24006e-21)
(1.0941 -0.061416 1.38777e-22)
(1.09455 -0.0623685 -6.84496e-21)
(1.12628 -0.0836236 -4.98328e-20)
(1.13182 -0.0856055 -1.01087e-20)
(1.13548 -0.085691 1.94797e-21)
(-0.0249484 0.0175025 0)
(-0.0386845 0.0171125 0)
(1.25206 0.177602 1.6762e-21)
(1.2523 0.170805 -2.84199e-20)
(1.26042 0.174782 -2.99481e-20)
(0.999752 0.0081078 3.2633e-21)
(0.999842 0.00773162 3.21647e-21)
(0.999673 0.00762153 -2.26533e-21)
(0.567113 0.0530275 -2.21652e-20)
(0.572766 0.0730774 1.54194e-19)
(0.547894 0.067324 7.35458e-20)
(0.797038 0.032017 2.02008e-20)
(0.796211 0.0431855 5.33634e-20)
(1.00965 0.000379732 -1.30879e-21)
(1.00929 0.000375241 8.57568e-22)
(1.023 0.0245728 0)
(1.02407 0.0246814 -8.48807e-22)
(0.869368 0.462422 -6.09851e-21)
(0.864053 0.435076 -6.38996e-21)
(0.891183 0.443867 0)
(1.22919 0.489625 -7.29977e-20)
(1.23202 0.469256 -3.68076e-20)
(1.13751 0.441812 -6.79753e-20)
(1.07564 -0.00339495 -5.84329e-21)
(1.07672 -0.00422516 -5.86809e-21)
(1.07708 -0.00284943 -1.48558e-21)
(1.00314 0.000892877 -1.40091e-21)
(1.00313 0.00055741 -1.65036e-22)
(1.12252 -0.0197345 4.97846e-21)
(1.12116 -0.017907 7.43004e-21)
(1.12396 -0.0178112 -3.28192e-20)
(1.11543 -0.0268213 3.53481e-22)
(1.11484 -0.0241871 3.81556e-21)
(-0.127567 -0.0160567 3.68447e-20)
(-0.134501 -0.0154897 -7.37976e-21)
(1.2445 -0.0395621 -2.68414e-20)
(1.24282 -0.0419181 -5.12197e-21)
(1.24058 -0.0395342 -4.96409e-20)
(0.992021 0.0112 -3.68622e-21)
(0.991548 0.0109966 -3.4145e-21)
(0.994138 0.0305182 2.1952e-22)
(0.995152 0.0314483 -5.58152e-21)
(1.13919 -0.00700524 4.81645e-20)
(1.14029 -0.00928323 -2.62497e-21)
(0.577318 -0.072143 0)
(0.635739 -0.0748726 -6.72494e-21)
(0.617683 -0.0745512 0)
(0.965222 0.0209423 -3.31957e-21)
(0.964938 0.0233146 -6.23609e-21)
(0.491851 -0.0672694 3.74655e-21)
(0.481409 -0.0672586 1.62941e-20)
(0.536428 -0.0705056 -1.46726e-20)
(-0.183419 -0.0105884 -1.34964e-20)
(-0.15779 -0.0123462 -1.55688e-20)
(-0.177261 -0.0104649 1.08193e-20)
(1.09557 -0.0604235 -1.08578e-20)
(1.09624 -0.061623 -1.38025e-20)
(1.01588 0.0122898 -1.87432e-22)
(1.01632 0.0127856 -5.07446e-22)
(0.493926 0.388585 -3.36336e-20)
(0.513674 0.423527 4.74898e-20)
(0.460645 0.424539 1.49966e-19)
(1.1315 -0.00705628 0)
(1.13411 -0.00713041 0)
(1.1327 -0.00479757 0)
(-0.273916 -0.00830984 -7.669e-21)
(-0.242451 -0.0113777 6.85603e-20)
(-0.259918 -0.00777932 8.71978e-20)
(1.00287 0.0180774 -3.49393e-21)
(1.00325 0.0184942 -1.05579e-21)
(1.00287 0.0188705 -3.11494e-21)
(0.756383 0.0751729 -4.51383e-20)
(0.710762 0.0730916 -5.85084e-20)
(1.01177 0.0256387 -4.74703e-22)
(1.01262 0.0255554 3.13862e-22)
(1.19121 0.0664202 -3.0279e-20)
(1.18746 0.0642563 -2.79184e-21)
(1.18746 0.0685319 0)
(1.00838 0.00119146 0)
(1.00816 0.000825352 -3.26884e-22)
(0.0987344 -0.0366273 4.45393e-21)
(0.0732962 -0.0345064 3.94114e-20)
(0.0924291 -0.0353588 0)
(0.429579 -0.0615392 3.51299e-20)
(0.419567 -0.0610827 -3.28972e-20)
(0.495375 -0.0621719 3.59073e-20)
(0.995383 0.094276 1.62198e-21)
(0.99897 0.0930255 -2.13725e-21)
(1.18049 0.484338 2.52224e-20)
(1.22317 0.496892 1.08622e-19)
(1.19166 0.465783 -3.86518e-21)
(1.08216 0.0631159 5.45825e-21)
(1.08076 0.0603233 0)
(1.01519 0.0121719 -1.77717e-22)
(1.01531 0.0116274 2.3332e-21)
(1.10811 -0.0828495 -2.55322e-20)
(1.11508 -0.0847368 -1.1934e-20)
(1.0876 -0.0547971 -1.66112e-20)
(1.0882 -0.0538889 1.60073e-20)
(1.11448 0.0380768 -2.86647e-20)
(1.11684 0.0368563 1.71256e-21)
(0.686251 -0.0822753 0)
(0.639639 -0.0808076 -1.42175e-20)
(0.708933 -0.082805 0)
(-0.191559 -0.00752249 -1.18745e-20)
(-0.212699 -0.00703329 -3.04317e-20)
(1.01217 0.00309063 1.32084e-23)
(1.01256 0.00313789 -4.48289e-22)
(1.01235 0.0027152 0)
(1.06575 0.0887964 1.38523e-21)
(1.06507 0.0925478 2.62918e-23)
(0.0109159 -0.0320411 0)
(0.023841 -0.0328231 3.14147e-20)
(-0.128248 0.0165055 -2.02482e-20)
(-0.156998 0.0141343 6.84272e-21)
(-0.131783 0.016998 -2.83419e-21)
(0.99999 0.0023841 -3.12124e-21)
(0.999973 0.00278461 -3.31657e-21)
(1.00605 0.00886665 3.20472e-23)
(1.00647 0.00912204 0)
(1.00623 0.00932196 5.68369e-22)
(0.34048 -0.00971285 0)
(0.358416 -0.0125939 -4.18366e-21)
(1.13903 -0.0547632 -2.1854e-20)
(1.13704 -0.055222 5.11357e-21)
(1.13818 -0.0571618 2.4668e-20)
(1.00006 0.000134259 -4.76968e-23)
(1.00003 0.000102492 -1.74838e-21)
(1.00006 0.000168539 -2.21061e-21)
(1.09416 -0.0787782 7.47663e-21)
(1.09231 -0.0779759 -2.5039e-20)
(1.09396 -0.0770581 8.23849e-21)
(1.17815 0.00956816 1.78157e-20)
(1.17686 0.00624816 1.79148e-20)
(1.17426 0.00941225 6.51263e-20)
(0.798293 -0.0278591 1.4255e-19)
(0.793765 -0.0375099 4.6258e-20)
(1.09304 0.106677 0)
(1.09609 0.110195 0)
(1.09667 0.105152 -1.02073e-20)
(1.00002 0.00274586 -5.23691e-21)
(1.00004 0.00231581 -4.59505e-21)
(0.982113 0.210413 7.80909e-21)
(0.983482 0.200712 3.75949e-21)
(0.97374 0.204976 -5.79593e-21)
(-0.15533 -0.0107819 1.07231e-20)
(-0.152933 -0.00988796 3.02356e-20)
(-0.185614 -0.00662773 2.92929e-20)
(1.04065 0.00325521 3.52226e-21)
(1.04086 0.00259167 -3.55475e-21)
(1.04163 0.00310967 -1.02146e-21)
(1.20359 0.140765 3.68404e-21)
(1.19805 0.14424 -1.7595e-20)
(1.19852 0.136423 -2.00214e-20)
(0.568402 0.160303 -5.95923e-20)
(0.58387 0.181031 3.41736e-20)
(0.553983 0.186366 -1.81779e-20)
(1.03368 0.0263785 0)
(1.03473 0.0262436 0)
(0.995337 0.0276071 -1.95004e-21)
(0.994365 0.0279617 -7.12633e-21)
(1.10629 -0.0419762 1.46722e-20)
(1.10784 -0.0430111 3.95933e-21)
(1.10598 -0.0436334 -1.03147e-20)
(0.370915 -0.0186428 -7.87094e-21)
(0.356426 -0.0159866 1.96653e-21)
(0.354109 -0.0161982 -2.64289e-21)
(1.10915 -0.0483125 -1.11254e-20)
(1.11097 -0.0472041 -1.94691e-20)
(0.94004 0.120963 -1.07545e-20)
(0.934429 0.122153 -1.65657e-20)
(0.977912 0.0956879 6.57713e-21)
(0.975312 0.0994818 0)
(1.00005 0.000291392 1.07826e-21)
(1.00005 0.000253244 8.78683e-22)
(1.00002 0.000170522 0)
(0.102144 -0.0109465 -3.57462e-21)
(0.109942 -0.0115118 1.1716e-20)
(0.593118 -0.0414988 -5.85396e-20)
(0.681429 -0.0444899 2.4073e-21)
(0.675955 -0.0421103 -2.28048e-20)
(1.08561 -0.0751037 8.88942e-21)
(1.08886 -0.076092 -3.16993e-20)
(1.09202 -0.0762022 -1.67124e-20)
(1.01466 0.0121096 1.00393e-21)
(1.01513 0.012643 4.69431e-22)
(-0.163735 -0.0141783 -2.61557e-20)
(-0.136424 -0.0171279 -1.09444e-20)
(-0.147578 -0.0156092 -2.87469e-20)
(-0.00284819 -0.0143164 -1.08306e-20)
(0.00266946 -0.0130203 4.06757e-21)
(-0.0223637 -0.00962478 -1.00221e-20)
(1.06503 -0.0925187 -6.87595e-21)
(1.08145 -0.0928643 1.59065e-20)
(0.529898 -0.0531101 -1.26237e-21)
(0.500336 -0.052502 6.04965e-22)
(1.08392 -0.05317 -1.10549e-20)
(1.08301 -0.0533189 1.3119e-20)
(1.00002 0.00318629 -3.71553e-21)
(1.00639 0.000729529 -4.17084e-24)
(1.00605 0.000777546 -6.8716e-23)
(1.00645 0.00114682 1.91144e-22)
(1.13955 0.0121237 1.10639e-20)
(1.13685 0.0119628 1.53089e-20)
(1.13867 0.00956624 2.14125e-20)
(0.0267508 -0.0275626 -4.43809e-20)
(0.00803297 -0.0241114 9.86052e-22)
(0.0022067 -0.0239171 1.14795e-21)
(1.16419 -0.0293178 2.01281e-20)
(1.16621 -0.0274029 -3.21369e-20)
(1.16689 -0.030922 -5.41941e-20)
(1.06909 0.0424761 1.61451e-21)
(1.07094 0.0412202 -6.53247e-21)
(1.24142 -0.0386056 -1.51721e-20)
(1.21335 -0.0457001 -4.25174e-20)
(1.0782 -0.0379171 -2.29071e-21)
(1.07734 -0.0371941 9.2274e-21)
(1.0179 0.00103448 -4.38137e-21)
(1.01787 0.00128998 -3.71258e-21)
(1.01811 0.00115691 1.748e-21)
(0.955585 0.0229512 -2.5612e-20)
(0.947723 0.0171732 1.5861e-21)
(0.854947 0.00409524 -9.26205e-20)
(1.00202 0.00490625 2.3863e-23)
(1.00203 0.0046908 0)
(1.00182 0.00456835 -1.41457e-21)
(0.805149 -0.0829087 0)
(0.734937 -0.0812739 1.60345e-20)
(1.07445 -0.00224612 2.07596e-21)
(1.07402 -0.00364891 2.10149e-21)
(1.00006 0.000104036 1.2481e-21)
(1.0001 0.000164428 1.96776e-21)
(1.00189 0.107973 3.23812e-21)
(1.00072 0.112651 8.38617e-22)
(0.997855 0.108265 -2.62066e-21)
(1.0224 0.186656 -1.24894e-21)
(1.01788 0.18132 2.84023e-21)
(0.778089 -0.00966064 2.33012e-20)
(0.788395 -0.00918973 2.83834e-22)
(1.09984 -0.0804319 -6.09775e-21)
(1.09646 -0.0793581 0)
(0.999717 0.142395 -1.64349e-21)
(1.00004 0.148512 1.00455e-21)
(0.993998 0.144489 -5.21286e-22)
(1.04378 0.00909037 2.28005e-20)
(1.04442 0.00990749 8.71836e-21)
(1.04333 0.00973897 2.06342e-21)
(1.24257 0.011747 1.16439e-20)
(1.24581 0.0157519 2.54205e-20)
(1.26138 0.0126495 2.18596e-20)
(0.725451 -0.0834068 0)
(0.659661 -0.0826486 0)
(0.516487 -0.0466118 -4.20427e-20)
(0.521689 -0.0452755 -5.12422e-20)
(1.00243 0.0178272 -2.06649e-21)
(1.00279 0.0174742 -4.96306e-22)
(1.04781 -0.090646 2.22756e-20)
(1.09069 -0.0894263 -3.52809e-20)
(1.03658 -0.0897219 -1.60243e-20)
(0.998496 0.000351781 -1.73137e-22)
(0.998391 0.000617193 5.11828e-23)
(0.998207 0.000395533 1.10953e-21)
(1.04338 0.00826463 4.32812e-22)
(1.04447 0.00836336 1.19837e-20)
(1.00085 0.0129328 1.11957e-21)
(1.00121 0.0132589 5.90011e-21)
(0.840076 0.631496 -8.81224e-21)
(0.792757 0.637494 -2.0664e-21)
(1.00162 0.000943792 0)
(1.00176 0.000822068 0)
(1.00151 0.0007417 0)
(1.19469 0.0683898 -5.75701e-20)
(1.19475 0.0642282 -2.62839e-20)
(1.08939 0.109127 0)
(1.08961 0.104122 0)
(1.03131 0.0197284 -1.99877e-21)
(1.03232 0.0195304 -3.67057e-21)
(1.12366 -0.021632 -2.17758e-21)
(1.12091 -0.0209953 2.34413e-20)
(1.03734 0.0573706 8.88589e-22)
(1.03825 0.055655 -2.53339e-23)
(1.03961 0.0574441 2.67831e-22)
(0.119562 0.0606073 -1.36567e-19)
(0.107105 0.0446018 -9.76202e-20)
(0.104667 0.0767518 2.03543e-20)
(1.0199 0.193415 -1.11933e-21)
(1.0125 0.19384 2.94195e-21)
(1.17209 0.12326 -3.13408e-20)
(1.16919 0.12952 6.05639e-22)
(1.03 0.0139235 3.89666e-21)
(1.03067 0.0145483 2.83276e-21)
(1.03072 0.0137205 4.67073e-21)
(0.996255 0.0272374 5.48019e-21)
(0.995409 0.0264451 5.48688e-21)
(-0.174518 -0.0121604 -4.5843e-20)
(-0.19699 -0.0113792 2.66607e-20)
(-0.202626 -0.0113967 -5.01211e-20)
(0.0996504 -0.0140436 7.35659e-21)
(0.0912124 -0.0133547 -1.77974e-21)
(0.113633 -0.0180963 1.98839e-20)
(1.001 0.0149158 0)
(1.00133 0.0145997 0)
(1.00708 0.000672823 1.96012e-24)
(1.00751 0.000907819 4.17798e-22)
(1.00711 0.00119258 -4.18919e-22)
(0.947183 0.0220117 4.42171e-20)
(1.06627 0.0315225 -3.97999e-20)
(1.01559 0.0249072 6.44077e-22)
(1.01585 0.0258751 4.02719e-22)
(1.01665 0.0253882 -3.11369e-22)
(-0.0588113 -0.0243355 -3.30649e-21)
(-0.0770849 -0.0221512 -2.53531e-20)
(1.02925 0.0134795 -6.25427e-21)
(1.02925 0.0142856 -3.27056e-21)
(0.10377 -0.0372425 4.56537e-22)
(0.12393 -0.0393538 3.85769e-21)
(1.04721 -0.0050454 -6.07307e-21)
(1.04667 -0.0056781 2.94873e-21)
(1.04757 -0.00573035 1.77609e-21)
(1.2188 0.32096 3.13232e-20)
(1.20634 0.320229 2.85953e-20)
(1.2116 0.333208 4.77982e-20)
(1.10147 0.00127836 -2.8351e-20)
(1.10146 0.00328943 1.77686e-20)
(1.10353 0.00223362 -1.32212e-20)
(0.0977813 0.308788 -5.95986e-20)
(0.096136 0.268544 -1.35243e-19)
(0.13133 0.286097 -1.4112e-19)
(0.944962 0.0450997 5.25567e-21)
(0.944494 0.0416915 -9.78725e-22)
(1.29537 0.00484886 -2.22941e-20)
(1.29336 0.00401633 -3.49962e-20)
(0.516835 0.295322 0)
(0.489966 0.305808 8.18138e-21)
(0.51806 0.327886 2.53821e-20)
(1.00589 0.108178 0)
(1.00342 0.104856 2.26753e-22)
(1.13996 -0.0530683 7.91533e-21)
(1.14113 -0.0549751 -2.26063e-20)
(0.954817 0.51022 -9.09025e-21)
(0.972204 0.528338 -4.54263e-20)
(0.942731 0.533632 4.32339e-21)
(0.996886 0.0437504 -3.77349e-21)
(0.99539 0.043256 -3.26321e-21)
(0.99581 0.0450848 -8.74408e-23)
(0.187049 -0.0348429 -1.0069e-20)
(0.160966 -0.0304883 -5.30646e-21)
(0.172032 -0.0315132 -5.04572e-21)
(0.582151 0.0417996 -9.1243e-20)
(0.56144 0.0329338 -8.24965e-20)
(0.0137177 -0.017168 -1.46098e-21)
(-0.00501345 -0.0147055 5.65162e-22)
(0.923183 0.0183065 1.04353e-21)
(0.919587 0.0195464 -1.73221e-21)
(0.922401 0.0223234 5.29663e-22)
(0.227557 -0.0119761 -9.50637e-27)
(0.203633 -0.0080972 4.58136e-27)
(0.231187 -0.0111875 7.74364e-23)
(1.06891 0.0878547 5.90894e-21)
(1.07133 0.0912169 1.68584e-21)
(1.07231 0.087609 4.99612e-22)
(-0.100435 -0.0046511 0)
(-0.0699967 -0.00423796 0)
(-0.0587137 -0.00561161 0)
(0.523132 0.264148 -2.67857e-21)
(0.548626 0.287303 0)
(0.930081 0.350869 4.60245e-21)
(0.913423 0.348552 -1.55239e-21)
(0.92267 0.366168 6.46962e-21)
(0.94829 0.356252 -4.72814e-21)
(0.939766 0.337817 -5.21724e-22)
(0.530326 -0.0740354 4.56437e-20)
(0.500425 -0.0737107 7.94486e-21)
(0.999759 0.00249546 -9.38104e-23)
(0.999695 0.00278879 -5.85772e-22)
(0.999726 0.00283031 -7.04676e-22)
(1.05632 0.173659 -9.70898e-21)
(1.05341 0.180658 7.38891e-21)
(-0.11773 -0.0165351 -1.61009e-20)
(-0.131855 -0.0156482 -1.2227e-19)
(0.98337 0.0296089 -7.87201e-23)
(0.982449 0.0305021 -1.92471e-21)
(0.982111 0.0288146 -4.46554e-21)
(1.00277 0.0734673 -1.09438e-21)
(1.00353 0.0710789 5.49069e-21)
(1.00079 0.0715752 3.59745e-21)
(0.0195612 -0.0138614 0)
(0.0268784 -0.0138842 0)
(0.846124 0.481279 -2.29984e-21)
(0.878696 0.489303 -5.61365e-21)
(1.0173 0.052003 -1.28593e-23)
(1.01727 0.0536121 -3.79145e-22)
(1.01913 0.0530528 -7.43318e-22)
(1.12165 -0.0817279 -2.02579e-20)
(1.11878 -0.08193 -2.30597e-20)
(0.682128 0.553836 1.91235e-20)
(0.708342 0.52549 4.37481e-20)
(1.00913 0.00505367 -1.20336e-22)
(1.00956 0.00531154 2.29316e-22)
(1.00949 0.00482772 -6.54411e-23)
(0.154384 -0.0124038 1.16939e-20)
(0.134573 -0.00865929 3.10462e-20)
(1.11958 -0.084422 2.03965e-20)
(1.12464 -0.0865387 1.41811e-20)
(1.11487 -0.0837024 -2.6802e-21)
(1.00201 0.00511709 -1.47686e-21)
(1.00222 0.0052561 1.59685e-21)
(1.00989 0.0130747 1.29591e-23)