/*--------------------------------*- C++ -*----------------------------------*\
| =========                 |                                                 |
| \\      /  F ield         | OpenFOAM: The Open Source CFD Toolbox           |
|  \\    /   O peration     | Version:  v2012                                 |
|   \\  /    A nd           | Website:  www.openfoam.com                      |
|    \\/     M anipulation  |                                                 |
\*---------------------------------------------------------------------------*/
FoamFile
{
    version     2.0;
    format      ascii;
    class       volScalarField;
    location    "850";
    object      ddt0(k);
}
// * * * * * * * * * * * * * * * * * * * * * * * * * * * * * * * * * * * * * //

dimensions      [0 2 -3 0 0 0 0];


internalField   nonuniform List<scalar> 
13851
(
7.5786e-06
1.10242e-07
1.22303e-07
-0.000836004
1.96609e-07
2.15568e-07
-1.11393e-07
5.33695e-07
-0.000595647
1.00674e-07
2.81812e-07
9.78574e-08
6.82398e-08
0.00164717
1.47663e-06
4.7479e-06
-0.00137229
7.01542e-08
8.22766e-05
7.30099e-06
1.54298e-06
-1.39212e-08
-0.00252344
3.70545e-08
0.0181668
3.70747e-06
2.36303e-05
5.86224e-05
-0.00122003
2.24652e-07
-0.00254411
-8.59204e-08
8.30923e-06
-0.024774
2.54637e-07
-0.0019429
1.63134e-08
0.00168086
-0.000691642
1.32037e-07
0.00541726
-0.00181614
-0.000496984
-2.40938e-05
-0.00319197
2.10831e-07
2.93124e-07
5.39892e-06
1.19082e-08
5.5341e-08
-0.000506024
4.24483e-08
4.55956e-06
8.39278e-07
0.000625483
1.36379e-07
8.09083e-06
0.00294697
-2.25908e-05
0.00588674
9.61763e-08
2.41432e-05
3.21514e-08
1.56817e-08
-1.21967e-06
-1.1715e-06
0.00601251
-1.50026e-06
8.38988e-08
-0.00142991
-0.00220393
1.69126e-06
1.46437e-07
0.00580093
1.13534e-06
-6.59903e-09
-0.00154642
2.26115e-07
0.0215298
1.87495e-07
8.02242e-08
4.04663e-05
2.62638e-07
0.00217016
0.00591915
-0.00248357
-1.62611e-09
-4.66991e-06
1.38553e-07
-0.00250347
1.76676e-08
-7.00638e-08
-0.000467424
-0.002289
0.0032395
3.83105e-07
2.02976e-07
4.91025e-06
0.000399635
-5.74857e-07
4.99556e-06
-7.25297e-07
6.94957e-08
1.13265e-07
1.93612e-07
1.27013e-06
1.97186e-07
-0.00233829
-4.9166e-08
8.80287e-08
8.03091e-08
2.01956e-07
3.25136e-06
7.83567e-07
8.66868e-06
6.59528e-07
2.63853e-07
5.0798e-07
-0.000725783
-0.00152394
3.12645e-06
1.43382e-07
9.65324e-08
0.00267098
1.56469e-05
-1.69528e-06
2.07027e-07
1.32106e-07
-0.0171107
1.91637e-06
-1.18729e-08
2.85231e-07
0.00381361
-0.025592
2.73628e-07
0.00206772
-2.58009e-06
-0.00238427
4.93266e-07
2.10176e-06
1.58559e-05
3.65577e-08
1.25843e-07
-1.19607e-06
0.0290787
1.07205e-08
2.19344e-07
-0.0023074
0.000292653
1.88414e-07
5.20333e-06
1.68207e-06
7.91021e-07
1.24776e-05
4.96682e-08
6.58177e-08
9.11925e-08
-0.000457425
1.86966e-06
2.22536e-08
5.23268e-08
-0.0015128
1.23741e-06
5.48157e-06
0.0015521
-0.00305248
-0.00337378
-0.000229889
3.57414e-08
0.0216538
8.59025e-08
2.92281e-07
1.30064e-06
1.60509e-07
0.00350177
4.14803e-05
8.08894e-06
2.88942e-07
1.09421e-06
7.59447e-06
1.41857e-05
-3.4914e-05
-8.21263e-09
2.00643e-06
-0.000710293
0.000247472
8.14406e-06
2.47845e-08
7.1773e-08
2.26451e-07
0.0300537
1.86165e-06
0.00128146
2.37508e-07
2.70927e-09
4.63446e-06
8.01847e-06
-2.47251e-09
3.67984e-08
-4.13766e-07
1.72765e-05
0.00816624
0.00734602
1.5387e-06
-0.00147025
0.006932
-1.16984e-08
2.29592e-06
-0.00038742
1.4557e-07
4.9296e-06
1.04636e-07
4.95871e-05
1.01516e-08
1.95735e-07
-9.11701e-09
6.1219e-08
1.42376e-05
1.40857e-08
1.93739e-06
2.84913e-07
6.83008e-06
0.00208546
0.0026732
-1.90386e-08
2.37955e-06
1.6075e-08
-1.84357e-06
1.55588e-07
2.44926e-07
-0.00097679
-7.31522e-09
1.58207e-07
6.04996e-09
0.00569379
2.22654e-07
0.00574876
0.00755784
-1.92238e-06
2.98663e-08
0.000703075
0.00569403
-0.00350483
4.55763e-06
8.73506e-07
3.42408e-07
1.07861e-05
1.12838e-06
-2.05328e-08
2.34075e-07
0.000290995
5.63348e-06
4.2559e-07
2.85925e-07
4.91114e-06
-0.00141526
-0.000407586
2.5173e-07
-1.50359e-06
1.31848e-07
1.42466e-05
1.30686e-05
3.27914e-07
1.38724e-06
5.36358e-06
1.58714e-07
-5.93528e-07
5.38536e-06
-6.81303e-06
9.13693e-08
5.51713e-08
3.37297e-08
-0.00403142
-0.000576811
1.6974e-06
1.30441e-07
1.40163e-05
1.1538e-05
7.07258e-06
1.35505e-06
-0.00267585
0.00185677
3.37667e-07
1.14203e-06
0.000437711
1.97625e-07
9.18489e-08
7.3617e-06
3.11301e-07
2.06549e-07
4.4525e-08
1.68091e-07
2.75369e-07
9.62254e-07
9.3612e-08
-0.000924923
1.57791e-06
1.64527e-07
-0.00156876
0.00386899
5.62671e-08
6.85354e-06
-0.000220941
3.47733e-08
3.74707e-08
1.5345e-06
0.00296182
-0.00463744
1.70461e-06
2.13119e-07
0.0187925
8.85112e-08
1.82124e-06
0.000224486
3.03455e-05
1.43157e-08
0.000584064
0.00333193
-0.00253106
1.62401e-06
-9.34337e-07
0.00196817
-0.00338449
8.9048e-05
2.71204e-08
-0.0015045
0.000262712
-7.8454e-06
-2.46701e-06
-1.37995e-08
1.4828e-06
-2.72723e-08
-5.56538e-05
2.12733e-06
3.57274e-07
3.43897e-07
9.39946e-08
-0.00236748
1.34167e-06
2.03368e-07
0.00298861
-1.8364e-08
3.02598e-07
2.32035e-08
0.00259038
1.2973e-05
4.65879e-06
-1.59599e-08
1.27057e-07
-0.00330138
7.0305e-08
7.74236e-06
3.38529e-07
1.52704e-06
5.90638e-09
1.33847e-07
1.68485e-07
6.01817e-07
-1.07985e-06
5.9632e-06
0.00651303
-0.0034441
-1.21909e-08
0.00612921
1.89122e-05
1.32651e-07
1.82281e-05
3.75665e-06
0.000528055
7.83407e-08
3.89725e-06
2.35045e-06
0.00918235
7.54171e-07
-3.07896e-05
1.9563e-08
4.30504e-05
-0.000479189
5.86591e-07
0.000357662
7.18005e-07
0.0120811
1.11678e-06
2.36712e-06
5.38222e-06
-1.70489e-06
6.33975e-08
2.90482e-07
3.0961e-07
1.14789e-06
2.15553e-07
1.79669e-06
-0.000883318
1.42056e-07
2.25917e-06
-0.000405402
8.5874e-08
-0.00621789
2.58379e-06
-0.00481688
1.76531e-07
3.57213e-06
-1.43953e-05
1.51967e-05
1.15721e-06
-0.000127975
0.00552387
-0.000144955
1.73209e-07
3.22361e-07
6.45233e-07
3.68819e-06
1.55101e-07
-0.000634414
0.00192115
0.0138084
1.367e-07
5.4993e-06
3.19674e-05
-0.00058509
1.60965e-07
-0.00112208
1.40361e-06
-0.00127414
1.24419e-07
0.0034541
1.15851e-07
1.63112e-07
0.000693204
3.58841e-05
9.9311e-08
1.24413e-07
2.28405e-06
2.67681e-07
0.000819281
1.60153e-06
3.62513e-06
2.74425e-07
2.10995e-08
8.01501e-09
0.0111047
1.63134e-07
4.2305e-09
-0.0143909
-0.000160445
-2.0633e-08
8.96897e-06
2.92421e-09
1.04945e-07
9.71248e-08
5.66673e-06
2.60734e-06
1.87895e-07
2.29872e-08
1.93133e-06
5.32166e-08
-0.00483561
1.10555e-07
4.20344e-07
-0.00349097
-2.72954e-09
3.3939e-07
7.28096e-08
2.70804e-07
-1.12386e-08
0.000838705
-0.0118449
9.0266e-07
-5.0167e-06
1.08376e-07
1.22209e-07
-0.00964309
5.52003e-06
1.93408e-07
1.47102e-07
-8.13549e-05
3.61765e-07
-0.00275558
1.1612e-07
3.29576e-07
7.27329e-07
1.34655e-06
-0.00757278
3.06408e-05
0.0140589
5.12266e-09
1.70508e-06
1.7827e-07
-0.00113274
2.57483e-06
8.12391e-06
6.60176e-07
-1.58025e-08
-4.04604e-08
1.36072e-06
1.87781e-07
-0.000725137
-0.00637913
-0.0048428
-0.000106583
-0.0124833
-0.00107414
1.16898e-05
3.25388e-08
1.18109e-08
-0.00108131
7.93645e-08
1.98714e-07
-4.95182e-08
0.00483444
1.18432e-07
3.85275e-08
-7.62693e-07
7.21045e-07
4.65116e-08
0.00839762
1.98613e-07
-0.0207819
3.42023e-05
1.9155e-07
4.5043e-08
3.69945e-06
3.24116e-05
2.12767e-07
-0.000414044
-0.00591795
4.61476e-08
-0.00213186
7.06717e-05
6.57922e-06
8.03432e-09
-0.0130825
0.00349296
2.87586e-08
4.15891e-05
8.93126e-08
1.94015e-07
-0.0121664
0.0133315
7.004e-07
2.53821e-06
7.50352e-08
3.17928e-06
-0.02045
0.000549875
2.22517e-08
-0.00185688
2.07187e-07
7.98792e-08
1.16845e-06
2.96047e-07
1.52897e-07
-4.2049e-09
-0.00214688
-9.09895e-06
-0.00186469
8.37443e-08
1.4011e-07
-0.00417083
3.089e-08
4.53385e-07
4.68334e-07
1.15765e-06
8.16055e-07
-0.00687861
0.0015634
2.4155e-07
-0.00101876
4.22065e-09
1.19972e-06
-0.00219515
0.000716151
1.09381e-07
1.61556e-07
1.79369e-06
-0.0017943
1.02824e-05
3.15197e-06
0.00260619
2.7378e-07
1.0302e-06
-0.00103809
0.00523288
2.41041e-07
-0.0178604
1.50084e-05
-0.00315217
1.82342e-08
-2.65779e-06
0.000406903
9.75276e-08
-0.00072343
0.0152215
-1.05154e-07
2.0256e-06
1.40728e-07
-3.74489e-06
3.01995e-07
-0.00185107
1.62709e-07
1.21037e-07
-4.13015e-08
6.93199e-07
1.1734e-07
0.00450235
1.24976e-07
1.46423e-05
-1.8132e-09
3.813e-06
1.32919e-07
4.78819e-08
3.0731e-08
-0.00176581
1.06166e-06
0.00238415
3.42697e-07
2.349e-07
1.1113e-07
1.25746e-06
2.27459e-08
1.45819e-06
1.44034e-07
-2.68148e-08
-2.43978e-05
4.76959e-09
-0.00034473
1.441e-08
4.17637e-06
-0.00116254
-0.0041874
1.15313e-06
-0.00251733
-5.94585e-07
3.69851e-05
0.0149217
1.82387e-08
0.00558687
-2.46332e-08
6.36449e-07
-0.000124517
0.012115
1.49857e-07
1.20182e-06
-5.96626e-09
-0.00266024
-0.000726886
4.82977e-08
3.81902e-07
0.000743371
2.20007e-08
2.16745e-08
3.76935e-06
-0.000130323
-0.00393872
3.7996e-08
5.09157e-06
4.21866e-08
5.47737e-08
-5.46553e-05
5.40984e-06
-1.31471e-06
1.98388e-07
5.54861e-06
-4.77465e-07
3.43325e-06
1.13368e-09
-1.25547e-09
1.08697e-07
-1.11095e-07
5.61815e-06
1.72448e-06
1.62355e-06
-7.98388e-07
-0.00200059
3.57972e-05
-0.01337
0.00176805
5.16891e-06
0.00237639
1.88478e-08
-0.0118084
6.73844e-06
1.03632e-07
9.72928e-07
1.22289e-05
3.68524e-08
1.87713e-07
1.84313e-07
4.22511e-06
8.60673e-06
4.52454e-07
0.0065807
2.48296e-07
-0.00655931
-1.57516e-06
-0.000254552
1.02753e-06
1.81737e-07
1.1376e-07
-0.000295009
-3.41561e-06
-9.84081e-08
3.34211e-05
2.20494e-08
0.0033894
4.18898e-06
1.4773e-05
5.14698e-07
0.0001252
1.17452e-07
1.11742e-08
-8.53754e-09
5.37954e-08
-0.00205945
2.71849e-07
-4.63615e-05
-0.00292102
1.22626e-06
0.00103736
0.000467162
1.5302e-05
3.07871e-05
1.1869e-07
-6.89022e-09
5.67324e-08
2.40767e-07
1.21471e-07
1.33727e-07
1.31155e-06
4.52631e-06
4.95021e-08
-5.2502e-06
-1.01551e-08
-0.000267103
-1.04455e-09
-0.000931565
1.83665e-07
1.58557e-08
-4.11223e-10
-0.00380833
2.23633e-07
7.47736e-05
0.0171521
2.05054e-06
2.48675e-06
3.54545e-08
-0.025196
-1.4453e-08
1.16984e-07
-2.63751e-05
4.20832e-09
3.19478e-08
4.80412e-08
2.51972e-06
0.000184035
2.8051e-07
5.93414e-07
-4.84235e-06
0.000617726
-8.4825e-09
6.484e-08
-0.00260539
2.52105e-07
-0.00240674
9.15783e-08
5.25742e-08
0.0244401
4.21606e-06
8.68577e-06
4.68121e-07
1.07132e-06
2.05055e-08
-3.976e-10
1.27741e-06
2.09632e-08
1.02997e-08
4.63276e-07
-7.76872e-07
2.06346e-07
-4.25934e-05
-0.0011703
7.8701e-05
3.7314e-07
-0.00234239
8.06837e-07
1.7086e-09
7.51346e-08
2.23583e-07
2.99815e-07
-0.00792643
-0.00373708
0.00490799
-0.0034567
3.63159e-08
7.45043e-08
-3.9169e-07
1.37898e-08
1.98397e-07
-0.00201523
1.46444e-05
0.000526829
4.16476e-06
4.40912e-06
5.8684e-08
2.2816e-07
-0.00037222
3.5521e-06
8.62192e-08
5.53708e-09
8.68275e-06
3.33207e-06
0.0086105
5.32293e-08
8.11383e-08
0.000210587
-1.22068e-09
7.72563e-07
2.72664e-07
0.00579967
4.63796e-07
-0.0013358
6.16886e-08
-2.72809e-06
1.38041e-06
-5.14636e-07
5.66316e-07
1.47461e-07
1.24942e-07
1.86408e-07
-5.82731e-05
3.33637e-08
-0.000700877
2.12792e-08
5.84146e-05
-0.00824281
4.25255e-07
2.55487e-07
-0.000421493
-0.0129922
2.72181e-07
4.25633e-06
6.55113e-08
-4.95786e-05
9.31691e-08
1.87693e-05
1.07029e-07
1.87146e-07
0.000158945
8.33854e-07
7.60095e-08
9.06471e-07
-0.00655919
1.53673e-05
0.00555759
2.52535e-07
0.00228776
9.31263e-08
2.00444e-07
4.84384e-08
3.55034e-07
1.96327e-08
0.0151579
-0.0107092
1.89018e-08
1.27348e-07
7.86061e-07
1.99659e-07
-0.000555616
6.57652e-07
0.00211351
0.0015957
1.12077e-07
5.73675e-06
1.03346e-07
1.45533e-06
1.95152e-07
1.59508e-08
6.19347e-08
-9.71181e-05
-0.000418399
2.54e-06
-0.000767333
2.89189e-06
4.8689e-08
5.87962e-07
4.34111e-06
-0.00173645
8.64742e-07
3.62603e-05
3.4831e-06
5.18172e-08
-0.00151046
-0.00142736
0.000142318
0.0218623
-0.0131039
7.38206e-09
7.56266e-07
8.13856e-09
5.73061e-07
3.84339e-08
3.51872e-07
0.0103586
3.2843e-09
2.30755e-07
1.03874e-07
1.17736e-08
0.00504785
1.02539e-05
2.19155e-07
5.82979e-07
0.00249296
7.84202e-09
-0.000683692
1.57798e-08
3.81091e-06
0.0122967
1.12461e-07
8.71717e-06
4.5604e-08
4.51477e-07
-2.71386e-05
3.6459e-09
2.2442e-05
3.57181e-06
-0.00376278
-1.84723e-08
-0.000340421
5.33819e-07
0.00526927
-0.0012988
-0.000128303
2.12844e-06
1.29022e-07
3.84372e-08
1.94655e-08
2.11707e-06
2.17787e-08
-0.0111663
-1.46178e-08
-6.86637e-09
4.88306e-08
9.8132e-09
2.45695e-07
1.5457e-08
6.08964e-08
5.10284e-08
-7.2045e-09
0.0156486
-6.58747e-05
5.48809e-07
1.13551e-07
0.0101273
3.98873e-08
-0.00249652
2.5907e-07
-2.61858e-07
3.02043e-08
1.32511e-07
3.09652e-08
1.30803e-07
2.35475e-07
2.1715e-07
5.22732e-08
-1.50733e-05
1.88536e-08
-0.000661611
1.65415e-05
1.18344e-05
9.7718e-06
2.69325e-08
0.000993007
7.04507e-06
3.77512e-08
4.39011e-08
4.3066e-08
-0.00269977
1.04406e-08
6.49944e-07
-2.51951e-05
-0.00036394
2.58999e-07
4.9004e-08
-0.00582254
5.32156e-05
-0.0125213
5.12797e-08
2.34824e-07
2.10798e-08
1.73202e-06
1.23472e-07
0.00368418
4.6219e-07
9.89246e-09
1.81379e-05
1.7704e-06
7.94072e-08
0.0176765
-0.00121734
1.44135e-05
2.01125e-08
-0.00571305
1.31135e-06
1.52905e-07
0.000453169
-2.25836e-08
9.92433e-08
1.98121e-07
9.91553e-07
2.13948e-06
-0.00102999
-0.00266162
2.07027e-06
-0.00288949
1.19232e-06
1.39855e-07
2.18876e-06
1.82861e-07
-0.00175522
2.72868e-08
1.74007e-07
-2.45673e-08
1.97395e-08
-0.00373205
-0.000176924
1.21335e-05
0.00124548
-0.00214409
1.14055e-08
1.49295e-07
2.04109e-08
3.57152e-05
2.19714e-08
5.26164e-07
2.41388e-07
0.0237028
-3.59487e-05
3.47676e-07
-1.8111e-07
6.03895e-07
6.09938e-06
-0.000529006
4.08973e-08
1.53738e-07
2.20421e-08
0.0132773
4.5813e-07
-0.0188375
8.99548e-09
8.16839e-08
9.13588e-08
2.00179e-07
-2.07522e-08
1.44161e-05
-0.00374036
-0.00312545
-1.46969e-07
1.16759e-07
0.000213798
-1.40689e-08
0.0111629
0.00282664
1.033e-07
-0.00188753
-0.00156575
-0.00218354
3.0358e-06
8.57103e-07
0.00247338
6.18737e-07
1.85475e-08
-3.06815e-07
-4.4932e-05
1.36687e-08
4.92104e-06
1.33818e-07
-0.00499674
0.0125568
2.60716e-07
-1.54502e-08
2.47911e-08
2.91267e-05
9.19169e-07
1.20308e-07
5.08988e-07
3.91605e-09
2.38741e-07
-5.16801e-06
-8.01858e-09
-0.0123923
0.000108488
1.31285e-07
7.64697e-07
2.00766e-06
8.96367e-08
-0.00348537
0.00013155
0.00144739
-0.00114757
1.3688e-07
-7.20947e-09
8.55469e-08
5.59712e-08
9.27665e-06
9.85549e-07
1.51812e-08
3.17211e-06
-5.27977e-09
0.00019025
1.3817e-06
0.00221493
-2.07522e-09
2.11904e-09
2.57795e-07
3.08977e-06
1.82667e-06
1.71262e-07
0.000228951
0.00351566
-0.00260592
-0.00103472
-0.00858372
-0.00246357
0.00527729
1.67888e-07
1.53515e-07
2.36843e-08
9.924e-06
2.55826e-06
1.71552e-06
-0.00078515
-9.94522e-09
3.25353e-07
7.6574e-08
9.34123e-06
2.11151e-07
3.35439e-07
5.9453e-09
-0.00833017
2.74046e-08
2.2747e-07
8.35089e-08
1.78639e-07
1.16662e-07
-2.48543e-08
9.63703e-06
3.35194e-08
2.29514e-05
1.37736e-07
2.02262e-07
-0.0176764
-0.0144902
9.30423e-05
-0.000182796
7.05434e-07
-0.00812629
2.59184e-07
1.17428e-08
1.02574e-09
6.73952e-08
4.43042e-08
-0.0016416
2.25698e-08
3.26432e-06
0.000316744
-3.8098e-09
1.55376e-07
-3.68703e-08
1.57572e-05
2.2066e-08
-0.00729353
2.61275e-08
4.27846e-06
-4.6636e-09
2.27014e-08
2.91898e-07
-3.64209e-07
7.11532e-08
2.54265e-05
-0.00230314
8.17931e-06
-0.0250977
1.11702e-07
-0.00178812
3.52357e-05
1.06416e-07
0.0104557
5.74133e-08
-1.75544e-06
7.22206e-08
-7.45277e-09
1.96106e-07
2.83807e-08
3.37638e-08
-3.17001e-07
2.71574e-06
4.22945e-08
2.30664e-09
-1.94009e-06
1.10295e-07
-0.00283623
2.80363e-09
6.23815e-07
1.14372e-06
0.00549581
-3.5902e-05
1.06761e-08
1.49224e-05
2.86236e-07
6.02652e-07
-2.20107e-08
-0.000150294
2.19755e-06
3.26183e-08
5.1666e-06
1.96738e-06
4.25561e-06
6.76567e-05
5.2641e-08
3.73351e-06
3.0935e-06
3.04324e-06
2.71354e-08
1.46883e-07
0.000165135
-0.000395848
3.85557e-08
1.56209e-07
-0.000591981
2.29355e-07
1.20228e-06
1.76929e-07
2.86342e-07
0.00522457
1.51951e-07
-0.000842105
2.25792e-07
8.20716e-08
6.87424e-06
3.35884e-07
-9.80632e-07
-0.00139009
8.669e-07
6.39466e-05
2.17196e-07
3.3326e-08
-1.57801e-06
1.24896e-08
1.9723e-08
4.8065e-07
4.75511e-07
2.64055e-06
1.15127e-07
1.18803e-07
-1.47391e-07
1.67909e-07
1.18571e-07
1.1002e-08
9.89422e-08
-0.000948249
3.85334e-08
3.11901e-08
9.38582e-06
2.37511e-07
1.65981e-07
-0.00699607
1.35458e-08
-0.00076059
4.30582e-08
-0.00644548
1.31004e-05
-2.4867e-07
-0.000745245
4.53942e-07
-3.8068e-05
2.1462e-08
4.15293e-06
9.58691e-08
1.54028e-07
2.30693e-07
6.38784e-09
6.67007e-07
1.88039e-07
1.30008e-07
2.06439e-07
6.05992e-09
-0.000540903
-0.000570958
0.0160804
5.61448e-08
2.04151e-06
0.00105837
-0.0009994
1.64029e-08
3.11606e-07
-0.00101405
2.43985e-08
2.24984e-07
0.00339827
-0.0033942
3.99979e-07
1.99222e-06
2.11298e-08
-1.76495e-05
-4.16426e-09
6.65737e-08
-0.000400931
1.10419e-07
5.44066e-07
-0.00286854
3.70544e-07
1.50389e-05
-0.0255072
4.26652e-06
6.0951e-08
2.07611e-07
1.55577e-08
-0.00177582
0.00016906
-0.000205816
2.82127e-07
6.22432e-08
0.00180384
4.2272e-08
2.06234e-06
1.91682e-07
-1.80893e-09
1.33356e-06
1.18055e-07
0.0167004
-0.000840232
2.18458e-08
2.20058e-06
2.61385e-06
0.00101165
4.60501e-07
3.18233e-06
1.21401e-05
1.17153e-06
-6.39908e-05
3.20021e-06
1.68912e-08
1.35426e-06
1.75445e-06
-0.0150526
1.38724e-07
2.61297e-05
4.64195e-07
3.33996e-06
8.61254e-09
-0.00386432
2.82342e-07
1.40813e-08
1.99521e-07
1.59445e-07
8.80302e-08
5.83931e-08
1.80901e-07
2.91684e-08
1.98059e-07
-0.000459347
2.56283e-07
2.62463e-09
1.5399e-08
1.34023e-06
1.27611e-05
2.79462e-08
2.66496e-07
0.000460787
3.44297e-08
-0.00620344
2.01882e-06
0.000238274
2.07404e-05
1.6848e-07
0.0108578
6.34998e-08
3.89842e-09
1.01684e-06
9.46306e-07
1.75424e-06
2.47401e-06
5.3825e-08
6.90233e-08
3.83199e-07
-2.77102e-08
2.31142e-07
-1.47127e-06
2.22569e-07
-2.04478e-08
5.31129e-05
3.38173e-08
7.65605e-08
1.86828e-07
-7.05104e-05
2.15886e-07
1.083e-07
1.44578e-07
-2.44146e-08
0.00344422
6.75319e-08
1.0243e-06
-0.00311555
0.000122964
0.000122597
2.70656e-06
3.5545e-07
2.19611e-07
3.37698e-07
5.08134e-07
-7.10042e-08
0.000869055
-0.00352895
2.90613e-05
0.00103766
2.41749e-09
0.00287306
2.12818e-07
4.21594e-06
-2.97019e-08
-0.0119133
0.0154582
-5.58205e-08
2.14785e-07
5.15855e-05
-1.09374e-06
1.50467e-07
-0.00181678
3.41961e-08
1.93479e-08
2.1604e-07
5.15151e-08
2.66582e-07
-5.73161e-09
7.28264e-08
6.79738e-08
1.13458e-05
1.4541e-06
2.50103e-07
1.70032e-07
0.000379292
-0.00402489
2.26844e-07
2.00182e-05
-3.24643e-08
-6.07378e-08
0.000166318
2.02676e-07
4.38878e-08
-1.47375e-08
0.00248226
1.43348e-07
8.25908e-08
6.50279e-07
-0.013097
2.23869e-07
1.5593e-08
-4.00682e-08
-4.03687e-05
4.61562e-07
5.7262e-07
1.84406e-05
2.93358e-08
-6.29461e-07
2.96902e-07
0.00582343
1.8217e-07
7.36192e-08
2.15682e-07
6.03417e-07
1.00179e-07
2.24258e-08
6.03328e-06
-0.00571401
-1.39106e-08
0.00549184
6.1597e-08
2.88831e-07
1.56324e-06
1.47504e-07
3.70704e-08
0.0197825
2.41022e-09
1.21101e-06
6.41355e-06
-0.00258256
-4.6884e-05
1.94932e-08
3.29722e-09
2.17278e-10
1.20036e-07
1.26782e-07
7.74282e-08
-0.00136068
2.72352e-08
-3.5406e-05
6.9826e-06
5.43464e-07
1.16293e-07
3.54881e-07
6.99484e-06
1.62067e-05
-1.29552e-07
3.84828e-07
1.03067e-08
-0.00121561
3.73096e-07
4.788e-07
1.83039e-06
8.5766e-08
1.45038e-06
9.45808e-05
1.88403e-06
-0.0008207
6.5599e-05
-0.000706587
1.54229e-07
1.64943e-07
2.48157e-07
-4.54542e-07
1.0995e-07
-1.39808e-08
-1.13779e-06
4.82019e-08
3.76372e-08
1.28148e-07
2.11292e-07
3.92895e-08
4.07459e-08
-0.00149268
2.31118e-07
0.00644522
1.08194e-07
-6.75646e-07
1.59271e-08
7.27716e-06
-5.02646e-08
1.25175e-07
-0.0118971
-2.75845e-08
2.39345e-08
1.61882e-06
1.70769e-07
-1.31288e-08
6.82247e-08
-0.0044548
-2.01916e-08
8.61163e-07
1.25313e-07
-0.011508
-1.2427e-08
-1.83618e-05
5.45676e-05
9.18764e-08
3.05603e-08
3.09195e-08
-4.45764e-07
1.11336e-06
-0.00102604
2.11891e-07
-0.00145676
1.17938e-07
-2.30165e-06
-0.00481696
9.55365e-08
-0.0136294
8.88076e-09
6.85865e-07
-5.38598e-09
-0.000638004
1.83182e-07
1.36586e-07
6.36793e-08
5.00494e-06
1.4775e-08
1.38117e-07
1.14709e-07
-0.000261339
1.37458e-08
-1.44246e-08
-0.0200229
-3.60404e-08
1.66436e-07
1.54966e-07
2.43741e-09
0.0009154
3.12601e-07
1.40811e-07
2.31541e-07
4.95403e-08
2.50946e-08
3.33709e-08
2.91109e-06
-0.00941682
1.83622e-07
1.10908e-08
-0.000177052
-1.79553e-08
-0.000841675
-9.8672e-08
-0.00414476
1.90465e-07
-1.36304e-08
2.73667e-07
-0.000337755
-0.0237559
2.09701e-08
-5.30224e-07
-5.19632e-07
1.89239e-07
4.8419e-10
-0.00448124
1.39519e-07
4.15854e-06
4.56123e-07
2.33248e-06
5.03018e-09
-1.9092e-05
2.48492e-07
2.27462e-06
5.08529e-07
4.05067e-05
-0.000142167
1.98857e-07
5.65434e-08
0.00728906
3.08147e-06
-0.00152461
-0.00753164
-2.95183e-06
-2.46903e-09
6.98197e-07
2.41263e-06
-5.50073e-05
-1.11778e-08
1.80965e-06
1.62999e-09
1.50926e-07
-0.000545638
-0.00154483
2.69315e-06
7.26323e-06
5.19011e-05
4.25183e-08
-0.00456226
1.04185e-07
1.98196e-07
7.52425e-07
-0.000432489
9.77561e-06
1.69995e-06
5.37054e-05
2.54335e-07
-0.00322159
0.000522233
-0.00461643
7.90613e-08
-0.000767181
-0.00246282
-0.000286361
-0.000287186
0.00267407
4.35071e-06
2.82656e-07
3.7246e-06
-1.442e-07
1.70134e-07
0.00750423
4.01786e-06
2.30185e-07
0.00556099
3.71789e-08
-2.41312e-07
1.50383e-06
-2.54401e-09
0.00512018
1.84742e-08
-0.000456132
2.33404e-06
3.18021e-07
5.52164e-05
0.0126228
6.06904e-06
-1.50217e-09
1.84721e-08
1.50174e-06
-7.6178e-08
2.76524e-07
5.91241e-07
2.91197e-07
1.13339e-06
1.8144e-07
6.80591e-06
-1.73359e-08
5.7398e-08
-0.0160311
-4.81931e-05
-1.03369e-08
7.04532e-07
-0.00180177
1.05666e-07
1.97322e-08
-0.00477069
2.01654e-05
3.78665e-08
1.17131e-07
8.40348e-08
5.06038e-08
1.96449e-07
-0.0020562
1.93048e-06
4.83641e-08
7.08538e-08
3.94521e-07
-7.53562e-09
3.22185e-05
-0.000201283
2.33947e-07
1.39221e-07
6.64717e-08
6.46597e-08
7.77542e-08
1.07717e-08
2.24328e-08
5.69221e-08
1.99997e-07
-1.00313e-08
3.29396e-08
2.4439e-06
-5.09345e-05
4.01726e-08
0.000925973
-0.00136978
3.02179e-07
-7.29355e-07
-4.61054e-06
2.25283e-07
4.89953e-08
4.27395e-06
3.26767e-07
-9.19242e-07
5.51082e-07
1.2336e-08
7.04106e-08
-0.00135363
2.29819e-08
3.25357e-05
4.83317e-08
1.00374e-07
1.52634e-07
-3.57142e-08
1.88402e-07
1.5277e-06
3.04932e-06
0.000137066
2.15515e-07
2.03168e-05
0.00835566
0.00229327
2.49263e-07
1.04798e-06
2.12278e-06
0.00906613
0.0202028
-1.37201e-08
6.24298e-08
3.83483e-06
5.61982e-05
0.000167684
1.32194e-06
1.95086e-05
6.34352e-08
1.25416e-07
3.46136e-08
3.21493e-08
1.15069e-08
6.16935e-07
2.21998e-09
-2.36237e-06
1.93386e-07
0.014546
-0.000486529
0.000276697
-0.0163553
0.00348929
6.17634e-08
2.46972e-08
0.021831
1.87595e-07
1.91195e-07
2.59959e-07
4.84067e-07
-0.0215536
-0.00113823
-6.89527e-09
-9.92066e-09
2.19413e-09
1.89981e-08
0.00201658
1.74671e-07
-0.00726225
0.0166884
3.61706e-08
7.92924e-10
0.000623733
3.88892e-06
-1.43402e-08
1.24143e-07
0.0147053
0.00130507
4.86464e-08
1.41782e-05
1.19713e-09
0.00226003
-0.0047617
-9.21824e-08
-0.000662448
-0.000910984
0.000426465
2.11811e-07
-1.29315e-08
2.34175e-08
1.84002e-08
-0.0185977
2.0112e-07
2.40547e-05
1.52408e-06
-0.00101532
2.47524e-08
3.10877e-07
6.25228e-05
6.6354e-07
0.024241
-0.00213181
3.17146e-07
2.28045e-07
2.38975e-07
4.40948e-06
-0.00738844
1.92727e-07
4.82824e-05
-1.21693e-07
1.91973e-06
4.59386e-08
2.38586e-07
6.64033e-06
2.47774e-07
-0.000629039
3.84647e-08
2.81996e-07
2.11842e-08
7.17947e-06
1.20026e-07
-0.00606749
2.37167e-05
1.35723e-05
4.11192e-06
1.83712e-07
-1.97452e-08
3.77251e-06
-1.82834e-06
-0.00335083
0.0147142
1.12776e-07
-0.0042598
-1.3937e-06
0.00247545
-4.9272e-08
2.76252e-07
4.85371e-07
5.58959e-08
-8.02008e-05
1.0561e-07
7.93178e-07
-0.00109028
0.0118726
0.000764269
-0.0182146
-1.27309e-08
1.47162e-06
1.47376e-07
0.0148157
-2.31943e-08
0.0307135
1.55116e-07
5.16352e-05
1.53889e-07
1.63623e-07
7.24608e-07
-5.06052e-08
1.69389e-08
1.648e-07
0.000486653
2.19829e-06
2.01537e-07
9.16249e-08
-4.66444e-05
0.000247338
1.14235e-07
-0.00251805
-1.83261e-08
1.1814e-06
9.51379e-07
3.36797e-07
4.20652e-07
1.68307e-07
0.00158084
-2.94662e-07
1.73492e-07
1.53139e-07
3.37628e-06
8.11642e-07
1.50492e-07
0.000138856
0.000707116
1.27689e-05
2.64064e-08
-3.38994e-05
1.18781e-08
4.01879e-06
4.31402e-07
-4.51499e-07
0.0216439
0.000606032
-1.46588e-07
-0.0212651
1.18663e-07
2.03455e-07
2.40995e-07
0.000192232
2.60333e-07
1.69648e-06
-1.94102e-06
5.04808e-08
-0.011885
4.23754e-07
3.72037e-05
8.30221e-06
0.0123487
0.000412238
0.0022101
-0.00105165
3.19217e-07
-2.77222e-08
5.99492e-08
5.62795e-08
2.02273e-07
1.2161e-05
-1.29569e-08
1.3216e-07
-0.00201248
1.99301e-07
2.63094e-07
1.99619e-06
4.87462e-06
4.16337e-07
5.00079e-07
0.00827156
6.59861e-08
2.52234e-06
1.02256e-07
-0.00150521
-1.70805e-08
0.0131553
-3.83693e-07
7.44149e-07
1.8126e-07
6.68771e-08
-0.000431512
3.72743e-05
6.01405e-07
1.50793e-07
3.05221e-07
0.000672247
-0.00247668
-0.00194678
1.0244e-07
6.2217e-07
5.64814e-05
4.13375e-08
1.6097e-07
1.00375e-07
-0.0235719
1.668e-07
1.05473e-08
4.95626e-08
2.7493e-07
-0.00643947
2.35264e-07
1.27091e-05
1.38054e-07
7.38179e-07
1.99811e-07
1.24791e-06
2.47181e-07
1.44337e-07
-0.0052902
-0.00211827
-0.00534407
-0.00653267
-0.00229725
-0.00460053
0.0216794
-8.98956e-09
3.48982e-08
0.00990001
0.000930659
0.0297915
1.40364e-07
1.16165e-06
4.81514e-08
1.86545e-07
-0.0130003
0.0144787
2.33786e-06
1.68653e-07
3.9539e-05
3.22681e-06
9.09894e-07
0.00354608
0.0225248
2.43794e-05
2.96497e-07
-0.00625738
-0.000551554
1.38288e-05
9.7794e-07
1.02271e-06
2.79914e-08
2.16582e-07
4.53927e-07
5.56788e-07
-1.75647e-08
1.77666e-06
4.2725e-07
-2.01656e-08
1.06768e-05
0.000719531
-2.39218e-09
1.95443e-06
0.00212338
2.01369e-06
6.76762e-09
2.68851e-06
-1.34656e-05
-0.000227857
3.43237e-07
5.12253e-08
4.84403e-07
7.00895e-08
-3.29127e-08
3.24489e-07
1.51695e-07
8.47637e-07
2.19979e-06
1.59971e-05
5.0141e-08
1.20205e-08
0.000525849
-0.00404064
0.0096046
6.55709e-05
4.85091e-06
1.79643e-07
5.94196e-08
4.48994e-07
1.688e-07
0.00477072
9.56816e-08
1.23537e-08
2.39407e-07
-0.00536833
-0.0121993
5.75406e-08
2.75428e-06
4.7651e-08
6.3689e-08
3.60038e-07
2.21706e-07
1.4112e-06
2.20557e-07
-0.00100903
2.78435e-07
0.00093986
1.56909e-07
0.00691281
2.18208e-07
2.89987e-07
2.48176e-07
3.82191e-06
5.96543e-06
2.84362e-07
-1.10051e-07
2.74001e-07
3.86793e-07
-0.0139646
-0.000596235
0.000863254
9.73291e-09
9.54597e-05
-2.09994e-07
7.25206e-08
1.40997e-07
5.75099e-07
-3.37886e-09
-0.000846957
1.90436e-06
8.02592e-08
7.01947e-08
-0.00415752
1.12125e-07
0.00130041
0.000891522
1.03869e-05
-1.684e-08
3.82862e-06
-0.00135415
-0.00024942
0.00230129
5.52446e-07
1.1596e-07
1.64176e-07
8.14929e-08
-0.00407059
-1.55451e-08
2.69454e-07
3.97243e-05
0.00271858
1.37492e-07
1.87601e-07
-0.00182371
2.9477e-07
-0.00482249
-3.84536e-07
1.12757e-07
4.80838e-07
1.41227e-05
3.72265e-07
-8.04217e-05
6.06306e-08
-6.94599e-05
8.37167e-08
3.87842e-09
1.94875e-07
4.79713e-06
2.65349e-08
-1.02226e-08
6.57034e-08
1.07432e-07
1.25151e-06
2.76112e-07
5.98465e-08
1.34341e-07
8.66569e-08
1.48105e-05
2.04497e-06
5.4113e-07
-2.00227e-08
7.29447e-07
1.5089e-07
7.19231e-06
4.46263e-07
9.74997e-07
2.24087e-06
9.2911e-08
1.40276e-07
-5.74288e-07
8.49173e-08
2.83789e-06
-0.00228848
-0.00143249
3.09654e-08
0.000122509
0.000882891
1.8583e-07
3.89101e-09
1.48787e-06
0.00493575
-9.37723e-09
0.000679727
3.08002e-05
-4.83858e-09
4.32833e-06
2.25222e-07
2.41987e-07
9.18112e-07
0.000527328
-1.58335e-06
-1.33644e-05
2.56581e-05
-0.00647945
-0.00045793
-1.10734e-08
0.00159717
1.08179e-07
-0.00247027
-0.000633825
6.38361e-08
1.71276e-07
-0.0010211
3.77177e-08
6.34665e-08
2.50977e-05
-0.00715411
1.36225e-05
2.71494e-07
0.00195903
1.72832e-07
-0.00558226
0.000916595
7.84883e-08
5.52564e-05
0.00683263
0.00189913
-5.0673e-05
0.000622856
-0.000616607
2.15441e-07
8.38229e-09
1.11061e-06
2.43442e-06
7.19661e-08
6.57016e-06
1.2198e-07
0.000443093
2.68459e-05
-2.76672e-09
2.12023e-05
0.000324559
2.85159e-05
5.93889e-06
-1.28836e-06
-0.00133537
4.40111e-05
1.96061e-07
2.41872e-07
-0.000695282
-1.03825e-09
2.03082e-07
-0.00379926
1.89777e-07
-0.000401301
3.5218e-08
-0.000975011
2.0624e-07
1.75712e-07
-0.0131808
4.49223e-08
-1.97179e-08
-0.000742866
0.0267147
-0.0017416
4.18955e-07
2.50228e-06
1.96733e-08
1.8183e-06
5.55329e-06
1.86825e-06
1.89556e-08
0.000118317
1.61867e-06
4.75857e-10
8.56808e-05
1.03844e-06
3.49829e-08
8.08598e-06
1.52221e-06
2.16239e-06
1.82615e-07
1.88785e-06
2.38017e-07
6.0735e-06
-6.77956e-05
0.00281808
2.34628e-07
3.34506e-07
-0.00128749
3.63928e-08
5.28648e-07
7.93272e-07
4.72632e-07
0.0134463
1.85803e-06
-1.68715e-09
-0.00303176
2.25644e-07
-0.00428808
6.44884e-08
2.80126e-08
6.65353e-06
-0.00230631
3.09752e-08
1.5608e-07
1.54089e-05
8.73216e-07
4.18251e-08
4.83364e-07
4.57142e-07
-0.00123374
-2.2333e-08
-0.00146739
6.2447e-06
8.4714e-07
3.98722e-07
1.69365e-07
1.62646e-07
3.52043e-07
1.95021e-06
3.36709e-08
5.50246e-08
-9.39989e-09
-0.00230519
1.48451e-07
2.5403e-07
3.44444e-07
6.02273e-06
3.32101e-07
2.20138e-06
0.00376461
-1.28734e-09
1.26076e-05
2.78247e-07
5.59775e-08
4.37313e-08
6.21207e-09
2.1521e-07
1.95894e-07
4.3706e-06
0.00147583
2.37541e-06
1.30234e-06
1.58661e-07
9.68624e-08
-5.99644e-05
1.60467e-07
0.000649623
7.51409e-05
-0.00170811
6.84292e-06
7.17584e-08
3.4083e-07
2.61386e-08
-6.84712e-10
-1.95042e-06
2.08288e-07
0.00179287
2.59049e-06
-0.00294448
5.35101e-06
6.87091e-08
2.75053e-07
-0.00128593
1.90351e-07
5.81807e-07
1.20387e-06
4.91587e-05
1.83806e-08
-0.0196337
-1.73512e-09
3.29682e-08
4.12222e-08
5.4254e-08
4.40916e-07
5.24258e-06
5.11851e-08
1.00273e-06
-1.09058e-06
1.60133e-06
2.77787e-06
4.83809e-05
-9.73465e-07
6.83438e-06
4.49743e-06
-8.04891e-08
9.28072e-09
2.87232e-06
-0.0030018
0.025384
-0.00356105
9.04486e-07
0.00342559
4.60545e-06
2.46338e-08
1.67623e-07
3.42345e-06
3.64925e-08
9.41488e-07
-0.00134132
1.88656e-07
1.52146e-07
0.000225544
-0.01389
2.45921e-06
0.00033409
5.52325e-08
0.000709636
1.56581e-07
0.00824071
-5.81106e-07
1.54993e-07
-0.00570383
-1.04236e-06
1.25932e-07
5.78206e-08
6.36506e-09
3.91761e-08
1.9758e-07
1.06568e-06
-0.00204429
6.85345e-08
-2.43562e-05
2.01243e-07
-0.00296929
8.4641e-08
1.56518e-07
2.95581e-08
2.99619e-07
1.03082e-07
2.0849e-08
-0.00368726
0.00163174
9.48394e-07
1.86989e-08
-9.57248e-07
1.5396e-07
5.35115e-07
2.89195e-08
4.88886e-05
2.05807e-07
0.0112656
0.00355816
-7.76958e-07
1.88249e-08
2.22569e-06
-2.66471e-06
5.04752e-06
-5.72958e-08
0.00102867
1.75325e-07
1.91678e-07
1.88424e-07
0.0124188
6.11301e-08
1.49215e-07
-0.00390395