/*--------------------------------*- C++ -*----------------------------------*\
| =========                 |                                                 |
| \\      /  F ield         | OpenFOAM: The Open Source CFD Toolbox           |
|  \\    /   O peration     | Version:  v2012                                 |
|   \\  /    A nd           | Website:  www.openfoam.com                      |
|    \\/     M anipulation  |                                                 |
\*---------------------------------------------------------------------------*/
FoamFile
{
    version     2.0;
    format      ascii;
    class       volScalarField;
    location    "850";
    object      k_0;
}
// * * * * * * * * * * * * * * * * * * * * * * * * * * * * * * * * * * * * * //

dimensions      [0 2 -2 0 0 0 0];


internalField   nonuniform List<scalar> 
13851
(
0.00021614
0.000154833
0.000154638
0.0185224
0.000148447
0.000157684
0.000155065
0.000147628
0.0348687
0.000148471
0.000178894
0.000148552
0.00014892
0.0220511
0.00016941
0.000215272
0.0190911
0.000148404
0.000313008
0.000216244
0.000173757
0.000156326
0.0437446
0.000149734
0.0625808
0.000185913
0.000263295
0.000380139
0.0292719
0.000146602
0.0482416
0.000155033
0.000215
0.0250964
0.000171243
0.028915
0.00014981
0.0728964
0.0931106
0.000148653
0.046768
0.0302194
0.00633146
0.000232042
0.0312411
0.000147583
0.00014547
0.000212499
0.000152648
0.00014889
0.0390718
0.000149195
0.00021522
0.000162299
0.018402
0.000148658
0.000216082
0.051633
0.0002906
0.0330184
0.000148598
0.000254719
0.000148683
0.000152944
0.000183221
0.000184158
0.0274984
0.00016687
0.000148908
0.0274263
0.0472154
0.000179194
0.000148413
0.0287331
0.000164259
0.000152734
0.0258211
0.000145813
0.0473918
0.000147793
0.000148982
0.000357829
0.000170696
0.0243655
0.0326843
0.0484115
0.00015664
0.0129903
0.000148419
0.047374
0.000149307
0.000155184
0.0159852
0.0437929
0.087162
0.000204795
0.000147742
0.000216051
0.0397751
0.000201847
0.000217515
0.000162207
0.000163187
0.000148645
0.000147545
0.000177688
0.000147546
0.0491992
0.000155142
0.00014824
0.00015999
0.000147583
0.000223719
0.000182534
0.000213215
0.000161646
0.000146468
0.000147094
0.0159228
0.0307772
0.000193208
0.000147472
0.000148811
0.0457561
0.000261047
0.000172794
0.000147731
0.000172459
0.0430284
0.000177284
0.000156239
0.000163703
0.049842
0.0284065
0.000179811
0.0864303
0.000166277
0.0476556
0.000160297
0.000176775
0.000309184
0.000150357
0.000148429
0.00017175
0.03961
0.000152207
0.000145745
0.0439091
0.0270372
0.000173135
0.000217178
0.000220465
0.000184104
0.000263483
0.000149461
0.000148647
0.000148667
0.0881884
0.000174345
0.000153878
0.000149583
0.0291024
0.000177347
0.000212547
0.022411
0.0340739
0.0341173
0.045041
0.00015985
0.0243673
0.000148696
0.000146474
0.00018302
0.000148827
0.0914363
0.000276271
0.000221042
0.000146384
0.000164067
0.000219733
0.000258306
0.000231299
0.000159395
0.000176884
0.00860609
0.0272883
0.000215105
0.000157561
0.000149242
0.000147066
0.0226202
0.000174277
0.0174663
0.000157879
0.000151922
0.00021565
0.000213336
0.000149724
0.000149529
0.000167587
0.00031203
0.0834854
0.0565623
0.000169346
0.000316875
0.0802298
0.000152298
0.000175815
0.036035
0.000156691
0.000215173
0.000148755
0.000343828
0.000149536
0.000172084
0.000153969
0.000148804
0.000250987
0.000149718
0.000479196
0.000146356
0.00021631
0.0212298
0.0885428
0.000157155
0.000176015
0.000149741
0.000169995
0.00014816
0.000171703
0.0306005
0.000157089
0.000156656
0.00014877
0.0564449
0.000146578
0.0252179
0.0607393
0.000197161
0.000149645
0.000700402
0.0317866
0.0309765
0.000214807
0.000166258
0.000175497
0.00024085
0.000164171
0.000204038
0.000161498
0.0137493
0.000217379
0.000147279
0.000157766
0.000216657
0.0284851
0.0144768
0.000147022
0.000173157
0.000148385
0.000235467
0.000260773
0.000158284
0.000177752
0.000217767
0.000148136
0.000162753
0.000205852
0.000382858
0.000148631
0.000148796
0.000157224
0.0352264
0.010401
0.000177038
0.000147646
0.000258097
0.000261799
0.000208633
0.000177458
0.0368885
0.036916
0.000158909
0.000166329
0.0680311
0.000147517
0.000148653
0.000210123
0.000174982
0.00014662
0.000149516
0.000148103
0.000147922
0.00016607
0.000148617
0.0355431
0.000175175
0.000148171
0.0282567
0.0435704
0.000149232
0.000216932
0.0392538
0.000150589
0.000149321
0.000176619
0.0245431
0.0853556
0.000186524
0.000148362
0.0193365
0.000148649
0.000188884
0.046325
0.000382587
0.000153593
0.0591043
0.0112116
0.0566302
0.000218686
0.000162886
0.0928875
0.0486021
0.000379737
0.000149785
0.0261432
0.00602331
0.000218313
0.000210017
0.00015232
0.000185687
0.000157892
0.0136124
0.000163567
0.000147058
0.00014485
0.000158717
0.0528398
0.000377748
0.000147447
0.0848991
0.000157935
0.000163954
0.00015408
0.0219358
0.000257889
0.000215899
0.000153534
0.000155897
0.0283711
0.00014926
0.000264986
0.000158768
0.000176539
0.000158552
0.000148398
0.000148143
0.000208985
0.000207083
0.00021774
0.0295556
0.0288051
0.000152349
0.0605059
0.000250345
0.000146533
0.000383264
0.000198985
0.0455186
0.000158133
0.000187652
0.000252715
0.0644619
0.000205401
0.0152037
0.000150961
0.000281881
0.00657037
0.000163385
0.0172365
0.000165987
0.0630717
0.000165943
0.000168828
0.000216346
0.00023163
0.000148653
0.000158233
0.000176158
0.000164448
0.000147723
0.000177295
0.00161741
0.000148391
0.000175985
0.0110725
0.000154354
0.00453823
0.000173165
0.088543
0.000157436
0.000184019
0.000330528
0.000262984
0.000177119
0.0121733
0.0276583
0.000575585
0.000148163
0.000208804
0.000166121
0.000187064
0.000147496
0.00800562
0.00421602
0.0636063
0.000155826
0.00021782
0.00025897
0.0114133
0.000145489
0.0181432
0.000255287
0.0358253
0.000162128
0.00147268
0.000148526
0.000148754
0.0162703
0.000262531
0.000148472
0.000154891
0.000176731
0.000146732
0.00148104
0.00018612
0.000198198
0.000157335
0.000151
0.00014927
0.0542803
0.000148138
0.000149203
0.0102889
0.00106091
0.000155639
0.000247329
0.000148713
0.000148599
0.00015494
0.000217816
0.000172466
0.000147789
0.000151828
0.000192772
0.000153159
0.0835307
0.000148508
0.000159297
0.0313494
0.000160851
0.000145079
0.000148814
0.000157257
0.00015028
0.000523208
0.0186065
0.000166555
0.000600957
0.000155058
0.000148443
0.0424177
0.000253382
0.00016022
0.000148473
0.0476195
0.00015964
0.00181498
0.000148652
0.000164099
0.000207723
0.0001665
0.0481542
0.000260535
0.0581983
0.000152519
0.000221264
0.000148122
0.028538
0.000173259
0.000213285
0.000165908
0.000153171
0.000160896
0.000183516
0.000148516
0.0117747
0.04429
0.0842994
0.00681807
0.0166931
0.0465341
0.000264172
0.000156594
0.000149356
0.00859367
0.000148474
0.000147703
0.00015782
0.0928086
0.000154485
0.000150346
0.000174393
0.000176075
0.000148514
0.0988807
0.000147755
0.0382797
0.000430394
0.000147784
0.00015347
0.000271264
0.000386138
0.000146648
0.087173
0.0294999
0.000146963
0.0734844
0.000301168
0.000216098
0.000152468
0.00829501
0.040175
0.00014719
0.00030375
0.000148847
0.000147763
0.0118797
0.0643132
0.000170987
0.000171739
0.000148486
0.000181014
0.038851
0.0895688
0.000147993
0.0297981
0.000147764
0.000148918
0.000177427
0.000159131
0.000145471
0.000152723
0.076874
0.000226246
0.0721952
0.000153916
0.000148364
0.0340622
0.000149182
0.000210866
0.000159467
0.000164501
0.00016613
0.0285064
0.042565
0.000157671
0.0165072
0.000153134
0.000184951
0.0304938
0.0229977
0.000148776
0.000148155
0.000163539
0.074753
0.000242466
0.000180319
0.0114299
0.000159242
0.000164995
0.0364939
0.102273
0.000184306
0.0409872
0.000230144
0.0294808
0.000150344
0.0002931
0.000326862
0.000148575
0.0165625
0.0922766
0.000159871
0.000176862
0.000148579
0.000509209
0.000176679
0.0566438
0.000148169
0.000149021
0.000155376
0.000175485
0.000148564
0.0893522
0.000148981
0.000228832
0.000152505
0.000188059
0.000148621
0.00014853
0.0001678
0.0298991
0.000176861
0.0837042
0.000164107
0.000146815
0.000147208
0.000183229
0.000151781
0.000197248
0.000155325
0.000159914
0.000290149
0.00014919
0.0117334
0.000149668
0.000198702
0.0188985
0.0325874
0.000156573
0.0541807
0.000173718
0.00021444
0.0923486
0.000148445
0.103366
0.000157996
0.000164407
0.00863249
0.00484647
0.000146675
0.000196077
0.00014962
0.0287538
0.039595
0.000149323
0.000167577
0.00388216
0.000149737
0.00014966
0.000186108
0.0095496
0.00110619
0.000149335
0.000216392
0.000152726
0.00014855
0.000301505
0.000217493
0.000201017
0.000145261
0.000205806
0.000163992
0.000181356
0.000150519
0.000151614
0.000175204
0.000155175
0.000209287
0.000179008
0.000179005
0.000180111
0.000610132
0.000313582
0.00452965
0.0825712
0.000214936
0.0297697
0.000163579
0.0138671
0.000217443
0.000148087
0.000164365
0.000268943
0.000157681
0.000147805
0.000147761
0.000198843
0.0137223
0.000159563
0.0635847
0.00014685
0.00188366
0.000179422
0.0376716
0.000195474
0.00015764
0.000154666
0.0427768
0.000201424
0.000163217
0.000262931
0.000150621
0.00940472
0.000199135
0.000229753
0.00016523
0.000519978
0.000148509
0.000149609
0.000151859
0.000148561
0.0307355
0.000147911
0.000283275
0.0357609
0.000196015
0.0919923
0.0429915
0.00023247
0.000224241
0.000156713
0.00014915
0.000148719
0.000145844
0.000147178
0.000148845
0.000185648
0.00022231
0.000164739
0.000375364
0.000151589
0.0353485
0.000149953
0.021779
0.000169129
0.000149879
0.000148865
0.0329891
0.000157939
7.63944e-05
0.0880054
0.000175501
0.000188314
0.000146846
0.0297145
0.000153399
0.000154597
0.000293589
0.000149178
0.000150325
0.000148094
0.000173605
0.0147719
0.000161556
0.000165665
0.000270374
0.084546
0.000157075
0.000156291
0.0300249
0.000145802
0.0297544
0.000149289
0.000153231
0.0401151
0.000193393
0.000212852
0.000188075
0.000177135
0.000149479
0.000149953
0.000186777
0.000150521
0.00014953
0.000159979
0.000246917
0.000147819
0.000208123
0.00250655
0.000142731
0.000187736
0.0442536
0.000160419
0.000149123
0.000203126
0.000146957
0.000158333
0.00263496
0.0288073
0.103325
0.030061
0.000149521
0.000149185
0.000169492
0.000151279
0.000147353
0.0387374
0.000236216
0.0190399
0.000199248
0.000194401
0.000148591
0.000146651
0.0190399
0.000198333
0.000153822
0.000149658
0.000212407
0.000228699
0.0643817
0.000149424
0.000148948
0.0124754
0.000150465
0.000166088
0.000146753
0.0932999
0.000148396
0.0221793
0.000148587
0.000193182
0.00017154
0.000169023
0.000165547
0.00014841
0.000154878
0.000148058
0.000282021
0.000150414
0.0175605
0.000150882
0.000422726
0.0400629
0.000163695
0.00014792
0.0126902
0.0169577
0.000158317
0.000193253
0.00014872
0.0119443
0.000148214
0.000272238
0.000148507
0.000148037
0.000160492
0.000166367
0.000148755
0.000162807
0.0489802
0.000435749
0.0058048
0.000147014
0.0313871
0.000148592
0.000147861
0.00014945
0.000144529
0.000149531
0.0219252
0.00165059
0.000149776
0.000148954
0.000171484
0.00014759
0.0163138
0.000205264
0.0263769
0.0946038
0.000154811
0.000208981
0.000148532
0.000173695
0.000176082
0.000148326
0.00014935
0.00187904
0.0417694
0.000187467
0.00968554
0.000184922
0.00014871
0.000172216
0.00019366
0.0271199
0.000164907
0.000343672
0.000199206
0.000149458
0.0542184
0.0494525
0.0183135
0.0188347
0.0123069
0.000152451
0.000175172
0.000149226
0.000332716
0.000157114
0.000147081
0.0123117
0.000151332
0.000147921
0.000148778
0.000151
0.0903528
0.000265347
0.000147211
0.000172776
0.023952
0.000151889
0.00862813
0.000151509
0.000192404
0.0724993
0.000148646
0.000246305
0.000160299
0.000164954
0.000491703
0.000151326
0.000345727
0.000183192
0.0438172
0.000150115
0.0163176
0.000162968
0.0386809
0.0315975
0.012973
0.00017535
0.000148506
0.000149587
0.000149736
0.000167519
0.000148836
0.0475648
0.000158707
0.000156545
0.000156916
0.000152345
0.000146968
0.000158066
0.000158416
0.000153451
0.000157431
0.087584
0.00028412
0.000162252
0.000169841
0.0122426
0.00015043
0.0569448
0.000145845
0.000161168
0.000150459
0.000148044
0.000166881
0.000148413
0.000147166
0.000163023
0.00014869
0.000236237
0.000151352
0.0148144
0.000356966
0.000244031
0.000273787
0.000149167
0.0873777
0.000223723
0.000149476
0.000158179
0.000150137
0.0608435
0.000151489
0.000162738
0.000389455
0.0088394
0.000179006
0.000149199
0.0296855
0.000371781
0.0143241
0.000160205
0.000146746
0.00014793
0.000186628
0.000148509
0.0352026
0.000210844
0.000149297
0.000250353
0.000247354
0.000147984
0.0833377
0.0201969
0.000234566
0.000151141
0.0293906
0.000185483
0.000148126
0.0151733
0.000156134
0.00014772
0.000147812
0.000163294
0.000168155
0.0364886
0.049778
0.000170766
0.0347664
0.000165306
0.000148383
0.000168715
0.000147795
0.0128719
0.000148176
0.000148217
0.000153016
0.000150423
0.0379546
0.0128589
0.000243118
0.0421582
0.103934
0.000157129
0.000148422
0.000151353
0.000351448
0.000148102
0.000148067
0.00016985
0.0542957
0.000284243
0.00014567
0.000165682
0.000165829
0.000216534
0.00716493
0.000146997
0.000145381
0.000153433
0.0554805
0.000159841
0.0399823
0.000151562
0.000149025
0.000147797
0.000147784
0.000153954
0.000232867
0.0295563
0.0334507
0.000156898
0.000148451
0.00554578
0.000150316
0.00247607
0.0469516
0.000158275
0.0347028
0.0303884
0.0405405
0.000178503
0.000164585
0.0348176
0.000163252
0.00016035
0.000169865
0.000218196
0.000150332
0.000502381
0.000148405
0.00226234
0.0631149
0.000145875
0.000152648
0.000167193
0.000319086
0.000166192
0.000148875
0.000159774
0.000151524
0.000156952
0.000245251
0.000149073
0.0194234
0.0146421
0.000148427
0.000163574
0.000167941
0.000148608
0.0283198
0.00678854
0.0901209
0.0210223
0.000148324
0.000154319
0.00015744
0.000149454
0.000243512
0.000166472
0.000149686
0.000183764
0.000154861
0.000380529
0.000171722
0.0201206
0.000151387
0.000151876
0.000163512
0.000198227
0.000188895
0.000148149
0.00587854
0.0459206
0.0340227
0.0522194
0.00385224
0.0346772
0.0363994
0.000148164
0.000148358
0.000148859
0.000242442
0.000172233
0.000188442
0.0123196
0.000149891
0.000145528
0.000148485
0.000236884
0.00014569
0.000158271
0.00015252
0.0027626
0.000150976
0.000147001
0.000148658
0.000148119
0.000149004
0.000160017
0.000241727
0.000160438
0.000584869
0.000148369
0.000147794
0.0420786
0.0357165
0.0128587
0.000162908
0.00016385
0.00215864
0.000146703
0.00016961
0.000151869
0.000148615
0.000154668
0.0281651
0.000152189
0.000198905
0.0310975
0.000149948
0.000147978
0.000155144
0.000233716
0.000149797
0.00211201
0.000148775
0.000239808
0.000148831
0.000149718
0.000158481
0.000171659
0.000148944
0.000267142
0.0473238
0.000235171
0.0261638
0.000148529
0.0323554
0.00030145
0.000148447
0.0645553
0.000149431
0.000161779
0.000149259
0.000149841
0.000147695
0.000148537
0.000149942
0.000155813
0.000187011
0.000149418
0.000148669
0.000165821
0.000146579
0.099898
0.000148819
0.000164645
0.000164726
0.0389218
0.000363822
0.00014899
0.000234777
0.000146703
0.000161263
0.000173639
0.000202165
0.000176678
0.0001498
0.000204145
0.000167841
0.000194418
0.000357637
0.00016099
0.000214338
0.000180575
0.000187286
0.000150879
0.00014753
0.000157118
0.0105033
0.000154616
0.000148102
0.00836407
0.000146894
0.000173406
0.000147807
0.000178142
0.0645036
0.000145107
0.0138971
0.00015751
0.000149076
0.000219865
0.000147067
0.000161252
0.0221607
0.000171633
0.000151605
0.000147666
0.000149746
0.00016229
0.000149479
0.000149608
0.000159532
0.000162037
0.000187295
0.000179833
0.000148739
0.000165679
0.000147387
0.000148488
0.000149408
0.00014846
0.00306448
0.0001482
0.000151616
0.000247506
0.000146848
0.00014802
0.0346996
0.000149632
0.0181089
0.000152542
0.0293908
0.000254836
0.000164353
0.0130954
0.000180076
0.000301205
0.000150194
0.000230578
0.000157983
0.000147431
0.0001476
0.00015156
0.0001636
0.000148064
0.000171637
0.00014736
0.000151879
0.00708014
0.038787
0.00135041
0.000154549
0.000163234
0.050084
0.0277117
0.000149145
0.000157924
0.000297634
0.000149488
0.000169442
0.0242119
0.0329631
0.000158707
0.000172877
0.000150729
0.000255867
0.000149891
0.000161248
0.000540813
0.000149015
0.000147761
0.0991288
0.000172187
0.000246859
0.0227166
0.00019915
0.000149811
0.000147382
0.000149857
0.0410058
0.000323223
0.000399775
0.000175997
0.000148572
0.0601323
0.000148755
0.000218218
0.00015538
0.000152946
0.000173924
0.000148478
0.0883992
0.105155
0.000146963
0.000187356
0.000173187
0.0231199
0.000173409
0.000179801
0.000245288
0.000164949
0.000286581
0.00018186
0.000148772
0.000166367
0.000168549
0.0100749
0.000148302
0.000341988
0.000174426
0.000181147
0.000149803
0.0995956
0.000157523
0.000152179
0.0001474
0.000166882
0.000166508
0.00016653
0.000148804
0.000150469
0.000172664
0.0143685
0.000177251
0.000149041
0.000150419
0.000166068
0.000250683
0.000149139
0.000182305
0.0587708
0.000167893
0.0309073
0.000167381
0.0391381
0.000339373
0.000148172
0.0249173
0.000149551
0.000154737
0.00016427
0.000166684
0.000198292
0.000174034
0.000165934
0.000167447
0.00016321
0.000153207
0.000145623
0.00016987
0.000156573
0.000157353
0.000363829
0.000156544
0.000159263
0.000147749
0.0160287
0.000180792
0.000148739
0.000155305
0.000151671
0.0254201
0.000212322
0.000164259
0.0309201
0.000338611
0.00106121
0.000197684
0.000247842
0.000147351
0.000185521
0.000147965
0.000155541
0.0688001
0.0282276
0.000344069
0.00312663
0.000148818
0.0217929
0.00014733
0.000192617
0.000154556
0.00328628
0.0225217
0.000156951
0.000148043
0.000314486
0.000162152
0.000148244
0.0484507
0.000148534
0.000152314
0.000156611
0.000149255
0.000162612
0.000151797
0.000148572
0.000163365
0.000415197
0.000171567
0.000177397
0.000148221
0.0445614
0.0287783
0.00014794
0.000252417
0.00015447
0.000157239
0.000401035
0.000147921
0.000150441
0.000156676
0.0646147
0.0001483
0.00014916
0.000171285
0.0148608
0.00014782
0.000159698
0.000161782
0.00036533
0.000173179
0.000170828
0.00024802
0.000148553
0.000173004
0.000145935
0.0325588
0.000161626
0.000148485
0.000158208
0.000192621
0.000148936
0.000149384
0.000217926
0.0284861
0.000150275
0.0295669
0.000149214
0.000145879
0.000185452
0.00014829
0.000148212
0.0819231
0.000149811
0.000171935
0.000218779
0.0645178
0.000355683
0.000148021
0.000152754
0.000156512
0.000148472
0.000148509
0.00014871
0.000262297
0.000149281
0.000292942
0.00020741
0.000147685
0.000146695
0.000162233
0.000207426
0.000250568
0.000166738
0.000178805
0.000152779
0.0349987
0.000176943
0.000161019
0.000171066
0.000172285
0.000194975
0.0236769
0.000166817
0.0185482
0.000421198
0.0220011
0.000155208
0.00014808
0.000168405
0.000159417
0.000147505
0.000150331
0.000179304
0.000149595
0.000149547
0.000148422
0.000145306
0.000153244
0.000148832
0.0239753
0.000148026
0.0802692
0.000148525
0.000174208
0.000150467
0.000208875
0.000174072
0.000148528
0.00295932
0.00015266
0.000149479
0.000170709
0.00014728
0.000158881
0.000148421
0.0295763
0.000153531
0.000172874
0.000170616
0.00212427
0.000158024
0.000298888
0.000360986
0.000169831
0.000149094
0.000151759
0.000176386
0.000184437
0.0360347
0.000146694
0.0310361
0.000148667
0.000169421
0.0875623
0.000165731
0.00521074
0.000155148
0.000164815
0.000154105
0.105609
0.000162545
0.000148857
0.000168877
0.00021575
0.000152305
0.000148403
0.000148884
0.0921954
0.000149661
0.000157326
0.0339578
0.00015545
0.000148158
0.000171913
0.000154722
0.000229194
0.000145533
0.000148363
0.000147093
0.000154904
0.000150069
0.000149124
0.000184919
0.0411281
0.00014804
0.000148699
0.000409691
0.000150056
0.0141469
0.000153787
0.0968166
0.000147471
0.000153319
0.000146697
0.0195437
0.0253652
0.000159235
0.000169338
0.000155632
0.00014797
0.000148784
0.0295059
0.00014882
0.000192229
0.000146988
0.000169408
0.000149246
0.000649431
0.000146918
0.000173436
0.000147822
0.000231229
0.000517634
0.000147074
0.000166345
0.104259
0.000186889
0.000379782
0.00241797
0.000213755
0.000151845
0.000166267
0.000197996
0.000385942
0.000149971
0.000166747
0.000156633
0.000148161
0.0172553
0.0353354
0.000187744
0.000223192
0.000322707
0.000162846
0.032867
0.000147419
0.000146988
0.000193985
0.104005
0.000249141
0.000215527
0.000361154
0.000146724
0.102129
0.0237568
0.0852399
0.000149299
0.0449805
0.0456329
0.000550705
0.000411289
0.0365297
0.000193826
0.000162257
0.000223711
0.000154489
0.000148129
0.0140228
0.000198189
0.000145509
0.0389635
0.000149237
0.000158456
0.00017313
0.000155584
0.000949366
0.000160343
0.0109325
0.000172376
0.000155009
0.000425482
0.0831322
0.000216954
0.00014984
0.000154586
0.000187748
0.00016877
0.000146825
0.000175038
0.000167525
0.000210679
0.000148111
0.000235347
0.000153518
0.000168889
0.00969974
0.000294692
0.000151344
0.000188015
0.0426361
0.000149017
0.000150741
0.0807023
0.000283409
0.0001542
0.000155099
0.00014866
0.000175206
0.000156415
0.0300006
0.000197524
0.000150052
0.000149442
0.000166614
0.000159395
0.000311639
0.044315
0.000147469
0.000148316
0.000158613
0.000149259
0.000154212
0.000151025
0.000151114
0.0001547
0.000147818
0.000154108
0.000149211
0.000174598
0.000379442
0.000149741
0.00160329
0.0197116
0.000145939
0.000184188
0.000190564
0.000180644
0.000150521
0.000197973
0.00015877
0.000168606
0.000161964
0.00015204
0.000149343
0.0343077
0.000158925
0.000134651
0.000150491
0.000148478
0.00014822
0.000173711
0.000147988
0.000177917
0.000182611
0.000296488
0.000147533
0.000289595
0.0541983
0.0479092
0.000146659
0.0002042
0.000224903
0.0564798
0.0154549
0.000150285
0.000149372
0.000200371
0.000350335
0.000260814
0.000171895
0.000252195
0.000149499
0.00014766
0.000164742
0.000149282
0.000149072
0.000212599
0.000149751
0.00016951
0.000147421
0.0663769
0.0015402
0.000389574
0.00759966
0.0462616
0.000148976
0.000148985
0.0745237
0.000146873
0.000147188
0.000145902
0.000185888
0.0246655
0.0376142
0.000156264
0.000149548
0.000151717
0.000163129
0.0237523
0.000148159
0.0018554
0.0666328
0.000149243
0.000149147
0.024693
0.000190605
0.000152847
0.000148406
0.00662057
0.0585087
0.000148624
0.000237288
0.000149668
0.0466998
0.000576496
0.000153466
0.0246606
0.0146404
0.000412578
0.000147273
0.000149905
0.000149609
0.000149897
0.0329503
0.000147707
0.000203663
0.00024898
0.0342134
0.000150923
0.000174907
0.000321372
0.000175655
0.066112
0.0664912
0.000145322
0.000156817
0.00015702
0.00021356
0.0294005
0.00014517
0.0151286
0.000160696
0.000172446
0.000150547
0.000147569
0.000264414
0.000169382
0.0179379
0.000149279
0.000175073
0.00015063
0.000209818
0.000154488
0.0417901
0.000413607
0.000210532
0.000196814
0.000148063
0.000152852
0.000195541
0.000183509
0.0347303
0.0936784
0.000148925
0.00134405
0.000170678
0.101259
0.000157722
0.000171537
0.00017042
0.000148942
0.000934515
0.00014854
0.00016503
0.0194453
0.0579287
0.0047586
0.0319035
0.000158019
0.000177407
0.000146731
0.0704997
0.000157109
0.0348936
0.000146673
0.000240674
0.000145145
0.000148089
0.000164516
0.000158583
0.000159921
0.000148153
0.0252155
0.000171959
0.000147728
0.00016648
0.0201303
0.000243954
0.000148502
0.0711325
0.000153915
0.00016529
0.000163147
0.000145737
0.000180721
0.000148049
0.0690388
0.000173648
0.000157883
0.000148361
0.000297843
0.000171026
0.000146671
0.00040775
0.000437669
0.000256161
0.000146807
0.000365867
0.000148954
0.000196986
0.000159092
0.000183144
0.00997642
0.0253717
0.000159688
0.0303981
0.000170176
0.000157765
0.00014696
0.000470349
0.000180965
0.000197947
0.000165553
0.000149589
0.0102013
0.000187146
0.000337537
0.00024599
0.097482
0.0250086
0.0416383
0.0464553
0.000158032
0.000158742
0.000148707
0.000148871
0.000145287
0.00022841
0.000158718
0.000159935
0.0854236
0.000147782
0.000147006
0.00017001
0.000216171
0.000159781
0.000147173
0.0856217
0.000154221
0.000173778
0.000149127
0.0245119
0.000157189
0.0168205
0.000166831
0.000166316
0.000172061
0.000148669
0.00931073
0.000310436
0.000183323
0.000148472
0.000147298
0.0159658
0.0503202
0.0282677
0.000147834
0.000183607
0.00032956
0.000148922
0.000148037
0.000148718
0.0295377
0.000171981
0.000163388
0.000158263
0.000157287
0.0024266
0.000181155
0.000257987
0.000157389
0.000164951
0.000145301
0.000185517
0.000174081
0.000148338
0.0293598
0.0699774
0.0526791
0.0276701
0.0422211
0.0946303
0.0746955
0.000151406
0.00014805
0.00740539
0.0561944
0.0331036
0.000148595
0.000171495
0.000148581
0.000148014
0.00367474
0.0581593
0.000185208
0.000148098
0.000270798
0.000198431
0.000176533
0.0318485
0.0273923
0.00025517
0.000147333
0.0430169
0.000246398
0.000279866
0.000163336
0.000173203
0.000149217
0.000147247
0.00016965
0.000173985
0.000153915
0.000170431
0.000159728
0.000154395
0.000240095
0.0249884
0.000159282
0.000171548
0.0486104
0.000237161
0.000148743
0.000193364
0.000243549
0.0168651
0.000170564
0.000149127
0.000161744
0.000157621
0.000158574
0.000145734
0.000159052
0.000163104
0.000174536
0.000211091
0.000149496
0.000151563
0.0253988
0.0300401
0.0885899
0.000321837
0.000203438
0.000144958
0.000148525
0.000162571
0.000146598
0.106296
0.000148483
0.000149809
0.000146177
0.0295074
0.0315909
0.000149815
0.00018451
0.000158914
0.000161717
0.000162053
0.000159797
0.000171342
0.000167537
0.0196113
0.000157569
0.0556125
0.00016798
0.093296
0.000161003
0.000147464
0.000146892
0.000199089
0.000218003
0.00014677
0.000163133
0.000161365
0.000177683
0.00740689
0.022631
0.000196905
0.000149808
0.000101398
0.000158776
0.000164849
0.000148357
0.000182456
0.000152545
0.0180792
0.000338222
0.000166335
0.000148614
0.0298325
0.00015582
0.0261434
0.0533112
0.000240024
0.000153537
0.00021017
0.000204052
0.000273659
0.0389522
0.000179434
0.000148151
0.000167999
0.000147907
0.0938427
0.000153925
0.000163266
0.000270228
0.0950737
0.000147941
0.000148034
0.0530528
0.000170758
0.086353
0.00015883
0.000148409
0.000172341
0.000244949
0.000162602
0.000113363
0.000164755
0.0003381
0.000155592
0.000149609
0.000147942
0.000243499
0.000150474
0.000184264
0.000148612
0.000148405
0.000228233
0.000157379
0.00014893
0.000148307
0.000164973
0.00036224
0.000171808
0.000170054
0.000155234
0.000180795
0.000148473
0.000195986
0.000162791
0.000173659
0.000167009
0.000158777
0.000175333
0.000163207
0.000147771
0.000186862
0.0453682
0.0215768
0.000149202
0.00278182
0.0248408
0.000148043
0.000150537
0.000238784
0.036589
0.000156282
0.0236027
0.000345499
0.000149275
0.000194226
0.000145237
0.000157347
0.000181871
0.0750716
0.00020866
0.000245719
0.000301275
0.0283792
0.0488202
0.000153039
0.0337776
0.000148443
0.000441062
0.0522388
0.000148732
0.000148449
0.0208694
0.000148982
0.00014865
0.000276722
0.027468
0.000247679
0.000157339
0.0492931
0.000148596
0.0288782
0.0283494
0.000149211
0.000286713
0.0528121
0.0635126
0.0227782
0.0282062
0.0202338
0.000147285
0.000151514
0.00018279
0.000185718
0.000148621
0.000238009
0.000148422
0.0280709
0.000266551
0.000164345
0.000251494
0.0279559
0.000262936
0.000242187
0.000165765
0.0208282
0.000383067
0.000156198
0.000145465
0.000192479
0.000161554
0.000146789
0.0998386
0.000148102
0.000131495
0.000149095
0.0378236
0.000156405
0.000148091
0.011191
0.000156009
0.000160591
0.0186938
0.0578134
0.0015395
0.000159027
0.00017123
0.000151659
0.000168789
0.000211652
0.000170158
0.000149354
0.000277964
0.000183816
0.000161906
0.0199208
0.000171889
0.000162418
0.000206233
0.000188132
0.000173151
0.000148061
0.000226868
0.000146905
0.000211191
0.000297243
0.0477826
0.000147146
0.000169481
0.0240699
0.000152644
0.000180978
0.000162094
0.000171679
0.0150225
0.000183813
0.000151898
0.0428239
0.000147201
0.0296417
0.000148841
0.000151869
0.000210341
0.02879
0.000162098
0.000190009
0.000234788
0.000162887
0.000149421
0.000177742
0.000173406
0.0877036
0.00015528
0.00827381
0.000217693
0.0001625
0.000161666
0.000179411
0.000167138
0.000167613
0.000183751
0.000162729
0.000154283
0.000149492
0.0050464
0.000148347
0.000160566
0.000145248
0.000203721
0.000161168
0.000183539
0.035992
0.000151248
0.000250113
0.000144614
0.000149094
0.000149235
0.000149337
0.000157586
0.000147687
0.000194506
0.0371464
0.000183097
0.000175291
0.00015581
0.00014854
0.000291011
0.000148406
0.000123574
0.000426701
0.0297218
0.000214984
0.000164268
0.000158512
0.000149176
0.000158092
0.000170687
0.000169939
0.0613254
0.000182549
0.0683909
0.000215732
0.000149353
0.000146892
0.0212573
0.000147987
0.000162016
0.000166553
0.000322773
0.000152856
0.0386293
0.000149118
0.000156085
0.00014859
0.000150302
0.000177588
0.000202077
0.000149313
0.000163552
0.00015992
0.000175751
0.000181363
0.000228827
0.000203919
0.000234061
0.000211296
0.00015703
0.000151433
0.000180528
0.0286706
0.0576344
0.0306302
0.000163644
0.000838177
0.000200938
0.000151361
0.000148041
0.000181905
0.000148974
0.000163033
0.0220325
0.000147986
0.000147376
0.000598247
0.00743458
0.000174243
0.00281257
0.000148955
0.0189219
0.000169872
0.0923383
0.000157292
0.000148442
0.0290563
0.000165093
0.000148471
0.000172461
0.000149664
0.000194338
0.000160547
0.000164262
0.104235
0.000159732
0.00045339
0.000147676
0.057247
0.000148949
0.000157274
0.000150045
0.000172518
0.000148892
0.000166356
0.0298609
0.000286369
0.000176924
0.000161428
0.00016838
0.000147847
0.000149371
0.000152078
0.000350868
0.000156341
0.0468775
0.0298313
0.000192959
0.000149413
0.000198227
0.00021816
0.000217509
0.000156781
0.0528406
0.000148118
0.000144913
0.00014801
0.0535554
0.000148852
0.000148371
0.0302988
0.000148037
0.0002173
0.000172234
0.000147783
0.0364922
0.000159044
0.0423396
0.000148054
0.00036324
0.00015109
0.000167226
0.026412
0.000186048
0.000147845
0.00015842
0.000179303
0.000162949
0.000200556
0.000163527
0.000157016
0.000190405
0.000158381
0.000150084
0.00893663
0.000161137
0.000159294
0.000215368
0.000148068
0.000147397
0.000149199
0.000161379
0.000148931
0.000155281
0.000469611
0.0159695
0.000171696
0.0081791
0.000181625
0.000163612
0.0969884
0.0570534
0.000149915
0.0184641
0.087069
0.023826
0.0193355
0.000162976
0.00024333
0.0308247
0.0449935
0.0228109
0.0483056
0.000163061
0.000169816
0.000157844
0.000157071
0.000150008
0.000428617
0.000149892
0.0175097
0.000174831
0.000203486
0.000145073
0.000189943
0.000163838
0.000152138
0.000149951
0.000148683
0.000174244
0.000153424
0.000150034
0.000168914
0.0781279
0.000154546
0.000197525
0.000146818
0.000174125
0.000169497
0.000149049
0.00015645
0.000147698
0.0340011
0.0312725
0.000224633
0.0306227
0.000161433
0.000195585
0.00014888
0.000170454
0.000149006
0.000149627
0.000149529
0.00384507
0.000146708
0.000171963
0.000269905
0.000157757
0.000163274
0.000148157
0.0926411
0.000227035
0.035839