/*--------------------------------*- C++ -*----------------------------------*\
| =========                 |                                                 |
| \\      /  F ield         | OpenFOAM: The Open Source CFD Toolbox           |
|  \\    /   O peration     | Version:  v2012                                 |
|   \\  /    A nd           | Website:  www.openfoam.com                      |
|    \\/     M anipulation  |                                                 |
\*---------------------------------------------------------------------------*/
FoamFile
{
    version     2.0;
    format      ascii;
    class       volVectorField;
    location    "850";
    object      U;
}
// * * * * * * * * * * * * * * * * * * * * * * * * * * * * * * * * * * * * * //

dimensions      [0 1 -1 0 0 0 0];


internalField   nonuniform List<vector> 
13851
(
(1.04888 0.0936249 2.29462e-20)
(1.07237 -0.0142869 1.45606e-20)
(1.07059 -0.0136892 0)
(-0.202046 0.00476617 -1.75817e-19)
(1.00211 -0.000498177 2.78031e-21)
(1.08621 -0.0251023 0)
(1.05583 0.00978827 -6.16168e-21)
(1.01424 -0.000740797 0)
(0.546442 0.0458565 0)
(0.991762 -0.0129063 2.65788e-21)
(1.20418 -0.0832439 3.18511e-20)
(1.00171 -0.0100569 0)
(0.982429 -0.0258198 1.19358e-20)
(0.346863 0.034616 0)
(1.08211 0.0238078 3.82386e-22)
(1.03268 0.000879068 0)
(-0.470702 0.00755777 0)
(1.03713 -0.0161246 -8.51976e-21)
(1.18546 0.213229 0)
(1.05314 0.094841 -2.34172e-20)
(1.09519 0.0289884 1.6319e-20)
(1.05035 -0.090892 0)
(0.368146 -0.184439 0)
(1.00006 -0.000189507 -9.13352e-23)
(1.0858 0.0492148 0)
(1.05306 0.0139761 -1.1427e-20)
(0.998801 0.0313863 1.79989e-21)
(1.04426 0.250138 -1.88876e-21)
(0.593549 0.0301002 0)
(1.02215 -0.0109606 -1.58828e-21)
(-0.135793 -0.023505 1.65828e-19)
(1.05592 0.00942746 0)
(1.04173 0.0796053 0)
(0.738194 0.11625 4.74277e-21)
(1.15712 -0.0666104 -2.23928e-20)
(0.604417 0.0281279 3.30313e-21)
(1.00004 -0.000168982 3.66137e-22)
(0.922176 -0.128791 1.26545e-19)
(-0.148633 0.0140421 8.6868e-20)
(1.01065 -0.0406588 0)
(0.438866 0.205267 -1.77807e-22)
(0.624908 0.0287857 0)
(-0.268219 0.0168987 0)
(1.09963 -0.511015 -6.87347e-20)
(0.659866 0.0304207 1.76608e-21)
(1.01738 -0.0233557 8.06577e-22)
(1.01916 0.000139823 -2.26781e-21)
(1.02806 0.0174135 -2.15064e-21)
(1.05331 -0.052711 0)
(0.982001 -0.024915 -1.37406e-20)
(-0.555123 0.0365284 0)
(0.974534 -0.0196511 0)
(1.03267 0.00258263 0)
(1.0643 0.0148354 -7.65246e-21)
(0.39532 0.0301387 0)
(1.00959 -0.0410799 0)
(1.04068 0.0833117 -6.16005e-22)
(0.366542 0.194412 0)
(1.00626 0.00951968 0)
(0.139048 0.0554469 0)
(1.00155 -0.0094381 3.91455e-21)
(0.999834 0.0329899 -1.93161e-21)
(0.995639 -0.00601268 -5.0453e-22)
(1.05413 -0.054969 0)
(0.874403 -0.468479 0)
(0.854283 -0.488278 0)
(0.110094 0.0452226 1.11116e-20)
(0.693405 -0.134776 -4.38361e-20)
(1.025 -0.0392834 2.28391e-22)
(-0.178655 -0.000290134 0)
(-0.233356 -0.01687 1.95947e-19)
(1.10042 0.040844 2.3029e-20)
(0.996369 -0.0313054 -2.18686e-21)
(0.144824 0.048368 0)
(1.06689 0.0165055 8.80624e-21)
(1.02895 -0.0746833 -5.22282e-22)
(-0.437426 -0.00196287 1.03405e-19)
(1.02211 -0.00497387 -3.11188e-21)
(1.18193 0.06073 0)
(1.00687 -0.020765 0)
(1.02631 -0.0396836 0)
(1.38346 -0.0769892 1.26815e-19)
(1.15298 -0.0695117 3.5771e-20)
(0.334308 0.0373907 3.28921e-20)
(0.170432 0.0554688 -1.04815e-21)
(-0.167224 -0.0214981 -8.26354e-20)
(1.05409 -0.0918195 0)
(0.443524 0.0249049 -1.00838e-20)
(0.992834 -0.0171255 -4.02622e-22)
(-0.130435 -0.0206369 -1.95148e-19)
(0.973207 -0.0189023 -4.22943e-21)
(1.05676 0.00932378 3.51743e-21)
(-0.470835 0.0177737 0)
(-0.200975 -0.0169238 9.28863e-20)
(-0.231539 0.0659103 3.85671e-20)
(1.08844 -0.469925 3.80307e-20)
(1.01255 -0.0261335 0)
(1.02863 0.00928345 0)
(-0.344836 0.053761 4.87532e-20)
(1.27016 -0.219937 -5.19553e-21)
(1.02648 0.0105968 0)
(0.811959 -0.127993 -4.90516e-22)
(0.812639 -0.16158 -6.93626e-20)
(0.992374 -0.0334282 2.55159e-21)
(1.02092 -0.0221743 0)
(1.12015 0.0312604 -1.42239e-20)
(1.02016 -0.0220933 -1.58511e-22)
(-0.20763 -0.0210043 -2.07725e-19)
(1.05679 0.0088964 0)
(1.03614 -0.0157195 0)
(1.04024 -0.13482 -9.52165e-21)
(1.01819 -0.0235836 5.93235e-23)
(1.2752 0.0808586 0)
(1.18895 -0.000390372 0)
(1.03057 0.057493 7.10757e-21)
(1.06425 0.0144727 6.36566e-21)
(1.01579 -0.00785882 0)
(1.01485 -0.000845146 -8.45289e-22)
(-0.217074 0.00741185 1.43447e-19)
(-0.143211 -0.00466512 0)
(1.12627 -0.394169 -1.55109e-20)
(1.03027 -0.0135592 -4.56055e-22)
(1.0201 -0.0408739 -2.84009e-23)
(0.31946 0.0881347 -8.39635e-21)
(1.10628 0.185037 -4.97855e-20)
(0.613479 -0.216099 1.35624e-20)
(1.01303 -0.0257327 -3.00543e-21)
(1.16348 -0.153612 0)
(0.522351 0.1399 -9.18466e-21)
(1.08427 0.0365834 0)
(1.04692 -0.0934351 -8.25451e-22)
(1.11264 -0.0505025 4.14085e-21)
(1.09247 -0.15949 0)
(0.716001 0.109469 0)
(1.21017 -0.0786058 -3.68517e-20)
(-0.254469 0.0485121 0)
(0.706483 -0.12702 0)
(-0.186472 -0.0199951 0)
(0.85006 -0.0987151 -6.99927e-20)
(1.07906 0.0337445 -1.53443e-20)
(1.37346 -0.0823534 -1.57936e-19)
(0.97851 -0.0500841 2.10523e-20)
(0.992166 -0.0173558 0)
(0.742697 -0.32433 3.95219e-20)
(1.17686 0.166371 -6.7198e-21)
(1.01453 -0.0745536 -5.45797e-21)
(1.02183 -0.00460558 1.93666e-21)
(-0.188138 -0.0172957 -9.29514e-20)
(0.505686 0.0347939 2.99438e-21)
(1.17002 -0.156517 0)
(1.02604 0.0125532 -4.74601e-21)
(1.27428 0.0727526 0)
(1.19488 0.00273682 -3.97728e-20)
(1.16228 0.187709 0)
(0.974322 -0.0292879 0)
(0.98441 -0.0151909 -1.00529e-20)
(1.00155 -0.00769773 0)
(-0.205025 0.00840634 -5.07401e-20)
(1.08034 0.0305084 -2.69801e-21)
(1.05824 0.0036716 -1.87759e-20)
(1.00013 -0.000454226 6.15502e-21)
(0.597619 0.0287693 5.96231e-22)
(1.11637 0.0303873 -1.32236e-20)
(1.02806 0.0192808 3.54274e-21)
(0.351702 0.0342902 0)
(0.628139 0.0450253 5.08394e-21)
(0.643462 0.0440514 9.60319e-21)
(-0.531689 0.0392134 0)
(1.04068 -0.129365 6.91618e-21)
(0.952345 0.318627 5.22781e-20)
(1.00118 -0.00862001 -1.03504e-22)
(1.01567 -0.00745588 0)
(1.14135 0.04001 0)
(1.00106 -0.000438622 0)
(-0.177361 0.078024 0)
(0.992038 0.0689399 -3.20737e-22)
(1.01998 0.0256938 -1.13532e-21)
(1.01623 -0.0072924 0)
(1.06589 0.0161059 0)
(1.02195 0.0242423 -1.43989e-21)
(1.10145 0.177825 3.73595e-20)
(1.10874 -0.492453 7.61175e-20)
(1.04628 -0.121166 4.02236e-21)
(1.08291 0.0345506 6.72749e-21)
(-0.335898 0.0143722 1.3365e-19)
(0.511609 0.0339023 -6.46203e-21)
(1.03815 0.0765368 4.59564e-21)
(0.891611 -0.0753005 7.9406e-20)
(0.978932 -0.0298566 -1.63356e-20)
(1.02109 -0.0159236 5.34832e-22)
(1.27854 0.17263 6.76961e-21)
(1.08211 0.0305077 1.94866e-21)
(0.324418 0.0285375 -1.08171e-20)
(1.08701 -0.0226482 -7.21125e-22)
(1.01621 -0.0721885 0)
(1.0305 0.00580379 -9.81279e-22)
(1.03925 0.0735861 -2.89689e-21)
(1.04564 -0.00740934 0)
(1.04399 -0.0234755 -3.18718e-21)
(0.709443 -0.170825 0)
(1.36887 -0.104246 0)
(-0.065889 0.135583 -5.53173e-20)
(0.311129 0.201728 -3.72078e-21)
(1.08033 0.0232048 1.3171e-20)
(0.933967 -0.748159 1.20308e-20)
(-0.123646 0.127738 2.92228e-20)
(0.938624 -0.0284843 2.36155e-20)
(1.06978 0.0292681 0)
(0.548961 0.0493386 0)
(1.08271 -0.0344413 0)
(1.03491 -0.00213083 5.33926e-22)
(1.01935 -0.0401235 0)
(1.3791 -0.0988111 3.709e-20)
(1.00011 -0.00206753 0)
(1.16017 -0.0561304 -5.43044e-21)
(1.03363 -0.0823725 -2.72293e-21)
(0.983207 -0.0237815 -2.55891e-20)
(1.03529 0.127489 9.86907e-21)
(1.04638 -0.0149965 6.36883e-21)
(0.149272 -0.539599 -4.89222e-20)
(1.01621 -0.00686035 4.44966e-22)
(1.05988 0.101548 -1.8044e-20)
(0.311765 0.032487 -4.28787e-20)
(-0.223928 0.0572487 1.10002e-19)
(0.904067 -0.0845585 -3.06091e-20)
(1.0685 0.0291397 0)
(1.00002 -0.000974431 -9.14303e-21)
(0.746241 -0.30252 0)
(1.00276 -0.0162544 -1.16765e-21)
(1.15608 -0.0587271 1.81517e-20)
(-0.0721688 -0.0136451 0)
(0.897429 -0.0759044 -5.63181e-20)
(1.0819 -0.0322761 0)
(0.996309 -0.00345107 -1.42748e-20)
(0.291378 0.194014 2.84493e-21)
(1.02278 -0.0106555 -1.71974e-21)
(0.744536 -0.376879 0)
(0.257598 0.196468 -2.54663e-20)
(1.26152 -0.211994 8.09983e-20)
(1.00009 -0.000430958 -6.29782e-21)
(1.34961 -0.384233 0)
(0.196886 0.0549135 0)
(0.683661 0.0289529 0)
(1.03483 -0.000552417 0)
(1.09923 0.00753946 0)
(0.705017 -0.355713 4.95411e-20)
(1.04075 0.12332 -9.31606e-21)
(1.06548 0.0160642 -4.16278e-21)
(1.09283 -0.451519 -1.11159e-19)
(1.06178 -0.135644 1.37732e-21)
(0.41528 0.0259762 2.54681e-21)
(1.12019 0.128993 0)
(1.01133 -0.000892104 -4.58355e-22)
(1.07858 -0.00359952 0)
(1.02842 0.00710208 -2.23014e-21)
(0.585793 0.0294538 0)
(0.469728 0.0244552 7.17891e-22)
(1.02057 -0.015296 0)
(0.589314 -0.211247 0)
(0.993791 -0.0178315 1.41122e-20)
(1.02052 0.0835759 3.1402e-21)
(1.12508 0.184668 0)
(1.07997 -0.00267914 -2.54782e-20)
(1.11411 0.0337574 5.40457e-20)
(1.12586 0.133372 8.31526e-21)
(1.0021 -0.0287511 -9.9107e-21)
(0.807199 -0.137967 -7.19596e-22)
(1.03288 0.0233025 0)
(1.01079 0.206261 -1.62765e-20)
(0.99829 -0.0112816 -3.4171e-21)
(0.983003 -0.02283 2.57433e-20)
(0.898424 -0.0831737 1.68386e-20)
(0.672593 0.0548667 -3.97269e-21)
(-0.265003 0.014729 -1.78105e-21)
(1.09368 0.0353942 -1.17484e-20)
(1.03132 -0.0139454 7.32476e-23)
(1.09055 0.178419 4.25653e-20)
(1.14314 0.187103 0)
(1.03934 0.0616821 3.52873e-21)
(1.11092 0.0329234 -5.08796e-20)
(0.638974 0.0552081 0)
(-0.197672 0.0565526 -9.4746e-21)
(1.08608 -0.00831498 0)
(1.08003 0.0186629 2.16643e-20)
(0.851634 -0.14505 -1.13037e-19)
(1.02282 -0.0207806 -1.57505e-21)
(1.00165 -0.00725607 0)
(1.0385 0.0648209 -2.48329e-21)
(1.18469 -0.106409 3.86637e-21)
(1.02409 -0.0106426 -1.92836e-22)
(1.00013 -0.00203192 0)
(1.00259 -0.0167544 -5.9448e-21)
(1.00462 -0.000719302 -3.19214e-23)
(1.09131 0.0132058 -3.9841e-20)
(1.00174 -0.00781248 0)
(0.562523 0.0473669 0)
(1.09542 0.0312493 1.05249e-20)
(1.01521 -0.0338761 2.37615e-21)
(0.587431 0.0278034 -2.65028e-21)
(0.306839 0.0819173 -5.16685e-21)
(0.976223 -0.024824 0)
(1.05462 0.101077 0)
(-0.468212 0.0450119 0)
(0.977501 -0.0524868 1.13035e-20)
(0.974741 -0.0242116 0)
(1.09744 0.033691 0)
(0.295099 0.0382873 -7.59902e-21)
(0.121594 -0.0467504 4.44576e-20)
(1.13036 0.0566766 -2.07256e-20)
(1.00237 -0.00066899 -3.81535e-21)
(0.988743 0.323462 -4.64751e-20)
(1.00134 -0.00924047 0)
(1.13839 0.0626779 2.98684e-21)
(-0.447562 0.0512845 4.59887e-21)
(1.00129 0.190172 -1.51764e-20)
(1.05734 0.00333137 6.96361e-21)
(0.977068 -0.181439 1.17241e-19)
(1.32901 -0.209977 0)
(-0.189152 -0.026323 0)
(1.28265 0.0558071 1.28453e-19)
(0.781294 -0.106448 4.43513e-20)
(-0.175806 0.0518413 0)
(0.377593 0.108529 2.80205e-20)
(1.05572 0.252678 2.37323e-20)
(1.04542 -0.0240331 -3.49375e-22)
(-0.343429 -1.05885e-05 -2.22074e-19)
(0.275899 0.0230665 6.13687e-22)
(0.454955 -0.461385 8.97985e-20)
(0.490052 -0.468374 -1.01457e-19)
(0.937125 -0.0297206 -4.38886e-20)
(1.14186 0.0494933 0)
(0.953829 -0.125753 1.45699e-20)
(0.449529 0.0256942 -3.11719e-21)
(0.786863 -0.154201 0)
(1.00902 -0.00213058 0)
(1.01924 9.61128e-05 2.41431e-21)
(1.0831 -0.0749272 2.11807e-20)
(-0.221061 -0.0257997 0)
(0.202188 -0.54693 1.02681e-19)
(1.02276 -0.0199428 9.68381e-22)
(-0.253503 0.05883 -1.98735e-19)
(0.942354 -0.123449 -3.44722e-20)
(1.11444 -0.0537835 0)
(1.05832 0.00427686 1.00766e-20)
(0.287487 0.0349741 1.7646e-21)
(1.08641 0.171421 -2.70633e-20)
(1.03047 0.00387049 4.40156e-21)
(1.0309 -0.0802968 0)
(1.07904 -0.0321164 1.513e-20)
(0.610238 0.0243132 0)
(0.978957 -0.0314253 8.44801e-21)
(1.15281 0.193368 0)
(1.0841 -0.00762775 0)
(1.10016 0.0334959 -3.22264e-22)
(0.936384 -0.125894 9.96196e-21)
(0.993137 -0.0179498 -1.43843e-20)
(1.01597 -0.0333058 1.74589e-21)
(1.30995 -0.0618841 0)
(1.28135 -0.216809 0)
(1.10784 0.126993 0)
(1.19977 -0.187498 -1.04449e-19)
(0.620027 0.0241565 3.20431e-22)
(1.01601 -0.0759675 7.80222e-21)
(0.231096 0.189521 1.24774e-20)
(1.01223 0.0950925 0)
(1.02823 -0.00644284 0)
(0.992667 0.187067 1.56168e-20)
(1.07616 0.0795367 3.3135e-20)
(-0.334714 0.061819 -3.77889e-20)
(1.08042 -0.0724944 0)
(1.0544 0.00734559 1.13605e-20)
(1.00742 0.0107233 -1.113e-21)
(1.0507 -0.0763635 -1.22012e-19)
(1.30187 -0.0795473 0)
(0.447618 0.0248919 -1.30489e-20)
(1.05065 -0.0343264 -1.24437e-20)
(0.989654 0.0718886 0)
(-0.381042 0.0134536 0)
(1.10071 -0.00564745 2.28064e-20)
(0.433405 0.0273288 -2.78751e-21)
(1.10893 -0.00447353 -5.5223e-20)
(0.285765 0.204427 0)
(1.08018 0.0176448 0)
(1.06316 0.0147079 0)
(1.1398 0.12897 1.83788e-20)
(1.31816 -0.194618 -7.30685e-20)
(0.984574 -0.0160848 0)
(1.08534 -0.0139547 8.94856e-21)
(1.19067 -0.110116 -4.85623e-21)
(1.06637 0.0165643 -9.87624e-21)
(1.01587 -0.0259417 3.24535e-22)
(1.0916 0.0367743 2.49206e-20)
(0.93151 0.126329 0)
(0.997176 -0.0311702 2.76259e-21)
(1.07137 0.0307113 0)
(-0.22386 0.00857819 -2.73243e-20)
(1.07139 -0.0311084 -5.44375e-21)
(1.21545 -0.508945 -8.40649e-20)
(1.06204 0.0193377 0)
(0.171045 -0.0465391 -8.3521e-20)
(1.08574 -0.0354884 0)
(1.05435 0.0143516 0)
(0.904577 -0.716495 0)
(1.11709 0.187397 0)
(1.12494 0.0254681 -5.63615e-20)
(0.455164 0.024214 0)
(0.169419 0.0468955 0)
(1.31349 -0.380347 0)
(1.0013 -0.028906 5.7882e-21)
(1.30388 -0.0555665 1.04307e-20)
(1.11394 -0.0108306 4.2083e-20)
(1.05416 0.00899754 0)
(1.02914 -0.0154668 -2.72231e-21)
(-0.295134 0.0171405 0)
(0.914411 0.189584 -7.66528e-21)
(1.06064 -0.0267414 0)
(1.07806 -0.0301673 -1.08209e-20)
(1.13466 0.132575 -9.20582e-21)
(0.997143 0.0432109 2.76702e-21)
(-0.25277 0.0119224 0)
(1.02427 -0.00216064 -2.60597e-21)
(-0.386478 0.00849053 1.87006e-19)
(1.33648 -0.179272 1.47381e-20)
(0.184831 -0.108501 1.06974e-19)
(1.06689 -0.138497 -1.24831e-20)
(1.21926 0.303396 5.37407e-20)
(0.98902 -0.0227895 2.58546e-21)
(1.00124 -0.00037629 0)
(0.384819 0.0288185 -1.64297e-27)
(0.996044 0.0488984 -1.18965e-22)
(0.991145 -0.0136363 -9.8879e-21)
(1.07262 -0.0156705 -1.7746e-20)
(1.07195 0.0317165 -4.38064e-21)
(1.01414 -0.00884435 0)
(0.943675 0.19102 1.37797e-21)
(1.13895 0.0530748 -2.31945e-20)
(1.07986 0.079023 -2.32552e-20)
(1.06915 0.00512646 0)
(1.05108 -0.0330133 9.93985e-21)
(0.972506 -0.0137808 3.23836e-20)
(1.12172 -0.0906395 1.18265e-19)
(1.01396 -0.0333861 5.81996e-21)
(0.973499 -0.0127157 -2.8744e-20)
(0.945542 -0.0027889 1.36158e-21)
(0.941152 0.131923 1.62607e-21)
(1.04326 -0.091146 5.22471e-21)
(1.00732 0.0149217 -1.46535e-22)
(0.995814 -0.00532369 -7.06792e-21)
(1.00183 -0.00735925 0)
(1.07391 -0.031556 -1.15377e-20)
(1.11218 0.131858 0)
(1.06189 0.0172178 -9.84513e-21)
(1.01588 -0.0274473 -7.14001e-22)
(1.05874 -0.0240285 0)
(1.12921 -0.382654 3.1237e-21)
(1.06319 -0.0107984 0)
(0.188697 -0.0475823 -1.72017e-19)
(1.00184 -0.00929733 -5.90214e-21)
(1.06618 0.0113208 -1.29078e-20)
(0.670654 0.0304172 0)
(0.945646 -0.171401 3.554e-20)
(1.01874 -0.000422237 -1.73037e-21)
(1.00068 -0.00795496 4.38077e-21)
(1.06923 0.00444565 6.8176e-21)
(1.04812 -0.00627094 -8.10028e-21)
(1.27913 -0.427867 -1.22671e-19)
(0.87732 0.00596078 9.90025e-22)
(1.09913 0.00946007 4.14488e-21)
(0.308386 -1.12809 0)
(1.07523 -0.0297297 1.19767e-20)
(1.00097 -0.0133035 -5.94775e-21)
(0.571484 0.0920857 -1.46813e-20)
(1.00668 0.0136462 6.66573e-22)
(0.881065 -0.133634 1.22061e-19)
(0.998757 -0.0347068 0)
(0.36202 0.098085 -1.46949e-20)
(0.85999 -0.104142 2.30432e-20)
(1.11209 -0.644079 1.81368e-19)
(0.99162 -0.0326814 3.52041e-21)
(1.11432 -0.0435751 -2.01909e-20)
(1.3093 -0.0748239 0)
(1.06935 0.0191551 0)
(0.432165 0.11971 -2.45942e-20)
(0.996774 0.040946 -3.20775e-21)
(1.1305 -0.0368628 0)
(0.98189 -0.0759544 7.57635e-21)
(1.28397 0.0647964 -9.59056e-20)
(1.00341 -0.0297911 4.74847e-21)
(0.58133 0.0305079 0)
(1.06253 0.0198747 2.52004e-21)
(1.03743 0.071407 -1.25249e-20)
(1.11119 -0.00937473 -4.24182e-20)
(1.03119 -0.0768884 -5.88983e-22)
(0.952597 -0.168485 -5.51215e-21)
(1.139 0.0444841 4.15479e-20)
(1.00187 -0.000595118 0)
(-0.29593 0.0135273 -1.56946e-20)
(0.528198 0.0912664 1.60082e-20)
(0.215328 -0.0484292 7.204e-20)
(-0.183192 0.0196954 1.27253e-19)
(0.898544 0.00399813 -1.37349e-21)
(-0.470674 0.00246091 0)
(1.13439 0.191849 0)
(0.915976 -0.0879412 0)
(0.999703 -0.00308701 1.29896e-20)
(1.11615 -0.475171 0)
(0.99174 -0.0121557 -5.80462e-21)
(1.01547 -0.0253392 8.96198e-23)
(0.910323 -0.105197 -1.50195e-20)
(-0.131629 0.0916163 1.34561e-19)
(1.06813 -0.00885857 5.07692e-21)
(0.973585 -0.0457308 0)
(1.0921 -0.304659 0)
(1.1489 0.00337298 -5.80083e-21)
(0.989351 -0.00789084 1.40064e-20)
(0.638622 0.0620906 -1.36704e-19)
(1.01111 -0.0255006 -1.4651e-22)
(0.596572 0.127148 0)
(1.27291 -0.411601 7.04095e-20)
(1.00738 -0.0213122 -4.59705e-21)
(1.06149 -0.00300807 -1.56013e-20)
(1.35306 -0.142779 0)
(1.00055 0.202627 -2.38894e-21)
(1.02353 -0.0110284 1.93858e-21)
(0.726634 -0.0887545 -1.80693e-19)
(0.887575 -0.354825 2.77352e-20)
(1.03145 -0.00167139 0)
(-0.193954 -0.0280095 -2.17092e-19)
(1.17525 0.206625 0)
(1.06751 0.107513 0)
(0.980242 -0.0742851 1.39989e-20)
(0.96306 -0.00345985 2.91527e-21)
(-0.035258 0.0688794 -1.29145e-22)
(1.03216 -0.00181588 0)
(1.31818 0.129252 -1.32026e-19)
(1.0225 -0.040026 0)
(1.01164 -0.0259739 -1.89556e-21)
(0.946406 -0.0114613 7.1831e-23)
(0.289824 0.203509 -2.48587e-20)
(1.12707 -0.00386478 0)
(1.06213 0.0167165 1.06517e-20)
(0.990996 -0.0109998 -7.96887e-21)
(1.05683 0.021735 -4.67541e-22)
(0.575037 0.138662 -1.31785e-20)
(-0.214566 0.0258346 -8.93586e-20)
(1.03558 -0.00423303 0)
(-0.481798 0.00605243 0)
(1.01542 -0.0268944 0)
(1.02387 -0.0405412 -3.584e-23)
(1.12403 0.0282676 6.03463e-20)
(1.06369 0.01226 -1.47031e-20)
(1.02445 -0.00191679 2.76236e-21)
(1.02594 -0.0751574 -8.56354e-23)
(-0.181988 -0.0284319 0)
(1.3132 -0.189258 -5.65459e-20)
(-0.218872 -0.0256881 1.9284e-19)
(1.06634 -0.0096999 -4.67156e-21)
(0.99409 -0.0185445 0)
(0.687935 0.0503366 8.22982e-21)
(0.999546 -0.00464205 0)
(1.30607 -0.0366523 0)
(1.06991 0.00986213 -1.33824e-20)
(1.06816 0.0169159 0)
(1.10268 0.00404207 2.36232e-20)
(0.751268 0.023871 3.22666e-21)
(-0.191514 0.0662795 -2.16608e-20)
(1.08479 -0.0186125 1.90311e-20)
(-0.362615 0.00796237 -1.07289e-19)
(1.05666 0.0018133 0)
(1.16358 0.0368236 1.74389e-21)
(0.637221 0.0290404 3.19833e-21)
(0.419697 0.0335485 -3.05031e-22)
(1.01612 -0.0418589 -6.98361e-22)
(1.00263 -0.0298183 -5.86358e-21)
(0.82006 -0.17061 8.95789e-20)
(-0.214093 -0.0242323 3.304e-21)
(1.01692 -0.000753554 0)
(1.05729 0.0208786 -3.03306e-21)
(0.967526 -0.536913 -3.41381e-20)
(1.06352 0.0124516 1.74768e-20)
(1.07856 0.0168033 0)
(-0.0135089 -0.0228232 0)
(0.566882 0.0364949 -1.38255e-19)
(1.10159 -0.369184 -3.55407e-20)
(0.570368 0.120108 -3.64728e-21)
(1.0139 0.0531736 7.62153e-22)
(0.638978 0.0252626 -9.37623e-22)
(1.04633 -0.0337439 -3.95141e-21)
(1.00553 0.00757989 -6.86886e-22)
(1.2156 0.285744 2.81201e-21)
(1.00043 -0.0115316 5.04613e-21)
(-0.671618 0.0202289 0)
(0.50333 0.167924 -6.05148e-20)
(1.04626 -0.127028 -8.64822e-21)
(1.08071 0.0351392 4.17099e-21)
(1.00595 -0.0388606 -6.18245e-21)
(0.4385 -0.851878 0)
(1.18083 -0.199276 -1.07566e-19)
(0.389012 -0.13028 1.09926e-19)
(1.01331 -0.0339962 4.59277e-21)
(1.00072 -0.000500555 -7.24233e-22)
(0.91244 -0.0552933 1.38229e-20)
(1.14875 -0.000970355 1.02295e-20)
(1.00186 -0.00890352 2.97869e-21)
(-0.189457 0.0839747 -2.02859e-19)
(1.00085 -0.000611476 0)
(1.01604 0.0551413 -2.69455e-22)
(0.974662 -0.0731073 1.40083e-20)
(1.0529 0.00932702 2.88078e-21)
(0.993281 -0.032993 -5.68908e-21)
(0.98864 -0.00815749 1.19568e-21)
(1.11862 -0.166027 3.11014e-20)
(-0.484618 0.00290583 1.36143e-19)
(1.13062 0.0209284 3.07299e-20)
(-0.279013 0.0507887 0)
(1.11557 -0.0469738 3.56038e-20)
(1.01441 -0.0099044 -1.99041e-22)
(1.03139 -0.00848892 0)
(1.14663 0.0398983 0)
(1.05784 -0.0251974 0)
(1.22979 0.0398283 0)
(1.07252 -0.00957304 -1.50106e-21)
(0.880851 -0.125674 -4.1038e-20)
(1.00849 0.00557917 4.44292e-22)
(0.999419 -0.00439892 -9.59434e-21)
(0.458558 0.0207172 -9.03928e-23)
(1.00006 -0.00135627 -6.68755e-22)
(1.04682 0.00269336 -1.16257e-20)
(-0.344675 0.0079959 0)
(0.669103 0.0370534 -5.66081e-21)
(0.882718 -0.0364617 6.40609e-20)
(0.578657 -0.205651 -1.46496e-19)
(1.07987 -0.303321 2.36139e-20)
(1.26612 -0.279137 -5.75707e-21)
(0.474634 0.172317 0)
(1.03797 -0.0049892 -5.8291e-21)
(0.540739 0.0481259 2.57349e-19)
(0.948236 -0.128187 1.78109e-20)
(1.10333 -0.00451768 8.66955e-21)
(-0.173722 0.0169417 2.80337e-20)
(1.38553 0.159584 1.14965e-20)
(1.02875 -0.00685153 2.58071e-21)
(1.2279 0.0343847 0)
(1.04488 -0.00679922 0)
(0.611404 0.0261164 -3.62316e-22)
(-0.59054 0.0233745 -5.94713e-20)
(1.02925 -0.040937 -1.06058e-21)
(0.691506 -0.159807 0)
(0.94517 0.243094 9.72899e-22)
(0.999984 -0.0011115 -1.49123e-21)
(0.999978 -0.00154389 -5.47544e-21)
(1.05284 0.0128268 1.60581e-20)
(0.441792 0.0201416 -1.30309e-22)
(1.00195 -0.0059565 -3.38979e-21)
(0.974824 -0.0228549 -3.53007e-21)
(1.15427 0.127968 7.86215e-20)
(1.06162 -0.0110806 -1.35643e-20)
(0.987618 -0.0093894 0)
(1.00894 0.0014199 6.32433e-22)
(1.14826 0.132464 -1.10925e-19)
(1.27701 -0.196593 7.8005e-20)
(1.0229 -0.00179023 4.1653e-21)
(1.03303 0.0252883 0)
(0.912284 -0.221433 -1.77125e-20)
(1.05649 0.0141543 0)
(0.958449 -0.0258744 -5.07358e-20)
(1.01458 -0.0696656 0)
(1.17146 -0.198553 7.99944e-20)
(0.916668 -0.056279 1.23762e-20)
(1.03037 0.0203457 0)
(1.09748 0.0395804 1.90502e-20)
(1.10311 0.0391189 1.29313e-20)
(1.09005 -0.354678 5.13329e-20)
(1.16557 -0.702158 -5.05337e-20)
(1.19527 0.206511 0)
(0.954142 0.0389035 -1.25439e-20)
(0.82635 -0.0904477 1.64672e-19)
(1.02732 0.0135298 7.42239e-21)
(0.375579 0.0435722 1.71315e-20)
(1.0378 -0.186568 -6.56795e-21)
(0.926571 -0.00757827 1.09444e-23)
(1.06186 0.107283 1.67497e-20)
(1.03398 -0.0176378 -1.82358e-21)
(1.07836 0.0154621 0)
(1.19294 0.192805 1.85489e-20)
(1.07004 -0.0835796 1.55523e-20)
(1.00686 -0.0200343 -4.04039e-21)
(1.00728 -0.0189336 0)
(1.045 0.00538007 -6.35792e-21)
(0.439646 0.0228394 6.15885e-21)
(1.06701 0.0116346 2.04442e-20)
(0.17934 0.181724 3.28894e-20)
(1.01426 -0.0103531 1.97836e-22)
(0.995058 -0.00470415 3.56047e-21)
(1.00744 -0.396976 -1.48369e-21)
(-0.492655 0.0420915 2.06481e-20)
(1.23136 0.0257527 -5.21905e-20)
(1.08787 -0.0344235 -3.94102e-21)
(1.07063 -0.0120997 0)
(-0.479628 0.0478816 0)
(1.28129 -0.189615 0)
(1.03818 -0.178886 1.05221e-21)
(0.995485 0.0463086 0)
(1.04952 -0.0311822 -8.08896e-21)
(1.16164 -0.442679 -4.23995e-20)
(1.04512 0.00386536 6.33079e-21)
(1.01679 0.0595838 2.627e-22)
(1.11507 -0.0231315 2.80152e-20)
(1.37778 -0.172785 0)
(0.989803 -0.0231371 -3.001e-21)
(1.00007 -0.00161042 0)
(0.941966 -0.0279884 0)
(0.987045 -0.010267 7.70524e-21)
(0.629082 0.0300801 0)
(1.00436 -0.000885606 0)
(1.01181 0.000653043 -5.41961e-22)
(0.653232 0.0526855 -6.12051e-23)
(1.23891 0.023869 0)
(-0.188893 0.0366345 0)
(-0.316822 0.0604275 0)
(1.0148 0.0614152 1.86568e-21)
(1.27722 -0.276792 7.53601e-21)
(0.885886 -0.0437877 -2.22398e-20)
(0.998608 -0.00121656 -1.0996e-20)
(0.984195 -0.0220004 6.48802e-21)
(1.02113 -0.00521124 -1.6582e-21)
(1.03074 -0.00859703 -7.08779e-23)
(1.00102 -0.000578507 -3.13565e-21)
(1.15571 0.0449624 0)
(1.25637 0.0920574 -2.48282e-21)
(0.908948 -0.23356 0)
(1.03795 0.237019 -3.91051e-20)
(1.03094 -0.0632778 -2.41044e-22)
(0.537062 0.0476577 0)
(0.999985 -0.000124243 -1.44805e-20)
(-0.17245 0.00106439 5.94878e-20)
(1.14419 -0.0777494 -9.79885e-21)
(0.99994 -0.000250392 1.64763e-20)
(0.997049 -0.00320635 -5.36034e-24)
(0.661622 0.0396699 -1.45354e-20)
(1.08783 -0.0266119 0)
(0.980617 0.0227416 -3.39106e-21)
(0.540558 0.183949 0)
(1.07918 0.0320472 0)
(1.09083 0.0614954 0)
(1.03093 -0.0010256 0)
(0.692745 0.119928 0)
(0.991955 -0.0861714 1.51041e-21)
(1.06944 -0.00970583 5.69193e-21)
(1.0076 0.00395522 0)
(0.998652 -0.00169359 -1.0938e-20)
(0.977222 -0.0484459 -2.32602e-20)
(1.03617 -0.00900676 0)
(1.06325 0.0215043 1.53549e-21)
(0.431574 0.0245339 -5.33647e-22)
(1.10442 -0.0452769 -7.68268e-21)
(1.11403 -0.0169141 5.38379e-20)
(1.33951 -0.190693 0)
(-0.266191 0.0222465 4.5331e-20)
(0.888677 -0.0662832 0)
(0.995687 -0.110559 0)
(0.646972 0.0264913 -2.66188e-21)
(1.02069 -0.00504195 1.48732e-21)
(0.633178 0.0275373 1.98868e-21)
(1.00037 -0.00120708 -2.28989e-22)
(1.06334 -0.00935584 1.53766e-20)
(1.22088 0.0838776 -5.13294e-20)
(1.04889 0.0387023 0)
(1.03294 0.0598907 -8.21564e-21)
(1.24806 -0.0776202 -3.18109e-20)
(1.12951 0.0243493 0)
(0.999525 -0.00113328 5.16755e-21)
(0.999991 -0.000132978 0)
(1.16849 0.0404708 2.96013e-20)
(1.0478 -0.0333382 -4.31996e-21)
(0.99965 -0.000854202 -3.09453e-21)
(1.06545 0.0127447 1.2632e-20)
(1.30965 -0.237835 0)
(1.00538 -0.00656394 -3.21033e-21)
(1.24933 -0.293183 9.95399e-20)
(1.25845 -0.506512 6.47222e-20)
(0.982455 0.0156806 0)
(1.24536 -0.0703799 0)
(-0.0856528 -0.0200595 -1.77909e-19)
(0.84059 -0.101902 0)
(0.998477 -0.00165406 1.19627e-20)
(1.29755 -0.0984138 0)
(1.01371 -0.0109786 0)
(1.08524 -0.0119992 2.03273e-20)
(0.969505 0.0370097 1.06136e-20)
(0.621939 0.0224959 0)
(0.523635 0.0412622 1.54258e-19)
(0.68149 0.0249429 5.33984e-22)
(1.03305 -0.0406255 0)
(1.02902 -0.0400814 2.1047e-21)
(0.988614 -0.297566 -9.40021e-22)
(1.0106 -0.0674435 4.69635e-22)
(1.02457 -0.0177805 1.90651e-21)
(0.418364 -0.221877 -9.2323e-20)
(1.01703 0.0807504 -7.29273e-21)
(0.43019 0.0295207 1.21878e-20)
(1.04692 0.00127825 1.28772e-20)
(1.04801 0.0400472 0)
(0.985815 -0.0123077 9.78055e-21)
(1.02204 -0.0114852 2.10841e-21)
(1.18293 -0.333007 0)
(1.08427 0.0823727 3.66805e-20)
(1.06517 -0.00873625 -2.34219e-21)
(0.999802 -0.000160775 -2.0306e-21)
(1.03106 0.0548735 4.12796e-21)
(1.31078 0.0341289 9.6216e-20)
(0.197064 0.18631 -1.76012e-20)
(0.97432 -0.0274048 0)
(1.00096 -0.00364513 -1.28307e-22)
(0.414902 0.0233492 2.55755e-21)
(0.959473 -0.0244821 2.78118e-20)
(1.10587 1.7086e-05 3.59545e-20)
(1.0137 -0.00838947 -9.34184e-23)
(-0.0889614 0.104677 1.40543e-19)
(1.01078 -0.000531554 -5.89263e-23)
(-0.343169 0.00103814 9.67873e-20)
(0.995257 -0.00975394 -6.97573e-21)
(1.25029 -0.215205 0)
(1.09793 0.0223881 5.54869e-22)
(0.963423 -0.301107 3.38107e-21)
(1.11637 -0.0204089 -2.74088e-20)
(0.995589 -0.0304561 -4.43423e-21)
(1.07302 -0.0182794 -7.37335e-21)
(1.0037 -0.00469875 1.51597e-21)
(1.01419 -0.00276479 -7.34615e-23)
(0.963274 -0.0333554 -1.38056e-20)
(0.48834 0.0242983 7.35404e-22)
(1.05152 -0.0298475 6.23112e-21)
(0.945456 0.0947357 -3.22749e-21)
(0.616556 0.0780518 -3.66456e-20)
(1.11188 -0.0297629 9.95046e-21)
(1.00435 -0.0033637 -1.70327e-21)
(-0.19869 0.00475266 0)
(0.894501 0.00643576 -4.81621e-21)
(1.08703 -0.0177522 -1.48296e-20)
(1.04797 0.035785 1.4274e-20)
(0.984117 -0.0210819 3.22314e-21)
(0.443056 0.023787 8.51311e-21)
(1.03491 -0.018123 -1.84896e-21)
(1.20331 0.188265 -2.16516e-20)
(0.999915 -0.01286 5.9193e-21)
(1.00403 -0.00491924 1.86789e-21)
(0.978746 0.0226111 -1.34508e-21)
(1.10206 0.0061571 -3.25365e-20)
(1.0008 -0.00863739 0)
(1.06458 0.0150986 0)
(0.388505 0.175949 -5.76975e-21)
(0.70343 -0.813775 -1.01631e-21)
(0.920919 0.25178 -3.94225e-22)
(1.01974 -0.0154721 0)
(0.395121 0.0457219 -1.14095e-20)
(0.99813 -0.012019 -3.70732e-21)
(1.00511 -0.00618746 1.45263e-21)
(0.975876 -0.0301194 0)
(1.01926 3.8589e-05 1.64814e-21)
(0.99989 -0.00223329 0)
(0.849804 0.295817 5.98924e-21)
(0.963957 0.0488165 0)
(1.04706 -0.0158824 0)
(1.00089 -0.000836022 7.69155e-22)
(1.12699 7.80733e-05 0)
(1.01872 -0.0233194 0)
(-0.168977 -0.000310077 9.68117e-20)
(1.30522 -0.093009 -1.14154e-20)
(0.355414 0.0392158 -2.89756e-21)
(-0.154079 0.0475929 -4.5225e-20)
(1.07304 -0.0194387 1.59928e-20)
(1.03049 0.0224316 -4.80106e-21)
(1.00053 -0.0122546 5.36312e-21)
(1.09725 0.0274121 -9.40635e-21)
(1.00279 -0.378056 0)
(1.03725 -0.00452494 7.02812e-21)
(1.00032 -0.00117741 0)
(1.34624 -0.363905 -3.88945e-20)
(-0.574115 0.0258152 -6.27286e-20)
(1.08871 0.0590358 -7.38976e-21)
(-0.46672 0.0101621 -1.58787e-19)
(1.06693 0.0437035 0)
(0.995967 -0.00617525 -4.4076e-21)
(1.13775 -0.012352 -3.22885e-20)
(1.0463 0.0347474 -1.60274e-20)
(-0.545401 0.00863914 1.20973e-19)
(1.09012 0.011119 1.06234e-20)
(0.988534 0.0205895 3.73116e-21)
(1.08627 0.0850982 -3.99232e-20)
(1.0002 -0.0023008 0)
(0.206999 -0.0707715 0)
(0.130797 -0.0430223 0)
(0.455327 0.0266795 -7.62322e-21)
(1.31301 0.160319 -1.33099e-20)
(0.943905 -0.0133355 5.25419e-22)
(0.985047 -0.0765044 -1.86302e-20)
(0.726211 -0.369973 -5.35484e-20)
(0.972725 -0.011021 2.72799e-20)
(0.98469 0.116534 -5.17402e-23)
(1.0684 -0.0800167 -1.49965e-20)
(1.00882 -0.00170958 1.0936e-21)
(0.880122 0.271482 -9.02775e-21)
(1.02691 -0.0629426 2.34582e-22)
(1.00425 -0.00308703 0)
(1.01742 -0.0416589 0)
(1.02523 -0.0613019 -5.65634e-22)
(-0.150369 0.0953854 -1.06693e-19)
(1.17305 0.193109 3.36699e-20)
(1.01396 -0.0156196 3.98765e-22)
(1.1388 -0.00805784 0)
(0.315133 0.0369573 4.70559e-21)
(1.04478 -0.0546247 -5.59394e-21)
(-0.476019 0.0107347 -8.81319e-20)
(0.960712 -0.0500876 3.69728e-20)
(1.05497 0.046668 -4.16719e-22)
(0.18381 0.193506 0)
(1.00158 -0.00813179 3.19768e-21)
(1.01671 -0.00218931 0)
(1.08143 -0.0957551 0)
(1.11573 -0.0298914 -9.9387e-21)
(0.652733 -0.840912 5.96523e-21)
(1.02936 -0.0618633 -2.24927e-22)
(1.37602 -0.0530189 9.61104e-20)
(1.05538 0.0136091 0)
(0.469563 0.192834 -4.31473e-21)
(1.04567 -0.00225268 -7.2839e-21)
(0.471442 0.0246281 -3.82294e-21)
(1.10053 -0.00859158 1.54422e-20)
(0.283407 0.0666052 -4.36834e-21)
(-0.601391 0.016184 1.16952e-19)
(0.452899 0.0237139 0)
(1.07549 0.0311836 1.57422e-20)
(0.992413 -0.0292704 -9.89518e-21)
(1.03254 -0.0419562 2.64031e-21)
(0.999971 -0.00107418 7.42065e-21)
(1.06342 0.014828 8.85304e-21)
(0.997115 -0.00520302 -7.22124e-21)
(0.451309 0.12935 -3.40691e-21)
(1.04172 -0.118209 2.09841e-22)
(0.929883 -0.0959979 2.01905e-20)
(0.891424 -0.0627787 3.54801e-20)
(0.987044 -0.0750081 1.78709e-20)
(1.01927 -0.0149519 6.21722e-22)
(1.06063 0.0123953 0)
(1.07631 -0.0800578 -2.19831e-21)
(1.06158 -0.00393904 0)
(1.0554 -0.0956219 0)
(0.419448 0.191599 1.27134e-19)
(1.01692 -0.00609645 0)
(1.09379 -0.00173943 0)
(1.1426 -0.152558 -3.38512e-20)
(0.901173 0.277374 7.20493e-21)
(0.974437 -0.0481151 5.39781e-21)
(-0.209158 -0.0249208 1.83877e-19)
(1.02012 -0.00511028 -8.24498e-23)
(1.04467 -0.144808 0)
(0.961385 -0.0321412 0)
(1.02653 -0.0268356 2.29889e-21)
(1.10065 -0.170643 1.70469e-21)
(1.00083 -0.0138249 5.23256e-21)
(1.01421 -0.0151617 -1.06164e-22)