/*--------------------------------*- C++ -*----------------------------------*\
| =========                 |                                                 |
| \\      /  F ield         | OpenFOAM: The Open Source CFD Toolbox           |
|  \\    /   O peration     | Version:  v2012                                 |
|   \\  /    A nd           | Website:  www.openfoam.com                      |
|    \\/     M anipulation  |                                                 |
\*---------------------------------------------------------------------------*/
FoamFile
{
    version     2.0;
    format      ascii;
    class       surfaceScalarField;
    location    "100";
    object      meshPhi;
}
// * * * * * * * * * * * * * * * * * * * * * * * * * * * * * * * * * * * * * //

dimensions      [0 3 -1 0 0 0 0];
oriented        oriented;


internalField   nonuniform List<scalar> 
20537
(
-0.000635128
-2.94565e-05
0.000669211
0.000799088
-0.000589789
-0.000209198
-8.05033e-05
-0.000309598
0.000390291
-0.00105025
0.000571763
0.000482649
0.000233348
0.000148676
-0.000381899
0.00055948
0.000196455
-0.000754253
-0.000752806
0.000603701
0.000158401
0.000231669
-0.000472804
0.000241504
-0.000313032
0.000410099
-8.5787e-05
0.000542171
-0.000241035
-0.000300863
-7.74162e-05
0.000210657
-0.000132668
-0.000366559
-2.01996e-05
0.000386794
0.000178098
-0.000227491
4.94067e-05
9.4431e-05
0.000140936
-0.000235368
-5.81713e-05
-0.000157155
0.000257166
-0.000322667
-0.000223787
0.000547411
0.000723134
-0.000212737
-0.000508446
-8.96521e-05
-0.000495221
0.000586784
0.000148682
0.000123794
-0.000272444
-0.000397137
9.58973e-05
-0.000474865
-0.000568415
-0.000455099
0.00037481
-1.42155e-05
2.90695e-06
1.58451e-05
3.39179e-05
-3.59597e-05
2.09758e-05
-1.95245e-06
-7.7089e-06
-0.000241928
0.000474013
0.000559869
-0.000448824
-0.000109608
-9.17222e-05
-4.66081e-05
-0.00084876
0.000218392
-0.000816765
0.000122278
0.000697686
-0.000181466
0.000742454
0.000384803
0.00034004
-0.000486708
0.000177337
-0.00026313
-0.000161741
0.000425307
-2.46139e-05
7.81958e-05
-0.000166774
-3.92849e-05
0.000206077
0.000231086
-0.000113664
-0.000117414
0.000171595
0.000152282
-0.000323826
0.000395913
0.000146464
-0.000574498
0.000311868
-0.000806454
0.000452582
0.000364406
2.82364e-05
9.29969e-06
-3.58806e-05
0.000118234
-3.95068e-05
-7.87272e-05
0.000146966
5.49485e-05
-0.000201657
-4.76844e-05
0.000194851
0.000188165
-0.000106816
-8.13488e-05
5.61023e-05
-0.000197074
0.000140937
-0.000700762
0.000203409
0.000497854
0.000429829
0.000131323
0.000526161
-0.000454505
-6.91572e-05
-0.000195561
0.000347023
-0.000151358
0.000149008
-0.000297401
0.00014843
4.64209e-05
-0.000111946
6.55249e-05
2.66003e-05
-0.000113651
0.000126959
-2.77716e-05
-7.81373e-05
0.000143545
-8.25228e-06
3.7992e-05
-1.15629e-05
5.52409e-05
-3.34604e-05
-6.36711e-05
-8.17446e-05
0.000145416
-0.000667815
-0.000145186
0.000620784
-0.00076096
0.000148532
0.000331547
-0.000159892
-0.000180948
-4.49176e-05
0.000225874
0.000270349
0.000464782
-0.000733756
-0.00014026
-0.000181203
0.00032154
0.0006387
-0.000126423
-0.000511788
0.000206855
-0.000728004
0.000524437
0.00012693
0.000104161
3.47306e-05
-0.000200612
0.000232848
0.000229938
-0.000462325
-0.000608748
0.000521157
-0.000108068
2.13401e-06
0.000105934
8.20448e-05
0.000101462
-0.000183503
0.000491743
0.0003074
0.000182965
-0.00010977
-0.00020678
3.94925e-05
0.000200637
0.000137589
0.000252223
-0.00038249
-0.000119443
-0.00033552
9.98335e-05
-0.000142697
4.28633e-05
-0.000435107
0.000253346
0.00018202
-2.28655e-05
0.000116239
0.000758926
-0.000227968
-0.000524481
1.14627e-05
-1.68481e-05
5.35494e-06
-0.00050458
0.000707253
-0.000183368
0.000104071
-0.000185403
8.13325e-05
-0.000412472
0.000684217
2.95889e-05
-0.000396111
-0.0002046
0.000730647
-0.000523976
0.000494587
-0.000381752
-0.000112707
-0.000497873
-4.59658e-05
0.000545362
0.000309981
-0.000239363
-6.56636e-05
-0.000252151
8.5393e-05
-0.000905494
0.000521866
0.000386722
-0.000135916
-0.000551276
0.000288772
0.000263324
-0.000755973
0.00025976
-2.65877e-05
-4.28302e-06
4.12276e-05
0.000339419
-0.00010596
-0.000211429
0.000172463
3.89694e-05
0.000418809
0.00010959
-2.21942e-05
7.84316e-06
-0.000179676
0.000188031
-8.3569e-06
0.000243864
0.0001536
-0.000397266
-0.000816124
0.000349978
0.000471511
-0.000367778
0.00051312
-2.36861e-06
3.65673e-06
-4.12983e-07
0.000206201
0.000496112
-0.000700256
-0.000191189
-0.000155737
0.000347078
1.6036e-05
3.95889e-06
-1.88519e-05
-0.000100237
0.00016467
0.000733378
-0.000535289
2.46883e-05
-2.33003e-05
1.1742e-05
0.000230119
8.49585e-05
-0.00050076
-0.000401621
9.32803e-06
8.79021e-06
5.57038e-05
-1.69972e-05
0.00030344
-0.000653132
-0.000127895
-8.35287e-05
-2.73486e-05
1.92279e-05
9.69404e-06
4.65671e-05
2.86389e-05
-4.86907e-05
0.000120517
-2.51999e-05
-6.31167e-05
0.000116626
1.60765e-06
0.000281273
-0.000647387
-6.70438e-05
0.000245155
-0.000698898
-0.00021393
-0.000486019
2.94251e-05
-0.000135914
0.000108654
-0.00071395
0.00050081
-0.000327464
3.35287e-06
0.000324309
-0.000931565
0.000462307
0.000122952
-0.00027855
0.000155648
-0.000332221
-0.000461437
-0.000104264
0.000352816
-0.000230673
1.45508e-06
-0.000109523
0.000139152
-0.000623207
-0.000359539
8.37838e-05
5.81514e-05
-0.000120547
-1.12185e-05
-1.40974e-05
9.46044e-05
9.45242e-05
-0.000189124
-0.000300796
0.000186662
0.000114136
-0.000168556
0.000325086
-0.000156545
-2.70325e-05
-0.000152644
0.000111854
-9.87034e-05
-0.000590953
0.00025555
0.000340978
-6.92164e-06
-6.40509e-05
7.28581e-05
-0.000320858
0.00061341
-0.000289743
0.000199916
-0.000144683
1.40622e-05
-6.12173e-07
-1.30002e-05
0.000323189
-0.000200168
-0.00058142
-0.000159716
-0.000184869
0.000137372
-0.000312861
0.000144966
-8.7251e-05
-1.01666e-05
0.000131493
-0.000114889
0.000209319
-3.74314e-05
3.47602e-05
8.66197e-06
0.000448641
-0.000455087
0.000375422
-0.000693132
9.31814e-05
-0.000549422
0.000467642
0.000576722
-0.000707384
0.000133975
0.000236195
-8.71519e-05
-0.000347646
0.000152197
9.16396e-06
-9.03577e-06
9.7984e-08
-0.000491835
0.000267582
0.000224887
6.14336e-05
-0.000125105
-0.000290117
0.000201961
0.000588252
0.00019462
-0.000780612
-8.01692e-06
6.74519e-05
-5.7312e-05
2.7822e-06
1.15837e-05
0.000437857
-0.000204573
-0.000516815
-0.000408906
-0.000113094
0.000180341
-6.72454e-05
0.000111106
-1.12729e-05
-0.000171102
3.84264e-05
0.00014259
0.000558433
-0.000454142
-0.000329481
0.000160915
-8.35683e-05
-0.000189821
0.000691303
-0.000487364
0.000119659
-0.000446854
-0.000306366
-0.000155214
0.000466069
0.000290144
-0.000141435
-1.62478e-05
-4.50793e-06
2.16764e-05
0.000225602
-0.000621765
0.000397516
0.000176653
0.000637789
-0.000439121
-0.000178999
0.000339127
3.58147e-05
2.93533e-06
-2.59932e-06
-6.97502e-08
-1.88029e-05
-1.04682e-06
2.6918e-05
0.000726004
-0.000515918
0.00013014
2.37911e-05
-0.000164586
-0.000174516
0.000339201
-0.000393687
0.000533453
-0.000139392
-0.000144518
0.000117275
-7.08541e-05
-0.000282913
4.73101e-05
0.000239558
0.000248971
0.00018395
-0.000432495
0.000110932
-0.00029187
1.18861e-05
0.000506431
-0.000515557
-0.000185497
-0.000399934
0.000515953
-0.000168878
-0.000346461
0.000265621
-0.000566471
-0.000258102
0.000403066
0.000142081
-0.000110409
0.000226452
-0.000110635
-0.000115816
-1.64225e-05
5.88361e-05
-1.30481e-05
0.000265798
-0.000594952
0.000346338
0.000514242
-0.000241214
-0.000272687
0.000146586
0.000510166
-0.000352025
0.000238703
0.000113334
0.000644275
-0.000597916
-4.4637e-05
-8.23162e-05
0.000148018
-6.57018e-05
-1.43377e-05
1.07769e-05
4.09039e-06
-0.00017424
0.000129949
4.42922e-05
-0.000578032
-0.000231706
0.000184852
-0.000534642
0.000349843
1.13725e-05
3.34517e-06
-1.3868e-05
1.66105e-05
5.45475e-05
-6.92039e-05
-5.55565e-05
0.000179865
-0.000123472
0.000789657
-0.000274728
-0.000513288
8.55941e-05
0.000102572
0.000415235
-0.000244446
-0.000141075
5.53654e-05
-0.000137681
0.000177418
0.000468197
0.00063888
0.000125672
-0.000182263
0.000104199
7.80661e-05
-0.000295426
0.000108142
0.00018733
-0.000173758
0.000100946
7.28128e-05
1.09901e-05
6.78296e-06
-1.11574e-05
-0.000549064
0.000371033
0.000178778
6.43951e-07
-1.91451e-06
8.3151e-05
-0.000117217
3.40664e-05
-4.70915e-07
1.23321e-05
0.000277479
-0.000518961
-0.000202245
-0.000373942
0.000576586
-0.00013482
-2.64863e-05
-4.87656e-05
0.000129034
0.000205846
-0.00033477
0.000689085
-0.000521972
-0.000166025
-0.000272814
-7.91985e-05
0.000516342
0.000122666
-7.14317e-05
6.65718e-05
-0.000255835
0.000537131
-0.000733795
0.000553837
0.000480925
-2.65595e-05
-0.000453311
8.00437e-06
-1.19889e-05
4.09384e-06
0.000226027
0.000288498
3.81976e-06
8.56751e-07
-9.38033e-05
0.000134215
-4.04111e-05
-0.000100993
0.000345029
-0.000157904
-0.000332729
0.000490675
0.000236189
0.00042045
-0.000653678
0.000623902
-0.000532321
-8.97293e-05
0.000130796
0.000416925
-0.000544191
6.86395e-05
0.000412594
-0.000587762
0.000631933
-3.94955e-05
0.000614374
-0.000459668
0.000268782
0.00019106
-0.000140821
0.0006805
-0.000538862
0.000203191
-0.000596423
0.000169311
-7.47825e-05
-0.000149344
5.55533e-05
9.37908e-05
0.000600125
-0.000427756
-0.000148989
-5.29509e-05
9.80408e-05
0.000579835
-0.000675634
0.000432731
-0.000714905
0.000282625
5.7043e-05
-0.000152171
9.79629e-05
-0.000100822
-0.00015134
0.000252184
0.000448117
-0.000433832
-3.34499e-06
-0.000579786
-2.53087e-05
-0.000525164
-7.84921e-05
-0.000103767
0.000223573
-0.000256611
3.49041e-05
0.000541566
-0.000407229
0.000517602
0.000333199
-0.000698511
0.00036617
-0.00022331
-0.000211516
0.000303738
-0.000625342
0.000147704
0.000222166
-1.26622e-06
1.27422e-05
-4.40114e-05
0.000150483
-0.000105407
-0.000178308
0.000111167
6.71417e-05
-0.000167399
9.0493e-05
8.56295e-06
-7.31257e-07
-9.78663e-06
4.67491e-06
5.81261e-06
-2.03049e-06
-1.16594e-07
2.78625e-06
-0.000200417
-0.000259069
0.000690597
-0.000257482
-0.00017657
-0.000545793
0.000722555
-0.000480726
0.000270373
0.00022054
-0.00032247
-4.94936e-05
0.000402487
0.000693878
-0.000359838
-2.12416e-06
5.31289e-06
-3.41239e-06
0.000166511
0.000156731
-0.000703884
3.89982e-05
0.000605905
2.19179e-05
-0.000236565
-0.000186177
0.000423124
7.47158e-06
-9.71861e-06
-0.000271095
0.000170297
0.00067215
-0.000604344
-6.65646e-05
0.000437767
-0.000408139
0.000217689
0.000126358
-0.000329166
4.59823e-05
-0.000139785
-0.000450906
-4.02865e-05
-0.000674618
0.000463652
-0.000173949
0.000126649
4.73008e-05
-0.000846225
0.000270095
0.000582939
-0.000511663
0.00071992
4.5823e-05
0.000134814
-0.000180635
-0.000188594
-0.000280519
-0.000438332
0.00027156
0.000167001
-0.000276782
0.000566542
-0.000600581
-0.000100087
-0.000194496
-0.000106292
0.000344612
0.000328721
-0.000396859
-0.000186361
0.000588038
-0.000135053
-3.26736e-05
0.000167731
-1.37335e-05
4.93907e-05
-3.38239e-05
0.000602646
2.26233e-05
-1.56818e-05
0.000153959
-0.000136321
-7.69938e-05
-0.000101312
-0.000115428
0.000249798
-0.000134341
0.000168965
0.000273833
-0.000137674
0.000355533
-0.000217681
-0.000489773
0.000133645
0.000385654
-3.35389e-05
-0.000115805
-0.000727886
0.000443444
0.000287964
-1.32676e-05
-2.50686e-06
2.12507e-05
-1.02761e-05
0.000449256
-0.000431019
0.000151073
-0.000266468
-0.00026574
-0.00028252
-0.000308526
0.000568281
-0.000257461
-0.000349521
-0.000187429
-0.000651073
0.000312123
-0.000703323
0.000153728
5.74276e-05
-0.000111981
-0.000116816
0.000111607
-0.00020773
9.61263e-05
-0.000741961
0.000275749
0.000468268
-0.000102587
-7.13602e-05
-0.000299207
0.000133758
0.000165469
0.000162719
0.000423604
-0.000174221
-0.00012859
0.000295152
7.33366e-05
0.000464522
-0.0005353
0.000719189
-0.000306397
-0.000411807
0.00026967
-9.73486e-05
-0.000172283
-0.000147273
0.000655849
-0.0001097
-0.000542104
0.000488435
-0.000695109
0.000206764
-0.000156816
9.54792e-05
6.13379e-05
-0.00018458
6.96998e-05
0.000102569
-0.000180474
7.91492e-05
0.000194512
-9.06345e-05
0.00018379
-0.000344326
0.000160596
-0.000594099
0.000287858
0.000428769
0.000291077
0.000113788
-3.06366e-05
9.88232e-05
0.000470203
0.000686572
-0.0001981
-0.000437461
0.000435153
-9.27712e-05
-0.000363993
5.50085e-06
-8.25884e-07
2.15402e-05
-4.48828e-06
0.000534009
-0.000157215
-0.000363493
-9.90607e-05
-5.77542e-05
-4.10584e-05
0.00034218
-0.000300595
0.000518556
0.000109329
-0.000617055
-0.000211736
-0.000226307
5.22298e-06
4.52344e-05
-4.86496e-05
4.16149e-05
0.000396197
8.09656e-05
0.000466486
-0.000546647
-0.000758084
7.42196e-05
9.18109e-05
-0.000204902
0.000628273
-9.93744e-05
0.000222577
0.000567659
0.000592281
-0.000382963
-0.000208394
-0.000554012
-0.000203819
-0.000778457
0.000318912
0.000472882
2.13528e-05
-5.16702e-07
0.000759732
-0.000581474
-0.000175107
-4.53312e-05
0.000142921
-9.75907e-05
-3.94845e-05
-0.00033562
0.00014113
0.000598151
9.05048e-05
0.000179197
7.25194e-05
0.000107824
-9.38041e-05
0.000187227
-9.2503e-05
-0.000194079
0.00010121
-0.000693422
0.000411424
0.000285398
-0.00012357
0.000299091
-0.000160152
8.02793e-05
5.35819e-05
-9.1455e-05
-0.000242
-0.000497749
-0.000320395
0.000182858
-0.000102544
0.000243477
-0.000120068
-0.000274876
0.000395352
-8.43818e-05
-8.93747e-05
9.76273e-05
-0.000172707
7.50814e-05
4.22193e-05
-3.56399e-05
0.000512563
0.000106597
0.000203421
-0.000114516
1.48511e-05
9.96653e-05
-0.000564247
0.000362419
9.23695e-05
-0.00022026
0.000191939
0.000570836
0.000262938
0.000330168
2.33383e-05
5.41754e-06
-1.92599e-05
-0.000155387
-0.000143795
-0.000179759
-6.84439e-05
0.000257631
-0.000497459
0.000274399
-0.000251832
-0.000437752
0.000199817
0.000475988
-0.000665436
-1.57517e-06
-0.000444229
0.00026623
-4.71329e-05
4.06788e-05
0.000154777
-0.00029497
0.00051936
-0.00068141
0.000162936
0.000138966
-0.000146644
7.67802e-06
0.000512947
-0.000768603
0.000258089
0.000164488
-0.000501085
0.000709469
-0.000206071
0.000434306
-0.000365408
0.000196077
-0.000634958
0.000440495
-0.000168535
0.000352391
-0.000212127
-0.0004606
-0.000164443
0.000109706
-2.40968e-05
1.48332e-05
-0.000157296
-0.000275832
-1.52333e-05
3.59405e-06
-0.000164802
-0.000158698
0.000323553
-0.000457333
0.000152458
0.000304849
0.000171175
0.000174871
-0.000345987
-0.00069988
0.000200965
0.000105427
0.000333183
-0.000494513
-0.00071419
-7.58175e-05
0.00030521
-0.000176089
-0.000300661
-0.000463875
-2.35207e-06
0.000437829
-9.24573e-07
-3.89024e-06
6.53652e-06
0.000172028
-0.000396503
0.000224544
0.000487672
-7.37631e-05
-0.000413011
0.000464091
-0.000256111
-0.000207741
8.22588e-05
-0.00013417
5.19108e-05
-0.000270274
0.00054137
3.85664e-05
-0.000132657
9.50262e-05
9.78165e-05
0.000390243
-0.000154556
-5.16533e-05
3.02196e-06
3.83856e-07
-0.000272246
-0.000229138
0.00050207
0.000373231
-1.30672e-05
0.000238075
-0.000160199
-4.17737e-05
0.000211727
0.000235275
-0.000663994
0.000434145
-0.000162676
-0.000329646
3.22821e-05
-0.0007746
0.000321245
0.000455255
-0.000167953
-0.000233315
0.000401252
-8.42894e-06
2.62878e-05
-6.01213e-05
0.000516715
-6.26551e-05
-7.29482e-05
0.000135603
0.000709223
-0.000119143
-6.05412e-06
-3.39032e-06
0.000221984
0.000272691
0.000152105
-0.000260945
0.000546246
0.00029225
-0.000198103
-8.30742e-05
-0.00069557
0.000582797
0.00011385
0.000696465
-0.000537052
-0.000155714
-8.99639e-06
0.000260966
-0.000525851
-0.000220376
8.53283e-05
0.00039165
0.000331608
-0.000224551
-0.000197008
0.000421918
0.000175371
-7.05404e-05
0.000694448
-4.6973e-05
-0.000644997
4.19339e-05
-0.000150621
0.00010949
1.10431e-05
7.19879e-06
-0.00015291
0.000625547
-0.000462994
-8.65558e-06
3.32499e-05
-7.81627e-06
0.000731401
-0.000225014
-0.000505678
0.000602281
-0.000692757
9.60632e-05
0.00052917
0.000203391
-0.000608144
0.000188924
3.34772e-05
-1.03071e-06
-0.000222354
0.000125092
9.72613e-05
0.000121889
-3.96301e-05
-0.000637403
0.000479127
0.000174423
-3.12625e-05
0.00072858
-0.000381137
0.000578721
-0.000464641
0.000439036
-7.27301e-05
0.000176801
0.000374226
-0.000428148
-0.000298388
0.000257839
0.000769709
-0.000437923
0.00017698
-0.000355443
0.00017858
-0.000478739
0.000694712
-0.000207018
4.80883e-05
-0.00011955
7.14622e-05
1.93997e-05
-6.64421e-06
-1.099e-05
-0.000110137
-1.80914e-06
0.000297985
0.000244156
-0.000541753
4.04124e-05
-2.94947e-05
0.000693954
-0.000722317
5.99905e-05
-0.000190347
0.000130359
-0.00016715
0.000444991
-0.000180183
-6.08537e-05
0.000241111
-3.01331e-05
0.000102067
0.000437513
0.000235803
-0.00067303
4.19854e-05
-8.05755e-05
0.000251204
-7.90396e-05
-0.000157076
0.000120952
-0.000353989
0.000248394
0.000173079
0.000495882
-0.000658118
-5.44267e-05
-6.00896e-05
0.000180759
0.000166226
-0.000346866
-0.000121497
0.000260205
-0.000138677
-9.73937e-05
-0.00011044
0.000207847
-0.000685635
8.14987e-06
1.30635e-06
0.00018835
-0.000251249
6.29164e-05
-0.000149547
-0.000307464
0.000575094
-0.00034826
0.00048145
-0.000213124
-0.000140415
-0.000322933
-0.000475448
-0.000223497
-6.95726e-05
-0.000104665
9.60343e-05
-8.73126e-05
3.41409e-05
-8.41657e-05
0.000132254
-0.000179545
0.000134898
9.15557e-05
0.00054068
0.000552359
0.00014385
-0.000179618
-0.000499228
-0.000100046
0.000139575
0.000601331
-0.000741234
0.000372299
0.0001437
0.000173187
-0.000361422
0.000188295
-0.000131397
0.000711376
-0.000205826
0.000379066
0.000146142
-0.000218383
7.22454e-05
8.34418e-06
1.29217e-05
-0.000143009
-0.000166772
0.00012697
-5.17573e-05
-7.52128e-05
-0.000200562
0.000623731
0.000471555
-0.000528869
7.95611e-05
-0.000383308
-0.000153875
0.000481327
-0.000576359
0.000106101
-0.00033462
0.00017013
0.000519293
-0.000688989
0.000170769
-0.000604402
0.000222801
0.000233484
-0.00040144
-9.16748e-05
-2.29671e-05
0.000131278
-0.000142791
8.01358e-05
0.000144117
-6.96625e-05
-7.44539e-05
-0.000192756
-0.000505067
0.000699508
-0.000488789
0.00033947
0.000213689
3.17985e-06
2.1714e-06
-5.16962e-06
0.000263581
1.11075e-05
-1.58974e-05
4.80726e-06
-4.75547e-05
0.000235918
-0.000112457
0.000562703
-0.000189807
-9.65027e-05
0.000286354
-0.000204629
5.54605e-06
0.000199098
-3.21958e-05
2.54052e-05
-0.000536097
-0.000165782
0.00070384
0.000699525
-0.000207983
-0.000491328
-0.00011411
-0.000230132
0.00012929
0.00016742
-0.000296651
-0.000104428
5.00015e-05
-0.000191032
0.000102515
8.85204e-05
0.000449512
0.00067897
-0.000468818
-0.000267069
-0.000259949
0.000527036
0.000143451
0.000136279
-0.000260842
0.000124589
-0.000362824
0.000243088
-0.000241116
0.000707131
6.46267e-06
0.000471576
-0.000520809
6.88416e-05
-0.000189333
-6.23053e-06
-2.46013e-05
0.000436633
-0.000634408
-1.68661e-05
1.32459e-05
0.000269069
-0.000184873
-6.32845e-05
-1.03932e-05
0.000156539
0.000158304
-0.000401631
-0.000295584
-2.54172e-05
2.04397e-05
-0.000179934
-0.000155681
0.000314571
-0.00048284
-0.000129997
0.000332033
-0.000187425
-3.43485e-05
-7.70448e-06
4.9731e-05
0.000143917
-8.41518e-05
-5.90438e-05
0.000104567
-0.000149899
0.000317167
-0.000475014
0.000502205
0.000208564
-7.36645e-05
-0.000240557
0.000678316
0.000479071
-0.000232624
-0.000245969
7.87923e-05
4.81779e-05
5.74326e-05
9.05858e-05
0.000521599
0.000137588
0.000445508
-0.000215131
4.16098e-06
-8.77933e-07
0.000128346
0.000327061
-0.000582672
0.000256343
0.00021929
-0.000108546
-0.000110737
-0.00047096
-0.000223842
-0.000304388
0.000114628
-0.000195961
0.000465586
-0.000268781
-0.00037449
0.00014792
0.000238168
0.000236585
0.000359978
-0.000595566
-0.000515709
0.000174881
0.000345501
-0.000235
5.48626e-05
-0.000173431
-0.000149967
0.000323492
-0.000436054
-0.00015088
-0.000473056
0.000750854
-0.000200286
5.02428e-05
0.000525137
-9.87412e-05
-0.00042562
-0.000114252
0.000285475
-0.000228465
-0.000523215
-0.000702086
0.000414309
0.000508842
-0.000427158
-0.00073917
0.000225714
0.000520268
-0.000185835
0.000178865
-0.000343609
-0.000255557
-3.98316e-05
0.000203429
-0.000604731
0.0004023
0.000242635
-0.000106332
-0.000138624
-0.000224326
-0.000692635
0.000281783
0.00041158
-0.000307932
0.000174633
3.39316e-05
-0.00077968
0.000208759
7.45241e-06
-2.94366e-05
3.45854e-05
-0.000172212
7.1978e-05
-0.000597548
-2.09731e-05
0.000621906
0.000130882
-5.83621e-05
-0.000108316
-4.08872e-05
0.000149204
-0.0001841
0.000103397
8.0704e-05
0.00052388
-0.000301796
-0.000230242
5.9554e-05
-7.07464e-05
7.68027e-06
1.01492e-06
0.000293978
-1.09905e-05
-0.000263322
-1.40859e-05
9.06131e-06
0.000239414
5.01441e-05
5.65277e-07
-3.42016e-06
2.93779e-06
0.000750924
-0.000235776
-0.000497562
-0.000196791
-4.83197e-06
-1.94341e-05
0.000215543
-0.000345634
0.000130124
0.000501544
0.000286712
-7.11435e-05
-0.000475878
0.000140554
0.000347272
-8.33431e-06
3.48863e-06
5.95933e-06
8.91384e-06
-1.52888e-05
1.00089e-05
-0.000382839
0.000254313
-0.00026999
0.000149151
0.000120851
-0.000357495
2.9282e-05
0.000328341
0.000500583
8.03655e-06
-1.23493e-07
-1.8277e-05
3.18662e-05
9.62462e-05
-6.39873e-05
-1.51384e-05
-0.000557726
0.000129459
0.00043578
-0.00018812
-5.30626e-05
0.000241193
0.000192444
0.000160691
-0.000353139
-0.000488461
-0.000243375
-2.19222e-05
1.82789e-05
0.000663378
-0.00047977
7.71921e-05
-0.000623644
0.000241343
0.000181711
-0.000422963
-5.47462e-05
0.000120352
-6.56057e-05
0.000541243
-0.000143201
-6.05909e-05
0.000203796
-0.000451533
0.000687637
-0.000239234
-0.00044934
0.000147108
-0.000268568
-1.16369e-05
0.000209341
0.000322444
-0.000342612
-0.000714567
0.000493036
-0.000508731
1.01357e-05
-0.000367486
-0.000186319
-0.000162231
-0.000472898
-0.000727331
4.48493e-06
-3.66967e-06
-0.000428935
0.000392203
-8.16763e-05
-5.2493e-05
-0.000411609
0.000121914
0.000296626
-0.000110743
0.000631292
-0.000516994
0.000477498
-0.000717348
8.33399e-05
0.000182524
-0.000235469
0.0007563
-6.13373e-05
0.000142011
-0.000285186
0.000143168
-0.000345331
0.000172001
0.000122568
-0.000273883
0.000185539
2.50553e-06
-1.27399e-05
-0.000136831
-0.000326529
-0.000118327
-0.000104027
-9.19599e-06
-0.000195419
0.000169967
0.00052012
-0.000144673
3.63579e-05
-0.00030846
0.000103142
0.000214236
8.37521e-05
-1.94674e-05
-2.24224e-05
-1.38402e-05
0.00044506
-0.000685432
-0.000122532
0.000206523
-8.39852e-05
-0.00013106
0.000637856
-0.00050481
0.000221502
-0.000696438
0.000480806
0.000149952
-0.000107194
-0.000639378
0.000475259
0.000165838
-7.6851e-06
1.96499e-05
6.81707e-05
-0.000155423
8.72522e-05
0.000669108
1.18234e-05
7.57819e-05
5.7906e-05
-0.000133687
2.84009e-05
-0.000739477
0.000258787
-0.000122219
6.33982e-05
5.88212e-05
-0.000107583
-2.60789e-06
0.000110191
-0.000237295
-1.48385e-05
-0.000328259
-0.000182423
-8.59118e-05
-8.043e-05
0.000166344
0.000669602
-4.41037e-05
-0.000119613
0.000421801
-0.000208839
-0.000212846
0.000205296
0.000259017
0.000661589
-0.00020838
-0.000451355
-9.85056e-05
0.00012513
-0.000444232
0.000321846
0.000119489
0.000331806
-0.000447318
-0.000215952
0.000102297
4.669e-05
-2.65531e-05
1.42769e-05
0.0001349
0.000565025
-0.000332051
0.000204092
0.000143379
-7.52081e-05
0.000270318
-0.0005751
0.000305432
-0.0002003
0.000260515
-0.000660029
0.000106483
4.49672e-05
-0.000237536
4.22714e-05
-3.78186e-05
9.15937e-05
-3.08479e-05
0.000540207
-8.00262e-06
-4.58199e-06
0.000616715
-0.000409464
-0.000194166
2.94869e-05
-0.000119664
0.000118277
0.000130171
4.64401e-06
0.000163359
2.66059e-05
-3.25297e-05
7.6149e-06
0.000700596
-0.000178972
-0.000520466
0.000203682
0.000485004
-6.33088e-05
-5.89104e-05
4.1272e-06
-4.22094e-06
2.37496e-06
-0.000180397
-0.000360733
0.000546124
-0.000269687
0.00024054
2.9209e-05
0.000419929
-0.000178502
0.000342489
-5.15848e-05
-0.000290281
-0.000104078
8.83021e-05
3.25532e-05
-0.000792541
9.51986e-05
-0.000248914
0.000105718
0.000603686
-8.90348e-05
0.000188901
-9.98634e-05
-1.71055e-06
-0.000426783
0.000101898
0.000200697
0.000145923
0.000248123
-0.000391785
-9.50454e-05
5.55386e-05
-0.000575544
-0.000215311
-0.000604778
0.000147317
0.000459141
2.11256e-05
-1.6886e-05
-0.000390499
0.000210502
-0.000438798
0.000228481
0.000529725
-3.0273e-05
-0.000498917
-0.000548959
-5.34779e-05
-0.000237356
0.000385554
-2.79356e-05
0.000161646
0.00034514
-0.00052067
0.000262766
-0.000273081
0.000161759
0.000296934
-0.000458292
-0.000348172
0.00017376
0.000219914
-0.000510615
-0.000219759
-0.000171081
0.000235205
-1.06935e-05
-0.000224464
-0.000165096
-0.000690408
0.000561527
-5.99234e-05
0.000278821
-0.000218887
-0.000221276
0.000123897
-0.000561549
0.000776338
0.00011507
-0.000176371
6.13023e-05
-0.000202455
-0.000489464
0.000114456
0.000130636
-0.000245083
0.000296574
-0.000154571
-0.000186114
0.000115046
7.10704e-05
-5.95667e-05
0.000283795
-0.000223318
0.000315942
-0.000548699
0.000233355
-0.000218968
0.00048212
-0.00072194
-0.000160197
7.8452e-05
-7.03328e-05
0.000183477
-0.000556312
0.000381147
1.12024e-05
1.2943e-05
-1.55032e-05
0.000375405
-0.000169439
1.31266e-05
-3.02933e-08
-1.29643e-05
-3.20021e-05
-8.83234e-06
4.24996e-05
-6.25288e-05
-5.71977e-05
0.000119726
-0.000217089
-8.24531e-05
0.00056285
0.00011127
-0.000661906
7.04307e-05
8.83818e-05
-0.000138416
5.00346e-05
0.000181917
4.49816e-06
6.0019e-05
0.000249837
0.00032121
-0.000382326
-2.33096e-05
-8.42737e-05
3.60476e-06
-0.000191714
-0.000140258
-0.000120553
0.000684961
-0.000521836
-0.000158594
-9.68793e-05
-0.000110847
-0.000320198
0.000206159
-0.000124729
-0.00014525
-0.000365017
0.000209442
0.000205032
-0.000416498
0.000551908
-0.000686544
0.000217116
0.000583274
-9.16613e-05
0.000345285
-0.000148322
-0.000196828
-5.65866e-05
7.14377e-05
-0.000409571
0.000604372
-0.000478974
7.49555e-05
-0.000150163
0.000233352
-0.000118889
7.26803e-05
7.14365e-05
0.000501575
-0.000629222
0.000140653
-0.000224392
0.000469527
-0.000244654
0.000187055
-0.000302523
0.000564335
0.000498422
-0.000605697
-3.8068e-05
-0.000226594
0.000264677
2.60467e-05
3.19098e-05
0.000102882
-0.000139261
3.63792e-05
6.04639e-06
-3.64043e-05
2.2262e-05
-0.000291881
-0.000395397
-7.17976e-05
0.000480523
-0.000275823
0.000408519
-0.000132601
0.00011659
0.000250043
-0.000473926
0.000111875
-0.000446687
0.000153686
0.000293227
0.000516152
6.75811e-05
3.01809e-05
1.82267e-05
0.000327548
0.000514935
-0.00022635
0.000656183
-0.000429058
0.000199211
-0.000678494
0.000482174
0.000105794
-1.7412e-05
-0.000117645
-3.16158e-05
-4.67965e-05
-0.000251105
0.000288084
-0.000730697
0.000449638
1.26597e-05
0.000117291
9.04394e-05
-0.000132148
6.88396e-05
0.000227235
-0.00028591
-0.000759498
0.000353536
0.000671391
-0.000243004
-0.00041935
0.00013255
-5.67672e-05
0.000103223
-2.51341e-05
-0.000639423
-1.37853e-05
0.000135709
-6.50564e-05
-7.06529e-05
0.000345958
0.000157479
-0.000490706
-0.000678698
0.000438782
0.000242279
0.000172903
-0.000188071
0.000503357
-0.000136217
0.000306436
-0.000170215
-0.000488591
-0.000216031
0.000712893
4.91984e-05
1.46966e-05
-0.000554909
0.000298717
0.000256132
0.000139078
-8.37121e-05
-0.000141464
0.000308938
-0.000151998
-0.00045103
-0.000151034
0.000648287
-0.000492503
-0.000293905
0.00024756
7.08638e-05
8.24352e-05
-0.000153299
0.000290954
-5.56918e-05
-5.56076e-06
3.39686e-05
0.000473249
-0.00015677
8.65836e-05
0.000183489
-0.000254504
2.61397e-05
5.28547e-05
0.00020897
-1.31421e-05
-1.72873e-05
7.29123e-06
-0.000174061
-0.000196587
0.000370708
0.000435541
-0.000436689
-6.48164e-05
0.000638855
0.000521672
0.00024194
-0.000569012
3.55781e-05
9.95028e-05
-0.000135081
-0.000116229
0.000176221
-0.000565372
0.0002939
-0.000233434
0.00017352
-0.000471529
8.96116e-05
0.000297107
-0.00052554
-0.00058092
0.000346514
-0.00018208
0.00028441
0.00077971
-0.000216224
-0.000554693
0.000594364
-0.000647441
5.25158e-05
-0.00012867
7.61541e-05
0.000567408
-7.42791e-05
0.000369345
-0.000359066
-0.000127119
0.000641263
-0.000485877
1.62907e-05
0.000106305
-2.5538e-05
-8.0767e-05
8.04848e-05
-3.18608e-05
-0.000518438
0.000251395
0.000399198
0.000130971
0.00018178
-9.1641e-06
-0.000172605
-0.000147186
0.000418077
-0.000229288
0.000493635
-0.000263783
0.000101799
0.000417506
-0.000515404
0.000154184
-0.000675102
0.000284394
0.00071612
-0.000159941
-0.000555784
-5.95793e-05
-6.3878e-05
0.000123457
0.000394072
7.3692e-05
-0.000467386
-3.07467e-05
-0.000179798
-0.000593554
-0.000195336
-0.000251063
-0.000211233
0.000142605
-6.0127e-05
-2.98663e-05
0.000259315
-0.000302552
4.32267e-05
0.000322377
-0.00044678
0.000498457
-0.000244233
0.000141686
0.000178609
-5.72444e-05
-0.000118904
6.26426e-05
0.000227522
0.000130896
0.000352976
0.000175313
0.00032718
-6.30515e-05
0.000413376
1.46773e-05
-6.87852e-06
-7.52212e-06
-0.000199224
-0.000509265
-0.000123608
-9.23346e-05
-0.000328688
0.000498522
0.000214451
-0.000210835
-7.6455e-05
0.000147319
-0.000286982
0.000556675
-0.000269242
-0.000144893
-0.000140298
-0.000200647
-4.04069e-05
2.46141e-05
0.00016778
-1.20273e-05
-0.000110391
0.000602566
-0.000166736
0.000209941
0.000122101
-0.000331978
0.000649477
-0.000437399
-0.000207679
0.0003254
7.13143e-05
-0.000388393
0.000679667
-0.000452548
-1.22096e-05
4.76734e-06
-7.00163e-05
-0.000171332
0.000363764
0.000458753
-9.98674e-05
0.000192241
-0.000239975
9.39009e-05
0.000146084
6.70905e-05
0.000419076
-0.000615369
0.000448548
0.000167596
-0.000448224
0.000252961
-0.000473397
0.000320947
-8.88046e-05
-0.000232092
0.000530052
0.000172123
-0.000700367
-0.000199529
-0.000273917
0.000474021
-0.00015155
0.000220421
-0.000140817
-5.61271e-05
0.000292614
-0.000480029
-6.28403e-05
0.000150764
-8.79234e-05
0.000133738
-0.000146384
2.33849e-05
-0.000230963
0.000163932
-0.000390144
-0.000184058
-0.000475885
-0.000161755
5.42279e-06
9.55537e-06
0.000196648
0.000108067
-0.000295891
-2.8189e-05
0.000283911
-0.000255684
0.000469259
-0.000670968
0.000185931
-0.00011955
-0.000284787
0.000428923
-0.000572552
0.000160878
-0.000511834
-0.000201123
-0.000395849
0.000690425
-0.00021471
-4.3328e-05
-0.000249961
-0.000428889
0.000640364
-0.000211284
0.000255322
-0.000121151
-0.000134151
0.000336989
9.05985e-05
-0.000427476
-1.17286e-05
3.06922e-05
0.000664471
-0.000142854
-0.00051014
0.000264281
-0.00060785
0.000344327
-0.000726933
0.000682533
0.000240321
-0.000552926
0.000314049
0.000146069
3.11039e-05
0.000363272
0.000207004
0.000446652
0.00049425
-0.000640487
0.000396971
-0.000189092
-0.0002079
0.000387497
-5.45301e-05
-7.05513e-05
-7.6092e-05
-7.88986e-05
-0.000108842
0.00018775
-0.000655629
1.60275e-05
-0.000136492
-9.07854e-05
0.000227299
6.22083e-05
5.84326e-05
-2.18099e-05
0.000109613
-8.53413e-05
-0.000761532