/*--------------------------------*- C++ -*----------------------------------*\
| =========                 |                                                 |
| \\      /  F ield         | OpenFOAM: The Open Source CFD Toolbox           |
|  \\    /   O peration     | Version:  v2012                                 |
|   \\  /    A nd           | Website:  www.openfoam.com                      |
|    \\/     M anipulation  |                                                 |
\*---------------------------------------------------------------------------*/
FoamFile
{
    version     2.0;
    format      ascii;
    class       volScalarField;
    location    "900";
    object      p;
}
// * * * * * * * * * * * * * * * * * * * * * * * * * * * * * * * * * * * * * //

dimensions      [0 2 -2 0 0 0 0];


internalField   nonuniform List<scalar> 
13917
(
-0.0921415
-0.00659205
-0.0990922
-0.04342
0.0260009
0.455953
-0.0888374
-0.111187
-0.21381
-0.146098
-0.105878
-0.0811443
-0.0439295
-0.123475
0.042805
0.0195739
5.76178e-05
-0.135458
-0.0802121
0.00693576
0.0180238
-0.0841831
0.0122449
-0.116707
0.0242457
-0.0775318
0.215842
0.227332
0.0865636
-0.203722
-0.107382
-0.049814
0.169342
0.108837
0.0294593
-0.0954539
0.0123005
-0.126804
-0.0501129
-0.0667636
-0.00414588
0.0164621
-0.0157317
0.252737
-0.0276034
0.125275
-0.13269
-0.136361
0.50708
0.00127301
-0.0743395
0.0567416
0.510308
0.112976
0.00149081
-0.0747054
-0.107152
0.0224519
-0.0598428
-0.0262832
-0.395889
-0.00821501
-0.12177
0.0070796
0.44665
-0.396014
0.027599
0.0350021
-0.153663
-0.0572979
0.0255124
-0.212973
-0.239372
0.0234964
0.492814
-0.0740667
-0.199149
-0.0422243
-0.073072
0.0177082
0.0142226
0.0270497
0.431652
-0.128134
-0.414554
-0.0412301
0.0118834
-0.355478
-0.0725359
-0.0160752
-0.202795
-0.185398
-0.0120834
0.0449043
-0.388625
0.449228
-0.124615
-0.137053
-0.079655
0.328167
-0.00585321
0.166682
0.261621
-0.0498682
-0.00875543
-0.224346
0.0563489
-0.139302
-0.00188495
-0.109233
-0.339134
-0.0671812
-0.082946
-0.220931
0.073449
0.512632
0.0144352
0.497351
-0.0828046
0.111377
0.0165487
-0.154448
-0.0925463
0.221179
-0.000456218
0.0434969
-0.0226483
-0.000196748
-0.013647
0.456609
-0.0911648
0.0711693
-0.027821
0.0183789
-0.280637
-0.113117
-0.0894515
0.342709
0.0278473
0.110683
-0.0995782
-0.0163295
0.0590421
0.287667
0.0355577
-0.207096
0.0272798
0.0548893
-0.0157268
-0.0448814
-0.10786
0.508135
-0.102606
-0.0243742
-0.066165
-0.422122
-0.0523132
-0.13601
-0.199543
-0.289846
0.0792528
0.216216
0.0150182
-0.122552
-0.0835315
-0.080236
-0.0489076
-0.121331
-0.0216704
0.172218
-0.0449579
-0.364373
-0.0806701
0.00285541
-0.178979
-0.0173469
-0.0886773
0.504514
-0.200999
0.000651909
-0.191412
-0.113173
-0.0169408
0.0121568
0.0754438
-0.0800029
-0.287475
-0.418736
-0.108791
-0.0866721
-0.117124
-0.414581
-0.284867
0.016441
0.361004
0.207724
-0.00818182
-0.0120572
0.038433
-0.357481
-0.0645118
0.00158363
-0.113822
-0.106079
-0.237809
-0.239438
0.0292029
0.0233128
-0.134007
-0.0848
0.0568863
-0.090949
-0.238872
-0.0875521
-0.00833914
0.311056
-0.125341
-0.323867
0.0116536
-0.388564
0.000854587
-0.192893
-0.00367285
-0.141413
-0.231079
0.0186786
-0.304271
-0.0693895
-0.0077086
-0.0946838
-0.0796724
-0.107177
-0.100944
-0.240858
-0.00769055
-0.0532436
-0.204062
-0.421821
0.0155121
0.00185771
-0.0674024
-0.130655
0.00490702
-0.0909131
-0.176328
0.208845
-0.087888
0.0146455
0.0177149
-0.223965
-0.0312757
-0.213518
0.343091
-0.0225777
0.0231988
-0.0971589
-0.068012
-0.101729
0.0739832
0.0391084
0.00521759
-0.0912435
-0.296888
-0.0824015
-0.0071499
-0.271171
-0.131882
-0.137846
-0.0693448
-0.0745634
0.0146765
-0.00163629
-0.131877
-0.161089
-0.163734
-0.0581234
-0.242315
-0.0661429
-0.0136059
-0.335464
0.00569699
-0.17575
-0.0626897
0.004851
0.0125267
-0.0191271
0.216395
-0.0917555
0.0106131
-0.0333857
-0.273223
-0.100924
-0.291331
0.0119874
-0.149435
0.024521
-0.0334513
0.0140449
-0.0065732
0.00331372
-0.198562
-0.0830411
-0.0214477
-0.113889
-0.0243093
0.514828
-0.0155602
-0.178671
-0.0212255
0.0224173
-0.344609
-0.0991375
0.0140555
-0.00254665
-0.342224
-0.00351365
-0.236871
-0.0204346
-0.143445
-0.0363103
-0.269385
-0.0912816
0.473121
0.075563
-0.283204
0.345707
0.0102246
-0.13307
-0.0776009
0.0217446
-0.102579
0.357331
-0.133399
0.0978029
-0.0707976
-0.0597083
-0.38178
0.34173
0.0311881
0.0190972
-0.0981737
0.0190782
-0.0515896
-0.340334
0.0372675
0.0138676
-0.124635
0.0327579
-0.00231214
-0.117299
0.122461
-0.00399259
-0.0819877
-0.104275
0.00579996
-0.000510307
0.0244135
-0.0161453
-0.267499
-0.19289
0.410779
-0.346743
0.0196665
-0.220946
-0.416948
-0.103035
-0.0888407
-0.163149
-0.227858
-0.00819156
-0.0821953
-0.00221215
-0.387476
-0.0253129
0.462837
-0.179716
-0.0529349
0.0195033
-0.131079
-0.198393
-0.154353
-0.0982202
-0.379773
-0.324788
0.0117842
-0.138316
0.00203511
-0.422771
-0.0830105
0.017643
-0.278892
0.0240103
-0.232245
-0.0363987
0.0190557
-0.0193568
-0.0704882
-0.0174972
-0.0692952
-0.406654
-0.0987871
0.380617
0.01981
0.328193
0.362696
0.0102091
0.0630693
0.0357761
0.0253099
-0.202514
0.00530596
0.0258919
-0.00256553
-0.262813
0.0176904
-0.0716696
-0.0701125
-0.408229
-0.280649
-0.0701943
-0.305359
-0.100873
0.0191554
-0.218071
-0.0499077
-0.0588031
0.0164662
-0.194541
-0.0857909
-0.072665
0.0314172
-0.180994
0.0946786
-0.0512026
-0.151978
-0.00443713
-0.0807012
-0.00305111
0.00339805
-0.238203
-0.0883213
-0.0872831
-0.203974
-0.408692
-0.103096
-0.304743
-0.17302
-0.0128694
-0.133496
-0.00639473
0.0260387
-0.241205
-0.134165
-0.015182
-0.156716
-0.102094
-0.163261
0.0100739
-0.14206
-0.405938
-0.302981
-0.0743949
0.0180972
0.0189294
-0.00852165
-0.0468468
-0.00825811
-0.0763417
0.41795
0.00868468
-0.422639
-0.0738515
-0.120341
-0.305825
0.0186079
-0.0974638
-0.100778
-0.141515
-0.155411
-0.20423
-0.083543
-0.0905847
0.444911
-0.0788376
-0.138052
-0.010913
-0.267958
-0.0777634
-0.0225624
-0.0419378
-0.0445585
-0.167435
-0.225
-0.00299124
-0.0134659
-0.0831335
-0.306166
0.00510244
-0.0734537
-0.0457768
-0.262491
-0.00183268
-0.255314
-0.182709
-0.0478161
-0.0244413
-0.0699632
-0.276753
-0.42416
0.00544788
-0.23299
0.511218
-0.345524
-0.0226478
-0.417051
-0.291513
-0.100748
-0.00117814
0.00679372
-0.0719696
-0.234011
-0.0153152
-0.0002558
-0.000104225
-0.000398995
-0.269737
-0.2443
-0.100189
-0.283796
-0.00186931
-0.00545867
-0.176718
-0.261411
-0.0979583
-0.022697
0.0247563
0.0305922
-0.340513
-0.412831
0.0101998
0.0300635
-0.0819176
-0.0841826
-0.0902133
0.0201954
-0.0148554
-0.0326524
-0.135197
-0.0583467
-0.29114
-0.219791
-0.160738
-0.236122
-0.177074
0.0132339
-0.226829
0.0303171
0.0129834
-0.0550127
-0.264347
-0.0176356
-0.00543657
-0.300326
-0.214037
-0.401845
-0.16274
0.117381
-0.104623
0.0197875
-0.293437
-0.282702
-0.108117
-0.00256191
-0.0860187
-0.288415
-0.165651
-0.271946
-0.139964
-0.213073
0.0237958
-0.0440026
0.0214621
0.0967009
0.280573
0.0493969
-0.122446
0.346555
-0.108931
-0.424525
-0.0178872
-0.118442
-0.180416
0.00713567
0.0530061
0.348855
-0.246789
-0.186276
-0.276815
-0.0135013
-0.0835197
-0.0728117
-0.00544822
-0.0852943
-0.117836
0.1613
-0.199161
-0.0723062
-0.200254
-0.0796037
-0.29035
-0.0466472
-0.17481
0.0159318
0.010396
-0.146888
-0.244001
0.420494
-0.0471968
0.00128943
0.0295448
-0.0674537
0.502789
-0.0799988
-0.0463968
-0.0974028
-0.128232
-0.00135544
-0.288695
-0.0789643
-0.076312
0.00926749
-0.194641
-0.0437683
-0.406153
-0.151989
-0.0260281
-0.0872263
-0.00303358
-0.0207304
-0.0237992
-0.011957
0.126441
-0.270874
0.0894576
-0.121598
-0.00352103
-0.205263
0.414188
-0.101116
-0.0306802
0.117002
0.000387391
-0.0641784
-0.0622612
-0.293735
0.0181829
-0.337315
-0.0655065
-0.104057
-0.184181
-0.247905
-0.0488713
0.00725146
-0.172008
-0.272994
0.00940828
-0.0539445
-0.19697
-0.270192
-0.160172
0.00493222
-0.0257335
-0.25166
-0.0535709
-0.154392
-0.09649
-0.0212801
-0.103657
-0.103997
-0.0301946
-0.0415243
0.000558172
-0.0966123
0.0188466
0.0315386
-0.368201
0.0231182
-0.242637
-0.0649526
0.173236
0.000241625
-0.0291691
0.014476
-0.153754
-0.0028467
-0.105956
-0.0454851
-0.399149
0.191387
-0.263994
-0.00762027
0.0194877
-0.170194
-0.124545
-0.118012
-0.241214
-0.137387
0.0278471
-0.257382
0.43827
-0.0767791
-0.266047
-0.126562
-0.0723943
-0.0826369
-0.0655743
-0.214143
0.060038
-0.135326
0.433483
-0.136027
-0.0469679
-0.119632
0.0058036
-0.0251958
-0.0639736
-0.110573
-0.0402816
0.0168671
-0.0022278
-0.125108
-0.0513084
-0.1576
0.0271001
0.0252494
0.0191644
-0.00988641
-0.0178264
-0.0373043
0.00119476
-0.25596
-0.0781901
0.374432
-0.00701063
0.0119385
0.188496
-0.159474
0.0685709
-0.337583
-0.148815
-0.381069
-0.065516
-0.189272
-0.0403
0.0157449
-0.000773329
-0.0224829
-0.392888
0.0115919
-0.237617
-0.0382973
-0.418283
0.0240305
-0.156353
-0.102922
-0.0149522
0.00500116
-0.0794192
0.0345113
0.0332987
-0.326109
0.00177094
0.0241858
-0.0756747
0.00085021
-0.01242
-0.0469773
0.131932
-0.116901
-0.0748871
-0.0301718
-0.00458503
-0.16675
-0.00218126
0.0144251
-0.00364316
-0.329987
-0.188686
-0.342481
0.110956
-0.0479171
-0.00725871
-0.0125976
-0.0804388
-0.0798022
-0.12508
0.101283
-0.10473
-0.0150755
0.053174
-0.344574
0.0244669
-0.0788922
0.0105309
0.00294775
-0.10312
0.223652
-0.0374751
-0.233382
-0.0680181
-0.188177
0.0128605
-0.0190042
-0.0849005
-0.242478
0.00556466
-0.22476
-0.0186417
-0.105948
-0.0256499
-0.0259838
-0.23965
-0.0297315
-0.0720814
-0.109591
0.0198603
-0.01519
0.0414654
0.00242534
-0.0411344
0.242067
-0.0292472
-0.0224623
-0.178733
-0.20226
-0.0810391
-0.118483
-0.145935
-0.0655091
-0.0159678
0.128504
-0.234407
-0.116898
0.0217447
-0.0231436
-0.235852
-0.105272
-0.34981
0.0195773
0.0707418
-0.0994891
-0.0967718
-0.0396221
-0.409218
0.469497
0.00186453
-0.209163
-0.00107984
-0.0287331
-0.00722286
-0.269021
-0.017558
-0.029196
-0.0165871
-0.071029
-0.0496214
-0.266969
0.273432
-0.026538
0.165706
0.00950223
-0.348923
0.00369116
-0.0297963
0.0238846
-0.0856547
0.0241441
-0.198897
-0.0680543
-0.0997638
0.112985
-0.105906
-0.371957
0.0209354
-0.0837838
-0.405332
-0.370314
-0.0705025
-0.176539
-0.410949
-0.201563
0.00492803
-0.0726048
-0.0960778
-0.0854865
-0.0220453
-0.0130846
0.0128147
0.0097365
-0.0706903
0.120088
-0.102856
-0.0131536
0.0284828
-0.422163
-0.0586941
0.0413553
0.193091
-0.08388
-0.033885
0.128822
0.197569
0.0668337
-0.0500839
-0.0672485
-0.34735
0.496331
-0.025343
-0.273654
-0.209297
-0.405105
-0.234412
-0.0777533
-0.00304857
-0.0412388
-0.0135862
-0.0153313
-0.0128933
-0.0128263
-0.0345888
-0.0784139
-0.421805
-0.14662
-0.0296329
-0.184987
-0.298751
-0.0986226
0.0485516
-0.184085
-0.0203533
0.0323795
0.185759
-0.423077
0.0245981
0.0100457
-0.0927984
-0.107714
-0.171767
-0.162419
-0.0976165
0.00452098
-0.215337
0.0493167
0.00743764
0.0518818
-0.0760495
-0.341966
-0.0236519
-0.0155646
0.0106843
-0.192869
-0.00880323
-0.0874615
0.0336298
-0.00146297
-0.21472
-0.0271117
-0.157223
-0.17166
-0.0847622
-0.0213849
-0.0887595
-0.0179449
-0.253282
-0.295352
0.0250025
-0.342292
-0.149103
0.474075
0.0244278
-0.0707149
0.0232934
-0.0729066
-0.0921453
-0.163836
-0.0840323
-0.0765111
-0.0776247
-0.255006
-0.0037876
-0.204322
-0.0260366
0.00301401
-0.0976012
0.0253738
0.0232067
-0.0242431
-0.0319885
-0.420341
-0.0139963
0.0126325
-0.105659
-0.126744
-0.117023
0.441404
-0.0765313
-0.401658
-0.0708065
-0.102962
-0.0642091
-0.174671
-0.0827756
-0.405137
-0.0742897
-0.0632263
-0.0273924
-0.0694833
-0.0765337
0.0541422
-0.185531
-0.100538
-0.0379261
-0.0721066
-0.033066
-0.0943314
0.00591132
-0.123935
0.301968
-0.00159942
-0.155936
-0.0242282
0.0216318
-0.00305447
0.114162
-0.136341
-0.0526597
-0.0345252
-0.0235253
0.287741
-0.167669
-0.234192
0.0257218
-0.0116297
-0.124631
0.0116858
-0.192073
-0.169911
-0.0378123
-0.177498
-0.0237804
-0.375006
0.0522837
-0.0776093
-0.126792
-0.19789
0.0062478
0.00698564
-0.0669203
0.00707762
0.00146924
-0.4037
-0.27035
0.0909583
-0.0761504
0.00650958
-0.0343892
-0.0783619
-0.024036
-0.0146451
-0.166578
-0.025379
-0.152223
0.0141949
-0.014103
0.0163685
-0.0771868
-0.0747055
0.035662
0.025047
0.00486179
0.0352976
0.002804
0.421897
-0.151961
0.00572597
-0.188936
0.0151553
-0.209107
-0.102375
0.392446
-0.0230903
0.0463997
0.0122297
0.0701138
0.047672
-0.0761745
-0.360189
0.0728187
-0.095637
0.488294
-0.121863
-0.0763195
-0.0418749
0.42951
-0.0845182
0.0130811
-0.33793
-0.12691
-0.0862614
0.0277542
-0.168763
0.221052
-0.0221758
-0.0510673
-0.407833
-0.0296857
-0.00368178
-0.0377231
-0.197139
-0.0836255
-0.147366
-0.00623245
-0.25491
-0.069143
-0.0741402
-0.19628
-0.277971
-0.0810674
-0.0229775
-0.00113066
-0.0984502
0.0115903
0.0698774
-0.0105862
-0.0171639
-0.015973
0.0785717
-0.0897857
0.448668
0.125426
0.265265
-0.071409
-0.0728185
-0.0185726
-0.186065
-0.0739027
-0.0154212
0.000815816
-0.0895857
-0.393953
0.0228125
-0.16013
-0.159392
-0.0835724
0.0369536
-0.0461737
-0.0268093
-0.187766
-0.0229966
0.00088508
-0.398937
-0.0723535
0.013844
-0.228318
-0.0855565
-0.373265
0.0206267
-0.0673824
-0.0782635
-0.220006
-0.0787116
0.242464
-0.0557902
0.0154678
-0.0305452
-0.00888096
0.0314456
0.0605194
-0.0507479
0.00774644
-0.109594
0.0011376
-0.0782374
-0.0252628
-0.157004
-0.0958416
-0.324787
0.0203232
-0.28137
-0.0303136
-0.085372
0.0244151
0.107939
0.0214582
-0.127402
-0.249696
-0.0799416
0.00695699
-0.149443
0.00425292
-0.0609155
-0.249295
-0.0271333
0.0530048
-0.122404
-0.0851761
-0.0927588
0.0084709
0.0292691
-0.0424876
0.0164618
0.125332
0.0031271
-0.00877748
0.0665657
-0.222371
-0.0417382
-0.124696
-0.189405
-0.137952
-0.0745845
-0.0392578
-0.00856635
0.03532
-0.279058
-0.0458549
-0.0235743
-0.0942468
-0.339113
0.000443545
-0.406915
-0.159012
-0.158086
-0.0155484
-0.014591
-0.0772635
0.0515634
0.0204627
0.172678
-0.021415
0.0805794
-0.0662629
-0.0988
0.434714
-0.085125
-0.0504491
-0.108166
-0.0724234
-0.0664822
-0.0817769
0.173275
-0.402694
-0.112578
-0.41042
0.0870499
-0.382487
-0.406737
-0.0230018
0.00621516
0.00314525
-0.0418937
-0.11911
-0.0257806
0.0881582
-0.0759187
-0.0470569
0.0733229
-0.205969
0.125922
-0.058606
-0.207177
-0.0389523
-0.0747146
-0.054551
0.106634
-0.000935348
-0.261203
-0.357692
0.00320385
-0.0436382
-0.0702424
0.12347
-0.422295
0.00216049
-0.0260933
-0.106674
-0.0445511
0.154354
-0.406411
0.0289784
-0.145023
-0.0626437
-0.0149791
-0.00301873
-0.0720472
-0.375904
-0.0203412
-0.0533516
0.0249676
-0.036927
0.18648
-0.178029
0.045671
0.412906
-0.144395
-0.075295
-0.220567
-0.0436529
-0.0765261
0.0871194
0.117576
0.0244955
-0.0966761
-0.182163
0.0635648
0.179655
-0.116577
0.441168
0.418816
0.105225
0.0233933
0.0229953
0.030308
-0.358964
-0.122462
-0.0551355
-0.0447565
-0.0555433
0.0144702
0.0114978
0.0338649
-0.108545
-0.0680114
-0.183397
0.129886
-0.40792
-0.0691879
0.0291292
-0.124507
-0.00629221
0.00370814
-0.258817
-0.00508441
-0.0102295
-0.117067
-0.159038
0.260007
-0.0711361
-0.10868
-0.0195274
-0.129606
-0.0155601
-0.0346158
0.066819
0.0205413
-0.0309926
-0.159862
-0.281952
-0.0254972
-0.0745801
-0.0101626
-0.0232318
-0.0104703
0.435827
-0.0544805
-0.0536584
-0.415109
-0.0260304
-0.127394
-0.0707256
0.00506085
0.124353
0.00185655
-0.0685719
-0.161305
0.0352043
-0.0736524
-0.130333
0.240749
0.014787
-0.352904
0.0910798
0.406421
-0.0418817
0.149235
-0.281082
-0.0227602
0.317867
0.034474
-0.158727
0.208894
0.0049023
-0.420817
0.0228204
-0.155846
-0.149595
0.340647
0.0194449
0.0687402
0.0446218
-0.115134
0.0588592
-0.0719696
0.0821785
-0.097566
-0.0191469
-0.114148
0.0345799
-0.0712591
-0.0910833
-0.000900794
-0.00983839
0.485711
-0.0441532
-0.0703051
-0.0350732
-0.0769723
-0.0747512
-0.0719145
0.0110167
0.00468224
0.0260467
-0.0131669
-0.188
0.0418903
0.20051
-0.0393935
0.00531776
-0.247986
-0.0541342
-0.0667621
-0.0731356
0.0331039
-0.404691
-0.119692
-0.0620389
0.498248
-0.189423
-0.279958
-0.0839473
-0.355674
-0.000465904
-0.173156
-0.399062
0.441795
0.00880795
0.0509729
-0.109348
-0.0750602
-0.0724871
-0.313219
-0.0345424
0.114808
-0.114303
-0.0719753
-0.407173
-0.0963563
-0.133305
-0.0082097
-0.162775
-0.0768161
0.00902592
-0.201481
-0.330102
0.0246066
-0.153965
0.0100719
-0.0281958
-0.144198
-0.183461
-0.00415551
-0.0354149
-0.0281242
-0.0250455
-0.0466861
-0.166115
-0.0461229
0.00548556
0.00742703
-0.0807129
-0.0625248
-0.0573188
-0.273208
0.0303866
-0.208446
-0.415411
-0.145295
0.104855
-0.14238
-0.165189
-0.0977725
-0.0760549
-0.129692
-0.370158
0.000788206
-0.340006
-0.0718113
-0.00801831
0.0156343
-0.204571
-0.368825
-0.374903
-0.0268732
0.00670938
-0.085411
-0.354135
-0.366072
-0.0347553
0.0864552
0.502245
0.0260352
-0.0993373
-0.421335
-0.103666
-0.353356
0.0374266
0.00539779
-0.00276297
0.10593
-0.104277
-0.0926735
-0.0623237
0.066472
-0.100456
-0.374822
-0.0795647
-0.230704
-0.421862
-0.0808184
0.451267
0.0256469
0.00814568
-0.0780477
-0.0137549
-0.0219713
0.0211266
0.518009
-0.107912
-0.419924
-0.215799
0.0192857
-0.242338
-0.107577
-0.0150778
-0.424366
0.219131
0.103997
-0.0348965
-0.406808
-0.333067
0.0234825
-0.312427
-0.139194
-0.410179
-0.354911
-0.164404
0.00390622
-0.036644
-0.289811
-0.0637511
-0.0851594
-0.114533
-0.36178
-0.169065
0.0637245
0.0708983
-0.000372219
0.0500871
-0.387821
-0.0747751
0.030076
-0.423813
-0.0985461
0.00812084
0.0696547
0.00455763
-0.189942
-0.0267401
0.502783
0.0916276
0.00197495
-0.00356403
0.327591
-0.18129
-0.112887
-0.0114923
-0.117236
0.0343678
-0.0452826
-0.0748862
-0.361305
-0.0753491
-0.352461
-0.010903
-0.00351594
0.00480109
-0.0781283
-0.00209456
0.00287237
-0.158455
-0.118668
-0.129169
-0.0224265
-0.31446
-0.0740825
0.00506067
-0.383263
-0.138447
-0.0827207
0.476387
0.00344435
-0.423151
0.0837202
0.0474906
0.0799087
-0.0136216
-0.0886519
-0.00711965
-0.0414158
0.154274
-0.0684723
-0.0757389
0.0103854
0.00105328
-0.0397131
-0.0202561
-0.199905
0.0553262
-0.18252
-0.053712
-0.178869
-0.0430995
-0.104738
-0.0113903
-0.270813
-0.0325619
-0.0143479
-0.413785
0.32282
0.350111
-0.0999901
0.160851
-0.111196
0.0330189
-0.323725
0.0306341
-0.0014415
0.329183
-0.0758626
-0.420944
-0.395205
-0.189642
-0.289067
-0.214959
-0.306666
-0.0151399
-0.0634243
-0.0769463
-0.235632
0.10141
-0.287937
-0.0882032
-0.0363677
0.0416134
0.0121152
-0.296452
0.457442
-0.0517418
0.0158876
0.0208492
-0.0611024
-0.110271
-0.285448
-0.142889
0.00467946
0.39385
-0.189078
-0.241429
-0.16007
-0.00881256
-0.0482964
-0.24076
-0.00277298
-0.187978
-0.090599
0.028384
-0.0382616
-0.163981
0.342701
0.0499224
-0.105039
-0.0543497
-0.202081
-0.0688244
0.0521559
-0.0456035
-0.338531
-0.00360365
0.0625793
0.502293
-0.383816
-0.136164
-0.163059
-0.0636252
0.10642
0.0224015
-0.38806
-0.0716095
-0.031072
-0.0884078
0.00622574
0.00605336
0.516745
0.0241666
0.00424253
0.0149074
-0.128582
0.0532571
-0.0581736
-0.110517
-0.268313
-0.208903
0.023049
-0.0329314
0.218824
-0.263705
-0.188038
0.126129
-0.183906
-0.10258
-0.309566
0.00607505
-0.320415
-0.0746072
0.00574248
-0.0519423
-0.0134004
0.435936
-0.208873
-0.0339372
0.495142
-0.267644
-0.00634834
0.0513649
-0.0705861
-0.0878325
-0.0770692
-0.0143618
-0.381341
-0.0694057
0.444198
0.0152925
-0.229947
-0.0756935
0.135981
-0.375105
-0.0715624
-0.0130873
-0.087139
-0.255474
-0.0948564
-0.0722994
-0.308906
-0.0106064
-0.258862
0.00274435
-0.398253
-0.0117301
0.248941
0.0562352
0.00287736
-0.142687
-0.204331
-0.19113
-0.14885
0.0342143
-0.136454
-0.00492178
-0.353319
-0.0758524
0.0332818
-0.0216842
0.159908
-0.028159
-0.12223
-0.117957
-0.317202
-0.138722
-0.0341054
-0.0355534
-0.165285
0.0691707
-0.129779
-0.0116823
0.0189387
-0.313797
-0.211171
-0.166841
0.339706
0.00753023
-0.226572
-0.00660317
0.0942063
-0.387032
-0.40978
0.023469
0.0168706
-0.0764015
0.0992407
0.0492373
-0.144166
-0.254149
-0.0201378
-0.0152722
0.0232664
0.00394796
0.292245
-0.0239753
-0.0683493
-0.185311
-0.0737162
-0.0159261
-0.0855815
-0.314961
-0.0981196
-0.0184675
-0.419977
0.0266075
-0.243905
0.160002
0.183506
-0.00407561
-0.307897
-0.396934
-0.0800178
0.000924245
-0.156139
-0.0239248
0.102923
0.0457144
-0.0717272
0.0648072
-0.35082
-0.0844028
-0.131443
0.025098
-0.278761
-0.0751925
0.00643489
0.428365
-0.0139646
-0.063471
-0.102886
0.0439003
-0.378623
0.00840948
0.439828
0.0447562
0.00411061
-0.412464
-0.100494
0.081298
0.166481
-0.0832776
-0.135222
-0.0945964
-0.0650094
0.0315196
-0.0655798
-0.103159
0.0828556
-0.0718515
0.0340775
-0.098935
-0.0757715
-0.0441261
-0.145833
-0.0134541
-0.0910103
0.0899803
-0.343792
-0.352359
-0.366386
-0.322967
-0.23375
0.086223
-0.0331675
-0.116637
0.0923776
0.0346224
-0.350932
-0.184528
0.0631501
-0.0541471
-0.0724375
-0.0754296
-0.0904084
-0.240441
0.00493046
-0.0634513
-0.08323
0.0417476
0.0083664
-0.095211
-0.0176912
-0.0732252
0.055813
-0.218977
-0.0890463
-0.114532
-0.199779
-0.198752
-0.192796
-0.00826363
-0.128337
-0.0995956
-0.419659
-0.0402788
-0.0739942
-0.0845191
0.490458
0.0305186
0.0350578
-0.123269
-0.077997
-0.411955
-0.326357
0.157452
-0.258585
-0.001157
-0.0181993
-0.305105
0.28141
0.0280123
-0.185282
-0.0550113
0.085989
0.0507184
-0.169387
-0.0203676
-0.200263
-0.134559
-0.420908
-0.195367
-0.0635304
-0.138652
-0.404716
0.0283049
0.0332719
-0.165399
-0.0120535
0.214988
-0.420353
-0.0771502
-0.106763
-0.102542
-0.0413838
-0.209558
-0.015208
-0.112014
0.016855
-0.407566
-0.0156456
0.0339529
-0.0922839
-0.193614
0.00373738
0.0351642
-0.405218
0.0427659
-0.148269
-0.016128
-0.362523
-0.302295
-0.131623
0.312509
0.000996242
-0.0747178
-0.101292
-0.114725
-0.0154836
-0.0411557
0.00394371
-0.100381
0.024506
-0.0965067
0.0468459
-0.0197915
-0.339423
-0.0177228
-0.0568595
-0.0615718
0.0139592
-0.0939689
-0.0141299
-0.0366054
-0.164422
-0.0758167
-0.0699943
0.0391408
-0.344927
-0.0765307
-0.184987
-0.00719554
-0.115024
-0.0357193
-0.113425
-0.102638
-0.0957744
-0.259097
-0.241529
-0.25378
-0.312758
0.116148
-0.107428
0.0351414
-0.306683
0.0796502
-0.0347555
0.0328893
-0.102337
-0.0132187
-0.215397
-0.125184
-0.0927156
-0.280649
0.337897
0.00936831
-0.213715
0.185177
0.0557551
0.073549
0.0333311
-0.12239
0.0339052
-0.0774725
-0.0168049
-0.0735346
-0.326322
-0.0413614
0.0254035
0.0317407
-0.22949
-0.0112474
0.0316039
-0.0662095
-0.0319179
-0.0674821
0.0062687
-0.0792568
0.327667
0.114177
-0.27808
-0.396077
-0.0925391
-0.272508
-0.0105256
0.0203222
0.0510385
-0.0414475
0.144912
-0.0732106
-0.109422
-0.0142075
0.0322474
-0.070284
-0.170691
-0.0141772
-0.00880851
0.110172
-0.419752
-0.0730951
-0.061448
-0.0632647
0.0186845
-0.279988
-0.101003
0.328973
0.160274
0.0303884
0.0570231
-0.107118
-0.241052
0.0628145
-0.0305135
-0.0550901
-0.0917586
0.0608057
-0.383327
0.0127845
-0.12485
-0.0163734
0.130682
-0.00782115
0.00289495
-0.274225
-0.32397
0.271768
-0.0681636
-0.420931
0.0402157
-0.186706
-0.0770237
-0.0101747
-0.156955
-0.111846
-0.138032
0.0224669
-0.0751531
-0.402474
-0.0314855
0.0156308
-0.0774363
-0.0821891
0.0162615
-0.0189841
-0.0314974
-0.0570143
-0.18376
-0.213646
0.317802
-0.181111
-0.0117479
0.022736
-0.0929229
-0.0132943
-0.104331
0.118687
-0.0326819
-0.138638
0.0175243
0.0316055
-0.251398
0.00568065
-0.327606
0.0207994
-0.351436
-0.0857549
-0.182901
0.0128037
0.00668168
-0.242808
-0.0139319
-0.0372942
0.0547734
-0.238054
-0.313144
-0.100614
-0.0951427
0.0603714
-0.167665
0.0644355
-0.117551
-0.0266851
0.0199008
-0.423769
-0.110763
-0.339283
-0.0301396
-0.132559
-0.124949
-0.421162
-0.187677
-0.236687
-0.106712
-0.0150314
-0.252932
-0.0255378
-0.0247133
-0.210296
-0.102295
0.0866702
0.281942
0.0753352
-0.000191492
-0.0658154
-0.254136
-0.0572941
0.00608637
-0.40881
0.057417
-0.0152695
-0.0692648
0.00369229
0.0169727
-0.188103
-0.208975
-0.417742
-0.0143657
0.0734365
0.00404549
0.400051
-0.00930512
0.455656
-0.155686
-0.0834284
-0.0688385
-0.409085
0.148666
-0.275178
0.477621
0.0186571
0.0580686
0.105766
0.124836
0.49503
-0.18757
-0.377967
-0.0750028
0.508992
0.0269073
-0.130719
0.0028106
-0.423356
-0.0835592
-0.0483822
-0.0506748
-0.035949
-0.00521283
-0.14952
-0.373341
-0.0104477
-0.0443118
-0.00359516
-0.222006
-0.0434115
-0.304646
-0.0709659
-0.346945
0.0256217
-0.00477291
-0.142236
0.430528
0.0222984
-0.11236
0.0164173
-0.225975
0.165435
-0.173008
-0.111037
-0.377058
-0.0123132
-0.0273792
-0.0895159
-0.0692996
-0.0686388
-0.0762592
0.00586133
-0.0668453
0.0224703
-0.00116155
-0.0357321
0.0209674
-0.40551
-0.155142
-0.150078
-0.073221
-0.25149
-0.262209
-0.013192
-0.0886263
-0.0137962
0.486211
-0.0321933
0.0486885
0.0231572
0.00192496
-0.0241763
-0.18664
-0.043442
0.42983
-0.0218618
0.162761
-0.0121431
0.486447
0.0141881
-0.0932286
-0.0823413
-0.121562
-0.37973
0.00220667
-0.091923
-0.164267
-0.00382615
-0.0150461
0.00935858
-0.0727694
-0.373147
-0.0326104
-0.0222941
-0.16834
-0.115479
0.201265
-0.12784
0.0306363
-0.115393
-0.0877588
-0.0122234
-0.177671
-0.0408888
-0.074037
0.0322766
-0.0325093
0.0168703
-0.158458
-0.0836738
-0.0135122
0.38424
-0.103741
0.00342393
-0.0218148
-0.00498454
0.404783
-0.170068
-0.158067
-0.0513288
-0.111145
0.0141144
0.0292482
-0.0472144
0.00551223
-0.17233
0.034664
-0.0887712
-0.327288
-0.092516
-0.0131072
-0.0716312
-0.129672
0.0144861
-0.176177
-0.0904559
-0.143959
0.098008
-0.399353
-0.14998
0.00543138
-0.192573
-0.189758
-0.0591322
-0.305366
-0.0878991
-0.0602831
-0.146012
0.000480213
-0.199467
0.284137
-0.188005
0.00425149
0.0125489
-0.0137816
0.16893
-0.0935118
-0.0974327
-0.257286
-0.412195
-0.0717478
0.0161924
0.499859
-0.0808541
-0.168409
0.0238821
0.00557636
-0.119495
-0.079218
0.0349255
-0.0920396
-0.40032
-0.185742
-0.38717
0.342053
-0.194312
-0.0703497
-0.306249
-0.0181034
-0.328696
-0.195971
-0.0299542
-0.039491
-0.00172847
-0.369889
-0.19917
-0.145558
-0.0325951
-0.365153
-0.0217071
-0.221
-0.0782705
0.0272823
-0.0950059
-0.275877
-0.0981067
-0.148474
-0.039611
0.0344923
0.0560319
-0.105577
-0.0901461
-0.357167
-0.170974
-0.0159829
-0.423584
-0.236069
-0.0737659
0.00251
0.00773304
-0.0726705
0.418629
0.0100861
-0.138825
0.305717
0.193642
-0.0721777
-0.100267
-0.334307
-0.196604
0.0428053
-0.0198193
0.294492
-0.0768274
-0.369399
-0.0293447
0.190415
0.32388
0.380155
-0.0365835
0.0154745
0.36997
-0.207897
-0.343123
0.409266
-0.0683348
0.00742399
0.416621
-0.202157
0.0447632
0.282859
-0.18125
-0.0138481
-0.170497
-0.152657
0.4245
0.0172293
-0.0669396
-0.165137
-0.405426
-0.0167525
-0.0528482
-0.0034833
-0.0419486
-0.002681
-0.132304
0.0289893
0.0960513
0.385863
-0.0941482
-0.184497
0.0769967
-0.0593029
-0.037401
-0.323674
0.272684
-0.390232
-0.0213136
0.110363
-0.382422
0.332831
0.0398929
0.0785196
-0.220075
-0.146156
-0.239825
0.00553187
-0.000109328
-0.00498216
-0.192518
0.0125468
0.468179
0.488328
0.401642
-0.0566255
-0.269574
-0.380225
-0.00102911
-0.306711
0.027177
0.224785
-0.00928176
-0.0290537
-0.14294
-0.290358
0.00401078
-0.407109
-0.233851
0.327715
-0.252988
-0.0101174
0.00800954
-0.0889661
-0.0440607
-0.409455
-0.402166
0.0391048
-0.256482
0.0021394
-0.0204144
-0.0243068
0.0231956
-0.379961
-0.0509415
-0.360056
0.29774
-0.0369454
0.443933
-0.359947
-0.0733333
-0.373294
-0.0538889
-0.0267121
0.0225675
-0.0443345
0.466611
0.355928
-0.272552
0.0215395
-0.0407034
0.129235
0.00494429
-0.0873885
0.0764872
0.17714
0.242057
0.0451562
0.00658234
-0.0149882
-0.131873
0.00346225
0.0128726
0.324232
0.0504247
-0.00309377
-0.135223
-0.00313407
-0.339863
-0.0753237
0.486588
0.030339
0.314347
0.0173569
-0.129937
-0.0425903
-0.04219
0.115772
-0.358651
-0.0745465
0.317381
-0.0273528
-0.0968764
-0.129475
-0.0710781
-0.268918
0.0229469
-0.273544
-0.213242
-0.0141364
0.268136
-0.231523
0.333696
0.0186263
-0.146943
0.428783
-0.221576
-0.179858
-0.0326326
-0.155252
0.027587
0.00589664
-0.0778126
-0.112858
0.0070899
-0.0725491
-0.389986
-0.0895535
-0.401001
0.413469
-0.355716
-0.277143
-0.0141762
-0.0501799
-0.021104
0.13161
-0.222658
-0.242752
0.0480855
0.000571685
-0.0219635
-0.335492
-0.101914
-0.133999
-0.0787079
0.350423
-0.422738
-0.31791
0.0102081
-0.415048
0.0267048
0.107366
0.140783
-0.0812377
-0.109576
0.10634
-0.0427932
0.283847
-0.0800867
-0.0807212
-0.406474
0.162103
-0.0693872
-0.0779917
0.0230192
0.477188
-0.157594
0.0598657
-0.381585
-0.417102
-0.0896438
0.103406
-0.0820563
-0.415431
0.0117739
-0.0246918
-0.0133897
-0.0115616
0.0576309
-0.423585
0.0477097
-0.156743
0.000657062
-0.0297514
0.44844
-0.0352378
-0.0151278
0.0145821
0.0263351
-0.173003
-0.0201671
-0.423807
-0.0328055
-0.049419
-0.0364838
0.050193
0.364486
-0.0206298
0.00876608
-0.0175756
-0.0716384
0.299708
-0.0594951
-0.0787905
-0.000290273
0.0871033
-0.0884149
-0.274734
0.0685781
0.01367
-0.0253672
-0.0180321
-0.292289
0.000287004
-0.0233193
-0.0615626
-0.34431
-0.00020499
0.176512
0.0421824
0.0158314
-0.107583
-0.418066
-0.103003
-0.112125
-0.061121
-0.0900496
0.0432975
0.347286
-0.257191
-0.0393316
-0.156752
-0.0744902
-0.0984926
0.0470203
0.0251704
0.484058
-0.0566053
-0.270775
-0.154228
-0.0213459
0.0190626
-0.419893
-0.0697612
-0.0936514
0.0533538
0.0107361
-0.420706
-0.204115
-0.0170153
0.00673641
-0.0317977
0.0141515
0.0168296
0.0329338
0.177339
-0.197803
0.0116535
0.0431069
0.4512
0.00923106
-0.263601
0.0512201
-0.0328822
-0.0759163
0.0034654
-0.194455
0.0587442
0.245322
0.0129177
-0.027223
-0.342134
-0.380585
0.00416816
-0.0961825
0.202984
0.0178215
0.0819412
0.00687385
-0.0421176
-0.306952
-0.235649
-0.0676652
-0.125448
-0.041569
-0.409817
-0.154034
-0.0309791
-0.268198
0.0603311
-0.113357
-0.149186
-0.0712526
-0.347233
-0.232322
-0.0799438
-0.0234242
-0.0604144
0.0986314
-0.0206075
-0.024615
-0.086143
0.304318
-0.0226533
0.108094
-0.113165
0.0695293
0.417306
-0.0865179
-0.0726385
-0.312474
-0.359207
0.169703
0.100782
-0.0814268
-0.422646
-0.131969
0.072784
-0.0214645
-0.00664593
-0.0173704
-0.0889198
-0.105281
-0.214967
-0.0264028
-0.321903
0.005131
-0.074558
-0.0728857
0.314009
-0.223561
0.318237
0.377145
0.0572556
0.164297
-0.00315331
0.119155
0.0123012
-0.0336255
-0.0971526
-0.0920166
0.0141034
0.0950397
-0.219534
-0.00591442
-0.0245847
0.113042
-0.423576
-0.207954
-0.14331
0.202386
0.00644691
-0.0690581
0.192991
-0.0412025
0.0294879
0.00362515
-0.0284396
0.0329152
-0.0605192
-0.177539
0.00346436
-0.0194231
0.226705
-0.00106445
0.106074
0.135909
0.0230618
0.0104935
-0.423708
-0.0146649
0.0214342
-0.0155517
0.0676965
-0.0168328
-0.358923
-0.0517068
-0.259968
0.000677784
-0.0265917
-0.034182
-0.325506
-0.0749446
0.0352846
-0.021958
-0.172409
0.102394