/*--------------------------------*- C++ -*----------------------------------*\
| =========                 |                                                 |
| \\      /  F ield         | OpenFOAM: The Open Source CFD Toolbox           |
|  \\    /   O peration     | Version:  v2012                                 |
|   \\  /    A nd           | Website:  www.openfoam.com                      |
|    \\/     M anipulation  |                                                 |
\*---------------------------------------------------------------------------*/
FoamFile
{
    version     2.0;
    format      ascii;
    class       volScalarField;
    location    "400";
    object      p;
}
// * * * * * * * * * * * * * * * * * * * * * * * * * * * * * * * * * * * * * //

dimensions      [0 2 -2 0 0 0 0];


internalField   nonuniform List<scalar> 
13917
(
-0.0825982
-0.00175223
-0.083637
-0.0370717
0.0266753
0.456621
-0.0773064
-0.0921618
-0.178477
-0.134796
-0.0904598
-0.0695249
-0.0375401
-0.100318
0.0471809
0.0245191
0.0046914
-0.121565
-0.0687113
0.00986855
0.019653
-0.0727687
0.0147799
-0.0976821
0.0262204
-0.0685222
0.216757
0.229865
0.0959065
-0.189893
-0.0972052
-0.0421011
0.171165
0.109024
0.0309334
-0.0822621
0.0148115
-0.102992
-0.0430938
-0.0559897
-0.000460518
0.0183234
-0.0115761
0.256444
-0.0219191
0.125894
-0.118893
-0.120162
0.508925
0.00461727
-0.0650914
0.0574404
0.511907
0.113205
0.00608959
-0.0656588
-0.0915839
0.0253513
-0.0517965
-0.0206928
-0.383611
-0.00329176
-0.0987394
0.0100047
0.447787
-0.380854
0.0275816
0.0349669
-0.131282
-0.0489779
0.0262574
-0.177758
-0.207865
0.0254973
0.495577
-0.062698
-0.165324
-0.0354776
-0.0642965
0.0194131
0.0164147
0.0270376
0.433559
-0.103923
-0.400547
-0.0345731
0.0143451
-0.336743
-0.063437
-0.011905
-0.168994
-0.172824
-0.00741926
0.047999
-0.366851
0.449342
-0.106918
-0.121655
-0.0677584
0.330213
-0.00202298
0.166913
0.264945
-0.0426228
-0.00461464
-0.189858
0.0656533
-0.122732
0.00286328
-0.0990537
-0.327163
-0.0565697
-0.0708952
-0.186117
0.0739915
0.511251
0.0170382
0.49869
-0.0720841
0.112046
0.0183987
-0.132282
-0.0786976
0.223607
0.00300662
0.0465433
-0.0172101
0.00324834
-0.00959335
0.456977
-0.0787043
0.0716691
-0.0220941
0.0199452
-0.260285
-0.0946609
-0.0800076
0.34464
0.0279036
0.111192
-0.0853531
-0.011697
0.0603373
0.291009
0.0355783
-0.171597
0.0375374
0.0556388
-0.0111986
-0.0373121
-0.0941056
0.506307
-0.0883464
-0.0167015
-0.057732
-0.40498
-0.044211
-0.111968
-0.165728
-0.26879
0.0812309
0.215909
0.0170892
-0.105258
-0.0714605
-0.0683192
-0.0417246
-0.106566
-0.0164589
0.172294
-0.0367659
-0.354618
-0.0687354
0.00761835
-0.145137
-0.00961237
-0.0763057
0.505839
-0.165894
0.00464682
-0.17862
-0.102762
-0.0122812
0.0145953
0.0795129
-0.0711123
-0.273437
-0.401592
-0.0975289
-0.0742525
-0.0983957
-0.400489
-0.27064
0.0185645
0.362177
0.208684
-0.00429497
-0.00737367
0.0474705
-0.33794
-0.0559767
0.00490458
-0.0997653
-0.0925315
-0.206203
-0.21076
0.0306174
0.0262249
-0.118701
-0.07406
0.0582544
-0.0783343
-0.207295
-0.0750345
-0.00421253
0.316845
-0.110835
-0.308947
0.0146568
-0.375759
0.00480117
-0.178563
-1.34517e-05
-0.113306
-0.197167
0.0237799
-0.287858
-0.0607776
-0.00363466
-0.0813182
-0.0678247
-0.0959525
-0.0845508
-0.209496
-0.00380687
-0.0453689
-0.170218
-0.406434
0.0175317
0.00525562
-0.0548121
-0.11182
0.00797554
-0.078738
-0.158958
0.208411
-0.0784852
0.0167642
0.0246469
-0.191022
-0.0258446
-0.200405
0.345898
-0.0171656
0.0259896
-0.0838614
-0.0562674
-0.0876376
0.0782081
0.0436392
0.00826094
-0.0776728
-0.276178
-0.0717553
-0.0031007
-0.245333
-0.106634
-0.113298
-0.060421
-0.0630681
0.0168201
0.00190381
-0.117862
-0.130389
-0.143541
-0.0501901
-0.215016
-0.0567608
-0.0095706
-0.324891
0.00872989
-0.142294
-0.0543391
0.00792403
0.0181156
-0.0115568
0.216204
-0.0795297
0.0168807
-0.0276088
-0.255393
-0.0838625
-0.270681
0.0149389
-0.121896
0.0247115
-0.0276817
0.0166449
0.00422054
0.00650872
-0.184124
-0.0738419
-0.016284
-0.099678
-0.0182073
0.51563
-0.0079419
-0.166245
-0.016234
0.0251947
-0.333407
-0.083316
0.0167176
0.00104677
-0.330925
0.000680679
-0.205049
-0.0155018
-0.115148
-0.0306
-0.254151
-0.0803056
0.476828
0.0775846
-0.264735
0.350085
0.0158423
-0.113992
-0.0659595
0.0252663
-0.085868
0.358178
-0.107813
0.098711
-0.062061
-0.0515504
-0.372306
0.345829
0.0395014
0.0275697
-0.0830762
0.0205926
-0.0431505
-0.328691
0.0395508
0.0185975
-0.101329
0.0421308
0.00261058
-0.0988393
0.131165
-0.000279106
-0.0711202
-0.0889733
0.00882949
0.00313773
0.0245364
-0.0116041
-0.249246
-0.157966
0.407371
-0.335734
0.0219201
-0.207691
-0.399884
-0.0905608
-0.0764325
-0.132294
-0.193584
-0.00424228
-0.071324
0.00153717
-0.374633
-0.0197743
0.467012
-0.162294
-0.0455689
0.0209776
-0.116134
-0.185443
-0.138297
-0.0864458
-0.370176
-0.30994
0.0189713
-0.127246
0.00541165
-0.40746
-0.0726323
0.0209359
-0.259175
0.0257007
-0.208186
-0.030664
0.0205532
-0.013457
-0.058787
-0.0116709
-0.0575026
-0.389926
-0.0846466
0.38459
0.0233738
0.333352
0.367018
0.012994
0.0720011
0.0380687
0.0270537
-0.188853
0.00834224
0.0277364
0.00119795
-0.24441
0.0193863
-0.0629211
-0.0598766
-0.392358
-0.266427
-0.0607141
-0.286439
-0.0885783
0.0214157
-0.198863
-0.0429064
-0.0506527
0.0186126
-0.159324
-0.0750876
-0.0625253
0.0358822
-0.162608
0.0954507
-0.0440616
-0.1359
0.000785644
-0.0699548
0.00171921
0.00658656
-0.206461
-0.0762555
-0.0754148
-0.191157
-0.392871
-0.0861244
-0.286493
-0.140923
-0.00882012
-0.118781
-0.00109835
0.0288528
-0.215267
-0.120065
-0.0113154
-0.142952
-0.0899468
-0.13234
0.0128881
-0.122836
-0.391122
-0.286742
-0.0653946
0.0197225
0.0221806
-0.0046213
-0.0389035
-0.00431365
-0.0678305
0.415071
0.0149167
-0.406689
-0.0648448
-0.103208
-0.287785
0.0288711
-0.0835747
-0.0860667
-0.122095
-0.142378
-0.183654
-0.0724062
-0.0778536
0.44646
-0.0679253
-0.120865
-0.00693048
-0.243613
-0.0682602
-0.0178704
-0.0341966
-0.037666
-0.135906
-0.190267
0.00114489
-0.00943973
-0.0734137
-0.287447
0.00815522
-0.0645593
-0.0390203
-0.248617
0.00229044
-0.22608
-0.149879
-0.0401455
-0.0186717
-0.0604855
-0.262767
-0.407796
0.00847246
-0.200729
0.512031
-0.334734
-0.0179309
-0.402964
-0.271071
-0.0883026
0.00251637
0.0111171
-0.0606798
-0.210226
-0.0114614
0.00335986
0.00334095
0.0030667
-0.243416
-0.21816
-0.0878815
-0.269788
0.00168459
-0.00165452
-0.158379
-0.232694
-0.087586
-0.0174049
0.0265743
0.0306788
-0.329394
-0.398825
0.0128244
0.0305449
-0.0710761
-0.0730228
-0.0792811
0.0233369
-0.00912032
-0.0256433
-0.118289
-0.0472331
-0.277128
-0.200238
-0.14204
-0.207109
-0.164606
0.016075
-0.194086
0.0303306
0.0178188
-0.0474215
-0.239698
-0.00896728
-0.00167856
-0.284215
-0.199827
-0.385713
-0.144142
0.121185
-0.0921786
0.0212363
-0.272635
-0.267123
-0.0901739
0.00213335
-0.0762399
-0.274357
-0.134247
-0.245617
-0.124178
-0.200036
0.0285275
-0.036841
0.0245579
0.102407
0.283678
0.0492568
-0.108128
0.348892
-0.0904432
-0.408264
-0.011792
-0.101686
-0.148708
0.0130387
0.0545739
0.355998
-0.216089
-0.151284
-0.26267
-0.00943928
-0.0722893
-0.0615472
-0.00169113
-0.0758712
-0.102267
0.163212
-0.185353
-0.0636117
-0.179795
-0.0690419
-0.268445
-0.0395446
-0.142474
0.0178962
0.0130058
-0.119374
-0.212271
0.423767
-0.0400699
0.00607623
0.0300964
-0.0578739
0.505021
-0.0680074
-0.0390967
-0.0835569
-0.113355
0.00276331
-0.272572
-0.066987
-0.0652156
0.0125226
-0.173961
-0.0369132
-0.389621
-0.140483
-0.0172539
-0.0774015
0.000599057
-0.01606
-0.0182687
-0.00282892
0.127228
-0.254728
0.100396
-0.10692
0.000161108
-0.18567
0.417876
-0.0863195
-0.0252851
0.118198
0.00395783
-0.0555293
-0.0540604
-0.27266
0.0198239
-0.319371
-0.0567453
-0.0890098
-0.171758
-0.217607
-0.0395892
0.0115006
-0.139994
-0.247113
0.0132162
-0.0464542
-0.165019
-0.256034
-0.140329
0.00799884
-0.0199011
-0.236984
-0.0461391
-0.138528
-0.0833437
-0.0165773
-0.0902745
-0.0877812
-0.0248879
-0.0353203
0.00395759
-0.0813265
0.0203371
0.0359368
-0.3586
0.0274207
-0.210574
-0.0565868
0.17518
0.00366304
-0.021023
0.017012
-0.141051
0.00076855
-0.0954165
-0.0387426
-0.384665
0.200519
-0.235903
-0.00375774
0.0209484
-0.157887
-0.113723
-0.0964992
-0.208104
-0.123516
0.029362
-0.238583
0.441278
-0.065737
-0.250413
-0.112754
-0.0630322
-0.0734375
-0.0563311
-0.196492
0.0686779
-0.121703
0.437414
-0.122646
-0.0401953
-0.10371
0.0116006
-0.0202342
-0.0553613
-0.100324
-0.0329145
0.0192075
0.00134689
-0.110279
-0.0440051
-0.141635
0.0286214
0.0266646
0.0205912
-0.00433737
-0.0136428
-0.0302178
0.00455231
-0.227223
-0.0668528
0.370913
-0.0031259
0.0143597
0.191747
-0.146194
0.0688753
-0.326234
-0.137447
-0.367531
-0.0567383
-0.170104
-0.0338582
0.0177068
0.00271501
-0.0164546
-0.382414
0.0140481
-0.207476
-0.0311379
-0.401211
0.0310766
-0.144787
-0.0880988
-0.0106397
0.00806212
-0.0679335
0.0349989
0.0363514
-0.313197
0.00663509
0.0245062
-0.0666698
0.00429361
-0.00839952
-0.039371
0.13139
-0.0955423
-0.0660194
-0.0248802
-0.000874059
-0.135145
0.00682378
0.0182119
0.00107882
-0.317967
-0.157287
-0.330556
0.114899
-0.0410453
-0.00339427
-0.00857079
-0.0693329
-0.0707272
-0.104933
0.102143
-0.0876588
-0.00974764
0.0562689
-0.33331
0.0260623
-0.069274
0.0141261
0.00617061
-0.0931652
0.223586
-0.0310563
-0.201035
-0.0577454
-0.175592
0.0157542
-0.0146362
-0.0725742
-0.212486
0.00857963
-0.195256
-0.0142919
-0.0958519
-0.0208832
-0.0208997
-0.216262
-0.0240884
-0.0598207
-0.099132
0.0211521
-0.0110008
0.0416629
0.00609558
-0.0349567
0.250588
-0.0239674
-0.017509
-0.144745
-0.166783
-0.0702529
-0.107901
-0.129964
-0.0570428
-0.0113194
0.128973
-0.202373
-0.106058
0.0231162
-0.0174753
-0.202506
-0.0936441
-0.339375
0.0209322
0.0710942
-0.0833942
-0.0856168
-0.0330746
-0.396643
0.472673
0.00555265
-0.191781
0.00242877
-0.0231628
-0.00331912
-0.242681
-0.0134073
-0.0241455
-0.0119145
-0.0590762
-0.0426366
-0.253044
0.272067
-0.0214665
0.166578
0.0121889
-0.338273
0.00698849
-0.0244859
0.0243749
-0.0732387
0.0245666
-0.178014
-0.0564828
-0.0848807
0.114271
-0.0898041
-0.362416
0.0237968
-0.0724498
-0.392974
-0.360772
-0.0612793
-0.142898
-0.394731
-0.182292
0.00936669
-0.0638278
-0.0850313
-0.0747426
-0.0173636
-0.00836974
0.0167223
0.0124052
-0.0617883
0.12284
-0.0854784
-0.00846529
0.0291741
-0.405353
-0.0478854
0.0414775
0.192148
-0.0744064
-0.0278265
0.1384
0.196813
0.0693051
-0.0430458
-0.057004
-0.336324
0.497229
-0.0205895
-0.259701
-0.195075
-0.392971
-0.20081
-0.0660105
0.00114309
-0.0347134
-0.00832907
-0.0114758
-0.00722588
-0.00878786
-0.027522
-0.0693826
-0.406017
-0.126313
-0.0245255
-0.165973
-0.279318
-0.0888258
0.0502131
-0.151064
-0.0152674
0.035395
0.18738
-0.407143
0.0246181
0.0132364
-0.0792387
-0.0916141
-0.142275
-0.143051
-0.0838913
0.00803271
-0.195218
0.0510681
0.0104598
0.053363
-0.0674331
-0.329985
-0.0186635
-0.0113577
0.0143209
-0.161164
-0.00334755
-0.0775286
0.0341003
0.00336765
-0.194999
-0.0220077
-0.144274
-0.158649
-0.0736478
-0.016061
-0.0786055
-0.0118299
-0.223791
-0.275393
0.0268756
-0.330518
-0.132755
0.476792
0.024699
-0.0592231
0.0233214
-0.0639913
-0.0825926
-0.144587
-0.07402
-0.0659561
-0.065837
-0.225615
-0.000113323
-0.178644
-0.0209705
0.00884571
-0.0831076
0.0282872
0.0232996
-0.0182341
-0.0260106
-0.404754
-0.0097673
0.0151422
-0.0920814
-0.115665
-0.103232
0.443853
-0.0644928
-0.390192
-0.0600135
-0.0915074
-0.0551651
-0.142456
-0.0718144
-0.389475
-0.0652788
-0.0548482
-0.0223064
-0.0579414
-0.0656374
0.0550393
-0.167289
-0.0899879
-0.0319481
-0.0630786
-0.0270048
-0.0847029
0.00889765
-0.110239
0.305174
0.00210929
-0.142505
-0.0191154
0.0291255
0.000574766
0.114545
-0.121523
-0.0452391
-0.0286183
-0.018523
0.295244
-0.155767
-0.201037
0.0276737
-0.0066021
-0.109711
0.0151863
-0.176903
-0.157969
-0.0318305
-0.159854
-0.0187186
-0.363882
0.0532266
-0.0672759
-0.102857
-0.171643
0.00966939
0.0120074
-0.0554749
0.0101263
0.00497665
-0.391682
-0.244206
0.091815
-0.0641187
0.00947652
-0.028514
-0.0696355
-0.0179834
-0.0103348
-0.139741
-0.0202238
-0.125152
0.0163925
-0.00982331
0.0200947
-0.0652142
-0.0656443
0.0378787
0.02835
0.00832744
0.0398694
0.00603745
0.425871
-0.138447
0.00872751
-0.154046
0.0223852
-0.18259
-0.0858482
0.398575
-0.0181602
0.0480975
0.0158633
0.0796125
0.0519449
-0.0669485
-0.350232
0.0750076
-0.0815968
0.491035
-0.108093
-0.0642936
-0.0328678
0.431649
-0.0741577
0.0208787
-0.321708
-0.103147
-0.0741922
0.0323955
-0.137094
0.223833
-0.0174643
-0.0437218
-0.392194
-0.0220282
0.000470149
-0.0293246
-0.181759
-0.0744009
-0.119027
-0.000668219
-0.225293
-0.0595271
-0.062417
-0.177654
-0.263962
-0.0717447
-0.0179668
0.00377009
-0.0837343
0.0144151
0.0723366
-0.0066114
-0.0113043
-0.0111103
0.0833714
-0.0771438
0.452659
0.129975
0.264054
-0.0615466
-0.061571
-0.0135926
-0.155525
-0.0653732
-0.0109506
0.00437183
-0.0797013
-0.383322
0.0232466
-0.144835
-0.146316
-0.0741845
0.0384262
-0.0394455
-0.0215683
-0.169716
-0.0154304
0.00426487
-0.383858
-0.0632931
0.0207565
-0.199575
-0.0735195
-0.352569
0.0249771
-0.0587752
-0.0696983
-0.188777
-0.0668836
0.250598
-0.0478195
0.0174645
-0.0249864
-0.00394385
0.0329694
0.0619182
-0.0419949
0.0111002
-0.0939013
0.00456985
-0.0690905
-0.0202664
-0.145429
-0.0822565
-0.308796
0.023164
-0.267353
-0.0247488
-0.0751151
0.0261401
0.107959
0.0229026
-0.107105
-0.219704
-0.068047
0.0103502
-0.128863
0.00835841
-0.0526872
-0.2192
-0.0216548
0.0543551
-0.111475
-0.0757445
-0.0796211
0.0117751
0.0346762
-0.0361875
0.0188085
0.128131
0.00777967
-0.00482598
0.0689099
-0.189259
-0.0346363
-0.104551
-0.154539
-0.124325
-0.0655624
-0.0322968
-0.00463034
0.0407276
-0.254739
-0.0391918
-0.0161482
-0.0822965
-0.320528
0.00420873
-0.391194
-0.145274
-0.142491
-0.0110851
-0.010413
-0.0653679
0.0532564
0.0216183
0.173438
-0.0167283
0.0826483
-0.057818
-0.0852828
0.43489
-0.0747508
-0.0433786
-0.0935032
-0.06137
-0.054261
-0.0710209
0.180377
-0.391036
-0.100599
-0.395236
0.087235
-0.365463
-0.391329
-0.0183154
0.00917581
0.00648485
-0.0355103
-0.10841
-0.0207829
0.0882251
-0.064229
-0.0398988
0.0781844
-0.172347
0.128195
-0.0506735
-0.171748
-0.0324319
-0.06567
-0.0470037
0.112081
0.00290345
-0.233213
-0.347491
0.00734841
-0.0370779
-0.0586249
0.125659
-0.406737
0.00545609
-0.0209005
-0.0893433
-0.0378279
0.158189
-0.391489
0.0296969
-0.13169
-0.0543587
-0.0107827
0.000604876
-0.0627352
-0.366363
-0.0148508
-0.0458384
0.027776
-0.0298046
0.185909
-0.145404
0.0483845
0.41834
-0.117647
-0.0640484
-0.190443
-0.0369955
-0.0645352
0.0952883
0.119854
0.0259677
-0.0836561
-0.149165
0.0659297
0.182954
-0.0955444
0.436404
0.420922
0.105531
0.026852
0.0233552
0.0304889
-0.348916
-0.108005
-0.0475175
-0.0380929
-0.0477754
0.0165965
0.0149609
0.0345184
-0.0939217
-0.058584
-0.149049
0.13454
-0.391697
-0.0576484
0.03465
-0.110612
-0.00244039
0.00967023
-0.230332
-0.000348846
-0.00457889
-0.10316
-0.138879
0.259247
-0.0593306
-0.0924253
-0.0144768
-0.10555
-0.0113916
-0.0284917
0.0727548
0.0216848
-0.0256048
-0.137251
-0.258641
-0.0203236
-0.0661862
-0.00522528
-0.018316
-0.00480821
0.440674
-0.046526
-0.0462035
-0.400272
-0.0199304
-0.107047
-0.0611556
0.0081169
0.129272
0.00517354
-0.0562577
-0.145718
0.0356192
-0.0650073
-0.115976
0.244494
0.0168726
-0.342379
0.0944508
0.403812
-0.0356138
0.154603
-0.257283
-0.017808
0.324623
0.0366677
-0.145299
0.211865
0.00797116
-0.405548
0.0271857
-0.13603
-0.136017
0.34085
0.0261097
0.0744732
0.0472944
-0.0946467
0.0636882
-0.0632704
0.0860639
-0.0843701
-0.0139652
-0.103655
0.0362729
-0.0602968
-0.0790161
0.00409159
-0.00548349
0.488939
-0.037302
-0.0587846
-0.0287579
-0.0685342
-0.0634607
-0.0631373
0.0138889
0.00802633
0.0266523
-0.00910564
-0.170813
0.0488805
0.200106
-0.0322341
0.00838016
-0.219388
-0.0465687
-0.0581979
-0.0618161
0.0347412
-0.389212
-0.105696
-0.0535941
0.49825
-0.156045
-0.263099
-0.0741842
-0.343084
0.00336128
-0.160043
-0.387675
0.441052
0.0115569
0.0518318
-0.093762
-0.0663456
-0.063702
-0.296991
-0.0290014
0.120067
-0.102109
-0.0627787
-0.391467
-0.0842814
-0.114376
-0.00251111
-0.151043
-0.0650564
0.0117583
-0.186097
-0.317758
0.0253969
-0.125872
0.0126823
-0.0226409
-0.116302
-0.150302
-0.000427551
-0.0297916
-0.0220955
-0.0198805
-0.0381174
-0.143007
-0.03939
0.00865035
0.010321
-0.0699095
-0.0542651
-0.049306
-0.256028
0.0318393
-0.174549
-0.401724
-0.11646
0.112488
-0.129964
-0.136462
-0.0868214
-0.0669935
-0.106964
-0.354957
0.00547739
-0.329297
-0.062393
-0.00411442
0.0180489
-0.191092
-0.359487
-0.36424
-0.0218147
0.0106618
-0.0739148
-0.335034
-0.350967
-0.0280165
0.0875459
0.500868
0.0291792
-0.0837532
-0.4048
-0.0881506
-0.335911
0.0389613
0.00887903
0.000856291
0.107398
-0.0865091
-0.0809409
-0.0540177
0.0668625
-0.0899904
-0.365263
-0.0688631
-0.197719
-0.405086
-0.0703414
0.455512
0.0270888
0.0109526
-0.0695114
-0.00957044
-0.017247
0.0253742
0.518131
-0.0961332
-0.403043
-0.199361
0.021488
-0.210342
-0.0971603
-0.0102558
-0.408563
0.225011
0.103968
-0.0290832
-0.391496
-0.320469
0.0241394
-0.296667
-0.113782
-0.396656
-0.338474
-0.152629
0.00766157
-0.0302218
-0.273174
-0.0554599
-0.0750529
-0.103893
-0.343995
-0.142401
0.0653234
0.0749604
0.00369347
0.0525454
-0.377798
-0.0656535
0.0304553
-0.407815
-0.0862767
0.0120059
0.0725303
0.00793156
-0.168061
-0.0208015
0.504598
0.0973435
0.00584044
9.14313e-05
0.328802
-0.148533
-0.101054
-0.00565946
-0.106434
0.0359875
-0.0382446
-0.0655077
-0.351421
-0.0662143
-0.342285
-0.00682699
0.000145473
0.00929684
-0.0661849
0.00167536
0.0074817
-0.135669
-0.104138
-0.10742
-0.0177945
-0.298237
-0.065101
0.00811678
-0.373496
-0.119469
-0.0719232
0.479572
0.0079237
-0.407316
0.0874363
0.0505109
0.0816164
-0.00945975
-0.0767723
-0.00328294
-0.0351773
0.154731
-0.0576004
-0.0665718
0.0129663
0.00441241
-0.0328497
-0.0149848
-0.181083
0.0566176
-0.167529
-0.0461861
-0.146184
-0.036603
-0.0879014
-0.00725671
-0.244628
-0.0263955
-0.0101654
-0.399739
0.327725
0.351551
-0.085196
0.164469
-0.0988324
0.0336551
-0.309022
0.030875
0.00228604
0.328706
-0.064723
-0.404143
-0.38431
-0.170854
-0.267625
-0.19883
-0.291934
-0.011245
-0.0551343
-0.0673743
-0.203522
0.101652
-0.265943
-0.0757009
-0.0304717
0.0420468
0.015698
-0.280188
0.453279
-0.0443544
0.0180431
0.0259277
-0.0529055
-0.0982706
-0.270597
-0.130501
0.00779533
0.390109
-0.175388
-0.210599
-0.144158
-0.00327593
-0.0409622
-0.208479
0.000841646
-0.172746
-0.0785994
0.0320517
-0.0311869
-0.140782
0.340447
0.052493
-0.0872127
-0.046649
-0.175157
-0.0591994
0.056984
-0.038795
-0.326649
0.000135792
0.0701199
0.502701
-0.374157
-0.123308
-0.150818
-0.0552
0.111507
0.0229967
-0.378084
-0.0625132
-0.0254289
-0.0784451
0.00922079
0.00902751
0.517308
0.0256049
0.00736451
0.0183736
-0.110115
0.05391
-0.0499316
-0.0957301
-0.254337
-0.193013
0.0233193
-0.0226747
0.225709
-0.249514
-0.174631
0.125851
-0.16199
-0.0869977
-0.293464
0.00904758
-0.306789
-0.066145
0.00874283
-0.0443936
-0.0092784
0.433394
-0.195373
-0.0281809
0.493883
-0.24098
-0.00254191
0.0520878
-0.0587211
-0.0755241
-0.0657848
-0.0101298
-0.368362
-0.0576464
0.448963
0.0177636
-0.1972
-0.0641213
0.141626
-0.365755
-0.062708
-0.00896682
-0.0774187
-0.241316
-0.0841295
-0.0630226
-0.291583
-0.00621065
-0.230067
0.0128894
-0.387001
-0.00758314
0.24804
0.0564607
0.00671167
-0.114351
-0.172065
-0.165014
-0.121476
0.0394161
-0.123323
-0.00119356
-0.343379
-0.0665556
0.0336576
-0.0160915
0.160605
-0.023
-0.108279
-0.0968945
-0.302283
-0.125331
-0.0278331
-0.0297313
-0.133694
0.0721766
-0.115643
-0.00727273
0.0232127
-0.297499
-0.179337
-0.139329
0.346606
0.0103896
-0.202922
-0.0027888
0.0996996
-0.376472
-0.39699
0.0249634
0.0186714
-0.0662465
0.100941
0.050151
-0.115536
-0.224701
-0.015254
-0.0114002
0.0239071
0.00721656
0.29983
-0.0190369
-0.0579462
-0.167658
-0.0627528
-0.0111107
-0.076161
-0.298983
-0.0869738
-0.00790771
-0.404737
0.0298238
-0.213278
0.161521
0.183069
0.00611389
-0.290289
-0.385924
-0.0686113
0.00467863
-0.143578
-0.0189658
0.103669
0.047318
-0.0608946
0.0695298
-0.336367
-0.0733763
-0.118354
0.0258196
-0.264671
-0.0659007
0.00937676
0.427735
-0.00990516
-0.0545754
-0.0921234
0.0455368
-0.367917
0.0133089
0.437675
0.0476556
0.00748071
-0.398937
-0.0845283
0.0831115
0.166872
-0.07231
-0.124214
-0.0818231
-0.056415
0.0362786
-0.057125
-0.0882254
0.0851921
-0.0621628
0.0413316
-0.0851578
-0.0637397
-0.0374166
-0.11687
-0.00940969
-0.0794889
0.0910144
-0.332565
-0.338628
-0.354344
-0.30921
-0.211023
0.0930167
-0.0274595
-0.0957317
0.0992153
0.0352171
-0.34024
-0.150065
0.065399
-0.046617
-0.063692
-0.066545
-0.0795669
-0.209097
0.00799712
-0.0548399
-0.0725386
0.0471299
0.0111564
-0.0818739
-0.0133407
-0.0644538
0.0588195
-0.203236
-0.0793659
-0.102503
-0.187082
-0.166882
-0.179156
-0.003994
-0.116354
-0.0845018
-0.402842
-0.0339517
-0.065575
-0.0747862
0.488336
0.0308379
0.039311
-0.100621
-0.0670114
-0.39881
-0.312393
0.159185
-0.228892
0.0031016
-0.0138467
-0.286986
0.281562
0.0324818
-0.150611
-0.0471247
0.0915795
0.0554674
-0.156989
-0.0149109
-0.165285
-0.107811
-0.404047
-0.168424
-0.0552508
-0.127514
-0.392699
0.0326975
0.036173
-0.153595
-0.00803935
0.221676
-0.404402
-0.0676113
-0.0883857
-0.0891377
-0.0349508
-0.175584
-0.0110549
-0.0970031
0.0186864
-0.390533
-0.00969796
0.0406907
-0.0787731
-0.17534
0.00693711
0.0406391
-0.390229
0.0431611
-0.127445
-0.0114455
-0.351696
-0.283448
-0.113394
0.313781
0.00442312
-0.0629267
-0.0868179
-0.102852
-0.0108313
-0.0348279
0.00708884
-0.0872428
0.025376
-0.0829809
0.0467439
-0.0148827
-0.328401
-0.0127835
-0.0488942
-0.0533524
0.0161465
-0.0798934
-0.00939382
-0.028996
-0.133048
-0.0651581
-0.0592596
0.0402877
-0.333964
-0.0657235
-0.150488
-0.00165583
-0.0984117
-0.0299394
-0.100953
-0.0880075
-0.0821962
-0.242998
-0.210204
-0.237842
-0.295659
0.117032
-0.0921901
0.041497
-0.292547
0.0821119
-0.0290647
0.0344505
-0.0891857
-0.00553409
-0.184232
-0.110899
-0.0801331
-0.25735
0.336995
0.0131042
-0.181416
0.191759
0.0572934
0.0758705
0.035523
-0.100224
0.0351316
-0.0678471
-0.0119374
-0.0642589
-0.312163
-0.0321813
0.0269271
0.0333244
-0.196922
-0.00665582
0.0358537
-0.0577171
-0.0244776
-0.0589816
0.0104818
-0.0674902
0.327988
0.118853
-0.263221
-0.385117
-0.0789009
-0.246449
-0.00643667
0.0230548
0.0589421
-0.0349984
0.14912
-0.0645136
-0.0904607
-0.00999981
0.0329699
-0.060409
-0.142888
-0.00992277
-0.00448859
0.111593
-0.403135
-0.0644555
-0.0532705
-0.0547989
0.0202897
-0.264616
-0.0865817
0.331866
0.160826
0.0369918
0.0576381
-0.0966207
-0.21911
0.064331
-0.0246349
-0.0472283
-0.0792315
0.0642751
-0.373405
0.0152383
-0.101784
-0.00910833
0.130466
-0.00388623
0.00634242
-0.258524
-0.310664
0.271745
-0.0562257
-0.404771
0.0430821
-0.153284
-0.0650637
-0.00621456
-0.127765
-0.0945874
-0.118901
0.0230699
-0.0660905
-0.390729
-0.0258597
0.022294
-0.0677797
-0.0729022
0.0196869
-0.0141351
-0.0253788
-0.0492149
-0.169539
-0.187708
0.317439
-0.167891
-0.00773933
0.0261246
-0.0802548
-0.00864532
-0.0943551
0.119107
-0.0273204
-0.125525
0.0198062
0.0357337
-0.231866
0.0088078
-0.313723
0.0228785
-0.335106
-0.0744906
-0.166114
0.0168196
0.00960273
-0.211552
-0.00976963
-0.0304131
0.0558719
-0.223693
-0.298612
-0.0900243
-0.0809508
0.0661927
-0.138884
0.0647783
-0.102268
-0.0215289
0.021503
-0.407925
-0.091663
-0.323321
-0.0236281
-0.116508
-0.109184
-0.40603
-0.154084
-0.214885
-0.0964128
-0.0109044
-0.223362
-0.0201515
-0.0192682
-0.184988
-0.0877729
0.0900395
0.286745
0.0811833
0.00622745
-0.0574
-0.223895
-0.0494245
0.00920564
-0.396412
0.0636281
-0.010838
-0.0599312
0.00688991
0.0190196
-0.165866
-0.195958
-0.40074
-0.00995263
0.0761807
0.0076211
0.405613
-0.00484673
0.454356
-0.126844
-0.0728467
-0.0581777
-0.393001
0.149224
-0.25006
0.476554
0.0202509
0.0627861
0.11069
0.12731
0.49422
-0.15423
-0.368426
-0.0660607
0.507994
0.029944
-0.112761
0.00605528
-0.407083
-0.0739374
-0.0414035
-0.0431925
-0.0294902
-0.000991563
-0.130312
-0.364028
-0.00639955
-0.0372066
6.59082e-05
-0.189002
-0.0363795
-0.286436
-0.0588534
-0.330423
0.0265644
-0.000552988
-0.1148
0.42904
0.0235173
-0.100546
0.0183158
-0.21272
0.17232
-0.155133
-0.0973715
-0.364579
-0.00787239
-0.0222155
-0.0772868
-0.0586452
-0.0600771
-0.0670918
0.00949976
-0.0549041
0.0245791
0.00234684
-0.0291359
0.0237144
-0.390298
-0.125263
-0.123254
-0.0624042
-0.221594
-0.241518
-0.00905191
-0.078059
-0.00952089
0.484599
-0.0264626
0.0524727
0.0254874
0.0054144
-0.0191123
-0.171497
-0.0369695
0.434173
-0.0174169
0.162496
-0.00813548
0.488713
0.0166664
-0.0825731
-0.0717077
-0.110894
-0.370439
0.00570788
-0.0783283
-0.152197
0.00361633
-0.0111371
0.012518
-0.063839
-0.363277
-0.0268636
-0.0170955
-0.141971
-0.0975541
0.202051
-0.103816
0.0342487
-0.0969532
-0.0771722
-0.00805373
-0.144427
-0.0347748
-0.0653321
0.0337153
-0.0261876
0.0189009
-0.128171
-0.0728735
-0.00930974
0.387055
-0.088582
0.00662237
-0.0166707
-0.00125293
0.406927
-0.138028
-0.146132
-0.0441293
-0.100466
0.0166512
0.0316698
-0.039962
0.00864041
-0.148879
0.0366119
-0.0764571
-0.311779
-0.0828672
-0.00906905
-0.0618379
-0.11328
0.0169665
-0.163967
-0.0800175
-0.118397
0.0983437
-0.386693
-0.137117
0.00935399
-0.178633
-0.175348
-0.0511375
-0.287226
-0.0757415
-0.0520368
-0.12005
0.00455501
-0.186595
0.286925
-0.175452
0.00759189
0.015919
-0.00964195
0.168337
-0.0809326
-0.0845513
-0.228572
-0.398925
-0.0602396
0.0180944
0.498096
-0.070925
-0.136333
0.0262193
0.00960764
-0.105266
-0.069844
0.0390958
-0.0807656
-0.384135
-0.152631
-0.369219
0.340501
-0.172161
-0.0606062
-0.292512
-0.0137325
-0.312082
-0.170435
-0.0239409
-0.0331448
0.00335466
-0.360698
-0.185055
-0.117892
-0.0259425
-0.350381
-0.0162079
-0.192666
-0.0684906
0.0304203
-0.083766
-0.250963
-0.0837557
-0.135951
-0.032914
0.0384708
0.0571979
-0.0941256
-0.077328
-0.340912
-0.138716
-0.0114143
-0.407391
-0.222608
-0.0627164
0.00577867
0.010577
-0.0605256
0.419808
0.0135636
-0.126655
0.305248
0.195148
-0.0631071
-0.0857071
-0.322034
-0.162646
0.0470158
-0.0152233
0.294198
-0.0673743
-0.358063
-0.0237794
0.197451
0.325614
0.376405
-0.0308613
0.0174779
0.375533
-0.175014
-0.329716
0.414342
-0.0572281
0.0106171
0.415664
-0.168195
0.0465888
0.282411
-0.163183
-0.00959758
-0.147612
-0.122375
0.424296
0.018989
-0.0551116
-0.145182
-0.388174
-0.0127077
-0.0454442
0.0011943
-0.0357315
0.00191719
-0.121346
0.0353978
0.101116
0.382743
-0.0830351
-0.151401
0.0797472
-0.0511867
-0.030123
-0.30925
0.27237
-0.37982
-0.014565
0.11255
-0.372918
0.331499
0.0410978
0.0839672
-0.187891
-0.116807
-0.216999
0.0094073
0.00386835
-0.000586179
-0.16278
0.0171974
0.471879
0.490122
0.40403
-0.0484866
-0.254895
-0.370542
0.00347951
-0.289142
0.0330472
0.226954
-0.0046283
-0.0235527
-0.12958
-0.268628
0.00716344
-0.394585
-0.219206
0.326986
-0.238942
-0.00558961
0.010959
-0.0787711
-0.0375371
-0.39209
-0.386107
0.0469048
-0.241214
0.00617648
-0.0150136
-0.0186582
0.0233942
-0.370675
-0.0436406
-0.35018
0.299948
-0.0312046
0.442756
-0.342749
-0.0643856
-0.36374
-0.0463219
-0.0216044
0.0237983
-0.03788
0.465632
0.359485
-0.24624
0.0228155
-0.0343858
0.13656
0.00800987
-0.0757608
0.0782364
0.183597
0.247453
0.0512572
0.0134729
-0.0105279
-0.11925
0.0103418
0.0222443
0.324838
0.0565224
0.000614858
-0.123158
0.000958953
-0.321477
-0.0664225
0.48588
0.0327664
0.316937
0.0206195
-0.116396
-0.0357162
-0.0358363
0.117909
-0.348489
-0.0659161
0.317538
-0.0193196
-0.0855334
-0.118562
-0.0612526
-0.242452
0.0287048
-0.248113
-0.19931
-0.00941868
0.268729
-0.198758
0.334507
0.0201863
-0.134346
0.424173
-0.194494
-0.147139
-0.0266626
-0.128556
0.0277182
0.00950861
-0.0671891
-0.095522
0.00997539
-0.0637025
-0.379812
-0.0775401
-0.388055
0.415895
-0.345937
-0.262389
-0.00979771
-0.042648
-0.0164874
0.135867
-0.199636
-0.219023
0.0517803
0.00770645
-0.017348
-0.323162
-0.0898421
-0.122024
-0.0694771
0.350701
-0.406186
-0.302518
0.0137241
-0.401542
0.0267741
0.109879
0.145217
-0.0713444
-0.0935585
0.108704
-0.0364781
0.290009
-0.0710053
-0.0714322
-0.391379
0.161475
-0.0573625
-0.0672396
0.0231831
0.475657
-0.145583
0.0620234
-0.371904
-0.400107
-0.0795182
0.105064
-0.0700423
-0.398378
0.0150485
-0.0189884
-0.00921001
-0.00729655
0.0579027
-0.407127
0.052863
-0.126603
0.00408035
-0.0241811
0.445829
-0.0291408
-0.0112645
0.0170047
0.0279252
-0.144067
-0.0153222
-0.407374
-0.0271002
-0.0422437
-0.0285122
0.0503999
0.36301
-0.0157362
0.0115005
-0.0128066
-0.0629045
0.302268
-0.051476
-0.069363
0.0038047
0.0924792
-0.0783366
-0.24952
0.0691653
0.0158932
-0.0205782
-0.013481
-0.277498
0.00420925
-0.0180463
-0.0534061
-0.329341
0.00327636
0.179383
0.0476582
0.0191577
-0.089426
-0.403047
-0.0878389
-0.0924057
-0.0529493
-0.0772234
0.0448507
0.347909
-0.237691
-0.0330748
-0.12862
-0.0622369
-0.0839997
0.0520759
0.0268587
0.482034
-0.048056
-0.254987
-0.123646
-0.0169528
0.0218682
-0.405196
-0.0575203
-0.0809206
0.0601314
0.0154054
-0.404125
-0.169252
-0.012955
0.00990673
-0.0259031
0.0163856
0.0186531
0.0338569
0.178467
-0.163658
0.0177078
0.0449515
0.450787
0.0122055
-0.247956
0.0575254
-0.0274692
-0.0668799
0.00705612
-0.180873
0.0621613
0.244139
0.0161388
-0.0213686
-0.330618
-0.370838
0.00729571
-0.0835153
0.20522
0.0236598
0.0834921
0.00977796
-0.035796
-0.289975
-0.220909
-0.0581613
-0.102416
-0.0351869
-0.392181
-0.13469
-0.0241269
-0.241397
0.0625994
-0.0936427
-0.119741
-0.062178
-0.332621
-0.199882
-0.0703851
-0.0187832
-0.052268
0.0991618
-0.0160379
-0.0196376
-0.0761566
0.305908
-0.0176447
0.110933
-0.0969209
0.0766225
0.41596
-0.0749907
-0.0638731
-0.295387
-0.347553
0.17093
0.100866
-0.0694068
-0.406023
-0.107063
0.075801
-0.0169055
-0.00236311
-0.0126355
-0.0792767
-0.0876408
-0.200925
-0.0214318
-0.306868
0.00833413
-0.0622477
-0.0641488
0.313086
-0.210021
0.316748
0.380443
0.0594285
0.165409
0.00077314
0.127067
0.0156383
-0.0271622
-0.0861402
-0.0790766
0.0163325
0.0956982
-0.184725
-0.00213039
-0.0190507
0.115533
-0.40706
-0.192324
-0.11896
0.202927
0.00940054
-0.0570204
0.193895
-0.0343078
0.0311104
0.00985069
-0.0216069
0.0341754
-0.0522897
-0.144983
0.00863086
-0.014873
0.228241
0.00274344
0.109471
0.137679
0.024644
0.0133698
-0.407215
-0.0102735
0.0234239
-0.0112394
0.0710199
-0.0128473
-0.348917
-0.0440187
-0.246133