/*--------------------------------*- C++ -*----------------------------------*\
| =========                 |                                                 |
| \\      /  F ield         | OpenFOAM: The Open Source CFD Toolbox           |
|  \\    /   O peration     | Version:  v2012                                 |
|   \\  /    A nd           | Website:  www.openfoam.com                      |
|    \\/     M anipulation  |                                                 |
\*---------------------------------------------------------------------------*/
FoamFile
{
    version     2.0;
    format      ascii;
    class       volScalarField;
    location    "550";
    object      p;
}
// * * * * * * * * * * * * * * * * * * * * * * * * * * * * * * * * * * * * * //

dimensions      [0 2 -2 0 0 0 0];


internalField   nonuniform List<scalar> 
13917
(
-0.0874675
-0.00426048
-0.110812
-0.0411172
0.026252
0.456258
-0.0995778
-0.122643
-0.205215
-0.140532
-0.108518
-0.0788198
-0.0416345
-0.132523
0.0452441
0.0222451
0.00234106
-0.131225
-0.0778097
0.00817974
0.0186173
-0.0946967
0.0133106
-0.127938
0.0251056
-0.0839672
0.216258
0.228814
0.0919642
-0.197486
-0.102588
-0.0460422
0.170351
0.108813
0.0300863
-0.102335
0.013347
-0.135404
-0.0478117
-0.0586915
-0.00245969
0.0171379
-0.0137282
0.254865
-0.0250334
0.125504
-0.128558
-0.133309
0.507905
0.00273228
-0.0712119
0.0570357
0.511037
0.112974
0.00376596
-0.071219
-0.109534
0.0238251
-0.0564613
-0.0237418
-0.38737
-0.00584043
-0.131364
0.00832262
0.447195
-0.38459
0.0275704
0.0349481
-0.151948
-0.0530232
0.0257926
-0.204114
-0.22757
0.0243649
0.494062
-0.0704789
-0.19357
-0.0393506
-0.0733893
0.0183479
0.0150862
0.0270266
0.43258
-0.136465
-0.404425
-0.0383955
0.0128849
-0.345244
-0.0694465
-0.0140687
-0.196335
-0.179402
-0.00988893
0.0465161
-0.379153
0.449227
-0.124535
-0.13341
-0.0766366
0.329323
-0.0040788
0.166645
0.26353
-0.0469932
-0.00681706
-0.212936
0.0618098
-0.136072
0.000455335
-0.104297
-0.326849
-0.0596158
-0.0808416
-0.209976
0.0736476
0.512104
0.0155691
0.497963
-0.0917194
0.111644
0.0172317
-0.15247
-0.103482
0.222575
0.00108286
0.0450641
-0.0201356
0.00132814
-0.0116774
0.456766
-0.101351
0.0713494
-0.0252269
0.0189436
-0.268944
-0.12442
-0.0847702
0.343809
0.0278498
0.110855
-0.105891
-0.0141615
0.0596527
0.289577
0.0355314
-0.198835
0.033243
0.0552063
-0.0136019
-0.0410964
-0.105727
0.507417
-0.102076
-0.0200807
-0.0624556
-0.410871
-0.0481032
-0.140495
-0.193871
-0.278306
0.0802818
0.215817
0.0158079
-0.122462
-0.0815104
-0.0774982
-0.0460332
-0.118576
-0.0192696
0.17208
-0.0404882
-0.353753
-0.0780883
0.00525083
-0.175585
-0.0129175
-0.0989392
0.505122
-0.19296
0.00254159
-0.185363
-0.108299
-0.0147647
0.0131488
0.0777998
-0.0866088
-0.280562
-0.407514
-0.104726
-0.0858068
-0.123261
-0.404454
-0.277885
0.0173142
0.361532
0.208179
-0.00635748
-0.00985013
0.0437874
-0.348428
-0.0618152
0.00302797
-0.111326
-0.103914
-0.226086
-0.228263
0.0297991
0.0246976
-0.130537
-0.095019
0.0575332
-0.102076
-0.227141
-0.0868124
-0.00640956
0.31414
-0.122053
-0.310121
0.0130041
-0.380309
0.00271832
-0.186757
-0.00200225
-0.146979
-0.218706
0.021451
-0.295125
-0.0656331
-0.00580718
-0.102535
-0.0768907
-0.103174
-0.112884
-0.22895
-0.00586483
-0.0494105
-0.19724
-0.411045
0.0162865
0.00338207
-0.0548162
-0.130706
0.00619796
-0.094339
-0.170787
0.208353
-0.0833994
0.0154644
0.0217682
-0.214117
-0.0289575
-0.207182
0.344529
-0.0200809
0.0245115
-0.0958154
-0.0575623
-0.101054
0.0764358
0.0416241
0.00649362
-0.102218
-0.281852
-0.0833208
-0.00526103
-0.25688
-0.139484
-0.142637
-0.069249
-0.0708719
0.0155174
-5.05092e-05
-0.127892
-0.163081
-0.159655
-0.0547961
-0.2301
-0.0635942
-0.0116394
-0.32618
0.00699381
-0.173196
-0.0599996
0.00614469
0.0155824
-0.0148621
0.21608
-0.0951231
0.0141206
-0.0309112
-0.263163
-0.112472
-0.2764
0.0133127
-0.151567
0.0245745
-0.0309842
0.015175
-0.000116138
0.00468426
-0.19235
-0.0786201
-0.0190683
-0.111519
-0.0213672
0.515229
-0.0112108
-0.172795
-0.0189288
0.0237173
-0.332844
-0.110244
0.0152212
-0.000924604
-0.333371
-0.00152777
-0.225267
-0.0181556
-0.148595
-0.0340588
-0.261506
-0.0882549
0.474781
0.076613
-0.271811
0.348032
0.0132953
-0.132783
-0.0707935
0.0235042
-0.113522
0.357675
-0.140696
0.098213
-0.0730277
-0.0558045
-0.372562
0.343915
0.0361058
0.0241015
-0.109589
0.0196484
-0.0469862
-0.328253
0.0383601
0.0163426
-0.133486
0.0382257
0.000140141
-0.122393
0.127463
-0.00228794
-0.0913365
-0.110564
0.00709693
0.00115944
0.0244413
-0.0140111
-0.257433
-0.186436
0.408949
-0.334984
0.0206414
-0.214517
-0.40581
-0.100173
-0.0998481
-0.164877
-0.216047
-0.00633206
-0.0834026
-0.000485
-0.379604
-0.0227837
0.464713
-0.174002
-0.050477
0.0200606
-0.127642
-0.192253
-0.149839
-0.0895922
-0.370494
-0.311031
0.0159826
-0.132845
0.00354423
-0.412021
-0.092321
0.0192217
-0.268477
0.0247165
-0.222635
-0.0341347
0.0196133
-0.0164692
-0.060545
-0.0146328
-0.0589045
-0.395419
-0.100115
0.382635
0.0216
0.330952
0.36492
0.0114067
0.0683387
0.0368671
0.0260529
-0.196313
0.00657804
0.026687
-0.000826175
-0.253416
0.0183196
-0.0743217
-0.0638864
-0.396784
-0.273661
-0.0673262
-0.290677
-0.0980536
0.0201308
-0.21035
-0.0476066
-0.0548384
0.017348
-0.187524
-0.0956464
-0.0665666
0.0338417
-0.175263
0.0950053
-0.0488771
-0.147562
-0.00181282
-0.0816802
-0.000707166
0.00476513
-0.226354
-0.098216
-0.0970686
-0.197462
-0.397218
-0.114026
-0.290368
-0.172663
-0.0109072
-0.129724
-0.0037413
0.027383
-0.230101
-0.130083
-0.0132888
-0.151542
-0.0990827
-0.16471
0.0112909
-0.14024
-0.394238
-0.2946
-0.0791171
0.0186948
0.020493
-0.00667859
-0.0426661
-0.00639914
-0.0811297
0.416371
0.0121944
-0.411548
-0.0703893
-0.120612
-0.291385
0.0245645
-0.0984517
-0.107866
-0.139886
-0.150152
-0.197071
-0.0812457
-0.0914632
0.44565
-0.0765054
-0.135271
-0.00900269
-0.256846
-0.0745659
-0.0204132
-0.0378464
-0.0416673
-0.168222
-0.214226
-0.00103827
-0.0115015
-0.091913
-0.291539
0.00638427
-0.0780751
-0.0432075
-0.25569
0.000120506
-0.241984
-0.181061
-0.044015
-0.0217526
-0.067425
-0.269865
-0.412981
0.00671257
-0.221923
0.511636
-0.337092
-0.0204864
-0.406809
-0.276433
-0.0981017
0.000515705
0.00894124
-0.0679878
-0.223794
-0.0134334
0.00139546
0.00142449
0.00114311
-0.255515
-0.233411
-0.0975402
-0.276846
-0.000273668
-0.00369745
-0.171243
-0.246753
-0.0939433
-0.0202682
0.0255321
0.0306028
-0.332007
-0.402869
0.0112787
0.0302425
-0.0824748
-0.0818723
-0.0872466
0.0217023
-0.0120178
-0.0291134
-0.132561
-0.0518449
-0.284189
-0.211839
-0.156519
-0.225091
-0.171226
0.014501
-0.216549
0.0302965
0.0155153
-0.0523864
-0.253103
-0.0125859
-0.00369326
-0.292154
-0.207574
-0.390248
-0.15835
0.119659
-0.101628
0.0203422
-0.277818
-0.274735
-0.119261
-0.000265843
-0.0823008
-0.281431
-0.166725
-0.257588
-0.13627
-0.206441
0.0263481
-0.0407168
0.0229504
0.100227
0.282374
0.0492735
-0.119282
0.347776
-0.120048
-0.413376
-0.0148187
-0.118657
-0.17827
0.0103872
0.0537474
0.352261
-0.232106
-0.181915
-0.269755
-0.0115305
-0.093108
-0.069085
-0.00370637
-0.0811932
-0.116326
0.162358
-0.192975
-0.0740138
-0.193356
-0.0771819
-0.274905
-0.0436454
-0.174148
0.0166738
0.0114702
-0.150331
-0.229646
0.422083
-0.044206
0.00367412
0.029753
-0.0648866
0.503816
-0.0770994
-0.0430676
-0.0982219
-0.124938
0.000602096
-0.279698
-0.0756472
-0.0724164
0.0107477
-0.188083
-0.0408727
-0.394839
-0.146382
-0.0209358
-0.0834607
-0.00138026
-0.018563
-0.0212512
-0.00660557
0.126777
-0.262626
0.0957773
-0.118783
-0.00183853
-0.198097
0.415998
-0.109319
-0.0283636
0.117599
0.00201238
-0.061711
-0.0588384
-0.278375
0.0187995
-0.328096
-0.0629941
-0.106124
-0.178178
-0.235153
-0.0435515
0.00935669
-0.171699
-0.258652
0.0112509
-0.0513329
-0.189883
-0.263209
-0.156343
0.00622267
-0.0230275
-0.244015
-0.0511112
-0.149758
-0.0950503
-0.0191056
-0.101585
-0.115649
-0.0279151
-0.0392006
0.00205772
-0.107806
0.0193846
0.0339224
-0.357717
0.0253719
-0.22857
-0.0612211
0.174332
0.00175502
-0.0245137
0.0155713
-0.148478
-0.00120429
-0.100145
-0.0429083
-0.387358
0.196362
-0.249138
-0.00580501
0.0200376
-0.164448
-0.119494
-0.127984
-0.228232
-0.133041
0.0284925
-0.247997
0.439694
-0.0730382
-0.257906
-0.122814
-0.0696415
-0.0780319
-0.063068
-0.206925
0.0651699
-0.130989
0.435299
-0.131566
-0.0445222
-0.118251
0.00896743
-0.0229645
-0.0614955
-0.105656
-0.03656
0.0178701
-0.000611669
-0.12205
-0.0485389
-0.152822
0.0277448
0.0258296
0.0196735
-0.00709679
-0.0158303
-0.0338058
0.0026693
-0.242601
-0.0755974
0.372358
-0.00519144
0.0128927
0.190395
-0.154141
0.0686468
-0.327476
-0.142933
-0.373476
-0.0630248
-0.183082
-0.0376258
0.0164807
0.000782798
-0.0195624
-0.383308
0.012561
-0.225374
-0.0347424
-0.407145
0.0281653
-0.150427
-0.104765
-0.0129012
0.00628707
-0.0769252
0.0346913
0.0348384
-0.315392
0.00422362
0.0243057
-0.0719343
0.00239404
-0.0104702
-0.0432196
0.131434
-0.12711
-0.0705389
-0.0279008
-0.00287714
-0.167596
0.00311124
0.0162826
-0.00133465
-0.319883
-0.182994
-0.329964
0.113292
-0.0454594
-0.00544593
-0.0106437
-0.0781635
-0.0753792
-0.129278
0.101667
-0.115421
-0.0125194
0.0548208
-0.332815
0.0251301
-0.0757226
0.0122456
0.00433378
-0.0982599
0.223417
-0.0346782
-0.219609
-0.0617283
-0.182147
0.0141577
-0.0169448
-0.0834463
-0.230022
0.0068248
-0.214849
-0.0165861
-0.101132
-0.0235474
-0.0237032
-0.22839
-0.0272399
-0.0622511
-0.104969
0.0203163
-0.0131755
0.0415065
0.00412328
-0.038802
0.246641
-0.0269496
-0.0201906
-0.176599
-0.194552
-0.0786549
-0.113501
-0.141833
-0.0623499
-0.0137964
0.12864
-0.223186
-0.110954
0.0222827
-0.020493
-0.223408
-0.101647
-0.338507
0.0200607
0.0708417
-0.11081
-0.0934341
-0.0368098
-0.399317
0.47093
0.00356928
-0.202187
0.000489045
-0.0262568
-0.00539377
-0.254805
-0.0155698
-0.0270533
-0.0144059
-0.0607523
-0.0472773
-0.260154
0.272339
-0.0242811
0.166091
0.0106106
-0.337492
0.00515791
-0.0274989
0.0240581
-0.0843648
0.0242838
-0.192031
-0.0578268
-0.111304
0.113606
-0.113619
-0.361774
0.0222747
-0.0936223
-0.396723
-0.360125
-0.0691237
-0.175148
-0.399326
-0.194648
0.00713257
-0.0737609
-0.0927035
-0.0949801
-0.0198838
-0.0108687
0.0147306
0.0108383
-0.0675505
0.121676
-0.11396
-0.0109507
0.0287461
-0.410969
-0.0523522
0.0413638
0.192281
-0.0799906
-0.0312368
0.134435
0.196884
0.0681384
-0.0477271
-0.0608226
-0.33566
0.49676
-0.0232372
-0.266788
-0.202895
-0.395454
-0.221853
-0.0745456
-0.0010637
-0.0385409
-0.0110595
-0.0134438
-0.0100552
-0.0108662
-0.0310297
-0.0738568
-0.410886
-0.144805
-0.0274691
-0.179042
-0.284214
-0.0938604
0.0493342
-0.181301
-0.018002
0.0338849
0.186622
-0.411933
0.0245939
0.0114998
-0.10442
-0.11277
-0.169529
-0.158222
-0.10408
0.00612999
-0.207555
0.0501472
0.00876248
0.0525728
-0.0814212
-0.329412
-0.0213779
-0.0135432
0.0124248
-0.186369
-0.00606566
-0.0837929
0.0338022
0.000932581
-0.207044
-0.0248524
-0.151904
-0.164402
-0.0940577
-0.0189207
-0.0830858
-0.0148629
-0.240092
-0.280882
0.0258093
-0.329965
-0.144929
0.47531
0.0245255
-0.0613086
0.0232964
-0.0694177
-0.0873542
-0.159488
-0.0932587
-0.0735507
-0.0735845
-0.239828
-0.00210576
-0.196312
-0.0237717
0.00616951
-0.109278
0.0267731
0.023233
-0.0213615
-0.0293335
-0.409469
-0.011978
0.0136886
-0.103549
-0.121774
-0.113964
0.442596
-0.0720059
-0.392013
-0.0673717
-0.0993731
-0.0617291
-0.173932
-0.0804123
-0.395286
-0.0802998
-0.0604617
-0.0251517
-0.0599691
-0.0739888
0.0545286
-0.179566
-0.0964781
-0.0355437
-0.0689501
-0.0303849
-0.0895475
0.00715175
-0.120298
0.303773
0.000102437
-0.150727
-0.0219007
0.0260625
-0.00140399
0.114256
-0.13243
-0.0498655
-0.0320134
-0.0212436
0.291595
-0.161784
-0.221109
0.0265645
-0.00922817
-0.121713
0.0133506
-0.185919
-0.163982
-0.0354202
-0.171909
-0.021472
-0.367408
0.0526945
-0.0751855
-0.135329
-0.190884
0.00781915
0.00961093
-0.0571696
0.00841647
0.00306123
-0.394133
-0.256024
0.0913354
-0.0710705
0.00777195
-0.0318865
-0.0844504
-0.0211271
-0.0125965
-0.164289
-0.0230492
-0.153711
0.0150649
-0.0120677
0.0182083
-0.0730035
-0.0791725
0.0367149
0.0267285
0.00644463
0.0378216
0.00419775
0.423811
-0.146906
0.00697798
-0.183423
0.0193834
-0.200728
-0.113373
0.395305
-0.0208373
0.0471966
0.0139823
0.0755837
0.0500622
-0.0816317
-0.349352
0.0739635
-0.107169
0.48953
-0.118421
-0.071452
-0.0367069
0.430566
-0.0942548
0.0176813
-0.329447
-0.135546
-0.0843851
0.0302758
-0.169154
0.222695
-0.020001
-0.0481471
-0.397746
-0.0254554
-0.00172648
-0.0329273
-0.190826
-0.0790276
-0.152197
-0.00338454
-0.239895
-0.0666731
-0.0679077
-0.189701
-0.27108
-0.0772407
-0.0206858
0.00131396
-0.110007
0.0128306
0.0711786
-0.00868172
-0.0142693
-0.0137021
0.0814156
-0.0903157
0.450516
0.128159
0.264268
-0.066086
-0.0662352
-0.0162595
-0.179407
-0.0752507
-0.0133121
0.00243461
-0.08568
-0.384424
0.0229576
-0.155083
-0.151804
-0.0786133
0.0376044
-0.0436947
-0.0244677
-0.18168
-0.0187701
0.00237398
-0.387141
-0.0708119
0.0178554
-0.217467
-0.0836526
-0.364103
0.0228923
-0.0641837
-0.0840166
-0.210199
-0.075665
0.246788
-0.0519507
0.016214
-0.0281244
-0.00649237
0.0321056
0.0611753
-0.0458787
0.00927985
-0.110653
0.00267467
-0.0744363
-0.0230133
-0.151102
-0.0964481
-0.316575
0.0216475
-0.274467
-0.0278781
-0.0945959
0.025142
0.107813
0.0220284
-0.13083
-0.236802
-0.0770524
0.00851518
-0.147292
0.00623339
-0.0569515
-0.236357
-0.0246709
0.0536309
-0.117519
-0.0810907
-0.10409
0.00998434
0.0323329
-0.0401274
0.0174639
0.126956
0.00544993
-0.00690835
0.0677906
-0.212818
-0.0384072
-0.12927
-0.184026
-0.13349
-0.0786662
-0.0359799
-0.00670423
0.0384191
-0.264553
-0.0434322
-0.019462
-0.0917986
-0.32948
0.00219054
-0.395293
-0.153761
-0.153192
-0.013439
-0.0125824
-0.0731019
0.0523734
0.0208561
0.172994
-0.0192469
0.0816611
-0.0623826
-0.097542
0.434732
-0.0946416
-0.0481008
-0.107152
-0.0653855
-0.0548116
-0.0793517
0.177383
-0.393053
-0.108712
-0.401187
0.0870528
-0.371273
-0.395141
-0.0208664
0.0074449
0.00463788
-0.0393943
-0.114197
-0.0235424
0.0880857
-0.0722568
-0.0440043
0.0761925
-0.199117
0.127203
-0.0556343
-0.198376
-0.0361298
-0.0802639
-0.0519635
0.110033
0.000849513
-0.2475
-0.346355
0.00520807
-0.0410911
-0.060534
0.124695
-0.411341
0.00360063
-0.0237667
-0.117949
-0.0418929
0.156636
-0.394682
0.0292567
-0.140178
-0.0587231
-0.0129628
-0.00137779
-0.0698143
-0.365904
-0.0177604
-0.0504383
0.0263
-0.0333755
0.185883
-0.176553
0.0470545
0.41543
-0.14865
-0.0703381
-0.209739
-0.0409803
-0.0721935
0.0919734
0.118847
0.0250999
-0.0950242
-0.179785
0.064795
0.181611
-0.126966
0.43897
0.419854
0.105275
0.0250734
0.023114
0.0303573
-0.348027
-0.1194
-0.0523872
-0.0421797
-0.0522482
0.0152763
0.013139
0.034124
-0.107409
-0.0655585
-0.179344
0.13264
-0.396565
-0.0595443
0.032272
-0.120938
-0.0045005
0.00696501
-0.245285
-0.00278815
-0.00734226
-0.114101
-0.155451
0.259295
-0.0610619
-0.114099
-0.017186
-0.137842
-0.0135522
-0.0319423
0.0703863
0.0209405
-0.0286868
-0.157239
-0.266606
-0.0231588
-0.0768881
-0.00779442
-0.0209882
-0.00763499
0.438039
-0.0505933
-0.0511009
-0.405357
-0.0231226
-0.130945
-0.0676464
0.00634529
0.127195
0.00331037
-0.0564944
-0.156265
0.0353499
-0.0748035
-0.126609
0.242941
0.0155699
-0.341476
0.0930161
0.404877
-0.0395119
0.152489
-0.266562
-0.0204947
0.321286
0.0355026
-0.153445
0.210649
0.00619395
-0.410055
0.025133
-0.152484
-0.144637
0.340544
0.0233154
0.0721775
0.0459784
-0.125835
0.0616598
-0.0750851
0.0844303
-0.0960496
-0.016734
-0.109305
0.03534
-0.0676631
-0.10219
0.00161636
-0.00779539
0.487159
-0.0412838
-0.0609614
-0.0322674
-0.0819865
-0.069165
-0.0675818
0.0122839
0.00619381
0.0262717
-0.0112009
-0.181888
0.0460523
0.200035
-0.0358886
0.00663003
-0.236402
-0.0512336
-0.0625095
-0.0661589
0.033829
-0.393166
-0.116523
-0.0596238
0.498293
-0.185543
-0.270196
-0.0928883
-0.348701
0.00131341
-0.165824
-0.389559
0.441362
0.00994579
0.0513406
-0.110103
-0.0753344
-0.0761517
-0.305439
-0.0323092
0.117728
-0.110456
-0.0706844
-0.395551
-0.0936964
-0.132816
-0.00529442
-0.156923
-0.0732822
0.0101568
-0.195078
-0.319552
0.0249041
-0.155389
0.0111173
-0.0257156
-0.149491
-0.180824
-0.002439
-0.0331631
-0.0253322
-0.0227104
-0.0419248
-0.162743
-0.0436337
0.0068816
0.00865209
-0.0783705
-0.0586915
-0.0535373
-0.263545
0.0310095
-0.200897
-0.40516
-0.15008
0.109384
-0.137383
-0.164668
-0.0941909
-0.0750727
-0.136
-0.362968
0.00310948
-0.32855
-0.0692977
-0.00617718
0.0166684
-0.198335
-0.358936
-0.367129
-0.0246326
0.00859966
-0.0948716
-0.344843
-0.358979
-0.0315389
0.0869683
0.501693
0.0275827
-0.110412
-0.409974
-0.111776
-0.345392
0.0381096
0.00700253
-0.00111843
0.1067
-0.115181
-0.0901593
-0.0596131
0.0665941
-0.0946504
-0.364753
-0.0771959
-0.21769
-0.410653
-0.0893515
0.453193
0.0262417
0.00931204
-0.0837165
-0.0117504
-0.0197958
0.0233325
0.51815
-0.104207
-0.408713
-0.208805
0.0202298
-0.229115
-0.102999
-0.0128223
-0.41334
0.222557
0.103848
-0.0324638
-0.395192
-0.32042
0.02372
-0.299193
-0.142908
-0.400385
-0.346526
-0.158441
0.00567323
-0.0338067
-0.280929
-0.0602767
-0.0944325
-0.109794
-0.354942
-0.166384
0.0645014
0.0732332
0.00155105
0.0513239
-0.378699
-0.0807746
0.0302122
-0.412732
-0.0958892
0.0099924
0.0711918
0.00609016
-0.183741
-0.0239849
0.503593
0.0950901
0.00379612
-0.00189344
0.328184
-0.179007
-0.108918
-0.00852925
-0.112485
0.0350857
-0.0422606
-0.0718797
-0.350644
-0.0806545
-0.341415
-0.00896357
-0.0018431
0.00704279
-0.0744862
-0.000355668
0.00516913
-0.156135
-0.116007
-0.134316
-0.0203042
-0.300465
-0.078403
0.00634381
-0.373486
-0.136956
-0.0803042
0.477823
0.00565945
-0.412122
0.0858655
0.0490657
0.0807777
-0.0116243
-0.0919546
-0.00532015
-0.0390395
0.154391
-0.0606128
-0.0807988
0.0114181
0.00252208
-0.0365824
-0.0178061
-0.193145
0.0559287
-0.176637
-0.050839
-0.177174
-0.0405805
-0.116122
-0.00942605
-0.255743
-0.0297899
-0.0123393
-0.403782
0.32545
0.350782
-0.108719
0.163
-0.10764
0.033268
-0.310182
0.0307077
0.000272508
0.328759
-0.0730272
-0.40975
-0.38584
-0.183443
-0.273803
-0.208051
-0.298805
-0.0132332
-0.060167
-0.0739349
-0.224019
0.10143
-0.273226
-0.098546
-0.0339415
0.0417743
0.013834
-0.287775
0.45555
-0.0488372
0.0167755
0.023621
-0.0572482
-0.10653
-0.277564
-0.135816
0.00602259
0.391781
-0.18309
-0.22939
-0.155144
-0.00603433
-0.0450633
-0.227802
-0.00113195
-0.181933
-0.10169
0.0302689
-0.0348084
-0.160941
0.341172
0.0512265
-0.116254
-0.0510428
-0.194737
-0.0663359
0.0549395
-0.0429317
-0.326286
-0.00188386
0.0671001
0.502527
-0.374711
-0.131522
-0.157464
-0.0608803
0.109684
0.0226017
-0.379078
-0.068655
-0.0286052
-0.0846896
0.00750484
0.00728992
0.51701
0.0247525
0.00556581
0.0165696
-0.12862
0.0535257
-0.0540293
-0.109165
-0.261451
-0.20221
0.0231354
-0.0269092
0.22271
-0.256704
-0.182074
0.125804
-0.178239
-0.113993
-0.301621
0.00730831
-0.309029
-0.0767797
0.00699205
-0.048674
-0.0114161
0.434607
-0.202593
-0.0315089
0.494613
-0.253428
-0.00457628
0.0516653
-0.060326
-0.098041
-0.0743226
-0.0123394
-0.373274
-0.0593865
0.446357
0.016358
-0.21902
-0.0721689
0.139398
-0.365342
-0.0681436
-0.011106
-0.083259
-0.248578
-0.0913155
-0.0697292
-0.294604
-0.00854377
-0.243617
0.00884279
-0.388814
-0.00976059
0.248135
0.0562826
0.00468604
-0.148022
-0.19597
-0.184927
-0.151608
0.0371608
-0.131892
-0.00319689
-0.342389
-0.0823302
0.0334155
-0.0190601
0.160183
-0.0258989
-0.118865
-0.128076
-0.304034
-0.134149
-0.0312999
-0.0331423
-0.166451
0.0708252
-0.125981
-0.0096146
0.0211501
-0.305425
-0.201417
-0.165235
0.343112
0.00872303
-0.217229
-0.00481437
0.0974996
-0.379015
-0.399852
0.0240777
0.017515
-0.0739778
0.100133
0.0496318
-0.149289
-0.240702
-0.0178768
-0.0133774
0.0234971
0.00540114
0.296174
-0.0217334
-0.0615256
-0.179316
-0.0706576
-0.0136718
-0.080625
-0.300973
-0.0946513
-0.0122866
-0.409328
0.0282178
-0.231592
0.160808
0.183037
0.00182465
-0.293736
-0.387495
-0.0776531
0.00266708
-0.149111
-0.0216709
0.103232
0.0464594
-0.0636628
0.0675587
-0.343641
-0.0871043
-0.127097
0.0253667
-0.271831
-0.0720227
0.00765321
0.427957
-0.0119929
-0.0610326
-0.0988277
0.0446595
-0.370868
0.0109582
0.438719
0.0462378
0.00563412
-0.402529
-0.111489
0.0822317
0.166553
-0.080883
-0.12984
-0.0928758
-0.0623313
0.0341451
-0.0623491
-0.107928
0.0841072
-0.0673092
0.0383857
-0.10365
-0.0711585
-0.0414274
-0.150702
-0.0114898
-0.101838
0.0904608
-0.331982
-0.345757
-0.358973
-0.312786
-0.223839
0.0903166
-0.0307371
-0.12678
0.0965069
0.0348543
-0.339338
-0.180658
0.0643083
-0.0514136
-0.0683766
-0.0713413
-0.0873334
-0.228509
0.00622
-0.0610254
-0.0806796
0.0448502
0.00952588
-0.0944195
-0.0156266
-0.0723756
0.0574115
-0.212058
-0.0849611
-0.11058
-0.193357
-0.191142
-0.186743
-0.00626239
-0.121519
-0.111138
-0.408399
-0.0377148
-0.0755194
-0.0808937
0.489516
0.0306299
0.0373645
-0.132494
-0.0755927
-0.401948
-0.31322
0.158397
-0.244298
0.00087198
-0.0161378
-0.290912
0.281331
0.0304219
-0.181647
-0.0512983
0.0892387
0.0534427
-0.163685
-0.0178078
-0.192518
-0.141021
-0.409727
-0.18889
-0.0600716
-0.133263
-0.395054
0.0306635
0.0347091
-0.159478
-0.0101121
0.218783
-0.409377
-0.0844635
-0.117835
-0.100619
-0.0387913
-0.201731
-0.0132051
-0.11069
0.0175471
-0.396221
-0.0126573
0.0379273
-0.102991
-0.187184
0.00513147
0.0383084
-0.393583
0.0429239
-0.146576
-0.0139397
-0.355076
-0.287818
-0.130713
0.313154
0.00252772
-0.068678
-0.102885
-0.110676
-0.0133081
-0.038658
0.00528203
-0.0984293
0.0248384
-0.0959096
0.0467455
-0.0175186
-0.327598
-0.0154223
-0.0531482
-0.0588189
0.0147929
-0.104873
-0.0119091
-0.0325373
-0.165762
-0.0733582
-0.0622358
0.0396362
-0.333235
-0.0740611
-0.181519
-0.00436013
-0.116046
-0.033363
-0.109796
-0.103656
-0.0960516
-0.25103
-0.229277
-0.245952
-0.303606
0.116545
-0.108032
0.0388852
-0.2981
0.0809778
-0.032414
0.0335755
-0.100189
-0.00881852
-0.206065
-0.1218
-0.103953
-0.265609
0.337162
0.0111597
-0.203852
0.189165
0.0564844
0.0747791
0.0343799
-0.131814
0.034433
-0.0850961
-0.0145344
-0.0705701
-0.313014
-0.0360705
0.0260395
0.0324339
-0.218896
-0.00909062
0.0338933
-0.0629374
-0.0279202
-0.0636816
0.00833984
-0.0761113
0.327662
0.117041
-0.270346
-0.386767
-0.103286
-0.258124
-0.00858849
0.0215822
0.0557647
-0.0388378
0.147451
-0.0725662
-0.119937
-0.0121923
0.03253
-0.0659721
-0.167621
-0.0121499
-0.00678171
0.110926
-0.408467
-0.0749076
-0.0577674
-0.0590456
0.0192957
-0.271877
-0.10209
0.330516
0.160451
0.0342683
0.0572637
-0.102655
-0.230906
0.0635404
-0.0278857
-0.05144
-0.103084
0.0627159
-0.373674
0.013803
-0.133794
-0.0123287
0.13039
-0.00597639
0.00445898
-0.265807
-0.312779
0.271572
-0.0572885
-0.409966
0.0416668
-0.183396
-0.0726661
-0.00828175
-0.158093
-0.117926
-0.136801
0.0226722
-0.0794309
-0.392945
-0.0290483
0.0194852
-0.0845667
-0.0773173
0.0179109
-0.0167325
-0.0287295
-0.0540716
-0.177877
-0.204933
0.317344
-0.175269
-0.00980775
0.0243839
-0.104077
-0.0111138
-0.0992655
0.118799
-0.030487
-0.133981
0.0184995
0.0338051
-0.241898
0.00705347
-0.314395
0.0216891
-0.340584
-0.0952564
-0.177009
0.0147948
0.00788356
-0.230309
-0.0119327
-0.0340244
0.0552669
-0.230518
-0.305565
-0.0965615
-0.106099
0.0638244
-0.166045
0.0645342
-0.115747
-0.0243825
0.0205326
-0.412726
-0.121234
-0.331894
-0.0269946
-0.12956
-0.122633
-0.41045
-0.184136
-0.227252
-0.102115
-0.0130357
-0.239668
-0.0230987
-0.0222277
-0.202202
-0.102976
0.0885953
0.284647
0.0788109
0.00336226
-0.0620041
-0.240068
-0.054027
0.0074613
-0.398958
0.0611211
-0.0131779
-0.0674317
0.00508334
0.0178105
-0.182084
-0.202296
-0.40644
-0.0122872
0.0749042
0.00570134
0.402665
-0.00720542
0.454966
-0.15701
-0.0921177
-0.0616435
-0.397455
0.148852
-0.260719
0.477124
0.0192625
0.0607959
0.108849
0.12624
0.4947
-0.184072
-0.368568
-0.0786492
0.508614
0.0283926
-0.129685
0.00422062
-0.412184
-0.0798956
-0.0458017
-0.0474002
-0.0330512
-0.00322485
-0.146608
-0.363603
-0.00852234
-0.0411228
-0.00192311
-0.212343
-0.0402646
-0.290008
-0.0601839
-0.339749
0.0259862
-0.00278499
-0.148023
0.429672
0.0227696
-0.105572
0.0171382
-0.219413
0.169365
-0.167701
-0.108442
-0.369294
-0.0102293
-0.0250848
-0.0927322
-0.0622484
-0.0646943
-0.0713777
0.00756792
-0.0555685
0.0233859
0.000402631
-0.0326978
0.0222395
-0.393911
-0.158381
-0.152264
-0.0702509
-0.238189
-0.251116
-0.0112053
-0.0854651
-0.0117664
0.485489
-0.0297118
0.0507507
0.0242012
0.00350918
-0.0218787
-0.178203
-0.0409933
0.431858
-0.0198288
0.162408
-0.0101986
0.487471
0.0152454
-0.0897519
-0.0798288
-0.11589
-0.371077
0.00380037
-0.102722
-0.158595
0.000459383
-0.0131305
0.0107933
-0.0748087
-0.363386
-0.0301272
-0.0199097
-0.165798
-0.12032
0.201608
-0.136376
0.0324977
-0.121848
-0.0846939
-0.0102382
-0.176101
-0.0386062
-0.0771082
0.0328953
-0.0296113
0.0176957
-0.160924
-0.0925654
-0.0115047
0.385698
-0.108408
0.00480612
-0.0194482
-0.00326073
0.405862
-0.170222
-0.152505
-0.0488713
-0.106633
0.0152058
0.0303822
-0.0440245
0.00688401
-0.168211
0.0355543
-0.0870302
-0.319761
-0.0880949
-0.0111486
-0.0664751
-0.127314
0.0155459
-0.170267
-0.087016
-0.147389
0.0980852
-0.390594
-0.144854
0.00731019
-0.186498
-0.183708
-0.0558246
-0.290677
-0.0860525
-0.0579129
-0.148916
0.00241978
-0.19278
0.285733
-0.181457
0.00575758
0.0141402
-0.0117884
0.168364
-0.0916793
-0.0955315
-0.242239
-0.402181
-0.0623951
0.0169021
0.499102
-0.0887613
-0.168862
0.0249325
0.00752122
-0.116548
-0.0867438
0.0371791
-0.089194
-0.388864
-0.182754
-0.37611
0.340961
-0.187757
-0.0665474
-0.298198
-0.0160334
-0.318267
-0.189343
-0.0272207
-0.0368599
0.000837667
-0.360135
-0.192956
-0.151117
-0.0293924
-0.358385
-0.0191444
-0.210353
-0.0855002
0.0288462
-0.0918707
-0.261385
-0.10935
-0.143314
-0.0366435
0.0366101
0.0565618
-0.0990188
-0.0899265
-0.34938
-0.170924
-0.0138431
-0.412436
-0.229412
-0.0674875
0.00393482
0.00891892
-0.0623423
0.419182
0.0117254
-0.133872
0.305207
0.19445
-0.0698593
-0.111883
-0.321816
-0.191252
0.0451209
-0.0176742
0.294105
-0.0834335
-0.36197
-0.0268747
0.194416
0.324835
0.377983
-0.0343376
0.0162317
0.372699
-0.19948
-0.336003
0.411634
-0.0595211
0.00885018
0.416013
-0.195726
0.0456278
0.282373
-0.175492
-0.0118229
-0.166447
-0.156323
0.424307
0.0178832
-0.0560718
-0.16086
-0.394098
-0.0148042
-0.0501773
-0.00120373
-0.0396505
-0.000450381
-0.127017
0.0327342
0.0991126
0.384088
-0.090981
-0.181647
0.0784953
-0.0569351
-0.0336959
-0.310398
0.272288
-0.38079
-0.017752
0.111568
-0.372361
0.331843
0.0404191
0.0817811
-0.20937
-0.15061
-0.229594
0.00738354
0.0017624
-0.00288957
-0.185922
0.0149579
0.469842
0.489146
0.402856
-0.0525331
-0.262103
-0.37046
0.00116383
-0.293034
0.030589
0.226012
-0.00707417
-0.0266198
-0.138179
-0.275564
0.00536592
-0.397326
-0.225973
0.327121
-0.246159
-0.00798602
0.00929302
-0.0854275
-0.0416091
-0.398211
-0.39061
0.0437457
-0.248194
0.00406475
-0.0178922
-0.0216927
0.0232567
-0.371474
-0.0481145
-0.349289
0.298974
-0.0347118
0.443274
-0.351937
-0.0755423
-0.363038
-0.0509289
-0.0244386
0.0230469
-0.0420088
0.466121
0.357814
-0.257242
0.02203
-0.0381809
0.133539
0.00623355
-0.0902919
0.0773766
0.180857
0.245178
0.0487621
0.0105486
-0.0128915
-0.127333
0.00740122
0.0184216
0.324418
0.0540277
-0.00139272
-0.12842
-0.00120933
-0.330719
-0.0791684
0.48628
0.0314811
0.315775
0.0189217
-0.125851
-0.0395925
-0.0397573
0.116953
-0.34733
-0.0777987
0.317352
-0.0227996
-0.0903361
-0.12368
-0.0663538
-0.254548
0.0262163
-0.259106
-0.205743
-0.0119251
0.268335
-0.220268
0.334042
0.0192075
-0.141844
0.426544
-0.212205
-0.178132
-0.0300151
-0.155676
0.0276281
0.00758982
-0.0754593
-0.118461
0.00827789
-0.075265
-0.381063
-0.0934726
-0.392331
0.414683
-0.345033
-0.269581
-0.0121086
-0.0467551
-0.0189669
0.134172
-0.213851
-0.231923
0.0500903
0.00467246
-0.01984
-0.322977
-0.0988644
-0.12915
-0.085701
0.350452
-0.41153
-0.304124
0.0118716
-0.404858
0.0267165
0.108777
0.143466
-0.0893352
-0.111939
0.107652
-0.0404591
0.287211
-0.0757535
-0.0884437
-0.394791
0.161519
-0.0586865
-0.0756415
0.0230678
0.476481
-0.152065
0.0609592
-0.37171
-0.405862
-0.0859867
0.104275
-0.0800398
-0.404293
0.0133004
-0.0220536
-0.0113883
-0.00955229
0.0576989
-0.412357
0.0506873
-0.159616
0.00218075
-0.0272963
0.447113
-0.0326094
-0.013235
0.0156095
0.0270035
-0.169629
-0.0179239
-0.412601
-0.0303554
-0.04661
-0.0320988
0.0502351
0.363469
-0.0183694
0.00987276
-0.0153532
-0.0678171
0.301143
-0.0567331
-0.085401
0.00165868
0.0902749
-0.0848124
-0.260179
0.0688075
0.014525
-0.0232409
-0.0158954
-0.284583
0.00212967
-0.0209044
-0.0583641
-0.337468
0.00135318
0.178192
0.0453449
0.0174189
-0.118335
-0.407526
-0.109837
-0.122915
-0.0583492
-0.0895922
0.0440109
0.347525
-0.247713
-0.0367734
-0.157694
-0.0687636
-0.109695
0.049934
0.025884
0.483137
-0.0519773
-0.262495
-0.157701
-0.0193257
0.0203564
-0.409279
-0.0585673
-0.0919728
0.0574041
0.0131448
-0.409477
-0.195703
-0.0150698
0.00815277
-0.0291988
0.0150486
0.0175127
0.0333179
0.177887
-0.192176
0.0150527
0.0439788
0.450946
0.0105459
-0.255176
0.0549631
-0.0306588
-0.07221
0.0051254
-0.186964
0.0606199
0.244332
0.0144206
-0.0245316
-0.330193
-0.370927
0.00549525
-0.0941818
0.204266
0.0211071
0.0827201
0.00807097
-0.0397119
-0.298281
-0.227635
-0.0651327
-0.134201
-0.0390477
-0.398703
-0.150658
-0.0275376
-0.254093
0.0614925
-0.123991
-0.153541
-0.0711103
-0.340833
-0.221154
-0.0870202
-0.0213235
-0.056646
0.0988159
-0.0184813
-0.0223646
-0.0826456
0.305161
-0.0203626
0.109717
-0.114079
0.0737855
0.41648
-0.0886897
-0.0683705
-0.303696
-0.352002
0.170315
0.100704
-0.0790817
-0.411392
-0.139772
0.0744476
-0.0193562
-0.00463045
-0.0151628
-0.0847914
-0.115977
-0.207357
-0.0241977
-0.30827
0.00655178
-0.0685486
-0.0727592
0.313276
-0.216568
0.317137
0.37886
0.0583522
0.164834
-0.00132688
0.123765
0.0138708
-0.0306342
-0.0936555
-0.0932314
0.0149986
0.0952972
-0.209689
-0.00415806
-0.0220459
0.114445
-0.412332
-0.201334
-0.145662
0.20254
0.00769073
-0.0581882
0.193399
-0.0380956
0.030191
0.0070824
-0.0249591
0.0334584
-0.0580913
-0.176103
0.00614517
-0.0172923
0.227523
0.000700619
0.10805
0.136896
0.02371
0.0117571
-0.41247
-0.012593
0.022281
-0.0134977
0.0695395
-0.0149166
-0.348021
-0.0481118
-0.253193
0.00219819
-0.024153
-0.0318363
-0.312207
-0.0719619
0.0355993
-0.0198839
-0.171665
0.102616
-0.133326
-0.00166253