/*--------------------------------*- C++ -*----------------------------------*\
| =========                 |                                                 |
| \\      /  F ield         | OpenFOAM: The Open Source CFD Toolbox           |
|  \\    /   O peration     | Version:  v2012                                 |
|   \\  /    A nd           | Website:  www.openfoam.com                      |
|    \\/     M anipulation  |                                                 |
\*---------------------------------------------------------------------------*/
FoamFile
{
    version     2.0;
    format      ascii;
    class       surfaceVectorField;
    location    "550";
    object      Uf;
}
// * * * * * * * * * * * * * * * * * * * * * * * * * * * * * * * * * * * * * //

dimensions      [0 1 -1 0 0 0 0];


internalField   nonuniform List<vector> 
20673
(
(1.09808 0.129253 1.10418e-20)
(1.10231 0.126767 -3.93615e-21)
(1.09753 0.124139 1.22459e-20)
(1.02263 0.0437733 -1.18799e-21)
(1.02138 0.0430665 1.38675e-21)
(1.02162 0.0450964 3.40738e-22)
(0.488551 -0.0636815 1.02984e-20)
(0.521782 -0.0659214 8.25622e-21)
(0.547378 -0.0672051 -1.66887e-20)
(1.06059 -0.0112014 0)
(1.06074 -0.0100742 0)
(1.05957 -0.0105166 0)
(0.996481 0.003969 0)
(0.996302 0.00355767 5.04296e-21)
(0.995999 0.00416269 -4.52707e-21)
(0.37193 0.060362 0)
(0.360185 0.0332706 4.31328e-20)
(0.343154 0.0611955 0)
(0.439807 -0.0562491 0)
(0.434394 -0.0575857 4.33955e-21)
(0.482286 -0.0605867 1.43639e-20)
(0.544805 -0.064445 6.80238e-21)
(0.497507 -0.0618181 1.57716e-20)
(0.51551 -0.0643585 3.30849e-20)
(0.377579 -0.0574169 -4.84108e-21)
(0.348547 -0.0543574 -1.66423e-20)
(0.317133 -0.0506487 -1.42761e-20)
(1.13936 0.155383 -3.01226e-20)
(1.14559 0.155359 -1.45798e-20)
(1.14312 0.161489 5.25949e-21)
(1.13173 -0.0613784 -4.85692e-21)
(1.13026 -0.0621804 -3.07464e-20)
(1.13298 -0.0629791 -4.64499e-20)
(1.10204 -0.0446406 2.29334e-22)
(1.10271 -0.0461201 -9.5853e-21)
(1.10341 -0.0442868 1.4791e-22)
(1.06155 -0.0114795 8.92553e-22)
(-0.0449978 -0.00249767 3.03162e-21)
(-0.0265612 -0.00617611 -2.16666e-20)
(-0.0503755 -0.00426674 8.87137e-21)
(0.974404 0.0989721 0)
(0.970165 0.0983847 0)
(0.97327 0.0946098 -8.62616e-21)
(0.996559 0.0942031 3.09616e-21)
(0.994233 0.0916841 2.78099e-21)
(0.997973 0.0903947 9.15461e-21)
(1.01572 0.0497352 1.00007e-21)
(1.01719 0.0493947 7.52058e-22)
(1.01601 0.0481212 4.99349e-22)
(1.14657 0.0244101 4.67441e-21)
(1.14749 0.0268181 5.78198e-21)
(1.14945 0.0237427 -5.18105e-21)
(1.10072 -0.0453829 0)
(1.10098 -0.0435473 1.41891e-20)
(1.00163 0.00520255 -1.94878e-21)
(1.00164 0.00496978 -1.31803e-21)
(1.00144 0.0047995 -4.38272e-21)
(0.999981 0.000963015 -2.43818e-22)
(0.999969 0.00129573 -1.91965e-21)
(0.999984 0.000971733 -4.10267e-21)
(0.438803 -0.0569829 0)
(0.404516 -0.0562465 1.17042e-20)
(1.00098 0.00806389 2.9952e-21)
(1.00105 0.00852533 -9.14757e-22)
(1.00117 0.0083697 1.29243e-21)
(0.584612 -0.069892 -1.99329e-20)
(0.594403 -0.0701731 -6.97966e-21)
(0.995461 0.0158953 1.91741e-21)
(0.99498 0.0156922 8.8763e-21)
(0.995221 0.0164961 4.36583e-22)
(0.490371 -0.0591392 -1.28987e-20)
(0.454668 -0.0556218 1.1314e-20)
(0.450843 -0.0570255 -1.10854e-20)
(0.788615 0.0381843 -2.09483e-21)
(0.779632 0.0437966 5.87312e-21)
(0.78086 0.0318912 3.93681e-20)
(0.761127 0.122512 0)
(0.759617 0.135048 0)
(0.750701 0.125852 0)
(0.714979 0.560604 0)
(0.746009 0.571154 0)
(0.724064 0.604476 2.18455e-21)
(1.19828 0.100271 0)
(1.19785 0.0954571 1.1401e-20)
(1.20287 0.0965433 0)
(1.11666 0.116203 -1.55448e-20)
(1.11341 0.119225 1.52338e-21)
(1.11237 0.11455 -3.01917e-20)
(1.06453 0.0940315 -2.54148e-21)
(1.06157 0.0946935 8.91755e-21)
(1.06251 0.0912853 2.74326e-20)
(0.842151 0.0729911 5.82841e-21)
(0.834375 0.0757043 0)
(0.835671 0.0662586 1.72634e-20)
(0.90806 0.00439124 9.72807e-21)
(0.910799 0.00136648 3.09572e-20)
(0.912084 0.00525256 -7.05347e-21)
(0.991715 0.0126987 4.88361e-21)
(0.99118 0.0133653 2.09609e-21)
(0.991895 0.0135985 9.10475e-21)
(1.13929 -0.0796746 0)
(1.1377 -0.0799676 9.16694e-23)
(1.11645 -0.0819473 7.73339e-21)
(1.00084 0.00772044 1.91085e-21)
(1.00098 0.00761234 -2.05674e-21)
(0.0934002 -0.0277817 -1.64686e-20)
(0.0693322 -0.0248085 9.12214e-21)
(0.0807558 -0.0255933 -1.47977e-20)
(1.06787 -0.0154352 0)
(1.06888 -0.0162728 5.64391e-21)
(0.247489 -0.00987732 -8.6399e-21)
(0.224063 -0.00663921 -1.58181e-20)
(0.251451 -0.0092633 -1.2719e-20)
(1.00871 0.000956165 0)
(1.00912 0.000940271 7.13965e-22)
(1.00827 0.000543162 0)
(0.999995 0.000680592 5.80129e-21)
(1 0.000316989 6.58857e-22)
(1 0.000347478 -4.99983e-22)
(1.02181 0.00268068 -3.38939e-21)
(1.02148 0.00285541 4.83194e-21)
(1.02137 0.00252134 8.16524e-22)
(0.696693 0.198333 -2.70809e-20)
(0.713113 0.206108 -1.07075e-20)
(0.696102 0.220161 5.66665e-20)
(1.04027 0.0258358 0)
(1.04123 0.0266191 0)
(1.04152 0.0256857 2.00814e-21)
(0.891033 0.020502 1.07159e-20)
(0.889558 0.0159369 -4.2821e-21)
(0.894964 0.0170528 -1.03758e-20)
(1.14588 0.0211454 0)
(1.14346 0.0242445 0)
(1.15189 -0.00856795 2.28206e-21)
(1.15023 -0.00629463 -7.0323e-21)
(1.14911 -0.00907501 -6.18571e-21)
(0.0908593 0.125735 -4.41074e-20)
(0.090144 0.16137 1.13187e-19)
(0.119933 0.140311 1.32825e-19)
(1.00338 0.00077255 0)
(1.00368 0.000701164 0)
(1.00362 0.00108363 0)
(1.09009 0.0175109 4.98312e-23)
(1.09111 0.0185827 2.18198e-20)
(1.09171 0.016976 -2.10799e-20)
(0.966314 0.0117576 1.01179e-20)
(0.965092 0.0104417 1.57013e-20)
(0.964724 0.0125483 -1.85243e-20)
(0.0845628 0.0958019 -1.90854e-19)
(0.051129 0.12848 -2.35173e-20)
(0.905002 0.00751406 1.29134e-20)
(0.903844 0.00307464 1.27263e-20)
(1.01545 0.0513123 1.5528e-22)
(1.01411 0.0498085 1.40431e-21)
(1.08938 0.0406521 -1.95231e-20)
(1.08855 0.0427282 -8.65425e-21)
(1.09114 0.0424788 -3.25882e-20)
(1.13347 -0.0606608 4.71824e-20)
(1.13115 -0.0595961 3.48552e-20)
(0.995672 0.0317943 1.61213e-21)
(0.995689 0.0303209 6.03395e-21)
(0.996762 0.0313239 0)
(1.07413 0.0467911 2.36268e-22)
(1.07626 0.0479006 1.74512e-22)
(1.07413 0.0492474 0)
(1.03905 0.0259525 3.75307e-21)
(1.03925 0.025027 3.48271e-21)
(0.573782 0.0561725 4.07625e-20)
(0.428027 0.0388387 -8.80332e-20)
(0.483999 0.043295 5.61956e-20)
(1.02394 0.0430773 -7.19982e-22)
(1.024 0.0450775 1.27641e-22)
(-0.043874 -2.25206e-05 3.87908e-20)
(1.00163 0.00541173 3.65503e-21)
(1.00182 0.00559469 1.77071e-21)
(0.379806 0.0953775 0)
(0.40348 0.0646992 0)
(1.10231 0.384089 9.76561e-20)
(1.06231 0.356352 -2.82704e-21)
(0.804161 0.269672 -2.05235e-20)
(0.995729 0.000178368 -3.2034e-21)
(0.995274 0.000384713 1.88973e-21)
(0.987715 -4.98233e-05 9.42043e-22)
(0.988477 -0.000130283 5.84519e-21)
(1.16849 -0.0421353 1.4415e-20)
(1.16679 -0.0434925 2.67691e-20)
(1.17033 -0.0442756 7.8333e-20)
(1.06298 0.139711 -6.30516e-22)
(1.06835 0.139797 0)
(1.06474 0.145795 1.06044e-20)
(0.996904 0.00381352 0)
(0.996628 0.00437876 6.31256e-21)
(0.440313 -0.0638533 -5.60393e-21)
(0.406534 -0.0607301 5.33303e-20)
(-0.115355 -0.015592 9.8741e-22)
(-0.0920356 -0.0186437 -7.06465e-21)
(-0.0991626 -0.01778 -6.73218e-21)
(0.996117 0.0160472 -2.04796e-22)
(0.995832 0.0150989 7.67612e-23)
(0.0909234 0.196227 -5.22983e-21)
(0.125614 0.214611 0)
(0.092903 0.234804 0)
(1.09458 -0.0528837 -1.57091e-20)
(1.09381 -0.0520647 0)
(1.09495 -0.0516375 -1.51608e-20)
(-0.120861 -0.00928249 -1.93249e-20)
(-0.0969048 -0.0131835 -6.32715e-20)
(-0.1121 -0.00935635 -3.03758e-20)
(1.05653 0.0283943 1.07837e-20)
(1.05794 0.0289877 -5.62275e-21)
(1.0567 0.0300087 1.00791e-21)
(0.468201 -0.0516776 -9.75025e-21)
(0.464838 -0.0536458 1.0235e-20)
(0.503019 -0.0559276 1.06934e-20)
(0.999938 0.0019562 -7.40771e-21)
(0.999887 0.00229072 -2.20366e-22)
(0.999907 0.0023316 3.29095e-21)
(1.00007 0.00317469 0)
(1.00009 0.00350026 -2.16156e-21)
(1.0001 0.00309995 0)
(0.996138 0.000433708 -4.2255e-21)
(0.389328 0.121632 -6.38625e-20)
(0.399785 0.151771 1.40816e-20)
(0.421148 0.127709 -1.94154e-19)
(0.121169 -0.0316644 1.46586e-20)
(0.109824 -0.031022 -5.67375e-21)
(-0.0769136 0.016241 0)
(-0.117884 0.0130998 5.60389e-20)
(-0.106922 0.0127739 4.69434e-20)
(1.05505 0.0279039 8.49602e-21)
(1.05628 0.0269925 2.80498e-21)
(1.0004 0.0044471 7.91803e-22)
(1.00045 0.00436319 0)
(1.00033 0.00401678 -2.55524e-21)
(1.12058 0.412063 8.51518e-21)
(1.20982 0.445241 5.37223e-20)
(1.08847 0.0164129 0)
(1.08817 0.0182793 7.92126e-21)
(1.0221 0.00257852 -3.08381e-21)
(1.02222 0.00290179 -1.24862e-21)
(-0.0206033 -0.0244608 1.77763e-20)
(-0.0465728 -0.0218393 -1.69024e-20)
(-0.0346002 -0.0225246 2.52112e-20)
(1.18318 0.134396 -2.95244e-20)
(1.17715 0.136468 -1.27081e-20)
(1.18059 0.140857 9.8004e-21)
(1.0245 0.0253232 -2.134e-22)
(1.02486 0.0245072 1.11574e-21)
(1.02382 0.0244656 -3.24452e-22)
(0.97499 0.0546902 -1.43059e-20)
(0.972926 0.0559446 3.91616e-21)
(0.975409 0.0572499 -4.96488e-21)
(1.18583 0.440292 -7.32119e-20)
(1.0499 0.405582 -1.19316e-20)
(0.374256 0.00618056 2.18208e-20)
(0.403033 -0.000953478 -3.3498e-20)
(0.380176 -0.0283993 7.64944e-21)
(1.14387 -0.0447253 -8.10325e-21)
(1.14565 -0.0444687 0)
(1.14516 -0.0465531 -2.42242e-22)
(1.1488 0.000557401 3.90716e-20)
(1.15147 0.000886003 1.32732e-20)
(1.14988 0.00303759 3.49267e-22)
(1.10066 -0.0629867 0)
(1.10031 -0.0639867 0)
(1.0994 -0.0633754 -1.47856e-20)
(0.594518 0.133622 4.6626e-20)
(0.614653 0.119196 0)
(0.616443 0.145639 -4.44571e-20)
(1.01144 0.00594692 -1.32208e-22)
(1.01191 0.00606385 4.33875e-23)
(1.01172 0.00646772 -6.57489e-22)
(0.841028 0.00128074 8.13162e-21)
(0.844456 0.00863409 3.10557e-20)
(0.848574 0.00186606 2.80685e-20)
(0.680355 0.191573 -2.51413e-20)
(0.698363 0.18302 4.87553e-21)
(1.06453 0.0226966 1.46833e-23)
(1.06585 0.0224809 -6.9406e-21)
(1.06477 0.0211398 -1.27602e-20)
(1.01699 0.01305 -2.87719e-22)
(1.01703 0.0124552 2.22469e-22)
(1.01762 0.0130156 1.69312e-21)
(0.396766 -0.0552287 0)
(0.387253 -0.0547961 0)
(0.461877 -0.0562116 0)
(0.818742 0.49854 -1.20565e-21)
(0.790613 0.516333 -9.4654e-22)
(0.829281 0.524508 -5.82886e-21)
(1.15306 -0.0101393 6.79406e-21)
(1.15412 -0.00794692 7.52269e-21)
(1.01879 0.0489801 -1.75058e-22)
(1.01872 0.0507886 -6.96564e-24)
(1.11503 0.12925 -7.17014e-22)
(1.11132 0.131949 -1.95074e-21)
(1.11612 0.134304 -1.62019e-20)
(-0.15766 -0.0131635 0)
(-0.187102 -0.0123752 0)
(-0.1742 -0.0126814 0)
(0.263642 -0.012824 2.17763e-20)
(0.240559 -0.00920779 1.21347e-20)
(1.10461 -0.0518472 -5.5096e-23)
(1.10358 -0.0524247 -1.55255e-20)
(1.10463 -0.0530198 1.44075e-20)
(0.396362 -0.0562924 0)
(0.335722 -0.0551097 5.53781e-20)
(0.949276 0.0102968 8.70126e-21)
(0.947894 0.0123394 4.12584e-21)
(0.94718 0.0096205 -1.27801e-20)
(0.0881077 -0.128899 9.87056e-20)
(0.0991203 -0.09906 0)
(0.0612132 -0.104375 0)
(1.00115 0.0143213 1.91555e-21)
(1.00124 0.0149908 2.54723e-21)
(1.00087 0.0146579 0)
(0.181322 0.0994077 0)
(0.211397 0.0809699 7.51269e-21)
(0.212469 0.116099 0)
(0.115366 -0.0100612 -3.14745e-21)
(0.122633 -0.0115776 2.44177e-20)
(0.135616 -0.0149411 2.66677e-20)
(0.907583 0.0154309 3.55164e-21)
(0.904768 0.0186945 2.46368e-20)
(0.909379 0.0191372 2.10953e-20)
(1.00001 0.00103189 -8.71075e-22)
(0.999988 0.00101835 2.72884e-21)
(1.17009 -0.0408568 -1.83291e-20)
(1.16705 -0.0404244 1.10037e-20)
(0.0810129 -0.0111761 2.33766e-20)
(0.100429 -0.0147979 -1.41202e-21)
(0.0934543 -0.0141442 1.15361e-20)
(0.763045 0.110639 0)
(0.774697 0.119387 1.78719e-20)
(1.00511 0.000675768 -3.38673e-22)
(1.00534 0.00098345 -1.33597e-22)
(1.00545 0.000576303 -6.79426e-23)
(0.974927 0.05197 1.27138e-20)
(0.977247 0.0532903 -3.3224e-21)
(1.03608 0.0290691 -5.51661e-21)
(1.03687 0.0300165 2.59943e-22)
(1.03572 0.0300589 -8.89414e-22)
(1.00479 0.000690887 -3.59376e-24)
(1.00465 0.000338427 1.3442e-22)
(1.01858 0.00200328 8.70267e-22)
(1.01884 0.0018331 -1.05589e-21)
(1.0185 0.00171069 9.72954e-22)
(0.346072 0.00720849 3.91156e-20)
(0.194667 -0.0300173 -2.16725e-21)
(0.184062 -0.0273158 -3.2288e-21)
(0.173511 -0.0245225 7.98399e-21)
(0.9508 0.00789534 1.24763e-20)
(0.951817 0.0106258 3.78338e-21)
(1.04216 0.0273787 0)
(1.04088 0.0276022 2.26418e-21)
(0.999969 0.000937447 7.39777e-21)
(0.999998 0.000637708 9.40219e-21)
(1.23752 0.002497 -2.75638e-20)
(1.25755 0.00602279 6.00831e-21)
(1.20525 -0.0040921 3.48207e-20)
(0.630228 -0.0746147 2.49815e-20)
(0.574476 -0.0701531 0)
(1.09831 0.134091 1.28851e-20)
(1.09383 0.131061 3.12543e-21)
(0.578193 0.144698 -8.37053e-21)
(0.578684 0.117065 2.26409e-20)
(0.995238 0.000849606 6.5524e-21)
(0.994779 0.000535569 6.98393e-21)
(0.906119 0.0114856 -6.39489e-21)
(0.910381 0.0126025 -3.16834e-20)
(1.14455 -0.0775272 -9.58295e-21)
(1.14122 -0.0775358 4.70146e-20)
(1.1334 -0.0750769 -8.02298e-21)
(1.02622 0.013725 -4.15198e-21)
(1.02615 0.0143219 -1.35436e-21)
(1.02542 0.0137712 -1.31669e-21)
(0.96357 0.0239532 4.29403e-21)
(0.961439 0.024747 0)
(0.962151 0.0221154 0)
(0.663479 0.195472 -2.80963e-20)
(0.643116 0.201663 6.00613e-20)
(0.66162 0.218419 -1.19288e-19)
(0.987504 0.000686697 8.73137e-21)
(0.986932 0.00014227 1.64982e-20)
(0.636298 -0.0646772 -1.37105e-20)
(0.561202 -0.0612506 -1.15509e-20)
(0.632276 -0.0638291 -1.97504e-20)
(0.807125 0.603596 9.41555e-22)
(0.814873 0.574364 5.64329e-21)
(0.78022 0.575269 2.0348e-21)
(0.967648 0.0133615 2.20426e-20)
(0.968193 0.0111628 3.7546e-21)
(1.02469 0.0115465 3.79855e-21)
(1.02474 0.0121202 1.16989e-21)
(1.02404 0.0116026 -2.57458e-21)
(1.05908 0.101371 8.2606e-21)
(1.0554 0.101782 -9.95973e-21)
(1.05793 0.105688 9.76794e-21)
(1.12589 -0.0196711 1.12873e-20)
(1.12753 -0.0211685 3.1846e-20)
(1.1273 -0.0183685 2.49934e-20)
(0.112342 -0.150216 2.38038e-21)
(0.0728518 -0.159579 8.38564e-20)
(1.12343 -0.0439239 -6.8265e-21)
(1.12524 -0.0443776 -3.25363e-20)
(1.12363 -0.0455383 -1.79778e-20)
(1.0243 0.185419 1.1505e-21)
(1.02746 0.180549 0)
(1.03195 0.184724 -2.96563e-21)
(1.08192 0.0666992 1.15092e-21)
(1.07975 0.0686437 1.21872e-21)
(1.07907 0.0656253 1.13382e-20)
(-0.0376773 0.0461611 3.61479e-20)
(-0.0557992 0.0518194 1.44752e-19)
(-0.0883066 0.0445861 5.42693e-20)
(1.05789 0.140172 -5.9894e-22)
(1.06084 0.135269 5.80893e-21)
(1.05939 -0.0768696 1.55915e-20)
(1.09838 -0.0740709 -7.1489e-21)
(1.11034 -0.0741515 1.56705e-20)
(-0.151532 -0.00741958 3.08249e-20)
(-0.127726 -0.00998616 2.72709e-20)
(1.27025 0.00558564 -3.52706e-21)
(1.19585 0.00313882 -2.73334e-20)
(0.941996 0.0465076 -1.10079e-20)
(0.9392 0.0481633 -4.78465e-21)
(0.939044 0.0445158 1.33852e-21)
(0.789275 -0.025153 6.81811e-21)
(0.783598 -0.0166844 -4.87563e-20)
(0.777742 -0.0276321 -3.98104e-20)
(1.00001 0.00243419 -3.01331e-21)
(1.00003 0.00234469 1.08904e-21)
(0.999989 0.00199595 -4.1627e-21)
(1.14178 -0.0456891 -2.85394e-20)
(1.14235 -0.0432973 -1.76432e-21)
(1.10595 -0.05126 2.95275e-20)
(1.10461 -0.0504927 -4.20114e-21)
(1.1011 -0.062106 0)
(1.10191 -0.0627399 0)
(1.06429 0.0240286 5.49253e-21)
(1.06323 0.0227777 -2.39726e-21)
(1.13754 -0.0102114 -1.47385e-20)
(1.13625 -0.0120004 3.72068e-20)
(1.13885 -0.0123922 5.07226e-20)
(1.03373 0.0218288 1.09503e-21)
(1.03459 0.022495 1.33394e-21)
(1.0335 0.0227342 4.33941e-21)
(0.837875 -0.00499177 -2.48589e-20)
(0.833311 0.00220199 -6.12696e-20)
(1.04971 0.179696 -1.991e-21)
(1.04246 0.17903 1.86838e-22)
(1.0478 0.172965 5.27118e-21)
(-0.290326 -0.001933 0)
(-0.306285 -0.000583402 -4.14869e-20)
(-0.277298 -0.00217919 -2.5018e-20)
(1.10126 -0.0546839 -6.75917e-21)
(1.10192 -0.0557031 2.99702e-20)
(1.10247 -0.0545473 1.04703e-20)
(1.01459 0.057802 6.38791e-22)
(1.01453 0.0596468 8.01915e-23)
(1.01272 0.058384 8.35706e-22)
(0.735586 -0.0679946 -7.80823e-22)
(0.72719 -0.06846 0)
(0.800772 -0.0682913 3.09234e-20)
(1.01616 0.203353 -1.24403e-21)
(1.01318 0.208327 -8.90248e-22)
(1.02103 0.208264 -1.2198e-21)
(0.205109 -0.0305954 3.2902e-22)
(0.220029 -0.0333213 -2.54809e-21)
(0.150342 0.0824124 3.56392e-21)
(0.151058 0.119816 0)
(0.650007 -0.0657864 -1.27967e-20)
(0.718499 -0.0658956 2.66953e-20)
(1.01322 0.0277121 2.16423e-22)
(1.01393 0.0284268 7.28093e-23)
(1.01305 0.0286101 -2.76997e-22)
(1.18883 0.133097 -2.33377e-20)
(1.1852 0.128836 -4.3872e-20)
(1.12173 0.11786 1.63325e-20)
(1.12039 0.113197 0)
(1.02695 0.0136268 -1.13962e-21)
(1.02619 0.0130988 -1.29409e-21)
(1.00037 0.00455617 1.67968e-21)
(1.00047 0.00491721 6.9652e-22)
(0.937205 0.119843 -4.34124e-21)
(0.933284 0.115838 1.20279e-20)
(0.9394 0.115309 -6.4164e-21)
(0.534378 -0.0630782 1.0567e-20)
(0.52975 -0.062949 1.83269e-21)
(1.25906 0.142642 4.74801e-20)
(1.26669 0.140756 -4.77842e-20)
(1.2676 0.147855 1.09374e-19)
(-0.0199175 0.046223 -1.194e-19)
(0.0475405 0.0607027 -5.43612e-20)
(1.12086 0.0448983 -3.68139e-21)
(1.12032 0.0474782 0)
(1.12311 0.0463402 0)
(1.11003 -0.0603544 7.84339e-21)
(1.10898 -0.0607849 1.84042e-20)
(1.10965 -0.0615876 2.74629e-20)
(1.15824 -0.0735473 -1.53344e-20)
(1.16369 -0.0753115 1.26315e-20)
(1.16628 -0.0744163 -3.99513e-21)
(-0.0306707 0.0185836 0)
(-0.0438033 0.0182073 8.41868e-20)
(1.25269 0.186849 -2.82482e-20)
(1.25309 0.180092 -2.86547e-20)
(1.26103 0.184197 6.61467e-20)
(0.999836 0.00853408 -4.54663e-22)
(0.999914 0.00811682 -4.40766e-21)
(0.999746 0.00801389 7.54154e-22)
(0.56713 0.0551491 -3.03735e-22)
(0.572723 0.075247 -3.33992e-22)
(0.547832 0.0693902 1.14047e-22)
(0.797085 0.0348231 -6.20277e-20)
(0.796246 0.045992 -1.60385e-20)
(1.0099 0.000399108 0)
(1.00953 0.000394777 -6.15885e-22)
(1.02407 0.0260004 -1.3946e-21)
(1.0252 0.0261308 2.39423e-22)
(0.867089 0.465674 -2.65523e-21)
(0.861931 0.438364 -5.30968e-21)
(0.888941 0.447302 -3.62824e-22)
(1.22298 0.49526 0)
(1.22399 0.474685 0)
(1.12178 0.441762 -1.26233e-21)
(1.08121 -0.000946391 -1.5001e-20)
(1.08242 -0.00174896 -2.06025e-21)
(1.08269 -0.000287322 1.16665e-20)
(1.00319 0.000926635 0)
(1.00317 0.000579788 1.72065e-23)
(1.13109 -0.013674 -2.56646e-21)
(1.12951 -0.0119992 0)
(1.13233 -0.0116001 0)
(1.12477 -0.021435 -3.20821e-20)
(1.12388 -0.0188124 -2.77578e-20)
(-0.130933 -0.0136976 -2.19486e-20)
(-0.137533 -0.0132167 -3.02433e-20)
(1.23247 -0.0282146 -1.47226e-20)
(1.23452 -0.0302215 5.35677e-20)
(1.24399 -0.027951 3.03669e-22)
(0.992188 0.0122566 -3.90729e-22)
(0.991711 0.0120756 4.3362e-22)
(0.994594 0.0320548 -2.23201e-22)
(0.995632 0.0330107 5.61544e-21)
(1.14635 0.0001958 4.90872e-21)
(1.14765 -0.00192853 7.45476e-22)
(0.506348 -0.0640008 1.4968e-21)
(0.561008 -0.0670445 -1.30926e-20)
(0.543797 -0.0662186 -5.68393e-21)
(0.965438 0.0229196 1.48146e-20)
(0.965171 0.0253311 -1.13173e-20)
(0.426734 -0.0579945 4.311e-21)
(0.417082 -0.0577036 0)
(0.467693 -0.0609003 -2.49641e-20)
(-0.183906 -0.00869039 6.83317e-21)
(-0.159579 -0.0102936 -3.04044e-20)
(-0.178146 -0.00855799 -3.28307e-20)
(1.1104 -0.0592072 -7.86999e-21)
(1.11144 -0.0603307 -1.04868e-20)
(1.01649 0.0129811 -1.32872e-21)
(1.01697 0.0135174 1.05464e-21)
(0.492747 0.390105 -1.24585e-20)
(0.512314 0.424983 1.92178e-19)
(0.459502 0.425859 6.38252e-20)
(1.13878 -0.000416915 0)
(1.14135 -0.000301225 0)
(1.13978 0.00188923 0)
(-0.270637 -0.00686524 -1.40723e-20)
(-0.240809 -0.00988504 9.28373e-20)
(-0.25725 -0.00636091 5.77482e-20)
(1.00321 0.0189262 -4.35444e-21)
(1.0036 0.0193539 1.43564e-21)
(1.00322 0.0197542 0)
(0.719359 0.0771688 3.64535e-21)
(0.675264 0.0749102 -5.02918e-20)
(1.01244 0.0268881 -4.3445e-22)
(1.01331 0.0268135 -1.50359e-22)
(1.19454 0.0746089 -2.47513e-20)
(1.19088 0.0723285 -4.06626e-21)
(1.19072 0.0765683 1.50372e-20)
(1.00856 0.00124428 0)
(1.00835 0.00086096 0)
(0.0732196 -0.0299171 -1.27508e-20)
(0.0495329 -0.0282439 -1.89074e-20)
(0.0670405 -0.0288033 -2.83589e-21)
(0.379233 -0.054234 0)
(0.370128 -0.0540017 -2.2122e-20)
(0.441697 -0.0545684 5.27067e-20)
(0.996017 0.0975383 3.10918e-21)
(0.999648 0.0962922 -4.594e-21)
(1.17696 0.490544 -2.25903e-20)
(1.21917 0.503283 0)
(1.1884 0.472198 0)
(1.08481 0.0674443 1.61435e-20)
(1.08347 0.0645659 8.14212e-21)
(1.01578 0.0128475 -5.98339e-22)
(1.01589 0.0122794 -2.22162e-21)
(1.13901 -0.0790709 -1.2171e-20)
(1.13858 -0.0801393 1.23814e-20)
(1.10002 -0.0548358 -2.04274e-20)
(1.10053 -0.0536103 -2.91238e-20)
(1.11874 0.0434884 -6.22694e-22)
(1.1212 0.0423843 1.08986e-20)
(0.607971 -0.0699585 -6.81169e-21)
(0.563379 -0.068736 2.23517e-22)
(0.629891 -0.0709512 -3.05464e-22)
(-0.191557 -0.00576465 1.18903e-20)
(-0.211598 -0.00537728 0)
(1.01249 0.00326444 2.38658e-22)
(1.0129 0.00331792 3.5534e-22)
(1.01268 0.00287062 -9.67622e-22)
(1.06748 0.0930638 -1.04455e-20)
(1.06673 0.0968538 -3.11618e-20)
(-0.0025885 -0.027321 9.31453e-22)
(0.00920254 -0.0278443 2.90094e-20)
(-0.129801 0.0173877 4.94808e-21)
(-0.157799 0.0150354 5.36172e-20)
(-0.133194 0.0178225 7.16807e-20)
(0.999997 0.00240137 -5.13077e-21)
(0.99998 0.00281355 1.61397e-21)
(1.00626 0.00922636 3.20174e-23)
(1.00668 0.00949266 7.07855e-22)
(1.00644 0.00970263 0)
(0.288519 -0.00941463 -1.88765e-20)
(0.306193 -0.0123048 -2.29486e-20)
(1.15114 -0.0452243 1.40309e-20)
(1.1494 -0.0459176 1.28722e-20)
(1.15057 -0.0474977 0)
(1.00006 0.000132815 0)
(1.00003 0.00010132 6.93846e-24)
(1.00006 0.0001667 0)
(1.12536 -0.0764745 2.07501e-21)
(1.12249 -0.0765376 -2.00533e-20)
(1.11707 -0.0746975 1.49251e-23)
(1.18348 0.0183468 0)
(1.18236 0.0150818 1.0798e-20)
(1.17971 0.0180457 -2.42132e-20)
(0.79853 -0.0250376 6.99539e-20)
(0.794024 -0.0346922 7.02113e-20)
(1.0948 0.111873 -2.85981e-22)
(1.09783 0.115502 -2.55441e-22)
(1.09852 0.110431 -2.92651e-20)
(1.00003 0.00276778 2.68464e-21)
(1.00005 0.00232611 3.32932e-21)
(0.981747 0.214603 -4.97194e-21)
(0.983201 0.204874 -6.27442e-21)
(0.973398 0.209055 -1.5022e-21)
(-0.157537 -0.008685 1.07767e-20)
(-0.155381 -0.00781095 5.19039e-20)
(-0.186404 -0.0048515 -1.39462e-20)
(1.04328 0.00416328 -3.64671e-21)
(1.04354 0.00347785 1.16938e-20)
(1.04435 0.00405056 2.66788e-21)
(1.20503 0.148927 1.81021e-20)
(1.1994 0.152252 1.99493e-20)
(1.20006 0.144467 6.61649e-20)
(0.568041 0.162327 -4.53281e-20)
(0.583419 0.183149 -4.14769e-22)
(0.553476 0.188349 -5.12412e-20)
(1.03528 0.0281007 3.94374e-22)
(1.03638 0.0279842 -4.62275e-21)
(0.995763 0.0290085 5.11273e-22)
(0.994788 0.0293953 5.72351e-21)
(1.11766 -0.0378068 -1.54733e-20)
(1.11944 -0.0386639 0)
(1.11762 -0.0395862 1.14085e-20)
(0.317546 -0.0184469 0)
(0.303595 -0.0156278 0)
(0.300936 -0.0157857 -4.28605e-21)
(1.12158 -0.0437428 2.32083e-20)
(1.1232 -0.042328 -1.33133e-20)
(0.940158 0.12428 -9.54611e-21)
(0.934513 0.125446 -8.68333e-21)
(0.978376 0.0988761 -6.70203e-21)
(0.975736 0.102707 0)
(1.00005 0.000288268 -6.62562e-23)
(1.00005 0.000250564 1.05949e-21)
(1.00002 0.000168719 1.19638e-21)
(0.0626113 -0.00830588 -1.34242e-20)
(0.0693936 -0.00871025 2.00557e-20)
(0.543867 -0.0368328 3.17791e-20)
(0.630908 -0.0393176 2.29442e-21)
(0.626132 -0.0369716 3.3453e-20)
(1.11936 -0.0777605 7.18129e-21)
(1.12253 -0.0790711 1.28133e-20)
(1.1223 -0.0798467 1.80188e-20)
(1.01522 0.0127725 2.36086e-21)
(1.01571 0.0133427 3.55216e-22)
(-0.165074 -0.0121144 3.58601e-20)
(-0.139399 -0.0148777 -2.18721e-20)
(-0.149882 -0.0134731 2.85942e-20)
(-0.0257453 -0.0106399 9.92022e-21)
(-0.0210182 -0.00951073 -4.42295e-21)
(-0.0461781 -0.00661805 1.08149e-20)
(1.00177 -0.0771135 0)
(1.0207 -0.0773104 1.02021e-20)
(0.466402 -0.051827 -1.41817e-20)
(0.437811 -0.0508741 -9.13002e-21)
(1.09536 -0.0535036 -1.14337e-20)
(1.0943 -0.053809 1.03603e-20)
(1.00002 0.00322402 -2.79563e-21)
(1.00652 0.000759918 -2.70545e-22)
(1.00618 0.000811181 4.47318e-23)
(1.00658 0.00119303 3.8224e-23)
(1.14539 0.0189742 1.65981e-22)
(1.14272 0.0186641 -2.0759e-20)
(1.14469 0.0164077 1.73092e-22)
(0.00852047 -0.0223406 -2.49414e-20)
(-0.00935762 -0.0193827 1.63973e-20)
(-0.0144238 -0.0192094 -3.73941e-21)
(1.17205 -0.0193946 -1.01746e-20)
(1.17383 -0.0174746 4.28314e-20)
(1.17475 -0.0207307 6.42507e-20)
(1.07196 0.0459049 8.14272e-21)
(1.07393 0.0446901 -1.08576e-20)
(1.22489 -0.0278562 1.67413e-21)
(1.18283 -0.0352034 1.63298e-20)
(1.08736 -0.0370243 -8.51756e-23)
(1.08636 -0.0363281 -7.40969e-21)
(1.01847 0.00111713 3.74234e-22)
(1.01844 0.00139115 -4.09394e-21)
(1.0187 0.00125192 -9.37781e-22)
(0.908172 0.0271534 1.56354e-20)
(0.900251 0.0213363 -1.49941e-21)
(0.808973 0.00833705 9.23308e-20)
(1.00206 0.00507729 -8.93182e-23)
(1.00206 0.00485253 -9.03407e-23)
(1.00186 0.00471769 -5.42485e-24)
(0.734839 -0.0689667 -6.26143e-22)
(0.665343 -0.067934 3.14194e-22)
(1.07987 0.000175053 3.8736e-21)
(1.07953 -0.00130749 -9.8471e-21)
(1.00006 0.000102919 0)
(1.0001 0.000162877 0)
(1.00251 0.111504 4.91503e-21)
(1.0013 0.116232 1.79588e-21)
(0.998442 0.111765 -3.89775e-21)
(1.02241 0.19121 1.68373e-21)
(1.01793 0.185784 2.13249e-22)
(0.778322 -0.00689281 5.44258e-20)
(0.788603 -0.00639735 -1.95244e-21)
(1.1326 -0.0791646 6.84926e-21)
(1.12874 -0.0768458 0)
(1.00006 0.146319 -4.01106e-21)
(1.00033 0.152488 -2.86731e-21)
(0.994292 0.148378 3.0686e-21)
(1.04639 0.0103834 -6.63659e-22)
(1.04705 0.011264 -4.54152e-21)
(1.04588 0.0110395 -2.45586e-21)
(1.25133 0.0218331 2.62754e-20)
(1.25494 0.0259097 5.58186e-20)
(1.27321 0.022828 5.44852e-20)
(0.646052 -0.0706925 0)
(0.582418 -0.0701272 0)
(0.468699 -0.0421006 1.14372e-20)
(0.474234 -0.040752 0)
(1.00276 0.0186729 -8.06159e-22)
(1.00311 0.018292 -1.02636e-21)
(0.983391 -0.0747309 1.69232e-20)
(1.03201 -0.0729541 1.88349e-20)
(0.971423 -0.073875 -4.33686e-20)
(0.998502 0.000591062 -1.17891e-21)
(0.998397 0.000866841 -1.45218e-21)
(0.998209 0.000680235 -4.63179e-21)
(1.04599 0.00950479 3.15086e-21)
(1.04716 0.00965079 4.23772e-21)
(1.00104 0.0136106 -4.04127e-22)
(1.00142 0.0139384 1.9638e-21)
(0.836748 0.633897 4.2706e-21)
(0.789625 0.639618 -1.88924e-21)
(1.00163 0.000968649 0)
(1.00177 0.000844645 0)
(1.00151 0.00075979 1.56373e-22)
(1.19797 0.0766339 2.8192e-20)
(1.19811 0.0724967 0)
(1.09106 0.114243 -3.61934e-22)
(1.09139 0.109205 5.80732e-23)
(1.03282 0.0210885 -3.28205e-21)
(1.0339 0.0209027 0)
(1.13239 -0.0154291 -2.06306e-21)
(1.12962 -0.0150194 -1.66521e-20)
(1.03888 0.0602874 -1.32019e-21)
(1.03983 0.0585348 0)
(1.04122 0.0604065 0)
(0.119452 0.0619069 -1.43139e-19)
(0.107003 0.0459233 3.84973e-20)
(0.104624 0.0779832 -1.69514e-19)
(1.01983 0.197966 6.68284e-22)
(1.01239 0.198288 0)
(1.17393 0.13066 -6.80759e-21)
(1.17089 0.13684 -4.82908e-22)
(1.03147 0.0149642 3.73396e-22)
(1.03218 0.0156364 0)
(1.03224 0.0147683 3.80898e-21)
(0.996682 0.0286057 -5.50462e-21)
(0.995818 0.0277992 -5.51101e-21)
(-0.177642 -0.0107481 1.02136e-19)
(-0.198793 -0.00998342 -7.25129e-21)
(-0.204177 -0.00996392 4.95557e-20)
(0.0621256 -0.0106602 -1.46674e-20)
(0.0546848 -0.0103138 7.58e-21)
(0.0756714 -0.0141585 7.44295e-21)
(1.00124 0.0156778 5.15484e-21)
(1.00157 0.0153373 -1.39966e-21)
(1.00723 0.000702767 1.14831e-22)
(1.00767 0.00094844 -7.729e-23)
(1.00726 0.00124242 -8.66727e-23)
(0.900136 0.0261883 -5.45424e-20)
(1.01851 0.0359745 -6.7186e-22)
(1.01637 0.0261967 -2.78583e-22)
(1.01664 0.0272143 -2.30599e-22)
(1.01747 0.0267201 -1.16849e-21)
(-0.066709 -0.0214665 0)
(-0.083697 -0.0193861 -1.24176e-20)
(1.03067 0.0144806 4.02229e-22)
(1.03066 0.0153266 1.81868e-21)
(0.0783224 -0.0304231 -4.26829e-22)
(0.0966085 -0.0320198 -2.65384e-20)
(1.05092 -0.00433402 -2.862e-21)
(1.05039 -0.00503991 2.98012e-21)
(1.05138 -0.00503493 1.6869e-21)
(1.21674 0.328565 3.08996e-20)
(1.20435 0.327655 -2.47837e-20)
(1.20941 0.34063 -1.42757e-21)
(1.10777 0.00565829 -3.92243e-20)
(1.10758 0.00767908 3.22298e-21)
(1.10978 0.00676788 -7.04969e-21)
(0.0976519 0.309796 2.66111e-20)
(0.0960405 0.269622 -6.62685e-20)
(0.131155 0.287157 -7.15733e-21)
(0.945219 0.0476614 8.29925e-21)
(0.944742 0.0442233 1.0126e-21)
(1.29656 0.0149643 0)
(1.2809 0.0129827 0)
(0.515975 0.29709 -6.15843e-20)
(0.489126 0.307466 7.83812e-20)
(0.517072 0.329633 2.12171e-20)
(1.00657 0.111754 3.41986e-21)
(1.0041 0.108347 5.62354e-22)
(1.15196 -0.043648 1.0426e-20)
(1.15285 -0.0451608 -5.28551e-21)
(0.951894 0.513923 -1.56417e-21)
(0.969075 0.532104 -1.79747e-20)
(0.939699 0.537149 -1.4136e-21)
(0.997507 0.0457795 7.06833e-23)
(0.995984 0.0452799 -4.34057e-21)
(0.996428 0.0471686 -9.56987e-22)
(0.145755 -0.0283105 9.88827e-21)
(0.121391 -0.0246838 3.13605e-21)
(0.131253 -0.0254806 -1.36378e-20)
(0.582221 0.0439434 7.63967e-20)
(0.561527 0.0350149 7.24825e-20)
(-0.00933053 -0.0129743 0)
(-0.027409 -0.0111728 8.58812e-21)
(0.923312 0.0209088 3.41063e-20)
(0.919716 0.0221875 -2.63719e-20)
(0.92254 0.0249442 1.60303e-20)
(0.174717 -0.0101001 -5.76741e-21)
(0.151652 -0.00642847 -3.59898e-20)
(0.178143 -0.00930046 -1.75115e-20)
(1.07071 0.0921922 0)
(1.07312 0.0956572 0)
(1.07419 0.0920248 8.7286e-21)
(-0.106631 -0.00283627 7.22738e-20)
(-0.077468 -0.00225613 -1.27364e-20)
(-0.0668659 -0.00363108 6.91072e-20)
(0.522386 0.265964 -2.68816e-21)
(0.547785 0.289208 -4.67164e-20)
(0.928434 0.354756 3.95828e-21)
(0.911817 0.352323 5.60528e-21)
(0.920891 0.369996 0)
(0.946587 0.360285 3.51523e-21)
(0.938232 0.341776 4.16119e-21)
(0.461669 -0.0629228 1.63894e-20)
(0.434557 -0.062493 1.35774e-20)
(0.999767 0.00254713 3.87828e-21)
(0.999706 0.00285876 0)
(0.999736 0.00289459 -3.88873e-21)
(1.05666 0.178619 3.11142e-21)
(1.05364 0.185595 1.1067e-21)
(-0.124081 -0.0150124 -1.73561e-20)
(-0.137399 -0.0141332 -5.74539e-20)
(0.983738 0.0313343 8.50101e-21)
(0.982824 0.032272 1.22512e-21)
(0.982464 0.0305485 -1.27395e-21)
(1.00356 0.0763749 -1.13629e-21)
(1.00433 0.0739332 5.69564e-21)
(1.00155 0.0744248 6.87735e-21)
(-0.00612017 -0.010261 2.78221e-20)
(0.000623832 -0.0103205 -2.03476e-20)
(0.84382 0.48437 0)
(0.876245 0.492568 -2.50283e-21)
(1.01834 0.0544333 1.56311e-23)
(1.01832 0.0560975 4.5284e-22)
(1.02022 0.0555448 0)
(1.15019 -0.0712885 -1.57005e-21)
(1.14718 -0.072119 -1.16472e-20)
(0.679888 0.55571 0)
(0.70616 0.527578 0)
(1.00937 0.00527693 0)
(1.00982 0.00555357 0)
(1.00973 0.00504923 8.47197e-23)
(0.108186 -0.00985018 0)
(0.0892451 -0.00680395 1.54015e-20)
(1.15083 -0.0766801 -1.38911e-21)
(1.14513 -0.0793755 -8.023e-21)
(1.14954 -0.0762404 8.73679e-21)
(1.00206 0.00529739 2.38147e-23)
(1.00227 0.00544872 1.58569e-21)
(1.01027 0.0136593 -1.10249e-22)
(1.00974 0.0132659 -3.03503e-22)
(1.00993 0.0139188 1.35485e-22)
(0.998491 0.00029635 -5.80581e-21)
(0.998731 0.000469859 3.86968e-21)
(1.02542 0.0115133 3.32415e-21)
(1.0247 0.0110427 -3.30029e-21)
(1.24314 0.0227451 -3.05386e-20)