/*--------------------------------*- C++ -*----------------------------------*\
| =========                 |                                                 |
| \\      /  F ield         | OpenFOAM: The Open Source CFD Toolbox           |
|  \\    /   O peration     | Version:  v2012                                 |
|   \\  /    A nd           | Website:  www.openfoam.com                      |
|    \\/     M anipulation  |                                                 |
\*---------------------------------------------------------------------------*/
FoamFile
{
    version     2.0;
    format      ascii;
    class       volVectorField;
    location    "1000";
    object      U;
}
// * * * * * * * * * * * * * * * * * * * * * * * * * * * * * * * * * * * * * //

dimensions      [0 1 -1 0 0 0 0];


internalField   nonuniform List<vector> 
13917
(
(1.09577 0.120724 -2.43869e-20)
(1.02032 0.0413652 1.5778e-21)
(0.598592 -0.0742219 0)
(1.05521 -0.01048 1.76543e-20)
(0.996213 0.00298919 1.18797e-20)
(0.358725 0.0536582 -1.61804e-20)
(0.525479 -0.0638093 2.38396e-20)
(0.602307 -0.0726365 1.17231e-20)
(0.410371 -0.0604591 1.75282e-20)
(1.13931 0.149504 0)
(1.11238 -0.064336 4.24896e-21)
(1.09065 -0.0440872 0)
(1.05569 -0.0112204 -1.05215e-20)
(-0.0060164 -0.00504647 5.67157e-20)
(0.971555 0.0934362 0)
(0.994752 0.0881575 6.89502e-22)
(1.01471 0.0465109 -1.50354e-21)
(1.13977 0.0191829 0)
(1.08961 -0.043563 5.70244e-21)
(1.0015 0.00474155 0)
(0.999976 0.00102418 4.03357e-21)
(0.50372 -0.0622576 -2.58947e-20)
(1.00092 0.00776432 6.37463e-21)
(0.661556 -0.0774062 3.55568e-20)
(0.994803 0.0146688 2.50922e-21)
(0.536796 -0.0593558 0)
(0.782855 0.032898 4.82629e-20)
(0.757339 0.120688 -7.33446e-20)
(0.733471 0.570154 7.315e-21)
(1.19353 0.0896986 -9.72445e-20)
(1.11019 0.110668 0)
(1.05984 0.088752 -5.1615e-22)
(0.837051 0.067766 -4.94697e-20)
(0.910264 -0.000280469 4.21589e-20)
(0.991275 0.0115946 0)
(1.11592 -0.0808743 -6.15864e-20)
(1.00084 0.00733266 0)
(0.11909 -0.0303646 5.50761e-20)
(1.06205 -0.0158078 0)
(0.301578 -0.00846428 0)
(1.00852 0.00080058 0)
(0.999986 0.000441449 -1.15327e-20)
(1.02067 0.0025352 1.5225e-21)
(0.703012 0.203417 -8.78376e-20)
(1.03854 0.0244565 7.40121e-21)
(0.891581 0.0134841 6.02992e-21)
(1.13725 0.0174091 0)
(1.1405 -0.0140632 -3.98579e-20)
(0.10424 0.136325 3.28046e-20)
(1.00347 0.000777871 -1.1313e-21)
(1.08496 0.0146567 0)
(0.965184 0.00888271 1.98332e-20)
(0.0752424 0.115118 0)
(0.905621 0.000967562 0)
(1.01352 0.0474821 -1.49548e-21)
(1.0848 0.038323 2.34135e-20)
(1.11356 -0.0636249 1.41162e-20)
(0.995243 0.0292323 -1.04577e-20)
(1.07082 0.0446175 0)
(1.03712 0.0240098 -9.41763e-21)
(0.549749 0.047148 1.34231e-19)
(1.02184 0.0414475 -1.21125e-21)
(-0.0210835 -8.22761e-05 -4.19604e-20)
(1.0016 0.00512784 -4.56925e-22)
(0.385668 0.0658823 0)
(1.04665 0.349812 2.87305e-20)
(0.995433 -0.000892458 1.61701e-20)
(0.988027 -0.00200027 0)
(1.15435 -0.0516649 -1.41874e-20)
(1.06288 0.135116 2.10254e-22)
(0.996605 0.00315904 -1.14608e-20)
(0.470085 -0.0680424 -3.41864e-20)
(-0.0905149 -0.0181045 0)
(0.995394 0.0142963 -4.01309e-21)
(0.105789 0.209958 -1.30055e-19)
(1.08335 -0.0493956 2.38976e-20)
(-0.096984 -0.0120383 1.36778e-20)
(1.0536 0.0269269 1.44523e-20)
(0.547696 -0.0522272 -8.50227e-21)
(0.999896 0.00208372 0)
(1.00008 0.00316864 -5.67747e-21)
(0.995989 -0.00074714 -2.61899e-21)
(0.404839 0.129135 1.35802e-19)
(0.146086 -0.0349852 -2.35188e-20)
(-0.0936485 0.0145956 0)
(1.05254 0.0257585 -1.97596e-20)
(1.00036 0.00408116 0)
(1.19091 0.424788 1.83507e-19)
(1.0831 0.0145892 -2.14087e-20)
(1.02111 0.00254403 -7.51987e-21)
(-0.0150466 -0.025741 2.15615e-20)
(1.17537 0.129188 0)
(1.02287 0.0232988 9.23697e-22)
(0.973431 0.0526162 -1.00932e-20)
(1.14197 0.419625 -1.41965e-19)
(0.385958 -0.00745718 -6.3056e-20)
(1.13015 -0.0508102 8.64889e-20)
(1.14085 -0.00433527 2.5086e-20)
(1.08642 -0.058227 -2.29903e-20)
(0.608548 0.128905 2.10554e-19)
(1.01126 0.00578403 -1.45611e-21)
(0.844499 -0.000680546 -8.5777e-20)
(0.692737 0.188276 9.95757e-20)
(1.06095 0.0202394 -1.1121e-20)
(1.01635 0.0121929 -9.50813e-22)
(0.480486 -0.0613405 -6.21999e-20)
(0.813774 0.508555 -4.72094e-20)
(1.14304 -0.0152746 -4.73555e-20)
(1.01655 0.0470244 3.39243e-22)
(1.11045 0.125393 0)
(-0.164448 -0.0124844 6.61565e-20)
(0.309554 -0.00926218 -6.7388e-21)
(1.09126 -0.0502964 1.16581e-20)
(0.443437 -0.0610507 3.32125e-20)
(0.947962 0.00746938 0)
(0.0827174 -0.115407 -8.35661e-20)
(1.00071 0.0136438 -4.24348e-21)
(0.200442 0.0948394 -9.12452e-20)
(0.178548 -0.0127835 0)
(0.906966 0.0135641 0)
(0.999984 0.000863108 -3.0863e-21)
(1.15505 -0.049952 -3.2112e-21)
(0.140654 -0.0147355 -6.28544e-21)
(0.766178 0.113919 0)
(1.00516 0.000683982 3.00413e-22)
(0.974857 0.0500467 0)
(1.034 0.0279106 0)
(1.00478 0.000554989 0)
(1.01799 0.00177708 1.87997e-21)
(0.361445 0.00681934 5.30754e-21)
(0.241332 -0.03074 -4.00146e-20)
(0.950414 0.00657561 0)
(1.0389 0.025441 -9.31167e-22)
(0.999979 0.000809075 -7.69599e-21)
(1.27013 -0.00410005 -6.1534e-20)
(0.678395 -0.0809944 -5.19247e-20)
(1.09322 0.12529 0)
(0.584683 0.130051 -1.53172e-19)
(0.995114 -0.000516161 -1.53397e-20)
(0.907916 0.00931224 4.40674e-20)
(1.10593 -0.0779143 -4.23115e-21)
(1.0245 0.0131351 0)
(0.961998 0.0209609 3.08895e-20)
(0.654995 0.200192 -8.21393e-22)
(0.987382 -0.00168264 -5.49815e-22)
(0.684965 -0.0714832 -2.57782e-20)
(0.804096 0.575825 5.13831e-21)
(0.967113 0.00935486 -1.66129e-20)
(1.02319 0.0110781 0)
(1.05482 0.0978791 0)
(1.1159 -0.0234255 0)
(0.0923817 -0.149192 9.35203e-20)
(1.11007 -0.0468288 -2.12499e-20)
(1.02582 0.178852 0)
(1.07631 0.0630567 1.93072e-20)
(-0.0564361 0.0509257 0)
(1.05809 0.132419 0)
(1.13977 -0.0874243 0)
(-0.119157 -0.00944979 1.4573e-20)
(1.26476 -0.00239187 6.36673e-20)
(0.939561 0.0429804 -5.89468e-21)
(0.783325 -0.0275743 -8.65608e-20)
(1.00002 0.00219542 0)
(1.12809 -0.0499233 -6.47466e-20)
(1.09203 -0.049716 0)
(1.08745 -0.0579835 1.21754e-20)
(1.06006 0.0211158 1.14234e-20)
(1.12741 -0.0162392 4.04042e-20)
(1.03191 0.0209565 2.01185e-21)
(0.837577 -0.00494704 3.04219e-20)
(1.04529 0.171687 -1.07226e-20)
(-0.291317 -0.000176289 3.25444e-22)
(1.0889 -0.0522676 1.47676e-22)
(1.01231 0.0555706 1.87313e-21)
(0.835795 -0.0803032 1.06854e-20)
(1.01529 0.199596 0)
(0.26344 -0.035104 3.80846e-20)
(0.163336 0.0966277 -3.3167e-20)
(0.743031 -0.0745059 -3.43574e-20)
(1.01231 0.0265925 0)
(1.18069 0.12402 0)
(1.11555 0.109184 0)
(1.02501 0.0127005 0)
(1.00035 0.00443971 0)
(0.93591 0.112601 1.79333e-20)
(0.591882 -0.0629468 0)
(1.25872 0.133231 -9.40832e-20)
(-0.00223479 0.0512629 8.25167e-20)
(1.11546 0.0412196 -1.61943e-20)
(1.09414 -0.0580314 0)
(1.12726 -0.0808657 0)
(-0.0432928 0.0185934 1.55418e-19)
(1.25051 0.173182 -8.53099e-20)
(0.999685 0.00759745 3.51581e-21)
(0.563369 0.0631463 1.61664e-19)
(0.793477 0.0346693 1.07652e-20)
(1.00744 0.000304294 1.68116e-21)
(1.02306 0.0242983 -1.15194e-21)
(0.874574 0.442512 6.39572e-21)
(1.21508 0.473122 1.1008e-19)
(1.07577 -0.00251097 4.60818e-21)
(1.00318 0.000694572 -1.65122e-21)
(1.12092 -0.0165646 -1.55863e-20)
(1.11401 -0.0234492 -7.86457e-21)
(-0.117913 -0.0145966 2.88476e-20)
(1.24322 -0.0379289 0)
(0.991609 0.0107584 0)
(0.994508 0.030274 1.48502e-20)
(1.13834 -0.00607235 -1.06958e-19)
(0.614332 -0.0707397 -2.03764e-20)
(0.964246 0.0213658 -3.23781e-20)
(0.509594 -0.0654133 0)
(-0.164741 -0.00907723 0)
(1.09511 -0.0578048 0)
(1.01596 0.0124574 0)
(0.494231 0.408816 1.84662e-19)
(1.13085 -0.00477454 0)
(-0.254369 -0.00757919 -7.48653e-20)
(1.00278 0.0180257 0)
(0.704488 0.0687142 4.88683e-20)
(1.01194 0.0256352 3.54334e-22)
(1.18569 0.0668744 -5.04635e-20)
(1.00834 0.000993163 -2.4178e-22)
(0.0976834 -0.0338596 -2.68972e-20)
(0.459014 -0.0602015 -1.71277e-20)
(0.99571 0.0916396 0)
(1.19262 0.475701 -2.07549e-19)
(1.07934 0.0620334 0)
(1.01527 0.0120142 0)
(1.1115 -0.0797141 4.76274e-20)
(1.08798 -0.0516318 0)
(1.11417 0.0387655 2.29768e-20)
(0.687078 -0.0787936 2.5944e-20)
(-0.184969 -0.00659046 -1.53919e-20)
(1.01226 0.00302426 0)
(1.0631 0.0898971 0)
(0.0147955 -0.0294424 3.78006e-20)
(-0.137425 0.0178136 5.84825e-20)
(0.999986 0.00245753 -2.1396e-22)
(1.0061 0.00899811 2.00193e-21)
(0.350223 -0.00791042 -3.82844e-21)
(1.13579 -0.0526642 1.05026e-20)
(1.00004 0.000132166 0)
(1.09203 -0.0736754 -1.26184e-20)
(1.17356 0.0096608 0)
(0.793199 -0.0326423 1.05737e-19)
(1.09344 0.106219 3.96125e-20)
(1.00004 0.00238783 -4.76756e-21)
(0.978842 0.2041 1.13504e-20)
(-0.155125 -0.00763999 -6.3538e-20)
(1.04079 0.00342221 0)
(1.19685 0.140071 0)
(0.570107 0.174487 0)
(1.03373 0.0266588 -5.53161e-21)
(0.994671 0.0275945 0)
(1.10555 -0.0403555 8.93509e-21)
(0.366006 -0.0147535 0)
(1.10917 -0.0455379 0)
(0.936752 0.117287 -4.15015e-20)
(0.9749 0.0960919 7.15875e-21)
(1.00004 0.000231612 -1.42918e-22)
(0.119417 -0.0102392 7.41842e-21)
(0.663755 -0.0406019 0)
(1.08637 -0.0712858 -8.18889e-21)
(1.01481 0.0122614 -3.84302e-22)
(-0.144249 -0.0136819 5.7241e-20)
(0.000739793 -0.00980059 2.01784e-20)
(1.09468 -0.0895102 0)
(0.529223 -0.0504889 2.02624e-20)
(1.08351 -0.0503201 -2.79554e-20)
(1.00003 0.0029534 -7.08178e-22)
(1.0063 0.000828365 3.25857e-23)
(1.13628 0.0124549 -3.47039e-22)
(0.0210884 -0.0237541 -7.6135e-20)
(1.16305 -0.0270808 1.01637e-20)
(1.0693 0.0425515 0)
(1.24187 -0.0384939 -5.30673e-20)
(1.0774 -0.0358216 -1.70069e-20)
(1.0179 0.00117919 0)
(0.951173 0.0184011 4.66322e-20)
(1.00191 0.00464173 3.1396e-21)
(0.797748 -0.0795537 -4.66916e-20)
(1.074 -0.00213063 -3.98555e-21)
(1.00007 0.000134331 -3.59239e-22)
(0.999465 0.10861 -5.73222e-21)
(1.02017 0.180743 2.02647e-21)
(0.783575 -0.0151677 0)
(1.09398 -0.0750605 4.05661e-20)
(0.997109 0.144086 4.90204e-21)
(1.04339 0.00994921 -6.30088e-21)
(1.24116 0.0142465 -1.11167e-19)
(0.697302 -0.0788412 1.43581e-20)
(0.564182 -0.0431833 -4.8347e-20)
(1.0025 0.0175102 4.73522e-21)
(1.06783 -0.0869153 -3.36549e-20)
(0.998383 0.000192116 3.16203e-21)
(1.04345 0.00901878 3.37883e-20)
(1.00085 0.0130143 8.16721e-21)
(0.816608 0.615705 -3.26871e-21)
(1.0016 0.000837499 0)
(1.19041 0.0666493 5.71323e-20)
(1.08893 0.106037 -2.10886e-20)
(1.03151 0.0200085 -3.4429e-21)
(1.12067 -0.018781 -5.75649e-22)
(1.03748 0.0566159 -4.6813e-21)
(0.11339 0.0583869 1.32598e-20)
(1.01447 0.194475 0)
(1.16963 0.126685 1.00355e-19)
(1.0301 0.0140899 1.13899e-20)
(0.995361 0.026634 0)
(-0.185114 -0.0100205 0)
(0.108703 -0.0130043 0)
(1.00096 0.0142394 -2.5203e-21)
(1.00717 0.000875888 0)
(1.00473 0.0270887 -2.09981e-20)
(1.0156 0.0251807 -3.05867e-22)
(-0.0677441 -0.0207782 0)
(1.02917 0.0139813 -7.26691e-21)
(0.114082 -0.0351964 4.04418e-20)
(1.04701 -0.00464069 -5.45623e-21)
(1.20929 0.322004 -1.01975e-19)
(1.10073 0.00329295 -2.59654e-20)
(0.111277 0.282205 1.39845e-19)
(0.943383 0.0427391 1.02057e-20)
(1.3015 0.00316638 4.84997e-22)
(0.510535 0.302009 -2.5782e-20)
(1.00251 0.106399 -4.63971e-21)
(1.13776 -0.0513345 0)
(0.955466 0.520509 -3.67342e-20)
(0.995506 0.0433097 0)
(0.181364 -0.0301274 0)
(0.571436 0.0421815 -1.78039e-19)
(0.00720705 -0.0127291 -4.80632e-20)
(0.921524 0.0184735 0)
(0.229251 -0.00889624 3.7719e-20)
(1.06929 0.0880753 -5.55976e-21)
(-0.0723121 -0.00297347 -2.08223e-19)
(0.528635 0.280889 9.88061e-20)
(0.921532 0.351486 1.63875e-20)
(0.937685 0.346299 -8.58263e-21)
(0.542026 -0.0716328 2.97242e-20)
(0.999718 0.00258437 -9.16107e-21)
(1.05157 0.174887 -7.72967e-21)
(-0.130312 -0.0136116 1.19542e-19)
(0.982377 0.0291338 6.59663e-21)
(1.00161 0.0712425 8.10531e-21)
(0.0238312 -0.0100565 0)
(0.861671 0.477113 -1.22129e-20)
(1.01714 0.052475 -1.17313e-22)
(1.11792 -0.0783274 -2.33586e-20)
(0.703066 0.542736 0)
(1.00929 0.00504178 0)
(0.158836 -0.00883597 0)
(1.11633 -0.0804278 2.97109e-20)
(1.00204 0.00499989 -3.2675e-21)
(1.00941 0.0129286 0)
(0.998575 4.03595e-05 2.16925e-21)
(1.02358 0.0107158 -4.64896e-21)
(1.23431 0.0119786 1.13088e-19)
(0.782377 -0.0772537 2.45864e-20)
(0.385558 -0.278414 8.67426e-20)
(-0.151267 -0.0116531 0)
(0.99784 0.0142626 6.71607e-21)
(1.20367 0.13936 0)
(-0.194049 0.0205836 -2.05386e-21)
(1.11155 -0.00762543 -4.04005e-20)
(0.489153 -0.0633774 -6.90518e-21)
(0.0500286 -0.0288147 9.69989e-20)
(0.422715 -0.0596869 1.06023e-19)
(1.01348 0.00552287 0)
(1.0837 -0.0699927 -1.51486e-20)
(1.01061 0.0125051 -2.1092e-23)
(0.833915 0.083101 -1.59838e-19)
(1.03624 0.0246735 9.1673e-21)
(0.0855898 0.330033 0)
(1.17647 0.0117644 -3.98681e-20)
(1.06454 -0.00808802 0)
(0.999561 0.00310129 -5.17714e-21)
(1.1358 -0.00473134 5.05316e-20)
(1.18662 0.125164 -2.89343e-20)
(1.15563 0.00568145 0)
(0.327055 1.09504 -7.60115e-22)
(-0.115923 -0.0037696 0)
(-0.280946 -0.00491824 1.44681e-19)
(0.983919 0.21213 -3.01186e-21)
(1.13294 0.146579 -9.82794e-22)
(1.00579 0.00855603 -1.69727e-21)
(-0.112123 0.0186786 2.48388e-22)
(0.493235 -0.0596825 -3.89068e-20)
(0.999231 0.0331783 -1.00037e-20)
(1.27711 0.00758155 0)
(0.9956 0.0104908 1.35861e-20)
(1.20965 -0.021461 0)
(1.04708 -0.00406134 6.10822e-21)
(0.999788 0.00218837 8.23761e-21)
(1.03287 0.0596984 4.97625e-21)
(0.578309 -0.0448267 1.34597e-20)
(1.0311 0.0599799 5.21541e-21)
(0.386152 -0.0185866 0)
(-0.0588951 0.0365548 5.6996e-20)
(1.1058 -0.0614881 3.30651e-21)
(0.44239 0.282336 3.09568e-19)
(0.997249 0.04298 1.14627e-20)
(0.495974 0.365905 -2.38316e-19)
(0.468614 0.306996 0)
(1.00206 0.00994369 0)
(0.826385 0.477888 3.86366e-20)
(0.98379 0.0288857 0)
(0.994347 0.0123479 -1.396e-21)
(1.19203 0.0942753 -5.67059e-20)
(1.00007 0.000347478 0)
(0.993666 0.0140799 1.97283e-21)
(1.01085 0.0123021 4.28406e-23)
(1.23623 0.0159338 9.93337e-20)
(0.999944 0.00165942 -1.48553e-20)
(0.238436 -0.0109902 -3.29784e-20)
(0.673319 -0.0549786 1.04362e-20)
(-0.128335 0.0153172 0)
(1.24606 0.179524 1.45582e-19)
(0.368265 -0.0269834 -6.16079e-21)
(-0.235516 -0.00911414 0)
(1.10947 -0.00798 6.31794e-20)
(0.998201 0.0136553 -6.20947e-21)
(1.20658 0.00957714 -1.471e-20)
(1.06176 -0.0146197 0)
(1.06788 0.0953958 2.06007e-20)
(0.999683 0.00811384 -1.1861e-20)
(0.713045 -0.0760881 1.77269e-22)
(0.555458 -0.0671851 0)
(0.728365 -0.0576556 -1.72929e-20)
(0.983569 0.0867631 -1.0606e-20)
(1.17728 -0.000213563 4.47153e-20)
(0.92491 0.0155831 2.73707e-20)
(1.06336 -0.0162899 -1.14112e-20)
(1.1535 0.00415583 3.8864e-21)
(1.01885 0.0613281 -8.50154e-22)
(1.08336 -0.0685954 0)
(1.01764 0.0458252 6.9876e-23)
(1.00159 0.000987255 0)
(-0.0362052 -0.0245999 0)
(0.259575 -0.0331143 -4.4679e-21)
(0.280117 -0.0362459 0)
(1.17915 0.208924 0)
(-0.136877 0.0112384 0)
(0.209526 -0.0351751 0)
(-0.0825713 -0.0224804 6.08743e-20)
(-0.058828 -0.013003 -8.4698e-20)
(1.01719 0.00191405 2.14002e-21)
(1.13782 0.00326924 5.13268e-20)
(1.02088 0.0611634 6.0981e-22)
(0.99218 0.0308296 0)
(1.23919 -0.0316123 -2.4604e-20)
(1.13837 0.0140778 3.28814e-21)
(1.01879 -8.83607e-05 0)
(1.15668 0.0474439 -5.40927e-20)
(1.11031 -0.00265313 -2.52554e-20)
(-0.0497608 -0.0104449 0)
(1.00223 0.0103222 0)
(1.14538 -0.0396851 7.30385e-20)
(-0.00766685 0.0117383 -5.33372e-20)
(1.22935 0.336652 -3.32088e-20)
(0.240412 -0.0150972 0)
(0.999946 0.00144741 7.96159e-21)
(0.998091 0.0336184 -5.17687e-21)
(1.01141 0.000430688 0)
(1.05298 0.136239 0)
(1.01341 0.00511925 -2.44746e-21)
(0.653762 -0.065582 1.54392e-20)
(0.397066 -0.238968 0)
(1.00001 0.13872 0)
(-0.071206 0.0269216 0)
(1.08422 0.0359515 2.97701e-21)
(1.12631 -0.0516662 -3.59299e-20)
(-0.0430918 -0.0249044 5.97737e-20)
(0.825423 0.576483 6.76358e-21)
(1.1047 -0.0607975 0)
(1.11056 -0.0796178 0)
(1.14455 -0.0413609 -7.22462e-20)
(1.15493 0.0643523 7.71207e-20)
(1.19615 -0.00684668 6.15483e-20)
(1.09349 -0.0265188 2.16454e-20)
(1.09722 -0.0639848 0)
(0.375132 0.108995 0)
(1.08904 -0.0343907 2.7781e-20)
(1.14161 -0.0238725 -1.90315e-20)
(1.01482 0.000703998 -3.07176e-21)
(1.26705 -0.0130838 -3.08148e-20)
(1.08798 0.0174805 5.88145e-21)
(1.03003 0.00358896 -1.39352e-20)
(1.04859 0.132701 9.10349e-21)
(1.05601 0.0252365 -1.53858e-20)
(-0.0467723 -0.0135936 0)
(0.467288 -0.0651729 -3.89026e-20)
(1.01489 0.0241936 3.68324e-23)
(1.01779 0.000952735 0)
(0.681675 -0.0719961 0)
(-0.257507 -0.00611947 -1.20987e-20)
(1.00006 0.000263397 2.47763e-21)
(0.218104 -0.0103819 0)
(1.05669 0.00492279 9.57688e-21)
(1.23458 0.159806 0)
(1.01425 0.0260854 -3.65664e-22)
(-0.148742 -0.0113482 -3.70747e-20)
(1.1921 -0.0739923 7.82087e-20)
(1.05776 0.095579 0)
(1.03677 0.0374092 0)
(0.393421 -0.0312385 5.32538e-21)
(1.24795 0.131865 4.93217e-20)
(-0.254805 0.0097123 -1.29051e-19)
(1.00004 0.000313603 0)
(-0.153976 -0.00965935 0)
(0.135913 0.0578692 -2.49068e-19)
(0.979498 0.0287367 7.71236e-20)
(1.03016 0.00409275 9.97832e-21)
(-0.126069 0.0150374 -2.12714e-20)
(0.318376 -0.0429445 0)
(1.10893 -0.0115236 0)
(1.00996 0.0129846 1.56511e-22)
(1.00868 0.046863 0)
(1.08143 -0.049704 -1.4202e-21)
(1.21184 -0.0250128 8.77412e-20)
(1.01923 -8.81799e-05 7.27993e-26)
(1.00895 0.01223 -5.93714e-22)
(1.00505 0.00241306 3.94011e-22)
(1.00537 0.0025262 -3.97459e-22)
(-0.169041 -0.0118402 1.75125e-20)
(1.2381 -0.0275258 -5.20489e-20)
(1.1085 -0.0101861 1.23774e-20)
(1.25719 0.120131 0)
(1.00634 0.000648975 3.91399e-23)
(1.01081 0.00549385 1.46613e-21)
(1.17389 -0.00176773 -1.01429e-19)
(0.176401 -0.0405876 -9.34677e-21)
(1.10557 0.0516601 3.04138e-21)
(1.03305 0.0212085 0)
(0.994687 0.0128192 -8.12849e-21)
(0.992334 -0.000574723 -5.28679e-21)
(0.918833 0.019293 -8.49035e-20)
(0.00235418 0.0207817 -1.64079e-19)
(1.00051 0.00386201 -3.52597e-21)
(0.99252 0.00244233 5.87504e-21)
(1.08168 -0.0688841 0)
(1.09405 -0.0250712 2.16598e-20)
(1.0998 0.0019685 -1.12609e-20)
(0.99709 0.0320973 0)
(1.02838 0.0628217 -2.75326e-21)
(1.04345 0.0940718 0)
(1.13924 -0.024606 5.09917e-22)
(0.951084 0.494131 3.20791e-20)
(1.26197 0.128261 1.10701e-19)
(1.20731 0.00565422 -8.88127e-21)
(1.16118 -0.0156897 -9.75386e-21)
(1.24038 -0.0421557 1.29482e-20)
(1.16922 0.119863 -7.85718e-20)
(1.00169 0.0169305 -2.65973e-21)
(-0.141652 -0.00985385 1.0986e-19)
(0.992682 -0.00107307 4.66256e-21)
(1.00221 0.0741216 -8.91563e-21)
(1.06647 -0.000717512 -8.0395e-22)
(1.26668 -0.014268 0)
(0.992775 0.288683 0)
(1.01005 0.00123372 1.63486e-21)
(1.23178 0.325533 3.3423e-20)
(1.20195 0.0826312 -5.80568e-20)
(-0.0937994 -0.0025484 0)
(1.16266 -0.0135982 1.13637e-20)
(0.887181 0.134561 -1.1108e-22)
(1.11267 -0.00346093 0)
(0.999426 0.0033762 5.62257e-21)
(0.493219 -0.0443984 2.24058e-20)
(1.2207 0.315397 5.91075e-20)
(0.374148 -0.0580289 4.9785e-21)
(1.01699 0.0436711 -5.97574e-23)
(1.09549 0.0413812 1.79021e-20)
(1.26025 0.115733 -1.37683e-20)
(0.0584796 -0.0308989 -5.1724e-20)
(-0.191867 0.00291608 -7.81647e-20)
(1.14352 -0.00585894 -2.86286e-20)
(1.18786 0.21057 8.9836e-21)
(0.990896 0.0871977 0)
(1.05594 0.0559654 1.20969e-20)
(0.995987 0.0325875 -6.78717e-21)
(0.889259 0.230574 0)
(0.670736 0.181978 8.60566e-22)
(0.973401 -0.00427105 8.28486e-21)
(1.12838 -0.00613196 0)
(0.568999 0.149184 8.69745e-20)
(0.388418 -0.0597639 9.53553e-21)
(-0.248164 0.0114105 7.29568e-20)
(1.03137 0.0728128 0)
(1.12444 -0.0510196 3.1947e-20)
(1.19564 -0.0730176 -7.08575e-20)
(1.00399 0.11677 2.74155e-21)
(0.967795 0.0233855 -4.3369e-20)
(0.175059 0.542672 0)
(0.663631 -0.0606612 6.00071e-20)
(0.629575 -0.0745775 2.57e-20)
(1.25227 0.103957 1.18861e-19)
(1.01787 0.00201228 0)
(0.164066 -0.0113279 0)
(1.08231 -0.0490691 -2.19825e-20)
(1.00997 0.00091978 -8.13284e-23)
(1.09318 0.0733116 0)
(1.12432 -0.0344049 -2.4132e-20)
(0.846433 0.0694541 3.72292e-20)
(1.19019 0.0850132 9.48048e-20)
(0.536523 -0.0544424 1.91587e-20)
(1.19272 -0.00746614 -5.116e-20)
(1.0899 -0.0230723 0)
(0.494109 -0.044048 1.98824e-20)
(1.05815 0.0312766 -3.74409e-23)
(-0.0794805 -0.0106933 7.12631e-20)
(0.999981 0.00218264 -6.9557e-21)
(1.00051 0.00415934 0)
(1.04452 -0.0884179 3.85813e-20)
(0.633486 -0.0617497 -3.31735e-20)
(0.376704 0.240587 1.45126e-19)
(1.05869 0.0298775 -5.76249e-21)
(1.0136 0.0536696 2.10129e-21)
(0.99295 0.00290859 5.31741e-21)
(1.07858 -0.0360258 -1.53621e-22)
(0.0782731 0.175171 0)
(1.08741 -0.0570532 1.12468e-20)
(1.05822 0.0563791 0)
(1.10486 -0.0590967 0)
(1.13338 -0.00624841 -4.36213e-20)
(1.0141 0.0268092 0)
(1.17065 0.484229 -3.17736e-20)
(1.0865 -0.0564617 -1.82754e-20)
(1.07997 -0.0641276 -1.48799e-20)
(1.0045 0.0195198 -4.17423e-21)
(1.18827 -0.0119645 3.45849e-20)
(1.05516 0.0267712 -2.57789e-20)
(-0.0152336 0.0473364 1.36661e-20)
(1.14505 0.146165 -8.40504e-20)
(1.00348 0.281663 0)
(1.09665 0.0432652 -3.85294e-20)
(1.00784 0.00285981 2.64821e-22)
(1.02795 0.00629231 0)
(1.03523 0.0284787 0)
(0.96819 0.351844 -7.78884e-22)
(0.890004 0.018552 0)
(1.2498 0.0451819 -5.10624e-20)
(0.472315 0.808909 0)
(1.12767 -0.0138471 -4.72187e-20)
(1.00882 0.00499227 0)
(1.19676 -0.000218621 -7.16434e-22)
(0.373823 0.271123 0)
(1.12571 -0.0836911 -2.10961e-20)
(1.04007 0.00394652 -6.73483e-23)
(0.89956 0.0315974 0)
(1.00841 0.0121325 5.94157e-22)
(1.07553 -0.016963 -2.33341e-20)
(1.07321 0.0442223 0)
(0.295772 -0.0432236 0)
(0.999858 0.00226504 0)
(1.2398 0.50224 1.44064e-19)
(1.07687 -0.0141225 0)
(1.11048 -0.0646022 6.67368e-21)
(1.17248 0.141352 0)
(-0.103553 -0.0160323 0)
(1.02624 0.279557 0)
(1.0083 0.0452134 1.95887e-21)
(-0.0128605 -0.0209939 4.15489e-20)
(-0.261573 -0.00309332 7.65843e-20)
(1.00604 0.0347181 0)
(1.06541 -0.00148613 2.93042e-21)
(1.19783 -0.0677508 -3.9276e-20)
(1.24406 0.10625 -1.26045e-19)
(1.16014 -0.0274876 -2.08119e-20)
(1.00016 0.000383026 2.3181e-21)
(1.03804 0.0373569 9.86549e-21)
(1.19692 0.313176 0)
(1.06508 -0.00902228 0)
(1.15548 0.00927268 0)
(1.10487 -0.0385821 -3.86435e-20)
(1.02861 0.00615672 0)
(1.11162 -0.0260087 -1.51323e-20)
(0.607986 -0.0747965 -1.36127e-20)
(1.03957 0.00240357 2.72671e-23)
(1.05282 -0.00671899 3.15306e-21)
(1.0045 0.00256282 1.00171e-21)
(0.106499 -0.0109812 0)
(0.999953 0.0009871 -6.39693e-21)
(0.983873 0.0828966 0)
(-0.286238 -0.00249056 0)
(0.993019 0.0677637 -7.45759e-21)
(0.694119 -0.06032 3.13444e-20)
(1.07521 0.0657686 -1.9555e-20)
(0.831221 0.0736538 0)
(1.00484 0.00268545 0)
(1.02263 0.21405 0)
(1.00059 0.0123298 -4.45494e-21)
(1.15297 0.0723954 3.91371e-20)
(1.00752 0.00171459 2.1075e-22)
(1.08433 0.259763 -2.64929e-20)
(1.05641 0.00568913 0)
(0.247965 0.144451 -4.56164e-20)
(0.434674 0.68401 0)
(0.173669 -0.0412766 1.16523e-20)
(1.01091 0.000414592 -1.63156e-22)
(0.999647 0.00277326 1.05214e-20)
(1.16362 0.116819 7.07668e-20)
(1.125 0.11252 0)
(0.061507 -0.0146488 -8.55634e-20)
(0.288097 -0.0516329 0)
(1.14073 0.0227974 -4.62443e-20)
(0.992634 0.0111377 0)
(1.23522 0.0140925 -9.67059e-20)
(0.343758 0.215651 -1.12015e-19)
(1.07833 -0.0644095 4.19843e-21)
(1.24614 0.0483737 0)
(1.13167 0.00876831 -6.70683e-22)
(0.579103 -0.0526721 0)
(1.08605 0.129637 -1.87366e-20)
(1.07697 -0.0345729 -3.03845e-20)
(1.20364 0.0224203 3.90871e-20)
(0.85664 0.421608 1.33061e-20)
(1.1391 0.0247555 3.28467e-20)
(0.305024 0.29189 -1.57956e-19)
(1.13952 0.0309585 -6.13102e-22)
(1.05852 -0.00537408 0)
(1.12571 -0.0358738 -2.82859e-20)
(1.00666 0.10791 7.82589e-22)
(1.03345 0.00500785 1.59122e-20)
(1.07549 -0.0160014 2.18144e-20)
(1.11221 0.120307 3.43748e-20)
(1.05068 0.0963217 -1.87647e-20)
(0.999448 0.0122128 -1.13538e-20)
(1.00678 0.000518211 0)
(1.13065 -0.0105259 3.64828e-20)
(1.06251 0.0110241 -6.12935e-21)
(1.15848 0.0107244 1.3222e-20)
(0.993334 0.0108292 -2.88783e-21)
(0.995203 0.00843522 1.8221e-20)
(0.999962 0.000782417 3.92194e-21)
(1.02423 0.0629725 1.2822e-22)
(1.02333 0.00122574 -6.50333e-21)
(1.04892 0.0821316 1.65544e-20)
(1.00399 0.00271568 1.38641e-21)
(-0.156179 -0.0106198 0)
(1.0876 -0.0443192 0)
(0.470048 -0.284884 1.18929e-19)
(1.01222 0.00520691 1.95111e-21)
(1.00007 0.00166442 -2.64261e-21)
(0.802329 0.143793 1.02825e-19)
(1.15825 0.062219 -5.91258e-20)
(0.953325 0.00250534 0)
(0.821024 0.00161129 -9.47463e-20)
(1.13499 0.196229 -3.37622e-20)
(1.01279 0.110506 1.47493e-19)
(1.07684 -0.0151156 -2.27844e-22)
(1.18364 -0.00219005 0)
(1.05114 0.0154338 8.0891e-21)
(0.999908 0.00105319 0)
(1.00562 0.00225459 2.82145e-22)
(1.03573 0.0576454 0)
(-0.315195 -0.00010731 -4.02468e-21)
(1.00005 0.00141294 7.68028e-21)
(1.18788 -0.0501677 -5.71414e-20)
(1.05029 0.084527 -7.41313e-21)
(-0.192442 0.0235511 -7.65093e-20)
(0.967302 0.223608 -1.59782e-20)
(1.14222 0.194186 0)
(1.10911 -0.0638799 0)
(1.02086 0.00637664 0)
(1 4.44185e-05 0)
(1.08877 -0.0447067 -6.65988e-21)
(0.988106 0.00292781 0)
(0.985224 0.0424946 -1.79864e-20)
(0.960936 0.000916322 3.96646e-20)
(1.01332 0.0574744 -2.34009e-21)
(0.998608 0.000723454 7.94512e-21)
(1.0854 0.0540306 3.05789e-20)
(1.00626 0.0077024 0)
(1.01671 0.000898754 0)
(1.05715 0.0914045 0)
(0.884767 -0.0247257 -3.16845e-20)
(0.0406427 -0.0104794 2.81496e-22)
(1.08131 0.10979 -2.07486e-21)
(1.03955 0.0018937 -3.2287e-23)
(1.00918 0.000960164 -7.98196e-22)
(0.0906406 -0.0357497 1.61901e-20)
(0.953703 0.359497 -3.76265e-22)
(1.00191 0.0417569 -2.57665e-21)
(1.01802 0.0430254 0)
(0.913274 0.00499514 9.14995e-20)
(1.19974 -0.0698116 -1.86222e-20)
(-0.294531 -0.00506914 2.40214e-20)
(0.894974 0.135037 3.31426e-20)
(1.05942 -0.00461479 -5.0913e-21)
(1.01188 0.00314492 0)
(1.01694 0.00105693 2.30673e-21)
(1.09046 -0.0345434 -2.36592e-20)
(1.08596 0.110805 -1.92814e-20)
(1.12378 -0.0752417 -2.69197e-20)
(0.917565 0.0184374 2.31623e-20)
(0.156729 -0.0254664 -2.13181e-20)
(1.02835 0.0425188 0)
(0.964905 0.0584924 -7.62897e-21)
(-0.303935 -0.0016588 -1.25355e-19)
(0.995417 0.00992644 -6.71502e-21)
(1.08898 0.0158552 8.44252e-22)
(1.00492 0.0312112 -4.66131e-21)
(1.00203 0.00126851 4.55159e-22)
(1.10497 0.125792 0)
(0.773532 -0.00896312 -2.42474e-20)
(1.04883 0.0274446 0)
(0.658392 -0.0609208 -1.06414e-21)
(0.321707 -0.0127603 -1.64985e-20)
(1.17679 0.136454 3.85986e-20)
(1.00199 0.0175359 3.23275e-21)
(1.02516 0.00277701 5.63559e-21)
(1.09231 -0.0574132 -1.08844e-20)
(1.20733 -0.0468183 1.41672e-20)
(1.00007 0.000431014 2.69637e-21)
(1.23035 -0.0459324 5.21483e-20)
(1.02467 0.00293202 -5.39901e-21)
(1.10868 0.115247 0)
(1.03424 -0.00134808 1.52009e-21)
(1.03455 0.0066844 -1.36216e-20)
(1.21983 -0.024354 -8.066e-20)
(1.0398 0.0159506 0)
(1.01542 -0.06122 -7.09591e-21)
(1.11393 0.0881115 0)
(0.999956 0.000719407 -7.88127e-21)
(1.02025 0.00349379 -1.61471e-21)
(0.981227 0.000633852 0)
(1.00952 0.020108 -2.20242e-22)
(1.0524 -0.00574303 -1.15233e-20)
(0.272655 0.68653 0)
(1.03836 0.00424837 -1.63728e-20)
(1.03081 0.0105433 0)
(0.363627 -0.0629375 -3.23465e-20)
(0.596442 -0.0696801 -6.23872e-20)
(1.09115 -0.0244112 2.07431e-20)
(1.11967 0.113811 3.12258e-20)
(1.14846 0.000592743 -5.70766e-22)
(1.07637 0.0239899 1.92529e-20)
(1.02439 0.0143053 -2.31144e-21)
(0.887694 0.0112398 -2.03035e-20)
(-0.124822 -0.013524 -8.72631e-20)
(1.09409 0.261076 0)
(0.998251 0.00521317 1.29444e-20)
(1.03546 0.0365654 0)
(0.319742 -0.0543859 -5.96699e-22)
(1.11295 0.0191186 3.28647e-20)
(-0.103704 -0.0133974 7.08944e-20)
(0.999958 0.000941041 1.27065e-20)
(0.950918 0.00330843 0)
(0.0887452 -0.00964515 -7.21826e-21)
(1.10538 0.0133518 0)
(1.05092 0.0260518 1.44386e-20)
(-0.308883 0.00148465 0)
(0.212911 0.238277 1.19035e-19)
(1.00979 0.0195799 1.99076e-22)
(1.19945 0.023715 0)
(1.00594 0.00236933 1.37396e-22)
(1.03867 0.0159246 -3.1222e-24)
(1.01259 0.00547877 0)
(-0.118438 -0.0168131 -9.22628e-20)
(1.02295 0.00108131 -4.30355e-21)
(1.03882 -0.00338875 -2.63808e-23)
(1.02494 0.0138766 0)
(0.96766 -0.0610917 -3.22741e-20)
(1.06152 -0.0124794 1.37299e-20)
(1.2387 0.153105 -4.53093e-20)
(0.701128 -0.0947913 7.37775e-20)
(1.03508 0.00489459 2.66982e-21)
(0.844619 0.0263502 1.32896e-20)
(1.00054 0.00366704 -4.45913e-21)
(-0.141123 -0.0115251 0)
(1.00542 0.0102555 1.05805e-22)
(1.03901 0.00371699 3.17304e-21)
(0.998668 0.00122397 -9.11591e-21)
(1.09309 -0.0581373 4.7482e-22)
(0.998497 0.00109096 1.54786e-20)
(1.19166 -0.0114354 -7.74364e-20)
(0.328684 -0.00789614 -8.00656e-21)
(0.724575 -0.0798434 0)
(0.90444 0.0320999 0)
(1.11657 -0.0797521 -1.19013e-20)
(-0.260738 -0.0039313 7.09991e-20)
(0.996518 0.0268476 -1.04049e-20)
(0.144634 -0.00824461 0)
(0.421359 0.0409819 -8.1298e-20)
(-0.238793 -0.0042765 -4.73694e-20)
(0.355293 -0.0265619 -3.40511e-21)
(0.344179 -0.0619493 3.22681e-20)
(0.11349 0.16794 -1.12765e-19)
(1.19333 0.00105126 -4.62212e-22)
(1.01034 0.0478247 1.39123e-21)
(0.521069 -0.0525337 -3.33149e-20)
(1.1048 0.0153523 -3.14429e-20)
(0.460424 -0.0566424 2.08751e-20)
(1.02949 0.00447223 -1.0133e-20)
(1.02373 0.022849 0)
(1.00334 0.0427268 5.4661e-21)
(1.00057 0.00395626 6.85666e-21)
(1.08118 0.0194617 -2.37468e-20)
(0.891169 0.0908191 6.4064e-20)
(0.109521 -0.0174351 0)
(1.02356 0.0218898 -2.33956e-21)
(0.9938 0.00373385 1.72575e-22)
(-0.223615 0.0165941 0)
(0.973077 0.451371 0)
(0.981398 -0.000637676 -3.24176e-22)
(0.811675 -0.0542322 4.48547e-20)
(1.09281 0.0559386 1.70089e-20)
(1.04473 0.0214799 -1.72968e-23)
(0.497096 0.72083 0)
(0.805473 -0.0490107 4.62087e-20)
(0.95176 0.050559 1.00175e-20)
(1.06192 -0.0117782 0)
(0.300093 -0.00882625 0)
(-0.288772 -0.00123095 1.36328e-19)
(0.222612 0.0604654 0)
(1.0338 -0.000899692 5.71276e-23)
(1.24489 0.139285 0)
(1.1985 0.0788213 6.20323e-20)
(-0.222386 0.00325936 2.53091e-20)
(0.406112 -0.0588651 -3.98354e-20)
(1.08613 -0.0516783 4.82044e-20)
(1.01532 0.0261383 -3.3248e-23)
(1.05215 0.0161487 -3.33632e-20)
(1.02695 0.0428643 4.14813e-21)
(1.01966 5.45352e-05 -2.30307e-21)
(1.02686 0.0640538 -1.39199e-22)
(1.01714 0.00167805 3.84678e-23)
(1.04583 0.0925135 0)
(1.08189 0.129464 -9.22747e-21)
(-0.0514142 0.0266144 1.39947e-19)
(1.14935 -0.0440914 0)
(1.03927 -0.00287388 8.13253e-21)
(1.18026 -0.0031901 0)
(-0.0657583 -0.0237092 5.90353e-20)
(1.10161 0.120644 -1.12986e-21)
(0.972256 0.0233463 1.46308e-20)
(-0.0877933 -0.00898089 0)
(1.0303 0.0196468 1.21849e-20)
(0.98609 0.040496 -1.12177e-20)
(0.817528 0.0628588 -7.09049e-20)
(-0.0128214 0.0337687 4.61253e-20)
(0.998421 -0.000314096 -3.83054e-21)
(1.00406 0.0198264 2.37e-21)
(0.49019 -0.064805 0)
(1.1074 -0.0774666 2.2958e-20)
(1.19048 -0.0736996 -7.69783e-20)
(1.16224 -0.0208229 4.45532e-20)
(1.11608 -0.080388 4.99277e-20)
(1.00768 0.0188765 1.22778e-21)
(1.20386 -2.46027e-05 0)
(0.971319 0.0252237 -7.97606e-21)
(1.00353 0.0107205 -2.74642e-21)
(0.969154 0.0211747 5.40736e-22)