/*--------------------------------*- C++ -*----------------------------------*\
| =========                 |                                                 |
| \\      /  F ield         | OpenFOAM: The Open Source CFD Toolbox           |
|  \\    /   O peration     | Version:  v2012                                 |
|   \\  /    A nd           | Website:  www.openfoam.com                      |
|    \\/     M anipulation  |                                                 |
\*---------------------------------------------------------------------------*/
FoamFile
{
    version     2.0;
    format      ascii;
    class       surfaceScalarField;
    location    "50";
    object      meshPhi;
}
// * * * * * * * * * * * * * * * * * * * * * * * * * * * * * * * * * * * * * //

dimensions      [0 3 -1 0 0 0 0];
oriented        oriented;


internalField   nonuniform List<scalar> 
20580
(
0
0
0
-3.00804e-13
1.98984e-13
7.9354e-14
-2.63797e-15
-3.57809e-13
0
0
0
-3.84064e-11
-1.92364e-11
4.43443e-11
6.38492e-15
1.10142e-13
-2.9467e-15
-2.72621e-13
4.54401e-13
-1.40087e-10
-9.54654e-11
2.22267e-10
5.55358e-17
0
-1.23745e-16
-2.05187e-12
1.87273e-12
7.16996e-12
6.24576e-15
-2.62844e-15
2.18542e-15
-6.36637e-13
5.10323e-13
1.85235e-12
3.78845e-13
-1.06634e-13
-4.16687e-14
3.15664e-16
0
7.46719e-17
1.61994e-15
6.07353e-15
5.45682e-16
0
1.28605e-16
-6.84782e-16
0
0
0
5.34533e-13
-2.70741e-13
5.9838e-13
0
0
0
0
0
6.66709e-15
-1.93789e-15
-1.83832e-15
3.64574e-14
6.69399e-14
-1.03053e-15
0
2.08345e-16
1.50425e-16
-1.14561e-12
-8.12849e-14
-3.08796e-12
0
0
0
-2.59192e-15
2.37141e-15
0
0
0
0
0
0
0
0
0
0
-3.85787e-13
2.73841e-12
-2.02299e-12
0
0
0
1.58911e-13
-6.2553e-14
0
0
0
0
0
0
2.26806e-15
1.81291e-15
3.68632e-15
0
0
0
-4.42432e-14
-6.14981e-13
0
0
0
0
0
0
6.3486e-13
-1.12359e-12
6.16329e-16
0
0
0
0
0
-2.49727e-07
-1.40154e-07
0
0
0
0
2.53862e-16
1.7323e-16
-1.49886e-12
-1.4297e-12
4.94054e-12
2.17273e-11
5.5939e-12
0
0
0
5.12837e-13
1.6789e-13
-1.71208e-13
7.01751e-14
1.84928e-12
0
0
0
-6.14602e-13
-1.68237e-13
9.1785e-13
0
0
-5.95491e-14
3.73666e-14
8.33849e-15
0
-1.42782e-16
2.86197e-16
-4.78799e-13
2.15062e-13
0
0
0
0
0
0
0
0
0
0
-1.91542e-12
4.9507e-12
0
0
-8.31636e-12
1.0335e-11
-2.9986e-13
-8.31711e-14
2.86232e-13
0
0
0
0
0
-4.58103e-17
-4.21484e-17
5.42447e-17
-4.89823e-16
1.12371e-12
4.02385e-13
4.88847e-13
0
0
0
0
0
0
-4.80914e-15
-3.41016e-15
6.26516e-15
6.82927e-13
8.00162e-13
-3.27488e-14
0
0
4.51475e-15
-1.96354e-14
9.53297e-15
3.53933e-15
4.01656e-14
-7.43222e-14
0
0
5.08972e-12
-3.25696e-12
1.76817e-11
0
0
1.2e-12
-6.33053e-12
2.76577e-12
-4.7356e-13
1.83422e-12
0
0
0
1.63889e-15
2.85295e-15
0
5.6391e-17
-1.57918e-16
0
0
0
0
0
1.48136e-13
-3.43731e-14
0
0
0
4.84247e-13
5.32684e-13
1.42211e-14
0
0
-1.89161e-13
5.16868e-13
-1.91603e-13
7.15584e-13
-2.20426e-07
-1.69454e-07
0
0
0
0
0
0
0
0
1.2679e-11
-4.17186e-12
-1.63269e-12
0
0
0
0
0
0
0
0
0
0
0
4.10768e-30
0
2.66451e-15
-4.37839e-16
2.91535e-15
1.93712e-15
3.93707e-13
1.90805e-12
-1.87297e-13
4.08987e-13
1.7338e-12
2.5057e-12
-2.89325e-15
4.05216e-16
2.44584e-15
1.0438e-12
3.699e-12
0
0
-1.48509e-13
2.66061e-13
-6.08002e-13
-5.46432e-13
-4.51218e-14
1.49447e-14
2.49649e-14
3.99044e-12
-1.54293e-12
0
0
1.21613e-15
4.79307e-15
-2.46338e-15
-2.55285e-15
0
-9.3229e-16
1.35173e-15
-9.56556e-15
-8.19476e-15
-6.53995e-11
2.8205e-11
1.30092e-11
7.56719e-11
-2.05808e-10
0
0
0
0
0
0
0
4.77949e-12
-1.00007e-14
-2.83087e-12
-6.98103e-13
-2.81811e-13
4.45408e-14
-1.09116e-16
1.48302e-16
-1.81531e-16
0
0
0
0
0
0
9.19876e-13
7.55243e-12
4.32223e-15
0
-6.20003e-15
0
0
0
-6.74471e-15
6.26556e-15
0
-2.02822e-15
1.20911e-13
1.72033e-14
-9.5859e-16
2.17844e-14
0
0
0
0
4.40927e-15
-7.07522e-16
0
0
0
-1.71852e-15
0
0
-3.78004e-15
1.57972e-15
2.81615e-15
3.08689e-15
4.76187e-15
2.89285e-16
0
0
1.39235e-13
1.58058e-13
4.14029e-14
8.52111e-13
5.15845e-14
0
0
0
0
0
0
-3.90699e-13
1.5269e-13
1.2261e-13
-1.63917e-12
1.97018e-11
0
0
0
0
2.01669e-15
0
0
0
-5.72886e-17
0
1.60209e-15
7.94448e-16
2.06541e-16
2.68747e-16
0
-2.25596e-14
1.13223e-13
5.48447e-14
3.5551e-12
9.38194e-13
-3.12641e-13
9.11506e-13
-2.45947e-12
-1.503e-13
0
0
6.64555e-17
0
2.03154e-16
-7.90463e-13
3.41056e-13
1.40688e-13
-3.24432e-12
1.71996e-12
-1.03555e-13
0
0
0
-3.28013e-17
0
0
0
3.04017e-16
0
0
0
0
-2.10786e-16
-1.07219e-16
0
0
-2.36886e-14
-1.17571e-14
0
0
0
-1.02869e-12
-9.2985e-12
1.18092e-11
-8.07826e-12
-6.97992e-11
5.35094e-16
1.44161e-15
-2.54382e-15
1.97751e-11
-3.49716e-11
1.36672e-11
0
0
0
0
0
0
0
0
-4.89143e-11
2.32641e-11
9.80311e-15
9.42084e-15
-1.98387e-14
0
0
0
0
0
3.94271e-14
-4.85805e-15
-1.14081e-14
-3.91804e-17
3.38085e-15
-1.32669e-07
-2.57211e-07
0
0
0
0
4.75748e-15
2.06091e-14
5.53119e-16
2.19743e-13
3.31292e-13
2.4763e-13
5.00354e-12
-6.64199e-12
-2.82952e-13
0
0
-3.68054e-15
3.76631e-15
0
0
-5.97851e-14
1.71032e-13
-1.21294e-13
-1.99285e-13
0
0
0
0
0
-1.01749e-12
1.2573e-12
-1.23075e-13
1.40116e-12
-1.72873e-13
-1.38351e-12
4.19636e-16
-1.34524e-16
-1.45233e-16
0
0
0
0
0
0
0
0
0
1.37759e-14
2.69041e-30
0
0
0
-1.82982e-16
4.86842e-17
-1.36378e-13
-1.09643e-14
1.61692e-13
-2.1139e-30
-8.62573e-16
-2.85182e-15
0
0
0
-7.4749e-14
1.05921e-13
3.29442e-15
1.66448e-15
0
-1.33297e-15
-3.94878e-14
-1.02809e-12
0
-3.46482e-13
6.86673e-12
-2.92529e-12
0
1.96336e-16
1.25863e-15
-1.15985e-13
-2.15812e-13
3.34492e-13
1.13787e-12
4.8306e-13
0
0
0
1.40589e-12
-9.50638e-13
-1.85514e-15
0
0
-4.44142e-11
-4.74778e-12
0
0
0
-1.36846e-16
-6.30565e-32
0
0
0
3.91287e-15
-2.13025e-15
-8.6449e-15
-4.56326e-17
-1.29458e-15
-9.69365e-13
1.85865e-11
-1.38648e-11
0
0
9.24205e-12
4.31093e-13
-1.99428e-12
3.22166e-15
0
0
0
1.27569e-14
-2.89177e-15
-5.7618e-14
4.51115e-14
2.113e-13
5.33747e-12
0
0
5.68546e-12
-3.19786e-12
0
0
0
0
0
0
0
-3.17235e-12
-9.36715e-14
0
0
0
0
0
0
0
0
0
2.16165e-15
-2.76568e-15
2.58926e-14
0
0
0
0
0
6.51954e-15
-5.19658e-15
0
0
1.56621e-14
1.38475e-14
-4.38645e-14
0
0
0
0
0
0
3.51653e-11
-4.28187e-11
-3.88341e-11
1.54407e-13
-1.46196e-13
-1.03231e-14
0
0
0
7.45007e-16
0
3.7953e-17
6.41545e-13
-3.37323e-12
0
-5.55152e-13
-1.89611e-13
-1.44204e-14
0
0
0
0
0
0
-2.06809e-16
6.05554e-14
-6.3557e-15
7.52844e-15
2.04585e-17
-1.98005e-17
-2.89766e-13
4.77822e-13
4.65315e-13
5.21364e-16
6.08636e-16
0
3.01725e-16
-1.0123e-15
0
0
0
-3.64168e-13
3.69588e-12
-2.32993e-12
6.33913e-15
2.1609e-12
-3.77684e-15
0
0
0
0
6.39568e-17
-9.87807e-16
-1.03956e-15
2.69172e-15
0
1.35632e-12
1.04142e-12
0
0
0
0
0
0
0
0
1.24582e-15
-2.97175e-15
0
0
-9.89713e-17
-3.60022e-17
0
0
-1.45913e-15
5.37e-14
-3.35878e-15
1.13058e-14
6.81054e-16
0
0
0
4.57265e-13
-3.35642e-12
-7.78669e-13
2.99482e-12
2.17858e-12
-1.76159e-14
0
0
5.3252e-15
-1.63405e-15
-6.41404e-16
-8.78467e-13
1.46053e-11
-1.20334e-11
-3.21717e-12
1.25261e-12
3.34907e-12
1.84943e-12
1.5285e-13
-3.6267e-11
-3.25867e-11
7.35281e-11
-7.23419e-15
5.56748e-15
7.80185e-15
9.19237e-14
8.75114e-17
0
1.21319e-15
1.02371e-15
-1.05686e-12
-1.12065e-13
2.63655e-14
0
-1.52443e-17
0
-6.92221e-13
-4.04859e-13
-1.32522e-14
0
0
0
0
7.84907e-13
-4.23597e-13
-2.97994e-13
4.53181e-14
1.10736e-15
2.82522e-15
4.26816e-17
-1.33415e-17
0
0
0
0
-6.51967e-16
0
-1.55566e-15
3.36908e-11
-6.72574e-11
0
0
-9.88222e-13
0
-1.51814e-15
1.11084e-15
0
0
0
0
0
-1.18063e-13
-5.87941e-13
0
0
0
0
0
0
0
0
0
0
0
5.78469e-16
-2.60013e-15
2.56818e-15
0
0
8.31266e-17
0
3.01348e-16
0
0
4.44668e-13
5.27211e-13
0
0
0
-2.00757e-07
-1.89123e-07
0
0
0
0
0
1.42084e-14
-3.66758e-14
1.67992e-15
-2.46468e-15
1.34473e-15
3.80351e-14
-1.20329e-14
-1.18779e-14
5.10115e-17
-6.89884e-17
-1.72748e-15
-1.72353e-15
2.54271e-15
1.22207e-10
-1.27034e-10
-1.7715e-11
6.37889e-11
-2.11058e-11
-1.6437e-13
1.38981e-14
1.05793e-13
0
0
0
8.98709e-13
2.00276e-12
0
2.63866e-14
-1.48142e-14
-1.58652e-14
2.89094e-15
9.67762e-15
2.10597e-13
-1.10755e-13
0
-5.34601e-17
7.78308e-17
-9.3862e-16
0
-2.31157e-13
2.2645e-13
-1.76902e-13
-2.56674e-14
0
0
0
-1.95331e-14
9.70616e-13
8.12277e-16
3.79744e-14
2.1781e-15
-1.79046e-15
3.27953e-15
2.87242e-15
2.73296e-14
-2.51956e-15
-1.19645e-13
-1.82592e-12
4.63497e-16
-8.61261e-17
0
0
0
0
0
0
0
0
0
-3.73047e-14
4.89445e-14
0
0
0
0
3.20336e-11
-4.20745e-13
-3.39727e-11
0
0
0
0
0
0
0
-3.17279e-14
-5.5936e-14
0
2.13413e-15
0
0
0
0
0
0
1.11419e-15
5.14274e-16
0
0
0
-4.31458e-13
-1.24656e-13
5.06891e-13
0
0
0
2.07976e-07
4.34777e-14
-1.72671e-14
-2.62107e-14
0
0
-2.73531e-14
3.01534e-14
7.55144e-15
0
0
0
-7.65103e-15
-5.46573e-15
-1.42362e-15
1.86937e-15
0
0
0
0
0
0
2.08617e-13
2.80615e-12
2.05189e-16
3.99476e-15
-1.06924e-14
7.97237e-16
1.72662e-15
1.1403e-14
1.74864e-12
-9.63345e-13
4.04078e-13
0
2.48755e-16
0
0
0
-4.19421e-13
2.5029e-13
-2.01781e-30
-1.61126e-15
-3.67315e-16
-5.1154e-16
0
1.21988e-13
-2.60113e-14
-9.62714e-14
0
0
0
-3.28325e-15
-2.16229e-16
3.60759e-15
0
0
7.55185e-14
-9.02515e-16
-3.19464e-15
0
0
0
0
3.90607e-15
2.22082e-15
0
0
1.93727e-16
0
0
0
7.26216e-13
3.4203e-13
0
4.83752e-16
-3.75026e-14
4.13283e-16
2.70543e-14
0
0
-2.12967e-13
3.80298e-12
-1.9923e-12
-1.9494e-07
-1.9494e-07
0
0
0
0
0
0
-1.75059e-13
1.42698e-14
8.75622e-16
0
0
0
0
0
-1.85948e-12
4.30475e-12
1.2826e-12
0
0
0
0
0
0
0
0
-9.84094e-15
7.87413e-15
-8.29479e-16
8.89793e-16
0
2.21774e-13
8.61815e-13
-3.41396e-14
-1.10978e-11
2.26901e-11
0
0
0
0
0
-2.85148e-12
9.30008e-12
-6.02478e-14
6.30144e-14
1.11359e-15
-2.484e-15
-5.69936e-11
1.22306e-11
8.40338e-12
0
0
1.10587e-15
-5.45895e-16
0
0
-1.07241e-13
-3.45063e-14
6.15859e-14
-1.31622e-12
6.84222e-13
1.23924e-13
6.25509e-13
9.41308e-13
0
0
1.66216e-12
-2.19872e-12
7.83401e-13
7.15425e-13
0
0
0
0
0
4.36313e-14
-5.52663e-14
0
0
0
-9.7775e-12
-9.34156e-13
-7.52169e-14
6.129e-12
4.87536e-14
1.86481e-13
0
-2.1088e-15
-7.93207e-16
5.27521e-15
2.53249e-12
-1.57352e-12
5.85375e-13
-3.09704e-14
4.14128e-13
7.24233e-13
0
0
-3.20985e-14
-1.52249e-14
2.28665e-13
0
0
0
5.98858e-12
-4.63824e-12
9.05669e-13
1.71563e-14
1.1387e-14
4.56207e-15
2.22715e-16
0
-3.52893e-16
2.11856e-15
2.32712e-15
6.00226e-11
7.84575e-12
-7.38456e-11
9.28773e-14
-4.25532e-13
-5.08693e-13
-6.50757e-15
-6.37251e-14
-1.39795e-13
4.06683e-13
3.04564e-13
0
0
0
0
0
0
-2.22008e-16
1.18276e-14
3.38762e-17
3.37787e-07
-2.23331e-07
-4.1522e-14
5.78072e-12
-4.63185e-13
-1.51551e-12
0
0
0
0
-1.91592e-15
4.83517e-15
4.29266e-15
-2.74173e-13
-7.677e-13
7.01241e-13
1.17724e-16
-4.32025e-16
1.46624e-15
0
0
0
-7.04353e-15
1.55029e-13
-2.54411e-14
4.09728e-14
4.71053e-15
7.95405e-16
-1.00758e-15
-5.11568e-15
1.17234e-14
0
0
0
0
0
0
7.96312e-14
1.08997e-15
9.28784e-14
3.99393e-16
-3.39508e-13
2.571e-13
-8.80547e-14
0
-5.84094e-16
-3.20174e-15
0
0
7.897e-15
-3.02948e-14
-1.3179e-13
-3.05534e-15
-1.02812e-29
-1.65263e-15
1.07321e-11
-4.26986e-11
0
0
0
0
0
0
0
0
0
0
0
3.94522e-16
2.51095e-16
0
0
6.07705e-15
-1.60132e-14
2.05932e-14
7.19043e-14
-7.28551e-12
1.03413e-11
0
0
6.03612e-12
-1.41115e-12
-1.92199e-13
5.6084e-12
6.20629e-15
-3.03903e-15
-4.59908e-15
0
0
0
-2.42815e-13
1.23868e-13
3.28113e-14
-2.79741e-13
-1.68614e-13
2.8277e-13
-1.18658e-15
-3.6479e-16
0
0
0
0
-2.48845e-13
-2.53665e-12
1.28557e-12
2.84424e-16
-7.90788e-16
0
-2.17052e-12
-2.69698e-12
1.28011e-11
0
0
0
0
0
1.19452e-12
-2.8954e-12
-3.57229e-15
1.72656e-13
3.81585e-13
0
0
0
0
6.98956e-12
0
0
0
0
0
1.45693e-11
-1.09227e-12
-1.89764e-11
0
0
0
-4.14402e-16
1.78362e-16
0
0
0
-1.45493e-14
1.10741e-13
0
0
0
4.15961e-16
-1.17063e-16
6.68148e-12
1.52636e-12
0
0
0
-1.61143e-14
2.24227e-12
2.11263e-13
1.24058e-12
0
0
0
0
0
3.95211e-15
9.74496e-15
0
1.44049e-15
-2.93742e-15
6.77524e-13
-1.90798e-13
3.72262e-12
-2.93927e-15
7.64695e-16
5.51267e-15
0
0
1.68427e-16
-4.22813e-17
0
2.08005e-12
3.28797e-13
-4.10031e-12
-1.8467e-17
0
-3.24119e-16
-7.46439e-14
2.84133e-12
7.57976e-15
3.27644e-14
-4.14957e-15
-4.14454e-14
-1.05301e-13
5.76632e-12
-4.75495e-14
-6.28907e-15
0
0
0
0
0
0
-2.57929e-13
-1.59486e-14
2.1145e-13
-1.7336e-14
0
0
0
-1.56728e-11
6.66215e-12
5.14458e-12
1.24965e-15
0
-1.25413e-15
4.838e-14
4.31919e-15
1.06776e-14
3.98945e-15
7.11515e-16
-1.33182e-14
-1.18887e-14
1.86811e-14
5.4147e-15
0
0
0
0
-2.64767e-16
7.13795e-14
-7.78922e-15
-3.02379e-14
0
0
4.28669e-13
-2.9097e-13
-6.26509e-14
-1.15644e-17
0
-1.03293e-30
0
0
0
-2.92433e-16
-2.95311e-13
2.76029e-14
9.21397e-13
-9.53096e-15
-1.00482e-15
-1.65848e-16
0
0
0
0
0
-2.45376e-15
2.7269e-16
0
0
-2.86452e-15
6.01903e-15
-1.07077e-14
-2.03781e-15
0
0
6.86705e-16
-7.41634e-16
0
-8.36714e-16
0
7.33012e-16
0
0
0
6.12342e-18
9.64045e-16
-5.37125e-17
8.36986e-17
5.19943e-16
1.49055e-13
9.84693e-14
7.47324e-13
0
0
-1.48952e-16
-1.0689e-15
4.46746e-13
-1.74069e-12
8.4279e-12
1.87126e-07
-1.20626e-16
2.39509e-16
0
1.48602e-16
1.06452e-14
1.0042e-14
-7.98481e-15
-5.41048e-13
2.57072e-13
-9.40491e-16
0
-1.10792e-16
-2.07865e-15
1.96687e-15
0
0
0
1.52058e-12
3.42323e-14
-1.09777e-11
1.68936e-11
-4.23582e-12
2.05553e-14
2.51133e-15
-3.36756e-16
-2.40215e-32
-2.78116e-15
2.19896e-12
1.60782e-12
0
9.63336e-12
-2.10089e-11
0
0
1.11007e-14
4.57274e-14
2.54158e-13
0
0
-2.46775e-13
8.12148e-13
2.92615e-12
-4.10325e-12
6.99842e-15
-4.67009e-15
3.02214e-15
0
-2.48992e-16
2.60688e-15
4.6419e-15
-2.89963e-15
0
5.69912e-15
-1.85352e-12
-1.14694e-13
-4.14447e-12
-5.60034e-13
3.72568e-13
-3.75294e-13
1.24199e-15
2.98553e-16
4.41468e-13
5.54047e-13
-2.07638e-15
-3.99365e-16
0
2.76504e-15
9.22673e-14
3.86967e-14
4.67224e-15
2.16162e-15
0
0
2.21356e-11
-1.08695e-12
-1.65696e-11
-7.87751e-17
-3.86393e-16
0
-1.36616e-11
1.60225e-11
0
0
0
0
0
3.52374e-16
-4.55133e-16
0
1.42925e-15
0
0
-7.71037e-16
1.35206e-15
5.64664e-16
0
3.73549e-17
3.24868e-17
2.53045e-16
1.36195e-12
-1.26726e-13
-1.88426e-12
5.98173e-17
0
2.77024e-15
1.40037e-14
1.22665e-14
0
0
0
0
0
6.60688e-12
4.87558e-12
0
-1.00641e-15
-9.2427e-13
1.8727e-13
8.51234e-17
0
0
0
0
6.48853e-13
-2.26647e-13
-3.95859e-14
1.67655e-16
0
0
0
2.84461e-12
2.44768e-11
-3.41751e-11
-4.32527e-12
-6.17864e-14
-1.39273e-15
0
0
-1.50071e-16
-1.52313e-16
0
-1.41839e-15
-1.3443e-13
1.71252e-13
0
0
0
-7.45413e-14
-1.07104e-13
-3.97466e-13
-4.83688e-13
2.52305e-12
0
0
0
0
1.39468e-15
0
9.08546e-16
4.55207e-11
-2.94242e-11
-6.37993e-12
-1.36592e-15
1.36335e-15
2.15693e-15
-2.95081e-15
-1.55684e-15
0
-1.07398e-15
-2.4276e-15
1.9212e-13
-1.42416e-13
1.9711e-13
2.01357e-13
-2.78398e-13
1.99428e-16
0
-4.40788e-15
-1.01351e-15
-3.87488e-16
-5.29504e-16
-1.40949e-15
2.11763e-15
3.27363e-15
-2.62808e-15
1.66657e-16
-5.17308e-16
0
0
0
0
-8.51901e-16
9.4953e-17
3.99717e-16
0
0
0
0
3.84962e-16
-1.33603e-16
-2.13901e-16
-1.09719e-14
8.14624e-15
4.86151e-15
0
0
0
4.14492e-12
-2.74255e-12
-6.75236e-13
-8.84965e-15
-1.20903e-14
0
0
-1.10336e-13
4.32234e-14
5.03532e-14
-4.59168e-12
-6.22955e-14
-1.38979e-14
-5.02628e-14
-2.215e-13
0
0
0
0
0
-1.59092e-15
5.8228e-14
0
0
-1.30201e-11
6.8407e-14
0
-2.31261e-16
0
0
0
0
0
1.84419e-15
-3.57455e-15
7.23191e-15
-1.74492e-14
-1.05179e-13
3.43697e-14
0
0
0
2.55398e-16
-3.9938e-15
-4.98436e-15
0
-1.14032e-13
-5.19744e-13
0
0
0
0
0
0
-3.41987e-15
1.50657e-16
1.14761e-14
0
0
0
1.27869e-13
6.54732e-13
-1.03389e-11
-3.02637e-14
-2.70262e-14
1.41232e-13
8.84386e-13
0
0
0
1.88074e-11
-4.10728e-11
0
0
0
2.45533e-16
0
0
0
0
0
0
0
0
0
6.80625e-16
-8.51283e-15
1.1098e-14
6.75793e-12
-2.63699e-13
1.24016e-12
4.72146e-12
-7.0513e-12
1.61001e-11
-5.55463e-13
-2.18439e-13
-2.58835e-11
-1.28362e-15
0
4.784e-15
0
0
0
-2.56052e-15
1.7266e-15
0
0
1.81493e-13
1.29278e-13
8.81452e-14
-4.45924e-17
-4.07824e-11
4.07522e-11
0
0
4.2748e-15
-6.32351e-15
-5.27048e-15
-2.12621e-11
9.98544e-12
3.0863e-12
-1.05477e-12
3.66498e-14
0
-2.47513e-16
-3.97189e-16
1.05114e-13
-1.9011e-15
0
0
0
1.1846e-16
0
-9.06376e-16
-1.0409e-15
1.72903e-16
0
8.20235e-12
-1.01388e-11
1.2186e-13
0
0
5.99192e-15
1.3974e-14
-1.28885e-14
-2.88592e-14
3.12669e-15
0
-1.26349e-13
3.8378e-12
5.57833e-14
8.34859e-13
-1.83289e-14
2.75138e-12
-7.42984e-13
-7.14214e-13
0
2.21759e-15
7.87381e-16
0
0
0
8.02411e-14
-3.06372e-14
-3.08706e-14
-2.1348e-15
9.86932e-15
3.50279e-15
0
0
0
-2.53931e-16
8.39764e-15
3.68141e-15
-3.30086e-14
1.39354e-14
8.99105e-15
0
0
0
-4.67399e-12
1.93507e-11
0
5.4885e-12
-6.97258e-12
2.18201e-13
1.7258e-13
5.22286e-14
0
0
0
0
0
0
0
0
0
0
0
1.25282e-14
-8.5867e-12
1.08105e-11
7.19744e-13
-7.57885e-12
7.59554e-12
0
5.7842e-16
-9.06299e-14
9.78088e-13
4.45075e-12
4.98597e-12
-9.31926e-15
-1.65885e-14
4.17567e-14
0
0
0
-2.29541e-11
-2.20023e-12
1.61018e-11
0
0
0
0
0
0
0
0
0
0
0
0
4.09021e-15
4.82064e-17
-3.26097e-14
1.98621e-15
1.8624e-16
0
5.53264e-12
-3.79523e-12
3.04531e-12
-3.59439e-14
3.32872e-14
-7.32261e-16
0
0
0
0
0
0
6.05015e-13
-1.63687e-13
3.68027e-13
1.43493e-13
5.00176e-13
-2.12042e-15
-2.82654e-16
-6.71833e-17
1.35067e-13
1.42052e-13
-2.45536e-13
-4.1616e-12
7.45305e-12
-1.19259e-13
1.36949e-16
0
0
0
0
0
0
0
0
0
-7.49135e-15
1.6333e-13
-1.37094e-12
-1.907e-12
-4.76625e-13
5.38777e-16
0
3.80686e-17
0
0
2.07487e-14
-1.09569e-11
8.14134e-12
7.30672e-12
0
2.27817e-16
0
0
0
0
5.53446e-14
6.51041e-14
2.85426e-13
1.60451e-11
-1.53238e-11
0
0
-2.34129e-14
2.8831e-13
-1.73773e-14
5.49112e-15
4.93404e-15
-3.83986e-11
-2.03474e-12
0
0
0
-8.5104e-13
4.83726e-11
0
0
-5.10049e-12
1.31245e-11
5.53674e-13
0
0
4.74019e-15
3.08689e-15
-4.49375e-15
-1.79614e-16
1.41983e-15
1.36818e-15
1.17223e-14
-1.4149e-13
1.13313e-12
5.81051e-16
5.81216e-14
-2.81803e-14
8.12984e-12
2.07445e-11
-2.97552e-11
0
0
0
2.40115e-13
-9.19337e-14
0
0
0
7.87866e-13
2.21067e-14
-5.75132e-13
0
0
0
-4.52285e-16
3.10508e-16
0
1.99649e-14
-1.32528e-14
-1.6799e-14
4.19378e-11
-1.56988e-11
-2.71442e-11
0
0
0
0
0
0
1.21223e-14
9.3941e-14
0
0
-1.02669e-13
1.37927e-13
0
0
0
5.22786e-13
1.9552e-12
0
0
9.12274e-13
-4.65141e-12
3.56819e-12
-9.69813e-12
1.327e-11
0
0
1.44507e-14
-2.27572e-12
1.55295e-12
3.81228e-15
1.13019e-14
0
0
0
0
-7.96545e-17
-1.53211e-16
0
0
-1.71018e-12
-5.65919e-12
0
7.26358e-17
3.93098e-13
1.13601e-13
1.50947e-13
-1.02115e-11
-4.95436e-14
-2.06511e-13
4.20564e-12
1.94545e-11
-4.34869e-12
-8.93207e-13
-1.59553e-13
0
0
0
0
0
0
-3.18654e-14
-1.79092e-13
-2.36143e-11
-3.45576e-12
-6.62623e-15
2.25143e-14
4.61347e-12
1.41938e-14
0
0
1.25749e-15
2.64495e-18
0
0
-2.91752e-15
2.11859e-14
0
-4.71974e-12
1.19324e-11
-5.93349e-15
2.26054e-15
0
0
-6.62641e-13
-7.00708e-14
5.76359e-12
4.53239e-13
0
0
0
0
0
7.74238e-16
-4.09627e-15
2.23948e-07
-3.59835e-16
4.15693e-15
-6.99937e-16
1.77053e-12
7.05759e-12
7.14632e-15
-1.92335e-14
7.7114e-15
0
0
0
0
0
-1.33223e-14
-2.79344e-15
0
0
0
0
0
4.91169e-12
2.35884e-12
0
0
0
0
0
0
0
0
0
0
0
0
9.93178e-14
-2.70694e-14
0
0
0
0
6.45913e-16
-4.09272e-14
-6.0057e-14
5.27831e-11
8.21151e-11
0
0
0
-1.10707e-13
-4.89564e-14
1.85041e-13
9.81022e-12
3.05724e-11
4.13157e-13
2.71206e-13
9.1207e-14
-1.845e-13
0
0
2.13283e-12
-1.84676e-13
-2.13674e-12
1.2931e-14
-7.76329e-15
9.81774e-18
0
3.92902e-13
-2.67057e-13
-2.19429e-14
0
2.20897e-07
1.46862e-13
-4.17124e-14
-6.0739e-14
0
0
0
0
0
0
-5.09203e-12
0
0
4.66507e-15
1.29334e-14
-1.11031e-14
1.34105e-14
1.66699e-14
0
0
2.9175e-13
0
0
0
1.14024e-15
0
0
-8.28097e-13
-2.44573e-14
7.53393e-13
-1.63397e-16
3.25031e-16
-4.03661e-16
-4.03605e-14
2.23022e-14
0
0
0
0
0
0
-3.71841e-16
4.55811e-16
1.60778e-15
-1.68574e-15
-3.46266e-16
1.12867e-12
3.59329e-13
-1.30941e-13
1.31845e-12
2.00408e-14
2.71775e-11
-7.20947e-13
-6.72046e-12
-7.47581e-16
-4.83255e-13
1.04868e-11
7.02877e-13
0
1.92286e-14
-5.67272e-15
1.26809e-14
-1.17426e-14
-1.20941e-14
8.18427e-15
-9.16936e-15
5.53309e-15
-2.77025e-14
-1.65036e-13
-5.77591e-12
-1.16959e-14
9.40349e-15
4.74021e-15
3.66433e-14
9.30215e-14
-1.9446e-13
1.67385e-13
2.81798e-13
1.03749e-13
1.3082e-14
0
0
0
0
0
0
4.54794e-14
-2.84447e-14
-1.49122e-14
5.49669e-16
-1.24681e-15
8.96678e-16
0
0
2.91868e-13
0
0
2.84194e-12
1.66997e-11
8.78026e-15
-2.19916e-14
1.07314e-14
1.23538e-14
-7.66247e-14
2.82079e-12
-4.76585e-13
-1.48005e-13
8.7472e-15
-2.62574e-15
-4.69518e-17
5.96486e-12
9.45115e-14
-1.61227e-12
9.62154e-14
-1.91212e-15
-5.49437e-16
5.93643e-13
-4.78902e-14
0
0
-6.77638e-14
1.31664e-12
2.02755e-07
3.62814e-17
1.85496e-07
0
0
0
0
0
0
0
0
1.89772e-12
-3.14296e-13
-1.75099e-12
-2.67693e-16
0
0
0
4.72066e-13
4.8608e-14
-3.97443e-13
1.56486e-13
0
0
-8.68401e-14
-6.1785e-14
5.78328e-14
1.53416e-15
0
0
0
1.03866e-16
0
0
0
1.10246e-12
-9.54366e-13
-9.92144e-14
0
0
0
0
1.70432e-14
-6.29766e-15
4.84055e-12
-1.07472e-11
2.66163e-12
5.66491e-13
-5.58741e-12
-1.01445e-15
0
-6.16761e-13
-2.00191e-13
4.05614e-13
0
0
4.36805e-16
-1.4936e-11
1.80964e-11
0
0
0
0
0
-7.41521e-13
-1.01012e-12
0
0
0
0
0
0
4.46913e-13
-1.10135e-13
0
0
3.52723e-15
8.50984e-12
-5.91973e-13
-9.478e-12
0
0
-2.4376e-14
-3.45654e-14
6.83099e-13
6.29565e-14
-6.41362e-13
-1.09007e-13
5.38178e-12
1.06645e-12
-1.13584e-14
-9.89965e-15
1.02139e-16
-3.20029e-15
8.78367e-15
0
0
0
0
1.0978e-14
-7.8797e-15
-2.33331e-15
-1.2694e-16
-2.88982e-16
0
1.41419e-14
-1.85204e-15
0
4.80887e-13
-2.73766e-13
1.58069e-15
2.40855e-16
-8.19259e-16
-1.36526e-15
3.38834e-13
-6.17181e-13
0
0
0
-3.82015e-13
1.72192e-12
-1.32014e-11
7.46616e-12
-6.61916e-14
5.19897e-14
-1.43303e-16
2.69518e-13
-4.33576e-17
0
1.76496e-16
-7.57932e-17
4.15649e-16
0
0
0
0
0
0
0
0
0
-9.73826e-15
1.72624e-14
-9.39278e-13
1.13953e-13
4.35619e-13
2.35951e-13
0
1.33699e-12
-4.8848e-11
6.77688e-11
-2.46636e-11
4.64238e-15
1.92874e-15
0
0
0
8.23099e-11
-1.84186e-11
4.0701e-15
9.8898e-16
-5.11489e-15
2.01781e-30
0
0
0
0
2.10998e-07
1.43364e-12
-1.76157e-11
1.44441e-11
3.28409e-13
0
0
0
-1.92025e-16
4.84979e-15
0
0
3.34683e-13
2.11882e-11
-1.99408e-11
2.23283e-12
-2.07121e-12
-7.4874e-13
-2.31255e-13
8.98497e-12
6.10025e-14
-2.72358e-13
0
0
0
3.11088e-16
0
1.31923e-16
9.3497e-19
-2.41386e-15
2.51555e-15
3.19537e-12
6.75305e-13
0
0
2.26861e-13
2.65592e-13
0
-2.17515e-16
6.27381e-17
0
2.16617e-15
5.92189e-15
0
0
0
0
0
2.06585e-30
-4.02967e-15
8.94558e-16
-2.07449e-14
8.65977e-15
0
0
2.19312e-14
2.64724e-14
-1.34994e-14
7.59252e-15
1.07648e-14
-5.97313e-16
-2.04183e-30
0
6.9042e-14
5.40923e-13
8.50299e-13
-4.35477e-16
0
8.09312e-14
2.18601e-12
0
0
0
0
4.49901e-12
1.54659e-11
1.00964e-13
2.3124e-15
1.89194e-15
0
0
4.73845e-16
3.2491e-15
1.00544e-14
-4.92662e-12
-5.45978e-14
3.42561e-12
7.09259e-14
1.62312e-15
-2.57343e-14
-3.2555e-14
6.30331e-14
-1.72344e-13
1.60549e-13
8.50645e-15
0
0
0
-2.5012e-12
2.2033e-13
-5.7649e-12
-5.45611e-17
1.75332e-16
0
0
2.25703e-12
-4.56225e-13
-1.1915e-14
-1.75391e-14
-4.43507e-15
4.07242e-15
-9.31118e-14
-1.18018e-12
2.43443e-17
2.26912e-16
1.94018e-07
0
0
0
0
-1.63612e-12
2.20622e-12
1.73233e-13
1.4851e-13
-6.26908e-14
-5.59115e-14
4.87991e-14
-4.05718e-14
-1.70679e-14
-5.08343e-14
4.04262e-13
6.54442e-14
1.75532e-16
7.1786e-16
0
1.72906e-14
-1.77731e-12
-2.20029e-14
4.03992e-11
4.80431e-32
0
2.03827e-16
4.66525e-15
-4.32607e-14
0
0
0
-2.40139e-15
8.50227e-17
-4.16748e-14
6.12297e-15
2.2476e-13
-2.62428e-13
5.96041e-14
-5.33352e-16
0
0
0
0
-2.91829e-13
7.32192e-13
1.97658e-12
1.9494e-07
0
0
0
0
0
1.53887e-16
0
0
0
0
0
0
-2.96961e-13
1.92114e-12
5.39136e-13
-2.21702e-13
-1.041e-13
1.5823e-13
3.02162e-14
-3.57301e-14
0
0
2.48162e-15
-1.23017e-15
1.79947e-15
0
-3.08219e-17
2.86092e-16
-4.56952e-13
-7.61872e-13
-5.79763e-12
1.82996e-11
5.73997e-12
5.53523e-13
0
0
-2.23039e-11
3.14943e-11
-1.46562e-13
-1.21167e-14
9.59779e-14
-2.22686e-14
-1.71465e-13
0
0
0
-3.45431e-13
-8.73666e-15
2.8743e-13
-5.29115e-12
8.33893e-12
1.26536e-12
9.38156e-12
-1.47548e-12
2.40902e-13
1.2513e-12
-2.70286e-11
8.73696e-13
-4.97543e-15
-2.85216e-15
6.57404e-15
-2.37641e-16
0
-1.10197e-14
-4.54422e-16
0
0
0
3.19262e-12
-1.09045e-13
-2.39298e-12
4.03923e-12
0
1.29603e-17
0
-4.84384e-16
5.94281e-17
0
0
0
3.84982e-16
0
2.16955e-15
0
1.03629e-11
-2.36953e-11
-7.13773e-16
-1.55792e-15
1.77228e-15
3.24842e-13
-1.27996e-13
8.16885e-13
3.42514e-12
-7.74742e-14
-1.10232e-14
-9.61998e-14
0
5.11808e-13
-1.11845e-13
-4.67594e-13
0
0
0
0
3.15428e-13
3.99857e-13
-3.84122e-13
-1.45429e-13
-1.41976e-14
-7.10107e-15
3.25624e-14
0
-2.45183e-11
2.48521e-11
-2.11606e-13
0
0
-2.02424e-13
3.46506e-14
0
0
2.55013e-13
2.27859e-12
4.82722e-13
-1.69815e-12
5.62116e-14
1.62329e-15
2.29851e-16
0
-2.56084e-13
4.03135e-13
0
0
0
0
0
0
0
0
-1.33871e-13
8.5637e-13
0
0
0
0
3.47066e-12
1.39011e-12
-3.57443e-12
0
0
5.55762e-13
-6.11355e-16
-7.6486e-16
1.24789e-15
-8.90042e-14
1.5026e-12
-1.06817e-12
1.20566e-13
-4.46255e-12
-4.09414e-12
-4.56651e-12
-5.92899e-13
2.93762e-13
-6.88405e-13
-2.07068e-14
9.20496e-15
-2.72156e-15
4.38826e-15
0
0
0
8.48426e-13
1.6948e-13
-1.1685e-11
8.12889e-13
-2.1472e-15
-2.2338e-16
9.01005e-12
2.55369e-13
-8.05031e-12
0
0
0
-1.40607e-14
2.15468e-16
0
0
0
0
0
-2.57982e-13
9.87143e-14
3.84786e-13
0
-1.52152e-11
9.70373e-13
2.09486e-11
5.24285e-15
0
2.02949e-15
-3.0117e-16
0
0
0
2.50151e-15
-6.73592e-16
-1.66966e-11
2.54616e-13
1.28562e-11
3.51766e-16
0
1.42894e-16
-5.18172e-16
1.69284e-16
0
0
0
0
0
-7.07381e-15
-7.39966e-15
6.7754e-15
0
0
1.92277e-15
-3.78001e-15
-8.80197e-16
0
-1.03026e-15
-1.62192e-13
-4.4418e-14
7.96413e-13
6.64113e-13
0
0
2.40031e-16
-7.53148e-14
4.41869e-14
5.90451e-15
7.91654e-12
4.21769e-12
1.9494e-07
-5.76978e-17
7.29949e-12
9.47262e-13
-5.91524e-13
5.00315e-15
-1.32091e-14
5.7678e-15
-4.8429e-14
-2.34621e-13
-2.24497e-15
4.9612e-16
0
0
1.04312e-11
-3.14989e-11
5.36722e-12
-5.45889e-17
-6.34845e-16
-2.56494e-14
5.3126e-14
1.53796e-11
0
0
-1.07697e-11
-8.04009e-11
6.45504e-17
-1.15497e-16
0
0
1.76314e-14
-5.52724e-15
-8.66279e-15
0
-2.06292e-11
3.2005e-13
-2.02187e-11
-9.59279e-13
-2.79987e-16
1.82413e-13
-4.6229e-12
5.85946e-12
4.43798e-12
-3.1159e-14
1.03835e-13
-2.55895e-14
-1.99768e-14
0
-3.53598e-15
-1.11099e-16
0
0
-8.93815e-13
1.57909e-12
1.9335e-13
3.89675e-15
3.21869e-15
1.80281e-12
1.06002e-13
-1.12112e-12
-5.84272e-12
-1.07515e-12
3.23356e-12
0
0
0
6.6796e-13
-1.61364e-12
4.08304e-13
5.09378e-14
-5.2328e-15
3.88652e-16
4.12987e-13
5.11376e-12
-5.42822e-12
-3.19672e-13
-2.97979e-16
0
5.44686e-12
1.9494e-07
1.29297e-14
0
0
0
0
0
-1.15683e-16
1.00133e-15
0
7.11779e-16
-1.61798e-15
3.04548e-15
0
0
1.75356e-13
-3.89518e-13
-9.95678e-14
0
0
2.36371e-14
2.35846e-12
-3.72925e-12
3.40188e-13
2.50245e-15
4.88597e-14
-2.75563e-14
-1.39869e-12
-1.36419e-13
1.30763e-15
1.66293e-15
-1.51516e-15
-1.23009e-12
-1.16792e-12
9.05191e-14
4.13302e-14
1.37958e-13
-6.01282e-17
2.11363e-07
0
0
0
0
0
5.30044e-18
1.75237e-15
0
0
0
0
-3.03884e-13
-8.36266e-14
-2.67834e-16
0
0
-1.11985e-12
-1.86146e-13
-8.60215e-15
1.89905e-14
-1.07811e-14
0
0
0
0
2.27971e-14
-5.12055e-14
-7.2757e-16
-4.65552e-15
1.11245e-14
-5.92118e-15
9.20215e-14
1.43684e-13
-1.27064e-13
0
3.10551e-12
-1.2757e-14
2.54706e-15
0
0
0
2.92033e-13
-3.57945e-13
1.10502e-13
-7.23797e-11
1.85318e-10
0
0
6.88455e-15
-4.63405e-15
-5.1721e-15
0
0
0
0
0
0
7.69584e-15
9.58855e-14
3.6903e-14
-2.46928e-12
-2.12002e-13
4.11697e-13
-7.47313e-13
0
0
1.86401e-17
0
-4.15416e-16
0
-1.94433e-16
2.5192e-15
-1.65928e-15
-2.11953e-15
-4.4729e-13
-6.46268e-14
0
0
0
-7.82233e-13
-6.37344e-13
0
0
-6.73364e-16
-3.50365e-16
1.0751e-14
5.35063e-14
-2.72724e-13
1.00435e-14
-7.66761e-15
1.29724e-12
-1.20797e-12
2.63126e-16
0
0
0
0
-8.33979e-12
1.21329e-11
-1.47688e-12
0
0
0
3.73451e-15
0
0
2.79918e-15
-4.72095e-15
-3.87891e-15
4.40151e-16
0
-3.6749e-16
0
-1.05933e-15
0
0
0
8.77137e-16
1.89558e-15
7.57658e-12
1.14768e-14
0
2.55947e-14
4.72781e-14
0
0
2.04754e-15
1.25382e-15
0
-1.08864e-15
2.87991e-13
1.90488e-16
0
4.32444e-16
-1.03287e-13
2.63918e-14
1.34102e-13
-9.27433e-14
-6.10575e-14
-3.54578e-12
5.82987e-13
5.29634e-12
-3.31822e-14
2.05631e-14
3.83913e-15
-1.28114e-14
-1.46298e-14
-2.04183e-30
-1.58748e-15
1.66433e-16
-2.22005e-11
5.63911e-12
5.41236e-12
8.42685e-14
-2.3345e-14
1.10097e-13
1.80157e-15
-2.18481e-15
1.6924e-15
7.00623e-16
-1.7412e-12
-1.63581e-13
-5.80596e-14
3.33365e-15
0
0
0
6.57083e-12
3.37929e-13
-1.06535e-15
2.5381e-15
-7.50204e-16
0
3.31185e-15
0
-4.55908e-16
-1.51556e-15
0
0
0
0
0
1.8236e-12
-1.72719e-16
0
-1.94936e-16
-1.73144e-13
1.44451e-12
-1.17341e-12
1.24697e-14
-3.81439e-14
-5.66605e-14
-5.93945e-16
-1.83807e-15
-7.20649e-15
1.09428e-14
0
1.31028e-15
1.25552e-15
1.25554e-15
-2.97669e-15
5.30992e-15
-1.80184e-15
1.9801e-15
1.95969e-15
-2.24686e-15
0
-4.22219e-14
1.91651e-14
-4.0483e-16
3.09598e-15
1.16354e-12
-5.72178e-12
-4.8697e-16
5.18591e-16
8.81999e-15
7.53713e-14
-3.90868e-14
2.24972e-14
-1.89678e-14
0
-7.55088e-14
5.55135e-14
3.88505e-14
-6.52836e-14
1.24209e-14
-1.9763e-13
0
-3.93033e-16
0
7.83355e-13
3.03771e-14
-8.75721e-14
-4.59374e-14
0
0
0
0
0
0
-2.16321e-15
-2.43916e-15
0
0
0
0
0
0
4.22876e-16
0
2.66305e-16
0
2.38274e-12
-9.88904e-13
-5.5313e-12
0
-1.20827e-18
1.31769e-11
-5.13174e-11
-3.68737e-15
-1.55665e-16
0
0
0
-3.47978e-16
0
0
0
3.57832e-12
2.49722e-12
-2.20105e-16
7.76358e-13
1.59959e-12
0
0
0
4.85438e-14
-7.15531e-14
3.53679e-14
0
0
0
0
0
1.73132e-14
-7.0377e-14
1.52413e-14
-3.21442e-11
4.06967e-11
7.66978e-12
0
0
-2.72238e-15
-1.30526e-12
-1.1297e-12
3.51112e-12
0
0
0
-3.22512e-14
-3.55757e-12
1.30338e-12
-2.72526e-14
-8.22736e-14
1.51634e-13
-4.39648e-13
-4.71072e-15
-2.2558e-14
1.54472e-14
-6.88063e-14
-2.63262e-12
-1.27956e-14
2.79536e-12
-2.52499e-14
3.07968e-14
-9.23009e-15
0
0
7.76602e-15
-2.7553e-15
-6.14826e-15
1.06266e-15
-3.58743e-12
3.49236e-13
0
0
0
2.01128e-11
-3.76568e-12
-2.41923e-11
0
0
-4.86139e-14
8.59927e-14
-8.20493e-15
0
0
0
2.69069e-12
7.86381e-13
-1.48944e-13
-1.75186e-13
1.00735e-14
1.08697e-14
-1.73804e-14
0
0
-8.64211e-13
5.59991e-12
9.32962e-12
-1.50247e-11
3.04196e-14
-2.01235e-15
0
-4.04242e-12
-5.80726e-12
6.75392e-15
5.48281e-15
-1.20991e-14
8.80123e-15
-1.03089e-14
0
0
5.20043e-15
3.78797e-15
-3.98665e-15
-6.34544e-15
0
0
1.72557e-12
0
1.22114e-11
-1.31932e-11
-5.73833e-12
0
0
2.32376e-14
-2.00034e-14
-1.57622e-14
3.67789e-12
5.59765e-13
-1.22503e-13
-1.69801e-14
1.1849e-13
5.94183e-16
0
-4.10282e-16
8.14786e-12
-1.41059e-11
6.63576e-15
9.18933e-14
0
0
0
0
0
5.33304e-13
-3.48185e-13
0
0
5.78603e-13
-1.38725e-12
-4.64953e-14
1.03125e-12
-1.46017e-11
6.93137e-12
-3.97117e-15
2.88684e-12
-1.6907e-13
-8.22509e-13
4.03681e-13
0
0
-8.33521e-14
2.53302e-11
-3.86924e-15
-4.4364e-15
0
0
2.77108e-16
0
-6.08795e-16
0
-3.57684e-12
1.77356e-12
3.08738e-14
1.13587e-14
-1.18827e-15
-9.24304e-15
-9.62795e-15
-5.842e-12
6.00425e-12
-1.61722e-13
-7.55627e-13