/*--------------------------------*- C++ -*----------------------------------*\
| =========                 |                                                 |
| \\      /  F ield         | OpenFOAM: The Open Source CFD Toolbox           |
|  \\    /   O peration     | Version:  v2012                                 |
|   \\  /    A nd           | Website:  www.openfoam.com                      |
|    \\/     M anipulation  |                                                 |
\*---------------------------------------------------------------------------*/
FoamFile
{
    version     2.0;
    format      ascii;
    class       volVectorField;
    location    "650";
    object      U;
}
// * * * * * * * * * * * * * * * * * * * * * * * * * * * * * * * * * * * * * //

dimensions      [0 1 -1 0 0 0 0];


internalField   nonuniform List<vector> 
13917
(
(1.09198 0.115931 -2.34744e-20)
(1.01861 0.039869 0)
(0.635626 -0.0648213 0)
(1.05313 -0.00567276 1.76741e-21)
(0.996172 0.00235178 1.24587e-20)
(0.358755 0.0506043 5.34757e-21)
(0.555637 -0.0555689 -1.07178e-20)
(0.644337 -0.063762 0)
(0.472779 -0.0660519 4.58627e-20)
(1.13561 0.143042 -7.87664e-20)
(1.0995 -0.0520262 0)
(1.08252 -0.0338991 0)
(1.05361 -0.00626396 -9.81613e-21)
(0.026448 -0.0044843 5.19095e-20)
(0.970403 0.090191 0)
(0.993229 0.0850847 -6.1749e-21)
(1.01311 0.0447263 0)
(1.12952 0.0174984 -1.32302e-20)
(1.08168 -0.0333807 -6.28769e-21)
(1.0014 0.00454347 -7.30294e-21)
(0.999972 0.000928225 -8.24182e-21)
(0.533169 -0.0544525 0)
(1.00079 0.00738189 -4.2787e-22)
(0.703054 -0.0674654 -1.50966e-20)
(0.99451 0.0134804 -3.87393e-21)
(0.559311 -0.0520572 9.71706e-21)
(0.782778 0.0293133 0)
(0.757281 0.116976 7.33977e-20)
(0.735114 0.566193 0)
(1.18653 0.0813223 0)
(1.10576 0.105763 -2.8974e-20)
(1.05653 0.0855252 0)
(0.836871 0.06421 0)
(0.910248 -0.00334223 -8.43665e-20)
(0.991064 0.0103045 1.23823e-20)
(1.09908 -0.0645324 5.35893e-20)
(1.00072 0.00696606 -2.99863e-21)
(0.155107 -0.0285586 -1.19458e-20)
(1.05925 -0.00995129 0)
(0.312559 -0.00788722 0)
(1.00819 0.00077084 0)
(0.999987 0.000407772 7.60123e-22)
(1.02032 0.00294645 1.1395e-22)
(0.703143 0.199655 8.42941e-20)
(1.03632 0.0242375 0)
(0.891476 0.0102716 -6.03481e-21)
(1.12704 0.0160261 0)
(1.12727 -0.012391 -3.64277e-20)
(0.104083 0.133505 -1.31217e-19)
(1.00334 0.000750597 3.34774e-21)
(1.07927 0.0160345 2.32507e-22)
(0.965042 0.00653789 -1.99314e-20)
(0.0749956 0.112295 0)
(0.905597 -0.0021304 4.82525e-20)
(1.01194 0.0456439 0)
(1.07952 0.0374827 2.17989e-20)
(1.10068 -0.0515442 6.26646e-21)
(0.994534 0.0274644 0)
(1.06654 0.0434274 -3.88128e-20)
(1.03499 0.0237783 0)
(0.589961 0.0492904 1.19907e-19)
(1.02007 0.0399754 0)
(0.00816876 -0.00129399 -3.5356e-20)
(1.0015 0.0049158 6.4761e-21)
(0.385622 0.0627698 5.83615e-20)
(1.07562 0.354809 -2.86881e-20)
(0.995443 -0.00156518 0)
(0.988052 -0.00330415 7.2002e-21)
(1.13438 -0.0460498 5.10484e-20)
(1.06007 0.130591 0)
(0.996561 0.00256154 -5.87158e-21)
(0.536455 -0.0737278 0)
(-0.065688 -0.022044 0)
(0.995119 0.0131594 0)
(0.105799 0.207283 1.38829e-19)
(1.07593 -0.0374386 5.25034e-21)
(-0.0640812 -0.013501 2.42505e-20)
(1.05041 0.0269181 -3.17572e-21)
(0.563753 -0.0463479 -9.00774e-21)
(0.999885 0.0018905 0)
(1.00005 0.00294253 6.22059e-21)
(0.995997 -0.00138041 1.38032e-20)
(0.405015 0.125952 0)
(0.183064 -0.0329324 0)
(-0.0912984 0.0164664 -1.55407e-19)
(1.04943 0.0258267 -6.08886e-21)
(1.00031 0.00383808 0)
(1.21288 0.426169 -6.0976e-20)
(1.07756 0.016006 1.00797e-20)
(1.02077 0.00300391 -6.21204e-21)
(0.0184615 -0.0289156 0)
(1.17067 0.121584 5.53217e-20)
(1.02146 0.0226875 -1.49309e-21)
(0.972576 0.0500096 -2.11672e-20)
(1.16389 0.42223 7.23903e-20)
(0.385824 -0.0105995 -1.26921e-19)
(1.11498 -0.0424507 0)
(1.12858 -0.00385112 4.7494e-20)
(1.07786 -0.0458635 3.9904e-20)
(0.608715 0.125406 -1.07022e-19)
(1.01078 0.00563554 -5.76771e-22)
(0.844466 -0.00411447 9.34272e-20)
(0.692839 0.18459 0)
(1.05732 0.0209963 -1.01426e-20)
(1.01553 0.0119386 6.227e-22)
(0.550255 -0.0695373 0)
(0.815093 0.504086 1.54705e-20)
(1.12945 -0.0136667 1.00791e-19)
(1.01489 0.0452526 -4.03631e-22)
(1.10647 0.120119 3.15471e-20)
(-0.166505 -0.0150619 0)
(0.320729 -0.00861417 -8.6929e-21)
(1.08258 -0.0391494 0)
(0.510504 -0.0686243 0)
(0.947858 0.00482239 0)
(0.0827642 -0.118084 -8.33569e-20)
(1.00041 0.012837 6.90169e-21)
(0.200314 0.0919211 -9.12513e-20)
(0.201822 -0.0114761 4.52306e-21)
(0.906841 0.0104687 -2.34101e-20)
(0.999983 0.00079304 -7.97266e-22)
(1.13554 -0.0448137 -4.5825e-20)
(0.167925 -0.0134274 2.18529e-20)
(0.766112 0.110216 0)
(1.00496 0.000657275 6.32924e-22)
(0.974014 0.0474927 2.11645e-20)
(1.03194 0.0273443 2.58648e-21)
(1.00459 0.000533644 0)
(1.01764 0.0019176 -1.50844e-21)
(0.361297 0.00372309 1.2033e-19)
(0.268135 -0.0276685 0)
(0.950322 0.00396005 0)
(1.03664 0.0251636 -7.72814e-21)
(0.999977 0.000731738 8.01314e-21)
(1.27504 -0.0205489 -4.52918e-20)
(0.719104 -0.0704609 -1.43518e-20)
(1.0896 0.12043 0)
(0.584835 0.12663 1.53068e-19)
(0.995118 -0.00121414 0)
(0.907828 0.00623084 4.41033e-20)
(1.09011 -0.0623934 2.93927e-20)
(1.02335 0.0131382 1.84369e-21)
(0.961696 0.0184938 4.00564e-20)
(0.655175 0.196518 -1.60584e-19)
(0.987397 -0.00303171 5.51322e-22)
(0.757349 -0.0749166 0)
(0.80586 0.57146 4.83329e-21)
(0.966962 0.00704552 1.66971e-20)
(1.02217 0.0111447 -1.53863e-21)
(1.05176 0.0944055 -1.34507e-20)
(1.10504 -0.0183711 0)
(0.0923274 -0.151836 9.3296e-20)
(1.09866 -0.0375441 1.85166e-20)
(1.02415 0.174097 -6.24734e-23)
(1.07195 0.0607411 -6.85071e-22)
(-0.0538722 0.0521782 2.22029e-19)
(1.05533 0.128063 8.21549e-21)
(1.14263 -0.0724538 -2.62732e-20)
(-0.0862342 -0.0105413 1.28713e-20)
(1.27179 -0.0177787 -6.10242e-20)
(0.939104 0.0400773 0)
(0.78331 -0.0311519 0)
(1.00001 0.00202664 6.1248e-21)
(1.11337 -0.0415704 -1.42122e-20)
(1.08329 -0.0387223 -6.79577e-21)
(1.07881 -0.0456618 -2.10244e-20)
(1.05648 0.0217608 2.05183e-20)
(1.11561 -0.0130834 3.62744e-20)
(1.03014 0.0207535 -9.02223e-21)
(0.83756 -0.00840787 -2.83364e-20)
(1.04329 0.166818 -2.26712e-20)
(-0.300979 -0.000259999 4.79749e-20)
(1.0804 -0.040599 -3.27999e-20)
(1.01064 0.0534548 0)
(0.897647 -0.077654 0)
(1.01396 0.194706 0)
(0.290565 -0.0317102 0)
(0.163274 0.0936838 -3.31401e-20)
(0.813661 -0.0766916 -9.61541e-21)
(1.01123 0.0254845 2.37451e-22)
(1.17574 0.116205 -4.25255e-20)
(1.11096 0.104136 2.84258e-20)
(1.02385 0.0127517 -2.28135e-21)
(1.0003 0.00417824 -1.68764e-21)
(0.935105 0.109024 -2.14808e-21)
(0.614584 -0.05488 0)
(1.25488 0.122083 4.76507e-20)
(0.00237212 0.0526946 -2.90887e-19)
(1.10823 0.0392608 0)
(1.08466 -0.0460443 -3.03037e-20)
(1.10205 -0.0650302 2.32381e-20)
(-0.0390773 0.0204684 -1.5742e-19)
(1.24812 0.163331 0)
(0.999576 0.00714309 -3.71594e-21)
(0.563397 0.0596978 -8.17975e-20)
(0.79339 0.0310955 1.07645e-20)
(1.00716 0.000297663 0)
(1.02163 0.0236428 0)
(0.875551 0.437707 -1.74367e-20)
(1.22162 0.467527 -4.5387e-21)
(1.07089 0.00118971 4.18959e-21)
(1.00305 0.000670771 0)
(1.10985 -0.0128344 -5.59374e-20)
(1.10344 -0.0182582 0)
(-0.0933698 -0.0177027 0)
(1.21299 -0.0480925 -9.55999e-20)
(0.991416 0.00951948 0)
(0.993781 0.0284586 3.22231e-21)
(1.12608 -0.00515319 -9.26463e-20)
(0.642812 -0.0614169 1.77825e-20)
(0.963932 0.0189288 -3.71101e-20)
(0.541181 -0.0573551 -5.51448e-21)
(-0.140783 -0.0109586 0)
(1.08551 -0.0458956 2.0016e-20)
(1.01516 0.0121756 0)
(0.494944 0.405615 0)
(1.1195 -0.00333809 0)
(-0.257257 -0.00906154 1.46141e-19)
(1.00228 0.0169723 1.85182e-22)
(0.749718 0.0704723 5.00086e-20)
(1.01091 0.0245563 5.14096e-22)
(1.17724 0.0592161 -4.8604e-20)
(1.00802 0.000956206 0)
(0.135255 -0.032787 3.90871e-20)
(0.528185 -0.0695258 0)
(0.994146 0.0884974 1.40094e-20)
(1.19339 0.467842 2.85639e-20)
(1.07482 0.0597334 -5.07734e-22)
(1.0145 0.011725 0)
(1.09356 -0.0637033 -4.12778e-20)
(1.07965 -0.0399736 1.5763e-20)
(1.10692 0.0370389 0)
(0.724679 -0.0680858 -1.0964e-20)
(-0.161663 -0.0082151 -4.68021e-21)
(1.01183 0.0029807 1.9865e-21)
(1.05969 0.0865967 0)
(0.0491059 -0.0331284 0)
(-0.135887 0.0195392 -4.43801e-20)
(0.99997 0.00226654 -7.15004e-21)
(1.00577 0.0085814 0)
(0.359365 -0.00716798 0)
(1.11941 -0.0445099 0)
(1.00004 0.000125175 -4.55446e-23)
(1.08215 -0.0594067 0)
(1.15993 0.00537159 0)
(0.793187 -0.0362279 -1.15621e-20)
(1.08937 0.101865 -1.02317e-20)
(1.00002 0.002207 -5.81927e-21)
(0.977877 0.199459 1.19025e-20)
(-0.127564 -0.00891166 -5.66558e-20)
(1.03933 0.00544673 0)
(1.19264 0.131573 4.91188e-20)
(0.570301 0.171032 4.69453e-21)
(1.03172 0.0261586 3.48517e-21)
(0.994011 0.0258509 0)
(1.09525 -0.0318351 -7.96094e-21)
(0.375244 -0.0136942 1.20732e-20)
(1.098 -0.0364026 3.20769e-23)
(0.935928 0.11366 -1.90606e-20)
(0.973685 0.0928168 0)
(1.00003 0.000219397 0)
(0.146002 -0.00929852 0)
(0.742551 -0.0537683 6.52065e-20)
(1.07389 -0.0575144 -2.87696e-20)
(1.01405 0.0119456 0)
(-0.130343 -0.0180574 -8.81573e-23)
(0.0351349 -0.00903986 3.30931e-20)
(1.11679 -0.0744761 0)
(0.544691 -0.0450825 0)
(1.07591 -0.0382367 -1.841e-20)
(1 0.00273423 -5.96878e-21)
(1.00605 0.000794402 -1.40069e-21)
(1.12576 0.011645 -2.12861e-20)
(0.0577079 -0.0243261 3.14974e-20)
(1.14565 -0.0265595 -8.17259e-20)
(1.06508 0.041504 1.25653e-20)
(1.22666 -0.0495763 4.7992e-20)
(1.07214 -0.0262222 -1.69668e-20)
(1.01759 0.00128713 -3.90562e-21)
(1.02732 0.0100506 -9.20839e-20)
(1.0018 0.00446111 7.40225e-21)
(0.860137 -0.0768227 -1.20681e-21)
(1.06933 0.00152336 -3.62372e-21)
(1.00007 0.000127118 0)
(0.997809 0.105139 3.10503e-21)
(1.0186 0.175994 -1.69414e-21)
(0.783564 -0.0187343 0)
(1.08195 -0.0603829 2.10991e-21)
(0.995575 0.140022 -5.87484e-21)
(1.04135 0.0112708 -5.61896e-21)
(1.2246 -0.000803983 1.06732e-19)
(0.735582 -0.0681532 0)
(0.642497 -0.0560532 5.80063e-21)
(1.00203 0.0164822 5.03865e-21)
(1.10216 -0.0748773 -5.43598e-22)
(0.998376 -0.000254555 2.48244e-21)
(1.04144 0.0104582 3.01079e-20)
(1.00057 0.0122646 -8.78394e-21)
(0.818631 0.611411 -8.44923e-21)
(1.00153 0.000806387 0)
(1.18197 0.0586585 -5.49005e-20)
(1.08499 0.101786 -1.62927e-20)
(1.02978 0.0198537 6.20962e-21)
(1.10949 -0.0147026 6.61081e-20)
(1.03491 0.0546916 0)
(0.113315 0.0554491 1.32463e-20)
(1.01309 0.189636 2.51888e-21)
(1.16484 0.119327 -1.68851e-20)
(1.02865 0.014286 -3.12559e-21)
(0.99472 0.0249407 0)
(-0.189036 -0.0119616 0)
(0.137992 -0.0119107 -1.12311e-20)
(1.00064 0.0133948 0)
(1.00689 0.000839851 6.19912e-22)
(1.07964 0.0186564 6.24051e-20)
(1.01444 0.0242523 0)
(-0.0416582 -0.0251317 2.24216e-20)
(1.02778 0.014144 4.87416e-21)
(0.152294 -0.0341622 -2.71016e-20)
(1.04558 -0.00107079 0)
(1.2089 0.314207 4.80569e-20)
(1.09314 0.00558127 -6.36326e-20)
(0.111382 0.279599 -1.39944e-19)
(0.942909 0.0398752 7.46829e-23)
(1.27885 -0.0137571 6.29615e-20)
(0.51103 0.298718 0)
(1.0008 0.102969 -3.07557e-21)
(1.12115 -0.0436251 0)
(0.956869 0.515172 -2.99184e-21)
(0.994473 0.0411983 -6.82255e-21)
(0.212863 -0.0275146 0)
(0.571446 0.0387847 1.7798e-19)
(0.0426476 -0.0117489 -3.75306e-20)
(0.921345 0.0155016 -3.38157e-20)
(0.245734 -0.00822382 3.31119e-20)
(1.06564 0.0847574 0)
(-0.0703414 -0.00175219 0)
(0.529107 0.277555 -7.50231e-20)
(0.921879 0.346509 -5.56144e-21)
(0.937935 0.341241 1.90097e-20)
(0.578223 -0.063096 0)
(0.999701 0.00231683 -1.17654e-21)
(1.04953 0.169887 -8.61824e-21)
(-0.130508 -0.0165185 -1.19369e-19)
(0.981818 0.0270257 0)
(1.00005 0.0685929 -9.96201e-21)
(0.0571072 -0.00946866 -3.53184e-21)
(0.862806 0.472345 1.9528e-20)
(1.01536 0.0505219 0)
(1.10038 -0.0634466 4.14024e-20)
(0.704503 0.538928 -1.58345e-21)
(1.0089 0.00487055 2.72662e-23)
(0.182103 -0.00781697 1.35545e-20)
(1.09566 -0.0642679 8.79239e-21)
(1.00192 0.0048055 -3.89958e-21)
(1.00884 0.0123643 -8.74961e-22)
(0.998576 -0.000383718 -2.49074e-21)
(1.02256 0.0108266 -1.88979e-21)
(1.22138 -0.00252337 -1.08617e-19)
(0.850033 -0.0777579 0)
(0.385024 -0.281417 -1.5462e-19)
(-0.153392 -0.0139697 0)
(0.997551 0.0132676 -3.34527e-21)
(1.19949 0.130607 -5.76637e-20)
(-0.190581 0.0206332 1.33868e-19)
(1.10222 -0.00443379 -9.92288e-20)
(0.520009 -0.0557381 1.19402e-20)
(0.0873742 -0.0294105 0)
(0.488882 -0.0688368 -7.89131e-21)
(1.01295 0.00544796 0)
(1.07332 -0.0567702 1.30862e-20)
(1.01 0.0120082 1.13288e-21)
(0.886232 0.0846297 5.3058e-20)
(1.03414 0.0243707 6.3774e-21)
(0.0856522 0.32742 -3.60117e-20)
(1.16291 0.00698272 5.65075e-20)
(1.06112 -0.00353141 0)
(0.99954 0.00277988 2.67247e-21)
(1.12396 -0.0037543 4.13215e-20)
(1.18171 0.117082 -8.44897e-20)
(1.14298 0.00364575 0)
(0.327813 1.09347 0)
(-0.116826 -0.00271475 -7.62811e-20)
(-0.284984 -0.00617774 -1.88388e-19)
(0.982968 0.207384 3.22165e-21)
(1.12925 0.140282 6.35813e-20)
(1.00548 0.00816329 -1.00163e-22)
(-0.110084 0.020552 0)
(0.51986 -0.0524083 1.12069e-20)
(0.998345 0.0314258 1.4272e-20)
(1.24498 -0.0100787 0)
(0.995416 0.0095735 0)
(1.19531 -0.0307895 3.74299e-20)
(1.04559 -0.000600582 -5.31938e-21)
(0.999776 0.00195586 -7.47399e-21)
(1.03047 0.0576237 -9.21051e-23)
(0.585953 -0.0404324 -1.14404e-20)
(1.02876 0.057883 0)
(0.39498 -0.0172289 -1.96165e-20)
(-0.0555021 0.0319141 2.86503e-20)
(1.09466 -0.0494283 -2.89454e-21)
(0.442777 0.279202 0)
(0.996195 0.0409503 -2.14229e-21)
(0.496591 0.362737 0)
(0.469094 0.303797 -1.22155e-19)
(1.00185 0.00946338 2.94515e-21)
(0.827545 0.473312 0)
(0.983231 0.0268063 -1.75505e-22)
(0.994125 0.0112407 1.437e-21)
(1.18544 0.0860183 5.6849e-20)
(1.00006 0.000328715 0)
(0.993387 0.0128393 6.02059e-21)
(1.01024 0.0118259 -1.25038e-21)
(1.22703 0.00209456 0)
(0.999936 0.00150458 7.83029e-21)
(0.255267 -0.0100895 -2.89926e-20)
(0.68415 -0.0485834 -8.96351e-21)
(-0.127895 0.0130344 1.57904e-20)
(1.2438 0.169916 0)
(0.381052 -0.0247948 1.63662e-20)
(-0.233402 -0.0112489 -7.87678e-20)
(1.10033 -0.00470494 1.15491e-19)
(0.997926 0.0127257 1.38837e-22)
(1.19174 0.000843426 1.38857e-20)
(1.05895 -0.00897547 -7.17111e-21)
(1.06437 0.0918515 0)
(0.999559 0.00763509 1.25535e-20)
(0.783719 -0.0779453 -2.03349e-20)
(0.583529 -0.0587625 0)
(0.739329 -0.05062 8.60254e-22)
(0.982258 0.08368 -4.6262e-22)
(1.16229 -0.00428003 -2.12958e-20)
(0.924752 0.0126518 -2.74341e-20)
(1.06038 -0.0103361 9.94978e-21)
(1.1408 0.00250403 0)
(1.01691 0.0590979 -1.9846e-22)
(1.0724 -0.0555958 0)
(1.01595 0.0441166 -3.12585e-22)
(1.00151 0.000950618 0)
(-0.00926008 -0.0298323 -2.13045e-20)
(0.285487 -0.0298669 3.096e-20)
(0.306279 -0.0326041 -2.60509e-20)
(1.17696 0.201213 -5.29384e-20)
(-0.136932 0.00939748 0)
(0.241838 -0.0320781 -1.57196e-20)
(-0.073905 -0.0284148 7.84835e-22)
(-0.0230743 -0.0137124 -3.57082e-20)
(1.0168 0.00201189 -3.3215e-21)
(1.12646 0.00320506 0)
(1.01889 0.0589574 1.10426e-22)
(0.991469 0.0289293 0)
(1.2019 -0.0429721 -6.61199e-20)
(1.12783 0.0129453 0)
(1.01891 2.45801e-06 4.75421e-21)
(1.14757 0.042661 5.48602e-20)
(1.10145 -9.86879e-05 4.65996e-20)
(-0.0135432 -0.0113508 -5.69585e-20)
(1.002 0.00981554 0)
(1.12875 -0.0349919 0)
(-0.00263003 0.0141855 5.34932e-20)
(1.2295 0.32884 0)
(0.258962 -0.0137566 -1.72298e-20)
(0.99994 0.00130883 -8.30557e-21)
(0.997224 0.0318197 7.01641e-21)
(1.011 0.000423802 0)
(1.0504 0.131814 -1.18176e-20)
(1.0129 0.00505562 0)
(0.674348 -0.0571824 0)
(0.396581 -0.242048 2.20386e-19)
(0.998425 0.134724 5.41353e-21)
(-0.0679563 0.0287769 0)
(1.07894 0.0353075 2.75719e-21)
(1.11175 -0.0428477 3.18054e-20)
(-0.0314886 -0.0315773 5.77457e-20)
(0.827192 0.571952 1.7942e-21)
(1.09373 -0.0487974 -1.34395e-20)
(1.09189 -0.0634939 -2.7159e-20)
(1.12779 -0.0362696 0)
(1.14709 0.0590011 -1.19727e-20)
(1.17902 -0.0133164 2.91512e-20)
(1.08577 -0.0195203 0)
(1.08703 -0.0513097 2.46661e-20)
(0.375168 0.105968 -8.081e-20)
(1.0817 -0.0257541 -4.37144e-20)
(1.12726 -0.0210588 3.39354e-20)
(1.0144 0.000708709 -1.0757e-21)
(1.24722 -0.0288959 8.68015e-20)
(1.08205 0.0185175 2.62575e-20)
(1.02927 0.00483693 9.00921e-21)
(1.04606 0.128437 0)
(1.05268 0.0254224 -9.28155e-22)
(-0.0104833 -0.0144159 1.71086e-20)
(0.53543 -0.0724192 0)
(1.01379 0.0232836 -4.20765e-22)
(1.01749 0.00103719 8.25998e-22)
(0.707415 -0.0620972 9.60721e-21)
(-0.256285 -0.00793557 9.3089e-20)
(1.00006 0.000249241 2.67475e-21)
(0.236483 -0.00950953 0)
(1.05374 0.00740802 2.55411e-20)
(1.23159 0.150185 0)
(1.01313 0.0250685 0)
(-0.129306 -0.0148105 0)
(1.17622 -0.0692265 0)
(1.05458 0.0921535 1.723e-20)
(1.03441 0.0363736 -7.76872e-21)
(0.406301 -0.0285743 0)
(1.2443 0.121128 -9.42407e-20)
(-0.25336 0.0103467 0)
(1.00004 0.000296924 0)
(-0.128441 -0.0115113 0)
(0.13596 0.0548992 -7.58687e-21)
(1.05319 0.0217659 8.01034e-20)
(1.02935 0.00528899 -1.14444e-22)
(-0.12484 0.0169095 1.71977e-19)
(0.376153 -0.0543 4.23969e-20)
(1.09972 -0.00763571 1.5438e-20)
(1.00937 0.0124361 9.17996e-22)
(1.00726 0.0449584 4.49243e-21)
(1.07429 -0.0373777 1.95576e-20)
(1.18958 -0.0353126 -8.14823e-20)
(1.0194 3.44348e-05 -5.03392e-21)
(1.00841 0.0116881 0)
(1.00484 0.00231561 3.15671e-21)
(1.00515 0.00242297 6.31837e-22)
(-0.155069 -0.0153998 6.56861e-20)
(1.20292 -0.0397069 9.61871e-20)
(1.09943 -0.00650933 1.12944e-20)
(1.2526 0.108651 0)
(1.00609 0.000621571 1.55663e-21)
(1.01036 0.00534433 7.40333e-22)
(1.1589 -0.00529819 0)
(0.216596 -0.0516808 8.6886e-21)
(1.09935 0.0493823 -2.34094e-20)
(1.03121 0.0210262 9.40598e-21)
(0.994443 0.0117024 -2.14149e-21)
(0.992336 -0.00150628 0)
(0.993072 0.012229 0)
(0.00906304 0.023238 1.66731e-19)
(1.00046 0.00364713 7.8884e-21)
(0.992481 0.00151244 -1.15145e-20)
(1.07175 -0.0558355 0)
(1.08629 -0.018352 -2.42595e-20)
(1.09223 0.00447076 0)
(0.996273 0.0303079 0)
(1.02612 0.0606111 2.13939e-21)
(1.04071 0.0908058 0)
(1.12514 -0.0214277 -3.0864e-20)
(0.952364 0.488817 -1.5376e-20)
(1.25803 0.11686 0)
(1.1919 -0.00311752 -2.43004e-20)
(1.14541 -0.0161995 3.82662e-20)
(1.21521 -0.0517431 1.04995e-19)
(1.16414 0.112588 3.38712e-20)
(1.00125 0.0159145 0)
(-0.114746 -0.0116909 4.85625e-20)
(0.992692 -0.00197095 0)
(1.00061 0.071405 9.78498e-21)
(1.06266 0.00273162 0)
(1.24173 -0.0298073 -1.47474e-19)
(0.992397 0.283378 0)
(1.00967 0.00119908 -3.53948e-23)
(1.23188 0.317675 0)
(1.19468 0.0736536 0)
(-0.090835 0.000307114 6.01384e-20)
(1.14705 -0.0145108 4.27184e-20)
(0.886719 0.13076 0)
(1.10347 -0.000864442 2.92606e-22)
(0.999402 0.0030274 0)
(0.56737 -0.0570533 0)
(1.22035 0.307507 0)
(0.411413 -0.052426 0)
(1.01536 0.0420262 1.01197e-22)
(1.08956 0.0400852 0)
(1.25574 0.104039 1.35893e-20)
(0.0961949 -0.0317518 1.47187e-20)
(-0.184571 0.00254223 -1.44951e-19)
(1.13078 -0.00539671 8.32474e-22)
(1.18573 0.202671 3.52074e-20)
(0.989455 0.0841384 8.59344e-21)
(1.05253 0.0541299 1.11076e-20)
(0.995179 0.030758 6.98907e-21)
(0.889026 0.226238 0)
(0.670872 0.178295 -8.60933e-22)
(0.97346 -0.00638153 0)
(1.11719 -0.00434846 0)
(0.56918 0.145764 -8.69709e-20)
(0.42664 -0.0540166 0)
(-0.247044 0.0121972 -7.32154e-20)
(1.02895 0.0702542 0)
(1.11028 -0.0421608 -1.72071e-20)
(1.16559 -0.0665194 0)
(1.00226 0.11313 8.06829e-21)
(0.967421 0.0210005 0)
(0.175599 0.540478 8.80467e-20)
(0.743431 -0.0713768 -2.67504e-20)
(0.69722 -0.075667 2.19718e-20)
(1.24682 0.0921229 0)
(1.0175 0.00215504 0)
(0.187934 -0.0102535 -1.02297e-20)
(1.0751 -0.0370305 0)
(1.0096 0.000892836 2.29059e-22)
(1.08827 0.0701861 2.26212e-21)
(1.1115 -0.028312 4.13988e-22)
(0.846227 0.0659134 1.17728e-20)
(1.18302 0.0769362 0)
(0.553812 -0.0484066 0)
(1.1756 -0.0133527 6.67275e-21)
(1.08286 -0.0164922 0)
(0.5684 -0.0568525 0)
(1.05463 0.0309973 2.4204e-20)
(-0.0436965 -0.0112196 0)
(0.999965 0.00200515 -7.33231e-21)
(1.00046 0.00393253 -7.06061e-21)
(1.08299 -0.0760494 -2.49898e-20)
(0.712717 -0.0722332 0)
(0.377025 0.237556 -3.50403e-20)
(1.05514 0.0297215 5.21022e-21)
(1.01192 0.0516296 0)
(0.992905 0.00201208 5.43189e-21)
(1.07308 -0.0264451 8.74934e-21)
(0.0781204 0.172422 1.59841e-19)
(1.07871 -0.0448028 3.17525e-22)
(1.0547 0.0545197 0)
(1.09374 -0.0474068 0)
(1.12162 -0.00490078 0)
(1.01296 0.0257583 0)
(1.17173 0.476835 -3.7639e-20)
(1.07788 -0.0441729 1.60939e-20)
(1.06822 -0.0519204 7.99144e-22)
(1.0039 0.0184437 1.21086e-21)
(1.17072 -0.0168143 1.54943e-20)
(1.05187 0.0268052 9.54402e-22)
(-0.0101493 0.0434686 -1.37054e-20)
(1.14117 0.139547 5.40563e-20)
(1.00298 0.276301 -4.24366e-21)
(1.09072 0.0418069 2.42413e-21)
(1.00752 0.00275184 -5.06617e-22)
(1.02704 0.00705707 0)
(1.03311 0.0279103 0)
(0.968421 0.346542 -1.35962e-21)
(0.889866 0.0153208 0)
(1.24086 0.0317259 -7.40002e-20)
(0.47496 0.806631 -2.71726e-20)
(1.116 -0.0110358 -6.25543e-20)
(1.00844 0.00481238 1.0996e-22)
(1.18074 -0.00711318 0)
(0.374196 0.268096 0)
(1.10958 -0.0665824 -3.57772e-20)
(1.03862 0.00585584 0)
(0.899352 0.0284245 1.28942e-20)
(1.00791 0.0115798 -1.73139e-21)
(1.07076 -0.0109399 -2.60092e-21)
(1.06878 0.0430541 2.55089e-20)
(0.350887 -0.0548808 -6.76139e-20)
(0.999845 0.00204562 -7.80891e-21)
(1.24127 0.493771 -5.00816e-20)
(1.07189 -0.00861993 1.25858e-24)
(1.09806 -0.0521658 3.11682e-20)
(1.1683 0.133844 -6.03626e-20)
(-0.0812811 -0.0202665 2.67008e-20)
(1.02562 0.27399 0)
(1.00691 0.0433525 -4.11651e-21)
(0.0233223 -0.0220845 3.61635e-20)
(-0.250495 -0.00421387 7.13873e-20)
(1.00494 0.03312 0)
(1.06173 0.00205688 -2.65374e-21)
(1.18337 -0.0657053 -5.15748e-20)
(1.2391 0.094974 0)
(1.14307 -0.0265081 7.6758e-20)
(1.00015 0.000362086 2.85296e-21)
(1.03562 0.0363456 0)
(1.19649 0.305515 4.254e-20)
(1.06164 -0.00429728 0)
(1.14318 0.00695278 0)
(1.09478 -0.0303169 6.96866e-21)
(1.02769 0.00698563 -3.1654e-21)
(1.10125 -0.02025 -1.36373e-20)
(0.6458 -0.0652722 -1.16544e-20)
(1.03829 0.00449641 6.1232e-21)
(1.05085 -0.00260145 -1.39324e-20)
(1.00432 0.00246206 -7.79179e-22)
(0.135108 -0.0102919 1.11414e-20)
(0.99995 0.000885347 7.57314e-21)
(0.982574 0.0798836 -5.30919e-22)
(-0.295767 -0.00257872 9.56692e-20)
(0.991667 0.0651278 0)
(0.773306 -0.0700509 7.0483e-21)
(1.07095 0.0633154 -1.83304e-20)
(0.831049 0.0700773 -6.78066e-20)
(1.00464 0.00257821 -7.52123e-22)
(1.02138 0.208942 -4.21251e-21)
(1.00033 0.0116211 2.46972e-21)
(1.14569 0.0668848 2.5256e-20)
(1.00722 0.00164852 0)
(1.08323 0.253615 -2.59551e-20)
(1.05346 0.00804711 -8.51453e-21)
(0.265664 0.152286 0)
(0.436173 0.681621 4.71695e-20)
(0.213653 -0.0517955 -1.08285e-20)
(1.01051 0.000407267 2.42695e-22)
(0.999628 0.00247555 0)
(1.15846 0.109828 3.91094e-20)
(1.1203 0.107104 1.90898e-20)
(0.0946656 -0.0132214 2.92499e-20)
(0.341657 -0.0610367 0)
(1.13067 0.0208104 2.70641e-21)
(0.992442 0.0099777 -5.83309e-21)
(1.22445 0.000802897 2.26139e-20)
(0.344008 0.212653 0)
(1.06736 -0.0522214 0)
(1.23502 0.0350441 0)
(1.12127 0.0086579 -3.91985e-20)
(0.592474 -0.0470575 1.70424e-20)
(1.08269 0.124857 -2.36818e-20)
(1.07184 -0.0252255 1.543e-20)
(1.19045 0.0137842 -3.62436e-20)
(0.857532 0.416931 4.65856e-20)
(1.12931 0.0227081 0)
(0.305276 0.289127 0)
(1.13013 0.0284093 3.84102e-20)
(1.05577 -0.00133204 8.49024e-21)
(1.11253 -0.0296558 -2.53561e-20)
(1.00486 0.104437 0)
(1.03237 0.00634282 5.95355e-21)
(1.07071 -0.0101539 0)
(1.10804 0.115102 3.32021e-20)
(1.04773 0.0929334 -5.67872e-21)
(0.99921 0.0114585 5.33822e-21)
(1.00651 0.00049584 -6.28801e-22)
(1.11889 -0.00836124 3.33673e-20)
(1.05887 0.0128346 -5.57423e-21)
(1.14608 0.00803876 0)
(0.993145 0.00973058 1.84452e-22)
(0.995067 0.00759114 -8.36354e-21)
(0.999962 0.000699637 -8.26278e-21)
(1.0221 0.0607323 1.82286e-21)
(1.02318 0.002075 -3.6803e-21)
(1.04592 0.0792197 -9.32172e-21)
(1.00383 0.00261273 -4.0522e-21)
(-0.137673 -0.0138993 0)
(1.07997 -0.0338111 2.09041e-20)
(0.469372 -0.28813 0)
(1.01174 0.00510984 -2.36213e-22)
(1.00006 0.00155393 -5.91578e-21)
(0.802209 0.139992 9.12107e-20)
(1.15015 0.0567742 0)
(0.953279 -6.1785e-05 -1.49232e-20)
(0.894674 -0.00723188 -8.29542e-20)
(1.13254 0.189525 0)
(1.07201 0.112199 -4.18143e-22)
(1.07186 -0.00943454 0)
(1.16793 -0.00702625 -2.56104e-20)
(1.04833 0.0164469 -7.30057e-21)
(0.999911 0.000971583 -2.76992e-21)
(1.00539 0.00216213 -1.31557e-21)
(1.03323 0.055666 8.86201e-22)
(-0.324027 0.00050627 -1.14671e-19)
(1.00004 0.00132125 5.45328e-21)
(1.21108 -0.0585809 3.23569e-23)
(1.04726 0.0815241 1.34971e-20)
(-0.189336 0.0237792 -2.30033e-19)
(0.966558 0.218898 1.0541e-20)
(1.13968 0.187346 0)
(1.09718 -0.0515391 -2.99346e-20)
(1.02016 0.0065938 0)
(1 4.21971e-05 0)
(1.0809 -0.0342363 -1.65589e-20)
(0.988048 0.00161981 7.28069e-21)
(0.984372 0.0402355 1.80549e-20)
(1.04022 -0.00961582 -3.92636e-20)
(1.01159 0.0553108 -1.21204e-21)
(0.998606 0.000283108 -9.35706e-21)
(1.0804 0.0520777 1.40327e-20)
(1.00594 0.0073555 0)
(1.01634 0.000940195 0)
(1.05396 0.0881134 -3.73984e-21)
(0.884868 -0.0279994 6.51505e-20)
(0.072965 -0.00930872 -1.71382e-20)
(1.07766 0.105579 1.57451e-20)
(1.03831 0.00406569 -2.8558e-23)
(1.00883 0.000927746 -1.79678e-22)
(0.129333 -0.0367029 -1.37599e-20)
(0.954028 0.35429 -1.6316e-22)
(1.00076 0.0398489 -7.87164e-21)
(1.01637 0.0414248 6.6395e-22)
(0.990749 -0.00422273 3.81694e-20)
(1.17817 -0.0664234 4.14679e-20)
(-0.302109 -0.00593553 7.13788e-20)
(0.894458 0.131225 0)
(1.05654 -0.000675403 0)
(1.01144 0.00309282 -1.26249e-21)
(1.01658 0.00111074 -1.80268e-21)
(1.08288 -0.0259656 2.25048e-20)
(1.0822 0.106475 1.84344e-20)
(1.10966 -0.0618122 3.51257e-20)
(0.917395 0.0154348 2.22089e-20)
(0.188139 -0.0232009 1.83324e-20)
(1.0263 0.0411093 3.98873e-21)
(0.964083 0.0557087 -1.49004e-20)
(-0.31275 -0.00211 3.30734e-20)
(0.995252 0.00902516 0)
(1.08292 0.0170501 -3.04282e-20)
(1.00395 0.0296837 1.81005e-21)
(1.00194 0.00122396 -1.71776e-21)
(1.10112 0.120661 -2.73216e-20)
(0.773504 -0.0125712 -2.42429e-20)
(1.04594 0.0272909 0)
(0.737566 -0.0704555 0)
(0.333237 -0.0118576 1.42637e-20)
(1.17238 0.128788 1.81942e-20)
(1.00153 0.0164879 3.54286e-21)
(1.02471 0.00367266 -4.752e-21)
(1.08307 -0.0454274 9.49049e-21)
(1.21769 -0.0555917 -3.85696e-20)
(1.00006 0.000407615 1.99462e-22)
(1.19366 -0.0529143 -4.65637e-20)
(1.02422 0.00375958 6.82768e-21)
(1.10444 0.110255 0)
(1.03379 0.000917259 -1.02093e-20)
(1.03329 0.00789449 -4.06068e-21)
(1.19055 -0.0354103 4.23694e-20)
(1.03775 0.0164528 -1.40618e-20)
(1.01903 -0.0508726 5.94252e-21)
(1.10867 0.0837975 3.60772e-21)
(0.999955 0.000634707 2.47412e-22)
(1.01979 0.00381678 -1.31632e-21)
(0.981213 -0.0011386 -1.30177e-20)
(1.00874 0.0191746 -1.36863e-21)
(1.0504 -0.00180247 1.55056e-20)
(0.273824 0.684553 0)
(1.03701 0.00601479 -8.73408e-21)
(1.02949 0.0110858 9.82052e-21)
(0.418335 -0.0648661 0)
(0.667899 -0.073805 -5.399e-20)
(1.08387 -0.0176458 -1.86491e-20)
(1.11514 0.108543 -1.85283e-21)
(1.13581 -0.000120712 3.00391e-20)
(1.07151 0.024478 -2.6785e-20)
(1.0232 0.0142329 0)
(0.887627 0.00800874 0)
(-0.0994984 -0.0161707 0)
(1.09297 0.254805 1.83534e-20)
(0.998189 0.00470697 0)
(1.03317 0.0355547 5.95499e-21)
(0.376885 -0.063832 3.35412e-20)
(1.10487 0.0191517 3.06019e-20)
(-0.102965 -0.0157844 6.65997e-22)
(0.999954 0.000833506 0)
(0.95086 0.000702114 -3.39286e-20)
(0.117557 -0.00875492 5.98918e-21)
(1.09772 0.014327 5.16055e-20)
(1.04792 0.0260603 -3.15485e-21)
(-0.313992 0.00215824 0)
(0.212992 0.235516 -1.19127e-19)
(1.00901 0.0186819 9.71531e-22)
(1.18661 0.0155728 -6.53187e-20)
(1.0057 0.00227183 0)
(1.03668 0.0163805 8.83782e-21)
(1.01209 0.0053816 0)
(-0.102868 -0.0221063 -8.62887e-20)
(1.02283 0.00190238 0)
(1.03817 -0.000474303 6.72782e-21)
(1.02373 0.0138525 4.06426e-21)
(0.971919 -0.0514817 1.3551e-20)
(1.05868 -0.00720478 0)
(1.2356 0.143213 0)
(0.700976 -0.0984352 0)
(1.03393 0.0063611 7.03296e-21)
(0.844507 0.0229023 0)
(1.00049 0.00346853 -2.57742e-21)
(-0.142891 -0.0136417 0)
(1.00508 0.00976454 1.36476e-22)
(1.03766 0.00559445 1.16368e-20)
(0.998648 0.000804573 1.30534e-21)
(1.08375 -0.0460979 4.13973e-22)
(0.998482 0.000632236 0)
(1.17401 -0.0168378 8.11261e-21)
(0.338666 -0.00726857 0)
(0.759644 -0.0684054 4.48611e-20)
(0.904198 0.0289749 0)
(1.09621 -0.0639814 -5.0688e-20)
(-0.269331 -0.00394278 4.76613e-20)
(0.995854 0.0251836 0)
(0.168343 -0.00747095 -1.10124e-20)
(0.456194 0.0437463 -3.26876e-19)
(-0.246518 -0.00437209 0)
(0.369065 -0.0242378 0)
(0.397007 -0.0635192 -2.76821e-20)
(0.121488 0.173015 0)
(1.17765 -0.00547003 3.30688e-20)
(1.00885 0.0459222 1.74262e-21)
(0.537689 -0.0469368 8.18592e-21)
(1.09727 0.0161311 -4.84275e-20)
(0.487372 -0.049876 -6.20055e-21)
(1.02868 0.00556953 -8.74248e-21)
(1.02229 0.0222871 1.65655e-21)
(1.00213 0.0408337 2.00451e-22)
(1.00052 0.00374457 -2.90138e-21)
(1.07587 0.0203825 -2.19012e-20)
(0.890745 0.0873076 0)
(0.140384 -0.0159921 0)
(1.02217 0.0213738 0)
(0.993744 0.00289998 -7.77094e-23)
(-0.221206 0.0172775 -7.47504e-20)
(0.974065 0.445913 -1.15593e-20)
(0.981394 -0.00239698 -1.03881e-20)
(0.811697 -0.0578302 8.84405e-20)
(1.08746 0.0537571 -3.94261e-21)
(1.04221 0.02169 0)
(0.498959 0.718387 0)
(0.805466 -0.052597 0)
(0.951146 0.0477205 -3.00617e-20)
(1.059 -0.00663276 -1.28351e-20)
(0.311874 -0.00823752 1.48395e-20)
(-0.297145 -0.00174205 0)
(0.222563 0.0574986 1.21533e-19)
(1.03333 0.00126426 9.65845e-21)
(1.24147 0.128866 0)
(1.19098 0.0701065 0)
(-0.225724 0.00485573 0)
(0.471404 -0.0686462 -3.57465e-20)
(1.07803 -0.039798 -2.81284e-20)
(1.01416 0.0251574 0)
(1.04924 0.0171194 1.48836e-20)
(1.02496 0.0414184 0)
(1.01987 0.000291832 -1.9158e-21)
(1.02463 0.0617945 1.00461e-22)
(1.01677 0.00176498 -1.84235e-21)
(1.043 0.0892907 2.98319e-21)
(1.07864 0.124768 0)
(-0.0475581 0.0285197 -4.75093e-20)
(1.13142 -0.039073 0)
(1.03851 -1.33525e-05 7.19427e-21)
(1.16466 -0.00743025 2.35036e-20)
(-0.0548132 -0.0303582 7.06927e-20)
(1.09769 0.115709 2.22587e-20)
(0.971864 0.021062 -1.4803e-20)
(-0.0534518 -0.00982872 0)
(1.02865 0.0194719 -1.03648e-20)
(0.985258 0.0382799 -1.15929e-20)
(0.817373 0.0592838 -3.55409e-20)
(-0.00773782 0.0356834 0)
(0.998424 -0.000763415 3.0771e-21)
(1.00346 0.0187173 -1.2515e-21)
(0.523161 -0.0570569 0)
(1.09327 -0.0626491 5.96239e-20)
(1.15533 -0.0660244 -8.34064e-20)
(1.14575 -0.0209134 -3.14297e-23)
(1.09814 -0.0641082 2.54321e-22)
(1.007 0.0179273 1.56967e-21)
(1.18767 -0.00802279 -9.76764e-21)
(0.970898 0.0229008 8.07304e-21)
(1.00325 0.0102017 -3.06405e-21)
(0.968808 0.0188292 1.65099e-20)
(0.633574 -0.0564185 -1.63907e-20)
(-0.278715 -0.00723485 -1.26129e-19)
(1.03069 0.00974099 0)
(1.02027 0.00388468 1.41735e-21)
(1.00387 0.0309984 1.91965e-21)
(1.18187 -0.0673031 3.61681e-20)