/*--------------------------------*- C++ -*----------------------------------*\
| =========                 |                                                 |
| \\      /  F ield         | OpenFOAM: The Open Source CFD Toolbox           |
|  \\    /   O peration     | Version:  v2012                                 |
|   \\  /    A nd           | Website:  www.openfoam.com                      |
|    \\/     M anipulation  |                                                 |
\*---------------------------------------------------------------------------*/
FoamFile
{
    version     2.0;
    format      ascii;
    class       volScalarField;
    location    "700";
    object      p;
}
// * * * * * * * * * * * * * * * * * * * * * * * * * * * * * * * * * * * * * //

dimensions      [0 2 -2 0 0 0 0];


internalField   nonuniform List<scalar> 
13851
(
0.00075858
-0.0158301
-0.0193395
0.000683615
-0.0426696
0.00398627
-0.0192811
-0.0226526
0.000579665
0.0051949
-0.000392602
0.0245425
-0.0668227
-0.0230862
-0.012184
-0.0106432
-0.0217472
0.000788507
-0.0656153
0.000524281
0.000434263
-0.0223245
0.000615149
0.000204108
0.000612983
-0.0208635
-0.0321248
-0.112467
0.000408617
-0.00617737
0.00381788
-0.0218997
-0.0176228
-0.0129013
0.000148245
-0.0624905
-0.0596375
-0.0412408
0.00776545
-0.0122787
-0.00389109
0.000394724
-0.0672433
-0.00218825
-0.0038674
-0.0863262
-0.0087561
-0.00656771
-0.0328653
0.00370231
-0.0526664
-0.0557074
-0.0899492
-0.0119532
-0.00569427
0.000387611
0.000700644
-0.105554
-0.00618175
-0.0194201
-0.0392134
-0.0928269
0.0112884
-0.0467092
-0.0068969
0.00198772
-0.0586969
-0.00937751
-0.0416985
0.00128274
-0.0524079
-0.0600596
-0.0106986
-0.0120851
-0.00484571
0.000894976
-0.0233254
-0.0565813
-0.0376434
-0.0535142
-0.0206189
-0.00214307
-0.012033
-0.0755723
0.0114085
0.0291974
0.00463032
-0.0085771
-0.0280925
0.00111034
-0.0623827
0.00412152
-0.00962956
-0.0312156
-0.0287939
0.000766713
-0.0440705
-0.0731156
0.00299399
0.00078204
-0.07281
-0.0446363
-0.0030762
-0.0390437
0.000159037
0.0064842
-0.0477117
0.000240086
-0.0599631
0.00278217
0.000457059
0.00113126
0.00403123
0.000230414
0.000458719
-0.0130721
-0.0750717
0.000357444
-0.00166059
-0.00501081
-0.0687244
-0.0381199
-0.0686224
-0.0116195
-0.00510242
0.000962338
-0.00869281
-0.040912
0.000387205
-0.0484515
-0.0040141
-0.000668027
-0.0534947
-0.0121355
-0.011906
-0.00104462
0.000354769
-0.0589351
-0.0505536
-0.0115103
-0.0806372
-0.00526992
0.00179833
0.000702742
-0.0160931
-0.00282779
0.000152109
-0.047255
-0.0187732
-0.00437317
-0.0645037
-0.00461506
-0.0207215
0.000746082
-0.0237808
-0.0155588
-0.000676561
-0.00851002
-0.0553908
-0.0516838
7.85574e-05
-0.0384513
-0.102646
-0.000585693
-0.00553962
0.000581061
0.000178613
-0.0430159
0.000174055
-0.0774997
-0.0563828
0.000650636
-0.000765329
-0.0106212
-0.000610101
-0.00380047
-0.0398475
0.00183853
-0.0670661
0.000226498
-0.0211904
-0.0570322
-0.0123574
-0.0239746
3.11721e-05
0.00078354
0.00205133
-0.0049776
-0.0421668
0.00606707
-0.00886801
-0.0921713
0.00116388
-0.0376463
-0.0868561
-0.0225399
0.00173895
-0.00433043
0.00177352
0.000901745
0.00100449
-0.100641
-0.00253985
-0.00853374
0.00356344
-0.0125886
-0.0195442
-0.0238139
-0.0545792
0.000128872
-0.0562307
-0.00328764
-0.00996053
0.000150531
0.000629143
-0.00183869
0.00846396
-0.0868619
-0.0121551
-0.0546729
-0.0236934
-0.0212337
-0.062069
-0.0531002
-0.0545315
0.000771838
-0.0319565
0.000167228
-0.0870138
0.000133557
-0.0195992
0.0059212
0.000645849
0.00113454
-0.0532644
0.00228586
-0.0205715
-0.00845802
0.000664853
-0.00874384
0.00534513
0.00514034
0.00011586
0.00531799
0.000164597
-0.0550829
-0.0439704
-0.0107316
-0.0144483
-0.0150215
0.00277483
0.00395966
-0.0152398
-0.0150698
-0.0523461
0.00823897
0.00443567
-0.0593814
-0.0602931
-0.0139209
0.000638941
0.00103164
-0.00124285
0.000900055
-0.0694136
-0.0219287
-0.0153983
-0.0312702
-0.0631986
0.000685808
0.00273421
-0.02314
0.00489612
-0.0373791
-0.0103525
-0.000636903
-0.000115652
6.64897e-05
-0.0568197
-0.0012429
7.77399e-05
7.69222e-05
0.000101853
-0.0520777
0.00162871
-0.004278
0.000691018
-0.0128376
0.00476328
-0.00295002
-0.0492361
-0.00682427
-0.0194929
-0.0406635
-0.00352588
-0.0707983
-0.00744822
0.0358365
-0.000650061
-0.0544301
-0.0383149
-0.0206931
-0.0566793
-0.00667061
0.00558722
-0.0588343
0.000630645
-0.0487277
-0.0301581
-0.00678453
-0.0543141
-0.00704403
-0.0137877
-0.0680197
0.000459643
-0.0153645
0.00104011
-0.0586293
-0.0628605
-0.0122895
-0.0477009
-0.0127601
-0.0583032
0.00221575
0.000702791
0.000173386
-0.0621848
-0.031788
-0.024813
-0.0127508
-0.00691414
-0.0133893
-0.00109183
-0.0307084
-0.0883326
0.00440123
-0.0556043
-0.0538587
-0.0120632
-0.0370214
-0.048397
0.00379654
0.00405192
-0.0552825
-0.0649972
0.0024769
-0.00720483
-0.0564969
-0.0122082
0.00298539
0.00324035
-0.00558015
-0.0253242
0.00406882
-0.088983
-0.000695958
-0.00423071
0.000222801
-0.0127023
0.00015243
0.000220788
-0.000993306
-0.0565147
-0.00110117
-0.00937998
-0.0483667
0.000482966
0.0337169
-0.00569136
-0.00783366
-0.0804009
-0.00915451
0.00896841
-0.0281412
-0.00574523
-0.00372954
0.000370946
0.00201617
-0.0761274
-0.00479824
-0.0513025
0.00366909
-0.0558363
-0.0792877
0.00523854
0.00535415
0.00242463
-0.00119086
-0.0121605
0.00362857
-0.0486732
-0.0149053
-0.0446725
-0.0564663
-0.0564427
0.000522378
-0.014206
-0.0842828
-0.0531735
0.00808475
-0.0722828
0.00215458
-0.0284745
0.000755692
-0.0526995
0.0006381
-0.0116931
0.00232011
-0.0174145
0.000120827
0.000629921
0.00055952
-0.0472367
0.00174648
-0.0579332
0.00225907
-0.0483866
0.00328761
0.00317419
-0.0133572
-0.00192885
-0.0204107
-0.00297216
0.000335253
0.000594278
0.000791634
-0.039076
-0.0121568
-0.0513342
0.00329198
-0.0536673
-0.0165295
0.00544095
-0.00467924
-0.054294
-0.00382522
0.0017962
0.000271095
0.0204781
-0.00311531
-0.014596
-0.0544969
0.00186596
-0.000577452
-0.00584889
-0.0678696
6.53888e-05
-0.028915
-0.0388166
0.0005278
0.000583976
-0.0126934
-0.0643223
-0.0553477
0.0039227
-0.00329827
0.000761159
0.000309464
-0.0721993
-0.00489494
8.18784e-05
-0.00509752
-0.00112751
0.000817394
0.00047837
-0.00202309
-0.00800702
0.000117696
0.00180324
-0.0671477
-0.012155
-0.0448296
-0.00109484
0.00436486
-0.00278158
8.26447e-05
-0.00227877
0.000191105
0.000118458
1.43466e-05
-0.0161794
0.00514303
-0.0124648
0.000766203
-0.0639374
-0.0542007
-0.0131429
0.0045121
-0.0139647
0.00326347
-0.0799842
0.000246047
-0.000373716
-0.00393925
-0.0376695
-0.0179752
-0.0824341
0.0002881
-0.087751
0.0027952
0.000420438
0.00458685
-0.0707792
-0.018246
-0.00851646
-0.00178687
-0.0230699
-0.00581878
-0.000273212
-0.000477806
-0.0178239
-0.0543299
-0.0500962
-0.0574689
-0.0630373
0.0102807
0.000103356
-0.0770413
-0.00878091
-0.0221516
-0.0375612
0.00567395
-0.0160092
-0.0548764
-0.0113041
-0.0842694
-0.0823691
-0.101056
-0.00608013
0.00487455
-0.00570759
-0.000486781
0.0104783
-0.00705639
0.0186832
-0.00795837
0.0110098
-0.0557114
0.000300836
-0.000379327
-0.0511984
-0.0531142
-0.0138101
-0.00946915
-0.000749767
-0.00604664
-0.0429096
0.000266592
-0.0131308
-0.000927623
-0.000218626
-0.0701775
-0.0566282
0.00777612
-0.0080382
-0.0435807
4.40483e-05
0.000611059
-0.000838852
-0.0793785
-0.0245962
-0.0621897
-0.0606412
0.00036513
0.00331901
-0.0204281
-0.0061253
-0.0538391
-0.0544175
-0.0571993
-0.00382524
-0.0177596
0.00195839
-0.0573806
-0.0603651
-0.0456826
0.0125764
0.000233328
-0.00591031
0.0158133
0.00034527
-0.0132144
0.000200182
-0.00178411
-0.0547923
-0.045164
0.00319378
0.000327995
-0.0526433
-0.00361896
-0.000863667
0.000788253
0.000912212
-0.0121588
-0.0834089
-0.0101712
-0.00922798
-0.10929
-0.0201349
-0.0451223
-0.0528138
-0.0533457
0.00260041
-0.0409337
2.59469e-05
0.00109207
-0.0133907
-0.0698888
-0.00368774
-0.0615033
-0.0236748
0.000504313
-0.00886659
0.00157383
-0.0098368
-0.0495477
-0.0122696
0.00441815
0.000549887
-0.032831
-0.0512654
-0.0188742
-0.00362418
-0.00613655
-0.0161691
-0.0420048
-0.0348309
-0.052568
-0.00736678
-0.0607973
0.000473719
0.0101518
0.00205069
-0.106263
-0.00372222
0.000678338
-0.0610035
-0.00338754
-0.0770944
-0.0556068
-0.0848734
-0.00776686
0.000605916
-0.0620433
0.000138506
-0.00156597
0.000266133
-0.00179566
9.66474e-05
0.00300478
-0.00210672
0.000313417
-0.0321394
0.00440996
-0.0381057
-0.000503336
0.00020405
0.000627951
-0.0456924
-0.0757951
-0.0569552
-0.0326081
0.00015707
0.000764409
-0.000265719
-0.000333894
-0.0580646
-0.0106345
-0.0158881
0.000279129
-0.0180614
-0.000460875
0.0209444
-0.0972204
-0.00930026
-0.0774561
-0.0222768
-0.00370581
-0.0570626
-0.0626006
-0.0414798
0.0315816
-0.0200454
0.000666342
-0.0561207
0.00165491
-0.00735977
-0.0129092
-0.00821359
0.000273529
-0.0519735
-0.0547702
0.00107842
-0.00318512
0.0124703
-0.000251171
-0.0210359
-0.00104465
-0.0053955
-0.0484228
-0.0681321
0.000874055
0.000187837
-0.000578238
-0.0729809
-0.0608406
0.0024381
-0.0552062
0.000858119
-0.0120635
0.000324904
-0.0180703
-0.0579384
-0.00808611
-0.00166427
-0.00194353
-0.0296734
0.00060607
-0.0664623
0.0124462
-0.0598104
0.000426752
-0.0160656
-0.0541815
-0.105882
-0.0625394
0.00156335
-0.0563128
-0.0124792
-0.00183012
-0.0169993
-0.013498
-0.0156971
-0.0842933
0.00285882
0.00155935
-0.0601916
0.00060826
-0.00253179
-0.00796754
0.000497976
-0.0692811
-0.016981
-0.0545138
0.00313214
-0.000845037
0.000484831
-0.00475576
-0.000650167
0.00288934
0.000253466
-0.00359364
-0.00334959
-0.0566685
-0.000915114
0.000449069
-0.00447224
-0.0182649
-0.0546909
0.000409274
0.00170798
-0.0565149
0.0262059
-0.0035831
2.34487e-06
-8.13635e-05
-0.0788573
-0.0159594
-0.0584891
-0.0509346
0.000500312
0.00201825
-0.0668743
0.00222667
-0.0127468
-0.000242806
0.000271237
-0.00426324
-0.00954726
-0.000856803
-0.0072271
0.00181048
-0.0115204
0.00161552
-0.0651945
-0.00540839
-0.0403008
-0.00627832
-0.0157774
-0.0394512
-0.0545502
-0.0577546
-0.00751156
-0.0107798
-0.0620992
-0.0186627
-0.0742383
0.00948992
-0.0887683
-0.0015208
-0.0627367
0.00177842
-0.0110441
0.000473297
0.00370757
-0.104091
-0.0737418
0.00041175
0.000784159
-0.0528342
-0.00295968
0.000483032
-0.096176
0.000832141
-0.0105627
-0.071161
-0.0546656
-0.000450971
-0.00150064
-0.0126727
-0.104311
-0.0580281
-0.0603632
0.0022767
-0.0859903
-0.0107774
-0.0746975
-0.0465295
-0.0471562
-0.013071
-0.017954
-0.00694117
-0.0600628
-0.0538873
0.00253233
-0.0435902
-0.0687953
-0.091731
-0.0562763
-0.0143503
-0.0453243
-0.000805633
-0.00776977
-0.002932
0.0194318
-0.0121832
-0.0547617
0.00048669
-0.0559228
-0.00506001
-0.0133745
-0.0459789
-0.0439939
-0.0739146
-0.0513012
-0.00144639
0.000155522
-0.0550754
-0.00671589
0.0137631
-0.0120221
-0.0546654
0.000879889
0.00551039
0.00068862
-0.0117437
-0.0590469
-0.0702778
-0.0551426
0.00290478
0.00255655
5.33853e-05
-0.0599287
-0.0121096
-0.0167525
-0.0540241
-0.000704973
-0.0304301
-0.0419357
-0.0047171
-0.0112721
-0.0138977
0.00074854
0.00735302
-0.0538661
-0.0538179
-0.0127954
0.0020147
0.00130752
-0.0769654
-0.0543894
0.000461302
-0.0112891
-0.000392165
-0.00247182
0.00101793
0.000751039
0.00554256
-0.000387511
-0.0103601
0.00188145
0.000152483
-0.0085167
-0.0519285
-0.0739473
-0.0299347
-0.0123306
-0.00525208
-0.0277836
5.87753e-05
-0.00045306
-0.00819287
-0.00997437
-0.0524358
-0.0130845
-0.0550542
-0.0143161
-0.0134391
0.00118809
-0.112057
-0.00163125
0.00362484
-0.000535805
-0.0592083
-0.0174823
-0.0233277
-0.0524981
-0.033649
0.00161054
0.020628
-0.0306154
-0.0828119
-0.0263115
-0.00308165
-0.00391413
-0.0505118
-0.0459179
-0.012288
6.22703e-06
-0.0171566
-0.000522677
-0.000560826
-0.014909
0.00107163
-0.0682456
-0.0158806
-0.000538123
0.00321296
-0.00070525
-0.0127943
0.000179943
-0.0196048
-0.0604069
-0.000769759
-0.05891
-0.0772327
0.001325
-0.0123385
-0.017507
-0.000595152
0.00126512
-0.00582018
-0.000703651
-0.0561985
-0.0247274
0.00062182
-0.00177505
0.000711423
-0.0568952
-0.0126273
0.0131886
-0.0697404
-0.0580195
-0.00575882
0.0028295
-0.0246376
-0.000919465
-0.00932831
0.00804073
-0.012844
-0.00508625
-0.00632678
-0.00425504
-0.0904665
0.000531033
-0.0700123
-0.0170827
-0.0290764
0.000155997
0.000822665
0.0212782
0.0117129
-0.00360868
0.00103106
-0.0111687
-0.00783045
-0.0121708
0.0163718
0.00175792
-0.0204332
-0.064596
-0.0129078
0.000765358
-0.00769923
0.0100616
0.00408991
-0.0372519
-0.0171457
-0.0271351
-0.0253806
0.00192328
-0.0225324
0.000682984
-0.0588458
-0.0626666
-0.0251583
-0.0589575
-0.0120849
0.00082333
-0.00174152
-0.00855318
-0.00265229
0.000557692
-0.000574645
0.00102628
-0.0531566
0.000578346
0.000982475
-0.0212733
-0.0353593
-0.0581067
0.000899791
0.00323043
-0.00357681
-0.0606319
-0.0703709
-0.0291889
-0.0738864
-0.0357133
-0.0576492
0.000684089
-0.04978
-0.00935301
0.000725055
-0.00191771
-0.0563511
-0.0615178
-0.0136123
-0.0380494
-0.00322484
-0.0105735
0.000181458
-0.0053334
0.0036651
-0.0207945
7.95391e-05
-0.0342382
0.00246229
-0.0531655
9.81425e-05
-0.0265752
0.000232392
-0.0271031
-0.00288099
-0.0581018
-0.0646953
-0.0557516
-0.0317752
-0.0565285
-0.0133007
-0.10424
0.000803105
0.0217395
0.000563743
-0.0126171
-0.0394398
-0.0141766
-0.0553726
-0.0182238
-0.0289432
0.00275813
-0.0574479
-0.00254864
-0.0124465
-0.0286704
-0.0080082
0.000850765
0.00438652
-0.00184466
-0.0130347
0.00298287
-0.0042391
-0.0345547
0.00239026
-0.015738
-0.072019
0.0108377
0.000811405
-0.0238607
-0.0840524
-0.0170408
0.0281794
-0.0799894
0.00329613
0.000667196
-0.0573207
0.00429645
-0.0358999
-0.0306263
-0.0570736
-0.00762199
-0.0479416
0.00547265
-0.00319066
0.00402784
-0.0111407
-0.0798146
0.00166949
-0.0555278
-0.000269502
-0.0385941
-0.0585819
-0.0202056
-0.0564711
-0.058918
0.000573141
0.00574372
-0.0552753
0.0091615
-0.0572498
-0.00809834
-0.0077387
-0.052549
-0.0702825
-0.0813785
-0.00864252
-0.0180059
-0.00976658
-0.0549643
-0.0629054
-0.0190451
0.00830916
-0.0114334
-0.0117523
-0.0588995
-0.00839689
-0.0139979
-0.0563487
-0.0295102
-0.00214196
-0.0577554
-0.0834309
-0.019592
-0.000343824
-0.112453
-0.0581422
0.00102074
-0.00373752
-0.0149699
0.00058167
-0.000410353
-0.00431147
-0.0226835
-0.0071389
-0.0547305
-0.00121312
-0.0702617
-0.0223196
-0.0633831
-0.000864958
-0.0212551
-0.0657091
-0.0230064
0.00273812
-0.00711977
-0.03048
5.34215e-05
-0.0126122
0.000838232
-0.0117397
-0.00352099
-0.0605705
-0.000393748
0.00157817
-0.0582298
-0.00922259
0.0119524
-0.0167221
0.00134459
-0.000516443
-0.043153
-0.0576454
-0.0642775
-0.000947678
-0.0495639
-0.00904865
-0.00478519
0.000856159
-0.0568666
-0.0388589
-0.00861393
-0.0568984
-0.00939177
-0.0184345
-0.057754
-0.0587753
0.00213056
-0.00169056
-0.00269302
-0.0198372
-0.0477995
0.000194185
-0.0585183
-0.0066662
-0.00522437
-0.0214154
-0.0557264
-0.00413339
-0.00773676
0.0145815
-0.0590102
0.008129
0.00661922
-0.00515917
0.0128522
0.00304256
0.00107478
-0.0228508
-0.0606453
-0.0632661
-0.0253111
-0.0564376
-0.00376214
-0.0560659
-0.0569596
-0.0419482
-0.00866255
-0.0015401
-0.00383497
-0.00340601
-0.0577775
-0.00740099
-0.021482
-0.00400268
-0.0723139
-0.0565938
-0.0900534
-0.00123486
-0.0573938
-0.00762353
-0.0046226
-0.00472669
0.000509298
-0.110312
-0.0126199
-0.0534988
0.0011784
0.00833249
-0.0598311
-0.0123438
-0.00472153
-0.00827239
-0.0647781
0.00184442
-0.0179149
-0.00141875
-0.00429777
-0.0585966
-0.023038
-0.0150853
0.0010689
-0.0139494
-0.0153937
-0.051984
-0.000943367
-0.0420607
0.000200901
0.0134728
0.000894024
-0.0754559
0.0247951
-0.045908
-0.0315416
-0.0120548
0.00457701
-0.00441636
-0.00112784
-0.0127803
0.00103934
0.00164334
-0.0619835
-0.0284996
0.00173128
0.00278044
0.000592936
-0.0636868
-0.0682422
-0.066692
-0.0393883
-0.0116952
0.00233139
0.00016097
0.000908302
-0.0587711
-0.0546952
0.000424924
-0.00399416
-0.00415842
-0.0585476
-0.0206884
-0.0209334
-0.0563911
-0.0199668
0.00271258
-0.0572685
-0.0579036
-0.00686345
0.000732802
-0.00897967
-0.053136
-0.0656676
-0.021045
-0.0583845
-0.0895954
-0.0270042
-0.0562122
0.0316663
-0.00221928
-0.0730509
-0.0570865
-0.0103726
-0.113614
-0.0158634
0.000408432
0.000777129
-0.0567687
0.00391041
-0.0600171
-0.0160005
-0.0300022
-0.0500893
-0.00592405
-0.0582623
-0.0561813
-0.00652747
-0.024167
-0.0648517
-0.043462
-0.0799194
-0.00197346
-0.00422498
-0.00355282
0.00232764
0.000816084
0.00632324
-0.00284603
-0.00883585
-0.0211085
0.021533
-0.0222936
0.00152107
0.000112976
0.000547711
-0.00245576
-0.0158814
-0.00476816
-0.0459857
-0.0129171
0.000640322
-0.0431942
0.0321658
0.0119956
-0.0560164
-0.000779399
0.000440024
-0.0582556
-0.0901855
-0.0785179
0.00497808
-5.12321e-05
-0.056968
-0.00653213
0.00108554
-0.0374266
-0.00240514
-0.0464271
-0.053238
0.000590155
-0.095292
-0.0586589
-0.0236548
-0.0852396
-0.0565752
-0.0137965
-0.00191692
-0.0535958
-0.0763851
-0.0293705
-0.0593707
0.000108911
-0.00887694
0.00108771
-0.0120895
-0.0558722
-0.077258
-0.119583
-0.0856355
-0.0298205
-0.00607701
-0.00114475
0.000541497
-0.00523475
0.000781968
-0.0682503
-0.00279029
-0.0564002
-0.00409819
0.00986608
-0.0351088
-0.0603078
-0.0541477
-0.0570631
-0.0450957
0.000540257
0.00113319
-0.0575508
-0.0613558
-0.0285832
-0.00190953
0.000645517
-0.0213563
-0.0180833
-0.0606237
0.0182764
-0.0317267
0.000800434
-0.0657942
0.00244695
-0.0516623
-0.00111045
-0.0037262
-0.0478827
-0.00236411
-0.0602513
0.000662901
-0.054976
0.000934519
-0.0311042
0.00491301
-0.0122132
0.0126311
-0.0328859
-0.0426238
-0.0982378
-0.0650777
-0.0270847
-0.0231779
-0.00537906
-0.0571675
-0.0890305
-0.000321507
0.000752358
-0.00990115
0.000290872
-0.0536838
0.000282861
0.00376256
-0.010488
0.0145486
-0.00178202
0.00114964
-0.0186046
-0.0589893
-0.0583127
-0.00692152
0.00353581
-0.0160349
0.00527035
0.027947
-0.00524938
-0.0596287
-0.0444257
0.0122074
-0.0107211
-0.00587992
-0.00456267
-0.071671
-0.0797577
0.0135219
0.00112457
0.00263492
-0.000184088
-0.0512098
-0.0123905
-0.0595364
-0.099894
-0.0118854
0.0294268
-0.00569678
-0.00489962
-0.00482047
-0.0183957
-0.0532028
-0.0140979
-0.0596782
-0.000652991
-0.00466183
-0.000541753
-0.0104371
-0.0773049
-0.0591974
-0.0142797
-0.0860851
-0.0682674
0.00105006
-0.0110179
0.000918807
0.00405335
-0.0542702
-0.0611475
-0.0106876
-0.00616099
-0.0134888
-0.0107495
-0.0419752
-0.0932876
-0.014406
-0.0550714
-0.0499999
0.00183778
-0.0107239
-0.000480721
-0.0467071
-0.0066799
-0.00622748
-0.0536018
-0.0183948
-0.0903271
0.00239646
-0.0249111
0.000713782
-0.122236
-0.0920977
-0.0182956
0.0071466
-0.0277281
-0.0115114
-0.00224807
-0.0128645
0.000778811
-0.0756393
-0.0172709
-0.0870208
-0.00781516
-0.0823946
0.0304433
-0.0552816
0.00231657
-0.0366255
-0.0819301
-0.00398577
-0.0180442
-0.0549976
-0.000225961
0.00488458
-0.0265895
-0.0812656
-0.0646123
-0.00641056
0.00831718
-0.0128538
-0.0019156
0.00466381
-0.0119627
-0.10049
-0.00559632
-0.0248055
-0.0185709
-0.00450932
0.0306252
-0.0525961
-0.0168233
-0.0577503
0.00401736
-0.000147939
0.035773
-0.0545665
0.000460596
-0.0433633
-0.0762528
-0.0283601
-0.000227454
-0.0138243
-0.0253679
-0.0585661
-0.0629984
-0.0123385
-0.0525605
-0.0242254
-0.00146275
-0.00731176
-0.0797698
0.00902017
0.00216067
-0.077956
-0.00468732
-0.0172058
-0.00274133
-0.0664016
-0.00705754
-0.0981685
0.00114222
-0.0249387
-0.0234465
-0.00646419
-0.0497076
-0.0749952
-0.00855608
-0.00905626
-0.0309424
6.00168e-05
-0.0138995
-0.0140963
-0.0232013
-0.0447094
-0.0466137
0.000609589
-0.058325
-0.0292545
-0.0447109
0.00519936
0.0359984
0.000972537
-0.0530362
-0.0538892
-0.0432771
-0.0170958
-0.059333
-0.0863675
-0.0148829
0.00280192
0.00103459
-0.0166872
-0.0519505
-0.00113555
-0.0567982
-0.00291192
-0.058786
-0.00543588
-0.0535086
0.000604898
-0.00215085
-0.00997645
0.00555684
-0.0863801
-0.0572643
-0.0618089
-0.0211215
0.000785502
0.00614902
0.00467435
0.00108846
-0.0639739
0.000127886
-0.0428461
-0.0109507
0.00994
-0.00605532
-0.00485646
-0.00720808
0.00478887
0.0163225
-0.00230359
-0.0537172
-0.0021656
0.00065984
-0.00500102
-0.000123933
-0.0120039
-0.0124568
-0.0236435
-0.021576
-0.00232596
0.00537859
-0.0574286
-0.00101252
0.0134183
-0.00265581
-0.0186397
0.00091807
-0.0603234
-0.0141256
-0.00430136
-0.0601069
-0.0362802
-0.0205803
-0.0573738
-0.0630986
0.00138692
-0.0138031
-0.0158466
-0.0236207
0.00582103
0.000797676
-0.035231
-0.114012
-0.0551041
-0.0597311
-0.0151744
-0.0736031
-0.00596139
-0.0244975
-0.00109719
-0.0638151
-0.0126537
-0.0316921
-0.0116887
-0.0573477
-0.0924511
-3.41103e-05
0.000767399
-0.022455
0.00205499
-0.0185182
-0.0539868
-0.005142
0.00407786
-0.116469
-0.055775
8.93264e-05
-0.0323368
-0.0373817
-0.10338
6.77139e-05
-0.089
-0.118312
0.00369167
-0.0254969
-0.0919294
0.025016
0.00186213
-0.0012952
0.00371596
-0.0290489
0.000765477
-0.00192805
-0.0560791
-0.0748972
-0.0758641
0.000673407
-0.0555519
-0.0138499
-0.0425147
0.00102431
-0.0120136
-0.0269888
6.56351e-05
-0.0956954
-0.0309355
-0.0133227
-0.0264565
-0.0868646
-0.015556
-0.0587283
-0.0907192
-0.0587895
-0.00138876
-0.0649971
0.000894001
0.000379035
-0.0110173
0.00107641
0.0011009
-0.0948169
0.00424047
-0.000353115
8.82391e-05
-0.114966
-0.0872585
-0.00295235
8.98807e-05
-0.000567788
0.00112175
-0.0949031
0.00107569
4.15062e-05
-0.00751876
-0.0277173
0.000284017
-0.00476862
-0.0936767
-0.042291
-0.0197267
0.00097683
-0.00550718
-0.0201795
-0.0555872
0.000759024
-0.0680435
-0.0475855
-0.0155241
-0.0925829
-0.0828292
0.000853787
-0.0629033
-0.0148731
-0.0731356
0.00274795
-0.00563755
0.000437827
-0.0183621
-0.000404558
-0.0822428
0.00117008
0.00119829
0.00194866
-0.0587852
-0.0411834
-0.118684
-0.060764
-0.0153291
-0.0528261
-0.022522
-0.0334274
-0.0730343
-0.0911963
-0.00210931
-0.0570103
0.00404529
-0.0188535
-0.00587143
-0.0630294
-0.041383
-0.0297093
-0.0826624
0.000867311
-0.118599
0.00130855
-0.0118554
-0.012205
0.00370843
-0.0550072
-0.0348448
-0.0776571
-0.0230414
-0.0220564
0.00666015
-0.0820968
-0.043382
-0.0567691
-0.00845836
-0.0931043
-0.00594943
-0.0800655
-0.0394382
-0.0972541
-0.0133568
0.00107959
-0.000572175
-0.0561089
0.0014071
-0.0074878
-0.00320802
-0.0169241
0.000925994
-0.0129236
-0.0990071
-0.0613087
-0.0677233
-0.0870804
-0.0029746
-0.0830215
-0.0600177
-0.058934
-0.0739091
-0.0559107
0.000268863
-0.123685
-0.0308926
-0.0428543
-0.0569945
-0.0733667
0.000858016
-0.00992915
-0.00186329
-0.0133623
-0.00873139
-0.0598054
-0.0564674
-0.0512423
-0.0108047
-0.0182181
-0.00618173
-0.0568857
-0.0806094
-0.00758354
-0.0581717
-0.0154958
-0.0144031
-0.0121248
-0.0657166
-0.0745007
-0.0125616
-0.0138497
-0.0282707
-0.00533121
-0.0132621
-0.0231447
0.00109918
-0.011347
0.00276851
-0.0872615
0.00987044
-0.0907681
-0.0151798
-0.00828794
-0.0588548
-0.0586633
-0.00454719
0.00783716
-0.0119587
-0.0311318
0.00104921
0.000799584
-0.00602877
0.000975151
0.000959363
-0.00488696
0.000791961
-0.0083465
-0.0451739
-0.00226171
-0.055462
-0.0147022
-0.0075023
-0.057297
-0.0139947
-0.0311301
0.000973961
-0.0143528
-0.00415648
-0.0118581
-9.38694e-05
-0.0210183
-0.0117024
-0.0572329
0.00739492
-0.016552
-0.0177287
0.000738257
-0.00580148
0.020319
0.00598605
-0.0501273
-0.0758656
0.0108095
-0.0191958
-0.0115706
-0.0150263
-0.000847998
-0.0179531
-0.00504756
0.00340434
-0.0750505
0.00180286
-0.0501551
-0.05655
0.000468345
-0.00420754
-0.00227413
-0.0336564
-0.010944
-0.000981785
0.0116527
-0.0583112
0.0100012
0.0013083
-0.0555085
0.00064189
0.00444358
0.000778785
0.000653649
0.000254397
0.00105448
0.00585113
-0.0713721
0.0176446
-0.020506
0.036995
0.00850678
-0.00126308
-0.0398667
-0.0592797
-0.0781519
-0.0464271
-0.0157169
-0.0639165
-0.0578756
-0.0057713
-0.022769
0.00109764
0.0155002
-0.00207941
-0.019443
-0.0189344
0.00236779
0.0256175
0.0241455
0.000261866
0.00097416
-0.0119658
0.00417401
0.00101385
0.0023189
-0.0811556
-0.0724069
0.00313174
-0.0105994
0.000897956
-0.0540906
-0.000106698
-0.0561893
-0.0145777
-0.0582498
-0.00178877
-0.0591156
-0.0541312
0.00252266
-0.00547686
-0.0107161
4.81335e-05
-0.00320554
-0.00279122
-0.00191599
-0.0192446
-0.0575152
-0.0515101
-0.0540152
0.0026323
-0.0293483
-0.0631871
-0.0105842
0.000804476
0.00146948
0.000794678
-0.0221779
0.00514252
-0.020984
-0.0131522
-0.0542096
-0.0363475
-0.0887234
-0.0400941
-0.0577027
-0.0553629
-0.00585801
0.000979792
0.0023726
-0.0092167
0.000864219
-0.018015
-0.056729
-0.0571061
-0.01206
-0.013473
0.00223574
-0.0140865
-0.0258629
0.000894683
0.000656992
-0.060854
0.000105796
-0.0239645
-0.0130739
-0.0060103
-0.0189405
-0.0584752
0.000574964
-0.00520505
-0.0578205
-0.0546358
-0.0530297
0.000686052
-0.010745
-0.000249702
-0.0135592
-0.0909879
0.000707274
-0.10799
0.00143484
-0.000662058
-0.0136544
-0.0559742
-0.0441618
-0.052722
-0.00536531
0.000606697
-0.00249138
-0.112056
-0.0012101
0.00110225
0.00204584
-0.00783176
0.00573602
0.000870271
0.000947413
-0.0554081
-0.0558433
-0.0552155
0.0275821
-0.0640783
-0.0906152
-0.0606859
-0.0556503
-0.040403
0.000632882
0.000579053
0.000314928
-0.00620857
-0.0568697
-0.0573309
0.000930647
-0.111301
-0.0552843
-0.0470207
0.00172993
-0.0107391
-0.0759075
-0.0675814
-0.0563199
0.00514309
-0.0556052
0.000280465
-0.0622466
-0.0449652
-0.00318942
-0.0571312
-0.0120582
-0.0614151
-0.100402
-0.00647851
-0.00764919
-0.00495732
0.00205734
-0.0947598
-0.0544799
-0.0609893
-0.0151459
-0.0567059
-0.0641924
-0.0544195
-0.0551107
-0.0580351
-0.0570064
-0.0729567
-0.0132568
0.00308426
-0.0446892
-0.0526199
-0.00525478
-0.0532584
0.000149931
-0.020342
0.00212875
0.000250209
-0.0626302
-0.0126162
-0.0581615
-0.0550716
-0.0127123
0.00798438
-0.0160429
-0.0549752
-0.0747884
-0.0336976
0.00480271
-4.4881e-05
-0.0565339
0.00143397
0.00113456
-0.0379694
-0.0238261
-0.0538035
-0.0276516
-0.00837422
-0.0210057
0.00101901
-0.0261971
-0.0137133
-0.0575236
-0.00695775
-0.000107062
-0.0552601
-0.0472021
0.00178309
-0.123284
-0.0586725
-0.0120844
0.0127288
-0.0190652
-0.0552293
0.00116705
0.000934262
-0.0650697
-0.0143941
-0.0557752
-0.0546742
-0.0511942
-0.0109526
0.00230807
-0.014617
-0.0120107
-0.0361794
-0.000315694
-0.0581792
-0.0584
-0.00221475
0.00073956
-0.0391597
-0.0118297
-0.0566929
-0.0619723
0.0024272
-0.0893632
-0.058161
-0.0177897
0.000178586
-0.0556658
-0.0518549
-0.0875805
-0.0135912
0.000917961
-0.044117
-0.0102956
-0.000371829
-0.000348829
-0.0144746
0.000771665
-0.00249084
-3.6812e-05
0.00226423
-0.00512627
-0.0588135
-0.0541052
0.00707438
-0.0658728
-0.0551418
0.00038458
-0.0581802
-0.0573712
-0.0529049
0.000623606
-0.0331795
-0.0521423
-0.0803675
-0.0609793
-0.0638634
0.00472527
-0.0559852
-0.0588775
-0.0599362
0.00010514
-0.0460423
-0.0570186
-0.0117912
-0.0579266
-0.0863024
0.0044018
-0.0837598
-0.0612925
-0.0075253
-0.000202018
0.00336538
-0.0119746
0.00357906
0.00088966
0.000311516
-0.0573571
-0.0590499
0.00271442
-0.048963
0.00016344
0.00247352
-0.0812639
-0.0539262
-0.0827098
-0.0429811
-0.0538828
0.001647
0.000768943
-0.0353722
-0.0559404
-0.0626943
-0.0623517
-0.0588504
-0.023395
0.000517366
-0.0118685
-0.0232657
-0.0359077
-0.0695374
-0.0581027
-0.0191554
-0.0609012
-0.0573894
0.00377192
-0.0837261
-0.0139788
-0.0269169
0.00992116
-0.0138508
0.000849559
-0.0254067
-0.0266752
-0.093405
-0.0536621
0.000917906
-0.0570334
-0.0202909
-0.00685706
-0.100929
0.0277654
-0.0555576
0.000499318
-0.0637697
-0.0549151
-0.0605496
-0.063587
0.000161307
-0.0773729
-0.0572298
-0.0559106
0.000836361
-0.0736642
0.00094229
0.000108245
-0.0109976
-0.0232216
-0.0567588
-0.0541658
-0.0129779
-0.0759872
-0.0235389
0.000846694
-0.0020289
-0.012829
-0.00359215
-0.0405166
-0.0556973
-0.0554026
-0.0619696
-0.0153439
-0.00559374
-0.0200779
-0.00030788
-0.0548643
-0.000369515
0.000338722
-0.00402745
-0.0505343
0.0333415
-0.0528634
-0.0347516
-0.0703392
-0.014884
-0.0894545
-0.0580479
-0.0561492
-0.0139003
0.00150409
-0.0167499
-0.0134642
-0.0706088
-0.0829829
-0.0240576
-0.0687969
-0.0594385
-0.043735
-0.0170662
0.0222694
0.00305542
-0.00327031
-0.0642828
9.61833e-05
-0.0262775
-0.0136125
-0.0214569
-0.0148268
-0.11557
-0.0592396
-0.00738645
-0.0117394
-0.0323961
-0.00606245
0.00184873
0.0288622
-0.0437635
-0.00151487
-0.0660262
-0.0122286
-0.0536035
-0.0139941
0.000653174
-0.0108085
-0.0535671
-0.00508448
-0.0561552
-0.0942909
-0.0160257
0.00916831
-0.0593143
-0.00916181
-0.0618015
-0.0142513
-0.00445105
-0.056915
0.00115258
-0.0546024
-0.0132908
-0.00366883
0.000811115
-0.00482056
-0.033888
-0.0141814
-0.0567232
-0.0550639
-0.0146926
-0.00412715
-0.101074
-0.0548438
-0.00715222
-0.0401648
0.000477855
-0.0122884
-0.0391269
-0.0582916
-0.0135604
-0.058302
0.0337215
0.000878033
-0.0103842
0.00104149
-0.00380356
-0.00628505
-0.0556833
-0.00514244
-0.0546944
-0.0031139
-0.0597315
-0.0595526
-0.0355197
-0.00683046
-0.0575504
-0.0587017
-0.0718285
0.00654699
-0.0233665
-0.0563817
-0.020405
0.00279574
-0.0611896
-0.0542485
-0.00354718
-0.00327233
-0.0608633
0.0167224
0.00629674
-0.0102948
-0.0396736
0.00108948
-0.0125231
-0.035883
-0.0154024
-0.0201592
-0.00218768
-0.00239661
0.0359303
-0.0573546
-0.00180334
0.0357053
-0.0580637
0.000855949
0.00175151
-0.0555014
-0.0394431
-0.0518875
-0.0127673
-0.023541
0.0132003
0.000796704
-0.00119818
-0.0188582
-0.0239099
-0.054744
-0.0599003
-0.0306813
-0.0573728
-0.00872349
-0.0451462
-0.00289386
-0.000779321
-0.0459172
-0.0273096
0.00498427
-0.0409914
-0.00544835
-0.0011609
-0.0266074
0.0031623
0.000867187
-0.0161499
-0.0109617
-0.000507965
-0.047602
-0.0424264
0.00102001
-0.0523376
-0.0393375
-0.111386
0.00917033
-0.0531287
-0.0174514
-0.0541823
-0.000705
-0.0500609
-0.0369022
-0.00677435
-0.00157011
0.0350195
-0.0409639
-0.00571835
0.00164249
-0.0461496
-0.0527335
-0.035055
0.00301952
-0.0203739
-0.096489
-0.0159089
0.0054281
0.000537802
0.00029174
-0.00107742
-0.00382521
-0.0146992
0.028518
-0.0547872
0.0290841
-0.056233
-0.00224311
-0.0107863
-0.0133334
-0.0291356
-0.0134073
-0.00846364
-0.00235144
-0.00177142
-0.00201021
-0.0629212
-0.0246492
-0.0545416
0.00115567
0.000504065
-0.0400609
-0.0632164
-0.017383
-0.0530152
-0.0251749
-0.0349444
0.0183208
-0.00301317
-0.0828032
-0.059893
0.0102457
-0.010566
-0.0214038
-0.00833269
-0.000550222
-0.0600209
0.00113629
-0.0751546
-0.0581148
-0.0550839
-0.0111366
0.00116688
-0.0244254
-0.0565113
0.0363898
-0.00766404
-0.00638969
-0.00012297
-0.00517028
0.0013955
0.00753436
-0.0517188
-0.00567935
-0.00491454
-0.065522
-0.0378383
-0.0211634
0.00286057
-0.00902451
0.00104205
-0.0105146