/*--------------------------------*- C++ -*----------------------------------*\
| =========                 |                                                 |
| \\      /  F ield         | OpenFOAM: The Open Source CFD Toolbox           |
|  \\    /   O peration     | Version:  v2012                                 |
|   \\  /    A nd           | Website:  www.openfoam.com                      |
|    \\/     M anipulation  |                                                 |
\*---------------------------------------------------------------------------*/
FoamFile
{
    version     2.0;
    format      ascii;
    class       volVectorField;
    location    "850";
    object      cellDisplacement;
}
// * * * * * * * * * * * * * * * * * * * * * * * * * * * * * * * * * * * * * //

dimensions      [0 1 0 0 0 0 0];


internalField   nonuniform List<vector> 
13917
(
(0 -0.0630636 0)
(0 -0.0582397 0)
(0 -0.0634599 0)
(0 -0.0602417 0)
(0 -0.0376245 0)
(0 -0.0634579 0)
(0 -0.0634605 0)
(0 -0.0634598 0)
(0 -0.0634602 0)
(0 -0.0632965 0)
(0 -0.0634198 0)
(0 -0.0632621 0)
(0 -0.0603931 0)
(0 -0.0634619 0)
(0 -0.0623931 0)
(0 -0.0620989 0)
(0 -0.0589484 0)
(0 -0.0631888 0)
(0 -0.06325 0)
(0 -0.020993 0)
(0 -0.00706462 0)
(0 -0.0634607 0)
(0 -0.0310171 0)
(0 -0.0634594 0)
(0 -0.0488305 0)
(0 -0.0634606 0)
(0 -0.0632785 0)
(0 -0.0633602 0)
(0 -0.063458 0)
(0 -0.0633671 0)
(0 -0.0630938 0)
(0 -0.062451 0)
(0 -0.0631607 0)
(0 -0.0623196 0)
(0 -0.0500908 0)
(0 -0.0634485 0)
(0 -0.0297947 0)
(0 -0.0634618 0)
(0 -0.0614163 0)
(0 -0.0634619 0)
(0 -0.0050004 0)
(0 -0.00285687 0)
(0 -0.029098 0)
(0 -0.0634189 0)
(0 -0.056954 0)
(0 -0.0626623 0)
(0 -0.0631745 0)
(0 -0.0632911 0)
(0 -0.0634619 0)
(0 -0.00495902 0)
(0 -0.0621124 0)
(0 -0.0590288 0)
(0 -0.0634619 0)
(0 -0.062418 0)
(0 -0.0591191 0)
(0 -0.0621729 0)
(0 -0.0634167 0)
(0 -0.0557406 0)
(0 -0.061701 0)
(0 -0.0565752 0)
(0 -0.0634588 0)
(0 -0.0583013 0)
(0 -0.0634619 0)
(0 -0.0222787 0)
(0 -0.063457 0)
(0 -0.0634592 0)
(0 -0.0390799 0)
(0 -0.0502461 0)
(0 -0.0634209 0)
(0 -0.0630122 0)
(0 -0.0366188 0)
(0 -0.0634599 0)
(0 -0.0634619 0)
(0 -0.0482069 0)
(0 -0.0634619 0)
(0 -0.0633066 0)
(0 -0.0634619 0)
(0 -0.0597243 0)
(0 -0.0634607 0)
(0 -0.0131479 0)
(0 -0.0160073 0)
(0 -0.0375073 0)
(0 -0.0634566 0)
(0 -0.0634618 0)
(0 -0.0634613 0)
(0 -0.0595046 0)
(0 -0.0190285 0)
(0 -0.0634587 0)
(0 -0.0620278 0)
(0 -0.0304094 0)
(0 -0.0634618 0)
(0 -0.0633486 0)
(0 -0.0529524 0)
(0 -0.0609379 0)
(0 -0.063459 0)
(0 -0.0634568 0)
(0 -0.0633925 0)
(0 -0.0632609 0)
(0 -0.0634058 0)
(0 -0.0634326 0)
(0 -0.0262943 0)
(0 -0.0630581 0)
(0 -0.0634177 0)
(0 -0.0603097 0)
(0 -0.0418435 0)
(0 -0.0634597 0)
(0 -0.0634544 0)
(0 -0.063305 0)
(0 -0.0590709 0)
(0 -0.0631504 0)
(0 -0.0634618 0)
(0 -0.0634619 0)
(0 -0.0633384 0)
(0 -0.06346 0)
(0 -0.0608083 0)
(0 -0.0634619 0)
(0 -0.0432478 0)
(0 -0.0634613 0)
(0 -0.0634619 0)
(0 -0.0624102 0)
(0 -0.00553872 0)
(0 -0.0634183 0)
(0 -0.0634619 0)
(0 -0.0633463 0)
(0 -0.00455308 0)
(0 -0.0607319 0)
(0 -0.0567474 0)
(0 -0.00367671 0)
(0 -0.0173592 0)
(0 -0.0634578 0)
(0 -0.0634618 0)
(0 -0.0606093 0)
(0 -0.0572286 0)
(0 -0.00579995 0)
(0 -0.0634509 0)
(0 -0.0634592 0)
(0 -0.0630756 0)
(0 -0.0634377 0)
(0 -0.0398559 0)
(0 -0.0623816 0)
(0 -0.0634448 0)
(0 -0.0476788 0)
(0 -0.0599073 0)
(0 -0.0634307 0)
(0 -0.0507061 0)
(0 -0.0634585 0)
(0 -0.0634577 0)
(0 -0.0587517 0)
(0 -0.0451679 0)
(0 -0.0625593 0)
(0 -0.063206 0)
(0 -0.0634618 0)
(0 -0.0633434 0)
(0 -0.0631767 0)
(0 -0.0622625 0)
(0 -0.0634615 0)
(0 -0.0629781 0)
(0 -0.063452 0)
(0 -0.0634619 0)
(0 -0.0634509 0)
(0 -0.0618614 0)
(0 -0.0632707 0)
(0 -0.0119473 0)
(0 -0.0633871 0)
(0 -0.0633299 0)
(0 -0.0634013 0)
(0 -0.0602323 0)
(0 -0.0632354 0)
(0 -0.0545088 0)
(0 -0.0630946 0)
(0 -0.0631662 0)
(0 -0.0634619 0)
(0 -0.0633532 0)
(0 -0.0601317 0)
(0 -0.0634572 0)
(0 -0.063252 0)
(0 -0.0634618 0)
(0 -0.0634616 0)
(0 -0.063458 0)
(0 -0.0531085 0)
(0 -0.0633555 0)
(0 -0.0631194 0)
(0 -0.0476657 0)
(0 -0.0202621 0)
(0 -0.0628796 0)
(0 -0.0634603 0)
(0 -0.0634355 0)
(0 -0.0634613 0)
(0 -0.0629028 0)
(0 -0.0633979 0)
(0 -0.063446 0)
(0 -0.0634611 0)
(0 -0.0634358 0)
(0 -0.0329125 0)
(0 -0.0634384 0)
(0 -0.0632559 0)
(0 -0.00171126 0)
(0 -0.0534332 0)
(0 -0.0634476 0)
(0 -0.0634586 0)
(0 -0.061845 0)
(0 -0.0046551 0)
(0 -0.0631925 0)
(0 -0.0631928 0)
(0 -0.0634619 0)
(0 -0.0634488 0)
(0 -0.0494945 0)
(0 -0.0561999 0)
(0 -0.0632532 0)
(0 -0.06346 0)
(0 -0.0596864 0)
(0 -0.0634606 0)
(0 -0.0634619 0)
(0 -0.0633945 0)
(0 -0.0420349 0)
(0 -0.0634581 0)
(0 -0.0632006 0)
(0 -0.0634619 0)
(0 -0.0476152 0)
(0 -0.0634581 0)
(0 -0.0525219 0)
(0 -0.0633495 0)
(0 -0.00594401 0)
(0 -0.0634618 0)
(0 -0.0634598 0)
(0 -0.0622004 0)
(0 -0.063457 0)
(0 -0.0623202 0)
(0 -0.0411095 0)
(0 -0.0634472 0)
(0 -0.063346 0)
(0 -0.062883 0)
(0 -0.0634592 0)
(0 -0.0634619 0)
(0 -0.0165725 0)
(0 -0.0625112 0)
(0 -0.0634618 0)
(0 -0.0634615 0)
(0 -0.0134909 0)
(0 -0.0329191 0)
(0 -0.0634619 0)
(0 -0.0634046 0)
(0 -0.000838216 0)
(0 -0.0634421 0)
(0 -0.0633555 0)
(0 -0.0632512 0)
(0 -0.0629671 0)
(0 -0.012846 0)
(0 -0.0632617 0)
(0 -0.0634619 0)
(0 -0.055117 0)
(0 -0.0633871 0)
(0 -0.0634434 0)
(0 -0.0564105 0)
(0 -0.0553688 0)
(0 -0.0632845 0)
(0 -0.0634619 0)
(0 -0.0633327 0)
(0 -0.0629222 0)
(0 -0.0624201 0)
(0 -0.00142439 0)
(0 -0.0634619 0)
(0 -0.0634582 0)
(0 -0.063445 0)
(0 -0.0413102 0)
(0 -0.0634619 0)
(0 -0.0634619 0)
(0 -0.0634533 0)
(0 -0.0634609 0)
(0 -0.0633221 0)
(0 -0.0153507 0)
(0 -0.00548051 0)
(0 -0.0631767 0)
(0 -0.0634618 0)
(0 -0.0633899 0)
(0 -0.061582 0)
(0 -0.0634502 0)
(0 -0.0629665 0)
(0 -0.0133518 0)
(0 -0.063456 0)
(0 -0.0206495 0)
(0 -0.0634577 0)
(0 -0.0617278 0)
(0 -0.000838859 0)
(0 -0.062556 0)
(0 -0.0631911 0)
(0 -0.0632707 0)
(0 -0.0634438 0)
(0 -0.0629768 0)
(0 -0.0563573 0)
(0 -0.0634441 0)
(0 -0.0634591 0)
(0 -0.0634588 0)
(0 -0.047047 0)
(0 -0.063454 0)
(0 -0.0271 0)
(0 -0.0563162 0)
(0 -0.0421853 0)
(0 -0.0634588 0)
(0 -0.00481063 0)
(0 -0.0633603 0)
(0 -0.0629332 0)
(0 -0.0540551 0)
(0 -0.0632066 0)
(0 -0.0607547 0)
(0 -0.0634618 0)
(0 -0.0632303 0)
(0 -0.0633348 0)
(0 -0.0513997 0)
(0 -0.0548657 0)
(0 -0.0634618 0)
(0 -0.0634619 0)
(0 -0.0439733 0)
(0 -0.00600922 0)
(0 -0.0634554 0)
(0 -0.0525879 0)
(0 -0.0634619 0)
(0 -0.0508802 0)
(0 -0.0634617 0)
(0 -0.0580328 0)
(0 -0.0634456 0)
(0 -0.0627409 0)
(0 -0.0634618 0)
(0 -0.0617318 0)
(0 -0.0634495 0)
(0 -0.063455 0)
(0 -0.0625065 0)
(0 -0.0634033 0)
(0 -0.0634541 0)
(0 -0.0589063 0)
(0 -0.0634618 0)
(0 -0.0634365 0)
(0 -0.0634619 0)
(0 -0.0620942 0)
(0 -0.0634619 0)
(0 -0.0625625 0)
(0 -0.0634615 0)
(0 -0.063453 0)
(0 -0.0634263 0)
(0 -0.0634225 0)
(0 -0.0634603 0)
(0 -0.0173214 0)
(0 -0.0631886 0)
(0 -0.0634617 0)
(0 -0.0579259 0)
(0 -0.0613871 0)
(0 -0.0634619 0)
(0 -0.0634509 0)
(0 -0.0598095 0)
(0 -0.0634438 0)
(0 -0.0634575 0)
(0 -0.0228526 0)
(0 -0.0634619 0)
(0 -0.0634466 0)
(0 -0.0219043 0)
(0 -0.0404709 0)
(0 -0.0258383 0)
(0 -0.0451657 0)
(0 -0.0634426 0)
(0 -0.0634577 0)
(0 -0.0634586 0)
(0 -0.0634618 0)
(0 -0.0462548 0)
(0 -0.0633948 0)
(0 -0.0634619 0)
(0 -0.063031 0)
(0 -0.0634607 0)
(0 -0.0634618 0)
(0 -0.06346 0)
(0 -0.0268382 0)
(0 -0.0634431 0)
(0 -0.0401928 0)
(0 -0.0634573 0)
(0 -0.0565114 0)
(0 -0.0634619 0)
(0 -0.0633601 0)
(0 -0.0611823 0)
(0 -0.0207289 0)
(0 -0.0632333 0)
(0 -0.0633661 0)
(0 -0.063304 0)
(0 -0.063461 0)
(0 -0.0634616 0)
(0 -0.0634619 0)
(0 -0.0632823 0)
(0 -0.0632795 0)
(0 -0.0319379 0)
(0 -0.0634614 0)
(0 -0.0634608 0)
(0 -0.0564158 0)
(0 -0.0634476 0)
(0 -0.0451082 0)
(0 -0.0634396 0)
(0 -0.0579499 0)
(0 -0.0150517 0)
(0 -0.0608281 0)
(0 -0.0634608 0)
(0 -0.0608102 0)
(0 -0.0634618 0)
(0 -0.0634617 0)
(0 -0.0634096 0)
(0 -0.0634571 0)
(0 -0.0587372 0)
(0 -0.0634573 0)
(0 -0.0634567 0)
(0 -0.0355516 0)
(0 -0.063452 0)
(0 -0.057638 0)
(0 -0.0478093 0)
(0 -0.0633648 0)
(0 -0.00205145 0)
(0 -0.0495515 0)
(0 -0.0397457 0)
(0 -0.0634396 0)
(0 -0.0107249 0)
(0 -0.0634619 0)
(0 -0.0634598 0)
(0 -0.0634619 0)
(0 -0.0634345 0)
(0 -0.0634617 0)
(0 -0.0634619 0)
(0 -0.0630064 0)
(0 -0.0453593 0)
(0 -0.0634142 0)
(0 -0.0613177 0)
(0 -0.062644 0)
(0 -0.0343079 0)
(0 -0.0634583 0)
(0 -0.0634604 0)
(0 -0.0634592 0)
(0 -0.0621421 0)
(0 -0.0633765 0)
(0 -0.061977 0)
(0 -0.0615612 0)
(0 -0.063297 0)
(0 -0.0607016 0)
(0 -0.0634443 0)
(0 -0.05889 0)
(0 -0.00579963 0)
(0 -0.0634618 0)
(0 -0.0634618 0)
(0 -0.0634617 0)
(0 -0.0634024 0)
(0 -0.0634619 0)
(0 -0.0634618 0)
(0 -0.0634617 0)
(0 -0.0634619 0)
(0 -0.0168127 0)
(0 -0.0632175 0)
(0 -0.0606538 0)
(0 -0.0567385 0)
(0 -0.0634474 0)
(0 -0.0631885 0)
(0 -0.00613252 0)
(0 -0.063254 0)
(0 -0.0629725 0)
(0 -0.0634619 0)
(0 -0.0365126 0)
(0 -0.0633854 0)
(0 -0.0634616 0)
(0 -0.0634511 0)
(0 -0.0634619 0)
(0 -0.00966275 0)
(0 -0.056622 0)
(0 -0.00309456 0)
(0 -0.062979 0)
(0 -0.0254854 0)
(0 -0.0634598 0)
(0 -0.0634579 0)
(0 -0.0629335 0)
(0 -0.0634614 0)
(0 -0.0621341 0)
(0 -0.0633901 0)
(0 -0.0634616 0)
(0 -0.0634569 0)
(0 -0.0634066 0)
(0 -0.0634462 0)
(0 -0.0633893 0)
(0 -0.0632449 0)
(0 -0.0634132 0)
(0 -0.0630187 0)
(0 -0.0634197 0)
(0 -0.0634576 0)
(0 -0.0630958 0)
(0 -0.0633313 0)
(0 -0.00579718 0)
(0 -0.0634493 0)
(0 -0.0622277 0)
(0 -0.0475057 0)
(0 -0.0629427 0)
(0 -0.0599427 0)
(0 -0.0634619 0)
(0 -0.0634598 0)
(0 -0.05201 0)
(0 -0.0108975 0)
(0 -0.0634595 0)
(0 -0.0634619 0)
(0 -0.00161546 0)
(0 -0.0634619 0)
(0 -0.0595926 0)
(0 -0.0634253 0)
(0 -0.0529015 0)
(0 -0.0634619 0)
(0 -0.0634506 0)
(0 -0.0625431 0)
(0 -0.0587937 0)
(0 -0.0634616 0)
(0 -0.0634312 0)
(0 -0.0634619 0)
(0 -0.00182317 0)
(0 -0.0634619 0)
(0 -0.0634617 0)
(0 -0.0634557 0)
(0 -0.0477545 0)
(0 -0.0634614 0)
(0 -0.0634602 0)
(0 -0.063033 0)
(0 -0.0406671 0)
(0 -0.0590281 0)
(0 -0.0633044 0)
(0 -0.0634424 0)
(0 -0.00773004 0)
(0 -0.0393583 0)
(0 -0.0125302 0)
(0 -0.013125 0)
(0 -0.0634619 0)
(0 -0.0634469 0)
(0 -0.0630074 0)
(0 -0.0634342 0)
(0 -0.00400566 0)
(0 -0.0252285 0)
(0 -0.0633708 0)
(0 -0.063461 0)
(0 -0.0627723 0)
(0 -0.0549397 0)
(0 -0.0480069 0)
(0 -0.0452671 0)
(0 -0.0634562 0)
(0 -0.063461 0)
(0 -0.0178515 0)
(0 -0.045258 0)
(0 -0.0634427 0)
(0 -0.063 0)
(0 -0.0627368 0)
(0 -0.0563644 0)
(0 -0.0609203 0)
(0 -0.0623892 0)
(0 -0.0633255 0)
(0 -0.063452 0)
(0 -0.0634369 0)
(0 -0.0634175 0)
(0 -0.0633654 0)
(0 -0.0634496 0)
(0 -0.063329 0)
(0 -0.0467586 0)
(0 -0.0634619 0)
(0 -0.0447185 0)
(0 -0.0615314 0)
(0 -0.0610833 0)
(0 -0.0634489 0)
(0 -0.0633886 0)
(0 -0.00792736 0)
(0 -0.0634499 0)
(0 -0.0633817 0)
(0 -0.0634619 0)
(0 -0.0633646 0)
(0 -0.0631671 0)
(0 -0.0630101 0)
(0 -0.0223094 0)
(0 -0.0634592 0)
(0 -0.0634469 0)
(0 -0.0634612 0)
(0 -0.0585517 0)
(0 -0.0625229 0)
(0 -0.0634362 0)
(0 -0.0634618 0)
(0 -0.0634619 0)
(0 -0.0632783 0)
(0 -0.0634096 0)
(0 -0.0620827 0)
(0 -0.0614326 0)
(0 -0.0566148 0)
(0 -0.0633521 0)
(0 -0.0634243 0)
(0 -0.0571883 0)
(0 -0.0631894 0)
(0 -0.0634421 0)
(0 -0.0634611 0)
(0 -0.0634619 0)
(0 -0.0615762 0)
(0 -0.0633857 0)
(0 -0.0634493 0)
(0 -0.0626776 0)
(0 -0.0594154 0)
(0 -0.0634612 0)
(0 -0.0634583 0)
(0 -0.063459 0)
(0 -0.0634324 0)
(0 -0.0187771 0)
(0 -0.0634619 0)
(0 -0.0632972 0)
(0 -0.0059561 0)
(0 -0.0627111 0)
(0 -0.0633146 0)
(0 -0.0631271 0)
(0 -0.06336 0)
(0 -0.0634608 0)
(0 -0.0634094 0)
(0 -0.0628915 0)
(0 -0.0634592 0)
(0 -0.0604244 0)
(0 -0.0634619 0)
(0 -0.0125288 0)
(0 -0.0190816 0)
(0 -0.0634545 0)
(0 -0.0634586 0)
(0 -0.0634586 0)
(0 -0.0604258 0)
(0 -0.0599317 0)
(0 -0.044689 0)
(0 -0.0629911 0)
(0 -0.0634619 0)
(0 -0.0633948 0)
(0 -0.0615388 0)
(0 -0.0634002 0)
(0 -0.0632243 0)
(0 -0.0533351 0)
(0 -0.0634568 0)
(0 -0.0633912 0)
(0 -0.0634446 0)
(0 -0.0484363 0)
(0 -0.0634077 0)
(0 -0.0599069 0)
(0 -0.0634615 0)
(0 -0.0633033 0)
(0 -0.063383 0)
(0 -0.0625613 0)
(0 -0.0145904 0)
(0 -0.0461626 0)
(0 -0.0570783 0)
(0 -0.0634234 0)
(0 -0.0626942 0)
(0 -0.0634361 0)
(0 -0.063461 0)
(0 -0.0632239 0)
(0 -0.022425 0)
(0 -0.063408 0)
(0 -0.0634591 0)
(0 -0.0634496 0)
(0 -0.0547629 0)
(0 -0.0626024 0)
(0 -0.0391154 0)
(0 -0.0623104 0)
(0 -0.0618031 0)
(0 -0.0634603 0)
(0 -0.0145597 0)
(0 -0.0634583 0)
(0 -0.0622616 0)
(0 -0.0634194 0)
(0 -0.0633518 0)
(0 -0.0634619 0)
(0 -0.0633831 0)
(0 -0.0587483 0)
(0 -0.0634619 0)
(0 -0.0634619 0)
(0 -0.0564066 0)
(0 -0.0610016 0)
(0 -0.0634505 0)
(0 -0.0634282 0)
(0 -0.0633852 0)
(0 -0.0023184 0)
(0 -0.0589056 0)
(0 -0.0634422 0)
(0 -0.0612914 0)
(0 -0.0632962 0)
(0 -0.0632664 0)
(0 -0.0467734 0)
(0 -0.0631926 0)
(0 -0.0634598 0)
(0 -0.0545536 0)
(0 -0.059535 0)
(0 -0.0131255 0)
(0 -0.0634619 0)
(0 -0.00736524 0)
(0 -0.062024 0)
(0 -0.0634619 0)
(0 -0.0612833 0)
(0 -0.0634581 0)
(0 -0.0622909 0)
(0 -0.0631916 0)
(0 -0.013695 0)
(0 -0.0632869 0)
(0 -0.0413996 0)
(0 -0.0632389 0)
(0 -0.00968431 0)
(0 -0.0633817 0)
(0 -0.0595215 0)
(0 -0.0634614 0)
(0 -0.0634608 0)
(0 -0.063461 0)
(0 -0.00314511 0)
(0 -0.0188231 0)
(0 -0.0633139 0)
(0 -0.063174 0)
(0 -0.0634619 0)
(0 -0.0634607 0)
(0 -0.0631863 0)
(0 -0.0485699 0)
(0 -0.0634377 0)
(0 -0.0634593 0)
(0 -0.0634434 0)
(0 -0.0634329 0)
(0 -0.0631533 0)
(0 -0.0634606 0)
(0 -0.0630623 0)
(0 -0.0629232 0)
(0 -0.0634026 0)
(0 -0.0634451 0)
(0 -0.0631689 0)
(0 -0.0634605 0)
(0 -0.0631632 0)
(0 -0.0603503 0)
(0 -0.0633272 0)
(0 -0.0625462 0)
(0 -0.0508049 0)
(0 -0.0622606 0)
(0 -0.0631402 0)
(0 -0.0625009 0)
(0 -0.0422568 0)
(0 -0.0042941 0)
(0 -0.0632254 0)
(0 -0.0603938 0)
(0 -0.0633053 0)
(0 -0.047831 0)
(0 -0.0438714 0)
(0 -0.00604589 0)
(0 -0.0609213 0)
(0 -0.0353469 0)
(0 -0.0621531 0)
(0 -0.0136892 0)
(0 -0.0634619 0)
(0 -0.063248 0)
(0 -0.0634556 0)
(0 -0.0250381 0)
(0 -0.00863528 0)
(0 -0.0633288 0)
(0 -0.0632596 0)
(0 -0.06034 0)
(0 -0.0634569 0)
(0 -0.0633522 0)
(0 -0.0634563 0)
(0 -0.0623016 0)
(0 -0.0633911 0)
(0 -0.0586634 0)
(0 -0.00647818 0)
(0 -0.01193 0)
(0 -0.0607905 0)
(0 -0.0634619 0)
(0 -0.00745218 0)
(0 -0.0634521 0)
(0 -0.0622458 0)
(0 -0.0634619 0)
(0 -0.0633101 0)
(0 -0.0633573 0)
(0 -0.0634162 0)
(0 -0.0372693 0)
(0 -0.000263243 0)
(0 -0.0632602 0)
(0 -0.0503007 0)
(0 -0.0594532 0)
(0 -0.0634557 0)
(0 -0.0603337 0)
(0 -0.025744 0)
(0 -0.0623648 0)
(0 -0.0299335 0)
(0 -0.00922053 0)
(0 -0.0624629 0)
(0 -0.0627519 0)
(0 -0.0634619 0)
(0 -0.0629096 0)
(0 -0.0545721 0)
(0 -0.00611639 0)
(0 -0.0634617 0)
(0 -0.0634267 0)
(0 -0.0582609 0)
(0 -0.0583846 0)
(0 -0.0634562 0)
(0 -0.06345 0)
(0 -0.0634619 0)
(0 -0.0631489 0)
(0 -0.060419 0)
(0 -0.0169534 0)
(0 -0.010916 0)
(0 -0.0631143 0)
(0 -0.062946 0)
(0 -0.0634412 0)
(0 -0.0621934 0)
(0 -0.0634619 0)
(0 -0.0588392 0)
(0 -0.0615059 0)
(0 -0.0634619 0)
(0 -0.0447811 0)
(0 -0.0622787 0)
(0 -0.0552866 0)
(0 -0.00713853 0)
(0 -0.0631278 0)
(0 -0.063291 0)
(0 -0.0591119 0)
(0 -0.0634585 0)
(0 -0.0634618 0)
(0 -0.0633558 0)
(0 -0.0472939 0)
(0 -0.0404066 0)
(0 -0.063393 0)
(0 -0.0634515 0)
(0 -0.00249617 0)
(0 -0.0634479 0)
(0 -0.0395619 0)
(0 -0.0631051 0)
(0 -0.0516037 0)
(0 -0.0518512 0)
(0 -0.0634445 0)
(0 -0.0558353 0)
(0 -0.0634533 0)
(0 -0.0630199 0)
(0 -0.00620423 0)
(0 -0.0303895 0)
(0 -0.0544946 0)
(0 -0.0486252 0)
(0 -0.0593629 0)
(0 -0.063461 0)
(0 -0.0539109 0)
(0 -0.0503498 0)
(0 -0.0634606 0)
(0 -0.0634591 0)
(0 -0.0629374 0)
(0 -0.063153 0)
(0 -0.0632833 0)
(0 -0.0616635 0)
(0 -0.0484265 0)
(0 -0.0627005 0)
(0 -0.0634619 0)
(0 -0.0633878 0)
(0 -0.0327083 0)
(0 -0.0585247 0)
(0 -0.0634605 0)
(0 -0.062883 0)
(0 -0.0634617 0)
(0 -0.00763214 0)
(0 -0.0605559 0)
(0 -0.0634619 0)
(0 -0.0627706 0)
(0 -0.0592951 0)
(0 -0.0634617 0)
(0 -0.0634613 0)
(0 -0.0481623 0)
(0 -0.063396 0)
(0 -0.0126792 0)
(0 -0.0554879 0)
(0 -0.0263911 0)
(0 -0.0634619 0)
(0 -0.0341453 0)
(0 -0.0547976 0)
(0 -0.0484214 0)
(0 -0.0634548 0)
(0 -0.0611695 0)
(0 -0.063427 0)
(0 -0.0633895 0)
(0 -0.0519658 0)
(0 -0.0630741 0)
(0 -0.0170352 0)
(0 -0.0634617 0)
(0 -0.0356352 0)
(0 -0.0542522 0)
(0 -0.0255889 0)
(0 -0.0633973 0)
(0 -0.026698 0)
(0 -0.0634115 0)
(0 -0.0634619 0)
(0 -0.0634589 0)
(0 -0.0625342 0)
(0 -0.0634461 0)
(0 -0.0634619 0)
(0 -0.0546996 0)
(0 -0.0634619 0)
(0 -0.0634593 0)
(0 -0.0634619 0)
(0 -0.0634617 0)
(0 -0.0634608 0)
(0 -0.0634618 0)
(0 -0.063403 0)
(0 -0.059142 0)
(0 -0.0634609 0)
(0 -0.0627461 0)
(0 -0.063461 0)
(0 -0.0471628 0)
(0 -0.0529515 0)
(0 -0.0584112 0)
(0 -0.0181723 0)
(0 -0.0619158 0)
(0 -0.0629846 0)
(0 -0.0634619 0)
(0 -0.0524481 0)
(0 -0.0435052 0)
(0 -0.0634619 0)
(0 -0.0634478 0)
(0 -0.0544147 0)
(0 -0.0632179 0)
(0 -0.0625569 0)
(0 -0.0578156 0)
(0 -0.0634607 0)
(0 -0.0632268 0)
(0 -0.0616585 0)
(0 -0.0611468 0)
(0 -0.0634619 0)
(0 -0.0634619 0)
(0 -0.0634611 0)
(0 -0.0511825 0)
(0 -0.0634299 0)
(0 -0.0633759 0)
(0 -0.0634617 0)
(0 -0.0634601 0)
(0 -0.0633438 0)
(0 -0.0530051 0)
(0 -0.0588923 0)
(0 -0.0588016 0)
(0 -0.0121299 0)
(0 -0.0610078 0)
(0 -0.0147604 0)
(0 -0.0623613 0)
(0 -0.0630448 0)
(0 -0.0634612 0)
(0 -0.0634018 0)
(0 -0.0549283 0)
(0 -0.0633858 0)
(0 -0.0634617 0)
(0 -0.0630912 0)
(0 -0.058803 0)
(0 -0.0634619 0)
(0 -0.0535629 0)
(0 -0.0591725 0)
(0 -0.0632162 0)
(0 -0.0634612 0)
(0 -0.0268729 0)
(0 -0.0488164 0)
(0 -0.0634607 0)
(0 -0.0634435 0)
(0 -0.0634486 0)
(0 -0.0633772 0)
(0 -0.0634479 0)
(0 -0.0476368 0)
(0 -0.0634177 0)
(0 -0.0591072 0)
(0 -0.0366235 0)
(0 -0.0591177 0)
(0 -0.0634601 0)
(0 -0.0634619 0)
(0 -0.0506084 0)
(0 -0.0315915 0)
(0 -0.055757 0)
(0 -0.0634512 0)
(0 -0.060771 0)
(0 -0.0625301 0)
(0 -0.0494683 0)
(0 -0.0595444 0)
(0 -0.0634148 0)
(0 -0.0523899 0)
(0 -0.0632517 0)
(0 -0.0634447 0)
(0 -0.0634617 0)
(0 -0.0560482 0)
(0 -0.0633821 0)
(0 -0.0616982 0)
(0 -0.0634619 0)
(0 -0.0634617 0)
(0 -0.0488584 0)
(0 -0.0634618 0)
(0 -0.0632992 0)
(0 -0.0634611 0)
(0 -0.0271097 0)
(0 -0.0634609 0)
(0 -0.0128727 0)
(0 -0.0621272 0)
(0 -0.063126 0)
(0 -0.0633751 0)
(0 -0.0634598 0)
(0 -0.0634458 0)
(0 -0.0634241 0)
(0 -0.0634586 0)
(0 -0.0134253 0)
(0 -0.0634388 0)
(0 -0.0517108 0)
(0 -0.0624993 0)
(0 -0.0634608 0)
(0 -0.0570283 0)
(0 -0.0112732 0)
(0 -0.0602238 0)
(0 -0.0577386 0)
(0 -0.0634613 0)
(0 -0.0336901 0)
(0 -0.032221 0)
(0 -0.063206 0)
(0 -0.0631485 0)
(0 -0.0631498 0)
(0 -0.0634587 0)
(0 -0.0634013 0)
(0 -0.0634619 0)
(0 -0.0632468 0)
(0 -0.0628455 0)
(0 -0.062894 0)
(0 -0.0634619 0)
(0 -0.0629586 0)
(0 -0.0634579 0)
(0 -0.0634608 0)
(0 -0.0616554 0)
(0 -0.052572 0)
(0 -0.0634617 0)
(0 -0.063444 0)
(0 -0.0587477 0)
(0 -0.0633793 0)
(0 -0.062805 0)
(0 -0.0579083 0)
(0 -0.0619895 0)
(0 -0.0579964 0)
(0 -0.0631152 0)
(0 -0.000603148 0)
(0 -0.0631415 0)
(0 -0.063435 0)
(0 -0.0398192 0)
(0 -0.0632509 0)
(0 -0.0520469 0)
(0 -0.0633592 0)
(0 -0.0114364 0)
(0 -0.0624482 0)
(0 -0.0632271 0)
(0 -0.0605609 0)
(0 -0.0568379 0)
(0 -0.0507574 0)
(0 -0.0634607 0)
(0 -0.0633412 0)
(0 -0.0634579 0)
(0 -0.0501936 0)
(0 -0.0578236 0)
(0 -0.0632362 0)
(0 -0.0550454 0)
(0 -0.0633537 0)
(0 -0.0633493 0)
(0 -0.0578371 0)
(0 -0.0633615 0)
(0 -0.0515159 0)
(0 -0.0634574 0)
(0 -0.0584543 0)
(0 -0.062865 0)
(0 -0.0634619 0)
(0 -0.0634376 0)
(0 -0.0483385 0)
(0 -0.0614257 0)
(0 -0.0634619 0)
(0 -0.0360944 0)
(0 -0.0396602 0)
(0 -0.0634617 0)
(0 -0.0634618 0)
(0 -0.0618558 0)
(0 -0.0634196 0)
(0 -0.0208932 0)
(0 -0.0567668 0)
(0 -0.06346 0)
(0 -0.0605788 0)
(0 -0.0375464 0)
(0 -0.0634427 0)
(0 -0.0523349 0)
(0 -0.0634506 0)
(0 -0.0178037 0)
(0 -0.036613 0)
(0 -0.0584362 0)
(0 -0.0634055 0)
(0 -0.0634619 0)
(0 -0.0572659 0)
(0 -0.058946 0)
(0 -0.0471219 0)
(0 -0.062335 0)
(0 -0.00638903 0)
(0 -0.06346 0)
(0 -0.0632336 0)
(0 -0.00216258 0)
(0 -0.063458 0)
(0 -0.0633041 0)
(0 -0.063441 0)
(0 -0.0634617 0)
(0 -0.0634614 0)
(0 -0.0499252 0)
(0 -0.0584856 0)
(0 -0.0564531 0)
(0 -0.0634572 0)
(0 -0.0624575 0)
(0 -0.0634619 0)
(0 -0.0634619 0)
(0 -0.0617179 0)
(0 -0.0634609 0)
(0 -0.0634617 0)
(0 -0.0631452 0)
(0 -0.0634142 0)
(0 -0.0633705 0)
(0 -0.0634573 0)
(0 -0.0634596 0)
(0 -0.0633695 0)
(0 -0.0634521 0)
(0 -0.0634617 0)
(0 -0.0632534 0)
(0 -0.0621756 0)
(0 -0.0634619 0)
(0 -0.0633639 0)
(0 -0.0475411 0)
(0 -0.0604897 0)
(0 -0.0634587 0)
(0 -0.0631139 0)
(0 -0.0515703 0)
(0 -0.0633012 0)
(0 -0.0633648 0)
(0 -0.0630469 0)
(0 -0.0634619 0)
(0 -0.0614496 0)
(0 -0.0634578 0)
(0 -0.0629142 0)
(0 -0.0634428 0)
(0 -0.0633916 0)
(0 -0.0634319 0)
(0 -0.0624893 0)
(0 -0.0509939 0)
(0 -0.05998 0)
(0 -0.0634595 0)
(0 -0.0427835 0)
(0 -0.061801 0)
(0 -0.00712009 0)
(0 -0.0609745 0)
(0 -0.0530423 0)
(0 -0.0631392 0)
(0 -0.0634163 0)
(0 -0.0634613 0)
(0 -0.0632972 0)
(0 -0.0633775 0)
(0 -0.0634589 0)
(0 -0.0634505 0)
(0 -0.0530837 0)
(0 -0.0634509 0)
(0 -0.0634598 0)
(0 -0.0436444 0)
(0 -0.0399487 0)
(0 -0.0626281 0)
(0 -0.0634619 0)
(0 -0.0109457 0)
(0 -0.0632907 0)
(0 -0.0634534 0)
(0 -0.0632296 0)
(0 -0.0550141 0)
(0 -0.0599442 0)
(0 -0.0529258 0)
(0 -0.0633777 0)
(0 -0.0631476 0)
(0 -0.0142306 0)
(0 -0.0634613 0)
(0 -0.0634606 0)
(0 -0.0632378 0)
(0 -0.0634492 0)
(0 -0.0632647 0)
(0 -0.0634574 0)
(0 -0.0611593 0)
(0 -0.0617705 0)
(0 -0.0634584 0)
(0 -0.0634498 0)
(0 -0.063351 0)
(0 -0.0634606 0)
(0 -0.0624967 0)
(0 -0.00464317 0)
(0 -0.0551717 0)
(0 -0.0580913 0)
(0 -0.0521017 0)
(0 -0.0601575 0)
(0 -0.0632901 0)
(0 -0.0484128 0)
(0 -0.0633971 0)
(0 -0.0309335 0)
(0 -0.0624384 0)
(0 -0.0509927 0)
(0 -0.06335 0)
(0 -0.0633961 0)
(0 -0.0634504 0)
(0 -0.0541542 0)
(0 -0.0634331 0)
(0 -0.055233 0)
(0 -0.0634579 0)
(0 -0.0461457 0)
(0 -0.062293 0)
(0 -0.0333102 0)
(0 -0.0634372 0)
(0 -0.0634619 0)
(0 -0.0634113 0)
(0 -0.0487819 0)
(0 -0.0634001 0)
(0 -0.0563173 0)
(0 -0.0626318 0)
(0 -0.0634618 0)
(0 -0.0551037 0)
(0 -0.0591152 0)
(0 -0.0631217 0)
(0 -0.0626892 0)
(0 -0.0634608 0)
(0 -0.0488288 0)
(0 -0.0628167 0)
(0 -0.0597983 0)
(0 -0.0411823 0)
(0 -0.0630321 0)
(0 -0.05972 0)
(0 -0.0215376 0)
(0 -0.0615354 0)
(0 -0.0634619 0)
(0 -0.061621 0)
(0 -0.0634436 0)
(0 -0.0634587 0)
(0 -0.0631792 0)
(0 -0.0634618 0)
(0 -0.0615174 0)
(0 -0.0201094 0)
(0 -0.0629119 0)
(0 -0.0634619 0)
(0 -0.0601383 0)
(0 -0.0630828 0)
(0 -0.0630116 0)
(0 -0.0634582 0)
(0 -0.0478694 0)
(0 -0.0634619 0)
(0 -0.0632621 0)
(0 -0.0632938 0)
(0 -0.0432207 0)
(0 -0.0296137 0)
(0 -0.0634209 0)
(0 -0.0594045 0)
(0 -0.00320269 0)
(0 -0.0631102 0)
(0 -0.0466445 0)
(0 -0.0619734 0)
(0 -0.0624917 0)
(0 -0.0632948 0)
(0 -0.0634548 0)
(0 -0.0634605 0)
(0 -0.0613256 0)
(0 -0.063313 0)
(0 -0.063452 0)
(0 -0.0634619 0)
(0 -0.0628922 0)
(0 -0.0634523 0)
(0 -0.0634619 0)
(0 -0.0629657 0)
(0 -0.0634581 0)
(0 -0.0615833 0)
(0 -0.0634609 0)
(0 -0.0634619 0)
(0 -0.0479133 0)
(0 -0.0031836 0)
(0 -0.0358415 0)
(0 -0.0588966 0)
(0 -0.0631248 0)
(0 -0.0512973 0)
(0 -0.061629 0)
(0 -0.0633424 0)
(0 -0.060609 0)
(0 -0.0631126 0)
(0 -0.0634619 0)
(0 -0.0629342 0)
(0 -0.0611494 0)
(0 -0.0634603 0)
(0 -0.0593197 0)
(0 -0.0634619 0)
(0 -0.0611091 0)
(0 -0.0633539 0)
(0 -0.0475589 0)
(0 -0.0634619 0)
(0 -0.0634619 0)
(0 -0.0564819 0)
(0 -0.0592337 0)
(0 -0.0634604 0)
(0 -0.0628864 0)
(0 -0.0634617 0)
(0 -0.0162777 0)
(0 -0.0524891 0)
(0 -0.063461 0)
(0 -0.0593304 0)
(0 -0.0633029 0)
(0 -0.0634617 0)
(0 -0.0445639 0)
(0 -0.063203 0)
(0 -0.0625697 0)
(0 -0.0308079 0)
(0 -0.00615256 0)
(0 -0.0634608 0)
(0 -0.0634619 0)
(0 -0.0582045 0)
(0 -0.0606781 0)
(0 -0.0563006 0)
(0 -0.0622871 0)
(0 -0.0631759 0)
(0 -0.0634619 0)
(0 -0.060361 0)
(0 -0.0634614 0)
(0 -0.0634537 0)
(0 -0.0634433 0)
(0 -0.0634511 0)
(0 -0.0592381 0)
(0 -0.0633934 0)
(0 -0.0634462 0)
(0 -0.0628396 0)
(0 -0.0431674 0)
(0 -0.0632355 0)
(0 -0.0634618 0)
(0 -0.0613759 0)
(0 -0.0633162 0)
(0 -0.0634595 0)
(0 -0.0634616 0)
(0 -0.0634545 0)
(0 -0.0622391 0)
(0 -0.0587535 0)
(0 -0.0123924 0)
(0 -0.0448362 0)
(0 -0.0634619 0)
(0 -0.0632021 0)
(0 -0.0608661 0)
(0 -0.0594672 0)
(0 -0.0614604 0)
(0 -0.00560436 0)
(0 -0.0545342 0)
(0 -0.0502594 0)
(0 -0.0633037 0)
(0 -0.0628663 0)
(0 -0.0634578 0)
(0 -0.0633172 0)
(0 -0.0634618 0)
(0 -0.0634618 0)
(0 -0.0628777 0)
(0 -0.0631574 0)
(0 -0.0261499 0)
(0 -0.0626306 0)
(0 -0.0634619 0)
(0 -0.0579806 0)
(0 -0.0613172 0)
(0 -0.0631637 0)
(0 -0.0633892 0)
(0 -0.0633629 0)
(0 -0.0634596 0)
(0 -0.0634436 0)
(0 -0.053566 0)
(0 -0.0634619 0)
(0 -0.0295102 0)
(0 -0.0580929 0)
(0 -0.0632941 0)
(0 -0.00627635 0)
(0 -0.0550346 0)
(0 -0.0634192 0)
(0 -0.0634573 0)
(0 -0.052609 0)
(0 -0.063459 0)
(0 -0.0576276 0)
(0 -0.0497584 0)
(0 -0.0611878 0)
(0 -0.0634616 0)
(0 -0.062589 0)
(0 -0.0610503 0)
(0 -0.0634587 0)
(0 -0.0604037 0)
(0 -0.0634402 0)
(0 -0.0634616 0)
(0 -0.00232361 0)
(0 -0.0633291 0)
(0 -0.0169239 0)
(0 -0.0634619 0)
(0 -0.0632997 0)
(0 -0.0508083 0)
(0 -0.0634602 0)
(0 -0.0631942 0)
(0 -0.0634121 0)
(0 -0.00429355 0)
(0 -0.0634619 0)
(0 -0.0628274 0)
(0 -0.0634563 0)
(0 -0.059442 0)
(0 -0.063401 0)
(0 -0.0634619 0)
(0 -0.0502265 0)
(0 -0.0634604 0)
(0 -0.05693 0)
(0 -0.063262 0)
(0 -0.0633542 0)
(0 -0.00174999 0)
(0 -0.0634616 0)
(0 -0.0614402 0)
(0 -0.0633848 0)
(0 -0.0632257 0)
(0 -0.0634274 0)
(0 -0.0632123 0)
(0 -0.0632705 0)
(0 -0.0601628 0)
(0 -0.0634595 0)
(0 -0.062972 0)
(0 -0.0634619 0)
(0 -0.0628973 0)
(0 -0.0632573 0)
(0 -0.0556543 0)
(0 -0.0631071 0)
(0 -0.0547589 0)
(0 -0.0632673 0)
(0 -0.0634594 0)
(0 -0.0603935 0)
(0 -0.0482682 0)
(0 -0.0634619 0)
(0 -0.0598196 0)
(0 -0.0634532 0)
(0 -0.0591621 0)
(0 -0.0634593 0)
(0 -0.0634446 0)
(0 -0.0629224 0)
(0 -0.0428083 0)
(0 -0.0425455 0)
(0 -0.0372042 0)
(0 -0.0184289 0)
(0 -0.063368 0)
(0 -0.0633516 0)
(0 -0.0632244 0)
(0 -0.062127 0)
(0 -0.0204479 0)
(0 -0.0634496 0)
(0 -0.0607528 0)
(0 -0.0628842 0)
(0 -0.0634505 0)
(0 -0.0537428 0)
(0 -0.0634615 0)
(0 -0.0631626 0)
(0 -0.0623695 0)
(0 -0.0634611 0)
(0 -0.0634619 0)
(0 -0.0634445 0)
(0 -0.0634589 0)
(0 -0.0634546 0)
(0 -0.0480772 0)
(0 -0.0634469 0)
(0 -0.0634618 0)
(0 -0.0634563 0)
(0 -0.0162256 0)
(0 -0.0581079 0)
(0 -0.0633897 0)
(0 -0.0634604 0)
(0 -0.0634619 0)
(0 -0.0634485 0)
(0 -0.0575337 0)
(0 -0.0633309 0)
(0 -0.0629906 0)
(0 -0.0634616 0)
(0 -0.0634619 0)
(0 -0.0630139 0)
(0 -0.0633984 0)
(0 -0.0615703 0)
(0 -0.0633458 0)
(0 -0.0633494 0)
(0 -0.0173522 0)
(0 -0.0633713 0)
(0 -0.0634565 0)
(0 -0.0339265 0)
(0 -0.0634522 0)
(0 -0.00690249 0)
(0 -0.0554653 0)
(0 -0.0634619 0)
(0 -0.0634618 0)
(0 -0.0242915 0)
(0 -0.0578508 0)
(0 -0.0593234 0)
(0 -0.0524745 0)
(0 -0.0632682 0)
(0 -0.0634208 0)
(0 -0.0598816 0)
(0 -0.0356146 0)
(0 -0.0225687 0)
(0 -0.0629653 0)
(0 -0.0624348 0)
(0 -0.0623991 0)
(0 -0.063443 0)
(0 -0.0508222 0)
(0 -0.0634618 0)
(0 -0.0634617 0)
(0 -0.0634614 0)
(0 -0.063443 0)
(0 -0.0631865 0)
(0 -0.0634479 0)
(0 -0.0627487 0)
(0 -0.0634609 0)
(0 -0.0634502 0)
(0 -0.0634547 0)
(0 -0.0594119 0)
(0 -0.0634603 0)
(0 -0.0634617 0)
(0 -0.0177909 0)
(0 -0.0409346 0)
(0 -0.0633696 0)
(0 -0.0634616 0)
(0 -0.0634568 0)
(0 -0.0521718 0)
(0 -0.0563654 0)
(0 -0.0634618 0)
(0 -0.0634569 0)
(0 -0.0634537 0)
(0 -0.0614345 0)
(0 -0.0617426 0)
(0 -0.0634615 0)
(0 -0.058328 0)
(0 -0.0634617 0)
(0 -0.0634613 0)
(0 -0.063449 0)
(0 -0.0634535 0)
(0 -0.055471 0)
(0 -0.0487219 0)
(0 -0.0159287 0)
(0 -0.06245 0)
(0 -0.0634619 0)
(0 -0.0629734 0)
(0 -0.0616578 0)
(0 -0.0601551 0)
(0 -0.0633871 0)
(0 -0.0634619 0)
(0 -0.0629646 0)
(0 -0.063457 0)
(0 -0.0634619 0)
(0 -0.0634619 0)
(0 -0.0634615 0)
(0 -0.0449195 0)
(0 -0.0154246 0)
(0 -0.0634591 0)
(0 -0.0308214 0)
(0 -0.0473103 0)
(0 -0.0609833 0)
(0 -0.0634619 0)
(0 -0.0629117 0)
(0 -0.0634611 0)
(0 -0.063396 0)
(0 -0.0445448 0)
(0 -0.0634609 0)
(0 -0.0629982 0)
(0 -0.0530113 0)
(0 -0.0634617 0)
(0 -0.0634474 0)
(0 -0.0621886 0)
(0 -0.056763 0)
(0 -0.0634618 0)
(0 -0.0634616 0)
(0 -0.0255668 0)
(0 -0.0634572 0)
(0 -0.0634544 0)
(0 -0.0634609 0)
(0 -0.0634533 0)
(0 -0.0633567 0)
(0 -0.0523851 0)
(0 -0.0593734 0)
(0 -0.0634557 0)
(0 -0.0619328 0)
(0 -0.0634586 0)
(0 -0.0630592 0)
(0 -0.063453 0)
(0 -0.0634418 0)
(0 -0.060651 0)
(0 -0.0628129 0)
(0 -0.0534047 0)
(0 -0.0603944 0)
(0 -0.0634615 0)
(0 -0.0634619 0)
(0 -0.0448441 0)
(0 -0.0634617 0)
(0 -0.0630352 0)
(0 -0.0566036 0)
(0 -0.0621012 0)
(0 -0.0434549 0)
(0 -0.0634136 0)
(0 -0.0591954 0)
(0 -0.0634617 0)
(0 -0.0633377 0)
(0 -0.0522535 0)
(0 -0.00798075 0)
(0 -0.0634244 0)
(0 -0.0634619 0)
(0 -0.0629602 0)
(0 -0.0615809 0)
(0 -0.0630747 0)
(0 -0.0543582 0)
(0 -0.0604544 0)
(0 -0.0621821 0)
(0 -0.0634619 0)
(0 -0.0634619 0)
(0 -0.0634616 0)
(0 -0.0285183 0)
(0 -0.0148706 0)
(0 -0.0593755 0)
(0 -0.063395 0)
(0 -0.0418842 0)
(0 -0.0595106 0)
(0 -0.0634213 0)
(0 -0.0632261 0)
(0 -0.0634484 0)
(0 -0.0470782 0)
(0 -0.0634616 0)
(0 -0.0634619 0)
(0 -0.000576467 0)
(0 -0.0634619 0)
(0 -0.0633855 0)
(0 -0.0628781 0)
(0 -0.0634616 0)
(0 -0.0589861 0)
(0 -0.0634614 0)
(0 -0.0628546 0)
(0 -0.0610682 0)
(0 -0.061737 0)
(0 -0.0292412 0)
(0 -0.0634415 0)
(0 -0.00148492 0)
(0 -0.0592322 0)
(0 -0.0629753 0)
(0 -0.0634618 0)
(0 -0.0634618 0)
(0 -0.00799419 0)
(0 -0.00378294 0)
(0 -0.0610073 0)
(0 -0.0560337 0)
(0 -0.0633976 0)
(0 -0.0593816 0)
(0 -0.0633353 0)
(0 -0.0606921 0)
(0 -0.0634619 0)
(0 -0.0591596 0)
(0 -0.0634611 0)
(0 -0.0321724 0)
(0 -0.0634608 0)
(0 -0.0589648 0)
(0 -0.0300659 0)
(0 -0.0634607 0)
(0 -0.0634554 0)
(0 -0.0634357 0)
(0 -0.0634485 0)
(0 -0.0633029 0)
(0 -0.0629932 0)
(0 -0.0493825 0)
(0 -0.0634619 0)
(0 -0.0454987 0)
(0 -0.0416785 0)
(0 -0.0634223 0)
(0 -0.0632449 0)
(0 -0.0634609 0)
(0 -0.0634618 0)
(0 -0.0633885 0)
(0 -0.0634577 0)
(0 -0.0633929 0)
(0 -0.0634471 0)
(0 -0.00726628 0)
(0 -0.0616288 0)
(0 -0.0622688 0)
(0 -0.0634618 0)
(0 -0.0621237 0)
(0 -0.0634618 0)
(0 -0.0634619 0)
(0 -0.057341 0)
(0 -0.0546886 0)
(0 -0.0559991 0)
(0 -0.0634549 0)
(0 -0.0634616 0)
(0 -0.0605298 0)
(0 -0.0318602 0)
(0 -0.0623004 0)
(0 -0.06246 0)
(0 -0.0629456 0)
(0 -0.0634392 0)
(0 -0.0634454 0)
(0 -0.0211252 0)
(0 -0.0634582 0)
(0 -0.0633411 0)
(0 -0.0634619 0)
(0 -0.0633044 0)
(0 -0.0610359 0)
(0 -0.0612279 0)
(0 -0.063461 0)
(0 -0.0129481 0)
(0 -0.0633477 0)
(0 -0.0634599 0)
(0 -0.0604153 0)
(0 -0.0620272 0)
(0 -0.0634224 0)
(0 -0.0634408 0)
(0 -0.0605691 0)
(0 -0.0634619 0)
(0 -0.0614694 0)
(0 -0.0634396 0)
(0 -0.0629418 0)
(0 -0.0628885 0)
(0 -0.0595179 0)
(0 -0.0634617 0)
(0 -0.0317012 0)
(0 -0.0634193 0)
(0 -0.0634613 0)
(0 -0.0634614 0)
(0 -0.0631517 0)
(0 -0.063291 0)
(0 -0.0617174 0)
(0 -0.0633157 0)
(0 -0.00803599 0)
(0 -0.0634613 0)
(0 -0.0620394 0)
(0 -0.0556464 0)
(0 -0.0625619 0)
(0 -0.0220485 0)
(0 -0.00245817 0)
(0 -0.0634619 0)
(0 -0.0419633 0)
(0 -0.0019444 0)
(0 -0.0564612 0)
(0 -0.063401 0)
(0 -0.0584019 0)
(0 -0.0628552 0)