/*--------------------------------*- C++ -*----------------------------------*\
| =========                 |                                                 |
| \\      /  F ield         | OpenFOAM: The Open Source CFD Toolbox           |
|  \\    /   O peration     | Version:  v2012                                 |
|   \\  /    A nd           | Website:  www.openfoam.com                      |
|    \\/     M anipulation  |                                                 |
\*---------------------------------------------------------------------------*/
FoamFile
{
    version     2.0;
    format      ascii;
    class       volScalarField;
    location    "850";
    object      ddt0(k);
}
// * * * * * * * * * * * * * * * * * * * * * * * * * * * * * * * * * * * * * //

dimensions      [0 2 -3 0 0 0 0];


internalField   nonuniform List<scalar> 
13917
(
-2.95803e-08
-1.72802e-08
0.000608951
-4.10265e-08
-2.26989e-09
2.5974e-07
0.000537706
0.000452839
-0.000534918
-1.47124e-08
-3.27201e-07
-9.27575e-08
-4.19572e-08
-8.56949e-05
2.3326e-08
-2.51097e-08
-8.12093e-09
-1.04561e-07
-8.15786e-08
-1.56896e-08
-3.55065e-09
0.000452032
-1.07768e-08
0.000570458
-2.82179e-08
0.000494275
-2.92612e-09
8.37666e-08
-5.28706e-07
6.82515e-08
-1.15639e-07
-5.80894e-08
-1.09938e-07
-3.03674e-08
-1.97325e-08
0.000134638
-1.0752e-08
-0.000152512
-4.42743e-08
6.83601e-05
-5.28152e-08
-1.80055e-09
-4.73695e-08
7.96953e-08
-4.64931e-08
6.49888e-08
-1.0991e-07
-1.83281e-07
1.42082e-06
-3.39679e-08
-3.29876e-08
-1.33708e-09
1.16323e-06
2.25378e-08
-7.31095e-09
-4.15322e-08
-4.64444e-07
-7.65336e-09
-4.78937e-08
-4.71103e-08
-2.70278e-06
-2.00912e-08
-0.000132085
-1.72602e-08
-4.51931e-08
0.0166205
9.3448e-10
1.7127e-09
-2.32658e-06
-4.21535e-08
-1.32505e-09
-0.000644377
2.48162e-05
-2.56076e-08
-3.07151e-07
3.61359e-08
-9.2399e-05
-3.90209e-08
0.000354489
-4.05459e-09
-8.68789e-09
9.20322e-10
-1.34614e-06
-0.000135156
-2.14341e-05
-3.82318e-08
-1.15757e-08
-0.0337221
-3.0087e-08
-4.79757e-08
-9.60207e-05
-7.144e-08
-2.70929e-08
7.92583e-09
0.0558797
-1.34049e-06
-7.96591e-07
-1.34533e-07
-4.06613e-07
3.51663e-07
-3.95502e-08
-6.11677e-08
8.15033e-08
-2.64655e-08
-2.74442e-08
-0.000722284
1.46028e-07
-1.82987e-07
-1.14301e-08
-4.74141e-09
0.000199815
9.21477e-05
-2.02667e-07
-0.000649256
2.42112e-09
-7.71328e-07
-2.35552e-08
1.26973e-06
-6.47213e-05
-6.57493e-08
-1.91509e-09
-2.53152e-06
-0.00010076
4.63267e-08
-3.92839e-08
1.00722e-08
-4.62426e-08
-4.01856e-08
-5.6608e-08
-1.15099e-06
-2.06665e-05
7.16512e-10
-4.71232e-08
-2.54148e-09
-0.000226772
0.000646532
-7.29833e-08
-5.59149e-07
1.36872e-09
-1.35193e-07
-0.000168529
-4.04338e-08
4.36873e-09
-2.26669e-08
1.90998e-09
-0.00122247
-6.66609e-07
-1.65954e-09
-3.60334e-08
-5.93184e-08
-1.8347e-07
-4.38195e-07
-3.99473e-07
-8.98245e-08
-5.54959e-08
-8.99248e-05
-3.5592e-08
-0.000468049
-5.37875e-05
-0.00281659
-1.20146e-08
-4.43652e-07
-3.75387e-09
-7.65726e-07
-1.91754e-07
-4.43656e-07
-2.68665e-08
-1.69056e-07
-4.60341e-08
2.981e-08
-1.64083e-08
0.000125733
-1.87918e-07
-1.3595e-08
-0.00119595
-7.04114e-08
9.62645e-06
-1.48787e-06
-0.00136094
-5.59825e-09
-4.83635e-07
-9.38996e-08
-4.09854e-08
-1.12689e-08
1.96939e-09
0.000604249
-2.72902e-07
-0.000104873
-6.03865e-08
-5.87122e-07
-6.13698e-08
-4.39081e-05
5.93785e-07
-8.27254e-09
-2.82853e-07
-4.20127e-07
-7.44649e-08
-2.81928e-08
-2.39231e-08
-0.0156622
-2.65163e-08
-3.36243e-08
-1.78495e-07
-1.75722e-07
2.84866e-05
-0.000478206
-1.75548e-08
-3.85903e-09
-1.27205e-07
0.000757539
1.27869e-09
0.000481993
4.80576e-05
-5.88642e-07
-2.51089e-08
1.38929e-06
-1.63989e-07
0.000210268
-3.04977e-08
6.06604e-05
-5.83616e-09
-4.53785e-08
-5.18595e-08
-0.000162275
-0.000676339
-2.3807e-08
1.00464e-05
-5.51146e-08
-2.47743e-08
0.000139867
-1.39879e-07
-5.80857e-08
0.000805733
4.25586e-05
-4.67325e-08
-5.7973e-08
-0.00010277
-3.79198e-05
-8.81429e-09
-3.03233e-08
8.65899e-05
-1.07889e-06
-3.49059e-09
-7.91966e-06
-1.64865e-07
-1.28909e-06
-4.34508e-08
-6.81381e-09
-2.42111e-08
6.83125e-06
-2.75857e-08
-1.04103e-07
-3.34913e-07
-4.64824e-08
-1.07992e-08
-2.69268e-07
5.45582e-05
-3.52349e-07
-3.00014e-08
-6.89062e-08
-2.73419e-09
-9.19423e-05
-0.000914755
-2.19144e-05
-2.70182e-08
0.000141665
-0.000154873
-0.000131155
0.000308056
1.91544e-08
-6.63704e-09
-4.40372e-08
-9.49248e-08
-0.000161658
-3.40757e-07
-4.72731e-08
-0.000593311
-1.28744e-08
-5.97108e-08
-0.000532039
-1.75787e-08
-0.00102241
-2.54092e-08
-7.18056e-09
-6.24956e-08
-5.65994e-08
-9.20967e-07
8.71689e-07
-2.41791e-08
-2.58747e-08
5.10486e-05
0.000797403
-0.000665865
-3.04131e-08
-0.000610279
1.0503e-09
-2.56868e-08
-2.14901e-08
2.67564e-06
-2.65486e-08
-3.45509e-08
-4.67352e-08
-4.50372e-08
-1.90561e-07
-5.07886e-08
6.1259e-07
-1.40932e-07
3.5008e-08
-4.40914e-08
-1.42103e-08
0.000189734
-0.000110886
-2.46365e-08
-4.98597e-08
-0.00036949
-9.61122e-09
1.14793e-05
-4.4378e-08
-0.000161652
-3.65819e-08
6.09135e-07
-6.20796e-08
-3.67532e-09
4.04629e-09
-0.000123638
-1.26993e-06
-4.40852e-08
-1.00887e-06
1.65137e-05
8.38221e-09
-8.28462e-05
1.05802e-06
-0.000164153
8.64198e-08
-6.02456e-06
-6.38727e-08
0.000155126
1.41209e-06
-4.55075e-08
2.29203e-07
0.000486047
-5.37618e-09
-2.4855e-08
0.000208121
1.46678e-10
-1.42707e-08
-0.000197573
-1.77487e-07
-1.83284e-08
3.07922e-05
-1.59303e-06
-3.97789e-08
-7.45587e-05
-0.0103894
-1.89788e-08
-2.75776e-08
3.42997e-09
-3.74884e-08
-0.000170237
-0.00137462
-2.38806e-06
0.000198925
-2.31096e-08
4.01273e-08
-4.01067e-05
-1.10042e-07
0.000483844
-0.000165412
-0.000622872
-4.38286e-08
-2.40351e-05
-2.86441e-08
-2.62126e-05
-4.70198e-08
-9.05048e-08
-1.50736e-07
-3.22841e-08
-6.56096e-09
-1.46512e-07
-1.71467e-07
-9.60909e-08
-3.11021e-06
0.000147489
0.000190575
-3.95107e-07
-1.37296e-07
-2.9818e-08
-4.81745e-05
0.00041639
1.8182e-09
0.00108414
-1.2253e-08
2.18152e-05
-3.55387e-08
-5.4583e-09
-4.35862e-08
3.27931e-05
-4.27838e-08
4.71129e-05
-2.27471e-05
-7.79371e-07
2.37892e-06
8.2922e-09
-1.61471e-07
1.42784e-06
-1.7043e-08
-2.11685e-07
-3.68513e-09
-2.04002e-08
1.85158e-07
-5.59479e-09
-2.23608e-08
-2.57317e-08
2.13739e-05
-3.81035e-09
6.89261e-06
0.00023534
-2.35873e-05
8.29159e-07
7.70229e-05
0.00021036
-1.09369e-07
-2.08294e-08
2.30926e-07
-4.19288e-08
-6.02435e-08
-8.38913e-09
-0.00121602
0.000607224
0.000266299
-1.34569e-08
-1.66082e-07
-9.76357e-08
-4.16202e-08
-9.00773e-08
-2.63939e-08
6.56845e-07
-1.50351e-08
-2.44734e-08
5.18789e-06
1.98756e-06
3.38278e-05
2.23513e-07
-1.41138e-05
-5.42518e-05
0.000203897
-0.000153865
-5.76304e-08
-8.63398e-08
-2.78968e-08
-2.07176e-09
-1.55961e-05
-1.18032e-07
-6.37339e-08
-3.21688e-08
-9.38902e-08
-0.000137348
-1.738e-08
-5.0805e-07
4.65074e-05
2.9859e-07
-1.04429e-05
-3.92857e-09
1.71763e-09
-7.59221e-08
-3.41518e-08
-4.17645e-08
0.000723096
9.14727e-06
-4.52896e-09
-7.82409e-05
-3.98723e-08
-8.30128e-07
0.000209787
-1.10295e-07
-7.65107e-07
0.000697466
-4.33274e-07
-3.88223e-08
-8.06566e-07
-8.7579e-08
-4.4552e-07
2.39701e-06
-5.85882e-08
-3.30827e-07
-6.91444e-08
-0.000506319
-3.42747e-08
-4.27994e-08
-3.99395e-08
-3.52028e-08
-0.00015846
-0.000669294
-9.47476e-09
-6.30756e-08
0.000954842
0.000201548
-6.6221e-09
-1.062e-05
-1.87554e-08
5.76764e-07
-7.47712e-09
8.99168e-05
-0.000743589
-5.92493e-08
-5.0408e-08
9.85571e-05
1.02812e-06
-4.29196e-05
-2.68337e-09
2.84287e-05
6.30133e-07
0.000422942
-4.3176e-08
-1.44866e-05
-7.58955e-05
-1.11491e-07
-2.54149e-08
1.04939e-09
1.17163e-07
1.56927e-05
-6.73973e-08
-2.77188e-08
-3.52537e-08
-3.66189e-08
0.000141448
-3.24402e-05
-1.09409e-07
2.25751e-06
-4.3941e-08
-3.89505e-08
-1.07276e-07
-3.73364e-05
-5.11089e-08
-4.83148e-08
-2.07827e-08
5.23996e-10
-2.01241e-05
-5.77159e-05
-1.05115e-08
-3.0137e-09
-1.90742e-05
-9.41917e-08
-6.19021e-08
3.04929e-10
-4.16611e-08
-5.42525e-08
-3.41833e-07
-2.74162e-06
-3.59867e-07
1.53583e-07
-1.96864e-07
-0.000528927
5.81392e-08
-2.99353e-08
8.55881e-06
1.56842e-09
-1.79398e-08
-2.42474e-08
0.000139781
5.73277e-08
-5.11123e-08
2.48376e-07
-2.6218e-07
-2.55391e-05
-2.13205e-07
1.21397e-07
-1.0602e-07
-5.68795e-09
-0.000463002
7.13722e-07
0.000120495
-1.16456e-08
-4.66525e-08
-7.56039e-06
-0.0001642
5.90648e-05
-1.40534e-07
1.75307e-07
-2.2399e-08
-5.66877e-08
1.83164e-10
8.94395e-07
3.52865e-08
1.27165e-09
-1.4768e-07
-5.98694e-07
0.000127116
-4.33484e-05
-4.86749e-08
-7.6349e-07
-0.00066762
-1.69317e-08
3.49921e-09
-1.33793e-06
-0.00139009
-0.000790655
2.56185e-06
-5.60009e-08
-7.99787e-05
7.25465e-08
-5.72727e-08
-5.5826e-08
-3.39589e-07
-2.81383e-07
-2.39148e-07
0.000378677
-4.53106e-07
-6.48304e-08
-0.000476268
-3.85578e-08
-0.000128421
-6.08146e-09
-1.04091e-08
-0.000448266
-0.00127323
4.08809e-06
-3.79972e-08
-1.341e-08
-3.13987e-09
-1.03716e-08
1.08773e-06
-3.11293e-07
-5.72455e-08
-6.65082e-07
-1.67416e-07
-5.90669e-09
9.85434e-05
-2.47035e-07
2.43503e-05
-2.68319e-08
1.53874e-07
-3.75987e-08
-6.19566e-06
1.95958e-07
-6.02944e-09
-5.00913e-08
-4.51537e-08
-4.54778e-08
-4.7832e-08
1.04904e-07
3.44676e-08
-6.00747e-06
4.07028e-06
-1.66625e-07
-4.00172e-08
-1.25492e-07
6.47395e-06
0.0014048
-2.81531e-08
6.34199e-08
-2.80074e-08
-3.92201e-08
-4.47575e-08
-1.42117e-05
-5.96368e-09
-7.92332e-05
-3.76171e-08
-2.16115e-07
1.15659e-07
5.7506e-05
6.14803e-08
1.34689e-09
-0.000153283
0.000111371
4.4804e-09
-2.42868e-08
-0.00108875
-5.88424e-07
-1.9704e-07
-9.64306e-09
-5.06046e-08
-1.00877e-07
-3.23164e-08
-9.5893e-08
-2.25742e-07
-4.55972e-08
-1.70282e-07
0.000630535
-2.96236e-08
-3.60114e-08
-3.28254e-08
-0.000107859
-2.18886e-09
-8.88058e-09
0.000130829
-6.37111e-09
-0.00146056
-5.66097e-08
2.62866e-09
-3.29708e-08
4.70688e-07
-1.87181e-08
-8.81583e-09
-4.58094e-08
7.92942e-08
-1.88434e-08
-5.72566e-05
2.01692e-06
-2.54013e-05
-6.99842e-08
-5.85113e-09
-8.50426e-08
-6.08392e-08
-0.000196478
-0.000289211
-7.77995e-08
-1.92755e-08
3.03498e-05
4.59987e-06
3.24253e-05
6.1931e-06
-7.00201e-08
0.00030516
-5.74707e-08
-1.68434e-08
2.83759e-07
6.43424e-09
-7.54002e-08
-5.07114e-06
-2.21182e-08
-3.01928e-08
-3.44216e-07
-3.57567e-08
-4.24548e-08
-3.8894e-08
4.20689e-08
-5.8605e-08
-1.7676e-08
-4.42103e-08
-1.86421e-07
-1.88898e-08
-1.04457e-07
-1.57826e-08
-8.3034e-09
-2.2557e-09
-3.34541e-08
-4.10294e-08
-5.83592e-08
-3.1793e-08
0.000102373
-5.48479e-08
3.35243e-06
-4.2275e-08
-5.77607e-09
-1.12667e-07
-4.02098e-08
1.56602e-09
-0.000331732
1.38698e-07
0.000648357
-3.83775e-08
-3.20363e-07
-2.68036e-08
-3.50078e-09
-3.9524e-08
-4.7409e-08
4.16064e-05
-5.1591e-09
-0.00234725
-5.84517e-08
-4.49821e-05
1.51817e-08
-6.38807e-08
-6.01902e-07
-4.37246e-08
-4.11008e-12
-5.96954e-08
-4.11985e-09
9.94716e-09
-0.000735291
-1.48917e-08
-2.80031e-09
-5.09724e-08
-3.1475e-08
-6.45297e-08
-5.80131e-08
-2.08326e-06
-0.000199868
-6.16558e-08
-2.96788e-08
-5.3662e-08
-0.00017013
1.95778e-07
7.28073e-09
-1.37844e-08
-0.000603326
-0.000313712
0.000166588
1.01952e-07
-3.0134e-08
-4.70237e-08
-6.32675e-08
-6.38742e-08
-5.60219e-08
-2.872e-05
1.85231e-07
-0.000105307
-3.46571e-08
9.75346e-09
0.000144318
-1.06662e-08
-3.40146e-08
-4.00626e-10
-2.60569e-08
4.94864e-08
-2.00936e-07
-4.24588e-08
-0.00136395
6.25454e-05
-2.8141e-07
-3.09437e-08
-4.16528e-08
-5.35457e-07
-0.00164864
-6.73074e-09
-0.000345117
-4.19654e-08
-7.0666e-09
-3.67564e-08
-3.75725e-08
2.46354e-05
-3.63636e-08
0.000195179
-4.88065e-08
-1.2412e-09
-4.85828e-08
-2.58397e-09
-2.02326e-08
-3.49432e-08
-7.39742e-06
-3.03128e-08
-4.40838e-08
-0.000336976
-0.000939607
-6.74754e-08
-1.22334e-07
-1.32152e-07
-2.79055e-08
-3.72977e-08
-1.36773e-08
1.86551e-05
1.75098e-07
-3.59721e-09
-4.84268e-08
-0.000368733
-6.62419e-08
0.000214755
-3.21823e-09
1.71407e-09
-0.000101188
-6.13259e-08
-3.89636e-08
-2.38951e-06
-1.1143e-06
-1.85117e-08
2.31917e-07
-4.03026e-08
-3.98804e-08
-4.00245e-08
0.000133509
-4.35158e-08
-3.65028e-08
-3.89177e-08
8.32565e-05
-3.91329e-08
6.71691e-07
1.62767e-06
-3.57527e-08
-8.75497e-09
-1.14777e-08
0.000200329
-2.74683e-08
-3.03917e-08
-3.23007e-09
-5.9675e-07
-1.82827e-09
2.40998e-08
9.97645e-05
0.000974889
3.44313e-08
0.000959493
0.000132068
-1.29799e-08
-7.03682e-05
-2.79775e-05
0.000142536
7.37973e-05
-0.000308791
-4.37051e-05
-3.23936e-07
-2.9286e-09
0.000332315
-6.06959e-08
0.000355914
-4.27347e-08
-2.9435e-08
8.93037e-09
-1.29521e-08
-2.75664e-08
4.00853e-07
-0.000126886
-3.06074e-08
-2.02643e-09
-4.39863e-05
-2.78836e-07
-3.66727e-10
-3.60225e-06
-5.28828e-08
-3.84662e-08
1.00668e-05
-2.05023e-06
-2.29349e-09
-3.79038e-08
6.97247e-05
0.000153256
1.48974e-06
-3.76292e-08
-1.15998e-07
-2.5002e-07
4.07688e-05
-0.00056914
-6.0479e-08
-8.12915e-09
-2.59331e-08
-3.16583e-08
-4.77613e-08
-3.8758e-08
-5.70372e-08
-5.49066e-08
-5.35933e-08
-7.9501e-05
-9.03365e-07
-3.54213e-08
-1.99118e-07
0.000197079
5.70822e-09
3.06341e-10
-0.000102403
-4.44927e-08
8.65819e-09
8.65338e-08
-0.0001002
4.45815e-10
-2.79934e-08
0.000397188
-2.04609e-05
-7.33172e-05
-3.88275e-07
0.000317071
-2.40551e-08
6.48619e-07
3.22457e-09
-2.32527e-08
9.96977e-10
0.000628366
0.000186481
-4.48656e-08
-4.86768e-08
1.61208e-09
-0.00072389
-3.14958e-08
-4.57742e-08
-3.87938e-09
-1.32282e-08
-7.07508e-07
-3.50971e-08
-2.23713e-08
-4.86044e-07
5.65943e-05
-4.47916e-08
-1.21064e-07
-4.67604e-08
7.99994e-05
0.000189039
-2.34273e-08
0.000197059
-1.41318e-07
6.9736e-07
-6.22732e-10
4.58859e-05
-3.2513e-09
-4.18172e-08
-8.13627e-08
-3.09331e-07
0.000828474
4.88241e-05
6.32997e-07
-0.001244
-4.76122e-08
-1.064e-05
-3.72305e-08
-3.49936e-08
0.000347326
2.26621e-10
-2.44499e-09
-4.93985e-08
-4.45913e-08
-6.73677e-05
-4.4625e-08
-1.09869e-08
-1.68123e-07
-1.43114e-08
-1.19874e-07
3.54535e-06
-2.25356e-07
1.83252e-05
9.97633e-08
-6.35395e-08
-1.64491e-08
-0.000154413
-8.34036e-08
-7.99401e-05
0.000420993
-2.22788e-08
-3.41112e-08
4.33864e-05
2.94412e-05
-6.30583e-10
-2.2257e-07
-5.18062e-08
-2.68702e-08
-2.97121e-08
-4.27889e-08
-1.35134e-07
-1.33516e-11
-7.38068e-08
-1.01406e-07
-2.90678e-08
-3.86477e-08
-4.1588e-08
-2.49226e-07
-4.69406e-08
5.83182e-08
-1.05314e-07
-1.91431e-08
-2.69582e-08
-4.38715e-08
-1.23528e-05
-1.46526e-08
-0.0015848
-2.46298e-08
-2.76498e-08
-1.80101e-07
-1.30289e-09
-2.02983e-08
-4.04842e-10
-2.6466e-08
-1.59445e-07
-4.2548e-08
0.000110185
-1.77949e-09
-6.45626e-08
-0.000200386
-1.17034e-05
-2.39455e-08
-2.40864e-08
7.51312e-05
-2.23649e-08
-2.94428e-08
4.89501e-05
0.000134624
1.70852e-09
9.90637e-07
-1.73953e-08
-2.5648e-08
0.000685826
-5.12483e-08
-4.33785e-08
4.64206e-05
-3.89239e-08
-0.000223151
-9.29223e-09
-4.11035e-08
9.9008e-09
-2.22674e-07
1.47352e-05
-5.90454e-09
8.10456e-09
-2.40049e-08
-5.98633e-08
-2.79782e-08
1.24185e-06
-3.79715e-08
-2.99053e-09
-0.00121942
-8.27646e-07
-1.0942e-05
-2.62801e-05
-3.70895e-07
-4.5576e-08
1.00413e-10
3.23422e-09
-3.93121e-07
-6.93386e-08
4.22829e-06
0.000151846
-1.323e-09
0.000293299
-3.30371e-07
-1.29548e-07
-4.14488e-07
-6.30129e-08
-1.32599e-06
0.000932847
-4.69047e-07
-1.90516e-06
-0.00012229
-1.66295e-07
-3.14372e-08
-0.000155526
1.08373e-08
-4.41122e-08
-2.5363e-08
-0.000125805
-1.40193e-08
-9.9911e-09
2.46732e-07
1.50428e-07
-4.83188e-08
-0.00017776
-3.51602e-08
-0.00157811
-3.07598e-08
1.50554e-05
-2.80234e-07
-3.85149e-07
-5.19572e-08
-4.38777e-08
-1.86746e-08
0.000817582
-2.57641e-08
3.05846e-08
-6.51106e-08
-4.20458e-08
-3.7095e-08
8.79817e-08
-4.40022e-07
-1.57047e-06
-3.78331e-07
4.18915e-07
0.000340643
2.00703e-06
-4.22763e-08
-0.000589815
0.000588947
-4.4917e-08
-2.83751e-08
-5.2051e-08
4.48307e-05
-1.83549e-09
-8.26214e-08
-5.96676e-06
-3.24554e-08
-1.55638e-08
-2.53107e-08
-3.6493e-08
-1.79843e-07
1.2257e-08
-3.17846e-08
-0.000140464
0.000337012
1.23044e-07
-0.000500735
-1.43403e-07
-0.000254435
-7.74435e-09
-3.04582e-08
0.00118981
-0.000932933
-9.54664e-08
-1.28123e-05
-5.66308e-08
-3.00581e-09
-3.04115e-08
-2.41804e-08
-2.16575e-08
4.67504e-09
-2.02251e-07
-2.60937e-08
-4.74867e-07
-3.03235e-08
-5.08152e-08
-4.17772e-08
4.98992e-08
-6.13059e-07
-5.97272e-07
-1.69715e-08
1.26341e-07
-3.16147e-08
0.00143472
-1.35001e-08
-2.2894e-07
-4.04641e-09
-5.41502e-06
7.01957e-05
-4.09338e-07
-2.4276e-08
-6.01903e-07
2.57969e-09
-6.07851e-08
5.50295e-05
-4.20369e-08
3.08184e-10
6.53192e-09
-5.56758e-08
0.000301691
-2.61001e-08
1.04788e-08
-3.65884e-08
-1.53537e-08
3.90712e-07
-1.09645e-08
-4.47332e-08
-7.06288e-09
-4.00939e-06
-5.81005e-08
9.48966e-05
-0.000929687
-6.09897e-08
3.30025e-05
-5.79827e-08
-4.41919e-08
-1.78926e-08
0.000161176
-3.23441e-08
-4.05208e-08
-1.08733e-07
-0.153956
-1.84841e-08
-1.54289e-05
-4.08746e-08
-1.13012e-07
-3.84654e-08
-4.85195e-08
6.35305e-07
2.68271e-09
-1.29755e-09
-3.5671e-08
-4.55218e-08
-9.88031e-09
-5.89905e-08
-2.82709e-07
1.16887e-06
0.00055088
-4.04868e-08
-3.27313e-07
0.000488804
9.28677e-05
-7.06809e-08
-3.02612e-08
2.13042e-05
-6.91802e-08
-8.80928e-05
-4.03823e-08
-2.99645e-05
-1.17127e-05
-4.18497e-08
-6.08695e-09
-2.83148e-08
-2.24618e-08
-2.21934e-08
-4.01026e-08
4.16386e-08
-1.60824e-08
-4.16058e-08
-3.99832e-08
-8.81008e-05
7.96726e-08
-2.38262e-08
-0.000524891
-4.20065e-08
-2.16044e-05
-2.61425e-08
3.96602e-07
-1.84506e-08
0.000123722
0.00016178
2.34326e-09
-2.07119e-08
4.03198e-05
4.16206e-08
-3.79446e-05
-2.90219e-08
-3.76405e-08
0.000175228
-1.9942e-08
2.73757e-07
1.815e-06
-2.70901e-09
-1.1451e-07
-5.30475e-08
-4.8816e-08
-4.96442e-08
0.000280557
0.000120653
-4.4599e-08
-2.31807e-08
-5.09928e-09
-5.71779e-08
6.75672e-07
-0.000126943
8.86536e-09
4.59918e-06
-0.000276812
2.13275e-05
-0.00133688
-2.03666e-08
-7.74543e-08
3.94864e-08
-9.55706e-08
-7.28127e-09
-2.04971e-07
-0.000139256
1.55522e-08
-3.35503e-08
0.000403795
6.83713e-06
-4.47201e-06
6.27822e-09
8.82168e-09
-3.21589e-10
-9.59608e-10
0.000135588
-1.56264e-07
-2.00957e-08
-1.96602e-08
-4.77853e-08
-2.30606e-09
-4.37436e-09
-9.17136e-09
-3.19762e-07
-3.14319e-08
-0.00114787
-7.31151e-07
-2.4548e-05
4.6024e-05
-6.64137e-08
-1.02157e-07
-3.90381e-08
-3.29759e-08
0.00011577
-1.3873e-08
-3.78083e-08
-1.1057e-07
-5.32936e-07
4.94267e-08
1.08725e-06
-9.03819e-05
-4.39129e-08
-0.000167518
-4.82397e-08
-4.07828e-08
-4.23206e-07
-1.55428e-09
-2.81407e-08
-3.51482e-07
-0.00130862
-3.90813e-08
0.000831491
-2.23658e-08
-4.69814e-08
-3.97387e-08
1.93263e-06
-5.98032e-08
-2.69308e-08
-0.000114201
-5.28309e-08
4.1445e-06
0.000113828
-6.66225e-09
-8.72062e-07
-2.92309e-08
0.000103187
-1.03459e-07
-3.96292e-09
0.000471277
-8.60747e-08
4.5668e-08
-1.06392e-09
0.000153993
-1.62883e-07
6.63743e-07
-3.31355e-08
-3.75787e-09
0.000174153
-4.58231e-08
-1.179e-05
-8.271e-09
-4.48671e-08
-9.50881e-08
-6.68977e-09
-3.28663e-05
-1.05138e-08
-3.69159e-08
-5.7404e-08
1.13758e-06
-2.5361e-08
-5.77032e-07
9.5829e-09
0.000448773
-1.63937e-08
4.76953e-06
1.40181e-07
-2.35972e-07
-4.2248e-08
-9.01376e-08
-1.78582e-08
1.02552e-07
0.000956068
-2.00311e-08
-2.47722e-08
-2.14474e-07
-3.23123e-08
0.00028549
-4.78177e-08
0.000889959
2.75018e-05
-5.39158e-08
-2.6908e-08
-3.02315e-08
-1.89453e-09
-5.58593e-08
8.32243e-08
1.57083e-07
-5.55412e-07
-5.87991e-08
-1.91391e-08
-0.000550925
-2.23263e-08
-4.63094e-08
0.000413644
-2.03011e-08
4.05161e-05
-1.40065e-07
-3.99323e-08
2.12523e-09
-0.000114809
0.000224791
0.00116428
0.000703074
-1.75755e-08
-9.1161e-08
5.29349e-05
-2.36426e-06
-1.14995e-08
-3.95328e-09
-5.14641e-07
0.000419713
-9.10155e-06
-1.62351e-07
-3.764e-08
-5.00416e-07
-7.15726e-08
0.000100717
-7.33094e-06
-1.07359e-07
-4.26684e-07
-3.7345e-08
-2.02173e-07
-2.2896e-08
-1.23673e-08
2.58945e-07
-0.000544643
-1.02198e-09
-0.000651737
-4.96462e-09
-4.02375e-08
-0.000181993
-0.000143781
-4.05621e-08
-3.68132e-08
-5.15948e-08
-4.03382e-08
-3.73054e-08
9.7211e-07
-2.42095e-08
-2.54469e-08
-1.43522e-08
-7.66516e-08
-5.80014e-08
-5.92173e-08
1.49626e-05
-1.91324e-08
-0.000101201
-1.83797e-05
-0.00017425
1.17548e-07
-3.66215e-08
-0.000386485
-5.84842e-08
0.000294051
0.00013808
-0.00891306
-1.04167e-08
0.00026324
6.43607e-05
-4.64326e-08
-1.57061e-08
1.58967e-07
0.000185529
-1.1996e-05
-3.38045e-08
3.33607e-09
2.11055e-05
9.92282e-05
0.00275435
-5.66268e-08
6.83084e-08
1.16965e-06
7.15654e-09
-4.4555e-06
-0.000105779
0.000748966
-4.06098e-07
-1.45119e-08
-2.23601e-08
-4.24886e-08
-1.06068e-07
-0.000127302
-9.76114e-08
-2.35243e-08
1.02421e-09
4.41138e-08
0.000103937
-7.01783e-08
-0.00185229
-4.89618e-05
-7.3982e-05
-4.57597e-07
-9.87022e-09
-1.14296e-08
0.000990483
-4.71486e-08
-4.38453e-08
-4.11879e-09
3.26055e-07
-6.7783e-08
-0.000121153
-3.77253e-07
-1.907e-08
-0.000182674
-4.43895e-08
-3.53756e-08
-4.08864e-05
2.91346e-07
-8.30622e-08
-2.31403e-08
-1.49722e-05
0.000233135
-2.02228e-09
-0.000932179
-0.000154376
-5.32158e-05
1.40915e-05
-2.40669e-07
-8.58285e-09
-4.76806e-08
4.42872e-05
-4.84674e-08
0.00125761
-2.91504e-08
3.15846e-06
-2.04943e-05
2.18619e-09
8.30331e-08
-5.28093e-09
1.01424e-08
0.000124909
-1.45377e-05
-9.70725e-10
-4.4601e-05
-1.12402e-07
3.99543e-09
5.05291e-08
-2.87868e-08
-7.24642e-07
-5.03088e-08
-1.76968e-06
-4.12573e-08
-7.43182e-09
-4.91399e-08
6.30358e-07
-8.07087e-05
-6.32272e-08
-4.13617e-08
-3.22718e-08
-1.81714e-08
-4.43214e-08
-3.22e-08
0.000108289
-1.1215e-05
0.000217419
-4.29803e-08
-4.50269e-08
-4.00289e-09
-1.45033e-07
-2.30066e-08
-8.64145e-09
-1.63622e-06
-1.64247e-07
7.15416e-05
-4.22727e-08
0.000223489
-1.19945e-06
-4.36185e-09
6.01073e-05
-3.95775e-07
-7.40947e-08
2.32255e-07
-4.22077e-09
-7.12924e-05
1.90765e-07
7.77066e-09
9.10342e-09
-4.80175e-08
1.18023e-05
-7.04312e-08
-3.16834e-08
-3.27335e-08
5.58005e-05
2.12773e-05
-5.73477e-09
-3.72112e-08
-5.77718e-08
-4.44638e-08
-1.20448e-08
1.46704e-09
-5.03491e-08
-2.13406e-08
-0.000144435
-2.19695e-08
0.000161331
-3.89743e-08
2.7892e-06
-5.07607e-08
-4.89276e-08
-8.78308e-05
-3.59001e-06
2.09436e-07
0.000278185
-2.82856e-07
-8.62926e-08
-7.5258e-09
0.000208684
-4.80946e-10
-2.37227e-08
4.24512e-07
-2.59316e-08
-0.000137657
8.13761e-05
-3.6597e-07
-0.00111762
-7.70198e-08
-0.00290154
-6.44897e-08
-3.59279e-08
-3.51921e-08
-1.23806e-05
4.42887e-08
0.000177289
-9.36775e-05
-2.44314e-08
-3.33553e-09
2.60587e-09
4.12792e-05
6.95454e-06
-2.34625e-08
-7.36939e-09
-1.94034e-08
-5.94156e-08
-6.92806e-08
-0.000100969
6.59725e-07
-2.11283e-08
-6.05512e-06
-2.30749e-08
6.94927e-05
-1.1425e-07
-3.38237e-08
-5.35161e-08
-0.000153618
-4.49139e-08
-8.3443e-08
0.000749036
6.3591e-09
-5.8374e-08
5.3647e-07
7.50636e-07
1.1e-08
-0.000126716
-5.08528e-08
-1.33051e-05
-2.93551e-08
-8.04565e-08
-1.7903e-08
0.000223991
-3.43437e-08
-1.23394e-07
3.34539e-07
0.000146498
-8.00359e-08
-1.00102e-07
-2.36615e-08
-6.80571e-07
-9.97812e-10
0.000128077
-2.81139e-08
-3.07317e-08
-4.85776e-08
-1.7355e-08
-3.51005e-09
7.44234e-07
-6.02231e-09
-1.67078e-08
3.18117e-09
-9.98258e-07
-1.2929e-09
-4.29949e-08
-3.31622e-07
3.67411e-07
-1.96608e-07
1.28663e-10
3.18948e-07
-1.4426e-06
-1.05307e-06
-3.7855e-08
7.2447e-07
-7.72823e-07
0.000982061
-1.99725e-07
-3.50949e-09
-0.000745335
0.000680811
-2.9555e-09
-5.18516e-08
-5.02969e-08
1.70554e-05
3.06951e-07
-2.54516e-08
-1.36522e-06
0.000122259
-5.20049e-08
-1.95031e-09
-1.06527e-05
-8.41494e-05
-3.37931e-08
-4.56917e-08
0.00290967
3.56759e-05
2.66242e-07
-1.72313e-08
-3.90198e-05
-3.47867e-09
2.0713e-08
0.000159999
-3.82086e-08
-5.03427e-08
-5.28063e-08
2.63129e-09
-5.33866e-08
0.000362987
0.00021889
-2.61217e-08
-0.0016643
5.18649e-07
6.71597e-05
-4.14911e-08
-7.81981e-07
1.01585e-09
-6.88312e-09
-0.000166433
-0.000969289
-4.83745e-06
-0.000875745
2.14237e-08
-3.81959e-08
-6.51406e-08
0.000236332
-2.03845e-05
-3.18817e-09
-4.6931e-08
-2.88734e-08
-3.16574e-08
-1.51581e-07
7.30945e-05
-0.000716787
-3.01323e-08
-4.95955e-08
-2.69702e-08
-0.000191997
2.60006e-08
-8.08405e-08
-2.94225e-08
-5.35284e-09
1.40833e-07
-0.00167847
0.00010802
1.42327e-06
-1.24555e-08
1.04565e-05
-6.75471e-08
-5.6874e-07
5.1249e-05
-2.51217e-06
-5.39147e-09
-9.66004e-11
-5.78049e-08
-7.03606e-09
-2.92064e-09
-0.000176593
6.11847e-05
-4.48984e-08
-5.24775e-08
-2.34511e-09
-2.66755e-08
-3.95767e-06
-4.59524e-08
0.000188794
-6.80135e-08
1.9314e-08
-3.75258e-08
1.80532e-08
0.000235804
-6.07231e-08
7.48139e-08
-8.59387e-05
9.00668e-09
7.98304e-05
3.23121e-08
5.14099e-07
-4.41475e-07
0.000211354
7.18297e-05
-5.46336e-08
-1.74355e-08
-1.27734e-06
-4.48992e-08
-1.81709e-08
-1.92557e-09
0.000127221
-3.41077e-08
-0.0187065
1.51541e-05
-2.69355e-08
-1.72408e-09
2.74451e-07
-3.23384e-08
-2.62792e-09
4.03956e-06
-5.69494e-08
-2.1047e-08
-5.2736e-08
-3.67861e-09
5.58851e-05
-1.77844e-08
1.25329e-05
9.59852e-09
-2.90222e-08
-3.95539e-05
-3.24593e-05
-6.52431e-09
-5.04862e-08
-7.7586e-08
-3.06709e-08
-1.83153e-07
-2.73068e-08
-5.13627e-08
-3.27193e-08
-1.50051e-05
3.41253e-08
0.000361189
3.58702e-09
-0.000110789
-9.24294e-08
-2.11671e-08
-0.000185199
-6.01454e-08
0.000674494
-3.94469e-08
0.000210944
-0.00259764
-0.000172704
-0.00101061
2.57284e-05
-3.67086e-07
-2.5126e-08
3.1136e-05
-1.89191e-07
-7.90263e-09
0.000144787
-0.000863875
1.80662e-08
-1.9531e-08
-5.9823e-08
-6.00305e-08
-5.86966e-08
3.99503e-05
-3.4871e-09
-3.85149e-08
-6.85394e-08
-2.04063e-08
-1.28444e-08
-3.74505e-07
-4.41987e-08
0.000584181
1.01324e-08
1.96571e-07
-5.32916e-08
-6.36242e-08
3.46844e-08
-0.00115913
-7.59366e-10
-2.2349e-08
3.31327e-07
0.000252328
-0.000326752
-2.13693e-08
0.00089174
-4.47345e-08
8.11338e-06
-8.90972e-10
-1.85078e-08
-0.000106258
-5.16879e-08
9.35017e-06
0.000196346
-1.16934e-07
-2.31513e-05
-4.15714e-09
-4.28408e-08
0.00019937
9.82532e-07
-1.16142e-08
-0.000393542
-6.00857e-08
-4.98068e-07
-1.05238e-07
-8.22342e-08
-4.40317e-08
-0.00160932
4.9374e-05
-4.01958e-05
-8.48626e-06
-4.738e-08
6.06496e-08
3.52386e-05
-1.20052e-08
8.59149e-09
-5.32715e-07
-6.4259e-08
-1.63991e-07
-0.000117661
-2.83525e-05
-0.000147307
-1.79466e-07
-2.09928e-08
-0.000121434
-4.82198e-08
-3.55481e-07
-6.72015e-09
-0.000308362
-4.37752e-08
3.37222e-07
-6.47771e-05
-1.04813e-07
-2.39081e-08
-3.33654e-08
-3.03122e-07
-2.6037e-09
1.45248e-07
-4.00202e-08
-0.000524664
0.000197845
-3.78456e-07
-1.87017e-06
-3.09445e-08
-1.55472e-05
-8.5857e-07
-5.97836e-08
-3.77836e-08
-2.23837e-08
-2.20531e-08
-1.91514e-07
-1.32065e-09
-3.78534e-07
1.03689e-09
-4.39597e-08
0.000301698
-4.12745e-08
-6.00632e-08
-2.21251e-08
-2.49197e-09
-2.7671e-05
-3.27224e-08
-4.53776e-08
-0.000177076
-4.07801e-08
0.000158816
-1.30982e-08
0.000230654
-5.5659e-08
-0.000331511
-3.69326e-08
-4.04345e-07
-2.78519e-08
-8.35276e-08
-9.68841e-07
-6.24129e-07
2.90109e-06
1.42164e-05
-1.28304e-06
-0.000745938
3.13862e-08
-5.34279e-07
4.64595e-07
-0.00251878
2.72816e-08
-2.74298e-08
-2.09755e-08
-1.42257e-07
-1.52107e-07
-0.00101008
-1.44515e-07
0.00102986
-0.00152127
1.6212e-07
2.56706e-09
-0.00231384
5.48036e-08
1.87488e-09
4.24079e-10
-1.14565e-08
0.000469688
-1.79412e-08
-1.08826e-05
-3.90574e-08
-3.10244e-08
0.000206984
-2.75478e-08
-1.52828e-08
-2.22924e-08
2.67184e-05
-2.42821e-08
-7.75075e-09
-3.34757e-08
-6.55355e-08
-5.87339e-08
1.2364e-09
-5.25816e-07
-8.66801e-07
4.53278e-07
3.77916e-05
8.39001e-05
-3.57989e-05
0.000146926
-3.75285e-08
-2.23987e-08
-6.54679e-08
-2.11598e-08
2.04735e-07
0.000719484
-0.00011482
-4.75068e-08
-8.34443e-09
0.000107518
-0.00944623
-4.38165e-08
-2.18132e-08
9.44739e-09
-0.000168068
0.000454179
-5.85327e-08
-4.13675e-08
-7.46754e-09
-4.44023e-05
-8.80963e-07
-2.11365e-07
-1.74532e-07
3.7509e-07
1.11748e-09
-4.50029e-08
5.72891e-05
1.04145e-08
-4.46936e-08
-5.93629e-08
0.000617084
-2.57575e-08
6.59931e-05
-9.5643e-09
-0.000121854
-3.81677e-08
2.47013e-07
-4.02586e-08
-2.85865e-08
-3.70484e-06
-0.000707931
4.67034e-07
6.03477e-05
-0.000149406
1.0736e-08
-0.000142153
-3.66057e-07
-6.57547e-08
-0.000867099
0.00151415
-3.87323e-07
-1.16228e-09
6.22426e-05
5.44183e-05
-2.86778e-08
-8.7162e-08
-3.64219e-05
5.85403e-09
3.2665e-09
-4.33534e-08
-5.04857e-08
-2.30272e-08
-2.57286e-08
-1.55433e-05
-2.129e-08
1.90883e-08
-6.17202e-08
7.40105e-09
0.00121914
-3.21518e-08
-3.14902e-08
5.9314e-08
-3.78007e-08
-9.07074e-08
-1.71173e-08
-5.11361e-09
5.20958e-05
-2.29388e-08
0.000204342
-1.91589e-08
-0.000621541
0.000109678
-4.84195e-08
5.11354e-09
-2.43407e-11
4.71618e-06
-4.76908e-08
-5.76002e-08
9.04046e-10
-3.10891e-07
-0.00374431
-5.31729e-08
8.3577e-06
-4.18252e-07
0.000668965
1.43051e-09
-2.69588e-07
-3.54291e-08
-5.65392e-09
-4.23325e-05
-9.12236e-05
-5.44455e-07
-5.43922e-08
-2.51231e-07
-2.28848e-07
-4.80388e-05
-0.000155215
-4.90837e-05
-4.74929e-08
-5.09695e-08
6.47306e-05
-4.38832e-08
-4.50042e-08
-8.07561e-07
-7.10041e-07
-9.04514e-08
2.68622e-07
-1.89303e-07
-3.18783e-08
-5.80343e-08
-6.76392e-05
-4.29849e-08
-2.56003e-08
6.11731e-06
3.64562e-07
-4.01816e-08
6.00728e-05
-2.28663e-08
-7.21962e-09
-7.72437e-07
7.3513e-07
-0.000125502
-3.82053e-08
2.06914e-08
-1.88909e-08
6.6616e-06
-2.04584e-08
-5.19345e-06
-0.00108931
7.74045e-05
5.81539e-05
-8.70268e-05
1.93124e-07
0.00015124
1.09289e-06
-7.87278e-09
-9.11337e-08
4.2708e-07
-2.42128e-09
-2.19834e-07
-0.000125014
0.000151113
0.000160029
-6.15302e-07
6.04744e-09
-5.5054e-07
-2.57666e-08
-5.04172e-05
-4.55908e-08
-2.1446e-08
-5.2287e-08
-5.16459e-08
-1.29502e-08
-3.59765e-07
0.000171072
-4.32816e-08
-5.59682e-08
-4.66874e-08
-1.44982e-05
-5.28656e-08
0.000203717
-6.19924e-05
-1.40982e-06
-1.69165e-09
-1.11781e-08
-0.000186427
-8.07743e-06
-3.16969e-09
-8.67566e-07
-5.67785e-09
-2.22504e-07
1.47174e-07
-5.56898e-08
-1.72847e-07
-0.000219514
-3.0445e-08
-3.25077e-08
-6.41511e-06
6.16626e-05
-6.0627e-08
-9.47275e-08
-9.35503e-09
9.21743e-05
-2.60252e-08
-4.33304e-08
-5.54269e-08
-1.89248e-08
-1.92866e-05
-0.000167756
9.93301e-06
3.74919e-08
4.40005e-05
0.00145619
-4.74193e-08
-5.15469e-08
-4.10532e-08
-1.56838e-06
-2.86807e-08
8.80468e-09
-2.94264e-08
-2.92996e-08
-4.22737e-08
1.94461e-05
-2.6626e-08
-1.04715e-06
-3.55533e-08
-3.13567e-07
-8.70556e-08
1.86531e-06
-1.41989e-08
-5.09537e-08
-6.84091e-08
-5.42793e-08
0.000169266
-2.76218e-08
-9.56571e-05
-1.27971e-07
-2.58534e-07
-6.71739e-08
-2.97969e-08
5.53807e-05
4.74046e-05
-2.81469e-08
-4.58274e-08
2.50546e-05
-7.47499e-06
-1.99006e-07
-0.000108533
6.72902e-09
-0.000196677
-5.22791e-08
-4.27513e-08
-0.000967983
-4.02124e-08
0.000371991
-1.86727e-08
-5.36346e-08
-7.46743e-09
-0.000160937
4.26716e-05
-4.42511e-08
-1.02537e-06
-8.43693e-06
-2.42363e-08
-4.47947e-08
-5.68173e-08
9.65462e-07