/*--------------------------------*- C++ -*----------------------------------*\
| =========                 |                                                 |
| \\      /  F ield         | OpenFOAM: The Open Source CFD Toolbox           |
|  \\    /   O peration     | Version:  v2012                                 |
|   \\  /    A nd           | Website:  www.openfoam.com                      |
|    \\/     M anipulation  |                                                 |
\*---------------------------------------------------------------------------*/
FoamFile
{
    version     2.0;
    format      ascii;
    class       volVectorField;
    location    "850";
    object      ddt0(U);
}
// * * * * * * * * * * * * * * * * * * * * * * * * * * * * * * * * * * * * * //

dimensions      [0 1 -2 0 0 0 0];


internalField   nonuniform List<vector> 
13917
(
(-0.000654502 -0.000329095 -6.34475e-18)
(-0.00033533 -8.0868e-05 -7.43737e-19)
(-0.00243515 0.00490231 5.64832e-18)
(-0.000164833 0.000380701 2.93568e-18)
(-5.62922e-05 -0.000142691 -3.29369e-18)
(5.57746e-05 -0.00127761 1.56842e-16)
(-0.00254304 0.00440468 -1.36801e-18)
(-0.00168407 0.00466145 8.80265e-18)
(0.00514191 -0.00142746 1.52281e-17)
(-0.000662368 -0.000344508 5.33923e-18)
(0.000401089 0.00358588 9.25526e-18)
(0.000163304 0.00117804 8.93923e-18)
(-0.000162068 0.000387298 5.12279e-18)
(0.0039321 0.000539071 -9.42094e-18)
(-0.000344445 -0.00036362 -7.3874e-18)
(-0.000381826 -0.000295036 1.93871e-18)
(-0.000326247 -0.000125584 -5.1652e-19)
(-0.00131525 1.66776e-05 -1.29386e-17)
(0.000140444 0.00114181 -1.30706e-17)
(-0.000146482 -4.3259e-05 -1.03007e-18)
(-1.96096e-05 -4.47394e-05 -1.0182e-19)
(-0.00250691 0.00425264 -1.1131e-19)
(-0.000136575 -6.00875e-05 1.01121e-18)
(-0.00234191 0.00490315 -1.47725e-18)
(-0.000146327 -0.000144573 4.64911e-18)
(-0.00403169 0.00325608 -1.75569e-17)
(-6.96491e-05 -0.000778317 2.08433e-17)
(-0.000218748 -0.000858321 -3.02518e-17)
(-0.000652859 -0.0015083 1.71576e-18)
(-0.00060087 -0.000690736 1.32694e-17)
(-0.000681287 -0.00033192 -7.68473e-18)
(-0.000555674 -0.000234228 4.97407e-18)
(-0.000149959 -0.000675994 6.34148e-18)
(-3.58565e-06 -0.000483751 2.91498e-18)
(-9.24398e-05 -0.000160638 -3.32086e-19)
(0.00179054 0.00532967 -6.11561e-18)
(-0.00013482 -6.83255e-05 3.4655e-19)
(0.00465631 0.00170289 4.13057e-18)
(-0.000127223 0.000493248 -3.45612e-18)
(-0.00919485 0.000118739 3.27587e-18)
(-0.000395813 -4.68597e-06 -1.38411e-19)
(-1.00536e-05 -1.52665e-05 -6.88073e-18)
(-0.000348045 2.31569e-05 -2.13495e-18)
(-0.000308394 -0.00103465 2.75716e-18)
(-0.000358086 -9.63185e-06 2.47005e-18)
(-4.17448e-05 -0.000526905 3.93941e-18)
(-0.00130204 6.58707e-05 1.64807e-17)
(-0.00181155 0.00081969 4.51612e-18)
(-3.3843e-05 -0.00137849 -2.92048e-17)
(-0.000264618 -1.87513e-06 -2.16201e-20)
(-0.000614142 0.000262311 1.45343e-17)
(-4.12535e-05 -0.00039606 -1.83227e-18)
(-2.28487e-05 -0.00145614 -1.83106e-17)
(-7.16031e-06 -0.000492467 -1.20501e-17)
(-0.000331418 -0.000133039 -2.47599e-19)
(-0.000652044 -1.46241e-06 -7.99695e-18)
(0.000224394 0.00354223 -1.70006e-17)
(-0.000207223 -0.000263673 2.38266e-18)
(-0.000563955 -6.08224e-05 -9.34647e-19)
(-0.000351597 -9.21656e-06 -3.8345e-19)
(-0.000209643 0.00150104 1.16852e-17)
(-0.000341226 -7.6424e-05 1.99936e-19)
(0.00306905 0.000353114 1.51487e-18)
(-0.0001603 -4.11326e-05 1.25746e-18)
(-1.95929e-05 -0.00129027 -1.36402e-16)
(0.000919617 1.90802e-05 -4.00463e-17)
(1.21512e-05 -0.000123615 3.46103e-18)
(1.12853e-05 -0.000160324 1.17511e-17)
(-0.00354289 0.00239741 -4.46621e-17)
(-0.00060771 -0.000339986 -3.35593e-18)
(-5.13167e-05 -0.00012417 2.06206e-18)
(0.00532898 -0.00133866 -7.16644e-18)
(0.00396738 -0.000844723 1.80498e-18)
(-0.00012845 -0.000133332 -3.58687e-18)
(-6.07611e-06 -0.00138139 -8.23601e-17)
(0.000160746 0.000741986 1.57098e-17)
(0.00669374 -6.25907e-06 8.42728e-18)
(-0.000428373 1.15639e-05 -9.478e-18)
(-0.00499905 0.00158731 -8.8772e-18)
(-2.29029e-05 -8.93368e-05 -1.92787e-18)
(-6.40263e-05 -9.90506e-05 -3.03362e-18)
(1.34157e-05 -0.000135453 1.11992e-18)
(-3.67602e-05 -0.00128789 -2.42417e-17)
(0.00474519 0.00190503 -1.18329e-17)
(0.000391767 0.000969576 2.54819e-17)
(-0.000417464 1.3828e-05 -4.01631e-18)
(-9.60635e-05 -9.48051e-05 3.78993e-18)
(9.29985e-05 0.000208204 -7.51157e-17)
(-0.000586536 0.00025962 1.9492e-17)
(-0.000354041 2.75682e-05 4.4244e-19)
(0.00618577 -0.000437962 -2.21989e-17)
(-0.000579359 -0.00040733 -8.32764e-18)
(-0.000309862 -3.44847e-06 2.47225e-18)
(-0.000241517 -0.000325377 -2.8805e-18)
(0.00534371 -0.00203282 4.13161e-17)
(1.27568e-05 -0.00130403 -9.36135e-17)
(-0.00149974 0.00281028 -1.03678e-17)
(-0.00164293 0.000476344 -6.75967e-18)
(0.00133893 0.000369323 7.29663e-18)
(-0.000120177 -0.00110347 -2.92036e-17)
(-0.000337509 -1.158e-05 -8.31761e-20)
(-1.1023e-05 -0.00065358 -4.63356e-17)
(-0.000271077 -0.00102225 2.16746e-17)
(-0.000447248 9.23382e-05 3.57163e-18)
(-0.000293438 4.38563e-06 -2.82366e-19)
(0.00588721 -0.00219621 1.84663e-17)
(-0.000761935 -0.00134454 1.91217e-18)
(-0.00187326 0.000753362 7.56611e-18)
(-0.000334588 -0.000117489 -2.87629e-19)
(-0.000668892 -0.000344986 -1.38841e-17)
(-0.0032885 -3.94889e-05 5.21167e-17)
(-0.00916146 0.00010584 -8.10591e-19)
(0.000525804 0.00117312 -7.15541e-18)
(0.00558177 -0.00210924 -2.80382e-18)
(-3.47361e-05 -0.000420722 5.59364e-18)
(9.30362e-05 -0.00150743 -6.31115e-17)
(-0.000160068 -7.90611e-05 3.6049e-18)
(-5.75229e-05 -0.00140207 -7.21255e-18)
(-0.00443707 0.00113366 -1.23335e-17)
(-4.81597e-05 -0.000488009 -1.30638e-17)
(-9.73844e-06 -3.20702e-05 -3.3137e-18)
(-0.00348469 0.00221693 3.43462e-17)
(-0.00137003 0.00131294 6.14806e-18)
(-0.000206531 -0.000844353 4.253e-18)
(-0.000304312 -2.65334e-06 -8.10739e-19)
(-0.000236793 -0.000323327 -1.07545e-18)
(-0.0003501 -1.49188e-05 6.12341e-19)
(-0.000310552 -2.21498e-06 5.57557e-19)
(-0.000405282 4.50738e-06 9.25566e-19)
(-2.08415e-05 -0.00129442 1.04286e-16)
(-0.00186238 0.00242926 3.55748e-18)
(-2.9571e-05 -0.000422612 1.30129e-17)
(-0.000358855 -1.0451e-05 -9.14854e-19)
(-1.34751e-05 -3.60203e-05 1.00116e-18)
(0.00245124 -0.0042092 -2.85933e-17)
(-0.00265167 0.00507922 8.78097e-18)
(-0.000651969 -0.000333666 1.1413e-17)
(-0.000116736 -0.00108646 -1.37923e-17)
(1.05135e-05 -0.000119106 -3.2641e-18)
(-3.2936e-05 -0.000486355 1.97052e-17)
(0.00234021 0.00495543 1.17668e-17)
(-0.000305009 8.6526e-06 6.3509e-20)
(-9.25621e-05 -0.000391438 -8.40033e-18)
(-0.000250602 -0.00110079 1.63569e-17)
(6.41192e-06 -0.00017064 -1.527e-17)
(0.00602188 -0.000831323 8.00984e-18)
(-0.00078192 -0.00147879 -2.73666e-18)
(-4.51769e-05 -0.000397151 -2.23777e-18)
(-0.000280333 7.89943e-06 -1.25661e-18)
(-0.000552211 -0.000258745 2.01738e-18)
(-0.000975796 0.00123129 1.87387e-17)
(3.81878e-05 -0.00150654 5.9268e-17)
(-0.000244678 0.00211308 -1.27046e-17)
(-0.000610367 -0.000454045 -9.55638e-19)
(-0.000605777 -0.000154953 1.61749e-18)
(0.000662971 0.000260853 -1.00637e-16)
(-0.000594824 -0.000339812 4.85009e-19)
(-0.0014655 0.00658563 -1.59082e-17)
(0.00675396 6.29451e-05 2.98517e-19)
(0.00211179 -0.00322039 -6.35888e-18)
(-0.000154621 -0.000417824 8.32111e-19)
(4.99988e-05 -0.000755165 -1.04972e-17)
(-2.20652e-05 -7.67145e-05 1.31172e-18)
(-0.00134793 0.00272764 9.88246e-18)
(0.000474879 0.00122507 1.16375e-18)
(0.00130379 0.000489558 2.85974e-18)
(-0.000441438 8.11167e-05 -2.34062e-18)
(-0.00135534 0.000980126 -8.87203e-18)
(-0.000327438 -5.64375e-07 2.1369e-19)
(-5.43715e-06 -0.000651817 1.07787e-16)
(-0.000631633 -0.000419767 6.38073e-18)
(-0.00362252 0.000437935 9.35992e-18)
(0.000630913 0.000926512 -6.14631e-18)
(-0.000346555 -0.000157611 7.59021e-19)
(0.00440698 0.00151897 8.62907e-18)
(-0.000645564 -0.000500368 1.4813e-19)
(-0.0018227 0.0026274 4.68686e-18)
(-3.10739e-05 -0.00141328 -3.69492e-17)
(0.00592818 -0.000468815 -2.25329e-18)
(-0.000282426 -0.00010886 -6.51533e-19)
(-0.000559967 -0.000436216 -7.58518e-18)
(-0.000689423 -0.000340684 -1.55697e-18)
(-0.000300365 7.28813e-06 -1.81588e-18)
(-9.89726e-05 -9.83389e-05 -2.07491e-18)
(-0.000340112 -0.000479939 4.87345e-18)
(-0.00416216 0.00338647 -1.52415e-17)
(5.48295e-05 -0.000202455 -1.91896e-17)
(0.000676544 0.000282191 6.22949e-17)
(-0.000894994 -6.96718e-05 -1.31559e-17)
(0.00126744 0.00148821 1.88134e-17)
(-0.000468119 0.00592948 4.99076e-18)
(0.000450316 0.000987648 -6.2536e-17)
(-0.000314493 0.000132323 -3.51511e-17)
(-0.000121221 -8.7448e-05 -5.76193e-18)
(-4.58741e-05 -0.00115587 -6.01068e-17)
(-7.82745e-05 -0.000753562 -1.19616e-17)
(-0.000438871 -1.6227e-07 9.97647e-19)
(-0.000318444 -7.23315e-06 -6.02494e-19)
(-0.00082673 -0.00116758 1.40368e-19)
(0.000992578 0.00253041 -6.75965e-17)
(-0.000407654 0.000471849 2.5854e-18)
(-0.00026243 -1.61154e-06 -3.19194e-19)
(-0.00116041 0.00100662 -1.98867e-17)
(-0.000905379 0.00122011 -1.63259e-17)
(0.00417509 -0.000589233 2.58833e-17)
(-0.00292261 -0.00315349 -1.53857e-18)
(-8.83431e-05 -0.000149729 4.77912e-18)
(-0.000208434 -0.000267672 -3.56979e-20)
(-0.00159278 0.000554625 7.01843e-18)
(-0.00373435 0.00450655 -3.75623e-18)
(-0.00010625 -0.000393293 5.58225e-18)
(-0.00209697 0.00448785 -8.34818e-18)
(0.00429324 -0.000275757 -2.99507e-18)
(0.00121862 0.00157973 -7.31018e-18)
(-0.000280774 5.31801e-07 5.2259e-19)
(-0.000264321 -0.00135475 7.28195e-17)
(-0.00139188 0.000610252 1.51948e-17)
(-0.00289491 -2.00598e-05 -4.40316e-17)
(-0.000194608 -0.000144217 -2.03293e-19)
(-0.000378533 0.00138838 -2.84814e-17)
(-0.000273399 -0.000111894 2.61276e-19)
(-0.000841819 -0.000775504 -7.67165e-18)
(-0.000388888 -5.75003e-06 1.26633e-19)
(0.00590497 0.00115528 -8.01909e-18)
(0.0059058 -0.00252962 -1.61361e-18)
(-0.000395021 -0.000298746 1.44152e-18)
(-0.00220587 0.00014729 -3.19315e-17)
(-0.000619941 -0.000151134 -3.0406e-20)
(-0.00027605 -4.63379e-06 -1.81855e-19)
(0.00286103 0.00502417 -6.67763e-18)
(0.000543168 0.000878144 1.84355e-17)
(-0.000892183 -4.11641e-05 -1.77302e-17)
(-0.00326008 0.00517815 2.48099e-18)
(0.00419017 -0.000209771 1.56953e-17)
(-0.000387871 2.40064e-06 -2.74051e-19)
(-0.000569145 -0.000239755 -7.8248e-19)
(0.00596725 -0.000598249 -2.11766e-18)
(0.000709146 0.0005498 -1.31937e-17)
(-5.69231e-05 -8.66341e-05 1.1194e-18)
(-0.000231607 -5.35248e-05 3.64074e-19)
(-0.00844021 -0.00018087 1.7338e-17)
(-0.00192225 0.00295298 3.08624e-17)
(-2.41399e-05 -2.90582e-06 2.32704e-20)
(0.00390701 0.00333997 -2.45146e-17)
(-0.0019247 -0.000537509 -3.78384e-18)
(5.54186e-05 -0.000759239 -5.79841e-18)
(-0.00065121 -0.000302006 1.56036e-18)
(-4.44865e-05 -8.19617e-05 1.2217e-19)
(-0.000596959 -0.000571399 -3.42958e-18)
(0.00540029 -0.000105348 -2.30723e-17)
(-0.00026136 0.000170506 -7.85511e-19)
(-0.000474543 -0.00034841 6.36731e-18)
(-0.00016247 -0.00118217 -3.82209e-17)
(-0.00034434 -1.28747e-05 -6.8524e-19)
(-0.000198134 -0.000264704 -1.59172e-18)
(-0.000277099 0.00167507 -7.02253e-18)
(-0.00852822 -0.00020337 -1.26591e-18)
(-0.000250944 0.00202088 -3.00158e-17)
(-0.000357986 -0.000484879 1.18039e-19)
(-0.000359292 -0.000358952 -1.70011e-18)
(-1.8875e-05 -5.05005e-06 -2.0225e-20)
(-0.00168361 0.000997336 2.77207e-18)
(0.00765737 -0.00288477 -5.53323e-17)
(0.00550154 0.0012448 -2.46679e-17)
(-0.000297309 -9.72476e-06 1.06753e-19)
(0.000917043 -0.000878241 6.89298e-17)
(0.00444115 0.000916776 -1.52866e-17)
(-0.00115741 0.00642015 8.9201e-18)
(-0.00527276 0.00140323 8.12273e-18)
(0.000201007 0.000685009 2.7085e-18)
(-4.80958e-05 -9.72277e-05 3.90838e-18)
(-0.000336256 -4.68905e-06 1.55034e-19)
(-0.00133985 0.000165642 1.31748e-17)
(0.00686028 0.000617536 -4.15421e-17)
(-0.00290308 0.000662536 -4.12424e-18)
(-0.000552339 -5.11401e-05 3.41857e-18)
(0.000504263 -0.00321266 -3.37113e-18)
(-5.97461e-06 0.000934326 -1.21937e-18)
(-0.000431553 3.95806e-06 4.17038e-19)
(0.00462984 -0.000886765 -3.07641e-17)
(-0.000159681 -2.87854e-05 6.03417e-19)
(0.00420863 0.00168378 -2.98162e-17)
(-0.000391021 0.000455319 -7.36103e-18)
(-4.93844e-05 -3.04278e-06 -7.30793e-20)
(-0.000437301 -0.00033472 -3.5324e-18)
(-0.000612741 -0.000460985 1.21362e-18)
(5.37943e-05 -0.00075572 -3.00607e-18)
(0.00410073 0.00360259 3.78622e-17)
(-0.000507783 -0.000425708 1.85432e-18)
(-0.000316853 0.00010287 6.27273e-18)
(-0.000572723 -0.00365831 4.27357e-17)
(-0.00323222 0.00517743 -1.58585e-17)
(0.00723449 -0.00276862 2.21271e-17)
(-0.000189859 -0.000137967 3.81728e-18)
(0.000488007 0.00543653 -2.15943e-17)
(3.11718e-06 -0.000181016 2.37632e-18)
(-0.00031131 0.000114142 -2.05606e-18)
(-0.000157215 -6.98967e-05 -2.24727e-18)
(-0.000858173 -0.00153741 2.7761e-18)
(-0.00020381 -7.37238e-06 -5.20706e-19)
(-0.00081133 -0.00082343 -3.79369e-18)
(-0.000640537 -0.000298262 -4.33555e-19)
(-0.000320947 -2.57485e-07 1.18538e-18)
(-0.00114943 0.00108935 2.40787e-17)
(-0.000426835 -0.000116797 7.57545e-19)
(-7.72647e-05 -0.00143689 6.54461e-17)
(-0.00062877 -0.000493523 -3.16962e-19)
(-0.000603294 -0.0004129 3.73836e-17)
(-0.000311493 5.72965e-06 -1.71113e-18)
(-0.000195629 -0.000257551 1.43599e-18)
(-0.00341279 0.00013764 -3.22164e-19)
(0.000109801 0.00116219 -4.28024e-18)
(-0.000163779 -8.73307e-05 -9.03631e-19)
(-0.000371115 -5.46513e-06 -6.72017e-20)
(0.00425839 -0.00133044 -1.7529e-17)
(-0.000288462 -6.53298e-05 1.6603e-19)
(0.00408823 -0.00100465 9.20167e-18)
(-0.000309592 5.75221e-06 3.19832e-18)
(0.00590311 0.00148778 1.51202e-17)
(-0.000203193 0.000279586 -2.9197e-18)
(-0.00130894 -0.000178543 -3.66098e-18)
(-0.000769073 0.000492879 5.33659e-18)
(-2.83208e-05 -0.00140647 1.87819e-17)
(-0.00015907 -0.000411271 -1.09321e-18)
(0.000195947 -0.00293905 8.6821e-18)
(-0.000249928 -0.00131528 3.26735e-17)
(-0.000436805 -0.000322418 7.3868e-19)
(-0.00205906 0.00282174 -9.21225e-18)
(-0.00109784 -0.00125625 -1.40397e-18)
(-0.000262747 -0.000243849 -8.22637e-20)
(0.00107601 0.00220583 -2.21326e-18)
(-2.0308e-06 -0.00110478 7.39974e-17)
(0.00487065 0.000975763 1.20666e-17)
(-7.29004e-05 -0.000458998 1.02102e-17)
(-0.00837795 0.000564175 1.57976e-18)
(-0.000586659 -0.000236141 2.22335e-18)
(-0.0015529 0.00133308 1.75519e-17)
(-0.000219608 -0.00129636 -5.86512e-17)
(-0.000776839 -0.000918168 8.44101e-18)
(-0.000786659 -0.000891081 1.63973e-19)
(-0.00181482 0.00475937 -2.16653e-17)
(-3.48646e-05 -0.000120726 1.67795e-18)
(-0.000646354 -0.000415526 -4.80353e-18)
(-0.00310356 -3.48761e-05 4.56034e-17)
(-0.000166634 -0.000324592 -9.85829e-18)
(-0.000355494 -0.00023151 -5.25735e-19)
(0.00404252 0.000781622 -1.65032e-18)
(-0.000818959 -0.00124935 3.63501e-18)
(-0.000354081 -0.000130289 1.64404e-19)
(-0.00044067 0.00559192 -1.78148e-18)
(-0.000597606 -0.00147562 -1.14016e-18)
(-0.000319289 -2.50688e-05 -2.57887e-20)
(-0.00435209 0.000880927 1.1631e-17)
(0.00122808 0.00535442 2.31813e-17)
(-0.000171263 -2.72034e-05 -1.49812e-19)
(-0.000252325 -8.2467e-05 1.84315e-19)
(2.84487e-05 -0.000168445 -2.04625e-18)
(-0.00028551 6.91781e-06 1.41219e-18)
(-0.00129062 -0.0030984 -4.67613e-17)
(0.00550276 0.000152482 1.14034e-17)
(0.000260062 -0.00133981 4.502e-17)
(-0.00323526 0.000130579 6.44002e-17)
(-0.000138979 -0.000107611 2.51333e-18)
(-0.000433832 -0.000337273 -8.11444e-17)
(0.000896126 0.000278082 -3.78017e-17)
(-0.00093778 0.000753369 1.98656e-17)
(-0.0020613 0.00435861 8.5094e-18)
(0.00671017 0.000718321 6.87112e-18)
(0.00553357 -0.00243748 -2.76563e-17)
(-0.000372317 6.85332e-06 6.46498e-20)
(0.00510796 0.00111596 2.91702e-17)
(-0.000280144 -6.67609e-05 9.26402e-21)
(-0.000439076 0.00136718 2.78277e-17)
(-0.000349867 -1.06063e-05 -2.60068e-18)
(-3.54742e-05 -0.00149365 4.54644e-17)
(-0.00187663 -0.000629963 -2.76678e-18)
(-0.000248929 0.000456459 -1.92599e-18)
(-4.84553e-05 -0.00013898 1.95473e-18)
(-0.00152203 0.000554562 -4.27564e-17)
(-0.000531306 -0.000432939 2.40737e-18)
(-0.00176556 -3.43698e-05 -6.019e-18)
(-0.000377133 -0.00231005 3.51595e-17)
(-0.00189505 0.00119376 -4.92405e-17)
(-0.00302356 -7.96711e-06 7.30413e-17)
(-0.000622977 -0.000574327 1.8395e-19)
(-0.000665247 -0.00034992 1.18405e-17)
(-0.000227724 -4.75396e-05 -3.32059e-19)
(0.000752235 0.000573331 -4.28632e-18)
(-0.00305594 0.00392283 1.57317e-18)
(-0.000235446 -0.000235363 8.46357e-19)
(-0.00145341 -0.00202945 -7.36857e-17)
(-9.56643e-05 -9.35192e-05 -3.49619e-18)
(-0.00276315 -0.00218825 -1.49352e-17)
(-0.000210453 0.000279662 -5.7083e-18)
(-3.19413e-05 -0.000107326 2.70184e-18)
(-0.000413045 -0.000129651 2.27318e-18)
(-0.00499005 -0.000797938 6.99417e-18)
(-0.000405691 -0.000130411 -5.90896e-19)
(-0.00834023 -0.000303176 -1.12925e-18)
(0.000794934 -0.000180592 5.05016e-17)
(0.00090862 0.00285182 -1.25673e-17)
(-0.000195965 -0.00134967 1.33978e-16)
(-0.000262044 -0.000234054 -4.59427e-18)
(-0.0002031 -0.00138869 -4.94555e-17)
(-0.000192667 -0.00136344 -3.25821e-17)
(-0.000162445 -3.86882e-05 -4.59201e-19)
(-0.000758057 -0.00127949 -6.70106e-18)
(-0.000177855 -0.000324937 4.34041e-18)
(-0.000103016 -0.000124293 -3.0898e-18)
(-0.000583562 -0.000641914 5.37842e-18)
(-3.85255e-05 -7.89639e-06 -2.33502e-19)
(-0.000115432 -0.000153473 3.52624e-18)
(-0.0002607 -6.2726e-05 -3.9881e-20)
(-0.000784093 -0.00232833 -1.84835e-17)
(-2.08105e-05 -7.20612e-05 -2.52995e-19)
(-0.00808693 0.000698861 1.52776e-19)
(-0.00362732 -0.000230571 -5.87003e-18)
(0.000583767 7.9137e-05 -3.48991e-17)
(-0.000391839 0.000122662 -3.96994e-17)
(-0.00802194 0.000576008 -9.36166e-18)
(-0.0016683 -0.000213129 1.02342e-17)
(-0.000887635 0.000765413 -1.80189e-17)
(-0.000141667 -9.52665e-05 9.80267e-19)
(-0.00192399 -0.00160831 -2.7971e-18)
(-0.000137148 0.000480899 7.21329e-18)
(-0.000584028 -0.000258386 1.42093e-17)
(-0.00012374 -7.82107e-05 -5.27353e-18)
(0.00568822 -0.000268673 -1.10448e-17)
(-0.00319891 0.00433068 -6.25456e-18)
(-0.00287158 -0.00040397 7.56035e-18)
(-0.000350844 -0.000315895 -3.71158e-18)
(-0.00223254 -0.000518569 -5.95296e-18)
(-5.87267e-05 -0.000450671 2.72456e-17)
(-0.000123201 0.000512442 -7.71537e-18)
(-0.00176552 4.45588e-05 -5.4237e-18)
(-0.000377748 -0.000152505 1.8702e-20)
(0.00510823 0.000393721 -2.99444e-17)
(-0.000340537 -0.000108524 -2.28138e-19)
(-0.000190288 -8.56871e-06 7.81105e-19)
(0.00386663 -0.00127648 1.82789e-17)
(-0.00241979 0.00250751 8.73203e-18)
(-0.00236068 0.00269233 -1.11975e-17)
(-0.000744824 -0.000175619 1.57381e-17)
(0.000627038 0.000122549 1.19236e-17)
(0.0012916 0.00252306 2.09111e-18)
(-0.00171423 -0.00120579 -1.63331e-17)
(0.00696489 0.000348788 2.12097e-17)
(-0.000411361 2.75693e-06 1.64436e-19)
(-0.00147325 0.000333581 1.0633e-17)
(-0.000381151 -0.000153871 1.04653e-19)
(-0.000199327 -0.000282439 -2.2106e-18)
(-0.00493572 -0.00327853 2.85329e-17)
(-0.00135623 0.000113178 -7.20615e-18)
(-0.000436029 7.59318e-06 -1.30257e-18)
(-0.00110778 -0.000444353 -5.01141e-18)
(-0.000915432 0.000625962 -3.25397e-18)
(0.00680248 0.000356049 1.66992e-18)
(-0.000162577 -3.88636e-05 6.95833e-19)
(-0.00244665 0.00184339 -1.19428e-17)
(0.000682102 0.000482714 -3.30471e-17)
(-0.001467 -8.75493e-05 -8.5231e-18)
(-0.00705978 0.00100897 1.24007e-17)
(-2.11544e-05 -6.4552e-05 -2.14347e-18)
(-0.000232778 -0.000246233 8.98638e-18)
(-0.000459695 5.93503e-07 9.43407e-19)
(-0.000592027 -0.000347911 -2.63258e-19)
(-0.00035919 7.77154e-06 -4.82166e-19)
(-0.00447585 0.00285152 5.93109e-18)
(0.000218938 -0.00132156 -1.48731e-17)
(-0.000499453 -0.000403487 -7.81453e-19)
(0.000703657 0.000465305 2.7485e-17)
(-0.000644474 1.82258e-05 1.69851e-17)
(-0.00118835 0.00284074 -2.6248e-18)
(-0.00151068 -0.00137748 5.16529e-17)
(-0.000793407 -0.00146373 6.97333e-18)
(0.000924849 0.00269018 7.55738e-19)
(0.00248273 0.00569935 -1.13079e-17)
(-0.00244266 0.00198172 1.12488e-17)
(-0.000927629 -0.000464185 1.42054e-17)
(-0.00265842 -0.0012235 -2.18213e-17)
(-0.000335438 0.00105029 6.49155e-18)
(0.0017836 0.00221719 1.09188e-19)
(-4.37053e-05 -0.00128045 4.50312e-17)
(-0.000120771 0.00108533 7.687e-18)
(-0.00194593 0.00114074 -8.45042e-18)
(-0.000462924 1.51005e-06 6.47253e-19)
(-0.000576076 -0.00376264 6.62547e-17)
(-0.000644091 0.000232811 5.28296e-18)
(-0.000273716 9.5994e-05 1.30863e-18)
(-0.000579192 -0.000345083 2.11399e-18)
(-0.000439866 3.07517e-05 -7.41934e-18)
(0.0069178 0.000414787 4.62196e-18)
(0.00561742 -0.00201529 -8.12916e-18)
(-0.000288248 -7.0494e-05 -2.03232e-19)
(-0.000452479 3.45037e-06 -5.20538e-19)
(-0.00459985 0.00423301 -9.1111e-19)
(-0.00176923 -0.000184802 1.03007e-17)
(-4.52957e-05 -5.94867e-06 2.42582e-19)
(-0.00741396 0.0007861 1.07359e-17)
(-0.000331511 0.000248099 -2.81914e-18)
(-0.000305736 -7.39625e-05 2.49362e-17)
(-0.000282124 -8.5439e-05 -2.81768e-19)
(0.0027692 -0.000706409 1.49886e-17)
(-0.000873408 0.00186118 -3.15075e-17)
(-0.00055702 -0.000254314 -5.48273e-18)
(-0.000381225 -4.24183e-05 1.27192e-18)
(-0.00757107 0.000681767 5.59684e-18)
(-2.98051e-05 -0.000251513 7.86504e-18)
(0.000803254 0.000337796 -4.79059e-17)
(-1.86133e-05 -6.93857e-06 6.51046e-19)
(0.00473175 -0.00024735 5.59972e-17)
(-5.25263e-07 -0.00145196 -5.56633e-17)
(0.00383087 -0.000955581 -2.85528e-17)
(-0.000273742 8.97179e-05 -3.28975e-18)
(0.000372442 0.000922665 -1.77891e-17)
(0.00392412 -0.00248309 -2.22099e-17)
(-0.000856543 0.000831021 2.6369e-17)
(-0.000250041 -7.80861e-05 1.57011e-19)
(-0.000308482 -0.000160179 3.4845e-18)
(2.22414e-05 0.000695927 9.7919e-18)
(-0.00430541 -0.00261797 5.32339e-17)
(-0.000466997 9.8191e-06 1.4265e-18)
(-0.000246416 -8.07832e-05 -6.99451e-20)
(-0.000272526 -9.94874e-06 -9.85171e-20)
(-0.000281658 -1.15432e-05 1.28092e-19)
(0.00120639 -0.000672378 8.74801e-18)
(-0.00478749 -0.00335178 2.17887e-17)
(-0.000864171 0.000800333 -2.62463e-17)
(4.53341e-05 -0.000358533 5.63116e-17)
(-0.000330694 -4.17341e-06 -1.70703e-20)
(-0.000328552 -1.4232e-05 1.95587e-19)
(-0.00225182 -0.000399107 2.71715e-17)
(0.00268435 -0.00289117 1.78279e-17)
(-0.000801798 -0.000127056 5.258e-18)
(-0.000339664 -2.09273e-06 -4.90184e-19)
(-0.000113621 -0.00012622 1.06618e-19)
(2.64161e-06 -0.00010704 -1.37314e-17)
(0.00371177 -0.00119567 1.83944e-17)
(0.000402628 0.00111726 6.15932e-17)
(-9.00979e-05 -8.2489e-05 4.39222e-18)
(-2.89663e-05 -0.000106401 -6.09716e-19)
(0.00512296 0.000667339 2.7622e-17)
(-0.000375315 0.00102639 -1.43395e-17)
(-0.00075168 0.000515349 6.98805e-18)
(-0.000221311 -0.000252477 -2.06304e-18)
(-0.000414244 -0.000145639 -1.57548e-18)
(-0.000515173 -0.000246192 1.27836e-18)
(-0.00186416 0.00119874 1.75405e-17)
(-0.00104287 -0.00119691 -1.5262e-18)
(6.874e-05 -0.000259626 1.62876e-18)
(-0.00207343 -0.00167807 -5.40459e-18)
(-0.00247107 0.000354685 7.82154e-18)
(-0.00158143 -0.00310824 -2.51526e-17)
(-0.000614477 -0.000434643 -1.2062e-17)
(-0.00017859 -0.00013011 -1.50739e-18)
(0.00514557 -0.000213754 6.14628e-17)
(1.20018e-05 -0.000105575 1.0709e-17)
(-0.000361609 -0.000235197 -7.18349e-19)
(-0.000338967 0.000384337 6.78975e-18)
(-0.00136922 -0.00434359 -1.90381e-17)
(-0.000785184 -0.000690277 -5.3972e-19)
(-0.00039511 -3.40473e-06 2.90518e-19)
(-0.00141014 -3.79191e-05 4.54537e-17)
(-0.00056891 -0.000808235 1.05788e-17)
(0.000856809 0.000728132 4.21132e-17)
(-0.00243706 0.000252146 3.77403e-18)
(-0.000332288 -0.000632131 7.65004e-18)
(-0.000965546 0.000651272 -8.36321e-18)
(-4.80375e-05 -0.000145693 5.63948e-19)
(0.00649645 -0.00274045 -1.05657e-17)
(-0.00133186 -7.66788e-05 1.05363e-17)
(0.00103095 0.00382654 -1.24706e-18)
(-0.000334272 -0.000104911 1.86825e-20)
(-0.000725993 -2.61714e-05 4.78034e-18)
(0.000131614 -0.000365539 -3.27379e-17)
(0.00673746 0.000651025 2.82347e-17)
(0.00059286 0.000152291 4.42362e-17)
(-0.00172711 0.000455364 -1.78417e-17)
(-0.000748109 -0.000135927 1.19046e-17)
(-0.000365516 -0.000302171 -6.55073e-18)
(-0.000503468 -0.000118801 2.10347e-18)
(-0.0002193 -0.000259282 -5.36875e-18)
(-0.000513624 -0.000768043 -5.61373e-19)
(-0.000242968 -0.00106514 2.44966e-18)
(1.56513e-05 -0.000356166 6.12654e-18)
(-0.00134074 0.000664448 -1.15625e-17)
(-0.00012241 -0.0011469 -1.5047e-18)
(0.00107633 0.0038693 -3.08369e-18)
(0.000769175 0.000335109 -1.38293e-17)
(-0.000444728 -0.000179268 -2.58302e-19)
(-0.00105138 0.00276835 3.47571e-18)
(-0.00370839 0.00214521 2.88737e-17)
(-0.000461353 -0.000345268 -5.81385e-19)
(-0.000109263 -0.000381067 4.5285e-18)
(-8.05887e-05 -0.00157409 4.98429e-18)
(0.00810862 -0.00284159 -4.00047e-17)
(0.00474631 0.000327673 4.78681e-18)
(0.000237898 -0.000585528 2.14466e-17)
(-0.000399741 4.07789e-06 2.10329e-19)
(-0.00388561 0.00104984 1.04662e-17)
(9.01139e-05 0.000747955 -1.97153e-17)
(-0.000432296 -2.90167e-06 6.1701e-19)
(-0.000681472 -0.00021577 -5.45656e-18)
(-0.00123151 0.00173934 2.13079e-18)
(-0.000156038 -0.000653463 -8.38582e-18)
(-0.000649225 -0.000698294 -8.96121e-18)
(-0.00492142 0.00191296 2.33598e-18)
(-0.00268582 -0.0010706 2.9555e-17)
(-0.00034475 0.000937429 1.87848e-17)
(0.00654833 -0.00287457 1.65127e-17)
(-0.000461454 -3.29293e-06 7.88855e-19)
(0.00701369 0.000337035 -2.25476e-18)
(-3.96313e-05 -8.0979e-05 -2.15924e-18)
(-9.20567e-05 -8.33367e-05 -3.89475e-18)
(0.000296225 0.00544066 1.67831e-17)
(0.00786576 -0.0028332 7.66976e-17)
(-0.000101708 -0.00135971 7.58947e-18)
(-0.000460617 7.2197e-06 -1.47684e-18)
(-0.000346144 -0.000148174 1.0224e-18)
(-3.29048e-05 -0.000104901 1.38607e-18)
(-1.92637e-05 0.000946308 6.39599e-18)
(-4.29217e-05 -0.00141522 -3.8245e-17)
(0.00113518 0.000520329 -1.61099e-17)
(-0.00051498 -0.000121183 3.97438e-19)
(0.000773864 0.00257287 -4.15284e-18)
(-0.00146811 0.000616334 1.17651e-17)
(-0.0002827 -8.71337e-05 7.2906e-19)
(-0.00209353 -0.000839527 2.4857e-17)
(0.000992259 0.000438926 1.92582e-18)
(0.00389242 -0.00171953 2.21429e-18)
(-0.000209516 -0.000159792 -1.53004e-19)
(-0.0028462 -0.000820405 -1.05881e-17)
(-0.000440589 1.63218e-05 6.71091e-18)
(0.000815101 -0.000185047 3.29467e-18)
(-0.000656053 -0.00035087 -4.61419e-17)
(-0.000786634 -0.000659452 -1.82996e-18)
(-0.000735948 -4.27727e-05 -2.77663e-18)
(-0.000343018 -1.7485e-05 -6.56323e-20)
(-0.000298034 4.15568e-05 -3.38629e-19)
(-0.000354479 -1.73973e-05 9.81231e-19)
(-0.000853013 -0.000854186 -7.09592e-19)
(-6.04033e-05 -0.000532906 -1.26563e-17)
(-0.000254578 -0.00182119 7.97202e-17)
(-0.000293288 -0.00189266 -6.70404e-19)
(-0.00136031 0.000897349 -2.91953e-19)
(-0.000316124 -2.80868e-05 6.46462e-20)
(-0.00233527 -0.00125075 -2.13735e-17)
(-0.000133267 -0.00139964 -3.84992e-17)
(0.000357348 0.00621596 -8.37824e-18)
(-0.000268905 0.00015917 1.85204e-18)
(-9.35166e-05 -0.000505657 -2.21532e-18)
(-0.000238533 -8.29816e-05 3.35041e-19)
(-0.000237982 0.000671102 1.57199e-17)
(-0.000576339 -5.52729e-05 -6.52165e-18)
(0.00353731 -0.00260522 2.35053e-17)
(-3.60236e-05 -0.000101099 -4.0427e-18)
(-0.00495871 -0.000668359 -2.51432e-17)
(-0.000291324 0.000647048 -3.55382e-18)
(0.000593417 0.00349414 -2.64405e-18)
(-0.000591747 -0.000357296 4.32438e-17)
(0.00322169 -0.000932991 -3.13367e-17)
(-0.000819424 -0.000615117 -1.28693e-18)
(-0.000305948 -0.000161591 -2.38309e-18)
(0.00697193 0.000405402 -2.3295e-17)
(0.000883211 3.9916e-08 -4.34259e-17)
(-0.000270795 -0.00017611 -6.58746e-19)
(-0.000322014 0.000386171 -1.10416e-18)
(-0.000864321 0.00117384 -1.68352e-17)
(9.14271e-05 -0.000589867 5.13055e-17)
(-0.00279963 0.000789179 1.77274e-17)
(-6.76258e-05 -9.08004e-06 -8.75859e-19)
(-0.000387045 -4.44425e-05 -6.60959e-18)
(-0.00124268 -0.000181629 5.94621e-17)
(-0.000242826 0.000470762 6.1176e-18)
(-0.00169343 -9.30047e-05 2.75227e-17)
(-0.000317826 0.00159579 7.78716e-18)
(-0.000298645 4.76129e-05 -1.35954e-18)
(-0.000799777 0.0012791 1.6306e-18)
(-0.00241795 0.00490734 -1.01632e-17)
(-0.000255024 0.000175569 -5.76395e-20)
(-0.000198036 0.000339843 6.80833e-18)
(-0.000256115 -8.39078e-06 -4.3205e-20)
(-0.000269258 0.00106014 -1.39935e-17)
(-9.77163e-06 -4.7791e-05 3.05755e-18)
(-0.000343711 -0.000309327 2.26356e-18)
(-0.00354858 0.000467925 -4.9694e-17)
(-0.000332602 -0.000246109 -1.28837e-21)
(0.00805238 -0.00264581 1.25558e-17)
(-0.000601751 -0.000165875 4.88784e-19)
(-0.00016758 -0.000673421 -1.40557e-17)
(-0.000257585 -9.53704e-06 2.46442e-19)
(-0.000676047 -0.000513203 5.10106e-18)
(-0.000150075 -6.28517e-05 8.60832e-19)
(-0.000863317 -0.000456554 -9.69395e-18)
(-0.000345228 -1.01192e-05 1.79678e-20)
(-0.000865644 -0.000461709 5.48833e-18)
(-0.000335117 0.000237779 -1.35226e-18)
(0.00209806 0.000991874 1.27996e-17)
(-0.000292301 -0.00169434 -4.35428e-17)
(0.00259554 -0.00285908 -1.11688e-17)
(-0.000453311 6.37674e-07 -1.36136e-18)
(-4.16919e-05 -0.000132812 -7.16864e-19)
(-0.000637613 -0.000434188 -8.24559e-18)
(-0.000691725 -0.000355739 1.06385e-17)
(0.00336595 0.00101866 -1.47111e-18)
(0.00434858 -0.00264429 -1.27296e-17)
(-0.00128686 -3.47002e-05 6.4157e-18)
(-0.000105379 -0.00013239 -1.53647e-18)
(-0.000884204 -0.00250458 -1.93002e-17)
(-9.22201e-05 -0.00137523 1.34331e-17)
(0.00414919 -0.00132237 -4.1595e-18)
(-0.000330819 -0.00182892 -6.03983e-17)
(-0.00129988 0.000284578 -4.03163e-18)
(-0.00492693 0.000750111 -6.93751e-18)
(-0.00064695 -0.000335368 8.0294e-18)
(-1.0047e-05 0.000918658 2.11614e-18)
(-0.00156314 -0.00138975 -2.36291e-17)
(-0.000762114 -0.00114374 -8.45764e-18)
(-0.00124289 -4.53452e-05 -6.36452e-18)
(-0.000173328 -0.00136987 1.08904e-16)
(-0.00118284 -0.000125788 1.29276e-17)
(-0.000240619 0.000377506 1.74474e-18)
(-0.0012956 0.0018212 -1.53023e-17)
(-0.00044888 -0.000318122 4.54026e-19)
(-0.000273469 0.000100965 -3.12049e-18)
(-0.000251414 0.000658161 -1.4787e-17)
(-0.000672686 -0.000343261 1.86091e-17)
(-0.000537445 -0.000252845 -9.63496e-19)
(-0.000140716 -6.9217e-05 -4.29295e-18)
(-0.000331399 -3.41736e-06 1.06404e-19)
(-0.00142885 0.000768125 8.75226e-18)
(-0.000404969 0.000205642 -8.98758e-19)
(-0.00171361 -0.000161377 -1.48648e-17)
(-9.1719e-05 -0.000120626 -6.49503e-19)
(-8.70926e-05 -8.93992e-05 -2.12358e-18)
(-1.13612e-05 -3.89174e-05 -4.96701e-18)
(-0.000398099 -0.00014845 5.88509e-19)
(-0.000311494 6.83532e-05 1.15654e-18)
(-0.000514254 -0.00021022 4.39149e-19)
(-0.000250502 -6.83279e-06 1.37061e-19)
(0.00253606 -0.000648976 8.22672e-18)
(0.000148045 0.00105839 -1.98249e-18)
(0.0002589 -0.00130572 1.78979e-17)
(-0.000360089 5.28673e-07 7.94567e-20)
(-3.6456e-05 -4.95703e-05 2.22841e-18)
(-0.000282895 -0.000817474 -1.55808e-17)
(-0.000953589 -0.000485664 2.94192e-18)