/*--------------------------------*- C++ -*----------------------------------*\
| =========                 |                                                 |
| \\      /  F ield         | OpenFOAM: The Open Source CFD Toolbox           |
|  \\    /   O peration     | Version:  v2012                                 |
|   \\  /    A nd           | Website:  www.openfoam.com                      |
|    \\/     M anipulation  |                                                 |
\*---------------------------------------------------------------------------*/
FoamFile
{
    version     2.0;
    format      ascii;
    class       surfaceScalarField;
    location    "850";
    object      meshPhi;
}
// * * * * * * * * * * * * * * * * * * * * * * * * * * * * * * * * * * * * * //

dimensions      [0 3 -1 0 0 0 0];
oriented        oriented;


internalField   nonuniform List<scalar> 
20673
(
-0.000306355
-0.000193337
0.000499469
0.000332407
0.000411268
-0.000747066
-0.000248331
7.80951e-05
0.000170234
-0.000767223
-6.96693e-05
0.000834643
0.000916614
-0.000945013
2.40391e-05
0.000211881
-0.000219247
7.36588e-06
-0.000172665
-6.41769e-05
0.000236841
0.000208783
-0.000167773
-4.10113e-05
0.000199358
-3.57637e-05
-0.000163595
0.000392131
-8.15926e-05
-0.000310627
0.000282266
1.27805e-05
-0.000295064
0.000394192
-0.000412784
1.84961e-05
-0.000561803
-0.00011489
0.000181888
-6.69979e-05
0.000430255
-0.00072705
0.000296211
-0.000298042
-0.000375584
0.000672736
-0.00091695
0.000297383
0.00061683
0.000418371
-1.9445e-05
-0.000399051
-8.70249e-05
0.000481106
-0.000553227
0.000562715
-2.73155e-05
-0.000155251
4.11393e-06
0.000148694
1.83781e-05
-0.000191044
3.55077e-05
-0.000675334
0.000628283
0.000102801
0.000105981
0.00100493
-0.000943387
-6.71445e-05
0.000238072
-0.000141114
-9.69594e-05
0.000173284
0.000222189
-0.000395481
-6.47285e-05
0.000274756
-0.00021004
-0.000123428
0.00024234
-0.000118915
-2.61482e-05
0.000324844
-0.000298743
-0.00023515
-0.000243893
0.000478843
-0.000337025
-0.000250492
0.000586935
0.000376183
7.36065e-05
-0.000449838
0.000145018
-0.00059837
0.000453347
-0.000394378
-0.000545796
0.000937202
0.000151826
6.53126e-05
-0.000217143
-0.000584218
0.000608343
0.000191453
-0.000151025
-4.04281e-05
0.000611943
-0.000768262
0.00014426
-0.00015298
8.72039e-06
-8.46541e-05
-8.45705e-05
0.000110307
-6.77936e-06
-5.09523e-05
5.60076e-05
-0.000661195
-0.000138903
0.000761603
-0.000334532
0.000309735
2.47876e-05
0.000679693
-0.000896685
0.000212444
0.000599858
-0.000562725
-3.7184e-05
-8.71216e-05
0.000505346
-0.000456305
0.000261625
0.000194596
-0.000180166
0.000158364
2.18013e-05
1.18283e-05
0.000100399
-0.000151571
0.000722687
-0.000300297
-0.000423094
0.000581283
-0.000858278
0.00027643
-0.000196462
1.62968e-05
0.000565073
-0.000420068
-0.000711133
-0.000208494
0.000379458
0.000222675
-0.000602903
-7.74473e-05
0.00035969
-0.00088805
-0.000211162
0.0010947
0.000776641
-0.000638053
-0.000139874
-0.000138613
0.00081384
0.000230542
-0.00020889
-2.16541e-05
0.000922233
-0.000593648
4.44021e-05
-0.000626193
5.58134e-05
0.000238637
-2.67566e-05
6.49073e-05
0.000149834
-0.000214743
-5.50914e-05
0.000906364
0.000869003
9.36952e-05
0.000219974
3.96268e-05
-0.000259616
0.000395054
7.56325e-05
-0.000470942
9.72745e-06
0.000903212
0.000176489
2.28675e-05
-0.000190894
0.000128778
6.21154e-05
0.00103397
-3.54244e-05
-0.000165222
5.47539e-06
0.000159747
-0.000458629
0.000240354
0.000218192
-0.000137934
0.000154227
-1.62937e-05
0.000920396
-0.000805322
-0.000117812
-0.000182896
-6.03074e-05
0.000243203
-9.79831e-06
-0.000326595
0.000333835
-0.000448556
9.18255e-05
0.000348962
0.000759996
-0.000215064
0.000219941
-4.87727e-06
0.000130216
6.12365e-05
0.000213902
-0.000197753
-1.61498e-05
0.000625251
0.000292238
-0.000498791
0.00047045
1.75591e-05
-0.000104991
0.000169896
0.000276732
0.000445094
-3.65207e-05
-0.00065625
0.00019341
-0.000148358
-4.50529e-05
-0.000147426
0.000469082
-0.000321724
-0.00108484
0.000356889
0.00071925
0.000331864
-0.000775178
0.000442221
8.25531e-05
-0.000187545
0.000177833
5.20888e-05
-0.000229922
0.000319312
-3.78727e-05
-0.000281467
0.000219342
-0.000438646
0.000219212
0.000343736
-0.000319421
-2.434e-05
-0.000184995
-0.000158621
0.000343609
0.000454613
0.000165378
-0.000652881
-0.000283178
0.000504093
-0.000220915
-0.00024466
-8.98827e-05
0.000363474
-0.000742502
0.000377134
-0.000548157
0.000880911
-0.000349555
-0.000101757
-0.000116179
0.000217934
0.000284533
-0.00025376
-3.07788e-05
-0.000308294
-0.000148079
0.000969969
-0.000675558
0.000247097
0.000193972
-0.000441236
0.000201776
-0.000178594
-2.31822e-05
0.000205347
-6.10871e-05
0.000344917
-1.44899e-05
-0.000330479
7.58756e-05
-0.000177634
-0.000136517
0.000616609
-0.000480185
-0.000192567
0.000124024
6.85422e-05
0.000737152
0.000207861
-0.000954797
-1.5328e-05
-0.000167265
0.000182593
-0.000140154
-3.14071e-05
0.000171561
-0.000599876
0.000130429
0.000469422
0.000141985
-0.000150263
-9.16085e-05
0.000311566
-0.000174426
0.000111055
6.33707e-05
-0.000364348
0.000299606
7.39363e-05
-0.000157136
4.34482e-05
-0.00046506
0.000795706
0.000839744
-0.000674016
-0.000170041
-5.36924e-05
8.14226e-05
-0.000451449
-0.000114806
0.000504977
-4.14137e-05
0.000175114
-3.38958e-05
-0.000141218
-0.00073658
0.000599933
-0.000828471
-7.25098e-05
-0.000157072
5.97041e-08
-1.29077e-05
0.000208498
-0.000195596
0.000209602
-0.000106802
-0.000479383
0.000172809
7.57314e-05
-0.000260729
0.000916802
-9.51062e-06
-0.000482122
-0.000117795
-0.000210403
-6.16432e-05
0.000272039
0.00025168
-0.000940453
0.000675872
0.000834375
2.34756e-05
-0.000858621
-1.04343e-06
-0.00025798
0.000259016
0.000853194
1.60766e-05
0.000167065
-0.000249488
8.24216e-05
-0.000161893
0.000255487
-9.35968e-05
0.000910156
-0.000329482
0.000215256
-0.000890705
0.000661215
0.000338509
0.000241268
-0.000580379
0.000403068
-0.000414082
1.08977e-05
-9.30862e-05
-9.94804e-05
0.000483665
-0.000189357
-0.000294366
-0.000466928
0.000468972
-2.18652e-06
-0.000267718
-0.000383545
0.00065049
0.000230718
-4.91159e-05
-0.000181603
-0.000175489
0.000570231
-0.000285304
0.000100386
0.000184913
-0.000168295
3.03611e-05
0.000190593
-0.000203507
0.000573091
7.22012e-05
-0.000645669
-0.00030962
0.000452315
-0.000142684
-0.00032637
0.000362299
-3.85411e-05
-4.80581e-05
0.000367338
-8.16098e-05
0.00042646
0.00033865
5.06201e-06
-0.000354415
0.000716093
0.000224839
0.000178506
-0.000403446
0.00105078
-0.000889808
-0.000168499
-0.000471827
0.000188651
-0.000238696
-0.000239288
0.000477807
3.83746e-05
-0.000157267
0.000118892
0.000243965
-0.000375252
0.00013124
0.00092045
-0.000526546
-0.000396005
-0.000112991
-0.000143079
0.000256068
0.00044241
-0.000384857
-5.76563e-05
-1.42381e-05
0.000189352
-0.000172844
0.000157516
-6.96362e-05
0.000236699
0.000923136
-7.25105e-05
-0.000858095
-0.000406063
0.00025858
-0.000531438
0.00029607
-0.000677112
0.000916018
-0.000569145
6.05021e-05
2.11452e-05
-0.000478212
0.000456809
0.00014769
9.03806e-05
0.000296089
-0.000123806
-0.000172296
3.2509e-05
0.000198208
0.000311787
0.000157233
-0.00046926
0.000238726
1.27468e-05
-0.000251493
0.000324352
-0.000188445
-0.000135914
0.000166998
4.6904e-05
3.59383e-05
0.000212813
-0.000248764
-0.000200443
0.000827838
-0.000639203
-0.000284168
0.00028507
-9.02816e-07
-0.000204789
0.00037806
-3.24527e-05
-4.26982e-05
-0.000535596
-0.00055645
-0.000258206
3.27241e-05
0.000225472
4.65595e-05
0.000131456
-0.000178018
0.000747542
-0.000505905
-0.000242579
-9.62725e-05
7.8388e-05
-0.000369261
0.000494562
-0.000125439
-6.41676e-05
0.000467108
-6.16135e-05
-0.00012928
-0.000167791
-7.75107e-05
0.000245296
0.000485023
-0.000881909
-0.000914757
2.28604e-05
0.000467677
-0.000248431
-0.000258667
0.0001596
9.90662e-05
-7.94244e-05
0.000912509
-0.000127777
-9.29636e-05
0.00022074
-0.000148865
0.000200785
-5.19206e-05
0.000368743
-0.000130046
0.000336358
-0.000900424
-0.000162476
0.000253364
-9.0889e-05
0.000248447
-0.000465522
0.000216947
-0.000173555
0.000183176
-9.62125e-06
1.3032e-05
0.000673121
-0.000693297
0.000188247
4.2293e-05
-0.000199603
0.00111407
-0.00036583
0.000198844
0.000166937
-0.000199782
6.73016e-05
0.000178512
-0.000164933
-1.35784e-05
-6.94758e-05
-0.000125409
0.000194884
-0.000680528
0.000381705
-5.34148e-05
-0.000212656
0.000266066
-0.000618083
0.000349696
-0.00068152
0.00100005
0.000226616
-7.47948e-05
-0.000130999
0.000374917
0.000480485
-0.00016895
5.42919e-05
-0.000217431
0.000163137
-4.8259e-06
-0.000144039
-0.000169144
-0.000275724
0.00039973
0.000211181
-0.000548739
6.10721e-05
0.000132338
0.000160492
-0.000178165
1.76729e-05
-0.000326823
-6.34981e-06
0.000511693
0.000334426
-0.000866067
-2.52126e-05
0.000159082
8.90508e-05
0.000194238
-0.000283311
2.34707e-05
1.076e-07
-2.73421e-05
-0.000236188
-7.7041e-05
0.00031322
-0.000198891
-0.000172448
0.000371285
6.00668e-05
-0.000369678
0.000391236
-0.000494151
0.000102631
2.38434e-05
0.000332549
-0.000245507
0.000492081
-0.000246716
0.000103033
5.61694e-05
-0.000159203
0.000742184
0.000132759
-0.000881303
-0.000396903
7.52332e-05
0.000321624
-0.000292931
0.000283917
9.01154e-06
0.000720089
0.000114891
0.000753441
-0.000968547
0.000468711
-0.000282544
-0.000186248
0.000208557
-0.000129024
-7.95334e-05
0.00017777
0.000305835
0.000384323
-0.000363382
0.000622071
-0.000192361
-4.89319e-05
4.68455e-05
-1.10341e-06
-0.000118961
-5.54651e-05
-0.000267948
0.000180099
8.78466e-05
0.000309649
-6.56598e-05
-0.000243996
0.000191215
-0.000888862
-0.00019745
0.000131328
6.61217e-05
0.000134886
4.52139e-05
-0.0001801
-0.000224534
-6.07743e-05
6.15794e-06
-0.000189055
-0.000177776
-0.000280919
-0.000430381
0.000134511
-7.75712e-06
-0.000180913
-0.000289233
0.000453872
-0.000164768
0.000201421
-0.000108283
-9.31379e-05
0.000269743
5.80888e-05
-0.000327864
0.000540232
0.000235077
6.81591e-05
-0.000235956
-0.000297497
0.000514726
0.000395605
-0.000269961
-0.000187669
0.000140807
6.07187e-05
-0.000201529
-0.000539484
0.000541959
-1.9818e-05
0.000102266
-0.00021526
0.000402339
0.000344061
1.88744e-05
-1.77303e-06
0.000716494
-0.000381736
-0.00033527
-0.000349616
-0.000117449
0.000237394
0.000214943
-0.000227226
-8.96958e-06
0.000601928
-0.000222453
-0.000379757
0.000101213
-0.000802869
0.00069637
0.000191788
9.74998e-05
-0.000289297
0.000193047
-0.000138757
-0.000130528
-0.000137421
-0.000766098
0.000770958
-0.000146523
0.000287036
-0.000140517
-0.000611276
0.000708984
-9.68772e-05
0.000863271
-0.000767613
-0.000326354
0.00105303
4.5839e-05
-0.000207734
-0.00020025
8.22284e-05
8.55586e-05
-0.000213549
-0.000152322
-0.00018119
0.000572096
0.000754004
0.000288483
-0.000412016
4.26387e-05
-0.000542133
0.000876204
-0.000335882
4.91099e-06
-9.72326e-05
9.23217e-05
0.00032522
0.000117078
0.00024623
0.000222771
0.00100507
-0.000881482
-0.000133332
0.000998767
-0.000249521
0.000219367
-0.000109924
-0.000109443
-4.57716e-05
-0.00011584
0.000161612
-0.000663074
0.00086259
0.000132011
-1.73819e-05
-0.000164779
-0.000104235
0.000245039
0.0007835
-0.00113788
0.00034606
0.00019546
-6.66819e-05
0.00109214
-9.87062e-05
2.38837e-05
0.000154628
0.000407117
0.000415315
-0.000826077
-9.32489e-05
0.000296781
-0.000203543
7.44533e-05
0.000463274
-0.000538154
0.000145369
-0.000166333
2.09639e-05
0.000766489
-0.000193879
0.000332188
-0.0001416
-2.63214e-05
-0.000160589
0.000186909
0.000178707
0.000537222
0.000272452
-0.000183421
0.000233359
-1.63058e-05
-0.000217059
0.000928663
-0.000419444
-0.000511573
0.000202008
-0.000149484
-5.25243e-05
-8.83611e-05
-0.000195808
0.000142853
-7.96678e-06
-0.000286125
-0.000355492
0.000641469
0.000128426
-0.000159292
3.08661e-05
0.000437142
-0.00054083
0.000103159
-0.000210402
5.46333e-05
0.000155768
-0.000252719
0.000226395
0.000390965
-0.000155319
-0.000235668
9.21905e-05
0.000298751
-6.27916e-05
-0.00018554
-2.92426e-05
-0.000376855
0.000402877
0.00024673
-0.00048559
0.000151316
5.04599e-05
0.000901461
-0.000185703
-0.000717626
-0.000460063
0.000775774
-0.000316925
9.39616e-05
8.79261e-05
-0.000258706
4.91293e-07
0.000789004
-0.00104645
0.000254544
0.000139928
0.000184415
-0.000209968
8.65383e-05
7.48367e-05
-0.000614535
0.000503362
3.49679e-05
-0.000175122
4.99878e-05
-0.00024805
0.000198056
-0.000564869
7.46206e-06
0.000293509
0.00062715
-0.000937503
-0.000621786
1.38113e-05
-0.000633841
0.000835829
0.000282386
-9.0607e-05
-0.000159434
-6.64228e-05
0.000225855
0.000188579
-0.000253444
6.48651e-05
6.40346e-05
0.000155332
0.000746866
-0.00109687
0.00034339
-0.000322666
-7.42726e-05
8.41754e-05
7.31399e-05
-0.000157315
0.000529543
-5.96435e-05
-0.000470109
-0.000191954
7.83512e-05
0.00012307
-0.000185655
0.000743371
-0.000326695
-0.000447571
3.26628e-05
0.000276977
0.000825738
-0.000143183
-0.000699132
0.000242837
-5.4593e-05
-0.000789834
0.000646882
0.000161758
-1.63891e-05
-0.000374745
0.000175805
-0.000734828
0.000776553
-4.33728e-05
-0.000330059
-9.41087e-05
0.000420116
0.000243069
0.000224496
-0.000270964
-0.000135142
0.000285833
6.26023e-05
-0.000348495
4.18013e-05
-0.000147043
0.000105242
-9.22954e-05
-0.000118107
-1.87572e-05
-0.000154798
-0.000456277
0.000210653
0.000385932
6.11939e-06
0.000662385
-0.000167678
4.49746e-05
0.000115517
-0.00014659
0.000218059
-7.14694e-05
-0.00119852
0.000457596
0.000736824
0.000196398
0.000135781
-0.00100502
0.000115757
0.000884353
-0.000304058
0.000209756
9.42906e-05
0.000800351
-0.000396654
0.000329178
-0.000361895
-0.000230513
0.00057968
-0.000350334
-0.000123144
0.000197221
-7.40771e-05
-0.000654606
0.000422732
0.000104814
0.000103743
0.000163685
-0.000189979
2.62934e-05
0.000219966
-1.45979e-05
-0.00020538
0.000270062
-0.000199424
-7.06395e-05
0.000586184
0.000340206
5.28673e-05
-0.000215344
0.000109472
-0.000220258
0.000836531
-0.000630068
2.58174e-05
-5.85885e-06
0.000904592
0.000980914
-8.37077e-05
-0.000900602
-0.000262905
0.000236717
-5.97287e-05
4.25929e-06
0.000836967
0.000243096
-0.00108461
-2.97846e-05
0.000841927
0.000212172
7.02045e-05
-0.000241297
0.000229132
-5.98282e-05
0.000188254
0.000242813
-0.000138661
-0.000104153
-0.000180279
0.000167485
1.27937e-05
-0.000201945
0.000237872
0.000204035
-0.000147078
-5.69567e-05
-0.000162716
0.000167356
-4.63999e-06
1.14644e-05
0.000517846
-0.000205766
0.0009453
-0.00024471
0.000331297
-8.66102e-05
4.7591e-05
0.000563213
0.000284448
0.000266784
-0.000551691
-0.000771921
0.000561204
-0.000229072
-6.97982e-05
-0.00018887
0.000116061
0.00012675
0.000329404
0.000316936
-0.000647026
0.000240827
-0.000331668
9.08024e-05
0.000459659
-0.000745927
-0.000242596
-0.000526965
0.000438753
-0.000152994
0.000766229
-2.65645e-05
-0.000741314
0.000242098
2.32491e-06
-0.00024443
0.000721664
0.000245207
-0.000103527
-0.000121756
0.000137907
5.75528e-05
0.00015681
-0.000171048
-1.75575e-05
0.000174367
-0.000309029
0.000287858
2.1136e-05
-2.74934e-05
-0.000152786
0.0001239
7.81079e-05
0.00019037
-8.11279e-05
-0.000109242
-0.000127263
0.000190667
-6.3404e-05
0.000481322
-0.000428005
-0.000104556
-0.000229937
0.000436413
-0.000206582
-3.40671e-05
0.000798686
0.000214783
0.000709892
-0.000927676
4.74257e-05
-0.000239717
0.000192285
-0.000376464
-0.000166077
-5.14684e-05
0.000150222
0.000468351
-0.000289378
-0.000179074
-0.000569566
0.00027879
0.000290514
4.90501e-05
0.000116965
-0.000166015
0.000491348
-0.000722385
-0.000259432
0.000356209
-9.68108e-05
0.000189771
-0.000155789
-3.39828e-05
0.000196507
-0.000266208
6.96936e-05
-0.000173309
7.94908e-05
9.38177e-05
-0.000239627
-0.000576175
-0.000625909
3.15364e-05
-0.000128801
0.000284237
-0.000459975
0.000134092
0.000573481
-0.000158551
0.000238847
-8.02974e-05
-2.71256e-05
0.000215706
0.000293066
0.000308547
0.000198237
-6.13465e-05
-0.000136891
0.000695236
-0.000316588
0.000259633
-0.000307718
6.87805e-05
0.000121589
0.000133679
0.000121806
0.000367309
-0.000147364
-0.000259314
4.89034e-05
6.76767e-05
-0.000327137
-0.000380532
-9.51801e-05
0.000475598
0.000315961
-0.000289291
-2.66923e-05
0.000296557
0.000152682
-0.000449431
0.000242315
5.31949e-05
-0.000295528
2.3573e-05
-0.00024701
0.000452603
-0.000205749
0.000245368
-0.000359005
0.000113591
-0.000122757
-6.66779e-05
0.000125783
0.00010049
-0.000235243
0.000134747
-0.000465548
0.0007091
-0.000244275
-0.000481209
-0.000578079
0.00104532
-0.000241988
0.000525941
3.494e-05
0.000779948
-0.000817421
0.000173978
-0.000124928
0.000180836
-0.000104961
0.00102035
-0.000245317
0.000130793
0.000202642
-0.000165803
0.000242687
-7.68855e-05
-1.39062e-05
-0.00014881
-2.67074e-06
4.16008e-05
-9.33177e-05
-7.99909e-05
0.00019303
0.000452759
-0.000648027
-4.83697e-05
-0.000220937
0.000269289
-0.00119631
0.000525966
0.000662316
-3.03962e-05
0.000149305
-0.000118908
0.00028011
-5.54557e-05
-0.00022466
0.000620625
-0.000282707
-0.000145331
0.000701888
-0.000558976
0.000122007
8.20272e-05
7.99361e-05
0.000216136
8.79015e-05
7.16374e-05
-0.000159539
-6.03508e-05
-2.47151e-06
0.00018881
-7.23498e-05
-0.00011646
-0.000167933
-0.00011671
0.000242979
-0.000126273
0.000384634
-0.000877448
-0.000174552
-2.32015e-05
-0.000101395
0.000223441
-0.000122047
0.000506056
-3.84975e-05
-0.000467765
0.000870124
-0.000592103
0.000622052
0.000204755
-0.000829116
0.00023739
-0.000255646
-4.84219e-05
-0.000250078
2.22307e-05
-0.000330866
0.000940315
-0.000104786
-0.000207368
0.000279942
0.000200362
-0.000338084
-0.000167575
-2.98745e-05
0.000233349
-0.00018593
0.000517291
-0.000119665
-0.000194268
0.000313918
-1.92813e-07
8.72713e-05
0.000582446
-0.000152842
0.000368507
-0.00012772
-1.56343e-05
0.00019781
-0.000182177
-0.000333148
-0.000188384
0.000521215
-0.000859862
-3.64181e-05
0.000111261
0.000864687
-0.000804944
0.00084194
-3.67673e-05
-0.000220949
0.000199748
-3.27507e-05
-0.000426943
0.000466925
-4.97898e-05
0.000796279
-0.000802505
5.01349e-06
0.000274752
0.000519396
-0.000223055
0.000415515
-0.000341377
-0.00117746
0.000597681
-0.000710429
0.00020614
0.000502827
0.000501725
6.25883e-05
-0.000564954
0.000399512
-0.000154195
0.000227567
5.78522e-06
-0.000243482
8.49316e-05
-0.000329662
2.47192e-05
-0.000270111
0.000245355
-0.000239365
0.000161849
0.000422621
-0.000176459
0.000208129
0.000666368
-0.000881903
-9.48542e-05
0.000197888
-2.69242e-05
0.000178393
-0.00063946
0.000547682
-0.000689626
0.000140472
-0.000128028
0.000228513
0.00036443
-0.000312891
-5.15794e-05
0.000213169
-0.000117906
-0.000134239
0.000241938
-4.54379e-05
0.000265854
1.92864e-05
-0.000285176
0.000117114
-0.000162478
4.53636e-05
0.000252078
-0.000227392
0.00056384
-0.000217389
-0.000346567
-0.000368986
-0.000200805
0.000276087
-0.000609809
2.54427e-05
-0.000155972
0.00014868
0.000105133
8.04049e-05
-0.000185538
0.000911706
-0.00019372
-0.000490717
-7.52335e-05
0.000565489
6.61066e-05
-0.000260387
0.00019447
-0.000116118
0.000100508
5.87835e-05
-0.000210049
-0.000228676
-0.00029147
-1.75858e-05
-0.000709188
0.000332746
-0.000386463
-0.000262982
0.000648349
-0.000710384
-0.00047035
-0.000359171
0.000381131
-2.2007e-05
-0.00024571
0.000842619
-0.000220633
0.00046895
-0.000217203
-0.000100766
0.000205898
0.000160638
-7.2736e-05
-0.000799496
0.000409599
0.000388576
0.000344526
-8.49228e-05
-1.56534e-05
0.000295757
0.000671137
-0.00047254
-0.000199059
-0.000343611
0.000960389
-0.000617534
-0.000193779
8.43208e-05
0.000109458
-0.00013056
-0.000113297
0.000243855
7.17321e-05
0.000137354
-0.000209087
0.000320293
-0.000281931
-3.83778e-05
3.49851e-05
-0.000534877
-0.000114835
0.000149803
0.000477653
6.7469e-05
9.46526e-05
0.000404861
0.000116482
-0.000521748
-0.00044469
0.00022142
0.000223204
-0.000145089
0.000521212
0.000392848
-6.80569e-05
-0.000131292
0.00023237
-0.000101078
-2.97715e-05
0.000345709
-0.000583664
0.000307166
0.000276154
0.000189067
-0.000163626
0.000103386
0.000563626
-0.000668661
4.35639e-05
-0.000170827
-0.000317858
-1.33407e-05
-0.00050225
6.76447e-05
8.16743e-05
-0.000228201
7.30992e-05
-0.000203661
0.000212145
-0.000241448
2.93026e-05
0.000636522
-0.000534689
0.000499468
0.000418476
2.31611e-05
0.00077168
-0.000474399
0.000176703
-6.85782e-06
0.000154307
0.000184315
0.000252067
-0.000639577
0.000187538
0.000179742
-0.000222566
-0.000687444
-0.000515262
0.000128371
-0.00018179
-0.000211068
0.000365341
0.000218399
9.67433e-05
-0.000315151
-0.00110033
0.000446596
0.00064565
-0.000245793
0.000286844
-4.10722e-05
-0.000772852
1.16219e-05
0.000152063
-0.000391303
0.000309618
2.58683e-05
0.000338516
-3.35506e-05
-0.00045757
-0.000396824
9.98593e-06
0.000347626
-0.000818969
0.00102304
-0.000218618
-0.000849017
0.000170923
-0.000344279
0.000309468
3.47866e-05
9.83354e-05
0.000501486
0.000322613
-6.9907e-05
-0.000252718
-0.000106778
0.000148579
-0.00018823
0.000412968
0.000512943
-0.000471981
0.000359167
-0.000125579
-0.00023361
2.35122e-05
0.000188633
8.97529e-05
0.000159099
-0.000248858
0.000955326
-0.000219788
0.000380115
0.000172559
-0.000552804
-0.000929295
0.000581273
0.000593231
-0.000549914
-4.38842e-05
-0.000633827
-5.13337e-06
-0.000183961
8.25655e-05
-0.000336015
5.2095e-06
-0.000166099
-0.00041681
0.000630768
-0.000214569
0.000282216
-0.000269452
-6.53555e-05
0.000349942
-0.000284644
-0.000127736
0.000182097
-5.43608e-05
0.000322765
-0.000325117
2.30955e-06
0.000912939
-0.000293557
-0.000115401
-6.0032e-05
0.000175433
-7.9646e-05
0.000180154
0.000224318
0.00070236
-0.00093098
-0.000255065
0.000801229
-0.000147646
-0.000127085
0.000274726
0.000237721
8.25518e-05
-7.71517e-05
0.000346864
-6.53393e-05
5.77648e-05
-3.13816e-06
-0.000632023
0.000484268
5.30411e-05
0.000243726
-9.49436e-05
-0.000641133
-0.000369387
0.000431916
0.00021861
0.000249997
7.58353e-05
-0.000907947
-0.000350692
-0.000138225
0.000488784
-0.000139337
-1.64301e-06
-0.000759027
0.000754275
0.000701407
-0.000908561
0.000204069
-9.67666e-05
-0.000258819
0.000321642
0.000124907
-0.000170679
-0.000172738
1.43603e-05
-0.000355592
0.000684253
0.00015542
-0.000117045
0.00073771
-0.000358183
-0.000380603
-0.000169213
0.00024231
-0.000699669
0.000315344
-0.00028966
0.000363228
-0.00033423
-0.000242459
0.000444156
-0.000201798
-0.000949306
0.000613826
-0.00028871
0.000484704
-0.00019611
-0.000311292
2.83123e-05
0.000235186
-0.000162721
-0.000203539
0.000366215
-0.000449475
0.000640317
2.79942e-05
0.000161776
0.000174082
-8.55704e-05
-8.85122e-05
-0.000152616
0.000136982
3.22875e-05
-0.00014925
-0.000475242
0.000233014
0.000189529
0.000298634
0.000126615
-0.000425405
-0.00017259
6.88421e-05
0.000103748
9.06989e-05
8.31125e-05
-0.000173812
0.000371429
-0.000390995
0.000753851
-0.00106975
0.000311464
-7.06273e-05
0.000282788
-0.000208875
-3.25734e-05
-2.78115e-05
0.000246204
0.000252883
6.97139e-05
0.000235998
-0.0004531
0.000216959
-0.000158208
0.000224067
-6.58591e-05
7.92217e-05
0.000342879
-0.000422309
0.000328651
0.000185811
0.000323405
-0.000153051
-0.000170376
-0.00022281
0.000255524
-9.4431e-05
0.000465719
0.000158803
5.98983e-05
-0.000218701
-0.000346059
-0.000150964
0.000496869
-0.000345225
0.000796083
-0.000452826
-0.000286345
-0.000158401
0.000570998
-0.000392733
-0.000291433
-0.00067281
0.000953805
-7.88262e-05
0.000671405
0.000458978
-0.000212052
-0.000366997
0.000607675
0.000701882
-0.00105629
0.000345921
8.83422e-05
-0.000221864
0.000457049
-0.000235297
-0.000735018
0.000184228
0.000549094
-2.25436e-05
-0.000346909
0.000941222
-0.000190301
0.000899624
-0.000114106
-0.000789872
-0.000173626
-6.53704e-07
1.88357e-05
0.000746069
-0.00076628
0.000874733
-0.000764516
-0.000136849
-0.000660661
0.000413861
0.000245994
-5.84324e-05
0.000318887
-0.000290932
0.000106322
-0.000136718
-0.000317564
-0.000147697
0.000465154
-1.62503e-05
0.000225255
-0.000761083
0.000108304
0.000613523
0.000195737
-0.000204698
4.4312e-06
0.00041859
-5.09189e-05
-0.000367709
-2.2001e-06
-0.000378425
0.000234771
0.000509978
-0.000744779
0.000218855
-0.000225136
6.27781e-06
-0.000111748
0.000365619
-0.000253928
5.0859e-05
0.000191974
-0.000496124
0.000242161
6.65293e-05
-0.00030872
-0.000802945
0.000184808
0.000615336
9.10211e-05
-0.000162904
6.90171e-05
-0.000150902
0.000313793
9.8104e-05
-0.000641716
9.44266e-05
6.19092e-05
-0.000156336
3.83467e-06
0.000187595
7.75681e-05
-0.000235123
0.000157551
-0.000552686
-0.000108529
0.000156523
-7.23476e-05
0.000357104
-3.65741e-06
-0.000353536
0.000199212
-0.000311008
0.000325687
-4.34889e-05
-0.000364896
0.000905032
-0.000563154
-1.15963e-05
1.15963e-05
-0.000404683
-1.55405e-05
-0.000819884
0.000834768
0.000436674
-0.000904868
0.000466283
-0.00021141
0.000240237
-2.88297e-05
0.000260036
-0.000788453
0.00063636
-0.000588125
-5.07836e-05
-0.000597668
0.000310528
0.000286588
-0.000853665
0.000596236
0.000233646
-0.000286646
-2.69976e-06
0.000235689
0.000369535
0.000493629
-0.000104483
-6.81068e-05
-0.000318764
-0.000212954
0.000531398
0.000627247
-0.000634223
0.00010113
-0.000247731
0.000117652
7.68176e-05
-0.000252109
0.000335884
-0.000950746
0.000611667
0.000747656
0.000161277
-9.85109e-06
0.000228704
-9.25304e-05
-0.00017703
0.000269556
0.000146344
-0.000174556
2.82113e-05
0.000309775
0.000253944
-0.000740368
0.000393209
-0.000470534
0.000259706
-5.07191e-05
-0.000285959
-0.000452613
0.00020545
-0.000500247
-0.000283215
0.000123319
0.000159888
-0.000602073
0.000246491
1.43001e-05
-0.000163784
-0.000302443
0.000810206
-0.000510366
-0.000754888
0.0003414
0.000412718
0.000125898
4.49049e-06
-0.000130388
-0.00104467
3.47038e-05
-0.000583609
0.000117471
-0.000712897
-0.000233909
0.000941989
0.00019554
-0.000196906
-2.67057e-05
0.000460171
-0.000266376
-0.000152772
0.000390176
-0.000590566
-0.000178167
0.000766221
2.78124e-05
-0.000197027
-0.000174319
8.14952e-05
9.28236e-05
-0.000387146
-0.000564007
0.000666741
-0.000840461
0.000155185
-0.000285901
0.000386834
-0.000100962
-0.000161802
-6.41759e-05
-3.19568e-06
-0.000151189
-7.52475e-05
0.000226431
-0.000178609
0.000825796
0.000214893
0.000700125
0.000110933
-0.00081901
0.00031957
-0.000976111
0.000646435
-2.23048e-05
0.000931547
-0.000827111
-0.000109982
-0.00022718
4.66122e-05
0.000380501
-0.000410634
2.99185e-05
0.000179695
-1.62445e-06
-0.000178743
-0.000548668
-0.000190756
0.000708235
-0.000981706
0.000669401
0.000311944
0.00113744
-0.000440693
-0.000705757
-0.000156596
0.000854637
-8.7521e-05
0.000195291
-0.00010777
-0.000673614
0.000965754
-0.0002993
-0.00102098
0.000347948
0.000662206
-8.27882e-05
0.000196924
-0.000114136
-0.000122646
-0.000126844
-0.000263749
-0.000320185
-0.000232996
-0.000396841
0.000163481
0.000233287
-0.000704732
0.000451419
0.000252316
0.000257605
-0.000933221
0.000663555
-0.000146427
-0.000416319
0.000127196
0.000117455
-0.000280211
0.000663926
1.43723e-05
-0.000682776
-0.000186002
0.000884464
0.000180809
-9.0111e-05
0.000604234
-0.000378075
-0.00022642
-0.000190543
5.75238e-05
0.000133019
3.95594e-06
-0.00050187
-0.000175334
5.9494e-05
0.000389686
0.000172265
-0.000562268
-0.000199573
0.000822183
8.65702e-05
7.15637e-05
-0.000158134
-0.000163334
-1.76697e-05
0.000181003
0.000434497
0.000693005
0.000183528
0.000139851
0.000120094
-0.000302128
-1.95223e-07
0.000925399
-0.000199235
-0.000589892
0.000189826
-5.84977e-05
0.00025532
0.000590712
-0.000296838
-0.000695086
-0.000134809
0.000146223
-0.000555082
0.000407698
-0.000276458
0.00022807
0.000105326
0.000233548
-0.000615505
0.000953309
-0.000346982
-0.000307885
-0.000176709
0.000484573
-0.000476419
0.00045473
1.07361e-05
-0.000126509
0.000330713
0.000377156
-0.000722332
0.000274489
-0.00061879
0.000576026
3.97583e-05
-0.000273176
1.61515e-05
-0.000275583
-0.00014568
-1.71075e-05
0.000162788
-0.000253086
9.63906e-05
0.000156693
0.000578684
-0.00019874
0.000215668
-0.000165686
0.000112747
5.44622e-05
-0.00016721
0.000716246
0.000278279
-0.000166355
5.15201e-05
-6.49417e-05
-0.00014395
-4.18544e-05
0.000154602
0.000212671
-0.000130629
-8.2042e-05
-0.000187362
0.000104573
-7.17235e-05
0.000188837
0.000170789
0.000188357
-0.000650054
0.000852486
-0.0001916
-0.000208891
0.00059824
-0.0002062
5.96094e-05
-0.000667499
0.0010384
0.00100811
-0.000659061
-0.00057137
0.000904003
-2.20228e-05
-0.00053945
5.27391e-06
0.000533389
-0.000365935
-0.000161372
0.000527151
0.000156334
-1.47954e-05
-0.000141539
0.000324801
0.000675085
7.58116e-06
-0.000746846
0.000737826
0.000172011
-8.93532e-05
-8.26581e-05
-0.000251613
2.39126e-05
0.000227691
-0.000434792
-0.00054679
0.000444891
0.000630639
-0.000290977
-0.000340136
-0.000981798
0.000679723
0.000298082
1.55545e-05
0.000158528
0.000176987
0.000267924
-0.000477985
-0.000234278
0.00071172
-0.000423658
0.000568756
-9.63986e-05
-7.79202e-05
-3.21825e-05
0.00015808
-0.000177806
1.05412e-05
-0.000176745
0.000868186
-0.0002117
0.00029162
0.000316803
-5.09843e-05
0.000145332
-0.000172162
2.68294e-05
5.53992e-05
-0.000253802
-0.000139274
0.000393025
-0.000619027
-0.000607043
-0.000198432
-0.000748584
0.000443793
0.000229328
-0.000377476
-0.000692856
0.000192471
0.000241434
-0.000120612
0.000621781
0.000275796
-0.000196697
-9.47109e-05
-0.000104089
0.0001988
0.000119562
-0.000336195
0.000216603
-0.000867409
0.000565125
-8.95389e-05
-0.000114183
-8.30842e-05
0.000197267
0.000266631
0.000159112
0.000708651
-0.000869121
-0.000128518
0.00018996
-6.14422e-05
-0.000230547
0.000976873
-0.000363866
0.00079848
-0.000333931
-0.000113532
0.000447435
0.000155568
4.26683e-05
-2.48668e-05
-0.000690562
-0.000417534
-0.000115076
-9.68498e-05
0.000211925
-1.12209e-05
0.000226882
0.000262946
-5.47989e-05
-0.000208152
7.29787e-05
-0.000287212
0.000214202
0.000189119
-0.000123811
0.000220313
-0.000740487
0.000512242
0.000234116
3.2447e-05
-0.000266577
-0.000676414
0.000834216
0.00102983
-0.00051252
-0.000530633
-0.000959207
0.000614919
8.61654e-05
-0.000244717
0.000151236
-4.89119e-06
-0.000346863
0.000969446
-0.00063229
0.00018177
-0.000760806
-0.000942292
0.000224825
-0.000240181
0.000710546
-0.000467709
0.000643645
-0.000176454
-0.000866675
0.000850448
-0.000169227
0.000955138
0.000319029
0.000291471
-0.000915337
-0.000383984
-0.000279941
0.000280335
-4.05563e-07
-0.000153516
0.000199986
-4.64707e-05
-0.000236767
0.00095158
-6.69597e-05
0.000320665
-0.000253747
-0.000252446
-0.000548093
-3.54313e-05
0.000184736
3.07961e-05
-0.00014498
-3.93768e-05
-0.000139217
-0.000234572
-0.000162334
-0.000183941
2.06073e-05
0.00012016
-0.000183938
6.0793e-05
0.000279183
2.987e-05