/*--------------------------------*- C++ -*----------------------------------*\
| =========                 |                                                 |
| \\      /  F ield         | OpenFOAM: The Open Source CFD Toolbox           |
|  \\    /   O peration     | Version:  v2012                                 |
|   \\  /    A nd           | Website:  www.openfoam.com                      |
|    \\/     M anipulation  |                                                 |
\*---------------------------------------------------------------------------*/
FoamFile
{
    version     2.0;
    format      ascii;
    class       volVectorField;
    location    "250";
    object      cellDisplacement;
}
// * * * * * * * * * * * * * * * * * * * * * * * * * * * * * * * * * * * * * //

dimensions      [0 1 0 0 0 0 0];


internalField   nonuniform List<vector> 
13917
(
(0 -0.0441608 0)
(0 -0.0407645 0)
(0 -0.0444404 0)
(0 -0.0421757 0)
(0 -0.0263378 0)
(0 -0.0444389 0)
(0 -0.0444408 0)
(0 -0.0444403 0)
(0 -0.0444406 0)
(0 -0.0443251 0)
(0 -0.0444121 0)
(0 -0.0443012 0)
(0 -0.0422825 0)
(0 -0.0444418 0)
(0 -0.0436892 0)
(0 -0.0434818 0)
(0 -0.0412638 0)
(0 -0.0442493 0)
(0 -0.0442926 0)
(0 -0.0146874 0)
(0 -0.00494625 0)
(0 -0.0444409 0)
(0 -0.0217027 0)
(0 -0.04444 0)
(0 -0.0341766 0)
(0 -0.0444409 0)
(0 -0.044313 0)
(0 -0.0443704 0)
(0 -0.0444389 0)
(0 -0.0443749 0)
(0 -0.0441821 0)
(0 -0.0437287 0)
(0 -0.0442301 0)
(0 -0.043639 0)
(0 -0.0350611 0)
(0 -0.0444323 0)
(0 -0.0208478 0)
(0 -0.0444417 0)
(0 -0.0430031 0)
(0 -0.0444418 0)
(0 -0.00348656 0)
(0 -0.00199994 0)
(0 -0.0203063 0)
(0 -0.0444115 0)
(0 -0.0398542 0)
(0 -0.0438798 0)
(0 -0.0442393 0)
(0 -0.0443213 0)
(0 -0.0444417 0)
(0 -0.00345987 0)
(0 -0.0434901 0)
(0 -0.0413285 0)
(0 -0.0444418 0)
(0 -0.0437081 0)
(0 -0.0413841 0)
(0 -0.0435326 0)
(0 -0.0444099 0)
(0 -0.0390168 0)
(0 -0.0431995 0)
(0 -0.0395876 0)
(0 -0.0444396 0)
(0 -0.0408075 0)
(0 -0.0444418 0)
(0 -0.0155868 0)
(0 -0.0444383 0)
(0 -0.0444398 0)
(0 -0.0273554 0)
(0 -0.0351739 0)
(0 -0.0444129 0)
(0 -0.0441245 0)
(0 -0.0256336 0)
(0 -0.0444404 0)
(0 -0.0444418 0)
(0 -0.0337395 0)
(0 -0.0444417 0)
(0 -0.0443325 0)
(0 -0.0444418 0)
(0 -0.0418053 0)
(0 -0.0444409 0)
(0 -0.00920683 0)
(0 -0.0112092 0)
(0 -0.0262542 0)
(0 -0.044438 0)
(0 -0.0444417 0)
(0 -0.0444413 0)
(0 -0.0416505 0)
(0 -0.0133191 0)
(0 -0.0444395 0)
(0 -0.0434304 0)
(0 -0.0212243 0)
(0 -0.0444417 0)
(0 -0.0443619 0)
(0 -0.0370456 0)
(0 -0.0426669 0)
(0 -0.0444397 0)
(0 -0.0444381 0)
(0 -0.0443929 0)
(0 -0.0443001 0)
(0 -0.0444023 0)
(0 -0.0444212 0)
(0 -0.0183568 0)
(0 -0.0441582 0)
(0 -0.0444107 0)
(0 -0.0422185 0)
(0 -0.0292489 0)
(0 -0.0444402 0)
(0 -0.0444364 0)
(0 -0.0443312 0)
(0 -0.0413495 0)
(0 -0.044222 0)
(0 -0.0444417 0)
(0 -0.0444418 0)
(0 -0.0443548 0)
(0 -0.0444404 0)
(0 -0.0425772 0)
(0 -0.0444417 0)
(0 -0.030259 0)
(0 -0.0444414 0)
(0 -0.0444418 0)
(0 -0.0437026 0)
(0 -0.00387806 0)
(0 -0.044411 0)
(0 -0.0444418 0)
(0 -0.0443606 0)
(0 -0.00317716 0)
(0 -0.0425222 0)
(0 -0.0397098 0)
(0 -0.0025652 0)
(0 -0.0120958 0)
(0 -0.0444389 0)
(0 -0.0444417 0)
(0 -0.0424375 0)
(0 -0.0400475 0)
(0 -0.00406049 0)
(0 -0.044434 0)
(0 -0.0444399 0)
(0 -0.0441692 0)
(0 -0.0444247 0)
(0 -0.0278992 0)
(0 -0.0436825 0)
(0 -0.0444297 0)
(0 -0.0333334 0)
(0 -0.0419448 0)
(0 -0.0444198 0)
(0 -0.0354964 0)
(0 -0.0444393 0)
(0 -0.0444388 0)
(0 -0.041134 0)
(0 -0.031571 0)
(0 -0.0438051 0)
(0 -0.0442615 0)
(0 -0.0444417 0)
(0 -0.0443583 0)
(0 -0.0442407 0)
(0 -0.0435958 0)
(0 -0.0444415 0)
(0 -0.0441004 0)
(0 -0.0444348 0)
(0 -0.0444418 0)
(0 -0.044434 0)
(0 -0.0433164 0)
(0 -0.0443075 0)
(0 -0.00836718 0)
(0 -0.044389 0)
(0 -0.0443489 0)
(0 -0.0443991 0)
(0 -0.0421639 0)
(0 -0.0442821 0)
(0 -0.0381339 0)
(0 -0.0441838 0)
(0 -0.0442332 0)
(0 -0.0444418 0)
(0 -0.0443652 0)
(0 -0.0420961 0)
(0 -0.0444385 0)
(0 -0.0442939 0)
(0 -0.0444417 0)
(0 -0.0444416 0)
(0 -0.044439 0)
(0 -0.0371624 0)
(0 -0.0443668 0)
(0 -0.0442002 0)
(0 -0.0333237 0)
(0 -0.0141824 0)
(0 -0.0440319 0)
(0 -0.0444406 0)
(0 -0.0444232 0)
(0 -0.0444414 0)
(0 -0.0440476 0)
(0 -0.0443967 0)
(0 -0.0444305 0)
(0 -0.0444412 0)
(0 -0.0444233 0)
(0 -0.0230335 0)
(0 -0.0444252 0)
(0 -0.0442971 0)
(0 -0.00119113 0)
(0 -0.0373838 0)
(0 -0.0444317 0)
(0 -0.0444395 0)
(0 -0.0433027 0)
(0 -0.00324751 0)
(0 -0.0442519 0)
(0 -0.0442522 0)
(0 -0.0444418 0)
(0 -0.0444325 0)
(0 -0.0346436 0)
(0 -0.0393392 0)
(0 -0.0442947 0)
(0 -0.0444404 0)
(0 -0.0417897 0)
(0 -0.0444409 0)
(0 -0.0444418 0)
(0 -0.0443943 0)
(0 -0.0293842 0)
(0 -0.044439 0)
(0 -0.0442576 0)
(0 -0.0444417 0)
(0 -0.0333158 0)
(0 -0.0444391 0)
(0 -0.0367508 0)
(0 -0.0443626 0)
(0 -0.0041454 0)
(0 -0.0444417 0)
(0 -0.0444403 0)
(0 -0.0435532 0)
(0 -0.0444383 0)
(0 -0.0436366 0)
(0 -0.0287359 0)
(0 -0.0444314 0)
(0 -0.0443602 0)
(0 -0.0440336 0)
(0 -0.0444399 0)
(0 -0.0444418 0)
(0 -0.0115512 0)
(0 -0.0437712 0)
(0 -0.0444417 0)
(0 -0.0444414 0)
(0 -0.00944802 0)
(0 -0.0230203 0)
(0 -0.0444418 0)
(0 -0.0444013 0)
(0 -0.000584955 0)
(0 -0.0444278 0)
(0 -0.0443668 0)
(0 -0.0442938 0)
(0 -0.0440928 0)
(0 -0.00899655 0)
(0 -0.0443008 0)
(0 -0.0444418 0)
(0 -0.0385592 0)
(0 -0.0443891 0)
(0 -0.0444287 0)
(0 -0.0394726 0)
(0 -0.0387561 0)
(0 -0.0443168 0)
(0 -0.0444417 0)
(0 -0.0443507 0)
(0 -0.0440619 0)
(0 -0.0437081 0)
(0 -0.000994004 0)
(0 -0.0444418 0)
(0 -0.0444391 0)
(0 -0.0444299 0)
(0 -0.0288775 0)
(0 -0.0444418 0)
(0 -0.0444418 0)
(0 -0.0444357 0)
(0 -0.0444411 0)
(0 -0.0443434 0)
(0 -0.0107497 0)
(0 -0.00382456 0)
(0 -0.0442408 0)
(0 -0.0444417 0)
(0 -0.044391 0)
(0 -0.0431155 0)
(0 -0.0444335 0)
(0 -0.0440937 0)
(0 -0.00930029 0)
(0 -0.0444376 0)
(0 -0.0144439 0)
(0 -0.0444388 0)
(0 -0.0432201 0)
(0 -0.000584934 0)
(0 -0.0438035 0)
(0 -0.0442509 0)
(0 -0.0443075 0)
(0 -0.044429 0)
(0 -0.0440999 0)
(0 -0.0394306 0)
(0 -0.0444292 0)
(0 -0.0444398 0)
(0 -0.0444396 0)
(0 -0.0329181 0)
(0 -0.0444362 0)
(0 -0.0189691 0)
(0 -0.0394018 0)
(0 -0.0295153 0)
(0 -0.0444395 0)
(0 -0.00335577 0)
(0 -0.0443702 0)
(0 -0.0440689 0)
(0 -0.0378142 0)
(0 -0.0442618 0)
(0 -0.0425328 0)
(0 -0.0444417 0)
(0 -0.0442786 0)
(0 -0.0443522 0)
(0 -0.0359447 0)
(0 -0.0384031 0)
(0 -0.0444417 0)
(0 -0.0444418 0)
(0 -0.0307667 0)
(0 -0.00419227 0)
(0 -0.0444372 0)
(0 -0.036793 0)
(0 -0.0444417 0)
(0 -0.0355797 0)
(0 -0.0444417 0)
(0 -0.0406178 0)
(0 -0.0444303 0)
(0 -0.0439335 0)
(0 -0.0444417 0)
(0 -0.0432252 0)
(0 -0.044433 0)
(0 -0.0444369 0)
(0 -0.0437686 0)
(0 -0.0444004 0)
(0 -0.0444363 0)
(0 -0.0412375 0)
(0 -0.0444417 0)
(0 -0.0444239 0)
(0 -0.0444418 0)
(0 -0.0434803 0)
(0 -0.0444418 0)
(0 -0.0438075 0)
(0 -0.0444415 0)
(0 -0.0444354 0)
(0 -0.0444166 0)
(0 -0.044414 0)
(0 -0.0444407 0)
(0 -0.0121278 0)
(0 -0.0442489 0)
(0 -0.0444417 0)
(0 -0.0405527 0)
(0 -0.0429802 0)
(0 -0.0444418 0)
(0 -0.044434 0)
(0 -0.0418688 0)
(0 -0.044429 0)
(0 -0.0444386 0)
(0 -0.0159543 0)
(0 -0.0444418 0)
(0 -0.044431 0)
(0 -0.0153222 0)
(0 -0.0283016 0)
(0 -0.0180852 0)
(0 -0.0315689 0)
(0 -0.0444282 0)
(0 -0.0444388 0)
(0 -0.0444393 0)
(0 -0.0444417 0)
(0 -0.0323691 0)
(0 -0.0443945 0)
(0 -0.0444418 0)
(0 -0.0441382 0)
(0 -0.044441 0)
(0 -0.0444417 0)
(0 -0.0444405 0)
(0 -0.0187295 0)
(0 -0.0444285 0)
(0 -0.0281031 0)
(0 -0.0444385 0)
(0 -0.0395429 0)
(0 -0.0444417 0)
(0 -0.04437 0)
(0 -0.0428366 0)
(0 -0.0145125 0)
(0 -0.0442807 0)
(0 -0.0443742 0)
(0 -0.0443305 0)
(0 -0.0444411 0)
(0 -0.0444416 0)
(0 -0.0444417 0)
(0 -0.0443153 0)
(0 -0.0443131 0)
(0 -0.0223331 0)
(0 -0.0444414 0)
(0 -0.044441 0)
(0 -0.0394889 0)
(0 -0.0444317 0)
(0 -0.0315706 0)
(0 -0.0444261 0)
(0 -0.040559 0)
(0 -0.0105387 0)
(0 -0.0425846 0)
(0 -0.044441 0)
(0 -0.0425721 0)
(0 -0.0444417 0)
(0 -0.0444416 0)
(0 -0.0444049 0)
(0 -0.0444383 0)
(0 -0.0411184 0)
(0 -0.0444384 0)
(0 -0.044438 0)
(0 -0.0248725 0)
(0 -0.0444347 0)
(0 -0.0403505 0)
(0 -0.0334621 0)
(0 -0.0443734 0)
(0 -0.00143163 0)
(0 -0.0346825 0)
(0 -0.0277889 0)
(0 -0.0444261 0)
(0 -0.00750989 0)
(0 -0.0444418 0)
(0 -0.0444403 0)
(0 -0.0444418 0)
(0 -0.0444224 0)
(0 -0.0444416 0)
(0 -0.0444418 0)
(0 -0.0441209 0)
(0 -0.0317413 0)
(0 -0.0444081 0)
(0 -0.0429335 0)
(0 -0.0438649 0)
(0 -0.0240092 0)
(0 -0.0444392 0)
(0 -0.0444407 0)
(0 -0.0444398 0)
(0 -0.0435124 0)
(0 -0.0443816 0)
(0 -0.043398 0)
(0 -0.043105 0)
(0 -0.0443256 0)
(0 -0.0424965 0)
(0 -0.0444294 0)
(0 -0.0412221 0)
(0 -0.00404622 0)
(0 -0.0444417 0)
(0 -0.0444417 0)
(0 -0.0444417 0)
(0 -0.0443998 0)
(0 -0.0444418 0)
(0 -0.0444417 0)
(0 -0.0444416 0)
(0 -0.0444418 0)
(0 -0.0117132 0)
(0 -0.0442696 0)
(0 -0.0424627 0)
(0 -0.0397177 0)
(0 -0.0444316 0)
(0 -0.0442492 0)
(0 -0.00427445 0)
(0 -0.0442952 0)
(0 -0.044097 0)
(0 -0.0444417 0)
(0 -0.0255445 0)
(0 -0.0443878 0)
(0 -0.0444416 0)
(0 -0.0444342 0)
(0 -0.0444418 0)
(0 -0.00676588 0)
(0 -0.0396341 0)
(0 -0.00215412 0)
(0 -0.0441011 0)
(0 -0.017782 0)
(0 -0.0444403 0)
(0 -0.0444389 0)
(0 -0.0440693 0)
(0 -0.0444414 0)
(0 -0.0435052 0)
(0 -0.0443912 0)
(0 -0.0444416 0)
(0 -0.0444382 0)
(0 -0.0444028 0)
(0 -0.0444307 0)
(0 -0.0443906 0)
(0 -0.0442889 0)
(0 -0.0444075 0)
(0 -0.0441297 0)
(0 -0.044412 0)
(0 -0.0444387 0)
(0 -0.0441842 0)
(0 -0.0443497 0)
(0 -0.00403227 0)
(0 -0.0444329 0)
(0 -0.0435713 0)
(0 -0.0332077 0)
(0 -0.0440755 0)
(0 -0.0419595 0)
(0 -0.0444418 0)
(0 -0.0444403 0)
(0 -0.0363881 0)
(0 -0.00758866 0)
(0 -0.0444401 0)
(0 -0.0444418 0)
(0 -0.00112722 0)
(0 -0.0444418 0)
(0 -0.041713 0)
(0 -0.044416 0)
(0 -0.0370162 0)
(0 -0.0444418 0)
(0 -0.0444338 0)
(0 -0.0437937 0)
(0 -0.0411507 0)
(0 -0.0444416 0)
(0 -0.0444201 0)
(0 -0.0444418 0)
(0 -0.0012724 0)
(0 -0.0444418 0)
(0 -0.0444416 0)
(0 -0.0444374 0)
(0 -0.0333822 0)
(0 -0.0444414 0)
(0 -0.0444406 0)
(0 -0.0441396 0)
(0 -0.0284374 0)
(0 -0.0413209 0)
(0 -0.0443309 0)
(0 -0.044428 0)
(0 -0.00538954 0)
(0 -0.0275232 0)
(0 -0.00874757 0)
(0 -0.00916296 0)
(0 -0.0444418 0)
(0 -0.0444312 0)
(0 -0.0441216 0)
(0 -0.0444223 0)
(0 -0.00279465 0)
(0 -0.0176119 0)
(0 -0.0443776 0)
(0 -0.0444411 0)
(0 -0.0439556 0)
(0 -0.0384368 0)
(0 -0.0336004 0)
(0 -0.0316878 0)
(0 -0.0444378 0)
(0 -0.0444411 0)
(0 -0.0124935 0)
(0 -0.0316812 0)
(0 -0.0444283 0)
(0 -0.0441166 0)
(0 -0.0439307 0)
(0 -0.0394537 0)
(0 -0.0426497 0)
(0 -0.0436853 0)
(0 -0.0443456 0)
(0 -0.0444348 0)
(0 -0.0444241 0)
(0 -0.0444105 0)
(0 -0.0443737 0)
(0 -0.0444331 0)
(0 -0.0443481 0)
(0 -0.0327167 0)
(0 -0.0444418 0)
(0 -0.0313033 0)
(0 -0.0430819 0)
(0 -0.0427653 0)
(0 -0.0444326 0)
(0 -0.0443901 0)
(0 -0.00552671 0)
(0 -0.0444333 0)
(0 -0.0443853 0)
(0 -0.0444417 0)
(0 -0.0443732 0)
(0 -0.0442344 0)
(0 -0.0441235 0)
(0 -0.0156182 0)
(0 -0.0444399 0)
(0 -0.0444312 0)
(0 -0.0444413 0)
(0 -0.0409846 0)
(0 -0.0437796 0)
(0 -0.0444236 0)
(0 -0.0444417 0)
(0 -0.0444418 0)
(0 -0.0443123 0)
(0 -0.0444049 0)
(0 -0.0434705 0)
(0 -0.0430103 0)
(0 -0.0396298 0)
(0 -0.0443645 0)
(0 -0.0444153 0)
(0 -0.0400378 0)
(0 -0.0442497 0)
(0 -0.0444278 0)
(0 -0.0444412 0)
(0 -0.0444417 0)
(0 -0.0431119 0)
(0 -0.044388 0)
(0 -0.0444329 0)
(0 -0.0438891 0)
(0 -0.0415992 0)
(0 -0.0444411 0)
(0 -0.0444393 0)
(0 -0.0444397 0)
(0 -0.044421 0)
(0 -0.0130857 0)
(0 -0.0444418 0)
(0 -0.0443259 0)
(0 -0.00415213 0)
(0 -0.0439124 0)
(0 -0.0443379 0)
(0 -0.0442066 0)
(0 -0.0443699 0)
(0 -0.044441 0)
(0 -0.0444047 0)
(0 -0.0440403 0)
(0 -0.0444399 0)
(0 -0.0422989 0)
(0 -0.0444418 0)
(0 -0.00877424 0)
(0 -0.0133543 0)
(0 -0.0444365 0)
(0 -0.0444394 0)
(0 -0.0444394 0)
(0 -0.0422999 0)
(0 -0.0419552 0)
(0 -0.0312825 0)
(0 -0.0441109 0)
(0 -0.0444418 0)
(0 -0.0443945 0)
(0 -0.0430853 0)
(0 -0.0443983 0)
(0 -0.0442743 0)
(0 -0.0373205 0)
(0 -0.0444382 0)
(0 -0.044392 0)
(0 -0.0444296 0)
(0 -0.0338895 0)
(0 -0.0444035 0)
(0 -0.0419341 0)
(0 -0.0444415 0)
(0 -0.0443299 0)
(0 -0.0443862 0)
(0 -0.0438067 0)
(0 -0.0101828 0)
(0 -0.0322618 0)
(0 -0.0399425 0)
(0 -0.0444146 0)
(0 -0.0439023 0)
(0 -0.0444236 0)
(0 -0.044441 0)
(0 -0.044274 0)
(0 -0.0156568 0)
(0 -0.0444038 0)
(0 -0.0444397 0)
(0 -0.0444331 0)
(0 -0.0383095 0)
(0 -0.0438376 0)
(0 -0.0273549 0)
(0 -0.0436318 0)
(0 -0.0432715 0)
(0 -0.0444407 0)
(0 -0.0101949 0)
(0 -0.0444393 0)
(0 -0.0435972 0)
(0 -0.0444118 0)
(0 -0.0443641 0)
(0 -0.0444418 0)
(0 -0.0443862 0)
(0 -0.0411243 0)
(0 -0.0444417 0)
(0 -0.0444418 0)
(0 -0.0394799 0)
(0 -0.0427079 0)
(0 -0.0444337 0)
(0 -0.044418 0)
(0 -0.0443877 0)
(0 -0.0016172 0)
(0 -0.0412294 0)
(0 -0.0444278 0)
(0 -0.0429137 0)
(0 -0.044325 0)
(0 -0.0443041 0)
(0 -0.0326914 0)
(0 -0.044252 0)
(0 -0.0444403 0)
(0 -0.0381635 0)
(0 -0.0416765 0)
(0 -0.00916413 0)
(0 -0.0444418 0)
(0 -0.00515603 0)
(0 -0.0434293 0)
(0 -0.0444418 0)
(0 -0.0429076 0)
(0 -0.0444391 0)
(0 -0.0436159 0)
(0 -0.0442519 0)
(0 -0.00956201 0)
(0 -0.0443184 0)
(0 -0.028966 0)
(0 -0.0442846 0)
(0 -0.00675727 0)
(0 -0.0443852 0)
(0 -0.0416627 0)
(0 -0.0444414 0)
(0 -0.0444408 0)
(0 -0.0444412 0)
(0 -0.00219018 0)
(0 -0.0131783 0)
(0 -0.0443374 0)
(0 -0.0442387 0)
(0 -0.0444418 0)
(0 -0.0444409 0)
(0 -0.0442476 0)
(0 -0.0339958 0)
(0 -0.0444247 0)
(0 -0.0444399 0)
(0 -0.0444287 0)
(0 -0.0444214 0)
(0 -0.0442244 0)
(0 -0.0444408 0)
(0 -0.0441598 0)
(0 -0.0440633 0)
(0 -0.0444 0)
(0 -0.0444299 0)
(0 -0.0442353 0)
(0 -0.0444407 0)
(0 -0.0442313 0)
(0 -0.04225 0)
(0 -0.0443468 0)
(0 -0.0437965 0)
(0 -0.0355247 0)
(0 -0.0435967 0)
(0 -0.0442148 0)
(0 -0.043764 0)
(0 -0.0295679 0)
(0 -0.00299573 0)
(0 -0.0442751 0)
(0 -0.0422778 0)
(0 -0.0443314 0)
(0 -0.0334781 0)
(0 -0.0307062 0)
(0 -0.00423204 0)
(0 -0.0426506 0)
(0 -0.0246815 0)
(0 -0.0435187 0)
(0 -0.00955893 0)
(0 -0.0444418 0)
(0 -0.0442912 0)
(0 -0.0444373 0)
(0 -0.0174731 0)
(0 -0.00604631 0)
(0 -0.0443483 0)
(0 -0.0442992 0)
(0 -0.0422484 0)
(0 -0.0444382 0)
(0 -0.0443644 0)
(0 -0.0444378 0)
(0 -0.0436255 0)
(0 -0.0443918 0)
(0 -0.0410567 0)
(0 -0.00453602 0)
(0 -0.00832768 0)
(0 -0.042558 0)
(0 -0.0444418 0)
(0 -0.00521739 0)
(0 -0.0444349 0)
(0 -0.0435841 0)
(0 -0.0444418 0)
(0 -0.0443349 0)
(0 -0.044368 0)
(0 -0.0444095 0)
(0 -0.0260245 0)
(0 -0.000183737 0)
(0 -0.0442998 0)
(0 -0.0352126 0)
(0 -0.0416237 0)
(0 -0.0444374 0)
(0 -0.0422381 0)
(0 -0.0180196 0)
(0 -0.043668 0)
(0 -0.020927 0)
(0 -0.00641832 0)
(0 -0.0437371 0)
(0 -0.0439431 0)
(0 -0.0444418 0)
(0 -0.0440522 0)
(0 -0.0381771 0)
(0 -0.00426472 0)
(0 -0.0444416 0)
(0 -0.0444169 0)
(0 -0.040783 0)
(0 -0.0408669 0)
(0 -0.0444377 0)
(0 -0.0444334 0)
(0 -0.0444418 0)
(0 -0.0442216 0)
(0 -0.0422981 0)
(0 -0.0118189 0)
(0 -0.0076004 0)
(0 -0.0441971 0)
(0 -0.0440779 0)
(0 -0.0444271 0)
(0 -0.0435501 0)
(0 -0.0444418 0)
(0 -0.0411845 0)
(0 -0.043066 0)
(0 -0.0444418 0)
(0 -0.0313421 0)
(0 -0.0436073 0)
(0 -0.0386933 0)
(0 -0.00498124 0)
(0 -0.0442061 0)
(0 -0.0443218 0)
(0 -0.0413735 0)
(0 -0.0444394 0)
(0 -0.0444417 0)
(0 -0.0443669 0)
(0 -0.0330916 0)
(0 -0.0282236 0)
(0 -0.0443933 0)
(0 -0.0444344 0)
(0 -0.00174212 0)
(0 -0.0444319 0)
(0 -0.0276309 0)
(0 -0.0441901 0)
(0 -0.0360931 0)
(0 -0.0362594 0)
(0 -0.0444295 0)
(0 -0.0390638 0)
(0 -0.0444357 0)
(0 -0.0441301 0)
(0 -0.00434239 0)
(0 -0.0212048 0)
(0 -0.0381507 0)
(0 -0.0340183 0)
(0 -0.0415548 0)
(0 -0.044441 0)
(0 -0.0377096 0)
(0 -0.0352045 0)
(0 -0.0444409 0)
(0 -0.0444398 0)
(0 -0.0440726 0)
(0 -0.0442239 0)
(0 -0.0443159 0)
(0 -0.0431733 0)
(0 -0.0338591 0)
(0 -0.0439067 0)
(0 -0.0444418 0)
(0 -0.0443895 0)
(0 -0.0228954 0)
(0 -0.0409613 0)
(0 -0.0444408 0)
(0 -0.0440338 0)
(0 -0.0444416 0)
(0 -0.00534269 0)
(0 -0.0424 0)
(0 -0.0444418 0)
(0 -0.0439544 0)
(0 -0.0415028 0)
(0 -0.0444416 0)
(0 -0.0444413 0)
(0 -0.0336934 0)
(0 -0.0443954 0)
(0 -0.00885086 0)
(0 -0.0388194 0)
(0 -0.0184195 0)
(0 -0.0444418 0)
(0 -0.0238403 0)
(0 -0.0383411 0)
(0 -0.033855 0)
(0 -0.0444368 0)
(0 -0.0428288 0)
(0 -0.0444171 0)
(0 -0.0443909 0)
(0 -0.0363408 0)
(0 -0.0441694 0)
(0 -0.0119227 0)
(0 -0.0444417 0)
(0 -0.0249256 0)
(0 -0.0379503 0)
(0 -0.0179118 0)
(0 -0.0443962 0)
(0 -0.0186881 0)
(0 -0.0444062 0)
(0 -0.0444418 0)
(0 -0.0444397 0)
(0 -0.0437896 0)
(0 -0.0444306 0)
(0 -0.0444418 0)
(0 -0.0382861 0)
(0 -0.0444418 0)
(0 -0.04444 0)
(0 -0.0444418 0)
(0 -0.0444416 0)
(0 -0.044441 0)
(0 -0.0444417 0)
(0 -0.0444002 0)
(0 -0.0414007 0)
(0 -0.0444411 0)
(0 -0.0439371 0)
(0 -0.0444411 0)
(0 -0.0329664 0)
(0 -0.0370442 0)
(0 -0.0408883 0)
(0 -0.0127182 0)
(0 -0.0433512 0)
(0 -0.0441061 0)
(0 -0.0444418 0)
(0 -0.0366902 0)
(0 -0.0304529 0)
(0 -0.0444418 0)
(0 -0.0444318 0)
(0 -0.0380948 0)
(0 -0.0442704 0)
(0 -0.0438036 0)
(0 -0.0404595 0)
(0 -0.0444408 0)
(0 -0.0442766 0)
(0 -0.0431737 0)
(0 -0.0428126 0)
(0 -0.0444417 0)
(0 -0.0444418 0)
(0 -0.0444412 0)
(0 -0.0357965 0)
(0 -0.0444192 0)
(0 -0.0443811 0)
(0 -0.0444416 0)
(0 -0.0444405 0)
(0 -0.0443586 0)
(0 -0.037086 0)
(0 -0.0412183 0)
(0 -0.0411583 0)
(0 -0.00845988 0)
(0 -0.0427114 0)
(0 -0.0102813 0)
(0 -0.0436656 0)
(0 -0.0441475 0)
(0 -0.0444413 0)
(0 -0.0443994 0)
(0 -0.0384324 0)
(0 -0.0443881 0)
(0 -0.0444416 0)
(0 -0.0441803 0)
(0 -0.0411692 0)
(0 -0.0444418 0)
(0 -0.037468 0)
(0 -0.0414265 0)
(0 -0.0442692 0)
(0 -0.0444412 0)
(0 -0.0188095 0)
(0 -0.0341562 0)
(0 -0.0444409 0)
(0 -0.0444288 0)
(0 -0.0444324 0)
(0 -0.044382 0)
(0 -0.0444319 0)
(0 -0.0333275 0)
(0 -0.0444106 0)
(0 -0.0413828 0)
(0 -0.0256199 0)
(0 -0.0413903 0)
(0 -0.0444405 0)
(0 -0.0444418 0)
(0 -0.0353857 0)
(0 -0.0220469 0)
(0 -0.0390239 0)
(0 -0.0444342 0)
(0 -0.0425449 0)
(0 -0.0437847 0)
(0 -0.0346297 0)
(0 -0.0416825 0)
(0 -0.0444086 0)
(0 -0.0366394 0)
(0 -0.0442936 0)
(0 -0.0444297 0)
(0 -0.0444416 0)
(0 -0.0392179 0)
(0 -0.0443855 0)
(0 -0.043198 0)
(0 -0.0444418 0)
(0 -0.0444417 0)
(0 -0.0341968 0)
(0 -0.0444417 0)
(0 -0.0443271 0)
(0 -0.0444412 0)
(0 -0.0189751 0)
(0 -0.0444411 0)
(0 -0.00900826 0)
(0 -0.0435004 0)
(0 -0.0442048 0)
(0 -0.0443806 0)
(0 -0.0444403 0)
(0 -0.0444304 0)
(0 -0.0444151 0)
(0 -0.0444394 0)
(0 -0.00936696 0)
(0 -0.0444255 0)
(0 -0.036161 0)
(0 -0.0437634 0)
(0 -0.044441 0)
(0 -0.0399209 0)
(0 -0.00788891 0)
(0 -0.0421586 0)
(0 -0.0404059 0)
(0 -0.0444413 0)
(0 -0.0235158 0)
(0 -0.0225451 0)
(0 -0.0442615 0)
(0 -0.0442207 0)
(0 -0.0442219 0)
(0 -0.0444395 0)
(0 -0.0443991 0)
(0 -0.0444418 0)
(0 -0.0442905 0)
(0 -0.0440073 0)
(0 -0.0440429 0)
(0 -0.0444418 0)
(0 -0.0440874 0)
(0 -0.0444389 0)
(0 -0.044441 0)
(0 -0.0431685 0)
(0 -0.0367685 0)
(0 -0.0444416 0)
(0 -0.0444291 0)
(0 -0.0411311 0)
(0 -0.0443835 0)
(0 -0.0439787 0)
(0 -0.0405266 0)
(0 -0.0434033 0)
(0 -0.0405875 0)
(0 -0.0441971 0)
(0 -0.000420903 0)
(0 -0.044216 0)
(0 -0.0444228 0)
(0 -0.0278427 0)
(0 -0.0442931 0)
(0 -0.0363978 0)
(0 -0.0443695 0)
(0 -0.00798024 0)
(0 -0.0437294 0)
(0 -0.0442763 0)
(0 -0.0423957 0)
(0 -0.039769 0)
(0 -0.0354905 0)
(0 -0.0444408 0)
(0 -0.0443566 0)
(0 -0.0444389 0)
(0 -0.0351322 0)
(0 -0.0404708 0)
(0 -0.0442827 0)
(0 -0.0385243 0)
(0 -0.0443656 0)
(0 -0.0443624 0)
(0 -0.0404761 0)
(0 -0.044371 0)
(0 -0.0360242 0)
(0 -0.0444386 0)
(0 -0.0409253 0)
(0 -0.0440218 0)
(0 -0.0444418 0)
(0 -0.0444246 0)
(0 -0.0338195 0)
(0 -0.0430071 0)
(0 -0.0444418 0)
(0 -0.0252493 0)
(0 -0.0277388 0)
(0 -0.0444416 0)
(0 -0.0444417 0)
(0 -0.0433128 0)
(0 -0.044412 0)
(0 -0.0146165 0)
(0 -0.039719 0)
(0 -0.0444404 0)
(0 -0.0424088 0)
(0 -0.0262199 0)
(0 -0.0444282 0)
(0 -0.0365994 0)
(0 -0.0444338 0)
(0 -0.0124662 0)
(0 -0.0255661 0)
(0 -0.0409064 0)
(0 -0.0444021 0)
(0 -0.0444417 0)
(0 -0.0400896 0)
(0 -0.0412662 0)
(0 -0.0329673 0)
(0 -0.0436482 0)
(0 -0.00445782 0)
(0 -0.0444403 0)
(0 -0.0442808 0)
(0 -0.00150918 0)
(0 -0.044439 0)
(0 -0.0443307 0)
(0 -0.0444271 0)
(0 -0.0444416 0)
(0 -0.0444413 0)
(0 -0.0349056 0)
(0 -0.0409465 0)
(0 -0.0395133 0)
(0 -0.0444384 0)
(0 -0.0437345 0)
(0 -0.0444417 0)
(0 -0.0444418 0)
(0 -0.0432155 0)
(0 -0.0444411 0)
(0 -0.0444416 0)
(0 -0.0442187 0)
(0 -0.0444082 0)
(0 -0.0443774 0)
(0 -0.0444385 0)
(0 -0.0444402 0)
(0 -0.0443767 0)
(0 -0.0444349 0)
(0 -0.0444416 0)
(0 -0.044295 0)
(0 -0.0435359 0)
(0 -0.0444417 0)
(0 -0.0443729 0)
(0 -0.0332319 0)
(0 -0.0423454 0)
(0 -0.0444395 0)
(0 -0.0441963 0)
(0 -0.0360789 0)
(0 -0.0443285 0)
(0 -0.0443734 0)
(0 -0.044149 0)
(0 -0.0444418 0)
(0 -0.0430233 0)
(0 -0.0444389 0)
(0 -0.0440569 0)
(0 -0.0444283 0)
(0 -0.0443922 0)
(0 -0.0444206 0)
(0 -0.0437559 0)
(0 -0.0356575 0)
(0 -0.041989 0)
(0 -0.0444401 0)
(0 -0.0299326 0)
(0 -0.0432738 0)
(0 -0.00495352 0)
(0 -0.0426878 0)
(0 -0.0371056 0)
(0 -0.0442146 0)
(0 -0.0444096 0)
(0 -0.0444412 0)
(0 -0.044326 0)
(0 -0.0443824 0)
(0 -0.0444396 0)
(0 -0.0444337 0)
(0 -0.0371328 0)
(0 -0.044434 0)
(0 -0.0444403 0)
(0 -0.030501 0)
(0 -0.0279392 0)
(0 -0.0438539 0)
(0 -0.0444418 0)
(0 -0.00765922 0)
(0 -0.0443211 0)
(0 -0.0444358 0)
(0 -0.0442778 0)
(0 -0.0385125 0)
(0 -0.0419625 0)
(0 -0.0370148 0)
(0 -0.0443824 0)
(0 -0.0442201 0)
(0 -0.00993708 0)
(0 -0.0444414 0)
(0 -0.0444409 0)
(0 -0.044284 0)
(0 -0.0444328 0)
(0 -0.0443029 0)
(0 -0.0444386 0)
(0 -0.0428202 0)
(0 -0.0432488 0)
(0 -0.0444393 0)
(0 -0.0444332 0)
(0 -0.0443637 0)
(0 -0.0444407 0)
(0 -0.0437611 0)
(0 -0.00325112 0)
(0 -0.0385958 0)
(0 -0.0406596 0)
(0 -0.0364701 0)
(0 -0.0421203 0)
(0 -0.0443206 0)
(0 -0.0338721 0)
(0 -0.0443961 0)
(0 -0.0216282 0)
(0 -0.04372 0)
(0 -0.0356564 0)
(0 -0.0443628 0)
(0 -0.0443954 0)
(0 -0.0444336 0)
(0 -0.0379032 0)
(0 -0.0444214 0)
(0 -0.0386391 0)
(0 -0.044439 0)
(0 -0.032297 0)
(0 -0.0436203 0)
(0 -0.0233164 0)
(0 -0.0444244 0)
(0 -0.0444418 0)
(0 -0.0444061 0)
(0 -0.0341303 0)
(0 -0.0443982 0)
(0 -0.0394161 0)
(0 -0.0438563 0)
(0 -0.0444417 0)
(0 -0.0385493 0)
(0 -0.0413887 0)
(0 -0.0442019 0)
(0 -0.043897 0)
(0 -0.044441 0)
(0 -0.0341638 0)
(0 -0.0439873 0)
(0 -0.0418621 0)
(0 -0.028816 0)
(0 -0.0441395 0)
(0 -0.0418066 0)
(0 -0.0150185 0)
(0 -0.0430873 0)
(0 -0.0444418 0)
(0 -0.0431431 0)
(0 -0.0444289 0)
(0 -0.0444395 0)
(0 -0.0442426 0)
(0 -0.0444417 0)
(0 -0.0430701 0)
(0 -0.01402 0)
(0 -0.0440543 0)
(0 -0.0444418 0)
(0 -0.0421006 0)
(0 -0.0441744 0)
(0 -0.0441246 0)
(0 -0.0444392 0)
(0 -0.0334866 0)
(0 -0.0444418 0)
(0 -0.044301 0)
(0 -0.0443233 0)
(0 -0.0302027 0)
(0 -0.02066 0)
(0 -0.0444128 0)
(0 -0.0415915 0)
(0 -0.00224109 0)
(0 -0.0441947 0)
(0 -0.0326012 0)
(0 -0.043395 0)
(0 -0.0437576 0)
(0 -0.0443241 0)
(0 -0.0444367 0)
(0 -0.0444408 0)
(0 -0.0429388 0)
(0 -0.0443369 0)
(0 -0.0444348 0)
(0 -0.0444418 0)
(0 -0.0440407 0)
(0 -0.0444349 0)
(0 -0.0444417 0)
(0 -0.0440921 0)
(0 -0.0444391 0)
(0 -0.0431216 0)
(0 -0.0444411 0)
(0 -0.0444417 0)
(0 -0.0334945 0)
(0 -0.00222181 0)
(0 -0.0250692 0)
(0 -0.0412226 0)
(0 -0.044204 0)
(0 -0.0358711 0)
(0 -0.0431537 0)
(0 -0.0443577 0)
(0 -0.0424288 0)
(0 -0.0441959 0)
(0 -0.0444418 0)
(0 -0.0440708 0)
(0 -0.0428108 0)
(0 -0.0444406 0)
(0 -0.0415201 0)
(0 -0.0444418 0)
(0 -0.042784 0)
(0 -0.0443658 0)
(0 -0.0332671 0)
(0 -0.0444418 0)
(0 -0.0444418 0)
(0 -0.0395314 0)
(0 -0.04146 0)
(0 -0.0444407 0)
(0 -0.0440371 0)
(0 -0.0444416 0)
(0 -0.011371 0)
(0 -0.0367077 0)
(0 -0.0444412 0)
(0 -0.0415275 0)
(0 -0.04433 0)
(0 -0.0444417 0)
(0 -0.031194 0)
(0 -0.0442593 0)
(0 -0.0438126 0)
(0 -0.0214964 0)
(0 -0.00429219 0)
(0 -0.044441 0)
(0 -0.0444418 0)
(0 -0.0407362 0)
(0 -0.0424783 0)
(0 -0.0394102 0)
(0 -0.0436132 0)
(0 -0.0442409 0)
(0 -0.0444418 0)
(0 -0.0422622 0)
(0 -0.0444413 0)
(0 -0.044436 0)
(0 -0.0444286 0)
(0 -0.0444342 0)
(0 -0.0414624 0)
(0 -0.0443935 0)
(0 -0.0444307 0)
(0 -0.0440042 0)
(0 -0.0302132 0)
(0 -0.0442823 0)
(0 -0.0444417 0)
(0 -0.0429753 0)
(0 -0.0443394 0)
(0 -0.0444401 0)
(0 -0.0444414 0)
(0 -0.0444365 0)
(0 -0.0435824 0)
(0 -0.0411308 0)
(0 -0.0086721 0)
(0 -0.0313865 0)
(0 -0.0444418 0)
(0 -0.0442587 0)
(0 -0.0426111 0)
(0 -0.0416247 0)
(0 -0.0430297 0)
(0 -0.00392442 0)
(0 -0.0381652 0)
(0 -0.0351831 0)
(0 -0.0443303 0)
(0 -0.0440232 0)
(0 -0.0444389 0)
(0 -0.04434 0)
(0 -0.0444417 0)
(0 -0.0444417 0)
(0 -0.0440303 0)
(0 -0.0442272 0)
(0 -0.0182536 0)
(0 -0.0438559 0)
(0 -0.0444418 0)
(0 -0.0405826 0)
(0 -0.0429298 0)
(0 -0.0442317 0)
(0 -0.0443905 0)
(0 -0.0443722 0)
(0 -0.0444402 0)
(0 -0.0444288 0)
(0 -0.037472 0)
(0 -0.0444418 0)
(0 -0.020593 0)
(0 -0.0406551 0)
(0 -0.0443237 0)
(0 -0.00439215 0)
(0 -0.0385018 0)
(0 -0.0444117 0)
(0 -0.0444386 0)
(0 -0.0367925 0)
(0 -0.0444397 0)
(0 -0.0403332 0)
(0 -0.0347884 0)
(0 -0.0428384 0)
(0 -0.0444414 0)
(0 -0.0438261 0)
(0 -0.0427427 0)
(0 -0.0444395 0)
(0 -0.0422854 0)
(0 -0.0444265 0)
(0 -0.0444415 0)
(0 -0.00162112 0)
(0 -0.0443484 0)
(0 -0.0118221 0)
(0 -0.0444418 0)
(0 -0.0443275 0)
(0 -0.0355681 0)
(0 -0.0444406 0)
(0 -0.0442532 0)
(0 -0.0444068 0)
(0 -0.00300661 0)
(0 -0.0444418 0)
(0 -0.0439953 0)
(0 -0.0444377 0)
(0 -0.0416101 0)
(0 -0.0443989 0)
(0 -0.0444418 0)
(0 -0.0351175 0)
(0 -0.0444406 0)
(0 -0.0398538 0)
(0 -0.0443009 0)
(0 -0.0443661 0)
(0 -0.00122061 0)
(0 -0.0444415 0)
(0 -0.043018 0)
(0 -0.0443874 0)
(0 -0.0442753 0)
(0 -0.0444175 0)
(0 -0.044266 0)
(0 -0.044307 0)
(0 -0.042123 0)
(0 -0.0444401 0)
(0 -0.0440969 0)
(0 -0.0444418 0)
(0 -0.0440444 0)
(0 -0.0442977 0)
(0 -0.0389413 0)
(0 -0.0441915 0)
(0 -0.038333 0)
(0 -0.0443049 0)
(0 -0.04444 0)
(0 -0.0422799 0)
(0 -0.0337565 0)
(0 -0.0444418 0)
(0 -0.0418728 0)
(0 -0.0444356 0)
(0 -0.0414087 0)
(0 -0.0444399 0)
(0 -0.0444295 0)
(0 -0.0440612 0)
(0 -0.0299497 0)
(0 -0.0297637 0)
(0 -0.0260438 0)
(0 -0.0128419 0)
(0 -0.0443756 0)
(0 -0.0443641 0)
(0 -0.0442749 0)
(0 -0.0435002 0)
(0 -0.0143014 0)
(0 -0.0444331 0)
(0 -0.042531 0)
(0 -0.0440343 0)
(0 -0.0444337 0)
(0 -0.0376205 0)
(0 -0.0444415 0)
(0 -0.0442309 0)
(0 -0.0436738 0)
(0 -0.0444412 0)
(0 -0.0444418 0)
(0 -0.0444295 0)
(0 -0.0444397 0)
(0 -0.0444367 0)
(0 -0.0336313 0)
(0 -0.0444312 0)
(0 -0.0444417 0)
(0 -0.0444378 0)
(0 -0.011354 0)
(0 -0.0406823 0)
(0 -0.0443909 0)
(0 -0.0444407 0)
(0 -0.0444418 0)
(0 -0.0444323 0)
(0 -0.0402668 0)
(0 -0.0443496 0)
(0 -0.0441096 0)
(0 -0.0444416 0)
(0 -0.0444418 0)
(0 -0.0441262 0)
(0 -0.044397 0)
(0 -0.0431083 0)
(0 -0.0443599 0)
(0 -0.0443625 0)
(0 -0.012142 0)
(0 -0.0443779 0)
(0 -0.0444379 0)
(0 -0.0237493 0)
(0 -0.0444349 0)
(0 -0.00482889 0)
(0 -0.0388037 0)
(0 -0.0444418 0)
(0 -0.0444417 0)
(0 -0.0169602 0)
(0 -0.0404901 0)
(0 -0.0415235 0)
(0 -0.0366984 0)
(0 -0.0443052 0)
(0 -0.0444128 0)
(0 -0.0419181 0)
(0 -0.0249126 0)
(0 -0.01579 0)
(0 -0.0440922 0)
(0 -0.0437174 0)
(0 -0.0436922 0)
(0 -0.0444284 0)
(0 -0.0355735 0)
(0 -0.0444417 0)
(0 -0.0444416 0)
(0 -0.0444414 0)
(0 -0.0444284 0)
(0 -0.0442477 0)
(0 -0.0444319 0)
(0 -0.043939 0)
(0 -0.044441 0)
(0 -0.0444335 0)
(0 -0.0444367 0)
(0 -0.0415897 0)
(0 -0.0444406 0)
(0 -0.0444416 0)
(0 -0.0124012 0)
(0 -0.0286418 0)
(0 -0.0443767 0)
(0 -0.0444416 0)
(0 -0.0444382 0)
(0 -0.0364867 0)
(0 -0.0394504 0)
(0 -0.0444417 0)
(0 -0.0444382 0)
(0 -0.044436 0)
(0 -0.0430116 0)
(0 -0.0432332 0)
(0 -0.0444415 0)
(0 -0.040833 0)
(0 -0.0444416 0)
(0 -0.0444414 0)
(0 -0.0444326 0)
(0 -0.0444358 0)
(0 -0.0388327 0)
(0 -0.0340876 0)
(0 -0.0111183 0)
(0 -0.0437303 0)
(0 -0.0444418 0)
(0 -0.0440976 0)
(0 -0.0431705 0)
(0 -0.0421187 0)
(0 -0.044389 0)
(0 -0.0444418 0)
(0 -0.0440918 0)
(0 -0.0444383 0)
(0 -0.0444417 0)
(0 -0.0444418 0)
(0 -0.0444414 0)
(0 -0.0314398 0)
(0 -0.0107906 0)
(0 -0.0444398 0)
(0 -0.0215052 0)
(0 -0.0330693 0)
(0 -0.0426963 0)
(0 -0.0444418 0)
(0 -0.044054 0)
(0 -0.0444412 0)
(0 -0.0443954 0)
(0 -0.0311712 0)
(0 -0.044441 0)
(0 -0.0441149 0)
(0 -0.0370845 0)
(0 -0.0444416 0)
(0 -0.0444315 0)
(0 -0.0435469 0)
(0 -0.0397174 0)
(0 -0.0444417 0)
(0 -0.0444416 0)
(0 -0.0178964 0)
(0 -0.0444385 0)
(0 -0.0444365 0)
(0 -0.044441 0)
(0 -0.0444357 0)
(0 -0.0443676 0)
(0 -0.0366552 0)
(0 -0.0415576 0)
(0 -0.0444374 0)
(0 -0.0433631 0)
(0 -0.0444395 0)
(0 -0.0441578 0)
(0 -0.0444354 0)
(0 -0.0444276 0)
(0 -0.0424666 0)
(0 -0.043985 0)
(0 -0.0373698 0)
(0 -0.042286 0)
(0 -0.0444415 0)
(0 -0.0444418 0)
(0 -0.0313915 0)
(0 -0.0444416 0)
(0 -0.0441412 0)
(0 -0.039618 0)
(0 -0.0434846 0)
(0 -0.0304003 0)
(0 -0.0444077 0)
(0 -0.0414334 0)
(0 -0.0444416 0)
(0 -0.0443544 0)
(0 -0.0365627 0)
(0 -0.00556669 0)
(0 -0.0444154 0)
(0 -0.0444418 0)
(0 -0.0440881 0)
(0 -0.0431157 0)
(0 -0.0441688 0)
(0 -0.0380521 0)
(0 -0.0423197 0)
(0 -0.0435394 0)
(0 -0.0444418 0)
(0 -0.0444418 0)
(0 -0.0444416 0)
(0 -0.0198982 0)
(0 -0.0103772 0)
(0 -0.0415647 0)
(0 -0.0443946 0)
(0 -0.0292878 0)
(0 -0.0416594 0)
(0 -0.0444131 0)
(0 -0.0442756 0)
(0 -0.0444323 0)
(0 -0.0329082 0)
(0 -0.0444416 0)
(0 -0.0444418 0)
(0 -0.000402348 0)
(0 -0.0444418 0)
(0 -0.0443879 0)
(0 -0.0440307 0)
(0 -0.0444415 0)
(0 -0.0412909 0)
(0 -0.0444414 0)
(0 -0.0440144 0)
(0 -0.0427586 0)
(0 -0.043229 0)
(0 -0.0203986 0)
(0 -0.0444274 0)
(0 -0.00103424 0)
(0 -0.0414618 0)
(0 -0.0441 0)
(0 -0.0444417 0)
(0 -0.0444417 0)
(0 -0.00559403 0)
(0 -0.00263916 0)
(0 -0.0427105 0)
(0 -0.0392079 0)
(0 -0.0443964 0)
(0 -0.0415758 0)
(0 -0.0443526 0)
(0 -0.0424882 0)
(0 -0.0444417 0)
(0 -0.0414081 0)
(0 -0.0444412 0)
(0 -0.0224564 0)
(0 -0.044441 0)
(0 -0.0412697 0)
(0 -0.0209759 0)
(0 -0.0444409 0)
(0 -0.0444371 0)
(0 -0.0444233 0)
(0 -0.0444323 0)
(0 -0.04433 0)
(0 -0.0441115 0)
(0 -0.034569 0)
(0 -0.0444417 0)
(0 -0.0318507 0)
(0 -0.0291451 0)
(0 -0.0444139 0)
(0 -0.0442891 0)
(0 -0.0444411 0)
(0 -0.0444417 0)
(0 -0.04439 0)
(0 -0.0444388 0)
(0 -0.0443932 0)
(0 -0.0444314 0)
(0 -0.0050639 0)
(0 -0.0431488 0)
(0 -0.0436005 0)
(0 -0.0444417 0)
(0 -0.0435013 0)
(0 -0.0444417 0)
(0 -0.0444418 0)
(0 -0.0401257 0)
(0 -0.0382862 0)
(0 -0.0391943 0)
(0 -0.0444368 0)
(0 -0.0444414 0)
(0 -0.0423737 0)
(0 -0.022297 0)
(0 -0.0436237 0)
(0 -0.0437352 0)
(0 -0.0440779 0)
(0 -0.0444258 0)
(0 -0.0444302 0)
(0 -0.014773 0)
(0 -0.0444391 0)
(0 -0.0443566 0)
(0 -0.0444418 0)
(0 -0.0443308 0)
(0 -0.0427314 0)
(0 -0.0428658 0)
(0 -0.0444411 0)
(0 -0.00903635 0)
(0 -0.0443613 0)
(0 -0.0444404 0)
(0 -0.042298 0)
(0 -0.0434299 0)
(0 -0.0444139 0)
(0 -0.0444269 0)
(0 -0.0424085 0)
(0 -0.0444418 0)
(0 -0.043036 0)
(0 -0.0444261 0)
(0 -0.0440763 0)
(0 -0.044038 0)
(0 -0.0416599 0)
(0 -0.0444416 0)
(0 -0.022152 0)
(0 -0.0444118 0)
(0 -0.0444413 0)
(0 -0.0444414 0)
(0 -0.0442231 0)
(0 -0.0443212 0)
(0 -0.0432124 0)
(0 -0.0443389 0)
(0 -0.00562157 0)
(0 -0.0444414 0)
(0 -0.0434388 0)
(0 -0.03893 0)
(0 -0.0438072 0)
(0 -0.015424 0)
(0 -0.00171543 0)
(0 -0.0444418 0)
(0 -0.0293705 0)
(0 -0.0013552 0)
(0 -0.0395198 0)
(0 -0.0443988 0)