/*--------------------------------*- C++ -*----------------------------------*\
| =========                 |                                                 |
| \\      /  F ield         | OpenFOAM: The Open Source CFD Toolbox           |
|  \\    /   O peration     | Version:  v2012                                 |
|   \\  /    A nd           | Website:  www.openfoam.com                      |
|    \\/     M anipulation  |                                                 |
\*---------------------------------------------------------------------------*/
FoamFile
{
    version     2.0;
    format      ascii;
    class       volScalarField;
    location    "250";
    object      omega_0;
}
// * * * * * * * * * * * * * * * * * * * * * * * * * * * * * * * * * * * * * //

dimensions      [0 0 -1 0 0 0 0];


internalField   nonuniform List<scalar> 
13917
(
0.039781
0.0221969
4.58819
0.0236994
0.0221085
0.431489
4.21309
4.78128
5.48578
0.0643498
0.156143
0.0653397
0.0237766
11.4197
0.0261778
0.0250104
0.0223175
0.0525177
0.0641902
0.0221139
0.0222667
4.12524
0.022094
4.82591
0.0220129
3.98791
0.0410853
0.0534009
0.730857
0.0988505
0.0424014
0.0278907
0.0357756
0.0255861
0.0220285
1.68618
0.0221026
3.72276
0.0255613
6.26515
0.0219069
0.0222858
0.0215896
0.0811841
0.0220991
0.0272954
0.051701
0.0683012
2.84282
0.0220199
0.0268937
0.0223426
3.3398
0.0259462
0.0223304
0.0268408
0.152992
0.0220387
0.0250094
0.0220536
10.2892
0.0221999
23.1717
0.0221025
0.403369
16.5585
0.0221035
0.0220447
0.169299
0.0362989
0.0221163
5.60683
4.20909
0.0220189
2.90325
0.0767062
5.61432
0.022777
3.78285
0.0222367
0.0222046
0.022111
0.374801
3.67928
4.79203
0.0226805
0.0221803
13.7653
0.0266247
0.021581
3.98134
0.0857699
0.0218928
0.0230129
14.9637
0.374865
0.11729
0.0631214
0.133201
0.105719
0.0218214
0.0323361
0.0815658
0.0231927
0.0218039
5.88889
0.438166
0.0720625
0.022323
0.0452488
4.24856
5.48052
0.0836972
5.7443
0.0229549
3.19569
0.0220112
1.48301
5.05377
0.0259464
0.0222738
0.162808
4.54832
0.0503221
0.0219812
0.0228454
0.0220603
0.0219888
0.0216103
0.415417
3.5074
0.0228607
0.0221222
0.0222743
4.05445
4.80668
0.0403257
0.112577
0.0220965
0.0258701
0.574036
0.0217791
0.0225786
0.100722
0.0220448
5.83491
0.769666
0.0222895
0.0217509
0.0285259
0.055034
3.20725
0.0853534
0.0412213
0.0270122
6.48864
0.0348027
3.849
7.63628
3.93437
0.024223
0.0419172
0.0222367
0.112056
0.0820046
0.130691
0.0231625
0.0585709
0.0219263
0.0333252
0.0415214
6.64799
0.0911046
0.0226299
5.51162
0.045187
3.48979
1.95236
5.78738
0.0219322
0.0897036
0.0439217
0.0217732
0.0221713
0.0299286
4.12891
0.333555
8.40649
0.036433
0.121928
0.601088
5.31481
0.303511
0.0221044
0.118212
0.0402119
0.0224799
0.0219015
0.228873
6.75267
0.0262904
0.0220352
0.0543831
0.0543605
4.63819
1.93692
0.0220307
0.0220531
0.0616677
4.36022
0.0224795
4.2191
6.52402
0.122346
0.0218114
0.571477
0.0541001
6.0483
0.0219688
10.9607
0.0219261
0.0884862
0.021897
3.75392
5.92373
0.0253417
1.94601
0.0273424
0.0218149
1.33394
0.0893676
0.0360248
4.74475
8.74737
0.021777
0.0283863
3.91793
4.62455
0.0222288
0.0219516
4.9619
0.133129
0.0222668
0.305706
0.0941117
0.0407806
0.0370545
0.0222287
0.0449472
7.23491
0.0219738
0.114744
0.140567
0.0220373
0.0220276
0.0676552
3.7517
0.0803826
0.0302742
0.0263347
0.0222712
5.89523
7.01635
0.566067
0.0218225
4.47005
6.85033
4.29999
3.71077
0.081919
0.0222152
0.0219374
0.0519417
4.00064
0.116901
0.0247285
2.79495
0.0428147
0.0216028
8.49274
0.0220904
5.50253
0.0258173
0.022262
0.0273366
0.0408875
0.0419136
0.334378
0.0323735
0.0220742
0.317308
4.78313
6.9725
0.02197
4.64247
0.0221727
0.0220693
0.0220188
1.11347
0.0221058
0.0967225
0.036113
0.0219061
0.0545724
0.023143
2.39548
0.0440236
0.0785279
0.021818
0.0220181
4.33622
5.10169
0.0220055
0.0219171
8.55153
0.0219142
4.06012
0.0218103
3.74826
0.0224719
0.463943
0.0333226
3.02555
0.023924
1.86565
0.304074
0.0273413
0.132288
0.510158
0.0222781
3.60896
0.120831
5.64745
0.0247735
6.57892
0.0291113
4.68236
0.244373
0.110006
0.106945
4.46542
0.0222169
0.0431006
4.23394
0.0221761
0.0234837
6.16295
0.2786
0.0225569
0.248203
0.669171
0.0218627
6.11572
0.752162
0.0220838
0.0218982
0.0221802
0.0217458
0.331192
5.68867
0.695427
4.24273
0.0220169
0.128674
6.64471
0.0422624
4.12965
3.82838
5.79149
0.0217709
0.46375
0.0218781
11.0594
0.022051
3.76403
0.0940441
0.0247578
0.0221986
0.0586707
0.0980805
0.0710957
8.49523
4.4416
9.39573
0.0469615
0.0603016
0.0219594
4.78245
3.99932
0.0220612
0.848604
0.0220431
0.307404
0.0224679
0.0222268
0.0231839
3.54314
0.0231465
3.428
6.32313
0.138271
0.469368
0.0222665
0.484766
0.421338
0.0220398
0.309344
0.022159
0.0220285
0.0990625
0.0222616
0.0220173
0.0218744
0.345793
0.0222478
5.48288
3.88175
5.21232
0.303512
3.3391
5.99811
0.0416471
0.0220231
0.170544
0.0253363
0.0296725
0.0220969
5.75039
4.22228
3.94168
0.024976
0.106849
0.0245495
0.0260313
0.0706807
0.0229513
0.556787
0.0223102
0.0220969
3.98133
3.48811
3.48079
0.126557
6.23016
3.55828
4.18333
5.69031
0.0216397
0.0564881
0.0230112
0.0220833
0.847916
0.0526629
0.0219004
0.0611029
0.0395212
5.74987
0.0220356
0.114215
14.5837
0.728332
4.36517
0.0222552
0.0220678
0.0224448
0.0350166
0.0217735
4.17052
0.55033
0.0322117
5.37617
0.0267596
0.114504
4.32108
0.783436
0.134082
0.661674
0.113866
0.0597112
0.160245
0.0425697
0.156949
0.593332
0.0480846
0.0801662
0.0218755
2.27193
0.0276434
0.0216809
0.0335496
0.0228899
5.30732
5.76455
0.0219085
0.0216206
4.37464
8.55389
0.0222618
5.6861
0.0228997
0.22239
0.0219231
4.9145
3.11751
0.028453
0.0223401
3.30541
0.256189
6.96728
0.0222694
6.36667
2.45333
8.77333
0.0216906
4.57757
6.3079
0.0423513
0.0218914
0.0223056
0.0770394
0.335583
0.0218326
0.0219039
0.0219605
0.0219548
5.02999
0.921886
0.041761
0.323493
0.021969
0.0218285
0.104507
5.05806
0.0333056
0.0219407
0.0220243
0.022065
8.69513
5.87182
0.0221744
0.0220644
0.337301
0.0422219
0.033277
0.0220593
0.0232574
0.0269585
0.0782064
0.407113
0.331986
0.174329
0.0957158
2.11337
0.0765254
0.0219796
6.0215
0.0220685
0.0237676
0.0243452
2.08944
0.0753413
0.0218337
0.72899
0.111659
12.7748
0.0967406
0.0353936
0.0415742
0.0221898
6.74581
0.504103
4.02704
0.0222253
0.0294998
0.323501
3.81488
24.0092
0.0660826
0.146131
0.024955
0.0241613
0.0220619
0.0536324
0.0866321
0.0221605
0.0535835
0.134008
4.11072
6.27297
0.0240547
0.110683
2.06696
0.0284875
0.0223911
3.51954
6.34789
5.6163
0.291755
0.0216247
5.44014
0.0754391
0.0218684
0.0314777
0.073296
0.034432
0.0968485
3.79997
0.156094
0.0378335
6.68776
0.0231904
7.16981
0.0222375
0.0221678
4.69409
6.28129
0.632382
0.0231857
0.0225771
0.0220677
0.0434518
3.35923
0.123589
0.0243699
0.125115
0.0575137
0.0219277
2.00102
0.120092
0.672597
0.0219522
0.15118
0.0228667
10.26
0.0656364
0.0749196
0.0298185
0.0218834
0.0216939
0.0220975
0.118103
0.0276687
0.336874
7.18855
0.0577851
0.0218717
0.152513
0.657138
2.44492
0.0219484
0.0270657
0.0219116
0.0290253
0.0251744
6.12161
0.0222287
4.22709
0.0287509
0.154256
0.0867892
4.23199
0.0779872
0.0222591
4.2362
17.4054
0.0220442
0.0242651
3.00108
0.232662
0.11673
0.0222376
0.0223712
0.34662
0.0248991
0.0704706
0.0645542
0.0216963
0.0543253
4.63169
0.0219335
0.0230786
0.0219802
5.34348
0.0222656
0.0246433
6.01105
0.0233436
6.26343
0.027087
0.0364664
0.0219728
0.0502179
0.0220273
0.0582765
0.0218888
0.0847201
0.0229003
27.2316
3.00326
5.09439
0.0223224
0.0222062
0.0726192
0.0482162
4.70129
5.37274
0.0520268
0.0220322
0.34192
0.649361
0.589745
0.285107
0.0499066
3.76646
0.0392666
0.0407725
0.146357
0.181304
0.0513124
1.09489
0.0507855
0.0236399
0.0780401
0.0274536
0.0217611
0.028808
0.045211
0.027866
0.0220342
0.0219302
0.0577751
0.023398
0.071366
0.0220345
0.0220578
0.0222733
0.0231549
0.0215477
0.0258303
0.0220002
5.09161
0.0643024
0.361997
0.021797
0.0222472
0.0480375
0.0607522
0.0226832
8.21637
0.0792374
11.2155
0.0288529
0.121953
0.0224689
0.0222688
0.0219377
0.0231603
7.80288
0.022255
4.65926
0.026114
5.99427
0.0492846
0.0805478
0.151443
0.0216838
0.022291
0.0654
0.0220453
0.0224099
7.89856
0.0227143
0.0221805
0.0278924
0.0219452
0.0216778
0.027931
0.0280633
6.0123
0.0350384
0.0219324
0.0218815
3.81584
0.116115
0.0222069
0.0222295
8.13797
2.78007
8.53053
0.0355975
0.0236494
0.0217883
0.0216598
0.0489372
0.036087
0.208239
0.0251286
3.71105
0.0223144
0.0236351
9.25333
0.0220495
0.0277911
0.0219984
0.022081
0.043826
0.0424886
0.0225119
6.20874
4.30504
0.0883937
0.0219759
0.0216036
0.119282
3.95983
0.0222612
1.50121
0.021603
0.0426744
0.0217669
0.0218023
0.354833
0.0220106
3.42337
0.0398912
0.0222731
0.021621
0.0220656
0.0219157
0.0229885
4.1432
0.0218901
0.0217809
4.94744
5.80632
0.0389934
0.0468271
0.0667204
0.0251739
0.0217929
0.0280502
4.93608
0.0895304
0.0221312
0.0222821
5.48543
0.0360355
4.34615
0.0222662
0.0227899
6.37407
0.0335542
0.0225921
7.93129
1.74001
0.0219124
0.131684
0.0219351
0.0219831
0.0217843
4.21278
0.0215406
0.0219675
0.0217873
3.54436
0.0248506
0.220382
0.0625357
0.0217956
0.0327607
0.0221744
4.25437
0.021967
0.0219108
0.0221816
0.123945
0.0221737
0.155903
5.66614
4.69478
0.0265431
0.78105
5.26228
0.0220145
6.8189
9.6287
4.75228
3.35373
4.83218
36.6927
0.141687
0.0223323
3.72629
0.0334857
3.91467
0.0216833
0.0218888
0.0222073
0.0221677
0.0259935
0.0308941
4.46374
0.0218781
0.0220719
6.44312
0.290152
0.0220661
0.0381487
0.0296025
0.0222353
2.79922
0.039287
0.0237514
0.0247806
5.68006
7.67744
1.29966
0.0217474
0.258917
0.111407
4.57553
5.82689
0.0894961
0.0219191
0.0225313
0.0223167
0.0215015
0.0232457
0.0216323
0.0270704
0.0382315
5.63745
0.130474
0.0219812
0.118877
4.20708
0.041515
0.0223076
6.39912
0.0218886
0.0223289
0.0376255
6.63132
0.0221738
0.0219535
4.21552
0.210503
1.63955
0.105466
1.52933
0.0219294
0.17379
0.0223374
0.022001
0.0223291
4.11867
6.23871
0.0217748
0.0216176
0.0220188
3.27618
0.0230239
0.0296798
0.0220459
0.0224402
0.16844
0.0218133
0.0594583
0.342536
3.47791
0.0220052
0.0828821
0.0242302
4.41208
4.15765
0.022019
4.3839
0.0712417
1.45133
0.0221725
3.48855
0.0222454
0.0266514
0.0426004
0.105443
4.34958
0.947194
0.193199
6.42682
0.0218652
0.28689
0.0217926
0.0274398
4.20531
0.022094
0.0222529
0.022822
0.0222033
5.18388
0.0216784
0.0220849
0.0552109
0.0468732
0.0498626
0.592009
0.132294
7.6308
0.0657786
0.0352762
0.0398152
4.58013
0.0400772
14.2492
3.91212
0.025505
0.0218185
3.2317
0.657837
0.0222937
0.109622
0.0337044
0.0223743
0.0263885
0.0222485
0.0425914
0.0222921
0.0488871
0.107256
0.0218857
0.0604762
0.0218221
0.0591846
0.0218844
0.0260259
0.0577597
0.0235421
0.0221325
0.0217848
2.08889
0.0806
6.14987
0.0220146
0.0221465
0.0588742
0.021999
0.0907729
0.0806636
0.0223762
0.0945137
0.0218062
10.0505
0.0222588
0.0373554
5.41191
0.283712
0.0219365
0.023614
6.7593
0.0220034
0.021923
4.42944
4.07962
0.0242127
0.177131
0.0221046
0.022127
4.17483
0.0230316
0.021694
0.241394
0.0218293
2.96512
0.0221983
0.0216966
0.0222065
0.134334
3.60463
0.0221234
0.0222768
0.0219301
0.0258561
0.0220779
0.978214
0.0584601
0.0222688
5.67604
0.0495781
0.285473
3.56754
3.64908
0.0217623
0.0222504
0.0220522
0.745279
0.0263376
3.64082
5.62952
0.0239003
4.11132
2.31515
0.0493453
0.14949
0.0690352
0.382768
4.40459
0.0629492
1.01286
3.69433
0.0638924
0.0251735
4.40297
0.0538744
0.0216954
0.0233508
13.6503
0.0380376
0.0219021
0.0521759
0.0999458
0.0384348
4.30977
0.0237433
6.45002
0.0398258
0.535667
0.124387
0.277045
0.0289182
0.0217961
0.0225888
4.64368
0.0219973
0.0240997
0.0218042
0.0232717
0.0218826
0.0352009
0.153907
1.91323
0.0444332
0.0584971
3.96881
0.352428
0.0218765
2.90696
4.06993
0.0217353
0.0219143
0.0307213
6.65734
0.0222544
0.068841
0.602274
0.0477291
0.0220603
0.0232118
0.0218466
0.109918
0.0393745
0.0219914
30.9884
3.77284
0.0428152
1.82224
0.0648073
5.02756
0.0232817
0.0254673
4.27462
2.49436
0.0902632
1.75522
0.0282648
0.0222763
0.0219765
0.0221919
0.0220283
0.0226247
0.0524347
0.0219446
0.122829
0.0219439
0.0284272
0.021772
0.0800414
0.122431
0.784965
0.0220012
0.274203
0.0219748
4.41035
0.0220378
0.025609
0.0221252
0.246228
4.53334
0.141358
0.0219387
0.130815
0.0220345
0.0297137
4.04085
0.0219543
0.0223495
0.0451633
0.0314486
4.11908
0.021946
0.029679
0.0232217
0.0220428
0.031993
0.0224791
0.0217516
0.0236542
6.30424
0.0244531
0.306496
5.66919
0.0513534
3.49662
0.0242067
0.021758
0.0308848
8.15216
0.0234325
0.036364
0.0420015
4.46892
0.0219021
5.78528
0.0619571
0.0695336
0.0217265
0.0216355
0.180599
0.0224198
0.0222859
0.0336073
0.0216912
0.024368
0.0285247
0.0694651
0.269181
4.15036
0.0253269
0.0730488
3.29885
7.39798
0.0376428
0.260729
6.53598
0.0392009
13.1257
0.0236453
19.9276
5.35712
0.02168
0.022262
0.0219575
0.0226492
0.0447875
0.0217756
0.0238673
0.0896625
0.0233171
0.035343
4.12966
0.0300535
0.0241999
5.50187
0.0225961
5.61054
0.024432
0.0540712
0.0218917
6.62909
5.89686
0.0220334
0.0227703
3.65208
0.0294104
6.7158
0.0220234
0.0218279
4.11123
0.0227439
0.0440142
9.78926
0.0220663
0.0543427
0.0291421
0.0216317
0.021905
3.70526
5.49583
0.0222169
0.0235542
0.0220594
0.0265231
0.0357876
5.97883
0.0226688
2.56368
4.57423
0.527622
3.57277
0.0226901
0.123031
0.192805
0.0289765
0.0220626
0.0596637
3.95096
0.0233692
0.0460429
4.87706
3.64221
0.30093
0.0251681
0.0222701
0.0222463
0.0220682
7.35281
0.0543712
0.0238868
0.022886
0.0244033
0.02227
0.0219838
0.0220427
0.0717526
0.0382987
5.59752
0.0469435
5.10938
3.33327
0.030385
0.0503529
0.0218143
0.0284979
8.06174
0.022142
0.0235656
0.0509607
0.116853
0.0560438
3.78762
0.280788
0.021892
3.82788
0.0215997
0.0222801
0.0462642
0.0222735
0.0219692
0.169506
6.84925
0.0218341
4.16652
0.0221246
0.0217527
0.0234834
2.69087
0.0291061
0.0244064
12.7922
0.0229404
0.218053
3.31364
0.0222462
0.0482342
0.0220118
5.75542
0.0700729
0.0220441
3.97826
0.0533961
0.0784895
0.0222785
6.40178
0.0291905
0.400844
0.0230085
0.0715955
6.67884
0.0217725
1.45531
0.0221138
0.0616134
0.0520624
0.0222453
4.53197
0.023596
0.114492
0.0571244
0.0958605
0.040346
0.0439261
0.0225969
4.84975
0.0318026
6.90828
0.0298489
0.0636163
0.0219821
0.043724
0.0220477
0.0694131
4.53755
0.0227647
0.0218355
3.42598
0.0228633
3.39908
0.0225002
4.24053
0.6492
0.0351706
0.0219933
0.0219431
0.0221101
0.0216317
0.102156
0.0557271
0.0386124
0.0257954
0.0220839
2.55297
0.0236399
0.0339646
3.08496
0.022035
13.9142
0.050784
0.0299948
1.2592
4.21947
0.32295
4.4124
9.33022
0.0218959
0.361095
4.911
0.354818
0.0221738
0.022218
0.113748
3.90512
5.49338
0.628438
0.0223717
0.0509896
0.0398691
3.32171
4.94862
0.041929
0.127298
0.0239096
0.0804134
0.0901135
0.0221656
0.104243
8.04411
0.0221315
3.94544
0.0222532
0.0219832
4.61121
3.85963
0.0218527
0.0224524
0.0224932
0.0218326
0.0485598
0.17658
0.0231752
0.0219909
0.0220996
0.0403485
0.0278033
0.0275381
0.334026
0.0220278
3.92835
7.55972
4.05476
0.152538
0.051978
1.33421
0.0333546
3.68874
2.53312
9.439
0.0224333
6.65291
3.40108
0.0217723
0.0220381
0.103142
4.41521
9.82535
0.0218004
0.022039
3.47552
4.49654
6.47675
0.0240055
0.0239132
1.88378
0.0222052
3.56537
7.27674
1.95537
2.39564
0.0220655
0.02193
0.0218893
0.0261546
3.99219
0.0400787
0.0255852
0.0226242
0.0862248
7.03013
0.0403187
6.13372
5.33404
5.17157
2.17115
0.0220526
0.0221727
4.2726
0.0216662
0.0216932
0.0230665
2.82372
0.037163
9.46246
0.131361
0.0220286
5.20721
0.0393648
0.021886
6.04739
0.168155
0.025079
0.0221451
5.13731
4.36838
0.0221806
7.4439
4.61005
6.22802
2.19506
0.0823285
0.021937
0.0225887
1.75218
0.0256056
4.43703
0.0415641
3.18998
0.258579
0.0228974
0.0289972
0.0219355
0.0227096
4.63992
6.83746
0.0220686
4.86691
0.0426782
0.0220458
0.0248147
0.0219386
0.16167
0.0224693
2.28958
0.0515061
0.0219284
0.0218763
0.0972277
7.95667
0.0388275
0.0240076
0.0426698
0.0220421
0.023167
0.0274204
8.62961
4.02719
4.39171
0.0217243
0.0218696
0.0223696
0.124056
0.0218805
0.0224173
0.17114
0.0579911
1.38424
0.0216669
4.32214
4.00136
0.0222843
8.75928
0.113999
0.0372028
2.05146
0.0223171
5.12216
0.0294438
0.023064
0.0238988
0.0216624
0.261589
0.0224623
0.022863
0.0307671
3.46316
3.52847
0.0222462
0.0220233
0.0235429
0.0220072
0.132821
0.0224372
0.0834496
0.0236092
4.01339
0.0227365
4.03018
0.0217262
5.40058
0.0224297
0.0216467
6.97761
0.314895
0.109802
1.77764
0.0442343
0.040495
0.0220452
5.03042
0.0220644
0.0218868
0.0874231
0.0641526
10.1253
4.41351
0.121997
6.95491
0.128691
0.869823
0.0219072
0.0249859
0.0279706
3.9889
0.0248238
4.13073
4.40434
0.0222406
0.0220689
0.0220245
1.54631
3.33303
0.0234214
0.022111
0.0257583
0.0281024
0.0378887
0.384412
0.316179
0.0220653
0.64213
0.0842641
8.31014
0.0712911
0.0232977
0.0239277
5.02706
0.0218863
0.0883753
4.4496
0.0227422
0.025419
0.176252
0.134084
0.0227736
6.29216
0.0244197
0.285315
0.0407005
0.0303025
0.0228057
4.30551
0.0218638
0.0969603
1.44534
4.78724
0.0493896
0.0665494
0.0257287
0.047595
0.0222658
4.9979
0.0267789
0.022012
0.0298758
0.0220931
0.0222692
3.00211
0.02207
0.0221794
0.022057
0.129549
0.0222489
0.033114
0.0717094
0.232704
0.11644
0.0222537
0.237908
0.473807
0.222533
0.0843204
0.0273186
0.156667
4.72477
0.640026
0.0222845
7.67944
4.11899
0.0222839
0.0241671
0.0216518
0.748593
0.105439
0.0220868
1.28979
4.05674
0.0218147
0.0222158
3.70031
4.07436
0.0655378
0.0216664
11.2671
3.21047
3.26874
0.0220303
3.99809
0.0828388
0.0706312
4.33164
0.0262196
0.0216638
0.0300624
0.189416
0.031998
3.88437
4.3901
0.02183
6.48858
0.51011
4.51399
0.0217239
0.0518373
0.0222914
0.0219346
3.94951
3.36838
0.281527
4.23613
0.0292717
0.0502358
0.0222126
4.61015
5.815
0.0220487
0.0222764
0.0317918
0.0218414
0.05054
4.25849
7.46657
0.0507857
0.0225051
0.0221989
3.96083
0.025002
0.0523555
0.0218089
0.0230077
0.714268
3.72817
0.449713
2.92337
0.0221712
0.301425
0.0223129
0.0478875
9.79223
6.77646
0.0220749
0.0222938
0.0358114
0.0257122
0.0221927
4.18651
4.02362
0.0217968
0.0215241
0.0221912
0.0219712
2.68139
0.0217544
3.82352
0.10224
0.0640636
0.021871
0.0477879
4.54199
0.0335984
0.444488
5.87741
0.0222636
6.94469
0.0330977
0.0355119
0.358352
7.05267
4.57533
0.0603652
0.0219057
0.254302
0.0217645
0.0252789
0.022215
3.8496
0.031742
2.34726
0.586021
0.0483236
0.0221255
0.291898
0.0269861
0.0222704
0.264189
0.0216051
0.0384359
0.0341362
0.0221775
9.84693
0.0234025
0.580311
0.0228423
0.0219409
5.56895
3.55003
0.0241213
0.0325067
0.0392795
0.0577214
0.0582479
0.0263918
0.0259234
0.0252895
0.214295
0.0250556
3.97544
0.0594399
0.482281
0.118611
0.022712
4.34
0.0216155
4.37175
0.0242135
4.25106
5.50536
8.89816
7.72296
0.309301
0.0766061
0.0220539
4.0856
0.0850936
0.0220437
7.77612
5.6076
0.0232916
0.0238706
0.0307932
0.0308017
0.0324168
5.09519
0.022284
0.0301002
0.0352388
0.0322165
0.0221651
0.084693
0.0216224
4.06526
0.0236789
0.133008
0.0318958
0.0396059
0.123412
3.8843
0.0861503
0.0218446
0.242972
4.08994
22.9217
0.0224504
4.14623
0.0290036
1.78835
0.0220646
0.0245371
3.6876
0.052108
4.99866
7.21646
0.0334127
4.79665
0.0219859
0.0216126
8.70632
0.058918
0.0244634
5.16079
0.0269844
0.0457965
0.0293794
0.0710089
0.0221885
5.7421
5.18698
7.0413
0.283532
0.0255729
0.0569625
4.96308
0.0240698
0.0223208
0.0822119
0.021699
0.292705
7.8533
6.25098
5.19763
0.0552691
0.0225199
4.01356
0.0216046
0.0731561
0.0222354
24.2659
0.0238206
0.04733
3.63136
0.118216
0.022029
0.0321548
9.3301
0.0220755
0.144243
0.021803
9.5523
4.15592
0.112831
0.0792266
0.0219546
0.219516
0.137174
0.0393749
0.0218078
0.022567
0.0221472
0.0543412
0.0221246
0.0855937
0.0221222
0.0218146
6.43805
0.0218805
0.0268828
0.0252232
0.0222747
3.51775
0.0218742
0.0338585
3.84777
0.0489472
3.90478
0.0220643
4.40894
0.0514441
4.91547
0.0235975
0.125804
0.0222359
0.040937
0.122705
0.112492
0.255436
3.98591
0.217975
1.83662
0.0269652
0.110412
0.0418582
0.800811
0.0250767
0.0221798
0.0220332
0.0516383
0.0462304
2.81082
0.0531485
4.57682
6.84329
0.100475
0.0220184
4.75198
0.199466
0.0224752
0.0240802
0.0220786
4.9148
0.0220357
8.06173
0.0218672
0.0271734
4.79654
0.0783142
0.0220463
0.0220278
7.68687
0.0218848
0.0240816
0.0253185
0.0325448
0.0277189
0.0221817
0.161722
0.0812497
0.0437175
0.322923
4.38094
3.52064
6.03522
0.0217409
0.021993
0.101722
0.0225282
0.0470557
4.08839
3.65275
0.0216626
0.0220455
3.30424
0.542508
0.0216788
0.0218469
0.0265713
13.3022
3.92495
0.0266109
0.0341031
0.0222002
0.373292
0.125643
0.141305
0.0317715
0.0441558
0.0224144
0.0382445
0.308902
0.0227746
0.0221822
0.0264021
4.38841
0.0252193
7.21645
0.0221089
3.66713
0.03653
0.0277983
0.0217831
0.0219307
0.7931
7.86192
0.0576365
4.19554
9.82235
0.0225452
3.86526
0.146086
0.0219013
4.80165
0.443606
0.113172
0.0222538
3.3993
4.46622
0.0219933
0.0396277
4.19658
0.0450065
0.0220625
0.0218062
0.0224319
0.024014
0.0816397
0.289771
0.0779029
0.0776955
0.0217285
0.022207
4.58911
0.0218545
0.0484176
0.0265266
0.0222143
0.0502765
0.0220289
0.0237482
0.336872
0.0220025
4.37859
0.0220246
14.1651
3.53273
0.0933412
0.0222606
0.0222927
4.04892
0.0216507
0.0242361
0.02234
0.336508
1.16203
0.0338082
3.5342
0.0419792
1.80667
0.0225368
0.0685538
0.0218247
0.0221411
5.0416
3.59101
1.30249
0.0238213
0.0685192
0.0685254
4.78626
3.91106
0.317518
0.0393996
0.0215995
4.02273
0.0219332
0.0219927
0.293174
0.113248
0.0282995
0.199032
0.0474192
0.0316525
0.0277421
4.99773
0.0244491
0.0219964
6.73099
0.0469247
0.0217243
3.40276
0.0220352
0.0221135
0.161253
0.152091
12.3045
0.021741
0.0248045
0.021923
2.2135
0.0218782
0.535867
4.45349
3.47439
3.39845
32.8807
0.0301872
4.35507
0.867277
0.0222103
0.0306416
0.0435793
0.0303681
1.23509
4.0232
4.38359
3.44434
2.36742
0.0221658
0.104628
0.0220425
4.83023
0.028748
0.0232656
0.0241719
0.022746
0.0218917
0.105088
4.37778
0.0217278
0.023707
0.0218681
4.44965
0.0235599
5.44282
3.80728
1.21932
0.0220962
0.0218983
4.34741
0.361882
0.0221404
0.302077
0.0222285
0.141738
0.186975
0.0943114
0.0512826
10.6068
0.0218079
0.0218286
0.193532
3.27355
0.0294598
0.0469917
0.0219451
8.37759
0.0220159
0.0219557
0.0232073
0.0220016
5.34968
3.92416
2.07524
0.0605984
4.07043
0.532459
0.0216669
0.0312403
0.0217063
1.26535
0.0220334
0.0248676
0.0220021
0.0219257
0.0218018
2.71868
0.0229278
1.69802
0.0216241
0.0325135
0.0229479
1.57229
0.02205
0.0316629
0.0353087
0.0697761
6.7856
0.0219222
4.1497
0.0688976
0.0456759
0.0219985
0.0219544
3.43854
15.9746
0.0220508
0.0219055
0.26628
0.217283
0.0385103
3.77228
0.0227763
0.75311
0.0314372
0.0217133
5.45694
0.0231624
3.79294
0.0220311
0.0227317
0.0221224
4.15229
3.46524
0.0216827
0.243691
0.225
0.0220617
0.0218857
0.0219044
0.257245
3.84777
0.064705
0.0244477
0.0397435
0.0220338
0.0220557
0.0237599
0.0220079
0.185732
0.0220671
0.0633953
0.624522
0.0361559
0.0216244
3.96168
0.0734523
0.0220427
0.0807421
0.0307138
1.85543
0.0245117
10.2409
0.0568683
0.0220066
0.0872658
0.0862283
0.0247492
5.86234
0.0598947
0.0301464
2.58797
0.0219518
0.151396
0.0880039
0.12737
0.0219453
0.0219847
0.0216472
0.0335493
0.0555551
0.0542791
6.45816
4.59544
3.83108
0.0222668
1.90579
3.5949
4.0279
0.0220037
0.0220402
0.05347
4.00635
0.0241957
0.0354103
32.1336
4.9472
16.158
0.11407
0.167355
3.29403
0.385389
0.0216226
11.4212
0.279964
0.0223581
0.0224027
0.0228392
4.63056
0.0969213
5.20946
0.0240328
8.29339
0.0221553
1.47683
3.74878
0.0222257
0.0342334
4.13526
4.66032
0.0555093
0.0229176
0.0237491
0.0223886
0.225766
0.122664
2.40009
3.94627
0.0217604
5.27789
0.167926
2.25261
0.022031
0.0221655
2.99386
0.261251
0.0219688
0.0500546
0.0733222
0.0391607
4.03622
4.38875
4.58839
3.94764
0.0255076
0.0216784
0.0664485
4.44809
10.233
0.0219768
0.274458
0.091619
0.452124
0.0225863
0.0222564
1.19708
4.36459
6.83295
1.6604
4.18844
0.0219633
0.264677
3.94062
0.0222409
0.0625363
0.106766
0.0216924
0.162491
4.69644
0.240738
0.0222554
5.21994
0.117228
27.41
0.0215186
0.0237793
0.0221802
0.0232948
0.0221457
0.0540648
0.0404203
0.0424302
0.331843
0.0338896
4.09275
0.0253125
0.0292755
0.0281545
8.89112
0.0581081
4.91769
0.0281986
0.0278342
19.0657
0.0970486
0.0220723
0.0423928
4.27919
5.22521
0.309638
0.0219874
0.0219203
0.021948
1.33534
0.0231897
2.48732
1.32692
0.256708
0.0320593
0.259076
5.49629
0.0221466
7.30184
0.0336608
0.0510396
0.0219579
0.0219463
0.0532935
4.21924
0.022081
4.89502
0.509392
0.0981642
0.189592
0.0218872
0.0220266
0.0300641
0.0230338
25.6521
25.0739
0.0846172
0.798619
0.0219742
0.022112
0.0222037
0.0222458
7.54545
0.0233086
4.43529
0.0872191
0.0226172
0.36787
2.51071
3.36872
8.46536
0.0236468
0.0218088
0.0221315
0.02367
0.746671
0.243061
5.73595
0.0221559
0.0225015
0.160286
0.0222602
0.240026
0.0236949
0.151076
0.171677
0.0414274
0.0399283
0.0217375
0.0472304
0.038314
0.209361
0.0809854
0.0424911
0.0218729
0.244303
0.0218974
3.05311
3.53879
0.930986
0.0220804
0.10933
0.0220298
0.0491968
0.0230388
0.0228097
0.0282247
8.78444
3.92473
0.0792307
0.0474427
0.22806
0.0781571
3.9048
4.12519
0.0310551
4.07913
0.351621
0.0218641
0.0565794
4.11454
0.0970018
0.0222362
0.0539567
2.25429
0.461398
8.26577
0.0221845
1.17303
0.0220982
0.0219391
0.0426991
0.619044
0.0222639
4.18959
5.1191
0.287164
11.1643
0.372283
4.69648
0.320585
0.0217344
0.0248633
0.0216687
0.0422119
0.295865
0.437989
0.0243886
0.0418689
0.0216588
4.26916
0.0387283
0.0476269
3.92259
0.0992995
6.78774
4.63088
0.0219793
6.72082
0.0221176
0.0283043
0.0473971
3.71487
0.155322
0.0278636
0.0233707
0.57451
0.0345215
4.14559
6.05086
0.0322948
3.21327
0.0458404
0.022273
1.16511
0.0625881
0.023009
8.95598
15.386
0.0300826
0.0260443
0.132442
5.94883
0.0219645
0.0222491
0.021678
0.0217678
0.0223302
4.83014
0.0315673
3.78764
0.0219584
0.021975
0.859356
0.022238
0.0238522
0.0220597
0.0220348
2.39011
0.0217775
4.73161
0.0220481
0.0231765
0.0415133
0.0221749
0.145225
0.0217897
0.0222651
0.0218041
0.0278413
0.0893531
0.0246662
3.53643
0.021947
0.043647
0.0299001
4.11185
0.0227557
0.0222688
0.0217433
0.0216995
0.392902
0.0219154
0.0219194
0.0247129
1.9018
0.0219376
0.0428178
0.0327093
0.0220283
4.81575
6.71622
0.440394
4.88892
0.0250174
0.111841
0.0221561
0.0997018
0.342831
0.0223811
2.39227
0.132727
4.61463
0.0307812
0.0220342
1.57834
0.0434468
0.776319
4.90683
0.0216084
0.0219896
7.45707
3.19533
0.0597169
0.0562464
0.0230898
10.6464
5.73234
0.0215228
0.0219689
0.0221475
0.0221739
0.0222482
0.0220378
0.035502
4.06405
0.0310578
0.0221985
0.436576
0.0219899
0.80524
0.0458894
0.0221699
0.0276452
0.0219218
0.363289
0.0249163
0.0528857
0.0219685
0.0222949
4.41693
4.82486
0.0221773
0.0517812
0.0444391
0.031064
0.0239228
0.0222713
0.0228956
1.5514
0.547506
0.0409995
4.91058
0.0225844
24.472
0.105139
0.0259497
17.1008
0.0230782
4.08804
5.28431
3.375
3.81432
3.96989
3.59267
0.0216791
0.0273351
0.0247164
0.0216563
0.0217667
0.0293941
0.0758678
0.0218011
0.0294522
0.122243
0.0761343
0.33388
0.227857
0.0337322
1.72936
9.49717
0.0339357
0.0248546
0.130382
8.79941
3.69595
0.0255589
0.0216469
0.0218806
0.0217942
0.0319506
3.70758
0.364636
0.0217841
4.55084
0.021983
0.141554
4.0496
0.083
0.191482
0.0908791
0.331895
0.0228383
0.0332498
0.0218721
0.23639
0.0219739
0.023031
0.0333917
0.157294
0.0221772
0.0244743
5.40711
0.0218241
0.0220714
0.0290448
5.70841
0.115604
0.751023
0.0386005
0.0221499
3.32269
0.0371237
0.023363
0.0220227
0.0307107
0.0266706
0.0220329
0.0282782
4.35684
0.0235997
0.0216681
0.0467532
0.0218888
0.0316903
0.0301046
0.0220688
0.021999
4.68151
0.0217259
0.0220343
0.021666
0.0257637
0.0214899
4.80276
0.0259494
0.212556
0.0219625
0.021932
0.0221297
4.23672
0.0655434
0.0220414
0.0216394
5.49855
0.0250552
0.0665574
0.0218646
0.149561
0.0234011
0.0215665
3.49347
0.0218039
0.0222662
0.0221475
0.0220367
0.0241485
0.0221271
0.0220371
1.62275
1.53416
4.63334
0.561972
8.38797
0.0218698
4.56746
0.0219688
3.94891
7.96674
0.021803
10.332
0.0219807
4.14155
11.644
0.268237
4.00152
3.84474
0.799977
2.82102
6.11629
5.14736
0.0432742
0.0429253
4.51079
0.0235038
0.021672
1.68183
0.0239369
0.0282074
11.8363
0.0229978
1.31863
3.54845
6.35814
0.384079
0.117079
0.0222519
0.0282822
0.0483374
0.0223012
6.88788
0.353762
0.108208
0.0219198
0.0220698
8.13777
0.0217066
0.706334
0.0218682
9.10182
4.44028
0.0339768
0.0261643
0.0220085
10.219
4.00399
0.0254388
0.0337681
0.0222857
0.0222855
0.0582608
0.0231729
0.0319824
0.0662185
0.0242712
0.0331542
0.0220411
0.0321285
15.3394
0.0226038
10.7376
0.0219834
3.68639
0.0547685
0.0220403
9.79378
0.126126
0.0218598
0.154188
0.0220387
0.418075
0.022207
0.0220126
3.80352
0.0221468
0.105991
0.0234315
0.138607
0.0218635
0.0223459
0.021865
0.0300688
0.0242418
0.0223038
0.022609
0.0253398
0.0224586
0.124362
0.0640714
0.0302042
0.0233516
0.0216629
2.34899
7.88767
0.0227829
0.0225417
0.0226588
0.037809
0.0222382
0.0351465
0.0215784
0.0222853
0.212706
0.0233456
0.0222846
0.0219095
4.75536
11.054
0.0216039
0.0713741
0.0589842
0.23537
0.189151
6.76305
4.29564
0.639533
0.02301
0.137572
0.0219297
0.0313596
7.17291
4.37982
0.134001
0.023928
15.5175
0.0220431
0.0466046
0.408539
0.0222363
0.136399
0.0234809
0.0232763
0.074663
0.151202
3.88911
3.35563
0.0218408
0.0216127
4.7613
3.68156
0.0222473
0.0290793
0.12237
0.0220569
0.0220169
0.0241245
2.84341
0.0217815
4.14965
0.0295052
0.0222562
0.481327
0.0743821
0.0690342
0.115245
4.76534
0.0244176
0.0348582
0.0272471
0.0237662
9.638
0.0319504
4.22449
4.03027
0.0661798
3.99027
0.0462223
0.0478016
0.340562
0.0217355
4.2332
0.0889826
0.0336905
0.029141
0.0221782
0.0216822
4.02979
0.0432071
4.14464
4.33575
0.0221163
4.12879
0.0218415
0.0219632
0.0287196
11.3071
0.0746845
0.021724
4.05794
0.021998
0.0238199
3.78929
0.0237005
3.43342
0.0222727
4.37139
3.85741
0.0691485
2.37266
0.023386
3.40413
0.021653
5.30061
4.74059
4.39196
5.07098
0.0219469
0.0218498
0.238027
3.5933
3.37333
3.80679
3.72297
0.0221588
4.90904
3.39954
0.022424
4.64147
0.0315125
0.0331526
12.1404
0.0381906
4.21545
0.0219444
0.0378554
0.0347749
0.204623
6.28108
0.0368459
3.52449
4.34359
0.0221723
0.0246213
0.0238118
0.0249289
3.38409
0.0220158
0.0217695
0.0392978
3.58998
3.78072
0.0282589
3.85002
4.00332
0.0219697
8.50576
4.59245
0.178547
3.96764
0.0665495
0.0243954
0.022173
0.155671
0.0264774
0.0808454
9.91722
4.51547
0.0290465
0.073105
0.0257731
0.0394683
0.0216582
0.0423487
0.0246979
0.0907946
4.53245
6.70245
3.82843
0.0216913
0.132611
0.0632013
4.12071
0.0232249
4.6579
4.61343
4.13286
0.0222336
0.172261
4.47233
10.7792
7.40792
0.0365286
5.47828
3.47405
0.0627741
0.0680919
0.0241767
0.029295
4.71198
0.04542
0.0221866
3.26627
0.0220742
0.0223443
0.123718
0.123342
0.0218599
0.0897333