/*--------------------------------*- C++ -*----------------------------------*\
| =========                 |                                                 |
| \\      /  F ield         | OpenFOAM: The Open Source CFD Toolbox           |
|  \\    /   O peration     | Version:  v2012                                 |
|   \\  /    A nd           | Website:  www.openfoam.com                      |
|    \\/     M anipulation  |                                                 |
\*---------------------------------------------------------------------------*/
FoamFile
{
    version     2.0;
    format      ascii;
    class       surfaceScalarField;
    location    "950";
    object      meshPhiCN_0;
}
// * * * * * * * * * * * * * * * * * * * * * * * * * * * * * * * * * * * * * //

dimensions      [0 3 -1 0 0 0 0];
oriented        oriented;


internalField   nonuniform List<scalar> 
20580
(
2.44616e-06
-2.73705e-06
2.89673e-07
5.18146e-06
-2.29828e-06
-2.91719e-06
1.90331e-07
4.94128e-06
-1.35301e-06
1.77429e-06
-4.20963e-07
1.43304e-06
1.07923e-06
-1.67777e-06
-3.16135e-07
-4.57462e-06
4.84834e-06
3.29757e-06
-5.19472e-06
2.18168e-06
1.32749e-06
-2.40652e-06
6.80405e-07
8.35544e-07
-1.51621e-06
9.45047e-07
-5.08753e-06
4.11828e-06
-2.31764e-06
3.96141e-06
-1.64868e-06
-7.76379e-08
-3.74808e-07
1.85261e-07
-5.52859e-06
1.04082e-06
4.48115e-06
5.27658e-07
-1.35829e-06
8.29465e-07
2.35907e-06
-4.43431e-06
2.06322e-06
2.19476e-06
3.91369e-07
-2.58712e-06
1.7139e-06
-1.29296e-06
-4.20715e-07
4.02935e-06
-1.28916e-06
-2.89789e-06
1.44047e-06
9.38821e-07
-2.3797e-06
-7.4589e-07
3.19073e-06
-4.92826e-06
1.90695e-06
3.01003e-06
-1.8846e-06
-3.41933e-06
5.27048e-06
1.77779e-06
-8.54223e-07
-9.25123e-07
7.57984e-07
2.89678e-08
-6.87535e-07
2.1093e-06
-4.97372e-08
-2.05974e-06
3.89681e-06
-2.37934e-06
-1.5213e-06
2.5528e-06
-1.69907e-06
-8.54108e-07
7.97826e-07
1.29153e-06
-2.08953e-06
1.84584e-06
-1.00652e-06
-8.394e-07
2.62406e-07
9.77741e-07
-1.56277e-06
2.42316e-07
-1.60183e-06
1.35835e-06
-2.32771e-06
5.5766e-06
-2.49964e-06
-4.91485e-07
2.98964e-06
-7.77766e-07
-1.03201e-06
1.80985e-06
2.74758e-06
8.99962e-07
-3.65606e-06
-1.77494e-06
2.10363e-06
-3.28688e-07
1.18751e-10
7.94237e-07
2.3715e-06
-1.40464e-06
-9.67286e-07
-1.41042e-06
-4.02181e-07
1.81263e-06
-5.68672e-06
4.44811e-06
1.12867e-06
-1.49479e-06
1.88777e-06
-3.92975e-07
8.3065e-07
1.01509e-06
9.09998e-07
5.10716e-07
2.728e-06
-2.20327e-06
-5.25386e-07
1.31086e-06
3.85359e-07
-1.69635e-06
-3.6987e-07
-1.4024e-06
1.4771e-06
5.73682e-07
-1.2657e-06
8.60093e-07
-2.21882e-06
1.35776e-06
-6.75902e-06
2.92835e-06
3.74753e-06
-2.68104e-07
-5.25522e-06
1.04058e-06
3.743e-07
-1.41457e-06
-6.66002e-06
1.92283e-06
4.72509e-06
-6.73882e-07
2.86756e-06
4.93342e-06
-3.77433e-06
-1.17777e-06
-1.07516e-06
1.75084e-06
-6.75234e-07
-4.08369e-06
-1.68371e-06
-2.68162e-06
1.8072e-07
-9.89736e-08
-1.39582e-06
2.64137e-06
-1.42795e-06
-1.21378e-06
-1.51995e-06
-1.12667e-07
1.63263e-06
2.83203e-07
-6.43912e-07
1.78176e-06
7.70572e-07
-3.19357e-06
3.25831e-06
-1.06531e-07
-2.88307e-06
-3.94039e-06
-2.64666e-06
1.18829e-06
1.4582e-06
-1.65255e-06
-9.9409e-07
-1.92943e-07
-1.32701e-06
-4.42051e-07
2.3953e-06
-1.92542e-06
-3.27158e-06
5.056e-06
1.70227e-06
-1.45286e-06
-2.50793e-07
9.87332e-07
-1.47772e-06
4.88842e-07
2.28264e-06
1.45263e-06
-3.74269e-06
5.79421e-06
-3.9152e-06
-1.97359e-06
1.32844e-06
-1.4411e-06
-2.14595e-06
4.65223e-06
-2.52178e-06
-2.51655e-06
-2.91465e-06
5.38395e-06
3.81295e-07
1.33324e-06
-2.25989e-06
4.27245e-07
1.51851e-06
-3.39529e-07
2.44865e-06
-3.17395e-07
1.52157e-06
-1.46255e-06
2.85861e-06
-4.92179e-06
2.37177e-06
5.43235e-08
-2.42662e-06
4.85337e-06
-2.1167e-06
-1.32867e-06
-3.52184e-07
1.67315e-06
-2.6804e-07
1.5965e-06
-1.12037e-06
-8.29653e-07
1.9486e-06
-5.09707e-06
3.18271e-06
4.03916e-07
-1.38995e-06
9.86282e-07
-4.65989e-06
4.48398e-06
9.66957e-08
1.35231e-06
-1.11099e-06
-9.94332e-07
-5.66548e-06
2.60293e-06
-4.9735e-06
7.98463e-07
6.13822e-07
4.63447e-07
-1.58519e-06
1.87158e-06
-3.53849e-07
-1.51801e-06
-1.77675e-06
2.47632e-06
-7.00174e-07
3.55442e-06
-1.48932e-06
-2.32721e-06
-1.64103e-06
-1.41409e-06
3.05396e-06
8.66062e-07
5.66553e-07
-1.43341e-06
3.09428e-06
-1.61747e-06
-1.47787e-06
9.09827e-07
-2.55186e-06
1.32089e-06
-3.6272e-06
2.30509e-06
3.44657e-06
-4.97761e-07
-2.95059e-06
-5.70468e-06
6.40555e-06
-7.7075e-07
5.80621e-07
-1.75e-06
8.70625e-07
4.31695e-06
-6.04996e-07
-3.71926e-06
1.36454e-06
-1.12412e-06
-3.85981e-07
1.37118e-06
5.05113e-06
-2.49397e-06
9.30353e-07
2.92921e-06
5.24496e-06
-1.95198e-06
-3.31126e-06
1.5387e-06
-2.23553e-06
2.41633e-06
5.44456e-08
-2.47147e-06
-3.61535e-06
2.47501e-06
1.13656e-06
1.78848e-06
9.52667e-07
-2.74258e-06
3.35147e-06
1.55959e-06
-6.88855e-06
2.91305e-06
3.77946e-06
-1.59624e-06
4.84512e-06
-1.21617e-06
-1.36656e-07
3.713e-07
1.33053e-06
2.76772e-06
-5.44035e-07
-2.22448e-06
-2.86523e-06
2.20119e-07
2.41075e-06
3.15101e-06
1.06074e-06
-4.30395e-06
-1.33395e-06
1.75519e-06
-4.21178e-07
2.69541e-06
-3.23372e-07
-2.3726e-06
-2.51167e-06
1.81937e-07
2.3292e-06
1.00836e-06
2.25597e-06
-3.72367e-06
2.63123e-06
1.0871e-06
9.8047e-07
-1.78677e-06
8.06362e-07
3.99533e-06
-3.72847e-06
-2.74844e-07
1.86833e-06
-5.31768e-06
-4.91064e-06
-4.02132e-07
5.28967e-06
1.18828e-06
1.18279e-06
1.08511e-06
-1.86285e-06
-3.3895e-06
1.06787e-06
1.80041e-06
-8.43285e-07
-9.57148e-07
2.56084e-06
5.68128e-07
-1.39908e-06
4.35756e-06
-1.73948e-06
-2.62101e-06
-2.70253e-06
4.63019e-06
-1.93674e-06
-4.87386e-07
2.85858e-06
-1.20052e-06
-4.33993e-06
5.5044e-06
-5.19436e-06
4.73978e-07
2.78162e-07
-2.1516e-06
1.87317e-06
2.47225e-06
-1.32889e-06
-1.1435e-06
6.01719e-06
-3.2705e-06
-2.79172e-06
-1.59694e-07
-2.32625e-06
-1.13977e-06
5.72488e-07
9.03325e-07
-1.47577e-06
-3.04438e-06
-6.82976e-07
2.3625e-06
-1.45348e-06
-7.51796e-07
3.16725e-06
-2.41887e-06
-1.19969e-06
-1.25989e-06
-1.4074e-06
2.66673e-06
-4.63651e-06
6.60363e-06
-1.9795e-06
6.09837e-06
-5.2415e-06
-8.74e-07
-2.02061e-06
1.85574e-06
-8.19286e-08
-3.16786e-08
-1.37872e-06
1.95662e-07
-2.66626e-06
2.46426e-06
5.82019e-06
-3.11592e-06
-2.75172e-06
1.49094e-06
-1.46328e-06
3.29895e-08
-1.38096e-06
-5.18573e-07
1.89951e-06
4.89086e-08
4.25984e-06
2.78766e-06
-1.92889e-06
1.45156e-06
-9.2436e-07
1.33178e-06
-1.60311e-06
2.7131e-07
-6.20818e-07
1.95253e-06
-5.81235e-07
1.62082e-06
3.4304e-06
1.7946e-06
1.03053e-06
8.31296e-07
-1.86191e-06
3.16468e-08
1.6825e-07
-4.95705e-07
-1.32347e-06
-5.85504e-06
-1.61073e-06
-2.16999e-06
3.77667e-06
-1.19848e-06
2.85332e-06
-9.86367e-07
1.73232e-07
1.69806e-06
-1.84739e-06
2.54977e-06
-7.02984e-07
2.18297e-06
3.28015e-07
-2.51199e-06
-6.33734e-06
4.75326e-06
-2.7939e-06
-1.91835e-06
4.69691e-06
-7.278e-07
2.90965e-06
-8.93985e-08
2.78418e-06
9.50526e-07
-4.88248e-06
1.7444e-06
3.11853e-06
-1.01033e-06
4.99476e-06
4.80499e-07
9.31563e-07
1.32047e-06
-7.47924e-07
2.0985e-06
-2.59126e-06
5.16815e-06
-4.43628e-06
-7.37638e-07
4.1676e-06
-6.6973e-06
2.52071e-06
-1.03325e-06
5.90735e-07
1.51345e-07
1.4011e-06
1.07098e-06
-3.61603e-06
3.80245e-06
-1.10482e-07
-1.24681e-06
4.46777e-06
-4.82506e-06
2.37522e-06
3.5915e-06
-1.11373e-06
-1.91702e-06
3.0296e-06
-2.84459e-08
2.12585e-06
4.28177e-06
-5.36051e-06
9.56382e-07
-5.55978e-06
8.59539e-07
4.53425e-06
-3.41996e-06
1.64394e-06
1.77543e-06
-1.7792e-06
-8.92524e-07
2.67111e-06
-1.88239e-06
6.65044e-07
1.21733e-06
-1.14103e-06
-7.38751e-07
1.87978e-06
4.44434e-06
-2.09826e-06
1.6159e-06
-1.4262e-06
-1.89609e-07
-1.51176e-06
-3.70631e-07
3.30149e-06
2.31115e-06
-5.61528e-06
-3.77856e-06
-4.32657e-07
4.20318e-06
-7.43626e-07
1.6992e-06
-9.55713e-07
4.10833e-06
-5.20485e-06
1.0642e-06
2.57259e-06
-1.9008e-08
-2.55456e-06
-1.24984e-06
4.31641e-06
-2.26706e-06
1.5231e-08
-5.89913e-07
3.54997e-07
3.88491e-06
-1.45898e-07
-3.74789e-06
1.33797e-06
3.51864e-06
-4.89051e-06
-5.65925e-06
5.39616e-06
2.59221e-06
-1.30906e-06
-1.28369e-06
-5.31058e-06
5.17448e-06
1.8662e-08
4.11718e-07
9.1829e-07
-5.91381e-06
-7.35937e-07
-1.88952e-06
-1.14354e-06
3.03185e-06
2.41424e-07
-1.5759e-06
-1.21856e-06
-6.57826e-07
1.87621e-06
-4.83458e-06
1.50025e-06
3.32586e-06
4.49401e-08
-3.83106e-06
3.64541e-08
-5.88314e-07
4.0914e-07
2.41483e-06
-2.13697e-06
-2.02559e-06
1.90027e-07
1.49412e-06
4.77394e-06
1.91473e-06
-1.5176e-06
-3.96768e-07
3.71229e-06
1.44754e-06
5.38652e-06
-1.32093e-06
1.24129e-07
2.65126e-06
-1.58782e-06
4.46787e-07
9.10501e-07
-1.01183e-06
9.52765e-07
8.24132e-07
-7.88573e-07
-9.26766e-07
1.71534e-06
1.47688e-06
1.61604e-06
1.47089e-06
6.15904e-08
2.20847e-06
8.04472e-08
-2.28914e-06
-1.30089e-06
-1.92674e-07
1.49359e-06
2.00169e-06
-6.90983e-07
2.96285e-06
-3.94308e-06
-1.3999e-06
5.32284e-06
1.83513e-06
2.21185e-07
-2.05642e-06
1.25037e-06
1.34119e-06
-4.65957e-06
1.8507e-06
7.30851e-07
1.74482e-06
-2.47423e-06
-2.35203e-06
4.81074e-06
1.72357e-06
-5.68623e-07
-1.15494e-06
-2.82358e-06
-3.74691e-07
3.19712e-06
-4.24095e-06
1.7353e-06
3.79485e-06
-5.45348e-06
4.40159e-06
1.00963e-06
-2.52879e-06
2.25089e-07
-1.60606e-06
-1.43879e-06
1.74808e-06
-3.09264e-07
-4.89903e-07
-8.35176e-07
5.47606e-08
-4.44711e-06
4.37957e-06
1.9091e-08
-1.4016e-06
-1.22975e-06
2.63055e-06
-2.09636e-06
-8.16924e-07
2.91266e-06
-3.21957e-06
-2.26071e-06
3.78867e-06
-3.74696e-06
-1.24533e-07
-2.70008e-06
-5.76975e-06
1.53167e-06
4.06963e-06
3.1734e-06
-1.85347e-06
4.36578e-07
-2.56158e-06
2.12345e-06
-1.56339e-06
-9.66152e-07
2.52928e-06
-7.94497e-07
3.03949e-06
-2.33258e-06
-1.71414e-07
-5.47807e-06
-1.12916e-06
-1.65837e-06
-2.28758e-07
1.88704e-06
1.36095e-06
-1.56367e-06
2.03137e-07
-2.61665e-06
3.98885e-06
-1.37901e-06
-9.36655e-07
-2.14358e-06
2.24234e-06
-2.33226e-06
-1.21752e-06
-1.4033e-06
2.62025e-06
-2.08523e-06
-1.22691e-06
3.31025e-06
-6.18579e-07
4.39937e-06
-1.01446e-10
-1.65833e-06
9.70408e-07
4.40047e-07
-1.41045e-06
4.87653e-06
-3.29603e-07
-4.57816e-06
4.83675e-06
-4.0819e-06
-7.67145e-07
1.20006e-06
6.97252e-07
-1.89767e-06
1.68611e-06
-1.41977e-06
-6.11949e-07
2.23636e-06
-2.43892e-06
-5.36118e-08
3.7208e-07
-2.45868e-06
-3.97969e-06
2.04573e-06
1.92858e-06
-3.05774e-08
2.15429e-08
-3.09164e-07
-8.84125e-07
8.82972e-07
-2.51018e-07
-6.46482e-07
-1.66809e-06
1.42399e-06
1.2312e-06
-1.80636e-06
5.2e-06
-3.61131e-06
-1.60798e-06
-3.72302e-08
-8.63512e-07
1.54361e-06
-3.42165e-06
-1.51469e-06
4.87709e-06
-1.19672e-06
-3.83338e-06
-1.54986e-06
-1.86364e-07
-1.14751e-06
-6.38545e-06
4.51482e-06
1.86356e-06
-2.63649e-06
1.1841e-06
-1.41045e-06
2.26376e-07
-5.41159e-06
4.1788e-06
-5.27862e-06
-1.11016e-06
-6.32673e-07
-2.79719e-06
-1.31278e-06
-3.27349e-07
1.64132e-06
1.51949e-06
-1.76296e-06
2.43448e-07
9.97208e-07
-3.34556e-06
2.34487e-06
-1.36958e-06
3.63202e-06
-9.82917e-07
2.01335e-06
3.71105e-08
1.82654e-06
1.52839e-06
-3.35767e-06
-3.3423e-07
1.51835e-06
-1.90515e-06
-5.41572e-07
2.44644e-06
1.50627e-06
4.24462e-06
-5.31742e-07
1.73148e-06
-2.67337e-06
1.45307e-06
1.21977e-06
-1.80047e-06
7.02547e-08
1.7299e-06
-1.68249e-06
2.89696e-06
-1.21532e-06
3.79184e-06
-1.54678e-06
-2.24561e-06
6.52735e-07
1.14764e-06
-1.01627e-06
2.03371e-06
-1.01735e-06
2.04562e-06
-1.24796e-06
-1.8769e-06
-3.82316e-06
-1.60022e-06
5.29984e-07
1.0656e-06
7.26518e-07
6.84419e-07
1.77107e-06
-1.73837e-06
-3.26568e-08
3.9858e-08
1.73122e-06
-5.43059e-07
3.84387e-06
-1.68861e-06
3.71305e-06
-2.02789e-06
-5.23574e-06
1.96606e-06
3.25464e-06
1.24747e-06
-8.43317e-07
3.88086e-06
-1.70536e-06
-2.17643e-06
-7.0576e-06
6.90402e-06
1.08775e-06
1.68104e-06
-9.95922e-07
5.48289e-06
-1.32348e-06
-4.18758e-06
-1.50262e-06
-2.98642e-07
1.45612e-06
2.66519e-07
1.01829e-06
-1.57263e-06
-5.10727e-06
3.65215e-06
1.44186e-06
-9.64902e-07
-3.96482e-06
-3.95337e-06
7.9592e-07
4.76458e-09
-1.31787e-06
-6.20014e-07
2.86175e-06
-2.59189e-06
6.01663e-06
-4.72213e-06
4.33461e-06
1.00972e-06
1.0416e-06
5.69161e-07
-1.61078e-06
-1.99271e-06
6.14992e-06
-2.47795e-06
5.10622e-06
-2.67981e-07
2.65482e-06
-3.2954e-06
-1.25302e-06
-3.86483e-06
-1.58575e-08
2.2997e-07
4.46367e-06
2.82508e-06
-1.75005e-07
-2.6513e-06
-2.72147e-06
1.10308e-06
-2.2586e-06
-6.0396e-07
2.86153e-06
-1.48561e-06
-8.6045e-07
1.90204e-06
1.05725e-06
-4.35895e-06
-1.52733e-06
6.06206e-07
1.83777e-06
-2.4447e-06
-2.43692e-06
5.51621e-08
2.07847e-06
1.89043e-07
-2.09444e-06
3.30503e-06
-2.57419e-07
-3.04983e-06
-8.56835e-07
1.72098e-06
3.37231e-06
2.07461e-06
8.87113e-07
-3.24259e-06
1.18618e-06
1.45476e-06
1.0829e-06
1.05864e-06
-2.14179e-06
-2.51905e-06
-6.1585e-07
3.13353e-06
-7.48538e-07
-8.04112e-07
1.54931e-06
2.65327e-06
1.62346e-06
-4.34169e-06
-1.9307e-06
8.28343e-08
1.67772e-06
-7.56859e-07
-5.16362e-06
2.04017e-06
3.09816e-06
7.93395e-07
9.30199e-07
4.91622e-06
-3.48285e-06
-1.45399e-06
3.86328e-07
-1.64516e-06
1.25882e-06
3.65741e-06
1.16181e-06
4.14966e-06
-2.15068e-06
-2.58137e-06
-5.56779e-07
3.13699e-06
2.94182e-06
-8.59121e-07
-2.08334e-06
1.80288e-06
4.28818e-06
-2.75501e-07
-4.52032e-06
4.75215e-06
-2.40387e-06
-1.58011e-06
-4.07782e-06
2.08257e-06
-2.50732e-06
1.95301e-07
-3.36112e-06
7.3826e-07
1.89985e-06
-1.85391e-06
-4.60008e-08
2.9068e-06
2.81379e-06
-4.47642e-06
4.03556e-06
-1.29391e-06
-2.30874e-07
1.52498e-06
-5.4634e-06
7.75089e-07
4.63055e-06
-2.33746e-06
1.44584e-06
8.91239e-07
3.22742e-06
3.1884e-07
-3.55476e-06
1.96744e-06
-4.47965e-07
-4.03579e-06
-1.20292e-06
2.07405e-06
1.81789e-06
-5.31769e-07
2.14788e-06
-2.42029e-06
-3.16708e-06
-1.26346e-06
4.42268e-06
1.70196e-09
-1.44049e-06
-1.56892e-06
-1.0293e-07
2.31115e-06
-2.47725e-06
-3.43512e-06
-1.23446e-07
2.94725e-06
4.70592e-06
-5.96298e-07
-4.12814e-06
-2.60712e-06
3.49075e-06
-2.67912e-07
1.85672e-06
-1.8091e-06
7.1901e-07
7.1901e-07
1.99065e-06
-9.27507e-07
-1.06315e-06
1.92977e-06
7.90172e-08
-2.00899e-06
5.10974e-06
-8.16291e-07
-2.70694e-06
-1.83627e-06
-7.62504e-07
2.59831e-06
-2.20278e-07
1.58144e-06
-4.87824e-07
1.28687e-06
-9.81618e-07
-5.02723e-07
-1.10311e-06
-1.8583e-06
-9.46266e-07
2.80377e-06
1.0994e-06
-1.73935e-06
6.39176e-07
1.37374e-06
-3.86074e-06
2.53323e-06
-1.81179e-06
-7.21668e-07
5.75842e-06
-3.98905e-06
-1.8163e-06
7.79831e-07
-1.31425e-06
-1.41285e-06
3.3815e-07
-1.19093e-06
2.27451e-06
-1.08403e-06
4.60143e-06
-3.68111e-06
1.30491e-06
-3.6321e-06
-8.06843e-07
-3.67705e-06
-7.1599e-06
1.89521e-06
5.01196e-06
9.09548e-07
1.08105e-06
-3.33767e-06
1.64593e-06
-6.74141e-08
3.37004e-06
3.67693e-06
1.14595e-06
-4.85819e-06
4.7622e-06
-2.18807e-06
-3.75599e-06
-2.10235e-06
5.85987e-06
-1.21456e-06
2.29719e-06
-5.61566e-06
4.23574e-06
-5.91489e-06
2.15633e-06
-2.30039e-06
8.55018e-07
1.44525e-06
-1.16719e-07
2.01651e-06
-3.31034e-06
5.15078e-06
-2.52987e-06
1.06324e-06
1.46615e-06
-2.95321e-06
-2.28192e-07
7.13865e-08
-2.93874e-06
-1.44282e-06
-4.07328e-06
-2.63424e-06
3.10259e-06
7.78459e-07
-3.89025e-06
2.10194e-06
-3.05387e-06
7.55115e-07
-3.77642e-07
4.76479e-06
-4.46835e-06
1.81238e-06
9.54633e-07
6.32452e-06
-1.93591e-06
-4.46097e-06
1.01526e-06
6.15334e-07
-1.63074e-06
-1.5751e-06
7.40238e-07
4.82353e-07
-4.51928e-06
5.16942e-06
-6.7972e-07
-1.36166e-06
1.7469e-06
4.52252e-06
-2.54698e-06
-1.97973e-06
-2.30878e-06
-2.97979e-07
2.83786e-06
-3.73555e-08
3.14512e-07
-5.52197e-07
-1.62118e-06
5.26189e-06
-2.04835e-06
5.54009e-06
-3.6028e-06
2.38473e-06
-5.8981e-07
-1.79514e-06
1.14252e-06
7.44335e-07
-1.88693e-06
3.20931e-07
-4.28096e-06
4.14124e-07
-1.22199e-06
8.08058e-07
3.61721e-06
-2.43053e-06
1.69169e-07
2.0459e-06
-1.24373e-06
-4.22096e-07
1.66577e-06
-1.3441e-06
-1.29096e-06
-2.43434e-06
3.72082e-06
2.12704e-06
2.71642e-06
-4.94887e-06
7.38997e-07
1.3043e-06
3.04932e-06
-2.02935e-07
1.59371e-06
-1.3914e-06
-1.05663e-06
-4.70373e-06
-3.82197e-06
5.29507e-06
-1.49507e-06
-2.69527e-06
1.44993e-06
2.80126e-06
-4.2648e-06
9.42065e-07
1.09172e-06
1.22928e-07
-1.95957e-06
-4.44872e-07
2.37441e-06
-1.97215e-06
4.36166e-06
-2.41495e-06
-2.43497e-06
-5.12648e-06
4.57112e-06
3.83182e-07
-1.52513e-06
-1.49375e-06
4.71052e-06
1.74375e-06
-1.77309e-06
-7.35533e-07
5.41808e-06
3.45156e-06
2.29033e-06
2.22599e-06
2.09846e-06
-1.11097e-06
2.88008e-06
6.39734e-07
8.06037e-07
-1.44603e-06
-1.5259e-06
2.82199e-07
2.03615e-06
-1.02116e-06
9.60158e-07
-1.37629e-06
4.16218e-07
-1.15796e-06
1.51058e-06
-2.29246e-07
-1.28093e-06
-2.22071e-06
-1.80235e-06
4.97789e-06
-3.18648e-06
1.66575e-08
-9.8468e-07
1.11337e-06
-1.70587e-06
-6.31989e-07
-4.57038e-06
-5.10588e-07
-3.46098e-07
2.18956e-06
-4.56031e-06
1.50704e-06
3.0454e-06
-1.72854e-06
-7.31212e-08
1.80144e-06
5.44109e-06
-4.83106e-06
-6.57865e-07
3.57623e-06
2.08376e-06
-5.68533e-06
-9.52172e-08
2.22295e-06
-2.12927e-06
2.35331e-06
-3.68896e-06
1.32963e-06
1.4983e-07
3.7844e-06
-3.93615e-06
-1.73836e-06
2.05776e-06
-3.19455e-07
-9.53822e-07
-1.57452e-06
2.28998e-06
-7.83056e-07
-9.75929e-07
1.7591e-06
-2.18487e-07
2.60293e-06
-1.7053e-06
1.16767e-06
-1.23516e-07
4.72777e-06
-4.65841e-06
-1.17653e-06
-1.39365e-06
2.5695e-06
-2.10521e-06
5.11067e-07
1.686e-06
2.31226e-07
-1.91763e-06
-1.88542e-06
1.79442e-07
-4.72451e-06
7.0469e-07
3.85358e-06
-9.3125e-07
-8.20071e-07
1.751e-06
2.52846e-06
-1.08845e-06
-1.49492e-06
-1.37026e-06
2.8641e-06
-4.73495e-06
2.7308e-06
2.1577e-06
-1.3028e-06
-9.82104e-07
1.69741e-06
-7.15981e-07
-1.81398e-06
-3.04907e-06
2.76141e-06
-1.90198e-06
-8.59825e-07
-9.84364e-07
-4.43561e-06
5.27777e-06
-2.68587e-06
-1.66335e-06
-5.35117e-07
2.19834e-06
1.40154e-06
-1.01522e-06
-1.4555e-06
-2.96315e-06
4.40498e-06
-1.05909e-06
4.15206e-06
4.36134e-06
-2.86737e-07
-4.0773e-06
2.93045e-06
3.67283e-07
-3.30186e-06
-8.21079e-07
1.80164e-06
-1.21132e-06
-5.16837e-07
1.72818e-06
-3.70311e-06
-4.57008e-07
4.04491e-06
4.51573e-07
8.01766e-07
-1.25311e-06
-6.49268e-07
-4.37034e-06
-3.77907e-06
-3.73452e-06
-1.41915e-06
5.13087e-06
1.08239e-06
-1.7362e-06
-5.3202e-06
2.36665e-06
-6.11467e-07
-1.16953e-06
1.7807e-06
1.28333e-06
1.65765e-06
-1.54295e-06
4.91118e-06
4.75153e-07
4.39487e-06
-6.72863e-08
-1.3984e-06
-5.17826e-07
1.91612e-06
-1.854e-06
1.5243e-06
3.87649e-07
-2.5385e-06
3.19504e-06
-6.57829e-07
-4.46442e-06
-2.95924e-07
4.72982e-06
-1.89807e-06
-2.85579e-06
4.73801e-06
-2.76461e-06
5.34991e-06
-2.60596e-06
-1.1115e-06
-7.35948e-07
1.84735e-06
-6.47698e-07
1.61813e-06
-4.83235e-06
4.16449e-07
4.37808e-06
6.0951e-07
1.06836e-06
-5.73703e-06
4.61758e-06
1.04422e-06
-3.99662e-06
2.29323e-06
1.69977e-06
-1.03123e-06
1.86176e-06
1.00193e-06
7.48545e-07
3.30781e-06
1.45711e-06
-4.86402e-06
-3.73608e-06
3.15682e-06
2.88651e-07
1.92004e-07
-1.3617e-06
-2.67145e-06
1.09386e-06
1.57704e-06
3.74098e-06
-8.15426e-07
1.28775e-06
-1.4913e-06
3.81992e-07
-4.13701e-06
5.1008e-06
-1.4591e-06
1.24478e-06
6.70152e-07
-1.17548e-06
2.17346e-06
-9.98024e-07
2.55604e-06
3.96438e-07
-2.95366e-06
8.02699e-07
-1.58566e-06
2.54641e-06
-3.73339e-08
-2.50982e-06
-1.75068e-06
1.02304e-06
7.27624e-07
-1.335e-06
-3.48479e-06
4.72368e-06
6.27424e-07
-2.05566e-06
1.43995e-06
1.09304e-06
-1.20635e-07
1.99027e-06
-1.99884e-06
-6.8021e-07
1.4834e-06
-1.06523e-06
2.10513e-06
-1.03998e-06
-1.47018e-06
-3.72139e-06
5.91102e-08
4.43021e-06
-4.5915e-06
-1.0954e-06
1.50974e-06
2.29431e-06
7.60091e-07
-3.05721e-06
1.44325e-06
3.1533e-07
-1.75843e-06
-2.5067e-06
-3.25221e-06
1.65556e-06
-2.07303e-06
8.49398e-07
4.24381e-06
8.72972e-07
-5.12252e-06
-1.79352e-06
4.13975e-06
-3.32464e-07
-1.55747e-06
-1.55558e-06
-1.0538e-06
3.15728e-06
-8.30087e-08
2.62861e-06
3.38634e-06
1.77262e-06
-5.18622e-06
-3.22885e-06
6.18693e-07
2.77356e-06
3.54988e-06
-3.15624e-06
3.30508e-06
-3.49967e-06
4.41948e-06
-9.26574e-07
1.35134e-06
-8.99493e-07
-2.4776e-06
-1.85175e-06
4.32154e-06
-1.50121e-06
-4.2427e-06
4.99376e-06
8.4163e-08
-5.30479e-06
2.14531e-06
-2.82137e-06
5.09429e-07
-3.70583e-06
1.53204e-06
3.67e-06
-4.11696e-06
3.15399e-06
-1.36794e-07
-3.0189e-06
2.69893e-07
4.53212e-06
-4.84646e-06
2.1648e-06
-3.46032e-06
-1.87683e-06
2.50392e-06
1.74329e-06
-6.73715e-08
-1.58722e-06
-9.62888e-07
-6.15175e-07
1.57816e-06
5.37949e-07
-6.34138e-07
-6.34709e-07
-2.67919e-06
3.31206e-06
-9.46779e-07
1.55543e-06
-1.43612e-06
1.96132e-06
-5.25176e-07
4.27231e-06
2.05746e-06
-6.14107e-07
2.34855e-06
-2.44548e-06
-1.72593e-06
-1.16386e-06
2.88909e-06
6.07065e-07
-1.67234e-06
4.46011e-06
-6.34709e-07
-3.95654e-06
-3.65605e-07
-1.37279e-06
-1.59599e-06
-2.99133e-06
-2.19562e-06
1.72231e-06
-7.65714e-07
-2.51128e-06
1.48113e-06
1.02994e-06
-6.95373e-07
-1.9513e-06
-1.69399e-07
3.32143e-06
4.78675e-06
-6.24217e-07
-1.04046e-06
-7.10217e-07
4.51779e-07
-1.31998e-06
8.67816e-07
6.03451e-06
-2.90249e-06
-3.23067e-06
-1.02518e-06
-1.48454e-06
2.16105e-06
-6.76547e-07
1.72727e-07
9.05611e-07
-1.09049e-06
-1.15853e-06
1.31602e-06
3.03032e-07
-2.68526e-06
4.69837e-07
-1.43269e-06
-1.31366e-06
-8.52896e-07
2.16642e-06
-1.38739e-06
-3.89157e-06
-2.14935e-06
-1.00083e-06
3.14896e-06
4.85011e-06
1.38761e-06
3.25172e-06
1.54623e-06
-4.80373e-06
2.25244e-06
-1.91442e-07
-2.06131e-06
-2.70716e-06
9.29993e-07
1.84291e-06
-2.77417e-06
-1.09944e-06
6.67733e-07
1.44805e-07
2.07292e-06
-1.6375e-06
-2.18491e-06
3.58266e-06
-1.40085e-06
-3.78089e-06
1.60827e-06
2.16726e-06
-2.76553e-06
5.15632e-06
-2.39515e-06
-3.18579e-06
5.51289e-06
-1.20938e-06
3.50042e-06
9.57275e-07
3.27989e-06
1.17746e-06
1.60882e-06
4.18291e-06
-1.90785e-06
-2.49081e-06
3.93632e-06
-5.08984e-07
3.06364e-06
-3.67342e-07
1.96053e-06
2.26755e-06
-1.3291e-06
1.92199e-06
-2.90692e-07
-1.63152e-06
2.33514e-06
-6.49531e-07
-8.44609e-08
2.44623e-06
1.07682e-06
-1.72086e-06
6.39706e-07
4.69402e-06
-3.49108e-06
-1.21116e-06
-1.91135e-06
2.47895e-07
-2.63948e-06
-3.47296e-06
2.55745e-06
7.23625e-07
3.22844e-06
1.85453e-06
5.29505e-07
1.73756e-06
5.28338e-06
-2.32142e-06
-2.98987e-06
1.16064e-06
5.06188e-08
-6.47816e-09
-8.10021e-07
5.25526e-07
-2.14058e-06
-1.21977e-06
3.3585e-06
-1.43591e-06
6.85976e-07
4.86043e-07
-5.03198e-06
6.36387e-07
-1.56315e-06
4.96492e-06
-2.54949e-07
-2.0203e-06
7.06513e-07
2.42949e-06
-1.12371e-07
-2.31796e-06
1.07624e-06
-1.41045e-06
-3.29081e-06
3.11953e-06
-4.8034e-06
7.35493e-07
-4.71342e-06
4.85698e-06
1.71594e-06
-6.39671e-07
2.48857e-06
-1.55955e-06
1.70467e-06
2.97897e-06
-1.9538e-06
2.15987e-06
2.50121e-06
6.25728e-07
1.5395e-06
-2.16546e-06
-2.77686e-06
-2.74841e-06
2.66456e-06
-2.65141e-06
5.16293e-06
-2.53354e-06
1.44586e-06
8.95627e-07
-2.34207e-06
3.26305e-06
2.45392e-06
3.39495e-07
6.13709e-06
-3.83106e-06
-2.56381e-06
5.80293e-06
-7.25571e-07
1.78219e-06
-1.05679e-06
-9.71658e-07
3.08009e-06
-4.19978e-07
2.67204e-06
-1.62724e-06
-3.72918e-07
-2.91968e-06
-1.1193e-06
-5.85829e-07
1.70514e-06
1.29442e-06
-7.29087e-07
-3.15419e-07
-2.43377e-06
-2.35022e-06
6.23689e-07
1.86867e-06
2.40173e-06
1.43424e-06
-5.17928e-06
5.01719e-06
-3.7385e-06
1.5793e-06
1.90126e-06
2.48404e-06
-5.10254e-07
2.28106e-06
1.93613e-06
1.64869e-06
-3.58809e-06
3.33737e-06
-2.32719e-06
-1.01107e-06
1.31379e-06
-3.5011e-06
2.21428e-06
-9.22941e-07
3.77325e-06
-5.21903e-06
1.39249e-06
-1.60734e-06
6.45031e-08
-6.45028e-08
7.61399e-07
1.0131e-06
-4.21814e-06
1.87656e-06
2.33109e-06
-1.14058e-08
-9.27742e-09
2.48339e-06
-2.4094e-06
-2.27222e-09
-1.62468e-06
-2.01037e-07
1.82573e-06
-5.24812e-06
6.35895e-07
2.28375e-06
-1.79742e-06
-4.86482e-07
-1.44805e-06
2.05505e-06
1.95689e-06
3.13533e-06
-3.29375e-07
-2.80894e-06
-3.92607e-06
3.86085e-06
-8.61944e-08
-1.84735e-06
8.15407e-07
5.45978e-06
-2.40511e-06
-3.08382e-06
-5.20075e-06
3.22235e-07
-2.06857e-06
-1.58339e-06
1.74393e-06
-3.30394e-09
-6.41899e-06
2.04055e-06
4.08386e-06
-3.02591e-06
-1.20006e-06
4.14703e-06
-2.18054e-06
-1.97585e-06
-1.05212e-06
-5.90367e-07
1.64276e-06
-5.37932e-06
2.26231e-06
3.08842e-06
-1.53471e-06
-3.55407e-06
5.06756e-06
4.1186e-07
-2.27086e-06
3.40659e-07
-1.55196e-06
-2.33761e-06
-2.10241e-06
5.19406e-06
-2.65369e-06
-2.56036e-06
-8.91342e-07
1.93226e-06
-1.04094e-06
-1.93329e-06
-2.04009e-06
1.21226e-06
2.76219e-06
-2.7793e-06
8.89916e-08
-5.35232e-06
3.35492e-06
-1.71671e-06
2.31108e-06
-5.94524e-07
-3.50457e-06
1.68476e-07
3.33307e-06
3.22126e-06
-1.43434e-06
2.1084e-06
-3.20364e-06
1.09303e-06
-3.74769e-06
-3.55612e-07
-6.76369e-07
1.00759e-06
8.65857e-08
-8.65857e-08
-2.25207e-06
-1.74758e-06
3.29057e-06
-4.72037e-06
-6.77795e-07
2.93894e-07
2.53792e-06
2.25102e-06
-4.81562e-06
2.27712e-06
-2.33232e-06
5.4589e-08
-5.38306e-06
-6.49688e-07
5.98193e-06
-1.2175e-06
-1.44639e-06
2.66324e-06
2.07131e-06
-7.05505e-07
-1.88349e-06
2.58882e-06
3.1497e-06
-1.04351e-06
-1.93474e-06
1.3632e-06
5.71577e-07
-3.85181e-06
2.10978e-06
-1.61305e-09
-2.06095e-06
-1.13538e-06
3.19487e-06
1.30977e-06
-4.9475e-06
3.37397e-06
-4.41322e-06
4.09803e-06
2.24107e-06
-3.19353e-07
-1.38373e-06
1.95287e-06
-1.54112e-06
7.82134e-07
1.15008e-06
-6.03453e-06
7.99058e-07
5.09588e-06
2.22661e-06
3.69489e-06
-3.953e-07
-2.323e-06
2.71665e-06
-2.20206e-06
-3.13332e-06
5.28908e-06
-1.01358e-06
7.39792e-07
-2.63915e-08
-1.68506e-06
8.29827e-07
1.05396e-06
-2.45628e-06
-1.50562e-06
6.15135e-07
8.90523e-07
-2.70493e-06
-4.04465e-07
-3.10293e-06
2.85301e-06
2.24209e-06
-5.10656e-06
1.10739e-06
-3.61323e-07
1.15234e-06
1.00256e-06
-2.15505e-06
-3.22847e-06
3.15877e-06
-4.90647e-07
-2.63039e-07
3.72049e-07
-3.61148e-08
2.33776e-06
-1.38616e-06
-1.34025e-06
2.78781e-06
-1.4483e-06
-1.00877e-06
1.5528e-06
-6.19558e-06
-5.64173e-08
-4.04939e-06
4.06299e-06
3.66118e-07
-1.41817e-06
2.58515e-06
-5.35478e-06
4.99843e-06
-2.98283e-06
-2.03569e-06
-6.35382e-06
-1.20247e-06
-1.49518e-06
-3.28054e-07
1.82313e-06
-3.76037e-07
-2.58768e-06
-5.21372e-07
1.58755e-06
3.08321e-06
-3.43871e-06
3.7494e-07
3.04169e-06
-1.56614e-06
-2.01013e-06
-2.38736e-06
4.38608e-06
5.47682e-07
2.23268e-06
-2.78184e-06
-4.20443e-06
9.8725e-07
-4.98716e-06
-1.19368e-06
4.46651e-06
-3.30914e-06
1.65439e-06
4.7227e-06
-6.36214e-06
2.4809e-06
-1.66587e-06
-8.15383e-07
-6.21687e-06
2.33132e-06
3.8653e-06
6.9242e-07
1.05567e-06
-4.89275e-06
2.62899e-06
2.19781e-06
1.82129e-07
-1.89424e-06
1.71173e-06
1.84846e-06
-1.2266e-06
-6.222e-07
-4.74772e-06
1.97167e-06
2.7542e-06
-7.15846e-06
2.31479e-06
4.94721e-06
1.88369e-06
-1.13696e-06
-7.46252e-07
-1.22472e-06
1.99197e-06
-7.67339e-07
-8.83604e-07
-3.9841e-06
-3.22539e-06
3.39087e-06
-5.5543e-06
3.76974e-07
1.07585e-06
-1.41044e-06
3.34594e-07
-6.53071e-07
-2.98471e-06
2.0199e-06
-1.49078e-06
-5.42383e-07
2.79636e-06
-2.31103e-06
-3.24758e-06
4.91415e-06
2.97443e-07
1.98613e-06
-4.18071e-06
4.31764e-07
-7.42159e-07
-4.49699e-07
-3.33796e-06
1.66071e-06
-1.0777e-06
-5.83005e-07
-1.91228e-06
9.7516e-07
9.37324e-07
3.92655e-07
-1.87723e-06
-1.67652e-06
8.96039e-07
1.62706e-06
-5.52436e-07
-2.99807e-06
2.11858e-06
1.40647e-07
-5.56308e-06
2.62244e-06
3.96619e-06
6.95454e-07
9.9953e-07
1.34431e-06
1.01303e-07
-1.28033e-06
-9.29504e-07
1.98709e-06
-1.05763e-06
-1.09477e-06
2.12741e-06
-1.03301e-06
-1.03033e-06
-4.3837e-06
3.13303e-06
3.68243e-07
2.96637e-06
-4.43466e-06
1.41912e-06
-5.30636e-08
6.76599e-07
1.20744e-06
-2.678e-06
-8.94336e-07
-1.08593e-06
1.73866e-06
2.67409e-06
-3.90111e-06
-1.38533e-06
2.04903e-06
-2.29366e-06
4.37247e-06
-2.47639e-06
2.90127e-06
-4.728e-07
4.75832e-06
-4.40696e-07
2.57501e-06
2.18632e-07
-1.89213e-06
-6.78078e-07
2.56994e-06
1.26923e-06
-8.17296e-07
-9.77059e-07
4.10805e-06
-8.1102e-07
1.01658e-06
-3.11829e-06
2.09696e-06
6.29234e-07
2.63867e-06
-1.91681e-06
4.36068e-06
-2.45447e-06
-1.50967e-07
-3.07708e-06
8.53119e-07
5.84215e-07
-1.43751e-06
3.17868e-06
2.00002e-06
1.29285e-06
-2.26982e-06
9.76733e-07
-2.88455e-07
-2.942e-06
-1.42486e-06
3.16174e-07
-1.3275e-06
1.81528e-06
-4.87617e-07
-1.50395e-06
1.76541e-07
-1.5024e-06
9.68525e-07
5.33531e-07
-1.11034e-06
-1.3014e-06
-7.83693e-07
2.08496e-06
5.37028e-06
-1.03629e-06
-1.24826e-07
1.95992e-06
2.52516e-06
-1.40052e-06
-1.12504e-06
2.17959e-06
3.07086e-06
-2.21024e-06
-3.86802e-06
1.35285e-06
2.30522e-07
-1.58341e-06
3.51559e-06
1.53741e-06
-5.10822e-06
-2.02651e-06
-4.91749e-06
5.1996e-06
-1.98504e-06
-2.41164e-06
5.86214e-06
-1.56848e-06
1.12053e-06
-2.31156e-06
1.71673e-07
1.85907e-06
-4.22306e-06
2.29622e-06
-1.33839e-06
1.57241e-06
-5.35138e-06
4.58314e-06
6.97074e-07
1.73492e-06
-8.00655e-07
-5.51255e-06
1.49894e-06
3.98826e-06
-3.2947e-06
1.54846e-06
1.74317e-06
1.92623e-06
-1.3874e-06
-5.38906e-07
1.23644e-06
-1.18859e-06
-1.4833e-06
-5.63504e-07
-2.84694e-06
3.3938e-06
-2.0159e-06
-2.75189e-06
-1.22685e-06
-6.84403e-07
5.25322e-06
-2.31517e-06
2.91364e-06
-5.99053e-07
-1.71211e-06
1.18731e-06
4.73403e-07
5.35761e-06
-1.13929e-06
-4.31444e-06
-1.51176e-06
7.23251e-07
7.88523e-07
5.17394e-06
-3.15993e-06
-6.12229e-07
1.48387e-06
-8.71551e-07
6.36074e-07
8.07717e-07
-1.44378e-06
-7.5701e-07
-7.54743e-07
-4.71481e-06
2.88952e-06
1.81658e-06
-5.51513e-06
4.35759e-06
1.07644e-06
-4.81854e-06
-1.34913e-06
-6.78771e-07
-1.79208e-07
1.02771e-06
2.08053e-06
-7.9034e-07
3.18558e-06
-2.35079e-06
-8.44643e-07
-3.16436e-06
4.88844e-06
-5.02429e-06
1.8637e-06
3.14769e-06
-3.8974e-06
1.55709e-06
3.95703e-06
1.37502e-06
-4.92674e-07
-1.49249e-06
5.24969e-06
-3.15742e-06
-2.12179e-06
-2.34201e-06
-3.32422e-06
5.63698e-06
3.5936e-06
-3.75978e-06
-4.34559e-06
-7.7529e-07
1.38248e-06
-1.76001e-06
3.77489e-07
2.50493e-06
-1.44373e-06
-1.06154e-06
-4.94302e-06
3.07552e-06
1.8413e-06
-2.3976e-06
3.73814e-06
-1.34642e-06
-8.55157e-07
2.20797e-06
-2.87486e-06
1.60923e-06
-1.53926e-06
1.45074e-06
-3.61744e-06
-1.78748e-06
4.52138e-06
-2.7479e-06
-4.56609e-06
-1.66629e-06
3.49027e-06
-8.81065e-07
-2.80637e-06
-3.25769e-06
-9.06421e-07
4.15712e-06
-2.51198e-06
-1.19884e-07
-2.74312e-06
1.31951e-07
2.45207e-06
1.33898e-06
-4.8015e-06
-4.53874e-07
-3.20469e-07
2.59696e-06
-8.9035e-07
4.48872e-06
-7.37022e-07
1.41647e-06
-6.7352e-07
-1.38785e-06
-9.69217e-07
2.35681e-06
-2.55733e-06
1.02422e-06
1.53252e-06
1.642e-06
1.11894e-06
-4.79967e-06
6.92133e-07
3.97777e-06
-1.63612e-06
1.32543e-06
1.37966e-06
-2.70598e-06
3.4964e-08
-4.68765e-06
5.80144e-06
-3.74412e-06
1.8633e-06
-2.54004e-07
2.7689e-06
2.41835e-06
-5.20519e-06
2.67401e-06
2.19433e-06
-2.00553e-06
3.56684e-07
-1.65049e-06
-8.25334e-07
-2.77806e-06
3.60035e-06
-4.54591e-06
3.84889e-06
5.46026e-07
8.90091e-07
2.55818e-06
-3.64145e-07
-1.83663e-06
-3.56554e-06
2.98456e-06
-4.83418e-06