/*--------------------------------*- C++ -*----------------------------------*\
| =========                 |                                                 |
| \\      /  F ield         | OpenFOAM: The Open Source CFD Toolbox           |
|  \\    /   O peration     | Version:  v2012                                 |
|   \\  /    A nd           | Website:  www.openfoam.com                      |
|    \\/     M anipulation  |                                                 |
\*---------------------------------------------------------------------------*/
FoamFile
{
    version     2.0;
    format      ascii;
    class       volScalarField;
    location    "400";
    object      k;
}
// * * * * * * * * * * * * * * * * * * * * * * * * * * * * * * * * * * * * * //

dimensions      [0 2 -2 0 0 0 0];


internalField   nonuniform List<scalar> 
13851
(
0.000153408
0.0182786
0.000190702
0.000152662
0.000188823
0.000236492
0.000146708
0.000178073
0.00013918
0.000198757
0.00393439
0.0384401
0.0113005
0.0357453
0.000144068
0.000168144
0.000157191
0.000163904
0.000910378
0.000139061
0.000152273
0.000189657
0.000147447
0.000152621
0.000149229
0.000178744
0.000155572
0.00288222
0.000153122
0.000156262
0.000261108
0.000157827
0.000189701
0.00558728
0.00015269
0.000209265
9.55774e-05
0.000189469
0.000201829
0.00518692
0.000144922
0.000132572
0.00539451
0.00409892
0.00357826
0.01713
0.00358346
0.00531489
0.000156028
0.000288982
0.000187358
0.000198989
0.0113207
0.000145983
0.000153684
0.000132682
0.00014538
0.0135785
0.00015575
0.000147381
0.000193155
0.0198515
0.000196372
0.000191538
0.000254412
0.0001562
0.000364137
0.00352201
0.000167955
0.000163686
0.0154663
0.00631554
0.0181985
0.00014685
0.000141312
0.000141686
0.000188889
0.0162236
0.000177848
0.017967
0.000149103
0.00280042
0.000143982
0.0148992
0.000199361
0.0390814
0.000200231
0.0340805
0.000157939
0.000141165
0.000209126
0.000180381
0.00351163
0.000161339
0.000157559
0.000151373
0.000189271
0.0290513
0.00027877
0.000151475
0.0264175
0.000179278
0.000150438
0.0001547
0.000145535
0.0002054
0.000181543
0.000131503
0.0186663
0.000250547
0.000153173
0.000141517
0.000181931
0.000155248
0.000153068
0.0145231
0.0299011
0.000131607
0.000156554
0.000157156
0.00525593
0.000154496
0.0141955
0.00719993
0.00840185
0.000145059
0.00874046
0.000178644
0.000151777
0.000198516
0.000144682
0.000138973
0.0185984
0.000143935
0.0147488
0.000140713
0.000131689
0.00515594
0.0242851
0.0328221
0.0256022
0.00015346
0.000150009
0.000136257
0.000153818
0.00412005
0.000314631
0.000198595
0.000146511
0.00329661
0.000188501
0.000153804
0.0361803
0.000146091
0.000152742
0.000153637
0.000142219
0.000153644
0.000198803
0.000187004
0.000133888
0.000161024
0.013562
0.000138858
0.000162078
0.000134424
0.000400972
0.00016837
0.000151443
0.0179347
0.0141299
0.000136507
0.000142396
0.0320293
0.000138749
0.00514079
0.000177843
0.000150016
0.000969589
0.000131862
0.000159139
0.00760604
0.000143816
0.000190982
0.000133191
0.000148479
0.000156586
0.000148461
0.000191277
0.000201083
0.0037216
0.0126959
0.000142383
0.000168207
0.0206984
0.000152331
0.000148997
0.00195526
0.00014926
0.000141916
0.000145377
0.0182524
0.000163706
0.000143314
0.000191686
0.000143946
0.0254326
0.000157432
0.0285615
0.000132481
0.0345013
0.000150049
0.0023397
0.000131362
0.000135541
0.0037469
0.000192902
0.0174678
0.000143403
0.0296619
0.000157753
0.00014933
0.0312073
0.000197427
0.0387929
0.0001493
0.000163848
0.00014734
0.0150339
0.000131454
0.000177902
0.000252451
0.000136425
0.000142054
0.000185053
0.000177192
0.0242008
0.000310561
0.000136134
0.000143435
0.000244025
0.00411597
0.000137311
0.000194265
0.00014303
0.0373874
0.000179822
0.0028236
0.000153906
0.000158943
0.000164422
0.00479433
0.000149422
0.000154071
0.000179811
0.00823462
0.000198262
0.00626072
0.0050163
0.000144246
0.000135658
0.000162226
0.00269152
0.000138809
0.00627694
0.000152309
0.000149262
0.00016065
0.0296784
0.000343965
0.000163983
0.000152758
0.00103676
0.000176423
0.000167383
0.000139091
0.00273244
0.00156173
0.0413079
0.00378272
0.000137435
0.000132036
0.000145082
0.000178804
0.00199402
0.00383312
0.000140397
0.000144079
0.00084151
0.00268456
0.000202693
0.000155037
0.000147506
0.000170219
0.00276693
0.00572639
0.000161155
0.0394231
0.000139313
0.037508
0.000160486
0.000156993
0.0402241
0.000147764
0.000205593
0.0338902
0.000140147
0.000175087
0.000161532
0.000154499
0.0211051
0.000161462
0.000149145
0.0312747
0.000133081
0.000159368
0.00014919
0.0397888
0.0001996
0.00014342
0.000179938
0.000143648
0.0112161
0.000176215
0.000147308
0.00014478
0.000198973
0.000163008
0.000152455
0.000144089
0.000147611
0.000148957
0.00395951
0.0258441
0.0194263
0.000168741
0.0386559
0.0206533
0.000143692
0.000168866
0.000203482
0.000191574
0.000187155
0.000196612
0.000654086
0.000157321
0.00295407
0.0352929
0.000144326
0.000437116
0.000436007
0.000614814
0.000152428
0.000189157
0.0154889
0.000142727
0.00231573
0.00014472
0.000143709
0.000141194
0.000131562
0.000141452
0.0352851
0.0023
0.000144738
0.00017395
0.000133763
0.037528
0.000173266
0.00352714
0.0190987
0.000144959
0.000197801
0.000161748
0.002642
0.000143888
0.000131725
0.00016962
0.0222399
0.00014473
0.0216978
0.000185563
0.000198198
0.0155191
0.00096223
0.000983753
0.000159281
0.000139442
0.000150322
0.000166815
0.000179643
0.0373705
0.000168305
0.038106
0.0343215
0.000133877
0.000144347
0.0186218
0.0201686
0.000253959
0.0303911
0.000174195
0.000162599
0.000151264
0.0177341
0.000137688
0.000167623
0.000157513
0.000146015
0.000146474
0.000139874
0.000134316
0.000190884
0.000181776
0.0150231
0.000164696
0.000181208
0.000169354
0.00528007
0.000160461
0.000648741
0.000156472
0.00373122
0.000131589
0.00013965
0.000150231
5.56577e-05
0.00407163
0.000196678
0.00016785
0.011639
0.00596006
0.000196941
0.000159906
0.00018553
0.000143639
0.00538617
0.000145411
0.00416524
0.00319576
0.000188749
0.0257728
0.000150375
0.00167546
0.00317312
0.0175636
0.000131726
0.000164313
0.000178485
0.000860179
0.000137179
0.000149039
0.000187138
0.000197813
0.000170373
0.0245499
0.000149307
0.000145301
0.010594
0.000163074
0.000131795
0.032085
0.000139368
0.000153339
0.000137908
0.000172805
0.000152548
0.000132193
0.000149632
0.03068
0.000144122
0.000170231
0.00013996
0.000167831
0.00352669
0.000156175
0.000144817
0.000155495
0.000155368
0.00876383
0.00014913
0.000212356
0.000143759
0.000149566
0.028425
0.0243235
0.000144213
0.000170712
0.00016064
0.00295939
0.0159945
0.000145377
0.00274109
0.000144145
0.000189152
0.000146601
0.0164944
0.000133121
0.0107329
0.000198037
0.000132696
0.000170779
0.0237353
0.000178804
0.00309631
0.000156257
0.00754919
0.00015702
0.000138342
0.000139226
0.00014594
0.0245057
0.000185062
0.000200087
0.000172126
0.000190122
0.000134308
0.0228546
0.00406259
0.000159337
0.000161349
0.0012961
0.00772824
0.032157
0.00015263
0.0170201
0.0164519
0.0181367
0.000162374
0.000174043
0.00194222
0.00184207
0.00862027
0.00203051
0.0129473
0.000154119
0.0146884
0.00945256
0.000131812
0.00138905
0.000185642
0.0197963
0.000154331
0.000142822
0.000141933
0.000143894
0.000190654
0.000173586
0.0319387
0.0243305
0.000139669
0.00909419
0.0243917
0.0002569
0.00356852
0.00016972
0.000131346
0.000139407
0.00198383
0.0252135
0.000152978
0.000192654
0.000208899
0.000132565
0.000179855
0.00747939
9.93802e-05
0.000195911
0.0257563
0.00953244
0.000144401
0.000146149
0.0245452
0.0340455
0.000200732
0.000168092
0.000212169
0.000131778
0.00014204
0.00652144
0.000132279
0.000154161
0.000131741
0.000139432
0.0109302
0.000190609
0.000163563
0.000132188
0.0192335
0.00192147
0.000139501
0.000143174
0.000139073
0.000149504
0.0206329
0.00231362
0.00216672
0.0181116
0.00667287
0.000166492
0.0160128
0.0259862
0.000159016
0.000168441
0.000131321
0.000149037
0.000169704
0.0284793
0.00243612
0.000192244
0.000163099
0.000138642
0.00016776
0.000149094
0.00333475
0.000187193
0.000143636
0.000169729
0.000137164
0.000160245
0.000197445
0.00014702
0.000143398
0.00017346
0.00014707
0.000189174
0.000100491
0.000196578
0.00016806
0.000201709
0.000138481
0.000229891
0.000168424
0.0179583
0.000149787
0.000151859
0.0153952
0.000154993
0.0151177
0.0356904
0.01754
0.0302936
0.000137638
0.00852141
0.000138386
0.000139402
0.000133087
0.000139491
0.000159365
0.000166057
0.000171418
0.000131948
0.0198058
0.000200901
0.0213136
0.000141276
0.000134792
0.000143722
0.000201573
0.0205886
0.00018032
0.000160639
0.000138481
0.000150418
0.000146725
0.000142911
0.0001439
0.0291198
0.000146782
0.000131837
0.000146075
0.000142799
0.000457173
0.0133022
0.000168251
0.0270719
0.00788077
0.000143178
0.000199582
0.0199098
0.000169717
0.0383028
0.000149056
0.000162581
0.000179877
0.00016324
0.00230197
0.000144074
0.00397049
0.000146171
0.000164135
0.028471
0.000142505
0.00015321
0.000215274
0.000138441
0.000158321
0.00106739
0.0346316
0.000186678
0.00461514
0.00145341
0.000131497
0.000141035
0.0261136
0.000206163
0.000179324
0.0357241
0.000138528
0.000165536
0.000131919
0.00560857
0.000553934
0.000158931
0.000148724
0.00344406
0.000155968
0.000143327
0.00908417
0.0122966
0.0282061
0.000132932
0.000146625
0.0163501
0.00879156
0.000205347
0.000148159
0.0212291
0.000144038
0.00365449
0.00020321
0.000190127
0.000157602
0.0172444
0.00016201
0.000150897
0.000131949
0.000151146
0.000163463
0.000153015
0.000138312
0.0105171
0.000166951
0.000196336
0.000162846
0.00233184
0.000138851
0.00197355
0.000155508
0.000161939
0.000135561
0.000142767
0.000144816
0.0336569
0.000141686
0.000132032
0.0124001
0.000146404
0.0201695
0.000147082
0.000149433
0.000186876
0.000831659
0.00263499
0.000141186
0.000588508
0.0280043
0.000149284
0.0323239
0.000163798
0.000138039
0.000223324
0.00667525
0.000383346
0.000159294
0.000140706
0.00013162
0.00354796
0.000193009
0.000182424
0.00016052
0.0002192
0.000150337
0.000148758
0.000192501
0.00466179
0.000190738
0.00316118
0.000146372
0.000189357
0.000190359
0.0387795
0.000158732
0.0305248
0.000115984
0.000146541
0.0150054
0.000219894
0.0253255
0.0370568
0.0315018
0.00301507
0.000174924
0.000138179
0.00016586
0.0142367
0.0143513
0.00014428
0.000149875
0.000185724
0.00303832
0.000132712
0.0112568
0.000138273
0.000144713
0.0112547
0.0161652
0.00156655
0.000139347
0.000143826
0.0100091
0.000169794
0.000198964
0.000153313
0.0227351
0.000190128
0.0226055
0.000181219
0.000173394
0.000149185
0.000146435
0.0183753
0.000178615
0.0191059
0.000181314
0.000167866
0.011145
0.0249083
0.021827
0.000144745
0.00016488
0.000139402
0.000168634
0.000152957
0.0365372
0.000165991
0.0346054
0.000132594
0.000186338
0.000142488
0.000211865
0.000167104
0.000164448
0.0276516
0.00017518
0.000174314
0.000153457
0.000186318
0.00297105
0.00020945
0.000154406
0.014518
0.000138385
0.0404921
0.0025159
0.000147677
0.0358908
0.0249057
0.0217115
0.00358181
0.000175284
0.000144092
0.0269617
0.00016686
0.0136963
0.0290513
0.000141259
0.000151983
0.000149575
0.00283551
0.0314919
0.000146584
0.00014185
0.0261996
0.028419
0.000195917
0.000158513
0.000151418
0.00316467
0.014908
0.000190959
0.00013208
0.000175472
0.000138535
0.000160194
0.000617829
0.000151598
0.00624357
0.00555001
0.000144899
0.000150744
0.000144316
0.000153166
0.0161995
0.0224558
0.000163795
0.0296897
0.00014242
0.000163891
0.000143741
0.000138642
0.00014719
0.000144731
0.0220049
0.000144266
0.000179918
0.000144857
0.000159502
0.000707107
0.00736308
0.000156622
0.0247703
0.00018438
0.000105236
0.000167596
0.00016785
0.0166844
0.000160224
0.000175182
0.0368476
0.0139746
0.0112445
0.000174014
0.00344356
0.000149328
0.000173813
0.000179781
0.0310978
0.00014533
0.0291837
0.000140851
0.000141465
0.03615
0.000143829
0.00467145
0.000158098
0.000139339
0.000174955
0.000139423
0.00014386
0.000140151
0.000148747
0.000184045
0.000141438
0.000185235
0.0142946
0.000187525
0.0315641
0.000146183
0.000155861
0.000153516
0.000144087
0.000139209
0.000189461
0.000149084
0.00014098
0.000148968
0.000149323
0.0200196
0.0282094
0.000208703
0.0304758
0.000103464
0.00014202
0.000533572
0.000162847
0.000141265
0.00397731
0.000236524
0.00478425
0.0001418
0.00374812
0.00373121
0.0170512
0.000136656
0.0126831
0.000165951
0.000155389
0.000140963
0.000138529
0.0219015
0.000217918
0.00608904
0.000142065
0.000143582
0.0110013
0.000147771
0.000754748
0.00283876
0.0180094
0.000612677
0.00379236
0.000149797
0.000144523
0.000195153
0.000168009
0.000154798
0.000207305
0.00017531
0.00014926
0.000150856
0.0282102
0.000141212
0.0191116
0.0025188
0.012995
0.000218573
0.000152317
0.000136949
0.000148112
0.00376238
0.00465598
0.000136653
0.000158484
0.000141861
0.000188703
0.000133427
0.000141466
0.000149504
0.000167328
0.00046141
0.000175473
0.000168824
0.000145246
0.000179859
0.012163
0.000150396
0.0151525
0.00971627
0.000189911
0.000134743
0.000175837
0.000142803
0.00014775
0.000147754
0.0161407
0.000199428
0.00444946
0.000154898
0.00369359
0.000143194
0.000146291
0.000147788
0.000365139
0.0171229
0.000133568
0.000166951
0.000184676
0.0254529
0.000156148
0.0208627
0.000162294
0.024904
0.000192683
0.0288208
0.000192902
0.000189425
3.07477e-05
0.0257097
0.00402793
0.019003
0.000145654
0.00022267
0.000133291
0.000154585
0.000158989
0.000147385
0.0259296
0.000164234
0.000161301
0.00347167
0.00020785
0.00788719
0.000143526
0.000154545
0.000159663
0.000137575
0.000167838
0.0237379
0.00432772
0.00999436
0.000140558
0.000160294
0.000154532
0.00701152
0.0302284
0.000194482
0.00013684
0.000148731
0.0173837
0.000177984
0.0127698
0.0254612
0.000216339
0.000134563
0.00535965
0.00016681
0.000175993
0.000162553
0.0335747
0.00333004
0.000196498
0.000222364
0.000150756
0.000164489
0.000144707
0.010336
0.000179589
0.0246138
0.0029812
0.000158795
0.000202947
0.000152268
0.0329604
0.00015207
0.000143734
0.00428107
0.0295708
0.00715553
0.0156373
0.000146499
0.000144794
0.0164815
0.0140953
0.0157585
0.000155448
0.000146122
0.000144927
0.020395
0.000203741
0.000148676
0.000221324
0.000194188
0.0236024
0.00452759
0.0035363
0.000144247
0.0180441
0.000156672
0.00014465
0.000201477
0.0198171
0.000146813
0.000140849
0.00616281
0.0315418
0.00014367
0.000140447
0.0293462
0.00014325
0.00196419
0.000140563
0.00775572
0.000144806
0.000180309
0.0133806
0.0301284
0.000151601
0.00683762
0.00518192
0.019125
0.00312002
0.0255233
0.000209793
0.000142411
0.00653724
0.000156447
0.000143644
0.000137444
0.00449111
0.00014298
8.87863e-05
0.000141032
0.000151787
0.0152022
0.00018814
0.00349499
0.000152803
0.000167875
0.000139117
0.000166706
0.00407383
0.0287791
0.000140326
0.000185636
0.00335785
0.000147486
0.000138735
0.0280069
0.000168578
0.000169925
0.000199583
0.0365288
0.0189547
0.00284697
0.0131694
0.000225554
0.00378898
0.00427053
0.0181623
0.000185597
0.00013737
0.000199923
0.000142351
0.000142356
0.0286165
0.0283208
0.000153801
0.0356921
0.000234971
0.0185359
0.000254272
0.00021979
0.000143623
0.00023206
0.000240348
0.000142432
0.000151934
0.0336731
0.0293458
0.0183918
0.0303832
0.000171337
0.0372192
0.0347285
0.000166187
0.000147412
0.000142322
0.00276788
0.000141348
0.000142856
0.000152594
0.00015
0.000154363
0.0139587
0.0365517
0.0201164
0.000148803
0.00615627
0.000158038
0.000164119
0.000140992
0.000143722
0.0125513
0.000161024
0.0264171
0.0204102
0.000186577
0.000198087
0.000144505
0.000173578
0.000147554
0.000203928
0.000149391
0.000152514
0.000148427
0.000153253
0.000204415
0.000150179
0.000169787
0.00014288
0.000170394
0.000212762
0.0170244
0.00014265
0.000178301
0.000148066
0.000221302
0.000150915
0.023915
0.000227236
0.000165722
0.000154744
0.000152962
0.000265327
0.000144127
0.0028867
0.000143957
0.000142422
0.000148434
0.0317697
0.000160596
0.000155359
0.000177354
0.000148047
0.000184933
0.0308091
0.00508744
0.000169822
0.000144698
0.00021015
0.000138038
0.000143061
0.000218386
0.0345757
0.000147074
0.000165103
0.000212589
0.00728779
0.000148875
0.000149907
0.0331399
0.000151939
0.00025274
0.000101035
0.0355079
0.000145022
0.000153558
0.000143187
0.038611
0.000201975
0.000175294
0.000198207
0.0208132
0.000151155
0.0317557
0.0161989
0.000147483
0.0161814
0.000189959
0.000152758
0.0122281
0.000146176
0.000144483
0.000137886
0.000206814
0.000247074
0.000206406
0.000152667
0.00015063
0.000163886
0.00292442
7.11817e-05
0.0354642
0.00312541
0.00014967
0.00020216
0.000198703
0.0122328
0.000191611
0.00299916
0.000141474
0.000176654
0.000138722
0.0153624
0.000169976
0.000143123
0.0287868
0.000223279
0.000167402
0.000169594
0.000132589
0.00014794
0.000182589
0.000169259
0.0123128
0.000185634
0.0001878
0.000186027
0.000195946
0.0249684
0.000200273
0.0355308
0.000142848
0.0001409
0.000221298
0.0211811
0.011051
0.000223553
0.000154818
0.0150825
0.00337124
0.000142703
0.000159383
0.000139672
0.000174019
0.000186817
0.000496381
0.0126701
8.95659e-05
0.000152049
0.0240092
0.0135634
0.000144153
0.000198119
0.0250638
0.011081
0.000154984
0.00018837
0.000131384
0.000158572
0.000141948
0.000158281
0.0376347
0.0243158
0.00934243
0.0169379
0.000151762
0.000168347
0.000182356
0.000145295
0.000148806
0.000138545
0.0273977
0.000141064
0.0310829
0.000169808
0.000190533
0.000205
0.000193658
0.0175995
0.0091262
0.000173498
0.000134101
0.00015543
0.00676528
0.00225406
0.000157011
0.000139426
0.000139208
0.000185937
0.000165225
0.000203698
0.0214564
0.000151579
0.000138105
0.000200007
0.000203865
0.0158922
0.018211
0.000140539
0.000187164
0.000147088
0.0411439
0.000135554
0.0376656
0.000141183
0.000151348
0.00016894
0.000149307
0.000220497
0.000164351
0.000177826
0.015608
0.0300071
0.000157897
0.000164555
0.000143451
0.00798362
0.0176043
0.000149199
0.00013582
0.00364575
0.000131435
0.0256542
0.000147674
0.000171224
0.000189133
0.0177356
0.000171321
0.000151507
0.000146219
0.000187027
0.0335218
0.000142467
0.0158809
0.0302343
0.0194543
0.000152808
0.000167583
0.0197662
0.000157689
0.000111692
0.00014316
0.00303253
0.00319963
0.0124693
0.0159367
0.0268794
0.000144823
0.000219104
0.000140839
0.0127394
0.00377418
0.0332361
0.0150362
0.000160871
0.0212405
0.00256865
0.000168749
0.000152686
0.000146944
0.0268924
0.00015883
0.000186845
0.000158924
0.000147857
0.000138637
0.000146978
0.0293276
0.00020413
0.000166105
0.0179375
0.00622596
0.000142587
0.000143647
0.000138759
0.000166462
0.0368648
0.000172513
0.000158736
0.000170718
0.0114831
0.000191432
0.000176272
0.00979037
0.000165121
0.0359918
0.000164132
0.000165621
0.000143333
0.00015848
0.000186678
0.00430504
0.00307882
0.0295624
0.000188417
0.0154709
0.00015574
0.000156364
0.000148863
0.00994276
0.021167
0.00782972
0.000240299
0.000154416
0.000144876
0.000142151
0.000143949
0.000138732
0.00877684
0.000163852
0.0116408
0.000166753
0.0253379
0.00439042
0.0370325
0.000185762
0.000158771
0.0159518
0.0001718
0.00751057
0.0295782
0.000138235
0.000181057
0.000160953
0.015372
0.00839602
0.000168963
0.000195034
0.00352547
0.000157957
0.000184857
0.000165343
0.0185358
0.00253868
0.000155479
0.000146265
0.00320063
0.000194165
0.000197661
0.00884868
0.000199628
0.0001678
0.000143808
0.0353592
0.0334365
0.000193559
0.000165056
0.0298079
0.0310117
0.000141029
0.000144356
0.000155972
0.03302
0.0313456
0.000143611
0.0203713
0.00014986
0.000142612
0.000147614
0.0161739
0.000119401
0.000235418
0.0104096
0.000153157
0.000152425
0.00014122
0.0105004
0.000151755
0.0158611
0.000154068
0.0192854
0.00014869
0.000142408
0.000196479
0.00819678
0.00389453
0.00017046
0.017016
0.000136421
0.000146088
0.000144494
0.00017702
0.000185017
0.000184992
0.000171679
0.0265069
0.000156196
0.000197335
0.000241084
0.0238559
0.000145771
0.0249871
0.0304257
0.000157032
0.00584919
0.000185508
0.0225233
0.000147225
0.000190052
0.000143517
0.00466115
0.0146347
0.00019506
0.0349665
0.000154818
0.000178326
0.000151713
0.0211954
0.000134775
0.000139551
0.00163442
0.00019737
0.0223308
0.00356464
0.000184972
0.000162966
0.000137717
0.00227954
0.000167687
0.000142418
0.00020451
0.000140045
0.000175451
0.00014489
0.0207559
0.000154475
0.00406002
0.00336438
0.000168509
0.000254812
0.000183736
0.0413179
0.000145248
0.0149344
0.0238553
0.00013931
0.000144204
0.000153014
0.000148843
0.000173559
0.000143679
0.00176399
0.000188588
0.00353462
0.000204491
0.000146871
0.000149225
0.000138086
0.0114801
0.000146337
0.000144511
0.000153769
0.000155046
0.015851
0.0337437
0.000192303
0.000154623
0.000168639
0.000152278
0.000149828
0.000206023
0.000136381
0.000155369
0.0102167
0.0390284
0.000329423
0.000152138
0.0125485
0.0186827
0.000148908
0.00317251
0.0282344
0.00014369
0.000154344
0.00014317
0.0133074
0.0192093
0.00066756
0.000136273
0.000155647
0.000151702
0.00014639
0.000197996
0.000147252
0.000196931
0.00741961
0.0337501
0.000138173
0.000155155
0.000154061
0.0187101
0.000132608
0.0186433
0.0106464
0.0002948
0.0133329
0.0192068
0.0156687
0.000150993
0.00128037
0.00422777
0.000151063
0.000137504
0.000140271
0.0342796
0.010533
0.0143436
0.000147491
0.0369565
0.0001471
0.000203411
0.000138964
0.000153917
0.000150904
0.000138051
0.0196645
0.00015122
0.0301965
0.0328577
0.0182489
0.00017897
0.00017996
0.0188357
0.0329428
0.000149101
0.0061897
0.00013807
0.000131765
0.00014344
0.000209198
0.000140578
0.0161573
0.000166354
0.00168942
0.000172087
0.0109407
0.0176622
0.000204609
0.000137831
0.000183426
0.000192241
0.0192434
0.000145872
0.000134749
0.000157338
0.02894
0.000147336
0.00444518
0.0155594
0.000174175
0.000184937
0.000146018
0.00426159
0.000148619
0.0378908
0.000135557
0.00830639
0.000165431
0.000145926
0.0160115
0.0171067
0.000135316
0.000185513
0.000156833
0.0131462
0.000225846
0.000233435
0.00131365
0.000148785
0.000182925
0.0267314
0.000142245
0.000200565
0.000151132
0.000188862
0.000166796
0.0111233
0.0228939
0.000146219
0.0251634
0.000151357
0.000176242
0.0295914
0.0153539
0.000169748
0.0255808
0.000111851
0.000146386
0.00436841
0.000201346
0.000165154
0.000151082
0.025981
0.00013561
0.0105628
0.000604288
0.000198321
0.000143418
0.00016783
0.0246341
0.000176566
0.0233381
0.000149997
0.000155174
0.000216418
0.0265447
0.000158832
0.0341368
0.00275063
0.0167211
0.000147722
0.025211
0.00731887
0.0199918
0.000143951
0.000150778
0.000145344
0.0353424
0.000178108
0.00484463
0.00364525
0.000149014
0.000137745
0.000143769
0.0194799
0.00615682
0.028019
0.01807
0.000141017
0.0241372
0.0300983
0.000200872
0.0112489
0.0258298
0.000170235
0.0103461
0.000153947
0.000158265
0.0111111
0.0181465
0.000145848
0.0328333
0.000148337
0.00014446
0.0250532
0.0229621
0.0300389
0.0135508
0.000165985
0.000148962
0.000159131
0.0281215
0.0163343
0.000142479
0.000177088
0.0051467
0.000144612
0.000146628
0.0247071
0.0207903
0.000153457
0.000144226
0.000150775
0.000152171
0.0120358
0.000148798
0.000143808
0.000158944
0.000602997
0.0170383
0.000136054
0.0237701
0.000146439
0.000157367
0.0285534
0.0315961
0.000162713
0.000233558
0.000143288
0.000170301
0.000151513
0.000147471
0.000188405
0.000143482
0.00130757
0.000167053
0.000141268
0.000156691
0.0106599
0.0239568
0.0215506
0.000144767
0.000169868
0.0322329
0.00436973
0.000155514
0.000145451
0.000144596
0.00352828
0.000146837
0.000149836
0.000162125
0.000144069
0.0289453
0.000238386
0.000148704
0.000156102
0.000135643
0.000147206
0.027558
0.00202721
0.000186772
0.0124941
0.000205458
0.000149315
0.00014315
0.000145978
0.000145023
0.000148482
0.000164399
0.000192566
0.0296773
0.000150118
0.000194701
0.0215334
0.000782587
0.000143968
0.000139668
0.000154134
0.0226838
0.000144529
0.000389977
6.47783e-05
0.00018834
0.000147702
0.0138795
0.000136294
0.000232902
0.000137613
0.000136501
0.000147594
0.000141414
0.000197628
0.0153203
0.000258376
0.00017309
0.0166463
0.00450694
0.0187334
0.00016628
0.0232187
0.0123632
0.000194569
0.0202481
0.0253513
0.00019736
0.00454289
0.000148916
0.000140606
0.0268007
0.000141903
0.00015629
0.0268288
0.000202059
0.0367304
0.000233024
0.000140135
0.00016687
0.000146288
0.000177405
0.000138758
0.000205396
0.0241818
0.027725
0.00128813
0.000146417
0.000136052
0.000187403
0.0387372
0.0293047
0.000199402
0.000518367
0.000140316
0.00146822
0.0276737
0.000328666
0.000155677
0.000146779
0.000136052
0.000154163
0.000146444
0.000145483
0.000155799
0.027844
0.000188417
0.0256718
0.00396082
0.00160544
0.000209743
0.00014307
0.000143717
0.000147022
0.000138994
0.000148699
0.00104127
0.0161305
0.00885882
0.0372436
0.000153941
0.0184657
0.000200244
0.0341172
0.0304943
0.000146822
0.000141268
0.00108167
0.000146531
0.000135475
0.00582796
0.029119
0.00282358
0.000144867
0.000146427
0.000154333
0.000172677
0.00875048
0.000138262
0.000155567
0.00012076
0.000140857
0.00548181
0.000172339
0.0283607
0.000148857
9.22137e-05
0.0397292
0.000169345
0.0273088
0.00019586
0.0268004
0.000135948
0.000158024
0.000140601
0.000164683
0.0176016
0.000148463
0.0120023
0.000146403
0.000146861
0.00014424
0.0373448
0.000176061
0.000195208
0.00359008
0.000139418
0.000174743
0.0127999
0.000183653
0.000140825
0.000151806
0.000146654
0.000182022
0.000145122
0.000141928
0.0399689
0.0334689
0.0358365
0.000191504
0.000317289
0.0178973
0.000187097
0.0384342
0.000197889
0.000135344
0.000145177
0.000131536
0.000147925
0.0289725
0.0295673
0.000138361
0.0102813
0.0397195
0.000163289
0.000149702
0.000169664
0.0243401
0.024093
0.0281727
0.0265889
0.029445
0.000131612
0.000162293
0.000193482
0.00439628
0.0125804
0.000143694
0.000201211
0.0155417
0.000167136
0.0378963
0.000148929
0.000266691
0.0168836
0.0344487
0.000188379
0.000166325
0.0157528
0.000201782
0.0351481
0.0369638
0.0287717
0.000197048
0.0210363
0.000146683
0.000158317
0.000177732
0.0216643
0.00338016
0.0267593
0.000152562
0.000198339
0.000190941
0.000153514
0.0259669
0.000143709
0.000200443
0.020065
0.000143681
0.0288615
0.0218271
0.0373052
0.0242316
0.00154397
0.00127309
0.000143446
0.029786
0.000146034
0.000141798
0.000174406
0.000155362
0.0309105
0.00015571
0.000170487
0.000155995
0.000141342
0.0141261
0.000153209
0.000197829
0.00442166
0.000138137
0.027109
0.000193369
0.000149925
0.010605
0.000133476
0.000143406
0.000265025
0.000150207
0.039243
0.00589264
0.000138562
0.000199024
0.000153371
0.0315431
0.029688
0.000187306
0.0179821
0.000157536
0.00014469
0.026745
0.000155441
0.000145364
0.00283066
0.000173234
0.000140218
0.000141116
0.000199041
0.000152855
0.0198482
0.000160449
0.000184594
0.0214038
0.000180306
0.000186154
0.000143854
0.0324771
0.0167151
0.0222953
0.000144045
0.000137551
0.000187304
0.000165425
0.00421816
0.00014557
0.0049936
0.000144709
0.000983067
0.000150049
0.000189172
0.000213172
0.000197736
0.0273262
0.0204284
0.0281766
0.0284017
0.000131814
0.000353329
0.000420656
0.0201567
0.000144083
0.000199289
0.0162376
0.0164726
0.000198507
0.000434802
0.000889688
0.0344202
0.000176514
0.000155784
0.000137939
0.000177888
0.000174725
0.000143418
0.000186894
0.0219406
0.000219061
0.0175142
0.00122382
0.000142358
0.000140426
0.000164656
0.00014353
0.00183693
0.000138524
0.000140391
0.0379294
0.000209241
0.000170341
0.000193432
0.000154194
0.000195412
0.0127616
0.0305895
0.0138059
0.000158069
0.0302035
0.000152369
0.000138675
0.000153572
0.0245161
0.000164916
0.000163716
0.000211344
0.000151138
0.000141112
0.000143566
0.000148959
0.000159955
0.0276687
0.00068338
0.000163365
0.026484
0.0194848
0.00541361
0.0168038
0.000144736
0.000164486
0.000445582
0.000144302
0.000180812
0.000160652
0.000155604
0.0205569
0.0307686
0.000138544
0.000172656
0.000164535
0.000189459
0.019603
0.0300292
0.0346491
0.000147389
0.000190556
0.0363896
0.000190195
0.000198833
0.00637444
0.0248702
0.0325616
0.0395047
0.000138082
0.0195703
0.000138173
0.000152628
0.000144148
0.000184754
0.0330075
0.0141109
0.00420807
0.0149308
0.000183392
0.000134968
0.000139553
0.000146548
0.0001587
0.000175971
0.0364589
0.0402725
0.000188959
0.011593
0.000147983
0.000183511
0.000138545
0.0366509
0.000191045
0.000146952
0.000206487
0.000193489
0.0383704
0.0252303
0.000199697
0.00662981
0.000157396
0.0219644
0.000182303
0.0116542
0.00380484
0.000151995
0.0001836
0.000145913
0.0266161
0.0123835
0.000174261
0.0185652
0.000177536
0.0261271
0.000187528
0.000226901
0.000176907
0.000140176
0.000199807
0.000185832
0.000156043
0.000183728
0.000166006
0.000167805
0.0123735
0.000205157
0.000153967
0.000165281
0.000170892
0.000166583
0.000150319
0.0331821
0.000195051
0.00267883
0.0113537
0.000144706
0.0296553
0.000144413
0.000156095
0.000154694
0.0294484
0.000171402
0.0362372
0.0181575
0.000185108
0.000199348
0.000198602
0.0274117
0.000202323
0.0179875
0.000167346
0.000176642
0.000142082
0.03219
0.00581621
0.000166445
0.000148879
0.000170802
0.000159086
0.000156624
0.000178528
0.000172752
0.000147376
0.000168056
0.0186281
0.0272946
0.000235097
0.000174276
0.000133254
0.0289071
0.000166919
0.000185012
0.00846878
0.000175017
0.0397975
0.000135772
0.000166973
0.000155602
0.00016763
0.000143271
0.0307582
0.00446505
0.0113023
0.000170413
0.0272136
0.000201931
0.000158641
0.0284661
0.000185525
0.000214752
0.013073
0.00018181
0.000155789
0.000173366
0.00018741
0.000156513
0.000131218
0.0258173
0.00391307
0.00014022
0.000185397
0.000110538
0.0351479
0.000143089
0.000176334
0.000143582
0.000165604
0.0153047
0.000164238
0.00016373
0.000140353
0.000140121
0.00494538
0.0242806
0.000145916
0.0241104
0.000221392
0.000135128
0.000166284
0.0322155
0.000196168
0.000193664
0.000144207
0.000161132
0.000207161
0.000149803
0.000142628
0.0236947
0.000164065
0.0307575
0.00019069
0.000159533
0.0313327
0.000200684
0.000204006
0.000140638
0.00157829
0.00016419
0.000160279
0.0241973
0.000173693
0.000147441
0.000194563
0.000156676
0.000159238
0.000135931
0.00555962
0.000144495
0.000187021
0.00795621
0.000193589
0.000141542
0.000163206
0.000165275
0.0177933
0.000217438
0.0252062
0.000197385
0.0332832
0.000138743
0.000188207
0.000158241
0.000142055
0.00335105
0.00745864
0.000157207
0.00467094
0.000164597
0.000187198
0.0254816
0.00015913
0.00342279
0.0193005
0.0160486
0.0274388
0.00100799
0.000203659
0.000139949
0.000188037
0.000169296
0.00957639
0.0389417
0.0363519
0.0298877
0.0372153
0.000139921
0.00113954
0.00014395
0.000151278
0.000147049
0.00455414
0.000216071
0.000194924
0.000142138
0.0100235
0.000161388
0.0217661
0.00014187
0.000187404
0.000164722
0.000186776
0.000176122
0.000193963
0.000152779
0.000196168
0.000219633
0.000140887
0.0235969
0.000194654
0.00021048
0.000155273