/*--------------------------------*- C++ -*----------------------------------*\
| =========                 |                                                 |
| \\      /  F ield         | OpenFOAM: The Open Source CFD Toolbox           |
|  \\    /   O peration     | Version:  v2012                                 |
|   \\  /    A nd           | Website:  www.openfoam.com                      |
|    \\/     M anipulation  |                                                 |
\*---------------------------------------------------------------------------*/
FoamFile
{
    version     2.0;
    format      ascii;
    class       volScalarField;
    location    "600";
    object      omega_0;
}
// * * * * * * * * * * * * * * * * * * * * * * * * * * * * * * * * * * * * * //

dimensions      [0 0 -1 0 0 0 0];


internalField   nonuniform List<scalar> 
13917
(
5.10123
0.0408222
0.167229
0.0223489
0.0293117
0.0401895
0.0270201
0.0888424
0.0256585
8.23606
0.0813576
0.0218519
0.0246288
1.53954
0.0286356
6.73985
0.0217386
0.0691826
0.110351
6.70964
0.0347889
0.0218752
0.045004
0.0218774
0.0235137
0.0370424
1.69187
10.7602
0.0484445
0.020061
9.27068
0.0649337
0.0223955
2.95494
0.0214713
0.103359
0.0243915
0.0234782
0.027048
0.0391986
0.0218291
0.0216908
0.0241363
0.104312
0.103697
0.324988
0.0329455
4.56051
1.27765
0.0214903
0.0218166
0.112484
15.8814
0.0217987
0.0218765
0.111353
5.12821
0.0450255
0.0215772
0.272478
3.41414
0.0285972
0.0211491
0.0233069
3.15768
0.0382823
0.0530987
0.0926834
0.0757892
5.72502
3.01998
3.08388
0.0217887
0.0213454
0.0357428
0.0240515
0.0249724
0.0212583
0.0238079
0.0224796
0.0224866
0.0218283
0.0217685
3.17794
0.0211567
0.124902
0.0626113
0.0216445
0.0388802
0.0216467
0.0206999
0.0243051
1.25823
0.0211338
0.0224111
0.0528402
0.523514
0.0220928
0.0215414
0.115378
0.0214448
0.0213333
0.0225368
0.0214118
0.0248892
3.48171
2.75163
0.0284616
0.0220036
1.79034
0.0215456
2.91196
0.0483346
5.24274
3.16607
0.0245136
0.103281
0.0208404
0.186506
0.0216891
0.0217277
0.0210078
0.0585287
0.0905589
5.26334
3.25971
0.0231188
0.03772
0.0212009
0.0918832
0.0325511
0.16859
3.45826
0.0244672
0.0758512
1.79973
3.17251
5.19769
0.0395918
0.0234279
0.876705
0.0211191
3.48299
0.021241
0.0217054
0.0244378
3.01802
0.609728
4.71157
0.0218368
0.0360351
0.0212307
0.0216811
0.0216979
1.1876
0.0226564
0.0213511
3.41055
0.0214415
0.0210211
0.0211514
2.88014
0.0265913
0.848482
2.65643
0.11727
23.5024
3.76226
0.0196055
0.0421116
0.0220292
3.37437
0.0256096
3.08796
0.0685904
0.021311
0.0223506
0.122406
0.0317944
0.0272206
0.0240338
0.0219205
0.0218148
0.150463
0.185835
0.154341
0.0217861
0.141662
0.0200826
0.116893
0.0686287
0.0956795
0.134984
4.95137
0.0211419
5.09719
0.0262336
3.53976
0.0214263
0.0223913
0.0308128
5.51803
6.62995
0.0239897
1.76917
0.0368373
0.036409
0.0211219
0.121465
0.0224815
0.0209044
0.0354683
0.0367251
4.24726
0.0737399
0.0389805
2.91656
0.0226355
0.0203259
0.0203141
3.99063
0.163957
0.195148
0.0213692
0.021261
1.80971
6.17769
0.0202783
0.0202679
0.0218296
0.0203351
0.0203261
3.23161
3.10818
0.0220687
0.0196155
0.0732199
3.32157
0.0215236
0.0213661
1.81629
3.53972
0.168066
2.90163
0.0932245
0.0212491
3.15032
0.0760828
0.0451193
0.0737085
0.0237058
3.34871
0.0217054
0.0419647
0.0622964
0.0221985
0.0219548
0.0232819
0.0273165
0.0215281
3.67115
1.12959
0.021023
0.0202694
0.0227936
0.0202741
0.02171
0.0246129
0.0370003
0.0211383
4.13417
2.68815
0.0215595
0.0253851
1.4173
0.0202139
0.089692
3.29104
0.0202244
4.22403
0.0214245
2.87921
0.0214139
0.0269434
0.0222844
0.0212078
0.148225
0.0226063
0.136274
0.0287801
1.09294
0.0250021
1.2487
5.40263
0.0210772
0.0511702
0.027898
0.0248404
0.0286781
0.0237582
0.0212076
0.0223216
0.120874
0.0379332
0.0407263
0.0235782
0.0213492
3.4611
8.11377
0.0211105
0.025149
0.0248818
0.650793
0.120933
2.71021
2.8917
0.0353412
0.134
0.0250617
3.0812
0.792836
0.170766
0.0244293
0.0283329
1.61702
0.0223234
0.0437638
0.0947852
0.0216361
3.3758
0.0212031
0.0406262
0.020429
17.7946
0.020806
0.0384257
0.0375148
0.0369775
0.0215217
0.073782
3.33746
0.022289
0.0223138
2.88952
3.39791
2.76719
1.54234
0.0202044
0.0220175
3.59627
0.137585
0.0202172
0.0285612
0.0217924
0.0551316
0.0395267
0.109761
0.0893397
0.0905296
0.0402932
3.13009
0.0212446
0.0222972
0.0309145
0.180959
0.0216193
5.96283
0.0400267
0.289592
0.0219281
0.117384
0.025281
1.15272
0.0217582
0.229358
1.12572
0.040235
0.0215886
2.43716
0.0206647
2.71668
0.158603
0.0217538
1.15993
0.0227205
0.284599
0.0207064
5.70067
0.285124
0.0238579
1.83343
0.0797121
0.0233108
2.70701
0.216144
0.0234064
0.149449
0.0219073
0.0814301
0.169759
0.0212284
0.0263869
0.0235458
0.0211887
0.0209448
0.0213019
2.94339
0.116249
0.0220934
0.021369
0.0216942
0.0500226
0.210867
0.0202626
0.0196237
0.119208
0.115546
0.0212375
0.0236981
2.65008
1.61955
0.0660878
0.116557
2.93595
0.0206934
0.0202321
0.0317372
0.0209338
0.0202746
0.0221615
0.0202459
0.0206395
3.07872
0.0219581
0.0421435
3.77581
0.0508016
0.0209249
0.0216601
2.73776
0.030863
6.42512
0.0203612
0.0213598
0.0207499
0.0203447
0.0242623
0.0229417
2.61572
0.0298196
3.5599
0.0213538
0.035142
0.0305845
0.022404
0.0913754
2.74578
0.0217527
1.78134
0.0209611
0.0213496
0.0216421
0.0227419
0.0208564
0.0222358
3.41619
3.30264
0.0208371
1.44482
0.117102
0.021886
0.0553647
0.0695564
2.66506
0.0271596
3.48339
0.287062
0.286751
0.0229692
0.0304748
0.0313032
0.0235583
2.64151
0.0208283
0.0217334
0.0224177
0.0260283
0.0339371
0.165216
0.0526459
0.0241028
0.0262476
0.0666934
0.0540073
0.0220967
1.41883
0.0362244
0.0288046
2.77861
0.0211649
0.0560007
0.148897
0.0208472
3.21816
0.0214521
0.0203412
0.0512778
0.0203726
0.0224543
0.120279
3.45223
1.78688
0.0211454
0.0225601
0.0231577
2.50129
2.35738
0.0219803
0.0218417
0.0211237
0.0578612
0.544022
0.0212648
0.0215386
0.0223015
0.0211653
0.0261775
0.0288287
0.0210027
0.0534218
0.0208497
0.0217399
0.0233911
2.76928
0.0203965
0.0239003
0.0215341
0.0341012
0.0648645
0.0593607
0.0647631
0.122594
0.0231411
0.0593375
3.56508
2.90246
3.40431
0.0210295
0.0215911
0.0246047
0.0214567
3.21071
0.0202401
0.730664
0.0262174
3.50982
0.098277
0.0241266
6.83591
0.020827
0.0605175
0.0219988
0.02253
3.5001
0.0203078
0.189886
0.0213562
0.0228893
0.0216405
0.154942
0.0265113
0.0202542
0.105186
0.0542683
0.29013
2.93216
3.53605
2.64172
0.0204038
5.98506
0.0206379
3.26767
0.59108
0.0230735
0.0272722
0.0214006
0.0357513
0.0237744
0.0203182
0.0220233
0.0243449
2.78445
0.0211991
0.0586906
0.0216986
0.0202439
0.0214073
0.116484
2.84624
12.0325
0.0690841
0.0286846
1.82221
3.21447
0.0207335
2.75192
0.024105
0.0937649
0.0214524
2.21033
0.0211435
0.0265934
0.0217302
0.294563
0.037189
3.1157
0.0210893
0.0356132
0.0214623
0.0215511
2.99991
0.120806
0.0216623
0.119387
0.021349
0.0221912
0.0213793
2.86632
0.0212025
0.0277878
0.0202302
0.0215542
0.181957
0.0212743
0.111363
0.0219637
0.0208233
3.33323
0.0603921
0.0219192
16.9823
0.196719
0.0998224
0.149082
0.0208095
0.0297083
2.86894
0.182876
0.0304235
0.0244061
0.0269446
0.0218278
0.0212934
0.0989766
0.0699238
0.0253529
3.10647
0.0376277
0.753916
2.41438
0.0379697
0.0365918
0.134107
3.78735
0.0212138
0.0313832
0.130748
0.0208348
0.0212023
0.0214008
0.0245713
0.0225175
5.67383
0.0345127
0.0211645
0.0881493
0.0209978
2.69898
0.0214165
0.0211984
3.36039
0.0610731
0.340235
0.0218597
0.0213743
0.0211622
0.0222198
0.028548
0.0211966
5.93398
0.0309399
0.499584
0.342286
0.0312886
3.56016
0.0225679
0.0219716
0.0215287
3.17677
1.81473
0.026661
5.64613
0.750817
0.0208173
0.0211511
0.0242807
3.41459
0.345222
0.0374765
0.0221843
0.0238988
0.0967922
0.024393
0.10914
0.0346779
0.0223473
0.0225104
0.0219883
0.0284627
0.0262313
0.188006
0.0252619
0.0241822
5.6995
0.0211056
0.747106
0.0240564
0.0344248
0.0260045
0.193187
0.02169
0.0570894
2.83254
0.243055
0.0214811
0.0252901
0.0231088
0.0213617
0.0217103
0.0334286
0.0309221
0.134632
0.111921
0.0207813
0.295028
0.0256054
0.026064
0.122672
0.0221251
0.0604325
0.389925
0.020282
0.0611191
0.0799134
0.0343722
0.0210849
0.020886
0.0212812
7.03055
0.0223498
0.0215938
0.0401495
0.021225
0.0209767
0.106591
0.126001
0.0397165
1.69824
0.050997
3.64693
0.021715
0.0254817
1.0281
0.0231366
0.0315289
0.0215041
0.0211693
0.0218345
0.0257868
0.0614608
0.0210801
0.107636
0.0221188
0.557415
0.0240961
0.0270916
0.0204386
0.0745333
0.0272356
2.82645
0.0409936
0.0218878
2.74718
0.0226111
3.89684
0.0235661
0.0597059
0.0238913
0.0209532
0.0214627
3.3237
0.0283868
0.119611
1.70206
0.0213538
0.034663
0.0196
0.0258252
0.582572
0.0196308
2.89672
0.023977
0.0603429
0.10091
0.318808
0.020401
0.0212555
0.0984374
0.0207988
0.0217596
0.0231748
0.0215393
0.0402845
0.0203888
0.107767
0.0223446
5.51298
4.00367
0.555018
3.61772
1.77353
7.28936
0.708182
0.0207544
0.0220607
0.0216099
0.0226276
0.0211295
0.0285001
0.0212564
0.283951
0.0217983
2.36857
0.0222563
0.0308047
0.0861389
0.0210705
0.0419917
0.0226097
0.0227951
0.0262697
0.0206574
3.63662
0.0747067
0.187016
0.0211075
0.02152
0.0221237
0.02221
2.68674
0.0207774
0.11757
0.0211234
0.284913
0.0265874
0.0212477
0.0588142
0.0291847
0.0207894
0.32463
2.73221
0.0244131
0.0743034
0.0207771
0.117319
0.0211192
0.0222097
3.492
0.0214694
0.0224329
0.0868324
3.82518
0.0218432
0.807735
1.94175
0.0219039
0.0233814
0.0215907
2.74652
0.0214917
0.113104
0.0217447
3.25944
0.026979
2.31351
0.0213724
0.0201383
0.291043
0.0230007
0.0210018
3.61484
0.0231372
0.0209364
0.877417
0.0219179
0.0220488
0.0690666
0.0232937
3.20087
0.0397375
0.0693985
0.14831
0.023836
3.22125
0.0225838
0.0648654
0.0214024
3.62977
0.283155
0.0219169
0.0211791
0.0221863
0.0219826
0.0207535
0.0207153
0.0210934
0.0214511
0.0293791
0.0202825
0.0229363
0.0691809
2.64933
2.82075
0.0806256
0.0221347
0.292628
0.0212048
0.808192
0.55362
24.4364
0.0202994
0.0207645
0.0217427
0.0217038
0.0202807
0.0207544
0.0212683
0.0377712
0.0209441
10.0135
0.854321
0.0209808
3.36487
0.0214141
0.0213136
0.0277285
2.83131
0.0586583
0.0212006
0.342039
0.0212885
0.021321
0.877447
0.0221797
1.07458
0.0225228
0.0669837
0.0209349
0.0210704
0.0310976
0.121797
0.023035
3.02869
0.0318372
0.0229224
0.0237152
0.0215196
0.0208652
0.0863157
0.0336103
0.0251754
3.05991
7.34428
0.0860932
0.091178
0.0210281
3.18315
0.0210099
2.78199
0.0605895
0.0264762
0.0228452
2.38411
1.762
3.13194
0.0220684
0.521075
0.0207877
0.021261
0.0347622
0.022283
0.0217186
0.5819
4.13105
0.0210687
0.027366
3.38965
0.0213088
0.020227
0.718174
2.71963
0.0224972
0.0207346
0.026596
0.0216377
0.0212667
0.0333419
0.0260321
0.0215881
0.432651
0.0221211
0.27907
0.575667
0.0306353
3.51418
0.021889
0.0222052
0.122658
3.83464
0.241628
0.026755
0.0323981
0.0220672
0.0225587
0.0218546
2.80253
0.0268149
0.0225224
0.0510723
0.0212062
0.242724
0.0724671
0.109321
0.0561175
0.822259
0.342421
2.62807
3.08194
0.0234411
0.697498
0.0202408
0.0563298
0.0744335
0.575421
0.0247894
0.0225513
0.0256833
0.752939
0.0232965
2.65486
0.0348673
0.0831486
2.69309
0.0211548
0.09293
0.0236176
0.0217491
0.0274182
0.227184
0.0202523
0.0207269
0.0228749
3.30914
0.0209359
0.0231534
0.0237723
0.022579
0.0216075
0.0866676
0.0648949
0.0225274
0.0210644
0.0900341
0.108191
0.0367692
3.2924
0.021921
0.021463
1.78277
0.0216015
0.0233898
3.11862
3.39351
0.029807
0.0564089
0.0267905
7.53034
0.120752
0.0326014
2.92235
0.0212157
0.0756233
2.62194
0.189247
0.464556
0.863976
0.0206153
0.0216942
0.0244867
0.0216336
0.0217977
0.177736
0.0214753
0.0439296
0.0204886
0.0540564
2.71676
0.0233276
2.57792
1.77673
0.021464
0.0707418
0.0264918
0.0229972
0.0213654
3.25726
0.0678526
3.62068
0.0276464
3.82891
0.0813695
0.0214074
0.440283
0.0350457
0.0231817
0.0212653
0.218972
0.0213718
0.0257936
0.0366946
0.0257947
0.0220987
0.0530818
2.2749
0.0211646
0.141255
0.0686911
0.0217583
0.0211809
0.0245495
3.11419
0.755429
0.0208828
0.0299871
0.0310516
0.491731
6.61419
0.0216693
0.0209545
0.0206123
0.0215255
0.0245184
0.0241291
3.22477
0.0222996
0.0244444
0.251497
0.0314025
0.0797142
2.75828
3.71511
0.0218882
0.0215237
0.0209058
0.0228435
0.0650119
3.71769
0.148053
0.0883342
0.0303768
0.048206
0.0236895
0.0264807
0.0255119
0.102021
0.0211396
0.111046
0.0345865
0.02078
0.0218312
2.94541
0.0477248
0.179624
2.67558
0.11625
0.021165
0.943041
0.0234676
0.0212416
2.7817
0.487628
0.0211565
0.0297633
0.0998701
0.0338084
0.0223745
0.0203706
0.0211957
0.0208953
0.0213556
0.0296966
0.0498849
4.4251
0.0342876
0.0258483
0.0312545
0.0787778
0.0210246
0.0340125
0.179098
0.210179
2.67993
0.0230756
0.0203529
3.50264
0.021064
0.236788
0.0230185
0.0423364
0.0220112
0.0211142
0.575136
0.0263603
0.0229842
0.0215098
2.29975
0.903524
3.28052
0.0219439
0.0216561
0.912796
0.0210093
0.0207202
0.112051
0.4888
0.0269682
0.033169
0.0223016
3.2124
0.0212558
0.0246783
0.0220993
0.0203383
0.210696
0.0212533
0.0208752
0.751282
0.0555597
2.17865
0.190776
0.0211935
0.0300308
0.0209839
0.0211202
0.0237662
0.0225723
0.0217122
0.19801
0.0216592
0.0685888
0.0268733
0.0248856
0.021658
0.0220989
0.0212456
3.28742
0.020241
0.461522
0.0657553
0.0228834
0.050158
0.0331173
0.0303589
0.0216011
0.0262166
0.0209611
0.0207741
0.270256
0.0365239
0.0265268
0.0213221
0.0213486
0.0210805
0.0696765
0.0212071
2.8595
0.0446495
0.0211373
0.0213176
0.0206187
0.0444188
0.13435
1.77631
0.0317698
0.230813
0.0251226
0.0896506
0.0241209
2.89123
0.020481
0.0202063
0.0250768
0.246341
0.0206482
2.90781
0.0217063
0.0214222
0.115497
0.255691
8.06069
0.157374
0.0257988
0.126706
0.0894689
0.020674
2.90384
0.0214242
0.0213094
2.21546
0.0205453
2.92838
0.039618
0.0211038
0.0214681
0.0207081
3.58877
0.0214874
0.0203674
0.0706975
0.0211985
0.0209507
0.0216349
0.0206884
0.0437361
0.0217788
0.0244064
0.0207128
1.36384
0.0457231
0.020733
0.0207411
0.0224429
0.021302
0.0239774
0.0220261
0.0213234
0.0218069
0.0214709
0.0226717
0.0215571
0.0616178
0.0206114
0.074964
0.0217782
0.0470539
0.0208474
0.0216869
0.0212007
0.0202805
0.0361205
0.0266096
0.0251672
2.22486
0.150025
3.33081
2.76769
0.0748418
3.67047
0.0217249
0.0215296
0.571245
2.69962
0.0211731
3.3242
0.0207133
0.110503
0.790244
0.0238544
0.0768969
1.65135
1.8899
0.0212679
0.0454151
0.0209987
0.0994709
0.0243559
3.10911
5.24371
0.0218039
0.045163
0.334528
0.0218354
2.44937
0.251546
0.0233594
0.0209639
0.190343
3.28763
0.0206724
0.0316065
0.0220605
0.150992
0.119981
0.0216445
0.0208786
2.78361
0.0210728
0.0214702
0.0222175
0.0207437
2.05663
0.0292056
0.0284517
3.12802
0.0213597
0.0561689
0.0217717
0.177395
0.0534185
0.116045
0.0208137
0.0276088
0.0209238
0.0216118
0.0238742
0.0215695
2.61171
0.0228186
0.020787
0.0211763
0.271667
0.0209473
0.51122
2.60255
0.792001
0.0216474
0.0209493
0.0212605
0.795109
0.0219229
3.42732
0.0213352
0.417232
0.0232307
0.022789
0.378779
0.0217197
0.0216566
3.34888
0.101898
2.88847
0.0219298
3.5202
1.66522
0.0216619
3.10034
0.0218233
0.0258056
3.27489
0.0237867
0.0408865
3.68085
0.0300343
0.0641291
0.0216404
3.04092
0.0214514
0.562571
0.0212614
4.24567
0.0214729
0.0215827
0.0236823
0.513705
0.0209855
0.116261
0.0616502
1.52261
0.021288
0.0293017
3.43882
0.143683
2.05376
0.0726199
0.0208425
0.102015
0.285519
0.0242844
1.94632
0.0201695
0.1318
6.0549
0.0210303
6.52126
0.0213202
3.49541
1.60916
0.02397
0.0241195
0.572031
0.718933
0.0214879
0.0229378
0.0207589
0.0216802
3.26628
0.0616322
0.337485
0.0217972
0.0274858
2.96627
0.0303472
0.67479
3.0005
0.0211543
0.0214022
0.185106
2.61479
2.27815
0.725823
0.195202
0.0381752
0.0506657
3.42366
2.63821
0.517043
0.0209641
0.0749135
0.043701
0.0673548
0.0215035
0.0260771
0.057201
0.117484
0.793898
0.0220549
1.44932
3.11677
0.0424055
0.021444
0.0214497
0.0861793
0.0209858
3.45075
0.0281202
0.0216888
0.139475
0.0354086
0.0207185
0.0354331
0.0295357
0.0215315
3.65724
0.0262543
3.63207
0.0210126
2.98228
0.648351
0.188245
0.0202786
0.0265557
0.0305255
0.129738
0.104082
0.0643618
3.26605
0.119123
0.0196659
0.0258413
0.0223798
0.114352
6.30478
0.0208318
0.0206933
0.022856
1.33827
0.132701
0.0210721
0.048712
0.13772
0.020939
0.0332705
0.0241511
3.62558
0.0275324
0.0899529
3.4921
0.0282871
0.0247224
1.89081
0.0211718
0.0452669
2.77977
0.024646
0.0789087
0.0310821
0.055221
2.57035
3.48456
0.0216183
1.13117
0.123726
0.0205547
0.119827
0.0633762
0.100921
2.52346
0.4293
0.780045
0.0989154
2.64372
0.0269774
0.062147
0.0206992
0.0218199
0.0215935
0.020944
0.460909
0.117505
0.0202552
0.044844
0.164365
0.0211565
0.455385
3.13694
0.0201004
0.0218772
0.020819
0.0227545
0.0431846
0.0214477
3.7812
0.0293878
0.0665508
0.0261272
0.0656451
0.0493028
0.0329218
1.51667
0.0215315
0.0228657
0.0202168
0.0209534
3.48487
0.0876385
0.0288691
3.68716
0.0218676
0.0222488
0.031914
0.0207469
0.0210895
0.0698929
0.0254282
3.17837
2.14001
3.15006
0.0216664
2.86815
0.0212904
1.0132
0.0206967
0.129009
2.42396
0.0215289
0.926413
3.45537
0.0323845
0.0224813
0.0209254
0.027833
2.73602
0.0207169
0.0218785
0.022431
0.0236267
0.191456
0.0228826
0.0257271
0.0211239
0.0223152
1.9311
0.0337308
0.0242128
0.114604
0.08036
3.19058
0.94393
0.0232315
0.0226943
2.85993
0.0215277
0.0626273
0.0217017
3.3168
0.0222518
0.0221067
0.031858
2.85493
0.021404
0.0208084
0.0204635
0.132203
9.3954
0.107731
0.0214928
0.0241209
0.0209438
3.1826
0.0212985
2.61721
0.0543969
0.0218707
0.149916
0.0335751
0.230889
0.0221476
0.0207095
0.0300988
0.0406708
0.113042
0.0218076
0.0221085
0.0221197
2.82236
0.0216548
0.0224406
3.44956
0.0232452
0.0278423
0.02468
0.0211538
0.0213035
0.618474
0.0234946
1.64741
0.267155
0.0199968
0.970993
0.0220068
0.0970318
0.047444
0.0226919
0.0203159
0.0199721
0.021436
1.14691
0.0458603
3.33826
2.64132
0.0209804
0.0288781
0.0382085
2.08759
0.0214429
0.154972
3.47944
3.23342
0.0212714
0.0231011
0.0221264
0.510455
3.45796
0.0215525
0.0215566
0.0302776
3.95426
0.0217432
0.0231802
0.0232245
0.107938
1.45881
0.0205041
2.76087
0.0292098
0.0214318
2.71902
0.0541691
1.20906
0.884243
0.0319866
0.0260769
0.022497
0.0268294
0.0222863
0.0650582
0.0462352
0.0213322
0.0244908
0.151548
2.24817
0.0207005
0.100129
2.85362
1.30888
0.0214781
0.0216137
0.279984
3.01038
0.0753792
0.0212195
2.53284
0.0624138
0.020054
4.42281
0.0273757
0.0218617
0.20176
0.0215351
0.0327634
0.0209138
0.0198815
0.0217021
0.0204575
3.14594
0.0202424
0.0211853
0.0730231
0.0250409
0.0246895
0.123746
0.0216123
0.0214958
0.0230695
0.022581
0.247779
0.233598
1.27347
1.1072
0.034184
0.548788
0.0436742
2.84878
2.44647
3.07078
0.0209265
0.0300297
0.021464
0.0216608
0.0210138
0.0223499
0.183083
0.0562176
0.0378957
0.0211319
0.0214078
0.0529643
0.0218639
0.0220565
0.0216258
3.17248
0.0309219
7.64004
0.0216528
0.268097
0.0221653
0.0220256
0.0223733
0.0414955
0.0210959
0.080142
2.88169
0.0406701
3.57718
0.61132
0.0228166
0.0274793
0.358279
0.10369
0.0203875
0.0209613
0.0199908
2.66562
0.0198639
0.0696346
0.0424343
0.0731721
1.62556
1.56797
0.0617825
3.67999
0.0206892
0.0204574
0.265358
3.28333
0.0214789
0.0216429
0.448458
0.020977
0.149183
0.0229157
0.0212508
0.02552
0.0215689
0.0677944
2.80199
3.07996
0.0248159
0.021509
0.0731671
0.0227184
0.0733599
0.0209281
0.126327
0.0844816
0.0220544
0.0218068
0.0200404
0.11338
0.0476869
0.191219
2.17131
0.0296025
3.14712
0.0698002
0.102072
3.40664
0.0213096
2.65024
0.0224909
3.20143
0.458781
2.62909
3.26392
0.021889
0.0522084
0.266671
0.0215706
3.80136
0.0215787
0.0215607
0.025941
0.0222133
0.0303847
0.27615
2.57572
3.34819
0.0258698
0.0396139
0.0227359
0.0220266
0.0217327
0.117931
0.0812903
2.75717
0.0437778
0.0202991
0.0207707
0.0222757
0.213469
0.0243218
0.0226688
0.0251481
0.0807745
0.0311829
0.041464
0.0369296
2.71326
0.029255
0.0323063
0.0214488
0.0260101
0.927879
0.304801
0.0457019
0.02074
2.72475
0.0324215
0.021189
0.0471327
2.86857
0.218178
0.0330102
0.0209893
2.65486
0.022111
0.0209471
0.0203403
2.20698
2.16652
0.0227992
2.53266
3.05095
0.0246913
0.0368755
0.0575505
3.59332
0.0305006
3.4336
0.0221648
0.0824147
0.0247268
3.61144
0.0329375
0.020864
2.9937
0.0217066
0.0225077
1.79338
3.36686
0.0639881
1.3962
0.0244703
0.0227955
2.75235
0.0211922
0.0212013
0.0216232
0.0440949
0.0214269
0.0311164
0.0246938
0.251171
2.5954
0.022298
3.78607
0.0245526
2.9405
3.4396
0.0215995
0.0218207
0.0254895
0.123091
0.190981
0.063639
2.86769
2.67576
0.120557
0.0227268
3.22791
3.03597
0.0450321
2.14192
0.0217187
0.0214383
0.0216342
0.0226856
0.0213104
0.0326603
3.12998
0.0310651
0.274262
3.22444
3.31194
3.02228
3.242
0.0286545
3.54767
0.100161
0.0702831
0.0206749
0.0216243
0.0649026
3.99922
0.0227955
2.85177
3.09712
0.0209719
0.0216588
0.0217658
0.0813272
0.0222256
0.0691099
2.66702
0.0206738
0.0214135
0.0209461
0.0223918
0.0922612
2.9202
0.0358767
3.27295
0.101869
0.0211878
0.251337
0.116966
0.0215967
1.06482
2.27903
2.66479
2.15995
3.43056
0.0214845
2.92466
2.95717
0.145699
3.18939
0.0210009
0.0234147
0.0239968
0.0234664
3.35411
0.0630911
0.0217923
0.027224
0.279056
3.03712
0.0226151
0.0221661
3.38331
3.22588
0.0217953
0.027933
0.0981994
0.0213395
0.0214285
2.32243
0.0211467
0.18653
0.25715
3.44127
0.0210769
0.0689018
0.133578
0.0211556
0.020102
2.24931
2.35003
0.022114
0.0330425
0.159594
0.20603
3.43098
2.4066
0.025755
0.242987
0.345321
0.034282
0.0211232
0.0783517
0.0204121
0.0202052
3.24093
0.0373993
0.0880295
0.0244738
0.0258483
0.0209894
0.0204545
0.0222497
0.0224756
2.68127
0.0242183
1.96732
6.08234
0.0430467
0.0679536
2.71301
3.55201
2.68549
0.0209404
0.0248852
0.0347919
0.0255256
0.148941
0.313123
0.0222191
1.73845
3.21968
0.0265951
0.086332
0.0716142
0.0941758
0.102766
0.0228621
0.114315
0.125443
0.138803
0.158236
0.106017
0.0782051
0.0266751
0.0211041
0.0324798
0.0856908
0.0211125
0.688405
3.57975
0.139187
2.95072
0.0200752
0.0207264
0.0578514
2.98538
0.0223876
0.0240259
0.0605102
3.31143
0.609812
0.0215698
0.0308084
0.0252572
5.43414
0.276224
0.0241891
0.71815
3.01052
0.0955372
3.34213
0.0890977
0.235698
3.5271
0.019596
3.66372
3.07654
0.0226636
0.066554
0.0913788
0.025786
0.0209161
0.120173
1.09979
0.0208528
0.0209011
2.56844
1.7478
0.0745181
0.021845
0.166433
0.120181
3.06273
3.68425
0.0216324
0.0213905
0.0223353
0.0228892
3.41208
0.574508
3.00842
0.0798828
0.369227
0.496587
0.0228754
0.021065
3.0682
0.0209502
3.50321
0.0211437
3.32561
0.0226465
0.0225785
0.712574
0.0216112
0.105484
0.474335
0.0244313
0.0237771
0.0227864
0.17723
3.27433
0.143533
2.97316
0.0238987
0.022558
0.0276604
0.0719354
3.73548
3.58662
0.0902178
0.1929
0.116751
2.85837
0.0209228
0.0209099
0.0206906
0.0206763
0.240019
0.0661075
0.0977442
0.0405593
0.139995
0.0211684
0.295306
0.154901
5.05198
0.0214808
0.0229536
0.019897
2.94427
0.0462705
0.393767
0.203249
0.11393
0.294525
0.0200152
0.0365283
0.143551
0.282455
1.51519
0.0216636
0.125253
0.0221867
0.0220332
0.0920282
1.06768
1.96132
0.0219521
0.0805819
0.135202
3.06447
5.18118
3.44301
3.48614
0.0210666
0.0585235
0.0217263
0.129798
0.0212204
0.102616
0.0234726
0.0479028
0.243858
0.547955
0.0233872
0.0908224
3.05326
0.109234
0.0237803
1.78989
0.100158
0.0221326
0.022423
3.39733
0.0286643
0.116064
0.780845
0.139897
4.03601
0.0229134
3.0578
2.85808
0.98564
0.12519
0.0312216
0.102462
0.0926839
3.41153
0.0630889
0.0222559
2.1661
0.0452815
0.558707
0.0276382
2.98866
1.24625
2.64259
0.026119
1.54475
0.0242923
3.04485
0.145668
2.5415
7.23766
0.0209532
0.0198815
3.06614
3.63861
0.032031
0.0221659
0.0415975
0.0301469
3.09764
0.0726804
3.10022
0.0260472
3.15472
0.112853
1.21563
0.0222078
0.166786
3.19731
0.0236516
0.0800144
0.0200592
0.0243912
0.0216842
0.242194
0.0212333
0.0216669
3.51225
3.07281
0.0206573
3.68306
0.0224468
0.0216217
0.0213284
0.0209516
0.0218323
1.23528
3.39744
0.0206395
0.349427
0.0653665
0.0467892
2.05137
0.0820171
0.025592
0.0316497
0.0213027
0.242371
0.0302084
3.71642
0.0246898
3.27464
1.57153
0.0678425
2.8797
3.22084
0.0207953
3.66099
0.0542307
0.0636387
0.0400099
0.0212301
0.0395038
0.188502
0.0216346
0.084933
0.0214251
3.45192
0.136841
2.57414
0.172199
0.164859
3.49307
0.021658
0.0212186
0.0607912
0.0230647
0.0218185
0.0218495
0.0272437
0.0211378
0.0212137
0.0227869
0.0423361
0.0233559
0.0273283
0.0229283
0.0359698
0.0949947
0.0236944
3.53588
0.0234428
0.0212796
0.0891614
0.0414749
0.0230394
0.0211273
0.246944
0.0234891
3.14241
0.0236852
0.105998
0.0213216
0.0215146
0.0901891
3.54815
0.0684087
0.0349238
0.0201489
3.07314
0.0217098
0.021178
0.0743603
0.0240525
0.132295
3.03281
0.0943477
0.12794
0.0412684
4.10986
0.0215884
0.0217004
0.0613618
0.244271
0.0580595
0.0945798
2.73066
0.0275894
0.0216391
0.0278776
0.162749
0.0554273
0.0216555
0.0972377
0.0919429
0.0626737
0.0218209
0.0216842
0.146999
0.0616251
2.91063
0.555283
0.0239363
0.068619
0.0217952
0.0435687
2.48807
0.0218062
0.159111
0.0283118
0.0795369
1.18802
0.021594
0.0214568
0.0212582
3.52772
0.191613
0.0236215
0.0901462
0.106141
0.0217695
0.0215156
0.12138
3.63716
0.14487
3.08677
0.129805
0.0304233
1.06321
0.116412
0.0302496
0.408334
0.0843068
0.409193
0.0215802
0.0924342
0.128149
0.0225098
0.322145
0.03927
0.0789622
0.0271839
0.141347
0.0211443
3.97966
0.0245855
0.0208151
0.0209662
0.020767
0.0228035
0.0225736
0.0209206
0.0241852
0.0217116
0.0224485
0.244579
0.0761245
0.0222965
0.0621186
0.0247503
0.0226933
0.0204166
0.0458059
0.026741
2.83582
0.0216136
0.0216267
0.0665195
0.241532
0.0216724
0.0216115
0.105884
0.023612
0.0883091
0.0590727
0.0216799
8.55857
0.0238396
0.0224454
0.0716895
3.70152
0.0222425
0.0569208
0.0208495
0.0258069
0.0214092
0.027269
0.0212196
0.0216432
0.0445102
0.0595003
8.71715
0.0503272
0.0215567
0.0286161
3.16545
0.0496985
0.183685
0.0965889
0.0216848
0.0531125
0.883337
0.187997
1.21507
0.0260111
3.30903
0.311626
0.0295487
0.0217802
0.0726017
0.0223838
0.0549596
3.05032
0.0216625
0.0537537
0.0219144
2.8237
0.0465484
0.0225127
0.0602127
2.92736
0.335884
0.0239523
0.0711081
0.030497
0.0206403
2.17007
0.0205152
0.0340088
0.0211193
0.0252223
2.66309
0.070212
0.0207276
0.0290725
0.178645
0.021632
0.0220356
0.0284483
0.0255294
0.0215074
0.0238633
0.0246668
0.022172
0.0211307
0.0603563
0.0993736
0.182131
0.0210422
0.0569725
2.97074
4.30529
0.0209096
0.0216982
0.0251461
0.087377
0.0223305
0.0211147
0.0212648
0.0209031
0.0261628
0.0276185
0.0246954
0.0638802
0.0234658
0.0204294
0.0234808
0.0622877
0.0469375
0.102572
0.0222971
0.0287338
3.18379
0.0295451
0.0247174
4.13684
3.14771
0.0946279
0.0662262
0.160444
0.0214595
0.310246
0.0272076
3.9131
0.0214287
0.0212376
2.74424
0.0208242
0.259181
2.96794
0.0220947
13.0649
0.0308945
0.0319561
0.0270128
0.0712331
0.0290274
0.0263942
1.60962
0.0209021
0.0242934
3.53325
0.0232279
0.0215628
0.0304963
3.13271
0.0223376
0.0223419
3.17827
0.0232901
0.0269635
0.0566985
0.0203457
5.54736
0.0242029
0.0225176
0.0982767
0.0558482
3.10951
0.0235354
2.07446
0.0337637
0.0863763
2.69823
0.021645
0.0327485
0.0869097
0.0222901
2.2114
0.0223882
0.0232953
2.89326
0.0222822
0.0410819
0.0852821
0.769094
0.0301853
0.0266877
0.0224451
0.0239321
0.0859684
0.0246378
0.030757
0.0761816
0.052586
0.0217944
3.3427
0.0382546
0.0204413
0.0230166
0.0212465
0.0207739
0.0203507
0.02168
0.0216012
0.0301365
0.0239657
0.0401896
0.0202019
0.0204437
0.0222515
0.0764501
0.0207514
0.0306366
0.0612737
0.0289037
0.0302014
0.0215165
0.0233082
0.0243968
0.0380975
0.0285825
0.024558
2.73121
0.021861
2.15872
0.0249
0.0851599
0.0823759
0.0216404
0.0576106
0.0314086
3.09987
2.98053
0.0254651
0.0218372
0.0236087
0.0297147
0.0478136
0.021517
0.239065
0.0528022
0.0222513
0.0565795
0.0462386
0.0617596
0.0285391
0.213433
0.0839982
0.0272429
0.303264
0.0228506
0.123852
0.0225947
0.0213003
0.0792915
0.0819583
0.0214113
0.0498637
0.0214562
0.0217159
0.0215323
0.0221335
0.0215628
0.0214242
0.0214287
0.0223988
0.161839
0.0226794
0.0213663
0.0226789
0.0227086
0.203567
2.91163
0.0576905
0.0243064
3.24478
0.0214854
0.0213809
0.0603153
0.0323314
0.0222792
0.0224353
0.0217672
0.140602
0.0219142
0.0256265
0.0225019
0.0341234
3.74778
0.0214684
0.0568378
0.064248
0.0252213
0.0435314
0.0206623
0.0217651
0.0587958
1.29642
0.02334
0.036225
2.17544
0.0890745
0.0207996
2.73375
0.022854
0.0196642
0.0544126
3.53661
0.021567
0.0207393
0.0232282
0.0308145
0.0337995
0.0214436
0.0225731
0.0397197
0.0217576
0.0289143
0.0258797
1.16004
0.0204315
2.95982
0.887924
0.03831
0.0214147
0.0882248
0.0210704
0.0235958
0.0216777
0.0546903
0.0201717
0.0201541
0.0407924
0.0581185
2.10074
0.0220477
0.0200785
0.0233827
0.0208171
2.84626
0.0236375
0.0229538
0.0222484
0.0606081
0.0475868
0.0236417
0.0233249
0.044745
0.0217911
0.021559
0.0235293
0.0222496
0.12432
0.0212107
0.0306098
0.0220661
0.0215643
0.0491433
0.0873165
2.73544
0.0215381
0.0547296
0.096827
2.98511
3.30243
0.0316234
0.0216126
0.0247045
0.0301512
2.64097
0.0220041
0.0252985
0.0272376
0.0308485
0.0202273
0.0538081
0.0465916
1.0931
0.0222099
0.02175
0.0870323
1.15031
0.0201068
0.0247041
0.0335586
0.0199775
0.0226457
0.0455676
0.0210672
0.0215096
0.0217882
0.0245815
0.0797018
0.0363781
0.0226472
0.0206207
0.0223661
0.126802
0.0199316
0.0208583
0.0260854
0.0864959
0.0257327
3.57009
0.0246419
0.0215374
0.0215713
0.0232376
0.021217
0.0332697
0.0651723
0.0209155
0.0210205
0.0221246
0.0213221
0.0222736
0.0456744
2.68651
0.0226546
0.0967276
0.0231162
0.021343
0.155427
0.0236816
3.58201
0.0218747
0.0218989
0.0207485
0.0215332
0.0227139
0.0305841
0.0405134
0.12457
0.0281013
0.0531443
0.021912
0.0332483
0.0214521
0.0235688
0.0332899
2.69933
3.10664
0.0220093
3.23254
0.132943
0.0423759
0.231684
0.0198633
0.0214288
0.0218064
0.0230931
2.80857
0.020772
0.0691542
0.611897
0.0226124
0.0805023
0.0199661
0.0314208
0.334263
1.08719
0.0219583
0.268586
0.111387
0.766469
0.0264306
3.21245
0.022728
0.127518
0.0987609
0.0205114
0.0390691
0.0318327
0.0237489
0.149413
0.0306742
0.0209371
0.0234683
0.274459
0.0218592
0.0518892
0.0216062
0.0199009
0.023074
0.0327181
0.0215876
0.079309
0.026908
0.0238952
0.0198836
0.0216007
0.284177
0.0779436
0.126334
0.0338998
0.0251783
0.0281727
0.025838
0.0215016
0.0228741
0.0338811
0.0233379
0.0243122
0.0203861
0.0261017
2.92841
0.0220701
3.02573
0.132056
0.0216875
0.0217548
0.0202463
0.0289446
0.0370653
0.0200822
0.0256665
0.02318
0.0221359
0.0211846
0.0222273
0.0213268
0.0217284
0.251906
0.0220275
0.0263484
0.0214722
0.168908
0.124866
0.0215255
0.275623
0.0217463
0.0241032
0.0308103
0.254442
0.029299
0.0210175
0.0214358
0.0333028
0.0424118
0.145298
0.0229465
0.0499362
0.109446
0.0220539
0.0215782
0.108693
0.0524394
0.0313669
0.021736
0.0235657
0.022863
0.0235806
0.0209075
2.12023
0.0243661