/*--------------------------------*- C++ -*----------------------------------*\
| =========                 |                                                 |
| \\      /  F ield         | OpenFOAM: The Open Source CFD Toolbox           |
|  \\    /   O peration     | Version:  v2012                                 |
|   \\  /    A nd           | Website:  www.openfoam.com                      |
|    \\/     M anipulation  |                                                 |
\*---------------------------------------------------------------------------*/
FoamFile
{
    version     2.0;
    format      ascii;
    class       pointVectorField;
    location    "200";
    object      pointDisplacement;
}
// * * * * * * * * * * * * * * * * * * * * * * * * * * * * * * * * * * * * * //

dimensions      [0 1 0 0 0 0 0];


internalField   nonuniform List<vector> 
14386
(
(0 0 0)
(0 0.0565711 0)
(0 0 0)
(0 0.0565711 0)
(0 0 0)
(0 0 0)
(0 0 0)
(0 0 0)
(0 0 0)
(0 0 0)
(0 0 0)
(0 0 0)
(0 0 0)
(0 0 0)
(0 0 0)
(0 0 0)
(0 0 0)
(0 0 0)
(0 0 0)
(0 0 0)
(0 0 0)
(0 0 0)
(0 0 0)
(0 0 0)
(0 0 0)
(0 0 0)
(0 0 0)
(0 0 0)
(0 0 0)
(0 0 0)
(0 0 0)
(0 0 0)
(0 0 0)
(0 0 0)
(0 0 0)
(0 0 0)
(0 0 0)
(0 0 0)
(0 0 0)
(0 0 0)
(0 0 0)
(0 0 0)
(0 0 0)
(0 0 0)
(0 0 0)
(0 0 0)
(0 0 0)
(0 0 0)
(0 0 0)
(0 0 0)
(0 0 0)
(0 0 0)
(0 0 0)
(0 0 0)
(0 0 0)
(0 0 0)
(0 0 0)
(0 0 0)
(0 0 0)
(0 0 0)
(0 0 0)
(0 0 0)
(0 0 0)
(0 0 0)
(0 0 0)
(0 0 0)
(0 0 0)
(0 0 0)
(0 0 0)
(0 0 0)
(0 0 0)
(0 0 0)
(0 0 0)
(0 0 0)
(0 0 0)
(0 0 0)
(0 0 0)
(0 0 0)
(0 0 0)
(0 0 0)
(0 0 0)
(0 0 0)
(0 0 0)
(0 0 0)
(0 0 0)
(0 0 0)
(0 0 0)
(0 0 0)
(0 0 0)
(0 0 0)
(0 0 0)
(0 0 0)
(0 0 0)
(0 0 0)
(0 0 0)
(0 0 0)
(0 0 0)
(0 0 0)
(0 0 0)
(0 0 0)
(0 0 0)
(0 0 0)
(0 0 0)
(0 0 0)
(0 0 0)
(0 0 0)
(0 0 0)
(0 0 0)
(0 0 0)
(0 0 0)
(0 0 0)
(0 0 0)
(0 0 0)
(0 0 0)
(0 0 0)
(0 0 0)
(0 0 0)
(0 0 0)
(0 0 0)
(0 0 0)
(0 0 0)
(0 0 0)
(0 0 0)
(0 0 0)
(0 0 0)
(0 0 0)
(0 0 0)
(0 0 0)
(0 0 0)
(0 0 0)
(0 0 0)
(0 0 0)
(0 0 0)
(0 0.0565711 0)
(0 0.0565711 0)
(0 0.0565711 0)
(0 0.0565711 0)
(0 0.0565711 0)
(0 0.0565711 0)
(0 0.0565711 0)
(0 0.0565711 0)
(0 0.0565711 0)
(0 0.0565711 0)
(0 0.0565711 0)
(0 0.0565711 0)
(0 0.0565711 0)
(0 0.0565711 0)
(0 0.0565711 0)
(0 0.0565711 0)
(0 0.0565711 0)
(0 0.0565711 0)
(0 0.0565711 0)
(0 0.0565711 0)
(0 0.0565711 0)
(0 0.0565711 0)
(0 0.0565711 0)
(0 0.0565711 0)
(0 0.0565711 0)
(0 0.0565711 0)
(0 0.0565711 0)
(0 0.0565711 0)
(0 0.0565711 0)
(0 0 0)
(0 0 0)
(0 0 0)
(0 0 0)
(0 0 0)
(0 0 0)
(0 0 0)
(0 0 0)
(0 0 0)
(0 0 0)
(0 0 0)
(0 0 0)
(0 0 0)
(0 0 0)
(0 0 0)
(0 0 0)
(0 0 0)
(0 0 0)
(0 0 0)
(0 0 0)
(0 0 0)
(0 0 0)
(0 0 0)
(0 0 0)
(0 0 0)
(0 0 0)
(0 0 0)
(0 0 0)
(0 0 0)
(0 0 0)
(0 0 0)
(0 0 0)
(0 0 0)
(0 0 0)
(0 0 0)
(0 0 0)
(0 0 0)
(0 0 0)
(0 0 0)
(0 0 0)
(0 0 0)
(0 0 0)
(0 0 0)
(0 0 0)
(0 0 0)
(0 0 0)
(0 0 0)
(0 0 0)
(0 0 0)
(0 0 0)
(0 0 0)
(0 0 0)
(0 0 0)
(0 0 0)
(0 0 0)
(0 0 0)
(0 0 0)
(0 0 0)
(0 0 0)
(0 0 0)
(0 0 0)
(0 0 0)
(0 0 0)
(0 0 0)
(0 0 0)
(0 0 0)
(0 0 0)
(0 0 0)
(0 0 0)
(0 0 0)
(0 0 0)
(0 0 0)
(0 0 0)
(0 0 0)
(0 0 0)
(0 0 0)
(0 0 0)
(0 0 0)
(0 0 0)
(0 0 0)
(0 0 0)
(0 0 0)
(0 0 0)
(0 0 0)
(0 0 0)
(0 0 0)
(0 0 0)
(0 0 0)
(0 0 0)
(0 0 0)
(0 0 0)
(0 0 0)
(0 0 0)
(0 0 0)
(0 0 0)
(0 0 0)
(0 0 0)
(0 0 0)
(0 0 0)
(0 0 0)
(0 0 0)
(0 0 0)
(0 0 0)
(0 0 0)
(0 0 0)
(0 0 0)
(0 0 0)
(0 0 0)
(0 0 0)
(0 0 0)
(0 0 0)
(0 0 0)
(0 0 0)
(0 0 0)
(0 0 0)
(0 0 0)
(0 0 0)
(0 0 0)
(0 0 0)
(0 0 0)
(0 0 0)
(0 0 0)
(0 0 0)
(0 0 0)
(0 0 0)
(0 0 0)
(0 0 0)
(0 0 0)
(0 0 0)
(0 0.0565711 0)
(0 0.0565711 0)
(0 0.0565711 0)
(0 0.0565711 0)
(0 0.0565711 0)
(0 0.0565711 0)
(0 0.0565711 0)
(0 0.0565711 0)
(0 0.0565711 0)
(0 0.0565711 0)
(0 0.0565711 0)
(0 0.0565711 0)
(0 0.0565711 0)
(0 0.0565711 0)
(0 0.0565711 0)
(0 0.0565711 0)
(0 0.0565711 0)
(0 0.0565711 0)
(0 0.0565711 0)
(0 0.0565711 0)
(0 0.0565711 0)
(0 0.0565711 0)
(0 0.0565711 0)
(0 0.0565711 0)
(0 0.0565711 0)
(0 0.0565711 0)
(0 0.0565711 0)
(0 0.0565711 0)
(0 0.0565711 0)
(0 0.0019187 0)
(0 0.0565711 0)
(0 0.0565711 0)
(0 0.0565711 0)
(0 0.00240526 0)
(0 0.00106375 0)
(0 0.00077152 0)
(0 0.00138787 0)
(0 0.0031009 0)
(0 0.000547478 0)
(0 0.00337822 0)
(0 0.000375572 0)
(0 0.00361656 0)
(0 0.00404586 0)
(0 0.000372733 0)
(0 0.0565711 0)
(0 0.000327506 0)
(0 0.000290879 0)
(0 0.00027768 0)
(0 0.000217294 0)
(0 0.000193899 0)
(0 0.00170451 0)
(0 0.00137089 0)
(0 0.000905782 0)
(0 0.0565711 0)
(0 0.0565711 0)
(0 0.000126422 0)
(0 0.000123261 0)
(0 0.00364801 0)
(0 0.00390656 0)
(0 0.00352159 0)
(0 0.00289839 0)
(0 0.00201791 0)
(0 0.000508489 0)
(0 0.000652678 0)
(0 0.000360753 0)
(0 0.000352837 0)
(0 0.000343902 0)
(0 0.0565711 0)
(0 8.05731e-05 0)
(0 6.58376e-05 0)
(0 0.00378624 0)
(0 0.00257466 0)
(0 0.00206558 0)
(0 0.0018092 0)
(0 0.0018372 0)
(0 0.00128447 0)
(0 0.00107072 0)
(0 0.00100006 0)
(0 0.000867847 0)
(0 0.000161795 0)
(0 0.000351508 0)
(0 0.00060542 0)
(0 0.000407809 0)
(0 0.000164287 0)
(0 0.000196068 0)
(0 0.000260872 0)
(0 0.000516944 0)
(0 2.69327e-05 0)
(0 0.0531033 0)
(0 0.0527474 0)
(0 0.0529599 0)
(0 0.0525953 0)
(0 0.0528124 0)
(0 0.0531609 0)
(0 0.053015 0)
(0 0.0526598 0)
(0 0.0528651 0)
(0 0.0532032 0)
(0 0.0530562 0)
(0 0.0527088 0)
(0 0.0529031 0)
(0 0.0525459 0)
(0 0.052744 0)
(0 0.0530827 0)
(0 0.052932 0)
(0 0.0525788 0)
(0 0.0527705 0)
(0 0.0531502 0)
(0 0.0529458 0)
(0 0.0525957 0)
(0 0.0527717 0)
(0 0.0530984 0)
(0 0.052933 0)
(0 0.0532422 0)
(0 0.0530818 0)
(0 0.0527627 0)
(0 0.0529159 0)
(0 0.0532204 0)
(0 0.0530571 0)
(0 0.0533501 0)
(0 0.0531866 0)
(0 0.0534703 0)
(0 0.0533069 0)
(0 0.053012 0)
(0 0.0531339 0)
(0 0.0534207 0)
(0 0.0532486 0)
(0 0.0535284 0)
(0 0.0533546 0)
(0 0.0536325 0)
(0 0.0534511 0)
(0 0.0537165 0)
(0 0.0535376 0)
(0 0.0537825 0)
(0 0.0536184 0)
(0 0.0538445 0)
(0 0.0536815 0)
(0 0.0539031 0)
(0 0.0537282 0)
(0 0.053957 0)
(0 0.0537747 0)
(0 0.0539999 0)
(0 0.0538158 0)
(0 0.0540342 0)
(0 0.0538474 0)
(0 0.0540609 0)
(0 0.0538696 0)
(0 0.0540814 0)
(0 0.053882 0)
(0 0.0540918 0)
(0 0.0538815 0)
(0 0.0540919 0)
(0 0.0538708 0)
(0 0.054084 0)
(0 0.053855 0)
(0 0.0540671 0)
(0 0.0538365 0)
(0 0.0540437 0)
(0 0.0538128 0)
(0 0.0540143 0)
(0 0.053775 0)
(0 0.0539662 0)
(0 0.0537217 0)
(0 0.0539027 0)
(0 0.0536577 0)
(0 0.0538365 0)
(0 0.0535839 0)
(0 0.0537618 0)
(0 0.0534978 0)
(0 0.0536745 0)
(0 0.0534049 0)
(0 0.0535779 0)
(0 0.0533022 0)
(0 0.0534638 0)
(0 0.0531879 0)
(0 0.0533357 0)
(0 0.0530556 0)
(0 0.0532008 0)
(0 0.0529094 0)
(0 0.0530543 0)
(0 0.0527556 0)
(0 0.0528919 0)
(0 0.0525851 0)
(0 0.0524424 0)
(0 0.0522658 0)
(0 0.05329 0)
(0 0.0536195 0)
(0 0.0534962 0)
(0 0.0528269 0)
(0 0.0521151 0)
(0 0.0519325 0)
(0 0.0527138 0)
(0 0.0517716 0)
(0 0.0515832 0)
(0 0.0514074 0)
(0 0.0512089 0)
(0 0.0510217 0)
(0 0.0508166 0)
(0 0.0506182 0)
(0 0.050407 0)
(0 0.0501974 0)
(0 0.0499797 0)
(0 0.0501828 0)
(0 0.0497455 0)
(0 0.049939 0)
(0 0.0494927 0)
(0 0.049295 0)
(0 0.0490323 0)
(0 0.0496735 0)
(0 0.0488287 0)
(0 0.0485545 0)
(0 0.0483417 0)
(0 0.0480577 0)
(0 0.047831 0)
(0 0.0475419 0)
(0 0.0472954 0)
(0 0.047008 0)
(0 0.046746 0)
(0 0.0464562 0)
(0 0.0461828 0)
(0 0.0458881 0)
(0 0.0461503 0)
(0 0.0455775 0)
(0 0.0458361 0)
(0 0.045248 0)
(0 0.0454885 0)
(0 0.0448993 0)
(0 0.0446609 0)
(0 0.0443069 0)
(0 0.0440553 0)
(0 0.0436972 0)
(0 0.0451177 0)
(0 0.0434358 0)
(0 0.0430745 0)
(0 0.0428018 0)
(0 0.0424389 0)
(0 0.0421527 0)
(0 0.0417876 0)
(0 0.0414884 0)
(0 0.0411233 0)
(0 0.0414047 0)
(0 0.0407371 0)
(0 0.0409994 0)
(0 0.0403324 0)
(0 0.0400598 0)
(0 0.0396558 0)
(0 0.0393661 0)
(0 0.0389305 0)
(0 0.0386671 0)
(0 0.0382519 0)
(0 0.0398832 0)
(0 0.0379718 0)
(0 0.0375749 0)
(0 0.0372634 0)
(0 0.0368712 0)
(0 0.0365479 0)
(0 0.0361584 0)
(0 0.053014 0)
(0 0.0358258 0)
(0 0.035439 0)
(0 0.0357479 0)
(0 0.0350305 0)
(0 0.0353132 0)
(0 0.034601 0)
(0 0.0343118 0)
(0 0.0338939 0)
(0 0.0335915 0)
(0 0.0331857 0)
(0 0.034162 0)
(0 0.0328676 0)
(0 0.0324643 0)
(0 0.0321374 0)
(0 0.0317326 0)
(0 0.0314041 0)
(0 0.0310044 0)
(0 0.0306711 0)
(0 0.0302794 0)
(0 0.0299405 0)
(0 0.0295579 0)
(0 0.0298695 0)
(0 0.0291562 0)
(0 0.0294405 0)
(0 0.0287359 0)
(0 0.0284474 0)
(0 0.0280349 0)
(0 0.0282992 0)
(0 0.0276069 0)
(0 0.0273376 0)
(0 0.0269195 0)
(0 0.0266441 0)
(0 0.0262359 0)
(0 0.0259547 0)
(0 0.0255569 0)
(0 0.0258126 0)
(0 0.0251439 0)
(0 0.0248834 0)
(0 0.0244808 0)
(0 0.0242161 0)
(0 0.0238236 0)
(0 0.0235546 0)
(0 0.0231728 0)
(0 0.0234171 0)
(0 0.022777 0)
(0 0.0225283 0)
(0 0.0221432 0)
(0 0.0218905 0)
(0 0.0215161 0)
(0 0.0212595 0)
(0 0.0208962 0)
(0 0.021129 0)
(0 0.0205197 0)
(0 0.0202839 0)
(0 0.0199181 0)
(0 0.0196794 0)
(0 0.0193241 0)
(0 0.0190825 0)
(0 0.0187372 0)
(0 0.0189569 0)
(0 0.0183789 0)
(0 0.0181578 0)
(0 0.0178093 0)
(0 0.0175854 0)
(0 0.0172479 0)
(0 0.0528277 0)
(0 0.0531193 0)
(0 0.0529289 0)
(0 0.0532149 0)
(0 0.0170215 0)
(0 0.0166966 0)
(0 0.0168996 0)
(0 0.0163611 0)
(0 0.0161568 0)
(0 0.016534 0)
(0 0.0160098 0)
(0 0.016145 0)
(0 0.0156441 0)
(0 0.0539533 0)
(0 0.0464599 0)
(0 0.0303076 0)
(0 0.0361942 0)
(0 0.0540001 0)
(0 0.0542113 0)
(0 0.0542565 0)
(0 0.0418337 0)
(0 0.0562274 0)
(0 0.0562589 0)
(0 0.0562164 0)
(0 0.0562485 0)
(0 0.0562046 0)
(0 0.0562373 0)
(0 0.0562779 0)
(0 0.0562667 0)
(0 0.0562255 0)
(0 0.0562554 0)
(0 0.056213 0)
(0 0.0562434 0)
(0 0.0563021 0)
(0 0.0561993 0)
(0 0.0562302 0)
(0 0.0561839 0)
(0 0.0562157 0)
(0 0.0561672 0)
(0 0.0561996 0)
(0 0.0562453 0)
(0 0.05623 0)
(0 0.0562728 0)
(0 0.0562581 0)
(0 0.056298 0)
(0 0.0562838 0)
(0 0.056242 0)
(0 0.0562683 0)
(0 0.0563216 0)
(0 0.0562241 0)
(0 0.056251 0)
(0 0.0561327 0)
(0 0.0562038 0)
(0 0.0562312 0)
(0 0.0561809 0)
(0 0.0562092 0)
(0 0.0562569 0)
(0 0.0562349 0)
(0 0.0562796 0)
(0 0.0562579 0)
(0 0.0562994 0)
(0 0.0562782 0)
(0 0.0563174 0)
(0 0.0562964 0)
(0 0.0563343 0)
(0 0.0563128 0)
(0 0.0563501 0)
(0 0.0563283 0)
(0 0.0563639 0)
(0 0.0563411 0)
(0 0.0563743 0)
(0 0.0563465 0)
(0 0.0563828 0)
(0 0.056359 0)
(0 0.056391 0)
(0 0.0563656 0)
(0 0.0563969 0)
(0 0.0563708 0)
(0 0.0564005 0)
(0 0.0563737 0)
(0 0.0564028 0)
(0 0.0563758 0)
(0 0.0564037 0)
(0 0.0563766 0)
(0 0.0564028 0)
(0 0.0563746 0)
(0 0.0564001 0)
(0 0.0563707 0)
(0 0.0563956 0)
(0 0.0563649 0)
(0 0.0563892 0)
(0 0.0563574 0)
(0 0.0563808 0)
(0 0.0563482 0)
(0 0.0563702 0)
(0 0.0563362 0)
(0 0.0563572 0)
(0 0.0563203 0)
(0 0.0563416 0)
(0 0.0563018 0)
(0 0.0563241 0)
(0 0.0563303 0)
(0 0.0563458 0)
(0 0.0562823 0)
(0 0.0563011 0)
(0 0.0562708 0)
(0 0.0563845 0)
(0 0.0561557 0)
(0 0.0504003 0)
(0 0.0563782 0)
(0 0.053655 0)
(0 0.0564233 0)
(0 0.0564182 0)
(0 0.056125 0)
(0 0.0560967 0)
(0 0.0560633 0)
(0 0.056033 0)
(0 0.0559948 0)
(0 0.0559624 0)
(0 0.0559202 0)
(0 0.0558841 0)
(0 0.0558401 0)
(0 0.0557991 0)
(0 0.0557552 0)
(0 0.0558435 0)
(0 0.0557536 0)
(0 0.0557997 0)
(0 0.0557045 0)
(0 0.0557514 0)
(0 0.0556511 0)
(0 0.0556976 0)
(0 0.0456883 0)
(0 0.0453109 0)
(0 0.0555928 0)
(0 0.0556386 0)
(0 0.0555429 0)
(0 0.056428 0)
(0 0.0542832 0)
(0 0.053623 0)
(0 0.0537596 0)
(0 0.0530031 0)
(0 0.0263369 0)
(0 0.0173363 0)
(0 0.0151253 0)
(0 0.0194157 0)
(0 0.02161 0)
(0 0.0278458 0)
(0 0.0230002 0)
(0 0.0207292 0)
(0 0.0325224 0)
(0 0.0458869 0)
(0 0.0461468 0)
(0 0.0455615 0)
(0 0.0458004 0)
(0 0.0452037 0)
(0 0.045419 0)
(0 0.0447969 0)
(0 0.0450027 0)
(0 0.0443728 0)
(0 0.0445417 0)
(0 0.0438932 0)
(0 0.0440335 0)
(0 0.0433439 0)
(0 0.043509 0)
(0 0.0427925 0)
(0 0.0429838 0)
(0 0.0421905 0)
(0 0.042256 0)
(0 0.0415334 0)
(0 0.0415885 0)
(0 0.0408495 0)
(0 0.0409004 0)
(0 0.0401419 0)
(0 0.0416226 0)
(0 0.0409154 0)
(0 0.0416386 0)
(0 0.0408964 0)
(0 0.0416352 0)
(0 0.0408608 0)
(0 0.0415939 0)
(0 0.0407814 0)
(0 0.0415181 0)
(0 0.0406689 0)
(0 0.0398204 0)
(0 0.0414174 0)
(0 0.0405246 0)
(0 0.041271 0)
(0 0.0403265 0)
(0 0.0410805 0)
(0 0.0401138 0)
(0 0.0408682 0)
(0 0.0398647 0)
(0 0.0406224 0)
(0 0.0395756 0)
(0 0.0403422 0)
(0 0.0387988 0)
(0 0.0418274 0)
(0 0.0392494 0)
(0 0.0400191 0)
(0 0.0388802 0)
(0 0.0396539 0)
(0 0.0407671 0)
(0 0.0404043 0)
(0 0.041482 0)
(0 0.0411269 0)
(0 0.0400167 0)
(0 0.0407424 0)
(0 0.0421696 0)
(0 0.0395922 0)
(0 0.0403179 0)
(0 0.0391183 0)
(0 0.0398485 0)
(0 0.0385935 0)
(0 0.0393356 0)
(0 0.040562 0)
(0 0.0400575 0)
(0 0.04125 0)
(0 0.0407499 0)
(0 0.0395143 0)
(0 0.0402092 0)
(0 0.0419021 0)
(0 0.0389273 0)
(0 0.0396282 0)
(0 0.0423229 0)
(0 0.0400814 0)
(0 0.0393599 0)
(0 0.0393151 0)
(0 0.0385635 0)
(0 0.0382767 0)
(0 0.0389961 0)
(0 0.0385357 0)
(0 0.0377578 0)
(0 0.0377375 0)
(0 0.0369437 0)
(0 0.0369296 0)
(0 0.0361199 0)
(0 0.0361122 0)
(0 0.0352895 0)
(0 0.0352622 0)
(0 0.0344188 0)
(0 0.0343542 0)
(0 0.0334968 0)
(0 0.0333913 0)
(0 0.0325207 0)
(0 0.0326391 0)
(0 0.0316478 0)
(0 0.031776 0)
(0 0.0307562 0)
(0 0.0309089 0)
(0 0.029873 0)
(0 0.0300457 0)
(0 0.0290078 0)
(0 0.0291828 0)
(0 0.0281397 0)
(0 0.0283218 0)
(0 0.0272747 0)
(0 0.0274633 0)
(0 0.0264162 0)
(0 0.0266084 0)
(0 0.025564 0)
(0 0.0257647 0)
(0 0.0323575 0)
(0 0.0247159 0)
(0 0.0249211 0)
(0 0.0238774 0)
(0 0.0240516 0)
(0 0.0230533 0)
(0 0.0232332 0)
(0 0.0287797 0)
(0 0.0222429 0)
(0 0.0224508 0)
(0 0.0214328 0)
(0 0.0216679 0)
(0 0.0206403 0)
(0 0.0208737 0)
(0 0.0198555 0)
(0 0.0200945 0)
(0 0.0190846 0)
(0 0.0193271 0)
(0 0.0253106 0)
(0 0.0183218 0)
(0 0.0185726 0)
(0 0.0195224 0)
(0 0.0187725 0)
(0 0.0178369 0)
(0 0.0180394 0)
(0 0.0171143 0)
(0 0.0173212 0)
(0 0.018207 0)
(0 0.0174947 0)
(0 0.0166193 0)
(0 0.0167974 0)
(0 0.0159322 0)
(0 0.0161131 0)
(0 0.0152593 0)
(0 0.0154433 0)
(0 0.0146012 0)
(0 0.0147895 0)
(0 0.015596 0)
(0 0.0149469 0)
(0 0.0141521 0)
(0 0.0143135 0)
(0 0.013531 0)
(0 0.0136965 0)
(0 0.012927 0)
(0 0.0130959 0)
(0 0.0138318 0)
(0 0.0132337 0)
(0 0.0125127 0)
(0 0.0126528 0)
(0 0.0119455 0)
(0 0.0120888 0)
(0 0.0113938 0)
(0 0.01154 0)
(0 0.0122024 0)
(0 0.0116546 0)
(0 0.0110068 0)
(0 0.0111278 0)
(0 0.0104919 0)
(0 0.0106061 0)
(0 0.0112183 0)
(0 0.010699 0)
(0 0.0100018 0)
(0 0.0101972 0)
(0 0.0107719 0)
(0 0.0102838 0)
(0 0.00975042 0)
(0 0.00980574 0)
(0 0.0103044 0)
(0 0.00984335 0)
(0 0.00933647 0)
(0 0.00938439 0)
(0 0.00987159 0)
(0 0.00941453 0)
(0 0.00987211 0)
(0 0.00941899 0)
(0 0.0089605 0)
(0 0.00896967 0)
(0 0.00940214 0)
(0 0.00895736 0)
(0 0.00936008 0)
(0 0.00892316 0)
(0 0.00851768 0)
(0 0.00848836 0)
(0 0.0088734 0)
(0 0.00844145 0)
(0 0.00880935 0)
(0 0.00837606 0)
(0 0.00801235 0)
(0 0.0079477 0)
(0 0.00829444 0)
(0 0.00787 0)
(0 0.00752562 0)
(0 0.00819769 0)
(0 0.00777682 0)
(0 0.00808623 0)
(0 0.00767039 0)
(0 0.00796044 0)
(0 0.00754658 0)
(0 0.00782001 0)
(0 0.00740375 0)
(0 0.00767258 0)
(0 0.00724262 0)
(0 0.00698194 0)
(0 0.00750395 0)
(0 0.00707406 0)
(0 0.00731705 0)
(0 0.00689883 0)
(0 0.00712199 0)
(0 0.00670394 0)
(0 0.00691219 0)
(0 0.00774263 0)
(0 0.00838352 0)
(0 0.00648975 0)
(0 0.00669081 0)
(0 0.00628325 0)
(0 0.0183434 0)
(0 0.0219759 0)
(0 0.00627037 0)
(0 0.00646211 0)
(0 0.00687933 0)
(0 0.00663932 0)
(0 0.00705608 0)
(0 0.00680448 0)
(0 0.022805 0)
(0 0.00639104 0)
(0 0.00654496 0)
(0 0.0375674 0)
(0 0.0383071 0)
(0 0.039701 0)
(0 0.0390221 0)
(0 0.0403713 0)
(0 0.0397043 0)
(0 0.0410086 0)
(0 0.0403538 0)
(0 0.0416298 0)
(0 0.0409726 0)
(0 0.0396444 0)
(0 0.0402747 0)
(0 0.0415373 0)
(0 0.040903 0)
(0 0.0395403 0)
(0 0.0401755 0)
(0 0.0415168 0)
(0 0.0407924 0)
(0 0.0393999 0)
(0 0.0400288 0)
(0 0.0413878 0)
(0 0.0406365 0)
(0 0.0419589 0)
(0 0.0412191 0)
(0 0.0398351 0)
(0 0.0404297 0)
(0 0.0417815 0)
(0 0.041007 0)
(0 0.0395892 0)
(0 0.0401844 0)
(0 0.0415658 0)
(0 0.040757 0)
(0 0.0421009 0)
(0 0.041305 0)
(0 0.039901 0)
(0 0.0404605 0)
(0 0.0418562 0)
(0 0.0410129 0)
(0 0.0395778 0)
(0 0.00613387 0)
(0 0.00627775 0)
(0 0.0275925 0)
(0 0.0368063 0)
(0 0.0360429 0)
(0 0.0187717 0)
(0 0.00722149 0)
(0 0.0451767 0)
(0 0.00586864 0)
(0 0.00600324 0)
(0 0.0143821 0)
(0 0.0351991 0)
(0 0.0344179 0)
(0 0.00559614 0)
(0 0.00572238 0)
(0 0.00612806 0)
(0 0.00546086 0)
(0 0.03784 0)
(0 0.0334838 0)
(0 0.032679 0)
(0 0.031029 0)
(0 0.0368868 0)
(0 0.0316574 0)
(0 0.0308178 0)
(0 0.0250232 0)
(0 0.0112191 0)
(0 0.0139378 0)
(0 0.0383518 0)
(0 0.053183 0)
(0 0.0554802 0)
(0 0.0554264 0)
(0 0.0535598 0)
(0 0.0523644 0)
(0 0.056334 0)
(0 0.0563553 0)
(0 0.0563665 0)
(0 0.0563855 0)
(0 0.0563955 0)
(0 0.0564122 0)
(0 0.0564207 0)
(0 0.0564354 0)
(0 0.0564428 0)
(0 0.0564559 0)
(0 0.0564623 0)
(0 0.0564738 0)
(0 0.0564792 0)
(0 0.0564893 0)
(0 0.0564939 0)
(0 0.0565028 0)
(0 0.0565067 0)
(0 0.0565145 0)
(0 0.0565177 0)
(0 0.0565103 0)
(0 0.0565206 0)
(0 0.0565135 0)
(0 0.056523 0)
(0 0.0565165 0)
(0 0.0565254 0)
(0 0.0565193 0)
(0 0.0565279 0)
(0 0.0565217 0)
(0 0.0565301 0)
(0 0.0565239 0)
(0 0.056532 0)
(0 0.0565258 0)
(0 0.0565336 0)
(0 0.0565277 0)
(0 0.0565352 0)
(0 0.0565246 0)
(0 0.0565217 0)
(0 0.056539 0)
(0 0.0565308 0)
(0 0.0565285 0)
(0 0.0565363 0)
(0 0.0565338 0)
(0 0.0565411 0)
(0 0.0565384 0)
(0 0.0565455 0)
(0 0.0565432 0)
(0 0.0565474 0)
(0 0.0565511 0)
(0 0.0565526 0)
(0 0.0565356 0)
(0 0.0565409 0)
(0 0.0565557 0)
(0 0.0565569 0)
(0 0.056533 0)
(0 0.0565383 0)
(0 0.0565594 0)
(0 0.0565603 0)
(0 0.0564504 0)
(0 0.0565128 0)
(0 0.0561693 0)
(0 0.0557932 0)
(0 0.0557047 0)
(0 0.0557434 0)
(0 0.0556478 0)
(0 0.0556889 0)
(0 0.0555917 0)
(0 0.0556286 0)
(0 0.055528 0)
(0 0.0555619 0)
(0 0.0554488 0)
(0 0.0554887 0)
(0 0.0553652 0)
(0 0.0554094 0)
(0 0.0554269 0)
(0 0.0552796 0)
(0 0.0553245 0)
(0 0.0551872 0)
(0 0.0552329 0)
(0 0.0553657 0)
(0 0.0552755 0)
(0 0.0565298 0)
(0 0.0565351 0)
(0 0.0565428 0)
(0 0.0565398 0)
(0 0.0565468 0)
(0 0.0565439 0)
(0 0.0565503 0)
(0 0.0565473 0)
(0 0.0565533 0)
(0 0.0565503 0)
(0 0.0563311 0)
(0 0.0565624 0)
(0 0.0565631 0)
(0 0.0565611 0)
(0 0.0565637 0)
(0 0.055403 0)
(0 0.0553149 0)
(0 0.05654 0)
(0 0.0297195 0)
(0 0.0288595 0)
(0 0.0305667 0)
(0 0.042613 0)
(0 0.055439 0)
(0 0.0553514 0)
(0 0.0554746 0)
(0 0.0553857 0)
(0 0.0552535 0)
(0 0.0552885 0)
(0 0.0551321 0)
(0 0.0554183 0)
(0 0.0553221 0)
(0 0.0554499 0)
(0 0.0553541 0)
(0 0.0565619 0)
(0 0.0565642 0)
(0 0.0565555 0)
(0 0.0565528 0)
(0 0.0565625 0)
(0 0.0565647 0)
(0 0.0565661 0)
(0 0.0565664 0)
(0 0.0565651 0)
(0 0.0565668 0)
(0 0.0565655 0)
(0 0.0565671 0)
(0 0.0565659 0)
(0 0.0565673 0)
(0 0.0565662 0)
(0 0.0565676 0)
(0 0.0565665 0)
(0 0.0565678 0)
(0 0.0565667 0)
(0 0.056568 0)
(0 0.056567 0)
(0 0.0565681 0)
(0 0.0565672 0)
(0 0.0565648 0)
(0 0.0564502 0)
(0 0.0551471 0)
(0 0.0551366 0)
(0 0.0332519 0)
(0 0.0321761 0)
(0 0.0422294 0)
(0 0.0565586 0)
(0 0.0557398 0)
(0 0.0556799 0)
(0 0.0557776 0)
(0 0.0557173 0)
(0 0.0556147 0)
(0 0.0556521 0)
(0 0.0557518 0)
(0 0.055686 0)
(0 0.0557833 0)
(0 0.055715 0)
(0 0.0558093 0)
(0 0.0557391 0)
(0 0.0558297 0)
(0 0.0557589 0)
(0 0.0558463 0)
(0 0.055774 0)
(0 0.0558588 0)
(0 0.0557849 0)
(0 0.0556946 0)
(0 0.0557042 0)
(0 0.055792 0)
(0 0.0557097 0)
(0 0.0557957 0)
(0 0.0557109 0)
(0 0.0557955 0)
(0 0.0557076 0)
(0 0.05579 0)
(0 0.0556987 0)
(0 0.0557795 0)
(0 0.0556851 0)
(0 0.0555986 0)
(0 0.0555817 0)
(0 0.0556672 0)
(0 0.0555589 0)
(0 0.0556453 0)
(0 0.0555306 0)
(0 0.0556214 0)
(0 0.0555 0)
(0 0.0555895 0)
(0 0.0554629 0)
(0 0.0555441 0)
(0 0.0554181 0)
(0 0.0554969 0)
(0 0.0553655 0)
(0 0.0554422 0)
(0 0.0553022 0)
(0 0.0556408 0)
(0 0.0554883 0)
(0 0.0552334 0)
(0 0.0556083 0)
(0 0.0565259 0)
(0 0.0565574 0)
(0 0.0565548 0)
(0 0.0565494 0)
(0 0.0565514 0)
(0 0.0565565 0)
(0 0.0565531 0)
(0 0.0565579 0)
(0 0.0565544 0)
(0 0.0565588 0)
(0 0.0565553 0)
(0 0.0565592 0)
(0 0.0565556 0)
(0 0.0565592 0)
(0 0.056555 0)
(0 0.0565587 0)
(0 0.0565542 0)
(0 0.0565579 0)
(0 0.056553 0)
(0 0.0565569 0)
(0 0.0565514 0)
(0 0.0565559 0)
(0 0.0565494 0)
(0 0.056549 0)
(0 0.0565442 0)
(0 0.0565507 0)
(0 0.0330745 0)
(0 0.0319706 0)
(0 0.032855 0)
(0 0.0317014 0)
(0 0.0325922 0)
(0 0.0313876 0)
(0 0.030486 0)
(0 0.0301207 0)
(0 0.0292075 0)
(0 0.0287859 0)
(0 0.027864 0)
(0 0.0273844 0)
(0 0.026458 0)
(0 0.0283143 0)
(0 0.0268572 0)
(0 0.0277872 0)
(0 0.0262768 0)
(0 0.0272037 0)
(0 0.0256279 0)
(0 0.026557 0)
(0 0.0249029 0)
(0 0.0258439 0)
(0 0.0239706 0)
(0 0.0241161 0)
(0 0.0250655 0)
(0 0.0232621 0)
(0 0.0242202 0)
(0 0.0260166 0)
(0 0.0251786 0)
(0 0.0299585 0)
(0 0.027955 0)
(0 0.0290528 0)
(0 0.0269947 0)
(0 0.0280465 0)
(0 0.0260308 0)
(0 0.0271122 0)
(0 0.0250827 0)
(0 0.0553585 0)
(0 0.0553 0)
(0 0.0565451 0)
(0 0.0285325 0)
(0 0.0294016 0)
(0 0.0555445 0)
(0 0.0553346 0)
(0 0.0233136 0)
(0 0.0551532 0)
(0 0.0281386 0)
(0 0.0269663 0)
(0 0.0295685 0)
(0 0.029909 0)
(0 0.0291603 0)
(0 0.0294708 0)
(0 0.0287157 0)
(0 0.0289912 0)
(0 0.0282354 0)
(0 0.0284752 0)
(0 0.0277196 0)
(0 0.0292347 0)
(0 0.0279293 0)
(0 0.0271673 0)
(0 0.0273511 0)
(0 0.0265808 0)
(0 0.026407 0)
(0 0.0258126 0)
(0 0.0256514 0)
(0 0.0250478 0)
(0 0.0249004 0)
(0 0.0242821 0)
(0 0.0241535 0)
(0 0.0550789 0)
(0 0.0360767 0)
(0 0.0368148 0)
(0 0.0360121 0)
(0 0.0367154 0)
(0 0.0359188 0)
(0 0.0515929 0)
(0 0.0262687 0)
(0 0.0241302 0)
(0 0.023534 0)
(0 0.0234234 0)
(0 0.0565675 0)
(0 0.0272536 0)
(0 0.0281487 0)
(0 0.0228125 0)
(0 0.0226941 0)
(0 0.0220952 0)
(0 0.0219719 0)
(0 0.0213851 0)
(0 0.0212761 0)
(0 0.0365893 0)
(0 0.035796 0)
(0 0.020685 0)
(0 0.0205785 0)
(0 0.0373491 0)
(0 0.0199877 0)
(0 0.0198831 0)
(0 0.0463769 0)
(0 0.0549924 0)
(0 0.0565688 0)
(0 0.0565683 0)
(0 0.0127312 0)
(0 0.0320356 0)
(0 0.0378552 0)
(0 0.0557301 0)
(0 0.0486384 0)
(0 0.0243773 0)
(0 0.0565641 0)
(0 0.0525869 0)
(0 0.0258067 0)
(0 0.0501136 0)
(0 0.0498326 0)
(0 0.0565643 0)
(0 0.0565662 0)
(0 0.0552265 0)
(0 0.0551625 0)
(0 0.0565658 0)
(0 0.0218308 0)
(0 0.0502662 0)
(0 0.0558751 0)
(0 0.0267338 0)
(0 0.0275131 0)
(0 0.0555673 0)
(0 0.0258799 0)
(0 0.0267939 0)
(0 0.0437365 0)
(0 0.0555537 0)
(0 0.056561 0)
(0 0.0192997 0)
(0 0.0192004 0)
(0 0.0197577 0)
(0 0.0190896 0)
(0 0.0549123 0)
(0 0.03644 0)
(0 0.0356413 0)
(0 0.0558973 0)
(0 0.0565673 0)
(0 0.056567 0)
(0 0.0548192 0)
(0 0.0239213 0)
(0 0.0261292 0)
(0 0.0279064 0)
(0 0.0185694 0)
(0 0.0185186 0)
(0 0.0184354 0)
(0 0.0190386 0)
(0 0.0183147 0)
(0 0.017785 0)
(0 0.017672 0)
(0 0.017151 0)
(0 0.017046 0)
(0 0.016534 0)
(0 0.0164318 0)
(0 0.0159302 0)
(0 0.0158302 0)
(0 0.016303 0)
(0 0.0157089 0)
(0 0.0152403 0)
(0 0.0151262 0)
(0 0.0146628 0)
(0 0.0145558 0)
(0 0.0149943 0)
(0 0.0144303 0)
(0 0.0148444 0)
(0 0.0142869 0)
(0 0.0138777 0)
(0 0.0137406 0)
(0 0.0141247 0)
(0 0.0135863 0)
(0 0.0139462 0)
(0 0.0134153 0)
(0 0.0137527 0)
(0 0.0132282 0)
(0 0.0128932 0)
(0 0.0127139 0)
(0 0.0130261 0)
(0 0.0125205 0)
(0 0.0128106 0)
(0 0.0123142 0)
(0 0.0125853 0)
(0 0.0120972 0)
(0 0.0123519 0)
(0 0.0118701 0)
(0 0.0121113 0)
(0 0.0116333 0)
(0 0.0118584 0)
(0 0.0113832 0)
(0 0.0115874 0)
(0 0.0111183 0)
(0 0.0113038 0)
(0 0.0108399 0)
(0 0.0110104 0)
(0 0.0105532 0)
(0 0.0107093 0)
(0 0.0102692 0)
(0 0.0103942 0)
(0 0.00991041 0)
(0 0.010915 0)
(0 0.0118246 0)
(0 0.0100684 0)
(0 0.0565652 0)
(0 0.0123814 0)
(0 0.0560682 0)
(0 0.0565618 0)
(0 0.0228464 0)
(0 0.0218669 0)
(0 0.0563347 0)
(0 0.0499733 0)
(0 0.0495356 0)
(0 0.0243924 0)
(0 0.0253449 0)
(0 0.0234335 0)
(0 0.0268627 0)
(0 0.0276482 0)
(0 0.0239967 0)
(0 0.0556234 0)
(0 0.0385772 0)
(0 0.0276769 0)
(0 0.0263187 0)
(0 0.00352428 0)
(0 0.00311334 0)
(0 0.00340335 0)
(0 0.00299086 0)
(0 0.00327734 0)
(0 0.0565598 0)
(0 0.0561138 0)
(0 0.0560756 0)
(0 0.0133369 0)
(0 0.0111607 0)
(0 0.0440982 0)
(0 0.0181464 0)
(0 0.0565683 0)
(0 0.056568 0)
(0 0.0565685 0)
(0 0.0550832 0)
(0 0.0550134 0)
(0 0.0349884 0)
(0 0.034827 0)
(0 0.0341734 0)
(0 0.0340261 0)
(0 0.033356 0)
(0 0.0332185 0)
(0 0.0338989 0)
(0 0.0330116 0)
(0 0.0324049 0)
(0 0.0423601 0)
(0 0.042985 0)
(0 0.0433904 0)
(0 0.0439903 0)
(0 0.0443596 0)
(0 0.0449216 0)
(0 0.0452577 0)
(0 0.0457864 0)
(0 0.0460779 0)
(0 0.0465898 0)
(0 0.0468398 0)
(0 0.0473348 0)
(0 0.0475497 0)
(0 0.0480262 0)
(0 0.0482225 0)
(0 0.0478117 0)
(0 0.0477455 0)
(0 0.0483961 0)
(0 0.0479157 0)
(0 0.0485494 0)
(0 0.0480616 0)
(0 0.0486865 0)
(0 0.0481847 0)
(0 0.0487887 0)
(0 0.0482904 0)
(0 0.0488669 0)
(0 0.0483862 0)
(0 0.0489393 0)
(0 0.048457 0)
(0 0.0489904 0)
(0 0.048501 0)
(0 0.0490139 0)
(0 0.0485209 0)
(0 0.0490221 0)
(0 0.0485244 0)
(0 0.0490086 0)
(0 0.0484743 0)
(0 0.0482653 0)
(0 0.049346 0)
(0 0.0490102 0)
(0 0.048513 0)
(0 0.0494913 0)
(0 0.0488978 0)
(0 0.0486943 0)
(0 0.0494643 0)
(0 0.0499282 0)
(0 0.0492994 0)
(0 0.049097 0)
(0 0.0498862 0)
(0 0.0480064 0)
(0 0.0479967 0)
(0 0.0478941 0)
(0 0.0484752 0)
(0 0.0488775 0)
(0 0.0496765 0)
(0 0.049864 0)
(0 0.0503311 0)
(0 0.0502748 0)
(0 0.0498283 0)
(0 0.0503741 0)
(0 0.0482314 0)
(0 0.0486371 0)
(0 0.0474679 0)
(0 0.0474555 0)
(0 0.0507575 0)
(0 0.0508031 0)
(0 0.0502209 0)
(0 0.0503893 0)
(0 0.0511626 0)
(0 0.0512034 0)
(0 0.0479622 0)
(0 0.048374 0)
(0 0.0490235 0)
(0 0.0487683 0)
(0 0.0480923 0)
(0 0.0484867 0)
(0 0.0494059 0)
(0 0.0477881 0)
(0 0.0481808 0)
(0 0.0502039 0)
(0 0.0497557 0)
(0 0.0475291 0)
(0 0.0507327 0)
(0 0.0508764 0)
(0 0.0474685 0)
(0 0.0478667 0)
(0 0.0485597 0)
(0 0.0482446 0)
(0 0.0489113 0)
(0 0.048588 0)
(0 0.0492427 0)
(0 0.0489187 0)
(0 0.0482451 0)
(0 0.0485837 0)
(0 0.0492488 0)
(0 0.0489135 0)
(0 0.0482368 0)
(0 0.0485691 0)
(0 0.0492029 0)
(0 0.0488793 0)
(0 0.0482132 0)
(0 0.0485456 0)
(0 0.0491892 0)
(0 0.0488766 0)
(0 0.0482101 0)
(0 0.0485166 0)
(0 0.0492516 0)
(0 0.0487945 0)
(0 0.0231501 0)
(0 0.0208787 0)
(0 0.0269507 0)
(0 0.0255328 0)
(0 0.0565199 0)
(0 0.0565152 0)
(0 0.0424848 0)
(0 0.0260531 0)
(0 0.0246113 0)
(0 0.0251366 0)
(0 0.0237003 0)
(0 0.0231277 0)
(0 0.0222152 0)
(0 0.0215779 0)
(0 0.0206676 0)
(0 0.0199613 0)
(0 0.0190572 0)
(0 0.0197701 0)
(0 0.0181672 0)
(0 0.0188841 0)
(0 0.0172838 0)
(0 0.0180132 0)
(0 0.0164209 0)
(0 0.0171615 0)
(0 0.015581 0)
(0 0.016329 0)
(0 0.0147605 0)
(0 0.0155116 0)
(0 0.0182961 0)
(0 0.0139617 0)
(0 0.0147116 0)
(0 0.0131857 0)
(0 0.0139377 0)
(0 0.012436 0)
(0 0.0131866 0)
(0 0.0156398 0)
(0 0.0117067 0)
(0 0.0124539 0)
(0 0.010997 0)
(0 0.0117405 0)
(0 0.0178483 0)
(0 0.0146295 0)
(0 0.0242574 0)
(0 0.0131579 0)
(0 0.0103073 0)
(0 0.0110467 0)
(0 0.0469109 0)
(0 0.0468962 0)
(0 0.0479779 0)
(0 0.0483696 0)
(0 0.0028635 0)
(0 0.00314539 0)
(0 0.025378 0)
(0 0.00273131 0)
(0 0.00300838 0)
(0 0.04907 0)
(0 0.048689 0)
(0 0.0479467 0)
(0 0.0482881 0)
(0 0.0490152 0)
(0 0.032239 0)
(0 0.03276 0)
(0 0.0315991 0)
(0 0.0237793 0)
(0 0.0247458 0)
(0 0.0272602 0)
(0 0.0256924 0)
(0 0.028111 0)
(0 0.0266139 0)
(0 0.0240602 0)
(0 0.0250256 0)
(0 0.0275214 0)
(0 0.0259701 0)
(0 0.0284094 0)
(0 0.0268832 0)
(0 0.0243302 0)
(0 0.0252616 0)
(0 0.0277705 0)
(0 0.0261774 0)
(0 0.0550934 0)
(0 0.0549377 0)
(0 0.0362652 0)
(0 0.0130765 0)
(0 0.0286317 0)
(0 0.0270697 0)
(0 0.0244861 0)
(0 0.0254078 0)
(0 0.0279423 0)
(0 0.0263185 0)
(0 0.0322907 0)
(0 0.0547341 0)
(0 0.0546344 0)
(0 0.05472 0)
(0 0.00747633 0)
(0 0.0555991 0)
(0 0.0124243 0)
(0 0.0117266 0)
(0 0.0103747 0)
(0 0.0110503 0)
(0 0.00972313 0)
(0 0.0103947 0)
(0 0.00909263 0)
(0 0.00976064 0)
(0 0.0110159 0)
(0 0.0103748 0)
(0 0.00915211 0)
(0 0.00975584 0)
(0 0.00857072 0)
(0 0.00917946 0)
(0 0.0109463 0)
(0 0.00801419 0)
(0 0.00862283 0)
(0 0.0123392 0)
(0 0.0334836 0)
(0 0.0331882 0)
(0 0.0221603 0)
(0 0.0474296 0)
(0 0.0468577 0)
(0 0.0473783 0)
(0 0.0392514 0)
(0 0.0282141 0)
(0 0.0157185 0)
(0 0.0354613 0)
(0 0.0445808 0)
(0 0.0411564 0)
(0 0.0414816 0)
(0 0.0407909 0)
(0 0.0410963 0)
(0 0.0467964 0)
(0 0.0472925 0)
(0 0.0550178 0)
(0 0.054855 0)
(0 0.0549344 0)
(0 0.0515447 0)
(0 0.0515746 0)
(0 0.0514979 0)
(0 0.0471444 0)
(0 0.00747669 0)
(0 0.00806883 0)
(0 0.00914114 0)
(0 0.00859949 0)
(0 0.00753279 0)
(0 0.00806683 0)
(0 0.00701502 0)
(0 0.00755704 0)
(0 0.0565335 0)
(0 0.0433271 0)
(0 0.00907875 0)
(0 0.00656338 0)
(0 0.00707844 0)
(0 0.0501184 0)
(0 0.0456855 0)
(0 0.0565651 0)
(0 0.00259503 0)
(0 0.0028673 0)
(0 0.00327714 0)
(0 0.00313045 0)
(0 0.00353695 0)
(0 0.00338393 0)
(0 0.00298043 0)
(0 0.0032274 0)
(0 0.00362727 0)
(0 0.00346344 0)
(0 0.00306785 0)
(0 0.00329643 0)
(0 0.00290578 0)
(0 0.0031269 0)
(0 0.00351312 0)
(0 0.00333544 0)
(0 0.00371728 0)
(0 0.00353066 0)
(0 0.00315589 0)
(0 0.00334204 0)
(0 0.00371182 0)
(0 0.00351367 0)
(0 0.00315211 0)
(0 0.00331437 0)
(0 0.00367088 0)
(0 0.00346141 0)
(0 0.00381325 0)
(0 0.00359263 0)
(0 0.00393982 0)
(0 0.00370757 0)
(0 0.00337092 0)
(0 0.00347423 0)
(0 0.00380578 0)
(0 0.00356038 0)
(0 0.00324068 0)
(0 0.003315 0)
(0 0.00362906 0)
(0 0.00337174 0)
(0 0.0036802 0)
(0 0.0034103 0)
(0 0.00371287 0)
(0 0.00311568 0)
(0 0.00342976 0)
(0 0.00372649 0)
(0 0.00342983 0)
(0 0.00372067 0)
(0 0.00341023 0)
(0 0.00369512 0)
(0 0.00313408 0)
(0 0.00337057 0)
(0 0.00364975 0)
(0 0.00399098 0)
(0 0.00394013 0)
(0 0.00358352 0)
(0 0.00386705 0)
(0 0.0042405 0)
(0 0.00416064 0)
(0 0.00377185 0)
(0 0.0040602 0)
(0 0.00399677 0)
(0 0.00446581 0)
(0 0.00436089 0)
(0 0.00296156 0)
(0 0.00393765 0)
(0 0.00423298 0)
(0 0.00467326 0)
(0 0.00454028 0)
(0 0.00408192 0)
(0 0.00438417 0)
(0 0.00485965 0)
(0 0.00469874 0)
(0 0.00519136 0)
(0 0.00502585 0)
(0 0.00451312 0)
(0 0.00483492 0)
(0 0.00417023 0)
(0 0.00536642 0)
(0 0.00517047 0)
(0 0.00461734 0)
(0 0.00494702 0)
(0 0.0055193 0)
(0 0.00529055 0)
(0 0.00469583 0)
(0 0.00503404 0)
(0 0.00564861 0)
(0 0.00538684 0)
(0 0.00602123 0)
(0 0.00575411 0)
(0 0.00509508 0)
(0 0.00545614 0)
(0 0.00613596 0)
(0 0.00583168 0)
(0 0.00512639 0)
(0 0.00549489 0)
(0 0.00622172 0)
(0 0.00587628 0)
(0 0.00662339 0)
(0 0.00626561 0)
(0 0.00549824 0)
(0 0.00587245 0)
(0 0.00664385 0)
(0 0.0270772 0)
(0 0.0288439 0)
(0 0.0295913 0)
(0 0.0305072 0)
(0 0.0311818 0)
(0 0.0469059 0)
(0 0.0563767 0)
(0 0.0517478 0)
(0 0.0565086 0)
(0 0.0565027 0)
(0 0.0204641 0)
(0 0.0403912 0)
(0 0.0406743 0)
(0 0.0269644 0)
(0 0.055148 0)
(0 0.0549982 0)
(0 0.0550634 0)
(0 0.0142812 0)
(0 0.0512014 0)
(0 0.0513304 0)
(0 0.0510787 0)
(0 0.0565691 0)
(0 0.0565689 0)
(0 0.0193764 0)
(0 0.049681 0)
(0 0.0372571 0)
(0 0.0364746 0)
(0 0.0463298 0)
(0 0.0463033 0)
(0 0.0510081 0)
(0 0.0514457 0)
(0 0.0511259 0)
(0 0.0515444 0)
(0 0.051231 0)
(0 0.0516287 0)
(0 0.0297786 0)
(0 0.0513101 0)
(0 0.0516995 0)
(0 0.0513666 0)
(0 0.0517549 0)
(0 0.0560545 0)
(0 0.0560122 0)
(0 0.0560341 0)
(0 0.0545276 0)