/*--------------------------------*- C++ -*----------------------------------*\
| =========                 |                                                 |
| \\      /  F ield         | OpenFOAM: The Open Source CFD Toolbox           |
|  \\    /   O peration     | Version:  v2012                                 |
|   \\  /    A nd           | Website:  www.openfoam.com                      |
|    \\/     M anipulation  |                                                 |
\*---------------------------------------------------------------------------*/
FoamFile
{
    version     2.0;
    format      ascii;
    class       pointVectorField;
    location    "1000";
    object      pointDisplacement;
}
// * * * * * * * * * * * * * * * * * * * * * * * * * * * * * * * * * * * * * //

dimensions      [0 1 0 0 0 0 0];


internalField   nonuniform List<vector> 
14332
(
(0 0 0)
(0 0.0692771 0)
(0 0 0)
(0 0.0692771 0)
(0 0 0)
(0 0 0)
(0 0 0)
(0 0 0)
(0 0 0)
(0 0 0)
(0 0 0)
(0 0 0)
(0 0 0)
(0 0 0)
(0 0 0)
(0 0 0)
(0 0 0)
(0 0 0)
(0 0 0)
(0 0 0)
(0 0 0)
(0 0 0)
(0 0 0)
(0 0 0)
(0 0 0)
(0 0 0)
(0 0 0)
(0 0 0)
(0 0 0)
(0 0 0)
(0 0 0)
(0 0 0)
(0 0 0)
(0 0 0)
(0 0 0)
(0 0 0)
(0 0 0)
(0 0 0)
(0 0 0)
(0 0 0)
(0 0 0)
(0 0 0)
(0 0 0)
(0 0 0)
(0 0 0)
(0 0 0)
(0 0 0)
(0 0 0)
(0 0 0)
(0 0 0)
(0 0 0)
(0 0 0)
(0 0 0)
(0 0 0)
(0 0 0)
(0 0 0)
(0 0 0)
(0 0 0)
(0 0 0)
(0 0 0)
(0 0 0)
(0 0 0)
(0 0 0)
(0 0 0)
(0 0 0)
(0 0 0)
(0 0 0)
(0 0 0)
(0 0 0)
(0 0 0)
(0 0 0)
(0 0 0)
(0 0 0)
(0 0 0)
(0 0 0)
(0 0 0)
(0 0 0)
(0 0 0)
(0 0 0)
(0 0 0)
(0 0 0)
(0 0 0)
(0 0 0)
(0 0 0)
(0 0 0)
(0 0 0)
(0 0 0)
(0 0 0)
(0 0 0)
(0 0 0)
(0 0 0)
(0 0 0)
(0 0 0)
(0 0 0)
(0 0 0)
(0 0 0)
(0 0 0)
(0 0 0)
(0 0 0)
(0 0 0)
(0 0 0)
(0 0 0)
(0 0 0)
(0 0 0)
(0 0 0)
(0 0 0)
(0 0 0)
(0 0 0)
(0 0 0)
(0 0 0)
(0 0 0)
(0 0 0)
(0 0 0)
(0 0 0)
(0 0 0)
(0 0 0)
(0 0 0)
(0 0 0)
(0 0 0)
(0 0 0)
(0 0 0)
(0 0 0)
(0 0 0)
(0 0 0)
(0 0 0)
(0 0 0)
(0 0 0)
(0 0 0)
(0 0 0)
(0 0 0)
(0 0 0)
(0 0 0)
(0 0 0)
(0 0 0)
(0 0.0692771 0)
(0 0.0692771 0)
(0 0.0692771 0)
(0 0.0692771 0)
(0 0.0692771 0)
(0 0.0692771 0)
(0 0.0692771 0)
(0 0.0692771 0)
(0 0.0692771 0)
(0 0.0692771 0)
(0 0.0692771 0)
(0 0.0692771 0)
(0 0.0692771 0)
(0 0.0692771 0)
(0 0.0692771 0)
(0 0.0692771 0)
(0 0.0692771 0)
(0 0.0692771 0)
(0 0.0692771 0)
(0 0.0692771 0)
(0 0.0692771 0)
(0 0.0692771 0)
(0 0.0692771 0)
(0 0.0692771 0)
(0 0.0692771 0)
(0 0.0692771 0)
(0 0.0692771 0)
(0 0.0692771 0)
(0 0.0692771 0)
(0 0.0692771 0)
(0 0.0692771 0)
(0 0.0692771 0)
(0 0.0692771 0)
(0 0.0692771 0)
(0 0.0692771 0)
(0 0.0692771 0)
(0 0.0692771 0)
(0 0.0692771 0)
(0 0.0692771 0)
(0 0.0692771 0)
(0 0.0692771 0)
(0 0.0692771 0)
(0 0.0692771 0)
(0 0.0692771 0)
(0 0.0692771 0)
(0 0 0)
(0 0 0)
(0 0 0)
(0 0 0)
(0 0 0)
(0 0 0)
(0 0 0)
(0 0 0)
(0 0 0)
(0 0 0)
(0 0 0)
(0 0 0)
(0 0 0)
(0 0 0)
(0 0 0)
(0 0 0)
(0 0 0)
(0 0 0)
(0 0 0)
(0 0 0)
(0 0 0)
(0 0 0)
(0 0 0)
(0 0 0)
(0 0 0)
(0 0 0)
(0 0 0)
(0 0 0)
(0 0 0)
(0 0 0)
(0 0 0)
(0 0 0)
(0 0 0)
(0 0 0)
(0 0 0)
(0 0 0)
(0 0 0)
(0 0 0)
(0 0 0)
(0 0 0)
(0 0 0)
(0 0 0)
(0 0 0)
(0 0 0)
(0 0 0)
(0 0 0)
(0 0 0)
(0 0 0)
(0 0 0)
(0 0 0)
(0 0 0)
(0 0 0)
(0 0 0)
(0 0 0)
(0 0 0)
(0 0 0)
(0 0 0)
(0 0 0)
(0 0 0)
(0 0 0)
(0 0 0)
(0 0 0)
(0 0 0)
(0 0 0)
(0 0 0)
(0 0 0)
(0 0 0)
(0 0 0)
(0 0 0)
(0 0 0)
(0 0 0)
(0 0 0)
(0 0 0)
(0 0 0)
(0 0 0)
(0 0 0)
(0 0 0)
(0 0 0)
(0 0 0)
(0 0 0)
(0 0 0)
(0 0 0)
(0 0 0)
(0 0 0)
(0 0 0)
(0 0 0)
(0 0 0)
(0 0 0)
(0 0 0)
(0 0 0)
(0 0 0)
(0 0 0)
(0 0 0)
(0 0 0)
(0 0 0)
(0 0 0)
(0 0 0)
(0 0 0)
(0 0 0)
(0 0 0)
(0 0 0)
(0 0 0)
(0 0 0)
(0 0 0)
(0 0 0)
(0 0 0)
(0 0 0)
(0 0 0)
(0 0 0)
(0 0 0)
(0 0 0)
(0 0 0)
(0 0 0)
(0 0 0)
(0 0 0)
(0 0 0)
(0 0 0)
(0 0 0)
(0 0 0)
(0 0 0)
(0 0 0)
(0 0 0)
(0 0 0)
(0 0 0)
(0 0 0)
(0 0 0)
(0 0 0)
(0 0 0)
(0 0 0)
(0 0 0)
(0 0.0692771 0)
(0 0.0692771 0)
(0 0.0692771 0)
(0 0.0692771 0)
(0 0.0692771 0)
(0 0.0692771 0)
(0 0.0692771 0)
(0 0.0692771 0)
(0 0.0692771 0)
(0 0.0692771 0)
(0 0.0692771 0)
(0 0.0692771 0)
(0 0.0692771 0)
(0 0.0692771 0)
(0 0.0692771 0)
(0 0.0692771 0)
(0 0.0692771 0)
(0 0.0692771 0)
(0 0.0692771 0)
(0 0.0692771 0)
(0 0.0692771 0)
(0 0.0692771 0)
(0 0.0692771 0)
(0 0.0692771 0)
(0 0.0692771 0)
(0 0.0692771 0)
(0 0.0692771 0)
(0 0.0692771 0)
(0 0.0692771 0)
(0 0.0692771 0)
(0 0.0692771 0)
(0 0.0692771 0)
(0 0.0692771 0)
(0 0.0692771 0)
(0 0.0692771 0)
(0 0.0692771 0)
(0 0.0692771 0)
(0 0.0692771 0)
(0 0.0692771 0)
(0 0.0692771 0)
(0 0.0692771 0)
(0 0.0692771 0)
(0 0.0692771 0)
(0 0.0692771 0)
(0 0.0692771 0)
(0 0.0692771 0)
(0 0.00229679 0)
(0 0.0692771 0)
(0 0.0692771 0)
(0 0.0692771 0)
(0 0.00263812 0)
(0 0.0692771 0)
(0 0.00185778 0)
(0 0.00115694 0)
(0 0.000505404 0)
(0 0.0039405 0)
(0 0.00082333 0)
(0 0.00134738 0)
(0 0.0692771 0)
(0 0.00374862 0)
(0 0.000558722 0)
(0 0.00421781 0)
(0 0.000553921 0)
(0 0.00482813 0)
(0 0.0692771 0)
(0 0.000490011 0)
(0 0.00051665 0)
(0 0.000328755 0)
(0 0.000320078 0)
(0 0.000261367 0)
(0 0.00211313 0)
(0 0.000882925 0)
(0 0.0692771 0)
(0 0.069277 0)
(0 0.0692771 0)
(0 0.00021972 0)
(0 0.000148556 0)
(0 0.00365825 0)
(0 0.00389948 0)
(0 0.00388772 0)
(0 0.0048804 0)
(0 0.00262147 0)
(0 0.00185886 0)
(0 0.0011945 0)
(0 0.000617976 0)
(0 0.000808696 0)
(0 0.000497332 0)
(0 0.00041922 0)
(0 0.000168766 0)
(0 0.0692771 0)
(0 0.0692771 0)
(0 8.9043e-05 0)
(0 8.56021e-05 0)
(0 0.00538974 0)
(0 0.00308088 0)
(0 0.00258527 0)
(0 0.00224358 0)
(0 0.00184723 0)
(0 0.00162664 0)
(0 0.000729122 0)
(0 0.000984201 0)
(0 0.00126696 0)
(0 0.000267768 0)
(0 0.000952073 0)
(0 0.000451347 0)
(0 0.000298889 0)
(0 0.000265642 0)
(0 0.000217254 0)
(0 0.00039299 0)
(0 4.29748e-05 0)
(0 0.0651084 0)
(0 0.0648779 0)
(0 0.0652239 0)
(0 0.0649845 0)
(0 0.0653219 0)
(0 0.0650734 0)
(0 0.0654019 0)
(0 0.0651458 0)
(0 0.0654691 0)
(0 0.0652011 0)
(0 0.0655174 0)
(0 0.0652386 0)
(0 0.0655488 0)
(0 0.0652597 0)
(0 0.0655662 0)
(0 0.0652678 0)
(0 0.0655663 0)
(0 0.0652693 0)
(0 0.0655443 0)
(0 0.0652386 0)
(0 0.0655041 0)
(0 0.0651593 0)
(0 0.065442 0)
(0 0.0650672 0)
(0 0.0653553 0)
(0 0.0649714 0)
(0 0.0652367 0)
(0 0.0648527 0)
(0 0.0651235 0)
(0 0.0647243 0)
(0 0.0650091 0)
(0 0.0645827 0)
(0 0.0648492 0)
(0 0.0644004 0)
(0 0.0646523 0)
(0 0.0641294 0)
(0 0.063919 0)
(0 0.0636409 0)
(0 0.0206192 0)
(0 0.0199742 0)
(0 0.0634099 0)
(0 0.0631206 0)
(0 0.0201418 0)
(0 0.0195254 0)
(0 0.0628689 0)
(0 0.0625667 0)
(0 0.0196881 0)
(0 0.0190687 0)
(0 0.0192361 0)
(0 0.0186099 0)
(0 0.0622901 0)
(0 0.0619799 0)
(0 0.0187508 0)
(0 0.0181425 0)
(0 0.0616741 0)
(0 0.0613499 0)
(0 0.0182507 0)
(0 0.0176609 0)
(0 0.0175455 0)
(0 0.0610118 0)
(0 0.0606678 0)
(0 0.0613691 0)
(0 0.0177421 0)
(0 0.0171686 0)
(0 0.060293 0)
(0 0.0599365 0)
(0 0.0172314 0)
(0 0.0177712 0)
(0 0.0166689 0)
(0 0.0658205 0)
(0 0.0650971 0)
(0 0.0648978 0)
(0 0.0653299 0)
(0 0.0651516 0)
(0 0.0655445 0)
(0 0.0653597 0)
(0 0.0657347 0)
(0 0.065531 0)
(0 0.0659098 0)
(0 0.0657039 0)
(0 0.0660713 0)
(0 0.0658578 0)
(0 0.0662216 0)
(0 0.0659958 0)
(0 0.0663503 0)
(0 0.0661225 0)
(0 0.0664595 0)
(0 0.0662387 0)
(0 0.0665626 0)
(0 0.06634 0)
(0 0.066652 0)
(0 0.0664257 0)
(0 0.0667291 0)
(0 0.0665 0)
(0 0.0661762 0)
(0 0.0662471 0)
(0 0.0665694 0)
(0 0.0663163 0)
(0 0.0666246 0)
(0 0.0663653 0)
(0 0.0666644 0)
(0 0.0664047 0)
(0 0.0667011 0)
(0 0.0664209 0)
(0 0.0667184 0)
(0 0.0664386 0)
(0 0.0667205 0)
(0 0.0664806 0)
(0 0.0667369 0)
(0 0.0664947 0)
(0 0.0667494 0)
(0 0.066486 0)
(0 0.0667389 0)
(0 0.0664666 0)
(0 0.0667169 0)
(0 0.0664429 0)
(0 0.0666969 0)
(0 0.0664166 0)
(0 0.0666753 0)
(0 0.0663869 0)
(0 0.0666449 0)
(0 0.0663515 0)
(0 0.0666088 0)
(0 0.0663126 0)
(0 0.065903 0)
(0 0.0661956 0)
(0 0.0661031 0)
(0 0.0664188 0)
(0 0.0167127 0)
(0 0.0161613 0)
(0 0.0595249 0)
(0 0.059166 0)
(0 0.0669051 0)
(0 0.0161848 0)
(0 0.0156452 0)
(0 0.0587126 0)
(0 0.0583537 0)
(0 0.0156474 0)
(0 0.0151228 0)
(0 0.0151087 0)
(0 0.0578615 0)
(0 0.0574984 0)
(0 0.015101 0)
(0 0.0145952 0)
(0 0.0670245 0)
(0 0.0569765 0)
(0 0.0565985 0)
(0 0.0572933 0)
(0 0.0669377 0)
(0 0.01455 0)
(0 0.0150044 0)
(0 0.0140646 0)
(0 0.0560431 0)
(0 0.0556551 0)
(0 0.0140049 0)
(0 0.0135324 0)
(0 0.0134609 0)
(0 0.0129991 0)
(0 0.0550638 0)
(0 0.0546688 0)
(0 0.0129205 0)
(0 0.0124654 0)
(0 0.0125315 0)
(0 0.0540353 0)
(0 0.0536294 0)
(0 0.0120127 0)
(0 0.0120745 0)
(0 0.0119316 0)
(0 0.0529623 0)
(0 0.0525667 0)
(0 0.0531808 0)
(0 0.0521494 0)
(0 0.0527476 0)
(0 0.0517225 0)
(0 0.0523281 0)
(0 0.0512698 0)
(0 0.0506181 0)
(0 0.050167 0)
(0 0.0507898 0)
(0 0.0497178 0)
(0 0.011491 0)
(0 0.0114013 0)
(0 0.0490143 0)
(0 0.0485718 0)
(0 0.0492754 0)
(0 0.0481207 0)
(0 0.064985 0)
(0 0.0109888 0)
(0 0.0108754 0)
(0 0.0488092 0)
(0 0.0476495 0)
(0 0.0469206 0)
(0 0.0464547 0)
(0 0.0471704 0)
(0 0.0459719 0)
(0 0.046668 0)
(0 0.0454673 0)
(0 0.0461316 0)
(0 0.0449427 0)
(0 0.0455841 0)
(0 0.0444058 0)
(0 0.0437235 0)
(0 0.0431985 0)
(0 0.0595683 0)
(0 0.0104423 0)
(0 0.0103487 0)
(0 0.0438624 0)
(0 0.0426671 0)
(0 0.0419603 0)
(0 0.0414401 0)
(0 0.042129 0)
(0 0.040912 0)
(0 0.0415811 0)
(0 0.0403752 0)
(0 0.00993058 0)
(0 0.00982713 0)
(0 0.0102655 0)
(0 0.039667 0)
(0 0.0391451 0)
(0 0.0398321 0)
(0 0.0386167 0)
(0 0.0392818 0)
(0 0.0380782 0)
(0 0.0387221 0)
(0 0.0375306 0)
(0 0.0381528 0)
(0 0.0369764 0)
(0 0.0363185 0)
(0 0.03578 0)
(0 0.0364194 0)
(0 0.0352413 0)
(0 0.00942186 0)
(0 0.00955609 0)
(0 0.00930535 0)
(0 0.0345633 0)
(0 0.0340437 0)
(0 0.0346995 0)
(0 0.0335192 0)
(0 0.0341494 0)
(0 0.0329871 0)
(0 0.0336088 0)
(0 0.0324512 0)
(0 0.031812 0)
(0 0.031293 0)
(0 0.0319034 0)
(0 0.0307675 0)
(0 0.0313467 0)
(0 0.0302388 0)
(0 0.0296206 0)
(0 0.0291185 0)
(0 0.0297107 0)
(0 0.0286147 0)
(0 0.0291757 0)
(0 0.028106 0)
(0 0.0089114 0)
(0 0.00878948 0)
(0 0.0275104 0)
(0 0.0270293 0)
(0 0.0275979 0)
(0 0.0265449 0)
(0 0.0270926 0)
(0 0.0260583 0)
(0 0.0265829 0)
(0 0.0255702 0)
(0 0.025018 0)
(0 0.024552 0)
(0 0.0250807 0)
(0 0.0240834 0)
(0 0.0245863 0)
(0 0.0236122 0)
(0 0.0230865 0)
(0 0.022639 0)
(0 0.0658068 0)
(0 0.0690005 0)
(0 0.0689525 0)
(0 0.0689794 0)
(0 0.068929 0)
(0 0.0689551 0)
(0 0.0688954 0)
(0 0.0689271 0)
(0 0.0688698 0)
(0 0.0688976 0)
(0 0.0688369 0)
(0 0.0688654 0)
(0 0.0689234 0)
(0 0.0688919 0)
(0 0.0689471 0)
(0 0.0689125 0)
(0 0.0689682 0)
(0 0.0689303 0)
(0 0.0689832 0)
(0 0.0689448 0)
(0 0.0689935 0)
(0 0.0689534 0)
(0 0.0690018 0)
(0 0.06896 0)
(0 0.0690075 0)
(0 0.0689076 0)
(0 0.0688071 0)
(0 0.0689637 0)
(0 0.06901 0)
(0 0.00841834 0)
(0 0.00828036 0)
(0 0.0688028 0)
(0 0.0467309 0)
(0 0.0220893 0)
(0 0.021666 0)
(0 0.0533421 0)
(0 0.0240894 0)
(0 0.0689653 0)
(0 0.0690093 0)
(0 0.0383961 0)
(0 0.0456825 0)
(0 0.00793311 0)
(0 0.007776 0)
(0 0.00814617 0)
(0 0.0522205 0)
(0 0.052577 0)
(0 0.0514054 0)
(0 0.0517445 0)
(0 0.0505156 0)
(0 0.0508418 0)
(0 0.0495479 0)
(0 0.0498461 0)
(0 0.0484898 0)
(0 0.0487505 0)
(0 0.0690447 0)
(0 0.0689623 0)
(0 0.069005 0)
(0 0.0210925 0)
(0 0.0206937 0)
(0 0.0656112 0)
(0 0.0393109 0)
(0 0.0473249 0)
(0 0.0475655 0)
(0 0.0490043 0)
(0 0.0477913 0)
(0 0.0492256 0)
(0 0.0479878 0)
(0 0.0494214 0)
(0 0.0481625 0)
(0 0.0495975 0)
(0 0.0483154 0)
(0 0.049748 0)
(0 0.0484377 0)
(0 0.0498702 0)
(0 0.0485262 0)
(0 0.0499662 0)
(0 0.0485892 0)
(0 0.0500298 0)
(0 0.0486223 0)
(0 0.0500622 0)
(0 0.0486243 0)
(0 0.0500652 0)
(0 0.0485944 0)
(0 0.0500378 0)
(0 0.0485361 0)
(0 0.0499782 0)
(0 0.0074354 0)
(0 0.00761567 0)
(0 0.00727269 0)
(0 0.0484518 0)
(0 0.0498907 0)
(0 0.0689541 0)
(0 0.0689969 0)
(0 0.0689079 0)
(0 0.0483392 0)
(0 0.0497739 0)
(0 0.0200978 0)
(0 0.0197243 0)
(0 0.0202937 0)
(0 0.019348 0)
(0 0.0481998 0)
(0 0.0496246 0)
(0 0.00694538 0)
(0 0.00677632 0)
(0 0.0460726 0)
(0 0.0689437 0)
(0 0.0689849 0)
(0 0.048016 0)
(0 0.0494395 0)
(0 0.051229 0)
(0 0.019891 0)
(0 0.0189669 0)
(0 0.0184061 0)
(0 0.0180475 0)
(0 0.047793 0)
(0 0.0492268 0)
(0 0.0690284 0)
(0 0.0513885 0)
(0 0.0174697 0)
(0 0.0171371 0)
(0 0.0475499 0)
(0 0.0489924 0)
(0 0.0505938 0)
(0 0.0503739 0)
(0 0.0487381 0)
(0 0.0501576 0)
(0 0.0484631 0)
(0 0.0498912 0)
(0 0.0481554 0)
(0 0.0495883 0)
(0 0.0689299 0)
(0 0.0689701 0)
(0 0.0690191 0)
(0 0.0690057 0)
(0 0.0689528 0)
(0 0.0689878 0)
(0 0.0690388 0)
(0 0.0690196 0)
(0 0.0689659 0)
(0 0.0689954 0)
(0 0.0690463 0)
(0 0.0690222 0)
(0 0.0690679 0)
(0 0.069046 0)
(0 0.0690872 0)
(0 0.0690667 0)
(0 0.0691029 0)
(0 0.0690838 0)
(0 0.0691169 0)
(0 0.0690982 0)
(0 0.0691306 0)
(0 0.0691105 0)
(0 0.0691407 0)
(0 0.0691207 0)
(0 0.0691484 0)
(0 0.0691293 0)
(0 0.0691553 0)
(0 0.0691361 0)
(0 0.0691615 0)
(0 0.0691428 0)
(0 0.0691667 0)
(0 0.0691492 0)
(0 0.0691712 0)
(0 0.0691542 0)
(0 0.0691751 0)
(0 0.0691587 0)
(0 0.0691788 0)
(0 0.0691629 0)
(0 0.0691822 0)
(0 0.0691662 0)
(0 0.0691844 0)
(0 0.069169 0)
(0 0.0691862 0)
(0 0.0691711 0)
(0 0.069188 0)
(0 0.0691728 0)
(0 0.0691521 0)
(0 0.0691366 0)
(0 0.0690999 0)
(0 0.0690469 0)
(0 0.0689394 0)
(0 0.0692031 0)
(0 0.0691966 0)
(0 0.0478141 0)
(0 0.0492293 0)
(0 0.0513017 0)
(0 0.0467988 0)
(0 0.00646941 0)
(0 0.00629884 0)
(0 0.047435 0)
(0 0.0488356 0)
(0 0.0185694 0)
(0 0.0199284 0)
(0 0.047026 0)
(0 0.0484449 0)
(0 0.069183 0)
(0 0.0165402 0)
(0 0.0162337 0)
(0 0.00600533 0)
(0 0.00583325 0)
(0 0.00609782 0)
(0 0.0470813 0)
(0 0.0691256 0)
(0 0.0690511 0)
(0 0.00555343 0)
(0 0.0057028 0)
(0 0.0156189 0)
(0 0.0153368 0)
(0 0.00537725 0)
(0 0.0469152 0)
(0 0.0648738 0)
(0 0.0147068 0)
(0 0.01445 0)
(0 0.0149594 0)
(0 0.0150505 0)
(0 0.0141879 0)
(0 0.0147599 0)
(0 0.0139204 0)
(0 0.00511374 0)
(0 0.00493657 0)
(0 0.0144646 0)
(0 0.0136481 0)
(0 0.013092 0)
(0 0.0128429 0)
(0 0.0458522 0)
(0 0.0445225 0)
(0 0.0443258 0)
(0 0.0429117 0)
(0 0.0427225 0)
(0 0.0412252 0)
(0 0.041044 0)
(0 0.0462905 0)
(0 0.0622671 0)
(0 0.0669366 0)
(0 0.0394857 0)
(0 0.0393193 0)
(0 0.0122753 0)
(0 0.0120495 0)
(0 0.0125891 0)
(0 0.0118186 0)
(0 0.0463485 0)
(0 0.00468785 0)
(0 0.00451114 0)
(0 0.0112688 0)
(0 0.0110605 0)
(0 0.0204691 0)
(0 0.0377084 0)
(0 0.0375582 0)
(0 0.0378565 0)
(0 0.0140317 0)
(0 0.0142522 0)
(0 0.0123318 0)
(0 0.00427488 0)
(0 0.00410142 0)
(0 0.00430031 0)
(0 0.0105016 0)
(0 0.0103154 0)
(0 0.0358714 0)
(0 0.0357491 0)
(0 0.0655763 0)
(0 0.0133096 0)
(0 0.013495 0)
(0 0.00387725 0)
(0 0.00403913 0)
(0 0.00369789 0)
(0 0.00974885 0)
(0 0.00958441 0)
(0 0.0561152 0)
(0 0.0556568 0)
(0 0.0563277 0)
(0 0.055854 0)
(0 0.0565133 0)
(0 0.0560278 0)
(0 0.0567587 0)
(0 0.0561733 0)
(0 0.0568295 0)
(0 0.056262 0)
(0 0.0568989 0)
(0 0.0563235 0)
(0 0.0556169 0)
(0 0.0569428 0)
(0 0.0563542 0)
(0 0.0569575 0)
(0 0.0563323 0)
(0 0.056938 0)
(0 0.0575697 0)
(0 0.0562807 0)
(0 0.057542 0)
(0 0.0581651 0)
(0 0.0581268 0)
(0 0.0587399 0)
(0 0.0339824 0)
(0 0.0338935 0)
(0 0.0659151 0)
(0 0.0691662 0)
(0 0.0509447 0)
(0 0.00345555 0)
(0 0.00331044 0)
(0 0.0125399 0)
(0 0.0126895 0)
(0 0.00901175 0)
(0 0.00886869 0)
(0 0.00941282 0)
(0 0.0087173 0)
(0 0.00914664 0)
(0 0.00923359 0)
(0 0.00855795 0)
(0 0.00803785 0)
(0 0.00789835 0)
(0 0.0571003 0)
(0 0.00904697 0)
(0 0.0685369 0)
(0 0.0684371 0)
(0 0.0685252 0)
(0 0.0586921 0)
(0 0.0592948 0)
(0 0.0275776 0)
(0 0.0347578 0)
(0 0.013363 0)
(0 0.0188865 0)
(0 0.0264021 0)
(0 0.0580633 0)
(0 0.0344413 0)
(0 0.0285337 0)
(0 0.0257584 0)
(0 0.0333296 0)
(0 0.0519039 0)
(0 0.0320519 0)
(0 0.0319981 0)
(0 0.0337809 0)
(0 0.031922 0)
(0 0.033652 0)
(0 0.0318252 0)
(0 0.0335011 0)
(0 0.0316967 0)
(0 0.0333261 0)
(0 0.0315414 0)
(0 0.0298514 0)
(0 0.0297241 0)
(0 0.0313836 0)
(0 0.0295963 0)
(0 0.0320796 0)
(0 0.0651032 0)
(0 0.0300744 0)
(0 0.0556758 0)
(0 0.055588 0)
(0 0.0549679 0)
(0 0.054853 0)
(0 0.0542174 0)
(0 0.00719997 0)
(0 0.00770907 0)
(0 0.00734683 0)
(0 0.0068406 0)
(0 0.00697774 0)
(0 0.00748033 0)
(0 0.0071017 0)
(0 0.00660287 0)
(0 0.00671833 0)
(0 0.00759948 0)
(0 0.00622295 0)
(0 0.00633095 0)
(0 0.00583881 0)
(0 0.0059403 0)
(0 0.00642569 0)
(0 0.00602841 0)
(0 0.005725 0)
(0 0.00650607 0)
(0 0.00610246 0)
(0 0.00309655 0)
(0 0.00562962 0)
(0 0.00569829 0)
(0 0.00294769 0)
(0 0.00311377 0)
(0 0.0278731 0)
(0 0.0277824 0)
(0 0.0294542 0)
(0 0.0276753 0)
(0 0.0660513 0)
(0 0.045088 0)
(0 0.0662084 0)
(0 0.0660469 0)
(0 0.0647189 0)
(0 0.068423 0)
(0 0.0685124 0)
(0 0.00737507 0)
(0 0.00725503 0)
(0 0.0646215 0)
(0 0.011722 0)
(0 0.0118406 0)
(0 0.0686065 0)
(0 0.0685938 0)
(0 0.0684985 0)
(0 0.0685797 0)
(0 0.0684829 0)
(0 0.0685656 0)
(0 0.0684636 0)
(0 0.0685477 0)
(0 0.0684382 0)
(0 0.0685253 0)
(0 0.0688674 0)
(0 0.0292943 0)
(0 0.0275494 0)
(0 0.0592375 0)
(0 0.0598292 0)
(0 0.0258804 0)
(0 0.0257917 0)
(0 0.027411 0)
(0 0.0256836 0)
(0 0.0272563 0)
(0 0.0255575 0)
(0 0.0270911 0)
(0 0.0254209 0)
(0 0.0238491 0)
(0 0.023749 0)
(0 0.0252724 0)
(0 0.0236337 0)
(0 0.0684107 0)
(0 0.0685001 0)
(0 0.00657134 0)
(0 0.00275948 0)
(0 0.00289858 0)
(0 0.0128293 0)
(0 0.0119494 0)
(0 0.0129577 0)
(0 0.0120398 0)
(0 0.0130801 0)
(0 0.012115 0)
(0 0.0131942 0)
(0 0.00523016 0)
(0 0.0052945 0)
(0 0.0121775 0)
(0 0.0132924 0)
(0 0.0251074 0)
(0 0.0235002 0)
(0 0.0220118 0)
(0 0.0218941 0)
(0 0.0233533 0)
(0 0.02178 0)
(0 0.0231927 0)
(0 0.021655 0)
(0 0.0230178 0)
(0 0.0215147 0)
(0 0.0201171 0)
(0 0.0200135 0)
(0 0.0213626 0)
(0 0.0198967 0)
(0 0.0211983 0)
(0 0.0197663 0)
(0 0.00259876 0)
(0 0.0184398 0)
(0 0.018343 0)
(0 0.0196231 0)
(0 0.0182324 0)
(0 0.0540861 0)
(0 0.0534441 0)
(0 0.0553599 0)
(0 0.0122287 0)
(0 0.00672979 0)
(0 0.00662885 0)
(0 0.00712581 0)
(0 0.00651797 0)
(0 0.00698726 0)
(0 0.00639754 0)
(0 0.0597598 0)
(0 0.00592829 0)
(0 0.00582552 0)
(0 0.0656108 0)
(0 0.0603433 0)
(0 0.0603947 0)
(0 0.0679148 0)
(0 0.0677457 0)
(0 0.0678362 0)
(0 0.0676625 0)
(0 0.0677527 0)
(0 0.0686803 0)
(0 0.0240792 0)
(0 0.0692588 0)
(0 0.069251 0)
(0 0.0692554 0)
(0 0.069248 0)
(0 0.0692524 0)
(0 0.0692448 0)
(0 0.0692495 0)
(0 0.0692407 0)
(0 0.069246 0)
(0 0.0692357 0)
(0 0.0692412 0)
(0 0.0692506 0)
(0 0.0692459 0)
(0 0.0692543 0)
(0 0.0692498 0)
(0 0.0692299 0)
(0 0.0692573 0)
(0 0.0692532 0)
(0 0.0692446 0)
(0 0.0692481 0)
(0 0.0692569 0)
(0 0.0692509 0)
(0 0.0692417 0)
(0 0.0692447 0)
(0 0.0692532 0)
(0 0.0692472 0)
(0 0.0692551 0)
(0 0.069249 0)
(0 0.0692565 0)
(0 0.06925 0)
(0 0.0692572 0)
(0 0.0692503 0)
(0 0.0692572 0)
(0 0.0692499 0)
(0 0.0692565 0)
(0 0.0692354 0)
(0 0.0692581 0)
(0 0.0692491 0)
(0 0.0692549 0)
(0 0.0692416 0)
(0 0.0692413 0)
(0 0.0692343 0)
(0 0.0683781 0)
(0 0.0684708 0)
(0 0.0194593 0)
(0 0.0169273 0)
(0 0.0108705 0)
(0 0.00483109 0)
(0 0.00489197 0)
(0 0.00534502 0)
(0 0.00493925 0)
(0 0.0407642 0)
(0 0.0675656 0)
(0 0.0024348 0)
(0 0.00227223 0)
(0 0.0203446 0)
(0 0.0686539 0)
(0 0.068382 0)
(0 0.068345 0)
(0 0.0684389 0)
(0 0.0602638 0)
(0 0.0596579 0)
(0 0.00683985 0)
(0 0.067476 0)
(0 0.00538088 0)
(0 0.00497224 0)
(0 0.00453645 0)
(0 0.00456768 0)
(0 0.069247 0)
(0 0.0692525 0)
(0 0.0683132 0)
(0 0.0684028 0)
(0 0.0682743 0)
(0 0.0683603 0)
(0 0.0608953 0)
(0 0.0609288 0)
(0 0.0574712 0)
(0 0.0053571 0)
(0 0.00527175 0)
(0 0.0168516 0)
(0 0.0155185 0)
(0 0.0532925 0)
(0 0.0526509 0)
(0 0.0528001 0)
(0 0.0519999 0)
(0 0.0521409 0)
(0 0.051338 0)
(0 0.0514724 0)
(0 0.0506586 0)
(0 0.0507899 0)
(0 0.0499892 0)
(0 0.050079 0)
(0 0.049306 0)
(0 0.0493526 0)
(0 0.0485635 0)
(0 0.0486184 0)
(0 0.0478145 0)
(0 0.0478759 0)
(0 0.0470762 0)
(0 0.0539249 0)
(0 0.0471224 0)
(0 0.0463267 0)
(0 0.0477031 0)
(0 0.0463588 0)
(0 0.0455687 0)
(0 0.0455052 0)
(0 0.0447515 0)
(0 0.0448026 0)
(0 0.0439906 0)
(0 0.0501426 0)
(0 0.0497603 0)
(0 0.0440286 0)
(0 0.0432222 0)
(0 0.0431589 0)
(0 0.0423958 0)
(0 0.0424493 0)
(0 0.0416327 0)
(0 0.0416733 0)
(0 0.0408672 0)
(0 0.0408947 0)
(0 0.0400925 0)
(0 0.0401089 0)
(0 0.0393135 0)
(0 0.0392713 0)
(0 0.0385011 0)
(0 0.0385386 0)
(0 0.0377346 0)
(0 0.0376664 0)
(0 0.0369086 0)
(0 0.0415504 0)
(0 0.0369712 0)
(0 0.0361552 0)
(0 0.0360624 0)
(0 0.0353225 0)
(0 0.0354015 0)
(0 0.0345829 0)
(0 0.0346461 0)
(0 0.0338433 0)
(0 0.0338919 0)
(0 0.0331047 0)
(0 0.0331399 0)
(0 0.0323678 0)
(0 0.0323899 0)
(0 0.0316332 0)
(0 0.0107719 0)
(0 0.0350772 0)
(0 0.00991531 0)
(0 0.0679175 0)
(0 0.0678327 0)
(0 0.00413753 0)
(0 0.00416797 0)
(0 0.0682264 0)
(0 0.0683125 0)
(0 0.0673714 0)
(0 0.0250381 0)
(0 0.0245186 0)
(0 0.0254418 0)
(0 0.0249006 0)
(0 0.0257982 0)
(0 0.0252362 0)
(0 0.0685794 0)
(0 0.00534337 0)
(0 0.00522374 0)
(0 0.00484378 0)
(0 0.00471861 0)
(0 0.0068211 0)
(0 0.00617484 0)
(0 0.0062359 0)
(0 0.0337523 0)
(0 0.0111105 0)
(0 0.00211632 0)
(0 0.00196499 0)
(0 0.00209118 0)
(0 0.0287621 0)
(0 0.0692599 0)
(0 0.0692575 0)
(0 0.0692485 0)
(0 0.0692548 0)
(0 0.0692614 0)
(0 0.0692584 0)
(0 0.0692641 0)
(0 0.0692613 0)
(0 0.0692661 0)
(0 0.0692636 0)
(0 0.0692676 0)
(0 0.0692653 0)
(0 0.0692689 0)
(0 0.0692667 0)
(0 0.0692699 0)
(0 0.0692678 0)
(0 0.069264 0)
(0 0.0692653 0)
(0 0.0692688 0)
(0 0.0692664 0)
(0 0.0692695 0)
(0 0.0692674 0)
(0 0.0692702 0)
(0 0.0692682 0)
(0 0.0692708 0)
(0 0.0692689 0)
(0 0.0692713 0)
(0 0.0692695 0)
(0 0.0692717 0)
(0 0.0692699 0)
(0 0.069272 0)
(0 0.0692703 0)
(0 0.0692723 0)
(0 0.0692707 0)
(0 0.0692726 0)
(0 0.0692711 0)
(0 0.0692729 0)
(0 0.0692714 0)
(0 0.0692692 0)
(0 0.0692696 0)
(0 0.0692717 0)
(0 0.06927 0)
(0 0.069272 0)
(0 0.0692703 0)
(0 0.0692722 0)
(0 0.0692706 0)
(0 0.0692672 0)
(0 0.0692677 0)
(0 0.069266 0)
(0 0.0692609 0)
(0 0.0692517 0)
(0 0.00984033 0)
(0 0.0679869 0)
(0 0.0679034 0)
(0 0.0677382 0)
(0 0.0678084 0)
(0 0.0679682 0)
(0 0.0678702 0)
(0 0.0680256 0)
(0 0.0679235 0)
(0 0.068074 0)
(0 0.0679685 0)
(0 0.0681145 0)
(0 0.0680046 0)
(0 0.0681471 0)
(0 0.0680331 0)
(0 0.0678798 0)
(0 0.0679043 0)
(0 0.0680537 0)
(0 0.0679213 0)
(0 0.0680671 0)
(0 0.0679304 0)
(0 0.068074 0)
(0 0.0679307 0)
(0 0.0680709 0)
(0 0.067786 0)
(0 0.0677622 0)
(0 0.0677418 0)
(0 0.0679224 0)
(0 0.0680577 0)
(0 0.0315808 0)
(0 0.0308666 0)
(0 0.0309021 0)
(0 0.0301582 0)
(0 0.0611316 0)
(0 0.0679039 0)
(0 0.0680359 0)
(0 0.00540145 0)
(0 0.0616558 0)
(0 0.0692615 0)
(0 0.0683266 0)
(0 0.0614128 0)
(0 0.0520701 0)
(0 0.0601521 0)
(0 0.0595225 0)
(0 0.0531014 0)
(0 0.0537209 0)
(0 0.0692734 0)
(0 0.0245213 0)
(0 0.0154833 0)
(0 0.0672748 0)
(0 0.00480516 0)
(0 0.00473706 0)
(0 0.00517615 0)
(0 0.00465792 0)
(0 0.0684804 0)
(0 0.0692724 0)
(0 0.0671622 0)
(0 0.0301745 0)
(0 0.0294386 0)
(0 0.00897546 0)
(0 0.00892936 0)
(0 0.0141234 0)
(0 0.0141131 0)
(0 0.00422187 0)
(0 0.00415907 0)
(0 0.00456812 0)
(0 0.00408484 0)
(0 0.00180629 0)
(0 0.0019416 0)
(0 0.0678756 0)
(0 0.0680065 0)
(0 0.0677345 0)
(0 0.0681571 0)
(0 0.0681264 0)
(0 0.0679697 0)
(0 0.0680884 0)
(0 0.069274 0)
(0 0.0231153 0)
(0 0.00433952 0)
(0 0.00420941 0)
(0 0.00558967 0)
(0 0.00561926 0)
(0 0.0492626 0)
(0 0.0243608 0)
(0 0.0246762 0)
(0 0.023822 0)
(0 0.0241181 0)
(0 0.0232835 0)
(0 0.0235608 0)
(0 0.0227461 0)
(0 0.0230046 0)
(0 0.0222097 0)
(0 0.0224494 0)
(0 0.0216747 0)
(0 0.0218967 0)
(0 0.0211426 0)
(0 0.0226485 0)
(0 0.022079 0)
(0 0.0228073 0)
(0 0.0222224 0)
(0 0.0229271 0)
(0 0.0235308 0)
(0 0.0236258 0)
(0 0.0230085 0)
(0 0.0134295 0)
(0 0.012883 0)
(0 0.013039 0)
(0 0.0124378 0)
(0 0.0126389 0)
(0 0.012092 0)
(0 0.0122502 0)
(0 0.0117211 0)
(0 0.0118482 0)
(0 0.0113266 0)
(0 0.0114361 0)
(0 0.00374357 0)
(0 0.0037741 0)
(0 0.00369944 0)
(0 0.00418399 0)
(0 0.00379026 0)
(0 0.00165861 0)
(0 0.0631521 0)
(0 0.068172 0)
(0 0.0682606 0)
(0 0.0681953 0)
(0 0.0613012 0)
(0 0.0618143 0)
(0 0.0607723 0)
(0 0.0294501 0)
(0 0.0681738 0)
(0 0.0236822 0)
(0 0.068236 0)
(0 0.0682723 0)
(0 0.0528661 0)
(0 0.0534732 0)
(0 0.0141265 0)
(0 0.015423 0)
(0 0.0479016 0)
(0 0.0692683 0)
(0 0.00458359 0)
(0 0.00407012 0)
(0 0.00443876 0)
(0 0.00392217 0)
(0 0.00428649 0)
(0 0.00805465 0)
(0 0.00804001 0)
(0 0.00813561 0)
(0 0.023052 0)
(0 0.00338715 0)
(0 0.00340479 0)
(0 0.00379158 0)
(0 0.00340781 0)
(0 0.0139895 0)
(0 0.0679226 0)
(0 0.0287313 0)
(0 0.0287227 0)
(0 0.0307887 0)
(0 0.0208988 0)
(0 0.0203866 0)
(0 0.0109147 0)
(0 0.0110187 0)
(0 0.0201215 0)
(0 0.0196293 0)
(0 0.0198764 0)
(0 0.0191389 0)
(0 0.0193679 0)
(0 0.0186495 0)
(0 0.0184012 0)
(0 0.0179314 0)
(0 0.018162 0)
(0 0.0174634 0)
(0 0.0172146 0)
(0 0.0167662 0)
(0 0.0164989 0)
(0 0.0160711 0)
(0 0.0176764 0)
(0 0.00368023 0)
(0 0.00362123 0)
(0 0.014297 0)
(0 0.00152136 0)
(0 0.0346661 0)
(0 0.0127429 0)
(0 0.0692716 0)
(0 0.0416797 0)
(0 0.0144331 0)
(0 0.0127834 0)
(0 0.060931 0)
(0 0.0600091 0)
(0 0.0606293 0)
(0 0.0593563 0)
(0 0.0314347 0)
(0 0.0681113 0)
(0 0.00138684 0)
(0 0.0681963 0)
(0 0.0683355 0)
(0 0.0682081 0)
(0 0.0670597 0)
(0 0.0669391 0)
(0 0.0119588 0)
(0 0.0152888 0)
(0 0.00971792 0)
(0 0.00950483 0)
(0 0.0101702 0)
(0 0.00993185 0)
(0 0.0105908 0)
(0 0.0103286 0)
(0 0.0109802 0)
(0 0.0106955 0)
(0 0.0113388 0)
(0 0.0100621 0)
(0 0.0533143 0)
(0 0.00446752 0)
(0 0.00383055 0)
(0 0.0157835 0)
(0 0.0153831 0)
(0 0.00302831 0)
(0 0.00303388 0)
(0 0.010484 0)
(0 0.0105849 0)
(0 0.0431045 0)
(0 0.0604788 0)
(0 0.061087 0)
(0 0.0194513 0)
(0 0.0197936 0)
(0 0.0237013 0)
(0 0.00497407 0)
(0 0.00497125 0)
(0 0.0525881 0)
(0 0.0519809 0)
(0 0.0531847 0)
(0 0.0540629 0)
(0 0.0230579 0)
(0 0.0224274 0)
(0 0.0103789 0)
(0 0.00322174 0)
(0 0.00317775 0)
(0 0.0614305 0)
(0 0.0618998 0)
(0 0.00714767 0)
(0 0.00717271 0)
(0 0.0156477 0)
(0 0.0149971 0)
(0 0.0609616 0)
(0 0.0110332 0)
(0 0.0100644 0)
(0 0.0101492 0)
(0 0.00965387 0)
(0 0.00971647 0)
(0 0.0603912 0)
(0 0.0147145 0)
(0 0.0243584 0)
(0 0.0692608 0)
(0 0.0113762 0)
(0 0.0114557 0)
(0 0.0116671 0)
(0 0.00889991 0)
(0 0.00377758 0)
(0 0.0249491 0)
(0 0.00126445 0)
(0 0.0615984 0)
(0 0.0610268 0)
(0 0.061773 0)
(0 0.0612036 0)
(0 0.0619317 0)
(0 0.0613639 0)
(0 0.0620797 0)
(0 0.0615133 0)
(0 0.0622108 0)
(0 0.0616499 0)
(0 0.0623263 0)
(0 0.0617728 0)
(0 0.0624299 0)
(0 0.0618774 0)
(0 0.0625194 0)
(0 0.0619653 0)
(0 0.061299 0)
(0 0.0613699 0)
(0 0.0620414 0)
(0 0.0614138 0)
(0 0.0620985 0)
(0 0.0614726 0)
(0 0.0621005 0)
(0 0.0615042 0)
(0 0.0620947 0)
(0 0.0615224 0)
(0 0.0621292 0)
(0 0.061536 0)
(0 0.0621568 0)
(0 0.0615311 0)
(0 0.0621599 0)
(0 0.061502 0)
(0 0.0608448 0)
(0 0.0608078 0)
(0 0.0614563 0)
(0 0.0607547 0)
(0 0.0613888 0)
(0 0.0606806 0)
(0 0.061304 0)
(0 0.0605855 0)
(0 0.0606077 0)
(0 0.060852 0)
(0 0.0607647 0)
(0 0.0601146 0)
(0 0.0611984 0)
(0 0.0604692 0)
(0 0.0598212 0)
(0 0.059699 0)
(0 0.059004 0)
(0 0.05888 0)
(0 0.0619842 0)
(0 0.0610683 0)
(0 0.0627607 0)
(0 0.0624661 0)
(0 0.0581385 0)
(0 0.0580098 0)
(0 0.058738 0)
(0 0.0578601 0)
(0 0.0626752 0)
(0 0.0629164 0)
(0 0.0585754 0)
(0 0.0576887 0)
(0 0.0582501 0)
(0 0.0573346 0)
(0 0.0574335 0)
(0 0.00115117 0)
(0 0.00126476 0)
(0 0.00563717 0)
(0 0.00495557 0)
(0 0.00564258 0)
(0 0.00492628 0)
(0 0.0682935 0)
(0 0.0684256 0)
(0 0.0684576 0)
(0 0.00395659 0)
(0 0.00266151 0)
(0 0.00267065 0)
(0 0.0115773 0)
(0 0.0294233 0)
(0 0.0286821 0)
(0 0.0537603 0)
(0 0.0546094 0)
(0 0.00344706 0)
(0 0.00357041 0)
(0 0.0522491 0)
(0 0.0619011 0)
(0 0.0623577 0)
(0 0.0623537 0)
(0 0.0587597 0)
(0 0.0280575 0)
(0 0.0286352 0)
(0 0.00340108 0)
(0 0.0627968 0)
(0 0.0627845 0)
(0 0.0627886 0)
(0 0.0680137 0)
(0 0.0679453 0)
(0 0.00922608 0)
(0 0.00927701 0)
(0 0.00975485 0)
(0 0.00930731 0)
(0 0.0516689 0)
(0 0.0510704 0)
(0 0.00581646 0)
(0 0.00582455 0)
(0 0.00624622 0)
(0 0.00624191 0)
(0 0.00667062 0)
(0 0.0058157 0)
(0 0.00278416 0)
(0 0.00275503 0)
(0 0.0031216 0)
(0 0.0027131 0)
(0 0.00280071 0)
(0 0.0113404 0)
(0 0.0119646 0)
(0 0.00563486 0)
(0 0.00488276 0)
(0 0.0236813 0)
(0 0.0230265 0)
(0 0.0152225 0)
(0 0.0583933 0)
(0 0.0574979 0)
(0 0.0567497 0)
(0 0.0592323 0)
(0 0.011641 0)
(0 0.0100292 0)
(0 0.010148 0)
(0 0.00989117 0)
(0 0.0680388 0)
(0 0.00230543 0)
(0 0.00231923 0)
(0 0.00266538 0)
(0 0.00231883 0)
(0 0.0161954 0)
(0 0.00626383 0)
(0 0.0671732 0)
(0 0.0669521 0)
(0 0.0670628 0)
(0 0.00102763 0)
(0 0.00112417 0)
(0 0.0609299 0)
(0 0.0615256 0)
(0 0.0588599 0)
(0 0.058666 0)
(0 0.000924757 0)
(0 0.00305306 0)
(0 0.00265849 0)
(0 0.00232587 0)
(0 0.00228489 0)
(0 0.00227803 0)
(0 0.0683825 0)
(0 0.0685053 0)
(0 0.00432831 0)
(0 0.00435153 0)
(0 0.00621919 0)
(0 0.00578956 0)
(0 0.0187537 0)
(0 0.019069 0)
(0 0.0201336 0)
(0 0.0193814 0)
(0 0.0204667 0)
(0 0.0196799 0)
(0 0.0207936 0)
(0 0.0199674 0)
(0 0.0211162 0)
(0 0.0202509 0)
(0 0.0214315 0)
(0 0.00883812 0)
(0 0.00885959 0)
(0 0.0605362 0)
(0 0.00306014 0)
(0 0.00318253 0)
(0 0.00293044 0)
(0 0.0543102 0)
(0 0.0690889 0)
(0 0.0565526 0)
(0 0.0557559 0)
(0 0.0668335 0)
(0 0.0669376 0)
(0 0.0690039 0)
(0 0.067004 0)
(0 0.0599845 0)
(0 0.0293516 0)
(0 0.0691483 0)
(0 0.0224503 0)
(0 0.069263 0)
(0 0.0690447 0)
(0 0.011621 0)
(0 0.0110053 0)
(0 0.0534158 0)
(0 0.0097721 0)
(0 0.0564633 0)
(0 0.0565532 0)
(0 0.0691901 0)
(0 0.0667641 0)
(0 0.0692735 0)
(0 0.0692 0)
(0 0.00264507 0)
(0 0.00230352 0)
(0 0.00198594 0)
(0 0.00197658 0)
(0 0.0655092 0)
(0 0.0669607 0)
(0 0.0669683 0)
(0 0.0692714 0)
(0 0.065894 0)
(0 0.066848 0)
(0 0.0115187 0)
(0 0.0102406 0)
(0 0.008864 0)
(0 0.00898934 0)
(0 0.0205303 0)
(0 0.0217436 0)
(0 0.019328 0)
(0 0.0671838 0)
(0 0.0690451 0)
(0 0.0509689 0)
(0 0.0627307 0)
(0 0.0514208 0)
(0 0.0581597 0)
(0 0.0579383 0)
(0 0.0584344 0)
(0 0.0576778 0)
(0 0.0570465 0)
(0 0.0682014 0)
(0 0.000811578 0)
(0 0.068463 0)
(0 0.0286107 0)
(0 0.0123005 0)
(0 0.0681136 0)
(0 0.0549654 0)
(0 0.0590437 0)
(0 0.0598399 0)
(0 0.06857 0)
(0 0.0686053 0)
(0 0.0683921 0)
(0 0.0692632 0)
(0 0.0692659 0)
(0 0.0692677 0)
(0 0.0692697 0)
(0 0.069271 0)
(0 0.0692724 0)
(0 0.0692734 0)
(0 0.0692713 0)
(0 0.0692736 0)
(0 0.0692726 0)
(0 0.0692744 0)
(0 0.0692736 0)
(0 0.069272 0)
(0 0.0692741 0)
(0 0.0692751 0)
(0 0.0692728 0)
(0 0.0692747 0)
(0 0.0692735 0)
(0 0.0692751 0)
(0 0.0692744 0)
(0 0.0149669 0)
(0 0.0157629 0)
(0 0.0617664 0)
(0 0.061623 0)
(0 0.0622864 0)
(0 0.0621343 0)
(0 0.0627613 0)
(0 0.0626005 0)
(0 0.0629086 0)
(0 0.00370887 0)
(0 0.00375206 0)
(0 0.0632112 0)
(0 0.0631824 0)
(0 0.068234 0)
(0 0.000719617 0)
(0 0.035416 0)
(0 0.0263618 0)
(0 0.0266915 0)
(0 0.027276 0)
(0 0.0601141 0)
(0 0.0138295 0)
(0 0.0301003 0)
(0 0.00697989 0)
(0 0.0310204 0)
(0 0.0690042 0)
(0 0.0242479 0)
(0 0.0208313 0)
(0 0.0102268 0)
(0 0.0267354 0)
(0 0.0226313 0)
(0 0.00798256 0)
(0 0.0627495 0)
(0 0.0631283 0)
(0 0.00495447 0)