/*--------------------------------*- C++ -*----------------------------------*\
| =========                 |                                                 |
| \\      /  F ield         | OpenFOAM: The Open Source CFD Toolbox           |
|  \\    /   O peration     | Version:  v2012                                 |
|   \\  /    A nd           | Website:  www.openfoam.com                      |
|    \\/     M anipulation  |                                                 |
\*---------------------------------------------------------------------------*/
FoamFile
{
    version     2.0;
    format      ascii;
    class       surfaceVectorField;
    location    "50";
    object      ddtCorrDdt0(Uf);
}
// * * * * * * * * * * * * * * * * * * * * * * * * * * * * * * * * * * * * * //

dimensions      [0 1 -2 0 0 0 0];


internalField   nonuniform List<vector> 
20673
(
(0.00157347 -0.000402338 1.62188e-18)
(0.00156533 -0.000467995 3.14561e-18)
(0.00150362 -0.000423187 6.66004e-18)
(0.000378015 -0.000258692 3.06543e-19)
(0.000381418 -0.000226856 -5.17251e-19)
(0.000390588 -0.000247732 -2.37448e-19)
(0.0118716 -0.0231316 -1.23513e-18)
(0.0112597 -0.0236697 5.13708e-18)
(0.0140492 -0.0258217 -2.43254e-18)
(-0.000563385 -0.00108721 -7.66545e-18)
(-0.000524177 -0.00106947 2.65563e-18)
(-0.000576403 -0.00104267 1.73601e-18)
(2.99969e-05 0.000522611 -1.82018e-19)
(1.26172e-05 0.000520921 -2.6445e-18)
(2.42582e-05 0.000518741 -1.71853e-18)
(1.50328e-05 0.00111106 6.50381e-17)
(3.31173e-05 0.00107629 7.68737e-17)
(-2.05462e-05 0.00109168 1.02906e-16)
(0.0150986 -0.023687 1.07748e-18)
(0.0134803 -0.0234998 -9.1916e-18)
(0.0210373 -0.0249039 -9.85329e-18)
(0.000675415 -0.0201283 1.1351e-17)
(0.000333736 -0.0187088 -2.19553e-18)
(-0.00148334 -0.0184733 -2.15253e-18)
(-0.0208631 0.0192701 -1.91851e-17)
(-0.0188318 0.0186184 8.52413e-18)
(-0.017774 0.0183525 5.66331e-18)
(0.00240381 -0.000848992 1.06277e-17)
(0.00246445 -0.000967691 1.09005e-17)
(0.00255282 -0.000845918 5.6e-18)
(0.00234612 -0.0144921 -1.06757e-19)
(0.00152638 -0.0149568 -9.64582e-18)
(0.00244869 -0.0153585 -8.79846e-18)
(-0.00371197 -0.00310938 7.02996e-19)
(-0.00406332 -0.00336933 -1.89292e-18)
(-0.00348366 -0.00345893 -2.94149e-18)
(-0.000547028 -0.00110985 -4.89811e-18)
(-0.0394865 -0.00125111 3.86668e-18)
(-0.0435581 -0.00191031 7.51773e-18)
(-0.0394482 -0.00234186 -3.14738e-18)
(0.000629197 0.000212141 -2.97975e-19)
(0.000613943 0.000241306 4.25556e-18)
(0.000597574 0.000220982 -3.77009e-18)
(0.000695244 3.92278e-05 -9.30775e-19)
(0.000666721 5.10366e-05 4.90741e-19)
(0.00066217 1.22915e-05 -1.27254e-18)
(0.00042307 -0.000125803 3.20933e-19)
(0.000423675 -0.000162058 3.78914e-19)
(0.000409752 -0.000122018 1.71429e-19)
(0.000732488 -0.000546512 -2.32846e-18)
(0.000658124 -0.00052138 7.90593e-18)
(0.000693341 -0.000469853 2.4134e-17)
(-0.00392089 -0.00271497 3.20542e-18)
(-0.00344138 -0.00285835 -4.9394e-18)
(2.43147e-05 0.000180674 -4.01202e-19)
(2.15491e-05 0.000171248 2.6379e-20)
(1.50323e-05 0.000172091 -1.23778e-18)
(-4.24262e-06 -0.000128259 -3.29871e-19)
(-6.18197e-06 -0.000147534 -3.46285e-19)
(-4.28965e-06 -0.000125534 1.28531e-18)
(0.0150578 -0.0239435 -1.23051e-18)
(0.0101611 -0.0235947 3.46113e-18)
(4.88658e-05 0.000291537 1.47153e-18)
(5.57507e-05 0.000281124 -7.22977e-19)
(5.42911e-05 0.000271271 1.55879e-18)
(0.00234945 -0.0226509 1.97568e-18)
(0.0004111 -0.0216848 1.18523e-17)
(0.000114851 -2.94115e-06 -2.79807e-18)
(0.00011545 -3.19699e-06 -3.83909e-18)
(0.000115575 9.34564e-06 -2.79036e-18)
(0.0254753 -0.0238231 -4.22394e-18)
(0.0204418 -0.0228704 2.05215e-18)
(0.0195572 -0.0235384 -9.40161e-19)
(4.24859e-05 0.000834897 -4.54869e-18)
(5.23814e-05 0.000860787 2.42094e-18)
(4.11699e-05 0.000856662 6.33831e-19)
(0.00020202 0.00104442 1.4595e-18)
(0.000212042 0.00106795 -1.08926e-17)
(0.000187315 0.00106653 -3.32729e-18)
(-0.000787554 0.00214503 -1.28433e-18)
(-0.000791833 0.00234654 2.05218e-19)
(-0.00103479 0.0022334 -4.9612e-20)
(0.00100392 -0.00304045 -1.94734e-18)
(0.000434836 -0.0027591 -1.01867e-17)
(0.000345247 -0.00351983 -1.26009e-17)
(0.00146959 -0.000707388 -1.09569e-17)
(0.00150184 -0.000645669 -7.77784e-18)
(0.00142922 -0.000645273 -6.81329e-18)
(0.000973325 -0.000280814 3.57523e-18)
(0.000959934 -0.000267408 -5.94585e-18)
(0.000936588 -0.000289533 -2.94447e-18)
(0.000203391 0.000717183 3.26633e-18)
(0.000205443 0.000743436 -1.711e-18)
(0.000182898 0.000729463 7.18515e-18)
(-3.49946e-06 0.000623987 -7.56424e-18)
(-1.69491e-05 0.000628359 -1.46705e-17)
(3.32741e-06 0.000631301 -1.23646e-17)
(7.79951e-05 2.00743e-05 2.87554e-18)
(8.14709e-05 2.84261e-05 3.79467e-19)
(8.92406e-05 2.08692e-05 -3.30337e-18)
(-0.0031101 -0.0274073 3.58945e-19)
(-0.0016539 -0.0277416 -9.14103e-18)
(-0.00300862 -0.0295237 -7.61654e-18)
(4.33494e-05 0.000305655 3.32435e-19)
(4.03397e-05 0.00029523 -8.87441e-21)
(-0.0367117 -0.00129665 6.81565e-18)
(-0.0387051 -0.00138689 -5.74661e-18)
(-0.0382344 -0.00180372 -4.90096e-18)
(-0.000510409 -0.00130705 3.32623e-18)
(-0.000519872 -0.00133559 -5.18633e-18)
(0.0407622 -0.00302895 -2.50784e-18)
(0.0410405 -0.00233798 -6.87356e-18)
(0.0413809 -0.0027367 3.33207e-18)
(4.26767e-05 6.93646e-06 7.16795e-21)
(4.37074e-05 6.68967e-06 2.81121e-20)
(3.47252e-05 5.67033e-06 -8.79991e-20)
(-1.87009e-06 -8.62812e-05 -3.42505e-18)
(-1.47515e-06 -4.68669e-05 -1.6044e-19)
(-7.29785e-07 -4.83285e-05 -2.45318e-18)
(-7.21933e-05 -0.000103359 -5.26479e-19)
(-6.45027e-05 -8.79815e-05 -7.44808e-20)
(-6.95615e-05 -9.39019e-05 1.20733e-18)
(0.000153395 0.00124969 1.79637e-17)
(0.000127794 0.00127234 1.92506e-17)
(0.000111429 0.0013056 1.97553e-17)
(0.000197966 -0.000236608 1.9675e-19)
(0.000212352 -0.000241295 4.07748e-19)
(0.000199761 -0.000236339 -3.97935e-19)
(8.06818e-05 0.000595799 -1.0497e-18)
(7.51893e-05 0.000600589 2.63828e-18)
(7.35878e-05 0.000597109 -2.27867e-17)
(0.0008168 -0.000566835 -2.2386e-17)
(0.000762537 -0.00061716 -5.20055e-18)
(0.00253055 -0.00060333 -1.58346e-17)
(0.00227202 -0.000702789 -1.17269e-17)
(0.00252172 -0.000863524 4.70984e-18)
(0.000340617 0.000947881 -9.72297e-18)
(0.000233608 0.000953154 -1.93255e-17)
(0.000307307 0.00102048 -1.84653e-17)
(4.05548e-05 4.48641e-06 8.28558e-19)
(4.05027e-05 2.30057e-06 4.69659e-19)
(3.78788e-05 1.21747e-06 -8.08439e-20)
(0.000369332 -0.00103269 4.55699e-18)
(0.000381814 -0.00102314 4.19902e-18)
(0.00036761 -0.0010548 -2.87235e-18)
(6.33012e-05 0.000727421 -3.27673e-18)
(4.14064e-05 0.000745674 2.60714e-18)
(7.74108e-05 0.000753867 3.03815e-18)
(0.000406756 0.00096854 1.48085e-16)
(0.00040376 0.00075209 4.3634e-18)
(1.5416e-05 0.000617245 1.56252e-18)
(-1.07888e-05 0.000616267 1.25599e-17)
(0.000433433 -0.000129095 -2.33518e-20)
(0.000422677 -8.71134e-05 4.6958e-19)
(0.000556976 -0.000581859 1.19551e-17)
(0.000573407 -0.000549656 3.33439e-18)
(0.000570129 -0.000586624 3.31849e-18)
(0.00333812 -0.014067 1.39204e-19)
(0.00242425 -0.0135119 2.95151e-18)
(0.000242034 0.000471269 -2.6255e-19)
(0.000224392 0.000447985 3.5642e-20)
(0.000235427 0.000452111 1.9308e-18)
(0.000550059 -0.000394618 -4.52661e-18)
(0.00057226 -0.000399815 3.61705e-18)
(0.000568924 -0.000388056 2.75683e-18)
(0.000197001 -0.000244497 -1.25787e-18)
(0.000186861 -0.000233243 1.69495e-19)
(-0.00328543 -0.00280868 1.84666e-17)
(-0.00411594 -0.00172682 1.80919e-17)
(-0.00264945 -0.00263164 3.2963e-17)
(0.000375297 -0.000286437 2.01699e-19)
(0.000382828 -0.000299022 6.05445e-19)
(-0.0403946 -0.000584024 -2.7528e-18)
(2.87511e-05 0.00018873 1.1569e-19)
(3.53123e-05 0.000174924 -9.60267e-19)
(-2.52891e-05 0.00104965 -4.40779e-17)
(-5.02041e-05 0.00113202 -9.51238e-17)
(-0.0176891 -0.00196024 -5.14234e-18)
(-0.0190543 -0.0030935 -9.74701e-18)
(-0.0236545 -0.00518002 -6.12633e-17)
(-1.32922e-06 0.00053031 8.35569e-18)
(-1.6842e-06 0.000515196 2.41262e-19)
(-1.08733e-05 5.1661e-05 -1.71632e-18)
(-7.14149e-06 5.9823e-05 1.16184e-18)
(0.0102521 0.000588831 -8.28264e-18)
(0.0104993 -0.000210164 9.24237e-18)
(0.0112028 0.000718115 1.44478e-17)
(0.00148639 -1.40988e-05 6.99708e-19)
(0.00147325 -2.16671e-05 7.57992e-19)
(0.00151565 -2.99401e-05 8.28618e-18)
(2.19085e-05 0.000511188 1.87288e-18)
(2.64878e-05 0.000515144 3.06089e-18)
(-0.0231637 0.0202576 1.19911e-18)
(-0.0226604 0.0199452 6.06142e-18)
(0.00886698 0.00344952 4.71444e-18)
(0.00922961 0.00451028 -5.90731e-18)
(0.0102376 0.00398174 4.4145e-17)
(0.000107485 -1.12621e-05 4.40598e-18)
(0.000104651 9.75138e-07 6.97031e-18)
(0.000163762 0.000897364 5.02937e-17)
(4.34714e-05 0.000827861 5.45686e-17)
(7.09316e-05 0.000818224 -5.84289e-17)
(-0.00663022 0.000583574 -2.91515e-18)
(-0.0059869 0.000797285 -8.44327e-19)
(-0.00599556 0.000111889 1.15123e-17)
(-0.0137318 0.00234297 4.79342e-18)
(-0.0120341 0.0038286 -5.2473e-18)
(-0.0146809 0.00285208 3.8633e-18)
(0.000279281 -0.000323971 -3.79474e-18)
(0.000291672 -0.000331164 3.53249e-18)
(0.000294343 -0.000311111 5.76551e-18)
(0.0252292 -0.0174344 1.34799e-18)
(0.0247332 -0.0184146 -9.16121e-19)
(0.027329 -0.0181416 -6.68143e-18)
(-9.64145e-06 -0.000153577 2.7774e-18)
(-1.097e-05 -0.000141736 6.6788e-19)
(-1.22254e-05 -0.000139745 1.35726e-19)
(-2.03166e-05 -6.21365e-05 3.64747e-19)
(-2.21979e-05 -2.01356e-05 1.24711e-19)
(-1.91321e-05 -6.87371e-05 -1.32056e-18)
(-4.61545e-07 0.00053432 3.72904e-18)
(-1.33434e-05 0.00105242 4.81453e-17)
(-3.74651e-05 0.00107994 -1.38442e-17)
(-1.55492e-07 0.00105555 1.719e-17)
(-0.0341503 -0.00142706 4.02515e-18)
(-0.0347778 -0.000714135 1.48637e-17)
(-0.0112952 0.00184532 -1.98025e-17)
(-0.0116885 0.00150311 -2.09861e-17)
(-0.0119349 0.0015262 -3.82963e-17)
(0.000261615 -0.00031067 -1.44462e-18)
(0.000260287 -0.000337764 -3.32026e-18)
(-1.30424e-05 0.000107411 -1.19781e-18)
(-1.6257e-05 0.00010559 2.36191e-18)
(-1.7448e-05 5.58272e-05 2.84952e-18)
(-0.0143184 -0.00199691 -1.99427e-17)
(-0.00651648 0.00437723 2.60383e-17)
(0.000339862 -0.0010444 4.19126e-18)
(0.000365232 -0.00098977 1.24794e-18)
(-8.08249e-05 -0.000117881 -2.67009e-18)
(-7.41304e-05 -0.000112311 -2.24545e-18)
(-0.00598619 0.00847608 2.5616e-17)
(-0.00677153 0.00714187 1.36662e-18)
(-0.00791123 0.00766121 7.81945e-18)
(0.00230782 -0.002305 -1.21516e-17)
(0.00228671 -0.0020609 -1.59278e-17)
(0.0025013 -0.00211569 -2.36255e-17)
(0.00021188 -0.00032126 -2.42272e-19)
(0.000195194 -0.000318774 1.93962e-18)
(0.000205433 -0.000308202 -1.8949e-19)
(0.000371102 0.000461312 2.61856e-19)
(0.000380972 0.000458961 1.76257e-18)
(0.000388928 0.000427154 3.32013e-18)
(-0.00686915 0.00086043 -5.34841e-17)
(-0.0191157 -0.00418399 1.30907e-18)
(3.56759e-05 0.00112456 3.04282e-19)
(7.26672e-05 0.00111063 2.56492e-17)
(7.60861e-05 0.00108839 2.47362e-17)
(0.00609259 -0.00656087 2.47528e-18)
(0.00654847 -0.00618864 -1.95215e-17)
(0.00679135 -0.00694425 -6.99295e-18)
(0.00180009 -0.000511559 7.52068e-18)
(0.00180922 -0.000363269 -6.69582e-18)
(0.00166889 -0.000427169 -2.58606e-17)
(-0.0133471 -0.00495304 2.23021e-18)
(-0.0143143 -0.0053521 -9.21085e-18)
(-0.0141121 -0.00411091 1.64432e-18)
(-1.24715e-05 0.00116448 3.98518e-17)
(2.71208e-05 0.00114447 -1.77401e-17)
(1.44444e-05 0.00119127 3.74198e-17)
(6.74466e-05 1.62411e-05 1.02216e-19)
(6.52822e-05 -7.02602e-07 -1.46437e-19)
(6.6834e-05 9.42773e-06 1.28425e-19)
(2.54781e-05 0.00068034 1.13857e-17)
(1.76722e-06 0.000606357 -3.45762e-18)
(-3.46855e-05 0.000641093 -4.55032e-17)
(0.0001156 0.00123274 8.25625e-18)
(0.000163611 0.00119722 -1.50256e-17)
(0.000240347 -0.000540211 6.14367e-18)
(0.000231066 -0.000581886 1.59582e-18)
(0.000213601 -0.000576729 5.94736e-18)
(0.000111259 -0.000157962 -3.14669e-19)
(0.000105051 -0.000160918 1.20616e-20)
(0.000104962 -0.000183606 -9.02287e-20)
(-0.0182702 0.0178549 -1.41851e-17)
(-0.017174 0.017344 1.24878e-17)
(-0.0197417 0.0184083 1.03021e-17)
(-0.000246849 0.00254234 1.30855e-18)
(-0.000399281 0.00244039 -5.53058e-18)
(-0.000376562 0.0026818 -5.85567e-18)
(0.00275903 -0.000535516 -6.59464e-19)
(0.00250878 -0.000300079 -5.8109e-18)
(0.000422955 -0.000196856 -5.51946e-20)
(0.000434104 -0.000203154 -5.70565e-20)
(0.00167861 -0.000631445 1.3647e-17)
(0.00170002 -0.000563496 6.30119e-18)
(0.00177149 -0.000619682 5.66456e-18)
(0.00253333 -0.00881697 9.81803e-18)
(0.00320745 -0.00783005 4.37676e-17)
(0.00402527 -0.00814366 8.15547e-18)
(0.0393665 -0.00376968 1.0775e-17)
(0.0400363 -0.00323928 8.62611e-18)
(-0.00599927 -0.00461918 2.51487e-18)
(-0.00637466 -0.00429886 6.09581e-18)
(-0.00653795 -0.00494603 5.14205e-18)
(-0.0187076 0.0182033 9.1507e-18)
(-0.0157808 0.0174046 -4.03796e-17)
(3.58048e-05 0.00079593 9.47098e-18)
(3.92732e-05 0.000765443 -4.50174e-18)
(5.53279e-05 0.000780226 4.19632e-18)
(-3.9784e-05 0.000933266 6.00081e-17)
(-4.4795e-05 0.000949755 9.78711e-18)
(5.17132e-05 0.000692414 -3.18643e-18)
(0.000108804 -2.48347e-05 -1.93981e-20)
(0.000109052 -3.70111e-05 -6.38112e-19)
(0.000107385 -2.67726e-05 -9.12913e-19)
(0.000149542 0.00110291 8.28335e-17)
(0.00011152 0.00110697 9.46559e-17)
(9.60265e-05 0.00105787 5.01847e-17)
(-0.0117286 -0.00712365 7.21019e-19)
(-0.0102168 -0.00758562 -1.78099e-18)
(-0.0119066 -0.00872617 -2.75877e-18)
(5.77901e-05 0.000616828 1.75895e-20)
(7.27237e-05 0.000603955 -2.95733e-18)
(7.45201e-05 0.000613379 -3.14767e-19)
(-6.81555e-06 -0.000118223 -5.49224e-19)
(-4.78677e-06 -0.00012229 -2.30268e-20)
(0.00997698 0.00142842 3.46106e-18)
(0.00952484 0.000568865 -1.57482e-17)
(-0.02745 -0.00633706 3.66338e-18)
(-0.0268572 -0.00771691 3.06568e-18)
(-0.0283293 -0.00728293 2.51255e-18)
(0.000191848 0.00100867 -2.12858e-17)
(0.000225764 0.00101248 6.18169e-18)
(3.30453e-05 -4.75392e-06 4.16511e-20)
(2.73432e-05 -6.8782e-06 4.054e-19)
(3.07755e-05 -2.00582e-06 1.33724e-19)
(0.000354745 0.00049606 1.97883e-18)
(0.000363309 0.000465439 -1.57771e-18)
(0.000225326 -0.000305703 4.64852e-19)
(0.000239218 -0.00030643 -1.54282e-18)
(0.00023784 -0.000316307 -4.49835e-19)
(3.5185e-05 -5.03024e-06 -2.97994e-19)
(2.66261e-05 -3.78078e-06 -4.764e-19)
(-4.67223e-05 -2.30543e-05 2.08174e-19)
(-5.00578e-05 -2.84513e-05 -2.78547e-20)
(-4.80328e-05 -2.12704e-05 7.32002e-19)
(9.15188e-05 0.00114829 -2.77697e-17)
(-0.0174489 -0.0141492 2.06436e-18)
(-0.0191172 -0.0133137 2.01193e-18)
(-0.0185927 -0.0126603 9.50656e-18)
(2.27873e-05 0.000794402 9.34012e-18)
(4.18481e-05 0.000794651 -5.21736e-18)
(0.000225485 -0.000239532 7.98902e-19)
(0.000217903 -0.000247519 -5.86796e-19)
(-3.75455e-06 -0.000129245 -5.72911e-19)
(-3.22702e-06 -9.35078e-05 -3.73943e-18)
(-0.0119026 -0.00247156 -2.62382e-17)
(-0.0141662 -0.00157156 -1.45784e-18)
(-0.00943859 -0.00133567 1.36332e-17)
(0.00377167 -0.0251778 -5.669e-18)
(0.00454772 -0.0233392 3.27477e-18)
(0.00164536 -0.000379562 -1.93656e-18)
(0.00157123 -0.000348491 -4.80399e-18)
(3.57743e-05 0.00114146 1.66148e-17)
(-1.34051e-05 0.00120658 -3.91548e-17)
(2.49236e-06 0.000515607 -4.36586e-18)
(-1.35033e-06 0.000482108 -1.29071e-18)
(3.86704e-05 0.000615432 2.53254e-18)
(4.61939e-05 0.000625315 1.63546e-17)
(0.00141885 -0.025684 2.54523e-18)
(-3.47507e-05 -0.0254612 -2.59086e-18)
(0.000669413 -0.024026 3.84703e-18)
(5.17788e-05 -0.000169337 1.19213e-18)
(5.96822e-05 -0.000186041 1.07986e-18)
(5.52747e-05 -0.000184003 -1.14752e-18)
(0.00014547 0.000758262 4.45828e-18)
(0.000149921 0.000765077 3.5967e-18)
(0.000136317 0.00076477 8.1735e-18)
(8.61841e-05 0.00128315 -2.04145e-18)
(5.10418e-05 0.00129621 -3.90314e-18)
(7.00514e-05 0.00133227 -3.09369e-17)
(-4.4809e-06 5.4891e-05 -4.00101e-18)
(-1.2719e-05 4.94198e-05 -7.80578e-18)
(-0.0261459 0.0212964 3.67036e-18)
(-0.0257285 0.0208979 -1.72266e-18)
(-0.0255973 0.0214931 6.86755e-18)
(-0.000937355 0.00271955 -2.36021e-18)
(-0.000721619 0.0027843 -2.18948e-18)
(-0.000762673 0.00253976 4.49316e-19)
(7.51048e-05 0.00070833 1.05781e-18)
(6.01053e-05 0.00068522 -1.82571e-18)
(2.80042e-05 -0.000136093 -3.11514e-19)
(3.46243e-05 -0.000150564 1.79828e-18)
(2.98769e-05 -0.000149522 1.24641e-22)
(0.00102399 -0.000231898 -8.5039e-18)
(0.00101535 -0.00021945 -2.37264e-18)
(0.0010518 -0.00021561 -1.55409e-18)
(0.0013912 -0.00305955 3.67307e-18)
(0.00157834 -0.00318047 1.32631e-17)
(0.00150766 -0.00287703 1.18472e-17)
(4.36587e-05 0.000879597 3.2497e-17)
(-8.32217e-06 0.000899636 6.88464e-17)
(0.000299501 -0.00711431 7.04271e-19)
(0.000751854 -0.0073306 2.0372e-18)
(0.000201872 -0.00758052 -3.0824e-18)
(0.00153349 0.00059357 -1.62922e-18)
(0.00150412 0.000529859 -3.31857e-19)
(0.00159413 0.000531952 -2.55131e-18)
(0.000790415 -0.00045804 5.47592e-18)
(0.000799355 -0.000403041 2.49868e-18)
(0.000749596 -0.000420648 -5.10331e-18)
(-0.00631937 -0.00059715 6.7939e-18)
(-0.00532868 -0.00103938 -4.7206e-17)
(-0.00497197 -0.00101723 -2.38675e-17)
(0.00140005 2.82799e-05 -2.16084e-18)
(0.00139833 -8.18816e-05 -2.83266e-18)
(0.0259053 -0.015158 -1.95831e-18)
(0.0304429 -0.0128796 1.02858e-18)
(0.0306015 -0.0147348 -1.92303e-18)
(-0.0154335 0.000799257 1.26674e-17)
(-0.0123602 0.00213855 1.84771e-17)
(-0.0160652 -0.00318591 1.45968e-17)
(-0.00603246 -0.00324257 -1.61821e-17)
(0.00024919 0.000583942 -2.42988e-18)
(0.000252726 0.000577006 -3.15874e-18)
(0.000233393 0.000592137 -9.5856e-18)
(-8.13297e-05 0.000845662 -5.4395e-18)
(-2.75127e-05 0.000853502 5.44191e-18)
(-7.30057e-05 0.000887513 1.35678e-17)
(-1.31327e-05 -0.000129153 -2.02105e-18)
(-1.32541e-05 -0.000123298 -2.17099e-18)
(-6.34824e-06 -0.000138815 -2.63234e-18)
(0.0055505 -0.00715745 2.00684e-17)
(0.00545957 -0.00627473 -2.09674e-19)
(-0.00548874 -0.00504516 -3.11156e-18)
(-0.0053955 -0.0043511 -8.1312e-18)
(-0.0124834 -0.0046045 4.44123e-18)
(-0.0126101 -0.00568959 2.51709e-18)
(0.00026661 -0.00051121 1.66214e-18)
(0.000250571 -0.000501944 -1.17025e-18)
(0.00201072 -0.00177337 -2.26211e-18)
(0.00203158 -0.00196232 6.07407e-18)
(0.00221842 -0.00183235 4.03739e-18)
(0.000142352 -0.000238016 -1.80208e-18)
(0.000155344 -0.000236182 -5.37267e-19)
(0.000151692 -0.000253062 1.84885e-18)
(-7.67949e-06 0.00071968 -4.8474e-18)
(7.93121e-05 0.000689121 1.72172e-17)
(0.00170833 0.000401929 1.07894e-18)
(0.00164404 0.000432931 -1.44162e-18)
(0.00162994 0.000348056 8.30202e-20)
(-0.00675295 -0.00442273 -1.85929e-17)
(-0.00587597 -0.00382379 -9.37435e-18)
(-0.00608002 -0.00483237 -1.54928e-19)
(-0.00774884 -0.00331983 -1.72572e-18)
(-0.00825785 -0.00376498 -2.21513e-17)
(-0.00750409 -0.00398532 -1.51742e-17)
(0.000477584 -0.000147589 2.04771e-19)
(0.000495776 -0.000152456 -1.7267e-19)
(0.000483022 -0.000116569 1.97469e-19)
(-0.0253964 0.0164975 -1.35476e-17)
(-0.0259745 0.0178776 2.83123e-18)
(-0.023781 0.0169768 3.92882e-18)
(0.00154396 0.000799668 7.34029e-19)
(0.00153857 0.000874195 -3.85564e-20)
(0.00162702 0.000839034 -2.21806e-18)
(-0.0154165 -0.0147095 -1.00852e-17)
(-0.015249 -0.0155258 2.11667e-18)
(0.00010124 0.00110666 1.61064e-17)
(0.000235845 0.00108162 1.01321e-17)
(-0.0265995 0.021097 -8.49733e-18)
(-0.0259232 0.0217529 3.21123e-18)
(0.000254654 0.000151277 -2.73716e-19)
(0.000260697 0.000125961 -3.87318e-19)
(0.000258144 0.000159454 -3.33461e-19)
(0.00229985 -0.00253594 -5.62175e-18)
(0.00209929 -0.00243405 -4.73494e-18)
(0.00151881 -0.000779716 6.06399e-18)
(0.00142694 -0.000774499 3.98993e-18)
(4.8072e-05 -0.000155434 2.97413e-19)
(4.36035e-05 -0.000153323 9.14511e-19)
(-8.33327e-06 0.000118824 -1.65352e-18)
(-3.56896e-06 0.000151317 -3.45247e-18)
(0.000614557 0.000491379 -3.88664e-18)
(0.000573858 0.000488871 1.22333e-18)
(0.000597423 0.000451745 -7.46495e-18)
(0.0323056 -0.024002 1.66113e-18)
(0.0317855 -0.0246831 -2.51746e-18)
(0.00482766 -0.00623213 -3.11462e-17)
(0.00506277 -0.00678794 1.7722e-17)
(0.00565437 -0.0064449 -2.30999e-19)
(-0.00594826 -0.000482336 -5.10972e-17)
(-0.00888798 -0.00196604 6.07528e-17)
(0.00066837 -0.000756574 5.50469e-19)
(0.000672368 -0.000745595 -6.45079e-18)
(0.000663818 -0.000756755 -6.226e-18)
(-0.008332 -0.00927592 6.76862e-19)
(-0.00879954 -0.00899347 3.27873e-18)
(-0.00882089 -0.00981696 3.90035e-18)
(0.0121156 -0.0199991 -1.19433e-17)
(0.0130825 -0.0212086 2.96325e-18)
(0.0145115 -0.0202761 -7.58675e-18)
(-0.0107299 0.00204585 3.88494e-17)
(-0.0106769 0.00216402 -5.55558e-17)
(0.00679484 -0.00337853 8.85175e-18)
(0.00656464 -0.00382128 -1.52199e-17)
(0.00727653 -0.00379429 -3.54669e-17)
(5.20569e-05 0.000371557 -4.2651e-19)
(4.58421e-05 0.000371448 1.07263e-18)
(4.32133e-05 0.000383648 -2.11802e-19)
(2.03099e-05 0.00115669 2.04857e-17)
(-1.26946e-05 0.00118695 8.01134e-18)
(-2.63742e-05 0.00116227 -3.39212e-17)
(4.14631e-05 0.0008042 -1.70168e-17)
(7.34499e-05 0.000819965 6.72853e-18)
(3.27815e-05 -6.07649e-06 7.66612e-19)
(3.77425e-05 -4.45129e-06 -2.99398e-19)
(0.000222301 -0.000309322 3.1803e-19)
(0.000224277 -0.000332435 1.2679e-18)
(0.000120074 0.00264252 -1.31343e-18)
(0.000202342 0.00248214 -1.03767e-18)
(0.000313085 0.00264746 -4.6551e-18)
(0.000895385 0.00696239 5.79513e-17)
(-0.0011414 0.00531653 2.89202e-19)
(-0.0101869 -0.000610322 5.97359e-17)
(-3.26247e-05 -0.00142347 3.27336e-18)
(-5.27988e-05 -0.00146145 -5.03696e-18)
(-1.17613e-05 -0.00143652 5.50706e-18)
(3.78687e-05 6.64423e-06 4.91186e-19)
(4.19863e-05 5.33612e-06 5.28889e-20)
(0.00174059 -0.00233317 -5.53075e-18)
(0.00158734 -0.00225704 8.08398e-18)
(0.00176847 -0.002136 -1.67777e-18)
(0.00126235 -0.0032255 -5.99704e-18)
(0.00124578 -0.00295819 -7.78204e-18)
(0.00735156 0.00277446 2.23104e-17)
(0.00846413 0.00238862 -2.34066e-17)
(-0.00828316 0.0152051 9.90761e-18)
(-0.00699648 0.0159022 -4.3955e-18)
(-0.00795498 0.0141089 -9.57813e-18)
(8.02383e-05 2.28787e-05 4.88216e-18)
(7.57636e-05 2.04773e-05 1.93038e-18)
(0.000241222 0.000484927 -9.05341e-19)
(0.000253619 0.000490915 1.51486e-19)
(0.00173802 -0.000774176 2.85914e-17)
(0.00199755 -0.000746146 9.9307e-19)
(0.0262979 -0.0257566 2.13992e-18)
(0.0330029 -0.0268993 1.74107e-18)
(0.0300927 -0.026688 1.15279e-18)
(0.000136892 0.000752149 -1.60957e-18)
(0.000152142 0.00074793 -2.04393e-18)
(0.012 -0.0232384 -3.41422e-18)
(0.00980049 -0.0227143 3.26629e-18)
(0.0174267 -0.0242333 4.77465e-18)
(0.00673666 0.000607855 -1.09046e-17)
(0.00775668 0.00149287 -9.21511e-18)
(0.00569172 0.000695221 -4.64816e-18)
(-0.00757711 -0.00894054 1.76402e-17)
(-0.00762894 -0.00993576 1.9277e-18)
(0.000108514 -0.000131548 -5.3471e-20)
(0.000114117 -0.000145611 -5.2056e-19)
(-0.000449044 0.0012516 -1.51223e-17)
(-0.000555616 0.0012333 4.17257e-17)
(-0.0004494 0.00113915 1.46442e-17)
(0.0015551 -0.00122052 5.03022e-18)
(0.00162888 -0.00104653 -5.22855e-18)
(0.00146572 -0.00100729 2.7768e-18)
(0.0117137 -0.00386181 -4.62476e-17)
(0.0111767 -0.00459375 1.17663e-16)
(0.0122926 -0.00399141 6.25535e-17)
(0.000132103 5.35499e-05 -1.33339e-18)
(0.000133153 8.2042e-05 6.87841e-19)
(0.000132046 8.24926e-05 -2.52545e-19)
(-0.00233426 -0.00437734 5.66125e-17)
(-0.0040165 -0.00363671 2.94141e-17)
(0.000239848 0.000184825 3.55413e-19)
(0.000242481 0.000147267 2.35487e-19)
(-0.000405118 -0.00240235 1.84488e-17)
(-0.000387638 -0.00218704 -1.48821e-18)
(-0.000201028 -0.0023 5.14593e-18)
(3.99144e-05 1.01312e-05 6.26889e-21)
(3.98985e-05 7.71311e-06 2.78317e-20)
(-0.0309596 0.00282907 5.75567e-19)
(-0.0354557 -0.000329388 -3.36679e-18)
(-0.0354977 0.00448158 4.02291e-18)
(-0.0162164 0.0167419 -7.78225e-18)
(-0.0152283 0.0160479 -1.75431e-18)
(-0.0177123 0.0170691 -3.35905e-17)
(0.000724642 5.90523e-05 -3.01849e-18)
(0.000720138 2.03232e-05 7.12774e-20)
(0.0026464 0.00616124 -9.22531e-18)
(0.00315234 0.00726635 -6.01346e-18)
(0.00355337 0.00621696 -9.28966e-18)
(0.000756302 -0.00041411 3.02e-19)
(0.000807338 -0.00039076 1.47755e-19)
(0.000113044 -9.23848e-05 1.8788e-19)
(0.000106856 -0.000101033 5.37188e-19)
(-0.00323855 -0.0260392 3.84308e-18)
(-0.00432479 -0.0270996 6.41993e-18)
(-0.00792663 -0.00264989 1.91925e-17)
(-0.00727907 -0.00288534 6.84119e-18)
(0.000668079 -0.000757316 1.30742e-17)
(0.000664336 -0.000769676 -2.26769e-18)
(0.00855829 -0.0260548 4.64145e-18)
(0.0100881 -0.0250643 8.45236e-18)
(0.0106138 -0.027748 -5.82405e-19)
(0.00761446 0.000141665 -9.41577e-18)
(0.0064681 -0.000317738 -1.06311e-18)
(4.63669e-05 -3.80058e-05 -2.25965e-19)
(3.72213e-05 -4.85687e-05 -1.30112e-19)
(3.88778e-05 -3.44988e-05 1.62882e-20)
(0.000973606 -0.000296933 4.11561e-18)
(0.00101515 -0.000282836 1.0094e-17)
(-0.00426121 0.00960413 2.16983e-17)
(-0.00554635 0.010088 5.42857e-18)
(-0.00885286 0.00128283 5.14064e-18)
(-0.00897313 0.00094179 -2.9349e-17)
(-0.00846028 0.00117336 -1.5166e-17)
(-1.35919e-05 -0.000132765 1.47194e-18)
(-1.62916e-05 -0.000102847 5.59877e-19)
(5.63705e-05 -2.98209e-05 1.15991e-20)
(5.77499e-05 -1.16216e-05 4.80883e-20)
(6.22553e-05 -2.12593e-05 3.59442e-19)
(0.0440121 -0.00159822 -7.10971e-18)
(0.0431144 -0.00171309 4.43729e-18)
(0.00827346 -0.00518308 -7.52325e-18)
(0.00797571 -0.00582526 3.12022e-18)
(0.00873055 -0.00582404 7.94285e-18)
(-5.27516e-06 -1.0713e-05 2.31893e-19)
(-2.53773e-06 -9.02087e-06 8.21576e-19)
(-5.05699e-06 -1.36678e-05 -3.50809e-19)
(-0.00707754 -0.0233307 3.94686e-18)
(-0.00832992 -0.0228467 2.1065e-18)
(-0.0073499 -0.0221899 1.54051e-17)
(-0.00063656 0.000946632 2.45393e-19)
(-0.00043551 0.00116512 -6.06651e-18)
(-0.000351577 0.000835374 7.83499e-18)
(-6.31569e-05 0.000805771 2.21805e-17)
(-9.42815e-05 0.000817317 -7.96859e-18)
(0.00132549 -0.000432793 6.69098e-19)
(0.00137489 -0.000459219 5.98146e-18)
(0.00130482 -0.000463478 -1.76628e-17)
(-8.88238e-06 -0.000100286 1.08774e-18)
(-1.65961e-05 -0.000130746 8.83811e-19)
(0.001299 0.00100637 -2.12329e-19)
(0.001264 0.000907131 4.97434e-19)
(0.00121239 0.000968715 1.3779e-18)
(0.000680105 0.00144664 -4.91058e-18)
(-0.000704321 0.0014046 2.2558e-17)
(-0.000966367 5.80616e-05 -4.24302e-18)
(-0.000165219 -0.000607341 1.25602e-18)
(-0.000186577 -0.000625184 3.41499e-18)
(-0.000169905 -0.000633756 3.39202e-18)
(0.00322126 -0.00297608 -7.12418e-18)
(0.00325565 -0.00267574 -4.873e-18)
(0.00295029 -0.00285865 -8.25978e-18)
(5.83903e-06 0.00117557 -3.83131e-17)
(-2.16826e-05 0.00123383 5.61981e-18)
(-6.95082e-05 0.00118979 -2.94813e-17)
(0.000213265 -0.000304399 -8.2383e-19)
(0.000213634 -0.000290593 1.57099e-18)
(0.000211697 0.00042309 -4.38187e-19)
(0.000214096 0.00044091 1.26762e-18)
(-0.000395787 -0.00527486 1.22066e-17)
(-0.000191244 -0.0055833 2.56675e-18)
(-0.000601202 -0.00556038 -2.44456e-18)
(0.0399036 -0.00317945 -2.80508e-18)
(0.0412915 -0.00280422 -2.48633e-18)
(0.0407305 -0.00309591 4.17855e-18)
(-0.000125038 -0.00691292 -2.46176e-18)
(0.0004156 -0.00671492 -4.6034e-18)
(0.00064372 0.000491033 -3.21329e-18)
(0.000617596 0.000522408 -7.54961e-18)
(0.000644334 0.000181583 -1.0761e-19)
(0.000659372 0.000211101 2.13435e-18)
(-4.75732e-06 -2.40298e-05 7.8966e-19)
(-4.6845e-06 -2.08957e-05 -4.54335e-20)
(-1.96936e-06 -1.54849e-05 8.91776e-19)
(-0.0274816 -0.00512616 -1.71552e-18)
(-0.0261605 -0.00563609 -8.62978e-19)
(0.00108288 -0.00362092 -6.38408e-18)
(0.00098666 -0.00216574 7.93603e-19)
(0.00235921 -0.00348231 -6.59534e-18)
(-0.0171029 -0.0191256 -1.40136e-18)
(-0.0167779 -0.0203305 1.75477e-18)
(-0.0195071 -0.0199506 -1.22624e-17)
(0.000115068 -5.7057e-05 7.85946e-20)
(0.000117176 -8.70625e-05 1.15146e-19)
(0.0173447 -0.000233355 1.11501e-17)
(0.0175024 0.000186353 2.92926e-17)
(0.0177357 -0.000315957 -1.27406e-17)
(-0.0423485 -0.00127833 3.65949e-18)
(-0.0429771 -0.00138529 -9.43957e-18)
(-0.040905 -0.00180305 -1.7156e-17)
(0.0159815 -0.0136753 -4.13794e-18)
(0.0205182 -0.01624 -9.64961e-18)
(0.0254278 -0.0168451 3.8248e-18)
(0.0237076 -0.0170588 -1.1012e-18)
(-0.00721455 0.000147123 9.27426e-20)
(-0.00727918 0.000948912 4.03674e-18)
(-1.71277e-05 -7.0597e-05 1.28939e-18)
(2.68567e-05 1.97594e-07 -9.40313e-21)
(2.67143e-05 -2.11514e-06 -2.3631e-19)
(2.30197e-05 -8.05748e-07 2.4693e-20)
(0.000897303 -0.000582925 -4.82681e-18)
(0.000912543 -0.000659611 8.24217e-18)
(0.000975248 -0.000608755 2.36474e-17)
(-0.028736 0.00436902 -1.31044e-17)
(-0.0306677 0.00332751 9.65321e-18)
(-0.0293498 0.00350581 1.34248e-18)
(0.00406758 0.0022846 -9.86518e-18)
(0.00363242 0.00255978 3.05746e-18)
(0.00424446 0.0028398 2.0328e-18)
(0.000526474 -0.000380295 -3.91481e-18)
(0.000526282 -0.000405555 5.59469e-18)
(-0.00921936 0.0145768 -2.88735e-18)
(-0.00853702 0.0160422 -1.2477e-17)
(-0.0012201 -0.000930776 1.26503e-18)
(-0.00108382 -0.000947831 -6.11979e-18)
(-4.97182e-05 -1.70955e-05 -7.22834e-19)
(-4.9268e-05 -1.81265e-05 -8.04247e-19)
(-5.25299e-05 -2.19628e-05 -1.56903e-18)
(0.0191153 -0.0140784 -1.19476e-17)
(0.0190871 -0.0137089 -5.28685e-19)
(0.0179958 -0.0140907 -4.13253e-17)
(3.50688e-05 0.000140652 -6.07372e-19)
(3.40227e-05 0.000133959 4.97398e-19)
(2.77277e-05 0.000145777 7.09076e-20)
(-0.0250333 0.0148108 -3.16282e-18)
(-0.0266851 0.0161103 -1.62411e-17)
(-2.47095e-05 -0.00138189 -4.22369e-18)
(-5.70985e-05 -0.00141011 -6.56664e-18)
(-5.90561e-06 -8.28511e-06 -8.30904e-19)
(-8.35303e-06 -1.12771e-05 -4.83455e-19)
(0.000850647 7.81192e-05 -8.63357e-20)
(0.000859281 0.000105403 -1.64507e-18)
(0.000825787 0.0001004 2.02597e-18)
(0.00154289 0.00065039 -9.8847e-19)
(0.00147782 0.000625803 -9.21611e-19)
(3.57882e-05 0.000848851 5.10744e-18)
(1.59279e-05 0.000820856 -1.58926e-17)
(-0.00755346 -0.0248549 4.2111e-18)
(-0.0059345 -0.0239745 -2.75791e-18)
(0.00106305 0.000336257 2.35747e-19)
(0.00109472 0.000364596 -7.10381e-19)
(0.00105105 0.000368205 9.30313e-19)
(-2.29596e-05 -0.000500233 6.60573e-18)
(1.5869e-06 -0.000486373 -2.93487e-19)
(-7.62637e-06 -0.000458754 2.04842e-18)
(-0.0100721 -0.00421072 -4.06516e-18)
(-0.00941422 -0.00505591 -1.04656e-17)
(-0.0128503 -0.00540819 1.00526e-17)
(0.0074003 -0.0270219 -2.54186e-18)
(0.00659478 -0.0243238 7.72767e-18)
(0.000107309 -0.00382489 -1.48645e-17)
(0.00139259 -0.00481503 -1.47969e-17)
(0.000125799 2.90971e-05 8.56305e-19)
(0.000125385 1.97955e-05 -1.91749e-18)
(0.00868491 -0.00475708 -4.98615e-19)
(0.0175414 -0.0043325 -6.2232e-18)
(0.00454895 -0.00184171 -1.4362e-17)
(7.38329e-06 0.000210526 -3.36649e-19)
(6.17103e-07 0.000236043 -7.89476e-19)
(-1.08294e-05 0.000281118 -5.40818e-18)
(-2.49765e-05 -0.000531029 1.191e-18)
(-2.01997e-05 -0.000534522 -2.15062e-18)
(0.000104642 1.02075e-06 3.09947e-21)
(0.000105743 -2.00618e-05 2.08666e-18)
(-0.00111047 0.00294983 -5.13041e-18)