/*--------------------------------*- C++ -*----------------------------------*\
| =========                 |                                                 |
| \\      /  F ield         | OpenFOAM: The Open Source CFD Toolbox           |
|  \\    /   O peration     | Version:  v2012                                 |
|   \\  /    A nd           | Website:  www.openfoam.com                      |
|    \\/     M anipulation  |                                                 |
\*---------------------------------------------------------------------------*/
FoamFile
{
    version     2.0;
    format      ascii;
    class       volVectorField;
    location    "50";
    object      U_0;
}
// * * * * * * * * * * * * * * * * * * * * * * * * * * * * * * * * * * * * * //

dimensions      [0 1 -1 0 0 0 0];


internalField   nonuniform List<vector> 
13917
(
(1.09691 0.114429 -2.55625e-20)
(1.01999 0.0388831 0)
(0.731983 -0.0870321 1.86245e-20)
(1.05057 -0.0110822 -1.62564e-20)
(0.996336 0.00277582 3.15309e-21)
(0.359915 0.0575408 0)
(0.641062 -0.0672573 -9.84394e-21)
(0.741727 -0.0941486 9.53676e-21)
(0.504733 -0.0770069 -1.87233e-20)
(1.14132 0.141053 -4.09253e-20)
(1.09053 -0.0636697 0)
(1.08444 -0.0419056 -4.05069e-22)
(1.05097 -0.0117833 2.987e-20)
(0.0576543 -0.00675345 -1.57559e-20)
(0.973349 0.0910776 -1.35259e-20)
(0.996145 0.0854222 0)
(1.01467 0.0439458 8.19816e-22)
(1.13573 0.0111261 1.14383e-20)
(1.08381 -0.0416106 0)
(1.00152 0.00452785 0)
(0.999981 0.00109629 8.09561e-21)
(0.61804 -0.0653781 6.42363e-22)
(1.00099 0.00734023 -3.14363e-21)
(0.800119 -0.098112 1.43546e-20)
(0.995022 0.0139925 -1.27441e-21)
(0.638388 -0.049794 -4.51385e-24)
(0.784897 0.0335709 -4.80003e-20)
(0.760372 0.1217 0)
(0.741833 0.575171 0)
(1.19197 0.079453 -1.24749e-19)
(1.11073 0.103823 3.12638e-20)
(1.06018 0.0843124 -1.84819e-20)
(0.839373 0.0677079 4.8945e-20)
(0.911542 -0.00110598 -2.17433e-20)
(0.991555 0.0110123 -5.95936e-21)
(1.0638 -0.0686503 1.35064e-20)
(1.00091 0.00697894 0)
(0.189503 -0.0449782 -1.17829e-20)
(1.0568 -0.0167761 5.31405e-21)
(0.380482 -0.00471337 -4.10255e-20)
(1.00803 0.000733171 0)
(0.999987 0.000456378 5.97196e-21)
(1.01913 0.00216604 2.51088e-21)
(0.706831 0.205355 -8.31115e-20)
(1.0369 0.0223524 0)
(0.893064 0.0128167 0)
(1.13305 0.00947893 1.00475e-20)
(1.13363 -0.0229561 -2.69312e-20)
(0.104718 0.14117 1.30949e-19)
(1.00333 0.000722273 1.33717e-21)
(1.08113 0.0103084 -1.48096e-20)
(0.965937 0.00808361 1.97706e-20)
(0.0755454 0.120168 3.8287e-20)
(0.906938 0.00018314 2.32584e-20)
(1.01355 0.0448949 0)
(1.08235 0.0334505 -2.36789e-20)
(1.09251 -0.0638146 -1.31304e-20)
(0.995564 0.0278636 7.68426e-21)
(1.06904 0.0403954 2.87504e-20)
(1.03554 0.0220001 7.23641e-21)
(0.62089 0.0418272 1.23398e-19)
(1.02146 0.0389696 0)
(0.0344613 -0.0035129 -1.67274e-20)
(1.00161 0.00486954 0)
(0.38727 0.0697247 0)
(1.09552 0.357459 8.39166e-20)
(0.995546 -0.00106499 0)
(0.988319 -0.00229645 -2.03241e-20)
(1.14266 -0.0678812 1.3926e-20)
(1.06484 0.130023 0)
(0.996729 0.00300973 0)
(0.572242 -0.0871384 -9.03857e-21)
(-0.0857551 -0.0193632 -4.26081e-20)
(0.995598 0.0136114 -4.53289e-22)
(0.106298 0.215228 1.38285e-19)
(1.08229 -0.045813 1.25129e-20)
(-0.0868435 -0.0163001 1.3968e-20)
(1.05148 0.0239612 -1.44155e-20)
(0.63579 -0.0341191 -2.5277e-20)
(0.999916 0.00225551 -7.29323e-21)
(1.00012 0.00332771 5.9714e-21)
(0.996086 -0.000829884 1.41114e-20)
(0.406526 0.133426 -1.31294e-19)
(0.217721 -0.0518452 1.99345e-20)
(-0.0895473 0.0119457 1.63068e-19)
(1.05037 0.0228719 0)
(1.0004 0.00416128 3.20767e-21)
(1.23199 0.428188 -1.92679e-19)
(1.07929 0.0103517 2.12862e-20)
(1.01953 0.00216903 -6.43651e-21)
(0.000201266 -0.0334368 -4.57192e-20)
(1.17603 0.119091 1.90027e-20)
(1.02193 0.0215604 -2.55923e-21)
(0.974475 0.0505372 -9.77953e-21)
(1.18223 0.42505 1.48626e-19)
(0.387089 -0.00372085 0)
(1.11484 -0.0591382 -8.48628e-21)
(1.13508 -0.0129713 -8.3874e-22)
(1.08341 -0.0440481 -2.19789e-23)
(0.611187 0.131575 -1.03017e-19)
(1.01061 0.00522809 0)
(0.846109 -0.000705585 4.56483e-20)
(0.696284 0.190227 0)
(1.05817 0.0170621 0)
(1.01546 0.0111173 1.64053e-21)
(0.576994 -0.0735973 0)
(0.822584 0.511776 0)
(1.13624 -0.0244984 9.38048e-20)
(1.01648 0.044435 0)
(1.11164 0.118409 -3.53184e-20)
(-0.145644 -0.0115157 0)
(0.391015 -0.00439109 2.90548e-20)
(1.08477 -0.0448183 0)
(0.537644 -0.0731697 0)
(0.948926 0.00642163 1.8896e-20)
(0.0826643 -0.110869 0)
(1.00077 0.0129212 8.72918e-21)
(0.201439 0.0995392 1.54093e-19)
(0.293627 -0.0131178 0)
(0.908375 0.0126762 0)
(0.999987 0.000906694 6.15866e-21)
(1.14443 -0.0658808 -2.59038e-20)
(0.247216 -0.0185553 0)
(0.769091 0.114844 -5.35656e-20)
(1.00491 0.000640139 -5.24582e-22)
(0.975845 0.0480011 1.58712e-20)
(1.0327 0.0258871 3.01028e-21)
(1.00455 0.000519688 8.46757e-22)
(1.01666 0.00155265 0)
(0.362677 0.0106226 0)
(0.350046 -0.0360567 2.2593e-20)
(0.95135 0.00556902 0)
(1.0373 0.02329 0)
(0.999983 0.000864835 -7.871e-21)
(1.28857 -0.00638633 5.61502e-20)
(0.816166 -0.0994054 1.34695e-20)
(1.09458 0.119047 -8.14467e-22)
(0.587279 0.132784 0)
(0.995242 -0.000744461 0)
(0.909271 0.0084482 -3.32812e-20)
(1.07 -0.0707743 0)
(1.02313 0.012045 -1.8369e-22)
(0.962856 0.0197749 4.8194e-20)
(0.658545 0.202651 0)
(0.987691 -0.00198076 3.9336e-20)
(0.79647 -0.0948441 -5.30508e-20)
(0.813604 0.580099 -7.93828e-21)
(0.967841 0.0086026 -1.65614e-20)
(1.02182 0.0101384 0)
(1.05556 0.0934958 -1.54636e-20)
(1.10749 -0.0287018 6.76578e-20)
(0.0925076 -0.144787 1.86156e-19)
(1.09725 -0.0478912 -2.02076e-20)
(1.02947 0.174799 8.75126e-21)
(1.07525 0.0582857 -2.4555e-21)
(-0.0554004 0.0534364 -4.70321e-20)
(1.05999 0.127601 0)
(1.13425 -0.113582 0)
(-0.11007 -0.0126608 0)
(1.2835 -0.00363845 0)
(0.940932 0.0414651 -1.16448e-20)
(0.784811 -0.0269162 5.50607e-21)
(1.00004 0.00232526 -7.37134e-21)
(1.11299 -0.0575614 0)
(1.0851 -0.044783 -8.45793e-23)
(1.0834 -0.0445292 2.49128e-20)
(1.05736 0.0179397 1.09769e-20)
(1.11992 -0.0234615 6.01729e-20)
(1.03045 0.0192618 0)
(0.839137 -0.00487088 3.03236e-20)
(1.04866 0.16705 8.06919e-21)
(-0.282368 -0.000685794 0)
(1.08406 -0.0451219 1.90626e-20)
(1.01255 0.0528571 -1.36312e-21)
(0.951219 -0.114346 0)
(1.01968 0.195816 -2.52089e-21)
(0.372717 -0.0407232 -2.86994e-20)
(0.164111 0.101376 -1.66507e-19)
(0.854829 -0.10007 3.71189e-20)
(1.012 0.024731 -1.31315e-22)
(1.181 0.113744 -4.52289e-20)
(1.116 0.102086 -3.06704e-20)
(1.02359 0.0116193 2.52545e-21)
(1.0004 0.00450181 -7.06829e-21)
(0.938424 0.110844 3.21027e-20)
(0.691239 -0.0515106 4.24815e-24)
(1.25703 0.117825 -1.64492e-21)
(0.00263252 0.0539781 -8.77937e-20)
(1.1127 0.0346051 1.85437e-20)
(1.08344 -0.0477865 0)
(1.08322 -0.0882012 0)
(-0.0358905 0.0157069 4.15516e-20)
(1.2528 0.15766 -5.9066e-20)
(0.999788 0.00724919 -7.24617e-21)
(0.565354 0.0660053 -6.45843e-22)
(0.795527 0.0352089 1.07e-20)
(1.0069 0.000270109 0)
(1.02215 0.0225072 -3.52474e-21)
(0.883315 0.443907 4.5321e-21)
(1.23807 0.470078 5.81858e-20)
(1.0711 -0.0053752 4.50102e-21)
(1.00305 0.000643948 -2.87222e-21)
(1.1133 -0.0228374 -1.1733e-22)
(1.10572 -0.0284257 -6.27209e-20)
(-0.115963 -0.0157308 -1.53693e-20)
(1.24506 -0.0497001 0)
(0.991878 0.0101715 6.90766e-21)
(0.994853 0.0288357 -8.85291e-21)
(1.13226 -0.0144845 -5.62374e-20)
(0.730027 -0.0681955 2.3452e-20)
(0.965082 0.0202056 -3.65045e-20)
(0.627283 -0.072145 1.86013e-20)
(-0.166181 -0.0097114 0)
(1.08388 -0.0482678 0)
(1.01512 0.0113526 -5.3019e-22)
(0.498559 0.414165 -4.20414e-20)
(1.12468 -0.012369 0)
(-0.24732 -0.00639545 -7.62678e-20)
(1.0028 0.0172195 0)
(0.785076 0.063962 5.14709e-20)
(1.01163 0.0238435 -8.44229e-22)
(1.18356 0.0572472 5.13191e-20)
(1.00787 0.000911412 0)
(0.15181 -0.0484318 -3.48442e-21)
(0.551985 -0.0702283 3.68378e-20)
(0.997186 0.0888522 1.01588e-21)
(1.20799 0.470433 -6.68636e-20)
(1.07818 0.0571313 0)
(1.01447 0.0109314 -1.30564e-21)
(1.06281 -0.0665464 0)
(1.08387 -0.0450251 -1.56499e-20)
(1.11129 0.0322365 0)
(0.821524 -0.0924615 0)
(-0.187598 -0.00703559 2.15949e-20)
(1.01146 0.00272261 0)
(1.06343 0.0853216 2.04688e-20)
(0.0338551 -0.0379798 0)
(-0.138415 0.0181446 6.26501e-20)
(1.00001 0.00261251 6.90357e-21)
(1.00588 0.00850881 0)
(0.41652 -0.00227144 4.18475e-20)
(1.12013 -0.0633138 2.03879e-20)
(1.00004 0.000132822 0)
(1.07026 -0.0577263 0)
(1.17015 -0.000221264 3.68581e-20)
(0.794637 -0.0319896 -1.15674e-20)
(1.09399 0.100162 -1.11571e-20)
(1.00006 0.00252919 -6.30232e-21)
(0.983322 0.201348 -6.85795e-21)
(-0.154973 -0.00890512 0)
(1.03788 0.00236928 0)
(1.19774 0.128691 -2.5e-20)
(0.573107 0.177695 0)
(1.0324 0.0246888 5.48999e-21)
(0.994997 0.0263493 2.85496e-21)
(1.0953 -0.0414727 0)
(0.439733 -0.00650514 0)
(1.09699 -0.0465531 4.42859e-20)
(0.939374 0.115511 0)
(0.976712 0.09365 0)
(1.00004 0.000232413 4.88423e-21)
(0.227059 -0.0123688 0)
(0.746453 -0.0392732 -7.47537e-20)
(1.06413 -0.044467 -3.91934e-20)
(1.01405 0.0111577 2.76392e-22)
(-0.140087 -0.0127823 1.20922e-19)
(0.0585284 -0.0132096 0)
(1.12993 -0.117027 -1.48257e-20)
(0.617966 -0.0326984 1.75507e-20)
(1.08291 -0.0460063 -1.47043e-20)
(1.00007 0.00311709 -5.00472e-21)
(1.00598 0.000773761 -7.46396e-22)
(1.13172 0.00456842 -3.4925e-22)
(0.0564683 -0.0344698 2.20217e-21)
(1.15701 -0.0398079 -9.00603e-20)
(1.06745 0.0384363 -1.36853e-20)
(1.25728 -0.0491113 2.7395e-20)
(1.07261 -0.037183 1.46881e-20)
(1.01658 0.00102322 0)
(1.04492 0.01502 -4.66633e-20)
(1.0019 0.00437214 3.32516e-21)
(0.916413 -0.113662 -4.5702e-20)
(1.0694 -0.00491024 -3.89309e-21)
(1.00007 0.000135572 -1.16066e-21)
(1.0013 0.105625 0)
(1.02396 0.176795 -1.19011e-21)
(0.785086 -0.0145301 6.96345e-20)
(1.06685 -0.0594758 2.15147e-21)
(0.999873 0.140939 6.08115e-21)
(1.04077 0.00811324 1.55615e-20)
(1.23422 0.00771821 0)
(0.831813 -0.0943759 -2.28867e-20)
(0.647002 -0.0414787 0)
(1.00252 0.0167322 4.74795e-21)
(1.13423 -0.121264 -4.85077e-20)
(0.998429 0.000571041 -3.58655e-22)
(1.04078 0.00725906 3.0189e-20)
(1.0009 0.0122942 -6.0946e-21)
(0.82684 0.620513 0)
(1.00159 0.000797649 0)
(1.18827 0.0568887 -5.78939e-20)
(1.08953 0.100171 1.78864e-20)
(1.03002 0.0183669 -3.72522e-21)
(1.11276 -0.0249485 5.68707e-22)
(1.03708 0.0535632 -9.0074e-21)
(0.114085 0.0630677 0)
(1.01865 0.1907 -1.39731e-21)
(1.17023 0.116912 -5.25842e-20)
(1.02845 0.0127345 3.46542e-21)
(0.99566 0.0254512 -5.52344e-21)
(-0.167881 -0.00966386 -1.48041e-19)
(0.208733 -0.0175986 0)
(1.00102 0.0135185 0)
(1.00679 0.000811927 0)
(1.09795 0.0236977 0)
(1.01509 0.0232993 0)
(-0.0604955 -0.0224425 7.05976e-22)
(1.02758 0.0126658 -6.13568e-21)
(0.168856 -0.0508844 -7.42909e-21)
(1.04316 -0.0050422 1.01167e-20)
(1.22048 0.311778 -5.41312e-20)
(1.0957 -0.00168155 -7.79407e-20)
(0.111958 0.287971 3.42378e-21)
(0.944707 0.0411849 1.0051e-20)
(1.29069 -0.0010225 0)
(0.514265 0.30641 2.55403e-20)
(1.00422 0.103351 4.20467e-21)
(1.12278 -0.0624348 -7.01674e-20)
(0.966679 0.521882 0)
(0.995985 0.0411105 0)
(0.278431 -0.040837 0)
(0.573246 0.0448648 0)
(0.0642384 -0.0174099 0)
(0.922869 0.0173837 -3.23365e-20)
(0.337588 -0.00670765 -3.44771e-20)
(1.06944 0.0832601 1.62135e-20)
(-0.0535175 -0.00807686 0)
(0.532243 0.284996 -1.93724e-20)
(0.929158 0.350902 0)
(0.945286 0.345392 0)
(0.670257 -0.0850976 -2.28971e-20)
(0.999752 0.00283142 1.05152e-20)
(1.05505 0.170006 -3.11946e-20)
(-0.108356 -0.0127459 0)
(0.982969 0.0278062 0)
(1.00247 0.0684839 -7.13474e-21)
(0.0907573 -0.0149057 0)
(0.870544 0.47918 0)
(1.01718 0.0497715 -1.71429e-23)
(1.08847 -0.085943 2.07995e-20)
(0.710703 0.547743 0)
(1.0088 0.00462107 1.34566e-22)
(0.273625 -0.0086553 0)
(1.06991 -0.0773441 2.59598e-20)
(1.00203 0.0046933 1.01982e-22)
(1.00906 0.0120562 0)
(0.998606 0.000446608 -2.86793e-21)
(1.02217 0.00977759 0)
(1.23246 0.00531791 -2.79604e-20)
(0.895444 -0.106066 0)
(0.385455 -0.274987 0)
(-0.131106 -0.0113749 -1.2688e-19)
(0.997985 0.0135448 -6.63089e-21)
(1.20444 0.127596 3.09054e-20)
(-0.195572 0.0210713 -1.38933e-19)
(1.10529 -0.0130791 -9.40264e-20)
(0.604889 -0.0695782 -1.0429e-20)
(0.0876357 -0.0416668 -1.88147e-21)
(0.513294 -0.0702726 -3.80663e-20)
(1.01262 0.00499188 1.23687e-21)
(1.06774 -0.0445816 2.87935e-20)
(1.01017 0.0115544 -8.16e-23)
(0.924916 0.0787343 5.84581e-22)
(1.03472 0.0226773 -7.01268e-21)
(0.0861562 0.336387 1.08002e-19)
(1.17324 0.00191127 0)
(1.0598 -0.00973185 -9.88515e-21)
(0.999608 0.00337214 1.06959e-20)
(1.12982 -0.0128656 5.00401e-20)
(1.18687 0.114552 0)
(1.15128 -0.00370949 0)
(0.331175 1.10949 7.26615e-20)
(-0.0997181 -0.00811418 0)
(-0.275782 -0.00391696 4.91478e-20)
(0.988638 0.209251 2.06189e-21)
(1.13491 0.138371 6.90126e-20)
(1.00558 0.00808745 6.89821e-22)
(-0.111896 0.0188591 -5.99027e-20)
(0.602941 -0.0586949 1.49868e-20)
(0.999468 0.0314438 9.12253e-21)
(1.25534 0.0009455 0)
(0.995788 0.00981011 0)
(1.21712 -0.0312477 0)
(1.04329 -0.00456195 5.5881e-21)
(0.999813 0.00241094 -5.19854e-21)
(1.0327 0.056687 4.65526e-21)
(0.644782 -0.0222551 0)
(1.031 0.0569857 -3.93484e-21)
(0.460657 -0.00849226 1.50551e-20)
(-0.0574435 0.0328765 -2.11779e-19)
(1.08768 -0.05669 4.89736e-20)
(0.445454 0.28706 1.4814e-20)
(0.997672 0.0407893 -3.80215e-21)
(0.499981 0.370912 -5.08864e-20)
(0.471983 0.311754 -1.55541e-20)
(1.00207 0.00930926 -2.82839e-21)
(0.83487 0.480483 0)
(0.984348 0.0276068 0)
(0.994566 0.011677 0)
(1.19074 0.0839983 0)
(1.00007 0.000350792 -2.1493e-21)
(0.993905 0.0134283 -3.86885e-21)
(1.01039 0.0113461 0)
(1.23814 0.00870137 2.55494e-20)
(0.999957 0.00179191 0)
(0.347775 -0.00826863 3.78631e-20)
(0.73714 -0.0283117 -1.19677e-20)
(-0.131343 0.0136225 -1.67289e-20)
(1.249 0.164324 1.98373e-21)
(0.463394 -0.0159678 -6.79823e-21)
(-0.232003 -0.007848 -4.21362e-20)
(1.10319 -0.0132597 1.25471e-19)
(0.998338 0.0129317 1.36454e-22)
(1.20473 0.000173462 0)
(1.05659 -0.0156098 -1.52459e-21)
(1.06831 0.0905543 0)
(0.999783 0.00768088 -4.1369e-21)
(0.827589 -0.102536 -2.48407e-20)
(0.668171 -0.06638 -1.82944e-20)
(0.784631 -0.0291538 1.15317e-21)
(0.985009 0.0841954 -2.00995e-20)
(1.17394 -0.0107487 0)
(0.926183 0.0144771 5.54073e-20)
(1.05805 -0.017359 0)
(1.1489 -0.00514701 0)
(1.01908 0.0584543 1.97026e-21)
(1.06733 -0.0413462 -2.71411e-22)
(1.0175 0.0432498 0)
(1.00157 0.0009398 7.37601e-23)
(-0.0245949 -0.0263814 0)
(0.36947 -0.037544 3.35882e-21)
(0.390305 -0.0405004 0)
(1.18407 0.19829 4.9103e-20)
(-0.140901 0.009901 7.5969e-20)
(0.30675 -0.047731 1.42144e-20)
(-0.0612724 -0.0187882 5.69727e-22)
(-0.0335062 -0.0188317 -4.2392e-20)
(1.01595 0.00170628 0)
(1.1326 -0.0048741 -5.15331e-20)
(1.02104 0.0582851 -1.16838e-21)
(0.992591 0.0293882 3.6344e-21)
(1.2314 -0.0419355 2.51628e-20)
(1.13396 0.00605499 -1.29963e-20)
(1.01723 -9.54467e-05 2.80123e-21)
(1.15411 0.0388593 3.57481e-21)
(1.10455 -0.00821886 -2.51325e-20)
(-0.0182498 -0.016387 0)
(1.00223 0.0096731 6.73838e-21)
(1.13484 -0.0514766 1.82692e-20)
(-0.00413702 0.0154489 -1.69389e-19)
(1.24246 0.326028 0)
(0.35322 -0.0124915 0)
(0.999956 0.00156395 -4.15116e-21)
(0.998354 0.0318856 -5.71412e-21)
(1.01057 0.000379031 0)
(1.05508 0.13147 0)
(1.01255 0.00462833 -4.85814e-22)
(0.744515 -0.0481617 4.48833e-21)
(0.397132 -0.235619 0)
(1.00267 0.135547 0)
(-0.0691197 0.028434 9.78703e-20)
(1.08166 0.0311388 4.84358e-20)
(1.11045 -0.0586037 0)
(-0.016882 -0.0207637 0)
(0.835128 0.580406 5.41094e-22)
(1.08741 -0.0554874 -2.58283e-20)
(1.06804 -0.0730226 4.53264e-21)
(1.13338 -0.0532411 0)
(1.15304 0.0558353 -3.99922e-20)
(1.19443 -0.0176276 -5.45419e-20)
(1.08673 -0.0285643 0)
(1.08045 -0.0524268 0)
(0.376767 0.113121 2.04486e-20)
(1.08285 -0.0350137 -3.55367e-22)
(1.13353 -0.0334864 -5.89096e-22)
(1.01371 0.000626156 -1.33736e-21)
(1.26766 -0.0180597 -3.15057e-20)
(1.08424 0.0128791 -1.14481e-20)
(1.02782 0.00292219 3.0391e-21)
(1.05061 0.128179 1.02222e-20)
(1.0537 0.0221683 -1.01695e-21)
(-0.0172766 -0.0201427 0)
(0.564444 -0.0790587 4.08767e-20)
(1.01441 0.0223748 -3.22676e-23)
(1.01647 0.000823014 1.7068e-21)
(0.790072 -0.0622318 2.6344e-20)
(-0.255521 -0.00489204 2.486e-20)
(1.00006 0.000265631 -4.74699e-21)
(0.331192 -0.00861401 0)
(1.05309 0.0028322 -8.86944e-21)
(1.23619 0.145703 4.77369e-20)
(1.01383 0.0241954 -9.44525e-24)
(-0.147978 -0.0112006 -3.91844e-20)
(1.19742 -0.105051 5.87128e-20)
(1.05836 0.0911359 -1.20379e-21)
(1.03574 0.0349492 -1.38472e-20)
(0.487961 -0.0187643 5.7562e-21)
(1.24719 0.11732 4.72038e-20)
(-0.259377 0.0103667 -1.29766e-22)
(1.00004 0.000315394 -2.85005e-21)
(-0.15455 -0.0106379 -6.36317e-20)
(0.136487 0.0625608 0)
(1.07473 0.0246417 0)
(1.02797 0.00334925 -1.84153e-21)
(-0.124197 0.0129817 -1.80182e-19)
(0.387536 -0.0393042 1.34852e-19)
(1.10231 -0.0164661 -1.34855e-20)
(1.00957 0.0120662 -2.12867e-22)
(1.00885 0.0443508 3.4301e-21)
(1.08185 -0.0470332 2.36183e-20)
(1.21298 -0.035463 -6.78989e-20)
(1.01768 -8.71824e-05 5.53109e-22)
(1.00861 0.0114337 5.80302e-22)
(1.00481 0.00226543 -1.71093e-21)
(1.00511 0.00237343 -4.098e-22)
(-0.167699 -0.011297 -7.3888e-20)
(1.2307 -0.0372704 -2.63773e-20)
(1.10206 -0.0151773 1.22636e-20)
(1.25435 0.10538 0)
(1.00601 0.000605399 8.30925e-22)
(1.01019 0.0049733 2.82785e-22)
(1.17025 -0.0123269 3.4056e-20)
(0.227099 -0.0398557 7.83441e-20)
(1.10346 0.0455108 -3.09836e-21)
(1.03154 0.019476 6.5675e-22)
(0.994902 0.012142 0)
(0.99253 -0.00100147 0)
(1.01379 0.0150879 0)
(0.0149284 0.0180235 1.31312e-19)
(1.00055 0.00391179 -2.41051e-21)
(0.992728 0.00194521 9.27294e-23)
(1.06865 -0.0427397 0)
(1.08731 -0.0273508 2.13107e-20)
(1.09465 -0.00287043 -3.36608e-20)
(0.997388 0.0304893 1.05818e-20)
(1.0284 0.0598204 -3.2189e-21)
(1.04424 0.0901277 2.54205e-21)
(1.13093 -0.0338558 0)
(0.961802 0.495093 7.67493e-22)
(1.25971 0.112872 0)
(1.20578 -0.00383816 3.52153e-20)
(1.1557 -0.0268591 -4.18679e-20)
(1.24799 -0.0550746 -5.2311e-20)
(1.1695 0.110192 -4.34848e-22)
(1.00173 0.016181 0)
(-0.141092 -0.011228 0)
(0.992866 -0.00147954 -6.09616e-21)
(1.00313 0.0713271 7.84931e-21)
(1.06219 -0.00305453 0)
(1.26402 -0.0199156 0)
(0.999572 0.285889 6.96068e-21)
(1.00943 0.00110723 6.64318e-23)
(1.24441 0.314484 0)
(1.20002 0.0722153 3.60957e-20)
(-0.0942229 -0.000711319 -2.01399e-21)
(1.15751 -0.0246519 0)
(0.8903 0.133706 0)
(1.10678 -0.00916997 0)
(0.999482 0.00364013 -5.58007e-21)
(0.574051 -0.0422806 0)
(1.23203 0.304516 6.20714e-20)
(0.483942 -0.0777017 0)
(1.01683 0.0411438 0)
(1.09298 0.0358561 8.81259e-21)
(1.25715 0.101067 1.39696e-20)
(0.0954527 -0.044533 0)
(-0.195596 0.00324929 6.61817e-22)
(1.13765 -0.0147043 9.05039e-22)
(1.19293 0.199422 9.35947e-21)
(0.992277 0.0845326 0)
(1.05505 0.0522824 -1.57078e-21)
(0.996298 0.0309647 -6.61986e-21)
(0.89415 0.229881 2.50911e-20)
(0.674175 0.184203 0)
(0.973976 -0.00456972 -4.03852e-21)
(1.12206 -0.0134755 0)
(0.57169 0.152265 0)
(0.500158 -0.0805188 -2.27104e-20)
(-0.252677 0.012207 1.54409e-19)
(1.03165 0.069545 -1.79951e-21)
(1.10877 -0.0572769 -2.02442e-21)
(1.18359 -0.101655 -7.09652e-20)
(1.00598 0.113592 -1.24899e-21)
(0.968598 0.0221929 -1.69312e-20)
(0.176793 0.550681 1.09808e-19)
(0.758264 -0.0676462 0)
(0.748709 -0.103371 3.95346e-20)
(1.24862 0.0901962 -9.86774e-20)
(1.01656 0.00176996 -4.67625e-22)
(0.277836 -0.0123203 2.19035e-20)
(1.08169 -0.0462142 0)
(1.00935 0.000825269 -5.66571e-23)
(1.09231 0.0675978 0)
(1.11365 -0.0408058 3.01032e-20)
(0.848743 0.0692677 -4.84657e-20)
(1.1886 0.0749866 9.66421e-20)
(0.628041 -0.0377322 -4.55509e-21)
(1.19064 -0.0184206 5.91995e-20)
(1.08366 -0.0253213 2.34895e-20)
(0.575357 -0.0420552 0)
(1.05608 0.0279795 -2.11905e-20)
(-0.0554299 -0.0152338 9.33426e-20)
(1 0.00232719 -7.11216e-21)
(1.00055 0.00418621 8.08357e-22)
(1.12219 -0.122333 2.7854e-20)
(0.728831 -0.069045 -3.5004e-20)
(0.378969 0.245374 0)
(1.05653 0.0265752 -1.14895e-20)
(1.01378 0.0509746 1.70158e-22)
(0.993152 0.0024078 0)
(1.07381 -0.0372214 9.74142e-21)
(0.078635 0.180365 -1.59447e-19)
(1.08371 -0.0446882 -1.16129e-22)
(1.05729 0.0525823 0)
(1.08822 -0.0544473 -3.01001e-21)
(1.12714 -0.0141728 -4.40886e-20)
(1.0137 0.0248814 0)
(1.18596 0.480124 0)
(1.08399 -0.0446742 -9.80449e-23)
(1.07503 -0.0329865 -1.59072e-20)
(1.00448 0.0185592 1.07253e-21)
(1.18584 -0.0234738 0)
(1.05297 0.0237333 8.96002e-21)
(-0.0112148 0.0447642 3.348e-19)
(1.14684 0.137447 -7.1775e-20)
(1.01015 0.278528 -6.32489e-21)
(1.09425 0.0376551 2.62578e-21)
(1.00743 0.00264691 6.09487e-23)
(1.02604 0.00535929 0)
(1.03391 0.0263901 -3.36922e-21)
(0.976281 0.350306 3.30491e-21)
(0.89157 0.0178926 0)
(1.24578 0.0359786 -1.00919e-19)
(0.479341 0.81926 -1.71422e-21)
(1.12047 -0.0211092 -6.28635e-20)
(1.00837 0.00459901 6.87748e-23)
(1.19454 -0.0105075 3.87091e-20)
(0.376316 0.276189 6.63491e-20)
(1.06924 -0.0772272 0)
(1.03723 0.00286106 -3.18455e-21)
(0.901179 0.0307063 -4.94769e-20)
(1.00811 0.0113839 -4.15381e-22)
(1.07014 -0.0188907 0)
(1.07135 0.0399005 -4.73799e-20)
(0.363188 -0.0397486 -1.20173e-19)
(0.999881 0.00246753 2.37262e-22)
(1.25732 0.496616 4.61742e-20)
(1.07155 -0.016315 -1.35203e-24)
(1.08916 -0.062423 -2.49749e-20)
(1.17382 0.131309 -6.37683e-20)
(-0.0992295 -0.0163437 -9.28236e-20)
(1.03304 0.275755 -1.3343e-20)
(1.00844 0.0427419 -4.92803e-21)
(0.0143585 -0.0302947 9.46283e-22)
(-0.266172 -0.00283328 -7.99305e-20)
(1.0061 0.0326609 0)
(1.06111 -0.00369953 0)
(1.21053 -0.0945849 -2.06716e-20)
(1.24168 0.0929896 4.21833e-20)
(1.15368 -0.0399684 6.37784e-20)
(1.00016 0.000390358 -2.51439e-21)
(1.03695 0.0348633 1.00547e-20)
(1.20752 0.303274 9.46237e-20)
(1.06029 -0.010625 -9.6718e-21)
(1.1513 5.10845e-05 6.35813e-20)
(1.09509 -0.0399322 3.0129e-20)
(1.02664 0.00521589 -3.34287e-21)
(1.10311 -0.0303532 -3.0281e-20)
(0.742355 -0.0892139 7.95819e-22)
(1.03667 0.00155213 2.49226e-23)
(1.04856 -0.00741769 0)
(1.0043 0.00239968 5.82467e-22)
(0.208144 -0.0155906 0)
(0.999958 0.001069 7.47288e-21)
(0.985282 0.080337 2.04758e-20)
(-0.277117 -0.00322754 -9.80325e-20)
(0.993961 0.0651674 -6.96771e-21)
(0.790742 -0.0699719 2.48485e-20)
(1.07429 0.060999 -2.55377e-21)
(0.833653 0.0736601 2.18989e-21)
(1.00461 0.00251791 5.31127e-22)
(1.02743 0.210046 1.0427e-20)
(1.00065 0.0116117 2.33545e-21)
(1.15142 0.0639193 -1.40269e-20)
(1.00712 0.00158717 0)
(1.091 0.253848 1.35541e-22)
(1.0529 0.00352244 6.09461e-23)
(0.264321 0.152804 9.74362e-20)
(0.439928 0.692901 4.46114e-20)
(0.224314 -0.03924 0)
(1.01015 0.000362944 -1.49737e-21)
(0.999687 0.00304482 -1.29456e-20)
(1.16384 0.107475 0)
(1.12549 0.104979 8.15286e-23)
(0.138139 -0.02109 -2.76957e-20)
(0.359025 -0.0566846 7.08341e-20)
(1.13689 0.0147865 -1.19383e-20)
(0.992885 0.0105024 3.38737e-22)
(1.23623 0.00669253 0)
(0.345698 0.220507 0)
(1.0742 -0.0345974 3.52697e-20)
(1.23942 0.0384839 4.7123e-20)
(1.12679 0.00118248 6.72909e-22)
(0.658251 -0.0306992 0)
(1.08765 0.123713 3.26773e-20)
(1.07202 -0.0360354 -2.79225e-20)
(1.20102 0.0130134 0)
(0.864947 0.422994 -1.16278e-20)
(1.13537 0.0168388 0)
(0.307248 0.297223 2.63181e-19)
(1.13614 0.0230595 -1.98158e-20)
(1.05415 -0.00671237 0)
(1.11469 -0.0425782 -3.4464e-20)
(1.00837 0.104751 1.14432e-21)
(1.03109 0.00404715 8.29004e-21)
(1.07013 -0.0179996 0)
(1.11316 0.113285 7.14524e-20)
(1.05143 0.0920927 -1.35686e-20)
(0.999545 0.0114882 -8.83875e-21)
(1.00642 0.000480118 1.36932e-22)
(1.12391 -0.0181267 3.62805e-20)
(1.05911 0.00813527 5.91469e-21)
(1.1545 0.00140256 -6.92926e-20)
(0.993573 0.0101809 2.90241e-21)
(0.99539 0.00779559 1.55195e-22)
(0.999965 0.000846518 -8.15341e-21)
(1.02437 0.0600219 -3.87376e-21)
(1.02151 0.0010684 -5.52417e-21)
(1.04918 0.0782083 -1.18782e-20)
(1.00382 0.00253285 0)
(-0.155714 -0.0105661 -3.92983e-20)
(1.0827 -0.0422536 2.37349e-20)
(0.469936 -0.281787 -1.0589e-19)
(1.01147 0.00469061 3.43537e-21)
(1.00007 0.0017315 -5.4197e-21)
(0.805702 0.144305 1.36097e-19)
(1.15626 0.0536085 7.5862e-20)
(0.954211 0.00159354 3.06847e-20)
(0.908256 -0.00117152 -5.67555e-21)
(1.13922 0.187867 3.74496e-20)
(1.11412 0.107398 1.20483e-21)
(1.07147 -0.0172338 0)
(1.1808 -0.0128969 0)
(1.04847 0.0129125 -1.17997e-20)
(0.99991 0.00110502 -3.07301e-21)
(1.00535 0.0021179 8.94589e-22)
(1.03543 0.0546038 1.08647e-20)
(-0.313123 -0.00102913 0)
(1.00006 0.00146303 2.73373e-21)
(1.23736 -0.0633769 1.53951e-22)
(1.05061 0.0805066 -4.28579e-21)
(-0.194085 0.0242989 8.11319e-20)
(0.972297 0.221192 7.30597e-21)
(1.1463 0.185516 -4.18601e-20)
(1.08892 -0.0611835 3.19108e-20)
(1.01948 0.00574469 -1.5835e-21)
(1 4.40533e-05 2.32209e-21)
(1.08345 -0.0423521 -2.54307e-20)
(0.988416 0.00250772 -2.06933e-20)
(0.985913 0.0405166 -5.32939e-21)
(1.04974 0.000553768 -1.98188e-20)
(1.01359 0.0547297 0)
(0.99866 0.00110777 0)
(1.08373 0.0488927 0)
(1.00601 0.00727437 0)
(1.0155 0.000794063 3.71955e-21)
(1.05763 0.0870295 0)
(0.886026 -0.0251211 -6.51854e-20)
(0.117466 -0.0146211 -1.59567e-20)
(1.08215 0.104202 0)
(1.03661 0.00113341 -2.95098e-23)
(1.00864 0.000871643 2.26849e-22)
(0.131561 -0.0513697 0)
(0.961806 0.358361 0)
(1.00217 0.0395069 -2.44757e-21)
(1.01779 0.0405214 2.42737e-22)
(1.00304 0.00369145 -4.26714e-20)
(1.20196 -0.098382 9.7888e-20)
(-0.286685 -0.00462948 -4.88393e-20)
(0.898097 0.13403 6.40805e-20)
(1.05508 -0.0060849 0)
(1.01111 0.00282741 1.61413e-21)
(1.01572 0.000935953 -5.80069e-21)
(1.08404 -0.0351389 2.49305e-20)
(1.08678 0.105018 -1.8972e-20)
(1.10275 -0.0874934 0)
(0.918934 0.0173743 4.60697e-20)
(0.252333 -0.0348633 0)
(1.02776 0.0399951 5.25446e-21)
(0.966156 0.0564477 0)
(-0.296386 -0.0015447 -1.1046e-19)
(0.995603 0.00925684 0)
(1.08509 0.0112457 0)
(1.00497 0.0294013 1.5721e-21)
(1.00199 0.00119012 -1.96083e-21)
(1.10624 0.119057 3.63197e-20)
(0.77516 -0.00803973 -1.19873e-19)
(1.04691 0.0247387 7.02734e-21)
(0.756269 -0.0707395 0)
(0.40822 -0.00633752 1.94122e-20)
(1.17779 0.126248 -2.05748e-20)
(1.00203 0.016765 -3.25721e-21)
(1.02326 0.00232904 -2.46529e-21)
(1.08345 -0.0467961 -1.08161e-20)
(1.24517 -0.0585982 2.94166e-20)
(1.00007 0.000435629 -4.48478e-23)
(1.22699 -0.0614556 5.40649e-20)
(1.02281 0.00247111 0)
(1.10946 0.108425 -1.0003e-21)
(1.0315 -0.0013581 7.61084e-21)
(1.03223 0.00548196 -2.08484e-22)
(1.21485 -0.0338021 8.29482e-20)
(1.03771 0.014019 0)
(1.04444 -0.0261731 -1.67623e-22)
(1.11345 0.0813033 1.62012e-20)
(0.999959 0.000788332 2.45326e-22)
(1.01879 0.00304606 -1.39388e-21)
(0.981652 0.000397958 0)
(1.00927 0.0188041 2.03629e-21)
(1.04822 -0.00651151 1.06601e-20)
(0.275975 0.695891 0)
(1.03564 0.00320032 -1.20274e-20)
(1.02893 0.00925083 0)
(0.459872 -0.0872348 -1.6013e-20)
(0.707841 -0.0917373 6.6535e-20)
(1.08476 -0.0265937 -1.00051e-20)
(1.12028 0.106516 1.99469e-21)
(1.14336 -0.00847218 0)
(1.07332 0.0198557 0)
(1.02307 0.013154 0)
(0.889142 0.01062 0)
(-0.12348 -0.0148546 6.09672e-20)
(1.10089 0.254868 0)
(0.998366 0.00514042 -6.52325e-21)
(1.03444 0.0341451 1.04069e-20)
(0.396415 -0.0611642 -4.17859e-20)
(1.10887 0.0128842 0)
(-0.0797135 -0.0138916 1.44617e-19)
(0.999964 0.0010325 0)
(0.951838 0.00235351 0)
(0.186808 -0.0126964 0)
(1.10097 0.00774783 0)
(1.04884 0.0232623 0)
(-0.31191 0.000691314 1.29463e-19)
(0.214252 0.24366 3.03496e-20)
(1.00951 0.0182902 -8.84612e-22)
(1.19688 0.0142391 -6.94734e-20)
(1.00565 0.0022242 2.20018e-22)
(1.03664 0.0140548 3.07179e-21)
(1.01181 0.00493743 -1.99942e-21)
(-0.111876 -0.0159044 0)
(1.02115 0.000949506 -3.6009e-21)
(1.03562 -0.00335409 -6.77155e-21)
(1.02357 0.012737 4.41821e-21)
(0.995904 -0.0278424 -1.02319e-20)
(1.05652 -0.0135512 -1.94208e-20)
(1.23979 0.138818 -8.97397e-20)
(0.702099 -0.0932771 -7.70025e-20)
(1.03263 0.00389384 2.45793e-21)
(0.846442 0.0262653 -5.41544e-20)
(1.00057 0.00370547 0)
(-0.120091 -0.0116613 0)
(1.00525 0.00970962 0)
(1.03622 0.00271119 6.04597e-21)
(0.998717 0.00159248 1.32187e-21)
(1.08329 -0.04721 0)
(0.998544 0.00144514 0)
(1.18963 -0.0228262 -1.77549e-20)
(0.401807 -0.00239481 -2.07527e-20)
(0.854805 -0.0884809 -1.04609e-20)
(0.906031 0.0311421 4.21045e-20)
(1.07265 -0.0790871 3.04973e-20)
(-0.25079 -0.00510239 2.43795e-20)
(0.99679 0.0256325 5.09188e-21)
(0.257785 -0.00901607 -9.14086e-21)
(0.483206 0.0358324 -8.45131e-20)
(-0.227207 -0.00566372 0)
(0.453954 -0.0164986 3.31856e-21)
(0.437204 -0.0864562 3.37362e-20)
(0.118856 0.172539 5.8243e-20)
(1.19098 -0.00927233 -1.43093e-19)
(1.01047 0.0452689 0)
(0.612694 -0.0360164 1.03456e-20)
(1.10055 0.00973575 0)
(0.57058 -0.0574899 0)
(1.02737 0.00369538 -1.4833e-21)
(1.02274 0.0211405 4.65771e-21)
(1.00359 0.040419 -4.14952e-21)
(1.00062 0.00397959 2.40832e-21)
(1.07772 0.0151904 -1.15239e-20)
(0.893531 0.0898747 0)
(0.203365 -0.0237829 0)
(1.02255 0.02024 0)
(0.993986 0.00323124 0)
(-0.226667 0.0175687 2.3628e-19)
(0.983457 0.451184 -1.68115e-20)
(0.981831 -0.000860127 -2.42465e-20)
(0.812918 -0.0537018 1.19986e-21)
(1.09112 0.0504248 3.55425e-20)
(1.04267 0.0191297 5.01417e-21)
(0.50328 0.729908 0)
(0.806806 -0.0484659 4.77828e-20)
(0.953069 0.0488147 1.03138e-20)
(1.05699 -0.01294 0)
(0.385364 -0.00436142 2.06998e-20)
(-0.279875 -0.00109238 1.54249e-19)
(0.223524 0.0649837 -1.06132e-19)
(1.03112 -0.000958945 -9.67178e-21)
(1.2448 0.124728 0)
(1.19653 0.0686057 -4.74303e-20)
(-0.220723 0.00103514 -1.33317e-19)
(0.493407 -0.0672447 0)
(1.08364 -0.0452256 3.31038e-20)
(1.01485 0.0242222 2.24727e-22)
(1.04949 0.0135506 2.45186e-20)
(1.02643 0.0403384 2.33684e-21)
(1.01814 5.92474e-05 -1.8792e-21)
(1.02695 0.0610311 3.35694e-21)
(1.01591 0.00148606 -5.647e-21)
(1.0465 0.0885439 0)
(1.08356 0.123708 -1.88386e-20)
(-0.0474796 0.0274923 -4.9964e-20)
(1.13815 -0.0574213 9.08515e-22)
(1.03607 -0.0029432 7.19473e-21)
(1.17715 -0.0139376 -2.57177e-20)
(-0.0438646 -0.0199369 -1.53592e-20)
(1.1027 0.114096 2.42486e-20)
(0.972985 0.0222212 -2.8507e-20)
(-0.070825 -0.0128233 -3.42203e-20)
(1.02886 0.018073 3.83295e-21)
(0.986748 0.0385892 0)
(0.819812 0.0631003 -7.02777e-20)
(-0.00652548 0.035386 0)
(0.998461 8.24042e-05 3.94754e-21)
(1.00405 0.0188976 -5.69175e-21)
(0.608781 -0.0746325 2.06962e-20)
(1.07906 -0.0779867 -2.00148e-20)
(1.16834 -0.101934 -1.53892e-19)
(1.15656 -0.0326475 2.28298e-20)
(1.06436 -0.0702265 -2.14431e-20)
(1.00752 0.0177935 -1.24827e-21)
(1.20249 -0.0099554 0)
(0.972084 0.0240054 7.88773e-21)
(1.00346 0.0100987 2.57995e-21)
(0.969918 0.0200788 8.35967e-21)
(0.707041 -0.0497857 7.94724e-21)
(-0.262865 -0.00546993 1.03939e-19)