/*--------------------------------*- C++ -*----------------------------------*\
| =========                 |                                                 |
| \\      /  F ield         | OpenFOAM: The Open Source CFD Toolbox           |
|  \\    /   O peration     | Version:  v2012                                 |
|   \\  /    A nd           | Website:  www.openfoam.com                      |
|    \\/     M anipulation  |                                                 |
\*---------------------------------------------------------------------------*/
FoamFile
{
    version     2.0;
    format      ascii;
    class       volScalarField;
    location    "700";
    object      k_0;
}
// * * * * * * * * * * * * * * * * * * * * * * * * * * * * * * * * * * * * * //

dimensions      [0 2 -2 0 0 0 0];


internalField   nonuniform List<scalar> 
13917
(
0.000166142
0.000149156
0.00332039
0.000154018
0.000148708
0.000192649
0.00764985
0.00377938
0.0788559
0.00017443
0.000239445
0.000192421
0.000154174
0.0193652
0.000155193
0.000154194
0.000149526
0.000180346
0.000191555
0.000148675
0.000149756
0.00855789
0.000148605
0.00244267
0.000148438
0.010704
0.0001616
0.000164296
0.000209999
0.000189034
0.000167942
0.000158517
0.000160048
0.000154459
0.000148568
0.000337653
0.000148652
0.0465145
0.000157179
0.0115096
0.000147748
0.000149896
0.000145049
0.000168232
0.000149036
0.000155815
0.000180076
0.00019178
0.000392101
0.000147999
0.000159559
0.000149788
0.000470291
0.000154793
0.000149575
0.000158949
0.000239008
0.00014863
0.000155817
0.000148827
0.0776287
0.000149174
0.0101693
0.000148601
0.000191436
0.0391096
0.000148651
0.000148535
0.000245076
0.000163424
0.000148754
0.0740181
0.0635394
0.000148446
0.000396112
0.000198801
0.0461852
0.000151391
0.014378
0.00014954
0.000149313
0.000148692
0.000188922
0.0472197
0.0411799
0.000151137
0.000149144
0.0190547
0.00015914
0.000145023
0.0667259
0.000181945
0.000147846
0.000151108
0.0279039
0.000189125
0.000219535
0.000188086
0.000227116
0.000170334
0.000146767
0.000158617
0.000168097
0.000152628
0.000146844
0.0861861
0.000195248
0.00019348
0.000149557
0.000168839
0.0618584
0.0120826
0.000202618
0.0858589
0.000151105
0.000405902
0.00014825
0.000260318
0.020806
0.00015472
0.000149808
0.000242405
0.026574
0.000163655
0.000147843
0.00015079
0.000148791
0.000147905
0.000145119
0.000191305
0.0322801
0.00015094
0.000149124
0.000149811
0.0515726
0.0024231
0.000166185
0.000170911
0.000148618
0.000154582
0.000318861
0.000146932
0.000150309
0.000170414
0.000148558
0.0584865
0.000214035
0.000149641
0.000146597
0.000158964
0.000185882
0.000413263
0.000203681
0.000163896
0.000158382
0.022995
0.000162582
0.000344782
0.0382434
0.0508437
0.000152953
0.000161752
0.00014954
0.000217407
0.000201795
0.000226158
0.000152539
0.000187087
0.000148172
0.000159048
0.000164644
0.0279075
0.000206345
0.000150359
0.0227444
0.000165081
0.0319367
0.000304774
0.0499694
0.000147995
0.000183691
0.00016899
0.000146887
0.000149083
0.000157948
0.00562231
0.000260334
0.0278617
0.000169265
0.000221539
0.000334906
0.0447069
0.000226432
0.000148684
0.000171979
0.00016129
0.000154943
0.000147906
0.000182303
0.00572908
0.000158704
0.000148099
0.0001848
0.000185484
0.0562022
0.0145036
0.000148557
0.000148698
0.000187535
0.00253004
0.000150081
0.00836392
0.0420485
0.000221791
0.000146878
0.000200069
0.000183644
0.0371376
0.000148062
0.0807502
0.000147948
0.000188997
0.000147447
0.0531873
0.0907613
0.000154564
0.000422672
0.000158843
0.000146898
0.000329952
0.000205446
0.000169043
0.00137293
0.0354771
0.000146406
0.000159141
0.0717608
0.0312358
0.000149483
0.00014767
0.0117431
0.000227391
0.000149757
0.000293526
0.000198562
0.000161405
0.000165432
0.000149483
0.000164321
0.0390611
0.00014894
0.00018857
0.000173579
0.000148683
0.000148593
0.000194197
0.016139
0.000201045
0.000158136
0.000155471
0.00014979
0.021367
0.104929
0.000298474
0.000146942
0.0591459
0.031462
0.000382656
0.0153851
0.000201356
0.000149388
0.000147502
0.000180687
0.0535737
0.000214222
0.000155352
0.023586
0.00017566
0.000145039
0.0904417
0.00014851
0.0225301
0.000157985
0.000149722
0.000156701
0.00016385
0.00016183
0.000300239
0.000160051
0.000149228
0.00183856
0.00162435
0.107194
0.00014806
0.000741855
0.000149084
0.000149226
0.000148274
0.000232088
0.000148568
0.000191286
0.000164691
0.000148073
0.000185223
0.00015171
0.000360522
0.000164712
0.000180495
0.000147528
0.000148542
0.0569526
0.0268246
0.000148224
0.000147478
0.088397
0.0001479
0.0681325
0.000147434
0.0543954
0.000151043
0.000232884
0.000167971
0.000429543
0.00015254
0.0362698
0.00018502
0.000156743
0.000227251
0.00020259
0.000149433
0.0373153
0.000171669
0.0356463
0.000153676
0.014278
0.000160012
0.0623495
0.000181491
0.000173796
0.000173107
0.00578589
0.000149399
0.000165194
0.0676818
0.000149209
0.000152072
0.0311404
0.000185599
0.000150211
0.0003199
0.00020588
0.000147026
0.0190394
0.000333527
0.00014847
0.000147426
0.000149134
0.000146558
0.001444
0.0397777
0.000207775
0.0634825
0.00014837
0.000191535
0.00753855
0.000176562
0.009146
0.0575639
0.0904011
0.000146405
0.000292351
0.000147286
0.0817939
0.000148802
0.000451106
0.000198236
0.000156074
0.000149272
0.000185899
0.000186018
0.00019021
0.000590401
0.0583139
0.0286591
0.000164762
0.000173386
0.000147708
0.0342068
0.0115853
0.000148692
0.0176076
0.000148494
0.000143712
0.000151018
0.000149469
0.000151721
0.0181589
0.000151637
0.017784
0.0106985
0.00023158
0.000195007
0.00014938
0.000194795
0.000191932
0.000148294
0.000187383
0.000149132
0.000148492
0.000188695
0.000149719
0.000148482
0.000147252
1.96465e-05
0.000149619
0.0155644
0.00833089
0.00514612
0.000226368
0.0216455
0.0392879
0.000176111
0.000148377
0.000225089
0.000156877
0.000160379
0.000148648
0.0494243
0.00566946
0.00404089
0.000154059
0.000204447
0.000153287
0.000157877
0.000190223
0.000151117
0.00029532
0.000149533
0.000148542
0.0747975
0.0314529
0.0310034
0.000185729
0.00344752
0.0378779
0.077211
0.0429972
0.000145329
0.000183886
0.000151213
0.000148835
0.00695271
0.000180958
0.000148066
0.000181303
0.00017422
0.0398128
0.000148276
0.000216337
0.0118476
0.000236947
0.0196786
0.000149672
0.000148722
0.000154889
0.000162558
0.000146422
0.0031617
0.000199791
0.000160033
0.0330828
0.000158875
0.00021826
0.0832934
0.000215692
0.000228734
0.000326905
0.000216436
0.000179281
0.000225633
0.000176998
0.000238226
0.000207547
0.000180971
0.000198178
0.000148171
0.0307694
0.000160631
0.000146396
0.000161763
0.000151742
0.0432709
0.0832602
0.000147845
0.000145256
0.00168657
0.0324982
0.000149721
0.0161299
0.000152113
0.000209967
0.000147938
0.0533781
0.00088456
0.000158981
0.00014976
0.0224897
0.000222072
0.0102834
0.000149776
0.0436454
0.000360421
0.0886083
0.000146489
0.0375217
0.107413
0.00017676
0.000147377
0.000149486
0.000198874
0.000732613
0.000147471
0.000147436
0.000147617
0.000147585
0.0520251
0.00824556
0.000176307
0.000270349
0.000148012
0.000146808
0.000204345
0.10184
0.000165941
0.000148269
0.000148462
0.000148505
0.0907822
0.0485627
0.000149101
0.000148543
0.00028876
0.000176683
0.000167993
0.000148691
0.00015182
0.000157139
0.000197648
0.000196061
0.000272397
0.000227288
0.000203623
0.0141721
0.000180451
0.000148119
0.0450448
0.000148506
0.000152507
0.000155354
0.0281192
0.000170426
0.000146917
0.000239069
0.000193303
0.00869557
0.000203846
0.000160231
0.000175881
0.000149208
0.107117
0.000235166
0.0202439
0.000149259
0.000162401
0.000263739
0.0598718
0.0161132
0.000189636
0.000189353
0.000154015
0.000153947
0.000148712
0.000165382
0.000168938
0.000149229
0.000183401
0.000172629
0.0187269
0.0122734
0.000153303
0.000216835
0.000566134
0.000157695
0.000149878
0.000436968
0.0908805
0.0466378
0.000258022
0.000145236
0.0207554
0.000197643
0.000147449
0.000163248
0.00019684
0.00015952
0.000189024
0.0141999
0.000225352
0.000172596
0.107153
0.000152436
0.0374244
0.000149546
0.000149054
0.000550924
0.0910858
0.00020523
0.000152439
0.000150197
0.000148556
0.000176539
0.000439694
0.00022209
0.000154341
0.000223451
0.000185445
0.000147974
0.000430488
0.000220302
0.000299462
0.000147975
0.000224551
0.000151632
0.013363
0.000175229
0.000170247
0.000162711
0.000147139
0.000146314
0.000148938
0.000174675
0.000156061
0.000178642
0.000518071
0.000186426
0.000147082
0.000221668
0.00020634
0.000349796
0.000148791
0.000155661
0.000147489
0.000162362
0.000156092
0.10715
0.000149482
0.000932504
0.000162086
0.000239122
0.000181329
0.0630069
0.000171171
0.000149357
0.0530439
0.0153394
0.000148592
0.000155232
0.00264817
0.000220128
0.000214607
0.000149543
0.000149881
0.00021036
0.000156313
0.000189465
0.000192114
0.000146368
0.000185577
0.00371347
0.000148792
0.00015268
0.000147746
0.0255008
0.000149748
0.000153648
0.0303849
0.000151758
0.0854393
0.000158377
0.000160265
0.000147701
0.000166482
0.000148312
0.00017787
0.000147167
0.000174227
0.0001521
0.0181824
0.000318076
0.10191
0.000153504
0.00014932
0.000179337
0.000170918
0.0347112
0.0978877
0.000179684
0.000148529
7.84376e-05
0.000204599
0.00029745
0.000268856
0.000180093
0.0134721
0.000165289
0.000174076
0.000213504
0.000178852
0.00017925
0.000234641
0.000178204
0.000153916
0.000199006
0.000156886
0.000147372
0.000162083
0.000168971
0.000158264
0.000148378
0.000147592
0.000186045
0.000153263
0.00018958
0.000148522
0.000148538
0.000149804
0.000151568
0.000144922
0.000156065
0.000147879
0.0511961
0.000191473
0.000186679
0.000146583
0.000149616
0.000163453
0.000179771
0.000150629
0.0961306
0.00017582
0.0781705
0.000162256
0.00021017
0.000150661
0.000149772
0.000147472
0.000151713
0.0179878
0.000149672
0.0333868
0.000156482
0.00911095
0.000165278
0.000176643
0.000237451
0.000145862
0.000149934
0.000192323
0.000148598
0.000149821
0.0921317
0.000150548
0.000149139
0.000159843
0.000147603
0.000145805
0.00015852
0.000156686
0.0286059
0.000163827
0.000148792
0.00014743
0.0623025
0.000174984
0.00014917
0.00014926
0.0935973
0.00142245
0.0265702
0.000160194
0.000153934
0.000146494
0.000145613
0.000181818
0.000164543
0.000313403
0.00015397
0.0367429
0.000149594
0.000152091
0.0212645
0.000148522
0.000160885
0.000148387
0.000148429
0.000168038
0.000161968
0.000150577
0.0858671
0.0153831
0.000182295
0.000148109
0.000145431
0.000219993
0.0308095
0.000149716
0.00588743
0.000145381
0.000167988
0.00014782
0.000147702
0.0013037
0.00014878
0.000297577
0.000168331
0.000149802
0.000145289
0.000148809
0.000147755
0.000152466
0.000424313
0.000148462
0.000147279
0.0596502
0.064249
0.000173991
0.000169965
0.000189066
0.000156596
0.000147072
0.000156337
0.0531642
0.000175039
0.000148847
0.000149586
0.0959541
0.000170212
0.07
0.000149751
0.000150814
0.0236227
0.000167993
0.000150862
0.0146414
0.00028916
0.000147712
0.000208426
0.000147458
0.000148622
0.0001465
0.0650577
0.000144849
0.000149217
0.000147035
0.000266844
0.000156131
0.000209811
0.000165611
0.000147769
0.000158791
0.000149098
0.0646875
0.000147804
0.000148594
0.000149147
0.000222439
0.00014909
0.000225882
0.011712
0.000921473
0.000155291
0.000326978
0.0369151
0.000148514
0.0179812
0.0725906
0.0426812
0.0220699
0.0589599
0.00942804
0.000217097
0.000149573
0.0155127
0.000167791
0.0146569
0.000146348
0.000147839
0.000149207
0.000149051
0.000158091
0.000158231
0.031999
0.000147763
0.000148564
0.0100342
0.00018907
0.000148788
0.00016065
0.000161966
0.000149682
0.000307284
0.000160793
0.000152347
0.000156053
0.0123867
0.026922
0.000253914
0.000147637
0.000223141
0.000193408
0.0327664
0.0942247
0.000205416
0.000147925
0.000150848
0.000149594
0.000144502
0.00015179
0.000145246
0.000157256
0.0001648
0.0365137
0.000224518
0.000149236
0.000209611
0.0798601
0.000167067
0.000149622
0.0400531
0.000147953
0.000149619
0.000160554
0.0372033
0.000149089
0.000148003
0.00917871
0.000309124
0.000303061
0.000208168
0.000334871
0.000147793
0.000229005
0.000149711
0.000148051
0.00014973
0.00498061
0.0341841
0.000147317
0.00014528
0.000148481
0.0022283
0.000151319
0.000162788
0.000148572
0.000149881
0.000224737
0.000147916
0.000178739
0.00019972
0.0300554
0.000148541
0.00017306
0.000153496
0.0595181
0.0770478
0.000148459
0.0564161
0.000191252
0.000266865
0.000149082
0.0192139
0.000149603
0.000158608
0.000167
0.00020812
0.00198286
0.000310032
0.000242879
0.0962222
0.000147024
0.000214297
0.000147686
0.00015684
0.0104724
0.000148862
0.000149659
0.000151044
0.000149503
0.035332
0.000145761
0.000148557
0.000186137
0.000171323
0.000181391
0.00020194
0.000226173
0.0165029
0.000191938
0.000169399
0.000173197
0.0501333
0.000174811
0.0728344
0.0118148
0.000157476
0.000148016
0.0201717
0.00029862
0.000149652
0.000204243
0.00016651
0.000150603
0.000158711
0.000149678
0.000167145
0.000149943
0.000179665
0.000171073
0.000147326
0.000180369
0.0001477
0.000167222
0.000147144
0.000154928
0.000184407
0.000153608
0.00014945
0.00014738
0.000287643
0.000178454
0.0764773
0.000148482
0.000149002
0.000186907
0.000148391
0.00019187
0.000178434
0.000150598
0.000199141
0.000147558
0.0859725
0.000149541
0.000172115
0.0346758
0.000255711
0.000147858
0.000152326
0.0105228
0.00014806
0.000147572
0.0372017
0.0718502
0.000152985
0.000240122
0.00014861
0.000149456
0.00410825
0.000151504
0.000145939
0.000304845
0.00014781
0.000322639
0.00014927
0.000145944
0.000149199
0.000227758
0.0232361
0.000149039
0.00014944
0.00014779
0.00015505
0.00014839
0.000226008
0.00018021
0.000149773
0.0393582
0.000165273
0.000148252
0.0366844
0.000429999
0.000147136
0.000149471
0.000148635
0.000210623
0.000155425
0.0237119
0.036146
0.000152474
0.012224
0.00031874
0.000180342
0.000235286
0.000169977
0.000189546
0.00192014
0.000167799
0.000164355
0.0455964
0.000191733
0.000154322
0.0503823
0.000164289
0.000146471
0.000153016
0.0732913
0.000163251
0.000147797
0.000166854
0.000194012
0.000165241
0.0463247
0.000152627
0.0912217
0.000173726
0.000294591
0.000209497
0.000225573
0.000161249
0.000147442
0.000150288
0.00218202
0.00014815
0.000152708
0.000147347
0.000151844
0.000147843
0.000160421
0.000236446
0.000299865
0.000162953
0.000165006
0.00206334
0.000193833
0.000147848
0.00135343
0.00425114
0.000146413
0.000147518
0.00016339
0.0212
0.000149667
0.000186998
0.000214832
0.000167448
0.000148809
0.000152941
0.000147969
0.000203986
0.000163396
0.000147822
0.0242942
0.0136002
0.000163881
0.00939104
0.000192189
0.00666512
0.000151659
0.000157099
0.000384681
0.00860608
0.000205817
0.00026687
0.000159141
0.000149826
0.000148728
0.000149152
0.000148616
0.000150414
0.000167273
0.000147923
0.000223123
0.000147596
0.000160534
0.000147433
0.000176851
0.000222318
0.000189219
0.000148451
0.000224196
0.000148715
0.000415288
0.000148487
0.000154385
0.000148811
0.000290682
0.0575583
0.000230865
0.000147902
0.000224491
0.000148535
0.00016049
0.0700507
0.000148448
0.000149769
0.00017049
0.000163254
0.0105686
0.000147946
0.000158259
0.000153058
0.000148407
0.000158709
0.000150014
0.000146225
0.000152107
0.0427835
0.000154336
0.000321657
0.0467965
0.000179033
0.0238812
0.000153887
0.000146273
0.000158917
0.0336697
0.000153472
0.000162454
0.000176583
0.000544014
0.000147634
0.00403595
0.000181375
0.000188115
0.000146332
0.000145385
0.000240893
0.000149913
0.000149896
0.000159202
0.000146351
0.000153127
0.000159783
0.000195415
0.000182465
0.00700553
0.000156875
0.000197212
0.000346411
0.00933112
0.000172554
0.00018256
0.0194241
0.000172252
0.076185
0.000152261
0.0125131
0.00339057
0.000146479
0.000149722
0.00014774
0.000151429
0.000169755
0.000147535
0.000152599
0.000205392
0.000152688
0.000160362
0.0627011
0.000157665
0.000154937
0.0809218
0.000150849
0.016678
0.000155517
0.000165425
0.000147553
0.0407364
0.032991
0.000148538
0.000151753
0.0154441
0.000157291
0.0127536
0.000148037
0.000147835
0.0167144
0.000151606
0.000162651
0.00779521
0.000148554
0.00017886
0.000160116
0.000145372
0.000147342
0.0152378
0.0335852
0.00014934
0.000153522
0.000148733
0.000156778
0.000160115
0.0415204
0.00015045
0.000329747
0.000458993
0.000297277
0.0150753
0.000151422
0.000221826
0.000179309
0.000157036
0.000148552
0.000189106
0.0605873
0.000151774
0.000163075
0.00420341
0.000457771
0.000185003
0.000154049
0.000149421
0.000149607
0.000148528
0.0260977
0.000184203
0.000154396
0.00015208
0.000154774
0.000149781
0.000148315
0.000148604
0.000196531
0.00017217
0.0307109
0.000163566
0.00861869
0.0188805
0.000158677
0.00018076
0.000146717
0.00015776
0.0348991
0.000148981
0.000152366
0.000182194
0.000214895
0.000164533
0.0103899
0.000309914
0.000147953
0.0456043
0.00014513
0.000149825
0.000164017
0.000149805
0.000148945
0.000245224
0.0982653
0.000147826
0.000771087
0.000148916
0.000147051
0.000152223
0.000354784
0.000159795
0.000155489
0.074436
0.000151315
0.00030733
0.0223611
0.000149607
0.000163774
0.000147962
0.0110974
0.000187979
0.000148607
0.00753141
0.000182322
0.000168069
0.000149842
0.0306197
0.00015723
0.000188451
0.000152489
0.000167891
0.0401077
0.000147215
0.000250474
0.000148983
0.000180562
0.000164017
0.0001496
0.0280956
0.000152191
0.000214562
0.000180112
0.000169464
0.000163025
0.000163271
0.000150293
0.00379265
0.00015914
0.0139083
0.000157847
0.000191626
0.000148393
0.000169115
0.000148753
0.000194104
0.00123318
0.000150699
0.000147276
0.000438544
0.000151695
0.000300882
0.000150454
0.000976281
0.000300652
0.000163717
0.000148121
0.000147752
0.000148717
0.000145285
0.00019935
0.000166253
0.000160938
0.000156043
0.000148464
0.0234067
0.000153733
0.000162974
0.000346637
0.000148685
0.0145442
0.000181763
0.00016334
0.000250109
0.0568719
0.00249798
0.000622675
0.0731835
0.000147599
0.00020115
0.0308189
0.000187464
0.000149092
0.000149427
0.000218253
0.010102
0.0161675
0.000241975
0.000150738
0.000164591
0.000172917
0.0228109
0.0028558
0.000176462
0.000223747
0.000152908
0.000177877
0.00020563
0.000149036
0.00019523
0.0957605
0.000148835
0.00042473
0.000149659
0.000148606
0.0432419
0.0650417
0.000146969
0.000151001
0.000150263
0.00014778
0.000166657
0.000248134
0.000152871
0.000147965
0.000148585
0.000174994
0.000159011
0.000158524
0.00193742
0.00014858
0.074221
0.0134576
0.0497957
0.000176168
0.000175887
0.000291389
0.000167334
0.0161561
0.000347488
0.0600465
0.000149857
0.0954869
0.0210323
0.000146375
0.000148373
0.000188774
0.0641693
0.0867744
0.000147867
0.000148561
0.0305875
0.00492371
0.0440856
0.00015346
0.000152602
0.000298832
0.00014922
0.035192
0.0284791
0.000345483
0.00368235
0.000148835
0.000147834
0.000147173
0.000154972
0.0351809
0.000174988
0.000157604
0.000150465
0.000174004
0.0244332
0.000175055
0.0699983
0.0131589
0.0205945
0.000314763
0.000148531
0.000149082
0.000968903
0.000145629
0.0001464
0.000151254
0.000383628
0.000170954
0.0343989
0.000205373
0.000148397
0.100211
0.000168331
0.000147844
0.0138653
0.000176471
0.000154019
0.000149634
0.00514251
0.0770027
0.000149142
0.10087
0.00046141
0.0523258
0.0027415
0.000177667
0.000148005
0.000150734
0.00038799
0.000156745
0.00064181
0.000169225
0.0126483
0.000296714
0.000150934
0.000157343
0.00014802
0.00015054
0.0583804
0.0144449
0.000148544
0.0191671
0.000177204
0.000148595
0.000153639
0.000147742
0.000232268
0.000150196
0.000311979
0.000164872
0.000147949
0.000147103
0.000169484
0.0337157
0.000171652
0.000153117
0.000169839
0.000148721
0.000152296
0.000160434
0.0194576
0.0213313
0.0705751
0.000146061
0.000147043
0.000149693
0.000222281
0.000147332
0.000149823
0.000245656
0.000186854
0.000335953
0.00014632
0.0812001
0.0208938
0.000149885
0.0177365
0.000216874
0.000172161
0.000319957
0.00014952
0.0327805
0.000157547
0.000151211
0.000152548
0.000145587
0.000287459
0.000154863
0.00015214
0.000157914
0.0183277
0.0243278
0.000149608
0.000148037
0.000152787
0.00014853
0.000212304
0.000149977
0.000189613
0.0001537
0.0581472
0.000151689
0.0184402
0.000146115
0.104613
0.000150184
0.000145476
0.0525268
0.000185332
0.000171787
0.000341357
0.000162548
0.00017406
0.000148587
0.0468285
0.000148528
0.00014737
0.000168693
0.000191216
0.0398364
0.0412881
0.000209714
0.101685
0.000203409
0.0116826
0.000148043
0.000156099
0.000161238
0.0788737
0.000153715
0.0763844
0.0259827
0.000150077
0.000148829
0.000148518
0.000359085
0.000426636
0.000153221
0.000148724
0.000155017
0.000159145
0.000171564
9.12844e-05
0.000195968
0.000148338
0.000203666
0.000185736
0.0336341
0.000189082
0.000151825
0.000153707
0.0991683
0.000147149
0.000191064
0.00276703
0.000150582
0.000155537
0.000247698
0.000172859
0.000150655
0.0252298
0.000154754
0.000228067
0.000174419
0.000158295
0.000151785
0.0730657
0.000147088
0.000172017
0.000269604
0.0623697
0.0001764
0.000178016
0.000157842
0.000163919
0.000149749
0.0619236
0.000159454
0.000148867
0.000162933
0.000148534
0.000149775
0.000400945
0.000148573
0.000149117
0.000148663
0.000226199
0.000149537
0.000162155
0.000196292
0.000210662
0.000199757
0.000149662
0.000184686
0.000194343
0.000219597
0.000184751
0.00015595
0.000231207
0.00101965
0.00023575
0.000149886
0.0898151
0.00275916
0.000149882
0.000154234
0.000145472
0.000215701
0.000189238
0.000149353
0.00025026
0.0766132
0.000146744
0.000149421
0.0140004
0.02741
0.000192244
0.000145666
0.0745796
0.0206056
0.000476011
0.000148336
0.0802908
0.000201861
0.000167872
0.0570116
0.000158086
0.000145572
0.000162656
0.00020981
0.000165878
0.00929346
0.0846197
0.000147249
0.090758
0.000200479
0.0367923
0.000146102
0.000163795
0.000149669
0.000148001
0.0508409
0.00577491
0.000278803
0.000402582
0.00015787
0.000177367
0.000152375
0.0751015
0.0164122
0.000148557
0.000149524
0.000158405
0.000148212
0.000181249
0.0195754
0.103083
0.000178187
0.000150455
0.000149907
0.0619455
0.000153942
0.000181378
0.000147057
0.000151147
0.000236559
0.0107321
0.000285151
0.000356574
0.000149071
0.000183879
0.000153523
0.000163932
0.0846058
0.0170469
0.000148588
0.000149954
0.000170477
0.000154573
0.000149334
0.0450447
0.0791365
0.000147295
0.000144725
0.000149214
0.000147815
0.00032726
0.000147144
0.00966261
0.000200453
0.000190994
0.000147758
0.000167532
0.0866533
0.000167907
0.000196794
0.041713
0.000149406
0.0392888
0.000158965
0.000159788
0.00019126
0.0348838
0.03652
0.000189234
0.000147682
0.000191777
0.000147229
0.000154107
0.000149369
0.00829904
0.000159071
0.0145545
0.000300215
0.000177184
0.0001488
0.000226413
0.000159671
0.000149784
0.000181645
0.000145081
0.000171777
0.000167021
0.000149254
0.0869311
0.000151926
0.000202836
0.000150779
0.000147726
0.0484976
0.0365748
0.000152819
0.000158717
0.000174317
0.000172859
0.000188193
0.000158871
0.000155132
0.000156717
0.00029216
0.000153979
0.00363605
0.000166996
0.000317472
0.000219588
0.000151473
0.0425365
0.000145124
0.00323562
0.000152927
0.0684538
0.0481282
0.0682195
0.0850575
0.00019971
0.000168963
0.000149205
0.0243629
0.000170291
0.000148619
0.0236979
0.03879
0.000151575
0.000154378
0.000161847
0.000161927
0.000166913
0.051233
0.000149883
0.000163672
0.000170199
0.000159515
0.000149028
0.000203459
0.000145457
0.00240459
0.000152276
0.000203519
0.000163918
0.000172402
0.000185784
0.00503629
0.000186425
0.000147313
0.000189457
0.0139646
0.0626263
0.000150711
0.000713844
0.000161868
0.00029057
0.000148524
0.000153457
0.0435269
0.000183881
0.0249403
0.0315712
0.000159143
0.0992578
0.000148312
0.000145417
0.0285284
0.000164883
0.000153386
0.0624533
0.000157858
0.000163546
0.000157836
0.000179322
0.000149249
0.0414485
0.00712694
0.00835264
0.00026982
0.000156696
0.000172868
0.0277834
0.000152888
0.000149604
0.000178094
0.000146003
0.000184714
0.0421111
0.0161465
0.0292475
0.000186341
0.000150948
0.0791263
0.000145144
0.000197142
0.000149531
0.043157
0.000152852
0.000164705
0.0323014
0.000206566
0.000148106
0.000159502
0.00941014
0.000148868
0.000232083
0.000147199
0.0871955
0.0752847
0.000217085
0.00016767
0.000147654
0.000276934
0.00023084
0.000171903
0.000147209
0.00015118
0.000148892
0.000185704
0.0001488
0.000203846
0.000149076
0.00014744
0.0957639
0.000147851
0.000157825
0.000156971
0.000149815
0.0343946
0.000147758
0.000161755
0.0618271
0.000181528
0.0039941
0.000148831
0.074058
0.000183201
0.0656417
0.000152405
0.000224139
0.000150119
0.000174271
0.000222892
0.000217489
0.000261027
0.0770834
0.000251832
0.000436897
0.000155604
0.000216805
0.000163299
0.01322
0.00015386
0.0001499
0.000148664
0.000183742
0.000165182
0.0074271
0.000182734
0.00125809
0.0925639
0.000170215
0.000148477
0.0183739
0.000178988
0.000150076
0.000152785
0.000148865
0.00116211
0.000148653
0.0131137
0.000147755
0.000160133
0.0488607
0.000171336
0.000148524
0.000148631
0.0379911
0.000147786
0.000152859
0.000156717
0.000160986
0.000159142
0.000149113
0.00023821
0.000167998
0.000162908
0.000244407
0.0458074
0.0337201
0.0442772
0.000146219
0.000148404
0.000172457
0.000150949
0.000163412
0.000638091
0.039883
0.000145617
0.000148577
0.0220796
0.000277038
0.000145804
0.000147369
0.00015529
0.048827
0.00999185
0.000157703
0.000162901
0.000149287
9.00062e-05
0.000223864
0.000174169
0.000158362
0.000163829
0.000149973
0.000168099
0.000115724
0.000150725
0.000149391
0.000157198
0.00383024
0.000154262
0.0220501
0.000148692
0.0453819
0.000162383
0.000156414
0.000146499
0.000147653
0.000264607
0.0945574
0.000164786
0.0144382
0.0479731
0.000150153
0.0673532
0.000232262
0.000148499
0.00127286
0.000325114
0.000216591
0.000149662
0.0251575
0.0369119
0.000148857
0.000162914
0.0219656
0.000166952
0.000148692
0.000147351
0.000150188
0.000154558
0.000187063
0.000133029
0.00016766
0.000183261
0.000146383
0.000149224
0.000569804
0.000147598
0.000168888
0.000155295
0.00015024
0.000177367
0.000148356
0.000152378
7.36107e-05
0.000148017
0.057122
0.000148398
0.0060353
0.0290102
0.000196871
0.000149347
0.000149947
0.0830328
0.000145491
0.000153896
0.000149781
0.000208251
0.0150711
0.000166731
0.0339981
0.000162818
0.000279404
0.0001503
0.000193972
0.000147904
0.000148901
0.0185916
0.0405919
0.00207731
0.000153059
0.000192452
0.000193291
0.0349033
0.0708453
0.000182457
0.000167937
0.000145089
0.0725655
0.0001483
0.000148545
0.000248659
0.00021798
0.000156764
0.000178526
0.000164053
0.000159786
0.00015909
0.100866
0.000154939
0.000148003
0.0178507
0.000164208
0.00014628
0.0213419
0.000148141
0.000148738
0.000231719
0.000189149
0.0358335
0.000146423
0.000153695
0.000147793
0.000306995
0.000147708
0.000199391
0.000460548
0.0291525
0.0191737
0.0159747
0.000157651
0.0614856
0.000221255
0.000149353
0.000158456
0.000162934
0.000157833
0.000246645
0.0602158
0.0575565
0.0244015
0.000337331
0.000149125
0.000212269
0.000148165
0.0190618
0.000161394
0.000153058
0.000154225
0.000151094
0.000147736
0.000210363
0.0606988
0.000146084
0.000153202
0.000147033
0.0569684
0.000152978
0.100943
0.00878126
0.00181866
0.000148661
0.000147791
0.044902
0.000190154
0.000148896
0.000192861
0.000149481
0.000191185
0.000178005
0.000200096
0.000182944
0.0731416
0.000147063
0.000148006
0.000269656
0.0205595
0.00016069
0.000166934
0.000148056
0.00949323
0.000148428
0.00014767
0.000152095
0.000148452
0.00674528
0.0534179
0.00032413
0.000188952
0.0832562
0.00775106
0.000145608
0.000165514
0.000146021
0.000250153
0.000148985
0.000153734
0.00014844
0.000147601
0.000147568
0.000408171
0.000152264
0.000274472
0.000146099
0.000158711
0.000158099
0.000266688
0.000148407
0.000165566
0.000170264
0.000173001
0.0754777
0.000147601
0.0284202
0.000177927
0.000164868
0.000148868
0.000147971
0.0231147
0.00942441
0.000149079
0.000148086
0.000303728
0.000294278
0.000160761
0.0435981
0.000150658
0.000335196
0.000165833
0.000146026
0.0196483
0.000152902
0.0147985
0.000148631
0.000150966
0.000148787
0.0504414
0.0297059
0.000145774
0.000181029
0.000273516
0.000148295
0.000147965
0.000147945
0.000182026
0.0640212
0.00017674
0.000155501
0.000168963
0.000148334
0.000148756
0.00015345
0.00014804
0.00025344
0.000148831
0.000191462
0.000146692
0.00016565
0.000145203
0.000486693
0.000195717
0.000148378
0.000179922
0.000164537
0.000327751
0.000153303
0.0736688
0.000178197
0.00014841
0.000187623
0.000188234
0.000155438
0.103841
0.000189208
0.000163374
0.000325415
0.000148135
0.000187749
0.000169102
0.000183917
0.000147738
0.000148318
0.000145451
0.000158983
0.000186702
0.000185746
0.084252
0.0295824
0.00839101
0.000149757
0.000300321
0.0247813
0.0630898
0.000148464
0.000148565
0.000183709
0.0103171
0.000153044
0.000170399
0.0120502
0.048277
0.00565061
0.00017123
0.000233137
0.0222038
0.00130627
0.000145493
0.00246749
0.000283215
0.000149923
0.000150457
0.000150867
0.0680889
0.000190159
0.00932107
0.000153476
0.0567506
0.000149152
0.00506446
0.0246518
0.000149311
0.000168912
0.0688568
0.000736913
0.000176935
0.000151574
0.000152356
0.000149896
0.000186507
0.000222153
0.00780647
0.0648181
0.000146701
0.0160319
0.000196126
0.000338602
0.00014809
0.000149029
0.000344676
0.000182142
0.00014822
0.000174834
0.000167122
0.000161002
0.00223005
0.00594329
0.0817637
0.0741515
0.000154649
0.000146101
0.000166235
0.0204817
0.0843415
0.000148648
0.000183588
0.000169071
0.000192049
0.000151417
0.000149682
0.000238004
0.0100844
0.0635938
0.00027012
0.0149509
0.000147916
0.000181714
0.0747125
0.000149444
0.000165625
0.00020394
0.000145893
0.000238701
0.038798
0.000179895
0.000149674
0.0118375
0.00021373
0.0548221
0.000144613
0.000154189
0.000149092
0.000153226
0.000148975
0.00017209
0.000162929
0.000162673
0.000185496
0.000168531
0.0577059
0.000154131
0.000162313
0.000158395
0.025365
0.000164937
0.0342939
0.000157938
0.000156307
0.0108716
0.000169677
0.000148874
0.000162923
0.0187411
0.0169897
0.000166506
0.000148323
0.000147904
0.000148123
0.000499406
0.000151521
0.000334076
0.000258859
0.000181928
0.000161582
0.000266594
0.0297702
0.000148974
0.0999631
0.00016029
0.000163746
0.00014819
0.000148515
0.00017865
0.0826668
0.000148429
0.0277989
0.000222015
0.000169881
0.000208863
0.000147783
0.000148187
0.000163566
0.000152531
0.0611017
0.0309514
0.000170225
0.000259063
0.000148251
0.000148961
0.000149361
0.000149605
0.0782169
0.000152982
0.0507353
0.000168941
0.000151516
0.000189503
0.00544333
0.0241292
0.0210775
0.000153698
0.000147817
0.000148846
0.000153964
0.000214868
0.00018088
0.106436
0.00014899
0.00015094
0.000176605
0.000149709
0.000287287
0.00015224
0.000175252
0.000176665
0.000162847
0.000163087
0.000146415
0.0001755
0.000162564
0.000181451
0.000167965
0.000163234
0.00014715
0.000189794
0.000147755
0.00208918