/*--------------------------------*- C++ -*----------------------------------*\
| =========                 |                                                 |
| \\      /  F ield         | OpenFOAM: The Open Source CFD Toolbox           |
|  \\    /   O peration     | Version:  v2012                                 |
|   \\  /    A nd           | Website:  www.openfoam.com                      |
|    \\/     M anipulation  |                                                 |
\*---------------------------------------------------------------------------*/
FoamFile
{
    version     2.0;
    format      ascii;
    class       surfaceScalarField;
    location    "700";
    object      meshPhi;
}
// * * * * * * * * * * * * * * * * * * * * * * * * * * * * * * * * * * * * * //

dimensions      [0 3 -1 0 0 0 0];
oriented        oriented;


internalField   nonuniform List<scalar> 
20673
(
6.7856e-06
4.28973e-06
-1.10137e-05
-2.37398e-06
-2.84697e-06
5.74954e-06
5.93441e-06
-1.86613e-06
-4.06765e-06
8.92321e-06
7.77192e-07
-9.0374e-06
1.56856e-05
-1.48158e-05
3.80423e-07
-5.08579e-06
5.26029e-06
-1.76895e-07
4.12629e-06
1.5337e-06
-5.65963e-06
-4.98901e-06
4.00931e-06
9.80037e-07
-4.76357e-06
8.5458e-07
3.90931e-06
-9.07177e-06
1.89187e-06
7.20863e-06
-6.68751e-06
-3.02834e-07
6.99685e-06
-9.06486e-06
9.51967e-06
-4.25415e-07
6.92691e-06
2.7465e-06
-4.34987e-06
1.60222e-06
-8.84726e-06
1.50406e-05
-6.04673e-06
5.81568e-06
7.27686e-06
-1.28716e-05
9.24915e-06
-2.90894e-06
-5.85968e-06
-9.52982e-06
4.4303e-07
9.12327e-06
2.00091e-06
-1.1032e-05
-2.17812e-05
2.32381e-05
-1.108e-06
-4.41542e-06
1.13123e-07
4.58608e-06
-4.39193e-07
4.56581e-06
1.10769e-06
-2.03667e-05
1.93515e-05
-2.45626e-06
-2.53219e-06
6.19095e-06
-5.36711e-06
-3.12508e-07
-5.68918e-06
3.37237e-06
2.31716e-06
-4.11196e-06
-5.27851e-06
9.39485e-06
1.54196e-06
-6.54513e-06
5.00723e-06
2.95584e-06
-5.80506e-06
2.84877e-06
6.14555e-07
-7.63285e-06
7.03198e-06
5.24995e-06
5.43634e-06
-1.06303e-05
6.65266e-06
4.91579e-06
-1.14076e-05
-8.81798e-06
-1.72997e-06
1.05632e-05
-3.21326e-06
1.31958e-05
-9.96402e-06
-1.65371e-06
-1.55121e-06
3.57434e-06
-3.61888e-06
-1.55686e-06
5.17743e-06
-1.83673e-05
1.95554e-05
-4.57806e-06
3.6114e-06
9.6666e-07
-9.76967e-06
1.26273e-05
-3.44852e-06
3.65692e-06
-2.08456e-07
-8.80978e-06
-8.91212e-06
1.17633e-05
-2.93633e-07
-2.08285e-06
2.55801e-06
-5.19647e-05
-1.1255e-05
6.25601e-05
7.99022e-06
-7.39486e-06
-5.92087e-07
5.66822e-07
2.0133e-07
9.21298e-08
-1.35795e-05
1.27731e-05
8.37613e-07
1.98466e-06
-1.14722e-05
1.05658e-05
-6.04336e-06
-4.49579e-06
4.51297e-06
-3.97839e-06
-5.40472e-07
1.30902e-06
1.07852e-05
-1.60848e-05
-1.28434e-05
5.40032e-06
7.64944e-06
-8.83878e-06
1.32758e-05
-4.38113e-06
4.86537e-06
-4.08984e-07
-1.25717e-05
9.37669e-06
7.5515e-06
2.15606e-06
-6.94426e-06
-4.06911e-06
1.12394e-05
1.83445e-06
-8.51331e-06
5.69381e-06
1.13169e-06
-5.96978e-06
-1.25413e-05
1.0624e-05
2.29341e-06
-1.71703e-07
1.55175e-06
-5.50755e-06
4.99087e-06
5.17343e-07
-6.30238e-06
4.5158e-06
-1.06146e-06
-2.41116e-05
2.18913e-06
-5.72975e-06
6.41819e-07
-1.55147e-06
-3.58117e-06
5.13328e-06
-5.00322e-07
7.3604e-06
-2.88326e-06
-2.11334e-07
-5.21099e-06
-9.38785e-07
6.15505e-06
-8.62519e-06
-1.65639e-06
1.03577e-05
1.81012e-07
1.68615e-05
-4.21683e-06
-5.46395e-07
4.56324e-06
-3.07837e-06
-1.48483e-06
7.04625e-06
-2.7967e-07
4.10357e-06
-1.34843e-07
-3.9298e-06
1.06594e-05
-5.57541e-06
-5.06042e-06
3.29726e-06
-3.68674e-06
3.89495e-07
-7.48903e-06
7.11348e-06
9.99176e-07
4.371e-06
1.44128e-06
-5.81195e-06
-2.36125e-07
-7.1393e-06
7.72386e-06
-1.10569e-05
2.29586e-06
9.05828e-06
7.78098e-06
5.16463e-06
-5.28177e-06
1.17028e-07
-3.11354e-06
-1.46432e-06
-5.11288e-06
4.72698e-06
3.86033e-07
-4.56216e-06
-2.2363e-06
-1.71619e-05
1.72172e-05
6.17245e-07
2.50977e-06
-4.06074e-06
-4.84514e-06
-7.74973e-06
-2.80483e-06
-4.98271e-05
-4.6233e-06
3.54639e-06
1.07695e-06
3.45556e-06
-1.09742e-05
7.539e-06
-7.37615e-06
2.7424e-06
5.77994e-06
-5.99234e-06
1.42771e-05
-8.0164e-06
-1.97347e-06
4.48364e-06
-4.26387e-06
-1.24843e-06
5.50986e-06
-7.52152e-06
8.92385e-07
6.6383e-06
-5.04548e-06
1.01155e-05
-5.04406e-06
-8.11515e-06
7.54909e-06
5.74804e-07
4.42754e-06
3.79525e-06
-8.22136e-06
3.57405e-05
1.30809e-05
-4.87511e-05
6.65947e-06
-1.18324e-05
5.1821e-06
5.84633e-06
2.14677e-06
-3.80239e-06
8.18813e-06
-3.88732e-06
-1.91622e-05
3.28863e-05
-1.20102e-05
2.43131e-06
2.77592e-06
-5.20678e-06
-6.81171e-06
6.07614e-06
7.37109e-07
7.15209e-06
3.43469e-06
-9.17151e-06
6.78328e-06
-5.55164e-06
-4.35266e-06
9.95411e-06
-4.82332e-06
4.26921e-06
5.54157e-07
-4.90879e-06
1.46028e-06
-8.04283e-06
3.37963e-07
7.72149e-06
-1.81293e-06
4.24464e-06
2.58078e-06
-1.18119e-05
9.21928e-06
4.60502e-06
-2.96655e-06
-1.639e-06
1.47232e-05
3.87637e-06
-1.81488e-05
3.7218e-07
4.04151e-06
-4.43077e-06
3.35034e-06
7.50776e-07
-4.10111e-06
1.32655e-05
-2.89727e-06
-1.03478e-05
5.42027e-06
-5.4787e-06
2.17008e-06
-7.37506e-06
4.16963e-06
-2.65476e-06
-1.51487e-06
8.67651e-06
-7.1294e-06
6.86866e-06
-1.43477e-05
3.9288e-06
8.33652e-06
-1.40312e-05
3.8087e-07
3.07188e-07
4.72448e-09
-5.10849e-06
7.81711e-06
-5.4536e-05
-1.37654e-05
6.43021e-05
9.93481e-07
-4.18596e-06
8.10255e-07
3.37574e-06
1.36826e-05
-1.11179e-05
8.87141e-07
4.92524e-08
-4.29174e-06
1.91216e-09
3.07904e-07
-4.97266e-06
4.66648e-06
-5.00764e-06
2.55194e-06
1.0669e-05
-3.82233e-06
-1.81292e-06
6.24158e-06
7.71087e-06
-6.76481e-08
1.06952e-05
2.59309e-06
5.01298e-06
1.46858e-06
-6.47886e-06
6.73149e-06
-2.3909e-05
1.82891e-05
-1.43918e-05
-4.16797e-07
1.4918e-05
2.49431e-08
6.16918e-06
-6.19176e-06
-2.73314e-06
-6.72178e-08
-3.99047e-06
5.95994e-06
-1.96871e-06
3.88001e-06
-6.1219e-06
2.24238e-06
-1.35611e-05
4.78189e-06
7.21429e-06
-2.83647e-05
2.24638e-05
-6.76308e-06
-4.80049e-06
1.17297e-05
-9.1722e-06
9.4539e-06
-2.48014e-07
2.22612e-06
2.37836e-06
-1.12805e-05
4.42218e-06
6.87723e-06
1.06536e-05
-1.06529e-05
4.9842e-08
5.10577e-06
7.28861e-06
-1.21666e-05
-5.51647e-06
1.17452e-06
4.3426e-06
3.81643e-06
-1.2348e-05
6.80686e-06
-2.39448e-06
-4.41029e-06
4.02304e-06
-7.25772e-07
-4.546e-06
4.85559e-06
-1.18636e-05
-1.51024e-06
1.34474e-05
7.34186e-06
-1.07348e-05
3.3877e-06
-8.62388e-06
9.59489e-06
-1.11007e-06
1.13176e-06
-8.64268e-06
1.9022e-06
-9.92284e-06
-7.98714e-06
-1.1948e-07
3.77518e-06
-7.11024e-06
-5.13919e-06
-4.08062e-06
9.2488e-06
7.9855e-06
-5.64235e-06
-1.13386e-06
1.11079e-05
-4.4441e-06
5.41539e-06
5.42307e-06
-1.07769e-05
-9.17339e-07
3.75945e-06
-2.8421e-06
-5.70368e-06
8.78744e-06
-3.06912e-06
-1.14794e-05
6.79898e-06
5.06362e-06
2.69846e-06
3.41707e-06
-6.11461e-06
-1.02281e-05
8.92562e-06
1.3359e-06
3.40349e-07
-4.52625e-06
4.22564e-06
-3.86721e-06
1.66327e-06
-5.65293e-06
3.65828e-06
-2.27478e-07
-2.52636e-06
9.53459e-06
-6.06178e-06
1.1933e-05
-6.62139e-06
-1.79332e-05
2.57761e-05
-1.87717e-05
2.08134e-06
-4.71917e-07
1.06756e-05
-1.01295e-05
-3.52903e-06
-2.15962e-06
-7.04093e-06
2.94547e-06
4.09931e-06
-7.77233e-07
-4.73892e-06
-6.71579e-06
-3.38503e-06
1.01673e-05
-5.63131e-06
-3.00674e-07
5.93888e-06
-7.7273e-06
4.49082e-06
3.2389e-06
-3.99157e-06
-1.12111e-06
-8.54576e-07
-5.0599e-06
5.91801e-06
-5.61571e-06
2.34037e-05
-1.78858e-05
6.8021e-06
-6.82404e-06
2.16167e-08
4.8527e-06
-8.95908e-06
-4.82183e-06
-6.34412e-06
-3.18725e-06
-3.12367e-06
6.17805e-06
-7.8266e-07
-5.39291e-06
-1.1132e-06
-3.14267e-06
4.25645e-06
-1.26659e-05
8.78265e-06
4.18202e-06
-1.08682e-05
9.17657e-06
8.39815e-06
-1.12114e-05
2.85184e-06
1.45989e-06
-1.05933e-05
1.47285e-06
3.09041e-06
4.0009e-06
1.84805e-06
-5.84707e-06
2.69425e-06
-4.0127e-06
6.61743e-06
-1.67389e-07
-1.0731e-05
5.71295e-06
6.18092e-06
-3.81325e-06
-2.36703e-06
1.32046e-06
-1.55217e-05
3.05366e-06
2.22172e-06
-5.27505e-06
3.55859e-06
-4.79974e-06
1.24115e-06
-8.68923e-06
3.06787e-06
1.20902e-05
-2.97323e-05
3.89019e-06
-6.06483e-06
2.17611e-06
-5.6516e-06
1.06222e-05
-4.93666e-06
4.14879e-06
-4.37878e-06
2.29994e-07
1.58259e-07
8.04736e-06
-7.73088e-06
-4.49634e-06
-1.01023e-06
-9.70889e-07
5.63839e-06
8.5893e-06
-4.6621e-06
-3.91301e-06
-2.03541e-05
6.82702e-06
-4.26991e-06
3.94581e-06
3.24837e-07
1.66003e-06
2.99651e-06
-4.65615e-06
1.34726e-05
-7.46493e-06
1.27715e-06
5.08461e-06
-6.36042e-06
1.19736e-05
-6.66987e-06
-2.48345e-05
3.84961e-05
-5.40001e-06
1.78275e-06
3.0615e-06
-8.74995e-06
-1.02832e-05
3.63917e-06
-1.29713e-06
5.19528e-06
-3.89744e-06
1.15363e-07
3.44324e-06
-1.96712e-05
-3.25897e-05
4.92442e-05
-4.19187e-06
1.09955e-05
-1.45986e-06
-3.16337e-06
-3.83638e-06
4.25889e-06
-4.22453e-07
-8.49668e-06
-1.5463e-07
2.21217e-05
1.43083e-05
-3.56105e-05
6.03596e-07
-3.80887e-06
-2.1029e-06
-4.58605e-06
6.69636e-06
3.71654e-06
1.62583e-08
-4.19232e-06
5.62443e-06
1.83435e-06
-7.45567e-06
4.66612e-06
4.04606e-06
-8.69682e-06
-1.42292e-06
8.76082e-06
-8.49018e-06
1.07999e-05
-2.23261e-06
5.99994e-07
9.00185e-06
5.72584e-06
-1.14325e-05
5.74627e-06
-2.46298e-06
-1.34271e-06
3.8057e-06
9.99993e-06
1.70808e-06
-1.0423e-05
9.36934e-06
-1.77406e-06
-7.58141e-06
7.0134e-06
-6.79604e-06
-2.15787e-07
1.02067e-06
1.12703e-07
-3.30254e-06
5.18891e-06
-1.08104e-05
6.53254e-06
4.30354e-06
-4.98684e-06
3.08522e-06
1.9015e-06
-4.14041e-06
-7.12035e-06
-8.58098e-06
8.16774e-06
-1.26925e-05
3.97745e-06
-6.63836e-06
6.46622e-06
-1.50806e-07
2.84375e-06
1.32589e-06
6.40101e-06
-4.30183e-06
-2.09832e-06
-7.37336e-06
1.56379e-06
5.81236e-06
7.07195e-06
-3.06558e-05
4.72005e-06
-3.13932e-06
-1.58064e-06
-3.22617e-06
-1.08175e-06
4.30801e-06
5.3583e-06
1.4502e-06
-1.47168e-07
4.51845e-06
4.13786e-06
6.53976e-06
-1.0435e-05
1.22102e-05
-6.86794e-07
-1.62355e-05
6.58874e-06
-1.03063e-05
3.75407e-06
-4.81515e-06
2.58862e-06
2.22648e-06
-6.34659e-06
-1.36698e-06
7.72385e-06
-8.42702e-06
-3.72712e-06
-1.62534e-06
5.62801e-06
6.58966e-06
-1.13632e-05
5.44704e-05
-3.55106e-05
-2.46012e-05
-3.36248e-06
-1.44995e-06
4.81328e-06
-2.4178e-05
2.56348e-05
-9.13921e-07
-2.44236e-06
5.14166e-06
-6.59793e-06
-5.68385e-06
3.12037e-06
-2.87561e-07
-1.46865e-05
7.92255e-06
6.90221e-06
8.01767e-06
2.68408e-06
-5.63982e-06
-5.09996e-06
5.41317e-06
2.13621e-07
-1.32464e-05
4.93254e-06
8.40411e-06
7.82332e-07
-5.28783e-06
5.6052e-06
-4.56958e-06
-2.32323e-06
6.89532e-06
-4.61191e-06
3.31537e-06
3.11843e-06
3.28313e-06
-9.53968e-06
1.02424e-05
3.49696e-06
-6.84915e-06
3.35375e-06
-1.22534e-05
1.47184e-05
-1.82378e-06
7.33899e-06
-5.39948e-06
-6.90608e-06
2.18778e-05
-1.09913e-06
4.98025e-06
-2.59203e-05
1.06098e-05
1.15256e-05
5.01941e-06
3.58118e-06
3.92027e-06
-1.23198e-05
6.87991e-06
2.51549e-06
9.40155e-06
-9.70161e-07
7.11985e-06
-1.12365e-05
4.49563e-06
-1.19883e-07
2.35604e-06
-2.26538e-06
-7.49092e-06
-2.69927e-06
-5.74912e-06
-5.2e-06
1.92616e-05
-1.53502e-05
-2.48259e-06
-3.38203e-06
8.43488e-07
-5.24385e-06
2.62768e-06
2.6162e-06
1.09419e-06
2.76926e-06
-3.86351e-06
-1.14638e-05
1.57031e-05
1.23996e-05
-1.65473e-06
-1.53288e-05
2.48922e-06
-5.85074e-06
5.6954e-06
-6.8825e-06
2.42637e-06
-4.67232e-06
1.59399e-06
2.28053e-05
-1.939e-06
-5.7124e-07
-3.69824e-06
-2.01778e-07
-1.40227e-07
1.29262e-06
2.22355e-06
-7.0746e-06
4.85427e-06
-1.54444e-06
-9.56686e-06
1.1251e-05
-3.50048e-06
4.03494e-06
-5.07586e-07
-1.57411e-05
3.96406e-06
-7.92169e-06
3.3775e-06
6.30434e-07
3.84712e-06
-4.47566e-06
-3.65074e-06
-1.08847e-05
-6.43037e-06
4.33375e-06
-5.58662e-06
3.90461e-07
5.19838e-06
-1.09582e-05
5.08702e-06
6.35184e-06
-4.8296e-06
3.57388e-06
1.2557e-06
2.1146e-06
4.68701e-06
-3.41751e-06
1.90551e-07
6.11209e-06
7.66393e-06
-1.37276e-05
-3.07065e-06
3.80857e-06
-7.37865e-07
-8.73733e-06
1.0963e-05
-2.07458e-06
5.02934e-06
-1.3059e-06
-3.72332e-06
6.05321e-06
-5.42029e-06
-9.32078e-06
3.70349e-06
5.6227e-06
-2.19745e-06
-7.1168e-06
1.50059e-06
4.43425e-06
-5.94314e-07
-7.80768e-06
8.1531e-06
-5.59792e-06
1.10699e-05
-3.61705e-06
-1.2062e-06
-1.08964e-05
2.3579e-06
8.85769e-06
7.82522e-06
-1.28069e-05
5.31341e-06
-2.24738e-06
-2.10223e-06
6.19208e-06
-1.17597e-08
-8.81585e-06
1.22806e-05
-2.89785e-06
-3.33233e-06
-4.39184e-06
5.02767e-06
-2.07196e-06
5.72754e-06
-4.68702e-05
4.02686e-05
-8.35895e-07
4.18624e-06
-1.19125e-06
5.91303e-06
-4.71945e-06
-2.42357e-05
3.2875e-07
9.65619e-06
2.09421e-05
-2.95045e-05
-1.18236e-05
2.91538e-07
-2.09993e-05
2.94884e-05
-6.72563e-06
2.1586e-06
3.80798e-06
1.58642e-06
-5.39365e-06
-4.51017e-06
6.06114e-06
-1.55125e-06
-1.5307e-06
-3.71309e-06
9.79934e-06
-1.27377e-05
3.88356e-06
7.6252e-06
1.75456e-06
-2.02185e-06
-1.76173e-06
3.79056e-06
-1.16768e-05
1.31737e-06
1.0425e-05
4.58765e-06
-1.873e-06
-2.94211e-06
4.43633e-06
6.55103e-05
-2.76693e-05
-3.77815e-05
-7.7758e-07
-6.59244e-06
2.98982e-05
-5.07599e-06
-2.39085e-05
-5.79929e-06
1.30393e-06
-4.9629e-07
1.10068e-06
-3.87896e-06
3.93763e-07
8.80379e-06
-4.12329e-06
1.08773e-05
-1.09985e-05
6.2894e-07
-7.77028e-06
-2.10876e-06
9.19894e-06
-5.5619e-06
-5.1384e-06
6.37007e-06
3.17749e-06
-6.64062e-06
-1.45473e-06
8.11217e-06
-9.99869e-07
3.51527e-06
-2.51718e-06
2.20621e-06
2.82321e-06
4.48386e-07
3.70041e-06
1.06739e-05
-4.9157e-06
-8.90434e-06
-1.41311e-07
3.01949e-05
-7.34474e-06
-1.07506e-06
-2.76124e-06
3.50339e-06
-5.21113e-06
1.70803e-06
7.96034e-06
-2.93106e-06
-4.13622e-06
-4.68206e-06
-3.23706e-06
-1.37519e-05
1.45332e-06
1.27206e-05
7.2391e-06
-4.99103e-06
-2.244e-06
4.16012e-07
2.83312e-07
6.66864e-06
-7.54634e-06
3.08381e-06
-7.62147e-06
4.79368e-06
2.94304e-06
-4.71312e-06
1.77037e-06
8.90946e-06
-5.52697e-06
-2.5058e-06
-2.48059e-06
-3.91491e-06
4.54347e-06
-6.28788e-07
-5.20266e-06
3.45276e-07
4.86144e-06
-6.47204e-06
4.78174e-06
1.69399e-06
-6.58403e-06
-3.92089e-06
-1.26587e-06
5.15739e-06
-2.62288e-06
-5.9909e-06
2.34375e-05
-1.72817e-05
-6.17826e-07
6.59248e-08
-1.05049e-05
7.71889e-06
-7.77315e-07
-6.76467e-06
6.18424e-06
-5.5584e-06
-7.70139e-06
5.59588e-07
4.31973e-06
8.57105e-07
-4.85599e-06
-1.08212e-06
3.17021e-05
-5.05115e-06
-1.67152e-06
-6.11192e-06
6.21637e-06
1.43065e-06
-4.50092e-06
-5.80113e-06
3.31309e-06
2.48857e-06
4.31058e-06
-4.0049e-06
-3.05888e-07
4.80284e-06
-5.65408e-06
-4.87724e-06
3.5158e-06
1.3615e-06
3.8899e-06
-4.00072e-06
1.10923e-07
-2.52298e-07
-1.13504e-05
-3.04223e-06
1.36621e-05
5.80088e-06
-7.84733e-06
2.05311e-06
-7.50178e-07
-8.70793e-06
-5.80536e-06
-5.41997e-06
1.13522e-05
-2.11202e-05
1.5505e-05
5.47203e-06
1.66792e-06
4.51345e-06
-2.77248e-06
-3.02783e-06
-6.43562e-06
-6.24216e-06
1.28469e-05
-5.66115e-06
7.80714e-06
-2.13534e-06
-9.70619e-06
1.58697e-05
4.06499e-06
8.9196e-06
-1.0174e-05
3.55384e-06
-1.0388e-05
3.60119e-07
1.03753e-05
-5.76353e-06
-5.53489e-08
5.82163e-06
-6.4119e-06
-2.24329e-06
-1.33979e-05
-1.52803e-05
-3.29652e-06
-1.37574e-06
-3.74837e-06
4.08877e-06
4.19693e-07
-4.16801e-06
7.316e-06
-6.80548e-06
-4.99934e-07
6.57354e-07
3.65263e-06
-2.96208e-06
-1.86742e-06
-4.55055e-06
1.93928e-06
2.61133e-06
3.0422e-06
-4.55786e-06
1.51566e-06
6.35835e-05
-5.39453e-05
-1.35501e-05
5.26807e-06
-9.9708e-06
4.73187e-06
4.62225e-07
-1.04842e-05
-1.91684e-06
-5.74098e-06
8.23597e-06
-1.13038e-06
5.71513e-06
-4.58259e-06
8.60475e-06
-2.13349e-05
-6.76128e-06
1.99899e-05
-1.07765e-05
6.67554e-06
4.13127e-06
1.25017e-05
-6.07762e-06
-6.33686e-06
-1.17254e-06
-2.79604e-06
3.96858e-06
1.32619e-05
-1.90975e-05
6.10674e-06
-8.37317e-06
2.27856e-06
-4.54412e-06
3.73037e-06
8.13349e-07
-4.68928e-06
6.35461e-06
-1.66318e-06
4.14316e-06
-1.90021e-06
-2.24283e-06
-5.73058e-06
3.95037e-06
4.77924e-06
5.15543e-06
-2.00128e-05
-6.16251e-06
1.00548e-05
1.23035e-05
5.29073e-05
3.7884e-06
-5.70644e-06
1.91859e-06
6.48813e-07
-5.15941e-06
-6.39505e-06
-6.74623e-06
-4.73855e-06
1.4664e-06
3.27224e-06
-1.25271e-05
5.82131e-06
-6.11339e-06
7.25408e-06
-1.64408e-06
-2.90637e-06
-3.20225e-06
-2.91891e-06
-8.68011e-06
3.4851e-06
6.18068e-06
-1.16521e-06
-1.59301e-06
7.71007e-06
8.77595e-06
2.19307e-06
-1.09371e-05
-7.47738e-06
6.85241e-06
6.31937e-07
-6.5213e-06
-3.35915e-06
9.93068e-06
-5.7413e-06
-1.26068e-06
7.00856e-06
-5.66461e-07
5.53677e-06
-1.01106e-05
4.61312e-06
-5.70953e-06
8.36755e-06
-2.64339e-06
-2.11195e-05
-1.14997e-05
2.25519e-05
-2.39619e-06
5.61069e-06
-3.21276e-06
8.64112e-06
-1.29445e-05
4.52523e-06
-1.77158e-05
-2.1146e-05
4.04026e-05
5.22914e-06
-1.13061e-05
-3.2172e-07
-7.0828e-06
8.0069e-06
-4.15891e-06
2.98638e-06
-4.3206e-06
2.50799e-06
8.78302e-06
-1.87041e-06
1.85336e-05
2.86574e-05
3.96128e-06
-5.79755e-06
1.83688e-06
3.32447e-07
3.55754e-06
-3.78432e-07
6.04627e-06
2.23077e-06
1.9123e-06
-1.17413e-06
-2.62768e-06
4.46616e-06
1.14856e-06
5.24694e-06
-6.39097e-06
-4.8317e-06
2.68198e-06
3.46042e-06
7.26613e-07
-3.56908e-06
2.84248e-06
-6.67915e-06
1.32246e-06
5.35864e-06
-1.22861e-05
5.68525e-06
9.26811e-07
-4.24223e-06
3.79399e-06
-2.9164e-06
-1.96074e-06
-1.89984e-06
-5.13665e-06
-2.10128e-06
-1.71249e-06
3.81376e-06
-7.71936e-06
-3.24669e-07
-4.51346e-06
1.72951e-06
2.78396e-06
4.05404e-06
2.78724e-06
-5.80194e-06
3.01572e-06
1.42059e-05
-3.06262e-05
4.17248e-06
5.546e-07
2.423e-06
-5.33926e-06
2.91662e-06
-1.11543e-05
8.49567e-07
1.03683e-05
2.97185e-05
-1.90851e-05
-6.53943e-06
-2.2093e-06
9.1212e-06
-5.50663e-06
6.08929e-06
1.15316e-06
-3.12015e-05
2.75949e-06
-1.12075e-05
3.32667e-05
-8.52578e-06
-1.68559e-05
2.35615e-05
1.65154e-05
-2.70139e-05
4.0059e-06
7.14138e-07
-5.56061e-06
4.43227e-06
-1.13336e-05
2.8469e-06
4.62181e-06
-7.46461e-06
-1.7753e-08
7.94079e-06
4.73389e-05
-1.1691e-05
-8.65172e-06
3.00147e-06
3.73649e-07
-4.72741e-06
4.35406e-06
7.04434e-06
3.97622e-06
-1.09297e-05
-4.34425e-06
-2.15123e-07
7.43219e-07
7.28933e-06
-2.53476e-06
2.68124e-06
-8.61726e-08
5.27737e-06
-4.77416e-06
7.82794e-07
-1.73314e-05
1.93992e-05
-2.08142e-06
4.85301e-06
-4.22793e-06
2.43984e-08
-6.538e-06
-1.13675e-05
4.90302e-06
-8.56734e-06
7.12619e-06
8.45394e-06
-3.69164e-06
9.95721e-06
-2.8588e-06
-6.76589e-06
-9.67986e-06
-1.20536e-06
1.10571e-05
-9.28068e-06
3.58757e-06
-5.44581e-06
-1.38462e-07
5.79563e-06
-2.01307e-06
7.81981e-06
-5.79433e-07
6.33828e-06
-5.74838e-06
5.70856e-06
-3.85864e-06
-9.84949e-06
4.12183e-06
2.62041e-06
9.2481e-06
-1.13408e-05
2.26746e-06
-4.73044e-06
-1.06351e-07
-3.07582e-06
1.11889e-05
-7.28131e-06
9.61541e-06
-1.8591e-06
3.05314e-06
-5.44771e-06
-8.63293e-06
7.42159e-06
1.22232e-06
2.40172e-05
-1.34328e-05
-1.492e-05
-5.7714e-06
1.08422e-06
-6.26396e-06
-4.54484e-07
6.72841e-06
-2.81778e-06
3.90277e-06
-1.0874e-06
-5.90534e-06
5.33536e-06
-1.30757e-05
5.06155e-06
8.04563e-06
8.14412e-06
4.42958e-06
6.72936e-06
-1.52031e-05
-6.07874e-07
3.72678e-06
-3.54509e-06
-2.51311e-06
-1.92197e-06
4.43529e-06
-7.4375e-06
1.64039e-06
9.83636e-06
1.50703e-06
-1.11963e-05
-1.57281e-06
6.19821e-06
-4.64877e-06
2.77578e-06
-2.40265e-06
-1.40522e-06
4.8533e-06
5.28533e-06
6.90726e-06
4.16548e-07
1.38756e-05
-6.38398e-06
6.06017e-06
4.07912e-06
-9.86325e-06
5.28905e-06
3.81587e-06
8.49917e-06
-9.00956e-06
5.21027e-07
5.87352e-06
-1.02721e-05
5.01749e-06
-1.06351e-05
5.20153e-06
2.40877e-06
-4.92163e-06
-3.84003e-06
1.73875e-06
1.31386e-05
-6.53813e-06
-6.23859e-06
-8.10336e-06
1.99945e-06
3.73205e-07
-7.04984e-06
-1.39698e-05
9.9413e-06
4.15796e-06
5.50447e-06
-1.56631e-05
1.02958e-05
4.63502e-06
-2.017e-06
-2.61722e-06
3.11853e-06
2.70626e-06
-5.82409e-06
-1.71357e-06
-3.28115e-06
4.99529e-06
-7.615e-06
6.70675e-06
9.12804e-07
4.28417e-06
-6.21695e-05
2.74509e-06
-3.58098e-06
-1.10563e-05
7.43987e-06
1.08475e-05
-8.41577e-06
-2.41618e-06
1.09454e-05
1.03375e-05
-5.13702e-06
-5.17982e-06
3.38981e-06
-1.21882e-05
-9.21714e-06
1.59921e-06
3.13774e-06
-5.55313e-06
2.41569e-06
7.04267e-07
-8.17383e-06
1.26584e-05
-6.62369e-06
-5.94631e-06
-4.51687e-06
3.90957e-06
-1.14887e-06
-6.07029e-06
7.63318e-06
-1.04139e-06
4.0836e-06
-8.12232e-06
-3.74641e-07
-2.00642e-05
2.69186e-06
-1.94922e-06
5.44746e-06
-1.74601e-06
4.86516e-06
-5.09515e-06
5.80212e-06
-7.03461e-07
-6.87474e-06
6.12005e-06
-6.02553e-06
-4.99485e-06
1.75966e-07
5.51708e-06
1.05433e-05
-3.91429e-06
1.72097e-07
-3.63586e-06
-4.34193e-06
-3.99477e-06
1.03257e-05
-4.42663e-06
-4.24304e-06
5.09109e-06
-2.2602e-06
-1.6359e-06
-3.06949e-06
4.34762e-06
4.97245e-06
-8.59663e-06
-5.19883e-06
-2.30287e-06
7.50502e-06
-1.18305e-05
4.87392e-06
7.44827e-06
5.81279e-06
-6.77695e-06
9.70993e-07
7.37985e-06
-2.78004e-07
-3.63724e-06
9.09981e-06
-7.17787e-06
-6.12492e-07
-8.00781e-06
6.73453e-07
9.29071e-06
-3.3974e-05
8.80022e-07
3.05491e-05
-3.21017e-05
4.24831e-05
-8.69118e-06
1.11985e-06
-1.44436e-07
8.20487e-06
-7.36917e-06
-8.2886e-07
-2.23539e-06
-1.13134e-05
-7.67825e-06
1.66423e-06
6.01759e-06
2.55337e-06
-3.5547e-06
4.30278e-06
-9.41336e-06
3.98484e-05
-3.49257e-05
-8.49516e-06
2.97236e-06
5.52964e-06
-5.64682e-07
-4.52584e-06
-2.13998e-06
-3.79321e-06
5.93496e-06
1.43664e-05
-3.07205e-06
-8.47496e-06
-3.86709e-06
1.2374e-05
-2.99498e-05
1.9882e-05
-1.1586e-05
1.08888e-05
8.59998e-07
1.08025e-05
8.62218e-08
4.39636e-06
-1.97302e-06
-7.06073e-06
1.06853e-07
3.97203e-06
8.09906e-06
-1.20855e-05
4.16342e-06
-6.68607e-06
6.38926e-06
1.53173e-06
-8.19027e-06
6.67564e-06
3.05348e-06
-4.35293e-06
1.29947e-06
-7.62775e-06
7.6945e-06
-5.46332e-08
-9.09771e-06
2.98794e-06
2.75864e-06
1.43505e-06
-4.19368e-06
1.90432e-06
-4.30746e-06
-1.14019e-06
-3.00585e-06
4.88886e-06
3.43876e-06
-1.02328e-05
3.52114e-06
3.03097e-06
-6.55011e-06
-5.64774e-06
-1.96158e-06
1.81507e-06
-8.15145e-06
-9.475e-06
8.83216e-06
-4.68046e-07
4.48369e-06
-3.07708e-06
-1.26385e-06
-5.80657e-06
1.42354e-06
9.828e-06
8.58542e-06
-1.00192e-05
-5.02889e-06
-5.74743e-06
2.92734e-06
-3.3498e-05
7.97785e-06
3.14348e-06
-1.10791e-05
3.32969e-06
-2.41099e-08
-1.04164e-05
1.16821e-05
-5.00928e-06
7.43244e-06
-1.51143e-06
-7.80211e-06
-2.08924e-05
2.70241e-05
-2.98594e-06
4.08009e-06
-4.55906e-06
3.59971e-07
6.88038e-06
-1.31297e-05
-3.71527e-06
2.79794e-06
-1.22811e-05
6.12867e-06
6.44096e-06
4.04171e-06
-5.78701e-06
1.34685e-05
-5.95449e-06
6.82503e-06
-8.54335e-06
-2.62144e-05
5.65039e-06
-1.03224e-05
4.70331e-06
-2.03307e-05
1.36685e-05
6.64731e-06
-1.11263e-05
4.51126e-06
-2.87253e-05
2.58199e-06
2.23585e-05
3.84148e-06
4.80588e-06
-8.63402e-06
2.89585e-06
-3.42633e-06
-6.70558e-07
-3.87334e-06
-4.16466e-06
2.04712e-06
2.117e-06
3.64758e-06
-3.2737e-06
4.32569e-06
-2.1168e-05
-1.07676e-05
-5.41856e-06
-4.40546e-06
-6.74039e-06
-2.86195e-06
9.64888e-06
4.12608e-06
-1.64579e-06
-2.48036e-06
-2.16745e-06
-1.98614e-06
4.15384e-06
-8.45285e-06
8.93097e-06
5.75551e-06
-7.18646e-06
1.89317e-06
1.6812e-06
-6.72921e-06
5.02394e-06
7.83808e-07
6.62028e-07
-5.85818e-06
-6.01491e-06
-1.65853e-06
-5.34071e-06
1.02901e-05
-4.91004e-06
3.78086e-06
-5.3544e-06
1.57388e-06
-1.74826e-06
-7.57184e-06
9.3795e-06
-7.22564e-06
-4.08544e-06
-7.64873e-06
3.62247e-06
4.03266e-06
5.32841e-06
-6.10857e-06
2.14612e-06
-1.05573e-05
-3.81446e-06
-1.43935e-06
5.25993e-06
7.85828e-06
3.42487e-06
-1.12376e-05
3.70401e-06
-8.14593e-06
5.02566e-06
6.66835e-06
3.68781e-06
-1.16152e-05
8.08175e-06
-7.7983e-06
-1.78654e-05
2.69307e-05
1.53405e-06
-1.2929e-05
-1.02727e-05
4.77153e-06
7.29136e-06
-1.19321e-05
1.4663e-05
-2.08884e-05
6.79319e-06
8.45203e-06
5.07237e-06
-1.04222e-05
5.38116e-06
7.89264e-06
-1.87566e-06
-5.52229e-06
5.24119e-07
8.07938e-06
7.81138e-06
-1.70719e-06
1.38438e-05
-1.6042e-06
-1.185e-05
-4.51538e-06
-1.94171e-08
-2.63443e-07
-1.02958e-05
1.08676e-05
6.32199e-05
-5.38912e-05
-9.60069e-06
1.23055e-05
-7.58707e-06
-4.49285e-06
-4.70881e-06
2.68778e-05
-2.35301e-05
-2.54159e-06
3.26822e-06
7.3005e-06
3.39507e-06
-1.06634e-05
3.8865e-07
-5.38741e-06
-6.5065e-05
9.43505e-06
5.5399e-05
7.31718e-06
-7.29127e-06
1.58375e-07
-9.92552e-06
1.209e-06
8.72727e-06
5.07805e-08
8.75135e-06
-4.28785e-06
-9.09801e-06
1.33339e-05
-5.22691e-06
5.37765e-06
-1.49938e-07
2.62082e-06
-8.55983e-06
5.95725e-06
-1.21437e-06
-4.58363e-06
9.77583e-06
-5.70695e-06
-1.5685e-06
7.28413e-06
2.92221e-06
-5.2898e-07
-1.57709e-06
3.72682e-06
-6.31787e-06
2.51298e-06
-1.25059e-05
2.66334e-05
-1.27666e-06
8.70985e-06
-2.25959e-06
-1.48146e-06
3.74185e-06
1.43527e-07
6.98892e-06
-1.85028e-06
5.60974e-06
-3.75796e-06
1.04061e-05
2.0508e-06
-3.75395e-06
1.73573e-06
-8.37219e-06
8.57483e-08
8.31136e-06
-4.67091e-06
7.30729e-06
-7.70988e-06
1.03024e-06
-2.20973e-05
5.76696e-05
-3.39724e-05
-1.68984e-06
1.68984e-06
9.32982e-06
1.99793e-08
1.86962e-06
-1.49044e-06
-6.37301e-06
1.36982e-05
-6.90287e-06
5.04864e-06
-5.73606e-06
6.8844e-07
-3.40123e-06
1.05596e-05
1.44289e-05
-1.27402e-05
-1.18116e-06
1.16497e-05
-5.97585e-06
-5.50223e-06
-4.10455e-05
2.95512e-05
1.13418e-05
-4.29009e-05
-4.16049e-07
3.67058e-05
-7.20336e-06
-1.14057e-05
2.49773e-06
1.6282e-06
6.88103e-06
4.58336e-06
-1.13751e-05
9.54518e-06
-8.53396e-06
1.10342e-05
-2.63771e-05
-2.81242e-06
-1.83626e-06
6.01295e-06
-3.34579e-06
9.67956e-06
-5.7914e-06
-5.68746e-06
-1.29502e-06
2.3526e-07
-5.46126e-06
2.20664e-06
4.22164e-06
-6.42628e-06
-3.49834e-06
4.17273e-06
-6.74387e-07
-7.15614e-06
-5.88371e-06
8.40549e-06
-4.12449e-06
-5.29215e-05
3.02839e-05
-7.32782e-06
-4.1291e-05
1.01803e-05
-4.60414e-06
1.08819e-05
6.74251e-06
-2.93461e-06
-3.80475e-06
1.3059e-05
-5.35586e-06
-3.41906e-07
3.91579e-06
2.36591e-06
-6.06033e-06
4.12103e-06
1.47663e-05
-6.58449e-06
-7.99842e-06
-3.00957e-06
-1.07345e-07
3.11691e-06
-1.37224e-05
5.20522e-07
1.10078e-05
-2.18401e-06
1.73682e-06
3.27547e-07
-1.18672e-06
2.33123e-05
-2.28136e-05
-3.21803e-06
-1.02696e-05
5.96924e-06
3.63299e-06
-9.27622e-06
3.91504e-06
1.12385e-06
-4.50572e-06
-6.64317e-07
4.70666e-06
4.16706e-06
-1.94812e-06
-2.21892e-06
9.09059e-06
-6.46785e-06
4.01818e-05
-4.87775e-05
9.25574e-06
6.74194e-06
-9.11209e-06
2.38011e-06
3.85979e-06
-8.03322e-06
-3.98957e-07
3.60408e-06
1.79366e-06
-5.39592e-06
-1.08778e-05
5.1704e-05
-4.78258e-06
1.7529e-05
2.72081e-06
-1.89589e-05
7.59151e-06
-2.19231e-05
1.57011e-05
5.31366e-07
6.72015e-06
-4.98921e-06
-7.61419e-07
5.42092e-06
-1.11198e-06
-8.37141e-06
9.08581e-06
-6.57902e-07
5.04578e-06
-5.0643e-08
-5.27168e-06
-4.44885e-05
-1.59687e-05
6.02769e-05
8.47523e-06
-5.49516e-06
-2.77363e-06
1.50821e-05
-5.61947e-06
-8.67431e-06
1.04723e-06
-5.04693e-06
2.09304e-06
-4.66989e-06
2.57677e-06
-1.12572e-05
1.76433e-05
-5.11428e-06
-2.40645e-05
8.80251e-06
1.68043e-05
1.9785e-06
-4.70593e-06
2.72767e-06
2.93006e-06
3.03035e-06
5.74332e-06
6.98227e-06
5.24997e-06
9.19793e-06
-3.78205e-06
-5.39539e-06
1.15625e-05
-7.21755e-06
-4.05447e-06
6.22197e-06
-2.13226e-05
1.6182e-05
3.34125e-06
9.45343e-06
-3.04059e-06
-2.77298e-06
6.62534e-06
1.75437e-05
3.89767e-07
-1.80403e-05
1.03993e-06
-4.57824e-06
-4.32056e-06
2.1534e-06
-1.29405e-05
8.1488e-06
4.87524e-06
4.55477e-06
-1.37504e-06
-3.17965e-06
1.02923e-07
9.35375e-06
4.19143e-06
-1.42227e-06
-8.14477e-06
-3.59832e-06
1.18485e-05
1.39615e-06
-5.34945e-06
-2.06944e-06
-1.71071e-06
3.78016e-06
3.95972e-06
4.28403e-07
-4.36944e-06
6.10291e-06
1.00699e-05
-4.33634e-06
-3.30446e-06
1.00532e-05
-2.465e-05
-1.46375e-09
7.7756e-06
-1.68218e-05
-4.81196e-05
-4.53765e-06
1.39835e-06
1.90262e-05
4.38509e-05
-3.37441e-06
-1.65911e-05
3.21759e-06
-2.16747e-06
8.5112e-06
-6.01274e-06
6.56842e-06
-5.41515e-06
-2.51196e-06
-5.57342e-06
-1.42879e-05
2.3711e-05
-8.13431e-06
7.22532e-06
4.1349e-06
-1.13462e-05
-1.98408e-05
1.90351e-05
4.63054e-07
3.02411e-06
1.12152e-05
1.30144e-05
-2.34828e-05
4.44545e-06
-1.46011e-05
1.42296e-05
1.01515e-06
6.44885e-06
3.56227e-07
6.52333e-06
3.48258e-06
4.08998e-07
-3.89181e-06
6.04668e-06
-2.30272e-06
-3.74317e-06
-1.28342e-05
4.40246e-06
-5.13835e-06
3.94903e-06
-2.6952e-06
-1.3019e-06
3.99712e-06
-1.60095e-06
-9.04961e-07
3.97668e-06
-1.23158e-06
1.55165e-06
3.43965e-06
1.00052e-06
-3.6957e-06
-5.08369e-06
3.12259e-06
1.96115e-06
4.47786e-06
-2.49912e-06
1.72973e-06
-4.54477e-06
-4.03659e-06
-4.45202e-06
7.19877e-06
-9.02554e-06
4.57928e-06
4.36888e-06
-1.24015e-05
4.92827e-06
-1.42463e-06
-2.47301e-05
4.05199e-05
8.69272e-06
-4.86451e-06
5.92232e-06
-8.72914e-06
-8.91358e-07
9.31373e-06
-9.03264e-08
-8.99636e-06
8.39109e-06
3.68418e-06
-1.2032e-05
-3.7385e-06
3.53741e-07
3.38461e-06
3.10759e-06
6.67464e-06
7.40955e-08
-7.57268e-06
8.31148e-06
-4.1128e-06
2.13643e-06
1.976e-06
6.01863e-06
-5.71805e-07
-5.44368e-06
3.63211e-06
4.94081e-06
-1.05236e-05
-1.26297e-05
5.88105e-06
6.89323e-06
1.71409e-06
-4.92482e-07
-2.64584e-07
-3.72158e-07
-3.79384e-06
-4.19035e-06
-6.33726e-06
9.7387e-06
4.72816e-06
-1.43612e-05
6.36423e-06
-8.21047e-06
2.3044e-06
1.86267e-06
7.69317e-07
-3.77888e-06
4.28813e-06
-2.54063e-07
-4.51547e-06
2.34088e-05
5.03191e-06
-6.92745e-06
-7.45524e-06
1.20127e-06
-3.4742e-06
4.11564e-06
-6.41345e-07
-1.32371e-06
5.92978e-06
3.25318e-06
-9.16691e-06
-3.00771e-06
2.78633e-06
8.52318e-07
6.10423e-06
-3.35483e-06
2.74366e-05
-4.34287e-05
9.9749e-06
2.56929e-05
3.33504e-05
2.33995e-06
-1.1868e-05
-6.06158e-06
4.34807e-06
2.26389e-06
2.4881e-06
-4.75186e-06
-2.82145e-06
7.94209e-06
-5.11056e-06
-9.00559e-06
6.77124e-06
2.10932e-06
2.72943e-06
1.98604e-06
-4.7154e-06
-5.92411e-06
-2.42495e-06
-1.02783e-05
1.29675e-05
3.0722e-06
-4.54096e-06
1.46877e-06
-2.1747e-06
1.0332e-05
5.19312e-06
-1.11267e-05
7.89029e-06
2.67665e-06
-1.0558e-05
-3.71848e-06
-1.0199e-06
-4.16396e-07
-6.86526e-06
-4.403e-06
2.75029e-06
2.31463e-06
-5.06462e-06
2.67251e-07
-5.40289e-06
-6.2664e-06
1.30629e-06
4.96233e-06
-1.71393e-06
6.75231e-06
-5.02906e-06
-4.50699e-06
2.95154e-06
2.95199e-06
-9.37811e-06
6.8957e-06
-5.54915e-06
-7.69024e-07
6.3222e-06
1.07768e-05
-1.29486e-05
3.00623e-05
-1.4401e-05
-1.5152e-05
1.50443e-05
-9.41777e-06
-2.05888e-06
5.84786e-06
-3.61526e-06
1.16923e-07
-8.72076e-06
2.57746e-05
-1.57799e-05
1.43749e-05
-5.93057e-05
3.31513e-06
-7.59879e-07
5.72958e-06
-9.50098e-06
9.3695e-06
-1.27402e-05
3.5363e-06
5.62206e-07
-1.18617e-07
1.85268e-06
-1.01187e-05
-7.55683e-06
6.68784e-06
-1.97241e-05
8.86621e-06
6.68432e-06
-6.69038e-06
9.68083e-09
3.6696e-06
-4.78035e-06
1.11082e-06
-4.36321e-07
2.26416e-06
1.58138e-06
-7.56431e-06
5.99507e-06
4.24636e-06
9.16903e-06
8.46972e-07
-4.41603e-06
-7.36146e-07
3.46562e-06
9.41286e-07
3.32794e-06
5.44743e-06
3.76875e-06
4.46425e-06
-4.97975e-07
2.44425e-06
4.39619e-06
-1.45291e-06
7.51436e-06
7.80217e-07