/*--------------------------------*- C++ -*----------------------------------*\
| =========                 |                                                 |
| \\      /  F ield         | OpenFOAM: The Open Source CFD Toolbox           |
|  \\    /   O peration     | Version:  v2012                                 |
|   \\  /    A nd           | Website:  www.openfoam.com                      |
|    \\/     M anipulation  |                                                 |
\*---------------------------------------------------------------------------*/
FoamFile
{
    version     2.0;
    format      ascii;
    class       pointVectorField;
    location    "350";
    object      pointDisplacement;
}
// * * * * * * * * * * * * * * * * * * * * * * * * * * * * * * * * * * * * * //

dimensions      [0 1 0 0 0 0 0];


internalField   nonuniform List<vector> 
14246
(
(0 0 0)
(0 0.0156009 0)
(0 0 0)
(0 0.0156009 0)
(0 0 0)
(0 0 0)
(0 0 0)
(0 0 0)
(0 0 0)
(0 0 0)
(0 0 0)
(0 0 0)
(0 0 0)
(0 0 0)
(0 0 0)
(0 0 0)
(0 0 0)
(0 0 0)
(0 0 0)
(0 0 0)
(0 0 0)
(0 0 0)
(0 0 0)
(0 0 0)
(0 0 0)
(0 0 0)
(0 0 0)
(0 0 0)
(0 0 0)
(0 0 0)
(0 0 0)
(0 0 0)
(0 0 0)
(0 0 0)
(0 0 0)
(0 0 0)
(0 0 0)
(0 0 0)
(0 0 0)
(0 0 0)
(0 0 0)
(0 0 0)
(0 0 0)
(0 0 0)
(0 0 0)
(0 0 0)
(0 0 0)
(0 0 0)
(0 0 0)
(0 0 0)
(0 0 0)
(0 0 0)
(0 0 0)
(0 0 0)
(0 0 0)
(0 0 0)
(0 0 0)
(0 0 0)
(0 0 0)
(0 0 0)
(0 0 0)
(0 0 0)
(0 0 0)
(0 0 0)
(0 0 0)
(0 0 0)
(0 0 0)
(0 0 0)
(0 0 0)
(0 0 0)
(0 0 0)
(0 0 0)
(0 0 0)
(0 0 0)
(0 0 0)
(0 0.0156009 0)
(0 0.0156009 0)
(0 0.0156009 0)
(0 0.0156009 0)
(0 0.0156009 0)
(0 0.0156009 0)
(0 0.0156009 0)
(0 0.0156009 0)
(0 0.0156009 0)
(0 0.0156009 0)
(0 0.0156009 0)
(0 0.0156009 0)
(0 0.0156009 0)
(0 0.0156009 0)
(0 0.0156009 0)
(0 0.0156009 0)
(0 0.0156009 0)
(0 0.0156009 0)
(0 0.0156009 0)
(0 0.0156009 0)
(0 0.0156009 0)
(0 0.0156009 0)
(0 0.0156009 0)
(0 0.0156009 0)
(0 0.0156009 0)
(0 0.0156009 0)
(0 0.0156009 0)
(0 0.0156009 0)
(0 0.0156009 0)
(0 0.0156009 0)
(0 0.0156009 0)
(0 0.0156009 0)
(0 0.0156009 0)
(0 0.0156009 0)
(0 0.0156009 0)
(0 0.0156009 0)
(0 0.0156009 0)
(0 0.0156009 0)
(0 0.0156009 0)
(0 0.0156009 0)
(0 0.0156009 0)
(0 0.0156009 0)
(0 0.0156009 0)
(0 0.0156009 0)
(0 0.0156009 0)
(0 0.0156009 0)
(0 0.0156009 0)
(0 0.0156009 0)
(0 0.0156009 0)
(0 0.0156009 0)
(0 0.0156009 0)
(0 0.0156009 0)
(0 0.0156009 0)
(0 0.0156009 0)
(0 0.0156009 0)
(0 0.0156009 0)
(0 0.0156009 0)
(0 0.0156009 0)
(0 0.0156009 0)
(0 0.0156009 0)
(0 0.0156009 0)
(0 0.0156009 0)
(0 0.0156009 0)
(0 0.0156009 0)
(0 0.0156009 0)
(0 0.0156009 0)
(0 0.0156009 0)
(0 0.0156009 0)
(0 0.0156009 0)
(0 0.0156009 0)
(0 0.0156009 0)
(0 0.0156009 0)
(0 0.0156009 0)
(0 0.0156009 0)
(0 0.0156009 0)
(0 0.0156009 0)
(0 0.0156009 0)
(0 0.0156009 0)
(0 0.0156009 0)
(0 0.0156009 0)
(0 0.0156009 0)
(0 0.0156009 0)
(0 0.0156009 0)
(0 0.0156009 0)
(0 0.0156009 0)
(0 0.0156009 0)
(0 0.0156009 0)
(0 0.0156009 0)
(0 0.0156009 0)
(0 0.0156009 0)
(0 0.0156009 0)
(0 0.0156009 0)
(0 0.0156009 0)
(0 0.0156009 0)
(0 0.0156009 0)
(0 0.0156009 0)
(0 0.0156009 0)
(0 0.0156009 0)
(0 0.0156009 0)
(0 0.0156009 0)
(0 0.0156009 0)
(0 0.0156009 0)
(0 0.0156009 0)
(0 0.0156009 0)
(0 0.0156009 0)
(0 0.0156009 0)
(0 0.0156009 0)
(0 0.0156009 0)
(0 0.0156009 0)
(0 0.0156009 0)
(0 0.0156009 0)
(0 0.0156009 0)
(0 0.0156009 0)
(0 0.0156009 0)
(0 0.0156009 0)
(0 0.0156009 0)
(0 0.0156009 0)
(0 0.0156009 0)
(0 0.0156009 0)
(0 0.0156009 0)
(0 0.0156009 0)
(0 0.0156009 0)
(0 0.0156009 0)
(0 0.0156009 0)
(0 0.0156009 0)
(0 0.0156009 0)
(0 0.0156009 0)
(0 0.0156009 0)
(0 0.0156009 0)
(0 0.0156009 0)
(0 0.0156009 0)
(0 0.0156009 0)
(0 0.0156009 0)
(0 0.0156009 0)
(0 0.0156009 0)
(0 0 0)
(0 0 0)
(0 0 0)
(0 0 0)
(0 0 0)
(0 0 0)
(0 0 0)
(0 0 0)
(0 0 0)
(0 0 0)
(0 0 0)
(0 0 0)
(0 0 0)
(0 0 0)
(0 0 0)
(0 0 0)
(0 0 0)
(0 0 0)
(0 0 0)
(0 0 0)
(0 0 0)
(0 0 0)
(0 0 0)
(0 0 0)
(0 0 0)
(0 0 0)
(0 0 0)
(0 0 0)
(0 0 0)
(0 0 0)
(0 0 0)
(0 0 0)
(0 0 0)
(0 0 0)
(0 0 0)
(0 0 0)
(0 0 0)
(0 0 0)
(0 0 0)
(0 0 0)
(0 0 0)
(0 0 0)
(0 0 0)
(0 0 0)
(0 0 0)
(0 0 0)
(0 0 0)
(0 0 0)
(0 0 0)
(0 0 0)
(0 0 0)
(0 0 0)
(0 0 0)
(0 0 0)
(0 0 0)
(0 0 0)
(0 0 0)
(0 0 0)
(0 0 0)
(0 0 0)
(0 0 0)
(0 0 0)
(0 0 0)
(0 0 0)
(0 0 0)
(0 0 0)
(0 0 0)
(0 0 0)
(0 0 0)
(0 0 0)
(0 0 0)
(0 0.0156009 0)
(0 0.0156009 0)
(0 0.0156009 0)
(0 0.0156009 0)
(0 0.0156009 0)
(0 0.0156009 0)
(0 0.0156009 0)
(0 0.0156009 0)
(0 0.0156009 0)
(0 0.0156009 0)
(0 0.0156009 0)
(0 0.0156009 0)
(0 0.0156009 0)
(0 0.0156009 0)
(0 0.0156009 0)
(0 0.0156009 0)
(0 0.0156009 0)
(0 0.0156009 0)
(0 0.0156009 0)
(0 0.0156009 0)
(0 0.0156009 0)
(0 0.0156009 0)
(0 0.0156009 0)
(0 0.0156009 0)
(0 0.0156009 0)
(0 0.0156009 0)
(0 0.0156009 0)
(0 0.0156009 0)
(0 0.0156009 0)
(0 0.0156009 0)
(0 0.0156009 0)
(0 0.0156009 0)
(0 0.0156009 0)
(0 0.0156009 0)
(0 0.0156009 0)
(0 0.0156009 0)
(0 0.0156009 0)
(0 0.0156009 0)
(0 0.0156009 0)
(0 0.0156009 0)
(0 0.0156009 0)
(0 0.0156009 0)
(0 0.0156009 0)
(0 0.0156009 0)
(0 0.0156009 0)
(0 0.0156009 0)
(0 0.0156009 0)
(0 0.0156009 0)
(0 0.0156009 0)
(0 0.0156009 0)
(0 0.0156009 0)
(0 0.0156009 0)
(0 0.0156009 0)
(0 0.0156009 0)
(0 0.0156009 0)
(0 0.0156009 0)
(0 0.0156009 0)
(0 0.0156009 0)
(0 0.0156009 0)
(0 0.0156009 0)
(0 0.0156009 0)
(0 0.0156009 0)
(0 0.0156009 0)
(0 0.0156009 0)
(0 0.0156009 0)
(0 0.0156009 0)
(0 0.0156009 0)
(0 0.0156009 0)
(0 0.0156009 0)
(0 0.0156009 0)
(0 0.0156009 0)
(0 0.0156009 0)
(0 0.0156009 0)
(0 0.0156009 0)
(0 0.0156009 0)
(0 0.0156009 0)
(0 0.0156009 0)
(0 0.0156009 0)
(0 0.0156009 0)
(0 0.0156009 0)
(0 0.0156009 0)
(0 0.0156009 0)
(0 0.0156009 0)
(0 0.0156009 0)
(0 0.0156009 0)
(0 0.0156009 0)
(0 0.0156009 0)
(0 0.0156009 0)
(0 0.0156009 0)
(0 0.0156009 0)
(0 0.0156009 0)
(0 0.0156009 0)
(0 0.0156009 0)
(0 0.0156009 0)
(0 0.0156009 0)
(0 0.0156009 0)
(0 0.0156009 0)
(0 0.0156009 0)
(0 0.0156009 0)
(0 0.0156009 0)
(0 0.0156009 0)
(0 0.0156009 0)
(0 0.0156009 0)
(0 0.0156009 0)
(0 0.0156009 0)
(0 0.0156009 0)
(0 0.0156009 0)
(0 0.0156009 0)
(0 0.0156009 0)
(0 0.0156009 0)
(0 0.0156009 0)
(0 0.0156009 0)
(0 0.0156009 0)
(0 0.0156009 0)
(0 0.0156009 0)
(0 0.0156009 0)
(0 0.0156009 0)
(0 0.0156009 0)
(0 0.0156009 0)
(0 0.0156009 0)
(0 0.0156009 0)
(0 0.0156009 0)
(0 0.0156009 0)
(0 0.0156009 0)
(0 0.0156009 0)
(0 0.0156009 0)
(0 0.0156009 0)
(0 0.0156009 0)
(0 0.0156009 0)
(0 0.0156009 0)
(0 0.0156009 0)
(0 0.0156009 0)
(0 0.0156009 0)
(0 0.0156009 0)
(0 0.0156009 0)
(0 0.0156009 0)
(0 0.0156009 0)
(0 0.0156009 0)
(0 0.0156009 0)
(0 0.0156009 0)
(0 0.0156009 0)
(0 0.0156009 0)
(0 0.0156009 0)
(0 0.0156009 0)
(0 0.0156009 0)
(0 0.0156009 0)
(0 0.0156009 0)
(0 0.0156009 0)
(0 0.0156009 0)
(0 0.0156009 0)
(0 0.0156004 0)
(0 0.000809472 0)
(0 0.000922717 0)
(0 0.000989334 0)
(0 0.0012401 0)
(0 0.00111737 0)
(0 0.00133102 0)
(0 0.00107013 0)
(0 0.0156009 0)
(0 0.000714196 0)
(0 0.000727217 0)
(0 0.000535651 0)
(0 0.0156009 0)
(0 0.0156009 0)
(0 0.0156009 0)
(0 0.0156009 0)
(0 0.0156009 0)
(0 0.0156009 0)
(0 0.0156009 0)
(0 0.0156009 0)
(0 0.0156009 0)
(0 0.0156009 0)
(0 0.0156009 0)
(0 0.0156009 0)
(0 0.0156009 0)
(0 0.0156009 0)
(0 0.000540933 0)
(0 0.00104794 0)
(0 0.000991727 0)
(0 0.000944739 0)
(0 0.000328221 0)
(0 0.000375665 0)
(0 0.000209881 0)
(0 0.00120304 0)
(0 0.0012104 0)
(0 0.000845642 0)
(0 0.000988435 0)
(0 0.00103781 0)
(0 0.000798946 0)
(0 0.000630176 0)
(0 0.000686296 0)
(0 0.000435512 0)
(0 0.000221577 0)
(0 0.000101462 0)
(0 0.0011518 0)
(0 0.00218562 0)
(0 0.00213668 0)
(0 0.00312012 0)
(0 0.0030587 0)
(0 0.00396261 0)
(0 0.00388856 0)
(0 0.00473951 0)
(0 0.00464682 0)
(0 0.00543864 0)
(0 0.00532576 0)
(0 0.00605139 0)
(0 0.00592271 0)
(0 0.00660393 0)
(0 0.00646067 0)
(0 0.00710442 0)
(0 0.00725419 0)
(0 0.0077156 0)
(0 0.00786332 0)
(0 0.00829085 0)
(0 0.00843221 0)
(0 0.0088308 0)
(0 0.0089669 0)
(0 0.00933597 0)
(0 0.00947571 0)
(0 0.00980798 0)
(0 0.00995289 0)
(0 0.0102497 0)
(0 0.0103838 0)
(0 0.0106584 0)
(0 0.0107856 0)
(0 0.0110406 0)
(0 0.0111564 0)
(0 0.0114009 0)
(0 0.0115011 0)
(0 0.0117315 0)
(0 0.0118282 0)
(0 0.0120381 0)
(0 0.0121315 0)
(0 0.0123232 0)
(0 0.0124142 0)
(0 0.012591 0)
(0 0.0126805 0)
(0 0.0124976 0)
(0 0.0127513 0)
(0 0.0126557 0)
(0 0.012897 0)
(0 0.0127998 0)
(0 0.0130309 0)
(0 0.0129314 0)
(0 0.0131548 0)
(0 0.0130506 0)
(0 0.0132573 0)
(0 0.0131611 0)
(0 0.0133507 0)
(0 0.013257 0)
(0 0.0134506 0)
(0 0.0133427 0)
(0 0.0135391 0)
(0 0.0134246 0)
(0 0.0136123 0)
(0 0.0133883 0)
(0 0.0134971 0)
(0 0.0136782 0)
(0 0.0135606 0)
(0 0.0137367 0)
(0 0.013618 0)
(0 0.0137903 0)
(0 0.0136692 0)
(0 0.0138356 0)
(0 0.0134935 0)
(0 0.0137148 0)
(0 0.013871 0)
(0 0.013749 0)
(0 0.0139017 0)
(0 0.0137733 0)
(0 0.0139212 0)
(0 0.0137944 0)
(0 0.0139393 0)
(0 0.0138105 0)
(0 0.0139565 0)
(0 0.0138188 0)
(0 0.0139641 0)
(0 0.0136707 0)
(0 0.0137858 0)
(0 0.01382 0)
(0 0.0139636 0)
(0 0.0138166 0)
(0 0.0139562 0)
(0 0.014093 0)
(0 0.0140864 0)
(0 0.0139485 0)
(0 0.0140777 0)
(0 0.0142089 0)
(0 0.0141976 0)
(0 0.0140649 0)
(0 0.0141832 0)
(0 0.0143094 0)
(0 0.0142941 0)
(0 0.014166 0)
(0 0.0142765 0)
(0 0.0141468 0)
(0 0.0142574 0)
(0 0.0143785 0)
(0 0.014362 0)
(0 0.0142375 0)
(0 0.0143424 0)
(0 0.01448 0)
(0 0.0144395 0)
(0 0.0143209 0)
(0 0.0144134 0)
(0 0.014532 0)
(0 0.0144964 0)
(0 0.0143695 0)
(0 0.0144723 0)
(0 0.0145784 0)
(0 0.014557 0)
(0 0.014448 0)
(0 0.014531 0)
(0 0.0144182 0)
(0 0.0145025 0)
(0 0.0146095 0)
(0 0.0145816 0)
(0 0.0144721 0)
(0 0.0145522 0)
(0 0.0144405 0)
(0 0.0145216 0)
(0 0.0146276 0)
(0 0.0145974 0)
(0 0.0144896 0)
(0 0.0145658 0)
(0 0.0146679 0)
(0 0.0146369 0)
(0 0.0145329 0)
(0 0.0146047 0)
(0 0.0144989 0)
(0 0.0145719 0)
(0 0.0146713 0)
(0 0.0146394 0)
(0 0.0145387 0)
(0 0.0146066 0)
(0 0.0147026 0)
(0 0.014671 0)
(0 0.0145721 0)
(0 0.0146376 0)
(0 0.0145352 0)
(0 0.0146013 0)
(0 0.0144965 0)
(0 0.0145631 0)
(0 0.0146629 0)
(0 0.0146254 0)
(0 0.0145239 0)
(0 0.0145876 0)
(0 0.0146839 0)
(0 0.0146473 0)
(0 0.0145486 0)
(0 0.0146087 0)
(0 0.0145078 0)
(0 0.0145686 0)
(0 0.00814047 0)
(0 0.0140169 0)
(0 0.012499 0)
(0 0.0127611 0)
(0 0.0125778 0)
(0 0.012842 0)
(0 0.0126528 0)
(0 0.0131295 0)
(0 0.0152188 0)
(0 0.0152675 0)
(0 0.0152331 0)
(0 0.0152799 0)
(0 0.0152438 0)
(0 0.0152902 0)
(0 0.0152525 0)
(0 0.0152987 0)
(0 0.0105127 0)
(0 0.0152599 0)
(0 0.0153041 0)
(0 0.0151698 0)
(0 0.0152647 0)
(0 0.0153064 0)
(0 0.0153333 0)
(0 0.0152671 0)
(0 0.0153075 0)
(0 0.0152189 0)
(0 0.0152674 0)
(0 0.0153067 0)
(0 0.0153437 0)
(0 0.0153418 0)
(0 0.015304 0)
(0 0.0153382 0)
(0 0.0152993 0)
(0 0.0153326 0)
(0 0.0153689 0)
(0 0.0153627 0)
(0 0.0101144 0)
(0 0.0153963 0)
(0 0.0153896 0)
(0 0.015355 0)
(0 0.0153812 0)
(0 0.0154132 0)
(0 0.0154044 0)
(0 0.0153713 0)
(0 0.0153943 0)
(0 0.0154251 0)
(0 0.0154146 0)
(0 0.0154431 0)
(0 0.0154324 0)
(0 0.0154033 0)
(0 0.015421 0)
(0 0.0154477 0)
(0 0.0154363 0)
(0 0.015461 0)
(0 0.0154498 0)
(0 0.0154723 0)
(0 0.0154607 0)
(0 0.0154819 0)
(0 0.0154698 0)
(0 0.0154901 0)
(0 0.015478 0)
(0 0.015497 0)
(0 0.0154851 0)
(0 0.0155029 0)
(0 0.0154914 0)
(0 0.0155079 0)
(0 0.0154969 0)
(0 0.0155122 0)
(0 0.0155017 0)
(0 0.0155164 0)
(0 0.0155061 0)
(0 0.0155201 0)
(0 0.0155102 0)
(0 0.0155231 0)
(0 0.0155132 0)
(0 0.0155256 0)
(0 0.0155158 0)
(0 0.0155276 0)
(0 0.015518 0)
(0 0.0155293 0)
(0 0.0155196 0)
(0 0.0155309 0)
(0 0.0155214 0)
(0 0.0155323 0)
(0 0.0155229 0)
(0 0.0155336 0)
(0 0.0155241 0)
(0 0.0155347 0)
(0 0.0155252 0)
(0 0.0155356 0)
(0 0.0155264 0)
(0 0.0155361 0)
(0 0.0155272 0)
(0 0.0155366 0)
(0 0.0155276 0)
(0 0.0155371 0)
(0 0.015528 0)
(0 0.0155375 0)
(0 0.0155284 0)
(0 0.0155378 0)
(0 0.0155289 0)
(0 0.015538 0)
(0 0.0155291 0)
(0 0.0155381 0)
(0 0.0155291 0)
(0 0.0155381 0)
(0 0.0155291 0)
(0 0.015538 0)
(0 0.0155289 0)
(0 0.015538 0)
(0 0.0155288 0)
(0 0.0155381 0)
(0 0.0155286 0)
(0 0.0155378 0)
(0 0.0155284 0)
(0 0.0155372 0)
(0 0.0155278 0)
(0 0.0155364 0)
(0 0.015527 0)
(0 0.0155355 0)
(0 0.0155261 0)
(0 0.0155347 0)
(0 0.0155246 0)
(0 0.0155339 0)
(0 0.0155236 0)
(0 0.0155331 0)
(0 0.0155234 0)
(0 0.0155324 0)
(0 0.0155227 0)
(0 0.0155313 0)
(0 0.0155215 0)
(0 0.0155303 0)
(0 0.0155203 0)
(0 0.0155291 0)
(0 0.0155191 0)
(0 0.0155281 0)
(0 0.0155182 0)
(0 0.0155268 0)
(0 0.0155167 0)
(0 0.0155252 0)
(0 0.0155152 0)
(0 0.0155237 0)
(0 0.0155138 0)
(0 0.0155222 0)
(0 0.0155117 0)
(0 0.0155206 0)
(0 0.0155096 0)
(0 0.0155189 0)
(0 0.0155075 0)
(0 0.0155168 0)
(0 0.0155054 0)
(0 0.0155145 0)
(0 0.0155034 0)
(0 0.0155124 0)
(0 0.0155008 0)
(0 0.01551 0)
(0 0.0154979 0)
(0 0.0155074 0)
(0 0.015495 0)
(0 0.0155047 0)
(0 0.0155164 0)
(0 0.0155138 0)
(0 0.0155018 0)
(0 0.0155111 0)
(0 0.0155281 0)
(0 0.0155341 0)
(0 0.0155391 0)
(0 0.0155421 0)
(0 0.0155461 0)
(0 0.015546 0)
(0 0.0155186 0)
(0 0.0155185 0)
(0 0.0155152 0)
(0 0.0155063 0)
(0 0.0154911 0)
(0 0.0155459 0)
(0 0.0155124 0)
(0 0.0154998 0)
(0 0.0155088 0)
(0 0.0154561 0)
(0 0.0155446 0)
(0 0.015488 0)
(0 0.015393 0)
(0 0.0155406 0)
(0 0.0155352 0)
(0 0.0129125 0)
(0 0.0127207 0)
(0 0.0155174 0)
(0 0.0155216 0)
(0 0.0154926 0)
(0 0.0129674 0)
(0 0.0127413 0)
(0 0.0130191 0)
(0 0.0128259 0)
(0 0.0130743 0)
(0 0.012874 0)
(0 0.0126173 0)
(0 0.0126426 0)
(0 0.0123764 0)
(0 0.0124005 0)
(0 0.0120974 0)
(0 0.0121352 0)
(0 0.0129078 0)
(0 0.0131923 0)
(0 0.0118059 0)
(0 0.011845 0)
(0 0.011502 0)
(0 0.0115362 0)
(0 0.0118752 0)
(0 0.0115606 0)
(0 0.0118952 0)
(0 0.0111979 0)
(0 0.00482569 0)
(0 0.0155682 0)
(0 0.0155588 0)
(0 0.0155637 0)
(0 0.0155724 0)
(0 0.0155682 0)
(0 0.0155764 0)
(0 0.0155719 0)
(0 0.0155794 0)
(0 0.0155751 0)
(0 0.0155818 0)
(0 0.0155778 0)
(0 0.0155835 0)
(0 0.0155797 0)
(0 0.0155848 0)
(0 0.0155809 0)
(0 0.0155856 0)
(0 0.0155627 0)
(0 0.0155816 0)
(0 0.015586 0)
(0 0.0155753 0)
(0 0.0126986 0)
(0 0.0155817 0)
(0 0.015586 0)
(0 0.0140958 0)
(0 0.00908578 0)
(0 0.0155815 0)
(0 0.0155855 0)
(0 0.0155851 0)
(0 0.0110801 0)
(0 0.0114676 0)
(0 0.0112323 0)
(0 0.0108343 0)
(0 0.0109931 0)
(0 0.0113805 0)
(0 0.011145 0)
(0 0.0115193 0)
(0 0.0112882 0)
(0 0.0108974 0)
(0 0.0110453 0)
(0 0.0114244 0)
(0 0.0111884 0)
(0 0.010787 0)
(0 0.0109346 0)
(0 0.0113267 0)
(0 0.0110759 0)
(0 0.011459 0)
(0 0.0112115 0)
(0 0.0108126 0)
(0 0.0109512 0)
(0 0.0113446 0)
(0 0.0110875 0)
(0 0.0106763 0)
(0 0.0108158 0)
(0 0.0112268 0)
(0 0.0109551 0)
(0 0.0105313 0)
(0 0.0106685 0)
(0 0.0110812 0)
(0 0.0107987 0)
(0 0.010376 0)
(0 0.0105101 0)
(0 0.0109192 0)
(0 0.0106344 0)
(0 0.0110323 0)
(0 0.0107542 0)
(0 0.0103388 0)
(0 0.0104625 0)
(0 0.010886 0)
(0 0.010585 0)
(0 0.010158 0)
(0 0.0102675 0)
(0 0.0106602 0)
(0 0.010361 0)
(0 0.00994878 0)
(0 0.0100491 0)
(0 0.0104495 0)
(0 0.0101388 0)
(0 0.0105302 0)
(0 0.0102173 0)
(0 0.00981129 0)
(0 0.00988993 0)
(0 0.0102844 0)
(0 0.00995623 0)
(0 0.01034 0)
(0 0.0100106 0)
(0 0.0103776 0)
(0 0.0100443 0)
(0 0.0103797 0)
(0 0.0100514 0)
(0 0.00969318 0)
(0 0.00970837 0)
(0 0.0100596 0)
(0 0.00970876 0)
(0 0.0100524 0)
(0 0.00969192 0)
(0 0.0100316 0)
(0 0.00966162 0)
(0 0.0100006 0)
(0 0.0096105 0)
(0 0.00926669 0)
(0 0.00920269 0)
(0 0.0088532 0)
(0 0.00877661 0)
(0 0.00841987 0)
(0 0.00833344 0)
(0 0.00796578 0)
(0 0.00787407 0)
(0 0.00946617 0)
(0 0.00994334 0)
(0 0.00749588 0)
(0 0.0073967 0)
(0 0.00756996 0)
(0 0.00701794 0)
(0 0.00690665 0)
(0 0.0072694 0)
(0 0.00652965 0)
(0 0.00676579 0)
(0 0.00711748 0)
(0 0.0106825 0)
(0 0.01039 0)
(0 0.0065913 0)
(0 0.00692095 0)
(0 0.014739 0)
(0 0.0147622 0)
(0 0.0144256 0)
(0 0.0143996 0)
(0 0.0155884 0)
(0 0.0155906 0)
(0 0.015589 0)
(0 0.015591 0)
(0 0.0155894 0)
(0 0.0155914 0)
(0 0.0155897 0)
(0 0.0155917 0)
(0 0.0155901 0)
(0 0.015592 0)
(0 0.0155905 0)
(0 0.0155923 0)
(0 0.0155908 0)
(0 0.0155926 0)
(0 0.0155911 0)
(0 0.0155929 0)
(0 0.0155914 0)
(0 0.0155931 0)
(0 0.0155917 0)
(0 0.0155934 0)
(0 0.015592 0)
(0 0.0155936 0)
(0 0.0155923 0)
(0 0.0155938 0)
(0 0.0155925 0)
(0 0.015594 0)
(0 0.0155927 0)
(0 0.0155942 0)
(0 0.015593 0)
(0 0.0155944 0)
(0 0.0155932 0)
(0 0.0155945 0)
(0 0.0155934 0)
(0 0.0155947 0)
(0 0.0155935 0)
(0 0.0155949 0)
(0 0.0155937 0)
(0 0.015595 0)
(0 0.0155938 0)
(0 0.0155951 0)
(0 0.015594 0)
(0 0.0155953 0)
(0 0.0155941 0)
(0 0.0155954 0)
(0 0.0155943 0)
(0 0.0155955 0)
(0 0.0155945 0)
(0 0.0155956 0)
(0 0.0155947 0)
(0 0.0155958 0)
(0 0.0155948 0)
(0 0.0155959 0)
(0 0.0155949 0)
(0 0.015596 0)
(0 0.015595 0)
(0 0.0155961 0)
(0 0.0155951 0)
(0 0.0155962 0)
(0 0.0155952 0)
(0 0.0155963 0)
(0 0.0155953 0)
(0 0.0155963 0)
(0 0.0155954 0)
(0 0.0155964 0)
(0 0.0155955 0)
(0 0.0155965 0)
(0 0.0155956 0)
(0 0.0155966 0)
(0 0.0155956 0)
(0 0.0155967 0)
(0 0.0155957 0)
(0 0.0155967 0)
(0 0.0155957 0)
(0 0.0155968 0)
(0 0.0155958 0)
(0 0.0155969 0)
(0 0.0155959 0)
(0 0.0155969 0)
(0 0.0155961 0)
(0 0.015597 0)
(0 0.0155961 0)
(0 0.0155971 0)
(0 0.0155962 0)
(0 0.0155971 0)
(0 0.0155962 0)
(0 0.0155972 0)
(0 0.0155963 0)
(0 0.0155972 0)
(0 0.0155964 0)
(0 0.0155973 0)
(0 0.0155964 0)
(0 0.0155973 0)
(0 0.0155965 0)
(0 0.0155934 0)
(0 0.0155974 0)
(0 0.0155965 0)
(0 0.0155974 0)
(0 0.0155965 0)
(0 0.0155974 0)
(0 0.0155965 0)
(0 0.0155946 0)
(0 0.0155975 0)
(0 0.0155966 0)
(0 0.0155975 0)
(0 0.0155966 0)
(0 0.0155975 0)
(0 0.0155966 0)
(0 0.0155956 0)
(0 0.0155975 0)
(0 0.0155967 0)
(0 0.0155975 0)
(0 0.0155967 0)
(0 0.0155975 0)
(0 0.0155967 0)
(0 0.015596 0)
(0 0.0155975 0)
(0 0.0155966 0)
(0 0.0155976 0)
(0 0.0155966 0)
(0 0.0155964 0)
(0 0.0155976 0)
(0 0.0155966 0)
(0 0.0155976 0)
(0 0.0155966 0)
(0 0.0155976 0)
(0 0.0155966 0)
(0 0.0155969 0)
(0 0.0155976 0)
(0 0.0155966 0)
(0 0.0155976 0)
(0 0.0155966 0)
(0 0.0155975 0)
(0 0.0155966 0)
(0 0.0155911 0)
(0 0.0155937 0)
(0 0.0155882 0)
(0 0.0155954 0)
(0 0.015595 0)
(0 0.0155942 0)
(0 0.0155974 0)
(0 0.0155925 0)
(0 0.0155975 0)
(0 0.0155965 0)
(0 0.0155955 0)
(0 0.0155975 0)
(0 0.0155964 0)
(0 0.0155974 0)
(0 0.0155963 0)
(0 0.0155954 0)
(0 0.0155954 0)
(0 0.0155976 0)
(0 0.0155974 0)
(0 0.0155962 0)
(0 0.0155898 0)
(0 0.0155866 0)
(0 0.0155977 0)
(0 0.0155973 0)
(0 0.0155961 0)
(0 0.0155971 0)
(0 0.0155959 0)
(0 0.015598 0)
(0 0.015597 0)
(0 0.0155957 0)
(0 0.0155981 0)
(0 0.0155945 0)
(0 0.0155969 0)
(0 0.0155955 0)
(0 0.0155983 0)
(0 0.0155968 0)
(0 0.0155952 0)
(0 0.0155983 0)
(0 0.0155965 0)
(0 0.0155983 0)
(0 0.0155984 0)
(0 0.00637865 0)
(0 0.0060659 0)
(0 0.0136109 0)
(0 0.0155918 0)
(0 0.00667333 0)
(0 0.00723029 0)
(0 0.0155933 0)
(0 0.0155983 0)
(0 0.015594 0)
(0 0.0155944 0)
(0 0.0155952 0)
(0 0.0155955 0)
(0 0.0155954 0)
(0 0.0155956 0)
(0 0.0155809 0)
(0 0.0155762 0)
(0 0.0152782 0)
(0 0.0152505 0)
(0 0.0152865 0)
(0 0.0152594 0)
(0 0.0152943 0)
(0 0.0152684 0)
(0 0.0153019 0)
(0 0.015275 0)
(0 0.015308 0)
(0 0.0152788 0)
(0 0.015313 0)
(0 0.0152846 0)
(0 0.0153183 0)
(0 0.015292 0)
(0 0.0153235 0)
(0 0.0152989 0)
(0 0.0153282 0)
(0 0.0153029 0)
(0 0.0153322 0)
(0 0.0153052 0)
(0 0.0153347 0)
(0 0.0153085 0)
(0 0.0153373 0)
(0 0.0153117 0)
(0 0.0153413 0)
(0 0.0153146 0)
(0 0.0153446 0)
(0 0.0153173 0)
(0 0.015285 0)
(0 0.0152877 0)
(0 0.0153198 0)
(0 0.015291 0)
(0 0.0153221 0)
(0 0.0152931 0)
(0 0.0153238 0)
(0 0.015293 0)
(0 0.0153251 0)
(0 0.0152938 0)
(0 0.015326 0)
(0 0.0152959 0)
(0 0.0153264 0)
(0 0.015295 0)
(0 0.0153262 0)
(0 0.0152942 0)
(0 0.0153258 0)
(0 0.0152955 0)
(0 0.0153251 0)
(0 0.0152935 0)
(0 0.0153235 0)
(0 0.0152898 0)
(0 0.0153213 0)
(0 0.0152884 0)
(0 0.0153188 0)
(0 0.0152859 0)
(0 0.0153161 0)
(0 0.0152832 0)
(0 0.0153126 0)
(0 0.0152787 0)
(0 0.0153083 0)
(0 0.0152717 0)
(0 0.0153031 0)
(0 0.0152656 0)
(0 0.0152317 0)
(0 0.0152245 0)
(0 0.015259 0)
(0 0.0152169 0)
(0 0.0152516 0)
(0 0.0152079 0)
(0 0.0152431 0)
(0 0.0151979 0)
(0 0.0152334 0)
(0 0.0151867 0)
(0 0.0152225 0)
(0 0.0151742 0)
(0 0.0152102 0)
(0 0.0151601 0)
(0 0.0152513 0)
(0 0.0151966 0)
(0 0.0151443 0)
(0 0.0152686 0)
(0 0.0151495 0)
(0 0.0152764 0)
(0 0.0152674 0)
(0 0.0152448 0)
(0 0.0151047 0)
(0 0.0150867 0)
(0 0.0151269 0)
(0 0.015067 0)
(0 0.0151078 0)
(0 0.0150445 0)
(0 0.0150851 0)
(0 0.0150174 0)
(0 0.0150542 0)
(0 0.0149861 0)
(0 0.0150229 0)
(0 0.0152475 0)
(0 0.0152626 0)
(0 0.0152524 0)
(0 0.0151822 0)
(0 0.0155937 0)
(0 0.0155933 0)
(0 0.0155914 0)
(0 0.0155909 0)
(0 0.0155983 0)
(0 0.0149524 0)
(0 0.0149922 0)
(0 0.0155886 0)
(0 0.015588 0)
(0 0.0149151 0)
(0 0.0149543 0)
(0 0.0156 0)
(0 0.0155998 0)
(0 0.0156001 0)
(0 0.0155998 0)
(0 0.0156001 0)
(0 0.0155999 0)
(0 0.0156002 0)
(0 0.0155999 0)
(0 0.0156002 0)
(0 0.0156 0)
(0 0.0156002 0)
(0 0.0156 0)
(0 0.0156003 0)
(0 0.0156001 0)
(0 0.0156003 0)
(0 0.0156001 0)
(0 0.0156003 0)
(0 0.0156001 0)
(0 0.0156004 0)
(0 0.0156002 0)
(0 0.0148728 0)
(0 0.0149113 0)
(0 0.014826 0)
(0 0.0148639 0)
(0 0.00583794 0)
(0 0.00553293 0)
(0 0.00695907 0)
(0 0.00751136 0)
(0 0.0149796 0)
(0 0.00932812 0)
(0 0.0156004 0)
(0 0.0156002 0)
(0 0.0155982 0)
(0 0.0156004 0)
(0 0.0156003 0)
(0 0.0156004 0)
(0 0.0156003 0)
(0 0.0114527 0)
(0 0.0155894 0)
(0 0.0156005 0)
(0 0.0156003 0)
(0 0.0150444 0)
(0 0.0155754 0)
(0 0.0155699 0)
(0 0.0112917 0)
(0 0.0155998 0)
(0 0.0155888 0)
(0 0.0156005 0)
(0 0.0156003 0)
(0 0.0156001 0)
(0 0.0156002 0)
(0 0.0156004 0)
(0 0.0156002 0)
(0 0.0156004 0)
(0 0.0156002 0)
(0 0.0156004 0)
(0 0.0156003 0)
(0 0.0156005 0)
(0 0.0156003 0)
(0 0.0156005 0)
(0 0.0156003 0)
(0 0.0156005 0)
(0 0.0156004 0)
(0 0.0149466 0)
(0 0.0148983 0)
(0 0.0148126 0)
(0 0.0148464 0)
(0 0.0152209 0)
(0 0.0156005 0)
(0 0.0156004 0)
(0 0.0156005 0)
(0 0.0156004 0)
(0 0.0149296 0)
(0 0.0148774 0)
(0 0.0147899 0)
(0 0.0148201 0)
(0 0.0147275 0)
(0 0.0147567 0)
(0 0.0146586 0)
(0 0.0146862 0)
(0 0.0147843 0)
(0 0.0147116 0)
(0 0.0146089 0)
(0 0.0146313 0)
(0 0.0147324 0)
(0 0.0146503 0)
(0 0.0147509 0)
(0 0.0146661 0)
(0 0.014562 0)
(0 0.0145749 0)
(0 0.0144654 0)
(0 0.0144746 0)
(0 0.0145823 0)
(0 0.0144776 0)
(0 0.0145853 0)
(0 0.0144771 0)
(0 0.0145835 0)
(0 0.0144679 0)
(0 0.0145761 0)
(0 0.0144564 0)
(0 0.0145657 0)
(0 0.0144472 0)
(0 0.0145518 0)
(0 0.0144288 0)
(0 0.0145314 0)
(0 0.0144041 0)
(0 0.0143597 0)
(0 0.0145046 0)
(0 0.0143757 0)
(0 0.0144719 0)
(0 0.0143364 0)
(0 0.0144321 0)
(0 0.0142913 0)
(0 0.015598 0)
(0 0.0155994 0)
(0 0.0156006 0)
(0 0.0156004 0)
(0 0.0155852 0)
(0 0.0155846 0)
(0 0.00724126 0)
(0 0.00779 0)
(0 0.00663829 0)
(0 0.00529153 0)
(0 0.00499618 0)
(0 0.0152849 0)
(0 0.0155247 0)
(0 0.0151495 0)
(0 0.0156006 0)
(0 0.0156005 0)
(0 0.0156006 0)
(0 0.0156005 0)
(0 0.0156006 0)
(0 0.0156005 0)
(0 0.0156003 0)
(0 0.0156004 0)
(0 0.0156005 0)
(0 0.0156004 0)
(0 0.0156005 0)
(0 0.0156004 0)
(0 0.0156006 0)
(0 0.0156004 0)
(0 0.0156006 0)
(0 0.0156005 0)
(0 0.0153543 0)
(0 0.0153514 0)
(0 0.0153552 0)
(0 0.0155999 0)
(0 0.0156006 0)
(0 0.0156005 0)
(0 0.0156006 0)
(0 0.0156005 0)
(0 0.0156002 0)
(0 0.0156006 0)
(0 0.0156005 0)
(0 0.0156003 0)
(0 0.0115799 0)
(0 0.0143484 0)
(0 0.0155861 0)
(0 0.0153474 0)
(0 0.0148736 0)
(0 0.0149581 0)
(0 0.0152441 0)
(0 0.0153369 0)
(0 0.0156 0)
(0 0.0142367 0)
(0 0.0156003 0)
(0 0.0153117 0)
(0 0.0155821 0)
(0 0.0155832 0)
(0 0.0155997 0)
(0 0.0155906 0)
(0 0.0155688 0)
(0 0.0155625 0)
(0 0.0156006 0)
(0 0.0156005 0)
(0 0.00753276 0)
(0 0.00808584 0)
(0 0.0146277 0)
(0 0.0153441 0)
(0 0.0156002 0)
(0 0.0153689 0)
(0 0.0146827 0)
(0 0.0156007 0)
(0 0.0156006 0)
(0 0.0156007 0)
(0 0.0156006 0)
(0 0.0156004 0)
(0 0.0156004 0)
(0 0.0156006 0)
(0 0.0156005 0)
(0 0.0156006 0)
(0 0.0156005 0)
(0 0.0156006 0)
(0 0.0156005 0)
(0 0.0156007 0)
(0 0.0156005 0)
(0 0.0156003 0)
(0 0.0153616 0)
(0 0.0156004 0)
(0 0.0047399 0)
(0 0.0044577 0)
(0 0.00468789 0)
(0 0.0041627 0)
(0 0.00436412 0)
(0 0.00384933 0)
(0 0.00402007 0)
(0 0.00351901 0)
(0 0.00365395 0)
(0 0.0156007 0)
(0 0.0156006 0)
(0 0.0156007 0)
(0 0.0156006 0)
(0 0.0150655 0)
(0 0.0156007 0)
(0 0.0156006 0)
(0 0.0156005 0)
(0 0.0156005 0)
(0 0.0156006 0)
(0 0.0156005 0)
(0 0.0156006 0)
(0 0.0156005 0)
(0 0.0156007 0)
(0 0.0156006 0)
(0 0.0156 0)
(0 0.0156005 0)
(0 0.00578899 0)
(0 0.00830473 0)
(0 0.00856954 0)
(0 0.0155786 0)
(0 0.0155797 0)
(0 0.0143487 0)
(0 0.0156001 0)
(0 0.00317188 0)
(0 0.0156007 0)
(0 0.0156006 0)
(0 0.0156007 0)
(0 0.0156006 0)
(0 0.0156007 0)
(0 0.0156006 0)
(0 0.0156005 0)
(0 0.0124629 0)
(0 0.0141837 0)
(0 0.0130041 0)
(0 0.0146449 0)
(0 0.0156006 0)
(0 0.0143182 0)
(0 0.00879309 0)
(0 0.00904803 0)
(0 0.00631433 0)
(0 0.00564317 0)
(0 0.0156007 0)
(0 0.0156006 0)
(0 0.0156004 0)
(0 0.0156003 0)
(0 0.0032702 0)
(0 0.00374639 0)
(0 0.0156007 0)
(0 0.0156006 0)
(0 0.0156007 0)
(0 0.00925918 0)
(0 0.00951031 0)
(0 0.00970251 0)
(0 0.009948 0)
(0 0.0101232 0)
(0 0.0103641 0)
(0 0.0105205 0)
(0 0.0107547 0)
(0 0.010895 0)
(0 0.0111184 0)
(0 0.0112498 0)
(0 0.0109791 0)
(0 0.00975141 0)
(0 0.0114614 0)
(0 0.0115829 0)
(0 0.00333105 0)
(0 0.0155888 0)
(0 0.015592 0)
(0 0.0132561 0)
(0 0.0134597 0)
(0 0.013346 0)
(0 0.0135455 0)
(0 0.0134301 0)
(0 0.0132223 0)
(0 0.0133092 0)
(0 0.0135081 0)
(0 0.013393 0)
(0 0.01318 0)
(0 0.0132669 0)
(0 0.0134744 0)
(0 0.0133501 0)
(0 0.0135508 0)
(0 0.0134285 0)
(0 0.0132174 0)
(0 0.0132974 0)
(0 0.0135037 0)
(0 0.0133746 0)
(0 0.0135757 0)
(0 0.0134499 0)
(0 0.0132407 0)
(0 0.0133179 0)
(0 0.0135164 0)
(0 0.0133816 0)
(0 0.0131469 0)
(0 0.0132474 0)
(0 0.0134428 0)
(0 0.013316 0)
(0 0.0131141 0)
(0 0.0131824 0)
(0 0.0133989 0)
(0 0.0132461 0)
(0 0.013035 0)
(0 0.0130974 0)
(0 0.0133231 0)
(0 0.0131563 0)
(0 0.0129037 0)
(0 0.0130004 0)
(0 0.0132142 0)
(0 0.013062 0)
(0 0.0128335 0)
(0 0.0128943 0)
(0 0.0131198 0)
(0 0.0129564 0)
(0 0.0127099 0)
(0 0.0127782 0)
(0 0.0130143 0)
(0 0.0128374 0)
(0 0.0125903 0)
(0 0.0126485 0)
(0 0.0128892 0)
(0 0.0126993 0)
(0 0.0145542 0)
(0 0.0041766 0)
(0 0.00444272 0)
(0 0.0142231 0)
(0 0.0141049 0)
(0 0.00751606 0)
(0 0.00816979 0)
(0 0.00750393 0)
(0 0.00815253 0)
(0 0.00748023 0)
(0 0.00812351 0)
(0 0.00745753 0)
(0 0.0081652 0)
(0 0.00743023 0)
(0 0.00800933 0)
(0 0.00692353 0)
(0 0.00762077 0)
(0 0.00717207 0)
(0 0.0078539 0)
(0 0.00741721 0)
(0 0.00670644 0)
(0 0.00696043 0)
(0 0.0076532 0)
(0 0.00720313 0)
(0 0.0155611 0)
(0 0.0155538 0)
(0 0.0155549 0)
(0 0.0155674 0)
(0 0.00737403 0)
(0 0.0155746 0)
(0 0.0155758 0)
(0 0.0155733 0)
(0 0.0156007 0)
(0 0.0156007 0)
(0 0.0156005 0)
(0 0.0156006 0)
(0 0.0156007 0)
(0 0.0156006 0)
(0 0.0156007 0)
(0 0.0156006 0)
(0 0.0156007 0)
(0 0.0156006 0)
(0 0.0156007 0)
(0 0.0156006 0)
(0 0.0156007 0)
(0 0.0156007 0)
(0 0.0156005 0)
(0 0.0156005 0)
(0 0.0156007 0)
(0 0.0156006 0)
(0 0.0156007 0)
(0 0.0156006 0)
(0 0.0156007 0)
(0 0.0156006 0)
(0 0.0156007 0)
(0 0.0156006 0)
(0 0.0156004 0)
(0 0.00787749 0)
(0 0.00743283 0)
(0 0.00672815 0)
(0 0.00696691 0)
(0 0.00765807 0)
(0 0.0072021 0)
(0 0.0117819 0)
(0 0.0118909 0)
(0 0.0117039 0)
(0 0.0119913 0)
(0 0.0118019 0)
(0 0.0120797 0)
(0 0.0118718 0)
(0 0.0121516 0)
(0 0.011937 0)
(0 0.0122068 0)
(0 0.0119874 0)
(0 0.0122448 0)
(0 0.0120248 0)
(0 0.0122666 0)
(0 0.0120516 0)
(0 0.0123022 0)
(0 0.0129331 0)
(0 0.0127438 0)
(0 0.0124979 0)
(0 0.00647739 0)
(0 0.00672495 0)
(0 0.00742954 0)
(0 0.0069638 0)
(0 0.0079539 0)
(0 0.00853056 0)
(0 0.00333029 0)
(0 0.00379937 0)
(0 0.00834371 0)
(0 0.0156007 0)
(0 0.0155451 0)
(0 0.0155458 0)
(0 0.0156007 0)
(0 0.00764698 0)
(0 0.00719256 0)
(0 0.00648363 0)
(0 0.0067279 0)
(0 0.00741103 0)
(0 0.00695654 0)
(0 0.0156005 0)
(0 0.0156005 0)
(0 0.0156006 0)
(0 0.0156005 0)
(0 0.0156007 0)
(0 0.0156006 0)
(0 0.0156007 0)
(0 0.0156006 0)
(0 0.0156007 0)
(0 0.0156006 0)
(0 0.0156007 0)
(0 0.0156006 0)
(0 0.00761378 0)
(0 0.00716272 0)
(0 0.00648295 0)
(0 0.00669539 0)
(0 0.00735508 0)
(0 0.00688876 0)
(0 0.00620398 0)
(0 0.00641672 0)
(0 0.00707078 0)
(0 0.00662238 0)
(0 0.0155594 0)
(0 0.0155656 0)
(0 0.00616009 0)
(0 0.00549063 0)
(0 0.00281296 0)
(0 0.0156007 0)
(0 0.0155913 0)
(0 0.015594 0)
(0 0.0155946 0)
(0 0.0155962 0)
(0 0.0155968 0)
(0 0.0155956 0)
(0 0.0155973 0)
(0 0.0155968 0)
(0 0.0155981 0)
(0 0.00592127 0)
(0 0.0061416 0)
(0 0.00682214 0)
(0 0.0063486 0)
(0 0.0155807 0)
(0 0.0155769 0)
(0 0.0155815 0)
(0 0.0155779 0)
(0 0.0156007 0)
(0 0.0156008 0)
(0 0.0156007 0)
(0 0.0156005 0)
(0 0.0156006 0)
(0 0.0156007 0)
(0 0.0156006 0)
(0 0.0156007 0)
(0 0.0156006 0)
(0 0.0156007 0)
(0 0.0156006 0)
(0 0.00700486 0)
(0 0.00653873 0)
(0 0.00585675 0)
(0 0.0060556 0)
(0 0.00671253 0)
(0 0.00623469 0)
(0 0.00687067 0)
(0 0.00639585 0)
(0 0.00574154 0)
(0 0.00590791 0)
(0 0.00654063 0)
(0 0.00605664 0)
(0 0.00666653 0)
(0 0.00618574 0)
(0 0.0055648 0)
(0 0.00569712 0)
(0 0.00629358 0)
(0 0.00580684 0)
(0 0.00520712 0)
(0 0.00531459 0)
(0 0.0155571 0)
(0 0.00637847 0)
(0 0.0120718 0)
(0 0.0155632 0)
(0 0.0155822 0)
(0 0.0155787 0)
(0 0.0155828 0)
(0 0.0155796 0)
(0 0.0155833 0)
(0 0.0155802 0)
(0 0.0155839 0)
(0 0.0155806 0)
(0 0.0155843 0)
(0 0.015581 0)
(0 0.0155845 0)
(0 0.0155814 0)
(0 0.0155848 0)
(0 0.0155818 0)
(0 0.0155779 0)
(0 0.0155783 0)
(0 0.0155821 0)
(0 0.0155788 0)
(0 0.0155824 0)
(0 0.0155792 0)
(0 0.0155827 0)
(0 0.0155796 0)
(0 0.015583 0)
(0 0.0155798 0)
(0 0.0155832 0)
(0 0.0155801 0)
(0 0.0155834 0)
(0 0.0155803 0)
(0 0.0155836 0)
(0 0.0155806 0)
(0 0.0155838 0)
(0 0.0155809 0)
(0 0.015584 0)
(0 0.015581 0)
(0 0.0155841 0)
(0 0.0155811 0)
(0 0.0155842 0)
(0 0.0155813 0)
(0 0.0155843 0)
(0 0.0155812 0)
(0 0.0155842 0)
(0 0.0155812 0)
(0 0.0155842 0)
(0 0.0155812 0)
(0 0.0155842 0)
(0 0.0155812 0)
(0 0.0155778 0)
(0 0.0155779 0)
(0 0.0155813 0)
(0 0.0155779 0)
(0 0.0155813 0)
(0 0.0155781 0)
(0 0.0155813 0)
(0 0.0155781 0)
(0 0.0155813 0)
(0 0.015578 0)
(0 0.0155813 0)
(0 0.015578 0)
(0 0.0155813 0)
(0 0.015578 0)
(0 0.0155812 0)
(0 0.0155779 0)
(0 0.0155812 0)
(0 0.0155779 0)
(0 0.0155811 0)
(0 0.0155778 0)
(0 0.015581 0)
(0 0.0155777 0)
(0 0.0155809 0)
(0 0.0155776 0)
(0 0.0155808 0)
(0 0.0155774 0)
(0 0.0155737 0)
(0 0.0155806 0)
(0 0.0155771 0)
(0 0.0155804 0)
(0 0.0155769 0)
(0 0.0155802 0)
(0 0.0155768 0)
(0 0.015573 0)
(0 0.0155728 0)
(0 0.0155766 0)
(0 0.0155726 0)
(0 0.0155763 0)
(0 0.0155724 0)
(0 0.015576 0)
(0 0.0155722 0)
(0 0.0155756 0)
(0 0.0155718 0)
(0 0.0155752 0)
(0 0.0155715 0)
(0 0.015575 0)
(0 0.0155712 0)
(0 0.0155748 0)
(0 0.0155707 0)
(0 0.0155746 0)
(0 0.0155702 0)
(0 0.0155742 0)
(0 0.0155697 0)
(0 0.0155669 0)
(0 0.0155744 0)
(0 0.0155772 0)
(0 0.0155737 0)