/*--------------------------------*- C++ -*----------------------------------*\
| =========                 |                                                 |
| \\      /  F ield         | OpenFOAM: The Open Source CFD Toolbox           |
|  \\    /   O peration     | Version:  v2012                                 |
|   \\  /    A nd           | Website:  www.openfoam.com                      |
|    \\/     M anipulation  |                                                 |
\*---------------------------------------------------------------------------*/
FoamFile
{
    version     2.0;
    format      ascii;
    class       volScalarField;
    location    "1000";
    object      p;
}
// * * * * * * * * * * * * * * * * * * * * * * * * * * * * * * * * * * * * * //

dimensions      [0 2 -2 0 0 0 0];


internalField   nonuniform List<scalar> 
13917
(
-0.0944437
-0.00742835
-0.114546
-0.0446127
0.0258086
0.455825
-0.104309
-0.125991
-0.218376
-0.149255
-0.114249
-0.0838013
-0.0451363
-0.136713
0.0422574
0.0188656
-0.000719981
-0.140076
-0.08272
0.00634609
0.0175934
-0.0995127
0.0117167
-0.13138
0.023836
-0.0903294
0.215739
0.22722
0.0862298
-0.209478
-0.110092
-0.0514087
0.169191
0.108749
0.0291354
-0.107435
0.0117687
-0.139637
-0.0515052
-0.0663894
-0.00475346
0.0159766
-0.0162736
0.252539
-0.0286058
0.125152
-0.137236
-0.141897
0.506608
0.00064986
-0.0766743
0.0565863
0.509891
0.112884
0.000722789
-0.0769883
-0.115331
0.0219353
-0.0616839
-0.027259
-0.398744
-0.00906145
-0.135567
0.00649179
0.446466
-0.393304
0.0275498
0.0349564
-0.160742
-0.0589585
0.0253074
-0.217081
-0.245041
0.0230784
0.492211
-0.0749468
-0.205454
-0.0435661
-0.0810088
0.017276
0.0137144
0.027001
0.431362
-0.140761
-0.414121
-0.0425401
0.0113435
-0.357365
-0.074812
-0.0166198
-0.20869
-0.189753
-0.0128553
0.0444568
-0.393033
0.449162
-0.131529
-0.142222
-0.0823826
0.327993
-0.00646736
0.166504
0.261454
-0.0513944
-0.00941286
-0.228993
0.0559159
-0.144886
-0.00268356
-0.11186
-0.347859
-0.0673348
-0.0861051
-0.225586
0.0733173
0.512899
0.0139147
0.497047
-0.0968656
0.111254
0.0160752
-0.161422
-0.107746
0.221043
-0.00107519
0.043042
-0.0235954
-0.000818339
-0.0141727
0.456524
-0.106029
0.0710441
-0.0288368
0.0179583
-0.292906
-0.127918
-0.0916667
0.342513
0.0277858
0.110572
-0.111054
-0.017047
0.058806
0.287496
0.0355004
-0.211503
0.0266483
0.0547239
-0.0164146
-0.0463878
-0.112412
0.508493
-0.108145
-0.025485
-0.0681468
-0.420703
-0.0538784
-0.145202
-0.205852
-0.302068
0.0789878
0.216153
0.014516
-0.129378
-0.0867743
-0.0832071
-0.0504134
-0.126211
-0.0225446
0.171991
-0.0463207
-0.37153
-0.083301
0.0020707
-0.184397
-0.0183345
-0.103562
0.504189
-0.205106
-3.03949e-05
-0.19603
-0.116018
-0.0176623
0.0116207
0.0750528
-0.0931056
-0.29464
-0.417341
-0.112163
-0.0915332
-0.127987
-0.41406
-0.290436
0.0159725
0.360861
0.207621
-0.00876853
-0.0128332
0.0378843
-0.361821
-0.0664874
0.000958933
-0.118469
-0.110508
-0.243483
-0.247794
0.0288875
0.0227969
-0.139119
-0.100128
0.0566412
-0.106517
-0.24459
-0.0925228
-0.00899926
0.310745
-0.130089
-0.332418
0.0110862
-0.392121
0.000180363
-0.198686
-0.00428133
-0.152345
-0.235851
0.0179586
-0.306437
-0.071448
-0.00836324
-0.107621
-0.0819868
-0.110519
-0.116477
-0.24661
-0.00828005
-0.0549015
-0.209824
-0.420399
0.0150233
0.00124694
-0.0625023
-0.137902
0.0042862
-0.100149
-0.182522
0.208786
-0.0901922
0.0141404
0.0169877
-0.229572
-0.0321717
-0.218398
0.34288
-0.0235131
0.0226944
-0.101703
-0.065361
-0.107095
0.073581
0.0385346
0.00459784
-0.106507
-0.306329
-0.0898512
-0.00780393
-0.278115
-0.144054
-0.147149
-0.0768589
-0.07545
0.0141745
-0.00225383
-0.136493
-0.170102
-0.170181
-0.0599168
-0.249998
-0.0675299
-0.0141252
-0.346615
0.00509757
-0.181539
-0.0645899
0.00423005
0.0117294
-0.0201785
0.216322
-0.100936
0.00976407
-0.0343877
-0.28371
-0.115941
-0.300682
0.0114271
-0.157088
0.0244273
-0.0344509
0.0135237
-0.0069012
0.00269332
-0.204609
-0.0852414
-0.0223052
-0.118626
-0.0254292
0.514639
-0.0165499
-0.182919
-0.0220253
0.0219119
-0.353139
-0.114199
0.0135283
-0.00316265
-0.353791
-0.0042189
-0.242479
-0.0212184
-0.154132
-0.0373096
-0.272108
-0.0944018
0.472387
0.075288
-0.294974
0.345364
0.00941827
-0.140197
-0.0785696
0.0211699
-0.117379
0.357223
-0.145415
0.097656
-0.0798788
-0.0614966
-0.387306
0.34141
0.0305551
0.0184163
-0.113382
0.0186897
-0.0530131
-0.349109
0.0368679
0.0131423
-0.137674
0.0320766
-0.0031348
-0.127394
0.122156
-0.00460526
-0.0964391
-0.115354
0.00520195
-0.00114132
0.0243311
-0.0168296
-0.277543
-0.197391
0.411166
-0.355259
0.0192029
-0.226002
-0.415939
-0.106843
-0.104441
-0.172012
-0.232651
-0.00879243
-0.0898773
-0.0028467
-0.391967
-0.0262749
0.462063
-0.185986
-0.0544577
0.0191259
-0.136047
-0.203182
-0.15991
-0.0893837
-0.38532
-0.333306
0.0110229
-0.141326
0.00142306
-0.421303
-0.0977153
0.0170738
-0.291352
0.0236354
-0.240874
-0.0374061
0.0186663
-0.0204177
-0.0687954
-0.01854
-0.0668038
-0.405879
-0.105906
0.380198
0.0192275
0.327887
0.362282
0.00965082
0.0626145
0.0353693
0.0249347
-0.208119
0.00468689
0.0255002
-0.00319689
-0.27283
0.0172546
-0.0811022
-0.0722619
-0.406727
-0.285954
-0.0749404
-0.313476
-0.10459
0.0186882
-0.225823
-0.0513111
-0.0605613
0.0159933
-0.198984
-0.100834
-0.07512
0.0308102
-0.187453
0.0945392
-0.0526094
-0.157467
-0.0053153
-0.0885524
-0.00385479
0.0027777
-0.243781
-0.103014
-0.101901
-0.207371
-0.407096
-0.11784
-0.313156
-0.18104
-0.013408
-0.138364
-0.00729134
0.0255443
-0.249846
-0.138836
-0.0156392
-0.161618
-0.10577
-0.172029
0.00951588
-0.148649
-0.403149
-0.305583
-0.0855025
0.0176722
0.0183681
-0.00910007
-0.0483189
-0.00885526
-0.0880819
0.418268
0.00785958
-0.420796
-0.0761035
-0.127321
-0.314298
0.0178607
-0.104255
-0.112728
-0.148193
-0.160003
-0.211511
-0.086504
-0.0973249
0.444656
-0.0813632
-0.143852
-0.0114681
-0.28045
-0.0802269
-0.0232427
-0.04334
-0.0459436
-0.175992
-0.229394
-0.00368823
-0.013983
-0.0976467
-0.314269
0.00448255
-0.0844666
-0.0471136
-0.268057
-0.00252951
-0.261498
-0.191521
-0.0493719
-0.0254856
-0.0750265
-0.283508
-0.422504
0.00482877
-0.23863
0.511018
-0.356613
-0.0233349
-0.416399
-0.300351
-0.104566
-0.00181334
0.0060793
-0.0722022
-0.242305
-0.0157715
-0.00088316
-0.000723027
-0.00101765
-0.276661
-0.253603
-0.103972
-0.291345
-0.00248536
-0.00607097
-0.183075
-0.267711
-0.100881
-0.0235919
0.0243657
0.030524
-0.352201
-0.412614
0.00963726
0.0299185
-0.0892464
-0.0871887
-0.0933084
0.0196504
-0.0158699
-0.0339702
-0.140935
-0.0592536
-0.298612
-0.227565
-0.166927
-0.244263
-0.181387
0.0126879
-0.232413
0.0302619
0.0122387
-0.056628
-0.27626
-0.0185264
-0.00603384
-0.303266
-0.220276
-0.400749
-0.16894
0.117118
-0.108441
0.0194199
-0.302103
-0.285576
-0.122937
-0.00335572
-0.0886276
-0.296336
-0.174196
-0.278928
-0.145261
-0.21655
0.0231249
-0.0454776
0.0209268
0.0963654
0.280445
0.0493645
-0.127116
0.346366
-0.123664
-0.422859
-0.0189597
-0.125294
-0.188374
0.0062955
0.0527275
0.348348
-0.252228
-0.191645
-0.28471
-0.0140328
-0.0980613
-0.0733884
-0.00604582
-0.0877241
-0.123393
0.161143
-0.204816
-0.0813898
-0.207403
-0.0822864
-0.299055
-0.0481186
-0.182752
0.01545
0.00983662
-0.155459
-0.249444
0.420036
-0.0486755
0.000486952
0.0293844
-0.0689059
0.502275
-0.0826727
-0.0479221
-0.104024
-0.133137
-0.00204997
-0.290846
-0.0811363
-0.0797824
0.00866709
-0.201627
-0.0451479
-0.405205
-0.155328
-0.0269755
-0.0898594
-0.00364482
-0.021413
-0.0247692
-0.0127688
0.126309
-0.280802
0.0914437
-0.126453
-0.00413543
-0.212492
0.413701
-0.113979
-0.0315665
0.116844
-0.000237957
-0.0660644
-0.0641612
-0.302214
0.017765
-0.34048
-0.0674796
-0.111875
-0.188299
-0.253861
-0.0499876
0.00654904
-0.179965
-0.280114
0.00874736
-0.0555155
-0.20231
-0.27778
-0.166563
0.00431215
-0.026791
-0.254313
-0.0551077
-0.159855
-0.100908
-0.0219706
-0.108013
-0.119338
-0.0310526
-0.0426742
-6.16316e-05
-0.111841
0.0184445
0.0309345
-0.375145
0.0224788
-0.247628
-0.0668948
0.173092
-0.000378235
-0.0302379
0.0139621
-0.158167
-0.00345725
-0.107632
-0.0468231
-0.396222
0.191716
-0.27043
-0.00820522
0.019112
-0.17436
-0.127637
-0.131991
-0.246021
-0.142024
0.027515
-0.266927
0.437787
-0.0803066
-0.275213
-0.131057
-0.0776806
-0.0847123
-0.0670126
-0.221553
0.0595576
-0.139851
0.432838
-0.140478
-0.0482859
-0.125379
0.00495863
-0.0259512
-0.0658642
-0.113273
-0.0417039
0.0163837
-0.00283996
-0.129998
-0.0528398
-0.163146
0.0267651
0.0249224
0.0187723
-0.0108326
-0.018366
-0.0386829
0.000575525
-0.262305
-0.0803613
0.374707
-0.00761359
0.0113828
0.188301
-0.164233
0.0684698
-0.349138
-0.15148
-0.386084
-0.0674823
-0.19601
-0.0415273
0.0152536
-0.00139132
-0.023581
-0.396506
0.0110297
-0.244452
-0.0396824
-0.417211
0.0233402
-0.159206
-0.110564
-0.0155654
0.00438021
-0.0817884
0.0343712
0.0328184
-0.338063
0.000969692
0.024059
-0.0779249
0.000235424
-0.0129528
-0.0485176
0.131896
-0.131076
-0.0769001
-0.0310253
-0.00518814
-0.175133
-0.00294496
0.0137898
-0.004438
-0.342114
-0.194318
-0.350918
0.110661
-0.0492765
-0.00785066
-0.0131292
-0.0831236
-0.0819126
-0.134682
0.101143
-0.119297
-0.0160067
0.0527582
-0.35274
0.0241087
-0.0814093
0.00991049
0.00232587
-0.105616
0.223578
-0.0387064
-0.238275
-0.0694526
-0.192496
0.0123094
-0.0195951
-0.089142
-0.24954
0.00494684
-0.23251
-0.0192302
-0.108583
-0.0263562
-0.0267762
-0.246507
-0.0307103
-0.0705828
-0.112547
0.019497
-0.0157503
0.0413589
0.0017821
-0.0422742
0.242717
-0.0300969
-0.0232308
-0.18533
-0.207077
-0.0838223
-0.121416
-0.151297
-0.0675232
-0.0166979
0.12839
-0.240022
-0.118671
0.0214081
-0.0241572
-0.240844
-0.108759
-0.35836
0.0192032
0.0706349
-0.114738
-0.100011
-0.0408956
-0.410013
0.468874
0.0012191
-0.216357
-0.00169808
-0.0296888
-0.00782839
-0.275877
-0.0180863
-0.0299901
-0.0173187
-0.0692328
-0.051009
-0.272824
0.273391
-0.027327
0.165555
0.00893048
-0.357402
0.00308449
-0.0306556
0.0237262
-0.0900479
0.0240005
-0.206012
-0.0655816
-0.115095
0.112814
-0.118273
-0.378446
0.0204159
-0.0985164
-0.407954
-0.376991
-0.0765695
-0.183513
-0.409884
-0.208686
0.00419331
-0.0812655
-0.0992677
-0.100288
-0.02272
-0.0138646
0.0121592
0.0091686
-0.0728955
0.119859
-0.117816
-0.0139227
0.0282861
-0.42073
-0.0595719
0.0412927
0.193105
-0.0863528
-0.0349918
0.13001
0.197578
0.0665044
-0.0514923
-0.0685019
-0.355504
0.496126
-0.0260444
-0.280091
-0.215433
-0.406527
-0.2394
-0.0794983
-0.00375693
-0.0424956
-0.0145036
-0.0157855
-0.0138745
-0.0133597
-0.0359249
-0.0804098
-0.420125
-0.153412
-0.0304413
-0.191603
-0.306972
-0.101059
0.0482521
-0.191122
-0.0211929
0.0318941
0.185613
-0.421116
0.0245431
0.00945878
-0.108586
-0.117853
-0.178688
-0.168729
-0.109107
0.00389149
-0.222965
0.0490073
0.00685768
0.05161
-0.0881818
-0.350437
-0.0244237
-0.0161268
0.0100612
-0.198214
-0.00973213
-0.0901533
0.0334896
-0.00227395
-0.222304
-0.0279101
-0.161802
-0.173307
-0.0991461
-0.0222968
-0.0902372
-0.019022
-0.259465
-0.303524
0.0246054
-0.350818
-0.154612
0.473537
0.0243202
-0.0695503
0.0232334
-0.0751318
-0.0943607
-0.170137
-0.0988122
-0.0807896
-0.0797209
-0.260963
-0.00439562
-0.210715
-0.0268246
0.00213961
-0.113244
0.0248678
0.0231302
-0.025345
-0.0330769
-0.418721
-0.0145921
0.0121074
-0.110104
-0.130056
-0.121467
0.441006
-0.0775485
-0.403805
-0.0714325
-0.106361
-0.0655835
-0.18248
-0.085677
-0.405349
-0.0867286
-0.0651573
-0.0281849
-0.0678967
-0.0810939
0.0539549
-0.192103
-0.103553
-0.0390019
-0.0743526
-0.0341778
-0.0966168
0.00529254
-0.128366
0.301788
-0.00223393
-0.160693
-0.02504
0.0209541
-0.0036655
0.11406
-0.141272
-0.0542365
-0.0355763
-0.024304
0.287467
-0.171139
-0.238772
0.0253212
-0.0124991
-0.129591
0.0110769
-0.198214
-0.173357
-0.0388896
-0.183784
-0.024578
-0.381792
0.052088
-0.0801615
-0.139626
-0.20447
0.00563485
0.00620472
-0.0649452
0.0064954
0.0008484
-0.405327
-0.27725
0.0908081
-0.0770638
0.00591625
-0.0354225
-0.091108
-0.0251449
-0.0152619
-0.173388
-0.0261954
-0.160063
0.0136879
-0.0147166
0.0157518
-0.0786727
-0.0856357
0.0352634
0.0245124
0.00423573
0.034705
0.0021827
0.421323
-0.156698
0.00510854
-0.193785
0.0144114
-0.215609
-0.117214
0.391755
-0.0238471
0.04609
0.0116067
0.0695806
0.0471556
-0.0878841
-0.367646
0.0725244
-0.111282
0.487703
-0.126314
-0.0772831
-0.0429607
0.42919
-0.0995821
0.0123643
-0.340635
-0.13975
-0.0896784
0.0271182
-0.177068
0.220937
-0.0228582
-0.0526162
-0.40738
-0.0308728
-0.00438159
-0.0388448
-0.203475
-0.0857288
-0.15783
-0.00716409
-0.261081
-0.0709382
-0.0749709
-0.203184
-0.284056
-0.0834668
-0.0237643
-0.00195056
-0.113829
0.0110403
0.0695567
-0.011144
-0.0182085
-0.0167748
0.0781666
-0.0961676
0.447993
0.125158
0.265218
-0.0745696
-0.0737436
-0.0193912
-0.190112
-0.0829519
-0.0160859
0.000191209
-0.0922595
-0.397363
0.0226528
-0.165551
-0.160681
-0.0854359
0.0366491
-0.0474929
-0.0276541
-0.194369
-0.0241008
0.000266136
-0.396157
-0.0787101
0.013076
-0.235509
-0.0889052
-0.377431
0.0199701
-0.0694565
-0.0908351
-0.226489
-0.080741
0.242387
-0.0574983
0.014966
-0.0314865
-0.00972069
0.0311207
0.0602708
-0.0520654
0.00714099
-0.116755
0.000523459
-0.080553
-0.0260289
-0.159932
-0.102236
-0.327922
0.0198046
-0.28774
-0.0312553
-0.10006
0.0240377
0.107863
0.0211087
-0.136632
-0.255725
-0.0829327
0.00634779
-0.156188
0.00356451
-0.0627186
-0.25527
-0.0280617
0.0527547
-0.125628
-0.0876085
-0.108419
0.00787235
0.028611
-0.0436482
0.0159742
0.125112
0.00235494
-0.00936606
0.0662446
-0.227939
-0.0431786
-0.134543
-0.194287
-0.142516
-0.085233
-0.0406509
-0.00915275
0.0347001
-0.286237
-0.0471472
-0.0247012
-0.0978156
-0.342186
-0.000206759
-0.404986
-0.163945
-0.163543
-0.0162064
-0.0151553
-0.0791598
0.0512699
0.0201206
0.172532
-0.0220978
0.0803061
-0.0682165
-0.103508
0.434641
-0.100044
-0.0518518
-0.113574
-0.0735984
-0.0625763
-0.084594
0.172988
-0.404638
-0.116262
-0.411514
0.0869734
-0.382014
-0.40473
-0.0236819
0.00560094
0.00253783
-0.0430931
-0.122158
-0.0265459
0.0880857
-0.0770393
-0.0485474
0.072894
-0.211736
0.125739
-0.0603951
-0.212034
-0.040216
-0.0864453
-0.0561382
0.106345
-0.00159156
-0.267696
-0.365543
0.00250332
-0.0448955
-0.0688294
0.123276
-0.420726
0.00154347
-0.0269291
-0.121624
-0.0458768
0.154131
-0.403577
0.0287838
-0.149589
-0.0644954
-0.0155448
-0.00363252
-0.077772
-0.381947
-0.021311
-0.0549705
0.0244682
-0.0382946
0.186422
-0.18559
0.0452617
0.412174
-0.153564
-0.0775779
-0.226621
-0.044947
-0.0775594
0.0866846
0.117358
0.0241569
-0.100927
-0.189283
0.0632345
0.179477
-0.130326
0.441935
0.418535
0.105126
0.0228204
0.0228545
0.0302194
-0.366407
-0.127202
-0.0567834
-0.0460418
-0.0572692
0.0139504
0.0108924
0.0336844
-0.113879
-0.0697796
-0.188676
0.129614
-0.406729
-0.0674402
0.0284677
-0.129017
-0.00690253
0.00283169
-0.265192
-0.00588955
-0.0111857
-0.121576
-0.165493
0.259954
-0.0694739
-0.119077
-0.0203611
-0.14223
-0.0161086
-0.0357405
0.0663624
0.0202105
-0.0318724
-0.166763
-0.290582
-0.0263193
-0.0845091
-0.0110093
-0.0239833
-0.0114439
0.43506
-0.0561627
-0.0552134
-0.415078
-0.0271604
-0.136565
-0.0753706
0.00444113
0.124026
0.00124008
-0.0642579
-0.166826
0.0350775
-0.0824397
-0.135057
0.240578
0.0142705
-0.360877
0.0907641
0.406675
-0.0430426
0.148989
-0.288364
-0.0235285
0.317449
0.0340732
-0.163531
0.208762
0.00428179
-0.419415
0.0221723
-0.162259
-0.154315
0.340588
0.0187119
0.0682926
0.0442134
-0.129219
0.0583692
-0.0817561
0.0818168
-0.101986
-0.0200258
-0.11707
0.0342408
-0.0717724
-0.106782
-0.00172556
-0.0105435
0.485032
-0.0455224
-0.0693964
-0.0362733
-0.0889894
-0.0765556
-0.0738685
0.010462
0.00407506
0.0258565
-0.0137062
-0.194478
0.0413146
0.200434
-0.040806
0.00471537
-0.257124
-0.0557732
-0.068622
-0.0741721
0.032768
-0.403073
-0.124209
-0.0637803
0.498231
-0.196055
-0.29056
-0.098586
-0.364239
-0.0011226
-0.174819
-0.40145
0.441863
0.00822797
0.0507855
-0.116252
-0.08315
-0.0827393
-0.31726
-0.0354842
0.114386
-0.118086
-0.0782146
-0.405256
-0.0999216
-0.140303
-0.00916835
-0.166063
-0.0782095
0.00844872
-0.207951
-0.341866
0.0243879
-0.161532
0.00949082
-0.0291484
-0.154961
-0.190435
-0.00476685
-0.0363784
-0.0292466
-0.0258737
-0.0479848
-0.17294
-0.0474474
0.00488931
0.00683947
-0.0834681
-0.0643915
-0.0590752
-0.283599
0.0300693
-0.214015
-0.415099
-0.155537
0.104435
-0.146539
-0.173009
-0.100935
-0.0830048
-0.140566
-0.376471
4.14282e-07
-0.350161
-0.0769087
-0.00860541
0.0151367
-0.21003
-0.375916
-0.382119
-0.027657
0.00603799
-0.099842
-0.357196
-0.372531
-0.0360687
0.0862785
0.502491
0.0255109
-0.114344
-0.419542
-0.116418
-0.358102
0.0371148
0.00477774
-0.0033754
0.105747
-0.119033
-0.096119
-0.0642153
0.0663595
-0.102042
-0.38091
-0.082216
-0.235538
-0.420372
-0.0945668
0.450523
0.0253172
0.00755889
-0.0905498
-0.0143352
-0.022665
0.0204826
0.517974
-0.111478
-0.41845
-0.223041
0.0188258
-0.247915
-0.110498
-0.0158682
-0.422728
0.21888
0.103927
-0.0359107
-0.404666
-0.342147
0.0232853
-0.323471
-0.147638
-0.410188
-0.358458
-0.167503
0.00325483
-0.0378779
-0.292253
-0.0656973
-0.0999303
-0.117588
-0.368993
-0.175916
0.0634627
0.0704872
-0.00106652
0.0497046
-0.392339
-0.086874
0.0299513
-0.422127
-0.102231
0.00745788
0.0693024
0.00394995
-0.196803
-0.0278388
0.502335
0.0912566
0.00131018
-0.00417109
0.327493
-0.188478
-0.116517
-0.0124907
-0.120391
0.0340363
-0.0467308
-0.0772661
-0.368456
-0.0869218
-0.360928
-0.0114935
-0.00412558
0.00406065
-0.0799952
-0.00273429
0.00210828
-0.165429
-0.12346
-0.139171
-0.0230903
-0.323264
-0.0848764
0.00443998
-0.388352
-0.14506
-0.0856089
0.475744
0.00269733
-0.421358
0.0833696
0.0470564
0.0796683
-0.0141944
-0.0979342
-0.00770603
-0.042571
0.154142
-0.0684398
-0.0871443
0.00980976
0.000430141
-0.0410968
-0.0211595
-0.206941
0.0550898
-0.188359
-0.0553329
-0.186237
-0.0443382
-0.119852
-0.0119964
-0.277923
-0.0337165
-0.0149174
-0.413357
0.322473
0.350001
-0.113417
0.160647
-0.115013
0.0328426
-0.332291
0.0305317
-0.00207975
0.329147
-0.0776031
-0.41935
-0.398328
-0.196369
-0.298142
-0.222083
-0.318684
-0.0156029
-0.0653635
-0.0794142
-0.241154
0.10132
-0.295641
-0.103113
-0.0374048
0.0414913
0.0114981
-0.298606
0.458154
-0.0533075
0.0154119
0.0201444
-0.0629271
-0.11393
-0.295113
-0.144283
0.00407449
0.39423
-0.194502
-0.247254
-0.165642
-0.00975875
-0.0498488
-0.246245
-0.00338517
-0.194028
-0.106306
0.0278189
-0.0396499
-0.170823
0.342774
0.0495288
-0.120149
-0.0560451
-0.208952
-0.0705408
0.0516428
-0.0469562
-0.347452
-0.0042254
0.0621009
0.502193
-0.389046
-0.140431
-0.167205
-0.0655679
0.106174
0.0222006
-0.392559
-0.0738655
-0.0320344
-0.0911135
0.00563094
0.00543761
0.516563
0.0238314
0.00362106
0.0143106
-0.135744
0.0530969
-0.0598812
-0.115801
-0.273784
-0.215764
0.022929
-0.033741
0.218572
-0.271187
-0.193264
0.126073
-0.190662
-0.117669
-0.313102
0.00545755
-0.332253
-0.0843892
0.00512381
-0.053579
-0.0139609
0.436248
-0.214391
-0.0349373
0.495359
-0.274488
-0.0069432
0.0511955
-0.068629
-0.102664
-0.0790069
-0.0149515
-0.3853
-0.0673263
0.443409
0.0147885
-0.235325
-0.076892
0.135714
-0.381439
-0.0737475
-0.0136524
-0.0897347
-0.262641
-0.0979108
-0.0778552
-0.317556
-0.0113152
-0.26521
0.00254384
-0.400846
-0.0123363
0.248889
0.0561465
0.00221653
-0.153341
-0.209553
-0.19768
-0.157263
0.0335893
-0.140826
-0.00551964
-0.361858
-0.0883037
0.0331584
-0.0226804
0.159763
-0.0289733
-0.126754
-0.131744
-0.328161
-0.143218
-0.0352922
-0.0365679
-0.173714
0.0688067
-0.134418
-0.012384
0.0182803
-0.316714
-0.216085
-0.174247
0.339385
0.00693766
-0.23442
-0.00718912
0.093835
-0.392566
-0.410375
0.0231225
0.0163917
-0.0788768
0.0990313
0.0490398
-0.154491
-0.260267
-0.0209021
-0.0157311
0.02307
0.00334517
0.292334
-0.024731
-0.0699094
-0.191776
-0.0750353
-0.0167191
-0.0874907
-0.32389
-0.101356
-0.0191694
-0.418724
0.0260766
-0.249809
0.159854
0.183614
-0.0049417
-0.316141
-0.399828
-0.0825427
0.000274455
-0.157719
-0.0246863
0.102787
0.0454149
-0.07213
0.0643516
-0.357517
-0.0934725
-0.135734
0.0248957
-0.284422
-0.0775536
0.00582119
0.428402
-0.0144904
-0.0648823
-0.106007
0.0435933
-0.385509
0.0076428
0.440087
0.044317
0.00350122
-0.412355
-0.115388
0.0810506
0.166324
-0.0862062
-0.138252
-0.0986687
-0.0670028
0.030896
-0.0675819
-0.113221
0.0825704
-0.0757101
0.0334625
-0.10904
-0.0763659
-0.0454392
-0.156009
-0.013981
-0.106669
0.0898117
-0.352512
-0.361463
-0.373337
-0.335568
-0.241495
0.0858148
-0.034151
-0.130472
0.0919984
0.0344605
-0.358904
-0.189914
0.0628277
-0.055752
-0.0745106
-0.0775707
-0.0934681
-0.246163
0.00430949
-0.065259
-0.0861119
0.041155
0.00778259
-0.100177
-0.0182855
-0.0804378
0.0554093
-0.226121
-0.0916138
-0.118254
-0.203256
-0.204136
-0.198254
-0.00896157
-0.1297
-0.115095
-0.418317
-0.0414629
-0.0832758
-0.0871152
0.490846
0.030407
0.0344735
-0.136545
-0.0803524
-0.412194
-0.334932
0.157302
-0.26444
-0.00188482
-0.0187909
-0.313282
0.281346
0.0273821
-0.191249
-0.0567202
0.0855573
0.0502013
-0.173667
-0.0213272
-0.20479
-0.144989
-0.419567
-0.20232
-0.0654617
-0.141822
-0.406261
0.0276861
0.0327965
-0.168638
-0.0125944
0.214751
-0.418493
-0.0902244
-0.121743
-0.106938
-0.0426049
-0.214998
-0.0157545
-0.117405
0.0163986
-0.406965
-0.0166918
0.0333243
-0.107323
-0.200402
0.00312971
0.0345434
-0.403181
0.042657
-0.155179
-0.0168664
-0.371844
-0.310563
-0.138315
0.312412
0.000380276
-0.0756215
-0.108699
-0.118388
-0.0162193
-0.0423386
0.00332196
-0.104631
0.0242702
-0.101712
0.0468088
-0.0205726
-0.349505
-0.0185356
-0.0586081
-0.0634401
0.0134299
-0.109066
-0.0149052
-0.0379277
-0.17299
-0.0779828
-0.0707187
0.0388912
-0.353746
-0.0787209
-0.191101
-0.00812026
-0.122344
-0.0367268
-0.117308
-0.109553
-0.101831
-0.268205
-0.2472
-0.262485
-0.314827
0.116007
-0.11414
0.0345233
-0.31799
0.0793525
-0.0357333
0.0325628
-0.106561
-0.0141809
-0.22185
-0.129858
-0.10837
-0.289534
0.337883
0.00873326
-0.219204
0.18491
0.0554858
0.0732488
0.0329165
-0.135176
0.033632
-0.090799
-0.0176027
-0.0758685
-0.334905
-0.042408
0.0250623
0.0314065
-0.235111
-0.0120089
0.0310137
-0.0682299
-0.033178
-0.069481
0.00556724
-0.0821944
0.327603
0.1139
-0.287457
-0.399076
-0.107583
-0.279435
-0.0111319
0.0198138
0.0505248
-0.0426703
0.144699
-0.0806635
-0.123783
-0.0147892
0.0320587
-0.0737923
-0.17688
-0.0147798
-0.00951382
0.109998
-0.418094
-0.0823612
-0.0633103
-0.0650679
0.0182804
-0.289886
-0.107936
0.328797
0.160129
0.0297291
0.0568717
-0.110122
-0.249227
0.062559
-0.0315655
-0.0568041
-0.107545
0.060388
-0.388191
0.0122581
-0.13793
-0.0174321
0.13062
-0.00842814
0.00227847
-0.2763
-0.335833
0.271708
-0.0650872
-0.41923
0.0397685
-0.193451
-0.0784797
-0.0107362
-0.164253
-0.122726
-0.144741
0.0222668
-0.0859969
-0.404395
-0.0324448
0.0148691
-0.0903733
-0.084079
0.0156725
-0.0197506
-0.0326383
-0.0587497
-0.189362
-0.220617
0.317752
-0.18612
-0.0122908
0.0221686
-0.108451
-0.0140526
-0.106657
0.11858
-0.0335699
-0.143035
0.0170487
0.0310227
-0.260748
0.00508659
-0.336292
0.0203616
-0.35086
-0.100309
-0.18918
0.0121445
0.00606557
-0.248437
-0.0145004
-0.0386549
0.0545574
-0.240569
-0.325374
-0.103647
-0.110281
0.0598733
-0.174552
0.0643267
-0.122886
-0.0274994
0.0195171
-0.422106
-0.125085
-0.344792
-0.0313749
-0.137909
-0.130336
-0.419742
-0.19429
-0.245403
-0.10958
-0.0155695
-0.259036
-0.0264443
-0.0256471
-0.217611
-0.108895
0.0863416
0.281678
0.0748923
-0.00111426
-0.0677675
-0.259885
-0.0590608
0.00549663
-0.409788
0.0569094
-0.0159253
-0.0748532
0.0030838
0.0165174
-0.194966
-0.212151
-0.416325
-0.01503
0.073103
0.00341719
0.399358
-0.0100419
0.455817
-0.163328
-0.0974741
-0.0694718
-0.406801
0.148537
-0.282234
0.477773
0.0182543
0.057582
0.105498
0.12463
0.495164
-0.194313
-0.383691
-0.0854578
0.509173
0.0263956
-0.137263
0.00219442
-0.421656
-0.0861057
-0.0497919
-0.0522833
-0.037197
-0.00591904
-0.155859
-0.379909
-0.0110372
-0.0457766
-0.0042043
-0.227531
-0.0448528
-0.313627
-0.0685794
-0.35305
0.025378
-0.00548201
-0.153271
0.43067
0.0219892
-0.113581
0.0159508
-0.230336
0.165155
-0.179223
-0.115458
-0.38192
-0.013016
-0.0281893
-0.098657
-0.0701167
-0.0706385
-0.078013
0.00522597
-0.0632355
0.022035
-0.00178203
-0.0370225
0.0204593
-0.403563
-0.164761
-0.158508
-0.0745837
-0.257509
-0.272534
-0.013764
-0.0915648
-0.0144145
0.486481
-0.0331862
0.0481981
0.0227008
0.00130568
-0.0249752
-0.188423
-0.044675
0.429161
-0.0224787
0.1627
-0.0126766
0.485964
0.0136765
-0.0962404
-0.0851843
-0.123705
-0.385972
0.00158581
-0.107034
-0.168216
-0.00471743
-0.0155123
0.00877886
-0.0817727
-0.37836
-0.0336032
-0.0231599
-0.17543
-0.125541
0.201161
-0.140582
0.0300874
-0.126498
-0.0906941
-0.0128251
-0.184109
-0.0420159
-0.0842643
0.0319671
-0.0337172
0.0164146
-0.167725
-0.0978041
-0.0141049
0.383949
-0.113745
0.00280964
-0.0226617
-0.00558457
0.404526
-0.178114
-0.161925
-0.0527869
-0.114276
0.0135974
0.0288038
-0.048737
0.00491764
-0.179111
0.0342937
-0.0924672
-0.332076
-0.0950074
-0.0136375
-0.0750022
-0.13529
0.013975
-0.180099
-0.0933621
-0.153123
0.0979074
-0.401459
-0.154424
0.0047598
-0.198192
-0.195553
-0.0609539
-0.314494
-0.0914409
-0.0619294
-0.154696
-0.000212329
-0.202323
0.284002
-0.190762
0.00364451
0.0119549
-0.0143424
0.169015
-0.0974276
-0.101542
-0.263825
-0.412326
-0.0708267
0.015713
0.500181
-0.0944813
-0.176479
0.0234278
0.00489485
-0.124149
-0.0927888
0.0343571
-0.0952823
-0.3988
-0.192716
-0.387549
0.342088
-0.201307
-0.0742977
-0.316146
-0.0187014
-0.329329
-0.202963
-0.0310633
-0.0406849
-0.00257084
-0.376986
-0.205025
-0.155486
-0.0338747
-0.372584
-0.0226773
-0.227295
-0.0912725
0.0267663
-0.098259
-0.283003
-0.11329
-0.152742
-0.0409376
0.0339323
0.0558099
-0.10682
-0.0956605
-0.361794
-0.178865
-0.0166831
-0.421895
-0.240588
-0.0751964
0.00189433
0.00714275
-0.0703533
0.418454
0.00947511
-0.142833
0.30567
0.193517
-0.078077
-0.115858
-0.343478
-0.202671
0.0422679
-0.0204827
0.294436
-0.0893799
-0.376498
-0.030286
0.190119
0.323759
0.380466
-0.0375896
0.0149811
0.369422
-0.213702
-0.354815
0.408561
-0.0673267
0.0068335
0.416683
-0.207957
0.0444354
0.282805
-0.187687
-0.0144531
-0.177244
-0.161999
0.424477
0.0167789
-0.0637702
-0.171554
-0.405355
-0.01726
-0.0544081
-0.00427223
-0.0431051
-0.00346271
-0.135369
0.0283238
0.0957144
0.386122
-0.0973442
-0.191458
0.0766702
-0.0609301
-0.03878
-0.332189
0.272626
-0.394089
-0.022465
0.110135
-0.387967
0.332839
0.0396363
0.0781074
-0.22527
-0.155545
-0.248001
0.00486784
-0.000790662
-0.00572265
-0.198171
0.0118226
0.467461
0.487936
0.40136
-0.0583039
-0.278105
-0.385525
-0.00179177
-0.317611
0.0265437
0.224663
-0.0100661
-0.0299777
-0.147482
-0.298111
0.00339818
-0.408058
-0.235973
0.327689
-0.259864
-0.0108674
0.00743584
-0.0917694
-0.0453067
-0.40886
-0.401155
0.0385193
-0.258507
0.00145051
-0.0213595
-0.0253124
0.0230937
-0.386345
-0.0524882
-0.367682
0.297611
-0.0379601
0.444058
-0.364153
-0.0825226
-0.379622
-0.0555332
-0.0275114
0.0222588
-0.0455614
0.466736
0.355619
-0.279635
0.0212152
-0.0418836
0.128852
0.00432376
-0.0964113
0.0762379
0.17687
0.24183
0.0445895
0.00575826
-0.0156615
-0.136002
0.00260844
0.0122585
0.324157
0.0498776
-0.0037157
-0.13668
-0.0038248
-0.342918
-0.0860117
0.486693
0.0298973
0.314186
0.0167908
-0.134367
-0.0439798
-0.0433822
0.115558
-0.366422
-0.0850017
0.317322
-0.028444
-0.0980344
-0.131685
-0.0746286
-0.275787
0.0222375
-0.28061
-0.215342
-0.0149089
0.268047
-0.23678
0.333608
0.0182221
-0.151231
0.429439
-0.229422
-0.187369
-0.0337198
-0.162753
0.0275197
0.00526429
-0.0803122
-0.123218
0.00648087
-0.0820613
-0.394184
-0.0993625
-0.40322
0.413157
-0.364098
-0.286244
-0.014828
-0.0517895
-0.0217671
0.131364
-0.23075
-0.251048
0.0476008
-0.000296736
-0.0226243
-0.344411
-0.105559
-0.137874
-0.0919141
0.35037
-0.421082
-0.326963
0.00959306
-0.414881
0.0266402
0.107124
0.140564
-0.0950729
-0.117784
0.106101
-0.04397
0.283595
-0.0822463
-0.0945697
-0.403965
0.162138
-0.0666046
-0.0804624
0.0229234
0.477424
-0.161539
0.0595418
-0.386845
-0.415718
-0.0924262
0.103205
-0.0858318
-0.414481
0.0111865
-0.0257182
-0.0139733
-0.0122138
0.0575356
-0.421837
0.0471586
-0.166135
4.08079e-05
-0.0306975
0.4488
-0.0363535
-0.0155855
0.0140779
0.0259841
-0.178937
-0.0209191
-0.42212
-0.0337839
-0.0509108
-0.0377501
0.0501037
0.364524
-0.0213943
0.00816993
-0.0183282
-0.0737408
0.299557
-0.0612886
-0.0915319
-0.000983478
0.0867033
-0.0911706
-0.281847
0.0684421
0.0131392
-0.0260775
-0.0186967
-0.302452
-0.00038489
-0.0241999
-0.0634493
-0.352279
-0.000822747
0.176334
0.041583
0.0152509
-0.121714
-0.416948
-0.11472
-0.126159
-0.0629757
-0.0952805
0.0429996
0.3472
-0.267564
-0.0404932
-0.164552
-0.0741035
-0.113603
0.0464736
0.0248025
0.484406
-0.058103
-0.273144
-0.163389
-0.0219477
0.018542
-0.418807
-0.0665196
-0.0976981
0.0528311
0.0100018
-0.418869
-0.208614
-0.0175342
0.00614567
-0.0328554
0.0136456
0.0163694
0.0327088
0.177201
-0.203717
0.0108489
0.0427742
0.451221
0.00866215
-0.265763
0.0506854
-0.0337841
-0.0781842
0.00283402
-0.19627
0.0583274
0.245273
0.0123395
-0.0282862
-0.350691
-0.385826
0.00354654
-0.100142
0.202869
0.0170645
0.0817174
0.00626255
-0.043297
-0.309803
-0.237684
-0.0692562
-0.137669
-0.0427709
-0.409318
-0.160346
-0.0322652
-0.274961
0.0599991
-0.127643
-0.158482
-0.0784038
-0.357305
-0.23777
-0.0930319
-0.024092
-0.0622378
0.0985106
-0.0212573
-0.0253797
-0.0888486
0.304216
-0.0234468
0.107842
-0.12033
0.0690649
0.417414
-0.0948601
-0.0746264
-0.315254
-0.36892
0.169559
0.100703
-0.0847917
-0.42084
-0.144231
0.0724314
-0.022109
-0.00735797
-0.0181129
-0.091461
-0.119823
-0.21699
-0.0271603
-0.330514
0.00453297
-0.07406
-0.080649
0.313986
-0.226553
0.318247
0.376818
0.0569247
0.164148
-0.00381401
0.118793
0.0117102
-0.0348702
-0.100331
-0.0990682
0.0135987
0.094906
-0.224357
-0.00651248
-0.0255503
0.112807
-0.421795
-0.214697
-0.151693
0.202265
0.00584685
-0.0660607
0.192871
-0.0425938
0.0291429
0.00274891
-0.0296906
0.0326365
-0.062247
-0.185036
0.00263967
-0.0200729
0.226593
-0.00171585
0.105794
0.135797
0.0226994
0.00993372
-0.421978
-0.0153161
0.0210107
-0.016155
0.0673119
-0.0173252
-0.366572
-0.0533517
-0.265843
6.19599e-05
-0.0274997
-0.0351487
-0.334263
-0.0764612
0.0350941
-0.022591
-0.179109
0.102265
-0.142069
-0.00408292
-0.222693
0.0108149
-0.0164711
-0.367139