/*--------------------------------*- C++ -*----------------------------------*\
| =========                 |                                                 |
| \\      /  F ield         | OpenFOAM: The Open Source CFD Toolbox           |
|  \\    /   O peration     | Version:  v2012                                 |
|   \\  /    A nd           | Website:  www.openfoam.com                      |
|    \\/     M anipulation  |                                                 |
\*---------------------------------------------------------------------------*/
FoamFile
{
    version     2.0;
    format      ascii;
    class       volVectorField;
    location    "1000";
    object      U;
}
// * * * * * * * * * * * * * * * * * * * * * * * * * * * * * * * * * * * * * //

dimensions      [0 1 -1 0 0 0 0];


internalField   nonuniform List<vector> 
13917
(
(1.10341 0.127507 1.35262e-21)
(1.02318 0.0440223 -3.1794e-21)
(0.518161 -0.0717743 2.88441e-20)
(1.05927 -0.0138848 3.63635e-22)
(0.9963 0.00433374 -3.06983e-21)
(0.35835 0.0600403 0)
(0.453024 -0.0625591 -1.50047e-20)
(0.520386 -0.07039 0)
(0.336385 -0.066193 5.72805e-20)
(1.14845 0.158584 -1.52447e-20)
(1.13012 -0.0696195 -8.16266e-20)
(1.10127 -0.0524917 -6.08231e-20)
(1.05979 -0.0147387 -1.22509e-20)
(-0.0535777 -0.00930103 0)
(0.974104 0.0994071 1.27642e-20)
(0.997882 0.0936511 1.02863e-20)
(1.01747 0.0496101 2.8659e-22)
(1.15218 0.0197847 0)
(1.09991 -0.0519733 4.58124e-20)
(1.00161 0.00506424 1.83572e-22)
(0.999983 0.0011573 -2.30557e-22)
(0.432312 -0.0610544 0)
(1.00115 0.00852561 -3.37096e-22)
(0.577438 -0.0751932 0)
(0.995436 0.0168913 0)
(0.46676 -0.0613563 1.38407e-20)
(0.783027 0.0402894 -4.73126e-20)
(0.75774 0.128467 -7.35835e-20)
(0.729968 0.580333 0)
(1.20793 0.097429 0)
(1.11874 0.117133 3.21178e-20)
(1.06575 0.0936187 0)
(0.837597 0.074975 0)
(0.910313 0.00560572 -1.01275e-21)
(0.991769 0.0140752 7.19804e-21)
(1.13497 -0.0860427 0)
(1.00104 0.00802839 5.96553e-21)
(0.0752288 -0.0323069 0)
(1.06703 -0.0200051 6.46286e-21)
(0.233359 -0.0150739 0)
(1.00894 0.000842948 0)
(0.999989 0.000494739 6.04902e-21)
(1.02138 0.00228053 5.35075e-21)
(0.703024 0.211522 9.88923e-20)
(1.04193 0.025277 4.64022e-21)
(0.891848 0.019802 4.99653e-20)
(1.1495 0.0178238 5.45521e-21)
(1.15384 -0.0160343 4.46417e-20)
(0.1045 0.142324 -1.32016e-19)
(1.00365 0.000835202 6.95059e-23)
(1.09253 0.0139319 -1.63475e-20)
(0.965528 0.012807 -5.145e-21)
(0.0758207 0.121465 1.15654e-19)
(0.905685 0.00695658 4.77638e-20)
(1.01628 0.0506687 -3.18207e-22)
(1.09226 0.0396726 -3.93799e-20)
(1.13076 -0.0687754 7.19187e-20)
(0.996607 0.0319508 -2.38272e-21)
(1.07719 0.0464971 0)
(1.04038 0.0248491 8.8647e-21)
(0.462003 0.0425233 0)
(1.02477 0.0440782 5.06015e-21)
(-0.0573166 -0.00396537 0)
(1.00173 0.00549621 2.7013e-21)
(0.385685 0.0724828 0)
(0.967671 0.329651 1.4184e-19)
(0.995419 0.000602048 -1.3007e-20)
(0.987991 0.000678674 -1.79926e-21)
(1.16983 -0.0548188 0)
(1.06887 0.142238 2.41661e-22)
(0.996699 0.00442852 0)
(0.391695 -0.0731643 -4.67846e-20)
(-0.125467 -0.0237244 5.87721e-20)
(0.996008 0.0164573 3.34481e-21)
(0.105614 0.215492 -1.30574e-19)
(1.0923 -0.060491 6.78991e-21)
(-0.129751 -0.0169944 1.50843e-20)
(1.05831 0.0275469 0)
(0.48069 -0.058436 2.21924e-20)
(0.999919 0.00230785 0)
(1.00012 0.00339714 0)
(0.995975 0.000608903 1.30761e-20)
(0.404118 0.136199 2.60917e-21)
(0.100912 -0.0363806 0)
(-0.107109 0.00933104 0)
(1.05712 0.0262891 7.76416e-21)
(1.00042 0.00434058 2.87866e-22)
(1.12929 0.412699 -1.59748e-19)
(1.09049 0.0138483 3.63869e-20)
(1.02184 0.0022603 -8.74365e-21)
(-0.0513758 -0.0304799 4.79009e-20)
(1.18693 0.138522 0)
(1.02506 0.0246158 0)
(0.975206 0.0572228 -1.02308e-20)
(1.08113 0.40531 1.50528e-19)
(0.386105 -0.000716664 1.31743e-19)
(1.14472 -0.0545284 9.94216e-21)
(1.15392 -0.00553278 2.80028e-20)
(1.09961 -0.0722368 0)
(0.608091 0.136366 -1.04248e-19)
(1.0119 0.00606845 0)
(0.844564 0.00626146 9.62565e-20)
(0.692727 0.196139 -4.71981e-20)
(1.06618 0.0201177 0)
(1.01755 0.0128231 -1.42851e-21)
(0.400251 -0.067439 0)
(0.81163 0.519538 -1.84495e-20)
(1.1565 -0.0171747 -5.29322e-20)
(1.01943 0.0501143 1.28834e-21)
(1.11875 0.132647 -1.25183e-21)
(-0.191207 -0.0148411 7.06241e-20)
(0.241109 -0.0158734 4.15168e-21)
(1.10322 -0.0601003 1.33054e-20)
(0.36537 -0.0671708 3.65986e-20)
(0.948211 0.0121469 0)
(0.0827509 -0.109656 8.50869e-20)
(1.00133 0.0151976 9.53215e-21)
(0.200726 0.101071 6.05646e-20)
(0.115792 -0.0166547 0)
(0.907285 0.0195431 4.79376e-20)
(0.999987 0.00096047 -6.98181e-22)
(1.17022 -0.0531345 0)
(0.0847706 -0.0181121 0)
(0.766568 0.121672 0)
(1.00543 0.000733281 2.3242e-22)
(0.976596 0.0545217 0)
(1.03717 0.0292197 -8.57295e-23)
(1.00503 0.000594707 0)
(1.01856 0.00170047 -7.06378e-21)
(0.361717 0.013397 -3.40578e-19)
(0.181556 -0.0316296 0)
(0.950652 0.0111593 2.91819e-20)
(1.04236 0.0263429 0)
(0.999982 0.000922285 0)
(1.22579 -0.00612342 0)
(0.593626 -0.0786878 -1.95094e-20)
(1.10066 0.132281 2.71518e-20)
(0.584207 0.137328 -3.97792e-20)
(0.995112 0.00105802 1.55768e-20)
(0.908139 0.0152569 -5.4595e-20)
(1.13802 -0.0832058 4.99146e-21)
(1.02629 0.0135314 0)
(0.962677 0.0251661 3.95158e-20)
(0.654677 0.20813 5.20098e-20)
(0.987368 0.00102747 5.57943e-22)
(0.599894 -0.0769221 0)
(0.800857 0.58716 3.27199e-21)
(0.967478 0.0132078 0)
(1.02476 0.0113519 2.66405e-21)
(1.0605 0.10325 0)
(1.12779 -0.026909 7.72249e-20)
(0.0928861 -0.143414 -9.51854e-20)
(1.12377 -0.0526319 4.79771e-20)
(1.0302 0.187289 -8.33568e-21)
(1.08316 0.0662818 2.7014e-21)
(-0.0676817 0.0410208 0)
(1.06389 0.139389 0)
(1.09267 -0.0868448 0)
(-0.151686 -0.0146113 0)
(1.22312 -0.00548833 1.38575e-21)
(0.940614 0.0483765 1.17419e-20)
(0.783254 -0.0202749 -1.39e-19)
(1.00005 0.00237407 0)
(1.14262 -0.0537985 0)
(1.10397 -0.0592259 8.83204e-21)
(1.10064 -0.0715996 0)
(1.06523 0.0210878 1.26772e-20)
(1.13979 -0.0186818 4.525e-20)
(1.03464 0.0217286 -1.80247e-20)
(0.837571 0.00198846 -1.49745e-19)
(1.05033 0.180052 0)
(-0.306649 -0.00425894 0)
(1.10071 -0.0632987 -4.29715e-20)
(1.01529 0.0592476 -1.00584e-22)
(0.753143 -0.0833509 -1.18239e-20)
(1.01924 0.208547 2.59098e-21)
(0.20285 -0.0356275 5.12513e-21)
(0.163274 0.10292 6.6953e-20)
(0.658185 -0.0797864 1.24313e-20)
(1.01408 0.0283686 0)
(1.19275 0.133286 -4.78083e-20)
(1.12441 0.115678 -2.00765e-21)
(1.02681 0.0130311 3.194e-21)
(1.00043 0.00473799 0)
(0.937924 0.119453 0)
(0.51951 -0.0651683 -1.33462e-20)
(1.27464 0.147466 -5.1661e-20)
(-0.0190109 0.0416398 4.23389e-20)
(1.12543 0.0431029 -2.3088e-21)
(1.10911 -0.0685975 -2.35572e-21)
(1.16026 -0.0828914 3.15845e-20)
(-0.0604181 0.0133318 -1.57667e-19)
(1.26334 0.188237 0)
(0.999902 0.00849053 -6.5075e-21)
(0.563176 0.0704565 1.61994e-19)
(0.793694 0.0420229 5.58241e-20)
(1.00778 0.000316672 2.59532e-21)
(1.02532 0.0256828 -3.39907e-21)
(0.873833 0.453784 0)
(1.19802 0.48255 -5.3587e-20)
(1.08246 -0.00501756 5.19782e-21)
(1.00333 0.00074594 -8.05561e-22)
(1.13289 -0.0192755 -6.92538e-20)
(1.12573 -0.027036 -6.2724e-20)
(-0.151399 -0.020228 6.42043e-20)
(1.24545 -0.044761 5.7791e-20)
(0.992065 0.0132008 4.81864e-23)
(0.995912 0.0330782 0)
(1.15125 -0.0074532 -1.0553e-19)
(0.5369 -0.0702371 0)
(0.96495 0.0254857 -4.98855e-20)
(0.437332 -0.0635709 -3.79281e-20)
(-0.196432 -0.0146253 -3.37231e-20)
(1.11014 -0.0680437 0)
(1.01716 0.0131137 5.52323e-21)
(0.491956 0.4157 0)
(1.14313 -0.00626751 4.45825e-20)
(-0.278947 -0.0118519 1.62508e-19)
(1.00372 0.0196808 2.26599e-21)
(0.609112 0.0637726 0)
(1.01364 0.0273421 0)
(1.20045 0.0725549 0)
(1.00875 0.00104634 0)
(0.0562975 -0.0361154 1.28365e-20)
(0.379349 -0.0655735 5.83219e-20)
(0.998944 0.0972484 -6.42422e-21)
(1.19644 0.4936 -1.88254e-19)
(1.08639 0.0651868 0)
(1.0164 0.0126503 -2.38944e-21)
(1.14057 -0.085427 -7.0675e-21)
(1.0993 -0.0626889 4.05557e-20)
(1.12407 0.0404356 0)
(0.602534 -0.0763534 0)
(-0.216177 -0.0122076 0)
(1.01283 0.0031619 -1.63087e-21)
(1.06919 0.0948228 -1.17598e-20)
(-0.0236649 -0.0342253 4.14964e-20)
(-0.146623 0.0114955 -5.96206e-20)
(1.00002 0.00265988 0)
(1.00665 0.00964554 0)
(0.284815 -0.015584 -4.45426e-21)
(1.15008 -0.0560329 1.18572e-20)
(1.00004 0.000137828 0)
(1.12035 -0.0821636 -4.90509e-21)
(1.18907 0.0101487 0)
(0.793113 -0.0252968 1.07201e-19)
(1.10112 0.112214 -3.22977e-20)
(1.00007 0.00257121 0)
(0.981896 0.212954 0)
(-0.186675 -0.0131594 7.00173e-20)
(1.04347 0.00215675 0)
(1.209 0.150862 0)
(0.569558 0.18194 7.44647e-20)
(1.03683 0.027868 3.5246e-21)
(0.995958 0.0302769 2.66404e-21)
(1.11797 -0.0462183 0)
(0.300268 -0.022536 2.11941e-20)
(1.12256 -0.0513825 -2.60505e-20)
(0.938843 0.124241 -1.93455e-20)
(0.977564 0.102084 -1.37823e-20)
(1.00004 0.000242131 -1.47387e-21)
(0.0640424 -0.0143816 0)
(0.570787 -0.0427516 8.68491e-20)
(1.12336 -0.0862411 -2.97315e-20)
(1.01594 0.0129227 1.25735e-21)
(-0.177504 -0.0183255 -6.28399e-20)
(-0.0407122 -0.0134945 0)
(1.03206 -0.0886386 1.79909e-20)
(0.462245 -0.056574 -2.23275e-20)
(1.09267 -0.0618043 -7.88538e-21)
(1.00007 0.00317648 0)
(1.00663 0.000883019 3.57441e-22)
(1.14856 0.0124417 -7.59467e-20)
(-0.0159726 -0.0273323 4.15217e-20)
(1.17799 -0.0295176 3.39568e-20)
(1.07554 0.0442794 3.0143e-20)
(1.21798 -0.045823 -2.94992e-20)
(1.08466 -0.0429911 -1.93632e-20)
(1.01843 0.00111918 1.24603e-21)
(0.843111 0.0187208 5.0335e-20)
(1.00204 0.00497319 -2.13112e-21)
(0.713916 -0.0824138 0)
(1.08048 -0.00459755 -2.21414e-20)
(1.00007 0.000139785 0)
(1.003 0.114767 3.38718e-21)
(1.02438 0.189229 1.24416e-20)
(0.783481 -0.00789327 -7.0709e-20)
(1.127 -0.0835401 2.86938e-21)
(1.00079 0.151415 2.03788e-21)
(1.04663 0.00922485 4.90415e-21)
(1.28264 0.0186253 6.20851e-20)
(0.612289 -0.0762451 0)
(0.472553 -0.0451102 -6.03535e-20)
(1.0034 0.0191538 -8.10729e-21)
(0.99918 -0.0873314 -5.56016e-20)
(0.998396 0.000877486 0)
(1.04666 0.00820364 1.84703e-20)
(1.00142 0.0144921 -8.99799e-21)
(0.812778 0.627009 -3.17199e-21)
(1.00166 0.000883371 0)
(1.20561 0.0725232 0)
(1.09638 0.111966 3.77748e-20)
(1.03416 0.0207063 8.9646e-21)
(1.13272 -0.021695 8.16386e-20)
(1.04175 0.0598484 0)
(0.113759 0.0646296 2.02114e-19)
(1.01843 0.203291 0)
(1.181 0.135659 0)
(1.03235 0.0143003 -4.72024e-21)
(0.99661 0.0292341 5.15284e-21)
(-0.209401 -0.0125065 -3.89412e-20)
(0.0566482 -0.0166365 -1.60627e-20)
(1.00162 0.0158156 4.42126e-21)
(1.00754 0.00092928 0)
(0.896149 0.0270655 1.13576e-19)
(1.01745 0.0267816 3.94936e-22)
(-0.10386 -0.0264565 -5.4537e-20)
(1.03135 0.0142144 -9.59157e-22)
(0.0717434 -0.0375517 -3.61671e-20)
(1.0501 -0.00707645 1.95495e-20)
(1.21523 0.337743 0)
(1.11005 0.00170109 -8.76464e-20)
(0.110874 0.287485 -1.40299e-19)
(0.944464 0.0480268 1.00233e-20)
(1.29624 0.00462566 7.34784e-20)
(0.509211 0.309226 2.5843e-20)
(1.00611 0.11245 5.66046e-21)
(1.15198 -0.0546677 -2.7614e-20)
(0.954555 0.533663 -3.37147e-21)
(0.99747 0.0467717 -5.82503e-21)
(0.128419 -0.031452 0)
(0.571267 0.0493882 -2.70655e-19)
(-0.0333308 -0.0163468 3.31589e-21)
(0.921963 0.0241012 2.86271e-20)
(0.159771 -0.0139368 0)
(1.07573 0.0929018 0)
(-0.0957666 -0.00370492 -7.14272e-20)
(0.527317 0.28823 -1.96059e-20)
(0.922252 0.362326 0)
(0.938698 0.357235 -6.72962e-21)
(0.465773 -0.0690474 0)
(0.999751 0.00289853 -1.074e-21)
(1.05679 0.183429 -1.7216e-20)
(-0.158963 -0.015397 -5.05333e-22)
(0.983533 0.0325066 0)
(1.00462 0.075903 -5.54023e-21)
(-0.0192935 -0.0138225 0)
(0.860427 0.48867 0)
(1.02023 0.0558762 7.36235e-22)
(1.14663 -0.0807763 2.69716e-20)
(0.699894 0.552303 0)
(1.00982 0.00529515 -4.31429e-22)
(0.0971019 -0.0135129 1.33305e-20)
(1.14876 -0.0839418 5.84769e-20)
(1.00219 0.00537222 2.21706e-21)
(1.0103 0.0137226 -2.50264e-22)
(0.998576 0.000672286 2.82346e-21)
(1.02516 0.0109301 -9.05777e-21)
(1.26845 0.0156538 -6.19345e-20)
(0.698333 -0.0817705 0)
(0.386527 -0.27194 -2.12517e-19)
(-0.177519 -0.0135447 -9.90309e-20)
(0.998462 0.0161836 3.04145e-21)
(1.21617 0.150447 3.24853e-20)
(-0.204528 0.0134918 -1.34805e-19)
(1.12229 -0.00995259 -4.5277e-20)
(0.418333 -0.06164 5.89712e-20)
(0.0116755 -0.0321733 3.58235e-20)
(0.345522 -0.0650808 -9.79656e-21)
(1.01419 0.00577679 -2.24928e-21)
(1.11603 -0.084215 1.80029e-20)
(1.01154 0.0132308 -1.49823e-21)
(0.729409 0.0776545 1.11732e-19)
(1.03944 0.0256034 -2.19737e-22)
(0.0853663 0.335412 -3.60373e-20)
(1.19217 0.0124824 6.66265e-20)
(1.06985 -0.0112364 2.25751e-20)
(0.999609 0.00349166 -2.43952e-21)
(1.14847 -0.00608858 -6.82635e-21)
(1.19898 0.134747 0)
(1.1696 0.00554023 0)
(0.324545 1.09998 0)
(-0.136283 -0.00502536 0)
(-0.304464 -0.00949693 -2.09554e-19)
(0.987044 0.22119 -2.13264e-21)
(1.14186 0.155392 0)
(1.0063 0.00918497 0)
(-0.122608 0.0124238 5.67349e-20)
(0.423155 -0.0593592 0)
(1.00086 0.0359127 -4.78697e-21)
(1.31402 0.0115218 0)
(0.996025 0.0124597 1.29981e-20)
(1.22479 -0.0244639 8.87797e-20)
(1.05021 -0.00641099 -1.38345e-20)
(0.999813 0.0024632 9.85403e-22)
(1.03695 0.06321 5.65911e-21)
(0.518525 -0.0571559 -3.16896e-21)
(1.0351 0.0635377 -4.78504e-21)
(0.320879 -0.0268904 1.02259e-20)
(-0.0722466 0.0387524 0)
(1.12187 -0.0685032 0)
(0.441271 0.289129 6.29411e-20)
(0.999243 0.0463427 1.71201e-21)
(0.493903 0.373027 4.50456e-20)
(0.467208 0.314056 0)
(1.00246 0.0109522 2.89299e-23)
(0.824737 0.488978 -4.0342e-21)
(0.98493 0.0322088 -1.03182e-20)
(0.994864 0.0145538 -1.33522e-21)
(1.2061 0.102245 6.34449e-20)
(1.00007 0.000362156 0)
(0.994274 0.0164022 -1.88759e-21)
(1.01177 0.0130063 2.09811e-21)
(1.25341 0.018947 -2.78736e-20)
(0.999961 0.00184729 1.82058e-22)
(0.16926 -0.0158316 0)
(0.611876 -0.0673 0)
(-0.136265 0.0136989 1.62165e-20)
(1.25834 0.1945 -6.09001e-20)
(0.300175 -0.0332776 -7.67597e-21)
(-0.262879 -0.0136729 0)
(1.12002 -0.0104022 6.90676e-20)
(0.998795 0.0154869 0)
(1.22491 0.0106118 0)
(1.0667 -0.0186511 -1.84311e-21)
(1.07424 0.100624 2.3615e-20)
(0.999931 0.00909713 -7.11431e-21)
(0.627731 -0.0810045 -5.31112e-20)
(0.481779 -0.0664838 0)
(0.66721 -0.0709862 0)
(0.986288 0.092343 -4.36873e-22)
(1.19319 -0.000564161 5.05391e-20)
(0.925292 0.0210885 -5.61119e-20)
(1.06852 -0.0205604 1.29099e-20)
(1.16731 0.00384324 3.49788e-20)
(1.02228 0.0651718 0)
(1.11564 -0.0848258 0)
(1.02052 0.0488147 -1.81505e-21)
(1.00165 0.00104178 8.0717e-23)
(-0.0744373 -0.0302898 5.19087e-20)
(0.19856 -0.0339616 -4.9241e-20)
(0.218405 -0.0368243 3.14777e-20)
(1.18785 0.221516 -5.0492e-20)
(-0.144284 0.00910045 7.38201e-20)
(0.155703 -0.0357873 -4.3968e-20)
(-0.118841 -0.0252302 -9.98128e-20)
(-0.0931991 -0.0175258 4.34538e-20)
(1.01779 0.0018821 1.32347e-21)
(1.15044 0.00256482 -2.88367e-20)
(1.02438 0.0649782 0)
(0.993564 0.0337965 -3.28867e-21)
(1.26719 -0.0363448 2.74394e-20)
(1.15078 0.0142426 5.7201e-20)
(1.01904 -0.000155427 -2.78537e-21)
(1.16982 0.050701 0)
(1.12073 -0.00455596 -3.03836e-20)
(-0.0850309 -0.0147007 9.78705e-20)
(1.00266 0.0113732 -2.55335e-21)
(1.15958 -0.0427151 -2.08164e-20)
(-0.0223153 0.00551691 5.46862e-20)
(1.23477 0.352952 0)
(0.172571 -0.0192724 2.55097e-20)
(0.999958 0.00162368 -7.21721e-21)
(0.999698 0.0364205 -4.57174e-21)
(1.01193 0.000449351 8.1434e-22)
(1.05853 0.143354 0)
(1.01411 0.00535298 3.78764e-21)
(0.580731 -0.0697145 0)
(0.397909 -0.232344 6.17202e-20)
(1.00373 0.145857 0)
(-0.0842107 0.0195527 0)
(1.09164 0.0371023 -3.33874e-21)
(1.14099 -0.0556471 0)
(-0.0823114 -0.0273045 3.2045e-20)
(0.822316 0.5883 3.35337e-21)
(1.12049 -0.0681723 0)
(1.14483 -0.0842894 0)
(1.15881 -0.0444336 1.15956e-20)
(1.16746 0.0688453 -5.65577e-20)
(1.21365 -0.00777069 -8.66765e-21)
(1.10314 -0.0316344 5.22605e-20)
(1.11572 -0.0735132 -3.29888e-20)
(0.3748 0.11553 -1.81351e-19)
(1.09841 -0.0409802 -2.78837e-20)
(1.15523 -0.0263444 2.12224e-20)
(1.01541 0.000719849 0)
(1.26325 -0.0160685 0)
(1.09583 0.0170324 -2.56947e-20)
(1.03159 0.00282134 -4.26343e-21)
(1.05399 0.139648 0)
(1.06088 0.0256532 9.68722e-21)
(-0.0819031 -0.0179488 0)
(0.388073 -0.0708219 -4.29281e-20)
(1.01666 0.0257347 0)
(1.01831 0.000904091 -1.31496e-21)
(0.602702 -0.0730152 -2.76597e-20)
(-0.284131 -0.0108731 0)
(1.00006 0.000274501 2.89904e-23)
(0.149878 -0.0148876 0)
(1.06119 0.00337501 -1.5738e-22)
(1.24713 0.173356 4.95707e-20)
(1.01608 0.0277786 -8.91286e-22)
(-0.181718 -0.0167028 0)
(1.16292 -0.0774051 -8.73667e-20)
(1.06359 0.100816 -2.28122e-20)
(1.04048 0.0393767 -5.66097e-21)
(0.325875 -0.0375831 0)
(1.26327 0.145383 1.02754e-19)
(-0.260232 0.0033236 1.40911e-19)
(1.00005 0.000327765 0)
(-0.185825 -0.0153093 6.77849e-20)
(0.135667 0.0641861 7.67463e-21)
(0.869437 0.0288734 4.42293e-20)
(1.03177 0.0033618 -1.3127e-22)
(-0.137238 0.0094225 0)
(0.244019 -0.0447598 -9.60983e-20)
(1.11959 -0.0142909 6.40917e-20)
(1.01088 0.0137655 5.53357e-22)
(1.01122 0.0501246 2.49302e-21)
(1.08948 -0.0610634 -1.58491e-21)
(1.24278 -0.0270847 -9.7381e-20)
(1.01944 -0.000174836 0)
(1.00978 0.0129885 -2.76357e-22)
(1.00533 0.00258231 4.73408e-23)
(1.00567 0.00269883 -3.17608e-22)
(-0.201291 -0.0166428 -1.92719e-20)
(1.26835 -0.0317507 -5.68058e-20)
(1.11906 -0.0128509 -5.48451e-20)
(1.27445 0.133709 5.03624e-20)
(1.00666 0.000690052 -2.06008e-22)
(1.01142 0.00576258 8.361e-22)
(1.18954 -0.00227406 -1.23459e-20)
(0.119123 -0.0447598 8.13596e-20)
(1.11461 0.0542086 0)
(1.03588 0.0219664 1.90842e-20)
(0.995237 0.015016 0)
(0.99234 0.00155598 1.22607e-20)
(0.811038 0.0201027 -9.17615e-20)
(-0.0194247 0.0152284 1.24164e-19)
(1.00057 0.00408379 0)
(0.992632 0.00455975 -1.13933e-20)
(1.11338 -0.0842073 9.4726e-21)
(1.10369 -0.0299648 6.38317e-21)
(1.10906 0.000231677 -1.30511e-20)
(0.998625 0.0348718 1.22461e-20)
(1.03229 0.066586 -5.99614e-22)
(1.04855 0.0992946 1.25697e-20)
(1.15271 -0.0271898 0)
(0.950332 0.506995 -1.80575e-20)
(1.27805 0.142431 0)
(1.22594 0.00628981 -3.85603e-20)
(1.17596 -0.0173939 4.7433e-20)
(1.23054 -0.0491491 -1.13568e-19)
(1.18082 0.128443 0)
(1.00253 0.0186169 1.23395e-22)
(-0.173595 -0.0154743 -1.21234e-19)
(0.992668 0.000992861 -1.07952e-20)
(1.0053 0.0789032 5.47087e-21)
(1.07206 -0.00300713 7.16855e-21)
(1.27013 -0.0176631 0)
(0.995322 0.299405 0)
(1.01052 0.00129712 -1.73604e-21)
(1.23701 0.341697 0)
(1.21726 0.0902998 9.58756e-20)
(-0.104193 -0.0217601 0)
(1.17753 -0.0151596 0)
(0.88858 0.142148 4.23133e-20)
(1.12337 -0.00538822 3.27693e-20)
(0.999478 0.00382044 0)
(0.405258 -0.0463877 4.98778e-20)
(1.22677 0.331302 0)
(0.310387 -0.0561164 -5.80339e-21)
(1.01977 0.0465475 1.06774e-21)
(1.10383 0.0430363 0)
(1.27727 0.129126 0)
(0.0195763 -0.0342829 -3.83191e-20)
(-0.211203 -0.00251455 0)
(1.15682 -0.0071122 3.39217e-20)
(1.19677 0.223546 3.81405e-20)
(0.99386 0.0926982 -5.64355e-21)
(1.06134 0.0588447 1.40948e-20)
(0.997516 0.0354352 -9.05464e-21)
(0.890581 0.239484 0)
(0.670545 0.189899 -5.27665e-20)
(0.973301 -0.000744211 4.07724e-21)
(1.14052 -0.00779708 0)
(0.568414 0.156511 -1.72213e-19)
(0.323628 -0.0577711 1.10812e-20)
(-0.253587 0.00488818 -1.49573e-19)
(1.03565 0.0770803 7.2459e-22)
(1.13909 -0.0551887 -2.1398e-20)
(1.18877 -0.0779192 7.9318e-20)
(1.00773 0.123166 0)
(0.968612 0.0273855 0)
(0.173188 0.546679 0)
(0.575882 -0.066274 -3.39107e-20)
(0.545667 -0.078292 5.67465e-20)
(1.27063 0.116466 0)
(1.01847 0.00194086 5.76811e-21)
(0.102959 -0.0153499 -1.49676e-20)
(1.09076 -0.0600732 -3.04346e-21)
(1.01044 0.000966342 1.58767e-22)
(1.10113 0.0772982 0)
(1.13745 -0.0381333 -6.94041e-21)
(0.847017 0.0765885 -1.17806e-20)
(1.20455 0.092284 0)
(0.468673 -0.0595391 -4.25202e-20)
(1.20999 -0.00847525 -7.99537e-21)
(1.09883 -0.0278681 0)
(0.406305 -0.0459681 0)
(1.06333 0.0321968 -6.25906e-21)
(-0.113745 -0.0154916 -2.68782e-20)
(1.00001 0.0023771 6.36991e-21)
(1.00057 0.00441018 0)
(0.972909 -0.0885408 4.23819e-20)
(0.546164 -0.0673118 0)
(0.375632 0.247019 -1.10526e-19)
(1.06389 0.0306635 1.31745e-20)
(1.01658 0.0572172 7.9292e-22)
(0.993075 0.00495821 1.06949e-20)
(1.08607 -0.0432427 3.27823e-20)
(0.0786263 0.181057 1.60668e-19)
(1.10041 -0.0704004 -2.5697e-20)
(1.06378 0.0592599 -1.38868e-20)
(1.12063 -0.0664075 -2.95592e-20)
(1.14589 -0.0077764 -4.92467e-20)
(1.01597 0.0285612 -7.41208e-22)
(1.17387 0.501894 0)
(1.09894 -0.0699547 0)
(1.10919 -0.0859536 -3.69717e-20)
(1.0056 0.0211019 4.08035e-21)
(1.20513 -0.013413 0)
(1.05999 0.0273496 0)
(-0.0309869 0.0501937 1.39865e-20)
(1.15456 0.155278 1.4846e-20)
(1.0063 0.292368 7.65529e-21)
(1.10506 0.0450824 2.88697e-21)
(1.00825 0.00301232 -5.09761e-23)
(1.02954 0.00585709 1.17991e-20)
(1.03852 0.0297829 -8.02354e-23)
(0.969514 0.363244 2.03055e-21)
(0.890368 0.024919 -5.72719e-20)
(1.26682 0.0517056 -2.75858e-20)
(0.460086 0.815775 0)
(1.14 -0.0161021 -4.70541e-20)
(1.00933 0.00524762 1.31409e-21)
(1.2148 -0.000376166 -4.2743e-20)
(0.37267 0.277617 1.13441e-19)
(1.13003 -0.0866472 6.74431e-20)
(1.04269 0.00276156 0)
(0.900085 0.0378145 0)
(1.00922 0.0129072 -2.78382e-23)
(1.08233 -0.0212433 1.96379e-20)
(1.07975 0.0460686 0)
(0.223882 -0.0447824 1.54878e-19)
(0.999886 0.00251817 -2.17788e-22)
(1.23865 0.519368 9.92784e-20)
(1.08382 -0.0180159 -3.14077e-24)
(1.12829 -0.070445 -3.07737e-20)
(1.18341 0.151149 2.27922e-20)
(-0.138432 -0.0214655 -6.4257e-20)
(1.02952 0.290517 -1.29134e-20)
(1.01075 0.0483793 -2.81379e-21)
(-0.0483885 -0.0249945 4.66908e-20)
(-0.291034 -0.00821241 0)
(1.00798 0.0372671 1.03952e-21)
(1.07086 -0.00385296 -1.68228e-20)
(1.17081 -0.0741427 0)
(1.26093 0.118152 0)
(1.17486 -0.0299488 -2.32556e-20)
(1.00017 0.000396688 1.49866e-21)
(1.04182 0.0392785 0)
(1.20274 0.328412 0)
(1.07045 -0.0122947 -2.65277e-20)
(1.16937 0.00942099 0)
(1.11701 -0.0443235 0)
(1.03024 0.00567942 -7.57235e-21)
(1.12328 -0.0299747 -1.70545e-20)
(0.526822 -0.072359 -6.48427e-20)
(1.04206 0.00108378 8.03124e-21)
(1.05662 -0.00956286 -7.02279e-21)
(1.00475 0.00275017 1.03224e-23)
(0.0540563 -0.0146328 0)
(0.999958 0.00113088 -8.60908e-22)
(0.986564 0.0883483 -5.71778e-22)
(-0.301319 -0.00634599 -5.07847e-20)
(0.995672 0.0724464 0)
(0.606929 -0.066103 -8.71488e-21)
(1.08199 0.0691856 0)
(0.831799 0.0808143 -6.57777e-20)
(1.00511 0.0028772 -2.27712e-22)
(1.02662 0.223462 -1.39796e-20)
(1.00111 0.0137744 7.79652e-21)
(1.16512 0.0774167 0)
(1.0079 0.0018119 -2.81233e-22)
(1.08919 0.271214 2.91612e-20)
(1.06092 0.0042289 -1.09666e-20)
(0.193115 0.117598 0)
(0.42947 0.689311 -5.53248e-20)
(0.116323 -0.0456162 -5.18952e-20)
(1.01142 0.00043401 -2.58648e-21)
(0.999688 0.00313039 0)
(1.17504 0.125022 6.04366e-22)
(1.13432 0.11938 0)
(0.0172832 -0.0191745 4.59516e-22)
(0.221861 -0.0573517 0)
(1.15314 0.0236862 -5.12897e-20)
(0.993097 0.0134571 0)
(1.25081 0.0164892 0)
(0.342918 0.222095 3.07152e-19)
(1.10749 -0.0848931 3.97946e-20)
(1.269 0.0560025 -4.89569e-20)
(1.14365 0.00835558 0)
(0.51389 -0.0611176 0)
(1.09308 0.136731 6.9958e-21)
(1.08417 -0.0415074 -1.67347e-20)
(1.22198 0.0248479 -4.24629e-20)
(0.855996 0.432432 -1.22136e-20)
(1.15133 0.0257742 3.64469e-20)
(0.304249 0.297663 2.6562e-19)
(1.15165 0.032487 -6.79585e-22)
(1.06308 -0.00812932 0)
(1.13902 -0.0395947 -2.40689e-20)
(1.01042 0.113977 0)
(1.03542 0.00420235 8.0328e-21)
(1.08228 -0.0201526 -2.45808e-20)
(1.12067 0.127322 3.7631e-20)
(1.05616 0.101614 0)
(0.999951 0.013782 1.17364e-21)
(1.00713 0.000551105 -5.43664e-22)
(1.14309 -0.0124456 4.08273e-20)
(1.06776 0.0099998 -1.16262e-22)
(1.17258 0.0110346 -2.43692e-20)
(0.993784 0.0130701 0)
(0.995524 0.0103207 0)
(0.999965 0.000906204 -3.85737e-21)
(1.02797 0.0668205 -2.05284e-22)
(1.02405 0.000686818 5.1715e-21)
(1.05421 0.0866927 0)
(1.00422 0.00291954 0)
(-0.188941 -0.0157477 0)
(1.09747 -0.0531687 -1.31854e-20)
(0.471293 -0.27782 0)
(1.01288 0.00545381 -3.17902e-21)
(1.00008 0.00177337 0)
(0.80289 0.151678 9.10002e-20)
(1.17107 0.0666333 6.54954e-20)
(0.953456 0.00696565 3.20267e-20)
(0.719861 0.0026267 0)
(1.14269 0.207011 3.66212e-20)
(0.897129 0.103577 1.02487e-19)
(1.0838 -0.019141 2.56578e-22)
(1.20017 -0.00266935 -2.56881e-22)
(1.05534 0.0150297 -9.31434e-21)
(0.999902 0.00115804 2.72984e-21)
(1.00593 0.00240433 2.02473e-22)
(1.03993 0.0609809 4.5112e-21)
(-0.322018 -0.00486564 4.09969e-21)
(1.00006 0.00150557 2.12751e-21)
(1.12679 -0.0583247 0)
(1.05567 0.0892084 0)
(-0.20218 0.0159933 7.83958e-20)
(0.969993 0.232809 5.31638e-21)
(1.15025 0.205087 -4.42497e-20)
(1.12636 -0.0698708 3.95005e-20)
(1.02197 0.00635668 0)
(1 4.66518e-05 0)
(1.099 -0.0535507 7.5289e-21)
(0.988256 0.00556999 -7.22726e-21)
(0.986914 0.0462711 2.5374e-22)
(0.857026 0.000515692 0)
(1.0164 0.061239 -7.15605e-22)
(0.998627 0.00133226 1.32585e-20)
(1.09291 0.0566134 1.68204e-20)
(1.00676 0.00823335 2.10319e-23)
(1.01729 0.000890854 0)
(1.06293 0.0964249 4.66619e-21)
(0.884499 -0.0182783 -6.62457e-20)
(-0.00413425 -0.0155449 0)
(1.08832 0.115855 -1.85784e-20)
(1.04201 0.000518387 2.09989e-22)
(1.00963 0.00101067 2.58508e-21)
(0.0496241 -0.0389428 0)
(0.954725 0.370795 0)
(1.00399 0.0449013 -3.78277e-21)
(1.02081 0.0458342 -1.28143e-21)
(0.809642 0.00534125 4.64817e-20)
(1.17964 -0.0747445 6.43544e-20)
(-0.314655 -0.00954234 2.59268e-20)
(0.896488 0.142609 -3.23232e-20)
(1.0641 -0.00728554 0)
(1.01244 0.00328942 1.73549e-21)
(1.01751 0.00104336 0)
(1.10009 -0.041079 2.84755e-20)
(1.09321 0.116972 0)
(1.14103 -0.0773031 -5.30765e-22)
(0.917983 0.024154 -2.33266e-20)
(0.10496 -0.0276104 -6.48057e-21)
(1.03168 0.0450591 -9.84929e-21)
(0.966661 0.0635306 -2.15718e-20)
(-0.32195 -0.00634378 1.525e-19)
(0.995804 0.0118829 -6.39445e-21)
(1.09693 0.015266 2.96428e-20)
(1.00664 0.0335701 1.28897e-21)
(1.00211 0.00134841 -8.05835e-22)
(1.11297 0.132958 -1.32431e-21)
(0.773516 -0.00146691 4.66805e-20)
(1.05315 0.02822 8.70766e-21)
(0.571053 -0.066667 1.17926e-21)
(0.252866 -0.0193064 1.55915e-22)
(1.18815 0.14618 2.16243e-20)
(1.00289 0.0192363 7.98499e-21)
(1.0262 0.0022214 0)
(1.10677 -0.0686811 3.17677e-21)
(1.15857 -0.0549002 0)
(1.00007 0.000449812 0)
(1.24339 -0.0526231 -1.14877e-19)
(1.02568 0.00242364 0)
(1.11706 0.121948 -3.44007e-20)
(1.03586 -0.00285766 -5.18291e-21)
(1.03675 0.00596955 -1.60968e-20)
(1.26043 -0.0276592 1.54262e-19)
(1.04295 0.0159302 1.88071e-20)
(0.974854 -0.0850235 1.64797e-20)
(1.12305 0.0933018 -3.35614e-20)
(0.999958 0.000848953 3.3538e-21)
(1.02106 0.00331137 0)
(0.981282 0.00376887 1.24463e-20)
(1.01081 0.0214675 5.39754e-22)
(1.05617 -0.0084473 0)
(0.268122 0.690199 0)
(1.04081 0.00315858 2.65363e-20)
(1.0329 0.0103557 0)
(0.296259 -0.066254 3.523e-20)
(0.512624 -0.0749106 0)
(1.10031 -0.0293579 0)
(1.12866 0.120622 2.11461e-21)
(1.16199 -0.00010007 -3.58874e-20)
(1.08311 0.0241008 3.24874e-20)
(1.02624 0.0148171 0)
(0.887846 0.0176038 0)
(-0.157774 -0.0192354 -6.37215e-20)
(1.09914 0.272752 0)
(0.998387 0.00614758 0)
(1.03905 0.0384878 4.13059e-21)
(0.250588 -0.0597381 -4.15422e-20)
(1.12306 0.0191596 -3.62306e-20)
(-0.132448 -0.0142928 -3.73349e-20)
(0.999967 0.00109601 -4.14311e-21)
(0.951076 0.00787218 -6.83598e-20)
(0.0383377 -0.0140289 3.40788e-20)
(1.11493 0.0127524 -6.23089e-20)
(1.05537 0.0266487 -4.05385e-21)
(-0.312302 -0.00377989 -8.03558e-21)
(0.212603 0.244107 1.49992e-19)
(1.01106 0.0208864 -6.78107e-23)
(1.21714 0.0261233 0)
(1.00627 0.00252326 0)
(1.04173 0.0159403 -1.5585e-20)
(1.01327 0.00574091 6.20749e-21)
(-0.153188 -0.0212807 1.01295e-19)
(1.02361 0.000561019 -1.04016e-20)
(1.04091 -0.0053826 8.87417e-21)
(1.0268 0.0143217 0)
(0.923778 -0.0837664 9.29523e-21)
(1.06642 -0.0162246 0)
(1.25176 0.166664 0)
(0.701187 -0.0872135 7.80868e-20)
(1.03721 0.00400225 -1.22331e-20)
(0.844922 0.033314 0)
(1.00059 0.0038674 -1.12272e-22)
(-0.167476 -0.0131175 -3.89099e-20)
(1.00598 0.0110624 -8.12355e-22)
(1.04151 0.00255092 -1.53595e-20)
(0.998687 0.00183978 0)
(1.10782 -0.0692389 0)
(0.998507 0.00174307 -2.71988e-21)
(1.20872 -0.0128374 9.67884e-21)
(0.262056 -0.0151306 -9.59033e-21)
(0.639448 -0.0778168 0)
(0.905021 0.0382081 -2.57895e-21)
(1.14842 -0.0830005 -1.34753e-20)
(-0.275585 -0.00747664 -2.51166e-20)
(0.997798 0.0293893 0)
(0.0846663 -0.0125843 0)
(0.342427 0.0363828 -8.47769e-20)
(-0.254957 -0.00736699 0)
(0.287051 -0.0323284 -1.60673e-20)
(0.279152 -0.065016 -3.5112e-20)
(0.08858 0.145246 1.1658e-19)
(1.21096 0.00100387 3.90427e-20)
(1.01298 0.0510975 -6.87611e-22)
(0.453643 -0.0578002 2.69232e-20)
(1.11426 0.0149196 4.69611e-20)
(0.391835 -0.0561769 2.62506e-20)
(1.03106 0.00380619 -2.08101e-21)
(1.02596 0.0241006 0)
(1.00553 0.0458735 7.3085e-21)
(1.00064 0.00418274 0)
(1.08836 0.0191603 -2.67166e-20)
(0.892307 0.0977667 2.35884e-20)
(0.0596391 -0.0215352 1.9504e-20)
(1.02573 0.02307 3.18061e-21)
(0.993947 0.00565259 1.10495e-20)
(-0.231096 0.00936306 -7.6151e-20)
(0.973158 0.464071 -1.61794e-20)
(0.981414 0.00247554 1.08167e-20)
(0.811473 -0.0468878 4.43687e-20)
(1.10084 0.0586934 0)
(1.04851 0.0218213 -1.19057e-20)
(0.491262 0.726549 -1.95493e-20)
(0.805328 -0.0416983 4.84803e-20)
(0.953117 0.0557757 -1.9319e-20)
(1.06687 -0.0154189 0)
(0.23085 -0.0150864 -2.13642e-20)
(-0.30753 -0.00550945 -1.63012e-19)
(0.222582 0.0667828 -1.51553e-20)
(1.03541 -0.00233012 0)
(1.25945 0.152907 0)
(1.21374 0.0860568 -5.1179e-20)
(-0.23043 -0.00110387 5.26025e-20)
(0.329664 -0.0641433 -4.36165e-20)
(1.09674 -0.0632186 -1.86328e-20)
(1.01721 0.0278141 -4.52602e-22)
(1.05646 0.0157902 -7.60361e-23)
(1.03022 0.0454617 6.42502e-21)
(1.01985 -0.000107327 -2.817e-21)
(1.03074 0.0679008 -4.04211e-21)
(1.01772 0.00164349 -2.84501e-21)
(1.05102 0.0976349 -1.4437e-20)
(1.08874 0.136502 0)
(-0.0663387 0.0198623 -4.68031e-20)
(1.16368 -0.0471718 4.19918e-20)
(1.04145 -0.00481148 2.55165e-23)
(1.19647 -0.0037975 -2.8038e-20)
(-0.103451 -0.0265033 0)
(1.10954 0.127513 -2.95476e-20)
(0.973101 0.0271109 4.68107e-22)
(-0.120794 -0.0138103 -2.2768e-20)
(1.03284 0.0203719 -1.26068e-20)
(0.987737 0.044163 -1.08895e-20)
(0.818026 0.0702369 1.09673e-19)
(-0.0304692 0.0259006 0)
(0.99842 0.000362772 -3.10144e-21)
(1.00515 0.0214992 -8.70177e-22)
(0.418886 -0.0626554 0)
(1.13659 -0.0806532 -2.3012e-20)
(1.19434 -0.0778811 -1.48183e-19)
(1.17706 -0.0228699 5.06358e-20)
(1.13948 -0.0854345 -8.07782e-23)
(1.00884 0.0202365 1.69352e-21)
(1.22223 -8.53113e-05 -1.47942e-21)
(0.972223 0.029075 -7.8474e-21)
(1.00403 0.0117071 0)
(0.969913 0.0250831 0)
(0.540046 -0.0677396 -1.16179e-20)
(-0.29333 -0.0101615 -2.74561e-20)
(1.03406 0.00857468 5.41505e-21)
(1.02156 0.0033018 0)
(1.00664 0.0350155 0)