/*--------------------------------*- C++ -*----------------------------------*\
| =========                 |                                                 |
| \\      /  F ield         | OpenFOAM: The Open Source CFD Toolbox           |
|  \\    /   O peration     | Version:  v2012                                 |
|   \\  /    A nd           | Website:  www.openfoam.com                      |
|    \\/     M anipulation  |                                                 |
\*---------------------------------------------------------------------------*/
FoamFile
{
    version     2.0;
    format      ascii;
    class       volVectorField;
    location    "1000";
    object      U_0;
}
// * * * * * * * * * * * * * * * * * * * * * * * * * * * * * * * * * * * * * //

dimensions      [0 1 -1 0 0 0 0];


internalField   nonuniform List<vector> 
13917
(
(1.10341 0.127498 2.70323e-20)
(1.02318 0.0440209 -2.66105e-21)
(0.518195 -0.0718034 -2.80655e-20)
(1.05927 -0.0138897 0)
(0.9963 0.00433576 -3.87074e-22)
(0.35835 0.0600457 3.37727e-19)
(0.453048 -0.0626113 -4.42474e-20)
(0.520408 -0.0703957 -2.72929e-20)
(0.336423 -0.0661577 2.04808e-20)
(1.14846 0.158573 0)
(1.13014 -0.0696672 2.47316e-21)
(1.10126 -0.0525134 -4.61511e-22)
(1.05979 -0.0147438 -1.21824e-20)
(-0.0536811 -0.00930556 -6.61306e-20)
(0.974107 0.0994077 0)
(0.997885 0.0936505 0)
(1.01747 0.0496092 2.85033e-22)
(1.15218 0.0197761 1.25918e-20)
(1.0999 -0.051994 -1.61951e-21)
(1.00161 0.00506489 0)
(0.999983 0.00115692 -7.43789e-21)
(0.432327 -0.0611076 3.37794e-20)
(1.00115 0.00852673 2.85868e-21)
(0.577466 -0.0752023 -5.71191e-23)
(0.995436 0.0168911 0)
(0.466808 -0.0614358 1.383e-20)
(0.783028 0.0402933 -4.73202e-20)
(0.757741 0.128472 -1.09148e-19)
(0.729968 0.580345 0)
(1.20794 0.0974054 0)
(1.11875 0.117123 -3.11266e-20)
(1.06575 0.0936127 1.00385e-20)
(0.837598 0.0749786 2.56662e-20)
(0.910313 0.00560855 -2.05444e-20)
(0.99177 0.0140752 -5.77321e-21)
(1.13502 -0.0861492 -6.0898e-21)
(1.00104 0.00802952 0)
(0.075159 -0.0323012 -4.78477e-20)
(1.06702 -0.0200117 2.61413e-20)
(0.233488 -0.0150905 -1.26136e-21)
(1.00894 0.00084292 0)
(0.999989 0.000494559 5.88894e-21)
(1.02138 0.00228006 -1.73592e-21)
(0.703026 0.211527 0)
(1.04193 0.0252732 9.14724e-21)
(0.891848 0.0198049 -4.99721e-20)
(1.14949 0.0178154 0)
(1.15384 -0.0160382 -3.01822e-20)
(0.1045 0.14233 -4.64258e-19)
(1.00365 0.000835225 0)
(1.09253 0.013925 0)
(0.965528 0.0128082 -1.48288e-20)
(0.0758218 0.121471 3.83609e-19)
(0.905685 0.00695943 -2.36061e-20)
(1.01628 0.0506679 -1.80581e-22)
(1.09226 0.0396652 0)
(1.13078 -0.0688199 -7.99909e-21)
(0.996608 0.0319508 0)
(1.07719 0.0464905 3.20345e-20)
(1.04038 0.0248455 0)
(0.462018 0.0425183 1.38318e-19)
(1.02477 0.0440766 0)
(-0.0573898 -0.00397159 4.86573e-20)
(1.00173 0.0054969 1.40821e-21)
(0.385685 0.0724883 -1.81086e-19)
(0.967624 0.329621 1.41793e-19)
(0.995419 0.000604085 -1.38599e-20)
(0.987991 0.000678975 -1.29256e-20)
(1.16985 -0.0548036 0)
(1.06888 0.142233 2.41642e-22)
(0.996699 0.00443043 5.7735e-21)
(0.391725 -0.0731264 -1.142e-19)
(-0.125402 -0.023725 5.87607e-20)
(0.996008 0.0164572 3.3455e-21)
(0.105614 0.215497 0)
(1.09227 -0.0605053 -3.35701e-20)
(-0.129733 -0.0169926 -6.10758e-20)
(1.05831 0.027542 -8.08151e-21)
(0.480773 -0.058521 2.07267e-20)
(0.999919 0.00230749 -6.64727e-21)
(1.00012 0.00339705 -2.56139e-21)
(0.995975 0.000610924 -2.09567e-20)
(0.404118 0.136205 -1.36943e-19)
(0.100851 -0.0363715 2.70838e-20)
(-0.107147 0.00933441 -7.78829e-20)
(1.05712 0.0262843 4.63713e-22)
(1.00042 0.0043409 -4.35704e-21)
(1.12922 0.41269 -1.59719e-19)
(1.09049 0.0138415 0)
(1.02184 0.00225983 0)
(-0.0513378 -0.0304673 -2.35994e-20)
(1.18694 0.138504 0)
(1.02506 0.0246142 -5.07325e-21)
(0.975208 0.0572242 -9.65176e-21)
(1.08115 0.405301 1.50427e-19)
(0.386105 -0.000711082 -2.57231e-19)
(1.14474 -0.0545413 -9.94141e-21)
(1.15392 -0.00553817 9.33328e-22)
(1.09956 -0.0722798 2.65867e-20)
(0.608092 0.136371 -9.1392e-20)
(1.0119 0.00606838 -2.0153e-21)
(0.84456 0.00626638 -4.63239e-20)
(0.692729 0.196144 -5.05742e-20)
(1.06618 0.0201127 0)
(1.01755 0.0128224 0)
(0.400287 -0.0674161 -6.88259e-20)
(0.811633 0.51955 -1.64517e-20)
(1.1565 -0.0171783 2.5775e-23)
(1.01943 0.0501131 2.61109e-22)
(1.11875 0.132637 -2.37029e-21)
(-0.191211 -0.0148708 0)
(0.241232 -0.0158944 0)
(1.1032 -0.0601305 0)
(0.365409 -0.067146 -1.1367e-21)
(0.948211 0.0121491 0)
(0.0827507 -0.10965 8.50874e-20)
(1.00133 0.0151975 -9.53642e-21)
(0.200726 0.101077 0)
(0.115726 -0.016676 5.21307e-20)
(0.907286 0.019546 3.56818e-20)
(0.999987 0.00096017 -6.98367e-22)
(1.17024 -0.0531196 -3.59943e-21)
(0.0846787 -0.0181272 2.34959e-20)
(0.76657 0.121676 2.73392e-20)
(1.00543 0.000733261 0)
(0.976598 0.0545231 0)
(1.03717 0.0292163 -3.74283e-21)
(1.00503 0.00059469 -6.50802e-23)
(1.01856 0.00170012 0)
(0.361717 0.0134027 3.35224e-19)
(0.181485 -0.0316579 1.22258e-20)
(0.950652 0.0111613 1.48161e-20)
(1.04236 0.026339 -7.99258e-21)
(0.999982 0.000921959 7.23329e-21)
(1.22586 -0.0061789 5.32847e-20)
(0.593658 -0.0787026 0)
(1.10067 0.132273 8.58806e-22)
(0.584207 0.137333 0)
(0.995112 0.00106003 1.5576e-20)
(0.908139 0.0152597 -5.45993e-20)
(1.13806 -0.0832957 0)
(1.02629 0.0135294 1.56941e-20)
(0.962678 0.0251677 3.95186e-20)
(0.654678 0.208136 0)
(0.987368 0.00102769 1.80482e-20)
(0.599901 -0.0768796 2.89214e-20)
(0.800859 0.587174 2.40624e-21)
(0.967478 0.0132088 5.48771e-22)
(1.02476 0.01135 2.64968e-21)
(1.06051 0.103245 1.68301e-20)
(1.12779 -0.0269206 0)
(0.0928864 -0.143408 -2.84016e-19)
(1.12377 -0.052659 -2.41806e-20)
(1.03021 0.187288 9.03046e-21)
(1.08316 0.0662745 2.18624e-20)
(-0.0676989 0.0410155 4.52151e-20)
(1.06389 0.139384 1.54207e-21)
(1.09267 -0.0868321 3.34865e-20)
(-0.15167 -0.014612 8.09429e-20)
(1.2232 -0.00550145 7.07806e-20)
(0.940615 0.0483788 1.17433e-20)
(0.783253 -0.0202721 -8.78103e-20)
(1.00005 0.00237374 -2.61775e-21)
(1.14264 -0.053813 -1.8131e-20)
(1.10395 -0.0592555 -8.69516e-21)
(1.10059 -0.0716425 -2.7968e-20)
(1.06523 0.0210828 0)
(1.13979 -0.0186894 4.52438e-20)
(1.03464 0.0217255 -5.3824e-21)
(0.837569 0.001995 3.01159e-20)
(1.05034 0.180049 -1.29168e-20)
(-0.306687 -0.00427351 0)
(1.10069 -0.0633296 1.68545e-22)
(1.01529 0.0592466 6.97852e-22)
(0.753129 -0.0832959 0)
(1.01925 0.208547 -1.0375e-20)
(0.202784 -0.0356587 1.54324e-20)
(0.163274 0.102926 2.69173e-19)
(0.658187 -0.0797403 0)
(1.01408 0.0283685 0)
(1.19277 0.133267 0)
(1.12442 0.115668 0)
(1.02681 0.0130291 -3.16118e-21)
(1.00043 0.00473843 6.55813e-21)
(0.937927 0.119454 0)
(0.519585 -0.065253 1.33365e-20)
(1.27466 0.147431 -5.00087e-20)
(-0.019033 0.0416355 -8.43258e-20)
(1.12543 0.0430936 2.30853e-21)
(1.10909 -0.0686475 0)
(1.16034 -0.0829351 0)
(-0.0604521 0.0133368 7.89858e-20)
(1.26338 0.188215 -6.11718e-20)
(0.999902 0.00849196 6.26525e-21)
(0.563176 0.0704617 1.61996e-19)
(0.793695 0.0420268 3.41071e-20)
(1.00778 0.00031665 -2.59156e-21)
(1.02532 0.0256811 0)
(0.873839 0.453794 0)
(1.19803 0.482607 1.15987e-19)
(1.08246 -0.00502434 -1.5965e-20)
(1.00333 0.000745977 7.21375e-22)
(1.13289 -0.0192847 -1.33049e-22)
(1.12573 -0.0270478 0)
(-0.151337 -0.0202299 -3.1697e-20)
(1.24544 -0.0447364 0)
(0.992065 0.0132009 6.69079e-21)
(0.995913 0.0330784 3.36412e-22)
(1.15125 -0.00745883 5.59108e-20)
(0.536963 -0.0703041 -3.78683e-20)
(0.96495 0.0254872 -4.54699e-20)
(0.437346 -0.0636157 0)
(-0.196377 -0.0146303 -1.70485e-20)
(1.11013 -0.0680934 0)
(1.01716 0.0131132 2.67988e-21)
(0.491955 0.415707 1.41732e-19)
(1.14313 -0.00627439 0)
(-0.278927 -0.01187 -1.62492e-19)
(1.00372 0.0196801 0)
(0.60913 0.063764 -5.26039e-20)
(1.01364 0.027342 0)
(1.20045 0.0725336 5.51821e-20)
(1.00875 0.0010463 -8.19803e-22)
(0.0562548 -0.0361013 -1.75588e-20)
(0.379389 -0.0655564 -7.75849e-20)
(0.998947 0.0972477 0)
(1.19646 0.493626 -6.64765e-20)
(1.0864 0.0651794 0)
(1.0164 0.0126498 2.03046e-21)
(1.14061 -0.0855345 0)
(1.09927 -0.0627172 -1.99563e-20)
(1.12407 0.0404264 3.37793e-20)
(0.602577 -0.0763819 3.02366e-20)
(-0.216122 -0.0122131 5.70058e-21)
(1.01283 0.00316177 0)
(1.0692 0.0948166 0)
(-0.0236208 -0.0342094 0)
(-0.146654 0.0114978 0)
(1.00002 0.00265958 -3.42977e-21)
(1.00665 0.00964504 1.88992e-22)
(0.284977 -0.0156002 -4.44525e-21)
(1.1501 -0.0560393 -7.05905e-20)
(1.00004 0.000137797 0)
(1.12035 -0.0822637 -4.90421e-21)
(1.18906 0.0101412 0)
(0.793112 -0.025294 1.18939e-19)
(1.10113 0.112205 1.48209e-21)
(1.00007 0.00257091 -6.20962e-22)
(0.981903 0.212955 -8.8588e-21)
(-0.18663 -0.013163 -7.00049e-20)
(1.04346 0.0021545 3.95059e-21)
(1.20902 0.150841 -8.02685e-20)
(0.569558 0.181946 6.97438e-20)
(1.03683 0.0278647 -6.85777e-21)
(0.995959 0.0302769 -1.06459e-20)
(1.11797 -0.0462406 5.12284e-20)
(0.300409 -0.0225621 1.68826e-20)
(1.12257 -0.0514087 -5.21044e-20)
(0.938847 0.124242 -1.93487e-20)
(0.977567 0.102084 0)
(1.00004 0.000242076 0)
(0.0639497 -0.0143953 8.9301e-21)
(0.570869 -0.0427973 -8.68314e-20)
(1.1233 -0.0863544 3.96016e-20)
(1.01594 0.0129224 -4.85551e-21)
(-0.177439 -0.0183371 -7.42779e-22)
(-0.0407957 -0.0134976 -8.96819e-23)
(1.03206 -0.0886254 -3.62535e-20)
(0.462324 -0.0566548 -2.39278e-20)
(1.09263 -0.0618195 2.33283e-20)
(1.00007 0.00317632 6.35448e-22)
(1.00663 0.000882975 3.5584e-22)
(1.14856 0.0124338 -2.54614e-20)
(-0.0159982 -0.027321 4.41167e-20)
(1.17799 -0.02951 -1.12616e-20)
(1.07554 0.0442729 -1.53139e-20)
(1.218 -0.0458029 0)
(1.08465 -0.0430015 2.14107e-20)
(1.01843 0.00111894 0)
(0.843221 0.0186685 0)
(1.00204 0.00497374 1.35486e-22)
(0.713904 -0.0823596 -5.1561e-20)
(1.08048 -0.00460413 -4.49371e-21)
(1.00007 0.000139755 -4.55119e-22)
(1.003 0.114766 -3.3888e-21)
(1.02439 0.189228 0)
(0.783481 -0.00789027 0)
(1.12701 -0.0836437 -2.86899e-21)
(1.00079 0.151414 0)
(1.04663 0.00922202 -7.31515e-21)
(1.28258 0.0185857 1.22784e-19)
(0.612329 -0.0762692 1.78408e-20)
(0.472627 -0.0451561 6.73801e-21)
(1.0034 0.0191531 2.47637e-22)
(0.999167 -0.0872935 -5.62517e-20)
(0.998396 0.000878347 2.84145e-21)
(1.04666 0.00820088 3.92224e-20)
(1.00142 0.0144922 3.55793e-21)
(0.81278 0.627023 -3.17333e-21)
(1.00166 0.00088347 0)
(1.20561 0.0725007 0)
(1.09638 0.111958 -2.39134e-21)
(1.03416 0.0207032 -4.66061e-21)
(1.13273 -0.0217044 6.4635e-22)
(1.04175 0.0598445 -1.06602e-20)
(0.11376 0.0646364 0)
(1.01844 0.20329 9.79113e-21)
(1.18101 0.135642 7.23826e-20)
(1.03235 0.0142977 -2.38156e-21)
(0.996611 0.0292339 1.03386e-20)
(-0.209413 -0.012534 7.77938e-20)
(0.0565496 -0.0166457 0)
(1.00162 0.0158154 0)
(1.00754 0.000929239 0)
(0.896262 0.0270127 2.2716e-20)
(1.01745 0.0267812 0)
(-0.103794 -0.0264546 -5.45261e-20)
(1.03135 0.0142119 -9.58542e-22)
(0.0717074 -0.0375341 0)
(1.0501 -0.00707989 -1.28131e-20)
(1.21526 0.337749 1.13789e-21)
(1.11005 0.00169285 -8.80291e-20)
(0.110874 0.28749 -1.74721e-19)
(0.944465 0.0480291 -1.01199e-20)
(1.29629 0.00459953 -7.34769e-20)
(0.509211 0.309232 7.45757e-20)
(1.00612 0.112448 -5.66513e-21)
(1.152 -0.0546719 -2.74803e-20)
(0.954563 0.533676 1.58828e-20)
(0.997471 0.0467724 -5.82699e-21)
(0.128332 -0.0314632 0)
(0.571267 0.0493933 -4.1765e-22)
(-0.033409 -0.0163482 0)
(0.921964 0.0241039 2.98067e-20)
(0.159792 -0.0139573 0)
(1.07573 0.0928951 0)
(-0.0958098 -0.00372508 0)
(0.527317 0.288236 1.96063e-20)
(0.92226 0.362333 1.44666e-20)
(0.938706 0.357242 -6.7308e-21)
(0.465794 -0.0690754 3.41532e-20)
(0.999751 0.00289836 1.07418e-21)
(1.0568 0.183426 -1.72151e-20)
(-0.158969 -0.0154302 1.27845e-19)
(0.983534 0.0325073 6.4293e-21)
(1.00462 0.0759024 6.28702e-21)
(-0.0193844 -0.0138254 3.98192e-20)
(0.860432 0.488682 -1.08373e-20)
(1.02024 0.0558748 -8.77576e-22)
(1.14671 -0.0808183 -8.32622e-20)
(0.699894 0.552314 0)
(1.00982 0.00529504 1.36819e-21)
(0.0970329 -0.0135309 -5.29528e-20)
(1.14882 -0.0840256 1.13028e-20)
(1.00219 0.00537279 0)
(1.0103 0.0137222 0)
(0.998576 0.000672947 3.10655e-22)
(1.02516 0.0109282 0)
(1.26839 0.0156251 -1.25099e-19)
(0.698329 -0.0817202 2.7217e-20)
(0.386527 -0.271933 1.70995e-20)
(-0.177532 -0.0135759 -6.6791e-20)
(0.998463 0.0161835 3.01774e-21)
(1.21619 0.150426 9.59142e-20)
(-0.204546 0.013484 -1.65276e-21)
(1.12229 -0.00996167 -5.30539e-20)
(0.41834 -0.0616866 8.33384e-21)
(0.0116567 -0.0321573 -7.29095e-20)
(0.345565 -0.0650613 6.78512e-20)
(1.01419 0.00577649 0)
(1.11597 -0.0843219 -1.79947e-20)
(1.01154 0.0132306 -3.99336e-22)
(0.729438 0.0776444 5.56488e-20)
(1.03944 0.0255998 -1.74902e-20)
(0.0853663 0.335418 0)
(1.19216 0.0124739 4.41213e-20)
(1.06984 -0.0112423 0)
(0.999609 0.00349181 -2.43994e-21)
(1.14847 -0.00609473 0)
(1.199 0.134727 3.1377e-20)
(1.16959 0.00553428 0)
(0.32454 1.09999 0)
(-0.13633 -0.00504477 0)
(-0.304447 -0.0095132 2.61814e-19)
(0.987052 0.221192 8.38939e-21)
(1.14187 0.155381 0)
(1.0063 0.0091845 -2.22407e-23)
(-0.122638 0.0124273 -5.66345e-20)
(0.423173 -0.059422 1.58832e-20)
(1.00086 0.035913 3.95053e-21)
(1.314 0.011496 0)
(0.996026 0.0124604 0)
(1.22475 -0.0244617 0)
(1.05021 -0.00641432 -6.84778e-21)
(0.999813 0.00246287 -8.77362e-21)
(1.03695 0.0632066 -5.99538e-21)
(0.518662 -0.057214 0)
(1.0351 0.0635345 -4.33035e-21)
(0.321017 -0.0269205 0)
(-0.0722632 0.0387482 2.91863e-20)
(1.12187 -0.0685556 6.41178e-20)
(0.44127 0.289135 -3.10161e-19)
(0.999244 0.0463433 -5.06067e-21)
(0.493903 0.373034 -2.37876e-19)
(0.467207 0.314062 1.22184e-19)
(1.00246 0.0109527 0)
(0.824741 0.48899 9.87714e-21)
(0.984931 0.0322093 -1.032e-20)
(0.994865 0.014554 -5.47055e-21)
(1.20611 0.102222 -6.34434e-20)
(1.00007 0.000362079 -1.54591e-21)
(0.994275 0.016402 -3.68706e-21)
(1.01177 0.0130061 0)
(1.25336 0.0189055 -2.78659e-20)
(0.999961 0.00184688 6.84578e-21)
(0.169276 -0.0158565 1.08349e-20)
(0.612025 -0.0673795 0)
(-0.136279 0.0136933 1.94317e-19)
(1.25837 0.19448 -6.09032e-20)
(0.300246 -0.0333269 0)
(-0.262838 -0.0136893 0)
(1.12002 -0.0104112 7.08075e-20)
(0.998795 0.015487 2.82547e-21)
(1.22488 0.0105969 0)
(1.06669 -0.0186575 -2.93714e-20)
(1.07424 0.100618 4.85985e-20)
(0.999932 0.00909855 0)
(0.627732 -0.0809572 -2.64469e-20)
(0.48182 -0.0665473 2.81282e-20)
(0.667382 -0.0710686 0)
(0.986291 0.092343 -1.02231e-20)
(1.19317 -0.00056784 0)
(0.925292 0.0210912 -3.45607e-20)
(1.06851 -0.0205673 0)
(1.16731 0.00383772 0)
(1.02228 0.0651699 -2.37777e-21)
(1.11557 -0.0849292 0)
(1.02052 0.0488135 -2.66475e-21)
(1.00165 0.0010419 0)
(-0.0743671 -0.0302862 0)
(0.198498 -0.0339943 -5.50963e-21)
(0.218347 -0.0368602 0)
(1.18787 0.221507 6.4729e-20)
(-0.144297 0.0090942 -2.21315e-19)
(0.155623 -0.0357984 -3.08206e-22)
(-0.118799 -0.0252611 1.32583e-19)
(-0.0932196 -0.0175231 4.63972e-20)
(1.01779 0.00188172 -1.32205e-21)
(1.15044 0.00255811 5.71351e-20)
(1.02438 0.0649761 3.02823e-21)
(0.993565 0.0337968 0)
(1.26713 -0.036339 0)
(1.15078 0.0142346 3.6538e-21)
(1.01904 -0.000155487 1.39056e-21)
(1.16981 0.0506873 -3.87524e-21)
(1.12073 -0.0045647 1.81052e-21)
(-0.0850653 -0.0147 4.88544e-20)
(1.00266 0.0113735 -2.74567e-21)
(1.15959 -0.0427129 6.12089e-20)
(-0.0223358 0.00550928 5.37731e-20)
(1.2348 0.352961 0)
(0.172561 -0.0193025 0)
(0.999958 0.00162326 0)
(0.999699 0.0364208 5.20043e-21)
(1.01193 0.000449323 8.13225e-22)
(1.05854 0.14335 8.70369e-22)
(1.01411 0.0053527 3.78234e-21)
(0.58084 -0.0698092 1.28101e-20)
(0.397908 -0.232338 3.17607e-20)
(1.00374 0.145856 0)
(-0.0842342 0.0195552 3.25755e-23)
(1.09164 0.0370951 3.08814e-21)
(1.14101 -0.0556646 -4.07401e-20)
(-0.0822703 -0.0273391 -6.38864e-20)
(0.822319 0.588314 6.35887e-22)
(1.12049 -0.0682243 -4.06244e-20)
(1.14489 -0.0843749 0)
(1.15883 -0.0444315 -1.03889e-19)
(1.16746 0.0688304 -1.411e-20)
(1.21363 -0.00777293 6.83638e-20)
(1.10313 -0.0316479 0)
(1.11571 -0.0735806 -3.29802e-20)
(0.3748 0.115535 2.06666e-20)
(1.0984 -0.0409953 -5.18799e-20)
(1.15523 -0.0263469 -4.18797e-20)
(1.01541 0.000719734 -6.33793e-21)
(1.26328 -0.0161102 3.42588e-20)
(1.09582 0.0170252 -1.2856e-20)
(1.03159 0.00282016 -1.65539e-20)
(1.05399 0.139643 0)
(1.06088 0.0256482 9.68444e-21)
(-0.0819315 -0.0179461 0)
(0.388109 -0.0707936 0)
(1.01666 0.0257344 -8.19703e-22)
(1.01831 0.000903895 -5.17765e-21)
(0.6028 -0.0730969 0)
(-0.284092 -0.0108881 0)
(1.00006 0.000274442 -1.42135e-21)
(0.14987 -0.0149114 5.21962e-20)
(1.06119 0.0033709 0)
(1.24716 0.173333 2.26222e-20)
(1.01608 0.0277783 -8.87562e-22)
(-0.181652 -0.0167094 4.08466e-20)
(1.16292 -0.0773411 0)
(1.06359 0.100811 -1.27782e-20)
(1.04048 0.039373 -1.10959e-20)
(0.325944 -0.0376386 1.33743e-20)
(1.26329 0.14535 5.29699e-20)
(-0.260259 0.00331779 0)
(1.00005 0.000327693 1.54998e-21)
(-0.185772 -0.0153131 1.60273e-20)
(0.135667 0.0641921 0)
(0.869544 0.0288238 0)
(1.03177 0.00336059 4.70467e-21)
(-0.137277 0.00942515 2.16608e-20)
(0.244074 -0.0448051 0)
(1.11959 -0.0143011 1.15403e-20)
(1.01088 0.0137652 0)
(1.01122 0.0501243 -2.49642e-21)
(1.08945 -0.0610732 0)
(1.24272 -0.0270842 7.33277e-20)
(1.01944 -0.000174914 0)
(1.00978 0.0129881 4.15376e-22)
(1.00533 0.00258219 -1.77633e-22)
(1.00567 0.00269869 1.79133e-22)
(-0.201226 -0.0166538 -1.92679e-20)
(1.26829 -0.0317496 0)
(1.11906 -0.0128607 0)
(1.27447 0.133674 1.0366e-19)
(1.00666 0.000690016 0)
(1.01142 0.00576252 3.60543e-21)
(1.18953 -0.00227715 -3.75165e-20)
(0.119188 -0.0447714 0)
(1.11461 0.0541995 -3.38566e-21)
(1.03588 0.0219632 6.17119e-21)
(0.995238 0.015016 0)
(0.99234 0.00155737 6.12614e-21)
(0.811141 0.0200507 0)
(-0.0194563 0.0152332 -4.12795e-20)
(1.00057 0.0040841 2.0486e-21)
(0.992632 0.00456113 5.88667e-21)
(1.11331 -0.0843088 0)
(1.10369 -0.0299779 -2.43926e-20)
(1.10906 0.000223262 1.26078e-20)
(0.998626 0.0348721 7.1739e-21)
(1.03229 0.066583 -8.1354e-21)
(1.04856 0.0992901 0)
(1.15272 -0.0271933 3.8106e-20)
(0.95034 0.507008 -1.87802e-20)
(1.27808 0.142394 0)
(1.22591 0.00627707 0)
(1.17596 -0.017392 0)
(1.23054 -0.0491173 7.06485e-20)
(1.18083 0.128426 -5.17514e-21)
(1.00253 0.0186163 -2.14552e-21)
(-0.173546 -0.0154769 6.02155e-20)
(0.992668 0.000994366 -6.07156e-21)
(1.00531 0.0789024 -6.91188e-21)
(1.07205 -0.00301275 -2.83365e-20)
(1.27014 -0.0176799 1.0447e-19)
(0.995332 0.299409 6.74476e-21)
(1.01052 0.0012971 1.3606e-21)
(1.23704 0.341705 0)
(1.21726 0.0902735 0)
(-0.104209 -0.021791 1.86926e-19)
(1.17752 -0.0151582 -5.07425e-20)
(0.888583 0.142151 -2.02142e-20)
(1.12336 -0.00539682 -1.90132e-21)
(0.999478 0.00382077 0)
(0.405324 -0.0464321 0)
(1.2268 0.331308 -1.25704e-19)
(0.310357 -0.0561244 0)
(1.01977 0.0465465 1.06503e-21)
(1.10383 0.0430282 2.73591e-22)
(1.27729 0.129089 -1.30609e-19)
(0.0195652 -0.0342646 1.9326e-20)
(-0.211164 -0.00252368 -8.54971e-20)
(1.15682 -0.00711716 3.19035e-20)
(1.19679 0.223536 -9.60965e-21)
(0.993864 0.0926979 0)
(1.06135 0.058839 1.76705e-21)
(0.997517 0.0354355 2.90214e-21)
(0.890586 0.239488 3.18457e-21)
(0.670546 0.189904 0)
(0.973301 -0.000743885 2.03531e-20)
(1.14052 -0.00780426 0)
(0.568414 0.156516 -1.72217e-19)
(0.323603 -0.0577763 2.22003e-20)
(-0.253616 0.0048833 0)
(1.03565 0.0770769 5.45412e-21)
(1.13911 -0.0552077 3.62424e-20)
(1.18878 -0.0778562 0)
(1.00773 0.123165 1.80524e-21)
(0.968613 0.0273868 -9.06765e-21)
(0.173185 0.546683 0)
(0.575924 -0.0662682 0)
(0.545672 -0.0782419 7.07807e-20)
(1.27065 0.116426 -2.60044e-20)
(1.01847 0.00194047 -7.08099e-22)
(0.102886 -0.0153687 0)
(1.09074 -0.0600853 2.46371e-20)
(1.01044 0.000966317 2.78818e-21)
(1.10114 0.0772896 0)
(1.13745 -0.0381452 2.0727e-20)
(0.847018 0.0765919 -1.18901e-20)
(1.20455 0.0922611 2.51556e-20)
(0.468746 -0.0596249 -1.22631e-20)
(1.20997 -0.00847632 -6.48536e-20)
(1.09883 -0.0278797 6.21226e-20)
(0.40637 -0.0460101 0)
(1.06333 0.0321914 3.05299e-20)
(-0.113766 -0.0154914 6.63792e-21)
(1.00001 0.00237676 6.18157e-21)
(1.00057 0.0044106 -5.83327e-21)
(0.972896 -0.0885061 -1.0633e-20)
(0.546204 -0.0673044 -7.42473e-20)
(0.375631 0.247025 1.41378e-19)
(1.06389 0.0306581 0)
(1.01658 0.0572161 2.53868e-22)
(0.993075 0.00495968 1.12564e-20)
(1.08606 -0.0432535 1.71982e-22)
(0.0786268 0.181063 1.70694e-19)
(1.10036 -0.0704403 2.5685e-20)
(1.06379 0.059254 1.38837e-20)
(1.12064 -0.0664561 3.67067e-21)
(1.14589 -0.00778285 0)
(1.01598 0.028561 0)
(1.17389 0.50191 0)
(1.09889 -0.0699912 0)
(1.10906 -0.0860276 -1.6483e-20)
(1.0056 0.0211013 0)
(1.20511 -0.0134108 -1.85712e-20)
(1.05999 0.0273446 0)
(-0.0310074 0.0501882 1.26305e-19)
(1.15458 0.155265 0)
(1.00631 0.292371 -6.1301e-21)
(1.10506 0.0450742 2.88657e-21)
(1.00825 0.0030122 1.46628e-21)
(1.02954 0.00585577 -3.86965e-21)
(1.03852 0.0297794 -4.21596e-21)
(0.969523 0.363252 -2.79813e-21)
(0.890368 0.0249219 5.72796e-20)
(1.26682 0.0516583 -1.6588e-19)
(0.460066 0.815787 -1.22014e-20)
(1.14 -0.0161096 -5.28695e-20)
(1.00933 0.00524748 -4.59806e-22)
(1.21477 -0.000382787 -4.53384e-22)
(0.372669 0.277623 -1.18759e-19)
(1.1301 -0.0867374 -4.88299e-20)
(1.04269 0.0027594 3.9984e-21)
(0.900086 0.0378175 1.29118e-20)
(1.00922 0.0129067 -1.41636e-22)
(1.08233 -0.0212518 2.30307e-20)
(1.07975 0.0460619 -4.19843e-20)
(0.223936 -0.0448256 -5.18215e-20)
(0.999886 0.00251785 2.17832e-22)
(1.23865 0.519387 9.92021e-20)
(1.08381 -0.0180242 3.13993e-24)
(1.12831 -0.0704965 0)
(1.18343 0.151133 2.12558e-20)
(-0.138364 -0.0214694 -3.24629e-20)
(1.02953 0.29052 -2.57189e-22)
(1.01075 0.0483791 9.20798e-22)
(-0.0484012 -0.0249848 -5.83278e-20)
(-0.290975 -0.00822267 0)
(1.00798 0.0372673 0)
(1.07086 -0.00385852 1.36152e-20)
(1.17081 -0.0740815 0)
(1.26095 0.118115 -4.48371e-20)
(1.17486 -0.0299422 2.32527e-20)
(1.00017 0.00039663 -1.50152e-21)
(1.04183 0.0392746 0)
(1.20276 0.328416 0)
(1.07045 -0.0123008 1.14677e-20)
(1.16936 0.00941428 0)
(1.11701 -0.0443445 -8.8655e-21)
(1.03024 0.0056781 0)
(1.12328 -0.029988 1.81157e-20)
(0.526855 -0.0723833 1.60913e-20)
(1.04206 0.00108167 1.62541e-20)
(1.05662 -0.00956717 -2.47583e-20)
(1.00475 0.00275008 -6.76526e-24)
(0.0539579 -0.0146436 0)
(0.999958 0.00113049 -8.61054e-22)
(0.986567 0.0883484 9.11237e-21)
(-0.30136 -0.0063615 -5.07855e-20)
(0.995675 0.0724465 -3.67398e-22)
(0.606965 -0.0660895 2.61587e-20)
(1.08199 0.0691783 -2.49219e-20)
(0.8318 0.080818 0)
(1.00511 0.00287708 0)
(1.02663 0.223462 1.06516e-20)
(1.00111 0.0137747 -7.37462e-24)
(1.16513 0.0774017 4.40655e-20)
(1.0079 0.00181183 0)
(1.0892 0.271214 5.82654e-20)
(1.06091 0.00422487 -1.07588e-20)
(0.193054 0.117568 -9.58491e-20)
(0.429464 0.689317 4.59362e-20)
(0.116388 -0.0456312 0)
(1.01142 0.000433987 2.58274e-21)
(0.999688 0.00313032 0)
(1.17505 0.125006 4.37345e-20)
(1.13433 0.119369 -2.17946e-20)
(0.01719 -0.01918 4.11397e-20)
(0.221919 -0.0573412 -4.46514e-22)
(1.15314 0.0236772 1.31095e-20)
(0.993098 0.0134573 -6.53667e-22)
(1.25077 0.0164592 2.65502e-20)
(0.342917 0.2221 -3.93027e-20)
(1.10736 -0.0849704 5.00822e-21)
(1.26899 0.0559577 1.00264e-19)
(1.14365 0.00834793 4.74616e-20)
(0.513999 -0.0612024 1.19348e-20)
(1.09309 0.136723 -3.4173e-20)
(1.08415 -0.0415177 1.51389e-20)
(1.22196 0.0248288 0)
(0.856002 0.432441 0)
(1.15133 0.0257649 1.21741e-20)
(0.304249 0.297668 2.12109e-19)
(1.15165 0.032477 -6.7951e-22)
(1.06308 -0.00813426 0)
(1.13903 -0.0396062 3.96936e-20)
(1.01042 0.113975 7.87808e-22)
(1.03542 0.0042008 1.61364e-20)
(1.08227 -0.0201609 -3.0794e-20)
(1.12068 0.127312 0)
(1.05616 0.101609 -1.48743e-20)
(0.999952 0.0137824 -7.89673e-21)
(1.00713 0.000551082 0)
(1.14309 -0.0124525 4.65924e-20)
(1.06776 0.00999496 6.96648e-21)
(1.17257 0.0110277 0)
(0.993784 0.0130705 0)
(0.995524 0.0103219 5.92196e-21)
(0.999965 0.000905857 0)
(1.02797 0.0668179 2.05134e-22)
(1.02405 0.000686245 5.2557e-21)
(1.05421 0.0866876 -1.87694e-20)
(1.00422 0.0029195 2.45606e-22)
(-0.188875 -0.0157556 -4.05908e-20)
(1.09746 -0.0531877 -1.3674e-20)
(0.471292 -0.277813 1.39407e-20)
(1.01288 0.00545367 0)
(1.00008 0.00177306 1.46605e-22)
(0.802892 0.151682 4.71682e-20)
(1.17107 0.0666182 1.63095e-20)
(0.953456 0.00696757 -3.2027e-20)
(0.719958 0.0025715 9.72318e-20)
(1.1427 0.207004 9.21544e-22)
(0.897169 0.103561 -1.03865e-19)
(1.08379 -0.0191495 8.03944e-21)
(1.20016 -0.00267256 3.05512e-20)
(1.05533 0.0150258 -9.31109e-21)
(0.999902 0.00115771 -7.84668e-21)
(1.00593 0.0024042 2.67759e-22)
(1.03993 0.0609772 9.92299e-21)
(-0.322082 -0.0048755 -2.50129e-19)
(1.00006 0.00150527 -1.36249e-22)
(1.12683 -0.0582909 6.30809e-20)
(1.05568 0.0892033 1.35721e-20)
(-0.2022 0.0159859 -1.56595e-19)
(0.97 0.232812 5.31752e-21)
(1.15026 0.20508 0)
(1.12638 -0.0699223 4.90665e-21)
(1.02196 0.00635546 2.286e-21)
(1 4.66398e-05 0)
(1.09898 -0.0535711 2.97048e-20)
(0.988256 0.00557028 7.22731e-21)
(0.986915 0.0462721 1.10084e-20)
(0.857135 0.000458244 -4.3261e-20)
(1.0164 0.0612378 6.28782e-23)
(0.998627 0.00133295 1.08946e-23)
(1.09291 0.0566056 3.43319e-20)
(1.00676 0.00823289 2.15572e-23)
(1.01729 0.000890668 0)
(1.06293 0.0964192 -1.41916e-20)
(0.884499 -0.0182756 0)
(-0.00423222 -0.0155514 -4.90759e-20)
(1.08833 0.115848 -2.09112e-20)
(1.04201 0.000516226 -9.71457e-21)
(1.00963 0.00101064 8.39667e-22)
(0.0496202 -0.0389197 -1.8017e-20)
(0.954733 0.370803 0)
(1.00399 0.0449016 -2.16072e-21)
(1.02081 0.045833 1.27886e-21)
(0.809747 0.005287 -8.78757e-20)
(1.17965 -0.07468 -3.06931e-20)
(-0.314662 -0.00955852 1.29752e-19)
(0.896492 0.142612 -1.51955e-20)
(1.0641 -0.00729051 -5.60835e-21)
(1.01244 0.0032893 0)
(1.01751 0.00104315 2.99342e-21)
(1.10008 -0.0410947 2.84684e-20)
(1.09321 0.116964 1.34479e-21)
(1.1411 -0.077324 4.64362e-20)
(0.917983 0.0241568 -4.55461e-20)
(0.104868 -0.0276205 0)
(1.03169 0.0450564 -3.08852e-21)
(0.966663 0.0635321 7.39443e-21)
(-0.321967 -0.00635745 1.34596e-19)
(0.995804 0.0118838 0)
(1.09693 0.0152588 -7.381e-21)
(1.00664 0.0335702 -3.62306e-21)
(1.00211 0.00134855 -5.86798e-22)
(1.11298 0.132949 3.40665e-20)
(0.773516 -0.00146396 0)
(1.05315 0.0282154 -1.69147e-20)
(0.571087 -0.0666531 -1.17893e-21)
(0.252975 -0.0193332 2.04246e-20)
(1.18816 0.146163 6.19226e-20)
(1.00289 0.0192357 -5.24443e-21)
(1.0262 0.00222066 0)
(1.10674 -0.0687289 -5.11171e-20)
(1.1586 -0.0548681 -4.70581e-20)
(1.00007 0.000449717 0)
(1.24337 -0.052581 0)
(1.02568 0.00242293 0)
(1.11707 0.121938 1.10061e-21)
(1.03586 -0.00285947 -1.71185e-20)
(1.03675 0.00596776 -3.09742e-22)
(1.26035 -0.027659 -8.90186e-20)
(1.04295 0.015927 -1.66621e-20)
(0.975014 -0.0850747 8.23097e-21)
(1.12305 0.0932913 -3.35589e-20)
(0.999958 0.000848599 1.10386e-20)
(1.02106 0.00331072 2.02695e-21)
(0.981282 0.0037686 -1.309e-20)
(1.01081 0.0214672 -1.08935e-21)
(1.05616 -0.00845148 1.32587e-20)
(0.268116 0.690202 -5.98933e-21)
(1.04081 0.0031566 1.90805e-20)
(1.0329 0.0103535 -4.68406e-21)
(0.296286 -0.0662084 0)
(0.51264 -0.0748702 -6.93045e-20)
(1.10031 -0.0293703 -1.14573e-20)
(1.12867 0.120611 0)
(1.16199 -0.000105303 -3.64602e-20)
(1.0831 0.0240945 1.10377e-20)
(1.02624 0.014815 5.7625e-21)
(0.887847 0.0176068 0)
(-0.157717 -0.019237 1.62933e-20)
(1.09916 0.272752 -1.02021e-20)
(0.998387 0.00614918 0)
(1.03905 0.0384842 8.50455e-21)
(0.250641 -0.0597251 -9.45639e-22)
(1.12306 0.0191512 0)
(-0.132465 -0.0143282 -7.504e-20)
(0.999967 0.0010956 -8.13979e-21)
(0.951076 0.00787424 1.65324e-20)
(0.0382378 -0.0140367 -8.49883e-21)
(1.11493 0.0127444 -1.26368e-20)
(1.05537 0.026644 2.48502e-20)
(-0.312363 -0.00378678 1.28519e-19)
(0.212603 0.244112 2.10832e-19)
(1.01106 0.0208861 0)
(1.21713 0.0261053 0)
(1.00627 0.00252312 0)
(1.04173 0.0159371 1.1793e-20)
(1.01327 0.00574074 2.06181e-21)
(-0.153121 -0.0212923 -6.75483e-20)
(1.0236 0.000560468 0)
(1.04091 -0.005385 0)
(1.02679 0.0143195 -6.04104e-21)
(0.923957 -0.083817 0)
(1.06641 -0.0162307 0)
(1.25178 0.166638 7.20482e-20)
(0.701186 -0.0872093 0)
(1.03721 0.00400057 6.16567e-21)
(0.844922 0.0333178 3.94815e-20)
(1.00059 0.00386767 1.12358e-22)
(-0.167492 -0.0131494 1.56699e-19)
(1.00598 0.0110619 7.53809e-22)
(1.04151 0.00254886 -2.30601e-20)
(0.998687 0.00184041 1.03914e-20)
(1.10779 -0.0692889 6.95846e-20)
(0.998507 0.0017439 -1.54741e-20)
(1.2087 -0.0128356 -1.94389e-20)
(0.2622 -0.0151499 4.84491e-21)
(0.639504 -0.0778573 -6.17027e-20)
(0.905022 0.038211 0)
(1.14849 -0.0830721 1.35572e-20)
(-0.275631 -0.00749371 -2.49599e-20)
(0.997799 0.0293891 -9.42205e-21)
(0.084591 -0.0126004 -1.80331e-20)
(0.342433 0.0363806 -8.47863e-20)
(-0.255001 -0.00738596 0)
(0.287108 -0.0323779 1.5789e-20)
(0.279178 -0.064971 0)
(0.0885472 0.145213 -2.2201e-19)
(1.21094 0.000997215 3.81157e-20)
(1.01298 0.051097 -6.89355e-22)
(0.453714 -0.0578844 1.68593e-21)
(1.11426 0.0149116 1.21161e-20)
(0.391839 -0.0562341 8.69755e-21)
(1.03106 0.003805 8.02775e-21)
(1.02596 0.0240989 0)
(1.00553 0.0458737 3.53679e-21)
(1.00063 0.00418311 2.13371e-21)
(1.08836 0.0191536 -4.12603e-22)
(0.892309 0.0977695 -4.01366e-20)
(0.0595416 -0.0215443 0)
(1.02573 0.0230683 3.17807e-21)
(0.993947 0.0056542 -1.71366e-22)
(-0.231118 0.00935642 0)
(0.973167 0.464083 -1.62925e-20)
(0.981414 0.00247528 -1.08164e-20)
(0.811471 -0.0468846 -4.4353e-20)
(1.10084 0.0586851 -3.88795e-20)
(1.04851 0.0218173 1.75167e-20)
(0.491256 0.726557 0)
(0.805326 -0.0416948 -4.68596e-20)
(0.953119 0.0557777 0)
(1.06686 -0.0154249 0)
(0.230964 -0.0151076 2.14988e-20)
(-0.307547 -0.00552494 -1.30178e-19)
(0.222582 0.0667885 0)
(1.0354 -0.00233185 1.61346e-20)
(1.25947 0.152877 0)
(1.21374 0.0860314 1.68581e-20)
(-0.230486 -0.00110922 -1.05097e-19)
(0.329709 -0.0641291 8.8237e-20)
(1.09671 -0.0632432 -1.68943e-20)
(1.01721 0.0278137 0)
(1.05645 0.0157861 -7.60688e-23)
(1.03022 0.0454593 6.21868e-21)
(1.01985 -0.000107484 -8.44152e-21)
(1.03074 0.0678979 4.03963e-21)
(1.01772 0.00164315 0)
(1.05103 0.0976302 -3.89725e-21)
(1.08875 0.136496 1.03186e-20)
(-0.0663641 0.0198674 4.71268e-20)
(1.16369 -0.0471652 -8.81564e-22)
(1.04144 -0.00481388 -4.64519e-21)
(1.19645 -0.00380002 0)
(-0.103403 -0.0265334 -1.27088e-19)
(1.10955 0.127504 -2.95461e-20)
(0.973102 0.0271119 -1.39452e-20)
(-0.120798 -0.0138103 -3.03209e-20)
(1.03284 0.020369 -4.9329e-21)
(0.987738 0.0441639 0)
(0.818028 0.0702407 3.56726e-20)
(-0.0304934 0.0259032 9.35487e-20)
(0.99842 0.000363608 -1.24152e-20)
(1.00515 0.0214985 0)
(0.418892 -0.0626927 -3.33794e-20)
(1.13665 -0.0807143 0)
(1.19436 -0.0778211 -1.27054e-19)
(1.17706 -0.0228657 4.97555e-20)
(1.13952 -0.0855372 -2.94577e-20)
(1.00884 0.020236 1.33085e-24)
(1.22221 -9.35727e-05 -1.4792e-21)