/*--------------------------------*- C++ -*----------------------------------*\
| =========                 |                                                 |
| \\      /  F ield         | OpenFOAM: The Open Source CFD Toolbox           |
|  \\    /   O peration     | Version:  v2012                                 |
|   \\  /    A nd           | Website:  www.openfoam.com                      |
|    \\/     M anipulation  |                                                 |
\*---------------------------------------------------------------------------*/
FoamFile
{
    version     2.0;
    format      ascii;
    class       volScalarField;
    location    "250";
    object      omega;
}
// * * * * * * * * * * * * * * * * * * * * * * * * * * * * * * * * * * * * * //

dimensions      [0 0 -1 0 0 0 0];


internalField   nonuniform List<scalar> 
13851
(
0.136371
0.0241991
0.0240769
4.85077
0.0220827
0.026163
0.0239398
0.0218451
3.95928
0.0220427
0.0691098
0.0220804
0.0221112
5.56205
0.0370071
0.135396
7.82298
0.0219256
0.358865
0.136541
0.0422075
0.0262646
23.2221
0.0222638
7.79956
0.065485
0.257471
4.46373
3.67353
0.021767
4.62543
0.0239474
0.134326
5.05549
0.0458184
3.64278
0.0222741
10.354
4.72784
0.0220791
4.88155
3.79507
19.4468
0.706871
4.01046
0.0218886
0.0215765
0.130693
0.0234771
0.0221053
8.09603
0.022164
0.135247
0.0304154
5.6846
0.0220774
0.136272
4.72399
0.253883
6.11878
0.0220879
0.282051
0.0220964
0.0236195
0.234592
0.251357
8.2661
0.0675699
0.0221233
4.57729
4.33498
0.0512537
0.0220222
7.39176
0.0321648
0.0237637
6.3683
0.0216696
7.14937
0.0219539
0.022139
0.412138
0.0450675
5.17176
5.86687
4.48149
0.0264586
7.10318
0.0220318
4.64774
0.0222009
0.0240447
24.6536
4.38254
4.42266
0.410793
0.0219192
0.139009
7.67649
0.202568
0.143721
0.0430991
0.046918
0.0220659
0.0218743
0.0496248
0.021876
4.3662
0.0240429
0.0219025
0.031345
0.0218865
0.179617
0.0662742
0.131306
0.0295956
0.0217785
0.0218028
5.02949
4.75434
0.253647
0.0218105
0.0221106
4.14215
0.261166
0.12556
0.0219181
0.0593151
4.60807
0.0475213
0.0261919
0.0321125
7.56346
4.96339
0.0705792
4.41292
0.0646519
4.41506
0.0359337
0.0468787
0.382976
0.0226195
0.0220315
0.110111
7.02159
0.0235115
0.0216626
4.40045
3.68941
0.0618628
0.143118
0.172478
0.0712914
0.268031
0.0222658
0.0220521
0.0221027
4.55879
0.0432058
0.0234136
0.022243
3.6592
0.0487042
0.130986
5.40584
4.17692
4.25802
6.66095
0.0308615
6.24434
0.0221031
0.0217819
0.0613543
0.0221392
4.52666
0.274999
0.156808
0.021768
0.0320923
0.152931
0.252539
0.65685
0.0299998
0.0469821
21.3252
3.66222
0.134187
0.0295607
0.0221991
0.0218221
6.45586
0.0431607
7.44924
0.0262343
0.0233644
0.137095
0.1303
0.0220919
0.0221751
0.0736901
0.390787
4.53202
4.7277
0.0370665
3.00704
4.42168
0.0236834
0.0457977
4.02789
0.0255679
0.134515
0.0220935
0.406753
0.022235
0.0468271
0.0245443
0.0220848
0.222236
0.0221647
3.83211
0.0217662
0.136875
6.19541
4.45498
0.0292203
0.0462969
0.0222641
0.0945104
0.0220145
0.0460814
6.97348
0.0291123
0.0255491
0.0221175
4.62044
0.0217612
18.6536
4.67248
0.175385
0.0222513
1.46574
5.6117
4.08043
0.133673
0.0334979
0.152281
0.201819
0.0321705
0.381066
0.0332966
6.47856
0.144233
0.0218498
0.0259605
0.140366
3.60288
4.78196
0.0218188
0.13173
0.022029
0.188522
0.260289
0.0263279
0.0493022
0.147514
0.0219822
0.0439828
0.111874
2.87154
0.0220822
0.022083
0.0293144
4.5478
6.73289
0.0472808
0.0218263
0.251705
0.263546
0.118285
0.0486175
4.43351
7.98828
0.0268518
0.0336513
10.7491
0.0218642
0.022102
0.121708
0.0599476
0.0217573
0.0222323
0.0220062
0.0220006
0.0332081
0.0220954
4.03575
0.0444188
0.0219757
3.5761
4.15907
0.0221855
0.138306
8.259
0.0227455
0.0222118
0.0465664
5.53476
7.03133
0.0673088
0.0220728
6.17281
0.0220954
0.0736028
6.54676
2.66998
0.023311
10.3882
2.46493
4.42126
0.170116
0.0449921
4.58273
4.21019
3.93422
0.0222449
5.5666
22.6457
0.837508
0.759593
0.0237003
0.0669236
0.0298503
6.37838
0.0512959
0.0218749
0.0215199
0.0278129
4.34289
3.2371
0.0218563
4.38498
0.0301216
0.0324235
0.0235408
6.56053
0.248919
0.137684
0.0242715
0.025024
3.54062
0.0222081
0.277002
0.0267298
0.0464934
0.0305436
0.0220279
0.0219732
0.170944
0.22316
0.14387
4.72715
3.59944
0.0235916
4.57006
0.223761
0.0217046
2.83667
0.0936474
6.39073
0.0272047
0.0693004
0.257817
7.82135
0.163717
5.43321
0.0226433
0.266972
15.4793
0.0306276
5.06105
0.0334576
4.84595
0.0331703
0.0392955
0.145153
0.30422
0.0220524
0.0264125
0.064791
0.0322847
0.0219087
0.0476125
5.40735
0.0220179
0.0460345
5.78093
0.0241028
5.55051
0.043705
7.45378
0.0261153
0.0617395
2.36773
0.269022
0.0488966
5.68816
7.29757
1.25805
0.0219852
0.166637
0.0337355
0.068419
0.0218262
20.6085
5.60189
7.65698
0.024963
0.148008
0.280235
6.4068
0.0215918
7.22315
0.347117
23.3435
0.0343525
5.57015
0.0220376
0.022127
6.85007
0.277711
0.0220408
0.0242464
0.04698
0.0218166
5.5879
0.0671183
0.0916869
0.0255915
0.0226574
0.0221843
6.56438
0.0219744
0.0221637
3.88723
5.40832
0.0257588
0.265328
0.0221033
0.0220942
0.0244548
0.145654
0.0431387
0.0219175
0.0228678
0.237188
0.0233027
8.09386
0.0220756
0.0271675
4.0822
0.0359181
0.0215793
0.0221207
0.0255363
0.0222165
1.23064
4.04928
0.0338112
7.5199
0.0244911
0.0220564
4.50194
0.260438
0.0355019
0.0220334
4.15712
0.0346466
8.06879
0.0220683
0.0323736
0.169218
0.0342168
4.33022
0.278608
7.30949
0.0238202
0.176198
0.0219775
3.61005
0.0437057
0.130199
0.0334955
0.0240402
0.0359719
0.0617576
0.0220944
6.78778
4.38596
8.47955
5.94223
4.03838
4.9691
0.272858
0.0281779
0.0222077
9.5497
0.0220455
0.0219089
0.0302854
4.61535
0.0239689
0.0226211
0.0935745
0.0492415
0.0220476
7.54827
0.0219242
4.73495
1.12349
0.02195
0.0233438
0.356163
3.11664
0.021764
10.3769
14.8896
0.0216691
4.49519
0.345375
0.136556
0.023792
3.85196
6.35616
0.0216835
0.350632
0.0221148
0.0219246
3.48416
4.9109
0.0398907
0.0423351
0.0220463
0.0559626
4.72549
4.51604
0.0217767
6.28557
0.0219149
0.02213
0.0494227
0.0270951
0.0215854
0.0237811
4.55356
0.281037
4.4181
0.0236408
0.0220254
4.57205
0.0221793
0.167663
0.0272173
0.0322987
0.0334304
4.2498
6.50044
0.0260337
7.2943
0.0231149
0.0671965
3.86079
4.47446
0.0221068
0.0219829
0.0482884
4.43857
0.241597
0.0549656
13.4756
0.0272106
0.032193
9.06083
7.61806
0.171695
4.6257
0.181296
3.73066
0.0224519
0.235338
4.26036
0.0220775
18.9495
6.5183
0.0308431
0.0469344
0.0220606
6.81389
0.0810946
16.4029
0.0219746
0.0221658
0.026564
0.0485631
0.0220852
4.50302
0.0221601
0.1754
0.0238831
0.0699319
0.0220604
0.0220474
0.0474487
6.67561
0.0489085
4.37202
0.0323704
0.0218255
0.0217567
0.0618642
0.0228662
0.106149
0.0244124
0.0348059
0.236169
0.0221811
5.74955
0.0222538
0.0931206
6.28805
4.2252
0.0290439
16.8643
0.0903376
0.303914
6.38372
0.021837
7.41372
0.0301053
0.0317291
5.67334
3.01364
0.0217146
0.103071
0.0220677
3.61767
7.23347
0.0222137
0.0736767
5.74227
0.0222637
0.0222525
0.0662096
7.11371
3.53938
0.0222189
0.146075
0.023104
0.022046
0.214619
0.148274
0.187584
0.0215762
0.112223
0.0469713
0.0575251
0.022656
0.0232058
0.0759899
0.0264075
0.121442
0.0510903
0.0512073
0.139546
3.30424
0.348955
4.90137
10.1705
0.136459
4.30032
0.0404513
3.61926
0.139844
0.0218948
0.0315275
0.290374
0.0270841
0.0219565
0.0219529
0.0934428
6.04753
0.0273472
4.52966
0.0218294
3.7388
0.157719
8.83056
0.102811
0.0262613
0.0240671
7.32783
0.18613
0.0388421
0.278983
0.0225123
7.45337
0.0940906
0.178044
0.0330718
0.579586
0.0220343
0.0222456
0.0233998
0.0220449
3.8607
0.0220004
0.231686
4.45475
0.105521
4.57053
6.84637
0.183505
0.328459
0.0286812
0.0221799
0.0220678
0.0216789
0.0217574
0.0221412
0.0676873
0.172738
0.0506287
3.46673
0.0231223
3.96264
0.0222935
4.76844
0.0423304
0.0222836
0.0221327
4.23668
0.0263492
3.83916
6.51083
0.0448037
0.0685573
0.0216515
4.95402
0.0244005
0.0240068
0.243932
0.0221833
0.0226272
0.0218334
0.0438837
5.79067
0.0296243
0.0333647
0.382122
4.40778
0.0291513
0.0269451
3.83475
0.0216762
3.76336
0.0222022
0.02331
6.79281
0.0802918
0.130172
0.097854
0.0492318
0.0222274
0.0222936
0.0727294
0.0224994
0.0222349
0.0277987
0.364663
0.0219843
0.279283
4.00766
3.37982
0.0965105
5.21042
0.0369779
0.0221754
0.161552
0.0218432
0.0264471
4.80927
3.57606
7.44849
3.95995
0.0222835
0.0221817
0.0715721
0.023043
0.0218358
23.6594
0.19145
4.86021
0.0943777
0.0821284
0.0220465
0.0217728
6.9884
0.0924569
0.0236121
0.022253
0.129617
0.203177
4.60925
0.0222502
0.0221518
7.04639
0.0226335
0.033463
0.0218214
4.68163
0.0219206
5.68213
0.0220742
0.155895
0.039573
0.0718791
0.0332882
0.0220218
0.0242735
0.0220223
0.222677
0.0226423
3.90307
0.0225776
4.27441
4.55153
0.0314404
0.0220038
5.10174
4.12378
0.0265243
0.0798358
0.022068
6.59118
0.0219128
0.292922
0.0220646
0.0220191
3.41683
0.0336229
0.0221106
0.0307844
4.60326
5.48559
5.78189
0.0218227
4.13023
0.0220752
0.0219915
0.0222661
0.021487
0.0222337
5.98419
4.97058
0.0221768
0.0221563
0.0402255
0.0218867
4.85854
0.165769
4.83165
4.64904
0.0242394
0.121401
0.0220704
0.042275
0.12474
0.0218191
0.0222105
1.86152
7.14122
0.0672687
17.0659
0.0615934
0.0221006
0.0423868
0.0810229
7.84102
0.0319402
0.886994
0.0946089
0.022224
14.2109
12.7772
4.46465
5.8897
3.40938
0.0237667
0.147511
0.0221659
0.816367
0.0265491
0.0218769
5.83677
0.023012
0.0220048
0.0221062
0.0228657
4.54886
0.280177
0.0218693
0.0430725
5.48372
0.0231636
16.5685
0.0232176
0.0777321
4.80881
0.0220982
0.248258
0.0299047
0.0329379
6.1123
0.0229964
0.394529
0.0608952
4.81857
0.0221225
4.54186
0.0303717
4.32936
8.20614
5.88671
0.044666
0.0220374
0.0222912
0.0222635
0.0374698
0.0221234
4.41817
0.0291427
0.0279704
0.0289086
0.0237017
0.0218206
0.0261833
0.0276083
0.0233485
0.0272455
6.04097
0.218492
0.0295034
0.0514774
5.88627
0.0226703
4.37769
0.0216892
0.0332752
0.0226494
0.0219342
0.0458021
0.0220513
0.021864
0.0452951
0.0220585
0.340104
0.0227057
19.8285
1.33787
0.211345
0.296019
0.022036
4.45065
0.157949
0.0222264
0.0275035
0.022537
4.50163
0.0231987
0.0446241
3.03051
6.52773
0.086156
0.0221171
4.21955
2.05519
3.55929
0.029817
0.0218163
0.0217592
0.0674783
0.0220368
7.66682
0.171809
0.0221982
0.224828
0.35236
0.0218218
6.18988
6.31309
0.186995
0.0226852
4.19083
0.0673366
0.0220218
6.42043
0.0267828
0.0218144
0.0219385
0.0309576
0.0378808
4.18483
4.99089
0.0397187
4.27033
0.032749
0.0220207
0.0865352
0.0219592
3.85892
0.0217957
0.0220465
0.024028
0.0224612
4.50593
5.72775
0.237712
6.70302
7.21285
0.0291366
0.0220218
0.0227117
0.407158
0.0217764
0.0218928
0.044395
7.44593
0.227149
0.021637
0.0396775
0.0335381
0.138851
16.636
0.0216632
0.021573
0.0232544
7.01713
0.0277595
4.71031
0.0231889
0.0221632
0.0218159
0.0219312
0.0245111
0.183202
3.77629
4.13334
0.02898
0.0220568
5.47303
0.0222162
6.06559
5.04619
0.030599
5.51554
3.79133
4.75558
0.0518653
0.0316867
3.98089
0.0305091
0.0338542
0.0739732
0.310617
0.0224682
5.41672
0.0220229
4.62061
7.34734
0.0216933
0.023896
0.04668
0.40337
0.0333546
0.0221428
0.0274357
0.0232062
0.0253187
1.27731
0.0221628
4.21202
5.82283
0.0220254
0.0306351
0.037689
0.0220834
3.51894
16.0257
4.50646
3.50715
0.02204
0.0246436
0.0266156
0.0222677
0.230791
0.0336481
0.0222567
0.0601184
0.0258337
4.62494
0.0396579
6.71197
0.0231113
0.0231912
0.0507757
0.0933495
0.0733149
0.0219852
17.8522
4.26253
26.3721
4.62305
4.73376
4.16291
4.43829
0.0219897
0.0220265
0.0219535
0.235436
0.0426641
0.0730811
7.27958
0.0220713
0.0216605
0.0220444
0.205584
0.0216522
0.0262904
0.0236872
3.87751
0.0229312
0.021851
0.0220869
0.0219705
0.0221629
0.0344264
0.230869
0.0339885
5.50336
0.0220346
0.0219317
4.61657
4.74806
6.75444
3.50584
0.0486006
3.65319
0.0218118
0.062513
0.0231944
0.0220796
0.023846
5.11855
0.0228794
0.0948689
7.42323
0.0221476
0.0219233
0.0264051
0.187205
0.022272
3.88389
0.0219381
0.200518
0.0221257
0.0221772
0.0265954
0.0995466
0.0221189
0.248966
4.36707
0.177262
5.01923
0.0220387
6.57128
0.268049
0.0220499
7.58673
0.0222604
0.0422661
0.0222037
0.0219934
0.0219618
0.0220454
0.0224123
0.0272291
0.0659615
0.0221755
0.0220969
0.0614412
0.0216907
8.34205
0.0221261
0.0319296
0.032415
5.18887
2.18078
0.0221474
0.188646
0.0218164
0.0293366
0.0715554
3.16091
0.0467714
0.0222724
0.107792
0.0771538
0.0820795
0.401546
0.0358162
0.152219
0.0551131
0.0661582
0.0228976
0.0218249
3.29373
5.50845
0.0245727
0.022018
15.8625
0.0218325
0.0420147
0.0219624
0.0851917
8.46838
0.0215196
6.29406
0.0259926
0.0221707
0.153012
0.0218774
0.0406274
3.43604
0.0402011
3.38002
0.0219567
0.0222649
0.0430331
0.0222264
0.0222465
0.0272644
0.0294207
0.0666822
0.0895801
0.0220877
0.0396542
0.0218153
0.0220636
0.0222155
0.0220528
2.10285
0.0218297
0.0232556
0.266163
0.0218276
0.0220066
4.67595
0.0222498
19.2351
0.0230229
4.7429
0.238346
0.0523722
5.40171
0.0678129
2.14465
0.0223125
0.20746
0.0270513
0.0218122
0.021893
0.0232364
0.0307176
0.0219628
0.0551899
0.0219052
0.0231704
17.1904
8.04383
4.60577
0.0237999
0.0481121
5.24294
5.61029
0.0221733
0.0259931
2.14659
0.0221097
0.0411337
5.39374
4.14071
0.0266173
0.0416213
0.0227634
0.375631
0.0222853
0.0359894
5.30332
0.0221586
0.021859
8.49203
0.044614
0.252078
5.10581
0.0942655
0.0224072
0.0219092
0.0222114
4.86225
2.9759
5.3811
0.057984
0.0220453
4.77487
0.0221095
0.174767
0.0266769
0.0230496
0.0426663
0.022059
6.37498
7.21667
0.021621
0.0673963
0.0438324
5.2346
0.0454234
0.0543388
0.242395
0.0325148
0.216833
0.0572906
0.0221122
0.034173
0.0842365
3.97669
0.0220361
0.612629
0.0480232
0.0571254
0.0222728
7.12014
0.0257749
0.0236004
0.0218459
0.0399233
0.0387121
0.0568808
0.0221285
0.0226639
0.0583078
25.6442
0.0626361
0.0221576
0.0226226
0.0340026
0.240111
0.0221721
0.0935528
10.2986
0.04862
4.38436
0.0373576
8.17327
0.384555
0.0219899
3.02121
0.0222385
0.0249862
0.0315508
0.0339164
0.104678
0.0442262
0.0436036
0.0456084
0.0311431
0.0241266
0.0216455
0.0851117
0.025131
0.0287875
1.60651
0.0261692
0.0304588
0.0219492
4.89543
0.0860028
0.0220873
0.0244194
0.02327
5.6962
0.16741
0.0315205
4.00237
0.312516
1.29106
0.0955488
0.248017
0.0218926
0.315867
0.021881
0.0268761
10.8264
3.49323
0.391099
2.36896
0.0221217
6.71899
0.0218896
0.0788897
0.0252017
3.46276
5.93599
0.0252601
0.0220235
0.357045
0.0429673
0.0220218
4.39828
0.0220697
0.0236786
0.0251163
0.022197
0.0308448
0.0233393
0.0220434
0.0349871
0.546447
0.0394913
0.06271
0.0220177
6.76908
3.5493
0.0220049
0.279713
0.0251424
0.0291937
5.183
0.0220015
0.0226808
0.0279228
4.49288
0.0220319
0.022183
0.04026
3.50154
0.021988
0.0321918
0.0344014
1.3665
0.0472068
0.0400018
0.2209
0.0220748
0.122379
0.0217103
6.76923
0.0301757
0.0220488
0.0262624
0.10088
0.0221508
0.0220859
0.143201
4.02764
0.0222033
6.08564
0.0221882
0.021699
0.0655908
0.0220355
0.0218273
6.67371
0.0222739
0.0399914
0.149409
4.58351
1.09068
0.0217586
0.0239942
0.0280634
0.0220752
0.0220363
0.022096
2.56276
0.0221959
0.217255
0.116114
0.0218501
0.0217008
0.03002
0.116079
0.27707
0.0566593
0.0637498
0.023811
4.02011
0.0806471
0.0291876
0.0391715
0.0673146
0.0953635
16.9903
0.0360724
3.7972
4.17672
5.30244
0.0243651
0.0219556
0.038598
0.0343718
0.0217816
0.0222055
0.139671
0.0222436
0.0222769
0.0220522
0.0215776
0.0232327
0.0219891
6.63236
0.0220205
9.31542
0.0220827
0.0910104
0.0224984
0.119013
0.0813626
0.0220417
4.9776
0.0239665
0.0222262
0.0385854
0.0218049
0.0308572
0.0219252
3.88562
0.0241548
0.042199
0.104441
4.90925
0.0285252
0.217229
1.45313
0.0521047
0.0220332
0.0228262
0.114849
0.0656963
7.49954
0.0217607
4.87363
0.0220803
0.0898407
8.47401
0.0366417
3.31191
0.025252
0.0320227
0.0248347
7.00384
0.0313193
0.0221422
0.0497461
0.146372
0.0233218
0.0220392
0.0221435
4.65412
0.0222526
0.0277742
4.82779
0.0260836
0.0219853
0.0578813
0.024962
4.63411
0.02166
0.0220181
0.0218664
0.026038
0.0223005
0.0220538
0.0616867
4.53087
0.0219704
0.0221027
5.23112
0.0220888
5.88262
0.023269
6.69783
0.0218535
0.024321
0.0218144
3.91818
5.03812
0.0304722
0.0727835
0.0269802
0.0219436
0.022117
3.94665
0.022137
0.078118
0.0217791
0.0396857
0.0221904
5.49079
0.0218398
0.0427471
0.0218645
0.563507
1.17232
0.0217878
0.0450932
6.83766
0.0656536
3.80249
3.1012
0.266315
0.0233911
0.0337448
0.0969477
3.73123
0.022023
0.0360056
0.0281233
0.0219724
4.10377
5.77844
0.0671357
0.156471
0.36208
0.0337849
4.57718
0.0217737
0.0217833
0.10296
7.64415
0.234318
0.16806
1.69094
0.0218126
7.19361
3.93449
9.20131
0.0222029
5.62565
4.98611
1.25967
4.19803
3.97609
0.0813052
0.0304759
0.178268
0.0255938
0.0219693
2.22323
0.0917251
0.021629
4.97136
0.0221891
0.0294834
0.0416485
0.0267268
2.47031
0.0348996
6.12158
0.0418618
0.0261004
3.81513
4.94952
0.140764
0.0223658
0.0257974
0.0736708
0.0600589
0.0218333
0.0484907
0.0636978
0.150955
0.0219723
0.200449
0.0243243
0.0502517
4.0562
0.2132
0.0230676
0.141523
4.68545
0.0221578
0.0227726
8.42291
0.36781
0.0243014
0.0245299
0.0220918
0.0768186
0.024919
3.7858
0.104494
0.0225026
0.0222234
0.0675329
0.0298448
0.376872
6.74262
0.0218753
0.0220346
0.0278099
0.0221949
0.0240693
0.0228849
0.0226815
0.0257697
0.0219381
0.0248466
0.02218
0.0447707
3.23161
0.0222643
5.58782
11.1278
0.0217096
0.256237
0.141523
0.0901977
0.0227126
0.0910749
0.0267751
0.0807327
0.0293138
0.0231973
0.0222095
7.36491
0.0269229
3.49503
0.0226938
0.0220372
0.0220238
0.0725167
0.0219649
0.0492394
0.0579328
1.82631
0.0219199
0.266808
6.9365
4.21288
0.0218052
0.147192
1.06933
7.00179
3.56239
0.0225411
0.0222598
0.174378
1.41434
2.63306
0.039882
0.280263
0.0222315
0.021826
0.0405972
0.0221964
0.0221287
0.172208
0.0222655
0.0910448
0.0218428
5.02504
5.46413
4.54897
4.02188
4.32607
0.0221218
0.0221456
6.66566
0.021773
0.0217979
0.021699
0.129291
5.07785
6.83505
0.0275861
0.0219941
0.0231197
0.0377041
5.36085
0.0220376
3.19892
5.12749
0.0221894
0.022178
4.17779
0.0742272
0.0229846
0.022042
5.81011
4.51626
0.0219512
0.193186
0.0222538
4.15813
3.47081
0.0231042
6.77529
6.7538
5.49505
0.0218293
0.0220232
0.0222453
0.0222861
4.84598
0.0219118
0.259095
0.250418
9.01449
0.0225924
0.0596533
0.289447
0.0491705
6.61548
4.39394
0.0216315
0.0252849
0.0254663
0.130217
4.435
0.0215656
5.51507
0.0323958
0.0411462
0.0227201
0.0219489
0.305957
0.0405511
4.86273
0.0221963
0.0563554
0.0225136
0.120983
0.0239877
4.43949
3.26301
0.29601
0.0883934
0.0219661
0.0238837
0.0848617
0.232595
4.47773
6.71149
0.0221498
3.43567
0.0941788
5.01154
0.0257946
0.0440417
0.0397929
0.0220557
5.59127
0.0220704
0.0320967
3.58439
4.92857
1.91537
4.93231
0.0284733
0.0482829
0.0217347
5.03822
0.0273866
6.85012
0.0217217
4.80748
0.0215271
0.0220037
0.0316882
0.0314187
0.0326704
0.0219743
3.86159
0.0414084
0.0219148
0.0381256
4.01072
0.669879
0.0220351
4.61265
0.0243494
0.0328277
0.0308342
0.0216916
0.0646534
0.0219968
10.3271
0.083844
0.0260326
0.0220296
0.397822
0.03967
0.0217202
5.03361
3.36743
0.243165
0.0216076
1.06635
0.0221414
0.154997
0.0268995
0.125744
5.43558
4.02417
0.0345904
4.94891
0.0503618
0.0285666
0.0218259
5.22085
0.11924
0.106708
0.0604686
0.0222435
3.51607
0.0896314
0.40785
0.258671
6.47188
3.80964
6.8884
5.09871
0.0290921
0.0316664
0.0220963
0.022045
0.0215854
0.169493
0.0292532
0.0331525
4.69334
0.0219391
0.0218596
0.039117
0.14632
0.0274312
0.0218142
4.58345
0.0241242
0.0440598
0.0222004
5.74363
0.0287928
5.93831
0.0571541
0.0336874
0.0533164
0.0220893
7.93874
0.304347
0.0708836
0.0220373
0.0219112
7.0544
4.47558
3.57468
0.021829
0.0721814
0.558573
0.0220092
0.0220087
0.022078
4.96403
0.104309
0.0348511
0.0263239
0.0255678
4.71642
0.0923071
0.247827
0.0256071
0.0320866
0.0215692
0.13389
0.0560171
0.0220157
3.88763
4.43827
4.47959
4.02805
4.7049
8.14646
6.61205
0.0231177
0.0217948
6.00157
5.16278
6.87324
0.0220639
0.0396312
0.0220464
0.0219663
2.86613
5.04886
0.0624565
0.0220048
0.273716
0.0931823
0.0488451
4.34131
3.52724
0.279698
0.0219164
4.41927
1.90861
0.389022
0.0309161
0.0421228
0.022172
0.0218766
0.0390281
0.0457142
0.0244287
0.038736
0.0274344
0.0250338
0.220562
4.23399
0.03165
0.0403642
4.25689
0.194341
0.0221113
0.470369
1.02451
4.85897
0.041366
0.0221031
0.0292231
0.0268766
0.0302653
0.0216897
0.033121
0.0303061
0.0437996
0.259208
0.0222307
0.0229908
3.90357
4.03011
4.79865
0.320364
0.105635
0.0215121
0.0220455
0.0301759
0.0217288
6.64519
0.022038
0.0222736
0.0217222
3.83749
19.7061
0.0224079
0.0606936
0.0283484
0.0356419
0.0299056
0.0352833
0.0393434
0.0376514
4.7661
0.0258364
4.83489
0.0394062
4.75607
0.0293173
0.0219363
0.0218207
0.0934562
0.144572
0.0218267
0.0395977
0.0295078
0.0593877
3.92756
6.4623
4.33143
0.0222734
1.58797
0.0298135
0.0367839
0.0220304
0.0702094
0.0237213
3.76142
2.19966
0.0400216
0.0220788
4.00142
0.0272698
4.44613
5.25219
0.230115
0.0242925
0.131744
4.51387
1.15792
4.00989
0.0604435
0.0219368
0.0400452
0.0218198
8.96957
0.0246531
0.03179
0.274073
4.66111
0.021904
0.0219572
4.32004
0.0419485
8.06949
0.032724
0.022043
0.0428218
0.207889
0.0435279
3.34971
0.03617
0.784286
0.0250355
0.0222452
0.0219423
0.298587
0.0226568
0.134572
0.0220484
0.0219982
0.281949
0.0256148
0.0220636
0.0220387
0.0355477
0.539678
0.0405947
0.0392354
0.0263973
0.0612051
0.0220355
0.165264
0.030329
0.0427779
0.07084
0.0268394
0.0888227
0.0453086
0.0218031
0.0655687
6.3095
3.40446
0.0220569
2.7553
4.41568
0.0219647
0.0226587
0.900237
4.31251
0.0277944
4.25045
0.386948
0.0219529
0.081611
0.0215844
0.0257361
0.0615373
10.9896
0.558553
0.237872
0.265143
3.95434
4.17065
0.0230514
3.93398
0.0220367
2.17704
4.21514
0.0221004
0.0220834
3.55992
0.0221137
0.0220855
0.281723
4.65543
0.226443
0.0255768
4.3146
0.0221039
4.13046
4.02846
0.0221903
0.290034
7.1047
4.64617
3.68795
3.92453
3.7689
0.0218815
0.023194
0.0617058
0.063294
0.0220798
0.189671
0.0220411
3.83111
0.285553
0.0495876
0.270765
3.76456
0.284215
0.221301
0.0604487
7.79143
0.533007
0.0248264
0.0216293
2.71191
0.0349528
0.02177
6.8393
0.0219778
3.03016
0.0221409
4.96311
0.0249443
0.0219825
21.5372
0.0274728
0.0355614
3.82398
6.64529
2.60565
0.026892
0.0419631
0.0233156
0.0373429
0.125691
0.0383861
0.0222097
1.76194
0.061079
0.0331776
4.1101
0.0401611
0.0372703
0.218899
0.0744495
0.0425365
0.0219777
0.207129
0.0218196
0.12388
0.210581
4.594
0.0218745
0.0392754
4.61611
0.023047
0.0653887
0.0298082
0.0420579
6.03761
0.0602773
0.0234318
15.9822
0.0218852
3.97408
0.0221258
0.0228676
0.121931
3.62783
0.0326963
0.392601
0.637289
0.0302201
0.022164
0.167153
0.0453159
4.62764
0.026527
13.5297
0.141602
0.0300074
0.0292417
0.107366
0.0377025
0.0745475
0.0598551
0.038333
0.0242325
0.0219946
2.75006
0.0220119
0.0286515
0.0215996
0.106016
0.0289759
0.0589338
4.08332
0.0230139
0.235446
0.0215085
0.0221509
0.0221894
0.0222068
0.0257859
0.0219445
0.0827774
8.01938
0.0579641
0.0446867
0.0245739
0.0220299
0.216173
0.0220235
4.32639
4.87774
4.85365
0.138931
0.0352373
0.0264421
0.0221784
0.0298117
0.0978038
0.0430231
4.3713
0.0570036
4.91681
0.139782
0.0222103
0.0218435
3.45604
0.0219502
0.0293228
0.0665306
0.362277
0.0230478
4.73329
0.0221735
0.0258169
0.0220476
0.0226184
0.169876
0.101982
0.0222016
0.0310786
0.0348372
0.0450327
0.0552125
0.549426
0.379382
0.289824
0.125758
0.0252906
0.0229342
0.0541367
3.59903
6.50506
4.06599
0.0308302
5.49314
0.0989111
0.0226664
0.0219975
0.0581111
0.0221446
0.0308531
5.58221
0.0219664
0.0217992
0.5948
3.01407
0.0444071
1.69857
0.0221143
5.72485
0.0425546
4.82669
0.0294285
0.0220304
4.16305
0.0584953
0.022031
0.074093
0.0222532
0.166867
0.029003
0.0550168
6.96623
0.0337234
5.27045
0.021934
4.97072
0.0221232
0.0260398
0.0224737
0.0467488
0.022144
0.0563181
3.93512
1.10441
0.0493016
0.032234
0.0779051
0.0219007
0.0219619
0.0228651
0.897341
0.024972
5.10048
4.61512
0.148281
0.022216
0.152902
0.240423
0.149597
0.0251222
4.95323
0.0219748
0.0215193
0.0219608
6.60114
0.0220514
0.0220151
4.0542
0.0219771
0.16936
0.102411
0.021756
4.52369
0.027023
4.9189
0.0219212
1.86537
0.0227983
0.0727121
9.08059
0.0648625
0.0219472
0.0264291
4.53284
0.030739
0.157312
0.0307023
0.026378
0.14906
0.0291659
0.0220874
23.1115
0.0293789
0.0272143
0.134304
0.0219714
0.0218621
0.0221891
0.0294553
0.0221231
0.025909
5.39921
12.5319
0.104818
7.3028
0.0576454
0.0325206
4.74507
4.60562
0.0224325
9.20457
9.25182
4.00665
2.95061
0.0310237
4.45
4.21272
17.2787
3.02151
6.35209
0.0430053
0.0844431
0.0294774
0.0253598
0.0221728
1.60153
0.0222852
4.83057
0.128059
0.356177
0.021593
0.0718948
0.046193
0.0235666
0.0222931
0.0221186
0.126784
0.0233039
0.0221547
0.0382684
4.39678
0.0240516
0.164853
0.0218312
0.129672
0.0838535
0.0221557
0.02676
0.0219475
4.991
4.75545
0.16234
9.74415
0.0333477
0.0875393
0.022132
0.0393995
0.0220638
0.0222899
0.0222338
4.90851
0.0217772
0.0428014
0.818926
0.0279669
0.0304224
0.0220009
4.88253
0.20394
13.323
4.68581
0.174262
0.322887
4.41229
0.358546
0.210503
8.54354
0.128954
0.0338315
3.41392
5.11566
0.0220454
5.13621
0.158987
5.54507
0.0216113
0.0612675
5.02554
0.0222733
4.70362
0.0253603
6.8851
0.0220923
0.0220991
0.0685133
0.22972
0.0259933
0.0646846
0.0217864
0.0220979
3.72141
5.68475
6.59978
0.0508684
0.0220686
0.0224297
0.0221364
0.0362403
1.19504
4.75417
3.73053
3.69489
0.0322146
0.021954
0.021984
5.90404
6.17676
0.30626
0.0263594
0.0247585
0.0832246
4.8126
5.97433
0.0215098
0.0219609
5.15025
0.0229885
0.266818
0.0279257
0.0220616
0.0325258
0.0466285
4.7408
4.72692
0.0222023
0.021798
0.0247322
0.216655
5.1238
0.0222653
0.136694
4.5395
0.0215197
2.75344
4.2177
11.782
0.0221103
5.3968
5.02255
0.0390747
0.328411
0.0241455
0.310413
0.357928
0.0252824
0.0219454
6.3202
1.74168
0.0218561
0.140454
0.146269
0.0295254
0.274274
4.68643
5.51247
5.08813
0.0273298
0.0235328
0.0229485
4.69457
5.17721
4.91943
5.96208
4.78591
0.0217185
0.0428725
0.022068
0.0221156
0.0248146
0.0219696
0.0220598
0.0221244
4.5467
12.6154
7.02381
0.0576932
0.196818
0.0357408
0.0218573
0.0219877
4.57405
0.0221393
6.06447
3.99775
0.0221796
0.0218864
3.7254
0.0225298
0.585334
0.0257475
0.0217515
0.0217141
4.58343
0.0216787
4.41736
4.39483
0.0215653
0.0464859
0.0219096
0.022823
0.0218399
0.117651
3.77711
0.0219728
5.15634
0.494264
0.0239863
0.021877
0.0226321
0.0235313
0.0222269
0.571482
5.53729
5.78426
0.0385526
6.4176
0.0222728
0.0255813
0.0220675
0.181901
0.0233523
4.84551
0.021863
4.03319
0.274368
5.74524
0.149201
0.021859
0.0437539
0.0219133
4.41965
0.0219398
0.0285883
0.0264275
0.0254599
0.0221322
0.0222512
0.0325179
5.2156
0.0221833
0.0228046
0.0238598
0.0335928
0.169813
0.0221888
5.10065
3.9108
0.0238087
5.12764
4.62656
3.38514
6.37434
0.0215351
0.0230362
3.65303
4.43657
0.143862
4.06214
4.5861
0.0326652
0.0491651
0.0303167
4.3613
0.022037
0.0219665
5.60083
0.127749
4.82374
0.0245892
0.0217065
0.0220464
5.01972
0.0706435
0.0236605
0.241718
0.0218234
0.0597362
0.0303019
0.030561
0.0219155
0.0221894
0.0219222
0.0245983
1.43701
5.20826
0.0215744
0.021905
4.60672
0.022058
0.0636845
0.0259343
0.0255042
0.0366944
0.0222858
4.30895
0.0294754
0.0252295
20.3541
0.0855262
0.0232164
0.0314502
0.022029
0.0224673
6.74667
0.291548
3.54779
0.0222513
0.0221548
0.0614624
0.0271083
0.0220317
0.0376942
4.3756
0.025858
0.0413917
0.0253222
0.120928
0.0221158
0.0216921
4.70195
5.26203
5.13492
0.0219716
0.154983
0.0215922
0.0220234
0.0660434
4.83951
0.0678323
0.0282299
0.158688
0.022724
0.0293875
0.0531976
0.779788
0.0222804
0.0216391
0.0225437
0.0238103
0.0265643
0.0219614
1.30946
9.74977
0.0220821
0.032048
0.0224018
0.0216425
3.92016
6.01172
5.6288
0.0751916
0.0223721
0.0557955
5.00612
0.10238
0.0952367
0.0339182
0.0297652
5.19993
0.216814
0.8238
0.0217641
0.030488
0.0221099
0.0305365
6.9127
0.0216254
0.0405903
0.0253902
0.0299976
0.0230307
0.021789
0.0218799
4.44358
0.0460734
0.0303628
0.06739
0.0348878
6.40789
0.0312213
0.491528
0.0219247
4.81556
5.05064
6.88661
0.0222646
0.0317964
0.0220849
0.0219597
5.62759
0.0463822
4.80176
0.0219961
0.045104
0.131008
4.85921
0.0279815
0.0216379
6.7727
0.0222853
0.0222842
0.0225717
0.0220364
5.94615
0.0218225
0.0218755
0.0363038
0.0272085
0.145216
0.132888
0.0331513
4.73251
0.0219248
0.180774
0.0217737
4.689
0.0340604
0.499258
0.148318
2.8344
0.10878
4.6531
0.0230439
6.40074
0.0324646
4.93125
0.204232
0.0278024
0.229232
0.022143
6.93703
0.023079
0.0380208
0.0270947
7.33214
0.142615
4.35598
0.0309283
0.0220163
4.94002
0.246139
0.0544185
0.150062
8.40044
4.867
0.0391227
0.284551
0.0426806
0.0218793
0.0484379
0.268784
0.0693078
26.4163
0.123422
0.0217947
0.021932
0.141704
0.0220865
5.47854
0.0720727
0.0220847
3.85996
2.1548
3.20323
0.111051
0.0219883
0.0289151
0.025692
4.45068
3.79858
0.025673
5.21941
0.021872
0.0315238
1.13186
0.0220043
0.0406708
0.021932
0.0262375
0.0222513
0.165005
0.693685
0.0300591
0.0293054
0.0217134
0.145105
0.0218878
0.0218269
0.0330366
0.0219252
0.223601
4.84375
4.02722
4.59446
0.0217854
4.96337
0.0221896
0.0370796
0.135102
0.0220178
7.77405
0.0700104
0.0220347
0.0216296
0.0422892
0.0376751
0.183796
0.236273
0.0257464
0.0238959
4.21353
0.0622235
0.287561
0.926643
13.9773
3.99937
4.82169
1.42341
0.0221505
0.0221149
0.0469529
0.0222049
0.0511876
0.0363938
6.38593
5.07605
6.81914
0.0216808
0.0217767
0.122141
0.269562
4.42947
1.48542
3.75411
0.0542064
0.0326861
1.33763
0.271543
0.026178
4.8207
0.0331457
0.0304497
4.48433
0.0410701
0.0219299
4.67424
0.981695
0.0244419
0.144023
0.0233359
3.99147
5.82167
5.72591
0.0220157
0.0216827
0.136568
0.0220174
0.0219184
0.0220211
0.0217291
0.0220265
0.0220331
4.72916
0.0279792
0.0463969
4.30015
0.0219019
0.0220419
0.0317024
0.0256075
0.0262057
0.0220499
0.0662875
0.030719
0.026355
0.0858675
4.51079
0.022061
0.0427387
0.0220732
0.0220356
0.0215678
0.0220857
4.54114
0.0218956
0.0220267
0.022099
0.0437666
4.358
4.34469
4.91534
1.9134
0.0451913
4.46406
6.47319
0.0219576
0.0423751
5.90976
0.245166
0.0221133
0.0277882
0.0432238
0.0379558
0.0220627
0.0398524
0.0568
0.0444299
0.0216297
0.0538661
4.53581
0.0215742
2.17702
4.96151
0.0424135
0.671924
0.0356897
0.0220911
0.0255265
0.022015
0.239338
4.78884
0.0216749
0.0434381
0.0219759
0.0219812
0.02219
0.022286
0.0374516
0.022173
0.128893
0.148954
0.0258517
0.0245388
0.0457885
0.0220483
0.0444868
0.0323566
0.0223597
0.0221032
0.0221423
5.16694
0.0220168
0.272225
0.0410898
0.0222537
0.0220334
0.0217394
4.77968
0.0253695
0.0424705
0.0525128
4.98345
0.0280959
4.37556
2.22076
0.0430667
0.0219755
0.235227
0.0388105
5.17678
0.0710847
4.73389
0.0216293
0.0499406
0.0488818
4.66893
0.0220071
0.0447609
5.10615
0.0218573
7.90497
10.0511
3.12171
0.0219795
0.0217743
5.12403
0.0220496
4.50395
0.170571
4.30366
4.62382
0.0218826