/*--------------------------------*- C++ -*----------------------------------*\
| =========                 |                                                 |
| \\      /  F ield         | OpenFOAM: The Open Source CFD Toolbox           |
|  \\    /   O peration     | Version:  v2012                                 |
|   \\  /    A nd           | Website:  www.openfoam.com                      |
|    \\/     M anipulation  |                                                 |
\*---------------------------------------------------------------------------*/
FoamFile
{
    version     2.0;
    format      ascii;
    class       volVectorField;
    location    "250";
    object      U_0;
}
// * * * * * * * * * * * * * * * * * * * * * * * * * * * * * * * * * * * * * //

dimensions      [0 1 -1 0 0 0 0];


internalField   nonuniform List<vector> 
13851
(
(1.13474 0.069541 -9.31459e-21)
(1.07266 -0.0198953 -1.99196e-20)
(1.07098 -0.018945 1.35117e-20)
(-0.192836 -0.00746059 0)
(1.00213 -0.000463165 0)
(1.0837 -0.0339194 -1.80888e-20)
(1.05572 0.0162055 1.622e-20)
(1.01328 -0.000736733 3.76133e-21)
(0.31127 0.0536023 -1.85062e-20)
(0.991354 -0.00862171 5.41866e-21)
(1.16902 -0.0958938 -9.00114e-20)
(1.00146 -0.00864133 4.64537e-21)
(0.981251 -0.0209196 0)
(0.0889172 0.0238305 1.65268e-20)
(1.10102 0.0180585 -2.33664e-22)
(1.08077 0.0645326 3.31423e-21)
(-0.317393 0.00492219 -8.69156e-23)
(1.03572 -0.0180576 0)
(1.21801 0.0586138 -8.63668e-20)
(1.1366 0.0674849 -8.95732e-21)
(1.11444 0.0131441 2.5139e-20)
(1.04209 -0.0907004 9.43684e-21)
(0.50921 -0.248747 -7.1185e-20)
(1.00008 -0.000228371 -8.44655e-23)
(1.15023 -0.0123185 0)
(1.08209 0.0534381 -3.28309e-20)
(1.08033 0.0847149 -5.39564e-21)
(1.15577 0.102304 9.80964e-20)
(0.464259 0.0478799 -2.32667e-20)
(1.02086 -0.0116297 0)
(-0.095943 -0.00682434 0)
(1.05602 0.0155564 0)
(1.12475 0.0702447 0)
(0.368264 0.0838938 -4.1807e-20)
(1.13575 -0.0802197 -6.90602e-20)
(0.497988 0.0478814 -5.2518e-21)
(1.00005 -0.000205098 0)
(1.16862 -0.134621 -1.43386e-20)
(-0.0093595 0.0195021 3.05305e-20)
(1.00766 -0.0385293 0)
(0.178634 0.063064 6.09881e-20)
(0.50101 0.0515921 1.17373e-20)
(-0.240035 0.00314123 0)
(1.10616 -0.481385 -9.2989e-20)
(0.514789 0.057701 5.73789e-21)
(1.0153 -0.0224646 0)
(1.01887 0.000138313 0)
(1.08652 0.0669609 1.51096e-20)
(1.04796 -0.0554928 -3.6184e-21)
(0.980864 -0.0199725 0)
(-0.265112 0.0110432 -1.65081e-19)
(0.973894 -0.0143871 0)
(1.08128 0.0645614 0)
(1.07201 0.0286746 3.64277e-20)
(0.163457 0.0200978 4.0853e-20)
(1.00662 -0.0388486 2.17526e-21)
(1.12666 0.0715921 0)
(0.143634 0.0564167 -8.08325e-20)
(1.07494 0.0746228 0)
(-0.0535572 0.022752 0)
(1.00135 -0.00817862 -1.42224e-21)
(1.08567 0.0839902 -3.4905e-20)
(0.995577 -0.00354682 0)
(1.04849 -0.0577481 4.90759e-21)
(0.880651 -0.452611 -3.01087e-21)
(0.861815 -0.47306 -1.24159e-22)
(-0.0756505 0.0183077 -1.43044e-20)
(0.694654 -0.127753 8.54265e-20)
(1.02164 -0.0391098 -2.29656e-21)
(-0.161245 -0.00554004 -2.81443e-20)
(-0.165343 0.00256439 -9.18542e-20)
(1.12472 0.0181565 -3.50586e-20)
(0.994484 -0.027422 8.1192e-21)
(-0.0552063 0.0206671 0)
(1.07955 0.0268195 -4.12048e-21)
(1.02309 -0.0737538 2.04432e-21)
(-0.292666 0.00242589 9.28639e-20)
(1.02137 -0.00568554 0)
(1.21559 -0.0176179 0)
(1.00541 -0.0183118 1.50108e-21)
(1.02291 -0.039673 -2.91077e-21)
(1.27386 -0.0821922 1.10085e-19)
(1.13202 -0.0820904 3.74537e-20)
(0.0751226 0.0243552 1.33905e-20)
(-0.0365721 0.023737 0)
(-0.119884 -0.00298107 0)
(1.04546 -0.0918151 -1.04264e-20)
(0.278881 0.0161168 -1.59074e-22)
(0.992124 -0.0127954 -1.8588e-20)
(-0.092553 -0.00590811 0)
(0.972611 -0.0136173 4.27333e-21)
(1.05731 0.0155013 -3.01849e-20)
(-0.241187 0.00360743 -9.85437e-20)
(-0.151745 -0.00239886 0)
(-0.0627794 0.0228907 -2.81726e-20)
(1.09069 -0.441383 6.18603e-21)
(1.01044 -0.0243794 -4.80471e-22)
(1.08345 0.0661637 0)
(-0.205262 0.0142719 -1.52412e-19)
(1.22649 -0.193501 0)
(1.0837 0.0670058 0)
(0.811986 -0.120396 -5.46341e-22)
(0.812623 -0.153547 -1.77525e-20)
(0.990426 -0.0292698 0)
(1.01884 -0.0219289 0)
(1.13228 0.00230457 -9.57259e-21)
(1.0181 -0.0217219 -2.50919e-21)
(-0.146489 0.000422649 5.20598e-20)
(1.05755 0.0147065 1.13833e-20)
(1.03476 -0.0175562 0)
(1.03066 -0.130485 -5.58115e-21)
(1.01608 -0.0228279 1.84368e-21)
(1.22559 -0.00926939 0)
(1.16782 -0.0383099 0)
(1.1095 0.0717599 1.64977e-20)
(1.07148 0.0273219 -1.19531e-20)
(1.01461 -0.00784666 -2.93187e-21)
(1.01392 -0.00085401 1.2263e-22)
(-0.208916 -0.00530527 0)
(-0.125949 -0.00909351 0)
(1.12059 -0.364614 -1.04164e-19)
(1.02894 -0.0149654 -9.04957e-22)
(1.01676 -0.0399663 -5.84912e-22)
(0.0739108 0.0429859 -2.67958e-20)
(1.18709 0.0712348 0)
(0.616071 -0.209478 6.01228e-20)
(1.01093 -0.0240601 0)
(1.13698 -0.149194 0)
(0.207845 0.0669219 -2.15799e-20)
(1.11203 0.025316 0)
(1.03872 -0.0928026 1.08037e-21)
(1.10219 -0.0615518 2.27311e-20)
(1.30444 -0.156601 1.14082e-19)
(0.351283 0.0817138 -2.05278e-20)
(1.1735 -0.0927916 7.16854e-20)
(-0.0717439 0.0224832 5.91203e-20)
(0.70768 -0.12008 0)
(-0.134799 -0.00156337 2.50247e-20)
(0.849373 -0.0916079 -2.4327e-20)
(1.10699 0.0280492 -4.25661e-20)
(1.27118 -0.0860714 -1.09123e-19)
(0.976053 -0.0455441 2.26111e-20)
(0.991426 -0.0129431 1.29729e-20)
(0.746066 -0.314609 5.07893e-20)
(1.112 0.0224204 0)
(1.00937 -0.0724369 -4.91284e-21)
(1.02112 -0.00528279 -2.61033e-21)
(-0.143029 -0.00337437 -9.01934e-20)
(0.31665 0.0379252 1.36939e-20)
(1.14232 -0.15143 0)
(1.08455 0.0672231 -3.43394e-20)
(1.22387 -0.0126573 0)
(1.17211 -0.0372674 -4.10407e-20)
(1.20438 0.0559924 0)
(0.973056 -0.0241632 0)
(0.983904 -0.0101521 4.92981e-21)
(1.00144 -0.00686527 1.79095e-21)
(-0.0451453 0.0163499 3.66199e-20)
(1.10533 0.0241924 3.7507e-20)
(1.06023 0.00583756 0)
(1.00015 -0.000529886 0)
(0.477724 0.0473379 -2.70834e-21)
(1.12922 0.00302335 1.67355e-20)
(1.08747 0.0671382 1.24423e-20)
(0.0933084 0.0225078 -3.00017e-20)
(0.408483 0.0636119 0)
(0.42023 0.0657093 -6.35429e-21)
(-0.247396 0.0124849 1.69156e-19)
(1.0313 -0.125491 0)
(0.703453 0.0858971 1.08842e-19)
(1.00104 -0.00758661 0)
(1.01453 -0.00745119 1.07987e-21)
(1.14897 -0.000579396 0)
(1.00113 -0.000437367 0)
(-0.0344367 0.0276226 4.27377e-20)
(1.10342 0.0993754 -4.8685e-20)
(1.08934 0.0718188 -8.00841e-21)
(1.01509 -0.00738301 1.36454e-21)
(1.07748 0.0281104 3.13592e-20)
(1.08906 0.0706174 -1.35083e-20)
(1.18253 0.0702251 2.04059e-20)
(1.1131 -0.462701 4.31439e-20)
(1.03673 -0.118195 0)
(1.10986 0.0252782 0)
(-0.253906 0.00260634 0)
(0.325597 0.0380579 -3.11369e-20)
(1.12276 0.0717012 0)
(0.890366 -0.0687627 0)
(0.977563 -0.0248997 2.39115e-20)
(1.01942 -0.0161177 -1.96999e-21)
(1.20922 0.0175782 -7.9114e-20)
(1.10634 0.023064 0)
(0.0682812 0.0169869 -2.28856e-20)
(1.08504 -0.0316508 -2.67682e-21)
(1.01113 -0.0702817 0)
(1.08233 0.0653173 0)
(1.12086 0.0703335 -6.77096e-22)
(1.04538 -0.00863238 1.71711e-20)
(1.042 -0.0261083 -9.19458e-21)
(0.7109 -0.163411 -6.35753e-20)
(1.2724 -0.0979483 0)
(-0.00308946 0.0373046 0)
(0.124296 0.0579781 -1.67596e-20)
(1.09919 0.0187562 -2.19298e-20)
(0.949955 -0.723986 2.13199e-20)
(-0.0358669 0.0352918 8.53466e-20)
(0.937978 -0.0227774 0)
(1.09805 0.0339857 0)
(0.302525 0.0567005 2.67896e-20)
(1.07841 -0.0422099 0)
(1.07996 0.0640223 0)
(1.01607 -0.0391618 -3.46636e-22)
(1.27533 -0.0934898 -1.5604e-20)
(1.00014 -0.00234476 6.09742e-21)
(1.1393 -0.0725386 0)
(1.02703 -0.0814605 -6.74171e-22)
(0.982128 -0.0188302 -6.16517e-21)
(1.14735 0.0841107 -3.43789e-20)
(1.04543 -0.0174399 8.11807e-23)
(0.152686 -0.543204 -1.11627e-19)
(1.0151 -0.00697343 -3.19277e-21)
(1.14179 0.0660802 -4.04277e-20)
(0.0542917 0.0200265 1.9166e-22)
(-0.0560014 0.0235967 1.34605e-19)
(0.902556 -0.0780599 0)
(1.09757 0.0349309 0)
(1.00003 -0.0011833 0)
(0.748992 -0.293123 2.0289e-20)
(1.00194 -0.013655 8.97291e-22)
(1.13589 -0.0740231 1.76742e-20)
(-0.0462473 -0.0280821 1.8524e-19)
(0.896095 -0.0693997 -2.71586e-20)
(1.07811 -0.0400223 0)
(0.996298 -0.00154934 0)
(0.10966 0.0566065 0)
(1.02152 -0.011405 -4.37191e-21)
(0.879573 -0.421106 1.25282e-19)
(0.102025 0.0534819 0)
(1.21855 -0.188289 -1.33917e-21)
(1.00011 -0.000507068 2.05488e-22)
(1.30806 -0.327954 5.74854e-21)
(-0.0228375 0.0237713 0)
(0.545919 0.0602969 1.57452e-20)
(1.08039 0.0640136 0)
(1.10647 -0.00661498 2.15249e-20)
(0.709721 -0.346737 0)
(1.14762 0.0811152 6.36706e-20)
(1.0769 0.0292515 -1.66724e-20)
(1.0933 -0.423055 4.039e-20)
(1.05029 -0.131959 -2.58567e-21)
(0.215082 0.0159342 1.06197e-20)
(1.17195 0.0487847 8.96399e-20)
(1.01041 -0.000800167 -2.06185e-21)
(1.08206 -0.00969087 -2.30498e-20)
(1.08271 0.0661295 -1.77449e-21)
(0.466265 0.0452438 7.04263e-22)
(0.353222 0.0181088 -8.35944e-21)
(1.01893 -0.0154292 2.02973e-21)
(0.591704 -0.205075 -1.35724e-19)
(0.993009 -0.0136088 0)
(1.12293 0.0836408 0)
(1.19232 0.0654295 -2.85839e-20)
(1.08387 -0.00895491 1.8025e-20)
(1.12915 0.00660258 1.26296e-21)
(1.17584 0.0489777 -8.55359e-20)
(1.00021 -0.025414 8.13748e-21)
(0.807265 -0.130284 -3.97157e-20)
(1.08967 0.06481 2.54927e-20)
(1.18307 0.103107 -1.91014e-20)
(0.997972 -0.00892459 -6.15308e-21)
(0.981996 -0.017852 -2.47046e-21)
(0.896967 -0.0766008 -1.81541e-20)
(0.398956 0.074999 -3.79567e-20)
(-0.259043 0.00074581 -2.38725e-19)
(1.1174 0.0186518 2.81005e-20)
(1.02997 -0.015417 4.65463e-21)
(1.18074 0.0740026 -4.69313e-21)
(1.1983 0.0610119 -2.34034e-21)
(1.11378 0.0674026 0)
(1.12686 0.00726132 8.74225e-21)
(0.36606 0.0702194 3.40927e-20)
(-0.169122 0.0152907 -3.27449e-20)
(1.08802 -0.0171492 0)
(1.0958 0.0149661 -3.55388e-20)
(1.10536 -0.16119 5.43669e-20)
(1.02083 -0.020957 -6.74198e-21)
(1.00156 -0.00649519 -1.73032e-21)
(1.11576 0.0686123 -2.00628e-20)
(1.15393 -0.112263 0)
(1.02285 -0.0115341 -5.43812e-21)
(1.00015 -0.00229758 -1.98362e-21)
(1.00172 -0.0140597 0)
(1.00435 -0.000638217 0)
(1.10224 0.00221331 -6.32331e-20)
(1.00162 -0.00692519 -5.62846e-21)
(0.322668 0.0567518 1.90002e-20)
(1.1162 0.0146795 0)
(1.01248 -0.0323946 6.21534e-23)
(0.473361 0.0438959 -5.91049e-21)
(0.062375 0.040263 0)
(0.975218 -0.0196537 0)
(1.14002 0.0684459 2.12546e-20)
(-0.239143 0.0123136 -1.61084e-19)
(0.974961 -0.0479164 -1.0789e-20)
(0.973819 -0.01904 -4.65936e-21)
(1.11879 0.0146066 0)
(0.0397518 0.0205544 0)
(0.205944 0.00233603 3.88926e-20)
(1.14904 0.0132209 0)
(1.00235 -0.000606324 3.2291e-22)
(0.74184 0.0890499 -7.28471e-20)
(1.00115 -0.00803795 0)
(1.15567 0.0132849 -6.46629e-20)
(-0.221259 0.0143039 1.45931e-19)
(1.18267 0.10468 9.70479e-20)
(1.05905 0.00536777 -1.1315e-20)
(1.21639 -0.196739 -5.54998e-20)
(1.34225 -0.173526 -6.12687e-20)
(-0.118564 0.00385974 9.32254e-21)
(1.22562 -0.0213847 0)
(0.78167 -0.0991856 0)
(-0.0265862 0.0235846 0)
(0.115514 0.0525344 -3.01795e-20)
(1.17328 0.100613 -5.29208e-20)
(1.04338 -0.0268277 1.02206e-20)
(-0.263424 0.00195205 3.19838e-22)
(0.162613 0.0093737 0)
(0.461817 -0.45835 -1.24907e-19)
(0.497078 -0.46459 5.37404e-20)
(0.936453 -0.0239674 5.40935e-21)
(1.15268 0.00482156 5.49153e-20)
(0.949797 -0.119245 1.4651e-20)
(0.287488 0.0169325 -1.04676e-20)
(0.787499 -0.146496 0)
(1.00825 -0.00191709 4.33351e-22)
(1.01896 9.67469e-05 0)
(1.0732 -0.0791181 2.44289e-20)
(-0.144939 0.000947197 4.11672e-20)
(0.206489 -0.550325 -4.70208e-20)
(1.02081 -0.0201452 3.83174e-21)
(-0.0722837 0.0227892 -8.74139e-20)
(0.938858 -0.116768 0)
(1.10314 -0.0646182 1.15705e-20)
(1.06036 0.00676015 4.19718e-21)
(0.0310082 0.0172475 0)
(1.17687 0.0735244 1.61528e-20)
(1.08163 0.0652593 0)
(1.02461 -0.0792452 -2.24862e-21)
(1.07542 -0.0393205 0)
(0.543566 0.0454584 -2.55991e-20)
(0.977441 -0.0264965 -2.54511e-20)
(1.20336 0.060317 0)
(1.08638 -0.0159783 0)
(1.12035 0.0132859 3.31855e-20)
(0.933052 -0.11906 0)
(0.992356 -0.0136306 7.09863e-21)
(1.01325 -0.0319459 3.82115e-22)
(1.23558 -0.0819158 -9.36465e-21)
(1.23489 -0.189239 -2.84747e-21)
(1.16734 0.052786 0)
(1.35934 -0.174992 -1.19114e-19)
(0.55332 0.0470645 3.50684e-20)
(1.01069 -0.0738597 5.12459e-21)
(0.0849004 0.0528365 0)
(1.1277 0.0900678 0)
(1.02748 -0.00740226 0)
(1.16831 0.106919 -7.17672e-20)
(1.13583 0.0502761 6.81306e-20)
(-0.190265 0.0166124 5.59053e-20)
(1.07105 -0.076639 2.02252e-20)
(1.07809 0.0558412 3.18306e-20)
(1.07683 0.0743583 0)
(1.25857 -0.0798745 -2.22093e-19)
(1.23207 -0.0925162 0)
(0.277381 0.0171586 3.39108e-20)
(1.04746 -0.0375939 -9.30642e-21)
(1.10407 0.101758 5.87332e-20)
(-0.337975 0.00328851 0)
(1.10247 -0.0193721 -9.95996e-21)
(0.236133 0.0199616 0)
(1.10995 -0.0209925 -2.31335e-20)
(0.129213 0.0539156 0)
(1.095 0.0137325 0)
(1.07275 0.0408901 0)
(1.17983 0.0425319 0)
(1.25961 -0.165486 -6.60962e-20)
(0.984009 -0.0110702 -1.10595e-20)
(1.08566 -0.0227475 -2.44329e-20)
(1.15843 -0.115212 3.93397e-20)
(1.07903 0.0280332 0)
(1.01364 -0.024706 0)
(1.11692 0.0207261 -3.99718e-20)
(0.648879 0.104598 4.56566e-20)
(0.995278 -0.0273384 -9.5878e-21)
(1.09975 0.0330918 0)
(-0.22034 -0.00622222 -5.78639e-20)
(1.06827 -0.0371045 -7.55207e-21)
(1.26384 -0.485568 -8.52394e-20)
(1.08312 0.0403664 2.09811e-22)
(0.265199 0.0015768 3.55732e-20)
(1.08104 -0.043593 0)
(1.0818 0.0524282 0)
(0.923041 -0.695975 2.01131e-20)
(1.19152 0.068158 0)
(1.13328 -0.00345791 -9.17803e-20)
(0.333813 0.015369 3.21797e-23)
(-0.0439239 0.0197735 0)
(1.27267 -0.322237 0)
(0.999435 -0.0255012 -9.83768e-21)
(1.23178 -0.0784713 0)
(1.11198 -0.0279705 5.17732e-20)
(1.07884 0.0551543 0)
(1.02762 -0.0167461 1.3696e-20)
(-0.245359 0.00444542 0)
(0.595415 0.0976656 -2.79426e-20)
(1.21482 -0.0466016 -1.14874e-20)
(1.07489 -0.037278 9.05853e-21)
(1.17943 0.0452973 0)
(1.09037 0.0886639 -1.11916e-20)
(-0.244782 -0.00171575 2.40707e-19)
(1.02379 -0.00243482 0)
(-0.298991 0.00460647 -1.37455e-22)
(1.26959 -0.150673 -9.54827e-20)
(0.269469 -0.165009 0)
(1.05478 -0.134706 8.57033e-22)
(1.15266 0.08114 -5.33907e-20)
(0.987935 -0.0181217 0)
(1.00132 -0.000374501 0)
(0.154132 0.0173194 -4.83284e-20)
(1.09303 0.0913725 -2.7691e-20)
(0.990682 -0.00921049 -1.93793e-20)
(1.07263 -0.0214568 0)
(1.10156 0.0333748 8.52899e-21)
(1.01293 -0.00851168 0)
(0.671129 0.101312 0)
(1.15253 0.00783456 -1.54673e-20)
(1.13658 0.048658 -6.43368e-20)
(1.0749 0.00501445 6.82683e-22)
(1.04809 -0.0363671 1.48373e-20)
(0.972208 -0.00841748 -2.56978e-22)
(1.30507 -0.0927526 1.41843e-19)
(1.0113 -0.0317222 1.63453e-21)
(0.973235 -0.00736853 0)
(0.903088 0.0701113 -1.77944e-20)
(0.684026 0.103646 -4.28429e-20)
(1.03545 -0.0903816 -7.38366e-21)
(1.08324 0.0747865 0)
(0.995753 -0.00300339 0)
(1.00173 -0.00654968 1.92321e-21)
(1.07066 -0.0379108 1.44571e-20)
(1.17058 0.053044 0)
(1.07955 0.0415729 1.54013e-20)
(1.01355 -0.026168 -1.92255e-22)
(1.05693 -0.0282237 1.86607e-20)
(1.12209 -0.353332 6.85329e-20)
(1.06384 -0.0143307 -1.02625e-20)
(0.303196 -0.00755219 0)
(1.00162 -0.0080731 4.3154e-21)
(1.07329 0.0169005 -1.12744e-20)
(0.521142 0.0593019 1.14341e-20)
(0.94144 -0.16302 0)
(1.01846 -0.000531538 7.1115e-21)
(1.00059 -0.00711285 -7.63463e-22)
(1.07465 0.00395922 0)
(1.04811 -0.00730764 -1.29255e-20)
(1.2549 -0.374835 8.36523e-20)
(0.824768 0.0690085 1.01218e-20)
(1.10734 -0.00486812 5.76996e-21)
(0.320065 -1.13738 -7.0693e-20)
(1.07228 -0.0363419 -8.07214e-21)
(1.0005 -0.0110135 -5.42253e-22)
(0.254679 0.0683392 -3.99414e-20)
(1.07844 0.0752176 0)
(0.87948 -0.12605 -4.18832e-20)
(0.996561 -0.0311138 0)
(0.103804 0.049582 4.06709e-20)
(0.859036 -0.0970129 -4.5171e-20)
(1.18314 -0.648637 0)
(0.989762 -0.0284413 6.69326e-21)
(1.10478 -0.0558686 -6.23757e-20)
(1.23614 -0.0892739 -9.03956e-21)
(1.08596 0.0265867 0)
(0.151009 0.058778 7.90832e-20)
(1.08763 0.0882469 -3.11798e-21)
(1.27658 -0.0585115 0)
(0.978146 -0.0716164 -7.45566e-21)
(1.22736 -0.0176598 0)
(1.00139 -0.026628 0)
(0.453175 0.0461389 2.25299e-20)
(1.08381 0.0396966 1.11401e-20)
(1.11896 0.0706002 2.55762e-20)
(1.11018 -0.0260224 -2.11428e-20)
(1.02506 -0.0760034 -1.79918e-21)
(0.948113 -0.160281 -3.86695e-20)
(1.1492 0.00313088 0)
(1.0019 -0.000558697 4.79627e-22)
(-0.276187 0.0024008 1.1285e-19)
(0.222535 0.0636482 4.36258e-20)
(0.342802 -0.0125942 -6.46613e-20)
(-0.185946 0.00282742 5.11801e-20)
(0.844867 0.0701988 0)
(-0.244284 0.00976257 0)
(1.19748 0.0646594 4.16388e-20)
(0.914006 -0.0815478 0)
(0.999714 -0.00330639 0)
(1.22871 -0.481945 0)
(0.991365 -0.0078981 -5.81248e-21)
(1.01329 -0.0240517 -1.62583e-22)
(0.908208 -0.0984362 1.49298e-20)
(-0.0112264 0.0312666 0)
(1.06949 -0.0129798 -2.28368e-20)
(0.971463 -0.0409189 -1.52181e-20)
(1.08139 -0.284002 -2.97975e-20)
(1.14241 -0.0269001 0)
(0.989255 -0.0033781 0)
(0.657434 0.023281 9.53538e-20)
(1.00909 -0.0234969 7.93496e-22)
(0.258291 0.072595 -2.0616e-20)
(1.24413 -0.358722 0)
(1.00586 -0.0188983 -2.67492e-21)
(1.06333 -0.00436508 -2.47288e-20)
(1.27192 -0.122922 0)
(1.17056 0.104945 -1.03564e-20)
(1.02226 -0.0118436 -6.74031e-23)
(0.947179 -0.0781556 1.58247e-19)
(1.05099 -0.392253 0)
(1.03085 -0.00156944 4.86116e-21)
(-0.0733118 0.0113106 -1.05914e-19)
(1.21475 0.0591653 8.3384e-20)
(1.14665 0.0640437 0)
(0.976618 -0.0698974 -3.44868e-21)
(0.920491 0.0712842 -4.82031e-21)
(-0.111038 0.0200845 -1.31254e-20)
(1.03157 -0.00173434 -5.73379e-21)
(1.24893 0.0043195 5.47898e-20)
(1.01919 -0.0394912 -1.90919e-21)
(1.00958 -0.0240308 0)
(0.969818 0.0665332 0)
(0.13345 0.053736 -4.77719e-20)
(1.12452 -0.0262801 0)
(1.0784 0.0412496 -2.35687e-20)
(0.990694 -0.00665695 -8.17104e-21)
(1.0873 0.0478511 -4.89288e-21)
(0.241446 0.0708153 6.03577e-22)
(-0.0481963 0.0186687 -6.35041e-20)
(1.03504 -0.0046897 0)
(-0.295744 0.00822673 -6.25739e-20)
(1.01315 -0.025563 0)
(1.02048 -0.0401803 1.99038e-21)
(1.13406 -0.00125728 6.60968e-20)
(1.06904 0.0210885 -2.58268e-20)
(1.02397 -0.00212097 -8.79665e-21)
(1.0202 -0.0739582 7.84748e-22)
(-0.0585137 0.0108494 1.44475e-19)
(1.25431 -0.162008 1.6834e-21)
(-0.0883773 0.0107281 0)
(1.0674 -0.0136208 -1.00554e-20)
(0.993246 -0.0143333 2.124e-22)
(0.424632 0.0741075 -8.09701e-21)
(0.999532 -0.00452146 0)
(1.2326 -0.068229 0)
(1.07791 0.0115858 -3.26481e-20)
(1.0817 0.0252812 0)
(1.10782 -0.0111296 0)
(0.626549 0.065459 0)
(-0.154904 0.0174675 -6.7152e-20)
(1.08387 -0.0272488 -2.78756e-20)
(-0.298422 0.00335269 1.05438e-19)
(1.05817 0.00315635 -1.06775e-20)
(1.16089 -0.00953321 0)
(0.510368 0.0537604 -5.86757e-21)
(0.189314 0.0264404 3.79411e-20)
(1.01288 -0.0404277 4.43141e-22)
(1.00064 -0.0265689 -4.78234e-21)
(0.81993 -0.162358 0)
(-0.0784424 0.011078 -1.67503e-19)
(1.08119 0.0690859 -1.40598e-20)
(1.08622 0.0473515 3.88394e-21)
(1.06467 -0.562595 -1.57734e-19)
(1.0688 0.0218244 2.43867e-20)
(1.09282 0.0141821 2.27588e-20)
(0.038221 -0.0387912 0)
(0.60453 0.0164764 -1.2178e-19)
(1.09495 -0.343327 3.66886e-20)
(0.241795 0.0703686 -7.21977e-21)
(1.10317 0.080706 -3.18213e-20)
(0.559226 0.0510266 -1.25738e-20)
(1.04317 -0.0364722 -1.2339e-20)
(1.07563 0.0740211 -1.02317e-20)
(1.23202 0.0774433 -8.29563e-22)
(1.00011 -0.0096096 0)
(-0.334213 0.00732247 2.46751e-20)
(0.413882 0.050579 0)
(1.03651 -0.123579 0)
(1.10912 0.0275843 2.19807e-20)
(1.00324 -0.0361289 1.3636e-22)
(0.463182 -0.853101 0)
(1.15263 -0.185833 -5.46347e-21)
(0.558675 -0.176954 -1.87072e-19)
(1.01063 -0.0322455 1.41722e-21)
(1.0008 -0.000519347 0)
(0.911279 -0.0492467 -1.39536e-20)
(1.14114 -0.0298553 0)
(1.00167 -0.00777453 -1.0445e-21)
(-0.0416283 0.0287824 -4.549e-20)
(1.00093 -0.000616333 -8.7263e-22)
(1.10523 0.0802627 2.95589e-20)
(0.97129 -0.0684614 1.32846e-20)
(1.07964 0.0556359 0)
(0.991367 -0.0288697 0)
(0.988534 -0.00352387 0)
(1.09963 -0.159754 4.87402e-20)
(-0.294112 0.00626515 -1.75633e-19)
(1.13539 -0.00885737 0)
(-0.0863693 0.0222455 -6.66751e-20)
(1.10528 -0.0590541 4.04565e-20)
(1.01316 -0.00952351 1.96757e-21)
(1.03057 -0.00969861 9.50164e-21)
(1.15205 -0.00239711 3.50314e-21)
(1.05585 -0.02931 0)
(1.19822 -0.0218567 0)
(1.07399 -0.0147619 -1.73216e-20)
(0.879297 -0.118275 0)
(1.07421 0.0730018 8.9103e-21)
(0.999409 -0.00427364 0)
(0.355496 0.0131355 -1.00398e-20)
(1.00007 -0.00160144 0)
(1.07942 0.0601821 -5.02017e-21)
(-0.281454 0.00348623 -2.33487e-19)
(0.47905 0.0634146 1.22692e-20)
(0.882526 -0.0301202 0)
(0.769242 -0.257852 1.40216e-19)
(1.06994 -0.283469 2.215e-20)
(1.23353 -0.243384 4.56326e-20)
(0.383926 0.0519692 0)
(1.03749 -0.00559305 -9.97127e-21)
(0.564803 0.0209166 -1.20497e-19)
(0.944403 -0.121489 -3.39825e-20)
(1.10516 -0.0192214 3.29849e-20)
(-0.174009 0.00043115 -9.07948e-20)
(1.2958 0.00622351 -8.67589e-21)
(1.02796 -0.00785632 -5.05739e-21)
(1.19594 -0.024412 0)
(1.04462 -0.00787394 -5.69986e-21)
(0.524562 0.0471044 1.27035e-20)
(-0.278911 0.00883528 0)
(1.02569 -0.0413354 0)
(0.693009 -0.152915 -4.2826e-20)
(0.657659 0.0974613 5.83392e-20)
(0.999995 -0.00137945 -5.11742e-21)
(0.999993 -0.00184756 -6.35813e-21)
(1.08144 0.0539526 4.10132e-20)
(0.336567 0.010768 2.83633e-20)
(0.992804 0.0738181 2.47198e-20)
(0.973975 -0.0176299 0)
(1.18496 0.0374572 -1.10546e-19)
(1.06207 -0.0144172 -9.96481e-21)
(0.987446 -0.0046127 -8.08198e-21)
(1.07409 0.0718579 0)
(1.18425 0.0407311 1.15635e-19)
(1.2284 -0.174228 -3.49719e-20)
(1.02245 -0.00202128 0)
(1.09079 0.0648835 0)
(0.909918 -0.211167 0)
(1.0805 0.0506467 1.4965e-20)
(0.957662 -0.0204201 -1.70923e-20)
(1.00971 -0.0676668 0)
(1.14482 -0.185821 0)
(0.915475 -0.0503131 0)
(1.08816 0.0659378 2.62069e-20)
(1.12198 0.0190238 0)
(1.12547 0.0157463 3.60817e-20)
(1.08306 -0.330596 -6.08668e-20)
(1.18538 -0.667391 0)
(1.22088 0.0540975 4.8574e-20)
(0.741064 0.0981236 -1.62257e-20)
(1.05576 -0.0840371 -4.92097e-20)
(1.08521 0.0668463 5.16591e-20)
(0.117847 0.0317389 -2.9612e-20)
(1.02775 -0.177813 6.9676e-21)
(0.940915 0.0664345 0)
(1.14502 0.0666338 4.82016e-20)
(1.03239 -0.0193237 0)
(1.09175 0.0128714 -4.03095e-20)
(1.21613 0.0499788 -4.19631e-20)
(1.0606 -0.0856309 0)
(1.00546 -0.0176421 -1.5394e-22)
(1.00594 -0.0166854 0)
(1.08067 0.0602062 2.03957e-20)
(0.270838 0.0142179 -1.85009e-20)
(1.07479 0.0169161 1.14188e-20)
(0.0654537 0.0484871 0)
(1.01299 -0.00990927 2.0695e-21)
(0.964234 0.0739796 -5.14452e-21)
(1.0071 -0.376108 1.59648e-21)
(-0.248568 0.0119088 1.89432e-19)
(1.19647 -0.0301696 0)
(1.08332 -0.0428576 0)
(1.07143 -0.0171891 2.02877e-21)
(-0.234768 0.0143022 -1.22203e-19)
(1.23026 -0.168511 -4.29471e-20)
(1.02812 -0.170771 6.01319e-21)
(1.08979 0.0910333 1.0126e-20)
(1.0467 -0.0343534 2.51284e-20)
(1.25386 -0.438392 1.36269e-19)
(1.08008 0.0604419 -3.58804e-22)
(1.10752 0.0813665 0)
(1.1097 -0.0385554 -4.46337e-20)
(1.28771 -0.137384 1.27125e-19)
(0.988675 -0.0185222 5.69547e-21)
(1.00009 -0.00188271 0)
(0.941281 -0.0223304 0)
(0.986837 -0.00542829 9.79343e-21)
(0.491302 0.0531717 6.20607e-21)
(1.0041 -0.000780413 0)
(1.07392 0.071412 0)
(0.387685 0.0714934 8.2264e-21)
(1.20023 -0.0319338 1.4114e-20)
(-0.03261 0.021281 0)
(-0.190863 0.0156342 4.3911e-20)
(1.1088 0.0826844 0)
(1.2425 -0.239272 7.26487e-21)
(0.885504 -0.0374622 9.59805e-22)
(0.998607 -0.00100814 1.11414e-20)
(0.983211 -0.0170568 -8.24794e-22)
(1.02031 -0.0058754 0)
(1.02987 -0.00981049 -1.14322e-20)
(1.00109 -0.000571201 1.79067e-21)
(1.15866 -0.00253899 -5.41434e-20)
(1.21887 -0.00179435 0)
(0.906733 -0.222878 0)
(1.18297 0.101292 -1.41733e-19)
(1.02569 -0.0630383 0)
(0.295497 0.0537199 -1.78276e-20)
(0.999973 -0.000206102 0)
(-0.162517 -0.0109045 0)
(1.12446 -0.0876477 4.93313e-20)
(0.999916 -0.000416465 0)
(0.997027 -0.00178616 6.9927e-21)
(0.460865 0.064672 -6.36762e-21)
(1.08479 -0.0357033 1.7645e-20)
(1.00522 0.0866371 1.31026e-20)
(0.432573 0.0514514 0)
(1.1055 0.0268789 -1.96871e-20)
(1.13115 0.0350855 0)
(1.03031 -0.000773653 5.3295e-21)
(0.328584 0.0787205 4.4809e-20)
(0.987335 -0.0822029 1.30552e-20)
(1.0707 -0.0141999 2.97286e-20)
(1.07509 0.0725466 0)
(0.998661 -0.00147812 -4.37382e-23)
(0.974889 -0.0438221 -2.65575e-20)
(1.03541 -0.0103541 0)
(1.08614 0.0387279 -5.31836e-20)
(0.243661 0.0163972 -2.9976e-20)
(1.09594 -0.055703 -3.26133e-20)
(1.11041 -0.0329803 4.50666e-20)
(1.27333 -0.158147 1.18012e-19)
(-0.079617 0.0173105 0)
(0.887671 -0.0597479 9.65916e-20)
(0.990003 -0.10591 0)
(0.542673 0.0534069 -1.17086e-20)
(1.01988 -0.00569312 3.8821e-21)
(0.531716 0.0519504 1.6541e-20)
(1.00043 -0.00131143 1.01422e-21)
(1.06425 -0.0126585 3.41525e-20)
(1.22443 -0.0125315 -1.82174e-20)
(1.10078 0.0562677 2.93932e-21)
(1.11146 0.070902 -7.66111e-21)
(1.19879 -0.0930004 0)
(1.13609 -0.00620921 3.1596e-20)
(0.999528 -0.00144245 -5.21822e-21)
(0.999986 -0.00020584 -3.76443e-21)
(1.16495 -0.00847959 -3.54778e-20)
(1.04471 -0.0362744 1.31318e-20)
(0.99964 -0.00120902 9.35864e-21)
(1.07293 0.0207747 2.86313e-21)
(1.26148 -0.200322 0)
(1.00491 -0.00568034 5.15792e-22)
(1.22077 -0.257891 0)
(1.29078 -0.474654 2.12301e-20)
(1.04299 0.0811361 1.08512e-20)
(1.1971 -0.0882399 0)
(-0.0535346 -0.014101 -9.07763e-20)
(0.840104 -0.0946864 -6.7925e-21)
(0.998477 -0.00134138 0)
(1.23091 -0.104178 0)
(1.01246 -0.010395 0)
(1.08617 -0.0206793 0)
(0.788357 0.101417 1.35944e-20)
(0.564528 0.045629 0)
(0.554902 0.0215361 0)
(0.582974 0.0575072 0)
(1.02947 -0.0415207 0)
(1.02553 -0.0405022 2.35675e-21)
(0.984301 -0.282171 1.59512e-22)
(1.00603 -0.0651578 -2.62413e-21)
(1.02278 -0.0183944 0)
(0.54285 -0.277825 3.07356e-21)
(1.12036 0.0850462 0)
(0.222493 0.0224113 0)
(1.07899 0.0604484 0)
(1.10204 0.0569415 6.35228e-21)
(0.985481 -0.00736008 1.94364e-20)
(1.0207 -0.0121117 -3.66447e-22)
(1.30219 -0.328135 5.33447e-20)
(1.13911 0.0473058 6.95353e-20)
(1.0663 -0.0123083 -3.42965e-21)
(0.999802 -0.000507986 -2.11389e-21)
(1.10776 0.0709829 -2.12262e-20)
(1.23656 -0.0336988 -8.67929e-20)
(0.0777552 0.049131 0)
(0.973177 -0.0222205 -4.71989e-21)
(1.00101 -0.00357081 0)
(0.224705 0.0139807 1.67558e-20)
(0.958727 -0.019041 4.1784e-20)
(1.10891 -0.0160852 0)
(1.01254 -0.00804965 2.41058e-21)
(0.00777591 0.0337297 0)
(1.00986 -0.000467396 1.22699e-21)
(-0.273191 0.000457188 -9.41704e-20)
(0.994999 -0.00662153 -2.297e-21)
(1.21005 -0.192441 -1.45642e-19)
(1.11262 0.00646331 -2.79741e-20)
(0.960414 -0.286437 4.78842e-21)
(1.1116 -0.0366192 5.19469e-20)
(0.993781 -0.0264624 -7.90308e-21)
(1.07254 -0.0243655 2.02809e-20)
(1.00349 -0.00408052 -7.4677e-22)
(1.07369 0.0703614 -2.72815e-20)
(0.962025 -0.028069 -1.42196e-20)
(0.374106 0.0214606 0)
(1.04882 -0.033322 -9.09382e-21)
(1.03653 0.118209 1.5502e-20)
(0.301503 0.0713302 -6.53619e-20)
(1.1055 -0.0435986 -1.09838e-20)
(1.00408 -0.00291312 1.66963e-22)
(-0.194275 -0.0106255 1.17034e-19)
(0.824831 0.0707109 0)
(1.08628 -0.026969 5.27032e-20)
(1.09897 0.0561861 -6.12892e-20)
(0.983217 -0.0161224 -1.54659e-21)
(0.306828 0.0143364 0)
(1.0333 -0.0199419 -6.85714e-21)
(1.21852 0.0463002 0)
(0.999474 -0.0104986 5.18861e-21)
(1.00378 -0.00425291 3.77291e-22)
(1.03792 0.0886705 0)
(1.10846 -0.00915583 -1.8439e-20)
(1.00066 -0.00760354 -2.79821e-21)
(1.07325 0.0289547 -3.63603e-20)
(0.14148 0.0584487 1.90146e-20)
(0.725641 -0.805596 0)
(0.60627 0.0948951 -7.52364e-20)
(1.01809 -0.0154728 -1.97983e-21)
(0.13703 0.0353871 -6.39533e-21)
(0.997758 -0.00941788 0)
(1.00471 -0.00536018 -4.6068e-22)
(0.974566 -0.0251528 -1.87477e-20)
(1.01897 4.6501e-05 0)
(0.999903 -0.00256082 0)
(0.541432 0.0868287 -1.71209e-20)
(0.754064 0.105113 0)
(1.04604 -0.0184625 6.80381e-21)
(1.00096 -0.00084481 3.06863e-22)
(1.12572 -0.0231451 0)
(1.01662 -0.0226872 -4.34047e-21)
(-0.162902 -0.0149784 0)
(1.23497 -0.100285 -9.97761e-21)
(0.0986819 0.0265798 -1.41737e-20)
(-0.0133236 0.0231343 6.31571e-20)
(1.07222 -0.0255387 1.04617e-20)
(1.0891 0.066073 -2.82337e-20)
(1.00015 -0.010152 4.54881e-21)
(1.11483 0.0105125 -5.41182e-20)
(1.00148 -0.358135 0)
(1.03676 -0.00502958 3.0507e-20)
(1.00037 -0.0012929 -2.59495e-22)
(1.31487 -0.310674 0)
(-0.268472 0.00932877 0)
(1.12867 0.0350866 0)
(-0.340714 0.00166598 2.1763e-19)
(1.10935 0.0428531 -4.39078e-20)
(0.995904 -0.00383541 -4.34608e-21)
(1.13029 -0.03556 0)
(1.09794 0.0567806 4.63163e-20)
(-0.309405 0.00672361 -1.00251e-19)
(1.10013 0.000905782 -2.04534e-20)
(1.09188 0.0825688 2.28325e-20)
(1.14187 0.0477581 -7.56432e-20)
(1.00025 -0.0025556 1.26589e-21)
(0.345984 -0.107006 0)
(0.246257 -0.0718582 0)
(0.275727 0.0212742 -1.96104e-20)
(1.24959 0.00983902 1.01159e-20)
(0.979421 0.0646446 9.86195e-21)
(0.981104 -0.0723683 -1.67458e-20)
(0.731003 -0.360393 0)
(0.972582 -0.00565351 -1.85173e-20)
(1.14663 0.109335 5.07439e-20)
(1.0594 -0.0822774 0)
(1.00808 -0.00152805 0)
(0.553713 0.0908454 -7.27591e-20)
(1.02187 -0.0622994 4.18605e-22)
(1.00399 -0.00267367 -1.40883e-22)
(1.01416 -0.0404122 0)
(1.02038 -0.060596 -6.88187e-22)
(-0.0236801 0.0312257 0)
(1.20955 0.0551911 0)
(1.01244 -0.0146706 -5.92907e-22)
(1.13221 -0.0326233 4.84239e-21)
(0.0567705 0.0218276 -7.83123e-21)
(1.03959 -0.0563393 0)
(-0.356208 0.00367874 1.07996e-19)
(0.958744 -0.0448964 -1.85249e-20)
(1.10804 0.053269 2.87931e-20)
(0.0936073 0.0499887 0)
(1.00145 -0.00718478 5.60946e-21)
(1.07879 0.0693917 -2.27289e-21)
(1.07002 -0.0974102 2.35799e-20)
(1.10872 -0.0445064 -1.14682e-20)
(0.679022 -0.834684 0)
(1.02429 -0.0615397 0)
(1.26781 -0.0714453 -9.05209e-20)
(1.08063 0.0519487 2.63213e-20)
(0.187779 0.0641206 1.71918e-20)
(1.04562 -0.00203236 0)
(0.329235 0.0194766 0)
(1.10135 -0.022014 0)
(0.0407397 0.0336605 0)
(-0.301142 0.00809445 0)
(0.3066 0.0154444 0)
(1.10263 0.029353 2.94476e-20)
(0.990783 -0.0249876 -4.70563e-21)
(1.02888 -0.0427377 0)
(0.999975 -0.00134997 -5.32659e-21)
(1.07218 0.0396909 0)
(0.997064 -0.00362693 0)
(0.16395 0.0607846 -3.91429e-20)
(1.03267 -0.115289 0)
(0.927355 -0.0897287 1.04314e-20)
(0.890461 -0.0563381 -9.07486e-20)
(0.983151 -0.0709734 1.1342e-20)
(1.01765 -0.014925 3.4381e-21)
(1.0624 0.0223289 1.91394e-20)
(1.06652 -0.0830323 0)
(1.06334 -0.00563872 9.39431e-22)
(1.04638 -0.0953923 0)
(0.311401 0.0532879 7.8975e-20)
(1.07359 0.0692213 0)
(1.09771 -0.0132673 1.83543e-20)
(1.11983 -0.148422 0)
(0.584364 0.0902684 5.85287e-20)
(0.972176 -0.0433833 -6.54129e-23)
(-0.129013 0.00520319 -1.74887e-19)
(1.0193 -0.00572595 -3.84497e-21)
(1.0345 -0.139747 8.17536e-21)
(0.960179 -0.026785 1.59659e-20)
(1.02407 -0.0273082 -1.80373e-21)
(1.08398 -0.163648 1.37204e-20)
(1.00031 -0.0114011 0)
(1.01271 -0.0142903 2.61683e-21)
(0.78912 -0.110498 -4.25601e-20)
(0.982865 -0.0099453 0)
(1.25917 -0.192913 0)
(1.05389 -0.0289252 0)