/*--------------------------------*- C++ -*----------------------------------*\
| =========                 |                                                 |
| \\      /  F ield         | OpenFOAM: The Open Source CFD Toolbox           |
|  \\    /   O peration     | Version:  v2012                                 |
|   \\  /    A nd           | Website:  www.openfoam.com                      |
|    \\/     M anipulation  |                                                 |
\*---------------------------------------------------------------------------*/
FoamFile
{
    version     2.0;
    format      ascii;
    class       surfaceVectorField;
    location    "350";
    object      Uf_0;
}
// * * * * * * * * * * * * * * * * * * * * * * * * * * * * * * * * * * * * * //

dimensions      [0 1 -1 0 0 0 0];


internalField   nonuniform List<vector> 
20673
(
(1.10129 0.125176 1.39182e-20)
(1.10554 0.122502 -2.82834e-21)
(1.10059 0.119957 -5.01635e-22)
(1.02291 0.042047 -1.80954e-21)
(1.02165 0.0413938 1.4332e-21)
(1.02194 0.0433949 2.28027e-22)
(0.555626 -0.0831919 2.2975e-21)
(0.591607 -0.0859337 3.8366e-21)
(0.618867 -0.0864418 -3.80913e-21)
(1.05527 -0.0146078 6.42132e-21)
(1.05555 -0.0135393 -1.47601e-20)
(1.05437 -0.0138549 -1.26179e-20)
(0.996503 0.00398509 9.63954e-22)
(0.99633 0.00357456 5.13412e-21)
(0.996025 0.00415761 9.78072e-21)
(0.371837 0.0635206 -2.1103e-20)
(0.360209 0.0365711 -8.49264e-20)
(0.343216 0.0642552 -6.22997e-20)
(0.501982 -0.070173 5.03921e-22)
(0.496301 -0.0722617 0)
(0.547349 -0.0749026 -1.59532e-22)
(0.616234 -0.0873568 0)
(0.565525 -0.0844935 1.49294e-20)
(0.584962 -0.0879712 0)
(0.410447 -0.0789144 4.4497e-20)
(0.377506 -0.0748903 6.12973e-20)
(0.343394 -0.0706306 2.52298e-20)
(1.14401 0.150899 2.72129e-20)
(1.15039 0.150756 -1.53917e-20)
(1.14795 0.157105 -2.968e-21)
(1.11176 -0.0753281 -2.09492e-20)
(1.11015 -0.0754237 -3.68867e-20)
(1.11197 -0.076994 -3.40802e-20)
(1.09027 -0.0522989 3.79019e-21)
(1.0907 -0.053768 -1.00589e-20)
(1.09163 -0.0521693 0)
(1.05611 -0.0149892 1.72554e-20)
(-0.027595 -0.0110136 -3.34577e-21)
(-0.00656929 -0.0155571 2.09023e-20)
(-0.0344191 -0.0124655 -8.95145e-21)
(0.97578 0.0980097 8.43078e-22)
(0.971519 0.0975119 2.73062e-21)
(0.974547 0.0936869 -1.37465e-20)
(0.997968 0.0928361 -2.90218e-21)
(0.995565 0.090387 -2.50992e-22)
(0.99929 0.0889809 7.17367e-23)
(1.0162 0.0481661 -9.30299e-23)
(1.01765 0.0477846 -2.91662e-22)
(1.01645 0.0465753 2.80053e-22)
(1.14651 0.0129398 6.74786e-21)
(1.14772 0.0154685 6.24973e-21)
(1.14962 0.0119785 -4.50858e-20)
(1.08898 -0.0528132 -1.72111e-20)
(1.08946 -0.0511965 2.86262e-21)
(1.00168 0.00516245 6.95653e-22)
(1.00169 0.00493141 0)
(1.0015 0.00477645 1.02605e-21)
(0.999986 0.0010928 1.93867e-21)
(0.999976 0.00145566 1.77326e-21)
(0.999989 0.00109836 4.7545e-22)
(0.500823 -0.0703886 2.59745e-20)
(0.46468 -0.0702215 1.0942e-20)
(1.00105 0.00801153 0)
(1.00113 0.0084604 -1.39249e-21)
(1.00125 0.00830319 0)
(0.658312 -0.0929238 0)
(0.668406 -0.0939825 0)
(0.995599 0.0159281 -2.06841e-21)
(0.995114 0.0157349 -6.26737e-22)
(0.99537 0.0165252 5.43253e-22)
(0.553249 -0.0670181 2.98378e-20)
(0.51589 -0.0633129 -1.07498e-20)
(0.512164 -0.0653645 3.17986e-21)
(0.788928 0.0392613 -5.25661e-21)
(0.779962 0.0449574 0)
(0.781083 0.0329982 0)
(0.762157 0.123952 4.20047e-20)
(0.760725 0.136497 3.80732e-20)
(0.751763 0.127401 -1.21265e-20)
(0.717885 0.56487 -2.83724e-21)
(0.749187 0.575497 1.70207e-20)
(0.72705 0.609093 1.578e-20)
(1.20426 0.0927827 0)
(1.20379 0.0877131 0)
(1.20907 0.0888501 -4.08366e-21)
(1.11993 0.111194 -1.7231e-20)
(1.11668 0.11442 1.79991e-20)
(1.11548 0.109646 2.86615e-21)
(1.06623 0.0905461 -2.90552e-21)
(1.06326 0.0913347 7.98187e-21)
(1.0641 0.0878525 1.00461e-20)
(0.842831 0.073608 5.78783e-21)
(0.835083 0.0763742 0)
(0.836293 0.0669295 1.59532e-20)
(0.908041 0.00434418 1.87168e-20)
(0.910753 0.00129414 3.27928e-20)
(0.912079 0.0051756 1.66094e-20)
(0.991829 0.0127871 -2.4131e-21)
(0.991308 0.0134559 -2.85215e-21)
(0.99202 0.0136767 -5.76841e-21)
(1.11011 -0.0888572 -1.27826e-20)
(1.11186 -0.0896042 4.85743e-20)
(1.11175 -0.0912243 2.1382e-20)
(1.00091 0.00768312 -5.34272e-22)
(1.00105 0.00757055 1.66439e-21)
(0.116075 -0.0433602 -2.10592e-20)
(0.0903202 -0.0393574 -1.50751e-20)
(0.103468 -0.0403063 -2.89466e-20)
(1.06164 -0.0195286 -1.85044e-21)
(1.06247 -0.0204344 3.35588e-21)
(0.289477 -0.0158332 -3.271e-22)
(0.264626 -0.0130161 1.47404e-20)
(0.293111 -0.0153351 1.30504e-20)
(1.00866 0.000925436 -5.09749e-22)
(1.00905 0.000906016 2.87734e-23)
(1.00823 0.000524271 -2.3518e-23)
(0.999996 0.000763583 1.72748e-21)
(1 0.000359555 -2.35016e-21)
(0.999999 0.000390409 5.02929e-22)
(1.02086 0.00211847 -2.98576e-21)
(1.02058 0.00231177 -1.14556e-22)
(1.02045 0.00200296 4.42832e-21)
(0.698114 0.200366 1.0054e-20)
(0.714668 0.208156 -3.73788e-20)
(0.697572 0.222363 -1.33042e-19)
(1.03951 0.0235787 4.70924e-21)
(1.04048 0.024283 4.87097e-21)
(1.04071 0.0233485 -2.56267e-21)
(0.8912 0.0206106 2.82011e-21)
(0.889632 0.0160548 2.33699e-21)
(0.895082 0.0171221 2.66594e-20)
(1.14549 0.00944513 -3.30987e-20)
(1.14314 0.012993 0)
(1.14837 -0.0241126 -1.41415e-20)
(1.14704 -0.0213923 -8.73673e-22)
(1.14528 -0.0241272 -3.64192e-22)
(0.0913467 0.129377 4.42411e-20)
(0.090428 0.164856 -1.13305e-19)
(0.120193 0.143774 -1.32952e-19)
(1.00339 0.000759507 -5.85799e-23)
(1.0037 0.000689335 -3.26095e-23)
(1.00364 0.00106718 -8.94923e-24)
(1.0874 0.0110197 0)
(1.08855 0.0120257 0)
(1.08896 0.0103424 0)
(0.966426 0.0116649 -8.3218e-21)
(0.965201 0.0103333 -1.0178e-20)
(0.96483 0.0124256 1.39315e-20)
(0.0850324 0.0994014 1.20698e-19)
(0.0514961 0.132707 2.44195e-19)
(0.905014 0.00749004 -3.79564e-20)
(0.903811 0.00305847 -1.16515e-20)
(1.01597 0.0497314 3.87765e-22)
(1.01461 0.0482852 -1.71767e-22)
(1.08869 0.0348292 1.53775e-21)
(1.08799 0.0370155 0)
(1.09057 0.0365619 3.5174e-20)
(1.1138 -0.0754308 8.82522e-21)
(1.11243 -0.0735741 3.69817e-21)
(0.996011 0.0313466 0)
(0.996017 0.0299343 0)
(0.997095 0.0308825 0)
(1.07384 0.042211 0)
(1.07603 0.0431955 0)
(1.07398 0.0447154 -9.01997e-21)
(1.03835 0.0237745 -4.72532e-21)
(1.0385 0.0228462 2.78824e-22)
(0.565759 0.0484959 9.24791e-20)
(0.420321 0.0311305 8.24635e-21)
(0.476119 0.0357831 1.33231e-19)
(1.02419 0.0413225 -1.59317e-21)
(1.02429 0.0432893 -1.18822e-21)
(-0.0249844 -0.00850103 2.06113e-20)
(1.00168 0.00536843 -1.66076e-21)
(1.00187 0.0055427 1.33697e-21)
(0.380218 0.0989707 -6.94763e-20)
(0.403904 0.0677462 2.05272e-20)
(1.09427 0.376195 -3.76278e-20)
(1.05326 0.348225 3.18191e-20)
(0.791946 0.259861 -7.71132e-20)
(0.99572 0.000188913 3.12944e-22)
(0.995268 0.000382547 -1.44179e-21)
(0.987705 8.31174e-05 3.14246e-21)
(0.98846 -7.61631e-06 5.35593e-21)
(1.16045 -0.0668668 1.60925e-21)
(1.15795 -0.0681974 -6.859e-20)
(1.16171 -0.0698825 -9.00904e-21)
(1.06579 0.13685 -7.48046e-22)
(1.07129 0.136758 0)
(1.06777 0.143049 -1.14184e-20)
(0.996931 0.00385532 -8.58086e-21)
(0.996657 0.00439846 -4.98385e-21)
(0.478787 -0.0871139 -6.05233e-21)
(0.443189 -0.0837061 6.4088e-21)
(-0.139077 -0.0244441 -2.94436e-20)
(-0.113985 -0.0279852 -3.85535e-21)
(-0.121869 -0.0268149 -2.97179e-20)
(0.996263 0.016077 7.44058e-22)
(0.995967 0.0151261 6.53033e-21)
(0.0911035 0.199727 -6.08318e-20)
(0.125742 0.218033 -6.94583e-20)
(0.0930152 0.238289 9.33643e-20)
(1.08274 -0.0591391 0)
(1.08206 -0.0583805 0)
(1.08311 -0.0580246 0)
(-0.138184 -0.0187773 9.89119e-21)
(-0.113059 -0.0236352 -3.08583e-20)
(-0.12832 -0.0191508 3.47349e-20)
(1.05538 0.0249439 1.13548e-20)
(1.05679 0.0254409 -9.2088e-21)
(1.05566 0.0265615 -1.18807e-20)
(0.526865 -0.0551413 -2.72548e-22)
(0.523869 -0.0575835 -7.1602e-21)
(0.56277 -0.0592437 -1.50872e-20)
(0.999952 0.00215564 0)
(0.999904 0.0025065 -1.08235e-22)
(0.999924 0.00254289 -3.27767e-21)
(1.00011 0.00335402 -3.04086e-22)
(1.00012 0.0036677 -3.78431e-21)
(1.00013 0.0032759 2.75272e-21)
(0.996133 0.000461413 2.24478e-21)
(0.389484 0.124984 2.24152e-20)
(0.399911 0.155082 6.62491e-20)
(0.421253 0.131072 6.97378e-20)
(0.146056 -0.0485416 1.22441e-20)
(0.132889 -0.0477474 1.32142e-20)
(-0.0802747 0.00906719 0)
(-0.121327 0.00600361 1.1813e-20)
(-0.110248 0.00567459 0)
(1.0539 0.0245719 1.25682e-20)
(1.05503 0.0235617 1.4226e-21)
(1.00045 0.00455222 3.30348e-22)
(1.0005 0.00446295 -7.81305e-22)
(1.00038 0.00413973 1.08938e-21)
(1.11432 0.40472 4.13367e-20)
(1.21132 0.441769 0)
(1.08565 0.0100376 -1.32699e-20)
(1.08556 0.0119807 0)
(1.02111 0.00199926 4.42411e-21)
(1.02124 0.00229483 -7.40837e-21)
(-0.0325261 -0.0375706 2.66678e-20)
(-0.0605813 -0.0342058 3.21258e-21)
(-0.0471272 -0.03532 2.34431e-20)
(1.18876 0.128528 2.60666e-20)
(1.18256 0.13075 -3.55883e-20)
(1.18617 0.135249 0)
(1.02429 0.0239085 -3.36689e-22)
(1.02462 0.0230847 6.73596e-22)
(1.02361 0.0230937 7.34218e-22)
(0.975679 0.0539561 8.94465e-21)
(0.973623 0.0552078 4.15638e-21)
(0.976129 0.0564694 3.12999e-21)
(1.18646 0.43619 -2.49226e-20)
(1.03914 0.396508 -2.99073e-20)
(0.374375 0.00935164 -7.51692e-20)
(0.403043 0.00217989 3.41868e-20)
(0.380148 -0.0251481 7.56991e-20)
(1.13118 -0.0627708 0)
(1.13331 -0.0630468 -3.8137e-20)
(1.13208 -0.0650995 1.47086e-20)
(1.14633 -0.0135272 -2.41936e-20)
(1.14931 -0.0134859 -1.722e-20)
(1.14786 -0.010894 0)
(1.08706 -0.067179 4.53173e-22)
(1.08644 -0.0678177 8.46071e-21)
(1.08611 -0.0672841 0)
(0.59516 0.136066 -5.20904e-21)
(0.615295 0.121553 -5.76512e-21)
(0.617172 0.148049 -9.8966e-22)
(1.01132 0.00564326 -1.02091e-21)
(1.01178 0.00573836 3.51251e-22)
(1.01161 0.00613588 2.53656e-22)
(0.840891 0.00186582 2.05438e-20)
(0.844474 0.0093131 -3.35028e-21)
(0.848563 0.0024066 -1.65181e-20)
(0.681612 0.193725 5.17678e-20)
(0.699633 0.184926 7.68677e-20)
(1.06274 0.0185776 6.4267e-21)
(1.06399 0.0182368 6.06415e-21)
(1.06286 0.0169883 -2.22846e-21)
(1.01676 0.0122857 1.10941e-21)
(1.01678 0.0117061 -2.43863e-21)
(1.01736 0.0122299 -1.26707e-21)
(0.42685 -0.0740968 0)
(0.415732 -0.0731547 0)
(0.495434 -0.0758676 -1.61934e-20)
(0.822531 0.502042 9.71168e-22)
(0.794219 0.52015 9.41798e-21)
(0.833333 0.528217 4.21851e-21)
(1.14945 -0.0260807 -6.80261e-21)
(1.15101 -0.0236964 0)
(1.01923 0.0473169 -3.17048e-22)
(1.0192 0.0491075 -3.86226e-22)
(1.11858 0.124656 -2.32529e-22)
(1.11484 0.127536 -3.66286e-20)
(1.11981 0.129816 -1.79459e-20)
(-0.169532 -0.0164744 9.20036e-20)
(-0.200741 -0.0162237 0)
(-0.187704 -0.0162914 -2.23024e-20)
(0.30697 -0.0183503 -3.56698e-22)
(0.282977 -0.0152659 1.80317e-21)
(1.09149 -0.059095 3.71304e-21)
(1.09054 -0.0594504 1.54225e-20)
(1.09127 -0.0601295 7.3025e-21)
(0.427048 -0.0758784 -2.3948e-20)
(0.36067 -0.0734308 0)
(0.949359 0.0100785 1.06127e-20)
(0.948014 0.0121455 8.07211e-21)
(0.947217 0.00941409 -8.35386e-21)
(0.0882423 -0.12538 -1.90343e-19)
(0.0989483 -0.0957491 7.77596e-20)
(0.0615089 -0.101365 -3.45508e-20)
(1.00127 0.0142691 -1.33617e-21)
(1.00137 0.0149382 -5.86181e-21)
(1.00099 0.0146118 -3.52888e-22)
(0.181584 0.102932 7.19065e-20)
(0.211662 0.0844322 -2.3164e-20)
(0.212787 0.119594 -2.98003e-20)
(0.161485 -0.0178862 -3.72155e-21)
(0.169551 -0.0198211 1.70095e-20)
(0.182696 -0.0235106 2.24078e-20)
(0.907711 0.0153849 1.61059e-20)
(0.904937 0.0186763 -2.31324e-20)
(0.909561 0.0190703 -1.61178e-20)
(1.00001 0.00115063 -1.1593e-24)
(0.999993 0.00114076 2.50274e-21)
(1.16279 -0.0657649 -5.06874e-21)
(1.15966 -0.0645461 2.09775e-21)
(0.121148 -0.0202311 -1.31001e-20)
(0.141743 -0.024541 1.32267e-21)
(0.133805 -0.0238805 -2.73661e-20)
(0.763937 0.112021 0)
(0.775735 0.120683 0)
(1.00512 0.000666875 6.74891e-22)
(1.00535 0.000968761 5.81333e-22)
(1.00546 0.000565236 -2.60348e-22)
(0.975569 0.0512714 -9.85635e-21)
(0.977915 0.0525343 8.91614e-21)
(1.03561 0.0270226 2.56058e-21)
(1.03642 0.0279147 2.20425e-21)
(1.03531 0.028022 0)
(1.0048 0.000682167 -2.32369e-22)
(1.00467 0.000334521 -7.37511e-22)
(1.01793 0.00173428 5.53436e-24)
(1.01816 0.00156739 -5.3329e-22)
(1.01785 0.00147754 -6.41228e-21)
(0.346074 0.0104734 -1.56371e-20)
(0.242473 -0.0416383 -6.0631e-21)
(0.231023 -0.0388261 6.78299e-21)
(0.220341 -0.0354464 -1.19209e-20)
(0.950862 0.00769605 -9.04433e-21)
(0.951902 0.0104248 0)
(1.04142 0.0249785 -7.37712e-21)
(1.04019 0.0252862 7.34536e-21)
(0.999974 0.00106913 3.28946e-21)
(1 0.000728791 -3.56693e-21)
(1.2488 -0.00999355 1.9374e-21)
(1.27 -0.00749695 -3.43623e-20)
(1.21655 -0.0166841 1.7277e-20)
(0.705979 -0.097517 0)
(0.647661 -0.0926199 0)
(1.10163 0.130102 1.51673e-20)
(1.097 0.127148 -1.20278e-20)
(0.578713 0.147297 -4.37206e-20)
(0.579279 0.119419 0)
(0.995237 0.000846237 -2.63469e-21)
(0.994775 0.000532112 1.4255e-20)
(0.906179 0.0114557 -1.21443e-20)
(0.910461 0.0125309 4.03128e-20)
(1.10457 -0.0889547 -2.45824e-21)
(1.10206 -0.0878961 -3.65001e-20)
(1.09955 -0.0864174 4.17218e-21)
(1.02555 0.0125534 -6.90791e-23)
(1.02551 0.013135 4.39354e-22)
(1.02479 0.0126379 3.35248e-21)
(0.963809 0.0237176 -4.19367e-21)
(0.961696 0.02448 -2.46603e-20)
(0.962372 0.0218979 2.71323e-21)
(0.664718 0.197793 -2.68395e-20)
(0.644282 0.204054 -3.55244e-22)
(0.662967 0.220809 -3.81172e-22)
(0.9875 0.000815029 1.35139e-20)
(0.986927 0.000286444 1.68027e-20)
(0.686226 -0.0915245 2.74331e-20)
(0.607525 -0.0863961 1.29022e-20)
(0.6804 -0.0901113 -4.70225e-20)
(0.81103 0.608061 0)
(0.818704 0.578515 2.37002e-21)
(0.783764 0.579581 0)
(0.967774 0.0132786 -9.52336e-21)
(0.968299 0.0111092 0)
(1.02401 0.0105187 4.29043e-21)
(1.02409 0.0110724 1.03081e-21)
(1.02341 0.0106113 1.19167e-21)
(1.06094 0.0981807 2.31807e-21)
(1.05724 0.0987195 8.0787e-21)
(1.05991 0.102578 1.17279e-20)
(1.11841 -0.0318977 0)
(1.11991 -0.0337907 -2.80192e-20)
(1.12018 -0.0307742 -4.39064e-20)
(0.112374 -0.146622 -9.61375e-20)
(0.0730986 -0.155864 -1.27754e-19)
(1.11045 -0.0559777 0)
(1.11208 -0.0568865 1.94034e-21)
(1.11013 -0.0575496 0)
(1.02757 0.183939 4.82885e-21)
(1.03067 0.178989 -4.83379e-21)
(1.03529 0.18308 -4.63085e-21)
(1.08269 0.0619797 0)
(1.08059 0.0640762 0)
(1.07978 0.0610538 0)
(-0.0427757 0.039237 -7.30165e-20)
(-0.0606318 0.0446088 4.72381e-21)
(-0.0931063 0.0375705 -6.56174e-20)
(1.06069 0.13745 -1.94002e-22)
(1.06357 0.132429 -1.16394e-23)
(1.10887 -0.109143 0)
(1.13581 -0.106312 1.75321e-20)
(1.1414 -0.105231 -8.89787e-21)
(-0.170779 -0.0161879 -8.81128e-21)
(-0.146113 -0.0193861 3.25575e-20)
(1.28201 -0.00657913 3.56291e-20)
(1.20537 -0.00829335 -2.3738e-20)
(0.942517 0.0461482 0)
(0.939743 0.0478028 0)
(0.939544 0.0441848 0)
(0.788949 -0.0241114 -1.83874e-20)
(0.783277 -0.0156189 0)
(0.777407 -0.0265362 5.96494e-20)
(1.00003 0.00262179 -2.39303e-21)
(1.00005 0.00252442 -5.11537e-23)
(1 0.00216735 1.06307e-22)
(1.12861 -0.0631972 -2.17762e-20)
(1.13 -0.0608051 0)
(1.09276 -0.0588181 -8.8715e-21)
(1.09171 -0.0579133 -3.96502e-20)
(1.08745 -0.0665767 -1.17499e-20)
(1.08795 -0.0671582 -1.81628e-20)
(1.06261 0.0199289 9.2758e-21)
(1.06149 0.0187713 -8.70897e-21)
(1.13248 -0.0237646 6.30547e-21)
(1.13082 -0.0255278 4.01581e-22)
(1.13355 -0.0263349 4.69476e-20)
(1.03306 0.0200364 -9.84617e-21)
(1.03391 0.0206405 8.46834e-22)
(1.03287 0.0209452 3.07587e-21)
(0.837692 -0.00444433 2.3786e-20)
(0.833096 0.00286555 0)
(1.05319 0.177667 9.02636e-21)
(1.04582 0.177131 4.47901e-21)
(1.05115 0.170879 -9.05372e-21)
(-0.303462 -0.00742728 1.4821e-21)
(-0.320691 -0.00640062 6.61593e-20)
(-0.290199 -0.00750369 2.58473e-20)
(1.08826 -0.0610096 0)
(1.08868 -0.0619198 -1.11887e-20)
(1.08928 -0.0610474 1.52626e-20)
(1.01524 0.056161 0)
(1.01523 0.0579878 -2.05557e-22)
(1.0134 0.0567906 0)
(0.796499 -0.0998638 -2.59283e-20)
(0.786791 -0.0999178 0)
(0.860112 -0.101121 1.08215e-20)
(1.01961 0.202195 3.63939e-21)
(1.0167 0.207276 4.43953e-21)
(1.02462 0.207065 1.31563e-21)
(0.253892 -0.0420496 0)
(0.269235 -0.045484 0)
(0.150486 0.0858376 -7.69192e-20)
(0.151253 0.123348 8.55149e-20)
(0.701815 -0.0935571 1.15143e-20)
(0.770197 -0.0947052 -3.18283e-20)
(1.01336 0.0267379 4.0122e-24)
(1.01407 0.0273933 -8.84097e-22)
(1.01321 0.0276242 -1.8179e-22)
(1.19459 0.127119 3.92399e-20)
(1.19081 0.122732 2.40109e-20)
(1.12518 0.112741 0)
(1.12366 0.107974 0)
(1.02624 0.0124154 -1.45006e-21)
(1.0255 0.0119438 -3.45165e-21)
(1.00042 0.00466105 -1.43338e-21)
(1.00052 0.00500328 -2.15682e-21)
(0.938769 0.11945 2.95414e-21)
(0.93478 0.115508 7.09808e-21)
(0.940893 0.114889 -1.57856e-20)
(0.599134 -0.0704536 -2.87602e-21)
(0.594758 -0.0710949 1.11702e-20)
(1.26664 0.137111 1.29226e-19)
(1.27439 0.13527 3.78642e-20)
(1.27521 0.14249 3.54361e-20)
(-0.0250164 0.0391564 4.71555e-20)
(0.0412125 0.0533347 6.78989e-20)
(1.12109 0.036843 -3.1127e-20)
(1.12071 0.0395855 -3.5664e-20)
(1.12352 0.0382012 -2.76055e-20)
(1.09418 -0.0669828 8.06098e-23)
(1.09337 -0.0670434 -3.32292e-20)
(1.09368 -0.067922 0)
(1.11985 -0.0937453 1.21225e-20)
(1.12489 -0.0954859 1.47071e-21)
(1.12861 -0.0962564 -8.40169e-21)
(-0.0341476 0.0112844 0)
(-0.0473548 0.0109975 -4.40787e-20)
(1.26 0.182044 8.80107e-20)
(1.2604 0.175183 2.72956e-20)
(1.26837 0.179318 1.07165e-19)
(0.999907 0.00849103 7.31238e-22)
(0.999982 0.00808845 -1.13745e-21)
(0.999814 0.00799354 2.03611e-21)
(0.567239 0.0576047 -8.43729e-20)
(0.573024 0.0777062 -5.69725e-21)
(0.54802 0.0720057 -3.66332e-20)
(0.797369 0.0358247 -4.05899e-20)
(0.796631 0.0470038 -2.71629e-20)
(1.00974 0.00037626 0)
(1.00938 0.000371876 0)
(1.0239 0.0245775 -9.05954e-22)
(1.02499 0.0246639 -8.50362e-22)
(0.871229 0.468618 1.85982e-22)
(0.865894 0.441007 1.19096e-20)
(0.893274 0.449912 6.89673e-21)
(1.22947 0.495013 -2.5152e-20)
(1.23001 0.473728 -5.94592e-20)
(1.11818 0.436613 8.72124e-20)
(1.07654 -0.00677403 2.4717e-21)
(1.07762 -0.00768367 -8.82779e-21)
(1.07807 -0.00627 7.6175e-21)
(1.00321 0.000912258 -1.92082e-22)
(1.00319 0.000569556 -6.91629e-23)
(1.12494 -0.0264221 5.18193e-21)
(1.12362 -0.0243868 8.15338e-21)
(1.1266 -0.0244594 -7.19819e-21)
(1.11696 -0.0334912 2.08809e-20)
(1.11649 -0.0307135 0)
(-0.155605 -0.0225162 0)
(-0.162719 -0.0217763 -3.3425e-20)
(1.25016 -0.0534037 -4.67416e-22)
(1.25116 -0.0564002 -2.12725e-20)
(1.2575 -0.0534432 1.22086e-21)
(0.992293 0.0123385 -2.71878e-21)
(0.991815 0.0121701 6.01525e-23)
(0.994941 0.0316171 6.46622e-21)
(0.995986 0.0325081 -7.50476e-21)
(1.14362 -0.0136012 -4.93383e-21)
(1.14471 -0.01614 2.85192e-21)
(0.572622 -0.0767925 -1.38491e-20)
(0.630454 -0.07925 0)
(0.612678 -0.0793387 -1.36534e-20)
(0.965674 0.0227025 2.1933e-20)
(0.965443 0.0250895 7.14947e-21)
(0.488144 -0.0733295 0)
(0.477759 -0.0736358 0)
(0.532312 -0.0767031 0)
(-0.212022 -0.0165835 0)
(-0.18615 -0.0184796 -3.39201e-20)
(-0.205667 -0.0165391 -5.53314e-21)
(1.09473 -0.0661977 2.40909e-20)
(1.0953 -0.067341 -1.62499e-20)
(1.01629 0.0122425 4.14479e-21)
(1.01675 0.0127238 1.2787e-21)
(0.493977 0.393699 2.5905e-20)
(0.513675 0.428643 9.14146e-20)
(0.460697 0.429635 -7.58224e-20)
(1.13531 -0.0133013 2.1257e-20)
(1.13811 -0.013502 -3.68576e-21)
(1.13671 -0.0109151 -3.94627e-21)
(-0.294738 -0.0127299 1.94647e-20)
(-0.262649 -0.0154125 -3.05384e-20)
(-0.280921 -0.0120025 -6.85427e-20)
(1.00337 0.0187762 3.86405e-21)
(1.00377 0.0191714 1.68642e-22)
(1.0034 0.0195853 3.27492e-21)
(0.711095 0.0693951 2.54467e-20)
(0.667009 0.067084 5.57468e-21)
(1.01259 0.0259851 2.43384e-22)
(1.01343 0.0258676 6.98681e-24)
(1.20021 0.0655411 2.68336e-20)
(1.19629 0.0631424 4.39234e-21)
(1.19618 0.0676891 -2.21986e-20)
(1.00852 0.0012018 -4.72508e-22)
(1.00831 0.00083352 2.98075e-22)
(0.0867568 -0.0463811 -2.73774e-21)
(0.0615931 -0.0437302 2.2868e-20)
(0.0811061 -0.0447339 -5.51009e-21)
(0.406398 -0.0721003 0)
(0.395846 -0.0711919 2.53382e-20)
(0.472118 -0.0729883 3.92019e-20)
(0.997478 0.0961603 4.28832e-21)
(1.00109 0.0948332 -4.29757e-21)
(1.18605 0.492146 0)
(1.228 0.504651 -3.25175e-20)
(1.1977 0.473624 8.21466e-21)
(1.08563 0.0625643 0)
(1.08414 0.059687 0)
(1.0156 0.0121351 -4.40826e-22)
(1.0157 0.0115799 4.74704e-21)
(1.10267 -0.087187 -2.77179e-20)
(1.10949 -0.0885213 -4.11996e-20)
(1.08724 -0.0610184 0)
(1.08779 -0.0600825 -1.80526e-20)
(1.11879 0.0355225 -1.50727e-20)
(1.12126 0.0341702 1.09195e-20)
(0.682965 -0.0912725 -2.19426e-20)
(0.635921 -0.08954 -2.22935e-20)
(0.705674 -0.0912701 5.00471e-21)
(-0.220276 -0.0133058 5.25285e-20)
(-0.241237 -0.0129086 3.36198e-20)
(1.0123 0.00306196 1.81105e-21)
(1.01269 0.00310571 -1.20458e-21)
(1.01247 0.00268667 -3.24259e-22)
(1.06918 0.0894422 -2.34056e-20)
(1.06853 0.0933203 1.15161e-21)
(-0.01339 -0.0409231 4.20424e-20)
(1.3318e-05 -0.0419595 1.13397e-20)
(-0.133849 0.0102466 3.09535e-20)
(-0.162082 0.00797347 2.8131e-20)
(-0.137396 0.0106959 1.07164e-19)
(1.00002 0.00259724 9.5059e-23)
(1 0.0030099 -2.98128e-21)
(1.0063 0.00910779 1.02174e-23)
(1.00673 0.0093558 1.07524e-23)
(1.00649 0.0095735 6.95288e-23)
(0.327858 -0.01495 -5.70782e-21)
(0.346259 -0.0176668 0)
(1.13921 -0.0656851 0)
(1.137 -0.065885 0)
(1.13794 -0.0682009 0)
(1.00006 0.000142044 9.83247e-23)
(1.00003 0.000108804 -2.04035e-24)
(1.00006 0.000178421 7.53415e-22)
(1.09027 -0.0826205 -8.25927e-21)
(1.0888 -0.0815864 2.77764e-20)
(1.09042 -0.0811331 -9.10094e-21)
(1.18685 0.00365344 -8.09026e-21)
(1.18541 -3.5321e-05 -1.96207e-20)
(1.18258 0.00348828 7.93859e-21)
(0.798172 -0.0240412 -5.85849e-21)
(0.793618 -0.0336328 -1.0985e-20)
(1.09747 0.10752 1.40683e-20)
(1.10063 0.111121 2.19085e-20)
(1.10119 0.105913 6.47739e-21)
(1.00005 0.00295487 2.47397e-21)
(1.00007 0.00250822 3.2911e-21)
(0.984991 0.214096 2.8412e-21)
(0.986339 0.204256 2.77301e-21)
(0.976482 0.208628 -7.8719e-22)
(-0.182602 -0.0171138 -1.17471e-20)
(-0.179889 -0.0162316 -3.32962e-20)
(-0.213217 -0.0126188 -3.22482e-20)
(1.04077 0.00184351 0)
(1.04094 0.00114632 -1.2476e-22)
(1.04176 0.00164176 0)
(1.21133 0.143372 7.3265e-21)
(1.20556 0.146833 8.88599e-20)
(1.20621 0.138803 5.04226e-20)
(0.568678 0.165024 -1.658e-20)
(0.584271 0.185743 3.16795e-20)
(0.554329 0.1912 3.39848e-20)
(1.0348 0.0261162 -2.05508e-21)
(1.03586 0.0259405 3.63659e-21)
(0.996075 0.0286731 2.46159e-21)
(0.995106 0.0290603 5.6741e-21)
(1.10634 -0.0487044 4.26953e-21)
(1.10785 -0.0498543 -2.20138e-20)
(1.10591 -0.0503651 1.53029e-20)
(0.360551 -0.0232169 0)
(0.345392 -0.0207377 0)
(0.343393 -0.0209005 0)
(1.10879 -0.0554005 -1.75704e-21)
(1.11073 -0.0544198 -1.14016e-20)
(0.941801 0.123847 -1.45798e-21)
(0.936138 0.125131 8.17551e-21)
(0.97977 0.0978222 1.2389e-20)
(0.977195 0.101707 5.83534e-21)
(1.00006 0.000308909 7.25198e-22)
(1.00005 0.000268427 -4.15139e-23)
(1.00002 0.000181423 7.78516e-22)
(0.101327 -0.0166757 0)
(0.109178 -0.0172008 0)
(0.555475 -0.0436364 1.98244e-20)
(0.643772 -0.0474225 1.89214e-20)
(0.637502 -0.0444309 -1.16725e-20)
(1.08503 -0.0775959 4.87257e-21)
(1.08789 -0.0784221 2.105e-20)
(1.09164 -0.0782565 3.11877e-20)
(1.01506 0.0120815 -3.61633e-21)
(1.01555 0.0126071 -1.54262e-21)
(-0.191745 -0.0190953 5.79625e-20)
(-0.164239 -0.0218222 6.35935e-21)
(-0.17517 -0.0202159 3.01437e-20)
(-0.0118325 -0.0207852 1.15112e-20)
(-0.00572897 -0.0196017 -4.32792e-21)
(-0.0312482 -0.0156569 1.06689e-20)
(1.06234 -0.10863 -6.20219e-21)
(1.07865 -0.108402 -2.08429e-20)
(0.52467 -0.0551409 1.36857e-20)
(0.49547 -0.054674 1.10484e-20)
(1.08341 -0.0596851 0)
(1.08248 -0.0599433 0)
(1.00006 0.00342133 2.60696e-21)
(1.00652 0.000743601 8.08891e-23)
(1.00617 0.000794513 7.19026e-22)
(1.00658 0.00116934 -1.02257e-21)
(1.14475 0.00713263 -7.71858e-21)
(1.14184 0.0070327 2.61712e-20)
(1.14373 0.0043897 5.20565e-20)
(0.0111267 -0.03644 -5.48194e-20)
(-0.00712635 -0.0325165 -1.41107e-20)
(-0.0136502 -0.0322769 -9.34248e-21)
(1.17006 -0.0397206 6.37552e-21)
(1.17248 -0.0376618 -1.9941e-20)
(1.17306 -0.0417059 3.16988e-21)
(1.07163 0.0414679 4.41107e-21)
(1.0735 0.0400992 1.30178e-20)
(1.24348 -0.0520896 -1.64848e-20)
(1.20549 -0.0595685 1.78008e-20)
(1.07724 -0.0431565 3.034e-21)
(1.07634 -0.0423341 1.8198e-20)
(1.01781 0.000950287 0)
(1.01779 0.00119165 -2.75734e-21)
(1.01802 0.00105444 1.81954e-21)
(0.904632 0.0217208 3.60531e-20)
(0.897195 0.0159971 8.26956e-20)
(0.805464 0.00348072 1.17127e-19)
(1.00211 0.00502041 8.8043e-22)
(1.00211 0.00479762 -1.01097e-22)
(1.0019 0.00467164 9.13712e-22)
(0.796819 -0.1009 1.28412e-20)
(0.725555 -0.0986749 -7.60237e-20)
(1.07535 -0.00552002 4.11698e-21)
(1.07483 -0.0069666 -6.87867e-21)
(1.00007 0.000110042 -8.49312e-22)
(1.0001 0.000173227 -3.47474e-22)
(1.00426 0.109995 3.07453e-22)
(1.00313 0.114766 5.7825e-22)
(1.00017 0.110336 4.7761e-23)
(1.02575 0.189796 3.24083e-21)
(1.02115 0.184398 8.37105e-21)
(0.778011 -0.00572996 -1.39073e-20)
(0.788344 -0.00532941 3.69879e-20)
(1.09567 -0.0838104 0)
(1.09216 -0.0833585 0)
(1.00243 0.144998 1.90709e-23)
(1.00278 0.151196 3.59343e-23)
(0.996644 0.147151 -5.49414e-22)
(1.04432 0.00772678 2.14718e-20)
(1.04502 0.00854144 6.50095e-21)
(1.0439 0.00842581 -3.54909e-21)
(1.26557 0.0101432 2.88339e-20)
(1.26904 0.0148794 6.09329e-20)
(1.2881 0.011558 5.94776e-20)
(0.722619 -0.0926768 -6.69262e-21)
(0.656148 -0.0921043 -7.40147e-21)
(0.480095 -0.0484976 -9.29646e-21)
(0.484543 -0.0468104 3.3029e-21)
(1.00292 0.0185498 1.63843e-21)
(1.00326 0.0181661 1.88735e-21)
(1.04469 -0.108633 -2.09245e-20)
(1.08745 -0.107818 3.8493e-20)
(1.03316 -0.108101 8.53358e-21)
(0.9985 0.000802134 -1.21296e-21)
(0.9984 0.00106518 1.41964e-21)
(0.998217 0.000867682 -1.2723e-21)
(1.04387 0.00688813 7.69715e-21)
(1.04499 0.00694293 2.08977e-21)
(1.00115 0.0135551 4.66131e-21)
(1.00153 0.0138818 3.27416e-21)
(0.840963 0.638657 -1.59186e-20)
(0.793466 0.644448 -2.16518e-21)
(1.00166 0.000960127 4.19477e-22)
(1.0018 0.000836459 6.69358e-23)
(1.00155 0.000754852 1.52313e-22)
(1.20387 0.0677034 -2.27061e-20)
(1.20401 0.0632699 0)
(1.09373 0.110086 -2.4469e-20)
(1.09392 0.104915 -1.06928e-20)
(1.03214 0.01937 3.03571e-21)
(1.03317 0.0191241 -7.05477e-21)
(1.12604 -0.0285436 -2.21705e-21)
(1.12313 -0.0276952 3.81855e-21)
(1.03945 0.0577684 -2.58319e-21)
(1.04032 0.0559955 5.68379e-21)
(1.04177 0.0577869 9.16856e-22)
(0.119671 0.0654275 -1.35981e-19)
(0.107289 0.049824 -7.71182e-20)
(0.105149 0.0814386 -6.43994e-21)
(1.02322 0.196674 -6.99659e-21)
(1.01571 0.197143 -1.90631e-21)
(1.17919 0.124761 -1.30935e-20)
(1.1761 0.131213 2.87018e-21)
(1.03058 0.0134417 1.08483e-21)
(1.03128 0.0140556 -3.80815e-21)
(1.03129 0.013203 -1.85502e-21)
(0.996985 0.0282733 2.48614e-21)
(0.996114 0.0275139 4.97179e-21)
(-0.189193 -0.0142787 -3.27916e-22)
(-0.212062 -0.0139346 -5.23812e-20)
(-0.217029 -0.0139572 2.53061e-20)
(0.0981458 -0.0201297 -1.46183e-20)
(0.0895662 -0.0194829 -6.60512e-21)
(0.111887 -0.0243918 -1.41344e-20)
(1.00137 0.015627 -2.93476e-21)
(1.0017 0.015281 -1.59373e-22)
(1.00721 0.000683338 4.03253e-22)
(1.00765 0.000920243 -6.35026e-22)
(1.00724 0.0012114 -6.41864e-22)
(0.896089 0.0207981 -3.31482e-20)
(1.01491 0.0301219 -2.43681e-20)
(1.01642 0.025101 -7.34514e-22)
(1.0167 0.0260832 -5.22978e-22)
(1.0175 0.0255643 -2.37941e-21)
(-0.08662 -0.0312213 5.49338e-20)
(-0.104858 -0.0290368 1.45215e-20)
(1.02981 0.0130137 8.19174e-21)
(1.02984 0.0138529 1.24061e-21)
(0.091408 -0.0474171 -4.46087e-22)
(0.111974 -0.0494431 -4.12997e-21)
(1.04694 -0.00703677 7.32473e-21)
(1.04636 -0.00765491 0)
(1.04727 -0.0077736 1.47299e-22)
(1.22485 0.326481 -9.07555e-21)
(1.21224 0.325698 7.6098e-20)
(1.21751 0.338854 2.60191e-20)
(1.10379 -0.00303884 -7.43907e-20)
(1.10387 -0.000903012 1.77063e-20)
(1.10602 -0.00211412 -1.17149e-20)
(0.0977946 0.313395 -5.10011e-20)
(0.09618 0.273141 1.04841e-19)
(0.131364 0.290711 -1.32301e-19)
(0.945769 0.047279 2.59015e-22)
(0.945244 0.0438529 -5.32764e-21)
(1.31033 0.00301191 0)
(1.29246 0.0015285 0)
(0.517084 0.300325 6.19485e-21)
(0.490237 0.310855 1.22282e-20)
(0.518292 0.332919 -1.24286e-20)
(1.00832 0.110142 4.7562e-22)
(1.00576 0.10681 1.25642e-21)
(1.14048 -0.0639026 1.61906e-20)
(1.14147 -0.0662189 0)
(0.957338 0.51704 0)
(0.974845 0.535394 0)
(0.945112 0.540631 -1.35721e-20)
(0.998029 0.0448217 2.06113e-21)
(0.996508 0.0443683 -2.4775e-21)
(0.996977 0.0461997 2.50787e-21)
(0.184546 -0.0420592 -9.34257e-21)
(0.158571 -0.0375096 0)
(0.169872 -0.0384404 0)
(0.582243 0.0463345 -8.33367e-20)
(0.561545 0.037565 1.76557e-20)
(0.00455437 -0.0241828 1.25832e-20)
(-0.0145055 -0.021642 -3.24845e-20)
(0.923534 0.0207338 -1.36314e-20)
(0.919934 0.0220256 -1.37931e-20)
(0.922796 0.0247793 -1.54733e-20)
(0.222821 -0.0168404 5.78556e-21)
(0.198544 -0.0132828 -1.56516e-20)
(0.226138 -0.0160493 9.64525e-21)
(1.0724 0.0884175 1.80368e-21)
(1.07493 0.0918487 -4.565e-21)
(1.0759 0.0881132 -9.70952e-21)
(-0.109505 -0.00728589 7.69847e-20)
(-0.0797969 -0.00676279 3.32942e-20)
(-0.0691898 -0.00789538 -1.82734e-20)
(0.523373 0.269097 3.51559e-20)
(0.548931 0.29228 -8.758e-21)
(0.932562 0.35616 -4.48425e-21)
(0.915765 0.35381 -3.56368e-21)
(0.925076 0.371589 -3.05769e-21)
(0.950927 0.361591 -3.33153e-21)
(0.942343 0.343002 2.74639e-21)
(0.526139 -0.0819201 -3.45917e-20)
(0.49621 -0.0819283 1.71232e-20)
(0.999788 0.00278364 -5.66937e-21)
(0.99973 0.00309651 -5.56892e-22)
(0.999759 0.00312933 -5.52624e-22)
(1.06021 0.176417 -1.11391e-20)
(1.05727 0.183571 2.93973e-21)
(-0.134082 -0.0177538 -9.88179e-22)
(-0.147538 -0.0170533 3.8153e-20)
(0.984057 0.0309885 1.98768e-21)
(0.983173 0.0318972 5.81802e-21)
(0.982792 0.0302409 5.54997e-21)
(1.0046 0.0748735 -8.66618e-22)
(1.00533 0.0724287 2.73316e-21)
(1.00257 0.0729851 2.61701e-21)
(0.0124608 -0.0206533 0)
(0.0203207 -0.0207309 0)
(0.847741 0.487615 -7.07262e-21)
(0.880596 0.495791 2.42003e-21)
(1.01889 0.0527223 5.16083e-22)
(1.01892 0.0543664 -7.5637e-22)
(1.02079 0.0537492 0)
(1.1158 -0.0920982 2.79437e-20)
(1.11284 -0.0917237 -1.51198e-20)
(0.682506 0.559994 -1.78027e-20)
(0.70895 0.531622 -1.76529e-20)
(1.00933 0.00508235 2.90586e-23)
(1.00976 0.0053313 -5.96627e-22)
(1.00968 0.00484335 1.00628e-21)
(0.153497 -0.0177553 -2.13848e-20)
(0.133588 -0.0141091 -5.07337e-20)
(1.11263 -0.0913829 2.99156e-20)
(1.11763 -0.0928665 -5.21781e-21)
(1.10823 -0.0902103 -1.73968e-21)
(1.00211 0.00523882 -1.03927e-21)
(1.00232 0.00538372 1.00099e-21)
(1.0103 0.0132517 2.36212e-23)
(1.00977 0.0129018 -5.78471e-22)
(1.00997 0.0135285 -5.32988e-22)
(0.998489 0.000511801 1.01874e-21)
(0.998725 0.000711643 -1.28241e-20)
(1.02471 0.0104405 1.43284e-21)
(1.024 0.0100268 -6.56598e-21)