/*--------------------------------*- C++ -*----------------------------------*\
| =========                 |                                                 |
| \\      /  F ield         | OpenFOAM: The Open Source CFD Toolbox           |
|  \\    /   O peration     | Version:  v2012                                 |
|   \\  /    A nd           | Website:  www.openfoam.com                      |
|    \\/     M anipulation  |                                                 |
\*---------------------------------------------------------------------------*/
FoamFile
{
    version     2.0;
    format      ascii;
    class       volScalarField;
    location    "400";
    object      ddt0(omega);
}
// * * * * * * * * * * * * * * * * * * * * * * * * * * * * * * * * * * * * * //

dimensions      [0 0 -2 0 0 0 0];


internalField   nonuniform List<scalar> 
13851
(
-0.000145148
2.88079e-05
2.83506e-05
-0.00605985
8.52887e-06
4.22911e-05
2.58871e-05
1.68367e-05
0.0324018
1.24335e-06
0.000162246
3.05089e-06
3.74353e-06
-0.00820509
0.00018578
-0.00119026
-0.0208998
8.31871e-06
0.00794488
-0.00105239
0.000197177
2.4219e-05
0.135253
1.69278e-06
-0.0318876
0.000319736
-0.0218507
0.0693073
0.00383229
8.3931e-06
0.00190315
2.61511e-05
0.00131135
-0.0221822
7.25801e-05
0.00670265
7.47207e-07
-0.000114239
-0.0179026
3.3917e-06
-0.0725704
0.00827733
0.000189806
0.0305565
0.0143557
5.5289e-06
1.74382e-05
0.00128591
1.60548e-05
2.93414e-06
-0.0643249
2.9672e-06
-0.00116314
8.52673e-05
-0.0207
3.7536e-06
0.00193692
-0.0635593
-0.0763136
0.064879
3.29967e-06
0.0420309
5.88678e-07
1.72059e-05
0.0165832
0.0159043
0.154575
0.0046871
3.58479e-06
-0.0114736
-0.0107317
0.0001716
5.38564e-06
0.0681595
0.00011943
8.53321e-06
-0.0154698
1.07297e-05
0.105676
6.07101e-06
4.15488e-06
-0.00720302
6.68979e-05
0.02381
0.0416313
-0.00574027
2.57752e-05
0.0100938
2.71449e-06
0.00297095
2.56258e-06
2.77735e-05
-0.0638273
-0.0101318
-0.0207654
-0.00516622
5.58267e-06
0.000324457
0.0168181
0.000289976
0.000863404
-0.0010409
0.000180899
5.1031e-06
5.37471e-06
8.10667e-05
5.47812e-06
-0.00930533
2.78911e-05
8.3392e-06
-0.000114071
5.2567e-06
0.00291909
0.000104754
0.00391657
7.4011e-05
1.0098e-05
1.69366e-05
-0.00502611
-0.00156585
-0.00124681
7.66725e-06
3.09008e-06
0.00797403
-0.00615251
0.00754402
5.80025e-06
-0.000403201
-0.0194565
0.000287098
2.30684e-05
6.49011e-05
-0.188142
-0.00959906
0.000185258
-0.0196036
0.0105459
-0.0084106
0.00173375
0.000321608
-0.000167899
1.80853e-06
2.5586e-06
0.0132556
0.0216191
4.17189e-06
1.07343e-05
-0.0100238
-0.00328463
-0.000334727
0.00117372
0.0022572
0.000146742
-0.00928754
3.28415e-06
1.77654e-06
4.27454e-06
-0.020027
0.000262007
2.34427e-05
2.23132e-06
0.00483927
8.91888e-05
0.00139056
-0.0186716
0.0424039
0.0473458
-0.0458047
8.94787e-06
-0.0239095
3.48334e-06
1.07575e-05
-6.48353e-05
6.97316e-06
-0.021244
0.0182475
0.00507597
1.07275e-05
0.000114324
0.00392438
-0.000739764
0.0199434
2.23733e-05
0.000308059
-0.0904561
-0.00366269
0.000954997
6.24289e-05
3.69583e-06
6.98338e-06
0.0243291
0.000259679
0.0339454
4.33071e-05
3.79442e-06
-0.000875274
0.00106833
1.09209e-05
9.83556e-06
-0.00162018
-0.0022443
-0.0391965
-0.0681004
0.000189669
0.0252275
-0.0316567
8.81037e-07
0.000333625
0.0400967
3.67642e-05
-0.000846407
3.69286e-06
0.00082838
1.13087e-06
8.29766e-05
1.28439e-05
2.93177e-06
-0.00173733
1.06128e-05
0.00644189
1.06501e-05
-0.00263256
0.0893372
-0.0195589
-2.04469e-05
0.000338903
1.27414e-06
0.00761857
4.0677e-06
8.23451e-05
-0.067494
-7.95126e-05
3.71315e-05
3.25558e-07
-0.0594383
8.47513e-06
0.360779
-0.0649318
-0.00447505
1.19578e-06
0.279094
0.0116546
0.015658
-0.000857701
0.000104748
-0.011563
-0.00272437
0.000110547
0.00257151
6.70509e-05
-0.000761536
-0.00158093
1.52034e-05
4.70366e-05
-0.000439399
0.00280878
-0.0146805
8.10113e-06
0.0122087
2.17769e-06
0.00250116
-0.00874196
5.11113e-05
0.000119194
-0.00193492
5.06685e-06
0.00662267
0.001261
0.341566
2.32264e-06
2.63746e-06
-4.46852e-05
0.0693601
0.00502219
0.000228328
8.01016e-06
0.000309722
-0.0103606
0.00225965
0.000127143
0.0648888
0.0470998
5.17943e-05
0.000146622
0.017961
6.05093e-06
3.6227e-06
0.00159735
-9.75263e-05
8.36989e-06
2.04767e-06
4.32087e-06
1.15695e-05
0.000118216
3.78278e-06
0.0397482
0.000196617
4.02964e-06
0.00278575
0.00917478
3.43294e-06
-0.00377164
-0.0345702
1.56513e-06
3.08638e-06
0.000178588
0.0304486
-0.0352306
-6.09863e-05
9.06046e-06
-0.0156749
3.47435e-06
-0.00017431
-0.0149809
0.45532
2.30665e-05
0.119629
0.22813
-0.0128517
0.000960713
0.00625726
-0.0177857
0.00354936
0.0982349
1.04108e-05
-0.0325517
0.192284
-0.137184
0.0108844
6.79459e-07
-0.000139705
1.53223e-05
0.00143161
-0.0105902
1.40226e-05
1.80613e-05
4.15254e-05
-0.0115658
0.0290314
6.08638e-06
-0.0204499
5.66086e-05
6.46565e-05
2.48844e-05
0.0988248
-0.00015857
-0.00126198
1.01447e-05
3.37295e-05
0.0118995
3.69613e-06
-0.0104078
5.15415e-05
0.000178415
-0.000270443
2.41353e-06
4.30457e-06
0.00129974
0.00458453
-0.00139512
-0.519855
0.0137267
4.52531e-06
-0.057427
0.00437129
9.21576e-06
0.452079
-0.000308414
0.0168064
4.01278e-05
0.000314586
0.00341314
0.0948841
-0.000100875
-0.00425316
1.28921e-05
0.0474244
-0.0443633
7.49649e-05
-0.00592022
8.77942e-05
-0.0754084
0.000137406
0.000142565
-0.00393297
0.00219258
1.84381e-06
4.69018e-05
-0.000125927
0.000115942
5.82991e-06
0.00025512
-0.0512098
4.91101e-06
0.000340328
0.0132746
2.6659e-05
1.1102
0.000227945
-0.0375412
4.01877e-05
0.000315938
-0.087098
-0.00887856
8.15399e-05
-0.0143086
0.0647073
0.0557925
5.56419e-06
-0.000226436
8.24098e-05
0.000308156
7.25461e-06
-0.0580455
-0.061036
0.0372807
3.33045e-05
-0.00345766
0.00668975
0.00712171
1.09765e-05
-0.0482193
-0.011945
0.174631
3.83041e-05
0.0599046
3.73838e-06
7.11458e-06
-0.0232019
-0.0262216
1.31778e-06
2.92022e-05
0.000352311
1.02487e-05
-0.0595022
-0.000163035
-0.000143345
4.61887e-05
1.30877e-05
1.02052e-06
-0.0500506
4.27697e-06
7.99412e-07
-0.0362083
-0.0553042
1.9093e-05
0.0204244
-1.63824e-07
4.95314e-06
2.89567e-05
-0.00117979
0.000201092
4.79355e-06
1.62935e-05
0.000920425
2.13708e-05
0.0519964
4.28967e-06
6.17795e-05
0.0171813
0.000118908
1.68045e-05
3.4854e-06
4.54912e-05
1.21115e-05
-0.0682439
-0.0286392
0.000107358
0.0515209
2.96542e-05
3.39926e-06
0.0252729
0.0180168
0.000302736
5.05866e-06
0.00746827
0.000265234
-22.0024
5.46997e-06
6.93372e-05
0.00013931
0.0001496
-0.000986897
0.0020084
0.0399139
-7.89085e-08
-0.00024022
5.76199e-06
0.00102808
0.000238317
0.0011747
8.28617e-05
9.63747e-06
0.00106081
2.9477e-05
8.09099e-06
-0.0198073
0.0250323
0.0683102
0.00259033
-0.0328887
-0.0252942
-0.00963392
3.96318e-06
1.35949e-06
0.635015
6.49056e-07
5.44427e-06
2.038e-05
-0.026334
2.81189e-05
1.8261e-06
-0.00462237
7.1057e-05
3.56767e-07
-0.0519842
5.67506e-06
-0.013001
0.00566822
6.1478e-06
2.24354e-05
-0.00929987
0.398335
8.31581e-06
0.0985229
0.0873513
1.04071e-05
-0.030157
0.00568878
-0.00143034
-1.62386e-06
-0.0270974
0.0514678
9.72369e-06
0.0129809
3.1765e-06
5.40255e-06
-0.0668121
-0.0764075
7.61339e-05
0.000197036
5.96225e-07
0.000381215
-0.0220336
-0.0191781
9.77238e-06
-0.00504781
5.66144e-06
3.56735e-06
7.52242e-05
5.6587e-05
1.07605e-05
8.06733e-06
-0.0320815
0.00242204
-0.0282596
2.43802e-05
2.49639e-06
0.0711033
2.33896e-06
-0.00144808
6.55689e-05
0.000125281
9.76391e-05
0.0165663
0.0398047
4.28837e-05
-0.0499146
2.13046e-05
4.68221e-05
0.0099991
-0.00883199
3.09789e-06
5.18762e-06
0.00175857
-0.0284975
0.000975911
0.000363886
2.33608
5.61715e-05
0.000125799
-0.0938266
-0.0635894
-0.000198148
-0.00197429
0.00647576
0.0139054
1.0554e-05
-0.0524791
0.103769
3.31417e-06
-0.115235
0.028827
1.21528e-05
0.000315009
4.16044e-06
-0.000614769
0.000919071
-0.0116119
4.55071e-06
5.32215e-06
6.58358e-06
9.12063e-05
5.43646e-06
-0.024883
5.47899e-06
0.00340763
1.22482e-06
0.000287579
5.37896e-06
4.10949e-07
-0.000120113
-0.00654282
8.91837e-05
-0.0198226
6.82815e-05
8.92546e-06
8.30555e-06
-2.33477e-05
1.61842e-05
0.00135572
3.16522e-05
0.000561966
-0.0625583
1.22231e-06
-0.00445171
1.29248e-06
0.00011098
-0.0435971
0.0342463
-0.00708643
0.0923795
-0.00406795
-0.00541059
0.0182339
9.74601e-06
-0.0444823
4.15803e-05
7.99337e-05
0.00688768
-1.87102
9.95629e-06
0.000140652
1.09162e-05
0.00993778
-0.0628115
4.39686e-06
-0.00446966
-0.0604553
1.2378e-06
1.30154e-06
0.000286336
0.00419024
0.00247989
2.75834e-06
-0.00301799
1.97531e-05
9.29337e-07
-0.0293864
-0.00406496
-0.000955581
1.19129e-05
0.00145868
0.000275719
0.000276828
1.43879e-06
3.13341e-06
-0.000639804
-4.50393e-06
0.00129445
0.00020201
0.000156405
0.0026248
-0.154515
0.00283178
0.0435675
0.0789414
0.000942023
0.0111671
0.000541076
-0.054004
-0.00231731
7.70166e-06
0.000117979
-0.00325046
3.39326e-05
6.1053e-06
6.07515e-06
9.77414e-05
-0.000159631
6.43029e-05
-0.0547423
9.42535e-06
-0.0055378
0.00342305
-0.0513254
-0.000174566
4.11964e-05
2.83544e-05
-0.0347732
-0.00365937
0.00029443
-0.007023
1.2146e-05
-1.65898
4.44378e-05
0.00302377
7.62334e-05
-0.0212905
3.95417e-06
1.07243e-06
6.58346e-07
1.0494e-06
0.009351
1.13643e-05
-0.00577263
0.0660077
-0.000599632
-0.0176069
0.0214882
0.00126892
-0.00831734
-0.000712296
-7.86719e-08
2.51273e-06
1.06844e-05
8.40524e-06
5.86833e-06
3.5398e-05
0.00666359
0.00129448
0.323223
6.45987e-06
0.0338695
1.92384e-09
-0.00685769
7.83669e-05
4.96785e-07
2.0054e-07
0.0382673
4.33691e-05
0.0321102
0.0208765
0.000291276
0.000232163
9.86891e-06
-0.0204117
2.28025e-06
2.80755e-05
-0.0516916
2.17058e-07
2.22355e-06
8.82954e-06
0.000255573
5.46532e-05
5.83486e-05
8.01753e-05
-0.00498123
-0.0214795
-0.000170168
0.000101249
0.0118294
1.1294e-05
0.0106508
3.84163e-06
2.144e-05
0.117146
0.00127313
0.00380958
0.000855047
7.74975e-05
3.23322e-07
-1.84402e-09
1.86145e-05
1.13892e-05
-6.24631e-08
6.63628e-05
0.00305026
8.47647e-06
-0.00216565
1.82978
0.0155564
0.000923639
0.0274009
-0.000211827
2.22162e-07
-0.00479554
8.32657e-06
4.77505e-05
0.0456399
0.0146238
-0.0543343
0.0143461
5.52877e-06
4.96028e-06
-0.00340735
2.08744e-06
6.58146e-06
0.234537
0.00325078
-0.00671568
6.80283e-05
0.00144553
1.36973e-06
8.65829e-06
0.763715
-0.000277402
2.45276e-05
8.12553e-07
0.00447194
0.00559703
-0.0608684
3.01466e-06
3.74211e-06
0.00789724
1.276e-06
9.17794e-05
1.02189e-05
-0.029915
1.59153e-05
-0.0397507
7.71178e-07
0.000838301
0.000158293
0.000599872
7.89452e-05
5.39349e-06
2.8874e-05
7.80655e-06
0.0020385
2.69766e-06
-0.0144866
1.30856e-05
-0.0140775
0.0414152
6.99726e-05
1.11117e-05
0.00746734
-0.0243803
4.60905e-05
0.00125301
2.84631e-06
-0.00142156
7.95157e-06
-0.000554631
2.90511e-06
7.79019e-06
-0.00937522
9.96059e-05
3.36337e-06
8.92149e-05
-0.0491201
-0.0162936
-0.0622061
8.03889e-06
0.0112707
2.21315e-06
8.3756e-06
3.72235e-06
1.78498e-05
1.421e-06
-0.07033
0.0218499
1.10164e-05
5.60272e-06
9.99643e-05
5.22883e-06
-0.0153373
-0.00290105
0.0132623
-0.0161619
2.85468e-05
0.00159843
3.27742e-06
0.000187873
0.00251057
9.96541e-06
2.79092e-06
-0.810599
-0.0615655
0.000267425
-0.0729232
0.000670748
1.51047e-06
0.000107442
0.0012123
-0.0050119
0.00010612
-0.372868
-0.000203867
2.37795e-06
-0.0321191
-0.0660939
-0.00864984
-0.361473
-0.0765522
3.17831e-07
-0.0152451
9.11948e-07
0.837928
3.33656e-05
1.3812e-05
-0.0683219
5.40909e-06
9.66294e-06
3.05381e-06
3.79587e-06
-0.0271596
-0.00802822
7.34724e-06
8.94119e-05
0.0115561
1.19558e-05
-0.108412
4.76932e-07
0.00116447
-0.0693748
5.50821e-06
-0.000891252
4.88676e-05
7.25969e-05
0.062197
5.46255e-06
-0.0102374
0.000293167
-0.0646369
1.20892e-05
-0.0138967
7.06866e-05
0.0088137
-0.0473042
-0.00477453
0.000303147
5.03258e-06
5.41136e-06
1.05233e-06
0.000122754
1.13792e-06
-0.00897892
1.9628e-05
1.76219e-06
-0.000338134
7.77153e-07
7.7493e-06
4.2798e-05
3.85189e-05
2.24646e-05
2.94891e-05
-0.024596
1.19714e-05
7.34916e-05
-0.000130448
-0.0645673
1.90395e-06
-0.0154644
1.09852e-05
-1.93269e-05
2.30314e-06
4.96013e-06
0.00015874
3.8908e-06
7.86644e-06
0.00435791
1.7679e-06
0.0165944
1.46639e-05
-0.100477
0.337262
-0.00320535
0.00727828
9.62497e-06
-0.0198136
-0.00207586
1.83527e-06
3.725e-05
2.63055e-06
-0.0184298
1.01623e-06
0.00167069
0.398153
0.022468
-0.000886738
8.56962e-06
0.0177119
0.580546
-0.0589254
3.8473e-05
8.87786e-06
9.93164e-06
-6.94009e-05
4.4084e-06
0.0663134
-0.0011467
1.37156e-06
0.00376121
0.00897524
9.46727e-06
-0.0239322
-0.0470364
0.00247966
1.38415e-05
0.0163376
-9.45863e-05
5.68845e-06
-0.00593225
1.56929e-05
8.39501e-06
6.12465e-06
0.000102589
0.000134933
0.051196
0.0180332
0.000207337
0.0513977
0.000133354
3.7545e-06
-0.00869611
5.99987e-06
-1.09106
9.76053e-06
7.29977e-06
5.62495e-06
1.13102e-05
0.0623745
-0.00707832
0.00782565
0.0366924
-0.0905287
-4.57261e-06
5.17878e-06
1.47073e-05
-0.00833722
9.80928e-06
1.83069e-05
8.6861e-05
-0.0375869
-0.0131315
1.70101e-05
4.76348e-05
8.05393e-05
-0.00173648
-0.0880679
1.05454e-05
1.10496e-05
2.255e-05
0.0843359
6.65472e-05
-0.0301435
2.48928e-06
3.7506e-06
8.5976e-06
6.06359e-06
1.30914e-05
0.00118992
0.0166295
0.0335011
-0.000820579
3.21366e-06
-3.3547
1.21286e-05
0.0631308
0.0243129
-0.000341786
-0.0057659
0.00712608
0.00599068
0.000297261
0.000105082
0.0200423
7.93552e-05
-7.42091e-05
0.00246648
-0.000740935
1.0056e-05
-0.0669189
3.47215e-06
0.0523915
0.0563569
1.0986e-05
-9.15943e-07
0.000192802
-0.00518917
0.000112598
5.02046e-06
6.75858e-05
5.47074e-07
4.34463e-05
0.0205539
1.07856e-06
-0.0147632
-0.000372446
3.75276e-06
9.42179e-05
0.000144709
3.34148e-06
0.0126152
0.0992174
-0.018549
-0.00947865
3.83027e-06
1.75049e-05
3.71659e-05
3.40777e-06
0.0121045
0.000116694
7.54835e-07
0.000629784
1.74521e-06
-0.0522498
0.000168674
0.0848548
9.68891e-07
1.04142e-05
0.000936841
-0.000425113
-0.00023456
5.54297e-06
0.123702
0.0088647
0.168708
-0.0246583
0.051846
0.0439208
0.0143837
5.37485e-06
2.96412e-06
9.4269e-06
0.00323544
0.000214268
-0.000224165
-0.0399236
1.17108e-05
1.37884e-05
7.78064e-07
-0.00252388
1.07221e-05
5.19434e-05
5.71845e-06
0.00464296
9.14954e-07
8.60881e-06
2.39571e-06
5.00514e-06
5.14697e-06
3.23482e-05
0.00470936
-9.99173e-05
-0.059408
2.24181e-06
6.07146e-06
-0.0105741
0.0372935
0.00668781
0.0250213
0.000176958
-0.0133141
9.87569e-06
0.000505521
1.0224e-05
1.20469e-06
2.77246e-05
-0.0279748
1.77148e-05
-0.000296291
-0.0262693
1.15402e-05
5.63656e-06
6.67791e-07
0.0014107
3.44284e-07
-0.0033755
9.593e-06
-0.00473801
-4.1577e-08
1.08566e-05
4.77263e-05
0.000715007
3.76808e-06
-0.0432563
-0.00954231
-0.00243087
-3.90756e-05
3.39382e-06
-0.0104401
0.230769
1.63468e-06
-0.0465621
3.16129e-06
0.00492525
3.80876e-06
1.15693e-05
7.67669e-06
-1.98233e-07
4.20877e-06
0.000102208
0.000497117
9.11782e-06
-3.69721e-07
0.0104138
9.5807e-06
-0.0650798
3.74005e-07
7.98206e-05
0.000121818
0.023725
0.129019
1.59873e-06
0.00225008
1.06675e-05
7.31872e-05
0.000989477
0.0421143
0.000336915
7.6699e-07
0.00102917
-0.000909164
0.00131106
0.0470627
-0.000685713
0.00705964
0.000401484
0.000711587
7.29704e-07
7.4242e-06
-0.0100821
0.0172054
2.52771e-05
5.74494e-06
-0.0924375
8.44123e-06
0.000141189
5.80766e-06
0.000590631
-0.163446
1.1579e-05
-0.025423
4.17409e-05
3.65377e-06
0.00301381
1.33681e-05
0.00199828
-0.00711076
0.000110732
0.00149058
8.59006e-06
1.18066e-06
0.00290761
1.22868e-06
1.3081e-06
6.47765e-05
6.63393e-05
0.000354383
-0.00164435
4.67809e-06
4.06805e-05
7.46757e-06
3.44597e-06
1.27302e-06
1.50974e-06
-0.356032
9.31373e-06
6.10274e-07
0.0220274
8.67034e-06
6.24781e-06
0.0653642
7.28901e-07
-0.156203
1.88171e-05
0.07783
-0.00240905
-0.000751408
0.0650901
0.000112845
-0.0899859
1.14896e-05
0.00739819
4.03107e-05
7.5418e-06
6.24895e-06
5.89383e-07
8.35344e-05
5.50046e-06
0.000158372
7.88702e-06
1.15631e-05
-0.0851811
-0.0680076
-0.150327
2.75958e-05
-0.00552073
0.0232786
-0.0295585
1.69056e-06
4.88372e-05
-0.119196
1.02329e-05
6.91122e-05
-0.299906
0.030914
5.85151e-05
0.000267134
2.94666e-06
0.0118596
-3.35184e-07
-0.000830952
0.114042
4.45141e-06
1.72481e-05
-0.0583864
0.000100607
0.00743112
-0.0134791
-8.09602e-07
3.05414e-06
7.91169e-06
1.10548e-05
-0.0111987
-1.32312
-0.0420639
6.46554e-05
1.40202e-06
0.000630583
1.63612e-06
0.00555395
7.19419e-06
2.06581e-05
0.000138869
2.86013e-06
0.00786735
-0.078363
9.8279e-06
2.55618e-05
0.000223137
0.147027
8.7472e-05
0.000326371
0.00850212
0.000127132
-0.00390141
0.00044488
7.34308e-07
0.000153712
-0.00602889
-0.0286382
3.25511e-06
-0.501612
0.000100037
0.000292105
6.62285e-07
-0.10119
4.58154e-05
7.69486e-07
6.26814e-06
6.44185e-05
7.11815e-05
-0.000918785
8.29421e-06
2.19208e-06
-0.000454015
-0.0519915
0.000116858
1.21032e-06
1.93521e-06
0.000149351
0.00142404
2.25082e-06
0.000734154
-0.192888
-3.89417e-05
0.0420367
0.000133023
0.00107003
-0.00738651
5.40823e-06
0.0238511
2.8704e-06
1.82032e-05
0.000118678
0.000111646
0.000634074
0.000279417
-5.4166e-06
-7.47635e-05
6.58722e-05
6.83987e-06
1.14508e-05
0.00314491
3.94949e-05
9.69982e-07
0.482316
3.13727e-05
9.01306e-05
6.16314e-06
-0.00844131
-0.00030984
5.06399e-06
3.15807e-05
7.36438e-07
0.0395239
-0.00117846
0.000117503
0.0136813
0.13458
0.351523
-0.000714178
-0.00282804
7.18293e-06
-0.00827527
1.85232e-05
-0.000302015
-0.0293038
0.0124378
0.0235854
0.225548
3.78964e-07
0.0750549
7.02411e-06
0.00108597
8.14895e-06
-0.0279999
-0.0759146
3.66106e-05
8.91572e-06
0.020201
-0.00225406
3.33107e-06
-0.013693
2.55414e-08
8.6153e-07
3.94824e-05
3.08691e-06
6.36484e-05
1.05798e-06
1.62631e-06
5.45191e-05
-0.0210464
0.000178779
6.49592e-05
3.98065e-06
0.00698609
0.0156163
9.21414e-06
0.0390405
7.62265e-06
1.11353e-06
-0.0644043
8.21965e-06
1.34743e-06
8.37705e-06
-0.00438272
3.22874e-06
3.65291e-06
8.1627e-05
-0.0624557
8.88241e-06
1.35079e-05
9.94529e-05
0.549535
9.78543e-05
0.000101952
0.00556284
3.38109e-08
0.0136802
1.17643e-05
0.0573615
5.65108e-05
5.15473e-07
4.85087e-05
0.00236401
4.48202e-06
1.01928e-05
-0.00321883
0.0160375
1.21722e-05
0.028075
2.29436e-06
1.18202e-05
-4.18007e-05
4.14575e-06
9.37978e-06
0.0414168
2.50413e-07
0.000129883
0.00201128
-0.0228465
0.210023
9.97414e-06
-1.64579e-05
1.85695e-06
5.38399e-06
4.66999e-06
2.54814e-06
0.00335609
2.06787e-06
0.00284133
0.00297942
1.73711e-05
9.50495e-06
6.20743e-05
0.00278826
0.0402179
-0.00511511
0.000139814
7.27835e-06
0.0368258
0.00045307
6.84207e-05
0.000224638
0.000297284
0.000770551
0.0325314
0.000128007
-0.0129283
0.0138447
-0.0501127
3.151e-05
4.46792e-06
7.15622e-05
-0.000465463
8.36338e-06
1.24436e-05
0.00251512
2.27233e-06
6.49795e-06
3.07723e-06
1.26222e-05
2.19271e-05
9.09573e-06
-0.0249361
9.52669e-06
-0.0220581
4.90875e-06
-0.00200947
1.04826e-05
0.00311862
0.000933943
4.77681e-06
0.02778
1.15885e-05
1.66432e-06
0.000202504
7.34045e-06
2.04199e-05
8.3662e-06
0.0188365
1.33411e-05
9.812e-05
0.00268654
0.0331477
2.13556e-05
-0.0190757
0.17036
0.000325977
9.63391e-06
1.64704e-05
0.000740785
1.89158e-05
-0.0504879
8.78628e-06
-0.00314523
3.24937e-06
0.00600688
0.0365938
5.39305e-05
-0.0534615
2.1242e-05
8.53745e-05
8.00613e-06
-0.0714599
5.74335e-05
6.02491e-06
0.000443159
0.00244203
1.4849e-05
2.19171e-06
5.14879e-06
-0.0178495
9.25367e-07
1.8289e-05
0.014708
9.15911e-06
5.42563e-06
-0.000122118
1.813e-05
-0.0188172
1.33598e-05
3.60343e-06
8.7089e-06
4.17737e-05
1.13391e-05
9.56189e-06
0.00068948
0.0331016
5.68413e-06
8.23185e-08
-0.02145
1.19008e-05
-0.0228446
2.06254e-05
-0.100058
6.0493e-06
3.74262e-06
1.03525e-05
-0.0133753
0.0113288
0.000487924
0.000480502
-0.000889871
4.98561e-06
-3.25222e-08
0.0182669
6.2051e-06
0.000883301
1.82604e-05
0.00015757
1.16864e-06
-0.0521126
9.47112e-06
0.00026895
1.67381e-05
0.113666
0.148478
8.1762e-06
5.98282e-05
0.00868518
0.000745388
0.0126399
-0.0442434
0.00645702
6.9609e-07
8.61095e-05
-0.000371484
0.214409
1.17222e-05
0.000135915
2.03971e-06
4.10209e-06
-0.014987
-0.00658436
0.00041785
-0.00263447
0.00830918
5.80371e-05
0.0707633
8.35567e-06
7.95204e-06
0.00171303
-0.0861842
0.00290349
0.00365581
0.540428
9.58866e-06
-0.0978833
-0.00596105
0.0975057
3.21774e-06
-0.0340573
0.019909
0.172852
-0.15226
0.0232714
0.00116178
5.98715e-05
0.00479096
2.14944e-05
4.93584e-06
1.33563
0.00045572
1.17241e-05
0.0335683
2.586e-06
-0.000675092
0.000195114
2.83229e-06
0.43567
-0.000327158
0.0129521
0.000231749
0.000538223
0.0845423
-0.0600905
-0.00230776
1.24234e-06
7.71933e-08
-9.06868e-05
-0.00026888
1.03298e-05
0.000111411
-0.000184576
-1.33047e-05
5.55665e-06
-0.00140154
7.52264e-06
-2.9833e-05
-0.0209896
-0.00979598
7.83483e-07
0.00589221
-0.0111239
4.47229e-06
3.00685e-06
0.0911066
-0.00645015
2.37508e-05
3.00053e-05
3.40419e-06
0.00012474
3.93752e-05
0.00942714
0.00182785
2.81188e-06
3.06401e-06
-0.00789828
4.69136e-05
0.348192
-0.0492997
6.48723e-06
3.15457e-06
3.9541e-05
2.69552e-06
2.60616e-05
4.03872e-06
1.36609e-05
7.40936e-07
6.12875e-06
7.79878e-06
2.49885e-06
0.000302117
0.334979
1.08445e-06
-0.0599805
-0.0292254
1.20406e-05
0.0128518
-0.000431463
0.000117337
1.10672e-06
0.000871543
5.02303e-05
0.00268597
7.48934e-05
1.40748e-05
3.06651e-06
-0.0365846
4.84672e-05
0.0232127
1.24033e-06
1.78179e-06
3.93122e-06
0.000245488
5.88548e-06
0.000146627
0.000564514
-0.00609655
7.0319e-06
0.0242312
-0.474352
0.0037886
9.45785e-06
-0.00311764
-0.0510955
-0.198471
-0.251414
1.1962e-06
3.11168e-06
0.00343704
0.649281
-0.0533704
0.000142264
0.0429309
2.88113e-06
8.0358e-06
5.40481e-05
2.33232e-06
7.86191e-07
-0.00272661
1.14662e-06
0.00473482
6.40005e-06
-0.0784251
-0.0544235
-0.0511891
-0.0127055
0.0077687
3.09388e-06
1.84514e-06
0.0502696
7.85698e-06
7.70905e-06
1.07081e-05
0.00555812
-0.0456159
-0.043139
3.05588e-06
1.11983e-05
1.03165e-05
4.29631e-05
0.039606
7.29053e-06
-0.0262189
-0.0823483
2.51983e-06
-8.55467e-09
-0.00475382
0.000800132
2.0006e-05
1.89033e-06
-0.0617164
0.00251579
8.5772e-06
0.000455814
1.17245e-06
0.00586431
0.159586
1.98378e-05
-0.136606
-0.0408853
-0.0375991
6.83491e-06
1.17187e-05
1.43243e-06
1.0392e-06
0.0265454
5.614e-06
-0.00569298
0.00165971
-0.0724804
1.32629e-05
-0.000114055
0.0772914
9.32627e-05
0.0444194
-0.0243907
1.42264e-05
4.0478e-05
4.16446e-05
-0.000821931
0.0399021
1.19723e-05
-0.0025343
1.18663e-05
0.000263059
1.24489e-06
9.64709e-06
-0.00569293
7.468e-05
-0.0161383
2.54347e-06
0.000194302
1.20555e-05
0.0010639
2.7824e-05
0.0379711
0.21214
0.00640762
0.000103003
5.70219e-06
5.7919e-06
0.000502754
0.0182881
0.066169
0.0411352
4.74055e-06
-0.00554248
0.00173053
-0.00870641
3.96777e-05
0.000102336
9.91199e-05
8.2562e-06
-0.0499913
3.11602e-06
9.52701e-05
-0.00968671
-0.0797166
0.041956
-0.0463093
2.99309e-05
0.00014859
8.55993e-06
-0.0774917
2.14588e-05
0.034673
9.96421e-06
-0.00459064
1.16209e-05
4.8251e-06
8.77806e-05
-4.11044e-05
-3.49121e-06
4.69083e-06
-0.00340389
0.000243546
5.59234e-06
6.1303e-05
-0.0111357
-0.0220384
3.08245e-06
-0.0308716
1.5992e-05
0.000135442
0.000103255
1.36044e-05
0.00020466
4.83621e-06
-0.0153695
-0.0015878
4.65128e-05
2.81113e-06
-0.0110093
0.00010903
9.75381e-06
-0.0581903
-0.194585
-0.000969599
9.61612e-06
0.452759
1.44691e-06
0.00382073
6.04586e-05
-0.0074185
-0.000156158
-0.00191202
-0.00156283
-0.0386524
0.000118136
0.000495681
7.59776e-06
-0.0569555
-0.0027304
0.00178929
0.0119788
2.24658e-06
-0.0582139
-0.00013725
-0.00319999
0.0156415
0.0282962
-0.00537354
-0.0434958
-0.0269099
-0.000117652
1.02387e-05
1.80494e-06
8.39065e-06
1.19064e-05
0.0026656
1.02921e-05
-0.00237185
-0.0315973
6.22126e-06
9.96908e-06
0.000202382
0.000964331
5.90294e-05
1.68272e-05
-0.039804
2.5593e-05
0.000245001
2.89899e-06
-0.0263899
3.41168e-06
-0.0684035
-0.00221474
8.97217e-05
3.76884e-06
1.73135e-06
0.0235928
0.0516507
0.000268983
4.06761e-06
1.21763e-05
-0.0339848
-0.00606571
0.00484864
8.67366e-06
0.000338759
0.421927
9.21815e-06
5.86125e-06
3.93241e-06
-0.0300648
-0.00237052
4.89355e-05
4.50433e-05
4.57966e-05
0.0501614
-0.000708062
1.04375e-05
4.27774e-05
8.97217e-05
1.24629e-05
-0.0014944
-1.48441e-05
3.56846e-06
0.0217272
-0.0273543
-0.0414037
0.0134085
0.0052529
-0.0415192
0.0357034
8.59873e-07
9.69207e-06
-0.0354933
-0.00948766
0.0204629
4.27362e-06
0.000133721
8.99821e-07
5.78965e-06
-0.0909155
-0.0836098
0.000268241
4.34118e-06
-0.016321
-0.000251914
8.18751e-05
0.00903966
0.503005
0.0266263
1.17781e-05
0.0311517
0.0308771
-0.0129475
0.000107752
9.87447e-05
2.3398e-06
7.36071e-06
8.17522e-05
0.000102266
1.46193e-05
0.000228788
5.97422e-05
8.91352e-06
-0.0025474
-0.00442267
5.74987e-05
0.00024808
0.00290417
-0.0045509
8.64199e-08
0.0323367
0.00350683
-0.00996364
0.000105765
8.82316e-06
6.63914e-05
3.74756e-05
1.688e-05
1.31963e-05
-0.000157224
0.000100051
0.000302795
-0.00354666
2.24976e-06
1.18989e-05
-0.00231305
0.0143961
-0.0462081
0.0787605
0.00101709
1.20269e-05
9.88679e-07
6.53058e-05
8.99268e-06
0.000869621
1.45664e-06
6.89003e-07
9.75202e-06
0.0226218
-0.196523
3.19032e-06
0.000603112
4.02817e-05
-0.000178523
6.08455e-05
0.000578837
0.000174506
6.15502e-05
-0.011723
4.52308e-05
0.00959272
7.65784e-05
-0.034269
5.46356e-05
1.16378e-05
7.97425e-06
-7.29775e-05
-0.00261715
1.065e-05
0.000101263
5.76464e-05
0.000199071
-0.0205184
-0.155911
-0.0172788
6.25446e-07
-0.679203
0.000371917
4.52407e-05
2.3208e-06
0.000250074
5.81e-06
-0.0127845
-0.023048
7.8867e-05
1.35176e-06
0.0153159
1.2707e-05
-0.00892668
0.0098855
-0.00276546
1.01472e-05
0.00076409
0.0293758
-0.676283
0.0314015
0.000171751
6.1666e-06
6.62122e-05
9.04522e-06
0.0215572
9.50217e-06
6.55319e-05
-0.0481824
-0.0176207
6.50161e-06
5.42752e-06
-0.0166039
8.89841e-05
0.0225549
0.000391844
1.73067e-06
9.24451e-05
-0.000833495
-0.000754319
0.0287233
5.35975e-05
-0.456466
3.16201e-05
6.04415e-07
5.16415e-06
-0.00816317
2.10054e-06
-0.00613926
1.56321e-06
5.03066e-06
-0.00780937
4.62878e-05
7.87034e-06
3.79337e-06
6.2162e-05
-0.287381
0.000240173
0.000105535
4.58734e-07
9.50078e-05
5.07012e-06
-0.00540486
6.72124e-05
0.000101999
-0.00515233
4.94476e-05
0.00319215
-0.000162892
8.63252e-06
0.000618925
0.0372704
-0.00609165
9.63475e-06
-0.242718
-0.00794217
5.80721e-06
1.51344e-06
0.00297668
0.0147862
0.000589053
-0.00541783
0.0191906
1.07702e-05
0.00134496
1.24096e-05
4.27053e-05
0.000109191
0.00865859
-0.0163649
-0.00831657
0.0669347
0.0188694
0.00290987
2.065e-05
0.0189938
1.7046e-06
-0.0476742
-0.00661923
2.21585e-06
7.44872e-06
-0.0104832
2.39688e-06
1.40253e-06
-0.00364293
0.0666632
-0.00562839
4.59169e-05
0.00175651
7.54952e-06
0.0125701
0.00240688
3.22415e-06
0.0476171
-0.375858
-0.00869397
-0.0110621
0.00345483
-0.0129218
7.10496e-06
1.3167e-06
1.2028e-05
0.00031562
1.32662e-06
-0.00568636
1.65887e-06
0.00341334
-0.00984264
0.000305706
0.00616902
0.00196368
-0.0119855
0.00819888
0.0111138
-0.0327209
-0.0414559
3.75914e-05
1.19707e-05
0.0182894
2.10618e-05
8.23172e-06
-0.100858
6.12054e-06
0.0307624
2.56173e-06
-0.0715069
3.96507e-05
5.23586e-06
-12.388
-9.569e-05
-6.4403e-05
-0.0133333
0.0636077
0.095368
6.08008e-05
0.000180715
6.05344e-07
0.000173383
-0.000262421
0.000209518
1.94503e-08
-0.0112339
-3.25117e-05
3.26627e-05
-0.0100312
0.000107295
-8.27505e-05
0.00385408
-0.00013523
0.000275095
5.43147e-06
-0.00129224
7.47467e-06
-0.0022567
-0.00441824
0.0103392
8.91391e-06
8.70119e-05
-0.0145964
1.95461e-05
0.000171802
8.50515e-05
9.69049e-05
-0.0523417
0.000144324
1.45908e-06
0.120247
8.5695e-06
0.0165538
2.62199e-06
1.66869e-05
0.00155133
0.00818259
6.4299e-05
0.0132018
0.033802
9.82827e-05
9.51016e-06
0.00336558
9.77633e-05
-0.0238794
2.46658e-06
4.24739
-0.00105709
9.29232e-05
6.23997e-05
-0.00643099
8.59095e-05
0.00224607
0.000170647
-0.000646766
2.50515e-05
1.11453e-05
0.953601
5.19932e-06
5.41898e-05
1.68339e-05
0.00253381
5.74876e-05
0.000321779
0.0148734
7.08086e-07
-0.00169359
1.49192e-05
3.1615e-06
3.04462e-06
-2.77015e-07
4.6167e-05
6.59962e-06
0.00143337
0.0430335
0.000455211
0.000146295
3.56491e-05
5.11568e-06
-0.0187622
5.22986e-06
0.00864588
-0.0457723
-0.0279669
0.00324297
5.43269e-05
5.41306e-05
2.18083e-06
1.50699e-05
0.00466295
8.55884e-05
-0.00741306
0.000520446
-0.0299365
0.00165432
2.78546e-06
1.03532e-05
-0.00794855
5.36855e-06
7.85723e-05
-0.00976056
0.0191538
2.02593e-05
-0.00300571
1.62199e-07
2.7932e-05
4.79526e-07
1.68647e-06
0.00264914
0.00209688
5.86856e-06
0.000106993
0.00436618
0.000206875
0.000493357
0.00983723
0.00689548
-0.00604763
-0.000533651
3.64305e-05
1.19563e-05
0.000446059
0.0113735
0.0175395
0.0149565
0.000107877
0.091676
0.000989184
1.50569e-05
4.97611e-06
0.000305744
2.52831e-06
9.77638e-05
-0.03742
5.7646e-06
7.91687e-06
-0.0149277
-0.110488
0.000266697
-0.0943034
2.88517e-06
-0.0228819
7.21578e-05
-0.0393395
0.00023109
4.5088e-06
0.0147439
0.00763568
4.16994e-06
-0.00130757
7.653e-07
0.00427734
5.23021e-05
-0.000537746
-0.0868872
-0.000481571
-0.0539912
6.3883e-06
0.00530023
4.11267e-06
3.92248e-05
4.53341e-06
0.000105076
4.75341e-06
-0.00129733
0.0157515
0.295388
7.34938e-05
2.2217e-05
0.00215431
5.4178e-06
1.61324e-05
1.71689e-05
-0.175811
3.86568e-05
-0.0846018
0.0113913
-0.00689251
1.63666e-06
-4.10813e-05
-0.00559812
-0.00119155
3.58949e-05
0.0160922
5.54692e-06
1.23054e-05
5.83266e-06
-0.260099
8.05158e-06
5.41242e-06
0.0147784
5.38678e-06
0.00254267
-0.00128911
9.5704e-06
0.0664627
5.11383e-05
-0.0726102
6.11554e-06
0.719425
9.59886e-06
-0.00616078
-0.250546
2.30904e-05
6.08779e-06
5.30027e-05
-0.00797101
9.71576e-05
-0.00533022
7.9909e-05
3.4174e-05
0.00555344
0.000144564
1.18562e-05
-0.0934567
5.45008e-05
5.86221e-05
-0.000686487
6.38957e-06
6.59311e-06
3.78229e-06
6.95709e-05
4.33352e-06
7.68325e-06
-0.0602125
0.0738154
-0.00247459
0.0268427
0.000323367
9.46841e-05
-0.015191
-0.00906304
2.76478e-06
-0.0148691
-0.0427284
-0.00495189
-0.0581451
6.41707e-05
-0.0246674
0.0223842
-0.300892
-1.29062
-0.0262626
0.00010811
0.000816039
3.34384e-05
4.23739e-05
1.44042e-05
0.601194
2.31816e-07
-0.00545824
-0.00320782
0.00752109
1.54092e-05
0.000788512
0.000368817
1.29574e-06
-3.76343e-09
7.2026e-06
-0.00438186
2.22971e-05
1.17558e-05
0.00016825
-0.0260154
2.74347e-05
-0.00166419
1.0237e-05
-0.006791
0.00360311
4.2511e-06
1.74969e-05
6.4468e-06
-0.0681335
0.0731211
-0.00275632
-0.132366
7.62366e-05
-0.000694922
8.0837e-07
0.00021653
1.31414e-05
5.97341e-06
1.14595e-06
0.0360547
7.97818e-06
0.000184741
-0.0675535
2.71481e-05
9.08671e-05
4.09243e-06
-0.0244042
0.00142352
-0.319024
-0.00808594
0.00512249