/*--------------------------------*- C++ -*----------------------------------*\
| =========                 |                                                 |
| \\      /  F ield         | OpenFOAM: The Open Source CFD Toolbox           |
|  \\    /   O peration     | Version:  v2012                                 |
|   \\  /    A nd           | Website:  www.openfoam.com                      |
|    \\/     M anipulation  |                                                 |
\*---------------------------------------------------------------------------*/
FoamFile
{
    version     2.0;
    format      ascii;
    class       volScalarField;
    location    "550";
    object      omega;
}
// * * * * * * * * * * * * * * * * * * * * * * * * * * * * * * * * * * * * * //

dimensions      [0 0 -1 0 0 0 0];


internalField   nonuniform List<scalar> 
13851
(
0.0235077
1.2582
0.0774029
0.0232043
0.0784252
0.0556101
0.0216372
0.0461393
0.0206664
0.0910589
0.282402
1.99243
2.78213
3.20883
0.0214111
0.0331082
0.02477
0.0283637
1.38752
0.0206616
0.0230408
0.0750356
0.0213057
0.0221751
0.0214837
0.0469305
0.0240866
11.8976
0.0233322
0.0241866
0.0620926
0.0250802
0.0738385
0.469662
0.0221856
0.183558
0.742868
0.188163
0.101151
0.44417
0.0213342
0.0197531
4.3625
0.287742
0.268332
2.58944
0.279624
0.557417
0.0243073
0.041572
0.0721943
0.134024
3.2891
0.0215711
0.0225189
0.0197568
0.0212421
2.44962
0.023962
0.0216734
0.153401
2.84955
0.0526044
0.0911932
0.176036
0.0250608
2.02615
0.286367
0.0335388
0.0281729
7.31611
3.00295
1.18604
0.0216857
0.0210234
0.0208881
0.072115
5.33217
0.0467817
6.6704
0.0218868
0.21998
0.0213624
2.44622
0.0541736
2.03954
0.0420638
1.78855
0.0252549
0.0208577
0.182872
0.0319273
0.286554
0.0274568
0.0250327
0.021956
0.0802612
2.72884
0.0417926
0.0219587
4.14488
0.0499376
0.0222426
0.0238088
0.0210217
0.043637
0.0552172
0.0196535
3.52686
0.0599279
0.0222245
0.0209299
0.0313931
0.0226221
0.0222223
0.831713
2.75928
0.0196859
0.0227717
0.0229386
4.66833
0.0236853
2.80985
0.585011
0.607607
0.0219164
0.606535
0.048522
0.0228624
0.134188
0.0213144
0.0207205
5.90768
0.0213628
0.819823
0.0209117
0.0196982
2.91591
2.43571
2.15853
3.7917
0.0224884
0.0227062
0.02009
0.0232105
0.295939
0.0503551
0.132832
0.0216215
0.259507
0.0755497
0.0225075
3.57661
0.0213005
0.0228563
0.0231194
0.0210279
0.0231145
0.133455
0.0712849
0.019779
0.0274039
2.334
0.0207043
0.0277507
0.0199183
0.064763
0.0340072
0.0227373
4.92972
6.5896
0.0203829
0.0210467
2.12337
0.0206957
0.561489
0.0469321
0.0226815
1.83558
0.0196663
0.0258489
3.1422
0.0213595
0.0804064
0.0197593
0.0214923
0.0252443
0.0218698
0.0885002
0.0881031
0.289887
2.62937
0.0211405
0.0336501
2.63472
0.022712
0.0224393
0.276484
0.022476
0.0209204
0.0219813
3.49769
0.0237306
0.0212619
0.0707337
0.0213716
2.21011
0.0249072
3.06184
0.0196882
3.41491
0.0221496
0.323181
0.0196219
0.0200086
0.275336
0.0515374
2.47256
0.0213493
3.01
0.0250739
0.0219289
3.06996
0.128703
3.40886
0.021588
0.0293955
0.0211844
2.07273
0.0196211
0.0456141
0.112155
0.0203754
0.0210507
0.0645126
0.0420215
2.21004
0.305861
0.0200703
0.0212739
0.057051
0.349704
0.020205
0.0767911
0.0206819
3.18047
0.0511591
0.334368
0.0232185
0.0257062
0.0272221
0.373165
0.0219274
0.0233057
0.0516073
0.831884
0.0847388
2.96217
22.5899
0.0214411
0.0200284
0.0272212
0.447654
0.0204637
2.50363
0.0227009
0.0218922
0.026976
3.1164
0.0709717
0.0271172
0.02285
0.195662
0.0442919
0.0321937
0.0207308
0.216334
0.174829
3.67953
0.277148
0.0202265
0.019649
0.020956
0.049408
0.379801
0.533265
0.020777
0.0214453
0.170206
0.211854
0.163692
0.0236506
0.0216823
0.03602
0.215224
2.38001
0.0271505
1.98692
0.020752
3.2201
0.0270352
0.024638
3.64394
0.0216582
0.0435457
3.05037
0.0207558
0.0429975
0.0275832
0.0234417
2.54975
0.0273368
0.0218743
2.93767
0.0198015
0.0259526
0.0226175
3.76258
0.122283
0.0213488
0.0516112
0.0213821
10.1435
0.0297244
0.0213071
0.021286
0.119336
0.0287113
0.0227718
0.0214483
0.0216354
0.0218334
0.280628
4.13445
4.10207
0.0312456
3.7242
2.43572
0.0213679
0.0343007
0.163823
0.0359947
0.0532008
0.11718
1.76629
0.0252016
0.544947
3.12218
0.0214272
0.0503731
0.0510771
0.983709
0.0227615
0.056089
2.07945
0.0210745
0.488341
0.0212731
0.021394
0.020532
0.0196519
0.0209674
3.20866
0.267098
0.0213814
0.0411865
0.0198508
1.87175
0.0393666
0.418317
4.21546
0.0213952
0.0557082
0.027698
0.415394
0.0212417
0.019703
0.0287316
4.87098
0.0214234
2.485
0.034577
0.125034
6.46459
0.128691
0.109565
0.0254545
0.0207849
0.0220715
0.0299663
0.0510397
3.33475
0.0340088
3.49964
3.08719
0.0198636
0.021449
4.72129
4.98398
0.102927
2.81093
0.0296411
0.0283022
0.0219263
2.44425
0.0205076
0.0324149
0.0249963
0.0215694
0.0210702
0.0207293
0.0199051
0.0888406
0.0499444
6.53689
0.0287072
0.05461
0.0324562
0.38374
0.0266394
1.18545
0.0243843
0.273528
0.0196853
0.0207097
0.0217335
0.64067
0.374888
0.123711
0.0317197
8.94685
0.473772
0.0402138
0.0232409
0.0660024
0.0212206
0.3877
0.0209994
1.97512
0.325112
0.0694727
3.19063
0.0227838
0.171905
0.318502
4.9657
0.0196427
0.0297022
0.0480759
0.122511
0.0204639
0.0218495
0.0707284
0.124489
0.0328328
1.59718
0.0215779
0.0213528
2.19234
0.0285533
0.0196317
1.64647
0.0207742
0.0234882
0.0205488
0.0403665
0.0227464
0.0196674
0.0225907
2.96739
0.0213746
0.036197
0.0208338
0.0285974
0.266196
0.0227627
0.0213046
0.0226477
0.0226323
0.644003
0.0218687
0.0463999
0.0213591
0.021678
2.98862
3.35257
0.0213981
0.0294276
0.0267972
0.311187
2.42436
0.0213682
0.290906
0.0212668
0.0782818
0.0216084
2.03307
0.0197986
3.68555
0.0835679
0.0197671
0.0295017
3.01814
0.0468478
0.269215
0.0227128
0.611732
0.0229271
0.0206404
0.0207374
0.0215774
3.96659
0.0646832
0.131771
1.39507
0.0494797
0.0198199
2.78463
0.364981
0.0260051
0.0276108
0.230726
0.586443
3.46163
0.0224082
2.06883
2.65245
2.90052
0.0280733
0.0302217
0.488289
0.184525
0.902701
0.296825
2.20456
0.0232967
2.22275
3.06818
0.0196973
0.163728
0.0664288
4.18075
0.0234041
0.0212382
0.0210028
0.0212755
0.08705
0.0385995
1.81098
1.56166
0.0207723
2.53185
3.12562
0.0579152
0.337564
0.0355505
0.0196008
0.0206863
0.190818
2.80738
0.0229414
0.0905952
0.180031
0.0197436
0.0371167
0.572867
0.25908
0.11579
3.73765
3.09278
0.021288
0.0215828
1.32269
3.03723
0.129698
0.0338598
0.0582669
0.0196654
0.0211179
2.01461
0.0197212
0.0233152
0.0196526
0.0207938
3.09874
0.0873985
0.029567
0.0197104
2.52931
0.293319
0.02078
0.0209825
0.020518
0.0219797
4.99564
0.310172
0.310279
2.81601
0.605275
0.032145
5.75621
3.24053
0.0256956
0.0340071
0.0195944
0.0226301
0.0345613
2.99036
0.458535
0.0891309
0.0286297
0.0206202
0.032684
0.0225569
0.282413
0.0718164
0.0213491
0.0320768
0.0204657
0.0267318
0.128734
0.0216453
0.0211983
0.0395588
0.0216209
0.0792923
0.48846
0.122887
0.0331812
0.134212
0.0206056
0.0872941
0.0283132
2.6408
0.0220743
0.0220191
3.4228
0.0236434
6.80861
3.09937
2.29305
1.57925
0.0205075
3.21203
0.0204081
0.0207882
0.0197921
0.0208021
0.0238568
0.0295444
0.038199
0.0196916
2.32673
0.086831
2.32729
0.020935
0.0199272
0.0208771
0.162454
2.45782
0.0528849
0.0270062
0.020431
0.0217557
0.0215519
0.0210828
0.214349
1.74196
0.0215978
0.0196812
0.0215903
0.0210739
1.0179
2.36042
0.0333272
2.72398
0.597106
0.0211803
0.130221
4.96478
0.0354512
2.07923
0.0218715
0.0274701
0.0519035
0.027792
0.324978
0.0213854
0.535979
0.0210549
0.0302231
2.99401
0.0209855
0.0230352
0.0581251
0.0206491
0.025384
0.210874
2.39513
0.0701565
2.24084
0.199465
0.0196369
0.0209139
2.64013
0.173581
0.0449333
3.13605
0.0205566
0.0242091
0.0197123
0.567032
1.99069
0.025674
0.0218991
0.264182
0.0242317
0.020844
2.64523
1.00806
2.82762
0.0197863
0.0215873
5.3662
4.05886
0.154639
0.0223051
3.44177
0.0213748
0.270411
0.134768
0.0736864
0.0249418
2.36295
0.0262544
0.0231114
0.638343
0.0219261
0.0237187
0.0228946
0.0205878
2.34563
0.0316953
0.11728
0.029185
0.22642
0.0206414
0.334317
0.0225823
0.0262005
0.0200133
0.0211435
0.021422
3.00531
0.020987
0.0197381
0.678358
0.0216027
3.95893
0.0212407
0.0225848
0.0699
1.34276
0.250564
0.0209271
0.122302
2.7007
0.0219025
3.24243
0.0299268
0.0205604
0.0329304
3.53515
0.0882936
0.0258982
0.0208891
0.0196661
0.336214
0.0827301
0.0572794
0.026711
0.0325648
0.0221175
0.0224242
0.0896886
0.399463
0.0865056
0.550605
0.021568
0.0793745
0.0841489
3.80908
0.0255199
2.15566
0.90032
0.0216169
4.24572
0.0789375
2.55485
2.63539
2.86431
0.287613
0.040967
0.0205756
0.0292961
2.51564
2.93408
0.0212159
0.0217182
0.0666299
0.229534
0.0197863
3.19046
0.0205345
0.0213934
2.14969
5.29002
0.200465
0.0207781
0.0214085
3.2813
0.206044
0.121045
0.0237615
3.13035
0.299639
2.39239
0.0545344
0.0403813
0.0218813
0.0215984
1.15881
0.0494503
5.70713
0.0308835
0.0335301
2.39482
2.61363
3.46249
0.0214499
0.0306461
0.020767
0.0338978
0.0229415
1.96413
0.0243298
3.11678
0.0197817
0.0683811
0.0211435
0.152781
0.0327239
0.030247
2.73268
0.0432303
0.0425634
0.0222872
0.0682018
0.515275
0.0620725
0.0234108
6.52901
0.0203972
3.00564
0.277739
0.0216506
3.3816
4.65553
3.61368
0.305704
0.0296863
0.0212011
2.8494
0.0244007
0.815652
3.07219
0.0209414
0.0226674
0.59668
0.338565
2.06171
0.0215663
0.0208713
1.33676
3.02173
0.116456
0.0254529
0.0230837
0.301544
2.04115
0.08707
0.019744
0.0414852
0.0206639
0.0232507
0.0615979
0.0219869
2.01981
0.387401
0.0214036
0.0228933
0.0212255
0.0229493
5.90497
3.20018
0.0292951
2.16979
0.0211412
0.0293239
0.0211543
0.0206796
0.0215899
0.021388
3.91026
0.0213994
0.0519416
0.0214544
0.0260649
0.0686019
3.52688
0.0227306
1.34099
0.0604697
1.46651
0.0324491
0.0327969
7.65445
0.0267416
0.0396175
1.94101
0.920419
2.99473
0.0402
0.263523
0.0219738
0.0410956
0.0511788
2.09845
0.0213722
1.93974
0.0208961
0.0209532
2.9551
0.0216645
2.54567
0.0252051
0.0207523
0.0351885
0.0207669
0.0214144
0.0208119
0.0218248
0.188866
0.0209588
0.189625
1.98709
0.0627326
2.17416
0.0215789
0.0226106
0.0232929
0.0212875
0.020745
0.0800393
0.0219224
0.0208407
0.021952
0.0215565
3.87764
1.72607
0.0606648
2.79797
0.263335
0.0211133
0.257606
0.0284265
0.0209492
0.336669
0.0486907
0.43559
0.0210832
0.279367
0.366851
2.19765
0.0204095
2.77768
0.0309166
0.0239647
0.0210944
0.020565
2.24655
0.0756323
0.610589
0.02093
0.0213218
0.648868
0.0216696
1.26323
0.286087
1.55763
1.79033
0.353745
0.0216554
0.0213447
0.0548401
0.0287585
0.0238035
0.161455
0.0420455
0.0219573
0.0229389
1.88375
0.0208602
3.78517
2.39712
0.816169
0.190565
0.0222968
0.0202049
0.0217698
0.285565
0.379555
0.0204089
0.0230702
0.0208992
0.0776794
0.0198605
0.0208604
0.0219635
0.0326103
1.39456
0.0409461
0.0316619
0.0214753
0.052169
2.58867
0.0222326
6.1251
2.2828
0.0813077
0.0199786
0.0441618
0.0212337
0.0213448
0.0217041
5.2037
0.122353
0.40011
0.0238764
0.270721
0.0212857
0.0211131
0.0216643
0.192334
1.02107
0.0197575
0.0322204
0.0520972
3.46976
0.0227459
1.44309
0.0244442
2.23101
0.0776439
3.30685
0.0911835
0.0800234
0.561965
3.03953
0.36458
3.87547
0.0212281
0.151722
0.0198465
0.0235026
0.0260809
0.0216321
3.09082
0.0294661
0.0273771
0.307209
0.185107
0.619677
0.0213647
0.0235908
0.0261179
0.0202847
0.0305296
1.24556
0.488825
1.27349
0.0209495
0.0268029
0.0241618
0.570913
2.8817
0.0543241
0.0201823
0.0218585
2.10036
0.0455497
2.20967
2.61171
0.035458
0.0199587
2.76292
0.0298362
0.043716
0.0283159
3.3092
0.266402
0.121135
0.0875464
0.0223188
0.0274987
0.0214002
3.14174
0.0461434
3.18463
0.252288
0.0258968
0.146975
0.0226697
3.35372
0.273916
0.0208469
1.5276
2.95473
1.60113
3.36123
0.0216438
0.021367
5.64163
2.60779
2.01131
0.0228003
0.0215874
0.0213989
3.76382
0.142353
0.0218053
0.0515945
0.0872299
2.20527
2.69397
0.50666
0.021431
3.35058
0.0245746
0.021284
0.140942
2.58152
0.0216441
0.0208886
4.57838
3.28455
0.0215686
0.0209337
1.9253
0.0207915
0.187526
0.0209493
0.589811
0.0213612
0.0528001
1.22227
2.93747
0.022489
3.83052
0.384379
2.29496
2.47476
2.20886
0.0356858
0.021169
2.15657
0.0227904
0.0213814
0.0202555
0.431345
0.0211616
0.546379
0.0209061
0.0232901
5.35148
0.0664861
1.9308
0.0228362
0.0248146
0.0207289
0.0322836
2.84609
3.33374
0.0208708
0.0664058
0.294476
0.0216292
0.0205766
2.90449
0.0340703
0.0348514
0.130782
2.46853
1.0234
2.62288
3.2956
0.0382816
0.276753
0.370384
1.59803
0.066249
0.0201602
0.128228
0.0211567
0.0211378
1.8248
2.94448
0.0231978
3.86589
0.0812269
4.04722
0.0546568
0.0463461
0.0212401
0.0822673
0.0350616
0.0210987
0.0225856
3.12107
2.77706
1.44379
3.3851
0.0381137
3.16269
3.23552
0.0317197
0.0217529
0.0210615
0.218393
0.021015
0.235465
0.0223941
0.0220694
0.0233933
2.67821
3.72326
2.44562
0.0219287
2.84375
0.025133
0.0294085
0.020992
0.0208501
2.59347
0.0270629
3.25627
1.15693
0.0455799
0.116937
0.0214807
0.0402299
0.0216285
0.141982
0.0225147
0.0227448
0.0218463
0.0224389
0.160796
0.0221248
0.0346746
0.0211545
0.0353132
0.129705
5.78331
0.0210748
0.0479656
0.0213128
0.062315
0.0232992
2.60715
0.177008
0.0314276
0.0237101
0.0224506
0.0473952
0.0212719
0.245131
0.0214295
0.0209726
0.0223033
2.91855
0.0269006
0.0245791
0.0299102
0.0213678
0.0644973
2.83848
2.3809
0.0354797
0.0214065
0.0319648
0.0202112
0.0210641
0.187906
3.09636
0.0211494
0.03032
0.0946981
2.92757
0.0218444
0.0220467
3.13116
0.022573
0.0370607
0.279114
3.82042
0.0213762
0.0243435
0.0212585
3.34695
0.132714
0.0417722
0.119638
2.41386
0.0224038
3.68298
2.24425
0.0216448
2.69182
0.0814174
0.02242
2.90149
0.0215558
0.0212499
0.0205038
0.18518
0.043202
0.167394
0.0227808
0.0222949
0.0299574
0.275241
0.48608
3.68477
0.280845
0.0220214
0.133271
0.130567
2.17319
0.0744328
0.23142
0.0210279
0.0296119
0.020584
0.997397
0.0362358
0.0212518
1.85449
0.162438
0.032291
0.0263301
0.0196892
0.021301
0.0533003
0.0341265
0.676639
0.0662597
0.0663671
0.0599312
0.115267
2.2857
0.0585881
3.61648
0.0210897
0.0208464
0.178407
2.30669
2.51047
0.0505112
0.0224633
5.8583
0.291509
0.0210224
0.0262669
0.0208264
0.0411923
0.0703487
0.0690678
2.58818
0.425328
0.0226317
2.50421
6.66899
0.021426
0.0785783
2.40951
2.22759
0.023781
0.0751935
0.0196137
0.0231501
0.0211106
0.025287
3.56378
2.95431
2.69819
5.76687
0.0225994
0.0337753
0.0536027
0.0209957
0.0219183
0.0205739
3.02631
0.0209761
3.48366
0.0361951
0.0478426
0.160495
0.197826
4.76664
3.02583
0.0404264
0.0198797
0.0229998
2.88048
2.28372
0.0247324
0.020793
0.0206407
0.0627062
0.0302628
0.146575
2.24671
0.0225625
0.020525
0.123042
0.0301698
6.3191
0.988652
0.0209459
0.0716502
0.0215888
3.59606
0.0200268
3.16462
0.021063
0.0224972
0.0311824
0.0219636
0.0593375
0.0298371
0.0470496
2.41344
2.77908
0.0251983
0.0298068
0.0212301
2.95935
2.20392
0.0218114
0.0200812
0.310673
0.0196626
3.8492
0.0212326
0.0337005
0.0693949
1.08064
0.0375491
0.0227663
0.0216098
0.0703714
3.18414
0.0211696
1.01853
4.04236
0.990663
0.409783
0.0331951
3.72954
0.0254098
0.234274
0.0212855
0.278729
0.283693
2.22853
2.08695
2.25166
0.0219634
0.0372899
0.0208801
8.24522
0.332499
3.02371
2.36652
0.0269167
2.27872
0.632513
0.0344625
0.0228176
0.0216342
3.34726
0.0256092
0.0698877
0.0231133
0.0216784
0.0206796
0.0215752
2.72296
0.178698
0.0310225
2.1327
2.53615
0.0214708
0.0213233
0.0205616
0.0279402
3.14394
0.204323
0.0255563
0.0246814
0.924075
0.077038
0.0443106
4.32392
0.0302032
3.49405
0.0301681
0.0294202
0.021297
0.0230525
0.0701156
0.389307
0.285599
3.14442
0.0696631
3.30506
0.0244129
0.0243675
0.0214863
2.92028
2.27707
0.594744
0.0507664
0.0235176
0.0214159
0.0210959
0.0214262
0.0205926
3.17686
0.0291134
3.11167
0.0320112
2.50547
2.0067
3.19538
0.0313053
0.0258846
2.00795
0.0388592
1.40366
3.31858
0.0206256
0.0372698
0.0271075
5.5161
3.03833
0.0345282
0.0751979
0.3717
0.0229352
0.0488676
0.0241885
2.34464
0.278016
0.0239562
0.0216067
0.287371
0.616261
0.130106
0.689903
0.128371
0.0283724
0.0212183
2.20791
3.10747
0.0784757
0.0307326
2.76199
2.36939
0.0208984
0.0214208
0.0241835
3.09987
2.97333
0.021349
4.24537
0.0220636
0.0210857
0.0216373
6.05397
0.299453
0.0343702
2.62297
0.0229658
0.0227073
0.02099
3.12194
0.0222845
3.332
0.0238621
1.31342
0.0218423
0.0211578
0.121832
3.2636
0.325953
0.0356658
2.3419
0.0200555
0.0215282
0.0214319
0.0443038
0.0643392
0.0643762
0.0358503
3.28161
0.0243404
0.126305
0.100798
2.29261
0.0214783
3.37171
3.0441
0.0250223
0.526235
0.0659188
3.16599
0.0216225
0.0681855
0.0211248
1.27128
7.35788
0.074079
3.3685
0.0235731
0.0489527
0.0225202
3.92292
0.0199462
0.02081
0.356253
0.0884592
2.46026
2.8103
0.0645023
0.0284581
0.0204867
1.00472
0.0303988
0.0211598
0.146515
0.0207263
0.0432696
0.0214101
1.03209
0.0226347
0.294467
0.2994
0.0310262
0.09101
0.0548387
3.62694
0.021343
1.16191
1.72245
0.0207313
0.0213764
0.0228963
0.0218718
0.0393361
0.0212735
0.290313
0.0761542
0.267622
0.0633918
0.0215424
0.0218925
0.0204909
3.12557
0.0215487
0.021303
0.245762
0.0238978
1.37757
3.38583
0.0890568
0.0241251
0.0334566
0.0226585
0.0220492
0.0373427
0.0201389
0.0240295
2.46346
3.2557
1.27634
0.0226081
2.04785
1.04094
0.0218888
0.257807
3.11272
0.0213628
0.0235355
0.021317
3.25526
2.20193
0.232772
0.02012
0.0239959
0.0232725
0.0216088
0.130662
0.0215884
0.0369081
2.74604
3.54222
0.0206057
0.0238918
0.0235104
2.32922
0.0196802
2.17199
2.83938
0.0517347
0.882078
4.39169
2.23177
0.0227952
0.328559
0.382643
0.0223971
0.020468
0.0208828
3.34132
2.24135
2.07472
0.0212719
3.51674
0.0216073
0.163917
0.0205041
0.0232255
0.0223339
0.020595
2.23168
0.0224614
1.91746
2.5847
2.15992
0.0469313
0.052251
2.19618
3.14065
0.0218559
3.97779
0.0204978
0.0197053
0.0213091
0.0295035
0.020722
2.27791
0.0297694
0.15941
0.0368457
2.53272
2.14307
0.0853125
0.0205704
0.0547632
0.0751933
2.22714
0.0215097
0.0198865
0.0229818
2.05852
0.0216871
0.316627
2.17444
0.0412115
0.0601285
0.0215309
0.337499
0.0218081
3.17703
0.0202556
2.77445
0.0312194
0.0215352
2.18341
2.10819
0.0201926
0.0660326
0.0245335
2.07994
0.0329051
0.142706
0.128357
0.0218185
0.054544
2.71667
0.0211003
0.0286082
0.0231154
0.0769692
0.0322984
3.10731
3.09326
0.0215524
3.4066
0.0224207
0.0439496
2.89363
2.12988
0.0353672
3.00939
0.209968
0.0216193
0.315977
0.130804
0.0307549
0.0224121
2.55454
0.0202218
6.96835
0.0658006
0.107292
0.0213545
0.0307666
3.22264
0.0443562
2.42852
0.022081
0.0237934
0.0818016
2.66824
0.0260646
3.16274
0.619211
2.29279
0.0216528
2.66655
2.23017
2.26823
0.0214052
0.0224434
0.021349
3.26257
0.0274901
0.362066
0.297474
0.0218506
0.0203203
0.0213764
2.26309
3.04161
3.87176
2.14911
0.0209759
2.94247
3.21581
0.132477
2.10656
3.06361
0.034378
7.1458
0.0233724
0.0257047
3.18959
2.76471
0.0218442
4.05873
0.0218164
0.0214145
2.20343
3.13543
3.68543
8.74556
0.0310764
0.0218517
0.023194
3.36337
2.06456
0.0211812
0.0466414
0.492135
0.021444
0.0215536
3.07018
2.59752
0.0230495
0.0214412
0.0223173
0.0226495
0.675226
0.0218541
0.0211812
0.0257183
0.435427
2.97457
0.0903903
2.55826
0.0215668
0.0247572
2.83896
3.21213
0.028162
0.0911682
0.021335
0.0356792
0.0227793
0.0221554
0.0663919
0.0211169
0.267808
0.0324991
0.0208568
0.0244388
2.34696
1.69517
3.59602
0.0214587
0.0247146
3.31868
0.487452
0.0240418
0.0214291
0.0214895
0.269701
0.0215715
0.0218743
0.0278527
0.021363
2.87454
0.0538022
0.0218048
0.024188
0.0200586
0.0215821
1.5692
0.322174
0.0705043
1.99131
0.0555735
0.0219163
0.0213153
0.0215327
0.0213116
0.021779
0.0238297
0.0721621
2.84084
0.0226902
0.110478
3.50744
0.0825283
0.0212553
0.0208266
0.0234828
2.23005
0.0212616
0.935823
0.557984
0.0459691
0.0221104
6.43435
0.02008
0.0397388
0.0204281
0.0201105
0.0217462
0.0208405
0.035416
2.79134
0.0890481
0.038597
2.21751
0.60238
1.03591
0.0317384
3.13376
2.0281
0.108707
2.27217
3.11395
0.115829
0.347747
0.021869
0.020743
1.46351
0.0210368
0.024277
2.19433
0.0314874
1.79801
0.193255
0.0207859
0.0245633
0.0215265
0.0332682
0.0204722
0.0346421
2.49101
2.94407
0.74441
0.021526
0.0202555
0.0721404
3.68948
2.91183
0.114723
1.45312
0.020883
2.2514
3.55686
0.0751442
0.0239106
0.0215553
0.0200034
0.0233536
0.0214946
0.0213741
0.0240542
2.8845
0.0767624
3.22504
0.365174
1.74675
0.184169
0.0212781
0.02103
0.0220834
0.0205689
0.0218342
0.235763
2.3015
0.68837
3.46739
0.0234375
2.18753
0.160145
3.20574
3.25494
0.0215409
0.0208307
0.188634
0.0215251
0.0202074
0.50936
2.893
2.55457
0.0214221
0.0215491
0.023974
0.0380074
2.22244
0.0205169
0.024163
0.776631
0.0204645
0.469222
0.0375086
2.18589
0.0218379
0.38418
3.48009
0.0352548
3.32278
0.114012
3.30279
0.0200579
0.025159
0.0208594
0.029757
5.39127
0.021427
2.37256
0.0219034
0.0215897
0.0214512
3.35421
0.0441406
0.112614
0.428039
0.0206655
0.0435076
3.08104
0.0548568
0.0207928
0.0230526
0.0215288
0.0449344
0.0213566
0.0209188
3.46469
3.6055
3.23057
0.363621
1.15315
2.27683
0.0705345
3.5921
0.126877
0.0199978
0.0210093
0.0196753
0.021685
3.40347
3.3456
0.0203868
2.44115
3.31587
0.0293481
0.0225675
0.0248137
2.45139
3.02624
2.92397
2.02754
2.93277
0.0196778
0.342794
0.100895
0.316092
3.25652
0.0213462
0.131187
2.6067
0.0325571
3.07762
0.0218657
0.0377742
2.42381
3.07762
0.0751088
0.0312386
5.34262
0.132308
3.12956
3.16314
2.85561
0.115709
2.62655
0.0215689
0.025065
0.0470346
4.08771
0.298005
3.42313
0.0221383
0.113729
0.0700306
0.0222694
3.15424
0.0213628
0.131856
3.91128
0.0213707
2.24554
2.24468
3.14903
2.55432
1.43205
0.219045
0.0211232
3.44316
0.0218101
0.0209152
0.0413265
0.0238911
3.11726
0.0240915
0.0248753
0.0241514
0.0208347
2.30848
0.0229609
0.119127
0.316777
0.0206107
3.70991
0.101225
0.0227
3.72051
0.26723
0.0213531
0.110393
0.0221004
3.29675
0.422231
0.0204184
0.118171
0.023031
3.52641
2.97697
0.0721688
1.06225
0.0257517
0.0214967
2.19505
0.0240852
0.021352
2.48789
0.0407364
0.0208861
0.0208431
0.130123
0.0228344
3.86803
0.34856
0.0285359
3.03302
0.0529377
0.0625669
0.0211729
3.56536
6.17231
2.3359
0.0214107
0.0202913
0.0716966
0.0304959
0.375087
0.0213854
0.461732
0.0212924
0.53246
0.0218587
0.041716
0.157349
0.116372
3.53945
1.1473
3.06677
2.96881
0.0197098
1.30712
1.82969
4.50403
0.0211486
0.144639
5.90507
2.16987
0.118001
1.49728
0.194345
3.64638
0.0457413
0.239066
0.0205805
0.0473779
0.04293
0.0213274
0.070048
2.58768
0.0428634
2.17043
2.14366
0.0211707
0.0208418
0.0294891
0.021335
0.639359
0.0205476
0.0208084
3.76073
0.18811
0.0333199
0.102199
0.0223656
0.0848014
2.17245
3.06588
2.04046
0.0255871
3.02378
0.0230634
0.020559
0.0232854
3.15756
0.236919
0.341401
0.177292
0.0223659
0.0208636
0.0213351
0.0218859
0.0266161
3.35418
2.09967
0.0287288
3.19318
3.91766
0.420525
4.23622
0.0214422
0.029795
0.188008
0.0214204
0.0311886
0.0268652
0.0240254
2.91856
3.09037
0.0205406
0.0398337
0.0296908
0.0692204
2.31756
2.26048
3.57883
0.0217138
0.0827125
3.44051
0.0816942
0.117795
0.442264
2.50004
3.77976
3.56395
0.0205149
2.64989
0.020363
0.0231346
0.0213576
0.0603647
3.72733
6.67661
0.400958
2.16682
0.0567217
0.0201518
0.0208105
0.0215527
0.0230992
0.0439889
3.6542
3.42185
0.077122
0.668504
0.0216987
0.0564803
0.020664
3.12924
0.0674416
0.0216303
0.137588
0.102822
2.1317
3.6206
0.129462
3.78983
0.0248171
2.31151
0.225176
3.15055
0.331537
0.0229422
0.0561753
0.0215116
2.97933
2.45796
0.0403953
2.76884
0.225635
2.32297
0.0665085
0.158602
0.0406776
0.0208965
0.122586
0.0592074
0.0242322
0.0559739
0.030992
0.0325909
3.58022
0.162694
0.0232335
0.0303061
0.0364685
0.031958
0.022825
2.24704
0.110828
0.232465
3.55262
0.0214141
3.17615
0.0214706
0.0244005
0.0235268
3.11285
0.0377698
3.18767
4.03554
0.0598937
0.0474547
0.12035
1.67787
0.136107
1.04755
0.024204
0.045844
0.0209496
3.21599
0.456397
0.0240884
0.021525
0.0369136
0.0260073
0.0244164
0.0492193
0.0398606
0.0216359
0.0338674
4.87281
4.50483
0.112609
0.0412515
0.0198157
1.76456
0.0323441
0.0645032
0.807564
0.0432806
1.98044
0.0202369
0.0244447
0.024296
0.0331169
0.0212274
3.32897
0.318469
2.4041
0.0370637
3.23029
0.193917
0.0257587
1.69009
0.0659553
0.186473
2.32995
0.043808
0.0240797
0.0408027
0.0671407
0.0244862
0.802922
3.79062
0.329242
0.0209037
0.208598
0.331881
2.02073
0.0212732
0.0442815
0.0211404
0.0306907
2.3541
0.0294063
0.0290614
0.0208965
0.020872
1.87134
3.10368
0.0214191
2.21346
0.186014
0.0201653
0.0252381
3.25176
0.114286
0.103461
0.0213899
0.0271659
0.107637
0.0216752
0.02108
2.20684
0.0293654
3.29181
0.0834861
0.0262192
3.73267
0.115688
0.163307
0.0209395
0.254093
0.0300802
0.0266493
1.49656
0.0404985
0.0216207
0.0838865
0.0245349
0.0253657
0.0201539
1.28825
0.0213826
0.0626276
2.30004
0.100213
0.0208665
1.07599
0.0307975
2.52786
0.161955
3.46283
0.10658
3.06623
0.0206958
0.076056
0.0255405
0.0211337
0.349939
2.08861
0.0250531
0.544387
0.0247711
0.0716237
3.52397
0.0260743
0.326314
1.00125
3.16721
1.7848
0.653364
0.0380999
0.0207676
0.0652287
0.0353706
0.693664
1.87263
3.11234
2.27401
3.29025
0.0208452
0.670155
0.0214062
0.0224581
0.0215984
0.381473
0.148428
0.0764446
0.0210574
8.91104
0.0273812
3.64766
0.0209434
0.0622918
0.0303603
0.0697534
0.0426011
0.104282
0.02288
0.157513
0.136481
0.0209643
3.73712
0.184404
0.0522103
0.0227304
0.0300685
0.0216106
0.0210865
0.0645281
0.0336158
1.99031
0.189609
0.0848519
0.870676
0.0212066
1.47163
0.0644665
2.28811
0.0305081
0.0310073
0.298792
0.0314957
0.0526875
0.148795
4.36054
0.0236188
0.0217154
3.03213
0.031808
0.0237166
0.0273644
0.0301101
0.0205472
0.0265786
3.23618
0.0215555
0.0425145
3.27715
0.114221
0.0711332
1.75696
1.95836
3.40038
2.84186
1.39932
0.0557642
0.482453
0.022808
0.0248905
0.0215273
0.0210026
2.7876
0.383112
0.0319194
0.0207472
0.904714
0.0915518
0.0213344
0.0991337
0.0526533
0.0212442
0.0231157
1.6172
0.0266108
0.0374827
0.0370134
0.0214195
0.086321
0.0646027
0.0297081
0.499127
0.0786701
1.70888
0.760447
2.99892
0.0234566
4.67088
0.160832
0.147249
0.0667021
1.83398
0.0744028
0.0264815
0.0494232
0.0662776
0.0235415
0.071035
0.0211132
0.0212637
0.0201176
0.0245343
3.27461
0.0204313
0.104921
0.0245307
0.0237662
0.0243659
1.14941
0.0234279
0.0620063
0.0215704
0.0244863
0.0250538
0.0207677
0.105596
0.0236465
0.0205903
0.0223445
0.0289978
0.021031
2.00768
0.0272991
2.2481
0.183522
2.5411
0.0590685
0.0715728
0.0463719
0.040527
0.0251813
0.0251764
1.57708
3.02979
0.530236
0.0628037
0.0316901
0.0215
2.26384
0.0398291
3.2834
0.0216502
0.923869
0.143898
1.42345
1.33397
0.0201283
0.0214204
0.0203715
0.0290358
3.07532
0.0468377
0.90106
0.0259777
0.0290593
0.0210208
0.021885
0.0338394
0.0237135
0.024096
0.0209758
0.258509
0.31814
3.18821
0.0247894
0.954331
0.0207462
0.0203076
0.105506
0.0219854
0.0242333
0.0645079
0.0242572
0.0696828
0.0214278
0.024535
0.0215602
0.0246013
3.18125
0.0212013
0.0236401
0.0227322
0.0239953
0.336571
0.0218154
0.0494444
1.62854
0.0247273
0.0297973
0.0225019
0.0231689
0.0218316
0.128729
0.0215044
0.0268577
2.81537
0.0208438
0.0293644
0.049654
0.0571992
2.1852
0.0201029
0.0238495
0.0223263
0.0303326
0.10125
1.00386
4.28144
0.0202713
0.0286659
0.0729503
0.0235716
2.36895
0.0199962
0.0215955
1.82556
0.0404317
0.0237541
0.0200607
0.180795
0.122254
1.97228
0.0215946
1.59738
0.0200339
0.0205512
0.0236065
0.0770537
3.77156
0.0215521
0.0209393
0.303161
0.0215064
0.0233146
0.431148
3.95834
0.0215051
0.0205101
0.0221848
0.0314615
0.208061
3.32743
0.0219127
0.105917
0.0214015
0.0213753
2.23256
0.0232649
0.0219265
0.030404
0.265179
0.133096
0.0234155
0.0222066
2.66369
0.0406216
0.02244
0.769263
3.13505
0.0215099
0.0217891
0.0232366
0.0213653
0.0215079
0.0208936
0.0202542
0.0394815
0.0231411
0.0434436
0.0475039
2.18159
0.355189
0.0309839
0.020083
0.0214236
0.0222476
0.0232205
0.040529
0.0290286
1.66025
0.0237481
0.0738933
0.0244384
2.69476
2.25263
0.0286188
0.0227739
0.122644
0.0239244
0.0269237
0.0213975
0.0223798
0.021113
0.046834
0.0425981
0.046893
0.106509
0.0233315
0.0257355
0.022295
3.37206
2.51402
0.302872
0.0271424
0.0920461
0.0826009
2.91783
0.0219888
0.64898
0.0643148
0.0214074
0.0218285
2.37088
0.0215516
0.022561
0.0233284
1.10917
0.0215147
0.0217878
0.0255809
2.07833
0.020985
0.0512686
1.08343
0.023679
0.0215276
0.0211865
0.0214319
0.0218034
0.0217595
0.0764221
0.022613
0.0215172
0.0217727
0.0218053
0.0287191
0.0213983
0.268306
0.0215728
0.0217477
0.0381254
0.0329118
0.0306015
2.02621
1.16578
3.41777
0.0374214
0.0208733
0.0386983
2.05537
0.0202288
0.0501927
0.0235014
1.02934
0.0233858
0.0432603
0.0217931
0.021391
0.115009
0.208039
1.6645
0.269209
3.4239
0.0217658
0.0209485
2.26344
0.0202003
0.0215204
3.23758
0.0210177
2.16505
0.021453
0.180466
0.107029
0.0238277
0.666372
0.0260759
0.0754922
0.139389
0.168079
0.202098
2.45272
0.493041
2.30691
0.0215862
2.20733
0.0215069
0.0213216
0.0210093
0.0219891
1.03972
0.022472
3.79953
0.0215535
0.0213781
0.0215807
0.460079
0.0217343
0.0206631
0.0535266
0.0253434
0.0264907
0.0252348
0.0284272
0.295143
2.52137
0.286713
0.987774
0.09761
0.0224253
1.00821
0.0214533
0.028359
0.0649792
2.56078
0.0431024
3.45963
0.0215089
0.258459
2.20053
0.146974
3.44256
0.252816
0.0236052
0.0213343
0.0241777
0.0215056
0.0213133
2.21401
2.23107
0.0210908
1.18569
0.0214214
0.10754
0.0210036
0.204816
0.0275467
0.023477
0.0207521
0.656348
1.14661
0.271323
0.0206174
0.0206896
0.0265255
0.0220728
0.022274
0.142253
0.206744
0.0466114
2.00778
0.0422646
0.0218216
0.0318748
0.0673703
0.0219362
3.0714
0.0550233
0.0802065
0.0232629
0.0242454
0.0203123
0.0196785
0.0213765
0.0265688
0.0207973
2.33859
0.0386083
0.131265
0.0212974
0.042329
0.0215058
0.380322
0.0397833
0.0544084
3.11926
0.026034
0.0213482
0.0250082
0.0218481
3.53706
0.0714812
0.0411345
0.0547418
3.50521
2.26415
0.108372
0.0499353
0.0214088
0.0231988
0.0232748
0.0357488
0.115025
0.0263219
0.0216015
0.31322
0.343083
0.0218193
0.0233807
0.0552364
0.0224287
0.0209824
0.0403022
0.0214663
0.0219165
0.0209498
0.0235932
0.0220929
0.0451596
2.47808
0.0214668
0.639883
0.0975645
0.108145
0.0209395
0.0215809
0.0471714
0.0260143
0.0214372
0.0868343
0.0213672
0.0491701
0.0216354
0.0410767
1.63554
0.0541708
0.0226263
0.0592606
1.91876
1.26582
0.0214357
0.0355313
3.84706
0.0212366
0.02234
0.0771954
8.69004
3.27979
0.0238452
0.0213806
0.0268306
0.0212641
0.0223654
0.0282593
0.0218287
3.5474
0.0218291
0.12648
0.0215052
0.0214696
0.051424
0.0213689
0.0215719
0.0283546
0.114081
0.0205699
0.0361229
0.0219011
0.0211887
0.0216958
0.0281231
0.0258282
0.069589
0.0232559
0.0217916
0.0218639
0.0383525
0.0224507
3.37968
0.0220662
0.108943
0.0334016
0.0228451
0.0276027
1.0726
0.0215301
0.0220974
0.0200191
0.0709468
0.403375
0.0216599
0.0366416
0.0209575
0.0354733
0.0214491
0.269427
1.46613
0.0236607
0.0253725
0.0274489
0.0263443
0.0221179
0.0207488
0.0473317
0.0214103
0.0220472