/*--------------------------------*- C++ -*----------------------------------*\
| =========                 |                                                 |
| \\      /  F ield         | OpenFOAM: The Open Source CFD Toolbox           |
|  \\    /   O peration     | Version:  v2012                                 |
|   \\  /    A nd           | Website:  www.openfoam.com                      |
|    \\/     M anipulation  |                                                 |
\*---------------------------------------------------------------------------*/
FoamFile
{
    version     2.0;
    format      ascii;
    class       surfaceVectorField;
    location    "1000";
    object      ddtCorrDdt0(Uf);
}
// * * * * * * * * * * * * * * * * * * * * * * * * * * * * * * * * * * * * * //

dimensions      [0 1 -2 0 0 0 0];


internalField   nonuniform List<vector> 
20673
(
(-0.000188108 -0.00023756 -1.62857e-18)
(-0.000194487 -0.000244651 7.01618e-19)
(-0.000192763 -0.00023424 -6.40584e-18)
(-9.18057e-05 -5.34667e-06 -2.76279e-19)
(-8.81724e-05 -2.43293e-06 -1.57998e-20)
(-9.08971e-05 -8.43773e-06 8.43673e-20)
(-0.00471214 0.00308511 -3.65136e-18)
(-0.00501712 0.00321704 6.15651e-18)
(-0.00517544 0.00299544 -1.23203e-18)
(-4.84736e-05 8.39659e-05 -3.10932e-18)
(-4.81281e-05 9.0517e-05 1.2157e-17)
(-4.74453e-05 8.43606e-05 7.37008e-18)
(-1.95673e-05 9.19952e-07 2.17971e-19)
(-2.16446e-07 1.26449e-05 1.59779e-18)
(-2.26721e-06 -8.03302e-06 3.81698e-18)
(-6.53288e-06 -0.000625677 -3.87341e-17)
(-2.22341e-05 -0.000642303 -4.59563e-17)
(-2.4651e-05 -0.000615033 -6.48779e-17)
(-0.00439266 0.00181022 3.1246e-20)
(-0.004391 0.00199018 -3.96404e-18)
(-0.00438216 0.00186051 4.26225e-18)
(-0.00531432 0.0038467 -7.7305e-18)
(-0.00485825 0.00380204 -7.61001e-18)
(-0.00503392 0.00393274 -1.34093e-18)
(0.00230328 0.00131548 4.11703e-19)
(0.00265964 0.00101967 6.9627e-18)
(0.00270014 0.00112551 -2.95071e-18)
(-9.80706e-05 -0.000287257 3.94252e-18)
(-8.44643e-05 -0.000299552 2.28999e-18)
(-8.08592e-05 -0.000277765 4.07796e-18)
(0.00213698 0.00120173 -7.19543e-20)
(0.00218256 0.00104305 1.34555e-17)
(0.00231914 0.00123368 7.71405e-18)
(0.000284356 3.95549e-05 1.37436e-19)
(0.000316719 2.13144e-06 -3.27291e-18)
(0.00031971 6.70993e-05 -1.29132e-17)
(-4.4995e-05 8.58033e-05 -1.17606e-17)
(-0.00195406 0.000301603 -1.05498e-18)
(-0.00166085 0.000534157 -1.4909e-17)
(-0.00168094 0.000279209 -5.53073e-18)
(-0.000115777 -0.00010562 -1.44196e-18)
(-0.00011378 -0.00010663 2.007e-18)
(-0.000112195 -0.000100595 3.53794e-18)
(-0.000123033 -9.26593e-05 2.6574e-19)
(-0.000117898 -9.03306e-05 -1.49131e-18)
(-0.000120233 -8.54161e-05 -4.85638e-18)
(-9.25302e-05 -1.46794e-05 7.64229e-19)
(-9.25027e-05 -1.4361e-05 3.54389e-19)
(-9.05255e-05 -1.27771e-05 3.17086e-19)
(-0.000700924 0.000142232 -3.84302e-18)
(-0.000703979 0.000105332 -1.0307e-17)
(-0.000741953 0.000140453 -3.11729e-19)
(0.000230969 4.95177e-06 5.63708e-18)
(0.000241039 8.30664e-05 4.26299e-18)
(-1.7729e-05 2.44968e-06 -7.4092e-19)
(-1.77856e-05 1.9966e-06 -1.90611e-19)
(-1.79207e-05 -3.44818e-06 -1.25881e-19)
(-1.52471e-06 -4.03894e-05 -9.77078e-20)
(-2.29253e-06 -5.14917e-05 -1.31389e-18)
(-1.47817e-06 -3.92076e-05 -1.43294e-18)
(-0.00442689 0.00166147 -8.45377e-18)
(-0.00455396 0.00176448 -1.50284e-17)
(-1.99437e-05 8.80414e-06 -3.83554e-19)
(-1.96786e-05 1.34493e-05 -1.11807e-20)
(-1.98057e-05 1.34498e-05 -8.21443e-19)
(-0.00557467 0.00383847 1.73499e-18)
(-0.00560086 0.00398378 2.0145e-18)
(-2.25887e-05 -7.28882e-05 -1.53593e-18)
(-2.27446e-05 -7.14196e-05 -4.74067e-18)
(-2.16023e-05 -8.10276e-05 -4.26249e-18)
(-0.00388706 4.18776e-06 3.68797e-18)
(-0.00434765 -2.46792e-05 -4.10438e-18)
(-0.0044095 0.00016303 4.39583e-18)
(-4.27917e-05 -0.00030618 -1.32323e-19)
(-4.48786e-05 -0.000318698 7.47186e-18)
(-3.34066e-05 -0.000311822 -1.48176e-17)
(-0.000107833 -0.000346119 -1.19195e-17)
(-0.00011714 -0.000354512 1.26774e-17)
(-0.000108224 -0.000365098 1.40496e-17)
(-0.000454632 -0.000633086 -1.16282e-18)
(-0.00048663 -0.000619879 -3.70529e-19)
(-0.000490635 -0.000663897 -1.42866e-18)
(-0.000206759 -0.000745905 2.77112e-17)
(-0.000258948 -0.000757215 6.95916e-18)
(-0.000225684 -0.000813045 3.32423e-17)
(-0.000216706 -0.000272662 -1.26448e-17)
(-0.000209054 -0.000264474 9.53593e-18)
(-0.000216885 -0.000261048 -8.32865e-18)
(-0.000187068 -0.000162004 1.25245e-18)
(-0.000183886 -0.000158105 -2.05192e-18)
(-0.000183622 -0.000156968 -2.35985e-18)
(-6.93538e-05 -0.000243624 -1.17775e-18)
(-7.51243e-05 -0.000238119 1.2092e-17)
(-6.75235e-05 -0.000249951 1.96238e-17)
(-2.23854e-06 -0.000138309 -3.1433e-18)
(-5.85289e-07 -0.000135415 -1.96488e-17)
(-2.72055e-06 -0.000134321 4.35921e-18)
(-1.67159e-05 -7.22201e-05 -6.09654e-19)
(-1.82678e-05 -8.56758e-05 -3.84576e-19)
(-1.82109e-05 -7.83156e-05 -2.82139e-18)
(0.00545239 0.000430079 2.74709e-18)
(0.00530521 0.000575281 -1.07135e-17)
(0.00391525 0.000383073 2.56659e-18)
(-1.91031e-05 3.64915e-06 1.22115e-18)
(-2.00292e-05 4.66692e-06 -1.02711e-18)
(-0.000293167 0.00200086 -2.52558e-18)
(-0.000351751 0.00174169 -9.22017e-18)
(-0.00061357 0.0018161 1.53618e-18)
(-1.58226e-05 0.000100689 5.54511e-19)
(-1.19861e-05 9.93904e-05 -3.81977e-18)
(-0.00548559 -0.000482422 3.23517e-19)
(-0.0054193 -0.000270621 -3.29192e-18)
(-0.00529155 -0.000461713 -1.78339e-18)
(-2.19091e-05 -2.47076e-06 2.61386e-20)
(-2.28404e-05 -1.91234e-06 -7.61133e-20)
(-2.44761e-05 -1.1867e-06 -3.15308e-20)
(-5.78329e-07 -2.47046e-05 -2.72968e-19)
(-4.42535e-07 -1.17173e-05 -1.1771e-18)
(-2.96027e-07 -1.22517e-05 1.9063e-19)
(-2.79569e-05 1.09104e-05 -2.8233e-19)
(-2.84387e-05 7.18914e-06 2.67739e-19)
(-2.70124e-05 9.53044e-06 -5.66508e-19)
(-0.000162691 -0.000435576 7.67107e-18)
(-0.000175872 -0.00043018 -4.51758e-17)
(-0.00017414 -0.000451741 -5.11818e-17)
(-9.30913e-05 -4.86517e-05 -4.71439e-19)
(-9.58e-05 -4.97656e-05 2.46562e-19)
(-9.50894e-05 -4.98267e-05 -8.15939e-20)
(-2.06337e-05 -0.000160906 2.07215e-18)
(-1.02046e-05 -0.000161988 9.19178e-19)
(-1.53815e-05 -0.000155405 -3.02779e-17)
(-0.000699155 0.000193579 -4.84944e-18)
(-0.000663795 0.000151603 -2.47842e-18)
(-0.000808662 0.000861052 -1.95119e-18)
(-0.000715188 0.00077584 2.29063e-20)
(-0.000697317 0.000916831 -8.01039e-18)
(-5.62326e-06 -0.000668706 3.79351e-17)
(-8.38275e-06 -0.000673929 -1.21345e-17)
(-1.02652e-05 -0.000663132 3.98667e-17)
(-1.01725e-05 1.17509e-06 -1.61206e-19)
(-1.03863e-05 8.40659e-07 -7.56409e-20)
(-9.99895e-06 6.89368e-07 -7.13229e-20)
(-0.000201525 0.000125412 -2.33495e-18)
(-0.000211569 0.000119689 5.0356e-18)
(-0.000208549 0.000134745 5.40929e-19)
(-8.70334e-06 -0.000168191 3.91781e-18)
(-8.12268e-06 -0.000167782 6.9671e-18)
(-1.09823e-05 -0.000160691 8.32421e-18)
(7.02693e-06 -0.000662969 -1.08183e-17)
(1.75538e-05 -0.000790693 -4.92135e-19)
(-5.2599e-06 -0.000141295 2.03394e-18)
(-1.5029e-06 -0.000142967 -1.35482e-17)
(-9.44117e-05 -1.68724e-05 4.35304e-19)
(-9.17455e-05 -1.54272e-05 -9.5641e-19)
(-0.000251236 -2.39399e-05 4.70028e-18)
(-0.000248702 -3.62617e-05 -6.00713e-19)
(-0.000260785 -3.21114e-05 2.62599e-18)
(0.00205152 0.00138905 1.06742e-17)
(0.001937 0.00118427 -1.21872e-17)
(-5.4817e-05 -0.000111048 -5.01998e-20)
(-5.35365e-05 -0.000116685 -2.83071e-18)
(-5.5696e-05 -0.000110705 -1.50201e-18)
(-0.000202616 -7.44866e-05 5.24867e-19)
(-0.000208711 -7.58696e-05 -1.55319e-18)
(-0.000203988 -8.29465e-05 3.56244e-18)
(-9.09444e-05 -4.76963e-05 -5.4493e-20)
(-9.0185e-05 -4.75434e-05 -2.20147e-18)
(-0.000749552 0.000722378 -6.03504e-18)
(-0.000594075 0.000882673 9.00417e-18)
(-0.000527292 0.000651245 1.20537e-17)
(-9.2322e-05 -6.87903e-06 -7.02642e-19)
(-9.51927e-05 -1.18655e-05 1.08449e-19)
(-0.00222342 0.000373847 9.17522e-18)
(-1.71188e-05 3.41891e-06 -2.98028e-20)
(-1.68038e-05 6.38816e-06 -5.12665e-20)
(-7.48105e-05 -0.000666139 2.80017e-17)
(-6.10775e-05 -0.000608652 2.73928e-17)
(-0.00253084 -0.000173857 5.51259e-17)
(-0.00282371 0.000588457 -1.23756e-17)
(-0.00279007 3.48172e-05 1.82283e-17)
(2.22795e-06 1.24275e-06 -2.37145e-19)
(2.08697e-06 8.80523e-06 -2.20029e-18)
(-7.71104e-07 -7.25109e-05 1.05357e-18)
(3.95538e-06 -5.94827e-05 2.63509e-18)
(-0.000989132 0.00285297 -5.74042e-18)
(-0.000817544 0.00292214 -2.32923e-17)
(-0.0010336 0.00305572 -5.14162e-17)
(-0.000175481 -0.000187339 1.31344e-18)
(-0.000176203 -0.000192924 -2.63255e-18)
(-0.000171718 -0.000189143 -1.12651e-18)
(-1.4173e-05 -1.18373e-05 -7.43889e-18)
(-1.15871e-05 4.23395e-06 -6.10389e-18)
(0.00201904 0.00154479 1.15371e-17)
(0.00195984 0.00161969 -6.02794e-19)
(0.00565319 -0.000465685 7.91361e-19)
(0.00552024 -0.000456397 -4.24678e-19)
(0.0055377 -0.00049571 -5.20788e-18)
(-2.32837e-05 -6.93204e-05 -1.29846e-19)
(-2.00547e-05 -5.67499e-05 3.57866e-18)
(-5.04921e-06 -0.000688732 -4.76302e-17)
(-1.72495e-05 -0.000693124 2.22904e-17)
(-7.55428e-06 -0.000701226 8.36405e-17)
(-0.000185758 -0.000252328 -3.16775e-18)
(-0.000188066 -0.000178342 1.38874e-18)
(-0.000103241 -0.000193526 -9.83401e-18)
(0.00578171 0.000324551 3.32651e-18)
(0.00580396 0.000442133 9.3992e-18)
(0.00568309 0.000372603 3.78226e-18)
(-0.000134166 -3.71592e-05 5.79134e-18)
(-0.000138915 -3.62308e-05 6.82464e-19)
(-0.000137918 -4.26711e-05 -6.44217e-18)
(-0.0036995 -0.00154948 3.17992e-19)
(-0.00385536 -0.00146485 -7.71758e-20)
(-0.00301863 -0.00167496 6.09526e-19)
(-4.33673e-06 -6.82782e-05 3.57589e-18)
(-5.40575e-06 -7.60664e-05 3.05928e-18)
(-5.45538e-06 -7.44251e-05 -1.48156e-18)
(-1.02994e-05 -6.76813e-05 -4.04193e-19)
(-1.14406e-05 -6.55426e-05 -3.6071e-18)
(-9.92321e-06 -6.64557e-05 4.5857e-19)
(4.94161e-07 -7.74474e-06 1.11104e-18)
(-5.18563e-05 -0.000617255 6.25407e-17)
(-5.03132e-05 -0.00062279 -1.70106e-17)
(-5.65115e-05 -0.000596692 1.00676e-16)
(-0.000293145 0.00231405 -4.20203e-18)
(-1.25887e-05 0.00224936 1.41603e-18)
(-0.000987184 0.000883653 -3.85868e-17)
(-0.00101008 0.000812869 5.92032e-18)
(-0.00108044 0.000833882 -3.48651e-17)
(-0.00013001 -3.89433e-05 2.97597e-18)
(-0.00013098 -3.31425e-05 5.76608e-18)
(-1.50112e-05 -4.69309e-05 6.79722e-20)
(-1.55997e-05 -4.49362e-05 1.37717e-18)
(-1.37016e-05 -5.1704e-05 1.1539e-20)
(-0.00362165 0.00100284 -2.16097e-18)
(-0.000105214 -0.000297453 -1.16608e-17)
(-0.000190127 0.000128376 -5.39744e-18)
(-0.000195502 0.000114665 -2.49388e-18)
(-2.75071e-05 1.34445e-05 1.38545e-18)
(-2.87889e-05 1.15504e-05 7.09491e-19)
(0.00577892 0.000593819 -3.53646e-18)
(0.00585583 0.00048248 1.50624e-17)
(0.00573472 0.000613854 -1.04404e-17)
(-2.97919e-05 -0.000495782 1.09911e-17)
(-4.98256e-05 -0.000460352 1.37445e-17)
(-1.42844e-05 -0.000453971 -4.62616e-18)
(-6.49673e-05 7.37274e-06 5.23634e-19)
(-6.35398e-05 5.546e-06 3.78599e-19)
(-6.28901e-05 8.94395e-06 -1.35247e-19)
(-7.65854e-05 -7.62145e-05 8.82873e-18)
(-7.43659e-05 -7.52344e-05 -2.68593e-18)
(-7.85985e-05 -7.24443e-05 3.47144e-19)
(0.000200154 0.00238658 -3.21276e-17)
(-0.00650368 1.01735e-05 -4.46944e-18)
(-3.93483e-05 -0.000619268 1.11647e-17)
(-2.95751e-05 -0.000615492 5.94453e-18)
(-2.73799e-05 -0.000626792 -5.94685e-18)
(0.000542404 0.0018694 3.2552e-18)
(0.000450435 0.00196604 1.09918e-17)
(0.000600627 0.00199142 -1.82959e-18)
(-0.000747885 0.000602818 -1.32538e-17)
(-0.000805579 0.000602959 -1.37885e-17)
(-0.000779487 0.000550474 -1.17824e-19)
(0.000382754 -0.00139018 4.9739e-19)
(0.000368805 -0.0015322 -8.54078e-18)
(0.000215926 -0.00148961 -3.60042e-18)
(-8.82594e-05 -0.000502024 -3.06652e-17)
(-9.29538e-05 -0.000487761 -6.09106e-18)
(-0.000106718 -0.000500341 -5.43045e-19)
(-2.82441e-05 3.43432e-06 -8.4726e-20)
(-2.8464e-05 6.15158e-06 1.73515e-19)
(-2.97726e-05 4.0988e-06 -1.52899e-21)
(-2.51444e-07 -0.000233939 -1.65007e-17)
(-1.30015e-05 -0.000240161 -1.3786e-17)
(-1.21825e-05 -0.000223507 -3.61659e-18)
(-0.000151595 -0.000453107 5.46017e-17)
(-0.000144612 -0.000427149 2.96162e-17)
(-0.000142593 1.17072e-05 1.2792e-18)
(-0.000146276 1.63348e-05 3.94494e-18)
(-0.000141847 2.1915e-05 2.00184e-18)
(-3.86537e-05 1.61206e-05 8.67736e-20)
(-3.73784e-05 1.64187e-05 4.577e-20)
(-3.95808e-05 1.50767e-05 -3.63718e-19)
(0.00311063 5.27277e-05 -1.5182e-17)
(0.00327495 -0.000262416 3.84266e-18)
(0.0031773 4.11852e-05 -8.00475e-18)
(-0.000486826 -0.000496675 1.21682e-18)
(-0.000485457 -0.000543523 -5.25563e-18)
(-0.000531541 -0.000506639 1.52913e-18)
(-0.000786205 0.000907391 -6.06874e-18)
(-0.000856464 0.000904359 9.13083e-18)
(-9.35528e-05 -1.32603e-05 -2.54825e-19)
(-9.62363e-05 -1.66975e-05 6.46457e-21)
(-0.000188497 -0.000266695 3.18627e-18)
(-0.000184035 -0.00025724 -1.27894e-18)
(-0.000175114 -0.000266619 -2.28207e-18)
(-0.00244656 -0.000862993 3.89781e-17)
(-0.00247903 -0.000746322 4.06463e-17)
(-0.00234556 -0.000851967 1.26427e-17)
(-0.0056633 -0.000680357 -7.42448e-18)
(-0.00575211 -0.000437775 -5.38705e-18)
(0.000479377 -0.000255992 1.19698e-18)
(0.000432928 -0.000290984 1.77494e-18)
(0.000501147 -0.000313157 1.13108e-17)
(0.00301021 0.000286357 7.3156e-19)
(0.00320457 2.34122e-05 9.46515e-18)
(-1.09133e-05 -0.000131817 6.22971e-18)
(-1.59403e-05 -0.000126228 2.25142e-18)
(-1.38685e-05 -0.000131689 -9.60305e-19)
(-0.000121533 -0.000685278 1.44081e-17)
(-0.00010605 -0.000770314 -5.79091e-17)
(-5.18213e-05 -0.000658818 -1.75078e-17)
(-2.18487e-05 -2.79281e-05 1.26571e-18)
(-2.37326e-05 -3.80735e-05 -3.88088e-18)
(-2.28543e-05 -3.20328e-05 -1.3722e-18)
(-2.37212e-05 -0.00066616 5.01579e-18)
(-2.70444e-05 -0.000663096 -1.6101e-17)
(-3.23287e-05 -0.000669412 -4.36718e-17)
(-0.00825327 0.000268248 9.8904e-19)
(-0.00838774 0.000358346 -5.18852e-18)
(-0.00800681 0.000449195 -7.04498e-18)
(-1.71398e-05 -0.000137989 -4.42997e-18)
(-2.09578e-05 -0.000143096 1.46034e-17)
(-2.32357e-05 -0.000135938 1.6018e-18)
(-1.85442e-06 -3.70478e-05 9.04424e-19)
(-1.36448e-06 -3.78575e-05 3.00553e-19)
(-0.00116481 0.00279847 2.51586e-17)
(-0.000967999 0.00268528 1.21313e-17)
(-0.00669271 0.000607268 -4.72439e-18)
(-0.00651986 0.00078616 2.52372e-18)
(-0.00634283 0.000795715 1.20573e-18)
(-0.000101862 -0.00034257 -6.88383e-18)
(-0.000104396 -0.000335451 -1.65913e-17)
(-1.19912e-05 -1.75268e-06 -6.49461e-20)
(-1.2653e-05 -2.61807e-06 -3.23464e-19)
(-1.29251e-05 -1.30842e-06 -3.53574e-19)
(-7.27754e-05 -7.9495e-05 3.92427e-19)
(-7.59609e-05 -7.43665e-05 6.56112e-19)
(-8.9215e-05 -3.97145e-05 8.89212e-19)
(-9.18282e-05 -4.19296e-05 5.18168e-20)
(-8.98135e-05 -3.78469e-05 2.20403e-18)
(-1.10493e-05 -1.25594e-06 7.72184e-19)
(-1.48303e-05 -9.76828e-07 5.03514e-19)
(-2.41988e-05 -3.28961e-06 -2.62793e-19)
(-2.43515e-05 -1.9812e-06 4.00086e-19)
(-2.38363e-05 -2.73023e-06 1.85733e-19)
(-1.67508e-05 -0.000626498 5.75814e-18)
(-0.00615653 0.00123303 1.7966e-18)
(-0.00614243 0.00124694 -3.94182e-19)
(-0.00649419 0.0011004 1.7555e-18)
(-9.91766e-06 -0.000136102 3.4527e-18)
(-1.23648e-05 -0.000138097 2.65767e-18)
(-9.93699e-05 -5.03319e-05 -5.40167e-19)
(-9.71452e-05 -4.9664e-05 -2.82977e-19)
(-1.25917e-06 -4.09639e-05 9.97095e-19)
(-9.51398e-07 -2.71943e-05 2.19833e-18)
(0.00137711 -0.00312827 3.96849e-17)
(-0.0003991 -0.00315802 -8.71849e-18)
(0.00273473 -0.00350505 -4.2826e-18)
(-0.0058007 0.00375972 -7.59873e-18)
(-0.00548342 0.00370437 2.56564e-18)
(-0.000177268 -0.000237517 5.18485e-18)
(-0.00018511 -0.000229544 7.54868e-18)
(-9.88964e-05 -0.0005194 3.53923e-17)
(-8.98913e-05 -0.00051824 -6.37338e-18)
(-3.66371e-07 9.81344e-06 3.99335e-18)
(4.12646e-07 1.13355e-05 -3.13181e-18)
(-1.00113e-05 -0.000140282 -6.24176e-18)
(-1.19104e-05 -0.000134495 2.04499e-18)
(0.00523519 0.000915558 6.01602e-18)
(0.00509248 0.000748594 -1.9198e-17)
(0.00420733 0.000911433 8.0236e-19)
(-4.86484e-05 -2.40416e-05 -2.75959e-19)
(-4.90631e-05 -2.28108e-05 -1.6499e-18)
(-4.69101e-05 -2.09226e-05 -3.05414e-19)
(-2.58719e-05 -0.000138188 2.25274e-18)
(-3.24776e-05 -0.000126725 1.27382e-17)
(-2.97735e-05 -0.00014381 9.00442e-18)
(-0.000150963 -0.000473404 -1.49204e-17)
(-0.000153585 -0.000491395 1.3484e-17)
(-0.000166801 -0.000480509 -1.61856e-17)
(-1.66126e-06 -7.27798e-05 -1.69744e-18)
(-5.08476e-07 -8.41656e-05 1.82442e-18)
(0.0011393 0.00262058 -1.30531e-18)
(0.00143252 0.00216787 -6.78822e-18)
(0.00154105 0.00227781 1.8399e-17)
(-0.000593463 -0.000606145 1.10015e-18)
(-0.000554579 -0.000552346 -3.11343e-19)
(-0.00052456 -0.000596154 3.32014e-19)
(-1.30592e-05 -0.000166664 -5.65714e-18)
(-5.5599e-06 -0.0001734 -4.93752e-18)
(-4.31772e-05 -2.31146e-05 -1.25706e-18)
(-4.40377e-05 -2.19969e-05 6.33127e-19)
(-4.2127e-05 -2.08254e-05 -8.45056e-19)
(-0.00017973 -0.000161646 2.30525e-18)
(-0.000174904 -0.000157173 -3.88971e-18)
(-0.000178915 -0.000165375 -3.66897e-18)
(-5.45651e-05 0.000731545 1.13451e-18)
(-5.03311e-05 0.000784478 -1.57621e-18)
(-0.00010269 0.000744452 1.80137e-18)
(-8.30579e-05 -0.000639286 -5.65968e-18)
(-4.63394e-05 -0.000701643 4.78629e-18)
(0.000754017 0.000736224 3.0483e-18)
(0.000782081 0.00082309 1.63235e-18)
(0.000841101 0.000724105 3.49515e-18)
(-0.000185425 -0.000174135 1.63965e-18)
(-0.000184112 -0.000175978 1.1486e-18)
(-0.000182338 -0.000175784 3.29342e-19)
(-0.000231037 -0.000133412 -2.42391e-18)
(-0.000223886 -0.00013782 4.88957e-18)
(-0.000223199 -0.000128733 3.21473e-18)
(-0.000122997 0.000163604 2.38005e-17)
(-2.94825e-05 0.000113921 -5.2888e-17)
(1.74976e-05 0.000131172 -1.017e-17)
(-0.000176005 -0.000183863 -5.26755e-19)
(-0.000174632 -0.000186591 -3.24035e-18)
(-0.0026549 0.00551725 6.77941e-18)
(-0.00148979 0.00563958 1.33696e-17)
(-0.0008368 0.00529793 -1.16944e-17)
(0.00586089 0.000264531 1.11498e-17)
(0.00585225 0.000290523 8.77631e-18)
(-0.000363911 -0.00328129 -4.55582e-18)
(0.00329046 -0.00294631 -7.97622e-18)
(-5.33954e-05 -0.000106518 -2.00632e-18)
(-5.53458e-05 -0.000106158 7.20839e-18)
(-5.16833e-05 -0.000109303 -1.44663e-18)
(1.94692e-05 -0.000302649 1.11396e-18)
(2.44967e-05 -0.000304668 3.18739e-17)
(1.84669e-05 -0.000312018 4.14572e-17)
(-6.12329e-06 -6.61043e-05 1.02384e-18)
(-5.6932e-06 -6.30283e-05 -1.20811e-18)
(-3.73939e-06 -5.89611e-05 -3.87899e-20)
(0.00066393 0.0017823 -1.42277e-18)
(0.000510307 0.00174833 7.21033e-18)
(0.000539271 -0.000185571 -3.16574e-18)
(0.000454045 -0.000181882 -9.50205e-18)
(0.00038478 -0.00126938 4.77881e-18)
(0.000534201 -0.00130609 -1.5076e-18)
(-0.000144025 4.31374e-06 1.72152e-18)
(-0.000138895 8.04275e-06 -8.25444e-19)
(-0.000400731 0.000771577 8.78145e-20)
(-0.000343455 0.000799979 1.52042e-18)
(-0.00039769 0.000846372 -2.09381e-17)
(-7.37081e-05 -3.75457e-05 1.35943e-18)
(-7.63726e-05 -3.85748e-05 3.49772e-19)
(-7.48649e-05 -3.56453e-05 3.42944e-19)
(8.1534e-06 -0.000239162 1.45362e-17)
(-1.89563e-06 -0.000247734 4.68349e-17)
(-0.000176451 -0.000179122 -1.48478e-18)
(-0.000178062 -0.000177238 -5.26488e-18)
(-0.000177128 -0.000179525 -2.60668e-20)
(-0.00341374 -7.04351e-06 1.58839e-17)
(-0.00340501 2.75498e-06 -4.08106e-17)
(-0.00336042 -5.01383e-05 4.29807e-18)
(0.00023847 -0.000499666 -4.24966e-18)
(0.000322475 -0.000589556 1.27436e-17)
(0.000355424 -0.000462685 1.17712e-18)
(-0.00010059 -2.76412e-05 -1.50108e-20)
(-0.000102229 -3.06827e-05 -3.81343e-19)
(-9.95593e-05 -2.86299e-05 9.88429e-19)
(-0.00156927 0.00467732 -1.32017e-17)
(-0.00118366 0.00446475 -7.28826e-18)
(-0.00154865 0.00486366 -3.63606e-18)
(-0.000202032 -0.00017803 2.77584e-19)
(-0.000210432 -0.000177751 1.15984e-18)
(-0.000204372 -0.000174469 -6.63703e-19)
(-0.00625203 0.00120597 3.92343e-18)
(-0.00583877 0.00140138 -2.03694e-18)
(-1.79616e-05 -0.000663499 -8.00104e-18)
(-2.30786e-05 -0.000667277 9.23672e-18)
(0.000738544 0.0029857 5.23713e-18)
(0.000782058 0.00309168 8.49345e-18)
(-6.32346e-05 -1.63243e-05 -4.11651e-19)
(-6.45074e-05 -1.02302e-05 -8.40182e-19)
(-6.51364e-05 -1.77419e-05 -1.09489e-18)
(-1.21758e-05 -0.000528667 1.5557e-17)
(-5.01812e-05 -0.000528672 5.55165e-18)
(-0.000212108 -0.000285841 -2.62194e-18)
(-0.000225788 -0.000282557 -1.95792e-20)
(-5.01865e-05 -2.67852e-05 -1.00637e-18)
(-4.80204e-05 -2.50227e-05 1.67021e-18)
(-1.45495e-05 -4.69825e-05 -7.22048e-19)
(-1.56837e-05 -4.11865e-05 1.98148e-19)
(-0.000127786 -0.000156596 -3.00675e-18)
(-0.000124312 -0.000158316 6.06309e-18)
(-0.000122539 -0.000151895 6.85346e-18)
(-0.00333456 -0.000225593 -2.21967e-18)
(-0.00349779 1.87154e-05 1.39863e-18)
(0.000635777 -0.000738278 4.34494e-18)
(0.000697115 -0.000763135 1.07904e-17)
(0.000724677 -0.000715747 -4.45841e-18)
(-0.000187918 0.000221216 2.61051e-17)
(-0.000376504 0.000122958 -9.08787e-18)
(-0.000412018 -3.85956e-05 4.54363e-18)
(-0.00040434 -5.7963e-05 1.92343e-18)
(-0.000424447 -5.26286e-05 8.06762e-18)
(0.00117025 -0.000653067 -2.58664e-18)
(0.00109624 -0.000748038 -3.9398e-18)
(0.00123587 -0.000737973 -1.87981e-19)
(0.0040261 0.00310806 1.74181e-18)
(0.00458801 0.00304673 -5.36755e-18)
(0.00455666 0.00327242 1.07538e-17)
(-0.000993419 0.000955622 1.12959e-17)
(-0.000926131 0.000904133 4.03551e-17)
(0.000621908 -0.000250672 -1.45738e-17)
(0.00064606 -0.000297257 -7.01607e-18)
(0.000719577 -0.000237108 2.17731e-17)
(-1.77759e-05 8.79983e-06 8.19163e-19)
(-1.83968e-05 2.5615e-06 3.38461e-18)
(-1.80957e-05 1.34389e-06 -2.88048e-19)
(-2.99339e-05 -0.000511325 -1.21305e-17)
(-6.25282e-05 -0.000517579 -1.58965e-17)
(-3.7079e-05 -0.000540586 -3.02752e-17)
(-4.3878e-05 -0.000293606 1.28671e-17)
(-5.02075e-05 -0.000301166 -1.74101e-17)
(-1.90832e-05 3.39386e-07 7.22535e-20)
(-1.96919e-05 6.03467e-07 -6.19953e-20)
(-6.56342e-05 8.94399e-06 5.11122e-19)
(-6.7124e-05 3.9869e-06 9.19986e-19)
(-0.000482681 -0.000420182 7.02856e-18)
(-0.000452214 -0.000403656 -7.63091e-18)
(-0.000480022 -0.000381689 -8.18726e-18)
(-0.000173983 -0.00347051 -2.50177e-17)
(0.00313563 -0.00128758 -9.75727e-18)
(-0.00451369 -0.000210458 3.7658e-17)
(-9.44806e-05 0.00018873 1.68603e-18)
(-9.51998e-05 0.000194828 -1.38298e-18)
(-0.000101948 0.000192442 1.61248e-18)
(-1.08974e-05 1.491e-06 2.40932e-20)
(-1.02337e-05 8.6564e-07 -2.88842e-20)
(-0.000244923 0.000737574 7.12024e-19)
(-0.000251712 0.000688405 4.51903e-18)
(-0.000291773 0.000715136 3.19601e-18)
(-1.61984e-05 0.000722412 8.4965e-18)
(-4.98004e-05 0.000694292 9.82446e-19)
(0.00584753 -0.000221903 4.2289e-18)
(0.00559057 -0.000293748 2.07552e-18)
(-0.00395109 -0.00105511 -6.01689e-18)
(-0.00457104 -0.00052709 3.51602e-17)
(-0.00574795 -0.000699435 4.56203e-18)
(-1.52797e-05 -6.03198e-05 3.08054e-18)
(-1.54934e-05 -6.71571e-05 -7.40364e-19)
(-5.50604e-05 -0.000113431 8.70962e-19)
(-5.70324e-05 -0.000104601 4.48474e-18)
(-0.000688816 0.000607896 -1.19622e-17)
(-0.000715343 0.000662358 7.54725e-18)
(-0.00425872 0.00141285 9.46507e-18)
(-0.00424231 0.00121367 4.53137e-18)
(-0.00435622 0.00147329 7.04206e-18)
(-2.88846e-05 -0.000140914 -1.72395e-17)
(-3.36232e-05 -0.000139585 -1.4589e-17)
(-0.00437573 0.00213831 -2.89915e-18)
(-0.00434584 0.00228613 6.56658e-18)
(-0.00444906 0.00221716 -1.42145e-18)
(0.00572572 -0.000184682 4.62421e-18)
(0.00565232 -0.000254045 5.50078e-18)
(0.00582333 -0.000150199 -4.4587e-18)
(0.0011273 -0.000532577 1.6907e-18)
(0.00127409 -0.000550954 -7.66933e-19)
(-4.02997e-05 1.58868e-05 6.1145e-20)
(-4.09253e-05 1.79074e-05 2.70436e-19)
(-0.000237303 -0.000669654 1.50693e-17)
(-0.00027264 -0.000690842 -5.38302e-17)
(-0.000221451 -0.00071432 2.34067e-17)
(-0.000535183 0.000578877 -6.77611e-18)
(-0.000582967 0.000597162 -1.19437e-17)
(-0.000575667 0.000539213 1.17647e-18)
(-0.0011052 -0.000408699 -2.00623e-17)
(-0.00113546 -0.000670486 2.7509e-17)
(-0.000842086 -0.000440735 5.08563e-17)
(-3.42839e-05 -8.67596e-05 -1.22032e-18)
(-3.66099e-05 -8.72215e-05 -4.29316e-19)
(-3.69154e-05 -9.14894e-05 1.01299e-18)
(-0.000528521 0.000352786 -2.25237e-17)
(-0.000885913 0.000757906 3.30124e-17)
(-6.24682e-05 -2.39023e-05 5.95038e-19)
(-6.20293e-05 -1.72343e-05 5.47104e-19)
(-0.000519236 -0.000772287 4.84809e-18)
(-0.000555883 -0.00072073 -5.20475e-18)
(-0.000494376 -0.000720652 1.26145e-18)
(-2.16879e-05 -3.17344e-06 4.64717e-21)
(-2.10583e-05 -2.16578e-06 -3.40913e-20)
(0.0020413 0.00206832 4.21165e-20)
(0.00172315 0.0016249 6.40883e-18)
(0.00149791 0.00216291 -2.97401e-19)
(0.00340007 -0.000540003 2.75521e-17)
(0.00351427 -0.000781693 -2.6971e-18)
(0.00351602 -0.000566665 6.59933e-18)
(-0.000125011 -9.67728e-05 2.46101e-18)
(-0.000125572 -9.49097e-05 -1.42646e-18)
(-0.000485385 -0.000223282 1.4188e-17)
(0.000304807 -0.000268698 -1.73119e-17)
(-0.00149232 -2.30186e-05 2.76433e-17)
(-0.000236504 -0.000137337 -4.54457e-18)
(-0.000237193 -0.000129058 2.99451e-19)
(-3.95022e-05 1.58806e-05 1.40258e-19)
(-3.87415e-05 1.65928e-05 -7.8972e-19)
(0.00532048 0.000199709 1.13079e-17)
(0.0054818 -0.000225962 5.32457e-18)
(0.000188629 -0.000509626 -5.5366e-18)
(0.000214016 -0.000457528 -5.49931e-18)
(-0.000399248 -2.52381e-05 7.67665e-18)
(-0.000417183 -1.82805e-05 -8.83804e-18)
(-0.00566998 0.00342789 -1.00658e-17)
(-0.0053489 0.00334023 -8.72869e-18)
(-0.00572614 0.00321756 -6.18689e-18)
(0.00561065 -0.000178138 -2.04182e-17)
(0.00563849 -8.10629e-05 1.41552e-18)
(-2.24216e-05 5.67631e-06 1.57862e-19)
(-2.19702e-05 5.71061e-06 -1.19375e-19)
(-2.18863e-05 5.29721e-06 -9.14185e-21)
(-0.000192185 -0.000164766 4.25448e-18)
(-0.000189166 -0.00016853 8.94894e-18)
(0.00570273 0.000545872 2.18887e-18)
(0.00560229 0.000689948 3.20063e-18)
(-0.00048648 0.000581542 -4.79855e-17)
(-0.000505907 0.000533887 -4.25659e-17)
(-0.000433637 0.000554826 -8.26852e-18)
(-6.9448e-06 -6.62308e-05 -3.03968e-19)
(-6.74604e-06 -6.95502e-05 1.37165e-18)
(-2.15303e-05 -3.58857e-05 3.04847e-21)
(-2.33017e-05 -3.8785e-05 -4.91911e-19)
(-2.25377e-05 -3.86286e-05 -8.47141e-19)
(-0.00357203 -0.000656894 1.14465e-18)
(-0.00349647 -0.000829667 -1.73891e-18)
(0.000287912 0.00231663 1.22247e-17)
(0.000409097 0.00224321 1.9936e-18)
(0.000430435 0.00241095 -4.09993e-19)
(-1.32841e-06 -3.07458e-06 1.14474e-19)
(-5.94265e-07 -2.3541e-06 5.44413e-19)
(-1.27707e-06 -3.86965e-06 1.50557e-18)
(0.00397307 -0.000793186 1.76149e-18)
(0.00382652 -0.00103371 3.46811e-18)
(0.00330809 -0.000778236 1.36981e-17)
(-0.00140808 -0.000129906 -5.50071e-18)
(-0.00144586 -3.20807e-05 7.1714e-18)
(-0.00134609 -4.60861e-05 -8.30867e-18)
(2.50929e-05 -0.00029762 -3.43737e-17)
(2.74382e-05 -0.000306899 -3.33704e-17)
(-0.000206655 -0.000222227 -1.45591e-18)
(-0.000204246 -0.00023099 7.76384e-18)
(-0.000214172 -0.000226941 -3.99949e-18)
(-5.63168e-06 -6.72639e-05 -2.07676e-18)
(-6.30456e-06 -6.30784e-05 -7.41655e-19)
(-0.000216482 -0.000195043 -1.24616e-21)
(-0.000210228 -0.000191689 -1.5412e-18)
(-0.000211412 -0.000199425 -3.88325e-18)
(0.00612365 -1.1056e-05 -6.1881e-18)
(0.00611738 3.58135e-05 -1.14039e-17)
(0.00618446 -3.7392e-06 4.16501e-18)
(-6.51497e-05 6.97523e-05 7.99623e-19)
(-6.34227e-05 7.2853e-05 2.43396e-18)
(-6.64482e-05 7.26516e-05 3.32843e-19)
(0.000156109 -0.000509881 6.31242e-18)
(0.00013114 -0.000468387 3.20614e-18)
(0.000104712 -0.000519802 1.076e-17)
(-0.000111935 -0.000536899 6.74648e-17)
(-0.000136263 -0.000529011 -5.98014e-17)
(-0.000131844 -0.000562739 2.72147e-17)
(-8.63337e-05 -3.79708e-05 3.37632e-19)
(-8.81864e-05 -4.14335e-05 -1.15845e-18)
(-5.10052e-05 -0.000120808 -5.36973e-19)
(-5.1123e-05 -0.000122559 9.57031e-19)
(0.000459303 0.00056348 1.57389e-18)
(0.000506398 0.000606181 3.84015e-18)
(0.000517781 0.000536195 -7.12549e-18)
(-0.00433623 -0.00112281 7.84215e-19)
(-0.00426889 -0.00093354 8.09594e-20)
(-0.00453916 -0.000980545 -2.40414e-18)
(0.000721164 0.000667463 -5.45393e-18)
(0.000671291 0.000747738 -6.55272e-19)
(-0.00013296 -0.00015795 4.4475e-18)
(-0.000133062 -0.000167355 -4.75785e-20)
(-0.000117329 -0.000101421 -7.81574e-18)
(-0.000120784 -0.000108814 -1.06789e-18)
(-1.2445e-06 -6.72567e-06 -1.15321e-18)
(-1.18482e-06 -5.8397e-06 9.62843e-19)
(-4.46699e-07 -3.92018e-06 1.06298e-18)
(-0.00679721 0.000427113 2.65701e-18)
(-0.00699668 0.000445883 -2.62561e-18)
(0.00622437 -0.00321223 1.62036e-17)
(0.00657626 -0.00320613 1.14128e-17)
(0.0065616 -0.00323565 9.96178e-18)
(0.00320719 -0.00250836 -4.64253e-18)
(0.0036104 -0.00246428 2.20792e-19)
(0.00370769 -0.00278748 -2.18195e-18)
(-4.01173e-05 1.48993e-05 2.03394e-21)
(-4.07817e-05 1.63254e-05 2.1618e-20)
(0.00354483 -0.0008444 1.7112e-17)
(0.00346526 -0.00108193 1.61021e-17)
(0.00323559 -0.00104979 2.21496e-17)
(-0.000172457 0.00073075 7.75879e-19)
(-0.000453106 0.000694718 -7.76432e-18)
(-0.000692211 0.000498685 -1.98309e-17)
(-0.00393818 0.00546525 8.92775e-18)
(-0.00361436 0.00532517 -4.34041e-19)
(-0.00371228 -0.00168065 2.46837e-18)
(-0.00427268 -0.00151535 -2.17168e-18)
(-0.000169656 -0.000330032 1.83569e-18)
(-0.000265248 -0.000307413 -9.89407e-19)
(-9.34957e-06 -7.2357e-05 -5.42273e-19)
(-1.63699e-05 -2.60793e-06 -1.01792e-19)
(-1.47006e-05 -2.76745e-06 -1.94912e-19)
(-1.65836e-05 -4.79236e-06 -2.17987e-19)
(-0.000690372 0.000224456 1.71763e-19)
(-0.000656433 0.00022544 -2.42849e-19)
(-0.000670911 0.000273888 6.77412e-18)
(0.00343081 0.00150094 -5.64547e-18)
(0.00318747 0.00131117 -6.81161e-18)
(0.00347733 0.00127545 -2.98058e-18)
(-0.00152382 0.00138028 -8.88344e-18)
(-0.00161273 0.00127091 -5.28139e-19)
(-0.00167255 0.001443 2.15794e-17)
(-0.000196356 -7.35562e-05 1.54315e-18)
(-0.000201066 -6.75296e-05 -2.69355e-20)
(-0.003067 -0.00154042 -5.63702e-18)
(-0.000599329 -0.00115421 -3.75223e-18)
(8.67781e-05 0.000192027 2.11819e-18)
(8.96061e-05 0.000193385 -6.40058e-18)
(-2.28365e-05 -1.07214e-06 -9.9732e-19)
(-2.3373e-05 -1.69611e-06 -1.4579e-19)
(-2.32767e-05 -3.87745e-07 -4.64239e-19)
(0.0049236 -0.00133197 -4.09236e-18)
(0.00486018 -0.00185966 -1.28085e-17)
(0.00465016 -0.00158445 3.77872e-17)
(-1.65685e-05 8.50995e-06 1.28057e-19)
(-1.61936e-05 8.05316e-06 -7.37391e-19)
(-1.67219e-05 5.05918e-06 2.28466e-19)
(-0.00184746 0.00481768 7.73868e-18)
(-0.00154946 0.00444499 -1.23378e-18)
(-9.66083e-05 0.000179542 1.17572e-18)
(-8.77024e-05 0.000182351 6.63858e-19)
(-1.46695e-06 -2.3811e-06 -1.09721e-18)
(-2.22498e-06 -3.61858e-06 5.01073e-19)
(-0.000138537 -0.000119448 -2.08893e-18)
(-0.000143618 -0.000127008 -1.11978e-18)
(-0.000137646 -0.00011867 8.31867e-19)
(-0.00019149 -0.000174767 -1.41599e-19)
(-0.00018879 -0.000172704 -4.7556e-19)
(3.249e-05 -0.000321312 -1.66566e-17)
(2.19231e-05 -0.000307793 4.27202e-17)
(0.00482197 -0.000950259 -7.59998e-18)
(0.00424602 -0.000876904 3.10571e-18)