/*--------------------------------*- C++ -*----------------------------------*\
| =========                 |                                                 |
| \\      /  F ield         | OpenFOAM: The Open Source CFD Toolbox           |
|  \\    /   O peration     | Version:  v2012                                 |
|   \\  /    A nd           | Website:  www.openfoam.com                      |
|    \\/     M anipulation  |                                                 |
\*---------------------------------------------------------------------------*/
FoamFile
{
    version     2.0;
    format      ascii;
    class       volScalarField;
    location    "1000";
    object      omega;
}
// * * * * * * * * * * * * * * * * * * * * * * * * * * * * * * * * * * * * * //

dimensions      [0 0 -1 0 0 0 0];


internalField   nonuniform List<scalar> 
13917
(
0.0396005
0.022172
4.82406
0.0234766
0.0221079
0.43252
4.49796
4.9894
5.64954
0.0640234
0.153291
0.0643898
0.0235474
11.4884
0.0261255
0.0249561
0.0222881
0.0522885
0.0631758
0.0221135
0.0222669
4.41191
0.022093
4.98086
0.0220135
4.21615
0.0411872
0.0535027
0.737554
0.0980684
0.0421821
0.0277816
0.035776
0.0255864
0.022029
0.615607
0.0221017
3.87622
0.0251994
6.30856
0.0219047
0.0222858
0.0215853
0.0814383
0.0220675
0.0273213
0.0514886
0.0683639
2.83141
0.0220197
0.0266436
0.0223433
3.30017
0.0259577
0.0223008
0.0266502
0.151124
0.0220321
0.0248811
0.0220258
10.4638
0.022175
24.0952
0.0221021
0.403437
16.7081
0.0221038
0.0220454
0.167385
0.0361467
0.0221155
5.73435
4.36695
0.0220191
2.90363
0.0751353
5.76928
0.0227083
3.93809
0.0222369
0.0222048
0.0221113
0.373644
3.87017
4.84767
0.0226119
0.0221803
13.8602
0.0263812
0.0215761
4.15156
0.0854594
0.0218797
0.0229825
15.1305
0.380138
0.117223
0.0630405
0.131289
0.108064
0.0218196
0.0323926
0.0817734
0.0230875
0.0217985
5.96893
0.442035
0.0720886
0.0222937
0.0450601
4.34877
5.56719
0.0826606
5.84848
0.0229578
3.22165
0.0220109
1.48487
5.13382
0.0259409
0.0222739
0.161558
4.64103
0.0504285
0.0219806
0.0228166
0.0220366
0.0219883
0.0216081
0.419357
3.64542
0.0228648
0.0220912
0.0222743
3.69609
4.94418
0.0401491
0.11413
0.0220967
0.0257768
0.265715
0.0217689
0.0225716
0.101171
0.0220454
5.86536
0.776598
0.0222894
0.0217425
0.0284181
0.0548636
3.22075
0.0853664
0.0411332
0.0268693
6.48217
0.0346664
3.24054
7.88724
3.62256
0.0242003
0.0418537
0.0222369
0.112255
0.0810307
0.128933
0.0230589
0.0584668
0.0219072
0.0334159
0.0414254
6.71199
0.0899476
0.0225944
5.504
0.0451559
3.64654
1.94798
5.79487
0.0219213
0.0891253
0.0436848
0.0217628
0.0221712
0.0298881
4.35324
0.328934
8.42537
0.0361443
0.120434
0.305483
5.39236
0.301088
0.0221032
0.121015
0.0403948
0.0224631
0.0218877
0.230289
6.84403
0.0259812
0.022035
0.0542497
0.0541804
4.7997
1.81267
0.0220311
0.0220452
0.0616096
4.58939
0.0224734
4.51555
6.7237
0.120866
0.0218063
0.57493
0.0539645
6.1763
0.0219686
11.1274
0.0219158
0.0877151
0.0218957
3.93128
6.00478
0.0252846
1.97242
0.0271929
0.0218099
0.60251
0.0880042
0.0357348
4.87734
9.00909
0.0217751
0.0282702
4.10287
4.65061
0.022229
0.0219512
5.06467
0.132905
0.0222668
0.21808
0.0934792
0.0408719
0.0368621
0.0222289
0.0449347
7.42316
0.0219236
0.114084
0.140613
0.0220133
0.0220226
0.0674966
3.76163
0.08017
0.0302247
0.0262852
0.0222712
6.01292
7.05473
0.197948
0.0218178
4.62086
6.93229
3.87798
3.8594
0.0802299
0.0222154
0.0219369
0.0517335
4.14015
0.116286
0.024603
2.60218
0.0416001
0.0216008
8.52616
0.02209
5.50212
0.025532
0.022262
0.0272764
0.0408185
0.0423644
0.209871
0.0323138
0.0220263
0.313681
4.897
7.01297
0.0219698
4.41385
0.0221727
0.0220202
0.0220183
1.12126
0.0221058
0.0959408
0.0359362
0.0218876
0.0544291
0.0230974
2.38152
0.0439893
0.0780368
0.0218022
0.0220139
4.43332
5.24711
0.0220053
0.0219161
8.58248
0.0219026
4.21951
0.0217955
3.94927
0.0223597
0.465053
0.032934
3.02699
0.0239002
1.53259
0.308261
0.0272754
0.132172
0.515532
0.0222545
3.76105
0.120257
5.72016
0.0247977
6.59966
0.02898
4.76563
0.247528
0.11031
0.107322
4.74814
0.0222171
0.0430016
4.32868
0.0221678
0.0234372
6.17049
0.280292
0.0225228
0.221082
0.675698
0.0218618
6.16771
0.282173
0.0220835
0.0218961
0.0221802
0.0217374
0.327004
5.69464
0.686918
4.33572
0.0220168
0.128203
6.62568
0.0418695
4.42453
3.99485
5.89579
0.0217684
0.202651
0.0218756
11.1777
0.0220238
3.76943
0.0933944
0.0244854
0.0221988
0.0585227
0.0974991
0.0708758
8.39298
4.51615
9.51991
0.0469267
0.0599764
0.021959
4.81758
4.26425
0.0220482
0.754143
0.0220424
0.307391
0.0223574
0.022227
0.0231344
3.5987
0.023099
3.44758
6.27109
0.137889
0.464843
0.0222427
0.485006
0.41975
0.0220388
0.311313
0.0221515
0.0220286
0.0983137
0.0222616
0.022018
0.0218717
0.345088
0.022248
5.53396
3.96849
5.18234
0.301427
3.38695
6.1457
0.0412513
0.0220227
0.168042
0.0249927
0.0295358
0.0220957
5.77701
4.48732
4.00201
0.0249261
0.105997
0.0245172
0.0256401
0.0705062
0.0229103
0.233918
0.0222817
0.0220968
4.14565
3.63139
3.63889
0.126375
6.18387
3.73982
4.29974
5.83422
0.0216376
0.0563428
0.022968
0.0220742
0.761019
0.0524503
0.0218828
0.0607681
0.0391279
5.87053
0.0220347
0.114191
14.4974
0.733391
4.39755
0.0222554
0.0220551
0.0224269
0.0349401
0.0217709
4.33784
0.546018
0.0321358
5.41814
0.0265724
0.114454
4.43009
0.79084
0.133342
0.277964
0.113842
0.0593433
0.157962
0.0418192
0.152113
0.594804
0.0471913
0.0801045
0.021867
2.04535
0.0273934
0.021662
0.0334803
0.0228113
5.42084
5.8609
0.0218978
0.0216178
4.52951
8.70384
0.0222618
5.74498
0.0227804
0.221217
0.0219116
5.07838
2.74033
0.0283441
0.0223084
3.36806
0.253582
6.95881
0.0222694
6.56114
2.43662
8.8293
0.0216716
4.62065
6.37573
0.0419361
0.0218891
0.0222777
0.0752887
0.32946
0.0218172
0.0219024
0.0219601
0.0219545
5.18889
0.836966
0.0413377
0.31707
0.0219679
0.0218269
0.103806
5.18889
0.0330563
0.0219197
0.0220246
0.0220653
8.76595
5.97862
0.0221744
0.0220643
0.202448
0.0415254
0.0329128
0.0220487
0.0232128
0.0268713
0.0783093
0.410485
0.3274
0.171664
0.0955189
1.96157
0.0761625
0.0219797
6.19682
0.022069
0.0237205
0.0241289
1.90469
0.0753093
0.0218322
0.733846
0.110554
12.5453
0.0965031
0.0356252
0.0411953
0.0221899
6.79225
0.509081
4.34486
0.0221993
0.0292753
0.31857
3.9934
24.1555
0.0660637
0.146338
0.0248996
0.0240795
0.0220515
0.0543782
0.0870242
0.0221631
0.0534486
0.134576
4.43701
6.26935
0.023998
0.110846
1.89269
0.028415
0.0223835
3.51703
6.36675
5.67413
0.285891
0.0216225
5.56145
0.0737516
0.021866
0.0312813
0.0735059
0.0343662
0.0962901
3.97113
0.154012
0.0371128
6.73328
0.0231015
7.36044
0.0222377
0.0221677
4.49429
6.3041
0.634349
0.0230961
0.0225413
0.0220674
0.0422348
3.35911
0.121478
0.0242802
0.124193
0.0574297
0.0219159
2.02814
0.117982
0.236198
0.0219511
0.149321
0.0227887
10.2216
0.0653477
0.0752231
0.0295919
0.0218829
0.0216804
0.0220712
0.118822
0.0276688
0.32798
7.16816
0.0577222
0.021871
0.150354
0.66299
1.10719
0.0219018
0.0270793
0.0219102
0.0285177
0.0250413
6.1943
0.0222289
4.28778
0.0282771
0.151714
0.0864814
4.38803
0.0782479
0.0222323
4.36988
17.626
0.0220277
0.0240498
2.79363
0.229802
0.116238
0.0222376
0.0223369
0.348552
0.0246173
0.0702357
0.0642289
0.0216815
0.0540981
4.85744
0.0218845
0.0229157
0.0219799
5.46428
0.0222657
0.0245933
6.07755
0.0233019
6.27878
0.0269501
0.0365059
0.0219725
0.0501652
0.0220265
0.0579023
0.0218884
0.0845752
0.022782
27.2551
3.00507
5.22112
0.0223085
0.0222065
0.0722007
0.0479677
4.73577
5.52431
0.0517862
0.0220324
0.340341
0.654657
0.239152
0.274447
0.0496525
3.89158
0.039107
0.0396336
0.144188
0.182215
0.0510721
1.0999
0.0505162
0.0234456
0.0782091
0.0273796
0.0217365
0.0283116
0.0449979
0.0277658
0.0220335
0.021929
0.0577194
0.0232643
0.0710777
0.0220345
0.0220568
0.0222734
0.0231107
0.0215394
0.0257424
0.0219999
5.25658
0.0631424
0.361793
0.0217948
0.0222473
0.0480426
0.0603782
0.0226865
8.29429
0.0790598
11.2746
0.0283739
0.120728
0.0223983
0.0222689
0.0219374
0.0231107
7.81844
0.0222551
4.53642
0.0260203
5.98306
0.0493602
0.0803673
0.149168
0.0216785
0.022291
0.0643079
0.0220458
0.0223869
7.93254
0.0226776
0.0221805
0.0277186
0.0219448
0.0216745
0.0278259
0.0284341
6.01143
0.0348792
0.0218833
0.0218797
4.02343
0.116724
0.0221837
0.0222034
8.17402
2.53583
8.61885
0.0357229
0.0234553
0.0217864
0.0216566
0.0480779
0.035914
0.233315
0.0251851
3.84288
0.0222854
0.023599
9.32162
0.0220487
0.0275208
0.0219863
0.0220809
0.0436452
0.0426918
0.0224567
6.22786
4.32476
0.0877353
0.0219759
0.0215933
0.117663
3.80506
0.0222612
1.39118
0.0215933
0.0424418
0.0217263
0.0217756
0.341194
0.0219757
3.23791
0.0396496
0.0222732
0.0216169
0.0220671
0.021911
0.0228339
4.15285
0.0218502
0.0217635
5.20926
5.85903
0.0382795
0.0465854
0.0666235
0.0249976
0.0217827
0.0280072
5.10116
0.0895033
0.0221303
0.0222515
5.62727
0.0357136
4.43338
0.0222663
0.0227934
6.54491
0.0332221
0.0225311
7.93913
1.73636
0.0219076
0.12997
0.0219348
0.0219522
0.021782
4.3602
0.0215323
0.0219024
0.0217771
3.42999
0.0245484
0.219286
0.0629345
0.0217659
0.0327349
0.0221744
4.34514
0.0219666
0.0218671
0.0221815
0.122283
0.0221737
0.153829
5.82204
4.80011
0.0265434
0.346364
5.32911
0.0220089
6.93976
9.81
4.82545
3.40965
5.11038
36.9005
0.13983
0.022303
3.88681
0.0331636
4.17804
0.0216662
0.0218755
0.0221835
0.0221676
0.0257766
0.0309898
4.59196
0.0218655
0.0220714
6.43633
0.292697
0.0220672
0.0382899
0.0293997
0.0221895
2.79627
0.0393459
0.0237221
0.0244879
5.73484
7.7573
1.29867
0.0217107
0.256438
0.110178
4.61043
5.9286
0.087964
0.0219072
0.022458
0.0222875
0.0214973
0.0231989
0.0216305
0.0269822
0.0380723
5.69855
0.130189
0.0219166
0.117815
4.32573
0.0413004
0.0223007
6.57309
0.0218713
0.022309
0.037671
6.70185
0.0221739
0.0219518
4.52299
0.206945
1.45031
0.104937
0.658299
0.0219267
0.171124
0.022329
0.0220004
0.0223251
4.32279
6.34255
0.0217555
0.0216132
0.0220046
3.02257
0.022982
0.0294454
0.0220463
0.0224083
0.166006
0.0217811
0.0590835
0.344938
3.63474
0.0219839
0.0825757
0.0241734
4.56855
4.2807
0.0220195
4.48708
0.0711302
1.44928
0.0221726
3.54474
0.0222454
0.0264736
0.0424106
0.10502
4.54846
0.28172
0.172052
6.45251
0.0218646
0.284698
0.0217655
0.0273642
4.52147
0.0220831
0.0222529
0.0227767
0.022165
5.22939
0.0216739
0.0220838
0.0550062
0.0466019
0.0496858
0.595132
0.130035
7.64229
0.064126
0.0349587
0.0386809
4.7105
0.0393688
14.3723
4.13528
0.0252523
0.0217834
3.26099
0.240137
0.022293
0.10858
0.0334473
0.0222859
0.0261609
0.0222066
0.0424235
0.0222921
0.0486755
0.107729
0.0218834
0.0601381
0.0218014
0.0593636
0.0218839
0.0261126
0.0575809
0.0233997
0.0220819
0.0217652
2.09075
0.0801917
6.1602
0.0220153
0.0221229
0.0587749
0.0219875
0.0899528
0.0803078
0.0222878
0.0938953
0.0217862
10.1697
0.0222575
0.0366471
5.4408
0.281452
0.0219338
0.0235636
6.782
0.022003
0.021922
4.47248
4.22391
0.0242051
0.16155
0.0221042
0.022075
4.36966
0.0229855
0.0216886
0.243082
0.0218047
2.31797
0.0221984
0.0216917
0.0221837
0.132329
3.66034
0.0221177
0.0222545
0.0219276
0.0258037
0.0220778
0.991604
0.0581287
0.0222688
5.69279
0.0495322
0.286464
3.76681
3.6467
0.0217441
0.0222445
0.0220363
0.751745
0.0262826
3.70393
5.70867
0.023881
4.42126
2.31922
0.049157
0.144667
0.069387
0.380716
4.57941
0.0628036
1.01221
3.91118
0.0632009
0.0251193
4.52868
0.0539641
0.0216779
0.0232379
13.8249
0.0379482
0.0218916
0.0521324
0.0990094
0.0382769
4.41531
0.0236927
6.46708
0.0387951
0.226516
0.12303
0.274706
0.028722
0.0217782
0.0225517
4.81337
0.0219971
0.0240705
0.0217985
0.0232258
0.0218685
0.0351309
0.149686
1.9092
0.0444233
0.0575849
4.02243
0.355395
0.021861
2.62545
4.21695
0.0217275
0.021913
0.030496
6.68109
0.0222545
0.0685391
0.609128
0.0475938
0.0220611
0.0230577
0.0218192
0.108854
0.0392992
0.0219911
31.1478
3.91187
0.0427699
1.69166
0.0640287
5.148
0.0232396
0.0252814
4.30534
2.37124
0.0889122
1.75445
0.0281481
0.0222764
0.0219386
0.0221674
0.0220292
0.0226165
0.0523383
0.0219424
0.122567
0.0219436
0.0282441
0.0217471
0.0797531
0.121534
0.783994
0.0219973
0.27175
0.0219372
4.39916
0.0220373
0.0255036
0.0221242
0.252467
4.69428
0.139749
0.0219361
0.130518
0.0220162
0.0295766
4.19687
0.0219271
0.0223446
0.0449027
0.0312509
4.42235
0.0219438
0.0296245
0.0230466
0.0220418
0.0321401
0.0224488
0.0217494
0.0236265
6.48353
0.0243723
0.238855
5.71383
0.0510843
3.56596
0.0241318
0.0217556
0.0308392
8.3461
0.023251
0.0362749
0.0415069
4.50398
0.0218969
5.74711
0.0615988
0.0692519
0.0217183
0.0216318
0.16615
0.0224103
0.022286
0.0336342
0.0216762
0.0243452
0.0283827
0.0693709
0.270826
4.41608
0.0249898
0.0731678
2.91153
7.538
0.0369812
0.262163
6.55328
0.0388815
13.2907
0.0236553
20.1804
5.31412
0.0216591
0.022262
0.0219572
0.0225441
0.0445508
0.0217483
0.0238826
0.0879743
0.0232314
0.0352579
4.29218
0.0300737
0.0240424
5.64892
0.0225366
5.65392
0.0242024
0.0543589
0.0218865
6.815
5.98033
0.022015
0.0226594
3.71431
0.0293872
6.72173
0.0220231
0.0218026
4.43388
0.0226474
0.04421
9.74981
0.0220659
0.0540172
0.0290086
0.0216276
0.0219043
3.83282
5.55538
0.0221889
0.0234282
0.0220517
0.0264352
0.0360948
6.13767
0.0226452
2.56608
4.32605
0.218903
3.3925
0.0225983
0.120546
0.193807
0.0289326
0.0220614
0.0592647
4.11046
0.0233448
0.0460935
5.04839
3.64014
0.298319
0.0252002
0.0222475
0.0222463
0.0220685
7.42083
0.0542448
0.0237198
0.0227664
0.0242919
0.0222701
0.0219749
0.0220431
0.0718993
0.0373159
5.60404
0.0464033
5.07412
3.35807
0.0303197
0.0501076
0.0218124
0.0284301
8.26169
0.0221186
0.0235176
0.0507226
0.116416
0.0559746
3.84413
0.221337
0.0218755
3.95112
0.0215955
0.0222337
0.0459354
0.0222735
0.0219183
0.167724
6.87596
0.0218106
4.25366
0.0221015
0.0217342
0.0234351
2.68826
0.0289824
0.0241746
12.9738
0.0228937
0.232989
3.38026
0.0222462
0.0475432
0.0220115
5.92894
0.069744
0.0220447
4.14414
0.0532134
0.0786886
0.0222785
6.48533
0.0291189
0.399912
0.0228567
0.0717399
6.85995
0.0217553
1.45697
0.0221087
0.0612403
0.0521139
0.0222453
4.55054
0.0235517
0.114194
0.0567805
0.096217
0.0402741
0.043886
0.0225749
5.00974
0.0317431
6.95797
0.0298357
0.0633731
0.0219628
0.0435054
0.022048
0.0677331
4.68812
0.0227253
0.021827
3.42877
0.0227819
3.15837
0.0224523
4.35658
0.253022
0.0350138
0.0219932
0.0219426
0.0221099
0.0216295
0.101288
0.0561671
0.0388549
0.0257053
0.0220836
2.41527
0.0235064
0.03382
2.31696
0.0220358
13.8744
0.0505617
0.029405
1.25912
4.36538
0.321268
4.50526
9.15432
0.0218899
0.364113
4.94591
0.34848
0.0221738
0.0222181
0.113497
4.06542
5.52489
0.630051
0.0222671
0.0505425
0.0395644
3.39118
4.90672
0.0414775
0.127085
0.0238563
0.0800619
0.0885437
0.0221655
0.103188
8.10051
0.0221309
3.43726
0.0222533
0.0219527
4.70452
4.04316
0.0218516
0.0223402
0.0224536
0.0218096
0.0484779
0.174124
0.0230257
0.0219906
0.0220992
0.0395843
0.0276701
0.0274166
0.333344
0.0220286
4.11775
7.56266
4.34911
0.153296
0.0516607
1.12257
0.0330569
3.82603
1.82151
9.16952
0.0224016
6.76163
3.44049
0.0217701
0.0220371
0.102388
4.49538
9.91671
0.0217678
0.0220215
3.61844
4.28632
6.06978
0.0239385
0.0239184
1.87622
0.0221873
3.76828
7.29424
1.05024
2.36894
0.0220655
0.0219265
0.0218889
0.0260965
4.11071
0.0395474
0.025318
0.0226272
0.0859267
7.07553
0.0395413
6.13784
5.32876
5.21049
2.1696
0.0220517
0.0221727
4.37027
0.0216625
0.0216764
0.0230255
2.8141
0.0368474
9.51934
0.129635
0.0220281
5.36076
0.0391306
0.0218723
6.05342
0.168823
0.0251031
0.0220839
5.1112
4.46176
0.0221806
7.49356
4.37903
6.35932
2.19155
0.0819982
0.0219285
0.0225345
1.77557
0.0254653
4.49886
0.041316
3.0779
0.255335
0.0228853
0.028971
0.0219239
0.0226881
4.71863
6.89226
0.0220686
4.87266
0.0422362
0.0220288
0.0247785
0.0219376
0.159894
0.0224318
2.29869
0.0514021
0.0219193
0.0218757
0.0910543
8.16332
0.0385144
0.0239517
0.0424143
0.0220428
0.0230869
0.0271378
8.67431
4.0738
4.47823
0.0217209
0.0218691
0.0223395
0.121735
0.0218775
0.0223856
0.169083
0.0579228
0.773579
0.0216469
4.42609
4.04287
0.0222843
8.77932
0.114024
0.0365849
2.05157
0.0222882
5.16143
0.0294582
0.0230339
0.0238821
0.0216589
0.215209
0.0224477
0.0227243
0.0308409
3.48731
3.6032
0.0222463
0.0220231
0.0234765
0.0219858
0.131286
0.0224313
0.0828624
0.0234758
4.16636
0.0226252
4.34536
0.0217223
5.50671
0.0223873
0.0216429
7.12687
0.317537
0.117043
0.86895
0.0442129
0.0401649
0.0220454
5.15469
0.0220647
0.0218839
0.0882131
0.0628408
10.2149
4.46458
0.120738
6.98803
0.127183
0.751873
0.02189
0.0248346
0.0276766
4.15921
0.0248455
4.26266
4.47184
0.0221693
0.0220696
0.0220109
1.56442
3.33247
0.0233019
0.02211
0.0256991
0.0279695
0.0375706
0.38251
0.319293
0.0220649
0.628999
0.0836494
8.54422
0.0709776
0.0232513
0.0238401
5.19133
0.0218859
0.0876343
4.67208
0.0227089
0.0253355
0.173763
0.134121
0.0227494
6.50397
0.0243088
0.284433
0.0396408
0.0302482
0.0227012
4.39898
0.0218623
0.0971018
1.44882
4.87408
0.0491127
0.066112
0.0254592
0.0476432
0.0222659
5.09158
0.0265052
0.0219733
0.0296406
0.0220927
0.0222692
2.95552
0.0220687
0.0221794
0.022043
0.129503
0.0222499
0.0329831
0.0718573
0.231483
0.115158
0.0222537
0.240078
0.476994
0.219611
0.0836802
0.0272942
0.155088
4.80128
0.641603
0.0222845
7.68148
4.25399
0.0222839
0.02407
0.0216489
0.743722
0.104713
0.0220335
1.28964
4.20189
0.021813
0.0222158
3.75778
4.15051
0.0642961
0.021662
11.2729
3.23929
3.27039
0.0220295
4.17583
0.0812337
0.0707936
4.4064
0.0260386
0.0216607
0.0298447
0.187292
0.0317003
4.01156
4.49476
0.0218214
6.50121
0.515662
4.55709
0.0217198
0.0521085
0.0222939
0.0219249
4.22802
3.19195
0.278537
3.8439
0.0292323
0.0499528
0.0222055
4.69602
5.91468
0.0220491
0.0222474
0.0317464
0.0218042
0.0503155
4.59187
7.52173
0.05051
0.022457
0.0221305
4.21631
0.0249734
0.0521665
0.0218008
0.0229657
0.718025
3.54078
0.366522
2.93281
0.0221712
0.297953
0.0223009
0.047717
9.94721
6.7892
0.0220735
0.0222938
0.0351097
0.0257008
0.0221924
4.49985
4.17951
0.0217825
0.021519
0.0221912
0.0219709
2.6891
0.0217341
3.91033
0.101342
0.0626124
0.0218575
0.0476574
4.63832
0.0332822
0.448908
5.95939
0.0222424
7.16302
0.0331161
0.0354224
0.361233
7.19558
4.61891
0.0593145
0.0219
0.254895
0.0217444
0.0252621
0.0222106
3.91552
0.0316813
2.18511
0.241275
0.0480335
0.0221249
0.28996
0.0267475
0.0222704
0.266036
0.0216028
0.0373605
0.0338688
0.0221737
9.97095
0.023356
0.591746
0.0228155
0.0219401
5.66453
3.73624
0.0241023
0.0324867
0.0386237
0.0574288
0.0578533
0.0260778
0.0258704
0.0251164
0.223106
0.0250222
4.04864
0.0596777
0.215715
0.116103
0.0226209
4.66121
0.0216135
4.62641
0.0242062
4.34342
4.96757
8.60445
7.67525
0.308129
0.0768883
0.0220038
4.41021
0.0851856
0.0220442
7.84874
5.64617
0.023268
0.0237001
0.0306285
0.0306334
0.0320597
5.26565
0.022284
0.0295157
0.0346895
0.0321808
0.022165
0.0843866
0.0216147
4.16144
0.0236463
0.131491
0.0316843
0.0393058
0.123189
3.66901
0.0855064
0.0218366
0.244259
4.40247
23.082
0.0223705
4.19992
0.0287773
1.79866
0.0220646
0.0244905
3.91309
0.0510684
5.01974
7.33169
0.0333998
4.94328
0.0219697
0.021604
8.85066
0.058879
0.0244117
5.38604
0.0268678
0.0456831
0.0293339
0.0704975
0.0221611
5.73551
5.2607
7.02848
0.281229
0.0254318
0.05668
4.99155
0.0240204
0.0223024
0.0818319
0.0216955
0.294325
7.95086
6.42035
5.35668
0.0550242
0.0224348
4.21874
0.0216008
0.0733606
0.0222356
24.3339
0.0237684
0.0475824
3.75354
0.116917
0.0220286
0.0320842
9.30113
0.0220765
0.143713
0.0217925
9.61995
4.27607
0.113007
0.0824335
0.0219542
0.212668
0.136731
0.0390794
0.0217974
0.0224687
0.0221472
0.0540631
0.0221239
0.0853505
0.0221243
0.0218005
6.54318
0.0218656
0.0267613
0.0249772
0.0222748
3.68087
0.0218614
0.0337815
4.0756
0.0479139
3.95065
0.0220655
4.49718
0.0503778
5.17342
0.0235487
0.125475
0.0221589
0.040625
0.122202
0.111793
0.247989
4.1494
0.214104
1.86053
0.0269725
0.110321
0.0417571
0.677968
0.0250513
0.0221075
0.0220343
0.0512693
0.0462259
2.62765
0.0530057
4.70173
6.86498
0.101641
0.0220035
4.63368
0.200579
0.0224693
0.0240545
0.0220755
4.89484
0.0220368
8.3125
0.0218533
0.026896
4.91581
0.0784183
0.0220456
0.0220288
7.90312
0.0218724
0.0240325
0.02515
0.0324662
0.0275753
0.0221573
0.151607
0.0819063
0.0437777
0.313508
4.43688
3.66857
6.20056
0.0217372
0.0219914
0.101908
0.0224452
0.0472528
4.1438
3.79687
0.0216584
0.0220457
3.3657
0.429191
0.0216743
0.0218382
0.0265757
13.4251
4.10131
0.0264816
0.0339591
0.0222003
0.371493
0.124862
0.141624
0.0316758
0.0440891
0.0224164
0.0380064
0.30927
0.0227646
0.022145
0.0262885
4.65919
0.0251725
7.2488
0.022108
3.86957
0.0364382
0.0279246
0.0217806
0.0219295
0.801636
7.90805
0.0579322
4.23906
9.94665
0.0225215
4.05581
0.141751
0.0218927
4.62491
0.241647
0.113222
0.0222539
3.49064
4.50916
0.0219515
0.039532
4.26996
0.0448531
0.0220486
0.0217931
0.0223892
0.0238609
0.0810607
0.288651
0.0780721
0.0771901
0.0217241
0.0221875
4.64417
0.021843
0.0482283
0.0266433
0.0221238
0.0500052
0.0220281
0.0237017
0.333547
0.022002
4.4924
0.0220242
14.4019
3.72258
0.0926776
0.0222352
0.0222927
4.21629
0.0216473
0.0241638
0.0223378
0.338291
1.00668
0.0335454
3.72523
0.0419258
1.4644
0.0225395
0.0687295
0.0217958
0.0221404
5.04838
3.76724
1.30273
0.0237603
0.0686303
0.0686789
4.82313
4.12394
0.313108
0.039167
0.0215959
4.17762
0.0219089
0.0219682
0.289334
0.112789
0.0282635
0.19999
0.0472717
0.0315591
0.0275972
5.14321
0.0243276
0.021996
6.74436
0.0468764
0.0217176
3.44473
0.0220348
0.0221124
0.159535
0.152572
12.3769
0.0217342
0.0247717
0.0219185
2.22304
0.0218668
0.539634
4.15425
3.62859
3.42874
33.1078
0.0302864
4.50162
0.868597
0.0222105
0.0305874
0.0436499
0.0303605
1.23315
4.17714
4.45622
3.57646
2.3908
0.0221507
0.104601
0.0220422
4.83497
0.0285342
0.0231192
0.0240735
0.0226893
0.0218812
0.104858
4.45496
0.0217247
0.0236282
0.0218676
4.60914
0.0234802
5.52922
3.84907
1.23134
0.0220953
0.0218875
4.44448
0.358125
0.0221398
0.303914
0.0222287
0.141434
0.187796
0.093802
0.051028
10.495
0.0217999
0.0217973
0.229635
3.30928
0.0293131
0.046869
0.0219373
8.6743
0.0220162
0.021955
0.0231451
0.0219982
5.32783
4.06656
1.68614
0.0591659
4.22905
0.479611
0.0216637
0.0309132
0.0217012
1.26555
0.0219914
0.0248231
0.0220027
0.0219246
0.0217815
2.7536
0.0227921
1.69766
0.0216007
0.0325986
0.0229125
1.57044
0.0220489
0.0313732
0.0347524
0.0695589
6.95402
0.0219208
4.2456
0.0684337
0.0455735
0.0219793
0.0219535
3.49847
15.9711
0.0220068
0.021886
0.266506
0.24057
0.0383894
4.02795
0.0227432
0.365038
0.0310886
0.0217092
5.44839
0.0229868
3.97625
0.0220319
0.0226831
0.0221214
4.27798
3.6065
0.0216785
0.247771
0.240344
0.0220614
0.0218673
0.0219013
0.263072
4.06528
0.0643123
0.0241929
0.0395024
0.0220329
0.0220519
0.0236713
0.0220074
0.182565
0.0220654
0.0628081
0.624804
0.0359583
0.0216225
3.97211
0.0735955
0.0220416
0.0805888
0.030431
1.43276
0.0245248
10.4208
0.0565428
0.0219908
0.0865427
0.0855583
0.0246187
5.94585
0.0592024
0.0295266
1.89703
0.0219385
0.151652
0.0884113
0.127167
0.0219447
0.0219759
0.021644
0.0336151
0.0551057
0.0539354
6.46791
4.6231
3.8856
0.0222669
1.90305
3.79121
4.29032
0.022004
0.0220223
0.0533299
4.24892
0.024149
0.0349911
32.345
5.08125
16.3929
0.114111
0.16543
3.35219
0.380537
0.0216144
11.6305
0.2742
0.0223203
0.0223349
0.0228002
4.71445
0.0962744
5.29252
0.0239671
7.76059
0.0221281
1.3593
3.82118
0.0222065
0.0338706
4.278
4.70638
0.0551606
0.0228538
0.023703
0.0223848
0.228639
0.121383
2.34601
4.1909
0.0217515
5.27791
0.167125
0.846424
0.0220307
0.0221655
2.2207
0.263675
0.0219609
0.0497508
0.0732771
0.0391768
4.11481
4.69417
4.67689
4.1562
0.0254597
0.0216668
0.0662922
4.50745
10.3273
0.0219436
0.275741
0.0912877
0.446268
0.0224594
0.0222565
1.20617
4.21039
6.26704
1.66437
4.21483
0.021963
0.266509
4.14021
0.0222353
0.0624264
0.105838
0.0216877
0.160995
5.00054
0.244658
0.0222555
5.27331
0.116602
27.5504
0.0215124
0.0236076
0.0221556
0.023109
0.0221222
0.0538056
0.0403614
0.0425773
0.334191
0.0335378
4.24127
0.025286
0.0287013
0.028055
9.00181
0.0578429
4.96297
0.0281191
0.0278487
19.0649
0.0975963
0.0220732
0.04246
4.12644
5.34258
0.309524
0.0219737
0.0219102
0.0219333
1.16767
0.0231458
2.48856
1.32766
0.262076
0.0319382
0.253166
5.54519
0.0221229
7.34389
0.0336071
0.0511268
0.0219418
0.0219138
0.0529945
4.34436
0.0220808
4.92182
0.513995
0.0996435
0.187533
0.021875
0.0220259
0.0298075
0.0228892
25.7964
25.1016
0.0843399
0.807282
0.0219602
0.0220878
0.0221731
0.0222458
7.71926
0.0231907
4.52001
0.0872443
0.0224874
0.366622
2.47332
3.45198
8.50402
0.0235196
0.0217793
0.0221307
0.0234533
0.745069
0.244583
5.83094
0.0221555
0.0224116
0.161087
0.0222602
0.207969
0.0236802
0.151635
0.172418
0.0414191
0.0398558
0.0217296
0.0469548
0.0382383
0.210204
0.0816372
0.0424118
0.0218715
0.245029
0.0218879
3.07748
3.69373
0.933806
0.0220752
0.109879
0.0220193
0.0489418
0.0229679
0.0226832
0.0282042
8.84849
4.11696
0.0797269
0.0473759
0.231338
0.0779993
4.00575
4.26818
0.0309872
4.22148
0.354928
0.0218518
0.0565447
4.29886
0.0970792
0.0222364
0.0536194
2.25279
0.42754
8.52357
0.0221441
0.861939
0.0220982
0.0219323
0.0418013
0.249273
0.0222639
4.21317
5.21821
0.207709
11.3443
0.37329
4.78324
0.313531
0.0217282
0.0247646
0.0216541
0.0436598
0.289014
0.414089
0.0243462
0.0418309
0.0216408
4.36485
0.0383582
0.0473433
4.15461
0.0992531
6.83647
4.72362
0.0219691
6.72959
0.0221177
0.0283112
0.0473783
3.93717
0.152689
0.0278276
0.0231823
0.577986
0.0343573
4.38365
6.0206
0.0325626
3.23916
0.0449113
0.022273
1.1638
0.0622355
0.0229877
8.98486
15.5022
0.0298354
0.0260212
0.130937
5.93499
0.0219598
0.0222175
0.0216741
0.0217619
0.0223318
4.83578
0.0315562
3.96163
0.0219581
0.0219402
0.852844
0.0221886
0.0237841
0.0220584
0.0220347
2.02877
0.0217635
4.73463
0.0220004
0.0230644
0.0413962
0.0221768
0.145045
0.0217756
0.0222652
0.0217925
0.0276815
0.0895809
0.0244535
3.70875
0.0219338
0.0436256
0.0296543
4.25111
0.0227577
0.0222689
0.0217095
0.0216902
0.394091
0.0219064
0.0218987
0.0245667
1.77339
0.0219372
0.0428528
0.0326382
0.0220173
4.8745
6.82601
0.242708
4.9402
0.0247894
0.110847
0.0221536
0.0994698
0.340551
0.0223068
2.02568
0.130318
4.59022
0.0307443
0.0220339
1.58099
0.0433433
0.783956
5.17278
0.0215871
0.0219875
7.45588
3.22164
0.0592237
0.0566028
0.0230475
10.7599
5.72041
0.0215163
0.0219687
0.0221071
0.0221738
0.0222484
0.0220384
0.0355397
4.28991
0.0310079
0.0221925
0.427967
0.0219896
0.814611
0.0459436
0.0220873
0.0274693
0.0219178
0.365845
0.0248724
0.0522895
0.0219637
0.0222613
4.51761
4.88196
0.0221774
0.0513198
0.0444659
0.0310151
0.0239106
0.0222713
0.022758
1.56556
0.552387
0.0399065
4.87713
0.022488
24.6348
0.104766
0.0258671
17.397
0.0230561
4.41255
5.35366
3.43228
3.52348
4.14016
3.78195
0.0216536
0.0272064
0.0247467
0.0216423
0.0217447
0.0291373
0.076985
0.0217834
0.0293938
0.12203
0.0754555
0.311101
0.212372
0.0335825
1.74602
9.50703
0.0339376
0.0249157
0.12862
8.87182
3.90249
0.0255174
0.0216293
0.0218704
0.021783
0.03174
3.84132
0.368316
0.0217515
4.67267
0.0219827
0.138694
4.17524
0.082806
0.191988
0.0910146
0.330651
0.0228193
0.033261
0.0218667
0.237568
0.0219675
0.0229773
0.0330832
0.15244
0.0221772
0.0244498
5.57318
0.0218225
0.0220449
0.0290338
5.73396
0.114398
0.486435
0.0382411
0.0221499
3.34644
0.0370907
0.0232924
0.0220237
0.0306585
0.0265897
0.0220338
0.0277881
4.49479
0.0235492
0.0216572
0.046776
0.0218841
0.0317025
0.0301274
0.0220675
0.0219986
4.68445
0.0217195
0.0220337
0.0216606
0.0257237
0.0214834
4.88803
0.0258442
0.211239
0.0219621
0.021906
0.0220628
4.34797
0.0641549
0.0220423
0.021618
5.547
0.0251209
0.066582
0.0218611
0.147392
0.0233531
0.0215619
3.37006
0.0217691
0.0222579
0.022147
0.0219923
0.0241352
0.0221272
0.0220364
1.63007
1.52925
4.64066
0.214031
8.57072
0.0218589
4.65505
0.0219685
4.09559
8.14082
0.0218014
10.5116
0.0219803
4.16809
11.8119
0.266231
4.16105
3.98901
0.809544
1.8897
6.20133
5.24919
0.0431343
0.0420853
4.64832
0.0234879
0.0216661
1.56636
0.0238483
0.0281887
11.895
0.0229557
0.521293
3.69855
6.38392
0.382528
0.117102
0.0222519
0.0282154
0.0485741
0.0222682
6.91847
0.356878
0.108107
0.021909
0.0220695
8.18116
0.0216986
0.705565
0.0218509
9.2878
4.5034
0.0337709
0.026098
0.0219993
10.3785
4.06817
0.0253926
0.0336411
0.0222857
0.0222855
0.057774
0.023157
0.0319975
0.0663669
0.0242281
0.0327389
0.0220409
0.0320577
15.4664
0.0225126
10.821
0.0219589
3.4095
0.0547244
0.0220393
9.57655
0.125488
0.0218523
0.15462
0.0220391
0.324768
0.0221969
0.0220125
3.87283
0.0221462
0.105324
0.0233671
0.138208
0.0218488
0.0223295
0.021862
0.0300173
0.0242111
0.0222879
0.0225885
0.0253097
0.0224413
0.123295
0.0637951
0.0295591
0.0233613
0.0216388
2.34507
7.42308
0.0227658
0.0225234
0.022642
0.0377487
0.0222118
0.0350067
0.0215733
0.0222853
0.237117
0.0233288
0.0222847
0.0219056
4.80095
11.187
0.0216008
0.0713911
0.0582102
0.23244
0.227528
6.86423
4.3784
0.638216
0.0229224
0.137166
0.0219293
0.0313892
7.30898
4.46231
0.134586
0.0239203
15.6303
0.022042
0.04645
0.411124
0.0222215
0.135257
0.0234335
0.0232315
0.0742625
0.146225
3.92105
3.38336
0.0218333
0.0216035
4.78196
3.8093
0.0222308
0.0290448
0.121283
0.0220579
0.0220163
0.0240703
1.61781
0.0217756
4.30925
0.0294829
0.0222219
0.216115
0.0728854
0.0675058
0.114596
4.9057
0.0244042
0.0345682
0.0273677
0.0237366
9.81938
0.0316167
4.2066
4.19099
0.0662383
4.18829
0.0460785
0.0477202
0.344173
0.0217294
4.33579
0.0882355
0.0336377
0.0290954
0.0221781
0.0216691
4.13445
0.0430683
4.29685
4.28192
0.0221156
4.28625
0.0218381
0.0219571
0.0287335
11.4871
0.0742259
0.0216916
4.07496
0.0219933
0.023776
3.98296
0.0236502
3.46512
0.0222728
4.45158
3.57163
0.0689654
2.22444
0.0233618
3.46257
0.0216311
5.32075
4.76825
4.44042
5.15228
0.0219465
0.0218286
0.238474
3.76229
3.46913
3.8231
3.75813
0.0221351
4.99606
3.44897
0.0224043
4.37522
0.0315543
0.0330229
12.2457
0.0381716
4.4456
0.0219355
0.0378009
0.0344702
0.203054
6.38334
0.0367652
3.57355
4.47827
0.0221723
0.0245941
0.0237704
0.0247809
3.48412
0.0220153
0.0217641
0.0391915
3.79108
4.01803
0.02811
3.87777
4.25665
0.0219624
8.69413
4.74218
0.175267
3.99496
0.0661574
0.0243537
0.0221728
0.156269
0.026367
0.0802879
10.0963
4.55051
0.0290033
0.0728206
0.0257528
0.0386201
0.021656
0.0414956
0.0246837
0.0902106
4.63763
6.21173
3.84339
0.0216701
0.130477
0.0627204
4.26081
0.0232362
4.73168
4.75763
4.30585
0.0221436
0.172739
4.56294
10.9123
7.57694
0.036448
5.49638
3.26251
0.0625994
0.0680906
0.024065
0.0292387
4.79741
0.045359
0.0221866
3.30625
0.022047