/*--------------------------------*- C++ -*----------------------------------*\
| =========                 |                                                 |
| \\      /  F ield         | OpenFOAM: The Open Source CFD Toolbox           |
|  \\    /   O peration     | Version:  v2012                                 |
|   \\  /    A nd           | Website:  www.openfoam.com                      |
|    \\/     M anipulation  |                                                 |
\*---------------------------------------------------------------------------*/
FoamFile
{
    version     2.0;
    format      ascii;
    class       surfaceVectorField;
    location    "450";
    object      ddtCorrDdt0(Uf);
}
// * * * * * * * * * * * * * * * * * * * * * * * * * * * * * * * * * * * * * //

dimensions      [0 1 -2 0 0 0 0];


internalField   nonuniform List<vector> 
20580
(
(-0.00210556 0.00242473 -2.82762e-19)
(-0.0022612 0.00265529 -8.69393e-18)
(-0.0023151 0.00233653 -6.68343e-18)
(-7.82379e-05 0.000220119 1.09802e-17)
(-7.0363e-05 0.000220484 1.16769e-18)
(-7.73377e-05 0.00023358 1.36877e-18)
(-8.56788e-05 0.000223605 3.51669e-18)
(-7.88942e-05 0.000212002 5.00105e-18)
(-0.00449099 0.00243646 1.08924e-17)
(-0.00504821 0.00298212 -2.4931e-17)
(-0.00404133 0.00305283 -1.64944e-17)
(2.68143e-06 2.32368e-06 1.83011e-19)
(3.63194e-06 2.08503e-06 4.44272e-19)
(5.36069e-06 1.30053e-06 -1.98985e-20)
(-1.49724e-05 0.000238558 -3.43591e-18)
(-7.03192e-06 0.000230457 9.48634e-19)
(-1.25643e-05 0.000223312 -4.10135e-18)
(-0.000234225 8.45111e-05 -9.89243e-19)
(-0.00023946 7.97152e-05 6.22261e-18)
(-1.35132e-05 2.03939e-06 -3.32794e-19)
(-1.31822e-05 2.37597e-06 1.44967e-19)
(-1.10607e-05 1.65034e-06 1.29498e-20)
(0.00697304 -5.7674e-05 9.20064e-18)
(0.006818 -2.59317e-05 -1.4927e-18)
(0.00735052 7.5952e-05 -2.61686e-18)
(-1.34698e-06 -1.67993e-05 1.57141e-18)
(-5.48147e-06 -5.22507e-06 1.78945e-18)
(1.94422e-06 -1.53579e-06 3.0706e-18)
(0.00031741 7.78941e-05 -2.38562e-18)
(0.000304243 6.73685e-05 2.17523e-17)
(0.000318779 5.49322e-05 4.11098e-18)
(3.52255e-06 4.31578e-05 -4.95885e-19)
(2.68133e-06 4.19328e-05 2.84194e-19)
(2.95148e-06 4.31498e-05 -4.81329e-19)
(9.33697e-06 -4.03021e-05 -4.82708e-19)
(1.08565e-05 -3.60014e-05 1.91136e-19)
(9.67285e-06 -3.95537e-05 -4.5007e-18)
(0.00936376 0.000549942 1.40291e-18)
(0.0093217 0.000468148 4.69694e-18)
(0.00919205 0.000645132 2.48958e-18)
(-0.000468055 0.000507784 3.21374e-19)
(-0.000474518 0.000536178 1.25303e-18)
(-0.000440313 0.000520441 -2.02867e-20)
(-0.000184492 -0.00206591 -1.56802e-18)
(3.55133e-05 -0.00206378 7.78252e-18)
(-0.000141354 -0.00228964 2.76825e-19)
(-0.000286246 0.000770843 1.50892e-17)
(-0.000483724 0.000522828 7.35102e-18)
(-0.000116718 0.000770728 -3.05966e-17)
(-3.32733e-05 3.9313e-05 -1.43144e-19)
(-3.43119e-05 4.19764e-05 -7.44624e-19)
(-3.26366e-05 4.02638e-05 -1.71362e-18)
(-0.00181961 0.00617098 -2.4713e-18)
(-0.00127701 0.00686948 -1.07142e-19)
(-0.00366868 0.00717499 1.00627e-17)
(-0.00189101 0.00254118 1.13485e-18)
(-0.0019394 0.00224322 -3.95552e-18)
(-0.000388538 0.000732544 -2.21965e-19)
(-0.000349114 0.000709488 -7.77388e-18)
(-0.000385499 0.00068873 -8.33227e-20)
(6.45632e-05 5.4089e-05 2.00113e-18)
(6.28491e-05 5.43243e-05 3.81918e-19)
(6.19179e-05 5.61613e-05 3.01847e-19)
(-0.0089372 -0.00540796 4.63927e-17)
(-0.00653791 -0.00198254 1.67735e-17)
(-0.00937227 -0.00385118 2.10205e-17)
(1.15786e-06 -4.02464e-06 -8.93676e-20)
(1.86733e-06 -4.80768e-06 1.3786e-18)
(1.1981e-06 -3.36851e-06 4.13448e-19)
(-0.00412453 -0.0208046 7.28506e-18)
(-0.00489507 -0.0200219 6.69645e-18)
(-0.00580302 -0.0213518 2.08194e-17)
(-0.000438076 -0.000282372 1.2905e-17)
(-0.000406492 -0.000316209 -2.22295e-18)
(-0.000458588 -0.000328979 8.29141e-18)
(-0.000335737 -0.00428336 1.40115e-17)
(-0.000698914 -0.00511958 -6.23611e-18)
(2.71685e-05 -0.00423736 -1.41472e-18)
(0.00368445 -0.00720132 -3.47589e-18)
(0.00371864 -0.00702987 3.45405e-18)
(0.00442219 -0.00723871 1.37719e-17)
(0.00712836 -0.00202212 2.22004e-18)
(0.00729599 -0.00203822 4.0993e-18)
(0.00747666 -0.00176328 -4.74054e-18)
(-2.12189e-05 2.34687e-05 -6.36753e-19)
(-2.05546e-05 2.76753e-05 4.68252e-19)
(-2.00629e-05 2.5591e-05 -9.90794e-19)
(0.00356644 -0.00574004 -4.12263e-18)
(0.00273592 -0.0050632 -2.67576e-17)
(0.00261997 -0.00625594 -9.27606e-18)
(-0.000239127 9.62033e-05 -3.79224e-18)
(-0.000229983 9.24728e-05 4.19951e-18)
(-0.00280205 0.00177781 -1.22085e-18)
(-0.00292042 0.0015311 2.27053e-18)
(-0.00263239 0.00160011 -3.1366e-18)
(0.0081245 0.00646006 -2.10917e-17)
(0.00729928 0.00671492 1.9286e-20)
(0.00848471 0.00740531 -1.37869e-17)
(0.000222933 0.000142189 1.47827e-18)
(0.000233808 0.000157667 2.43269e-18)
(0.000235515 0.000134036 6.4828e-18)
(0.00635851 -0.00309978 6.36228e-19)
(0.00612846 -0.00342254 5.47679e-19)
(0.00596953 -0.0033951 -1.35498e-18)
(3.47127e-07 -2.76976e-06 3.26953e-19)
(1.20736e-06 -4.86059e-06 2.7116e-19)
(-0.00714545 -0.00535275 -1.22563e-17)
(-0.0178628 -0.00776206 -7.26151e-18)
(-0.0160028 -0.0039852 9.11073e-18)
(-1.90001e-06 -0.00653205 5.09671e-18)
(-0.000820765 -0.00669546 1.31605e-17)
(-0.000109067 -0.00733006 -1.70506e-18)
(1.70106e-05 8.52811e-05 -7.78105e-19)
(1.77343e-05 8.39899e-05 -1.39793e-18)
(1.69518e-05 8.74516e-05 1.11814e-18)
(-0.00257145 0.00255827 1.29656e-18)
(-0.00243618 0.00267097 1.32354e-17)
(-0.00256077 0.00311401 -1.79436e-18)
(0.00687673 -0.00187334 3.76744e-18)
(0.00673612 -0.00225521 -3.00535e-19)
(0.00278505 -0.000204287 -4.00593e-17)
(0.00230422 -0.000143584 -1.95574e-17)
(0.00205157 -0.00041434 5.96658e-20)
(0.00198533 -0.000643401 2.10014e-18)
(0.00174341 -0.000625475 7.59335e-18)
(0.00568974 -0.000250481 -1.78473e-20)
(0.00567671 4.73951e-05 -1.85039e-19)
(0.00645378 -0.000341261 -3.31779e-18)
(4.21932e-06 7.37075e-05 -1.00918e-19)
(4.53376e-06 7.0451e-05 5.35525e-21)
(4.83812e-06 7.04184e-05 -1.26063e-19)
(-4.19691e-05 5.24843e-06 1.29947e-18)
(-4.17559e-05 3.85083e-06 9.30098e-19)
(-0.00114673 -0.00142546 2.73015e-19)
(-0.00114251 -0.00150253 4.28236e-18)
(-0.00107277 -0.0014309 -1.81247e-18)
(2.68035e-05 6.9829e-05 -1.0775e-18)
(2.28016e-05 7.11412e-05 -2.77687e-18)
(2.46165e-05 7.03878e-05 1.18243e-18)
(1.01819e-05 -4.48449e-05 -3.12652e-18)
(1.11723e-05 -3.95733e-05 6.15307e-18)
(-0.00743005 0.000439655 5.53877e-19)
(-0.00736575 0.000529141 3.12701e-18)
(-0.00771658 0.000392255 2.43257e-18)
(8.04635e-06 -3.01678e-05 -1.333e-18)
(8.65296e-06 -3.6054e-05 -3.72561e-18)
(9.46007e-06 -2.77502e-05 -3.86352e-18)
(-0.000374672 -0.00202413 1.54539e-18)
(-0.000206854 -0.00188069 -1.59453e-18)
(-0.000409188 0.000114256 -4.83939e-18)
(-0.000419185 0.000116443 9.51833e-19)
(-0.000415949 0.000104805 3.11786e-18)
(0.00952483 0.000270847 -2.22783e-18)
(0.00936445 0.000244489 -5.33685e-18)
(0.00956805 0.000282222 -6.29267e-18)
(1.79582e-05 8.63514e-05 -1.60926e-18)
(1.73323e-05 8.28471e-05 1.63087e-18)
(-0.00302302 0.00197832 6.08891e-18)
(-0.00264586 0.00199154 -6.55343e-18)
(-0.0028042 0.00216054 -6.25756e-18)
(-0.00299471 0.00239443 -5.51364e-18)
(-0.000377918 7.39722e-05 -8.4184e-20)
(-0.000570679 0.000595978 1.40534e-18)
(0.000109521 0.000546068 -2.62681e-18)
(0.0011825 0.00124922 -5.64109e-19)
(0.00179309 0.00155844 8.20347e-18)
(0.000840639 0.00190354 3.16982e-18)
(4.14841e-06 4.34901e-05 -9.11134e-19)
(4.16522e-06 4.26121e-05 3.30946e-20)
(-0.000171154 -0.00376047 3.61126e-18)
(-0.00061566 -0.00428044 1.2213e-17)
(2.07961e-06 6.59243e-05 -2.22224e-18)
(2.47739e-06 6.54405e-05 -1.01313e-19)
(1.77602e-06 6.52787e-05 -6.6484e-18)
(3.06291e-05 6.8061e-05 4.47476e-19)
(3.06259e-05 7.20546e-05 4.53747e-19)
(0.00028816 -0.000401741 1.30587e-18)
(0.000359209 -0.000401338 -3.1161e-20)
(0.000322678 -0.000344175 -6.23946e-18)
(0.00022241 -0.000384871 1.97036e-18)
(0.000242022 -0.000467587 8.88989e-19)
(0.00088044 0.00113514 8.80747e-18)
(0.0015574 0.000883232 1.76783e-18)
(8.23954e-05 -0.000116158 -1.45874e-17)
(8.64327e-05 -0.00012262 -1.42126e-18)
(6.91381e-06 9.60985e-05 3.25877e-20)
(8.10838e-06 9.77035e-05 3.92512e-20)
(6.43878e-06 9.61876e-05 1.1306e-20)
(0.00153263 0.00631202 3.92855e-18)
(0.00168742 0.00535674 2.84592e-17)
(0.00274627 0.00540983 6.8485e-18)
(-0.00216899 -0.00139198 -7.37926e-18)
(-0.00177629 -0.000918833 -4.92854e-17)
(-0.00245645 -0.000914344 6.54239e-18)
(-0.000423313 0.000897524 7.79422e-18)
(-0.000379547 0.000914665 3.64205e-18)
(-0.000421751 0.00095711 9.62119e-18)
(1.4923e-05 -2.06101e-05 -3.73883e-18)
(1.4253e-05 -2.49528e-05 -1.72489e-18)
(1.67727e-05 -1.69914e-05 -3.44632e-18)
(0.00215884 0.00157535 1.26965e-18)
(0.00247095 0.00119327 -1.14885e-18)
(-0.000455543 0.000189854 -3.19167e-18)
(-0.000442611 0.000200588 4.45757e-19)
(-0.000458171 0.000207417 2.19611e-18)
(4.23041e-05 7.21509e-05 5.32635e-19)
(4.05091e-05 7.59783e-05 7.11837e-20)
(4.08246e-05 7.57398e-05 6.33781e-20)
(-0.000570124 0.000783052 2.43217e-17)
(-0.000379247 0.00106422 -2.09726e-18)
(-2.35672e-05 1.40369e-05 5.49678e-20)
(-2.27539e-05 1.26649e-05 -1.06556e-18)
(-2.38001e-05 1.54959e-05 2.67291e-18)
(-0.00547772 -0.022984 -1.66276e-17)
(-0.00474859 -0.0222741 1.70977e-17)
(9.51411e-06 -2.67982e-05 -1.20403e-18)
(8.68073e-06 -2.99186e-05 -1.01455e-18)
(9.18583e-06 -3.12426e-05 -1.79588e-18)
(7.93556e-06 9.2959e-05 -7.28481e-20)
(7.29169e-06 9.33764e-05 8.27643e-20)
(-0.0034672 0.00423125 -3.86297e-18)
(-0.00465741 0.0034812 -6.94819e-18)
(-0.00452668 0.005455 3.22931e-18)
(0.000211034 0.000143818 1.26873e-17)
(0.000210673 0.00012318 -1.45923e-18)
(0.00883515 0.000623198 -3.7832e-19)
(0.00905503 0.000755203 7.12103e-18)
(0.00874165 0.000871415 5.37338e-18)
(0.00259981 0.0016051 -2.8979e-18)
(0.00193225 0.00197904 8.57828e-18)
(0.000856422 -0.00417931 3.46423e-17)
(-0.000247433 -0.00390418 -2.21506e-17)
(0.000410966 -0.00493519 1.9736e-17)
(6.73401e-05 5.32541e-05 -2.11244e-18)
(6.5856e-05 5.58291e-05 -8.70697e-19)
(0.00723878 -0.000215671 -4.62413e-18)
(0.00732331 4.92026e-05 2.66496e-18)
(0.00750717 -0.000239172 -3.75931e-19)
(3.78916e-06 -3.40859e-05 -1.22389e-18)
(4.41883e-06 -3.3343e-05 4.85135e-18)
(3.16197e-06 -2.6026e-05 1.64269e-18)
(0.00419209 -0.00602201 5.21135e-18)
(0.00420481 -0.00496171 -2.43579e-17)
(6.65646e-06 -2.60717e-05 3.28312e-18)
(5.56338e-06 -3.05044e-05 1.4363e-19)
(-0.000240799 0.00010694 2.15268e-19)
(-0.000246507 0.00010211 -1.87955e-18)
(-0.00492761 -6.82713e-05 -2.21959e-17)
(-0.0052906 -1.34616e-05 -8.0802e-18)
(0.00173408 -0.00414541 -9.32289e-18)
(0.00114568 -0.00325443 1.47798e-19)
(-0.00669094 -4.94109e-05 -8.36531e-18)
(-0.00664463 -0.000507938 2.98409e-17)
(-0.0066916 0.000111306 1.26003e-17)
(0.00182603 -5.88516e-05 1.48609e-17)
(0.00152651 0.000199411 6.04662e-18)
(0.0014403 -2.39167e-05 4.10844e-18)
(9.41507e-06 4.60724e-05 4.46527e-20)
(1.13792e-05 4.08697e-05 1.83422e-18)
(1.24903e-05 4.99529e-05 -9.05802e-19)
(-0.000959381 -0.00175399 -1.86791e-19)
(-0.000822123 -0.00185727 1.95417e-18)
(-0.000829069 -0.00169431 2.69324e-18)
(-0.00503576 0.000542339 -1.69341e-17)
(-0.00495975 0.000506009 -1.56525e-17)
(-0.00506827 0.000445224 -1.40211e-17)
(0.000132067 -0.00163165 -2.17308e-17)
(0.000264996 -0.00202999 -1.06474e-17)
(-0.000148574 -0.00187631 9.53566e-18)
(-0.00106135 -0.00169883 -1.01749e-17)
(-0.00105723 -0.00182999 6.00567e-19)
(0.000135971 -8.3308e-05 -6.56814e-18)
(0.000145921 -8.1468e-05 1.2814e-17)
(0.000138899 -8.85712e-05 -4.76623e-18)
(0.00013275 -8.52891e-05 7.19427e-18)
(0.000129948 -7.83878e-05 6.85039e-18)
(0.000129389 -8.81671e-05 -7.53465e-18)
(1.3509e-05 -1.05679e-05 -2.98219e-19)
(1.68002e-05 -9.15945e-06 3.66764e-18)
(1.58202e-05 -4.65791e-06 2.55925e-18)
(-4.95065e-06 7.83906e-05 -1.57495e-19)
(-3.95199e-06 7.64673e-05 1.71593e-19)
(-3.29362e-06 7.84458e-05 2.60659e-19)
(-9.35674e-05 0.000851383 -3.29583e-18)
(-4.62692e-05 0.000855162 8.28828e-18)
(-7.70329e-05 0.000899835 1.21113e-17)
(-2.6531e-06 7.64306e-05 4.1875e-20)
(-3.45537e-06 7.90279e-05 -3.99273e-20)
(-0.00176267 -0.00201377 3.9675e-18)
(-0.00248092 -0.00203394 -8.78858e-18)
(-0.000234695 0.000112811 6.55038e-18)
(-0.000243002 0.000118375 5.4285e-18)
(-3.12141e-05 3.76303e-05 -9.78461e-20)
(-3.25462e-05 3.75506e-05 -1.27496e-18)
(7.9061e-05 4.25195e-05 1.82661e-19)
(8.15003e-05 4.18914e-05 7.33237e-19)
(8.08348e-05 4.17754e-05 -1.60235e-19)
(7.6502e-07 7.77768e-05 -1.29448e-19)
(3.50638e-06 8.03889e-05 -1.52797e-19)
(0.00324463 -0.000428647 -9.29173e-18)
(0.00350797 -1.95188e-05 -1.85316e-17)
(0.0037687 -0.000649735 -1.98189e-17)
(0.000579766 0.000374894 -1.21575e-17)
(0.000543888 0.000410242 1.27395e-18)
(0.000528637 0.000357355 -1.10186e-17)
(-0.00297258 7.80304e-05 -1.37551e-18)
(-0.00287802 -0.000118713 -1.883e-18)
(-0.00315982 -8.33443e-05 -9.54335e-18)
(-0.000396809 0.000111797 1.08455e-19)
(-0.00040174 0.000127172 -4.8005e-18)
(-1.10067e-05 3.29664e-05 2.51732e-19)
(-9.35251e-06 3.49331e-05 2.58063e-20)
(-1.07718e-05 3.35517e-05 -2.46779e-19)
(-1.43573e-05 2.07147e-06 6.94134e-20)
(-1.39191e-05 2.93794e-06 -9.57926e-19)
(-0.00401398 0.00184598 1.31024e-17)
(-0.00494252 0.0017999 3.21937e-17)
(0.000147147 0.00755719 -7.14337e-17)
(0.00152654 0.00782768 1.51954e-17)
(0.000732999 0.0011226 -1.76258e-18)
(0.000881906 0.000943964 -2.41819e-18)
(0.000964853 0.00117582 -2.50292e-18)
(-2.91761e-05 2.58084e-05 -7.01343e-20)
(-2.76736e-05 2.45877e-05 1.14547e-18)
(-2.90776e-05 2.41528e-05 2.77432e-19)
(9.40824e-06 0.000103145 -2.06926e-19)
(1.08399e-05 0.00010429 5.42245e-19)
(1.23232e-05 0.000101969 8.17734e-19)
(0.00344743 0.00324051 3.11134e-19)
(0.00330057 0.00365135 -2.73033e-18)
(0.00286318 0.00333039 3.42629e-18)
(-0.000972722 0.00177236 -8.97365e-19)
(-0.00128354 0.00186173 -1.43398e-17)
(-0.00105038 0.00142454 -1.07195e-17)
(0.000106204 -0.000188175 1.2305e-17)
(9.47552e-05 -0.000202432 -1.3059e-17)
(0.000101112 -0.00017478 -3.3647e-17)
(8.79257e-06 4.87521e-05 -8.71788e-19)
(1.17958e-05 4.28304e-05 -5.9233e-20)
(0.000121445 -9.77249e-05 -6.9852e-18)
(0.000141986 -8.10715e-05 9.83287e-18)
(0.000114863 -7.75374e-05 1.60238e-18)
(0.00272383 0.00635165 -1.8559e-18)
(0.00223099 0.00574549 -1.13612e-18)
(0.00202333 0.00630159 -5.39223e-18)
(-0.000611191 0.000689397 -1.03089e-18)
(-0.000638895 0.00072299 -2.39472e-17)
(-0.000580582 0.000720826 -1.48826e-17)
(6.1336e-05 5.56107e-05 3.46069e-20)
(6.42757e-05 5.33823e-05 -2.07124e-18)
(0.000113758 0.00018017 -9.24267e-19)
(0.000111535 0.000195417 -9.77748e-18)
(0.00010402 0.000182271 -5.33633e-18)
(0.00591749 -0.00799156 3.34048e-18)
(0.00613661 -0.00334658 -2.44465e-17)
(0.00892864 0.00610918 -3.58152e-18)
(0.00795351 0.00567131 6.51252e-18)
(0.000319402 7.24956e-05 -9.8624e-18)
(0.00032464 8.40515e-05 -4.86674e-18)
(-0.00594598 -0.00225553 1.43146e-17)
(-0.00621444 -0.00172568 2.01196e-17)
(-0.00589719 -0.00216006 -1.58575e-18)
(8.86474e-05 -0.000104644 -7.27249e-18)
(-0.00092553 -0.00356371 2.34115e-17)
(-0.000370461 -0.00302573 -2.12042e-17)
(8.94221e-05 -0.000105335 -4.29388e-18)
(0.000107782 -9.61684e-05 -1.58492e-17)
(0.000109134 -0.000114816 8.50272e-18)
(-0.000659377 0.000614399 8.8025e-18)
(-0.000646713 0.000576983 -5.12337e-18)
(-0.000690815 0.000575823 6.4146e-18)
(-0.00235415 0.00494233 -4.10901e-17)
(-0.00266726 0.00338716 1.03619e-17)
(2.48188e-05 7.36049e-05 -3.55044e-18)
(2.31005e-05 6.92644e-05 -2.39447e-18)
(2.39429e-05 7.17966e-05 3.43165e-18)
(3.26138e-06 -3.48761e-05 2.47633e-19)
(3.90744e-06 -4.17914e-05 -6.96539e-18)
(0.000153508 -0.000175606 -1.1814e-17)
(0.000148562 -0.000178928 -1.93614e-17)
(0.000159522 -0.000174878 5.75086e-18)
(-0.00537056 -0.00597958 1.42805e-17)
(-0.0128569 -0.00750716 1.80257e-17)
(-0.0127595 -0.00402804 -1.2256e-17)
(3.80135e-05 8.63356e-05 -1.32261e-19)
(3.9896e-05 8.55193e-05 2.53053e-19)
(3.96454e-05 8.64089e-05 9.66358e-19)
(-2.51865e-05 1.54666e-05 5.2083e-19)
(-2.27317e-05 1.18372e-05 7.44865e-19)
(0.0025742 -0.00397389 1.91623e-17)
(0.00840827 0.000163209 6.25906e-18)
(0.00828089 0.00022077 8.67996e-18)
(0.00864947 0.000134472 -9.41191e-18)
(0.000105277 -0.000116704 -6.12653e-18)
(0.000138502 -0.000117563 2.93813e-18)
(-0.00108368 -0.00160763 -3.98432e-18)
(-0.0011459 -0.0016558 -1.02275e-18)
(0.00296394 -0.000859299 -3.28257e-18)
(0.00281565 -0.000322761 1.13314e-17)
(0.000609364 0.000330228 -6.39858e-19)
(0.000632189 0.000394504 3.99336e-18)
(-0.00171254 0.00402946 -2.19909e-18)
(-0.001454 0.00463706 1.82685e-18)
(-0.00114839 0.00410784 -7.27491e-19)
(1.55054e-05 -1.33631e-06 3.05289e-19)
(1.49063e-05 2.0126e-06 2.06328e-18)
(1.50425e-05 1.14453e-05 3.55765e-18)
(5.68163e-06 -6.49012e-05 -1.21152e-19)
(1.78645e-06 -6.39058e-05 1.92065e-18)
(4.70693e-06 -6.16437e-05 9.63382e-19)
(5.12857e-06 3.60814e-05 9.79573e-19)
(5.24629e-06 3.71658e-05 2.23436e-19)
(6.36296e-06 3.30553e-05 2.33007e-18)
(0.000588579 -0.00606677 -1.47501e-17)
(-0.000240043 -0.00574297 3.32849e-18)
(-0.000584066 0.000584871 4.89953e-18)
(-0.000610615 0.000575085 -3.69472e-18)
(-0.000578666 0.000556012 5.34752e-19)
(-0.000194243 0.000187648 5.11152e-19)
(-0.000201341 0.000187186 -1.92767e-18)
(-0.000197222 0.000196014 8.7928e-19)
(2.32833e-06 -8.25546e-06 7.93982e-20)
(2.46095e-06 -7.29303e-06 -3.98859e-19)
(3.3938e-06 -8.42642e-06 4.48388e-19)
(0.00689757 -0.00257387 -1.1617e-18)
(0.00714183 -0.00230267 -4.89741e-19)
(0.00677407 -0.00269929 -5.4521e-18)
(-0.000136748 0.000861182 2.37411e-18)
(-0.000115568 0.000815394 -3.70367e-18)
(-0.00116904 -0.0013353 -8.49125e-19)
(-0.00122637 -0.00140148 -1.62549e-18)
(0.00933734 0.000594208 -8.36101e-19)
(0.00949916 0.00052056 -5.31678e-18)
(0.005014 7.97593e-06 1.08353e-18)
(0.00563573 4.72832e-05 4.65035e-18)
(0.00490793 7.313e-05 9.6176e-18)
(0.00530253 -7.42475e-05 -4.71965e-18)
(0.00443974 -0.000160278 2.23883e-18)
(-0.00744439 0.000337124 6.35917e-18)
(-0.00728381 0.000403884 -1.06556e-17)
(7.87552e-05 4.27212e-05 2.96327e-19)
(7.77434e-05 4.44155e-05 2.03008e-19)
(0.0102152 -0.000467397 4.46352e-18)
(0.00940881 0.0012653 -8.97426e-18)
(0.0110088 -0.000265943 -4.89554e-18)
(5.33244e-06 4.27383e-05 1.01263e-18)
(5.81603e-06 4.04106e-05 8.32164e-19)
(5.72242e-06 4.00667e-05 -1.49402e-18)
(-1.18997e-05 3.02023e-05 2.60972e-19)
(-9.79892e-06 3.18811e-05 2.38785e-19)
(0.000165823 0.0010506 -1.93849e-19)
(0.000218088 0.00101357 1.59466e-19)
(0.000162142 0.00098202 1.20887e-17)
(6.81385e-06 3.55456e-07 -2.77922e-19)
(6.78715e-06 5.78601e-07 -4.65573e-19)
(7.35696e-06 1.41527e-08 2.4969e-19)
(-0.00674855 0.000471738 -2.57541e-17)
(-0.00661696 -0.000172381 -1.10743e-17)
(-0.010936 -0.00158109 4.40845e-18)
(-0.00908632 -0.00140223 -1.52093e-17)
(-0.0100894 -0.00271329 -8.28607e-18)
(-0.001403 -0.00151047 -6.13398e-19)
(-0.00147176 -0.00156192 2.81222e-19)
(-0.00127603 -0.00160084 5.46896e-18)
(-1.33622e-05 2.77424e-05 -2.90973e-19)
(-1.32326e-05 2.87333e-05 4.36127e-19)
(-0.000450143 0.000158715 1.51859e-18)
(-0.000453422 0.000174805 -7.41103e-19)
(-0.000439712 0.000167338 -6.59067e-18)
(-0.00133342 -0.0014947 -3.12886e-18)
(-0.00139277 -0.00144165 -3.2879e-18)
(-0.000591655 0.00171885 3.61153e-17)
(-0.000693981 0.0020719 3.80397e-17)
(0.00231171 -3.26995e-06 5.76744e-18)
(7.79499e-05 4.31164e-05 -7.18143e-19)
(7.58549e-05 4.53552e-05 -1.32021e-19)
(7.78346e-05 4.46645e-05 -1.07417e-18)
(-0.00063703 0.000648019 1.92817e-18)
(-0.000588391 0.000653983 3.65795e-18)
(-0.0007173 0.000473668 3.27961e-17)
(-0.000835416 0.000477339 6.95984e-18)
(0.00818989 0.000172552 -4.71387e-18)
(0.00856229 0.000123409 -7.14778e-19)
(-0.00293417 0.00130732 -1.03446e-18)
(-0.00320875 0.0014426 -3.78207e-18)
(1.07256e-05 -8.44651e-06 1.40249e-17)
(-1.56456e-06 -7.61581e-06 3.2887e-17)
(8.79708e-06 -2.68752e-05 2.72761e-17)
(9.48435e-06 4.6022e-06 -1.80811e-18)
(2.08207e-05 -1.62408e-06 -5.58465e-18)
(1.27557e-05 -1.73626e-05 -1.6532e-18)
(-1.28224e-05 5.80346e-05 -3.4768e-20)
(-1.16372e-05 5.98145e-05 -3.46126e-19)
(-1.31828e-05 5.60391e-05 -9.91819e-19)
(0.00403635 -0.00731321 -1.04817e-18)
(0.0047159 -0.00360546 -8.5577e-18)
(-0.00056636 0.000619917 -4.15338e-18)
(-0.000540299 0.000587677 -6.67682e-18)
(0.00924108 0.000541843 -2.97999e-18)
(0.0092483 0.000410529 5.32327e-18)
(-2.46161e-05 0.000247076 2.43126e-18)
(-1.81085e-05 0.000254371 3.61708e-18)
(3.66235e-05 8.88389e-05 -3.93476e-19)
(3.70339e-05 8.53246e-05 8.40677e-19)
(-0.000675322 -0.00191932 -7.59633e-19)
(-0.000566031 -0.00199067 2.1718e-18)
(-0.000566176 -0.0018726 -1.07397e-17)
(-0.002956 0.00113363 -7.08064e-18)
(-0.00273312 0.00122491 5.17894e-18)
(-8.16078e-05 0.00012667 3.6271e-18)
(-8.30863e-05 0.000129854 -4.69591e-18)
(-7.80232e-05 0.000123232 9.0325e-19)
(-2.55601e-05 5.78395e-05 1.99476e-18)
(-2.34689e-05 5.44487e-05 2.09109e-18)
(-2.67306e-05 5.53471e-05 1.02985e-19)
(8.868e-05 -0.000124908 3.52167e-18)
(0.000109975 -0.000129515 5.85046e-18)
(0.000102274 -0.000136106 8.60333e-18)
(-0.00115035 0.00541866 -4.0087e-18)
(0.000111559 0.00548195 6.45273e-17)
(-0.000644651 0.00423338 3.87551e-17)
(-0.00340624 0.00194829 -1.55538e-17)
(-0.00328558 0.00228742 -1.49887e-17)
(-0.00280024 0.00213522 -5.58464e-19)
(-0.00291855 0.00111543 -1.88245e-18)
(-0.00291407 0.000906819 8.70525e-19)
(-0.00225199 0.000896977 1.20224e-17)
(-0.000454327 0.000466805 -7.42779e-18)
(-0.000497317 0.000476728 -4.91446e-19)
(0.000824433 -0.00264622 7.68315e-18)
(-0.000623746 0.00352509 1.12944e-17)
(-0.00494713 0.000761728 9.10027e-18)
(-0.00393078 0.00182765 4.41106e-20)
(-0.00351501 0.00172046 -4.12631e-18)
(9.02442e-06 7.00948e-05 -5.73207e-18)
(9.1673e-06 6.6896e-05 1.12811e-17)
(6.65702e-06 6.9304e-05 4.02929e-18)
(-0.000736587 0.000356039 -2.76961e-18)
(-0.000730251 0.000393463 4.00804e-18)
(-0.000706935 0.000358162 9.12549e-18)
(0.00737627 -7.34414e-05 -4.17472e-18)
(0.00723817 -0.000212771 6.80986e-18)
(0.00762409 -4.4972e-05 2.62948e-18)
(1.11866e-05 0.000178757 6.02326e-18)
(1.87574e-05 0.000181318 3.45529e-18)
(1.62772e-05 0.000169761 -4.60333e-18)
(0.000254114 -0.00206899 -1.19476e-18)
(0.000509589 -0.0020614 -1.50138e-18)
(0.000327978 -0.0023344 -6.8472e-18)
(1.20717e-05 0.000101465 -1.27385e-18)
(9.49827e-06 0.000100031 -1.43213e-19)
(-0.00153095 0.00663769 -2.96733e-17)
(3.70231e-06 -3.55832e-05 5.80334e-19)
(4.75645e-06 -3.57553e-05 -7.45854e-19)
(4.58333e-06 -3.70566e-05 1.31798e-18)
(0.000236166 0.000183408 -1.05889e-18)
(0.000254893 0.000196342 2.77183e-18)
(0.000249901 0.000164829 -1.44107e-17)
(4.81981e-05 6.62739e-05 -2.07722e-19)
(4.8783e-05 6.46316e-05 -1.78521e-19)
(5.10597e-05 6.41161e-05 2.48497e-19)
(6.2485e-06 -4.89908e-05 -2.28719e-18)
(1.26622e-05 -4.63547e-05 1.72367e-18)
(-0.00120555 0.00442557 4.16944e-18)
(-0.00130603 0.00488005 2.82314e-18)
(-0.000823345 0.00470743 -8.65156e-19)
(-5.0145e-05 8.70515e-05 -5.21985e-19)
(-4.94991e-05 8.36601e-05 5.01772e-19)
(-5.33038e-05 9.18713e-05 -4.06516e-19)
(0.000181048 -0.000410654 3.1068e-17)
(0.00013422 -0.000485323 -2.18659e-18)
(-1.23656e-05 2.68883e-05 -5.83064e-19)
(-1.40474e-05 2.4553e-05 6.30899e-19)
(-0.00168003 0.00260259 -2.27507e-18)
(-0.00147004 0.00262935 1.55921e-18)
(-0.00155987 0.00241636 3.92851e-18)
(0.00855178 0.000728249 -1.0417e-17)
(0.00872294 0.0003876 5.75303e-18)
(-0.00655541 -0.00097622 -6.40764e-19)
(-0.00632282 -0.00132521 -1.34151e-17)
(-0.00648429 -0.0013001 -4.11214e-17)
(2.54829e-05 -2.21706e-06 -9.70818e-18)
(3.01783e-05 1.43902e-05 -1.25391e-17)
(4.15601e-05 -2.02389e-06 -2.58591e-18)
(-0.000736165 0.000323058 1.18245e-18)
(-0.000764631 0.000350839 -7.35521e-18)
(1.9025e-06 -2.86205e-05 -1.07411e-18)
(1.03046e-06 -2.31041e-05 1.52035e-18)
(1.16711e-06 -2.38608e-05 -6.08826e-19)
(0.000158173 -0.000171349 4.5987e-18)
(0.000149468 -0.000168355 1.29359e-17)
(1.7468e-07 -8.63557e-06 1.78633e-18)
(1.51927e-07 -1.16249e-06 1.16943e-18)
(9.67554e-07 -9.06737e-06 1.43841e-18)
(0.000223928 0.000180188 1.76354e-17)
(-0.00503558 0.00209604 1.13792e-17)
(-0.00633391 0.0024553 -7.42937e-18)
(-0.00614272 0.000197963 -4.85773e-18)
(2.45636e-05 -1.20075e-05 -5.10323e-18)
(1.64247e-05 3.11118e-06 -1.08078e-17)
(3.54409e-06 0.00017761 -8.6877e-18)
(5.80932e-06 0.000190686 1.85972e-18)
(6.26718e-07 5.3076e-05 -1.95668e-18)
(8.66217e-07 6.01099e-05 8.43579e-19)
(-0.0034049 0.00126725 -1.40136e-17)
(-0.00291444 0.00135989 5.75211e-18)
(-2.21532e-05 2.15702e-05 -1.33159e-19)
(-2.15825e-05 2.00899e-05 7.63417e-19)
(-0.00629839 -0.000253285 -8.00496e-18)
(-0.00926605 -0.00482073 3.66669e-18)
(-0.00288622 0.000729724 7.69768e-18)
(-0.00284186 0.000576295 -2.19225e-18)
(-0.00212087 0.00047384 7.22483e-18)
(5.74573e-05 -0.00134404 3.28193e-18)
(0.000370762 -0.00139142 -1.23327e-17)
(2.36611e-06 -9.25373e-06 -4.1971e-19)
(1.36372e-06 -7.36292e-06 2.49917e-19)
(-0.00617634 0.00582581 -1.19161e-18)
(-0.00792826 0.00525489 -3.77471e-18)
(-0.00639644 0.00721339 3.00367e-17)
(0.00306299 0.0016378 -2.52531e-18)
(0.00340966 0.0016903 -1.05406e-17)
(0.00281519 0.00204981 9.07917e-18)
(0.00478684 -0.000186555 -1.11304e-18)
(0.00578941 -0.000608346 3.46832e-18)
(0.00020182 -0.00187928 5.91924e-18)
(-0.000155392 0.000525087 -2.16608e-18)
(-0.00013072 0.000515847 -8.67524e-18)
(-0.00015199 0.000502803 -2.21606e-18)
(0.000142316 -0.000212739 -1.12708e-17)
(0.000153733 -0.0001909 8.44527e-19)
(0.000124638 -0.000189295 3.89226e-18)
(-0.00161141 0.00413539 -2.15107e-18)
(-0.00120127 0.00405841 7.5812e-18)
(-0.000459052 0.000149953 1.21641e-20)
(-0.000446365 0.00014175 -1.88121e-18)
(0.00155739 0.000469415 -5.1419e-18)
(0.00131776 0.00029781 -1.7999e-18)
(8.24568e-05 3.98756e-05 1.39451e-19)
(8.38112e-05 4.01848e-05 9.56293e-20)
(8.22022e-05 3.89348e-05 -2.48139e-18)
(0.00910719 0.000217736 9.69197e-18)
(0.00913913 0.000271057 -8.11356e-18)
(0.0090416 0.000283693 3.02965e-18)
(-0.00030792 0.00246583 1.44793e-18)
(-0.000380791 0.00243172 -3.94905e-18)
(-0.000294965 0.00239761 -2.83747e-18)
(-2.12421e-06 3.03043e-06 -1.92432e-19)
(-2.26588e-06 4.87666e-06 2.16885e-19)
(1.88406e-07 4.40778e-06 -3.36493e-19)
(-0.000147613 0.000323451 -1.32507e-18)
(-0.000145973 0.000312401 3.64767e-18)
(-0.000133783 0.000310766 -8.38098e-19)
(-0.000842992 -0.00203139 -3.34928e-18)
(0.00670393 -0.0027482 1.44591e-18)
(0.00691764 -0.00237765 4.1955e-18)
(0.00245852 -0.000693399 -2.74481e-18)
(0.00250616 -0.0010323 -4.50101e-18)
(0.00204964 -0.000802923 2.68495e-18)
(-1.13212e-05 5.97491e-05 8.02945e-20)
(-1.23814e-05 5.54698e-05 7.55463e-20)
(9.13173e-05 -0.000192485 3.38512e-18)
(4.01769e-06 -3.28896e-05 7.48915e-19)
(3.74671e-06 -3.26513e-05 -1.39564e-18)
(3.56803e-06 -2.54906e-05 -1.78963e-18)
(-0.00503192 0.00185219 -2.54714e-18)
(-0.00482763 0.00233777 3.19624e-18)
(-0.00450945 0.00189496 -3.44619e-18)
(-0.00151936 0.00221048 -1.95364e-18)
(-0.00174641 0.00262362 -3.46639e-17)
(-0.00126007 0.00250868 -1.44569e-17)
(-0.000145806 0.000329745 6.516e-19)
(-0.000156729 0.00033095 3.13053e-18)
(-0.0001864 0.000861407 -1.09751e-18)
(-0.000173276 0.000911975 -3.71642e-20)
(-0.000254903 0.002549 3.22575e-17)
(-0.000362396 0.00253255 9.93469e-18)
(1.40375e-05 -2.26601e-05 -1.58974e-18)
(1.30215e-05 -1.8233e-05 2.64324e-19)
(1.40485e-05 -2.54518e-05 -1.61694e-18)
(0.000136851 -8.31938e-05 -1.89715e-17)
(0.000136519 -8.45715e-05 -1.61167e-17)
(-0.00126266 -0.00107826 -2.47433e-18)
(-0.00121825 -0.00117615 -4.27882e-19)
(-0.00117306 -0.00107814 -4.4381e-18)
(0.00514188 0.000721232 1.36238e-18)
(0.00451715 -0.00143203 5.0356e-18)
(0.00468503 0.000460794 1.35501e-17)
(1.65631e-06 5.64969e-05 4.64211e-18)
(2.4329e-06 5.78388e-05 2.12732e-18)
(2.42011e-06 5.93481e-05 2.29472e-19)
(5.7295e-06 -5.54889e-05 2.27334e-18)
(7.1453e-06 -4.93278e-05 5.7977e-18)
(3.655e-05 -8.18516e-06 6.34248e-18)
(0.00785853 -0.00071406 5.02433e-19)
(0.00750945 -0.000851078 -9.5717e-19)
(0.00805024 -0.00109455 1.42761e-18)
(-0.00249731 0.00202656 5.88238e-18)
(-0.0028386 0.00128249 -1.53309e-17)
(-0.00168821 0.00223058 2.22497e-17)
(-0.000489261 0.000790026 1.36139e-18)
(-0.000457188 0.000762485 -5.14267e-18)
(-0.000452659 0.000808507 6.45748e-18)
(-3.01624e-05 2.73509e-05 -1.65678e-18)
(-2.85651e-05 2.71309e-05 -9.97371e-19)
(-0.000299247 0.00173341 4.9502e-18)
(-0.000367664 0.00142957 1.61197e-17)
(-0.00183954 0.00353418 2.1476e-17)
(-0.00183029 0.00299469 -1.00104e-17)
(-0.00140625 0.00324183 1.94564e-17)
(-0.00270238 0.000625127 -2.93184e-19)
(-0.00264564 0.00039655 1.16563e-17)
(-0.00249188 0.000559929 1.75653e-18)
(-0.00022834 0.000866991 -6.93347e-18)
(-0.000202419 0.000826524 -5.85971e-18)
(0.00823679 -0.000459956 -4.13578e-18)
(0.0078421 -0.000311463 1.96269e-18)
(-0.00450366 0.000566415 -1.35547e-17)
(-0.00440998 0.000587861 6.60657e-18)
(-0.00448477 0.000476014 -4.47536e-17)
(-0.000101396 0.000323986 -2.25676e-18)
(-8.52513e-05 0.000321442 -5.69584e-19)
(-9.59105e-05 0.000338684 1.17974e-18)
(-0.000402801 0.000447297 4.25791e-18)
(-0.000416555 0.000456595 4.02596e-18)
(-0.000416693 0.000442244 1.01963e-17)
(-0.0227432 -0.0159162 -8.71489e-19)
(-0.0231738 -0.0172 2.42761e-17)
(-0.0204392 -0.0159585 3.29356e-17)
(-9.49028e-06 7.00947e-05 2.43943e-19)
(-8.6476e-06 7.01694e-05 -2.91116e-19)
(-7.72647e-06 7.32049e-05 -5.48857e-19)
(5.2603e-06 3.50019e-05 1.79183e-18)
(5.16311e-06 3.39634e-05 -8.7735e-19)
(6.21947e-06 3.13472e-05 2.72386e-18)
(-0.00272339 0.000802058 -1.21103e-17)
(-0.0029118 0.000658101 -2.75745e-17)
(0.000266454 1.06513e-06 -1.84232e-17)
(0.000266712 1.96725e-05 -4.88755e-18)
(0.000250229 8.23343e-06 -3.04419e-18)
(-2.37548e-05 1.99914e-05 6.52261e-19)
(-2.51847e-05 1.81587e-05 5.57661e-20)
(-2.4106e-05 1.67257e-05 2.58153e-19)
(5.24967e-06 -3.26528e-05 -2.24081e-19)
(4.90069e-06 -3.48756e-05 8.53084e-20)
(3.47288e-06 -3.35241e-05 2.26281e-18)
(6.17218e-07 -1.27131e-05 1.64565e-18)
(9.74951e-07 -6.89038e-06 -3.75508e-18)
(-2.42021e-06 1.58451e-07 -5.95331e-20)
(-2.06213e-06 -5.57435e-07 2.841e-19)
(-1.20795e-07 5.36488e-08 -3.40803e-19)
(-0.000242239 0.000501425 -4.00211e-18)
(-0.000239411 0.0005241 4.11472e-18)
(-0.000266101 0.000518791 3.04379e-18)
(4.22994e-06 3.67539e-05 -9.73023e-19)
(0.00716681 -7.85763e-05 -5.26481e-18)
(0.00669425 -0.000218055 4.16345e-18)
(-0.000391476 0.000765973 5.40873e-18)
(-0.000425735 0.000744205 -4.49319e-18)
(9.24333e-06 8.63146e-05 -2.73261e-19)