/*--------------------------------*- C++ -*----------------------------------*\
| =========                 |                                                 |
| \\      /  F ield         | OpenFOAM: The Open Source CFD Toolbox           |
|  \\    /   O peration     | Version:  v2012                                 |
|   \\  /    A nd           | Website:  www.openfoam.com                      |
|    \\/     M anipulation  |                                                 |
\*---------------------------------------------------------------------------*/
FoamFile
{
    version     2.0;
    format      ascii;
    class       surfaceScalarField;
    location    "450";
    object      meshPhiCN_0;
}
// * * * * * * * * * * * * * * * * * * * * * * * * * * * * * * * * * * * * * //

dimensions      [0 3 -1 0 0 0 0];
oriented        oriented;


internalField   nonuniform List<scalar> 
20580
(
0.000387019
-0.000432888
4.58287e-05
0.000957743
-0.000423895
-0.00053532
3.5266e-05
0.000920294
-0.000213286
0.000279634
-6.6348e-05
-7.52523e-05
-5.6314e-05
8.47946e-05
-5.562e-05
-0.000804151
0.000858336
0.000602006
-0.000942152
-0.000148237
-8.75422e-05
0.000154325
0.00010704
0.000131468
-0.000238508
0.000246857
-0.00137043
0.00112013
-0.000368974
0.000631345
-0.000262524
0.000181667
0.000742637
-0.000937359
-0.00110265
0.000205912
0.000895219
8.24487e-05
-0.000211536
0.000129087
0.000386416
-0.000724786
0.000337923
0.000347177
6.19068e-05
-0.000409118
0.000269634
-0.00020344
-6.61937e-05
0.00128597
-0.000396416
-0.000897684
0.00022739
0.000148199
-0.000375604
-0.000118012
0.000504985
-0.000797413
0.000308904
0.000488085
-0.000320849
-0.000582976
0.000902642
0.000278816
-0.000133854
-0.000144964
-5.26113e-05
-1.96896e-06
4.51456e-05
0.000332601
-7.8423e-06
-0.000324766
0.000622091
-0.000379527
-0.000242707
0.000402824
-0.000268069
-0.000134766
0.000125863
0.00020375
-0.00032962
0.000290975
-0.000158666
-0.00013231
-0.000264958
-0.000940288
0.00118246
3.79755e-05
-0.000250893
0.000212916
-0.000424376
0.00102403
-0.000395468
-7.77622e-05
0.000473184
-0.000122494
-0.000162566
0.000285059
0.000443432
0.000145215
-0.000588878
-0.000279869
0.000331697
-5.18284e-05
-8.35778e-09
-5.68069e-05
0.000372976
-0.000220871
-0.00015211
-0.000222385
-6.34136e-05
0.000285798
-0.00129681
0.00103391
0.000258197
-0.000235714
0.000297681
-6.19681e-05
0.000130942
0.000160032
0.000142462
7.99536e-05
0.000429095
-0.000346474
-8.26322e-05
0.000206628
6.07425e-05
-0.000267372
-0.000254871
-0.000950498
0.00119376
-0.000185085
0.000346118
0.000136135
-0.000351101
0.000214934
-0.00126437
0.000554345
0.000707383
-5.40757e-05
-0.00104948
0.000163471
5.89442e-05
-0.000222416
-0.00130998
0.000381582
0.00092692
-0.0001066
0.000453739
0.000828855
-0.000632177
-0.000197423
-0.000169144
0.000275201
-0.000106057
-0.000916496
-0.000383768
-0.000424099
2.85909e-05
-1.56072e-05
-0.000220107
0.000416843
-0.000225327
-0.000191528
-0.000239684
-1.77666e-05
0.000257451
-0.000742221
0.000909843
0.000281204
0.000121606
-0.00121701
0.00125467
-4.02015e-05
-0.000535971
-0.000730488
-0.000416759
0.000187106
0.000229638
-0.000260244
-0.000156527
-3.04255e-05
-0.000209259
-6.96299e-05
0.000377281
-0.000449103
-0.000760358
0.00120416
0.000267479
-0.000228113
-3.93667e-05
0.000154348
-0.000230853
7.65043e-05
0.000367047
0.000233486
-0.000600793
0.00130599
-0.000874274
-0.000435541
0.000209485
-0.000227252
-0.000357336
0.00077648
-0.000419786
-0.000447881
-0.000520307
0.00096654
5.99661e-05
0.000209668
0.00137893
-0.000236068
-0.00118352
-5.35409e-05
0.000386134
-0.000239566
0.00131343
-0.00108683
0.000666537
-0.00112071
0.000373973
8.56611e-06
-0.000382557
0.000784796
-0.000341662
-0.000204451
-5.43444e-05
0.000258795
-4.22677e-05
0.000251752
-0.000175385
-0.000129874
0.000305258
-0.000863484
0.000541586
6.36716e-05
-0.000219097
0.000155426
-0.00118724
0.00115712
2.52809e-05
0.000212068
-0.000174093
-0.00019381
-0.00111693
0.000474003
-0.000900493
0.000125747
9.66686e-05
7.25353e-05
-0.00024792
0.000294934
-5.57607e-05
-0.000239174
-0.000279551
0.000389714
-0.000110176
0.00173768
-0.000711786
-0.00103615
-0.000259582
-0.000223689
0.00048323
0.000135926
8.89254e-05
-0.000224851
0.000488063
-0.000255045
-0.000233051
0.000143913
-0.000403529
0.000208627
-0.000572926
0.000364253
0.000544303
-7.86144e-05
-0.000465761
-0.00116997
0.0013239
-0.000156488
0.000460418
-0.00117663
0.000704833
0.000693085
-9.70783e-05
-0.000596259
0.00131666
-0.000869278
-6.03207e-05
0.000214669
0.000925566
-0.000453819
0.000309741
0.00096759
0.000860692
-0.000319206
-0.00054201
0.00106912
-0.00133664
0.000381749
8.6017e-06
-0.000390382
-0.000575633
0.000394371
0.000181135
0.000283006
0.00015075
-0.000433799
0.000565162
0.000262789
0.00128552
-0.000547241
-0.00076643
0.000116161
-0.00034858
-0.000191742
-2.15443e-05
5.83693e-05
0.000209109
0.000436043
-8.56992e-05
-0.000350367
-0.00140444
0.000120261
0.00126854
0.000729958
0.000244011
-0.000977871
-0.000210312
0.00027672
-6.64072e-05
0.000425667
-5.10656e-05
-0.000374621
-0.000395442
2.8645e-05
0.000366791
0.000503652
0.00122301
-0.000593174
0.000419672
0.000173348
0.000154561
-0.000281685
0.000127123
0.000645946
-0.000601803
-4.44049e-05
0.00031926
-0.000903312
-0.000818933
-6.70833e-05
0.00088537
0.00018691
0.000186059
0.000170854
-0.000293349
-0.000539096
0.000169995
0.000283833
-0.000132937
-0.000150897
0.000403498
8.8904e-05
-0.000218778
0.000690856
-0.000275535
-0.000415414
-0.000437487
0.000750683
-0.000313502
-7.68425e-05
0.000450796
-0.000213091
-0.000773404
0.000985043
-0.00130892
0.000118005
4.38266e-05
-0.000338969
0.000295126
0.000389916
-0.000209578
-0.000180344
0.00108157
-0.000583297
-0.000499962
0.000117782
0.00121927
-0.000178358
9.02642e-05
0.000142428
-0.000232693
-0.00048455
-0.00010873
0.000373759
-0.000229874
-0.000118774
0.000500485
-0.000384886
-0.000190856
-0.000198953
-0.00022224
0.000421172
-0.000878364
0.0012486
-0.000371502
0.0013369
-0.00114451
-0.000193935
0.000959875
-0.00101919
4.13895e-05
-4.99482e-06
-0.00021739
3.17847e-05
-0.0004328
0.000400778
0.00109446
-0.000582567
-0.00051401
-0.000119852
0.000109522
-2.55797e-06
-0.000217729
-8.17553e-05
0.000299483
7.85708e-06
0.000684953
0.000441371
-0.000305279
0.000227292
-0.000144843
0.000209771
-0.000252515
4.27432e-05
-9.77663e-05
0.000307537
-9.11747e-05
0.000254646
0.0005645
0.000295606
0.000162512
0.000131093
-0.000293608
-0.000100973
-0.000764533
0.000851708
0.000244282
0.00100307
-0.000256866
-0.000346018
0.000602711
5.94468e-05
-0.000144088
4.87916e-05
2.7299e-05
0.000267635
-0.000291295
0.000402134
-0.000110852
0.000345207
5.18671e-05
-0.000397104
0.00116551
-0.000955173
-0.000465407
-0.000319514
0.000784291
-0.0001151
0.000460273
-1.41186e-05
0.000439765
0.000149531
-0.000805629
0.000288977
0.00051605
-0.000163498
0.000809073
7.5684e-05
0.000146732
0.000208186
-0.000117922
0.000332046
-0.000409848
0.000824948
-0.000707515
-0.00011759
0.000795488
-0.00128241
0.000485463
0.00154107
-0.00122809
-0.000330709
0.000220987
0.000168921
-0.000586886
0.000618324
-1.71554e-05
-0.00019438
0.000787707
-0.00084472
0.000430915
0.000648841
-0.000176178
-0.00030325
0.000479388
-4.50136e-06
0.000336514
0.00103125
-0.00126876
0.000230957
-0.00133216
0.000211344
0.00111452
-0.000538715
0.000259017
0.000279682
-0.000280485
-0.000140692
0.000421158
-0.000296756
0.000104847
0.000191908
-0.000179929
-0.000116492
0.00029642
0.000729768
-0.000343832
0.000254187
-0.000224371
-2.98179e-05
-0.000238329
-5.84269e-05
0.000551007
0.000387569
-0.000938765
-0.000612374
-7.01377e-05
0.000682241
-0.000116977
0.000267306
-0.00015033
0.000731028
-0.000921987
0.000189755
0.000406899
-3.00621e-06
-0.000403929
-0.000290702
0.00101693
-0.000357344
-1.16874e-05
0.0004022
-0.00039578
0.000626547
-2.35192e-05
-0.00060327
0.000234512
0.000615908
-0.000851636
-0.00115325
0.00109819
0.000409442
-0.000206729
-0.000202731
-0.00127077
0.00125992
4.47768e-06
6.49218e-05
0.000144804
0.000994239
0.000134446
-0.000298957
-0.000180929
0.000479843
3.70912e-05
-0.000241542
-0.000192052
-0.000103687
0.000295739
-0.000773477
0.00024048
0.000532812
7.28101e-06
-0.000619907
-1.43796e-05
0.00018704
-0.00017943
0.000380508
-0.000336699
-0.00129312
0.000136958
0.00114285
0.000771465
0.000301599
-0.000239091
-6.25094e-05
0.000593278
0.00023144
0.000964388
-0.000234936
5.36595e-05
0.00107984
-0.000250383
7.04537e-05
-0.00137241
0.00108231
0.000149499
0.000129315
-0.000124348
-0.000146137
0.000270484
0.000233041
0.00025498
-0.000121731
-4.99308e-06
0.000347725
1.26659e-05
-0.000360399
-0.00020514
-3.03826e-05
0.000235522
0.000315548
-0.000108921
0.000468766
-0.00064976
-0.000230793
0.00087994
0.000289101
3.48447e-05
-0.000323956
0.000197533
0.000211889
-0.00077435
0.000308336
0.000115036
0.000274663
-0.000403317
-0.000383771
0.000786626
0.00027179
-8.96667e-05
-0.000182123
-0.000446624
-5.92697e-05
0.00050585
0.000232825
-0.000100672
-0.000215881
-0.000955006
0.000775624
0.00017801
-0.000399901
3.54906e-05
-0.00025322
-0.000226884
0.000275652
-4.87675e-05
0.000553637
0.000969795
8.62129e-06
-0.00115751
0.00114895
5.10009e-06
-0.00022136
-0.00019422
0.000415556
-0.000331054
-0.000129007
0.00046004
-0.000561698
-0.000394196
0.000608947
-0.000601331
-1.96972e-05
-0.000426967
-0.00152818
0.000408971
0.00111399
0.000501202
-0.000292608
6.91955e-05
-0.000405842
0.000336596
-0.000246636
-0.00015242
0.000399047
-0.000315827
0.00126149
-0.000954199
-3.5327e-05
-0.00111864
-0.000180355
-0.000260751
-3.59779e-05
0.000296728
0.000214524
-0.000246543
3.20182e-05
-0.000422174
0.000644327
-0.000222393
-0.000421561
-0.000995907
0.000354139
-0.000368275
-0.000192265
-0.000221605
0.000413849
-0.000330191
-0.000194299
0.000524435
-9.94673e-05
0.000708137
-1.5947e-08
-0.000260736
0.000153024
6.93913e-05
-0.000222416
0.000847705
-5.72861e-05
-0.000791326
0.000799165
-0.000672928
-0.000126688
0.000188701
0.00010963
-0.000298336
0.00168212
-0.0011341
-0.000560735
-0.000925333
0.000887725
2.04726e-05
5.89139e-05
-0.000389145
-0.000634748
0.000326591
0.000307994
9.14677e-05
-0.00121113
0.00109889
0.000313702
-0.000414997
9.07697e-05
-0.000376984
-0.000927568
-9.28903e-05
-8.06307e-05
0.000114305
0.000860159
-0.00059555
-0.000265219
1.66229e-05
-0.000135832
0.000242871
-0.00055277
-0.000244946
0.00134128
-0.00032759
-0.0010191
-0.000244379
-2.93821e-05
-0.00018093
-0.001238
0.000872379
0.000364027
-0.000417007
0.000186719
-0.000222416
3.56968e-05
-0.000954328
0.000739968
-0.00102555
-0.000213383
-0.000102066
-0.000451005
-0.000205338
-5.14292e-05
0.000256767
0.000239142
-0.000277452
3.8308e-05
0.00015887
-0.000532581
0.000373569
7.38428e-05
-0.000197375
-0.000155005
0.000317514
-0.000855996
0.000290601
0.000243152
-0.000533869
-5.27045e-05
0.000239423
-0.000300527
-8.54344e-05
0.000385953
0.000285682
0.000805792
-8.36182e-05
0.000272314
-0.000420568
0.000228639
0.00019192
-0.000282573
1.10337e-05
0.000271539
-0.000265809
0.000457779
-0.000192004
0.000598548
-0.000244201
-0.000354371
0.000102909
0.000180924
-0.000160219
0.000320619
-0.0001604
0.000322726
-0.000196869
-0.000440349
-0.000897274
-0.000248247
8.2748e-05
0.000165499
0.000114526
0.00010789
0.000279127
-0.000273981
-5.14744e-06
6.28113e-06
0.000272844
-9.0326e-05
0.000641294
-0.000268945
0.00059173
-0.000322933
-0.000846276
0.000318824
0.000527048
0.000196641
-0.000132969
0.000612405
-0.000269117
-0.00034332
0.0003957
-0.000399105
-6.10502e-05
-0.000551838
0.000276603
0.000932707
-0.000224373
-0.000709187
-0.000235745
-4.68285e-05
0.0002296
0.000293838
0.00137324
-0.000247813
-0.000822712
0.000589408
0.000232944
-0.000160822
-0.000658635
-0.000733074
0.000148563
7.41898e-07
-0.00020608
-9.7922e-05
0.00045204
-0.000409885
0.00106246
-0.00082952
0.000780827
0.000181973
0.000164236
8.97409e-05
-0.000253978
-0.000377505
0.00117164
-0.000391236
0.000893168
-4.66146e-05
0.000428508
-0.000530864
-0.000201349
-0.000621699
-4.02344e-06
6.35058e-05
0.00127118
0.000446299
-2.76437e-05
-0.000418692
-0.000429
0.000173924
-0.000357277
-9.55392e-05
0.000452776
-0.000233666
-0.000135676
0.000299911
0.000188045
-0.000772498
-0.00024084
9.56977e-05
0.000290118
-0.000385837
-0.00133538
3.04025e-05
0.00128339
2.9819e-05
-0.000330353
0.000524501
-4.08474e-05
-0.000483726
-0.000134615
0.000270541
0.000577035
0.00035461
0.000141266
-0.000515915
0.000187217
0.000229612
0.000170535
0.000166736
-0.000337278
-0.000397908
-9.72777e-05
0.000495144
-0.00011725
-0.000125627
0.000242877
0.000554672
0.000341164
-0.000898523
-0.000304365
1.30605e-05
0.000261106
-0.000118644
-0.000860695
0.000341539
0.000518433
0.000125108
0.000146681
0.000813485
-0.000574341
-0.000239716
6.09149e-05
-0.000259407
0.000198491
0.000606294
0.000192259
0.000678801
-0.000351128
-0.000408305
-8.80706e-05
0.000496333
0.0004636
-0.000135372
-0.000328246
0.000390891
0.000944579
-4.82713e-05
-0.000790576
0.000837536
-0.000383023
-0.000251854
-0.000677404
0.00104608
-0.0011478
9.32213e-05
-0.000541528
0.000119137
0.000299246
-0.000292004
-7.24444e-06
0.000666236
0.000637007
-0.000725182
0.00065477
-0.000204019
-3.64001e-05
0.000240419
-0.0010058
0.000143882
0.000859834
-0.000367622
0.000227448
0.000140169
0.000523295
5.16938e-05
-0.000575252
0.000309656
-7.05152e-05
-0.00071085
-0.000212314
0.000331397
0.000290523
-8.36801e-05
0.000337864
-0.000382138
-0.000508197
-0.000202723
0.00071065
2.68384e-07
-0.000227153
-0.000247407
-1.62073e-05
0.000363923
-0.000651268
-0.000882172
-1.95037e-05
0.000465764
0.000776532
-9.84209e-05
-0.00067862
-0.000415181
0.000556314
-0.000156561
0.00122795
-0.00108441
0.000111208
0.000111208
0.000313797
-0.000146201
-0.000167597
0.000304101
1.2453e-05
-0.00031656
0.000926254
-0.00014699
-0.000428041
-0.000289717
-0.000120295
0.000409999
-3.47295e-05
0.000249254
-0.000385474
0.00124907
-0.000894353
-7.74375e-05
-0.00017081
-0.000292766
-0.000149088
0.000441833
0.000172357
-0.000272448
0.00010009
0.000223724
-0.000627418
0.000399623
-0.000285793
-0.000113837
0.00126031
-0.000871951
-0.0003911
-3.90205e-05
6.36983e-05
-0.000222416
5.32716e-05
-0.000187872
0.000358856
-0.000170996
0.00117891
-0.000935066
0.000241112
-0.000666272
-0.000130628
-0.000594801
0.00121449
-0.000345732
-0.000903046
0.000143386
0.000170408
-0.000531258
0.000262179
-1.06996e-05
0.000535121
0.000645781
0.000201219
-0.000848398
0.00100688
-0.000455534
-0.000748142
-0.000414748
0.00116283
-0.000191244
0.000361772
-0.00152707
0.00119295
-0.00118127
0.000433251
-0.000362772
0.00013484
0.000227927
-1.83876e-05
0.000317632
-0.000566504
0.000884743
-0.00039934
0.000167855
0.00023147
-0.00112792
-8.90358e-05
-2.33024e-05
0.000891918
-0.000263649
-0.000744111
-0.000416584
0.000503908
0.000126375
-0.000630576
0.000874445
-0.00118895
0.00030788
-7.64109e-05
0.000966371
-0.000893011
0.000285604
0.000150417
0.00122322
-0.000371102
-0.00085538
0.00015959
9.67509e-05
-0.000256343
0.00115879
-0.000731729
-0.000446451
-0.000776088
0.000891785
-0.000116871
-0.00021463
0.000275371
0.000721576
-0.000406238
-0.000315495
0.000342794
4.3926e-05
-0.00046614
-6.46495e-05
0.000843072
-0.000790706
-0.000284671
0.000929079
-0.000459937
0.00126452
-0.00081018
0.00037545
-9.28544e-05
-0.000282604
0.000180172
0.000117382
-0.000297558
5.28555e-05
-0.000703138
6.52935e-05
-0.000192698
0.000127404
0.000660727
-0.00111193
8.10151e-05
0.00101908
-0.000195784
-6.64251e-05
0.000262209
-0.000212136
-0.000205232
-0.000386534
0.000591628
0.000475442
0.000604347
-0.00108355
0.0001165
0.000207026
0.000483722
-3.18536e-05
0.000250262
-0.00021841
-0.000218139
-0.000953918
-0.000637403
0.000885943
-0.000249167
-0.000425589
0.000239784
0.000463481
-0.000703793
0.000148518
0.0001721
1.93957e-05
-0.000309123
-7.00972e-05
0.000374191
-0.000338923
0.000751351
-0.000413226
-0.000384614
-0.00137603
0.00126648
0.00010324
-0.000240422
-0.000242179
0.00076515
0.00027601
-0.000280539
-0.000121308
0.000897208
0.000612888
0.000365971
0.000355387
0.000334697
5.62788e-05
-0.000150616
0.00010021
0.000126045
-0.000226255
-0.000240223
4.4438e-05
0.000320068
-0.00016048
0.000149299
-0.000214192
6.48924e-05
-0.000182603
0.000237831
-3.61205e-05
-0.00020171
-0.000350629
-0.000289729
0.000802183
-0.000512724
8.45904e-06
-0.000599707
0.000586269
-0.000268264
-9.93624e-05
-0.00122922
-0.000143292
-0.000183576
0.00122044
-0.000730335
0.000241839
0.000488292
-0.000272417
-1.15244e-05
0.000283941
0.00101859
-0.000898467
-0.000122368
0.000634593
0.000371773
-0.00100759
-1.50395e-05
0.000351146
-0.000336157
0.000378075
-0.000591829
0.000213552
3.932e-05
0.00101872
-0.00105885
-0.000274084
0.000324451
-5.03696e-05
-0.000459969
-0.000754907
0.00120541
-0.000123403
-0.000153817
0.000277219
-3.44008e-05
0.00040984
-0.00113518
0.000884589
-2.33684e-05
0.000896412
-0.000875594
-0.000185417
-0.00021962
0.000405019
-0.000332078
-0.00130514
0.000265213
3.63661e-05
-0.000301585
-0.000296496
2.82279e-05
-0.00147671
0.000219266
0.00123956
-0.000146581
-0.000129078
0.000275658
0.000399197
-0.000171824
-0.000236527
-0.000216802
0.000453289
-0.000810452
0.000470564
0.000340288
-0.000205452
-0.000154705
0.00026752
-0.000112815
-0.000567029
-0.000923487
0.000435853
-0.000300165
-0.000135704
-0.000228223
-0.00102274
0.00124531
-0.00118081
-0.000262338
-8.43971e-05
0.000346729
0.000220986
-0.000160071
-0.00023611
-0.000480925
0.000716609
-0.000172085
0.000675682
0.00117756
-8.0179e-05
-0.00109904
0.0004698
5.88765e-05
-0.000528836
-0.000129423
0.000283984
-0.000190999
-8.14932e-05
0.000272492
-0.00111759
-0.000137428
0.00124224
7.11873e-05
0.00012639
-0.000197577
-0.00028197
-0.000993092
-0.000605518
-0.000641552
-0.000243804
0.000884426
0.000762139
-0.0011759
-0.000946238
0.000424587
-9.62528e-05
-0.000184122
0.000280375
0.000202277
0.000261297
-0.000242834
0.000926441
8.96169e-05
0.00116254
-1.7351e-05
-0.000219972
-8.14731e-05
0.000301444
-0.000804728
0.000632133
0.000164352
-0.000401093
0.000504997
-0.000103944
-0.000765551
-5.08286e-05
0.000815162
-0.00031585
-0.000475035
0.000790238
-0.000455814
0.000884869
-0.000429671
-0.000175227
-0.000116024
0.00029125
-0.000102134
0.000255159
-0.000848936
7.35343e-05
0.000774133
9.49299e-05
0.000166176
-0.00109665
0.00089207
0.000201368
-0.000635951
0.000365155
0.00027065
-0.00016255
0.000293492
0.000157627
0.000117574
0.000755928
0.000334674
-0.001095
-0.000971425
0.000498687
4.55747e-05
3.02322e-05
-0.000214355
-0.000421755
0.000172721
0.000249016
0.000600364
-0.000130748
0.000202084
-0.000233939
6.55921e-05
-0.000708004
0.000847894
-0.000242165
0.000196051
0.000105547
-0.000185328
0.000342667
-0.000157343
0.000402932
6.24858e-05
-0.000465456
0.000126482
-0.000249885
0.00040225
-5.89741e-06
-0.000396376
-0.000276057
0.000161319
0.000114737
-0.00028868
-0.000753128
0.00103817
9.90073e-05
-0.000324344
0.000227172
0.000172441
-5.64618e-05
0.000995773
-0.000950555
-0.00010675
0.000232497
-0.00016795
0.000331916
-0.000163968
-0.00024167
-0.00060127
1.34686e-05
0.00102758
-0.00104523
-0.000172717
0.000238011
0.000363828
0.000120516
-0.000484426
0.000227182
4.96461e-05
-0.000276831
-0.000677211
-0.000855303
-8.92985e-05
0.000107928
-4.72805e-05
0.000684409
0.000140363
-0.000824959
-0.000288268
0.000666111
0.000205612
0.000932463
-0.000245119
5.46211e-05
-0.00017225
-1.31131e-05
0.000415338
0.000577798
0.000303127
-0.000881753
-0.000513834
9.85356e-05
0.0005827
0.000737986
-0.000809909
0.000848592
-0.000559775
0.000707755
-0.000148194
0.00021298
-0.000141793
-0.000397519
-0.000297111
0.000694362
-0.000236625
-0.000705004
-0.00104678
-1.75075e-05
0.00103654
0.000951382
-0.00118337
0.000217425
-0.000590467
0.000244284
0.000751161
-0.000830178
0.000499453
-2.1659e-05
-0.000477858
4.9454e-05
0.000831284
-0.000882584
0.000344442
-0.000549809
-0.000296166
0.000395162
0.000779728
-3.19096e-05
-0.000751862
-0.000151832
-9.69962e-05
0.000248829
-0.000277339
0.000256789
-0.000100639
-0.000424729
0.000525295
-0.000147881
0.000242811
-0.000226388
0.000309179
-8.27919e-05
0.000681385
0.000323828
-9.66484e-05
0.000371066
-0.000386161
-0.000271972
-0.000183417
0.000455365
9.57145e-05
-0.000263666
0.0012951
-0.000183921
-0.00112227
-5.7643e-05
-0.000216444
-0.000257214
-0.000496829
-0.000364516
0.000268422
-0.000119122
-0.000396104
0.000233634
0.00016246
-0.000381406
-0.00096979
-2.68301e-05
0.000526211
0.00117501
-0.000150099
-0.000164067
-0.000111991
7.12295e-05
-0.000207876
0.000136647
0.00136698
-0.00064696
-0.00072353
-0.000161445
-0.000234091
0.000340767
-0.000106678
4.34171e-05
0.000223951
-0.00027357
-0.000300066
0.000338215
4.83263e-05
-0.000427961
7.40869e-05
-0.000225919
-0.000207178
-0.000134514
0.000341686
-0.000271429
-0.000754673
-0.000339978
-0.000158309
0.000498244
0.000948325
0.000271387
0.000789997
0.000385246
-0.00117657
0.000355447
-3.02096e-05
-0.000325248
-0.000428086
0.000146706
0.000290748
-0.000437493
-0.0012925
0.00097919
0.000273459
0.00032862
-0.000259463
-0.000345649
0.000567276
-0.00022174
-0.000604781
0.000257541
0.00034706
-0.000491247
0.000912308
-0.000421473
-0.000580393
0.00100956
-0.000191817
0.000555549
0.000154775
0.000529446
0.000186492
0.000254834
0.000673636
-0.000306849
-0.000400023
0.000633256
-8.02507e-05
0.000483136
-5.77056e-05
0.000307964
0.000357986
-0.000209801
0.000302545
-4.57512e-05
-0.000256796
0.000367397
-0.00010219
-1.33635e-05
0.000387099
0.000168211
-0.000267809
9.95978e-05
0.000751466
-0.0005581
-0.000193608
-0.00030144
3.90971e-05
-0.000417493
-0.00123147
0.000951321
0.000271602
0.000538376
0.000308892
8.36067e-05
0.000274361
0.00089949
-0.000393377
-0.000506997
0.00124623
5.32607e-05
-1.36572e-05
-0.00117365
0.00117338
-0.000339449
-0.000193454
0.000532829
-0.000225207
0.000107957
8.33928e-05
-0.00086053
0.000100347
-0.000246484
-0.00113105
5.44621e-05
-0.000318605
0.000111422
0.000382775
-1.77011e-05
-0.000365103
0.000169711
-0.000222416
-0.000521205
0.000494305
-0.000841235
0.000129272
-0.000868369
0.000901588
0.000270579
-0.000100868
0.000392638
-0.000245962
0.00027341
0.000477764
-0.000308178
0.000465781
0.000537065
9.84499e-05
0.000242272
-0.000340728
-0.000440151
-0.00043413
0.00042099
-0.000439472
0.000859205
-0.000420338
0.00022774
0.00014106
-0.000368815
0.00072276
0.000535232
-0.000294027
0.00103362
-0.000646348
-0.000606663
0.00139523
-0.00011436
0.000280918
-0.000166559
6.16265e-05
-0.000200819
-6.6277e-05
0.000421711
-0.000255951
-5.90621e-05
-0.000462207
-0.000176483
-9.23676e-05
0.00026885
0.000203472
-0.000114547
-4.98177e-05
-0.000384336
-0.000370264
9.82726e-05
0.000297843
0.000383451
0.000854066
-0.0010794
0.00104341
0.00148543
-0.000742342
-0.000777374
0.00117211
-0.000235836
-0.000117937
0.000308267
0.000262517
-0.000570925
0.000527422
-0.000367695
-0.000159766
0.000207768
-0.000553508
0.000349347
-0.000145604
0.000703791
-0.000964461
0.000258785
-0.000252809
-0.000108882
0.000108882
0.000119997
0.000159636
-0.00068229
0.000304194
0.00037781
-0.000152253
4.05112e-05
0.00106278
-0.00106271
-1.0214e-06
-0.000256069
-3.16895e-05
0.000287758
-0.000917284
0.000111832
0.000360093
-0.000283396
-7.6701e-05
-0.000228313
0.000324025
0.000317634
0.000499976
-5.25098e-05
-0.000447564
-0.0012199
0.00122998
-2.66453e-05
-0.000291036
0.000128469
0.000938269
-0.000410946
-0.000528198
-0.000960498
5.989e-05
-0.000326385
-0.000853776
0.000854365
-1.83e-06
-0.00114062
0.000365583
0.00132847
-0.000959738
-0.000378222
0.000673505
-0.000353501
-0.000320287
-0.000165894
-9.3065e-05
0.000258959
-0.000907354
0.000383385
0.000523175
-0.000254136
-0.000587508
0.000841061
6.48821e-05
-0.000357667
5.37149e-05
-0.000244714
-0.000372772
-0.000334828
0.000867048
-0.000441109
-0.000426544
-0.000140544
0.000304669
-0.000164126
0.000660311
0.00078742
0.000191151
-0.000266466
0.000256201
-8.36812e-06
-0.00101645
0.000642568
-0.000270722
0.000364473
-9.37585e-05
-0.000557659
2.68146e-05
0.000530749
0.000509909
-0.000226951
0.000334263
-0.000507622
0.000173293
-0.000600476
-0.000232096
-0.00040911
0.000639091
-9.6017e-05
9.6017e-05
-0.000358157
-0.000277918
0.000710889
-0.00100319
-0.000433251
0.000200765
0.000433483
0.000384385
-0.000818948
0.000358701
-0.000367318
8.59925e-06
0.000719541
8.7429e-05
-0.000835024
-0.000191883
-0.000227969
0.000419828
0.000325892
-0.000111258
-0.000297032
0.000408285
0.000499632
-0.000165435
-0.000304193
0.000214306
8.98864e-05
-0.00060963
0.000334018
-8.45415e-07
-0.000325524
-0.000179322
0.000504803
-0.000297969
0.00108643
-0.00081283
-0.000769403
0.000719942
0.000352822
-5.02799e-05
-0.000218169
0.000307909
-0.000242973
0.000123323
0.000181345
-0.00133989
0.000178597
0.00115656
0.000514067
0.000848818
-6.24126e-05
-0.000366699
0.000429047
-0.000402918
-0.000575862
0.000977054
-0.00127406
0.0012934
-3.31407e-05
-0.000263956
0.000130101
0.000166456
-0.000387839
-0.000237418
9.69972e-05
0.00014042
-0.000428629
-6.43455e-05
-0.000493398
0.000661996
0.000510604
-0.00117387
-0.00125768
0.000300014
0.000181396
0.00015783
-0.00033923
-0.000512293
0.000501518
-9.24771e-05
-0.000362672
0.000418767
-5.76612e-05
0.000370036
-0.000219319
-0.000211657
0.000440356
-0.000228728
-0.000159061
0.000297129
-0.00117652
7.48747e-06
0.000539342
-0.00056559
5.773e-05
-0.000223624
0.000463919
-0.0009556
0.000826829
-0.000491797
-0.000335609
0.000989096
0.000185134
-0.000235674
-5.17113e-05
0.000287385
2.01231e-05
0.000140792
-8.11714e-05
0.000247347
0.00109495
-0.00122862
0.00013045
0.000480145
-0.000247145
-0.00032668
-0.000387861
0.000714145
8.64413e-05
0.000352484
-0.000438986
-0.000694104
0.000222538
-0.00110058
-0.000219928
0.000825013
-0.000606587
-0.000189882
-0.000547375
0.000700448
0.000391565
-0.000262896
-0.000128681
-0.00109845
0.000415277
0.000682248
0.000109187
0.000166465
-0.00102359
0.000554357
0.000466441
2.86859e-05
-0.000298286
0.000269595
0.000290578
-0.00019281
-9.77684e-05
-0.000791616
0.000330197
0.00046081
0.00058484
-0.000195343
-0.000426932
0.000296847
-0.00017924
-0.000117607
-0.000193122
0.000314121
-0.000121002
-0.000154475
-0.000695564
-0.000513268
0.000539989
-0.00116009
7.94735e-05
0.000169653
-0.000222416
5.27627e-05
-0.000221028
-0.0010185
0.000318961
-0.000235369
-0.000217954
0.00117179
-0.000963782
0.000370641
-0.000588641
4.69036e-05
0.000313184
-0.000687095
0.000817468
-0.000894002
-7.52726e-05
-0.000557453
0.000261874
-0.000169942
-9.19326e-05
-0.000301176
0.000153526
0.000147649
6.19174e-05
-0.00029601
0.00153419
-0.000998633
0.000254627
-8.64159e-05
-0.00113659
0.000813472
-1.84546e-05
0.000702819
0.000499161
0.000747803
-0.000234387
-0.000383455
0.000435042
3.48408e-05
-0.000474907
-0.00014658
0.00031336
-0.000166783
-0.000172229
0.00033472
-0.000162494
-0.00024566
-0.00103043
-0.000179944
-2.04624e-05
0.000481205
-0.000717721
0.00109746
-3.49787e-05
0.000106626
0.00019022
-0.000422838
-0.000138722
-0.000171212
0.00027412
0.000494253
-0.000715558
-0.00021939
0.000950972
-0.00101824
0.000709434
-0.00040093
0.000457244
-7.45074e-05
0.00140994
-0.000127709
-0.00025672
-2.15323e-05
-0.000297889
-0.000106747
0.000404626
0.000200098
-0.000128869
-0.000155869
0.000655709
-0.000127756
0.000162862
-0.000498963
0.000335959
0.000242744
0.00100728
-0.000310229
0.00070745
-0.00039755
-2.40209e-05
-0.000489332
0.00013373
9.16886e-05
-0.000225419
0.000527594
0.000331905
0.000203941
-0.000358018
0.00015407
-4.57646e-05
-0.000466598
0.000418405
-0.000113885
-0.000209028
0.00028581
-7.67837e-05
-0.000236825
2.77961e-05
-0.00023641
0.000152353
8.40572e-05
-0.000175124
-0.000205252
-0.0001236
0.000328846
0.000928971
-0.000178478
-1.96643e-05
0.000308757
0.000398156
-0.000220793
-0.000177372
0.000373137
0.000525354
0.000123223
0.000206957
0.000213337
3.63517e-05
-0.00024969
0.000661239
0.000287992
-0.000951203
0.000161721
0.000383318
0.00120106
-0.000449355
-0.000455805
0.00111473
-0.000247199
0.000176938
0.00124812
-9.70222e-05
-0.00116714
-0.000681951
0.000371403
-0.000206621
0.000243713
-0.00101771
0.00088244
0.000133075
0.000272747
-0.000126015
-0.000937114
0.000256374
0.000679943
-0.000524571
0.000246731
0.000277752
0.00030367
-0.000218718
-8.4953e-05
-0.000833155
-0.000187625
-0.000234145
-9.38999e-05
-0.000473241
0.000566598
-0.000334764
-0.000457413
-0.000193365
-0.000107812
0.000989738
-0.000365115
0.000459582
-9.44864e-05
-0.000273569
0.000187224
7.46499e-05
0.00121893
-0.000255967
-0.000969131
-0.000238389
0.000114048
0.000124341
0.000870168
-0.000529364
-9.65262e-05
0.000233947
-0.00013742
0.000100303
0.000127369
-0.000227672
-0.000119374
-0.000119016
-0.00076441
0.000469169
0.000294935
-0.00117956
0.000946917
0.000229494
-0.00104707
-0.000297511
-0.000230643
-5.29181e-05
0.000277859
0.000340983
-0.000301517
0.00120885
-0.000911331
-0.000133167
-0.000524921
0.000813275
-0.000812235
0.000302191
0.000509716
-0.000621453
0.000248634
0.000688573
0.000239321
0.000373271
0.00114162
0.000917756
-0.000549697
-0.000369386
-0.000396677
-0.000562711
0.000958468
0.000683889
-0.000709269
-0.000733516
-0.000130803
0.000217974
-0.000277494
5.95178e-05
0.000395366
-0.000227847
-0.000167531
-0.00082961
0.000518378
0.000310455
-0.000383295
0.000598348
-0.00021523
-0.000134855
0.00034819
-0.000507474
0.000252896
-0.000241863
-0.000437982
0.00106102
-0.000290496
0.000737006
-0.000446899
-0.000807203
-0.000291919
0.00125903
-0.0003057
-0.000960831
-0.000521252
-0.000145109
0.000666143
-0.00107
-5.29053e-05
0.00129775
-6.83807e-05
0.00038718
0.000211329
-0.00104757
-9.78761e-05
-5.04795e-05
0.000409162
-0.00018435
0.00093271
-0.000115666
0.000221486
-0.00010582
-0.000218982
-0.00015293
0.000371903
-0.000403972
0.000161821
0.00024213
0.000259208
0.000176626
-0.00121293
0.000178451
0.00102754
-0.000257977
0.00020959
0.000218168
-0.000427791
-2.10871e-05
-0.000790831
0.00104226
-0.000671794
0.000292834
-3.99383e-05
0.000469635
0.000412276
-0.000882522
0.000422524
0.000346119
-0.000316307
5.62412e-05
-0.00026026
-0.000130813
-0.000440185
0.00057091
-0.00114167
0.000995111
0.000140947
0.000140319
0.000403545
-5.74355e-05
-0.000289654
-0.000593051
0.00049858
0.00100351
-0.00104779
-0.00104612
-0.000167512
0.00120119
0.000456621
-0.000297857
0.000702068
0.000367184
-0.00107204
-0.000213716
5.90111e-05
-0.000420632
-0.000635474
0.000639383
0.00039131
-0.000295631
-0.000286723