/*--------------------------------*- C++ -*----------------------------------*\
| =========                 |                                                 |
| \\      /  F ield         | OpenFOAM: The Open Source CFD Toolbox           |
|  \\    /   O peration     | Version:  v2012                                 |
|   \\  /    A nd           | Website:  www.openfoam.com                      |
|    \\/     M anipulation  |                                                 |
\*---------------------------------------------------------------------------*/
FoamFile
{
    version     2.0;
    format      ascii;
    class       volVectorField;
    location    "50";
    object      ddt0(U);
}
// * * * * * * * * * * * * * * * * * * * * * * * * * * * * * * * * * * * * * //

dimensions      [0 1 -2 0 0 0 0];


internalField   nonuniform List<vector> 
13851
(
(-0.008696 -0.00565764 -1.58017e-17)
(-6.71586e-05 0.000177504 -1.12757e-17)
(-7.73696e-05 0.00017248 -1.001e-18)
(0.00396222 -0.00185109 -2.47502e-17)
(6.67697e-05 1.03517e-05 -5.03557e-20)
(8.38476e-06 0.000337983 2.05826e-18)
(-1.55419e-05 -0.000351727 -3.92693e-19)
(0.000169408 -1.07499e-05 -8.3017e-20)
(0.00700007 -0.0171827 -1.23331e-17)
(7.09992e-06 -0.000231404 3.62508e-18)
(0.00167405 -0.00110695 -1.52278e-17)
(4.2603e-06 0.000120805 1.24095e-18)
(-1.31325e-05 0.000208583 -6.0492e-18)
(0.0285478 -0.00286624 1.00533e-17)
(-0.000668076 -0.000352196 1.7052e-17)
(0.0138363 0.00811747 -1.21597e-19)
(0.00864467 -0.00109636 -1.48079e-17)
(3.52632e-05 0.000125592 -4.67015e-18)
(0.00225004 0.0209286 -1.35217e-17)
(-0.00880027 -0.0047151 8.18261e-18)
(-0.000942752 0.000100565 5.86925e-18)
(-5.51511e-05 -0.000248483 8.51865e-19)
(0.020835 -0.00126445 2.50376e-17)
(2.43873e-05 -1.49944e-05 1.17302e-18)
(-0.00999945 0.0212391 -3.50764e-17)
(0.00226698 0.00236859 2.87942e-18)
(0.0106992 -0.025126 1.00713e-17)
(-0.0254881 0.0304134 -4.03636e-18)
(-0.041141 -0.0116664 6.68457e-18)
(8.34763e-05 -9.55526e-05 -1.02791e-18)
(0.0127301 0.0063204 -1.70657e-17)
(-3.98952e-05 -0.000335438 -3.09606e-18)
(-0.00584908 -0.00762416 5.05228e-18)
(0.0102458 -0.0035208 1.38584e-17)
(0.000866168 -8.14896e-05 1.29356e-17)
(-0.0435473 -0.00577026 -2.97938e-18)
(1.16732e-05 -1.46591e-05 -1.2394e-18)
(-0.0323478 -0.0118243 7.09018e-17)
(-0.0160313 -0.0053609 -5.2091e-17)
(-3.88456e-05 6.42692e-05 2.52795e-18)
(0.0171271 0.0161329 1.27064e-17)
(-0.0415152 -0.0128074 1.27295e-18)
(0.0115254 0.00124517 -9.997e-17)
(-0.00281849 0.00154253 7.20409e-17)
(-0.0369669 -0.020646 -9.26908e-18)
(8.47466e-06 3.13754e-05 2.54656e-19)
(0.00019178 -6.90742e-06 2.12784e-19)
(0.0122775 -0.00275749 -1.01335e-17)
(1.90772e-05 -5.35801e-05 2.7984e-18)
(-1.23905e-05 0.000209819 4.85147e-18)
(-0.0297551 0.00148549 -2.07634e-17)
(-2.11665e-06 0.000276839 -2.44848e-18)
(0.0131983 0.00665222 -8.44847e-19)
(-0.000447423 -0.000255448 -1.23239e-17)
(0.00408338 -0.00514826 2.03443e-17)
(-3.07783e-05 7.98558e-05 -4.04821e-18)
(-0.00666931 -0.00775713 -2.71903e-18)
(0.016447 0.0161886 -2.45323e-17)
(0.0316961 -0.0147072 6.86025e-18)
(0.0371932 0.00156557 -5.51327e-18)
(8.62034e-06 0.000160696 1.38849e-18)
(0.00952392 -0.0231502 2.26221e-17)
(-2.70713e-08 0.000285328 5.55776e-18)
(1.97567e-05 -6.67273e-05 1.86962e-18)
(-0.000551695 0.0014466 -4.99483e-18)
(-0.000397373 0.00150785 5.12998e-20)
(0.0388313 0.000271782 -6.23513e-18)
(-3.87024e-05 0.000404398 -4.29906e-17)
(-6.53777e-06 -0.00022856 -6.58928e-20)
(-0.000196483 0.0018698 2.43058e-17)
(0.0164092 -0.00263461 -3.23225e-17)
(-0.00150875 0.000327249 2.36626e-18)
(-8.29873e-06 0.000208702 9.21913e-18)
(0.0379707 0.00119106 4.71238e-19)
(-0.000320757 -0.000309536 -2.566e-19)
(-4.08252e-05 -0.00032643 -2.11739e-19)
(0.00949185 -0.00291037 2.08246e-17)
(9.94647e-05 6.97015e-05 4.10937e-19)
(-0.000583834 0.0222956 2.65272e-17)
(3.66392e-05 3.01307e-05 -1.97846e-18)
(3.43721e-06 -0.000241138 9.01359e-21)
(0.0145981 -0.0112825 -6.622e-18)
(0.000782645 -0.000102169 -1.03563e-17)
(0.0314943 -0.00223416 4.84445e-18)
(0.0385328 0.000878814 -1.45635e-18)
(0.0156468 0.00277959 -7.66062e-18)
(-5.22865e-05 -0.000225779 -1.2458e-18)
(-0.0519806 -0.00227816 1.17254e-17)
(9.79323e-06 -0.000235819 2.95144e-18)
(0.0118338 0.00731202 1.63576e-16)
(-1.8404e-05 0.000283775 3.69991e-18)
(-6.6861e-05 -0.000358026 2.07006e-18)
(-0.0187276 0.000413951 5.35105e-17)
(0.0154448 0.0032635 2.93614e-17)
(-0.0265316 -0.00107269 7.50098e-18)
(-0.00235907 0.00126745 -6.42879e-18)
(-2.52142e-06 0.00018588 -2.75314e-19)
(0.0144066 0.0021435 -1.04869e-17)
(-0.00629224 0.00519092 8.98386e-18)
(-0.00386498 -0.0028265 -1.94225e-17)
(0.0153903 0.000324283 3.72518e-18)
(-0.000105893 0.000160572 3.03301e-17)
(-0.000165678 0.000245011 -1.46125e-17)
(-3.4249e-05 0.000263332 -7.48561e-19)
(1.28637e-05 -0.000105929 1.86631e-20)
(-0.000773072 0.00119229 9.55811e-18)
(4.99758e-06 -8.7141e-05 1.57327e-19)
(0.0165339 -0.00216704 1.93954e-17)
(-7.66885e-05 -0.000347991 4.82914e-18)
(4.25218e-05 0.000118961 -7.04421e-19)
(-0.000254876 -0.00025522 2.78119e-19)
(8.84064e-06 -3.93996e-06 -6.83575e-19)
(0.00630136 0.00612808 -4.94368e-18)
(0.00194888 0.00163577 2.04261e-17)
(-0.00060736 -0.00988422 1.58747e-17)
(-0.000426764 -0.000298903 -6.37015e-18)
(7.06136e-05 -7.88252e-05 -1.85161e-19)
(0.000178582 -1.078e-05 -5.50903e-20)
(0.00495915 -0.0015581 3.82983e-17)
(-0.000995828 0.00151229 -3.99284e-17)
(-0.00211352 0.000201578 4.78115e-18)
(6.24874e-05 4.98132e-05 -2.07963e-18)
(-1.99992e-05 -0.000152379 4.81617e-19)
(0.0342243 0.000576565 -8.93689e-18)
(-0.01403 0.0155044 1.10335e-17)
(4.32699e-05 0.000425128 1.85269e-17)
(-6.07795e-06 0.000167197 -7.07121e-19)
(-0.000269015 -0.00107508 4.22553e-17)
(0.0234466 0.00223646 -5.64961e-18)
(-0.00116427 -0.000529541 -3.79889e-18)
(-8.19046e-05 -0.000265554 -1.17358e-18)
(0.000313178 0.000248879 1.10241e-17)
(-0.0272607 -0.0150035 1.31705e-18)
(0.0112175 -0.00407426 3.21774e-18)
(0.00189731 -0.00112941 1.97561e-17)
(-0.0239027 -0.00359999 -1.85609e-17)
(-5.97961e-05 0.000346234 3.54342e-17)
(0.0163248 0.00110757 -4.67759e-17)
(-9.77795e-05 2.59544e-05 3.92209e-17)
(-0.000932507 -0.000743289 1.70507e-17)
(0.0124591 -0.0114433 3.89341e-18)
(-5.58626e-05 0.000161165 -5.05882e-18)
(-3.87909e-07 -0.000237848 -6.68906e-18)
(-0.000155213 0.000769962 2.277e-17)
(0.000731242 0.00551727 -2.97098e-17)
(-7.19844e-05 -0.000313959 -3.3681e-19)
(9.55475e-05 6.88144e-05 3.19083e-19)
(0.0146473 0.00460817 -6.40464e-17)
(-0.0201514 -0.0138635 -3.68211e-18)
(-0.000343021 -0.00117913 -3.53152e-17)
(0.0148882 -0.000682407 6.37343e-18)
(0.00638554 0.00560823 -6.90566e-18)
(0.00217042 0.00177155 1.05577e-17)
(-0.00307556 0.0172184 9.99151e-18)
(-3.79782e-05 0.000355233 -1.47718e-18)
(-7.95125e-07 -8.96616e-05 3.20812e-18)
(1.32624e-05 0.000184548 -2.55941e-18)
(-0.0169613 -0.00534227 1.51075e-17)
(-0.000844005 -0.000565968 1.06485e-17)
(-8.56855e-05 -0.000325091 1.96791e-18)
(3.53276e-05 -2.37179e-05 1.13975e-18)
(-0.0425734 -0.00905567 6.76567e-19)
(-0.000831015 0.00105166 -6.82189e-18)
(0.01153 -0.00350551 -3.37635e-18)
(0.0278897 -0.00304687 -1.90681e-17)
(-0.00559812 -0.0230243 -4.44336e-18)
(-0.00518219 -0.0236764 -6.92943e-18)
(-0.0301286 0.00131064 4.08709e-17)
(-0.000241041 -0.000260092 -1.38523e-18)
(0.0205162 0.0437189 1.01801e-17)
(1.06433e-05 0.000217186 -1.70479e-18)
(8.33093e-05 -7.61632e-05 1.00918e-19)
(-0.000495866 0.00224724 -6.80648e-18)
(7.41295e-05 1.24922e-05 -1.95807e-20)
(-0.0249031 -0.00121764 -2.53733e-17)
(-0.00404764 -0.0205026 -4.50391e-18)
(0.0121693 -0.00914892 -1.58087e-18)
(8.88825e-05 -8.62095e-05 2.10292e-19)
(-0.000353951 -0.000276388 6.03516e-18)
(0.0120562 -0.00772368 -1.85551e-18)
(-0.0145812 0.0136293 -1.56091e-17)
(-0.00272133 0.00137242 -4.32605e-17)
(-0.000182734 -0.000268804 -4.68542e-18)
(-0.00106498 -0.000544709 1.68573e-18)
(0.0100752 0.000202961 -5.93771e-17)
(-0.0216901 -0.0149102 1.25202e-17)
(-0.00540636 -0.00847874 -9.51213e-18)
(-0.000107287 -7.62856e-05 -4.22011e-18)
(3.17799e-05 0.000288872 -8.74475e-18)
(3.90453e-05 -0.000152542 -1.77584e-19)
(0.0050025 0.00621861 2.64607e-17)
(-0.000896079 -0.000476278 -2.88819e-18)
(0.0282711 -0.00160381 -7.97254e-18)
(5.02805e-06 0.00033763 -8.19047e-18)
(-6.29479e-05 -0.000317871 -2.00858e-18)
(0.0135623 0.00398111 -4.58436e-18)
(-0.00461125 -0.00823322 6.90525e-18)
(-1.37555e-05 -2.78102e-05 4.93332e-18)
(2.36908e-05 0.000112231 -1.76317e-18)
(-8.50833e-05 0.00037813 4.54306e-17)
(0.00895244 -0.0139175 9.64387e-18)
(-0.02407 0.0136995 1.04481e-17)
(0.0113753 0.0200584 1.42955e-17)
(-0.000628594 -0.000404815 -8.37635e-19)
(0.000294757 0.00401843 5.78601e-18)
(-0.0239999 0.0131007 -2.76595e-17)
(-3.69259e-05 0.000149075 -8.40035e-18)
(-0.00031801 -0.000911738 1.69975e-18)
(0.0110819 -0.0157508 -2.15128e-18)
(5.52908e-05 0.000303599 -9.39561e-18)
(0.0123674 0.0101614 -5.89752e-18)
(-2.64801e-05 -0.000138277 -3.72513e-19)
(0.0112276 -0.0143235 -1.79129e-17)
(2.37389e-05 -8.40594e-05 2.2246e-19)
(0.00102641 0.00011999 -3.64701e-17)
(-7.21783e-05 -0.000303776 9.08987e-20)
(-9.52043e-06 0.000180327 2.20571e-18)
(-0.0174957 -0.0061636 6.21049e-18)
(-4.41656e-06 0.000166976 -2.80763e-18)
(0.000230508 6.58671e-05 6.31353e-18)
(8.9385e-05 -8.43708e-05 -1.71494e-19)
(-0.00962757 -0.00316283 -2.44138e-17)
(0.0318533 -0.00145177 -6.7228e-19)
(-0.0239572 -0.00275338 4.4945e-17)
(-0.000130852 -7.97381e-05 -3.60296e-18)
(-0.000183286 -0.000924501 -1.35291e-18)
(1.83167e-05 -9.26043e-05 2.67335e-18)
(-0.000169519 0.000690668 1.20152e-17)
(1.26225e-05 -0.000179619 7.25267e-19)
(0.000911363 9.41089e-05 3.58092e-17)
(0.00607545 -0.00588299 -1.62829e-17)
(-0.000110302 -6.85068e-05 2.60574e-18)
(5.06059e-05 0.000304756 9.07748e-18)
(5.47134e-06 0.000377726 -2.70551e-18)
(0.0130734 0.0181183 -2.89916e-17)
(8.70555e-05 -6.79299e-05 1.08969e-18)
(0.00412807 0.00215263 -2.44292e-17)
(0.00778472 0.0214371 1.1913e-18)
(-0.00321394 -0.00293853 4.93414e-18)
(2.183e-05 -2.62435e-05 -4.7238e-19)
(0.00432365 0.000442673 -5.74576e-18)
(0.0384442 0.000858981 -1.32688e-17)
(-0.0399229 -0.0205494 4.19013e-18)
(0.0125246 0.00963353 6.27989e-18)
(-0.000367685 0.000389502 -5.84469e-18)
(-2.85981e-05 0.000816297 1.32902e-17)
(-0.0157324 -0.00556838 6.06967e-18)
(-0.000368302 -0.000232599 -1.41967e-17)
(-0.00233084 0.00105933 -5.07412e-18)
(-0.00024976 -0.000258746 -1.79307e-18)
(-0.0267521 -0.00446306 7.82057e-19)
(-0.00713808 0.00693501 -1.7792e-17)
(0.000126522 8.58564e-06 7.21439e-20)
(-0.000179417 7.98965e-05 3.11883e-18)
(0.0146504 0.00317159 1.448e-17)
(-0.0433489 -0.00778651 -2.13497e-18)
(-0.0581174 0.0015785 2.91466e-18)
(4.94061e-05 -0.00013715 -2.86872e-19)
(-1.76743e-05 0.000474072 -3.97926e-17)
(-1.3148e-06 -0.000236773 2.90666e-18)
(-0.00733367 -0.0127148 2.64844e-17)
(-0.0101789 0.0163542 -1.23365e-17)
(-0.000213179 7.05737e-05 1.30958e-17)
(-0.00103033 0.000963436 -2.39677e-17)
(-0.00691079 0.00782954 1.77017e-17)
(-4.77877e-06 0.000167523 -1.95191e-18)
(-0.000126819 0.000198413 -6.79399e-17)
(0.00854673 -0.00299185 6.66627e-18)
(-0.0441992 0.00614285 -4.41929e-18)
(-7.16074e-06 0.000174228 -1.22541e-18)
(-2.99247e-05 0.000141887 -8.17383e-19)
(-0.00014697 -5.04265e-05 6.50002e-18)
(0.0045309 -0.017343 -1.78982e-18)
(0.00415963 0.000158787 -4.34848e-17)
(-0.00127357 7.84455e-06 1.12308e-17)
(6.14768e-05 6.58932e-05 4.18819e-19)
(-0.0168582 0.0125961 1.03825e-17)
(-0.00657067 0.0172184 -7.39462e-18)
(-0.00198254 -0.00792512 2.85886e-18)
(-0.00106628 0.000836632 2.07446e-17)
(0.00846129 -0.0156375 -1.65519e-18)
(0.0136411 0.00478465 4.62041e-18)
(-0.000143988 0.000237533 5.98755e-19)
(-0.000491078 -0.000277156 -3.80296e-18)
(-0.00536908 0.00385518 2.04004e-17)
(2.92186e-05 -0.000177314 -3.97681e-20)
(1.51348e-05 0.000175339 -1.1203e-18)
(-0.00274812 -0.00824458 -1.6302e-18)
(0.00090638 -0.00117777 -1.94e-17)
(7.98582e-05 -2.91848e-05 8.97899e-19)
(3.59369e-05 -7.54579e-05 1.66184e-18)
(1.2362e-05 -0.00018685 -1.10889e-18)
(0.000104495 -7.95239e-06 -3.35323e-20)
(-0.000491864 0.000158091 -7.70967e-18)
(1.19606e-05 0.000166039 4.07591e-18)
(0.00748574 -0.0174687 1.08044e-17)
(-0.00108195 0.000158348 -3.31184e-18)
(-3.1972e-05 3.89003e-05 6.18693e-19)
(-0.0433578 -0.00620299 5.79629e-18)
(0.0352611 0.000261396 5.13143e-18)
(-1.80413e-05 0.00030615 -5.58921e-18)
(-0.00981858 -0.00415236 2.23533e-17)
(-0.0224008 0.00364939 1.51637e-17)
(-6.84515e-05 0.000128645 5.53057e-18)
(-1.59572e-05 0.000312253 2.97025e-18)
(-0.0011569 0.000281998 -7.96836e-18)
(0.034712 -0.000801002 9.81404e-18)
(-0.017051 -0.0218011 1.5494e-17)
(-0.00162372 0.00239665 -2.69464e-17)
(6.65258e-05 1.05753e-05 2.67529e-19)
(0.021772 0.0448124 5.18545e-18)
(4.60287e-06 0.000187776 9.78047e-19)
(-0.00155746 0.00300423 2.58143e-18)
(-0.0237609 0.00415324 2.40025e-18)
(-0.0441006 -0.00198989 1.23148e-17)
(-8.0123e-05 -0.000310369 -1.35167e-18)
(-0.00357035 0.00319277 -1.73179e-17)
(-0.0174855 -0.0139202 4.50681e-17)
(0.01379 -0.00782911 2.00396e-18)
(0.00686009 0.0049356 2.61664e-17)
(-7.60794e-05 0.000190501 1.06892e-17)
(-0.020908 -0.00442563 2.2352e-17)
(0.0307346 0.00114713 -1.19742e-19)
(-0.0306878 0.0338638 5.92451e-18)
(2.61733e-05 0.000127696 -1.11779e-18)
(0.0156919 0.0012944 5.35255e-17)
(-0.0361946 -4.44383e-05 3.05477e-18)
(0.000381482 0.000618422 7.29304e-17)
(0.000363278 0.000661368 -5.12545e-17)
(-1.35496e-05 0.000136857 1.27348e-17)
(-0.000835938 0.00257078 -1.20844e-20)
(-0.000231821 -0.00017373 -6.00759e-18)
(-0.0525491 -0.0025612 -5.28421e-18)
(-0.000127295 0.000257819 1.40687e-17)
(0.000132792 2.1099e-05 1.04163e-19)
(0.000199012 -8.45096e-06 7.51575e-19)
(7.91909e-05 -1.17148e-05 9.19019e-18)
(0.0137181 -0.00655283 -2.79386e-17)
(0.000299936 6.82331e-05 -1.86249e-18)
(2.6257e-05 -0.000172762 -3.44559e-19)
(-0.0258947 -0.00170465 3.74164e-18)
(-0.00021634 -0.000158352 2.80468e-17)
(0.000325815 0.000249934 -7.60465e-18)
(-9.58235e-05 -0.000347025 -3.10606e-18)
(0.0345732 -0.000285172 -1.26993e-17)
(-0.0171608 0.0106761 -4.7064e-18)
(0.0142718 0.00606856 -1.71504e-18)
(-5.94196e-05 -0.000320152 -3.20268e-20)
(2.95236e-05 0.000309943 8.11099e-18)
(-0.037994 0.00607738 -2.0826e-19)
(6.85114e-05 0.000262978 1.52964e-17)
(-0.00472177 0.0184889 7.00934e-18)
(-0.000152122 0.000218368 3.27763e-18)
(-0.00107284 0.000424179 2.3289e-18)
(-0.000208945 -0.00011496 -8.79763e-18)
(3.76258e-06 -0.000232859 1.5644e-18)
(-2.67775e-05 1.92826e-05 -1.16431e-18)
(0.00723143 -0.00408877 -2.44837e-18)
(-0.00441117 -0.00344931 3.79588e-17)
(-0.00848395 0.00562159 4.80568e-18)
(-0.0199201 -0.0128134 6.70387e-17)
(-0.0382567 0.00557412 -5.64522e-18)
(-6.78765e-05 -0.000301711 1.10941e-18)
(0.00967072 0.0196364 1.76988e-17)
(-0.0105613 -0.0142727 -4.60067e-18)
(6.0666e-05 8.23967e-05 -7.01006e-19)
(-0.0356611 -0.00601915 -3.71974e-18)
(-0.00547616 -0.00147295 -2.61335e-18)
(-0.00909186 0.0062632 3.34691e-18)
(8.11703e-05 4.32448e-06 -1.34135e-18)
(0.00124875 0.0051642 1.6098e-17)
(0.0264064 -0.0127651 -1.62436e-17)
(-0.0340436 -0.0308304 -3.78865e-17)
(0.0055882 -0.00486736 -2.54387e-17)
(-0.0463096 -0.00380437 -1.12267e-17)
(2.81793e-05 8.13583e-05 -3.84553e-18)
(-0.0045531 -0.0211297 4.70005e-18)
(0.0164134 0.00182153 2.90084e-17)
(-0.000102355 0.000442727 1.86811e-17)
(-0.0257498 -0.00652628 -1.16334e-17)
(-5.95191e-05 0.000574053 -4.15294e-18)
(0.00345993 0.0243598 2.54126e-17)
(-0.00047396 -0.000261839 -1.76568e-18)
(-0.000891928 0.000500295 1.70468e-18)
(-0.00501402 0.00817509 1.06354e-17)
(-0.00551208 -0.00746708 4.74394e-17)
(1.03465e-05 -7.36895e-05 -6.54315e-18)
(-8.23041e-05 0.000288266 1.0999e-17)
(0.00104831 -0.00141714 -8.76866e-18)
(-0.000327819 -0.000280233 1.41773e-18)
(-1.37292e-06 8.80355e-05 2.20348e-19)
(-0.00131203 -9.29544e-05 -3.40584e-18)
(0.00177111 -0.0116378 4.64721e-18)
(-1.34249e-05 0.000205873 7.36412e-18)
(-0.000478299 -0.000982679 3.30003e-18)
(0.00705791 0.00015169 -1.21885e-16)
(2.39523e-05 0.000277914 2.76807e-18)
(-0.0110988 -0.00543502 4.73912e-17)
(0.000214162 0.000124063 -3.33475e-18)
(-0.0235557 -0.0227798 -4.50997e-17)
(6.30214e-05 0.000338606 7.60161e-18)
(0.00178445 0.00222046 -9.43234e-18)
(0.000481396 0.00351452 -1.66164e-17)
(-0.0119477 0.0168064 2.00971e-17)
(-0.000521384 0.00129303 1.57327e-17)
(-0.0599857 0.001258 -1.29425e-18)
(0.0390404 0.00114719 1.73801e-17)
(0.00325501 0.000324938 1.92937e-17)
(9.08724e-06 0.00015891 1.55279e-18)
(0.00721045 -0.00348422 1.44404e-18)
(9.96625e-05 0.000629325 -2.65675e-17)
(0.00139665 0.00440981 -4.15389e-20)
(6.42672e-05 -3.13839e-05 1.28084e-18)
(0.0129778 0.000693425 9.65354e-20)
(0.0178683 -0.00424378 -2.57268e-17)
(-0.0235387 -0.00810781 1.7341e-16)
(2.59196e-05 0.000301819 -7.13305e-18)
(-0.00584776 0.00843397 -1.16353e-17)
(0.00348863 -0.0225599 2.09451e-17)
(0.00419678 -0.000249007 3.51069e-17)
(8.7883e-05 -5.5797e-05 -2.23442e-19)
(0.0161183 0.00118336 -3.56561e-17)
(-0.00460999 -0.0107974 -5.25618e-18)
(0.0140842 -0.00315202 -4.96917e-17)
(-0.000264017 -0.000290961 -4.867e-18)
(0.00578213 0.0364544 -5.32088e-18)
(2.32102e-06 -1.66643e-05 2.05526e-18)
(7.24423e-05 1.00236e-05 -6.58798e-19)
(0.00214108 -0.00367115 -3.82029e-17)
(0.00124572 -0.0220649 -7.76353e-19)
(-1.11922e-05 -0.000228277 -9.73871e-19)
(-4.83592e-05 0.00020664 1.40036e-17)
(-0.000539787 -0.00096356 3.3958e-18)
(6.01296e-05 -5.55112e-06 1.00277e-19)
(0.0198007 -0.00666651 -1.91509e-17)
(-0.0011283 0.00259202 6.50095e-20)
(-0.00526188 -0.00114435 -1.8506e-18)
(-0.000201165 -0.000259169 -5.88366e-18)
(3.31081e-05 0.00010002 4.77584e-18)
(-1.07276e-06 0.000270467 1.83337e-17)
(-0.0193181 -0.0329811 7.75616e-18)
(-3.36235e-05 8.21491e-05 -7.38976e-19)
(-1.35309e-05 0.000241656 -1.38158e-17)
(-0.0349213 -0.0074457 2.66178e-18)
(0.00368847 -0.0117132 -3.30207e-18)
(-7.95116e-05 -0.000265891 -3.98604e-19)
(0.0230248 -0.0127528 2.48401e-18)
(-4.36531e-06 0.000320214 -1.30199e-18)
(1.74771e-05 0.000155847 -1.98444e-18)
(3.31634e-05 0.000287843 -4.39992e-18)
(-0.00842068 0.00649211 -6.04777e-18)
(-9.17072e-05 0.000449574 -1.00355e-18)
(-1.30362e-05 8.19396e-05 1.01408e-18)
(-1.74407e-06 0.000230353 1.67181e-18)
(-0.00198875 0.000115252 -2.46229e-17)
(-7.67053e-05 7.259e-05 -6.46621e-18)
(-0.014156 -0.0181093 2.14711e-17)
(5.89568e-06 0.000132024 2.55092e-18)
(-0.000271998 -0.000365608 6.52683e-19)
(-0.0362163 -0.0220744 -3.56164e-18)
(-0.000363603 -3.85226e-05 1.88778e-17)
(0.000160369 -6.37531e-06 -4.59531e-19)
(1.79747e-05 0.000263396 3.42641e-18)
(-0.00022332 -0.000242544 9.3564e-19)
(-2.1167e-05 -8.04971e-05 -6.46762e-18)
(-0.00170161 -0.00319471 -6.22206e-19)
(-0.042981 -0.00497936 -9.86798e-18)
(-0.000378363 0.000389427 5.00445e-18)
(0.000904374 -0.000323855 -4.83494e-18)
(3.36495e-05 0.000300848 -3.13892e-18)
(2.33102e-05 -8.9294e-06 3.11645e-18)
(0.0214 -0.00379361 -3.02432e-18)
(0.0244868 -0.0142358 2.90724e-18)
(-0.000191343 2.18708e-05 5.19235e-17)
(-1.72487e-05 0.000279787 -9.10279e-20)
(0.0323057 0.000447108 9.08964e-18)
(-0.00012295 -6.89823e-05 1.06536e-19)
(0.0116757 -0.00599606 2.86817e-17)
(-3.05811e-05 0.000260926 -1.49673e-18)
(0.000304267 0.000325763 -6.53108e-18)
(0.00642202 -0.00498031 1.91487e-17)
(-0.000295156 -0.000405986 -1.59094e-18)
(0.0281101 0.00119883 3.93861e-18)
(0.00477733 -0.0233064 -2.22462e-17)
(-0.0109897 -0.0119536 -1.51342e-16)
(-0.000102249 -0.00016741 4.93454e-18)
(0.00692645 0.00542969 -8.8291e-18)
(-4.33361e-06 0.000209718 -5.10024e-19)
(-0.0419489 -0.0101247 -8.52332e-18)
(0.00014806 3.55262e-05 6.09396e-18)
(-0.00407143 -0.00852105 -1.46643e-18)
(4.34051e-05 0.000598668 2.38614e-17)
(-4.85035e-05 -0.000313325 -1.83273e-19)
(-0.000330956 -3.50239e-05 2.26819e-17)
(-0.000713222 0.00230222 -1.13148e-18)
(6.32587e-05 1.23845e-05 -6.49619e-19)
(0.00452306 0.00196101 8.17029e-19)
(0.024601 -0.00275556 9.43322e-18)
(-0.0150222 -0.0169265 -3.51703e-17)
(-0.00154345 0.00402288 -6.42674e-17)
(-0.0414244 -0.00793355 -2.38822e-18)
(-0.0132674 -0.00365009 -3.4102e-17)
(-0.00838423 0.018205 2.01667e-18)
(-0.000127503 -0.000123239 1.43816e-17)
(2.67903e-05 -1.31533e-05 6.29464e-18)
(-0.0133684 0.00143692 -1.12913e-18)
(-8.01047e-06 -0.00022107 -3.96802e-18)
(-5.20101e-06 0.000105573 -9.78234e-20)
(-0.000159664 -9.44414e-05 -2.39854e-18)
(-0.0249797 0.000344785 -6.65242e-18)
(-0.000110427 5.66354e-05 -3.00123e-18)
(-6.69869e-05 0.000218475 -4.01118e-18)
(-0.00139331 6.88051e-05 1.24164e-18)
(0.00056243 0.00137377 5.94277e-18)
(3.19369e-06 -0.000230692 1.21585e-17)
(-0.0205895 0.00987464 -3.684e-17)
(5.79094e-06 0.000208451 -3.02569e-19)
(0.0205634 -0.000311894 1.35207e-17)
(-0.000687516 -0.00250589 -1.97935e-17)
(3.63866e-05 7.14512e-05 -2.91199e-19)
(-0.000122448 -0.000177437 2.17232e-18)
(0.0012545 -0.0142464 2.20577e-17)
(-0.0366733 0.00225923 2.62429e-18)
(8.00681e-05 -5.8374e-05 4.79976e-20)
(-0.0422279 -0.0216839 1.69799e-17)
(-0.0173558 -0.00427151 7.46307e-18)
(8.13963e-05 -0.000126838 -1.82357e-18)
(-0.00689088 -0.0119566 3.09725e-17)
(0.000120963 0.0202761 1.00292e-17)
(-0.0100426 -0.00144619 -9.13387e-18)
(-0.000110618 -0.000150161 3.90378e-18)
(-0.0324112 -0.0113067 3.54136e-18)
(0.0272797 0.00472999 1.2566e-17)
(7.36592e-05 -0.000131874 2.49455e-18)
(0.00779088 0.0081325 -7.41969e-18)
(-1.24474e-05 -0.000202529 -7.78384e-19)
(2.83676e-06 0.000210085 7.75484e-19)
(-0.00347969 0.0292668 -5.10366e-18)
(0.00198855 0.024981 2.7915e-17)
(0.000181742 0.000887247 -3.19331e-18)
(-0.000241159 0.00044425 1.03927e-18)
(-1.0888e-06 -0.000214203 -4.73534e-18)
(0.00130328 -4.41884e-06 -1.16246e-18)
(0.0214107 0.00135103 3.49652e-18)
(-0.0189987 -0.00482223 2.50237e-17)
(3.82618e-05 -9.64176e-05 8.85712e-19)
(0.000201313 -0.00308019 3.10532e-17)
(-1.37353e-06 9.70615e-05 -1.21282e-18)
(-1.04098e-05 -0.000223582 -1.11225e-19)
(-0.00061763 0.00133134 -1.54289e-17)
(-0.000280018 -0.000362908 -1.12758e-17)
(8.89654e-05 -6.90207e-05 7.6574e-19)
(-5.50838e-05 -0.0003293 4.68903e-19)
(-0.00952598 -0.0109787 -1.44153e-17)
(-0.00443251 -0.00772639 -5.38031e-18)
(-0.00772782 -0.0108337 1.24406e-17)
(-9.54861e-05 6.34935e-05 3.54099e-18)
(1.04827e-06 -0.000234387 2.52479e-18)
(0.00104035 -0.0193971 2.32851e-18)
(2.9852e-05 0.000168074 -3.3898e-19)
(0.00806864 -0.00191398 2.95434e-17)
(-0.000290544 -0.000322486 -2.14729e-18)
(-0.000320679 -0.000352968 7.92031e-18)
(-0.000259821 0.000452128 -4.84141e-18)
(-0.0455048 -0.0215001 -9.98662e-19)
(0.0109635 0.00611951 -2.39834e-17)
(-3.44144e-05 0.000313537 1.88375e-17)
(0.0149193 0.00231383 -2.28752e-17)
(-6.84522e-05 -0.00029788 1.24025e-18)
(0.000417878 0.00275416 1.25561e-18)
(-0.0411742 -0.0144332 4.99248e-18)
(0.00536071 -0.00776445 -4.65566e-18)
(-2.18627e-05 -8.28278e-05 -9.08264e-19)
(-1.33052e-05 0.000196609 3.55611e-18)
(-0.000171344 0.000238908 7.72562e-18)
(-0.00998646 -0.00971724 -1.19214e-17)
(0.0269328 0.00522951 -2.29131e-18)
(0.00115678 0.000139323 2.63478e-18)
(-0.00779534 0.000427213 7.91522e-17)
(-0.000278419 -0.000377202 1.59883e-17)
(-0.000427134 -0.00028091 8.33093e-18)
(0.00305549 -0.00708563 8.94045e-17)
(-0.027646 0.00884332 -2.70796e-17)
(-0.00180561 0.00034205 1.33437e-18)
(0.0221635 -0.00100691 -8.21361e-18)
(0.00118822 -0.0147326 -3.61827e-17)
(-0.0422695 0.000577125 -2.03188e-18)
(2.88546e-05 2.17793e-05 3.87167e-18)
(0.03594 -0.012124 -1.34389e-17)
(0.0131032 0.0322123 -1.79883e-17)
(-8.77995e-06 0.000136865 7.3085e-19)
(-0.0281914 -5.09669e-05 2.10549e-17)
(0.00442486 -0.00269407 -4.10877e-17)
(-0.000220436 -0.000270113 6.39126e-19)
(-0.00101889 -0.000716011 -8.71996e-18)
(-3.14256e-05 0.000190365 -4.00919e-19)
(0.00211477 0.000279809 -2.76334e-18)
(-0.00112285 -0.00121166 6.79408e-18)
(-0.00561626 -0.00590585 -2.74604e-17)
(-3.14551e-05 9.76303e-05 3.28546e-18)
(6.92455e-05 1.13417e-05 9.24607e-19)
(-6.39157e-05 -6.22437e-05 6.44821e-19)
(0.000621739 0.00125616 7.06603e-18)
(1.34292e-05 0.000136391 -7.26527e-19)
(-0.026688 0.000117682 -1.48642e-18)
(6.73573e-05 1.96047e-05 -1.701e-19)
(0.000429517 -0.0142123 3.39632e-17)
(-0.000104873 -0.000127074 6.00983e-18)
(0.00202768 0.00421718 1.76515e-18)
(-1.17058e-05 0.000267214 -1.23875e-17)
(2.66442e-06 -0.000232645 6.90754e-18)
(-0.000434463 -0.000576603 -1.03727e-17)
(-0.000939168 -0.0033887 -3.12824e-17)
(-0.000265409 0.00136274 3.05998e-19)
(-0.0254358 -0.00275983 -1.10738e-17)
(0.000341487 0.000284879 6.31871e-18)
(5.09077e-05 -1.68321e-08 2.644e-20)
(5.98381e-05 0.000114637 2.89909e-20)
(-0.000338458 0.002408 -3.76243e-18)
(4.70942e-06 0.000225973 -3.74469e-18)
(0.00373573 0.00374648 -5.25699e-17)
(-0.000104139 0.000105636 8.61833e-18)
(-0.000174006 3.55738e-06 -2.22922e-17)
(0.0338106 -0.00832069 -1.37221e-18)
(1.94396e-05 0.000164946 -1.26111e-18)
(-0.0576976 0.00341152 -6.43986e-18)
(2.24063e-05 -9.76742e-05 -1.5377e-18)
(0.00479953 0.00764859 4.97575e-18)
(0.0138108 0.00284422 -2.84933e-17)
(-0.0196512 -0.0269323 -8.17238e-18)
(-3.32723e-05 -6.09327e-05 -2.26486e-17)
(-0.0110372 -0.0027372 2.9689e-17)
(-0.00132709 0.000126401 -4.89814e-18)
(-0.00375905 0.000521964 6.38178e-18)
(0.00244227 -0.00110485 1.93943e-17)
(2.48741e-05 -8.02995e-05 -1.45577e-18)
(-0.0227055 0.00741798 2.41231e-17)
(-0.000229823 -0.000157654 -1.56696e-17)
(-9.72498e-05 0.000488297 -7.71753e-18)
(-6.27983e-05 0.00439704 -8.86005e-17)
(0.00984984 0.00845812 -2.03788e-17)
(6.39199e-05 8.99916e-05 2.62614e-19)
(0.0036405 0.00341564 5.07288e-17)
(-9.80822e-06 -5.23871e-05 -6.54371e-18)
(-0.0422552 3.77264e-06 2.60161e-18)
(-0.0286945 -0.000364592 -1.89687e-17)
(-8.19102e-06 -0.000264002 3.49718e-19)
(-7.38252e-05 0.000388713 1.23488e-17)
(0.0296306 0.00462752 -1.56294e-17)
(2.04059e-05 -0.00012773 -1.78277e-18)
(2.51747e-05 -0.000130586 -6.44979e-18)
(0.00235421 0.00279158 -4.90639e-18)
(-0.0585654 0.00282483 4.87172e-18)
(-0.0168089 -0.0138998 -1.05282e-17)
(-9.13251e-06 0.000306617 -4.74681e-18)
(-0.00329547 0.00872682 2.11033e-17)
(-7.20281e-05 7.84325e-05 9.5949e-18)
(6.89501e-07 -0.000244185 4.65746e-18)
(0.0374722 -0.00272209 -2.952e-17)
(-0.0041918 0.00910076 -2.48122e-17)
(-0.00317124 -0.00420072 2.29601e-17)
(0.000100313 -4.90507e-05 -6.95808e-19)
(0.00773366 -0.00399253 1.6651e-18)
(-0.000425111 0.000223538 -1.29016e-17)
(0.000983453 0.00200059 -7.04003e-18)
(-2.00777e-05 0.000333663 9.34633e-19)
(-5.78855e-05 -0.000298081 2.42131e-18)
(-0.00104485 -0.00108632 3.47049e-19)
(-6.48642e-05 -4.6792e-05 -9.54566e-18)
(0.0102403 -0.00293208 1.59393e-18)
(-0.0014865 0.000168912 8.62258e-18)
(-0.00138085 0.00048136 1.40783e-18)
(-0.00166753 0.000342043 7.77919e-19)
(-0.00560923 0.00350712 -3.05945e-17)
(0.00356054 0.0189336 1.19078e-17)
(-0.026111 -0.0238782 -6.83678e-18)
(-0.0469718 -0.0250379 -2.69439e-17)
(0.0137691 -0.000824917 3.24316e-18)
(0.0294475 -0.00418817 -4.67976e-18)
(-0.0005418 -0.000163786 2.24151e-18)
(-0.01328 0.0254956 6.74884e-18)
(-0.0104608 -0.0024443 9.5154e-18)
(5.53746e-05 4.14095e-05 2.8526e-19)
(-0.000396639 -0.000238178 2.52256e-18)
(0.00209792 0.0171249 -1.40816e-18)
(9.01469e-06 -0.000116783 -5.39806e-18)
(3.8055e-05 8.08871e-06 1.33519e-18)
(4.21203e-05 7.42081e-06 5.03702e-19)
(0.00586261 0.00627346 6.43608e-19)
(-0.048641 -0.00283059 1.01919e-17)
(-0.000273329 -0.000352262 1.60182e-18)
(0.00598884 0.0203172 -6.62268e-18)
(5.40915e-05 1.63068e-05 -2.19665e-19)
(-0.0270754 -0.0181809 -4.35703e-18)
(-0.00134427 0.000934567 -4.54867e-19)
(-0.0242381 0.00298809 -6.08285e-18)
(0.00388472 0.00292421 2.23798e-17)
(8.19013e-05 0.000359474 -1.18826e-17)
(-9.32105e-05 0.000141533 -6.88532e-18)
(-0.025779 0.00319098 3.87488e-17)
(-0.0027711 -0.00477266 3.02823e-17)
(-0.000508128 -0.000179726 -2.02579e-18)
(0.00233207 -0.0229802 4.02873e-18)
(3.58327e-05 0.000102772 -1.07804e-17)
(-0.0102402 0.000263401 1.34685e-17)
(0.00568739 0.00691271 -5.23987e-18)
(-0.000765088 -0.0143225 -6.10711e-19)
(0.000227419 0.000544189 2.18055e-17)
(-0.00471322 -0.0174009 -4.15395e-17)
(5.01624e-07 -1.87715e-05 9.27766e-19)
(2.02623e-05 -0.000103308 -1.78152e-19)
(-2.93045e-05 0.000181894 1.23404e-17)
(5.23002e-06 -0.000233118 -3.47668e-18)
(-0.0387102 -0.0167438 -6.85636e-18)
(9.84972e-05 -8.51718e-06 -8.0048e-19)
(0.033709 -0.000978331 2.6278e-17)
(0.00532535 -0.0180405 5.34841e-18)
(0.00430576 0.00288596 -2.20917e-17)
(-0.0193264 -0.00486203 5.18371e-17)
(-0.0047558 0.00628557 -3.26969e-17)
(-0.00159117 -0.0147679 -3.11592e-19)
(-0.00460212 0.000839205 -2.98812e-17)
(-5.55846e-05 -6.17663e-05 1.15359e-17)
(-2.11828e-06 0.000181131 1.87198e-20)
(-4.53009e-05 8.99433e-05 -2.04437e-18)
(0.000104143 5.87835e-05 -1.10906e-18)
(5.11443e-05 0.000118168 4.19637e-19)
(6.1895e-05 2.00814e-05 1.07696e-18)
(5.7952e-07 0.00289853 7.31961e-18)
(0.0051136 0.00682703 -3.11906e-18)
(-0.000464993 0.000279577 -2.24984e-18)
(-0.0382707 0.0258604 1.23715e-17)
(-2.33845e-05 -0.000294752 -1.43011e-20)
(0.0104008 -0.0157695 6.31916e-18)
(-7.08172e-06 -4.74316e-05 -9.01817e-18)
(0.00429025 -0.00262368 -5.38611e-17)
(0.000595744 -0.000149278 -1.14962e-17)
(-7.57799e-06 -9.35573e-05 9.92134e-18)
(2.30788e-06 0.000394684 5.36722e-18)
(-0.0152208 -0.0266049 -2.74465e-18)
(2.58795e-05 0.000352476 -9.91049e-19)
(-0.0255229 -0.0389822 1.70616e-17)
(0.00451816 0.000590899 2.4836e-17)
(-0.00086913 -0.000678438 -4.25574e-18)
(-0.00303699 -0.000256394 2.60003e-17)
(9.43821e-05 -0.000126488 8.20544e-19)
(0.0136859 -0.00201604 -5.77312e-18)
(-0.00011939 -0.00027547 1.14385e-17)
(-0.000106573 8.35213e-05 4.55997e-18)
(0.0373441 -0.00666166 4.85744e-18)
(4.79551e-06 0.000182358 -2.62695e-18)
(-6.19707e-05 0.0001872 3.57578e-18)
(2.6651e-05 9.55442e-05 7.86939e-19)
(0.000173037 -0.000213682 3.67579e-18)
(-0.0360528 -0.00398081 -7.16736e-18)
(0.00021023 0.000282615 2.10505e-17)
(0.000157471 0.00059428 9.89802e-18)
(-0.00622287 -0.0102677 3.69912e-17)
(-0.0199671 -0.00450755 -3.65896e-17)
(-6.16721e-05 -6.55375e-05 6.21487e-18)
(-0.00018959 -0.000282672 2.54124e-19)
(-0.0439491 -0.00778227 -6.49779e-18)
(0.000111363 5.55664e-05 -6.19233e-19)
(-0.0437477 -0.00631217 3.24406e-18)
(5.87425e-05 -6.27301e-07 -2.34095e-18)
(-8.21396e-05 4.97486e-05 -7.56291e-19)
(0.00242848 0.0212197 8.42208e-17)
(0.00157132 -0.00387119 -1.70612e-17)
(-0.00134861 -0.0093678 -7.90428e-18)