/*--------------------------------*- C++ -*----------------------------------*\
| =========                 |                                                 |
| \\      /  F ield         | OpenFOAM: The Open Source CFD Toolbox           |
|  \\    /   O peration     | Version:  v2012                                 |
|   \\  /    A nd           | Website:  www.openfoam.com                      |
|    \\/     M anipulation  |                                                 |
\*---------------------------------------------------------------------------*/
FoamFile
{
    version     2.0;
    format      ascii;
    class       surfaceScalarField;
    location    "50";
    object      meshPhiCN_0;
}
// * * * * * * * * * * * * * * * * * * * * * * * * * * * * * * * * * * * * * //

dimensions      [0 3 -1 0 0 0 0];
oriented        oriented;


internalField   nonuniform List<scalar> 
20580
(
-0.000132246
0.00014792
-1.56599e-05
-0.000327618
0.000144998
0.000183112
-1.20641e-05
-0.000314824
7.28783e-05
-9.55489e-05
2.26706e-05
2.64016e-05
1.97642e-05
-2.97707e-05
1.90179e-05
0.000274955
-0.000293495
-0.000206355
0.000322923
5.17496e-05
3.05724e-05
-5.39013e-05
-3.65747e-05
-4.49214e-05
8.14963e-05
-8.45132e-05
0.000469234
-0.000383541
0.000126079
-0.000215732
8.97046e-05
-6.25115e-05
-0.000255551
0.000322459
0.000377122
-7.04217e-05
-0.000306171
-2.81719e-05
7.22795e-05
-4.41078e-05
-0.00013209
0.000247749
-0.000115511
-0.000118639
-2.11552e-05
0.000139805
-9.21314e-05
6.95137e-05
2.26178e-05
-0.000441063
0.000135948
0.000307841
-7.76974e-05
-5.06385e-05
0.000128341
4.03252e-05
-0.000172557
0.000272526
-0.000105572
-0.000166813
0.000109666
0.000199265
-0.000308531
-9.52707e-05
4.57374e-05
4.95336e-05
1.84317e-05
6.89956e-07
-1.58295e-05
-0.000113647
2.67965e-06
0.00011097
-0.000212635
0.000129723
8.29569e-05
-0.000137645
9.15989e-05
4.60495e-05
-4.30064e-05
-6.962e-05
0.000112629
-9.94242e-05
5.42151e-05
4.52093e-05
9.12905e-05
0.000323972
-0.000407551
-1.29759e-05
8.57278e-05
-7.27516e-05
0.000145447
-0.000351032
0.000135134
2.65719e-05
-0.000161691
4.18551e-05
5.55475e-05
-9.74022e-05
-0.00015153
-4.96228e-05
0.000201229
9.56296e-05
-0.000113339
1.77095e-05
2.92801e-09
1.98948e-05
-0.000127443
7.54698e-05
5.19747e-05
7.59872e-05
2.1668e-05
-9.76549e-05
0.000443815
-0.000353865
-8.83644e-05
8.05416e-05
-0.000101715
2.1174e-05
-4.4742e-05
-5.46819e-05
-4.8678e-05
-2.73194e-05
-0.000146622
0.00011839
2.82355e-05
-7.06035e-05
-2.07553e-05
9.13591e-05
8.75075e-05
0.000326331
-0.000409965
6.43303e-05
-0.000120424
-4.65203e-05
0.000119978
-7.34481e-05
0.000432372
-0.000189578
-0.000241916
1.84956e-05
0.00035895
-5.58567e-05
-2.01407e-05
7.59974e-05
0.000448064
-0.00013052
-0.000317036
3.64279e-05
-0.000155055
-0.000283591
0.000216283
6.75473e-05
5.7795e-05
-9.40339e-05
3.62389e-05
0.00031364
0.000131339
0.000144917
-9.7697e-06
5.33284e-06
7.52089e-05
-0.000142436
7.69944e-05
6.5445e-05
8.1898e-05
6.07071e-06
-8.79686e-05
0.000255404
-0.000313186
-9.60876e-05
-4.15527e-05
0.000417141
-0.000430068
1.37794e-05
0.000183277
0.000249794
0.000142411
-6.39356e-05
-7.84693e-05
8.89283e-05
5.34867e-05
1.03961e-05
7.15019e-05
2.37931e-05
-0.00012892
0.000153704
0.000260223
-0.000412152
-9.13954e-05
7.79442e-05
1.34513e-05
-5.27395e-05
7.88804e-05
-2.61408e-05
-0.000125436
-7.97918e-05
0.000205315
-0.000446877
0.000299142
0.000149017
-7.15792e-05
7.76499e-05
0.000122218
-0.000265582
0.000143572
0.000153112
0.000177874
-0.000330433
-2.04899e-05
-7.16415e-05
-0.000476089
8.15034e-05
0.000408484
1.82945e-05
-0.000131939
8.22639e-05
-0.000451097
0.000373199
-0.000228121
0.00038352
-0.000127784
-2.92697e-06
0.000130717
-0.000268184
0.000116753
6.98593e-05
1.85691e-05
-8.84281e-05
1.44425e-05
-8.60217e-05
5.99274e-05
4.43767e-05
-0.000104304
0.000295134
-0.000185113
-2.17561e-05
7.48637e-05
-5.31076e-05
0.000406424
-0.000396133
-8.65516e-06
-7.24619e-05
5.94862e-05
6.62888e-05
0.000382042
-0.000162436
0.000308576
-4.29665e-05
-3.30307e-05
-2.47847e-05
8.47122e-05
-0.000100776
1.9053e-05
8.17236e-05
9.55229e-05
-0.000133166
3.76474e-05
-0.000596211
0.000244208
0.000355424
8.87044e-05
7.64395e-05
-0.000165131
-4.64445e-05
-3.0385e-05
7.68295e-05
-0.000166767
8.71468e-05
7.96317e-05
-4.91779e-05
0.000137893
-7.12889e-05
0.000195771
-0.000124467
-0.000185992
2.6863e-05
0.000159153
0.00040015
-0.000452814
5.35186e-05
-0.000158126
0.000404
-0.000242082
-0.000236839
3.3173e-05
0.00020375
-0.000452309
0.000298526
2.0611e-05
-7.33504e-05
-0.000317199
0.000155501
-0.000106247
-0.000331917
-0.000294146
0.000109089
0.000185233
-0.000367081
0.000458808
-0.00013044
-2.93911e-06
0.00013339
0.000196692
-0.000134755
-6.18935e-05
-9.67062e-05
-5.15129e-05
0.000148233
-0.000193387
-8.99151e-05
-0.000444841
0.000189355
0.000265105
-4.05249e-05
0.000121635
6.55167e-05
7.36152e-06
-1.99443e-05
-7.1451e-05
-0.000148996
2.92834e-05
0.00011972
0.000482316
-4.13076e-05
-0.000435723
-0.000249816
-8.35056e-05
0.000334638
7.18621e-05
-9.45529e-05
2.26908e-05
-0.000145448
1.74488e-05
0.000128006
0.000135126
-9.78827e-06
-0.000125336
-0.000172811
-0.000419719
0.000202691
-0.000143405
-5.92343e-05
-5.28124e-05
9.62495e-05
-4.34369e-05
-0.000220773
0.000205682
1.51765e-05
-0.000109127
0.000308757
0.000279907
2.29289e-05
-0.000302622
-6.38655e-05
-6.3575e-05
-5.83794e-05
0.000100235
0.000184209
-5.80873e-05
-9.69835e-05
4.54236e-05
5.15601e-05
-0.000137878
-3.03777e-05
7.47546e-05
-0.000236068
9.41511e-05
0.000141948
0.000149531
-0.000256585
0.000107154
2.62564e-05
-0.000154033
7.28428e-05
0.000264383
-0.000336735
0.000448065
-4.03932e-05
-1.4976e-05
0.000115829
-0.000100848
-0.000133231
7.1611e-05
6.1622e-05
-0.000369766
0.000199411
0.000170928
-4.06622e-05
-0.00042108
6.09432e-05
-3.08426e-05
-4.86667e-05
7.95094e-05
0.000165573
3.71535e-05
-0.000127721
7.85521e-05
4.05839e-05
-0.000171011
0.000131514
6.52146e-05
6.79808e-05
7.59379e-05
-0.000143912
0.000300367
-0.000426967
0.000127034
-0.000457429
0.000391596
6.63582e-05
-0.000331022
0.000351341
-1.42724e-05
1.70669e-06
7.42807e-05
-1.08642e-05
0.000147933
-0.000136991
-0.000374883
0.000199536
0.000176038
4.18965e-05
-3.83193e-05
8.94414e-07
7.43965e-05
2.79353e-05
-0.000102332
-2.68494e-06
-0.000234063
-0.000150827
0.00010432
-7.76636e-05
4.94914e-05
-7.16774e-05
8.62827e-05
-1.46051e-05
3.3406e-05
-0.000105083
3.11536e-05
-8.70103e-05
-0.000192923
-0.000101027
-5.5529e-05
-4.47934e-05
0.000100323
3.47449e-05
0.000263058
-0.000293167
-8.45406e-05
-0.000347271
8.77717e-05
0.000118235
-0.000205947
-2.08861e-05
5.06199e-05
-1.7147e-05
-9.32783e-06
-9.14484e-05
9.95345e-05
-0.000137408
3.78779e-05
-0.000117962
-1.77237e-05
0.000135695
-0.000403389
0.000330435
0.000159193
0.000109286
-0.000268275
3.93315e-05
-0.000157283
4.82427e-06
-0.000150266
-5.10946e-05
0.000275334
-9.87634e-05
-0.000176369
5.5882e-05
-0.000276533
-2.58605e-05
-5.01368e-05
-7.11356e-05
4.02931e-05
-0.000113463
0.000140048
-0.000281882
0.000241754
4.01801e-05
-0.000272017
0.000438533
-0.00016601
-0.000530609
0.000422752
0.000113843
-7.55095e-05
-5.77189e-05
0.000200597
-0.000211347
5.86184e-06
6.64177e-05
-0.000269343
0.000288824
-0.000147329
-0.000221828
6.02042e-05
0.000103628
-0.000163819
1.53816e-06
-0.00011499
-0.000353818
0.000435218
-7.92286e-05
0.000456208
-7.23839e-05
-0.000381736
0.000184083
-8.85082e-05
-9.55695e-05
9.58395e-05
4.80732e-05
-0.000143906
0.000101399
-3.58254e-05
-6.55734e-05
6.14801e-05
3.98044e-05
-0.000101284
-0.000249468
0.000117536
-8.68573e-05
7.66689e-05
1.01889e-05
8.14351e-05
1.9964e-05
-0.000188313
-0.000132459
0.000320838
0.000209325
2.39746e-05
-0.000233212
3.99701e-05
-9.13364e-05
5.13665e-05
-0.000249959
0.000315247
-6.4883e-05
-0.000139048
1.02731e-06
0.000138032
9.94903e-05
-0.000348047
0.000122101
4.0302e-06
-0.000138713
0.000136401
-0.000214104
8.03701e-06
0.000206147
-8.01658e-05
-0.000210542
0.000291118
0.000394466
-0.000375622
-0.000139906
7.06389e-05
6.92727e-05
0.000435409
-0.000431739
-1.53439e-06
-2.21854e-05
-4.94835e-05
-0.00034429
-4.65367e-05
0.000102155
6.18242e-05
-0.000163965
-1.26737e-05
8.25331e-05
6.56226e-05
3.5429e-05
-0.000101051
0.0002643
-8.21735e-05
-0.000182067
-2.48886e-06
0.000211895
4.96574e-06
-6.46375e-05
6.19408e-05
-0.000130023
0.000115054
0.000443843
-4.70183e-05
-0.000392381
-0.000263629
-0.000103055
8.16959e-05
2.13591e-05
-0.000202723
-7.90823e-05
-0.000329761
8.03316e-05
-1.83962e-05
-0.00037016
8.55538e-05
-2.40735e-05
0.000472704
-0.000372907
-5.10834e-05
-4.41866e-05
4.24885e-05
4.99337e-05
-9.2422e-05
-7.96283e-05
-8.71245e-05
4.25355e-05
1.74553e-06
-0.000118816
-4.32785e-06
0.000123146
7.00945e-05
1.03815e-05
-8.0476e-05
-0.00010782
3.72174e-05
-0.000160192
0.000222083
7.88826e-05
-0.000300763
-9.87894e-05
-1.19068e-05
0.0001107
-6.7497e-05
-7.24022e-05
0.000264859
-0.00010547
-3.93078e-05
-9.38526e-05
0.000137832
0.000131153
-0.00026883
-9.28686e-05
3.06385e-05
6.22301e-05
0.00015261
2.02523e-05
-0.000172848
-8.1573e-05
3.52515e-05
7.56221e-05
0.000326591
-0.000265264
-6.08786e-05
0.000136654
-1.21269e-05
8.65236e-05
7.75251e-05
-9.41886e-05
1.66636e-05
-0.000190664
-0.000333988
-2.94598e-06
0.000396277
-0.000393359
-1.74621e-06
7.56391e-05
6.63651e-05
-0.000141996
0.000113119
4.40811e-05
-0.000157193
0.00019208
0.000134802
-0.000208094
0.000205489
6.73046e-06
0.000145893
0.000523265
-0.000140043
-0.000381497
-0.000171263
9.99855e-05
-2.36462e-05
0.000138687
-0.000115025
8.42741e-05
5.20808e-05
-0.000136352
0.000108287
-0.000432579
0.000327181
1.20841e-05
0.000382639
6.16279e-05
8.90965e-05
1.22934e-05
-0.00010139
-7.33013e-05
8.42416e-05
-1.09404e-05
0.000144283
-0.000220208
7.60045e-05
0.000144748
0.000341957
-0.000121008
0.000125838
6.56956e-05
7.57211e-05
-0.00014141
0.00011283
6.63947e-05
-0.000179207
3.39911e-05
-0.000241992
5.44897e-09
8.90913e-05
-5.2287e-05
-2.37104e-05
7.59974e-05
-0.000289857
1.95877e-05
0.000270565
-0.000273203
0.000230042
4.33102e-05
-6.44776e-05
-3.74596e-05
0.000101939
-0.000577983
0.000389563
0.00019264
0.000319244
-0.000306405
-7.06567e-06
-2.01316e-05
0.000132975
0.000216897
-0.000111598
-0.000105244
-3.14943e-05
0.000416887
-0.000378376
-0.000108356
0.000143236
-3.13538e-05
0.00012937
0.000318285
3.24832e-05
2.81906e-05
-3.99809e-05
-0.000294018
0.000203563
9.06551e-05
-5.73314e-06
4.64126e-05
-8.29873e-05
0.000188913
8.37141e-05
-0.000459323
0.000112182
0.000348947
8.35029e-05
1.00397e-05
6.18225e-05
0.000423402
-0.000298347
-0.000124501
0.000142493
-6.38001e-05
7.59974e-05
-1.21973e-05
0.000326221
-0.000252948
0.00035075
7.29753e-05
3.4881e-05
0.000154132
7.01621e-05
1.75729e-05
-8.7735e-05
-8.17129e-05
9.48029e-05
-1.30895e-05
-5.42871e-05
0.000181986
-0.000127651
-2.58938e-05
6.92144e-05
5.29641e-05
-0.000108492
0.000294448
-9.92997e-05
-8.30857e-05
0.000182425
1.80087e-05
-8.18088e-05
0.000102688
2.91924e-05
-0.000131878
-9.78613e-05
-0.000276052
2.85716e-05
-9.30476e-05
0.000143705
-7.8124e-05
-6.55775e-05
9.65526e-05
-3.77011e-06
-9.27823e-05
9.08243e-05
-0.000156418
6.56059e-05
-0.000204528
8.34454e-05
0.000121091
-3.51632e-05
-6.18202e-05
5.47456e-05
-0.000109553
5.48073e-05
-0.000110273
6.72688e-05
0.000150788
0.000307236
8.48238e-05
-2.82743e-05
-5.65495e-05
-3.91325e-05
-3.68649e-05
-9.53831e-05
9.36243e-05
1.75898e-06
-2.14637e-06
-9.32361e-05
3.08697e-05
-0.000219169
9.18994e-05
-0.000202196
0.000110347
0.000289199
-0.000108954
-0.000180111
-6.71907e-05
4.54346e-05
-0.000209263
9.19587e-05
0.000117315
-0.000138599
0.000139748
2.13851e-05
0.000191674
-9.6133e-05
-0.000318803
7.66913e-05
0.000242398
8.05519e-05
1.60009e-05
-7.84604e-05
-0.000100982
-0.000472005
8.46757e-05
0.00028114
-0.000201417
-7.9604e-05
5.49678e-05
0.000225113
0.000251056
-5.08856e-05
-2.535e-07
7.04156e-05
3.34595e-05
-0.00015446
0.000140066
-0.000363203
0.000283566
-0.000267002
-6.22248e-05
-5.61185e-05
-3.06639e-05
8.67826e-05
0.000129084
-0.000400632
0.000133683
-0.00030542
1.59393e-05
-0.000146443
0.00018142
6.88051e-05
0.000212448
1.37731e-06
-2.1748e-05
-0.000435378
-0.000152497
9.44565e-06
0.000143064
0.000146586
-5.94283e-05
0.000122081
3.26456e-05
-0.000154713
7.98419e-05
4.63595e-05
-0.000102478
-6.4285e-05
0.000264087
8.22931e-05
-3.26998e-05
-9.91332e-05
0.00013184
0.000459229
-1.04573e-05
-0.000441468
-1.0189e-05
0.00011288
-0.000179228
1.3958e-05
0.000165294
4.59968e-05
-9.24414e-05
-0.00019724
-0.000121209
-4.82852e-05
0.000176339
-6.39723e-05
-7.84591e-05
-5.82704e-05
-5.69724e-05
0.000115245
0.000135962
3.3239e-05
-0.000169187
4.00632e-05
4.29256e-05
-8.29889e-05
-0.000189799
-0.000116741
0.000307445
0.000104
-4.46274e-06
-8.92178e-05
4.05397e-05
0.000294188
-0.000116742
-0.000177208
-4.27486e-05
-5.012e-05
-0.000278033
0.000196292
8.19279e-05
-2.08141e-05
8.86372e-05
-6.78228e-05
-0.000207275
-6.57254e-05
-0.000232162
0.000120084
0.000139516
3.00934e-05
-0.000169595
-0.000158408
4.62555e-05
0.000112159
-0.000133741
-0.000323196
1.6506e-05
0.000270322
-0.000286398
0.00013088
8.60597e-05
0.000231683
-0.000358927
0.000393739
-3.19818e-05
0.000185072
-4.0717e-05
-0.00010225
9.97755e-05
2.47537e-06
-0.000227988
-0.000217974
0.000247878
-0.000223815
6.97123e-05
1.24378e-05
-8.21501e-05
0.000343966
-4.92078e-05
-0.000294064
0.000125615
-7.77182e-05
-4.78953e-05
-0.00017891
-1.76739e-05
0.000196667
-0.000105807
2.40945e-05
0.000243049
7.25935e-05
-0.000113276
-9.93042e-05
2.85942e-05
-0.00011545
0.000130574
0.000173657
6.92722e-05
-0.000242839
-9.17054e-08
7.76168e-05
8.4537e-05
5.53796e-06
-0.000124351
0.000222993
0.000302027
6.66428e-06
-0.000159149
-0.000265393
3.3637e-05
0.000231923
0.000141909
-0.000190153
5.37781e-05
-0.000421882
0.000372493
-3.79987e-05
-3.79987e-05
-0.000107222
4.99559e-05
5.72666e-05
-0.000103909
-4.25508e-06
0.000108166
-0.000316741
5.02634e-05
0.00014626
9.8996e-05
4.11049e-05
-0.000140097
1.18668e-05
-8.51681e-05
0.00013286
-0.00043061
0.000308307
2.64597e-05
5.83641e-05
0.000100036
5.09423e-05
-0.000150971
-5.8894e-05
9.30945e-05
-3.42005e-05
-7.64564e-05
0.000214415
-0.000136548
9.76532e-05
3.88974e-05
-0.000431175
0.00029831
0.000133794
1.37098e-05
-2.23918e-05
7.59975e-05
-1.82025e-05
6.41957e-05
-0.000122621
5.84291e-05
-0.000403581
0.000320094
-8.24749e-05
0.000227897
4.465e-05
0.000203309
-0.00042044
0.000119639
0.00031251
-4.8994e-05
-5.82272e-05
0.000181532
-8.95876e-05
3.65617e-06
-0.000182858
-0.000220924
-6.884e-05
0.000290222
-0.000344558
0.000155877
0.000255915
0.000141868
-0.000397759
6.53465e-05
-0.000123615
0.000522931
-0.000408569
0.000404076
-0.000148203
0.000123958
-4.60742e-05
-7.78818e-05
6.28289e-06
-0.000108532
0.000193641
-0.000302422
0.000136456
-5.73566e-05
-7.90942e-05
0.000386601
3.05189e-05
8.04533e-06
-0.000308061
9.016e-05
0.000254463
0.000142346
-0.000172298
-4.32097e-05
0.0002156
-0.00029989
0.000407669
-0.000105581
2.61468e-05
-0.000330694
0.000305561
-9.7591e-05
-5.13973e-05
-0.000418621
0.000126998
0.00029271
-5.45306e-05
-3.3059e-05
8.75902e-05
-0.000399181
0.00025196
0.000153734
0.000265538
-0.000305147
3.99904e-05
7.33374e-05
-9.40923e-05
-0.000246571
0.000138817
0.000107808
-0.000119099
-1.52615e-05
0.00016187
2.22223e-05
-0.000289868
0.000271755
9.73819e-05
-0.000317855
0.000157736
-0.000433703
0.000277809
-0.00012829
3.1728e-05
9.65645e-05
-6.15641e-05
-4.01088e-05
0.000101674
-1.80657e-05
0.000240321
-2.23123e-05
6.58463e-05
-4.35347e-05
-0.000225951
0.000381426
-2.77947e-05
-0.000349641
6.68979e-05
2.26969e-05
-8.95946e-05
7.24873e-05
7.01298e-05
0.000132082
-0.000202166
-0.000162683
-0.00020679
0.000370727
-3.98071e-05
-7.07415e-05
-0.00016529
1.08843e-05
-8.55144e-05
7.46307e-05
7.46094e-05
0.000326236
0.000217863
-0.000302818
8.51643e-05
0.00014542
-8.19919e-05
-0.000158487
0.000240651
-5.07474e-05
-5.88054e-05
-6.62749e-06
0.000105627
2.39516e-05
-0.000127858
0.000115851
-0.000256831
0.000141247
0.000131419
0.000471211
-0.000433754
-3.53551e-05
8.21505e-05
8.2797e-05
-0.000261604
-9.43156e-05
9.58627e-05
4.14592e-05
-0.000306645
-0.00020952
-0.000125057
-0.00012144
-0.000114367
-1.97674e-05
5.28634e-05
-3.42409e-05
-4.30685e-05
7.73094e-05
8.20821e-05
-1.51841e-05
-0.000109364
5.48345e-05
-5.10146e-05
7.31878e-05
-2.21733e-05
6.23947e-05
-8.12649e-05
1.23421e-05
6.89229e-05
0.000119808
9.90051e-05
-0.000274121
0.000175205
-2.9035e-06
0.000206002
-0.000201335
9.1665e-05
3.39519e-05
0.000420884
4.90705e-05
6.29952e-05
-0.000418849
0.000249567
-8.26408e-05
-0.000166859
9.30826e-05
3.93778e-06
-9.70202e-05
-0.000348522
0.000307402
4.18689e-05
-0.000216929
-0.000127089
0.000344433
5.13902e-06
-0.000119987
0.000114865
-0.000129192
0.000202233
-7.2973e-05
-1.34623e-05
-0.000348818
0.000362559
9.36525e-05
-0.000110862
1.72109e-05
0.000157818
0.000259012
-0.000413668
4.21657e-05
5.2558e-05
-9.47235e-05
1.17546e-05
-0.000140041
0.000389728
-0.000303755
7.99914e-06
-0.000306872
0.000299717
6.33555e-05
7.50424e-05
-0.000138392
0.000113469
0.000449387
-9.06212e-05
-1.2426e-05
0.000103049
0.000101312
-9.64537e-06
0.000508049
-7.54474e-05
-0.000426502
5.00853e-05
4.41049e-05
-9.419e-05
-0.000136403
5.87111e-05
8.08221e-05
7.40819e-05
-0.000154891
0.000277021
-0.000160849
-0.000116275
7.02021e-05
5.28614e-05
-9.14093e-05
3.85478e-05
0.000195063
0.000317703
-0.000148927
0.000102564
4.63689e-05
7.81056e-05
0.000350006
-0.000426212
0.000405044
8.96401e-05
2.88383e-05
-0.000118477
-7.55089e-05
5.4695e-05
8.06852e-05
0.000164346
-0.000244889
5.88414e-05
-0.000231041
-0.000403203
2.74573e-05
0.000376314
-0.000160586
-2.01248e-05
0.000180762
4.42228e-05
-9.7035e-05
6.52629e-05
2.78456e-05
-9.31083e-05
0.000384214
4.72548e-05
-0.000427063
-2.43241e-05
-4.31863e-05
6.75104e-05
9.67126e-05
0.000339841
0.000206911
0.000219585
8.34414e-05
-0.000302725
-0.000262648
0.000405222
0.000323479
-0.000145154
3.28888e-05
6.29131e-05
-9.58017e-05
-6.91163e-05
-8.9283e-05
8.29743e-05
-0.000317012
-3.06639e-05
-0.000398027
5.93999e-06
7.51628e-05
2.78387e-05
-0.000103001
0.00027602
-0.0002168
-5.6373e-05
0.000137051
-0.000172554
3.5517e-05
0.000261858
1.73871e-05
-0.000278846
0.00010802
0.000162455
-0.000270265
0.000155791
-0.000302442
0.000146854
5.98738e-05
3.96448e-05
-9.95181e-05
3.48984e-05
-8.71854e-05
0.000290279
-2.51444e-05
-0.000264714
-3.24368e-05
-5.6781e-05
0.000375681
-0.00030565
-6.89867e-05
0.000217303
-0.000124773
-9.24802e-05
5.55423e-05
-0.000100284
-5.38597e-05
-4.01742e-05
-0.000258703
-0.000114537
0.000374728
0.000332611
-0.000170404
-1.55732e-05
-1.03301e-05
7.32434e-05
0.000144116
-5.90199e-05
-8.50908e-05
-0.00020522
4.46926e-05
-6.90516e-05
7.99366e-05
-2.24512e-05
0.000242314
-0.000289882
8.2793e-05
-6.69895e-05
-3.60648e-05
6.3325e-05
-0.000117087
5.37628e-05
-0.000137682
-2.13514e-05
0.000159047
-4.32178e-05
8.53837e-05
-0.000137451
2.01517e-06
0.000135443
9.43271e-05
-5.51219e-05
-3.92049e-05
9.87933e-05
0.000257735
-0.000355313
-3.38309e-05
0.000110828
-7.76231e-05
-5.89219e-05
1.9371e-05
-0.000341689
0.000326131
3.64754e-05
-7.9442e-05
5.73871e-05
-0.000113413
5.60265e-05
8.25926e-05
0.000205506
-4.60939e-06
-0.000351697
0.000357712
5.90217e-05
-8.13335e-05
-0.000124321
-4.11806e-05
0.000165529
-7.76272e-05
-1.69639e-05
9.45918e-05
0.000231901
0.000292851
3.13537e-05
-3.79181e-05
1.65978e-05
-0.000233864
-4.79616e-05
0.00028189
9.85046e-05
-0.000227619
-7.08564e-05
-0.000321341
8.37549e-05
-1.91835e-05
6.0462e-05
4.4808e-06
-0.000141923
-0.000197494
-0.00010361
0.000301381
0.000175624
-3.36791e-05
-0.000199317
-0.00025242
0.000277273
-0.000290515
0.000191283
-0.00024185
5.064e-05
-7.27733e-05
4.84493e-05
0.000135835
0.000101525
-0.000237271
8.08527e-05
0.000240963
0.000361956
6.05417e-06
-0.000358544
-0.000326928
0.000406593
-7.4716e-05
0.000201763
-8.34721e-05
-0.000257051
0.000284064
-0.000170657
7.40062e-06
0.000163278
-1.69176e-05
-0.000284382
0.000301914
-0.0001177
0.000187875
0.0001012
-0.000135027
-0.000267455
1.0947e-05
0.000257916
5.18798e-05
3.31427e-05
-8.50226e-05
9.57081e-05
-8.86753e-05
3.43942e-05
0.000145155
-0.000179527
5.05297e-05
-8.29664e-05
7.73552e-05
-0.000105644
2.82894e-05
-0.000232826
-0.000110651
3.30244e-05
-0.000126794
0.000131952
9.29315e-05
6.26729e-05
-0.000155596
-3.27048e-05
9.00925e-05
-0.000445178
6.32026e-05
0.000385736
1.96962e-05
7.39571e-05
8.78964e-05
0.000169812
0.000124589
-9.17181e-05
4.07034e-05
0.000135345
-7.98308e-05
-5.55113e-05
0.000131148
0.000333444
9.16752e-06
-0.0001798
-0.000403225
5.15062e-05
5.60606e-05
3.82668e-05
-2.43385e-05
7.10294e-05
-4.66909e-05
-0.000467797
0.000221383
0.000247586
5.51669e-05
7.9987e-05
-0.000116437
3.64512e-05
-1.488e-05
-7.67568e-05
9.37545e-05
0.00010284
-0.000115922
-1.65181e-05
0.000146275
-2.53149e-05
7.71947e-05
7.0792e-05
4.59628e-05
-0.000116753
9.28347e-05
0.000258106
0.000116169
5.40934e-05
-0.000170248
-0.000324579
-9.28809e-05
-0.000270398
-0.000131873
0.000402727
-0.000121457
1.03227e-05
0.000111137
0.000146275
-5.01281e-05
-9.93459e-05
0.000149487
0.000445705
-0.000337722
-9.43334e-05
-0.0001123
8.86656e-05
0.000118111
-0.000193842
7.57702e-05
0.00020673
-8.80359e-05
-0.000118638
0.00016794
-0.000311875
0.000144079
0.000198442
-0.000345183
6.55444e-05
-0.000189833
-5.28877e-05
-0.000180913
-6.37291e-05
-8.70838e-05
-0.000230216
0.000104865
0.000136702
-0.00021641
2.74218e-05
-0.000165088
1.97181e-05
-0.000105231
-0.000122321
7.16874e-05
-0.000103377
1.56329e-05
8.77453e-05
-0.000125537
3.49174e-05
4.56659e-06
-0.00013228
-5.74763e-05
9.15081e-05
-3.40318e-05
-0.000256786
0.000190709
6.61581e-05
0.000103001
-1.33594e-05
0.000142659
0.000422438
-0.0003264
-9.3184e-05
-0.000184071
-0.000105606
-2.85678e-05
-9.37471e-05
-0.000307439
0.00013445
0.000173285
-0.00042813
-1.82969e-05
4.69428e-06
0.000403307
-0.000403323
0.000116009
6.61136e-05
-0.0001821
7.69512e-05
-3.68881e-05
-2.85309e-05
0.00029441
-3.42877e-05
8.42215e-05
0.000390938
-1.88295e-05
0.000108866
-3.80726e-05
-0.000130795
6.04852e-06
0.000124757
-5.79889e-05
7.59975e-05
0.00017809
-0.000168899
0.000287622
-4.41995e-05
0.00029706
-0.00030844
-9.24546e-05
3.44657e-05
-0.000134161
8.40429e-05
-9.34288e-05
-0.00016326
0.000105304
-0.000159405
-0.000183801
-3.364e-05
-8.27836e-05
0.000116426
0.000150422
0.000148344
-0.000143854
0.000150202
-0.000293666
0.000143664
-7.78169e-05
-4.81993e-05
0.000126021
-0.000247281
-0.00018311
0.000101367
-0.000353262
0.000220907
0.000207627
-0.000477536
3.90762e-05
-9.59878e-05
5.69119e-05
-2.15615e-05
7.02311e-05
2.2647e-05
-0.0001441
8.74564e-05
2.0181e-05
0.000157931
6.0303e-05
3.15613e-05
-9.1864e-05
-6.95247e-05
3.91397e-05
1.70229e-05
0.000131329
0.000126517
-3.35792e-05
-0.000101771
-0.000131024
-0.000292954
0.000369241
-0.000356917
-0.00051313
0.000256345
0.000268491
-0.000402837
8.10401e-05
4.14161e-05
-0.000105335
-8.97021e-05
0.000195085
-0.000180215
0.000125638
5.45905e-05
-7.09956e-05
0.000189137
-0.00011937
4.9752e-05
-0.000240637
0.000329754
-8.84812e-05
8.63828e-05
3.73624e-05
-3.73624e-05
-4.10022e-05
-5.45466e-05
0.000233156
-0.000103952
-0.000129108
5.22737e-05
-1.39054e-05
-0.000364349
0.000364346
3.50198e-07
8.74971e-05
1.08281e-05
-9.83249e-05
0.000313627
-3.82372e-05
-0.000123042
9.68351e-05
2.62084e-05
7.80125e-05
-0.000110717
-0.00010857
-0.000170854
1.79437e-05
0.000152942
0.000419822
-0.000423333
9.17125e-06
9.94448e-05
-4.38969e-05
-0.000320732
0.000140471
0.000180551
0.000328607
-2.04899e-05
0.000111526
0.000292812
-0.000292964
6.27623e-07
0.000389911
-0.000124974
-0.000456159
0.000329495
0.000129868
-0.000230261
0.000120854
0.000109497
5.66844e-05
3.17995e-05
-8.84839e-05
0.000310149
-0.000131051
-0.000178835
8.68572e-05
0.000200793
-0.000287459
-2.21697e-05
0.000122212
-1.8354e-05
8.3617e-05
0.000127374
0.000114409
-0.000296352
0.000150765
0.000145789
4.80231e-05
-0.000104104
5.60808e-05
-0.000228183
-0.000272055
-6.53153e-05
9.29006e-05
-8.93644e-05
2.91765e-06
0.000347833
-0.000219908
9.25036e-05
-0.000124538
3.20365e-05
0.000190576
-9.16377e-06
-0.000181382
-0.000174242
7.75515e-05
-0.000114217
0.000173453
-5.92138e-05
0.000205186
7.9624e-05
0.000140342
-0.000219235
3.29916e-05
-3.29916e-05
0.000122382
9.49635e-05
-0.000243286
0.000343288
0.000148645
-6.88811e-05
-0.000148332
-0.000131524
0.000280208
-0.000122565
0.00012551
-2.9383e-06
-0.000249619
-3.03277e-05
0.000289571
6.55654e-05
7.7896e-05
-0.000143454
-0.000111356
3.80165e-05
0.000101495
-0.000139509
-0.000170724
5.65286e-05
0.00010394
-7.32266e-05
-3.07134e-05
0.000208312
-0.000114135
2.89937e-07
0.000111229
6.1273e-05
-0.000172487
0.000102981
-0.000375557
0.000280858
0.000263083
-0.000246188
-0.000120557
1.71803e-05
7.45471e-05
-0.000105211
8.3022e-05
-4.21386e-05
-6.19645e-05
0.000458509
-6.11197e-05
-0.000395814
-0.000175933
-0.000290496
2.13265e-05
0.000125302
-0.000146606
0.000137768
0.000196909
-0.000334092
0.00043796
-0.000444736
1.13926e-05
9.01929e-05
-4.44552e-05
-5.68784e-05
0.000132525
8.11241e-05
-3.31434e-05
-4.79807e-05
0.000146486
2.19895e-05
0.000168614
-0.000226547
-0.000174726
0.000401707
0.000433246
-0.000103383
-6.19817e-05
-5.39295e-05
0.000115913
0.000175056
-0.000171374
3.16454e-05
0.00012452
-0.000143762
1.97994e-05
-0.000126446
7.49437e-05
7.23213e-05
-0.000150466
7.81543e-05
5.43496e-05
-0.000101612
0.000402333
-2.59915e-06
-0.000187192
0.000196252
-1.97258e-05
7.64102e-05
-0.000158607
0.000326699
-0.000282598
0.000168084
0.000114704
-0.000342606
-6.41303e-05
8.05279e-05
1.76693e-05
-9.8197e-05
-7.05268e-06
-4.93171e-05
2.77355e-05
-8.45165e-05
-0.000375255
0.000421074
-4.47047e-05
-0.000164062
8.44475e-05
0.000111648
0.000132556
-0.000244073
-2.95373e-05
-0.000120445
0.000150003
0.000237223
-7.61474e-05
0.000376555
7.52241e-05
-0.000282196
0.000207476
6.5971e-05
0.000190162
-0.000243465
-0.000133799
8.98323e-05
4.39705e-05
0.000375498
-0.000141966
-0.000233219
-3.73084e-05
-5.68801e-05
0.000350276
-0.000189713
-0.000159626
-9.80178e-06
0.000101923
-9.21189e-05
-9.92879e-05
6.58815e-05
3.34066e-05
0.00027057
-0.000112863
-0.000157506
-0.000203911
6.80788e-05
0.000148762
-0.000101432
6.12458e-05
4.01863e-05
6.59889e-05
-0.000107334
4.13458e-05
5.28187e-05
0.000237824
0.000175408
-0.000184541
0.000396856
-2.71875e-05
-5.79695e-05
7.59982e-05
-1.80288e-05
7.58109e-05
0.000349328
-0.000108987
8.04238e-05
7.4726e-05
-0.000401842
0.000330495
-0.000128777
0.000204426
-1.60268e-05
-0.000107014
0.000234835
-0.00028101
0.000307205
2.57514e-05
0.000190708
-8.94804e-05
5.80679e-05
3.14127e-05
0.000102916
-5.24618e-05
-5.04539e-05
-2.11567e-05
0.000101144
-0.000528461
0.000343905
-8.7004e-05
2.95276e-05
0.000389636
-0.000278887
6.4033e-06
-0.00024394
-0.000170693
-0.000255707
8.13573e-05
0.000133111
-0.000149175
-1.19516e-05
0.000162928
5.0085e-05
-0.000107073
5.69883e-05
5.88493e-05
-0.000114371
5.55229e-05
8.41627e-05
0.000353027
6.31124e-05
7.17859e-06
-0.000164441
0.000245261
-0.000376877
1.20089e-05
-3.64339e-05
-6.49977e-05
0.00014448
4.74002e-05
5.85016e-05
-9.36646e-05
-0.000169054
0.000244741
7.49709e-05
-0.000326247
0.000349283
-0.000242459
0.000137021
-0.000156242
2.54595e-05
-0.000484678
4.39105e-05
8.94621e-05
7.50617e-06
0.000101787
3.64747e-05
-0.000138258
-6.83718e-05
4.40333e-05
5.32645e-05
-0.000224074
4.36531e-05
-5.56602e-05
0.000170524
-0.000114818
-8.32054e-05
-0.000345266
0.000106013
-0.000241756
0.000135853
8.20907e-06
0.000167226
-4.56943e-05
-3.13292e-05
7.70236e-05
-0.000180348
-0.000113454
-6.96861e-05
0.000122334
-5.26455e-05
1.56382e-05
0.00015944
-0.000144614
3.93326e-05
7.14235e-05
-9.76596e-05
2.62366e-05
8.09217e-05
-9.49774e-06
8.07793e-05
-5.20576e-05
-2.87216e-05
5.98383e-05
7.01339e-05
4.2234e-05
-0.000112366
-0.000317553
6.10088e-05
6.71954e-06
-0.000105506
-0.000136048
7.54439e-05
6.06069e-05
-0.000127539
-0.000179567
-4.31572e-05
-7.25227e-05
-7.28956e-05
-1.24211e-05
8.53173e-05
-0.000226102
-9.84713e-05
0.000325239
-5.64068e-05
-0.000133726
-0.000411047
0.000153777
0.000155865
-0.000381188
8.44659e-05
-6.04583e-05
-0.000430151
3.34338e-05
0.000402129
0.000233036
-0.000126916
7.06007e-05
-8.32744e-05
0.000348034
-0.000301795
-4.55101e-05
-9.31951e-05
4.30583e-05
0.000320278
-8.76239e-05
-0.000232389
0.000179267
-8.4319e-05
-9.49197e-05
-0.000103762
7.47341e-05
2.90277e-05
0.000287088
6.41124e-05
8.00086e-05
3.2092e-05
0.000161738
-0.000193647
0.000114417
0.000156338
6.60766e-05
3.6841e-05
-0.00033842
0.000124757
-0.000157036
3.22853e-05
9.35116e-05
-6.39729e-05
-2.55073e-05
-0.000418588
8.7902e-05
0.000332712
8.14564e-05
-3.89696e-05
-4.24868e-05
-0.000297443
0.000180942
3.29823e-05
-7.99378e-05
4.69555e-05
-3.42729e-05
-4.35213e-05
7.77942e-05
4.07894e-05
4.0667e-05
0.000261283
-0.00016037
-0.000100813
0.000403516
-0.000323956
-7.85065e-05
0.000358271
0.000101802
7.9128e-05
1.81458e-05
-9.52489e-05
-0.000116625
0.000103345
-0.000414322
0.000312365
4.55023e-05
0.000179404
-0.000277959
0.000277564
-0.000103269
-0.000174187
0.000212346
-8.49567e-05
-0.000235387
-8.18105e-05
-0.000128604
-0.000393335
-0.000314325
0.000188245
0.000126507
0.000135579
0.000192329
-0.000327599
-0.000234102
0.000242766
0.00025071
4.47068e-05
-7.448e-05
9.48172e-05
-2.03367e-05
-0.000135098
7.78561e-05
5.72461e-05
0.000283587
-0.000177205
-0.000106127
0.000130977
-0.000204464
7.35467e-05
4.60788e-05
-0.000118974
0.000173472
-8.64122e-05
8.26423e-05
0.000151398
-0.000366835
9.92744e-05
-0.000251869
0.000152724
0.000275939
9.97858e-05
-0.000431665
0.0001048
0.00032937
0.000178119
4.9586e-05
-0.000227632
0.000366951
1.81444e-05
-0.000447387
2.35694e-05
-0.000132302
-7.22123e-05
0.000358425
3.34871e-05
1.72484e-05
-0.000139807
6.30883e-05
-0.000319207
3.95219e-05
-7.56799e-05
3.61579e-05
7.48246e-05
5.22553e-05
-0.000127077
0.000138036
-5.52939e-05
-8.27353e-05
-8.85691e-05
-6.03515e-05
0.000415734
-6.11664e-05
-0.000352246
8.81487e-05
-7.16171e-05
-7.45481e-05
0.000146176
7.27368e-06
0.000270291
-0.000356299
0.000229655
-0.000100059
1.36466e-05
-0.000160505
-0.000140905
0.000301615
-0.000144378
-0.000118267
0.00010808
-1.92173e-05
8.89294e-05
4.46988e-05
0.000150411
-0.00019508
0.000391011
-0.000340869
-4.82784e-05
-4.79461e-05
-0.000137889
1.96254e-05
9.89737e-05
0.000202684
-0.0001704
-0.000347032
0.000362222
0.000359766
5.76151e-05
-0.000413081
-0.000156031
0.00010178