/*--------------------------------*- C++ -*----------------------------------*\
| =========                 |                                                 |
| \\      /  F ield         | OpenFOAM: The Open Source CFD Toolbox           |
|  \\    /   O peration     | Version:  v2012                                 |
|   \\  /    A nd           | Website:  www.openfoam.com                      |
|    \\/     M anipulation  |                                                 |
\*---------------------------------------------------------------------------*/
FoamFile
{
    version     2.0;
    format      ascii;
    class       volScalarField;
    location    "250";
    object      p;
}
// * * * * * * * * * * * * * * * * * * * * * * * * * * * * * * * * * * * * * //

dimensions      [0 2 -2 0 0 0 0];


internalField   nonuniform List<scalar> 
13851
(
0.00279426
-0.0191895
-0.0196536
0.00268126
-0.0390442
0.00176809
-0.0158451
-0.0199719
0.0015768
0.00744516
0.00134025
0.025026
-0.0550338
-0.0342034
-0.00931398
-0.00670645
-0.0179084
0.00270675
-0.05867
0.00153951
0.0024236
-0.0223856
0.00100366
0.00124002
0.00102771
-0.018265
-0.0276876
-0.124019
0.00248587
-0.00344616
0.000639808
-0.0180523
-0.0177817
-0.0136588
0.00119541
-0.0526384
-0.0490298
-0.0463889
0.00945897
-0.018932
-0.00177831
0.000619966
-0.0607851
-0.00129437
-0.00364612
-0.0625811
-0.00852731
-0.00664327
-0.028375
0.00279969
-0.0459953
-0.0479781
-0.099521
-0.00911743
-0.00355382
0.000606595
0.00142896
-0.124542
-0.00347384
-0.015969
-0.0451932
-0.101956
0.0114401
-0.0424137
-0.00881076
0.00403728
-0.0483886
-0.00887918
-0.0365896
0.00311828
-0.0407218
-0.0494287
-0.010692
-0.009234
-0.00279961
0.00186061
-0.023157
-0.0463053
-0.0335138
-0.0419348
-0.0170515
-0.00341974
-0.00918072
-0.0566601
0.0111997
0.0301988
0.00392841
0.0101094
-0.0239052
0.00169022
-0.0525244
0.00610597
-0.00945735
-0.0268701
-0.0245652
0.00155355
-0.0401698
-0.0560441
0.00191898
0.001545
-0.0920969
-0.0394693
-0.000799241
-0.0341717
0.000248312
0.00551125
-0.0420613
0.000379987
-0.0488882
0.00145909
0.00134953
0.00172252
0.00600609
0.00125171
0.00137359
-0.00632902
-0.0587834
0.00056333
-0.000148237
-0.00296618
-0.0623673
-0.0333102
-0.0569735
-0.0110277
-0.000915204
0.00155787
-0.0035891
-0.0363032
0.00233541
-0.046194
-0.00189732
0.000664881
-0.0419367
-0.00927627
-0.007068
0.000336975
0.000559765
-0.0486842
-0.0701955
0.00479884
-0.0991348
-0.00316329
0.00271898
0.00107571
-0.0126462
-0.00249177
0.000444469
-0.0457215
-0.0153747
-0.00314776
-0.0560579
-0.00262065
-0.0334647
0.00146882
-0.0199095
-0.0121539
0.000808168
-0.00563477
-0.0478995
-0.0452569
0.000121276
-0.0335504
-0.120251
0.000723646
-0.00254331
0.000904913
0.000373467
-0.0377741
0.00211955
-0.0544747
-0.046003
0.00150309
0.000743775
0.00192373
0.000699507
-0.00523746
-0.0353702
0.00271203
-0.0585746
0.000355199
-0.0173546
-0.0465661
-0.00948267
-0.0242765
5.95215e-05
0.0013405
0.00417745
-0.00291927
-0.0394764
0.015775
-0.00874479
-0.102753
0.00174762
-0.0329684
-0.0999639
-0.0187528
0.0026453
-0.0133557
0.00267645
0.00187679
0.00155977
-0.0725144
-0.000886187
-0.00599955
0.0101794
-0.00969152
-0.0376472
-0.019864
-0.0430114
0.000201844
-0.0446392
-0.00100473
-0.0146721
0.000237715
0.000967745
0.000572344
0.00795093
-0.0644667
-0.0092977
-0.0431217
-0.0197506
-0.0176177
-0.049249
-0.0472663
-0.042877
0.00129385
-0.0276267
0.000270098
-0.0921284
0.000212689
-0.0168205
-0.00145548
0.00149559
0.00170954
-0.0465455
0.00311842
-0.0395269
-0.00851873
0.00102168
-0.00618475
0.0024384
0.00518296
0.000179178
0.0123262
0.000265334
-0.0433083
-0.03895
-0.0201954
-0.0110936
-0.0114247
0.00312575
0.0043913
-0.0120104
-0.0116656
-0.0459133
0.0166001
0.0138735
-0.0485342
-0.0549921
-0.0108948
0.00099002
0.00298816
-0.0244317
0.00138367
-0.0639101
-0.0181807
-0.0121651
-0.0269129
-0.0503116
0.00201829
0.00284054
-0.0193029
-0.00922705
-0.033179
-0.00641787
0.000694664
-0.00097055
0.00130065
-0.0451684
0.00190308
0.000132511
0.000124811
0.000160173
-0.0457066
-0.0194383
-0.0109152
0.00170316
-0.0098764
-0.00961913
-0.00553938
-0.0477909
-0.00406117
-0.0160334
-0.0357272
-0.00615908
-0.0645639
-0.00419732
0.0389241
0.00069562
-0.0426434
-0.0334234
-0.0169022
-0.0451469
-0.00416078
0.00438787
-0.0470953
0.00164855
-0.0428521
-0.0258907
-0.00406353
-0.0779686
-0.00378613
-0.0106747
-0.0540254
0.00072001
-0.0117373
0.00168428
-0.0470737
-0.053652
-0.0094196
-0.042007
-0.00983541
-0.0509684
0.00254787
0.00115313
0.00157802
-0.0530881
-0.0274435
-0.0208847
-0.00979146
-0.00439086
-0.0103094
0.00062527
-0.0503623
-0.0643763
0.00608369
-0.044011
-0.0698241
-0.00920591
-0.032435
-0.047823
0.0060284
0.00320585
-0.0476011
-0.0599396
0.00371149
-0.0240548
-0.0448036
-0.00933127
0.00308081
0.00278866
-0.0197045
-0.0213686
0.0028543
-0.0956319
0.000813068
-0.0196309
0.00160824
-0.00977981
0.000240533
0.000350081
0.000521357
-0.044756
-0.00672602
-0.00672629
-0.0425377
0.000754308
0.0360764
-0.00107736
-0.0242823
-0.0567617
-0.00651593
0.00770543
-0.0240074
-0.0194516
-0.00167643
0.000590597
0.00356408
-0.0971921
-0.00276316
-0.0740239
0.00640323
-0.0478961
-0.0538122
0.00485892
0.00491649
0.00291508
0.000265918
-0.00928345
0.00539402
-0.04282
-0.02712
-0.0392447
-0.0446807
-0.0447412
0.000810304
-0.0111558
-0.0599833
-0.0416141
0.00103618
-0.0564723
0.00362981
-0.0243412
0.00142927
-0.0671117
0.0015485
-0.00778528
0.00281008
-0.014118
0.000193235
0.00164108
0.000871837
-0.0426364
0.00248182
-0.0487915
0.00400012
-0.0426069
0.00496553
0.00453457
-0.00975762
-0.0162534
-0.0166481
0.000138814
0.000527179
0.00160829
0.0013764
-0.0474149
-0.0142183
-0.0464986
0.00494235
-0.0451611
-0.0161795
0.00462847
-0.00266748
-0.0473748
-0.00177206
0.00222017
0.000423756
0.0036665
-0.00263164
-0.014122
-0.0430983
0.00272596
0.000184522
-0.00561146
-0.0922287
0.000102976
-0.0248111
-0.0345529
0.00177797
0.00149528
-0.00965727
-0.0559979
-0.0476875
0.00517222
-0.0114269
0.00128842
0.00171476
-0.0645102
-0.00190194
0.00012727
0.0127552
0.000313344
0.00280945
0.00146125
0.00157261
-0.00522262
0.000185362
0.00271687
-0.053069
-0.00929074
-0.0394097
0.000305124
0.00501777
-0.000589648
0.0011672
-0.000394109
0.00124105
0.00110464
-0.00318913
-0.0128976
0.00384773
-0.00958136
0.00142343
-0.0742428
-0.042783
-0.0101961
0.00510286
-0.0103257
0.00282577
-0.0597611
0.00166679
-0.00481904
-0.0018509
-0.0354861
-0.0146333
-0.0781769
0.000457813
-0.0954606
0.0124975
0.00065945
0.00531437
-0.0518356
-0.0155871
-0.0145775
-0.000252419
-0.0225274
-0.0036556
0.000942645
0.00082628
-0.0144945
-0.0426976
-0.0440227
-0.0488217
-0.0522263
0.0102841
0.000160724
-0.0691373
-0.0111173
-0.0182762
-0.0327308
0.0041766
-0.0132859
-0.0431595
-0.00851995
-0.0801893
-0.0597331
-0.0730071
-0.00295428
0.0055113
-0.00957301
0.000657048
0.0207617
-0.0157065
-0.00134337
-0.00511354
-0.00941293
-0.0448581
0.000474028
0.000724229
-0.0448774
-0.0417993
-0.0104738
-0.00686766
0.000734743
-0.00372927
-0.039772
0.00204608
0.00479958
-0.0103796
0.000953799
-0.0629287
-0.0457362
0.00554528
-0.00938431
-0.0382988
8.419e-05
0.00160459
-0.000133293
-0.0696809
-0.0206726
-0.053649
-0.0508682
0.000569949
0.00478705
-0.014808
-0.0177718
-0.0469302
-0.0427645
-0.0460832
-0.00173762
-0.0144371
0.00369075
-0.0456503
-0.0512467
-0.0401514
0.0126009
0.000369345
-0.00368063
-0.00235773
0.00054234
-0.00992963
0.000312528
-0.000227368
-0.0441783
-0.0412921
0.00491324
0.00051153
-0.0774458
-0.00899009
0.00053418
0.00145752
0.00140098
-0.00928771
-0.105995
-0.019501
-0.0164656
-0.0822082
-0.0230838
-0.0396465
-0.0415627
-0.0418438
0.00396746
-0.0359185
5.54208e-05
0.00175324
-0.00963947
-0.0557241
-0.0220281
-0.0530597
-0.0197889
0.00150559
-0.00486289
0.00245756
-0.015761
-0.043664
-0.00940492
0.00590449
0.00147305
-0.0283584
-0.0467578
-0.0154658
-0.00160449
-0.00165333
-0.0129436
-0.0387321
-0.0429753
-0.0466834
-0.00330285
-0.0515555
0.00148113
0.00474834
0.00267938
-0.0800554
-0.00140946
0.00149796
-0.0500814
-0.000986228
-0.0535173
-0.0439001
-0.0671005
0.00743091
0.00152797
-0.0510951
0.000198523
-4.29499e-05
0.000420899
-0.000227147
0.000104824
0.00469646
0.00123384
0.000489313
-0.0521921
0.0149378
-0.0584309
0.000899482
0.000316825
0.00103705
-0.0457412
-0.0955353
-0.0498835
-0.0281593
0.000239221
0.00145117
0.000914287
0.00110665
-0.0481341
-0.00308286
-0.0126877
0.000441416
-0.0147137
0.0010003
0.00842611
-0.111151
-0.00529659
-0.0589265
-0.0192134
-0.00168622
-0.0485984
-0.0863092
-0.0364371
0.0303539
-0.0165142
0.00259545
-0.0492007
0.00348554
-0.0142947
-0.00998413
-0.00988775
0.000425543
-0.0459303
-0.0433192
0.00196892
-0.000829283
0.0134448
0.000963942
-0.0172155
-0.0102668
-0.00337055
-0.0428215
-0.0639246
0.00140083
0.000292934
0.000829029
-0.0804748
-0.0512518
0.00294075
-0.0434978
0.00169197
-0.00915976
0.000513448
-0.0258402
-0.0471629
-0.00496673
0.000359227
0.000458956
-0.0253913
0.00100514
-0.0575338
0.0169281
-0.0485965
0.000673588
-0.0128556
-0.0431817
-0.12176
-0.0527713
0.00244714
-0.0450094
-0.00959039
0.000960585
-0.0227573
-0.0135569
-0.012124
-0.0646783
0.00338263
0.00222627
-0.0492723
0.00142275
-0.000860605
-0.00517246
0.00149318
-0.0594169
-0.0132911
-0.0472506
0.00488784
0.00080312
0.00150599
-0.0149661
0.00064012
0.00323957
0.000404864
-0.00160613
-0.00152481
-0.0449254
0.000595838
0.00070046
0.00268273
-0.0149039
-0.0436133
0.000642121
0.00262455
-0.0491418
0.0141143
-0.0113239
0.00110891
-0.00498978
-0.0609113
-0.0126855
-0.0465081
-0.0449895
0.00148161
0.00154871
-0.0598876
-0.000494283
-0.00922235
0.000943939
0.000425804
-0.00579936
-0.0105151
0.00495357
-0.00410119
0.00104712
-0.00871887
0.00253459
-0.0563596
-0.00724144
-0.0379812
-0.0275902
-0.0125931
-0.0369464
-0.047334
-0.0462772
-0.00447286
-0.0215591
-0.0523723
-0.0152723
-0.0522232
0.00524573
-0.0859141
-0.00184473
-0.0495643
0.00177834
-0.00727665
0.00146954
0.00563098
-0.123503
-0.0539733
0.00171252
0.00139492
-0.0461728
-0.00285605
0.000758761
-0.109301
0.00166871
-0.00781006
-0.0620741
-0.0437867
-0.000133808
1.28217e-05
-0.00974714
-0.120195
-0.0482389
-0.0514051
0.00356489
-0.0650432
-0.0219035
-0.0914253
-0.0410902
-0.0414814
-0.010003
-0.0146149
-0.010137
-0.0527521
-0.0423218
0.00363426
-0.0382792
-0.0568932
-0.084099
-0.0455625
-0.0112988
-0.0398328
0.000575333
-0.00366151
-0.000595768
0.0179433
-0.00933046
-0.0430527
0.000765852
-0.0487007
-0.00290485
-0.0212882
-0.04042
-0.0386256
-0.0557579
-0.0450979
0.00197301
0.00113767
-0.0479749
-0.00944374
0.0122926
-0.00880211
-0.0439567
0.00134845
0.00729149
-0.00268098
-0.00882432
-0.0473564
-0.0907325
-0.044084
0.00324317
0.00332615
0.00145292
-0.0488316
-0.00927119
-0.0122432
-0.0424202
0.00074342
-0.0261683
-0.0487134
-0.00875017
-0.0154732
-0.0108446
0.00148782
0.0074413
-0.0423592
-0.046976
-0.00931467
0.0032964
-0.000816255
-0.0656014
-0.0471762
0.000724007
-0.00764744
0.000860355
-0.000821773
0.00112339
0.00145069
-0.0135018
0.00124478
-0.0076204
0.00276268
0.00154435
-0.00566139
-0.0403355
-0.0538491
-0.0257452
-0.024692
-0.00307999
-0.0237322
0.00143063
0.000817892
-0.00557586
-0.0072705
-0.0408604
-0.0101409
-0.0482476
-0.0112657
-0.00986972
0.00107985
-0.126389
-0.000136515
0.00624503
0.00582168
-0.0491596
-0.0138127
-0.0196509
-0.04097
-0.029113
0.00275359
0.0198015
-0.0306075
-0.084844
-0.0230337
-0.00197062
-0.00160392
-0.0444197
-0.0405376
-0.0189856
0.00111294
-0.0117725
0.000864827
0.000863189
-0.0258547
0.00156743
-0.0585372
-0.0122706
0.000784596
0.00479368
0.000656432
-0.00985473
0.000297469
-0.0161106
-0.0500545
0.000698665
-0.0484591
-0.0681101
0.0077952
-0.0137837
-0.0142029
0.000670791
0.00173766
-0.00351964
0.000647106
-0.048704
-0.0209019
0.00168134
0.000279628
0.00118408
-0.0464044
-0.00361859
0.0124052
-0.0541415
-0.0478349
-0.00354255
-0.00124371
-0.0206981
0.000572914
-0.00954159
0.00729273
-0.00818171
-0.00300988
-0.00637785
-0.00728898
-0.0977136
0.00143614
-0.0587752
-0.013357
-0.024838
0.000279056
0.00167975
0.00205888
0.00755144
-0.0059585
0.00193072
-0.00839822
-0.000365049
-0.00921402
0.00251904
0.000730517
-0.0235779
-0.0555289
-0.0126096
0.00136738
-0.005205
0.00867429
0.00468387
-0.0324887
-0.0241426
-0.0238652
-0.0215087
0.00319447
-0.0116309
0.00172667
-0.0491986
-0.0511645
-0.0193597
-0.0505049
-0.00918046
0.00127615
0.000247722
-0.0141967
-0.00286326
0.00145367
0.000680123
0.00191284
-0.0463449
0.000908863
0.00187719
-0.0176496
-0.0308734
-0.0474705
0.00239649
0.00462917
-0.00172453
-0.0532019
-0.0684489
-0.025052
-0.0518841
-0.0515998
-0.0498524
0.00107052
-0.0437561
-0.00675992
0.0011835
7.2357e-05
-0.0463629
-0.0524192
-0.0149065
-0.0332371
-0.000203782
-0.00786415
0.000292717
-0.00294971
0.000244978
-0.0100306
0.000127482
-0.0298365
0.00272199
-0.0415512
0.00115232
-0.0282599
0.000319513
-0.0456338
-0.00187171
-0.0461418
-0.0558374
-0.0483143
-0.0417184
-0.0454987
-0.0138672
-0.0769896
0.00148056
0.0263386
0.000882501
-0.00934086
-0.0344555
-0.0110879
-0.044131
-0.014474
-0.0247504
0.0022322
-0.0497536
-0.00237747
-0.00955794
-0.0244676
-0.00483311
0.00131739
0.00629085
0.000837813
-0.0201326
-0.0121323
-0.00227098
-0.0299544
0.00374859
-0.0127814
-0.0568894
0.00932733
0.00125969
-0.0200992
-0.0771985
-0.0141912
0.0110233
-0.0803025
0.00275553
0.00104316
-0.0465244
0.00641339
-0.0318523
-0.02635
-0.0452607
-0.0134845
-0.0451473
0.00097291
-0.000895999
0.00457006
-0.00834119
-0.0788237
0.00263767
-0.044376
0.00158424
-0.0336831
-0.0494371
-0.0165633
-0.0446206
-0.0480768
0.00088897
0.0270438
-0.0438158
0.0300274
-0.0464214
-0.00565927
-0.00522924
-0.0411523
-0.0699346
-0.073864
-0.00615397
-0.0146641
-0.00707621
-0.0441651
-0.0532249
-0.0155898
0.00711652
-0.0129422
-0.0325482
-0.0477358
-0.0163403
-0.0109725
-0.0451031
-0.025239
-0.000285398
-0.0488538
-0.100995
-0.016133
0.00100124
-0.125763
-0.0462191
0.00153379
-0.0018409
-0.00501234
0.000909601
1.2538e-05
-0.00233533
-0.016966
-0.00468394
-0.0479347
-0.0121673
-0.0555788
-0.0185653
-0.0553934
0.000447103
-0.0422112
-0.055798
-0.0406048
0.00235432
-0.00475168
-0.0463837
0.00119695
-0.00970559
0.00130144
-0.00660694
-0.00153272
-0.0501153
0.000970707
0.00234996
-0.0503607
-0.0078838
-0.00654307
-0.0132703
0.00196308
0.00078983
-0.0378767
-0.0465555
-0.0770691
0.000416312
-0.0436164
-0.0102457
-0.0024696
0.00169946
-0.045693
-0.0340661
-0.00446525
-0.0484001
0.0124672
-0.0044791
-0.0469979
-0.0479216
0.00188915
0.00112195
-0.00314564
-0.0224884
-0.0422784
0.000302968
-0.0496879
-0.00434592
-0.00312487
-0.00682518
-0.0443888
-0.0016862
-0.0217437
0.0100922
-0.0498075
0.00640851
0.0050579
-0.00294899
0.00792991
0.00339496
0.0016622
-0.0190553
-0.0486999
-0.0500596
-0.0310406
-0.0445517
0.000470319
-0.0443374
-0.0451788
-0.0367877
-0.00617122
0.000116111
-0.0063313
-0.00150706
-0.0477004
-0.00505437
-0.0178295
-0.0015599
-0.0670989
-0.0449489
-0.0960585
0.000723236
-0.0463049
-0.00461748
-0.00157783
-0.00269763
0.000837885
-0.13105
-0.0090058
-0.0419363
0.000457919
0.0079231
-0.0510202
-0.00940585
7.25795e-05
-0.00563639
-0.0551114
0.00271304
-0.0144003
0.00053927
-0.00233631
-0.0492895
-0.0192816
-0.0114346
0.00165078
-0.0102821
-0.0246098
-0.0404185
0.00061544
-0.0372789
0.000330497
0.0144461
0.00150729
-0.0788224
0.0301854
-0.0403598
-0.0271529
-0.00922016
0.00340159
-0.0022709
0.000631956
-0.00983068
0.00195667
0.00257654
-0.0488806
-0.0243191
0.00375804
0.00435079
0.00095149
-0.0556156
-0.0531436
-0.0643311
-0.0345812
-0.00885138
0.00243623
0.000255273
0.0019424
-0.0505736
-0.0429807
0.000670862
-0.000984078
-0.00214369
-0.0477079
-0.0171241
-0.0173208
-0.0447025
-0.0163478
0.00260129
-0.0477772
-0.0464738
-0.00443121
0.00146578
-0.00641051
-0.0414044
-0.0561139
-0.0179342
-0.0497351
-0.0936252
-0.0229802
-0.044739
0.0165391
-0.000201162
-0.068846
-0.0493693
-0.00769896
-0.136295
-0.0126758
0.00172203
0.00162776
-0.0495583
0.00304215
-0.0504454
-0.0125915
-0.0258088
-0.0442028
-0.0139228
-0.0480234
-0.0446015
-0.00630274
-0.0203577
-0.0552928
-0.0432774
-0.077431
-0.000169218
-0.00477079
-0.0016289
0.00408086
0.00168234
0.0159456
0.000586711
-0.00628341
-0.00485105
0.0238278
-0.0186072
0.00224379
0.000176205
0.000890568
0.00269114
-0.0122062
0.00147743
-0.0409241
-0.0120323
0.00727151
-0.0420636
0.0204247
0.0155897
-0.0443119
0.00075362
0.00156295
-0.0482403
-0.0883325
-0.0756522
0.00298951
0.00109239
-0.0468059
-0.00742884
0.00198894
-0.0325991
-0.000731994
-0.040848
-0.0464649
0.00133638
-0.108102
-0.0482862
-0.0198136
-0.0914086
-0.0469382
-0.0107872
5.53281e-05
-0.0713356
-0.0713397
-0.025117
-0.0514798
0.000173476
-0.00636524
0.00167875
-0.00865002
-0.0441559
-0.0570646
-0.13565
-0.0593748
-0.0256035
-0.00202456
0.00495172
0.000883063
-0.0031407
0.00166038
-0.054423
-0.000991259
-0.0447439
-8.59287e-05
0.010332
-0.0389158
-0.0499736
-0.0433977
-0.0457607
-0.0396878
0.000833807
0.00151824
-0.0463091
-0.0506337
-0.0243701
-0.000329484
0.00146957
-0.0201784
-0.0143358
-0.0512378
-0.0021205
-0.0273966
0.00164936
-0.0563536
0.00285499
-0.0401159
-0.00317901
-0.00182803
-0.042462
-0.000350048
-0.0486274
0.00102867
-0.0432238
0.00144155
-0.0268183
0.0070502
-0.00932391
0.0147362
-0.0285062
-0.0377039
-0.11437
-0.051309
-0.0229617
-0.0193536
-0.00314952
-0.0459063
-0.0940071
0.000870227
0.0011726
-0.0111227
0.000459806
-0.0419577
0.0004521
0.00491077
-0.00968923
0.0200911
0.00113821
0.00270285
-0.0152142
-0.0512393
-0.0464094
-0.00457122
0.014984
-0.0330062
0.001722
0.037289
-0.00144483
-0.0497748
-0.0391206
0.00296683
-0.00799965
-0.00416124
-0.00406483
-0.0589691
-0.0679491
-0.00315843
0.00166245
0.00190073
0.00112089
-0.0395732
-0.012286
-0.0475656
-0.116456
-0.00830648
0.0153776
-0.0147099
-0.000917374
-0.00233058
-0.0150207
-0.0415679
-0.0105022
-0.0518876
0.00062273
-0.00234071
0.000747986
-0.00763784
-0.0604524
-0.0490101
-0.0104965
-0.0798969
-0.0584532
0.00157649
-0.00825876
0.00171874
0.0052354
-0.0425103
-0.0509461
-0.00731943
-0.00394573
-0.00900523
-0.0110147
-0.0370883
-0.105339
-0.010639
-0.0433738
-0.0441074
0.00350777
-0.00799752
0.000768408
-0.0415785
-0.00791848
-0.00300833
-0.041934
-0.0180503
-0.115682
0.00304552
-0.0209184
0.00116983
-0.140842
-0.0884278
-0.0157524
0.00595752
-0.0235849
-0.00867906
-0.000611215
-0.00991176
0.00166671
-0.0709042
-0.0135183
-0.0936792
-0.00388084
-0.0863739
0.0158905
-0.0435174
0.00264483
-0.0318579
-0.0765386
0.000393488
-0.0259247
-0.0432994
0.000973289
0.00465238
-0.0225217
-0.106441
-0.0557528
-0.00226915
0.00807009
-0.0240932
-0.000358907
0.00413779
-0.00911006
-0.0804001
-0.0118937
-0.0208245
-0.0151864
-0.00224902
0.0382666
-0.0472341
-0.0120237
-0.0490929
0.00500135
0.00100342
0.0484494
-0.0428356
0.00255267
-0.0380542
-0.0598212
-0.0381074
0.00109574
-0.01082
-0.0213507
-0.0464982
-0.0493621
-0.00946772
-0.0410455
-0.0204061
0.000193175
-0.00476321
-0.0533739
-0.00175166
0.00219478
-0.0745068
-0.00219775
-0.013735
-0.000941228
-0.0536782
-0.00474101
-0.116992
0.00317215
-0.029269
-0.0197108
-0.00416287
-0.0458925
-0.0698757
-0.00886103
-0.00496045
-0.0502216
8.9077e-05
-0.0108565
-0.0110682
-0.0203529
-0.0399203
-0.0413546
0.00225734
-0.0463788
-0.0249993
-0.0436924
-0.00124015
0.0269199
0.00215658
-0.0415117
-0.0422527
-0.038062
-0.0188586
-0.0516718
-0.102702
-0.0117445
0.00990338
0.00203729
-0.0276389
-0.0404134
-0.000219312
-0.0449431
-0.000554625
-0.0516283
-0.00291247
-0.0421353
0.000936516
-0.000526215
-0.0186946
0.00914092
-0.0898091
-0.0461856
-0.0539173
-0.0173091
0.00162505
-0.012436
0.00704105
0.00167009
-0.0543355
0.000167055
-0.0378075
-0.00816299
0.0047991
-0.00386295
-0.00439328
-0.00306343
0.00742529
0.0114345
0.0025618
-0.0420515
-0.000279498
-0.00636941
-0.0241606
0.00103041
-0.00914893
-0.00928373
-0.0198917
-0.0183526
-0.000666541
0.0059807
-0.0498081
0.00161646
0.0156252
-0.000614281
-0.0151921
0.00168461
-0.0485307
-0.0110598
-0.00215846
-0.0494121
-0.0315797
-0.0310654
-0.0455447
-0.0545092
0.0034361
-0.0100228
-0.0124659
-0.0198402
0.00656539
0.0012355
-0.0305886
-0.131276
-0.0433345
-0.0492066
-0.0118435
-0.0639088
0.00762256
-0.020691
0.000987045
-0.0507521
-0.00975372
-0.0272994
-0.00887993
-0.0461702
-0.0828571
-0.00705365
0.00119798
-0.0185982
0.00329905
-0.0151378
-0.0474573
-0.00279922
0.00406236
-0.129119
-0.0441169
0.0012058
-0.0278905
-0.0326333
-0.0855548
0.000103482
-0.0809471
-0.138417
0.00188481
-0.0232278
-0.0680174
0.00561446
0.00318261
-0.00592459
0.00467307
-0.0248977
0.00160675
-0.000300133
-0.0442226
-0.0689142
-0.0632478
0.00108731
-0.0437808
-0.0107897
-0.0440396
0.00162464
-0.00884066
-0.0229683
0.00118307
-0.0856592
-0.026669
-0.00842443
-0.0371894
-0.0778561
-0.0127668
-0.051484
-0.0795618
-0.0467633
7.93987e-05
-0.0581611
0.00167945
0.000594515
-0.00826345
0.00150605
0.00170625
-0.107459
0.00672184
-0.000523952
0.00201262
-0.134169
-0.0879688
-0.00088132
0.00119152
0.00555157
0.00414672
-0.0822159
0.00221395
7.38343e-05
-0.00515189
-0.0162954
0.00181626
-0.00101803
-0.105143
-0.0372787
-0.0183864
0.00218495
-0.0107114
-0.0166558
-0.0438562
0.00149407
-0.0606228
-0.041885
-0.0123663
-0.103194
-0.0731849
0.001493
-0.0548606
-0.0113637
-0.0614518
0.0026361
-0.00917191
-0.000918561
-0.0149482
0.00606419
-0.0637083
0.00175091
0.00168069
0.00315259
-0.050933
-0.0361061
-0.141624
-0.0490394
-0.0121789
-0.0412378
-0.0187615
-0.0296943
-0.0580887
-0.100624
0.000833413
-0.0461447
-0.0060388
-0.0154467
-0.00212879
-0.0536421
-0.0362627
-0.0255183
-0.0836066
0.0015161
-0.151193
0.000445641
-0.0156561
-0.0093404
0.0052611
-0.0437649
-0.0309894
-0.090308
-0.0192914
-0.0182329
0.00234438
-0.0770954
-0.0381188
-0.0449518
-0.020026
-0.10436
-0.00351565
-0.078017
-0.0535381
-0.088683
-0.0103875
0.00153829
0.00103896
-0.044337
0.00198692
-0.0133079
-0.00599569
-0.0135967
0.00144195
-0.00999786
-0.0866499
-0.0512248
-0.0840818
-0.0850222
-0.00115139
-0.062521
-0.0478738
-0.0499477
-0.0669476
-0.0447678
0.00205303
-0.154648
-0.026558
-0.037639
-0.0459158
-0.0656327
0.00145319
-0.02685
0.000158416
-0.010393
-0.0283486
-0.0492103
-0.045136
-0.0396492
-0.00691721
-0.0148072
-0.00396864
-0.0450848
-0.0707748
-0.00516775
-0.0511325
-0.0190053
-0.0113496
-0.00920287
-0.0524862
-0.0927159
-0.00936062
-0.0108253
-0.0241762
-0.0028043
-0.00527122
-0.0194254
0.00208236
-0.0079238
0.019463
-0.107658
0.0089761
-0.0913131
-0.012037
-0.00524768
-0.0477257
-0.0465882
-0.00167948
0.00249806
-0.00912175
-0.0271739
0.00264778
0.00146468
-0.00407486
0.00200458
-0.01175
-0.00126702
0.00178786
-0.00533897
-0.0587043
-0.0229025
-0.0445263
-0.0116218
-0.00513558
-0.0455006
-0.0230684
-0.0267592
0.00212791
-0.0112679
-0.00253688
-0.00895147
0.00103866
-0.0171974
-0.00887384
-0.0460444
0.00536705
-0.0132592
-0.014105
0.00115021
-0.00339628
0.0147931
0.00539221
-0.0440798
-0.0687419
0.0139508
-0.0157103
-0.00877347
-0.0119034
0.000794117
-0.0145746
-0.00296694
0.0122196
-0.0598032
0.0030587
-0.0453223
-0.0460802
0.000444725
-0.0020937
-0.000624159
-0.0291419
-0.0322883
0.000665101
-0.00185355
-0.0481024
0.0111708
0.00202612
-0.0453886
0.00098729
0.00394589
0.00144401
0.00101461
0.00180327
0.0018891
0.00663796
-0.060295
0.013528
-0.0172307
0.0511157
0.0166527
0.0113679
-0.0349133
-0.0489704
-0.0735126
-0.0433943
-0.037255
-0.0510415
-0.0494079
-0.00971314
-0.01907
0.00169401
0.0150099
-0.000349566
-0.0157261
-0.0358445
0.00262404
0.0296021
0.0328399
0.0014104
0.00145479
-0.00906432
0.0046751
0.00161095
0.00269653
-0.0857546
-0.0583
-0.00694519
-0.0078027
0.00154017
-0.0471099
-0.0107641
-0.0448483
-0.0187956
-0.0475581
-0.000182011
-0.0484956
-0.0424257
-0.000361988
-0.00285724
-0.00790016
8.37614e-05
-0.000834141
-0.000752268
-5.69689e-05
-0.0155534
-0.0464386
-0.0451238
-0.042567
0.00518498
-0.0429128
-0.0533568
-0.00787827
0.00147168
0.00220873
0.00146632
-0.0185217
0.00426901
-0.0412383
-0.00977396
-0.0425022
-0.0316684
-0.0883157
-0.0421415
-0.0458424
-0.0436928
-0.00346389
0.0018613
0.00287095
-0.00653016
0.00150433
-0.0160832
-0.0454564
-0.04656
-0.00918444
-0.0104525
0.00287809
-0.0104423
-0.0431685
0.00168875
0.00285276
-0.0503545
0.000159372
-0.0230752
-0.00931859
-0.0217884
-0.0154871
-0.0480795
-0.00872375
-0.0010869
-0.0459369
-0.0472594
-0.0414113
0.00105864
-0.00742371
0.00106017
-0.00976797
-0.0639836
0.00116293
-0.126219
0.00221213
0.000630564
-0.0106376
-0.0442408
-0.0389426
-0.0463464
-0.00873386
0.00144249
0.00230341
-0.136869
0.00431819
0.00169254
0.00338034
-0.00526138
0.00554079
0.00204868
0.00189862
-0.0436686
-0.0441496
-0.0434482
0.0338621
-0.0559493
-0.0976759
-0.0527282
-0.0438956
-0.0409742
0.000984362
0.000922176
0.000499361
-0.00374458
-0.0450849
-0.0454614
0.00142754
-0.128233
-0.0435284
-0.0413969
0.00295908
-0.00802064
-0.0864943
-0.0543093
-0.0450614
0.0284176
-0.0441981
0.000444738
-0.0545897
-0.0419707
0.000360553
-0.0461717
-0.00921008
-0.0521919
-0.119697
-0.00257586
-0.0173031
-0.00256355
0.00219195
-0.108647
-0.0427453
-0.0529026
-0.0113884
-0.0472004
-0.0547288
-0.0427161
-0.0433362
-0.0469074
-0.0487471
-0.0754143
-0.0102477
0.00434015
-0.0394335
-0.0410298
-0.00164163
-0.0416096
0.00116095
-0.0242424
0.0103547
0.00124738
-0.0500217
-0.00972014
-0.0493323
-0.0440975
-0.00980592
-0.0072828
-0.0375352
-0.0432322
-0.0809167
-0.0454382
0.00492631
0.00134466
-0.044771
0.00217717
0.00176484
-0.033545
-0.0198999
-0.0421278
-0.0235016
-0.00590782
-0.0172195
0.00187711
-0.0452373
-0.0104346
-0.0490651
-0.00397014
0.00105925
-0.0435665
-0.0432079
0.00294985
-0.14803
-0.0488638
-0.00923144
0.00452281
-0.015557
-0.0434676
0.00388827
0.00143075
-0.0557381
-0.0110589
-0.0441825
-0.0431529
-0.0448789
0.000389097
0.00450498
-0.0115113
-0.0298189
-0.0314723
0.00123361
-0.0474895
-0.0514999
-0.000543625
0.00175013
-0.0407632
-0.00870366
-0.0464284
-0.0531412
0.00314387
-0.10571
-0.0509435
-0.016675
0.0015214
-0.0440332
-0.0402591
-0.0868914
-0.0106017
0.00142521
-0.0397954
-0.00643992
-0.00261637
0.00122312
-0.0219474
0.00196296
0.0119383
0.00108303
0.00336756
-0.0140496
-0.0501606
-0.042458
0.00632524
-0.0522319
-0.0437391
0.00060845
-0.047392
-0.0469244
-0.0413273
0.00144495
-0.0401808
-0.0406698
-0.0660356
-0.0520141
-0.05982
-0.00675672
-0.0443612
-0.0517982
-0.0500954
0.00120677
-0.0405948
-0.0501938
-0.00897183
-0.0503603
-0.0924683
0.00376106
-0.0712243
-0.0508659
-0.00512125
0.00108909
0.00449764
-0.00913693
-0.01124
0.00170152
0.00145649
-0.0458335
-0.048964
0.00401014
-0.0442003
0.00122097
0.00418726
-0.0803473
-0.0422752
-0.0823903
-0.037766
-0.0422851
0.00306786
0.00149831
-0.0307627
-0.0449027
-0.0524511
-0.055732
-0.0486786
-0.019588
0.00162142
-0.00903968
-0.0195346
-0.0311999
-0.0826103
-0.0474162
-0.0153816
-0.0485242
-0.0474888
0.00563273
-0.0581758
-0.0109564
-0.0229341
0.0159466
-0.0108441
0.00152568
-0.0213956
-0.0225814
-0.097427
-0.041993
0.00170978
-0.0502768
-0.0165305
-0.00548208
-0.0912092
0.0149857
-0.0437833
0.00198419
-0.0552133
-0.0431834
-0.052358
-0.0543816
0.00373818
-0.0847163
-0.0458942
-0.0441167
0.00166242
-0.0738484
0.00145743
0.00217922
-0.00822565
-0.0217723
-0.0452403
-0.0432552
-0.0209064
-0.0609908
-0.0217317
0.00146024
-0.000425649
-0.0098555
-0.00174584
-0.0358235
-0.0440239
-0.0436491
-0.0537237
-0.00858813
-0.00318183
-0.0183762
0.000925921
-0.0431348
0.000912537
0.00183065
-0.0101482
-0.045024
0.0469629
-0.0412012
-0.0374304
-0.0639425
-0.0113457
-0.0879035
-0.0484543
-0.0451855
-0.0142819
0.00296327
-0.0149852
-0.0104559
-0.0566772
-0.0843622
-0.0208849
-0.0935995
-0.0495163
-0.0610135
-0.0163993
0.0292606
0.00367542
-0.00145126
-0.0549521
0.00598195
-0.0222041
-0.0116172
-0.017725
-0.0110538
-0.14366
-0.0498463
-0.0046149
-0.00789899
-0.0283655
-0.00227954
0.00306146
0.019884
-0.0420191
-0.00285723
-0.0511105
-0.00934264
-0.041931
-0.0109435
0.00284473
-0.00767794
-0.0419167
-0.000623686
-0.0444083
-0.0667839
-0.0146042
0.0118814
-0.0505032
-0.00332333
-0.0524483
-0.00389873
-0.00249292
-0.0500283
0.00185431
-0.042891
-0.0209137
-0.00180943
0.0013758
-0.000479597
-0.0293225
-0.0107091
-0.0497801
-0.0484934
-0.0115637
-0.000521911
-0.0748181
-0.0735848
-0.00837332
-0.0354471
0.000744069
-0.00291208
-0.034259
-0.050802
-0.0131455
-0.05133
0.0415548
0.00152736
-0.00772264
0.00322812
-0.000435647
-0.00396704
-0.0439873
-0.00355632
-0.0655099
0.000651767
-0.0475334
-0.0494407
-0.0308356
-0.00114014
-0.0501201
-0.0486791
-0.0567863
0.00635998
-0.0194601
-0.0496624
-0.0197046
0.00399969
-0.0496331
-0.0425817
-0.00524631
-0.00144933
-0.0506713
0.0071902
0.0296649
-0.00761202
-0.0351488
0.00206622
-0.00871237
-0.0536688
-0.0116417
-0.0163819
-0.000514229
-0.000732191
0.0467513
-0.0466614
5.69721e-05
0.050976
-0.0482606
0.00147094
0.00243575
-0.0437789
-0.039456
-0.0456887
-0.00985078
-0.0196148
0.01829
0.00142491
0.000409329
-0.0392275
-0.0200401
-0.0430272
-0.0517373
-0.0263438
-0.0459941
-0.0130648
-0.0460028
-0.00110151
-0.00690903
-0.040376
-0.0231948
-0.00443205
-0.0361361
-0.00306891
-0.000686146
-0.0225059
0.00432404
0.00137622
-0.0282291
-0.00818382
0.00143538
-0.0594049
-0.0404364
0.00188905
-0.0566082
-0.0344131
-0.0885181
0.00188393
-0.0415291
-0.0210654
-0.0424722
0.000624141
-0.0440921
-0.032116
-0.00445746
-0.00398342
0.0220862
-0.0359028
-0.0021791
0.00248598
-0.0412335
-0.0411013
-0.0304057
0.00473056
-0.00473518
-0.113259
-0.00899466
0.0231411
0.0013889
0.00142487
0.00165467
-4.70761e-05
-0.0121651
0.0389751
-0.0430246
0.0179885
-0.044442
-0.000603305
-0.0199451
-0.0103633
-0.0249757
-0.0103784
-0.0184179
-0.0101665
0.00221483
-0.000279972
-0.0484567
-0.0206838
-0.0433764
0.00176954
0.00604932
-0.0350606
-0.0550459
-0.0143606
-0.0463105
-0.021219
-0.0409553
0.024928
-0.00119159
-0.100949
-0.0496113
0.0131719
-0.00787733
-0.0176386
-0.00587021
0.000935834
-0.0523212
0.0014427
-0.0664933
-0.0486284
-0.0477523
-0.00407713
0.00173882
-0.0326057
-0.0492662
0.0296659
-0.00392992
-0.00272957
-0.00396864
-0.00167212
0.00102968
0.0149522
-0.0401099
-0.00305059
-0.00256282
-0.051693
-0.0330854
-0.0173889
0.00502783
-0.00525961
0.00164343
-0.00704551
-0.0433986
0.00134465
-0.0168891
-0.0457091
-0.0476969
-0.0386622
0.0140497
0.017637
-0.0434167
-0.00950657
-0.0314269
-0.00822694
0.0144285
-0.0103491
-0.0370675
-0.0102642
-0.00121538