/*--------------------------------*- C++ -*----------------------------------*\
| =========                 |                                                 |
| \\      /  F ield         | OpenFOAM: The Open Source CFD Toolbox           |
|  \\    /   O peration     | Version:  v2012                                 |
|   \\  /    A nd           | Website:  www.openfoam.com                      |
|    \\/     M anipulation  |                                                 |
\*---------------------------------------------------------------------------*/
FoamFile
{
    version     2.0;
    format      ascii;
    class       surfaceScalarField;
    location    "250";
    object      phi;
}
// * * * * * * * * * * * * * * * * * * * * * * * * * * * * * * * * * * * * * //

dimensions      [0 3 -1 0 0 0 0];
oriented        oriented;


internalField   nonuniform List<scalar> 
20537
(
-0.378444
0.508823
-0.130371
-0.086192
-0.114124
0.200316
-0.185215
0.163218
0.0219977
-0.0208778
-0.30257
0.323454
-0.147992
0.164011
-0.0160183
0.307501
-0.46559
0.158091
0.19679
0.201871
-0.398646
0.24351
-0.0885695
-0.15494
-0.456081
-0.093782
0.549882
-0.0319468
0.20277
-0.170822
0.575027
-0.19167
-0.383356
0.0514035
-0.0916014
0.040198
0.0891272
0.0147574
-0.103885
-0.010083
-0.00563669
0.0157197
0.673669
-0.543709
-0.129892
0.278274
-0.285978
0.00770581
-0.047295
0.282517
-0.235218
0.439732
-0.25027
-0.189459
-0.143523
0.149313
-0.0057905
0.0822327
-0.538295
0.346978
-0.367844
-0.0807266
-0.104488
-0.363913
0.584333
-0.220412
-0.69023
0.098536
0.591726
-0.549351
0.185445
0.215667
0.0278439
-0.0871056
-0.18062
0.267728
-0.00491641
-0.00158941
0.00645092
-0.384887
0.226825
-0.352017
0.125198
0.453964
-0.14646
0.230241
-0.277533
-0.0223075
0.185526
0.479344
-0.478492
-0.000851109
-0.602108
-0.0880896
0.113994
-0.128153
0.0141595
-0.00231152
0.090232
-0.0879205
0.210678
-0.12678
-0.0838973
0.133697
-0.165643
0.0415509
0.437794
0.0440481
0.337362
-0.381393
0.488544
-0.662638
0.174097
-0.00344551
0.00193699
0.00150852
0.33997
-0.543631
0.203662
0.551836
-0.211866
-0.00798094
-0.00576025
0.0137412
-0.540175
0.186739
0.353436
0.213309
-0.480113
0.266805
0.172579
-0.259682
0.325344
0.222802
-0.548141
0.163926
-0.0189953
-0.14493
0.147549
-0.07578
-0.0717691
-0.00137075
-0.00160705
0.0029778
-0.731603
0.372548
0.359119
0.654238
-0.535229
-0.118949
0.661653
-0.173107
0.652584
-0.295691
-0.356876
0.00283815
-0.00650741
0.00366926
-0.18346
0.410291
0.283873
0.0950338
-0.378893
0.0564813
0.154197
0.0631294
-0.0742579
0.0111285
-0.391451
0.290309
0.101144
-0.143578
0.128957
0.0146212
-0.142855
0.335843
-0.192987
-0.449172
0.145907
0.30327
0.0703455
-0.072657
-0.566295
0.193852
-0.213383
0.215485
-0.00210068
0.195029
0.244706
0.0158935
-0.0194541
0.00356059
0.0897706
-0.0804998
-0.00927081
0.0973241
-0.183516
-0.291072
-0.440455
0.280709
-0.584087
0.303432
-0.528246
0.433967
0.0942911
-0.135851
0.0551244
-0.0255908
0.00128224
0.0243086
-0.00168698
-0.174131
0.175818
0.0187998
-0.00156484
-0.171006
0.431214
-0.260198
0.511569
-0.000549286
-0.51102
-0.433397
-0.0504953
0.483924
0.00440729
0.00280941
-0.0072167
-0.316687
-0.0747612
0.0856996
-0.034296
0.469784
-0.144563
-0.325218
0.000768545
0.15984
-0.160608
-0.261603
0.3227
-0.0610945
-0.357964
-0.249391
0.607363
0.0215327
0.0924611
-0.081061
-0.319116
0.400182
-0.283053
-0.0905454
0.250889
-0.160342
-0.0283726
-0.233228
0.563075
-0.551334
-0.0117244
0.0302099
-0.178202
0.0120494
0.032289
-0.0443384
-0.172896
0.498243
-0.02459
0.587686
0.0207031
-0.0186687
-0.00203433
0.175631
-0.17303
-0.00259998
0.0751841
-0.381788
0.306613
0.266595
-0.0172087
-0.456732
-0.0990937
0.555827
-0.48491
0.38758
0.0973335
-0.181112
0.177879
0.00323341
0.52309
-0.680746
0.157658
0.0698982
0.0103842
-0.142132
-0.323455
-0.540696
-0.0194307
0.560148
0.274305
-0.63226
0.313366
-0.394422
-0.651017
0.651047
-0.0720059
-0.468667
0.313705
-0.0227241
-0.0516884
0.0637378
0.0721544
-0.470996
0.398845
-0.572932
0.574888
-0.00191263
-0.192158
0.561369
-0.369159
-0.00313266
-0.000312852
0.236027
0.0305713
0.095465
-0.00633781
0.214661
0.463696
-0.250385
-0.771377
0.345779
0.425602
0.222515
0.241182
0.158168
-0.187909
0.0297409
0.0306718
0.316315
0.173891
-0.084436
-0.0894545
0.424414
-0.380345
0.555725
-0.16134
-0.394356
0.0208902
-0.00499668
-0.550409
0.117046
0.279242
-0.57152
0.606294
-0.0347394
0.554356
-0.482198
-0.0738391
0.0908415
-0.0170024
-0.0160146
-0.0049411
0.0209557
-0.0279064
0.0130221
0.0148842
0.00886855
0.0118345
0.376126
0.278179
0.164569
-0.562275
0.397715
0.717132
-0.382821
-0.334308
0.410968
-0.0841128
-0.32685
-0.146566
-0.397065
-0.446646
0.620889
-0.174242
0.0439801
0.129911
-0.267559
0.464369
0.202592
0.349244
-0.00209381
0.129587
-0.421927
0.614543
-0.192561
0.00939236
-0.0194754
0.309753
0.342846
0.363511
-0.207454
-0.156053
0.303731
0.107242
-0.496762
0.187659
0.309122
0.233794
0.127927
-0.361715
0.0142918
0.133257
0.0034777
0.160448
-0.351407
-0.246934
0.598341
-0.0764773
0.225365
-0.148886
0.00482018
-0.00198203
0.164025
0.391727
0.272306
-0.371275
0.0989732
0.63974
-0.229194
-0.410542
-0.691172
0.244526
0.00479281
-0.218175
-0.319171
0.349852
0.0429067
-0.00391233
-0.0389944
0.000144461
-0.0257353
0.240265
-0.54502
0.304772
-0.173938
-0.322805
-0.01813
-0.00977642
0.565412
-0.40136
-0.244518
-0.235594
0.183723
-0.0255541
0.533277
-0.509484
-0.0237853
-0.0238347
-0.119688
-0.518529
0.665752
-0.147221
-0.269835
0.0557377
0.2141
0.0159315
-0.1293
-0.361568
0.490901
0.052591
-0.157079
-0.362045
-0.234948
0.596994
-0.448538
0.614437
-0.165887
-0.173749
-0.275417
0.355883
-0.547987
-0.169825
0.15995
0.00987474
0.236318
0.000569612
-0.236887
-0.346322
0.00273499
-0.00410574
0.264831
-0.542204
0.27738
0.186059
-0.210091
0.024033
0.0770742
-0.0139447
0.400331
-0.178254
-0.222073
0.540665
-0.376087
-0.0725583
0.491478
-0.418919
0.460033
0.0732525
-0.429018
-0.099216
-0.302837
-0.468537
-0.0123322
0.027637
-0.0153048
-0.579251
0.084096
0.495202
-0.538664
0.145961
0.392731
-0.0272426
0.217215
-0.189972
-0.491027
0.361758
-0.0528097
-0.0191296
0.0719393
0.148682
0.140098
-0.288776
0.0310643
-0.00216076
-0.0289036
0.127759
0.441932
-0.56969
-0.0154531
-0.0359921
0.0514453
-0.354258
0.429453
-0.471903
0.0667097
0.405193
0.451094
-0.633985
0.182893
-0.718341
0.430063
0.288282
0.625147
-0.268443
-0.356702
-0.144042
0.39279
-0.248746
-0.00819851
0.000217573
-0.107948
-0.408928
0.516924
0.0329413
-0.00187698
0.264838
-0.116154
0.194171
-0.365168
-0.00228457
0.0480906
-0.045806
-0.0666526
0.145779
-0.079126
0.000232486
0.0366325
-0.036865
-0.598685
0.58005
0.0186467
-0.0469135
-0.190759
0.237674
-0.525607
0.068877
-0.00441033
0.000436707
0.00397362
0.671551
-0.220456
0.218508
-0.00284054
0.341566
-0.309828
-0.0317371
-0.285017
0.525298
0.539143
-0.155349
0.146206
0.00914316
-0.0574204
-0.25429
0.311712
0.0180396
-0.0708492
0.14158
-0.284434
0.279515
0.437621
-0.454863
-0.0837751
0.113839
0.340127
0.366266
-0.475405
0.109141
0.574606
0.0567989
-0.631404
-0.19377
0.166528
0.4559
-0.554992
0.0301951
0.00440957
-0.0346046
0.194079
-0.0184481
0.481277
-0.432546
-0.0487313
-0.395265
0.293581
0.101689
-0.223156
-0.123219
0.346378
0.664074
-0.388074
-0.275994
0.472203
-0.105936
-0.24564
-0.10693
0.352577
-0.0915297
-0.0309258
-0.120072
0.150998
0.380639
-0.170486
-0.210152
0.253582
-0.0172631
0.00918636
0.0816552
0.00718898
-0.0159168
0.00872779
-0.188162
-0.346458
0.534658
-0.438823
-0.445091
0.348346
0.0967483
0.498754
-0.172596
-0.326157
-0.629227
0.206742
0.42249
-0.134218
0.111701
0.022517
0.188243
0.212092
-0.366801
0.121169
-0.206622
0.116078
0.0510716
-0.0533562
0.404581
0.155465
-0.560043
0.300215
0.363865
0.185261
0.575927
-0.189959
-0.385967
0.176438
-0.178125
0.254055
0.0242198
-0.534049
0.372737
0.611889
-0.10032
0.609179
-0.201227
-0.407951
-0.00136004
0.0378659
-0.0365059
0.130487
0.444541
0.0253017
0.549304
0.0798851
-0.556986
0.477102
-0.502343
0.598579
-0.0962348
-0.150918
0.119993
0.0554374
0.443317
0.413443
-0.206958
-0.206484
0.0331269
0.454511
-0.487622
-0.381983
0.495827
-0.113795
0.187643
0.388285
-0.683939
0.329158
0.35478
0.148462
-0.104482
0.149029
-0.332485
-0.104124
0.388008
-0.218625
0.216371
0.00225467
-0.41719
-0.266749
-0.0361907
-0.0980273
0.0703281
0.170602
-0.240928
0.0707484
0.0149512
0.434498
-0.569877
0.135404
0.0371168
-0.00692174
0.106214
-0.182691
0.0795053
0.203014
-0.0140816
-0.0294206
0.0435022
-0.142339
0.366379
-0.224029
-0.361271
-0.123635
-0.0423595
0.0385628
0.0037967
0.480989
-0.447843
-0.0151227
-0.14535
0.160473
0.226296
0.0245937
-0.223741
0.372776
0.0156431
-0.0316577
0.222306
-0.151976
0.385616
-0.361383
-0.0242252
0.0498106
-0.0594094
0.00959883
0.650186
-0.257006
-0.393177
0.0554944
-0.278648
0.732806
-0.366278
-0.366525
-0.0490333
0.0476733
0.124829
-0.0155984
-0.10923
-0.50644
0.398536
-0.19075
0.0464664
0.144284
-0.261829
0.489033
-0.227156
0.0271603
-0.0199713
0.0006775
0.456513
-0.457185
-0.454687
0.643123
-0.188427
0.610383
-0.249778
-0.360592
0.124663
0.000166165
0.199018
-0.24593
-0.323169
0.0733163
0.249857
0.107324
-0.369367
0.22704
0.327121
0.0585046
0.407023
-0.598692
0.0254371
-0.0057955
-0.0472549
0.000660098
0.0465949
0.081306
-0.380306
0.299004
0.0424535
-0.056535
-0.000210094
-0.0866901
0.0869002
0.382658
-0.0193548
0.205414
0.126671
0.0217909
0.540731
-0.33645
-0.204277
0.0457958
0.219139
-0.264933
-0.000163293
0.114215
-0.114051
0.113122
-0.239479
0.518815
-0.27933
0.377059
-0.0574247
-0.319635
-0.00630695
-0.0342853
0.0405923
0.0388785
-0.582519
0.662691
-0.082514
-0.580175
0.182063
0.480631
0.187324
-0.0532769
-0.134047
-0.109588
-0.213577
-0.206963
0.25276
0.000864977
-0.0052753
-0.493523
0.319602
0.0224213
0.354638
0.358172
0.252225
-0.499701
0.237926
-0.112682
0.568583
-0.0543557
0.577448
-0.182952
0.552397
-0.369423
0.0387387
-0.0450456
0.658008
-0.221984
-0.436023
0.315419
-0.442036
0.126635
0.178265
-0.193387
-0.653358
0.358921
0.29444
0.0748067
-0.00405815
-0.300271
0.233899
0.0663732
0.305297
-0.366657
0.0430722
-0.000165478
-0.11912
0.434556
-0.2417
0.0976595
-0.0311059
-0.196507
0.227615
-0.17385
0.479148
0.0861272
-0.446615
0.360509
0.159076
-0.63007
0.202056
0.219165
-0.421216
-0.00384459
-0.0107773
0.0146219
0.636652
-0.0245386
0.0401817
0.22162
-0.103152
0.102989
-0.0320722
0.0281599
-0.686886
0.186176
0.500712
-0.188913
-0.497971
-0.0198824
-0.335413
0.355301
0.631432
-0.154383
-0.477025
0.513062
-0.526646
0.0136524
0.386973
-0.305663
-0.0864297
-0.10432
0.00911008
-0.0147468
-0.255202
0.216275
0.0389276
-0.0461867
0.0464192
0.0447329
-0.00904982
-0.0356831
-0.396666
-0.256689
0.232494
-0.420625
-0.00418275
0.00502342
-0.0201765
0.0151531
0.0733335
0.268233
-0.0534138
0.00172542
0.45035
-0.24829
-0.215022
0.183917
0.501083
-0.534525
0.0334579
-0.104936
0.104726
-0.436232
0.516155
-0.0799078
-0.107897
-0.178079
0.365885
-0.385761
-0.44656
0.340959
0.105618
0.0534853
0.0938695
0.387137
0.317722
0.32202
-0.122907
-0.020671
0.242383
0.0618575
-0.304239
-0.0153787
-0.0103097
0.0256883
0.348268
0.0103011
-0.358565
-0.134646
-0.455276
0.0276311
0.427649
0.305745
0.166458
-0.32954
0.09168
0.237863
0.168915
0.0184093
0.286118
-0.206609
0.220538
0.404611
0.121923
0.432437
0.495427
-0.401539
0.0932538
-0.541779
0.141294
-0.166706
0.0254119
0.0914068
-0.455911
0.364505
0.129428
-0.119946
-0.00948158
-0.0562771
-0.398996
0.0117816
-0.266513
-0.211978
0.108516
0.139502
-0.0603705
-0.094978
0.443739
-0.357589
0.437178
-0.13143
0.659024
-0.499127
-0.159894
-0.166835
0.00177707
0.165058
-0.297071
0.482608
-0.185535
0.00834206
0.173583
-0.181925
-0.0233871
-0.00359368
0.0269807
0.589468
-0.129426
-0.65073
0.227404
0.423328
-0.534792
0.237722
0.0293826
-0.0144752
0.305487
-0.667532
-0.22747
0.223891
0.00358097
0.00959263
0.556161
-0.151577
-0.487377
0.543252
-0.0558586
-0.402294
0.105038
0.297265
0.131121
0.0270844
-0.102864
0.0741045
-0.358688
0.284586
0.0910922
-0.0709694
-0.0201228
-0.546092
-0.0525822
-0.563337
0.313572
0.00095964
0.00275525
-0.00371489
-0.0752975
0.347606
-0.456781
0.536667
0.119317
-0.118549
0.463957
0.1675
0.20626
-0.156515
-0.376734
0.533267
0.115558
0.189942
-0.305498
-0.125257
-0.244255
0.369517
-0.429226
0.460012
0.129465
-0.0105123
0.0603229
0.378874
-0.429343
0.20332
-0.197121
-0.00619864
-0.0789234
-0.492562
0.264319
-0.378655
0.114341
-0.651025
0.231641
0.419385
0.562224
-0.562194
0.517224
-0.155884
-0.361324
-0.552451
0.134443
0.516632
-0.154999
0.412497
-0.257497
0.259929
0.108562
-0.368481
0.347465
-0.492025
0.11538
-0.476916
-0.166194
0.667292
0.0208665
-0.0055943
-0.0152722
0.00196089
-0.0253479
0.14044
0.321093
-0.461506
0.396321
-0.131998
-0.285977
-0.0435608
-0.287598
-0.187806
0.0106036
-0.00619629
-0.364068
-0.199259
0.208766
0.449243
-0.0747456
-0.371848
-0.154365
0.00270191
0.151663
-0.333031
-0.0646555
0.397701
-0.00766097
0.00582662
0.00183434
-0.132781
0.543914
-0.41113
-0.00252968
0.000922628
-0.240595
0.242447
-0.00185123
-0.212693
-0.449942
0.218639
0.177687
0.0461455
-0.0135051
-0.0326404
0.208274
0.0102347
-0.440335
0.470598
-0.030263
-0.518293
-0.0545969
0.314455
-0.480387
0.165932
-0.570741
0.0355765
-0.168819
0.577461
-0.408617
-0.578415
0.187179
0.391261
-0.447512
0.337952
0.109578
0.0241756
-0.0191521
-0.157401
0.156009
0.00139276
0.128049
-0.0194621
-0.108586
0.0980728
-0.0903434
-0.00772937
0.0761054
0.326128
-0.677535
-0.0904636
-0.0111111
0.101575
0.474097
-0.38269
-0.0574225
-0.212411
0.0050619
0.220304
-0.493022
0.205427
-0.259952
0.474614
-0.0649936
0.0495404
-0.514126
-0.00979299
0.523988
-0.00229724
-0.00536372
0.00484334
0.00474621
-0.0170784
-0.148967
-0.137113
0.355756
0.543851
-0.233517
-0.458336
-0.192393
0.254192
0.126448
0.396509
-0.469067
-0.158164
0.0113863
0.146778
0.353719
-0.11992
-0.135545
-0.0226195
0.0754397
-0.00593605
-0.0695037
-0.536268
0.40349
0.150845
-0.153923
0.00278546
-0.022428
0.0196425
0.378225
-0.0846393
0.333215
0.170774
-0.503952
-0.354524
0.542203
0.336863
0.119933
-0.456778
-0.014847
-0.154977
0.250429
0.0560294
-0.306457
0.00067302
0.159167
0.0713086
0.0197837
-0.43728
0.595646
-0.158339
0.00370402
-0.00274438
0.00118208
-0.0280087
0.0268266
0.469226
-0.402866
-0.0663569
0.165359
0.308738
0.208114
0.578142
-0.477263
-0.100878
0.401663
0.480439
0.0730754
-0.553515
-0.0980683
0.00760479
-0.225045
0.0175939
0.119807
-0.119182
-0.000625243
-0.0851109
0.102319
-0.0172085
0.210957
0.450699
-0.392869
0.449397
-0.0565248
-0.220201
0.460331
-0.24013
-0.208399
0.155122
-0.142758
0.146884
-0.00412647
0.00236575
0.0218098
-0.00518438
0.0741459
-0.0689615
0.349688
-0.106621
-0.339922
-0.0773044
0.119089
-0.041785
0.0023734
-0.0975044
-0.00904454
0.106549
-0.118432
-0.136769
0.376997
-0.0866865
-0.572883
0.314026
0.194713
-0.508707
-0.155448
0.692934
-0.481974
0.28539
0.0928401
0.181402
0.484352
-0.160322
-0.395045
0.555401
0.0786731
-0.00323341
0.159167
-0.476499
0.420226
0.294235
0.398701
0.0246022
-0.0491408
0.44045
0.0510295
0.630603
-0.18354
-0.447039
-0.415124
0.563599
-0.148462
-0.0914948
-0.537728
0.552014
-0.0155971
0.0117526
0.42645
0.0548278
-0.0454525
-0.0167184
0.0214646
0.474498
-0.160042
-0.049541
-0.163513
0.213054
-0.0172056
0.0199911
-0.0220115
0.0198507
0.147886
-0.387359
0.0214671
0.194018
0.0605332
0.517608
0.429973
-0.234653
0.0174353
0.217218
0.0049167
-0.0696365
0.0647198
-0.411935
0.35451
0.000956204
0.118851
-0.274451
0.0354448
0.239007
0.0806036
-0.477536
0.396951
-0.314525
0.241582
0.0729446
0.130748
-0.52669
0.39595
0.0310665
-0.471401
0.134862
-0.143296
0.00843406
-0.370777
0.486192
-0.304774
-0.0755285
0.0222521
-0.509612
0.146387
-0.226186
0.0797997
0.117776
0.0116523
0.409728
-0.314678
0.103272
0.340488
-0.11564
-0.18463
0.0616979
-0.316713
0.255026
0.149164
0.15933
-0.0180351
0.0418762
-0.108529
-0.303191
0.0718248
0.231368
0.0106954
-0.1082
0.470213
-0.389591
0.0782028
-0.344459
0.266257
-0.387392
-0.00743929
-0.00927907
0.13368
-0.487927
-0.632398
0.290177
0.342242
-0.00203929
0.0719375
-0.208516
0.42361
-0.215088
-0.00944609
-0.0226261
0.0337136
-0.0369293
0.00321569
0.00859858
-0.00490366
-0.00369492
-0.0201977
0.139515
0.080492
-0.516709
-0.0825391
-0.460922
0.486224
0.339484
-0.536432
0.19698
0.122633
0.421284
0.38051
-0.540799
-0.614748
0.272346
0.342402
-0.0273398
0.375611
-0.228613
0.344172
0.70067
-0.406433
-0.0927009
-0.0171235
0.109824
0.012987
0.0156242
-0.108325
0.16003
-0.543269
0.383259
0.137629
-0.55688
0.419253
0.626143
-0.145319
-0.480818
0.000138332
0.126533
-0.0146728
-0.0650422
0.0797151
0.109783
-0.150507
0.040724
-0.0602329
0.128867
-0.589788
-0.45184
-0.0826714
-0.135295
-0.453585
0.588908
-0.256072
0.425776
-0.169691
0.0607166
-0.0840801
0.0233635
0.0588829
-0.032819
-0.026064
-0.252791
0.314501
0.239863
0.460809
-0.135672
-0.311823
-0.470312
0.214258
0.165591
-0.163355
-0.00223541
0.00109731
0.004195
-0.00529231
-0.0604676
0.050702
-0.0619043
0.0112023
-0.285093
-0.195294
0.456507
-0.353213
0.133967
-0.00591798
0.0186053
-0.197157
-0.00662013
-0.0849812
0.115964
0.315261
-0.250058
0.150542
-0.040759
0.358651
0.463219
-0.350558
0.243217
0.387631
0.271397
0.130395
0.0528421
0.0269499
-0.0305435
0.151691
-0.545235
0.393556
0.389995
-0.112928
-0.27706
0.28453
0.0924697
-0.567261
0.398466
0.285981
-0.256426
0.444071
-0.0102814
-0.0013957
0.011677
-0.00304826
0.13791
0.132002
-0.0203009
-0.353994
0.540171
-0.452583
0.560041
-0.399991
0.020972
-0.000105429
-0.0989052
0.0137943
-0.303773
0.246354
-0.00627675
0.0399904
0.164783
-0.58541
0.420642
-0.00851125
-0.48075
0.489329
-0.414342
0.361376
0.113122
0.078183
0.00599164
-0.0841747
0.341536
-0.113084
-0.228448
-0.417727
0.0957353
0.322001
-0.24187
-0.409154
0.0719271
0.219254
-0.291178
0.409424
0.216724
0.00109272
0.00230499
-0.00339771
0.0791293
-0.249614
0.0323289
-0.0327317
0.00040274
0.437495
0.087702
-0.34048
-0.000948805
0.0213006
-0.0203518
-0.00610367
0.000355177
0.00574849
-0.0734239
0.0949566
-0.382382
0.513139
0.0600202
-0.0690539
0.00903372
-0.188618
0.629738
-0.4092
-0.0170633
0.166238
-0.149174
0.183494
-0.175152
-0.133734
0.321598
-0.187861
0.000400068
0.572937
-0.231025
-0.341907
-0.592923
0.374765
0.218165
-0.0116157
0.101848
-0.147875
-0.484502
-0.579201
-0.362132
0.236881
0.119268
0.350963
-0.00350381
0.00459654
-0.207405
0.044486
0.16292
-0.115673
-0.355647
-0.120848
0.407641
-0.608866
-0.395284
-0.429021
0.565533
-0.0598703
-0.505625
0.23753
-0.405794
0.528429
-0.123948
-0.352762
0.476731
-0.615165
0.243603
0.371607
-0.00407775
0.0426406
-0.537455
-0.517997
0.0162883
0.501711
-0.183795
0.433045
-0.249248
-0.43917
0.332564
0.022699
-0.0236478
-0.545515
0.00344493
0.542074
0.525101
-0.379235
-0.145858
0.0820357
0.0407768
-0.122812
0.00631209
0.159279
-0.145514
0.531057
-0.385541
0.188059
0.340038
-0.52807
0.219306
-0.409263
-0.00451226
0.0552143
-0.106864
-0.0539203
0.00362374
0.0502965
0.190537
-0.0601407
-0.499961
0.343463
0.586999
-0.412372
-0.174623
0.00224329
-0.000306304
-0.282675
0.501983
0.0950547
-0.329299
0.234247
-0.572548
-0.440881
-0.369431
-0.16672
-0.00862225
0.175342
-0.136533
0.267774
-0.13124
-0.195734
0.36634
0.417302
0.169701
-0.496655
-0.0174097
0.387475
0.137634
0.0944749
0.0234744
-0.460859
0.406498
0.0543619
0.00746272
0.152487
-0.356497
-0.29947
0.387187
-0.146902
0.105088
-0.135242
0.0301544
-0.0085936
0.117902
0.223638
-0.0616684
0.0361601
0.0255083
0.00547946
0.0925933
-0.366264
-0.0728876
-0.00967113
-0.0037926
0.0134637
0.330253
-0.252049
-0.0692041
0.069406
-0.000201861
-0.0044782
-0.00580316
-0.0204071
-0.0284654
0.0488725
0.556804
-0.20039
-0.356413
-0.224031
-0.00733473
0.231367
-0.380675
0.297952
0.0890245
-0.00225081
-0.0042566
-0.00686172
-0.530718
0.141242
0.389489
0.586468
-0.594821
0.00836757
-0.0040614
0.150267
-0.348034
0.572991
-0.224957
-0.414311
0.56103
-0.146717
-0.0038323
-0.000865043
0.00469734
-0.3984
0.563198
0.34275
-0.452069
0.109339
-0.00074856
0.0219199
-0.000841204
-0.0210787
0.102829
-0.456821
0.479708
-0.140197
-0.495462
-0.00418684
-0.00235207
-0.00375159
0.0846974
-0.0239807
0.109267
-0.118311
-0.187285
-0.302088
0.48938
-0.0526836
0.0533437
-0.0965724
-0.111827
-0.0877554
0.0730827
0.0105735
0.167306
0.175347
0.00291834
-0.0751662
0.067974
-0.40099
-0.0885892
0.185913
-0.00678676
0.147309
-0.140522
-0.0115638
-0.00861272
0.502976
-0.0526212
-0.00189965
0.00166853
0.002928
-0.00507064
-0.0641335
0.0228468
-0.0216647
0.319222
0.114129
-0.433329
0.200814
-0.0217087
-0.179104
0.4744
0.156227
-0.0616075
0.277225
0.112775
0.0721761
-0.0580949
-0.0140812
0.650908
-0.650814
-0.0212105
-0.00753361
0.0287441
-0.538032
0.123724
0.123735
-0.0416995
-0.430711
0.53426
-0.103528
-0.1246
-0.0496524
0.174253
-0.167973
0.195481
0.00533328
-0.0296153
0.0359591
-0.160817
0.124858
-0.152337
0.34228
-0.482639
0.617108
0.063365
0.168924
0.365975
-0.0518606
-0.314113
-0.371017
0.109753
0.261268
-0.000535606
0.0224556
-0.371466
0.578214
0.621068
-0.412301
-0.437975
0.151786
0.2862
-0.047086
0.0110939
-0.00404688
-0.00187505
0.0245741
0.395193
0.161613
0.0954878
0.407495
0.0211955
0.388933
-0.410114
-0.000920274
0.0332492
0.124045
0.526946
0.267566
-0.29029
0.000796661
-0.0268558
0.0260591
0.384943
-0.5589
0.173978
0.0855288
0.195656
-0.281181
-0.110225
0.495458
-0.0550065
-0.0554769
0.030095
0.0253819
-0.270264
0.392146
-0.121869
0.217155
-0.512832
0.0410919
0.100937
-0.142029
0.00588714
0.0270542
0.121613
0.0252719
0.321935
-0.226878
0.479348
-0.151653
-0.327687
0.207194
0.413875
-0.00160219
-0.00315065
0.00475284
-0.0151284
0.120216
-0.530483
0.0124889
0.0349045
-0.258935
-0.563793
0.393936
0.169883
0.411201
-0.327072
-0.391419
0.573484
0.0211505
-0.472976
0.150945
-0.15662
0.00567539
0.187934
0.249246
0.450359
-0.10759
-0.102254
0.37938
-0.2342
-0.0180636
0.01415
0.00391354
0.0426829
0.00346254
-0.00859287
-0.218876
-0.0448665
-0.0168018
0.0450517
-0.475741
0.206256
0.0176359
-0.0778157
0.466763
-0.404139
-0.159628
-0.15064
0.429869
-0.279214
0.337075
0.113303
0.0204661
-0.00183585
-0.0186302
-0.147123
0.468239
0.107374
0.0431681
0.432836
-0.113593
-0.237616
-0.58033
0.00516867
-0.00058941
-0.00457926
0.207177
0.367743
0.0342235
-0.111528
0.121484
-0.258016
0.0368396
-0.112055
0.0752156
-0.243082
0.0356776
0.19951
-0.00489188
-0.194617
-0.00430102
-0.200094
-0.0260908
-0.315407
0.061119
0.065556
-0.202093
0.396815
-0.194721
-0.00143076
0.00166314
-0.000232375
-0.139799
0.176475
-0.0366754
0.609616
0.418891
-0.2852
0.199338
-0.163378
-0.162457
-0.0193168
-0.315267
0.50335
0.0352278
-0.0180114
-0.0172164
0.41021
0.149851
-0.158306
0.0122108
-0.00310068
-0.189432
0.608763
-0.419327
-0.110791
0.0869565
-0.256951
-0.143894
-0.365234
-0.0954545
-0.489604
-0.00581073
-0.122501
0.508982
-0.386481
0.382972
-0.266998
0.0792529
-0.0908686
-0.408803
-0.150077
0.0639248
0.0207725
0.00260807
-0.00421026
0.24027
-0.0281926
-0.212077
0.00528141
-0.00667712
0.408949
-0.0216997
0.587268
0.224601
-0.590876
0.444916
-0.108036
-0.398621
0.135393
-0.111741
-0.0236517
-0.0984111
-0.230934
0.329352
0.338545
-0.513994
0.175464
-0.0918558
-0.325861
0.107381
-0.562058
0.024129
0.0316679
0.027215
0.291215
-0.055583
0.00216912
-0.00949783
-0.0794732
0.088971
0.433075
-0.119025
0.0434178
0.370609
-0.414025
-0.100949
-0.1735
0.143614
-0.0861373
0.487885
-0.401747
0.347295
-0.453665
0.106373
-0.465373
0.410023
0.0553509
-0.420271
-0.163768
-0.368722
0.555461
0.432105
0.0633548
-0.00599641
-0.00275359
0.00875
0.406424
0.0938927
-0.500299
0.015528
0.079937
-0.21335
0.257837
-0.206313
0.278243
-0.573532
0.451031
0.423913
-0.592919
0.16902
-0.144024
0.0628185
0.081206
0.260255
0.0699996
-0.361957
0.554469
-0.402766
0.351273
0.124948
-0.476193
-0.228406
0.450923
-0.291337
-0.146627
-0.161578
0.606302
-0.399107
-0.207181
-0.0415693
0.248751
-0.0058114
0.108101
-0.10229
0.267237
-0.456861
0.189625
0.482389
0.104092
-0.092897
0.445491
-0.352575
0.364952
-0.160563
-0.204388
-0.198323
-0.180328
-0.299608
0.0690355
0.230575
-0.141663
-0.191605
0.0518063
-0.341036
0.242631
0.33444
0.144916
0.0216753
0.0460627
-0.067738
-0.146084
0.484641
-0.0302773
0.0199676
-0.107886
0.0923941
0.0154918
-0.0104628
0.278029
0.124676
-0.118337
-0.00633876
0.451769
-0.460221
0.670811
-0.243948
-0.426859
0.124489
0.32056
-0.445037
0.394021
0.0791297
-0.47315
-0.0913331
-0.361657
0.452992
0.499776
-0.0933362
-0.494915
0.494946
0.167762
0.386719
0.119274
-0.13827
0.569509
-0.144424
-0.425082
0.555173
-0.387398
0.378153
-0.183974
0.21016
-0.200052
-0.0101072
-0.0108168
0.0889999
-0.0649764
0.332111
-0.258003
-0.143123
-0.471993
0.13643
-0.143217
0.123816
-0.0235026
-0.100313
-0.0876668
0.325385
-0.0132387
0.125917
-0.134404
0.00848654
0.135555
-0.028952
-0.106603
0.578513
-0.172118
-0.406392
-0.150967
0.00561703
0.47321
-0.139968
0.352754
0.290376
-0.325972
0.450473
0.0228142
-0.022998
0.000183721
0.0134591
0.111204
-0.0686384
-0.387273
-0.0635793
0.38787
-0.363994
-0.132366
0.496391
-0.379568
-0.146037
-0.433747
0.123255
0.310505
-0.356405
0.399825
-0.358898
0.148062
0.210837
-0.539499
0.292565
0.195606
0.0145547
0.315124
-0.0727387
-0.0208622
0.0197178
0.00114434
0.00983605
0.552422
0.208521
-0.14236
-0.0661615
-0.353894
-0.260854
0.0632625
-0.0191973
-0.0440652
0.185907
-0.000689008
-0.185218
0.00688395
0.054471
-0.061355
0.117926
-0.0234513
0.0055049
0.129888
0.0173465
0.141983
-0.00237119
-0.0256375
0.455747
-0.188511
0.00675422
0.0208828
-0.581305
0.198851
-0.220841
0.0219909
0.164551
0.404962
-0.085623
0.22152
0.0275835
-0.249103
0.213656
-0.371114
0.15747
0.027214
-0.00293581
-0.0242782
-0.0705743
0.269242
-0.198666
0.029791
0.405914
-0.0137086
0.128721
-0.115013
0.176904
-0.515704
0.390604
0.125151
-0.0806902
0.288976
-0.208283
-0.308816
0.654303
-0.259289
-0.39501
0.391835
-0.0938793
0.135337
-0.0942451
0.0379491
-0.41079
-0.0231805
0.22009
-0.196909
-0.224323
0.487652
-0.263297
-0.242471
0.0423785
0.271783
-0.459061
-0.480153
-0.0601855
0.0619109
0.123253
0.264767
0.406049
0.365032
-0.112864
-0.25216
-0.00902842
0.00673117
0.209266
-0.000991911
0.136673
-0.125899
-0.0107732
0.0830772
0.00740233
-0.0904795
-0.510191
0.39204
0.118156
0.396535
0.181982
0.0868659
-0.0713699
-0.015496
0.29192
0.0999183
0.17434
0.00209833
0.223613
-0.0517467
0.00591091
0.0458358
-0.0371665
0.431188
0.0349297
-0.119366
0.00306357
0.328018
-0.33108
-0.381494
-0.000287688
-0.398515
0.200196
-0.453651
0.347197
0.106474
-0.0022712
0.000123164
0.00214803
-0.241914
0.0253389
-0.192848
0.60948
-0.41663
0.08395
0.137572
-0.00255545
0.0956639
-0.0931084
0.123863
-0.306614
0.182755
-0.0073478
-0.0443989
-0.0209081
0.0848329
-0.501188
0.562306
-0.0611124
-0.220815
0.0310565
0.189759
0.0299852
-0.00303538
-0.186912
-0.0339024
-0.0772349
0.0678321
0.00940287
-0.502018
0.0431351
0.458931
0.341991
-0.43487
-0.0173108
-0.000509462
0.0178203
0.018793
0.105023
-0.00342426
-0.000925019
0.00434928
0.121007
-0.554589
0.433644
-0.0981242
0.436094
-0.104941
0.00408404
-0.0257487
-0.127276
0.0538525
0.276486
0.106495
0.430271
-0.0829731
0.00733511
-0.174055
0.0965641
-0.0101486
-0.0864154
-0.0734816
-0.0104922
0.0839738
-0.380334
0.0646302
0.388995
-0.453591
-0.00871122
0.0687314
0.209172
-0.00793919
-0.201231
0.202117
0.315122
0.0876171
-0.107079
0.0120319
-0.142195
0.344075
-0.569383
0.412064
0.157339
-0.000618617
0.00578729
-0.0470363
-0.218235
0.564017
-0.113043
0.558996
-0.445917
0.01946
0.0157678
-0.525945
0.0247611
0.64418
-0.16374
-0.472673
0.248382
0.175239
0.329647
-0.445259
0.11563
0.147496
-0.0401215
0.164052
-0.187233
-0.0552688
-0.104992
-0.237396
0.342394
0.000690564
-0.0020147
0.00132413
0.41429
-0.226355
0.11085
-0.0117661
-0.0990834
0.0952631
-0.101075
0.0441329
-0.507087
0.406916
0.100176
0.367696
0.131378
-0.499044
-0.0163314
0.142249
-0.204446
-0.357725
-0.0266309
0.41036
-0.113967
-0.351406
0.33258
-0.0095539
-0.0783666
-0.159152
-0.216289
-0.376628
0.00279049
-0.0227618
-0.184369
0.196293
-0.0119241
-0.00450331
0.367311
-0.219922
-0.147384
0.595867
-0.147156
-0.448709
0.559942
0.203193
-0.205092
-0.0762688
0.0710844
0.0092256
-0.0148199
0.206494
0.399826
0.00420488
0.151804
0.154953
-0.506218
0.351264
-0.104005
-0.330317
0.434335
-0.161483
0.028597
-0.0309682
-0.0212364
-0.188854
-0.294888
0.234422
0.110689
0.0232777
-0.157323
-0.201575
-0.0702772
-0.0680486
-0.102271
-0.404811
0.244526
-0.512968
-0.460763
-0.0259159
-0.181265
0.152144
-0.155192
0.537312
-0.399682
-0.00359371
-0.100211
0.103805
-0.490571
0.358056
0.132543
0.171807
-0.592026
-0.0416317
-0.0116761
0.0533078
0.0272557
-0.0301915
-0.161787
-0.231751
0.393545
-0.00491156
0.0202871
-0.321674
0.267031
0.0546439
0.0281854
-0.025395
0.1452
0.324029
-0.00715402
0.394737
-0.343031
0.454863
-0.111813
-0.0614175
0.173062
-0.617433
0.444376
0.329677
-0.499537
0.169865
-0.32706
-0.0391871
0.0429838
0.0398563
0.00522351
-0.0450798
0.0508174
0.157704
0.0520629
-0.0594107
0.0833786
-0.32326
0.239883
0.0311239
-0.00212006
-0.0290039
0.0446496
0.204543
-0.00134916
0.429455
-0.308403
-0.139906
-0.35308
0.493005
-0.417739
-0.500976
0.374805
0.126195
-0.054517
-0.0295631
0.605711
-0.437566
-0.168086
0.256979
0.0219895
-0.278964
-0.370298
0.120671
-0.098154
-0.00913415
0.0515876
-0.00687725
0.0154633
-0.00858601
0.115909
-0.441871
0.325972
-0.0665828
0.0823685
-0.0157857
-0.22715
0.345056
0.252862
-0.328157
-0.204986
0.508455
-0.310559
-0.215382
-0.000517578
0.00418684
0.311943
-0.0740776
0.0229532
-0.0221565
0.0449521
-0.133541
0.334527
0.095747
0.113203
-0.00393629
0.397866
0.223006
0.258853
-0.0249524
-0.387555
0.236928
-0.00694852
0.0969067
-0.0899581
-0.278386
-0.231091
0.332018
-0.202464
-0.12955
0.436479
0.334862
0.279721
-0.0831058
0.0805504
-0.233177
-0.0961265
0.329309
0.231174
-0.127495
-0.103677
-0.144318
0.473999
-0.00347772
-0.146225
0.0174899
-0.0159017
-0.00158826
0.326496
-0.483182
0.156704
-0.130989
-0.0569194
-0.468536
0.0889693
0.364965
-0.0804339
-0.174081
-0.41047
0.584553
-0.0146675
0.0977447
0.00525251
0.193598
-0.185221
-0.199054
-0.0857582
0.284815
0.102437
-0.48446
0.382027
-0.141158
0.488029
-0.346851
0.639284
0.324197
0.171683
0.397184
-0.532454
0.135282
0.161439
0.0229867
-0.0433938
0.248786
-0.218993
-0.277239
0.423152
0.548029
-0.234658
0.561422
-0.0316429
-0.529773
0.132707
0.00106619
-0.00505413
-0.0505288
0.1085
0.195135