/*--------------------------------*- C++ -*----------------------------------*\
| =========                 |                                                 |
| \\      /  F ield         | OpenFOAM: The Open Source CFD Toolbox           |
|  \\    /   O peration     | Version:  v2012                                 |
|   \\  /    A nd           | Website:  www.openfoam.com                      |
|    \\/     M anipulation  |                                                 |
\*---------------------------------------------------------------------------*/
FoamFile
{
    version     2.0;
    format      ascii;
    class       volVectorField;
    location    "50";
    object      ddtCorrDdt0(U);
}
// * * * * * * * * * * * * * * * * * * * * * * * * * * * * * * * * * * * * * //

dimensions      [0 1 -2 0 0 0 0];


internalField   nonuniform List<vector> 
13917
(
(0.0005368 -3.00468e-05 -6.06305e-18)
(0.000176674 -7.05406e-05 -3.36788e-19)
(-0.00209184 -0.0158505 1.86177e-17)
(0.000239545 -0.000488007 4.20508e-18)
(1.05187e-05 0.000427324 8.53233e-18)
(5.21814e-05 0.000376985 -3.11084e-17)
(-0.000129356 -0.0199603 8.28626e-19)
(-0.0118196 -0.00870476 -9.39601e-19)
(-0.0114231 0.0205707 2.21801e-17)
(0.00105683 -0.000536632 -3.75292e-18)
(0.00647743 -0.012067 -4.39911e-17)
(-0.00168935 -0.00190717 2.05808e-17)
(0.000249934 -0.00051142 4.93302e-18)
(-0.0378958 -0.000754874 -2.85675e-18)
(0.000258774 5.42952e-05 -5.72401e-18)
(0.000254797 -7.13402e-06 1.5403e-18)
(0.00018916 -1.49913e-05 8.53809e-21)
(-2.72492e-05 0.00168907 1.20287e-17)
(-0.00162075 -0.00154962 -1.6579e-17)
(7.57054e-06 0.000159051 5.38663e-19)
(-6.1588e-06 -0.000148711 -7.10987e-18)
(-0.00216193 -0.0198718 2.42159e-18)
(2.82987e-05 0.000243753 -3.61483e-20)
(-0.0107989 -0.0107493 -1.16845e-17)
(5.99689e-05 -0.000122548 3.6334e-19)
(0.00708943 -0.0228978 9.47253e-18)
(-1.82746e-06 0.00028322 -9.77836e-18)
(-1.71961e-06 0.000422861 6.28896e-18)
(-0.000961885 0.00103336 -9.89814e-18)
(-0.00128572 -0.00206608 1.93254e-17)
(0.000393335 -0.000102402 1.00869e-17)
(0.000331935 9.40215e-05 -5.61609e-18)
(5.76976e-05 0.000248254 -9.41845e-18)
(-2.16136e-06 0.000324284 -3.7033e-17)
(2.66802e-05 -0.000109018 2.0861e-18)
(0.00621059 -0.0280596 -4.87071e-18)
(1.98076e-05 0.000257432 1.16949e-18)
(-0.0365358 0.00317437 1.27066e-17)
(0.00045343 -0.00057313 -1.33022e-17)
(0.0357228 -0.000932057 -2.9792e-17)
(3.45648e-05 8.38122e-06 -8.43982e-20)
(9.65514e-08 -6.69827e-05 2.47359e-18)
(5.51981e-05 -1.13358e-05 2.32504e-19)
(-8.24523e-05 0.000525801 -4.78942e-17)
(0.000186498 0.00012201 3.50575e-18)
(2.13057e-05 0.000262662 7.94731e-18)
(0.000140683 0.00163344 -8.20317e-18)
(0.00240943 0.00259686 1.18395e-17)
(3.88521e-05 0.000345297 1.32628e-16)
(3.01111e-05 1.47686e-06 -5.71522e-19)
(0.000535884 0.000186635 -5.37894e-18)
(2.6121e-05 0.000530782 -1.51965e-18)
(0.000175299 0.00019188 -2.0021e-16)
(-1.1314e-06 0.000302112 1.46361e-18)
(0.000193296 4.96131e-06 -2.40609e-20)
(0.000302138 0.000437399 -2.07527e-19)
(0.0068813 -0.0112652 3.39772e-17)
(9.9985e-05 0.000379832 -1.49733e-18)
(0.000291894 0.000352567 1.47895e-17)
(0.000174039 0.000103902 -2.59678e-19)
(0.0041312 -0.000206138 7.60168e-17)
(0.000167531 -9.92303e-05 -5.40468e-19)
(-0.043893 -3.17751e-05 6.87148e-18)
(1.63587e-05 0.000164482 -2.57255e-19)
(8.11872e-06 0.000318204 2.15567e-18)
(-0.012121 -0.0023504 1.89296e-17)
(-1.78467e-06 0.000419133 -6.93545e-18)
(-4.53948e-06 -0.000111075 -5.59936e-18)
(0.0115672 0.00665369 2.29841e-17)
(0.000610252 0.000124398 -3.27352e-18)
(1.47728e-06 0.000427956 -5.52252e-18)
(-0.0153787 0.0219503 1.75472e-17)
(0.0158935 0.00492645 -7.75917e-18)
(4.77199e-05 -0.000123084 -1.88554e-18)
(3.98997e-05 0.00019173 -2.69279e-17)
(-0.00421365 0.00157884 -1.36434e-19)
(-0.00456829 0.00442031 -4.02046e-18)
(0.000276531 0.000270763 8.57082e-18)
(0.0142844 -0.0185283 6.03388e-18)
(-1.21839e-05 -0.000169597 1.67545e-18)
(-2.58384e-05 -7.86916e-05 2.5697e-19)
(5.77148e-07 0.000437672 -2.30235e-18)
(-0.000109533 0.000378114 -6.28008e-18)
(-0.0346999 0.00389218 -1.06217e-17)
(-0.00871282 0.00295327 -4.5921e-17)
(0.000273265 0.000250829 -4.80851e-18)
(-2.394e-05 5.78086e-05 4.27311e-18)
(-0.0131564 0.000318165 -7.5567e-17)
(0.000544697 0.000177936 1.05247e-17)
(5.42667e-05 -2.11132e-05 1.10463e-18)
(0.000768457 0.00921347 -6.54134e-18)
(0.00067286 -0.00155978 -2.41733e-17)
(0.000139083 -0.00013336 9.34376e-19)
(0.00015614 0.000339374 6.06441e-18)
(-0.00456858 8.34455e-05 9.04972e-17)
(1.94692e-05 0.00030088 1.23673e-16)
(0.00886639 -0.00228117 7.36153e-19)
(0.00140951 0.00246647 -1.52804e-17)
(-0.0116573 -0.00412811 -1.33307e-17)
(-0.000104872 0.000388769 -4.93807e-17)
(6.06629e-05 4.93909e-05 5.3539e-19)
(-1.78068e-05 0.000199567 -2.89446e-17)
(-7.6892e-05 0.000508679 -1.42411e-17)
(0.000321742 0.000183931 -5.22619e-18)
(9.56292e-05 -7.024e-05 4.26165e-19)
(-0.011318 0.0183322 -1.1617e-17)
(-0.000672191 0.00131317 4.60237e-19)
(0.00251556 0.00286057 1.4866e-17)
(0.000192306 -4.87695e-05 6.38427e-20)
(0.00057179 -0.000172918 -9.1232e-18)
(0.00691746 -0.00629274 -1.44118e-17)
(0.0347006 -0.00178667 2.8044e-17)
(-0.00397196 -0.00332756 -1.41025e-17)
(-0.0100493 0.0185062 4.04684e-17)
(2.6284e-05 0.000579167 -8.06047e-18)
(-4.48868e-06 0.000368204 -2.68335e-17)
(5.42109e-05 -0.000101422 4.47946e-18)
(-1.38102e-05 0.000321584 6.46119e-17)
(-0.0184371 -0.0055615 3.8384e-18)
(2.74001e-06 0.000303744 -4.8451e-18)
(-3.00594e-06 -0.000114748 5.24824e-18)
(0.0106479 0.00691471 -2.70359e-17)
(-0.032528 -0.0041529 1.10944e-20)
(1.60196e-05 0.000374772 -8.06875e-18)
(1.91237e-05 -2.51328e-06 -1.26476e-19)
(0.000143414 0.000364274 -4.5774e-18)
(0.000163549 -1.54768e-05 -7.70305e-19)
(2.22507e-05 -4.76247e-06 1.40974e-19)
(4.15944e-05 1.59595e-05 2.53768e-18)
(-2.25748e-05 0.000380586 -1.15969e-16)
(-0.0264145 -0.0100463 -5.84104e-18)
(1.03754e-05 0.000577124 3.01204e-18)
(0.000188519 0.000123447 -7.09006e-18)
(-2.93276e-06 -0.0001258 5.54149e-18)
(0.000301228 0.000796513 -3.32025e-17)
(-0.00919216 -0.0131146 -1.13803e-17)
(0.000579665 -2.91551e-05 2.29348e-18)
(-6.87908e-05 0.000455359 -5.38113e-17)
(-2.73794e-06 0.000397895 1.23291e-17)
(9.43148e-06 0.000312155 8.66787e-18)
(0.00756125 -0.0236782 -5.99862e-18)
(8.97616e-05 -7.49673e-06 -1.01539e-18)
(6.95577e-05 0.000564119 6.46437e-18)
(-0.000144133 0.000502074 -1.84429e-17)
(-1.54211e-05 -0.000115008 6.06423e-18)
(-0.0235572 0.0239984 -2.06703e-17)
(-0.00100101 0.00136364 5.95635e-19)
(1.77193e-05 0.000500764 1.09756e-17)
(7.5085e-05 6.90891e-06 -2.24767e-19)
(0.000372706 6.44296e-05 -7.96526e-18)
(0.00252954 -0.000443076 4.78907e-18)
(3.58113e-05 0.00013072 5.75716e-17)
(0.00291336 -0.00486158 -8.63219e-18)
(0.000695574 0.000345878 5.64025e-18)
(0.000245618 0.000283604 2.0552e-18)
(-0.00267928 0.000696273 1.58822e-16)
(0.000563794 0.000121226 2.30602e-18)
(0.0118876 -0.00221428 -3.61935e-18)
(-0.00484117 0.00336174 5.57886e-19)
(-0.000292515 -0.00092044 1.13543e-17)
(0.000109008 0.000354743 1.01267e-17)
(-1.32897e-05 0.000289368 3.36423e-17)
(-1.22835e-05 -0.000149595 3.46137e-18)
(0.00820086 -0.00260239 6.03246e-18)
(-0.00331089 -0.00337431 1.42344e-17)
(-0.0105477 -0.00437776 5.21325e-18)
(0.00033696 0.000205093 9.51853e-20)
(0.00262614 0.00104725 5.25348e-18)
(0.00014284 3.07506e-05 -9.35396e-19)
(6.22231e-05 0.000252583 -4.30727e-17)
(0.000751329 0.000281069 -1.38307e-18)
(-0.00189282 -0.00238285 3.97417e-17)
(-0.00559614 -0.00273426 5.58187e-18)
(0.000207667 -3.57772e-05 4.12216e-19)
(-0.029609 0.0245845 1.66588e-18)
(0.000722918 0.000518921 -3.01458e-18)
(-0.0250492 -0.0112192 6.34618e-18)
(-3.91304e-06 0.000297067 -5.35598e-17)
(-0.0256528 0.0248988 7.01122e-18)
(0.000138997 0.000231321 -2.44722e-20)
(0.000497919 -0.00177247 1.21771e-17)
(0.000366204 -0.000163427 8.08494e-18)
(8.82118e-05 1.81303e-05 -1.90622e-18)
(-1.61343e-05 9.09461e-05 -5.44706e-18)
(0.000226785 0.000177955 -1.03321e-17)
(0.0145389 -0.0240756 1.87462e-18)
(0.00276635 -0.00589688 5.30146e-17)
(-0.00378921 0.000922693 -1.64834e-16)
(7.31548e-05 0.000675952 1.49984e-17)
(-0.00563824 -0.00817067 2.31574e-18)
(0.0250495 -0.0169294 -1.48388e-18)
(-0.00781498 0.00336398 1.12146e-16)
(0.00454236 -0.00343584 6.13541e-17)
(2.59967e-05 0.00031892 -2.47351e-18)
(-3.75911e-05 0.00036154 6.17714e-17)
(-1.17771e-05 0.000273944 1.59422e-18)
(3.49034e-05 -3.16599e-06 1.59208e-19)
(0.000141308 -0.000140159 1.81249e-19)
(-0.000287114 0.00146644 -5.14163e-19)
(-0.00202112 0.00720104 -5.11626e-17)
(0.000588636 -0.000330582 -1.18916e-17)
(3.20063e-05 5.8148e-06 3.34164e-20)
(0.00236525 0.00039941 -1.14408e-17)
(0.00241899 -0.000559243 -4.69042e-18)
(0.0149746 0.003984 2.35523e-17)
(-0.0110366 0.0190399 8.99068e-19)
(3.3073e-05 -0.00011712 3.17438e-18)
(0.000110018 0.000408064 -2.68961e-19)
(0.00161807 0.00224494 6.15747e-17)
(0.0129212 -0.0236516 4.49626e-18)
(5.96663e-05 0.000560717 1.16819e-18)
(-0.00342943 -0.0184347 2.07018e-18)
(0.0139901 0.00233775 -2.26561e-17)
(-0.00478307 -0.00841397 4.67394e-18)
(9.37378e-05 -4.99934e-05 -9.6343e-19)
(-0.000527127 0.000385485 -1.18744e-16)
(0.00162124 0.00157917 -1.8645e-17)
(0.0155593 -0.00228238 2.69404e-17)
(4.67489e-05 1.11127e-05 -8.87689e-19)
(0.00487752 -0.0010438 -4.9812e-18)
(0.000133038 0.000237648 -3.13983e-20)
(-0.00215995 -0.000958 -2.92672e-17)
(3.5252e-05 9.86218e-06 1.72972e-19)
(-0.0292999 0.00632513 -8.2241e-18)
(-0.00904319 0.0168255 1.36387e-17)
(0.000273226 1.06105e-06 -2.50137e-19)
(0.00129377 0.0048741 1.41398e-16)
(0.000250488 0.000315635 -8.94204e-18)
(8.82828e-05 -2.13409e-05 8.19812e-19)
(0.00447246 -0.0270058 -7.1146e-18)
(-0.005414 -0.0019697 -2.14981e-17)
(0.000118094 0.000682099 -8.22826e-18)
(-0.00373398 -0.0171157 1.02067e-17)
(0.0142835 0.00200608 1.15824e-17)
(5.37475e-05 -1.72956e-05 -3.53e-19)
(0.00033961 0.000102681 4.54949e-18)
(0.00216702 0.0107046 -3.82298e-17)
(-0.00631978 0.00275358 -2.0189e-17)
(-1.80803e-05 -0.000146545 -1.38557e-18)
(2.63945e-05 -3.18175e-05 -3.71887e-19)
(0.0393781 7.85806e-05 9.60515e-18)
(0.0106361 -0.000737899 -3.85841e-18)
(-3.77091e-06 -1.12984e-05 6.44713e-19)
(-0.00349837 -0.0226865 -8.09603e-18)
(-0.00214572 0.00374979 4.4393e-18)
(-1.51747e-05 0.000263038 -2.70722e-17)
(0.00040669 4.28805e-05 -6.79995e-18)
(-2.33171e-05 -0.000141777 -1.96331e-18)
(0.000541865 0.000544784 3.70052e-19)
(0.00818485 0.00247006 -1.17659e-17)
(0.000168984 -0.000242274 -4.06426e-18)
(0.00126508 -0.00232184 -3.22033e-18)
(-0.00014938 0.000397033 1.0336e-16)
(0.000157452 -9.61353e-06 -2.90731e-18)
(8.87069e-05 0.000350355 5.82416e-18)
(0.00165701 -0.00326256 -1.20318e-17)
(0.0354223 -0.00165506 5.22611e-18)
(0.00260857 -0.0045373 2.49203e-18)
(0.000225476 0.00020157 7.70384e-18)
(0.000257682 4.81866e-05 4.4966e-18)
(-3.35315e-06 -2.03136e-05 -1.32601e-18)
(-0.0319475 -0.00311906 7.12551e-18)
(0.00532512 -0.00359763 6.78483e-17)
(-0.0160804 -0.0206524 1.2255e-17)
(8.94199e-05 7.3761e-06 -9.9603e-19)
(0.0223322 0.00100382 4.07141e-17)
(-0.0365061 -0.000688717 3.03055e-17)
(-0.00163444 -0.00215624 -1.18357e-17)
(0.0142701 -0.0178578 -9.72001e-18)
(-0.00501436 0.00159719 -1.15328e-17)
(-2.88497e-05 -0.000104499 -1.42186e-18)
(1.35439e-05 -1.03249e-06 2.50477e-20)
(0.000408634 0.00170057 -1.40913e-17)
(-0.022686 0.00673464 8.21844e-19)
(0.00314346 0.00711812 1.03253e-17)
(0.000296814 0.000348961 -6.27941e-18)
(-0.0100324 0.0184028 4.1973e-18)
(0.000465145 0.000169695 2.88205e-18)
(4.04093e-05 1.12306e-05 -3.28962e-19)
(0.0238248 -0.010897 8.22136e-18)
(2.03172e-05 0.000127704 -1.38093e-18)
(-0.0299801 0.0235661 4.21647e-18)
(0.000574975 -0.000341248 -9.3317e-18)
(-6.87587e-06 -1.09955e-05 -1.60677e-18)
(0.000328877 2.47724e-05 3.09011e-18)
(0.000684495 0.000385113 -8.61855e-18)
(4.63988e-05 0.000292356 1.09287e-19)
(-0.00262904 -0.0240397 1.25164e-17)
(0.00044499 0.000180046 -1.10922e-18)
(0.000215925 -2.02819e-05 -6.42727e-18)
(-0.0181334 -0.00362043 3.28472e-17)
(-0.00551498 -0.0158878 3.11408e-18)
(0.00474989 -0.00446964 1.6409e-17)
(5.06059e-05 -2.95041e-05 2.29467e-19)
(-0.0139292 0.00960422 -2.03707e-17)
(-8.70851e-06 0.000161428 6.50028e-18)
(0.000221887 -6.1686e-05 -3.92715e-18)
(5.70238e-05 -8.25249e-05 -5.35152e-18)
(-0.00117667 0.00137574 -8.69678e-19)
(6.35028e-06 2.5419e-05 -2.05517e-19)
(-0.00235667 -0.00117488 -1.3479e-17)
(0.000408214 5.31397e-05 -7.5813e-18)
(0.000137716 3.34274e-05 -9.24435e-19)
(0.0025147 0.000302204 8.41652e-18)
(0.000226902 -6.57823e-05 1.98483e-18)
(9.47945e-05 0.000482426 3.9953e-18)
(0.000687622 0.000461948 4.70569e-18)
(0.000566079 -0.00138684 -6.36063e-19)
(0.000119846 0.000111742 -1.81087e-18)
(8.51752e-05 0.000314662 -5.36449e-18)
(0.004574 -0.00582002 2.64433e-17)
(-0.0376597 -0.00252587 2.12456e-18)
(4.98516e-05 -0.000112046 -2.54577e-18)
(2.06161e-05 6.41535e-06 4.97382e-20)
(0.0243463 -0.010882 -2.69576e-17)
(0.000143342 0.000101989 -9.32625e-20)
(0.0153766 0.00595228 7.92839e-18)
(0.000114834 9.44948e-05 5.34221e-19)
(-0.0276011 0.00744448 1.36877e-17)
(0.000148391 -0.000357448 -2.78767e-18)
(0.00353229 0.00258598 -3.19847e-17)
(0.000884416 0.000221621 1.90903e-17)
(-2.61094e-05 0.000102454 9.35271e-17)
(0.000101702 0.000366781 -6.9226e-18)
(-0.0113586 -0.00274788 -2.31898e-17)
(-0.000313212 0.000438412 3.70505e-17)
(0.00034373 1.71014e-05 -1.63839e-19)
(0.0104521 9.57927e-05 -8.64912e-19)
(-0.000474875 0.00208414 2.45743e-18)
(0.000161157 0.000361125 2.07047e-18)
(-0.0362638 -0.00460647 1.0204e-18)
(-1.98678e-05 0.000376817 -6.83345e-17)
(-0.0405753 0.00111561 -2.82234e-17)
(2.01448e-05 0.00037945 -1.17863e-17)
(0.0118807 -0.00353127 -4.17968e-18)
(0.000336922 0.000136349 -1.49572e-18)
(-0.00922478 -0.0050825 9.74838e-18)
(-0.000263826 0.000417502 -3.19995e-17)
(0.000176698 0.00131787 7.08736e-18)
(0.000278691 0.00131121 -6.43733e-18)
(-0.00438566 -0.0146624 -1.7238e-17)
(-1.27125e-05 -0.000124384 -4.80691e-18)
(0.000806584 0.000299633 -2.61422e-18)
(0.00537049 -0.00741842 1.19731e-16)
(0.000117399 0.000489351 3.05664e-18)
(0.000240234 -1.2809e-05 -8.47567e-20)
(-0.0392897 0.000977785 -2.33635e-17)
(-0.000418503 0.00149793 2.04042e-18)
(0.000203991 -7.464e-05 -6.98696e-19)
(0.0192903 -0.0153226 -1.96637e-17)
(-0.000829537 0.00088759 9.5294e-18)
(3.77658e-05 6.95191e-05 -1.11846e-19)
(-0.0193351 -0.00412651 -4.16464e-18)
(0.0143318 -0.0235205 1.61887e-17)
(2.38986e-05 0.00012651 1.46508e-18)
(5.3672e-05 0.000161169 2.95276e-21)
(8.78606e-06 0.000104606 -6.46119e-18)
(7.61005e-05 2.89941e-05 -9.75762e-20)
(-0.0154442 -0.00225782 -5.89331e-18)
(-0.0275842 0.0256278 -2.41688e-17)
(0.00027053 0.000294989 9.18758e-17)
(0.00350189 -0.00698995 -1.07967e-17)
(5.52742e-05 -0.000115241 -8.16945e-19)
(0.00137501 -0.00260099 -2.17263e-18)
(-0.00259375 0.000150106 3.77135e-17)
(0.00142744 0.000261845 3.08867e-17)
(-0.00511459 -0.0186058 9.75777e-19)
(-0.0212013 0.00820278 7.51626e-17)
(-0.00785343 0.0172103 -1.4743e-17)
(5.73488e-05 -3.73431e-05 1.01818e-19)
(-0.0157632 -0.0194777 -1.33729e-17)
(6.29354e-05 0.000171656 -6.89813e-19)
(0.00733104 -0.00230309 -6.7559e-18)
(0.000169834 7.45946e-05 -1.56036e-18)
(-2.66278e-05 4.54573e-05 -6.89832e-17)
(-0.00252593 0.00360978 -1.99208e-17)
(0.00046064 -0.000500538 -4.80106e-18)
(-1.73663e-05 -2.94482e-05 8.97553e-20)
(0.00153787 0.00199167 2.20788e-17)
(0.000557201 -0.00200166 -1.56064e-17)
(-0.000246748 0.00317842 4.9342e-19)
(-0.000591942 -0.000881369 -1.86571e-17)
(-0.00964416 -0.00467876 4.19769e-17)
(0.0155087 -0.00198891 -1.23015e-16)
(0.000583001 0.000613741 -2.32512e-19)
(0.000993221 -0.000492181 6.60358e-19)
(2.22169e-05 -4.66142e-05 5.93484e-19)
(-0.00634392 0.00308038 1.22254e-17)
(-0.000982522 -0.0213468 1.1299e-17)
(0.000135151 0.000405569 6.47911e-19)
(-0.0205888 -0.00361574 -4.37255e-18)
(3.96191e-05 2.02912e-06 -3.33258e-18)
(-0.0100247 0.0110282 -6.23658e-18)
(0.000166127 -0.000345386 6.5973e-18)
(-1.20792e-05 -0.000169288 -1.55132e-18)
(0.000217523 -9.80058e-05 1.37744e-18)
(0.0215016 -0.00505911 -9.81e-18)
(0.000229766 -0.000103956 3.8001e-18)
(0.033683 -0.00208369 5.35229e-19)
(-0.00224395 0.00177539 -2.54242e-17)
(0.00174068 -0.0117044 -1.43516e-17)
(-0.000271063 0.000363186 -1.24075e-16)
(0.000159591 0.000345333 -1.38105e-18)
(-0.000442065 0.00044877 1.36148e-16)
(-0.000292712 0.000374497 1.45736e-17)
(5.10831e-05 2.81517e-05 2.57457e-18)
(-0.000524941 0.00136658 -2.4437e-19)
(0.000118733 0.000463683 -1.10822e-18)
(5.65017e-05 -0.00011432 1.66685e-18)
(-0.000958868 -0.00205842 -3.31675e-17)
(-6.26022e-06 -2.87128e-05 -8.31618e-19)
(4.44546e-05 -0.000123021 4.93576e-18)
(6.78243e-05 0.000161161 8.7755e-19)
(-0.0108396 -0.00178314 -1.84896e-17)
(-1.05664e-05 -0.000178209 4.79335e-19)
(0.00928767 -0.00489552 2.55479e-18)
(0.0209088 -0.0106342 -4.80946e-18)
(-0.00115871 0.000686817 3.74871e-19)
(0.00453873 -0.00290277 2.59343e-17)
(0.0195974 -0.00890067 3.55471e-18)
(0.0203521 -0.00151552 1.15942e-17)
(0.00144279 0.000217869 -1.85176e-17)
(4.72952e-05 -9.50372e-05 -5.3426e-19)
(-0.00721398 0.00369844 3.47594e-17)
(0.000447147 -0.000574735 2.03205e-17)
(0.000368873 9.8404e-05 -7.3201e-18)
(3.53349e-05 0.000302967 6.24781e-18)
(-0.0259826 0.0247929 -2.45118e-17)
(0.00582167 -0.0222391 6.95539e-18)
(0.0236389 -0.0101621 2.30619e-18)
(0.000247078 3.80209e-05 -1.48771e-18)
(-0.00211633 0.0051799 -6.84434e-18)
(3.36222e-05 0.000415586 1.52237e-18)
(0.000493957 -0.000591477 5.21112e-18)
(7.77175e-05 0.00312425 1.97665e-17)
(0.000225416 -0.000102639 1.78569e-19)
(-0.0199708 -0.0177225 4.76778e-18)
(0.000191953 -6.05597e-05 3.14728e-19)
(7.94893e-06 3.06258e-05 5.06391e-19)
(0.0158326 0.00692571 -1.37085e-17)
(-0.0234083 -0.0112713 1.18879e-17)
(-0.0221746 -0.012405 -1.36882e-17)
(0.00273106 -0.0003869 -1.32854e-17)
(-0.000867532 0.000517601 4.12652e-18)
(-0.0348759 -0.00504983 8.80509e-18)
(0.0173026 -0.00449881 -2.21865e-18)
(-0.0191287 0.00412518 -1.24691e-19)
(3.17585e-05 2.05674e-05 -1.4126e-19)
(0.000880431 0.00203057 -2.40918e-18)
(0.000218057 -0.00013712 2.05188e-19)
(0.000103684 0.000427494 1.6087e-19)
(-0.0157355 0.0156547 -2.31393e-17)
(0.000254131 0.00176117 2.57951e-17)
(2.63931e-06 -1.07038e-05 -1.65308e-18)
(-0.00122401 0.000711953 -2.4441e-18)
(0.00128345 0.000361601 -2.65664e-18)
(-0.0239471 0.00366211 -1.84666e-17)
(4.92691e-05 -7.95647e-07 -2.6512e-18)
(0.00730696 0.00348597 -1.42678e-17)
(-0.00237419 -0.000201059 8.55717e-18)
(0.00372568 0.00332219 5.55051e-17)
(0.000690905 -0.00677421 8.88214e-18)
(-7.85e-06 -0.000172664 -2.2003e-18)
(0.000144634 0.000409763 8.7169e-20)
(5.47841e-05 -2.13941e-06 -2.40279e-19)
(0.000575813 0.000119652 -3.57493e-18)
(5.91021e-05 -3.66002e-05 -1.03517e-18)
(0.0227861 -0.0239079 3.69226e-18)
(0.000214195 0.000338894 -4.62617e-17)
(0.000435325 0.000167535 1.2935e-19)
(-0.00473041 0.00284572 -4.67653e-18)
(0.000329557 0.00042154 2.5691e-18)
(0.00828185 -0.00351125 -7.46017e-18)
(0.0158559 -0.00535864 -1.50517e-17)
(-0.000899397 0.0014614 -2.02764e-18)
(0.00100108 -0.011272 1.18607e-17)
(0.0101986 -0.0246041 -1.91003e-18)
(0.00790433 0.00324184 2.11208e-17)
(-0.000961215 8.69711e-05 -2.94214e-18)
(-0.00528261 0.00720659 -1.27187e-17)
(0.000852124 -0.00105707 -1.59842e-17)
(-0.0041629 -0.0136564 -1.7359e-17)
(-7.7146e-05 0.00030604 3.04728e-17)
(6.90266e-05 -0.00105263 -1.97991e-17)
(0.00382406 0.00281134 -3.13631e-17)
(2.70956e-05 -9.58716e-06 5.73336e-19)
(-0.0121055 0.00631772 -2.15942e-17)
(0.000527133 0.000259484 9.32221e-18)
(0.000101091 -0.000142218 -1.30759e-19)
(0.000540999 0.000134662 -3.50679e-18)
(0.000291176 0.000264327 9.96828e-21)
(-0.0221361 0.00422507 -1.1271e-17)
(-0.0117535 0.0198188 -5.43727e-17)
(0.000135734 0.000135795 2.27913e-19)
(4.05221e-05 8.39808e-06 -2.68681e-18)
(0.0221366 -0.0258844 2.21343e-18)
(0.0204017 -0.00130401 -1.51696e-17)
(-6.02657e-06 -2.2078e-05 -4.74824e-19)
(0.0024199 -0.0048757 5.74475e-19)
(0.000324288 -0.000251896 -5.26293e-18)
(0.00318871 -0.00340942 -2.72927e-18)
(0.00014041 0.000153868 -8.79735e-20)
(0.0195039 0.00241981 1.24893e-18)
(-0.000526927 0.0244626 2.96057e-17)
(0.000362993 7.02914e-05 2.81119e-18)
(0.000191067 -2.64453e-05 1.83357e-18)
(0.0177663 -0.0104273 3.8527e-18)
(0.00229793 -0.0054201 -1.93454e-17)
(-0.00450154 0.000620714 -6.49405e-17)
(-3.92887e-06 -2.66478e-05 9.7795e-19)
(0.0119051 0.0027267 -2.67071e-18)
(5.19303e-05 0.000318263 -1.14069e-16)
(0.0239362 -0.0105457 -2.31834e-17)
(0.000103388 -0.000126567 -1.4061e-18)
(-0.00891882 0.00276403 -1.34333e-17)
(0.00604713 -0.0056881 -2.06227e-18)
(0.00153429 -0.000102628 7.68048e-18)
(5.91768e-05 0.000169881 7.85957e-20)
(0.000183146 9.75603e-05 -4.04975e-20)
(-0.00392359 0.00299144 -1.47123e-17)
(-0.0141908 0.0118903 2.44023e-17)
(-3.28717e-06 -1.31365e-05 1.39596e-18)
(4.65615e-05 0.000138764 6.89371e-20)
(1.60034e-05 -1.90246e-05 3.35427e-19)
(1.28682e-05 -1.45335e-05 -3.13804e-20)
(0.022156 0.000877418 2.14661e-17)
(-0.016486 0.013744 5.49481e-18)
(0.00142169 -2.53904e-05 -9.09392e-18)
(0.0017941 -0.00641104 4.78294e-17)
(1.49784e-05 -2.17827e-06 -5.72592e-20)
(6.14963e-05 5.72143e-05 1.89199e-19)
(-0.00155812 0.00515157 3.03452e-17)
(0.0112324 0.00526989 5.68531e-18)
(0.000109065 0.000496013 -2.94723e-19)
(0.000148532 5.96169e-05 7.46104e-18)
(3.66519e-05 -0.000121779 1.10386e-18)
(-3.69047e-06 0.000143731 2.06101e-18)
(0.023188 -0.0107771 3.83725e-17)
(-0.00744714 0.00338692 -1.15121e-16)
(-2.47014e-05 6.03274e-05 -1.71846e-18)
(9.11567e-06 0.000137161 -3.58477e-18)
(-0.0171197 -0.0176256 -8.50242e-19)
(0.000895498 -0.00101054 1.43998e-18)
(0.000897476 0.000133572 1.29386e-17)
(0.000117203 0.000416272 1.90861e-18)
(0.000227344 -0.000115721 -3.71142e-18)
(0.000337458 1.81793e-05 -8.1084e-19)
(0.00392103 0.00240662 8.27521e-18)
(-0.000327626 0.00202006 -2.40329e-18)
(0.00257036 -0.00638226 -7.04871e-17)
(-0.00756271 0.00444836 -4.95717e-17)
(0.00149845 0.00552549 3.88678e-17)
(-0.0105094 0.0206741 -4.25849e-17)
(0.000348745 -0.00134467 -5.51259e-17)
(5.01018e-05 -7.14825e-05 -1.11328e-18)
(0.00972324 0.00314063 -4.52473e-18)
(-3.01618e-06 0.000182457 1.44507e-18)
(0.000245474 -1.71e-05 1.37327e-18)
(0.00047054 -0.000374153 3.19676e-18)
(-0.0133642 0.00598427 7.54092e-17)
(0.000663339 0.00113472 -5.33602e-18)
(5.21505e-05 1.51904e-05 -1.89492e-20)
(0.00393437 0.00302557 -5.68174e-17)
(-0.00186244 -0.00244829 -5.04402e-18)
(-0.00158112 -0.00154567 2.72437e-17)
(0.00104678 0.00552522 4.34791e-17)
(0.000178357 0.000292891 1.4562e-17)
(0.00131811 0.000462589 4.15785e-18)
(-1.42451e-05 2.42015e-05 -2.28483e-18)
(0.00403964 -0.00431628 -1.08914e-17)
(0.00386767 0.0025599 2.95919e-17)
(-0.022481 -0.00638763 1.70572e-18)
(0.00018127 -2.83787e-05 -7.33046e-19)
(0.000260444 0.000492877 -1.7878e-17)
(0.00148453 -0.00691052 -2.04944e-17)
(-0.0189774 0.00934581 -4.48084e-18)
(0.0150378 -7.45138e-05 -3.77992e-17)
(0.00144978 0.00274992 -1.48474e-17)
(0.00299581 -0.000446868 7.81443e-18)
(0.000263222 5.79476e-06 2.93399e-18)
(0.000255304 0.000168265 -4.2055e-18)
(0.000135371 0.000417254 -8.19989e-19)
(0.000224409 0.000652097 -4.06121e-18)
(-0.000121074 0.000486388 -1.74536e-17)
(-1.73265e-05 0.000312682 1.97719e-18)
(0.00172521 0.00138052 1.30772e-17)
(-0.000111842 0.000403061 4.67947e-17)
(-0.0213751 -0.00559712 2.20609e-18)
(-0.00484966 0.00082077 -6.05068e-17)
(0.000262566 -7.03164e-05 3.32291e-18)
(0.00767857 -0.00380836 4.5427e-18)
(0.0103024 0.0216205 -3.64661e-17)
(0.000373503 4.58705e-05 -2.41679e-19)
(7.10587e-05 0.000551509 -8.701e-18)
(-0.000314081 -0.000192074 -5.33536e-17)
(-0.0104185 0.013088 2.80249e-17)
(-0.0254899 0.0239435 1.53806e-17)
(-0.000187238 -0.00685229 -1.80937e-17)
(3.69384e-05 2.26863e-05 -6.42434e-19)
(-0.02181 -0.00443027 6.38158e-18)
(-0.00375314 0.00209411 6.00872e-18)
(4.98653e-05 9.89615e-06 -2.26893e-19)
(0.000189699 0.000255102 -1.29191e-17)
(0.00452326 -0.000767062 -4.26653e-19)
(5.85579e-05 0.000235187 1.33816e-17)
(-0.00140222 -0.00180202 -1.24618e-17)
(0.0125593 -0.0200497 -1.21342e-17)
(-0.00450165 0.00724664 3.22149e-17)
(0.000779364 -0.000758251 -2.77989e-17)
(0.00342959 -0.00335123 1.31972e-17)
(0.000286549 0.000296475 7.55493e-18)
(-0.0188302 0.00322262 -2.52752e-17)
(-1.34055e-05 -0.000156524 6.79461e-19)
(-1.12154e-05 9.58117e-05 1.93255e-18)
(-0.0164414 0.00817901 1.18082e-17)
(-0.0107921 0.0136913 4.62868e-18)
(-0.00019416 0.00027024 -1.90464e-17)
(0.000293586 0.000293091 -2.07191e-19)
(0.000194661 -3.49911e-05 2.43345e-19)
(8.72582e-06 0.00017061 5.71706e-18)
(0.000314565 0.000119304 -4.41445e-20)
(7.98782e-05 0.000270481 1.14813e-17)
(-0.00965063 -0.00374508 -2.18547e-17)
(0.000260933 0.000190706 1.13834e-18)
(0.00112487 -0.0102757 9.71671e-18)
(0.00171065 0.00179147 -8.41873e-18)
(0.000151095 0.000155886 6.33934e-20)
(0.000525225 0.00425565 -3.21081e-17)
(-0.00973242 -0.00260253 1.89574e-17)
(-0.0318912 -0.00707509 -1.11233e-17)
(6.44444e-05 0.000124381 3.64323e-19)
(-0.00332657 0.00797992 1.33777e-17)
(0.000278057 0.000275933 -5.9035e-18)
(-0.00299696 0.00177479 -3.11573e-17)
(0.00100809 -0.000690899 -4.77548e-17)
(0.00074423 0.00109964 4.95029e-18)
(0.000238091 0.000506362 2.06878e-17)
(2.09338e-05 3.39628e-05 1.5039e-19)
(0.000106624 1.26931e-05 2.45887e-18)
(0.000169491 5.10398e-06 2.29244e-18)
(0.000418723 0.00146024 9.49358e-19)
(2.20575e-05 0.000252243 -1.09377e-17)
(-0.00750076 -0.00579374 5.55301e-17)
(-0.00175946 -0.000128876 -1.3823e-17)
(0.00237147 0.00114431 -3.92594e-18)
(3.29438e-05 6.53398e-05 4.33517e-20)
(-0.00548308 0.00572965 1.77073e-17)
(-0.000284559 0.000240808 -4.06572e-18)
(0.0136155 -0.0280786 1.58454e-17)
(0.000168539 -0.000222365 7.26052e-18)
(5.1659e-05 0.000255624 1.38323e-17)
(4.14692e-05 0.000116635 9.23011e-20)
(0.000632535 -0.000557944 -1.24704e-17)
(0.000293744 0.000390541 -2.68237e-17)
(0.00649526 -0.00483876 -6.58178e-18)
(-1.38577e-05 -0.000164352 -2.33161e-18)
(-0.000237847 0.00552234 1.26054e-17)
(0.000653833 -0.000531718 3.82772e-18)
(0.00533041 -0.0127809 1.88861e-17)
(0.00107668 -0.00136481 -1.72931e-17)
(0.0184858 0.0038714 -2.48878e-17)
(0.00091458 0.00112496 -5.901e-18)
(0.000182813 0.000123309 4.68785e-19)
(-0.0177159 0.00672725 -8.65232e-18)
(0.0224842 -9.71061e-05 1.36355e-17)
(0.00015177 0.000316566 1.17518e-18)
(0.00045132 -0.000402315 -2.42275e-19)
(-0.00460811 0.0273908 1.49553e-17)
(-0.00010045 -0.00610659 -8.26659e-18)
(0.00353949 0.00657922 -8.89534e-18)
(-1.28071e-05 -2.27709e-05 -1.00004e-18)
(0.000187993 -8.01119e-06 -2.03103e-19)
(0.00332683 0.00225033 1.72591e-18)
(0.000446211 -0.000513193 1.20862e-18)
(-0.000425841 0.00292863 4.3638e-18)
(0.00157699 -0.00291267 -4.30384e-19)
(0.000111056 -6.02754e-06 2.14556e-18)
(0.00232017 -0.000973138 -2.4832e-17)
(-0.00369004 -0.0147283 -1.92896e-17)
(0.000149355 -0.000250715 1.35173e-18)
(0.000235474 -0.000438028 -2.90065e-18)
(2.32605e-05 -2.38914e-05 3.13558e-19)
(-0.0366951 -0.00210349 -6.41137e-18)
(-5.47684e-06 -0.000155188 4.15961e-18)
(0.000237687 2.48554e-05 1.32158e-18)
(-0.00287935 -0.00269603 -5.00415e-17)
(0.000212917 7.16194e-05 2.75467e-19)
(-0.0130725 0.0157853 -2.75406e-17)
(0.000262034 0.000263049 -5.60662e-18)
(4.07663e-05 0.000278764 4.8138e-17)
(1.88321e-05 -2.26109e-05 -2.27893e-19)
(0.000798018 0.00060287 9.69094e-18)
(5.61733e-05 -4.68295e-05 1.68662e-18)
(-0.000753191 -0.000136937 2.19591e-18)
(1.79374e-05 1.92489e-05 -1.6681e-19)
(0.00147716 0.000990491 -9.91096e-18)
(0.000344325 -0.000210191 3.81279e-18)
(-0.00978925 -0.00364191 9.57554e-18)
(-0.00096346 -6.37184e-05 -1.85481e-17)
(0.0114848 0.00412989 4.45806e-18)
(5.95205e-05 -5.74445e-07 -3.05609e-20)
(-1.49381e-05 -9.62154e-05 6.4623e-18)
(0.000282716 -0.00113972 6.20387e-18)
(0.00035915 -0.00028053 1.00012e-18)
(-0.0409664 0.00012909 -2.8082e-17)
(0.00171626 0.01341 3.88087e-17)
(-0.000169225 0.00158826 -1.27099e-17)
(4.95708e-05 -0.000109344 3.80088e-18)
(-0.0110349 -0.000697732 -2.63838e-19)
(-0.000150715 0.000237122 6.27918e-17)
(-0.0283839 -0.00811529 1.3876e-17)
(-0.0072472 -0.00540867 -3.60905e-17)
(0.000710291 0.00155219 7.23961e-20)
(0.0181713 -0.0155044 -7.57122e-18)
(0.000593109 2.18018e-05 2.5934e-17)
(0.000564746 6.40187e-05 -1.05514e-17)
(-0.00601042 0.00181332 -3.89321e-17)
(-0.000247272 0.00131032 -2.61504e-18)
(-0.000170507 0.00146786 9.67475e-18)
(-0.000202759 0.000213959 1.66562e-16)
(-0.000344256 0.00126636 6.23345e-18)
(0.000344105 -0.000472106 -5.73525e-18)
(0.00493291 -0.000715406 2.07398e-17)
(0.000364441 2.69618e-05 -3.59262e-19)
(0.000129168 -0.00012842 7.02599e-19)
(0.000658609 -0.00053828 1.07152e-17)
(0.000505537 -0.000173528 -9.58992e-18)
(0.000370951 5.01995e-05 7.5012e-18)
(5.46257e-05 -2.22577e-05 9.17872e-19)
(2.27048e-05 2.17606e-06 -1.04225e-19)
(0.00207954 0.00149634 -1.02364e-18)
(0.00039074 -4.93023e-05 1.24483e-17)
(-0.00070386 0.0030075 -1.42472e-18)
(4.67049e-05 -8.73481e-05 -3.28357e-18)
(3.86943e-05 0.000117217 1.95323e-18)
(-2.16649e-06 -0.000134485 -5.75111e-18)
(0.000232681 -9.99089e-05 1.46415e-18)
(3.84003e-05 -9.63094e-05 1.38681e-18)
(0.000303164 3.51919e-05 6.14949e-18)
(2.81755e-05 -2.02412e-05 1.07606e-19)
(0.0200735 0.00192193 -1.93657e-17)
(-0.00195153 -0.000908602 6.82562e-18)
(0.000270708 0.000384752 -5.18225e-18)
(6.82786e-05 1.61372e-06 2.55477e-19)
(-1.09915e-05 -0.000130106 -1.90779e-18)
(3.87391e-05 0.000391249 1.22639e-17)
(-0.00111034 0.000121165 3.70524e-18)
(-1.22333e-07 0.00058572 -1.03802e-18)
(0.0205026 -0.0111821 -2.2704e-17)
(0.00174505 -4.57081e-05 -2.10292e-17)
(0.0082486 -0.00323125 5.67198e-17)
(0.000650267 -0.000544316 -7.12529e-18)
(-0.00303592 0.00584815 -4.95154e-18)
(0.000284074 9.6327e-05 6.39266e-18)
(8.12259e-06 -0.000127034 -1.37983e-18)
(1.19215e-05 -9.03815e-06 -3.04851e-20)
(0.000224858 -7.07289e-05 -2.49585e-18)
(-0.011692 -0.000803929 2.97024e-18)
(-8.87869e-06 -0.000117919 1.2015e-18)
(-0.0120067 0.0216544 -2.8016e-17)
(0.000340908 4.82194e-05 5.70139e-18)
(-0.00275845 0.000210408 8.07973e-17)
(0.00050515 0.000675088 1.38823e-19)
(0.00180262 -0.000145405 2.51049e-17)
(0.00431374 -0.0124155 -1.72995e-17)
(5.33419e-05 5.50517e-05 -1.55332e-18)
(-1.50307e-07 -4.46014e-06 -2.01563e-19)
(-0.00204033 -0.00125836 -3.37087e-18)
(1.95569e-05 -0.000106703 -8.41656e-18)