/*--------------------------------*- C++ -*----------------------------------*\
| =========                 |                                                 |
| \\      /  F ield         | OpenFOAM: The Open Source CFD Toolbox           |
|  \\    /   O peration     | Version:  v2012                                 |
|   \\  /    A nd           | Website:  www.openfoam.com                      |
|    \\/     M anipulation  |                                                 |
\*---------------------------------------------------------------------------*/
FoamFile
{
    version     2.0;
    format      ascii;
    class       volVectorField;
    location    "750";
    object      cellDisplacement;
}
// * * * * * * * * * * * * * * * * * * * * * * * * * * * * * * * * * * * * * //

dimensions      [0 1 0 0 0 0 0];


internalField   nonuniform List<vector> 
13917
(
(0 -0.073444 0)
(0 -0.0678314 0)
(0 -0.0739045 0)
(0 -0.0701611 0)
(0 -0.0438138 0)
(0 -0.0739022 0)
(0 -0.0739052 0)
(0 -0.0739043 0)
(0 -0.0739049 0)
(0 -0.0737146 0)
(0 -0.0738579 0)
(0 -0.0736744 0)
(0 -0.070337 0)
(0 -0.0739068 0)
(0 -0.0726634 0)
(0 -0.0723212 0)
(0 -0.0686553 0)
(0 -0.0735893 0)
(0 -0.0736602 0)
(0 -0.0244465 0)
(0 -0.00822503 0)
(0 -0.0739054 0)
(0 -0.036121 0)
(0 -0.0739039 0)
(0 -0.0568662 0)
(0 -0.0739054 0)
(0 -0.0736934 0)
(0 -0.0737886 0)
(0 -0.0739024 0)
(0 -0.0737966 0)
(0 -0.0734791 0)
(0 -0.0727316 0)
(0 -0.0735562 0)
(0 -0.0725769 0)
(0 -0.058334 0)
(0 -0.0738912 0)
(0 -0.0346973 0)
(0 -0.0739067 0)
(0 -0.0715269 0)
(0 -0.0739068 0)
(0 -0.00582966 0)
(0 -0.0033261 0)
(0 -0.0339195 0)
(0 -0.0738569 0)
(0 -0.0663387 0)
(0 -0.072976 0)
(0 -0.0735727 0)
(0 -0.0737083 0)
(0 -0.0739068 0)
(0 -0.00577914 0)
(0 -0.0723382 0)
(0 -0.0687436 0)
(0 -0.0739068 0)
(0 -0.0726915 0)
(0 -0.0688539 0)
(0 -0.0724085 0)
(0 -0.0738542 0)
(0 -0.0649164 0)
(0 -0.0718599 0)
(0 -0.065898 0)
(0 -0.0739033 0)
(0 -0.0679033 0)
(0 -0.0739068 0)
(0 -0.0259442 0)
(0 -0.0739011 0)
(0 -0.0739036 0)
(0 -0.0455092 0)
(0 -0.058513 0)
(0 -0.0738592 0)
(0 -0.0733841 0)
(0 -0.0426426 0)
(0 -0.0739045 0)
(0 -0.0739068 0)
(0 -0.0561399 0)
(0 -0.0739068 0)
(0 -0.073726 0)
(0 -0.0739068 0)
(0 -0.0695614 0)
(0 -0.0739055 0)
(0 -0.0153077 0)
(0 -0.0186371 0)
(0 -0.0436781 0)
(0 -0.0739006 0)
(0 -0.0739067 0)
(0 -0.0739062 0)
(0 -0.0693059 0)
(0 -0.0221565 0)
(0 -0.0739031 0)
(0 -0.0722397 0)
(0 -0.0354466 0)
(0 -0.0739067 0)
(0 -0.0737752 0)
(0 -0.0616793 0)
(0 -0.0709686 0)
(0 -0.0739034 0)
(0 -0.0739009 0)
(0 -0.0738262 0)
(0 -0.0736732 0)
(0 -0.0738416 0)
(0 -0.0738728 0)
(0 -0.0306426 0)
(0 -0.0734367 0)
(0 -0.0738555 0)
(0 -0.0702423 0)
(0 -0.0487493 0)
(0 -0.0739043 0)
(0 -0.0738982 0)
(0 -0.0737245 0)
(0 -0.0687983 0)
(0 -0.0735448 0)
(0 -0.0739067 0)
(0 -0.0739068 0)
(0 -0.0737631 0)
(0 -0.0739046 0)
(0 -0.0708167 0)
(0 -0.0739068 0)
(0 -0.0503673 0)
(0 -0.0739062 0)
(0 -0.0739068 0)
(0 -0.0726825 0)
(0 -0.00644836 0)
(0 -0.0738562 0)
(0 -0.0739068 0)
(0 -0.0737724 0)
(0 -0.00530648 0)
(0 -0.0707286 0)
(0 -0.0660977 0)
(0 -0.00428529 0)
(0 -0.0202442 0)
(0 -0.0739021 0)
(0 -0.0739067 0)
(0 -0.0705848 0)
(0 -0.0666581 0)
(0 -0.00675265 0)
(0 -0.073894 0)
(0 -0.0739037 0)
(0 -0.0734579 0)
(0 -0.0738787 0)
(0 -0.0464128 0)
(0 -0.0726492 0)
(0 -0.0738869 0)
(0 -0.055547 0)
(0 -0.0697673 0)
(0 -0.0738706 0)
(0 -0.0590487 0)
(0 -0.0739028 0)
(0 -0.0739021 0)
(0 -0.0684207 0)
(0 -0.052625 0)
(0 -0.0728575 0)
(0 -0.0736093 0)
(0 -0.0739067 0)
(0 -0.073769 0)
(0 -0.0735754 0)
(0 -0.0725125 0)
(0 -0.0739064 0)
(0 -0.0733445 0)
(0 -0.0738953 0)
(0 -0.0739068 0)
(0 -0.073894 0)
(0 -0.0720438 0)
(0 -0.0736843 0)
(0 -0.0139092 0)
(0 -0.0738198 0)
(0 -0.0737533 0)
(0 -0.0738363 0)
(0 -0.0701522 0)
(0 -0.0736435 0)
(0 -0.0634936 0)
(0 -0.0734792 0)
(0 -0.0735632 0)
(0 -0.0739068 0)
(0 -0.0737803 0)
(0 -0.0700326 0)
(0 -0.0739014 0)
(0 -0.0736629 0)
(0 -0.0739066 0)
(0 -0.0739065 0)
(0 -0.0739023 0)
(0 -0.0618562 0)
(0 -0.0737832 0)
(0 -0.0735089 0)
(0 -0.055532 0)
(0 -0.0235934 0)
(0 -0.0732294 0)
(0 -0.0739049 0)
(0 -0.0738762 0)
(0 -0.0739062 0)
(0 -0.0732569 0)
(0 -0.0738323 0)
(0 -0.0738883 0)
(0 -0.073906 0)
(0 -0.0738765 0)
(0 -0.0383281 0)
(0 -0.0738796 0)
(0 -0.0736671 0)
(0 -0.0019962 0)
(0 -0.0622386 0)
(0 -0.0738903 0)
(0 -0.073903 0)
(0 -0.0720266 0)
(0 -0.005425 0)
(0 -0.0735936 0)
(0 -0.0735939 0)
(0 -0.0739068 0)
(0 -0.0738916 0)
(0 -0.0576393 0)
(0 -0.0654512 0)
(0 -0.0736642 0)
(0 -0.0739046 0)
(0 -0.0695099 0)
(0 -0.0739053 0)
(0 -0.0739068 0)
(0 -0.0738284 0)
(0 -0.0489714 0)
(0 -0.0739025 0)
(0 -0.0736031 0)
(0 -0.0739068 0)
(0 -0.0554544 0)
(0 -0.0739024 0)
(0 -0.0611731 0)
(0 -0.0737762 0)
(0 -0.00692915 0)
(0 -0.0739067 0)
(0 -0.0739044 0)
(0 -0.0724393 0)
(0 -0.0739012 0)
(0 -0.0725796 0)
(0 -0.0478936 0)
(0 -0.0738898 0)
(0 -0.0737719 0)
(0 -0.0732339 0)
(0 -0.0739037 0)
(0 -0.0739068 0)
(0 -0.019323 0)
(0 -0.0728016 0)
(0 -0.0739067 0)
(0 -0.0739064 0)
(0 -0.0157068 0)
(0 -0.038344 0)
(0 -0.0739068 0)
(0 -0.0738402 0)
(0 -0.000975998 0)
(0 -0.0738838 0)
(0 -0.0737831 0)
(0 -0.0736616 0)
(0 -0.0733317 0)
(0 -0.0149556 0)
(0 -0.073674 0)
(0 -0.0739068 0)
(0 -0.0642041 0)
(0 -0.07382 0)
(0 -0.0738854 0)
(0 -0.0657057 0)
(0 -0.0644832 0)
(0 -0.0737005 0)
(0 -0.0739068 0)
(0 -0.0737565 0)
(0 -0.073279 0)
(0 -0.0726949 0)
(0 -0.00165868 0)
(0 -0.0739068 0)
(0 -0.0739025 0)
(0 -0.0738872 0)
(0 -0.0481266 0)
(0 -0.0739068 0)
(0 -0.0739068 0)
(0 -0.0738968 0)
(0 -0.0739057 0)
(0 -0.0737442 0)
(0 -0.0178725 0)
(0 -0.0063874 0)
(0 -0.0735753 0)
(0 -0.0739067 0)
(0 -0.0738231 0)
(0 -0.0717215 0)
(0 -0.0738933 0)
(0 -0.0733302 0)
(0 -0.0155726 0)
(0 -0.0739 0)
(0 -0.0240479 0)
(0 -0.0739019 0)
(0 -0.0718904 0)
(0 -0.000977105 0)
(0 -0.0728532 0)
(0 -0.0735921 0)
(0 -0.0736843 0)
(0 -0.0738858 0)
(0 -0.0733428 0)
(0 -0.0656469 0)
(0 -0.0738861 0)
(0 -0.0739036 0)
(0 -0.0739032 0)
(0 -0.0547926 0)
(0 -0.0738976 0)
(0 -0.0315584 0)
(0 -0.0655991 0)
(0 -0.0491298 0)
(0 -0.0739033 0)
(0 -0.00560537 0)
(0 -0.0737887 0)
(0 -0.0732923 0)
(0 -0.062966 0)
(0 -0.0736099 0)
(0 -0.070759 0)
(0 -0.0739067 0)
(0 -0.0736377 0)
(0 -0.0737592 0)
(0 -0.0598777 0)
(0 -0.0638973 0)
(0 -0.0739067 0)
(0 -0.0739068 0)
(0 -0.0512123 0)
(0 -0.0070043 0)
(0 -0.0738993 0)
(0 -0.0612526 0)
(0 -0.0739068 0)
(0 -0.0592732 0)
(0 -0.0739066 0)
(0 -0.0675932 0)
(0 -0.0738879 0)
(0 -0.0730686 0)
(0 -0.0739068 0)
(0 -0.0718928 0)
(0 -0.0738924 0)
(0 -0.073899 0)
(0 -0.0727957 0)
(0 -0.0738386 0)
(0 -0.0738979 0)
(0 -0.0686038 0)
(0 -0.0739067 0)
(0 -0.0738773 0)
(0 -0.0739068 0)
(0 -0.0723146 0)
(0 -0.0739068 0)
(0 -0.0728613 0)
(0 -0.0739063 0)
(0 -0.0738965 0)
(0 -0.0738654 0)
(0 -0.073861 0)
(0 -0.073905 0)
(0 -0.0201678 0)
(0 -0.0735892 0)
(0 -0.0739066 0)
(0 -0.0674602 0)
(0 -0.071493 0)
(0 -0.0739068 0)
(0 -0.0738941 0)
(0 -0.0696579 0)
(0 -0.0738858 0)
(0 -0.0739018 0)
(0 -0.0266307 0)
(0 -0.0739068 0)
(0 -0.0738891 0)
(0 -0.0255093 0)
(0 -0.0471421 0)
(0 -0.0300896 0)
(0 -0.0526227 0)
(0 -0.0738844 0)
(0 -0.0739019 0)
(0 -0.073903 0)
(0 -0.0739067 0)
(0 -0.0538675 0)
(0 -0.0738289 0)
(0 -0.0739068 0)
(0 -0.0734058 0)
(0 -0.0739055 0)
(0 -0.0739067 0)
(0 -0.0739046 0)
(0 -0.031281 0)
(0 -0.073885 0)
(0 -0.0468203 0)
(0 -0.0739016 0)
(0 -0.0658236 0)
(0 -0.0739068 0)
(0 -0.0737885 0)
(0 -0.0712557 0)
(0 -0.0241361 0)
(0 -0.0736411 0)
(0 -0.0737955 0)
(0 -0.0737233 0)
(0 -0.073906 0)
(0 -0.0739065 0)
(0 -0.0739068 0)
(0 -0.0736981 0)
(0 -0.0736949 0)
(0 -0.0372011 0)
(0 -0.0739063 0)
(0 -0.0739056 0)
(0 -0.0657038 0)
(0 -0.0738901 0)
(0 -0.0525309 0)
(0 -0.0738809 0)
(0 -0.0674971 0)
(0 -0.0175249 0)
(0 -0.0708442 0)
(0 -0.0739055 0)
(0 -0.0708233 0)
(0 -0.0739067 0)
(0 -0.0739066 0)
(0 -0.073846 0)
(0 -0.0739014 0)
(0 -0.0684071 0)
(0 -0.0739016 0)
(0 -0.0739009 0)
(0 -0.0414034 0)
(0 -0.0738954 0)
(0 -0.0671249 0)
(0 -0.0556768 0)
(0 -0.073794 0)
(0 -0.00238892 0)
(0 -0.0577056 0)
(0 -0.0463004 0)
(0 -0.0738809 0)
(0 -0.0124866 0)
(0 -0.0739068 0)
(0 -0.0739043 0)
(0 -0.0739068 0)
(0 -0.073875 0)
(0 -0.0739066 0)
(0 -0.0739068 0)
(0 -0.0733772 0)
(0 -0.0528248 0)
(0 -0.0738513 0)
(0 -0.0714123 0)
(0 -0.0729561 0)
(0 -0.0399535 0)
(0 -0.0739026 0)
(0 -0.0739051 0)
(0 -0.0739037 0)
(0 -0.0723714 0)
(0 -0.0738076 0)
(0 -0.0721781 0)
(0 -0.0716955 0)
(0 -0.0737152 0)
(0 -0.0706962 0)
(0 -0.0738864 0)
(0 -0.0685878 0)
(0 -0.00675749 0)
(0 -0.0739067 0)
(0 -0.0739067 0)
(0 -0.0739066 0)
(0 -0.0738377 0)
(0 -0.0739068 0)
(0 -0.0739067 0)
(0 -0.0739066 0)
(0 -0.0739068 0)
(0 -0.0196073 0)
(0 -0.0736227 0)
(0 -0.0706407 0)
(0 -0.0660782 0)
(0 -0.07389 0)
(0 -0.073589 0)
(0 -0.00715252 0)
(0 -0.0736652 0)
(0 -0.0733379 0)
(0 -0.0739068 0)
(0 -0.0425229 0)
(0 -0.0738179 0)
(0 -0.0739065 0)
(0 -0.0738943 0)
(0 -0.0739068 0)
(0 -0.0112499 0)
(0 -0.0659437 0)
(0 -0.00360971 0)
(0 -0.0733456 0)
(0 -0.029706 0)
(0 -0.0739044 0)
(0 -0.0739022 0)
(0 -0.0732924 0)
(0 -0.0739062 0)
(0 -0.0723633 0)
(0 -0.0738234 0)
(0 -0.0739065 0)
(0 -0.0739011 0)
(0 -0.0738425 0)
(0 -0.0738886 0)
(0 -0.0738225 0)
(0 -0.0736547 0)
(0 -0.0738503 0)
(0 -0.0733913 0)
(0 -0.0738577 0)
(0 -0.0739018 0)
(0 -0.0734809 0)
(0 -0.073755 0)
(0 -0.00676376 0)
(0 -0.0738922 0)
(0 -0.0724722 0)
(0 -0.0553488 0)
(0 -0.0733033 0)
(0 -0.0698155 0)
(0 -0.0739068 0)
(0 -0.0739044 0)
(0 -0.0605794 0)
(0 -0.012711 0)
(0 -0.073904 0)
(0 -0.0739068 0)
(0 -0.00188125 0)
(0 -0.0739068 0)
(0 -0.0694086 0)
(0 -0.0738644 0)
(0 -0.0616158 0)
(0 -0.0739068 0)
(0 -0.0738937 0)
(0 -0.0728388 0)
(0 -0.0684781 0)
(0 -0.0739065 0)
(0 -0.0738712 0)
(0 -0.0739068 0)
(0 -0.00212304 0)
(0 -0.0739068 0)
(0 -0.0739066 0)
(0 -0.0738996 0)
(0 -0.0556382 0)
(0 -0.0739064 0)
(0 -0.0739048 0)
(0 -0.0734081 0)
(0 -0.0473715 0)
(0 -0.0687473 0)
(0 -0.0737235 0)
(0 -0.0738842 0)
(0 -0.00901502 0)
(0 -0.0458461 0)
(0 -0.0146009 0)
(0 -0.0152941 0)
(0 -0.0739068 0)
(0 -0.0738893 0)
(0 -0.0733784 0)
(0 -0.0738747 0)
(0 -0.00466894 0)
(0 -0.0294007 0)
(0 -0.073801 0)
(0 -0.0739058 0)
(0 -0.0731052 0)
(0 -0.063995 0)
(0 -0.0559069 0)
(0 -0.0527142 0)
(0 -0.0739002 0)
(0 -0.0739058 0)
(0 -0.0207854 0)
(0 -0.0527041 0)
(0 -0.0738845 0)
(0 -0.0733696 0)
(0 -0.0730638 0)
(0 -0.0656434 0)
(0 -0.0709513 0)
(0 -0.0726597 0)
(0 -0.0737483 0)
(0 -0.0738954 0)
(0 -0.0738778 0)
(0 -0.0738552 0)
(0 -0.0737947 0)
(0 -0.0738925 0)
(0 -0.0737524 0)
(0 -0.0544563 0)
(0 -0.0739068 0)
(0 -0.0520754 0)
(0 -0.0716609 0)
(0 -0.0711412 0)
(0 -0.0738917 0)
(0 -0.0738216 0)
(0 -0.00924246 0)
(0 -0.0738929 0)
(0 -0.0738136 0)
(0 -0.0739068 0)
(0 -0.0737937 0)
(0 -0.0735638 0)
(0 -0.0733815 0)
(0 -0.0259769 0)
(0 -0.0739037 0)
(0 -0.0738894 0)
(0 -0.0739059 0)
(0 -0.068194 0)
(0 -0.0728154 0)
(0 -0.073877 0)
(0 -0.0739067 0)
(0 -0.0739068 0)
(0 -0.0736934 0)
(0 -0.0738461 0)
(0 -0.0723023 0)
(0 -0.0715476 0)
(0 -0.0659348 0)
(0 -0.0737792 0)
(0 -0.0738631 0)
(0 -0.0665992 0)
(0 -0.07359 0)
(0 -0.0738839 0)
(0 -0.0739058 0)
(0 -0.0739068 0)
(0 -0.0717141 0)
(0 -0.0738182 0)
(0 -0.0738922 0)
(0 -0.0729948 0)
(0 -0.0691944 0)
(0 -0.0739063 0)
(0 -0.0739027 0)
(0 -0.0739034 0)
(0 -0.0738726 0)
(0 -0.0218966 0)
(0 -0.0739068 0)
(0 -0.0737151 0)
(0 -0.0069444 0)
(0 -0.0730341 0)
(0 -0.0737355 0)
(0 -0.0735172 0)
(0 -0.0737884 0)
(0 -0.0739055 0)
(0 -0.0738458 0)
(0 -0.0732434 0)
(0 -0.0739037 0)
(0 -0.0703756 0)
(0 -0.0739068 0)
(0 -0.0145866 0)
(0 -0.0222182 0)
(0 -0.0738982 0)
(0 -0.073903 0)
(0 -0.0739031 0)
(0 -0.0703773 0)
(0 -0.0697997 0)
(0 -0.0520416 0)
(0 -0.0733588 0)
(0 -0.0739068 0)
(0 -0.0738287 0)
(0 -0.0716712 0)
(0 -0.0738351 0)
(0 -0.0736306 0)
(0 -0.0621206 0)
(0 -0.0739009 0)
(0 -0.0738245 0)
(0 -0.0738867 0)
(0 -0.0564117 0)
(0 -0.0738438 0)
(0 -0.0697738 0)
(0 -0.0739064 0)
(0 -0.0737225 0)
(0 -0.0738151 0)
(0 -0.07286 0)
(0 -0.0170043 0)
(0 -0.0537858 0)
(0 -0.0664827 0)
(0 -0.0738622 0)
(0 -0.0730132 0)
(0 -0.0738768 0)
(0 -0.073906 0)
(0 -0.0736301 0)
(0 -0.0261317 0)
(0 -0.0738442 0)
(0 -0.0739037 0)
(0 -0.0738925 0)
(0 -0.0637923 0)
(0 -0.0729064 0)
(0 -0.0455623 0)
(0 -0.0725673 0)
(0 -0.0719786 0)
(0 -0.073905 0)
(0 -0.0169518 0)
(0 -0.0739027 0)
(0 -0.0725106 0)
(0 -0.0738574 0)
(0 -0.0737789 0)
(0 -0.0739068 0)
(0 -0.0738153 0)
(0 -0.0684215 0)
(0 -0.0739068 0)
(0 -0.0739068 0)
(0 -0.0656947 0)
(0 -0.0710461 0)
(0 -0.0738935 0)
(0 -0.0738677 0)
(0 -0.0738177 0)
(0 -0.00270025 0)
(0 -0.0686084 0)
(0 -0.0738839 0)
(0 -0.0713824 0)
(0 -0.0737142 0)
(0 -0.0736795 0)
(0 -0.0544965 0)
(0 -0.0735936 0)
(0 -0.0739044 0)
(0 -0.0635485 0)
(0 -0.0693399 0)
(0 -0.0152939 0)
(0 -0.0739068 0)
(0 -0.00857526 0)
(0 -0.0722339 0)
(0 -0.0739068 0)
(0 -0.071372 0)
(0 -0.0739024 0)
(0 -0.0725456 0)
(0 -0.0735923 0)
(0 -0.0159574 0)
(0 -0.0737034 0)
(0 -0.0482146 0)
(0 -0.0736477 0)
(0 -0.0112873 0)
(0 -0.0738137 0)
(0 -0.069326 0)
(0 -0.0739062 0)
(0 -0.0739057 0)
(0 -0.0739058 0)
(0 -0.00366824 0)
(0 -0.0219169 0)
(0 -0.0737349 0)
(0 -0.0735723 0)
(0 -0.0739068 0)
(0 -0.0739054 0)
(0 -0.0735865 0)
(0 -0.0565625 0)
(0 -0.0738787 0)
(0 -0.0739038 0)
(0 -0.0738853 0)
(0 -0.0738731 0)
(0 -0.0735481 0)
(0 -0.0739053 0)
(0 -0.0734424 0)
(0 -0.0732797 0)
(0 -0.0738379 0)
(0 -0.0738874 0)
(0 -0.0735663 0)
(0 -0.0739053 0)
(0 -0.0735597 0)
(0 -0.0702883 0)
(0 -0.0737502 0)
(0 -0.0728419 0)
(0 -0.0591878 0)
(0 -0.0725093 0)
(0 -0.073533 0)
(0 -0.0727896 0)
(0 -0.0492122 0)
(0 -0.00500525 0)
(0 -0.0736319 0)
(0 -0.07034 0)
(0 -0.0737248 0)
(0 -0.0557018 0)
(0 -0.0510901 0)
(0 -0.00703926 0)
(0 -0.0709523 0)
(0 -0.0411967 0)
(0 -0.0723852 0)
(0 -0.0159496 0)
(0 -0.0739068 0)
(0 -0.0736579 0)
(0 -0.0738996 0)
(0 -0.0291823 0)
(0 -0.0100528 0)
(0 -0.073752 0)
(0 -0.0736717 0)
(0 -0.0702711 0)
(0 -0.073901 0)
(0 -0.0737794 0)
(0 -0.0739004 0)
(0 -0.0725571 0)
(0 -0.0738245 0)
(0 -0.0683283 0)
(0 -0.00754207 0)
(0 -0.0139024 0)
(0 -0.0708006 0)
(0 -0.0739068 0)
(0 -0.00867532 0)
(0 -0.0738954 0)
(0 -0.0724931 0)
(0 -0.0739068 0)
(0 -0.0737303 0)
(0 -0.0737853 0)
(0 -0.0738536 0)
(0 -0.0434338 0)
(0 -0.000306496 0)
(0 -0.0736721 0)
(0 -0.0585767 0)
(0 -0.0692397 0)
(0 -0.0738996 0)
(0 -0.0702677 0)
(0 -0.02998 0)
(0 -0.0726315 0)
(0 -0.0348673 0)
(0 -0.010756 0)
(0 -0.0727455 0)
(0 -0.0730802 0)
(0 -0.0739068 0)
(0 -0.073265 0)
(0 -0.0635698 0)
(0 -0.00713072 0)
(0 -0.0739066 0)
(0 -0.0738659 0)
(0 -0.067853 0)
(0 -0.0679997 0)
(0 -0.0739002 0)
(0 -0.073893 0)
(0 -0.0739068 0)
(0 -0.0735427 0)
(0 -0.0703684 0)
(0 -0.0197658 0)
(0 -0.0127329 0)
(0 -0.0735024 0)
(0 -0.0733072 0)
(0 -0.0738827 0)
(0 -0.07243 0)
(0 -0.0739068 0)
(0 -0.06853 0)
(0 -0.07163 0)
(0 -0.0739068 0)
(0 -0.0521497 0)
(0 -0.0725315 0)
(0 -0.0643905 0)
(0 -0.0083176 0)
(0 -0.0735186 0)
(0 -0.073708 0)
(0 -0.0688492 0)
(0 -0.0739029 0)
(0 -0.0739068 0)
(0 -0.0737835 0)
(0 -0.0550799 0)
(0 -0.0470881 0)
(0 -0.0738267 0)
(0 -0.0738947 0)
(0 -0.00290679 0)
(0 -0.0738906 0)
(0 -0.0461049 0)
(0 -0.0734922 0)
(0 -0.0601156 0)
(0 -0.0604052 0)
(0 -0.0738865 0)
(0 -0.0650389 0)
(0 -0.0738969 0)
(0 -0.0733931 0)
(0 -0.00722382 0)
(0 -0.0354252 0)
(0 -0.0634612 0)
(0 -0.056635 0)
(0 -0.06914 0)
(0 -0.0739061 0)
(0 -0.0628014 0)
(0 -0.0586573 0)
(0 -0.0739054 0)
(0 -0.0739035 0)
(0 -0.0732967 0)
(0 -0.0735479 0)
(0 -0.0736992 0)
(0 -0.0718162 0)
(0 -0.0564167 0)
(0 -0.0730205 0)
(0 -0.0739068 0)
(0 -0.0738207 0)
(0 -0.0380878 0)
(0 -0.0681652 0)
(0 -0.0739052 0)
(0 -0.0732339 0)
(0 -0.0739065 0)
(0 -0.0088861 0)
(0 -0.0705226 0)
(0 -0.0739068 0)
(0 -0.0731032 0)
(0 -0.0690623 0)
(0 -0.0739067 0)
(0 -0.0739062 0)
(0 -0.0560962 0)
(0 -0.0738302 0)
(0 -0.0147754 0)
(0 -0.0646346 0)
(0 -0.0307583 0)
(0 -0.0739068 0)
(0 -0.0397974 0)
(0 -0.0638304 0)
(0 -0.056411 0)
(0 -0.0738986 0)
(0 -0.0712401 0)
(0 -0.0738663 0)
(0 -0.0738226 0)
(0 -0.0605386 0)
(0 -0.0734555 0)
(0 -0.0198339 0)
(0 -0.0739066 0)
(0 -0.0415051 0)
(0 -0.0631982 0)
(0 -0.0297989 0)
(0 -0.0738316 0)
(0 -0.0310905 0)
(0 -0.0738482 0)
(0 -0.0739068 0)
(0 -0.0739034 0)
(0 -0.072827 0)
(0 -0.0738884 0)
(0 -0.0739068 0)
(0 -0.0637042 0)
(0 -0.0739068 0)
(0 -0.0739039 0)
(0 -0.0739068 0)
(0 -0.0739066 0)
(0 -0.0739055 0)
(0 -0.0739067 0)
(0 -0.0738383 0)
(0 -0.0688801 0)
(0 -0.0739057 0)
(0 -0.0730747 0)
(0 -0.0739058 0)
(0 -0.0549496 0)
(0 -0.0616786 0)
(0 -0.0680283 0)
(0 -0.0211587 0)
(0 -0.0721095 0)
(0 -0.0733514 0)
(0 -0.0739068 0)
(0 -0.061093 0)
(0 -0.0506632 0)
(0 -0.0739068 0)
(0 -0.0738905 0)
(0 -0.063368 0)
(0 -0.0736228 0)
(0 -0.0728548 0)
(0 -0.0673418 0)
(0 -0.0739056 0)
(0 -0.0736332 0)
(0 -0.0718075 0)
(0 -0.0712139 0)
(0 -0.0739068 0)
(0 -0.0739068 0)
(0 -0.0739059 0)
(0 -0.0596258 0)
(0 -0.0738696 0)
(0 -0.0738069 0)
(0 -0.0739067 0)
(0 -0.0739047 0)
(0 -0.0737694 0)
(0 -0.0617382 0)
(0 -0.0685943 0)
(0 -0.0684861 0)
(0 -0.0141447 0)
(0 -0.071053 0)
(0 -0.0172151 0)
(0 -0.0726273 0)
(0 -0.0734221 0)
(0 -0.0739061 0)
(0 -0.073837 0)
(0 -0.0639826 0)
(0 -0.0738184 0)
(0 -0.0739066 0)
(0 -0.0734761 0)
(0 -0.0684811 0)
(0 -0.0739068 0)
(0 -0.0623934 0)
(0 -0.0689127 0)
(0 -0.0736208 0)
(0 -0.073906 0)
(0 -0.0312944 0)
(0 -0.0568543 0)
(0 -0.0739054 0)
(0 -0.0738854 0)
(0 -0.0738913 0)
(0 -0.0738084 0)
(0 -0.0738905 0)
(0 -0.0554825 0)
(0 -0.0738554 0)
(0 -0.0688356 0)
(0 -0.0426533 0)
(0 -0.0688476 0)
(0 -0.0739048 0)
(0 -0.0739068 0)
(0 -0.0589586 0)
(0 -0.0368248 0)
(0 -0.0649382 0)
(0 -0.0738943 0)
(0 -0.0707774 0)
(0 -0.0728237 0)
(0 -0.0576073 0)
(0 -0.0693493 0)
(0 -0.0738521 0)
(0 -0.061032 0)
(0 -0.0736625 0)
(0 -0.0738869 0)
(0 -0.0739066 0)
(0 -0.0652841 0)
(0 -0.0738142 0)
(0 -0.071856 0)
(0 -0.0739068 0)
(0 -0.0739066 0)
(0 -0.0568985 0)
(0 -0.0739067 0)
(0 -0.0737176 0)
(0 -0.0739059 0)
(0 -0.0315707 0)
(0 -0.0739057 0)
(0 -0.0149916 0)
(0 -0.0723554 0)
(0 -0.0735165 0)
(0 -0.0738059 0)
(0 -0.0739044 0)
(0 -0.073888 0)
(0 -0.0738629 0)
(0 -0.073903 0)
(0 -0.0156479 0)
(0 -0.07388 0)
(0 -0.0602419 0)
(0 -0.0727874 0)
(0 -0.0739055 0)
(0 -0.0664158 0)
(0 -0.0131287 0)
(0 -0.0701414 0)
(0 -0.0672519 0)
(0 -0.0739062 0)
(0 -0.0392673 0)
(0 -0.0375236 0)
(0 -0.0736093 0)
(0 -0.0735426 0)
(0 -0.073544 0)
(0 -0.0739032 0)
(0 -0.0738363 0)
(0 -0.0739068 0)
(0 -0.0736565 0)
(0 -0.0731903 0)
(0 -0.0732458 0)
(0 -0.0739068 0)
(0 -0.0733214 0)
(0 -0.0739022 0)
(0 -0.0739055 0)
(0 -0.0718065 0)
(0 -0.0612437 0)
(0 -0.0739066 0)
(0 -0.073886 0)
(0 -0.0684162 0)
(0 -0.0738108 0)
(0 -0.0731433 0)
(0 -0.0674498 0)
(0 -0.0721953 0)
(0 -0.0675518 0)
(0 -0.0735039 0)
(0 -0.000702327 0)
(0 -0.0735343 0)
(0 -0.0738756 0)
(0 -0.0463846 0)
(0 -0.0736616 0)
(0 -0.0606317 0)
(0 -0.0737875 0)
(0 -0.0133292 0)
(0 -0.0727267 0)
(0 -0.0736338 0)
(0 -0.0705344 0)
(0 -0.0662059 0)
(0 -0.0591319 0)
(0 -0.0739056 0)
(0 -0.0737666 0)
(0 -0.0739021 0)
(0 -0.0584536 0)
(0 -0.0673479 0)
(0 -0.0736445 0)
(0 -0.0641094 0)
(0 -0.0737811 0)
(0 -0.0737761 0)
(0 -0.0673672 0)
(0 -0.0737901 0)
(0 -0.0600141 0)
(0 -0.0739016 0)
(0 -0.0680744 0)
(0 -0.0732125 0)
(0 -0.0739068 0)
(0 -0.0738785 0)
(0 -0.0562991 0)
(0 -0.0715382 0)
(0 -0.0739068 0)
(0 -0.0420374 0)
(0 -0.0461952 0)
(0 -0.0739066 0)
(0 -0.0739067 0)
(0 -0.072037 0)
(0 -0.0738576 0)
(0 -0.0243307 0)
(0 -0.0661231 0)
(0 -0.0739046 0)
(0 -0.0705544 0)
(0 -0.0437559 0)
(0 -0.0738845 0)
(0 -0.0609674 0)
(0 -0.0738937 0)
(0 -0.0207294 0)
(0 -0.0426691 0)
(0 -0.0680571 0)
(0 -0.0738413 0)
(0 -0.0739068 0)
(0 -0.0666914 0)
(0 -0.0686496 0)
(0 -0.0548823 0)
(0 -0.0725958 0)
(0 -0.00744464 0)
(0 -0.0739047 0)
(0 -0.0736414 0)
(0 -0.00251833 0)
(0 -0.0739022 0)
(0 -0.0737234 0)
(0 -0.0738826 0)
(0 -0.0739066 0)
(0 -0.0739064 0)
(0 -0.0581637 0)
(0 -0.0681116 0)
(0 -0.0657483 0)
(0 -0.0739014 0)
(0 -0.0727383 0)
(0 -0.0739068 0)
(0 -0.0739068 0)
(0 -0.0718766 0)
(0 -0.0739056 0)
(0 -0.0739066 0)
(0 -0.0735387 0)
(0 -0.0738514 0)
(0 -0.0738007 0)
(0 -0.0739015 0)
(0 -0.0739042 0)
(0 -0.0737994 0)
(0 -0.0738955 0)
(0 -0.0739066 0)
(0 -0.0736643 0)
(0 -0.0724104 0)
(0 -0.0739068 0)
(0 -0.0737928 0)
(0 -0.0553896 0)
(0 -0.0704515 0)
(0 -0.0739032 0)
(0 -0.0735024 0)
(0 -0.0600679 0)
(0 -0.07372 0)
(0 -0.073794 0)
(0 -0.0734246 0)
(0 -0.0739068 0)
(0 -0.0715666 0)
(0 -0.0739021 0)
(0 -0.0732694 0)
(0 -0.0738846 0)
(0 -0.0738251 0)
(0 -0.073872 0)
(0 -0.0727763 0)
(0 -0.0594067 0)
(0 -0.0698563 0)
(0 -0.073904 0)
(0 -0.0498269 0)
(0 -0.0719734 0)
(0 -0.0083066 0)
(0 -0.0710144 0)
(0 -0.0617857 0)
(0 -0.0735315 0)
(0 -0.0738537 0)
(0 -0.0739061 0)
(0 -0.0737153 0)
(0 -0.0738086 0)
(0 -0.0739033 0)
(0 -0.0738937 0)
(0 -0.0618348 0)
(0 -0.073894 0)
(0 -0.0739044 0)
(0 -0.0508521 0)
(0 -0.0465322 0)
(0 -0.0729376 0)
(0 -0.0739068 0)
(0 -0.0127474 0)
(0 -0.0737078 0)
(0 -0.073897 0)
(0 -0.0736369 0)
(0 -0.0640678 0)
(0 -0.0698167 0)
(0 -0.0616552 0)
(0 -0.0738089 0)
(0 -0.0735415 0)
(0 -0.0165806 0)
(0 -0.0739061 0)
(0 -0.0739054 0)
(0 -0.0736464 0)
(0 -0.0738921 0)
(0 -0.0736775 0)
(0 -0.0739016 0)
(0 -0.0712277 0)
(0 -0.0719407 0)
(0 -0.0739027 0)
(0 -0.0738928 0)
(0 -0.0737778 0)
(0 -0.0739054 0)
(0 -0.0727849 0)
(0 -0.0054056 0)
(0 -0.0642677 0)
(0 -0.067659 0)
(0 -0.060676 0)
(0 -0.0700587 0)
(0 -0.0737072 0)
(0 -0.056385 0)
(0 -0.0738314 0)
(0 -0.0360319 0)
(0 -0.0727171 0)
(0 -0.0594063 0)
(0 -0.0737768 0)
(0 -0.0738303 0)
(0 -0.0738935 0)
(0 -0.063069 0)
(0 -0.0738734 0)
(0 -0.0643389 0)
(0 -0.0739022 0)
(0 -0.0537393 0)
(0 -0.072546 0)
(0 -0.0387888 0)
(0 -0.0738781 0)
(0 -0.0739068 0)
(0 -0.073848 0)
(0 -0.0568153 0)
(0 -0.073835 0)
(0 -0.0655916 0)
(0 -0.0729419 0)
(0 -0.0739067 0)
(0 -0.0641874 0)
(0 -0.0688447 0)
(0 -0.0735115 0)
(0 -0.0730086 0)
(0 -0.0739056 0)
(0 -0.0568693 0)
(0 -0.0731565 0)
(0 -0.0696461 0)
(0 -0.0479609 0)
(0 -0.0734067 0)
(0 -0.0695532 0)
(0 -0.0251092 0)
(0 -0.0716641 0)
(0 -0.0739068 0)
(0 -0.0717667 0)
(0 -0.0738856 0)
(0 -0.0739031 0)
(0 -0.0735782 0)
(0 -0.0739067 0)
(0 -0.0716462 0)
(0 -0.0234455 0)
(0 -0.0732671 0)
(0 -0.0739068 0)
(0 -0.0700418 0)
(0 -0.0734662 0)
(0 -0.0733832 0)
(0 -0.0739026 0)
(0 -0.0557563 0)
(0 -0.0739068 0)
(0 -0.0736747 0)
(0 -0.0737114 0)
(0 -0.0503595 0)
(0 -0.0345221 0)
(0 -0.0738591 0)
(0 -0.0691819 0)
(0 -0.00372922 0)
(0 -0.0734974 0)
(0 -0.0543465 0)
(0 -0.0721741 0)
(0 -0.0727791 0)
(0 -0.0737125 0)
(0 -0.0738986 0)
(0 -0.0739052 0)
(0 -0.0714216 0)
(0 -0.0737337 0)
(0 -0.0738953 0)
(0 -0.0739068 0)
(0 -0.0732443 0)
(0 -0.0738958 0)
(0 -0.0739068 0)
(0 -0.0733301 0)
(0 -0.0739025 0)
(0 -0.0717195 0)
(0 -0.0739057 0)
(0 -0.0739068 0)
(0 -0.0558232 0)
(0 -0.00370738 0)
(0 -0.0417458 0)
(0 -0.0685991 0)
(0 -0.0735151 0)
(0 -0.0597607 0)
(0 -0.0717726 0)
(0 -0.0737678 0)
(0 -0.0705904 0)
(0 -0.0735005 0)
(0 -0.0739068 0)
(0 -0.0732927 0)
(0 -0.0712185 0)
(0 -0.0739049 0)
(0 -0.0690909 0)
(0 -0.0739068 0)
(0 -0.071171 0)
(0 -0.0737813 0)
(0 -0.0553959 0)
(0 -0.0739068 0)
(0 -0.0739068 0)
(0 -0.0657835 0)
(0 -0.0689912 0)
(0 -0.0739051 0)
(0 -0.073237 0)
(0 -0.0739067 0)
(0 -0.0189628 0)
(0 -0.061147 0)
(0 -0.0739058 0)
(0 -0.0691038 0)
(0 -0.0737218 0)
(0 -0.0739066 0)
(0 -0.0518961 0)
(0 -0.073606 0)
(0 -0.0728697 0)
(0 -0.0359127 0)
(0 -0.00717134 0)
(0 -0.0739055 0)
(0 -0.0739068 0)
(0 -0.0677925 0)
(0 -0.0706706 0)
(0 -0.0655682 0)
(0 -0.072541 0)
(0 -0.0735739 0)
(0 -0.0739068 0)
(0 -0.0702964 0)
(0 -0.0739064 0)
(0 -0.0738973 0)
(0 -0.0738852 0)
(0 -0.0738943 0)
(0 -0.0689965 0)
(0 -0.0738271 0)
(0 -0.0738887 0)
(0 -0.0731826 0)
(0 -0.0502701 0)
(0 -0.0736435 0)
(0 -0.0739068 0)
(0 -0.0714783 0)
(0 -0.0737373 0)
(0 -0.073904 0)
(0 -0.0739066 0)
(0 -0.0738983 0)
(0 -0.0724832 0)
(0 -0.0684257 0)
(0 -0.0144321 0)
(0 -0.0522121 0)
(0 -0.0739068 0)
(0 -0.0736049 0)
(0 -0.0708891 0)
(0 -0.0692626 0)
(0 -0.0715802 0)
(0 -0.00652452 0)
(0 -0.0635142 0)
(0 -0.0585288 0)
(0 -0.0737229 0)
(0 -0.0732136 0)
(0 -0.073902 0)
(0 -0.0737386 0)
(0 -0.0739067 0)
(0 -0.0739067 0)
(0 -0.0732274 0)
(0 -0.0735528 0)
(0 -0.0304757 0)
(0 -0.0729401 0)
(0 -0.0739068 0)
(0 -0.0675297 0)
(0 -0.0714128 0)
(0 -0.0735602 0)
(0 -0.0738223 0)
(0 -0.0737917 0)
(0 -0.0739042 0)
(0 -0.0738855 0)
(0 -0.0623959 0)
(0 -0.0739068 0)
(0 -0.0344002 0)
(0 -0.0676642 0)
(0 -0.0737117 0)
(0 -0.00730826 0)
(0 -0.064108 0)
(0 -0.0738572 0)
(0 -0.0739015 0)
(0 -0.0612862 0)
(0 -0.0739035 0)
(0 -0.0671195 0)
(0 -0.0579697 0)
(0 -0.0712623 0)
(0 -0.0739065 0)
(0 -0.0728921 0)
(0 -0.0711025 0)
(0 -0.0739032 0)
(0 -0.0703508 0)
(0 -0.0738816 0)
(0 -0.0739064 0)
(0 -0.00270613 0)
(0 -0.0737524 0)
(0 -0.0197161 0)
(0 -0.0739068 0)
(0 -0.0737183 0)
(0 -0.0591679 0)
(0 -0.0739049 0)
(0 -0.0735956 0)
(0 -0.073849 0)
(0 -0.00499839 0)
(0 -0.0739068 0)
(0 -0.0731686 0)
(0 -0.0739003 0)
(0 -0.0692321 0)
(0 -0.0738361 0)
(0 -0.0739068 0)
(0 -0.058514 0)
(0 -0.0739053 0)
(0 -0.0663003 0)
(0 -0.0736744 0)
(0 -0.0737816 0)
(0 -0.0020382 0)
(0 -0.0739065 0)
(0 -0.0715546 0)
(0 -0.0738172 0)
(0 -0.0736324 0)
(0 -0.0738668 0)
(0 -0.0736166 0)
(0 -0.0736842 0)
(0 -0.0700655 0)
(0 -0.073904 0)
(0 -0.073337 0)
(0 -0.0739068 0)
(0 -0.07325 0)
(0 -0.0736689 0)
(0 -0.0648255 0)
(0 -0.0734946 0)
(0 -0.0637707 0)
(0 -0.0736803 0)
(0 -0.0739039 0)
(0 -0.0703374 0)
(0 -0.0562275 0)
(0 -0.0739068 0)
(0 -0.0696723 0)
(0 -0.0738967 0)
(0 -0.0689076 0)
(0 -0.0739038 0)
(0 -0.0738867 0)
(0 -0.0732798 0)
(0 -0.049856 0)
(0 -0.0495521 0)
(0 -0.0433243 0)
(0 -0.0214909 0)
(0 -0.0737977 0)
(0 -0.0737786 0)
(0 -0.0736304 0)
(0 -0.0723549 0)
(0 -0.0238137 0)
(0 -0.0738926 0)
(0 -0.0707575 0)
(0 -0.0732353 0)
(0 -0.0738936 0)
(0 -0.0625873 0)
(0 -0.0739064 0)
(0 -0.0735589 0)
(0 -0.0726357 0)
(0 -0.0739059 0)
(0 -0.0739068 0)
(0 -0.0738866 0)
(0 -0.0739033 0)
(0 -0.0738984 0)
(0 -0.055999 0)
(0 -0.0738894 0)
(0 -0.0739068 0)
(0 -0.0739003 0)
(0 -0.018892 0)
(0 -0.067671 0)
(0 -0.0738229 0)
(0 -0.073905 0)
(0 -0.0739068 0)
(0 -0.0738913 0)
(0 -0.0670126 0)
(0 -0.0737546 0)
(0 -0.0733589 0)
(0 -0.0739065 0)
(0 -0.0739068 0)
(0 -0.0733859 0)
(0 -0.073833 0)
(0 -0.071707 0)
(0 -0.073772 0)
(0 -0.0737759 0)
(0 -0.0202047 0)
(0 -0.0738015 0)
(0 -0.0739005 0)
(0 -0.0395071 0)
(0 -0.0738955 0)
(0 -0.00803521 0)
(0 -0.0646082 0)
(0 -0.0739068 0)
(0 -0.0739067 0)
(0 -0.028307 0)
(0 -0.0673814 0)
(0 -0.0690946 0)
(0 -0.0611294 0)
(0 -0.0736817 0)
(0 -0.073859 0)
(0 -0.069744 0)
(0 -0.0414795 0)
(0 -0.0262818 0)
(0 -0.0733292 0)
(0 -0.0727129 0)
(0 -0.0726713 0)
(0 -0.0738848 0)
(0 -0.0591858 0)
(0 -0.0739067 0)
(0 -0.0739067 0)
(0 -0.0739062 0)
(0 -0.073885 0)
(0 -0.0735867 0)
(0 -0.0738906 0)
(0 -0.0730778 0)
(0 -0.0739056 0)
(0 -0.0738932 0)
(0 -0.0738985 0)
(0 -0.0691948 0)
(0 -0.0739049 0)
(0 -0.0739067 0)
(0 -0.0207434 0)
(0 -0.0476727 0)
(0 -0.0737996 0)
(0 -0.0739065 0)
(0 -0.0739009 0)
(0 -0.0607782 0)
(0 -0.0656472 0)
(0 -0.0739067 0)
(0 -0.073901 0)
(0 -0.0738973 0)
(0 -0.0715497 0)
(0 -0.0719052 0)
(0 -0.0739064 0)
(0 -0.0679296 0)
(0 -0.0739066 0)
(0 -0.0739062 0)
(0 -0.0738918 0)
(0 -0.0738971 0)
(0 -0.0645999 0)
(0 -0.0567461 0)
(0 -0.0185631 0)
(0 -0.072729 0)
(0 -0.0739068 0)
(0 -0.0733387 0)
(0 -0.0718091 0)
(0 -0.0700557 0)
(0 -0.0738199 0)
(0 -0.0739068 0)
(0 -0.0733283 0)
(0 -0.0739011 0)
(0 -0.0739068 0)
(0 -0.0739068 0)
(0 -0.0739064 0)
(0 -0.0523108 0)
(0 -0.0179605 0)
(0 -0.0739035 0)
(0 -0.0359277 0)
(0 -0.0551212 0)
(0 -0.0710228 0)
(0 -0.0739068 0)
(0 -0.0732672 0)
(0 -0.0739059 0)
(0 -0.0738302 0)
(0 -0.0518761 0)
(0 -0.0739056 0)
(0 -0.0733679 0)
(0 -0.0617492 0)
(0 -0.0739067 0)
(0 -0.07389 0)
(0 -0.0724243 0)
(0 -0.0661186 0)
(0 -0.0739067 0)
(0 -0.0739065 0)
(0 -0.0297728 0)
(0 -0.0739014 0)
(0 -0.0738981 0)
(0 -0.0739057 0)
(0 -0.0738969 0)
(0 -0.0737846 0)
(0 -0.0610131 0)
(0 -0.0691534 0)
(0 -0.0738997 0)
(0 -0.0721294 0)
(0 -0.073903 0)
(0 -0.0734388 0)
(0 -0.0738965 0)
(0 -0.0738834 0)
(0 -0.0706337 0)
(0 -0.0731518 0)
(0 -0.0622014 0)
(0 -0.0703352 0)
(0 -0.0739064 0)
(0 -0.0739068 0)
(0 -0.0522221 0)
(0 -0.0739067 0)
(0 -0.0734107 0)
(0 -0.0659243 0)
(0 -0.0723232 0)
(0 -0.0506111 0)
(0 -0.0738506 0)
(0 -0.0689456 0)
(0 -0.0739066 0)
(0 -0.0737624 0)
(0 -0.0608603 0)
(0 -0.00930296 0)
(0 -0.0738633 0)
(0 -0.0739068 0)
(0 -0.0733236 0)
(0 -0.0717194 0)
(0 -0.0734569 0)
(0 -0.0633041 0)
(0 -0.0704106 0)
(0 -0.072419 0)
(0 -0.0739068 0)
(0 -0.0739068 0)
(0 -0.0739065 0)
(0 -0.0332422 0)
(0 -0.0173315 0)
(0 -0.069152 0)
(0 -0.0738289 0)
(0 -0.0487899 0)
(0 -0.0693095 0)
(0 -0.0738596 0)
(0 -0.0736327 0)
(0 -0.0738912 0)
(0 -0.0548515 0)
(0 -0.0739065 0)
(0 -0.0739068 0)
(0 -0.000671222 0)
(0 -0.0739068 0)
(0 -0.073818 0)
(0 -0.0732278 0)
(0 -0.0739065 0)
(0 -0.0686988 0)
(0 -0.0739063 0)
(0 -0.0732003 0)
(0 -0.0711203 0)
(0 -0.0718989 0)
(0 -0.0340879 0)
(0 -0.0738831 0)
(0 -0.00173182 0)
(0 -0.0689884 0)
(0 -0.0733404 0)
(0 -0.0739067 0)
(0 -0.0739067 0)
(0 -0.0093063 0)
(0 -0.00440877 0)
(0 -0.0710531 0)
(0 -0.065267 0)
(0 -0.073832 0)
(0 -0.0691548 0)
(0 -0.0737597 0)
(0 -0.0706868 0)
(0 -0.0739068 0)
(0 -0.068905 0)
(0 -0.0739059 0)
(0 -0.0374976 0)
(0 -0.0739056 0)
(0 -0.0686781 0)
(0 -0.0350487 0)
(0 -0.0739055 0)
(0 -0.0738994 0)
(0 -0.0738764 0)
(0 -0.0738912 0)
(0 -0.0737219 0)
(0 -0.0733619 0)
(0 -0.0575075 0)
(0 -0.0739068 0)
(0 -0.0529833 0)
(0 -0.0485496 0)
(0 -0.0738607 0)
(0 -0.0736542 0)
(0 -0.0739057 0)
(0 -0.0739067 0)
(0 -0.0738215 0)
(0 -0.0739019 0)
(0 -0.0738266 0)
(0 -0.0738896 0)
(0 -0.00847491 0)
(0 -0.0717759 0)
(0 -0.0725199 0)
(0 -0.0739066 0)
(0 -0.0723488 0)
(0 -0.0739066 0)
(0 -0.0739068 0)
(0 -0.0667905 0)
(0 -0.0636875 0)
(0 -0.0652197 0)
(0 -0.0738987 0)
(0 -0.0739065 0)
(0 -0.0704982 0)
(0 -0.0371027 0)
(0 -0.0725557 0)
(0 -0.0727422 0)
(0 -0.0733066 0)
(0 -0.0738804 0)
(0 -0.0738877 0)
(0 -0.0246036 0)
(0 -0.0739027 0)
(0 -0.0737664 0)
(0 -0.0739068 0)
(0 -0.0737237 0)
(0 -0.0710856 0)
(0 -0.0713098 0)
(0 -0.0739058 0)
(0 -0.0150904 0)
(0 -0.0737741 0)
(0 -0.0739045 0)
(0 -0.0703609 0)
(0 -0.0722389 0)
(0 -0.073861 0)
(0 -0.0738823 0)
(0 -0.0705386 0)
(0 -0.0739068 0)
(0 -0.0715906 0)
(0 -0.0738809 0)
(0 -0.0733015 0)
(0 -0.0732398 0)
(0 -0.0693217 0)
(0 -0.0739065 0)
(0 -0.0369339 0)
(0 -0.0738574 0)
(0 -0.0739061 0)
(0 -0.0739063 0)
(0 -0.0735463 0)
(0 -0.0737082 0)
(0 -0.0718785 0)
(0 -0.0737368 0)
(0 -0.00935905 0)
(0 -0.0739062 0)
(0 -0.0722531 0)
(0 -0.0648197 0)
(0 -0.0728607 0)
(0 -0.0256768 0)
(0 -0.00286258 0)
(0 -0.0739068 0)
(0 -0.0488676 0)
(0 -0.00226553 0)
(0 -0.0657572 0)
(0 -0.073836 0)
(0 -0.0680133 0)