/*--------------------------------*- C++ -*----------------------------------*\
| =========                 |                                                 |
| \\      /  F ield         | OpenFOAM: The Open Source CFD Toolbox           |
|  \\    /   O peration     | Version:  v2012                                 |
|   \\  /    A nd           | Website:  www.openfoam.com                      |
|    \\/     M anipulation  |                                                 |
\*---------------------------------------------------------------------------*/
FoamFile
{
    version     2.0;
    format      ascii;
    class       surfaceVectorField;
    location    "750";
    object      ddtCorrDdt0(Uf);
}
// * * * * * * * * * * * * * * * * * * * * * * * * * * * * * * * * * * * * * //

dimensions      [0 1 -2 0 0 0 0];


internalField   nonuniform List<vector> 
20673
(
(-4.52696e-05 -0.000350616 -2.39936e-19)
(-6.08218e-05 -0.000352601 -5.87322e-18)
(-5.66573e-05 -0.000336708 1.5769e-18)
(-1.25396e-05 -9.80095e-05 5.27217e-19)
(-1.01527e-05 -8.95448e-05 -5.30286e-19)
(-1.00057e-05 -9.68156e-05 3.8124e-19)
(0.00301433 -0.00234418 9.5336e-19)
(0.00344052 -0.00230139 3.26149e-18)
(0.00403369 -0.00266761 -4.68965e-18)
(-0.000217564 -9.00174e-05 7.8811e-18)
(-0.000206693 -8.9649e-05 1.10547e-18)
(-0.000207967 -8.3866e-05 2.791e-18)
(5.6949e-06 7.23123e-05 3.57562e-19)
(4.1899e-06 7.16309e-05 -1.91405e-18)
(4.90388e-06 6.17066e-05 -2.85822e-19)
(5.51339e-07 0.000254988 5.46422e-17)
(-1.2526e-05 0.000250921 1.0707e-16)
(-4.44857e-06 0.000270133 1.13246e-16)
(0.002866 -0.00324436 -1.52126e-18)
(0.00255274 -0.00314915 1.19344e-18)
(0.00389361 -0.00346541 8.21807e-18)
(0.00270551 -0.00125477 4.70983e-18)
(0.00226061 -0.0011299 -3.2896e-19)
(0.00227441 -0.00107383 -3.03596e-18)
(0.00101701 0.00386172 4.78091e-18)
(0.00137708 0.00378415 2.73093e-17)
(0.00154505 0.00368154 1.45451e-17)
(-3.715e-05 -0.000538631 5.34883e-18)
(-5.23633e-05 -0.000566396 1.21464e-17)
(-1.90934e-05 -0.00056745 -1.63339e-18)
(0.00143848 -0.00270632 -3.50303e-19)
(0.00126887 -0.00285453 9.61357e-18)
(0.001532 -0.00289104 2.04172e-18)
(-0.00057894 -0.00090886 -1.56223e-18)
(-0.000618649 -0.000978756 -1.11267e-17)
(-0.000515822 -0.00094848 -3.20915e-19)
(-0.000222494 -9.80977e-05 -3.51513e-19)
(-0.00433019 0.00036392 1.14807e-18)
(-0.00472792 0.00041227 6.2678e-18)
(-0.00421869 0.000327929 -1.14992e-17)
(5.4186e-05 -0.000126632 -7.74253e-19)
(5.55221e-05 -0.000120361 -2.83494e-18)
(5.08191e-05 -0.000117174 -1.75249e-18)
(4.00521e-05 -0.000152412 -2.49444e-18)
(3.93067e-05 -0.000143293 3.87244e-19)
(3.42972e-05 -0.000148491 1.91443e-18)
(-1.11404e-06 -8.32122e-05 4.59921e-19)
(-2.82247e-06 -8.87763e-05 1.22289e-19)
(-1.87916e-06 -7.87842e-05 -3.8964e-20)
(-0.000125124 0.00025421 4.03706e-18)
(-0.000158277 0.000250416 7.84514e-18)
(-0.000144046 0.000288899 -3.64972e-18)
(-0.000636793 -0.00086559 7.61326e-18)
(-0.000555893 -0.000849475 7.01618e-19)
(1.16937e-05 3.09155e-05 8.17638e-19)
(1.14328e-05 2.97426e-05 2.08541e-20)
(1.04096e-05 3.32984e-05 8.19513e-19)
(-3.36951e-07 -9.65596e-06 -2.11513e-19)
(-5.45143e-07 -7.78317e-06 1.32132e-18)
(-3.69609e-07 -9.45648e-06 1.51597e-18)
(0.00290654 -0.00336504 -1.99504e-18)
(0.00215663 -0.00318943 1.00464e-17)
(1.40919e-05 3.90759e-05 6.74745e-19)
(1.43154e-05 3.20986e-05 9.31264e-19)
(1.44831e-05 3.12809e-05 -6.97157e-20)
(0.00313817 -0.00163621 -1.4146e-17)
(0.00295622 -0.0014389 1.0968e-17)
(8.61645e-06 -8.2142e-05 3.17975e-19)
(8.83868e-06 -8.30651e-05 2.07364e-18)
(7.67849e-06 -8.29595e-05 1.05611e-18)
(0.00531987 -0.00413888 -9.38733e-18)
(0.0046027 -0.0039427 3.13412e-18)
(0.00435187 -0.00395079 -4.18592e-18)
(1.58008e-05 2.45008e-06 2.61887e-17)
(2.06027e-05 7.52679e-06 4.84125e-18)
(1.32402e-05 8.16579e-06 1.22145e-17)
(7.59378e-05 2.69629e-05 -6.37243e-18)
(8.46769e-05 2.99388e-05 -6.35422e-18)
(7.46389e-05 3.63442e-05 1.04892e-17)
(0.000329098 0.000290558 1.20256e-18)
(0.000358248 0.000287835 5.67263e-19)
(0.000351503 0.000324006 -8.01973e-19)
(-0.000694306 -0.000597224 -2.17591e-17)
(-0.000732932 -0.000540242 -4.82789e-18)
(-0.000777328 -0.000604484 -3.30026e-17)
(-0.000127889 -0.000346783 -1.40868e-18)
(-0.000110668 -0.000350411 -6.22278e-18)
(-0.000119981 -0.000331855 -8.31517e-18)
(-4.19079e-05 -0.00023838 1.59986e-18)
(-3.69374e-05 -0.000238342 -3.13786e-18)
(-4.15069e-05 -0.000233306 -3.01782e-18)
(4.94079e-05 -2.59116e-05 1.0091e-18)
(5.1008e-05 -2.07707e-05 1.1994e-17)
(4.31573e-05 -2.15549e-05 1.32742e-17)
(-2.64578e-07 -2.89625e-06 -5.18378e-18)
(-1.90731e-06 -6.53563e-07 -1.76378e-17)
(4.86542e-07 1.77827e-07 -9.46379e-18)
(7.02084e-06 -8.61282e-05 1.19559e-18)
(6.6084e-06 -8.92837e-05 1.44722e-18)
(7.11616e-06 -8.75092e-05 1.62992e-18)
(0.00117628 -0.006123 -7.93691e-18)
(0.00158696 -0.00596767 -8.98963e-18)
(0.0026275 -0.00637047 -1.56975e-18)
(1.31956e-05 4.60802e-05 8.96164e-19)
(1.30314e-05 4.43306e-05 -8.78506e-19)
(-0.00371628 0.00063402 8.67876e-18)
(-0.00394352 0.000575065 -5.16618e-18)
(-0.00394488 0.000532833 -6.09054e-18)
(-0.000257102 -0.000151381 1.1272e-18)
(-0.000268164 -0.000161523 -3.47918e-19)
(0.0105136 -0.00011164 -4.17858e-18)
(0.0107105 0.000125801 1.93519e-19)
(0.0107251 -6.58057e-05 -2.75569e-18)
(2.31335e-07 -3.44408e-07 1.23976e-19)
(6.84035e-08 -7.49819e-08 -2.99165e-19)
(2.95511e-06 8.02357e-08 3.08304e-20)
(-1.28383e-07 -7.81846e-06 -9.02761e-19)
(-1.94175e-07 -4.80601e-06 2.2928e-18)
(-1.22481e-07 -5.03907e-06 2.40941e-19)
(-2.61206e-05 7.0365e-06 4.59651e-19)
(-2.6108e-05 6.00136e-06 -1.24716e-18)
(-2.48488e-05 6.49494e-06 7.41201e-20)
(0.000114053 9.29731e-05 1.71987e-17)
(0.000123708 8.40914e-05 -1.21997e-17)
(0.00012805 9.94431e-05 -3.76285e-17)
(-5.57739e-05 -9.66713e-05 1.72968e-18)
(-5.67723e-05 -9.8335e-05 -3.43261e-18)
(-5.85844e-05 -9.35219e-05 -5.49856e-19)
(1.11075e-05 -1.7388e-05 -3.25253e-18)
(9.54884e-06 -1.63396e-05 -8.18592e-18)
(9.19894e-06 -1.41416e-05 1.0504e-18)
(-8.72295e-05 0.00026448 -1.14532e-17)
(-0.000104219 0.000226167 -8.01755e-18)
(0.000464052 0.000431382 9.08066e-18)
(0.000408546 0.000401656 1.80303e-18)
(0.000470254 0.000371616 -2.6408e-18)
(1.24387e-05 0.000332564 8.31468e-18)
(5.57103e-06 0.000338742 1.86574e-17)
(1.50588e-05 0.000339234 -3.94019e-17)
(1.25796e-05 -8.75643e-07 -3.14658e-19)
(1.22363e-05 -1.22498e-06 -1.82143e-19)
(1.13059e-05 -2.13647e-06 -8.54327e-20)
(-8.00305e-05 -5.71177e-05 -4.372e-18)
(-7.9818e-05 -5.54658e-05 -6.9039e-18)
(-7.8138e-05 -5.6936e-05 5.98968e-19)
(3.95734e-06 1.14996e-05 3.73225e-18)
(2.55842e-06 1.42407e-05 2.67176e-18)
(5.50147e-06 1.64e-05 7.26537e-19)
(1.40388e-05 0.000330374 1.47687e-17)
(8.27861e-06 0.000349694 6.19966e-17)
(2.03187e-06 -5.37051e-06 -4.23049e-18)
(-1.1475e-06 -6.05194e-06 2.03879e-17)
(-4.59656e-07 -8.69422e-05 -2.07885e-19)
(8.7075e-07 -7.67527e-05 6.11723e-20)
(-9.88716e-05 -7.46421e-05 -9.33668e-18)
(-9.93191e-05 -8.11227e-05 5.69657e-18)
(-0.000102876 -7.69269e-05 -1.26965e-17)
(0.00161504 -0.00255304 4.85748e-18)
(0.00138637 -0.00250872 -4.58021e-18)
(6.45317e-06 -5.39504e-06 5.0995e-19)
(5.48817e-06 -1.08642e-05 -1.11633e-18)
(5.60964e-06 -7.08798e-06 -2.6534e-18)
(-8.58142e-05 -0.000114609 5.04395e-18)
(-8.76332e-05 -0.000114909 2.5023e-18)
(-8.52808e-05 -0.000122515 5.32262e-18)
(-5.32385e-05 -9.97588e-05 6.25546e-19)
(-5.44954e-05 -9.49849e-05 6.72722e-20)
(0.00715044 -0.000241394 -8.38738e-18)
(0.006084 -0.000166011 1.97714e-17)
(0.00669581 -0.000234594 3.71729e-18)
(-1.39773e-05 -0.000102981 3.93051e-19)
(-1.43431e-05 -0.000108853 9.39543e-19)
(-0.00439834 0.000439301 -2.51597e-18)
(1.19929e-05 3.15597e-05 -9.21954e-19)
(1.29665e-05 2.63667e-05 -9.42762e-19)
(3.58524e-06 0.000238546 -2.72435e-17)
(-1.11826e-05 0.000239623 -8.0913e-17)
(0.00297536 0.00100348 -1.42028e-17)
(0.00334405 0.000484083 3.24763e-18)
(0.0034744 0.00108169 6.02693e-19)
(-9.31364e-07 6.78664e-05 2.95789e-18)
(-7.16393e-07 5.65723e-05 1.52098e-18)
(-1.33986e-06 -8.55207e-05 2.79765e-18)
(-6.6971e-07 -8.06912e-05 -6.9513e-19)
(0.00234672 0.00107312 -7.5686e-18)
(0.00244025 0.000927078 1.628e-17)
(0.00252598 0.00115044 1.33833e-17)
(2.97458e-05 -0.000307359 1.87615e-18)
(2.97411e-05 -0.000319756 4.47237e-18)
(4.73806e-05 -0.000309332 2.99757e-18)
(4.94841e-06 8.06031e-05 -1.40331e-18)
(5.3086e-06 7.15631e-05 -2.81075e-18)
(0.000521374 0.00402408 4.62783e-18)
(0.00068333 0.00393399 1.2597e-17)
(0.00431936 0.00126102 -1.55435e-17)
(0.00442123 0.00144603 -6.13089e-18)
(0.00459267 0.0013587 1.42567e-17)
(7.9495e-06 -8.17147e-05 -1.06814e-18)
(8.64264e-06 -7.86394e-05 -1.14412e-18)
(9.71732e-06 0.000341167 2.88222e-17)
(1.48168e-05 0.000337308 2.70337e-17)
(1.11904e-05 0.000346316 -9.25049e-17)
(-0.00124057 -0.000528388 -1.68787e-19)
(-0.00114302 -0.000476135 -6.23763e-18)
(-0.00111768 -0.000577946 8.04843e-18)
(0.000599104 0.000962136 7.6562e-18)
(0.000850183 0.00119697 9.24091e-18)
(0.00044428 0.00103211 -2.5664e-18)
(-7.72679e-05 -7.69148e-05 5.08413e-18)
(-7.80476e-05 -7.73788e-05 -2.76506e-18)
(-7.637e-05 -8.33637e-05 1.85361e-18)
(0.00618439 -0.00359848 1.51267e-20)
(0.0062417 -0.00361984 1.34297e-18)
(0.0066875 -0.00357241 -4.86737e-18)
(-5.16313e-07 1.79139e-07 -3.74906e-19)
(-4.55656e-07 6.65437e-06 1.98964e-19)
(-6.24353e-07 6.46186e-06 3.68513e-19)
(-5.97936e-08 2.00413e-05 7.43485e-19)
(1.91124e-07 2.73117e-05 2.51507e-18)
(-1.43439e-08 1.80581e-05 -3.51183e-20)
(-5.76284e-07 7.72704e-05 1.53099e-18)
(2.26796e-05 0.000240095 7.77049e-18)
(3.22177e-05 0.000243023 1.97382e-17)
(3.01832e-05 0.000220944 -1.63552e-17)
(-0.0034044 0.000675893 1.32552e-17)
(-0.00342519 0.000763364 6.69714e-18)
(-0.000374507 0.000446315 -7.72275e-19)
(-0.000674413 0.000437175 1.38981e-17)
(-0.000581245 0.000402164 6.00683e-17)
(-7.66252e-05 -7.68492e-05 1.42305e-18)
(-7.86718e-05 -7.17252e-05 -5.27598e-19)
(3.29037e-06 4.29833e-05 4.77028e-19)
(3.03899e-06 4.19196e-05 -1.57483e-18)
(2.04542e-06 3.58244e-05 9.17478e-20)
(0.00318105 0.00123286 -1.7272e-17)
(-0.000392933 0.000723755 1.21532e-17)
(-8.16048e-05 -5.88763e-05 -4.06451e-18)
(-8.19363e-05 -5.5993e-05 -9.05647e-19)
(-2.62322e-05 7.22708e-06 2.27157e-18)
(-2.7384e-05 7.30113e-06 9.50355e-19)
(0.00187073 0.00198593 -2.59175e-17)
(0.00170104 0.00176647 2.28402e-17)
(0.00152419 0.00183872 -2.05265e-17)
(-0.000302659 -0.000719595 -7.26033e-18)
(-0.000268526 -0.000682918 7.18304e-18)
(-0.000243155 -0.000725192 1.03497e-17)
(-1.90766e-05 -8.10843e-05 -1.23833e-18)
(-2.01655e-05 -8.28301e-05 4.62637e-19)
(-1.74309e-05 -7.68099e-05 -2.80046e-19)
(2.6803e-05 -1.77829e-05 -1.49185e-18)
(2.84966e-05 -2.00125e-05 -3.3542e-18)
(2.85206e-05 -2.4793e-05 1.92343e-20)
(0.000536719 -0.00028859 -4.67191e-18)
(0.00570212 0.00146411 -4.13201e-18)
(-2.73831e-05 0.000256302 2.35893e-17)
(-2.94063e-05 0.000233791 2.19994e-17)
(-3.95856e-05 0.000250108 5.03866e-17)
(0.00174012 -0.000740842 -1.29023e-18)
(0.00180481 -0.000630015 -1.41105e-17)
(0.00190116 -0.000781998 9.60016e-19)
(0.000239387 0.000376709 2.29502e-17)
(0.00022834 0.000430438 4.31335e-18)
(0.000184713 0.00039533 5.4035e-18)
(-0.00218487 -0.00173456 -3.95734e-18)
(-0.00241796 -0.00181924 -3.09964e-18)
(-0.00236134 -0.00158557 -1.49577e-17)
(5.14126e-05 0.000145567 2.62038e-17)
(4.74597e-05 0.000126313 -1.80671e-17)
(6.44753e-05 0.000133792 -5.71326e-17)
(-4.36857e-07 8.65717e-07 -3.62173e-19)
(-7.35649e-07 -1.03924e-06 3.8054e-19)
(-8.84372e-07 3.90152e-08 5.94204e-20)
(-2.33168e-06 -1.9093e-05 1.04275e-17)
(-2.15364e-08 -2.29133e-05 1.91906e-17)
(-5.10811e-06 -2.13957e-05 1.34013e-17)
(0.000102633 9.96857e-05 2.4333e-17)
(0.000103566 8.86201e-05 1.53032e-17)
(-8.8527e-05 -5.22008e-05 -6.41157e-18)
(-9.01341e-05 -5.18598e-05 -1.25248e-18)
(-9.03552e-05 -4.78189e-05 -2.89503e-18)
(-6.70102e-06 -3.02101e-05 2.36563e-20)
(-6.97279e-06 -3.10469e-05 6.7443e-19)
(-7.88485e-06 -3.54912e-05 -1.66462e-18)
(0.00146266 0.00377136 3.45652e-18)
(0.00165278 0.00369213 6.23774e-18)
(0.00103722 0.00385298 -9.6201e-20)
(0.000380849 0.000193438 -3.40681e-18)
(0.00036461 0.000225041 -1.11079e-17)
(0.000407782 0.00021483 -1.07148e-17)
(0.000530248 0.000457184 -1.38997e-17)
(0.000455311 0.000511665 4.74522e-18)
(-4.79513e-06 -9.4664e-05 -4.78392e-20)
(-4.49214e-06 -9.96324e-05 -1.63019e-21)
(-8.71597e-05 -0.000386955 -5.08346e-18)
(-6.89458e-05 -0.00038635 -1.23745e-17)
(-7.4105e-05 -0.000404915 -4.64096e-18)
(0.00387514 -0.00083448 -2.77073e-18)
(0.00393129 -0.000666159 2.35109e-18)
(0.00409629 -0.000708372 1.17586e-17)
(0.0101483 -0.000365886 5.59324e-18)
(0.0102418 -0.000172333 5.09957e-18)
(-0.000870775 -0.00131937 -2.54057e-18)
(-0.00095945 -0.00128642 -8.79091e-18)
(-0.000960091 -0.00140333 -1.68087e-17)
(0.00138147 0.00384879 -5.95738e-18)
(0.00193926 0.00369291 -9.59098e-18)
(4.64743e-06 2.99949e-05 -1.88944e-18)
(4.99506e-06 2.86638e-05 5.176e-18)
(4.8461e-06 2.87568e-05 -2.23623e-18)
(-4.00008e-05 0.000388994 4.1189e-17)
(-3.27374e-05 0.000385468 1.54482e-17)
(-2.91276e-05 0.000383952 1.06464e-17)
(1.10584e-05 -6.16746e-05 -9.12687e-19)
(9.41158e-06 -6.63814e-05 -2.31938e-18)
(1.02938e-05 -6.43793e-05 -2.66037e-18)
(1.05422e-05 0.000328651 4.17552e-17)
(6.58253e-06 0.000319783 -3.65978e-17)
(1.07375e-05 0.000318053 -1.31385e-17)
(-0.000481826 -0.000466533 -1.3126e-18)
(-0.000203028 -0.000593008 1.69426e-17)
(-0.000505587 -0.000768461 2.32648e-17)
(6.99004e-06 -5.12109e-06 8.22256e-18)
(9.21863e-06 -8.70632e-06 5.34014e-18)
(9.4815e-06 -5.16018e-06 1.04722e-17)
(-6.59023e-07 -8.46502e-06 5.32813e-19)
(-4.56256e-07 -9.097e-06 -2.48169e-18)
(0.00225874 0.00125166 1.51337e-18)
(0.00218184 0.00104286 1.55463e-19)
(-0.00282967 -0.000288106 -4.49243e-18)
(-0.00275407 -0.000488008 -7.37568e-18)
(-0.0029587 -0.000408155 6.71912e-19)
(6.72722e-05 2.41186e-05 1.86359e-17)
(7.55384e-05 1.79841e-05 -1.45747e-17)
(7.71145e-06 -2.32385e-06 -1.25292e-19)
(5.65739e-06 -3.71891e-06 -7.446e-20)
(6.48059e-06 -1.87e-06 -9.14941e-21)
(2.54261e-05 -1.06827e-05 3.59331e-19)
(2.35496e-05 -1.52036e-05 -2.88002e-18)
(-4.40347e-05 -0.00011569 -1.48953e-18)
(-4.47866e-05 -0.000117782 -9.9677e-19)
(-4.25532e-05 -0.000118066 -2.72167e-18)
(8.71411e-06 -2.41038e-06 1.34414e-19)
(9.70879e-06 -1.16932e-06 -8.41592e-20)
(-2.19202e-05 -2.36841e-06 -3.61885e-19)
(-2.18529e-05 -7.52277e-07 -5.99914e-19)
(-2.1283e-05 -1.94246e-06 7.333e-19)
(-1.90449e-05 0.000270882 -2.71787e-17)
(-0.00151203 -0.00153404 7.65828e-19)
(-0.00173902 -0.00141098 -6.74851e-19)
(-0.00162766 -0.00132045 1.40972e-17)
(2.38927e-06 3.06636e-05 -4.32142e-18)
(4.40468e-06 2.96014e-05 6.82429e-20)
(-5.77834e-05 -9.96705e-05 1.62941e-18)
(-5.56012e-05 -0.000103224 -1.74464e-18)
(-3.21218e-07 -9.64511e-06 -3.3595e-19)
(-3.41443e-07 -8.4834e-06 -2.61898e-18)
(0.00172391 0.000852092 1.50041e-17)
(0.000355067 0.00214046 -3.28319e-17)
(0.00302044 0.00216963 -1.01329e-17)
(0.00347759 -0.00200779 -6.41085e-18)
(0.00334656 -0.00184799 -7.81576e-18)
(-3.27228e-05 -0.000363176 -1.32126e-17)
(-3.13526e-05 -0.000347907 -5.48592e-18)
(6.20292e-05 0.000157364 7.57539e-17)
(4.65168e-05 0.000158752 -1.71731e-17)
(3.92483e-07 5.63588e-05 8.57255e-19)
(-3.56568e-07 4.31728e-05 2.63037e-18)
(4.56697e-06 -5.30344e-06 -9.35761e-18)
(5.06865e-06 -1.70856e-06 -8.97158e-18)
(0.00182274 -0.00519628 -3.21676e-18)
(0.00143096 -0.00526788 5.80915e-18)
(0.00162167 -0.00477909 -2.75451e-18)
(-3.55392e-05 -6.25889e-05 5.2192e-19)
(-3.43596e-05 -6.62388e-05 5.6653e-20)
(-3.29063e-05 -6.43567e-05 2.71436e-19)
(1.22047e-05 2.21335e-05 3.33928e-19)
(1.08271e-05 2.61743e-05 -1.62124e-17)
(9.6703e-06 2.13231e-05 -1.57674e-17)
(0.000100116 0.000113664 -1.54735e-17)
(0.00010211 0.000131733 -5.60621e-18)
(0.000114378 0.000122362 2.86756e-17)
(-1.04187e-06 -8.57953e-05 2.74265e-18)
(-9.84634e-07 -8.80354e-05 1.53532e-18)
(-0.000843558 0.00425044 2.05778e-18)
(-0.000369646 0.00411564 -4.53538e-18)
(-0.00064584 0.00434469 -2.13612e-17)
(0.000429238 0.000308192 -8.38986e-19)
(0.000421505 0.000267281 -6.46338e-19)
(0.000385385 0.000282063 -8.52175e-19)
(4.71241e-06 8.16889e-06 -2.52867e-18)
(3.27794e-06 4.23081e-06 -1.76103e-18)
(-3.37552e-05 -5.18888e-05 -1.37804e-18)
(-3.31534e-05 -5.57665e-05 9.1608e-19)
(-3.15825e-05 -5.41614e-05 -6.59583e-19)
(-2.44405e-05 -0.000248512 -2.64647e-18)
(-1.78627e-05 -0.000246794 -3.69085e-18)
(-1.66293e-05 -0.000255041 -2.62522e-18)
(0.000386465 -0.00029898 -1.72151e-18)
(0.000440905 -0.000306041 -8.14229e-18)
(0.000394582 -0.000247351 2.50368e-18)
(-2.95306e-05 0.000383833 1.10624e-17)
(-3.70349e-05 0.00038222 6.68712e-18)
(0.000497908 -0.00129461 6.48544e-19)
(0.000607016 -0.00131103 -8.01038e-18)
(0.000507573 -0.00140114 -6.56038e-18)
(0.000154823 -0.000265901 -3.1861e-19)
(0.000142714 -0.000270211 -3.06892e-18)
(0.000153323 -0.000282554 -2.16532e-18)
(-9.58937e-05 -0.000163764 5.69079e-18)
(-9.06963e-05 -0.00017243 3.08893e-18)
(-9.12444e-05 -0.00016367 1.19558e-17)
(8.14875e-05 0.000659814 -3.01007e-18)
(5.23541e-05 0.00066598 1.7577e-17)
(-5.5546e-06 0.000655951 1.16241e-17)
(3.82026e-05 -0.000300745 5.92668e-19)
(2.61289e-05 -0.000298054 3.33916e-18)
(0.00127793 -0.000811719 1.01981e-17)
(0.00192952 -0.000567901 8.20897e-18)
(0.00238695 -0.00111696 7.70431e-18)
(0.000492286 0.000745832 -1.05822e-17)
(0.000811486 0.00093343 -7.2023e-18)
(0.000144872 6.30656e-05 1.40866e-17)
(0.00377758 0.00019202 4.4377e-18)
(2.6209e-05 -7.40431e-06 9.34101e-19)
(2.73334e-05 -1.10651e-05 2.68232e-18)
(2.51447e-05 -6.27682e-06 5.44348e-19)
(-2.89937e-05 1.56347e-06 -2.71469e-18)
(-1.84302e-05 5.8685e-06 2.37696e-17)
(-3.15065e-05 7.87275e-06 3.27014e-17)
(-7.6807e-07 5.81952e-06 -8.21153e-20)
(-6.81726e-07 5.39237e-06 -5.81629e-19)
(-3.42176e-07 -8.31398e-07 2.01833e-19)
(0.00167779 -0.000889375 -6.84399e-18)
(0.00159193 -0.000730539 -4.66863e-18)
(-0.000755055 -0.00136139 1.20947e-17)
(-0.000777129 -0.00123932 1.28169e-17)
(-0.00204847 -0.00165057 1.76234e-18)
(-0.00203237 -0.00182735 6.35106e-18)
(-8.66694e-05 -5.59208e-05 -6.579e-18)
(-8.66076e-05 -5.19637e-05 -8.6963e-19)
(0.00041752 7.65564e-05 2.03894e-18)
(0.000438289 3.31071e-05 -7.03241e-18)
(0.000475205 8.04708e-05 5.7379e-18)
(-4.61515e-05 -9.15401e-05 3.87476e-18)
(-4.71784e-05 -9.29718e-05 7.4827e-19)
(-4.47633e-05 -9.57525e-05 2.65255e-18)
(-6.78047e-06 -1.81156e-05 -4.18387e-18)
(-9.04889e-07 -1.73338e-05 -8.78153e-18)
(0.000134701 -0.000314782 -3.57667e-18)
(0.000135079 -0.000300173 2.78706e-18)
(0.000122662 -0.000309577 -7.32702e-18)
(0.00205121 -0.000202055 -7.76809e-18)
(0.00220566 -7.70392e-05 -9.54344e-18)
(0.0021848 -0.000262626 1.5463e-17)
(-0.00125808 -0.00120748 -3.92035e-18)
(-0.00132645 -0.00130152 8.58379e-18)
(-0.00118986 -0.00130615 8.29023e-18)
(1.14628e-06 -0.000104314 -5.65048e-19)
(2.34523e-06 -0.000109724 -8.21522e-20)
(3.87075e-06 -9.96555e-05 1.74044e-19)
(-0.00147813 0.00352974 6.47852e-18)
(-0.00148138 0.00363229 -5.80899e-18)
(-0.00154263 0.00357798 -8.77104e-18)
(0.000192217 -0.000251744 2.20692e-18)
(0.000203382 -0.000243853 1.97109e-18)
(0.000203736 -0.000259915 -4.70397e-19)
(-0.00122067 -0.00165264 -1.2309e-17)
(-0.00127184 -0.00175349 -5.92005e-18)
(7.32232e-06 0.000331216 9.42306e-18)
(9.99989e-06 0.000333853 -1.17188e-18)
(-0.00104569 0.00415126 2.38068e-18)
(-0.0010187 0.00440553 -1.80516e-18)
(-2.11468e-06 -6.13098e-06 5.15799e-20)
(-2.71536e-06 -9.63266e-06 4.15006e-20)
(-2.29699e-06 -6.5784e-06 7.67239e-20)
(-0.000343732 -0.000757251 -3.8952e-19)
(-0.000359409 -0.000706359 -2.86983e-18)
(-0.000139087 -0.000362771 7.76797e-19)
(-0.000148766 -0.000342859 -6.8631e-18)
(-3.7872e-05 -6.003e-05 1.08159e-19)
(-3.6303e-05 -5.8601e-05 -1.26509e-18)
(3.81586e-06 4.49201e-05 5.1722e-19)
(5.19059e-06 4.7773e-05 -1.14596e-19)
(8.64602e-05 -0.00010909 5.6959e-18)
(8.24872e-05 -0.000102235 8.39559e-18)
(8.12339e-05 -0.000108417 9.17664e-18)
(0.00645507 -0.00434415 -6.50948e-18)
(0.00621559 -0.00433309 5.07324e-19)
(-0.000340916 -0.00171372 8.93056e-18)
(-0.000327824 -0.00182628 6.81943e-18)
(-0.000218663 -0.00176585 -9.11572e-18)
(0.000125357 0.00070835 -4.83997e-18)
(0.000330243 0.000702486 9.25256e-18)
(-0.000156874 -1.03955e-05 -2.96601e-18)
(-0.000162965 -2.25204e-05 2.92649e-19)
(-0.000168972 -9.22452e-06 8.52003e-18)
(-0.0010189 -0.00232557 2.3906e-18)
(-0.00111429 -0.00226935 3.28522e-18)
(-0.00111871 -0.00243604 -4.8486e-19)
(0.004422 -0.00327857 -1.10997e-17)
(0.00483666 -0.00338897 -4.26422e-18)
(0.00494731 -0.00325569 -5.91231e-18)
(-9.88321e-06 0.000471953 -1.80355e-17)
(-8.90339e-05 0.000539843 -2.80363e-17)
(0.000194612 -0.00148793 -1.50847e-17)
(0.000127967 -0.001532 8.10245e-18)
(0.000199757 -0.00158123 -3.43314e-18)
(1.30948e-05 4.83261e-05 -5.36835e-18)
(1.28484e-05 5.43153e-05 -1.07433e-18)
(1.20858e-05 5.71777e-05 1.04529e-18)
(7.82726e-06 0.000150221 -1.51469e-17)
(2.21573e-05 0.000151137 4.69507e-17)
(1.29603e-05 0.000161563 -2.64249e-17)
(1.44743e-05 -2.70932e-06 2.48393e-19)
(2.13035e-05 -1.22814e-06 4.6933e-18)
(2.35617e-06 -1.32571e-06 -3.42783e-19)
(3.41316e-06 -1.13599e-06 5.92299e-19)
(-1.77872e-05 -7.92368e-05 -8.18463e-19)
(-2.04419e-05 -8.64868e-05 -5.28846e-19)
(0.000408736 0.000137187 1.10816e-18)
(0.000390454 0.00011559 -5.90959e-18)
(0.000419834 0.000107139 -3.74356e-18)
(0.00164963 0.00258979 -1.95206e-17)
(-0.00190937 0.00057743 1.38556e-18)
(0.00399686 -0.00156967 -7.08291e-18)
(-0.00012713 -0.000122623 -1.01575e-17)
(-0.000128521 -0.000130808 4.3491e-18)
(-0.000121328 -0.00012237 -6.60056e-18)
(1.26697e-05 -7.13617e-07 -1.89704e-19)
(1.32489e-05 -4.89105e-08 1.91593e-19)
(0.000396918 -9.91172e-05 4.54114e-18)
(0.00034721 -9.56385e-05 -1.62592e-18)
(0.000385198 -4.26902e-05 4.54026e-19)
(0.00037743 -0.000355945 8.28593e-18)
(0.000339303 -0.000297153 6.03798e-18)
(0.00403146 0.00112681 -4.09786e-18)
(0.00423804 0.00106696 -2.57695e-17)
(-0.000806677 0.00412354 -9.69159e-18)
(-0.000959917 0.00449752 7.76476e-18)
(-0.0017244 0.00415956 -3.19242e-17)
(7.33703e-06 -8.28599e-05 -2.10888e-18)
(6.80275e-06 -8.4522e-05 -6.29832e-18)
(6.78743e-06 -4.80706e-06 2.04601e-18)
(7.0277e-06 -1.14881e-06 -1.5118e-18)
(0.000245279 0.000322854 9.69262e-19)
(0.00029347 0.000348878 -5.00229e-18)
(0.00483106 -0.00386142 -3.3844e-18)
(0.00621404 -0.00411747 -3.62848e-18)
(0.00563912 -0.00396056 -1.22482e-17)
(1.01554e-05 2.01242e-05 1.05155e-17)
(1.11276e-05 2.025e-05 4.28326e-18)
(0.00232243 -0.00300775 3.65375e-18)
(0.00197165 -0.00283954 -5.20073e-18)
(0.00327655 -0.00311887 -1.52025e-18)
(0.00401449 0.000760542 9.92764e-18)
(0.0041381 0.000910372 3.60375e-19)
(0.00382882 0.000770596 -1.03044e-17)
(-0.000919733 -0.00222681 -1.7018e-18)
(-0.00086603 -0.00239652 3.25012e-18)
(-6.49406e-06 -2.4928e-05 -1.3515e-19)
(-7.00541e-06 -2.83915e-05 1.1835e-19)
(0.000150172 0.000284724 -1.25854e-17)
(0.00016509 0.000283949 -6.41259e-18)
(0.000155901 0.000303477 1.47679e-17)
(0.000240764 0.000181634 1.78147e-17)
(0.000246563 0.000225703 1.56077e-17)
(0.00020304 0.000206636 -1.97241e-18)
(0.0052241 2.48176e-05 -7.73207e-17)
(0.00512419 -5.85319e-05 2.65292e-17)
(0.00527635 2.37715e-06 -8.78505e-18)
(2.74923e-06 -5.67635e-05 -3.89506e-19)
(1.82881e-06 -5.13043e-05 -1.42458e-19)
(1.68594e-06 -5.31382e-05 1.79304e-19)
(0.00778229 -0.000125705 -1.07823e-18)
(0.00756333 -0.00043832 -2.7695e-18)
(-2.20112e-06 -2.56923e-06 -1.15312e-19)
(-2.61455e-06 -5.35995e-06 1.61056e-21)
(-0.00084815 -0.000258534 -1.24241e-17)
(-0.00081074 -0.000207963 8.09959e-18)
(-0.000785212 -0.000265344 2.64897e-18)
(-6.60248e-07 -5.22096e-07 1.75662e-19)
(5.96128e-07 -3.81095e-07 3.50261e-20)
(-0.0027213 0.00128661 1.49148e-18)
(-0.00300346 0.00114411 -7.7291e-18)
(-0.00297176 0.0011299 -1.26949e-18)
(0.00181158 0.00360279 -1.50985e-17)
(0.00198158 0.00348972 -2.80646e-18)
(0.00140419 0.00364267 4.05209e-18)
(4.28715e-05 -0.00015657 -5.2286e-20)
(3.98721e-05 -0.000161346 -3.13594e-18)
(0.000946117 -4.20979e-06 -2.20089e-17)
(0.00127531 0.00049774 -3.02986e-17)
(0.00138462 -4.58331e-05 -1.37378e-17)
(-9.94753e-05 -0.000163301 3.82564e-18)
(-9.96408e-05 -0.000155972 -3.96392e-18)
(-5.34381e-06 -1.83956e-05 2.95322e-19)
(-5.44625e-06 -1.95059e-05 -1.37624e-18)
(0.000643464 -0.00581853 -5.81953e-18)
(0.000898835 -0.00626769 -7.75427e-18)
(-0.00132133 -0.00110147 -1.40756e-18)
(-0.00119881 -0.00110641 -2.51095e-18)
(-0.000146628 -1.24828e-05 -6.55684e-18)
(-0.000149543 1.05048e-06 -6.10899e-19)
(0.00405474 -0.00239975 -9.05767e-18)
(0.00380646 -0.00238739 -8.52675e-18)
(0.00448997 -0.0027441 -1.78108e-17)
(0.00417146 0.000664546 -2.77432e-18)
(0.00401261 0.000602832 2.17972e-18)
(3.48407e-08 -5.94377e-06 2.59916e-20)
(-8.64974e-07 -8.0266e-06 -4.0617e-19)
(-3.94608e-07 -6.1999e-06 -6.17676e-19)
(-4.88686e-05 -0.000237321 5.30528e-18)
(-4.26627e-05 -0.000245148 7.94504e-18)
(0.0022136 0.0021801 1.53267e-17)
(0.00201905 0.00225502 2.07683e-18)
(-0.000594315 0.000695854 1.13332e-17)
(-0.000687457 0.000641859 5.69981e-18)
(-0.000545959 0.000704263 -1.24142e-19)
(-1.04614e-06 6.17337e-06 8.05854e-19)
(-4.76584e-07 1.34089e-05 -4.42971e-19)
(2.79771e-06 -3.25603e-05 -8.51803e-20)
(1.58366e-06 -2.94094e-05 2.8313e-19)
(2.51526e-06 -3.24115e-05 -1.85028e-19)
(0.0120108 8.10167e-05 -7.68988e-19)
(0.011844 -4.79933e-05 -4.12346e-19)
(0.00214486 -0.000313469 2.04747e-17)
(0.00210135 -0.000472394 -4.79141e-18)
(0.00228154 -0.00043836 -8.85087e-19)
(-4.18641e-07 -6.21436e-07 -3.811e-19)
(-2.24164e-07 -6.9842e-07 1.07804e-18)
(-4.02848e-07 -8.32855e-07 -3.15391e-19)
(-0.000838672 -0.00538476 3.27074e-18)
(-0.0012494 -0.00526294 -8.36611e-19)
(-0.000565766 -0.00499353 3.64212e-18)
(-0.000542021 0.000809486 4.39478e-18)
(-0.000472697 0.000869589 5.52631e-20)
(-0.000459712 0.000764228 5.89733e-18)
(-2.59338e-05 -5.24631e-06 -1.70997e-17)
(-3.50746e-05 -3.73778e-06 -9.46484e-18)
(-7.79128e-05 -0.000299001 -3.64427e-18)
(-7.88425e-05 -0.000312974 -2.49889e-18)
(-9.16315e-05 -0.00029763 9.94479e-18)
(2.4299e-07 1.22028e-05 -3.28036e-19)
(-1.023e-06 3.85633e-06 3.39353e-19)
(0.000208745 -0.000191698 -9.94217e-19)
(0.00019323 -0.000196797 9.08302e-19)
(0.000199228 -0.000180541 4.80424e-18)
(0.00292391 0.000868625 2.38758e-17)
(0.00270055 0.000864266 1.05072e-17)
(0.00277073 0.000640511 6.04198e-17)
(-8.71883e-05 -6.64056e-06 5.92536e-20)
(-8.91562e-05 -9.30573e-06 2.24041e-18)
(-9.03244e-05 -8.41773e-06 -2.22827e-18)
(-0.000252169 -0.000973085 7.97223e-19)
(-0.000199984 -0.000930085 1.15922e-17)
(-0.000276276 -0.000910502 2.22578e-17)
(6.98039e-05 0.000166062 3.74716e-17)
(8.26113e-05 0.000165308 4.73034e-19)
(7.68823e-05 0.000179033 -2.32151e-17)
(-4.26584e-05 -0.000112973 1.82012e-19)
(-4.56137e-05 -0.000111549 1.18574e-18)
(4.9962e-06 -1.63536e-05 1.58554e-19)
(5.38626e-06 -1.47994e-05 3.86761e-19)
(0.000207927 -0.000970028 2.76331e-18)
(0.000277715 -0.00101649 -2.83477e-18)
(0.000190672 -0.00105136 -2.99325e-18)
(0.0107501 -0.000461873 -1.75948e-18)
(0.0110911 -0.000308299 -1.61643e-18)
(0.0108577 -0.000377586 7.37117e-18)
(0.000391105 -0.00128583 8.27767e-18)
(0.000489 -0.00119815 -1.20869e-18)
(8.93385e-05 -0.000116409 -5.33364e-18)
(9.10605e-05 -0.00011056 1.03819e-17)
(5.21315e-05 -0.000132275 5.71781e-18)
(5.71487e-05 -0.000135265 2.87766e-18)
(-3.70852e-07 -1.554e-06 2.49745e-19)
(-3.83337e-07 -1.35468e-06 1.8378e-19)
(-1.94081e-07 -1.30901e-06 3.10139e-19)
(-0.00287852 -0.000120949 5.5344e-20)
(-0.00267807 -0.000166235 2.22206e-18)
(0.00463251 7.02108e-05 1.67181e-17)
(0.00457952 0.00035603 -5.52515e-18)
(0.00484667 8.98919e-05 -3.95413e-18)
(-0.00432889 -0.00476808 2.34119e-18)
(-0.00383862 -0.00492668 -9.9426e-18)
(-0.00347095 -0.00496738 -1.55124e-18)
(-4.74463e-06 -1.29711e-05 4.61329e-19)
(-5.24771e-06 -1.78131e-05 -1.46699e-19)
(0.0059211 0.000645739 -2.79562e-18)
(0.00598684 0.000720619 1.07347e-17)
(0.00601795 0.000633853 1.00762e-17)
(-0.00441433 0.000739869 9.82628e-19)
(-0.00434817 0.000246032 -9.89579e-18)
(-0.00423846 0.000668381 -2.72742e-17)
(0.000549145 -0.000548752 -3.83624e-18)
(0.00102345 -0.000948826 -5.31476e-18)
(0.00679185 -0.00371977 -1.20896e-19)
(0.00628065 -0.00294624 -4.09912e-18)
(-0.0013202 -0.00061785 9.54852e-19)
(-0.00136425 -0.000496487 5.54915e-19)
(1.06107e-07 2.02748e-05 6.08501e-19)
(2.80617e-06 -1.89817e-06 -2.76299e-20)
(3.17547e-06 -2.56531e-06 1.60869e-20)
(1.10774e-06 -2.96808e-06 -2.56446e-20)
(-5.67722e-05 0.00026844 1.97314e-18)
(-4.1378e-05 0.000238758 -4.94915e-18)
(-2.12619e-05 0.00027133 6.51864e-18)
(-0.0019436 0.00136789 5.2302e-18)
(-0.00231432 0.00110685 -1.61904e-17)
(-0.00204731 0.00125236 1.35235e-17)
(0.000778931 0.00127915 6.07666e-18)
(0.000660677 0.00133602 1.5705e-17)
(0.000806115 0.0014245 8.92204e-18)
(-8.38813e-05 -0.000114912 -9.67878e-20)
(-8.61458e-05 -0.000108532 -2.97971e-18)
(-0.000585444 0.00391081 -5.71603e-18)
(-3.66313e-05 0.00405026 8.43978e-18)
(-0.000439772 -0.000424618 -4.94428e-18)
(-0.000429774 -0.000411339 -1.59269e-19)
(-2.03623e-05 -9.94595e-07 1.81034e-18)
(-2.06326e-05 -1.27259e-06 1.54511e-18)
(-2.02773e-05 -1.1001e-07 5.00673e-19)
(0.00935357 -0.00134897 2.36571e-17)
(0.0092001 -0.00136843 4.6994e-18)
(0.00896305 -0.00155931 5.61166e-17)
(1.3218e-05 1.90069e-05 -1.20535e-19)
(1.30387e-05 1.83326e-05 -4.9041e-19)
(1.22985e-05 2.30118e-05 -1.51958e-18)
(-0.00144235 0.0034292 9.50202e-18)
(-0.00117094 0.00351461 8.17163e-18)
(-0.000126834 -0.00011338 -2.00347e-18)
(-0.000133116 -0.000121151 -3.41526e-19)
(-4.82247e-07 -4.6844e-07 -2.18975e-20)
(-5.9625e-07 -3.96818e-07 -4.5295e-20)
(5.08503e-05 -0.000188739 -1.2764e-19)
(5.57628e-05 -0.000192598 -2.34602e-18)
(5.30536e-05 -0.00018255 -1.4802e-18)
(0.000168168 -0.000265527 1.39673e-18)
(0.000158097 -0.000253539 2.49122e-18)
(-5.31024e-06 8.0069e-06 -4.074e-18)
(-6.77662e-06 1.20524e-06 6.70883e-18)
(-0.000824983 -0.00585615 -8.66706e-18)
(-0.000461548 -0.00545917 2.60711e-18)
(9.52123e-05 -0.000213319 -4.3159e-19)
(0.000103986 -0.000218361 -1.0543e-18)
(0.00010138 -0.000205845 2.66918e-18)
(-8.39388e-05 -8.74075e-06 1.63373e-18)
(-8.43505e-05 -1.08437e-05 -2.76801e-18)
(-8.23677e-05 -9.49853e-06 -3.66655e-19)
(-0.00425694 0.00025568 5.74388e-18)
(-0.00420028 0.000134729 2.79006e-17)
(-0.00472513 0.000107729 7.7385e-18)