/*--------------------------------*- C++ -*----------------------------------*\
| =========                 |                                                 |
| \\      /  F ield         | OpenFOAM: The Open Source CFD Toolbox           |
|  \\    /   O peration     | Version:  v2012                                 |
|   \\  /    A nd           | Website:  www.openfoam.com                      |
|    \\/     M anipulation  |                                                 |
\*---------------------------------------------------------------------------*/
FoamFile
{
    version     2.0;
    format      ascii;
    class       surfaceVectorField;
    location    "750";
    object      ddtCorrDdt0(Uf);
}
// * * * * * * * * * * * * * * * * * * * * * * * * * * * * * * * * * * * * * //

dimensions      [0 1 -2 0 0 0 0];


internalField   nonuniform List<vector> 
20537
(
(0.000789053 -0.000279775 -3.35129e-20)
(0.000774805 -0.000456108 4.91584e-20)
(0.000989779 -0.000376024 4.673e-20)
(0.0127193 -0.129467 -7.41508e-19)
(0.0461587 -0.117624 -8.64791e-19)
(0.0245112 -0.135169 1.82906e-18)
(-0.00927201 0.000891899 -1.66122e-18)
(-0.00944694 0.00190243 1.54448e-18)
(-0.0105058 0.00146673 1.47735e-18)
(0.000453561 -0.000518828 2.8745e-21)
(0.000630219 -0.000536779 2.75373e-20)
(0.000463718 -0.000675461 -1.89479e-20)
(-0.00109029 -0.00403232 3.13976e-18)
(-0.00157357 -0.00424127 -2.53419e-18)
(-0.00148169 -0.00370476 -2.32719e-18)
(-0.0274376 -0.0286245 2.20524e-18)
(-0.0211408 -0.029674 -2.21265e-18)
(-0.0233852 -0.023919 -2.85059e-19)
(-4.33639e-05 -7.10798e-05 2.35277e-18)
(-4.47573e-05 -7.27278e-05 -1.04111e-18)
(-4.16302e-05 -7.50452e-05 6.18738e-19)
(-0.00291345 0.001871 6.20014e-18)
(-0.00268026 0.00162744 -2.19075e-18)
(-0.00307996 0.0014676 2.3719e-18)
(2.09194e-05 1.85486e-05 -6.81368e-21)
(2.25601e-05 1.78731e-05 -4.97765e-20)
(2.07928e-05 1.70333e-05 -3.10326e-20)
(-0.00270316 0.0200711 -3.08666e-18)
(-0.000383469 0.0186394 -3.2629e-18)
(-0.00287682 0.017486 -6.8626e-19)
(0.00832898 0.0840233 7.57259e-19)
(0.0020823 0.092013 -1.64577e-19)
(-0.000642925 0.0847026 -3.52785e-19)
(-0.0936617 0.0998674 1.32793e-18)
(-0.0982466 0.101145 3.60438e-18)
(-0.0917757 0.10587 2.19841e-18)
(0.00956404 -0.00248442 5.75201e-18)
(0.00881546 -0.00327998 -4.66724e-18)
(0.00837813 -0.00126515 -1.39155e-17)
(-0.0868245 -0.117025 8.23059e-18)
(-0.0876504 -0.138866 -7.25157e-19)
(-0.0694453 -0.133422 -9.46236e-18)
(-3.19304e-05 -3.6489e-06 -1.79245e-18)
(-3.12618e-05 -4.56408e-06 8.02709e-19)
(-3.18882e-05 -5.01925e-06 -2.13005e-18)
(0.00174958 0.00111577 1.99724e-18)
(0.00151692 0.00132998 -2.35414e-19)
(0.00187869 0.00145367 8.72856e-19)
(-8.95019e-05 0.000272083 2.58881e-18)
(-5.80259e-05 0.000251767 -1.57114e-18)
(-9.65237e-05 0.000238379 -3.03759e-19)
(-0.00286164 0.00144055 5.19789e-21)
(-0.00267657 0.000965135 5.48602e-20)
(-0.00324591 0.00113879 -3.47332e-20)
(0.0111341 -0.0111536 3.43161e-18)
(0.0109859 -0.0134331 -9.73486e-18)
(0.0106727 -0.0120219 -3.3337e-18)
(1.93822e-05 1.88248e-05 -3.53229e-22)
(2.08857e-05 1.90289e-05 1.9459e-21)
(0.000282587 -0.000510027 1.11752e-19)
(0.000417129 -0.000388135 -1.49503e-19)
(-0.00817557 0.000189935 5.14936e-20)
(-0.00918504 -0.000431885 -4.05043e-19)
(-6.32974e-06 -1.25851e-06 -5.96963e-20)
(-8.07113e-06 -1.96963e-06 2.82275e-21)
(-7.14295e-06 -2.69873e-06 -9.29732e-20)
(8.79683e-06 1.69177e-06 2.39308e-19)
(3.74232e-06 1.15917e-06 5.33994e-20)
(1.01135e-05 1.55352e-06 7.30662e-20)
(-4.88282e-06 -7.09407e-07 -6.42523e-20)
(-4.57826e-06 -4.88579e-07 5.5483e-20)
(-0.00278154 0.00227141 -4.33359e-19)
(-0.00330249 0.00217646 2.15756e-18)
(-0.000252238 -9.14253e-05 3.97075e-18)
(-0.00023665 -9.33895e-05 -1.23063e-18)
(-0.000243945 -7.38152e-05 -1.79119e-18)
(-0.0048912 0.0126975 -3.64575e-18)
(-0.0133119 0.0192486 8.40711e-18)
(0.000658924 -0.000204213 2.5897e-19)
(0.000823991 -0.000101221 -1.40788e-20)
(-0.000531048 -0.000312638 3.24472e-19)
(-0.00047913 -0.000385789 -6.43708e-19)
(-0.000596009 -0.000372486 -1.46166e-19)
(-0.0330439 -0.0255074 1.59282e-18)
(-0.0271985 -0.0338682 4.29692e-18)
(-7.69144e-05 0.000319609 2.29926e-18)
(-0.000125238 0.000295566 -4.30781e-19)
(-0.00846354 0.00247017 1.13374e-18)
(-0.00948 0.00329973 2.39357e-18)
(0.01082 -0.122424 -2.39972e-18)
(0.0199384 -0.104809 1.20502e-18)
(0.0118498 -0.127058 -4.93185e-20)
(7.28007e-06 1.70137e-06 -1.45567e-19)
(1.03121e-05 2.90412e-06 -2.08512e-20)
(-0.00159156 0.00181304 5.18694e-18)
(-0.00179313 0.00167391 -3.11378e-18)
(-0.00158203 0.00204379 -3.9614e-18)
(0.000622225 0.00398468 -2.07298e-17)
(-0.00159717 0.00400735 2.80221e-18)
(-0.00201405 0.00367312 -1.0426e-17)
(-0.0123822 -0.0208356 -2.31132e-19)
(-0.00965791 -0.0223294 1.03773e-19)
(-0.0104687 -0.0183637 2.26483e-18)
(-0.00257525 0.0221978 4.15914e-19)
(-0.00516411 0.0208473 4.33228e-19)
(0.00484519 -0.118677 2.87034e-19)
(-0.00292958 -0.136446 -3.93354e-18)
(-1.05585e-05 5.2065e-05 3.83462e-19)
(-7.85216e-06 5.00774e-05 -1.98571e-19)
(-8.77152e-06 5.54115e-05 6.54219e-19)
(-1.80979e-05 -2.22363e-05 -3.44973e-20)
(-1.80569e-05 -1.99647e-05 -9.2892e-21)
(-1.84791e-05 -2.15266e-05 -2.44337e-21)
(0.0166668 0.0206172 1.00767e-18)
(0.0201158 0.0188583 -5.45973e-18)
(0.0131236 0.0128128 -5.02676e-18)
(-0.00647368 0.103183 -3.37927e-18)
(-0.0100334 0.089819 5.67194e-19)
(-0.00757422 0.0963957 1.29102e-18)
(-0.00210761 0.107959 -1.09143e-18)
(-0.00484785 0.108289 -3.80361e-19)
(0.0516908 0.0785232 8.21294e-18)
(0.038821 0.0844883 2.96874e-18)
(0.0485802 0.0511071 -3.78801e-18)
(0.000886906 0.0780579 -2.06944e-18)
(-0.00262048 0.0916243 1.90832e-18)
(-8.86272e-05 0.0939913 1.99953e-18)
(0.0410708 0.0001179 9.41956e-19)
(0.0136068 0.0662078 8.44109e-19)
(0.0268161 0.00261585 -1.11373e-18)
(-0.000266363 -8.81492e-05 1.84857e-18)
(-0.000259695 -0.000108796 1.11632e-17)
(-0.0254049 0.00677878 -5.47674e-19)
(-0.0208156 0.00743101 -5.0446e-19)
(-0.0236249 0.00101031 8.87716e-19)
(0.000315707 -0.00120307 5.26212e-18)
(0.000462214 -0.00113191 -1.03624e-18)
(0.00027843 -0.001058 3.12062e-18)
(0.00388272 -0.00176698 1.63663e-18)
(0.00353613 -0.00157798 6.88623e-18)
(0.00395729 -0.00113665 9.65823e-18)
(-0.00425959 0.072682 2.38294e-18)
(-0.00151605 0.0718557 -6.49102e-18)
(-0.00455439 0.070165 -2.20183e-18)
(-3.17081e-05 -1.86825e-06 1.27275e-18)
(-3.27243e-05 -1.2066e-06 -1.51314e-18)
(-3.11635e-05 -1.58923e-06 -2.48233e-18)
(-1.8168e-05 4.02916e-06 5.62632e-19)
(-1.97925e-05 3.61656e-06 -2.05675e-19)
(-1.92825e-05 5.50497e-06 -2.09628e-19)
(-1.77978e-05 -2.40755e-05 -8.62559e-21)
(-1.76964e-05 -2.24337e-05 -1.49181e-20)
(9.12398e-06 1.15499e-06 -1.33273e-19)
(9.35682e-06 1.63728e-06 2.0323e-20)
(8.34205e-06 1.31345e-06 -2.28526e-20)
(-0.0247248 0.0719889 -4.30188e-18)
(-0.0284445 0.0746592 -6.57332e-18)
(-0.0305772 0.0695132 -8.55725e-18)
(-0.000466383 -0.000253923 -6.41176e-19)
(-0.000568843 -0.000222948 2.60561e-19)
(-6.14275e-05 -5.11178e-05 2.8168e-18)
(-5.91456e-05 -5.09996e-05 6.29426e-19)
(-5.91296e-05 -5.80579e-05 -1.06703e-18)
(-0.0138547 -0.0242047 -1.13409e-18)
(-0.0158089 -0.0198414 -1.71439e-18)
(0.0269444 -0.056836 -3.05369e-19)
(0.0302083 -0.0517981 -3.12768e-18)
(0.0331032 -0.0587583 -5.39315e-19)
(-0.00919679 0.0215335 3.0509e-19)
(-0.00542821 0.0247425 -2.28202e-21)
(-0.00562729 0.0195352 -1.86192e-19)
(0.000161765 -0.00447832 1.95295e-18)
(-0.000303505 -0.00475184 3.54639e-18)
(0.000270928 -0.00503092 3.65934e-19)
(0.0111648 -0.0602472 4.33974e-18)
(0.00187648 -0.0582105 1.6249e-18)
(0.00841027 -0.0506443 2.46889e-18)
(0.00164154 -0.00130771 -2.4755e-20)
(0.00127803 -0.00136193 -4.66442e-20)
(0.00145702 -0.00174748 2.1554e-19)
(0.00250649 0.00401387 -8.17287e-18)
(0.00243091 0.00374324 5.11458e-18)
(0.00787377 0.0473918 -1.17381e-18)
(0.00436604 0.0638642 -7.87895e-19)
(-0.000691991 -0.000452243 -1.15955e-18)
(-0.000734159 -0.000423383 -2.65089e-18)
(-0.000687536 -0.000398092 4.76563e-18)
(-0.00240904 0.00168883 -2.31409e-20)
(-0.00285303 0.00208011 1.48342e-19)
(0.012015 0.000486577 1.79751e-18)
(0.0120821 0.000362474 1.30055e-17)
(0.0116335 0.000330937 1.74488e-17)
(0.00464978 0.00288297 -2.79036e-18)
(0.00490086 0.00258367 -1.49861e-18)
(0.00399234 0.00293023 1.46089e-18)
(-0.025524 -0.142315 8.88544e-18)
(-0.00396772 -0.123919 4.98676e-18)
(-3.19237e-05 -2.67547e-06 1.08999e-18)
(-3.11488e-05 -2.42617e-06 1.89879e-18)
(-1.36472e-05 4.96273e-06 9.2565e-20)
(-1.47676e-05 6.39967e-06 8.86549e-19)
(-1.35577e-05 5.9114e-06 -2.6445e-19)
(6.92625e-05 8.87765e-06 -3.64806e-20)
(6.65035e-05 -4.70002e-07 1.55897e-20)
(5.83643e-05 7.32683e-06 4.27306e-20)
(-0.00757203 -0.000220423 5.86631e-19)
(-0.0075038 0.000561909 8.61695e-20)
(0.0018403 0.00191354 -3.79764e-18)
(0.00215921 0.00262863 7.41315e-18)
(0.000997589 0.00212469 4.68924e-18)
(-0.00159887 -0.00085023 -1.07037e-19)
(-0.00157793 -0.00102751 3.7749e-18)
(-0.00175826 -0.000960543 -8.97142e-18)
(0.0125489 0.000229778 -7.32638e-18)
(0.0125742 0.00020196 -3.28083e-18)
(-8.3396e-05 -3.2947e-05 6.47444e-19)
(-8.12466e-05 -2.68525e-05 1.69881e-18)
(-7.98877e-05 -3.56541e-05 4.76438e-19)
(0.00257735 -0.0866331 -3.1746e-19)
(0.0037749 -0.0829625 -2.55409e-19)
(0.00455846 -0.0791934 -1.47931e-19)
(-4.20562e-05 8.83925e-06 1.5895e-18)
(-4.30509e-05 9.00212e-06 -1.6982e-18)
(-4.14571e-05 7.11264e-06 -2.55345e-18)
(0.0276806 0.109087 -7.21388e-19)
(-0.00214989 0.104233 -2.58404e-19)
(0.036632 0.0930643 6.81484e-19)
(-0.0117957 0.0184829 -1.54717e-18)
(-0.0138939 0.0232757 -1.76885e-19)
(-0.0852535 0.0963227 -2.15966e-18)
(-0.0853755 0.0921859 5.18075e-19)
(-0.0214121 -0.0075742 -3.45821e-20)
(-0.0229023 -0.0119642 1.39441e-19)
(-0.0171309 -0.0101058 -4.60566e-19)
(0.0543987 0.0190545 5.52672e-19)
(0.0520779 0.00257448 -4.47644e-18)
(0.0405062 0.0179196 2.63767e-19)
(-0.000302511 0.000101985 -1.90478e-19)
(-0.00029498 0.000137744 1.41529e-18)
(-0.000331798 0.000121558 7.26052e-20)
(0.000135687 0.00030199 -5.50092e-20)
(0.000101712 0.000232413 -8.33443e-20)
(0.000201944 0.000236745 1.88288e-19)
(-0.00141344 0.00166281 2.93452e-18)
(-0.00135882 0.00199747 8.25577e-18)
(0.0101855 0.00146913 -2.6086e-19)
(0.0122275 0.00272075 -3.68841e-19)
(0.0119022 -9.70921e-06 5.51999e-20)
(0.00522363 0.0299252 9.22035e-19)
(-0.000497449 0.000101882 -3.88895e-18)
(-0.000522461 0.000129736 -8.29866e-19)
(-0.000537866 7.48014e-05 -3.85299e-18)
(-0.000281956 8.05753e-05 5.64651e-18)
(-0.000315477 6.03261e-05 7.79052e-19)
(4.75553e-06 8.23323e-07 -9.93889e-20)
(4.52438e-06 6.28213e-07 1.32162e-19)
(6.09505e-06 9.93326e-07 5.73076e-20)
(-0.000743613 -0.00442968 4.61252e-18)
(-0.000641178 -0.00390219 4.9927e-18)
(0.0225355 0.0111391 5.43559e-18)
(0.0251163 0.0129374 -3.45164e-18)
(0.0215352 0.0139474 8.23287e-18)
(-0.0300779 0.00527516 -3.31886e-19)
(-0.0269021 0.0135438 4.83136e-20)
(1.8218e-06 4.10498e-07 -6.35218e-20)
(5.0745e-06 8.11834e-07 -1.38822e-20)
(-0.0645825 0.0445945 2.64568e-18)
(-0.0736384 0.03981 -1.80529e-18)
(-0.070176 0.0309231 1.46839e-17)
(-0.000855901 -0.00124425 3.8039e-18)
(-0.000748035 -0.00119436 -5.17282e-18)
(-0.000846538 -0.00112591 -5.27796e-18)
(5.98053e-05 0.000236413 6.72873e-19)
(4.40519e-05 0.000268988 3.66384e-21)
(8.95062e-05 0.000267917 1.33525e-19)
(-0.000157544 -0.000236967 1.34902e-18)
(-0.000160901 -0.000249021 -7.47426e-18)
(-2.32536e-05 -1.23268e-06 1.9734e-20)
(-2.69739e-05 -1.80482e-06 -2.90894e-21)
(-2.45963e-05 -9.39866e-07 -1.19058e-20)
(-0.0270012 0.00103507 1.027e-18)
(-0.0273918 0.00769865 8.53333e-19)
(-0.022293 0.00487256 -1.46083e-19)
(-0.000454525 -0.00122453 3.66872e-18)
(-0.000528745 -0.00129781 -3.96044e-18)
(-0.000392386 -0.00133956 -5.88119e-18)
(-2.69178e-05 -1.96857e-05 -4.5886e-21)
(-2.58806e-05 -2.08668e-05 -1.50037e-20)
(-2.75484e-05 -1.8498e-05 5.7693e-21)
(0.00600523 0.00185386 4.57789e-18)
(0.00641867 0.00146657 3.01423e-18)
(-0.0173702 -0.0359674 -1.44245e-18)
(-0.0136832 -0.0290411 -1.39042e-18)
(7.83992e-06 -5.85609e-07 2.59175e-20)
(3.2001e-06 -2.05467e-07 -6.13644e-21)
(7.2865e-06 -6.08089e-07 -6.96287e-21)
(0.000213805 0.000405795 -7.81558e-20)
(6.39153e-05 0.000369466 -2.74217e-22)
(0.00856258 0.000378297 -3.83798e-19)
(0.00862932 0.00241348 -1.82655e-19)
(-7.63939e-07 6.12602e-07 1.08679e-20)
(-3.28596e-07 3.3132e-07 6.75502e-20)
(1.01324e-05 -1.02138e-06 1.35359e-20)
(8.18356e-06 -4.34191e-07 1.02217e-19)
(-0.0204408 -0.12218 1.18648e-18)
(0.0224002 -0.0858611 -9.60521e-19)
(0.0203059 0.00933356 -2.03503e-18)
(0.0231976 0.00816343 4.58906e-19)
(-1.98465e-05 -1.3896e-05 -3.65484e-20)
(-1.91481e-05 -1.42453e-05 2.11304e-20)
(-2.03423e-05 -1.55971e-05 -7.79435e-20)
(-8.70723e-07 2.92518e-06 2.24527e-19)
(2.80027e-07 2.61329e-06 2.10897e-19)
(-8.30243e-06 1.68217e-06 3.92979e-19)
(-1.45437e-05 3.88726e-06 5.97085e-19)
(-1.58607e-05 2.64836e-06 3.04916e-19)
(-1.83833e-05 2.8185e-06 3.888e-19)
(0.0180169 0.0269893 -1.62817e-18)
(0.010689 0.0186987 7.57741e-18)
(-0.000172763 -0.000226449 7.52129e-19)
(-0.000154927 -0.000221623 -3.48472e-19)
(0.0106617 -0.00394924 1.53534e-18)
(0.0109197 -0.00207218 1.43496e-17)
(0.0255505 -0.0394726 -1.42154e-18)
(0.0606695 -0.0396047 1.24023e-18)
(0.0535674 -0.000241263 1.25538e-18)
(0.000906879 0.001682 -6.1709e-20)
(0.000989364 0.00119689 1.59632e-20)
(0.00136107 0.00161103 -7.8806e-20)
(0.0655611 -0.0627609 3.96872e-19)
(0.0623706 -0.0683262 2.70111e-19)
(-0.001272 -0.0011067 -6.90713e-19)
(-0.00114199 -0.00113645 4.0614e-18)
(-0.00124646 -0.00125945 -4.34441e-18)
(0.000191245 -0.000472127 1.42024e-19)
(0.000152947 -0.000591817 5.26139e-21)
(-0.000182233 -0.0108636 4.12103e-18)
(2.26998e-05 -0.0098909 1.02367e-18)
(0.000933022 -0.0107232 1.23626e-18)
(-1.15816e-05 4.88198e-05 -6.08273e-19)
(-1.31723e-05 5.27778e-05 8.8797e-20)
(8.87473e-06 -2.36856e-06 -3.73583e-20)
(9.40556e-06 -8.64031e-07 1.13536e-19)
(8.97592e-06 1.02104e-07 -5.85801e-20)
(0.0119468 0.000499081 -2.4563e-18)
(0.0119321 0.000543369 -4.40148e-18)
(-4.23139e-05 1.00187e-05 3.02691e-18)
(-4.09941e-05 8.57995e-06 2.01658e-18)
(-0.0357534 -0.159046 -9.94354e-19)
(7.01003e-06 2.63459e-06 -2.86043e-20)
(7.16609e-06 1.37929e-06 -1.81577e-19)
(7.11053e-06 1.96027e-06 1.39272e-19)
(-2.08454e-05 -1.33986e-05 -5.61621e-21)
(-1.91198e-05 -1.173e-05 1.28017e-20)
(0.00433684 0.00320982 -3.88474e-18)
(0.00399603 0.00354859 5.0096e-18)
(0.00341215 0.00359543 1.24234e-17)
(0.0141801 -0.148044 3.34358e-18)
(-0.00273813 -0.153645 4.22369e-19)
(-0.00717016 -0.15273 -6.84489e-19)
(0.0219267 -0.0585585 -9.96316e-19)
(0.0374778 -0.0464413 -2.79692e-19)
(0.0316445 -0.0535223 -3.65774e-18)
(-0.0614382 0.0532112 1.63303e-18)
(-0.0538883 0.0441269 -3.02011e-18)
(-1.56211e-05 3.88284e-06 2.53662e-19)
(-1.97284e-05 3.13882e-06 5.25791e-19)
(0.00103226 0.000821377 -5.00481e-20)
(0.00105427 0.00117167 -1.2557e-19)
(0.00137624 0.000939444 2.19356e-20)
(-4.41938e-05 -6.44612e-05 1.03919e-19)
(-2.68427e-05 -6.24207e-05 2.43913e-20)
(-3.2851e-05 -8.41411e-05 3.41764e-21)
(1.03903e-06 2.71128e-05 3.21866e-19)
(1.47085e-05 4.12571e-05 5.67813e-19)
(-9.14474e-06 4.29355e-05 1.21747e-18)
(-0.0100885 0.0808048 -3.04179e-19)
(-0.0143961 0.0728866 2.12906e-18)
(0.00031976 -0.00734587 -3.50067e-19)
(-0.00153214 -0.00650683 -7.83944e-20)
(3.70919e-05 -0.00562928 1.77919e-19)
(-0.000518694 -0.0124979 1.8234e-18)
(-0.00179187 -0.0111144 -7.04123e-19)
(-4.1592e-05 -6.87054e-05 -2.03665e-18)
(-4.52299e-05 -6.60456e-05 1.0549e-18)
(0.00195676 0.102831 -4.34214e-19)
(-5.08867e-05 0.104865 7.69829e-20)
(-0.00065995 -0.000462829 -3.77029e-18)
(-0.000663582 -0.000380938 5.2239e-18)
(-1.39025e-05 2.10731e-06 -4.28123e-19)
(-1.24005e-05 2.17863e-06 3.32178e-19)
(-1.26581e-05 3.32757e-06 -4.88641e-21)
(-0.0792522 -0.0934928 -1.36954e-18)
(-0.09967 -0.103918 6.38991e-18)
(8.76469e-06 7.53116e-07 -1.32616e-19)
(9.6646e-06 7.9853e-07 2.94979e-20)
(-0.000121952 2.61747e-05 7.27824e-19)
(-0.000129488 2.02158e-05 -1.24145e-18)
(-0.000124081 1.20495e-05 -7.80304e-19)
(9.58064e-06 5.84402e-06 -2.43842e-18)
(-1.13749e-05 1.24079e-05 -3.52649e-18)
(1.77535e-05 4.00341e-05 4.07515e-20)
(1.66731e-05 3.89871e-05 3.61933e-20)
(2.02984e-05 4.00684e-05 1.94287e-20)
(-0.000267297 -0.000190569 5.73624e-19)
(-0.000242161 -0.000157804 9.95836e-19)
(-0.000225479 -0.000185633 1.29852e-18)
(0.00442959 -0.00185573 2.39986e-18)
(0.00391804 -0.00222889 -6.01031e-18)
(0.000166521 -0.00127805 -6.28675e-18)
(0.000318909 -0.00139068 -2.88833e-18)
(-4.20911e-05 -6.10098e-05 -8.51843e-21)
(-4.33352e-05 -4.73235e-05 2.20731e-20)
(-5.60044e-05 -4.92777e-05 -5.05727e-21)
(-0.000438429 -0.000201805 1.07237e-18)
(-0.000461883 -0.000198943 -1.46804e-18)
(-0.000453341 -0.000232106 -1.1999e-18)
(-0.0222943 0.0693382 -2.16087e-18)
(-0.0196509 0.0743274 -3.33678e-18)
(8.43691e-06 -3.50883e-06 -8.65098e-20)
(8.8734e-06 -4.28997e-06 6.6192e-20)
(6.7638e-06 -0.0018177 1.30109e-19)
(0.000282776 -0.00156386 -8.91056e-19)
(-1.75304e-05 -0.00148227 3.17966e-19)
(-2.89252e-05 -1.3586e-05 -1.07153e-19)
(-2.92385e-05 -1.66733e-05 -1.52073e-20)
(-2.46256e-05 -1.36947e-05 -7.72132e-21)
(0.00228612 -0.00809549 2.42816e-19)
(0.000279548 -0.00962639 -1.70732e-19)
(-0.000687271 -0.000504436 -5.08247e-18)
(-0.000650645 -0.00047399 -6.14006e-19)
(0.000215542 -0.000370602 1.50805e-19)
(9.86878e-05 -0.000437552 3.70814e-20)
(0.0494557 0.0198538 3.37688e-18)
(0.0515005 0.0280622 1.81418e-18)
(0.0431723 0.0271627 -3.78193e-18)
(0.00104557 0.00113671 -6.55323e-18)
(0.00252446 0.00164087 -4.94611e-18)
(9.50067e-06 -7.99362e-06 2.58502e-20)
(1.03347e-05 -9.45923e-06 -8.65986e-22)
(1.00156e-05 -8.23302e-06 4.41855e-21)
(1.82564e-05 4.07424e-05 1.71174e-19)
(1.4525e-05 3.86981e-05 3.00994e-20)
(0.0066565 -0.071187 4.16352e-18)
(0.0123135 -0.0625306 1.93974e-19)
(7.8366e-06 -4.19153e-06 -1.97127e-19)
(8.0547e-06 -2.75138e-06 -4.21412e-21)
(-0.0127517 0.1302 2.12738e-18)
(-0.00387252 0.120861 3.34989e-18)
(-0.00143309 -0.00107442 5.63516e-18)
(-0.00131115 -0.000964998 2.31689e-18)
(-0.000161917 0.00122927 -2.66117e-20)
(-0.000388827 0.00116281 2.70323e-20)
(-0.000388436 0.00149356 3.29968e-19)
(0.0110322 -0.0101151 1.15753e-17)
(0.0110824 -0.0091562 6.23167e-18)
(-2.57343e-05 -2.16647e-05 5.74628e-21)
(-2.70553e-05 -1.99121e-05 7.26331e-21)
(-2.45966e-05 -2.30521e-05 2.83016e-20)
(-0.00010621 0.00039436 -1.08985e-18)
(-6.71155e-05 0.000366079 -1.56755e-18)
(-5.14008e-05 0.000421772 6.398e-19)
(0.00496279 0.00281404 -1.28344e-18)
(-4.15448e-05 9.96854e-06 -9.11009e-19)
(-4.06062e-05 9.38751e-06 -5.02461e-19)
(-4.0156e-05 9.1463e-06 -1.26549e-18)
(-0.0100451 -0.000803918 1.53888e-18)
(-0.00893527 -0.00134473 4.24681e-18)
(-3.54304e-05 2.23838e-07 9.08078e-21)
(-3.54821e-05 1.8297e-07 1.58748e-20)
(-3.54372e-05 8.72541e-07 -4.01867e-21)
(-2.14872e-06 -3.58116e-07 -1.42077e-20)
(-2.3803e-06 -2.69687e-07 -6.60576e-21)
(-2.63148e-06 -4.6511e-07 -4.13229e-20)
(0.00202734 -0.00122462 1.07094e-20)
(0.00167751 -0.000926019 2.5264e-20)
(-1.30319e-05 4.44283e-06 -1.41949e-19)
(-1.4198e-05 4.38221e-06 -3.60823e-19)
(-0.00179501 -0.00546943 1.98722e-18)
(-0.00250417 -0.00560982 -1.03474e-19)
(-0.00202482 -0.00626056 1.9389e-18)
(0.020419 0.00743874 -3.22775e-19)
(0.0223764 0.009738 -3.95124e-19)
(0.0187045 0.00998455 3.98347e-19)
(-0.000519071 0.0593501 -3.64252e-18)
(-0.00689133 0.0729656 3.53548e-18)
(-0.00520983 0.0755319 2.07159e-19)
(0.000272005 0.00049544 -4.93727e-20)
(0.00015986 0.000614782 -1.19054e-19)
(0.000376169 0.000641736 -8.18372e-21)
(-0.000928045 -0.00027226 1.51281e-19)
(-0.000877787 -0.000314568 -1.59709e-19)
(-0.000862725 -0.00024873 3.0247e-18)
(0.0221031 -0.0630717 -5.40946e-19)
(0.0226779 -0.0554958 1.02753e-19)
(-0.000106863 3.20092e-05 -2.87865e-18)
(-0.000115864 3.00818e-05 1.57921e-18)
(-0.000110539 2.08707e-05 -4.08662e-19)
(0.00101317 0.000570917 -9.91527e-20)
(0.000777093 0.000719484 -7.55801e-20)
(-0.028596 -0.0687869 -3.2071e-19)
(-0.0301017 -0.0504032 5.87752e-19)
(-0.030377 -0.0774383 -6.96233e-19)
(0.000115433 0.00130104 -2.37532e-19)
(1.72262e-05 0.000996193 -3.19688e-19)
(6.87254e-05 1.57275e-05 -1.77716e-20)
(8.19813e-05 1.12467e-05 -8.78572e-20)
(0.000662498 0.00220563 -2.78915e-20)
(0.000432472 0.00160805 1.61793e-19)
(0.0694482 -0.0131232 2.07468e-18)
(0.0659279 -0.0194701 -3.84103e-19)
(0.0640388 -0.00870343 1.72895e-19)
(-1.7384e-05 3.6781e-07 5.34082e-19)
(-1.41005e-05 8.08064e-07 3.51239e-19)
(-1.74025e-05 4.14584e-07 -3.11861e-19)
(-4.14974e-05 -5.57112e-06 -4.33744e-19)
(-4.05722e-05 -4.27219e-06 -1.20731e-18)
(-4.1576e-05 -2.92418e-06 -5.05304e-19)
(0.0108211 0.0115658 3.24754e-19)
(0.0108429 0.00976738 -2.27368e-19)
(0.00912364 0.0106197 2.09224e-19)
(-4.28455e-05 1.0247e-05 -1.72212e-19)
(-4.2546e-05 1.05605e-05 1.24232e-18)
(-0.0213248 -0.0935656 2.02003e-18)
(-0.011609 -0.101429 -8.26791e-19)
(-0.0214981 -0.0929186 -1.46612e-18)
(-0.000177639 0.000247559 2.62855e-18)
(-0.000159307 0.000221789 -1.66287e-19)
(-0.000197513 0.000209805 -1.60843e-18)
(0.00832084 0.0020477 -8.82501e-19)
(0.00855309 0.00177544 3.57887e-18)
(0.00858438 0.00197776 -6.7966e-19)
(-3.18147e-05 -1.85809e-05 1.64142e-21)
(-3.24055e-05 -2.19073e-05 -4.2622e-22)
(-2.77967e-05 -2.3839e-05 -6.04496e-21)
(0.00432765 0.00394493 1.17738e-17)
(0.00508348 0.00372633 -2.97198e-18)
(0.00470884 0.00389169 1.17982e-18)
(3.76745e-05 0.000208949 3.30449e-19)
(7.25307e-05 0.000206786 4.75858e-19)
(-0.0127594 -0.0652884 -1.10421e-18)
(-0.0153429 -0.0417958 2.15607e-18)
(-0.00605934 -0.0239959 2.75462e-18)
(-3.23809e-05 -1.1034e-05 -4.36059e-21)
(-3.08375e-05 -1.34427e-05 -3.6285e-20)
(-3.24126e-05 -1.00192e-05 5.75164e-21)
(-4.75444e-05 -3.48035e-05 -6.49652e-20)
(-5.82147e-05 -2.90682e-05 4.07879e-20)
(-4.43434e-05 -2.3814e-05 4.88574e-20)
(0.024536 0.0302916 -3.02319e-19)
(0.0201788 0.0459448 -5.29692e-19)
(0.0182432 0.044738 2.17601e-19)
(-0.0182441 0.0146282 -5.14708e-19)
(-0.0138511 0.0150785 -1.47598e-18)
(-0.0144969 0.0110178 -1.71125e-19)
(0.0534664 0.0937103 7.83846e-18)
(0.0597268 0.0752665 1.43938e-18)
(-3.3801e-05 1.418e-07 -1.18245e-18)
(-3.34729e-05 -5.90178e-07 5.39555e-19)
(-3.33847e-05 1.06177e-06 -1.79514e-18)
(0.00806021 0.00213191 9.00324e-18)
(0.00804432 0.00234117 1.0506e-17)
(-0.000157757 0.000280414 -6.96038e-19)
(-0.0002024 0.000271006 1.52153e-18)
(-8.68141e-05 -3.08505e-05 -3.39883e-18)
(-8.57366e-05 -4.06571e-05 2.42181e-18)
(0.00516225 0.00701542 2.87856e-18)
(0.00576158 0.00761872 9.36558e-19)
(0.00512275 0.00731313 8.58674e-19)
(0.00314871 -0.00503723 -1.73853e-18)
(0.00338853 -0.00568536 -8.1936e-19)
(0.00393664 -0.00501585 3.21331e-18)
(0.00702149 0.00242868 -2.52625e-18)
(0.00748669 0.00238754 -2.73679e-19)
(0.00756547 0.0022672 -1.12187e-18)
(-1.81342e-06 5.24805e-07 -3.00796e-20)
(-1.53907e-06 5.1123e-07 2.03229e-20)
(-1.61378e-06 2.51057e-07 2.48664e-20)
(-0.000669303 0.000102618 1.06707e-18)
(-0.0007254 7.17576e-05 -2.13037e-18)
(-0.000723382 0.000147021 3.09234e-18)
(-2.18961e-05 -1.28218e-06 -2.96956e-21)
(-1.78883e-05 -7.08281e-07 2.32442e-20)
(0.000488681 0.0854578 -1.04329e-18)
(0.00604645 0.0847563 -9.27975e-18)
(0.000800524 0.0839463 -4.82747e-19)
(-3.35429e-05 -9.07507e-06 -4.80198e-21)
(-3.18266e-05 -1.25915e-05 2.23492e-21)
(-0.0026076 0.00273253 4.27047e-19)
(-0.00232458 0.00235205 4.02618e-19)
(-0.0418256 -0.0331711 1.86625e-18)
(-0.0402769 -0.0389652 -4.64581e-19)
(-0.0225916 -0.0427293 3.26395e-18)
(9.08576e-06 -7.72967e-06 1.27834e-20)
(8.72561e-06 -6.3456e-06 -5.38932e-20)
(0.000353655 0.000375958 6.1505e-20)
(-1.10447e-05 -0.000842848 -5.64343e-18)
(1.50405e-05 -0.000942243 1.98537e-18)
(-7.45973e-05 -0.000920336 -6.44756e-18)
(-0.00938568 -0.00749938 2.71847e-19)
(-0.00797532 -0.00653257 1.87149e-19)
(-0.00960549 -0.00549909 -4.13694e-19)
(-0.0324925 -0.0875138 -1.55301e-18)
(-0.0215711 -0.094353 -1.4791e-18)
(0.0137302 -0.0681909 3.11514e-18)
(0.0194539 -0.0590379 -6.41526e-19)
(-4.6017e-05 -4.6769e-05 -5.82561e-20)
(-6.23618e-05 -6.27773e-05 3.77829e-20)
(-4.14867e-05 -7.56864e-06 5.53612e-20)
(-4.25831e-05 -6.35888e-06 5.26568e-19)
(-0.0349029 -0.0172923 -2.45527e-19)
(-0.0381542 -0.0204021 6.7517e-20)
(-0.0261572 0.0796645 6.33567e-18)
(-0.0349937 0.0651957 -2.17869e-18)
(-0.0245517 0.0717981 -3.72924e-18)
(-6.62206e-05 -0.000407899 2.36587e-20)
(-3.94554e-05 -0.000310102 -1.16412e-20)
(3.27956e-05 -0.000394062 -1.35415e-20)
(0.0105737 0.0134623 3.22524e-19)
(0.0125426 0.0125608 8.64059e-19)
(-2.97586e-05 -2.34741e-06 -4.65272e-21)
(-2.86348e-05 -2.51966e-06 -4.76451e-22)
(0.00775391 0.00255682 -2.03116e-18)
(0.00822289 0.00236638 5.89789e-18)
(0.0079487 0.00241701 -7.3758e-20)
(-0.000962324 -0.00129257 7.41865e-19)
(-0.000839227 -0.00138695 8.74225e-18)
(-0.0182447 -0.136568 1.09725e-18)
(-0.0133211 -0.155339 1.04968e-18)
(-0.0133702 -0.154763 3.93657e-18)
(1.69959e-05 -1.45705e-05 -7.48318e-19)
(2.02791e-05 -4.24126e-05 2.98114e-19)
(-1.44288e-06 -2.92607e-05 2.63596e-21)
(0.000349383 0.000234619 4.72186e-19)
(0.000286556 0.000194014 -3.37927e-19)
(0.00036889 0.000155931 -3.04436e-19)
(-0.00440898 -0.00489496 3.66208e-19)
(-0.00364698 -0.0062771 1.02188e-19)
(-0.00322517 -0.00448296 4.2307e-19)
(-0.0165576 0.0887901 1.61726e-18)
(-0.0279794 0.0887063 1.04875e-18)
(-7.55384e-05 1.71696e-05 -1.05751e-19)
(-7.5536e-05 1.67626e-05 5.47268e-21)
(-7.57686e-05 1.46809e-05 -7.22099e-19)
(3.59046e-05 -8.4676e-07 1.58297e-18)
(-0.000386612 -0.000834202 6.41552e-19)
(-0.000337129 -0.000817442 -1.53534e-18)
(-0.000357786 -0.000879009 7.24899e-19)
(0.0712973 0.0181311 1.69145e-19)
(0.0661966 0.0346591 1.32442e-19)
(0.0626663 0.0283692 -2.0399e-19)
(0.0216863 0.00445459 5.47538e-19)
(0.018716 0.0051883 -9.21695e-19)
(0.00431404 0.00343648 2.74306e-19)
(0.00376273 0.00380222 8.51263e-19)
(-0.0181456 0.00893545 1.93228e-18)
(-0.0153919 0.00463779 -2.14048e-18)
(-0.0197575 0.00766098 -1.00755e-17)
(-3.46068e-05 -2.53771e-05 -1.29842e-18)
(-3.3752e-05 -2.45937e-05 5.65599e-19)
(-3.55517e-05 -2.1586e-05 1.60416e-18)
(-3.56205e-05 -3.63202e-05 1.76891e-20)
(-0.00198545 0.00176861 2.01852e-20)
(-0.00177908 0.0022519 1.16397e-20)
(-0.00149799 0.00183759 -8.3375e-20)
(0.0251527 -0.113295 -1.31576e-18)
(0.0368832 -0.0918335 2.50022e-18)
(0.0423311 -0.104145 -4.20087e-19)
(0.000120722 0.000212584 -2.35167e-20)
(0.00013719 0.000145333 -6.52635e-20)
(0.000193225 0.000189462 -5.15542e-20)
(0.0126861 -0.0162355 1.09421e-18)
(0.0122342 -0.0184876 2.52953e-19)
(0.0140227 -0.0178485 -1.3727e-19)
(-0.000102873 4.14855e-05 -1.68953e-18)
(-0.000103309 3.50005e-05 1.15303e-18)
(-7.53052e-05 1.85382e-05 -7.18302e-19)
(-7.51023e-05 1.72756e-05 -1.09714e-18)
(-0.000479339 5.98885e-05 1.78432e-18)
(-0.000460251 0.000100586 2.08325e-18)
(0.00522456 0.00655121 1.73543e-18)
(0.00458463 0.00650596 5.8001e-20)
(0.0141484 -0.000452629 1.65444e-18)
(0.0112595 9.74242e-05 -1.67032e-19)
(0.0134434 0.00316819 -1.38833e-19)
(-0.0057441 -0.00497743 -1.16209e-19)
(-0.00459484 -0.00356697 2.01826e-19)
(-0.00011723 3.74954e-05 -1.803e-18)
(0.0125103 -0.0549869 -1.43803e-18)
(0.00381717 -0.0501997 -2.12809e-18)
(0.0208662 -0.0550149 1.63762e-17)
(-0.00161323 -0.000693686 3.45733e-18)
(-0.00146619 -0.000762783 1.47434e-18)
(0.00199884 0.000898821 -5.90923e-19)
(0.00168065 0.000811343 -9.01067e-20)
(9.60435e-06 9.91305e-07 8.90703e-20)
(9.80793e-06 -1.99126e-06 1.07739e-19)
(0.00190587 -0.0883563 1.11837e-20)
(0.00179139 -0.0875348 -2.76846e-19)
(0.0143173 -0.0100023 -1.04809e-20)
(0.0180532 -0.00913898 -4.61553e-19)
(0.0153241 -0.00605193 2.67645e-19)
(0.00777592 0.000815255 6.07634e-18)
(0.00810655 0.00082319 -4.75427e-18)
(0.00817533 0.000627424 2.27915e-18)
(0.0121279 0.0732011 9.16203e-19)
(0.013848 0.074939 1.58715e-18)
(-0.000104706 -0.000496276 2.43781e-20)
(-0.000153629 -0.000395767 2.77578e-20)
(-3.71035e-05 -9.35171e-06 3.6167e-21)
(-3.49068e-05 -1.40001e-05 -1.10097e-22)
(-3.86597e-05 -1.08929e-05 -1.74044e-21)
(-2.5428e-05 -8.27154e-07 -5.54058e-21)
(-2.6555e-05 -8.34347e-07 -6.9857e-21)
(-2.90284e-05 -1.42406e-06 -1.08557e-20)
(-0.000407593 -0.000798804 -2.01311e-18)
(-0.000433947 -0.000838896 -2.20053e-18)
(0.00364932 -0.139602 -5.53584e-19)
(0.00413989 -0.118521 -4.8775e-19)
(-0.0325818 0.183761 -1.39724e-18)
(-0.0471431 0.215656 -2.26993e-18)
(-0.0453571 0.222142 -3.40282e-18)
(3.33018e-05 1.86893e-05 5.92706e-20)
(3.79073e-05 1.74602e-05 -2.60599e-21)
(3.82169e-05 1.91928e-05 3.0031e-20)
(-2.30881e-05 -1.7677e-05 -1.47001e-19)
(-2.53865e-05 -1.72214e-05 1.5924e-18)
(-2.38666e-05 -1.95615e-05 2.04017e-19)
(0.015226 -0.0639895 -1.8829e-18)
(0.000948258 -0.0518631 -1.06248e-18)
(3.13441e-05 -0.0819162 -1.89893e-20)
(-0.00142679 -0.0786104 6.08385e-20)
(-0.00337961 -0.0736113 1.17781e-18)
(-0.00071046 -0.0136996 -9.53178e-20)
(0.000598347 -0.0131895 -9.54849e-19)
(-0.000415233 -0.000208453 -2.53716e-20)
(-0.000391927 -0.000262702 -2.47639e-18)
(-6.31841e-05 -5.27959e-05 -1.93733e-18)
(-6.32178e-05 -4.55198e-05 1.01666e-18)
(-0.000830344 -0.000488624 3.77597e-18)
(-0.000887812 -0.000455854 -2.11532e-18)
(-0.000881013 -0.000534793 -3.34711e-19)
(0.00266827 -0.0826901 -1.23369e-18)
(0.00274103 -0.0782206 -4.44742e-19)
(0.0117309 -0.0148634 -5.86977e-18)
(0.0126153 -0.0136364 9.39833e-19)
(0.000422428 -0.00120907 1.02608e-18)
(0.000308575 -0.00111001 -4.69814e-19)
(0.000488392 -0.00101579 -7.66866e-19)
(-0.0782535 0.0987717 -2.32866e-18)
(-0.073908 0.0904645 1.84981e-18)
(1.03438e-05 1.56598e-06 2.05e-20)
(1.0146e-05 4.72457e-06 -6.04264e-20)
(9.86912e-06 2.64052e-06 -1.08694e-19)
(0.00753037 0.00268765 7.02626e-18)
(0.00722029 0.002749 -4.29782e-18)
(-0.000420439 -0.000191867 4.18629e-18)
(-0.000417188 -0.000218617 3.37205e-18)
(-3.57357e-05 0.000230483 -1.97297e-19)
(-1.77308e-05 0.000264047 6.85893e-19)
(0.00745606 0.00135946 -7.45496e-20)
(0.00793758 0.00120508 -3.39234e-18)
(0.00770948 0.00142392 -4.49275e-18)
(-6.63338e-05 4.76104e-05 3.62301e-20)
(-6.17873e-05 5.82081e-05 -3.16416e-19)
(-7.22684e-05 5.12857e-05 -7.43616e-20)
(-0.0241054 -0.00373663 -1.30864e-18)
(-0.0310861 -0.00338715 3.27161e-19)
(0.00453531 0.00503866 -4.69412e-18)
(0.00444163 0.00530981 -3.99522e-18)
(0.00423443 0.00533755 2.93945e-18)
(2.95763e-05 1.86128e-05 1.05131e-20)
(2.91852e-05 1.86076e-05 7.435e-21)