/*--------------------------------*- C++ -*----------------------------------*\
| =========                 |                                                 |
| \\      /  F ield         | OpenFOAM: The Open Source CFD Toolbox           |
|  \\    /   O peration     | Version:  v2012                                 |
|   \\  /    A nd           | Website:  www.openfoam.com                      |
|    \\/     M anipulation  |                                                 |
\*---------------------------------------------------------------------------*/
FoamFile
{
    version     2.0;
    format      ascii;
    class       volScalarField;
    location    "750";
    object      k;
}
// * * * * * * * * * * * * * * * * * * * * * * * * * * * * * * * * * * * * * //

dimensions      [0 2 -2 0 0 0 0];


internalField   nonuniform List<scalar> 
13851
(
0.000155364
0.023612
0.000190096
0.000154438
0.000190867
7.35175e-05
0.00014712
0.00017869
0.000139755
0.000190722
0.00371779
0.0280284
0.0152819
0.0173188
0.000144114
0.000169841
0.000158085
0.000163198
0.00188337
0.000139597
0.000153926
0.000189939
0.000144778
0.000151821
0.00014601
0.000179255
0.000156282
0.00200914
0.000154894
0.000157016
0.000573915
0.000158737
0.000189053
0.00531487
0.000151924
0.000211752
0.000818836
0.000168209
0.000192477
0.00478417
0.000145735
0.000132578
0.00665837
0.00347177
0.0033523
0.0113151
0.00352207
0.00252982
0.000156746
0.00114336
0.000188238
0.000200706
0.0104907
0.000146022
0.00015407
0.000132686
0.000144681
0.0138596
0.000156479
0.000147898
0.000141897
0.0280833
0.000191681
0.00019422
0.00030091
0.000159465
0.0043932
0.00356612
0.000168918
0.000162804
0.0159619
0.0158691
0.0205785
0.000146912
0.000141413
0.000142632
0.000189028
0.017625
0.000179051
0.0183365
0.000149626
0.00353014
0.000144245
0.0102617
0.000197089
0.027435
0.000177776
0.00762951
0.000158767
0.000142027
0.000211941
0.000177211
0.00341365
0.000162228
0.000158373
0.000149703
0.000191443
0.0299675
0.00218653
0.000149696
0.019297
0.000180419
0.000151367
0.000155303
0.00014262
0.000208617
0.000182636
0.000131493
0.0297017
0.000149766
0.000151682
0.000142408
0.000172676
0.000153835
0.000151696
0.0129782
0.0307906
0.000131631
0.000156513
0.000157588
0.00668247
0.000155102
0.0176459
0.00659198
0.00197036
0.000147834
0.0013018
0.000179812
0.000153284
0.00020273
0.000145468
0.000139224
0.0193787
0.000144179
0.012712
0.000140968
0.000131727
0.0144476
0.0305115
0.0262361
0.0196451
0.000153862
0.000150278
0.000136411
0.000154618
0.0033765
0.000190162
0.000202493
0.0001469
0.00311573
0.00018827
0.000154187
0.0176312
0.000145258
0.000153408
0.00015443
0.000142994
0.00015441
0.000200698
0.000187945
0.000133819
0.000161845
0.0132378
0.000139099
0.000163788
0.000134533
0.000208836
0.000169325
0.000152862
0.020674
0.0152608
0.000136705
0.00014318
0.0261327
0.000138955
0.00356676
0.000179049
0.000150247
0.00217571
0.000131839
0.000160114
0.0186006
0.000144025
0.000191438
0.000132941
0.000146356
0.000159778
0.000148779
0.000193863
0.000196731
0.00352119
0.0118098
0.000143454
0.000169209
0.0288503
0.000152992
0.000149521
0.00301221
0.000149635
0.000142862
0.000148623
0.0168752
0.000163329
0.000143626
0.000189356
0.000144174
0.0413174
0.0001583
0.0305134
0.000132465
0.040702
0.000150989
0.00253155
0.000131329
0.000135656
0.0024136
0.000194145
0.012505
0.000143487
0.0317791
0.000158631
0.000149837
0.0348165
0.000200649
0.0434897
0.000146728
0.000164784
0.000143967
0.0152489
0.000131421
0.000178375
0.00271149
0.000136612
0.000143076
0.000185779
0.000181477
0.0435828
0.00031614
0.000136272
0.000143757
0.00035433
0.00585152
0.000137056
0.000190843
0.000140617
0.0408501
0.000180976
0.00314598
0.000154724
0.000160074
0.000170747
0.00574934
0.000150044
0.000154899
0.000180577
0.000516203
0.000195169
0.0165386
0.00548367
0.00014439
0.000135795
0.000161275
0.0150679
0.000139434
0.00851056
0.000152969
0.000149877
0.00016152
0.033746
0.000264454
0.000170579
0.000153427
0.0058163
0.000177635
0.000169095
0.000139348
0.00323875
0.000422839
0.0465985
0.00348769
0.000137137
0.000132006
0.000142188
0.000179597
0.0143219
0.00616799
0.000141174
0.000144151
0.00791712
0.00354006
0.000210429
0.000155775
0.000148032
0.00017125
0.00376923
0.00731456
0.000162764
0.0264158
0.000139606
0.0413282
0.000161294
0.000157899
0.0456983
0.000148535
0.000216499
0.0377236
0.000140881
0.000176051
0.000162424
0.000155213
0.0338939
0.00016308
0.000149781
0.0337426
0.000133117
0.000160514
0.000155334
0.0461567
0.000197968
0.000143517
0.000180935
0.00014374
0.0125083
0.00018964
0.000144989
0.000145799
0.000197526
0.000163922
0.000153095
0.000144154
0.000148382
0.000149594
0.00363853
0.0194731
0.0232097
0.000165517
0.0452445
0.0261781
0.000143733
0.000169883
0.000211207
0.000187002
0.000196236
0.000197585
0.00161168
0.000159011
0.00485947
0.0392852
0.000144361
0.00166816
0.00175409
0.00356801
0.000153065
0.000209179
0.015598
0.000143563
0.00335512
0.000145743
0.000143793
0.000139213
0.000131536
0.000142077
0.0398257
0.00307174
0.000145237
0.000174941
0.000133809
0.0260937
0.000175892
0.00459887
0.0223243
0.000145496
0.000200963
0.000162665
0.00483373
0.000144591
0.000131754
0.000169876
0.0188558
0.000144948
0.0358829
0.000186286
0.000198495
0.0163873
0.00399851
0.00397043
0.000161368
0.000139681
0.000150422
0.000164092
0.00018061
0.0165797
0.000169231
0.0436184
0.0383486
0.000133935
0.000144499
0.0216566
0.0208906
0.00153069
0.0316823
0.000171995
0.000163541
0.000149204
0.0224428
0.000138032
0.000169129
0.000158671
0.000146416
0.000143245
0.000140574
0.000134407
0.000193452
0.000189569
0.0168565
0.000163083
0.000182204
0.000177781
0.00470833
0.00016176
0.00667574
0.000157354
0.00200113
0.000131626
0.000140316
0.00014784
0.000339685
0.00445467
0.000199955
0.000175098
0.0131066
0.00559753
0.000173607
0.000160384
0.000186162
0.000144297
0.004554
0.000142579
0.019338
0.00410341
0.000187088
0.0276037
0.00015048
0.000358527
0.00432698
0.0187766
0.000131676
0.000165267
0.000179666
0.000298466
0.00013744
0.000149683
0.000187016
0.000198497
0.000168177
0.0258396
0.000146786
0.000146333
0.0105741
0.000164939
0.000131764
0.011789
0.000139603
0.000155337
0.000138246
0.000178565
0.000153268
0.000132165
0.000149956
0.0329185
0.000144406
0.000171215
0.000140189
0.000165835
0.000896148
0.000154778
0.000145614
0.000154039
0.000153824
0.00649313
0.000149734
0.000136012
0.000143951
0.000147739
0.0204887
0.026
0.000144471
0.00016791
0.00016191
0.00654183
0.0104842
0.0001464
0.00308455
0.000144868
0.000191094
0.000147087
0.0160621
0.000133036
0.0102052
0.000196826
0.000132707
0.000167226
0.0252935
0.000179135
0.00341144
0.000156297
0.00757502
0.000157475
0.000138543
0.00013953
0.000146267
0.0254372
0.000186128
0.000199429
0.00134888
0.00018872
0.00013426
0.0236892
0.00465851
0.000160296
0.000162185
0.0064448
0.00673233
0.03939
0.000152841
0.0164109
0.0106089
0.0164187
0.000164218
0.000169906
0.00261697
0.00044964
0.000412174
0.00269099
0.0283587
0.000154888
0.0299447
0.019658
0.000131848
0.000359719
0.000186601
0.0211726
0.000155186
0.000142993
0.000142658
0.000144483
0.000193394
0.000177576
0.00462109
0.0247536
0.000139959
0.00955179
0.0263291
0.00178299
0.00457594
0.000170709
0.000131299
0.000140031
0.000646128
0.026051
0.000153649
0.000192299
0.000211177
0.000132564
0.000190449
0.00503271
0.000116141
0.000197799
0.0268064
0.0199993
0.000145171
0.000146549
0.0236592
0.0377553
0.000198875
0.000169004
0.0002037
0.000131753
0.000142308
0.0211803
0.000132268
0.000155003
0.000131715
0.000139595
0.0213125
0.000193294
0.000170926
0.000132175
0.0397235
0.0030209
0.000139802
0.000142531
0.000139699
0.000149591
0.0189206
0.00280363
0.00256382
0.0192267
0.00712141
0.000167374
0.0171467
0.0277003
0.000160374
0.000169422
0.000131273
0.000153878
0.000170917
0.0307485
0.00796512
0.000191884
0.000164084
0.000139105
0.000169766
0.000149931
0.00370723
0.000188469
0.000143816
0.000166505
0.00013742
0.000161091
0.000200926
0.000147518
0.000144027
0.000175784
0.000147683
0.000191324
0.000250752
0.000199396
0.000170468
0.000199703
0.000138915
0.00042724
0.000175471
0.0208852
0.000150687
0.000150304
0.0264772
0.000155447
0.0148252
0.0393427
0.014404
0.0131103
0.000137964
0.0194824
0.000137895
0.000139587
0.000133032
0.000139672
0.000150424
0.000163766
0.000176564
0.000131931
0.0297262
0.000198459
0.0310005
0.000141925
0.000134413
0.000141984
0.000210254
0.0300701
0.000180885
0.000161496
0.000138216
0.000148465
0.000146805
0.000143798
9.30197e-05
0.0309163
0.000147375
0.000131815
0.000146405
0.00014367
0.00706738
0.0121213
0.000170214
0.0281222
0.00729484
0.000143768
0.000199245
0.0187778
0.000170733
0.0284856
0.000149582
0.000161607
0.000180479
0.000161769
0.0025569
0.000144314
0.0039991
0.000143186
0.000164888
0.0305389
0.000143457
0.000153881
0.00019716
0.000138672
0.000159263
0.0140583
0.0205527
0.000187961
0.0057135
0.00409162
0.000131473
0.000141633
0.0217959
0.000208571
0.00018465
0.0396702
0.000139073
0.000165989
0.000131952
0.0059582
0.00499572
0.000160201
0.000149724
0.00105261
0.000156718
0.000141722
0.00878525
0.000883984
0.0304517
0.000132957
0.000147208
0.0176064
0.00677524
0.000204696
0.000149152
0.0319059
0.000144292
0.00157273
0.000203754
0.000188353
0.000158642
0.012781
0.000166245
0.000151928
0.000707624
0.000149765
0.000163207
0.000153739
0.000138718
0.00959053
0.000168099
0.000197816
0.000169459
0.000559133
0.000139347
0.014598
0.000155156
0.000165984
0.000134999
0.000143292
0.000145096
0.0371006
0.000142351
0.000132058
0.000639351
0.000146836
0.0216704
0.0001442
0.000149935
0.000187216
0.0110568
0.00360981
0.000141596
0.000870119
0.0288137
0.000149896
0.0375743
0.000164549
0.000138398
0.00018263
0.00741858
0.00104526
0.00016053
0.000141047
0.000131603
0.00507392
0.000190154
0.00019011
0.000162025
0.000181556
0.00015047
0.00014949
0.000192021
0.00427887
0.000193436
0.0109687
0.000146924
0.000191477
0.000191238
0.04585
0.000159926
0.030604
0.000741959
0.000146963
0.0109482
0.000316533
0.0288378
0.0183029
0.0338658
0.00493181
0.000175848
0.000138556
0.000163497
0.0150246
0.010268
0.000145272
0.000147749
0.000186522
0.003816
0.000132748
0.00959394
0.000138785
0.000145155
0.0104536
0.0174914
0.00411428
0.000139554
0.000143907
0.00812419
0.000105796
0.000197612
0.000154611
0.0254867
0.000292213
0.0300781
0.000182295
0.000174407
0.000149829
0.000146901
0.018545
0.000179122
0.0197629
0.000179726
0.000168802
0.00943058
0.0285581
0.0235645
0.000145056
0.000165733
0.000139692
0.000170978
0.000153658
0.028811
0.000166464
0.0366071
0.000132629
0.000186789
0.000142888
0.000183431
0.000167988
0.000165309
0.0286694
0.000176089
0.000180619
0.000152382
0.000186875
0.00445973
0.000221831
0.000155273
0.0155863
0.000138955
0.0174937
0.00363384
0.000148341
0.0414425
0.0190513
0.0233511
0.00493487
0.000179961
0.000145076
0.0291136
0.000167389
0.0130305
0.0309705
0.000141883
0.000152549
0.000367335
0.00304761
0.0288745
0.000147192
0.00014177
0.0233279
0.0304104
0.000197943
0.000159702
0.000152832
0.00374843
0.0124376
0.000192085
0.000132107
0.000176219
0.000138754
0.000160093
0.00299979
0.000149583
0.019886
0.00338546
0.00014538
0.000150782
0.000145317
0.000153915
0.0171315
0.0244315
0.000164741
0.0314618
0.000142795
0.00016485
0.00014472
0.000138868
0.000147912
0.000145197
0.0233285
0.000144544
0.000180592
0.000145198
0.000160749
0.00344547
0.0059625
0.000156617
0.0225731
0.000191161
0.00176743
0.000168695
0.000168855
0.0172406
0.00016106
0.000178785
0.0285608
0.0125481
0.0119643
0.000174983
0.00323798
0.000150228
0.000174747
0.000180867
0.028991
0.00014544
0.028692
0.000141417
0.000142146
0.0164114
0.00014542
0.00783938
0.000159166
0.000139659
0.000182643
0.000139734
0.000143942
0.000139715
0.000149293
8.93615e-05
0.000142092
0.00010455
0.0127714
0.000187284
0.0228155
0.000146616
0.00015535
0.000162939
0.000144719
0.000139475
0.000189906
0.000149515
0.000141798
0.000149985
0.000146627
0.0216888
0.0319289
0.0002094
0.0318138
6.80067e-05
0.000142297
0.0082091
0.00016383
0.000141859
0.00372656
0.000506439
0.00137481
0.000141912
0.0034426
0.00356178
0.0175088
0.000136836
0.0158019
0.000167111
0.000156117
0.000140718
0.00013905
0.0362463
0.000232703
0.00754721
0.000142979
0.000143799
0.000932685
0.000148428
0.00994606
0.00446429
0.0125313
0.00207391
0.00360819
0.000147628
0.000145088
0.000201991
0.000166983
0.000155426
0.000208875
0.000176244
0.000149699
0.00015252
0.0343741
0.000142061
0.0210886
0.00794791
0.013322
0.000193727
0.000152443
0.000137328
0.000149051
0.00416961
0.00569857
0.000136835
0.000157233
0.000142762
0.000189643
0.000133529
0.000142322
0.000150031
0.000168326
0.00362931
0.00018009
0.000166562
0.000145521
0.000180305
0.0134179
0.000150867
0.0112646
0.0162795
0.000190133
0.000134947
0.000176779
0.000142982
0.000145265
0.000148666
0.0175772
0.000197865
0.00459022
0.000155522
0.00134094
0.000143374
0.000143235
0.000148612
0.00935709
0.000252045
0.000133531
0.000167937
0.000193559
0.0268528
0.000154685
0.0268423
0.000149947
0.0392331
0.000187878
0.0354569
0.000192354
0.000190007
0.000332097
0.0277303
0.00396233
0.0191432
0.000144742
0.00021229
0.000133384
0.000155463
0.00015974
0.000148034
0.0278741
0.000165381
0.000162207
0.00454193
0.000214012
0.00450438
0.00014362
0.000155239
0.000161027
0.000138005
0.000164817
0.0247157
0.00552523
0.0145982
0.000140689
0.000161127
0.000155553
0.00549164
0.0317153
0.000201008
0.000137229
0.00014915
0.016353
0.000178309
0.0275871
0.0272421
0.000204356
0.000134753
0.0138856
0.000164375
0.000177114
0.000163478
0.0391775
0.00373412
0.000199915
0.000265519
0.000151665
0.000163279
0.000145129
0.0117695
0.000186082
0.0264671
0.00113068
0.00015955
0.000202737
0.000152947
0.0390619
0.000217975
0.000141685
6.21249e-05
0.0318048
8.12162e-05
0.0267531
0.000146633
0.0001454
0.0175397
0.0154643
0.0145009
0.000155801
0.00014649
0.000145434
0.022017
0.000201564
0.000149231
0.000833399
0.000191363
0.0426877
0.0124954
0.00675387
0.000144413
0.028762
0.000157439
0.000145458
0.000201268
0.029609
0.000147235
0.000141434
0.00479789
0.0373207
0.0001455
0.000140584
0.0289571
0.000141366
0.00118223
0.000140688
0.0065545
0.000145452
0.000180971
0.0130124
0.0318824
0.000152229
0.0071678
0.00344212
0.0310424
0.00670914
0.0382671
0.000179727
0.000142665
0.0131576
0.000155067
0.000143738
0.000137881
0.00138288
0.000143542
0.000461787
0.000141647
0.000152542
0.0168569
0.000185814
0.0173278
0.000153543
0.000198602
0.000139395
0.000167626
0.0141086
0.0198671
0.000140573
0.000186751
0.00353456
0.000148347
0.000139303
0.0302364
0.00016958
0.000171737
0.000199357
0.0247011
0.000373264
0.0110264
0.0241519
0.000188186
0.00262742
0.00546598
0.00519797
0.000186854
0.000136372
0.000198595
0.000142627
0.000142471
0.0330549
0.0304917
0.000154372
0.018483
0.00049523
0.0203719
0.00129652
0.000361974
0.000144223
0.000762344
0.000598256
0.000142916
0.000152572
0.0378861
0.0313277
0.0284493
0.0374471
0.000175749
0.0395025
0.0395513
0.000167105
0.000147551
0.000142975
0.0037254
0.000141646
0.000140469
0.000152914
0.000150545
0.000154883
0.0153781
0.0440274
0.0204001
0.000149803
0.0153741
0.000159161
0.00016627
0.000141096
0.000141727
0.0132034
0.000162401
0.0280928
0.0188217
0.000603265
0.000197059
0.000144545
0.000176532
0.000148276
0.00020164
0.000149826
0.000153227
0.000149378
0.000153665
0.000205821
0.00015072
0.000170891
0.000143118
0.000171539
0.000149832
0.0179353
0.000143442
0.000179467
0.000144703
0.000210268
0.000153911
0.0256083
0.000208013
0.00016659
0.000155421
0.000153171
0.00185465
0.000144834
0.000704433
0.000144031
0.000143398
0.00014915
0.0344208
0.000161486
0.000158262
0.00017044
0.000145167
0.000185058
0.0325772
0.00692593
0.00017086
0.000145102
0.000374202
0.000136902
0.000144007
0.000198634
0.036709
0.000143865
0.000167481
0.000226187
0.0171785
0.000149387
0.000150457
0.034889
0.000152605
0.000720667
0.000437243
0.0439403
0.000145703
0.000161917
0.000143448
0.0428744
0.000199977
0.000176057
0.000197433
0.020926
0.00015171
0.0407915
0.0287378
0.000148392
0.0174787
0.000190261
0.000152971
0.0137848
0.000146706
0.000145482
0.000138314
0.00021476
0.000931239
0.000208004
0.000153407
0.000151111
0.000164661
0.00334661
0.000266269
0.0431133
0.0034288
0.000150165
0.000200075
0.000202422
0.0135355
0.000187215
0.00386801
0.000141784
0.000170182
0.000139268
0.000416105
0.000174414
0.000143378
0.0326337
0.000213269
0.000168404
0.000168938
0.000132558
0.000144755
0.000182968
0.000170394
0.00101247
0.00018701
0.000186177
0.000186427
0.000199408
0.0319221
0.000208595
0.0427217
0.000143675
0.000141638
0.000115014
0.0229598
0.0126298
0.000282744
0.000154068
0.0170621
0.00375081
0.000143671
0.00016016
0.000139821
0.000175063
0.000187529
0.000221152
0.0113159
0.000327551
0.000152683
0.0290655
0.0148163
0.000144312
0.000216069
0.0288921
0.0122731
0.000155691
0.000188378
0.000131349
0.000158991
0.000142924
0.000159444
0.0437543
0.0259155
0.00979436
0.0185135
0.000152321
0.000171272
0.000184272
0.000142882
0.000149103
0.000139051
0.0302293
0.000141379
0.0388335
0.000173928
0.00018502
0.00021292
0.000110064
0.0190541
0.019312
0.000174559
0.000134163
0.000152499
0.0159391
0.00677381
0.000157812
0.000139585
0.000139504
0.00018575
0.000166373
0.000202599
0.0368277
0.000152103
0.000138568
0.000198363
0.000311925
0.0168342
0.0156637
0.000140689
0.000188596
0.000147981
0.046001
0.000135725
0.0403595
0.000142159
0.000151866
0.00016598
0.000149402
0.000202283
0.000165289
0.000178971
0.0165063
0.0318948
0.000158733
0.000165564
0.00014401
0.017707
0.0178894
0.000149385
0.00013611
0.00378381
0.000131461
0.0264799
0.000144356
0.000169527
0.000186611
0.00162241
0.000175991
0.000152313
0.000146541
0.000187164
0.038128
0.000142745
0.000343665
0.0190403
0.0147454
0.000416697
0.000170802
0.0217291
0.000158355
0.000537739
0.000143319
0.00314814
0.00369752
0.0100345
0.0131734
0.0366926
0.000146364
0.000232325
0.000141437
0.0134441
0.00373816
0.0369155
0.0155828
0.000162271
0.0320902
0.00228721
0.000172208
0.000153345
0.000147461
0.0283669
0.000159974
0.000186966
0.00015768
0.000148709
0.000138847
0.000147639
0.0300329
9.57752e-05
0.000167447
0.017312
0.00938201
0.000144286
0.000143885
0.000139383
0.000162668
0.0392456
9.61389e-05
0.000159977
0.000171426
0.000307447
0.000188623
0.000177448
0.00816786
0.000166478
0.0422569
0.00016491
0.000163982
0.000143531
0.000157168
0.000188107
0.0038081
0.00262408
0.0312757
0.000187638
0.0384647
0.000156248
0.000157176
0.000145919
0.0111081
0.0243391
0.007174
0.000661351
0.000155115
0.000145316
0.00014241
0.000144027
0.000139266
0.0105912
0.000165037
0.0113577
0.000169136
0.0288813
0.0195259
0.040909
0.000193413
0.000159547
0.0152479
0.000176103
0.00668267
0.0308802
0.000138443
0.000989622
0.00016187
0.0183716
0.00830881
0.000171812
0.000874955
0.00359958
0.000157895
0.000189913
0.000165854
0.0241021
0.002873
0.000156253
0.000146618
0.00320634
0.000575567
0.000200836
0.00414561
0.000198716
0.000164027
0.000144118
0.0181226
0.0353374
0.00018807
0.000165935
0.0306679
0.019762
0.00014166
0.000144607
0.000156765
0.0371206
0.0341369
0.000143771
0.0216119
0.000150365
0.000143315
0.000148366
0.0161774
0.000938393
0.000336172
0.0120969
0.000153791
0.000153143
0.000141556
0.00887098
0.000152055
0.0375487
0.000156375
0.0275474
0.000149109
0.000142707
0.000199853
0.0100501
0.00374734
0.0001723
0.025707
0.000136145
0.00014665
0.000144764
0.000177725
0.000186494
0.000186355
0.000174297
0.0334634
0.000156953
0.000200946
0.000304734
0.0294966
0.000146791
0.0265667
0.032452
0.000157688
0.00639278
0.000185759
0.020119
0.000147862
0.000188819
0.000144499
0.00841292
0.0153772
0.000215084
0.0406754
0.000155286
0.000178856
0.000152417
0.0226557
0.000134897
0.000139706
0.00236982
0.000190148
0.0218783
0.0134234
0.000185152
0.000164024
0.000138127
0.0272187
0.000165698
0.000143128
0.000202634
0.000139206
0.00017656
0.000145348
0.0145763
0.000154877
0.00333597
0.00209629
0.000167553
0.00141962
0.000183548
0.0463557
0.000146085
0.0103626
0.0309759
0.000139603
0.000144512
0.000153802
0.000149281
0.000174389
0.000143984
0.00281545
0.000188839
0.00155456
0.000215885
0.000147768
0.000149784
0.000138663
0.0218051
0.000146933
0.000145277
0.000136878
0.000155696
0.0291043
0.0399217
0.000191839
0.000157109
0.000169926
0.000152999
0.00015034
0.000192362
0.000136715
0.000156042
0.00996985
0.042235
0.0023011
0.00015286
0.0111182
0.000327367
0.000149327
0.000915262
0.0323078
0.000143842
0.000155007
0.000143255
0.0243481
0.0210792
0.00565502
0.000136612
0.000156459
0.000153485
0.000146789
0.000200414
0.000148099
0.000524256
0.00697713
0.0410614
0.000138456
0.000155843
0.000154655
0.0259568
0.000132556
0.0188826
0.0117981
0.0025361
0.0131188
0.0229902
0.030132
0.000151826
0.00527625
0.0028269
0.000151589
0.000137885
0.000140569
0.0399634
0.0114768
0.0112914
0.000144676
0.0430206
0.000147737
0.000212847
0.000139608
0.000154755
0.000151444
0.000138304
0.0235818
0.000151727
0.0298589
0.0183288
0.0176245
0.000179181
0.000180465
0.0196864
0.0373547
0.000149529
0.0067525
0.000138616
0.000131787
0.000143641
0.000312232
0.000141301
0.0168394
0.000165884
0.000604861
0.000175549
0.011233
0.01761
0.000225659
0.000138038
0.000184693
0.000187561
0.0224154
0.00014684
0.000134293
0.000157764
0.0344537
0.000148179
0.00137413
0.0156596
0.000175301
0.000184836
0.000147054
0.00473243
0.000149149
0.0404417
0.000135732
0.00873342
0.000166267
0.000146422
0.0163711
0.0153968
0.000135521
0.000185609
0.000157844
0.0107488
0.00029267
0.000285388
0.000560926
0.000149354
0.000185318
0.0279968
0.000143194
0.000303992
0.000153096
0.000188941
0.000167741
0.0130647
0.0248339
0.000146774
0.026689
0.00015197
0.000177322
0.0308264
0.0152657
0.000173706
0.0276268
0.000210204
0.000146734
0.00138172
0.000199273
0.000166056
0.000151601
0.0285641
0.000135848
0.016217
0.000362232
0.000197042
0.000143495
0.0001653
0.0264413
0.000177758
0.0295234
0.000150527
0.000155967
0.000154244
0.0277358
0.000159542
0.0386306
0.00345579
0.0174558
0.000148519
0.0262844
0.0120992
0.0259898
0.000144092
0.000149371
0.000146242
0.0402077
0.000176518
0.00479006
0.0040612
0.000149606
0.000138151
0.000143912
0.0253417
0.0158733
0.0193329
0.017835
0.000141303
0.0261238
0.0353857
0.000199371
0.0115139
0.0278128
0.000172495
0.0151179
0.000154598
0.000158969
0.0220099
0.0195381
0.000147097
0.0187214
0.000149296
0.000144762
0.0417497
0.0249358
0.0396536
0.0142841
0.000167755
0.000149536
0.000159629
0.0356125
0.0144547
0.000142709
0.00017772
0.00598038
0.000144888
0.000147264
0.028755
0.0313785
0.000154266
0.000144352
0.00015129
0.000152858
0.000240291
0.000149236
0.000144816
0.000160225
0.00023816
0.0369209
0.00218726
0.0288471
0.000147015
0.000158434
0.030862
0.0366545
0.000164376
0.000801391
0.000143369
0.000171345
0.000152375
0.000150181
0.00018563
0.000144428
0.0118378
0.000170184
0.000142154
0.000157689
0.0153414
0.0279056
0.0232573
0.000145059
0.000170622
0.0381897
0.00486314
0.000156225
0.000146389
0.000144716
0.002508
0.000147475
0.000149503
0.000163161
0.000144362
0.0312933
0.00072388
0.000149312
0.000157012
0.000135925
0.000148027
0.0238247
0.00627688
0.000187895
0.0123116
0.000197923
0.00014987
0.000143222
0.0001465
0.000145905
0.000149068
0.000164925
0.000192751
0.0307037
0.000151751
0.000197668
0.0233124
0.000431592
0.000144664
0.000139822
0.000154768
0.0403784
0.000145396
0.00514933
0.000381942
0.000181718
0.000147642
0.0150777
0.000136372
0.000682937
0.000137777
0.000136606
0.000148431
0.000142236
0.000181281
0.0179384
0.000911964
0.000173944
0.0128834
0.000281706
0.000361715
0.000167221
0.0251978
0.0132023
0.00019795
0.0339962
0.0299744
0.000196964
0.00444962
0.000149371
0.00014138
0.0237861
0.000142427
0.000157181
0.0381349
0.000450315
0.0248824
0.000204706
0.000140731
0.000155211
0.00014689
0.000410432
0.000139401
0.000884807
0.0223474
0.0294341
0.00924388
0.000147048
0.000136349
0.000188051
0.0170833
0.0316184
0.00019841
0.00368578
0.000140638
0.00727511
0.0286644
6.93619e-05
0.000156332
0.00014744
0.000135812
0.000154698
0.000147325
0.000146312
0.000156666
0.0300867
0.000189605
0.0274198
0.000816847
0.00576355
0.000212103
0.000143215
0.000143073
0.000148213
0.00013911
0.000149166
0.00764094
0.0269201
0.00721885
0.0428768
0.000154544
0.0186621
0.000205994
0.0388883
0.0319268
0.000147642
0.000142118
0.00404104
0.000147203
0.0001357
0.00535163
0.0314549
0.0105425
0.00014529
0.000147039
0.000154529
0.000173689
0.0174255
0.000138835
0.000156809
0.000785013
0.000138946
0.00538452
0.000173353
0.035674
0.000149417
0.000237308
0.0163328
0.000172762
0.0345617
0.000197342
0.0283383
0.000136116
0.000159203
0.000141152
0.000166072
0.0186058
0.000145655
0.0113777
0.000147531
0.000147222
0.000144347
0.042231
0.000177186
0.000197537
0.0037736
0.000139654
0.000180031
0.0149515
0.000184082
0.000141643
0.000152491
0.000147382
0.000184655
0.000146084
0.000142872
0.0445507
0.0413512
0.0403996
0.00078039
0.00102379
0.0184464
0.000187117
0.0444103
0.000201355
0.000135492
0.000142866
0.000131563
0.000148712
0.0366525
0.036445
0.000138761
0.00938929
0.0431617
0.000164079
0.000151375
0.000170316
0.0290844
0.0275059
0.0303767
0.00221472
0.0317246
0.000131642
0.000146557
0.000196684
0.00167544
0.0235664
0.000143894
0.000199273
0.0169605
0.000169917
0.01612
0.000149746
0.0011484
0.0179291
0.036687
0.000188277
0.000167581
0.0172481
0.000199723
0.0370506
0.0405209
0.031112
0.000197039
0.0224315
0.000147301
0.00015634
0.000178827
0.0229351
0.0025002
0.0281512
0.00015183
0.000199022
0.000191723
0.000152447
0.0311276
0.000143881
0.000199331
0.0216126
0.000143809
0.0368162
0.0380453
0.0401081
0.0268132
0.00299629
0.00371351
0.000144404
0.0376137
0.000147097
0.000142476
0.000175567
0.000156145
0.0327227
0.000156464
0.000171223
0.000156846
0.000142175
0.0238801
0.000153997
0.000197434
0.00124844
0.000138352
0.0280046
0.000196518
0.000151762
0.0136127
0.000175434
0.000143479
0.00577974
0.000150796
0.0428069
0.000805587
0.000138993
0.000197591
0.000154162
0.0395329
0.0318682
0.000188403
0.00695669
0.00016093
0.000144819
0.0390954
0.000156107
0.000146293
0.0100864
0.00017397
0.000140475
0.000141989
0.000202595
0.00015364
0.0215462
0.000168917
0.000364996
0.0199499
0.00018082
0.000185357
0.000144821
0.0404246
0.0175212
0.0241586
0.000144197
0.000137939
0.000188985
0.000167196
0.00471855
0.000146487
0.0053447
0.000145646
0.000247434
0.000150016
0.000400038
0.000179184
0.000196989
0.0283537
0.0169554
0.0315857
0.0305255
0.000131833
0.00320846
0.00424763
0.0212904
0.000143761
0.000142244
0.01726
0.0129937
0.000197233
0.00108254
0.0119369
0.0422242
0.000177146
0.000124321
0.000138182
0.00017896
0.00017546
0.000143568
0.000187117
0.0211274
0.00135341
0.0154607
0.00580012
0.000142573
0.000140953
0.000170933
0.000143699
0.00975964
0.000139099
0.000141031
0.0450724
0.000111585
0.000169805
0.000196473
0.000153296
0.000189154
0.0139344
0.0325507
0.0146837
0.00015877
0.0322818
0.000152628
0.000138838
0.000154164
0.0264134
0.000135103
0.000131712
0.000103679
0.000151731
0.000141883
0.000143754
0.000149415
0.000160766
0.0199806
0.00577843
0.000164467
0.0321411
0.0212151
0.00202937
0.0131122
0.000145067
0.000165455
0.000227776
0.000144532
0.000169434
0.00016158
0.000156368
0.027841
0.0326613
0.000139155
0.000173417
0.000165605
0.000186282
0.0279946
0.0339868
0.0419001
0.00014828
0.000190214
0.0421965
0.000190061
0.000197398
0.000638962
0.0285473
0.0418246
0.044857
0.00013857
0.0206359
0.000138586
0.000154275
0.000144482
0.000185192
0.0418615
0.0151396
0.00435197
0.0109061
0.000183741
0.000135153
0.000139711
0.000147173
0.000158881
0.000177106
0.0435293
0.0443939
0.000188799
0.000451308
0.0001488
0.000183443
0.000138793
0.0391726
0.000207736
0.00014788
0.000199298
0.000196219
0.0192758
0.0264591
0.000202995
0.00806821
0.000158449
0.0257254
0.000170707
0.0224255
0.00392221
0.000152447
0.000183101
0.000146471
0.0288248
0.0132496
0.000175158
0.035127
0.000155088
0.0289568
0.000186702
0.000207393
0.000179851
0.000140314
0.000198141
0.000185606
0.000156824
0.000182852
0.000167061
0.000169054
0.0154397
0.000206513
0.000154696
0.000166824
0.000171926
0.000169386
0.000152191
0.0319143
0.000198467
0.00193793
0.00938996
0.000145095
0.0312839
0.000144527
0.000157167
0.000155583
0.0312335
0.000174829
0.0378895
0.0160403
0.000184419
0.000183265
0.000197507
0.0308742
0.000200159
0.0113612
0.000167705
0.000177324
0.000142956
0.0335731
0.00542827
0.000166548
0.000146636
0.000174375
0.000159896
0.000157636
0.00017912
0.000173558
0.00014802
0.000171714
0.0209709
0.0187946
0.000249259
0.000175428
0.000133295
0.0318149
0.000167886
0.000185365
0.000175948
0.000175727
0.0236131
0.000136029
0.000167566
0.000157254
0.000171034
0.000143737
0.0318682
0.000981148
0.0145039
0.000175066
0.0332665
0.000109914
0.000159427
0.0301941
0.000185888
0.000115976
0.00989462
0.000182783
0.000156593
0.000174145
0.000187351
0.00015546
0.000954208
0.0267331
0.00340695
0.000140372
0.000120128
0.00145704
0.00640651
0.00014326
0.000177542
0.000144597
0.000167163
0.0229358
0.000165518
0.0001648
0.000140636
0.000140288
0.00599069
0.0262447
0.000146767
0.0141253
0.000145005
0.000135333
0.000164641
0.0335028
0.000199435
0.000196124
0.000144481
0.000162094
0.000195585
0.000147735
0.000143376
0.0432177
0.00016506
0.0319705
0.000190611
0.000160377
0.0407782
0.000197602
0.000211472
0.000140888
0.00398008
0.000165021
0.000161175
0.0235459
0.000174819
0.000148276
0.00018917
0.000157479
0.000156999
0.000136246
0.0186014
0.000144886
0.000199675
0.0112797
0.00019673
0.00014238
0.000562046
0.000166197
0.0262885
0.000200315
0.0266722
0.000197328
0.0353956
0.000138943
0.000189585
0.000159009
0.000142269
0.0042699
0.0214632
0.000157898
0.000284907
0.000160794
0.000188765
0.0268008
0.000159927
0.00109332
0.000402884
0.037698
0.033618
0.000238823
0.000186566
0.00014053
0.000201111
0.000173348
0.00895353
0.0222345
0.0389761
0.0329252
0.041774
0.000140085
0.00354768
0.00014408
0.000151817
0.000147694
0.00516547
0.000178582
0.000207759
0.000142694
0.00934875
0.000162338
0.0233585
0.000142534
0.000186358
0.000165632
0.000186751
0.000176746
0.000196065
0.000153433
0.000145361
0.000201085
0.000141158
0.0194837
9.09034e-05
0.000188884
0.000155529
0.000165943
0.000146277