/*--------------------------------*- C++ -*----------------------------------*\
| =========                 |                                                 |
| \\      /  F ield         | OpenFOAM: The Open Source CFD Toolbox           |
|  \\    /   O peration     | Version:  v2012                                 |
|   \\  /    A nd           | Website:  www.openfoam.com                      |
|    \\/     M anipulation  |                                                 |
\*---------------------------------------------------------------------------*/
FoamFile
{
    version     2.0;
    format      ascii;
    class       volScalarField;
    location    "600";
    object      p;
}
// * * * * * * * * * * * * * * * * * * * * * * * * * * * * * * * * * * * * * //

dimensions      [0 2 -2 0 0 0 0];


internalField   nonuniform List<scalar> 
13917
(
-0.0749941
0.00225323
-0.0580671
-0.021076
0.00415119
0.00220952
-0.0324011
0.00489859
-0.0422162
-0.0975037
0.00514744
-0.0138151
-0.011006
0.01638
0.00158405
-0.0737151
0.000983377
0.0065255
-0.0489406
-0.0869351
-0.00232144
-0.000913853
-0.0407827
-0.0007822
-0.0176779
0.00019135
0.00335262
-0.0979375
0.00564369
0.000287718
-0.098367
-0.0539772
-0.0171771
-0.070381
0.00153549
0.00203848
-0.0066348
-0.00221119
-0.0333159
-0.00914355
0.000935341
0.00164077
-0.037873
-0.0535087
-0.0526827
-0.0340038
-0.00327526
-0.048525
-0.0299575
0.00150708
-0.0135695
-0.033647
-0.0633993
-0.00739269
-0.00824126
-0.0344345
-0.0960382
-0.0398968
0.00162146
-0.0336611
-0.022558
0.00267949
0.00019507
-0.0176808
-0.0581471
0.00240073
0.00643159
-0.000542753
0.00671573
-0.0657101
-0.0583974
-0.0695928
-0.0199992
0.00157141
-0.00222028
-0.0137568
0.00262703
0.00155187
-0.0138878
-0.0173627
-0.00331069
0.00091784
-0.019744
-0.0634523
-0.00744741
0.0219763
-0.0535425
-0.0072007
-0.00845278
0.000941177
0.00106352
-0.0387871
-0.0226567
0.00133524
-0.00640696
0.006375
0.0235598
0.000360352
-0.00735348
0.00931471
0.000674098
0.000650863
-0.003403
5.95806e-05
0.00242897
-0.0635652
-0.070063
0.00217367
0.00167945
0.00246191
-0.0114629
-0.0710163
0.00544542
-0.0557081
-0.0608232
-0.0119985
-0.0488277
0.00105987
-0.0558086
-0.0189695
0.000914356
0.00147304
0.00718933
-0.0406241
-0.0631142
-0.0629063
-0.0182594
-0.00135145
0.000477103
-0.041477
-0.0466493
-0.0238913
-0.0657013
-0.0114601
-0.0544571
0.0072138
-0.0315077
-0.0632775
0.00181468
-0.00214934
0.00565644
0.00152681
-0.0655311
-0.00298342
-0.0184282
0.00187135
-0.0593947
-0.00733584
-0.0589864
-0.00753681
-0.00891845
0.000583288
-0.0181777
-0.0191701
0.026057
0.00122058
7.40022e-05
-0.0674849
0.00100165
0.0010449
-0.00585661
-0.0418866
-0.00272988
0.00345454
-0.0202261
0.0116631
-0.0636579
-0.0176601
7.37527e-05
0.00270581
-0.000353728
-0.067077
-0.0424641
-0.0239507
-0.0274284
0.000864697
-0.0216715
-0.0333045
-0.0463657
-0.00229342
-0.0365237
-0.00054146
-0.0131393
-0.0362314
-0.0553608
-0.0230133
-0.0128775
-0.0355928
0.000355339
0.0195336
-0.0263912
-0.0524305
-0.0380619
-0.0787413
0.00130837
-0.06341
-0.0196906
-0.0658603
0.0014495
0.000966482
-0.00501591
-0.0668662
-0.0629575
-0.00525937
-0.00633654
0.00159451
-0.0094002
0.00151268
-0.0338808
-0.00291775
-7.17091e-05
0.00458348
0.00479526
-0.0509212
-0.0545555
0.00106046
-0.0599552
-0.00400964
0.00121366
0.00121665
-0.0214923
-0.0370253
-0.0342997
-0.0115984
0.000173821
0.0078808
-0.0638767
0.00117815
0.00116847
0.000940445
0.00123443
0.00123886
-0.0703049
-0.0425806
-0.00212003
0.000119003
-0.033929
-0.0672932
0.00104271
-0.011459
-0.00576271
-0.0667818
-0.0367427
-0.0630621
-0.0283241
-0.00313559
-0.0158792
-0.0345749
0.0045745
-0.0465151
-0.00565085
-0.0502532
-0.0192378
-0.0196169
-0.0273771
-0.00158449
0.000975537
-0.0182749
0.00311305
0.00164478
-0.06393
-0.0205529
0.00146539
0.00116491
0.00134031
0.0011644
-0.0194077
-0.0111938
-0.0308192
0.00150826
-0.0642856
-0.0652954
-0.0109395
0.00275457
-0.0349954
0.00120683
0.00702938
-0.0643732
0.00120873
-0.0662429
0.00158323
-0.0360117
0.000834963
0.00113647
-0.00137831
-0.00232598
-0.0448729
-0.00133593
0.0133489
-0.0166946
-0.0180868
0.00198952
-0.00873465
-0.06359
0.00104947
-0.0366062
0.00334948
-0.0105334
0.00359076
-0.0146237
0.00142007
-0.00133411
-0.0321029
0.00546358
-0.0193133
-0.0147633
-0.0112267
-0.0653117
-0.0666385
0.000566146
0.00184491
-0.0111216
-0.00641047
-0.0611275
-0.0717062
-0.0226761
0.00126046
-0.0228631
0.00261782
-0.0636119
-0.00593026
-0.0584841
-0.0106332
0.00162547
-0.00269607
0.000409926
0.00195529
-0.0515623
0.00105159
-0.0680704
-0.00730324
-0.0572974
0.00124765
-0.0899113
-0.00117346
-0.0203177
0.00196067
-3.31992e-05
0.00107558
-0.048088
-0.065577
-0.00710424
0.000545885
-0.0702338
-0.0678471
-0.0255216
0.0119568
0.00118635
-0.00303375
-0.0674728
-0.0241949
0.00119337
0.0033817
-0.0103879
0.00545338
-0.0203967
-0.0384061
-0.0220511
0.00898021
-0.0540893
-0.0747799
0.00051978
-0.00750602
0.00437509
-0.0491364
0.00102613
-0.0772267
-0.0543195
-0.00759277
-0.00808409
-0.0234517
0.00166108
-0.0122305
0.00162285
-0.0347908
-0.0356825
0.00248707
-0.0109396
-0.0509791
0.00127766
-0.016275
-0.0379134
0.00164242
-0.0172044
-0.000336621
0.000144984
0.000956856
-0.0873816
-0.000389552
-0.00870394
0.00058136
0.00743053
-0.00583772
-0.0221345
-0.0686519
-0.00984284
-0.0443148
-0.00398606
0.00989779
-0.0573565
-0.00742636
-0.0367177
-0.0154168
-0.00273181
-0.00299736
0.00049508
-0.0312734
0.00832157
-0.00775316
0.000744581
-0.00121348
-0.0322496
-0.00391871
0.00121072
8.36258e-05
-0.0606086
-0.0218259
-0.00229389
-0.00891613
-0.0337232
0.0359085
0.00216267
-0.0496941
-0.0623037
0.00137518
0.00119438
-0.00269161
-0.0030269
0.00121781
-0.00191091
0.00120608
0.00136161
-0.0228008
-0.00407904
-0.0106074
-0.0643124
-0.0356289
-6.52393e-05
-0.0176788
-0.0248334
-0.00412552
-0.0623204
0.00123103
-0.0115357
0.00128113
0.00126052
-0.00659996
0.000210391
-0.0353404
0.00179619
-0.0660107
-0.0113284
-0.0429083
0.00195296
-0.00291598
-0.0290474
-0.0264365
-0.0105501
0.0244656
-0.000124187
-0.002739
-0.00125291
-0.00055821
-8.52575e-05
-0.00580111
-0.0652978
-0.0208035
-9.45637e-05
-0.0143867
-0.059376
-0.0111631
-0.0356598
-0.0643313
-0.0249399
-0.03895
-0.0708997
-0.00470057
-0.00539769
2.07821e-05
0.0014448
0.00234965
-0.00548925
-0.0309069
0.00102599
-0.00762583
-0.00683459
-0.0390198
-0.00501718
-0.0538615
-0.0452518
0.00169325
0.00294852
0.00715949
-0.0109925
-0.00748951
0.0167661
-0.0344247
-0.0175197
-0.015543
-0.00753776
-0.0107635
-0.0335218
-0.00194298
-0.0662012
-0.00292715
0.00126107
-0.0329934
0.00123311
-0.00366994
-0.0314616
-0.0668166
0.000847347
-0.00597467
-0.0256016
0.00165783
-0.032283
-0.0378825
-0.00736122
-0.00797869
-0.00591249
-0.0281605
-0.0197931
0.000802679
0.00100863
0.000869186
-0.00294374
0.00318406
-0.0246783
0.0010414
-0.0446064
-0.00196046
-0.00148228
-0.0156105
-0.0750796
0.000896896
-0.030767
0.001625
-0.0424551
-0.0378301
0.00889856
-0.0279412
0.00667224
-0.0140554
0.00677099
-0.0653293
-0.0246372
-0.0649451
0.000649829
-0.00106472
0.00180669
-0.0118704
-0.06258
0.00121707
-0.0193958
-0.020401
-0.0668093
0.00677477
-0.0373539
-0.102457
1.53356e-06
-0.0606664
0.000341845
0.00195884
-0.0659312
0.00121544
-0.0617541
0.000346004
-0.0111688
-0.0010233
-0.0539183
0.00325492
0.00110584
-0.0550107
-0.0349849
-0.00214863
-0.0600313
-0.068096
-0.0217661
0.000882154
-0.0640324
0.00042246
-0.03244
0.00223024
0.00198239
0.00175365
0.000669923
-0.0340056
-0.036129
0.00121965
0.000386427
-0.00922021
-0.0607355
-0.00660155
-0.0538515
-0.00741063
0.00109752
0.00103178
-0.0334653
-0.0302433
-0.099996
-0.0461049
-0.0253623
-0.0406526
-0.0667791
0.00100756
-0.0318574
-0.0103016
-0.065748
-0.0115988
-0.0522521
-0.00288917
0.00337964
-0.0188667
-0.00242297
-0.0323551
-0.0600833
0.00101249
-0.0307845
0.00133499
0.000666452
-0.0754679
0.0174752
0.00154809
-0.0383555
-0.011367
0.00178247
0.000574956
-0.0742927
-0.0068069
0.00316948
0.00121236
0.00146743
-0.0480128
0.000563229
-0.040721
0.000814512
-0.00142503
-0.0280544
-0.0542549
-0.0072771
-0.0625883
-0.0617106
-0.00175582
-0.0331852
-2.40204e-06
0.00203821
-0.0777218
-0.0657255
-0.00343217
-0.00710973
0.00357984
0.000833712
4.91174e-05
0.0018183
-0.0372476
-0.0167884
-0.0142668
-0.0330788
-0.00913227
-0.0387092
0.00576647
-0.0231345
-0.0389761
-0.0669013
0.00141139
0.004434
0.000972855
-0.00154459
0.000904029
0.000965532
0.00172841
-0.00450409
-0.0649681
-0.0522692
-0.000238495
-0.0513094
0.00101682
-0.0684604
0.00160817
0.000572971
-0.0672792
-0.0385171
-0.0128324
-0.019907
0.001377
0.000848924
-0.0235204
-0.0337857
-0.00175511
-0.0621364
-0.0165682
-0.00910419
-0.0105487
0.00463649
-0.0653549
-0.025288
0.000119696
0.00142047
-0.0645774
-0.000659808
-0.0195363
-0.0621614
-0.0307775
-0.00120086
0.000611717
-0.00596279
-0.0646436
-0.0123308
-0.0315719
-0.0229823
-0.0304106
-0.0664596
0.0023897
-0.0392971
-0.0516558
-0.00631155
-0.017042
6.38807e-07
-0.0331079
0.00288634
-0.0687376
-0.00943577
0.00183673
-0.0621841
0.000855321
-0.0282633
-0.00754699
0.00145803
-0.0232798
-0.0654577
0.000890488
-0.0611054
-0.0309752
-0.00135177
-0.0124785
-0.0100688
-0.00457908
-0.0109539
-0.0188369
0.00595449
0.00211643
-0.033114
-0.0399994
8.4698e-05
-0.068098
-0.0413848
-0.0387643
-0.0390713
-0.00278143
-0.0598136
0.019446
0.00102582
-0.0391592
-0.0259872
-0.0504976
-0.00025652
-0.000183246
0.000119188
-0.0660486
-0.0165762
0.00168894
-0.0560375
-0.00175808
8.3751e-05
-0.0346644
0.0173729
0.00784614
0.0349791
0.00393615
-0.068093
-0.0192259
0.00293933
-0.0462392
0.00201906
0.00218579
0.00102289
0.000861272
-0.0188092
-0.00830919
0.0100479
-0.00021426
0.00183177
0.000969681
0.00494525
-0.00801917
-0.0394751
0.00124486
-0.0460147
0.00113462
-0.0279444
0.00873197
0.00103568
-0.0728397
-0.0164434
-0.0637911
-0.0360242
0.0111346
0.00210381
0.000721357
-0.0124209
-0.0699849
-0.0317623
-0.0042885
0.036907
-0.0108704
-0.050198
8.35732e-05
0.00239316
-0.0199311
0.000111521
-0.0183847
-0.0321385
0.0115683
-0.0479535
-0.00205341
0.00112807
0.00076628
-0.0224324
8.8035e-05
-0.00679757
-0.0107065
-0.000896486
-0.0554987
0.00112505
0.0214582
-0.00586074
-0.0711256
-0.0636684
0.000837021
-0.0664422
0.0243183
-0.0716684
-0.00672765
-0.00068702
0.00173463
-0.0147731
-0.0135766
-0.00579228
-0.032561
-0.0058049
-0.0032496
-0.00695223
-0.0611089
-0.0166174
-0.0504399
-0.0180097
0.000890334
-0.00852767
-0.0160166
0.00201419
-0.0271991
0.00126998
-0.0675274
-0.0374196
0.00133052
0.000648472
-0.0142851
0.000145155
0.00104987
-0.0158674
-0.00082101
0.0143762
-0.00304649
-0.00850541
0.00177819
-0.00389275
-0.0614907
0.00244223
-0.000841143
-0.00970921
-0.0300361
-0.00379029
-0.0474938
0.000323095
0.0122501
0.00132117
0.000925437
-0.0754544
0.000736266
-0.0212779
-0.0504449
-0.0739866
0.00138485
-0.0127708
-0.0465202
0.00166078
0.0013244
-0.000856703
-0.061995
-0.0138262
-0.0552917
-0.0146419
-0.0652782
0.00151308
-0.0380796
0.000658079
0.00110964
0.00109949
-0.00586554
0.000604863
-0.0653551
-0.00790822
-0.00235583
-0.0111836
0.00167578
0.00172248
-0.0380295
-0.009509
-0.0626075
-0.0111453
-0.0629369
-0.0324867
-0.029545
-0.0652875
-0.005647
-0.0385297
-0.0124728
-0.0636947
-0.00881916
-0.0211658
0.00133019
0.00186444
-0.00765646
0.00128515
0.00138811
0.00148418
-0.012611
-0.0232495
0.00102504
-0.00821227
-0.0516591
-0.0212375
-0.0301173
-0.050122
-1.69305e-05
0.000108967
-0.00579119
-0.0476926
-0.0218396
-0.0623508
0.00123325
-0.000703588
-0.00927266
-0.0047273
0.00123029
0.00129431
-0.00804032
-0.023164
-0.00249241
-0.0937505
-0.0124337
-0.00161023
-0.0694552
-0.0127103
0.000418846
0.00233974
-0.0743851
-0.00901862
0.000928958
-0.0131903
0.00130615
0.00067324
-0.0674823
0.00179581
0.034985
-0.0218367
0.0132063
-0.000173733
0.00149807
-0.00542623
-0.00133295
-0.014334
-0.0670482
0.00192318
-0.00223657
0.00161905
-0.0145625
-0.000188411
-0.0584863
-0.0534409
-0.0162992
-0.0648424
-0.0901662
0.00143169
-0.0588548
0.001465
-0.0640723
0.00148244
-0.0354244
-0.0284033
-0.0375217
-0.0136667
-0.0389284
-0.000437842
-0.0667968
0.00156764
-0.00322643
0.00130436
-0.00605845
-0.0540764
-0.00574658
-0.0142662
-0.0208756
-0.0674736
0.00149858
-0.0467263
-0.0662745
0.000303628
0.00120524
-0.0165467
-0.0576423
-0.0137675
0.000379347
-0.0321617
-0.0169866
0.000714068
0.00637379
-0.00221365
-0.0146222
-0.00874598
0.00149069
0.000778426
-0.0198739
0.00210353
-0.0635315
-0.0204182
-0.0161209
0.000924971
-0.0775755
0.00155489
0.00185442
-0.002538
-0.0247572
-0.021953
0.00138146
-0.0259318
0.00180821
0.000965241
-0.0465682
-0.00281354
-6.87555e-05
-0.0443786
-0.0591988
-0.0618197
-0.0334869
-0.0119185
-0.0344077
-0.0669708
-0.00223653
-0.0338443
0.00121626
-0.0270724
-0.0331335
-0.0197543
-0.0260635
0.00192351
-0.02129
-0.0090496
-0.00634163
-0.0212178
-0.0281284
-0.0270483
-0.0256296
0.000837119
-0.0644221
-0.00960072
-0.00483069
0.00296122
0.000734362
0.00116966
0.000237469
-0.0140703
-0.067213
-0.00208099
-0.00736125
-0.036631
-0.00606635
-0.00989267
-0.020585
-0.0630398
0.000830472
0.000687586
0.0190842
0.00106863
0.00194009
-0.0657989
-0.0188036
-0.0136703
0.0104059
0.00167356
-0.00703766
-0.067905
-0.0636457
0.00474806
-0.0252261
-0.003672
-0.061738
0.0184677
-0.00579823
-0.0602659
0.000746949
-0.0355524
-0.0222419
-0.0568017
-0.0176499
-0.00260294
0.00133988
-0.0014562
-0.00961213
-0.00995977
-0.00127427
-0.0682255
0.000763275
-0.0319709
0.000796708
-0.0614061
-0.0278595
-0.00892882
-0.0307908
0.0287834
-0.0137712
-0.0637328
-0.00139781
-0.00957189
-0.0105164
-0.0641577
-0.0450711
-0.067837
-0.0119051
-0.0155827
-0.0250628
0.0013671
0.000640078
-0.029851
0.00167017
-0.0037457
-0.0320856
-0.0107706
-0.00895284
-0.000596045
-0.0024362
-0.0253664
-0.0469048
-0.0358221
-0.00598502
-0.0304558
0.0129476
-0.00640302
-0.00543265
0.00200233
-0.0685048
-0.0409573
0.000788164
-0.049884
0.00193447
-0.00518936
-0.0633666
-0.014105
-0.00242451
0.00133323
-0.0145774
-0.00531625
-0.00586419
-0.0675241
0.00100763
-0.0301455
0.000419248
0.00174255
-0.049258
-0.0533052
-0.0158426
-0.0206823
-0.00128112
-0.00240677
-0.00798248
-0.0639924
-0.067746
0.00108375
-0.0194116
-0.00418633
-0.0469187
-0.0350386
0.00207989
-0.00820157
-0.054118
0.00123151
0.0170445
0.00177997
0.000869946
-0.0205039
-0.0692301
-0.032184
0.000865802
-0.0211137
-0.0301768
0.000773961
-0.0355728
-0.00388444
-0.00885827
-0.0282523
-0.00889119
0.00127011
0.00498486
-0.0462202
-0.00911156
-0.0177306
0.00112229
-0.00554848
3.33532e-05
-0.010934
-0.0239947
-0.0126963
-0.0626968
-0.00962564
-0.0269636
-0.043635
-0.0239037
0.000717463
-0.00404263
-0.0343608
-0.0664008
-0.0624857
-0.00511665
0.0011471
-0.0638123
-0.00252308
0.000943366
-0.0199893
-0.00939354
-0.010261
-0.00265821
-0.0622018
-0.0232273
-0.00418921
-0.0140623
-0.03504
-0.0583826
-0.0663307
0.000747671
-0.00200267
-0.00722927
0.000970828
0.00135873
-0.0157228
-0.013327
-0.0132188
-0.0348434
-0.0176655
-0.0655956
-0.00950605
0.00143355
-0.0256385
0.00113561
-0.0669738
-0.00926825
2.4152e-05
-0.0231995
-0.0543051
-0.0331322
-0.0607902
-0.00838352
-0.0354716
-3.01222e-06
0.000804387
0.00180042
-0.00932561
-0.0103211
-0.0669118
-0.0137793
-0.0338666
0.00281769
0.00215223
-0.0174565
0.00143148
0.000412028
-0.0650561
0.00117742
-0.00643556
-0.0514446
-0.00949082
-0.0472564
-0.0356113
-0.0353466
-0.00814889
0.00216289
-0.00116317
0.000911353
-0.00376399
0.00180457
0.00166809
0.000258657
0.00134669
0.00136788
0.00938996
-0.0030595
-0.0570835
-0.0328582
0.00151896
-0.0108082
0.000980136
-0.0311897
0.00150076
0.0138327
0.00222247
0.000122701
0.00199475
-0.0272893
-0.00137018
-0.0363238
0.000826841
0.00115991
-0.01523
0.000105625
0.000959708
-0.069802
-0.00439455
7.70048e-05
-0.0177944
-0.0333149
-0.0617311
0.00195623
-0.0226285
-0.0182674
0.00142213
0.00137932
-0.0355624
-0.0129628
0.000800013
-0.0350361
0.000966035
-0.0699254
0.00247468
-0.00298949
-0.0126792
0.00139485
-0.0652337
0.000924485
0.00113359
-0.0524421
-0.00845834
5.37571e-05
0.00140701
0.00136239
-0.049342
-0.0174813
0.00235086
-0.000431865
-0.00400823
0.000843442
-0.000557651
-0.000574977
-0.0134123
-0.0104906
-0.0316388
0.000549286
0.00156615
-0.0182939
-0.00703107
-0.00826421
-0.0113249
0.00869836
0.00100034
-0.0450406
-0.00097281
0.00281374
0.000817208
-0.0105174
-0.00214594
0.00120092
-0.00768165
0.00143052
-0.0385223
-0.034381
0.000646175
-0.0654875
-0.0597374
-0.0489762
-0.0682434
-0.00177243
-0.0113295
0.0116053
-0.0368434
0.00140942
-0.0655737
0.00091648
-0.0618343
-0.0278255
-0.029277
-0.0421518
0.0270635
-0.0197384
0.00060811
-0.0496417
-0.00162612
0.00225943
-0.029507
-0.0672428
-0.0874532
-0.0116241
0.0023108
-0.00655163
0.00100385
-0.0328664
0.000932157
-0.0104422
-0.00353507
0.00232535
-0.0640974
0.0013725
-0.0445889
-0.00381415
0.0102163
-0.0311289
-0.00760656
0.000841345
-0.0648993
0.0008248
-0.0138681
-0.0206323
0.000238178
-0.0328291
0.00323701
-0.0310455
-0.0643468
-0.0111705
0.00688454
-0.0200822
0.00182242
-0.0270364
0.0020281
0.000847026
-0.034025
0.000847397
0.000219913
-0.0375653
-0.00794665
-0.0312111
-0.0098358
0.000249292
-0.00625645
-0.00324334
-0.0031325
-0.0148369
-0.0362776
-0.0222884
-2.1871e-05
0.000780292
-0.0092613
-0.0131744
-0.00684119
-0.0668786
0.000619815
0.0304675
-0.0086821
0.00205195
-0.0607487
-0.00626756
0.00099573
-0.0635949
-0.0471479
-0.0705153
0.00181482
-0.0660286
0.038216
-0.00430694
-0.0657911
-0.00424083
0.000598626
-0.0134971
-0.00210627
0.00306823
-0.0732857
-0.00105626
-0.0449338
-0.0174081
-0.0651788
-0.0135529
-0.0174704
-0.00949922
-0.0677442
-0.0139616
-0.0114745
0.00196482
4.45121e-05
0.000753275
0.00107143
-0.00926317
0.0200523
-0.00826219
-0.00486144
-0.064211
-0.0018518
-0.0356606
-0.0322811
0.000869322
-0.0405526
0.0328779
-0.00368194
-0.0397615
0.00113094
-0.0374119
-0.0682756
0.000851375
-0.0630456
-0.0109821
-0.0652201
-0.0340939
-0.0122685
0.00204837
-0.0189891
-0.0244411
-0.0136035
-0.0194337
0.000314641
-0.00576402
-0.0635554
-0.0261933
-0.0633311
0.00072529
-0.0188512
-0.0692656
0.00200605
-0.00905575
-0.0677588
-0.00758379
-0.0125215
-0.0607631
-0.0357102
-0.0356164
-0.0297887
-0.0685585
-0.00556977
0.010219
-0.0680105
-0.0239808
-0.0188241
-0.00342522
-0.0368187
-0.0302233
-0.0245781
-0.00997004
-0.0404856
-0.0243191
0.0158456
-0.025667
0.00169215
0.00604359
-0.0644018
0.0033906
-0.0132138
-0.0133862
-0.00343743
0.000924779
-0.066797
-0.0178358
0.00144535
-0.0312955
0.0026466
-0.000450926
-0.0290362
-0.0347611
-0.0105559
-0.0643269
0.0016403
-0.066241
0.00129711
-0.0676813
-0.0575777
-0.0604914
0.00119391
-0.0118722
-0.000868761
0.0263292
-0.0279833
-0.0505247
-0.0674023
0.0283844
9.11411e-05
-0.0157364
0.00196166
-0.0413215
-0.0628394
0.000707591
-0.000310622
-0.013264
-0.0336624
0.0275861
0.0012705
-0.0115744
-0.030339
-0.00261203
0.00215034
-0.00533214
-0.0663732
0.00222117
0.00370318
-0.0675891
-0.0302042
-0.00347583
-0.0434706
-0.00515088
0.00422906
-0.0710597
-0.00935366
0.010164
-0.0515821
-0.0526663
-0.0375193
-0.0654006
-0.0167517
-0.017759
0.0290053
0.000942569
-0.0600874
-0.0370272
-0.0213731
-0.030365
-0.00964061
-0.0298081
-0.0342662
-0.0574231
-0.0138973
-0.0625305
0.000109714
-0.019703
-0.010518
-0.00128882
-0.0612233
0.0199238
0.00117111
0.00265263
-0.0605021
-0.00503878
-0.0141217
-0.0601776
0.000286579
-0.00668272
7.91679e-05
-0.00533774
-0.0499929
-0.0134504
-0.0149295
-0.0339923
-0.0329984
-0.00150365
-0.0234076
0.00929001
0.00162647
0.00291879
-0.010192
-0.00545295
0.00114978
0.0011582
-0.0627654
-0.0642252
-0.00482796
-0.0167966
0.000796225
-0.00323696
-0.000294184
0.000892326
0.00148368
-0.00536761
-0.0227161
-0.0730107
-0.0313232
-0.0339411
-0.0185349
-0.0407068
-0.00854743
-0.0634949
-0.000331315
-0.0514783
-0.0380363
-0.00347241
-0.0326379
-0.0657235
-0.00341088
-0.00610933
0.000951306
-0.00932595
-0.029261
0.000308773
-0.0186518
-0.0013886
-0.00268594
-0.0630444
-0.0101545
-0.0205895
-0.00669285
-0.000325379
-0.041373
-0.0280757
0.00107683
-0.042072
-0.00054929
-0.0670473
-0.000374527
-0.00524289
-0.00318907
-0.0769577
-0.00947618
-0.0440276
-0.0191828
-0.0640978
0.00189984
0.000626988
0.00420712
-0.0324817
-0.0125147
0.000891665
0.00083164
-0.0679003
-0.094153
-0.0311224
-0.0133441
-0.00171589
-0.00223096
-0.0642517
0.000127334
-0.0576803
-0.0533456
0.00067139
-0.0337642
0.00142656
0.000130069
-0.0262103
0.00135957
-0.0169299
0.00290833
-0.0141849
-0.0179722
-0.00592952
0.00179245
-0.0728853
-0.00338419
-0.0110519
-0.0657203
-0.00813807
0.00210626
-0.0247683
0.000520967
0.00149677
-0.000598159
-0.0345534
0.0268694
-0.00413605
0.00102793
0.0422296
-0.0106811
-0.0335656
-0.01833
-0.0100075
0.00122158
0.000997013
-0.0131795
-0.0173173
-0.0512398
-0.0651208
-0.056363
-0.00117667
0.00188804
-0.00681636
-0.0616214
-0.0127773
0.00381795
-0.065699
-0.0650656
-0.000345816
-0.0188443
-0.0161265
-0.00470325
-0.0683943
0.00138868
-0.0114988
-0.0337077
-0.0176818
-0.0173247
-0.0199847
-0.00387766
-0.06243
-0.0511784
0.000727831
-0.0298069
0.0028497
-0.0129622
-0.0296012
-0.0517097
0.0419263
0.000480894
-0.00501016
0.000643335
-0.0108468
-0.00320425
-0.00533147
0.00468065
-0.000169944
0.00154913
-0.0260334
-0.0605093
-0.0361734
0.000308742
-0.0268747
-0.0413853
0.0280345
0.00162227
-0.0136474
-0.00250998
-0.0631157
-0.00121992
-0.00121504
-0.0383544
-0.0616095
0.00108026
-0.0632359
-0.0116767
-0.0032264
-0.03335
-0.000718694
0.00207313
0.000813289
0.00090452
3.58543e-05
0.000856961
-0.0627264
0.00118092
-0.00529108
-0.0420644
-0.0376077
-0.00282611
-0.051537
-0.00705007
-0.0135979
-0.0104067
-0.0097789
-0.0012161
-0.000961642
-0.0606251
-0.0123266
0.00441689
-0.0223638
0.00398818
-0.0521095
-0.0368529
-0.054282
-0.000388446
-0.000662414
-0.0133209
-0.00399641
0.00126555
0.00187302
-0.0662904
-0.0575279
-0.000402313
-0.00469205
-0.0126455
-0.0603279
-0.0170458
-0.00501547
-0.00597966
-0.0654322
-0.0155754
-0.0672235
-0.0181596
-0.00440362
-0.00604663
0.000694711
-0.00082255
-0.0496252
-0.0027815
-0.0363001
-0.071872
-0.00341202
-0.0635801
0.000199427
-0.000402137
-0.0195799
-0.00534226
-0.0302599
0.00124164
0.00125996
0.00101789
-0.0625203
0.000860309
0.000306987
0.0022752
-0.0359861
0.0141095
-0.000561502
-0.0502718
-0.0687759
0.00136033
0.000746633
-8.3994e-05
-0.0664507
-0.0100566
-0.0175909
0.00513025
-0.00352805
-0.0337233
-0.00832699
0.000136187
-0.00754779
-0.0147666
-0.0346066
-0.07474
-0.0720218
-0.0254355
-0.000282949
-0.00648761
-0.0147552
-0.0237433
-0.00127016
-0.0572535
-0.0590153
-0.00539549
-0.00318723
0.00107352
-0.0191943
0.00902829
-0.063573
-0.0327088
-0.0155369
-0.0643479
-0.0529149
-0.0621651
-0.0646682
-0.00877304
-0.0518974
-0.014314
-0.0655783
-0.0613425
-0.0493198
-0.0635931
0.000910467
-0.026092
0.000308663
-0.000221361
-0.0722684
-0.00687095
-0.0132167
-0.0353788
-0.0180837
-0.0401216
-0.0677055
-0.0656881
-0.0146766
-0.0218999
-0.00333558
-0.00953994
0.00100052
-0.0191321
-0.0295964
-0.0516368
-0.0381286
-0.0176448
0.00119619
0.000166267
-0.000917393
-0.0674312
-0.00432256
0.000185329
-0.0145148
0.00633296
-0.0404416
0.0031692
0.00553463
-0.0514354
-0.01508
-0.0401865
-0.0129939
-0.0362868
-0.0339143
0.00134795
0.00123968
0.000932647
-0.0274174
-0.02879
-0.00122118
-0.032962
-0.0713903
0.00345856
-0.0040692
-0.00342015
-0.018858
-0.00551341
-0.00278094
0.00121149
-0.0342404
-0.044765
-0.000375888
-0.0334879
-0.0558555
-0.00829327
0.00503099
-0.0261213
-0.0653985
-0.0150923
-0.0666695
-0.00473715
0.0023683
0.00199028
-0.0655537
-0.03364
0.00116688
-0.0681185
-0.00968852
-0.00951791
0.0313472
-0.0662705
0.00359558
-0.0354506
-0.0348243
-0.0194082
-0.0575177
-0.00156924
-0.00806162
-0.0172862
-0.0294131
-0.0124564
0.000999849
-0.00900923
0.00304741
-0.0636054
-0.0201006
-0.0679479
-0.00920431
-0.0679746
-0.0636169
-0.0163227
-0.0169257
-0.033885
0.0251886
-0.065826
-0.0345125
-0.0712543
-0.0269551
0.0319213
0.00199513
-0.0668551
-0.0775506
0.00763997
-0.0571041
-0.00589124
-0.000619949
-0.0176523
-0.00440965
-0.00872167
-0.041149
-0.0685617
0.00272231
-0.00290369
-0.038385
-0.0680488
-0.036925
-0.0669099
0.00308431
-0.0656237
-0.0392954
-0.0537186
-0.000198683
-0.000331927
-0.048183
-0.0631491
0.00122782
-0.0282839
-0.0679211
-0.000200975
-0.0161955
0.00173415
-0.00879542
-0.00522063
-0.0355405
-0.05851
0.000376352
-0.0118277
-0.000408354
-0.0144548
-0.0570506
-0.0713676
-8.31082e-05
-0.0650717
-0.0286492
-0.00635034
-0.00607805
-0.0211523
0.00103367
-0.0610917
-0.0626473
-0.0398134
-0.0354553
-0.065145
-0.000589178
-0.0637353
-0.0682744
-0.0308678
-0.0641317
0.00119661
-0.00651779
-0.0116871
-0.030596
-0.0644801
-0.0328581
-0.0161203
-0.018436
-0.00859085
-0.066262
0.00197337
0.00160826
-0.0653334
-0.0673708
-0.0192018
-0.00854152
-0.0329253
-0.0112159
-0.012807
-0.0389052
-0.00478942
-0.0675657
-0.00549165
-0.0650355
-0.00272874
-0.0026912
-0.0468281
-0.00106684
0.00109759
-0.0333326
-0.0385904
0.00108285
0.00182495
-0.0356588
-0.0658595
-0.0649542
-0.0343195
-0.0144962
-0.00725196
-0.0122957
-0.0213673
-0.0068469
0.0018726
0.000898114
0.00115344
-0.072508
-0.00540606
-0.0319506
-0.0266769
0.00306221
0.000871459
0.00111578
-0.019546
-0.019739
-0.0299927
-0.0266073
-0.0338584
-0.0634513
-0.0168234
-0.0427576
-0.0285911
-0.0658288
-0.0314307
0.00132194
-0.0273025
-0.0222056
-0.0141744
-0.0334224
-0.00396664
-0.0203833
-0.033543
-0.0641359
-0.0110921
-0.0534225
-0.0428515
-0.0544693
-0.0556023
-0.0203795
-0.0566715
-0.057758
-0.0588031
-0.0598133
-0.0583889
-0.0414425
0.00310808
-0.00522866
-0.0328064
-0.0519048
-0.00341633
-0.0337332
-0.0672134
-0.0327219
-0.069811
0.0010868
0.00103987
0.00221223
-0.0555018
-0.0196942
-0.00472402
-0.0623594
-0.0224354
0.00371569
-0.00758946
0.00026418
-0.0220882
-0.104197
-0.0101229
-0.0344306
-0.0450061
-0.066936
-0.049406
-0.065587
-0.0334062
0.00368591
-0.0657925
9.19439e-05
-0.0660173
-0.0646477
-0.00876988
-0.0255556
-0.0264928
0.000938266
0.00075026
0.0241844
-0.0306628
0.00142246
0.00143817
-0.039055
-0.0624149
-0.0258127
-0.00953634
-0.06064
-0.037515
-0.0678308
-0.0643334
-0.0160318
-0.0122673
-0.0191596
-0.00364731
-0.0666163
0.00139036
-0.0547589
-0.0523012
-0.0606535
-0.0203478
-0.00266167
-0.00350153
-0.0656573
0.00119798
-0.0655023
0.000197193
-0.0644209
-0.0198343
-0.00432374
-0.0091684
-0.00363495
-0.0522242
-0.0102093
-0.0113608
-0.00245749
-0.0198925
-0.0652324
-0.0682108
-0.029648
-0.0678447
-0.00372899
-0.000624501
-0.0322002
-0.0247572
-0.0675258
-0.018735
-0.0244795
-0.0602826
-0.0531974
-0.0560123
0.000555422
0.00125229
0.00037453
-0.000220455
-0.0476271
0.00376459
0.00310894
-0.00460768
-0.0547576
-0.00193216
-0.0125242
0.0298553
-0.100121
-0.0131247
-0.0188547
0.000925589
-0.0676679
0.00128191
0.0031526
-0.0452508
-0.0524408
-0.0597514
0.00104785
-0.0390819
-0.0301406
-0.0498918
-0.0616063
-0.00967175
-0.0535707
-0.00318379
0.00168362
-0.00469183
-0.00593686
-0.0342324
-0.00296609
-0.0229205
-0.0173986
-0.03535
-0.0644072
-0.0642745
-0.0655367
0.000603523
-0.031784
0.00077309
-0.0544469
0.00134082
-0.0261396
-0.000510129
-0.0341573
-0.00543198
-0.0124336
-0.00199305
0.0109991
-0.0646803
-0.0637312
-0.0010942
0.0319672
-0.0627097
0.000420278
0.00189102
-0.0648358
-0.0232788
-0.0278726
-0.0571787
0.0038002
-0.0722305
-0.000651697
-0.0563995
-0.0734014
-0.00546702
0.0206348
-0.0294225
-0.0513271
-0.0485227
-0.0652459
0.00297253
-0.0190833
-0.0590509
0.00688013
-0.0341327
-0.00756336
-0.0147235
-0.0318782
-0.0627659
-0.0400351
-0.0039179
-0.0113692
-0.0738349
-0.0312768
-0.0566502
-0.0620063
-0.00326905
0.000883633
-0.0664837
-0.0659181
0.00224098
-0.0175607
-0.00490245
0.00247934
-0.0580923
0.00202544
-0.0644203
-0.0123071
-0.0642772
-0.0284761
-0.0262663
-0.018536
-0.0340562
-0.0168133
-0.0027984
-0.0586737
0.00108522
-0.0247441
-0.016922
-0.007319
-0.00429985
-0.0181481
-0.0657201
-0.0636696
-9.17248e-05
-0.0667396
-0.0153996
-0.000499056
-0.0098359
0.000896192
-0.0191104
-0.0619207
-0.0655011
0.000991524
0.0363703
-0.049799
-0.0521657
-0.0494584
-0.0531802
-0.013449
-0.0470256
-0.0106571
-0.00687249
0.000126163
-0.0670834
-0.00658864
-0.0644699
-0.0566409
-0.0321749
-0.0670675
-0.0646304
-0.00105462
-0.0647697
-0.030747
-0.0433158
0.00736865
-0.00196355
0.00291181
-0.0674179
-0.0162867
0.00251775
-0.0117277
-0.0650809
-0.0575754
-0.0369574
-0.0640412
-0.0619116
-0.0651674
-0.00934322
0.00134113
-0.0509301
-0.0124759
-0.0172717
-0.0177775
-0.00983383
-0.00173366
-0.0082266
-0.0123371
-0.00115636
-0.012574
-0.00672038
-0.0069432
0.00542945
-0.0637934
-0.0125975
-0.0654852
-0.0142159
-0.00860987
-0.0542706
-0.0518487
-0.00425701
-0.00122535
0.0370819
-0.034988
-0.0653138
-0.0345892
-0.0330318
-0.0106204
-0.000114572
0.0144157
-0.066317
-0.050031
-0.00147863
0.00114695
-0.0668709
-0.0174076
-0.00731859
-0.0511384
-0.0282191
-0.0365546
-0.065048
-0.0477963
0.0256835
-0.0063088
-0.068325
-0.00250492
-0.013412
-0.0233362
-0.00695392
-0.05066
-0.0321475
-0.0174375
-0.00833509
-0.0129835
-0.0315733
-0.0597536
-0.0582679
-0.0167344
-0.0553217
-0.0616199
-0.0353449
-0.019976
-0.0186415
-0.0354252
-0.0319181
-0.065509
-0.0232292
-0.0010554
-0.044345
-0.0189054
-0.0516302
-0.0343107
-0.00889972
-0.0364318
0.00175287
-0.0309291
-0.0307437
-0.0156739
-0.00174177
-0.00973979
-0.065953
-0.0596746
-0.00793144
0.0119075
-0.0564208
-0.018397
-0.00130093
-0.016007
-0.0666766
-0.034758
-0.064394
-0.0215011
-0.0455581
-0.0596413
-0.0574739
-0.0422912
0.00612257
-0.0575911
0.00685134
-0.0126362
-0.0629941
-0.0585198
-0.0113313
0.0385813
-0.0123008
0.0155172
-0.010583
-0.0595252
-0.00191284
-0.0640995
-0.0362777
-0.00143417
0.00135305
4.4915e-07
-0.0103698
-0.0121793
0.000628256
-0.034913
-0.00884967
-0.0105173
-0.00607879
-0.052033
-0.0204908
-0.0336367
-0.0155068
0.00156707
0.00112569
-0.0472825
0.00354043
-0.0626624
-0.016102
-0.0173959
-0.0223912
-0.0308941
-0.0130201
-0.0126375
-0.0296792
-0.0336751
-0.0253364
-0.0335094
0.000534124
-0.0939994
-0.0336412
-0.0128815
-0.00360969
-0.0673843
-0.000510842
-0.0308732
0.00142221
-0.0370303
0.00141074
-0.00743423
-0.00585971
-0.0178228
0.00338154
-0.035273
-0.0993937
-0.029695
-0.0123155
-0.00797182
-0.0657307
0.00378428
-0.0647303
-0.0510658
-0.0183726
-0.0251977
-0.00743562
-0.0544295
0.0418135
-0.0130788
-0.0645955
-0.00709234
-0.000501765
-0.0171431
-0.0215181