/*--------------------------------*- C++ -*----------------------------------*\
| =========                 |                                                 |
| \\      /  F ield         | OpenFOAM: The Open Source CFD Toolbox           |
|  \\    /   O peration     | Version:  v2012                                 |
|   \\  /    A nd           | Website:  www.openfoam.com                      |
|    \\/     M anipulation  |                                                 |
\*---------------------------------------------------------------------------*/
FoamFile
{
    version     2.0;
    format      ascii;
    class       volVectorField;
    location    "150";
    object      cellDisplacement;
}
// * * * * * * * * * * * * * * * * * * * * * * * * * * * * * * * * * * * * * //

dimensions      [0 1 0 0 0 0 0];


internalField   nonuniform List<vector> 
13851
(
(0 -0.0241396 0)
(0 -0.0290486 0)
(0 -0.0303521 0)
(0 -0.0236956 0)
(0 -0.0304806 0)
(0 -0.0241106 0)
(0 -0.0234379 0)
(0 -0.030167 0)
(0 -0.0085985 0)
(0 -0.0301593 0)
(0 -0.00431572 0)
(0 -0.0302453 0)
(0 -0.0306011 0)
(0 -0.030592 0)
(0 -0.00590487 0)
(0 -0.0294965 0)
(0 -0.0289776 0)
(0 -0.0273689 0)
(0 -0.0305844 0)
(0 -0.00850997 0)
(0 -0.0235354 0)
(0 -0.0303645 0)
(0 -0.00034491 0)
(0 -0.00112899 0)
(0 -0.000253167 0)
(0 -0.0301591 0)
(0 -0.0291037 0)
(0 -0.0306163 0)
(0 -0.0241403 0)
(0 -0.027356 0)
(0 -0.024025 0)
(0 -0.0290786 0)
(0 -0.0303283 0)
(0 -0.0139997 0)
(0 -0.00138102 0)
(0 -0.0305971 0)
(0 -0.0306084 0)
(0 -0.0305231 0)
(0 -0.0301815 0)
(0 -0.0138217 0)
(0 -0.0195694 0)
(0 -0.000895296 0)
(0 -0.0306163 0)
(0 -0.00454976 0)
(0 -0.00445723 0)
(0 -0.0306128 0)
(0 -0.00466326 0)
(0 -0.0211209 0)
(0 -0.0291942 0)
(0 -0.0122128 0)
(0 -0.0305106 0)
(0 -0.030573 0)
(0 -0.0306164 0)
(0 -0.00410374 0)
(0 -0.00294938 0)
(0 -0.000887038 0)
(0 -0.00115008 0)
(0 -0.0306161 0)
(0 -0.027193 0)
(0 -0.0242589 0)
(0 -0.030518 0)
(0 -0.0305903 0)
(0 -0.0273986 0)
(0 -0.0305148 0)
(0 -0.0291309 0)
(0 -0.0243708 0)
(0 -0.0306096 0)
(0 -0.00483185 0)
(0 -0.0301372 0)
(0 -0.0272548 0)
(0 -0.0306164 0)
(0 -0.0306115 0)
(0 -0.0290711 0)
(0 -0.00421376 0)
(0 -0.00478749 0)
(0 -0.0108188 0)
(0 -0.0303566 0)
(0 -0.0306163 0)
(0 -0.0303171 0)
(0 -0.0306164 0)
(0 -0.0259993 0)
(0 -0.000387434 0)
(0 -0.0181055 0)
(0 -0.0306146 0)
(0 -0.0275369 0)
(0 -0.0302264 0)
(0 -0.023648 0)
(0 -0.0296996 0)
(0 -0.0293142 0)
(0 -0.00587168 0)
(0 -0.0305955 0)
(0 -0.0204704 0)
(0 -0.00495763 0)
(0 -0.0296859 0)
(0 -0.0292828 0)
(0 -0.000835186 0)
(0 -0.0304932 0)
(0 -0.0306117 0)
(0 -0.0121868 0)
(0 -0.00064724 0)
(0 -0.0306089 0)
(0 -0.0303874 0)
(0 -0.024273 0)
(0 -0.0291585 0)
(0 -6.55474e-05 0)
(0 -0.0231464 0)
(0 -0.0304359 0)
(0 -0.000468641 0)
(0 -0.0306132 0)
(0 -0.0243113 0)
(0 -0.00076556 0)
(0 -0.00601466 0)
(0 -0.0203983 0)
(0 -0.000303232 0)
(0 -0.000967379 0)
(0 -0.0252315 0)
(0 -0.0306107 0)
(0 -0.000585999 0)
(0 -0.00152972 0)
(0 -0.00231098 0)
(0 -0.0306164 0)
(0 -0.0291071 0)
(0 -0.0306014 0)
(0 -0.0201524 0)
(0 -0.021045 0)
(0 -0.00361211 0)
(0 -0.0208252 0)
(0 -0.0303557 0)
(0 -0.0232552 0)
(0 -0.0305378 0)
(0 -0.019202 0)
(0 -0.00725359 0)
(0 -0.0306164 0)
(0 -0.017736 0)
(0 -0.0250892 0)
(0 -0.00327687 0)
(0 -0.000538877 0)
(0 -0.0306112 0)
(0 -0.0305682 0)
(0 -0.0305134 0)
(0 -0.0306097 0)
(0 -0.00265795 0)
(0 -0.014328 0)
(0 -0.00196913 0)
(0 -0.0279509 0)
(0 -0.00468562 0)
(0 -0.000250539 0)
(0 -0.0305343 0)
(0 -0.0230684 0)
(0 -0.00432261 0)
(0 -0.0305354 0)
(0 -0.00273204 0)
(0 -0.0305948 0)
(0 -0.00111123 0)
(0 -0.0281488 0)
(0 -0.0278456 0)
(0 -0.0142723 0)
(0 -0.0269869 0)
(0 -0.0305732 0)
(0 -0.0305025 0)
(0 -0.000183853 0)
(0 -0.0297938 0)
(0 -0.0306162 0)
(0 -0.00701239 0)
(0 -0.0284522 0)
(0 -0.00155791 0)
(0 -0.000317075 0)
(0 -0.0301653 0)
(0 -0.0230815 0)
(0 -0.0306124 0)
(0 -0.0306164 0)
(0 -0.00409167 0)
(0 -0.0145307 0)
(0 -0.0305233 0)
(0 -0.00650783 0)
(0 -0.0213338 0)
(0 -0.0303369 0)
(0 -0.015151 0)
(0 -0.0305888 0)
(0 -0.000477063 0)
(0 -0.0291962 0)
(0 -0.0306118 0)
(0 -0.0168842 0)
(0 -0.0303851 0)
(0 -5.71029e-05 0)
(0 -0.000557783 0)
(0 -0.0245619 0)
(0 -0.0031945 0)
(0 -0.0304922 0)
(0 -0.0298228 0)
(0 -0.00479352 0)
(0 -0.0306163 0)
(0 -0.00616563 0)
(0 -0.0301069 0)
(0 -0.0305864 0)
(0 -0.0279521 0)
(0 -0.014126 0)
(0 -0.0130606 0)
(0 -0.0149111 0)
(0 -0.0110622 0)
(0 -0.00372264 0)
(0 -0.0306091 0)
(0 -0.00086532 0)
(0 -0.0171895 0)
(0 -0.0298996 0)
(0 -0.0175514 0)
(0 -0.0305136 0)
(0 -0.0290984 0)
(0 -0.0306163 0)
(0 -0.000300784 0)
(0 -0.0306148 0)
(0 -0.0240218 0)
(0 -0.0130169 0)
(0 -0.000304592 0)
(0 -0.00170673 0)
(0 -0.00396993 0)
(0 -0.027723 0)
(0 -0.030613 0)
(0 -0.0101191 0)
(0 -0.0306162 0)
(0 -0.0291585 0)
(0 -0.0262537 0)
(0 -0.0306132 0)
(0 -0.0305581 0)
(0 -0.0306156 0)
(0 -0.000342508 0)
(0 -0.0298586 0)
(0 -5.47647e-05 0)
(0 -0.0306162 0)
(0 -0.000281888 0)
(0 -0.0301197 0)
(0 -0.0285876 0)
(0 -0.00380553 0)
(0 -0.00602887 0)
(0 -0.0304898 0)
(0 -0.0283864 0)
(0 -0.0305152 0)
(0 -0.0291789 0)
(0 -0.00188238 0)
(0 -0.0174936 0)
(0 -0.0238185 0)
(0 -0.0116286 0)
(0 -0.0002648 0)
(0 -0.0299257 0)
(0 -9.67136e-05 0)
(0 -0.0306159 0)
(0 -0.0303946 0)
(0 -0.0135591 0)
(0 -0.0278114 0)
(0 -0.0288591 0)
(0 -0.0179639 0)
(0 -0.0115632 0)
(0 -0.0258036 0)
(0 -0.0279182 0)
(0 -0.0304317 0)
(0 -0.026726 0)
(0 -0.0297695 0)
(0 -0.0306116 0)
(0 -0.0306164 0)
(0 -0.0157424 0)
(0 -0.00179152 0)
(0 -0.0269609 0)
(0 -0.0243727 0)
(0 -0.00321421 0)
(0 -0.0305851 0)
(0 -0.0279164 0)
(0 -0.0256628 0)
(0 -0.0296389 0)
(0 -0.0306124 0)
(0 -0.00650006 0)
(0 -0.0177943 0)
(0 -0.0281228 0)
(0 -0.0244326 0)
(0 -0.0302928 0)
(0 -0.0294259 0)
(0 -0.00773989 0)
(0 -0.000294877 0)
(0 -0.00344005 0)
(0 -0.0306154 0)
(0 -0.00418856 0)
(0 -0.000193255 0)
(0 -0.000191029 0)
(0 -5.34864e-05 0)
(0 -0.0304168 0)
(0 -0.0242402 0)
(0 -0.0216191 0)
(0 -0.0100987 0)
(0 -0.00988058 0)
(0 -0.024291 0)
(0 -0.000144256 0)
(0 -0.0305414 0)
(0 -0.0271375 0)
(0 -0.0244707 0)
(0 -0.0301969 0)
(0 -0.000268687 0)
(0 -0.0305869 0)
(0 -0.0285146 0)
(0 -0.0301941 0)
(0 -0.00846854 0)
(0 -0.0306158 0)
(0 -0.0297505 0)
(0 -0.028904 0)
(0 -0.0306154 0)
(0 -0.0232255 0)
(0 -0.0233603 0)
(0 -0.0306151 0)
(0 -0.00979296 0)
(0 -0.0303484 0)
(0 -0.0296912 0)
(0 -0.0269592 0)
(0 -0.0305688 0)
(0 -0.0285615 0)
(0 -0.02544 0)
(0 -0.0306127 0)
(0 -0.00109969 0)
(0 -0.0289537 0)
(0 -0.0039421 0)
(0 -0.0306152 0)
(0 -0.0305808 0)
(0 -0.0110673 0)
(0 -0.0304145 0)
(0 -0.0109485 0)
(0 -0.0306164 0)
(0 -0.0183407 0)
(0 -0.00042708 0)
(0 -0.0164829 0)
(0 -0.0305782 0)
(0 -0.0298048 0)
(0 -0.0281414 0)
(0 -0.00922279 0)
(0 -0.0230289 0)
(0 -0.0252644 0)
(0 -0.00436058 0)
(0 -0.0306028 0)
(0 -0.030609 0)
(0 -0.0269692 0)
(0 -0.0306151 0)
(0 -0.0305521 0)
(0 -0.00557941 0)
(0 -0.030121 0)
(0 -0.0305388 0)
(0 -0.0209015 0)
(0 -0.0284538 0)
(0 -0.0305662 0)
(0 -0.0305834 0)
(0 -0.0191228 0)
(0 -0.0242136 0)
(0 -0.0306155 0)
(0 -0.0050481 0)
(0 -0.00488755 0)
(0 -0.00480509 0)
(0 -0.030445 0)
(0 -0.0281259 0)
(0 -0.0284909 0)
(0 -0.0306161 0)
(0 -0.0149394 0)
(0 -0.0240831 0)
(0 -0.0163113 0)
(0 -0.0101911 0)
(0 -0.000103344 0)
(0 -0.000453501 0)
(0 -0.0132365 0)
(0 -0.0306152 0)
(0 -0.0086387 0)
(0 -0.0203904 0)
(0 -0.0303248 0)
(0 -0.00123094 0)
(0 -0.0301811 0)
(0 -0.0294929 0)
(0 -0.0216158 0)
(0 -0.0306113 0)
(0 -0.0206242 0)
(0 -0.0277974 0)
(0 -0.0296535 0)
(0 -0.0215341 0)
(0 -0.0181483 0)
(0 -0.000639685 0)
(0 -0.0191304 0)
(0 -0.0306099 0)
(0 -0.00391949 0)
(0 -0.0305627 0)
(0 -0.0207264 0)
(0 -0.0305717 0)
(0 -0.0306128 0)
(0 -0.00479445 0)
(0 -0.00489019 0)
(0 -0.0167592 0)
(0 -0.00793135 0)
(0 -0.00292527 0)
(0 -0.0268455 0)
(0 -0.0304142 0)
(0 -0.0305885 0)
(0 -0.030182 0)
(0 -0.0306153 0)
(0 -0.0306153 0)
(0 -0.00129527 0)
(0 -0.0164013 0)
(0 -0.0306104 0)
(0 -0.0306164 0)
(0 -0.0284969 0)
(0 -0.030611 0)
(0 -0.0191492 0)
(0 -0.0297133 0)
(0 -0.000532033 0)
(0 -0.0305487 0)
(0 -0.00628561 0)
(0 -0.0295131 0)
(0 -0.0166435 0)
(0 -0.0224436 0)
(0 -4.61893e-05 0)
(0 -0.00950988 0)
(0 -0.00148499 0)
(0 -0.0305149 0)
(0 -0.0286631 0)
(0 -0.0306162 0)
(0 -0.0270911 0)
(0 -0.0304323 0)
(0 -0.0244168 0)
(0 -0.0113513 0)
(0 -0.0289514 0)
(0 -0.0304361 0)
(0 -0.0287984 0)
(0 -0.00384065 0)
(0 -0.000484237 0)
(0 -0.00920756 0)
(0 -0.000428372 0)
(0 -0.03052 0)
(0 -0.0117524 0)
(0 -0.030549 0)
(0 -0.0244953 0)
(0 -0.0306163 0)
(0 -0.0141682 0)
(0 -0.0234377 0)
(0 -0.00205416 0)
(0 -0.0304957 0)
(0 -0.0177247 0)
(0 -0.0112867 0)
(0 -0.000124631 0)
(0 -0.0303889 0)
(0 -0.0111318 0)
(0 -0.0302732 0)
(0 -0.0306163 0)
(0 -0.0148539 0)
(0 -0.00312025 0)
(0 -0.0112247 0)
(0 -0.0306097 0)
(0 -7.95708e-05 0)
(0 -0.0298262 0)
(0 -0.0303364 0)
(0 -0.00645748 0)
(0 -0.00523975 0)
(0 -0.0252217 0)
(0 -0.0305266 0)
(0 -0.0305697 0)
(0 -0.0274335 0)
(0 -0.0301263 0)
(0 -0.00044256 0)
(0 -0.0168853 0)
(0 -0.0306162 0)
(0 -0.0284571 0)
(0 -0.000173372 0)
(0 -0.029698 0)
(0 -0.0076638 0)
(0 -0.0239599 0)
(0 -0.00650944 0)
(0 -0.029003 0)
(0 -0.0264691 0)
(0 -0.000271471 0)
(0 -0.014622 0)
(0 -0.0306118 0)
(0 -0.0187217 0)
(0 -0.0302273 0)
(0 -0.00364556 0)
(0 -0.0221784 0)
(0 -0.0034847 0)
(0 -0.000278291 0)
(0 -0.0185669 0)
(0 -0.000565772 0)
(0 -0.000527553 0)
(0 -0.0216892 0)
(0 -0.0256389 0)
(0 -0.0237792 0)
(0 -0.0164664 0)
(0 -0.000697653 0)
(0 -0.0306043 0)
(0 -0.0306163 0)
(0 -0.0184014 0)
(0 -0.0221466 0)
(0 -0.0290338 0)
(0 -0.0118608 0)
(0 -0.0306142 0)
(0 -0.0170438 0)
(0 -0.00847174 0)
(0 -0.018475 0)
(0 -0.0304545 0)
(0 -0.0233472 0)
(0 -0.0306157 0)
(0 -0.000339974 0)
(0 -0.0306163 0)
(0 -0.0296776 0)
(0 -0.000963585 0)
(0 -0.0218945 0)
(0 -0.0306133 0)
(0 -0.0301171 0)
(0 -0.00589337 0)
(0 -0.00192299 0)
(0 -0.0196408 0)
(0 -0.00228752 0)
(0 -0.00590189 0)
(0 -0.00845137 0)
(0 -0.0221862 0)
(0 -0.0306163 0)
(0 -0.0304796 0)
(0 -0.0305805 0)
(0 -0.0305973 0)
(0 -0.0275883 0)
(0 -0.000235837 0)
(0 -0.0305947 0)
(0 -0.0117124 0)
(0 -0.0292566 0)
(0 -0.029804 0)
(0 -0.0118967 0)
(0 -0.0201127 0)
(0 -0.0306144 0)
(0 -0.00282182 0)
(0 -0.0306154 0)
(0 -0.0306134 0)
(0 -0.0306095 0)
(0 -0.0285502 0)
(0 -0.0218959 0)
(0 -0.0207795 0)
(0 -0.00324494 0)
(0 -0.0265656 0)
(0 -0.0131222 0)
(0 -0.0304148 0)
(0 -0.0270392 0)
(0 -0.0304315 0)
(0 -0.0306112 0)
(0 -0.000385651 0)
(0 -0.00331272 0)
(0 -0.0304892 0)
(0 -0.0306164 0)
(0 -0.0278773 0)
(0 -0.0141357 0)
(0 -0.0138548 0)
(0 -0.0186898 0)
(0 -0.0304929 0)
(0 -0.0285613 0)
(0 -0.0296499 0)
(0 -0.0300989 0)
(0 -0.00299214 0)
(0 -0.0306163 0)
(0 -0.0306163 0)
(0 -0.0230941 0)
(0 -0.0115147 0)
(0 -0.0302036 0)
(0 -0.000141594 0)
(0 -0.00894309 0)
(0 -0.000373017 0)
(0 -0.0305978 0)
(0 -0.0282627 0)
(0 -0.0305573 0)
(0 -0.0305955 0)
(0 -0.000816898 0)
(0 -0.0244915 0)
(0 -0.0202301 0)
(0 -0.0304374 0)
(0 -0.0305584 0)
(0 -0.0306163 0)
(0 -0.0306115 0)
(0 -0.0188748 0)
(0 -0.0226093 0)
(0 -0.0296666 0)
(0 -0.0306154 0)
(0 -0.0305828 0)
(0 -0.0301789 0)
(0 -0.0273412 0)
(0 -0.000499438 0)
(0 -0.0136419 0)
(0 -0.0304077 0)
(0 -0.000753652 0)
(0 -0.0277663 0)
(0 -0.000410564 0)
(0 -0.00602283 0)
(0 -0.0306116 0)
(0 -0.0305045 0)
(0 -0.0243451 0)
(0 -0.000692456 0)
(0 -0.0305625 0)
(0 -0.0128604 0)
(0 -0.00876005 0)
(0 -0.0011368 0)
(0 -0.0033365 0)
(0 -0.00365977 0)
(0 -0.0306109 0)
(0 -0.0133704 0)
(0 -0.0132168 0)
(0 -0.0306084 0)
(0 -0.0194718 0)
(0 -0.0301197 0)
(0 -0.0306164 0)
(0 -0.0306163 0)
(0 -0.0193111 0)
(0 -0.030148 0)
(0 -0.000106848 0)
(0 -0.00382562 0)
(0 -0.0296955 0)
(0 -0.0306092 0)
(0 -0.0241652 0)
(0 -0.0305533 0)
(0 -0.029639 0)
(0 -0.00790441 0)
(0 -0.029354 0)
(0 -0.0133154 0)
(0 -0.00598987 0)
(0 -0.0304984 0)
(0 -0.0157674 0)
(0 -0.027127 0)
(0 -0.00511871 0)
(0 -0.0296301 0)
(0 -0.0305488 0)
(0 -0.0239045 0)
(0 -0.0174125 0)
(0 -0.0295554 0)
(0 -0.0237943 0)
(0 -0.03048 0)
(0 -0.0305081 0)
(0 -0.0305539 0)
(0 -0.0292803 0)
(0 -0.0305854 0)
(0 -0.00758862 0)
(0 -0.0283613 0)
(0 -0.0182246 0)
(0 -0.0306091 0)
(0 -0.0239681 0)
(0 -0.00084925 0)
(0 -0.0306128 0)
(0 -0.0263691 0)
(0 -0.0306135 0)
(0 -0.0306157 0)
(0 -0.030614 0)
(0 -0.0296527 0)
(0 -0.00617756 0)
(0 -0.030612 0)
(0 -0.00020046 0)
(0 -0.00677766 0)
(0 -0.00029927 0)
(0 -0.00664358 0)
(0 -0.00011699 0)
(0 -0.0270494 0)
(0 -0.0289206 0)
(0 -0.000636715 0)
(0 -0.0305228 0)
(0 -0.0297341 0)
(0 -0.0305316 0)
(0 -0.0127694 0)
(0 -0.000194646 0)
(0 -0.000473825 0)
(0 -0.0305286 0)
(0 -0.0305778 0)
(0 -0.0304517 0)
(0 -0.0296648 0)
(0 -0.000262926 0)
(0 -0.000653459 0)
(0 -0.00211843 0)
(0 -0.0149609 0)
(0 -0.0306028 0)
(0 -0.0303727 0)
(0 -0.0235001 0)
(0 -0.000580756 0)
(0 -0.022327 0)
(0 -0.01481 0)
(0 -0.0303578 0)
(0 -0.0306163 0)
(0 -0.0294198 0)
(0 -0.030611 0)
(0 -0.019854 0)
(0 -0.0169791 0)
(0 -0.0305772 0)
(0 -0.0306091 0)
(0 -0.0301866 0)
(0 -0.0302716 0)
(0 -0.0258985 0)
(0 -0.0271033 0)
(0 -0.0304403 0)
(0 -0.0269481 0)
(0 -0.0129694 0)
(0 -0.0177897 0)
(0 -0.0205587 0)
(0 -0.000104912 0)
(0 -0.0300933 0)
(0 -0.0306163 0)
(0 -0.0107703 0)
(0 -0.0256389 0)
(0 -0.0271968 0)
(0 -0.00637902 0)
(0 -0.0291036 0)
(0 -0.0242711 0)
(0 -0.0305539 0)
(0 -0.0304891 0)
(0 -0.03058 0)
(0 -0.00478691 0)
(0 -0.000368726 0)
(0 -0.0123261 0)
(0 -0.0306044 0)
(0 -0.0305939 0)
(0 -0.0284708 0)
(0 -0.0306156 0)
(0 -0.0072204 0)
(0 -0.00138096 0)
(0 -0.000433469 0)
(0 -0.0192565 0)
(0 -0.0306091 0)
(0 -0.0282396 0)
(0 -0.0222681 0)
(0 -0.00361082 0)
(0 -0.0290803 0)
(0 -0.000493356 0)
(0 -0.0306162 0)
(0 -0.0268156 0)
(0 -0.0306159 0)
(0 -0.00103195 0)
(0 -0.0233447 0)
(0 -0.0306164 0)
(0 -0.0306164 0)
(0 -0.0305926 0)
(0 -0.0131217 0)
(0 -0.0306132 0)
(0 -0.017996 0)
(0 -0.00379008 0)
(0 -0.0304295 0)
(0 -0.0302919 0)
(0 -0.0287103 0)
(0 -0.0306138 0)
(0 -0.0171726 0)
(0 -0.0125758 0)
(0 -0.0306075 0)
(0 -0.000931521 0)
(0 -0.000477413 0)
(0 -0.0266658 0)
(0 -0.00735898 0)
(0 -0.0306161 0)
(0 -0.0296742 0)
(0 -0.0305636 0)
(0 -0.0244359 0)
(0 -0.00349817 0)
(0 -0.00816094 0)
(0 -0.0243914 0)
(0 -0.00157153 0)
(0 -0.017015 0)
(0 -0.000258011 0)
(0 -0.0162295 0)
(0 -0.00340964 0)
(0 -0.0306153 0)
(0 -0.0136831 0)
(0 -0.000843509 0)
(0 -0.020771 0)
(0 -0.0230512 0)
(0 -0.0306163 0)
(0 -0.000137503 0)
(0 -0.0138388 0)
(0 -0.0305144 0)
(0 -0.0303443 0)
(0 -0.00890857 0)
(0 -0.00241331 0)
(0 -0.0244512 0)
(0 -0.0306094 0)
(0 -0.0257816 0)
(0 -0.0306142 0)
(0 -0.0300649 0)
(0 -0.00683761 0)
(0 -0.0129444 0)
(0 -0.0306163 0)
(0 -0.0243362 0)
(0 -0.0287575 0)
(0 -0.00266009 0)
(0 -0.000526542 0)
(0 -0.0114453 0)
(0 -0.0303002 0)
(0 -0.0293442 0)
(0 -0.0284003 0)
(0 -0.0128205 0)
(0 -0.00349168 0)
(0 -0.0135976 0)
(0 -0.0305564 0)
(0 -0.0121915 0)
(0 -0.0304802 0)
(0 -0.0242933 0)
(0 -0.0229994 0)
(0 -0.0304674 0)
(0 -0.0305352 0)
(0 -0.030615 0)
(0 -0.0281358 0)
(0 -0.030491 0)
(0 -0.0305949 0)
(0 -0.0232234 0)
(0 -0.0306139 0)
(0 -0.0283049 0)
(0 -0.0305943 0)
(0 -0.0305598 0)
(0 -0.0306142 0)
(0 -0.00792127 0)
(0 -0.0298342 0)
(0 -0.00704456 0)
(0 -0.0266818 0)
(0 -0.0306159 0)
(0 -0.0306145 0)
(0 -0.0153962 0)
(0 -0.000484928 0)
(0 -0.0304944 0)
(0 -0.000286943 0)
(0 -0.00109938 0)
(0 -0.0306164 0)
(0 -0.00693285 0)
(0 -0.0203911 0)
(0 -0.0306161 0)
(0 -0.0306164 0)
(0 -0.00487025 0)
(0 -0.00712678 0)
(0 -0.00996711 0)
(0 -0.0306164 0)
(0 -0.0306012 0)
(0 -0.0305784 0)
(0 -0.0192205 0)
(0 -0.0306083 0)
(0 -0.0304478 0)
(0 -0.0305763 0)
(0 -0.0304225 0)
(0 -0.0303058 0)
(0 -0.0253749 0)
(0 -0.0231257 0)
(0 -0.0290015 0)
(0 -0.0304352 0)
(0 -0.0306164 0)
(0 -0.0189667 0)
(0 -0.0301523 0)
(0 -0.0306159 0)
(0 -0.0305976 0)
(0 -0.0306163 0)
(0 -0.0199288 0)
(0 -0.0300638 0)
(0 -0.00849952 0)
(0 -0.0293504 0)
(0 -0.0254748 0)
(0 -0.0303052 0)
(0 -0.000925949 0)
(0 -0.0306162 0)
(0 -0.00109084 0)
(0 -0.030507 0)
(0 -0.0156249 0)
(0 -0.0304349 0)
(0 -0.0301534 0)
(0 -0.0300381 0)
(0 -0.0306118 0)
(0 -0.030355 0)
(0 -0.029005 0)
(0 -0.00102466 0)
(0 -0.0305056 0)
(0 -0.0214029 0)
(0 -0.027747 0)
(0 -0.0277129 0)
(0 -0.0306164 0)
(0 -0.00311582 0)
(0 -0.030559 0)
(0 -0.008394 0)
(0 -0.0239105 0)
(0 -0.0306151 0)
(0 -0.030609 0)
(0 -0.0306163 0)
(0 -0.00777048 0)
(0 -0.0187371 0)
(0 -0.0157051 0)
(0 -0.030616 0)
(0 -0.00163671 0)
(0 -0.025282 0)
(0 -0.0306163 0)
(0 -0.0128647 0)
(0 -0.0282599 0)
(0 -0.0305254 0)
(0 -0.0127139 0)
(0 -0.03048 0)
(0 -0.0231061 0)
(0 -0.00139855 0)
(0 -0.0294003 0)
(0 -0.0306163 0)
(0 -0.0305597 0)
(0 -0.0286411 0)
(0 -0.0190155 0)
(0 -0.00823889 0)
(0 -0.0306156 0)
(0 -0.0305391 0)
(0 -0.000902833 0)
(0 -0.0298865 0)
(0 -0.00632874 0)
(0 -0.00157549 0)
(0 -0.00480419 0)
(0 -0.000518031 0)
(0 -0.0304347 0)
(0 -0.0110635 0)
(0 -0.0206427 0)
(0 -0.0145666 0)
(0 -0.015967 0)
(0 -0.0267987 0)
(0 -0.0306164 0)
(0 -0.0306127 0)
(0 -0.0298169 0)
(0 -0.0305002 0)
(0 -0.0153564 0)
(0 -0.029781 0)
(0 -0.0153207 0)
(0 -0.00655079 0)
(0 -0.0229114 0)
(0 -0.0203956 0)
(0 -0.0306164 0)
(0 -0.0187866 0)
(0 -0.0304374 0)
(0 -0.0202486 0)
(0 -0.0288403 0)
(0 -0.00489679 0)
(0 -0.0306163 0)
(0 -0.00175618 0)
(0 -0.0297128 0)
(0 -0.029397 0)
(0 -0.0306028 0)
(0 -0.0297239 0)
(0 -0.0298732 0)
(0 -0.0306164 0)
(0 -0.0296397 0)
(0 -0.0284171 0)
(0 -0.0302852 0)
(0 -0.0250793 0)
(0 -0.0306164 0)
(0 -0.0301345 0)
(0 -0.00427102 0)
(0 -0.0236699 0)
(0 -0.0303318 0)
(0 -0.0304025 0)
(0 -0.0304894 0)
(0 -0.00200438 0)
(0 -0.030512 0)
(0 -0.0120512 0)
(0 -0.0130381 0)
(0 -0.0305848 0)
(0 -0.00387983 0)
(0 -0.0305925 0)
(0 -0.0288095 0)
(0 -0.00870303 0)
(0 -0.0245645 0)
(0 -0.00875493 0)
(0 -0.0105153 0)
(0 -0.000312906 0)
(0 -0.0256075 0)
(0 -0.0306059 0)
(0 -0.013139 0)
(0 -0.0306007 0)
(0 -0.0306158 0)
(0 -0.029819 0)
(0 -0.0305548 0)
(0 -0.022709 0)
(0 -0.00123863 0)
(0 -0.0040526 0)
(0 -0.018897 0)
(0 -0.00797992 0)
(0 -0.0305319 0)
(0 -0.0263409 0)
(0 -0.0108964 0)
(0 -0.0225039 0)
(0 -0.000325368 0)
(0 -0.0306163 0)
(0 -0.0303558 0)
(0 -0.0276166 0)
(0 -0.0306122 0)
(0 -0.0306043 0)
(0 -0.0140035 0)
(0 -0.0176959 0)
(0 -0.0296417 0)
(0 -0.0129612 0)
(0 -0.00801915 0)
(0 -0.0225435 0)
(0 -0.0150786 0)
(0 -0.00498719 0)
(0 -0.00462962 0)
(0 -0.0125204 0)
(0 -0.0306154 0)
(0 -0.00359257 0)
(0 -0.0305987 0)
(0 -0.0296179 0)
(0 -0.0289755 0)
(0 -0.000329116 0)
(0 -0.00732687 0)
(0 -0.0304199 0)
(0 -0.0281887 0)
(0 -0.0217636 0)
(0 -0.0105009 0)
(0 -0.0168477 0)
(0 -0.0207392 0)
(0 -0.0240607 0)
(0 -0.0303798 0)
(0 -0.00815658 0)
(0 -0.0292268 0)
(0 -0.0305926 0)
(0 -0.0102737 0)
(0 -0.000580199 0)
(0 -0.0198281 0)
(0 -0.0279881 0)
(0 -0.0224155 0)
(0 -0.0291221 0)
(0 -0.0304405 0)
(0 -0.030163 0)
(0 -0.02656 0)
(0 -0.0187657 0)
(0 -0.030336 0)
(0 -0.0109961 0)
(0 -0.0306162 0)
(0 -0.0306046 0)
(0 -0.0251907 0)
(0 -0.0305878 0)
(0 -0.00266641 0)
(0 -0.00278601 0)
(0 -0.0217405 0)
(0 -0.00584321 0)
(0 -0.0115261 0)
(0 -0.00374727 0)
(0 -0.000293662 0)
(0 -0.0102759 0)
(0 -0.0305214 0)
(0 -0.00147436 0)
(0 -0.0100014 0)
(0 -0.0264379 0)
(0 -0.0300511 0)
(0 -0.0306083 0)
(0 -0.0285337 0)
(0 -0.0273308 0)
(0 -0.00365031 0)
(0 -0.0304503 0)
(0 -0.0305814 0)
(0 -0.0275407 0)
(0 -0.0306139 0)
(0 -0.0305207 0)
(0 -0.0305371 0)
(0 -0.00200022 0)
(0 -0.0303629 0)
(0 -0.0145937 0)
(0 -0.000401185 0)
(0 -0.0214365 0)
(0 -0.0306163 0)
(0 -0.03058 0)
(0 -0.0119392 0)
(0 -0.0291641 0)
(0 -0.00366362 0)
(0 -0.0152302 0)
(0 -7.29265e-05 0)
(0 -0.0228491 0)
(0 -0.0176045 0)
(0 -0.0255035 0)
(0 -0.000208804 0)
(0 -0.0300211 0)
(0 -0.0286223 0)
(0 -0.0306163 0)
(0 -0.00054105 0)
(0 -0.0291926 0)
(0 -0.000227975 0)
(0 -0.0305288 0)
(0 -0.0302011 0)
(0 -0.0306135 0)
(0 -0.03056 0)
(0 -0.0305343 0)
(0 -0.0305027 0)
(0 -0.0306162 0)
(0 -0.0101495 0)
(0 -0.0306075 0)
(0 -0.000973486 0)
(0 -0.0301615 0)
(0 -0.00139688 0)
(0 -0.0278248 0)
(0 -0.0296644 0)
(0 -0.0239373 0)
(0 -0.0306163 0)
(0 -0.0295325 0)
(0 -0.029638 0)
(0 -0.0080022 0)
(0 -0.0305805 0)
(0 -0.0214741 0)
(0 -0.0107752 0)
(0 -0.0288066 0)
(0 -0.0283642 0)
(0 -0.00300087 0)
(0 -0.0266473 0)
(0 -0.0294026 0)
(0 -0.0191261 0)
(0 -0.0284644 0)
(0 -0.00693424 0)
(0 -0.029689 0)
(0 -0.0194333 0)
(0 -0.0202844 0)
(0 -0.0306099 0)
(0 -0.0279199 0)
(0 -0.00269485 0)
(0 -0.0259402 0)
(0 -0.0306151 0)
(0 -0.0300773 0)
(0 -0.0303834 0)
(0 -0.0305867 0)
(0 -0.0177034 0)
(0 -0.00191236 0)
(0 -0.0306095 0)
(0 -0.0264818 0)
(0 -0.0302705 0)
(0 -0.0297524 0)
(0 -0.0306146 0)
(0 -0.00575585 0)
(0 -0.0305339 0)
(0 -0.0286019 0)
(0 -0.0244848 0)
(0 -0.022395 0)
(0 -0.0203822 0)
(0 -0.0306164 0)
(0 -0.0285859 0)
(0 -0.0306163 0)
(0 -0.00381126 0)
(0 -0.0296308 0)
(0 -0.0305875 0)
(0 -0.027763 0)
(0 -0.0306145 0)
(0 -0.0306017 0)
(0 -0.000314071 0)
(0 -0.0298042 0)
(0 -0.0306162 0)
(0 -0.0298531 0)
(0 -0.0306127 0)
(0 -0.00378636 0)
(0 -0.0202934 0)
(0 -0.0306164 0)
(0 -0.0305791 0)
(0 -0.0306157 0)
(0 -0.00287595 0)
(0 -0.0224867 0)
(0 -0.0206322 0)
(0 -0.0306163 0)
(0 -0.0305904 0)
(0 -0.0254964 0)
(0 -0.0224513 0)
(0 -0.030326 0)
(0 -0.0304975 0)
(0 -0.0306088 0)
(0 -0.021692 0)
(0 -0.0167207 0)
(0 -0.0306128 0)
(0 -0.029194 0)
(0 -0.0183202 0)
(0 -0.0305848 0)
(0 -0.0305827 0)
(0 -0.0237141 0)
(0 -0.0119543 0)
(0 -0.0306163 0)
(0 -0.0306141 0)
(0 -0.00350472 0)
(0 -0.00715905 0)
(0 -0.0305036 0)
(0 -0.000374731 0)
(0 -0.000283615 0)
(0 -0.00636222 0)
(0 -0.020015 0)
(0 -0.0202174 0)
(0 -0.0304463 0)
(0 -0.0284914 0)
(0 -0.0306103 0)
(0 -0.027666 0)
(0 -0.0306163 0)
(0 -0.0110231 0)
(0 -0.0305049 0)
(0 -0.0305957 0)
(0 -0.030521 0)
(0 -0.0180381 0)
(0 -0.0144618 0)
(0 -0.0305094 0)
(0 -0.000462638 0)
(0 -0.0111819 0)
(0 -0.00289869 0)
(0 -0.0152307 0)
(0 -0.0166844 0)
(0 -0.0306078 0)
(0 -0.0122284 0)
(0 -0.0127763 0)
(0 -0.0306163 0)
(0 -0.0302013 0)
(0 -0.0304177 0)
(0 -0.027677 0)
(0 -0.00428635 0)
(0 -0.00797571 0)
(0 -0.0301112 0)
(0 -0.0306106 0)
(0 -0.0306056 0)
(0 -0.00344147 0)
(0 -0.0304834 0)
(0 -0.00759854 0)
(0 -0.0223881 0)
(0 -0.00742036 0)
(0 -0.0306162 0)
(0 -0.0301322 0)
(0 -0.0294893 0)
(0 -0.0305785 0)
(0 -0.0305121 0)
(0 -0.0256784 0)
(0 -0.0306102 0)
(0 -0.0306124 0)
(0 -0.0182813 0)
(0 -0.00402095 0)
(0 -0.0115877 0)
(0 -0.0292669 0)
(0 -0.0304762 0)
(0 -0.000161916 0)
(0 -0.03058 0)
(0 -0.0145145 0)
(0 -0.00434514 0)
(0 -0.0303897 0)
(0 -0.0306162 0)
(0 -0.0261086 0)
(0 -0.0305915 0)
(0 -0.0280154 0)
(0 -0.0306163 0)
(0 -0.0228835 0)
(0 -0.0230602 0)
(0 -0.0180479 0)
(0 -0.028135 0)
(0 -0.0118237 0)
(0 -0.00551628 0)
(0 -0.0278378 0)
(0 -0.0306148 0)
(0 -0.030615 0)
(0 -0.0291175 0)
(0 -0.030614 0)
(0 -0.0291952 0)
(0 -0.0306162 0)
(0 -0.030615 0)
(0 -0.0300825 0)
(0 -0.00385809 0)
(0 -0.0149005 0)
(0 -0.00036973 0)
(0 -0.0127285 0)
(0 -0.0306028 0)
(0 -0.00317027 0)
(0 -0.0267872 0)
(0 -0.026304 0)
(0 -0.0305883 0)
(0 -0.0306149 0)
(0 -0.0306124 0)
(0 -0.0220682 0)
(0 -0.0306101 0)
(0 -0.0279982 0)
(0 -0.0285719 0)
(0 -0.00543776 0)
(0 -0.000371521 0)
(0 -0.030616 0)
(0 -0.0289767 0)
(0 -0.0306163 0)
(0 -0.0290293 0)
(0 -0.0222234 0)
(0 -0.0305753 0)
(0 -0.0055205 0)
(0 -0.0294881 0)
(0 -0.0232416 0)
(0 -0.0305906 0)
(0 -0.0152824 0)
(0 -0.027666 0)
(0 -0.0217836 0)
(0 -0.00261599 0)
(0 -0.0305905 0)
(0 -0.027012 0)
(0 -0.0297673 0)
(0 -0.00552216 0)
(0 -0.0297465 0)
(0 -0.0304469 0)
(0 -0.0306164 0)
(0 -0.0150602 0)
(0 -0.0303603 0)
(0 -5.63841e-05 0)
(0 -0.0271361 0)
(0 -0.00324198 0)
(0 -0.0305819 0)
(0 -0.0301439 0)
(0 -0.0301022 0)
(0 -0.0289451 0)
(0 -0.00299422 0)
(0 -0.0173968 0)
(0 -0.0186292 0)
(0 -0.0034278 0)
(0 -0.00963842 0)
(0 -0.0109589 0)
(0 -0.0138769 0)
(0 -0.0306138 0)
(0 -0.029567 0)
(0 -0.0241871 0)
(0 -0.0201278 0)
(0 -0.000217331 0)
(0 -0.0305068 0)
(0 -0.0306124 0)
(0 -0.030578 0)
(0 -0.0301711 0)
(0 -0.0203558 0)
(0 -0.0116763 0)
(0 -0.000133074 0)
(0 -0.0124947 0)
(0 -0.030585 0)
(0 -0.0306162 0)
(0 -0.000176934 0)
(0 -0.0285665 0)
(0 -0.0292072 0)
(0 -0.0306107 0)
(0 -0.0258123 0)
(0 -0.0266441 0)
(0 -0.0306163 0)
(0 -0.0276222 0)
(0 -0.0120363 0)
(0 -0.0306043 0)
(0 -0.0306147 0)
(0 -0.0204055 0)
(0 -0.00331188 0)
(0 -0.0166249 0)
(0 -0.0306157 0)
(0 -0.0305858 0)
(0 -0.030079 0)
(0 -0.0305754 0)
(0 -0.0306115 0)
(0 -0.0277532 0)
(0 -0.0306144 0)
(0 -0.0303689 0)
(0 -0.0213755 0)
(0 -0.0305865 0)
(0 -0.0305387 0)
(0 -0.00325439 0)
(0 -0.0306159 0)
(0 -0.0227793 0)
(0 -0.0156736 0)
(0 -0.00653907 0)
(0 -0.030577 0)
(0 -0.017265 0)
(0 -0.0305929 0)
(0 -0.0275865 0)
(0 -0.0277143 0)
(0 -0.0300587 0)
(0 -0.00898837 0)
(0 -0.0306069 0)
(0 -0.0306148 0)
(0 -0.00740666 0)
(0 -0.0267677 0)
(0 -0.0305873 0)
(0 -0.03052 0)
(0 -0.0306163 0)
(0 -0.0301666 0)
(0 -0.000352452 0)
(0 -0.0130252 0)
(0 -0.0199391 0)
(0 -0.00752591 0)
(0 -0.0264716 0)
(0 -0.0289321 0)
(0 -0.0161823 0)
(0 -0.0304049 0)
(0 -0.0301909 0)
(0 -0.0298299 0)
(0 -0.0130334 0)
(0 -0.000258848 0)
(0 -0.000244676 0)
(0 -0.0298279 0)
(0 -0.0297432 0)
(0 -0.0208713 0)
(0 -0.0304684 0)
(0 -0.0302436 0)
(0 -0.0297634 0)
(0 -0.0305135 0)
(0 -0.0303595 0)
(0 -0.0267674 0)
(0 -0.0306148 0)
(0 -0.0152004 0)
(0 -0.011168 0)
(0 -0.0306024 0)
(0 -0.0306091 0)
(0 -0.0306163 0)
(0 -0.023697 0)
(0 -0.0012874 0)
(0 -0.0306161 0)
(0 -0.00755834 0)
(0 -0.0109967 0)
(0 -0.0296503 0)
(0 -0.00532353 0)
(0 -0.0303141 0)
(0 -0.0305065 0)
(0 -0.0030714 0)
(0 -0.0306163 0)
(0 -0.0306064 0)
(0 -0.0279119 0)
(0 -0.0305882 0)
(0 -0.0306163 0)
(0 -0.0159976 0)
(0 -0.0291003 0)
(0 -0.0305721 0)
(0 -0.0306163 0)
(0 -0.028919 0)
(0 -0.0305299 0)
(0 -0.000226615 0)
(0 -0.00242687 0)
(0 -0.00568048 0)
(0 -0.0285559 0)
(0 -0.0306152 0)
(0 -0.0306115 0)
(0 -0.0306161 0)
(0 -0.0306108 0)
(0 -0.0281334 0)
(0 -0.0292028 0)
(0 -0.029668 0)
(0 -0.000311226 0)
(0 -0.0034187 0)
(0 -0.00742765 0)
(0 -0.0306094 0)
(0 -0.0121147 0)
(0 -0.0306142 0)
(0 -0.0291153 0)
(0 -0.0273077 0)
(0 -0.0304994 0)
(0 -0.0306048 0)
(0 -0.0306164 0)
(0 -0.0306108 0)
(0 -0.0302957 0)
(0 -0.00136023 0)
(0 -0.00496016 0)
(0 -0.0306097 0)
(0 -0.0306046 0)
(0 -0.0292055 0)
(0 -0.00563607 0)
(0 -0.0018477 0)
(0 -0.0302964 0)
(0 -0.0296043 0)
(0 -0.0305891 0)
(0 -0.0304334 0)
(0 -0.0281995 0)
(0 -0.00683634 0)
(0 -0.030582 0)
(0 -0.0114661 0)
(0 -0.0306164 0)
(0 -0.0272713 0)
(0 -0.00790349 0)
(0 -0.0304915 0)
(0 -0.021045 0)
(0 -0.0306155 0)
(0 -0.00189528 0)
(0 -0.0306161 0)
(0 -0.00327741 0)
(0 -0.0280653 0)
(0 -0.0264421 0)
(0 -0.00352978 0)
(0 -0.0269864 0)
(0 -0.0299005 0)
(0 -0.0303499 0)
(0 -0.0306157 0)
(0 -0.0306146 0)
(0 -0.0292734 0)
(0 -0.0297122 0)
(0 -0.0178396 0)
(0 -0.0306103 0)
(0 -0.0306151 0)
(0 -0.00181377 0)
(0 -0.00238433 0)
(0 -0.00775014 0)
(0 -0.000438916 0)
(0 -0.0306163 0)
(0 -9.86396e-05 0)
(0 -0.0275718 0)
(0 -0.0302332 0)
(0 -0.0267991 0)
(0 -0.0288211 0)
(0 -0.021921 0)
(0 -0.0225842 0)
(0 -0.0305207 0)
(0 -0.0306146 0)
(0 -0.0148145 0)
(0 -0.0262983 0)
(0 -0.0305981 0)
(0 -0.0270878 0)
(0 -0.0300981 0)
(0 -0.0290421 0)
(0 -0.0306162 0)
(0 -0.0296052 0)
(0 -0.0303585 0)
(0 -0.0147915 0)
(0 -0.00720749 0)
(0 -0.00736013 0)
(0 -0.0306157 0)
(0 -0.0306153 0)
(0 -0.0304139 0)
(0 -0.00396741 0)
(0 -0.0179427 0)
(0 -0.0118353 0)
(0 -0.0306164 0)
(0 -0.00805918 0)
(0 -0.0306149 0)
(0 -0.0306159 0)
(0 -0.0288966 0)
(0 -0.0303745 0)
(0 -0.0239902 0)
(0 -0.0291207 0)
(0 -0.0258439 0)
(0 -0.0237415 0)
(0 -0.0306163 0)
(0 -0.0288007 0)
(0 -0.030517 0)
(0 -0.000605494 0)
(0 -0.0227141 0)
(0 -0.00627781 0)
(0 -0.0230989 0)
(0 -0.0306085 0)
(0 -0.0306048 0)
(0 -0.0295186 0)
(0 -0.0306147 0)
(0 -0.0305958 0)
(0 -0.00374972 0)
(0 -0.0172204 0)
(0 -0.00718036 0)
(0 -0.0214623 0)
(0 -0.0306161 0)
(0 -0.0306064 0)
(0 -0.028498 0)
(0 -0.0011126 0)
(0 -0.0254263 0)
(0 -0.0302823 0)
(0 -0.030326 0)
(0 -0.0306164 0)
(0 -0.029448 0)
(0 -0.030615 0)
(0 -0.0300815 0)
(0 -0.027253 0)
(0 -0.0159241 0)
(0 -0.000587035 0)
(0 -0.0304817 0)
(0 -0.0123765 0)
(0 -0.00700388 0)
(0 -0.0306163 0)
(0 -0.0303105 0)
(0 -0.0305862 0)
(0 -0.0163444 0)
(0 -0.0289878 0)
(0 -0.000246817 0)
(0 -0.030616 0)
(0 -0.0306077 0)
(0 -0.019898 0)
(0 -0.0227589 0)
(0 -0.0287551 0)
(0 -0.0206202 0)
(0 -0.00371307 0)
(0 -0.0103494 0)
(0 -0.00763246 0)
(0 -0.0306163 0)
(0 -0.0294771 0)
(0 -0.0306163 0)
(0 -0.0292047 0)
(0 -0.0305862 0)
(0 -0.030354 0)
(0 -0.0306157 0)
(0 -0.0182243 0)
(0 -0.0295818 0)
(0 -0.0306157 0)
(0 -0.0292737 0)
(0 -0.0291115 0)
(0 -0.0306163 0)
(0 -0.00568762 0)
(0 -0.0166824 0)
(0 -0.0295445 0)
(0 -0.030611 0)
(0 -0.0306162 0)
(0 -0.0292779 0)
(0 -0.0221248 0)
(0 -0.0137059 0)
(0 -0.0015319 0)
(0 -0.0282757 0)
(0 -0.00167161 0)
(0 -0.0306099 0)
(0 -0.00873675 0)
(0 -0.0288302 0)
(0 -0.0227474 0)
(0 -0.00715575 0)
(0 -0.030134 0)
(0 -0.0305564 0)
(0 -0.0231462 0)
(0 -0.0305786 0)
(0 -0.0217017 0)
(0 -0.00231874 0)
(0 -0.0301108 0)
(0 -0.0306162 0)
(0 -0.0301529 0)
(0 -0.0300538 0)
(0 -0.0306091 0)
(0 -0.0305812 0)
(0 -0.0121123 0)
(0 -0.0184718 0)
(0 -0.028938 0)
(0 -0.0306145 0)
(0 -0.030613 0)
(0 -0.0153189 0)
(0 -0.0306164 0)
(0 -0.0269024 0)
(0 -0.0153401 0)
(0 -0.023084 0)
(0 -0.0306121 0)
(0 -0.0303806 0)
(0 -0.0123006 0)
(0 -0.0306163 0)
(0 -0.0260548 0)
(0 -0.0275877 0)
(0 -0.0126696 0)
(0 -0.0306159 0)
(0 -0.00300769 0)
(0 -0.0305901 0)
(0 -0.0240068 0)
(0 -0.0291048 0)
(0 -0.0258606 0)
(0 -0.0148546 0)
(0 -0.0305411 0)
(0 -0.0306163 0)
(0 -0.0078639 0)
(0 -0.0295487 0)
(0 -0.0305195 0)
(0 -0.000118956 0)
(0 -0.0225413 0)
(0 -0.0190486 0)
(0 -0.0301444 0)
(0 -0.0304567 0)
(0 -0.0304652 0)
(0 -0.0283642 0)
(0 -0.0306129 0)
(0 -0.0291161 0)
(0 -0.030523 0)
(0 -0.0286371 0)
(0 -0.0303376 0)
(0 -0.0158923 0)
(0 -0.0306163 0)
(0 -0.0306163 0)
(0 -0.0295326 0)
(0 -0.0169171 0)
(0 -0.0305067 0)
(0 -0.0306112 0)
(0 -0.0238525 0)
(0 -0.0298497 0)
(0 -0.0125742 0)
(0 -0.0290255 0)
(0 -0.0306164 0)
(0 -0.0290133 0)
(0 -0.0306149 0)
(0 -0.0262354 0)
(0 -0.0304258 0)
(0 -0.0255596 0)
(0 -0.0306163 0)
(0 -0.00163845 0)
(0 -0.00548641 0)
(0 -0.0184932 0)
(0 -0.03012 0)
(0 -0.0306092 0)
(0 -0.0306102 0)
(0 -0.0305049 0)
(0 -0.0295465 0)
(0 -0.00635321 0)
(0 -0.0285423 0)
(0 -0.0262718 0)
(0 -0.00567776 0)
(0 -0.030592 0)
(0 -0.000229526 0)
(0 -0.0303175 0)
(0 -0.0206396 0)
(0 -0.0270595 0)
(0 -0.0027836 0)
(0 -0.00472492 0)
(0 -0.00679753 0)
(0 -0.0260546 0)
(0 -0.0279571 0)
(0 -0.0298803 0)
(0 -0.0306156 0)
(0 -0.0189684 0)
(0 -0.0284177 0)
(0 -0.0300403 0)
(0 -0.00282787 0)
(0 -0.0189896 0)
(0 -0.0273017 0)
(0 -0.0260301 0)
(0 -0.0300381 0)
(0 -0.00326226 0)
(0 -0.0163587 0)
(0 -0.0305291 0)
(0 -0.00386626 0)
(0 -0.026922 0)
(0 -0.0209662 0)
(0 -0.0259593 0)
(0 -0.0064596 0)
(0 -0.0306114 0)
(0 -0.0229158 0)
(0 -0.0190877 0)
(0 -0.0305985 0)