/*--------------------------------*- C++ -*----------------------------------*\
| =========                 |                                                 |
| \\      /  F ield         | OpenFOAM: The Open Source CFD Toolbox           |
|  \\    /   O peration     | Version:  v2012                                 |
|   \\  /    A nd           | Website:  www.openfoam.com                      |
|    \\/     M anipulation  |                                                 |
\*---------------------------------------------------------------------------*/
FoamFile
{
    version     2.0;
    format      ascii;
    class       surfaceScalarField;
    location    "150";
    object      meshPhiCN_0;
}
// * * * * * * * * * * * * * * * * * * * * * * * * * * * * * * * * * * * * * //

dimensions      [0 3 -1 0 0 0 0];
oriented        oriented;


internalField   nonuniform List<scalar> 
20537
(
-0.00138693
-6.43361e-05
0.00146143
0.00174319
-0.00128654
-0.000456375
-0.000175326
-0.000674269
0.000850019
-0.00229417
0.0012489
0.00105445
0.000508197
0.000323794
-0.000831714
0.00122492
0.000430052
-0.00165118
-0.00163676
0.00131262
0.000344402
0.000504478
-0.00102954
0.000525885
-0.000687997
0.000901328
-0.000188577
0.00118099
-0.000525039
-0.000655347
-0.000170391
0.000463626
-0.000291944
-0.000798658
-4.40101e-05
0.000842758
0.00038788
-0.000495454
0.000107603
0.000205668
0.000306957
-0.000512626
-0.000126227
-0.000340984
0.000558071
-0.000702765
-0.000487383
0.00119226
0.00157414
-0.000463099
-0.00110677
-0.000195526
-0.00107994
0.00127968
0.000323817
0.000269613
-0.000593363
-0.000872864
0.000210737
-0.00103739
-0.00124151
-0.000991137
0.000816288
-3.2067e-05
6.54255e-06
3.56237e-05
7.50869e-05
-7.96071e-05
4.64558e-05
-4.40833e-06
-1.74674e-05
-0.000526825
0.00103223
0.00121832
-0.000976654
-0.000238513
-0.000199761
-0.000101507
-0.00185339
0.00047683
-0.00177972
0.000266434
0.00152031
-0.000397356
0.00162567
0.000837681
0.000740207
-0.00105999
0.000386222
-0.000580874
-0.000357008
0.000938951
-5.44254e-05
0.000173015
-0.000363211
-8.55568e-05
0.000448806
0.000503276
-0.000247545
-0.000255713
0.000373733
0.000331668
-0.000705287
0.000862412
0.000319034
-0.00126821
0.000688585
-0.00175898
0.000987229
0.000794785
6.23569e-05
2.04712e-05
-7.89728e-05
0.0002575
-8.60413e-05
-0.000171459
0.000323386
0.00012089
-0.000443709
-0.000104944
0.000428774
0.000409805
-0.000232634
-0.000177169
0.000123442
-0.000433636
0.000310134
-0.00153816
0.000446461
0.00109288
0.000935359
0.000285769
0.00116144
-0.00100318
-0.000152637
-0.000425886
0.00075574
-0.000329621
0.000324521
-0.000647704
0.000323262
0.000101099
-0.000243805
0.000142706
5.77147e-05
-0.00024658
0.000275495
-6.06283e-05
-0.000170572
0.000313302
-1.82696e-05
8.40844e-05
-2.57516e-05
0.00012311
-7.44988e-05
-0.000138669
-0.000178031
0.000316699
-0.00145511
-0.000316371
0.00134998
-0.00165475
0.000322994
0.000722109
-0.000348244
-0.000394098
-9.78283e-05
0.000491944
0.000590034
0.00101447
-0.00160143
-0.000305468
-0.000394637
0.000700273
0.00139273
-0.000275683
-0.00111594
0.000451942
-0.00159066
0.00114596
0.000276439
0.00022685
7.642e-05
-0.000441425
0.0005069
0.000500565
-0.00100643
-0.00132769
0.00113671
-0.00023536
4.64764e-06
0.000230712
0.000178684
0.000220973
-0.000399647
0.00107279
0.000670569
0.000396986
-0.00023813
-0.000451286
8.6184e-05
0.000437831
0.000302371
0.000554329
-0.000840518
-0.000260125
-0.000730704
0.000217426
-0.000310777
9.33514e-05
-0.000947397
0.000551647
0.00039634
-4.97985e-05
0.000253157
0.00165092
-0.000495906
-0.00114087
2.50692e-05
-3.68304e-05
1.1707e-05
-0.00109726
0.00153811
-0.000398784
0.000226656
-0.000403788
0.000177133
-0.000900138
0.00149328
6.44695e-05
-0.000863035
-0.000447965
0.00159966
-0.00114706
0.00107815
-0.000832169
-0.000245676
-0.00108357
-0.000100042
0.00118695
0.000682409
-0.00052695
-0.000144529
-0.000549148
0.000185974
-0.00198589
0.00114451
0.000848256
-0.000299074
-0.00119988
0.00062854
0.000573141
-0.00164527
0.00056533
-5.96142e-05
-9.64622e-06
9.24358e-05
0.000739207
-0.000230764
-0.000460471
0.000375606
8.48712e-05
0.000924527
0.000241932
-4.98624e-05
1.75255e-05
-0.000391319
0.000409516
-1.82007e-05
0.00053102
0.000334469
-0.000865041
-0.00177979
0.000763209
0.00102836
-0.000800261
0.00111654
-5.24524e-06
8.07396e-06
-9.10492e-07
0.000451594
0.00108665
-0.00153364
-0.000416337
-0.000339136
0.000755818
3.52347e-05
8.69789e-06
-4.1294e-05
-0.000218305
0.000358632
0.00160534
-0.00117162
5.46315e-05
-5.16871e-05
2.60001e-05
0.000506651
0.000187086
-0.00109825
-0.000880683
2.06638e-05
1.94724e-05
0.00012328
-3.76545e-05
0.000664521
-0.00143019
-0.000278543
-0.000181917
-5.9958e-05
4.2156e-05
2.12412e-05
0.000101811
6.26332e-05
-0.000106458
0.000263197
-5.50442e-05
-0.000137893
0.000253999
3.50129e-06
0.000612031
-0.00140865
-0.000146015
0.000533924
-0.0015352
-0.000469595
-0.00106672
6.47384e-05
-0.000299051
0.000239084
-0.00156726
0.00109947
-0.00071303
7.30064e-06
0.00070618
-0.00203523
0.00101013
0.000267781
-0.000606662
0.00033899
-0.000724655
-0.00100637
-0.000228737
0.000773758
-0.000505815
3.16899e-06
-0.000238529
0.000302576
-0.00135512
-0.000787444
0.000183717
0.000127595
-0.000264434
-2.46054e-05
-3.09383e-05
0.000206037
0.000205862
-0.00041189
-0.000655144
0.000406556
0.000248594
-0.000367157
0.000708123
-0.000340998
-5.88745e-05
-0.000332446
0.000244212
-0.000215576
-0.00129936
0.000561907
0.000749907
-1.52347e-05
-0.000140912
0.000160331
-0.00069853
0.00133544
-0.000630766
0.000439812
-0.000318288
3.06457e-05
-1.33458e-06
-2.83252e-05
0.000703884
-0.000435953
-0.00126407
-0.000347249
-0.000406904
0.000302378
-0.000681315
0.000315694
-0.000190544
-2.21989e-05
0.000287098
-0.000250224
0.00045589
-8.33126e-05
7.745e-05
1.88488e-05
0.000976254
-0.000990259
0.000817355
-0.001509
0.000203941
-0.00120262
0.00102369
0.00125635
-0.00154092
0.000291832
0.000514406
-0.000189807
-0.000757085
0.000331451
2.01952e-05
-1.99117e-05
2.16253e-07
-0.00107046
0.000582391
0.000489468
0.000133796
-0.000272464
-0.000636733
0.000443297
0.00128182
0.000424045
-0.00170088
-1.76523e-05
0.000148522
-0.000126113
6.06221e-06
2.52498e-05
0.000953222
-0.000445348
-0.00112896
-0.000893396
-0.000246308
0.000392766
-0.000146454
0.000241977
-2.45512e-05
-0.000377905
8.48291e-05
0.000314909
0.00122208
-0.000993768
-0.000717685
0.000350507
-0.000183507
-0.000416583
0.00151727
-0.00106958
0.00026055
-0.000972969
-0.000673054
-0.000340945
0.00102399
0.000631911
-0.000308034
-3.5837e-05
-9.92624e-06
4.78812e-05
0.000491126
-0.00135357
0.000865407
0.00038473
0.00138658
-0.000954592
-0.000389158
0.000738584
7.79998e-05
6.3981e-06
-5.66745e-06
-1.51998e-07
-4.2344e-05
-2.35042e-06
6.04844e-05
0.00158609
-0.00112703
0.000284098
5.19404e-05
-0.00035845
-0.000380077
0.000738747
-0.000857813
0.00116235
-0.000303714
-0.000317976
0.000255412
-0.000154312
-0.000622944
0.000104197
0.000527511
0.000542006
0.000400454
-0.00094151
0.000241607
-0.000635681
2.58652e-05
0.00110203
-0.00112186
-0.000407849
-0.000879141
0.0011398
-0.000373074
-0.00076524
0.000583658
-0.00124445
-0.000567171
0.000885835
0.00031255
-0.000242862
0.000493192
-0.000240952
-0.000252236
-3.58867e-05
0.000128544
-2.85001e-05
0.000578632
-0.00129517
0.000754031
0.00112034
-0.00052552
-0.000594069
0.000318682
0.00110921
-0.000766768
0.000519934
0.000246862
0.0014024
-0.00130146
-9.71581e-05
-0.000179276
0.000322369
-0.000143092
-3.15517e-05
2.3704e-05
9.00094e-06
-0.000379475
0.000283015
9.64635e-05
-0.00126048
-0.000505327
0.000408509
-0.00118152
0.000773271
2.48863e-05
7.32395e-06
-3.02754e-05
3.65964e-05
0.000120293
-0.00015253
-0.000122303
0.000395929
-0.000271754
0.00172305
-0.000599481
-0.00111991
0.000186415
0.000223392
0.000901721
-0.000530768
-0.000306352
0.00012058
-0.000299856
0.000386198
0.00101914
0.00138982
0.000273375
-0.000396948
0.000226935
0.000170019
-0.000643405
0.000235521
0.000407985
-0.000378425
0.000219849
0.000158578
2.46477e-05
1.52024e-05
-2.51319e-05
-0.00119516
0.000807644
0.000389159
1.43024e-06
-4.25867e-06
0.000181093
-0.000255286
7.41928e-05
-1.02937e-06
2.70374e-05
0.000604256
-0.00113009
-0.000441193
-0.000815695
0.0012578
-0.0002978
-5.85317e-05
-0.000107345
0.000280998
0.000448272
-0.000729022
0.00150249
-0.00113807
-0.000362016
-0.000594234
-0.000172505
0.00112596
0.00026747
-0.000157318
0.000146653
-0.000556896
0.00116933
-0.00160687
0.00121291
0.00106211
-5.8656e-05
-0.00100105
1.75497e-05
-2.62657e-05
8.96716e-06
0.000492419
0.000628541
8.41785e-06
1.89296e-06
-0.000204293
0.000292305
-8.80109e-05
-0.000219915
0.00075133
-0.000348815
-0.00073488
0.0010839
0.000514244
0.000915461
-0.00142322
0.00135859
-0.00115913
-0.000195395
0.000287238
0.000915523
-0.0011949
0.000151592
0.000911291
-0.00127914
0.00137529
-8.59575e-05
0.00133765
-0.00100094
0.000585288
0.000416042
-0.000307688
0.00148677
-0.00117722
0.00044275
-0.00129955
0.000368738
-0.000162867
-0.000325254
0.000120989
0.000204266
0.0013038
-0.000929233
-0.000323674
-0.000116553
0.000213836
0.00126477
-0.00147366
0.000947875
-0.00156584
0.000619023
0.000125356
-0.000334429
0.00021533
-0.000219583
-0.000329608
0.00054924
0.000975173
-0.000944067
-7.2793e-06
-0.00126176
-5.50842e-05
-0.00114303
-0.000170947
-0.000225993
0.000492519
-0.000565169
7.68905e-05
0.00118948
-0.000894364
0.00112636
0.000729629
-0.00152941
0.000801763
-0.00048622
-0.000460538
0.000661571
-0.00136199
0.000323845
0.000487314
-2.77206e-06
2.78869e-05
-9.68472e-05
0.000331165
-0.000231962
-0.000388334
0.000242109
0.000146227
-0.000368445
0.000199203
1.87807e-05
-1.60541e-06
-2.15102e-05
1.0277e-05
1.27838e-05
-4.46554e-06
-2.55445e-07
6.11439e-06
-0.000436406
-0.000564118
0.00151286
-0.000564057
-0.000387517
-0.00119769
0.00158571
-0.00105615
0.000594053
0.000484508
-0.000699979
-0.000107436
0.000873754
0.00151961
-0.000788033
-4.64833e-06
1.16198e-05
-7.47249e-06
0.00036265
0.00034135
-0.00153364
8.49673e-05
0.00131767
4.76647e-05
-0.000515018
-0.000405319
0.000921193
1.63303e-05
-2.12497e-05
-0.000590425
0.000370894
0.00146437
-0.00131662
-0.000145012
0.000953849
-0.000889281
0.000477297
0.000276962
-0.000721599
0.000100144
-0.000304436
-0.000981364
-8.7681e-05
-0.00146856
0.00100934
-0.000378842
0.000275828
0.000103016
-0.0018439
0.000588571
0.00127021
-0.00112042
0.00157662
9.97973e-05
0.00029361
-0.000393404
-0.000414369
-0.000616272
-0.000954384
0.000591281
0.00036362
-0.000602455
0.00123317
-0.00130851
-0.00021808
-0.000423621
-0.000231506
0.000750801
0.000716153
-0.000863813
-0.00040562
0.00127994
-0.000294132
-7.11596e-05
0.0003653
-3.02336e-05
0.000108766
-7.43197e-05
0.00131233
4.92626e-05
-3.44928e-05
0.000338595
-0.000299783
-0.000167684
-0.000220647
-0.000251382
0.000544018
-0.000292572
0.000366935
0.000594729
-0.000299791
0.000774205
-0.000474009
-0.00106334
0.000290174
0.000837365
-7.30439e-05
-0.00025221
-0.00159835
0.000973862
0.000632305
-2.9703e-05
-5.61047e-06
4.74948e-05
-2.25069e-05
0.000983924
-0.000943874
0.000329012
-0.00058032
-0.00057843
-0.000614949
-0.000671315
0.00123654
-0.000560211
-0.000758618
-0.000408367
-0.00141865
0.000679412
-0.00153088
0.00033835
0.000126374
-0.000243889
-0.000254417
0.000243071
-0.000452418
0.000209354
-0.00161882
0.000601622
0.00102173
-0.000223424
-0.000155415
-0.000651675
0.000291326
0.000360394
0.000353118
0.000922198
-0.000379276
-0.000280062
0.000642823
0.000160821
0.00101857
-0.00117372
0.00156843
-0.000668223
-0.000898038
0.000587306
-0.000212012
-0.000375209
-0.000320751
0.00143842
-0.000240611
-0.00118884
0.00107024
-0.00152298
0.000453007
-0.000341528
0.000207943
0.000133587
-0.000400414
0.000151222
0.000225654
-0.000397075
0.000174133
0.000427912
-0.0001994
0.000400319
-0.000749984
0.000349798
-0.00129266
0.000626334
0.000935058
0.000634833
0.000247816
-6.67231e-05
0.000216242
0.00102907
0.00150449
-0.000434111
-0.000958167
0.000953221
-0.000201401
-0.000790183
1.20992e-05
-1.81295e-06
4.74034e-05
-9.84824e-06
0.00116866
-0.000344088
-0.000795413
-0.000215743
-0.000125782
-9.06238e-05
0.000755322
-0.000663477
0.00112891
0.000237992
-0.0013433
-0.000461005
-0.000492729
1.15258e-05
9.99623e-05
-0.000107393
9.0677e-05
0.000863283
0.000176384
0.00101629
-0.00119091
-0.00166391
0.000162891
0.000199955
-0.000446257
0.00136781
-0.000216358
0.00048565
0.00123874
0.00128926
-0.000833601
-0.000453624
-0.00121591
-0.000447384
-0.00169833
0.000695709
0.00103177
4.67964e-05
-1.13294e-06
0.00166725
-0.00127601
-0.00038422
-9.87275e-05
0.00031127
-0.000212544
-8.61888e-05
-0.000730995
0.000307388
0.00131187
0.000197108
0.000390269
0.00015794
0.000234829
-0.000206309
0.000411764
-0.000203457
-0.000426882
0.000222597
-0.00152346
0.000903904
0.000627099
-0.000270483
0.000654618
-0.000350483
0.000174123
0.000116215
-0.000198325
-0.000528003
-0.00108592
-0.000697665
0.000398185
-0.000223341
0.000530291
-0.000261384
-0.000598395
0.000860692
-0.000183774
-0.000194648
0.000212621
-0.000376138
0.000163519
9.31424e-05
-7.8544e-05
0.00111365
0.000231593
0.000443031
-0.000249404
3.2344e-05
0.00021706
-0.00123091
0.000790663
0.000201171
-0.000479704
0.000421274
0.00125275
0.000572354
0.000718716
5.18859e-05
1.20468e-05
-4.27892e-05
-0.000338433
-0.000313187
-0.000396033
-0.000150796
0.000567573
-0.00108339
0.000597599
-0.000553284
-0.000961643
0.000434428
0.00103489
-0.00144671
-3.47549e-06
-0.000976105
0.000585008
-0.000103816
8.96601e-05
0.000337083
-0.000642403
0.00113241
-0.00148568
0.000355241
0.000302652
-0.000319374
1.67219e-05
0.00111896
-0.00167658
0.00056297
0.000358193
-0.00109596
0.00155187
-0.000450766
0.000959177
-0.000806936
0.000427001
-0.00138278
0.000959314
-0.000367097
0.000767562
-0.000461781
-0.00100264
-0.000362027
0.000241559
-5.28796e-05
3.25122e-05
-0.000345661
-0.00060608
-3.43928e-05
8.1098e-06
-0.000358942
-0.000345644
0.000704702
-0.0010113
0.000337154
0.000674228
0.000372803
0.000380852
-0.000753525
-0.00153062
0.000439493
0.000229609
0.000735353
-0.00109134
-0.00156375
-0.000165653
0.000664658
-0.000383466
-0.000655983
-0.00101191
-5.19477e-06
0.000967078
-2.05372e-06
-8.6491e-06
1.44957e-05
0.000374719
-0.000863683
0.000489118
0.00107798
-0.000163038
-0.000912789
0.00101075
-0.000557781
-0.000452434
0.000179151
-0.000292207
0.000113056
-0.00059402
0.00118986
8.48665e-05
-0.000291891
0.000209141
0.000216244
0.000862801
-0.000336611
-0.000112496
6.58464e-06
8.36708e-07
-0.000592635
-0.000498802
0.00109295
0.000812712
-2.87859e-05
0.000524567
-0.000353106
-9.20884e-05
0.000466618
0.000512158
-0.00144542
0.000945109
-0.000354256
-0.000717929
7.03063e-05
-0.00168973
0.000700753
0.000993146
-0.000366014
-0.000508442
0.000874434
-1.89247e-05
5.88581e-05
-0.000131666
0.00113178
-0.000136456
-0.000158873
0.000295329
0.00154548
-0.000259636
-1.3288e-05
-7.43964e-06
0.000483927
0.000594442
0.000333007
-0.000571232
0.00119322
0.000643078
-0.000435893
-0.000182854
-0.00151597
0.00127021
0.000248124
0.00151724
-0.0011699
-0.00033923
-1.97896e-05
0.000573692
-0.00115571
-0.000479957
0.000185836
0.000851815
0.000721174
-0.000488865
-0.000428903
0.000918573
0.000384396
-0.000154563
0.00152085
-0.00010286
-0.00141251
9.23169e-05
-0.000331566
0.000241076
2.43623e-05
1.58813e-05
-0.000333969
0.00136619
-0.00101107
-1.91488e-05
7.37054e-05
-1.73398e-05
0.00160486
-0.000493752
-0.00110947
0.00131061
-0.00150746
0.000209031
0.00115867
0.000445278
-0.00132192
0.00041066
7.44604e-05
-2.29141e-06
-0.000484271
0.000272441
0.000211829
0.000265461
-8.63102e-05
-0.00138573
0.00104171
0.000379198
-6.84753e-05
0.0015957
-0.000829985
0.00126029
-0.00102609
0.000969617
-0.000158399
0.000385055
0.000819542
-0.000937532
-0.000658542
0.000569095
0.00167904
-0.000955185
0.000385441
-0.000774108
0.000388926
-0.00104097
0.00151065
-0.000450151
0.000104731
-0.000260368
0.000155637
4.26334e-05
-1.46141e-05
-2.41784e-05
-0.000239865
-3.94009e-06
0.000649323
0.000532045
-0.0011805
8.89859e-05
-6.47452e-05
0.00152023
-0.00158226
0.000130653
-0.000414556
0.000283908
-0.000364002
0.000969056
-0.000396895
-0.000134023
0.000531128
-6.58528e-05
0.000223128
0.000961308
0.000518053
-0.0014787
9.16382e-05
-0.00017593
0.000552824
-0.000174026
-0.000345759
0.000265278
-0.000776583
0.000545007
0.000376268
0.00107805
-0.00143068
-0.000118535
-0.000130868
0.000393643
0.000361997
-0.000755374
-0.000264603
0.000566692
-0.000302019
-0.000212114
-0.000240528
0.000452671
-0.00149613
1.79384e-05
2.87414e-06
0.000410211
-0.000547202
0.000137027
-0.000330669
-0.000679776
0.00125195
-0.000758123
0.0010479
-0.000463863
-0.000310077
-0.000713115
-0.00104431
-0.000490961
-0.000151521
-0.000227948
0.000208416
-0.000189463
7.41045e-05
-0.000183304
0.000288035
-0.000391032
0.000293796
0.0001994
0.00117804
0.00121009
0.000315172
-0.000394436
-0.00109617
-0.00022013
0.000307177
0.00131406
-0.00161966
0.000822602
0.000317451
0.000377245
-0.000787266
0.000410159
-0.00028626
0.00154974
-0.000448333
0.000825698
0.000318281
-0.000475613
0.000157342
1.83187e-05
2.83596e-05
-0.000314653
-0.000363182
0.000276527
-0.000112722
-0.000163805
-0.000436707
0.00135813
0.00102584
-0.00115045
0.000173063
-0.000838931
-0.000336844
0.00104904
-0.00125608
0.000231221
-0.00072876
0.000370523
0.00113209
-0.00150198
0.000372266
-0.0013175
0.000485701
0.000508839
-0.000874849
-0.000202578
-5.07303e-05
0.000289992
-0.000310982
0.000174527
0.00031387
-0.000151717
-0.000162152
-0.000422326
-0.00110647
0.00153256
-0.00108069
0.000750689
0.000465217
6.9539e-06
4.74668e-06
-1.12742e-05
0.000579309
2.42526e-05
-3.4683e-05
1.04956e-05
-0.00010357
0.000513811
-0.000244703
0.00122447
-0.000413357
-0.000210161
0.000623618
-0.000445654
1.20785e-05
0.000433608
-7.1291e-05
5.63882e-05
-0.00117272
-0.000362693
0.00153977
0.0015364
-0.000456827
-0.00107906
-0.000248545
-0.000501255
0.000281577
0.00036462
-0.000646068
-0.000227433
0.000108898
-0.000416044
0.000223266
0.000192787
0.000980641
0.00147621
-0.00101925
-0.000582254
-0.000566762
0.00114906
0.000312421
0.000296794
-0.000568072
0.000271334
-0.000789846
0.000529203
-0.000526322
0.00154355
1.42655e-05
0.00102719
-0.00113419
0.000149907
-0.00041241
-1.37918e-05
-5.43082e-05
0.000950768
-0.00138137
-3.70399e-05
2.91468e-05
0.00058848
-0.000404317
-0.000138404
-2.26352e-05
0.000340925
0.000344766
-0.00087826
-0.00064644
-5.61864e-05
4.53386e-05
-0.000391906
-0.000339079
0.000695024
-0.00106662
-0.00028479
0.000727317
-0.000410482
-7.64553e-05
-1.71423e-05
0.000110719
0.000316319
-0.000184931
-0.000128077
0.000227737
-0.000326467
0.000700765
-0.00104935
0.0011098
0.000454233
-0.000160435
-0.000528611
0.00149048
0.00104289
-0.000506384
-0.000535437
0.000171601
0.000104926
0.000125082
0.000197287
0.00114405
0.000301733
0.000969878
-0.000468331
9.12105e-06
-1.91915e-06
0.000282356
0.000712259
-0.00126891
0.000558267
0.00047759
-0.000236401
-0.000241174
-0.00103179
-0.000490448
-0.000662887
0.000249635
-0.000426602
0.00101359
-0.000585141
-0.000823325
0.000325148
0.000523638
0.000515334
0.00078414
-0.00129726
-0.0011348
0.000384826
0.000760402
-0.000517625
0.000120868
-0.000377696
-0.000326596
0.000704502
-0.000947771
-0.000327972
-0.00103202
0.00163817
-0.000441537
0.000110731
0.00114295
-0.000214905
-0.000926338
-0.00024883
0.000621738
-0.000496802
-0.00113771
-0.00153191
0.000904093
0.0011085
-0.000930533
-0.00160783
0.000490965
0.00113172
-0.000404723
0.000389573
-0.000748386
-0.000556575
-8.67488e-05
0.000443152
-0.00131736
0.000876434
0.000528421
-0.000231574
-0.000304814
-0.000493145
-0.00151106
0.000614724
0.000897959
-0.000676078
0.000380336
7.38998e-05
-0.00170013
0.000455186
1.69673e-05
-6.73586e-05
7.85104e-05
-0.000375058
0.00015676
-0.00130262
-4.57238e-05
0.00135576
0.000285049
-0.000127107
-0.0002359
-8.90479e-05
0.00032495
-0.000400951
0.000225187
0.000175765
0.00114212
-0.000657946
-0.000507255
0.000131196
-0.000154077
1.68333e-05
2.2269e-06
0.000643062
-2.40386e-05
-0.000575983
-3.10226e-05
1.99285e-05
0.00052365
0.000109675
1.2294e-06
-7.43659e-06
6.39093e-06
0.00163816
-0.000514358
-0.00108438
-0.000428906
-1.06688e-05
-4.28198e-05
0.000469469
-0.000752818
0.000283423
0.00109289
0.00062448
-0.000154955
-0.00104236
0.000307845
0.000760757
-1.83456e-05
7.67632e-06
1.30853e-05
1.9938e-05
-3.43106e-05
2.23984e-05
-0.000833801
0.000553881
-0.000588034
0.000324847
0.000263212
-0.00077846
6.37629e-05
0.000714985
0.00108952
1.76014e-05
-2.70503e-07
-4.06505e-05
7.08925e-05
0.000212869
-0.000141643
-3.34716e-05
-0.00122102
0.000283458
0.00095404
-0.000409703
-0.000115564
0.000525291
0.000419267
0.000350084
-0.00076936
-0.00106245
-0.000529386
-4.82574e-05
4.03919e-05
0.0014422
-0.00104298
0.000168966
-0.00136528
0.000525715
0.000395814
-0.000921324
-0.000119231
0.000262113
-0.000142882
0.00117894
-0.000311878
-0.000131961
0.000443848
-0.000991892
0.00151064
-0.000522032
-0.00098033
0.000320381
-0.000584904
-2.53442e-05
0.000455751
0.000702522
-0.000746452
-0.00155441
0.00107256
-0.00110949
2.20707e-05
-0.000800203
-0.000406433
-0.00035852
-0.00102801
-0.00159729
9.95407e-06
-8.17653e-06
-0.000933682
0.000853741
-0.000177882
-0.000114324
-0.00090536
0.000268147
0.000652561
-0.000241469
0.00137644
-0.0011272
0.0010424
-0.00156589
0.00018333
0.0004016
-0.000512613
0.0016564
-0.000134349
0.000309316
-0.000621168
0.00031184
-0.000752054
0.000374583
0.000266946
-0.000596498
0.000408066
5.51081e-06
-2.79312e-05
-0.000299731
-0.000715117
-0.000257708
-0.000226564
-2.00275e-05
-0.000425595
0.000370587
0.00113413
-0.000315082
7.91835e-05
-0.000680254
0.000227462
0.000472539
0.00018161
-4.22138e-05
-4.86208e-05
-3.04054e-05
0.000978093
-0.00150626
-0.000266859
0.000449783
-0.00018291
-0.000285514
0.00138954
-0.00109966
0.000483455
-0.00152016
0.00104958
0.000330119
-0.00023594
-0.00139138
0.00103425
0.000360887
-1.71999e-05
4.38851e-05
0.000148468
-0.000338493
0.000190026
0.00146193
2.58293e-05
0.000165044
0.000126113
-0.000291156
6.26869e-05
-0.00160835
0.000562856
-0.00026618
0.000138074
0.000128106
-0.000234304
-5.6797e-06
0.000239984
-0.000516792
-3.23159e-05
-0.000722201
-0.000401416
-0.000187106
-0.000175167
0.000362279
0.00145598
-9.70961e-05
-0.000263277
0.000918705
-0.000454861
-0.000463585
0.000447124
0.000564119
0.00144058
-0.000453741
-0.000982771
-0.000214535
0.000274894
-0.000975809
0.00070701
0.000262997
0.000730167
-0.000984389
-0.000470316
0.000222789
0.000105436
-6.02453e-05
3.11981e-05
0.000293869
0.00123095
-0.000730292
0.000448899
0.000312263
-0.000163795
0.00058862
-0.00125229
0.000665101
-0.000436227
0.000569621
-0.00144318
0.000234348
9.89685e-05
-0.000522053
9.25725e-05
-8.38513e-05
0.000202656
-6.82545e-05
0.0011869
-1.76442e-05
-1.01026e-05
0.0013458
-0.000893446
-0.000423738
6.44689e-05
-0.000261685
0.000258613
0.000283498
1.01141e-05
0.000357476
5.82647e-05
-7.12464e-05
1.66793e-05
0.0015377
-0.00039284
-0.00114225
0.000442855
0.00105454
-0.00013788
-0.0001283
9.17851e-06
-9.40927e-06
5.28952e-06
-0.000396803
-0.000793326
0.00120126
-0.000587301
0.000523831
6.3609e-05
0.000914738
-0.000388835
0.00075607
-0.000113863
-0.000640788
-0.000229767
0.000195
7.18486e-05
-0.00173518
0.00020841
-0.000542111
0.000230244
0.00131369
-0.000193908
0.000411405
-0.000217491
-3.72339e-06
-0.000928979
0.000224162
0.000441645
0.000321801
0.000547174
-0.000863872
-0.000206998
0.000120957
-0.00125996
-0.000471423
-0.00131708
0.000320821
0.000999939
4.67201e-05
-3.70783e-05
-0.000863197
0.000458471
-0.000955694
0.000497634
0.00115444
-6.59769e-05
-0.00108729
-0.00119592
-0.000116509
-0.000523473
0.00085042
-6.06139e-05
0.000350815
0.000759328
-0.00114529
0.000572245
-0.000594704
0.000357519
0.000656352
-0.00101284
-0.000758279
0.000378432
0.000481746
-0.00111052
-0.000477972
-0.000372592
0.000512232
-2.32884e-05
-0.000488839
-0.000359561
-0.00150411
0.00122338
-0.000130528
0.000607348
-0.000476793
-0.000481919
0.000269837
-0.00122092
0.00168799
0.00025061
-0.000384117
0.00013351
-0.000441699
-0.00106778
0.000249278
0.000284516
-0.000533775
0.000645968
-0.000336668
-0.000405336
0.000250557
0.000154784
-0.000131404
0.000626084
-0.000492608
0.000688104
-0.00119503
0.00050825
-0.00048155
0.00105199
-0.00157517
-0.000348891
0.00017086
-0.000153177
0.000402079
-0.00121913
0.000835343
2.52271e-05
2.90663e-05
-3.49746e-05
0.000817531
-0.000368989
2.88216e-05
-6.66854e-08
-2.84809e-05
-7.01147e-05
-1.93512e-05
9.31448e-05
-0.000136181
-0.00012457
0.000260751
-0.000478705
-0.000181851
0.00122493
0.000242139
-0.00144045
0.00015339
0.000192486
-0.000301455
0.00010897
0.000400108
9.89243e-06
0.000131306
0.000546537
0.000697321
-0.000829908
-5.07657e-05
-0.000183539
7.85075e-06
-0.000417532
-0.000305459
-0.000262545
0.00150151
-0.00114383
-0.000347682
-0.000210994
-0.000241415
-0.00069742
0.000449034
-0.000271656
-0.000316352
-0.000794856
0.000456085
0.000446411
-0.00090681
0.00120141
-0.00149275
0.000472082
0.00127253
-0.000199982
0.000751857
-0.000322966
-0.000428586
-0.000123239
0.000155583
-0.000899044
0.00132668
-0.00104268
0.000163245
-0.000327039
0.000508225
-0.000258931
0.000158289
0.000155581
0.00109049
-0.00136794
0.000305781
-0.000488445
0.00102206
-0.000532546
0.000409892
-0.000662804
0.00122936
0.00108686
-0.00132074
-8.29394e-05
-0.000493673
0.000576651
5.64998e-05
6.92178e-05
0.000224066
-0.000303296
7.92299e-05
1.32489e-05
-7.97421e-05
4.84803e-05
-0.000635628
-0.000861839
-0.000156513
0.0010475
-0.00060076
0.000889789
-0.000288817
0.000253808
0.000544281
-0.0010316
0.000243652
-0.000972568
0.000334625
0.000638455
0.00112497
0.000147299
6.68858e-05
4.04133e-05
0.000713308
0.00113027
-0.000493995
0.00143209
-0.00093633
0.000433798
-0.00147749
0.00105002
0.000230407
-3.79214e-05
-0.000258517
-6.94904e-05
-0.000103268
-0.000554129
0.000627078
-0.00159052
0.000978783
2.75715e-05
0.000255446
0.00019697
-0.000287804
0.000149925
0.000501321
-0.000630695
-0.00166721
0.000776175
0.00147053
-0.000532239
-0.000918345
0.000288678
-0.000123633
0.000223924
-5.45284e-05
-0.0014001
-3.0182e-05
0.000295561
-0.000141686
-0.000153875
0.000757575
0.000344781
-0.00107441
-0.00147655
0.000954617
0.000527098
0.000376583
-0.000415586
0.00111232
-0.000296722
0.000667517
-0.000370782
-0.00106296
-0.000470018
0.00155103
0.000109679
3.27588e-05
-0.00121017
0.000651478
0.000558576
0.000302897
-0.000182316
-0.00030809
0.000672832
-0.00033102
-0.000982215
-0.000331057
0.00142092
-0.0010794
-0.000648511
0.000546311
0.000154333
0.000179535
-0.000333868
0.000633646
-0.000121287
-1.21764e-05
7.43864e-05
0.00103072
-0.000341428
0.000190327
0.000403503
-0.000559727
5.71074e-05
0.000115491
0.000459676
-2.89094e-05
-3.84363e-05
1.62221e-05
-0.000379139
-0.000428201
0.000807474
0.000961974
-0.000964385
-0.000141071
0.00139039
0.00114708
0.000529996
-0.00123945
7.74851e-05
0.000216706
-0.000294191
-0.000253135
0.000383792
-0.00123069
0.00063976
-0.000508471
0.000377966
-0.00102767
0.000195303
0.000646773
-0.00114403
-0.00127235
0.000759068
-0.000400047
0.000624847
0.00169832
-0.000470982
-0.0012081
0.00129373
-0.00140921
0.000114374
-0.000280229
0.000165856
0.00123373
-0.000161508
0.000804266
-0.00078187
-0.000276389
0.00139426
-0.00105809
3.58347e-05
0.00023152
-5.56188e-05
-0.000175901
0.000176073
-6.97205e-05
-0.00113024
0.000548053
0.000869995
0.000285421
0.000395897
-1.99584e-05
-0.000375915
-0.000320492
0.000910372
-0.000499205
0.00107474
-0.000574292
0.000221707
0.000908679
-0.00112173
0.000336148
-0.00147189
0.000619628
0.00156795
-0.00035021
-0.0012168
-0.000129757
-0.000139119
0.000268876
0.000857998
0.00016045
-0.00101761
-6.76841e-05
-0.000392079
-0.00129422
-0.000425297
-0.000546626
-0.000459967
0.000310633
-0.000132678
-6.59524e-05
0.000564857
-0.000659037
9.41581e-05
0.000706326
-0.000978744
0.00109165
-0.00053194
0.000308593
0.000392785
-0.000125902
-0.000261484
0.00013643
0.000495525
0.000285015
0.000774045
0.000383456
0.000717071
-0.000136878
0.000897488
3.20713e-05
-1.50422e-05
-1.6454e-05
-0.000433375
-0.00110777
-0.000269203
-0.000201093
-0.000719489
0.00109139
0.00046705
-0.000459175
-0.000166511
0.000320844
-0.000625241
0.00121281
-0.000586573
-0.000315596
-0.000305584
-0.000436256
-8.97289e-05
5.45892e-05
0.000369022
-2.64485e-05
-0.000240617
0.00131335
-0.000365449
0.000457204
0.000265909
-0.000722969
0.0014126
-0.000951316
-0.000451692
0.000714626
0.000156596
-0.000852921
0.00148338
-0.000987602
-2.7403e-05
1.06698e-05
-0.000152488
-0.000373278
0.000792519
0.00100129
-0.000217501
0.00041868
-0.000522636
0.000204505
0.000318154
0.000146159
0.00091289
-0.00135326
0.000986464
0.000368533
-0.000975751
0.000550679
-0.00103615
0.000708432
-0.000196004
-0.000512258
0.00116156
0.000377146
-0.00153465
-0.000439762
-0.000603806
0.00104491
-0.000330717
0.000480963
-0.000309819
-0.000123501
0.000646663
-0.00106066
-0.000136859
0.000328347
-0.000191487
0.000295251
-0.000323309
5.16368e-05
-0.000503016
0.000357029
-0.00084953
-0.000400794
-0.00103557
-0.000352001
1.18334e-05
2.08281e-05
0.000433578
0.00023822
-0.00065228
-6.1404e-05
0.000618451
-0.000556959
0.00102388
-0.00146393
0.000407957
-0.000262968
-0.000626297
0.000932887
-0.0012452
0.000349877
-0.00112349
-0.000441528
-0.000861611
0.00150286
-0.000467687
-9.55936e-05
-0.000551474
-0.00093529
0.00139652
-0.000460781
0.00055607
-0.000263857
-0.000292169
0.000744948
0.000200282
-0.000944855
-2.65138e-05
6.90923e-05
0.00144729
-0.000311165
-0.00111108
0.000576613
-0.00132611
0.000751218
-0.00159161
0.00149444
0.000522925
-0.00120311
0.000683354
0.000318145
6.77207e-05
0.000790956
0.000450236
0.000971479
0.00108352
-0.00140401
0.000864886
-0.000411981
-0.000452947
0.000851063
-0.000119775
-0.000153653
-0.00016572
-0.000171833
-0.000237047
0.000408899
-0.00143552
3.50976e-05
-0.000297266
-0.000197721
0.000495035
0.00013491
0.000126723
-4.79317e-05
0.00024088
-0.000187451
-0.00166245
0.00111223
0.000565942
0.000371502
-0.000501322
0.000130715
0.00116385
-0.000675506
-0.000486225
-4.43831e-05
0.000361563
2.22272e-05
1.97439e-05
-0.000895872
0.000649338
0.000457293
0.000298623
-1.77761e-05
0.000124285
-0.000102017
-0.000245771
-0.000633138
0.000178938
0.00122121
-0.000351908
-0.000551021
0.000903906
-0.000451901
0.000185056
0.00147049
-0.000610535
-0.00107492
0.000362687
-0.000233748
0.000437707