/*--------------------------------*- C++ -*----------------------------------*\
| =========                 |                                                 |
| \\      /  F ield         | OpenFOAM: The Open Source CFD Toolbox           |
|  \\    /   O peration     | Version:  v2012                                 |
|   \\  /    A nd           | Website:  www.openfoam.com                      |
|    \\/     M anipulation  |                                                 |
\*---------------------------------------------------------------------------*/
FoamFile
{
    version     2.0;
    format      ascii;
    class       volScalarField;
    location    "300";
    object      k;
}
// * * * * * * * * * * * * * * * * * * * * * * * * * * * * * * * * * * * * * //

dimensions      [0 2 -2 0 0 0 0];


internalField   nonuniform List<scalar> 
13851
(
0.000153789
0.0188132
0.000189492
0.000153069
0.000188281
0.000245401
0.000146573
0.000176727
0.00013941
0.000192066
0.00339658
0.0316766
0.0115524
0.0256267
0.000144069
0.000167496
0.000156852
0.000162957
0.000806436
0.00013927
0.000152624
0.000188725
0.000145915
0.00015292
0.000147317
0.000177212
0.000155263
0.002203
0.000153353
0.000155953
0.000204922
0.000157458
0.000188407
0.00305429
0.000153003
0.000204289
8.65937e-05
0.00019879
0.000195127
0.00402784
0.000144961
0.000132685
0.00705072
0.00293016
0.00309707
0.0128064
0.00290384
0.0100321
0.000155701
0.000436209
0.000185834
0.000196582
0.011272
0.000145961
0.000153805
0.0001328
0.000145331
0.0141617
0.000155427
0.000147238
0.000207205
0.0239152
0.000197307
0.000191144
0.000257673
0.000157319
0.00039988
0.00270043
0.000167166
0.000162566
0.0150195
0.00680987
0.0210758
0.000146825
0.000141324
0.000142048
0.000187773
0.0164364
0.000176918
0.0174127
0.000148973
0.00353717
0.000143956
0.0132285
0.000200534
0.0329536
0.000214425
0.0116645
0.000157543
0.00014171
0.000204166
0.000182606
0.00269098
0.000160805
0.000157173
0.000151152
0.000188741
0.0284798
0.000841269
0.000151185
0.0237928
0.000178268
0.00015026
0.000154412
0.000143321
0.000167603
0.000180416
0.000131571
0.0196396
0.000244618
0.000153233
0.000142077
0.000174335
0.000155679
0.000153185
0.00439083
0.0291111
0.000131684
0.000157194
0.00015757
0.00688932
0.000154219
0.0139931
0.00200279
0.0102756
0.000145384
0.00802109
0.000177673
0.0001521
0.000198655
0.000144721
0.000139038
0.0180754
0.000143914
0.00547319
0.000140797
0.000131776
0.00583635
0.0359391
0.0254322
0.0233919
0.000153497
0.000149587
0.000136572
0.000153612
0.00289329
0.00020372
0.00019873
0.000146385
0.00322858
0.000186506
0.000154004
0.0254467
0.000145996
0.000152535
0.000153432
0.000142378
0.000153387
0.000196567
0.000185508
0.000134117
0.000160505
0.0137137
0.000138917
0.000162263
0.000134671
0.00023097
0.000167565
0.000151727
0.0179769
0.014291
0.000136595
0.000142548
0.0258513
0.000138797
0.0101752
0.000176902
0.000149694
0.000914545
0.000131955
0.000158728
0.00871612
0.0001438
0.000190283
0.000133108
0.000147634
0.000157389
0.000148439
0.00019115
0.00019048
0.00273399
0.0125381
0.000143191
0.000167418
0.0246836
0.000152137
0.00014874
0.0048009
0.000148985
0.000142265
0.000146105
0.0124509
0.000165198
0.000143281
0.000184179
0.000143929
0.0419688
0.00015707
0.0285337
0.000132653
0.0358507
0.000149913
0.00401446
0.000131435
0.000135822
0.00369448
0.000199045
0.0123697
0.000143406
0.029691
0.000157376
0.000149205
0.0318159
0.000196477
0.0392529
0.000148145
0.000163205
0.000144771
0.0156222
0.000131543
0.000176374
0.000229818
0.000136509
0.000142798
0.000183511
0.000179856
0.0404459
0.000278921
0.000136442
0.000143399
0.000139063
0.00597509
0.00013758
0.000185681
0.000141234
0.0376109
0.000178823
0.00472921
0.000153703
0.000158654
0.000167415
0.00592132
0.000149282
0.00015387
0.000178533
0.00465459
0.000188892
0.00752462
0.00517145
0.00014423
0.00013595
0.000160722
0.00530793
0.000139349
0.00495659
0.000152116
0.000149124
0.000160146
0.0304167
0.000431384
0.000166917
0.00015255
0.000306438
0.000175497
0.000166831
0.000139152
0.00370028
0.000737699
0.0414196
0.00349671
0.000137549
0.000132183
0.000142841
0.00017759
0.00833253
0.00915601
0.00014068
0.000144075
0.000323629
0.00392678
0.000202593
0.000154728
0.000147366
0.000169358
0.00359218
0.00494793
0.000161259
0.0322138
0.000139384
0.0378728
0.000159991
0.000156674
0.0405717
0.000147646
0.000182258
0.0346483
0.000140417
0.000173974
0.000160986
0.000154185
0.0366494
0.000161569
0.000149002
0.0314444
0.000133231
0.000159063
0.000149663
0.0401414
0.000195953
0.000143421
0.000178807
0.000143651
0.0115635
0.000174724
0.000146146
0.000144976
0.000195428
0.000162398
0.000152254
0.000144084
0.000147497
0.000148815
0.00312444
0.0248886
0.019801
0.000165924
0.0392489
0.0194596
0.000143695
0.000168058
0.000203488
0.000204404
0.000192923
0.000194082
0.000536117
0.000156418
0.011746
0.0360034
0.000144323
0.000450779
0.00062177
0.000623736
0.000152227
0.000196809
0.0159989
0.000142882
0.0114276
0.000144925
0.000143713
0.000139738
0.000131632
0.000141586
0.0361735
0.00412005
0.00014466
0.000172917
0.000133946
0.0300847
0.000172787
0.00881443
0.019634
0.000144875
0.000208669
0.000161191
0.00876863
0.000143929
0.000131804
0.000168757
0.0228435
0.00014474
0.0376589
0.000200385
0.000195047
0.0140336
0.00303683
0.00284225
0.000161183
0.000139494
0.00015026
0.000163867
0.00017849
0.0253553
0.000167492
0.0388413
0.035119
0.000134073
0.000144327
0.0183356
0.0195937
0.00015476
0.0298393
0.000171296
0.000162004
0.000150693
0.0156739
0.000137832
0.000166892
0.000158927
0.000145919
0.000143991
0.000140142
0.000134553
0.000190367
0.000186642
0.0154663
0.00016298
0.000180003
0.000174084
0.00601536
0.000160199
0.00148366
0.00015617
0.00362268
0.000131675
0.000139909
0.0001493
6.18069e-05
0.00340621
0.000196078
0.000171685
0.0119359
0.00219782
0.000214117
0.000160248
0.000183927
0.000143679
0.00594562
0.000143375
0.0143916
0.00488098
0.000186696
0.0258174
0.000149919
0.00051096
0.00439562
0.0223846
0.000131792
0.000163631
0.000177543
0.000563933
0.00013729
0.000148892
0.000185267
0.000195025
0.000169021
0.0307675
0.000148199
0.000145482
0.011958
0.00016342
0.000131926
0.014839
0.000139421
0.000153812
0.000138049
0.000175728
0.000152276
0.00013234
0.000149284
0.030585
0.000144093
0.000169348
0.000140021
0.000169634
0.00169558
0.000156731
0.00014484
0.000155935
0.000155758
0.0108159
0.000148997
0.000229725
0.000143747
0.000149054
0.0252673
0.0243205
0.000144194
0.000173843
0.000160337
0.00579625
0.0132877
0.000145538
0.00371716
0.000144186
0.000188737
0.000146488
0.0162145
0.000133168
0.0106864
0.000190265
0.000132815
0.000172987
0.0238722
0.000177049
0.00374675
0.000156798
0.0017652
0.000157165
0.000138397
0.000139302
0.000145841
0.0239383
0.000183738
0.000196241
0.000376217
0.000199653
0.000134575
0.0203052
0.00344701
0.00015891
0.000160815
0.00575437
0.00178289
0.0338973
0.000152588
0.0164998
0.0132531
0.011881
0.000162628
0.000175359
0.00522233
0.000629481
0.00328167
0.00457938
0.0269481
0.000153857
0.0276966
0.0119092
0.000131912
0.000573716
0.000184235
0.0197771
0.000154135
0.0001428
0.000142087
0.000143896
0.000190478
0.000175688
0.00756912
0.0294076
0.000139783
0.0107157
0.0246652
0.000710296
0.00381997
0.000168861
0.00013144
0.000139655
0.000694336
0.0229346
0.000152764
0.000190028
0.000204124
0.000132676
0.000183486
0.00255513
8.87545e-05
0.000194117
0.0252015
0.0118555
0.000144444
0.000146047
0.0198739
0.0347394
0.000196677
0.000167277
0.000211601
0.000131858
0.000142053
0.0164861
0.000132373
0.000153962
0.000131831
0.00013946
0.0135856
0.000190293
0.000167778
0.000132279
0.0363684
0.00433356
0.000139574
0.000143074
0.000139605
0.000149452
0.0222579
0.00469877
0.00451875
0.01135
0.00359404
0.000165748
0.0159797
0.0259096
0.000157617
0.000167642
0.000131415
0.000148989
0.000168626
0.0280703
0.0117226
0.000189609
0.000162465
0.000138831
0.000167421
0.000149016
0.00353224
0.000185964
0.000143624
0.000167422
0.000137275
0.000159757
0.000196933
0.000146888
0.000143436
0.000172715
0.00014697
0.000188746
8.54542e-05
0.000195566
0.000168075
0.000197569
0.000138659
0.000181316
0.000170636
0.0112347
0.000149641
0.000151729
0.0164461
0.000154333
0.0136362
0.0362017
0.0132622
0.01507
0.000137775
0.00932603
0.000138465
0.000139437
0.000133163
0.000139524
0.000149732
0.000163877
0.000173931
0.000132028
0.0219453
0.000191592
0.0236323
0.000141434
0.000134623
0.000142822
0.000201246
0.0255084
0.000178947
0.000160135
0.000138839
0.000149903
0.000146967
0.000143098
0.00010287
0.0277401
0.000146691
0.000131911
0.000145969
0.000142982
0.0031286
0.0128129
0.00016782
0.0266178
0.00137999
0.000143214
0.000195869
0.0226644
0.000168871
0.0328661
0.000148927
0.000161135
0.00017853
0.000161267
0.00387951
0.000144057
0.0038146
0.000143998
0.000163462
0.0285659
0.000142896
0.000152676
0.000205109
0.000138505
0.000157942
0.00199787
0.0246142
0.00018547
0.00369047
0.00357119
0.000131577
0.00014118
0.0254822
0.000201567
0.000182808
0.0363734
0.000138757
0.000165313
0.000132015
0.00501254
0.000877408
0.000158864
0.000148768
0.00205891
0.000155649
0.000142531
0.0105146
0.00910265
0.0286657
0.000133069
0.000146533
0.0164037
0.0073788
0.000200943
0.000148253
0.0237821
0.000144017
0.00316736
0.000203565
0.000188276
0.000157335
0.0129805
0.000164869
0.000150836
0.000120434
0.000151067
0.000164925
0.000152733
0.00013848
0.0116907
0.000166095
0.000194222
0.00016651
0.00110927
0.000139049
0.00178678
0.000156036
0.00016459
0.000135259
0.000142799
0.000144874
0.0343015
0.000141818
0.000132116
0.00370868
0.000146289
0.0202515
0.000145125
0.000149151
0.000185062
0.00835908
0.00422199
0.000141346
0.000241667
0.0270786
0.000149149
0.0335782
0.000163141
0.000138188
0.000195615
0.00831315
0.000255889
0.00015908
0.000140839
0.000131687
0.00391897
0.000191049
0.000185456
0.000160575
0.000195391
0.00015029
0.00014865
0.000190035
0.00273378
0.000190656
0.0108844
0.00014629
0.000189027
0.000188461
0.039202
0.000158634
0.0348596
0.000230085
0.000146419
0.0132613
0.000208608
0.0249931
0.0242752
0.0318217
0.00419533
0.000172969
0.000138335
0.000162676
0.0153603
0.013207
0.000144516
0.000149151
0.000184203
0.00226412
0.000132842
0.0104006
0.000138493
0.000144643
0.0123451
0.0162621
0.00364168
0.000139392
0.000143827
0.00873594
0.000142126
0.0001952
0.000152734
0.0228528
0.000142986
0.0253862
0.000180077
0.000172374
0.000149036
0.000146325
0.0213335
0.000177327
0.0185348
0.000175915
0.00016707
0.0118912
0.0248689
0.0220656
0.000144713
0.000164196
0.000139473
0.000168508
0.000152453
0.029592
0.000165847
0.0342454
0.000132717
0.000184595
0.000142514
0.000213579
0.000166339
0.000163777
0.0272196
0.00017405
0.000177568
0.000153728
0.000184641
0.00925746
0.000202082
0.000154213
0.0146208
0.000138884
0.0234487
0.00401325
0.000147544
0.0369595
0.0235005
0.0218368
0.00429689
0.000172695
0.000144302
0.0274317
0.000166721
0.00217252
0.02897
0.000141406
0.000151792
0.000115193
0.00350233
0.028921
0.000146495
0.000141975
0.0196518
0.028451
0.000194273
0.000158316
0.000151241
0.00374487
0.0141994
0.000189185
0.000132166
0.000173454
0.000138595
0.000161136
0.00171491
0.000151085
0.0128787
0.00595418
0.000144819
0.000150195
0.000144528
0.000152912
0.0159021
0.0227707
0.000163149
0.0366611
0.000142443
0.000163232
0.000143963
0.000138698
0.00014706
0.000144656
0.0217996
0.000144242
0.0001786
0.000144822
0.000159269
0.00171291
0.00633189
0.000157123
0.0202082
0.000186183
0.000317524
0.000166666
0.000166947
0.0162042
0.000159738
0.000177213
0.0295296
0.000435168
0.012245
0.000172898
0.00321537
0.000149217
0.000172759
0.000178722
0.0306741
0.00014554
0.0271341
0.00014099
0.00014163
0.0255229
0.000144923
0.00434366
0.000157819
0.00013942
0.000178782
0.0001395
0.000143861
0.000140642
0.000148616
0.000169698
0.000141589
0.000139949
0.0142277
0.000182178
0.0257515
0.000146085
0.000156404
0.000152315
0.000144095
0.000139272
0.000187439
0.000148959
0.000141235
0.000149008
0.000147972
0.0202662
0.0283217
0.000196805
0.0300857
7.60436e-05
0.000142035
0.00746395
0.000162235
0.000141395
0.0027141
0.000305982
0.00577933
0.000141811
0.00294742
0.00313141
0.0177656
0.000136731
0.012195
0.000165163
0.000155089
0.000141895
0.000138746
0.0413762
0.000194726
0.00936897
0.000142438
0.000143556
0.00556151
0.000147639
0.00523263
0.00400249
0.00165984
0.000724642
0.00309545
0.000149026
0.000144471
0.000204536
0.000169934
0.000154512
0.000208713
0.000174169
0.000149134
0.000150956
0.0286029
0.000141487
0.0196757
0.00374158
0.0018233
0.000211118
0.000152222
0.000137335
0.000148146
0.00343942
0.00427773
0.000136729
0.000159441
0.000142233
0.000187088
0.000133618
0.000141816
0.000149377
0.000166572
0.000751471
0.000178068
0.000167364
0.000145315
0.000178482
0.00961615
0.000150239
0.0130053
0.00873289
0.000187707
0.000135025
0.000174718
0.000142782
0.000146481
0.000147779
0.0164032
0.000195666
0.00284436
0.000154607
0.00272056
0.000143171
0.000144007
0.000147705
0.00768376
0.000566694
0.000133808
0.000166198
0.000190252
0.025173
0.000156671
0.00531332
0.000151796
0.0406397
0.000188714
0.0306067
0.000190344
0.000187485
6.36517e-05
0.0259767
0.00273073
0.0129691
0.000145487
0.000228588
0.000133475
0.000154393
0.000158549
0.000147277
0.026089
0.000163577
0.000160767
0.0039396
0.000205151
0.010968
0.000143529
0.000154276
0.000159639
0.000137982
0.000164035
0.0184736
0.00583855
0.0198035
0.00014056
0.000159808
0.000153571
0.00244908
0.0296241
0.000207016
0.000137242
0.000148606
0.016238
0.00017623
0.0312733
0.0232084
0.000189766
0.000134843
0.00757442
0.00016291
0.000174997
0.000161965
0.0348717
0.00381039
0.000196395
0.000242917
0.000150539
0.000164678
0.000144645
0.0116959
0.000183522
0.0247782
0.00243441
0.000158363
0.00019878
0.000152078
0.0344133
0.000122026
0.000142479
0.000445136
0.0297253
0.000676348
0.0175295
0.000146514
0.000144732
0.0163324
0.0110842
0.0152297
0.000155484
0.000146017
0.000144843
0.0205859
0.000199764
0.000148546
0.0012738
0.000192506
0.039654
0.00660997
0.00849148
0.000144229
0.0206618
0.000156322
0.000144678
0.000197563
0.0251185
0.000146673
0.000140993
0.00510872
0.0329736
0.000144225
0.000140451
0.0271099
0.000142133
0.000791529
0.000140563
0.00154918
0.000144757
0.000178963
0.0176914
0.0296165
0.000151428
0.00818331
0.00578594
0.0232289
0.00333856
0.0411287
0.000212441
0.000142408
0.00533589
0.00015704
0.000143648
0.000137865
0.00638
0.000143014
8.61153e-05
0.000141183
0.00015135
0.015642
0.000185386
0.00938477
0.000152612
0.0001595
0.000139183
0.000165965
0.00588489
0.0249223
0.000140402
0.00018435
0.00344988
0.000147438
0.00013897
0.0283207
0.000167781
0.000169216
0.000195967
0.0233657
0.000791344
0.00390354
0.0147994
0.000217544
0.00364681
0.00366666
0.0013533
0.000184438
0.000136721
0.000195914
0.000142354
0.000142378
0.0278287
0.0285296
0.000153268
0.0259108
0.000139973
0.0190248
0.000492321
0.000165475
0.00014365
0.000212747
0.000286252
0.00014293
0.000151752
0.0345672
0.0297131
0.00349509
0.0322292
0.000172902
0.0368369
0.0357476
0.000165461
0.000147425
0.000142397
0.00350401
0.000141364
0.000122513
0.000152656
0.000149871
0.000153781
0.0117195
0.037485
0.0209513
0.00014886
0.00851554
0.000157913
0.000164637
0.000140997
0.00014253
0.0133
0.000160789
0.0262873
0.0211408
0.000885696
0.000194539
0.000144494
0.000173406
0.000147417
0.000200133
0.000149233
0.000152325
0.000148464
0.000153396
0.000200161
0.000150042
0.00016866
0.000143321
0.000169197
0.000217047
0.0166861
0.000142776
0.000177321
0.000145536
0.000241222
0.000159329
0.0211348
0.000255731
0.000165002
0.000154466
0.000152915
0.000653347
0.000144166
0.00118406
0.000143956
0.000142815
0.000148303
0.0320964
0.000160089
0.000156322
0.000169545
0.000146308
0.000183239
0.0306511
0.00367591
0.000168983
0.000144645
0.000234569
0.000137258
0.000143312
0.000210999
0.0342925
0.000144882
0.000165809
0.000212922
0.00975757
0.000148745
0.000149779
0.0327195
0.00015176
0.000335141
7.13608e-05
0.036265
0.000144979
0.000171359
0.000143155
0.0390253
0.000198431
0.000173936
0.000194588
0.021239
0.000150989
0.0333428
0.036513
0.00014751
0.0134517
0.000187795
0.000152732
0.0137147
0.000146097
0.000144714
0.000138072
0.000205096
0.000435949
0.00020179
0.000152479
0.000150468
0.000163227
0.00425265
6.3679e-05
0.0366236
0.00362924
0.000149544
0.000198512
0.000199016
0.0136109
0.000187462
0.00235108
0.00014149
0.000168918
0.000138948
0.00341688
0.000172003
0.000143092
0.0275522
0.000243124
0.000166518
0.000163149
0.000132766
0.0001459
0.000178608
0.000168189
0.00625553
0.000184598
0.000185626
0.000181599
0.000196258
0.0427612
0.000243863
0.0367566
0.000142988
0.000141096
0.000209819
0.0220004
0.0126197
0.000185326
0.000155263
0.0154913
0.00340175
0.000143092
0.000158929
0.000139693
0.000173013
0.000185179
0.000254801
0.0120624
7.75568e-05
0.000151862
0.0248038
0.0138036
0.000144139
0.000204871
0.0346443
0.0125767
0.000154698
0.000186278
0.00013147
0.000158617
0.000142607
0.000158087
0.0385213
0.0242351
0.00933185
0.0146033
0.000151578
0.000168834
0.000179953
0.000143824
0.000148851
0.000138755
0.0272645
0.00014109
0.0329894
0.000171281
0.000190619
0.000205631
0.000179924
0.0177712
0.0119727
0.000172501
0.000134308
0.000149211
0.00946691
0.00339218
0.000156654
0.000139453
0.000139387
0.000184433
0.000164503
0.000199337
0.040058
0.000151395
0.000138302
0.00019665
0.000213274
0.0156661
0.0149076
0.000140543
0.000186073
0.000147112
0.0412609
0.000135869
0.0374688
0.000141947
0.00015117
0.000164391
0.000149254
0.000222024
0.000163686
0.000176834
0.0169467
0.0302725
0.000157499
0.000163837
0.000143474
0.0108097
0.0180811
0.000149447
0.00013616
0.0031985
0.000131515
0.0250199
0.000145287
0.000170349
0.000186464
0.0130014
0.000173662
0.000151484
0.000146107
0.000185124
0.0345483
0.000142467
0.00214482
0.0252329
0.0168886
0.00103424
0.000168484
0.0202987
0.000157285
0.000196477
0.000143141
0.00389569
0.00362921
0.0127261
0.0144997
0.0437493
0.000145854
0.0002
0.000140985
0.0125189
0.00270128
0.0339692
0.0160051
0.000160675
0.0426112
0.00994641
0.000169731
0.000152265
0.000146817
0.0266013
0.000158564
0.000184971
0.000159933
0.000147793
0.00013869
0.000146845
0.0281424
0.000187749
0.000165411
0.016677
0.0061214
0.000143697
0.000143617
0.000139036
0.000165566
0.0365736
0.000158217
0.000158597
0.000171189
0.0003654
0.000189204
0.000175312
0.00897156
0.000164521
0.0371461
0.000163462
0.000164223
0.000143307
0.000159408
0.000185611
0.00277008
0.00426044
0.0293071
0.000186879
0.0260357
0.000156427
0.000156039
0.000147166
0.0105854
0.0223689
0.00151709
0.000387539
0.000154152
0.000144812
0.000142211
0.000143948
0.000138954
0.0105635
0.000163244
0.0117819
0.000166882
0.0247072
0.0187146
0.0374833
0.000188073
0.000158341
0.0157582
0.000173109
0.000254398
0.0290564
0.000138296
0.0011998
0.000160433
0.0211694
0.00985101
0.000169261
0.00229329
0.00457798
0.000158659
0.000188806
0.000165197
0.0136421
0.00401294
0.000155184
0.00014615
0.00408658
0.00154344
0.000196762
0.00322083
0.000195736
0.000167628
0.000143993
0.027754
0.0330885
0.000188141
0.000164371
0.028853
0.0269059
0.000141184
0.000144336
0.000155659
0.0338935
0.0316241
0.000143603
0.0201837
0.000149729
0.000142687
0.000147487
0.0137198
0.000304445
0.000191012
0.0121185
0.0001527
0.00015224
0.000141243
0.0111882
0.000151807
0.0249137
0.00015471
0.0149119
0.000148565
0.000142415
0.000196178
0.0101502
0.00289037
0.000169681
0.0175582
0.000136583
0.000146013
0.00014447
0.000175651
0.000184049
0.000183909
0.000172963
0.0284799
0.000155867
0.00019792
0.000251916
0.0421708
0.000146017
0.0248662
0.0303471
0.000156655
0.00273087
0.00018375
0.0226244
0.000147124
0.000183393
0.000143788
0.000208507
0.0143476
0.000203967
0.0361757
0.000154134
0.000177038
0.000151366
0.0211623
0.000135046
0.000139575
0.00608312
0.000190364
0.0227521
0.00537045
0.000183255
0.000162364
0.000137896
0.0219107
0.000163304
0.000142996
0.000200582
0.000139956
0.00017442
0.000144818
0.0188948
0.000154604
0.00283063
0.00437126
0.000164107
0.000717174
0.000179244
0.0414097
0.000145273
0.016444
0.0338659
0.000139422
0.00014417
0.000152824
0.000148721
0.000172275
0.000143743
0.00655559
0.000186611
0.00318987
0.000277881
0.000146901
0.000149094
0.000138374
0.0142629
0.000146255
0.000144549
0.000124291
0.000154754
0.0106563
0.0351605
0.000189714
0.000155309
0.000167692
0.000152097
0.000149699
0.000195271
0.000136746
0.000155067
0.00998563
0.0389478
0.000691787
0.000151961
0.0131479
0.00136755
0.000148785
0.00204274
0.0288891
0.000143684
0.000154079
0.000143169
0.0156313
0.0174685
0.00692117
0.000136653
0.000155358
0.000151758
0.000146272
0.000196395
0.000147199
0.000710209
0.00688677
0.0352844
0.000138271
0.000154862
0.000153797
0.0155079
0.000132786
0.0169254
0.011471
0.00080343
0.000708313
0.0190428
0.033043
0.000150515
0.00512329
0.007642
0.000150895
0.000137671
0.000140323
0.0355488
0.0120723
0.0137663
0.00014583
0.0379387
0.000146998
0.000203338
0.000139352
0.000153726
0.000150743
0.00013814
0.0186869
0.000151042
0.0269409
0.0263715
0.0163076
0.000176932
0.00017858
0.0164671
0.0339075
0.000149283
0.00757351
0.000138329
0.000131841
0.000143415
0.000174695
0.000140968
0.0172221
0.000162484
0.000444195
0.000173813
0.0111512
0.0175767
0.000209594
0.000137901
0.000180316
0.000186753
0.0170145
0.000146089
0.000134514
0.00015741
0.0275652
0.00014727
0.00324983
0.0161123
0.000173218
0.000183534
0.000146261
0.00207189
0.000148485
0.0375953
0.000135652
0.00999746
0.000164714
0.000145857
0.0167739
0.0154088
0.000135449
0.000183758
0.000156598
0.013266
0.000170762
0.000263274
0.000371061
0.000148656
0.000181
0.0260051
0.000142734
0.000174769
0.000151514
0.000186796
0.000166059
0.012758
0.0234562
0.000146141
0.0249887
0.00015119
0.000175231
0.0285891
0.0157516
0.000171577
0.0259012
0.000115788
0.000146266
0.00309476
0.000197419
0.000164471
0.000150913
0.0245706
0.000135761
0.0169526
0.000255872
0.000197791
0.000143423
0.000165825
0.0247439
0.000175628
0.0249832
0.000149865
0.000154899
0.000245503
0.0242355
0.000158392
0.0351066
0.0106927
0.0178302
0.000147622
0.0224028
0.00529517
0.0208183
0.000143945
0.000147342
0.000145388
0.0363107
0.00016762
0.00244936
0.000867548
0.000148883
0.000138106
0.000143765
0.0183866
0.00636523
0.0243327
0.0175701
0.000141037
0.0239587
0.0313768
0.000196739
0.0125119
0.0260429
0.000171234
0.0154659
0.000153697
0.000157846
0.0131533
0.015912
0.00014826
0.025457
0.000148371
0.000144434
0.0423305
0.0234889
0.031699
0.0133125
0.000165616
0.000148832
0.00015929
0.0302105
0.0150678
0.000142469
0.000175856
0.00389417
0.000144584
0.000146519
0.025221
0.0328329
0.000153265
0.000144211
0.000150615
0.000151802
0.00151398
0.000148676
0.000144094
0.000158806
0.000223977
0.0305681
0.00485843
0.0247649
0.000146358
0.000157216
0.0289888
0.0327924
0.000162938
0.000214779
0.00014329
0.000169422
0.000151533
0.000151749
0.000184818
0.000143717
0.0121949
0.000168019
0.000141591
0.000156518
0.00863598
0.033277
0.0217281
0.000144733
0.000170203
0.033691
0.00600084
0.000155207
0.000145648
0.000144568
0.00363176
0.00014672
0.000150158
0.000161567
0.000144035
0.0293082
0.000112809
0.000148577
0.000155839
0.000135992
0.000147133
0.0227383
0.00840967
0.000185427
0.0133946
0.000212565
0.000149183
0.000143148
0.000145909
0.000145067
0.000148356
0.000165137
0.000186727
0.0286023
0.000150308
0.000194075
0.0218262
0.000308753
0.000144007
0.000139691
0.000153875
0.0354207
0.000144585
0.00142162
4.40481e-05
0.000186823
0.000147635
0.0140807
0.000136555
0.000339126
0.000137773
0.00013678
0.000147511
0.00014174
0.000185542
0.0144629
0.000467479
0.000171791
0.0212236
0.00109673
0.00208891
0.000165555
0.0237001
0.0135917
0.000194569
0.0268141
0.0262337
0.000194027
0.00107482
0.000148794
0.000141032
0.025999
0.000141951
0.000156005
0.0418722
0.000441399
0.0296766
0.000244158
0.0001403
0.000154447
0.000146187
0.000544993
0.000139157
0.000706365
0.0245494
0.026789
0.0124112
0.000146298
0.000136236
0.000185722
0.0258522
0.0295703
0.000199445
0.000743258
0.000140375
0.00176736
0.0270579
0.00025956
0.00015529
0.000146654
0.000136236
0.000153523
0.000146473
0.000145499
0.000155527
0.0282055
0.000187011
0.0256614
0.00334531
0.00117002
0.000204746
0.000143051
0.000143625
0.000147436
0.000139158
0.000148564
0.00802161
0.0186417
0.00236663
0.0381128
0.000153686
0.018189
0.00020039
0.0351674
0.0299969
0.000146761
0.000141618
0.00396345
0.000146406
0.000135618
0.0023282
0.0294351
0.00403386
0.000144812
0.000146338
0.000154573
0.000171198
0.00917393
0.000138527
0.000154913
0.000219454
0.000139418
0.0020937
0.000170833
0.0412749
0.000148727
9.81026e-05
0.0255181
0.000170153
0.0293582
0.000193745
0.0265665
0.000136274
0.000157877
0.000140736
0.000164132
0.0138629
0.000146901
0.0117326
0.000146814
0.00014707
0.000144226
0.0380763
0.000175061
0.000193867
0.00322954
0.000139587
0.00017657
0.0150068
0.000179635
0.000141279
0.000151145
0.000146542
0.000184532
0.000145348
0.000142295
0.0402197
0.0350231
0.0366656
0.0015381
0.000379222
0.0186404
0.00018518
0.0391629
0.00019861
0.000135645
0.000143797
0.000131616
0.000147811
0.0310596
0.0314055
0.000138697
0.00964969
0.0396586
0.000162665
0.000150031
0.000169612
0.0244267
0.0241479
0.0284351
0.00598356
0.029656
0.000131702
0.000142331
0.000193536
0.00396511
0.0144638
0.000143678
0.000197215
0.017411
0.000167624
0.0253211
0.000148793
0.000798693
0.0183591
0.0342417
0.000186296
0.000165555
0.0160639
0.000198008
0.034707
0.0372762
0.029175
0.000193898
0.0178868
0.000146585
0.000156072
0.000176698
0.0213982
0.00440145
0.0264086
0.000152843
0.000198619
0.000186014
0.000153768
0.0271506
0.0001437
0.000196423
0.0201983
0.000143679
0.0435192
0.0311152
0.0371952
0.0221362
0.00071672
0.00678506
0.000143665
0.0318366
0.000146427
0.000142145
0.000173472
0.000155075
0.0306485
0.000155401
0.000170716
0.000155705
0.000141679
0.015106
0.000153016
0.000194379
0.00249264
0.000138205
0.0264369
0.000193215
0.00015047
0.0132388
0.000118619
0.000143411
0.000287048
0.000150066
0.0392865
0.0036074
0.000138891
0.000195761
0.000153179
0.0334206
0.0297831
0.000185939
0.0100513
0.000158308
0.000144656
0.0426849
0.000155134
0.000145431
0.00426872
0.00017214
0.000140256
0.000141426
0.000199552
0.00015266
0.0201487
0.00014345
0.000385928
0.0220921
0.000178917
0.000184259
0.000144075
0.0342014
0.0163484
0.0241633
0.000144035
0.000137895
0.000186493
0.000165131
0.00322417
0.000145621
0.00474973
0.000144919
0.000227995
0.000150295
0.000620628
0.000209424
0.000194261
0.0267597
0.0208075
0.0284745
0.0285546
0.00013189
0.000612427
0.00072947
0.0198649
0.000144165
0.000211211
0.0160465
0.0140792
0.00019493
0.000281962
0.0129115
0.0357915
0.000175281
0.000131566
0.000138022
0.000176837
0.00017355
0.000143409
0.000185033
0.0224036
0.0014741
0.0148749
0.00116823
0.000142352
0.000140555
0.00016948
0.000143518
0.0153716
0.000138773
0.000140561
0.0385832
0.000192405
0.000170024
0.000193054
0.000154571
0.000190416
0.0140109
0.0304497
0.0148251
0.000157658
0.030184
0.000151936
0.000138835
0.000153328
0.0247342
0.000161539
0.000140886
0.000192782
0.000150976
0.000141322
0.00014355
0.000148838
0.000159483
0.0244659
0.000994613
0.000162755
0.0279088
0.0198365
0.00689164
0.0136119
0.000144704
0.000163788
0.000363711
0.000144283
0.000189745
0.000160148
0.000155302
0.0236752
0.0305689
0.000138818
0.000171583
0.000163836
0.000185947
0.0210217
0.0420257
0.0360307
0.000147339
0.000188286
0.0374277
0.000187872
0.000195431
0.00268428
0.0239482
0.03365
0.0399659
0.000138296
0.0163306
0.000138542
0.000152866
0.000144102
0.000183639
0.0343329
0.0141662
0.00532642
0.0136348
0.000182067
0.000135093
0.000139578
0.000146449
0.000159484
0.000174963
0.0375023
0.040387
0.000186851
0.0013979
0.000147886
0.000181901
0.000138614
0.0364498
0.00019969
0.000146948
0.000206043
0.000192737
0.0277215
0.0248446
0.000200454
0.00840416
0.000157157
0.0249829
0.000141257
0.0142755
0.00274411
0.000151688
0.000181661
0.00014584
0.0259719
0.0134306
0.000173067
0.0344389
0.000135505
0.0348772
0.000185848
0.000246662
0.000178849
0.000140186
0.000196292
0.000180875
0.000155724
0.000181355
0.000165203
0.000166904
0.0155016
0.000200662
0.000153664
0.000164807
0.000169977
0.000167211
0.000150743
0.0393842
0.000195208
0.000600917
0.0116858
0.00014466
0.0293407
0.000144393
0.000155258
0.000154504
0.0292538
0.000171908
0.0355924
0.0133379
0.00018333
0.000186927
0.000194875
0.0289572
0.00019824
0.0082264
0.000168742
0.000175411
0.000142563
0.0316142
0.00320163
0.000168013
0.000147957
0.000171566
0.000158647
0.000156407
0.000177241
0.000171682
0.00014727
0.00016941
0.0148687
0.0241674
0.000228122
0.000173336
0.000133414
0.0276805
0.000166181
0.000183307
0.00033221
0.000173841
0.031287
0.000135933
0.000166985
0.000155228
0.000168905
0.000143277
0.0300985
0.0015281
0.00868124
0.000172429
0.0288107
0.000188005
0.000158217
0.028322
0.000183795
0.000199173
0.0128171
0.000183129
0.000155489
0.000172272
0.000186138
0.000155302
0.000263304
0.0252193
0.00303191
0.000140231
0.0001756
0.000683402
0.0114316
0.000143067
0.000175402
0.000143892
0.000165111
0.0147258
0.000163654
0.00016308
0.000140397
0.000140151
0.0113527
0.0246071
0.000145934
0.02246
0.000211406
0.000135264
0.00016358
0.0315812
0.000196668
0.000192603
0.000144185
0.000160614
0.000196505
0.000149112
0.000142727
0.0386619
0.000163387
0.0301451
0.000188296
0.000159073
0.0327135
0.000200404
0.000204331
0.000140662
0.00476986
0.000163526
0.00015979
0.0264976
0.00017273
0.000147373
0.000190854
0.000156334
0.00015713
0.000136223
0.000504699
0.000144438
0.000194227
0.00538202
0.000193775
0.00014188
6.35841e-05
0.00016459
0.0121183
0.000201954
0.0249776
0.000197271
0.0330785
0.00013879
0.000186982
0.000157833
0.000142059
0.00349769
0.0247401
0.00015683
0.000283278
0.000161701
0.000186246
0.0251497
0.000158686
0.00413113
0.00166053
0.0270092
0.0291941
0.000230949
0.000224488
0.000140115
0.000194762
0.000170863
0.00178556
0.0286089
0.0362309
0.0423554
0.0378835
0.000139953
0.000256855
0.000143943
0.000151106
0.000146943
0.00421987
0.000209824
0.000199391
0.000142183
0.0100719
0.000160851
0.021841
0.000142179
0.000181534
0.000164048
0.000184929
0.00017449
0.000192546
0.000152568
0.000206756
0.000209146
0.000140906
0.0228976
0.000181552
0.000196287