/*--------------------------------*- C++ -*----------------------------------*\
| =========                 |                                                 |
| \\      /  F ield         | OpenFOAM: The Open Source CFD Toolbox           |
|  \\    /   O peration     | Version:  v2012                                 |
|   \\  /    A nd           | Website:  www.openfoam.com                      |
|    \\/     M anipulation  |                                                 |
\*---------------------------------------------------------------------------*/
FoamFile
{
    version     2.0;
    format      ascii;
    class       surfaceScalarField;
    location    "300";
    object      meshPhi;
}
// * * * * * * * * * * * * * * * * * * * * * * * * * * * * * * * * * * * * * //

dimensions      [0 3 -1 0 0 0 0];
oriented        oriented;


internalField   nonuniform List<scalar> 
20537
(
0.000862233
3.99903e-05
-0.000908607
-0.00108671
0.000802075
0.000284489
0.000109523
0.0004212
-0.000530987
0.00142566
-0.000776179
-0.000655203
-0.000317485
-0.000202282
0.000519593
-0.000760121
-0.000266906
0.00102471
0.00101842
-0.000816888
-0.000214307
-0.000315144
0.000643159
-0.000328527
0.000424626
-0.000556381
0.000116387
-0.000737564
0.000327897
0.00040929
0.000105578
-0.000287345
0.000180949
0.000498695
2.74813e-05
-0.000526226
-0.000242329
0.000309536
-6.72255e-05
-0.000128488
-0.000191765
0.000320255
7.79789e-05
0.000210595
-0.00034482
0.00043878
0.000304322
-0.000744428
-0.00098293
0.000289152
0.000691074
0.000121831
0.000672971
-0.000797434
-0.000202303
-0.000168439
0.000370699
0.000538631
-0.000130066
0.000644549
0.000771531
0.000619154
-0.000509928
1.9334e-05
-3.9532e-06
-2.15491e-05
-4.59257e-05
4.86843e-05
-2.84042e-05
2.65555e-06
1.04844e-05
0.000329097
-0.000644818
-0.000760888
0.000609932
0.000148956
0.000124803
6.3418e-05
0.00115215
-0.000296483
0.00110959
-0.000166126
-0.000947871
0.000246545
-0.00100874
-0.000523075
-0.000462225
0.000662147
-0.00024126
0.000359081
0.000220695
-0.000580414
3.3321e-05
-0.000105877
0.000226921
5.34528e-05
-0.000280398
-0.000314428
0.000154657
0.00015976
-0.000233473
-0.000207196
0.000440597
-0.000538599
-0.000199251
0.000783996
-0.000425657
0.00109224
-0.000613047
-0.000493604
-3.831e-05
-1.26168e-05
4.8676e-05
-0.000160877
5.37555e-05
0.000107121
-0.000200578
-7.49991e-05
0.000275186
6.50729e-05
-0.000265961
-0.000256029
0.000145341
0.000110688
-7.66236e-05
0.000269103
-0.000192474
0.0009526
-0.000276505
-0.0006768
-0.000584193
-0.00017848
-0.000717801
0.000619976
9.43307e-05
0.000266073
-0.000472149
0.000205932
-0.000202744
0.000404652
-0.000201958
-6.31632e-05
0.000152321
-8.91574e-05
-3.56386e-05
0.000152218
-0.000170147
3.73431e-05
0.000105043
-0.000193035
1.11972e-05
-5.15522e-05
1.57169e-05
-7.50968e-05
4.54844e-05
8.6635e-05
0.000111227
-0.000197862
0.000907178
0.000197226
-0.000840704
0.00103033
-0.000201132
-0.000451104
0.000217549
0.000246207
6.11171e-05
-0.000307335
-0.000367454
-0.000631712
0.000997275
0.000190835
0.000246542
-0.000437484
-0.000868584
0.000171921
0.000695986
-0.000280907
0.000988577
-0.000712191
-0.000172709
-0.000141728
-4.74542e-05
0.000274046
-0.000316711
-0.000312753
0.000628821
0.000827205
-0.000708211
0.000147044
-2.90367e-06
-0.000144141
-0.000111635
-0.000138056
0.000249685
-0.000668736
-0.000418052
-0.000245167
0.000146995
0.000278283
-5.31572e-05
-0.000270111
-0.000186808
-0.000342491
0.000519296
0.0001625
0.000456466
-0.00013584
0.000194162
-5.83226e-05
0.000591913
-0.000344653
-0.00024762
3.11123e-05
-0.000158163
-0.00102921
0.00030913
0.000711143
-1.55776e-05
2.28931e-05
-7.2772e-06
0.000681427
-0.000955413
0.000247656
-0.000141606
0.000252271
-0.000110666
0.000560638
-0.000930013
-4.02546e-05
0.000538897
0.000277942
-0.000992589
0.000711797
-0.000672738
0.000519255
0.000153306
0.00067678
6.24841e-05
-0.000741382
-0.000422413
0.000326145
8.94722e-05
0.000343088
-0.00011619
0.00123017
-0.000708998
-0.000525421
0.000185709
0.000749576
-0.000392658
-0.00035806
0.00102758
-0.000353105
3.62574e-05
5.85658e-06
-5.62428e-05
-0.000461804
0.000144165
0.000287683
-0.000234663
-5.30241e-05
-0.0005714
-0.000149526
3.02896e-05
-1.06762e-05
0.000244478
-0.000255846
1.13709e-05
-0.000331764
-0.000208965
0.000540455
0.00110749
-0.000474966
-0.000639896
0.000499723
-0.000697255
3.21159e-06
-4.95766e-06
5.59867e-07
-0.000280124
-0.000673975
0.000951269
0.00026011
0.000211878
-0.0004722
-2.17454e-05
-5.36826e-06
2.55596e-05
0.000136389
-0.00022406
-0.000996399
0.000727246
-3.34104e-05
3.15733e-05
-1.5891e-05
-0.000313621
-0.000115784
0.00068029
0.000545581
-1.26305e-05
-1.19023e-05
-7.54165e-05
2.30343e-05
-0.000412368
0.000887586
0.000174022
0.000113654
3.70702e-05
-2.60638e-05
-1.31402e-05
-6.28047e-05
-3.86294e-05
6.56542e-05
-0.000162095
3.38934e-05
8.48637e-05
-0.000158689
-2.18748e-06
-0.000382192
0.000879596
9.12234e-05
-0.000333571
0.000950492
0.000290815
0.000660653
-4.00377e-05
0.000184908
-0.000147839
0.00097056
-0.000680846
0.000445487
-4.56131e-06
-0.000441201
0.00126437
-0.000627519
-0.00016729
0.000378997
-0.000211777
0.00044989
0.00062487
0.000141025
-0.000477219
0.000311953
-1.97987e-06
0.000149024
-0.0001879
0.000841335
0.000488602
-0.000113159
-7.85488e-05
0.000162786
1.5206e-05
1.91087e-05
-0.000128724
-0.000128615
0.000257334
0.000409275
-0.00025398
-0.000155298
0.000229342
-0.00044232
0.000212999
3.67821e-05
0.000207697
-0.000150427
0.000132694
0.000803492
-0.000347465
-0.000463682
9.39839e-06
8.6968e-05
-9.89354e-05
0.000435879
-0.000833369
0.000393606
-0.00027292
0.000197495
-1.90797e-05
8.30558e-07
1.7638e-05
-0.000439734
0.00027235
0.000786354
0.000216044
0.000252232
-0.00018745
0.000425668
-0.000197237
0.000117367
1.36792e-05
-0.000176927
0.000156325
-0.000284811
5.08786e-05
-4.72517e-05
-1.17651e-05
-0.00060939
0.000618083
-0.000510012
0.000941542
-0.000126178
0.000743936
-0.000633298
-0.000783333
0.000960737
-0.00018197
-0.000321375
0.000118581
0.000472989
-0.000207074
-1.2442e-05
1.22683e-05
-1.33046e-07
0.000668756
-0.000363845
-0.000305794
-8.35906e-05
0.000170226
0.000392391
-0.000273206
-0.00079962
-0.000264552
0.00106105
1.08808e-05
-9.15543e-05
7.77826e-05
-3.77508e-06
-1.57181e-05
-0.000595572
0.000278254
0.000701387
0.000554954
0.000153883
-0.000245384
9.14982e-05
-0.000151179
1.53387e-05
0.000232369
-5.21791e-05
-0.000193654
-0.000756228
0.000614909
0.000448301
-0.000218945
0.000113028
0.000256694
-0.000939714
0.000662465
-0.000162785
0.000607898
0.000416405
0.000210947
-0.0006335
-0.000394784
0.000192443
2.20407e-05
6.1153e-06
-2.94097e-05
-0.000306696
0.000845227
-0.000540408
-0.000240365
-0.000860794
0.000592472
0.000241545
-0.000461384
-4.8726e-05
-3.97795e-06
3.5226e-06
9.4525e-08
2.55851e-05
1.42445e-06
-3.6628e-05
-0.000985947
0.000700599
-0.000175087
-3.20027e-05
0.000223931
0.00023744
-0.000461509
0.000535492
-0.000725612
0.000189603
0.000197394
-0.000159572
9.64087e-05
0.000385617
-6.44916e-05
-0.000326568
-0.000338642
-0.000250202
0.000588249
-0.00015094
0.000397132
-1.61425e-05
-0.000687821
0.00070014
0.000252207
0.000543689
-0.000704532
0.000230607
0.000473026
-0.000361055
0.000769897
0.00035039
-0.000547274
-0.000193355
0.000150235
-0.000308125
0.000150536
0.000157586
2.21215e-05
-7.92593e-05
1.75789e-05
-0.000359231
0.000803929
-0.00046813
-0.000699494
0.000328103
0.000370919
-0.000197877
-0.000688768
0.000478969
-0.000324783
-0.000154203
-0.000875765
0.000812701
6.06737e-05
0.000112005
-0.000201403
8.93981e-05
1.94615e-05
-1.46296e-05
-5.55228e-06
0.000237082
-0.000176817
-6.02668e-05
0.000784326
0.000314396
-0.000252476
0.000730251
-0.000477904
-1.54231e-05
-4.53649e-06
1.88031e-05
-2.25513e-05
-7.40597e-05
9.395e-05
7.57143e-05
-0.000245168
0.000168286
-0.00107338
0.000373422
0.000697699
-0.000116465
-0.000139566
-0.00055815
0.000328433
0.000189592
-7.53338e-05
0.000187338
-0.00024117
-0.000636455
-0.000866545
-0.000170439
0.000247998
-0.00014178
-0.000106222
0.000401961
-0.000147139
-0.000254885
0.000236426
-0.000137354
-9.90738e-05
-1.49539e-05
-9.22931e-06
1.51812e-05
0.000746672
-0.000504585
-0.000243126
-8.73214e-07
2.59618e-06
-0.000113141
0.000159494
-4.63529e-05
6.38661e-07
-1.67279e-05
-0.000377454
0.000705932
0.000274985
0.000508443
-0.000783979
0.000183101
3.59778e-05
6.64626e-05
-0.000175556
-0.000280062
0.000455465
-0.000936818
0.000709613
0.000225704
0.000371193
0.000107759
-0.000702189
-0.000166819
9.69853e-05
-9.03958e-05
0.000345743
-0.000726104
0.000996937
-0.000752469
-0.000656827
3.6269e-05
0.000619035
-1.08618e-05
1.62675e-05
-5.55548e-06
-0.000307456
-0.000392429
-5.17819e-06
-1.16155e-06
0.000127635
-0.000182621
5.4986e-05
0.000137396
-0.000469401
0.000215603
0.000454242
-0.000669954
-0.000320868
-0.000571199
0.000887976
-0.000848103
0.00072357
0.000121969
-0.000177772
-0.000566659
0.000739525
-9.37572e-05
-0.000563571
0.000797374
-0.000857402
5.35829e-05
-0.000834697
0.000625359
-0.000365671
-0.000259931
0.000191383
-0.000924863
0.000732352
-0.000276374
0.000811237
-0.000230374
0.000101754
0.000203207
-7.55894e-05
-0.000127618
-0.00080847
0.000576026
0.00020068
7.18871e-05
-0.000133217
-0.000787863
0.00091799
-0.000588017
0.000971437
-0.000384047
-7.75567e-05
0.00020687
-0.000133186
0.000137183
0.00020592
-0.000343134
-0.000608627
0.000589162
4.53766e-06
0.000786446
3.44119e-05
0.000714046
0.000106801
0.000141191
-0.000305179
0.000350235
-4.76461e-05
-0.000736189
0.000553496
-0.000703066
-0.000452737
0.000949094
-0.000497542
0.000303782
0.000287739
-0.000413034
0.000850344
-0.000199793
-0.000300556
1.72073e-06
-1.73186e-05
5.9911e-05
-0.000204878
0.000143498
0.000242617
-0.000151261
-9.13573e-05
0.000228254
-0.000123401
-1.16212e-05
9.92265e-07
1.32832e-05
-6.34523e-06
-7.89086e-06
2.75241e-06
1.58025e-07
-3.77663e-06
0.000272656
0.000352448
-0.000938435
0.000349881
0.000240014
0.000741868
-0.000982166
0.000652243
-0.000366904
-0.00029924
0.000432722
6.64275e-05
-0.000540331
-0.000942831
0.000488931
2.88593e-06
-7.21877e-06
4.63571e-06
-0.000226556
-0.000213251
0.000956117
-5.29761e-05
-0.00082071
-2.96853e-05
0.000321781
0.000253242
-0.000575557
-1.01508e-05
1.32027e-05
0.000368864
-0.000231714
-0.000913656
0.000821458
9.04809e-05
-0.000595561
0.000555252
-0.000294526
-0.000170937
0.000445268
-6.25665e-05
0.0001902
0.000613083
5.47769e-05
0.000916895
-0.000630199
0.000236686
-0.000172327
-6.43605e-05
0.00114739
-0.000366239
-0.000790494
0.000695084
-0.000978038
-6.23497e-05
-0.000183436
0.000245784
0.000255876
0.000380545
0.00059629
-0.000369426
-0.000227185
0.000376352
-0.000770383
0.000815743
0.000135944
0.00026464
0.000144625
-0.000468438
-0.00044685
0.000538341
0.000252797
-0.000797777
0.000183762
4.44577e-05
-0.000228225
1.86328e-05
-6.70105e-05
4.58839e-05
-0.000819243
-3.07537e-05
2.13447e-05
-0.000209586
0.000185552
0.000104763
0.000137852
0.000157054
-0.000339883
0.000182788
-0.000227178
-0.000368251
0.0001873
-0.000483694
0.000296145
0.000657969
-0.000179594
-0.000518292
4.56352e-05
0.000157572
0.000989343
-0.00060279
-0.000391399
1.80492e-05
3.41011e-06
-2.89079e-05
1.39301e-05
-0.000609029
0.00058422
-0.000205555
0.000362563
0.000361365
0.000384188
0.000419018
-0.00077186
0.000349661
0.00046882
0.000254118
0.000882671
-0.000423408
0.000953955
-0.000209716
-7.83509e-05
0.000152368
0.000158947
-0.00015186
0.00028265
-0.000130795
0.00100821
-0.000374716
-0.000636317
0.000139587
9.70973e-05
0.000407108
-0.000181995
-0.000225141
-0.000218182
-0.000576184
0.000236969
0.000174961
-0.000401587
-9.96326e-05
-0.00063108
0.000727197
-0.000977791
0.000416556
0.000559879
-0.00036692
0.000132454
0.000234412
0.000200386
-0.000890846
0.000149002
0.000736283
-0.000663748
0.000944592
-0.000280976
0.000213374
-0.000129915
-8.34604e-05
0.00024717
-9.3381e-05
-0.00013984
0.000246029
-0.00010792
-0.000265207
0.000123551
-0.000250057
0.000468476
-0.000218502
0.000806804
-0.000390955
-0.000582957
-0.00039574
-0.000154827
4.16862e-05
-0.000133834
-0.000636837
-0.000933012
0.000269205
0.000592989
-0.000589948
0.000124594
0.000488792
-7.45674e-06
1.11949e-06
-2.92139e-05
6.08646e-06
-0.000722833
0.000212791
0.000491941
0.000134788
7.85841e-05
5.61837e-05
-0.00046828
0.000411292
-0.000701893
-0.000147973
0.000835045
0.000288032
0.000307854
-7.08858e-06
-6.13999e-05
6.60265e-05
-5.66147e-05
-0.000539009
-0.00011011
-0.000634398
0.000743394
0.00103052
-0.000100889
-0.000124924
0.000278802
-0.000850564
0.000134516
-0.000302555
-0.000771618
-0.000805379
0.000520732
0.000283363
0.000753088
0.000277072
0.00105378
-0.000431759
-0.000640234
-2.89451e-05
7.00413e-07
-0.00103231
0.000790051
0.000237913
6.16805e-05
-0.000194467
0.000132788
5.31373e-05
0.000456657
-0.000192026
-0.000812683
-0.000123143
-0.00024382
-9.86745e-05
-0.000146711
0.000127941
-0.000255378
0.000126147
0.00026469
-0.000138062
0.000942636
-0.000559313
-0.000388028
0.00016702
-0.000404288
0.000216438
-0.000107437
-7.17025e-05
0.000122308
0.000328821
0.000676339
0.000435881
-0.000248773
0.000139527
-0.000331288
0.000163312
0.000373877
-0.000537759
0.000114815
0.000121609
-0.000132838
0.000234997
-0.000102161
-5.73009e-05
4.83649e-05
-0.000690739
-0.000143621
-0.000276787
0.000155818
-2.02073e-05
-0.000135611
0.000767166
-0.000492758
-0.000125684
0.000299699
-0.000260821
-0.000775677
-0.000357552
-0.000448974
-3.17361e-05
-7.36629e-06
2.6188e-05
0.000211423
0.00019565
0.000243981
9.29095e-05
-0.000349719
0.000676472
-0.000373157
0.000342329
0.000594999
-0.000270264
-0.000643873
0.000899909
2.1354e-06
0.000602699
-0.000361261
6.39671e-05
-5.52143e-05
-0.000210588
0.00040133
-0.000706135
0.000926449
-0.000221537
-0.000189086
0.000199533
-1.04472e-05
-0.000697023
0.00104439
-0.000350715
-0.000223785
0.000680655
-0.000963752
0.000279916
-0.000593309
0.000499125
-0.000266555
0.000863151
-0.00059883
0.000229301
-0.000479449
0.000288296
0.000625981
0.000224072
-0.0001495
3.26612e-05
-2.01052e-05
0.000213407
0.000374172
2.07277e-05
-4.89034e-06
0.00022423
0.000215925
-0.000440228
0.000625228
-0.000208429
-0.000416825
-0.000232903
-0.000237933
0.000470754
0.000950661
-0.000272987
-0.000143451
-0.000454589
0.000674683
0.000970175
0.000101952
-0.000415252
0.000239576
0.000406947
0.000627838
3.21359e-06
-0.000598192
1.25387e-06
5.27624e-06
-8.86438e-06
-0.000234051
0.000539455
-0.000305499
-0.000666709
0.000100848
0.000564567
-0.000631366
0.000348418
0.000282618
-0.000111927
0.00018256
-7.06333e-05
0.000367412
-0.000735973
-5.24915e-05
0.000180529
-0.000129329
-0.000133726
-0.000533595
0.000210299
7.02828e-05
-4.09534e-06
-5.202e-07
0.000370234
0.000311608
-0.000682796
-0.000507754
1.78361e-05
-0.000325009
0.000217386
5.66935e-05
-0.00028734
-0.000319169
0.000900665
-0.000588971
0.00022133
0.000448525
-4.39239e-05
0.0010527
-0.0004366
-0.000618719
0.000228489
0.000317414
-0.000545883
1.14694e-05
-3.57702e-05
8.15064e-05
-0.000700579
8.52525e-05
9.9258e-05
-0.000184511
-0.000964098
0.000161951
8.21511e-06
4.60092e-06
-0.000301942
-0.000370919
-0.000205613
0.000352668
-0.000741626
-0.000396386
0.000268656
0.000112678
0.000945772
-0.000792451
-0.000154808
-0.000945779
0.000729245
0.00021144
1.22101e-05
-0.000354792
0.000714815
0.000299858
-0.000116103
-0.00052922
-0.000448053
0.000305441
0.000267977
-0.000573919
-0.000236867
9.52539e-05
-0.00094313
6.37925e-05
0.000875923
-5.71108e-05
0.000205102
-0.000149108
-1.49439e-05
-9.74163e-06
0.000207132
-0.00084745
0.000627139
1.17168e-05
-4.50275e-05
1.05865e-05
-0.000994124
0.000305842
0.000687294
-0.000816988
0.000939584
-0.000130302
-0.000718907
-0.000276315
0.00082025
-0.000254865
-4.55267e-05
1.40177e-06
0.000302548
-0.000170207
-0.000132339
-0.00016585
5.39233e-05
0.000860576
-0.000647078
-0.000235532
4.24585e-05
-0.000989535
0.000518138
-0.000786781
0.000634403
-0.000599515
9.89612e-05
-0.000240567
-0.000507345
0.000580366
0.000408255
-0.000352844
-0.0010422
0.000592866
-0.000240789
0.000483593
-0.000242965
0.000647896
-0.000940384
0.000280189
-6.54321e-05
0.000162668
-9.72361e-05
-2.62949e-05
9.00607e-06
1.48968e-05
0.000149859
2.46163e-06
-0.000405304
-0.000332084
0.00073685
-5.48266e-05
4.00108e-05
-0.000942512
0.000980984
-8.16268e-05
0.000258998
-0.000177374
0.000227372
-0.000605328
0.000246366
8.31986e-05
-0.000329711
4.06297e-05
-0.000137656
-0.000595121
-0.000320721
0.000915432
-5.64359e-05
0.00010827
-0.000339953
0.000106964
0.000212537
-0.000163664
0.000478974
-0.000336156
-0.000233995
-0.000670485
0.000889612
7.40564e-05
8.17618e-05
-0.000245929
-0.000226157
0.000471921
0.000165312
-0.000354045
0.000188688
0.000132519
0.00015027
-0.000282807
0.00093191
-1.10642e-05
-1.7735e-06
-0.000256278
0.000341862
-8.56072e-05
0.000204448
0.000420278
-0.000781847
0.000473442
-0.000654679
0.000289796
0.000191695
0.000440883
0.000646572
0.000303962
9.46649e-05
0.000142414
-0.000128654
0.000116889
-4.57445e-05
0.000114521
-0.000179953
0.000244301
-0.000183551
-0.000124576
-0.000734993
-0.00075023
-0.000195379
0.000244232
0.000678767
0.00013618
-0.000190001
-0.000817226
0.00100734
-0.000508442
-0.000196218
-0.000235631
0.000491733
-0.000256185
0.00017847
-0.00096629
0.000280039
-0.000515743
-0.00019885
0.000297145
-9.83014e-05
-1.13098e-05
-1.75141e-05
0.000194644
0.0002269
-0.000172764
7.04243e-05
0.000102339
0.000272474
-0.000847428
-0.000636172
0.000713275
-0.000107317
0.00051893
0.000208339
-0.000651424
0.000779888
-0.00014359
0.000455272
-0.000231475
-0.000705999
0.000936689
-0.000232172
0.000822091
-0.000303045
-0.000317637
0.000546129
0.00012401
3.10738e-05
-0.000177608
0.00019429
-0.000109038
-0.000196094
9.47873e-05
0.000101307
0.000261885
0.000686194
-0.0009504
0.000668229
-0.000464164
-0.000290666
-4.31286e-06
-2.94512e-06
7.00944e-06
-0.000357657
-1.50776e-05
2.15769e-05
-6.52548e-06
6.47055e-05
-0.000321002
0.00015275
-0.000764367
0.000258251
0.000131302
-0.000389615
0.000278428
-7.5462e-06
-0.000270902
4.36816e-05
-3.44731e-05
0.000728263
0.000225205
-0.000956165
-0.000951258
0.000282836
0.000668108
0.000155254
0.000313106
-0.000175914
-0.000227795
0.000403628
0.000142092
-6.80353e-05
0.000259929
-0.000139488
-0.000120446
-0.000608741
-0.000918482
0.000634036
0.000363275
0.000353584
-0.000716887
-0.000195189
-0.000185426
0.00035491
-0.000169519
0.000493495
-0.000330645
0.000327708
-0.000961116
-8.7664e-06
-0.000636823
0.000703123
-9.29545e-05
0.000257597
8.45254e-06
3.33732e-05
-0.000593194
0.000861819
2.28762e-05
-1.79698e-05
-0.000363267
0.000249549
8.54369e-05
1.41416e-05
-0.000212997
-0.000215385
0.000545521
0.000401475
3.44782e-05
-2.77306e-05
0.000244825
0.000211826
-0.000429617
0.000659333
0.000175818
-0.000449093
0.000253456
4.67146e-05
1.04791e-05
-6.76391e-05
-0.0001957
0.000114423
7.90493e-05
-0.00014228
0.000203962
-0.000433127
0.000648602
-0.000685909
-0.000283785
0.000100232
0.000327244
-0.000922722
-0.000651595
0.000316387
0.000334539
-0.00010721
-6.55539e-05
-7.81465e-05
-0.000123257
-0.000708525
-0.000186885
-0.000605978
0.000292613
-5.64533e-06
1.19064e-06
-0.000174687
-0.000444808
0.000792419
-0.000348626
-0.000298379
0.000147694
0.000150675
0.000639984
0.000304179
0.000414149
-0.000155963
0.000266468
-0.000633124
0.000365486
0.00050791
-0.000200622
-0.000323069
-0.000321714
-0.000489501
0.000809837
0.000701537
-0.000237902
-0.000470062
0.000321281
-7.50202e-05
0.000235962
0.000204039
-0.000440132
0.000587947
0.000203468
0.000642851
-0.00102039
0.00027175
-6.81695e-05
-0.000714014
0.000134254
0.00057868
0.000155452
-0.000388422
0.000309301
0.000708271
0.000950163
-0.000560795
-0.000692025
0.000580919
0.00100116
-0.000305742
-0.000704778
0.000252839
-0.000243363
0.000467512
0.000347714
5.41956e-05
-0.000276623
0.000822284
-0.000547043
-0.000330137
0.000144679
0.000188014
0.000304204
0.000941676
-0.00038311
-0.00055957
0.000418479
-0.000237617
-4.61694e-05
0.00105782
-0.00028326
-1.03128e-05
4.0853e-05
-4.77133e-05
0.000234323
-9.79378e-05
0.000811542
2.84847e-05
-0.000844691
-0.000178087
7.94112e-05
0.000147381
5.56337e-05
-0.000203016
0.000250498
-0.000140688
-0.000109811
-0.000712575
0.000410494
0.000312462
-8.08209e-05
9.62619e-05
-1.04243e-05
-1.37765e-06
-0.000397089
1.48431e-05
0.000355617
1.9094e-05
-1.22822e-05
-0.000323295
-6.77038e-05
-7.66791e-07
4.63946e-06
-3.98502e-06
-0.00102043
0.000320379
0.000676523
0.000267569
6.55382e-06
2.63583e-05
-0.00029327
0.000470273
-0.000177048
-0.000682187
-0.000390105
9.67991e-05
0.000644301
-0.000190312
-0.000470258
1.12979e-05
-4.72905e-06
-8.07798e-06
-1.21192e-05
2.07897e-05
-1.36089e-05
0.000520891
-0.000346019
0.00036736
-0.000202941
-0.000164435
0.000486362
-3.98375e-05
-0.000446703
-0.000680653
-1.09079e-05
1.67597e-07
2.48474e-05
-4.33264e-05
-0.000130175
8.65281e-05
2.04753e-05
0.000755511
-0.000175381
-0.000590379
0.000255966
7.21998e-05
-0.000328181
-0.000261829
-0.00021863
0.000480464
0.000661481
0.000329604
2.97299e-05
-2.47934e-05
-0.000896983
0.00064855
-0.000104556
0.000844694
-0.00032835
-0.000247222
0.000575445
7.44912e-05
-0.000163759
8.92674e-05
-0.00073602
0.000194848
8.24437e-05
-0.000277298
0.000614088
-0.000935241
0.000323727
0.00060801
-0.00020016
0.000365422
1.58339e-05
-0.000284752
-0.000438686
0.000466122
0.000968864
-0.000668617
0.000691264
-1.37892e-05
0.000499949
0.000253158
0.000221593
0.000638274
0.000989008
-6.08201e-06
4.97712e-06
0.000583341
-0.000533402
0.000111134
7.14253e-05
0.000559302
-0.000165663
-0.000403125
0.000150362
-0.000857207
0.000701953
-0.000648968
0.000974934
-0.000112785
-0.000247047
0.000320082
-0.00102767
8.33453e-05
-0.000193226
0.000388035
-0.0001948
0.000469839
-0.000234016
-0.000166771
0.000372656
-0.000253109
-3.4175e-06
1.72767e-05
0.000185247
0.000442022
0.000161003
0.000141546
1.25125e-05
0.000265896
-0.00023108
-0.00070712
0.000196851
-4.94709e-05
0.00041918
-0.000140167
-0.000291179
-0.000111933
2.60154e-05
2.99698e-05
1.87596e-05
-0.000605498
0.000932468
0.000166724
-0.000281008
0.000114275
0.000178117
-0.000866923
0.000686064
-0.000300456
0.000944603
-0.000652194
-0.000204257
0.000146002
0.000868917
-0.000645922
-0.000225384
1.04479e-05
-2.67131e-05
-9.27574e-05
0.000211478
-0.000118721
-0.000909395
-1.60696e-05
-0.000103114
-7.87906e-05
0.000181903
-3.85368e-05
0.00100123
-0.000350426
0.0001663
-8.62637e-05
-8.00359e-05
0.000146385
3.54847e-06
-0.000149933
0.000322873
2.01898e-05
0.000446479
0.000248151
0.000116897
0.000109438
-0.000226339
-0.000904329
6.00857e-05
0.000162971
-0.000573881
0.000284133
0.000289587
-0.000279294
-0.000352381
-0.000899239
0.00028322
0.000613453
0.000134033
-0.000170106
0.000603816
-0.000437524
-0.000162668
-0.000451765
0.000608957
0.000293836
-0.00013919
-6.41748e-05
3.66279e-05
-1.92313e-05
-0.000183203
-0.000767344
0.000450357
-0.000276847
-0.00019509
0.000102333
-0.000367619
0.000782088
-0.00041537
0.000272532
-0.000353859
0.000896472
-0.000144987
-6.12311e-05
0.000322118
-5.74391e-05
5.10978e-05
-0.000123751
4.16687e-05
-0.000734486
1.08486e-05
6.21144e-06
-0.000834426
0.000553914
0.000262678
-3.97144e-05
0.000161151
-0.000159333
-0.000177119
-6.31894e-06
-0.000221139
-3.60687e-05
4.4098e-05
-1.03231e-05
-0.000952314
0.000243279
0.00070743
-0.000275572
-0.000656255
8.61421e-05
8.01573e-05
-5.59983e-06
5.72769e-06
-3.2223e-06
0.000245343
0.000490537
-0.000742738
0.000366924
-0.00032727
-3.97406e-05
-0.000571319
0.000242852
-0.000468621
7.05768e-05
0.000397123
0.000140874
-0.000119534
-4.40605e-05
0.00107684
-0.000129349
0.000338687
-0.000143847
-0.000819005
0.000121146
-0.00025703
0.00013588
2.32629e-06
0.000580396
-0.000138206
-0.000272247
-0.000198879
-0.000338153
0.000533888
0.000129325
-7.55694e-05
0.000781977
0.00029254
0.000822047
-0.00020025
-0.00062412
-2.85728e-05
2.28968e-05
0.000533775
-0.00028638
0.000596963
-0.000310838
-0.000720407
4.11691e-05
0.000678497
0.000746137
7.26867e-05
0.000323509
-0.000525548
3.74166e-05
-0.000216619
-0.000469455
0.000708112
-0.00035752
0.000371552
-0.000221017
-0.000405768
0.000626176
0.000473707
-0.000236411
-0.000298839
0.000691223
0.000297513
0.000232764
-0.000320018
1.45495e-05
0.000305403
0.000224641
0.000938249
-0.000763142
8.15321e-05
-0.000379365
0.000297818
0.000301079
-0.00016858
0.000759678
-0.00105051
-0.000156571
0.000239981
-8.34118e-05
0.000275241
0.000665447
-0.000155735
-0.000177749
0.000333472
-0.000403531
0.000210316
0.000253239
-0.000156539
-9.67029e-05
8.14481e-05
-0.000388095
0.000305345
-0.000429725
0.000746286
-0.000317391
0.000296943
-0.000655076
0.000980898
0.000217974
-0.000106747
9.56993e-05
-0.000248754
0.000754187
-0.00051679
-1.52403e-05
-1.76076e-05
2.10897e-05
-0.000510757
0.000230528
-1.78312e-05
4.1152e-08
1.76103e-05
4.33977e-05
1.19779e-05
-5.76403e-05
8.50807e-05
7.78268e-05
-0.000162908
0.000294971
0.00011205
-0.000761655
-0.000150562
0.000895497
-9.58326e-05
-0.000120258
0.000188338
-6.80803e-05
-0.0002482
-6.13717e-06
-8.10806e-05
-0.000337511
-0.000431353
0.000513189
3.17166e-05
0.000114668
-4.90483e-06
0.000260857
0.000190839
0.000164028
-0.000930082
0.000708512
0.000215343
0.00013182
0.000150825
0.000435648
-0.000280493
0.000169711
0.000197632
0.000496595
-0.000284942
-0.000278913
0.000566568
-0.000748786
0.000928912
-0.000293804
-0.000793209
0.00012465
-0.000469745
0.000201783
0.000267773
7.69953e-05
-9.72027e-05
0.000556589
-0.000821355
0.000651468
-0.000101989
0.000204322
-0.000317512
0.000161767
-9.88935e-05
-9.72011e-05
-0.000677823
0.000850088
-0.000190055
0.000305175
-0.000638575
0.000332729
-0.000253017
0.000409123
-0.000767407
-0.00067674
0.00082233
5.17918e-05
0.000308285
-0.000360098
-3.48647e-05
-4.27126e-05
-0.000139988
0.000189488
-4.95e-05
-8.1993e-06
4.93621e-05
-3.02887e-05
0.000397118
0.000534465
9.7055e-05
-0.000649676
0.000375271
-0.000555813
0.00018041
-0.000158579
-0.000340061
0.000644524
-0.000152224
0.000607655
-0.000209071
-0.000398901
-0.000701851
-9.1892e-05
-4.08727e-05
-2.46862e-05
-0.000445647
-0.000699994
0.000307674
-0.000891966
0.000583223
-0.000270643
0.000921726
-0.000655074
-0.00014395
2.36919e-05
0.000159919
4.29744e-05
6.40198e-05
0.000343504
-0.000390537
0.000990457
-0.000609578
-1.72256e-05
-0.000159593
-0.000123057
0.00017981
-9.36677e-05
-0.000310712
0.000390881
0.00103211
-0.000480484
-0.000910013
0.000329343
0.000568328
-0.000180356
7.72411e-05
-0.000138166
3.36418e-05
0.000868949
1.87338e-05
-0.000184655
8.85199e-05
9.61349e-05
-0.000468387
-0.000213187
0.000664245
0.000921558
-0.000595849
-0.000328992
-0.000235254
0.000256893
-0.000687547
0.000185338
-0.000416936
0.000231593
0.000661718
0.000292601
-0.000965675
-6.68806e-05
-1.99797e-05
0.000754734
-0.000406282
-0.000348371
-0.000189238
0.000113904
0.000192477
-0.000420348
0.000206594
0.000613033
0.000205037
-0.000880133
0.000668573
0.000402023
-0.000338689
-9.64218e-05
-0.000112167
0.000208588
-0.000395871
7.57738e-05
7.53874e-06
-4.60523e-05
-0.000643701
0.000213232
-0.00011714
-0.000248282
0.000344315
-3.52232e-05
-7.1216e-05
-0.000284957
1.79185e-05
2.35002e-05
-9.91162e-06
0.000236819
0.000267469
-0.000504372
-0.00059516
0.000596656
8.77158e-05
-0.000864689
-0.000709334
-0.000327965
0.000772751
-4.84098e-05
-0.00013539
0.0001838
0.000158148
-0.000239778
0.000768839
-0.000399682
0.000317612
-0.000236093
0.000637227
-0.000121124
-0.00040404
0.000714668
0.000787244
-0.000469641
0.000246302
-0.000384787
-0.00105698
0.000293084
0.000751835
-0.000804404
0.000876048
-7.14564e-05
0.000175077
-0.00010362
-0.000766524
0.00010033
-0.000502483
0.000488493
0.000171806
-0.000866823
0.00066046
-2.22177e-05
-0.000144645
3.47486e-05
0.000109897
-0.000108575
4.29774e-05
0.000705195
-0.000341959
-0.000542901
-0.00017812
-0.00024734
1.24692e-05
0.000234855
0.000200168
-0.000568583
0.000311837
-0.000671375
0.000358753
-0.000138515
-0.000567666
0.000700744
-0.000209615
0.000917775
-0.000386918
-0.000973141
0.000217341
0.00075525
8.10675e-05
8.69165e-05
-0.000167984
-0.000536049
-0.000100241
0.000635764
4.19409e-05
0.000243917
0.000805218
0.000265724
0.00034153
0.000287372
-0.000194029
8.13743e-05
4.04285e-05
-0.000352828
0.000411658
-5.88152e-05
-0.00043649
0.000604826
-0.000674963
0.000332316
-0.000192785
-0.00024309
7.7899e-05
0.000161816
-8.52346e-05
-0.000309578
-0.000177922
-0.000477647
-0.000238157
-0.000442635
8.46636e-05
-0.000555338
-1.99158e-05
9.33446e-06
1.02077e-05
0.000270099
0.000690387
0.000168188
0.000125636
0.000444919
-0.000674924
-0.000291793
0.000286873
0.00010403
-0.000200451
0.000390342
-0.000757185
0.000366219
0.000197147
0.000190896
0.000271443
5.45873e-05
-3.3261e-05
-0.000228428
1.63753e-05
0.000149408
-0.000815653
0.000225505
-0.000285642
-0.000166129
0.000451681
-0.000880557
0.000592934
0.000281547
-0.000441435
-9.67323e-05
0.000526816
-0.000922012
0.000613856
1.66102e-05
-6.48556e-06
9.52688e-05
0.000233105
-0.000494918
-0.00062356
0.000135886
-0.000261575
0.000326523
-0.000127767
-0.00019877
-9.06074e-05
-0.000566049
0.000837553
-0.000610546
-0.0002281
0.000609482
-0.000343984
0.000640691
-0.000439422
0.000121569
0.000317721
-0.000720131
-0.000233843
0.000951482
0.000272012
0.000373457
-0.000646295
0.000203943
-0.000296723
0.000192263
7.66258e-05
-0.000399751
0.000655688
8.55046e-05
-0.000205139
0.000119634
-0.000181462
0.000198599
-3.17267e-05
0.00031426
-0.000223054
0.000530548
0.000250294
0.000646686
0.000219816
-7.3576e-06
-1.29639e-05
-0.000267199
-0.000146817
0.000401985
3.83529e-05
-0.000386278
0.000347872
-0.000637951
0.000912162
-0.000252716
0.000162443
0.000386912
-0.000579145
0.000772842
-0.000217197
0.000695764
0.000273416
0.000536598
-0.00093606
0.000292119
5.926e-05
0.000341859
0.000583285
-0.000870888
0.000287338
-0.000347404
0.000164844
0.000182532
-0.000461128
-0.000123959
0.000584869
1.59568e-05
-4.17567e-05
-0.000899491
0.000193352
0.000690445
-0.000359253
0.000826292
-0.00046808
0.0009872
-0.000926953
-0.000326555
0.000751292
-0.000426749
-0.000198735
-4.23104e-05
-0.000494161
-0.000280677
-0.000605657
-0.000671015
0.000869468
-0.000540098
0.000257268
0.000282857
-0.000525741
7.39838e-05
9.59967e-05
0.000103536
0.000107354
0.000148097
-0.000255463
0.000890964
-2.17805e-05
0.000185716
0.000123526
-0.000309273
-8.31788e-05
-7.81256e-05
2.96333e-05
-0.00014895
0.000115958
0.00103271
-0.000690912
-0.000351618
-0.000230625