/*--------------------------------*- C++ -*----------------------------------*\
| =========                 |                                                 |
| \\      /  F ield         | OpenFOAM: The Open Source CFD Toolbox           |
|  \\    /   O peration     | Version:  v2012                                 |
|   \\  /    A nd           | Website:  www.openfoam.com                      |
|    \\/     M anipulation  |                                                 |
\*---------------------------------------------------------------------------*/
FoamFile
{
    version     2.0;
    format      ascii;
    class       volVectorField;
    location    "300";
    object      U;
}
// * * * * * * * * * * * * * * * * * * * * * * * * * * * * * * * * * * * * * //

dimensions      [0 1 -1 0 0 0 0];


internalField   nonuniform List<vector> 
13851
(
(1.0182 -0.0103394 -4.91973e-22)
(0.646323 -0.188933 4.75369e-22)
(1.03063 -0.0473956 0)
(1.01755 -0.00967485 -2.93458e-22)
(1.05411 -0.0586121 0)
(0.977243 -0.0168111 -3.01448e-21)
(1.03016 -0.00185573 -3.30374e-21)
(1.041 -0.0399581 6.93813e-21)
(1.01058 -0.000882269 -1.19084e-22)
(1.03617 -0.0269049 -6.91093e-22)
(0.990368 0.0814487 0)
(0.402798 0.126484 -6.98655e-22)
(1.01697 -0.0853116 0)
(0.00996714 -0.119624 0)
(1.01931 -0.000512104 0)
(1.03388 -0.0322047 0)
(1.03924 -0.0225217 -3.25999e-21)
(1.0169 -0.0141266 9.31128e-23)
(1.076 -0.0964148 -1.18267e-20)
(1.01044 -0.000889081 0)
(1.01747 -0.00949698 0)
(1.03269 -0.0491226 3.36962e-21)
(1.00367 8.14595e-06 0)
(1.00478 -0.000112679 8.78834e-23)
(1.00282 -4.6376e-05 0)
(1.03986 -0.0396795 -6.79041e-22)
(1.04818 -0.0173615 0)
(-0.00257784 -0.0415685 -3.93072e-20)
(1.01836 -0.0102101 5.56154e-22)
(1.02309 -0.0180021 -1.13326e-21)
(0.967438 -0.0116627 3.06952e-21)
(1.03963 -0.0234135 -1.41765e-20)
(1.03104 -0.0455259 -3.04495e-22)
(0.907921 -0.140997 1.36285e-22)
(1.00559 -0.000117796 7.58188e-23)
(1.08238 -0.0510397 0)
(1.08865 -0.0499548 -2.36726e-20)
(1.02099 -0.088147 5.97382e-21)
(1.03508 -0.0244948 0)
(0.900188 -0.121676 0)
(1.01625 -0.00621163 -2.24529e-21)
(1.00871 -3.57447e-05 -3.54339e-24)
(0.0318371 0.11337 2.95113e-20)
(0.941962 0.119305 1.97585e-21)
(0.934277 0.118189 -1.48336e-21)
(0.216457 0.0369213 7.82944e-20)
(0.908249 0.135416 -4.91187e-21)
(0.932394 0.0313153 6.56385e-21)
(1.04902 -0.0179277 1.81809e-20)
(0.998968 0.0168468 -9.48007e-22)
(1.06941 -0.0508419 0)
(1.07462 -0.0629448 2.62736e-20)
(-0.0283039 0.0630521 -3.75773e-20)
(1.01901 -0.000483351 4.36046e-21)
(1.01213 -0.000694821 0)
(1.00893 -2.82194e-05 6.53626e-23)
(1.00585 -5.12551e-05 0)
(-0.0673718 0.0481097 0)
(1.02301 -0.0173663 0)
(1.03089 -0.00426483 -1.68137e-21)
(1.01536 -0.0872585 -2.03647e-21)
(0.530698 -0.17075 -4.31134e-21)
(1.01881 0.0125645 0)
(1.05811 -0.062903 3.00799e-20)
(0.972617 -0.0857337 2.66415e-21)
(1.01798 -0.0118006 7.92651e-22)
(1.09555 -0.0501617 1.19648e-22)
(0.907988 0.12781 6.56454e-22)
(1.05833 -0.0326195 0)
(1.01717 -0.013273 2.15352e-22)
(0.361598 -0.000299435 3.69633e-20)
(1.04961 -0.0513685 1.21723e-20)
(0.596637 -0.191741 -1.66543e-21)
(1.01898 -0.000513945 0)
(1.01284 -0.0011205 -7.19528e-22)
(1.01272 -0.00111656 2.33618e-22)
(1.03467 -0.0485598 -4.99469e-21)
(0.475372 -0.00475898 -3.42477e-20)
(1.0532 -0.043661 -1.39879e-20)
(0.346931 -0.0037541 8.33336e-21)
(1.03356 -0.00796249 -3.76946e-21)
(0.903518 -0.10574 0)
(1.0212 -0.00421861 -8.15116e-21)
(0.179609 0.0674577 1.91357e-20)
(1.01373 0.0138452 1.31784e-21)
(0.457128 0.111427 7.55254e-22)
(0.990783 -0.00290947 2.31727e-21)
(0.910576 -0.102591 0)
(1.0452 -0.0224661 0)
(1.01481 -0.000139235 -1.79161e-22)
(1.08209 -0.051055 9.60072e-21)
(1.03333 -0.00760641 -2.08601e-22)
(0.909028 0.111533 -4.44838e-21)
(1.04856 -0.0265573 0)
(1.04571 -0.0217868 4.85081e-21)
(1.00416 -4.42934e-05 0)
(1.05586 -0.0596794 0)
(0.689773 -0.0618655 -5.53515e-23)
(0.995316 0.0213277 1.90186e-21)
(1.00332 -9.57908e-06 0)
(-0.0968024 -0.0150683 -5.85004e-21)
(1.06039 -0.044396 -1.21188e-21)
(1.01937 -0.0104082 0)
(1.05458 -0.0107269 -1.76023e-20)
(1.00351 2.83315e-05 0)
(0.994411 0.0130973 -1.33719e-21)
(1.06359 -0.0464565 -1.17015e-20)
(1.00782 1.65874e-05 7.40587e-23)
(0.952137 -0.0512812 0)
(0.979094 -0.0251995 0)
(1.00354 -4.03091e-05 2.01761e-22)
(1.01516 -4.87496e-05 -1.84235e-22)
(1.03036 -0.00713963 0)
(1.00108 3.80173e-05 -1.79147e-22)
(1.00437 -6.24981e-05 1.46478e-23)
(0.815685 -0.196943 0)
(0.718696 -0.0675067 9.2038e-21)
(1.00733 -2.30929e-05 0)
(1.00635 -0.000252418 -9.91289e-22)
(1.01048 -0.000518429 1.732e-21)
(0.0209897 0.127287 -2.96257e-20)
(1.05354 -0.011091 1.43625e-20)
(0.989079 -0.0885171 -1.14622e-20)
(0.862955 -0.161727 6.09823e-21)
(0.975915 -0.00262204 -6.71702e-21)
(1.01835 0.000904929 -3.33913e-22)
(0.995446 -0.0597724 6.50566e-21)
(1.05663 -0.0442721 -2.45745e-21)
(1.0171 -0.00899659 0)
(1.05141 -0.0774074 1.52007e-20)
(1.0161 -0.00601729 -7.35841e-22)
(1.00952 -0.00109951 -2.78973e-22)
(0.382318 -0.00470981 -4.20515e-20)
(1.02118 -0.00395416 3.92276e-21)
(0.813063 -0.201391 7.76069e-22)
(1.00918 -0.00051555 3.06098e-22)
(1.00728 -2.72789e-05 1.31387e-22)
(1.05714 -0.0501131 3.34889e-22)
(0.0824322 -0.186061 -8.50294e-21)
(0.321307 0.0265988 -1.83599e-21)
(-0.11342 -0.0111496 0)
(1.01179 -0.000657298 1.53516e-21)
(1.01902 -0.000597423 0)
(1.01187 -0.000154775 -6.28677e-23)
(1.03264 -0.0182436 5.9045e-21)
(0.931856 0.122505 -1.30925e-21)
(1.01655 -0.0056206 0)
(1.04816 -0.078511 -6.63484e-21)
(1.02946 -0.00183706 8.50956e-21)
(0.942143 0.0976975 1.47598e-21)
(1.08026 -0.0451609 2.48742e-20)
(1.01088 -0.0006427 1.50385e-21)
(0.00898628 -0.10622 0)
(1.0058 -6.90678e-05 0)
(1.03933 -0.0150411 9.79401e-23)
(1.03195 -0.0180246 -7.10798e-21)
(1.01263 -0.0027705 0)
(1.02485 -0.0166017 -4.59076e-21)
(1.07389 -0.0643834 0)
(1.06818 -0.0508055 -1.76604e-21)
(1.01112 0.00010001 0)
(1.05506 -0.0244053 0)
(-0.0618828 0.0484039 -9.38895e-21)
(1.0094 -0.00104274 0)
(1.02332 -0.0252398 1.1551e-21)
(1.01033 -8.23765e-05 4.99792e-23)
(1.01773 -0.007658 3.99768e-23)
(1.05955 -0.0329363 -1.39464e-20)
(1.01708 -0.00877443 0)
(0.595419 -0.0604593 -3.93821e-21)
(0.458952 -0.0028482 3.62073e-20)
(1.00808 -0.000345781 -1.48527e-22)
(1.01275 -0.00289379 -4.33356e-22)
(0.272141 0.000432138 0)
(1.00922 -0.000956505 0)
(0.910067 0.0881314 -6.21911e-21)
(1.05551 -0.0435957 7.41659e-21)
(1.01723 0.000190394 -9.7104e-22)
(1.07879 -0.0961019 -6.83336e-21)
(1.00845 3.69946e-05 0)
(1.03939 -0.0248235 -4.04691e-21)
(1.03179 -0.0502929 6.88484e-24)
(1.02107 -0.00337077 0)
(1.03223 -0.0515238 -2.19772e-21)
(1.0067 3.75713e-05 -1.26094e-23)
(1.00399 -4.37751e-05 3.73194e-23)
(1.0186 -0.012037 6.82033e-22)
(1.01226 -0.000763899 -8.72243e-22)
(1.05035 -0.0635228 -3.96111e-23)
(1.04776 -0.047778 7.25112e-22)
(0.907512 0.131709 -2.43793e-21)
(-0.0375317 0.0621661 5.55881e-20)
(1.01616 0.000149588 3.36884e-22)
(1.05454 -0.033755 1.61523e-20)
(0.552299 -0.165182 9.74251e-21)
(1.03789 -0.0146755 0)
(1.0183 -0.000854249 3.40459e-22)
(0.870054 -0.0220219 1.2869e-21)
(1.01734 -3.49308e-05 8.19239e-22)
(1.01286 -0.00115009 -1.13367e-22)
(1.01816 0.00129553 0)
(0.417445 -0.1207 4.5274e-20)
(1.00383 -0.000115925 5.4251e-22)
(1.01803 -0.004933 -4.10429e-21)
(1.04203 -0.0381903 0)
(1.02147 -0.00355119 0)
(0.305965 -0.105479 1.12315e-20)
(1.04129 -0.0225775 -7.79598e-23)
(0.501439 -0.0153235 -2.73142e-20)
(1.00955 7.09491e-05 -2.37928e-23)
(0.748783 -0.041893 1.91371e-20)
(1.01923 -0.0101298 1.40039e-21)
(0.878562 -0.00450017 2.3949e-21)
(1.00801 4.4584e-05 0)
(1.01135 -9.45911e-05 -2.0697e-22)
(1.02955 0.0222084 1.86443e-21)
(1.0061 0.00735217 -5.03135e-21)
(0.150998 0.0566274 2.70735e-21)
(1.0195 -0.00116624 5.30069e-21)
(0.516221 -0.0173836 2.41221e-20)
(1.0412 -0.0231471 1.93963e-20)
(1.03436 -0.00826194 4.45278e-21)
(0.776836 -0.0510007 0)
(1.06627 -0.0701019 0)
(0.655924 -0.0354821 0)
(1.00294 -1.38355e-05 1.65693e-23)
(1.04938 -0.0296679 -3.82798e-21)
(1.00281 1.27336e-05 -3.02296e-23)
(-0.0605637 0.100016 -5.42342e-20)
(1.00823 5.19159e-05 -5.01605e-24)
(1.03947 -0.0387063 -4.62172e-21)
(0.931729 -0.0214052 -7.35784e-21)
(1.00793 -0.000316699 2.99202e-22)
(1.01581 -8.38052e-06 0)
(1.06989 -0.0473118 0)
(1.00316 -0.0226819 0)
(0.358331 -0.104525 -8.55588e-21)
(0.972631 -0.0942001 -4.96899e-21)
(1.01183 -0.000135728 5.78173e-23)
(1.01833 -0.00504764 2.30825e-21)
(0.969489 -0.00133791 -3.3355e-21)
(0.985144 0.0765936 0)
(1.01393 -7.54627e-05 0)
(1.04406 -0.0375654 0)
(1.00446 2.90597e-05 0)
(0.601526 -0.0296414 -1.25624e-20)
(1.05956 -0.0454304 -9.8577e-21)
(0.880099 -0.116781 2.48334e-21)
(1.03095 -0.0184269 3.45086e-21)
(1.03378 -0.024638 -9.17263e-21)
(1.01098 -0.00570974 1.53189e-21)
(0.985113 0.0876834 -3.53431e-22)
(1.02888 -0.0114172 7.7831e-21)
(1.03167 -0.0186793 -3.75787e-21)
(1.06861 -0.0423727 -6.40557e-21)
(1.08604 -0.000112553 -1.87202e-21)
(1.04453 -0.0494306 -2.93446e-22)
(1.04143 -0.0498439 -1.51977e-20)
(0.420289 0.00702833 -5.78957e-22)
(1.02209 -0.00108231 -9.38099e-21)
(1.01141 -0.000106256 0)
(1.01836 -0.0126096 2.41444e-22)
(0.870663 -0.0724318 -1.44035e-21)
(1.01398 -0.000106689 0)
(1.03339 -0.110081 1.4755e-20)
(1.03733 -0.0148263 0)
(1.02889 -0.0109599 -7.39639e-21)
(1.04853 -0.0258675 0)
(0.813989 -0.0540541 0)
(1.03556 -0.00224676 2.45233e-22)
(1.01054 -0.00414926 -8.19258e-22)
(1.03869 -0.0153033 0)
(0.937985 -0.042265 3.20762e-21)
(1.05315 -0.0421652 -1.5532e-20)
(1.03311 -0.0317885 1.03454e-21)
(1.00968 -0.0011894 9.18448e-23)
(0.899971 -0.0985272 0)
(1.03548 -0.013254 0)
(0.668497 -0.0399461 -9.29541e-21)
(1.00182 0.0626572 0)
(1.01407 -7.30749e-05 0)
(1.00914 6.25327e-05 0)
(1.00369 2.20573e-05 0)
(1.06832 -0.0414242 6.43113e-21)
(0.845745 -0.0755135 -9.18261e-23)
(0.865856 0.154232 -4.7817e-21)
(1.01168 -0.00107025 -3.05215e-22)
(1.02007 -0.000109411 0)
(0.927408 -0.0348859 0)
(0.908311 -0.0703281 0)
(1.04906 -0.0827635 7.21427e-21)
(1.02355 -0.0171188 -1.54135e-21)
(1.03111 -0.00467864 0)
(1.05721 -0.0356071 1.35048e-20)
(0.912507 -0.0869409 -4.4876e-22)
(1.04827 -0.106134 -1.42924e-20)
(1.02576 -0.0250999 0)
(0.467128 0.111594 0)
(1.00995 -0.00132676 -1.71635e-22)
(0.621989 -0.0316003 0)
(1.05487 -0.0237433 -1.31327e-20)
(1.03828 -0.0224031 7.08867e-21)
(0.681716 -0.0412619 -1.19793e-22)
(1.02024 -0.00936423 1.17792e-21)
(0.989858 0.00859626 -1.23288e-21)
(0.68789 -0.0361212 0)
(1.01138 -0.00104133 0)
(1.06491 -0.0386605 3.2056e-20)
(1.04769 -0.0270258 -6.60953e-21)
(1.02341 -0.0165269 1.41879e-21)
(0.129119 -0.189318 1.03548e-20)
(1.02533 -0.0255038 -2.89633e-21)
(1.02739 -0.0112564 -8.20251e-22)
(0.751867 -0.0535859 -1.02919e-20)
(1.00915 -4.84209e-05 0)
(1.03431 -0.025255 1.06952e-20)
(1.01836 0.00240303 0)
(0.713513 -0.0426555 1.66892e-20)
(1.08071 -0.0502514 0)
(1.01974 -0.00129038 5.48137e-21)
(1.06387 -0.0441621 0)
(1.02011 -0.000808767 2.67213e-21)
(0.477522 0.000950098 -9.21741e-21)
(1.00964 -0.00940459 2.34819e-23)
(1.00394 -2.41108e-05 0)
(1.01411 -0.00322545 -5.80814e-24)
(1.08026 -0.0502591 0)
(1.04921 -0.0285358 -3.9378e-21)
(1.04011 -0.014066 0)
(1.01993 -1.67792e-05 1.37999e-21)
(1.02027 -0.00927585 0)
(1.02685 -0.0111035 0)
(0.97253 0.0939812 0)
(0.121085 -0.0327065 -1.40821e-20)
(0.614564 -0.104803 0)
(1.01925 -0.00775937 2.01428e-21)
(0.724425 -0.0434865 -2.43477e-20)
(0.781916 -0.126658 0)
(1.01924 -0.000496641 0)
(1.05388 -0.0346355 -1.00163e-20)
(1.04569 -0.0843569 -6.62084e-21)
(1.03765 -0.000733803 -6.84592e-22)
(0.990419 -0.0215561 0)
(1.07425 -0.059126 1.2244e-20)
(1.07362 -0.101848 1.29285e-20)
(1.01973 -0.00699437 6.39005e-22)
(0.797298 -0.125618 -3.11062e-21)
(0.660869 -0.0335054 0)
(1.01928 -0.000409181 2.10594e-21)
(1.00237 0.0075216 0)
(1.00302 0.0118876 -4.38928e-22)
(0.97787 -0.0458902 6.0042e-21)
(1.04054 -0.0137346 0)
(0.986024 -0.0220666 -8.92398e-21)
(-0.0684942 0.0953022 4.16629e-20)
(1.01297 -0.00301447 3.33029e-22)
(0.790291 -0.114165 2.92221e-21)
(1.01405 -0.00316249 1.86492e-22)
(1.01997 -0.000745253 -1.23593e-21)
(1.00501 2.84315e-05 0)
(1.00798 2.16111e-05 -6.07642e-23)
(1.01209 -0.00255948 1.61146e-22)
(0.694498 -0.0365205 -2.23656e-20)
(0.89011 0.0109257 -6.09244e-23)
(1.02019 -0.00667367 -1.49177e-21)
(1.06456 -0.0374066 1.1491e-21)
(1.00997 -4.57876e-05 0)
(0.437685 0.116147 6.86359e-23)
(1.03176 -0.0357902 1.46735e-21)
(0.83755 0.145738 -7.6338e-22)
(0.615134 -0.0745395 0)
(1.02016 -0.006895 0)
(1.00151 0.0100697 1.32938e-20)
(1.0459 -0.0275552 -6.47205e-21)
(0.838033 0.145555 3.82354e-21)
(1.01537 -0.00537173 -8.3527e-22)
(1.00738 -3.14594e-05 0)
(1.01894 -0.0121982 7.24664e-22)
(-0.0436619 0.00450892 6.20031e-21)
(1.01255 -0.000938233 0)
(0.163721 -0.179325 -1.33406e-20)
(1.03812 -0.00463516 -1.07504e-21)
(1.07533 -0.0597069 1.81214e-20)
(0.54362 -0.0468811 3.83819e-21)
(0.983347 0.0342612 -1.15429e-21)
(0.980154 0.0246431 1.12833e-21)
(1.01383 0.00227517 0)
(1.01 -0.00134163 3.94721e-22)
(1.0184 -0.000294309 4.63965e-21)
(1.01968 -0.00885858 0)
(1.06486 -0.0435383 -1.47291e-20)
(0.0594131 -0.109282 0)
(1.06131 -0.0323112 0)
(0.695572 -0.0382344 3.59539e-20)
(0.682295 -0.0361269 -1.09269e-20)
(1.00996 -5.15033e-05 2.47809e-22)
(1.0225 -0.00109887 0)
(0.601406 -0.0914325 -3.31343e-21)
(0.377204 -0.00382435 -8.37862e-21)
(0.936904 -0.00837869 1.95238e-20)
(0.737223 -0.065172 4.69166e-21)
(1.01827 -0.0137691 3.39174e-22)
(1.04631 -0.0284879 0)
(1.00321 -3.9229e-05 -1.43042e-22)
(0.842967 -0.122303 1.71985e-21)
(1.00935 -0.000596237 0)
(1.03454 -0.0318447 6.43968e-21)
(1.0146 0.00180607 1.49706e-21)
(1.02787 -0.00307749 0)
(1.00309 6.24029e-06 0)
(1.01124 -0.000988188 0)
(1.0103 -7.4439e-05 -6.64226e-23)
(1.05961 -0.0614829 -1.68845e-20)
(0.998489 -0.0320933 3.56502e-21)
(0.524138 0.000465704 -3.47212e-20)
(1.01765 -0.0113523 5.98132e-22)
(1.06438 -0.0455003 1.29559e-20)
(1.0103 -0.0182904 1.7354e-21)
(1.00312 0.0784689 3.78888e-22)
(1.03275 -0.0260045 -5.11871e-23)
(0.959056 -0.0384923 -5.27688e-21)
(1.0378 -0.0217115 -3.4394e-21)
(1.03273 0.0032539 1.20098e-21)
(1.00725 -2.12011e-05 0)
(1.01099 -0.000966731 1.37293e-22)
(1.00318 -4.38748e-05 0)
(1.01093 -0.0933527 -2.9391e-21)
(0.900821 0.159193 0)
(1.06171 -0.0716152 -6.69674e-23)
(1.01243 -0.0181749 -2.39104e-21)
(0.490686 -0.00092898 2.9907e-20)
(0.918177 -0.149068 -2.26388e-21)
(0.993047 0.0019644 0)
(1.00978 -0.000544747 -1.4715e-21)
(1.07102 -0.0472265 -1.03295e-20)
(1.0152 -0.00516249 -9.25784e-22)
(1.00187 0.0833569 0)
(1.00371 1.24439e-05 -8.86914e-23)
(0.863277 -0.00400576 0)
(0.956561 0.090219 7.12298e-21)
(1.03222 -0.0413632 0)
(0.496291 -0.0131369 0)
(1.01813 0.000186649 -4.16068e-22)
(1.02299 -0.0221814 -7.82968e-24)
(0.936248 0.109085 -4.98926e-21)
(0.0603004 0.020066 1.85205e-20)
(1.007 2.43983e-05 -5.64026e-24)
(1.0468 -0.0303461 0)
(1.05433 -0.0443686 8.05457e-21)
(1.03828 -0.00612126 -1.00295e-22)
(1.00866 -0.00049303 0)
(1.02626 -0.01134 5.18704e-21)
(1.08002 -0.0442443 0)
(1.07408 -0.0621064 -4.0606e-20)
(1.01463 -0.00913119 0)
(0.371134 0.175448 0)
(1.00355 -3.0522e-06 -2.57951e-22)
(1.01439 -0.00333957 0)
(0.0360491 0.122352 -2.47896e-20)
(1.02226 -0.025547 0)
(1.00886 5.75552e-05 0)
(0.833151 -0.0913346 0)
(1.00988 -0.00128077 -2.23141e-22)
(1.01788 -0.0102331 3.80764e-22)
(1.00925 -0.000656779 1.18626e-22)
(1.01799 -0.0367574 1.88432e-22)
(1.02395 -0.0150432 8.4536e-22)
(1.00925 6.89637e-05 0)
(1.01821 -0.000129027 3.81382e-22)
(0.77872 -0.0599922 0)
(1.02157 -0.00451377 -3.1622e-21)
(1.06121 -0.0345994 -1.39158e-20)
(1.00944 -0.000586079 -3.9851e-22)
(1.01475 0.00300534 -1.5361e-21)
(1.03678 -0.0271234 1.25214e-22)
(1.0008 -2.46161e-07 -7.60187e-23)
(1.01501 -0.00531037 -5.11586e-22)
(1.00202 4.37594e-05 1.07063e-22)
(1.00188 -2.702e-05 -1.42185e-23)
(0.898298 0.14223 8.03695e-21)
(1.02948 -0.0105012 -1.66773e-21)
(0.984498 -0.00508339 -1.24983e-21)
(1.02102 -0.00309128 3.08492e-21)
(1.00407 -1.65505e-05 -1.39158e-22)
(-0.104548 -0.0871444 -2.43814e-20)
(0.481954 -0.011314 -2.12224e-21)
(1.02226 -0.00367782 -3.57837e-21)
(1.01539 0.00499679 2.37636e-21)
(1.03356 -0.0263494 2.24889e-21)
(0.96608 0.0764886 0)
(0.173079 0.0737356 0)
(1.01444 -0.00342461 -9.34703e-23)
(0.89495 0.0457318 6.76321e-23)
(1.01566 -0.00558081 8.71866e-22)
(1.04688 -0.058477 -8.88977e-21)
(1.02895 -0.00412531 -1.66294e-21)
(-0.0568272 0.120186 0)
(1.0069 -1.14708e-05 5.41011e-23)
(-0.0239461 0.0751741 1.44134e-20)
(1.04057 -0.0550191 1.41047e-21)
(1.00879 -4.24209e-05 7.37733e-23)
(1.01821 0.00548138 2.87583e-21)
(0.627896 -0.0469266 0)
(1.03867 -0.0385097 5.81567e-21)
(0.896321 -0.123963 4.04466e-22)
(1.00755 -0.000309581 5.30792e-22)
(0.900839 -0.172784 7.90876e-21)
(1.01133 -0.000577602 -1.59899e-21)
(1.00886 -0.000769528 8.41235e-23)
(1.0099 -0.00127631 1.00633e-22)
(1.02804 -0.00166524 2.91373e-21)
(0.40104 -0.00844396 2.29733e-20)
(1.06617 -0.0493227 0)
(1.07827 -0.0557173 -7.27519e-21)
(1.09374 -0.0789472 0)
(1.01093 0.0079693 -1.11749e-21)
(1.01145 8.692e-05 0)
(0.89037 -0.112155 -8.81349e-21)
(0.906013 0.157931 0)
(1.0403 -0.0250191 -4.65036e-21)
(1.05434 -0.0250398 0)
(0.971976 0.0634926 0)
(0.88271 -0.182462 -2.98706e-21)
(0.792015 -0.0439988 -8.37084e-21)
(1.01741 -0.000305621 -1.33692e-22)
(-0.0639279 0.118126 9.64049e-21)
(0.235889 0.0436995 -4.20882e-20)
(0.333076 -0.094156 5.78744e-20)
(1.02433 -0.0259704 2.24511e-21)
(1.01921 0.00716957 -9.82502e-22)
(0.831223 -0.0219448 1.00166e-21)
(1.02825 -0.0224802 -6.95093e-23)
(1.09719 -0.0251907 -3.40779e-21)
(0.866244 -0.0339611 2.29451e-21)
(0.733487 -0.0118172 -9.00537e-21)
(1.02443 -0.0168197 3.69421e-21)
(0.708497 -0.0234048 8.08934e-21)
(1.01723 -0.0495699 1.39705e-20)
(1.00712 -1.19188e-05 1.60119e-22)
(1.03137 -0.0157191 0)
(1.0675 -0.0494592 1.65356e-20)
(0.456301 -0.00599048 3.80177e-20)
(1.03056 -0.0189539 -1.84573e-21)
(1.01786 -0.00345659 3.13242e-21)
(1.01241 -0.00266696 0)
(1.01698 -0.0058488 8.96706e-22)
(1.05241 -0.0622131 -1.10783e-20)
(1.0091 -0.0282939 3.85737e-24)
(0.961464 -0.117718 0)
(0.368269 0.167194 2.99266e-21)
(1.00849 -0.000368952 0)
(0.0362363 0.119891 -2.2645e-20)
(0.523 -0.0135584 4.83422e-22)
(0.9836 0.0355555 0)
(0.910249 0.146345 0)
(1.06002 -0.0342743 1.49628e-20)
(1.00831 4.9217e-05 1.58226e-23)
(1.01085 -0.000925786 1.54764e-22)
(1.01486 -0.0253785 -1.24253e-22)
(0.860749 -0.107645 0)
(1.04013 -0.0154702 -1.11591e-20)
(1.07914 -0.0483098 1.59343e-20)
(1.08217 -0.0515848 0)
(1.00886 -1.96982e-05 5.99604e-23)
(1.00609 -0.0219731 1.27329e-21)
(0.918397 -0.181593 -9.31602e-21)
(0.986284 -0.0452132 6.60303e-21)
(1.07093 -0.0619425 -1.95736e-20)
(0.411182 -0.00971616 0)
(1.0168 -0.0492756 1.62245e-20)
(1.01582 -0.00578842 0)
(1.02827 -0.00282735 -8.8303e-21)
(0.581569 -0.0518633 3.84018e-21)
(0.670589 -0.0353346 2.38257e-20)
(1.07975 -0.0515496 3.69063e-20)
(1.0622 -0.031558 -1.72652e-20)
(1.02485 0.0182251 -2.4802e-21)
(1.00825 2.417e-05 -1.99684e-23)
(1.01486 -0.00358538 0)
(0.831144 -0.0131818 0)
(1.00853 -1.25091e-05 0)
(1.02986 -0.018656 0)
(1.00836 4.26759e-05 6.24147e-23)
(1.00991 -0.00107106 -2.91755e-22)
(0.998832 -0.0505076 2.15995e-21)
(1.05612 -0.0620022 -1.32425e-20)
(1.01304 -0.0156309 1.34863e-21)
(1.00849 -6.97754e-06 0)
(0.221283 -0.176817 -1.60833e-21)
(0.871917 0.0155285 -2.47078e-21)
(1.01013 -0.00143561 -1.35152e-22)
(1.00614 -6.32298e-05 0)
(1.01408 -5.82068e-05 -3.34528e-22)
(1.0189 -0.000371831 -4.44532e-21)
(-0.0522215 0.0147872 0)
(0.873706 -0.0861575 3.32476e-21)
(0.880511 -0.0540259 -5.53322e-21)
(0.281772 -0.125535 0)
(0.887868 -0.169343 -6.51949e-21)
(1.0616 -0.0298471 0)
(0.435849 -0.00291557 0)
(0.479292 -0.0120211 1.93444e-20)
(1.02083 -0.00752508 -9.0168e-22)
(1.05758 -0.0334654 -1.50838e-20)
(1.0084 5.20968e-05 -7.27806e-24)
(1.01893 0.00208896 -3.43874e-22)
(1.03643 -0.0331016 -3.53324e-21)
(0.831952 -0.0713702 1.02777e-21)
(0.803949 -0.104262 0)
(1.07847 -0.0482574 -1.31603e-20)
(1.04252 -0.0290625 0)
(1.01005 -0.000813256 0)
(1.03173 -0.0321616 -1.74997e-21)
(1.01833 -0.00247847 3.5967e-22)
(0.899882 -0.134026 8.02993e-22)
(1.06526 -0.0529733 0)
(1.02066 -0.00290509 8.69067e-21)
(1.01786 -0.00776163 -1.11088e-21)
(1.00857 -0.000489372 1.50329e-22)
(1.04978 -0.0248752 -2.34258e-20)
(1.06014 -0.0738614 1.06433e-20)
(1.03015 -0.00411995 9.00821e-23)
(1.01493 -0.0049834 -1.26896e-21)
(1.03279 -0.035732 0)
(1.02782 -0.00687251 7.04065e-21)
(1.05241 -0.0598063 0)
(1.00754 -0.0858836 2.86439e-21)
(1.06609 -0.0684746 0)
(1.03007 -0.0326524 -1.48613e-21)
(1.08008 -0.0513711 9.72889e-23)
(1.00983 -0.000784925 0)
(0.954927 0.00150443 1.76508e-22)
(1.011 -0.0077925 -2.7496e-23)
(0.202387 -0.0938201 0)
(1.01938 -0.0101568 -8.95576e-22)
(1.00422 -6.76056e-05 -2.53818e-22)
(0.979018 -0.0502228 0)
(1.0208 -0.0140345 0)
(0.502538 -0.025783 0)
(0.629894 -0.0309149 -2.46236e-20)
(0.0512735 0.0966669 0)
(0.81534 -0.100519 -5.16534e-21)
(1.00923 -0.000593894 7.71855e-23)
(1.02929 -0.0512552 0)
(1.01455 -0.00015615 0)
(1.00987 -0.00117432 0)
(1.00681 -6.94114e-07 -4.59561e-23)
(1.00998 -0.00118343 0)
(1.01597 -0.00159454 -1.41128e-23)
(1.01799 -0.0101702 0)
(1.0179 -0.0347295 0)
(1.0082 1.14455e-06 5.41051e-23)
(0.708511 -0.108265 4.29678e-21)
(1.04443 -0.0541311 -2.93164e-21)
(0.676817 -0.115555 -5.0074e-21)
(1.01189 -0.00225967 -8.0759e-23)
(1.00644 1.92197e-05 0)
(1.00489 -5.2988e-06 -1.42968e-22)
(1.04185 -0.0818554 5.70369e-21)
(0.538892 -0.16131 8.81969e-21)
(1.07314 -0.0410025 8.65528e-21)
(1.04958 -0.0254191 1.87059e-20)
(1.01484 -0.000281207 0)
(1.00387 -2.60418e-05 -8.50595e-23)
(1.00744 -0.000235414 0)
(1.01305 -0.00284323 -1.60974e-22)
(1.08334 -0.0569406 0)
(0.299229 0.115468 4.43425e-21)
(1.02733 -0.0066231 0)
(1.00816 7.03625e-06 -5.11191e-23)
(1.02834 -0.0013458 3.02117e-21)
(1.01297 -0.00287195 9.04933e-23)
(0.969038 0.000858404 -5.56996e-21)
(-0.0461863 0.0487872 0)
(1.03259 -0.0324646 -1.94945e-21)
(0.669856 -0.0685227 0)
(0.906423 -0.187889 4.72565e-22)
(1.01476 -0.00477714 -4.1394e-22)
(1.0775 -0.0562303 3.92925e-20)
(0.0263593 0.00842887 -2.71857e-20)
(1.05801 -0.0347475 -1.17655e-20)
(0.396711 0.115501 3.91553e-21)
(1.03296 -0.00818991 3.79286e-21)
(1.01802 -0.0132215 -2.37557e-22)
(1.0722 -0.0407591 9.76366e-22)
(1.01837 -0.0116806 0)
(0.870627 0.00494738 -7.88744e-21)
(1.02184 -0.00348153 0)
(0.84705 -0.0885365 -1.44785e-20)
(1.00353 3.86266e-06 -8.8254e-23)
(1.06795 -0.0233795 2.12328e-20)
(0.518411 -0.0165697 1.39515e-20)
(1.01347 -0.00109311 -2.52278e-22)
(1.02044 -0.012426 -1.96454e-21)
(1.03019 0.0146351 -1.83655e-21)
(1.00904 -0.00083929 -2.5668e-23)
(1.03905 -0.0240148 7.83349e-21)
(0.90113 -0.042911 -4.28002e-22)
(0.190675 -0.0589736 0)
(1.06381 -0.0528034 0)
(1.04776 -0.11002 -3.0781e-21)
(0.975774 0.0476201 0)
(1.00807 4.06835e-05 -6.75511e-23)
(1.01166 -0.00216403 7.83174e-23)
(-0.114029 -0.0980959 2.77342e-20)
(1.08172 -0.0515261 -7.52025e-21)
(1.00042 -0.0249338 -1.06413e-21)
(0.650103 -0.0330002 3.51473e-20)
(1.01068 -0.000601464 3.50493e-22)
(1.01571 -3.71569e-05 -5.00563e-21)
(1.00715 -2.14986e-05 -1.10174e-22)
(0.87775 -0.155905 -2.63439e-21)
(1.0906 -0.0501457 -1.42737e-20)
(1.0259 -0.0228104 1.05339e-21)
(1.01717 -0.00803129 -4.2207e-22)
(1.04041 -0.0177841 -8.01489e-22)
(1.04606 -0.0189627 0)
(1.0051 -1.99766e-06 0)
(0.0754472 0.0959075 -3.95101e-20)
(1.05262 0.0200825 2.52588e-21)
(0.589997 -0.0234647 -1.97745e-21)
(1.00909 -4.20211e-05 1.60452e-22)
(1.02737 -0.00622304 0)
(0.451673 -0.00442669 -6.5713e-22)
(-0.0178363 -0.000952203 9.00336e-22)
(1.08115 -0.0509182 2.58819e-21)
(1.01761 -0.00223752 -1.08251e-21)
(0.917294 -0.0478435 2.23297e-21)
(1.02157 -0.00390963 0)
(1.03876 -0.00179562 1.39423e-22)
(1.01112 -0.0537045 0)
(1.03029 -0.0416637 3.84762e-21)
(1.03387 -0.023194 0)
(0.103297 0.0887078 -4.1219e-20)
(1.01188 0.000266225 9.53506e-22)
(1.01625 -0.00323716 -1.15743e-21)
(1.08548 -0.0498375 2.3016e-20)
(1.00442 -6.20131e-05 0)
(1.00233 -5.03871e-05 0)
(1.02412 -0.015594 -3.37995e-21)
(1.00973 -0.000751479 1.29659e-22)
(0.0798035 0.102295 0)
(1.03809 -0.0317184 -4.92454e-21)
(1.07256 -0.0615636 1.01168e-20)
(1.01456 -0.015676 -1.56193e-21)
(1.03901 -0.0142884 -8.68362e-23)
(1.01018 -0.000857494 0)
(0.899475 -0.0569063 1.35015e-21)
(1.00627 -0.000190454 3.95579e-23)
(1.01231 0.00168102 8.07722e-22)
(1.00639 -1.35683e-07 -4.77515e-23)
(1.01434 -0.00442276 -5.16165e-23)
(1.01107 -0.000724135 0)
(0.672753 -0.0349572 0)
(1.0123 -0.00267357 -1.65899e-22)
(1.00766 -4.09066e-05 0)
(1.06684 -0.0693929 0)
(1.02899 -0.00293602 -3.13829e-21)
(0.473399 -0.00761642 -3.80171e-20)
(1.00305 -1.5362e-06 0)
(1.01879 -0.00151196 7.28406e-22)
(1.07352 -0.0474249 -2.74113e-20)
(0.935781 0.0104352 -1.47935e-21)
(0.899195 -0.0429504 0)
(1.00799 -0.000290443 1.83214e-23)
(0.955553 -0.0364025 0)
(0.690187 -0.0795179 2.11923e-21)
(1.02947 -0.0109475 7.57864e-21)
(0.77218 -0.0441928 -4.32375e-22)
(1.06685 -0.0232278 -1.92892e-20)
(1.00944 -0.000690559 -5.30707e-22)
(1.00832 -0.00776779 -6.72723e-22)
(0.0467594 0.106746 3.89295e-22)
(0.961039 -0.028976 2.54152e-21)
(1.03159 -0.0247847 -1.7316e-22)
(1.00833 -0.000326535 0)
(1.00788 1.17117e-05 0)
(0.927042 0.138266 0)
(1.0268 -0.039346 -4.50504e-22)
(1.02237 -0.0499693 2.29582e-23)
(1.02531 -0.0243523 0)
(1.00691 -0.00590434 6.90789e-22)
(1.01834 -0.00031314 -9.21101e-22)
(1.01845 -0.00180359 0)
(1.08107 -0.0472666 -7.73536e-21)
(0.896698 0.139127 1.60146e-22)
(1.04837 -0.0621217 2.43618e-21)
(0.824473 -0.103295 1.0869e-22)
(1.02686 -0.0059689 0)
(1.04861 -0.0597571 -2.51947e-21)
(1.0719 -0.0524123 -4.9102e-21)
(0.736356 -0.0450228 -1.65841e-20)
(1.0251 -0.0222233 -9.66803e-22)
(0.192678 -0.0577053 0)
(1.09282 -0.0806749 0)
(1.02943 -0.00263313 -2.78826e-21)
(0.313584 0.015155 7.97791e-20)
(0.965539 0.00199582 5.76604e-21)
(0.668336 -0.141038 2.10821e-20)
(0.202266 -0.0626041 1.43988e-20)
(0.697597 -0.0447174 0)
(0.961163 0.076702 -5.62256e-23)
(1.03637 -0.0348569 0)
(1.00953 -0.000718525 9.44665e-26)
(1.02054 -0.00904689 0)
(-0.0775821 0.0572637 3.81465e-21)
(0.215756 0.0509945 -4.65603e-20)
(1.01374 -0.00273559 -1.33938e-22)
(1.00327 -2.14421e-05 -8.53121e-24)
(1.0694 -0.0484362 -3.7267e-21)
(0.957796 -0.0671245 -6.77679e-23)
(1.0085 -5.5326e-05 1.12161e-22)
(-0.0281453 0.0365039 0)
(1.01038 -0.000579957 -3.3985e-22)
(1.02109 -0.00635676 -5.92396e-21)
(0.0547911 0.114932 0)
(0.458017 -0.00468678 0)
(0.965862 0.0471628 -8.8725e-24)
(1.00988 -0.00119523 0)
(1.01998 -0.0005618 -1.28736e-21)
(-0.0246116 0.0099506 3.12523e-20)
(1.08173 -0.0574179 6.47558e-21)
(1.07948 -0.0512543 -9.99261e-22)
(1.01921 -0.00467818 -6.03321e-22)
(0.637712 -0.10165 0)
(0.989198 -0.0524076 2.32362e-21)
(0.596819 -0.15279 -8.33663e-21)
(1.06228 -0.0461221 2.75752e-21)
(1.06337 -0.0371472 9.72192e-21)
(1.02673 -0.0114784 0)
(1.02877 -0.00367949 -1.59163e-21)
(0.576104 -0.187941 1.49117e-21)
(1.0758 -0.0377695 1.85425e-20)
(0.370324 -0.00399957 0)
(1.0154 -0.0144035 3.80803e-22)
(1.06018 -0.0319117 1.27556e-20)
(0.105343 0.0920811 0)
(0.654604 -0.138627 6.61042e-21)
(0.503861 -0.00973075 -1.87661e-20)
(1.02391 -0.00375759 4.94035e-23)
(1.06159 -0.0275434 -1.16737e-20)
(1.01002 -0.00137208 0)
(1.03112 -0.0329732 0)
(1.02026 -0.0120996 0)
(0.317291 0.122578 0)
(1.01067 -8.44604e-05 3.4976e-21)
(0.493608 -0.0215639 4.24128e-23)
(1.00831 -5.65023e-05 6.05689e-23)
(1.07272 -0.0471381 2.43543e-20)
(1.01493 -0.00431698 0)
(1.00027 -0.0515623 0)
(1.06241 -0.0305677 2.83156e-20)
(1.06037 -0.0275494 1.41956e-20)
(0.671151 -0.0611655 0)
(1.06742 -0.0375821 0)
(1.01604 -0.0383373 -1.34327e-22)
(1.00437 -7.18967e-05 0)
(1.07189 -0.0478446 0)
(0.87781 0.115812 7.03692e-21)
(1.00294 0.0203006 -3.2589e-21)
(1.02876 -0.0188121 0)
(0.446841 -0.00399112 5.87353e-21)
(1.01354 -0.000140354 1.56143e-22)
(0.286564 -0.0426044 8.73163e-21)
(0.907497 0.0498556 0)
(1.02436 -0.00951507 0)
(0.720496 -0.0385459 -1.57749e-20)
(-0.0630551 -0.00661731 -5.70998e-21)
(0.487085 -0.00947318 1.76007e-20)
(0.97482 0.0807104 5.29953e-23)
(1.0137 -0.0124879 0)
(1.01365 -0.00297599 5.65451e-23)
(0.580266 -0.0213444 0)
(1.01568 -0.000171958 0)
(0.851562 -0.204002 -1.17442e-22)
(0.496255 -0.0156431 4.36532e-22)
(1.01191 -0.00235785 7.28127e-23)
(1.04515 -0.00974979 0)
(1.01718 -0.0944656 2.67273e-21)
(0.874667 0.0556325 2.30683e-21)
(0.183394 -0.019039 1.89272e-22)
(1.02544 -0.00744651 0)
(1.00672 -0.000111197 -1.874e-22)
(0.522109 -0.12563 -2.50061e-21)
(0.508337 -0.0159208 0)
(1.0704 -0.0638065 2.02823e-20)
(1.0313 -0.0239175 4.0814e-21)
(1.01819 -0.00416132 8.61416e-22)
(0.917155 0.0738177 -4.46771e-22)
(0.0329509 0.12266 2.36122e-20)
(1.07182 -0.0533856 0)
(1.00773 -5.14427e-05 -6.64872e-24)
(1.03662 -0.0351772 2.62558e-21)
(1.00906 -0.000871629 0)
(1.00679 -0.000162465 2.73232e-22)
(0.997257 0.0183818 0)
(1.00301 -1.9438e-05 5.16419e-22)
(0.85391 -0.0331128 0)
(1.01656 0.0615465 0)
(1.02107 -0.00660947 6.27017e-21)
(1.01905 -0.000159681 0)
(1.01386 -0.00301479 -2.95715e-22)
(1.02466 -0.0159791 3.89088e-21)
(0.399963 -0.00358222 -9.38024e-21)
(0.626177 -0.0539573 -2.68029e-20)
(1.04762 -0.0297971 -7.28721e-21)
(0.192352 -0.0764796 0)
(1.01496 -0.00420821 0)
(1.04584 -0.0299586 0)
(1.01345 -0.00283645 -5.85914e-23)
(1.00917 -0.000923569 5.46829e-23)
(1.02102 -0.00909225 1.292e-21)
(1.02065 -0.00651913 4.22523e-21)
(0.44171 -0.0076253 -1.78359e-20)
(1.02236 -0.00395606 2.99825e-21)
(1.07118 -0.0412958 6.72456e-21)
(1.02404 -0.00408863 2.29502e-21)
(1.03241 -0.0251113 -5.59738e-23)
(0.990191 0.0176074 0)
(-0.0172233 -0.020011 -1.47695e-20)
(1.00705 -0.00028595 3.33667e-22)
(0.598881 -0.0400958 -7.18751e-22)
(1.02426 -0.0521726 0)
(1.09698 -0.0664217 2.3537e-20)
(1.03862 -0.0321722 5.39223e-21)
(1.04261 -0.0331252 0)
(0.361742 -0.00256631 0)
(1.05056 -0.0245404 6.57937e-21)
(1.00586 -0.0243702 0)
(0.328302 0.129573 6.54921e-21)
(0.91465 -0.146777 -1.00169e-22)
(-0.0271071 0.109854 3.41897e-21)
(1.04409 -0.0387255 0)
(0.9633 0.0845707 0)
(1.01921 -0.00977138 1.81197e-21)
(1.06667 -0.0365854 0)
(1.06176 -0.0447895 -2.83225e-21)
(0.174143 -0.0411744 -2.22378e-22)
(1.00736 -0.000207879 0)
(0.193908 -0.0195926 2.10197e-20)
(1.01153 -0.00207771 0)
(1.01202 -0.00235305 -2.01192e-22)
(0.046611 -0.121298 -3.37844e-21)
(1.01695 0.0012706 1.87289e-22)