/*--------------------------------*- C++ -*----------------------------------*\
| =========                 |                                                 |
| \\      /  F ield         | OpenFOAM: The Open Source CFD Toolbox           |
|  \\    /   O peration     | Version:  v2012                                 |
|   \\  /    A nd           | Website:  www.openfoam.com                      |
|    \\/     M anipulation  |                                                 |
\*---------------------------------------------------------------------------*/
FoamFile
{
    version     2.0;
    format      ascii;
    class       surfaceVectorField;
    location    "300";
    object      ddtCorrDdt0(Uf);
}
// * * * * * * * * * * * * * * * * * * * * * * * * * * * * * * * * * * * * * //

dimensions      [0 1 -2 0 0 0 0];


internalField   nonuniform List<vector> 
20580
(
(-0.00565444 -0.000219593 5.04388e-18)
(-0.00625633 -0.000311601 5.35784e-18)
(-0.00559736 -0.00071363 2.94697e-18)
(-0.000116054 -0.000197179 1.04298e-18)
(-0.000117227 -0.000196454 -6.30936e-18)
(-0.000119855 -0.000196388 7.73942e-18)
(-0.000109117 -0.000196232 9.36981e-18)
(-0.000109611 -0.000193249 5.26761e-18)
(0.00397251 0.00251584 3.55017e-17)
(0.00437558 0.0029198 -6.61078e-17)
(0.00472651 0.0021951 -2.40589e-17)
(-1.45447e-05 4.35082e-06 1.89171e-19)
(-1.27551e-05 4.48356e-06 2.17126e-19)
(-1.19919e-05 2.67908e-06 2.67765e-19)
(-0.000170564 -0.000204878 -1.1233e-17)
(-0.000174437 -0.000205267 -3.0644e-19)
(-0.000167454 -0.000203141 4.75977e-19)
(0.000185641 -0.000377037 1.05534e-18)
(0.000195942 -0.000392995 4.68674e-18)
(-1.83258e-05 -4.069e-06 -1.20899e-19)
(-2.00139e-05 -3.40188e-06 -5.66502e-19)
(-1.95996e-05 -1.86868e-06 -8.24142e-19)
(0.00311638 -0.00413107 1.75163e-18)
(0.00261497 -0.00411227 4.37992e-18)
(0.00328051 -0.00366132 -2.90399e-18)
(-2.2296e-05 4.47767e-05 -1.29689e-18)
(-1.74213e-05 5.19931e-05 -1.17854e-18)
(-2.10944e-05 4.92839e-05 -2.35486e-18)
(-0.000292209 -0.000417382 -1.10619e-17)
(-0.000299278 -0.000410375 4.99e-20)
(-0.000304915 -0.000428262 1.40302e-17)
(-2.44447e-05 7.73674e-05 -5.06503e-19)
(-2.6216e-05 7.06297e-05 -2.70747e-19)
(-2.62657e-05 7.41932e-05 -1.79434e-19)
(-4.56002e-05 9.17636e-05 -3.02176e-18)
(-4.55167e-05 9.92923e-05 -1.58382e-18)
(-4.62062e-05 9.04447e-05 4.48003e-18)
(0.0095943 -0.00124192 -5.85842e-18)
(0.00976837 -0.00104177 4.3755e-18)
(0.00981228 -0.00131809 -2.56666e-18)
(-0.000363264 -0.000503875 1.03429e-17)
(-0.000400792 -0.000489254 7.59521e-18)
(-0.000360299 -0.000462177 -3.74637e-19)
(0.00221268 -0.00122405 1.74158e-18)
(0.00218529 -0.00115612 1.4013e-18)
(0.00225299 -0.00119032 4.80239e-18)
(0.000320912 -0.000170863 2.12176e-17)
(0.000290069 -0.000218009 -5.35096e-17)
(0.000353023 -0.000162773 1.29688e-17)
(-4.67426e-05 -0.000130573 -6.3399e-19)
(-4.41349e-05 -0.00013042 1.16568e-18)
(-4.84965e-05 -0.000135928 3.37326e-18)
(0.00933623 0.00156889 -9.86281e-18)
(0.00929887 0.000409525 3.32451e-18)
(0.0113774 0.000908772 3.65346e-17)
(-0.00565125 0.000448529 -1.59798e-17)
(-0.00507828 -0.000110243 -7.83927e-18)
(-0.000520491 -0.000243712 -2.89219e-18)
(-0.00047394 -0.000237066 -3.72317e-18)
(-0.000485505 -0.000283634 -5.9745e-18)
(-0.000266947 -0.000114036 -4.75922e-19)
(-0.000266487 -0.000102082 8.03955e-19)
(-0.000257585 -0.000108733 3.04531e-19)
(0.00446488 -0.00349963 -4.74228e-17)
(0.0045064 -0.00387273 -8.05265e-19)
(0.00546244 -0.00461749 -3.71539e-17)
(8.1094e-07 -2.37127e-06 8.67321e-21)
(1.20916e-06 -2.3016e-06 -7.12268e-19)
(8.31714e-07 -1.98467e-06 -2.80885e-19)
(-0.00204673 0.000130535 2.87683e-18)
(-0.00181213 0.000351175 -4.30547e-19)
(-0.00304504 0.000589352 -6.15325e-18)
(0.000839998 -0.00130995 2.28399e-17)
(0.000927695 -0.00131894 -7.10652e-18)
(0.000876369 -0.00138944 1.56128e-17)
(0.00544419 -0.0099772 -6.83298e-18)
(0.00518646 -0.0110269 2.43008e-18)
(0.00618071 -0.0101799 1.10333e-18)
(0.00707244 0.0230762 -7.69038e-18)
(0.00802128 0.0238453 6.08993e-18)
(0.00802649 0.0225198 -3.35741e-18)
(-0.00433709 -0.000850152 2.31485e-18)
(-0.0034353 -0.000988253 9.78563e-18)
(-0.00340595 -0.00100003 -8.05096e-19)
(-3.48474e-05 -6.81401e-05 -1.18219e-21)
(-3.73754e-05 -6.33078e-05 -9.15687e-20)
(-3.48512e-05 -6.22079e-05 -3.61629e-19)
(0.00024051 -0.00215542 -2.42138e-17)
(0.000280538 -0.00182828 3.74327e-17)
(-8.56366e-05 -0.00205044 -5.96318e-18)
(0.000171568 -0.000377077 -1.57299e-18)
(0.000174252 -0.000361443 -1.28303e-18)
(-0.00512989 -0.00235743 6.03157e-18)
(-0.00485306 -0.00283434 -1.02338e-17)
(-0.00455896 -0.0021868 -3.58248e-17)
(0.0103894 0.000573352 8.60065e-18)
(0.0103182 0.00113884 -1.81013e-17)
(0.0105602 0.000947461 5.79406e-18)
(-0.000257579 -0.000316673 -4.2499e-18)
(-0.000245345 -0.000314835 1.97052e-17)
(-0.000258063 -0.000328179 2.7635e-18)
(-0.00316978 -0.0011309 2.46268e-18)
(-0.00401328 -0.000978772 -6.5484e-18)
(-0.00309104 -0.00120408 -6.61171e-18)
(2.45571e-07 -1.97431e-06 1.56988e-18)
(9.37727e-07 -2.96117e-06 8.20103e-19)
(-0.00132259 0.00318209 6.10153e-17)
(-0.00265523 0.00285995 -2.02014e-18)
(-0.00199277 0.00266766 3.04326e-17)
(0.00194044 -0.00188443 -8.45907e-18)
(0.00194447 -0.00220423 5.44271e-18)
(0.00185366 -0.00192586 -8.85156e-18)
(-0.000107961 9.88905e-05 7.03009e-19)
(-0.000104522 9.58015e-05 -5.27076e-22)
(-0.000110059 9.35553e-05 9.14391e-19)
(-0.00120894 0.00941523 -2.32547e-18)
(-0.00113864 0.0101842 1.1207e-17)
(-0.000309113 0.00944078 2.10729e-17)
(-0.00526684 -0.000755921 -5.16823e-18)
(-0.00530241 -0.000665228 2.95638e-18)
(0.00164219 -0.000509399 -1.257e-17)
(0.00141602 -0.000460471 -4.38785e-17)
(-0.000441492 0.00192323 -4.18862e-18)
(-7.14378e-05 0.00194162 2.27731e-17)
(-0.000329408 0.00169007 1.36325e-17)
(-0.00693904 -0.00129152 -1.44474e-18)
(-0.00667239 -0.00143067 -3.57858e-18)
(-0.0056633 -0.00125821 4.62951e-18)
(-6.88526e-05 3.96488e-05 3.29487e-20)
(-6.86184e-05 4.43072e-05 2.04515e-19)
(-6.60067e-05 4.17827e-05 -1.41363e-20)
(2.92518e-05 -1.0344e-05 3.4559e-19)
(3.11238e-05 -8.07265e-06 5.1784e-19)
(0.00253379 -0.002907 -1.03173e-17)
(0.00273381 -0.00274815 7.05402e-18)
(0.00241116 -0.00267746 2.69416e-18)
(-0.000181161 -0.000156589 3.49059e-18)
(-0.000175466 -0.000147446 2.09487e-18)
(-0.000173175 -0.000159026 -1.09572e-18)
(-4.38914e-05 8.40891e-05 -3.29822e-18)
(-4.64106e-05 9.42937e-05 -1.66528e-18)
(-0.00583107 -0.00127539 -6.27451e-18)
(-0.00622419 -0.00124991 -1.39679e-17)
(-0.00572673 -0.000834038 -2.10372e-17)
(-3.14355e-05 0.000128219 -6.48995e-18)
(-2.87749e-05 0.000118366 7.24648e-18)
(-3.19653e-05 0.000128634 6.06672e-18)
(0.00241591 -0.00128527 -3.01478e-18)
(0.00222284 -0.0014249 -1.14442e-17)
(0.00017012 -0.000655431 -9.50766e-18)
(0.000169002 -0.000673483 6.551e-18)
(0.00018912 -0.000668462 2.28405e-18)
(0.00456411 -0.00105448 2.40397e-19)
(0.00457521 -0.00144307 -1.08164e-17)
(0.00501126 -0.00112267 -5.55412e-19)
(-0.000109172 0.000100369 1.1143e-18)
(-0.000105402 0.000102529 1.56391e-18)
(-0.00573871 -0.00256529 1.60275e-17)
(-0.00536486 -0.00186281 2.44173e-17)
(-0.0020317 0.00916057 -1.9397e-17)
(-0.00104534 0.00833353 -3.51358e-17)
(0.00919303 -0.00294161 1.39337e-17)
(0.00712654 -0.00265419 -9.75272e-18)
(0.00634715 -0.00372481 1.11959e-17)
(0.00894323 0.000782369 1.35387e-17)
(0.00939903 0.000872092 8.0076e-18)
(0.00867062 0.00126578 1.60327e-17)
(-2.24255e-05 8.30542e-05 -2.44156e-19)
(-2.25678e-05 7.95892e-05 -1.71414e-18)
(0.00494513 -0.00911296 2.00278e-18)
(0.00425317 -0.00981841 -2.30388e-18)
(-1.02825e-05 0.000157357 1.42355e-18)
(-2.91449e-08 0.000151759 1.27527e-18)
(-1.09067e-05 0.000137205 1.57177e-19)
(-0.000184553 -0.000152043 -9.65048e-19)
(-0.000186588 -0.000158988 2.291e-18)
(-0.000272128 0.000806416 2.41464e-18)
(-0.00031104 0.000824929 9.10261e-19)
(-0.000304043 0.000779957 -7.02362e-18)
(-0.000236294 0.000794291 -3.57552e-20)
(-0.000239247 0.000832516 1.09342e-18)
(0.00855605 0.000640907 -2.72314e-17)
(0.00921834 0.000358411 5.16679e-18)
(-7.00171e-05 0.000450951 2.05621e-17)
(-7.61788e-05 0.000457481 9.19968e-18)
(-0.000123921 -7.57262e-06 -4.78708e-19)
(-0.000122747 3.69749e-06 -2.21686e-19)
(-0.000119866 -2.84535e-06 5.56078e-19)
(0.00672043 -0.000679304 9.80228e-18)
(0.00639576 -0.000474687 -1.50758e-17)
(0.00640454 -0.000953859 -1.53471e-17)
(-0.000229522 -0.00063444 2.68595e-17)
(-9.65063e-05 -0.000550048 -9.02387e-18)
(-0.000273812 -0.000525656 -3.77141e-17)
(-0.000665567 -0.000109183 8.24043e-18)
(-0.000629153 -6.35006e-05 -5.09558e-18)
(-0.000699485 -4.30262e-05 6.87141e-18)
(-6.48999e-05 6.6384e-05 5.41327e-20)
(-6.42139e-05 6.54819e-05 4.62544e-19)
(-6.66986e-05 7.33585e-05 -1.02109e-18)
(0.00985855 0.000866095 -1.76417e-18)
(0.0102817 0.000386753 1.81976e-17)
(5.6427e-05 -0.000696613 -3.16501e-19)
(4.54973e-05 -0.000668914 -2.61136e-18)
(3.0013e-05 -0.000688379 3.56922e-18)
(-0.000211985 -3.79656e-05 3.09406e-20)
(-0.000208027 -2.36933e-05 -4.31954e-20)
(-0.000204282 -3.44119e-05 3.48547e-19)
(0.000276657 -0.000189031 -3.33353e-17)
(0.000279948 -0.00013729 2.30177e-17)
(4.17667e-08 -4.90625e-05 4.91752e-19)
(-2.80736e-06 -5.26619e-05 -4.60597e-19)
(-9.68518e-08 -5.1707e-05 -1.798e-18)
(-0.0024093 -0.000188636 3.47996e-17)
(-0.00165099 -0.000315242 2.74504e-17)
(-4.66467e-05 1.00887e-06 -2.64776e-20)
(-4.50237e-05 -4.39516e-06 -8.25765e-19)
(-4.55649e-05 -3.87343e-06 -1.05628e-18)
(-0.000122666 -2.04018e-05 3.39131e-20)
(-0.000126747 -1.52616e-05 1.12262e-18)
(-0.000770342 4.75779e-05 -7.16704e-18)
(-0.000888523 0.000119614 -5.87848e-18)
(-0.000886289 0.000171725 -3.00127e-17)
(-0.000250918 -0.000310679 1.26776e-18)
(-0.000262474 -0.000307154 -1.15159e-17)
(0.0107874 -0.000966559 1.5725e-18)
(0.0104657 -0.00117142 4.44385e-18)
(0.0106463 -0.00128409 -1.13594e-17)
(0.0102352 0.00073602 8.87033e-18)
(0.00969282 0.00118424 -1.81351e-17)
(0.000108632 -0.00146461 -4.51628e-17)
(-0.000134127 -0.00129133 -2.66682e-17)
(-0.000276364 -0.00151401 -2.13605e-17)
(-0.00027468 -0.000117884 3.46168e-18)
(-0.000266256 -0.000124107 6.44358e-19)
(-0.00203679 -0.00072385 2.68292e-18)
(-0.00225072 -0.000558968 4.9016e-18)
(-0.00181136 -0.000734979 3.78216e-18)
(-3.12254e-05 2.0555e-05 -3.42576e-18)
(-3.1655e-05 1.92841e-05 8.07323e-18)
(-3.03045e-05 2.47917e-05 2.58573e-18)
(0.000302271 -0.00252867 4.33724e-18)
(0.000625831 -0.00227713 -1.68453e-17)
(-3.09836e-05 0.000138284 -8.42005e-18)
(-2.76632e-05 0.000127641 7.4232e-18)
(0.000159032 -0.000376583 -4.01579e-19)
(0.000169231 -0.000392943 1.04265e-18)
(-0.00102246 -0.000507209 4.35144e-18)
(-0.00127615 -0.000529047 -1.83694e-17)
(0.000291072 -0.00156883 1.21919e-17)
(0.000334662 -0.00136534 -3.12561e-17)
(-0.00269318 -0.00462551 -2.47731e-17)
(-0.00238061 -0.0043333 4.76242e-17)
(-0.00332955 -0.00412048 1.17873e-17)
(-0.000706807 0.00168837 -1.19287e-17)
(-0.000858837 0.00152369 7.88455e-18)
(-0.000659541 0.00144901 -1.23957e-17)
(-6.74813e-05 5.66837e-05 -5.16583e-20)
(-6.56142e-05 5.63233e-05 -4.68215e-19)
(-6.81635e-05 5.95455e-05 -2.26688e-21)
(0.00292043 -0.0019268 -1.61342e-18)
(0.00284017 -0.00170642 -7.56471e-19)
(0.00263788 -0.00186644 -4.12349e-18)
(-0.00911653 0.000191474 1.2004e-17)
(-0.00886823 0.000298173 -3.13263e-17)
(-0.00903107 -2.45131e-05 -2.51376e-17)
(-0.000155191 -0.00108598 4.22391e-17)
(-2.76906e-05 -0.00114326 1.32909e-17)
(-0.000158833 -0.00124448 6.07532e-18)
(0.00301556 -0.00216776 -3.91471e-18)
(0.00317299 -0.00194957 3.94632e-20)
(-0.000135817 0.000374678 -2.32234e-18)
(-0.000122061 0.000372896 -2.36549e-19)
(-0.000134993 0.000364022 1.33683e-18)
(-0.000170421 0.000392204 -3.44771e-18)
(-0.000158903 0.000381259 6.16079e-18)
(-0.000154101 0.000399805 1.20387e-17)
(-7.07055e-05 9.5025e-05 7.9681e-19)
(-7.03784e-05 9.41632e-05 -2.07517e-18)
(-7.30763e-05 0.000102646 -1.71107e-18)
(-7.11582e-05 1.29909e-05 4.91777e-19)
(-7.22488e-05 6.99176e-06 5.33285e-19)
(-6.96004e-05 5.09673e-06 -1.28355e-18)
(-0.000345744 5.03598e-06 7.83861e-18)
(-0.000307471 1.91954e-05 7.34233e-18)
(-0.00033954 4.44129e-05 -4.07493e-18)
(-6.74128e-05 1.78986e-05 1.03756e-19)
(-7.15519e-05 2.24109e-05 3.93988e-19)
(-0.000197527 -0.00076965 5.27505e-17)
(-0.000413271 -0.000706319 5.04327e-17)
(0.000150244 -0.000360529 -1.35681e-18)
(0.000146989 -0.000373871 3.02396e-18)
(-4.53307e-05 -0.00012669 -9.02165e-19)
(-4.02617e-05 -0.000129552 -8.87659e-19)
(-0.000359741 -4.63689e-05 -2.17333e-18)
(-0.000375615 -4.26443e-05 -9.36065e-19)
(-0.000360137 -2.88605e-05 -1.2663e-18)
(-7.0027e-05 3.36175e-05 -7.4363e-19)
(-7.17844e-05 3.66442e-05 -1.43345e-19)
(0.000364807 -0.00174819 -1.53392e-18)
(0.000584912 -0.00185705 -1.1213e-17)
(0.000320632 -0.00199797 -2.57718e-17)
(-1.36821e-05 -0.000345173 -1.19465e-17)
(-1.96753e-05 -0.000316098 5.64494e-18)
(-4.40303e-05 -0.000338159 1.01786e-17)
(-0.00250272 -0.00467946 -4.67931e-18)
(-0.00208946 -0.00481653 -2.25579e-18)
(-0.00246504 -0.00515208 6.60437e-19)
(0.000172682 -0.000634985 -4.57908e-18)
(0.000151837 -0.000633476 -1.11672e-19)
(-3.20914e-05 -9.17185e-06 3.27593e-19)
(-3.22597e-05 -5.8133e-06 2.73974e-19)
(-3.21823e-05 -1.18873e-05 -3.02496e-20)
(-1.61066e-05 -4.08986e-06 7.57969e-20)
(-1.68654e-05 -6.17625e-06 1.73302e-18)
(0.00382004 0.00182266 6.05697e-17)
(0.00330439 0.00232608 8.45077e-17)
(0.00700199 -0.000195699 1.40569e-18)
(0.00696608 -0.000999731 9.32483e-18)
(-0.0016886 0.000921215 -9.91178e-18)
(-0.00152817 0.00103302 -1.59455e-17)
(-0.00176302 0.00111905 -6.69071e-19)
(-3.81916e-05 -0.000111921 -1.56869e-18)
(-3.93026e-05 -0.000109293 -2.15773e-18)
(-3.56611e-05 -0.000109032 -1.64593e-18)
(-0.000120974 4.32594e-05 1.28757e-20)
(-0.000121123 3.48299e-05 -3.12167e-19)
(-0.000122418 4.11661e-05 -2.95926e-21)
(0.0107339 0.00133454 -3.06126e-18)
(0.0105845 0.00164442 5.3505e-18)
(0.0103869 0.0016794 1.62292e-17)
(0.00270201 0.00986204 -1.89648e-18)
(0.00401577 0.0096523 1.2503e-17)
(0.00319267 0.0112696 -1.05901e-17)
(-6.29756e-05 0.000520259 -1.11047e-17)
(-6.77173e-05 0.000510523 -3.30609e-17)
(-7.0626e-05 0.000524124 1.4914e-17)
(-6.88251e-05 5.49906e-05 3.11425e-19)
(-6.35586e-05 5.3907e-05 1.43357e-19)
(-0.000486868 -0.000407712 -1.70152e-19)
(-0.000454802 -0.000403416 7.84067e-18)
(-0.000480104 -0.000383151 1.27311e-17)
(0.00932293 0.00395599 -1.00636e-17)
(0.00931442 0.00380548 -1.93322e-17)
(0.00887108 0.00451911 -4.89936e-18)
(-0.00066922 -0.00048934 5.81134e-18)
(-0.000730399 -0.00049057 -2.04403e-18)
(-0.000671919 -0.000430234 1.09787e-17)
(-0.000264013 -8.95331e-05 1.54581e-18)
(-0.000274515 -9.47892e-05 -2.00821e-18)
(-0.000232182 -0.000241265 -7.23794e-18)
(-0.00022429 -0.00024118 3.14972e-18)
(-0.000226654 -0.000236181 2.45542e-18)
(-0.000686959 0.00378748 3.02988e-17)
(-0.000100277 0.00336558 -1.77981e-17)
(0.0105974 -0.000133498 2.89567e-19)
(0.0105589 -5.83421e-05 1.47965e-17)
(-0.000291516 -0.000429404 -1.21894e-17)
(-0.000280173 -0.000416993 -7.59077e-18)
(-0.000321844 -0.00429455 3.84532e-17)
(-0.0010372 -0.0039809 8.43169e-18)
(-0.000670316 -0.00374874 -7.2244e-18)
(-7.62599e-05 0.000436397 2.04201e-17)
(-0.000237658 -0.0011163 -3.51815e-17)
(-2.87512e-05 -0.00112967 -3.05096e-17)
(-0.000133037 0.000320144 1.60192e-18)
(-0.000124239 0.000329428 6.75441e-18)
(-0.000114428 0.000324025 -5.20953e-18)
(-0.000636304 -0.000624366 -1.83147e-18)
(-0.000583397 -0.000636452 4.60364e-18)
(-0.000624169 -0.000692952 -1.27083e-18)
(-0.000693694 -8.65629e-06 7.14573e-18)
(-0.000693713 -2.93652e-05 -4.61586e-18)
(-0.000111225 0.000196012 1.42462e-19)
(-0.000106578 0.000195501 -2.81245e-19)
(-0.000109169 0.000190913 -5.94681e-18)
(-3.10698e-05 2.13012e-05 -5.25749e-18)
(-3.25662e-05 1.73067e-05 -6.30917e-18)
(-0.000184283 0.00056937 1.02281e-17)
(-0.000162519 0.000571968 9.54217e-18)
(-0.000181295 0.000587132 -2.98295e-18)
(-0.006362 -0.00508753 2.24231e-17)
(-0.00603912 -0.00448089 4.35634e-18)
(-0.00636376 -0.00531508 1.4156e-17)
(-0.000194458 3.27757e-05 -4.64221e-19)
(-0.000201386 3.29599e-05 3.3488e-19)
(-0.000195129 4.53515e-05 -3.74123e-19)
(2.54045e-06 -4.53626e-05 2.35709e-19)
(8.51761e-07 -4.70239e-05 -1.92596e-19)
(0.000560038 -0.00167496 7.05458e-18)
(-0.00079952 -0.00179569 -4.35514e-18)
(-0.000709996 -0.00200816 1.95124e-18)
(-0.000167934 -0.00164768 5.62891e-18)
(-0.000501825 -0.00041959 -3.32674e-18)
(-0.000477466 -0.000423675 -1.08341e-17)
(0.00291082 -0.00233295 -6.67395e-18)
(0.00317969 -0.00236802 -1.27055e-18)
(0.000156064 -0.00166824 -1.41292e-17)
(0.000354465 -0.00155817 -2.65455e-17)
(-1.23492e-05 -0.000379494 1.66705e-18)
(1.92656e-05 -0.000355452 -2.12942e-17)
(0.00742514 0.00423036 8.8206e-18)
(0.00754715 0.00295439 -8.56255e-19)
(0.00648579 0.00347333 1.45912e-17)
(-4.86422e-05 0.000156124 -1.81172e-18)
(-5.6308e-05 0.000154448 5.5261e-18)
(-5.63095e-05 0.000168705 1.83759e-18)
(-2.38785e-05 3.33935e-05 -1.93718e-19)
(-2.53614e-05 3.57271e-05 -1.71919e-18)
(-2.30392e-05 3.01196e-05 -2.9974e-18)
(-1.88389e-05 7.2351e-05 -5.54956e-19)
(-1.9031e-05 7.51033e-05 -4.17129e-19)
(-1.61968e-05 7.44434e-05 -2.00926e-18)
(0.00198222 -0.00165905 -1.88908e-17)
(0.00184757 -0.00180773 9.01117e-18)
(-0.000536958 -0.000553846 -7.73056e-19)
(-0.000544644 -0.000603944 4.34999e-19)
(-0.00050489 -0.000583636 2.0875e-18)
(4.88478e-05 -0.000270702 6.93583e-18)
(5.30428e-05 -0.000280421 9.54703e-18)
(4.19675e-05 -0.000274983 -4.78719e-18)
(1.32928e-06 -3.35873e-06 4.60132e-20)
(1.39896e-06 -3.04676e-06 -1.56079e-18)
(1.65283e-06 -2.26923e-06 -9.80526e-19)
(-0.00329081 -0.000977705 -5.09464e-18)
(-0.0033881 -0.00097253 3.61338e-18)
(-0.00426011 -0.000811117 -3.93388e-18)
(-0.000378545 -8.62049e-07 1.65799e-17)
(-0.000353711 -2.36428e-05 -2.77125e-18)
(0.00225467 -0.00295352 -8.18487e-18)
(0.00247435 -0.00318255 -2.78323e-18)
(0.00940148 -0.00133913 6.26614e-18)
(0.0093817 -0.00102622 -1.44557e-17)
(-0.000682509 -0.00482002 5.65292e-18)
(-0.000227144 -0.00431013 -7.72613e-20)
(-0.00119565 -0.0046661 -1.42052e-18)
(6.07483e-05 -0.00488582 -6.52497e-19)
(-0.00106586 -0.00538715 6.87027e-18)
(-0.00538499 -0.00121106 1.30992e-17)
(-0.00560943 -0.00166503 2.48675e-17)
(-0.000349264 -5.54967e-05 -1.61142e-19)
(-0.000346897 -3.96164e-05 -1.12088e-18)
(-0.00331054 0.00549972 2.41561e-18)
(-0.00305635 0.00362102 -5.39384e-18)
(-0.0050287 0.00454304 -1.46178e-17)
(-2.06738e-05 8.67841e-05 3.30655e-19)
(-1.861e-05 8.96748e-05 1.32376e-19)
(-1.85608e-05 8.67195e-05 -1.70123e-18)
(-3.07288e-05 -1.40642e-05 -1.14452e-18)
(-3.07048e-05 -7.38739e-06 6.10707e-19)
(-0.000121635 0.00019665 3.31683e-18)
(-8.043e-05 0.000152319 2.88153e-18)
(-0.000133084 0.000134806 8.28192e-18)
(-5.05633e-06 3.67978e-06 -9.40326e-20)
(-4.10245e-06 4.93964e-06 -4.44197e-19)
(-2.90386e-06 3.03175e-06 2.0512e-20)
(-0.00317725 -0.0049663 -2.70211e-17)
(-0.00203892 -0.00518411 -1.48479e-17)
(-0.00918277 -0.0147419 1.90027e-18)
(-0.00736542 -0.0133504 -1.95065e-17)
(-0.00738953 -0.0145346 -7.61592e-18)
(0.00289226 -0.004359 1.10963e-18)
(0.00276181 -0.00475076 -2.97851e-18)
(0.00321664 -0.00457602 -1.99216e-18)
(-3.01092e-05 -1.83386e-05 -1.03777e-19)
(-3.06223e-05 -2.00072e-05 -7.6146e-19)
(0.000104329 -0.000706172 -1.56841e-18)
(7.96414e-05 -0.000703081 -1.37474e-18)
(9.2981e-05 -0.000682748 -1.0626e-17)
(0.00304374 -0.00395739 -3.88052e-18)
(0.00259696 -0.00408205 1.97817e-18)
(0.00128221 0.0102678 -1.02959e-17)
(0.00174467 0.00874224 1.02534e-17)
(-0.000671886 0.00209823 -1.97245e-17)
(-0.000342154 -6.77474e-05 -5.18961e-19)
(-0.000327808 -6.68052e-05 8.82729e-19)
(-0.000334396 -7.98524e-05 4.79493e-19)
(-0.000650175 -0.00056546 -1.07726e-17)
(-0.000606856 -0.000498027 -2.29682e-18)
(0.000213762 -0.000228537 -8.20781e-17)
(0.000206675 -0.000237362 4.37687e-17)
(-0.00123204 -0.0018785 -4.55414e-18)
(-0.000687021 -0.00172488 -6.99086e-19)
(-0.00447996 -0.00316324 9.70746e-18)
(-0.00504938 -0.00339662 -6.47218e-18)
(-0.000119676 0.000286963 -1.06778e-17)
(-0.000110426 0.00029323 -5.31377e-18)
(-0.000122918 0.000286084 -2.35335e-18)
(-5.77279e-05 0.000145796 -2.06844e-18)
(-5.07988e-05 0.00014444 -3.2934e-18)
(-5.32371e-05 0.000134028 -1.86744e-18)
(-5.42066e-05 -2.19997e-05 8.41638e-19)
(-5.59386e-05 -2.06085e-05 -1.4935e-19)
(-5.45362e-05 -3.04657e-05 1.26696e-18)
(-0.0054088 -0.00520506 -2.24247e-17)
(-0.00609824 -0.00605602 -9.15678e-18)
(-0.000553757 -0.000509186 6.96862e-18)
(-0.000504619 -0.000508511 -3.76441e-18)
(0.0101632 -0.000877941 4.58414e-18)
(0.0102729 -0.000843323 4.90952e-18)
(-0.000166322 -0.000203494 -4.36169e-18)
(-0.00017249 -0.000204887 6.73128e-18)
(-0.000187397 3.6513e-05 -7.29796e-19)
(-0.000192139 2.24879e-05 -1.77376e-19)
(0.00276373 -0.00155111 5.29539e-18)
(0.00249781 -0.00139425 -7.46433e-19)
(0.00241988 -0.00166758 -5.07976e-18)
(-0.00417915 -0.00331467 5.16142e-18)
(-0.00405436 -0.00285227 -6.49548e-18)
(-3.89986e-06 -0.000115985 6.25123e-19)
(-7.09543e-06 -0.000119972 -1.72946e-18)
(-9.02893e-06 -0.000117411 -4.93045e-18)
(-8.51608e-05 -0.000158896 -4.67637e-18)
(-8.26184e-05 -0.000154935 -2.82245e-18)
(-7.8406e-05 -0.000158142 -1.83461e-18)
(-8.81671e-05 0.000460981 4.67434e-18)
(-0.000104033 0.00045731 -5.71848e-18)
(-0.000101115 0.000471435 -2.90461e-18)
(-0.000648844 -2.4549e-05 9.18453e-18)
(-0.000605938 -7.2278e-06 -8.4948e-18)
(-0.000585436 -6.35701e-05 2.01455e-17)
(-0.0102564 -0.00193597 -1.71239e-17)
(-0.00983417 -0.00256858 -2.56654e-17)
(-0.0101109 -0.00202436 -1.96428e-17)
(-0.00451909 0.00821628 5.73321e-18)
(-0.00543382 0.00782318 -2.48221e-19)
(-0.00514328 0.00896505 -1.86356e-18)
(-0.000337338 -0.000510305 -1.02951e-18)
(-0.000354321 -0.000540878 -1.13879e-18)
(-0.00114901 0.00175298 -1.18102e-17)
(-0.000125354 -0.0014418 -4.69076e-18)
(0.00189495 4.25809e-05 -1.97675e-17)
(-0.0103167 -0.00179022 2.23576e-17)
(-0.0105979 -0.00142689 -1.46333e-17)
(-4.8107e-05 0.00027446 -1.76369e-18)
(-4.74335e-05 0.000268309 1.30776e-18)
(-4.19731e-05 0.0002719 2.87184e-18)
(-0.000392553 -0.000986183 -5.12184e-18)
(-0.000433068 -0.000904207 7.6833e-18)
(-0.000346416 -0.000940231 -2.44081e-18)
(0.00423594 -0.00406827 -7.91681e-18)
(0.00423252 -0.00450037 -1.33979e-17)
(0.0048782 -0.00397591 -1.37912e-17)
(-0.000173974 -0.000205712 4.41753e-19)
(-0.000178509 -0.000206454 -1.86833e-18)
(-0.000175179 -0.000204073 -7.39118e-18)
(0.00209011 -0.00113396 -1.17829e-18)
(0.00203083 -0.0011191 1.49942e-18)
(0.00205631 -0.00107397 -1.89424e-18)
(-0.000118017 4.99149e-05 -1.16864e-19)
(-0.000117379 4.18906e-05 -6.38865e-21)
(-0.000740531 3.79671e-05 -1.19244e-17)
(1.30729e-06 -9.04638e-06 1.2393e-18)
(1.67153e-06 -3.80671e-06 4.6896e-20)
(1.57096e-06 -4.06941e-06 8.60518e-19)
(-0.000247796 -0.000299029 1.11297e-18)
(-0.000225813 -0.000301984 -1.34714e-17)
(-0.00024639 -0.000321692 -8.85211e-18)
(-0.000232501 -4.68187e-05 -8.62307e-19)
(-0.000235937 -5.71283e-05 5.55443e-19)
(-0.000238624 -5.00946e-05 -1.31844e-18)
(-4.17986e-05 7.64731e-05 -4.73409e-19)
(-4.30662e-05 7.41569e-05 3.82161e-18)
(-0.0100675 0.00308636 1.51625e-17)
(-0.010906 0.00270459 9.36933e-19)
(-0.010642 0.00391473 4.40352e-18)
(-5.09648e-05 -0.000144948 3.52663e-18)
(-4.76445e-05 -0.000140813 -1.12355e-18)
(-4.5172e-05 -0.000141122 -3.03582e-18)
(4.39855e-05 0.000487387 -5.9349e-18)
(3.17539e-05 0.000480054 -2.35224e-17)
(-2.88509e-05 -1.63926e-05 1.00931e-18)
(-2.83504e-05 -2.30265e-05 1.99865e-18)
(-0.00551639 0.000961833 -1.32772e-17)
(-0.00531011 0.00156268 9.05445e-18)
(-0.00489972 0.00096571 -1.61663e-17)
(0.0112307 -0.00105153 6.02263e-18)
(0.0116859 -0.000680732 6.9527e-18)
(-0.00190573 -0.00435292 2.3498e-17)
(-0.00141477 -0.00416902 -3.14123e-17)
(-0.00111403 -0.00479598 -1.58158e-17)
(-0.00013059 0.000279191 1.56801e-17)
(-0.00013005 0.000275263 -4.16648e-18)
(-0.000137801 0.000274092 -2.3554e-18)
(-0.000334477 -0.00097937 -2.08682e-17)
(-0.000365586 -0.0010349 -1.13772e-17)
(9.72112e-07 -1.34024e-05 -2.82745e-18)
(5.78483e-07 -1.31732e-05 -2.9137e-19)
(6.54113e-07 -1.36441e-05 -2.29567e-19)
(-0.000190116 0.000548127 1.44592e-17)
(-0.000166855 0.000548787 -3.75782e-18)
(-4.02241e-05 4.75052e-06 1.60068e-18)
(-3.89038e-05 1.14096e-05 5.47108e-20)
(-3.93278e-05 3.13923e-06 -7.56658e-19)
(-0.000251633 -0.000303856 -1.78917e-18)
(0.00429085 0.00747146 -1.78341e-17)
(0.00357086 0.00614815 -2.31163e-17)
(0.00246486 0.00720222 5.85117e-17)
(-0.000121385 0.000279329 3.7571e-18)
(-0.000113813 0.000284146 -5.43327e-18)
(-0.000168371 -0.000202905 -1.69111e-19)
(-0.000170408 -0.000204821 8.93574e-19)
(-3.24482e-06 0.000155403 2.27992e-18)
(-2.77982e-06 0.000158412 2.24263e-18)
(-0.00396746 0.00734129 1.99415e-17)
(-0.00373165 0.00843669 7.95239e-18)
(-3.35458e-05 -7.35626e-05 5.88403e-19)
(-3.13632e-05 -7.14425e-05 1.24772e-18)
(0.00607103 -0.00290317 1.14459e-17)
(0.00483862 -0.00138409 -3.48578e-17)
(-0.00615857 0.00743259 2.20384e-17)
(-0.00692268 0.00699472 6.07269e-18)
(-0.00682263 0.00797746 1.03615e-17)
(-0.000277565 -0.0010128 -1.11272e-17)
(-0.00015547 -0.000951677 -3.26359e-18)
(1.44651e-06 -3.80908e-06 6.45276e-19)
(8.75015e-07 -3.85417e-06 1.9538e-18)
(-0.00678466 -0.00359839 -1.19669e-17)
(-0.00665639 -0.00452061 -5.52081e-17)
(-0.00725388 -0.00382972 -3.94897e-18)
(0.0105828 0.000616349 2.70445e-18)
(0.0108012 0.000682939 -9.24436e-18)
(0.0104624 0.00087527 1.51054e-17)
(-0.00831974 -0.00126638 3.65354e-18)
(-0.00714346 -0.00110295 2.71769e-18)
(0.00210679 -0.00121943 -2.25158e-18)
(-0.000270301 -0.000208265 6.87728e-19)
(-0.000260502 -0.000201433 1.32733e-17)
(-0.000260696 -0.0002145 6.1307e-18)
(-0.000146751 0.000610848 7.76809e-18)
(-0.000144579 0.000592701 1.44605e-17)
(-0.000123027 0.000601166 8.39059e-18)
(-0.00953104 0.00234127 -1.43763e-18)
(-0.009218 0.00326181 2.30589e-18)
(0.000117853 -0.000729429 9.96388e-19)
(0.000128293 -0.000710661 -8.04762e-19)
(-0.00104654 0.00153843 9.63826e-18)
(-0.000969963 0.0013609 1.5817e-17)
(-0.00040178 -0.00010499 2.06869e-18)
(-0.000393056 -8.85182e-05 -1.70746e-18)
(-0.000383548 -0.000105446 6.66438e-19)
(0.00062539 -0.00092634 -2.74491e-18)
(0.000833713 -0.00078331 -3.12071e-18)
(0.000555317 -0.000711868 4.9326e-18)
(0.000476404 0.0038672 6.97128e-19)
(-7.0669e-05 0.00408866 -1.99542e-17)
(0.000131637 0.00343311 -5.68421e-18)
(-2.18803e-05 1.10386e-06 -2.06123e-19)
(-2.11046e-05 1.53387e-06 8.15256e-19)
(-1.89604e-05 1.67427e-06 -8.76675e-19)
(-0.00014448 -0.000237775 1.27729e-17)
(-0.00013263 -0.000237352 8.44192e-18)
(-0.000137964 -0.000230417 4.67128e-18)
(0.0029123 -0.001565 4.10602e-18)
(-0.00308642 -0.00110686 1.974e-18)
(-0.00264065 -0.00121414 2.25137e-18)
(-0.00490772 -0.0010649 -2.52312e-18)
(-0.00441119 -0.00130802 3.86156e-18)
(-0.00510491 -0.00112818 1.13144e-18)
(-5.35217e-05 -1.48148e-05 1.76326e-19)
(-5.13474e-05 -2.47768e-05 3.6713e-19)
(-5.53579e-05 0.000527341 4.19419e-18)
(-3.29667e-05 1.82329e-05 4.96145e-19)
(-3.4085e-05 1.71024e-05 -5.74952e-18)
(-3.23202e-05 2.23906e-05 -4.07393e-18)
(-0.00725269 -0.00593882 4.27843e-18)
(-0.00782302 -0.0053044 1.64784e-17)
(-0.00692017 -0.0051148 1.12588e-17)
(0.00498335 0.00843029 -4.02829e-18)
(0.00589639 0.00732301 -1.15583e-17)
(0.00438476 0.00736857 -2.80298e-18)
(-0.000150307 -0.000237288 4.46985e-18)
(-0.000146477 -0.000240986 1.42562e-18)
(-0.000426936 -1.20261e-05 3.8404e-18)
(-0.000427129 3.84347e-05 1.93623e-17)
(0.00101402 0.0037151 1.7576e-17)
(0.000897868 0.00441789 2.58288e-17)
(-6.25117e-05 4.22287e-05 -3.97535e-18)
(-6.44607e-05 4.61525e-05 -9.59286e-19)
(-6.03049e-05 3.74278e-05 1.29091e-18)
(-0.000146945 0.000373777 -6.51019e-18)
(-0.000135273 0.000380516 -1.47248e-17)
(0.00146822 -0.00308868 8.65446e-18)
(0.00178277 -0.00315597 -5.55183e-18)
(0.00161211 -0.00287509 8.77194e-18)
(0.0090612 0.0223473 -8.5084e-19)
(0.00976203 0.0242606 3.68186e-19)
(0.00140899 0.0236991 1.85236e-17)
(-2.46923e-05 0.000111729 1.76503e-18)
(-2.35501e-05 0.000116834 2.94108e-18)
(-2.24756e-05 0.000120712 1.77567e-18)
(-3.95009e-05 6.63765e-05 4.98021e-19)
(-3.77973e-05 7.8389e-05 -2.55501e-18)
(-0.000128079 0.000289047 1.21056e-17)
(0.00508808 -0.00570728 -5.4488e-19)
(0.00446478 -0.00588811 1.58262e-18)
(0.00457629 -0.00626045 6.16058e-18)
(0.00502042 0.000800748 -5.85035e-18)
(0.00520912 0.000469299 3.20589e-17)
(0.00533727 0.000551734 6.30992e-17)
(-0.000645129 -0.000270879 -2.33536e-18)
(-0.000600607 -0.000274444 4.78083e-18)
(-0.000627117 -0.000224566 -6.05213e-19)
(-3.68851e-05 -0.000113817 3.0329e-18)
(-4.0827e-05 -0.000115146 2.08161e-18)
(0.00017795 0.010579 -6.34184e-18)
(0.000428763 0.0117138 -2.12926e-17)
(0.00707637 0.00530035 4.76725e-18)
(0.00657506 0.00642595 6.7201e-18)
(0.00576759 0.00547321 3.14918e-18)
(-0.00307408 -0.00358023 6.62103e-18)
(-0.00266305 -0.0037967 -4.57897e-18)
(-0.00267222 -0.00335771 -1.65732e-18)
(-0.000463298 -3.02898e-05 -2.22868e-17)
(-0.000427458 -4.65834e-05 -2.06833e-17)
(0.00586745 -0.00535942 -5.89634e-18)
(0.00555968 -0.00493714 2.57908e-18)
(-0.00510657 0.00126132 2.3509e-17)
(-0.00447822 0.00133351 -1.97415e-17)
(-0.00502012 0.000632459 -9.12684e-18)
(-0.000171116 -0.000219507 -5.86729e-19)
(-0.000165702 -0.000213903 6.08044e-18)
(-0.000177306 -0.000212922 -9.4348e-20)
(-0.000277125 -0.000454522 -7.13657e-18)
(-0.000301786 -0.000468575 1.21933e-17)
(-0.000266326 -0.00048304 -1.60029e-18)
(-0.00833975 -0.00148668 -7.8253e-18)
(-0.0075393 -0.000700577 -1.34422e-18)
(-0.0088941 -0.00204719 -3.96291e-17)
(-6.80531e-05 -2.03825e-05 -4.15238e-20)
(-6.9947e-05 -2.53795e-05 4.48145e-20)
(-6.94294e-05 -1.16188e-05 -1.47879e-19)
(-1.84142e-05 6.98773e-05 1.45674e-18)
(-1.8181e-05 6.7329e-05 1.57346e-19)
(-1.58748e-05 6.94653e-05 1.03293e-18)
(-0.00340292 -0.00340103 -1.06139e-17)
(-0.00338948 -0.00388005 -1.72725e-18)
(-0.000347546 -0.000383558 -3.91172e-18)
(-0.000380273 -0.00036562 -4.60688e-18)
(-0.000378357 -0.000407658 1.43964e-18)
(-3.24505e-05 -7.84052e-05 3.36887e-19)
(-3.15948e-05 -8.29661e-05 -3.64365e-19)
(-2.90713e-05 -8.05304e-05 -2.60018e-19)
(1.66948e-06 -1.53366e-06 7.07661e-19)
(1.76019e-06 -3.60005e-06 4.0379e-19)
(1.29666e-06 -7.93836e-06 9.62724e-19)
(-4.12521e-05 1.28206e-06 4.62937e-19)
(-3.9903e-05 7.63119e-06 1.49538e-19)
(-2.11835e-05 5.40762e-08 -6.50045e-21)
(-2.09579e-05 -5.22572e-07 9.87016e-20)
(-2.04499e-05 1.02167e-07 -6.41214e-21)