/*--------------------------------*- C++ -*----------------------------------*\
| =========                 |                                                 |
| \\      /  F ield         | OpenFOAM: The Open Source CFD Toolbox           |
|  \\    /   O peration     | Version:  v2012                                 |
|   \\  /    A nd           | Website:  www.openfoam.com                      |
|    \\/     M anipulation  |                                                 |
\*---------------------------------------------------------------------------*/
FoamFile
{
    version     2.0;
    format      ascii;
    class       volScalarField;
    location    "300";
    object      omega_0;
}
// * * * * * * * * * * * * * * * * * * * * * * * * * * * * * * * * * * * * * //

dimensions      [0 0 -1 0 0 0 0];


internalField   nonuniform List<scalar> 
13851
(
0.140098
0.024525
0.0243967
4.69705
0.0220829
0.0266022
0.024411
0.0218561
3.65312
0.0220437
0.0708036
0.0220824
0.0221221
5.42001
0.0384479
0.146054
7.64699
0.021976
0.375565
0.140292
0.0436271
0.0265162
23.0014
0.0222638
7.98185
0.0698541
0.763702
5.25365
3.55644
0.0217814
4.37744
0.0244168
0.137752
4.4216
0.0468225
3.55467
0.022274
10.6518
4.4279
0.0221176
4.29653
3.66802
18.9961
0.71347
3.82721
0.0219068
0.0215901
0.139196
0.0236318
0.0221145
7.71445
0.0221741
0.145715
0.0317883
5.27041
0.0221157
0.139858
4.17181
1.05897
6.07771
0.0220899
0.259224
0.0220978
0.0237798
0.238362
0.255607
8.25929
0.0687269
0.0221701
4.4039
4.12258
0.0525583
0.0220343
7.37352
0.0336368
0.0238964
6.19443
0.0216816
7.65673
0.0219584
0.0221879
0.451411
0.0460267
5.1977
5.82437
4.24639
0.026735
6.82495
0.0220331
4.39849
0.0222113
0.0245197
24.2498
4.17029
4.09862
0.41461
0.0219352
0.149623
7.334
0.207941
0.154653
0.043687
0.0473393
0.0220838
0.0218944
0.0508384
0.0218959
4.14619
0.024517
0.0219476
0.0316527
0.0219055
0.189027
0.0680482
0.135098
0.0308548
0.0217859
0.0218119
4.88318
4.56337
0.256952
0.0218384
0.0221551
3.83586
0.287154
0.127553
0.0219338
0.0605811
4.03853
0.0490917
0.0264454
0.032787
8.23624
4.32902
0.072383
4.09935
0.0654064
4.18991
0.0361134
0.0486288
0.411943
0.0226749
0.0220327
0.110776
7.12504
0.0236263
0.0216743
4.18701
3.54395
0.0632481
0.153865
0.180939
0.0732085
0.289976
0.0222859
0.0220544
0.0221041
4.26574
0.0448516
0.0237427
0.022243
3.55572
0.0499282
0.139459
5.26313
3.83199
3.89761
6.31159
0.0311913
6.14986
0.022105
0.0217891
0.0627467
0.0221393
4.19454
0.61374
0.166416
0.0217756
0.033595
0.162852
0.276827
0.664848
0.0303247
0.0486505
20.79
3.52091
0.137548
0.029665
0.022218
0.0218377
6.88553
0.0447977
7.45359
0.0266879
0.0234736
0.147637
0.133471
0.0221895
0.0222505
0.0735282
0.418037
4.12978
4.19525
0.038521
3.02925
4.03831
0.0237245
0.0478696
3.68626
0.0259352
0.145214
0.0221376
0.442215
0.022235
0.0478915
0.0247087
0.0220929
0.239564
0.022259
3.82192
0.0217736
0.140962
6.53266
4.13302
0.0293117
0.048479
0.022264
0.0960465
0.0220162
0.0470842
6.5582
0.0292115
0.0259213
0.0221182
4.10715
0.021776
18.8826
4.15905
0.179673
0.0222513
1.58482
5.50123
3.90787
0.144033
0.0345074
0.152128
0.216168
0.0337122
0.385331
0.0336661
6.17433
0.149797
0.0218551
0.0264807
0.151124
3.50237
4.68871
0.0218337
0.13315
0.0220302
0.19926
0.285225
0.0269028
0.0505338
0.153872
0.0219922
0.0445733
0.1176
4.29709
0.0220848
0.0220897
0.0294082
4.0539
6.58061
0.0487279
0.0218584
0.276308
0.286864
0.120946
0.0498728
3.95432
7.6692
0.027402
0.0348988
11.1302
0.0218852
0.0221033
0.124207
0.0613456
0.0217737
0.0222322
0.0220079
0.0220015
0.0342599
0.0220969
3.69879
0.0458278
0.0220049
3.4888
3.89824
0.0222008
0.142381
7.86402
0.0228075
0.0222247
0.0479293
5.76846
6.51298
0.0687992
0.0220731
6.11223
0.0220974
0.0751999
6.1999
4.22267
0.0236291
10.9203
3.00807
4.17104
0.178597
0.0453965
4.26393
3.80183
5.02981
0.0223279
5.38278
22.2272
0.864241
0.760534
0.0237417
0.0684547
0.0300461
6.10624
0.0513182
0.0218766
0.0215295
0.028198
4.11198
3.22572
0.0218763
4.06599
0.0302988
0.0331002
0.0238978
7.20756
0.272919
0.148371
0.0244281
0.0253593
3.50224
0.0222285
0.301359
0.0272828
0.0478601
0.0307695
0.0220292
0.0220026
0.178979
0.230098
0.14916
5.91171
3.55798
0.0237095
4.07631
0.255001
0.0217289
4.33231
0.0954558
6.07861
0.0275707
0.0741529
0.324281
8.71365
0.17055
5.32638
0.0227578
0.756639
15.1053
0.0314035
4.86802
0.0343633
4.31417
0.0343921
0.0418074
0.150962
0.314788
0.0220548
0.0269126
0.0662635
0.033795
0.0219285
0.0491104
5.16855
0.0220318
0.0480803
5.6503
0.0243658
5.93203
0.0463538
6.95228
0.0265158
0.0657076
2.36966
0.293557
0.0501013
5.61087
7.30989
1.33485
0.0219963
0.173574
0.0345991
0.0732003
0.0218528
20.0931
5.29869
8.44076
0.0253018
0.15384
0.304862
6.24872
0.0216095
7.01666
0.361531
23.1905
0.0347657
5.99157
0.0220419
0.022127
6.37599
0.37324
0.0220416
0.0245726
0.0489576
0.0218227
5.40646
0.068643
0.0936293
0.0261729
0.022774
0.0221909
8.14425
0.0220024
0.0221692
4.08324
5.23155
0.0259853
0.20877
0.0221044
0.0220956
0.0247444
0.151779
0.0458681
0.0219389
0.0230285
0.24116
0.0235479
7.60943
0.0220773
0.0280158
3.88488
0.0361223
0.0215868
0.0221224
0.0260998
0.0223397
1.29188
4.15491
0.0348288
7.52051
0.0247912
0.0220588
3.95126
0.366865
0.0356178
0.0220542
3.78589
0.034768
8.25469
0.022085
0.0330818
0.176287
0.0357703
3.85335
0.425571
8.34256
0.0239259
0.185349
0.0219902
3.50477
0.04628
0.133273
0.0343739
0.0241862
0.0360241
0.0631567
0.0220946
6.60717
3.87558
8.01559
5.79764
4.1617
4.72779
0.297581
0.0282992
0.0222078
10.2484
0.0220466
0.0219268
0.0304213
4.26207
0.0242956
0.0226705
0.0948826
0.0504035
0.0220485
7.38004
0.0219387
4.13166
1.1807
0.0219551
0.0236265
0.373373
4.53405
0.0217802
10.2952
15.2136
0.0217094
4.21565
0.361095
0.140951
0.0238959
4.07605
6.14867
0.0217267
0.385261
0.0221599
0.0219396
3.752
4.37094
0.0409704
0.0449997
0.0220472
0.0591388
4.12724
4.21513
0.0218304
6.08825
0.021935
0.0221778
0.0506312
0.0279896
0.0216032
0.0239137
4.2724
0.293001
4.14988
0.0239285
0.0220266
4.09221
0.02218
0.174848
0.0280063
0.0337385
0.0344002
4.11081
6.21947
0.0264917
7.08804
0.0233979
0.0688471
3.72338
4.2482
0.0221504
0.0219954
0.0477198
4.16807
0.224856
0.0581567
13.8873
0.0281362
0.0333534
8.50798
7.43036
0.174591
4.04594
0.192248
3.66297
0.0225415
1.13501
5.32673
0.0220799
18.6041
6.28686
0.0311801
0.0486244
0.0220929
6.77629
0.0828073
16.1778
0.0220024
0.0221659
0.0266383
0.0497145
0.0220869
4.15812
0.0221602
0.183129
0.0239869
0.0747058
0.0220787
0.0220482
0.0482254
6.47462
0.0500971
4.06001
0.0330747
0.0218324
0.0217877
0.0632735
0.0230242
0.109663
0.0247762
0.0349636
0.958504
0.0221817
5.55415
0.0222538
0.099756
6.09808
3.93426
0.0289529
16.8199
0.0915145
0.313218
6.12541
0.0218976
7.22162
0.0302914
0.0325455
5.54596
4.66294
0.0217407
0.106535
0.0221654
3.55269
6.89279
0.0222688
0.0739052
5.5689
0.0222635
0.0222524
0.0706286
6.82967
3.94568
0.0222317
0.151753
0.0233246
0.022047
0.990941
0.153929
0.192629
0.0215905
0.118098
0.0473689
0.0612529
0.022682
0.0233082
0.0775841
0.0264891
0.128312
0.052444
0.0525171
0.142011
3.46975
0.371526
4.7717
10.1703
0.146177
4.18266
0.040849
3.83291
0.144543
0.0219336
0.03264
0.315354
0.0274065
0.0219605
0.0219568
0.100109
6.03478
0.0282021
4.05323
0.0218363
4.0399
0.15999
8.42071
0.106259
0.0266716
0.0243888
6.95782
0.191363
0.0392275
0.393288
0.0226165
8.08664
0.100687
0.187159
0.033871
0.643685
0.0220395
0.0222455
0.0234363
0.0220459
3.70781
0.0220012
0.734708
3.98692
0.109032
4.26247
6.52497
0.193049
0.340254
0.0286741
0.0221801
0.0220732
0.0216902
0.0217879
0.0221414
0.0692939
0.181641
0.0510849
4.79467
0.0232265
3.6502
0.0222935
4.60118
0.043171
0.0222835
0.0221335
3.92425
0.0267921
4.24836
6.28938
0.0465547
0.0701404
0.021692
4.31306
0.024533
0.0243323
1.00093
0.0221836
0.022682
0.0218825
0.0463821
5.65241
0.0302003
0.0342056
0.400487
4.11332
0.0292482
0.0271304
3.72948
0.0216874
3.66742
0.0222022
0.0235611
7.37505
0.0832143
0.133666
0.100693
0.0504146
0.0222274
0.0222936
0.0745306
0.0225977
0.0222348
0.0287519
0.379903
0.0219853
0.286873
4.32656
4.03773
0.0991839
4.94636
0.0369951
0.0221757
0.167143
0.0218493
0.0269582
4.76262
3.54826
7.24725
3.85527
0.0223456
0.0222354
0.0722928
0.023137
0.0218563
23.4578
0.204122
4.67668
0.101071
0.0847868
0.0220478
0.0217873
7.74236
0.0942915
0.0238995
0.022253
0.133359
0.216382
4.11765
0.0222706
0.0221522
6.87538
0.0226574
0.0343963
0.021827
4.31587
0.0219296
5.50188
0.0220761
0.159824
0.0408844
0.0725695
0.0341157
0.0220337
0.0245932
0.0220231
0.549466
0.0226759
3.84942
0.022693
4.78902
3.99491
0.0321546
0.0220045
4.97772
4.22533
0.0270138
0.0828545
0.0220732
6.49278
0.0219557
0.315984
0.022067
0.0220199
4.16073
0.0345935
0.0221125
0.0321798
4.05978
5.46792
5.53914
0.0218365
3.95567
0.0220777
0.0219925
0.022285
0.0214948
0.0222336
5.70983
4.87092
0.022269
0.0221563
0.0413008
0.0219059
4.70594
0.172032
4.78448
4.3329
0.0245523
0.128419
0.0220728
0.0436656
0.126365
0.0218802
0.0222105
2.08223
6.7972
0.0686967
16.7282
0.0635934
0.0221021
0.0435083
0.0842671
7.62057
0.0329187
3.43119
0.0966902
0.022224
13.6964
12.1663
4.39041
6.65702
3.68376
0.0238753
0.147256
0.0221707
2.69633
0.0268518
0.0218785
5.54096
0.0231103
0.0220055
0.0221499
0.0229557
4.19534
0.304485
0.0218779
0.0441428
5.58218
0.023288
16.22
0.0232831
0.0800298
4.31534
0.0220999
0.212188
0.0303441
0.033709
6.08756
0.0230961
0.430817
0.0649449
4.22912
0.0222448
4.40949
0.0311072
4.16075
7.91758
5.66624
0.0465036
0.0220475
0.0223528
0.0222635
0.039781
0.0221246
3.90725
0.0294489
0.0281034
0.0289965
0.0238111
0.0218339
0.0269973
0.027971
0.02363
0.0275441
5.68105
0.439385
0.0302647
0.0524494
5.64886
0.0227224
4.13046
0.0216985
0.0336554
0.0226827
0.0219649
0.0465044
0.0220534
0.0218726
0.0452841
0.0220612
0.3525
0.0228457
19.5141
2.23779
0.226762
0.319553
0.0221071
4.14921
0.164841
0.0222264
0.027856
0.0225818
4.23035
0.0232556
0.0448457
4.53937
6.40323
0.0882727
0.0221797
4.05166
3.70588
3.77173
0.0302401
0.0218232
0.021813
0.0689603
0.0220437
7.44113
0.179893
0.0221985
0.249964
0.366389
0.0218669
5.87107
6.12491
0.197715
0.0228069
4.04964
0.068904
0.0220231
6.0283
0.0269788
0.0218516
0.0219492
0.0322945
0.0401952
3.79274
4.70538
0.0418966
3.88851
0.0341575
0.0220236
0.0863069
0.0219625
4.51906
0.021849
0.0220472
0.024162
0.0225558
3.99127
5.52994
0.239629
6.4087
6.88669
0.0292621
0.0220392
0.0228507
0.447681
0.0218302
0.0219125
0.0453205
7.71172
0.223422
0.0216493
0.0403246
0.0343888
0.143276
16.24
0.0217054
0.0215912
0.0235592
8.26164
0.0287233
4.11862
0.0232892
0.0221634
0.0218546
0.021944
0.0246803
0.192291
3.7177
3.83434
0.0290192
0.0220591
5.84257
0.022341
6.23072
4.82789
0.0308073
5.31247
3.6512
4.52571
0.0549474
0.0326609
3.74629
0.031305
0.0341333
0.0747512
0.321504
0.0225554
5.39623
0.0220255
4.6614
8.33505
0.0217027
0.0240007
0.0474111
0.433704
0.0343723
0.0221431
0.0282241
0.0232429
0.025884
1.27815
0.0221637
4.25625
5.676
0.0220291
0.0315615
0.0399639
0.0220858
3.48863
14.6268
4.19737
3.44979
0.022042
0.0248366
0.0269595
0.0222948
0.240122
0.0347237
0.0222567
0.0628546
0.0259106
4.87782
0.0409875
7.22204
0.023145
0.0233105
0.0514614
0.0954556
0.0748573
0.0219935
16.2378
4.02958
26.1212
4.38149
4.69646
3.81184
4.32716
0.021996
0.0220277
0.0220226
0.224449
0.045279
0.0746789
7.08383
0.0221819
0.0216667
0.0220453
0.226234
0.0216641
0.0268848
0.0238106
4.13881
0.0230003
0.021857
0.0220895
0.0219934
0.0221629
0.0346348
0.238768
0.0342705
5.47281
0.022036
0.021945
4.04215
4.15439
6.68506
3.9791
0.0487902
3.97207
0.0218185
0.0633659
0.023313
0.0220817
0.0242529
4.93781
0.0230759
0.0967768
8.53
0.0222567
0.0219528
0.0265026
0.199037
0.022272
4.1264
0.022006
0.232878
0.0221266
0.0222674
0.0271001
0.100301
0.0221312
1.01478
4.15035
0.208871
4.39124
0.0220424
6.35041
0.988174
0.022052
8.55318
0.022287
0.0423602
0.0222215
0.0221122
0.0219633
0.0220462
0.0224799
0.0273226
0.0675509
0.0222445
0.022098
0.0616481
0.0217183
8.01057
0.0221268
0.0327545
0.0338935
5.04168
4.00186
0.0221488
0.20089
0.0218216
0.0305747
0.0729051
3.85728
0.0486415
0.0222724
0.11397
0.0779254
0.084145
0.783818
0.0361554
0.159836
0.0581645
0.068162
0.0229671
0.0218524
4.07304
5.39347
0.0247976
0.0220194
15.4662
0.0218398
0.0433035
0.0219653
0.0869993
9.1787
0.0215384
6.11442
0.0264331
0.0221709
0.162884
0.021879
0.0409117
3.37979
0.0413033
4.1009
0.0219582
0.0222649
0.0436696
0.0222263
0.0222465
0.028063
0.0301285
0.068184
0.0912565
0.0221096
0.0402914
0.02184
0.022066
0.0222156
0.0220549
2.4365
0.0218821
0.0233199
0.223231
0.0218349
0.0220079
4.1298
0.0222498
18.7793
0.0232464
4.27083
0.259589
0.0526998
6.30336
0.0695917
2.13734
0.0224142
0.222045
0.0274046
0.0218391
0.0219111
0.0232963
0.0315536
0.021984
0.0563336
0.0219089
0.0232943
16.7742
7.66643
4.69922
0.0241918
0.0475756
4.97651
5.33929
0.0221741
0.0265696
2.14953
0.0221922
0.0420113
6.38997
3.85421
0.0273243
0.0435335
0.0228471
0.391505
0.0222852
0.0363822
5.79232
0.0221895
0.0218716
8.16847
0.0456065
0.23993
4.47967
0.100911
0.0224485
0.0219126
0.022303
4.65679
4.27685
5.45475
0.0594232
0.0220466
4.46796
0.0221109
0.18481
0.0266852
0.0233284
0.0439671
0.0220614
6.11523
6.92359
0.0216689
0.068929
0.0465331
5.99848
0.04647
0.0576181
0.240131
0.0339559
0.352821
0.0603844
0.0221136
0.0357042
0.0838978
4.15739
0.022038
3.01557
0.0491583
0.0607924
0.0222727
6.72565
0.0262883
0.0237067
0.021866
0.0406528
0.0394246
0.0574143
0.0221285
0.0227417
0.0596029
25.2505
0.0642022
0.0221586
0.0226537
0.0355787
0.256616
0.022173
0.0954953
10.784
0.0494055
4.07665
0.0396459
7.80605
0.421158
0.0219965
4.32223
0.0222385
0.0251867
0.032753
0.0349782
0.107764
0.0466366
0.0442081
0.0463549
0.0318231
0.0242604
0.0216574
0.086065
0.0255875
0.0289651
3.3469
0.0264357
0.0306897
0.0219538
4.91793
0.0880914
0.022108
0.024781
0.0232949
5.92317
0.174916
0.032735
3.83963
0.60806
1.42602
0.0979538
0.19542
0.0218997
0.31957
0.0219015
0.0269541
11.2178
3.47168
0.437333
2.69903
0.0221229
7.20259
0.0218965
0.0824477
0.0253677
3.8292
5.6013
0.0259375
0.0220242
0.390533
0.0435028
0.0220235
4.18291
0.0220706
0.0237882
0.0255745
0.0222126
0.031477
0.02337
0.022045
0.0354981
0.58139
0.0408697
0.0642758
0.0220193
6.43923
3.53484
0.0220058
0.253337
0.0253048
0.0293254
5.24196
0.0220025
0.0227461
0.0280843
4.17948
0.0220337
0.0221831
0.041305
3.71184
0.0219889
0.0324388
0.0348035
2.98308
0.0483043
0.0410176
0.244967
0.0220757
0.121982
0.0217179
6.65106
0.0307319
0.0220497
0.0270331
0.104093
0.0221511
0.0221675
0.148297
3.99506
0.0223273
6.00233
0.0221884
0.0217074
0.0670859
0.0220373
0.0218811
6.51068
0.0222738
0.0412338
0.15976
4.29363
1.94872
0.0218127
0.0240463
0.0281843
0.0220766
0.0220436
0.0220986
3.48005
0.0221962
0.244039
0.119501
0.0218631
0.02173
0.0306548
0.119533
0.238366
0.0569569
0.0653885
0.0239434
3.69657
0.0823963
0.0304289
0.0409525
0.0686486
0.0984158
16.9426
0.0381502
3.72841
4.79388
5.07022
0.0247326
0.0219848
0.0394536
0.0343728
0.0218159
0.0223326
0.142076
0.0222436
0.0223391
0.0220544
0.0215926
0.0235121
0.0220514
6.44509
0.0220212
9.2735
0.0220841
0.0921956
0.0225929
0.121761
0.0830283
0.0220517
4.83438
0.0239958
0.0222261
0.04017
0.0218288
0.0310818
0.0219763
3.83293
0.0243173
0.0433514
0.105979
4.82598
0.0287936
0.311862
2.41161
0.0530731
0.0221046
0.0229909
0.116426
0.0672558
7.20647
0.0217786
4.67464
0.0221211
0.0908611
8.0218
0.0373267
3.70682
0.0254495
0.0328765
0.0249908
6.70235
0.0319106
0.0221423
0.0505639
0.152591
0.023467
0.0220408
0.0221438
4.35564
0.0222525
0.0280174
4.20746
0.0262661
0.0219947
0.0590815
0.0251691
4.80891
0.0216664
0.0220209
0.021871
0.0260952
0.0223985
0.0221245
0.063701
3.97345
0.021979
0.0221039
5.36789
0.0222104
5.71257
0.0236304
6.27558
0.0218746
0.0244541
0.0218202
3.88739
4.42349
0.0307344
0.0735043
0.0271021
0.0219672
0.022118
3.89365
0.0221371
0.0819739
0.0217941
0.0421893
0.0221908
5.49714
0.0218462
0.0449591
0.0218742
0.574911
1.2294
0.0218095
0.0457469
6.60859
0.067652
4.09971
3.6486
0.27502
0.0234313
0.034636
0.0995165
4.89624
0.0221445
0.038062
0.0282516
0.0220037
4.02218
5.50469
0.0687948
0.162558
0.397187
0.0342961
4.11634
0.0218088
0.0218041
0.106334
7.36154
0.250384
0.176912
3.39087
0.0218198
6.83327
3.80448
8.79333
0.0222029
5.35926
4.72076
1.32291
4.18969
3.7154
0.0846346
0.0310809
0.187472
0.0256896
0.0219944
2.93941
0.0933507
0.0216407
4.86169
0.0221895
0.0297903
0.0430579
0.0268517
4.0706
0.0351714
5.98265
0.0442285
0.0261304
4.71791
4.48857
0.145351
0.022377
0.0258635
0.0754113
0.0608503
0.0218381
0.0496421
0.0642531
0.15838
0.0219905
0.212349
0.024473
0.0511386
4.21791
0.343554
0.0230919
0.145103
4.47861
0.0221877
0.0228567
7.94372
0.387488
0.0245158
0.0248349
0.0220942
0.078395
0.0254297
3.6738
0.107719
0.0225496
0.0222233
0.0674422
0.0301772
1.1614
6.39465
0.0218919
0.0220365
0.0281823
0.0221951
0.0243244
0.0229755
0.022803
0.0258629
0.0219494
0.0250026
0.0221907
0.0470891
4.57284
0.0222643
5.45677
10.9197
0.0217173
0.260367
0.144904
0.0919797
0.0227788
0.0927329
0.0273146
0.0818994
0.0300567
0.0233322
0.0222095
7.09504
0.0278424
4.06859
0.0227578
0.0220381
0.0220255
0.0739208
0.0219731
0.0504992
0.0605976
1.83287
0.0219255
0.344922
8.36926
3.94294
0.021812
0.153554
1.06508
8.39941
5.32733
0.0225559
0.0223159
0.179012
3.13523
3.88218
0.0411694
0.234135
0.0222315
0.0218587
0.0411358
0.0221967
0.0221322
0.180459
0.0222655
0.0922481
0.0218642
4.48665
5.24674
4.87996
4.2043
4.09815
0.0221305
0.0221471
6.5277
0.0217927
0.0218206
0.0217084
0.13242
4.43545
6.55387
0.0277217
0.0220933
0.0232366
0.0381482
5.47438
0.0220384
3.7195
4.5908
0.0221899
0.0221783
3.96575
0.0779285
0.023262
0.0220437
5.60535
4.22217
0.0220082
0.206103
0.0222538
3.85834
3.60685
0.0234342
6.38489
6.56117
5.54344
0.0218487
0.0221433
0.0222452
0.0222862
4.23491
0.0219287
0.265792
0.201922
8.6795
0.0227099
0.0610462
0.542021
0.0503266
6.48933
4.12603
0.0216377
0.0257424
0.0259297
0.140289
4.14549
0.0215792
5.43598
0.0327436
0.0429493
0.0227863
0.02195
0.32936
0.0414925
4.70456
0.0221965
0.0576646
0.0226173
0.123547
0.0243065
3.91012
4.53159
0.305143
0.0943161
0.0219827
0.0240158
0.086373
0.236297
4.02358
6.51798
0.02215
3.8755
0.0945378
4.68308
0.0265499
0.0450247
0.0407835
0.0221122
5.57441
0.0220729
0.0330109
3.53085
4.37602
2.21456
4.30529
0.0287493
0.0495717
0.0217584
4.51654
0.0276364
6.94007
0.0217461
4.87156
0.0215452
0.0220053
0.0325539
0.0315959
0.0329331
0.0220009
3.71261
0.0436774
0.0219318
0.0388649
3.94188
0.678293
0.0220375
4.31675
0.0245252
0.0342263
0.0321278
0.0216974
0.066302
0.0219984
10.7237
0.0850881
0.0267813
0.0220309
0.422673
0.0407631
0.021745
5.15845
4.75272
0.265232
0.0216533
2.60962
0.0221429
0.159616
0.0276353
0.128216
6.19575
3.84721
0.0348299
4.31743
0.0513423
0.0287646
0.0218377
5.17201
0.121611
0.110304
0.0610489
0.0222435
3.80871
0.0926585
0.441127
0.217611
6.21726
3.67319
7.72791
4.85373
0.0292526
0.0318482
0.0220988
0.0221013
0.0215987
0.177495
0.0295403
0.0335639
4.40411
0.0219484
0.0218635
0.0412632
0.152362
0.0280521
0.0218227
4.18064
0.0243726
0.0466316
0.0222469
5.56641
0.0289688
5.67876
0.0576615
0.0346006
0.0544554
0.0220918
7.76393
0.496291
0.0728138
0.02207
0.0219124
6.42918
4.23645
3.49708
0.0218673
0.0740909
1.3954
0.0220719
0.0220101
0.0221211
4.32747
0.104601
0.0353878
0.0271407
0.0261192
4.71596
0.0944833
0.272524
0.0262877
0.0329705
0.0215856
0.136902
0.0573291
0.0220181
3.86856
4.1643
3.97675
4.02315
4.47075
7.71946
6.45823
0.0231484
0.0218476
5.93747
4.84912
6.97265
0.0220973
0.0408509
0.0220475
0.021976
3.48756
4.48639
0.0638929
0.0220065
0.510325
0.0952603
0.0500215
4.25268
5.61969
0.28702
0.0219176
3.89466
3.23987
0.408567
0.0321786
0.0433387
0.0221793
0.0218845
0.0400149
0.0467887
0.024602
0.0404758
0.0280607
0.0252017
0.226765
4.01874
0.0318876
0.042325
3.98927
0.22862
0.0221123
0.475037
1.02956
4.72367
0.042384
0.0221652
0.0299128
0.0272043
0.0304971
0.0216957
0.0332332
0.0313558
0.0458363
0.267735
0.0222307
0.0231085
3.74888
3.92144
4.37712
0.547543
0.11207
0.0215285
0.0220464
0.0308572
0.0217503
6.37942
0.0220387
0.0222735
0.0217341
3.81705
19.767
0.0224473
0.0625351
0.0287225
0.035986
0.030534
0.0353743
0.0407072
0.0384978
4.61058
0.0263446
4.54892
0.0402471
4.37311
0.029862
0.0219373
0.0218318
0.0954133
0.150145
0.0218315
0.0400502
0.0300798
0.060866
4.1391
6.10939
4.64822
0.0222733
2.79378
0.0301104
0.037397
0.0220317
0.0721071
0.0238459
3.7076
2.2069
0.0407018
0.0220811
3.91245
0.0273451
4.25942
4.95814
0.228652
0.0244461
0.136922
4.66804
2.12789
3.68329
0.0619707
0.0219708
0.0408509
0.0218626
8.60651
0.0248124
0.0324265
0.498555
4.3319
0.0219357
0.0219787
4.09136
0.042903
7.58247
0.0328376
0.0220449
0.0438645
0.223408
0.0439012
3.89628
0.0367849
1.55294
0.0253259
0.022245
0.0219646
0.314316
0.0226957
0.137231
0.0220503
0.022036
0.291466
0.0261793
0.0221183
0.0220406
0.0362167
1.08924
0.0426512
0.0402478
0.0265188
0.0627177
0.02206
0.16947
0.0310203
0.0439815
0.0712122
0.0277454
0.0906509
0.0456766
0.0218426
0.0672775
5.99181
3.35728
0.0221288
3.11827
4.17348
0.021979
0.0226868
0.906485
4.18504
0.027855
4.07232
0.433006
0.0220412
0.0839421
0.0215968
0.0261963
0.0630306
11.252
0.562195
0.207834
0.422168
3.95836
3.79966
0.0233326
3.68675
0.0220379
3.2694
3.8846
0.0221029
0.0220838
3.49735
0.0221199
0.0220879
0.264511
4.27545
0.242762
0.0261596
4.04832
0.022104
4.03902
3.82091
0.0221904
1.47634
8.39256
4.33445
3.61252
3.72316
3.70764
0.0218892
0.0232365
0.0631438
0.0648368
0.0220821
0.225457
0.0220427
3.64539
0.240581
0.0499002
0.237246
3.59493
0.234397
0.239894
0.0602841
7.59296
0.56071
0.0252901
0.0216399
3.56451
0.0353039
0.0217884
6.44467
0.0219863
3.73242
0.022148
4.34704
0.0254541
0.0219875
21.3454
0.0275573
0.0358258
3.75366
6.55569
2.86323
0.027668
0.0446619
0.0233992
0.039332
0.129103
0.0402636
0.0222096
1.75964
0.0624333
0.0336344
4.03089
0.0413326
0.0376462
0.225124
0.0761841
0.0446673
0.0219835
0.221077
0.0218312
0.126539
0.71251
4.36551
0.0218789
0.0401998
4.4493
0.023268
0.0671522
0.0310332
0.0431489
5.90071
0.0616363
0.0234791
16.0742
0.0218888
3.90387
0.0221274
0.0230339
0.124283
3.55228
0.0331784
0.400192
0.647088
0.0313418
0.0222355
0.169199
0.0463733
4.33995
0.0265934
14.2139
0.146736
0.0311845
0.0298962
0.109386
0.0384759
0.0753781
0.0612323
0.0387733
0.0244621
0.0220929
3.20521
0.0220211
0.0291939
0.0216077
0.109077
0.0295761
0.0604119
3.8982
0.0230346
0.251859
0.021517
0.022161
0.0221898
0.0222068
0.0264702
0.0219482
0.0854467
7.69056
0.0595994
0.0460024
0.0250332
0.0220707
0.313162
0.0220475
4.58916
5.08367
4.67435
0.146887
0.0358377
0.0271679
0.0221791
0.0300047
0.0983889
0.0439036
4.0539
0.0588634
4.58379
0.149641
0.0222103
0.0218478
3.40383
0.0219704
0.0300925
0.0665852
0.397962
0.0233007
4.12485
0.0221739
0.0260778
0.0220487
0.0226774
0.172108
0.106582
0.0222582
0.0323871
0.0351207
0.0464805
0.0575398
0.556404
0.383967
0.303036
0.134957
0.0259758
0.023047
0.0567497
3.54515
6.38165
3.91587
0.031914
5.89392
0.104729
0.0228131
0.0219992
0.0617515
0.0221461
0.0322171
5.40178
0.0219737
0.0218271
0.676101
3.48711
0.0469016
1.92495
0.0221215
5.30896
0.0434574
4.42457
0.0296256
0.0220603
4.04769
0.0592633
0.0220358
0.075586
0.0222531
0.171342
0.0295127
0.0556767
6.63197
0.0339157
5.32849
0.0219404
4.66732
0.0221372
0.0264237
0.0225447
0.0478169
0.0221443
0.0568706
3.84855
1.11072
0.0504716
0.0326655
0.0786166
0.0219279
0.021977
0.0230619
3.62018
0.0254322
4.50216
4.61297
0.151991
0.0222161
0.157181
0.248891
0.155666
0.0257769
4.67981
0.0219906
0.0215336
0.0219743
8.11748
0.0221054
0.0220245
3.92533
0.021982
0.178256
0.103279
0.0218028
4.01214
0.0279418
4.31768
0.0219537
3.88787
0.0229004
0.073069
8.67313
0.0662974
0.0219556
0.0271912
4.73723
0.0320605
0.161983
0.0315082
0.0266933
0.15298
0.0294293
0.0222094
22.5978
0.029925
0.028119
0.144772
0.0219821
0.0218793
0.0221892
0.0307221
0.022141
0.0260911
5.39863
12.663
0.104982
7.16053
0.0612246
0.034231
4.41802
4.3376
0.0224638
9.01698
9.11589
3.86564
3.83115
0.0316853
4.72436
4.00185
16.8178
4.17466
6.18312
0.043371
0.0852484
0.0296724
0.0259775
0.0221828
1.6516
0.0222852
4.68782
0.129143
0.361158
0.0215998
0.0738315
0.0465678
0.0235976
0.0222931
0.0221187
0.127475
0.02359
0.0222659
0.0404866
4.12613
0.0243598
0.169442
0.0218364
0.129848
0.0847671
0.0221768
0.0269871
0.0219509
4.36773
4.23519
0.169932
10.9688
0.0337227
0.0892963
0.022133
0.041481
0.022068
0.0223537
0.0222337
4.79579
0.021792
0.0455738
0.839534
0.0282458
0.0313036
0.022003
4.58656
0.216947
12.8409
4.51763
0.184111
0.350767
4.25955
0.395511
0.535756
8.31112
0.129809
0.0342135
5.43712
4.63746
0.022047
4.93877
0.163256
5.26939
0.0216179
0.0628657
4.72228
0.0222732
4.54646
0.0253945
6.52861
0.0220929
0.0221017
0.0703665
0.233023
0.0266959
0.0662986
0.0218145
0.022165
3.67276
5.60967
6.25564
0.0539901
0.0221919
0.0224551
0.0221377
0.0366295
1.19657
4.25604
4.64599
5.5665
0.0328758
0.0219552
0.0219849
5.92066
5.92633
0.328076
0.0264533
0.0249379
0.0842863
4.62257
5.80557
0.0215271
0.0219657
4.87005
0.0231165
0.269562
0.0280854
0.0220932
0.0329043
0.046989
4.58468
4.43785
0.0222023
0.0218271
0.0249795
0.23582
4.79858
0.0222652
0.140868
4.22612
0.0215356
3.40813
4.10733
11.1039
0.0221119
5.14208
4.7213
0.0395656
0.331622
0.0246154
0.314819
0.394388
0.0257379
0.0219549
5.97647
2.59647
0.021875
0.14556
0.153342
0.0303134
0.294795
4.3833
5.17347
4.67891
0.0281731
0.0235756
0.0231712
4.1103
4.86274
4.60934
5.83101
4.54956
0.0217394
0.044803
0.0220687
0.0221165
0.0249619
0.021972
0.0220619
0.0221753
4.27564
13.2175
6.79634
0.0582189
0.207571
0.0356504
0.0218738
0.0219885
4.41281
0.0221411
5.81994
3.85487
0.0221801
0.0219193
3.55243
0.0226013
0.596049
0.0261047
0.0217589
0.0217359
4.32292
0.0216905
4.14443
4.15904
0.0215778
0.0476425
0.0219401
0.02302
0.0218999
0.120328
4.27124
0.0219751
4.53587
0.497443
0.0241142
0.0219114
0.0226983
0.0236942
0.0222269
0.621552
5.2155
5.63687
0.0408365
6.07143
0.0222727
0.026092
0.0221934
0.186304
0.0234374
4.86673
0.0218664
3.96502
0.335607
5.5693
0.159628
0.0218622
0.0446827
0.0219397
4.1403
0.0219686
0.0288944
0.0267752
0.0258636
0.0221797
0.0222511
0.0327506
4.58409
0.0221942
0.0229111
0.0241367
0.0339151
0.179894
0.0221892
4.91614
3.84204
0.0240339
4.53813
4.46388
3.76521
6.27112
0.0215447
0.0231289
4.02444
4.07225
0.150184
4.01289
4.2785
0.0330762
0.050329
0.0312612
4.28116
0.0220388
0.0219675
5.54319
0.131297
4.65576
0.025006
0.021718
0.0220485
4.88349
0.0724193
0.0238156
0.24775
0.0218597
0.0626694
0.0310107
0.0313089
0.0220129
0.0221898
0.0219274
0.0249514
1.44358
5.33434
0.0215863
0.0219366
4.23858
0.0220969
0.0645195
0.0259962
0.0255565
0.0387398
0.0222858
4.18471
0.0303203
0.0252483
20.0896
0.0870157
0.0233137
0.0330165
0.0220325
0.0225362
6.39346
0.294155
3.48379
0.0223377
0.0221561
0.0629177
0.0272283
0.0220333
0.039649
4.11156
0.0260831
0.0422145
0.0254852
0.123218
0.0221173
0.0217334
4.53056
5.36336
5.26826
0.0219838
0.161164
0.0216343
0.0220249
0.070538
4.33429
0.0694409
0.0287137
0.164944
0.022899
0.0302837
0.0529654
0.780595
0.0223534
0.0216483
0.0225781
0.023976
0.0273957
0.0219659
1.33361
9.62137
0.0221489
0.0322861
0.0224167
0.0216802
3.65225
5.84401
5.3575
0.0786244
0.0223837
0.0579797
4.52697
0.105711
0.101852
0.0341353
0.0299717
4.97527
0.233617
0.864759
0.0217705
0.0307034
0.0221152
0.0311216
6.54741
0.0216315
0.041143
0.0254691
0.0302886
0.0231191
0.0218298
0.0218837
4.05376
0.0473376
0.0312753
0.0689521
0.0352306
6.6727
0.031476
0.498565
0.0219373
4.49596
4.79105
6.76809
0.0222646
0.0326419
0.0220854
0.0219847
5.32663
0.0475685
4.49201
0.0219984
0.0453844
0.140918
4.25849
0.0281293
0.0216712
6.6149
0.0222853
0.0222841
0.0226441
0.0220382
5.66235
0.0218414
0.0218905
0.0366944
0.0273483
0.147538
0.13606
0.033324
4.13139
0.0220309
0.185956
0.0218208
4.40228
0.0345234
0.508242
0.155027
2.92222
0.111159
4.36538
0.023231
6.17063
0.0327131
4.75402
0.209946
0.0278686
0.236737
0.0221811
6.57218
0.0232673
0.0386863
0.0272391
7.66844
0.148923
4.09581
0.0311485
0.0220202
4.74268
0.254108
0.0578781
0.157981
7.99081
4.56946
0.0396125
0.295379
0.0438409
0.0218953
0.0493559
0.278131
0.0705675
25.4706
0.126346
0.0218051
0.0219912
0.14483
0.0220871
5.55195
0.0728251
0.0220864
3.8229
3.64876
3.62968
0.113391
0.0220509
0.0290613
0.0257847
4.15515
3.72515
0.0257719
5.04303
0.0219019
0.0316761
1.25679
0.0220063
0.0415149
0.0219366
0.0265139
0.0222513
0.167078
1.99664
0.0302088
0.0295152
0.0217326
0.148872
0.0219162
0.0218394
0.0330682
0.0219309
0.229876
4.53835
4.74371
4.03226
0.0218002
4.66927
0.02219
0.0372214
0.137597
0.0221058
7.53318
0.0711477
0.0220677
0.0216659
0.0432763
0.0381163
0.186316
0.227759
0.0258066
0.024024
3.84256
0.0639546
0.308784
1.01322
14.3835
4.12447
4.52047
1.5983
0.0221592
0.0221157
0.0477805
0.0222507
0.0522672
0.0384595
6.20198
4.72632
6.54008
0.0217182
0.0218032
0.124869
0.608178
4.16701
1.69282
3.71029
0.0551272
0.0328568
1.50074
0.298262
0.0268744
4.48387
0.0333249
0.0311688
4.2602
0.0430566
0.0220171
4.74537
1.01749
0.0248945
0.147173
0.0234568
4.12084
5.52411
6.1212
0.0220175
0.0216912
0.141039
0.022019
0.0219695
0.0220225
0.0217412
0.022028
0.0220346
4.41605
0.0282576
0.0467451
4.06225
0.0219081
0.0220438
0.0324734
0.026287
0.0267774
0.0220519
0.0676009
0.0310747
0.0264642
0.0867541
4.21109
0.0220634
0.043972
0.0220758
0.0220369
0.0215861
0.0220884
4.15393
0.0219278
0.0220304
0.0221016
0.04446
4.01104
4.12533
4.59116
2.38188
0.0464183
4.14571
6.27433
0.0219605
0.042651
5.89574
0.208273
0.0221155
0.0287323
0.0452759
0.0379746
0.0220648
0.0424113
0.0572726
0.0446948
0.0216385
0.0550325
5.4918
0.021585
2.73809
4.52354
0.042782
0.689504
0.0362778
0.0220934
0.0259762
0.0220208
0.242847
4.49479
0.0217025
0.0438828
0.0219825
0.0219821
0.0222263
0.0222859
0.0378213
0.0221737
0.131737
0.153136
0.0260925
0.0246939
0.0468551
0.0220501
0.044745
0.0337538
0.0224238
0.0221056
0.0221435
4.67554
0.0220237
0.291528
0.0434295
0.0222536
0.0220547
0.0217856
4.48609
0.0255754
0.0427632
0.0536352
4.68289
0.0282131
3.89513
3.01169
0.0434256
0.021979
0.251381
0.0395998
4.90282
0.0725442
4.45146
0.0216788
0.0509418
0.0497921
4.09526
0.0220144
0.0462844
4.79968
0.021875
7.59674
9.97653
4.14703
0.0219872
0.0218136
4.51521
0.0220514
4.29822
0.177943
4.05906
4.3532
0.0218858