/*--------------------------------*- C++ -*----------------------------------*\
| =========                 |                                                 |
| \\      /  F ield         | OpenFOAM: The Open Source CFD Toolbox           |
|  \\    /   O peration     | Version:  v2012                                 |
|   \\  /    A nd           | Website:  www.openfoam.com                      |
|    \\/     M anipulation  |                                                 |
\*---------------------------------------------------------------------------*/
FoamFile
{
    version     2.0;
    format      ascii;
    class       volVectorField;
    location    "300";
    object      U_0;
}
// * * * * * * * * * * * * * * * * * * * * * * * * * * * * * * * * * * * * * //

dimensions      [0 1 -1 0 0 0 0];


internalField   nonuniform List<vector> 
13851
(
(1.15183 0.0500066 2.45385e-21)
(1.07742 -0.0244769 -2.9818e-20)
(1.07572 -0.0233934 1.52174e-20)
(-0.187767 -0.0110216 0)
(1.00214 -0.000480466 8.35908e-22)
(1.08798 -0.0396311 -1.04563e-20)
(1.0631 0.014874 0)
(1.01395 -0.000810005 2.73649e-23)
(0.221029 0.0388545 0)
(0.991351 -0.00972333 1.37885e-20)
(1.1712 -0.106411 0)
(1.00149 -0.00912144 3.23151e-21)
(0.981238 -0.0224243 0)
(0.0275868 0.016799 -4.03751e-20)
(1.11105 0.0110538 0)
(1.10037 0.0708415 0)
(-0.313155 0.00127867 0)
(1.03804 -0.0201696 7.14486e-21)
(1.2172 0.0432112 8.47423e-20)
(1.15277 0.0483059 8.76693e-21)
(1.12379 0.00450512 2.52718e-20)
(1.04285 -0.0958761 0)
(0.49491 -0.244583 0)
(1.00008 -0.000220975 4.44472e-23)
(1.07884 -0.0158866 -3.74633e-20)
(1.09793 0.0526679 0)
(1.13649 0.0837123 6.30246e-21)
(1.08417 0.0787982 -4.64319e-20)
(0.363114 0.044709 0)
(1.02209 -0.012816 0)
(-0.101038 -0.00938161 -3.89553e-20)
(1.06333 0.014118 -1.08681e-20)
(1.14484 0.052696 -7.15691e-20)
(0.29264 0.0548692 -4.34692e-20)
(1.13843 -0.0891938 4.49378e-20)
(0.397808 0.0464371 -3.01118e-20)
(1.00005 -0.000198957 -1.81621e-22)
(1.10907 -0.140341 -1.39195e-20)
(-0.0367337 0.0171831 3.11156e-20)
(1.00819 -0.0409141 -1.36957e-21)
(0.142391 0.0498375 -8.05464e-21)
(0.399599 0.0486361 1.38339e-20)
(-0.232734 0.000525964 -2.43784e-19)
(1.09689 -0.486493 0)
(0.410961 0.0530719 -6.95735e-21)
(1.01606 -0.0241067 0)
(1.02019 9.26832e-05 -6.56805e-21)
(1.1108 0.0687261 -1.60735e-20)
(1.04982 -0.0599244 -3.44063e-21)
(0.980859 -0.0214575 0)
(-0.26343 0.00913272 -1.91859e-26)
(0.973811 -0.0159553 -1.65996e-20)
(1.10134 0.0703175 0)
(1.08251 0.0261686 4.41574e-20)
(0.0787595 0.0138949 5.19517e-20)
(1.00712 -0.0412327 -2.38094e-21)
(1.14655 0.0531866 8.08192e-20)
(0.112821 0.0447299 0)
(1.12353 0.0860249 4.02741e-20)
(-0.0699661 0.0153466 0)
(1.00136 -0.00860426 0)
(1.12695 0.0817322 4.02979e-20)
(0.995547 -0.00414894 0)
(1.05029 -0.0622736 4.6659e-21)
(0.875135 -0.454842 1.7135e-20)
(0.856239 -0.474873 0)
(-0.0911741 0.0122355 1.45908e-20)
(0.69326 -0.129441 0)
(1.0227 -0.042018 1.74981e-21)
(-0.160505 -0.00907835 -1.35725e-19)
(-0.166914 -0.00179615 -1.77092e-19)
(1.13443 0.00809845 -3.47347e-20)
(0.994661 -0.0289285 -8.28288e-21)
(-0.0748736 0.0133497 3.0484e-21)
(1.09028 0.0231406 1.70322e-20)
(1.02377 -0.0780013 0)
(-0.289699 -0.00158069 -9.08084e-20)
(1.02276 -0.00635443 0)
(1.15799 -0.0196426 3.34447e-20)
(1.00571 -0.0192829 0)
(1.02401 -0.0426489 0)
(1.27925 -0.0990507 6.77872e-21)
(1.13458 -0.0909134 -7.28569e-20)
(0.0196469 0.0164535 8.26003e-20)
(-0.056972 0.0154341 0)
(-0.123618 -0.00612567 0)
(1.04625 -0.0971188 1.02727e-20)
(0.176082 0.0131496 3.31947e-20)
(0.992152 -0.0139315 1.23699e-20)
(-0.0979053 -0.00825098 1.3892e-19)
(0.972524 -0.0151968 -1.23608e-20)
(1.06473 0.0138795 1.19898e-20)
(-0.240333 0.00114834 0)
(-0.153385 -0.00537577 0)
(-0.0830856 0.0238113 0)
(1.08263 -0.447018 -2.13072e-21)
(1.01098 -0.0259054 -6.20469e-22)
(1.10609 0.0706492 0)
(-0.199134 0.0114261 1.38581e-19)
(1.22443 -0.205938 3.41317e-21)
(1.10718 0.071465 0)
(0.810582 -0.123008 -7.32637e-20)
(0.81099 -0.156099 0)
(0.990563 -0.0309267 7.41726e-21)
(1.01981 -0.0237416 0)
(1.13996 -0.00772675 0)
(1.01903 -0.023476 2.43042e-21)
(-0.149012 -0.00372785 1.87899e-19)
(1.06487 0.012987 1.18679e-20)
(1.03702 -0.0195937 -6.96944e-21)
(1.03032 -0.135996 5.56474e-21)
(1.01688 -0.0245482 0)
(1.22996 -0.0208302 -7.67903e-21)
(1.17237 -0.0490273 -3.70405e-20)
(1.13451 0.0591741 -1.11423e-21)
(1.08173 0.024789 -1.21044e-20)
(1.01536 -0.00858437 0)
(1.01464 -0.000944896 1.84317e-21)
(-0.202794 -0.00880321 1.79826e-20)
(-0.126885 -0.0129185 -4.48481e-20)
(1.11382 -0.372333 0)
(1.03079 -0.0166111 7.15276e-21)
(1.01761 -0.042762 -3.59335e-24)
(0.0428913 0.0278631 0)
(1.19058 0.0508348 -3.3148e-20)
(0.614256 -0.210429 0)
(1.01149 -0.025574 9.99671e-22)
(1.13688 -0.158413 5.46596e-20)
(0.162337 0.0454857 -6.90592e-21)
(1.12329 0.0165588 4.22806e-21)
(1.03936 -0.0979399 9.74997e-22)
(1.10535 -0.068775 -4.58863e-21)
(1.26417 -0.166987 -8.57172e-20)
(0.277604 0.0527015 6.54279e-20)
(1.17585 -0.103487 -3.55155e-20)
(-0.0929784 0.0225953 2.92827e-20)
(0.70636 -0.121847 -6.62856e-20)
(-0.137677 -0.00497227 -2.41426e-20)
(0.848419 -0.0944439 7.10161e-20)
(1.11881 0.0200788 -1.4196e-20)
(1.2757 -0.10277 -6.2135e-21)
(0.976014 -0.0481198 2.46634e-21)
(0.991457 -0.0140938 -9.19671e-21)
(0.742979 -0.316297 -1.32651e-19)
(1.04875 0.0191275 0)
(1.00977 -0.0763625 0)
(1.02249 -0.00591224 2.53284e-21)
(-0.145122 -0.00616327 0)
(0.218717 0.0310945 2.62815e-20)
(1.14213 -0.160855 -6.64922e-20)
(1.10864 0.0710252 1.84546e-20)
(1.22835 -0.0242615 -3.45352e-20)
(1.17669 -0.0481443 4.06637e-20)
(1.20703 0.039581 3.78087e-20)
(0.973007 -0.026007 1.86138e-20)
(0.983875 -0.011397 4.91833e-21)
(1.00144 -0.00715736 2.01737e-21)
(-0.0697629 0.0140377 -1.08098e-19)
(1.11655 0.0164819 4.21714e-20)
(1.0666 0.00321566 1.54052e-20)
(1.00015 -0.000513231 -4.7634e-23)
(0.37697 0.0448533 2.10914e-20)
(1.13707 -0.0068108 1.12444e-21)
(1.11204 0.0682016 3.94886e-20)
(0.0306006 0.015001 -1.84208e-20)
(0.307523 0.0499488 -1.3272e-20)
(0.318748 0.0513556 1.60943e-20)
(-0.247581 0.0107999 5.58124e-20)
(1.03107 -0.130964 1.02414e-20)
(0.619644 0.0759847 0)
(1.00104 -0.0079266 -2.37388e-21)
(1.01526 -0.00815907 1.14354e-21)
(1.1558 -0.0116633 0)
(1.00112 -0.000441568 -1.21814e-21)
(-0.0573304 0.028546 0)
(1.15103 0.0747044 1.35293e-20)
(1.11786 0.0715962 -8.76446e-21)
(1.01588 -0.00810043 -1.29069e-21)
(1.0883 0.0247989 0)
(1.11659 0.0707032 0)
(1.1871 0.0497193 -2.00825e-20)
(1.10419 -0.468287 0)
(1.03675 -0.123726 0)
(1.12117 0.0168802 0)
(-0.247501 -0.000303484 0)
(0.227241 0.0312064 -2.384e-22)
(1.14395 0.054542 -1.8811e-20)
(0.889685 -0.0717703 0)
(0.977544 -0.0266366 2.0546e-21)
(1.02047 -0.0176063 1.57516e-21)
(1.15228 0.0141278 -7.80976e-20)
(1.11732 0.0152345 -3.43255e-21)
(0.00848537 0.0119937 3.62125e-20)
(1.0895 -0.0373996 2.0993e-20)
(1.0116 -0.0741732 -1.8328e-21)
(1.10368 0.0705046 0)
(1.14217 0.0540073 4.59507e-20)
(1.04905 -0.0108262 0)
(1.04449 -0.0289837 0)
(0.709262 -0.165114 0)
(1.27559 -0.115153 -5.16992e-20)
(-0.0227605 0.0367824 4.93527e-20)
(0.0959207 0.0489381 -3.19494e-20)
(1.10938 0.0119903 5.41474e-21)
(0.940841 -0.723948 2.00888e-20)
(-0.0510607 0.0345188 -2.77888e-20)
(0.937704 -0.0252887 0)
(1.11102 0.0276051 -8.07756e-21)
(0.21532 0.0399842 -3.35501e-20)
(1.08198 -0.0477575 -1.11805e-20)
(1.09831 0.0707129 -4.11441e-22)
(1.0169 -0.0418858 -8.19341e-23)
(1.27938 -0.111002 0)
(1.00013 -0.0022652 0)
(1.1423 -0.0816554 -8.02423e-20)
(1.02767 -0.0860211 1.79966e-21)
(0.982123 -0.0202728 2.53525e-20)
(1.1619 0.057633 -2.14462e-21)
(1.04856 -0.0200376 -9.90593e-21)
(0.151768 -0.540926 -1.21599e-19)
(1.01589 -0.00765886 0)
(1.15622 0.0465798 5.03982e-21)
(0.000108688 0.0136932 -7.7557e-20)
(-0.0778785 0.0242005 -7.84131e-20)
(0.90179 -0.0811776 -9.78347e-22)
(1.11082 0.0286484 8.34478e-21)
(1.00003 -0.00113986 0)
(0.746073 -0.294883 1.80755e-20)
(1.00207 -0.014492 -9.16816e-22)
(1.13878 -0.0829976 7.3983e-20)
(-0.0480595 -0.0318968 4.40984e-20)
(0.895403 -0.0724096 -2.77685e-20)
(1.0818 -0.0454956 9.41194e-21)
(0.996278 -0.00197244 -1.55457e-20)
(0.0836965 0.047028 -1.70284e-20)
(1.02281 -0.0125873 0)
(0.859094 -0.417332 0)
(0.0763489 0.0461457 0)
(1.21675 -0.200517 -3.10932e-21)
(1.0001 -0.000491481 0)
(1.30785 -0.343806 0)
(-0.047267 0.0151554 -9.21071e-20)
(0.441346 0.0563156 0)
(1.09924 0.070245 0)
(1.11356 -0.0139903 -3.9051e-20)
(0.706453 -0.34793 0)
(1.16178 0.0558707 6.66095e-20)
(1.08786 0.026109 -7.99009e-21)
(1.08559 -0.429057 2.9633e-21)
(1.05011 -0.138026 -6.49834e-21)
(0.118599 0.0112965 0)
(1.17875 0.0316411 -1.1698e-20)
(1.01084 -0.000874786 -2.10375e-21)
(1.08815 -0.0148668 1.1775e-20)
(1.10491 0.071384 1.87497e-21)
(0.365368 0.042791 -2.5762e-20)
(0.254091 0.0166587 0)
(1.01995 -0.0168626 0)
(0.590046 -0.205886 -3.54295e-20)
(0.993054 -0.0147349 -6.95304e-21)
(1.14753 0.0620369 -2.46396e-20)
(1.19559 0.0466396 0)
(1.09011 -0.0142506 3.64568e-22)
(1.13733 -0.00336568 -8.14507e-20)
(1.18202 0.0317771 0)
(1.00047 -0.0267769 -3.93717e-21)
(0.805786 -0.13282 4.249e-20)
(1.11295 0.0638359 6.85567e-21)
(1.14074 0.0721592 1.87035e-20)
(0.997982 -0.00959351 0)
(0.98199 -0.0192716 -2.47174e-20)
(0.896213 -0.0796668 7.16904e-20)
(0.303556 0.0523316 0)
(-0.251252 -0.00230164 0)
(1.12749 0.00947892 9.45363e-21)
(1.0319 -0.0171321 0)
(1.18528 0.0523733 4.61239e-21)
(1.20119 0.0434632 2.30061e-21)
(1.13586 0.0541375 1.57314e-20)
(1.13522 -0.00252799 7.07034e-20)
(0.275584 0.0484533 0)
(-0.164396 0.0116619 9.56169e-20)
(1.09366 -0.0229578 0)
(1.10541 0.00870309 3.54867e-20)
(1.05277 -0.161094 1.6953e-21)
(1.02195 -0.0227927 4.14106e-21)
(1.00156 -0.00676815 5.66648e-21)
(1.13789 0.0544376 -1.05077e-20)
(1.15535 -0.122171 3.69566e-21)
(1.02427 -0.0127523 -6.28208e-22)
(1.00015 -0.00222141 1.85564e-21)
(1.00186 -0.0149211 4.75918e-21)
(1.00447 -0.000672124 -3.83615e-23)
(1.11029 -0.00481904 -6.33145e-20)
(1.00163 -0.00724125 -1.86237e-21)
(0.23212 0.0408194 0)
(1.12578 0.00583174 1.6497e-20)
(1.01317 -0.0345528 0)
(0.373039 0.0420178 3.36513e-20)
(0.0312986 0.0261345 2.2569e-20)
(0.975146 -0.0213074 -1.61906e-20)
(1.15532 0.0483993 0)
(-0.234186 0.00999714 1.75888e-19)
(0.97491 -0.0505856 0)
(0.973731 -0.0206776 -4.68069e-21)
(1.12832 0.00534909 0)
(-0.00677231 0.0127683 2.47843e-20)
(0.170706 -0.0092458 0)
(1.15684 0.00124866 5.66071e-20)
(1.00237 -0.000634206 -7.6344e-22)
(0.656467 0.0777115 0)
(1.00116 -0.00843797 -8.15479e-22)
(1.16305 0.000899977 3.89386e-21)
(-0.218021 0.0121818 -1.50842e-19)
(1.14443 0.0698867 5.55022e-20)
(1.06527 0.00280029 0)
(1.17134 -0.198752 -5.59213e-20)
(1.33587 -0.189799 2.0522e-20)
(-0.124017 -0.00241522 0)
(1.23032 -0.0329585 -4.67335e-21)
(0.780477 -0.101523 1.83817e-21)
(-0.0518615 0.0239553 8.99441e-20)
(0.0811691 0.0348911 9.77236e-22)
(1.11193 0.0779754 0)
(1.04592 -0.0298018 0)
(-0.25876 -0.000981291 2.85785e-22)
(0.0918323 0.00730761 2.48777e-20)
(0.459179 -0.457326 1.26523e-19)
(0.494302 -0.46365 -1.0439e-19)
(0.936147 -0.0265283 -1.11372e-20)
(1.15969 -0.00679132 0)
(0.948926 -0.123146 1.45389e-20)
(0.184738 0.0137617 -1.26755e-20)
(0.785667 -0.148727 0)
(1.00855 -0.00203605 0)
(1.02026 3.44613e-05 0)
(1.075 -0.0851636 1.18029e-20)
(-0.148826 -0.00462057 -3.98181e-20)
(0.205288 -0.548038 -1.01897e-19)
(1.02194 -0.0219399 -2.61118e-21)
(-0.0923466 0.0233555 1.13771e-19)
(0.937919 -0.120484 5.70069e-22)
(1.10613 -0.0719202 -3.9498e-22)
(1.06686 0.00417353 0)
(-0.0168451 0.0106435 0)
(1.18229 0.0516891 0)
(1.10251 0.071115 -3.45548e-21)
(1.02525 -0.0836862 5.54613e-22)
(1.07905 -0.0446031 0)
(0.446351 0.0477747 0)
(0.977429 -0.0282868 0)
(1.20543 0.043307 -4.00675e-20)
(1.0921 -0.0216476 0)
(1.12964 0.00392882 3.33005e-20)
(0.932013 -0.12281 -1.04947e-20)
(0.992394 -0.0147729 1.39054e-20)
(1.01396 -0.0341026 3.55977e-23)
(1.23938 -0.0954819 1.822e-20)
(1.23284 -0.202022 8.54341e-20)
(1.17496 0.0349278 9.85396e-20)
(1.33534 -0.18808 7.03828e-20)
(0.456177 0.0492327 -1.83276e-20)
(1.01108 -0.0778641 0)
(0.0621014 0.044953 3.9581e-20)
(1.15356 0.0638822 2.58538e-20)
(1.02945 -0.00845082 -6.73897e-21)
(1.11745 0.0720621 -6.87086e-20)
(1.14929 0.0352045 -8.53476e-21)
(-0.185484 0.0138563 -1.24347e-19)
(1.07289 -0.0825375 9.82247e-21)
(1.09293 0.0565318 0)
(1.11635 0.0844136 -2.04874e-20)
(1.19184 -0.093794 0)
(1.23511 -0.10608 -1.29489e-22)
(0.175791 0.0139894 -4.20725e-20)
(1.04987 -0.0412715 8.36691e-21)
(1.15683 0.0756461 0)
(-0.328018 0.000652797 2.20292e-19)
(1.10834 -0.02639 0)
(0.139092 0.0149572 -5.54567e-22)
(1.1158 -0.0285764 2.29626e-20)
(0.0990869 0.047922 7.32626e-20)
(1.10441 0.00756409 -6.42254e-20)
(1.08513 0.0392641 -2.04349e-20)
(1.18555 0.0263733 -2.56917e-20)
(1.25759 -0.179862 6.54014e-20)
(0.983978 -0.0123224 0)
(1.0908 -0.0284346 0)
(1.15973 -0.125283 -4.64297e-21)
(1.08994 0.0245036 0)
(1.01433 -0.0264173 -6.65515e-23)
(1.12735 0.0114854 -2.5462e-21)
(0.534319 0.0690943 4.65391e-20)
(0.995464 -0.0288344 0)
(1.11252 0.0262942 7.95435e-21)
(-0.212628 -0.00883238 -2.21893e-19)
(1.07172 -0.0418775 -6.96865e-21)
(1.24632 -0.49219 8.18463e-20)
(1.09654 0.0371605 0)
(0.224107 -0.0102574 -7.0115e-20)
(1.0846 -0.0492966 0)
(1.0973 0.0514363 -1.49166e-20)
(0.914653 -0.695945 0)
(1.19424 0.0487942 1.68715e-20)
(1.14045 -0.0132713 0)
(0.234388 0.0135938 0)
(-0.0672667 0.0123799 9.00303e-20)
(1.26976 -0.337067 0)
(0.999676 -0.0268733 -4.94569e-21)
(1.23562 -0.091806 0)
(1.11728 -0.0356932 0)
(1.09391 0.0555249 0)
(1.02931 -0.0184891 -3.65381e-21)
(-0.238054 0.0016855 0)
(0.491945 0.0679118 2.09716e-20)
(1.14306 -0.056825 1.90728e-19)
(1.07862 -0.0424698 0)
(1.18517 0.0287357 1.28541e-20)
(1.13353 0.079768 6.31236e-20)
(-0.23754 -0.00476246 0)
(1.02556 -0.0030081 0)
(-0.292347 0.00169105 1.1682e-19)
(1.26797 -0.166185 0)
(0.263719 -0.162877 1.35276e-19)
(1.05457 -0.140961 7.92199e-22)
(1.08488 0.067292 0)
(0.987971 -0.0194131 0)
(1.0013 -0.000378597 0)
(0.069134 0.0118544 -6.36434e-20)
(1.13747 0.0786078 0)
(0.990681 -0.0103377 -3.16533e-21)
(1.07728 -0.0260828 -6.18243e-21)
(1.11441 0.0263546 0)
(1.01354 -0.00921916 0)
(0.561987 0.0702869 6.839e-21)
(1.15977 -0.00398025 -3.00738e-20)
(1.14954 0.0338538 0)
(1.08223 0.000926028 0)
(1.05058 -0.0400152 0)
(0.972095 -0.00993255 0)
(1.25283 -0.10923 0)
(1.01194 -0.0337808 0)
(0.973132 -0.00884111 -3.65354e-21)
(0.806327 0.0781434 0)
(0.567097 0.0671859 -5.53584e-20)
(1.03608 -0.0953678 6.51803e-21)
(1.11074 0.0818435 3.1309e-20)
(0.99573 -0.00356235 -8.15921e-21)
(1.00173 -0.00684475 -3.77084e-21)
(1.07417 -0.0428451 1.45074e-20)
(1.17762 0.0351121 -9.45063e-20)
(1.09276 0.0390613 -3.16558e-20)
(1.01424 -0.0279763 -5.83933e-23)
(1.06026 -0.0319915 9.42913e-21)
(1.1157 -0.361261 0)
(1.06852 -0.0180867 -2.04098e-20)
(0.261919 -0.0172578 -7.52193e-20)
(1.00165 -0.00849831 6.48537e-21)
(1.0821 0.013478 5.48425e-21)
(0.416323 0.054475 0)
(0.93987 -0.167111 -3.5834e-20)
(1.01962 -0.000642436 0)
(1.00058 -0.00736567 0)
(1.08183 -0.000149393 0)
(1.05212 -0.00962846 -2.44956e-22)
(1.24823 -0.388062 0)
(0.724341 0.0745306 1.11915e-20)
(1.11465 -0.0123211 5.48749e-20)
(0.317429 -1.13046 0)
(1.07594 -0.0413388 0)
(1.00055 -0.0117376 4.99729e-21)
(0.193421 0.0440157 0)
(1.11654 0.0836801 1.04197e-20)
(0.878168 -0.129246 4.12583e-20)
(0.996793 -0.032834 -5.41621e-21)
(0.0695522 0.0325741 3.32668e-20)
(0.858004 -0.0998844 -4.56167e-20)
(1.1657 -0.647044 1.2431e-19)
(0.989888 -0.030069 -3.47017e-21)
(1.10827 -0.0631718 0)
(1.2395 -0.103017 0)
(1.09702 0.0219635 0)
(0.112388 0.0393723 -5.43916e-20)
(1.13522 0.0807782 -5.82411e-20)
(1.21378 -0.0703562 -1.51378e-19)
(0.977997 -0.0750624 7.31626e-21)
(1.23198 -0.0291465 4.31083e-20)
(1.00168 -0.0280692 -3.90847e-21)
(0.352154 0.0431177 -3.78768e-21)
(1.09714 0.0363026 5.79579e-21)
(1.1409 0.0547206 -2.62167e-20)
(1.11564 -0.0336316 1.03784e-20)
(1.02576 -0.0803773 -3.12286e-21)
(0.946532 -0.164553 -1.40239e-20)
(1.15626 -0.00816368 5.29946e-20)
(1.00191 -0.000577646 0)
(-0.26916 -0.000489042 0)
(0.166791 0.0410652 0)
(0.298941 -0.0213618 -6.25606e-20)
(-0.182586 0.0024377 -1.31046e-19)
(0.744002 0.0762075 0)
(-0.252277 0.00569895 0)
(1.19977 0.0465197 -1.30072e-21)
(0.91327 -0.0847603 0)
(0.999702 -0.00318113 1.25545e-22)
(1.20367 -0.484552 4.65052e-20)
(0.99136 -0.00899344 -1.13645e-20)
(1.01396 -0.0256948 8.07397e-23)
(0.907295 -0.101736 1.51706e-20)
(-0.0356195 0.0322768 0)
(1.07464 -0.0171641 -7.26779e-21)
(0.971391 -0.0433577 0)
(1.07719 -0.291237 3.04987e-20)
(1.14779 -0.0366354 3.20292e-20)
(0.989211 -0.00448662 9.69099e-22)
(0.596183 0.0199953 0)
(1.00957 -0.024894 1.09475e-21)
(0.202926 0.0482751 -4.22734e-22)
(1.23808 -0.372162 0)
(1.00618 -0.019906 2.85876e-21)
(1.06885 -0.00776495 -1.22622e-20)
(1.27231 -0.139813 5.83303e-20)
(1.11373 0.0734327 1.00391e-20)
(1.02361 -0.0130769 5.41994e-22)
(0.881011 -0.0863021 5.17254e-20)
(1.02028 -0.39138 0)
(1.03352 -0.0024803 0)
(-0.0905804 0.00342017 0)
(1.21423 0.0432508 -8.17714e-20)
(1.15948 0.0445394 9.60524e-20)
(0.976485 -0.0732742 0)
(0.82427 0.0797637 2.09339e-20)
(-0.112911 0.014614 0)
(1.0343 -0.00268914 0)
(1.25217 -0.00598986 -1.35083e-20)
(1.02014 -0.0423254 1.68042e-21)
(1.01008 -0.0254925 0)
(0.893944 0.0787052 3.45673e-20)
(0.102005 0.0490832 0)
(1.13004 -0.0349159 1.37481e-20)
(1.09143 0.0388792 2.39562e-20)
(0.990679 -0.00774081 6.35482e-21)
(1.10274 0.0446857 3.45476e-20)
(0.190211 0.0477935 3.626e-20)
(-0.0726242 0.0178731 9.39197e-20)
(1.03795 -0.00602306 -1.48524e-21)
(-0.296119 0.0039072 -1.84267e-19)
(1.01382 -0.0272954 4.7108e-23)
(1.02148 -0.0430943 -1.88133e-21)
(1.14142 -0.0112136 -2.48956e-21)
(1.07816 0.0184808 -3.8913e-20)
(1.02579 -0.00268432 0)
(1.02083 -0.0781575 -4.42353e-22)
(-0.0779659 0.00351919 0)
(1.25274 -0.17638 5.29733e-20)
(-0.105335 0.00341977 -3.81956e-20)
(1.07236 -0.0176608 6.68809e-21)
(0.993299 -0.0154644 -6.83315e-21)
(0.325216 0.0526208 -9.68166e-21)
(0.999516 -0.00447356 0)
(1.23701 -0.0811932 -1.37607e-19)
(1.08627 0.00737029 0)
(1.09232 0.0212037 3.38475e-20)
(1.1145 -0.018597 4.18777e-20)
(0.519348 0.0632849 1.0385e-20)
(-0.151038 0.0138071 -5.69117e-20)
(1.08859 -0.0328661 0)
(-0.291363 0.000635759 0)
(1.06408 0.00055095 -3.67541e-20)
(1.16675 -0.0208009 0)
(0.40848 0.0505269 -2.75885e-20)
(0.103901 0.0187346 2.52692e-20)
(1.01358 -0.0431032 3.09279e-22)
(1.00092 -0.027998 0)
(0.818236 -0.165012 0)
(-0.0970674 0.0043827 2.57587e-21)
(1.10078 0.0795352 1.75949e-20)
(1.1014 0.0443565 -3.21248e-20)
(1.04656 -0.559416 0)
(1.07805 0.0193057 2.81126e-20)
(1.10221 0.00825155 2.33436e-20)
(0.0290448 -0.0426386 -4.42155e-20)
(0.544192 0.0123362 -2.45855e-20)
(1.08912 -0.350475 -3.4496e-20)
(0.188216 0.0463639 -2.99122e-20)
(1.1349 0.0683362 0)
(0.460896 0.0515466 -1.36283e-20)
(1.04537 -0.0399224 0)
(1.12117 0.0869138 -4.98105e-20)
(1.18437 0.0633091 -5.35034e-20)
(1.00013 -0.0102083 5.44542e-22)
(-0.334336 0.00484815 -2.4424e-20)
(0.353526 0.0493589 0)
(1.0364 -0.129156 -9.50296e-21)
(1.12082 0.0192769 0)
(1.00364 -0.0382478 3.32198e-22)
(0.459607 -0.848571 0)
(1.15126 -0.195613 8.62786e-20)
(0.527426 -0.175022 -1.42705e-19)
(1.01125 -0.0343342 0)
(1.00078 -0.000516309 0)
(0.910756 -0.0521194 0)
(1.14636 -0.0394532 1.1558e-20)
(1.00169 -0.00817109 -2.15994e-21)
(-0.0629832 0.0296676 0)
(1.00091 -0.000618087 0)
(1.13543 0.0674036 0)
(0.971114 -0.0717697 -1.37175e-20)
(1.09508 0.0560739 0)
(0.991497 -0.0305034 5.09e-21)
(0.98849 -0.00465184 8.6398e-21)
(1.09906 -0.167628 3.04025e-20)
(-0.294927 0.00203088 5.73699e-20)
(1.14208 -0.0186393 0)
(-0.105857 0.0224032 0)
(1.10861 -0.0664167 5.57769e-21)
(1.01378 -0.0103045 1.67775e-21)
(1.03273 -0.0110247 0)
(1.15864 -0.0135685 0)
(1.05906 -0.0330517 0)
(1.20291 -0.0335814 0)
(1.07923 -0.0193408 2.09479e-21)
(0.878072 -0.121437 -1.99616e-20)
(1.12054 0.0858342 0)
(0.999392 -0.00421971 -4.35878e-21)
(0.259287 0.0124293 0)
(1.00007 -0.00154296 0)
(1.09546 0.0631199 -5.0694e-21)
(-0.275353 0.000786986 0)
(0.373064 0.0536762 -1.19686e-20)
(0.881998 -0.0328981 7.46669e-20)
(0.734447 -0.255216 7.10287e-20)
(1.06584 -0.290409 2.28024e-20)
(1.23 -0.255439 -5.40185e-21)
(0.324327 0.0507658 0)
(1.04062 -0.00712574 -1.0066e-20)
(0.505615 0.017649 -3.01868e-20)
(0.943437 -0.125341 1.86753e-20)
(1.11109 -0.0264504 4.3906e-20)
(-0.170133 0.000364117 2.60922e-19)
(1.28352 0.000131971 -6.79888e-20)
(1.02996 -0.00895295 1.44591e-20)
(1.20059 -0.0360808 -6.17295e-21)
(1.04828 -0.00998278 -5.62085e-21)
(0.425735 0.0473067 0)
(-0.281404 0.00682667 9.29492e-20)
(1.02692 -0.0444763 6.55178e-21)
(0.691491 -0.154548 0)
(0.555059 0.0725838 0)
(0.999992 -0.00131989 -5.10933e-21)
(0.99999 -0.00176587 3.08621e-21)
(1.09721 0.0534938 5.16923e-21)
(0.240987 0.00973957 -5.80251e-21)
(0.90544 0.0847801 -7.15973e-22)
(0.973906 -0.0192519 3.71539e-21)
(1.19014 0.0220527 -1.03278e-19)
(1.06661 -0.018046 -1.97525e-20)
(0.9874 -0.00576668 1.63626e-20)
(1.11861 0.0864711 5.61669e-21)
(1.18943 0.0248927 1.42994e-19)
(1.22699 -0.187029 0)
(1.02409 -0.0024987 -2.21651e-21)
(1.11426 0.0631827 -8.47191e-21)
(0.907556 -0.214946 -1.79564e-20)
(1.09536 0.0494608 0)
(0.957488 -0.0225458 0)
(1.01017 -0.0714472 9.5484e-22)
(1.14345 -0.195329 -1.0589e-19)
(0.914959 -0.05317 -2.53053e-20)
(1.11202 0.0662679 -4.15631e-20)
(1.13192 0.00923514 4.66509e-21)
(1.13485 0.00577309 9.1802e-20)
(1.07765 -0.337529 5.71492e-20)
(1.17393 -0.670165 -1.47235e-19)
(1.22021 0.0392889 0)
(0.607024 0.072317 9.83003e-21)
(0.988319 -0.0929457 4.67972e-20)
(1.10915 0.0700584 0)
(0.057808 0.021423 2.7405e-20)
(1.02627 -0.183677 0)
(0.860191 0.0770884 -4.23239e-20)
(1.1586 0.0465224 -4.95123e-20)
(1.0344 -0.0213968 0)
(1.10096 0.00711785 -1.99156e-20)
(1.21777 0.035048 -8.06394e-20)
(1.06189 -0.0913145 0)
(1.00576 -0.0185762 1.62738e-22)
(1.00623 -0.0175704 2.08118e-21)
(1.09763 0.0628068 2.57587e-21)
(0.168864 0.0116261 2.29944e-20)
(1.08368 0.0133171 -2.97946e-21)
(0.0449405 0.0421333 3.14749e-20)
(1.0136 -0.010705 -3.43252e-21)
(0.870414 0.0836147 2.3433e-20)
(1.00141 -0.381074 0)
(-0.243743 0.00958202 -1.63919e-19)
(1.20104 -0.0417798 5.67428e-20)
(1.08698 -0.0486642 0)
(1.07635 -0.0216286 0)
(-0.231495 0.0121542 8.4258e-20)
(1.22913 -0.181517 4.19714e-20)
(1.02679 -0.176577 0)
(1.13886 0.0800228 -1.56271e-20)
(1.04918 -0.0378542 4.08712e-22)
(1.23035 -0.444294 -8.77707e-20)
(1.09672 0.0634326 3.64457e-22)
(1.13723 0.0667977 0)
(1.11428 -0.0460622 4.40617e-20)
(1.28696 -0.155303 0)
(0.98872 -0.0198066 5.62886e-21)
(1.00009 -0.00181286 -4.3016e-21)
(0.941021 -0.02479 -2.10765e-20)
(0.986789 -0.00659645 -2.31162e-20)
(0.38909 0.0490988 0)
(1.00421 -0.00082357 0)
(1.11468 0.0847132 0)
(0.29307 0.0500392 -1.02089e-20)
(1.20478 -0.0435806 0)
(-0.0580407 0.0208883 -3.09211e-20)
(-0.185495 0.0127909 -6.13814e-22)
(1.13885 0.0672141 -2.31331e-20)
(1.23907 -0.251578 -3.47063e-20)
(0.884959 -0.0402775 3.14791e-20)
(0.998596 -0.000930526 -7.2256e-22)
(0.983209 -0.0184295 5.58644e-21)
(1.0216 -0.00653817 -8.24079e-21)
(1.03196 -0.0111068 2.28683e-21)
(1.00107 -0.000577591 0)
(1.16494 -0.0140545 5.3856e-20)
(1.22304 -0.0136524 9.9837e-20)
(0.904227 -0.22663 1.10436e-20)
(1.12847 0.0757173 -5.18647e-21)
(1.02661 -0.0670484 0)
(0.208066 0.0381037 0)
(0.999976 -0.000191631 0)
(-0.158607 -0.0146484 0)
(1.12669 -0.0961353 -4.81779e-20)
(0.999921 -0.000384933 1.01398e-21)
(0.997014 -0.00206184 -3.67173e-23)
(0.355749 0.053448 -3.73427e-20)
(1.08896 -0.0415363 2.30714e-20)
(0.89992 0.0842507 -3.194e-20)
(0.37025 0.0496978 5.87665e-21)
(1.11709 0.0191367 4.02515e-20)
(1.14274 0.0228207 -8.6064e-21)
(1.03299 -0.00158954 -4.78073e-21)
(0.260356 0.0518245 2.29941e-20)
(0.987251 -0.0860106 -1.38375e-20)
(1.07582 -0.0185078 1.96691e-21)
(1.11799 0.0863532 -5.58897e-21)
(0.998647 -0.00140737 -5.60321e-21)
(0.974846 -0.0463307 -4.29713e-21)
(1.03802 -0.0119871 0)
(1.09948 0.0348102 2.73207e-20)
(0.144366 0.0127981 -1.61971e-21)
(1.09926 -0.062484 -3.24585e-20)
(1.11536 -0.0405327 0)
(1.27106 -0.17351 2.97493e-20)
(-0.101649 0.0162389 3.22567e-20)
(0.886964 -0.0626935 -3.31724e-20)
(0.989637 -0.110228 5.9008e-21)
(0.44213 0.0519438 1.32359e-20)
(1.02113 -0.00633269 -3.7512e-21)
(0.431607 0.0506429 -6.32095e-21)
(1.00041 -0.00128445 9.44122e-22)
(1.06909 -0.0164192 1.66696e-20)
(1.17101 -0.0140458 -1.11561e-19)
(1.11999 0.0493727 3.06658e-21)
(1.13557 0.0577379 3.29043e-20)
(1.20136 -0.104886 -2.90323e-20)
(1.143 -0.0161467 0)
(0.999525 -0.00129677 0)
(0.999988 -0.000194262 7.3207e-21)
(1.17076 -0.0199303 -7.00093e-20)
(1.04701 -0.0397787 6.44518e-21)
(0.999639 -0.00107079 0)
(1.08227 0.017642 4.5596e-20)
(1.25838 -0.213546 1.44706e-20)
(1.00507 -0.00600215 6.69186e-22)
(1.21693 -0.269577 -1.15184e-20)
(1.27578 -0.483274 -6.30384e-20)
(0.953816 0.085782 0)
(1.19987 -0.100019 0)
(-0.0615519 -0.0159923 -8.74965e-20)
(0.839019 -0.0974759 -6.84674e-21)
(0.998467 -0.00129215 1.21959e-20)
(1.2332 -0.117822 -5.04004e-20)
(1.01302 -0.011173 0)
(1.09149 -0.0263589 -1.30833e-20)
(0.653407 0.0762645 0)
(0.468367 0.0486242 -2.1753e-20)
(0.495545 0.0177739 -3.68811e-20)
(0.482143 0.056498 -2.57709e-20)
(1.03086 -0.0447697 4.48709e-21)
(1.02677 -0.0435936 -6.9461e-21)
(0.98061 -0.287192 0)
(1.00644 -0.0687817 3.07178e-21)
(1.02406 -0.0201432 0)
(0.529298 -0.27463 -1.03783e-19)
(1.14687 0.0635751 -2.53575e-20)
(0.128165 0.0170147 3.1381e-20)
(1.09474 0.0637357 0)
(1.12153 0.0497161 0)
(0.985444 -0.00856099 0)
(1.02191 -0.0133439 0)
(1.27956 -0.33873 -1.05659e-19)
(1.15138 0.032252 -3.47104e-20)
(1.07129 -0.0162354 3.20673e-21)
(0.999802 -0.000398667 -6.22557e-21)
(1.13277 0.059276 0)
(1.24182 -0.0453589 9.15853e-20)
(0.0551422 0.0432307 -4.18766e-20)
(0.973119 -0.0240093 -1.38674e-20)
(1.00099 -0.0036042 0)
(0.126656 0.0107215 7.2347e-21)
(0.958569 -0.0211054 0)
(1.11516 -0.0236331 5.15212e-20)
(1.01312 -0.00870883 0)
(-0.0174268 0.0346547 2.52142e-20)
(1.01027 -0.000509401 1.14027e-21)
(-0.267713 -0.00219892 -1.37176e-19)
(0.994993 -0.0074514 0)
(1.20823 -0.204311 1.33179e-19)
(1.12116 -0.0017744 0)
(0.956745 -0.290968 9.63042e-21)
(1.11635 -0.0442555 -4.46999e-20)
(0.993947 -0.0279351 1.21572e-20)
(1.07701 -0.0290552 -1.99781e-20)
(1.00357 -0.00431969 -1.25911e-21)
(1.11012 0.0833778 9.69777e-21)
(0.961879 -0.0302569 2.26397e-22)
(0.27415 0.0205316 1.54694e-20)
(1.05145 -0.0368979 0)
(0.927003 0.0756186 -8.33243e-21)
(0.228962 0.0462422 -4.89057e-20)
(1.1097 -0.0508647 -1.14757e-20)
(1.00419 -0.00308391 -2.4665e-22)
(-0.187425 -0.0126271 -1.12253e-19)
(0.719472 0.0756723 0)
(1.09112 -0.0327666 0)
(1.11831 0.0500908 -3.97446e-20)
(0.983205 -0.0174757 0)
(0.206109 0.0122814 -4.21073e-20)
(1.03537 -0.0220864 0)
(1.22034 0.0318206 0)
(0.999515 -0.0112191 5.04975e-21)
(1.00387 -0.0045057 5.21121e-22)
(0.942578 0.0884042 3.01499e-20)
(1.11536 -0.0167107 -4.97168e-20)
(1.00065 -0.00792547 7.35472e-21)
(1.08388 0.0263088 -3.68084e-20)
(0.110425 0.0438553 -1.77611e-20)
(0.718626 -0.803021 9.90232e-21)
(0.50793 0.0720236 0)
(1.01905 -0.0168684 0)
(0.0742191 0.0236912 -2.32087e-20)
(0.997776 -0.0101595 3.51363e-21)
(1.00485 -0.00566485 -5.81012e-22)
(0.974508 -0.0269289 0)
(1.02027 -2.9111e-05 0)
(0.999897 -0.00244709 -9.60169e-22)
(0.45463 0.073601 3.17435e-20)
(0.620954 0.0733807 0)
(1.04918 -0.0211464 -6.4338e-21)
(1.00095 -0.000847732 3.23281e-22)
(1.13146 -0.0319049 0)
(1.01745 -0.0244189 0)
(-0.157132 -0.0169839 9.85463e-20)
(1.23763 -0.114148 9.84433e-21)
(0.039232 0.0179887 -1.74707e-20)
(-0.039957 0.0232692 0)
(1.07657 -0.0302368 2.13294e-20)
(1.11319 0.0656907 0)
(1.00019 -0.0108094 4.02246e-21)
(1.12385 0.00187665 -5.43202e-20)
(0.996237 -0.36313 0)
(1.03983 -0.00647867 4.68508e-21)
(1.00036 -0.00126333 0)
(1.3146 -0.326278 3.49907e-20)
(-0.271247 0.00758995 -5.02859e-20)
(1.1405 0.0231805 1.31258e-20)
(-0.333167 -0.0014014 0)
(1.12427 0.033895 3.34814e-20)
(0.995874 -0.00440288 -1.30021e-20)
(1.13519 -0.04444 8.85714e-21)
(1.11769 0.0509858 5.16219e-20)
(-0.312081 0.00312395 -1.41407e-20)
(1.10797 -0.0059279 4.04945e-20)
(1.07682 0.0887326 2.85685e-20)
(1.15378 0.0323735 1.93834e-20)
(1.00024 -0.00247678 -2.61324e-21)
(0.318553 -0.107767 0)
(0.223283 -0.0737655 0)
(0.17557 0.017336 0)
(1.20322 0.0064241 0)
(0.907372 0.0777817 4.93669e-21)
(0.981014 -0.0758642 -1.0948e-20)
(0.727506 -0.361605 0)
(0.972464 -0.00713033 -4.17246e-20)
(1.16595 0.0697488 0)
(1.06077 -0.0878504 0)
(1.00836 -0.00162235 -1.4363e-21)
(0.462307 0.0723418 -1.63114e-20)
(1.02269 -0.0661851 3.58492e-21)
(1.0041 -0.00283108 2.91926e-22)
(1.0149 -0.0431215 0)
(1.02119 -0.0643878 -2.09811e-21)
(-0.0457982 0.0321013 0)
(1.2115 0.0392413 0)
(1.01302 -0.0156789 1.28195e-22)
(1.13729 -0.0416534 0)
(0.00575826 0.0153164 7.62423e-20)
(1.04113 -0.0604979 -1.66451e-21)
(-0.347549 0.000551224 1.05291e-19)
(0.95854 -0.0475783 -9.05674e-21)
(1.12597 0.0441031 -2.98257e-20)
(0.0663119 0.0466771 0)
(1.00146 -0.00751409 -4.5852e-21)
(1.09955 0.0808527 0)
(1.07111 -0.103613 7.49182e-21)
(1.11292 -0.0519771 1.12706e-20)
(0.672147 -0.831076 -2.63953e-20)
(1.02519 -0.0654648 -8.31851e-22)
(1.27388 -0.0870359 0)
(1.09576 0.0510416 0)
(0.149888 0.0485168 1.70112e-20)
(1.04983 -0.0039276 -2.36054e-20)
(0.227134 0.0174125 0)
(1.10698 -0.0289396 0)
(0.00893338 0.021262 0)
(-0.305708 0.00547991 -1.0383e-19)
(0.204546 0.013259 0)
(1.11471 0.0220442 3.08973e-20)
(0.990891 -0.0264354 5.09971e-21)
(1.03022 -0.046025 -4.80044e-21)
(0.999973 -0.00128542 -6.46292e-21)
(1.08436 0.0380287 0)
(0.99704 -0.00396044 0)
(0.124558 0.0411262 7.95936e-21)
(1.03269 -0.120666 0)
(0.926624 -0.0931019 -2.02333e-20)
(0.889813 -0.0592544 -6.27761e-22)
(0.983081 -0.0744325 -5.75073e-21)
(1.01858 -0.0162707 3.21424e-21)
(1.07125 0.0206556 -1.81799e-20)
(1.06801 -0.0888971 2.06442e-20)
(1.06875 -0.00907952 4.47395e-22)
(1.0471 -0.100801 -3.52818e-21)
(0.254408 0.0524191 -7.59648e-20)
(1.10588 0.0822991 -2.37561e-22)
(1.10401 -0.0198708 1.82357e-20)
(1.11971 -0.156988 -3.23015e-20)
(0.491067 0.0723641 -2.13377e-20)
(0.97211 -0.0459015 -5.30467e-21)
(-0.134813 -0.00152256 -1.5949e-19)
(1.02048 -0.00634675 7.32748e-21)
(1.03399 -0.14546 -1.28397e-20)
(0.960056 -0.0289822 -7.78181e-21)
(1.02535 -0.0296547 0)
(1.08314 -0.171054 0)
(1.00037 -0.012161 -4.39701e-21)
(1.01329 -0.0152989 0)
(0.787854 -0.112867 0)