/*--------------------------------*- C++ -*----------------------------------*\
| =========                 |                                                 |
| \\      /  F ield         | OpenFOAM: The Open Source CFD Toolbox           |
|  \\    /   O peration     | Version:  v2012                                 |
|   \\  /    A nd           | Website:  www.openfoam.com                      |
|    \\/     M anipulation  |                                                 |
\*---------------------------------------------------------------------------*/
FoamFile
{
    version     2.0;
    format      ascii;
    class       volVectorField;
    location    "150";
    object      U;
}
// * * * * * * * * * * * * * * * * * * * * * * * * * * * * * * * * * * * * * //

dimensions      [0 1 -1 0 0 0 0];


internalField   nonuniform List<vector> 
13851
(
(1.12485 0.0553817 -6.41571e-20)
(1.06777 -0.0214412 0)
(1.06625 -0.0205353 0)
(-0.192457 -0.0165552 0)
(1.00201 -0.000438197 0)
(1.07759 -0.0343655 0)
(1.05445 0.0113099 1.2681e-20)
(1.01258 -0.000704309 0)
(0.354922 0.0511061 0)
(0.991224 -0.00667606 0)
(1.15729 -0.0888514 0)
(1.00125 -0.00797846 6.21753e-21)
(0.980851 -0.018216 1.64899e-20)
(0.127341 0.0176098 -2.72274e-20)
(1.09428 0.0110875 -1.96341e-20)
(1.07426 0.0443892 0)
(-0.318911 -0.000225389 0)
(1.03342 -0.0181281 0)
(1.19163 0.0382284 8.20744e-20)
(1.12642 0.0534958 6.54094e-20)
(1.10576 0.00662887 -5.83858e-22)
(1.03821 -0.0866124 7.04041e-21)
(0.565233 -0.273142 -6.98217e-20)
(1.00007 -0.00020479 0)
(1.26335 0.000442347 0)
(1.07948 0.0391128 2.63268e-20)
(1.07465 0.0748389 1.67349e-20)
(1.18297 0.0792217 -6.03691e-22)
(0.511218 0.0417689 -7.68172e-21)
(1.01955 -0.0113126 -2.29706e-21)
(-0.0896227 -0.00956465 0)
(1.05466 0.0107437 -1.64659e-20)
(1.11592 0.0563864 0)
(0.432641 0.0710726 -8.86958e-21)
(1.12587 -0.0760329 -4.07276e-20)
(0.542676 0.0398571 0)
(1.00004 -0.000182991 -3.46458e-22)
(1.28805 -0.123964 0)
(0.0408394 0.0317535 5.48221e-20)
(1.00605 -0.0362691 8.65519e-21)
(0.24093 0.051575 -1.48282e-20)
(0.547392 0.0451345 7.72378e-21)
(-0.250712 -0.003381 0)
(1.10871 -0.470979 -1.38599e-19)
(0.563174 0.0530369 0)
(1.01389 -0.0212963 3.42727e-22)
(1.01859 5.57954e-06 6.14943e-21)
(1.07878 0.0509422 0)
(1.04401 -0.0533572 1.4134e-20)
(0.980525 -0.0172782 -6.89905e-21)
(-0.208742 0.00559677 1.75851e-19)
(0.973772 -0.0115491 0)
(1.07471 0.0449358 0)
(1.07001 0.02107 -1.20143e-20)
(0.20717 0.0152774 -3.01963e-20)
(1.00504 -0.0365571 -9.17477e-21)
(1.1177 0.0575257 3.9139e-21)
(0.204214 0.0453366 0)
(1.06124 0.0606443 2.59835e-20)
(-0.00944227 0.0151326 4.57198e-21)
(1.00115 -0.00757547 -1.99236e-21)
(1.08019 0.0733723 -3.15669e-20)
(0.995555 -0.00248898 3.86682e-23)
(1.04449 -0.0554909 -3.74783e-21)
(0.882816 -0.444808 0)
(0.8643 -0.465393 7.5028e-21)
(-0.0307477 0.0106323 1.20103e-20)
(0.695503 -0.122303 -4.14496e-20)
(1.0194 -0.0371434 -2.48623e-22)
(-0.161594 -0.0159986 0)
(-0.161348 0.000231395 -1.80748e-19)
(1.11479 0.0108541 -4.94878e-22)
(0.993655 -0.0251254 9.24664e-21)
(-0.0111662 0.0130352 -5.20921e-21)
(1.07625 0.0191144 1.35428e-20)
(1.02014 -0.0701849 -1.52457e-22)
(-0.293283 -0.002063 8.95867e-20)
(1.02034 -0.0058789 5.359e-21)
(1.28387 -0.00306609 2.9381e-20)
(1.00461 -0.0169444 -8.27596e-21)
(1.02058 -0.0377083 1.12903e-21)
(1.25493 -0.0668558 -3.06434e-21)
(1.1225 -0.0778539 3.32823e-20)
(0.113516 0.0175349 1.12982e-20)
(0.00674704 0.0159653 8.91745e-21)
(-0.114111 -0.00525909 0)
(1.04142 -0.0876976 -7.77853e-21)
(0.336335 0.00972797 1.18834e-20)
(0.991857 -0.0107467 0)
(-0.0862163 -0.00931924 9.74333e-20)
(0.972538 -0.0107563 0)
(1.0558 0.0106235 0)
(-0.211418 -0.00204077 -1.72423e-19)
(-0.150176 -0.00553184 8.91941e-20)
(-0.00103558 0.0237136 0)
(1.09212 -0.431147 0)
(1.00919 -0.0229723 -1.51268e-21)
(1.07571 0.048365 1.43637e-20)
(-0.147955 0.00738416 -5.39019e-20)
(1.22 -0.177751 7.63253e-20)
(1.07549 0.0495433 1.64088e-20)
(0.812346 -0.114787 -3.65144e-20)
(0.813027 -0.147677 -3.7528e-20)
(0.989627 -0.0267761 1.10125e-20)
(1.01727 -0.0208745 0)
(1.12118 -0.00282956 2.44903e-20)
(1.01658 -0.0206574 0)
(-0.14101 -0.00179996 1.95687e-19)
(1.05594 0.00993269 9.24543e-21)
(1.03253 -0.0176124 -2.4522e-21)
(1.02737 -0.124861 -4.12123e-21)
(1.01462 -0.0216609 -2.15948e-22)
(1.19874 -0.00816013 8.88763e-21)
(1.15294 -0.0371518 0)
(1.10189 0.0582343 2.7795e-20)
(1.06943 0.019967 -9.66642e-21)
(1.01372 -0.00752876 9.4561e-22)
(1.01321 -0.000822723 -1.56454e-21)
(-0.209368 -0.0139216 0)
(-0.122845 -0.0205138 4.67682e-20)
(1.12077 -0.353962 1.5152e-20)
(1.02712 -0.0148877 -5.81027e-22)
(1.01472 -0.037845 -2.58282e-23)
(0.118593 0.0333261 0)
(1.17088 0.0525373 5.63817e-20)
(0.617305 -0.204095 4.0736e-20)
(1.00968 -0.0226834 2.76011e-21)
(1.12994 -0.140651 5.16092e-20)
(0.263465 0.0552965 -1.9175e-20)
(1.10392 0.0171473 5.18436e-20)
(1.03499 -0.0885975 0)
(1.09455 -0.0595634 0)
(1.3487 -0.134605 -1.9353e-19)
(0.413352 0.0695869 0)
(1.16129 -0.0857115 -3.26733e-20)
(-0.014541 0.027119 5.1322e-20)
(0.708566 -0.11461 -2.6295e-21)
(-0.130105 -0.00386239 0)
(0.849678 -0.0862082 7.12615e-20)
(1.09964 0.0195293 -2.3942e-20)
(1.25258 -0.0706707 5.76719e-21)
(0.975111 -0.042175 0)
(0.991168 -0.0108312 4.03982e-21)
(0.747516 -0.308422 1.33147e-19)
(1.21904 0.0268376 -7.1847e-20)
(1.00697 -0.0687387 3.55417e-21)
(1.02013 -0.00548946 -6.18548e-21)
(-0.141373 -0.00669992 -8.98365e-20)
(0.364401 0.0346509 -4.8378e-21)
(1.13521 -0.142566 -6.27871e-20)
(1.07629 0.0502632 -2.64514e-20)
(1.19797 -0.0109819 3.03307e-20)
(1.15663 -0.0360311 -3.61096e-20)
(1.18203 0.0380423 0)
(0.972712 -0.0212256 0)
(0.98382 -0.00767706 0)
(1.00128 -0.00641907 -3.46979e-22)
(0.000566452 0.0268711 -3.77199e-20)
(1.09813 0.0162461 3.10099e-20)
(1.05767 0.00207519 -1.22365e-20)
(1.00014 -0.000482085 0)
(0.523869 0.0404221 5.29745e-21)
(1.11854 -0.00218707 0)
(1.07976 0.0514718 -9.64992e-21)
(0.131969 0.0167313 4.94876e-22)
(0.455869 0.0620839 0)
(0.467983 0.0640731 0)
(-0.191331 0.00764176 -7.94323e-20)
(1.02796 -0.120024 1.45692e-21)
(0.789876 0.0638581 -6.11436e-20)
(1.00087 -0.00705658 3.05438e-21)
(1.01365 -0.00715358 -1.51065e-21)
(1.13559 -0.00525194 0)
(1.00106 -0.000415787 0)
(0.0292769 0.0290797 2.44063e-20)
(1.10171 0.0842287 -1.01411e-20)
(1.0809 0.0575161 -3.23015e-21)
(1.01419 -0.00710252 2.13164e-21)
(1.0746 0.02028 0)
(1.0807 0.0559921 1.06381e-20)
(1.16739 0.0522191 -5.27102e-20)
(1.11497 -0.452125 7.52949e-20)
(1.03314 -0.112966 2.00909e-21)
(1.10206 0.0171308 -3.96307e-20)
(-0.260044 -0.00377684 0)
(0.373474 0.0349519 1.10155e-20)
(1.11418 0.0577998 -3.04994e-20)
(0.890367 -0.0637425 -1.6651e-20)
(0.977097 -0.0220534 -8.29117e-21)
(1.01802 -0.0154357 -6.11615e-22)
(1.26429 0.0226856 5.30768e-21)
(1.09899 0.0152744 0)
(0.105475 0.0104096 -1.90998e-20)
(1.07885 -0.0323433 1.79091e-20)
(1.0087 -0.0666874 0)
(1.07509 0.0465934 9.13338e-21)
(1.11239 0.05661 3.63037e-20)
(1.04301 -0.0100957 -8.50657e-21)
(1.03905 -0.0258358 -1.37379e-20)
(0.71185 -0.157711 1.68768e-20)
(1.25456 -0.0818441 4.84408e-20)
(0.0646612 0.0298345 -4.31052e-20)
(0.186916 0.0464298 -5.66126e-20)
(1.09272 0.0117258 1.81514e-20)
(0.952437 -0.712857 0)
(0.0298872 0.0278697 -4.8528e-20)
(0.938027 -0.0189068 0)
(1.09212 0.0246058 0)
(0.346011 0.0535514 2.19594e-20)
(1.07262 -0.0417997 9.56616e-21)
(1.07429 0.0429506 2.47771e-21)
(1.01409 -0.0370695 6.55944e-22)
(1.2571 -0.0774981 0)
(1.00011 -0.00211161 0)
(1.12893 -0.0689289 0)
(1.02384 -0.0776339 8.12126e-22)
(0.981784 -0.0162109 0)
(1.13766 0.0677701 0)
(1.04261 -0.0181111 -7.51004e-21)
(0.154118 -0.541833 0)
(1.01421 -0.00671511 -1.92121e-21)
(1.13095 0.05205 0)
(0.0916732 0.0128874 1.86261e-22)
(0.00401012 0.0265802 -2.34046e-20)
(0.902359 -0.0730238 -3.12217e-20)
(1.09173 0.0253723 4.15843e-22)
(1.00002 -0.00103619 0)
(0.750268 -0.286967 -1.8145e-20)
(1.00149 -0.0123756 1.17694e-21)
(1.12584 -0.0703703 0)
(-0.033806 -0.0378314 4.64109e-20)
(0.896016 -0.064383 0)
(1.07236 -0.0398019 0)
(0.996323 -0.000714659 9.28881e-22)
(0.171087 0.0456902 6.22568e-20)
(1.02019 -0.0111454 2.4108e-21)
(0.925147 -0.434915 1.22379e-19)
(0.164881 0.0419215 3.40738e-20)
(1.21172 -0.173293 0)
(1.0001 -0.000458957 4.01415e-22)
(1.29894 -0.312191 5.61008e-21)
(0.0194381 0.0159555 6.7532e-20)
(0.594573 0.0550177 -7.04103e-21)
(1.0746 0.0434739 0)
(1.0985 -0.0104152 0)
(0.711539 -0.340746 5.56852e-20)
(1.13664 0.0651444 -2.72362e-20)
(1.07421 0.021253 1.31238e-20)
(1.09445 -0.412822 0)
(1.04629 -0.126175 0)
(0.26695 0.0106451 0)
(1.15593 0.0355002 7.12596e-20)
(1.00982 -0.000762835 -1.94604e-22)
(1.07662 -0.0126072 -1.91445e-20)
(1.07494 0.0477359 -3.29327e-20)
(0.512759 0.038338 0)
(0.407423 0.0104056 0)
(1.01757 -0.0147797 -9.1482e-22)
(0.592997 -0.199849 -3.55349e-20)
(0.992708 -0.0115918 -1.11997e-22)
(1.11496 0.0685504 0)
(1.17454 0.0468385 -3.36628e-21)
(1.07829 -0.01199 -1.50147e-20)
(1.11852 0.000903871 6.41518e-20)
(1.15912 0.0354353 -8.34472e-20)
(0.999308 -0.0234448 1.77942e-22)
(0.807679 -0.12457 4.03594e-20)
(1.0827 0.049775 0)
(1.1804 0.0851794 8.23565e-20)
(0.997809 -0.0078916 -1.27757e-22)
(0.98169 -0.0152324 -3.40016e-21)
(0.896846 -0.0715242 3.56779e-20)
(0.448716 0.0704395 6.10275e-21)
(-0.263776 -0.00721669 0)
(1.10847 0.011359 7.94306e-21)
(1.02808 -0.0153613 0)
(1.16601 0.0559126 -6.68428e-20)
(1.17836 0.0425187 6.39253e-20)
(1.10578 0.0540764 -1.25365e-20)
(1.11656 0.00148127 -6.04028e-20)
(0.413868 0.0654742 0)
(-0.115372 0.00781858 -8.43297e-28)
(1.08182 -0.0193976 0)
(1.08966 0.008542 9.76508e-21)
(1.22186 -0.157958 1.73529e-21)
(1.0192 -0.0200104 -2.63437e-21)
(1.00141 -0.00608522 2.78481e-21)
(1.10764 0.0551652 -8.31202e-21)
(1.1441 -0.104837 -3.43355e-21)
(1.02146 -0.0113489 3.06192e-21)
(1.00013 -0.00207867 2.51607e-21)
(1.00127 -0.0127296 2.94399e-21)
(1.00409 -0.000591413 -1.65894e-21)
(1.09492 -0.00264499 -8.91083e-20)
(1.00146 -0.00646927 -2.83468e-21)
(0.366786 0.0541399 3.84701e-21)
(1.10736 0.00797072 2.77175e-20)
(1.01088 -0.0305815 -2.16367e-21)
(0.51913 0.0365033 3.91007e-21)
(0.105979 0.0309639 -1.84264e-20)
(0.974928 -0.0168379 -8.44969e-21)
(1.1295 0.054209 -1.78845e-20)
(-0.180107 0.00579908 1.69842e-20)
(0.974006 -0.0444566 -1.1621e-20)
(0.973556 -0.0161445 1.4123e-20)
(1.10958 0.00785717 0)
(0.07742 0.0130719 0)
(0.29264 0.00265382 1.11234e-19)
(1.13566 0.0064393 4.86986e-20)
(1.00222 -0.000572015 0)
(0.826213 0.0666683 4.8237e-20)
(1.00097 -0.00745235 1.06037e-21)
(1.14125 0.00650242 0)
(-0.16255 0.00801588 4.0105e-21)
(1.17535 0.0878461 -1.68993e-20)
(1.05656 0.00171418 0)
(1.3082 -0.187359 0)
(1.32168 -0.143151 0)
(-0.106717 0.00263997 1.85106e-19)
(1.20062 -0.0176936 -6.28026e-20)
(0.782231 -0.0936735 2.10517e-21)
(0.0332883 0.0297881 -5.24774e-20)
(0.163684 0.0422023 5.26497e-20)
(1.19141 0.0756483 6.83054e-20)
(1.04032 -0.0265605 -1.44652e-22)
(-0.269418 -0.00287569 -1.05274e-19)
(0.201827 0.00258905 -1.30051e-20)
(0.464302 -0.454224 0)
(0.499684 -0.460094 -3.21943e-21)
(0.936443 -0.0200681 5.49926e-21)
(1.13873 -0.000635709 0)
(0.948643 -0.113849 -1.49745e-20)
(0.344828 0.010794 0)
(0.787767 -0.140587 -8.45991e-20)
(1.00775 -0.00181487 -5.48327e-22)
(1.01866 -5.38156e-05 -1.52833e-23)
(1.06768 -0.075855 0)
(-0.136572 -0.0012233 -2.02043e-19)
(0.208168 -0.54862 0)
(1.01921 -0.0192521 1.58451e-21)
(-0.011834 0.0244661 3.14572e-21)
(0.9379 -0.111351 0)
(1.09547 -0.062376 0)
(1.05785 0.00287147 0)
(0.0681595 0.0101415 0)
(1.16305 0.0558993 5.58692e-20)
(1.07442 0.0459745 0)
(1.02154 -0.0754713 -4.03225e-22)
(1.06989 -0.0391175 0)
(0.582106 0.0335508 0)
(0.976982 -0.0236463 0)
(1.18173 0.0412886 2.17177e-21)
(1.08036 -0.018325 0)
(1.11094 0.00670062 2.82159e-20)
(0.932153 -0.113658 0)
(0.992058 -0.0115633 0)
(1.01162 -0.0301712 3.74793e-21)
(1.21772 -0.0701513 -1.67711e-20)
(1.22789 -0.172696 -2.7116e-21)
(1.15236 0.0391764 2.58913e-21)
(1.36364 -0.145365 9.14277e-20)
(0.591624 0.0351852 1.13431e-20)
(1.00821 -0.0701307 -2.15786e-21)
(0.146187 0.0415711 0)
(1.1194 0.0739699 -2.07586e-20)
(1.02614 -0.00789593 0)
(1.16964 0.090259 8.59709e-21)
(1.12511 0.0383724 1.44961e-20)
(-0.132761 0.00953859 1.09585e-19)
(1.06564 -0.0735253 0)
(1.07721 0.0400596 3.94853e-22)
(1.06633 0.0599422 1.35036e-20)
(1.32576 -0.0737645 -9.22116e-20)
(1.21564 -0.0806536 3.17141e-20)
(0.333018 0.0113001 -8.1813e-21)
(1.04387 -0.036666 7.14204e-21)
(1.10116 0.0859927 -6.1421e-21)
(-0.352655 -0.00309131 -2.81606e-20)
(1.09477 -0.0216107 2.45783e-20)
(0.287138 0.0151178 1.58871e-20)
(1.10145 -0.0230945 -2.00385e-20)
(0.194713 0.0419741 4.95997e-20)
(1.0889 0.00751082 1.75237e-20)
(1.07207 0.0308918 0)
(1.16198 0.0299748 -8.53013e-20)
(1.24997 -0.146605 0)
(0.983869 -0.00858285 1.14622e-20)
(1.07956 -0.0243498 0)
(1.14841 -0.107323 4.31339e-21)
(1.0759 0.0201388 -1.52001e-20)
(1.01223 -0.0233736 -2.63494e-22)
(1.1081 0.0131283 2.13625e-21)
(0.720213 0.0899438 3.77023e-20)
(0.994436 -0.0250734 0)
(1.09354 0.0238582 0)
(-0.220994 -0.0137463 2.87895e-20)
(1.0633 -0.0369207 1.7647e-20)
(1.27303 -0.475915 -8.28064e-20)
(1.08007 0.0298554 2.51787e-21)
(0.36468 0.00169794 -1.36911e-19)
(1.07504 -0.0431071 -2.08353e-20)
(1.07934 0.0384501 0)
(0.927764 -0.68658 1.87354e-20)
(1.174 0.0492046 -1.46077e-20)
(1.12204 -0.00780931 6.29915e-20)
(0.389368 0.00803162 -2.07699e-23)
(-0.000838499 0.0122144 -8.38687e-20)
(1.26842 -0.307652 0)
(0.998552 -0.0235011 1.94097e-22)
(1.21374 -0.0673896 8.31563e-21)
(1.10325 -0.0292966 4.44981e-20)
(1.07757 0.0398052 0)
(1.02578 -0.016426 7.24886e-21)
(-0.254172 -0.00181697 -7.36371e-22)
(0.668415 0.0846507 -2.39058e-20)
(1.29727 -0.0393696 -1.07206e-20)
(1.06943 -0.0372449 3.60133e-21)
(1.16186 0.0321772 7.62315e-20)
(1.08743 0.0774952 1.38905e-22)
(-0.248187 -0.00993969 0)
(1.02299 -0.00302016 3.45174e-21)
(-0.30688 -0.000698545 1.18682e-19)
(1.25732 -0.131212 -1.24929e-20)
(0.304194 -0.186193 8.17095e-20)
(1.05066 -0.12875 0)
(1.20418 0.0474914 4.48464e-20)
(0.987535 -0.0157136 1.0858e-20)
(1.00124 -0.00035557 0)
(0.198476 0.0120988 3.67514e-20)
(1.09083 0.0794775 -2.27216e-20)
(0.990547 -0.00718832 -2.03192e-20)
(1.0677 -0.0228546 1.00225e-20)
(1.09508 0.0240771 0)
(1.0121 -0.00813432 -3.8232e-22)
(0.742198 0.0882899 2.41349e-20)
(1.1386 0.00189448 -1.26015e-20)
(1.1257 0.036972 0)
(1.07082 0.000643158 0)
(1.04449 -0.0355586 -1.16617e-20)
(0.972259 -0.00561664 3.35669e-20)
(1.33931 -0.0814958 1.31454e-19)
(1.00977 -0.0299135 -4.393e-21)
(0.973318 -0.00460425 -1.89891e-20)
(0.940273 0.0528659 6.07764e-21)
(0.754118 0.0886701 -4.60953e-20)
(1.03187 -0.08626 0)
(1.07208 0.0607711 -1.38679e-20)
(0.995752 -0.0020162 -7.41241e-21)
(1.00156 -0.00612945 1.67465e-22)
(1.0655 -0.0377159 0)
(1.1551 0.03919 1.17008e-20)
(1.07738 0.0309097 5.12712e-21)
(1.0121 -0.0247455 3.50138e-22)
(1.05297 -0.0284486 -7.10418e-21)
(1.12205 -0.342622 3.46559e-20)
(1.05987 -0.0161155 -1.67066e-20)
(0.406547 -0.00656346 0)
(1.00142 -0.00748459 2.91263e-21)
(1.07013 0.0110215 0)
(0.570148 0.0548832 -1.38704e-22)
(0.94044 -0.156863 0)
(1.01792 -0.000632851 0)
(1.00045 -0.00662022 1.01488e-21)
(1.07054 -0.000263963 0)
(1.04564 -0.00903193 0)
(1.25037 -0.36109 -7.684e-20)
(0.866332 0.0528866 -1.97994e-20)
(1.0993 -0.00891105 7.40913e-21)
(0.324438 -1.13596 7.86122e-20)
(1.06703 -0.0363319 -6.69229e-21)
(1.00022 -0.00997299 6.66957e-22)
(0.306076 0.0580813 1.91704e-22)
(1.06832 0.0616077 -2.79687e-20)
(0.879306 -0.12042 0)
(0.995547 -0.0288143 8.60696e-21)
(0.150168 0.0395472 -6.20439e-22)
(0.859112 -0.0915201 -2.34731e-20)
(1.20121 -0.646238 5.2486e-20)
(0.989009 -0.0259492 -6.94732e-21)
(1.09687 -0.0543805 0)
(1.21902 -0.0772994 0)
(1.08166 0.0186587 0)
(0.201687 0.0479906 -2.31727e-20)
(1.08414 0.0775784 0)
(1.32935 -0.0475007 0)
(0.976689 -0.067521 7.82634e-21)
(1.20131 -0.0144537 3.7278e-20)
(1.00041 -0.0246834 -9.79715e-21)
(0.500305 0.0398683 -6.2893e-21)
(1.08058 0.0293435 9.10872e-21)
(1.11067 0.0569017 2.14908e-20)
(1.10163 -0.0275521 -3.59544e-20)
(1.022 -0.0723675 1.08476e-21)
(0.946928 -0.154237 0)
(1.13579 -0.00209564 0)
(1.0018 -0.000528572 0)
(-0.28537 -0.00526807 2.56965e-19)
(0.271903 0.0532671 1.29233e-20)
(0.450804 -0.0113672 0)
(-0.18509 -0.00469893 6.77933e-20)
(0.886391 0.0542308 1.77228e-20)
(-0.22684 0.00874018 0)
(1.17807 0.0454222 -7.27516e-20)
(0.913596 -0.0765438 0)
(0.999678 -0.00289578 8.93214e-21)
(1.25778 -0.480369 9.79149e-20)
(0.991265 -0.00598413 6.06319e-21)
(1.01193 -0.022747 0)
(0.907769 -0.0931839 -1.53272e-20)
(0.0554819 0.0313258 -5.54437e-21)
(1.0651 -0.0151258 0)
(0.97072 -0.0375695 3.30036e-21)
(1.08003 -0.274402 3.00757e-20)
(1.13026 -0.0280686 -2.23576e-20)
(0.989298 -0.00137519 9.96539e-22)
(0.781009 0.03946 4.31017e-20)
(1.00793 -0.0220809 0)
(0.315157 0.0606153 0)
(1.24089 -0.345106 5.17843e-20)
(1.00501 -0.0175334 0)
(1.05987 -0.0071495 -1.92183e-20)
(1.25627 -0.105018 5.54952e-20)
(1.17644 0.0878416 -4.69711e-20)
(1.02088 -0.0115927 6.0947e-23)
(1.10082 -0.0741184 4.89626e-20)
(1.1015 -0.402847 -1.05292e-19)
(1.02985 -0.0027607 -9.83959e-21)
(-0.0478941 0.0142897 1.01093e-19)
(1.1882 0.0392584 -7.02464e-20)
(1.13514 0.0500394 0)
(0.975237 -0.065845 -1.06649e-20)
(0.957197 0.0547115 -1.54048e-20)
(-0.061498 0.0129747 4.56171e-20)
(1.03051 -0.00295163 -7.59189e-23)
(1.21356 0.00622715 9.47833e-20)
(1.01705 -0.0374409 2.80834e-22)
(1.00837 -0.0226098 -1.82185e-21)
(0.988338 0.0397267 2.25194e-20)
(0.200106 0.0416567 0)
(1.11443 -0.0277474 4.93437e-20)
(1.07647 0.0307234 2.36728e-21)
(0.990638 -0.0047154 5.13611e-21)
(1.08341 0.035616 -9.87755e-22)
(0.298799 0.0587942 -6.22525e-21)
(0.00329462 0.0278359 -1.42567e-19)
(1.03355 -0.00589015 0)
(-0.291064 0.00427366 -5.43484e-23)
(1.01174 -0.0241599 0)
(1.01826 -0.0381246 2.7733e-22)
(1.12272 -0.00592719 -7.78426e-20)
(1.06673 0.0148458 0)
(1.0232 -0.0027426 -3.65791e-21)
(1.01737 -0.0703461 -3.94687e-22)
(-0.0301135 0.0147624 0)
(1.24408 -0.143696 -4.89778e-20)
(-0.0644343 0.0135521 -1.12855e-19)
(1.06315 -0.0156305 2.67983e-21)
(0.992913 -0.012301 0)
(0.47474 0.0703814 6.75224e-21)
(0.999477 -0.00407502 -9.78551e-21)
(1.21342 -0.0578697 0)
(1.07386 0.00623264 -9.20733e-21)
(1.07798 0.0177346 0)
(1.09964 -0.0143766 0)
(0.676529 0.058445 0)
(-0.100947 0.00970327 5.77508e-20)
(1.07784 -0.0283594 2.02706e-20)
(-0.30864 -0.00239928 2.61969e-20)
(1.0556 -0.00019164 0)
(1.14591 -0.012674 1.73019e-21)
(0.557113 0.0475642 -7.79199e-21)
(0.232454 0.0222585 0)
(1.011 -0.0381958 6.80131e-22)
(0.999682 -0.0245826 5.75642e-21)
(0.820315 -0.15647 1.04448e-20)
(-0.0519215 0.0148646 -1.75817e-20)
(1.06905 0.0487803 1.2089e-20)
(1.08261 0.0352029 6.27315e-21)
(1.09398 -0.568298 -3.40462e-20)
(1.06661 0.0154712 -2.7617e-21)
(1.08701 0.00796221 -1.93499e-20)
(0.0668936 -0.050827 -1.83094e-19)
(0.729927 0.0313143 0)
(1.09473 -0.333121 1.6076e-20)
(0.29645 0.0587961 -2.47784e-20)
(1.0963 0.0672828 -2.61767e-20)
(0.599702 0.0404673 1.63896e-20)
(1.03985 -0.0354431 -4.35017e-21)
(1.05966 0.0593904 -3.03558e-20)
(1.22565 0.0440172 -4.60456e-20)
(0.999889 -0.00874391 0)
(-0.289435 0.00271533 8.59356e-20)
(0.524467 0.0498301 -7.46608e-20)
(1.03298 -0.118168 -2.13165e-21)
(1.10146 0.0191122 2.4753e-20)
(1.00186 -0.0338616 -1.85668e-22)
(0.473695 -0.849192 0)
(1.14682 -0.175278 -2.01377e-20)
(0.624142 -0.195082 -3.72281e-20)
(1.00911 -0.0304043 3.02203e-21)
(1.00074 -0.000492178 -1.37225e-21)
(0.911194 -0.0445501 0)
(1.1292 -0.0306739 0)
(1.00148 -0.00722159 0)
(0.0229943 0.0287623 -2.58274e-20)
(1.00086 -0.000587287 0)
(1.09818 0.0666989 3.24592e-20)
(0.970057 -0.06436 1.54118e-20)
(1.07795 0.0400953 0)
(0.990549 -0.0264365 1.14523e-20)
(0.98858 -0.00146942 -1.25294e-21)
(1.09441 -0.152063 5.79468e-20)
(-0.288771 0.00235451 -1.11082e-19)
(1.12389 -0.0124675 6.52715e-20)
(-0.0290132 0.0254933 -4.35892e-20)
(1.09736 -0.0572729 0)
(1.01229 -0.00909447 -2.61094e-22)
(1.02893 -0.0101924 -4.78125e-21)
(1.13826 -0.00677727 -3.02627e-21)
(1.05193 -0.0293937 8.43223e-21)
(1.17794 -0.0212578 0)
(1.06914 -0.0168774 0)
(0.879145 -0.112718 -2.17761e-20)
(1.06055 0.0570716 0)
(0.999358 -0.00381233 0)
(0.408641 0.00479124 -1.31956e-20)
(1.00006 -0.00142003 0)
(1.07713 0.0416792 -7.99088e-21)
(-0.290772 -0.002425 1.15995e-19)
(0.528535 0.0618068 -2.4896e-20)
(0.882857 -0.0253034 -9.35603e-21)
(0.837995 -0.275978 0)
(1.06867 -0.274098 -4.40928e-20)
(1.23132 -0.227879 -4.0589e-20)
(0.4919 0.0502749 6.4536e-20)
(1.03579 -0.00686657 -9.94953e-21)
(0.687183 0.0371506 -1.05711e-19)
(0.943329 -0.116029 -1.83032e-20)
(1.09716 -0.021502 -9.7287e-21)
(-0.1738 -0.00699815 2.99942e-20)
(1.23468 0.0173823 0)
(1.02656 -0.00834295 -3.24127e-21)
(1.17629 -0.0235034 0)
(1.04235 -0.00936397 8.81113e-21)
(0.566425 0.0372588 0)
(-0.230729 0.0057348 4.14401e-20)
(1.0232 -0.0393572 -6.8214e-23)
(0.693986 -0.147476 6.7115e-20)
(0.729044 0.0853654 -7.46751e-20)
(0.999985 -0.00117435 4.67993e-21)
(0.999978 -0.00159713 5.6901e-21)
(1.07901 0.0393392 -2.87522e-20)
(0.390137 0.0028154 1.84049e-20)
(1.0213 0.0568093 -1.39891e-20)
(0.973769 -0.0147827 3.81709e-21)
(1.16578 0.0257028 -2.25476e-20)
(1.05822 -0.0161272 0)
(0.987476 -0.00243644 -1.68437e-20)
(1.05888 0.0540141 0)
(1.16543 0.0282709 0)
(1.22003 -0.158651 3.58686e-20)
(1.02173 -0.00252613 0)
(1.08379 0.0501391 0)
(0.909629 -0.204573 1.82016e-20)
(1.07853 0.0372612 0)
(0.957567 -0.0170914 -1.74234e-20)
(1.00736 -0.0641519 0)
(1.13921 -0.175636 4.09048e-21)
(0.915354 -0.0456293 2.55334e-20)
(1.08083 0.0504122 3.08104e-20)
(1.11245 0.01164 -3.32014e-20)
(1.11539 0.00877406 7.72078e-20)
(1.08266 -0.320689 -2.65428e-20)
(1.18827 -0.653681 -1.93753e-20)
(1.19191 0.0352019 8.28233e-20)
(0.802034 0.0918957 -3.23952e-23)
(1.19514 -0.0817884 -4.69074e-20)
(1.07725 0.0500542 8.07211e-21)
(0.156779 0.0254863 0)
(1.02508 -0.170878 -3.53043e-21)
(0.962973 0.0413215 -2.60944e-20)
(1.13384 0.0523983 0)
(1.03021 -0.01908 4.35337e-21)
(1.08602 0.00683528 -1.67484e-20)
(1.18915 0.0327538 3.39974e-20)
(1.0558 -0.0819227 0)
(1.00469 -0.0163154 3.88332e-21)
(1.00518 -0.0154484 -1.14596e-22)
(1.07753 0.0422689 0)
(0.327422 0.00803729 -2.97659e-21)
(1.07144 0.0109665 0)
(0.126951 0.0373013 -2.79222e-20)
(1.01211 -0.00945877 0)
(0.998815 0.0584044 1.43865e-20)
(1.00783 -0.367117 1.4258e-21)
(-0.189898 0.005759 1.78023e-20)
(1.17712 -0.0281731 0)
(1.07715 -0.0424684 2.17635e-20)
(1.06672 -0.0189705 0)
(-0.176171 0.00845744 4.49508e-20)
(1.22103 -0.152857 -4.32153e-20)
(1.02535 -0.163999 9.84415e-21)
(1.08754 0.0797512 0)
(1.04323 -0.0336334 9.63377e-21)
(1.27503 -0.433888 -4.36149e-20)
(1.07718 0.0420561 8.71553e-21)
(1.10051 0.0676067 1.64856e-20)
(1.10122 -0.0387395 -9.96281e-21)
(1.27188 -0.116323 0)
(0.988254 -0.0161344 1.2128e-20)
(1.00007 -0.00167443 5.54086e-21)
(0.941309 -0.0185539 -1.0575e-20)
(0.98684 -0.003187 2.18139e-20)
(0.538755 0.0479361 0)
(1.00385 -0.000723968 -1.1645e-21)
(1.0611 0.0530606 0)
(0.436056 0.0676594 -1.38197e-20)
(1.18058 -0.0294761 0)
(0.0229231 0.0299206 5.553e-20)
(-0.134155 0.00840634 -1.1083e-19)
(1.10184 0.0688055 0)
(1.24039 -0.222992 1.00984e-19)
(0.885772 -0.032646 3.95054e-20)
(0.998619 -0.000490529 1.212e-20)
(0.98291 -0.0144872 0)
(1.0193 -0.00597906 2.44834e-21)
(1.02826 -0.0102471 6.1231e-21)
(1.00102 -0.000545132 2.91359e-21)
(1.14388 -0.00677516 0)
(1.19264 -0.00305042 -2.98502e-20)
(0.90655 -0.21619 0)
(1.19176 0.0794091 -1.2684e-19)
(1.02276 -0.0599901 0)
(0.338595 0.0508076 7.23756e-21)
(0.99998 -0.000144356 0)
(-0.159853 -0.0202964 1.24632e-19)
(1.11566 -0.0832139 9.02652e-21)
(0.999934 -0.000286337 0)
(0.997044 -0.00107347 0)
(0.510021 0.0633799 -1.99604e-20)
(1.07857 -0.0359951 0)
(1.0398 0.0836177 2.11778e-20)
(0.541922 0.0468112 0)
(1.09834 0.0185395 0)
(1.12061 0.0252884 7.26648e-21)
(1.02942 -0.00200032 9.99735e-21)
(0.390389 0.066329 0)
(0.985529 -0.0779017 0)
(1.06616 -0.016263 -6.67177e-21)
(1.05946 0.05599 0)
(0.998654 -0.000971445 1.1647e-20)
(0.974025 -0.0404763 -4.95093e-21)
(1.03351 -0.0110956 0)
(1.08239 0.0285446 2.16032e-20)
(0.297665 0.0106926 1.91636e-20)
(1.08874 -0.0542627 0)
(1.10184 -0.0337566 4.11506e-20)
(1.26201 -0.137903 0)
(-0.0318999 0.0255544 1.16773e-19)
(0.887626 -0.0547685 0)
(0.987948 -0.100961 -6.67342e-22)
(0.586971 0.0450563 5.75258e-21)
(1.0189 -0.00579134 2.13143e-21)
(0.575582 0.0434371 -7.23797e-21)
(1.00039 -0.00122569 -1.74815e-21)
(1.06031 -0.0146464 1.83033e-20)
(1.28148 0.00333168 0)
(1.09407 0.0435314 1.95239e-20)
(1.10373 0.0573693 -2.51832e-20)
(1.18466 -0.084032 -2.69195e-20)
(1.12449 -0.0101864 -3.62868e-20)
(0.999521 -0.00102852 -4.15439e-23)
(0.999989 -0.000151245 -3.95413e-21)
(1.14933 -0.0116936 -1.87906e-21)
(1.04131 -0.0353247 -4.77727e-21)
(0.999643 -0.00081844 3.24356e-21)
(1.07011 0.0143501 -1.84848e-20)
(1.25614 -0.180804 -3.44425e-21)
(1.00456 -0.00525327 2.83637e-21)
(1.21869 -0.243436 1.14137e-20)
(1.29372 -0.462847 1.26682e-19)
(1.06243 0.0757234 0)
(1.18269 -0.0797948 0)
(-0.044858 -0.0222893 -9.26494e-20)
(0.840317 -0.0892496 0)
(0.998481 -0.000810535 -1.27506e-20)
(1.2157 -0.0916311 -1.62986e-20)
(1.01159 -0.00990474 0)
(1.08006 -0.0225062 0)
(0.846555 0.0952143 -1.14246e-20)
(0.600984 0.0328659 0)
(0.678091 0.036933 0)
(0.626989 0.048414 1.88162e-21)
(1.02678 -0.0396371 1.95767e-21)
(1.02307 -0.0385664 2.61076e-21)
(0.983883 -0.274178 -9.4269e-22)
(1.00386 -0.0616867 4.13214e-21)
(1.02113 -0.0176896 -2.62544e-21)
(0.590142 -0.299213 2.02544e-19)
(1.11275 0.0699877 0)
(0.270936 0.0178063 0)
(1.07692 0.041516 4.08959e-21)
(1.09515 0.0442023 0)
(0.98546 -0.00501935 -1.99779e-20)
(1.01938 -0.011756 1.6192e-21)
(1.32535 -0.322575 -5.19119e-20)
(1.12785 0.0357283 0)
(1.0622 -0.0144092 0)
(0.999805 -0.000184929 -1.0891e-20)
(1.10022 0.0575024 0)
(1.21173 -0.0262004 -7.65051e-20)
(0.140593 0.0378388 1.90756e-20)
(0.972861 -0.019342 0)
(1.00092 -0.00338425 4.0112e-21)
(0.278626 0.00796172 -1.86292e-20)
(0.95867 -0.0157544 0)
(1.10054 -0.0187559 -3.95306e-20)
(1.01174 -0.007692 8.03341e-23)
(0.0766654 0.0319996 4.46999e-20)
(1.00929 -0.000441687 0)
(-0.281255 -0.005062 0)
(0.994919 -0.00529724 -1.20512e-20)
(1.20366 -0.178081 6.84297e-20)
(1.10412 0.000905621 2.37606e-20)
(0.960259 -0.278678 3.68437e-21)
(1.10293 -0.0370093 4.4809e-20)
(0.99301 -0.02417 -9.00127e-21)
(1.06753 -0.0254776 0)
(1.00326 -0.00378592 -2.65813e-21)
(1.0618 0.0501126 -6.6276e-21)
(0.96173 -0.0247268 2.26378e-22)
(0.427018 0.013294 9.43325e-21)
(1.04524 -0.032795 0)
(1.07919 0.100057 0)
(0.352888 0.0622184 1.86336e-20)
(1.09742 -0.0432825 9.93649e-21)
(1.00382 -0.00269799 1.41795e-21)
(-0.193528 -0.0183501 0)
(0.870121 0.057029 2.41374e-20)
(1.08005 -0.0281535 5.59892e-21)
(1.09248 0.0432966 -3.81559e-20)
(0.982944 -0.0135539 -3.33688e-21)
(0.363881 0.00724986 7.32117e-22)
(1.03105 -0.0197026 -2.25216e-21)
(1.19049 0.0302109 0)
(0.99924 -0.00944361 -5.9367e-21)
(1.00353 -0.00393996 0)
(1.06076 0.0841117 -1.48262e-20)
(1.10023 -0.0126625 0)
(1.0005 -0.00705676 3.51176e-21)
(1.07108 0.0212267 2.19583e-20)
(0.19934 0.0475626 3.24225e-20)
(0.73236 -0.799419 6.88068e-21)
(0.678689 0.082901 7.77375e-20)
(1.01677 -0.0147946 1.31953e-21)
(0.176341 0.0294355 0)
(0.997574 -0.00829193 0)
(1.00438 -0.00495548 -2.5101e-21)
(0.974156 -0.0221346 0)
(1.01866 -0.000127291 0)
(0.999883 -0.0022275 8.97085e-21)
(0.617234 0.0723652 -1.47127e-20)
(0.815977 0.0950851 0)
(1.04315 -0.0190722 5.1836e-21)
(1.0009 -0.000802963 7.17186e-22)
(1.11547 -0.0249855 1.30642e-20)
(1.01514 -0.0215328 4.71153e-22)
(-0.160489 -0.0228578 0)
(1.21902 -0.0875993 -3.57286e-20)
(0.137288 0.0202984 1.61456e-20)
(0.046297 0.0307606 -5.48714e-20)
(1.06721 -0.0265244 -8.47952e-21)
(1.08179 0.0508971 0)
(0.999905 -0.00921079 5.33284e-21)
(1.10609 0.00436774 -3.41713e-20)
(1.00194 -0.349306 4.38877e-21)
(1.03514 -0.00631068 8.83285e-21)
(1.00033 -0.00120309 0)
(1.30782 -0.293785 0)
(-0.219214 0.00632257 4.44153e-20)
(1.11849 0.0253441 1.09758e-20)
(-0.347054 -0.0043143 -1.40014e-19)
(1.10181 0.0321591 0)
(0.995871 -0.00284622 4.66642e-21)
(1.11969 -0.0358903 7.78965e-21)
(1.09151 0.0437647 4.28401e-20)
(-0.297728 0.00275549 -1.07497e-19)
(1.09304 -0.003733 -1.7256e-20)
(1.07302 0.0749648 -3.81115e-20)
(1.13025 0.0360451 -1.62436e-20)
(1.00021 -0.00233141 -5.16801e-21)
(0.403589 -0.12528 0)
(0.297549 -0.0894022 2.62573e-20)
(0.328942 0.016 1.30647e-20)
(1.26869 0.0182564 -6.83498e-20)
(0.994386 0.0364317 -3.3324e-21)
(0.979573 -0.0682887 -2.30038e-20)
(0.732823 -0.354136 -2.5314e-20)
(0.972715 -0.00288167 1.38271e-20)
(1.12819 0.089538 0)
(1.05465 -0.0787441 0)
(1.00758 -0.00144415 8.34169e-22)
(0.627295 0.0784465 -1.86606e-20)
(1.01911 -0.0592089 -1.78007e-22)
(1.00374 -0.00247771 1.26362e-21)
(1.01222 -0.0382034 1.0933e-21)
(1.01772 -0.0575598 2.12675e-22)
(0.0430491 0.029655 -9.30522e-20)
(1.18533 0.036908 0)
(1.01144 -0.0139195 0)
(1.12135 -0.0332711 0)
(0.0948122 0.0147296 -6.64896e-21)
(1.03609 -0.0539299 4.5334e-21)
(-0.36408 -0.00219998 0)
(0.958146 -0.0411533 -9.88863e-21)
(1.1006 0.0411982 7.9524e-22)
(0.161165 0.0389443 0)
(1.00129 -0.00670407 0)
(1.0678 0.048794 1.31645e-20)
(1.06481 -0.0930737 6.27975e-21)
(1.10036 -0.0440902 -3.05465e-20)
(0.687265 -0.828025 0)
(1.02143 -0.0585335 0)
(1.24789 -0.0564846 8.32261e-20)
(1.0786 0.0381025 0)
(0.248477 0.0528536 -9.25233e-20)
(1.04368 -0.00412481 8.87312e-21)
(0.385043 0.0126253 1.18896e-20)
(1.09373 -0.0239432 8.06591e-21)
(0.082385 0.0248016 8.00551e-21)
(-0.270661 0.00496855 8.19733e-20)
(0.364209 0.00863904 0)
(1.09592 0.0206671 2.53813e-20)
(0.990109 -0.0225801 1.54932e-20)
(1.02619 -0.0407674 -1.68718e-21)
(0.999968 -0.00113476 0)
(1.07147 0.0300157 1.45952e-20)
(0.99704 -0.00285846 -7.62289e-21)
(0.216519 0.0496968 4.76842e-20)
(1.02923 -0.110171 -5.02554e-21)
(0.926718 -0.0847208 0)
(0.890474 -0.0513922 0)
(0.981575 -0.0669621 2.46623e-20)
(1.01638 -0.0142722 -1.18788e-21)
(1.061 0.0162773 0)
(1.06139 -0.0795024 -1.05468e-20)
(1.05981 -0.00828568 -1.18759e-20)
(1.04231 -0.0911193 -2.71591e-21)
(0.408264 0.0455293 -8.72139e-20)
(1.06277 0.047267 1.29242e-20)
(1.09059 -0.0161404 1.55366e-20)
(1.11347 -0.14056 0)
(0.657843 0.0773683 0)
(0.971371 -0.0399913 1.71061e-20)
(-0.117676 0.00419537 1.20945e-19)
(1.01832 -0.00576553 -2.11091e-21)
(1.03117 -0.133801 4.688e-21)