/*--------------------------------*- C++ -*----------------------------------*\
| =========                 |                                                 |
| \\      /  F ield         | OpenFOAM: The Open Source CFD Toolbox           |
|  \\    /   O peration     | Version:  v2012                                 |
|   \\  /    A nd           | Website:  www.openfoam.com                      |
|    \\/     M anipulation  |                                                 |
\*---------------------------------------------------------------------------*/
FoamFile
{
    version     2.0;
    format      ascii;
    class       volScalarField;
    location    "400";
    object      omega_0;
}
// * * * * * * * * * * * * * * * * * * * * * * * * * * * * * * * * * * * * * //

dimensions      [0 0 -1 0 0 0 0];


internalField   nonuniform List<scalar> 
13851
(
0.0235309
1.2644
0.0789332
0.0232181
0.0801906
0.0567696
0.0216429
0.047063
0.0206496
0.0927173
0.285854
1.99837
2.77671
3.25227
0.0214133
0.033549
0.0249038
0.028566
1.34136
0.0206461
0.0230523
0.0765455
0.0213319
0.0221341
0.0215111
0.0478644
0.0242024
11.696
0.0233527
0.0242656
0.0639196
0.0252287
0.075308
0.472625
0.0221437
0.188984
0.758512
0.187371
0.102814
0.447706
0.0213302
0.0197387
4.24199
0.29058
0.272934
2.5783
0.283305
0.56084
0.0244339
0.0428295
0.0740206
0.136835
3.24387
0.0215811
0.0225228
0.0197412
0.021217
2.37817
0.0240343
0.0216807
0.154228
2.90862
0.053459
0.093221
0.177821
0.0251098
2.04866
0.279834
0.0341228
0.0283677
7.32543
3.01111
1.18835
0.0216981
0.0210238
0.0208608
0.0735807
5.34516
0.0478025
6.67803
0.0219024
0.226474
0.0213632
2.43286
0.055039
2.04518
0.0425735
1.80633
0.0254193
0.0208016
0.18759
0.0321078
0.278892
0.0277254
0.025191
0.0219356
0.0820894
2.74932
0.042571
0.0219401
4.13835
0.0510902
0.0222545
0.023916
0.0210799
0.0441367
0.056549
0.0196442
3.53411
0.0616217
0.022192
0.0208716
0.0316943
0.0225778
0.0221876
0.846051
2.78198
0.0196771
0.0227135
0.0229156
4.55116
0.023786
2.8079
0.57466
0.609947
0.0218586
0.607323
0.0495988
0.0228693
0.136434
0.0213104
0.0207149
5.90349
0.0213635
0.833009
0.0209046
0.0196888
2.92126
2.46355
2.171
3.78996
0.022502
0.0226782
0.0200529
0.0232724
0.29524
0.0633124
0.135091
0.0216269
0.263323
0.0776607
0.0224988
3.60367
0.0212733
0.0229114
0.0231776
0.0210164
0.0231626
0.136242
0.0730769
0.0197525
0.0276842
2.27162
0.0206984
0.0279523
0.019893
0.083171
0.0346087
0.0227426
4.90749
6.60456
0.020374
0.0210352
2.13732
0.0206905
0.568974
0.0479731
0.022652
1.75244
0.0196548
0.0260279
3.149
0.02136
0.0820052
0.0197518
0.0214942
0.0253028
0.0218844
0.0904059
0.0897254
0.284664
2.58664
0.0210781
0.0342237
2.68181
0.0227602
0.0224061
0.273836
0.0224438
0.0208921
0.0219462
3.49745
0.0236222
0.0212619
0.072093
0.0213724
2.21952
0.0250507
3.08263
0.0196707
3.43876
0.0221593
0.311653
0.0196126
0.0199754
0.279152
0.0523371
2.45442
0.0213492
3.03129
0.0252248
0.021946
3.0921
0.131197
3.43633
0.0215984
0.029755
0.0212631
2.03987
0.0196108
0.0465127
0.114141
0.0203674
0.0209917
0.0661738
0.0426192
2.21837
0.30528
0.0200339
0.0212739
0.0584117
0.36273
0.0201589
0.078219
0.0207336
3.20865
0.052335
0.334785
0.0232785
0.0258647
0.027263
0.383988
0.0219424
0.0233691
0.0528718
0.838838
0.0861888
2.96858
22.6395
0.0214418
0.0199943
0.0273842
0.466789
0.0204101
2.485
0.0227483
0.0219062
0.0272182
3.13509
0.097021
0.0271524
0.0229046
0.208599
0.0452526
0.0325974
0.0207245
0.221953
0.205229
3.7053
0.280113
0.0201751
0.0196337
0.0210159
0.0505881
0.39514
0.554836
0.0207566
0.0214454
0.18172
0.214184
0.166069
0.0237142
0.0216901
0.036702
0.219065
2.34822
0.0273351
1.99443
0.0207456
3.24826
0.0272941
0.0247633
3.66919
0.0216619
0.0440715
3.07688
0.0207365
0.0440127
0.0278568
0.0234984
2.58864
0.0275279
0.0218872
2.96105
0.019784
0.0261204
0.0226296
3.7856
0.125489
0.0213488
0.052835
0.0213821
10.1331
0.0299301
0.0213225
0.0212684
0.122448
0.0290381
0.0228241
0.0214484
0.0216386
0.021845
0.283141
4.06556
4.10591
0.0315463
3.7465
2.44422
0.0213691
0.0348921
0.166275
0.0365291
0.054015
0.119809
1.68525
0.0252277
0.575557
3.14955
0.0214305
0.0572922
0.0573875
0.920381
0.0228137
0.0569577
2.04438
0.0210626
0.505313
0.0212551
0.0213939
0.0205676
0.0196425
0.0209581
3.23541
0.261368
0.0213824
0.0421196
0.0198289
1.87993
0.0399946
0.484254
4.20312
0.0213963
0.0565694
0.0279715
0.452925
0.0212373
0.0196941
0.028843
4.84237
0.0214296
2.52813
0.0348413
0.127931
6.45558
0.137197
0.118377
0.0254618
0.02078
0.0220962
0.0302213
0.0522571
3.36843
0.0346184
3.52544
3.11393
0.0198411
0.0214498
4.7178
4.99772
0.104864
2.83415
0.0298577
0.0286017
0.0219198
2.45067
0.0204956
0.0328363
0.0249908
0.0215738
0.0211483
0.0207106
0.0198804
0.0908334
0.0506932
6.50081
0.0289184
0.0559426
0.0326621
0.392416
0.0268295
1.14149
0.0244987
0.277742
0.019676
0.0206917
0.0217409
0.601027
0.389193
0.126139
0.0319129
8.89173
0.477773
0.040681
0.0232223
0.0677079
0.0212162
0.394761
0.021048
1.95238
0.323838
0.0708683
3.20956
0.0227576
0.205781
0.323761
4.94585
0.0196324
0.0300668
0.0491257
0.152014
0.0204539
0.0218612
0.0726468
0.127314
0.0331796
1.56996
0.0215919
0.0213343
2.15994
0.02878
0.0196185
1.66291
0.0207694
0.0235081
0.0205384
0.04095
0.022782
0.0196519
0.0225608
2.98924
0.0213755
0.0369048
0.0208292
0.0287285
0.271715
0.0227117
0.0212973
0.0226022
0.0225897
0.653627
0.0218822
0.0470713
0.0213597
0.0216662
3.01934
3.37026
0.0213991
0.0295969
0.0269956
0.326806
2.40482
0.0213506
0.284433
0.0212625
0.0799773
0.0216139
2.00956
0.0197866
3.63189
0.085028
0.0197522
0.029671
3.02692
0.0477674
0.274513
0.0226756
0.613031
0.0229321
0.0206349
0.0207305
0.0215815
3.98384
0.0662986
0.134859
1.32695
0.0502666
0.0197908
2.7967
0.37964
0.0261912
0.0278988
0.253608
0.58482
3.48068
0.0224371
2.04605
2.65
2.89295
0.0282892
0.0304443
0.450818
0.216598
0.912378
0.290547
2.19765
0.0233502
2.21713
3.06463
0.0196864
0.19751
0.0680895
4.19551
0.0234694
0.0212383
0.0209917
0.021274
0.0889386
0.0391197
1.82933
1.53694
0.020762
2.48756
3.14293
0.0588844
0.352648
0.0362309
0.0195908
0.0206688
0.21672
2.82323
0.0230003
0.0930932
0.184726
0.0197285
0.0374882
0.573226
0.245159
0.118324
3.75545
3.09039
0.0212838
0.0215873
1.324
3.06379
0.133047
0.034472
0.0592008
0.0196545
0.0211168
1.99291
0.0197084
0.0233768
0.0196416
0.0207917
3.09566
0.0893278
0.0296954
0.0196978
2.57772
0.288107
0.0207742
0.020962
0.0204621
0.0220019
4.9663
0.307846
0.305373
2.80225
0.610683
0.0326675
5.76718
3.25876
0.0257393
0.0346012
0.0195845
0.0226162
0.0350752
3.00839
0.476378
0.0915674
0.0289339
0.0206063
0.0330969
0.0225151
0.288514
0.0735847
0.0213495
0.0324032
0.0204561
0.0269658
0.13117
0.0216518
0.0211937
0.0401985
0.0216269
0.0810595
0.46409
0.125372
0.0336026
0.137656
0.020593
0.0883863
0.0283958
2.62526
0.0220828
0.0219934
3.42883
0.0236997
6.80183
3.12709
2.27483
1.59561
0.0204959
3.22011
0.020362
0.0207849
0.0197796
0.0207993
0.0250712
0.0297865
0.0387265
0.019681
2.33201
0.0884085
2.33373
0.0209238
0.0199202
0.0208874
0.164421
2.49255
0.0542469
0.0272552
0.0203947
0.0217433
0.0215249
0.0210688
0.21312
1.72967
0.0216032
0.0196703
0.0215947
0.0210608
0.927123
2.31227
0.033767
2.74287
0.597221
0.0211758
0.133277
4.93942
0.0361184
2.08298
0.0218865
0.0276452
0.0532193
0.027975
0.312975
0.0213862
0.510845
0.0211243
0.0306718
3.01526
0.0209503
0.0230718
0.0591629
0.0206426
0.0255427
0.224177
2.42684
0.0718663
2.20324
0.20665
0.0196271
0.0209032
2.6614
0.178458
0.0455979
3.16363
0.0205357
0.024296
0.0197016
0.579076
1.98393
0.0258116
0.021897
0.270957
0.0243511
0.0208511
2.59728
1.01158
2.84826
0.0197693
0.0215924
5.38024
4.02107
0.158678
0.0222581
3.44649
0.0213756
0.276172
0.136586
0.0751378
0.0250713
2.34265
0.0262782
0.0230509
0.652587
0.0218981
0.0236129
0.022935
0.0205757
2.31018
0.0321117
0.119867
0.0293093
0.249725
0.0206264
0.35302
0.0225321
0.0262293
0.0200104
0.021139
0.0214223
3.03149
0.0209773
0.0197287
0.688014
0.0216078
3.9741
0.0212972
0.0225519
0.071729
1.28452
0.25397
0.0209108
0.130959
2.72136
0.0219171
3.26506
0.0303589
0.020549
0.0344885
3.4451
0.0928634
0.0260576
0.0208766
0.0196567
0.344384
0.0842988
0.0582546
0.0268816
0.033887
0.0221424
0.022385
0.0922524
0.394554
0.0883526
0.571676
0.0215726
0.0811063
0.0863072
3.83004
0.0256503
2.15744
0.85424
0.0216224
4.3192
0.0799237
2.58016
2.67135
2.88835
0.294038
0.0416986
0.0205648
0.0295242
2.44495
2.95514
0.0211953
0.0217159
0.0683218
0.23469
0.0197726
3.15137
0.0205143
0.0213946
2.11933
5.3044
0.207446
0.020774
0.0214085
3.24152
0.205899
0.124102
0.023761
3.14692
0.285726
2.41369
0.0558404
0.0412848
0.0218941
0.0216036
1.1594
0.0506712
5.71118
0.0312257
0.0341215
2.36975
2.64068
3.47861
0.0214517
0.0310986
0.020761
0.0343506
0.0229753
1.96696
0.0244024
3.14209
0.0197696
0.0701568
0.0211411
0.154098
0.0332691
0.0306841
2.75174
0.0442617
0.0432
0.0222466
0.069958
0.531409
0.0630277
0.0234739
6.54587
0.0203456
3.02732
0.275889
0.0216571
3.4071
4.63173
3.62967
0.311813
0.0299156
0.0211837
2.86834
0.0244755
0.825112
3.09357
0.0209313
0.0227174
0.568902
0.330129
2.05865
0.0215707
0.020844
1.34418
3.04268
0.118978
0.0255956
0.0230706
0.299711
2.01837
0.0892688
0.0197344
0.0422346
0.020658
0.0231803
0.0676727
0.0219788
1.9994
0.394299
0.021405
0.0228702
0.0212077
0.0229922
5.91265
3.20447
0.029644
2.17437
0.0211391
0.0296683
0.0211373
0.0206739
0.0215934
0.0213892
3.92507
0.0214005
0.0532486
0.0214563
0.0262329
0.0761812
3.4852
0.0226907
1.3409
0.0615392
1.38396
0.0328964
0.0332779
7.65083
0.0269789
0.0401621
1.94513
0.93056
2.95459
0.0409767
0.265454
0.0219806
0.0420352
0.0523707
2.0976
0.0213466
1.93876
0.0208855
0.0209419
3.00074
0.0216133
2.52639
0.0253454
0.0207457
0.0354995
0.0207608
0.0214144
0.0208407
0.021838
0.191134
0.0209486
0.190749
1.96352
0.06391
2.19801
0.0215836
0.0225585
0.0233174
0.0212858
0.0207389
0.0821143
0.0219392
0.0208204
0.0219515
0.021581
3.89212
1.7067
0.061544
2.82059
0.264768
0.0211121
0.259736
0.0287239
0.02094
0.330396
0.0492038
0.430944
0.0210844
0.284357
0.359994
2.167
0.0204026
2.77572
0.0312984
0.0240722
0.0211877
0.020545
2.24141
0.0767606
0.626619
0.020896
0.0213223
0.651832
0.0216764
1.21132
0.288614
1.57735
1.73819
0.34875
0.0216531
0.0213446
0.0556869
0.0288862
0.0239095
0.162729
0.0428887
0.0219756
0.0229193
1.84463
0.0208378
3.79183
2.36212
0.821864
0.194031
0.0223291
0.020165
0.0217657
0.289737
0.385034
0.0204017
0.0229945
0.0208662
0.0796397
0.0198429
0.0208295
0.0219818
0.0331227
1.39438
0.0415247
0.0319731
0.0214745
0.0535248
2.5855
0.0222633
6.21386
2.27837
0.0834566
0.0199531
0.0452061
0.0212336
0.0213635
0.0216997
5.21638
0.125491
0.398747
0.0239865
0.275128
0.0212859
0.0211717
0.0216668
0.199235
1.03179
0.0197332
0.0327155
0.0528985
3.48772
0.022696
1.46375
0.0260009
2.24881
0.079108
3.32358
0.0937705
0.0820861
0.52515
3.05836
0.361454
3.87947
0.0212052
0.152569
0.0198293
0.0235698
0.0263009
0.0216382
3.10993
0.0297892
0.0276376
0.309543
0.188555
0.626989
0.0213647
0.0236815
0.0262706
0.0202402
0.030802
1.25355
0.514707
1.26599
0.0209486
0.0270454
0.0241708
0.568214
2.90416
0.0551618
0.0201437
0.0218729
2.07964
0.0464348
2.19904
2.6295
0.0359252
0.0199345
2.74935
0.0300793
0.0446579
0.0286219
3.33287
0.26917
0.123507
0.0889777
0.0223329
0.0275939
0.0214016
3.08886
0.0468264
3.20242
0.262746
0.0261079
0.150266
0.0227145
3.37616
0.270807
0.0208693
1.49809
2.97656
1.57737
3.3646
0.0216533
0.0213673
5.6516
2.60926
1.98778
0.0228238
0.0215919
0.0214002
3.77876
0.146184
0.021818
0.0526431
0.0888857
2.20875
2.67663
0.546159
0.021432
3.35263
0.0247104
0.0212765
0.144101
2.62823
0.0216501
0.0208771
4.5425
3.30585
0.0215089
0.0209326
1.92476
0.0208097
0.213642
0.0209488
0.59058
0.0213611
0.0541335
1.20823
2.95884
0.0225278
3.75787
0.386454
2.29844
2.44648
2.22271
0.0363166
0.0211684
2.14374
0.0227367
0.0213813
0.0202128
0.426281
0.0211571
0.568893
0.0208945
0.0232457
5.35513
0.0677936
1.9078
0.0228839
0.0251448
0.0207224
0.0328057
2.84264
3.35729
0.0208645
0.0680437
0.306445
0.0216301
0.0205552
2.92541
0.0346591
0.0353464
0.133785
2.47797
1.03336
2.61805
3.29893
0.0392486
0.27982
0.375934
1.61716
0.0678535
0.0201686
0.131419
0.0211559
0.0211398
1.80263
2.96573
0.0232423
3.82771
0.0820245
4.05544
0.0554912
0.0469605
0.0212376
0.0834199
0.0354617
0.0210643
0.022628
3.1469
2.79793
1.46409
3.40277
0.0386671
3.18918
3.2614
0.032217
0.0217645
0.0210532
0.222939
0.0210119
0.235131
0.0224102
0.0220917
0.0234438
2.67843
3.74345
2.43795
0.0219252
2.83333
0.0252501
0.0296637
0.0209921
0.0208699
2.50542
0.0272663
3.27532
1.1621
0.0459542
0.119878
0.0214824
0.0408785
0.021633
0.145767
0.0224811
0.0227905
0.0218423
0.0224343
0.164582
0.0221499
0.0351993
0.021103
0.0358569
0.131346
5.78819
0.0210641
0.0490425
0.0213891
0.0635185
0.0239985
2.62197
0.175557
0.0319238
0.0238085
0.0224813
0.0482694
0.0212684
0.260483
0.0214295
0.0209395
0.0222658
2.94283
0.0271379
0.0246186
0.0301646
0.021409
0.0662632
2.86192
2.35706
0.0361392
0.021408
0.0323021
0.0202265
0.0210357
0.191438
3.12191
0.0212008
0.0306037
0.0962599
2.92001
0.0218586
0.0220682
3.15563
0.0226136
0.0382036
0.276488
3.8383
0.0213759
0.0257187
0.0212585
3.37452
0.136337
0.0425805
0.122562
2.41148
0.0224413
3.69884
2.23423
0.0216404
2.69641
0.0835595
0.0224475
2.79419
0.0215602
0.0212292
0.0204867
0.188589
0.0439755
0.171619
0.0228254
0.0223284
0.0303886
0.275681
0.488345
3.70452
0.28749
0.0220423
0.136893
0.132729
2.14489
0.0758519
0.234562
0.0210251
0.0298205
0.0205635
1.00519
0.0367109
0.0212518
1.83286
0.162517
0.0327485
0.0265662
0.019671
0.0213362
0.0542897
0.0346302
0.683498
0.0678361
0.0676907
0.0610621
0.117436
2.27772
0.0593646
3.63782
0.0210783
0.020829
0.180571
2.30225
2.4758
0.0514089
0.0224144
5.81548
0.300143
0.0209867
0.026493
0.0208249
0.0421138
0.072147
0.0912193
2.5432
0.433299
0.0226771
2.52977
6.6789
0.0214266
0.0798609
2.42854
2.19614
0.0238806
0.0772198
0.019604
0.0231796
0.0210388
0.0254214
3.58834
2.96586
2.60587
5.77045
0.0226461
0.0342088
0.05455
0.0210215
0.0219257
0.0205547
3.04257
0.0209727
3.50098
0.0366902
0.0485984
0.162202
0.201206
4.77876
3.02061
0.0413197
0.019856
0.0232139
2.87065
2.24166
0.0248731
0.020791
0.0206196
0.063999
0.0306178
0.150165
2.24249
0.022608
0.0205067
0.126427
0.0297333
6.32375
0.983508
0.0209445
0.0733806
0.021584
3.62251
0.0199943
3.19227
0.0210057
0.0225397
0.0314733
0.0219846
0.0605461
0.0302197
0.0480976
2.36122
2.80053
0.0253618
0.0301603
0.0212279
2.95212
2.178
0.0217812
0.0200486
0.320522
0.0196536
3.86912
0.021309
0.0340738
0.070778
1.08343
0.0380496
0.0227656
0.0216144
0.0722424
3.20916
0.0211689
1.02869
3.9831
0.99071
0.369136
0.0335968
3.73669
0.025602
0.222965
0.0212857
0.279914
0.286968
2.20274
2.0648
2.24563
0.0219312
0.0378666
0.0208677
8.24659
0.326125
3.04958
2.31012
0.0271114
2.27006
0.643112
0.0349083
0.0228512
0.0216404
3.36699
0.0257615
0.0717697
0.023034
0.0216801
0.0206743
0.0215793
2.74578
0.180602
0.0313938
2.11394
2.51481
0.0214285
0.0213238
0.0205379
0.0280546
3.17059
0.206556
0.0256974
0.0246318
0.951784
0.0785134
0.0453004
4.29046
0.0305428
3.51851
0.0306101
0.0296586
0.0212973
0.0229779
0.0717917
0.38179
0.283233
3.16639
0.0710797
3.32962
0.0244012
0.0244869
0.0215121
2.80499
2.26938
0.593391
0.0514937
0.023604
0.0214175
0.0210923
0.0214262
0.020573
3.12202
0.0294177
3.05376
0.0323893
2.52595
1.98176
3.22351
0.031622
0.0260909
1.98387
0.0394424
1.40734
3.34028
0.0206198
0.0388211
0.0273499
5.51043
2.99528
0.0349929
0.0805842
0.373477
0.0228756
0.0496013
0.0242638
2.32888
0.271105
0.0240584
0.0216114
0.2859
0.549827
0.132633
0.67659
0.131486
0.0285148
0.0211975
2.21202
3.13226
0.079943
0.0311839
2.78481
2.39946
0.0208859
0.021422
0.0242957
3.12507
2.99632
0.0213494
4.25897
0.0220863
0.0210771
0.021641
6.06021
0.277108
0.0356279
2.5867
0.0230038
0.022751
0.0209861
3.12304
0.0223017
3.32718
0.0238888
1.32785
0.0218562
0.0211567
0.124198
3.21505
0.327839
0.0361932
2.34538
0.0200097
0.021532
0.0214332
0.0451907
0.0658664
0.0659297
0.0362899
3.29513
0.0244646
0.128208
0.102257
2.28523
0.0214495
3.38938
3.06698
0.0251935
0.513944
0.0676877
3.16232
0.0216284
0.0694474
0.0210941
1.26828
7.35627
0.0751271
3.39348
0.0236256
0.0501599
0.0225452
3.93854
0.0199187
0.0208083
0.35596
0.0900143
2.46481
2.80362
0.0662641
0.0287465
0.0204706
1.00875
0.0306547
0.0211203
0.150546
0.0207123
0.0442513
0.0214116
1.03376
0.0226389
0.292332
0.295349
0.0312954
0.0920289
0.0558753
3.65278
0.0213355
1.14892
1.70563
0.0207215
0.0213773
0.0229419
0.0218868
0.0400572
0.02127
0.319525
0.0781686
0.275161
0.0643448
0.0215376
0.0219076
0.0204684
3.12315
0.0215528
0.0212997
0.241085
0.0240075
1.39411
3.40897
0.0915312
0.0241579
0.0339276
0.0226988
0.0220713
0.0377608
0.0201034
0.0241446
2.3929
3.28385
1.22997
0.0226457
2.02182
1.05008
0.0219043
0.266907
3.12913
0.0213632
0.023626
0.0213169
3.25616
2.18913
0.233364
0.0200849
0.0240959
0.0232566
0.0216139
0.133352
0.0215893
0.0379173
2.68891
3.56238
0.0205977
0.0239986
0.023603
2.31217
0.0196615
2.15686
2.72784
0.0529613
0.888825
4.40715
2.22474
0.0227871
0.323405
0.407572
0.0224348
0.0204533
0.0208783
3.36576
2.20989
2.05138
0.0212959
3.54156
0.0216128
0.166582
0.0204625
0.0232822
0.0223688
0.0205879
2.21893
0.0225022
1.91164
2.62544
2.14328
0.0478431
0.0535901
2.18203
3.16522
0.0218369
3.87278
0.0204763
0.0196962
0.0213094
0.0312948
0.0206709
2.23594
0.0299927
0.188739
0.0373162
2.44701
2.11997
0.0866779
0.0205643
0.05577
0.07661
2.21358
0.0214789
0.019882
0.0230062
2.01454
0.0216738
0.320456
2.13179
0.042109
0.06136
0.0215026
0.358033
0.0218208
3.20448
0.0202473
2.71913
0.0317111
0.0215392
2.14352
2.08751
0.0201807
0.0678295
0.0246444
2.05571
0.0336623
0.144601
0.153147
0.0218314
0.0555321
2.73692
0.0210384
0.0300918
0.0230909
0.079028
0.0328152
2.97731
3.10495
0.0215566
3.42436
0.0224567
0.0448817
2.91471
2.09028
0.0358054
3.02802
0.202722
0.0216243
0.318299
0.134205
0.0312016
0.0224507
2.57455
0.0202078
6.84213
0.0786547
0.109125
0.0213544
0.0310513
3.2404
0.0453035
2.45044
0.0221044
0.0238854
0.0828275
2.68749
0.0262885
3.18876
0.646121
2.25638
0.0216559
2.68415
2.22013
2.25343
0.0214057
0.0225046
0.0213366
3.28887
0.0279233
0.371282
0.327789
0.0218639
0.0202797
0.0213768
2.24749
3.05262
3.87708
2.12963
0.0209724
2.957
3.23534
0.135735
2.07747
3.08264
0.0347742
6.97908
0.0234549
0.0259102
3.19028
2.77186
0.0218132
4.01166
0.0218137
0.0214158
2.20568
3.14833
3.69937
8.74271
0.0314341
0.0218655
0.0232
3.37895
2.0424
0.0211808
0.0477846
0.505869
0.0214455
0.0215574
3.08249
2.59065
0.0231005
0.0214418
0.0223517
0.0226783
0.683027
0.0218686
0.0211481
0.0258671
0.425545
2.96997
0.0961852
2.58721
0.0215713
0.0248622
2.85958
3.23421
0.028372
0.092704
0.0213349
0.0363094
0.0227788
0.0221472
0.0676894
0.0210876
0.28115
0.0328701
0.0208322
0.0245312
2.34434
1.67601
3.61097
0.0214605
0.0246983
3.34083
0.50147
0.0241546
0.0214001
0.0214905
0.269535
0.0215757
0.0218387
0.0281149
0.0213638
2.89584
0.0544358
0.0218167
0.0242898
0.0200273
0.0215835
1.57133
0.34418
0.0722542
1.96595
0.0564919
0.0219325
0.0213152
0.0215366
0.0212999
0.0217904
0.0237825
0.0735348
2.86311
0.0226679
0.112722
3.52306
0.0984446
0.0212516
0.020825
0.0235722
2.23251
0.0212503
0.851769
0.562779
0.0467257
0.0220775
6.44734
0.020041
0.0400001
0.0204085
0.0200699
0.0217335
0.0208063
0.0359264
2.79198
0.0905323
0.0392909
2.21429
0.618262
1.04516
0.0322305
3.14837
2.00214
0.110831
2.27438
3.12668
0.118629
0.368033
0.021884
0.0206871
1.45847
0.0210304
0.0243845
2.20056
0.032767
1.80647
0.189228
0.0207714
0.025366
0.02153
0.0334028
0.0204326
0.0393847
2.50374
2.96144
0.742295
0.0215292
0.0202383
0.0739958
3.66967
2.93353
0.116636
1.45505
0.0208786
2.26799
3.57809
0.0786694
0.0239798
0.021559
0.019961
0.0234005
0.0214897
0.0213661
0.0241529
2.90518
0.0786599
3.24387
0.396755
1.70822
0.189394
0.0212782
0.0210075
0.0220139
0.0205453
0.0218479
0.257095
2.30324
0.67476
3.49296
0.0235258
2.16996
0.160964
3.23137
3.27706
0.0215417
0.0208002
0.208343
0.0215279
0.020194
0.490401
2.91453
2.54544
0.0214238
0.0215531
0.0239597
0.038647
2.21575
0.0204949
0.0242164
0.738712
0.0205059
0.470299
0.0381333
2.1866
0.0218514
0.390771
3.49357
0.0357325
3.33706
0.116524
3.3224
0.0200229
0.0252852
0.0208474
0.0300747
5.3983
0.021451
2.30857
0.0218374
0.0215677
0.0214517
3.38131
0.0451417
0.115044
0.416729
0.0206447
0.0442046
2.9697
0.055884
0.0207372
0.0230489
0.0215311
0.0455973
0.0213295
0.020889
3.492
3.62434
3.2576
0.330695
1.08795
2.25261
0.0724261
3.61679
0.128718
0.0199665
0.0210326
0.0196664
0.0216888
3.42013
3.36321
0.0203371
2.38311
3.34403
0.0297412
0.0225404
0.0248764
2.46918
3.03822
2.94509
2.03589
2.95458
0.0196679
0.319885
0.102942
0.32041
3.25864
0.0213468
0.13462
2.54887
0.0329465
3.11735
0.021872
0.0414882
2.38629
3.10336
0.0771468
0.0316271
5.35329
0.135844
3.15472
3.19127
2.87663
0.118442
2.63776
0.0215734
0.0251144
0.048101
4.10059
0.29436
3.44275
0.0220964
0.115629
0.0712792
0.0222283
3.16769
0.0213632
0.135023
3.92667
0.021371
2.23984
2.24795
3.17677
2.5703
1.37448
0.244973
0.0211069
3.46032
0.0217443
0.0208542
0.0422009
0.0239895
3.14046
0.0242029
0.0248866
0.024256
0.0208024
2.3094
0.0230103
0.121982
0.318924
0.0206043
3.72913
0.103303
0.0226677
3.55924
0.264871
0.021353
0.112435
0.0221231
3.32498
0.445949
0.0203697
0.121423
0.0230836
3.54367
2.9987
0.073974
1.04977
0.0258212
0.0214978
2.19862
0.024204
0.0213387
2.47386
0.0417016
0.0208827
0.0208199
0.132161
0.0228771
3.88189
0.331923
0.0291727
3.0264
0.0542974
0.0638396
0.0211543
3.58336
6.17293
2.3333
0.0214112
0.0202525
0.0733726
0.0308283
0.374311
0.021372
0.506832
0.0212661
0.523966
0.0218232
0.0532852
0.15883
0.119245
3.56015
1.15169
3.08368
2.99009
0.0197006
1.30154
1.82069
4.51522
0.0211225
0.145294
5.91095
2.14856
0.121016
1.42856
0.20527
3.66563
0.0468774
0.234817
0.020573
0.0484688
0.0439882
0.0213276
0.0719073
2.59044
0.0441426
2.15165
2.17558
0.0211703
0.02083
0.0296049
0.0213353
0.679252
0.0205256
0.0207929
3.78264
0.190401
0.03368
0.104329
0.0223199
0.0863525
2.14321
3.08881
2.01287
0.0257876
3.04651
0.0230667
0.0205387
0.0233662
3.17514
0.242978
0.32119
0.178591
0.0224004
0.0208442
0.0213355
0.0219016
0.0268547
3.37528
2.1125
0.0290233
3.20711
3.93034
0.442721
4.2853
0.021444
0.030158
0.194285
0.0214215
0.0367691
0.0270929
0.0241324
2.97104
3.11344
0.0205176
0.0407634
0.0300291
0.0705894
2.29691
2.25394
3.59956
0.0216992
0.0850223
3.46577
0.0839163
0.120955
0.464762
2.51837
3.79523
3.58985
0.0204955
2.65803
0.0203197
0.0231512
0.0213584
0.06162
3.74401
6.69213
0.454695
2.14349
0.0578999
0.0201405
0.0208087
0.0215566
0.0230452
0.0449688
3.67588
3.44963
0.0792165
0.675253
0.021702
0.0576384
0.0206578
3.1561
0.068492
0.0216153
0.13939
0.105022
2.14037
3.6391
0.131468
3.70613
0.0249392
2.30097
0.224428
3.14889
0.3279
0.022943
0.0573105
0.021515
2.99413
2.4234
0.0411737
2.79412
0.223987
2.34594
0.0678532
0.158703
0.0412471
0.0208953
0.125893
0.0603379
0.0243479
0.0570905
0.0313887
0.0330336
3.44811
0.166699
0.023284
0.0306387
0.0371316
0.0323195
0.0227982
2.24255
0.112935
0.26675
3.60187
0.0214157
3.19835
0.0214713
0.0244625
0.0235921
3.13467
0.0383326
3.21274
4.06095
0.0611045
0.0483445
0.123345
1.65582
0.139671
1.03332
0.0241061
0.0469744
0.0209034
3.23944
0.46204
0.0239788
0.021529
0.0374442
0.0262153
0.0245207
0.050431
0.0407833
0.0216423
0.0342811
4.87952
4.48174
0.115222
0.0421369
0.0197972
1.75038
0.0328566
0.0662181
0.83825
0.0443418
1.98944
0.0202218
0.0244873
0.0243488
0.0335006
0.021226
3.35177
0.321726
2.40182
0.0375723
3.24525
0.196009
0.025958
1.67605
0.0676994
0.188504
2.31227
0.0444553
0.0241852
0.0417622
0.0685183
0.0245204
0.762572
3.80917
0.324523
0.0209023
0.211409
0.302517
2.03246
0.0212734
0.0452562
0.0211076
0.0310422
2.35699
0.0297163
0.0293736
0.0208925
0.0208706
1.81835
3.1208
0.0214109
2.21326
0.188488
0.0201525
0.0252153
3.27507
0.116367
0.105739
0.0213909
0.0274035
0.109493
0.0216704
0.0210704
2.21274
0.0297001
3.31435
0.0857429
0.0264307
3.74745
0.117596
0.16551
0.0209366
0.255396
0.0305129
0.0268707
1.47893
0.0413702
0.0216225
0.0854394
0.0246644
0.0254245
0.0201266
1.29486
0.0213837
0.0636433
2.29107
0.102203
0.0208335
1.02333
0.0312403
2.50783
0.163127
3.48066
0.108407
3.09127
0.020691
0.0779064
0.0257313
0.0211331
0.347119
2.06518
0.0252246
0.577324
0.0246983
0.0733249
3.54233
0.0262869
0.357812
1.00899
3.1463
1.7511
0.635467
0.0480143
0.0207533
0.0662346
0.0358344
0.680464
1.8826
3.13932
2.26707
3.31784
0.0208438
0.65578
0.0214066
0.0224986
0.0216036
0.38793
0.150069
0.0776676
0.0210506
8.97177
0.0276321
3.66362
0.0208827
0.0634702
0.0307927
0.0716685
0.0434105
0.106607
0.022937
0.158511
0.138238
0.0209613
3.72702
0.183957
0.0532921
0.0227653
0.030428
0.0216196
0.021074
0.0662764
0.0367385
1.96571
0.19301
0.0870353
0.902042
0.0211476
1.48892
0.0661612
2.28214
0.0308243
0.0313344
0.299432
0.0318317
0.0562646
0.155761
4.37334
0.023679
0.021718
3.05058
0.0322968
0.0238041
0.027453
0.0304184
0.0205029
0.0267573
3.26441
0.0215237
0.0433327
3.30084
0.116784
0.0727718
1.75676
1.97169
3.42819
2.88217
1.41385
0.056865
0.458719
0.0228517
0.0250542
0.021531
0.0209992
2.70477
0.385439
0.0322619
0.0207333
0.924297
0.0932041
0.0212532
0.129635
0.0537547
0.0212429
0.0231698
1.5929
0.0268495
0.0382915
0.0375633
0.0213757
0.0878796
0.0662381
0.0300101
0.444655
0.0801294
1.63305
0.749356
3.01299
0.0234339
4.68587
0.162355
0.151341
0.0679884
1.80171
0.0763479
0.0266528
0.05061
0.0678296
0.0236344
0.0723198
0.0211075
0.0212638
0.0200755
0.0246576
3.29682
0.0203953
0.107284
0.0245929
0.0238682
0.0244615
1.10754
0.0235141
0.0632173
0.0215747
0.0245882
0.0251822
0.0207259
0.107431
0.023741
0.0205436
0.0223801
0.0292337
0.0209671
2.01759
0.0275381
2.24006
0.184473
2.54287
0.0604024
0.0728829
0.0486971
0.0414487
0.0250772
0.0253548
1.57952
3.03912
0.517935
0.0639324
0.0321921
0.0214273
2.25195
0.040423
3.29034
0.0215856
0.924095
0.147782
1.43723
1.34635
0.0201008
0.0214208
0.0203394
0.0294161
3.08528
0.047557
0.903675
0.0261313
0.0294367
0.0210145
0.0219007
0.0342365
0.0238084
0.0241817
0.0209144
0.253952
0.321455
3.18777
0.0247631
0.99215
0.020703
0.0202608
0.107922
0.0220038
0.0243437
0.0660935
0.0243576
0.0710378
0.0214285
0.0243457
0.0215645
0.02471
3.20589
0.0211663
0.0237309
0.0227742
0.0240757
0.348539
0.0218285
0.0505945
1.60687
0.024843
0.0301277
0.0225427
0.0230853
0.0218446
0.130663
0.0215068
0.0270035
2.83468
0.0208249
0.0296596
0.0508135
0.0580889
2.17073
0.0200775
0.0239404
0.0222802
0.030769
0.102819
1.01502
4.25846
0.0202536
0.0288542
0.074171
0.023467
2.39813
0.0199739
0.0216009
1.75567
0.0413135
0.0238484
0.0200318
0.182386
0.12401
1.94708
0.0215998
1.599
0.0200072
0.0205423
0.0236915
0.0791331
3.78921
0.0215563
0.0209311
0.332736
0.0215092
0.0233937
0.432113
3.93057
0.0215069
0.0204872
0.0221466
0.0318136
0.208102
3.33516
0.0219282
0.108406
0.021371
0.0213763
2.21926
0.0232356
0.0219314
0.0308328
0.254604
0.136443
0.0234983
0.0222362
2.65685
0.0414717
0.0224774
0.763161
3.17269
0.0215133
0.0218003
0.0233148
0.0213653
0.021511
0.0208549
0.0202185
0.0401954
0.0232149
0.0440714
0.048611
2.17943
0.339347
0.0313262
0.0200589
0.0214179
0.022279
0.0232958
0.041389
0.0293173
1.64292
0.0238202
0.0750515
0.0245243
2.66769
2.20169
0.0289365
0.0227176
0.124592
0.02402
0.0270209
0.0213981
0.022416
0.0211131
0.0588381
0.0432197
0.0476018
0.109068
0.0233903
0.0258038
0.0223284
3.38114
2.44613
0.302449
0.0273229
0.0934774
0.0838058
2.94053
0.0220082
0.656303
0.0658165
0.0214083
0.0218417
2.3194
0.0215553
0.0225901
0.0234103
1.09705
0.0215182
0.0217999
0.025638
2.08206
0.0209681
0.0522783
1.07493
0.0237681
0.0215312
0.021179
0.021433
0.021816
0.0217702
0.0929153
0.0225625
0.0215207
0.0217837
0.0218166
0.0290015
0.0213996
0.268076
0.0215771
0.0217582
0.0387594
0.0332533
0.0326003
1.99992
1.15476
3.42836
0.0382334
0.0208384
0.0392221
2.03234
0.0201958
0.0536767
0.0233989
1.01419
0.0234399
0.0443124
0.0218051
0.0213913
0.117656
0.212353
1.65975
0.269663
3.4419
0.021777
0.0209069
2.25933
0.0201685
0.021524
3.24366
0.0210169
2.16113
0.0214545
0.183685
0.109643
0.0239261
0.673389
0.0262504
0.0772375
0.13821
0.167962
0.203511
2.4661
0.501092
2.33338
0.0215912
2.17562
0.0215099
0.0213219
0.0209758
0.0220044
1.01489
0.0225093
3.79505
0.0215571
0.021378
0.0215846
0.490222
0.0216676
0.0205983
0.0543505
0.0253914
0.0266227
0.0254134
0.0287034
0.285913
2.49476
0.277544
1.00243
0.099643
0.0224629
0.979213
0.0214537
0.0284489
0.0660367
2.583
0.0437548
3.47095
0.0215121
0.247644
2.19895
0.150338
3.46986
0.251356
0.0237018
0.0213348
0.024255
0.0215082
0.0213135
2.21395
2.23198
0.0210852
1.13809
0.0214218
0.110202
0.0209973
0.199102
0.0276957
0.0235635
0.0206909
0.676272
1.14187
0.268028
0.0206084
0.0206854
0.0267164
0.0220587
0.0223066
0.1444
0.204575
0.0477458
1.97782
0.0428765
0.0218348
0.0321818
0.0684729
0.0219528
3.09047
0.0561528
0.091717
0.0233063
0.024367
0.020276
0.0196607
0.0213769
0.0267308
0.0207954
2.27897
0.0391201
0.131231
0.021297
0.0429762
0.0215071
0.403291
0.040328
0.0554939
3.12995
0.0261793
0.0213489
0.0251268
0.0218625
3.38209
0.0725265
0.041715
0.0558489
3.51734
2.24506
0.11042
0.0509233
0.0214099
0.023247
0.0233535
0.0416069
0.114815
0.0264955
0.0216064
0.348348
0.347575
0.0218315
0.0234658
0.0563871
0.0224554
0.0209715
0.0408806
0.0214606
0.0219334
0.0209465
0.0236871
0.022116
0.0458415
2.40003
0.0214673
0.669195
0.0995641
0.110861
0.0209368
0.0215186
0.0539222
0.0262369
0.0214376
0.0883395
0.0213681
0.0499189
0.0216416
0.041664
1.61666
0.0552389
0.0226676
0.0604227
1.93307
1.25655
0.0214362
0.0362186
3.86896
0.0212128
0.022333
0.0793205
8.58496
3.29751
0.0239487
0.0213808
0.0269217
0.0212516
0.022402
0.0284375
0.0218404
3.56026
0.0218428
0.128834
0.0215073
0.0214701
0.052254
0.0213689
0.0215766
0.0285489
0.117013
0.0205639
0.0369533
0.0219174
0.0211659
0.0216759
0.028392
0.0259748
0.0709534
0.0233113
0.0218033
0.0218788
0.0391957
0.0224898
3.40732
0.0220879
0.11172
0.0339712
0.0227891
0.0278591
1.05577
0.021534
0.0221216
0.0199949
0.0719109
0.398778
0.0215975
0.0371144
0.0209492
0.0359079
0.0214491
0.270126
1.45152
0.0237285
0.0254091
0.0276024
0.0263117
0.02208
0.0207441
0.0484086
0.0214102
0.022064
0.021392
0.0215287