/*--------------------------------*- C++ -*----------------------------------*\
| =========                 |                                                 |
| \\      /  F ield         | OpenFOAM: The Open Source CFD Toolbox           |
|  \\    /   O peration     | Version:  v2012                                 |
|   \\  /    A nd           | Website:  www.openfoam.com                      |
|    \\/     M anipulation  |                                                 |
\*---------------------------------------------------------------------------*/
FoamFile
{
    version     2.0;
    format      ascii;
    class       surfaceScalarField;
    location    "700";
    object      meshPhi;
}
// * * * * * * * * * * * * * * * * * * * * * * * * * * * * * * * * * * * * * //

dimensions      [0 3 -1 0 0 0 0];
oriented        oriented;


internalField   nonuniform List<scalar> 
20580
(
0.00011773
-0.000131682
1.39409e-05
0.000291939
-0.000129205
-0.000163161
1.07504e-05
0.000280553
-6.48755e-05
8.50567e-05
-2.01812e-05
-2.32997e-05
-1.74265e-05
2.62736e-05
-1.69415e-05
-0.000244933
0.000261459
0.000183753
-0.000287544
-4.6539e-05
-2.7484e-05
4.85253e-05
3.25585e-05
3.99887e-05
-7.25473e-05
7.5237e-05
-0.000417699
0.000341419
-0.00011225
0.000192071
-7.98653e-05
5.54185e-05
0.000226589
-0.000285953
-0.000335833
6.27133e-05
0.000272664
2.50785e-05
-6.43429e-05
3.92644e-05
0.000117625
-0.000220615
0.000102864
0.000105612
1.88322e-05
-0.000124453
8.20147e-05
-6.18805e-05
-2.01342e-05
0.000393593
-0.000121313
-0.000274686
6.91672e-05
4.50791e-05
-0.000114251
-3.58987e-05
0.000153616
-0.000242675
9.40111e-05
0.000148545
-9.76761e-05
-0.000177476
0.000274807
8.48084e-05
-4.07147e-05
-4.40941e-05
-1.59981e-05
-5.99309e-07
1.37392e-05
0.000101169
-2.38542e-06
-9.87853e-05
0.000189293
-0.000115482
-7.38501e-05
0.000122531
-8.15411e-05
-4.09931e-05
3.82843e-05
6.19756e-05
-0.000100262
8.85065e-05
-4.82618e-05
-4.02449e-05
-8.15157e-05
-0.000289238
0.000363897
1.1551e-05
-7.63142e-05
6.4763e-05
-0.000129522
0.000312598
-0.000120301
-2.36552e-05
0.000143943
-3.72591e-05
-4.94479e-05
8.67067e-05
0.000134925
4.41851e-05
-0.000179176
-8.51286e-05
0.000100893
-1.57648e-05
-2.53629e-09
-1.7261e-05
0.000113449
-6.7183e-05
-4.62677e-05
-6.76431e-05
-1.92886e-05
8.69315e-05
-0.000395532
0.000315384
7.87545e-05
-7.16974e-05
9.05461e-05
-1.88489e-05
3.9829e-05
4.86773e-05
4.33327e-05
2.43195e-05
0.000130521
-0.000105389
-2.51348e-05
6.28506e-05
1.84762e-05
-8.13271e-05
-7.8015e-05
-0.000290915
0.000365471
-5.80998e-05
0.000108837
4.14124e-05
-0.000106805
6.53835e-05
-0.000385266
0.000168932
0.000215565
-1.64702e-05
-0.000319633
4.97232e-05
1.79291e-05
-6.76523e-05
-0.000398916
0.000116204
0.000282267
-3.24279e-05
0.000138029
0.000252495
-0.000192566
-6.01394e-05
-5.14487e-05
8.37082e-05
-3.22595e-05
-0.000279509
-0.000117048
-0.000129009
8.69729e-06
-4.74725e-06
-6.69503e-05
0.000126796
-6.85401e-05
-5.82589e-05
-7.2905e-05
-5.4041e-06
7.83091e-05
-0.000226363
0.000277533
8.5537e-05
3.69902e-05
-0.000370972
0.000382457
-1.2255e-05
-0.000163306
-0.00022257
-0.000126771
5.69141e-05
6.98518e-05
-7.91617e-05
-4.76125e-05
-9.25457e-06
-6.36504e-05
-2.11805e-05
0.000114764
-0.000137048
-0.000232019
0.0003675
8.13595e-05
-6.93853e-05
-1.19742e-05
4.69483e-05
-7.02188e-05
2.32704e-05
0.000111689
7.10471e-05
-0.00018281
0.000398142
-0.000266515
-0.000132768
6.37192e-05
-6.91233e-05
-0.00010882
0.000236475
-0.000127835
-0.000136399
-0.000158459
0.000294376
1.82399e-05
6.37747e-05
0.000426205
-7.29424e-05
-0.000365585
-1.62858e-05
0.000117452
-7.32475e-05
0.000401611
-0.000332259
0.000203405
-0.000341951
0.000113755
2.60562e-06
-0.000116365
0.000238799
-0.000103959
-6.21879e-05
-1.653e-05
7.87179e-05
-1.28566e-05
7.65758e-05
-5.33469e-05
-3.95039e-05
9.28506e-05
-0.000262858
0.000164876
1.93671e-05
-6.66431e-05
4.7276e-05
-0.000361877
0.000352716
7.70604e-06
6.45051e-05
-5.29542e-05
-5.90173e-05
-0.000340128
0.000144656
-0.000274788
3.82485e-05
2.94037e-05
2.20631e-05
-7.54102e-05
8.97104e-05
-1.69608e-05
-7.27497e-05
-8.50332e-05
0.000118542
-3.35132e-05
0.000531376
-0.000217641
-0.000316787
-7.89645e-05
-6.80462e-05
0.000147
4.13446e-05
2.70485e-05
-6.83931e-05
0.000148461
-7.75804e-05
-7.08902e-05
4.3778e-05
-0.000122752
6.3464e-05
-0.000174283
0.000110806
0.000165575
-2.39142e-05
-0.000141682
-0.000356505
0.000403432
-4.76827e-05
0.000140997
-0.000360253
0.000215867
0.0002109
-2.954e-05
-0.000181432
0.000403294
-0.000266178
-1.83478e-05
6.5296e-05
0.00028249
-0.000138485
9.48147e-05
0.000296218
0.000261915
-9.71337e-05
-0.000164934
0.000327279
-0.000409062
0.000116124
2.61653e-06
-0.000118749
-0.000175125
0.000119981
5.51074e-05
8.60907e-05
4.58583e-05
-0.000131961
0.000172182
8.00575e-05
0.000397054
-0.000168969
-0.000236632
3.64753e-05
-0.000109366
-5.83224e-05
-6.55315e-06
1.77543e-05
6.36051e-05
0.000132635
-2.6068e-05
-0.000106574
-0.000430577
3.68767e-05
0.000389026
0.000222715
7.44488e-05
-0.000298321
-6.3971e-05
8.41701e-05
-2.01992e-05
0.00012948
-1.55332e-05
-0.000113952
-0.000120287
8.71333e-06
0.000111572
0.000154028
0.000374063
-0.000180455
0.000127674
5.27364e-05
4.70131e-05
-8.56805e-05
3.86672e-05
0.00019657
-0.000183131
-1.35129e-05
9.71937e-05
-0.000274983
-0.000249268
-2.04191e-05
0.000269502
5.68529e-05
5.65943e-05
5.1969e-05
-8.92284e-05
-0.000164002
5.17159e-05
8.63339e-05
-4.04357e-05
-4.58984e-05
0.000122739
2.7042e-05
-6.6546e-05
0.000210167
-8.38202e-05
-0.000126374
-0.000133136
0.000228454
-9.54047e-05
-2.33738e-05
0.000137123
-6.4879e-05
-0.00023548
0.000299931
-0.000398945
3.59673e-05
1.33314e-05
-0.000103109
8.9773e-05
0.000118602
-6.37481e-05
-5.48559e-05
0.000329389
-0.000177631
-0.000152255
3.64161e-05
0.000377107
-5.42512e-05
2.74558e-05
4.33227e-05
-7.07786e-05
-0.000147408
-3.30775e-05
0.000113697
-6.99269e-05
-3.61297e-05
0.000152242
-0.000117092
-5.80637e-05
-6.05177e-05
-6.76013e-05
0.000128113
-0.000267466
0.000380209
-0.000113121
0.000407269
-0.000348651
-5.90816e-05
0.000292867
-0.000310919
1.26228e-05
-1.51928e-06
-6.6124e-05
9.67342e-06
-0.000131717
0.000121977
0.000334019
-0.000177781
-0.00015685
-3.6436e-05
3.33184e-05
-7.78688e-07
-6.62271e-05
-2.48677e-05
9.10946e-05
2.39086e-06
0.000208431
0.000134266
-9.28659e-05
6.91355e-05
-4.4057e-05
6.38066e-05
-7.6808e-05
1.30013e-05
-2.97377e-05
9.35441e-05
-2.77327e-05
7.74559e-05
0.000171787
8.99584e-05
4.94317e-05
3.98749e-05
-8.93074e-05
-3.07877e-05
-0.000233049
0.000259662
7.54864e-05
0.000309989
-7.81515e-05
-0.000105276
0.000183378
1.83528e-05
-4.44418e-05
1.50458e-05
8.30356e-06
8.14067e-05
-8.86057e-05
0.000122321
-3.37189e-05
0.00010501
1.57776e-05
-0.000120796
0.000360307
-0.000295116
-0.000141738
-9.73046e-05
0.000238865
-3.50129e-05
0.000140013
-4.29464e-06
0.000133769
4.54837e-05
-0.000245173
8.79462e-05
0.000157052
-4.97553e-05
0.000246221
2.30208e-05
4.46314e-05
6.33243e-05
-3.58685e-05
0.000101008
-0.000124675
0.00025098
-0.000215251
-3.57746e-05
0.000242252
-0.00039053
0.000147843
0.00047322
-0.000377008
-0.000101536
6.72188e-05
5.13815e-05
-0.000178611
0.000188187
-5.21817e-06
-5.91248e-05
0.000239942
-0.000257285
0.000131244
0.000197614
-5.35935e-05
-9.22489e-05
0.000145831
-1.36932e-06
0.000102368
0.000315471
-0.00038804
7.06447e-05
-0.000406862
6.45559e-05
0.000340457
-0.00016387
7.87897e-05
8.50754e-05
-8.53175e-05
-4.27954e-05
0.000128107
-9.02645e-05
3.18915e-05
5.83729e-05
-5.47291e-05
-3.54336e-05
9.01625e-05
0.000222151
-0.000104662
7.7318e-05
-6.82485e-05
-9.06991e-06
-7.24929e-05
-1.77718e-05
0.000167685
0.00011795
-0.00028569
-0.000186367
-2.13453e-05
0.000207637
-3.5581e-05
8.13069e-05
-4.5726e-05
0.000222677
-0.000280828
5.78014e-05
0.00012378
-9.145e-07
-0.000122875
-8.86945e-05
0.000310303
-0.000108696
-3.54327e-06
0.000122013
-0.000120051
0.000190641
-7.15624e-06
-0.000183555
7.14096e-05
0.000187545
-0.00025931
-0.000351263
0.000334501
0.000124546
-6.28835e-05
-6.16673e-05
-0.000388328
0.000385083
1.36847e-06
1.97486e-05
4.40482e-05
0.000307538
4.15791e-05
-9.09415e-05
-5.50378e-05
0.000145967
1.12821e-05
-7.347e-05
-5.84167e-05
-3.15386e-05
8.99552e-05
-0.000235324
7.31654e-05
0.000162105
2.21587e-06
-0.000188654
-4.35616e-06
5.66516e-05
-5.43314e-05
0.000115745
-0.000102419
-0.00039487
4.1821e-05
0.000349044
0.000234741
9.17382e-05
-7.27248e-05
-1.90136e-05
0.000180499
7.04137e-05
0.000293785
-7.15645e-05
1.63614e-05
0.000329221
-7.61592e-05
2.143e-05
-0.000422122
0.000333041
4.54737e-05
3.93342e-05
-3.78229e-05
-4.44506e-05
8.22733e-05
7.08878e-05
7.75611e-05
-3.70017e-05
-1.51588e-06
0.000105769
3.85263e-06
-0.000109624
-6.23975e-05
-9.24153e-06
7.16391e-05
9.59809e-05
-3.31306e-05
0.000142601
-0.000197797
-7.02567e-05
0.000267879
8.79401e-05
1.05992e-05
-9.85423e-05
6.00867e-05
6.44535e-05
-0.000235813
9.39046e-05
3.49913e-05
8.35466e-05
-0.000122726
-0.000116779
0.00023937
8.26708e-05
-2.72741e-05
-5.53967e-05
-0.00013586
-1.80295e-05
0.000153877
7.30178e-05
-3.15497e-05
-6.76281e-05
-0.000290953
0.000236323
5.42358e-05
-0.000121649
1.07953e-05
-7.70225e-05
-6.90121e-05
8.38458e-05
-1.48338e-05
0.000170032
0.000297881
2.62245e-06
-0.000352843
0.000350244
1.55473e-06
-6.73351e-05
-5.90793e-05
0.000126408
-0.000100701
-3.92417e-05
0.000139936
-0.000171116
-0.000120092
0.0001853
-0.000182977
-5.99174e-06
-0.000129879
-0.000466194
0.000124772
0.000339882
0.000152464
-8.90099e-05
2.10499e-05
-0.00012346
0.000102396
-7.50206e-05
-4.63622e-05
0.00012138
-9.62986e-05
0.000384638
-0.000290925
-1.07605e-05
-0.000340715
-5.48705e-05
-7.93129e-05
-1.09434e-05
9.02561e-05
6.52521e-05
-7.49911e-05
9.73902e-06
-0.00012847
0.000196078
-6.76756e-05
-0.00012922
-0.00030524
0.000107723
-0.000112022
-5.84833e-05
-6.74081e-05
0.000125886
-0.000100446
-5.91068e-05
0.000159537
-3.02676e-05
0.000215489
-4.85063e-09
-7.93083e-05
4.65455e-05
2.11068e-05
-6.76523e-05
0.00025821
-1.74489e-05
-0.000241022
0.000243308
-0.000204866
-3.857e-05
5.73977e-05
3.33464e-05
-9.07455e-05
0.000515461
-0.000347435
-0.000171793
-0.000282379
0.000270949
6.24564e-06
1.79219e-05
-0.000118379
-0.000193107
9.9359e-05
9.37015e-05
2.81267e-05
-0.000372337
0.000337973
9.52298e-05
-0.000125926
2.7536e-05
-0.000115115
-0.000283187
-2.88528e-05
-2.50529e-05
3.55414e-05
0.000261871
-0.000181303
-8.07416e-05
5.07404e-06
-4.13161e-05
7.38745e-05
-0.000168218
-7.45428e-05
0.000409538
-0.000100019
-0.00031112
-7.43335e-05
-8.93721e-06
-5.50338e-05
-0.000376996
0.000265658
0.000110857
-0.000126851
5.67944e-05
-6.76523e-05
1.08579e-05
-0.000290547
0.000225294
-0.000312299
-6.4977e-05
-3.10597e-05
-0.000137243
-6.24578e-05
-1.56433e-05
7.8101e-05
7.27403e-05
-8.43929e-05
1.16522e-05
4.83349e-05
-0.00016203
0.000113655
2.28873e-05
-6.11134e-05
-4.71484e-05
9.65791e-05
-0.000261024
8.841e-05
7.39743e-05
-0.000162417
-1.60312e-05
7.28256e-05
-9.14128e-05
-2.5987e-05
0.000117398
8.71964e-05
0.000245961
-2.54344e-05
8.28307e-05
-0.000127926
6.9546e-05
5.83771e-05
-8.59504e-05
3.35613e-06
8.25942e-05
-8.0856e-05
0.000139252
-5.84055e-05
0.000182075
-7.42849e-05
-0.000107797
3.1302e-05
5.50318e-05
-4.87341e-05
9.7523e-05
-4.8789e-05
9.81651e-05
-5.98826e-05
-0.000134473
-0.000273992
-7.55096e-05
2.51695e-05
5.034e-05
3.48354e-05
3.28169e-05
8.49066e-05
-8.33411e-05
-1.56578e-06
1.91063e-06
8.29953e-05
-2.74879e-05
0.000195162
-8.18239e-05
0.000180031
-9.82489e-05
-0.00025749
9.70086e-05
0.000160363
5.98126e-05
-4.04455e-05
0.00018629
-8.18636e-05
-0.000104435
0.000123614
-0.000124577
-1.90786e-05
-0.000173047
8.68419e-05
0.000283954
-6.83058e-05
-0.000215896
-7.17067e-05
-1.42439e-05
6.98423e-05
9.00623e-05
0.00042093
-7.53776e-05
-0.000250313
0.000179332
7.08758e-05
-4.89509e-05
-0.000200468
-0.000223678
4.53363e-05
2.25664e-07
-6.26834e-05
-2.97861e-05
0.000137503
-0.000124686
0.000323545
-0.000252594
0.000237884
5.54383e-05
4.99561e-05
2.72967e-05
-7.72531e-05
-0.000114961
0.000356809
-0.000119006
0.000272078
-1.41992e-05
0.000130402
-0.000161543
-6.12601e-05
-0.000189152
-1.22642e-06
1.93916e-05
0.000388196
0.000135758
-8.40886e-06
-0.00012736
-0.000130494
5.29046e-05
-0.000108681
-2.90625e-05
0.000137733
-7.10752e-05
-4.12688e-05
9.12247e-05
5.72647e-05
-0.000235235
-7.32566e-05
2.91097e-05
8.82495e-05
-0.000117365
-0.000410534
9.34914e-06
0.000394714
9.07021e-06
-0.000100485
0.000159562
-1.24265e-05
-0.000147156
-4.0946e-05
8.22906e-05
0.000175684
0.000107963
4.2984e-05
-0.000156978
5.69479e-05
6.9844e-05
5.18723e-05
5.07168e-05
-0.000102591
-0.000121039
-2.95907e-05
0.000150617
-3.5664e-05
-3.82121e-05
7.38761e-05
0.000169197
0.000104072
-0.000274057
-9.25811e-05
3.97273e-06
7.94208e-05
-3.60881e-05
-0.000262032
0.000103984
0.000157842
3.80544e-05
4.46163e-05
0.000247635
-0.000174829
-7.29698e-05
1.85286e-05
-7.89041e-05
6.03753e-05
0.000184599
5.85357e-05
0.000206673
-0.0001069
-0.000124203
-2.67905e-05
0.000150982
0.000141018
-4.11774e-05
-9.98454e-05
0.000119077
0.000287763
-1.47039e-05
-0.000240808
0.000255134
-0.000116524
-7.66198e-05
-0.00020628
0.000319967
-0.000351011
2.8512e-05
-0.000164786
3.62543e-05
9.10225e-05
-8.88195e-05
-2.20356e-06
0.000203122
0.000194206
-0.000220694
0.000199272
-6.2057e-05
-1.10719e-05
7.31289e-05
-0.000306491
4.38471e-05
0.000262037
-0.000111821
6.91837e-05
4.26357e-05
0.000159283
1.57349e-05
-0.000175092
9.41885e-05
-2.14487e-05
-0.000216504
-6.4665e-05
0.000100842
8.84033e-05
-2.54537e-05
0.000102771
-0.000116239
-0.000154639
-6.16866e-05
0.000216249
8.16353e-08
-6.90937e-05
-7.52541e-05
-4.92986e-06
0.000110696
-0.000198668
-0.000269093
-5.93278e-06
0.00014168
0.000236371
-2.99584e-05
-0.000206559
-0.000126329
0.000169277
-4.79979e-05
0.000376529
-0.000332418
3.38261e-05
3.38261e-05
9.54482e-05
-4.44704e-05
-5.09784e-05
9.24997e-05
3.78787e-06
-9.62893e-05
0.000282213
-4.47824e-05
-0.000130206
-8.8126e-05
-3.65915e-05
0.000124714
-1.05637e-05
7.58158e-05
-0.000119048
0.000385936
-0.000276226
-2.35542e-05
-5.19553e-05
-8.90531e-05
-4.53494e-05
0.000134396
5.24264e-05
-8.28712e-05
3.04447e-05
6.80767e-05
-0.000190912
0.000121555
-8.69308e-05
-3.46264e-05
0.000384003
-0.000265664
-0.000119157
-1.20513e-05
1.96825e-05
-6.76523e-05
1.62037e-05
-5.71469e-05
0.000109157
-5.20135e-05
0.000359299
-0.000284972
7.34926e-05
-0.000203065
-3.97533e-05
-0.00018101
0.000374869
-0.000106684
-0.000278602
4.36141e-05
5.18335e-05
-0.000161627
7.97655e-05
-3.255e-06
0.000162795
0.000196822
6.13285e-05
-0.000258552
0.000307178
-0.000138954
-0.000227823
-0.000126294
0.000354108
-5.81714e-05
0.000110042
-0.000466205
0.000364255
-0.000359711
0.000131936
-0.000110346
4.10149e-05
6.93298e-05
-5.59299e-06
9.66148e-05
-0.000172464
0.00026936
-0.000121472
5.10586e-05
7.04094e-05
-0.000343832
-2.71402e-05
-7.11738e-06
0.000272355
-8.03351e-05
-0.000226726
-0.000126721
0.000153389
3.84682e-05
-0.00019194
0.000267355
-0.000363449
9.41314e-05
-2.33075e-05
0.000294787
-0.000272369
8.68754e-05
4.57538e-05
0.000373129
-0.000113192
-0.000260887
4.85429e-05
2.94289e-05
-7.79722e-05
0.000353642
-0.00022324
-0.000136257
-0.000236479
0.000271758
-3.56135e-05
-6.52843e-05
8.37602e-05
0.000219523
-0.000123588
-9.59813e-05
0.000107452
1.37653e-05
-0.000145977
-1.96976e-05
0.000256817
-0.000240848
-8.67598e-05
0.000283187
-0.000140617
0.00038665
-0.000247671
0.000114203
-2.8244e-05
-8.59609e-05
5.48038e-05
3.57045e-05
-9.05093e-05
1.609e-05
-0.000214036
1.98613e-05
-5.86146e-05
3.87534e-05
0.000201331
-0.000339195
2.471e-05
0.000310915
-5.9552e-05
-2.02046e-05
7.97564e-05
-6.45279e-05
-6.2435e-05
-0.000117589
0.000179984
0.000144951
0.000184251
-0.000330317
3.5436e-05
6.29805e-05
0.000147155
-9.68903e-06
7.61232e-05
-6.64347e-05
-6.64698e-05
-0.000290649
-0.000194016
0.000269679
-7.58429e-05
-0.000129458
7.30068e-05
0.000141118
-0.000214273
4.51749e-05
5.2348e-05
5.89977e-06
-9.40288e-05
-2.13217e-05
0.000113819
-0.000103172
0.000228725
-0.000125787
-0.000116994
-0.000419834
0.000386459
3.1501e-05
-7.31297e-05
-7.37146e-05
0.000232906
8.39629e-05
-8.53399e-05
-3.69259e-05
0.000273116
0.00018665
0.00011134
0.000108119
0.000101832
1.74072e-05
-4.65822e-05
3.0481e-05
3.83392e-05
-6.88202e-05
-7.30688e-05
1.35168e-05
9.73555e-05
-4.88133e-05
4.54126e-05
-6.5151e-05
1.97384e-05
-5.55432e-05
7.23413e-05
-1.09868e-05
-6.13545e-05
-0.000106655
-8.81506e-05
0.00024407
-0.000155999
2.57419e-06
-0.000182581
0.000178406
-8.1599e-05
-3.02235e-05
-0.000374655
-4.36774e-05
-5.61538e-05
0.000373372
-0.000222197
7.35782e-05
0.000148559
-8.28614e-05
-3.50538e-06
8.63667e-05
0.000310583
-0.000273925
-3.73092e-05
0.000193205
0.000113191
-0.000306756
-4.57485e-06
0.000106815
-0.000102255
0.00011504
-0.000180077
6.49794e-05
1.19819e-05
0.000310455
-0.000322673
-8.3369e-05
9.8689e-05
-1.53211e-05
-0.000140636
-0.00023079
0.00036861
-3.75356e-05
-4.67867e-05
8.43221e-05
-1.04639e-05
0.000124663
-0.000347046
0.000270489
-7.12917e-06
0.000273494
-0.000267106
-5.63998e-05
-6.68036e-05
0.000123198
-0.00010101
-0.000401263
8.06707e-05
1.10616e-05
-9.17337e-05
-9.01863e-05
8.58619e-06
-0.000453829
6.74007e-05
0.000381065
-4.45856e-05
-3.92618e-05
8.38472e-05
0.000121428
-5.22654e-05
-7.19504e-05
-6.59501e-05
0.000137889
-0.000246703
0.000143248
0.000103507
-6.24934e-05
-4.70568e-05
8.13717e-05
-3.4315e-05
-0.000174229
-0.000283734
0.000132578
-9.13039e-05
-4.12784e-05
-6.96384e-05
-0.000312053
0.000380015
-0.000360965
-7.97967e-05
-2.56716e-05
0.000105467
6.72174e-05
-4.8689e-05
-7.18553e-05
-0.000146359
0.000218092
-5.23833e-05
0.000205686
0.000358904
-2.44389e-05
-0.000334964
0.000142966
1.79168e-05
-0.000160927
-3.93668e-05
8.63798e-05
-5.80964e-05
-2.47879e-05
8.28842e-05
-0.000342837
-4.21644e-05
0.00038117
2.16531e-05
3.84441e-05
-6.00972e-05
-8.62152e-05
-0.000302993
-0.000184248
-0.00019553
-7.43023e-05
0.000269566
0.000235373
-0.000363017
-0.000288165
0.000129312
-2.92773e-05
-5.60047e-05
8.52819e-05
6.15287e-05
7.94816e-05
-7.3863e-05
0.000282518
2.73274e-05
0.000354402
-5.28925e-06
-6.69093e-05
-2.47818e-05
9.16909e-05
-0.000244964
0.000192383
5.00099e-05
-0.000122007
0.000153614
-3.16184e-05
-0.000233235
-1.54863e-05
0.000248373
-9.61824e-05
-0.000144654
0.000240655
-0.000138755
0.000269375
-0.000130796
-5.32992e-05
-3.52914e-05
8.85903e-05
-3.10663e-05
7.76118e-05
-0.000258589
2.23999e-05
0.000235823
2.88749e-05
5.05459e-05
-0.000334748
0.000272346
6.14715e-05
-0.000193477
0.000111094
8.23418e-05
-4.94433e-05
8.9272e-05
4.79455e-05
3.57627e-05
0.000230596
0.000102094
-0.000333993
-0.000296351
0.000151699
1.38636e-05
9.19576e-06
-6.52006e-05
-0.000128292
5.25392e-05
7.57474e-05
0.000182704
-3.97885e-05
6.14685e-05
-7.11581e-05
1.99912e-05
-0.000215765
0.000258173
-7.37338e-05
5.96333e-05
3.21045e-05
-5.63716e-05
0.00010423
-4.78593e-05
0.000122565
1.90071e-05
-0.000141583
3.84721e-05
-7.60079e-05
0.00012236
-1.79393e-06
-0.000120573
-8.39691e-05
4.9069e-05
3.48998e-05
-8.80798e-05
-0.000229779
0.000316791
3.01161e-05
-9.86588e-05
6.91002e-05
5.24524e-05
-1.7214e-05
0.000303574
-0.000289766
-3.24702e-05
7.07187e-05
-5.10857e-05
0.00010096
-4.98745e-05
-7.35437e-05
-0.000182972
4.10757e-06
0.00031341
-0.000318758
-5.25383e-05
7.23993e-05
0.000110677
3.66613e-05
-0.000147362
6.91028e-05
1.5101e-05
-8.42045e-05
-0.000206736
-0.000261083
-2.74653e-05
3.32098e-05
-1.4524e-05
0.000208242
4.27066e-05
-0.000251004
-8.77137e-05
0.000202688
6.27372e-05
0.000284629
-7.4558e-05
1.6827e-05
-5.29882e-05
-3.98887e-06
0.000126342
0.000175878
9.22712e-05
-0.000268391
-0.000156343
2.99816e-05
0.000177579
0.000224898
-0.000246785
0.000258581
-0.000170302
0.000215326
-4.50855e-05
6.47822e-05
-4.31292e-05
-0.000120961
-9.04071e-05
0.000211291
-7.19744e-05
-0.000214584
-0.000322647
-5.39755e-06
0.000319625
0.000292061
-0.000363172
6.67475e-05
-0.000179646
7.43232e-05
0.000229146
-0.000253213
0.000151936
-6.58874e-06
-0.000145365
1.50737e-05
0.000253389
-0.000268998
0.000104786
-0.000167261
-9.00879e-05
0.000120201
0.000237393
-9.71442e-06
-0.000228965
-4.6183e-05
-2.95034e-05
7.56865e-05
-8.40537e-05
7.784e-05
-3.06177e-05
-0.000129217
0.000159814
-4.4981e-05
7.38559e-05
-6.88609e-05
9.40436e-05
-2.5183e-05
0.000207301
9.85e-05
-2.93979e-05
0.000112875
-0.000117466
-8.27281e-05
-5.57917e-05
0.000138513
2.91137e-05
-8.01998e-05
0.000397078
-5.63803e-05
-0.000344
-1.75334e-05
-6.58362e-05
-7.82586e-05
-0.000151249
-0.00011097
8.16464e-05
-3.62337e-05
-0.000120485
7.10658e-05
4.94164e-05
-0.000117235
-0.000298048
-8.16186e-06
0.000160077
0.000359529
-4.59216e-05
-4.99046e-05
-3.40647e-05
2.16659e-05
-6.32299e-05
4.1564e-05
0.000417096
-0.000197382
-0.000220746
-4.91091e-05
-7.12039e-05
0.000103652
-3.24486e-05
1.31331e-05
6.77018e-05
-8.27242e-05
-9.08329e-05
0.000102369
1.47047e-05
-0.000130216
2.25351e-05
-6.87181e-05
-6.30186e-05
-4.09158e-05
0.000103933
-8.26566e-05
-0.000229808
-0.000103419
-4.81564e-05
0.000151563
0.000289318
8.27905e-05
0.000240699
0.000117385
-0.000358473
0.00010812
-9.18918e-06
-9.8934e-05
-0.00013022
4.46257e-05
8.84411e-05
-0.000133078
-0.000399798
0.000303046
8.46388e-05
9.99701e-05
-7.89307e-05
-0.000105147
0.000172567
-6.74539e-05
-0.000184037
7.83721e-05
0.000105615
-0.000149541
0.000277714
-0.000128296
-0.000176773
0.000307504
-5.83513e-05
0.000169001
4.70936e-05
0.000161093
5.67318e-05
7.75222e-05
0.000204986
-9.33712e-05
-0.000121721
0.000192697
-2.4411e-05
0.000146962
-1.75526e-05
9.36748e-05
0.000108892
-6.3817e-05
9.20259e-05
-1.39163e-05
-7.81102e-05
0.000111752
-3.10833e-05
-4.06517e-06
0.000117756
5.11649e-05
-8.14597e-05
3.02948e-05
0.000228624
-0.000169793
-5.89021e-05
-9.16904e-05
1.18924e-05
-0.000126998
-0.000376944
0.000291264
8.31478e-05
0.000163938
9.4057e-05
2.54316e-05
8.34554e-05
0.000273844
-0.000119755
-0.000154345
0.000381141
1.62869e-05
-4.17805e-06
-0.00035902
0.00035901
-0.000103271
-5.88543e-05
0.000162105
-6.85015e-05
3.28375e-05
2.54092e-05
-0.000262188
3.05226e-05
-7.49733e-05
-0.000348464
1.6782e-05
-9.69119e-05
3.3892e-05
0.000116434
-5.38437e-06
-0.000111058
5.16212e-05
-6.76523e-05
-0.000158553
0.000150371
-0.000256198
3.93721e-05
-0.000264696
0.000274852
8.23023e-05
-3.06811e-05
0.000119435
-7.48176e-05
8.31832e-05
0.000145356
-9.37413e-05
0.000142122
0.000163871
2.99459e-05
7.3693e-05
-0.000103641
-0.000133906
-0.000132057
0.000128061
-0.000133771
0.000261544
-0.000127946
6.92731e-05
4.29073e-05
-0.000112184
0.000220231
0.000163086
-8.90983e-05
0.000314571
-0.00019671
-0.000184829
0.000425114
-3.47853e-05
8.54475e-05
-5.06625e-05
1.91381e-05
-6.23493e-05
-2.01602e-05
0.000128277
-7.7853e-05
-1.79669e-05
-0.000140604
-5.36812e-05
-2.80956e-05
8.17766e-05
6.18903e-05
-3.48418e-05
-1.51539e-05
-0.00011691
-0.000112626
2.98924e-05
9.0614e-05
0.000116661
0.000260457
-0.000328791
0.000317832
0.000459275
-0.000229428
-0.000240256
0.000359931
-7.23968e-05
-3.63635e-05
9.37862e-05
7.98677e-05
-0.000173694
0.000160436
-0.000111848
-4.85989e-05
6.32027e-05
-0.000168376
0.000106263
-4.42891e-05
0.000214424
-0.00029382
7.88425e-05
-7.68972e-05
-3.31107e-05
3.31107e-05
3.64997e-05
4.85568e-05
-0.000207608
9.25623e-05
0.000114963
-4.63242e-05
1.23229e-05
0.000324005
-0.000324028
-3.11421e-07
-7.78891e-05
-9.63907e-06
8.75279e-05
-0.000279371
3.40618e-05
0.000109531
-8.6202e-05
-2.33305e-05
-6.94463e-05
9.85594e-05
9.66674e-05
0.000152115
-1.59758e-05
-0.000136167
-0.000375061
0.000378279
-8.19373e-06
-8.85249e-05
3.90767e-05
0.000285624
-0.000125093
-0.000160787
-0.000292806
1.82585e-05
-9.92798e-05
-0.000260309
0.000260431
-5.57906e-07
-0.000347276
0.000111313
0.000407207
-0.000294111
-0.000115919
0.000205005
-0.000107598
-9.74868e-05
-5.046e-05
-2.83077e-05
7.87677e-05
-0.000276219
0.000116716
0.000159274
-7.73567e-05
-0.000178832
0.000256022
1.97357e-05
-0.000108794
1.63386e-05
-7.44351e-05
-0.000113411
-0.000101865
0.00026388
-0.000134244
-0.000129813
-4.27497e-05
9.26721e-05
-4.99227e-05
0.000204258
0.000243575
5.81431e-05
-8.11873e-05
7.80852e-05
-2.5521e-06
-0.000310003
0.000196002
-8.23467e-05
0.000110864
-2.85189e-05
-0.000169659
8.15798e-06
0.000161475
0.000155116
-6.90386e-05
0.000101684
-0.000154419
5.27162e-05
-0.000182714
-7.06962e-05
-0.000124632
0.000194686
-2.91794e-05
2.91794e-05
-0.000108962
-8.45507e-05
0.000216905
-0.000306046
-0.000131965
6.11474e-05
0.000132086
0.000117121
-0.000249516
0.000109109
-0.00011173
2.6157e-06
0.000221521
2.69239e-05
-0.000256992
-5.83667e-05
-6.93433e-05
0.000127703
9.9128e-05
-3.38421e-05
-9.03501e-05
0.000124191
0.000151991
-5.03256e-05
-9.25268e-05
6.51857e-05
2.73408e-05
-0.000185453
0.000101611
-2.5778e-07
-9.90203e-05
-5.45477e-05
0.000153555
-9.17556e-05
0.000334663
-0.000250274
-0.000234358
0.000219311
0.000107319
-1.52938e-05
-6.63611e-05
9.36576e-05
-7.39057e-05
3.75114e-05
5.51603e-05
-0.000408788
5.44912e-05
0.000352908
0.00015687
0.000259019
-1.89854e-05
-0.000111547
0.000130513
-0.000122721
-0.0001754
0.000297614
-0.000390649
0.0003967
-1.01628e-05
-8.02882e-05
3.95732e-05
5.0634e-05
-0.000117975
-7.22159e-05
2.95039e-05
4.2712e-05
-0.000130401
-1.9576e-05
-0.000150107
0.000201694
0.000155562
-0.000357631
-0.000386763
9.22861e-05
5.51757e-05
4.80077e-05
-0.000103185
-0.000155848
0.000152571
-2.82021e-05
-0.000110529
0.000127607
-1.75764e-05
0.000112566
-6.67169e-05
-6.4383e-05
0.00013395
-6.95756e-05
-4.83816e-05
9.04798e-05
-0.000358251
2.28564e-06
0.000164721
-0.000172703
1.75598e-05
-6.80198e-05
0.000141227
-0.000290897
0.000251702
-0.000149705
-0.000102162
0.000305488
5.71678e-05
-7.16853e-05
-1.57291e-05
8.74142e-05
6.31085e-06
4.42006e-05
-2.469e-05
7.52359e-05
0.000333821
-0.000374579
3.97718e-05
0.000146054
-7.51779e-05
-9.94276e-05
-0.000118047
0.000217363
2.62947e-05
0.000107223
-0.000133535
-0.00021127
6.78405e-05
-0.000335483
-6.70297e-05
0.000251461
-0.000184867
-5.84411e-05
-0.000168362
0.000215586
0.000119107
-7.99682e-05
-3.91423e-05
-0.000334384
0.000126421
0.000207687
3.32116e-05
5.06341e-05
-0.000312261
0.00016913
0.000142312
8.72551e-06
-9.0731e-05
8.20039e-05
8.83853e-05
-5.86472e-05
-2.97383e-05
-0.000240968
0.000100516
0.000140277
0.000180794
-6.03859e-05
-0.000131884
9.02932e-05
-5.45201e-05
-3.57732e-05
-5.87428e-05
9.55476e-05
-3.68057e-05
-4.70516e-05
-0.000211855
-0.000156155
0.000164287
-0.000353367
2.42089e-05
5.16039e-05
-6.76529e-05
1.6049e-05
-6.76458e-05
-0.000311685
9.70219e-05
-7.15945e-05
-6.64368e-05
0.000357202
-0.000293805
0.000114129
-0.00018114
1.42669e-05
9.5263e-05
-0.000209151
0.000249124
-0.000272428
-2.29278e-05
-0.000169793
7.96547e-05
-5.16915e-05
-2.79633e-05
-9.16121e-05
4.66996e-05
4.4912e-05
1.88336e-05
-9.00381e-05
0.000471243
-0.000306653
7.74501e-05
-2.62852e-05
-0.000346548
0.000248043
-5.68054e-06
0.000216476
0.000152004
0.000227714
-7.34262e-05
-0.000120118
0.000131941
1.05657e-05
-0.000144127
-4.45854e-05
9.53155e-05
-5.07306e-05
-5.23872e-05
0.000101813
-4.94261e-05
-7.50623e-05
-0.000314831
-5.53111e-05
-6.29721e-06
0.000146447
-0.000218418
0.000336012
-1.07074e-05
3.24329e-05
5.78601e-05
-0.000128622
-4.21953e-05
-5.20777e-05
8.33794e-05
0.000150643
-0.000218073
-6.67393e-05
0.000289981
-0.00031047
0.000215915
-0.000122017
0.000139086
-2.2664e-05
0.000432397
-3.91625e-05
-7.82064e-05
-6.55405e-06
-9.061e-05
-3.24696e-05
0.000123077
6.0864e-05
-3.91981e-05
-4.74226e-05
0.0001995
-3.88597e-05
4.95534e-05
-0.000151815
0.000102221
7.39892e-05
0.00030704
-9.44055e-05
0.000215289
-0.000120978
-7.30802e-06
-0.000148871
4.06767e-05
2.7889e-05
-6.85657e-05
0.000160632
0.000101051
6.20342e-05
-0.000108901
4.68647e-05
-1.39222e-05
-0.000141945
0.000127058
-3.45876e-05
-6.35804e-05
8.69355e-05
-2.33555e-05
-7.20356e-05
8.45479e-06
-7.19091e-05
4.63413e-05
2.55678e-05
-5.32682e-05
-6.24326e-05
-3.75963e-05
0.000100027
0.000282805
-5.4332e-05
-5.98157e-06
9.39191e-05
0.00012111
-6.71603e-05
-5.39524e-05
0.000113605
0.000159949
3.84876e-05
6.47473e-05
6.48912e-05
1.10572e-05
-7.59489e-05
0.000201467
8.77443e-05
-0.00028979
4.99881e-05
0.000118579
0.000366421
-0.000137072
-0.000138878
0.000339665
-7.51908e-05
5.38211e-05
0.000383187
-2.97808e-05
-0.000358234
-0.000207518
0.000113021
-6.28482e-05
7.41302e-05
-0.000310142
0.000268946
4.05555e-05
8.29616e-05
-3.83302e-05
-0.000285231
7.80359e-05
0.00020696
-0.000159592
7.5065e-05
8.45024e-05
9.23677e-05
-6.65277e-05
-2.58402e-05
-0.000254113
-5.70725e-05
-7.12232e-05
-2.85804e-05
-0.000144037
0.00017246
-0.000101898
-0.000139231
-5.88184e-05
-3.27943e-05
0.000301567
-0.00011106
0.000139795
-2.87407e-05
-8.32463e-05
5.69481e-05
2.27064e-05
0.000372975
-7.83153e-05
-0.000296474
-7.25118e-05
3.46903e-05
3.78214e-05
0.00026494
-0.000161167
-2.93605e-05
7.11598e-05
-4.17994e-05
3.05093e-05
3.87422e-05
-6.92515e-05
-3.63104e-05
-3.62014e-05
-0.000232633
0.000142787
8.97602e-05
-0.00035945
0.000288583
6.99369e-05
-0.000319404
-9.07626e-05
-6.98248e-05
-1.60198e-05
8.40479e-05
0.000103822
-9.18873e-05
0.000368371
-0.000277717
-4.05057e-05
-0.000159754
0.000247519
-0.000247133
9.19477e-05
0.000155089
-0.000189068
7.56444e-05
0.000209631
7.28594e-05
0.00011467
0.000350763
0.000279858
-0.000167604
-0.000112631
-0.000120759
-0.000171304
0.000291796
0.000208651
-0.000216365
-0.000223284
-3.98168e-05
6.63016e-05
-8.44056e-05
1.81036e-05
0.000120264
-6.9307e-05
-5.09601e-05
-0.000252601
0.000157846
9.45326e-05
-0.000116611
0.000182039
-6.54797e-05
-4.10191e-05
0.00010591
-0.000154498
7.69235e-05
-7.35675e-05
-0.000135506
0.000328434
-8.83923e-05
0.000224263
-0.000135983
-0.000245723
-8.8861e-05
0.000385021
-9.34759e-05
-0.000293768
-0.000158583
-4.41474e-05
0.000202667
-0.000326309
-1.61387e-05
0.000398535
-2.09983e-05
0.000117779
6.42851e-05
-0.000319116
-2.98145e-05
-1.53547e-05
0.000124459
-5.62417e-05
0.000284569
-3.51821e-05
6.73696e-05
-3.21875e-05
-6.66089e-05
-4.65177e-05
0.000113124
-0.000122882
4.92236e-05
7.36523e-05
7.88462e-05
5.37263e-05
-0.000370866
5.45691e-05
0.000314251
-7.84692e-05
6.37555e-05
6.63647e-05
-0.000130129
-6.4009e-06
-0.00024074
0.000317344
-0.000204541
8.90714e-05
-1.21481e-05
0.000142941
0.000125486
-0.000268607
0.000128531
0.000105281
-9.62126e-05
1.7107e-05
-7.91639e-05
-3.97935e-05
-0.000133904
0.000173672
-0.000348721
0.000304015
4.30577e-05
4.26813e-05
0.000122749
-1.74705e-05
-8.81054e-05