/*--------------------------------*- C++ -*----------------------------------*\
| =========                 |                                                 |
| \\      /  F ield         | OpenFOAM: The Open Source CFD Toolbox           |
|  \\    /   O peration     | Version:  v2012                                 |
|   \\  /    A nd           | Website:  www.openfoam.com                      |
|    \\/     M anipulation  |                                                 |
\*---------------------------------------------------------------------------*/
FoamFile
{
    version     2.0;
    format      ascii;
    class       volScalarField;
    location    "350";
    object      ddt0(omega);
}
// * * * * * * * * * * * * * * * * * * * * * * * * * * * * * * * * * * * * * //

dimensions      [0 0 -2 0 0 0 0];


internalField   nonuniform List<scalar> 
13917
(
0.0357508
-0.000415494
-0.00824616
5.76021e-06
-9.23638e-05
-0.000278087
2.74191e-05
-0.00358142
3.24763e-05
-1.32893
-0.00378571
5.25761e-06
1.31812e-05
0.25783
0.000173119
0.0377162
-5.19401e-06
-0.00278023
0.00164833
-0.103289
-3.7614e-05
5.85327e-06
7.91874e-05
6.25818e-06
5.09509e-06
-8.66167e-05
0.0386788
-1.04909
-0.000437588
4.68083e-06
-0.935497
0.000361853
4.80876e-06
-0.00248297
9.11576e-06
-0.00630083
2.46275e-05
-6.39188e-08
2.63405e-05
0.000117132
-3.71781e-06
-5.12772e-05
2.0528e-05
0.000586693
0.000546224
-0.0068499
-2.15178e-05
-1.386
-0.0907355
9.24409e-06
5.85078e-06
-0.00111802
0.0173455
8.31249e-06
9.26621e-06
-0.000910542
-0.0239838
8.0455e-05
-2.22482e-05
-0.00197124
0.0123317
0.000556202
-1.02972e-06
4.88287e-06
0.0361986
0.0416583
-0.000627851
-0.00436466
-0.00181186
-0.017843
0.0149626
-0.00386305
5.75322e-06
7.7423e-06
-1.0494e-05
6.4084e-06
-3.64489e-05
1.79867e-06
6.65048e-06
4.89621e-06
8.80474e-06
-3.64225e-06
6.07811e-06
-0.0581574
7.16481e-06
-0.017003
0.000346598
8.43896e-06
9.2024e-05
-3.98039e-06
5.58623e-07
2.24349e-05
-0.0505455
3.14372e-06
1.47388e-05
-0.000625411
0.278826
-2.72652e-06
8.01112e-06
0.00888415
-3.65217e-06
-3.16314e-06
1.15236e-05
2.35716e-06
-2.84209e-05
-0.0352003
0.0848725
0.0012472
2.36417e-05
0.0228154
9.5156e-06
-0.00301913
-0.000389932
-0.908188
0.0367879
5.0596e-06
0.00133033
-1.3148e-06
-0.000662215
5.8962e-06
-3.30714e-06
-7.74871e-07
-0.00108257
0.000406285
-0.02161
-0.0184131
4.86051e-06
-8.20194e-06
3.10816e-06
0.000575727
8.42989e-05
-0.0154374
0.0310662
6.05823e-06
0.00039007
0.0200087
-0.112136
-0.00984457
-0.000136483
-9.13603e-08
0.478621
4.13604e-06
-0.0159966
5.03538e-06
5.6707e-06
0.000675226
6.12473e-05
-0.0317203
-0.944778
8.83976e-06
3.41334e-05
-2.57957e-06
5.74253e-06
6.07991e-06
0.20941
2.34061e-05
2.25292e-06
0.0286184
-4.77904e-06
-2.83632e-06
5.29139e-06
-0.00273829
4.5528e-05
0.548614
0.276306
0.0433089
0.0190896
0.674055
-6.78419e-07
-0.000164394
7.36404e-06
0.0425157
3.27814e-05
-0.0791622
2.14349e-05
-2.996e-06
6.06727e-06
-0.00166243
7.66154e-05
4.38745e-05
1.90612e-05
7.51001e-06
5.90058e-06
-0.000628049
-0.00196213
-0.0151637
6.06053e-06
-0.00251498
2.00933e-06
-0.00695749
-4.09084e-05
0.000759557
0.00242346
0.0346692
3.53936e-06
-0.0210093
8.10104e-06
0.0247991
7.63744e-06
1.87001e-05
-3.38598e-05
-0.0093238
-0.00706804
3.12836e-05
-0.0211347
-0.000198666
6.19755e-05
2.57288e-06
-0.00141881
8.56045e-06
3.73796e-06
-0.000978064
0.000406539
-0.686342
0.000390488
-5.3563e-05
-0.00995434
6.61412e-06
1.21721e-06
1.34723e-06
0.122213
0.00223493
-0.00214888
7.95457e-06
-1.24619e-06
-0.0153487
-0.0259245
1.48752e-06
1.47039e-06
-3.55739e-06
1.50146e-06
1.52263e-06
-0.00206
0.637437
2.29349e-06
-8.88955e-07
-0.000217998
-0.00497782
-5.87512e-06
8.35402e-06
-0.0132159
-0.00162172
0.0063304
-0.00919935
-0.000346151
4.97331e-06
1.11324
-0.000276952
-0.000353868
0.000578666
2.87137e-05
0.13496
5.97352e-06
0.000118548
-3.7044e-05
1.54286e-06
-2.84436e-06
4.91413e-06
-4.27498e-05
2.91263e-06
-0.0101438
-0.127538
5.37296e-06
1.48738e-06
2.11188e-05
1.40942e-06
5.93681e-06
1.32484e-05
4.23747e-05
2.29198e-06
-0.00855591
0.0570451
6.12584e-06
-4.85077e-06
-0.0835249
-1.53985e-07
0.00411234
-0.00236371
2.8e-08
-0.00958871
2.05566e-06
-0.00317368
-3.16279e-06
0.000108515
8.5722e-07
5.59173e-06
0.00399014
1.59592e-07
0.0813684
1.49407e-05
-0.00287057
0.00129111
-0.562008
-0.00862537
-2.24255e-06
1.53722e-05
-9.03215e-05
6.18982e-06
-5.38063e-05
5.24287e-06
2.38771e-06
2.90815e-06
-0.00164371
-0.00183718
0.000109661
6.23168e-06
8.33268e-06
0.0275221
-0.00437931
3.7041e-06
-0.00225961
5.53265e-06
0.0623985
-0.000932758
0.0115301
-0.0849567
0.0317163
-0.00173933
1.42913e-05
-0.107446
0.0862754
-0.00967597
1.3542e-05
0.000159887
0.0412233
1.25328e-05
-0.000627238
0.000745803
-5.23494e-06
0.0435548
8.06964e-06
0.000190866
-6.09926e-06
-0.0909593
4.40643e-06
8.66071e-05
-0.000229734
0.0187895
-3.93035e-06
0.000556886
-0.0752194
1.31376e-05
1.31251e-05
0.00145718
-0.0438128
-0.0180692
0.345119
2.89007e-07
3.66871e-06
0.0122691
-0.00206239
5.39563e-07
-5.19427e-05
7.66696e-06
0.000255362
6.64329e-05
0.000459076
5.91675e-05
0.00422818
0.000171017
0.00118474
2.9142e-06
1.31244e-05
-0.000274796
0.00674951
-5.00375e-06
0.0391821
0.000174238
0.0369108
1.01059e-05
-0.000491765
-0.00216811
0.0134827
3.97494e-05
0.00543549
-0.0711732
-0.000339242
6.43528e-06
-0.035879
1.24104e-05
0.239487
-0.000418362
5.04862e-05
-0.0510081
-3.22729e-06
-0.0343523
1.92818e-06
-0.00510041
-0.0138152
1.74379e-05
-0.0239194
0.00260058
2.58544e-05
-0.00599715
0.00926153
1.4665e-05
0.00405354
5.23605e-06
0.00320747
-0.00841532
7.67505e-06
3.07673e-05
5.31729e-06
5.28907e-06
5.54968e-06
2.7135e-06
-0.130396
0.00936442
1.09381e-05
2.12824e-06
6.82966e-06
4.39469e-06
-0.0238987
-1.28566e-07
-6.06443e-07
-0.000957566
0.000558517
5.83057e-06
1.79052e-05
-0.072117
0.120213
0.0464853
0.00185433
-0.265924
9.72752e-07
-8.9456e-08
-6.31142e-05
5.70521e-06
2.2262e-07
1.82485e-06
-3.84271e-07
4.26912e-07
1.3271
5.88815e-06
0.000173994
-0.00577565
-4.58422e-07
3.85918e-06
5.63763e-06
-0.0105171
-1.28141e-05
-0.0248856
7.52265e-06
6.5725e-06
3.55307e-05
1.88641e-06
2.43512e-05
-5.67288e-06
-0.0665209
-0.000383466
-0.0215753
6.36081e-06
8.15525e-05
-0.000986543
5.8587e-06
-0.000260366
-0.0244023
7.44656e-06
-0.127607
3.61188e-06
6.57045e-06
7.45763e-06
-3.18518e-06
4.01822e-06
9.09698e-06
0.0307802
-0.0433458
3.94072e-06
-0.583254
-0.000858768
1.06081e-05
-4.22465e-05
0.000571461
0.0554696
3.47025e-05
-0.0447788
-0.0081111
-0.0244999
-6.27845e-06
0.0310895
-0.00156614
2.79766e-05
0.0505069
-6.25028e-09
8.13387e-06
1.47678e-05
3.16215e-05
-2.99179e-05
0.000810362
0.000202883
-0.00065732
-2.23767e-05
-0.00140307
0.000286053
1.1105e-05
0.098881
3.93977e-05
1.31774e-05
0.0836764
8.12705e-06
0.000183489
0.000690575
5.07634e-06
0.0246067
6.59981e-06
1.90927e-06
-6.50117e-06
3.73652e-06
7.52696e-06
-0.000904048
0.0264163
-0.0573629
5.7602e-06
8.50038e-06
8.35521e-05
0.0641636
-0.129476
1.00198e-05
8.85673e-06
5.96713e-06
-1.58416e-05
-0.123035
3.32463e-06
-5.52039e-06
1.90223e-05
5.49663e-06
1.59133e-05
2.46801e-05
-1.35927e-06
0.000183256
5.19615e-06
5.38454e-06
5.8405e-06
-0.000869032
2.27194e-06
1.41323e-05
3.56011e-06
7.40399e-05
-2.60119e-05
2.03329e-05
-8.6128e-05
0.00931573
6.78641e-06
-0.00125018
0.0171084
1.15958
-0.00164943
4.53372e-06
8.14803e-06
-0.00203077
5.56581e-06
0.038956
-2.75452e-07
-0.229801
9.74222e-06
0.012367
0.00476286
2.0557e-05
0.147556
4.17492e-06
0.000382968
-2.06868e-06
3.75114e-05
0.0224747
8.20184e-07
-0.00516008
-1.20865e-06
1.1777e-05
7.70135e-06
-3.11028e-05
3.534e-05
1.46686e-06
0.000205185
-2.38025e-05
-0.105059
-0.0294878
0.0208035
0.101763
2.33744e-06
-0.0234677
-1.12877e-06
-0.0923548
-0.0259203
5.95901e-05
-0.00280273
-3.42221e-06
4.55337e-05
1.76567e-05
1.04518e-06
-1.59458e-06
1.19019e-05
-0.191546
5.61329e-06
0.000326564
7.58889e-06
1.51799e-06
-5.16891e-06
-0.000270788
0.0171782
0.0630542
0.000493272
2.49597e-05
0.232683
-0.00316907
1.76711e-06
0.0039055
1.17463e-05
0.000674319
5.74254e-06
-0.123439
5.52679e-06
4.08664e-05
6.04372e-06
-0.103842
4.14306e-05
0.0221734
-8.60395e-07
4.48632e-05
7.58298e-06
-3.24121e-06
-0.00218175
0.0703895
9.15569e-06
0.00134855
8.38016e-06
9.93705e-06
-2.20112e-06
-0.00625736
5.81545e-06
-0.000102156
-3.20567e-07
8.67727e-06
-0.00279136
-2.42351e-06
0.00118512
-3.26948e-06
4.41496e-06
-0.0340709
0.000336113
9.51359e-06
0.00994225
-0.00594827
0.00315785
0.000444447
4.12356e-06
0.000163306
0.00622606
0.00375051
-2.49922e-05
2.29844e-05
6.83271e-05
-2.54422e-06
3.77181e-06
0.0399591
-5.47878e-05
3.40532e-06
0.308788
3.45245e-05
0.217164
-0.0897939
0.000252509
6.8865e-05
0.00198793
-0.00747841
2.68003e-06
0.00141281
0.037536
4.46251e-06
-7.13109e-08
-5.22176e-06
0.000325492
9.34998e-06
-0.0186331
0.000121562
4.10449e-06
0.00078152
-5.4707e-07
0.00138956
1.7384e-06
3.13166e-06
0.0263128
-2.01678e-06
0.047116
5.60326e-06
-4.13998e-05
4.8842e-06
7.12043e-06
3.29214e-05
5.97239e-06
-0.0221475
2.83345e-05
-0.321459
0.0497061
0.00177581
0.0182514
8.19551e-06
1.13687e-06
7.58492e-06
0.00353414
-0.022094
1.01296e-05
-0.0225845
-0.0442528
4.39446e-06
3.85959e-06
2.84642e-05
-0.0562345
-0.0125378
3.89629e-05
6.72258e-06
1.38765e-05
0.000700589
1.84965e-05
0.000703954
0.000114327
1.36263e-05
5.14804e-06
1.65114e-07
3.28925e-05
-6.94128e-07
0.0169028
6.755e-06
-0.000204869
-0.023296
0.000296323
-0.0946597
1.89434e-05
-7.52661e-06
1.23651e-05
-0.000734323
-3.65305e-06
0.000371897
0.0221596
0.00896054
5.13173e-06
5.91454e-06
5.29558e-06
6.39096e-06
6.02261e-06
0.000257818
-0.00115314
-0.0030624
0.000981843
4.19528e-06
0.020215
3.21318e-05
3.14171e-05
0.001353
3.41666e-06
0.000375706
0.346209
1.72455e-06
2.25289e-05
7.8495e-05
0.000114316
3.44288e-06
3.86939e-06
3.69883e-06
-0.0123802
4.94457e-06
1.27116e-06
0.000183487
6.10778e-06
3.43423e-06
-0.000859744
0.377913
0.000597202
0.0802396
0.000143858
0.0260209
6.10738e-06
-4.67598e-05
-0.151508
-5.4602e-05
0.016716
-4.09689e-06
1.39018e-07
5.2198e-06
9.18996e-06
0.000215564
3.31554e-06
0.0471213
1.56284e-05
-0.07449
1.77526e-05
3.69153e-05
-3.09134e-06
0.00055752
0.000128968
-0.0101384
0.00107679
-5.53377e-06
0.0105015
5.49722e-06
-0.0145555
1.65852e-05
0.00200293
1.7866e-05
4.97037e-06
5.4182e-06
0.0480642
3.08449e-05
-0.00999532
0.0776977
6.2864e-06
0.000109441
-8.74731e-07
-0.000747608
-0.0130677
-1.17016e-06
0.973898
1.56152e-05
-0.00181772
0.00111938
-0.65563
1.47316e-06
9.78679e-07
-0.000263042
4.27552e-06
7.5395e-06
1.29137e-05
8.27668e-06
0.000178085
1.26573e-06
0.00572623
1.34559e-05
0.0218894
-0.0158621
-0.0255159
-0.00837502
-0.0977698
0.0239245
-0.0604861
4.18725e-06
-5.63584e-06
4.61012e-06
7.2714e-06
5.93165e-06
3.10171e-05
4.62448e-06
-0.0215828
8.2538e-06
-0.612933
4.99352e-06
8.18995e-05
2.98093e-05
5.56431e-06
0.000173039
5.41382e-06
3.40945e-05
1.87112e-05
9.47852e-06
0.0178685
-0.00011288
0.0576733
4.24932e-06
6.68184e-06
9.41013e-06
1.84411e-05
0.111014
4.23483e-06
0.0166507
5.44768e-06
-0.0037828
8.6856e-05
4.54159e-06
0.000392257
-0.0028109
4.25404e-06
0.0369901
0.0203872
4.1088e-05
0.000578968
4.18387e-06
0.0109896
8.34377e-05
1.8128e-05
0.00833858
-5.30994e-07
6.01018e-06
0.000735118
0.0139704
3.76392e-05
-0.570057
0.12212
3.43451e-05
-6.5086e-06
8.36419e-06
-0.434499
6.67492e-06
-6.34113e-05
4.80574e-06
0.0259853
0.000114529
-0.182789
2.30378e-06
-1.65091e-06
-0.0123708
8.19152e-06
0.00021535
0.000582859
1.9282e-05
4.96175e-06
-0.0956223
4.42088e-05
-1.56168e-05
-6.00521e-06
1.52499e-05
0.036356
0.000136308
0.000473997
0.00070574
1.34015e-05
0.030471
1.6566e-05
6.05439e-06
5.82594e-06
-0.0076736
-0.0111103
6.2168e-06
4.2651e-05
3.91362e-07
1.02661e-05
-7.23937e-05
1.58214e-06
4.59374e-06
5.38399e-06
2.59355e-05
1.63897e-06
1.74913e-05
0.000420253
0.470758
-0.00965238
0.000679115
8.48199e-06
-0.0222978
5.17697e-06
-0.175851
-0.0660379
0.180692
1.66888e-06
4.26976e-06
9.07e-06
5.15787e-06
1.37142e-06
2.55622e-05
6.22615e-06
5.74593e-05
4.99304e-06
-0.0122605
-0.152333
4.74276e-06
0.0471216
5.89804e-06
2.95693e-06
0.00121378
-0.00741871
0.000366756
-3.01477e-06
0.0339998
7.33562e-06
2.65671e-06
0.0124844
4.50798e-06
0.260935
6.20553e-06
0.0396186
3.5768e-06
8.73174e-07
-2.92327e-06
0.0254975
6.76941e-06
0.000891888
-0.00235823
5.75215e-06
-1.48693e-05
6.15702e-06
3.74701e-06
0.000232083
0.000113273
2.18568e-06
0.011456
-0.00148099
0.00162701
2.48655e-05
4.5978e-06
0.00376506
7.77587e-08
-0.106278
5.12684e-05
3.12578e-05
7.19771e-06
-0.181329
-0.053333
0.206506
0.0002846
-0.109912
-5.63408e-05
4.80587e-06
0.000129646
1.21395e-05
4.90408e-06
-0.0292605
0.00293118
6.00789e-08
4.8968e-05
-0.00621314
-1.36163e-06
9.48409e-07
-0.281386
-0.000686105
7.20919e-06
-9.7847e-07
2.44401e-05
5.3576e-06
3.32518e-06
9.55352e-05
5.68437e-05
4.71407e-06
-0.27216
7.95009e-05
0.0275804
-0.0418785
-0.00164316
-0.00764159
5.86982e-06
4.98307e-06
-0.0921114
0.020732
-0.0411413
-0.0031183
-3.8748e-05
7.48954e-06
5.95494e-06
3.37504e-05
-0.0152374
-9.85645e-05
1.6449e-05
0.000196516
5.27851e-06
0.013183
0.000475827
-0.000262643
0.000378828
0.0996709
-0.0316191
-0.0437845
0.0321155
-9.88299e-07
0.103259
9.90093e-07
3.18165e-05
-0.000294116
0.104038
1.24935e-05
2.86342e-05
8.65936e-06
0.0248533
2.40165e-05
0.0470902
3.91695e-05
8.85419e-06
-0.0787016
1.22617e-07
0.000673638
1.46436e-05
5.68736e-06
7.86387e-06
0.00526144
1.59108e-06
3.93042e-06
7.02138e-06
0.1027
4.74432e-06
2.06166e-05
1.78132e-05
1.68073e-05
6.96876e-06
4.27149e-05
0.000479394
1.56789e-05
4.59961e-06
0.0018478
-0.01679
-6.20865e-05
0.0317155
5.01176e-06
6.36709e-06
-0.0756736
1.59627e-06
2.24287e-05
0.0349345
-0.00323604
-6.44601e-05
7.71295e-05
2.7468e-05
-0.0235136
0.0408537
-1.68323e-05
0.0131493
4.13638e-06
-0.000202314
0.214562
-0.00324823
-0.12953
0.0501073
-1.47608e-06
6.20759e-06
1.17051e-05
7.02141e-06
4.68937e-06
0.0158882
-4.66869e-07
4.78338e-05
2.6012e-06
0.000349235
0.000993567
1.68775e-05
0.0413578
-0.0550644
6.16326e-06
0.000552746
7.13356e-05
1.49514e-05
6.28077e-06
0.00108658
0.000438049
7.20514e-05
3.09966e-07
0.760197
0.000134733
-4.2668e-05
-0.0215151
3.7507e-05
0.00210173
4.63752e-06
-0.00053072
6.23917e-06
5.45205e-06
-3.151e-05
5.90748e-05
7.59552e-06
0.000235599
-0.21733
5.79924e-06
-0.00113082
0.0570556
7.43423e-06
5.01393e-06
0.000807933
0.105187
0.0319411
4.32627e-06
7.35422e-05
0.00200062
-0.574028
-0.00422866
4.75129e-06
5.63193e-06
-3.60006e-07
6.21582e-06
1.67648e-06
2.83061e-05
0.104849
1.95418e-05
1.55451e-05
0.025139
0.00259136
0.00061757
-0.00306893
0.45335
5.88925e-06
4.39961e-06
5.6829e-06
1.76679e-05
0.000508123
0.0104194
0.056678
5.39875e-05
-3.75688e-05
0.000178299
1.65793e-05
0.0242422
6.85678e-06
0.000291612
4.81236e-06
0.00246701
0.0214627
2.63137e-06
6.26621e-06
0.0109487
-9.86163e-06
0.0328781
0.443788
-0.00135931
4.78719e-06
-0.0448504
5.40787e-06
8.59586e-06
-0.010788
-0.142871
4.69314e-06
-8.05796e-05
0.00117449
7.7362e-06
4.91175e-06
1.21315e-06
5.12754e-06
4.05437e-06
6.32821e-06
2.75721e-05
0.000224794
-0.0190473
2.4913e-05
1.60993e-05
6.71437e-05
0.000218187
5.00761e-06
-5.00269e-06
0.000691046
-0.00673613
0.136679
2.35026e-05
1.04811e-06
-0.00410498
5.95326e-06
-0.0583815
5.23453e-06
0.000176018
9.19938e-06
5.98662e-06
-0.0395925
1.38242e-05
2.14226e-05
7.42004e-06
-0.189672
-0.0635604
-0.00407096
1.37831e-05
5.06859e-06
-0.00408423
-2.69773e-06
2.626e-06
0.000307116
-0.293605
5.7423e-06
4.59622e-05
4.86351e-06
0.0146143
7.33353e-06
-1.52068e-05
7.63144e-06
1.01687e-06
-0.00107686
7.12531e-06
3.97448e-06
-0.0741668
0.000304025
-0.191641
-0.00423762
7.1875e-06
3.94232e-05
3.16762e-06
5.32537e-06
-8.64813e-06
1.16835e-05
7.40389e-06
0.000294018
4.82146e-06
-0.000185227
0.000306066
-0.00154165
5.46083e-06
0.000116956
2.97563e-06
0.00185485
-3.38744e-06
0.104054
0.000402833
1.1809e-05
0.000217749
4.64679e-05
4.04149e-05
7.31011e-06
-0.00122951
4.14896e-06
2.36593e-06
0.0538727
-7.01791e-05
-0.0001415
2.51308e-06
8.27071e-06
4.92467e-07
-0.0005005
4.94112e-06
-0.0106229
-2.54866e-07
1.36805e-06
8.23003e-06
2.17749e-06
1.40948e-06
0.00427414
-0.113379
0.0112047
-0.0145913
-0.00169341
-0.000122329
3.78229e-05
0.00776626
2.60756e-06
-2.82947e-06
1.82049e-06
0.0859185
1.8971e-06
0.00534827
4.9153e-06
2.34558e-06
-0.000128234
-0.00226361
-0.0184565
0.0663019
1.08063e-05
-0.00266196
0.0107462
1.74577e-06
0.00634215
5.83983e-06
-3.11958e-06
-0.364015
2.72895e-06
0.00653051
0.0605476
5.37074e-06
5.21814e-06
1.46881e-06
0.0139708
-4.66005e-06
1.02511e-06
0.000478278
7.9221e-06
3.5807e-06
-0.000568628
3.66477e-06
0.000168647
4.66361e-06
1.57923e-05
4.10693e-06
-0.369781
0.00329426
4.17202e-06
4.22059e-06
7.47463e-06
8.36856e-06
1.53434e-05
1.51816e-05
8.12203e-07
4.84846e-06
8.4894e-06
1.57768e-05
5.95786e-06
-0.000955931
2.46713e-06
0.000541056
6.93745e-06
-0.00080107
3.73446e-06
7.12876e-06
5.82521e-06
5.34284e-07
3.66772e-05
8.65451e-05
2.74908e-05
-0.197251
0.00369449
0.032956
-0.00836638
0.000590333
0.00530315
4.80525e-06
5.84434e-06
0.219785
-0.106424
-2.59483e-06
-0.00456083
2.00105e-06
-0.000319091
0.0277366
1.30011e-05
0.000367609
0.144749
0.184663
7.80039e-07
0.0001856
4.87007e-06
-0.0308802
1.47586e-05
0.0326264
0.0634127
7.00138e-06
0.00575902
-0.269962
-5.2734e-06
0.0418573
0.0328891
1.30138e-05
6.0431e-06
0.0599288
-0.000637229
2.18748e-06
7.00172e-05
5.87943e-06
0.108826
-0.00184523
7.52265e-06
4.11458e-06
0.273083
5.47794e-06
6.26605e-06
5.69409e-06
4.07103e-06
0.103818
0.000201231
2.92761e-05
0.0071279
6.23396e-06
0.000244009
6.11942e-06
0.0611443
3.29633e-05
-0.0498177
3.10799e-06
3.04458e-05
-2.1412e-06
7.48617e-07
1.8841e-05
7.07658e-06
0.0472634
1.36008e-05
4.19909e-06
5.8507e-06
0.044057
5.82684e-06
0.107129
-0.0363189
-0.370129
9.89954e-06
5.16621e-06
6.94657e-06
-0.729631
9.40846e-06
0.0433274
6.21631e-07
0.390705
1.74391e-05
4.53349e-05
-0.0399556
6.72497e-06
-3.80449e-06
-0.0042664
0.00133648
0.00123757
1.20313e-05
0.00162105
0.16277
4.35829e-06
0.00122329
5.0033e-06
6.78785e-05
0.576485
3.37836e-05
-0.000394601
0.00882692
2.09e-06
0.000312869
5.66815e-06
0.0596964
5.97763e-06
0.156077
7.14752e-06
-0.00525572
5.93177e-06
9.81684e-06
2.33592e-05
-0.101933
5.2188e-06
0.000609413
0.000271574
-0.0127158
6.37363e-06
-1.55718e-05
0.0369972
-0.0326514
-0.0967271
-0.000184781
3.42096e-06
0.000353602
0.582568
4.23989e-05
0.296881
-2.76676e-06
0.00156054
0.0209424
5.42118e-06
-0.00706315
8.08945e-06
-0.0303413
0.107457
7.16757e-06
-1.94242e-05
0.123254
-0.125247
6.93616e-06
5.22339e-06
4.00527e-06
5.92314e-06
-0.000963021
8.6957e-05
-0.0166393
8.69144e-06
1.17371e-05
0.0117378
-0.000299042
-0.490433
0.129307
8.08507e-06
6.14613e-06
-0.00384409
-0.0846047
-0.233414
-0.00570821
0.00337976
7.75731e-05
0.00595751
0.0414179
0.091871
-0.166336
6.27232e-06
-0.000151077
6.16671e-05
4.86986e-05
6.54264e-06
3.35513e-05
9.0381e-05
0.00895956
-0.221647
3.55877e-05
0.0222421
0.0079383
-0.000206897
6.56952e-06
6.38137e-06
0.0232031
5.03386e-06
0.0260871
1.25531e-05
0.000574706
-0.00117201
0.0261756
4.20924e-06
4.75563e-05
3.69527e-05
6.3539e-06
-0.00327277
0.000301619
0.0150751
1.51183e-06
0.00393692
-0.0388102
-0.00370392
-7.37901e-07
-4.59517e-06
-2.0589e-05
0.00741469
-0.000360951
0.000394611
0.00588488
0.607288
-1.64855e-06
2.66555e-06
2.63641e-06
0.00164072
-0.0257997
-2.13506e-06
4.02708e-06
8.04291e-06
-0.0506248
-0.0138797
2.24521e-06
0.000206812
-0.000920017
5.41569e-06
0.0138388
3.19388e-05
0.0145848
0.00010694
-0.000957431
0.0495517
2.85725e-05
4.49092e-05
0.160845
5.01757e-06
-0.000301143
0.0413428
1.14418e-05
0.00269187
8.13626e-05
0.000299453
-0.0780016
0.00481536
5.44244e-06
0.0242986
0.449964
2.54854e-06
-0.000925734
-4.04257e-05
-0.000291603
0.0813458
-0.459724
-0.0459367
-0.000765313
0.0943288
1.42781e-06
0.000438458
-1.00363e-06
5.65508e-06
6.62052e-06
4.32136e-06
-0.0380966
0.0121856
4.5367e-07
-0.000673404
-0.00317173
4.95932e-06
-0.190577
0.02883
-1.51704e-06
8.77681e-06
-9.48455e-07
1.93258e-05
0.000173778
5.86527e-06
0.857237
3.56416e-05
-0.00019674
7.02642e-05
0.000179073
0.00417873
0.000174814
-0.0104672
6.52404e-06
2.05874e-05
7.81862e-07
2.21732e-06
0.0299651
0.000586158
-1.94183e-05
0.369742
1.13454e-05
6.24808e-06
-5.20671e-05
2.24376e-06
5.06681e-06
0.000749921
9.63031e-06
-0.000383105
-0.165862
-0.0990102
6.32701e-06
-0.249844
6.39191e-06
-0.00459251
4.10744e-06
0.00124165
-0.173688
7.078e-06
-0.000192165
-0.00762686
-4.84268e-05
9.1604e-06
-2.49044e-06
-1.21469e-05
-0.0121035
3.82574e-06
5.17276e-06
2.37679e-06
-6.89828e-08
-0.00463408
1.04474e-05
7.9001e-06
6.93301e-06
-1.71383e-07
0.15954
4.47144e-05
-9.69156e-06
0.00183484
0.0208587
0.0395483
0.00601624
8.02703e-06
1.22609e-05
0.0238379
6.64804e-06
0.000281894
5.92217e-06
-0.0218004
-3.37726e-06
1.58725e-05
-0.000641142
-0.00483711
6.59298e-06
2.78475e-06
2.63656e-06
0.00214186
-0.138677
-0.000943156
7.31631e-06
3.76825e-05
4.88633e-06
0.00571444
-1.22523e-06
-0.244224
0.000292322
1.14144e-05
-0.00457808
3.3375e-05
0.0757816
7.91343e-06
2.70905e-06
1.93403e-05
-0.000311642
-0.000328204
4.81421e-06
1.0576e-05
1.80111e-06
-0.00769407
6.81878e-06
1.10499e-05
0.0162095
1.90673e-05
-0.000492411
1.06633e-05
3.58149e-06
2.45551e-06
0.267923
1.58062e-05
0.0562741
0.00186576
9.04745e-07
0.420013
8.80152e-06
-0.000620684
0.000158405
1.00962e-05
3.55944e-06
5.79732e-07
5.80143e-06
0.106371
0.000203428
0.00114044
0.0353971
4.22443e-06
-0.000373765
3.24401e-05
-0.290741
5.3877e-06
0.0224468
0.0174649
-0.0669443
3.95441e-06
4.96627e-06
4.93703e-06
-0.0135381
0.0377816
0.000457346
9.23025e-06
3.80652e-05
1.10662
4.79001e-06
5.23572e-06
2.45863e-05
-0.000118242
-0.351361
2.75992e-06
-0.00902702
0.000199723
6.5538e-06
0.0109385
0.000289645
0.263185
0.0419196
-1.92629e-05
8.93041e-05
1.1387e-05
3.49916e-05
1.19634e-05
-0.00227013
5.07105e-05
1.3821e-06
1.17929e-05
-0.0137358
-0.20782
3.6268e-06
-9.01022e-05
-0.253642
0.180622
2.51764e-06
4.77191e-06
0.0731466
-0.254122
-0.0201356
6.18523e-06
-0.261592
0.000402936
6.39423e-07
-0.0196151
-7.77786e-06
3.83398e-06
-0.00151794
8.38953e-06
-0.000211239
4.78711e-06
1.04438e-07
1.10303e-05
2.68195e-06
0.033165
-1.79598e-06
7.23228e-06
0.000298327
2.53672e-05
5.04354e-05
0.00151952
6.9199e-06
6.96458e-06
1.32284e-05
1.28222e-05
0.0256675
-0.00174978
-0.0552184
0.0359791
0.000433553
0.0696048
-0.00293222
-0.00999728
-0.238062
0.024616
3.4047e-06
2.03996e-06
5.2597e-06
4.26069e-06
1.69868e-06
3.53812e-05
-0.000653009
0.000330034
-1.62205e-05
5.09699e-06
6.05027e-06
0.00033033
4.61711e-06
8.91213e-06
6.26213e-06
0.00739901
3.72382e-05
-0.00287324
6.1176e-06
0.0300527
1.18012e-05
1.54469e-05
-4.25269e-07
0.000151684
5.54731e-06
-0.000252352
-0.0036538
6.31171e-05
-0.0080555
0.105644
-3.67404e-06
1.16672e-05
-0.0149232
-0.000497031
-3.00206e-06
1.60695e-06
7.40164e-07
0.0178614
-3.21189e-07
-0.0208951
-0.00907012
-0.000166136
0.458435
0.0796905
0.000352642
0.0013548
3.16964e-06
2.79058e-06
-0.211159
0.0411182
6.45797e-06
5.78707e-06
-0.003396
6.2671e-06
-0.0059886
1.16941e-05
-1.06481e-06
1.33337e-05
4.84546e-06
-0.000180037
-0.0081284
-0.00291156
1.16838e-05
3.25445e-06
0.00102757
6.56802e-06
0.000143561
4.177e-06
-0.000746745
0.000162516
9.14376e-06
3.51518e-06
9.91814e-07
0.000712131
0.00297551
-0.00424149
0.207523
1.93989e-05
-0.114236
0.000383148
-2.99913e-05
-0.0209879
6.52894e-06
0.0326428
6.60792e-06
0.00624706
-0.0430571
0.0531793
0.0269429
-4.36952e-06
6.78135e-05
-0.0205525
9.01447e-06
0.00560148
6.66002e-06
4.959e-06
2.68323e-05
4.86314e-06
5.01107e-05
0.0148416
0.195676
0.2371
1.00636e-05
-1.76822e-05
1.39022e-05
1.21898e-05
6.15159e-06
-0.00203226
0.000612322
-0.12208
0.000139167
-2.45132e-07
4.20075e-06
1.35467e-06
-0.00574387
3.79942e-05
-1.72598e-06
2.18704e-06
0.002902
5.62683e-05
-0.000273278
0.000822061
0.00494675
4.99325e-06
5.95363e-05
5.30896e-06
2.72978e-05
-0.0156962
0.016786
9.25793e-06
2.06693e-06
-0.000285732
3.96982e-05
5.88526e-06
1.22898e-05
-0.00217337
-0.0128946
-3.00032e-05
6.12499e-06
0.0346236
1.06828e-05
5.46191e-06
-1.05603e-06
-0.310753
0.194847
-3.78803e-06
0.0294748
0.0381266
1.06744e-05
0.000732595
3.76877e-05
0.0167412
9.13146e-06
0.0415839
9.25186e-06
0.0128434
0.00147963
-0.00805975
4.34244e-05
1.70882e-06
0.0198411
9.73329e-06
1.27999e-05
-0.03369
0.044097
0.00626194
-0.052195
2.04734e-05
5.35437e-06
-0.117537
6.0448e-06
6.79191e-06
5.88733e-06
1.37832e-05
5.38433e-06
0.000138754
1.10327e-05
0.103325
-0.089101
5.37091e-06
-0.00428015
1.14967e-05
0.0111546
-0.0065853
5.35857e-06
4.61095e-06
2.39477e-05
0.403743
-0.00108485
-0.000113613
-0.00181407
0.0523721
0.574529
2.28904e-05
0.11001
0.0612966
0.00134873
-0.654419
6.58858e-06
7.33954e-06
6.21119e-06
1.69639e-05
8.61002e-06
6.2867e-05
-0.00298843
0.000191616
0.0741348
0.211085
0.0746704
-0.108971
0.0439528
0.00013711
0.0183132
0.000118805
0.000445896
3.94816e-06
9.53059e-06
0.000399264
-0.0163715
1.99728e-05
-0.00237977
0.0291157
3.39559e-06
4.70972e-06
5.68682e-06
0.00057818
1.0472e-05
-0.000152157
0.0206659
3.30206e-06
8.59472e-06
3.50681e-06
6.01042e-06
0.000234794
-0.00378451
-8.16086e-05
-0.110275
-0.000167046
5.58305e-06
-0.0617837
-0.000188946
-5.44712e-06
-0.0307613
-0.31545
-0.124908
-0.214469
-0.0063987
8.00825e-06
-0.356864
0.00264071
-0.00149221
-0.121427
2.8543e-06
2.4701e-05
9.90501e-06
1.32686e-05
-0.0330574
-0.000140682
4.53912e-06
8.38191e-06
-0.0759069
0.00545823
2.32053e-05
-8.48879e-05
0.0275949
0.0413469
5.35994e-06
-6.05018e-06
-0.000907652
6.92322e-06
6.85833e-06
-0.187893
5.01733e-06
0.0123182
-0.0589369
-0.04807
5.45318e-06
0.000736146
0.00331652
5.42999e-06
-2.83747e-07
-0.0825459
-0.151083
1.55845e-05
0.000214136
0.000837114
-0.00262091
0.0383882
0.0108597
1.27521e-06
-0.0349064
0.0196065
5.25699e-05
6.91278e-06
-0.00691046
2.56031e-06
-3.96979e-06
-0.00189544
1.42036e-05
-0.000513079
1.1981e-05
0.000138103
5.17105e-06
2.24042e-06
5.09915e-06
5.28874e-06
0.0137786
1.1589e-05
0.0129274
-0.012246
0.000144346
0.000304734
-0.0250504
-0.00206365
-0.00127491
5.35378e-05
1.42865e-05
6.05007e-05
1.14882e-06
-0.00581725
0.0267753
5.66867e-06
0.178587
0.00188972
1.89791e-06
0.000448077
0.000367067
0.000247754
-6.41758e-06
5.66409e-06
-0.000453987
-0.00108871
-0.0015755
-0.00273194
-0.00028887
0.00030872
-7.95735e-05
6.98184e-06
4.02225e-05
0.000607604
5.33149e-06
0.0398542
0.0133426
-0.00217381
0.00697752
1.21262e-06
1.81797e-06
0.0169587
0.0440359
5.25631e-06
3.45922e-05
0.00042195
0.145854
0.0197773
7.01356e-06
4.1765e-05
8.31309e-06
-0.00723632
-0.0552821
1.86417e-05
-0.147142
0.00483353
0.00113233
0.0480164
-0.000489991
0.0369222
0.0252132
-6.40175e-07
-0.00728874
0.0119002
1.49554e-05
0.000113036
-0.000171734
6.62447e-05
4.83977e-06
0.518645
0.181577
1.68505e-06
2.88108e-06
-0.111274
-0.0050678
6.11599e-05
8.57441e-06
-0.0152275
0.000683848
0.0272195
-0.00632907
4.83471e-06
6.67706e-06
4.9857e-06
6.44131e-06
0.0386804
0.0119104
0.00179082
0.000461081
-0.0329274
-0.0975877
6.2092e-06
6.48559e-06
0.00560912
2.15455e-06
0.0241493
-1.14419e-06
0.0466637
5.26828e-06
1.48607e-05
0.0291919
7.17691e-06
0.000900069
0.0702652
1.51525e-05
3.26932e-05
5.4261e-06
-0.00123737
-0.00422817
-0.00239099
0.0175428
8.15882e-07
-7.08597e-07
2.78449e-05
0.00015424
0.00296744
0.187757
-9.62417e-05
-0.0091092
0.000640385
0.0300859
0.000191969
1.85765e-06
3.50774e-06
4.02427e-06
-0.00500214
-0.00322873
0.000132993
4.4942e-05
-0.000468537
5.87775e-06
0.0139632
0.138764
0.0198593
7.27103e-06
5.09932e-06
2.06734e-07
0.00946858
0.0122059
-0.104058
-0.00816717
0.000831766
-0.0292622
9.86497e-07
5.8778e-05
-0.000672057
-0.0113272
-0.0121549
9.66926e-06
0.000419099
5.1087e-06
-5.6507e-07
0.00202616
0.00317458
-0.140568
3.09615e-06
0.000280278
-0.00577591
-0.124257
-0.0226695
0.0228514
-0.0516899
4.2948e-06
-8.35778e-05
5.94616e-06
1.15362e-05
4.85993e-06
-4.27866e-05
5.35399e-06
-5.60992e-06
0.0278821
0.114049
-1.01046e-06
0.00551987
0.013494
0.000404057
1.98539e-05
-0.0245458
0.000219833
-3.38404e-06
-4.90159e-08
-0.0419135
2.27985e-05
-0.00123852
-0.0639658
-0.00586596
0.00988969
-3.89318e-06
0.037193
-0.0058065
0.0703394
0.180357
3.57165e-05
0.000993636
0.000956749
0.0134603
-0.00100713
5.11134e-06
-0.687355
-0.000523573
0.0492641
-5.48115e-06
0.702331
-0.0490211
-0.454966
3.29871e-05
0.0663246
7.44157e-06
-0.00251531
-0.000736256
-0.179379
-0.0265983
5.8791e-06
-3.49718e-07
0.00117098
-0.00928856
-0.000790355
4.77121e-06
0.000131898
0.000215379
0.0341791
-0.00542075
0.00993521
1.96385e-06
0.00552306
-0.000588159
0.121875
4.8076e-06
-0.00187448
0.0994353
1.99581e-07
0.000245523
8.36268e-07
1.02449e-05
4.83848e-06
-0.0154778
4.57332e-06
5.86643e-06
0.0235588
-0.216247
3.83469e-06
-0.00763524
5.6449e-06
9.31038e-06
6.41599e-06
4.9126e-06
5.29271e-06
0.0166545
0.0388809
2.04303e-06
0.482912
0.000410113
0.000213717
-0.0332629
0.000529005
4.14147e-07
7.98991e-05
8.29585e-06
-0.00509527
7.44073e-05
4.89054e-05
6.1796e-06
-0.0747983
-0.424543
-0.000170028
0.214972
0.00410049
4.44322e-06
-0.0112034
-3.46787e-05
0.000246039
-2.15266e-05
5.90167e-06
-0.00612658
0.0013067
4.94334e-06
-0.00981655
8.8521e-06
-0.0253465
-0.00169042
-0.0592472
-0.00186427
-0.00282912
0.028099
7.48514e-06
4.64639e-06
0.000355435
9.60965e-06
4.64501e-06
4.85119e-06
-2.37519e-06
5.72676e-06
6.70679e-06
9.23417e-06
-4.62009e-05
9.22277e-06
-2.17373e-06
1.02932e-05
0.000788065
0.000610402
8.405e-06
-0.0330293
6.33069e-06
6.52751e-06
0.00046114
0.000173852
6.85744e-06
5.33738e-06
0.612401
1.58476e-05
0.0008583
1.64692e-05
-0.000782984
6.6035e-06
7.90915e-06
0.00581577
0.020482
0.00046869
-5.00178e-05
8.5943e-07
0.0302508
4.90466e-06
6.35838e-06
0.00046969
1.27532e-05
0.00148029
0.0143146
0.00107673
0.0507454
0.000122176
-0.00373526
4.34762e-06
5.14315e-06
7.94197e-05
-0.0520817
0.00032406
-0.000561251
0.0185151
-1.2219e-05
5.06984e-06
2.87744e-05
-0.0140027
0.000330008
4.99135e-06
0.000228986
0.000107543
-6.31499e-05
5.69222e-06
5.81245e-06
-0.00275319
-7.27219e-05
0.27441
0.0286341
2.71748e-05
0.000411097
5.31655e-06
0.000187719
0.00903878
8.57711e-06
-0.00115435
0.0431205
-0.00028069
0.153621
4.95501e-06
6.46142e-06
7.51632e-06
0.0171074
-0.0046335
2.08596e-05
0.00536801
-4.13543e-05
5.04138e-06
7.16541e-06
0.00433103
-0.00062134
-0.00520373
0.00990197
-0.00221533
6.76126e-05
-0.057212