/*--------------------------------*- C++ -*----------------------------------*\
| =========                 |                                                 |
| \\      /  F ield         | OpenFOAM: The Open Source CFD Toolbox           |
|  \\    /   O peration     | Version:  v2012                                 |
|   \\  /    A nd           | Website:  www.openfoam.com                      |
|    \\/     M anipulation  |                                                 |
\*---------------------------------------------------------------------------*/
FoamFile
{
    version     2.0;
    format      ascii;
    class       volVectorField;
    location    "350";
    object      U;
}
// * * * * * * * * * * * * * * * * * * * * * * * * * * * * * * * * * * * * * //

dimensions      [0 1 -1 0 0 0 0];


internalField   nonuniform List<vector> 
13917
(
(0.472569 0.00961365 2.97772e-20)
(0.999645 0.0192978 3.38405e-21)
(1.07973 0.0646838 0)
(1.0364 0.0145649 -7.55272e-21)
(1.00822 0.01381 0)
(1.00066 0.0169706 -2.36485e-22)
(1.05042 0.0298032 1.0372e-20)
(0.981057 0.056688 2.71837e-21)
(1.06227 0.0201515 1.49557e-20)
(0.0168443 -0.0676034 5.9164e-21)
(0.983868 0.052985 -5.51159e-22)
(1.02687 0.0124703 0)
(1.01002 0.000124916 -4.61965e-21)
(0.935959 0.158484 -2.21195e-21)
(1.01397 0.0122651 0)
(0.44974 0.00700053 -3.57293e-20)
(1.00273 -4.50487e-05 -1.81216e-22)
(0.995095 0.0511526 -1.56295e-21)
(1.07185 0.068876 1.38007e-20)
(0.455405 0.00558469 7.45568e-21)
(1.02455 0.0345908 -3.59455e-21)
(1.01374 0.0082138 2.36134e-22)
(1.05819 0.0501219 -2.32509e-20)
(1.01357 0.00802174 -2.15603e-22)
(1.03386 0.0218327 0)
(1.02231 0.0362198 1.56858e-21)
(0.817753 -0.0432662 1.40959e-21)
(0.00746874 -0.0445777 -1.15618e-20)
(1.01299 0.0437041 0)
(1.01479 -0.000862163 -1.96532e-24)
(0.0215945 -0.0503038 1.19479e-20)
(1.07339 0.0555924 -1.76772e-22)
(1.03207 0.0165294 0)
(0.53094 0.0226684 1.54166e-20)
(1.01171 0.0010091 0)
(0.971751 0.0584307 -3.54882e-21)
(1.02233 0.0220824 5.4043e-21)
(1.00282 0.00013795 -1.09681e-21)
(1.05149 0.0299823 0)
(1.03015 0.0363483 2.8064e-22)
(1.00173 -7.21167e-05 -9.46118e-23)
(1.0147 -0.00196606 0)
(1.05719 0.0154293 2.87196e-20)
(1.07439 0.0642895 0)
(1.0737 0.0645076 0)
(1.016 0.109354 0)
(1.02462 0.0336148 1.00199e-21)
(0.317762 -0.034336 -2.72994e-20)
(0.779177 0.0208648 -7.00751e-21)
(1.01162 0.00116302 4.56925e-22)
(1.02639 0.0121215 3.65198e-21)
(1.03821 0.0847084 0)
(0.363302 0.00611011 0)
(1.01967 0.0119226 -3.24995e-21)
(1.0209 0.0128173 0)
(1.04147 0.084355 -7.48221e-21)
(-0.0325311 -0.0164078 -6.34328e-21)
(1.05703 0.0498266 5.33086e-21)
(1.0146 -0.00167927 0)
(1.01039 0.108464 2.18878e-21)
(0.471474 0.178614 0)
(1.01112 -0.0106578 0)
(1.0048 -2.7311e-05 -4.32918e-23)
(1.03372 0.0212125 3.75986e-21)
(0.855839 0.056564 0)
(1.03954 0.00529169 -1.39999e-22)
(1.00847 0.0461447 -9.42638e-22)
(0.967641 0.0525304 -8.89425e-21)
(0.991879 0.0555322 -2.49121e-21)
(0.432173 0.0109657 0)
(0.983819 0.0618121 -1.27065e-20)
(0.511851 0.0197646 -1.18364e-20)
(1.03371 0.00635896 -2.2867e-21)
(1.01405 -0.00139689 -2.19721e-22)
(1.02536 0.035243 2.38772e-21)
(1.03014 0.0233558 0)
(1.01286 0.0112101 0)
(1.01388 -0.00121301 0)
(1.03014 0.0227584 -4.88412e-21)
(1.03239 0.016954 4.18555e-21)
(1.01719 0.0127517 -3.93936e-22)
(1.00267 -1.52687e-05 0)
(1.03328 0.00587309 6.37284e-21)
(0.983382 0.0586204 1.3276e-20)
(1.0144 0.00222709 3.68626e-21)
(1.02187 0.0862261 -9.94292e-22)
(1.07295 0.0548635 0)
(1.01389 0.00117133 3.90981e-22)
(1.02998 0.035997 -2.0894e-21)
(1.00342 -4.31349e-05 0)
(1.00562 -7.56435e-05 0)
(1.05841 0.0157256 -3.20476e-20)
(0.745319 0.0113993 5.98111e-21)
(1.01124 0.000680784 1.57865e-22)
(1.02019 0.0151367 0)
(1.01217 0.0463446 -3.63037e-22)
(0.992868 -0.0145328 3.06647e-22)
(1.00286 3.6273e-05 0)
(1.01432 0.00129662 0)
(1.04157 0.0146047 0)
(1.00338 -1.40085e-05 1.29363e-22)
(1.00397 -5.61448e-05 -1.69163e-22)
(1.01739 0.0131635 1.73934e-21)
(1.00524 0.000222414 -2.84767e-22)
(1.01248 0.010617 5.70451e-22)
(0.971419 0.0681482 -9.34486e-22)
(0.573412 0.0114876 0)
(1.01396 -0.0128349 -5.49265e-22)
(1.01529 -0.00242294 0)
(0.729345 -0.0528344 0)
(1.01994 0.000157285 3.8402e-21)
(0.545287 0.0245982 -2.07964e-20)
(1.01607 0.0436701 -5.13698e-23)
(0.246214 -0.0588877 -2.74173e-20)
(0.871239 0.0568236 0)
(1.02874 0.0244001 4.31572e-21)
(1.07102 0.0679747 0)
(1.00535 -4.99067e-05 1.06426e-22)
(1.07935 0.0662604 -4.98581e-21)
(1.03216 0.00271595 1.34727e-20)
(1.00338 -7.1839e-06 3.41403e-23)
(1.01267 -0.000871543 -7.46825e-22)
(1.00728 0.0493066 1.20243e-21)
(1.05863 0.0723951 -8.52329e-21)
(0.396607 0.010566 0)
(0.943999 0.05954 2.07063e-20)
(1.03416 0.0203246 4.21915e-21)
(1.02548 0.0361525 -3.36729e-21)
(1.01078 0.00285078 9.28093e-23)
(1.06035 0.0727461 -1.09873e-20)
(1.06634 0.0354244 -1.33164e-20)
(0.977413 0.0547106 0)
(0.660671 0.0527308 -4.53487e-21)
(1.02812 0.0243062 -3.63712e-21)
(1.07391 0.0588204 0)
(0.700058 -0.0629192 -7.77606e-22)
(0.438919 0.176818 -1.70364e-21)
(0.348277 0.0130058 -1.55072e-20)
(1.02093 0.037855 3.58817e-22)
(1.00145 7.85669e-05 1.15305e-23)
(0.951498 0.171991 0)
(1.01337 -0.0010463 1.9077e-22)
(0.987564 0.0678994 3.49837e-21)
(1.01277 0.00583677 0)
(1.03141 0.00622159 1.03212e-20)
(1.02105 -0.00483031 -2.35173e-22)
(0.988909 0.0625771 0)
(0.871943 -0.0219087 4.61535e-21)
(0.331499 -0.0300776 -3.55531e-20)
(1.02003 0.0123713 2.87171e-21)
(1.02993 0.0352316 -6.47143e-21)
(1.00441 -5.37e-05 -1.03198e-22)
(1.03101 0.00567223 0)
(1.03246 0.0023472 1.05707e-20)
(0.918949 -0.0274156 -8.2429e-22)
(1.01242 0.00658991 1.37216e-22)
(1.00556 0.000202441 2.78813e-22)
(0.620042 0.0510333 -2.1404e-20)
(1.00321 -3.85044e-05 2.02661e-22)
(1.00471 -0.000110095 0)
(1.01377 0.00447903 -4.70663e-21)
(0.783681 0.0752264 1.65493e-20)
(1.01763 0.022729 -1.25226e-21)
(0.932681 0.181665 3.18426e-21)
(0.639412 0.115598 0)
(1.04829 0.00244399 0)
(0.244876 0.00625743 0)
(0.496316 0.130601 -4.29731e-20)
(1.00848 -0.000251255 -1.58624e-23)
(1.02082 0.0393805 0)
(1.01352 0.00802079 -2.87269e-22)
(0.679394 0.0493244 0)
(1.06263 0.0192085 -2.63177e-20)
(0.557384 0.164519 -2.71827e-20)
(1.03143 0.0603335 0)
(1.00396 -2.39562e-05 9.58569e-23)
(1.03702 0.0142579 -8.68269e-21)
(1.03408 0.0895181 0)
(1.0661 0.0343694 -3.15182e-20)
(1.01701 0.0232889 4.30275e-22)
(1.05542 0.0162159 -2.26805e-21)
(1.01345 0.00789958 0)
(1.02595 0.0122969 0)
(1.05775 0.100973 7.05506e-21)
(1.07996 0.0667694 -3.19588e-22)
(0.974875 0.0481662 8.25513e-21)
(1.0255 0.0119811 0)
(1.05448 0.10293 1.42705e-20)
(1.01478 -0.000913973 6.54038e-23)
(1.02255 0.0800849 7.49216e-23)
(1.02951 0.0594591 0)
(1.07305 0.0637651 1.35896e-20)
(1.05843 0.0894365 1.05436e-20)
(0.478163 0.010224 -3.66446e-20)
(1.01117 0.000748597 0)
(0.406183 0.0115794 -1.77128e-20)
(1.03692 0.0291299 1.08103e-20)
(0.699958 0.0558559 -2.26792e-20)
(1.0116 0.000953987 0)
(1.01253 0.00664907 6.80473e-23)
(1.02505 0.0318153 0)
(0.437131 0.0104344 1.24014e-20)
(0.337874 0.0115361 0)
(1.0202 0.0194949 0)
(0.835104 -0.02167 1.52386e-20)
(1.01148 0.0321067 2.21725e-22)
(1.0302 0.035651 5.43516e-21)
(1.01309 -0.00104011 2.01127e-22)
(1.03754 0.0883578 0)
(1.01689 0.0124867 -7.03254e-23)
(1.00918 0.00200006 -1.57482e-22)
(1.00109 0.0169478 2.27515e-21)
(0.999699 0.0188188 2.4575e-21)
(0.365722 -0.0194783 1.51862e-20)
(1.07396 0.0582106 -1.39017e-20)
(1.02242 0.0373898 -1.08218e-22)
(0.726462 0.0476317 1.87757e-20)
(1.0085 0.000606591 2.12221e-23)
(1.00945 -0.000510171 0)
(1.00948 -0.000511333 0)
(0.451368 0.102723 0)
(1.05817 0.0952338 -9.84068e-21)
(1.05258 0.110883 0)
(1.01976 0.00150182 2.83655e-21)
(1.00389 -6.57134e-05 4.18813e-23)
(0.61351 -0.0742133 -4.47919e-21)
(0.397355 0.0105612 1.51245e-20)
(1.00867 -0.000405115 0)
(1.00844 -0.00039813 0)
(1.00155 -0.000113635 -2.03751e-22)
(1.00984 -0.000560356 -3.50692e-22)
(1.00988 -0.000567891 3.39427e-22)
(0.502082 0.0177523 0)
(0.521291 0.0199958 0)
(1.01542 0.0101329 1.23174e-21)
(1.00969 -0.000422118 -1.50354e-23)
(1.04405 0.0671314 0)
(0.483031 0.0181052 0)
(1.00332 -3.37805e-05 4.56073e-22)
(1.0195 0.00144332 -2.75965e-21)
(0.798592 -0.0289219 -1.17968e-20)
(0.979175 0.0691566 0)
(1.06049 0.0977546 0)
(0.710191 0.0443526 0)
(1.02221 0.0703348 -4.29949e-21)
(1.01296 0.00594922 0)
(0.562445 0.130527 -3.5139e-20)
(1.04547 0.0687538 -2.76148e-21)
(1.01646 0.0415306 1.82635e-22)
(1.06588 0.0621656 4.92952e-21)
(1.02055 0.0191062 1.82759e-21)
(0.479599 0.00529082 9.46705e-22)
(1.0325 0.00363929 1.36229e-20)
(1.03368 0.0420569 0)
(1.03381 0.0577993 0)
(1.01525 0.0101297 -8.61929e-22)
(1.00082 -2.20365e-05 -5.03548e-23)
(1.03433 0.0209481 -8.77e-21)
(1.00756 0.00564391 -5.19751e-22)
(1.01294 0.000333059 -2.25856e-22)
(0.430798 0.0168985 1.71957e-20)
(0.748633 0.140675 -4.03745e-21)
(1.01197 -0.000526849 0)
(1.0082 -0.000358588 -7.00656e-23)
(1.0124 0.00693767 -3.1204e-22)
(1.0082 -0.000353177 3.6107e-22)
(1.03274 0.00329503 -1.20522e-20)
(1.01515 0.000250012 5.71328e-21)
(1.04648 0.043798 0)
(1.01225 -0.000641366 -5.0038e-24)
(0.350489 0.016604 0)
(0.594656 0.0183658 1.07999e-20)
(1.0223 0.0097134 0)
(1.00999 0.00762726 -7.70632e-22)
(1.00674 0.115605 2.93821e-21)
(1.01043 -0.000638999 0)
(1.0383 0.0231213 9.18553e-22)
(0.449945 0.0206889 -1.63453e-20)
(1.01038 -0.000638286 0)
(0.452117 0.0133933 0)
(1.01264 0.000389657 4.62174e-22)
(0.799447 0.081785 -1.43816e-20)
(1.00334 -2.63893e-05 0)
(1.01536 0.0127036 -2.97352e-22)
(1.01526 0.0102585 0)
(1.01207 0.00526344 0)
(1.0729 0.0782766 0)
(1.00452 0.000233148 8.74619e-22)
(1.05477 -0.00702843 0)
(1.03443 0.0324558 9.23702e-21)
(0.697108 0.154314 -5.49348e-22)
(1.02149 -0.00642761 5.62224e-22)
(0.95279 -0.0100873 0)
(0.330217 0.0126176 -1.57162e-20)
(1.00454 -6.14475e-05 1.68885e-23)
(1.05174 0.0551321 1.92462e-20)
(1.00724 0.00877647 -2.08789e-21)
(1.02737 0.0250017 -4.09952e-21)
(1.00791 0.0121678 0)
(1.03088 0.0226503 -6.43277e-21)
(1.01171 0.000539272 3.48153e-22)
(1.00548 0.000291273 -7.64639e-22)
(1.0272 0.0877538 -7.70372e-22)
(1.03364 0.015461 2.88033e-22)
(1.03404 0.041536 9.87849e-21)
(1.03088 0.0221214 6.28006e-21)
(1.01913 0.00149007 0)
(0.646238 0.0533971 2.09427e-20)
(0.423622 0.00902952 -2.05866e-20)
(1.01042 0.00236564 -4.41025e-23)
(1.02534 -0.00253588 1.08261e-22)
(1.02799 0.0251176 -4.74018e-21)
(0.950584 0.0306106 -1.35768e-21)
(1.07893 0.062921 3.77009e-20)
(0.591147 0.0199199 0)
(0.600703 0.157171 1.047e-20)
(1.03421 0.0122026 -9.75218e-24)
(0.987261 0.0546183 -4.95257e-21)
(1.01036 0.00679004 7.96716e-22)
(1.00956 0.0589086 -1.44079e-20)
(0.945502 0.0428048 0)
(1.07974 0.0645399 0)
(1.01475 0.000261258 -2.8442e-21)
(1.01463 0.0121138 0)
(0.852523 -0.0331637 -8.93299e-21)
(1.01313 0.00790462 -1.54565e-22)
(0.99686 0.020028 1.011e-21)
(1.07228 0.0639245 0)
(1.00276 -6.0996e-05 0)
(0.690984 0.0497806 0)
(1.01429 0.00174182 2.71647e-21)
(1.07812 0.0399608 0)
(1.01319 -0.000807547 3.00007e-22)
(0.368672 0.00232642 -7.92199e-21)
(1.00807 0.00146709 -2.28697e-22)
(1.03542 0.0410149 0)
(1.0122 0.0337394 0)
(1.02947 0.0112099 2.60172e-23)
(1.00383 -2.06876e-05 0)
(1.06762 0.0611872 0)
(1.01129 0.0666392 -1.84271e-21)
(1.02073 0.0148985 1.65203e-21)
(1.01296 0.00762632 0)
(0.569736 0.0282997 -1.4169e-21)
(1.00464 0.0683616 0)
(0.830046 0.130399 1.79862e-20)
(0.952715 0.159307 -1.48451e-24)
(1.01001 -0.000586428 0)
(1.01612 0.0106897 8.00906e-22)
(0.969161 0.0702394 0)
(0.989725 0.059795 0)
(1.00999 -0.000588563 2.56723e-22)
(1.00661 0.0104312 1.7681e-21)
(1.02287 0.0123748 0)
(1.03089 0.0410371 2.56582e-23)
(1.03505 0.0416518 -4.45855e-21)
(1.05594 0.0814791 2.24924e-21)
(1.01236 0.0549805 0)
(1.0404 0.0255247 -2.03448e-22)
(1.07435 0.0411229 0)
(0.520758 0.018284 0)
(1.01096 0.00298262 1.40684e-23)
(1.02116 0.0150532 0)
(1.00718 0.014898 0)
(1.07977 0.0746683 -2.78972e-20)
(1.0027 -5.55866e-05 -1.58383e-22)
(0.462076 0.00845501 3.88318e-20)
(1.07484 0.0404472 0)
(0.89147 0.0039658 -1.99141e-22)
(1.0209 0.0131523 4.64734e-21)
(1 0.0588683 0)
(1.02411 -0.00427892 2.24314e-23)
(0.744657 -0.0332823 2.24281e-21)
(1.01584 -0.00122755 0)
(1.05602 0.108162 7.0464e-22)
(1.01315 0.116014 -6.6185e-21)
(1.01098 0.0356594 0)
(1.02245 0.0101043 4.43601e-21)
(1.07794 0.0758832 0)
(1.01399 -0.000984192 1.65104e-22)
(0.618911 0.129209 0)
(1.06023 0.0915972 2.48164e-20)
(1.01613 -0.000910613 0)
(0.773606 -0.0170084 -2.96836e-21)
(1.01511 0.0105532 0)
(0.976876 -0.0325994 1.60046e-21)
(1.00908 0.000427888 -3.2339e-22)
(0.47981 0.00383959 1.67369e-20)
(0.972986 -0.0399568 -1.68118e-21)
(1.02443 0.0215869 -3.33622e-21)
(0.557486 -0.0740587 0)
(1.03853 0.031413 3.98416e-23)
(1.0205 0.0180187 -5.07931e-21)
(0.726138 0.114882 2.14463e-20)
(1.08348 0.0683991 -9.86029e-21)
(1.02532 0.0206117 -4.43647e-21)
(1.07292 0.0802822 -7.82824e-21)
(1.01667 0.0108375 9.84385e-22)
(1.04137 0.0329401 -4.22659e-22)
(1.08048 0.0652812 6.57542e-22)
(1.01444 0.00153757 -3.98522e-21)
(1.05548 0.0265296 -3.1877e-21)
(1.03154 0.0220084 4.00356e-21)
(1.0122 0.0052525 8.09251e-22)
(1.00992 0.0023624 -9.38661e-22)
(1.01115 0.00326406 -1.22783e-22)
(0.376987 0.184808 1.85197e-21)
(1.03797 0.0021302 2.83366e-21)
(1.02104 0.0141477 2.18858e-21)
(1.01135 0.00313935 0)
(1.01345 0.00756733 0)
(1.0454 0.0535926 0)
(0.945124 0.0306025 -6.00613e-21)
(1.01178 -0.000707475 -2.78312e-22)
(1.00833 -0.000224007 2.2499e-23)
(1.0786 0.0626701 -2.47411e-20)
(1.00052 0.0545835 1.32077e-22)
(1.01227 0.00552544 -9.21846e-22)
(1.02454 0.0212088 -8.86521e-23)
(0.733813 0.149711 2.48485e-21)
(0.800796 -0.0197738 4.36305e-21)
(1.04129 0.00708121 5.81724e-22)
(1.07304 0.0687325 -1.09537e-20)
(1.04913 0.0604703 1.5254e-20)
(1.01267 -0.000976257 3.84477e-22)
(1.01131 -0.00068217 -2.77531e-22)
(1.0222 0.0320484 -9.38482e-22)
(1.00982 0.00225767 -1.89942e-23)
(1.01175 -0.000712185 2.77694e-22)
(1.01544 0.0102876 6.32042e-22)
(1.0113 -0.00068782 0)
(1.01247 -0.000978401 0)
(0.554534 0.0934688 -2.34838e-20)
(1.01692 0.0112235 1.05742e-21)
(1.03018 0.0372219 0)
(0.366119 0.0190585 -1.42378e-20)
(1.0504 0.0543418 -1.91424e-20)
(1.00936 0.00211686 3.5985e-22)
(1.03028 0.00567479 0)
(0.743359 0.106629 -5.93159e-21)
(1.02417 0.0319261 0)
(0.378683 0.00840978 8.54273e-21)
(1.01273 -0.000752609 0)
(1.02051 0.00407962 0)
(1.0142 -0.000922005 -3.38216e-22)
(1.01025 -0.000611283 0)
(1.02207 0.0213604 -4.54286e-21)
(1.01493 0.0105395 -1.79162e-22)
(0.754848 0.149359 -1.4454e-20)
(1.02114 0.00542338 0)
(0.959602 0.0689735 -8.51305e-21)
(1.02022 0.00412306 0)
(1.06165 0.040284 2.89717e-21)
(1.02538 0.0033732 0)
(1.01673 0.0120633 0)
(1.02537 0.0710841 0)
(0.81758 0.133721 -2.75817e-20)
(1.02287 0.0120149 1.60896e-21)
(0.561174 -0.0908563 -2.27209e-21)
(1.00958 0.00234717 -4.05669e-22)
(1.00897 0.000828024 1.56984e-21)
(1.01325 0.00726481 0)
(1.01532 0.0107362 0)
(1.00883 0.00177493 9.33169e-23)
(1.01181 0.000864475 0)
(0.635367 0.0515441 1.98465e-20)
(0.522124 0.170201 -1.46384e-20)
(1.00865 0.00167102 0)
(0.92981 -0.00439478 -1.26742e-20)
(1.07785 0.0627202 4.89975e-21)
(1.01883 0.000470224 4.16872e-21)
(1.05001 0.057513 9.31633e-21)
(1.08386 0.0544857 -8.08969e-21)
(0.692606 0.0944189 -1.47104e-22)
(1.058 0.0279141 1.75708e-20)
(0.97367 0.0664119 0)
(0.918037 -0.00547062 8.80605e-24)
(0.927409 0.00119806 3.59786e-22)
(1.01514 0.0107032 0)
(1.03626 0.00721272 3.07719e-24)
(1.02951 0.00302185 5.80488e-23)
(1.02023 0.0184324 1.5948e-21)
(0.995261 0.123517 -1.59317e-20)
(1.0054 -7.41752e-05 -1.19438e-22)
(1.0197 0.0115358 3.43603e-21)
(1.02062 0.0153268 -3.9836e-21)
(1.05829 0.0239213 -3.58643e-21)
(1.02703 0.0340792 9.12412e-22)
(1.07831 0.0679168 -1.60205e-20)
(1.06353 0.0534551 9.55955e-21)
(1.01529 -0.00593619 1.05959e-21)
(1.00903 0.00762353 -9.37388e-22)
(1.00099 0.0525562 2.50814e-21)
(1.02737 0.0381149 3.02402e-21)
(1.02071 0.0139064 -2.21061e-21)
(0.86887 0.15412 8.73857e-22)
(1.05109 0.0434044 1.20402e-22)
(1.03511 0.032486 -4.8029e-21)
(0.610628 0.144647 -3.33601e-21)
(1.0145 0.00198765 -2.16278e-21)
(1.02647 0.0378733 -6.27809e-22)
(1.03348 0.093627 0)
(1.00845 0.00141938 -6.47237e-22)
(0.528744 0.0435971 1.07823e-20)
(1.00903 0.000833998 0)
(1.01027 -0.000614437 3.54725e-22)
(1.04634 0.0547257 0)
(1.01269 -0.000731419 0)
(1.00877 0.000645923 0)
(1.02437 0.0845824 5.65406e-21)
(0.586373 0.0532957 1.08655e-20)
(0.452112 -0.0997642 0)
(1.01378 0.0042325 3.3826e-21)
(1.04195 0.013675 -6.38418e-21)
(1.01228 -0.00304553 -2.06077e-22)
(1.013 0.130481 0)
(0.919141 0.117663 3.75866e-21)
(1.02025 0.0131342 1.99374e-21)
(1.02047 0.0124339 1.61646e-21)
(1.01343 0.00379696 -2.75348e-21)
(1.03683 0.0560794 1.34441e-21)
(0.87183 0.0822765 0)
(1.01098 0.0026366 -4.40882e-23)
(1.00336 -6.41242e-05 -4.31356e-23)
(1.0125 0.00632543 -4.2202e-23)
(1.01213 0.0050487 2.56848e-21)
(1.01578 0.00773543 0)
(1.04166 0.0340033 0)
(1.00495 -4.45234e-05 0)
(1.06274 0.0541929 0)
(1.0084 0.00134372 -6.04254e-22)
(1.01386 0.00803776 0)
(1.03159 0.0215272 0)
(0.576301 0.021314 0)
(1.00627 -1.51101e-05 -1.9889e-22)
(1.04861 0.0197263 -4.59294e-21)
(1.01277 0.000317267 2.65671e-22)
(1.06121 0.0393415 1.7462e-20)
(1.05269 0.0630401 5.43841e-21)
(1.02744 0.0475936 5.31539e-22)
(1.03338 0.0593413 0)
(1.03773 0.00873406 0)
(1.02966 0.0204138 -1.24381e-21)
(1.00263 0.0486733 -3.50985e-22)
(0.728134 0.0573262 4.6658e-21)
(0.572393 0.0738348 2.5295e-20)
(0.385746 0.0232508 1.33714e-20)
(1.0101 0.00191549 0)
(1.0129 0.00678722 2.61025e-22)
(1.01547 -0.00733731 4.21978e-22)
(1.02227 0.00722932 0)
(0.858737 0.0558203 0)
(1.01083 -0.000670594 3.14404e-22)
(0.851207 0.123734 -3.71819e-23)
(1.03762 0.0290364 -5.30797e-21)
(0.819197 0.0568395 1.68344e-20)
(1.03799 0.0190753 -7.93405e-22)
(1.05653 0.0164081 0)
(0.0974896 -0.0500285 -2.05439e-20)
(1.00864 0.00160268 -3.01534e-22)
(1.08068 0.0517643 -3.14813e-20)
(1.00369 4.71139e-05 -5.58606e-23)
(1.01523 0.00151172 -5.52627e-22)
(0.782047 0.0543403 1.24674e-20)
(1.01227 -0.000724043 0)
(1.07923 0.0642901 2.86726e-20)
(1.00359 -5.00934e-05 7.13194e-23)
(1.01759 0.000248879 3.04131e-21)
(1.01309 0.00708027 0)
(1.07754 0.0677036 2.04556e-20)
(1.01503 0.00860324 0)
(1.00745 -0.000265105 0)
(1.07524 0.0634464 0)
(1.04887 0.0565302 -2.99401e-22)
(0.853964 -0.188009 -5.94588e-21)
(1.02707 0.0616879 -1.5171e-20)
(0.662851 0.0555339 -1.3785e-20)
(0.676154 0.0985956 1.89662e-20)
(1.00624 3.39432e-06 1.73594e-22)
(0.414542 0.00922045 -1.85093e-20)
(1.00604 -6.66596e-05 1.01722e-22)
(0.470822 0.174816 2.3508e-21)
(0.902152 -0.0168242 -6.53046e-21)
(1.01582 0.00209753 -6.0374e-22)
(1.02229 -0.00761354 0)
(1.00382 -5.71125e-06 0)
(1.05063 0.0428245 2.53179e-20)
(1.05497 0.0150702 0)
(1.01224 -0.000719802 5.72327e-22)
(1.0036 7.04335e-05 -6.43752e-23)
(1.01343 0.000382111 0)
(1.05909 0.0626498 4.13001e-20)
(1.01487 0.00505423 -4.1414e-21)
(1.07338 0.0532322 2.31604e-20)
(1.01932 0.0111724 -6.00092e-23)
(1.00734 -0.000256593 7.35881e-23)
(1.00383 -3.71893e-05 -5.6359e-22)
(1.0176 0.104275 4.8445e-21)
(0.915412 0.0981821 1.24998e-20)
(0.154499 -0.0293076 1.99975e-23)
(1.0651 0.0611704 4.36276e-21)
(1.04238 0.0337579 0)
(1.09309 0.0947069 1.73034e-20)
(0.488028 0.019433 0)
(1.00935 0.000417268 8.86657e-23)
(0.918964 0.127572 -3.20845e-20)
(1.01294 0.000169452 5.03228e-21)
(1.08378 0.060121 -3.18255e-20)
(1.02198 0.00738401 -5.42744e-21)
(1.08594 0.073942 7.19833e-21)
(1.01189 0.00481263 -1.53552e-21)
(1.01719 0.00772525 0)
(1.03209 0.00630068 -1.06278e-20)
(0.853581 -0.182789 2.70725e-21)
(1.04837 0.044075 3.35116e-21)
(0.815707 0.0548578 -1.39164e-20)
(1.0048 -3.61585e-05 0)
(1.04673 0.0425241 -6.94228e-21)
(1.01139 0.00198395 -1.73636e-22)
(1.00287 -7.37539e-05 0)
(0.53434 0.0199612 0)
(1.06032 0.0135973 -2.48378e-22)
(1.01166 0.00178316 5.85446e-22)
(1.05683 0.0838838 -1.96682e-21)
(1.01936 0.00159407 0)
(1.0138 0.00120914 2.83054e-22)
(1.00355 -5.27967e-05 -5.47044e-23)
(0.555134 0.0233776 -2.662e-20)
(1.01506 0.00501036 5.58705e-21)
(1.0066 0.00682901 6.28537e-22)
(1.01084 -0.000663734 0)
(1.01154 0.00179055 -1.78864e-24)
(1.07895 0.0755138 2.08507e-20)
(1.00406 -4.37222e-05 -5.40992e-23)
(1.06131 0.0785791 0)
(1.00254 -7.98252e-06 0)
(1.00822 0.00153219 -9.69963e-22)
(0.441062 0.180989 0)
(1.07373 0.0538798 -1.42529e-20)
(1.01995 0.0126877 -2.40102e-21)
(0.287388 0.00740988 1.36628e-21)
(1.0793 0.0643703 -3.05971e-20)
(0.956554 0.00412484 5.20315e-21)
(1.02988 0.0943519 -5.63957e-21)
(1.00847 0.00150206 1.58656e-22)
(1.0135 0.0114367 -1.68131e-21)
(0.554652 0.0173606 0)
(1.08042 0.0666047 -1.65089e-20)
(1.02255 0.0311133 1.09722e-21)
(1.02292 0.0222776 0)
(1.01858 0.00818432 -7.0303e-22)
(1.00314 3.02461e-06 5.48533e-23)
(1.01122 0.00379645 3.59823e-22)
(1.03595 0.0153918 0)
(1.05136 0.0656678 0)
(1.03392 0.0270122 1.17152e-20)
(0.569342 0.155459 -2.36096e-20)
(1.0492 0.0448213 0)
(0.924083 0.0168596 0)
(0.896525 0.125374 0)
(1.03741 0.0109197 -8.7136e-23)
(1.03831 0.0411995 0)
(1.06042 0.0868764 1.16289e-20)
(0.465526 0.0151517 1.69212e-20)
(1.0116 0.000590368 -1.72357e-22)
(1.02728 -0.0019087 7.79981e-22)
(1.03289 0.0207251 -3.36916e-24)
(1.00831 0.00156371 -1.08897e-21)
(1.00464 3.50916e-05 -2.27863e-22)
(1.00391 -4.81389e-05 -9.41476e-23)
(1.01174 -0.00388637 2.18961e-22)
(1.00987 0.000720621 -1.15237e-21)
(0.420174 0.00948786 -1.02728e-20)
(1.07288 0.0350478 -6.56383e-21)
(1.00629 0.000325317 0)
(1.07169 0.063147 1.3968e-20)
(1.00506 -3.80397e-05 1.21924e-22)
(0.615164 0.026248 -1.12807e-20)
(1.01275 0.000413025 2.35567e-22)
(1.01078 0.00273248 -2.19455e-23)
(0.553933 0.0494802 0)
(1.05391 0.0605121 0)
(0.881631 -0.00423555 -1.60984e-21)
(1.03381 0.00845975 1.61903e-21)
(1.01665 -0.00223902 0)
(1.01063 0.00214689 -2.48923e-23)
(1.03903 0.0113701 -5.78294e-21)
(1.05175 0.0333919 0)
(1.01164 0.00490956 -1.38544e-21)
(0.366536 0.011529 1.49538e-20)
(1.03421 0.0344367 -1.22876e-21)
(0.91472 0.133306 0)
(0.881782 -0.0339922 0)
(1.02786 0.000500808 -7.98931e-22)
(0.663675 0.056672 5.69978e-21)
(1.04157 0.0141702 6.56494e-21)
(1.00439 0.000139278 0)
(1.0115 0.00198867 -2.36336e-22)
(0.46521 0.0228569 1.29156e-20)
(0.485464 -0.0837557 0)
(1.03677 0.0297944 -2.95654e-21)
(0.385115 0.0101457 7.48654e-21)
(0.800522 0.0888585 0)
(1.00822 0.00158843 -4.50544e-22)
(1.0106 0.00249128 0)
(1.02133 0.0211212 3.08257e-21)
(0.98677 0.0670878 0)
(0.89123 0.0218037 0)
(1.04733 0.0445704 -3.71104e-21)
(1.03831 0.011222 -2.4747e-21)
(1.04814 0.0202342 9.46352e-21)
(1.08437 0.0606113 4.89245e-20)
(1.01099 0.00697687 0)
(1.05774 0.0797197 -1.19759e-20)
(1.07214 0.0358751 3.10291e-20)
(1.01991 0.0145879 1.64296e-21)
(1.03211 0.0171875 0)
(1.0043 0.000135003 4.69416e-22)
(1.05102 0.0329524 0)
(1.00875 0.00616429 9.30448e-22)
(1.08204 0.068688 1.24271e-20)
(1.02649 0.0255696 0)
(1.01179 0.00283179 7.68195e-22)
(0.373002 0.0107362 1.60488e-20)
(1.01972 -0.00119401 -8.39237e-23)
(0.821934 0.0999111 1.54731e-22)
(1.02325 0.0217073 3.41169e-22)
(1.00652 0.0201549 1.17034e-22)
(1.04045 0.0288503 -4.03616e-21)
(1.08072 0.066281 0)
(1.00345 -2.01579e-05 0)
(1.08124 0.0500607 -1.43574e-20)
(0.944289 0.0953059 -2.87914e-20)
(0.931868 0.0802281 -5.92927e-22)
(1.02311 0.00724787 2.60308e-21)
(1.02715 0.0256716 3.69917e-23)
(1.00805 0.000383605 0)
(1.02031 0.00566292 -2.43125e-21)
(1.03201 0.00520935 1.14873e-21)
(1.02261 0.0149851 0)
(1.02386 0.00569365 0)
(1.01789 0.101809 0)
(1.06014 0.0803923 1.03804e-20)
(1.0083 0.00133915 -1.24892e-22)
(1.07767 0.0688432 1.13788e-20)
(1.0613 0.0203452 8.71815e-21)
(1.05791 0.0245138 -1.36487e-22)
(1.05956 0.0844748 -1.01344e-20)
(1.01611 0.0109041 6.8402e-22)
(1.07976 0.0519563 4.59679e-20)
(1.01986 -0.0148833 7.56299e-22)
(1.00668 -0.000143808 -2.87654e-23)
(1.05509 0.0600524 -1.99897e-20)
(1.02346 0.0621498 0)
(1.07086 0.0357443 -1.6194e-20)
(1.01037 0.0031586 0)
(1.00902 0.00196457 -6.02339e-22)
(1.01115 0.00368674 0)
(0.421663 0.00999478 -7.66741e-23)
(1.0313 0.0161922 0)
(1.01333 0.000487322 2.34732e-22)
(1.07678 0.0397561 4.36747e-21)
(1.01184 0.00514722 1.39602e-21)
(1.00971 0.00227295 0)
(1.04266 0.0822608 0)
(1.05634 -0.00481814 1.74289e-23)
(1.02534 0.0228942 -6.02863e-22)
(0.729904 -0.0458163 -2.32226e-21)
(1.02956 0.0405181 -2.43312e-23)
(0.961992 0.0706414 0)
(1.03247 0.00483115 -1.56945e-21)
(1.01272 0.0116528 0)
(1.09478 0.0831521 0)
(1.0153 0.00245023 -3.01011e-22)
(1.00907 -0.0200195 0)
(1.00359 -2.83443e-05 0)
(1.00459 2.77987e-06 0)
(1.03241 0.00923989 2.83249e-21)
(1.02553 0.0261219 0)
(1.02983 0.04804 0)
(1.01028 0.00306049 4.6371e-22)
(1.0452 0.0067756 7.80727e-22)
(1.01242 0.00513223 0)
(0.9047 -0.0639383 0)
(1.02386 0.0219469 -3.71662e-22)
(1.05859 0.0271725 0)
(1.01313 -0.000757096 -3.31788e-22)
(1.06537 0.0629243 0)
(1.0149 0.0128674 0)
(0.803789 0.102249 -2.79984e-20)
(1.02877 0.0229515 1.31557e-21)
(1.00254 1.15448e-05 -1.86265e-22)
(0.581636 0.0196061 2.27176e-20)
(1.03158 0.017877 -7.72498e-21)
(0.426177 0.0153173 -1.03318e-20)
(1.05494 0.0134027 -1.83438e-20)
(1.04075 0.0309632 -6.29447e-23)
(1.01169 0.00782227 0)
(1.00982 0.00150861 4.07631e-24)
(1.02285 0.00684964 -2.73687e-21)
(0.704772 0.0453361 1.21483e-20)
(1.04937 0.0330543 0)
(0.949318 0.0107966 5.62268e-21)
(0.772505 -0.0152195 -4.78828e-21)
(1.02006 0.00548681 2.24462e-21)
(1.07038 0.0365811 2.53569e-20)
(1.00954 -0.000403231 6.04837e-24)
(1.01651 -0.00652587 0)
(0.842567 0.0151909 0)
(1.00996 -0.000453353 0)
(0.585291 0.10999 9.9456e-21)
(1.05019 0.0194126 0)
(1.04573 0.0287304 0)
(1.06977 0.0681408 1.32489e-20)
(0.952288 -0.0152397 -3.53373e-21)
(1.0084 -0.000248893 2.4992e-22)
(1.00497 8.09877e-05 -9.4595e-23)
(1.00875 0.0563429 0)
(1.00847 0.0014315 2.16084e-23)
(1.01893 0.0114556 3.13676e-21)
(1.02604 0.020076 0)
(1.01259 0.0063181 -1.4677e-21)
(1.07605 0.0404818 0)
(1.00825 -0.000254025 0)
(1.03981 0.0689251 -1.14143e-21)
(1.01948 0.0144131 0)
(0.459496 0.00984043 0)
(0.416495 0.0148111 -1.41434e-20)
(0.966967 0.0455722 0)
(0.949215 0.0694748 -4.32022e-21)
(0.578992 -0.0887268 0)
(0.446429 0.00882311 0)
(0.941206 0.0193588 0)
(1.00765 0.00120737 -3.11505e-22)
(1.01318 0.000819852 1.42919e-22)
(1.02666 0.00835169 6.59961e-21)
(1.02846 0.0180874 0)
(1.01345 0.00401229 -3.83477e-21)
(1.05026 0.0335343 0)
(1.01493 0.00622623 0)
(0.948479 0.0405984 3.47511e-21)
(1.01927 0.0118435 -3.23914e-21)
(1.0864 0.0613714 1.52575e-20)
(1.03114 0.015453 5.57173e-21)
(1.07116 0.0297167 2.55869e-20)
(1.0123 0.0463511 0)
(1.01036 0.00168822 1.04514e-22)
(1.02989 0.036513 2.13822e-21)
(1.03116 0.0180408 9.07021e-21)
(1.01618 0.000630312 5.89545e-22)
(1.04458 0.0290666 9.5871e-21)
(1.01414 -0.00112198 -3.15264e-22)
(0.66308 0.0593163 3.04675e-20)
(1.05151 0.0675402 -1.35978e-20)
(1.03598 0.0256618 1.05783e-22)
(1.01043 0.00225295 0)
(1.02461 0.000927712 2.88008e-21)
(1.01318 0.00777798 1.45395e-22)
(1.01244 0.00534152 -7.94935e-23)
(0.633654 0.13385 6.81631e-21)
(1.00785 0.0013485 0)
(1.05166 0.0103324 0)
(1.01182 0.00464961 2.68596e-21)
(0.901228 0.00997354 3.63021e-22)
(1.01637 0.0119031 -5.10296e-22)
(1.01346 0.0060695 3.48189e-23)
(1.08145 0.0508082 6.32436e-22)
(1.00878 -0.0107469 0)
(1.008 0.00145454 0)
(0.884867 -0.0748352 1.54866e-21)
(0.951897 0.123186 1.93796e-20)
(1.01857 0.0190579 0)
(1.06709 0.0620432 -1.18146e-20)
(1.00849 0.00122563 6.73035e-23)
(1.04801 0.0166343 3.19387e-22)
(1.01531 -0.00192457 -3.23023e-22)
(1.01243 0.00568935 0)
(0.503044 0.0150138 0)
(1.0042 -8.05702e-06 8.81187e-23)
(1.03673 0.0152935 2.42054e-21)
(1.07083 0.0631926 -1.26194e-20)
(0.489955 0.0131365 1.58487e-20)
(1.01568 -0.00238617 0)
(0.906403 0.0108926 0)
(1.09125 0.0834161 2.44809e-20)
(1.01577 -0.00188511 1.48697e-23)
(1.01388 0.0100477 0)
(1.01276 0.00659268 7.38022e-22)
(1.06612 0.0609626 0)
(1.02374 0.00138028 -9.61744e-21)
(1.07567 0.0639024 0)
(1.02729 0.0107987 0)
(0.537279 0.0460341 -1.05253e-20)
(1.0157 0.0121587 3.26863e-22)
(0.760455 0.116386 -7.48159e-21)
(1.01135 0.00325546 -4.72433e-24)
(1.01204 -0.000771365 -1.27578e-22)
(0.959055 -0.0420685 0)
(1.01022 0.000513783 0)
(1.01915 -0.000951291 1.08865e-22)
(0.772414 0.0599759 -1.36917e-20)
(1.02274 0.0187699 -4.98248e-21)
(1.00958 0.00249956 -1.53456e-21)
(0.925804 0.0634479 -1.26599e-21)
(1.01624 -0.00159912 4.80019e-22)
(1.01298 0.000596804 0)
(1.05284 0.0648931 6.91096e-21)
(1.02481 0.0200755 5.35021e-21)
(0.84304 0.0552319 0)
(1.0306 0.037007 3.30338e-21)
(1.0823 0.0547481 1.56424e-20)
(1.02671 0.090944 7.29883e-21)
(1.04718 0.0201191 -9.12396e-21)
(0.556745 0.0428514 0)
(1.0196 0.0152605 1.60943e-21)
(1.05393 0.0622994 0)
(1.02182 0.00401847 4.2501e-21)
(0.397089 0.0191947 3.01664e-20)
(0.909343 0.0144269 -8.49336e-24)
(1.03557 0.00817311 6.62905e-21)
(1.01496 -0.00173684 0)
(1.01482 0.000645612 2.83428e-22)
(1.02059 0.0132732 2.50221e-21)
(1.01466 -0.00144478 0)
(1.01208 -0.00059221 0)
(1.01186 -0.000210357 -2.11481e-22)
(1.02287 0.00627491 -5.13245e-21)
(1.04015 0.0344827 0)
(1.0066 -0.000137843 0)
(1.02289 0.0182769 0)
(1.07108 0.0581228 -2.43325e-20)
(0.634553 0.0919345 0)
(0.780784 0.0953121 -2.08733e-21)
(1.07023 0.0622901 0)
(1.01337 0.00802362 3.27548e-22)
(0.953244 -0.0320842 -3.41665e-22)
(1.01438 0.00546785 0)
(1.093 0.0799974 -2.96396e-21)
(0.854726 0.0684676 0)
(0.19267 0.00558409 4.09274e-20)
(1.0105 -0.000650585 -1.6905e-25)
(1.00779 0.00130475 0)
(1.01657 0.00109556 -2.12447e-21)
(1.01669 0.0101264 0)
(1.01031 -0.000633457 1.86104e-22)
(1.01412 -0.000771189 -1.73665e-22)
(1.0168 0.00577614 1.28672e-21)
(1.03798 0.0420817 -2.2107e-22)
(1.00971 0.00255423 0)
(0.34977 -0.00565837 -1.95556e-20)
(0.930138 0.0476875 0)
(1.00985 0.00304864 0)
(0.73232 0.0490617 1.11852e-20)
(1.02224 0.00413573 6.89528e-22)
(1.0112 0.00339101 -1.97215e-22)
(1.01625 -0.0108841 7.46048e-22)
(0.569668 0.0250925 1.28032e-20)
(1.02655 0.0364054 7.62227e-22)
(1.00436 -7.19339e-05 -1.0949e-22)
(0.881523 0.0375292 3.09355e-22)
(1.01117 0.00127986 0)
(1.01117 0.00299911 -1.3963e-23)
(1.07688 0.0687683 -1.63973e-20)
(1.01352 0.00116199 -4.34289e-22)
(0.929618 -0.00756611 5.22432e-21)
(1.03752 0.0156696 9.13875e-21)
(1.06042 0.035259 0)
(1.00938 0.00220916 1.69235e-22)
(1.01234 -0.000773416 0)
(1.02575 0.0322878 4.28877e-21)
(0.964406 -0.0109138 0)
(1.02983 0.0199366 -1.99872e-21)
(0.507188 0.022558 1.34015e-20)
(1.00171 -0.00260884 0)