/*--------------------------------*- C++ -*----------------------------------*\
| =========                 |                                                 |
| \\      /  F ield         | OpenFOAM: The Open Source CFD Toolbox           |
|  \\    /   O peration     | Version:  v2012                                 |
|   \\  /    A nd           | Website:  www.openfoam.com                      |
|    \\/     M anipulation  |                                                 |
\*---------------------------------------------------------------------------*/
FoamFile
{
    version     2.0;
    format      ascii;
    class       volScalarField;
    location    "900";
    object      omega;
}
// * * * * * * * * * * * * * * * * * * * * * * * * * * * * * * * * * * * * * //

dimensions      [0 0 -1 0 0 0 0];


internalField   nonuniform List<scalar> 
13917
(
0.0381607
0.0222173
3.56548
0.0239066
0.0221073
0.441186
3.48057
3.6587
4.79761
0.059769
0.166614
0.0679797
0.0239984
11.3451
0.0261616
0.0249895
0.0223348
0.0459283
0.0674603
0.0221132
0.0222676
3.47254
0.0220909
3.72927
0.022006
3.49653
0.0410619
0.0535863
0.742536
0.0842446
0.040094
0.027399
0.0357961
0.0256206
0.0220229
3.85429
0.0221
3.88759
0.026185
6.62738
0.0218963
0.0222861
0.021599
0.0814912
0.0221133
0.0273543
0.0450599
0.0576928
2.82891
0.0220194
0.0266836
0.0223453
3.26426
0.0259899
0.0223477
0.0263731
0.159383
0.0220328
0.0247795
0.0220683
11.8536
0.0222201
21.1066
0.0221015
0.405662
16.0121
0.0221056
0.0220503
0.140673
0.0353481
0.0221146
4.968
3.87313
0.0220111
2.9595
0.0862939
5.1941
0.0227694
3.52715
0.0222377
0.0222053
0.0221129
0.382955
3.6786
5.74048
0.0226767
0.0221805
10.471
0.0264259
0.0215902
3.71465
0.0768065
0.0218999
0.0230327
14.0112
0.378579
0.0999104
0.0535147
0.166662
0.106824
0.0218166
0.0323719
0.0816922
0.0231834
0.0218016
5.54113
0.444844
0.0600604
0.0223417
0.0428687
4.24816
5.74955
0.0871623
5.33442
0.0229675
3.32168
0.0220033
1.48371
5.83898
0.0259616
0.0222745
0.134811
5.32462
0.0505095
0.0219795
0.0228582
0.0220778
0.0219875
0.0216196
0.41499
3.86237
0.0228759
0.0221372
0.022275
0.552797
3.7329
0.0385913
0.113856
0.0220983
0.0258552
3.63026
0.0217869
0.0225831
0.101487
0.0220492
5.48453
0.785543
0.0222922
0.0217576
0.028007
0.0501332
3.30613
0.0775892
0.0404573
0.0264998
7.10382
0.0340048
4.50627
6.17907
0.630441
0.0242341
0.0420949
0.0222376
0.0956649
0.0853267
0.150474
0.02315
0.051481
0.0219404
0.0334182
0.0406509
5.92404
0.0970423
0.0226472
5.21135
0.0444389
3.73481
1.94054
5.46686
0.021928
0.0795904
0.0412302
0.0217817
0.0221714
0.0299081
3.513
0.265362
9.57627
0.0338262
0.126621
3.61308
6.75805
0.259049
0.0221009
0.120735
0.0402923
0.0224042
0.0219097
0.230331
5.93484
0.0265242
0.0220349
0.0485891
0.0494837
4.23747
0.501946
0.0220259
0.0220486
0.0524953
3.52143
0.0224871
3.47606
5.71078
0.126988
0.021808
0.5799
0.0475492
5.41032
0.0219596
12.0054
0.0219211
0.0745527
0.0218899
3.71576
5.63463
0.0253041
1.90506
0.0267706
0.0218116
3.81839
0.096167
0.0335556
3.69494
7.21982
0.0217738
0.0278236
3.57631
5.0667
0.0222299
0.0219468
5.22669
0.112599
0.0222668
3.43387
0.0749043
0.0406937
0.0353226
0.0222297
0.0444078
6.38226
0.0219841
0.101778
0.140426
0.0220537
0.0220215
0.0633504
4.26163
0.0742649
0.030231
0.0263079
0.0222713
6.66626
7.2163
3.52226
0.0218179
4.09873
6.83543
4.57573
3.52672
0.0928421
0.0222161
0.0219343
0.0452999
4.02881
0.0924033
0.0245344
0.564269
0.0475336
0.0216133
5.88102
0.0220896
5.12524
0.0260373
0.022262
0.0272016
0.0401628
0.0422626
3.56553
0.0321243
0.0220892
0.353255
3.73649
7.26124
0.0219608
4.75609
0.0221726
0.022085
0.0220111
1.14133
0.022106
0.0804168
0.0346325
0.0219194
0.0490861
0.0231481
2.32628
0.0432395
0.0705642
0.0218293
0.0220111
4.28094
5.85422
0.0219972
0.0219113
5.71458
0.0219142
3.74485
0.0218213
3.60861
0.0225086
0.437492
0.0322708
3.10156
0.023948
0.324674
0.31083
0.0271797
0.110943
0.518189
0.0222828
3.96128
0.120571
5.80803
0.0247932
7.32243
0.0284047
5.88538
0.245895
0.108352
0.105522
3.51807
0.0222178
0.0420146
4.42374
0.0221731
0.0234907
6.58905
0.280685
0.0225797
2.21439
0.68097
0.021858
6.94585
3.80627
0.0220829
0.0218907
0.0221802
0.0217528
0.334043
5.38776
0.671367
4.38184
0.0220087
0.113481
6.56939
0.0394745
3.46856
3.76513
5.42137
0.0217683
3.44245
0.021871
11.0407
0.0220663
3.90436
0.0753594
0.0250839
0.0221991
0.0507248
0.0861226
0.0588622
8.56787
5.23094
8.04879
0.0462858
0.0563182
0.021955
5.45945
3.47612
0.0220594
0.361392
0.0220364
0.278756
0.0225035
0.0222279
0.0231821
3.57841
0.0231469
3.93053
7.43477
0.13688
0.456612
0.0222701
0.480143
0.41513
0.0220346
0.312075
0.02216
0.0220222
0.0846061
0.0222616
0.0220097
0.0218674
0.263603
0.0222488
6.13383
3.58247
5.19498
0.260182
3.76748
5.40014
0.039025
0.0220148
0.132155
0.025875
0.0289002
0.022093
5.39428
3.49446
3.58379
0.0249721
0.0843241
0.0245404
0.0267251
0.0583293
0.0229664
3.41415
0.0223298
0.0220969
3.64539
3.80083
3.70069
0.11703
6.24011
3.7373
4.14616
5.39743
0.0216478
0.048781
0.0230229
0.0220787
0.312814
0.0460319
0.0219532
0.0524101
0.0371527
5.60572
0.0220302
0.092841
15.3637
0.682844
5.1212
0.0222563
0.022067
0.0223592
0.0342791
0.0217707
3.53787
0.534567
0.0319508
6.34581
0.0263106
0.098925
4.41085
0.800744
0.129651
3.76176
0.0930351
0.0522224
0.123148
0.0430654
0.189449
0.585953
0.0503929
0.0665718
0.0218576
0.430453
0.027248
0.0216885
0.0329065
0.0228802
5.31348
5.32891
0.0219053
0.0216319
3.55405
7.43236
0.0222618
6.41245
0.0229512
0.193439
0.0219204
4.49593
3.28596
0.0279352
0.0223599
3.63828
0.214491
6.9347
0.0222694
5.54251
2.37815
6.17208
0.0216988
5.21955
6.99402
0.0399121
0.0218841
0.0223215
0.0881166
0.307133
0.0218795
0.0218968
0.0219585
0.0219526
4.58336
0.33507
0.039393
0.253947
0.0219651
0.0218236
0.0820984
4.93264
0.0315191
0.0219557
0.0220173
0.0220685
6.65298
7.91428
0.0221746
0.0220651
3.40769
0.0422493
0.0322681
0.0220553
0.0232541
0.0266536
0.0651
0.410892
0.263558
0.133999
0.0769744
0.489647
0.0685624
0.0219707
5.37332
0.0220724
0.0237737
0.0245183
0.4351
0.0739361
0.0218273
0.676306
0.0941269
13.1079
0.0772294
0.0354781
0.0386879
0.02219
7.1792
0.469595
3.4465
0.0222414
0.0285247
0.254529
3.67973
20.6624
0.0553374
0.135592
0.02493
0.0240444
0.0220581
0.0537207
0.0871886
0.0221624
0.047078
0.134066
3.45037
6.27257
0.0240144
0.0957397
1.97587
0.0282917
0.0223936
3.55035
6.28187
5.02587
0.22854
0.0216335
6.14173
0.0867127
0.0218569
0.0301807
0.0637103
0.0344314
0.0821326
3.5181
0.119786
0.0388032
7.08853
0.0231591
6.29344
0.0222385
0.0221679
4.74977
6.2168
0.645659
0.0231552
0.0225983
0.0220676
0.0479829
3.47063
0.135486
0.0242268
0.121056
0.0498087
0.0219251
1.94147
0.136009
3.30275
0.0219427
0.116246
0.022856
11.5816
0.0608552
0.0737294
0.0287878
0.0218794
0.0217043
0.022115
0.116279
0.0277041
0.233522
7.35215
0.0505522
0.0218671
0.116013
0.68108
3.98288
0.0219586
0.0271015
0.0219046
0.0299979
0.0249243
6.79082
0.0222298
3.694
0.0295119
0.166326
0.0784954
3.91538
0.0764164
0.0222713
4.2109
13.1726
0.0220436
0.0244425
2.46761
0.192968
0.0920126
0.0222376
0.0223879
0.328089
0.0252477
0.0581602
0.0611671
0.0217062
0.0499831
3.59078
0.0219411
0.0231858
0.0219785
6.17032
0.0222665
0.0246416
5.42679
0.0233626
6.15581
0.0265688
0.0365022
0.021971
0.0491768
0.0220199
0.0515813
0.0218852
0.0818489
0.0229485
28.5418
3.09055
5.03949
0.022255
0.0222069
0.065065
0.0449276
5.29688
4.96963
0.0454529
0.0220262
0.253096
0.690175
3.29047
0.209219
0.0441961
3.55001
0.037859
0.0451385
0.11196
0.181751
0.0449566
1.13026
0.0446285
0.0238023
0.0672018
0.0272787
0.0217697
0.0297463
0.0428609
0.0274337
0.0220266
0.0219245
0.0502459
0.0234264
0.0590909
0.0220286
0.0220528
0.022274
0.0231595
0.0215531
0.0255909
0.0219989
4.59856
0.0689229
0.365081
0.0217927
0.0222479
0.0479214
0.0529466
0.0226901
7.84937
0.0743046
8.83279
0.0297011
0.0952601
0.0224841
0.0222697
0.0219352
0.0231591
7.3311
0.0222556
1.79817
0.0258406
5.97258
0.0485152
0.0752493
0.166376
0.0216912
0.022291
0.0694735
0.0220469
0.0224149
5.29962
0.0227358
0.0221805
0.0272106
0.0219408
0.0216839
0.027464
0.0285098
6.64138
0.0338014
0.0219401
0.0218728
3.55292
0.114056
0.0222131
0.0222447
6.2629
2.5369
7.5356
0.0357038
0.023814
0.0217844
0.021669
0.0509172
0.0346153
0.353116
0.0251663
4.18385
0.0223356
0.0236516
8.16049
0.0220436
0.0274096
0.0219938
0.0220809
0.0418742
0.0425849
0.0225149
6.09996
4.8702
0.078997
0.0219669
0.0216117
0.126647
1.5418
0.0222613
0.453878
0.0216111
0.0403609
0.0217619
0.021813
0.325274
0.0220245
3.41262
0.0372315
0.0222738
0.0216304
0.0220706
0.0219079
0.0230838
4.22915
0.0219001
0.0217919
4.00963
5.36267
0.0398171
0.0439847
0.0560285
0.0250022
0.0217999
0.0281178
4.48325
0.0863397
0.0221289
0.0223004
5.07489
0.0338458
4.82262
0.0222671
0.0228054
7.00836
0.0320694
0.0225916
7.72318
1.71949
0.0219036
0.103505
0.0219325
0.0219966
0.0217808
3.90794
0.0215452
0.021964
0.0217948
3.45178
0.0252706
0.191467
0.062523
0.0218041
0.0328189
0.0221746
4.48224
0.0219615
0.0219197
0.0221815
0.129043
0.0221737
0.119675
5.51689
3.70223
0.0265713
3.70145
4.88934
0.0220076
7.44458
11.6648
4.55505
3.79109
3.90279
38.2208
0.109198
0.0223482
3.5179
0.0319323
3.47287
0.021692
0.0218972
0.0222135
0.0221677
0.0257863
0.0310763
5.16175
0.0218856
0.0220709
6.43263
0.29077
0.0220704
0.0384022
0.0285836
0.0222468
2.87429
0.0396297
0.0237675
0.0251794
6.09573
6.67165
1.29624
0.0217443
0.217291
0.0932765
4.64161
5.51175
0.0983001
0.0219185
0.0225446
0.0223378
0.0215121
0.0232421
0.0216412
0.026753
0.0369774
6.89455
0.105408
0.0219807
0.0923759
4.15254
0.0395097
0.0223075
5.85114
0.0219012
0.0223311
0.0377571
8.03953
0.0221738
0.0219447
3.47121
3.0545
1.74001
0.0839836
3.85321
0.0219209
0.133303
0.0223387
0.0219953
0.0223347
3.51999
5.58604
0.0217857
0.0216274
0.0220159
2.83373
0.0230347
0.0286891
0.0220469
0.0224611
0.130772
0.0218221
0.0521558
0.338617
3.67362
0.022022
0.0803728
0.0241851
4.08441
4.03311
0.0220119
4.25794
0.0588232
1.43663
0.0221726
3.57228
0.0222455
0.0262039
0.0409004
0.0832754
3.53315
3.3901
0.250536
6.41512
0.0218608
0.268716
0.0218021
0.0272583
3.46705
0.0220908
0.0222531
0.022826
0.0222161
6.16119
0.0216854
0.0220812
0.0507622
0.0432744
0.0446011
0.601187
0.168476
7.2942
0.0755409
0.0332388
0.044306
4.50709
0.040467
14.4055
3.49454
0.0255954
0.0218259
3.67711
3.34209
0.0222969
0.0864152
0.0318252
0.0224049
0.0261567
0.0222609
0.0409717
0.0222921
0.0433598
0.107781
0.0218787
0.0522129
0.0218349
0.0582912
0.0218799
0.0260783
0.0497482
0.023576
0.0221473
0.0217959
2.13773
0.0737904
5.98728
0.0220068
0.0221656
0.0513863
0.0219939
0.0751135
0.0740351
0.0224059
0.0754782
0.0218179
9.92511
0.0222608
0.0382939
5.84694
0.259634
0.0219272
0.0236095
6.73788
0.0219982
0.0219161
4.62779
3.80649
0.0242359
0.200203
0.0221038
0.0221413
3.52503
0.0230315
0.0217012
0.235563
0.0218413
4.18902
0.0221988
0.0217027
0.0222104
0.170092
4.18392
0.0221204
0.022281
0.0219216
0.0258028
0.0220779
1.01237
0.0505715
0.0222689
5.31586
0.0487306
0.28681
3.6483
3.67015
0.0217733
0.0222523
0.0220506
0.758745
0.0263242
4.22933
5.13888
0.0239317
3.46107
2.34179
0.0438176
0.171006
0.0675889
0.391925
3.54981
0.0619519
1.08511
3.59461
0.0639668
0.0251434
4.42391
0.0540385
0.0217047
0.0233352
15.0079
0.0374136
0.021899
0.0510334
0.0816222
0.0370466
4.48361
0.0237351
6.39699
0.0433006
3.15073
0.0966391
0.233867
0.0280466
0.0218073
0.0226133
3.61873
0.0219889
0.0241177
0.021793
0.0232724
0.0218933
0.0351094
0.186653
1.89595
0.0437284
0.0585309
3.58227
0.354056
0.0218882
2.78999
3.55237
0.0217419
0.021907
0.0294655
6.2624
0.0222549
0.0574647
0.617406
0.0460811
0.0220571
0.0233108
0.0218587
0.0865148
0.0386868
0.0219899
32.4091
3.54001
0.0422536
0.478062
0.0658
3.66139
0.0232987
0.0252652
3.59823
1.04525
0.0983935
1.78939
0.0276952
0.0222769
0.0219894
0.0222096
0.0220231
0.0226287
0.0511234
0.0219352
0.1107
0.0219397
0.0276539
0.0217816
0.0744386
0.119229
0.736709
0.0219937
0.230961
0.0219878
3.66995
0.0220311
0.025593
0.0221226
0.208945
4.16131
0.180365
0.0219294
0.105626
0.0220371
0.0289401
3.73087
0.0219677
0.0223557
0.0418388
0.030153
3.46385
0.0219363
0.0295513
0.0233443
0.022036
0.0320498
0.0225009
0.0217498
0.0236685
5.75039
0.0243192
1.5123
5.16661
0.0449969
3.9926
0.024098
0.0217557
0.0307439
6.85958
0.0235767
0.035824
0.0403098
3.34279
0.0218939
5.81295
0.0535202
0.0578668
0.0217341
0.0216444
0.234261
0.0224228
0.0222863
0.0336
0.0217014
0.0243806
0.0278168
0.0645486
0.268557
3.48747
0.0258611
0.0652572
3.41982
7.13126
0.038161
0.26372
6.24987
0.0359043
14.0119
0.0236643
20.3347
5.3965
0.0216862
0.0222621
0.0219519
0.0226938
0.041757
0.0217843
0.0239125
0.100462
0.0232728
0.0352132
3.87147
0.0301099
0.0241696
4.87504
0.0225951
6.4684
0.0246407
0.0541221
0.0218839
5.78997
5.33835
0.0220367
0.0228176
3.58475
0.0294185
6.74145
0.0220223
0.0218399
3.45005
0.0227727
0.0441111
10.4909
0.022065
0.0474361
0.0284187
0.0216411
0.0218999
3.54079
5.08039
0.022236
0.023542
0.0220549
0.0262287
0.0363993
5.58365
0.0226781
2.5808
4.68734
3.23685
1.35504
0.0227093
0.139655
0.19396
0.0290326
0.0220574
0.0568785
3.81382
0.0233848
0.0459473
3.7668
3.6104
0.28648
0.0252254
0.0222749
0.0222467
0.0220712
6.64506
0.0479597
0.0239499
0.0229373
0.0242506
0.0222708
0.0219776
0.0220424
0.064038
0.0416244
5.2267
0.0462985
5.57801
3.81748
0.030261
0.0446369
0.0218098
0.0282703
6.98046
0.0221578
0.0235674
0.0457141
0.0925402
0.0573882
3.59153
2.77292
0.0219045
4.08752
0.0216094
0.0222913
0.0456749
0.0222741
0.0219787
0.137751
6.79434
0.0218467
3.57115
0.0221422
0.0217635
0.0234806
2.68818
0.0284558
0.0246263
14.473
0.0229379
0.325804
3.59733
0.0222462
0.0476549
0.0220105
5.56684
0.0582146
0.0220466
3.54109
0.0467133
0.0789228
0.0222791
5.67899
0.0291196
0.380197
0.0231061
0.071091
5.66701
0.0217835
1.48078
0.0221114
0.0535619
0.0520915
0.0222453
4.77059
0.0236092
0.0909341
0.049714
0.0960654
0.0399071
0.0433315
0.022605
3.74547
0.0317019
7.56985
0.029868
0.0594247
0.0219983
0.0409976
0.022043
0.0800231
3.588
0.0227771
0.0218361
3.56515
0.0228532
3.41889
0.0225053
3.55962
3.23681
0.0339232
0.0219852
0.0219357
0.022109
0.0216401
0.0814028
0.0552036
0.0389376
0.0255411
0.0220831
0.613087
0.0236328
0.0329207
3.38921
0.0220292
15.0625
0.0453412
0.0313953
1.27078
4.06709
0.361757
3.59547
3.36821
0.0218884
0.355872
4.78465
0.345958
0.022174
0.0222206
0.102411
3.53948
6.2946
0.557591
0.0223959
0.0507311
0.0364902
3.65977
5.16441
0.0398526
0.106598
0.0238909
0.0740646
0.100448
0.0221657
0.0851178
7.02774
0.0221302
4.59669
0.0222538
0.0219969
4.80202
3.62894
0.0218479
0.0224812
0.022505
0.0218452
0.0474233
0.141673
0.0232642
0.0219857
0.0220985
0.0412117
0.0272154
0.0270243
0.343269
0.0220229
3.56335
7.41776
3.46709
0.152732
0.0462323
1.58318
0.0316734
3.5314
4.26453
2.99443
0.0224536
8.20595
3.89183
0.0217691
0.0220312
0.0887604
5.12132
8.86155
0.0218078
0.0220388
3.76335
3.2685
2.21201
0.0239237
0.0239327
1.83287
0.0222062
3.6246
8.26677
3.98599
1.32905
0.0220625
0.0219209
0.0218857
0.0261457
4.5942
0.0388827
0.0257343
0.0226405
0.0834249
6.43083
0.0413607
5.96286
5.33567
6.09436
2.16839
0.0220474
0.0221729
3.56984
0.0216734
0.0217027
0.0230831
2.84186
0.0345352
11.0407
0.104638
0.0220208
4.8699
0.036795
0.0218958
6.07957
0.169355
0.0251143
0.0221625
5.48154
4.78114
0.0221805
7.29149
4.68028
8.55441
1.32019
0.076297
0.0219305
0.0225887
1.61997
0.0253028
3.61903
0.0387474
1.23642
0.241882
0.0229066
0.0289738
0.0219323
0.0227155
5.75606
7.72943
0.0220698
4.95538
0.0404542
0.0220458
0.0248192
0.0219305
0.125795
0.0224817
2.32866
0.0511939
0.0219224
0.0218718
0.0960951
7.03227
0.0355846
0.023971
0.0396051
0.0220377
0.0231332
0.0272714
7.70381
4.7471
4.98772
0.0217261
0.0218656
0.0223867
0.137769
0.0218731
0.0224351
0.140747
0.0510092
3.90708
0.0216726
4.49454
4.6869
0.0222843
8.23973
0.0934137
0.0374062
2.05758
0.0223332
5.96161
0.0294629
0.0230806
0.0239222
0.02167
3.3628
0.0223948
0.0229394
0.0308148
3.97425
4.03833
0.0222468
0.0220232
0.0234937
0.0220237
0.103318
0.0224353
0.0691792
0.0236084
3.90577
0.0227862
3.44916
0.0217279
5.56454
0.0224389
0.0216554
9.43621
0.322301
0.114527
3.94151
0.0440822
0.0371242
0.0220449
4.56318
0.0220669
0.0218792
0.0874617
0.0701281
11.9571
4.58738
0.0947689
7.00562
0.103362
0.416988
0.0219553
0.0247892
0.0277179
3.6303
0.0248736
3.93887
5.15695
0.0222613
0.0220695
0.0220209
1.46348
3.31963
0.0234105
0.022108
0.0257009
0.0274824
0.0350622
0.292023
0.310453
0.0220642
0.617445
0.0721959
7.16238
0.0589075
0.0232993
0.0238307
4.64675
0.0218827
0.072582
3.53756
0.0227577
0.0252145
0.143539
0.136112
0.0227821
6.97412
0.0242639
0.27114
0.0442791
0.0302315
0.022837
4.66725
0.021858
0.0956996
1.47216
6.15885
0.0437598
0.059606
0.0258782
0.0474429
0.0222663
6.59687
0.0266777
0.0220272
0.0288453
0.0220921
0.0222693
2.89031
0.0220651
0.0221794
0.0220556
0.109468
0.0222501
0.0322389
0.0634436
0.203134
0.094005
0.022254
0.237452
0.478626
0.183265
0.0728369
0.0272948
0.121896
3.75368
0.575176
0.0222845
4.41623
3.55508
0.0222839
0.0240417
0.0216593
0.751296
0.0909331
0.0221026
1.30161
3.79758
0.0218089
0.0222184
3.59129
4.76277
0.0710113
0.0216739
7.25218
3.63276
3.34873
0.0220229
3.61726
0.0929189
0.0701504
4.73803
0.0258657
0.0216707
0.0289381
0.15828
0.0306586
3.55795
4.56702
0.0218311
6.41095
0.517998
4.60474
0.0217263
0.0516776
0.0222951
0.0219287
3.47075
2.54254
0.250279
4.64607
0.0291845
0.0442975
0.0221867
5.52667
6.62106
0.022051
0.0222974
0.0318285
0.0218493
0.0449472
3.47284
7.67162
0.0446589
0.0225099
0.0222185
3.48691
0.0250037
0.0456777
0.021811
0.0230199
0.656896
2.54196
0.452523
2.99093
0.0221714
0.238827
0.022254
0.0475742
10.8932
6.59262
0.0220699
0.022294
0.0369133
0.0257395
0.022194
3.48639
3.71934
0.0218071
0.0215393
0.0221913
0.021966
2.74773
0.0217647
3.57968
0.0812133
0.0714181
0.0218807
0.0461627
4.90072
0.0319906
0.449987
7.35146
0.0222664
5.94983
0.0331721
0.0354985
0.361794
6.1029
4.6031
0.0638443
0.0218978
0.246965
0.0217752
0.0252944
0.0222135
3.58985
0.0316368
0.717832
3.53828
0.0428742
0.022124
0.249417
0.0266785
0.0222705
0.263633
0.0216145
0.0426469
0.0321557
0.0221774
10.1134
0.0234122
0.582089
0.0228592
0.0219334
7.36868
3.7035
0.0241435
0.0325133
0.039549
0.0540244
0.0557391
0.0266352
0.0258932
0.0250836
2.18873
0.0250577
3.58013
0.0588044
3.67788
0.138813
0.0227336
3.52832
0.0216253
3.51501
0.0242408
4.53525
1.01406
3.59438
2.94236
0.259322
0.0754071
0.0220691
3.45217
0.0840848
0.0220442
6.93847
5.08816
0.0233024
0.023944
0.0297466
0.0297429
0.0314525
4.60448
0.022284
0.0314586
0.0351689
0.0320585
0.0221652
0.0800973
0.0216319
3.56906
0.0236768
0.107178
0.030478
0.0362502
0.113712
3.19182
0.0742044
0.0218431
0.237578
3.45704
25.0883
0.0224746
3.58078
0.0281445
1.82067
0.0220673
0.0245452
3.57724
0.0551865
4.94653
6.25274
0.0334589
4.53609
0.0219885
0.0216216
7.50731
0.0591665
0.0244557
4.24978
0.0265382
0.0454934
0.0292781
0.0635051
0.0222071
5.49745
4.25685
6.98566
0.263679
0.025269
0.0532054
4.8578
0.0240716
0.0223232
0.0758767
0.0217026
0.295776
9.69794
6.98602
5.94251
0.0513699
0.0225468
3.56386
0.0216143
0.064442
0.0222364
25.9892
0.0237993
0.0469559
4.11747
0.0926386
0.0220271
0.0319401
10.2297
0.0220775
0.11856
0.0218107
7.68166
4.05125
0.0933385
0.081397
0.0219506
3.04605
0.133142
0.0360547
0.0218146
0.0226054
0.0221474
0.0505949
0.0221229
0.0803427
0.0221267
0.0218253
8.03053
0.0218918
0.0264448
0.0253417
0.0222753
3.78032
0.0218829
0.0332673
3.51524
0.0524789
3.58156
0.0220623
4.96349
0.0549091
4.02037
0.0235963
0.111799
0.022257
0.0374031
0.114237
0.108411
0.191133
3.64971
0.171355
1.75903
0.0269748
0.0998546
0.0413808
0.414464
0.0250832
0.0221984
0.0220288
0.0483087
0.0454378
1.10974
0.0465492
3.61922
6.4362
0.101663
0.0220159
3.78796
0.201669
0.0224827
0.024093
0.0220753
4.21855
0.0220322
8.80711
0.0218775
0.0270094
4.41254
0.0764381
0.0220406
0.0220222
6.53025
0.0218904
0.0240831
0.025094
0.0320444
0.0271143
0.0221915
0.151654
0.0814481
0.0436871
0.233809
4.81177
3.85768
5.42498
0.0217411
0.0219846
0.100576
0.0225525
0.0468249
3.57923
3.99523
0.0216706
0.0220447
3.58875
0.546492
0.021686
0.021847
0.0265628
15.3784
3.52748
0.0261797
0.0330744
0.0222009
0.270145
0.119272
0.14166
0.0318071
0.043778
0.022417
0.0356017
0.27385
0.0227832
0.022196
0.026026
3.51183
0.025212
6.76752
0.0221065
3.644
0.0360329
0.0279403
0.0217798
0.0219232
0.777603
6.2397
0.0580008
4.60628
11.9149
0.022552
3.59421
0.170957
0.0218773
4.85284
3.19241
0.0928829
0.0222544
3.7763
4.62363
0.0220066
0.0391861
4.90148
0.0434422
0.0220613
0.0218161
0.022441
0.0239935
0.0688364
0.287661
0.0775171
0.0674669
0.0217289
0.02221
3.69099
0.021861
0.0462649
0.0266058
0.0222243
0.04439
0.0220213
0.0237571
0.240741
0.0219978
4.16217
0.0220168
14.4279
3.57168
0.0751376
0.0222704
0.0222928
3.68845
0.0216588
0.0241326
0.0223434
0.320276
0.437996
0.0319142
3.64043
0.0415478
2.53284
0.0225433
0.0598478
0.0218361
0.0221393
5.10534
3.77252
0.86033
0.0237636
0.0581209
0.0588392
5.4766
3.52817
0.212915
0.0369518
0.0216089
3.71953
0.0219468
0.0220072
0.227702
0.105214
0.0283051
0.200717
0.0470918
0.0313403
0.0271293
4.74981
0.0242937
0.0219912
6.51075
0.0468896
0.021731
3.89497
0.0220336
0.0221105
0.125999
0.143376
13.8532
0.0217464
0.0248144
0.0219146
2.27041
0.0218809
0.548659
4.74212
3.64889
3.87976
34.2911
0.0302811
4.0205
0.871769
0.0222111
0.0305833
0.043506
0.0304191
1.23167
3.87474
5.00549
3.56335
2.4583
0.0221652
0.088144
0.0220416
4.9377
0.0279176
0.0233403
0.0240457
0.0227393
0.0218895
0.0849561
4.99138
0.0217288
0.0236346
0.0218641
4.12738
0.0234978
6.24354
3.59019
0.868411
0.0220939
0.0218962
4.57124
0.38662
0.0221388
0.296683
0.0222295
0.128432
0.188364
0.0751545
0.0466715
5.91125
0.0218105
0.0218389
2.6789
3.71088
0.0286367
0.0454892
0.0219376
7.14415
0.0220078
0.0219526
0.0231775
0.0219939
5.81549
3.95643
3.82993
0.0677187
3.74938
0.339615
0.0216737
0.0304172
0.021712
1.27865
0.0220485
0.0248705
0.021994
0.0219185
0.0218133
2.90632
0.0230055
1.74049
0.0216215
0.0326599
0.0228458
1.57417
0.022044
0.0303849
0.0352835
0.0663771
9.22945
0.0219149
4.85037
0.0622614
0.0450162
0.0220484
0.0219447
3.89167
15.7605
0.0220651
0.0219185
0.241703
0.467151
0.0385098
3.50817
0.0227925
3.67667
0.0307575
0.0217167
5.10427
0.0232807
3.51013
0.0220262
0.0227313
0.0221197
4.2172
3.72462
0.0216887
0.244534
0.567776
0.0220611
0.0218982
0.0218891
0.266079
3.53077
0.0586738
0.0247506
0.0369742
0.0220269
0.0220492
0.0236787
0.0220037
0.147424
0.0220622
0.0624852
0.575466
0.0341627
0.0216339
3.57941
0.0622093
0.0220361
0.0733018
0.0296883
3.813
0.0245538
12.1639
0.0498847
0.0220067
0.0743385
0.0722544
0.0245551
6.79593
0.0599391
0.0317516
4.15909
0.0219505
0.143161
0.0887321
0.119333
0.0219383
0.0219782
0.0216554
0.033443
0.0536534
0.0511884
6.27355
4.6995
3.59092
0.0222676
1.88455
3.52081
3.49487
0.0219959
0.0220414
0.0472865
3.49008
0.0242101
0.0342603
33.427
4.80529
16.6234
0.115221
0.130337
3.62176
0.420725
0.0216322
11.3216
0.203525
0.0223708
0.0224179
0.0228587
5.69683
0.0814015
4.26605
0.0239566
2.10069
0.0221739
0.413125
4.35155
0.0222258
0.0328113
3.8518
3.74763
0.0493569
0.0229019
0.0237574
0.0223903
0.222607
0.124463
1.16274
3.49532
0.0217672
5.29547
0.151138
3.34296
0.0220301
0.0221656
3.31506
0.272539
0.0219615
0.0449581
0.0736464
0.0392632
3.57536
3.49876
5.26027
3.53795
0.0254887
0.0216883
0.0664781
5.23193
9.20941
0.0219904
0.277273
0.0900995
0.447549
0.0226355
0.0222574
1.22561
3.51957
1.07138
1.71111
4.63829
0.0219554
0.261411
3.54881
0.0222432
0.0626077
0.0837716
0.0216986
0.131616
3.71087
0.244112
0.0222563
5.54505
0.0922897
28.9945
0.0215232
0.0238735
0.0221964
0.0234282
0.0221606
0.050555
0.0399889
0.042327
0.332651
0.0325144
3.98376
0.0253317
0.0307183
0.0277184
7.65069
0.0580742
4.75067
0.0278613
0.0279192
19.0505
0.0974827
0.0220709
0.0422072
2.86426
4.24501
0.285611
0.0219848
0.0219157
0.0219509
0.752957
0.0232033
2.49885
1.31978
0.262997
0.0312028
0.201895
5.09845
0.0221594
7.06531
0.0334061
0.0512031
0.0219662
0.0219589
0.0466746
4.10358
0.0220806
4.82783
0.501844
0.0989075
0.158783
0.0218916
0.022022
0.0290766
0.0231211
27.4968
26.4822
0.0836418
0.784578
0.0219722
0.0221317
0.0222208
0.0222461
9.7226
0.0233067
4.3718
0.0870836
0.0226682
0.38268
1.29272
3.7168
7.70077
0.0236196
0.0218186
0.0221294
0.023867
0.732595
0.246313
5.99909
0.0221549
0.0225327
0.160929
0.0222602
3.4618
0.0237177
0.151919
0.173144
0.0410567
0.0394384
0.0217442
0.0421205
0.0378974
0.209112
0.0809373
0.0421799
0.0218672
0.238165
0.0218935
2.35745
3.52452
0.947002
0.0220733
0.109548
0.0220245
0.0435279
0.0230144
0.0228759
0.0282373
7.90314
3.51716
0.0796171
0.046478
0.223083
0.074239
3.57335
3.89053
0.0308695
3.82237
0.34271
0.0218719
0.0565725
3.68393
0.0970151
0.0222373
0.0481405
2.22678
0.289702
7.00523
0.0221969
2.457
0.0220993
0.0219314
0.0444268
3.80284
0.0222641
4.88458
6.87673
3.5331
12.5136
0.383325
5.77204
0.235415
0.0217397
0.0246652
0.0216775
0.0426319
0.192535
0.323091
0.0244025
0.0412733
0.021665
4.52612
0.0363786
0.0429984
3.48828
0.0994583
7.97902
5.10521
0.0219734
6.57856
0.0221185
0.0283959
0.0470303
3.49061
0.16009
0.0278817
0.0235184
0.579274
0.0330074
3.50527
6.40707
0.0325147
3.66641
0.0481252
0.0222732
1.16755
0.0569215
0.0230188
8.52637
17.2838
0.0290398
0.0260508
0.152074
5.92339
0.0219561
0.0222655
0.0216846
0.0217692
0.0223418
5.21847
0.0314604
3.70951
0.0219553
0.0219876
0.869139
0.0222493
0.0239331
0.0220539
0.0220283
2.82426
0.021788
4.86229
0.0220629
0.0231801
0.0405911
0.0221786
0.145642
0.0217996
0.0222655
0.021813
0.0271899
0.089676
0.0247652
3.5341
0.0219459
0.043396
0.0288994
3.89081
0.0227677
0.0222694
0.0217428
0.021709
0.313083
0.0219094
0.0219333
0.0245538
0.69208
0.0219341
0.0427451
0.0325499
0.0220235
3.85006
8.67003
3.60575
3.94312
0.0251083
0.112115
0.0221539
0.0997832
0.253123
0.0224019
3.86568
0.172318
3.84234
0.0307001
0.0220275
1.61147
0.0422907
0.750386
3.86232
0.0216068
0.0219814
7.3964
3.62712
0.0577808
0.0561675
0.0231081
12.6923
5.53169
0.0215278
0.0219614
0.0221597
0.0221739
0.0222492
0.0220359
0.0355587
3.5551
0.0308493
0.0221968
0.410546
0.0219828
0.802123
0.0458048
0.0221803
0.0270036
0.0219136
0.355339
0.0249176
0.0523234
0.0219601
0.0223103
4.2642
4.59602
0.0221778
0.0495828
0.044552
0.0308644
0.0239436
0.0222714
0.0229743
1.42497
0.530434
0.0448561
4.30667
0.0226212
26.4631
0.084491
0.0257208
13.461
0.0230908
3.45035
4.46133
3.80374
0.845994
3.62038
3.51699
0.0216811
0.026813
0.0247373
0.0216648
0.021777
0.0285341
0.0765891
0.0218125
0.0294588
0.108736
0.0749876
0.325596
3.27944
0.0324261
1.61747
5.47707
0.034006
0.0249131
0.151592
10.3944
3.62991
0.0255681
0.0216523
0.0218794
0.0218026
0.0305262
4.16965
0.354914
0.02179
4.24501
0.0219774
0.174194
3.55984
0.0818265
0.179204
0.0902474
0.323513
0.0228483
0.0333486
0.0218659
0.238218
0.0219662
0.0230161
0.0317631
0.187822
0.0221773
0.024463
4.79532
0.021818
0.0220882
0.02906
6.47818
0.093628
2.3693
0.0385229
0.02215
3.80553
0.0372174
0.0233181
0.022017
0.0304449
0.0264179
0.0220287
0.0293057
4.26303
0.0235959
0.0216781
0.0469436
0.0218812
0.0316931
0.0301348
0.0220634
0.0219916
4.9195
0.0217321
0.0220267
0.0216746
0.0257741
0.0214917
4.5421
0.0256389
0.183219
0.0219596
0.0219451
0.0221457
4.11922
0.072423
0.0220405
0.0216407
4.88153
0.0250841
0.0558552
0.0218576
0.116033
0.0234043
0.0215751
1.43465
0.0218102
0.0222668
0.022146
0.0220522
0.0241689
0.0221275
0.0220329
1.66375
1.51941
4.82856
3.18137
10.8081
0.0218722
5.32283
0.0219651
3.54663
10.4479
0.021798
12.3723
0.0219773
4.65856
12.6951
0.266113
3.68006
3.92351
0.802471
3.31415
7.7487
4.12954
0.0419899
0.0441119
4.431
0.0235245
0.0216807
0.480204
0.0238382
0.0282869
9.16784
0.023011
3.18516
3.90085
6.32709
0.290709
0.0993302
0.0222522
0.0282558
0.0483953
0.0223176
7.00592
0.346903
0.109583
0.0219166
0.0220692
9.41927
0.0217154
0.646703
0.0218802
11.1696
5.11359
0.0337151
0.0260782
0.0220024
11.501
3.5802
0.025439
0.0330549
0.022286
0.0222856
0.0566426
0.0231908
0.0320881
0.0654581
0.0242878
0.0325398
0.0220365
0.0320254
17.4133
0.0226339
9.86603
0.0219975
3.57549
0.0547325
0.0220333
4.68464
0.117527
0.0218558
0.155249
0.0220361
0.511306
0.0222024
0.0220043
3.5897
0.0221453
0.0836369
0.0233911
0.130623
0.0218745
0.0223474
0.021858
0.0300984
0.0242587
0.0223086
0.0226175
0.0253677
0.0224641
0.122698
0.0631964
0.0320084
0.0233595
0.0216645
2.33026
3.07464
0.0227905
0.0225443
0.0226664
0.0372776
0.0222505
0.0342201
0.0215875
0.0222853
0.350564
0.0233514
0.0222847
0.0219009
4.66214
13.1896
0.0216134
0.0692212
0.0590796
0.19494
2.78419
8.12274
4.69541
0.577849
0.0229941
0.130693
0.021926
0.0313984
9.45048
4.38579
0.134426
0.0239225
17.2804
0.0220363
0.0447996
0.340669
0.0222335
0.146275
0.0234866
0.0232905
0.0675602
0.170752
3.57653
3.83888
0.0218266
0.0216216
4.79088
4.17674
0.0222458
0.0290494
0.121411
0.0220615
0.0220129
0.0240953
3.37898
0.0217819
3.87508
0.0294875
0.0222712
3.07126
0.0830559
0.0779342
0.102565
4.59424
0.0244419
0.0327541
0.0272509
0.0237861
11.8631
0.0309396
3.61153
3.70107
0.065219
3.51917
0.0443122
0.0467747
0.338032
0.0217401
4.37212
0.0736148
0.0334686
0.0290877
0.0221781
0.021692
3.56792
0.0418825
3.54659
3.68983
0.0221145
3.81096
0.0218355
0.0219549
0.0287374
12.9712
0.0733186
0.0217229
3.58384
0.0219906
0.0238354
3.50428
0.0236961
3.93065
0.0222733
4.95424
0.531978
0.0694033
0.816921
0.0234075
3.8428
0.0216556
5.17717
4.73706
4.70959
6.45727
0.0219435
0.0218621
0.221843
3.51582
3.67139
4.34296
4.32236
0.0221711
6.36238
3.88365
0.0224281
1.17971
0.0315969
0.0322966
11.8828
0.0378552
3.51239
0.0219138
0.0374661
0.0327544
0.17467
8.1063
0.0363955
4.05273
3.55949
0.0221724
0.0246471
0.0238314
0.0247304
3.69317
0.0220083
0.0217698
0.0389855
3.52905
3.48458
0.0275667
4.31503
3.48258
0.0219624
10.8014
4.15227
0.151526
4.47725
0.060698
0.0244081
0.0221726
0.146003
0.0261097
0.070537
11.6454
4.64575
0.0289874
0.0696896
0.0258055
0.0413428
0.021665
0.0437325
0.0247186
0.079334
3.61746
1.64176
3.9151
0.0216982
0.167475
0.0611937
3.85009
0.0232181
5.71322
3.62014
3.73805
0.0222478
0.173254
5.14457
11.3171
9.92424
0.0360932
5.00183
1.06579
0.0578596
0.0615504
0.0240556
0.0291928
5.92806
0.0452869
0.0221869
3.67131
0.0220898
0.0223571