/*--------------------------------*- C++ -*----------------------------------*\
| =========                 |                                                 |
| \\      /  F ield         | OpenFOAM: The Open Source CFD Toolbox           |
|  \\    /   O peration     | Version:  v2012                                 |
|   \\  /    A nd           | Website:  www.openfoam.com                      |
|    \\/     M anipulation  |                                                 |
\*---------------------------------------------------------------------------*/
FoamFile
{
    version     2.0;
    format      ascii;
    class       volScalarField;
    location    "300";
    object      k;
}
// * * * * * * * * * * * * * * * * * * * * * * * * * * * * * * * * * * * * * //

dimensions      [0 2 -2 0 0 0 0];


internalField   nonuniform List<scalar> 
13917
(
0.0176305
0.000177678
0.000233687
0.000151535
0.000163751
0.000177767
0.000161371
0.000237687
0.000158817
0.00224866
0.000205849
0.000149493
0.000167057
0.0282842
0.00016602
0.0144649
0.000148626
0.000195456
0.000199337
0.0140034
0.000171008
0.000149104
0.000178197
0.00014911
0.00015518
0.000172752
0.00303238
0.00128929
0.000180317
0.000136115
0.0012197
0.000187236
0.000151839
0.0295849
0.00014631
0.000223536
0.000157372
0.00016117
0.000161453
0.000175858
0.000148105
0.000146258
0.000155988
0.000198458
0.000198203
0.000155456
0.000169324
0.0200273
0.00138207
0.0001464
0.000149272
0.000197304
0.00846161
0.000149173
0.000149663
0.000197066
0.000231734
0.000178138
0.000145786
8.91081e-05
0.0244875
0.000178617
0.000143663
0.000154646
0.0269881
0.000924695
0.000183384
0.000229502
0.000203431
0.0175377
0.0140439
0.0274969
0.00014878
0.000144926
0.000172201
0.000156547
0.000156611
0.000144448
0.000155999
0.000152122
0.000152048
0.000149295
0.000148624
0.0157087
0.000142148
0.000167641
0.000186371
0.000146226
0.000175385
0.000148495
0.000140252
0.00015633
0.00099204
0.00014429
0.00015201
0.000183544
0.001877
0.000151345
0.000145337
0.00022476
0.000145925
0.000144988
0.00015229
0.000145868
0.000156304
0.0222686
0.0244516
0.000180225
0.000147644
0.00753157
0.000145111
0.0304854
0.000180507
0.0205567
0.0262514
0.000157537
0.000197858
0.000141822
0.000214809
0.00014763
0.000149096
0.000143282
0.000187601
0.000193704
0.020042
0.0198412
0.000154118
0.000173967
0.000144721
0.000194104
0.00016786
0.000181478
0.0439889
0.000157478
0.000190957
0.0104742
0.022156
0.0217669
0.000174653
0.000160667
0.0107799
0.000143803
0.0211815
0.000144333
0.000148069
0.000160628
0.0135264
0.00277521
0.0173451
0.000149459
0.000172716
0.00014431
0.00014779
0.00014768
0.00302063
0.000151715
0.000145324
0.0451656
0.000146247
0.000143271
0.000142514
0.0314388
0.000161237
0.0101015
0.0257708
0.000262389
0.00743168
0.0259044
0.00013105
0.000176575
0.000149728
0.0410776
0.000158693
0.0239821
0.000188844
0.000145085
0.000151507
0.000199466
0.000167111
0.000162021
0.000155807
0.000149284
0.000149288
0.000220135
0.000215215
0.000188614
0.000149085
0.000226821
0.000136094
0.000255873
0.000189289
0.000196391
0.000202157
0.0175437
0.000144321
0.0203063
0.000160593
0.0434773
0.000146037
0.000150962
0.000166819
0.0172419
0.0187027
0.000156459
0.00312971
0.000170894
0.00017328
0.000143798
0.000199151
0.000152039
0.000141375
0.000177254
0.000182542
0.0185595
0.000190328
0.000174527
0.0327814
0.000155039
0.000137312
0.000137217
0.0251197
0.000207481
0.000109336
0.000143606
0.000144358
0.0170296
0.0173821
0.000136552
0.000136401
0.000148049
0.000137604
0.000137529
0.0258274
0.0200241
0.000150179
0.000131283
0.000189399
0.0261245
0.000147224
0.000143579
0.0038947
0.022753
0.000222267
0.0329221
0.00019513
0.000144378
0.0256145
0.000190353
0.000178205
0.000190189
0.000155855
0.01912
0.000147886
0.000177441
0.000186921
0.000150651
0.000148547
0.000154546
0.000162061
0.000146296
0.0261438
0.015835
0.000143478
0.000136313
0.000152145
0.000136348
0.000147901
0.000167594
0.000172589
0.000144011
0.0261462
0.0260198
0.000147161
0.000157725
0.000977308
0.000136733
0.000209367
0.0293142
0.00013681
0.0215283
0.000145739
0.0311245
0.000145732
0.000162873
0.000150991
0.000144101
0.000205806
0.000154967
0.000183176
0.000164505
0.0152171
0.000163769
0.000398353
0.0215168
0.000143972
0.000181658
0.000162144
0.000158228
0.000162783
0.000155826
0.000144723
0.000153251
0.000199377
0.00023726
0.000176482
0.000155422
0.00014346
0.0448765
0.0146445
0.000144011
0.00018643
0.000158278
0.00162317
0.00020206
0.0273606
0.0245126
0.0010589
0.000220949
0.00015715
0.0124847
0.00304428
0.000229315
0.000166191
0.000165363
0.00238405
0.000150721
0.000180269
0.000196094
0.00014785
0.0405613
0.000142553
0.000174626
0.000139114
0.00658388
0.00013973
0.00017454
0.000171641
0.00083199
0.000147399
0.000190265
0.0166131
0.000151546
0.00015071
0.0325243
0.0182105
0.0281015
0.0278759
0.000136457
0.000150069
0.0245554
0.000215112
0.000136582
0.000162783
0.000149174
0.000188247
0.000175284
0.000197168
0.000196393
0.000209618
0.000174463
0.0253836
0.000145075
0.000151561
0.000167148
0.000215357
0.000147601
0.0155473
0.000174192
0.00268285
0.000149946
0.000201934
0.000184489
0.000483352
0.000146315
0.00012962
0.00123566
0.000173546
0.000147497
0.00224471
0.000140339
0.0257836
0.000203876
0.000146273
0.000602624
0.000152345
0.00117332
0.000140232
0.0155193
0.000986168
0.000156201
0.0195377
0.000203495
0.00015484
0.0300459
0.000234366
0.000155066
0.000205985
0.000149585
0.000206484
0.00023268
0.000142776
0.000160265
0.000155296
0.000143735
0.000140743
0.000145509
0.0222367
0.000248976
0.000150704
0.00014595
0.000148236
0.000181157
0.000198256
0.000137676
0.000131183
0.000201508
0.000202533
0.000144482
0.000155796
0.0261347
0.0331455
0.00174505
0.000200777
0.00709367
0.000141126
0.000137262
0.000167414
0.00014063
0.000137749
0.000150528
0.000137363
0.000140769
0.0242181
0.000149893
0.000178147
0.0283111
0.000181526
0.000141635
0.000147534
0.030538
0.00016696
0.0172435
0.000138613
0.00014391
0.000140924
0.000137903
0.000157022
0.000152915
0.0255181
0.000148873
0.0248588
0.000143874
0.000170511
0.000186528
0.000151674
0.000194175
0.0281727
0.000148932
0.0353967
0.000142015
0.000144146
0.0001479
0.000152445
0.000140827
0.00015107
0.044447
0.0243407
0.000140592
0.000435722
0.000201111
0.000148563
0.000183564
0.000188767
0.0292056
0.00016142
0.0226769
0.0024826
0.00269574
0.000153016
0.000786916
0.000200208
0.000155417
0.0159867
0.000141455
0.00014882
0.000152013
0.000159576
0.000170466
0.000209206
0.000182171
0.000155368
0.000159077
0.000194793
0.000185783
0.00015071
0.0256008
0.000171855
0.000164445
0.0260829
0.000142209
0.000186738
0.000202776
0.000139957
0.0435255
0.000145008
0.00013788
0.000181952
0.000138665
0.000153212
0.000199513
0.0479124
0.0295146
0.000142398
0.000152142
0.000152347
0.0123406
0.0111726
0.000150171
0.000149457
0.000142136
0.000185043
0.00586446
0.000145236
0.0001473
0.000150574
0.000143389
0.000160868
0.000164308
0.000143013
0.000182596
0.000139972
0.000148507
0.000154922
0.0278656
0.000136783
0.000155739
0.000146316
0.0001696
0.000187163
0.000190922
0.000187906
0.000233896
0.00015425
0.000187488
0.0421306
0.0231503
0.0318556
0.000143337
0.000147591
0.000161115
0.000145474
0.027359
0.000137136
0.0097495
0.000160511
0.0343664
0.000213413
0.000156054
0.00961718
0.000140558
0.000185338
0.000151166
0.000149852
0.0367318
0.000138143
0.000225949
0.000145137
0.000155696
0.000147923
0.000207265
0.000162076
0.000135923
0.000198707
0.000183002
0.00939552
0.00886237
0.0458472
0.0281421
0.000136842
0.018013
0.000139939
0.0228539
0.00345034
0.0001522
0.000184382
0.000145589
0.000171446
0.000155287
0.000138208
0.000151197
0.000165695
0.00516933
0.000142954
0.000184762
0.000148531
0.000135796
0.00014625
0.000146005
0.0234693
0.00868786
0.000188855
0.000164014
0.000524018
0.0274514
0.000140622
0.0236888
0.000163914
0.000195839
0.000145477
0.00193724
0.000143121
0.000163052
0.000148329
0.00963594
0.000172666
0.0302156
0.000143615
0.0001715
0.000146326
0.000146335
0.0265488
0.000269988
0.000147195
0.000199096
0.000143459
0.00014835
0.000145332
0.0288612
0.000142968
0.000162423
0.00013707
0.000146746
0.000215463
0.000144578
0.000197992
0.000150252
0.000139821
0.0237733
0.000185461
0.000149824
0.00924369
0.000222828
0.000225968
0.00020324
0.000140346
0.000167695
0.0257716
0.000232376
0.000166222
0.000157341
0.00016441
0.000149726
0.00014541
0.00185939
0.000188697
0.000159107
0.0259996
0.000173085
0.000186487
0.0144672
0.000250726
0.000172788
0.000201835
0.0232181
0.000144763
0.000188677
0.00207387
0.000139902
0.000144915
0.000146291
0.000157728
0.000153789
0.0182948
0.000169522
0.000143176
0.000194437
0.000143
0.0290242
0.000145709
0.000144732
0.046883
0.000185741
0.00272061
0.000149255
0.000142225
0.000144518
0.000150921
0.000163567
0.000144172
0.0192473
0.000167196
0.00769734
0.00258419
0.000186607
0.0461594
0.000152212
0.000150997
0.000146629
0.0308077
0.0251029
0.00016127
0.0194543
0.00428083
0.000139849
0.000144369
0.000157151
0.0200192
0.00325961
0.000173034
0.000150775
0.000155766
0.00019663
0.000155873
0.000197197
0.000169794
0.000151715
0.00015225
0.000150515
0.000163418
0.000159525
0.000228592
0.000159057
0.000158435
0.0190417
0.000140668
0.00576618
0.000156667
0.000171586
0.000160123
0.000229243
0.000148952
0.000183809
0.0212845
0.00291793
0.000145715
0.000159057
0.000158404
0.000144267
0.000148079
0.000175962
0.0001512
0.000196692
0.00019797
0.000140093
0.000160983
0.000158735
0.000159681
0.000200011
0.000150494
0.000185351
0.00023728
0.000135928
0.000185688
0.00019222
0.000169473
0.000143349
0.000141096
0.000145372
0.0152188
0.000151657
0.000146425
0.000174231
0.000144503
0.000142322
0.000196181
0.000184395
0.000194313
0.0329649
0.000185222
0.0259176
0.000148067
0.000157517
4.19075e-05
0.000152335
0.000208022
0.000147184
0.000144443
0.000149205
0.000159975
0.000192934
0.000143323
0.00232563
0.00014986
0.00485375
0.000156695
0.000161232
0.000139147
0.00019038
0.000163546
0.0306319
0.000199157
0.000149519
0.0272201
0.000152623
0.0245281
0.000154764
0.000265412
0.000154741
0.000142629
0.000145438
0.0386531
0.000163357
0.00022559
0.0356313
0.000144149
0.000169832
0.00013113
0.000163676
0.00253242
0.000131481
0.0247012
0.000155863
0.000266883
0.000197068
0.000368789
0.000137438
0.000145032
0.000197671
0.000140309
0.000148927
0.000154442
0.000147278
0.000174421
0.000137292
0.000258292
0.000151738
0.0168935
0.0243227
0.0015143
0.02683
0.0348689
0.0150964
0.00113602
0.000139368
0.000147795
0.000147336
0.000152722
0.000142238
0.000163562
0.000143839
0.000187616
0.000149214
0.00135763
0.00015132
0.000165726
0.000196369
0.000143818
0.000178139
0.000152638
0.000150998
0.000160416
0.000140315
0.0480833
0.000189874
0.00272055
0.000144028
0.000145111
0.00015007
0.000150272
0.0262067
0.000139567
0.00025984
0.000142832
0.00273686
0.00016235
0.000144177
0.000184623
0.000178252
0.000139698
0.00268188
0.0207752
0.000157488
0.000190442
0.000140251
0.000234713
0.000141394
0.000150225
0.0227438
0.000146927
0.00015183
0.000194025
0.0213012
0.000143507
0.00151645
0.00119701
0.00014698
0.000153708
0.000147614
0.00484309
0.000144834
0.000200304
0.000148741
0.0445358
0.000163107
0.0190085
0.000145938
0.000136642
0.00143846
0.00015759
0.000140284
0.0401573
0.000154299
0.000140808
0.0100493
0.000146903
0.000147749
0.000188388
0.00015472
0.0286255
0.000176246
0.000188762
0.000200036
0.00015562
0.0428513
0.000152609
0.000187033
0.000144305
0.0281808
0.00291865
0.000149538
0.000141643
0.000148618
0.00015017
0.000140686
0.000141317
0.000143863
0.000145192
0.000165012
0.000135931
0.000153788
0.00018885
0.0250698
0.0311299
0.000192355
0.000150104
0.00169748
0.000143197
9.20485e-05
0.00456814
0.00680845
0.000137584
0.000139473
0.00014688
0.000148486
0.000137354
0.000140919
0.000143605
0.000173692
0.00014087
0.00982263
0.00565894
0.000141565
0.0376939
0.000144435
0.000145554
0.000178212
0.0296889
0.000188695
0.000144218
0.00288039
0.000145319
0.000145571
8.25297e-05
0.00014829
0.0108515
0.000152143
0.000293349
0.000141657
0.000143628
0.000167366
0.000247762
0.000153972
0.0299642
0.000185408
0.000158222
0.000154317
0.000145198
0.000140845
0.000194002
0.000168697
0.000158749
0.0334033
0.0126679
0.000242809
0.00019525
0.000143483
0.0329474
0.000143264
0.0243187
0.000185812
0.000160395
0.000153411
0.0219762
0.0324337
0.00567986
0.000146726
0.00546027
0.000140823
0.000143856
0.000169678
0.000151428
0.000148506
3.76295e-05
0.0210539
0.000143645
0.000161348
0.0259697
0.000144659
0.00013658
0.0104946
0.0311199
0.000152313
0.00014052
0.000160836
0.000147313
0.000145202
0.000175898
0.000160642
0.000146985
0.00657865
0.000147903
0.00132739
0.00326623
0.000180814
0.0284734
0.000149429
0.000151099
0.000329818
0.0209513
0.00083357
0.000197175
0.000168419
0.000150125
0.000152284
0.000143213
0.0306288
0.00017309
0.000151343
0.000181469
0.000143962
0.0028877
0.000189713
0.000199631
0.00018336
0.000182098
0.0038418
0.0246357
0.0378584
0.000160876
0.000289968
0.000136778
0.000184393
0.000190043
0.00217586
0.000157747
0.000149945
0.000159558
0.000216534
0.000154733
0.0284639
0.00017084
0.000193159
0.0264743
0.000144171
0.000195645
0.000155573
0.000148818
0.000164958
0.000804929
0.000137697
0.000139608
0.000153526
0.0123103
0.000140885
0.000154404
0.0001552
0.000152555
0.000147803
0.000195674
0.000186978
0.000151333
0.000143671
0.000226088
0.000261015
0.000174578
0.0438823
0.000149677
0.000144693
0.0296498
0.000146452
0.000154981
0.0380248
0.0299854
0.00016705
0.00018462
0.000161363
0.0154443
0.000269189
0.000169132
0.0105342
0.000144845
0.000190079
0.026509
0.000216801
0.00597993
0.000401498
0.000140578
0.000148201
0.000166709
0.000148014
0.000148798
0.000230561
0.000147148
0.00017772
0.000137621
0.000182454
0.0305196
0.000154868
0.0149284
0.0357807
0.000144796
0.000189235
0.000161501
0.000153908
0.000144379
0.0326607
0.000188271
0.0229689
0.000162921
0.0264784
0.000193228
0.000142226
0.00231801
0.000170919
0.000153339
0.000144453
9.37409e-05
0.000144412
0.000159906
0.000172666
0.000160238
0.000150263
0.000182349
0.0159498
0.000142662
0.000210382
0.000236158
0.000148961
0.000142976
0.000159316
0.00594719
9.64655e-05
0.000141947
0.000164816
0.000177567
0.00050843
0.0185653
0.000148091
0.000140804
0.00014052
0.000145224
0.000169039
0.000156756
0.00703157
0.000150637
0.000156986
0.000696831
0.000203477
0.000192043
0.0316662
0.0265695
0.000149376
0.000146182
0.000140392
0.000153446
0.000187097
0.0470149
0.00235216
0.00019717
0.000166111
0.000179962
0.000155064
0.000242925
0.000159396
0.000197909
0.000144365
0.000233706
0.000233155
0.0001409
0.00014902
0.0349394
0.000180171
0.000457086
0.0249918
0.00019925
0.000144494
0.000778761
0.000161786
0.000142793
0.0267669
0.00670993
0.000144451
0.000166804
0.000196581
0.000170508
0.000151722
0.000137141
0.000143159
0.000141368
0.00014408
0.000165455
0.000183384
0.0235063
0.00017115
0.000159732
0.000166531
0.000192409
0.000143341
0.000170592
0.000130543
0.00022991
0.0249475
0.000154112
0.000137014
0.029562
0.000141724
0.000762842
0.000153791
0.000178387
0.000150361
0.000142141
7.57402e-05
0.000160678
0.000153868
0.000144984
0.0221806
3.85288e-05
0.0272316
0.000149208
0.000148082
0.000405362
0.000143392
0.000141294
0.000204037
0.007677
0.000161918
0.000168971
0.000151462
0.0105811
0.000142969
0.000157375
0.000150235
0.000136844
0.000227591
0.000143028
0.000141105
9.71069e-06
0.000183374
0.0189139
0.00022423
0.000142429
0.000165404
0.00014234
0.000144155
0.000154456
0.000153192
0.000148621
0.000213202
0.000147975
0.000188348
0.000163238
0.000185942
0.000147562
0.000155101
0.000145053
0.0336294
0.000137601
0.000203855
0.00018762
0.000156009
0.000180917
0.000168801
0.000165757
0.000147818
0.000165041
0.000141484
0.000140899
0.00315294
0.00017358
0.000169061
0.000145191
0.0001457
0.000142766
0.000198369
0.000143881
0.032594
0.000178296
0.000144037
0.000143246
0.000139307
0.000178228
0.000414448
0.0327735
0.000205447
0.0028457
0.000175119
0.000194305
0.00015693
0.0278986
0.00013759
0.000137268
0.000158583
0.00334433
0.000139579
0.033519
0.00014853
0.000145917
0.000203759
7.30335e-05
0.0160748
0.00281207
0.000159728
0.000218582
0.000478758
0.000141022
0.0283967
0.000144502
0.000145044
0.00851549
0.000138505
0.034538
0.00127607
0.000142604
0.00014544
0.000141277
0.044661
0.000146696
0.000137134
0.000189497
0.000142503
0.000142023
0.000144327
0.000141101
0.000177148
0.000148839
0.000155639
0.000139014
0.00022003
0.000213411
0.000139182
0.000139266
0.000152089
0.000143142
0.000155911
0.000149558
0.000145206
0.000149001
0.000144809
0.000152958
0.000147063
0.000190419
0.000139305
0.00019048
0.000148609
0.000181391
0.000141588
0.000148443
0.000144085
0.000137923
0.000172994
0.000162288
0.000158102
0.0208818
0.000287547
0.0439861
0.0317744
0.000190669
0.0285222
0.00014841
0.000146727
9.61221e-05
0.0242722
0.000143234
0.0271244
0.000140221
0.000199876
0.00209047
0.000155689
0.000190729
0.0286565
0.0267481
0.000145069
0.000178182
0.00014178
0.000266405
0.000156761
0.037523
0.0153048
0.000149236
0.000212736
0.000136263
0.000149218
0.0111892
0.00315741
0.000154895
0.000140799
0.00279361
0.030388
0.000140987
0.000166959
0.000150316
0.000168393
0.00019934
0.000148194
0.000141953
0.00257485
0.000143803
0.000144825
0.000150989
0.000139802
0.00411942
0.000167545
0.000163555
0.0343591
0.000144103
0.000188805
0.000148605
0.00277662
0.000183366
0.000410455
0.000141243
0.00016223
0.000142475
0.000147617
0.000155472
0.000147482
0.0156322
0.000153426
0.000140283
0.000142735
0.00340129
0.000140697
0.002348
0.0228572
0.0083427
0.00014781
0.000142647
0.000143138
0.00216603
0.000149868
0.0160198
0.000145684
0.00497379
0.000154554
0.000150952
0.0001113
0.000148654
0.000148525
0.0291118
0.000197296
0.0331743
0.000147813
0.0331906
0.0356693
0.000148198
0.0298762
0.000149205
0.000160627
0.026132
0.00015606
0.000173948
0.0224836
0.000165241
0.000186973
0.000147253
0.00751812
0.000144752
0.00185647
0.000143068
0.0210895
0.000144943
0.00014561
0.000154238
0.00572429
0.000142986
0.000245965
0.000190142
0.0234948
0.000143791
0.000164973
0.0393232
0.000214211
0.00384196
0.000189348
0.000141585
0.00019609
0.00291119
0.000157164
0.00165195
0.000136937
0.000201187
0.0165904
0.000143459
0.0187152
0.000143267
0.0293222
0.00297514
0.000156357
0.000155063
0.00189869
0.00780179
0.000144743
0.000153543
0.000140021
0.000148374
0.0216019
0.000186558
0.000129974
0.000148423
0.000162595
0.035269
0.000168891
0.000887789
0.00492485
0.00014213
0.000144172
0.000213162
0.024975
0.0115279
0.0036802
0.000215159
0.000174952
0.000228293
0.036418
0.0276021
0.00692692
0.000140803
0.000189911
0.000177666
0.000189207
0.000146561
0.000159598
0.0001853
0.000241724
0.00619514
0.000147608
0.00950006
0.0332282
0.000176394
0.000144445
0.000144559
0.000236789
0.000143115
0.0457278
0.000163531
0.000146551
0.000212315
9.25872e-05
0.00013908
0.000171418
0.000164833
0.000146838
0.0431952
0.000167119
0.0469947
0.000143406
0.0310935
5.7462e-05
0.000214585
0.000137938
0.000161184
0.000165926
0.000302215
0.000197448
0.000187057
0.0220951
0.00045058
0.000132012
0.000160003
0.00014947
0.000198836
0.0173442
0.000141373
0.00013887
0.000153499
0.000469258
0.000289111
0.000143828
0.000182553
0.000218376
0.000140751
0.000128523
0.000156883
0.0460848
0.000164153
0.00345568
0.0178408
0.000163283
0.000158136
0.0010954
0.00014294
0.000178655
0.0251602
0.00016785
0.000204695
0.00016611
0.00018327
0.0243011
0.0317726
0.000147022
0.00107495
0.000312258
0.000138536
0.000201828
0.000186521
0.000199772
0.0121783
0.000118677
0.00279477
0.000194983
0.0263774
0.000161852
0.00018591
0.000140328
0.000149062
0.000147577
0.000141261
9.5204e-05
0.00024998
0.000137702
0.000180242
0.000208416
0.000142754
0.00678676
0.0294795
0.000136355
0.000149585
0.000141205
0.000153129
0.000176697
0.00014474
0.0264532
0.000164619
0.000187826
0.000160798
0.000188551
0.000220554
0.000170882
0.00860954
0.000146893
0.000153545
0.000137382
0.000142928
0.0383756
0.000194267
0.000164249
0.0264223
0.000148819
0.000151129
0.000166943
0.000140562
0.000143863
0.000194211
0.000159101
0.0255457
0.019983
0.0231539
0.000147322
0.0214441
0.000143793
4.52296e-05
0.000138909
0.000203358
0.0219684
0.000145511
0.000328759
0.0257765
0.00016838
0.000153078
0.000142411
0.000163103
0.0267444
0.00013956
0.000149474
0.000153833
0.000162125
0.000213247
0.000155836
0.000159705
0.000141919
0.000152932
0.0012283
0.000169832
0.000156438
0.00019893
0.000233555
0.0377379
0.00137598
0.000159633
0.000152844
0.0249504
0.000146942
0.000186335
0.00014792
0.0221671
0.000149322
0.000149949
0.000169015
0.0311153
0.000144109
0.000141242
0.000137404
0.000204288
0.0113927
0.000197075
0.000144715
0.000156849
0.000140942
0.0341979
0.000144601
0.00379121
0.000182829
0.000148821
0.000144644
0.000170896
0.00324676
0.000150437
0.000141253
0.000166215
0.000174041
0.000204998
0.000149067
0.000150687
0.000148849
0.0315021
0.000146709
0.000152786
0.0304645
0.000154651
0.000189084
0.000157571
0.000144356
0.000145218
0.00304417
0.000154626
0.0274479
0.00336785
0.000134622
0.0271965
0.000150324
0.000194446
0.000181266
0.000154018
0.000138257
0.000134375
0.000144653
0.00100378
0.00017841
0.0333451
0.0286659
0.000141718
0.000130618
0.000174779
0.00139682
0.000144996
0.00453681
0.0330923
0.0173084
0.000144156
0.000154029
0.000150803
0.000681923
0.0375893
0.000146012
0.000145335
0.000165715
0.0259759
0.000148598
0.000154217
0.000154526
0.000199262
0.000122795
0.00013769
0.0310839
0.000167281
0.000144325
0.0217217
0.000182761
0.0279219
0.00022859
0.000168363
0.000161246
0.00015373
0.00016152
0.000151471
0.000192437
0.000181421
0.000145239
0.00015721
0.00022976
0.019925
0.000139375
0.000196627
0.0216265
0.0104159
0.000145847
0.000147494
0.00319383
0.00855586
0.000223735
0.000144598
0.023031
0.000186062
0.000135439
0.0231353
0.000162457
0.00014932
0.000104185
0.00014728
0.0001858
0.0001423
0.000133263
0.000148163
0.000137377
0.02709
0.000137594
0.000142534
0.000189744
0.00015785
0.000158098
0.00020246
0.000147937
0.000144793
0.000154112
0.000152658
0.00286102
0.00288376
7.91531e-05
0.000353972
0.000176442
0.00233595
0.000204536
0.0323241
0.022517
0.028131
0.000141414
0.000165583
0.000145191
0.000148223
0.000143393
0.000149038
0.000212054
0.000183561
0.000174054
0.000142529
0.0001442
0.000181924
0.000149431
0.00015044
0.000148035
0.036614
0.000167333
0.0137992
0.000147083
0.00323133
0.000150985
0.000149589
0.000151248
0.000175555
0.00014258
0.000191056
0.0303612
0.000177188
0.028365
0.00347034
0.000155938
0.000162502
0.00218008
0.000196334
0.000138767
0.000143003
0.000134615
0.0285773
0.0001332
0.000217503
0.000207572
0.000189573
0.0274643
0.0167942
0.000186071
0.044619
0.000141127
0.000137183
0.000778159
0.0122672
0.00014621
0.000147228
0.000303464
0.000140901
0.000224435
0.000156396
0.000144303
0.000159497
0.000146643
0.000188068
0.0293442
0.0268773
0.00015787
0.000146409
0.000195817
0.000153031
0.000191287
0.000141066
0.000203219
0.000193409
0.000150411
0.000148979
0.000135124
0.000202861
0.000231971
0.000214918
0.00497512
0.000165623
0.0142377
0.000189071
0.000198017
0.0261802
0.000143987
0.0296222
0.000152241
0.0364372
9.28951e-05
0.028759
0.0241784
0.000149735
0.000182689
0.000915713
0.000147419
0.0223158
0.000147602
0.000146838
0.000159581
0.000151096
0.000165685
0.0001621
0.0024494
0.026198
0.000159926
0.000175968
0.000153115
0.000149426
0.000148293
0.000199508
0.000192592
0.0235691
0.000178864
0.000138061
0.000140048
0.000150798
0.00023185
0.000157223
0.000151889
0.000158765
0.000204345
0.000166554
0.00017495
0.000181825
0.0311271
0.000165083
0.00016787
0.000145009
0.00015969
0.000527129
0.00200642
0.000180791
0.000140561
0.0235845
0.000168482
0.00014424
0.000179583
0.0328519
0.00509065
0.000169348
0.000141016
0.0277417
0.000150721
0.000140819
0.000138415
0.00940056
0.00150354
0.000155857
0.0136927
0.0192414
0.000168724
0.000180851
0.000185176
0.0468844
0.000166684
0.0365223
0.000150866
0.000505923
0.000164536
0.0378316
0.000168793
0.000142166
0.0360649
0.000146593
0.000152354
0.0339012
0.0144062
0.000214659
0.000733616
0.000156802
0.000153141
0.00474608
0.000144175
0.000142633
0.000146927
0.000178106
0.000144815
0.000168266
0.000168425
0.00491006
0.00333945
0.000151367
0.02293
0.000167316
0.0340215
0.0287258
0.000146782
0.000149197
0.00015881
0.000236159
0.000211546
0.00018675
0.0322193
0.0300115
0.000891185
0.000150896
0.0106681
0.0230458
0.000214091
0.000717029
0.000148696
0.000146582
0.000146852
0.000152906
0.000143401
0.000168198
0.0274714
0.000170029
0.00340376
0.0207734
0.00856085
0.0230164
0.037933
0.000166299
0.0408722
0.000195406
0.000189313
0.000138732
0.000147751
0.000187292
0.0250812
0.000152073
0.0289233
0.0370035
0.000142065
0.000147776
0.000147063
0.000197845
0.000151159
0.000188462
0.029521
0.000139141
0.000143907
0.000141649
0.000151903
0.000195592
0.0293289
0.000171353
0.0147633
0.000196423
0.000142885
0.00327149
0.000202608
0.000147871
0.000143598
0.00195251
0.0235339
0.00410119
0.026658
0.000146938
0.00724805
0.0310239
0.00020772
0.0149998
0.000143327
0.000155108
0.000156469
0.000154698
0.0231739
0.000186628
0.000149038
0.000162148
0.00380614
0.0311159
0.000150524
0.000156506
0.0457333
0.0372815
0.000148863
0.000163298
0.000195043
0.000143657
0.000144243
0.0207022
0.000142711
0.000230941
0.0033001
0.026182
0.000142359
0.000194541
0.000203787
0.000143891
0.000136233
0.0242293
0.0132002
0.000149858
0.000171533
0.000205977
0.00022385
0.0411372
0.0101937
0.000159868
0.00305981
0.00290675
0.000170611
0.000141915
0.000202094
0.000136959
0.000137271
0.0253265
0.000173987
0.000193133
0.000157095
0.000161791
0.000143111
0.000137979
0.000151168
0.000152033
0.020517
0.000156625
0.00342318
0.019565
0.000178294
0.00018834
0.026992
0.0348659
0.0222105
0.000140812
0.000157894
0.000171197
0.000159426
0.000221547
0.00264643
0.000151039
0.00344697
0.0306749
0.000161334
0.000193999
0.000189362
0.00019606
0.000198112
0.000153325
0.000200545
0.000202735
0.000205109
0.00020782
0.000198828
0.000190991
0.000159507
0.000141855
0.000168269
0.000193791
0.000142614
9.69518e-05
0.0434223
0.00020901
0.0348475
0.000135831
0.000140627
0.000626719
0.0162488
0.000151725
0.000156629
0.00018526
0.025248
0.000666917
0.000147541
0.000167032
0.000158761
0.0106685
0.00370893
0.000156294
4.98923e-05
0.031091
0.000196134
0.036186
0.00019315
0.00498556
0.0423021
0.000130962
0.0409219
0.0345209
0.00015288
0.000188454
0.000195301
0.000160656
0.000142267
0.000255768
0.00853511
0.000142325
0.000142683
0.0239752
0.000286383
0.000191149
0.000149509
0.000225291
0.000199119
0.0369941
0.0286665
0.000147444
0.000143976
0.000151522
0.00015733
0.033524
0.000350777
0.0314389
0.000192155
0.000113203
0.00579581
0.000157625
0.000141647
0.0310999
0.000142924
0.0384026
0.000143602
0.0372567
0.000152649
0.00015249
0.000721957
0.000146296
0.000198657
0.00188085
0.000166559
0.000155994
0.000153081
0.000210685
0.0260974
0.000208334
0.0356078
0.000164175
0.000154756
0.000162342
0.000190333
0.0452983
0.0261023
0.000195726
0.000225087
0.000201132
0.00933782
0.000141307
0.000142613
0.000139322
0.000138752
0.000127209
0.000192484
0.00220387
0.000176856
0.000205419
0.000143756
0.00283167
0.00455201
0.00930805
0.000144599
0.000153632
0.000133463
0.0331772
0.000176186
0.00910598
0.00015533
0.000200347
0.000142899
0.000134867
0.000171893
0.000206154
0.000112746
0.000152717
0.000146246
0.000202788
0.000150814
0.000148696
0.000204571
0.00100763
0.00289734
0.000149711
0.00019364
0.000215251
0.0223609
0.0200213
0.0314579
0.0278939
0.000143648
0.000184974
0.000148017
0.000203841
0.000144855
0.000197841
0.000154833
0.000180152
0.0025933
0.00144692
0.000160357
0.000213871
0.0345553
0.000199554
0.000155886
0.0357797
0.000197482
0.000151538
0.000150375
0.0246816
0.000164134
0.000199866
4.08973e-05
0.00449542
0.02093
0.000156733
0.0228041
0.0300551
0.000315642
0.000196383
0.000167131
0.000197824
0.000195338
0.0287719
0.000213084
0.000151234
0.00082858
0.00019915
0.000182424
0.000162845
0.0257134
0.00021047
0.00260262
0.000159737
0.015808
0.000157067
0.026774
0.000207064
0.00333745
0.0165727
0.000140751
0.000133414
0.029897
0.0394117
0.000184447
0.000150888
0.00017802
0.000168735
0.019006
0.00020006
0.0344546
0.000160433
0.0342853
0.000199248
0.00199383
0.00015103
0.000124068
0.0257162
0.000162192
0.000192189
0.000135433
0.000157043
0.000147991
0.00292555
0.000143874
0.000147485
0.0411755
0.00995896
0.000138603
0.0427401
0.000152074
0.000147709
0.000144011
0.000142762
0.000149132
0.000223118
0.0420027
0.000139555
0.0091406
0.000187476
0.000179048
0.00153891
0.000192807
0.000159587
0.000166847
0.000143143
0.00274303
0.000166312
0.0438171
0.000170015
0.0184876
0.000566995
0.000188204
0.00412328
0.034007
0.000139649
0.0249472
0.000183355
0.000186761
0.00018766
0.000144513
0.00019824
0.000213479
0.000147421
0.000170165
0.000143994
0.0277527
0.000204777
0.02338
0.000209792
0.000208681
0.0400112
0.000148261
0.000144847
0.000185644
0.000154109
0.000149134
0.000149346
0.000162311
0.000143441
0.000142756
0.000153305
0.000178191
0.000154895
0.000162346
0.000156624
0.000180686
0.000196213
0.000155745
0.0309699
0.000155046
0.000143606
0.000194767
0.000175389
0.000158034
0.000143495
0.00552853
0.000154545
0.0297932
0.000155126
0.000196232
0.000143642
0.000147059
0.000216268
0.044596
0.000188583
0.000171063
0.000135447
0.0374408
0.000148254
0.000142507
0.000190496
0.000156205
0.000201335
0.034578
0.000195659
0.000287295
0.000177474
0.0210839
0.000147687
0.000148443
0.000187152
0.00321169
0.000184551
0.000194164
0.0261616
0.000162719
0.00014787
0.000162741
0.000227685
0.000183175
0.000147674
0.000196866
0.000195431
0.000186269
0.000149003
0.000147679
0.000218541
0.000185993
0.00342006
0.00299435
0.000156408
0.000188638
0.000148936
0.000176907
0.0123478
0.000149284
0.000206493
0.00105534
0.000191439
0.003847
0.000146864
0.000146735
0.000142915
0.0396993
0.000223286
0.00015562
0.000212713
0.000198947
0.000148709
0.000147164
0.000223677
0.0415777
0.000225056
0.033328
0.000218256
0.000165479
5.03077e-05
0.000201103
0.000165388
0.0109242
0.000193367
0.0113169
0.000147218
0.000195541
0.000203514
0.000152398
0.0125175
0.000175606
0.000210003