/*--------------------------------*- C++ -*----------------------------------*\
| =========                 |                                                 |
| \\      /  F ield         | OpenFOAM: The Open Source CFD Toolbox           |
|  \\    /   O peration     | Version:  v2012                                 |
|   \\  /    A nd           | Website:  www.openfoam.com                      |
|    \\/     M anipulation  |                                                 |
\*---------------------------------------------------------------------------*/
FoamFile
{
    version     2.0;
    format      ascii;
    class       volVectorField;
    location    "200";
    object      ddtCorrDdt0(U);
}
// * * * * * * * * * * * * * * * * * * * * * * * * * * * * * * * * * * * * * //

dimensions      [0 1 -2 0 0 0 0];


internalField   nonuniform List<vector> 
13917
(
(0.0123025 0.000678532 5.79904e-18)
(0.0108546 0.0175722 -1.27108e-18)
(-0.0156416 -0.00705965 -1.09208e-17)
(6.17572e-05 0.000668508 -2.54852e-18)
(0.00994725 -0.00187761 -4.83602e-20)
(0.00810339 0.0182496 6.76997e-19)
(0.000745357 0.00157033 -6.12002e-18)
(0.0527134 0.00598297 -4.15331e-19)
(0.000944604 0.0005939 -1.84202e-18)
(-0.0218748 0.0536135 7.37504e-18)
(0.0473772 0.00571034 1.43439e-18)
(-0.000145904 0.000362397 -1.23852e-18)
(-1.80403e-05 4.20726e-06 3.27566e-19)
(-0.078698 -0.170665 1.46992e-17)
(-0.00542706 0.00689541 2.03416e-18)
(0.0120017 0.000475785 -7.1105e-18)
(0.000154058 2.32458e-06 1.07776e-19)
(0.0384095 -0.00178232 5.37022e-20)
(2.29094e-05 -0.00983302 2.98075e-18)
(0.00892703 0.0232907 3.85387e-18)
(-0.000625 -0.00638806 -1.91464e-19)
(-0.000592746 -0.000393753 6.42142e-20)
(0.00316593 0.000909215 4.4764e-18)
(-0.000547446 -0.000372276 4.89319e-20)
(-0.000336289 0.000686375 -1.46888e-18)
(0.00229758 -0.00827826 -2.25919e-19)
(0.0168727 0.127623 -3.21912e-18)
(-0.0120929 0.030428 -1.06216e-17)
(0.0172828 -0.0110383 -7.62929e-19)
(-9.02637e-05 -0.000427695 -2.85393e-20)
(-0.0129338 0.0277486 5.13631e-18)
(0.0002618 -0.000658503 8.22477e-18)
(-0.000131594 0.000545085 7.73482e-19)
(0.00872948 -0.000182719 1.19563e-18)
(0.000360844 -0.000242629 2.19846e-19)
(0.0565201 0.0115641 7.14107e-19)
(0.000395581 0.000539256 9.5532e-20)
(-0.000161984 -2.98154e-06 -6.7981e-20)
(0.000809323 0.00154026 6.03615e-18)
(-0.00857822 0.000690028 1.15904e-19)
(-2.76834e-05 4.84276e-06 1.00132e-19)
(0.000439996 -5.79583e-05 -2.78368e-20)
(0.000742555 0.000525734 -4.3887e-18)
(-0.00325115 -0.0050409 -6.07146e-18)
(-0.00260821 -0.00542802 2.00647e-18)
(0.0594229 0.00963558 2.57672e-18)
(-0.000640399 -0.00518184 -1.24134e-20)
(-0.122284 -0.0695482 -1.26629e-17)
(0.120365 0.0508505 -4.7597e-19)
(0.000399339 -0.000288983 1.45778e-20)
(-0.000151038 0.000348916 3.7544e-18)
(0.0279664 0.00156814 -3.69679e-18)
(0.00667521 0.000775596 -4.59781e-18)
(-0.000439495 0.000564126 1.17853e-18)
(-0.000372038 0.000566912 1.84719e-19)
(0.0263934 -0.000707578 -2.0838e-18)
(-0.0112278 0.00938183 -7.09294e-18)
(0.00328265 0.00111796 1.64429e-18)
(0.000503925 -0.000127019 1.96956e-19)
(0.0620756 0.0163754 6.39144e-19)
(0.100486 -0.0540212 -7.16917e-19)
(-0.00227589 0.00954426 -6.69055e-19)
(-0.000136015 -8.78922e-06 -1.53176e-20)
(-0.000295882 0.000668963 -1.04203e-18)
(-0.00359078 -0.0213454 3.57283e-18)
(0.0192148 0.00153043 -6.00777e-21)
(0.0235 -0.0095193 1.06153e-19)
(0.0557472 0.018123 -1.63162e-19)
(0.0445759 -0.00237486 -1.04112e-18)
(0.0112605 0.000506122 -2.08301e-18)
(-0.00203097 -0.0225027 7.47222e-18)
(0.00962076 -8.18362e-05 1.81389e-18)
(0.000148897 0.000384788 6.16292e-19)
(0.000560349 -7.72514e-05 1.59132e-19)
(-0.00170148 -0.00696864 2.73118e-19)
(-0.00049312 0.000337439 -1.98475e-18)
(0.00211327 -0.00278236 3.74413e-19)
(0.000596155 -0.000103668 1.30357e-19)
(-0.000436 0.000362302 -1.36061e-18)
(-0.000144898 0.000562963 -1.00966e-18)
(-0.00115228 0.000761744 -6.37165e-21)
(0.000153575 -9.66236e-07 9.42258e-21)
(0.000151154 0.000363265 -2.85816e-18)
(0.0034812 -0.00233677 4.86669e-18)
(-0.00022232 7.1486e-05 2.28627e-18)
(0.0776831 -0.0517481 3.4524e-19)
(0.000520174 -0.000591945 -8.95335e-18)
(-0.000220814 2.88563e-05 6.71088e-19)
(-0.008105 -0.000328019 -1.04023e-19)
(0.000175246 4.62046e-06 -1.11468e-19)
(0.000194781 2.53153e-05 1.36699e-19)
(0.000778614 0.000520565 -3.62931e-20)
(0.115464 0.0758322 3.56687e-20)
(0.000214993 -0.000402944 -1.50679e-19)
(-0.000439493 0.000892629 -7.43278e-20)
(0.0204506 -0.0129731 5.83166e-19)
(-0.123393 0.017837 -1.25216e-18)
(7.14429e-05 -1.28813e-05 -9.21426e-20)
(-0.000215943 3.47044e-05 -1.61457e-18)
(-0.0866861 0.00266845 -1.00275e-19)
(-0.000106254 3.46796e-06 -1.52567e-20)
(-0.000121403 6.76032e-06 1.29722e-19)
(-0.00113065 0.00088303 6.0871e-20)
(5.0364e-05 -2.96243e-05 1.20004e-19)
(0.00229974 -0.00206245 -4.64397e-19)
(-8.17464e-05 0.0144818 -5.1808e-19)
(-0.0334778 -0.0109762 -2.28188e-18)
(-0.00514865 0.00913503 -1.38349e-19)
(0.000307985 -0.000111395 -5.46448e-20)
(0.0283261 0.154172 -6.26617e-18)
(2.30108e-05 1.76584e-05 2.74542e-18)
(0.00818405 -0.000656192 -3.46716e-18)
(0.0142317 -0.0135097 3.91e-19)
(-0.127016 -0.0616923 -2.64737e-18)
(-0.00251896 -0.0209362 -5.38477e-18)
(-0.000517611 0.000134448 -6.65317e-19)
(0.00045896 -0.00875651 2.27092e-18)
(6.19583e-05 2.38174e-05 9.39842e-21)
(-0.0113666 -0.00927565 3.32612e-18)
(0.000169834 0.000214424 1.25417e-18)
(0.000173972 -1.37055e-06 3.43796e-19)
(0.000594404 -1.90188e-05 -5.00935e-19)
(0.027373 -0.011102 6.00498e-19)
(0.010392 -0.00677603 -3.42987e-19)
(0.00197464 0.00240945 -7.1805e-18)
(0.00761612 -0.00260773 1.8254e-17)
(-0.000227816 0.000689832 -2.37351e-18)
(-0.00196773 -0.00835368 -4.01545e-20)
(-0.000281706 -0.000634581 -1.34989e-19)
(0.00950636 -0.00763568 -3.40974e-18)
(0.00143123 0.000858895 1.99957e-18)
(0.0197383 0.0708531 -3.42701e-18)
(-0.000339328 0.0140913 -6.28603e-18)
(-0.000446424 9.41055e-05 1.34235e-18)
(-0.0007361 -0.00144428 -3.84429e-18)
(0.0134789 0.158196 7.44987e-18)
(0.0998963 -0.0455763 5.12009e-18)
(-0.0136046 0.00279953 1.49804e-18)
(0.00466756 -0.00990002 2.21573e-19)
(-0.000100911 -1.89106e-06 2.92979e-20)
(-0.0576543 -0.35559 7.29043e-18)
(0.000604839 -6.41925e-05 -9.31867e-20)
(-0.000721245 0.0138596 1.54623e-18)
(-0.000447758 -8.87702e-05 -1.15581e-19)
(0.00010184 0.000372092 5.45133e-19)
(-0.000408204 -0.00187682 6.60582e-19)
(-0.00167965 -0.0204836 7.00369e-18)
(-0.00571013 -0.18169 -5.55771e-18)
(-0.117043 -0.0281504 1.73683e-17)
(-0.000423673 0.000582557 -1.33772e-18)
(-0.00634421 -0.000888629 4.18678e-19)
(-0.000146464 6.20728e-06 1.08033e-19)
(0.000100919 0.000351559 -1.25361e-18)
(0.000178666 0.000192546 -8.74287e-19)
(-0.11127 0.0407456 -3.45043e-18)
(4.01508e-05 0.00039193 -4.71455e-19)
(6.31787e-05 -3.57573e-05 -1.61371e-19)
(-0.00389952 0.012363 -1.8384e-18)
(1.3969e-05 1.05001e-05 4.12567e-19)
(5.31702e-05 1.7683e-05 -1.34895e-19)
(-0.000329047 7.40033e-05 -7.05184e-19)
(-0.0131229 -0.0629857 -3.03772e-19)
(0.00195402 0.00190797 -2.65257e-20)
(-0.0547779 -0.355043 -1.1313e-17)
(0.0378889 -0.131167 -2.3164e-17)
(-0.114275 0.00870688 8.21014e-19)
(0.00464112 0.000345121 4.19727e-18)
(-0.0620972 -0.227768 -5.00194e-17)
(-0.000168558 -5.91298e-05 -1.53041e-20)
(0.00560117 -0.0117654 -5.43868e-19)
(-0.000470296 -0.00042705 1.18122e-19)
(0.00320931 0.0129425 8.11996e-18)
(0.000941975 0.000540751 9.75635e-18)
(0.093811 -0.0520247 -5.42814e-19)
(0.0107198 0.013674 1.84308e-19)
(-9.1509e-05 8.15046e-06 -1.49392e-19)
(8.68438e-05 0.000673068 -7.88462e-19)
(0.0333278 0.00313851 -4.34561e-18)
(0.0014011 0.000864495 -9.0705e-18)
(0.00247904 0.00198284 1.54021e-19)
(0.000698417 0.000610243 8.15622e-18)
(-0.000490593 -0.000379706 -1.25668e-19)
(-0.000166767 0.000348506 1.65903e-18)
(0.030652 -0.0222494 -1.66977e-17)
(-0.0116311 -0.0109385 -3.32049e-18)
(0.0159902 0.0779158 -7.71603e-19)
(-0.000171646 0.000339527 -7.30867e-19)
(0.033933 -0.0207841 3.08057e-18)
(-0.000121816 -0.000497385 -2.15766e-20)
(0.0529877 -0.0472309 -1.31659e-19)
(0.0101722 0.0152736 -1.19691e-18)
(-0.00184584 -0.00487072 -3.00013e-18)
(0.0213474 -0.0156859 3.39468e-18)
(0.0119227 0.00261383 1.14458e-17)
(0.000210584 -0.000365827 3.13389e-20)
(0.00395272 0.00228524 1.57893e-18)
(-0.00082694 0.00141327 1.16671e-18)
(0.00275018 0.0141701 2.15579e-19)
(0.000311136 -0.000261334 -2.82923e-19)
(-9.5134e-05 0.000220752 9.61003e-19)
(-0.00063614 -0.00337569 4.36104e-20)
(0.011787 0.000266979 -5.71258e-19)
(-0.0120629 0.00208227 9.22804e-19)
(0.000226216 0.00125266 -2.39337e-19)
(0.0740545 0.10787 -1.17083e-17)
(0.0109575 -2.93307e-05 -2.11439e-19)
(-0.00680985 -0.000153253 -4.22792e-19)
(0.000587954 -2.20569e-05 -3.77709e-19)
(0.0310424 0.000486755 1.08385e-17)
(-0.00126175 0.000666585 -3.97301e-20)
(-0.000116504 -0.000365924 5.48264e-20)
(0.0204599 0.00195676 7.14658e-19)
(0.0241326 0.00139275 -4.15019e-20)
(-0.122685 -0.0495254 -4.75235e-18)
(-0.000496432 -0.00124235 -4.20765e-18)
(0.00256281 -0.00986346 3.56432e-19)
(-0.0166494 -0.0265722 1.88973e-18)
(-0.000253726 -9.41706e-06 -3.74358e-19)
(0.000318034 0.000213316 -1.37149e-20)
(0.000306401 0.00023005 5.67152e-19)
(-0.087466 -0.228524 6.58527e-18)
(0.0264284 -0.0182248 -1.46515e-19)
(0.0414794 -0.0230589 -6.94029e-18)
(-4.42945e-05 8.24244e-05 -1.27458e-18)
(-0.000113598 -4.40084e-06 5.41931e-21)
(0.0235962 0.177644 -2.69143e-18)
(0.0055163 0.00165895 -7.47048e-18)
(0.000292711 0.000167056 -1.20875e-19)
(0.000280428 0.000162219 -4.33328e-19)
(-1.85333e-05 4.87441e-06 -1.59139e-19)
(0.000312113 0.000256264 -4.17396e-19)
(0.000299859 0.000269119 3.3461e-19)
(0.0101636 -0.000201738 -1.04321e-18)
(-0.125619 -0.0776754 -6.67616e-18)
(-0.00105255 -0.000108603 -9.31369e-21)
(-0.000200969 -0.000121447 -6.04607e-21)
(0.0131631 0.00344702 1.28728e-18)
(0.00965719 0.00106387 6.84137e-18)
(7.2258e-05 9.74082e-06 2.26415e-19)
(-5.31715e-05 7.55041e-05 8.36022e-19)
(0.062903 0.126994 9.81489e-18)
(0.000458055 0.0121872 -3.25741e-18)
(0.0274667 -0.020244 -1.78157e-18)
(-0.0149121 -0.022495 9.23445e-18)
(0.0211614 0.020053 -3.19767e-19)
(-0.000456862 -8.20096e-05 2.67287e-19)
(-0.0387174 -0.195331 3.74563e-17)
(0.0137498 0.00216102 2.49736e-18)
(0.012014 -0.0114728 -3.09941e-19)
(0.00292892 -0.00373427 4.20584e-18)
(0.0001064 0.00116654 4.0861e-20)
(-0.124323 -0.058693 -1.15704e-18)
(0.000169588 0.000261436 1.30188e-18)
(-0.00265935 0.0077205 1.81727e-18)
(0.00779105 0.0119906 3.4559e-18)
(-0.0011129 -0.000283443 5.35225e-20)
(-1.53537e-05 1.4537e-06 -2.52613e-19)
(-0.000260096 0.000711984 3.99103e-19)
(0.00468002 0.00583183 -3.30694e-19)
(0.000114955 -0.000625423 5.62645e-19)
(0.00101966 0.00403403 -1.38194e-18)
(0.119539 0.077504 4.33515e-19)
(0.000655854 -1.43917e-05 6.13032e-21)
(0.000281884 0.000134949 8.91382e-20)
(0.000247877 0.000341836 2.73717e-19)
(0.000289415 0.000117269 5.22682e-20)
(0.000174449 0.000238408 -1.86095e-18)
(-4.58948e-05 8.17336e-06 -7.36194e-19)
(0.00199484 0.00365244 6.63965e-19)
(0.000687179 2.25248e-05 -6.49843e-19)
(-0.0184966 0.00346984 1.24908e-18)
(-0.03403 -0.0192068 -1.66759e-18)
(-0.000207761 0.000295467 -1.31788e-18)
(0.00343956 0.00205145 -8.91088e-19)
(0.0768655 0.0238981 -1.17157e-18)
(0.000101655 0.000283866 -3.49672e-19)
(-0.0640008 -0.00366127 -3.11555e-18)
(-9.35664e-05 0.0052224 7.60592e-19)
(0.000119254 0.000274087 -2.02075e-19)
(0.010555 0.00082794 2.66943e-19)
(0.000186749 -0.000649458 -3.5478e-19)
(-0.0123811 -0.0646221 1.9452e-17)
(-8.37093e-05 5.51276e-06 -1.06952e-20)
(-0.00507865 0.00388295 -1.09953e-18)
(-0.00119873 -0.00032686 -5.84646e-20)
(-0.000421882 -8.04243e-05 7.92702e-20)
(0.00473595 -0.0188712 3.78486e-18)
(-0.000150288 -1.6057e-05 3.96079e-21)
(-0.108978 0.0180637 4.38867e-18)
(-0.00200521 0.00156809 -1.01253e-18)
(0.116421 0.0607366 -3.13519e-19)
(-0.00109991 -0.00204289 -5.60086e-19)
(-0.00097155 0.10356 7.7392e-19)
(-0.0175818 0.00246406 -1.38694e-18)
(8.49722e-05 1.56588e-05 -1.24084e-19)
(0.00539346 0.00194732 2.31714e-18)
(0.00718226 0.00345118 -1.37972e-18)
(-0.000409199 -8.06651e-05 -1.07148e-18)
(0.00891459 -0.000208238 -6.90662e-19)
(-0.000444869 0.000438915 -3.38116e-19)
(0.000215833 -0.00047924 7.9331e-20)
(-0.000144981 -2.24746e-05 -2.31188e-20)
(0.0343472 0.00990228 -1.83144e-18)
(-0.0203102 -0.0448898 -4.98186e-19)
(-0.00279834 0.00717527 -1.56842e-18)
(-0.000400417 0.000448292 1.24367e-18)
(-7.06766e-05 6.53932e-05 9.97906e-19)
(-0.00160628 0.0131404 2.446e-19)
(0.0119572 8.12901e-05 3.20797e-18)
(-0.000103697 -0.0005995 -4.32769e-19)
(0.0084938 -0.00441716 -4.89826e-20)
(-0.000494078 -4.15336e-05 1.53725e-18)
(0.0560615 0.0387979 -1.8614e-19)
(-0.0049653 0.00182205 2.37087e-17)
(-0.021249 -0.00913614 -6.79097e-18)
(0.0862332 -0.0548081 1.40868e-17)
(0.0142707 0.0105563 6.16176e-21)
(0.0171745 0.0618643 -6.40402e-18)
(0.00248942 0.00238979 -8.0903e-20)
(-0.0029837 -0.00489161 -5.37253e-19)
(0.0683688 0.0433426 -9.04184e-20)
(-0.0152121 -0.00549013 5.63202e-18)
(-3.08565e-05 7.14795e-06 1.07342e-18)
(-0.00586231 0.00579672 -1.27e-18)
(0.03006 0.114606 4.46325e-18)
(-0.000169437 -0.000395565 -8.08644e-20)
(0.0134566 0.0189041 -5.86703e-19)
(-0.0011784 -0.00511375 4.53753e-20)
(0.000130368 6.02703e-06 -8.94133e-20)
(0.00406915 0.0127939 -5.97382e-18)
(-0.000219164 5.43226e-05 1.58223e-20)
(0.00142349 0.000642859 6.09287e-19)
(-0.000498184 0.000692222 4.47185e-20)
(0.0276278 0.0220309 6.69509e-18)
(-0.000170152 -0.000158211 -7.73148e-21)
(-0.0020463 0.00620492 -1.29567e-18)
(0.0112817 -0.00160396 -1.80304e-19)
(0.0102654 0.0106421 1.093e-20)
(0.000165061 1.29796e-05 -2.22229e-20)
(0.00190385 -0.00342998 1.1775e-18)
(-0.0060598 0.016336 1.37376e-18)
(-0.000391002 0.000781591 -5.70699e-19)
(-0.000114124 -0.000263095 1.27068e-19)
(0.00719468 -0.00105429 -4.71042e-18)
(-0.00392971 0.0156456 -3.92879e-19)
(0.029054 -0.0665433 -3.27059e-18)
(-0.017812 -0.119179 -9.1182e-18)
(0.000119788 0.000247634 -1.56313e-19)
(-0.00101199 0.000204889 2.15983e-19)
(0.00140833 0.0107212 2.23347e-19)
(0.0213111 0.0571453 4.96271e-18)
(0.000138689 0.000247131 2.24802e-19)
(0.00906703 0.00249175 1.37569e-18)
(-0.000253036 0.000410936 -1.80184e-18)
(-0.0104663 -0.0216782 6.65303e-19)
(-0.00197266 0.00670584 -2.25156e-18)
(0.0173472 -0.00951913 6.38986e-19)
(0.00806215 0.0339859 3.62468e-20)
(-0.0624659 -0.0119706 -6.33786e-19)
(0.00139653 0.000632649 3.97237e-18)
(0.00827029 0.000280336 -4.27604e-18)
(-0.000329742 -0.000649553 1.52897e-19)
(-0.000353922 0.000742229 5.92965e-19)
(0.0126063 -0.00223322 -2.99604e-19)
(-0.00350548 -0.0203047 9.55666e-18)
(8.03246e-05 6.50955e-06 -2.20023e-20)
(0.0128105 0.0012963 -1.06588e-17)
(0.00141735 0.000633138 -4.78857e-18)
(0.00965763 0.0898829 1.82666e-18)
(-0.000381332 0.000595945 1.16888e-19)
(0.0161201 0.0471972 1.92496e-18)
(0.00609224 -0.00656078 -6.89248e-21)
(0.0838914 0.138579 -1.36476e-20)
(0.00077968 -0.000407804 6.43705e-20)
(0.0374192 -0.0247642 2.56506e-18)
(0.0752099 0.0168145 5.44708e-18)
(0.0135447 -0.00262849 -4.24683e-19)
(-0.000214115 0.000309797 -1.4273e-18)
(-0.011569 -0.0363785 3.66243e-18)
(-0.000945749 0.000678775 7.06041e-20)
(0.0522374 -0.131627 1.76915e-17)
(0.0224545 -0.0180303 4.23509e-19)
(0.000948037 -0.000416023 2.17421e-19)
(0.107606 0.0938391 -9.04999e-20)
(-0.00136472 -0.00078576 -4.01136e-20)
(-0.0436036 -0.0252615 -4.76622e-21)
(0.000256899 -0.000341758 5.32356e-20)
(-0.00238971 0.0219275 -3.29082e-18)
(-0.0397446 -0.0383799 -5.21678e-20)
(1.4811e-05 0.000350674 -9.60379e-19)
(0.0465072 0.192559 4.88207e-19)
(-0.0474438 -0.0170644 4.67881e-19)
(-9.85201e-05 0.00114645 6.09077e-20)
(0.0321564 -0.091423 -2.58284e-18)
(-0.00291237 0.00817901 -8.07287e-18)
(-0.000112372 0.000381881 3.2897e-19)
(0.00613189 -0.0203202 5.27955e-18)
(-0.000854241 0.000372013 -2.71136e-19)
(-0.0492856 -0.0273336 -1.12593e-18)
(-0.0145117 -0.00832585 7.10988e-18)
(-0.000214692 4.70111e-05 -7.37177e-19)
(0.000897737 0.00113938 3.06248e-18)
(-0.000397633 0.000507979 4.12078e-19)
(-0.000415476 -7.97535e-05 -2.26908e-19)
(-0.000273438 -2.08521e-05 -1.6666e-19)
(-0.000426114 -0.000596332 1.42589e-19)
(0.0943671 -0.0473389 6.3181e-18)
(-0.102715 0.0246715 -2.32386e-18)
(-0.000375014 0.000666639 -4.57244e-19)
(-0.000408289 -0.000746609 2.13696e-19)
(-0.000551025 -0.000271685 -2.48215e-20)
(0.00550716 0.00456686 -1.61656e-18)
(0.0550326 0.0431773 -5.87938e-19)
(-9.16276e-05 0.00050897 1.78741e-19)
(-0.000170813 -5.4391e-05 -9.66617e-22)
(-0.0048073 0.00124288 -3.02499e-17)
(0.0106552 0.0478033 -1.8162e-18)
(-0.00043496 -9.00842e-05 -1.63793e-19)
(-1.16981e-05 0.000376514 1.24074e-18)
(0.0583652 -0.0478443 3.94885e-18)
(-0.145074 -0.0273782 7.0979e-19)
(0.0217705 0.00388341 1.91697e-20)
(-0.00120047 -0.0100895 2.35726e-18)
(-0.0181284 -0.00389937 5.15023e-19)
(0.000336543 0.000448578 4.69005e-19)
(-2.66562e-05 0.00042712 4.60813e-19)
(0.00169562 -0.00400958 1.47549e-19)
(-0.000268669 -2.16461e-05 1.5461e-19)
(-5.06669e-05 0.000493366 -8.34357e-19)
(-0.00112832 -0.000145495 -6.8463e-20)
(8.38019e-06 0.000411715 3.8948e-19)
(0.000328196 0.000428164 -7.27667e-20)
(-0.100863 -0.18749 -2.65103e-17)
(-0.000868275 0.000446105 1.95922e-20)
(-0.00919014 0.0033336 2.9812e-20)
(-0.0179957 0.00412457 2.69916e-18)
(0.00538513 0.00243805 2.06386e-18)
(-0.000136358 -0.000389126 -9.79266e-20)
(8.60382e-05 0.000348189 -1.67914e-18)
(0.0205216 -0.089786 -3.73347e-18)
(-9.68257e-07 -0.0037179 5.79118e-20)
(0.0016511 0.00191284 6.33657e-18)
(-0.000323027 0.000661238 9.86576e-21)
(-9.84314e-05 0.000125416 5.53739e-19)
(-0.00105346 0.00085422 -1.58745e-19)
(0.000302047 0.000295769 -5.94891e-19)
(0.000339973 0.000669959 1.55621e-21)
(-0.00128171 -0.00116511 -8.44633e-19)
(0.0589528 -0.0409607 -9.44354e-18)
(0.00505111 -0.00150898 3.05402e-19)
(0.00150215 0.0130281 -4.18723e-18)
(-0.000100679 0.000117889 -1.51378e-18)
(0.00175689 0.00113303 -2.50117e-18)
(0.00481827 -0.00358234 -1.93151e-19)
(-0.00123276 0.000534895 6.83768e-20)
(0.0209303 0.0168555 8.47324e-19)
(0.0339711 -0.0650741 -9.11835e-18)
(-0.000247324 0.000392085 4.29831e-18)
(-0.0463005 0.0815897 -1.35339e-18)
(-0.000186976 -0.000406148 5.59057e-20)
(-0.000239263 -1.36933e-05 3.2113e-19)
(-0.000523935 -0.000236787 2.55002e-20)
(-0.00148706 -0.000643642 -1.22404e-19)
(-8.20139e-05 -0.000313343 3.22851e-20)
(-0.000256845 8.84206e-06 -2.48504e-20)
(-0.00238001 0.0135449 8.64274e-18)
(0.102217 -0.0557072 -1.53634e-17)
(-6.86725e-05 -0.000288183 -1.84616e-19)
(0.0164133 0.108707 -7.15459e-18)
(-0.00509241 6.41772e-05 -2.25556e-18)
(-3.69986e-05 2.01551e-05 -1.10968e-19)
(0.00672001 0.00227208 3.5576e-18)
(0.000561224 0.00183021 5.07552e-18)
(0.011664 -0.0999699 -1.12478e-17)
(0.00102237 0.00108991 6.82732e-18)
(-9.38203e-05 0.0156733 1.55266e-18)
(-0.0274565 0.0507765 -6.93032e-19)
(-0.0313255 0.0574217 9.05516e-19)
(-0.00146015 -0.00103583 4.53827e-19)
(0.0162892 0.00447256 5.91852e-20)
(0.00531168 -0.0049419 5.08557e-20)
(-1.6215e-05 0.00123174 -2.70731e-19)
(0.0190463 -0.0543519 1.29829e-18)
(0.000200577 2.05747e-05 -1.97152e-19)
(-0.000417264 0.000528476 3.19164e-19)
(-0.000386556 0.000844476 6.15255e-19)
(0.000922236 0.000897724 8.61516e-19)
(-0.00328186 -0.00447975 1.12124e-20)
(-0.00862874 -0.0117616 1.8647e-18)
(0.00275802 -0.000402439 -3.40191e-19)
(-0.0010339 0.00064614 -3.43096e-19)
(0.00449769 0.00281402 1.28771e-18)
(0.0354727 -0.00791082 -4.80755e-19)
(-0.0141097 0.0113677 7.6532e-19)
(-0.000391434 0.00067414 1.22506e-19)
(-0.103283 -0.205363 7.85399e-19)
(0.00224357 0.00261761 -1.5785e-18)
(-0.00180689 0.00174355 4.55659e-18)
(0.0838555 -0.105152 6.14192e-18)
(-0.000214784 6.5687e-05 -2.74784e-18)
(-0.0149659 0.0124662 9.99702e-19)
(0.037419 0.00192926 1.48492e-17)
(-0.000221895 -7.11986e-05 6.27749e-20)
(-0.0109074 0.010189 -2.70628e-19)
(-0.000243746 -1.09789e-05 -1.83538e-20)
(0.000289504 0.000301967 2.34687e-19)
(0.00597309 0.00407138 3.97458e-18)
(-0.000253729 0.0006755 -3.19859e-19)
(-0.000257965 -9.10821e-06 1.56707e-19)
(0.0327091 0.0130726 1.8333e-18)
(-0.00547433 0.00822281 5.56482e-18)
(0.0271361 0.213823 -5.345e-19)
(-0.000315228 7.72589e-05 -1.06142e-18)
(0.000267535 0.000691742 4.83899e-19)
(0.000619817 0.00154774 -2.62106e-19)
(0.0395129 -0.0437184 3.28045e-18)
(0.0874273 0.0535192 -1.65822e-18)
(-0.000430434 0.000645504 4.25451e-19)
(-0.000387432 0.000557841 -4.6636e-19)
(-0.000303793 5.95932e-05 1.1846e-19)
(0.00717984 0.00944682 1.10017e-18)
(0.0578886 0.0702747 2.02928e-19)
(-0.000157629 -0.000756786 -1.13563e-19)
(8.61031e-05 9.8391e-06 6.542e-20)
(-0.00022667 0.000248779 -7.33338e-19)
(-0.000402712 -7.05012e-05 1.45291e-19)
(0.0019731 -0.00867279 3.22462e-19)
(-0.000204394 0.00252943 -4.3525e-20)
(0.000180673 2.14817e-05 1.33773e-19)
(0.00303831 -0.000483319 -3.43249e-18)
(-0.000218673 -6.88455e-05 8.84681e-21)
(-0.000631428 -0.000296396 1.28631e-20)
(-0.000362546 0.000518178 3.91861e-19)
(-0.00811877 -0.00155276 3.08527e-18)
(0.0002223 -1.57026e-05 1.74541e-19)
(0.000481773 0.000955772 -2.03796e-18)
(9.20753e-05 -0.000514773 1.93448e-19)
(0.00169772 0.00116739 -6.36992e-18)
(0.00845564 -3.53674e-05 9.79416e-18)
(0.00411376 -0.0285783 3.00407e-19)
(0.00962811 0.0124692 -1.06634e-19)
(-0.0919221 0.0177619 1.52609e-18)
(-0.000300762 0.000430316 1.81508e-18)
(0.0304477 -0.00644446 -4.60815e-20)
(0.00544018 0.0145951 5.2843e-19)
(-0.101766 -0.154461 8.91123e-18)
(-0.0184085 0.00504415 2.89978e-18)
(2.63569e-05 -0.000469445 -1.29681e-20)
(-0.000480896 -0.000179824 -1.64653e-20)
(-0.00185219 0.000960452 1.03061e-19)
(-0.000138319 0.00020209 -3.18344e-18)
(0.000190645 -0.0166697 -5.73383e-18)
(9.83556e-05 0.000318228 6.19606e-19)
(0.0600759 0.0573011 -4.56804e-19)
(-0.000712343 0.00147856 -1.05439e-18)
(0.0126924 0.0125871 -7.53169e-19)
(-0.0734591 0.000740183 3.23443e-19)
(0.000731205 0.000588932 -1.40158e-17)
(-0.0712039 0.0607873 1.11927e-17)
(-4.57335e-05 -0.000278278 1.22677e-19)
(0.000621454 0.00107595 6.55775e-18)
(9.67197e-05 -1.72212e-05 1.54404e-19)
(0.000870117 -0.0018584 8.46866e-19)
(0.00912037 0.0125442 -2.0971e-18)
(-0.000190036 0.00059184 -5.23157e-20)
(-0.0119142 0.00292959 -4.71855e-18)
(-0.000126673 -7.53481e-07 5.07822e-20)
(-3.39859e-05 1.32344e-05 -2.26775e-18)
(-0.000493684 -0.000215369 -8.29843e-21)
(-0.00806397 -0.0108265 1.53731e-18)
(0.00358499 -0.00920041 1.95545e-19)
(0.000273373 5.904e-05 4.63752e-19)
(-0.00382997 -0.00373671 -4.12338e-18)
(0.00648375 0.00290241 -6.35797e-19)
(-0.0142423 -0.00995715 -3.76044e-18)
(-0.00511882 -0.0196454 -1.24189e-17)
(-0.000129052 0.0117264 5.8053e-18)
(0.0190267 -0.110457 3.24221e-17)
(0.000218629 -1.42026e-05 -2.81425e-19)
(0.00814284 0.00130379 -1.71782e-18)
(-0.000195118 -3.32829e-06 -1.64336e-19)
(0.0989886 -0.0467462 -1.69047e-18)
(-0.0264774 -0.164826 -1.89992e-18)
(0.00114095 -0.00234652 -2.08142e-19)
(0.00115378 -0.010901 3.15849e-20)
(-0.000121812 4.12623e-06 -1.1539e-19)
(0.00204852 0.00262446 -2.77473e-18)
(0.000677474 0.000578417 -7.4969e-18)
(-0.000133574 0.000586507 -1.13484e-19)
(7.39792e-05 -1.73177e-05 9.75558e-20)
(-7.36064e-05 6.0416e-06 -1.54858e-18)
(-0.01599 -0.0195958 1.29263e-17)
(-0.000314784 0.000153702 -1.86466e-18)
(0.000708819 -0.000205249 1.65834e-17)
(-0.000429349 0.000511438 -3.96966e-19)
(0.000264494 6.79585e-05 -2.00725e-19)
(2.29205e-05 1.4193e-05 -1.63649e-19)
(0.0525422 0.0084862 1.55454e-18)
(-0.00700818 -0.05991 -9.59156e-18)
(-0.0617259 0.0574032 -7.46366e-19)
(0.0031522 -0.00317769 1.96531e-18)
(-5.9503e-05 0.00244727 -1.73815e-18)
(0.00697457 -0.0422849 -9.99226e-19)
(0.0089756 0.00153909 -1.46289e-17)
(0.000273536 -0.000362021 9.51708e-20)
(0.0198808 -0.0603276 -3.38447e-18)
(-6.5267e-05 7.73092e-06 2.02718e-18)
(-0.000720031 0.00313839 -2.66759e-17)
(-0.000149787 0.000205119 2.1458e-18)
(-0.0134669 -0.0335437 7.75882e-18)
(-0.000389022 -6.52518e-05 -1.27045e-20)
(6.41436e-05 -0.00984385 -8.7618e-19)
(0.000117415 0.000377696 1.45114e-18)
(-0.0112758 -0.00339023 8.90701e-18)
(0.00223519 0.0031824 -1.36689e-18)
(-0.00816296 -0.0240783 -1.66546e-18)
(0.000212685 4.0249e-06 -4.62883e-19)
(0.00175669 0.00345949 3.5105e-18)
(0.000321809 -0.000679283 -2.9199e-19)
(-9.92776e-05 3.95228e-06 9.77869e-20)
(0.00669972 0.000131747 3.59954e-18)
(-0.122726 -0.0312751 3.42802e-18)
(0.000560985 -0.000592836 -9.3858e-19)
(0.0184715 -0.0114159 -8.64318e-18)
(-6.52013e-05 7.29444e-05 9.02505e-19)
(0.00129808 -0.00112027 5.57068e-19)
(-0.00012549 3.58977e-06 -5.12707e-20)
(0.00514643 -0.000980915 1.79243e-17)
(-0.000306406 0.000159774 1.50289e-18)
(0.0065013 0.00565176 5.05151e-19)
(7.748e-05 0.000330988 1.05828e-19)
(0.000462299 -0.000591881 4.69345e-19)
(-0.00200569 -0.0204618 -7.7218e-18)
(-0.000133722 5.72414e-06 -7.77516e-21)
(0.012623 -0.0115111 2.39543e-18)
(0.000142052 -2.6113e-06 -7.63375e-21)
(-0.00019574 -0.00013329 -9.41791e-20)
(0.0994416 -0.0494971 -4.37559e-18)
(0.000517513 -0.00023115 -6.62003e-18)
(-0.000448377 0.000624012 6.64536e-20)
(-0.014022 0.000936243 -3.65756e-18)
(-0.010918 0.00304962 3.37515e-19)
(0.0350882 0.0555796 2.21712e-19)
(0.0400594 0.00448443 -5.71816e-19)
(-3.44804e-05 -0.000252878 -1.5739e-19)
(-0.00632437 0.008171 7.22496e-19)
(-0.00694889 0.00254766 -5.1886e-20)
(-0.00628847 0.00780694 5.48955e-18)
(0.00132914 -0.00325254 -3.10812e-20)
(0.000308117 0.000407575 1.19167e-18)
(-0.00122686 -0.0111067 1.47612e-19)
(0.000156795 -3.45115e-06 9.00618e-20)
(-0.000493664 -0.000327413 -4.30607e-19)
(0.0159515 0.0137652 6.05291e-20)
(0.0101468 -0.000165266 6.46069e-19)
(-0.000879319 0.000791 6.55748e-19)
(0.0760683 -0.124458 1.06413e-18)
(0.00249028 0.00304658 8.67403e-20)
(0.0593161 0.0587678 -2.40532e-18)
(0.0902766 0.0452272 2.82932e-18)
(-0.0329954 -0.0392089 3.01174e-19)
(-0.000510003 0.0053086 2.22801e-18)
(0.0185785 -0.0155091 -3.23781e-18)
(0.0104978 0.00075803 -1.33001e-19)
(0.000203252 -0.00042467 1.36533e-19)
(-0.0220441 -0.00658496 -9.59642e-20)
(0.0139875 0.0190614 -1.74668e-20)
(-0.000206378 -0.000118691 -7.12021e-20)
(0.000203274 -1.95119e-06 -4.34762e-20)
(6.00738e-06 1.56759e-05 -1.10136e-19)
(0.000412367 0.00217119 2.99082e-19)
(-0.000261809 -7.28731e-06 8.00577e-21)
(0.00856534 0.00131191 -1.58052e-18)
(0.00141176 0.000646901 6.23289e-18)
(-1.00595e-05 -3.57547e-05 4.7155e-20)
(-0.000603126 -0.00458691 7.56961e-19)
(0.000218463 3.07137e-06 -1.22351e-19)
(-0.0208834 -0.0132217 6.29533e-19)
(0.000246105 -0.000727473 3.61178e-20)
(-0.0002285 -0.000667302 -1.48141e-19)
(-0.00873853 0.00824735 -1.05475e-18)
(0.00705553 0.000167603 1.30588e-18)
(0.00186352 0.144744 -1.29987e-18)
(0.000113223 0.000462402 4.46273e-18)
(-0.000409614 -0.00135762 2.99453e-20)
(3.1311e-05 -0.000610186 -2.37785e-19)
(0.000209036 0.000593888 1.97846e-18)
(0.000979209 0.00179277 -7.97962e-19)
(-0.000414486 -6.87857e-05 -7.09021e-20)
(-0.00526697 0.00251685 4.17814e-18)
(-0.0026833 0.00218759 -5.65642e-19)
(0.0460632 -0.00680816 -1.25873e-18)
(-0.00924092 0.112114 -6.22343e-19)
(-0.0201943 -0.0106402 2.73145e-19)
(0.000519836 0.0106531 -2.24415e-18)
(0.000246146 0.00071448 -7.41192e-18)
(2.55793e-05 -1.93099e-05 -1.61816e-19)
(0.000408017 -0.000705958 1.43859e-20)
(0.000461369 0.00568327 -1.26025e-19)
(0.0456347 0.208443 -4.06033e-19)
(-0.000946731 0.00149214 5.064e-19)
(-1.58399e-05 0.00240446 1.33186e-18)
(0.0594547 0.072963 -9.84893e-19)
(-0.000182752 -0.000164668 1.54655e-20)
(-0.000135182 -0.000643458 6.48391e-19)
(0.000423434 0.000857684 -6.66361e-19)
(-0.00208963 0.016547 -4.22338e-18)
(-0.00713771 0.129571 5.57131e-20)
(0.00225753 0.00354581 6.18033e-19)
(0.000190454 0.000587109 -3.42297e-19)
(0.000460226 0.00099576 -2.03279e-18)
(-0.000626204 0.0034444 2.67881e-17)
(0.00192696 0.00170104 -3.0948e-19)
(0.0152344 -0.00987959 -4.42072e-18)
(0.00142474 0.000668309 -2.34004e-18)
(-0.000490086 0.000864866 2.90851e-19)
(-0.000158522 0.000557961 -4.78053e-19)
(1.46057e-05 -1.92366e-05 3.86524e-19)
(0.000919177 0.00178869 2.12315e-19)
(0.00379767 0.00430998 -1.16699e-18)
(-0.0033336 0.00848736 -1.45779e-18)
(-0.000301133 -0.000277436 3.66343e-19)
(0.00410634 0.000187308 -8.9172e-19)
(-0.00277246 0.00239968 -1.65183e-19)
(0.00157098 -0.00138795 1.81558e-20)
(0.0695619 0.0430075 -1.44879e-19)
(0.000184477 0.000437399 -3.27057e-19)
(0.00636212 0.0112695 -3.96033e-20)
(-0.00029649 0.00163603 -7.53055e-20)
(-0.00643445 0.00741894 -5.87878e-18)
(0.000180009 -8.2226e-07 5.09668e-20)
(0.000891199 0.0010165 -2.55153e-18)
(-0.00722433 -0.0575314 4.57563e-18)
(-0.0188198 0.0919515 2.79971e-19)
(-0.000119058 0.000213063 -1.47231e-18)
(-0.000431449 -0.000238111 1.53538e-18)
(-0.000244609 -4.73116e-06 -1.19219e-19)
(-0.000144297 0.00015332 9.868e-19)
(0.000133528 0.000338253 4.82407e-19)
(-0.0106946 -0.0165142 1.22693e-18)
(0.00596432 -0.00260897 9.12251e-20)
(0.0499736 0.0103416 -1.25044e-18)
(0.0142484 -0.0116844 2.13572e-18)
(-5.4979e-06 -0.000220465 8.25638e-20)
(-0.00382152 0.00891661 9.15083e-18)
(0.000929555 0.000635432 1.15289e-17)
(0.00092487 0.000950239 -3.24306e-18)
(0.0174049 -0.0135203 2.95677e-18)
(-0.00109928 0.000199137 -1.1096e-19)
(0.000559544 0.000977582 -1.22459e-17)
(-0.106635 0.0283541 2.5232e-18)
(0.000252089 -2.84414e-06 -2.64118e-19)
(0.00661408 -0.000145916 -2.5972e-18)
(0.0131629 0.0205699 5.86632e-19)
(0.00143121 0.000704269 -3.03006e-18)
(-0.000340813 -0.000358186 6.27463e-21)
(-0.000124307 -0.000341339 2.53387e-19)
(-0.000481693 -0.000377702 -2.50248e-19)
(0.0115678 0.000277608 -2.31728e-19)
(-0.000137663 0.000515327 -2.65665e-18)
(0.000326972 -0.000915258 9.28668e-20)
(0.00141715 0.000636278 3.3143e-18)
(-0.000425305 -7.52405e-05 1.12196e-19)
(-0.000151294 -0.000446426 1.05398e-20)
(0.0242607 -0.000234439 -2.79663e-19)
(-0.123022 0.00750101 2.224e-19)
(-0.00184042 -0.0318246 6.55686e-20)
(-0.106901 0.0229996 -7.32124e-19)
(-0.00831402 -0.0189712 -4.90455e-19)
(0.00193624 0.00962011 -2.27456e-18)
(0.000144915 0.000320501 -1.60702e-18)
(0.00269275 -0.00330309 -7.21061e-19)
(-0.00533789 -0.035966 5.1057e-18)
(0.00170862 -0.0021679 6.92249e-19)
(-0.00582386 0.0163989 1.50109e-20)
(0.000163658 1.03461e-05 -2.61621e-19)
(0.000197053 -3.5769e-06 7.12438e-20)
(6.16794e-05 0.000466138 -3.72091e-18)
(-0.000107237 -0.0005074 3.6891e-19)
(0.00106113 -0.032096 -2.62827e-19)