/*--------------------------------*- C++ -*----------------------------------*\
| =========                 |                                                 |
| \\      /  F ield         | OpenFOAM: The Open Source CFD Toolbox           |
|  \\    /   O peration     | Version:  v2012                                 |
|   \\  /    A nd           | Website:  www.openfoam.com                      |
|    \\/     M anipulation  |                                                 |
\*---------------------------------------------------------------------------*/
FoamFile
{
    version     2.0;
    format      ascii;
    class       volVectorField;
    location    "550";
    object      cellDisplacement;
}
// * * * * * * * * * * * * * * * * * * * * * * * * * * * * * * * * * * * * * //

dimensions      [0 1 0 0 0 0 0];


internalField   nonuniform List<vector> 
13917
(
(0 0.0565399 0)
(0 0.0514652 0)
(0 0.0565039 0)
(0 0.0501214 0)
(0 0.0437547 0)
(0 0.0512447 0)
(0 0.0546269 0)
(0 0.0529466 0)
(0 0.0546161 0)
(0 0.05654 0)
(0 0.0528885 0)
(0 0.0461257 0)
(0 0.00151576 0)
(0 0.0537978 0)
(0 0.0491969 0)
(0 0.0565399 0)
(0 0.00118753 0)
(0 0.0529988 0)
(0 0.0564239 0)
(0 0.0565398 0)
(0 0.0535525 0)
(0 0.039697 0)
(0 0.0559727 0)
(0 0.0393425 0)
(0 0.0518502 0)
(0 0.0534494 0)
(0 0.0556481 0)
(0 0.05654 0)
(0 0.0532402 0)
(0 0.000825265 0)
(0 0.05654 0)
(0 0.0563023 0)
(0 0.0497411 0)
(0 0.0565396 0)
(0 0.0268401 0)
(0 0.0528595 0)
(0 0.0507535 0)
(0 0.00174091 0)
(0 0.0547003 0)
(0 0.0547088 0)
(0 0.000366771 0)
(0 0.0187717 0)
(0 0.0538492 0)
(0 0.056432 0)
(0 0.056425 0)
(0 0.0563134 0)
(0 0.0534711 0)
(0 0.0565312 0)
(0 0.0517111 0)
(0 0.0271294 0)
(0 0.0456991 0)
(0 0.0562815 0)
(0 0.05654 0)
(0 0.0436462 0)
(0 0.0447718 0)
(0 0.0562926 0)
(0 0.05654 0)
(0 0.0559469 0)
(0 0.0183092 0)
(0 0.0563004 0)
(0 0.0564563 0)
(0 0.0304332 0)
(0 0.000125769 0)
(0 0.0516594 0)
(0 0.0565302 0)
(0 0.00125607 0)
(0 0.053166 0)
(0 0.0527084 0)
(0 0.0530478 0)
(0 0.0565399 0)
(0 0.0565251 0)
(0 0.0565397 0)
(0 0.0461438 0)
(0 0.0181041 0)
(0 0.0537202 0)
(0 0.0518484 0)
(0 0.0433606 0)
(0 0.0176418 0)
(0 0.0516803 0)
(0 0.0500196 0)
(0 0.0452708 0)
(0 0.00138667 0)
(0 0.0457102 0)
(0 0.0565294 0)
(0 0.0148464 0)
(0 0.053981 0)
(0 0.0562848 0)
(0 0.0076163 0)
(0 0.0545987 0)
(0 0.00142071 0)
(0 0.00231751 0)
(0 0.0539824 0)
(0 0.0515409 0)
(0 0.0235154 0)
(0 0.0469597 0)
(0 0.0532998 0)
(0 0.0552929 0)
(0 0.00190553 0)
(0 0.00857486 0)
(0 0.0553047 0)
(0 0.000354051 0)
(0 0.000431148 0)
(0 0.0457059 0)
(0 0.00347419 0)
(0 0.0429653 0)
(0 0.0565329 0)
(0 0.0565367 0)
(0 0.0301451 0)
(0 0.0189679 0)
(0 0.0556641 0)
(0 0.00991457 0)
(0 0.0565395 0)
(0 0.0533755 0)
(0 0.0565318 0)
(0 0.0565298 0)
(0 0.052031 0)
(0 0.0564131 0)
(0 0.00146866 0)
(0 0.0564895 0)
(0 0.0438022 0)
(0 0.00172215 0)
(0 0.0173965 0)
(0 0.0532227 0)
(0 0.0563259 0)
(0 0.0565399 0)
(0 0.0565309 0)
(0 0.0514542 0)
(0 0.0537976 0)
(0 0.0285666 0)
(0 0.0563397 0)
(0 0.0556226 0)
(0 0.0560338 0)
(0 0.0565381 0)
(0 0.0519398 0)
(0 0.0563623 0)
(0 0.0556087 0)
(0 0.0564256 0)
(0 0.0565399 0)
(0 0.0534326 0)
(0 0.000940061 0)
(0 0.0467936 0)
(0 0.0174173 0)
(0 0.0565323 0)
(0 0.032552 0)
(0 0.0446065 0)
(0 0.0193854 0)
(0 0.0565254 0)
(0 0.0382923 0)
(0 0.0565336 0)
(0 0.0442018 0)
(0 0.0544124 0)
(0 0.000383169 0)
(0 0.0440445 0)
(0 0.0439399 0)
(0 0.0553195 0)
(0 0.0393417 0)
(0 0.00399596 0)
(0 0.0565386 0)
(0 0.000708057 0)
(0 0.00120266 0)
(0 0.0261485 0)
(0 0.0565172 0)
(0 0.0509744 0)
(0 0.0466401 0)
(0 0.0565066 0)
(0 0.0553577 0)
(0 0.05654 0)
(0 0.0565107 0)
(0 0.000168893 0)
(0 0.0534996 0)
(0 0.0399119 0)
(0 0.056538 0)
(0 0.0545805 0)
(0 0.0564435 0)
(0 0.0559969 0)
(0 0.000609425 0)
(0 0.0501767 0)
(0 0.0562882 0)
(0 0.0555683 0)
(0 0.0511272 0)
(0 0.0537071 0)
(0 0.0394621 0)
(0 0.0456156 0)
(0 0.0564116 0)
(0 0.056491 0)
(0 0.0560114 0)
(0 0.0452058 0)
(0 0.056405 0)
(0 0.0010201 0)
(0 0.0539347 0)
(0 0.0559777 0)
(0 0.056412 0)
(0 0.0563904 0)
(0 0.0565399 0)
(0 0.02381 0)
(0 0.0565399 0)
(0 0.0537293 0)
(0 0.0565377 0)
(0 0.0263009 0)
(0 0.039064 0)
(0 0.0532634 0)
(0 0.0565399 0)
(0 0.05654 0)
(0 0.0497073 0)
(0 0.0557903 0)
(0 0.0524194 0)
(0 0.0545256 0)
(0 0.0176665 0)
(0 0.0562965 0)
(0 0.0451424 0)
(0 0.0225427 0)
(0 0.0439739 0)
(0 0.0441714 0)
(0 0.0565322 0)
(0 0.0563513 0)
(0 0.0535315 0)
(0 0.0565318 0)
(0 0.00442168 0)
(0 0.00991931 0)
(0 0.00977802 0)
(0 0.0565154 0)
(0 0.0563986 0)
(0 0.0564074 0)
(0 0.0190328 0)
(0 8.50044e-05 0)
(0 0.055618 0)
(0 0.05654 0)
(0 0.00901705 0)
(0 0.00866195 0)
(0 0.000338098 0)
(0 0.0100928 0)
(0 0.00994724 0)
(0 0.0565397 0)
(0 0.0565297 0)
(0 0.042303 0)
(0 0.000363209 0)
(0 0.0561632 0)
(0 0.0565398 0)
(0 0.000942775 0)
(0 0.0176983 0)
(0 0.055756 0)
(0 0.0565327 0)
(0 0.0564089 0)
(0 0.0565332 0)
(0 0.0561143 0)
(0 0.0328884 0)
(0 0.0565095 0)
(0 0.0561932 0)
(0 0.0533189 0)
(0 0.0563086 0)
(0 0.0495162 0)
(0 0.0565315 0)
(0 0.0443267 0)
(0 0.0553408 0)
(0 0.0559499 0)
(0 0.042514 0)
(0 0.000160984 0)
(0 0.0516552 0)
(0 0.0418246 0)
(0 0.0245794 0)
(0 0.0565399 0)
(0 0.0525925 0)
(0 0.0186502 0)
(0 0.00846977 0)
(0 0.0398689 0)
(0 0.00865962 0)
(0 0.044408 0)
(0 0.00282473 0)
(0 0.0555208 0)
(0 0.0189538 0)
(0 0.0565399 0)
(0 0.0565356 0)
(0 0.0415686 0)
(0 0.0418454 0)
(0 0.0562978 0)
(0 0.00794155 0)
(0 0.0552275 0)
(0 0.0565399 0)
(0 0.00807301 0)
(0 0.0565399 0)
(0 0.0240111 0)
(0 0.0565136 0)
(0 0.000482757 0)
(0 0.0484612 0)
(0 0.0428774 0)
(0 0.0315247 0)
(0 0.0564445 0)
(0 0.00278448 0)
(0 0.0553848 0)
(0 0.0541501 0)
(0 0.0525504 0)
(0 0.0197437 0)
(0 0.0558002 0)
(0 0.0565399 0)
(0 0.0012996 0)
(0 0.056012 0)
(0 0.0425707 0)
(0 0.0520324 0)
(0 0.0433412 0)
(0 0.0517051 0)
(0 0.0236177 0)
(0 0.00342314 0)
(0 0.0562561 0)
(0 0.0372753 0)
(0 0.0552849 0)
(0 0.0515409 0)
(0 0.0164422 0)
(0 0.0565383 0)
(0 0.0565399 0)
(0 0.0268146 0)
(0 0.0068893 0)
(0 0.0521219 0)
(0 0.0441544 0)
(0 0.0564689 0)
(0 0.0565371 0)
(0 0.0564439 0)
(0 0.000781189 0)
(0 0.0560201 0)
(0 0.0413657 0)
(0 0.0565277 0)
(0 0.044452 0)
(0 0.0565032 0)
(0 0.00249657 0)
(0 0.0489074 0)
(0 0.055691 0)
(0 0.0400473 0)
(0 0.0515962 0)
(0 0.0564038 0)
(0 0.00104999 0)
(0 0.0565377 0)
(0 0.0118809 0)
(0 0.056023 0)
(0 0.00780492 0)
(0 0.0565399 0)
(0 0.0148216 0)
(0 0.0552299 0)
(0 0.0525985 0)
(0 0.000578751 0)
(0 0.00142875 0)
(0 0.0563189 0)
(0 0.056531 0)
(0 0.0467472 0)
(0 0.0398103 0)
(0 0.0565392 0)
(0 0.0565316 0)
(0 0.0564676 0)
(0 0.0536737 0)
(0 0.00784398 0)
(0 0.0428057 0)
(0 0.0565331 0)
(0 0.0560457 0)
(0 0.00802298 0)
(0 0.043016 0)
(0 0.0447246 0)
(0 0.0543941 0)
(0 0.0552827 0)
(0 0.0563526 0)
(0 0.0559476 0)
(0 0.0551567 0)
(0 0.0559976 0)
(0 0.0565397 0)
(0 0.0292308 0)
(0 0.0468781 0)
(0 0.0439244 0)
(0 0.0564754 0)
(0 0.000836294 0)
(0 0.0565399 0)
(0 0.0559794 0)
(0 0.0100607 0)
(0 0.0451944 0)
(0 0.0560231 0)
(0 0.0070903 0)
(0 0.0511517 0)
(0 0.0176127 0)
(0 0.0564139 0)
(0 0.0563107 0)
(0 0.0527064 0)
(0 0.0421521 0)
(0 0.0565092 0)
(0 0.00789256 0)
(0 0.0565026 0)
(0 0.0564013 0)
(0 0.017408 0)
(0 0.0513421 0)
(0 0.043435 0)
(0 0.00902279 0)
(0 0.017697 0)
(0 0.0565396 0)
(0 0.00896787 0)
(0 0.0507628 0)
(0 0.0556819 0)
(0 0.0550286 0)
(0 0.0489529 0)
(0 0.0564969 0)
(0 0.0565124 0)
(0 0.0503947 0)
(0 0.0564451 0)
(0 0.0426782 0)
(0 0.0549816 0)
(0 0.0564999 0)
(0 0.0105258 0)
(0 0.0546387 0)
(0 0.051613 0)
(0 0.0309321 0)
(0 0.0178065 0)
(0 0.0301607 0)
(0 0.0564275 0)
(0 0.0554156 0)
(0 0.0460905 0)
(0 0.0303537 0)
(0 0.0383427 0)
(0 0.0559079 0)
(0 0.0522536 0)
(0 0.00777029 0)
(0 0.00019329 0)
(0 0.0564634 0)
(0 0.055981 0)
(0 0.0323176 0)
(0 0.0505514 0)
(0 0.0564219 0)
(0 0.0550902 0)
(0 0.00121083 0)
(0 0.0564344 0)
(0 0.0565256 0)
(0 0.0123669 0)
(0 0.00773279 0)
(0 0.0530127 0)
(0 0.0167628 0)
(0 0.00791443 0)
(0 0.0426562 0)
(0 0.00788855 0)
(0 0.0120704 0)
(0 0.0565175 0)
(0 0.0432007 0)
(0 0.0549148 0)
(0 0.0565399 0)
(0 0.0559789 0)
(0 0.0232848 0)
(0 0.043469 0)
(0 0.0565006 0)
(0 0.0531946 0)
(0 0.05654 0)
(0 0.00781544 0)
(0 0.0300076 0)
(0 0.0081675 0)
(0 0.0102195 0)
(0 0.0504813 0)
(0 0.0434663 0)
(0 0.0564088 0)
(0 0.0177868 0)
(0 0.0565332 0)
(0 0.0296817 0)
(0 0.0556975 0)
(0 0.018395 0)
(0 0.0446465 0)
(0 0.0561269 0)
(0 0.0564614 0)
(0 0.0443572 0)
(0 0.0552486 0)
(0 0.0242619 0)
(0 0.00676258 0)
(0 0.0377107 0)
(0 0.043666 0)
(0 0.0210272 0)
(0 0.00559836 0)
(0 0.0565384 0)
(0 0.0564552 0)
(0 0.0202579 0)
(0 0.055849 0)
(0 0.0564595 0)
(0 0.00614326 0)
(0 0.0560544 0)
(0 0.0563596 0)
(0 0.0565103 0)
(0 0.0548869 0)
(0 0.0565326 0)
(0 0.00983818 0)
(0 0.00988576 0)
(0 0.0436998 0)
(0 0.0010525 0)
(0 0.0187313 0)
(0 0.0491795 0)
(0 0.0564615 0)
(0 0.00225117 0)
(0 0.0431969 0)
(0 0.0470988 0)
(0 0.054603 0)
(0 0.053822 0)
(0 0.05648 0)
(0 0.0561369 0)
(0 0.0205383 0)
(0 0.0420088 0)
(0 0.0531408 0)
(0 0.0553157 0)
(0 0.0458152 0)
(0 0.0538113 0)
(0 0.0555975 0)
(0 0.0541815 0)
(0 0.0564915 0)
(0 0.0135581 0)
(0 0.055361 0)
(0 0.0563037 0)
(0 0.0130127 0)
(0 0.0565393 0)
(0 0.00680816 0)
(0 0.0100241 0)
(0 0.0559495 0)
(0 0.00796923 0)
(0 0.00478519 0)
(0 0.0562292 0)
(0 0.0565387 0)
(0 0.055643 0)
(0 0.0252042 0)
(0 0.0511963 0)
(0 0.0213635 0)
(0 0.056436 0)
(0 0.0562649 0)
(0 0.045103 0)
(0 0.0442806 0)
(0 0.0231378 0)
(0 0.0559155 0)
(0 0.0341062 0)
(0 0.0286407 0)
(0 0.00101203 0)
(0 0.0385068 0)
(0 0.0301417 0)
(0 0.0348803 0)
(0 0.0546404 0)
(0 0.00192494 0)
(0 0.056141 0)
(0 0.0119856 0)
(0 0.0391058 0)
(0 0.0514561 0)
(0 0.0565385 0)
(0 0.00554414 0)
(0 0.0533362 0)
(0 0.024844 0)
(0 0.0556456 0)
(0 0.0561765 0)
(0 0.0540714 0)
(0 0.0559853 0)
(0 0.0553923 0)
(0 0.0508495 0)
(0 0.0530828 0)
(0 0.0565373 0)
(0 0.0565202 0)
(0 0.0565399 0)
(0 0.0250937 0)
(0 0.036891 0)
(0 0.0206877 0)
(0 0.0380944 0)
(0 0.0565312 0)
(0 0.00815634 0)
(0 0.0445687 0)
(0 0.0537538 0)
(0 0.0565355 0)
(0 0.0552927 0)
(0 0.0538342 0)
(0 0.0565394 0)
(0 0.0201597 0)
(0 0.056301 0)
(0 0.0023249 0)
(0 0.0244388 0)
(0 0.0565362 0)
(0 0.00780472 0)
(0 0.0565066 0)
(0 0.000162854 0)
(0 0.00447301 0)
(0 0.0375293 0)
(0 0.0564759 0)
(0 0.0347433 0)
(0 0.0076178 0)
(0 0.0564361 0)
(0 0.0560203 0)
(0 0.0403795 0)
(0 0.0565237 0)
(0 0.0565381 0)
(0 0.0565099 0)
(0 0.00526884 0)
(0 0.0565399 0)
(0 0.000390064 0)
(0 0.0564354 0)
(0 0.0383474 0)
(0 0.0246652 0)
(0 0.00753321 0)
(0 0.000382195 0)
(0 0.0555458 0)
(0 0.0535599 0)
(0 0.00795644 0)
(0 0.00227626 0)
(0 0.00299309 0)
(0 0.0565212 0)
(0 0.0285646 0)
(0 0.0562593 0)
(0 0.0426511 0)
(0 0.00724827 0)
(0 0.000878484 0)
(0 0.0563109 0)
(0 0.0565001 0)
(0 0.0565393 0)
(0 0.0562873 0)
(0 0.0546424 0)
(0 0.0564855 0)
(0 0.0565398 0)
(0 0.0181951 0)
(0 0.0564622 0)
(0 0.00294224 0)
(0 0.0564364 0)
(0 0.0381333 0)
(0 0.0565094 0)
(0 0.0293155 0)
(0 0.0353893 0)
(0 0.0451014 0)
(0 0.0400749 0)
(0 0.055578 0)
(0 0.0565304 0)
(0 0.00208226 0)
(0 0.0554626 0)
(0 0.028278 0)
(0 0.00026532 0)
(0 0.0565396 0)
(0 0.0552118 0)
(0 0.0286776 0)
(0 0.0563663 0)
(0 0.0177725 0)
(0 0.0232015 0)
(0 0.000277972 0)
(0 0.0565393 0)
(0 0.0282721 0)
(0 0.0422464 0)
(0 0.00798898 0)
(0 0.0283526 0)
(0 0.0564707 0)
(0 0.000367619 0)
(0 0.0563742 0)
(0 0.00148098 0)
(0 0.0146865 0)
(0 0.0564473 0)
(0 0.0562782 0)
(0 0.0446177 0)
(0 0.05654 0)
(0 0.0565042 0)
(0 0.0517202 0)
(0 0.0562963 0)
(0 0.0193955 0)
(0 0.0493179 0)
(0 0.0565389 0)
(0 0.056513 0)
(0 0.0529161 0)
(0 0.0508546 0)
(0 0.0356932 0)
(0 0.00174962 0)
(0 0.0309382 0)
(0 0.000757335 0)
(0 0.0561992 0)
(0 0.0531138 0)
(0 0.0564931 0)
(0 0.0556279 0)
(0 0.0520735 0)
(0 0.0562882 0)
(0 0.0376136 0)
(0 0.0552527 0)
(0 0.056394 0)
(0 0.0565399 0)
(0 0.0238776 0)
(0 0.0383044 0)
(0 0.000556581 0)
(0 0.0147071 0)
(0 0.00232523 0)
(0 0.000846437 0)
(0 0.0215095 0)
(0 0.0047733 0)
(0 0.0565399 0)
(0 0.0557756 0)
(0 0.0047528 0)
(0 0.0563899 0)
(0 0.00228705 0)
(0 0.0565362 0)
(0 0.0237498 0)
(0 0.0283726 0)
(0 0.056539 0)
(0 0.0561523 0)
(0 0.0162189 0)
(0 0.0469845 0)
(0 0.00705953 0)
(0 0.0269147 0)
(0 0.0498905 0)
(0 0.0549908 0)
(0 0.0310285 0)
(0 0.0565399 0)
(0 0.0544537 0)
(0 0.0354881 0)
(0 0.0159839 0)
(0 0.0379805 0)
(0 0.0565381 0)
(0 0.0512206 0)
(0 0.002811 0)
(0 0.0286007 0)
(0 0.0565398 0)
(0 0.055692 0)
(0 0.0538375 0)
(0 0.0565399 0)
(0 0.0436503 0)
(0 0.015714 0)
(0 0.0275 0)
(0 0.05039 0)
(0 0.056532 0)
(0 0.0163643 0)
(0 0.0555729 0)
(0 0.0496329 0)
(0 0.0533616 0)
(0 0.0564431 0)
(0 0.0411977 0)
(0 0.0563557 0)
(0 0.0557893 0)
(0 0.0465181 0)
(0 0.0500947 0)
(0 0.00283319 0)
(0 0.0549296 0)
(0 0.0416895 0)
(0 0.0565154 0)
(0 0.0521079 0)
(0 0.0234496 0)
(0 0.0565399 0)
(0 0.00138391 0)
(0 0.0439778 0)
(0 0.0506797 0)
(0 0.051221 0)
(0 0.0539095 0)
(0 0.0565104 0)
(0 0.00167534 0)
(0 0.0562739 0)
(0 0.056499 0)
(0 0.000743123 0)
(0 0.0387901 0)
(0 0.052196 0)
(0 0.00351344 0)
(0 0.033521 0)
(0 0.0446336 0)
(0 0.0469649 0)
(0 0.0181287 0)
(0 0.0562953 0)
(0 0.0563723 0)
(0 0.0185465 0)
(0 0.0565187 0)
(0 0.054554 0)
(0 0.0546428 0)
(0 0.0563825 0)
(0 0.0431815 0)
(0 0.0562979 0)
(0 0.0553567 0)
(0 0.0063647 0)
(0 0.0561555 0)
(0 0.0560156 0)
(0 0.0557533 0)
(0 0.0276176 0)
(0 0.0218864 0)
(0 0.0306169 0)
(0 0.0565399 0)
(0 0.0494291 0)
(0 0.0237918 0)
(0 0.0559938 0)
(0 0.0318037 0)
(0 0.0246406 0)
(0 0.0562857 0)
(0 0.0553257 0)
(0 0.0467357 0)
(0 0.0551715 0)
(0 0.0543255 0)
(0 0.0565333 0)
(0 0.0447431 0)
(0 0.0436218 0)
(0 0.0564944 0)
(0 0.0243889 0)
(0 0.0307132 0)
(0 0.00140353 0)
(0 0.00239729 0)
(0 0.0465928 0)
(0 0.0521712 0)
(0 0.0541893 0)
(0 0.0271987 0)
(0 0.00673255 0)
(0 0.0368541 0)
(0 0.0386688 0)
(0 0.0508167 0)
(0 0.054863 0)
(0 0.00796053 0)
(0 0.0563154 0)
(0 0.0487794 0)
(0 0.0565003 0)
(0 0.0470192 0)
(0 0.00103595 0)
(0 0.0565378 0)
(0 0.0502124 0)
(0 0.0565399 0)
(0 0.0533869 0)
(0 0.0474154 0)
(0 0.0413133 0)
(0 0.0233881 0)
(0 0.0380396 0)
(0 0.0565374 0)
(0 0.0548601 0)
(0 0.0518999 0)
(0 0.05501 0)
(0 0.0326452 0)
(0 0.0557707 0)
(0 0.000263064 0)
(0 0.0291049 0)
(0 0.0330345 0)
(0 0.000365131 0)
(0 0.0565132 0)
(0 0.0534719 0)
(0 0.0476703 0)
(0 0.0564011 0)
(0 0.0428728 0)
(0 0.0110341 0)
(0 0.00289516 0)
(0 0.0559729 0)
(0 0.0193115 0)
(0 0.0430314 0)
(0 0.050235 0)
(0 0.0360476 0)
(0 0.0560061 0)
(0 0.0105878 0)
(0 0.0542644 0)
(0 0.0464089 0)
(0 0.0565399 0)
(0 0.0565399 0)
(0 0.0447705 0)
(0 0.0565335 0)
(0 0.0553166 0)
(0 0.0565399 0)
(0 0.0438358 0)
(0 0.0140292 0)
(0 0.0224967 0)
(0 0.0426854 0)
(0 0.049708 0)
(0 0.0241479 0)
(0 0.0549369 0)
(0 0.0324055 0)
(0 0.0524158 0)
(0 0.0435622 0)
(0 0.0565212 0)
(0 0.0490972 0)
(0 0.0555341 0)
(0 0.0558343 0)
(0 0.025216 0)
(0 0.0547854 0)
(0 0.0502404 0)
(0 0.0254954 0)
(0 0.0542025 0)
(0 0.00772726 0)
(0 0.056538 0)
(0 0.0562233 0)
(0 0.00608432 0)
(0 0.0266267 0)
(0 0.0334396 0)
(0 0.039704 0)
(0 0.0374238 0)
(0 0.0564964 0)
(0 0.0148691 0)
(0 0.0552706 0)
(0 0.0285466 0)
(0 0.0100354 0)
(0 0.0477524 0)
(0 0.032703 0)
(0 0.0562909 0)
(0 0.0308285 0)
(0 0.0157016 0)
(0 0.0156895 0)
(0 0.0564663 0)
(0 0.0496573 0)
(0 0.0563233 0)
(0 0.0190124 0)
(0 0.0552408 0)
(0 0.00758136 0)
(0 0.0376832 0)
(0 0.0565398 0)
(0 0.0023872 0)
(0 0.0503955 0)
(0 0.0563798 0)
(0 0.0565398 0)
(0 0.00767105 0)
(0 0.0435023 0)
(0 0.0564994 0)
(0 0.0182856 0)
(0 0.0427726 0)
(0 0.0367047 0)
(0 0.0565237 0)
(0 0.0316846 0)
(0 0.0564456 0)
(0 0.0450734 0)
(0 0.0565392 0)
(0 0.0482943 0)
(0 0.0562389 0)
(0 0.030585 0)
(0 0.00556848 0)
(0 0.00910919 0)
(0 0.00419327 0)
(0 0.0011961 0)
(0 0.0565366 0)
(0 0.0493495 0)
(0 0.0192579 0)
(0 0.0447158 0)
(0 0.0180461 0)
(0 0.0222714 0)
(0 0.056203 0)
(0 0.0501112 0)
(0 0.0565315 0)
(0 0.0548477 0)
(0 0.056357 0)
(0 0.0562735 0)
(0 0.0532111 0)
(0 0.0565391 0)
(0 0.0471472 0)
(0 0.0561801 0)
(0 0.0319255 0)
(0 0.0565399 0)
(0 0.0100671 0)
(0 0.0477266 0)
(0 0.00775675 0)
(0 0.024752 0)
(0 0.045306 0)
(0 0.00766267 0)
(0 0.0143932 0)
(0 0.0195729 0)
(0 0.0371987 0)
(0 0.0546385 0)
(0 0.00596163 0)
(0 0.0491019 0)
(0 0.0563186 0)
(0 0.0565153 0)
(0 0.0565058 0)
(0 0.0563631 0)
(0 0.039992 0)
(0 0.00932145 0)
(0 0.0299321 0)
(0 0.0564951 0)
(0 0.0337386 0)
(0 0.05654 0)
(0 0.00945841 0)
(0 0.0148204 0)
(0 0.00817622 0)
(0 0.0413691 0)
(0 0.0091854 0)
(0 0.0083338 0)
(0 0.0309959 0)
(0 0.0553127 0)
(0 0.0193386 0)
(0 0.0565393 0)
(0 0.0444306 0)
(0 0.0237049 0)
(0 0.0565369 0)
(0 0.0327907 0)
(0 0.0304685 0)
(0 0.0296794 0)
(0 0.0565391 0)
(0 0.0553371 0)
(0 0.00086009 0)
(0 0.0165176 0)
(0 0.0260808 0)
(0 0.0296965 0)
(0 0.0565218 0)
(0 0.0229656 0)
(0 0.055152 0)
(0 0.0507045 0)
(0 0.047745 0)
(0 0.0234688 0)
(0 0.0182359 0)
(0 0.0534091 0)
(0 0.0428546 0)
(0 0.0506944 0)
(0 0.0565397 0)
(0 0.0321004 0)
(0 0.00316046 0)
(0 0.0429802 0)
(0 0.0345316 0)
(0 0.0211153 0)
(0 0.0564083 0)
(0 0.0557502 0)
(0 0.0529709 0)
(0 0.0565397 0)
(0 0.056539 0)
(0 0.0425163 0)
(0 0.05642 0)
(0 0.0188766 0)
(0 0.0565398 0)
(0 0.0175846 0)
(0 0.0564171 0)
(0 0.0559493 0)
(0 0.0547059 0)
(0 0.0502351 0)
(0 0.0562637 0)
(0 0.0556622 0)
(0 0.0565285 0)
(0 0.00721231 0)
(0 0.0391504 0)
(0 0.00783377 0)
(0 0.0324599 0)
(0 0.0558015 0)
(0 0.0459678 0)
(0 0.0446391 0)
(0 0.0559634 0)
(0 0.0565398 0)
(0 0.0180748 0)
(0 0.0550677 0)
(0 0.0565398 0)
(0 0.000183428 0)
(0 0.00814273 0)
(0 0.0448324 0)
(0 0.0565323 0)
(0 0.0494527 0)
(0 0.000323964 0)
(0 0.054517 0)
(0 0.0429302 0)
(0 0.0288464 0)
(0 0.0467601 0)
(0 0.0503219 0)
(0 0.042052 0)
(0 0.035726 0)
(0 0.00741754 0)
(0 0.0168941 0)
(0 0.0334103 0)
(0 0.0317407 0)
(0 0.0565399 0)
(0 0.0473597 0)
(0 0.048754 0)
(0 0.00872461 0)
(0 0.0565398 0)
(0 0.0087894 0)
(0 0.00733096 0)
(0 0.0531978 0)
(0 0.0492571 0)
(0 0.0508802 0)
(0 0.00749431 0)
(0 0.0564971 0)
(0 0.0235885 0)
(0 0.0398547 0)
(0 0.0561283 0)
(0 0.031654 0)
(0 0.000605273 0)
(0 0.0562914 0)
(0 0.0564516 0)
(0 0.0562673 0)
(0 0.0564086 0)
(0 0.0166551 0)
(0 0.0564032 0)
(0 0.0565388 0)
(0 0.00169272 0)
(0 0.0564156 0)
(0 0.00842013 0)
(0 0.0558723 0)
(0 0.0561552 0)
(0 0.0329819 0)
(0 0.0535794 0)
(0 0.0246992 0)
(0 0.0536359 0)
(0 0.0522391 0)
(0 0.0490702 0)
(0 0.0564994 0)
(0 0.0553384 0)
(0 0.0560553 0)
(0 0.0564527 0)
(0 0.00264316 0)
(0 0.056433 0)
(0 0.0506076 0)
(0 0.0419427 0)
(0 0.0340134 0)
(0 0.0165964 0)
(0 0.00616823 0)
(0 0.0169002 0)
(0 0.0504336 0)
(0 0.0565302 0)
(0 0.0202137 0)
(0 0.0492587 0)
(0 0.0535461 0)
(0 0.0472728 0)
(0 0.0421898 0)
(0 0.0559022 0)
(0 0.0563335 0)
(0 0.0401093 0)
(0 0.0257716 0)
(0 0.0542294 0)
(0 0.00879505 0)
(0 0.0511461 0)
(0 0.0565389 0)
(0 0.047397 0)
(0 0.0323986 0)
(0 0.0555767 0)
(0 0.0240622 0)
(0 0.0494982 0)
(0 0.0565385 0)
(0 0.0565399 0)
(0 0.0459293 0)
(0 0.0558201 0)
(0 0.0514385 0)
(0 0.0565399 0)
(0 0.0551235 0)
(0 0.0537514 0)
(0 0.0565224 0)
(0 0.0279793 0)
(0 0.0562052 0)
(0 0.0565145 0)
(0 0.0564943 0)
(0 0.0346719 0)
(0 0.0507603 0)
(0 0.0117402 0)
(0 0.0385051 0)
(0 0.00244194 0)
(0 0.042732 0)
(0 0.0395747 0)
(0 0.0565162 0)
(0 0.00235739 0)
(0 0.055774 0)
(0 0.0111348 0)
(0 0.0562459 0)
(0 0.0565067 0)
(0 0.0500503 0)
(0 0.0564296 0)
(0 0.0551734 0)
(0 0.0336202 0)
(0 0.0563667 0)
(0 0.0502089 0)
(0 0.0495822 0)
(0 0.0340762 0)
(0 0.0565398 0)
(0 0.0562691 0)
(0 0.0565398 0)
(0 0.0534336 0)
(0 0.0564956 0)
(0 0.0560003 0)
(0 0.00723666 0)
(0 0.0450576 0)
(0 0.0554024 0)
(0 0.00749857 0)
(0 0.0333289 0)
(0 0.056237 0)
(0 0.0341676 0)
(0 0.0522592 0)
(0 0.0535426 0)
(0 0.0501314 0)
(0 0.0495557 0)
(0 0.0561563 0)
(0 0.0562111 0)
(0 0.0271433 0)
(0 0.0561941 0)
(0 0.0479937 0)
(0 0.0429331 0)
(0 0.0289832 0)
(0 0.019097 0)
(0 0.0565285 0)
(0 0.0564793 0)
(0 0.0217469 0)
(0 0.0554666 0)
(0 0.00671861 0)
(0 0.0431959 0)
(0 0.05654 0)
(0 0.0440258 0)
(0 0.00922645 0)
(0 0.0117038 0)
(0 0.0344244 0)
(0 0.00188284 0)
(0 0.0501123 0)
(0 0.0565291 0)
(0 0.0382471 0)
(0 0.0536941 0)
(0 0.0163313 0)
(0 0.0069247 0)
(0 0.0563505 0)
(0 0.0565304 0)
(0 0.0564889 0)
(0 0.0473727 0)
(0 0.00472788 0)
(0 0.0103798 0)
(0 0.0487522 0)
(0 0.0563415 0)
(0 0.0565375 0)
(0 0.00629686 0)
(0 0.055882 0)
(0 0.0530015 0)
(0 0.0560931 0)
(0 0.0534098 0)
(0 0.00651938 0)
(0 0.0519417 0)
(0 0.0564281 0)
(0 0.0243068 0)
(0 0.0550011 0)
(0 0.0067354 0)
(0 0.0193265 0)
(0 0.0466884 0)
(0 0.0565388 0)
(0 0.0558666 0)
(0 0.0160384 0)
(0 0.0565117 0)
(0 0.0561878 0)
(0 0.0271118 0)
(0 0.0562741 0)
(0 0.00299272 0)
(0 0.012325 0)
(0 0.0564681 0)
(0 0.0358037 0)
(0 0.0242552 0)
(0 0.0457335 0)
(0 0.0563901 0)
(0 0.0542186 0)
(0 0.0497288 0)
(0 0.0102838 0)
(0 0.0298619 0)
(0 0.0224383 0)
(0 0.0319353 0)
(0 0.054731 0)
(0 0.0552922 0)
(0 0.0565399 0)
(0 0.0543415 0)
(0 0.0540824 0)
(0 0.0554837 0)
(0 0.0559578 0)
(0 0.0249182 0)
(0 0.0537359 0)
(0 0.0563912 0)
(0 0.0565098 0)
(0 0.0565349 0)
(0 0.0480871 0)
(0 0.0100813 0)
(0 0.0565399 0)
(0 0.00821605 0)
(0 0.00883811 0)
(0 0.0515125 0)
(0 0.0548873 0)
(0 0.0463702 0)
(0 0.00827963 0)
(0 0.0565175 0)
(0 0.0540188 0)
(0 0.0474604 0)
(0 0.0325344 0)
(0 0.0561833 0)
(0 0.0565139 0)
(0 0.0565398 0)
(0 0.0365273 0)
(0 0.0388279 0)
(0 0.05096 0)
(0 0.00115805 0)
(0 0.0126995 0)
(0 0.0558406 0)
(0 0.0351114 0)
(0 0.0533701 0)
(0 0.0554514 0)
(0 0.0494413 0)
(0 0.0565294 0)
(0 0.0236354 0)
(0 0.045644 0)
(0 0.0495723 0)
(0 0.00965289 0)
(0 0.0565088 0)
(0 0.0251182 0)
(0 0.0216927 0)
(0 0.0560026 0)
(0 0.0562328 0)
(0 0.0561471 0)
(0 0.0565034 0)
(0 0.0199417 0)
(0 0.0551939 0)
(0 0.0248125 0)
(0 0.0262601 0)
(0 0.0427272 0)
(0 0.00596825 0)
(0 0.04383 0)
(0 0.0565048 0)
(0 0.0435982 0)
(0 0.0561377 0)
(0 0.033634 0)
(0 0.0189242 0)
(0 0.0435004 0)
(0 0.0063965 0)
(0 0.029458 0)
(0 0.0565399 0)
(0 0.00657987 0)
(0 0.0519047 0)
(0 0.0562998 0)
(0 0.00483996 0)
(0 0.056123 0)
(0 0.0554585 0)
(0 0.0552442 0)
(0 0.0417216 0)
(0 0.0295432 0)
(0 0.0234341 0)
(0 0.0192135 0)
(0 0.00595626 0)
(0 0.0513 0)
(0 0.0227264 0)
(0 0.00375565 0)
(0 0.0266937 0)
(0 0.0100808 0)
(0 0.0534349 0)
(0 0.031747 0)
(0 0.0565316 0)
(0 0.0558191 0)
(0 0.01875 0)
(0 0.0174384 0)
(0 0.0156137 0)
(0 0.0557736 0)
(0 0.0171268 0)
(0 0.0555196 0)
(0 0.0310524 0)
(0 0.000146327 0)
(0 0.0191925 0)
(0 0.0560786 0)
(0 0.0477463 0)
(0 0.0565052 0)
(0 0.0111531 0)
(0 0.00631994 0)
(0 0.0527904 0)
(0 0.00585533 0)
(0 0.0163093 0)
(0 0.0565391 0)
(0 0.0412515 0)
(0 0.00372147 0)
(0 0.0558895 0)
(0 0.0562625 0)
(0 0.0565399 0)
(0 0.0065131 0)
(0 0.0537829 0)
(0 0.0559111 0)
(0 0.0173919 0)
(0 0.0138234 0)
(0 0.0565095 0)
(0 0.032897 0)
(0 0.000570438 0)
(0 0.0561739 0)
(0 0.0138535 0)
(0 0.0565386 0)
(0 0.00673914 0)
(0 0.0276865 0)
(0 0.0379853 0)
(0 0.0142633 0)
(0 0.0565377 0)
(0 0.000617132 0)
(0 0.0103853 0)
(0 0.0563328 0)
(0 0.0210768 0)
(0 0.0238996 0)
(0 0.00711961 0)
(0 0.0132193 0)
(0 0.0560335 0)
(0 0.0457466 0)
(0 0.0415058 0)
(0 0.0123864 0)
(0 0.0557655 0)
(0 0.0424878 0)
(0 0.0132 0)
(0 0.0139843 0)
(0 0.049149 0)
(0 0.016342 0)
(0 0.0534877 0)
(0 0.0376103 0)
(0 0.0229423 0)
(0 0.0461792 0)
(0 0.00852462 0)
(0 0.0484852 0)
(0 0.0415241 0)
(0 0.0533982 0)
(0 0.0155532 0)
(0 0.0563083 0)
(0 0.0387098 0)
(0 0.0519601 0)
(0 0.0209179 0)
(0 0.043517 0)
(0 0.031327 0)
(0 0.00711461 0)
(0 0.0543606 0)
(0 0.0479455 0)
(0 0.0543569 0)
(0 0.0561764 0)
(0 0.00990634 0)
(0 0.0565387 0)
(0 0.0565329 0)
(0 0.0563329 0)
(0 0.0565338 0)
(0 0.039261 0)
(0 0.0409114 0)
(0 0.0554864 0)
(0 0.0564029 0)
(0 0.0103352 0)
(0 0.0565398 0)
(0 0.0178081 0)
(0 0.0564579 0)
(0 0.0430398 0)
(0 0.0532648 0)
(0 0.0562906 0)
(0 0.0542752 0)
(0 0.0560067 0)
(0 0.00306027 0)
(0 0.056067 0)
(0 0.0245653 0)
(0 0.0213868 0)
(0 0.0535823 0)
(0 0.0565383 0)
(0 0.0565395 0)
(0 0.0450911 0)
(0 0.0421274 0)
(0 0.0557258 0)
(0 0.00106954 0)
(0 0.0564163 0)
(0 0.000881303 0)
(0 0.0504549 0)
(0 0.0144424 0)
(0 0.000522699 0)
(0 0.0565398 0)
(0 0.0137574 0)
(0 0.0555291 0)
(0 0.0435903 0)
(0 0.0554647 0)
(0 0.0562186 0)
(0 0.0421606 0)
(0 0.0216154 0)
(0 0.0565264 0)
(0 0.02541 0)
(0 0.0334557 0)
(0 0.0494752 0)
(0 0.0176307 0)
(0 0.0564093 0)
(0 0.0481508 0)
(0 0.0548713 0)
(0 0.0565398 0)
(0 0.0321665 0)
(0 0.0543553 0)
(0 0.0457151 0)
(0 0.000662949 0)
(0 0.0558341 0)
(0 0.0216868 0)
(0 0.0201108 0)
(0 0.0547998 0)
(0 0.00082145 0)
(0 0.00308678 0)
(0 0.0537011 0)
(0 0.0411199 0)
(0 0.0564469 0)
(0 0.0493306 0)
(0 0.0191111 0)
(0 0.0272648 0)
(0 0.00558346 0)
(0 0.0159789 0)
(0 0.0321335 0)
(0 0.056388 0)
(0 0.044342 0)
(0 0.0356333 0)
(0 0.0232305 0)
(0 0.0263392 0)
(0 0.0438261 0)
(0 0.0444899 0)
(0 0.0565313 0)
(0 0.00265562 0)
(0 0.0551318 0)
(0 0.0497526 0)
(0 0.0252089 0)
(0 0.0565132 0)
(0 0.0423769 0)
(0 0.00147833 0)
(0 0.0565399 0)
(0 0.0564019 0)
(0 0.056539 0)
(0 0.0245501 0)
(0 0.0565352 0)
(0 0.0549229 0)
(0 0.0406566 0)
(0 0.0565398 0)
(0 0.0422594 0)
(0 0.0479497 0)
(0 0.0564996 0)
(0 0.0477208 0)
(0 0.0526507 0)
(0 0.0565398 0)
(0 0.0518633 0)
(0 0.0562453 0)
(0 0.0428375 0)
(0 0.0565283 0)
(0 0.0339681 0)
(0 0.0325221 0)
(0 0.0249272 0)
(0 0.0565399 0)
(0 0.0346351 0)
(0 0.00830431 0)
(0 0.0408202 0)
(0 0.0389873 0)
(0 0.0240613 0)
(0 0.00970371 0)
(0 0.0553873 0)
(0 0.0543879 0)
(0 0.0319053 0)
(0 0.0528945 0)
(0 0.0565372 0)
(0 0.0520857 0)
(0 0.05623 0)
(0 0.0561247 0)
(0 0.0207973 0)
(0 0.0563594 0)
(0 0.0550436 0)
(0 0.0493403 0)
(0 0.0564858 0)
(0 0.00581078 0)
(0 0.0563744 0)
(0 0.0565399 0)
(0 0.0245583 0)
(0 0.05654 0)
(0 0.018818 0)
(0 0.0565342 0)
(0 0.0563944 0)
(0 0.0515645 0)
(0 0.0429427 0)
(0 0.0325935 0)
(0 0.0442497 0)
(0 0.0305405 0)
(0 0.0512819 0)
(0 0.0182812 0)
(0 0.0416991 0)
(0 0.0565313 0)
(0 0.055908 0)
(0 0.0565171 0)
(0 0.0350852 0)
(0 0.0540167 0)
(0 0.0565385 0)
(0 0.0248495 0)
(0 0.0431973 0)
(0 0.0565279 0)
(0 0.0160517 0)
(0 0.0299718 0)
(0 0.0564975 0)
(0 0.0563987 0)
(0 0.0562035 0)
(0 0.0435925 0)
(0 0.0565049 0)
(0 0.0543684 0)
(0 0.0473544 0)
(0 0.0565363 0)
(0 0.0565053 0)
(0 0.0344259 0)
(0 0.0134536 0)
(0 0.056221 0)
(0 0.0557252 0)
(0 0.0559138 0)
(0 0.0401921 0)
(0 0.054659 0)
(0 0.0558093 0)
(0 0.0550931 0)
(0 0.0440216 0)
(0 0.0187272 0)
(0 0.053416 0)
(0 0.0565398 0)
(0 0.0533842 0)
(0 0.0303083 0)
(0 0.0314632 0)
(0 0.0515381 0)
(0 0.0235495 0)
(0 0.0565385 0)
(0 0.0540792 0)
(0 0.0105914 0)
(0 0.0562228 0)
(0 0.0191234 0)
(0 0.0131673 0)
(0 0.0554014 0)
(0 0.0551163 0)
(0 0.0409193 0)
(0 0.0565371 0)
(0 0.0225976 0)
(0 0.0565379 0)
(0 0.021825 0)
(0 0.0565396 0)
(0 0.056511 0)
(0 0.0564989 0)
(0 0.00698062 0)
(0 0.0530372 0)
(0 0.0520721 0)
(0 0.0544294 0)
(0 0.0561225 0)
(0 0.0562843 0)
(0 0.0565311 0)
(0 0.0550219 0)
(0 0.000281214 0)
(0 0.0532277 0)
(0 0.0252814 0)
(0 0.056389 0)
(0 0.05654 0)
(0 0.000647906 0)
(0 0.0116002 0)
(0 0.0502308 0)
(0 0.056219 0)
(0 0.0543424 0)
(0 0.0228872 0)
(0 0.0552156 0)
(0 0.0561788 0)
(0 0.0183166 0)
(0 0.0187902 0)
(0 0.0500045 0)
(0 0.0565378 0)
(0 0.047905 0)
(0 0.0208071 0)
(0 0.0565317 0)
(0 0.0547889 0)
(0 0.0498589 0)
(0 0.056493 0)
(0 0.0289495 0)
(0 0.0534456 0)
(0 0.0565373 0)
(0 0.00123935 0)
(0 0.0548831 0)
(0 0.0555801 0)
(0 0.0562213 0)
(0 0.0563825 0)
(0 0.0565349 0)
(0 0.0422883 0)
(0 0.0510679 0)
(0 0.0549286 0)
(0 0.0139146 0)
(0 0.0564655 0)
(0 0.0561463 0)
(0 0.0559537 0)
(0 0.0564518 0)
(0 0.0557806 0)
(0 0.0433704 0)
(0 0.0562651 0)
(0 0.0565334 0)
(0 0.0534235 0)
(0 0.0563179 0)
(0 8.22323e-05 0)
(0 0.0465598 0)
(0 0.0422527 0)
(0 0.0226764 0)
(0 0.0565149 0)
(0 0.0549389 0)
(0 0.00630539 0)
(0 0.0518215 0)
(0 0.0564923 0)
(0 0.028041 0)
(0 0.0350451 0)
(0 0.0565305 0)
(0 0.000725145 0)
(0 0.0439892 0)
(0 5.38748e-05 0)
(0 0.0474289 0)
(0 0.0560259 0)
(0 0.0342395 0)
(0 0.0565007 0)
(0 0.0550747 0)
(0 0.0561031 0)
(0 0.0499088 0)
(0 0.0558659 0)
(0 0.0470847 0)
(0 0.0505807 0)
(0 0.0532839 0)
(0 0.0408657 0)
(0 0.0478291 0)
(0 0.00592203 0)
(0 0.021832 0)
(0 0.0565367 0)
(0 0.0564224 0)
(0 0.0527011 0)
(0 0.0564829 0)
(0 0.0356841 0)
(0 0.044313 0)
(0 0.0521678 0)
(0 0.0185681 0)
(0 0.0193872 0)
(0 0.0553837 0)
(0 0.0536616 0)
(0 0.0565397 0)
(0 0.0561214 0)
(0 0.0564322 0)
(0 0.0431173 0)
(0 0.0563711 0)
(0 0.0318004 0)
(0 0.0565199 0)
(0 0.0123709 0)
(0 0.0564536 0)
(0 0.0562827 0)
(0 0.0069181 0)
(0 0.0561898 0)
(0 0.0565399 0)
(0 0.0532944 0)
(0 0.00547194 0)
(0 0.00133062 0)
(0 0.0531403 0)
(0 0.0564515 0)
(0 0.0168378 0)
(0 0.0470169 0)
(0 0.00327349 0)
(0 0.00165445 0)
(0 0.0565005 0)
(0 0.00555859 0)
(0 0.0536193 0)
(0 0.0152941 0)
(0 0.0023737 0)
(0 0.0564923 0)
(0 0.0552743 0)
(0 0.0454588 0)
(0 0.0563914 0)
(0 0.0513465 0)
(0 0.0565378 0)
(0 0.0504885 0)
(0 0.00364251 0)
(0 0.046044 0)
(0 0.0565384 0)
(0 0.0407514 0)
(0 0.0562248 0)
(0 0.0444348 0)
(0 0.0565318 0)
(0 0.0317127 0)
(0 0.0381898 0)
(0 0.0438053 0)
(0 0.0565076 0)
(0 0.0286175 0)
(0 0.019993 0)
(0 0.0105723 0)
(0 0.0564817 0)
(0 0.0565395 0)
(0 0.0562095 0)
(0 0.0290973 0)
(0 0.0479147 0)
(0 0.0202508 0)
(0 0.0565398 0)
(0 5.1343e-05 0)
(0 0.056519 0)
(0 0.0562155 0)
(0 0.0359314 0)
(0 0.0563395 0)
(0 0.0509823 0)
(0 0.00607442 0)
(0 0.0498758 0)
(0 0.0127142 0)
(0 0.05438 0)
(0 0.0528662 0)
(0 0.0558132 0)
(0 0.0461912 0)
(0 0.0451634 0)
(0 0.0311582 0)
(0 0.0565387 0)
(0 0.0059201 0)
(0 0.00545456 0)
(0 0.0565345 0)
(0 0.0496742 0)
(0 0.0247358 0)
(0 0.0534371 0)
(0 0.0276854 0)
(0 0.023961 0)
(0 0.0376376 0)
(0 0.0532443 0)
(0 0.0543811 0)
(0 0.00535107 0)
(0 0.00473481 0)
(0 0.0548186 0)
(0 0.0464599 0)
(0 0.0562423 0)
(0 0.0554572 0)
(0 0.00594983 0)
(0 0.00738806 0)
(0 0.00441086 0)
(0 0.0337995 0)
(0 0.0511371 0)
(0 0.0560855 0)
(0 0.0565399 0)
(0 0.0565326 0)
(0 0.0242676 0)
(0 0.0175208 0)
(0 0.0544269 0)
(0 0.0565207 0)
(0 0.0363101 0)
(0 0.0198902 0)
(0 0.0565352 0)
(0 0.0565302 0)
(0 0.00469393 0)
(0 0.0514694 0)
(0 0.0484235 0)
(0 0.0435249 0)
(0 0.0565366 0)
(0 0.0103579 0)
(0 0.00948298 0)
(0 0.0551769 0)
(0 0.0565065 0)
(0 0.04526 0)
(0 0.0517187 0)
(0 0.0477206 0)
(0 0.056455 0)
(0 0.0565054 0)
(0 0.0111762 0)
(0 0.0565087 0)
(0 0.0483607 0)
(0 0.0292931 0)
(0 0.0564524 0)
(0 0.0562029 0)
(0 0.0549122 0)
(0 0.0505248 0)
(0 0.0535294 0)
(0 0.0482949 0)
(0 0.00465349 0)
(0 0.051347 0)
(0 0.0458576 0)
(0 0.0528017 0)
(0 0.0544027 0)
(0 0.0231897 0)
(0 0.053447 0)
(0 0.0565095 0)
(0 0.0561968 0)
(0 0.0161245 0)
(0 0.0560869 0)
(0 0.0563539 0)
(0 0.0552181 0)
(0 0.0232318 0)
(0 0.0429257 0)
(0 0.00619262 0)
(0 0.0565269 0)
(0 0.0517065 0)
(0 0.0313153 0)
(0 0.0563396 0)
(0 0.0563164 0)
(0 0.00538461 0)
(0 0.0565399 0)