/*--------------------------------*- C++ -*----------------------------------*\
| =========                 |                                                 |
| \\      /  F ield         | OpenFOAM: The Open Source CFD Toolbox           |
|  \\    /   O peration     | Version:  v2012                                 |
|   \\  /    A nd           | Website:  www.openfoam.com                      |
|    \\/     M anipulation  |                                                 |
\*---------------------------------------------------------------------------*/
FoamFile
{
    version     2.0;
    format      ascii;
    class       surfaceScalarField;
    location    "550";
    object      meshPhi;
}
// * * * * * * * * * * * * * * * * * * * * * * * * * * * * * * * * * * * * * //

dimensions      [0 3 -1 0 0 0 0];
oriented        oriented;


internalField   nonuniform List<scalar> 
20642
(
-0.00121123
-0.000194864
0.00140609
0.00389008
-0.00666286
0.00276301
0.000768198
0.00119481
-0.00196315
0.000715155
-0.00531308
0.00456677
0.00530882
-0.00770721
0.00236918
0.00680287
-0.00292562
-0.00218333
0.00474583
-0.00257027
0.00805288
-0.00457381
-0.00348506
0.00210365
0.00198975
-0.00410078
0.00119767
0.000181547
0.00351991
0.00452666
0.00696241
-0.00599873
-0.00101884
-0.000297146
-0.000239888
0.00463209
-0.00703027
0.00239543
0.00558832
-0.00745225
0.00184146
-0.000111726
-0.0010995
-0.000158409
-0.00012431
0.000187652
-0.00789603
0.00348002
0.00440952
0.00289271
-0.00205014
-0.00084301
-0.00146448
0.00080489
0.000659592
0.00562691
-0.00365483
-0.00198042
0.00128779
0.00448418
-0.00583934
0.00168303
0.00146497
-0.00314969
-0.00505875
0.00627282
0.00637265
-0.00331266
-0.00307862
-0.00597729
0.00237032
0.00359882
-0.00496627
0.00280019
0.00216517
0.00119767
-0.00704445
0.00259171
0.00444464
-5.98257e-06
-0.000128205
0.000130636
0.00105206
0.000145617
0.00363445
-0.00129922
-0.00233598
-0.00642953
0.00429313
0.00210263
-0.00141791
0.000715455
0.000702448
-0.000312773
0.00461866
-0.00438236
0.000606936
-0.00518557
0.00517148
0.000588504
-0.00578311
0.000171416
-0.000624292
0.000141289
-0.00435972
0.00216932
0.0035509
-0.0053944
0.00183709
2.01905e-06
4.30494e-05
-0.000103555
0.00266736
-0.0040215
0.00131069
-0.00585545
0.0006894
0.00515251
0.00123591
0.000976076
-0.00221232
0.0026039
-0.00136842
-0.000807828
0.00245844
-0.00165106
0.00503446
0.000580793
-0.00193843
0.00117579
0.000762625
-0.00326409
-0.00296209
0.00622432
0.00340775
-0.00378222
0.000624612
0.00627835
0.00100376
-0.0030964
0.00209182
-0.000794622
0.00130401
-0.000509387
-0.00602106
0.00705891
-0.00110564
-0.00751531
0.00570378
0.00174728
0.00261541
-0.00161224
0.00105206
-0.00161881
0.00329988
0.00411743
-0.00149494
-0.00287672
0.00206831
0.00315688
-0.00167827
-0.00147867
-0.0021798
-0.00326033
0.00540771
1.82087e-05
1.39024e-06
-2.7951e-05
0.00232518
0.00402634
0.00130937
0.000160648
-0.00147006
-0.000246869
0.000157398
8.85627e-05
0.00293628
-0.00690756
0.00396428
0.00487009
-0.00426772
-0.00438231
0.00134456
-0.000812196
-0.000532368
0.00039372
0.00122607
-0.00161986
-0.00103228
-0.000385632
0.00750022
-0.00638971
-0.00117655
0.0030625
0.00100054
-0.00573238
0.00206986
0.00765827
-0.00389178
-0.00378623
0.00481241
-0.00726021
0.00241608
0.00414697
-0.00113915
0.00300429
0.00463097
-0.00400771
-0.00244471
-0.00489895
-0.00234392
0.00718982
-0.000184507
-0.000184705
0.000237238
0.00101431
0.00640813
-0.00201564
0.00120852
0.000807065
0.00352714
-0.00316798
-0.000667176
0.00712188
-0.00299748
-0.00412861
0.00198699
0.00164656
-0.00103992
-0.000805774
0.00145849
0.00512698
-0.00158298
0.000101262
-0.000341995
0.000112163
0.00035824
-0.000553947
-0.00417477
0.00401127
-0.00727746
0.000494867
-0.00461396
0.004037
0.00123387
0.00532223
-0.00660126
-0.00411547
-0.00652981
0.00351676
0.00301119
-0.000289808
-0.000213369
0.000322493
-0.00198944
0.000643754
-0.00332912
0.00545777
-0.00213147
-5.72366e-05
-4.102e-05
6.59305e-05
1.60602e-05
-9.66328e-05
-0.00682866
0.00188431
-0.000673815
-9.82051e-05
0.000607443
0.0076814
-0.00291113
0.00144173
0.00014338
-0.00158514
0.00122252
0.000233435
-0.00145597
0.00408146
-0.00629846
-0.00123312
-0.00283072
-0.00235206
-0.00261525
0.000987977
-0.00276267
0.00152888
-0.000813426
0.00667608
-0.00409187
-0.000410596
0.00171993
-0.000410065
-0.00392925
0.00432329
0.00164976
0.00124246
0.00030236
-0.000367981
-5.31878e-06
-0.00131417
-0.000965485
0.00227947
-0.00158461
-0.00460317
0.00611184
-0.000494441
0.000183677
-0.00408698
0.00149335
0.0025344
-0.00273192
-0.00418274
-0.00168645
-0.00109893
0.00278464
-0.000858249
0.0013834
-0.000525152
-0.000885741
-0.00112993
-0.0057152
0.00196723
0.00372789
-0.00188673
-0.00385372
-0.00465853
-0.00108253
0.00564379
0.00104159
-0.00272863
0.00417862
-0.00122675
-0.00295483
-0.00128549
0.00318556
-0.00190089
0.00160659
-0.00102004
-0.000586551
-0.00478228
0.00435426
0.00294881
-0.000834456
-0.00211494
-0.00518363
0.00283048
-0.00309862
0.00161337
0.00148517
-0.000746401
-0.000528038
0.00127444
-0.00682094
0.00266386
0.00414828
-0.000154659
-0.00642115
0.006592
-0.000172369
0.00145255
0.00263989
-0.000509595
0.0019513
-0.00129655
0.00523525
-0.00404288
0.00663277
-0.00604224
-0.000661667
-0.00337728
-0.000739588
0.00408222
0.00157041
-0.00117675
0.00747028
0.000386694
0.00087845
-0.00126515
0.00120495
-0.00729971
-0.00378385
0.0052969
-0.00151996
5.62905e-05
1.79046e-05
-0.000103333
0.00565895
0.000897582
-0.00252335
-0.0040082
0.00665227
-0.00541601
-0.00128835
0.000121162
-0.000950243
0.000996591
0.000387271
-0.00138387
-7.44541e-05
-9.59618e-05
0.000109296
2.18778e-05
0.000221266
0.00615369
-0.00487116
-0.00148505
0.000703137
0.00109412
-0.00179732
-0.00774049
0.00279486
0.00492378
0.000126532
-0.00105214
-0.00117143
0.00222352
-0.0054555
0.00281184
0.00264188
0.000313163
-0.00117129
0.00236739
-0.00119615
4.08971e-05
-4.02463e-05
-1.65643e-06
-0.00250458
-0.00432489
0.00945729
-0.00552866
-0.00399735
0.000492843
0.00100027
-0.00149312
0.00513409
0.0033161
-0.00217387
-0.00114241
-0.00088898
0.00293092
-0.00204326
6.37929e-05
-0.000167658
6.20202e-05
-0.00423937
0.00492622
0.00144447
-0.00310089
0.0016557
0.00134408
0.00283087
-0.00433241
-0.00342664
-0.00519048
0.00560794
-0.000430989
0.00432006
0.00582867
-0.00525366
-0.000599644
0.00200092
-0.00140157
0.000740028
-0.00205439
0.00217135
-0.0034578
0.00611074
-0.000336713
-0.00256486
0.00196479
-0.000190839
0.000181224
0.00377643
0.00334148
0.00259994
-0.00349065
0.00146464
0.00113882
-0.00287551
0.0013592
0.00151585
-0.000865807
0.00140823
-0.000542421
-0.00323978
0.00367217
-0.000637661
0.00137434
-0.000736684
0.00135606
-0.00477165
0.00340536
0.000965385
0.000641191
-0.00108539
0.00562892
0.0055268
0.00106693
-0.00245314
-0.00314514
0.00558738
-0.0010778
-0.000335161
0.00141297
0.000302456
-0.00104886
0.00685164
-0.00512295
-0.00175489
-0.00324828
0.00417614
-0.000928614
-0.00448857
-0.00157089
0.00604805
0.00133661
-0.00268807
-0.0016526
0.0051105
-0.00750693
-0.00396167
0.00475689
-0.000923458
-0.00816519
0.00355553
0.00458883
-0.00549871
-0.00268438
0.00156247
0.00230437
0.000643889
-0.00332056
-0.000758311
-0.000894741
0.00165302
-0.000291356
0.000855535
-0.000902658
-0.000119601
-0.00153837
0.00160142
-0.00155342
0.00138005
0.00110987
-0.0030993
0.00162083
0.00147798
0.00113212
-0.00275873
0.00162624
0.00450587
-0.00425199
-0.000600785
-3.47018e-06
1.53282e-05
-0.00268663
-0.00249792
0.000666347
0.00218021
-0.00142606
-0.000814498
0.00127586
0.000838707
-6.99942e-05
2.75694e-05
-8.17992e-05
-0.00152446
-0.00161325
0.0014772
-0.000806943
-0.000225334
-0.000844623
-0.000912431
0.00175704
-0.00730191
0.00442433
0.002825
5.04596e-05
-7.81515e-05
2.3483e-05
-0.00243404
-0.0013123
0.00374502
0.000620279
-0.00134007
0.000719793
-0.000276469
9.62114e-05
0.000110591
0.000192122
0.00394449
0.00163037
-0.00487939
-0.00102865
-0.000702194
0.00173082
-0.00109874
0.000803031
-0.00156137
0.00147151
0.00199737
-0.00347002
0.00333776
-0.00472666
0.00106034
0.00130701
0.00050354
-0.00293867
0.00251824
0.00415067
0.00332234
-0.00226829
-0.00105485
0.00495731
0.00186723
0.000717838
-0.000900929
0.00489778
-0.00405735
0.00470613
-0.00344708
-0.001262
-0.0040447
0.00246724
0.00157551
-0.00820227
0.00326793
0.00487559
-7.57774e-06
-0.00340796
-0.00622687
0.00789087
-0.00169969
0.00355686
0.00122673
-0.00484493
0.00134809
-0.00053273
-0.000815363
-0.00601648
0.00141253
0.00460248
-0.00441451
0.00142644
0.00292092
-0.000236506
0.00144451
0.00139455
-0.00686131
-0.00151684
0.00121426
-0.00557182
-0.00107529
0.000241796
0.00408082
-0.00291029
-0.0011739
-0.0018464
-0.00262622
-0.00127854
0.000826737
-0.000530307
0.0017528
-0.00841134
0.00275706
0.00555404
0.00557377
-0.00790435
0.00229356
0.00128796
0.00179326
-0.00308172
0.000197854
-0.00136574
0.00112487
0.0018055
-0.00432208
0.00251415
0.000791047
0.000557044
0.00132788
-0.00117182
0.00066479
0.000679774
-0.00127809
0.00477172
0.00195215
-0.00124909
-6.12685e-05
8.03917e-05
-0.00508459
-0.00186957
0.00692977
-0.00495513
-0.00329095
-0.0052982
-0.00117016
0.00634262
-0.0017389
0.00232964
-0.000591037
-0.000438242
-0.00030177
0.000478305
-0.00284748
-0.00260984
0.00144779
-0.00452934
0.00307424
4.14347e-05
-0.00344932
-0.00224384
-0.0020842
0.00432677
-0.000531816
-0.000179593
-0.000157368
0.00225288
-0.00385044
0.00159566
-0.00692827
-0.00056049
0.00744887
0.000946438
-0.00507213
0.00410872
-0.00186046
0.0071366
0.00660524
-0.0036187
0.00119702
-0.00479258
0.00352237
-0.00107139
0.000368766
0.00190695
-0.00343899
0.00153111
0.00162456
-0.00620537
0.00455966
0.00251754
0.00218466
0.00179423
0.00479097
-0.00311407
0.00309465
-0.000280367
-0.000425229
0.00142181
-8.34141e-05
-0.00099439
-0.00427964
-0.00115644
0.00533788
0.00042324
-0.00139338
0.000956109
-0.00385164
-0.00554189
-0.0014612
0.00699136
0.00203317
-0.00212629
9.2888e-05
0.00171447
-0.000208709
-0.00150578
0.000911449
0.00240455
0.000113842
5.99732e-05
-0.000174589
0.000460527
0.00272388
0.0074753
-0.00193836
0.0019352
-0.000726737
-0.00671195
0.00115832
-0.0010907
0.00185878
-0.000852556
0.000181765
0.00673265
-0.0011676
0.0044298
-0.000988173
0.00615721
-0.00522459
-0.000768206
-0.00590429
0.00255315
-0.00108895
-0.000235824
-6.81581e-05
0.000206576
0.0012892
-0.00079637
0.00239443
-0.00233753
-0.000399525
0.00160801
-0.00324586
0.000356449
0.00115259
-0.00154079
-0.00106885
-0.000395634
-0.00245254
-0.00041715
0.0027094
-0.00444344
0.00207931
0.00236068
-0.00638296
0.00188395
-1.3343e-05
0.00012627
-0.000382822
4.42072e-05
-0.00148664
-0.00136198
0.00284794
-0.00144781
0.00191918
-0.000471399
0.00111655
-0.00584571
0.00468228
-0.0060914
0.00504817
0.000720665
0.000808205
-0.00165331
-0.000117057
0.00177034
-0.000452063
0.00193061
-0.00147868
0.0062281
-0.00159921
-0.000121356
0.00139701
-0.00720968
0.00449473
0.00266147
-0.000824443
-0.000835162
0.00165958
0.00279693
-0.00233738
-0.00158868
0.00141135
-0.00883077
0.00605689
-0.00479416
-0.00131322
0.00595434
-0.00355602
-0.00240363
-0.00192908
-0.00296312
0.00139159
0.00157095
-0.00418265
0.00240984
0.00177115
0.00424419
-0.0024417
0.00249297
0.000234296
-0.00272871
0.000772338
-0.00145623
0.000683893
-0.00563182
0.000878296
-0.00491813
0.00598742
-0.00460193
-0.0031232
0.000801717
0.00125296
-0.00205491
-0.00014187
0.000138332
-7.434e-05
-0.00106067
-0.000985832
0.00347713
-0.000519097
0.00213787
-0.00333647
-0.00423374
0.00197864
-0.0039409
0.00196091
-0.00101278
0.00142226
0.00236459
0.00435562
-0.00672302
-0.0012863
-0.00224298
0.0034913
-0.00143306
-0.0015892
-0.00410818
-0.00228523
-0.00367502
-0.00482371
0.000785298
0.00110914
-0.00189455
-0.00120749
-0.000388439
0.001569
0.00133493
-0.00238713
-0.00125506
-0.0034188
0.00209495
0.00637341
0.000306667
-0.00568175
0.00533069
-0.00182329
0.0012981
0.00051962
-0.00373063
0.00133604
0.00230455
-0.000457724
0.00126261
-0.00168123
-0.000149932
0.00758365
-0.00432848
-0.00327591
-0.00502412
0.00233673
-0.00251152
-0.00223889
0.00474738
-0.00725972
0.00230627
0.00492192
0.00144762
-0.00270366
0.00125593
-0.00227693
0.0012776
0.00427188
-0.0065675
0.00227154
-0.00253572
0.000796527
-0.00481027
0.00712657
-0.00237414
0.00260684
-0.00512157
0.00218787
-0.000993208
0.000124958
-0.00256109
0.00478746
-0.00223308
0.00569809
-0.0039203
0.00607983
-0.00465856
-0.00156314
0.00442634
-0.00262014
-0.00199774
-0.00540865
-0.000105239
0.00541648
0.00550749
-0.00269756
0.00210419
-0.00541232
0.00327042
0.00119339
0.0044864
-0.00576544
0.00536705
0.00152631
-0.00697682
-0.00262262
0.00410221
-0.00148185
0.000216684
-0.00572964
0.00550724
0.000210633
-0.00134778
0.00109987
5.02276e-06
3.09311e-05
-0.000603289
0.00263618
0.00404241
-0.00206533
-7.06077e-05
-0.0053352
0.00254573
0.00500997
0.00142906
0.00119076
-0.00262
-0.00332425
-0.00223175
0.0055548
-0.000184032
-6.44948e-05
-0.00229901
0.000248506
0.0011399
0.000795245
0.00289812
-0.000596931
-0.00234405
-0.00132973
-1.43866e-05
0.00130233
0.00592629
-0.0043403
-0.00159716
0.00235132
0.00186977
-0.00115574
-0.00408027
-0.00117064
0.001121
0.000671503
0.00218368
0.00101278
0.00116698
-0.0021798
-0.00687352
0.00200874
0.00492189
-0.00240475
-0.00252178
0.0012857
-0.000458961
0.00329919
-0.0010482
0.000611594
-0.00469891
-0.00111448
0.00669489
0.00237222
-0.000924693
0.00408758
-0.006553
0.000260193
-0.00111844
0.00026593
-0.00145331
0.00115304
0.00218982
-0.0049533
0.00260793
0.000408497
-0.00164314
0.000127608
-0.00179323
-0.000996734
0.00614469
0.000943432
-0.00607896
0.0050923
0.00288783
-0.00145902
-0.00291109
-0.000765169
0.00364805
-0.00153827
0.00497716
-0.00294996
0.00454901
-0.00196599
-0.00258584
-0.00281216
-0.000581588
0.00336735
0.00664347
-0.00157951
-0.00190351
0.00337392
0.00177898
-0.0022312
0.0050439
0.00096283
0.00206973
0.00286145
-0.00493183
0.00462014
-0.0045662
-0.000177972
-4.49842e-05
-0.00135255
0.00114026
-0.00135263
0.00664292
-0.00545852
0.00572042
0.00350905
0.000831736
-0.00447424
0.000892432
0.000162961
-0.00141903
-0.00144528
0.000982871
-0.00064336
0.00402098
0.00179221
-0.00403708
0.00238921
-0.00149935
-0.000890114
0.00121366
-0.00151148
-0.000139741
0.0022809
-0.00330082
0.00101817
-0.00067327
0.00253915
-0.00215569
0.00214852
7.13303e-06
0.00158531
0.00239731
-0.00398797
-0.00150996
0.00199908
-0.00161659
-0.000389911
0.000529977
0.00146327
-0.0047781
0.000216755
-0.00356499
0.000727205
-0.00233173
-0.00278516
0.00173586
0.00104907
-0.000374657
0.000409738
0.00532432
0.00166772
-0.00465077
-0.00265118
-0.00213547
0.00477969
0.00498237
-0.00125213
-0.00373758
0.00228145
-0.00185346
-0.000428195
-0.00156713
0.00310857
-0.00154255
-0.00471378
0.00299714
0.00168134
-0.00237763
-0.00555983
0.00706333
-0.00358842
-0.00514975
0.00246765
0.0026786
0.00495157
-0.0028849
-0.00280023
-0.00423118
0.00439386
-0.0013917
-0.00300503
0.00444588
-0.00300534
-0.00239721
0.00105293
0.00134421
0.000889124
-0.0027596
-0.00239328
-0.00150438
-0.00159711
0.00324031
-0.00197804
-0.00145621
0.000667496
0.00059078
-0.00125828
-0.0011626
0.000903574
-0.00145758
0.00153732
-0.00344277
0.000818276
0.00138149
-0.00114755
0.000667705
-0.0012983
-0.00155827
0.00346419
-0.00145035
0.000999421
0.0029559
-0.00489
0.00193373
0.00426328
0.00168415
-0.00130414
0.00499727
-0.00371408
-0.00422404
0.00274107
0.00145065
-0.00114218
-0.00155128
0.0026932
-0.00168791
-0.00158827
0.00327576
0.006389
-0.00157488
-0.00486022
0.00683804
-0.00500159
0.00372305
0.00108145
-0.0043126
0.00233457
0.00197584
-0.001754
-0.00432175
0.00607017
0.00119121
0.0042534
-0.0055319
-0.00032963
0.000103004
-0.00164614
0.00711306
0.00449619
0.00145041
-0.00500127
-0.00152503
0.00649118
0.00154222
0.00251132
-0.00405905
-0.000108712
-0.00295816
0.00138997
0.00164917
0.00138664
0.00532891
-0.00807876
0.00266845
0.00452013
0.00115995
-0.00149128
0.0005639
0.000927366
0.000910358
-0.0011842
0.000178534
-0.00209748
-0.00275789
0.00484399
0.00481975
-0.00365365
0.00258477
0.0019609
-0.00308097
0.00111235
0.00196742
-0.00382888
0.00505186
-0.00122811
-0.00111527
0.0021761
0.00559173
-0.00495732
-0.000660074
0.00432409
0.00157069
-0.00060532
-0.00106847
0.00208122
0.000786764
0.000498933
-0.0039371
-0.00121258
0.00505086
-0.00521113
-0.00145812
0.00658962
-0.00245805
-0.00228029
-0.00195952
0.00622151
-0.00436167
-0.00111164
0.00179705
-0.000685447
-1.01956e-05
-0.00139784
-0.00485608
-0.00203227
0.0068859
0.00470708
-0.00336163
-0.00177192
0.000742223
0.00102967
0.0011334
-0.00451279
0.00143169
-0.00119667
-0.000235019
0.00342423
-0.00420124
0.000696228
0.00161624
-0.00231308
0.000240589
-0.000708884
-0.00489756
0.00155836
0.00329178
-0.000838379
-0.000933554
0.000182561
0.00116184
0.00190697
-0.00179276
-0.000114318
-2.13071e-05
-1.94545e-05
2.66691e-05
-5.80578e-06
0.000811956
-0.0066403
0.00181358
0.000467671
-0.0062143
0.00117945
0.000993476
0.000392222
-0.00144654
-0.00258119
0.0014667
0.00111414
-0.00152255
0.00380168
0.00354132
0.00317656
0.00231516
-0.000744812
0.000170835
0.00123869
-0.00140954
-0.00155225
-0.00060351
-7.62079e-05
0.000898412
0.00015685
0.000731888
-0.000888738
3.80024e-05
4.24326e-05
-9.62262e-05
-0.00104954
0.00266287
0.00303147
0.00443411
-0.00152289
-0.00341715
-0.000422553
0.00151322
-0.00110494
6.68787e-05
-7.41389e-05
0.00291099
0.00147984
0.00146142
0.00413319
-0.00120117
-0.000588665
0.000229465
3.14688e-05
-0.000769885
0.000296292
0.00119454
0.00112053
0.00390349
0.000984635
-0.00502492
-0.00330804
0.00188365
0.00142353
0.00675742
-0.00150072
-0.000410536
0.00134066
9.66724e-05
-0.000229226
0.00334064
-0.000882754
0.00213347
-0.00178322
-0.000350368
0.000875228
0.000556457
0.00175934
0.00156203
-0.00241104
0.00394795
0.00245667
-0.00168902
-0.000767816
0.00129389
-0.000673616
-0.00122376
-0.00259279
0.00157661
-0.00274874
0.00117195
0.000274884
-0.000664893
-0.00204483
0.00267091
-0.000626415
-0.00599468
0.00394122
0.00191449
-0.0011293
0.00567937
-0.00131681
-0.00704618
0.00548743
-0.000271907
-0.00583477
0.00620818
-0.00332189
-0.000760932
0.00407938
0.000516297
0.000960891
-0.00147722
-0.000201583
0.000355779
-0.000249085
0.00252638
0.00155106
-0.00655408
0.00401748
0.00246639
-1.25973e-06
4.58272e-05
0.00137537
-0.000603035
0.00239219
0.00283371
-0.00522819
0.0057496
-0.00384144
-0.00196234
-0.00159959
-0.00136408
-0.00319118
-0.00145078
-0.00317541
0.00457982
4.83542e-05
-1.63236e-05
0.000728361
0.000647003
0.00648556
-0.00274832
-0.00682388
-0.00115265
0.00110676
0.00268937
0.00300865
-0.0010389
0.00184042
-7.88106e-05
6.87748e-05
-0.00113253
0.0026403
-0.00150828
-0.000166699
-0.000218303
0.000247479
0.000411614
0.0023518
-0.00294093
-0.00272783
-0.00132179
-0.000973622
-0.000571239
0.00114571
-0.000574467
0.00192741
-2.05328e-05
-0.00503729
-0.00153502
0.00656571
0.00110513
-0.00260999
-0.000900213
0.004188
-0.00283957
-0.0046303
-0.000577192
-0.000914091
0.00204434
-0.00162335
-0.000421058
0.00176414
0.00415057
0.00481885
-0.00424916
-0.00238849
-0.00469032
-0.000457214
0.000176997
0.000393251
-0.00505873
0.00457821
-8.10916e-05
-9.36503e-05
-0.00318043
0.00145841
0.00172093
0.00407934
-0.00539408
0.00130338
-0.00135136
-0.00104592
-0.00392608
0.000600877
0.00129535
0.00480508
-0.00610553
0.00147647
-0.00316475
-0.0045365
0.00614117
-0.00425396
0.00213088
0.0021196
0.00289839
-0.00153965
-0.000675284
-0.0034864
0.00227383
0.00347999
-0.00577907
-9.52351e-05
1.46995e-05
0.00268042
-0.00244008
-0.00017432
-0.000413191
8.06746e-05
-0.000236759
-0.0013989
-0.00285506
0.000844543
-1.17125e-05
-0.00115529
0.00080954
-0.00065269
-0.00215643
0.00409872
-0.00194491
0.000187488
0.000742465
-0.00112672
0.00136963
0.00118304
-0.000469876
0.000194219
0.000544096
0.00117036
-0.00472817
0.0033871
-0.00544545
0.00427021
-0.000947606
-0.000502747
0.00106829
-0.00280857
0.00173922
0.0023727
0.000844866
-0.00539463
0.0058572
-0.000508259
0.000428098
-0.00144965
0.00100187
0.00123208
0.00395461
-0.00527527
0.0047444
-0.00478549
1.65048e-05
0.00297355
-0.0030992
0.000122302
-0.00474203
-0.00127557
0.00590467
0.00129569
-0.000734243
-0.000561442
0.0048291
-0.000771224
-0.00406459
-0.004672
-0.00168624
0.0063535
-0.000807523
0.00317763
0.00563346
-0.0033838
0.00110026
-0.000929437
-0.00488193
0.00355737
2.9723e-05
-0.00054582
0.000366481
-0.00392432
0.00130767
-0.000516628
-0.00206865
-0.000902131
-0.00387826
-0.00102097
0.00128116
0.002102
-0.00695767
0.00485287
0.00056977
-0.00318788
-0.00542565
0.00104907
0.00519112
-0.00621155
-0.0015649
0.000885877
-0.00320439
0.00231241
-0.00367429
0.0055259
-0.000809797
0.00235029
-0.00445837
-0.00202599
0.00168843
0.00574514
-0.00148662
0.00287763
0.00128799
-0.00344661
-0.00133267
0.00660975
-0.000129491
-0.00389681
0.000396248
-0.000514174
-0.00112573
0.00409422
0.00547958
-0.00101106
0.00108647
-0.00542236
0.00431907
-0.00503219
0.00326224
0.00173588
-0.000932494
0.00137261
-0.00044012
0.00018963
-0.000294848
0.000101715
-0.00482107
0.00692034
-0.000317263
0.00511432
-0.00691424
0.00483665
0.00206421
-0.00453066
0.00346562
0.00105669
0.00176225
0.000282005
0.000189639
-0.000500628
-0.00309137
0.00131862
0.00177193
0.000407776
0.0017256
0.000143
-0.000108935
-3.40272e-05
0.00650366
-0.00464579
-0.0019581
-0.00400111
-0.000114751
0.00064466
0.00661456
-0.00341954
-0.00331688
-0.000401827
-0.00606837
0.00639557
-0.00208844
0.00626857
-0.00419693
-0.00352132
0.00263579
0.000704341
-0.00261967
-0.0030464
-0.000850361
0.00377025
0.00211992
-0.000807954
-0.00131203
0.00411789
-0.00213426
0.000924099
-0.003581
0.00129829
-0.00232045
-0.00494195
0.00238663
-0.00169102
0.00539162
-0.00187576
0.00109665
-0.00131722
0.000139814
-0.0017975
0.00286468
-0.00206458
-0.00149474
0.00355791
-0.00207004
0.00335592
0.00115022
0.00292044
-0.00415557
0.00351683
0.00110743
-0.00370718
0.00402835
-0.00114736
0.0062532
-0.00199791
0.00122764
0.00353515
-0.004823
-0.00205741
0.00366366
0.000917875
-0.0057696
0.00103811
0.00376518
-0.00491442
0.00279939
-0.000184518
0.00254248
-0.00472482
-0.00136137
0.00607071
-0.00506933
0.00174415
0.00340541
0.00254315
-0.000692275
0.00417181
-0.00462705
-0.00104465
-0.00624391
-0.00218847
0.000936131
0.00125218
0.00331091
-0.00487683
0.000942336
-0.00565763
0.00468549
0.000227212
-0.000266384
-0.000256901
-0.000300608
0.000450202
0.00533354
0.000869775
-0.00625349
0.00134611
0.0041726
-0.005534
-0.00495398
0.00112068
-0.00284965
0.00391728
-0.000406537
0.00138115
-0.000982717
-0.00535373
0.00668329
-0.00139235
-0.00239883
0.00542695
-0.00466561
-0.00228585
0.00386612
-0.00112581
0.000209745
-0.00247867
0.00162527
-0.00107468
-0.00109116
0.00216574
-0.00611878
0.00137962
-5.44584e-05
0.000203154
-0.00130808
0.00109936
-0.00326142
0.00576522
-0.00252531
0.000841614
-0.00548768
0.00414194
-0.00443892
0.00644683
-0.00201886
-0.00747202
0.00534983
0.00208092
-0.00130345
-0.00345039
0.0046596
0.0020054
0.0043933
0.00151611
-0.000443045
-0.00107308
-0.00289582
-0.00158878
0.0044788
-0.00620337
0.00115973
0.00297607
-0.00520888
0.00307461
0.0034063
-0.00338158
0.00130941
-7.12969e-06
5.54259e-05
-0.00401011
-0.00148061
0.00545738
0.00184522
-0.00614
0.00428835
-3.73441e-05
-4.31218e-05
0.00222727
-0.00157937
0.00492917
-0.00336153
-0.0063062
0.00185628
-0.00109668
0.00274597
0.00717322
-0.00537099
-0.00181552
0.00225339
0.000318417
-0.00265177
0.000564051
-0.000113482
-0.000558649
-0.00207804
-0.00210609
-0.00407417
-0.00549057
-0.00120688
0.00663273
-0.00629397
0.00463934
0.00162879
-0.00502488
-0.00141168
0.00635589
-0.00304472
0.00033419
0.00185586
0.00609286
-0.00299234
-0.00310372
0.00499405
-0.00636981
-0.000915619
0.00120634
-0.000290725
0.000568038
0.00142754
0.00488321
-0.00632084
-0.00152666
-0.00264183
0.00471088
-0.00102735
-0.00705603
0.0055828
-0.00277521
-0.000220098
0.0028281
-0.00138715
-0.0029794
0.00432196
0.00777191
-0.00316419
-0.00469003
0.00564584
-0.00444632
-0.00122647
-0.000927757
-0.00402665
0.000929606
0.00414595
-0.00518729
0.0043534
-0.00414099
-0.00665918
-0.00191745
0.000825977
0.0010914
0.00454593
0.00167056
0.00393407
-0.00260981
-0.00132761
-0.00232122
0.00395012
-0.00163069
0.00126624
0.00365285
-0.00500792
-0.00201871
-0.00338062
0.00144894
-0.00473029
-0.00172705
0.00530567
-0.00362444
0.00499799
-0.00240034
-0.00260558
-0.00154733
0.00113202
0.00143946
-0.000624957
-0.00169205
-0.0014893
0.000343252
-0.0011804
0.000829079
-0.00520616
0.00395544
-0.0045371
0.00593891
0.000399381
0.00569636
0.00151123
-0.00692646
0.00238778
-0.00287251
-0.000230011
0.00293686
0.00503199
0.00411947
0.00142418
0.00232863
-0.000822492
-0.00150924
0.00213973
-0.00711164
0.0049464
-0.00634625
0.00439859
0.00183665
-0.00147569
0.00190588
-0.00518974
-0.00346568
0.00042052
0.0022852
-0.00120871
0.00474667
-0.00699476
0.00222212
-0.00254211
0.000875735
0.00298032
-0.0039766
0.00289802
-0.00146847
0.000375058
0.00107057
-0.00536326
0.0068143
-0.000732796
-0.00072344
1.07226e-05
0.00044699
-0.00425455
-0.00108342
0.00256467
-0.00119554
0.000673295
-0.000427036
-0.00106091
0.0015404
0.00530268
-0.00685239
-0.00113037
-0.00105824
-0.00154373
-0.00254201
0.00404415
-0.00787837
0.00603378
0.00179867
-0.0065617
-0.000777614
0.00593231
-0.00540042
-0.000714255
-0.00127682
-0.00130466
0.00341571
0.00208201
-0.00554612
-0.00075647
0.00142396
0.00448483
-0.00637605
0.00199452
-0.00377222
0.00177729
-0.00429365
-0.000924335
0.00119377
-0.00029732
-0.000717444
-0.000971802
0.000859288
-0.00034502
-4.88072e-05
0.000234835
0.000987509
0.000583169
0.00669817
-0.00193401
-0.00479414
0.000435241
-0.00348842
0.00288707
0.00541562
0.00159593
-0.00701944
-0.00382608
-0.00442587
0.00299262
-0.00162357
-0.00190138
0.00614887
-0.00152227
0.00201348
0.00290341
-0.00183624
0.00276566
-0.000929978
-0.00233445
-0.00278366
0.00512208
0.00128018
-0.000484925
-0.000795258
0.00179115
-0.0066409
0.00481089
-0.00169727
-0.00565423
-0.000314132
0.0058191
0.000490343
-0.00121214
0.000721793
0.000707782
0.00585414
-0.00542703
-0.000466879
0.00150468
-0.0011527
0.00509481
-0.00377358
-0.00137204
0.00039766
0.00108304
-0.00120434
0.00285868
-0.0017018
-0.00127027
-0.00266826
0.00388143
-0.00651039
0.00470098
0.00169468
-0.00255054
0.00414403
-0.00159902
-0.000134512
0.00115191
0.00468257
0.00198472
0.00280734
-0.00171854
-0.00108948
0.00241225
-0.00105581
-0.00135649
0.000992826
-0.00206759
0.00128922
0.0012749
-0.00518344
0.000783243
-0.00150909
-0.000731343
-0.00507035
0.0056508
0.00219467
-0.0012587
0.00423632
-0.00599603
0.000536546
0.00226341
-0.000713498
-0.00159344
-0.00317478
0.00185231
-0.000854036
-0.00137758
-0.00490089
-0.00186281
0.0066973
0.00167995
0.00054241
-0.00124969
0.00163176
-0.00438632
0.00569738
-0.00147141
-0.00216209
-0.00209518
0.00335653
-0.00308801
0.000801151
0.000391614
-0.00119277
-0.00130562
-0.00375235
-0.000977629
0.0045908
0.00102511
0.00049099
-0.000324591
-0.00547272
-0.00432906
0.00414842
0.00547831
-0.00142915
0.00141546
-0.000687104
-0.00462376
0.00186125
0.000153736
-5.47258e-05
-0.000145669
0.00324654
-0.00412104
0.00508661
-0.0010543
-0.00123101
0.00203725
-0.00079345
-0.00124385
-0.00447571
0.00526745
-0.00267806
-0.00259081
-0.00495324
0.000673154
-0.00337612
-0.00293943
0.00509467
-0.00171672
-0.00203206
0.00370024
-0.00532981
0.00217703
0.00535739
0.00180083
0.00459347
0.000982598
0.000724287
0.000569606
0.00529105
0.000133353
-0.0054562
-0.000244011
-0.000596653
-0.00277665
-0.00513808
0.000458938
0.00472242
-0.00532132
0.00422004
-0.00249024
0.00138335
0.00110651
-0.00374051
0.00202849
-0.000632898
0.00470102
0.000486621
0.000821051
-0.00055905
0.0013602
0.00705898
-0.00171748
-0.00109063
-0.00139996
-0.00253482
0.00390378
-0.00128585
0.000795439
0.000490412
-0.00196164
0.00340781
0.00179583
-0.00285745
0.00106144
-0.00184725
-0.00395584
0.0013885
-0.00279258
-0.00215513
0.00492537
7.83537e-05
0.00279171
-0.00287045
-0.00176028
0.000742974
0.00101726
0.000359524
-0.00146749
0.00109011
0.00643893
0.000225858
-0.00117424
-0.00381886
0.00464794
-0.00170751
-0.00162954
0.00657947
0.00510176
-0.00173345
-0.00213496
0.00356114
-0.00142708
0.00105225
-0.000882484
-0.00016977
-0.00372729
-0.00149224
0.000664359
-0.00133798
1.63672e-05
-5.05756e-05
-0.00174651
0.000242847
0.00146335
0.00212373
0.000953032
0.000724933
-0.00167799
0.00476842
0.000849369
5.71039e-05
-3.49146e-05
0.00326656
0.00147357
-0.00538785
0.00643352
-0.00112288
-0.00434052
0.00420181
-0.00630761
0.00696683
-0.00477887
-0.00220524
0.00560237
0.00207374
0.00653823
-0.00114721
0.00148913
0.00265458
-0.00341855
0.000744006
0.00607566
0.00571382
-0.000452818
0.000563036
-0.00135437
0.000791336
0.000262326
-0.00569947
0.0060925
-0.00158371
0.00144182
3.12459e-05
-0.00148397
0.000684785
0.0015815
-0.000291786
-0.00144941
0.00153112
-0.00588245
-0.00563237
0.00598987
-0.000394115
0.000267273
-0.00523975
0.00101918
-0.00146611
0.00128095
-0.00181735
-0.0032449
0.00106152
-0.00652147
0.00540534
-0.0033378
0.0018371
0.0014995
0.000839305
-0.00559958
7.84964e-08
0.000142023
-0.0025162
0.00318261
-0.000667269
0.00147356
0.000915382
0.00309825
-0.00178042
0.00115844
-0.00273337
0.00157461
0.0032886
-0.00240861
0.00159553
0.00129207
0.00103576
-0.00136535
0.000329583
0.00015451
-0.000624231
-0.00160063
-0.0012952
-0.00048673
0.00386737
-0.00153499
0.00198628
-0.00329976
-0.00173476
-0.00440952
0.00450118
-0.00101362
-0.00349686
-0.00320099
0.00471565
-0.00134689
-0.00335618
0.00469336
-0.00443883
-0.00446581
0.00674305
-0.00161994
-0.00108382
-0.00247592
0.00411736
-0.00164503
-0.00350663
0.00144075
0.000859404
0.00158332
-0.00244283
-0.000509292
0.00243105
-0.000980933
-0.00145043
-0.00404393
0.00185158
-0.00681658
0.00522232
-0.00566135
0.000407336
-0.000460713
0.00309432
0.000317418
0.000918878
-0.00126285
-0.00272966
-0.0008608
0.00346761
0.00178457
-0.000808863
-0.000951451
0.000873993
0.00283778
-0.00387275
-0.00649841
0.00453562
-0.00403927
-0.00484852
-0.00676838
0.0037261
0.00298453
-0.00149777
0.00390589
-0.00111229
0.00245493
-0.00134316
-0.00508005
-0.00518027
0.001146
0.00229527
0.00379337
0.00148585
-5.43858e-05
0.00210886
0.0046811
0.000857804
0.000422372
0.00630131
-0.0050003
-0.00134513
-0.00610299
0.00444754
0.00148943
-0.00298563
0.0049188
-0.00355924
-0.00208951
-0.00443578
-0.000409513