/*--------------------------------*- C++ -*----------------------------------*\
| =========                 |                                                 |
| \\      /  F ield         | OpenFOAM: The Open Source CFD Toolbox           |
|  \\    /   O peration     | Version:  v2012                                 |
|   \\  /    A nd           | Website:  www.openfoam.com                      |
|    \\/     M anipulation  |                                                 |
\*---------------------------------------------------------------------------*/
FoamFile
{
    version     2.0;
    format      ascii;
    class       volScalarField;
    location    "200";
    object      omega_0;
}
// * * * * * * * * * * * * * * * * * * * * * * * * * * * * * * * * * * * * * //

dimensions      [0 0 -1 0 0 0 0];


internalField   nonuniform List<scalar> 
13917
(
5.38091
0.0417721
0.208488
0.0222382
0.0290023
0.041409
0.0264927
0.0789788
0.0252915
11.8624
0.0759367
0.021787
0.024353
0.674286
0.0280795
7.16511
0.0216998
0.066125
0.104444
8.90679
0.0335442
0.021795
0.0430905
0.0217971
0.0233004
0.0356199
2.33057
12.4536
0.0463401
0.0200641
11.0517
0.0619453
0.0222816
2.97938
0.0214786
0.0912072
0.0241243
0.023381
0.0265267
0.0376455
0.0216454
0.0219003
0.0238892
0.0991094
0.0986658
0.160247
0.0318806
5.44723
1.23211
0.0214967
0.0217534
0.109122
16.6404
0.0217131
0.0217878
0.107571
7.49619
0.0431175
0.0217664
0.136625
2.45858
0.0305216
0.0207011
0.023112
3.07137
0.0745709
0.0505007
0.0905577
0.0700458
5.8866
2.94762
3.12486
0.0217379
0.0214985
0.034363
0.0237988
0.0247611
0.0214039
0.0235754
0.0223582
0.0223164
0.0218153
0.0217206
3.1038
0.0211492
0.112885
0.0597014
0.0216029
0.037258
0.0216093
0.0206964
0.0240488
1.19328
0.0211563
0.022264
0.0505373
1.9634
0.0221083
0.0215071
0.135535
0.0210928
0.0210423
0.0223606
0.0214129
0.0247092
3.35228
3.13465
0.0288528
0.0221822
2.30712
0.0215332
2.93515
0.0462187
4.14952
3.0799
0.0242251
0.0974557
0.0207701
0.176364
0.0216561
0.0217242
0.0211099
0.056138
0.0863922
5.41511
3.17638
0.0229398
0.0361025
0.0211865
0.086993
0.0316085
0.159973
3.45249
0.0241848
0.0723917
2.22038
2.50912
5.25802
0.0379424
0.023334
0.398333
0.0212296
3.33198
0.0212109
0.0216635
0.0245989
2.94269
0.701582
5.82344
0.0217492
0.0345783
0.0209011
0.0216423
0.0216646
2.03167
0.0225437
0.0213537
3.42622
0.0213067
0.0209157
0.0211368
2.77673
0.0262408
0.311041
2.4994
0.225091
23.2605
2.90737
0.0195871
0.0402236
0.0219404
3.3175
0.025252
2.47217
0.0666929
0.0210765
0.0222396
0.118962
0.0309186
0.0268624
0.0237897
0.0218395
0.0217517
0.162839
0.181947
0.158277
0.0217241
0.163599
0.0200869
0.105265
0.0668686
0.0905705
0.128721
5.27212
0.0211634
5.22372
0.0257634
3.53804
0.021439
0.0222873
0.0299992
5.68023
6.72343
0.0237366
2.42218
0.0361896
0.0350059
0.0212333
0.118246
0.0223111
0.0208976
0.0360226
0.0384436
5.74726
0.0703796
0.0373081
2.88404
0.0225405
0.0203682
0.020356
3.368
0.155747
0.13747
0.0213626
0.0208892
2.09344
6.29301
0.0203118
0.0202971
0.0217047
0.0203823
0.0203717
3.29658
4.79144
0.021959
0.0196006
0.0704711
3.36761
0.0213916
0.0213598
2.40675
3.37891
0.173869
2.87907
0.0915821
0.021219
2.63943
0.0731191
0.0432965
0.0697915
0.023469
5.55734
0.0216691
0.040504
0.0604402
0.0220783
0.0218449
0.0230872
0.027651
0.0215727
3.71994
1.25552
0.021102
0.0202976
0.0226828
0.0203017
0.0216736
0.0243425
0.0357552
0.0212328
4.18027
2.96661
0.0215177
0.0253497
0.338764
0.0202658
0.0954585
3.31355
0.0202772
4.33361
0.0214763
2.77013
0.0211464
0.0263752
0.0221561
0.0211774
0.139077
0.0225746
0.877806
0.0280834
1.25714
0.0246162
2.1791
5.50736
0.0209923
0.0490361
0.0282305
0.0245312
0.028677
0.0235281
0.021239
0.0222842
0.117775
0.0417797
0.0393548
0.0233634
0.021343
3.47197
8.4559
0.0211022
0.0241075
0.0245691
0.0662346
0.11758
2.8684
2.47521
0.0436662
0.155995
0.0250283
3.00328
0.06966
0.208963
0.0241743
0.0277369
2.35212
0.0222226
0.0455439
0.0899836
0.0215759
3.31514
0.0211927
0.0392847
0.0205152
18.3746
0.0207993
0.0371294
0.0366635
0.0390726
0.0214665
0.0698902
3.17603
0.0221566
0.0222133
2.88688
3.2257
2.56672
0.484482
0.0202525
0.0219064
3.43363
0.153716
0.0202659
0.0288933
0.0217218
0.0520022
0.0381527
0.104831
0.0898354
0.0960393
0.0388544
3.22575
0.0212261
0.0221648
0.0306634
0.173852
0.0215344
6.39432
0.0386485
0.300378
0.0218327
0.116658
0.0247234
1.13688
0.0218958
0.157758
0.368244
0.0390562
0.0215423
2.2813
0.0207625
2.48077
0.14236
0.0218911
1.19743
0.022556
0.301288
0.0207282
7.75458
0.301348
0.0236218
2.0374
0.081077
0.0230949
2.56646
0.22069
0.0232065
0.139402
0.0218059
0.0820888
0.206445
0.0212164
0.0259297
0.0233328
0.0211612
0.0209348
0.0212762
2.54963
0.197972
0.0219814
0.0213445
0.0216266
0.0481572
0.116895
0.0203277
0.0196059
0.11578
0.116379
0.021205
0.0234768
2.50071
1.86056
0.080603
0.110512
2.83296
0.0208076
0.0202911
0.0309517
0.0209244
0.0203418
0.0220413
0.0203075
0.0207445
2.9815
0.0218503
0.0403563
3.81158
0.0487934
0.0209179
0.0216234
2.59311
0.0300109
6.62619
0.0204425
0.0213475
0.0208504
0.0203967
0.0240036
0.0227644
2.47876
0.0264029
3.43517
0.0213417
0.0339567
0.0277729
0.0222454
0.0888897
2.55377
0.0216863
1.72757
0.0209525
0.021321
0.0215774
0.0225737
0.0208507
0.0221551
3.41704
2.45559
0.0208318
2.16312
0.113336
0.021845
0.053124
0.067584
2.5442
0.026645
3.37534
0.326916
0.334734
0.0227859
0.0551672
0.0298258
0.0233266
2.38519
0.0208191
0.0216571
0.0222708
0.0256078
0.0327158
0.153295
0.0502347
0.0254929
0.0262817
0.0628982
0.0524045
0.0219837
0.920846
0.0350002
0.0280979
2.45819
0.0211574
0.0545836
0.133801
0.0208396
3.24005
0.021419
0.0203934
0.0493663
0.0204514
0.0223656
0.117343
3.52591
1.72446
0.021132
0.0224312
0.0234509
2.03049
1.83788
0.021878
0.0217541
0.0211123
0.0560417
0.545933
0.0212526
0.0214181
0.0221968
0.0211399
0.0259804
0.0281509
0.0209759
0.0508802
0.020842
0.0216688
0.0231915
2.8909
0.0204058
0.0236505
0.0215768
0.0329977
0.0618887
0.0556684
0.062709
0.150441
0.0229642
0.0565595
3.55279
3.13169
3.43012
0.0210242
0.0215288
0.0267346
0.0214308
3.11999
0.0202992
0.713254
0.0257474
3.43774
0.107697
0.02388
4.44474
0.0208222
0.0584842
0.0220176
0.0226498
3.4288
0.0203743
0.211016
0.0209383
0.0227672
0.0215759
0.145556
0.0263414
0.0202738
0.100333
0.0520553
0.553753
2.85714
3.57218
2.52569
0.0204128
6.14102
0.0203656
2.47943
0.704953
0.0231848
0.0271667
0.0210439
0.0345617
0.0235543
0.02039
0.02204
0.024086
2.69453
0.0211819
0.0560991
0.0216243
0.0202619
0.021211
0.149572
2.70526
6.78081
0.065302
0.0280081
1.42183
3.24606
0.0207564
2.52528
0.0238672
0.091393
0.0214255
2.00606
0.0211195
0.0263106
0.0216857
0.574481
0.03592
3.03664
0.0210777
0.034458
0.0214612
0.0212365
3.07996
0.184325
0.0216676
0.114476
0.0213428
0.0223415
0.0210211
2.91908
0.0211854
0.0281578
0.0202877
0.0215574
0.175038
0.0209512
0.106396
0.021964
0.0208162
2.47359
0.0577422
0.0218215
18.2216
0.202888
0.0726347
0.138117
0.020805
0.0291542
3.03977
0.2277
0.0296756
0.024139
0.0266548
0.0218368
0.0212601
0.0606037
0.0667103
0.0249722
2.46637
0.0363219
0.183316
2.0287
0.048156
0.0353925
0.12784
3.86497
0.0212443
0.0338964
0.0941748
0.0208274
0.0212043
0.0211816
0.0243132
0.0224248
5.85151
0.0334994
0.021156
0.0833669
0.0209961
2.81509
0.0214695
0.0211846
3.42069
0.0583786
0.325778
0.0217995
0.0216424
0.0211562
0.0221243
0.0279005
0.0211644
6.1006
0.030037
0.404376
0.321978
0.0340202
3.60537
0.0224381
0.0219768
0.0215288
3.18862
1.85573
0.0261508
5.84965
0.771269
0.0208103
0.0211409
0.0240183
3.29093
0.363274
0.0361967
0.0220917
0.0236488
0.0943356
0.0243122
0.104526
0.0336303
0.0222025
0.0223866
0.0219947
0.0278187
0.0262794
0.231659
0.0249225
0.0245342
5.84371
0.021212
0.763762
0.0238108
0.0344953
0.0255571
0.218272
0.0216834
0.055207
2.70508
0.313403
0.0214545
0.0249485
0.0229703
0.0213434
0.0216699
0.0322894
0.027276
0.159533
0.106549
0.0207778
0.212515
0.0252413
0.0256413
0.117004
0.0220015
0.0583569
1.91736
0.0202953
0.0583818
0.0783385
0.0333391
0.0210657
0.0208793
0.0212506
7.28182
0.0222402
0.0216571
0.0388088
0.0211906
0.0209685
0.102987
1.19571
0.0389535
1.88521
0.0482524
3.47928
0.0216748
0.0252541
0.72558
0.0231695
0.0348047
0.021454
0.0211742
0.0217753
0.0254073
0.057746
0.0210621
0.139018
0.0220167
0.708997
0.0238481
0.02658
0.0205225
0.0705812
0.0266823
2.68061
0.0409281
0.0218246
2.92131
0.0224784
3.95779
0.0233669
0.0565406
0.0237894
0.0209508
0.0214379
3.2384
0.0277443
0.0783427
1.79606
0.021337
0.0335889
0.0195854
0.0281722
0.47447
0.0196142
2.70531
0.0237234
0.057866
0.0954715
0.511949
0.0204315
0.0212657
0.0980741
0.0207951
0.0216767
0.0229927
0.0214795
0.0389007
0.0204196
0.105508
0.0221992
5.77972
4.06925
0.0766025
3.49825
1.7914
7.66997
0.273557
0.0207488
0.0222028
0.0215734
0.0224931
0.021117
0.027857
0.0212307
0.11729
0.0217123
2.08671
0.0221554
0.0300619
0.086499
0.0210685
0.0401381
0.0224773
0.0228602
0.0258017
0.0207628
3.72357
0.0715184
0.0725163
0.0210996
0.0215055
0.0220305
0.0221041
2.47237
0.0207713
0.182607
0.0211013
0.316816
0.0259698
0.0212199
0.0568491
0.0313194
0.0207832
0.321655
2.48855
0.0241263
0.0703308
0.0207761
0.134849
0.0210563
0.0221052
3.62244
0.0214788
0.0223137
0.0823093
3.98141
0.0216449
0.642237
1.66325
0.0220368
0.0232161
0.0215281
2.62268
0.0214778
0.108183
0.0216918
3.28748
0.0263831
2.49947
0.0213472
0.0201885
0.315544
0.0228657
0.0211152
3.59749
0.0229482
0.0209251
0.277496
0.022018
0.0221898
0.0660265
0.0231012
3.11124
0.0382215
0.0672798
0.129554
0.0235902
3.21711
0.0224164
0.0619265
0.0213886
3.65029
0.330853
0.0218523
0.0210966
0.022277
0.0218811
0.0209023
0.0208149
0.0211734
0.0214288
0.0286403
0.0202958
0.0227617
0.0658179
2.57876
2.68393
0.0763532
0.0220403
0.319616
0.0211847
0.67182
0.54385
24.1907
0.0203544
0.0207588
0.0216999
0.0216263
0.0203331
0.020838
0.0212473
0.0364936
0.0209324
11.8622
0.321563
0.020965
3.2738
0.0213993
0.0212856
0.0282009
2.88174
0.0572139
0.0210119
0.339933
0.0212939
0.0213028
0.213081
0.0223333
1.90347
0.0223947
0.107824
0.0209268
0.0211677
0.0301939
0.16731
0.0228657
3.04258
0.0345512
0.0228375
0.023533
0.0215033
0.0208591
0.0829661
0.0326855
0.024809
3.05513
10.6439
0.140593
0.0878387
0.0211078
3.19027
0.0211105
2.5046
0.0586273
0.0260136
0.0226924
2.60154
1.61786
2.08328
0.0219426
0.686614
0.0209243
0.0212353
0.0337692
0.022142
0.0216675
0.221564
4.25429
0.0211674
0.0268813
3.43328
0.0209428
0.0202733
0.677719
2.75236
0.0223736
0.0204712
0.0261105
0.0216021
0.0212539
0.0321738
0.0256702
0.0215538
0.415908
0.0219908
0.0281939
0.52789
0.0331955
3.54148
0.0218261
0.0221092
0.137074
4.0432
0.27803
0.0262821
0.0314395
0.0219934
0.022428
0.0218129
2.64802
0.0254786
0.0224172
0.0486935
0.0211775
0.311551
0.0687954
0.105503
0.0543644
0.333508
0.376948
2.44065
3.02347
0.0233592
0.355977
0.02029
0.0545327
0.0717296
0.435619
0.024449
0.0226427
0.0252611
0.0933124
0.0230869
2.51422
0.033758
0.0816122
2.49717
0.02116
0.0904091
0.0234049
0.0216658
0.027359
0.0247803
0.0203152
0.020726
0.0227197
2.82262
0.0209239
0.0229593
0.023553
0.0224153
0.0215546
0.0863772
0.0629016
0.0224214
0.0210592
0.0829783
0.109731
0.0372331
3.29193
0.0218526
0.0214484
1.78694
0.0216646
0.0231809
3.0525
3.41199
0.0289525
0.0547034
0.0264249
7.81669
0.16225
0.0315257
2.846
0.0212068
0.0725408
2.53303
0.187005
0.569259
1.09672
0.0207231
0.0216263
0.0242083
0.0215778
0.021722
0.232325
0.0214836
0.0422863
0.0204988
0.0522998
2.58635
0.0231305
2.17157
1.77761
0.0214481
0.0686325
0.026105
0.0228255
0.0213453
3.27036
0.0644077
3.71893
0.0270578
2.56111
0.0802655
0.0215129
0.076603
0.0339231
0.0215264
0.0212351
0.144471
0.0213521
0.0254178
0.0352482
0.0254315
0.0220229
0.0506407
2.45956
0.0211491
0.159683
0.13278
0.0216752
0.0211624
0.0246093
1.70767
0.469764
0.0208851
0.0293038
0.0327498
0.483027
6.70713
0.0216238
0.0209435
0.0207214
0.0215094
0.0242258
0.0238739
2.23561
0.0221938
0.0241454
0.0208241
0.0346613
0.0755843
2.7575
2.49131
0.021826
0.0215013
0.0208971
0.0226744
0.0631089
3.80014
0.0873198
0.0895468
0.0296654
0.0460449
0.023472
0.0538029
0.0251706
0.0973583
0.0211528
0.127159
0.056259
0.0207931
0.0217765
2.91276
0.0459508
0.0195897
2.5378
0.114098
0.0211589
0.292722
0.0233191
0.0212334
2.56991
0.346181
0.0211705
0.028942
0.0944631
0.0325874
0.0222624
0.0204008
0.0211756
0.0208895
0.0213398
0.0289508
0.0482543
4.50565
0.0330467
0.0254156
0.0304008
0.0776353
0.0210206
0.0327952
0.149803
0.207921
3.04087
0.0228651
0.0203841
3.52155
0.0210484
0.263966
0.0228463
0.0405775
0.021919
0.0210967
0.204861
0.0258791
0.0227705
0.0214956
2.65263
0.584226
3.31125
0.0218519
0.0215908
1.14971
0.0209007
0.0208307
0.115834
0.473403
0.0264408
0.0321534
0.0221962
2.86444
0.0212458
0.0242925
0.0220241
0.0203683
0.200975
0.0212419
0.0208695
0.31513
0.0531852
2.64547
0.207011
0.0211848
0.0292616
0.0209747
0.0211163
0.0236064
0.0224647
0.0216494
0.172953
0.0216146
0.0658766
0.0270124
0.0246296
0.0216205
0.0221181
0.0212263
3.31297
0.0203028
0.148979
0.0624928
0.0227549
0.0478963
0.0320987
0.029558
0.0215415
0.0285899
0.0209472
0.0207904
0.306482
0.0368646
0.0274266
0.0213243
0.0213504
0.021149
0.0636107
0.0211796
2.83842
0.0429807
0.0212328
0.0213113
0.0206403
0.0428063
0.0412299
1.69864
0.0381045
0.299149
0.0246923
0.0876357
0.0237789
2.7585
0.0204916
0.0202636
0.0247239
0.126053
0.0206697
2.89177
0.0216286
0.021423
0.118788
0.139435
8.45781
0.117807
0.0253655
0.154597
0.0429855
0.020771
2.78647
0.0214093
0.0210635
2.07545
0.0205643
2.90061
0.121622
0.021083
0.021444
0.0208078
3.61337
0.0212414
0.0203991
0.0671022
0.0211898
0.0209432
0.0222523
0.0207879
0.0419058
0.0217249
0.0243196
0.020708
2.28557
0.0323769
0.0207277
0.0207358
0.0223237
0.0212955
0.0237234
0.0219326
0.0213837
0.0217506
0.021441
0.0225165
0.021517
0.0584203
0.0206347
0.0709302
0.0217044
0.0487406
0.020853
0.0216276
0.0211696
0.0203484
0.0347
0.0260049
0.0248246
2.65176
0.0230139
3.32555
2.78448
0.0708685
3.55133
0.021654
0.0214932
2.03268
2.50269
0.0212378
3.35417
0.0207324
0.107284
0.697986
0.0236056
0.0731242
1.32659
1.80074
0.0212779
0.0434972
0.0209816
0.373204
0.0240601
3.04093
7.79923
0.0217371
0.0357776
0.705941
0.0217836
1.81642
0.280531
0.0231643
0.020955
0.177707
3.30575
0.0207671
0.0307321
0.02194
1.30726
0.118064
0.0215777
0.0208833
1.57065
0.0210709
0.0214542
0.0221195
0.0207425
1.19593
0.0284505
0.0278118
3.13125
0.0213448
0.0530207
0.0217248
0.152904
0.0517193
0.358192
0.020823
0.0270361
0.0207276
0.0216194
0.0236515
0.0215119
2.28962
0.0226603
0.0207847
0.0211604
0.275537
0.020938
0.340346
2.37069
0.707415
0.0215771
0.0209482
0.0212479
0.544373
0.0218239
3.11057
0.0213463
1.80228
0.0230397
0.0228479
0.204424
0.0216403
0.0216262
3.3737
0.0961331
2.87919
0.0219997
3.45105
1.73594
0.0215902
3.11443
0.0217319
0.0252797
2.50353
0.0234868
0.0400884
3.81486
0.0296055
0.0608202
0.0216059
2.52265
0.0214346
0.360322
0.0212504
4.36417
0.0214553
0.0215653
0.0235784
0.695627
0.020983
0.0243203
0.0599637
1.41574
0.0212663
0.0286356
3.37453
0.109677
0.691982
0.070077
0.0208509
0.0964912
1.51063
0.0239912
1.5679
0.0202227
0.126261
6.40472
0.0210307
6.60976
0.0213138
3.42327
0.852
0.0237266
0.0239385
0.387699
0.747156
0.0214751
0.0227729
0.020758
0.021605
3.17999
0.0597816
0.194169
0.0217187
0.0269041
2.92409
0.0279487
0.66216
1.50694
0.0211469
0.0213902
0.171256
2.49055
2.18214
0.81364
0.175788
0.0365608
0.0498081
3.33547
2.49978
0.538288
0.020955
0.0717093
0.0421051
0.0658271
0.0214642
0.0256609
0.0556196
0.133201
0.738708
0.0221629
0.126527
3.1188
0.0405683
0.0214314
0.021436
0.0719185
0.0209888
3.47776
0.0274775
0.0221741
0.16139
0.0697727
0.0207137
0.034299
0.0288088
0.021491
3.67862
0.0247209
3.70013
0.0210485
2.98636
0.431204
0.17835
0.0203473
0.0260785
0.0300175
0.101492
0.102861
0.0612147
3.17881
0.781529
0.0196474
0.0254167
0.022479
0.108543
6.47282
0.020616
0.0206892
0.022702
0.252423
0.102704
0.0211013
0.0470107
0.162861
0.0209283
0.0500194
0.0238918
3.67488
0.0268409
0.39204
3.18522
0.027651
0.0244125
1.5714
0.0211532
0.043339
3.115
0.0243461
0.0790826
0.0303328
0.0527586
2.46926
3.406
0.0215848
0.953923
0.534189
0.0205725
0.116249
0.0606298
0.10323
2.15769
1.09612
0.770129
0.0950815
2.89149
0.0264468
0.0602108
0.0203599
0.0217639
0.0215448
0.0209312
0.210478
0.128622
0.0203191
0.046155
0.154697
0.0211392
0.529341
3.0559
0.0201106
0.0217817
0.0204704
0.0225705
0.041428
0.0214313
2.59445
0.0286679
0.0640137
0.0257549
0.0640304
0.0472291
0.0330031
0.131027
0.02149
0.0226735
0.0202788
0.0209795
3.42224
0.0852416
0.0282994
2.48529
0.0217807
0.0221076
0.0314305
0.0207633
0.0211691
0.0698219
0.0250315
3.25665
2.63626
2.47739
0.0216348
2.61264
0.0212691
0.298837
0.0206926
0.122997
2.57813
0.0214909
0.21588
3.49453
0.0314517
0.0223838
0.0208267
0.0272527
2.51451
0.0207174
0.0218145
0.0223883
0.0235087
0.172849
0.0227544
0.0253043
0.0211164
0.0223173
1.61581
0.032709
0.0238694
0.108941
0.0753083
3.11011
0.922831
0.0230855
0.0225011
3.13314
0.0214828
0.0595323
0.0216636
3.2355
0.0222421
0.0220116
0.0316974
2.72489
0.0213929
0.0208208
0.020474
0.128254
12.4046
0.105128
0.021481
0.0237822
0.0209314
3.19307
0.0209233
2.51339
0.052078
0.0217844
0.148544
0.0336748
0.0940883
0.0220693
0.0208194
0.0292807
0.0394745
0.11885
0.0217505
0.0219859
0.0221217
2.84745
0.0216111
0.0223532
3.36352
0.0230499
0.026701
0.0243499
0.021143
0.0213425
0.583303
0.0232966
1.4301
0.29213
0.0200213
1.54541
0.021917
0.0934272
0.0459104
0.0225755
0.0203911
0.0199951
0.0214196
1.04716
0.0439621
3.36724
2.7422
0.0209653
0.0260712
0.0365795
1.6832
0.0214228
0.364796
3.39569
3.15867
0.021262
0.0229217
0.0220376
0.312207
3.38325
0.0219887
0.0215409
0.029483
2.78868
0.0216933
0.0229923
0.0229865
0.104884
1.16656
0.0205124
2.63332
0.0284769
0.02142
2.44635
0.051779
1.72455
0.968329
0.0309904
0.0255563
0.0224084
0.0264632
0.0221434
0.0629612
0.0438786
0.0213915
0.0241821
0.21259
2.63997
0.0207013
0.0979976
2.63064
1.99062
0.0215494
0.0215745
0.287111
2.90484
0.0939616
0.0211836
2.62981
0.0603654
0.0200865
4.51059
0.026816
0.0217687
0.145053
0.0214751
0.0335613
0.0209156
0.0198922
0.0216279
0.0204682
3.06226
0.0203045
0.0211699
0.069238
0.024704
0.0243642
0.118085
0.0215474
0.0214831
0.0228952
0.0224403
0.30395
0.30674
0.684516
0.951535
0.0341359
0.478211
0.0419232
2.81414
2.66911
2.99308
0.0209177
0.0295944
0.0214428
0.0215893
0.0210487
0.0225143
0.169319
0.0540688
0.0362966
0.0211156
0.0213959
0.0512064
0.0218005
0.0219369
0.021557
3.19618
0.0300339
7.92879
0.0216227
0.307108
0.0220377
0.0219312
0.0222403
0.0398538
0.0210746
0.0767219
2.90686
0.0387875
3.60216
0.675057
0.0228282
0.0268902
0.364018
0.100485
0.0204634
0.0210005
0.0200157
2.78918
0.019873
0.0905747
0.0513704
0.0702376
0.231192
0.157035
0.0587204
3.7193
0.0207848
0.0204635
0.213196
2.93374
0.0214423
0.0216091
1.08316
0.0209677
0.162022
0.0227832
0.0208042
0.0251702
0.0215371
0.0651139
2.8713
3.13238
0.0244754
0.0215024
0.0732428
0.0225761
0.0721395
0.0209162
0.12203
0.0814183
0.0219355
0.0217218
0.0200691
0.114995
0.0448451
0.176386
1.51241
0.0288337
3.06972
0.0665201
0.0990385
3.32598
0.0212873
2.71027
0.0223688
3.22942
0.196244
2.69156
3.17211
0.0218675
0.0505472
0.153744
0.021507
3.92582
0.0215168
0.0215271
0.0255156
0.0221163
0.0295912
0.212378
1.09608
2.4568
0.025434
0.0378123
0.0225827
0.0219309
0.021689
0.116634
0.0771047
2.51722
0.0422851
0.0203655
0.0207681
0.0221585
0.214481
0.0240408
0.0225312
0.0247945
0.0821355
0.0303224
0.0400044
0.0371504
2.72193
0.0284931
0.0313474
0.0214288
0.0255817
0.246408
0.0451414
0.0432758
0.0207595
2.47363
0.0314849
0.0211558
0.0453166
2.8661
0.394083
0.0319377
0.020979
2.49203
0.0219866
0.0209362
0.0204089
2.27764
1.90786
0.0228136
2.00833
2.97697
0.0243876
0.0373583
0.0558436
3.65591
0.0296185
3.34742
0.0220319
0.046378
0.0247856
3.58371
0.0319459
0.0208945
2.94734
0.0216675
0.0223716
1.66398
3.05375
0.0618658
0.298231
0.0241772
0.0226441
2.66371
0.0211595
0.0211899
0.0215913
0.0425348
0.0214078
0.0309325
0.0243866
0.29116
2.0556
0.0221923
3.87618
0.0242659
2.91991
3.46493
0.0215677
0.0217616
0.0250996
0.747323
0.169122
0.0610723
2.87176
2.57948
0.51191
0.0227944
2.72981
3.50374
0.0425064
1.94786
0.0216393
0.0213852
0.0216055
0.0224988
0.0212964
0.0316768
3.16809
0.0306065
0.275255
4.73572
2.38458
2.49511
3.15698
0.0278736
3.51894
0.0950495
0.0668905
0.0206715
0.0215577
0.0615456
4.07828
0.0226843
2.69819
3.02816
0.020962
0.0216185
0.0218454
0.0830964
0.0220878
0.0661257
2.75058
0.0206764
0.0214066
0.0209364
0.0222781
0.0882548
2.95116
0.0346406
3.11577
0.0991664
0.021171
0.313036
0.118155
0.0215293
0.540021
1.81943
2.51436
1.07828
3.47047
0.0214274
2.79177
2.96421
0.142009
3.11333
0.0210219
0.0231998
0.0237527
0.0232573
3.27573
0.0607195
0.0217357
0.0266555
0.346608
3.04113
0.022676
0.0220862
3.41137
3.13814
0.0217412
0.027347
0.0949334
0.0213289
0.0214174
2.60182
0.0211292
0.22987
0.311686
3.36946
0.0210569
0.0685985
0.126744
0.0211252
0.0201469
2.46057
2.0902
0.0220109
0.0330833
0.152206
0.195504
3.38078
1.6023
0.0253424
0.310237
0.345143
0.0331535
0.0211157
0.0771398
0.0204226
0.0202621
3.30814
0.0358074
0.0854001
0.024164
0.0259158
0.0209914
0.0204852
0.0221487
0.0223528
2.35358
0.0239367
0.949642
6.20008
0.0414249
0.0643916
2.51255
3.49692
2.39796
0.0209818
0.0245362
0.0336974
0.025134
0.157413
0.333013
0.0221212
1.04384
3.2343
0.0261179
0.0821678
0.0680585
0.0898675
0.0984264
0.022704
0.109805
0.121162
0.134286
0.149586
0.102187
0.0742694
0.0266461
0.0210932
0.0315137
0.0813518
0.0210928
0.253075
3.58588
0.160128
2.91313
0.0201125
0.0207516
0.0484918
2.91234
0.0222733
0.0237657
0.0586372
2.49191
0.992832
0.0215117
0.0304551
0.0248734
3.56588
0.352816
0.0239236
0.557049
3.0144
0.0901334
3.24434
0.0861262
0.354276
3.50767
0.0195813
3.66931
3.07389
0.022512
0.064805
0.0903558
0.0252533
0.020916
1.00905
1.13803
0.0209397
0.0209856
2.49164
0.812174
0.0729971
0.0217651
0.213106
0.11504
3.00167
3.7162
0.0215956
0.0213803
0.0222262
0.0227851
3.31465
1.11671
2.94308
0.0760023
0.184356
0.578517
0.0227869
0.0210512
3.07323
0.0209773
3.44519
0.0207703
3.23259
0.0225088
0.0224024
0.616584
0.0215693
0.0999287
0.356362
0.0241929
0.0234822
0.0226354
0.164038
3.32377
0.140364
2.93722
0.02372
0.0225517
0.0270825
0.0705559
3.79878
2.45925
0.0899033
0.210106
0.111246
2.78226
0.021032
0.0209514
0.0206928
0.0206729
0.169232
0.0646243
0.392087
0.0387273
0.13419
0.0211387
0.302048
0.116239
3.86429
0.0214696
0.0227883
0.0199095
2.93092
0.0266328
0.678888
0.146016
0.108232
0.196535
0.020042
0.035246
0.131256
0.201686
0.750565
0.0216278
0.12007
0.0220529
0.0220146
0.0984515
0.912518
0.675004
0.0218493
0.0799393
0.156349
2.51204
5.35028
3.35337
3.41919
0.0210606
0.0564457
0.0216581
0.124903
0.0212364
0.102309
0.0231909
0.0460374
0.282876
0.370552
0.023315
0.0973404
3.04628
0.106275
0.0234609
1.72709
0.0972874
0.0221488
0.0223397
3.32193
0.0279954
0.115346
0.544465
0.39101
4.18225
0.0229178
2.97962
2.89427
1.00927
0.855842
0.0303719
0.0971644
0.0877354
3.31951
0.0770195
0.0221545
1.95333
0.0561089
0.274401
0.0270987
2.53047
0.221932
2.29726
0.025699
0.147064
0.024024
3.10964
0.133524
2.41955
7.52564
0.0209439
0.0198927
3.07979
3.6268
0.0333995
0.0220735
0.0397013
0.0295889
3.01948
0.0721135
3.10168
0.0256175
3.16128
0.112362
1.09713
0.0221111
0.13872
2.44759
0.0235248
0.0770298
0.0200908
0.0240919
0.0216415
0.297646
0.0212074
0.0216323
3.47692
2.96563
0.0206546
3.71079
0.0223287
0.0215557
0.0213094
0.0209565
0.0217741
0.564006
3.35433
0.0206626
1.5984
0.0620327
0.0448453
1.80478
0.0779724
0.0252002
0.0307909
0.0212962
0.288709
0.029923
3.75844
0.0243804
3.20124
1.36654
0.0653863
1.36913
3.23563
0.0207888
3.70971
0.0523305
0.0604177
0.0370814
0.0211965
0.0483824
0.172546
0.0215978
0.0649027
0.0214181
3.37458
0.132033
2.41574
0.161247
0.154285
3.44289
0.021598
0.021235
0.0578889
0.0228933
0.02176
0.0217879
0.0267116
0.0211097
0.0212018
0.0226375
0.0402602
0.0231616
0.0268378
0.0227964
0.0357232
0.0922283
0.0234734
3.4725
0.0232405
0.0212607
0.0847765
0.0398999
0.0229109
0.0210995
1.25341
0.0232923
3.15794
0.0234677
0.102302
0.0213088
0.0214554
0.0943253
3.56517
0.0649838
0.0336896
0.0201788
3.01315
0.0216647
0.0211661
0.0706271
0.0237862
0.126768
3.02193
0.0889422
0.111669
0.039432
4.21067
0.0215284
0.0216498
0.059817
0.319095
0.055304
0.0912995
2.46239
0.0270527
0.0215952
0.0272879
0.211082
0.0534126
0.0216169
0.0927123
0.0891077
0.0600702
0.0217651
0.0216482
0.161149
0.0593329
1.71568
0.486153
0.0236031
0.0649183
0.0217409
0.041829
1.83554
0.0217274
0.145718
0.0877289
0.077069
1.09243
0.0215611
0.0214058
0.0212498
3.48428
0.204574
0.0234031
0.0944311
0.10165
0.0217175
0.0214595
0.150534
3.63766
0.163444
3.08583
0.152496
0.0296564
0.629414
0.11208
0.0294766
0.26592
0.0809723
0.406489
0.0215427
0.0897662
0.124202
0.0223803
1.36323
0.0377165
0.0729863
0.0266554
0.137841
0.0211164
4.00534
0.0242871
0.0208081
0.0210176
0.0207635
0.0226484
0.022441
0.0209175
0.0239201
0.0216422
0.0223213
0.284459
0.0723069
0.0221908
0.0596685
0.0244293
0.0218751
0.020446
0.0438008
0.0266289
2.70753
0.0215789
0.0215957
0.0651794
0.150431
0.0216232
0.0215692
0.103872
0.023397
0.0867765
0.0568511
0.0216078
4.0029
0.0236031
0.022325
0.0713743
3.76345
0.0222316
0.0548658
0.0209373
0.0253994
0.0214137
0.0267825
0.0211978
0.0216108
0.0417634
0.0571196
9.80361
0.0485991
0.021521
0.0279745
3.19276
0.0469648
0.165569
0.0912591
0.0216466
0.0514971
0.0735744
0.175238
1.55944
0.0255793
3.32428
0.325781
0.0291554
0.0217256
0.0716138
0.0222712
0.0528342
2.9897
0.0215907
0.592831
0.021825
2.8421
0.0492045
0.0223887
0.0576713
2.91526
0.508203
0.0236921
0.0677008
0.0296928
0.0206385
2.60319
0.0205253
0.0329454
0.0211045
0.0248657
2.50579
0.0665217
0.0205286
0.0287041
0.141622
0.0215717
0.0219352
0.027782
0.0251655
0.0214723
0.0236101
0.0243405
0.0220603
0.0211094
0.0574189
0.0963429
0.166095
0.0210328
0.0543095
2.98915
4.38564
0.0209578
0.0216236
0.024808
0.0824723
0.0222063
0.0210884
0.0212369
0.0209344
0.0257603
0.0270417
0.0243893
0.0606939
0.0232622
0.0204601
0.0232709
0.0592787
0.0453131
0.0997123
0.0221921
0.0280796
3.20067
0.0291714
0.0244121
4.20555
3.15257
0.0916735
0.0629778
0.151401
0.0214051
0.239506
0.0268325
5.16938
0.0214159
0.0212294
1.2368
0.0208169
0.295177
2.55276
0.0220091
10.6806
0.0300492
0.031084
0.0265678
0.0701189
0.0286919
0.0259115
0.181381
0.0208919
0.0240232
3.57188
0.0230353
0.0215042
0.0296397
3.14114
0.0222284
0.0222316
3.09592
0.0232405
0.0265244
0.0546754
0.0203566
9.04843
0.0239192
0.0223783
0.102938
0.0535821
3.03087
0.0233241
1.11429
0.0327074
0.0833923
2.54051
0.0215785
0.0317791
0.0848129
0.0221856
1.06155
0.0222627
0.023118
2.93266
0.0222146
0.0394955
0.0825789
0.705523
0.0294112
0.0261799
0.0223248
0.0236918
0.0837339
0.0243492
0.0299725
0.0721696
0.0507165
0.0217156
3.36366
0.0368328
0.0204702
0.0228405
0.0212384
0.0208248
0.0203614
0.0216048
0.0215421
0.0292842
0.0237059
0.041631
0.020229
0.0204503
0.0219635
0.0728679
0.0207458
0.0298583
0.0626587
0.0284618
0.0293798
0.0214604
0.0231284
0.0241065
0.0366577
0.0282002
0.0241646
2.57305
0.0217673
2.29492
0.0245712
0.0825737
0.0850874
0.0215701
0.0550679
0.0305309
3.10633
2.93564
0.0250878
0.0217678
0.0233934
0.0290446
0.0457009
0.0213615
0.0590736
0.0509515
0.021799
0.0547106
0.0496497
0.0620864
0.0281988
0.149477
0.0830319
0.0268329
0.511782
0.0228606
0.119279
0.0224619
0.0212763
0.076071
0.07809
0.0214003
0.048131
0.0214445
0.0216688
0.0214802
0.0220442
0.0215098
0.0214124
0.021407
0.0222411
0.151791
0.0225616
0.021356
0.0225492
0.022565
0.176858
2.88938
0.0619337
0.0240408
3.26436
0.021452
0.0213695
0.676574
0.0313787
0.0221931
0.0222745
0.0216906
0.15837
0.0218131
0.0252412
0.0223378
0.0330676
3.76696
0.0214561
0.0548987
0.0614828
0.0248625
0.0419958
0.0207803
0.0217109
0.0571983
1.87172
0.0231483
0.0350222
2.57946
0.0851052
0.0208889
2.64453
0.0226803
0.0196467
0.0601349
3.47625
0.0215039
0.0207358
0.0230525
0.029972
0.0333619
0.0214286
0.0224353
0.0378844
0.0217043
0.0284797
0.0254526
1.03328
0.0204996
2.88904
0.493473
0.0357531
0.021366
0.0860085
0.0211004
0.0233817
0.0216103
0.0524615
0.0202101
0.020188
0.039403
0.0608774
0.971117
0.0219349
0.0201144
0.0231792
0.0208684
2.85946
0.0233351
0.0227912
0.0221471
0.0588789
0.0454946
0.023409
0.0230643
0.0428136
0.0217027
0.021567
0.0233095
0.0221492
0.137285
0.0211866
0.0297946
0.0219871
0.0215323
0.0474323
0.084107
2.83984
0.0214824
0.0597027
0.391775
2.91373
3.20622
0.0305556
0.021548
0.024384
0.0293174
2.25286
0.0218933
0.0249142
0.0266771
0.0300739
0.0202552
0.0513769
0.0447351
1.0667
0.0221132
0.0216988
0.0861054
1.00428
0.020133
0.0243743
0.0324986
0.0200028
0.0225032
0.043565
0.0210351
0.0214761
0.0217323
0.0242624
0.0756832
0.0351626
0.0225114
0.0207388
0.0222107
0.156561
0.0199237
0.0208916
0.0257069
0.0816527
0.0253092
4.18471
0.0243529
0.0214816
0.02154
0.0230533
0.021208
0.0322429
0.0616529
0.0209672
0.0210112
0.0220361
0.0213074
0.0221581
0.0432016
2.52718
0.0226295
0.0923809
0.0230939
0.0213232
0.213812
0.0234604
3.5397
0.0218115
0.0218073
0.0207442
0.0214996
0.0225685
0.0298194
0.0390771
0.334572
0.0277258
0.0509347
0.0218095
0.0328132
0.0214395
0.0233581
0.0323761
2.46342
3.0275
0.0218969
3.25223
0.109565
0.0406814
0.970739
0.019861
0.0214146
0.0217221
0.0229147
2.64183
0.0208235
0.0668707
0.445631
0.0224296
0.0777011
0.0199886
0.0310213
0.331098
2.25546
0.0218513
0.197335
0.108311
0.474986
0.0259534
3.24208
0.0225834
0.11508
0.0972861
0.0205161
0.0406262
0.0310087
0.0235168
0.389242
0.0299203
0.0210057
0.0221248
0.089716
0.0217738
0.0576325
0.0215759
0.0198967
0.0232145
0.0317341
0.0215537
0.0764881
0.0264738
0.0237367
0.0198905
0.0215355
0.440466
0.0772009
0.155495
0.0328607
0.0248044
0.0277459
0.0254487
0.0214516
0.022716
0.0334678
0.0231454
0.0240225
0.0204006
0.025644
2.83317
0.0219901
1.88325
0.125371
0.0216471
0.0216926
0.020275
0.0283527
0.0364842
0.020106
0.0252556
0.0229301
0.0220278
0.0211516
0.0220885
0.0213294
0.0216508
0.290984
0.0220114
0.0262666
0.0214588
0.157601
0.204551
0.0214788
0.249427
0.0216631
0.0238282
0.0300794
0.348433
0.0285496
0.0210088
0.0213828
0.0329061
0.0402778
0.139518
0.0228092
0.0482827
0.111017
0.0219721
0.0215161
0.122453
0.0506897
0.0305051
0.0216886
0.0220503
0.0227064
0.0233421
0.0209498