/*--------------------------------*- C++ -*----------------------------------*\
| =========                 |                                                 |
| \\      /  F ield         | OpenFOAM: The Open Source CFD Toolbox           |
|  \\    /   O peration     | Version:  v2012                                 |
|   \\  /    A nd           | Website:  www.openfoam.com                      |
|    \\/     M anipulation  |                                                 |
\*---------------------------------------------------------------------------*/
FoamFile
{
    version     2.0;
    format      ascii;
    class       surfaceScalarField;
    location    "100";
    object      phi;
}
// * * * * * * * * * * * * * * * * * * * * * * * * * * * * * * * * * * * * * //

dimensions      [0 3 -1 0 0 0 0];
oriented        oriented;


internalField   nonuniform List<scalar> 
20537
(
-0.369288
0.506814
-0.137553
-0.203838
-0.0417003
0.245538
-0.186096
0.161215
0.0248793
-0.00848554
-0.308104
0.316563
-0.148131
0.162923
-0.0147926
0.315887
-0.501197
0.185302
0.200741
0.198466
-0.39926
0.241325
-0.088442
-0.152885
-0.454964
-0.0963008
0.551202
-0.0180851
0.189734
-0.171651
0.546038
-0.164058
-0.381983
0.0618072
-0.156978
0.0951707
0.0870192
0.0185801
-0.105599
-0.0392213
-0.00312866
0.04235
0.675378
-0.543756
-0.13186
0.273224
-0.278744
0.00551517
-0.049617
0.280522
-0.230915
0.438722
-0.244944
-0.193789
-0.14429
0.144893
-0.000602668
0.0847455
-0.539776
0.351602
-0.36013
-0.0829196
-0.103177
-0.364663
0.585828
-0.221189
-0.691762
0.0988471
0.592806
-0.550607
0.185918
0.212407
0.0289153
-0.0883034
-0.17821
0.266506
-0.00983881
-0.00294044
0.0159225
-0.385241
0.231851
-0.350042
0.118172
0.490457
-0.174578
0.226316
-0.275943
-0.0256091
0.186823
0.455111
-0.521514
0.0664011
-0.603091
-0.0887846
0.110645
-0.125622
0.0149765
-0.000492686
0.0860902
-0.0855976
0.217007
-0.133454
-0.0835528
0.13912
-0.157206
-0.0303952
0.485503
0.0509813
0.332941
-0.383994
0.490025
-0.666555
0.17652
0.00370144
-0.00481019
0.00110875
0.297281
-0.533947
0.236664
0.518223
-0.220944
-0.00274919
-0.00017344
0.00292263
-0.53606
0.256933
0.279127
0.256923
-0.499785
0.24286
0.170288
-0.258598
0.317594
0.226157
-0.543759
0.162285
-0.0192354
-0.14305
0.14415
-0.0730153
-0.0711346
0.00411641
-0.0158743
0.0117579
-0.733409
0.374206
0.358975
0.655431
-0.53541
-0.120238
0.665762
-0.175745
0.653295
-0.296295
-0.357058
-0.00710438
-0.00894134
0.0160457
-0.176489
0.408319
0.279979
0.0990502
-0.379078
0.0552805
0.161726
0.0756614
-0.0621989
-0.0134625
-0.38865
0.293692
0.0949517
-0.142004
0.129157
0.0128467
-0.19694
0.320579
-0.123642
-0.449201
0.155088
0.294097
0.0685544
-0.0690471
-0.563099
0.308669
-0.212048
0.213616
-0.00157075
0.198962
0.239749
0.0175624
-0.0216068
0.00404447
0.0908696
-0.0800391
-0.0108306
0.0661213
-0.269959
-0.292581
-0.441093
0.282642
-0.585174
0.302343
-0.529992
0.433415
0.0965365
-0.136466
0.0535463
-0.0291309
0.0012677
0.0278632
-0.00136242
-0.173039
0.1744
0.0204797
-0.00163418
-0.17435
0.430946
-0.256633
0.418437
0.0709349
-0.489372
-0.429786
-0.0550134
0.484691
0.00092374
-0.00572581
0.00480207
-0.321289
-0.0673674
0.138751
-0.0769439
0.491559
-0.159573
-0.331995
0.00103628
0.136555
-0.137592
-0.257986
0.320136
-0.0621577
-0.35976
-0.246564
0.606298
0.0198842
0.0907607
-0.0702906
-0.322215
0.392491
-0.167481
-0.0885517
0.248089
-0.159542
-0.0257937
-0.232202
0.564017
-0.552066
-0.0120102
0.0286542
-0.176786
0.0126689
0.0312138
-0.0438827
-0.176194
0.493777
-0.0245013
0.588449
0.0172705
-0.0326766
0.0154062
0.173914
-0.171741
-0.00217484
0.0822231
-0.383039
0.300791
0.266884
-0.0186033
-0.45877
-0.0997028
0.558468
-0.502516
0.402183
0.100324
-0.179251
0.17647
0.00278025
0.525495
-0.685031
0.159529
0.0719676
0.0125096
-0.18544
-0.315765
-0.541776
-0.0193021
0.561003
0.271403
-0.63119
0.318255
-0.388562
-0.652323
0.652218
-0.0724742
-0.469382
0.321094
0.014386
-0.0510581
0.0637269
0.0734796
-0.474091
0.400603
-0.574516
0.575954
-0.00159162
-0.193384
0.562447
-0.369249
0.00202137
0.00168007
0.234427
0.0324471
0.0974096
-0.0103905
0.264058
0.493108
-0.236196
-0.774509
0.350067
0.42443
0.266882
0.226216
0.157266
-0.18644
0.0291723
0.0413008
0.310263
0.173384
-0.0820886
-0.0912962
0.426832
-0.37592
0.557601
-0.164295
-0.393409
0.0232292
-0.00566685
-0.550906
0.121005
0.328798
-0.57331
0.607103
-0.033917
0.557652
-0.484183
-0.073042
0.0912311
-0.0181892
0.0311928
-0.0321144
0.000921597
-0.0170801
-0.0163287
0.0334089
-0.00729156
0.024562
0.375868
0.279326
0.167534
-0.565452
0.397885
0.720088
-0.381736
-0.338363
0.409176
-0.0867881
-0.322404
-0.234784
-0.299165
-0.450658
0.62116
-0.170504
0.0407411
0.132643
-0.264265
0.464944
0.147075
0.371147
-0.00285161
0.128529
-0.421935
0.615613
-0.193872
0.00475921
-0.0439805
0.310334
0.342911
0.361191
-0.208101
-0.153103
0.298789
0.110369
-0.498426
0.192683
0.30567
0.227481
0.132305
-0.359805
0.0126146
0.131535
0.003905
0.15838
-0.355661
-0.247468
0.603127
-0.0750378
0.223377
-0.148343
0.00825236
-0.0153567
0.166482
0.391026
0.262587
-0.368103
0.105505
0.64292
-0.232797
-0.410134
-0.687715
0.237055
0.00434313
-0.216394
-0.312583
0.353849
0.037038
-0.00188419
-0.0351539
0.000226106
-0.029357
0.241485
-0.545779
0.30424
-0.179121
-0.319377
0.0132646
-0.0303446
0.567146
-0.40076
-0.28352
-0.216266
0.182225
-0.0249607
0.537434
-0.511231
-0.0262274
-0.0297293
-0.114561
-0.520931
0.670301
-0.149376
-0.267625
0.0574422
0.210175
0.0178277
-0.133343
-0.358655
0.491888
0.0545274
-0.157705
-0.364759
-0.236277
0.601034
-0.449059
0.615382
-0.166363
-0.182451
-0.266766
0.355491
-0.549065
-0.168893
0.160653
0.00823972
0.213152
0.00214463
-0.215298
-0.227391
0.0171438
-0.0130274
0.266613
-0.540978
0.274344
0.184276
-0.208614
0.0243346
0.0647425
0.0109188
0.397735
-0.179417
-0.218334
0.543137
-0.375633
-0.0404397
0.464798
-0.42436
0.460897
0.0765013
-0.428408
-0.101625
-0.308097
-0.466424
-0.0128376
0.0181466
-0.00530904
-0.580521
0.0838445
0.496507
-0.54
0.150127
0.389781
-0.0210299
0.201536
-0.180508
-0.491699
0.358249
-0.0652626
-0.0342319
0.0994944
0.144975
0.141005
-0.28599
0.0344453
-0.00230543
-0.0321398
0.130043
0.444055
-0.574101
-0.0169012
-0.0391435
0.0560446
-0.347441
0.429628
-0.43836
0.0338352
0.404526
0.453275
-0.638331
0.185052
-0.722022
0.429605
0.292406
0.581473
-0.178679
-0.402798
-0.141731
0.394806
-0.253083
0.00277459
-0.00552378
-0.110794
-0.407963
0.518588
0.0366469
-0.00220164
0.261573
-0.116606
0.190207
-0.364588
-0.00195003
0.0504144
-0.0484644
-0.0637573
0.143451
-0.0796936
-0.000338299
0.040439
-0.0401007
-0.599814
0.581027
0.0187505
-0.0455355
-0.189688
0.235219
-0.527901
0.0691255
0.00232418
-0.0117717
0.00944756
0.676136
-0.222864
0.216355
-0.00395093
0.383796
-0.342101
-0.0416985
-0.284535
0.525965
0.537995
-0.153663
0.144445
0.00921682
-0.0697926
-0.24845
0.318237
0.029933
-0.0951957
0.04324
-0.240182
0.283533
0.436543
-0.452576
-0.0875083
0.12287
0.367579
0.339843
-0.474982
0.135132
0.578027
0.0594274
-0.637455
-0.17804
0.157008
0.458402
-0.558111
0.0328714
0.00516066
-0.0380321
0.192636
-0.0187225
0.451651
-0.481685
0.0300348
-0.393068
0.288253
0.104798
-0.223326
-0.118885
0.3422
0.671071
-0.397686
-0.273408
0.484197
-0.144355
-0.240853
-0.11022
0.351044
-0.0942939
-0.0305311
-0.119004
0.149534
0.331619
-0.123507
-0.208117
0.22642
-0.013271
0.0106289
0.0806022
0.00658698
-0.01983
0.013243
-0.19199
-0.344149
0.536008
-0.438499
-0.44347
0.341857
0.101599
0.445949
-0.0958113
-0.350141
-0.63131
0.211061
0.420234
-0.132174
0.116652
0.0155214
0.184859
0.212863
-0.365008
0.12413
-0.204879
0.116323
0.0537182
-0.0556683
0.415577
0.150631
-0.566219
0.299379
0.371668
0.18176
0.550269
-0.132724
-0.417548
0.175212
-0.176576
0.246531
0.0266868
-0.536247
0.371858
0.580154
-0.161717
0.587048
-0.168562
-0.418492
-0.00266347
0.0420579
-0.0393945
0.0750692
0.470966
0.0235949
0.554433
0.0817268
-0.561491
0.47976
-0.50476
0.601622
-0.0968659
-0.149567
0.119035
-0.00283398
0.448781
0.424214
-0.1888
-0.235408
0.0360572
0.453759
-0.489873
-0.380773
0.497233
-0.116634
0.134938
0.415327
-0.610398
0.216441
0.393959
0.147801
-0.107061
0.153561
-0.330067
-0.107201
0.387138
-0.216692
0.214844
0.00184571
-0.423107
-0.18729
-0.0295332
-0.102641
0.0630907
0.173758
-0.236856
0.145131
-0.00638052
0.433713
-0.571934
0.138135
0.0407844
-0.00791298
0.106448
-0.181489
0.0815941
0.198918
-0.0164751
-0.0314065
0.0478817
-0.13508
0.362768
-0.227725
-0.374408
-0.128118
-0.0459759
0.0417863
0.00418951
0.483018
-0.447025
-0.0147689
-0.144312
0.15908
0.22487
0.0232129
-0.217206
0.370749
0.0384073
-0.00721455
0.215859
-0.152775
0.38624
-0.358449
-0.0278224
0.0517185
-0.0617357
0.0100172
0.654115
-0.260314
-0.393811
0.0516633
-0.274997
0.736821
-0.374002
-0.362831
-0.0542973
0.0516338
0.122277
-0.0143813
-0.107896
-0.508178
0.397228
-0.188935
0.0457081
0.143226
-0.259058
0.488883
-0.229991
0.0318843
-0.0252973
0.0097351
0.458421
-0.468174
-0.455521
0.64457
-0.18908
0.611814
-0.254326
-0.35753
0.122915
-0.000637627
0.197757
-0.243297
-0.320053
0.0704667
0.249573
0.109845
-0.366489
0.231363
0.323497
0.0627067
0.416944
-0.581005
0.0418327
-0.00752598
-0.0400933
0.00504543
0.0350479
0.0846599
-0.379154
0.294483
0.0460052
-0.0624804
0.010727
-0.10402
0.0932927
0.382581
-0.0196172
0.203891
0.129655
0.0181466
0.534862
-0.33612
-0.198752
0.0353879
0.230844
-0.266236
-0.00109282
0.112651
-0.111558
0.115359
-0.247972
0.521966
-0.274022
0.343247
-0.014983
-0.328262
-0.00689966
-0.0374275
0.0443271
0.0404007
-0.584398
0.638661
-0.0554741
-0.583194
0.13919
0.499463
0.204409
-0.0638658
-0.140544
-0.106423
-0.213643
-0.225183
0.260566
0.0124646
-0.0101404
-0.495181
0.316005
-0.00119722
0.344445
0.362858
0.248913
-0.499991
0.240746
-0.113555
0.571953
-0.0558258
0.581316
-0.187784
0.554654
-0.366942
0.0421351
-0.0490348
0.609811
-0.24203
-0.367785
0.311033
-0.441799
0.130703
0.177014
-0.191785
-0.6569
0.358842
0.298049
0.120145
0.0249865
-0.290596
0.22266
0.0679323
0.336995
-0.373567
0.0357063
0.00133174
-0.12328
0.434253
-0.245712
0.103978
-0.0320586
-0.193789
0.225843
-0.15296
0.489955
0.092775
-0.448992
0.356147
0.159128
-0.633228
0.191116
0.228968
-0.420099
-0.0177617
-0.0154104
0.0331722
0.637921
0.019228
0.0191793
0.212634
-0.101507
0.100414
-0.0251817
0.0232975
-0.649371
0.112158
0.537208
-0.125111
-0.524265
-0.0162823
-0.341094
0.357358
0.633447
-0.156938
-0.4766
0.513935
-0.528555
0.0143786
0.384935
-0.300289
-0.0854281
-0.103508
0.034675
-0.0378036
-0.253316
0.215006
0.0383079
-0.0509154
0.0505771
0.0485688
-0.00972765
-0.0388412
-0.400403
-0.256504
0.229589
-0.421683
-0.00438707
0.00532343
-0.0221849
0.0168614
0.0772805
0.306512
-0.0540361
0.00297801
0.450493
-0.259394
-0.213481
0.181418
0.501537
-0.535264
0.0336728
-0.1101
0.120827
-0.435737
0.517098
-0.0814137
-0.103789
-0.174959
0.370282
-0.386582
-0.447229
0.337863
0.109308
0.0537033
0.0966466
0.386312
0.32106
0.321852
-0.122729
-0.0192758
0.235068
0.0783618
-0.313436
-0.0140804
-0.0150059
0.0290863
0.34293
0.0159303
-0.358874
-0.133544
-0.443944
0.00793699
0.436006
0.284621
0.199576
-0.325619
0.0939284
0.231682
0.174135
0.0302736
0.284194
-0.20261
0.132464
0.449005
0.123416
0.434225
0.497212
-0.400628
0.0935175
-0.542617
0.150144
-0.173137
0.0229927
0.189428
-0.47787
0.288442
0.127169
-0.120443
-0.00672563
-0.0402355
-0.403716
0.0178039
-0.234364
-0.287152
0.117142
0.140303
-0.0597712
-0.0938918
0.44609
-0.353391
0.469163
-0.184549
0.662109
-0.501279
-0.16084
-0.177088
-0.0170785
0.194166
-0.370866
0.520189
-0.149327
0.0125444
0.169917
-0.182463
-0.0261687
-0.00406258
0.0302313
0.593266
-0.132401
-0.614439
0.212505
0.401929
-0.569726
0.198858
0.0463012
-0.022913
0.307192
-0.671954
-0.224787
0.222014
0.00276842
0.00918516
0.558473
-0.142904
-0.487001
0.544082
-0.0571355
-0.401795
0.108862
0.292901
0.129425
0.0281325
-0.101148
0.078497
-0.360666
0.282158
0.0849992
-0.121838
0.0368391
-0.546919
-0.0529331
-0.563964
0.309593
0.00199336
-0.00816867
0.00617531
-0.0821909
0.344768
-0.459328
0.541053
0.11802
-0.116984
0.463639
0.169722
0.198687
-0.158388
-0.376168
0.534494
0.126622
0.174008
-0.300636
-0.129697
-0.238466
0.368146
-0.431452
0.46083
0.132406
-0.00990543
0.0616239
0.37591
-0.431013
0.202007
-0.195521
-0.00648822
-0.0803815
-0.493049
0.261911
-0.381986
0.12007
-0.604658
0.175632
0.429021
0.56335
-0.563455
0.518428
-0.161466
-0.35702
-0.55358
0.134375
0.517747
-0.180431
0.427564
-0.247135
0.255118
0.112233
-0.367382
0.365403
-0.524985
0.119283
-0.47805
-0.166612
0.668098
0.0343796
-0.028496
-0.00588359
0.00223545
-0.0284042
0.1444
0.317822
-0.462313
0.399429
-0.13753
-0.279828
-0.0457988
-0.26748
-0.207508
-0.00104891
0.00197265
-0.368246
-0.195756
0.259553
0.350255
-0.0813376
-0.367725
-0.154763
0.00338526
0.151377
-0.329852
-0.0684581
0.39826
-0.00980835
-1.37085e-05
0.00982206
-0.13419
0.547187
-0.413007
-0.0169782
0.00110392
-0.218943
0.212986
0.00595544
-0.215465
-0.451099
0.216431
0.182986
0.0438723
-0.0143083
-0.029564
0.204681
0.0116721
-0.465945
0.441869
0.0240754
-0.519153
-0.0555107
0.319029
-0.506477
0.187449
-0.57189
0.0362536
-0.17095
0.57916
-0.408296
-0.580434
0.190135
0.390212
-0.448279
0.334967
0.113252
0.0263572
-0.0210337
-0.15598
0.154152
0.00182729
0.125613
-0.0193551
-0.106258
0.0958751
-0.0858584
-0.0100167
0.0735084
0.327408
-0.68307
-0.0964513
-0.00393358
0.100385
0.505875
-0.316448
-0.0586818
-0.20895
0.0041672
0.219205
-0.482089
0.214604
-0.230919
0.494981
-0.0707389
0.0538377
-0.515925
-0.00940666
0.525089
-0.0108634
0.00105503
-0.00122235
-0.00516165
-0.00767594
-0.152252
-0.140216
0.356636
0.559289
-0.195869
-0.4539
-0.160545
0.235679
0.0959344
0.401655
-0.442095
-0.183802
-0.00333841
0.18714
0.351975
-0.124513
-0.168352
-0.0154502
0.0773259
-0.00636358
-0.0709623
-0.53946
0.40526
0.133143
-0.152076
0.00316922
-0.025342
0.0221728
0.375939
-0.0877013
0.329842
0.174426
-0.504392
-0.351875
0.544485
0.33246
0.124375
-0.456893
-0.01355
-0.155344
0.241651
0.0678366
-0.309493
0.0175527
0.119001
0.116979
-0.0319796
-0.437504
0.596986
-0.159579
-0.00506535
0.00705871
0.00149291
-0.0314003
0.0299074
0.478585
-0.424631
-0.0539601
0.262311
0.243562
0.206348
0.581744
-0.480848
-0.100896
0.400851
0.455067
0.0806537
-0.535721
-0.0970801
0.000628633
-0.223201
0.0150914
0.117696
-0.117794
9.81269e-05
-0.0838307
0.0999087
-0.0160781
0.213594
0.45216
-0.380002
0.461968
-0.0819665
-0.274584
0.492691
-0.218107
-0.22117
0.157304
-0.141149
0.143895
-0.00274645
0.00232965
0.0240275
-0.00580404
0.076079
-0.070275
0.345426
-0.110288
-0.336999
-0.121919
0.177947
-0.0560268
0.00259298
-0.0952538
-0.0094091
0.104663
-0.117291
-0.136028
0.368656
-0.0749703
-0.576763
0.310302
0.198746
-0.509155
-0.180426
0.697223
-0.483636
0.279848
0.0960745
0.183592
0.486704
-0.162761
-0.394328
0.556966
0.0806596
-0.00333375
0.157811
-0.46769
0.427442
0.297097
0.400119
0.0440947
-0.0248668
0.422516
0.0422795
0.632724
-0.186368
-0.44644
-0.415255
0.564169
-0.148957
-0.0954941
-0.535831
0.554078
-0.0296972
0.0119355
0.450596
0.00105613
0.0122358
-0.0164361
0.0112744
0.481499
-0.162469
-0.0496903
-0.162235
0.211922
-0.0196122
0.0227814
-0.024576
0.0222706
0.141781
-0.389778
0.0208471
0.192767
0.0602652
0.521478
0.428713
-0.230093
0.0180899
0.211999
0.00342956
-0.070198
0.0667684
-0.366698
0.351716
0.000328345
0.117367
-0.270871
0.0340701
0.236796
0.0829492
-0.47924
0.396225
-0.308087
0.233226
0.0748551
0.132592
-0.528265
0.395647
-0.0369022
-0.429043
0.133897
-0.141484
0.00758563
-0.367984
0.487147
-0.300796
-0.0783698
0.023473
-0.510532
0.144062
-0.224251
0.0801849
0.118318
0.00885066
0.410337
-0.31134
0.109216
0.336801
-0.113853
-0.176747
0.06598
-0.317203
0.251187
0.149372
0.167449
-0.0173055
0.0432579
-0.107015
-0.296786
0.0746882
0.222092
0.0111258
-0.10638
0.471793
-0.388909
0.0795571
-0.375647
0.296084
-0.387967
-0.0143055
-0.0021306
0.140018
-0.4875
-0.633375
0.290818
0.342485
-0.00379027
0.0757579
-0.202051
0.421019
-0.218988
-0.00387704
-0.0213047
0.0368139
-0.0404648
0.00365092
0.00148646
-0.00786573
0.00637927
-0.0312068
0.149226
0.0818548
-0.517643
-0.0838294
-0.466625
0.490219
0.337773
-0.537316
0.199429
0.123811
0.423368
0.379302
-0.542187
-0.619039
0.277656
0.341383
-0.0318203
0.374738
-0.215899
0.342514
0.705031
-0.407941
-0.116581
-0.0144924
0.131073
0.00747472
0.0113441
-0.127925
0.164193
-0.545502
0.381242
0.138766
-0.560335
0.421563
0.627742
-0.145499
-0.482263
0.00377678
0.125877
0.00760427
-0.0819059
0.0743016
0.108661
-0.149177
0.0405154
-0.0608222
0.128262
-0.594888
-0.452304
-0.0830061
-0.136259
-0.454072
0.590233
-0.251699
0.425483
-0.173825
0.0594383
-0.0815646
0.0221263
0.106697
-0.0593196
-0.0473772
-0.24926
0.315194
0.242312
0.462712
-0.139281
-0.309056
-0.471849
0.22009
0.181158
-0.160083
-0.0210755
-0.00607913
0.0179441
-0.0118649
-0.0615609
0.0499847
-0.0597013
0.00971658
-0.275988
-0.230489
0.458394
-0.349266
0.130993
-0.00538041
0.0308908
-0.195847
0.00393936
-0.160918
0.119396
0.311513
-0.24452
0.149208
-0.0405475
0.357772
0.43549
-0.347399
0.303608
0.389484
0.272616
0.130245
0.0522747
0.0299042
-0.0339668
0.153752
-0.546546
0.392755
0.388589
-0.117717
-0.27089
0.285085
0.083565
-0.568977
0.397944
0.28375
-0.320367
0.455302
-0.0350304
0.0347911
0.00023935
-0.00229197
0.136189
0.130033
-0.0133814
-0.433835
0.545988
-0.454743
0.562248
-0.398126
0.0129261
0.0214535
-0.0966755
0.0128447
-0.312002
0.242203
-0.00693404
0.0437479
0.166476
-0.586255
0.419729
-0.0090722
-0.482536
0.491368
-0.416054
0.37397
0.107531
0.0743165
0.00663777
-0.0809543
0.338635
-0.117077
-0.22157
-0.418823
0.102321
0.31647
-0.168186
-0.436477
0.0735825
0.216213
-0.289805
0.410696
0.217029
-0.00188161
-0.0051329
0.00701451
0.106197
-0.229708
0.0359394
-0.0357777
-0.000161662
0.43864
0.0919177
-0.341224
-0.00109453
0.0242725
-0.023178
-0.017415
-0.00128041
0.0186954
-0.0730198
0.0929038
-0.382025
0.51459
0.0631702
-0.0733294
0.0101592
-0.19277
0.585675
-0.453215
-0.0132494
0.168188
-0.154939
0.184728
-0.172185
-0.135542
0.318823
-0.183291
0.00426105
0.578426
-0.230435
-0.348005
-0.593237
0.373959
0.219256
-0.0125919
0.098682
-0.148389
-0.485059
-0.580698
-0.360451
0.230735
0.121364
0.350369
0.0061171
-0.00799871
-0.204354
0.0448523
0.159498
-0.113017
-0.359977
-0.107721
0.419639
-0.588207
-0.394561
-0.416183
0.567052
-0.0606379
-0.506547
0.237314
-0.407816
0.531619
-0.129084
-0.349287
0.478296
-0.616439
0.244961
0.371317
-0.00439901
0.0461853
-0.539731
-0.521352
0.0174546
0.503888
-0.218533
0.456158
-0.237629
-0.439825
0.329484
0.0256114
-0.026706
-0.547706
0.00350659
0.544187
0.527102
-0.378992
-0.148139
0.0810178
0.0403116
-0.12133
0.030083
0.151075
-0.121157
0.485316
-0.364162
0.189107
0.340151
-0.529355
0.279031
-0.411762
-0.0012493
0.051234
-0.109915
-0.0578206
0.00365328
0.0541673
0.189675
-0.0594325
-0.501299
0.342853
0.584441
-0.41085
-0.173602
-0.00286103
-0.00194916
-0.258934
0.537955
0.0974942
-0.325512
0.228008
-0.573857
-0.442724
-0.307417
-0.163896
-0.0140012
0.177896
-0.144109
0.25641
-0.112303
-0.188415
0.362162
0.416165
0.168264
-0.497656
-0.0184831
0.387264
0.139812
0.0941588
0.0223366
-0.459137
0.352111
0.107024
0.00857274
0.152079
-0.369531
-0.295769
0.387634
-0.146191
0.103302
-0.133332
0.0300296
-0.0106226
0.122485
0.216138
-0.093606
0.0430345
0.0505715
0.00797677
0.0878982
-0.362841
-0.0770458
0.000110712
-0.00871005
0.00859933
0.348819
-0.269267
-0.0750079
0.0611605
0.0138473
-0.0401108
0.00508048
-0.0217721
-0.0296393
0.0514114
0.577402
-0.27414
-0.303268
-0.218184
-0.00733069
0.225511
-0.379998
0.291985
0.092937
-0.0144441
0.00550279
-0.0056151
-0.533636
0.146214
0.387377
0.587181
-0.595724
0.00849424
-0.00432651
0.148771
-0.3797
0.541881
-0.162181
-0.415102
0.563996
-0.148903
-0.0110647
-0.0088094
0.0198741
-0.397497
0.563923
0.33816
-0.451844
0.113616
-0.00205157
0.0250073
-0.000997816
-0.0240095
0.00972917
-0.443569
0.480188
-0.142508
-0.498348
-0.00182218
-0.0028578
-0.0145572
0.0824113
-0.0229731
0.107006
-0.116416
-0.19489
-0.297571
0.492437
-0.0460346
0.05108
-0.106119
-0.115052
-0.0870862
0.0946904
0.0108843
0.165584
0.173835
0.00317723
-0.0783244
0.0717986
-0.401702
-0.171803
0.237925
-0.00640457
0.146093
-0.139689
-0.0127661
-0.00941881
0.51469
-0.0642134
-0.00139073
-0.000239647
-0.00775906
-0.0184831
-0.0565248
0.0258862
-0.0243932
0.315813
0.117923
-0.433808
0.199842
-0.0220914
-0.177753
0.47386
0.15878
-0.0635658
0.27113
0.117442
0.132883
-0.114381
-0.0185025
0.652842
-0.653172
-0.0228016
-0.00872475
0.0315263
-0.540634
0.125524
0.122279
-0.0412613
-0.427306
0.534571
-0.107342
-0.132251
-0.0462676
0.178518
-0.166983
0.193921
0.00591747
-0.0284875
0.0358397
-0.159612
0.123771
-0.161053
0.335056
-0.483786
0.618074
0.0625071
0.140702
0.367455
-0.0433183
-0.32414
-0.368803
0.113324
0.255462
-0.000590887
0.0255982
-0.368718
0.579763
0.592925
-0.333375
-0.438077
0.156039
0.282001
-0.05138
0.0122365
0.000495544
-0.00215101
0.0277625
0.348627
0.22877
0.107598
0.407076
0.0153576
0.391928
-0.407334
-0.000100357
0.0360398
0.123668
0.528879
0.332193
-0.317805
0.00101514
-0.0298487
0.0288336
0.382837
-0.561238
0.178331
0.0878615
0.193275
-0.28115
-0.117856
0.474123
-0.0516105
-0.0858163
0.0296732
0.056143
-0.26646
0.392372
-0.125955
0.217073
-0.513417
0.089233
0.140786
-0.230019
0.00663655
0.0300104
0.120757
0.0231375
0.318659
-0.221174
0.482311
-0.158603
-0.323731
0.276966
0.315956
0.0100345
-0.00411842
-0.00591608
-0.0153561
0.118658
-0.532749
0.0113868
0.0350599
-0.253247
-0.565549
0.393395
0.172065
0.411859
-0.328126
-0.444796
0.583979
0.0213098
-0.47366
0.16139
-0.180604
0.0192132
0.174856
0.294298
0.449781
-0.111686
-0.104651
0.378172
-0.228164
-0.0204433
0.0160991
0.00434425
0.03967
0.00420222
-0.00747853
-0.217313
-0.0582385
-0.0353675
0.0488646
-0.476249
0.20357
0.0184409
-0.0730153
0.464896
-0.403609
-0.16203
-0.155918
0.429958
-0.274099
0.332163
0.117548
0.0230626
-0.00214162
-0.020921
-0.15056
0.468304
0.106437
0.0427702
0.433152
-0.117408
-0.231593
-0.569915
0.011931
0.0016737
-0.0136047
0.206992
0.368846
0.0328823
-0.154802
0.1016
-0.245712
0.034274
-0.107537
0.0732634
-0.238947
0.0345892
0.197124
-0.00518915
-0.191938
-0.00474538
-0.19954
-0.024717
-0.320336
0.0718792
0.136823
-0.280081
0.419771
-0.139693
-0.00945486
-0.00498446
0.0144393
-0.138189
0.174652
-0.0364648
0.564016
0.418747
-0.278763
0.197922
-0.162084
-0.160857
-0.0427818
-0.31546
0.504488
0.0272167
0.00277293
-0.0299895
0.40849
0.153688
-0.16273
0.0404071
-0.00573209
-0.195967
0.611838
-0.415885
-0.11165
0.0819211
-0.254436
-0.146804
-0.372066
-0.0981544
-0.490157
-0.00835671
-0.126007
0.514775
-0.38877
0.382791
-0.263428
0.0764959
-0.0890879
-0.406762
-0.154542
0.0614659
0.0209454
0.00265069
0.00738382
0.225431
-0.0248467
-0.200587
0.0288173
0.00597388
0.409605
-0.0214571
0.58838
0.219096
-0.593108
0.445159
-0.112753
-0.398194
0.133483
-0.110203
-0.0232804
-0.101319
-0.228489
0.329783
0.3372
-0.515588
0.178341
-0.0983031
-0.320552
0.107702
-0.563255
0.0271539
0.0485512
0.058146
0.300083
-0.05644
0.0024039
-0.00929367
-0.0767815
0.0860751
0.432589
-0.122351
0.0168104
0.385641
-0.402455
-0.0987943
-0.172081
0.147829
-0.216035
0.499194
-0.283159
0.356062
-0.458299
0.102228
-0.504675
0.447363
0.0573093
-0.419633
-0.165708
-0.279469
0.536401
0.39501
0.0791104
-0.00958027
0.00390213
0.00567814
0.4061
0.094906
-0.501066
0.0201286
0.0772809
-0.209034
0.253881
-0.203369
0.276942
-0.57886
0.452852
0.423176
-0.5939
0.170675
-0.193652
0.0951924
0.0984594
0.280415
0.0683998
-0.369226
0.555701
-0.401989
0.348208
0.128634
-0.476938
-0.218352
0.485227
-0.287582
-0.150529
-0.177162
0.600901
-0.323938
-0.0983854
-0.140266
0.23865
-0.0101782
0.107517
-0.0973387
0.35766
-0.443081
0.0854203
0.483161
0.103976
-0.0977224
0.445668
-0.348005
0.375134
-0.164731
-0.210407
-0.193992
-0.187999
-0.299242
0.0704564
0.228777
-0.1455
-0.189773
0.0515823
-0.341431
0.240089
0.330535
0.151754
0.0612699
0.0422233
-0.103493
-0.148857
0.486014
-0.0352553
0.0202494
-0.104841
0.0911156
0.0137253
0.0333314
0.298863
0.123723
-0.115196
-0.00852692
0.452776
-0.462059
0.672445
-0.247198
-0.425261
0.13163
0.314964
-0.446632
0.357012
0.0492531
-0.406267
-0.186252
-0.326541
0.512789
0.500464
-0.0944194
-0.496145
0.496034
0.169811
0.385848
0.117418
-0.136654
0.572017
-0.146777
-0.425252
0.556297
-0.386528
0.376289
-0.186108
0.208559
-0.198072
-0.0104896
-0.011094
0.0854105
-0.0786898
0.332628
-0.254142
-0.144652
-0.471957
0.135549
-0.141955
0.122317
-0.0156921
-0.106625
-0.090353
0.32541
-0.0125871
0.140748
-0.145477
0.00472916
0.133725
-0.028679
-0.105046
0.580682
-0.174975
-0.40572
-0.149752
0.0054386
0.472519
-0.142767
0.353674
0.290872
-0.320235
0.451821
0.0263095
-0.0262286
-8.08828e-05
0.0140788
0.108836
-0.160429
-0.31744
-0.0648226
0.417485
-0.361254
-0.135903
0.497045
-0.381079
-0.146828
-0.434587
0.129147
0.305396
-0.374904
0.391709
-0.365058
0.206379
0.158676
-0.543161
0.295692
0.19364
0.0149169
0.329449
-0.0943862
-0.0232626
0.0218536
0.00140907
0.00955024
0.553683
0.226774
-0.0740235
-0.152752
-0.354203
-0.264836
0.0874666
-0.0368906
-0.0505761
0.178522
0.0069214
-0.185445
0.00698708
0.0585924
-0.0655795
0.116418
-0.0222599
0.00532659
0.128156
0.0170952
0.150353
-0.00276844
-0.0286318
0.435645
-0.0779838
0.0123568
0.00578982
-0.581912
0.195515
-0.201038
0.00552228
0.166922
0.405084
-0.0889709
0.220866
0.0266539
-0.247524
0.217489
-0.370018
0.152484
0.0304784
-0.00332411
-0.0271543
-0.0708979
0.265549
-0.194656
0.0310753
0.326757
-0.0157161
0.12766
-0.111944
0.211295
-0.517902
0.389571
0.128157
-0.0822998
0.287695
-0.205405
-0.305501
0.655636
-0.262879
-0.392772
0.388485
-0.0965116
0.221245
-0.132012
0.0135394
-0.400261
-0.0581379
0.242081
-0.183943
-0.222572
0.487529
-0.265068
-0.240645
0.0411001
0.266655
-0.461572
-0.505498
-0.0602705
0.0632485
0.129419
0.267885
0.404547
0.365482
-0.115973
-0.249539
-0.00905112
-0.00181226
0.206931
-0.00225198
0.178318
-0.143156
-0.0351618
0.0936208
-0.00592449
-0.0876964
-0.523393
0.401541
0.121837
0.39589
0.184779
0.0866243
-0.071828
-0.0147963
0.284732
0.103741
0.172864
0.00234636
0.220965
-0.0559916
0.00631543
0.0496762
-0.0270539
0.384063
0.0377137
-0.119803
-0.00522187
0.36515
-0.359933
-0.377771
-0.00529062
-0.400315
0.20631
-0.453602
0.342865
0.110667
0.00211388
0.00857923
-0.0106931
-0.233647
0.0283274
-0.140785
0.592121
-0.451342
0.0847188
0.136143
-0.00241439
0.0935322
-0.0911179
0.126281
-0.305781
0.179486
-0.00777231
-0.0482193
-0.0207956
0.0822614
-0.503257
0.564397
-0.0611555
-0.16746
0.0217774
0.145682
0.0333369
-0.00343271
-0.155191
-0.0122699
-0.0806376
0.0696767
0.0109609
-0.503164
0.0440532
0.458941
0.337278
-0.435058
-0.0196931
-0.00059889
0.020292
0.0094328
0.112884
0.00886931
-0.0120786
0.00320933
0.12008
-0.555059
0.43476
-0.10204
0.436945
-0.109706
0.00472083
-0.0291141
-0.125192
0.0521723
0.272887
0.109871
0.42845
-0.0723974
0.0127152
-0.176612
0.131377
-0.0117983
-0.119579
-0.0735947
-0.00965984
0.0832545
-0.388369
0.0688015
0.386927
-0.455847
-0.00957721
0.0727474
0.20685
-0.00567782
-0.20118
0.207494
0.310878
0.0853919
-0.104747
-0.0171635
-0.144382
0.342814
-0.571627
0.410411
0.161148
-0.00260592
0.014537
-0.0508335
-0.214683
0.56474
-0.115458
0.560491
-0.445161
-0.00695146
0.0341683
-0.527799
0.0245251
0.633918
-0.178852
-0.472703
0.250015
0.216704
0.325024
-0.445477
0.120397
0.146127
-0.039691
0.161687
-0.219824
-0.056841
-0.107724
-0.233563
0.341266
-0.000157547
0.00520813
-0.00505058
0.4431
-0.268249
0.135047
-0.0129917
-0.122055
0.0915219
-0.1017
0.0532346
-0.522208
0.415338
0.106856
0.364437
0.135119
-0.499658
-0.0167631
0.157511
-0.205057
-0.358479
-0.0291606
0.408424
-0.114525
-0.390152
0.329227
-0.0108219
-0.0747757
-0.163205
-0.217183
-0.376076
0.00099657
-0.0262939
-0.179153
0.195352
-0.0162004
-0.0190365
0.365332
-0.215508
-0.149841
0.597976
-0.139248
-0.458735
0.561908
0.202044
-0.203437
-0.0750823
0.0692782
-0.00727959
-0.0212164
0.205945
0.401068
0.00355524
0.150596
0.225999
-0.506175
0.280176
-0.109823
-0.324887
0.434666
-0.163126
0.0316246
-0.0343931
-0.0215048
-0.187111
-0.287772
0.226207
0.108787
0.0222064
-0.206444
-0.158618
-0.0684445
-0.0700087
-0.113093
-0.409129
0.310965
-0.489647
-0.493671
0.0469735
-0.14536
0.151099
-0.153392
0.540636
-0.401876
-0.00359871
-0.0981034
0.101702
-0.491108
0.354607
0.136403
0.173384
-0.593209
-0.0622208
-0.0205217
0.0827427
0.0302278
-0.0335519
-0.166884
-0.225128
0.39199
-0.0044478
0.0406161
-0.333741
0.287753
0.0459839
0.0306997
-0.0297031
0.139615
0.338962
-0.00161981
0.403793
-0.339201
0.455408
-0.116273
-0.0533301
0.17697
-0.616499
0.439514
0.326448
-0.497802
0.171339
-0.326075
-0.0421575
0.046347
0.0412154
0.00693276
-0.0481482
0.146424
0.0803498
0.0563593
-0.0641316
0.0893588
-0.314941
0.225576
0.033517
-0.00172863
-0.0317884
0.0484506
0.202796
-0.000755612
0.429628
-0.30971
-0.144826
-0.349819
0.494581
-0.352173
-0.502459
0.372425
0.129949
-0.0530152
-0.0285495
0.606723
-0.437604
-0.169327
0.258467
0.0189376
-0.277422
-0.368954
0.118472
-0.102951
-0.0109787
0.056984
0.00551621
0.0135029
-0.0190191
0.122778
-0.443175
0.320364
-0.0672483
0.0826469
-0.0153986
-0.2202
0.342672
0.243748
-0.325948
-0.206656
0.508869
-0.311423
-0.21639
0.0121361
0.0039096
0.307922
-0.0762487
0.0256965
-0.0246813
0.018454
-0.190257
0.338986
0.0894553
0.111266
-0.00426021
0.397929
0.224639
0.251159
-0.0285043
-0.386825
0.230864
-0.00806386
0.0957955
-0.0877317
-0.276806
-0.234448
0.330438
-0.198475
-0.131978
0.437708
0.335924
0.279549
-0.0810264
0.0786119
-0.229556
-0.0985868
0.328122
0.226432
-0.124575
-0.101861
-0.145477
0.47191
-0.00366396
-0.152387
0.0198124
-0.0179399
-0.00187246
0.323037
-0.484968
0.161873
-0.129668
-0.0567724
-0.47033
0.0892452
0.350679
-0.0655998
-0.174332
-0.40922
0.583544
-0.00325276
0.0968735
0.0268801
0.168633
-0.184329
-0.196493
-0.0872038
0.283687
0.100038
-0.492742
0.392693
-0.146758
0.489207
-0.34252
0.595266
0.322512
0.174536
0.396444
-0.533959
0.137477
0.164115
0.0239758
-0.0457479
0.24686
-0.215792
-0.269277
0.42435
0.545225
-0.226989
0.563037
-0.0316443
-0.531413
0.131765
0.000451025
-0.00478285
-0.0516572
0.114341
0.193337
0.337413
-0.442308
0.104826
0.561209
-0.384256
0.427076
-0.152033