/*--------------------------------*- C++ -*----------------------------------*\
| =========                 |                                                 |
| \\      /  F ield         | OpenFOAM: The Open Source CFD Toolbox           |
|  \\    /   O peration     | Version:  v2012                                 |
|   \\  /    A nd           | Website:  www.openfoam.com                      |
|    \\/     M anipulation  |                                                 |
\*---------------------------------------------------------------------------*/
FoamFile
{
    version     2.0;
    format      ascii;
    class       volScalarField;
    location    "500";
    object      omega;
}
// * * * * * * * * * * * * * * * * * * * * * * * * * * * * * * * * * * * * * //

dimensions      [0 0 -1 0 0 0 0];


internalField   nonuniform List<scalar> 
13851
(
0.195027
0.0243861
0.0242447
4.6544
0.0220825
0.0268416
0.0237032
0.0218666
5.08652
0.0220543
0.0797601
0.0220852
0.0221197
6.61844
0.0404207
0.187564
9.37197
0.0219242
0.452372
0.195317
0.0481826
0.0266248
22.0642
0.0222638
7.43674
0.0782139
0.387233
3.50349
3.96099
0.0217694
4.67986
0.0237144
0.190363
5.30374
0.0509292
3.80973
0.022274
10.3272
5.62013
0.0220877
6.47278
4.00302
17.9413
0.71744
4.08371
0.021899
0.0215649
0.180538
0.0235923
0.0221135
10.6443
0.0221737
0.187715
0.0301496
6.23244
0.0220869
0.19495
6.58559
0.395087
7.15542
0.0220922
0.354692
0.0221007
0.0237473
0.240333
0.256608
9.3376
0.0684636
0.0221281
4.53744
5.08191
0.0612235
0.0220338
8.10654
0.0326389
0.0238361
8.02058
0.0216652
7.49157
0.0219665
0.0221425
0.794041
0.0496067
6.35867
6.84804
4.77602
0.0269186
7.12959
0.0220463
4.65433
0.0222061
0.0238161
29.5467
4.86647
5.90871
0.419795
0.0219314
0.193018
9.56353
0.229386
0.199697
0.0431211
0.0477138
0.0220757
0.0218821
0.0587198
0.0218842
4.95282
0.0238163
0.0219009
0.0318384
0.0218962
0.255202
0.0812727
0.183233
0.0292736
0.0217839
0.0218177
4.83132
4.51567
0.262872
0.0218096
0.0221147
6.31586
0.388447
0.127726
0.0219302
0.0643182
6.12596
0.0553184
0.0265681
0.0343023
10.189
5.29766
0.0822884
5.80555
0.0651018
4.85043
0.0364698
0.0539055
0.631106
0.0226299
0.0220452
0.112275
6.77126
0.0235602
0.021658
4.79413
4.30448
0.0667964
0.198571
0.243334
0.0882382
0.394665
0.0222732
0.0220613
0.0221052
5.59807
0.0489892
0.0233418
0.0222429
3.88534
0.0578173
0.180973
6.32978
4.39792
4.37978
8.96464
0.0314103
5.99264
0.0221067
0.0217877
0.0764127
0.0221391
5.93949
0.403735
0.216173
0.0217726
0.0323792
0.21132
0.370262
0.672082
0.0305475
0.0543249
21.0166
4.26373
0.190776
0.0295644
0.0222068
0.0218281
6.85445
0.0488562
8.50223
0.0268896
0.0234026
0.19039
0.183413
0.0220854
0.0221839
0.0740339
0.611837
6.20867
6.45686
0.0404498
2.88338
6.16864
0.0236976
0.0515743
5.19507
0.0260912
0.186214
0.0220996
0.752289
0.0222343
0.0524981
0.0246864
0.0220943
0.321438
0.0221679
3.77945
0.021771
0.196632
7.13965
5.85196
0.0292341
0.0522812
0.0222636
0.0969394
0.0220263
0.0513971
5.83384
0.0291896
0.0260828
0.0221193
6.46154
0.021763
18.7701
6.4778
0.19845
0.0222512
2.07352
6.57631
3.98211
0.185512
0.0363119
0.151606
0.287237
0.0323783
0.392631
0.0340773
7.00397
0.209525
0.021863
0.0263737
0.19491
3.84191
4.871
0.021825
0.134395
0.0220434
0.264152
0.386127
0.026832
0.0583615
0.212453
0.0219953
0.0447916
0.151338
1.23647
0.0220908
0.0220917
0.0293483
4.31094
6.29393
0.055168
0.0218245
0.369893
0.390321
0.163866
0.0576489
4.65885
9.63659
0.0275837
0.0357773
11.1987
0.0218705
0.0221042
0.170313
0.0673092
0.0217576
0.0222316
0.0220185
0.0220019
0.0357447
0.0220981
5.08561
0.0513097
0.0219853
3.78452
6.19784
0.0221958
0.198716
10.7888
0.0227475
0.0222185
0.0543017
6.76153
5.33753
0.0858061
0.0220729
5.91293
0.0220995
0.0955742
8.64604
0.937521
0.0232261
11.3578
7.001
4.92112
0.237899
0.0452366
5.83085
6.3858
3.24698
0.0222571
6.6115
20.182
0.822142
0.757772
0.023713
0.0848889
0.0300274
6.40896
0.051111
0.02188
0.0215135
0.0286508
5.03034
3.19384
0.0218626
5.85972
0.0302512
0.034675
0.0234416
7.6781
0.363803
0.191054
0.0243877
0.0254358
3.53452
0.0222172
0.40742
0.0274154
0.054196
0.0308339
0.0220427
0.0219827
0.219324
0.25795
0.209417
10.1376
3.58879
0.0236421
6.46293
0.313616
0.0216989
0.929566
0.127615
8.13215
0.0279456
0.0828886
0.358341
9.01663
0.205426
5.68586
0.0226845
0.419384
13.8122
0.0325402
5.38487
0.036432
6.47639
0.035118
0.0401398
0.207779
0.371053
0.0220627
0.0270875
0.0730497
0.0327158
0.0219192
0.0555635
3.76364
0.0220297
0.0521499
5.36731
0.0243429
6.5782
0.0469803
5.53397
0.0267626
0.0724331
2.27446
0.387451
0.057732
5.6185
7.86795
1.61433
0.021999
0.214412
0.0367774
0.081456
0.0218264
19.5919
5.03034
8.29406
0.0253637
0.213071
0.366274
6.02107
0.0215873
8.11536
0.454047
22.0151
0.0352782
5.83385
0.0220507
0.0221267
7.10615
0.37336
0.0220522
0.0244566
0.0535358
0.021824
4.82877
0.0854164
0.124178
0.0256621
0.0227004
0.0221915
9.17149
0.0219843
0.0221701
0.604466
3.79608
0.0260485
0.328778
0.0221067
0.0220966
0.0247538
0.210802
0.0458194
0.0219283
0.0229293
0.249217
0.0233603
5.88186
0.0220802
0.0270484
4.04377
0.0362387
0.0215714
0.0221234
0.0256445
0.022205
1.49674
1.04698
0.0366801
7.45835
0.0247972
0.0220657
5.75808
0.358079
0.0356224
0.0220447
6.36909
0.0348599
8.62526
0.0220784
0.0347472
0.214465
0.0355687
6.29826
0.370615
8.43721
0.0238436
0.247697
0.0219908
3.89361
0.0471147
0.183761
0.0365063
0.0241379
0.0362456
0.0769578
0.0220943
6.68624
5.94339
6.16556
5.44718
0.830101
6.92926
0.397987
0.02825
0.0222069
11.2558
0.0220562
0.0219195
0.0303783
6.01517
0.0240888
0.0226285
0.0981279
0.0577563
0.0220545
6.47255
0.0219365
5.88941
1.36677
0.0219625
0.0233446
0.501547
1.17264
0.021765
9.20585
15.4473
0.0216657
5.22793
0.451157
0.197163
0.0238132
0.618381
7.67736
0.0216806
0.62514
0.0221192
0.0219369
0.624542
6.51089
0.0450928
0.0447083
0.0220561
0.064435
5.98356
5.69201
0.0217707
8.14319
0.0219259
0.0221345
0.0586011
0.0267638
0.0215811
0.0238554
5.27342
0.344924
5.2909
0.0237448
0.02204
4.04999
0.0221794
0.219455
0.0273603
0.0329881
0.0362854
3.49227
8.12214
0.0266156
7.79056
0.0230498
0.0846018
4.02922
5.05484
0.0221126
0.0219962
0.0486017
5.33374
0.305807
0.0630485
14.0235
0.0268326
0.0338187
7.48388
6.39839
0.178881
5.90042
0.248075
3.755
0.0224748
0.396108
5.59378
0.0220848
25.1167
6.25298
0.0314069
0.0542535
0.0220699
6.58618
0.0885147
15.2241
0.021985
0.0221657
0.026589
0.0566623
0.022089
5.95948
0.02216
0.242143
0.0239069
0.0841281
0.0220711
0.0220546
0.0498664
8.63436
0.0577134
5.8235
0.0347167
0.0218333
0.0217519
0.0769363
0.0229286
0.141365
0.0246045
0.0349113
0.391457
0.0221811
5.82406
0.0222533
0.120879
6.89209
4.12885
0.0289668
16.2953
0.0944173
0.33697
6.24123
0.0218289
6.28602
0.0302647
0.0340904
5.2203
6.92545
0.0217087
0.136201
0.02206
3.69199
9.6196
0.0222175
0.074898
5.32175
0.022263
0.0222517
0.0789213
7.38625
0.595093
0.0222255
0.209436
0.0231451
0.022054
0.394452
0.212968
0.216581
0.0215713
0.151845
0.047699
0.0657419
0.0226646
0.0232326
0.0826634
0.0264503
0.166677
0.0611125
0.0612579
0.146473
3.36934
0.476097
1.02182
9.37253
0.188982
5.58254
0.0413932
0.613654
0.201855
0.0218939
0.032936
0.434688
0.0276895
0.0219688
0.0219647
0.121792
5.9117
0.027301
6.46116
0.0218372
0.60004
0.163534
11.6649
0.134854
0.0269488
0.0242273
9.88854
0.216453
0.0397652
0.375067
0.022543
8.85542
0.122364
0.244907
0.0358483
1.21842
0.0220476
0.0222449
0.0234038
0.0220534
4.09572
0.0220017
0.37995
4.43455
0.138521
5.74651
8.695
0.253675
0.379362
0.0286725
0.0221799
0.0220775
0.0216753
0.0217526
0.0221412
0.0857663
0.246763
0.0513847
2.49124
0.0231599
5.19326
0.0222934
4.50034
0.046011
0.0222834
0.0221342
4.17799
0.0270402
0.602572
6.28738
0.0509013
0.0874753
0.0216498
5.55654
0.0244636
0.0241464
0.392562
0.0221834
0.0226328
0.0218274
0.0476848
6.19973
0.0311814
0.0362624
0.512205
5.68004
0.0292012
0.0271293
3.90645
0.0216736
3.87329
0.022202
0.0233613
7.36126
0.10311
0.181824
0.118028
0.0582962
0.022227
0.0222935
0.0926205
0.0225281
0.0222345
0.027633
0.456342
0.0219878
0.302411
4.88949
0.581376
0.116328
4.69663
0.0373708
0.0221756
0.198528
0.0218514
0.0270974
0.886873
3.52943
6.27243
3.8517
0.0222896
0.0221869
0.073763
0.0230611
0.0218401
22.5281
0.266834
5.17593
0.122513
0.107068
0.022055
0.0217757
9.2202
0.125738
0.0236876
0.022253
0.180269
0.287105
6.4699
0.0222591
0.0221518
7.55496
0.0226414
0.0364065
0.0218286
6.0956
0.021945
6.5994
0.0220826
0.175376
0.0445901
0.0735584
0.0361632
0.0220343
0.0245089
0.0220242
0.37021
0.0226504
3.78601
0.0226166
0.653028
5.32785
0.0336911
0.0220055
4.73857
0.860117
0.0272581
0.102597
0.0220774
6.71724
0.0219124
0.424995
0.022074
0.0220211
0.578846
0.0365202
0.0221141
0.0307027
6.46987
5.25362
5.50902
0.0218296
5.5383
0.022084
0.0219946
0.0222726
0.021484
0.0222328
5.9029
1.26892
0.0221823
0.0221561
0.0456547
0.0218963
4.49208
0.206234
5.77076
5.81493
0.0244699
0.166224
0.0220785
0.0483371
0.128865
0.0218113
0.0222103
3.00018
9.78497
0.0859431
18.8722
0.0756073
0.0221048
0.0481143
0.104141
10.1564
0.0340043
0.489131
0.12883
0.0222234
12.2368
10.5926
4.64428
6.95163
0.586397
0.0237999
0.146663
0.022169
0.500009
0.0271003
0.0218822
5.68599
0.0230447
0.0220064
0.0221117
0.0228895
6.02714
0.415129
0.0218792
0.0491284
6.82328
0.0232326
17.5424
0.0232327
0.0996059
6.52227
0.0221012
0.327874
0.0309349
0.0356246
5.87293
0.0230372
0.697835
0.0708187
6.36191
0.0221064
4.57297
0.0322831
6.03755
11.1828
6.22937
0.0505155
0.0220491
0.0222958
0.022263
0.0378733
0.022126
6.26132
0.0296525
0.0280668
0.0289591
0.023736
0.0218277
0.0257076
0.0283742
0.023354
0.0277518
6.29206
0.363441
0.0309399
0.0550027
5.70105
0.0226754
5.00763
0.0216871
0.0339586
0.022659
0.0219372
0.0478863
0.0220614
0.0218737
0.045539
0.0220659
0.406436
0.0227509
26.3297
0.905713
0.305319
0.458606
0.0220369
5.71917
0.229037
0.0222257
0.0282254
0.0225404
4.93607
0.0232106
0.0451168
0.784862
6.01301
0.0958177
0.0221222
3.6872
0.651343
0.617176
0.0307831
0.0218233
0.0217541
0.086269
0.0220492
8.86978
0.223906
0.0221977
0.313826
0.44045
0.0218167
6.3033
7.22917
0.260444
0.0227266
3.66953
0.0853245
0.0220275
6.94344
0.026952
0.0218109
0.0219515
0.0312278
0.0386457
4.94207
4.68455
0.0423896
4.42904
0.0338647
0.0220349
0.0864086
0.0219709
7.12914
0.0217888
0.0220478
0.0241012
0.0224863
4.84856
6.26663
0.301511
8.33107
5.84574
0.029214
0.0220336
0.0227584
0.824119
0.0217704
0.0219053
0.0484075
7.32803
0.33828
0.0216262
0.0416195
0.0365074
0.201779
17.2479
0.0216614
0.0215696
0.0231864
8.64421
0.0275428
6.07937
0.0232174
0.0221631
0.0218124
0.0219439
0.024656
0.25451
3.7329
4.39968
0.0290372
0.0220665
6.9276
0.0222042
6.02409
6.50128
0.0309292
7.15194
4.06845
4.6009
0.0581324
0.0336424
5.64261
0.0323666
0.034249
0.0756565
0.353053
0.0224917
5.17125
0.022037
0.737867
8.4976
0.0216915
0.0239188
0.0488953
0.657047
0.0360653
0.0221428
0.0276656
0.023226
0.0253022
1.23725
0.0221636
1.04569
6.18532
0.022039
0.0321621
0.0384487
0.0220899
3.48574
17.9949
5.76809
3.43868
0.0220498
0.0248454
0.0272599
0.0222772
0.300967
0.0362826
0.0222566
0.072064
0.0258629
0.766268
0.0446976
7.97943
0.0231143
0.0232527
0.0512851
0.127489
0.0956632
0.0219993
18.4358
6.17574
25.1275
6.44981
0.779425
4.57545
6.01118
0.0220037
0.0220413
0.0219484
0.300515
0.0454404
0.0947858
7.43969
0.0220584
0.0216572
0.0220549
0.276731
0.0216472
0.0266757
0.0237456
0.616834
0.0229351
0.0218593
0.0220946
0.0219817
0.0221628
0.0346887
0.296238
0.034393
4.5327
0.0220488
0.0219443
6.02996
5.03903
6.64398
0.587497
0.0492332
0.595655
0.0218189
0.0650577
0.0232556
0.0220877
0.0237275
6.07294
0.0229014
0.130197
11.3516
0.0221402
0.0219267
0.0264477
0.258437
0.0222717
0.609377
0.0219326
0.279109
0.0221275
0.0221833
0.0273073
0.100969
0.022128
0.399876
4.96333
0.253889
4.97746
0.0220518
8.72073
0.460751
0.0220622
8.73951
0.022268
0.0430269
0.0222111
0.0219849
0.0219674
0.0220518
0.0224222
0.0274305
0.0834495
0.0221838
0.0221005
0.0625652
0.0216844
6.44663
0.0221275
0.03436
0.0330642
6.46962
2.00322
0.0221492
0.261516
0.0218232
0.0289306
0.0769983
0.574366
0.0534732
0.0222721
0.144876
0.0781718
0.107543
0.613304
0.03622
0.213739
0.0635746
0.0827277
0.0228996
0.0218249
0.577264
5.12615
0.0248447
0.022024
15.9225
0.0218408
0.0481473
0.0219736
0.0937005
9.82026
0.0215207
6.36138
0.0266106
0.0221706
0.211346
0.0218822
0.0411853
3.37351
0.0456885
0.579813
0.0219626
0.0222645
0.0435423
0.0222255
0.0222465
0.0273866
0.0309233
0.0847987
0.0991868
0.0220967
0.0416072
0.0218159
0.0220722
0.0222148
0.022064
3.79468
0.0218232
0.0232687
0.326242
0.0218355
0.0220126
4.47839
0.0222497
24.894
0.0230577
3.37123
0.344164
0.0527792
9.12635
0.0798554
2.06267
0.0223281
0.295114
0.0278058
0.0218118
0.0219035
0.0232501
0.0325414
0.0219747
0.0599139
0.0219135
0.0232401
16.7887
10.6057
4.56173
0.0236917
0.0478038
6.78317
4.9057
0.0221737
0.0263103
2.07521
0.0221128
0.0451937
9.52917
4.28986
0.0267387
0.0460655
0.0227803
0.477395
0.0222849
0.0364253
5.55225
0.0221694
0.0218818
6.61317
0.0501962
0.313044
4.97292
0.123334
0.0224164
0.0219175
0.0222182
6.46515
4.77243
4.02477
0.0664862
0.0220539
6.43077
0.0221129
0.241195
0.0267032
0.0229768
0.049049
0.0220692
6.27446
5.92795
0.021628
0.085954
0.0470131
9.10671
0.0518422
0.0617965
0.307675
0.033368
0.356672
0.0667555
0.0221154
0.0355866
0.0844022
0.625159
0.0220465
0.464171
0.0553893
0.0653892
0.0222724
5.65468
0.0261411
0.0236252
0.0218512
0.0423032
0.0410388
0.0580961
0.0221271
0.022676
0.0638103
30.8432
0.0720917
0.0221586
0.0226329
0.035178
0.348642
0.0221726
0.105624
11.3656
0.0511838
3.65973
0.0377552
10.3626
0.688252
0.0220037
8.56935
0.0222385
0.0252144
0.0326766
0.0367202
0.141592
0.0484629
0.0453293
0.0479742
0.0332428
0.0242011
0.0216403
0.0867858
0.0253696
0.0289267
1.16977
0.0266106
0.0308481
0.0219613
4.75495
0.0978336
0.0220963
0.0246194
0.0232782
6.79467
0.222266
0.032594
4.02717
0.499702
2.04878
0.130919
0.333314
0.0219031
0.315525
0.0218882
0.0268922
11.1063
3.44262
0.924362
4.04507
0.0221242
7.78969
0.0218998
0.100538
0.0253306
0.581749
5.90744
0.0248626
0.0220246
0.663757
0.0429602
0.0220354
5.73526
0.0220748
0.0237119
0.0253552
0.0222058
0.0327527
0.0233595
0.0220544
0.0362836
0.923583
0.0443199
0.0721697
0.0220319
8.72257
3.46929
0.0220073
0.345109
0.0252661
0.0292847
2.46096
0.0220041
0.0226865
0.0280314
6.15959
0.0220445
0.0221827
0.0455769
0.645037
0.0219906
0.0325182
0.0352376
0.807085
0.0536798
0.0450727
0.305647
0.0220794
0.123264
0.0217107
7.86023
0.0317627
0.0220584
0.0260001
0.128725
0.0221508
0.0220874
0.207269
3.55519
0.0221895
6.87415
0.0221877
0.0216982
0.0828455
0.0220455
0.0218203
6.31097
0.0222734
0.0453804
0.206962
4.95788
0.678244
0.0217536
0.0240392
0.0281455
0.0220782
0.0220488
0.0221027
0.554411
0.0221953
0.347977
0.159086
0.021871
0.0216948
0.0317573
0.158917
0.338962
0.058044
0.0748946
0.0238923
4.99519
0.0883929
0.0286511
0.0428487
0.0718236
0.126526
15.8715
0.0365352
3.74834
0.683441
4.74365
0.02453
0.0219629
0.0422368
0.0343082
0.0217771
0.0221906
0.146212
0.0222431
0.0222847
0.0220627
0.0215726
0.0232072
0.0219891
8.05246
0.0220217
8.44128
0.0220856
0.0953975
0.0225252
0.164691
0.0866021
0.022053
1.25103
0.0239729
0.0222252
0.0425441
0.0218052
0.0311167
0.0219235
3.70261
0.0242887
0.0483132
0.10555
1.06661
0.0289167
0.355407
1.25217
0.0557481
0.0220337
0.0228762
0.119776
0.082479
10.4226
0.0217605
4.5412
0.0220865
0.0916364
6.17657
0.0389601
0.569231
0.0255013
0.0344476
0.0249353
5.86421
0.0330654
0.022142
0.0526718
0.21019
0.0234201
0.0220532
0.0221435
5.63903
0.0222518
0.028094
5.2623
0.0262287
0.0219994
0.0627269
0.0251968
0.729822
0.0216564
0.0220324
0.0218745
0.0260676
0.0223164
0.0220558
0.0757401
5.54735
0.0219841
0.0221059
3.18597
0.0220733
5.90809
0.0231177
5.4774
0.0218588
0.0243866
0.0218213
3.94594
4.7088
0.0308851
0.0745465
0.0270078
0.0219546
0.0221194
3.69127
0.0221369
0.0990089
0.0217765
0.0408958
0.0221901
4.46615
0.021848
0.0468805
0.0218869
0.592444
1.52007
0.0217877
0.0469982
6.12923
0.0819942
0.596866
0.571786
0.307774
0.0233947
0.0368002
0.132112
1.79762
0.0220123
0.0365021
0.0282138
0.0219791
4.05552
4.97466
0.0850344
0.228136
0.678211
0.0350318
3.80715
0.0217691
0.021784
0.132375
6.12079
0.341524
0.230011
0.569472
0.0218197
5.75879
4.42248
6.86914
0.0222026
7.87958
4.65566
1.56732
4.03117
5.74813
0.104503
0.0322668
0.254158
0.0257188
0.0219801
8.06296
0.124571
0.0216233
6.32016
0.0221887
0.0298071
0.0473095
0.0268
6.50449
0.0352168
5.69205
0.0451046
0.0261435
0.588824
6.38573
0.205037
0.0223711
0.0258145
0.0946838
0.0622584
0.0218404
0.0562952
0.064955
0.20566
0.0219846
0.29214
0.0244282
0.0534135
0.638159
0.363326
0.0230787
0.156086
6.16751
0.0221705
0.0227896
6.08237
0.536157
0.0245541
0.0248445
0.0220977
0.0831761
0.0249144
3.93818
0.140365
0.0225105
0.0222232
0.0671825
0.0304442
0.475094
9.00179
0.0218852
0.0220469
0.0286051
0.0221945
0.0243087
0.0229081
0.022726
0.0258168
0.021951
0.0249439
0.0221861
0.049537
1.87228
0.0222639
4.79807
13.4075
0.0217095
0.260956
0.158632
0.100668
0.0227215
0.123137
0.0275123
0.08249
0.0307432
0.0232806
0.0222093
10.1181
0.0263768
0.587255
0.0227091
0.0220495
0.0220351
0.077836
0.0219785
0.0583317
0.0686828
1.78454
0.0219308
0.436153
9.71744
6.24738
0.0218121
0.190443
1.04144
9.43799
7.45616
0.022548
0.0222641
0.203046
0.538455
0.549559
0.0451456
0.347035
0.0222314
0.021824
0.0420639
0.0221959
0.0221331
0.227796
0.022265
0.0930095
0.0218472
6.49008
4.16043
0.813068
0.644604
6.17973
0.0221302
0.0221475
6.29146
0.021773
0.0217981
0.0216976
0.142311
5.62184
9.44396
0.027676
0.0219828
0.0231747
0.0387318
6.19941
0.0220392
0.57759
6.4754
0.0221893
0.0221781
4.90564
0.0924725
0.0229039
0.0220554
5.52231
6.2284
0.02195
0.27032
0.0222532
6.28745
3.56345
0.0229769
5.77356
7.07912
4.63325
0.0218338
0.0220114
0.0222444
0.0222862
4.99753
0.0219234
0.282472
0.337872
12.1388
0.0226325
0.0669492
0.485925
0.0573903
6.26932
5.18243
0.0216268
0.0255893
0.0258235
0.179345
3.31049
0.0215608
5.68453
0.0330375
0.0455201
0.0227351
0.0219529
0.470834
0.044506
4.50877
0.0221957
0.0637884
0.0225447
0.169011
0.0241338
5.60894
0.557112
0.33185
0.113947
0.0219788
0.0239553
0.113427
0.23849
4.23939
6.2536
0.0221497
0.589476
0.0954618
5.94235
0.0253616
0.049212
0.0446248
0.0220588
4.88529
0.0220789
0.034422
3.46123
6.44877
4.9785
5.92774
0.0288777
0.0570385
0.0217308
6.51998
0.0277506
6.56876
0.0217168
0.918633
0.0215268
0.0220157
0.0339309
0.031585
0.0330266
0.0219846
4.44203
0.0445929
0.0219264
0.0406981
4.21183
0.695526
0.0220482
5.07718
0.0245131
0.0339887
0.0311888
0.0216906
0.077728
0.0220093
10.6427
0.0880109
0.0257318
0.0220443
0.592237
0.0448866
0.021715
1.86898
5.37614
0.352916
0.0216144
0.60775
0.0221436
0.182419
0.0270794
0.136224
6.62079
4.72734
0.0346602
5.81506
0.0541141
0.0288449
0.0218338
2.50134
0.127889
0.142684
0.0620078
0.0222434
0.567033
0.109641
0.732984
0.317407
6.20662
4.35459
10.1095
7.14998
0.0293602
0.0318459
0.0221028
0.0220481
0.0215798
0.238718
0.0297162
0.0335008
5.41476
0.0219519
0.0218669
0.0414049
0.210386
0.0282276
0.0218301
6.21051
0.0243721
0.0478668
0.0222093
6.90331
0.0289276
5.80678
0.0585733
0.0367109
0.0582291
0.0220966
7.24002
0.475043
0.0869579
0.0220476
0.0219154
7.45408
4.83043
3.72777
0.0218261
0.0883881
0.503707
0.0220099
0.0220148
0.0220814
5.69214
0.105152
0.0361956
0.0258841
0.0257214
0.797219
0.104064
0.36341
0.0253376
0.0344797
0.0215652
0.146316
0.0628656
0.0220302
3.59811
5.20223
6.53492
3.45727
4.63199
6.04126
6.29256
0.0231244
0.0217882
5.72018
6.96337
6.65267
0.0220728
0.0448433
0.0220544
0.0219796
0.554164
6.44307
0.0783374
0.0220173
0.391571
0.126845
0.057515
5.82935
8.0227
0.353992
0.0219204
5.82983
0.537538
0.54047
0.0314435
0.0483075
0.0221769
0.0218866
0.0435239
0.0525533
0.0245877
0.0420987
0.0282279
0.0251597
0.291105
5.0004
0.0319493
0.0439214
6.23794
0.267368
0.0221138
0.475541
1.01326
4.89378
0.0460902
0.0221088
0.0307349
0.0275462
0.0305595
0.0216883
0.0331926
0.0312637
0.0488356
0.297687
0.0222305
0.0230499
4.52539
3.82231
6.28222
0.488848
0.141422
0.0215122
0.0220531
0.0320531
0.021725
6.04563
0.0220494
0.0222731
0.021722
3.60299
19.4248
0.0224157
0.0744948
0.0291211
0.03622
0.031666
0.0352977
0.0441031
0.0409417
4.73451
0.0262708
6.48256
0.0427234
6.17326
0.0307721
0.0219396
0.0218285
0.126828
0.209361
0.0218338
0.0405221
0.0310744
0.06942
0.630832
5.6179
0.660222
0.0222729
5.43979
0.0301649
0.0384941
0.0220449
0.0851567
0.0237775
3.62024
2.12604
0.0422845
0.0220873
3.78038
0.0272955
5.45485
6.90472
0.29568
0.0244041
0.186274
0.69646
4.25278
5.81452
0.0719829
0.0219379
0.0431603
0.0218151
6.83308
0.0247621
0.0337962
0.391277
5.89743
0.0219058
0.021969
5.54046
0.0468337
5.84454
0.0328751
0.0220552
0.0486174
0.297442
0.0440727
0.583721
0.0379823
2.48239
0.0254147
0.0222442
0.0219534
0.406229
0.0226645
0.145528
0.0220578
0.0220005
0.338915
0.025746
0.0220664
0.022048
0.0375715
1.09962
0.0441405
0.0439565
0.0264535
0.0740942
0.0220458
0.188607
0.0321964
0.0492325
0.0709327
0.0263141
0.0945871
0.045673
0.0217987
0.0825602
5.16902
3.30064
0.022059
4.64595
5.29007
0.0219776
0.0226675
0.896365
5.99326
0.0278727
4.84308
0.857816
0.0219425
0.106534
0.0215789
0.0262001
0.0754806
10.9063
0.558879
0.311458
0.462015
3.48869
6.38387
0.0229759
5.47728
0.0220492
0.540171
6.35368
0.0221065
0.0220836
3.51075
0.0221222
0.0220934
0.396547
2.84928
0.32761
0.0256455
6.23526
0.0221037
3.61664
5.13261
0.0221901
0.430508
9.96943
6.3349
3.94705
4.93085
3.75563
0.0218916
0.0232047
0.0764132
0.0793388
0.0220884
0.268496
0.0220546
4.72788
0.365233
0.0501647
0.326384
4.54444
0.355713
0.295054
0.0610547
9.21859
0.833076
0.0249283
0.0216238
0.560085
0.0356442
0.0217704
5.58738
0.0219919
0.570819
0.0221482
6.23041
0.0249416
0.0219971
20.7788
0.0275103
0.0359004
3.76736
6.2547
3.36008
0.0269136
0.043942
0.0233198
0.0391554
0.180553
0.0412848
0.0222094
1.72032
0.0762409
0.0341364
4.34441
0.0456922
0.0380307
0.252811
0.0960188
0.0466836
0.021992
0.287676
0.0218274
0.177041
0.385015
6.24319
0.0218825
0.0435603
4.64231
0.0230714
0.078693
0.0297978
0.0474738
5.81224
0.0750539
0.0234457
15.9
0.0218929
3.73694
0.0221281
0.0229241
0.172506
3.74454
0.0338154
0.396523
0.655777
0.0308621
0.0221722
0.170679
0.0517594
5.52494
0.0265368
14.5611
0.205038
0.0303145
0.0307345
0.115296
0.0406712
0.0758296
0.0743501
0.0390842
0.0244834
0.0219834
5.12379
0.022025
0.0299352
0.021591
0.143313
0.0303887
0.0725273
5.83472
0.0230242
0.342099
0.0215054
0.0221584
0.022189
0.0222065
0.0255918
0.0219556
0.107641
9.75536
0.0706702
0.05163
0.0245691
0.0220323
0.353589
0.022035
0.637682
1.21865
5.70575
0.19227
0.0369255
0.0264335
0.0221785
0.0299856
0.0993486
0.0472103
6.18412
0.0686777
4.90072
0.193538
0.02221
0.0218507
3.36807
0.0219622
0.0306767
0.0659623
0.694974
0.0230229
5.81471
0.0221737
0.0262178
0.022055
0.0226295
0.173362
0.13567
0.0222068
0.031542
0.0349053
0.0520005
0.0650098
0.563023
0.392352
0.37383
0.173042
0.0248726
0.022989
0.0627562
3.63347
6.22476
3.92584
0.031959
5.59658
0.130684
0.0227044
0.0220094
0.0670012
0.0221464
0.0309386
6.20198
0.02198
0.0217976
1.55698
0.539231
0.0486042
3.67181
0.0221217
6.21837
0.0466781
6.2315
0.0297422
0.0220414
3.62833
0.0597635
0.0220438
0.0786361
0.0222525
0.187528
0.0303253
0.055476
5.77247
0.034008
3.19208
0.0219463
4.73434
0.0221331
0.0266768
0.0224821
0.0527432
0.0221441
0.057717
3.80296
1.11729
0.0582939
0.0331363
0.0793573
0.0219049
0.0220009
0.0228959
0.497741
0.0251443
6.37532
5.97981
0.169524
0.0222152
0.181034
0.291455
0.214841
0.0247435
6.5321
0.0219876
0.0215179
0.0219739
8.9212
0.0220547
0.022028
3.8681
0.0219915
0.234744
0.10409
0.0217501
4.56086
0.0265461
6.34225
0.0219237
0.558549
0.0228371
0.0727231
7.91373
0.082315
0.0219603
0.0262783
0.684521
0.0309303
0.189679
0.0325907
0.0269445
0.165818
0.0295136
0.022072
23.4769
0.0308196
0.0269133
0.186211
0.0219853
0.0218704
0.0221889
0.028993
0.0221347
0.0260633
3.96458
12.2519
0.105501
6.68122
0.066515
0.0320624
5.89568
4.82959
0.0224412
11.202
8.10655
4.52992
8.00254
0.0330482
0.690216
3.83303
15.3269
8.3928
6.16877
0.0436714
0.0858111
0.0296628
0.0251974
0.0221707
1.86093
0.0222849
4.56015
0.130298
0.370507
0.0215874
0.0913168
0.0469189
0.0235838
0.0222931
0.0221184
0.128058
0.0232883
0.0221458
0.0397396
5.48349
0.0242238
0.190965
0.0218385
0.130078
0.0854582
0.0221643
0.0270566
0.0219581
6.10667
3.85672
0.235239
12.8809
0.0341274
0.118317
0.0221339
0.0420811
0.0220633
0.0222971
0.022233
1.13629
0.0217798
0.0450966
0.894436
0.028409
0.0319993
0.0220162
5.51888
0.284825
11.5328
5.7477
0.237644
0.491691
4.79817
0.680269
0.376765
9.37332
0.13072
0.0342354
8.19443
6.40224
0.0220583
4.66532
0.176944
4.72201
0.021606
0.0759561
5.6357
0.0222729
4.61118
0.0253688
9.16152
0.022093
0.0221044
0.0816571
0.235518
0.0258453
0.0791579
0.0217841
0.022103
3.81233
5.15984
5.409
0.0565664
0.0220542
0.0224379
0.022138
0.0370686
1.16593
3.59705
0.609997
7.63328
0.0343263
0.021958
0.0219869
6.64326
5.53124
0.464369
0.0264904
0.0249367
0.0850935
4.50941
5.47698
0.0215108
0.0219742
7.23055
0.0230584
0.273975
0.0280308
0.0220711
0.0332853
0.0472524
6.23463
6.48782
0.0222021
0.021796
0.0250445
0.352233
5.92954
0.0222647
0.163561
6.20847
0.0215189
0.54254
3.48429
9.71464
0.0221145
4.79717
6.85653
0.0402912
0.333638
0.023955
0.311085
0.653837
0.0255884
0.0219587
5.52065
6.02986
0.0218571
0.203262
0.197638
0.0309043
0.399425
6.4129
4.71025
6.2788
0.0273137
0.0235592
0.0229456
6.17401
7.01604
6.7245
5.47209
6.37367
0.0217144
0.0477436
0.0220692
0.0221167
0.0249051
0.0219808
0.0220702
0.0220947
2.49586
12.9719
9.34251
0.0590265
0.286977
0.0356099
0.0218661
0.0219899
6.16954
0.0221418
6.15948
3.9643
0.0221797
0.021887
4.39559
0.0225357
0.629409
0.0263071
0.0217551
0.0217093
6.3037
0.021675
5.50576
6.21057
0.0215605
0.0542594
0.0219118
0.0228401
0.021832
0.128861
0.599225
0.0219835
6.1762
0.496588
0.0240451
0.0218762
0.0226407
0.0236583
0.022226
1.10086
7.42825
5.47227
0.0400306
5.34237
0.0222723
0.025853
0.0220541
0.199425
0.0233633
0.882508
0.0218698
3.9586
0.419232
7.2756
0.206966
0.0218656
0.0484531
0.021919
6.26091
0.0219369
0.0291159
0.0270718
0.0259333
0.0221363
0.0222508
0.0327772
5.96211
0.02219
0.0228488
0.0240407
0.0341718
0.232877
0.0221884
4.63748
3.7538
0.0240018
4.35492
4.56154
0.579406
6.11133
0.0215311
0.023058
0.600339
3.80016
0.180356
3.57593
2.57742
0.033476
0.0579619
0.0316361
4.30657
0.0220505
0.0219701
4.91949
0.183502
4.48688
0.0247261
0.0217003
0.0220591
4.78628
0.0899705
0.0236811
0.263795
0.0218208
0.0711576
0.0322157
0.0324833
0.0219079
0.022189
0.0219328
0.0248856
1.42665
5.18232
0.021569
0.0219063
6.09499
0.0220649
0.0655198
0.0259437
0.0255036
0.0378076
0.0222855
4.38038
0.0306706
0.0252525
23.3467
0.114865
0.0232402
0.0309844
0.0220427
0.0224774
5.45187
0.291476
3.71268
0.0222639
0.022156
0.06982
0.0271856
0.0220456
0.0398755
5.27665
0.0261394
0.0445882
0.0254365
0.170357
0.0221194
0.0216879
4.47633
3.23799
2.41933
0.0219852
0.226509
0.0215989
0.0220377
0.078669
3.35532
0.0862617
0.0293492
0.231279
0.0227461
0.0303742
0.0528577
0.773096
0.0222922
0.021634
0.0225513
0.0238128
0.0261837
0.0219746
1.34255
8.99421
0.0220867
0.0323255
0.0224083
0.0216406
5.48804
5.80632
4.90757
0.0942296
0.0223768
0.0661892
6.42318
0.132646
0.124387
0.0342049
0.029979
7.14579
0.314903
1.00498
0.0217686
0.0307209
0.022118
0.0322726
5.68306
0.0216202
0.0420616
0.0254174
0.0304403
0.0230458
0.0217838
0.0218875
3.87769
0.0537396
0.0318119
0.0857481
0.0355613
6.54972
0.0315756
0.496278
0.0219369
5.06772
6.58589
6.34253
0.0222645
0.034141
0.0220856
0.02197
4.82838
0.0541985
4.85869
0.0220111
0.0455307
0.180769
4.72988
0.0280718
0.0216346
6.29347
0.022285
0.0222841
0.0225809
0.0220499
5.03943
0.0218267
0.0218859
0.0371449
0.0272873
0.151524
0.143011
0.0333341
5.27746
0.0219198
0.213744
0.0217677
4.82447
0.0351501
0.522003
0.210209
2.90468
0.149422
5.31784
0.0231196
6.30167
0.0327407
5.60576
0.227766
0.0278428
0.273667
0.0221525
5.51912
0.0231627
0.0400196
0.027177
7.76376
0.197577
5.1723
0.0311646
0.02203
6.47659
0.28827
0.0612048
0.202618
6.2522
5.41523
0.0403533
0.349476
0.0486821
0.0218894
0.0518442
0.316222
0.0731592
28.5593
0.136136
0.0218066
0.0219281
0.154958
0.0220874
4.48125
0.0742304
0.0220913
3.65449
6.23983
0.56434
0.120576
0.0219886
0.0290464
0.0257389
5.64755
3.78826
0.0257187
5.81557
0.0218725
0.0316493
1.87905
0.0220194
0.0442233
0.021943
0.0267036
0.0222511
0.169401
0.518276
0.030175
0.0295383
0.0217096
0.165956
0.0218901
0.0218347
0.0331727
0.0219364
0.262184
5.68504
9.47573
6.21362
0.021789
4.69127
0.0221894
0.0373409
0.150757
0.0220104
6.3209
0.0740266
0.0220447
0.021628
0.0475069
0.0386895
0.189612
0.301173
0.0257545
0.0239572
6.44129
0.0771124
0.428998
1.26488
14.6852
0.920247
4.7988
2.76439
0.0221591
0.0221158
0.0498673
0.0222135
0.0556706
0.0371791
7.58746
4.87281
8.34164
0.0216759
0.0217744
0.13315
0.403266
5.00573
3.68569
3.67921
0.0555199
0.032871
2.88016
0.42274
0.0261326
5.95421
0.033349
0.0323542
5.99464
0.0450521
0.0219198
0.738684
1.10144
0.0244079
0.163617
0.0234084
4.04735
5.68695
6.05211
0.0220307
0.0216807
0.197951
0.0220324
0.0219157
0.0220361
0.0217294
0.0220413
0.0220474
5.02456
0.028424
0.0470146
5.48806
0.0219123
0.0220552
0.0340824
0.0253456
0.0266227
0.0220619
0.071714
0.0313727
0.0264155
0.087467
6.23256
0.0220718
0.0492026
0.0220823
0.0220497
0.0215646
0.0220933
6.14833
0.0218967
0.0220403
0.0221049
0.0459748
6.02855
5.55757
5.11979
6.9357
0.0525297
6.12402
6.30216
0.0219688
0.0428329
5.60307
0.322648
0.0221175
0.0276508
0.0479074
0.0375834
0.0220703
0.0410062
0.058031
0.0445327
0.0216244
0.0594989
5.87026
0.0215689
7.66724
6.33788
0.0430129
0.664508
0.0372532
0.0220981
0.0259583
0.0220282
0.249402
5.36363
0.0216686
0.0441792
0.0219901
0.0219832
0.0221967
0.0222857
0.0382343
0.0221733
0.14313
0.173678
0.0262128
0.0246683
0.0525974
0.022061
0.0445409
0.0332446
0.0223658
0.022109
0.0221436
6.42038
0.0220302
0.412785
0.0438801
0.022253
0.0220446
0.0217337
6.43294
0.0256226
0.0427238
0.0576276
5.47906
0.0281521
6.4713
8.24905
0.043258
0.0219892
0.343638
0.041756
6.77317
0.0771995
4.78228
0.0216364
0.0538691
0.0521761
6.27491
0.0220207
0.0514806
5.55775
0.0218652
6.20275
9.40112
0.562544
0.021993