/*--------------------------------*- C++ -*----------------------------------*\
| =========                 |                                                 |
| \\      /  F ield         | OpenFOAM: The Open Source CFD Toolbox           |
|  \\    /   O peration     | Version:  v2012                                 |
|   \\  /    A nd           | Website:  www.openfoam.com                      |
|    \\/     M anipulation  |                                                 |
\*---------------------------------------------------------------------------*/
FoamFile
{
    version     2.0;
    format      ascii;
    class       surfaceScalarField;
    location    "350";
    object      meshPhiCN_0;
}
// * * * * * * * * * * * * * * * * * * * * * * * * * * * * * * * * * * * * * //

dimensions      [0 3 -1 0 0 0 0];
oriented        oriented;


internalField   nonuniform List<scalar> 
20537
(
0.00631639
0.000292943
-0.00665658
-0.00796404
0.00587758
0.00208498
0.000800509
0.00307866
-0.003881
0.0104419
-0.00568538
-0.00479892
-0.00231977
-0.00147802
0.00379665
-0.00557494
-0.00195742
0.00751435
0.00756581
-0.00606418
-0.00159157
-0.00230426
0.00470281
-0.00240197
0.00312773
-0.00409704
0.000857296
-0.00539297
0.00239766
0.00299266
0.000787025
-0.00214093
0.00134854
0.00364614
0.000200916
-0.00384742
-0.00177012
0.00226105
-0.000491053
-0.000938587
-0.00140083
0.00233943
0.000597927
0.00161443
-0.00264283
0.00321209
0.00222778
-0.00544902
-0.00720383
0.00211941
0.00506561
0.000892883
0.00493197
-0.00584419
-0.0014778
-0.00123044
0.00270795
0.00396908
-0.000958132
0.00472057
0.00565095
0.00452536
-0.00372692
0.000146451
-2.99659e-05
-0.000163523
-0.000344817
0.00036553
-0.000213318
2.01119e-05
7.91915e-05
0.00240635
-0.00471444
-0.00557831
0.00447244
0.00109218
0.000911594
0.000463222
0.0084395
-0.00217198
0.00813495
-0.00121794
-0.00694861
0.00180841
-0.00739972
-0.00383304
-0.00338727
0.00483996
-0.00176349
0.00262035
0.00161057
-0.00423672
0.000249861
-0.000794349
0.00165762
0.000390464
-0.00204824
-0.00229674
0.0011297
0.00116697
-0.00170584
-0.00151381
0.00321918
-0.00393814
-0.00145681
0.00571977
-0.00310623
0.00802044
-0.00450078
-0.0036245
-0.000289332
-9.54943e-05
0.000368505
-0.00117508
0.000392643
0.00078244
-0.00149297
-0.000558139
0.00204865
0.000484444
-0.00197925
-0.00187012
0.00106161
0.000808505
-0.000569506
0.00200095
-0.00143083
0.00698613
-0.00202831
-0.00496532
-0.00428217
-0.00130835
-0.00523487
0.00452144
0.000687751
0.00194412
-0.00344977
0.00150469
-0.00148109
0.00295608
-0.00147533
-0.00046136
0.00111259
-0.000651228
-0.000273436
0.00117157
-0.00130845
0.000275389
0.000774606
-0.00142302
8.44448e-05
-0.000388805
0.000117941
-0.000563214
0.000341298
0.000632804
0.000812431
-0.00144523
0.00665163
0.00144597
-0.00622526
0.00763409
-0.00148978
-0.0032959
0.00158952
0.00179852
0.000446451
-0.00224505
-0.00269389
-0.00463148
0.00731134
0.0013943
0.00180131
-0.00319631
-0.00636112
0.00125917
0.00509698
-0.00205787
0.00724169
-0.0052171
-0.00126155
-0.00103524
-0.000352363
0.00203589
-0.00231653
-0.00228758
0.00459983
0.00606266
-0.00519061
0.00107405
-2.12092e-05
-0.00105284
-0.000815426
-0.00100841
0.0018238
-0.00490137
-0.00306366
-0.00188086
0.00112763
0.00205281
-0.000391817
-0.0019915
-0.00136951
-0.00251111
0.00380998
0.00118769
0.00333638
-0.000992209
0.00141821
-0.000426003
0.00432734
-0.00251954
-0.00181018
0.000227252
-0.00115526
-0.00759218
0.00228094
0.00524845
-0.000117013
0.000172016
-5.46826e-05
0.00509524
-0.00713604
0.00185098
-0.00103433
0.00184266
-0.000808337
0.00410993
-0.00681803
-0.000294333
0.00394011
0.00203745
-0.0072771
0.00521755
-0.0049232
0.00380008
0.00112184
0.00495926
0.000457858
-0.00543166
-0.00314588
0.00243063
0.000666921
0.00250622
-0.000848747
0.00898826
-0.00518208
-0.00383963
0.00137876
0.00548835
-0.00287483
-0.00262138
0.00753073
-0.00258735
0.000271793
4.38603e-05
-0.000421316
-0.00337417
0.00105338
0.00210135
-0.00171407
-0.000387307
-0.00416685
-0.00109071
0.000227204
-8.00695e-05
0.00178578
-0.00186882
8.30586e-05
-0.00242498
-0.00152737
0.00395056
0.00811876
-0.00348179
-0.00469056
0.00366623
-0.00511449
2.42759e-05
-3.75626e-05
4.2455e-06
-0.00205366
-0.00494122
0.00697267
0.00190095
0.00154847
-0.00345082
-0.000165029
-4.07416e-05
0.000194387
0.000996233
-0.00163661
-0.0073079
0.00533302
-0.000249952
0.000236437
-0.00011892
-0.00233369
-0.000861433
0.00496891
0.00398571
-9.48692e-05
-8.93994e-05
-0.000563895
0.000172252
-0.00303111
0.00652313
0.00127113
0.000830176
0.000281833
-0.00019812
-9.99074e-05
-0.000461805
-0.000283909
0.0004829
-0.00119678
0.000250354
0.000626687
-0.00115911
-1.59779e-05
-0.00280371
0.00645407
0.000666353
-0.00243659
0.00697897
0.0021323
0.00484339
-0.000300511
0.0013885
-0.00110954
0.00711479
-0.00499276
0.00325669
-3.33446e-05
-0.00322516
0.00925932
-0.00459546
-0.0012222
0.00276893
-0.00154719
0.00330351
0.00458918
0.00103071
-0.00348642
0.00227977
-1.44615e-05
0.00108851
-0.00140581
0.00629921
0.00359143
-0.000829878
-0.000576042
0.00119468
0.00011561
0.000145242
-0.000940254
-0.000939458
0.00187968
0.0029899
-0.00185541
-0.00113452
0.00167572
-0.00323194
0.00155635
0.000268672
0.00151711
-0.00110954
0.000979364
0.00585859
-0.00253296
-0.00337962
7.09041e-05
0.000656498
-0.000746276
0.00319846
-0.0061141
0.00288841
-0.00203021
0.00146937
-0.000144027
6.26519e-06
0.000133177
-0.00321262
0.00198979
0.00584681
0.00160567
0.00187847
-0.00139574
0.00311023
-0.00144111
0.000867213
0.000101116
-0.00130704
0.00114192
-0.00208049
0.000382269
-0.000354735
-8.63948e-05
-0.00447434
0.00453952
-0.00374213
0.00691004
-0.000921565
0.00543124
-0.00462165
-0.0057463
0.00704884
-0.00133505
-0.00234769
0.000866269
0.00345611
-0.00151303
-9.38422e-05
9.25738e-05
-1.002e-06
0.00489635
-0.00266371
-0.00223864
-0.000610567
0.00124337
0.00287129
-0.00199835
-0.00585808
-0.00193815
0.00777405
8.22188e-05
-0.000691652
0.000588051
-2.85026e-05
-0.000118599
-0.00435578
0.00203522
0.00513689
0.00406409
0.00112402
-0.00179237
0.000668335
-0.00110425
0.000112037
0.00172369
-0.000386878
-0.00143589
-0.00552575
0.004495
0.00327553
-0.00159971
0.00082771
0.00187815
-0.0068954
0.00485924
-0.00119003
0.00444422
0.00303732
0.00153859
-0.00461927
-0.00288382
0.00140577
0.000166772
4.63235e-05
-0.000222266
-0.00224693
0.00619293
-0.00395904
-0.00175572
-0.00645249
0.00444668
0.0018118
-0.00337207
-0.000356115
-3.03544e-05
2.6879e-05
7.21182e-07
0.000194839
1.08654e-05
-0.000279114
-0.00722315
0.00513262
-0.00129194
-0.000236091
0.00163611
0.00173484
-0.00337193
0.00391786
-0.00530863
0.00138713
0.00146677
-0.00116555
0.000704193
0.0028674
-0.000479132
-0.00242679
-0.00247686
-0.00183003
0.00430288
-0.00110262
0.00290104
-0.000118575
-0.00505166
0.00514367
0.00183941
0.0039659
-0.00514157
0.00168273
0.00345126
-0.00263362
0.00561742
0.00256863
-0.0040094
-0.00145064
0.00112772
-0.00225067
0.00109958
0.00115107
0.000163907
-0.000586661
0.000129953
-0.00266639
0.00596806
-0.00347246
-0.00511699
0.00240032
0.0027134
-0.00148237
-0.00515696
0.00349958
-0.002373
-0.0011267
-0.00641809
0.00595689
0.000444682
0.000818111
-0.0014711
0.000652986
0.000147387
-0.000110807
-4.20469e-05
0.00173171
-0.00129152
-0.000440206
0.00575028
0.00230486
-0.00184381
0.005332
-0.0034904
-0.000117332
-3.4504e-05
0.0001433
-0.000170106
-0.000558133
0.000708739
0.000565408
-0.00183002
0.00125658
-0.00786803
0.00273733
0.00511402
-0.000850696
-0.00101944
-0.00424842
0.00250447
0.00144431
-0.000550257
0.00136837
-0.00176733
-0.00466363
-0.00638958
-0.00125705
0.00181146
-0.00103561
-0.000775876
0.00293655
-0.00107493
-0.00186204
0.00172692
-0.00100327
-0.000723662
-0.000114192
-7.04953e-05
0.00011578
0.005465
-0.00369268
-0.0017793
-6.58569e-06
1.95481e-05
-0.000826407
0.00116498
-0.000338574
4.8618e-06
-0.000127082
-0.00276
0.00516223
0.0020151
0.00372561
-0.00574488
0.0013588
0.000267003
0.000494694
-0.00128281
-0.00204645
0.00332824
-0.00686357
0.00519893
0.00165371
0.00271215
0.000787321
-0.00514269
-0.00122163
0.000731587
-0.000681343
0.00256774
-0.00538834
0.0073118
-0.0055198
-0.00479772
0.000264841
0.00452157
-8.19201e-05
0.000122884
-4.19507e-05
-0.00224898
-0.0028707
-3.92935e-05
-8.79762e-06
0.000932278
-0.00133391
0.000401632
0.00100428
-0.00343081
0.00157436
0.00331684
-0.00489342
-0.0023542
-0.00419058
0.00651591
-0.00621432
0.00530257
0.000893784
-0.0012959
-0.00413137
0.00539011
-0.000685028
-0.00411647
0.00587415
-0.00631386
0.000394663
-0.00612324
0.00457054
-0.00267245
-0.0018997
0.00140406
-0.00678518
0.00537237
-0.00202217
0.00593559
-0.00168274
0.00074325
0.00148427
-0.000552123
-0.000932151
-0.00608845
0.00434377
0.00151243
0.000542776
-0.000976387
-0.00577458
0.00672822
-0.00431816
0.00713273
-0.00282023
-0.000584218
0.00155867
-0.001003
0.0010021
0.00150423
-0.00250654
-0.00446982
0.00432816
3.34352e-05
0.00579605
0.000251971
0.00522868
0.000780113
0.00103131
-0.00226076
0.00259568
-0.000352831
-0.00536739
0.00403421
-0.00516208
-0.0033225
0.00696401
-0.00365134
0.00222099
0.00210371
-0.00302357
0.00622549
-0.00145821
-0.00219382
1.29105e-05
-0.000130004
0.000448898
-0.00153438
0.00107503
0.00177214
-0.00110485
-0.000667299
0.00170226
-0.000920056
-8.75795e-05
7.47529e-06
0.000100683
-4.80885e-05
-5.97714e-05
2.09089e-05
1.20324e-06
-2.87339e-05
0.00199281
0.00257605
-0.00689296
0.00256959
0.00176166
0.00544511
-0.00721129
0.00479397
-0.00269548
-0.0021981
0.00329452
0.000505638
-0.0041085
-0.00692032
0.00358812
2.16626e-05
-5.42129e-05
3.47759e-05
-0.00165517
-0.00155794
0.00701127
-0.000388475
-0.0060738
-0.000219758
0.00235322
0.001852
-0.0042088
-7.6287e-05
9.91907e-05
0.00269451
-0.00169263
-0.00669387
0.0060188
0.00066292
-0.00435486
0.00406014
-0.00214656
-0.00124625
0.00324836
-0.000457002
0.00138927
0.00448918
0.00040108
0.00672127
-0.00461894
0.00172882
-0.00125873
-0.000470107
0.00843191
-0.00269052
-0.00580808
0.0050955
-0.00717131
-0.000455419
-0.00133987
0.00179528
0.00188176
0.00279819
0.00435933
-0.00270064
-0.00166082
0.0027555
-0.00563977
0.00598261
0.000996894
0.0019333
0.00105653
-0.00343187
-0.00327356
0.00396603
0.00186257
-0.0058751
0.00134226
0.000324734
-0.00166703
0.000140954
-0.000506736
0.000347539
-0.00600223
-0.000225331
0.000160078
-0.00157125
0.00139169
0.000765216
0.00100691
0.00114732
-0.0024829
0.00133532
-0.00172722
-0.00279747
0.00136895
-0.00353509
0.0021645
0.00501114
-0.00136697
-0.00394104
0.00033333
0.00115094
0.00721489
-0.00439673
-0.00285514
0.00013772
2.60029e-05
-0.000220648
0.000101559
-0.00444224
0.00426062
-0.00150162
0.00264864
0.00264518
0.00281218
0.00307768
-0.00566792
0.00256836
0.00357447
0.00186822
0.00648831
-0.00311876
0.00703008
-0.00156222
-0.000583524
0.001113
0.00116104
-0.00110925
0.0020646
-0.000955386
0.00739028
-0.00274669
-0.00466434
0.00101958
0.000709227
0.00297421
-0.00132958
-0.00164482
-0.0016732
-0.00421395
0.0017332
0.00127825
-0.0029339
-0.000728388
-0.00461481
0.00531558
-0.00716435
0.00305225
0.00410217
-0.00268044
0.00096763
0.00171246
0.00146382
-0.00649626
0.00108634
0.00536809
-0.00487808
0.00694077
-0.0020648
0.00155854
-0.000948935
-0.000609617
0.00189598
-0.000715858
-0.00104298
0.00183548
-0.000804577
-0.00197761
0.000921952
-0.00182734
0.00342349
-0.0015967
0.00592724
-0.00287136
-0.00427125
-0.00289971
-0.00113089
0.000304486
-0.000978413
-0.00465181
-0.0068584
0.00197866
0.00432175
-0.00430031
0.000949328
0.00372874
-5.66519e-05
8.51579e-06
-0.000221445
4.62308e-05
-0.00528308
0.00155492
0.00359829
0.000984531
0.000574
0.000412203
-0.00343431
0.00301684
-0.00519474
-0.00109569
0.00618389
0.00210584
0.00225075
-5.34909e-05
-0.000462864
0.000498289
-0.000414
-0.0039413
-0.000805859
-0.00464323
0.00544116
0.0075706
-0.000741281
-0.000912491
0.00203648
-0.00629155
0.00099509
-0.00221772
-0.00565634
-0.00589607
0.00381259
0.00207467
0.00553083
0.00203497
0.0077372
-0.00317017
-0.00470032
-0.000220008
5.32341e-06
-0.00753395
0.00576393
0.00173628
0.000450541
-0.00142047
0.000969943
0.0003922
0.0033361
-0.00140285
-0.00594227
-0.000899582
-0.00178116
-0.000720752
-0.00107163
0.000953294
-0.00190268
0.000940348
0.00197229
-0.00102822
0.00686933
-0.00407617
-0.00282805
0.00122299
-0.00296051
0.00158576
-0.000824069
-0.000550413
0.00093907
0.00241033
0.00495759
0.00318588
-0.00181819
0.00101925
-0.00242005
0.00119448
0.0027346
-0.00393287
0.000838643
0.000888266
-0.000970284
0.00171648
-0.000746209
-0.000432431
0.000365376
-0.00519632
-0.001081
-0.00202176
0.00113814
-0.000147599
-0.000990537
0.00562198
-0.00361123
-0.000918039
0.00218912
-0.00190348
-0.0056627
-0.00261733
-0.00328655
-0.000239878
-5.56326e-05
0.000198065
0.00154459
0.00142938
0.00180363
0.000687009
-0.00258392
0.00495229
-0.00273151
0.00249457
0.00433552
-0.002009
-0.00478436
0.00669205
1.61751e-05
0.00443461
-0.00265691
0.000483302
-0.000416845
-0.00153861
0.00293229
-0.005173
0.00678685
-0.00162282
-0.00138113
0.00145744
-7.6309e-05
-0.00510891
0.00765494
-0.00257055
-0.00163546
0.00498713
-0.00706228
0.00205089
-0.00433626
0.00364798
-0.00195275
0.00632403
-0.00438683
0.00167572
-0.00350367
0.00211355
0.00458945
0.00167394
-0.00111644
0.000248276
-0.000152873
0.00157088
0.0027541
0.000157775
-3.71954e-05
0.00163832
0.0015776
-0.0032164
0.00456749
-0.00152258
-0.00304527
-0.00170152
-0.00173824
0.00343919
0.00696476
-0.00200026
-0.0010478
-0.0033182
0.00492335
0.00711081
0.000753793
-0.00303422
0.00175062
0.00298793
0.00461035
2.34928e-05
-0.00437164
9.46533e-06
3.98129e-05
-6.70141e-05
-0.00171055
0.00394271
-0.00223281
-0.0048728
0.000737239
0.0041265
-0.00461533
0.00254706
0.00206595
-0.000817541
0.00133346
-0.000515923
0.00267951
-0.00536581
-0.000393363
0.00135346
-0.000969091
-0.000977209
-0.00389993
0.00153612
0.000513375
-3.12401e-05
-3.96865e-06
0.00270959
0.00228054
-0.00499654
-0.00371167
0.000132186
-0.00240671
0.00161116
0.000420198
-0.00212862
-0.00235056
0.0066346
-0.0043365
0.00161723
0.00327661
-0.000320873
0.00771569
-0.00319992
-0.00453488
0.00167114
0.00232138
-0.00399244
8.75579e-05
-0.000273302
0.000594793
-0.005111
0.000622706
0.000725006
-0.00134771
-0.00706263
0.0011865
6.23382e-05
3.49126e-05
-0.00220981
-0.00271439
-0.00150498
0.00258271
-0.00543268
-0.0029277
0.00198521
0.00083257
0.00692626
-0.00580331
-0.00113365
-0.0069397
0.00535195
0.00155153
9.25068e-05
-0.00258678
0.00521423
0.00219027
-0.000848057
-0.00394855
-0.00334439
0.00223368
0.0019597
-0.00419671
-0.00173705
0.000698971
-0.0069035
0.000466944
0.00640982
-0.000427196
0.00153482
-0.00111531
-0.000111601
-7.27504e-05
0.00152006
-0.006218
0.00460211
8.79369e-05
-0.000338134
7.94799e-05
-0.0072945
0.00224338
0.00504159
-0.00602091
0.0069275
-0.000960471
-0.00527157
-0.00202604
0.0061636
-0.00191374
-0.000344107
1.0607e-05
0.00220998
-0.00124329
-0.000966687
-0.00121141
0.000393869
0.00644282
-0.00483929
-0.00176231
0.000310751
-0.00724425
0.00379582
-0.00576307
0.00463114
-0.00437657
0.000722843
-0.00175717
-0.0037034
0.00423564
0.00299639
-0.00258929
-0.00765281
0.0043538
-0.00175941
0.00353364
-0.00177534
0.00480743
-0.00697322
0.00207844
-0.000477933
0.00118817
-0.000710238
-0.000199773
6.83864e-05
0.000113144
0.00109461
1.79803e-05
-0.00296567
-0.00243004
0.00539192
-0.000414788
0.000303366
-0.00689718
0.00717761
-0.00059623
0.00189181
-0.0012956
0.00166263
-0.00442599
0.0018227
0.00061588
-0.00243907
0.000299061
-0.00101247
-0.00436498
-0.00235261
0.00671289
-0.000416113
0.000798834
-0.00251041
0.000790784
0.00156873
-0.00119297
0.00349557
-0.00245201
-0.00174188
-0.00498964
0.00662528
0.000540926
0.000597209
-0.00179705
-0.00165258
0.00344853
0.00120761
-0.00258628
0.00137838
0.000968013
0.00109768
-0.00206582
0.00683136
-8.34645e-05
-1.33918e-05
-0.00187204
0.00249722
-0.000625339
0.00149365
0.00307012
-0.00572735
0.00346859
-0.00479241
0.00212162
0.00139907
0.00321858
0.00474618
0.00223118
0.000691461
0.00104023
-0.00100252
0.000916149
-0.000358853
0.000836495
-0.00131443
0.00178445
-0.00134073
-0.000909955
-0.0053842
-0.00549068
-0.00142948
0.00179399
0.00498543
0.00102052
-0.00142314
-0.00599578
0.00738997
-0.00371156
-0.00143219
-0.00172201
0.0035937
-0.00187228
0.00130906
-0.0070874
0.00204647
-0.00376898
-0.00145248
0.00217047
-0.000718032
-8.59626e-05
-0.000133097
0.00145912
0.001658
-0.00126191
0.000514397
0.000747513
0.00199891
-0.00621603
-0.00474616
0.00531938
-0.000801674
0.00379044
0.00152048
-0.00479374
0.00573981
-0.00105715
0.00332644
-0.00169124
-0.00517182
0.00686178
-0.00170069
0.00601658
-0.00221802
-0.00232332
0.00399444
0.000922883
0.00023138
-0.00132119
0.00141915
-0.00079644
-0.00143232
0.00069235
0.00073997
0.00192086
0.00503293
-0.00697225
0.00488241
-0.00339158
-0.00212565
-3.28098e-05
-2.24141e-05
5.34317e-05
-0.0026327
-0.000113545
0.000162643
-4.91534e-05
0.000472652
-0.00234481
0.00112152
-0.00561121
0.00188675
0.00095927
-0.00284642
0.00203387
-5.51238e-05
-0.00197888
0.000329433
-0.000259592
0.0053373
0.0016505
-0.0070086
-0.00698115
0.0020752
0.00490232
0.00113455
0.00228816
-0.00128513
-0.00166416
0.00294875
0.00103787
-0.000496946
0.00189863
-0.00101888
-0.000879786
-0.00446923
-0.00682487
0.00471489
0.00265927
0.00258862
-0.00524831
-0.00142571
-0.00135455
0.00259267
-0.00123835
0.00360964
-0.00241824
0.00240279
-0.0070469
-6.63022e-05
-0.00466973
0.00515499
-0.00068187
0.00188257
6.3759e-05
0.000252141
-0.0043515
0.00632318
0.000173623
-0.000136173
-0.00266923
0.00183442
0.000627657
0.000103296
-0.00155581
-0.00157367
0.00399629
0.00294091
0.000260338
-0.000208966
0.00178858
0.00154748
-0.00313546
0.00481082
0.00128355
-0.00327849
0.00185206
0.000352848
7.92339e-05
-0.000510817
-0.00147327
0.000861797
0.000606318
-0.00103927
0.00148982
-0.00316298
0.00473508
-0.00501028
-0.00207289
0.000732143
0.00240011
-0.00676971
-0.00476643
0.00231461
0.00244733
-0.000783088
-0.000478822
-0.000570802
-0.0009003
-0.00516765
-0.00136306
-0.00443193
0.00214027
-4.28718e-05
9.05808e-06
-0.00130997
-0.00325524
0.0057997
-0.0025514
-0.00217948
0.00107881
0.0011006
0.00470166
0.00223484
0.00302576
-0.00113944
0.00195075
-0.00463446
0.00267576
0.00374482
-0.00147868
-0.00238118
-0.00235503
-0.00358327
0.00592883
0.00511575
-0.00173432
-0.00342703
0.00237717
-0.00055472
0.00172414
0.00149087
-0.00321589
0.00442361
0.00153007
0.00471199
-0.00747935
0.00201516
-0.000505233
-0.00522825
0.000983077
0.00423772
0.0011357
-0.00283767
0.00229259
0.00525141
0.00697707
-0.00411742
-0.00506434
0.00425139
0.00741415
-0.0022634
-0.00521674
0.00184742
-0.00177815
0.00341593
0.00254028
0.000395929
-0.00202505
0.00602014
-0.00400482
-0.00241166
0.00105689
0.00138678
0.00224378
0.00690135
-0.00280763
-0.00410113
0.00305136
-0.00173566
-0.00033724
0.00775628
-0.00207686
-7.71729e-05
0.000306047
-0.000356974
0.00171158
-0.000715372
0.0059487
0.000208789
-0.00619147
-0.00130081
0.000580045
0.00107651
0.000406364
-0.00148288
0.00182972
-0.00102763
-0.000802092
-0.00521552
0.00300456
0.00231126
-0.000597332
0.000703134
-7.8575e-05
-1.03694e-05
-0.00291351
0.000108959
0.00261017
0.000144898
-9.32447e-05
-0.00237432
-0.000497486
-5.80222e-06
3.51279e-05
-3.01344e-05
-0.00747951
0.00234833
0.0049545
0.00195961
4.95443e-05
0.000199451
-0.0021427
0.00343598
-0.00129359
-0.00499143
-0.00285016
0.000707222
0.00469402
-0.00138665
-0.00342462
8.57521e-05
-3.58895e-05
-6.13745e-05
-9.20948e-05
0.000157786
-0.000103428
0.00380571
-0.00252806
0.00268363
-0.0014825
-0.00120123
0.00355446
-0.00029114
-0.00326448
-0.00498351
-8.22187e-05
1.26396e-06
0.000187392
-0.000326841
-0.00096991
0.000645434
0.000152733
0.00551055
-0.00127853
-0.00430598
0.00186972
0.000527388
-0.00239721
-0.00191384
-0.00159801
0.00351191
0.00490126
0.00244187
0.000225254
-0.00018738
-0.00667408
0.00482914
-0.000763155
0.00616242
-0.00239999
-0.00180694
0.00420606
0.000544102
-0.00119613
0.000652031
-0.00538741
0.00142325
0.0006022
-0.00202549
0.00450501
-0.00686248
0.00237744
0.00446533
-0.00146218
0.00266946
0.000115658
-0.00208242
-0.00320709
0.00340769
0.0071511
-0.00493257
0.00506625
-0.000100776
0.00365392
0.00185554
0.00161773
0.00478398
0.00726215
-4.59336e-05
3.74727e-05
0.00426884
-0.00390307
0.000811752
0.000521709
0.00409581
-0.00121256
-0.00295007
0.0011022
-0.00628351
0.00514563
-0.00475855
0.00714833
-0.000832215
-0.00182555
0.00234546
-0.00754437
0.000611862
-0.00141167
0.00283491
-0.0014232
0.00343312
-0.00170993
-0.00121826
0.00272225
-0.00188509
-2.54637e-05
0.000131293
0.00134962
0.0032221
0.00117605
0.00103393
9.14019e-05
0.00194235
-0.00169291
-0.00518075
0.00143785
-0.000361348
0.00308829
-0.00103191
-0.00214363
-0.00086244
0.00020048
0.00023088
0.000142573
-0.00444074
0.00683679
0.00121783
-0.00205261
0.000834719
0.00130541
-0.00635312
0.00502824
-0.00220267
0.00692512
-0.00478067
-0.00152723
0.00109212
0.00637115
-0.00473518
-0.00165235
7.93455e-05
-0.000203107
-0.000677524
0.00154469
-0.000867168
-0.00667191
-0.000117888
-0.000753169
-0.000575507
0.00132867
-0.000291037
0.00742273
-0.00259686
0.00121469
-0.000630091
-0.000584602
0.00106923
2.59189e-05
-0.00109515
0.00235857
0.000147485
0.0032563
0.00180997
0.000853855
0.000799372
-0.00165325
-0.00676221
0.000449081
0.00121799
-0.00419385
0.00207647
0.00211627
-0.00204166
-0.00257583
-0.00659062
0.00207595
0.00449658
0.000979017
-0.00123978
0.00440014
-0.00318893
-0.0011851
-0.00329056
0.00443776
0.00214634
-0.00101672
-0.000479866
0.000274128
-0.000142493
-0.00134422
-0.00562939
0.00332334
-0.00204207
-0.00142499
0.000747466
-0.00269083
0.005725
-0.00304038
0.00199096
-0.00259247
0.00656695
-0.00108548
-0.000458363
0.00237439
-0.000421666
0.000377764
-0.000913526
0.000307177
-0.00535381
8.22895e-05
4.71002e-05
-0.00612914
0.00406944
0.00192986
-0.000294541
0.00119606
-0.00118177
-0.00129373
-4.61552e-05
-0.00161678
-0.000274127
0.000335181
-7.84511e-05
-0.00697664
0.00178183
0.00518105
-0.0020468
-0.00487252
0.000629203
0.000585489
-4.22982e-05
4.3201e-05
-2.43027e-05
0.00178878
0.00357669
-0.00541442
0.00268102
-0.00239122
-0.000290371
-0.00417595
0.00177515
-0.00343532
0.000517561
0.00291159
0.00105287
-0.00089375
-0.000329022
0.00790031
-0.000948991
0.00247392
-0.00105072
-0.00603328
0.000884889
-0.00187742
0.000992511
1.7024e-05
0.00424765
-0.00102036
-0.00200984
-0.00144858
-0.00246262
0.00388833
0.000944621
-0.000551978
0.00573604
0.00214613
0.00602421
-0.00146734
-0.00457308
-0.000212624
0.000173778
0.00390001
-0.00209337
0.00436384
-0.00227223
-0.00527343
0.000301382
0.00496686
0.00546744
0.000532613
0.00235668
-0.00382822
0.000289233
-0.0016811
-0.00342256
0.00516363
-0.00261197
0.00271455
-0.00161378
-0.00296329
0.00457222
0.00346118
-0.00172736
-0.00219525
0.00512777
0.00220675
0.00170073
-0.00233806
0.000106299
0.00223133
0.00164084
0.00687693
-0.00559288
0.000595747
-0.00277203
0.00217618
0.00219931
-0.00123144
0.00564407
-0.00779871
-0.00114364
0.0017529
-0.000609267
0.00201728
0.0048768
-0.0011376
-0.00129842
0.00243593
-0.00294808
0.00153648
0.00184973
-0.0011434
-0.000706347
0.000598951
-0.00285279
0.00224494
-0.00314384
0.00546021
-0.00232208
0.00219223
-0.00480194
0.00719024
0.00159214
-0.000779708
0.000699016
-0.00181169
0.00549086
-0.00376326
-0.000115456
-0.000133428
0.000159671
-0.00373206
0.00168451
-0.000133498
3.07267e-07
0.00013179
0.000329549
9.09615e-05
-0.000437563
0.000621451
0.000568466
-0.00118992
0.00217437
0.000825965
-0.00564726
-0.00111683
0.00664442
-0.000699986
-0.000878394
0.00137567
-0.000497275
-0.00184791
-4.56902e-05
-0.000594628
-0.00247562
-0.00328498
0.00391478
0.000231666
0.000837565
-3.58277e-05
0.00190545
0.00139412
0.00119826
-0.00678175
0.00516578
0.00156984
0.000962869
0.0011017
0.00318359
-0.0020497
0.00123976
0.00144375
0.00362947
-0.00208248
-0.00203916
0.00414245
-0.00551287
0.00689748
-0.00218076
-0.00581421
0.000913707
-0.00343321
0.00147482
0.00195715
0.000562393
-0.000709992
0.00406133
-0.00599509
0.00476541
-0.000744957
0.00149242
-0.00231931
0.00118165
-0.000722343
-0.000709981
-0.0050561
0.00634702
-0.00141795
0.00223294
-0.00467211
0.00243462
-0.00184595
0.00298775
-0.00561732
-0.00496052
0.00602789
0.000378621
0.00225362
-0.00263239
-0.000267484
-0.000327694
-0.00102251
0.00138407
-0.00036156
-6.22496e-05
0.000374904
-0.000221314
0.0029017
0.00392228
0.000712277
-0.00476927
0.00274242
-0.00406176
0.00131844
-0.00115995
-0.00248816
0.00471629
-0.0011119
0.00444243
-0.0015284
-0.00291611
-0.00513964
-0.000672964
-0.000306753
-0.000185236
-0.00325624
-0.00513817
0.00225555
-0.00653892
0.00427539
-0.00198528
0.00676198
-0.00480499
-0.00105145
0.000173051
0.00120554
0.000323877
0.000470056
0.00252154
-0.00288163
0.00730964
-0.00449642
-0.000125821
-0.00116571
-0.00089887
0.00131337
-0.000684172
-0.0022855
0.00287576
0.00752884
-0.00350543
-0.00663053
0.00239911
0.0041419
-0.00131736
0.000564189
-0.00106564
0.000261142
0.00638515
0.000137661
-0.00134877
0.000646572
0.000702194
-0.00341455
-0.00155523
0.00484537
0.00677256
-0.00437769
-0.00241742
-0.00171879
0.00187514
-0.00501893
0.00135429
-0.00304666
0.00169233
0.00490093
0.00216632
-0.00714751
-0.00050125
-0.000149724
0.00552833
-0.00297618
-0.0025517
-0.00138224
0.000831984
0.00140616
-0.00307082
0.00151413
0.00449309
0.00149465
-0.00641672
0.00487449
0.00295284
-0.00248726
-0.00070429
-0.000819295
0.00152358
-0.00289219
0.000553608
5.72946e-05
-0.000349945
-0.00470877
0.0015599
-0.00086077
-0.0018279
0.00253361
-0.000260342
-0.000526858
-0.0021241
0.000133632
0.000177311
-7.46898e-05
0.00173066
0.00195459
-0.00368582
-0.0043521
0.00436336
0.000650106
-0.00640704
-0.00516983
-0.00238917
0.00567064
-0.000353597
-0.000988922
0.00134252
0.00115517
-0.00175142
0.00562741
-0.00292508
0.00232073
-0.00172507
0.00467491
-0.000888874
-0.002957
0.00523095
0.00573417
-0.00342
0.0018061
-0.00282355
-0.00778096
0.0021578
0.00553804
-0.00595897
0.00649397
-0.000521935
0.0012788
-0.000756868
-0.00572661
0.000749957
-0.00367228
0.0035702
0.0012813
-0.00646007
0.00483968
-0.000165534
-0.00105653
0.000253813
0.000802714
-0.000797697
0.000315716
0.00516181
-0.002503
-0.00397394
-0.00130377
-0.0018067
9.10819e-05
0.00171552
0.0014651
-0.00416139
0.00228176
-0.00491207
0.00262487
-0.00101175
-0.00415669
0.00513167
-0.00153563
0.00672398
-0.00282865
-0.00714696
0.00159608
0.00554575
0.000592137
0.000634859
-0.001227
-0.00391978
-0.000733038
0.00464928
0.000312486
0.00178857
0.00590484
0.00194275
0.002497
0.00210043
-0.00141776
0.000607664
0.0003024
-0.00257807
0.0030079
-0.000429743
-0.00317812
0.00440623
-0.00491844
0.00242759
-0.00140832
-0.0018238
0.000584716
0.0012145
-0.000622617
-0.0022614
-0.0013039
-0.00347964
-0.00174544
-0.00322633
0.000644455
-0.00422322
-0.000150371
7.04379e-05
7.70253e-05
0.00199405
0.00509781
0.00122855
0.000917716
0.00324829
-0.00492445
-0.00213142
0.0020955
0.000759859
-0.00146415
0.00285597
-0.0055397
0.00267934
0.00144033
0.00139463
0.0020163
0.000403917
-0.000246257
-0.00171175
0.00012272
0.00109901
-0.00600186
0.00164648
-0.00208696
-0.00121377
0.00330013
-0.00649913
0.00437825
0.00207844
-0.00323946
-0.000709936
0.0038685
-0.00675901
0.00450067
0.000126627
-4.95153e-05
0.000695867
0.00170395
-0.00361765
-0.00457157
0.000992556
-0.00191063
0.00238511
-0.000933277
-0.00145192
-0.000664215
-0.00415169
0.00612164
-0.00446349
-0.0016677
0.00446223
-0.00251803
0.00468116
-0.00322554
0.000892697
0.00233246
-0.00527846
-0.00171427
0.00697271
0.00198577
0.00272586
-0.00471875
0.00150282
-0.00218576
0.00142993
0.000570013
-0.00291846
0.00478597
0.000624549
-0.00149839
0.00087384
-0.00134709
0.00147489
-0.000235555
0.00229557
-0.00162933
0.00388401
0.00183236
0.00474251
0.00161196
-5.56027e-05
-9.80273e-05
-0.00196725
-0.00108117
0.00296228
0.000280287
-0.00282303
0.00254236
-0.00467596
0.00668566
-0.00185494
0.00119022
0.00283545
-0.00433063
0.00578598
-0.00162522
0.0050986
0.00200388
0.00396048
-0.00690528
0.00213501
0.000435431
0.0025114
0.0042721
-0.00637901
0.00210474
-0.0025377
0.00120416
0.00133336
-0.00337342
-0.000906712
0.00427895
0.000120918
-0.000316571
-0.00664104
0.0014276
0.00510071
-0.0026332
0.00605608
-0.00343067
0.00722595
-0.00678676
-0.00239537
0.00551159
-0.00313001
-0.00145229
-0.000309378
-0.00361328
-0.00207117
-0.00446818
-0.0048903
0.00633681
-0.00394807
0.00188065
0.00206761
-0.00385595
0.000542902
0.000701183
0.00075625
0.000784168
0.00108178
-0.00186603
0.00654588
-0.000160043
0.00135665
0.000902351
-0.0022592
-0.000639794
-0.000600989
0.000223661
-0.00112399
0.000875703
0.00757136
-0.00506465
-0.00257787
-0.00170914
0.0023067
-0.000600942
-0.00525826
0.00305186
0.0021973
0.000202502
-0.00164962
-0.000100262
-8.90603e-05
0.00405599
-0.00293758
-0.00208738
-0.00136311
8.32774e-05
-0.0005822
0.000478143
0.00111288
0.00286831
-0.000822477
-0.00561263
0.00160837
0.00251843
-0.00413091
0.00206228
-0.000844515
-0.0067177
0.00278771
0.00490833
-0.00165621
0.00106745
-0.00199863
-0.00143569
-0.00122985
0.00266425
-0.0014346
-0.0067816
0.00160907
0.000452092
0.00159617
0.00166719
-0.00326373
-0.0015521
0.00283488
-0.00128327
0.000142869
-0.000826494
0.000660082
0.00017849
-0.00288054
-0.00080759
-0.00410682
0.000121053
-0.000140477
0.00535668
0.00213929
-0.000567944
-0.000660742
0.00122869
-0.00293129
0.00142935
-0.00461947
0.00309643
-0.00521225
-0.00108485
0.00407039
-0.00548686
0.00122523
2.33718e-05
-4.04766e-05
-0.00292123
0.00750515
-0.00465756
0.00441148
0.00169805
-0.00183258
0.00729379
-0.00546812
4.02881e-05
5.00281e-05
-0.00216365
0.0037682
0.00235828
-0.00754148
0.000627435
0.000656763
-0.0012842
-0.000410236
9.36413e-05
0.0018749
0.00378024
-0.00565675
8.37923e-05
-9.03462e-05
0.000256612
-0.00215653
0.00189984
0.00206056
-0.00450712
0.0024444
-0.00179658
0.00100247
0.00079408
-0.000115427
-0.0024969
-0.00248196
0.000394508
-0.00337814
0.00159946
0.00140087
-0.000708521
0.000613955
-0.00398607
0.00210386
-0.0010043
-7.37753e-05
-0.00223132
-0.0018402
0.00406982
0.000534916
-0.000472772
-0.00636332
0.00259921
-0.0038173
0.00121214
0.00736119
-0.00031329
-0.00712001
-0.000588286
0.00134165
-0.000753363
-0.00568834
0.0016982
0.00398069
0.00655798
-0.00242313
-0.00228901
0.00115003
0.00113875
0.00709331
-0.00237045
-0.00258673
0.00464681
-0.00596743