/*--------------------------------*- C++ -*----------------------------------*\
| =========                 |                                                 |
| \\      /  F ield         | OpenFOAM: The Open Source CFD Toolbox           |
|  \\    /   O peration     | Version:  v2012                                 |
|   \\  /    A nd           | Website:  www.openfoam.com                      |
|    \\/     M anipulation  |                                                 |
\*---------------------------------------------------------------------------*/
FoamFile
{
    version     2.0;
    format      ascii;
    class       surfaceVectorField;
    location    "450";
    object      Uf_0;
}
// * * * * * * * * * * * * * * * * * * * * * * * * * * * * * * * * * * * * * //

dimensions      [0 1 -1 0 0 0 0];


internalField   nonuniform List<vector> 
20673
(
(1.09179 0.121948 0)
(1.09584 0.119475 -1.58626e-20)
(1.0912 0.117013 1.16409e-20)
(1.01986 0.0406864 -2.96468e-22)
(1.01868 0.0400035 3.48931e-22)
(1.01887 0.0419219 -2.44594e-22)
(0.587624 -0.0694737 1.16823e-20)
(0.624061 -0.0717693 -1.60058e-20)
(0.650797 -0.0721799 -2.79102e-20)
(1.05471 -0.00959795 -5.47727e-21)
(1.05487 -0.00861644 5.62203e-21)
(1.05383 -0.00898054 1.04891e-21)
(0.996388 0.0024955 -4.20119e-21)
(0.996211 0.00206508 -5.28594e-21)
(0.99589 0.0025914 -9.8109e-21)
(0.371933 0.0531656 9.07655e-20)
(0.359987 0.0260008 3.86306e-19)
(0.343071 0.0541609 7.9682e-20)
(0.530271 -0.0574704 -1.76145e-21)
(0.524924 -0.0596258 0)
(0.575948 -0.0619379 -1.1823e-20)
(0.650812 -0.0724727 -2.05825e-20)
(0.600112 -0.0700571 -1.03218e-20)
(0.620082 -0.0732905 1.18974e-20)
(0.461477 -0.065657 8.0165e-21)
(0.428238 -0.0620418 2.94244e-21)
(0.392705 -0.0577279 -2.84473e-20)
(1.13207 0.146565 6.09753e-21)
(1.1381 0.146421 1.38102e-20)
(1.1358 0.152429 -1.21726e-20)
(1.10702 -0.0592115 0)
(1.10558 -0.0593323 2.25966e-20)
(1.10689 -0.0606844 0)
(1.08834 -0.0397972 4.50285e-22)
(1.08874 -0.0410049 -1.76699e-20)
(1.08945 -0.0396414 -1.50016e-20)
(1.05553 -0.00986237 2.49553e-21)
(0.0022223 -0.00062107 0)
(0.0251557 -0.00516038 0)
(-0.0049028 -0.00177005 2.40276e-20)
(0.972017 0.0929008 -4.5538e-22)
(0.967869 0.0922808 -9.57282e-21)
(0.970958 0.0886328 -8.74804e-21)
(0.993671 0.0885025 3.43395e-22)
(0.991456 0.0860379 4.1769e-21)
(0.995118 0.0848545 3.69749e-21)
(1.01311 0.0461903 -1.0507e-21)
(1.01452 0.0458956 -4.16602e-22)
(1.01343 0.0446721 -4.49358e-23)
(1.13541 0.0191148 0)
(1.13645 0.0214031 -1.71128e-20)
(1.13821 0.0183012 -1.77011e-20)
(1.08729 -0.040273 -1.31899e-20)
(1.08761 -0.0389142 -1.71025e-22)
(1.00149 0.0047611 0)
(1.0015 0.00455407 0)
(1.00132 0.00440514 -1.59429e-21)
(0.999977 0.00089054 1.75507e-21)
(0.999962 0.00119584 -6.09717e-21)
(0.99998 0.000903459 -6.21334e-22)
(0.528729 -0.057844 7.13561e-21)
(0.492696 -0.0579357 -1.38406e-21)
(1.00076 0.00721625 -3.23324e-21)
(1.0008 0.00761743 -1.37742e-21)
(1.00092 0.00749749 9.252e-22)
(0.692432 -0.0776935 8.04498e-21)
(0.702848 -0.0786517 -3.48721e-20)
(0.994859 0.0138467 6.15444e-22)
(0.994382 0.0136199 2.11913e-21)
(0.994594 0.0143982 2.56216e-21)
(0.578001 -0.0545309 -1.5547e-20)
(0.540619 -0.0511001 -4.46529e-21)
(0.53725 -0.0531535 2.18563e-21)
(0.788223 0.0307639 0)
(0.779248 0.0363334 0)
(0.780511 0.0244654 1.93406e-20)
(0.760539 0.114768 1.42649e-20)
(0.759039 0.12726 -1.85006e-20)
(0.750121 0.118065 -1.67707e-20)
(0.716974 0.551219 -8.23018e-22)
(0.748047 0.561352 0)
(0.726595 0.594949 0)
(1.18819 0.0917952 0)
(1.18769 0.0871158 -1.08968e-20)
(1.19259 0.0880766 0)
(1.10953 0.109002 4.54143e-22)
(1.10645 0.111992 4.24493e-22)
(1.10537 0.107495 1.51411e-20)
(1.05926 0.0884773 -5.80518e-21)
(1.05643 0.0891385 1.60307e-20)
(1.05732 0.0858683 4.20888e-21)
(0.841455 0.0658032 -1.42811e-20)
(0.83368 0.0685073 6.0337e-21)
(0.835 0.05906 -1.05313e-21)
(0.907898 -0.00173051 -4.68452e-21)
(0.910681 -0.00469154 5.17846e-20)
(0.911909 -0.000781413 -1.18579e-20)
(0.991261 0.0104183 -1.11484e-21)
(0.9907 0.0110288 2.98118e-21)
(0.991404 0.0113161 -6.38998e-21)
(1.10277 -0.0716691 7.03069e-21)
(1.10493 -0.072275 6.92262e-21)
(1.1084 -0.0737863 9.94943e-21)
(1.00063 0.00690615 -9.06982e-22)
(1.00077 0.00682534 3.92085e-22)
(0.147871 -0.0315305 1.82279e-20)
(0.121713 -0.0276959 -6.12756e-21)
(0.134818 -0.0285861 2.50284e-20)
(1.0609 -0.0134895 -2.62876e-21)
(1.06174 -0.0142408 2.61281e-21)
(0.314142 -0.00513904 -6.60065e-21)
(0.289136 -0.0024187 -2.31422e-20)
(0.317697 -0.00471549 -1.25531e-20)
(1.00822 0.000894062 0)
(1.0086 0.00087831 3.05178e-22)
(1.0078 0.000505438 0)
(0.999993 0.000640932 3.18211e-21)
(1 0.000299803 -3.35498e-22)
(0.999998 0.000328003 -3.68099e-21)
(1.02062 0.00264345 -3.15008e-21)
(1.0203 0.00280252 -7.38517e-23)
(1.02022 0.00248639 8.08669e-22)
(0.696317 0.190321 3.91406e-21)
(0.712725 0.197986 -4.29765e-20)
(0.695846 0.212027 -7.92161e-20)
(1.03678 0.0242204 -8.79086e-22)
(1.03765 0.0249472 0)
(1.03793 0.0240869 1.85604e-21)
(0.890619 0.0140386 1.44154e-20)
(0.889237 0.00946186 -2.48419e-20)
(0.894595 0.0106757 1.1239e-20)
(1.13455 0.0159702 0)
(1.13239 0.0191134 1.76393e-20)
(1.1378 -0.0136671 1.07797e-20)
(1.13655 -0.0112966 -1.70153e-20)
(1.13506 -0.013744 -3.23232e-20)
(0.0902787 0.118976 -1.22551e-19)
(0.0897681 0.154593 -5.20133e-20)
(0.119408 0.133399 -6.57828e-20)
(1.00318 0.000713521 0)
(1.00347 0.000647996 0)
(1.00341 0.00100282 0)
(1.08208 0.0155056 -4.56867e-21)
(1.08307 0.0164676 -2.6023e-21)
(1.08354 0.0149523 -1.00095e-20)
(0.965952 0.00776112 7.3064e-21)
(0.964753 0.0063913 -8.86975e-21)
(0.964338 0.00844584 0)
(0.0839275 0.0890954 2.6292e-20)
(0.0506386 0.121359 -2.38778e-20)
(0.904791 0.00133534 -2.32555e-20)
(0.903698 -0.00313083 7.43722e-22)
(1.0128 0.0476756 2.20646e-21)
(1.01156 0.0462301 -4.84202e-22)
(1.08218 0.0372522 -1.58202e-20)
(1.08145 0.0392363 -5.25285e-22)
(1.08385 0.0389267 -4.56259e-20)
(1.10884 -0.0592631 0)
(1.10781 -0.0576573 0)
(0.994369 0.028868 -1.67366e-21)
(0.994447 0.0274898 0)
(0.995461 0.0284759 -4.97752e-21)
(1.06807 0.0434321 -2.2796e-22)
(1.07007 0.0444354 0)
(1.0681 0.0457551 0)
(1.03566 0.0243257 3.60005e-21)
(1.03586 0.0234703 -8.83546e-22)
(0.642612 0.0593727 -5.51004e-21)
(0.490468 0.0420082 5.47398e-20)
(0.549621 0.0462801 1.22211e-19)
(1.02112 0.0400523 0)
(1.02113 0.0419428 -5.57449e-22)
(0.00479445 0.0012336 -1.67606e-20)
(1.00147 0.0049459 -1.15765e-23)
(1.00165 0.0051127 -1.16124e-21)
(0.379558 0.0878751 -8.89683e-20)
(0.403155 0.0574988 -1.02245e-19)
(1.15616 0.392891 3.17236e-20)
(1.12096 0.366021 3.15881e-20)
(0.866742 0.285244 -5.48708e-20)
(0.995734 -0.00140059 6.9572e-21)
(0.995274 -0.00128859 3.21995e-21)
(0.98773 -0.00255528 -8.50929e-22)
(0.988489 -0.00257866 -1.12269e-20)
(1.14881 -0.0504733 -7.35922e-21)
(1.14667 -0.0516716 -3.00311e-20)
(1.14946 -0.0530551 -5.97517e-21)
(1.05792 0.132507 4.36893e-21)
(1.06311 0.13253 -1.12433e-22)
(1.05968 0.138368 0)
(0.996812 0.0024532 6.08352e-21)
(0.996513 0.00291388 6.70385e-21)
(0.531357 -0.0736283 1.44751e-20)
(0.494565 -0.0703643 -8.40677e-21)
(-0.100696 -0.0144359 -2.81678e-21)
(-0.0753961 -0.0179718 2.00003e-20)
(-0.0833567 -0.0169277 3.3449e-20)
(0.995509 0.0140447 3.04284e-21)
(0.995265 0.0131136 2.76664e-21)
(0.0907282 0.18946 1.44983e-19)
(0.125592 0.207938 7.84088e-20)
(0.0928637 0.228137 5.13947e-20)
(1.08261 -0.0456131 -9.68901e-22)
(1.08204 -0.0450632 1.89204e-21)
(1.08283 -0.0447314 2.89668e-21)
(-0.100374 -0.00847708 -1.60325e-20)
(-0.0755171 -0.0131277 4.72095e-20)
(-0.0907578 -0.00884387 -1.41707e-20)
(1.05168 0.0264886 3.20012e-21)
(1.05297 0.0270231 5.41506e-22)
(1.05184 0.0279921 0)
(0.548636 -0.0428849 -6.94396e-21)
(0.545995 -0.0453685 1.42313e-20)
(0.584294 -0.0467036 -1.54047e-20)
(0.999923 0.00179666 3.85766e-21)
(0.999867 0.00208779 -3.58702e-21)
(0.999888 0.00213608 2.26458e-22)
(1.00004 0.00294606 0)
(1.00005 0.00323396 -6.60563e-21)
(1.00007 0.00288305 0)
(0.996139 -0.00105149 -5.85354e-21)
(0.389434 0.114337 3.20138e-20)
(0.400166 0.144455 7.74445e-20)
(0.421369 0.120212 6.26429e-20)
(0.178234 -0.0364883 -1.05837e-20)
(0.165166 -0.0357204 -3.82179e-20)
(-0.0617198 0.0188656 7.5713e-20)
(-0.104909 0.0157848 2.98549e-20)
(-0.0930879 0.0154857 1.04078e-19)
(1.05032 0.0260524 -4.86616e-22)
(1.05144 0.0251901 -5.07682e-22)
(1.00033 0.00409021 -1.2837e-22)
(1.00039 0.00402028 2.21155e-21)
(1.00028 0.00371737 9.18927e-23)
(1.16796 0.419256 -4.18855e-20)
(1.23189 0.438768 6.25994e-20)
(1.08054 0.0145386 -5.62992e-21)
(1.08035 0.0162863 1.04556e-20)
(1.02089 0.0025525 -5.55544e-21)
(1.02097 0.00285833 -3.20636e-21)
(0.00575482 -0.0267713 0)
(-0.0227193 -0.0235691 -8.1216e-21)
(-0.00927866 -0.0245751 2.3894e-20)
(1.17417 0.125311 0)
(1.16837 0.127457 -4.72274e-20)
(1.1718 0.131647 -1.89156e-20)
(1.02221 0.0235523 2.05626e-21)
(1.02257 0.0228089 4.08007e-21)
(1.02161 0.0227538 1.95786e-21)
(0.973346 0.0499073 0)
(0.971275 0.0510575 0)
(0.973696 0.0523947 1.46697e-21)
(1.21074 0.43713 -1.24636e-19)
(1.11034 0.419169 -4.78716e-20)
(0.373871 -0.00102251 1.38082e-19)
(0.402638 -0.00821067 -1.34121e-19)
(0.379736 -0.0356186 -1.10851e-19)
(1.12376 -0.0477456 -5.88562e-21)
(1.12562 -0.0479228 -3.6308e-20)
(1.12464 -0.0497536 -2.84528e-20)
(1.13575 -0.00440492 -3.5426e-20)
(1.13838 -0.00430545 -2.21588e-20)
(1.13704 -0.00204885 -4.9789e-20)
(1.08599 -0.0517775 0)
(1.08538 -0.0522734 2.24118e-20)
(1.0852 -0.0517848 0)
(0.594718 0.126024 2.33511e-20)
(0.614659 0.111589 -4.28985e-21)
(0.616507 0.137862 -4.44041e-20)
(1.01072 0.00553919 4.50689e-23)
(1.01116 0.00564618 -1.4659e-22)
(1.01097 0.00602426 8.96801e-22)
(0.840844 -0.00577231 1.64794e-20)
(0.8442 0.00159055 -3.98737e-20)
(0.848367 -0.00512227 0)
(0.680078 0.183592 7.47897e-20)
(0.697976 0.175121 -6.06332e-21)
(1.05894 0.0210525 5.58202e-21)
(1.06014 0.0208244 -5.48745e-21)
(1.05914 0.0195973 7.00566e-21)
(1.01567 0.0121453 -2.9314e-22)
(1.01572 0.0115947 -8.10243e-22)
(1.01625 0.0121233 -6.58951e-22)
(0.481154 -0.0616274 1.70233e-20)
(0.470354 -0.0612945 -1.90272e-20)
(0.551351 -0.0632503 4.154e-20)
(0.819786 0.488177 -1.52529e-20)
(0.791846 0.506231 8.29468e-21)
(0.830623 0.514029 -5.75252e-21)
(1.1388 -0.0153685 -1.48178e-20)
(1.14012 -0.0132619 1.65102e-20)
(1.01606 0.045531 2.80245e-24)
(1.01595 0.0472377 -1.52657e-22)
(1.10817 0.121665 -3.28139e-20)
(1.10462 0.124344 1.65574e-20)
(1.10927 0.126536 7.92172e-22)
(-0.142788 -0.00940482 6.77503e-21)
(-0.174839 -0.0087468 3.34648e-21)
(-0.161009 -0.0089661 -1.06585e-20)
(0.33147 -0.00760233 2.18626e-20)
(0.307798 -0.00470029 2.21914e-21)
(1.08956 -0.045373 3.09693e-21)
(1.08878 -0.0456691 4.42777e-21)
(1.08938 -0.0462184 1.85377e-20)
(0.480964 -0.0632758 -4.02397e-21)
(0.412767 -0.0613564 1.3848e-20)
(0.948986 0.00544491 -1.86241e-21)
(0.947561 0.00741737 -3.90523e-21)
(0.946911 0.00466756 7.18525e-21)
(0.0881146 -0.135676 -9.76206e-20)
(0.099387 -0.105701 0)
(0.0609396 -0.110328 7.57725e-20)
(1.00057 0.0128832 -2.48935e-21)
(1.00062 0.0135127 4.48622e-21)
(1.00027 0.0131655 3.19181e-21)
(0.180988 0.0922978 6.92044e-20)
(0.211066 0.0738459 6.06214e-20)
(0.212224 0.109019 0)
(0.189431 -0.00735751 2.40047e-21)
(0.197567 -0.00950324 0)
(0.210491 -0.0131087 -2.12027e-20)
(0.907226 0.00929846 -5.06791e-21)
(0.90436 0.0124959 0)
(0.908954 0.0130413 1.60692e-20)
(1 0.000970705 -5.57196e-22)
(0.999985 0.000955082 -2.62032e-22)
(1.15074 -0.0494734 0)
(1.14852 -0.0485164 1.16101e-20)
(0.14956 -0.00983155 0)
(0.170218 -0.0140684 9.38531e-21)
(0.162342 -0.0134303 2.87127e-21)
(0.76245 0.102959 1.21008e-20)
(0.774072 0.111694 3.55631e-20)
(1.00481 0.000630329 -1.56616e-22)
(1.00503 0.000917229 -1.1318e-21)
(1.00513 0.000534898 -6.86795e-22)
(0.97335 0.0472802 -3.43781e-21)
(0.975593 0.0486294 0)
(1.03285 0.0271926 -3.99653e-21)
(1.03356 0.0280699 2.07803e-22)
(1.03251 0.0280953 -1.60823e-22)
(1.0045 0.000643762 -7.62577e-23)
(1.00438 0.000315066 3.49995e-22)
(1.01764 0.00194248 -1.08778e-21)
(1.0179 0.0017852 9.78965e-22)
(1.01758 0.00165937 -8.4661e-22)
(0.345751 -8.00976e-06 6.58406e-20)
(0.270271 -0.0308369 -5.28026e-21)
(0.258948 -0.0280688 1.16826e-21)
(0.24817 -0.0247813 -4.21503e-21)
(0.950566 0.00311329 3.20729e-21)
(0.951522 0.00588091 3.77309e-21)
(1.03848 0.0256482 0)
(1.03731 0.0258532 -2.07935e-21)
(0.999966 0.000862854 4.51217e-21)
(0.999996 0.00059029 3.91997e-21)
(1.2691 -0.00130429 1.52731e-21)
(1.27516 0.000288754 -3.93646e-22)
(1.25148 -0.00933197 -8.06228e-21)
(0.739195 -0.0819548 -1.05533e-20)
(0.681549 -0.0776029 4.03989e-20)
(1.09207 0.126622 1.21719e-20)
(1.0877 0.123756 0)
(0.57818 0.137184 -2.47857e-20)
(0.578628 0.109221 9.54117e-20)
(0.995227 -0.000826837 -7.38727e-21)
(0.994778 -0.00122494 6.97857e-21)
(0.90584 0.0053271 -4.917e-21)
(0.910076 0.00653827 -8.31208e-22)
(1.0978 -0.0715458 0)
(1.09593 -0.0706464 0)
(1.09574 -0.0694062 1.10746e-20)
(1.02418 0.0129468 -1.36386e-21)
(1.0241 0.0134934 2.32351e-21)
(1.02344 0.0129767 -3.31633e-21)
(0.962894 0.0196119 -6.69202e-22)
(0.960727 0.0203014 9.77514e-21)
(0.961508 0.0177244 -5.80289e-22)
(0.663282 0.187454 -5.33513e-20)
(0.643024 0.1937 1.62708e-20)
(0.661493 0.210339 -5.10763e-20)
(0.987493 -0.0018197 1.36758e-20)
(0.986942 -0.00241743 -6.07369e-21)
(0.738067 -0.0758366 1.30759e-20)
(0.660246 -0.0715783 1.10164e-20)
(0.733142 -0.0747595 1.88902e-20)
(0.809495 0.593132 6.23177e-22)
(0.81694 0.563734 2.21411e-21)
(0.782219 0.565091 2.67745e-21)
(0.967235 0.00941801 7.53858e-21)
(0.967837 0.00728281 -4.24047e-21)
(1.02285 0.0109256 1.78844e-21)
(1.02288 0.0114523 -6.38365e-22)
(1.02225 0.0109647 5.95094e-22)
(1.05404 0.0955613 7.55464e-22)
(1.05051 0.0959814 -6.3589e-22)
(1.05296 0.0997205 -6.07699e-21)
(1.11171 -0.0212605 0)
(1.11308 -0.0228587 -1.22763e-20)
(1.11321 -0.0202245 0)
(0.112007 -0.156916 -4.71102e-20)
(0.0726388 -0.166182 -1.43872e-19)
(1.10559 -0.0423849 6.2877e-23)
(1.10702 -0.0431317 1.39625e-21)
(1.10535 -0.0437528 -1.31297e-22)
(1.0205 0.177187 0)
(1.02358 0.172431 2.14726e-21)
(1.02798 0.176478 0)
(1.07561 0.0621449 0)
(1.07358 0.0640366 0)
(1.07291 0.0611763 3.50296e-22)
(-0.0262867 0.0511714 -5.35292e-21)
(-0.0458682 0.0578422 -1.28768e-19)
(-0.0788735 0.0501283 -5.74091e-20)
(1.05303 0.132994 -3.3407e-21)
(1.05586 0.128249 -7.03898e-22)
(1.12363 -0.0887812 0)
(1.14363 -0.0855936 -7.52408e-21)
(1.14594 -0.0847236 -7.7421e-21)
(-0.13215 -0.00577222 -3.61724e-20)
(-0.108287 -0.00900711 -2.28019e-20)
(1.28481 0.00108533 -4.09713e-20)
(1.24718 0.00116084 1.15768e-20)
(0.940949 0.0409811 -1.81162e-21)
(0.938133 0.0425354 7.58728e-21)
(0.938049 0.0389357 2.81085e-21)
(0.78915 -0.0325819 -1.28579e-20)
(0.783462 -0.0241004 4.72463e-20)
(0.777587 -0.0350944 3.95391e-20)
(0.99999 0.00227165 -5.07681e-21)
(1.00001 0.0021961 2.55818e-22)
(0.999977 0.00187372 -2.94949e-21)
(1.12153 -0.0481815 4.78723e-20)
(1.12268 -0.0460653 1.97855e-20)
(1.0906 -0.0451298 1.32261e-20)
(1.08972 -0.0443983 3.96055e-21)
(1.08631 -0.051298 0)
(1.0867 -0.0518113 1.97339e-21)
(1.05874 0.0222953 1.15395e-20)
(1.05776 0.021151 5.23481e-21)
(1.1238 -0.01372 -5.39967e-21)
(1.12239 -0.0153077 3.54823e-20)
(1.12481 -0.0159468 2.51409e-20)
(1.03085 0.0204897 -3.98539e-21)
(1.03162 0.0211076 5.50379e-22)
(1.03061 0.0213162 2.09032e-21)
(0.837698 -0.0120605 -1.23486e-20)
(0.833131 -0.00490164 1.39353e-20)
(1.04527 0.171433 1.95577e-21)
(1.0382 0.170847 3.13979e-21)
(1.04337 0.164908 -1.14623e-20)
(-0.283697 0.00146154 2.32221e-20)
(-0.300888 0.0027543 3.03531e-20)
(-0.269975 0.00127717 -2.44638e-20)
(1.08695 -0.0469418 -6.488e-21)
(1.0873 -0.0476696 1.85984e-20)
(1.08777 -0.0469691 1.66069e-20)
(1.0118 0.0538115 5.61074e-23)
(1.0117 0.0555603 -1.46493e-22)
(1.00999 0.0543332 -1.45722e-22)
(0.841157 -0.0824293 5.62185e-21)
(0.832458 -0.0826282 4.82899e-21)
(0.903203 -0.0831315 1.0391e-20)
(1.01264 0.194766 8.22833e-22)
(1.00975 0.199642 -1.5977e-22)
(1.01742 0.199527 2.52592e-21)
(0.281509 -0.0312162 -1.76649e-20)
(0.297046 -0.034507 7.06956e-21)
(0.150176 0.0753431 1.21417e-20)
(0.150592 0.112729 6.80134e-20)
(0.752751 -0.0775591 -1.2084e-20)
(0.820021 -0.0783041 0)
(1.01152 0.0256064 4.26179e-22)
(1.01216 0.0262654 7.67009e-22)
(1.01132 0.0264286 1.13269e-21)
(1.17961 0.123933 -3.10922e-20)
(1.17603 0.119861 -5.61338e-21)
(1.11447 0.110513 0)
(1.11308 0.106024 -1.77624e-20)
(1.02486 0.0128695 -7.88601e-22)
(1.02417 0.0123728 3.23679e-23)
(1.0003 0.00417868 -3.42009e-21)
(1.00039 0.00449887 -2.76442e-22)
(0.935262 0.11297 -1.90771e-20)
(0.931432 0.109 -6.37494e-21)
(0.937469 0.108539 -8.70143e-22)
(0.623607 -0.0576065 -1.04666e-21)
(0.61965 -0.058269 -9.70575e-21)
(1.24731 0.13178 -2.60881e-20)
(1.25448 0.129766 2.05888e-20)
(1.25553 0.136589 -1.08241e-20)
(-0.00763242 0.0513476 3.00127e-20)
(0.064725 0.066998 1.01669e-19)
(1.11188 0.0401641 -1.68532e-20)
(1.11146 0.0426581 1.34601e-20)
(1.11406 0.0414615 1.59157e-20)
(1.09177 -0.0519489 0)
(1.09108 -0.0519758 0)
(1.09139 -0.0527435 0)
(1.11127 -0.074995 1.35495e-20)
(1.11438 -0.0764475 1.06696e-20)
(1.11745 -0.0771237 4.0078e-21)
(-0.0124096 0.0210263 -3.73737e-20)
(-0.0267671 0.0206617 -3.7209e-20)
(1.24231 0.174687 0)
(1.24253 0.168133 1.412e-20)
(1.25031 0.17195 7.69052e-20)
(0.999594 0.00745929 -5.45408e-21)
(0.999699 0.00711598 -1.25582e-21)
(0.999531 0.00698918 1.68249e-21)
(0.566987 0.047608 0)
(0.572481 0.0675509 -7.11411e-20)
(0.547815 0.0617625 0)
(0.796704 0.0274521 3.46221e-20)
(0.795782 0.0386044 -3.04497e-20)
(1.00934 0.000374417 6.93678e-22)
(1.00898 0.000369404 -1.20744e-22)
(1.02179 0.0241715 -4.3425e-22)
(1.02284 0.0243169 8.68646e-22)
(0.86749 0.45504 1.52795e-20)
(0.862163 0.427988 -3.54038e-21)
(0.889024 0.436618 -5.95989e-21)
(1.22707 0.48075 9.65439e-21)
(1.23137 0.461294 -1.80024e-20)
(1.15726 0.443603 2.35148e-20)
(1.07327 -0.00110623 6.43336e-21)
(1.07432 -0.00186688 -1.84489e-21)
(1.07462 -0.000563701 -2.12802e-21)
(1.003 0.000856562 -4.61728e-22)
(1.00299 0.000534501 5.39606e-22)
(1.11725 -0.0162678 2.03839e-21)
(1.11602 -0.0145238 1.79825e-23)
(1.11864 -0.0144937 -4.75057e-23)
(1.11049 -0.0227095 0)
(1.10999 -0.0202718 0)
(-0.117285 -0.0123383 -5.55887e-22)
(-0.124531 -0.0117336 -2.24982e-20)
(1.24233 -0.0385688 0)
(1.23863 -0.0410294 0)
(1.23146 -0.0382559 2.25565e-20)
(0.991751 0.0100267 -3.54438e-21)
(0.991285 0.0097997 -3.46673e-21)
(0.993297 0.0290557 2.3163e-22)
(0.994272 0.0299918 -1.01237e-20)
(1.13336 -0.00451727 -4.09013e-20)
(1.13436 -0.00673034 2.45626e-20)
(0.6003 -0.0638188 1.42615e-21)
(0.658009 -0.0658188 8.09334e-21)
(0.640743 -0.0659644 -1.51582e-20)
(0.964774 0.0187071 1.073e-20)
(0.964435 0.0210295 -5.30308e-21)
(0.517114 -0.0606327 0)
(0.507078 -0.0609729 -1.88436e-21)
(0.561735 -0.0636503 1.36114e-20)
(-0.173631 -0.00650816 -1.44123e-20)
(-0.147972 -0.00841638 -3.69178e-22)
(-0.167263 -0.0063898 0)
(1.09224 -0.0513046 -1.04552e-20)
(1.09271 -0.0522812 1.34482e-20)
(1.01521 0.0120738 1.93938e-21)
(1.01563 0.0125717 7.91863e-22)
(0.493781 0.382551 0)
(0.513565 0.417412 -3.12339e-20)
(0.460584 0.418484 -7.25796e-20)
(1.126 -0.00443938 -1.97735e-20)
(1.12849 -0.00454941 2.24404e-20)
(1.12717 -0.00229769 -1.20102e-21)
(-0.266702 -0.00362917 -9.50656e-21)
(-0.234689 -0.00662333 5.55014e-20)
(-0.252592 -0.00306196 5.13071e-20)
(1.00232 0.0173114 -1.10218e-22)
(1.00269 0.0177361 -1.706e-22)
(1.0023 0.0180773 -2.08369e-21)
(0.795418 0.081016 -4.5026e-20)
(0.748799 0.0787506 -9.89435e-20)
(1.01081 0.0248407 -7.32764e-22)
(1.01165 0.0247837 5.8008e-23)
(1.18408 0.0667035 2.3666e-20)
(1.18044 0.0646194 1.23491e-21)
(1.18046 0.0687756 4.26173e-21)
(1.00808 0.00116189 0)
(1.00787 0.000803482 0)
(0.120235 -0.0343881 -1.21658e-20)
(0.0950103 -0.0317124 -1.59655e-20)
(0.114555 -0.033151 -1.7802e-20)
(0.461257 -0.0606961 -1.27577e-21)
(0.450908 -0.0600415 -5.50852e-21)
(0.528807 -0.0612962 1.70943e-20)
(0.993106 0.0917327 4.76116e-21)
(0.996663 0.0905637 0)
(1.17426 0.474124 3.09865e-20)
(1.21671 0.485757 4.15781e-20)
(1.1847 0.455409 3.38347e-20)
(1.07836 0.0627958 0)
(1.07705 0.0600797 -6.84876e-21)
(1.01454 0.0119379 1.26031e-22)
(1.01467 0.0114141 5.49129e-22)
(1.09618 -0.0700093 0)
(1.10206 -0.0713425 1.38853e-20)
(1.08615 -0.0469497 -1.88878e-20)
(1.08657 -0.0462107 -2.76536e-20)
(1.10982 0.0389011 -4.38509e-20)
(1.1121 0.0377371 -7.00876e-21)
(0.715494 -0.076331 -2.29531e-20)
(0.668497 -0.0750305 5.29804e-21)
(0.737524 -0.0761763 -6.04387e-21)
(-0.182005 -0.00340488 2.53083e-20)
(-0.203214 -0.00276282 3.6257e-21)
(1.01178 0.00304668 -1.17896e-21)
(1.01217 0.00309951 1.01468e-21)
(1.01196 0.00268062 -1.00445e-23)
(1.06208 0.0875223 -9.68715e-21)
(1.06137 0.0911605 -9.19904e-21)
(0.0253871 -0.03006 -3.6561e-20)
(0.0388259 -0.0310096 2.99989e-20)
(-0.119238 0.0205589 2.93535e-20)
(-0.148286 0.0182228 -8.85505e-21)
(-0.122885 0.0210661 2.62733e-20)
(0.999975 0.00223771 6.57211e-21)
(0.999956 0.00260813 3.33173e-21)
(1.00572 0.00858616 -4.19081e-22)
(1.00611 0.00884154 -1.02088e-21)
(1.00588 0.00902688 -5.62344e-23)
(0.351116 -0.00397616 0)
(0.369064 -0.0065943 0)
(1.13096 -0.0500249 -1.85284e-20)
(1.12902 -0.0502762 -4.62436e-21)
(1.13003 -0.0522476 -4.35306e-20)
(1.00006 0.000130641 3.47852e-22)
(1.00003 9.98841e-05 -1.34522e-21)
(1.00005 0.000164022 2.6285e-22)
(1.08685 -0.0660187 5.64946e-21)
(1.08576 -0.0650424 -1.24273e-20)
(1.08873 -0.0647397 -7.78207e-21)
(1.17147 0.0111079 -2.09023e-20)
(1.17019 0.00785146 2.97611e-20)
(1.16766 0.0109762 4.64455e-20)
(0.798428 -0.0324364 -5.27749e-20)
(0.793932 -0.042135 -9.45238e-20)
(1.08842 0.105216 9.56526e-22)
(1.09138 0.108673 1.35766e-20)
(1.09199 0.103759 0)
(1.00001 0.00257854 5.56968e-21)
(1.00003 0.00218294 8.17286e-22)
(0.978917 0.205971 -6.05054e-21)
(0.980319 0.196428 -1.18899e-21)
(0.970702 0.200568 -5.56422e-21)
(-0.144198 -0.0068559 -1.24229e-20)
(-0.141609 -0.00597022 -2.56469e-20)
(-0.174459 -0.00250423 -2.97352e-20)
(1.03972 0.00419318 0)
(1.03995 0.00357345 0)
(1.04067 0.00408814 2.08503e-21)
(1.19563 0.138992 -3.60762e-20)
(1.19024 0.142349 2.49439e-20)
(1.19073 0.134763 4.72566e-21)
(0.56807 0.15471 -1.22187e-20)
(0.583425 0.175435 8.03998e-20)
(0.553599 0.180658 3.18655e-20)
(1.03213 0.0262865 7.65185e-22)
(1.03316 0.0261841 -5.74414e-21)
(0.994572 0.0262632 0)
(0.993597 0.0265751 0)
(1.10183 -0.0362255 0)
(1.10318 -0.037178 2.85491e-21)
(1.10152 -0.0376729 -6.31257e-22)
(0.383319 -0.011996 -5.69081e-21)
(0.368445 -0.00967493 0)
(0.366673 -0.00986407 1.36908e-20)
(1.10414 -0.0419238 4.54025e-24)
(1.1058 -0.0410325 -1.00715e-20)
(0.938139 0.117355 -9.14563e-21)
(0.932587 0.118447 6.80526e-21)
(0.975896 0.0928673 -6.59731e-21)
(0.973267 0.0965563 -3.66193e-22)
(1.00005 0.000283484 3.20012e-23)
(1.00005 0.000246428 -1.1781e-21)
(1.00002 0.000166189 -1.15038e-21)
(0.129453 -0.0062508 0)
(0.137371 -0.00681809 -1.4262e-20)
(0.626925 -0.0369835 -3.33595e-21)
(0.715249 -0.0400886 -2.38871e-21)
(0.709668 -0.0376023 -8.39081e-21)
(1.08061 -0.0610016 -4.56959e-21)
(1.08277 -0.0616891 1.54416e-20)
(1.08591 -0.0613769 3.39489e-21)
(1.01402 0.0118617 -5.89714e-22)
(1.01447 0.0123972 -1.36274e-21)
(-0.155538 -0.0101488 3.88196e-20)
(-0.127817 -0.0132451 -3.23073e-20)
(-0.139223 -0.0116246 -3.01789e-20)
(0.0207255 -0.0102818 0)
(0.0261433 -0.00888349 0)
(0.00218904 -0.00564312 0)
(1.0862 -0.0884051 0)
(1.09927 -0.088244 9.10189e-21)
(0.546289 -0.0429539 -4.35687e-21)
(0.517576 -0.0426179 -8.08394e-21)
(1.08315 -0.046001 -1.16186e-21)
(1.08246 -0.0462396 -3.57032e-21)
(0.99999 0.00297812 -3.74713e-21)
(1.00614 0.000708678 2.55952e-23)
(1.00582 0.000755669 -7.33305e-23)
(1.0062 0.0011156 3.26984e-22)
(1.13394 0.0138904 1.03603e-20)
(1.13134 0.0137529 1.13415e-20)
(1.13307 0.0114298 -2.54206e-20)
(0.046033 -0.0253491 1.93453e-20)
(0.0274795 -0.0216334 1.47327e-20)
(0.0212597 -0.0214148 -3.31055e-21)
(1.15697 -0.0269215 -8.81458e-21)
(1.15904 -0.0251112 1.838e-20)
(1.15952 -0.0286104 2.27125e-20)
(1.06604 0.0426406 -7.64299e-21)
(1.06786 0.0414588 -6.31082e-22)
(1.24208 -0.0372361 -1.27239e-20)
(1.223 -0.0441159 0)
(1.07675 -0.0329669 1.02891e-20)
(1.07592 -0.0323396 -1.4323e-22)
(1.01758 0.00108688 1.97824e-21)
(1.01754 0.00135077 0)
(1.0178 0.00122014 0)
(0.992119 0.0291325 0)
(0.984143 0.0234094 0)
(0.890817 0.0101107 -6.91494e-20)
(1.0019 0.00465062 -2.73404e-23)
(1.0019 0.00444845 9.97337e-23)
(1.00171 0.00432778 -1.6582e-21)
(0.840901 -0.0833016 -1.53408e-20)
(0.771284 -0.0818003 1.48625e-20)
(1.07211 -4.84831e-05 9.0628e-21)
(1.07174 -0.00137567 2.98757e-21)
(1.00006 0.000101233 2.18623e-21)
(1.00009 0.000159665 1.46157e-22)
(0.999309 0.105317 -3.79017e-21)
(0.998102 0.109905 -5.25484e-21)
(0.995343 0.105553 -7.66547e-23)
(1.01868 0.18285 5.62883e-22)
(1.01428 0.177574 -1.08914e-22)
(0.778182 -0.0143507 1.37652e-20)
(0.788445 -0.0138031 0)
(1.09004 -0.066969 1.11448e-20)
(1.08817 -0.0666984 2.27518e-20)
(0.996762 0.139138 1.31545e-21)
(0.997017 0.145165 -7.99428e-22)
(0.991108 0.141149 7.32943e-22)
(1.0425 0.00987986 9.25679e-21)
(1.04309 0.0106871 9.24374e-22)
(1.04204 0.0104872 -2.24192e-21)
(1.233 0.0140324 -2.4864e-21)
(1.23566 0.0179906 5.3671e-20)
(1.24793 0.0149358 5.23892e-20)
(0.754835 -0.0773642 -1.77567e-20)
(0.689396 -0.0772292 -4.28887e-21)
(0.549722 -0.0421819 2.93768e-21)
(0.554932 -0.0407122 4.88147e-20)
(1.0019 0.0170502 5.32764e-21)
(1.00226 0.0167282 -1.80781e-22)
(1.07248 -0.0883113 -1.14064e-20)
(1.10954 -0.0873167 -3.25556e-20)
(1.06293 -0.0878422 -5.29077e-20)
(0.99849 -0.000173385 -1.96034e-22)
(0.998385 7.91815e-05 -4.12542e-21)
(0.998207 -0.000188846 -5.90671e-21)
(1.04213 0.00907685 6.2225e-21)
(1.04318 0.00919676 4.66918e-21)
(1.0005 0.0122126 -1.19347e-21)
(1.00085 0.0125529 -6.24648e-21)
(0.839477 0.623086 2.97452e-21)
(0.792352 0.629402 -3.2241e-21)
(1.00155 0.000898323 -7.63462e-22)
(1.00168 0.000782806 2.95422e-22)
(1.00144 0.000705979 -3.33939e-22)
(1.18741 0.0686788 -2.69367e-20)
(1.18754 0.0646372 0)
(1.08485 0.107565 1.57821e-21)
(1.08511 0.102705 8.32094e-21)
(1.03003 0.0197975 -2.77797e-21)
(1.03103 0.0196398 -5.15007e-21)
(1.11829 -0.0180848 2.08456e-21)
(1.11571 -0.0174281 1.54118e-20)
(1.03493 0.0564274 1.15507e-21)
(1.03586 0.0547712 0)
(1.03715 0.0565541 -3.08381e-21)
(0.11932 0.0546463 -3.71601e-20)
(0.106369 0.0379924 6.07737e-21)
(0.104106 0.0710718 6.59714e-20)
(1.0162 0.189476 5.63391e-22)
(1.00893 0.189851 1.04581e-22)
(1.16515 0.121859 -2.14222e-20)
(1.1623 0.127932 -1.76206e-20)
(1.02895 0.0141481 3.13131e-21)
(1.02959 0.0147763 -2.03876e-21)
(1.02967 0.0139659 -5.92735e-21)
(0.995494 0.0259351 0)
(0.994678 0.0251368 -4.27277e-21)
(-0.164117 -0.0070095 -5.5822e-20)
(-0.187204 -0.006297 2.18988e-20)
(-0.192809 -0.00635404 0)
(0.1271 -0.00985378 -1.25803e-20)
(0.118523 -0.00897313 -5.61971e-21)
(0.141111 -0.0138877 -5.86135e-21)
(1.00058 0.0141569 -3.30918e-22)
(1.00093 0.013867 6.05146e-22)
(1.00681 0.00065449 3.60949e-22)
(1.00724 0.000883858 9.62048e-23)
(1.00684 0.00116131 2.19333e-23)
(0.984079 0.0282037 4.23884e-20)
(1.10149 0.0378253 -1.91765e-20)
(1.01457 0.0242405 -1.00425e-22)
(1.01478 0.0251847 4.59582e-23)
(1.01558 0.024736 -1.01687e-22)
(-0.0476556 -0.0211969 -4.61596e-20)
(-0.0661507 -0.0188918 -3.65643e-20)
(1.02824 0.0136998 3.00617e-21)
(1.02821 0.0144739 4.15005e-21)
(0.125363 -0.0353706 7.14385e-21)
(0.146033 -0.0371542 1.26636e-20)
(1.04638 -0.00342155 5.81193e-21)
(1.0459 -0.00403054 2.78914e-21)
(1.04676 -0.00404038 -1.58986e-21)
(1.21073 0.314113 2.85095e-20)
(1.19857 0.313471 7.01049e-20)
(1.20378 0.326103 4.55284e-20)
(1.09759 0.00363599 -2.49164e-20)
(1.09756 0.00553239 -2.56615e-20)
(1.09953 0.00454551 2.09542e-20)
(0.0977796 0.303216 0)
(0.0960872 0.262995 -8.385e-20)
(0.131293 0.280549 0)
(0.94412 0.0421957 -1.43559e-20)
(0.943713 0.0388076 9.88166e-22)
(1.2849 0.00746556 -7.16246e-20)
(1.29133 0.00746067 -6.78195e-21)
(0.516586 0.289432 6.28653e-21)
(0.489714 0.299886 -5.16717e-20)
(0.517787 0.32199 1.28684e-20)
(1.00325 0.105587 1.23731e-21)
(1.00089 0.102269 1.74777e-21)
(1.1319 -0.0484528 1.79244e-21)
(1.13305 -0.0504239 0)
(0.952274 0.501966 -6.42679e-21)
(0.96956 0.519775 -7.71781e-21)
(0.940392 0.525199 5.09643e-21)
(0.995651 0.0420498 -1.72833e-22)
(0.994189 0.041525 -2.71445e-21)
(0.994559 0.0433342 -1.97279e-21)
(0.214075 -0.0309101 1.41664e-22)
(0.18807 -0.0264894 -7.5283e-21)
(0.199208 -0.0274739 -1.11142e-20)
(0.582051 0.0364624 0)
(0.56136 0.0274695 4.09673e-21)
(0.0368455 -0.0134295 0)
(0.0182554 -0.0105963 2.92178e-20)
(0.922841 0.0151363 -1.04925e-20)
(0.919241 0.016314 1.51649e-20)
(0.922009 0.0191256 -1.01772e-20)
(0.249601 -0.00649809 5.112e-21)
(0.225369 -0.00301238 4.25681e-21)
(0.252853 -0.005736 2.32352e-20)
(1.06516 0.0866475 0)
(1.06749 0.0899453 0)
(1.06848 0.086444 0)
(-0.0875302 -9.18233e-06 -6.40933e-20)
(-0.0564718 0.000271816 -6.21472e-20)
(-0.0448713 -0.00102004 3.36275e-20)
(0.522868 0.258334 -5.16947e-20)
(0.548307 0.281438 -5.55836e-20)
(0.927341 0.344484 4.46854e-21)
(0.910856 0.342213 0)
(0.920032 0.359627 0)
(0.945355 0.349802 4.26883e-21)
(0.93691 0.331566 5.23167e-22)
(0.55749 -0.0685004 4.20223e-20)
(0.52777 -0.0685718 1.70843e-21)
(0.999744 0.00227184 -9.67275e-23)
(0.999675 0.00252575 -5.99489e-22)
(0.999706 0.0025764 -5.94854e-22)
(1.05203 0.170313 -3.4989e-21)
(1.04914 0.177147 2.22709e-21)
(-0.106136 -0.0112475 -1.09909e-20)
(-0.120529 -0.0104044 -1.87031e-21)
(0.982647 0.0278431 0)
(0.981692 0.0286914 0)
(0.981401 0.0270138 -4.37326e-21)
(1.00075 0.0713973 1.21813e-21)
(1.00156 0.0690685 -4.32216e-21)
(0.99885 0.0694942 -1.52614e-21)
(0.0435172 -0.00993302 0)
(0.0508679 -0.00990942 1.64951e-20)
(0.844517 0.473779 1.33909e-20)
(0.876809 0.481593 1.59046e-20)
(1.01548 0.0506762 -1.38044e-22)
(1.01542 0.0522457 0)
(1.01725 0.0517553 -2.12801e-22)
(1.10974 -0.0736646 1.3667e-21)
(1.10745 -0.0734072 -1.51967e-21)
(0.681865 0.54669 3.24032e-20)
(0.707823 0.518351 -3.31368e-20)
(1.00879 0.0049324 2.20002e-22)
(1.0092 0.00518551 -4.39412e-22)
(1.00914 0.00471428 -6.00997e-23)
(0.181385 -0.00731292 -8.26417e-22)
(0.161327 -0.0035709 1.14616e-20)
(1.10463 -0.0736158 -1.58313e-20)
(1.11012 -0.074774 -2.24747e-20)
(1.10065 -0.0727156 -2.47535e-22)
(1.00188 0.00484818 1.69827e-21)
(1.00208 0.00498743 3.31024e-24)
(1.00935 0.0126991 2.98811e-24)
(1.00886 0.0123388 -2.22328e-22)