/*--------------------------------*- C++ -*----------------------------------*\
| =========                 |                                                 |
| \\      /  F ield         | OpenFOAM: The Open Source CFD Toolbox           |
|  \\    /   O peration     | Version:  v2012                                 |
|   \\  /    A nd           | Website:  www.openfoam.com                      |
|    \\/     M anipulation  |                                                 |
\*---------------------------------------------------------------------------*/
FoamFile
{
    version     2.0;
    format      ascii;
    class       volScalarField;
    location    "500";
    object      ddt0(omega);
}
// * * * * * * * * * * * * * * * * * * * * * * * * * * * * * * * * * * * * * //

dimensions      [0 0 -2 0 0 0 0];


internalField   nonuniform List<scalar> 
13851
(
0.00193838
-6.03261e-05
-6.00241e-05
0.0302737
-1.81446e-05
-8.67393e-05
-7.39008e-05
-3.36589e-05
0.0026395
-2.42376e-06
-0.00070815
-6.53019e-06
-4.64288e-06
0.0877537
-0.000355034
0.00033519
-0.0111743
-1.52527e-05
-0.0256862
0.00197986
-0.000359212
-4.20996e-05
0.203058
-3.27831e-06
0.0833361
-0.00105677
-0.0404429
0.0674537
-0.0366007
-1.60461e-05
0.0722846
-7.40831e-05
-1.00855e-05
0.121914
-0.000253325
-0.0512946
-1.31027e-06
-0.532221
0.049458
-1.30843e-05
0.118862
-0.0341158
0.0803695
-0.0124486
-0.0110786
-1.25913e-05
-3.31856e-05
-0.00105459
-2.62372e-05
-2.9608e-06
0.0455534
-3.6849e-06
-7.63578e-05
-0.000285879
0.019158
-1.33572e-05
0.0011446
0.107205
-0.363569
-0.0548782
-6.94022e-06
-0.0335539
-1.93472e-06
-2.83611e-05
-0.01002
-0.0150443
-0.0760027
0.0149182
-1.22152e-05
0.0226226
0.0371485
-0.000351216
-7.06501e-06
-0.0801161
-0.00033142
-1.93335e-05
0.00384347
-1.9438e-05
0.409967
-9.41824e-06
-1.25544e-05
-0.0189052
-0.000238405
0.0702083
-0.0577698
0.056857
-4.56769e-05
0.0248302
-4.25326e-06
0.0707124
-2.85129e-06
-7.70941e-05
-0.0331373
0.0378454
0.0442757
-0.0137164
-1.1955e-05
-0.000142517
0.0448216
-0.00247579
-0.000163271
-0.00696501
0.0048148
-8.48085e-06
-1.24683e-05
-0.000327224
-1.26353e-05
0.0448229
-7.73279e-05
-1.54736e-05
-0.000138917
-1.22044e-05
0.00471145
-0.00034252
-0.00162896
-0.000252529
-1.79155e-05
-3.38685e-05
0.0324797
0.00794922
-0.00449481
-1.46422e-05
-1.21998e-05
0.0127433
-0.0112522
-0.00636731
-1.19612e-05
0.000194867
0.0923312
-0.000431821
-4.15407e-05
-0.000150104
-1.23568
0.105136
-0.000715711
0.0461293
0.00238153
0.0468554
-3.43102e-05
-0.000483287
-0.0207756
-1.20239e-05
-3.622e-06
0.00250192
-0.128574
-1.69202e-05
-1.97432e-05
0.0391146
-0.0167349
-0.000167379
-0.000741846
0.00439929
-0.000344563
-0.0128912
-5.88902e-06
-1.77917e-06
-8.9822e-06
0.0447074
-0.000434297
-5.57338e-05
-4.6829e-06
-0.0427859
-0.000322181
-0.00124506
0.0688239
0.0117509
0.0130791
0.0444315
-6.33845e-05
-0.0125736
-6.5695e-06
-2.06336e-05
-0.000350397
-1.4762e-05
0.0464946
-0.081846
-0.00375996
-2.07848e-05
-0.000336233
-0.00390792
-0.00795978
-0.0248307
-6.76268e-05
-0.000462059
-0.034082
-0.0171095
-0.000813225
-5.80854e-05
-6.30956e-06
-1.39971e-05
-0.439115
-0.000430615
0.203951
-9.11475e-05
-1.60877e-05
-0.000144355
-0.000759515
-2.06123e-05
-1.72581e-05
0.0147337
-0.0182881
0.0443907
0.0963368
-0.000360833
0.778329
0.043819
-4.92892e-06
-0.000558128
0.00484121
-7.18571e-05
0.000542286
-1.263e-05
-0.0199596
-2.26875e-06
-0.000268754
-2.48586e-05
-2.69235e-06
0.00270363
-1.9832e-05
0.0220869
-2.06541e-05
0.000239762
0.144349
0.0466919
-1.69365e-05
-0.000587459
-2.57877e-06
-0.00508666
-7.88106e-06
-0.000245441
0.230677
1.78691e-06
-7.26794e-05
-1.11785e-06
0.0921941
-1.61728e-05
-0.977155
0.0869761
-0.000608878
-2.72495e-06
1.21618
-0.044137
-0.00931318
1.58363e-05
-0.000231018
0.0133208
0.000273281
-0.000340243
-0.014499
-1.6548e-05
0.00414657
-0.00308428
-2.75962e-05
-0.000104836
3.94128e-06
-0.0437841
0.00101816
-1.534e-05
0.00557639
-3.34449e-06
0.00213325
-0.012732
-0.00011628
-0.000313124
-0.000932512
-7.15941e-06
-0.0023509
-0.00127277
-0.0453963
-5.592e-06
-1.77098e-06
8.86582e-06
0.0224564
0.0338499
-0.00037278
-1.50685e-05
-0.00827478
-0.0141587
-0.000732793
-0.000319649
0.0198943
0.0211209
-0.000112781
-0.000298136
-0.170133
-1.36964e-05
-7.84895e-06
-0.000598034
-0.000304547
-1.59622e-05
-3.95812e-06
-8.37209e-06
-2.41198e-05
-0.00024421
-8.27686e-06
0.00519408
-0.000362837
-1.20095e-05
-0.0480274
0.00117898
-4.88642e-06
0.00145357
0.0597162
-1.22622e-05
-3.69032e-06
-0.000356918
-0.0606053
0.130002
-0.000401767
-1.92244e-05
-0.03189
-6.63424e-06
-0.000483228
0.050401
-0.220773
-5.31935e-05
-1.23509
-0.0202053
0.0477986
-0.000271458
0.00295121
0.0509277
0.0379722
0.178435
-1.7976e-05
-0.00938934
-0.0628929
0.0506883
0.0790466
-4.1418e-06
-0.000426805
-2.47501e-05
0.0327941
0.000623161
-2.97783e-05
-3.48722e-05
-7.56158e-05
0.041647
0.0376798
-1.36583e-05
0.0443067
-5.24829e-05
-0.000151215
-6.01689e-05
0.0536202
-0.00345829
4.77512e-05
-2.32083e-05
-6.4994e-05
-0.0719818
-6.47589e-06
-0.0138979
-0.000113749
-0.000357256
0.000297526
-3.64567e-06
-1.27989e-05
-0.00907262
-0.00293057
-0.00423697
-0.176854
-0.073618
-1.73307e-05
0.0841376
-0.000169099
-1.67941e-05
-0.272768
-8.2834e-05
0.0373271
-7.19194e-05
-0.00123601
0.00551754
-1.23649
-0.00444464
-0.0106276
-2.14015e-05
-0.134151
0.0263247
-0.000170165
-0.00595228
-0.00020456
0.0843372
-0.000284542
-0.000584512
0.000250747
-0.000608178
-1.70197e-06
-0.000101086
-0.000529118
-0.000334586
-1.33597e-05
-0.000394039
0.117371
-6.89959e-06
-0.000554604
0.00435645
-4.90206e-05
-3.31227
-0.00065385
0.117039
-7.93483e-05
-0.000972233
-0.0499219
-0.0135802
-0.000313649
-0.000889969
-0.0988363
0.11257
-8.66004e-06
-0.00901507
-0.000193859
-0.0012252
-1.43202e-05
0.0221257
0.106684
-0.26348
-6.543e-05
-0.000863059
-0.0127149
0.0298361
-2.0362e-05
-0.025788
0.0049341
-0.133338
-6.77789e-05
-0.0152151
-4.0759e-06
-1.51752e-05
0.020258
-0.0238775
-2.35896e-06
-6.13453e-05
-0.000547998
-1.72058e-05
0.0695516
-0.000391812
-0.000207929
-0.000112341
-2.17247e-05
-6.42304e-07
-1.50846
-1.20263e-05
-2.30245e-07
0.0200163
0.105261
-3.56305e-05
-0.0182496
-3.32355e-07
-9.02812e-06
-5.40854e-05
-0.0038077
-0.000661037
-1.19772e-05
-2.96622e-05
-0.00533013
-4.48239e-05
0.208521
-9.10667e-06
-0.000169521
-0.00510449
0.000226682
-3.21775e-05
-7.19323e-06
-0.000109181
-2.32323e-05
-0.369364
0.00921782
-0.000234148
0.00803058
-5.64299e-05
-6.99749e-06
0.0542461
-0.00220304
0.00056989
-1.00038e-05
0.0265292
-1.28212e-05
-0.734865
-8.93925e-06
-0.000155942
-0.00722845
-0.000361719
0.0565426
-0.027075
-0.404639
-1.47144e-05
0.00372564
-9.38016e-06
-0.0379764
-0.000636511
-0.000767876
-0.000199215
-2.15469e-05
0.00048026
-0.000381594
-1.72175e-05
0.0406386
0.0457299
0.219316
0.0409684
0.0153518
0.0294322
-0.0144839
-1.46252e-05
-1.08432e-06
0.909207
-1.41569e-06
-1.21546e-05
-1.76145e-05
0.0467469
-6.11698e-05
-1.13581e-05
-0.00549096
-0.000279768
-5.45991e-07
-0.0650996
-1.1668e-05
0.0970418
-0.110748
-9.55484e-06
-4.93405e-05
-0.0131172
-0.0707578
-1.59585e-05
0.150415
-0.51607
-1.86477e-05
0.0237416
-0.0123474
-0.000261174
-1.46631e-05
0.0208884
-0.0138135
-1.72316e-05
0.0146157
-1.19912e-05
-1.11424e-05
0.00814381
0.0798197
-0.000267645
-0.000653998
-1.22495e-06
-0.000832249
0.102297
0.0490646
-1.72737e-05
0.028113
-1.3242e-05
-1.20377e-05
-0.000316186
-0.000171036
-2.00969e-05
-1.96127e-05
0.0209223
-0.00162163
0.0249931
-5.31636e-05
-3.80255e-06
0.0204942
-2.67688e-06
-0.00450739
-0.000162043
-0.000328328
-0.000221971
0.00284276
0.0160432
-9.19649e-05
-0.0160067
-4.73377e-05
-0.000424696
-0.0288169
-0.00531767
-1.27155e-05
-8.15013e-06
0.00806617
0.0253353
0.0177026
-0.000828211
-7.83631
-0.000176133
-0.000268238
0.427972
-0.065798
-0.000589105
0.0822909
-0.00229756
-0.063318
-1.755e-05
-0.43406
-0.711644
-7.2925e-06
-0.0381162
0.0657989
-7.11375e-05
-0.000474655
-1.17478e-05
-0.0309863
0.0030795
-0.00961056
-1.25676e-05
-1.11183e-05
-1.04176e-05
-0.00027606
-1.11e-05
0.0451338
-1.14888e-05
-0.000786072
-1.4881e-05
-0.00114312
-9.02309e-06
-5.39726e-07
-8.06306e-05
0.021877
-0.000293345
0.0441708
-0.000156138
-1.37279e-05
-1.53162e-05
-0.000393539
-2.91367e-05
-0.000147078
-6.84275e-05
0.00011237
-0.549655
-9.91769e-07
0.0164295
-2.58212e-06
-0.00108148
-0.0130223
0.0107162
0.00345474
-0.183059
-0.00450233
0.0033401
0.0750174
-1.74343e-05
-0.0522383
-6.49366e-06
-0.000181919
0.022864
0.0355214
-1.82145e-05
-0.000207317
-2.032e-05
-0.063116
0.0314508
-1.20098e-05
0.0183124
0.0290479
-3.40444e-06
-3.48313e-06
-0.00106498
0.0268051
0.0190751
-3.61792e-06
-0.00348743
-4.06839e-05
-1.04236e-06
-0.924828
-0.00155298
0.000621941
-2.27028e-05
-0.00143101
-0.000464623
-0.00096004
-5.38702e-06
-1.50166e-05
0.000850939
-6.9796e-06
-0.000997936
-0.000372303
-0.000347908
-0.00249204
0.565085
-0.00920103
0.0222729
-0.0111935
-0.000673906
0.00666101
-0.000682813
-0.00124601
0.000547541
-1.4542e-05
-0.000253358
-0.00601532
-5.81719e-05
-9.68672e-06
-9.85927e-06
-0.00101115
-0.0343436
-0.000172281
0.076872
-1.54516e-05
0.0184477
-0.00347766
0.0609719
-0.000483809
-8.14111e-05
-6.0297e-05
0.0545676
0.00103391
-6.82941e-05
-0.035332
-2.03707e-05
2.84437
-0.000940781
-0.00135475
-0.000179052
-0.0266887
-4.19699e-06
-2.19291e-06
-4.94539e-06
-1.02441e-06
-0.0233124
-2.37098e-05
-0.379148
0.0191967
-0.000390371
0.0514169
0.0367555
-0.00203682
-0.0141795
0.000297541
-2.29385e-07
-1.7383e-06
-1.9433e-05
-1.54278e-05
-1.24319e-05
-0.000391742
0.00134632
-0.000299502
0.17382
-1.53582e-05
0.0023239
4.21225e-09
0.0255772
-0.000208854
-8.5936e-07
-9.32762e-07
0.0117322
-8.93068e-05
-0.0735829
0.0648562
-0.000462182
-0.000342456
-1.77013e-05
0.113907
-1.87208e-05
-6.08432e-05
-0.526388
-9.01468e-07
-1.20557e-05
-1.60011e-05
-0.000622589
-0.0180684
-0.000121729
-0.000188024
-0.00249018
0.0444085
4.61771e-06
6.05951e-05
-0.0429943
-2.16323e-05
-0.0489038
-7.99721e-06
-4.56096e-05
0.518103
-0.00119597
-0.0010278
-0.000878181
-0.000298477
-9.7819e-07
3.22594e-09
-0.000444471
-1.91581e-05
-1.04246e-07
-0.000191987
-0.019191
-1.67571e-05
0.00643977
-0.334526
-0.0689493
-0.00090835
0.0372571
0.00145785
-8.97421e-07
0.00126937
-1.39294e-05
-0.000104135
0.0043773
-0.0788768
-0.0558619
-0.0366796
-1.27308e-05
-1.31045e-05
-0.00139781
-1.42968e-05
-1.40057e-05
0.107426
-9.27355e-05
-0.00988687
-0.00109816
-0.00109438
-1.44242e-06
-1.61403e-05
0.0130685
-9.46531e-05
-5.29345e-05
-6.5267e-07
-0.00220478
-0.00161301
0.0785807
-4.47241e-06
-7.81658e-06
-0.0196775
-4.88833e-06
-0.000212213
-1.92039e-05
0.0454914
-2.91276e-05
-0.016169
-2.61715e-06
-0.0031831
-0.000323656
-0.00126199
-0.000185117
-7.2878e-06
-6.03485e-05
-1.62016e-05
-0.487281
-7.00421e-06
-0.0120056
-2.2232e-05
0.0177234
0.0462041
-0.000156275
-2.32009e-05
0.00729163
0.0161444
-9.86341e-05
-0.00115397
-2.31299e-06
0.000100074
-1.47537e-05
-0.00747292
-6.53174e-06
-1.61733e-05
-0.0846857
-0.000223091
-7.066e-06
-0.000283327
0.100662
0.00278673
0.0431115
-1.52923e-05
0.00340242
-5.25521e-06
-1.6586e-05
-7.49564e-06
-3.45785e-05
-2.9092e-06
0.00403833
0.0399394
-2.04762e-05
-1.16588e-05
-0.000266413
-1.22794e-05
0.0251584
-0.000470257
0.0304223
0.0537746
-5.8617e-05
-0.0013988
-7.23272e-06
-0.000353162
-0.000755993
-1.76882e-05
-5.96477e-06
-1.92393
0.033025
-0.000342568
-0.0652448
-0.0006635
-3.73797e-06
-0.000260441
-0.00122481
0.031288
-0.000223435
-0.187315
4.49041e-05
-4.68969e-06
0.228622
0.306112
-0.0222925
-0.64751
0.000208288
-1.60762e-05
0.0162693
-6.96077e-07
-0.853033
-5.64352e-05
-2.77045e-05
0.0334633
-1.5149e-05
-2.00661e-05
-1.25255e-05
-1.44017e-05
0.0446116
-0.00870135
-1.21694e-05
-0.000257745
0.0869293
-2.04677e-05
-0.105209
-1.10489e-05
-0.000935376
0.064313
-1.11048e-05
-0.0775816
-9.23921e-05
-0.000171669
-0.0253848
-1.52912e-05
-0.0135838
-0.00101621
0.121254
-2.2634e-05
0.00782555
-0.000160083
-0.016718
0.0202728
0.0239926
-0.000487899
-6.56442e-06
-1.30979e-05
-3.18166e-06
-0.000516086
-2.87174e-06
0.070235
-6.3147e-05
-2.18608e-05
3.88365e-05
-1.70081e-05
-1.4404e-05
-0.000145496
-6.92732e-05
-4.93153e-05
-5.57906e-05
0.0782325
-0.509896
-0.000162521
-0.000497195
0.0152921
-1.17325e-05
0.0409476
-2.11645e-05
-0.000213128
-6.63473e-06
-1.21064e-05
-0.000210409
-8.13095e-06
-1.31272e-05
0.0074218
-1.3705e-06
-0.00171986
-2.6015e-05
-0.0386899
0.379081
-0.00417784
0.00744763
-1.78027e-05
0.0470033
0.00242851
-3.74406e-06
-6.63343e-05
-1.06455e-05
0.0445847
-9.69211e-06
-0.00030678
-0.346652
-0.0057446
-0.00109453
-1.52078e-05
0.000949748
-0.527204
-0.00608438
-9.00984e-05
-1.36603e-05
-1.76016e-05
-0.000390911
-5.34961e-06
-0.0189958
-0.00595081
-1.11778e-06
0.00167186
0.0104778
-1.75177e-05
0.0708247
-0.0243888
-0.00104394
-2.30271e-05
-0.00489915
-0.000402715
-1.10536e-05
0.0220168
-2.20375e-05
-1.56065e-05
-1.04511e-05
-0.000291012
-0.000527577
0.0105356
0.0943321
-0.000523279
0.01272
-0.000317507
-4.71568e-06
-0.00279459
-9.71703e-06
2.41115
-1.73287e-05
-1.5051e-05
-1.88952e-05
-1.88005e-05
0.0271923
0.0197067
-0.0134181
0.0214645
-0.0353402
-2.32809e-05
-9.09137e-06
-2.59705e-05
-0.0165633
-1.73102e-05
-3.55996e-05
-0.000224338
0.119039
-0.183179
-3.20451e-05
-0.000169961
-0.000190713
0.00140535
-0.0524386
-1.89553e-05
-2.06846e-05
-5.17579e-05
-0.692529
-0.000194395
0.106171
-1.50749e-05
-7.80976e-06
-1.59084e-05
-1.11982e-05
-2.68644e-05
-0.00231941
-0.0663447
0.008161
0.000181582
-7.26242e-06
-4.00389
-2.32345e-05
0.0494716
-0.00281597
0.000173717
0.0325979
-0.0285018
0.0399739
-0.000797244
-0.000221648
-0.00164527
-0.000175516
-1.46077e-05
0.00234796
0.00733939
-1.62607e-05
-0.120287
-4.25198e-06
-0.0214718
-0.525394
-2.15296e-05
-1.48477e-05
-0.000359945
-0.0231424
-0.000235679
-1.00753e-05
-0.000162028
-6.66613e-06
-0.000106944
-0.00843908
-1.55704e-06
0.0151103
-0.0105211
-4.48585e-06
-0.000206048
-0.000528696
-7.17622e-06
-0.0761943
0.160218
0.0489241
-0.0260783
-8.19991e-06
-3.09216e-05
-6.61224e-05
-7.33004e-06
-0.0136824
-0.000248232
-1.05471e-06
-0.000822711
-9.5479e-06
0.0270508
-0.00032662
0.190395
-5.21496e-06
-1.92367e-05
-0.0088557
1.67817e-05
-0.000439342
-7.8045e-06
0.231475
0.00215224
-0.0761949
0.0296928
-0.0103327
0.00982854
-0.0283284
-7.3235e-06
-4.99423e-06
-1.73388e-05
-0.00547418
-0.000647379
-0.000479101
0.0144315
-2.17335e-05
-2.79292e-05
-1.38966e-06
0.0338921
-1.9597e-05
-0.000119636
-1.8044e-05
0.0106918
-1.33116e-05
-1.42493e-05
-5.68298e-06
-1.16843e-05
-1.06983e-05
0.000112724
-0.0157403
1.55466e-05
0.0305194
-4.46136e-06
-1.13787e-05
0.0875411
0.0604112
-0.0250602
-0.0128901
0.000895459
0.0224702
-1.61268e-05
0.000715615
-1.90559e-05
-3.32114e-06
-6.91502e-05
-0.00279817
-3.61646e-05
0.000211726
3.95184
-2.19783e-05
-1.33375e-05
-1.11036e-05
-0.00384933
-6.97637e-07
0.0153158
-1.76946e-05
0.000760425
-5.72877e-07
-1.98908e-05
-0.000102994
0.00266558
-4.93787e-06
0.0263476
0.0391669
0.0197148
0.0996412
-3.45497e-06
0.0318771
-0.272616
-3.82424e-06
-0.913056
-6.29364e-06
0.000840219
-6.27097e-06
-2.14282e-05
-1.48351e-05
5.71065e-07
-1.31731e-05
-0.000214841
-0.000437406
-1.58152e-05
1.05095e-07
0.0053254
-1.73414e-05
0.0329208
-1.12348e-06
-0.000183927
-0.000328106
-0.022417
0.354552
-2.46258e-06
-0.00293192
-2.25897e-05
-0.000251714
-0.00215436
-0.0194989
-0.000514264
-1.49745e-06
-0.00105017
-0.00448552
-0.000924869
0.00314058
0.000170569
-0.000535756
-0.000804724
-0.000676661
-1.22334e-05
-1.43366e-05
-0.0883082
0.00127497
-4.02916e-05
-1.06845e-05
-0.0625607
-1.35653e-05
-0.000319897
-9.50322e-06
2.33978e-05
-0.95049
-2.25041e-05
0.0301323
-8.74332e-05
-7.48849e-06
-0.00424127
-2.87702e-05
-0.000551209
-0.0333827
-0.000259739
-0.0773595
-1.65478e-05
-2.26159e-06
-0.00347755
-9.22745e-07
-1.99297e-06
-0.000162358
-0.000149247
-0.000393142
-0.000361298
-8.49136e-06
-0.000174254
-1.45791e-05
-7.18978e-06
-9.90564e-07
-3.59936e-06
3.02182
-1.68697e-05
-1.12815e-05
-0.0496598
-1.39076e-05
-1.19982e-05
0.0340328
-1.15746e-06
-0.0159881
-4.00397e-05
0.0212684
0.00198847
-0.000417162
-3.85186
-0.000396588
-0.117768
-2.0907e-05
-0.00308466
-6.83556e-05
-1.46284e-05
-1.37498e-05
-9.30947e-06
-0.000185483
-1.19626e-05
-0.000118636
-1.36097e-05
-2.05233e-05
-0.0477106
0.0432626
0.0192061
-6.7463e-05
0.00626376
0.0171426
0.0620985
-1.87979e-06
-0.000113997
-0.0604065
-1.9122e-05
-0.000220678
5.07865
0.00782448
-0.000143144
-0.000489295
-1.40428e-05
0.00913244
7.12403e-07
0.000144504
0.0232935
-1.05515e-05
-3.48356e-05
0.0390419
-0.000228417
-0.0118426
0.116344
-0.000770694
-1.08883e-05
-1.3749e-05
-1.99878e-05
0.0312673
-0.692246
-0.00531326
-0.000357877
-1.23939e-06
0.0366085
-4.03438e-06
-0.00275982
0.000700704
-4.65004e-05
-0.000329983
-6.38813e-06
0.072664
-0.0429358
-1.81687e-05
-0.00028654
-0.000661276
-3.43107
-0.000259624
-0.00084482
-0.0145252
-0.000322677
-0.463083
-0.000826443
-2.11724e-06
-0.000362692
0.0103683
0.0186814
-7.33754e-06
-0.317913
-0.000266403
-0.00092624
-1.23571e-06
-0.0118579
-0.000102413
-1.50516e-05
-1.37841e-05
-0.000165386
-0.000159928
-0.000863236
-1.7474e-05
-1.39763e-05
-0.000882636
-0.033276
-0.000444074
-2.14581e-06
-5.90574e-06
-0.000374249
-0.00391168
-2.95861e-06
-0.000418069
-0.0848367
6.65032e-05
0.0169759
-0.000523045
0.0554444
-0.00764105
-7.47956e-06
-0.824839
-5.73235e-06
-3.12041e-05
-0.000273959
-0.000244302
-0.000919054
-0.000613016
-1.75788e-05
-0.000117646
-0.000149079
-1.81011e-05
-2.14005e-05
-0.00214924
-8.82402e-05
-1.95597e-05
0.384171
-4.82614e-05
0.00022588
-9.94223e-06
-0.0376057
0.000845624
-9.00856e-06
-6.81017e-05
-3.02603e-06
-0.126326
0.00106845
-0.000275232
-0.016498
0.0036769
0.307804
-0.000433389
-0.116381
-1.22523e-05
-0.0471235
-3.56121e-05
0.000140356
0.270728
-0.0778703
0.0052521
-0.974895
-1.23369e-06
-0.158124
-1.183e-05
-0.00111146
-2.50005e-05
0.0253356
0.0166956
-0.000114938
-1.85744e-05
0.00364675
-0.00509731
-6.06828e-06
0.0324878
-5.89184e-07
-1.70171e-05
-8.84194e-05
-4.56745e-06
-0.000133908
-4.0374e-06
-1.83269e-06
-9.46644e-05
-0.0477097
-0.00034039
-0.000390227
-7.02792e-06
0.0452672
-0.0831694
-1.96999e-05
-0.0292931
-2.46086e-05
-1.44334e-05
0.0569685
-1.64134e-05
-1.32745e-05
-1.99343e-05
0.0365962
-6.34534e-06
-7.4764e-06
-0.000264052
-0.0113294
-1.91875e-05
-3.47675e-05
-7.04401e-05
0.38532
-0.000253732
-0.000241512
0.00185232
-5.78283e-07
0.010695
-2.47778e-05
-0.0428755
-0.000115968
-1.21184e-06
-0.000144598
-0.000428562
-9.03463e-06
-1.89371e-05
4.41194e-05
-0.0436144
-2.33157e-05
-0.0723784
-4.65236e-06
-2.40226e-05
-0.000422387
-8.47321e-06
-1.68294e-05
0.0545566
-7.61374e-07
-0.000301742
-0.00287829
0.0409105
0.356994
-1.77e-05
-1.42969e-06
-1.64769e-05
-1.00149e-05
-5.75489e-06
-5.91573e-06
0.0273025
-4.2018e-06
-0.574918
-0.00247912
-3.49938e-05
-1.72032e-05
-0.000136882
-0.00238716
-0.0231061
0.000163072
-0.000410811
-1.89266e-05
0.00494483
0.00076176
-0.000248563
-0.000440938
-0.000801681
-0.00130279
-0.482702
-0.000467047
-0.0140751
0.00115002
0.116908
-6.86797e-05
-1.28856e-05
-0.000213882
0.00173972
-1.55478e-05
-2.37299e-05
-0.00248233
-4.47875e-06
-1.31876e-05
-7.81785e-06
-2.3892e-05
-4.90677e-05
-1.66036e-05
-0.00581709
-1.98458e-05
0.0136913
-8.98733e-06
0.00809755
-1.77209e-05
-0.000977306
-0.000958899
-6.40292e-06
0.0341549
-6.40558e-06
-3.95577e-06
-0.000386392
-1.43894e-05
-2.71606e-05
-1.54074e-05
-0.0618889
-2.38888e-05
-0.000273239
-0.028389
0.0237556
-4.55069e-05
-0.529736
0.395594
6.24478e-05
-1.77183e-05
-3.08927e-05
-0.001035
-0.000400639
0.0217777
-1.67936e-05
0.00191009
-1.27539e-05
-0.00216307
0.186869
-0.000170644
0.0233629
-3.12583e-05
-0.000192205
-2.16115e-05
-0.0438396
-0.000132975
-1.23512e-05
-3.32771e-05
-0.00445552
-2.44102e-05
-4.62423e-06
-1.01335e-05
0.0506876
-3.01216e-06
-3.7372e-05
0.0798671
-2.65294e-05
-7.86629e-06
0.000380124
-3.47788e-05
0.00136898
-2.70098e-05
-4.57762e-06
-1.58139e-05
-0.000191868
-2.03571e-05
-1.73646e-05
-0.00067566
0.0507244
-8.49372e-06
-9.10198e-07
-0.0144527
-2.21448e-05
0.033582
-5.46206e-05
-0.0136358
-1.32831e-05
-1.97336e-05
-1.99989e-05
-0.0259716
0.0908198
0.000179058
-0.000105618
0.000339894
-1.27266e-05
-6.12704e-07
-0.0540769
-1.24995e-05
-0.000974825
-3.48635e-05
-0.000590424
-8.11435e-07
0.0122946
-1.55192e-05
-0.000562801
-3.20939e-05
-0.111688
0.00579224
-1.58357e-05
-0.000110519
-0.0026026
-0.000708277
0.00364485
0.0272715
-0.0020336
-6.43569e-06
-0.000202047
-0.00101886
-0.017145
-2.16979e-05
-0.000476984
-2.18895e-05
-1.25595e-05
-0.00542359
-0.0359784
-0.000421238
0.00262339
-0.0143657
-0.000104242
0.0192615
-1.52161e-05
-1.5346e-05
0.000397962
-0.0295278
-0.00403039
-0.00196716
-0.492249
-1.42773e-05
-0.0253184
-0.017319
0.235994
-6.58363e-06
0.0277816
0.0667024
0.0623753
0.420365
-0.00131357
-0.00114491
-0.000131531
0.00429651
4.37857e-05
-1.24799e-05
-0.363015
-1.44823e-05
-2.24015e-05
-0.0287865
-5.25054e-06
-0.000574048
-0.000358533
-1.41525e-05
-0.0888549
-6.03574e-06
0.0108237
-0.000577387
2.18073e-05
-0.0543534
0.0440255
-0.00150593
-1.79103e-06
-7.53091e-06
-0.000443014
0.00139079
-2.08713e-05
-0.000263085
0.000316407
-0.0020695
-1.0835e-05
-0.00226646
-2.03176e-05
-0.000533127
0.0177391
-0.793023
-2.88923e-06
0.00151463
0.0316721
-1.00022e-05
-1.41601e-05
0.242396
-0.0281558
-3.86294e-05
-5.7629e-05
-7.24112e-06
-0.00460413
-9.4844e-05
-0.0411297
-0.00018195
-1.14914e-05
-6.25253e-06
0.0128429
-5.83131e-05
-0.185203
0.042947
-1.38671e-05
-6.20127e-06
-7.23354e-05
-5.18559e-06
-4.7513e-05
-1.44267e-05
-2.28735e-05
-1.13078e-05
-1.07359e-05
-2.14067e-05
-2.85658e-06
-0.00060397
0.100795
-2.19137e-06
0.050869
-0.0189289
-2.44289e-05
-0.0182952
-0.0034995
-0.00223667
-1.34553e-05
-4.67199e-05
-0.000109466
-0.00469828
-0.000162717
-2.28466e-05
-6.25192e-06
0.022466
-0.000165722
-0.0636833
-1.357e-05
-2.26776e-06
-7.98134e-06
-0.000932377
-9.07295e-06
-0.000329122
-0.000782397
-0.0287762
-1.17953e-05
0.0129646
-1.78177
0.0114383
-1.53266e-05
-0.000290519
0.0859527
-1.62074
1.39265
-1.41333e-06
-1.24802e-05
-0.00448775
-0.603559
-0.0988998
-0.000322593
-0.0301457
-5.72603e-06
-1.50912e-05
-0.000113628
-4.54334e-06
-5.13686e-07
0.000159846
-2.37785e-06
-0.00485017
-1.37761e-05
0.0696014
0.109453
0.0298386
0.0176824
0.00228727
-3.77096e-06
-2.96838e-06
0.0546689
-1.51292e-05
-1.49768e-05
-2.08218e-05
0.000727407
0.140115
0.0241544
-1.4288e-05
-1.99924e-05
-1.89404e-05
-8.63229e-05
0.0543441
-1.50647e-05
0.0279174
0.0648298
-3.15843e-06
-4.43191e-07
-0.00553606
-0.000937298
-4.54133e-05
-4.12309e-06
0.0218754
0.0266672
-1.56738e-05
0.00246363
-2.38811e-06
0.0138264
-0.370123
-4.98607e-05
0.377123
0.00398897
-0.0221052
-1.42669e-05
-2.16793e-05
-3.10717e-06
-1.44226e-06
0.0724403
-1.2099e-05
-0.00381968
-0.054768
0.0154143
-2.27579e-05
-0.000409176
-0.0306595
-0.000264038
0.0529671
0.030658
-2.83889e-05
-9.01365e-05
-9.13298e-05
0.000190837
0.0192809
-2.27025e-05
-0.0204066
-0.0001756
-0.000473914
-1.41887e-05
-2.05234e-05
-0.00599825
-0.000237645
0.0385095
-4.83153e-06
-0.000327883
-2.0189e-05
-0.000565842
-5.97707e-05
0.0408884
-0.240902
0.00792889
-0.000635377
-1.05944e-05
-1.96988e-05
-0.000160038
-0.00575127
0.0179058
0.0438339
-9.45508e-06
0.0226676
0.00369423
0.0665407
-0.000128003
-0.000229307
-0.00023501
-1.47665e-05
-0.00497014
-7.00207e-06
-0.000208363
-0.0192836
0.0938192
0.24802
0.1304
-4.32785e-05
-0.000338189
-1.58194e-05
0.0624693
-4.16992e-05
-0.0724722
-1.83065e-05
0.02106
-2.25473e-05
-8.0169e-06
-0.00019571
9.7542e-05
-2.74323e-05
-1.23589e-05
-0.0153348
-0.0005665
-1.18724e-05
-0.000179302
-0.0230525
-0.0402468
-3.23061e-06
0.0272447
-2.71372e-05
-0.000321607
-0.000277631
-2.8455e-05
-0.000341056
-8.12213e-06
-0.444862
0.00185011
-0.000138424
-5.0566e-06
-0.0122435
-0.000255431
-1.7941e-05
0.0471894
-0.259312
-0.00111059
-1.79732e-05
0.279394
-2.40365e-06
-0.0046036
-0.000148895
0.00109926
-0.835701
-0.0115555
-0.00214768
0.12673
-0.000262894
0.000324931
-1.38367e-05
0.0833705
-0.00308506
2.43788e-05
-0.00175911
-4.7451e-06
0.00982873
-0.0012514
-0.0312809
-0.00534983
0.0662002
-0.0159633
0.381309
0.0284995
0.000224139
4.39677e-05
-4.35103e-06
-1.49078e-05
-2.25283e-05
-0.000143622
-4.70787e-05
0.00173935
0.0244878
-1.03979e-05
-1.96758e-05
-0.000522279
-0.00722735
-0.000128703
-3.32403e-05
0.0434993
-4.58065e-05
-0.000637542
-1.26714e-05
-0.00514219
-2.40956e-05
0.00561207
0.000395238
-0.000207242
-0.000424006
-4.28037e-06
-0.000125163
-0.0383635
-0.000334601
-1.22441e-05
-2.68567e-05
0.0398868
0.0563704
-0.0518866
-1.61083e-05
-0.000353558
0.119617
-1.66772e-05
-1.12937e-05
-1.25558e-05
0.122322
0.0054089
-0.000113033
-0.000147489
-0.000107689
-0.0103933
-0.00217296
-0.00487221
-0.000123869
-0.000199659
-2.37366e-05
0.00333298
-0.000339034
-4.28515e-06
-0.0698808
0.0272561
0.0864199
-0.0414671
0.0530009
0.0933058
0.0551229
-4.18795e-06
-1.72835e-05
-0.0403566
0.0420472
-0.123878
-1.18708e-05
-0.000287505
-7.28677e-07
-9.35681e-06
0.0305939
0.0877981
-0.000371855
-8.32581e-06
-0.0635669
0.000176606
-0.000293993
-0.0263119
-0.112156
-0.0276224
-2.56927e-05
0.0440495
0.0350192
-0.00148332
-0.000275587
-0.000309886
-2.21508e-06
-1.20063e-05
-0.00023489
-0.000253877
-2.69341e-05
-0.000441639
-0.000131335
-2.38306e-05
0.0304478
-0.00729669
-4.25799e-05
-0.000498728
0.0125688
0.00163478
-8.24203e-07
-0.0252695
-0.0296552
0.00419516
-0.000235034
-1.54699e-05
-0.000148998
-6.25067e-05
-3.47969e-05
-2.72182e-05
-0.000362937
-0.00023135
-0.000532185
0.000952021
-4.74297e-06
-1.97652e-05
-0.014751
-0.0284483
0.0422053
-0.0177419
-0.00102524
-2.33775e-05
-1.414e-06
-0.000148424
-1.68386e-05
0.0077028
-2.17826e-06
-1.0842e-06
-1.78484e-05
-0.0764673
-0.586152
-1.07091e-05
-0.000607271
-7.33109e-05
-9.90159e-06
-0.000134186
0.000875755
-0.000330447
-0.000207559
0.0307689
-0.000101331
0.0276084
-0.000197489
0.0439933
-0.000113947
-2.46604e-05
-1.44017e-05
-6.07519e-05
-0.00305459
-2.25416e-05
-5.29824e-06
-0.000120198
-0.000355762
0.019904
0.368308
-0.0266898
-7.33467e-07
-0.520535
-0.000137764
-0.000149963
-4.24879e-06
-0.000421199
-1.78085e-05
-0.0127018
-0.0429008
-0.000150611
-3.55473e-06
-0.0369559
-8.41919e-06
0.0119111
0.0340104
0.0380832
-2.27147e-05
-0.00473325
-0.0296766
-0.365222
0.00390196
-0.000308108
-1.3209e-05
-0.000198008
-1.67074e-05
0.17324
-2.14212e-05
-0.000141257
-0.0665208
0.0519344
-1.36293e-05
-1.23381e-05
0.0327997
-0.00022292
0.178355
0.000826127
-3.75946e-06
-0.000240913
-0.00136296
-0.000549185
-0.00112044
-0.000149114
-0.182835
-5.5759e-05
-2.78627e-06
-1.2681e-05
-0.00965041
-8.49611e-06
-0.00489146
-1.51545e-06
-1.24717e-05
-0.00016621
-0.000109595
-1.43856e-05
-7.38402e-06
-0.00015079
-0.0736921
-0.000511863
-0.000230797
-1.52738e-05
-0.000315842
-1.04185e-05
0.0028093
-0.000150776
-0.000305557
-0.00421734
-0.000167418
-0.00111563
-0.000843301
-1.60279e-05
-0.000524129
-0.062189
-0.0298755
-1.7671e-05
2.76028
0.00120542
-1.02631e-05
-4.97637e-06
-0.0204373
-0.0283257
-0.000115691
-0.0115821
-0.0125837
-1.90257e-05
-0.000930585
-2.38557e-05
-9.11852e-05
-0.000356999
-0.0504289
0.0200911
-0.0257248
-0.0716778
-0.0598411
0.0307907
-4.62888e-05
-0.000730145
-2.26871e-06
0.0382463
0.0310119
-5.14036e-06
-1.52364e-05
-0.0233197
-1.89344e-06
-3.67014e-06
0.0529227
0.0197233
-0.00940573
-0.000113009
0.0134469
-1.60558e-05
-0.0183156
-0.00420646
-6.59385e-06
-0.331601
-1.14897
0.0398946
-0.0255786
-0.00880336
-0.0176459
-1.21265e-05
-7.39188e-06
-0.00037459
-0.000384391
-3.52496e-06
0.00266531
-3.53503e-06
-0.0104317
0.0584924
-0.000534662
0.00529716
-0.0129968
0.0422651
-0.0103203
0.0065601
-0.0182089
0.0226
-8.69726e-05
-2.32285e-05
0.0206555
-6.10899e-05
-1.57327e-05
-0.0268428
-9.28393e-06
0.00920509
-2.20412e-06
0.134104
-9.50433e-05
-7.28465e-06
4.88832
1.34013e-05
-0.000287139
-0.0129997
0.0630268
2.02087
-0.000156497
-0.000651041
-1.4281e-05
-0.000468312
0.000360592
-0.000455186
-5.94399e-07
0.0320496
-0.000368264
-0.000101647
-0.0220516
-0.000289962
-0.000103898
-0.00208535
-0.000459513
-0.000551836
-7.83454e-06
0.000172815
-1.37753e-05
0.000838242
-0.875253
0.00222756
-1.59334e-05
-0.000223459
0.0241409
-4.07262e-05
-0.000408017
-0.000255126
-0.000268326
-0.0248471
-0.000333058
-8.42429e-06
-0.753029
-1.59287e-05
-0.0454375
-5.40769e-06
-3.09983e-05
0.000626308
-0.0573435
-9.36306e-05
-0.0928036
-0.046792
-0.00024404
-1.64639e-05
-0.00996109
-0.000252278
0.0368384
-5.47807e-06
2.31453
0.00154064
-0.00025088
-0.000138013
-0.00404441
-0.000180354
-0.00955674
-0.000348013
0.000315941
-4.14112e-05
-1.99447e-05
1.40639
-6.44298e-06
-0.000113832
-3.21766e-05
-0.00154205
-0.000125662
-0.00040013
-0.0175882
-1.96462e-06
-0.00452811
-2.92878e-05
-4.06894e-06
-5.94506e-06
5.03237e-08
-0.000127155
-1.0949e-05
-0.00108552
0.0268724
-0.00048648
-0.000320647
-8.47973e-05
-1.2549e-05
-0.460479
-1.09015e-05
-0.0438988
0.0327024
-0.00013059
-0.00374935
-0.000144369
-0.00014241
-3.00412e-06
-2.51558e-05
0.00267173
-0.000213308
0.0326805
-0.000580995
0.0480906
-0.00106799
-5.58114e-06
-2.08593e-05
-0.0284044
-1.17695e-05
-0.000168022
0.00932534
-0.00816663
-4.39036e-05
0.0888399
-7.86382e-07
-4.69339e-05
-3.58101e-07
-1.28242e-05
-0.0176819
-0.00149811
-1.30075e-05
-0.000288235
-0.00032642
-0.00036935
-0.000683855
-0.020374
-0.0144368
-0.000227885
-0.000143607
-0.00011519
-1.89623e-05
-0.000707645
-0.0677686
0.0407333
-0.014988
-0.000243489
0.0590862
-0.00103219
-2.7886e-05
-8.60801e-06
-0.000911861
-5.03886e-06
-0.000295039
-0.00462142
-8.93397e-06
-1.51155e-05
-0.0433022
0.0152448
-0.000624611
-0.202401
-3.10075e-06
0.0126738
-0.0002296
0.0431165
-0.000550076
-1.18384e-05
-0.0108999
-0.00670694
-4.76277e-06
-0.00170563
1.02462e-07
-0.00429653
-0.000104815
-0.0155892
-0.0412344
0.00074918
0.043553
-1.01635e-05
0.108782
-5.57637e-06
-7.57575e-05
-1.34326e-05
-0.000247772
-9.5849e-06
-0.00146608
-0.045184
-0.388624
-0.000291699
-9.86419e-05
-0.00937723
-1.2958e-05
-3.00658e-05
-3.54938e-05
-0.149302
-8.75482e-05
0.117158
-0.0428022
0.00249259
-8.13761e-07
-0.00558029
-0.000137271
-0.00555268
-0.000110804
0.0198329
-9.86558e-06
-2.37631e-05
-1.03308e-05
-1.25958
-1.45383e-05
-6.87258e-06
-0.021072
-7.7013e-06
-0.0035559
0.00232731
-1.70386e-05
0.0249257
-0.000168851
0.126711
-1.32564e-05
-0.882712
-1.70498e-05
-0.00319379