/*--------------------------------*- C++ -*----------------------------------*\
| =========                 |                                                 |
| \\      /  F ield         | OpenFOAM: The Open Source CFD Toolbox           |
|  \\    /   O peration     | Version:  v2012                                 |
|   \\  /    A nd           | Website:  www.openfoam.com                      |
|    \\/     M anipulation  |                                                 |
\*---------------------------------------------------------------------------*/
FoamFile
{
    version     2.0;
    format      ascii;
    class       surfaceVectorField;
    location    "100";
    object      ddtCorrDdt0(Uf);
}
// * * * * * * * * * * * * * * * * * * * * * * * * * * * * * * * * * * * * * //

dimensions      [0 1 -2 0 0 0 0];


internalField   nonuniform List<vector> 
20580
(
(0.0308455 0.0130242 -3.85976e-19)
(0.0319905 0.014489 -2.88336e-18)
(0.0296064 0.0142407 2.32483e-18)
(0.000273614 -0.00273611 9.89265e-20)
(0.000206461 -0.00282588 1.69447e-18)
(0.000345396 -0.00285623 -4.04261e-18)
(0.000369244 -0.00259373 1.48582e-18)
(0.000228962 -0.00260755 6.84225e-19)
(0.0148283 -0.0105856 7.88765e-18)
(0.0144362 -0.010259 -1.19294e-17)
(0.0151514 -0.0104137 -1.39778e-18)
(-0.000185427 4.8357e-05 1.11382e-18)
(-0.00016596 4.50338e-05 -1.01668e-18)
(-0.00017036 2.66616e-05 -9.20492e-19)
(-0.000302942 -0.00436108 1.34831e-19)
(-0.000523979 -0.00448386 2.58815e-19)
(-0.000497101 -0.00421416 2.78715e-18)
(-9.38645e-05 0.000251064 2.79341e-19)
(-0.000153374 0.000335859 1.66575e-19)
(-0.000306942 -5.54183e-05 1.88872e-19)
(-0.000328966 -5.11115e-05 2.21954e-19)
(-0.000367112 -3.03557e-05 3.65965e-19)
(-0.00106643 0.0415389 9.79506e-19)
(0.00450517 0.0411626 -4.86568e-18)
(-0.00726198 0.0365736 -6.159e-18)
(-0.000404114 0.0022641 -5.28219e-18)
(-0.000371727 0.00226875 1.76936e-18)
(-0.000396917 0.00224169 4.63131e-18)
(-0.0117151 -0.0140404 -7.76746e-19)
(-0.0111262 -0.0133083 2.69573e-17)
(-0.012143 -0.0131724 1.48181e-17)
(-0.000367187 0.00097768 -4.28442e-19)
(-0.000392418 0.000991975 -5.30413e-19)
(-0.000393344 0.00102147 8.72388e-20)
(-0.000914834 0.00206009 -1.5985e-18)
(-0.000961609 0.00203935 4.7371e-18)
(-0.000953775 0.00201899 -4.84113e-18)
(-0.114623 0.00251963 -2.37752e-18)
(-0.119099 -0.00065347 -2.16839e-18)
(-0.116694 0.00375883 1.50683e-18)
(0.00592042 0.000280993 -7.23998e-19)
(0.0063149 0.000187458 -7.05516e-19)
(0.00595687 -0.000152853 3.88252e-18)
(-0.00705732 0.0148244 4.59711e-20)
(-0.00710388 0.0142478 -2.17483e-19)
(-0.00767004 0.0148431 -3.73809e-19)
(0.0471451 -0.00935969 5.33584e-18)
(0.0451951 -0.0104061 -2.04806e-17)
(0.0477134 -0.0102721 2.3266e-17)
(-0.000545275 -0.00132134 1.5472e-19)
(-0.00051501 -0.00132548 -9.62729e-20)
(-0.000569121 -0.00138247 -2.50109e-19)
(0.051023 -0.0477827 -4.61421e-18)
(0.0496926 -0.051431 5.09402e-17)
(0.0591759 -0.0512924 9.18725e-18)
(0.0319846 0.0113848 2.78195e-18)
(0.0299541 0.0116681 4.65644e-18)
(0.00846444 -0.00272796 2.29166e-18)
(0.00794601 -0.00305603 -3.0372e-18)
(0.00785332 -0.00235849 -2.99105e-18)
(-0.00505854 -0.00182207 -5.95438e-19)
(-0.00502539 -0.00160433 5.02927e-19)
(-0.00483281 -0.00176299 8.95957e-19)
(0.0507977 -0.0259667 2.79391e-17)
(0.0529299 -0.0272842 7.46651e-18)
(0.0546616 -0.0270794 7.46214e-18)
(-3.03709e-06 1.15495e-05 1.10275e-19)
(-5.11504e-06 1.69016e-05 -1.58532e-18)
(-2.95955e-06 9.70085e-06 -2.12925e-18)
(-0.0584321 -0.0371008 5.07437e-18)
(-0.0546017 -0.0345167 -5.15824e-17)
(-0.0543412 -0.0336762 -1.02201e-17)
(-0.000855994 0.0103154 1.38847e-20)
(-0.00121923 0.010547 -2.84432e-19)
(-0.000809982 0.0107261 6.42835e-19)
(-0.00135689 0.0374587 -2.35081e-18)
(-0.00183149 0.0390977 -1.58343e-18)
(-0.00329142 0.0378377 -1.35052e-19)
(0.00946269 -0.0446165 6.41702e-18)
(0.0306731 -0.0351395 2.04636e-18)
(-0.0235238 -0.0536186 2.94983e-18)
(0.0831368 0.00619775 -4.93435e-19)
(0.0830727 0.00406572 -1.05666e-19)
(0.0814034 0.00594004 -2.98715e-19)
(-0.000485293 -0.000776773 1.15423e-20)
(-0.000515214 -0.000772389 -8.3014e-20)
(-0.000492252 -0.000746133 2.61951e-19)
(0.0230164 -0.00544608 -2.63512e-17)
(0.0246447 -0.00572678 -5.67491e-18)
(0.02274 -0.00516922 -3.26143e-17)
(-2.25553e-05 0.000273918 8.9023e-19)
(-4.61769e-05 0.00018409 -1.96064e-18)
(0.0258509 0.0177541 2.4743e-19)
(0.0244744 0.0187266 2.31175e-18)
(0.0241686 0.0165895 3.46069e-18)
(-0.127879 0.0113993 -1.98642e-18)
(-0.132716 0.00466114 1.0328e-18)
(-0.122049 0.0117796 -2.77578e-19)
(-0.00665324 -0.0102224 -2.02388e-18)
(-0.00628661 -0.0105984 -2.45947e-18)
(-0.00697635 -0.0106395 -5.13041e-18)
(0.0883523 -0.00354135 -4.85998e-19)
(0.0884057 -0.0028755 2.13714e-18)
(0.0896306 -0.00564176 -7.44474e-18)
(-9.91809e-07 6.50354e-06 9.02962e-19)
(-2.76684e-06 1.36465e-05 1.47038e-18)
(0.0162718 -0.0145984 3.09127e-17)
(0.0168446 -0.0142353 -2.09112e-18)
(0.0148059 -0.0117865 2.07575e-17)
(0.0368292 -0.0158626 -3.68742e-18)
(0.0339463 -0.0171757 5.55493e-17)
(0.0291788 -0.0166936 -5.92999e-18)
(-0.00189435 0.000137998 4.21063e-18)
(-0.00185273 0.000113752 3.4715e-19)
(-0.00190923 5.95229e-05 5.46426e-18)
(-0.114202 -0.0576422 -6.79078e-20)
(-0.119648 -0.0602306 1.6742e-17)
(-0.118345 -0.0554724 -1.83985e-18)
(0.0830672 0.00824805 2.63314e-18)
(0.0841713 0.00607915 1.96149e-18)
(0.0238571 -0.0112363 -1.05347e-17)
(0.0247638 -0.0115134 4.23266e-17)
(-0.0175638 0.0142924 1.0396e-17)
(-0.0170011 0.0139 2.87931e-17)
(-0.0174113 0.0156263 2.48506e-17)
(0.0786431 0.0192536 4.59538e-19)
(0.0776868 0.0212246 -5.74712e-18)
(0.0781147 0.0187085 -1.7892e-18)
(-0.00116233 -0.000389068 3.48347e-19)
(-0.00117138 -0.000323236 5.96257e-19)
(-0.00114136 -0.000340842 -5.36227e-19)
(0.000235991 -5.70242e-05 -9.8648e-20)
(0.000261487 -4.6761e-05 8.84248e-21)
(-0.00273407 0.0199614 -3.67576e-21)
(-0.00355683 0.0201919 -2.0004e-19)
(-0.00297506 0.0192834 2.88871e-19)
(-0.00278921 -0.00248966 -5.49658e-19)
(-0.0026764 -0.00236152 7.05005e-19)
(-0.0026352 -0.00250661 -1.12592e-18)
(-0.000871076 0.00207403 6.89783e-19)
(-0.000864962 0.00209151 6.62236e-18)
(0.0385505 -0.0184503 -3.38896e-18)
(0.0368021 -0.01857 -7.08973e-17)
(0.041384 -0.0165489 -4.19372e-17)
(-0.000571558 0.00232686 3.7685e-18)
(-0.000582207 0.00231471 2.88254e-18)
(-0.000647292 0.00229878 -2.10485e-18)
(-0.00693567 0.015534 1.84485e-19)
(-0.00637504 0.0148286 2.63021e-19)
(0.000433595 0.00266764 1.77727e-18)
(0.000528833 0.00285585 -1.73797e-19)
(0.000286019 0.00284633 5.85596e-18)
(-0.0342 0.00268588 -2.67509e-18)
(-0.036625 0.00840496 2.41814e-18)
(-0.0411584 0.00274165 1.31926e-17)
(-0.00193511 0.000148383 -2.6767e-19)
(-0.00187719 0.000201459 -8.17075e-19)
(0.0269298 0.0194224 -7.0037e-19)
(0.0274142 0.0168764 -3.90453e-18)
(-0.110804 -0.0580576 4.26236e-19)
(-0.10993 -0.0543272 5.24744e-18)
(-0.0129781 0.0287704 -3.61339e-18)
(-0.0147395 0.028873 1.98568e-18)
(-0.0139544 0.0304411 -7.18747e-18)
(-0.140772 -0.0130412 -6.00274e-19)
(-0.139546 -0.0150431 -1.15881e-19)
(-0.137544 -0.0129482 7.06631e-20)
(-0.000346987 0.00095938 -2.77433e-19)
(-0.000345229 0.000937573 -1.45489e-18)
(-0.000957383 0.0359378 -1.38369e-18)
(0.000308501 0.0372122 -9.97201e-19)
(-0.000106257 0.00186977 -2.37343e-18)
(-0.000126712 0.00186318 -3.15481e-18)
(-0.000125421 0.00193733 -3.51508e-18)
(-0.0029102 -0.00242173 -7.18244e-19)
(-0.00289945 -0.00257264 8.31487e-19)
(-0.00886538 0.0145518 6.10154e-18)
(-0.00961133 0.0143275 9.44772e-19)
(-0.00903753 0.0138306 3.14568e-18)
(-0.00816523 0.0146672 1.937e-18)
(-0.00865885 0.0152877 4.75426e-19)
(-0.142631 -0.0127413 -8.29381e-19)
(-0.14963 -0.0129428 -1.79545e-20)
(-0.00188272 0.00957122 -1.999e-17)
(-0.00207731 0.00975144 3.73103e-18)
(-0.0019109 -0.000956108 -6.63054e-19)
(-0.00191042 -0.000870585 -6.65715e-20)
(-0.00184977 -0.000926001 -8.2266e-19)
(0.0171594 -0.00825084 6.1088e-18)
(0.0177466 -0.00883256 -3.13582e-17)
(0.0180613 -0.00839602 -1.1951e-17)
(0.030172 -0.00550218 7.64628e-18)
(0.0327277 -0.00635736 1.03283e-17)
(0.0309376 -0.00553012 -3.30367e-18)
(0.0109381 -0.00325174 -5.86553e-18)
(0.010901 -0.00397654 8.16498e-19)
(0.0117202 -0.003674 -7.5287e-18)
(-0.00133707 0.00128757 1.79882e-18)
(-0.00131036 0.00134453 -1.63909e-18)
(-0.00136856 0.00129696 2.58681e-18)
(-0.142122 -0.018271 6.87062e-20)
(-0.152318 -0.015005 -4.54258e-19)
(0.00179884 0.00295108 -5.90297e-19)
(0.00182691 0.002689 -2.6048e-18)
(0.00203012 0.00283365 1.78611e-18)
(-0.00377651 -0.000906664 -1.01714e-18)
(-0.0037084 -0.000780254 2.47039e-19)
(-0.0036448 -0.0009124 5.1787e-20)
(0.0453382 -0.00879565 2.117e-18)
(0.0452025 -0.00854659 -2.35762e-17)
(-0.000117595 -0.000524623 -2.75573e-20)
(-0.000150223 -0.000549414 1.13607e-19)
(-0.000129772 -0.000552656 5.94321e-20)
(-0.0622897 -0.0396418 -2.1519e-17)
(-0.0636566 -0.0402347 -2.51666e-18)
(-0.0010262 0.000697496 -1.72482e-19)
(-0.000994196 0.000732548 -1.70072e-18)
(-0.00100788 0.000774085 3.85305e-19)
(-0.00189974 -0.00104455 8.2718e-20)
(-0.00195358 -0.00100044 5.40335e-19)
(-0.0331615 -0.027442 -7.36997e-18)
(-0.0331328 -0.0294432 -2.43022e-17)
(-0.0357254 -0.0276797 -2.80192e-17)
(-0.00646934 -0.00968957 1.6431e-17)
(-0.00718338 -0.0096876 2.74764e-18)
(-0.131298 -0.000260015 3.77351e-18)
(-0.127307 0.00083294 -1.66459e-18)
(-0.126336 0.00280957 4.85352e-18)
(-0.146864 -0.0178139 -4.14226e-18)
(-0.135554 -0.0225751 9.08995e-20)
(0.0263015 -0.0058171 -6.51564e-18)
(0.0265883 -0.00548277 -1.52066e-17)
(0.0245175 -0.00498846 1.92183e-17)
(-0.00525928 -0.00188278 6.28614e-19)
(-0.0050491 -0.00203702 -9.62191e-19)
(0.0826806 -0.00965793 1.17617e-17)
(0.0817236 -0.0110701 -7.53202e-18)
(0.0807343 -0.00866785 4.70612e-18)
(-0.000622287 0.00212314 -4.3924e-19)
(-0.00063745 0.00208425 -2.63225e-18)
(-0.000594002 0.00211572 -1.71005e-19)
(0.0222378 -0.00544885 -6.49948e-18)
(0.0235066 -0.00596049 3.10575e-17)
(-0.000547753 0.00236683 -2.14207e-18)
(-0.000477144 0.00233867 -6.32473e-18)
(4.85847e-05 0.000282515 -7.78292e-19)
(-5.37256e-06 0.000368867 -1.14914e-18)
(0.0538088 -0.0129302 6.70264e-17)
(0.0532291 -0.0130092 -1.37749e-17)
(0.0262737 -0.0061594 4.17846e-17)
(0.0281156 -0.00661486 -1.96716e-17)
(0.0247937 -0.0320823 -2.75432e-18)
(0.0296943 -0.0292888 4.57134e-17)
(0.031107 -0.0291528 2.20177e-17)
(-0.0174399 0.0135123 -1.64848e-17)
(-0.0172775 0.0128633 6.65881e-19)
(-0.0167208 0.0133552 -8.33234e-18)
(-0.0012726 5.88958e-05 -2.14425e-18)
(-0.00126348 9.32491e-05 3.86815e-19)
(-0.00129161 6.00465e-05 1.46552e-18)
(-0.00577765 0.0184941 1.1798e-19)
(-0.00620794 0.017604 -2.28874e-19)
(-0.00528922 0.0176534 -1.58415e-19)
(-0.023073 -0.0222565 -1.16168e-17)
(-0.0269531 -0.0220248 -1.65632e-17)
(-0.025085 -0.0181699 -1.2521e-17)
(-0.0245321 -0.00527198 1.06033e-17)
(-0.0253777 -0.00536257 1.04686e-17)
(-0.0250054 -0.00451844 1.39057e-17)
(-0.00550614 0.0193251 5.40312e-19)
(-0.00643862 0.0191942 6.33151e-19)
(-0.00292832 0.00755938 2.08604e-18)
(-0.00271765 0.00749277 -4.83577e-18)
(-0.00290419 0.00731696 -1.01339e-18)
(-0.00375792 0.00781503 -2.58144e-17)
(-0.00345366 0.00763246 -4.54076e-18)
(-0.00343465 0.00806646 2.05348e-17)
(-0.00134778 0.00149047 1.93074e-18)
(-0.00138164 0.00142658 -2.48728e-20)
(-0.00143651 0.00143877 3.5215e-18)
(-0.00108951 -0.000632632 2.60266e-19)
(-0.00110828 -0.000683952 6.37579e-20)
(-0.00106358 -0.000687116 -9.80819e-20)
(0.00855479 -0.00801368 2.53063e-18)
(0.00827845 -0.00861156 3.53535e-17)
(0.00915421 -0.00839202 1.6176e-17)
(-0.00106697 -0.000582703 2.2547e-18)
(-0.00110865 -0.000563945 -1.28472e-18)
(0.0293885 -0.00542799 2.09936e-17)
(0.0278063 -0.00452581 3.02455e-17)
(8.53172e-05 0.000198271 -1.935e-18)
(0.000121092 0.000281631 -5.59869e-19)
(-0.000546937 -0.00128844 -3.85219e-19)
(-0.000495992 -0.00129923 4.47808e-20)
(-0.00694959 -0.000204716 3.21064e-19)
(-0.00729851 -0.000140606 3.30444e-19)
(-0.00705043 0.000101619 1.04185e-18)
(-0.00114219 -0.000466011 1.16191e-18)
(-0.00119733 -0.000457711 -1.1747e-18)
(-0.000592651 -0.0415223 3.50014e-19)
(0.00142577 -0.042515 -1.86754e-17)
(-0.000646871 -0.0437726 -1.55764e-17)
(-0.000919761 -0.0192018 2.8212e-17)
(-0.000420399 -0.0184621 3.38894e-18)
(-0.00138738 -0.018376 9.72859e-18)
(0.0156291 0.0224102 -8.90293e-19)
(0.0143208 0.0227068 2.57195e-18)
(0.0151569 0.0238663 1.14461e-18)
(0.000344424 0.00246081 -5.74302e-19)
(0.000567263 0.00244905 -7.28895e-19)
(-0.000498304 -0.000377595 3.09338e-19)
(-0.000520214 -0.00036861 3.51834e-19)
(-0.000506706 -0.000405169 6.24097e-20)
(-0.000279538 -5.59756e-05 -2.12228e-19)
(-0.000268995 -8.32574e-05 2.5605e-19)
(0.0153485 -0.0109326 -6.64911e-18)
(0.0146406 -0.0108305 2.236e-17)
(0.0163205 -0.00797825 1.82351e-17)
(0.0167952 -0.0074839 3.08728e-17)
(-0.0183868 0.00908642 -9.86259e-19)
(-0.0179042 0.00978747 -1.77127e-18)
(-0.0190225 0.0098665 -4.77253e-18)
(-0.000503405 -0.00110795 -1.67003e-19)
(-0.000518011 -0.00108835 4.59453e-20)
(-0.000476343 -0.00107412 1.57298e-19)
(-0.00192336 -0.000574417 -6.57103e-19)
(-0.00195035 -0.000640681 6.68963e-19)
(-0.00198719 -0.000560453 -2.94348e-19)
(-0.140226 -0.0172665 -9.85364e-19)
(-0.138924 -0.0172711 -1.78022e-19)
(-0.14092 -0.0196166 2.0682e-18)
(0.0549029 -0.0211471 1.68712e-18)
(0.0537492 -0.0246882 1.90771e-17)
(0.0553036 -0.022088 1.59949e-18)
(-0.0022279 0.0114315 1.07314e-17)
(-0.00239884 0.0112602 1.52743e-17)
(-0.00248738 0.0115593 9.01317e-18)
(-0.00126618 2.968e-06 -3.15955e-18)
(-0.00124148 6.98653e-05 -3.89435e-19)
(-0.0138865 -0.00563917 -6.40965e-18)
(-0.0134651 -0.00598321 -6.06142e-18)
(-0.0135186 -0.0053388 -1.76523e-18)
(-0.145429 -0.0238743 -4.65017e-19)
(-0.143016 -0.0250363 1.03495e-18)
(-0.144539 -0.0277307 2.17984e-19)
(0.00919309 0.000618031 -2.1964e-18)
(0.00985519 0.000945515 -1.72901e-18)
(0.00951432 1.60821e-05 -9.72375e-18)
(-0.00494707 -0.00141525 5.00581e-20)
(-0.00519504 -0.00144897 2.72819e-19)
(-0.00349425 -0.00686888 4.09465e-18)
(-0.0030606 -0.00707454 -9.99202e-19)
(-0.00319333 -0.00660578 -1.61496e-18)
(0.0169762 -0.0153779 2.22495e-17)
(0.015897 -0.0154091 -4.49685e-18)
(-0.121316 0.0208105 -1.70667e-18)
(-0.129671 0.0122385 -5.84727e-18)
(-0.0122513 -0.014628 -2.79028e-18)
(-0.0112951 -0.0146836 -5.67475e-18)
(0.0324032 -0.0259913 1.89596e-18)
(0.0363696 -0.0256201 1.29234e-17)
(0.0391932 -0.0240097 -2.23825e-17)
(-0.00192459 0.00932426 1.98567e-18)
(0.0269353 -0.00532994 -8.35136e-18)
(0.0284155 -0.00612155 1.01775e-17)
(-0.00256192 0.00604941 8.93709e-18)
(-0.00245109 0.0062794 2.65119e-17)
(-0.00225836 0.00611738 -8.2293e-18)
(0.00869498 0.00183312 2.74381e-19)
(0.0081237 0.00187094 -2.01689e-18)
(0.0085146 0.00243919 1.1695e-17)
(-0.0345121 -0.024731 6.73054e-18)
(-0.0309768 -0.025936 1.81343e-17)
(-0.00206469 0.00173672 -2.33436e-18)
(-0.00197178 0.00175544 1.1499e-18)
(-0.00202442 0.0016548 -9.22228e-18)
(-0.000595472 0.00214653 1.26958e-18)
(-0.000646598 0.00211371 -9.50237e-19)
(-0.00499804 0.0113864 -7.44668e-18)
(-0.00476471 0.0117769 5.99553e-18)
(-0.00523251 0.0116915 1.14676e-17)
(-0.084986 -0.0606216 -2.95117e-17)
(-0.0800619 -0.0572553 -6.0682e-18)
(-0.0827231 -0.0607121 -1.31977e-17)
(-0.00349459 -0.000182295 5.18335e-19)
(-0.00362807 -0.000145939 -9.29352e-19)
(-0.00353085 -8.83356e-06 1.00635e-18)
(-8.37584e-05 -0.000494618 -7.76487e-20)
(-0.000103472 -0.000497274 9.57803e-20)
(0.0263492 -0.00650725 1.65707e-17)
(0.0414132 0.0176314 -2.76725e-18)
(0.0388219 0.0197438 -1.13338e-17)
(0.034536 0.0141944 -4.78565e-18)
(-0.0145572 -0.00556196 -2.7355e-17)
(-0.0141003 -0.00620609 -1.1814e-17)
(-0.00503394 0.0194148 -7.07513e-19)
(-0.00536757 0.0200426 1.90367e-19)
(-0.00260174 -0.0408181 3.07632e-17)
(-0.000512605 -0.0396993 -5.28388e-18)
(-0.00146769 -0.0199607 2.33731e-17)
(-0.000404814 -0.020073 7.25847e-18)
(0.0443411 -0.0391718 1.73216e-17)
(0.0417702 -0.0415973 5.17503e-18)
(0.0421953 -0.0381312 1.15176e-17)
(-0.00101021 0.00216124 -3.09156e-18)
(-0.00107351 0.00212052 -3.74887e-18)
(-0.00106931 0.0021654 -3.02361e-18)
(-0.000476817 0.00231879 2.14948e-18)
(-0.00042377 0.00233213 -2.23775e-18)
(-0.000429177 0.00233993 -2.61368e-19)
(-0.00028576 0.000767783 -8.69467e-19)
(-0.000289366 0.000795364 -2.62242e-19)
(-0.000258489 0.000745658 -3.29527e-18)
(0.0390439 -0.014253 3.6936e-17)
(0.0423513 -0.0150387 -2.18166e-17)
(0.00778271 0.000989563 -1.14102e-18)
(0.00780815 0.00151542 -3.81526e-18)
(0.00747044 0.00127676 4.90638e-18)
(0.000514168 -0.000383057 -5.32191e-19)
(0.000528845 -0.000324514 7.51984e-19)
(0.000578428 -0.000393641 4.28425e-18)
(-7.63725e-06 3.32736e-05 3.566e-19)
(-7.87073e-06 2.8824e-05 -1.95918e-18)
(-1.25708e-05 4.24855e-05 -3.48327e-18)
(0.0859613 0.000208827 1.35555e-18)
(0.0844957 0.00235097 7.27783e-18)
(0.0855654 0.00208602 2.62679e-18)
(0.00903557 -0.00728595 -2.20438e-17)
(0.0080456 -0.00749584 -1.61512e-17)
(-0.00174408 0.0196865 -1.48332e-19)
(-0.00217453 0.0207204 3.16306e-19)
(-0.110495 0.00442451 -2.23967e-18)
(-0.113457 0.000704209 9.80611e-18)
(0.0314149 0.0481036 3.07667e-18)
(0.0317792 0.0410638 -7.31007e-18)
(0.0376274 0.0458111 -1.39692e-18)
(0.0256171 0.0492494 1.63813e-18)
(0.020025 0.0550874 -6.14336e-18)
(0.0413383 -0.0178989 5.41685e-17)
(0.0395838 -0.0208037 3.2941e-17)
(-0.00677334 -0.000442039 1.17442e-19)
(-0.00663361 -0.000190361 3.11077e-19)
(-0.112027 -0.0887386 -6.00722e-18)
(-0.110093 -0.0887278 2.07294e-17)
(-0.109355 -0.0864358 -1.07403e-17)
(-0.000312905 0.000950601 1.681e-18)
(-0.00029755 0.00092488 1.44241e-18)
(-0.000294668 0.000906751 1.0547e-18)
(-0.000474038 -0.000393187 -4.71997e-19)
(-0.000491241 -0.000354425 -1.28127e-18)
(0.0102807 -0.0129 -2.69546e-18)
(0.00945486 -0.0137725 9.54801e-19)
(0.00908206 -0.0125259 -1.50926e-18)
(-9.69842e-05 3.49316e-05 -1.77484e-20)
(-8.7418e-05 4.52008e-05 7.87114e-19)
(-8.0045e-05 2.93619e-05 7.39604e-19)
(0.0210553 -0.0343578 4.84631e-17)
(0.0177485 -0.0339257 -1.99879e-18)
(0.020805 0.0456153 -5.04624e-19)
(0.0211955 0.0436485 -2.27174e-18)
(0.018766 0.0452334 -5.68222e-19)
(-0.00130373 0.0241296 -4.86077e-19)
(-0.000385474 0.0248555 1.75246e-20)
(-0.00181652 0.0252383 -1.61197e-18)
(-0.000451855 -0.000405929 3.55644e-19)
(-0.000462099 -0.000428425 -3.87049e-19)
(0.00132237 0.00312422 -2.53927e-18)
(0.00156062 0.00304168 -7.31082e-19)
(0.00135778 0.00288183 -3.52785e-18)
(-0.00211231 0.0234272 -2.62396e-19)
(-0.00105127 0.0231595 -8.73235e-19)
(0.0568302 -0.0177715 -9.65424e-18)
(0.0534006 -0.0191581 -2.38788e-17)
(-0.0182952 0.0134812 -1.83822e-17)
(-0.00671415 -0.000726728 7.86678e-20)
(-0.00647879 -0.000675356 2.25301e-19)
(-0.00655975 -0.000914672 -1.73534e-19)
(0.0089623 0.00126768 -4.58374e-18)
(0.00862007 0.000637458 5.27132e-18)
(0.0372572 -0.011256 6.06241e-18)
(0.0360857 -0.0109727 2.31865e-17)
(0.0461871 0.0201684 6.7699e-18)
(0.0424614 0.0158059 8.38615e-20)
(0.0230101 0.0192664 -1.58605e-19)
(0.0241873 0.0206184 4.46306e-18)
(-0.00212569 0.00469796 -2.24193e-17)
(-0.00200653 0.00476631 -4.10409e-18)
(-0.0021836 0.00486393 -1.97828e-17)
(-0.00113903 0.00198644 1.05499e-19)
(-0.00107688 0.00203934 7.78479e-18)
(-0.00108045 0.00201305 4.02349e-18)
(-0.000774185 -0.000712143 -6.55226e-20)
(-0.00080659 -0.000718766 9.70713e-19)
(-0.000774737 -0.000761269 5.39505e-19)
(-0.0869741 -0.0616605 -1.52308e-17)
(-0.0898909 -0.0637374 -1.59995e-17)
(0.00803702 0.000602522 8.2788e-19)
(0.00751005 0.000501205 -2.50935e-18)
(-0.124807 -0.0031305 5.50303e-18)
(-0.12097 -0.00494751 -9.98724e-18)
(-0.000125958 -0.00421024 7.94094e-19)
(-0.000117588 -0.00444765 7.69924e-19)
(-0.00336797 -0.000188247 1.18607e-18)
(-0.00344281 -0.000311184 1.06942e-18)
(-0.00650451 0.0169543 -2.86587e-19)
(-0.00678145 0.0161731 -7.78386e-20)
(-0.00600398 0.0161499 2.61914e-20)
(0.0217594 0.0193876 6.71288e-19)
(0.0218422 0.0178179 -3.94043e-18)
(-1.76224e-06 -0.00108011 2.67449e-19)
(3.63294e-06 -0.0011173 2.41041e-18)
(-2.98287e-05 -0.00113237 3.99863e-19)
(-0.000905064 -0.00181762 6.21724e-19)
(-0.000928056 -0.00177324 4.30198e-19)
(-0.000851348 -0.0017672 -5.10568e-19)
(-0.00230019 0.00984813 2.46438e-17)
(-0.00271569 0.00970442 5.12178e-18)
(-0.00269076 0.0100773 1.19451e-17)
(-0.0348331 -0.0234286 2.37703e-17)
(-0.0348548 -0.0216936 1.49749e-17)
(-0.0326822 -0.0230052 2.59515e-17)
(-0.01438 -0.0452496 1.95032e-18)
(-0.0160938 -0.0466691 2.41948e-18)
(-0.021964 -0.0488618 -1.35005e-17)
(-0.0999323 -0.0576247 -1.294e-18)
(-0.0958777 -0.0559864 -1.29423e-17)
(-0.101624 -0.0600999 -1.10472e-17)
(0.00552553 0.000369796 -3.29184e-18)
(0.00582876 0.000736011 -3.69207e-19)
(-0.0120957 0.0254297 -5.26686e-18)
(-0.00974088 0.0219491 -1.06765e-17)
(-0.00845233 0.0230561 -1.16406e-17)
(-0.00674923 -0.0426608 1.151e-17)
(-0.0131561 -0.0440305 -1.84932e-17)
(-0.00086992 0.00314585 -6.6141e-18)
(-0.000815621 0.00308101 3.33681e-18)
(-0.000735487 0.0031618 -2.15988e-18)
(0.00614681 0.00483108 -7.13432e-19)
(0.00679816 0.00451338 -3.14254e-18)
(0.00609173 0.00427196 8.77614e-18)
(-0.0140254 0.0408318 -3.43295e-18)
(-0.0155234 0.0461418 -1.00683e-17)
(-0.0215739 0.0395303 -1.34721e-17)
(-0.00130193 -0.00423375 -2.52231e-18)
(-0.00146677 -0.00436478 -6.73938e-18)
(-0.00146841 -0.0041763 -4.84762e-18)
(-0.00717018 0.0136006 -1.72731e-20)
(-0.00723996 0.0130936 3.59496e-19)
(-0.00777884 0.0136247 5.06226e-19)
(-0.0019164 -0.000517092 -1.2681e-18)
(-0.00188119 -0.000571215 1.75222e-19)
(-0.0365954 -0.0238241 -3.50971e-18)
(-2.35127e-05 0.000210991 1.98662e-18)
(-3.05676e-05 0.000253948 2.38371e-19)
(-3.21172e-05 0.0002656 4.23941e-18)
(-0.00603075 -0.010867 -6.90158e-19)
(-0.00550988 -0.0113754 -9.34667e-19)
(-0.00636504 -0.0114216 -1.50177e-17)
(-0.00413748 -0.000975503 1.33543e-18)
(-0.00417524 -0.00112862 3.65174e-19)
(-0.0043375 -0.00100793 3.47293e-19)
(-0.000824002 0.00210943 -1.21505e-18)
(-0.000856413 0.0020665 6.5719e-18)
(0.0458714 0.0158396 7.04126e-18)
(0.047524 0.0182294 8.06603e-18)
(0.0493215 0.0160969 -2.41635e-18)
(-0.000387064 -0.00158404 1.17983e-18)
(-0.000381364 -0.00152853 2.57047e-19)
(-0.000326411 -0.00153064 2.52401e-19)
(7.39787e-05 0.0131025 -3.39403e-17)
(7.1585e-06 0.0136024 -2.75837e-19)
(-0.000443982 -0.000382233 3.37217e-19)
(-0.000426217 -0.000416877 4.01075e-19)
(0.0327469 0.00975202 1.68694e-18)
(0.0341531 0.00807839 -6.29126e-18)
(0.0317774 0.00791211 9.43467e-19)
(-0.13532 -0.00163324 -3.77239e-18)
(-0.138004 -0.00337149 -1.2966e-17)
(0.0314495 -0.0282197 1.09353e-17)
(0.0343055 -0.0268819 -1.92042e-17)
(0.0256133 -0.0293637 -3.55748e-17)
(-0.00247217 0.00453837 2.23099e-18)
(-0.00248961 0.00430929 -2.53873e-18)
(-0.00268177 0.00448044 8.39108e-18)
(0.00579275 0.00524405 -2.30549e-19)
(0.00638286 0.00519669 -5.15286e-19)
(-9.76844e-06 0.000122343 3.32667e-19)
(-4.84542e-06 8.39562e-05 -6.70725e-19)
(-5.67042e-06 8.77667e-05 -2.31745e-18)
(-0.00494255 0.0110044 -2.8087e-17)
(-0.00467662 0.011171 -1.0498e-17)
(-0.000727166 0.00124269 1.58689e-18)
(-0.000692726 0.00124124 -9.74648e-19)
(-0.000724343 0.00120467 1.0135e-18)
(-0.00578849 -0.0106227 1.67928e-17)
(0.0186737 -0.0104979 -3.24786e-17)
(0.0147993 -0.0103174 2.13589e-17)
(0.0159555 -0.0103233 2.51166e-17)
(-0.0024367 0.00469712 4.36382e-18)
(-0.00221279 0.00449407 -6.89083e-18)
(-0.00116062 -0.00402969 -3.04617e-18)
(-0.00107464 -0.0042252 3.27925e-18)
(-2.87624e-05 0.00168552 -3.57812e-19)
(-4.28047e-05 0.00176084 6.77314e-20)
(-0.0975924 -0.0546842 1.78893e-18)
(-0.103062 -0.057518 1.3587e-17)
(-0.000467418 -0.000805818 -3.32188e-19)
(-0.000447094 -0.000774249 -3.59842e-19)
(0.0444558 -0.0186778 -1.42333e-17)
(0.0328008 -0.0115877 -6.307e-18)
(-0.0920897 -0.0559878 -2.02954e-18)
(-0.087967 -0.0555465 1.06719e-17)
(-0.0932057 -0.0591451 2.39477e-17)
(-0.0236524 -0.00516552 -6.71221e-18)
(-0.0240638 -0.00607044 3.94828e-18)
(-7.30158e-06 3.72059e-05 3.69166e-18)
(-4.03267e-06 2.44161e-05 4.47999e-18)
(-0.0357322 0.0113143 -4.88188e-18)
(-0.0294657 0.00662691 3.15755e-17)
(-0.0257535 0.00793759 -5.98756e-18)
(-0.147775 -0.0159743 4.80267e-19)
(-0.147616 -0.0170948 1.04528e-18)
(-0.145381 -0.0162904 2.83295e-18)
(0.0735519 0.0200168 4.8484e-18)
(0.0798396 0.0167203 2.00951e-18)
(-0.00656402 0.0136474 -2.36055e-20)
(0.0042417 -0.00460168 2.50406e-19)
(0.0040292 -0.004945 1.15148e-18)
(0.00396884 -0.00451674 -1.24093e-18)
(-0.00473772 0.0126563 1.21381e-18)
(-0.00466683 0.0122194 3.16699e-20)
(-0.00412946 0.0124335 3.18709e-19)
(0.04277 0.0157091 2.9073e-18)
(0.0442894 0.01366 2.63671e-18)
(0.00125103 0.00338892 -1.83088e-18)
(0.001043 0.00318705 1.17472e-18)
(-0.0176924 0.0123831 5.61003e-18)
(-0.0169739 0.0122666 6.1401e-18)
(-0.00797927 -0.00114807 9.11827e-19)
(-0.00781578 -0.000870264 -9.5003e-19)
(-0.00765851 -0.00117181 -1.64102e-18)
(0.034611 -0.000337743 -4.05282e-18)
(0.0337274 -0.0033949 -1.62068e-18)
(0.0396927 -0.00426821 3.95896e-18)
(0.0355693 -0.0171625 2.51846e-18)
(0.0366633 -0.0148565 -7.78908e-18)
(0.0339401 -0.0158471 4.66344e-18)
(-0.000475405 -7.72711e-06 2.20943e-19)
(-0.000451431 -1.99137e-05 4.27836e-19)
(-0.000448288 -1.60739e-05 -4.49151e-19)
(0.00162313 -0.00261219 -2.4021e-18)
(0.0014783 -0.00247876 2.09691e-18)
(0.00141124 -0.00266963 -1.96844e-18)
(-0.0070386 0.0176631 3.46999e-19)
(0.0874312 -0.00213704 -4.14463e-18)
(0.0859113 -0.00179285 -1.12046e-17)
(0.0861163 -0.0146989 1.30674e-18)
(0.0870914 -0.0156192 1.89542e-18)
(0.0851945 -0.0150194 3.50519e-18)
(-0.000779313 -0.000671032 -1.56955e-19)
(-0.000746744 -0.000710667 -7.78348e-19)
(-0.00239115 0.0117942 4.05125e-18)
(-0.000650934 0.00205817 -2.57336e-18)
(-0.000669248 0.00202869 4.58456e-18)
(-0.000630648 0.00205596 2.08801e-18)
(0.0264524 0.0288259 -4.19048e-19)
(0.0282178 0.0280477 9.39523e-19)
(0.0268108 0.0268389 2.21446e-18)
(0.0523754 -0.0276756 4.29987e-18)
(0.0504379 -0.0312304 -1.27449e-17)
(0.0501774 -0.026946 -3.21231e-17)
(0.00172918 -0.00268875 -2.26383e-18)
(0.00171993 -0.00255481 -3.52835e-18)
(0.00913673 -0.00677964 -1.32202e-18)
(0.00966289 -0.00693023 -8.08622e-18)
(0.0351488 -0.0193921 8.32471e-18)
(0.0379729 -0.017973 -1.01558e-17)
(-0.00129652 0.00105699 4.34503e-18)
(-0.00130986 0.000995536 6.32736e-18)
(-0.0012881 0.00106008 1.59114e-18)
(-0.00320266 0.00758862 2.15551e-18)
(-0.00296684 0.00787168 2.91119e-17)
(0.000601199 0.0188257 1.1701e-19)
(-0.0002808 0.0191585 -8.18652e-20)
(-1.76093e-05 0.0181622 2.25241e-20)
(0.101767 0.0129591 1.45248e-17)
(0.0937794 0.00310303 -2.27274e-18)
(0.106811 0.0147076 2.62014e-17)
(-0.000394267 0.00166566 -5.39317e-18)
(-0.000373633 0.0016121 -6.36961e-19)
(-0.000360418 0.00163174 -1.46281e-18)
(-0.000785349 0.00212465 -3.49928e-18)
(-0.000770866 0.00214001 1.35255e-18)
(-0.00262838 0.00460984 2.64039e-18)
(-0.037694 0.0620661 -3.22466e-18)
(-0.0309733 0.0634884 1.90537e-17)
(-0.0333579 0.0681308 -6.69171e-18)
(0.0163318 -0.0113323 -4.03338e-18)
(0.0143721 -0.011448 1.74652e-17)
(0.0164244 -0.0114173 -4.93015e-18)
(0.00980595 -0.00174257 -2.76676e-18)
(0.00932512 -0.0019423 -3.85241e-19)
(0.0098278 -0.00240549 -2.20068e-18)
(-0.000490515 -0.0011243 -3.02748e-20)
(-0.000532747 -0.00114243 -2.80441e-20)
(0.0567014 -0.0143255 -2.03851e-18)
(0.0569951 -0.0143396 -7.42505e-18)
(0.0463822 -0.0366541 4.90179e-18)
(0.0487028 -0.0338279 -7.19684e-18)
(0.0464868 -0.0329859 -2.26001e-17)
(0.0178982 0.019147 -7.82382e-20)
(0.016312 0.0196194 1.50502e-18)
(0.0165956 0.0181181 3.37197e-20)
(0.00956137 -0.00600256 8.59917e-18)
(0.00865981 -0.00625996 8.70301e-18)
(-0.0451845 0.0601688 -3.42987e-19)
(-0.0386354 0.0542429 5.17351e-18)
(-0.0616137 -0.0234939 1.26739e-17)
(-0.0657358 -0.0235257 -1.15809e-17)
(-0.0662683 -0.0192303 5.82237e-18)
(0.00131798 -0.00361074 9.33713e-19)
(0.00119121 -0.00378103 8.08536e-19)
(0.00141227 -0.00374872 1.67932e-18)
(0.00470631 -0.000117489 6.64641e-19)
(0.00503448 -9.68313e-05 1.13673e-17)
(0.00474475 0.000211854 1.1292e-17)
(0.027929 -0.0182829 -2.56403e-18)
(0.0259862 -0.0179696 -3.21758e-17)
(0.0288829 -0.0161008 -2.47187e-17)
(-0.000977821 -0.000811174 2.40445e-19)
(-0.00100761 -0.000854713 5.07953e-19)
(-0.00101456 -0.000771531 -8.09282e-19)
(-0.000280532 0.000736088 1.18556e-18)
(-0.000274572 0.000707357 -1.71846e-19)
(-0.000249449 0.000689765 -4.88498e-19)
(0.0192001 0.0188443 -2.29733e-18)
(0.018845 0.0204389 -8.35059e-19)
(-0.0124778 -0.0103037 2.13404e-18)
(-0.0117424 -0.010509 4.93219e-18)
(-0.0119059 -0.00977427 -7.98054e-18)
(-0.000448134 -0.000825901 1.69067e-19)
(-0.00042466 -0.000843175 3.79768e-20)
(-0.000416777 -0.000809127 -1.39278e-19)
(-3.41655e-05 0.000244491 3.52568e-19)
(-3.1116e-05 0.000247434 -2.99488e-18)
(-2.15256e-05 0.000199085 -2.59453e-18)
(-0.000757453 0.00124733 2.04529e-18)
(-0.000729113 0.00127876 3.12844e-19)
(-0.000346263 5.10527e-05 -1.33045e-18)
(-0.000365644 4.90594e-05 -4.23205e-19)
(-0.000340827 3.04659e-05 -4.77381e-19)
(0.0044226 -0.00291445 9.24335e-18)
(0.00473185 -0.00315191 2.2137e-19)
(0.00482635 -0.00271335 8.4302e-19)
(-0.000312673 0.000782431 4.88804e-18)
(-0.00698428 0.0415438 7.7778e-18)
(-0.0014262 0.046941 -4.08653e-18)
(0.00906898 -0.00295908 6.12034e-18)
(0.00885656 -0.00228964 3.35375e-18)
(-0.00159287 -0.000234128 -2.51402e-20)
(-0.00155703 -0.000188235 9.40455e-19)
(-0.00161619 -0.000197468 1.88556e-18)
(0.0880672 -0.00475096 3.49554e-18)
(-0.140933 -0.0157644 3.12901e-18)
(-0.142979 -0.0173388 4.30306e-18)
(-0.000838375 0.00220558 1.09066e-18)
(-0.000901093 0.0021644 5.77166e-18)
(-0.000849992 0.0021891 2.11513e-18)
(0.0344937 0.0110604 9.28318e-19)
(0.0100463 -0.0208289 -9.90588e-20)
(0.0111407 -0.0172506 3.746e-17)
(0.00660561 -0.0207122 2.38466e-18)
(-0.00209354 0.00178502 -2.08391e-18)
(-0.00213912 0.00170949 3.01204e-19)
(-0.000753174 0.00223593 -5.56148e-18)
(-0.000815952 0.00225334 -3.29848e-18)
(0.00933378 -0.00357932 8.66777e-18)
(0.0096967 -0.00300317 1.59903e-18)
(-0.144663 -0.00615564 -5.8335e-18)
(-0.147852 -0.00702403 4.53787e-18)
(-0.141563 -0.00362574 6.64448e-18)
(0.0138346 -0.000668682 2.93888e-19)
(0.017567 -0.000556355 -3.39211e-17)
(0.0147233 -3.08068e-05 -2.25861e-17)
(0.0144042 -0.0112342 -5.13882e-18)
(0.0148861 -0.0124443 1.31282e-17)
(0.0135208 -0.0118797 1.17547e-17)
(-0.000208686 4.67387e-05 1.9604e-18)
(-0.000200104 6.71997e-05 1.56506e-18)