/*--------------------------------*- C++ -*----------------------------------*\
| =========                 |                                                 |
| \\      /  F ield         | OpenFOAM: The Open Source CFD Toolbox           |
|  \\    /   O peration     | Version:  v2012                                 |
|   \\  /    A nd           | Website:  www.openfoam.com                      |
|    \\/     M anipulation  |                                                 |
\*---------------------------------------------------------------------------*/
FoamFile
{
    version     2.0;
    format      ascii;
    class       volVectorField;
    location    "100";
    object      U_0;
}
// * * * * * * * * * * * * * * * * * * * * * * * * * * * * * * * * * * * * * //

dimensions      [0 1 -1 0 0 0 0];


internalField   nonuniform List<vector> 
13851
(
(1.08307 0.137146 3.61835e-20)
(1.07325 -0.0171934 0)
(1.07141 -0.016427 9.96844e-22)
(-0.174335 -0.0136429 1.41511e-19)
(1.0017 -0.000411942 -5.23701e-21)
(1.08683 -0.0308592 4.42022e-21)
(1.05427 0.0103377 0)
(1.01367 -0.000820488 1.64513e-23)
(0.651363 0.0780061 2.53908e-20)
(0.991065 -0.00930569 -6.02903e-21)
(1.19071 -0.111183 5.20598e-20)
(1.00095 -0.00817915 -5.83414e-21)
(0.980801 -0.0229834 0)
(0.303267 0.0407807 7.2899e-22)
(1.08992 0.0295094 0)
(1.0165 0.0255122 1.64075e-22)
(-0.388139 -0.0113783 5.70194e-20)
(1.0363 -0.0178632 -1.52312e-21)
(1.29494 0.173637 0)
(1.08924 0.13551 -2.12224e-20)
(1.10811 0.0316893 2.99087e-20)
(1.04232 -0.0945249 -9.14227e-22)
(0.446622 -0.229664 -1.78351e-20)
(1.00005 -0.00015003 9.91918e-21)
(0.908903 -0.0444847 4.40362e-20)
(1.04334 0.0327522 -5.4392e-21)
(0.970564 0.0805765 -1.9141e-21)
(1.20041 0.307639 5.74145e-20)
(0.751529 0.0048962 -2.11234e-20)
(1.02139 -0.0121249 1.17212e-21)
(-0.0936006 -0.0326283 -6.63833e-20)
(1.05449 0.0100087 0)
(1.06444 0.12429 -2.06346e-20)
(0.651221 0.234125 -2.90174e-21)
(1.15061 -0.0858092 1.84385e-20)
(0.763601 -0.000676578 -3.85275e-21)
(1.00003 -0.000134094 -9.74705e-21)
(0.886819 -0.152592 9.91826e-20)
(-0.12041 -0.039198 -1.07084e-19)
(1.0076 -0.0410659 7.2658e-21)
(0.216701 0.168 -7.07004e-21)
(0.788414 0.00339786 1.01848e-20)
(-0.229627 -0.00369945 0)
(1.06075 -0.486527 1.4147e-20)
(0.825819 0.0129512 5.75831e-21)
(1.01554 -0.0242903 6.02421e-23)
(1.0192 0.000111867 -2.77535e-22)
(1.01407 0.0474767 -1.05832e-21)
(1.04944 -0.0568216 1.19011e-21)
(0.980498 -0.0220108 0)
(-0.572521 -9.66641e-05 -1.50523e-19)
(0.973522 -0.0163815 1.75304e-20)
(1.01674 0.027487 0)
(1.06125 0.0202218 1.05973e-20)
(0.464781 0.0232799 5.39615e-20)
(1.0065 -0.0414215 0)
(1.06556 0.129588 2.32977e-20)
(0.149312 0.150246 -1.54641e-20)
(0.976173 0.0405623 1.4895e-20)
(-0.107156 0.0471608 2.9437e-23)
(1.00084 -0.00758731 -5.43763e-21)
(0.975014 0.081978 -1.11037e-20)
(0.995424 -0.00248825 -1.61409e-20)
(1.05001 -0.059163 -4.58016e-21)
(0.852906 -0.441854 4.47339e-20)
(0.833712 -0.460187 0)
(-0.14028 0.0362239 -1.19204e-21)
(0.688899 -0.115327 0)
(1.02207 -0.0411345 -3.19103e-21)
(-0.146639 -0.0158107 -6.62735e-20)
(-0.176023 -0.0288164 0)
(1.11867 0.0443168 -2.14295e-20)
(0.994112 -0.0297166 2.74502e-21)
(-0.0983666 0.0406673 -3.32522e-23)
(1.06624 0.0233109 -6.4121e-21)
(1.02283 -0.0766293 0)
(-0.357955 -0.0192725 8.27844e-20)
(1.02184 -0.00562153 0)
(0.992205 -0.04004 0)
(1.00514 -0.0199402 -3.24721e-21)
(1.02334 -0.0416376 5.79992e-21)
(1.34097 -0.147699 -1.0788e-19)
(1.14577 -0.0878994 2.8865e-20)
(0.262 0.0475504 -5.57786e-20)
(-0.0672051 0.0508845 0)
(-0.119803 -0.0314606 0)
(1.04586 -0.0957977 -2.6869e-21)
(0.572816 0.00182886 3.21007e-20)
(0.991752 -0.0139086 1.47152e-20)
(-0.0892819 -0.029939 0)
(0.972309 -0.0155593 0)
(1.05537 0.0101258 9.07728e-21)
(-0.439649 -0.00649348 1.16709e-19)
(-0.151631 -0.0282095 0)
(-0.240476 -0.00680128 1.08949e-19)
(1.05072 -0.448531 -1.96796e-21)
(1.01049 -0.0265088 -6.51737e-21)
(1.01287 0.0365028 -5.45619e-22)
(-0.503375 0.0144045 9.82142e-21)
(1.22501 -0.239572 -7.19573e-20)
(1.01028 0.0386739 0)
(0.805906 -0.113752 3.52929e-20)
(0.805048 -0.146721 -5.89705e-20)
(0.990039 -0.0316229 9.58136e-21)
(1.01924 -0.0235317 0)
(1.13767 0.0257796 7.3143e-20)
(1.01849 -0.0233429 0)
(-0.153406 -0.0315239 0)
(1.05555 0.00970456 -1.32189e-20)
(1.03533 -0.0174004 0)
(1.02781 -0.136116 8.56424e-22)
(1.01635 -0.0246447 1.97859e-21)
(1.30607 0.0116913 1.12724e-20)
(1.19806 -0.0299264 0)
(1.03643 0.101877 2.90584e-21)
(1.06147 0.0194636 0)
(1.01497 -0.00856444 4.18351e-21)
(1.01437 -0.000951845 1.90494e-21)
(-0.188823 -0.0115801 -1.15561e-19)
(-0.113553 -0.019182 3.61644e-20)
(1.08739 -0.381157 5.81662e-20)
(1.02951 -0.0150266 5.20216e-22)
(1.017 -0.042303 2.92664e-21)
(0.135541 0.110639 -9.87743e-21)
(1.21033 0.200137 0)
(0.607725 -0.192126 -1.18544e-19)
(1.01103 -0.0260966 1.29547e-22)
(1.1413 -0.168174 6.39106e-20)
(0.364456 0.189551 9.85141e-23)
(1.0971 0.0452096 0)
(1.03865 -0.0967542 1.04977e-21)
(1.10989 -0.0617378 -1.24145e-20)
(1.05162 -0.187664 0)
(0.639365 0.224901 -1.7333e-20)
(1.19718 -0.108214 -6.9851e-20)
(-0.240363 -0.0154627 3.65521e-20)
(0.702463 -0.108174 0)
(-0.136421 -0.0307056 0)
(0.845208 -0.0872704 2.54468e-20)
(1.08922 0.0440707 2.13557e-20)
(1.33051 -0.149601 7.82948e-20)
(0.974968 -0.047802 6.22985e-21)
(0.991102 -0.0141271 -2.14947e-20)
(0.730962 -0.301429 2.14876e-20)
(0.959111 0.0271108 -1.08553e-19)
(1.00857 -0.0753358 -1.27487e-20)
(1.02159 -0.00521004 0)
(-0.140847 -0.0282679 6.49098e-23)
(0.637116 0.0251297 2.47647e-20)
(1.14665 -0.17165 -5.22808e-20)
(1.01008 0.0413199 -2.24713e-21)
(1.3013 0.00523674 -9.05874e-21)
(1.20481 -0.0286737 7.39144e-20)
(1.26347 0.163989 -8.30602e-20)
(0.972463 -0.0262584 5.35954e-21)
(0.983668 -0.0117919 0)
(1.00097 -0.00616672 0)
(-0.164419 -0.0403277 3.69174e-20)
(1.09003 0.0389856 -2.39455e-21)
(1.05813 0.00417427 -6.47969e-21)
(1.0001 -0.00035732 2.54307e-21)
(0.755846 0.00171593 1.85917e-20)
(1.13306 0.0257139 -5.23627e-20)
(1.01467 0.0499628 0)
(0.315175 0.0409049 5.1046e-20)
(0.774287 0.0676658 0)
(0.787753 0.071928 -8.19292e-21)
(-0.542628 -0.000550311 2.06947e-19)
(1.02884 -0.131007 -1.32096e-21)
(0.725271 0.19528 4.44492e-20)
(1.00056 -0.0067936 -5.42178e-21)
(1.01488 -0.00814299 -2.53321e-21)
(1.16404 0.0272107 -4.93003e-21)
(1.00084 -0.000353791 0)
(-0.199035 -0.00170801 -2.02737e-19)
(0.987973 0.146914 2.82015e-21)
(1.00513 0.061723 -9.793e-22)
(1.01548 -0.00800861 -2.6027e-21)
(1.06433 0.0228532 7.5445e-21)
(1.00754 0.0588907 1.68213e-21)
(1.19953 0.194932 1.79003e-20)
(1.06941 -0.469979 0)
(1.03509 -0.123655 0)
(1.09459 0.0434213 -1.20528e-20)
(-0.280217 -0.00590962 1.5932e-19)
(0.645659 0.0237266 -2.24998e-22)
(1.05861 0.122604 1.03409e-20)
(0.887573 -0.0668504 0)
(0.976991 -0.0270787 1.14907e-21)
(1.0199 -0.0172242 4.35928e-21)
(1.0574 0.0310823 6.40826e-21)
(1.0922 0.038332 1.7304e-21)
(0.276763 0.0250281 -5.17384e-20)
(1.08801 -0.0282069 1.61823e-21)
(1.01049 -0.0731315 0)
(1.0146 0.0317221 4.55202e-22)
(1.05781 0.118014 -1.25473e-20)
(1.04546 -0.00841126 -5.97013e-21)
(1.04278 -0.0258831 1.54307e-22)
(0.703803 -0.15085 -1.74152e-20)
(1.32236 -0.164727 6.32448e-20)
(-0.17203 0.0422824 -6.8216e-20)
(0.0922054 0.139249 3.38132e-20)
(1.08748 0.0292036 0)
(0.902081 -0.699076 1.28104e-20)
(-0.225203 0.0395028 3.6833e-20)
(0.937226 -0.0235277 -1.78655e-20)
(1.07489 0.0421108 1.2676e-20)
(0.641555 0.0920101 -3.59671e-20)
(1.08172 -0.0405425 1.10461e-22)
(1.01865 0.0218639 -3.21723e-21)
(1.01633 -0.0414824 -1.58765e-21)
(1.3325 -0.163091 1.50052e-20)
(1.00005 -0.0014757 0)
(1.15562 -0.0762967 -4.52258e-21)
(1.02672 -0.0846295 -2.76526e-21)
(0.98174 -0.0208877 2.81623e-20)
(1.09016 0.187994 -1.6656e-20)
(1.04585 -0.0168047 0)
(0.148129 -0.508847 0)
(1.01549 -0.00755494 3.5543e-21)
(1.1015 0.139429 -2.09517e-20)
(0.227903 0.0351984 5.67e-20)
(-0.223757 -0.012112 -1.01272e-19)
(0.899201 -0.0767581 0)
(1.07311 0.042526 -1.31485e-20)
(1.00001 -0.000697193 -8.26241e-22)
(0.734677 -0.280541 -6.2315e-20)
(1.00146 -0.0143364 -7.9388e-21)
(1.15119 -0.0779722 -1.404e-20)
(-0.0472101 -0.0313658 -3.48626e-20)
(0.893193 -0.0678236 2.95326e-20)
(1.08123 -0.0381194 -5.30154e-21)
(0.996248 -0.000126944 0)
(0.0712822 0.137207 -1.72002e-20)
(1.02205 -0.0118196 0)
(0.799195 -0.403403 -3.83794e-20)
(0.0454255 0.125634 4.07573e-20)
(1.21875 -0.232083 -5.58221e-20)
(1.00007 -0.000339379 0)
(1.28517 -0.380515 0)
(-0.0295779 0.0525164 1.35124e-20)
(0.850742 0.0101262 5.08702e-21)
(1.0188 0.0236085 2.56678e-21)
(1.10707 0.00443794 -7.76251e-22)
(0.694105 -0.330933 0)
(1.09275 0.179611 3.04026e-20)
(1.06343 0.0229564 -5.92853e-21)
(1.05513 -0.431654 -1.44154e-21)
(1.04846 -0.139039 -8.12087e-22)
(0.534453 0.0071248 0)
(1.1844 0.132354 -7.99574e-20)
(1.01054 -0.000944164 0)
(1.08119 -0.00539129 6.0312e-21)
(1.01223 0.0337362 0)
(0.741826 0.00227354 -1.9667e-20)
(0.592 0.00206735 0)
(1.0194 -0.01656 -1.2909e-21)
(0.58437 -0.187101 1.77397e-19)
(0.992647 -0.0147077 -1.58881e-20)
(1.0396 0.144342 -4.51661e-21)
(1.22851 0.185868 3.16931e-20)
(1.08289 -0.00437043 9.90941e-21)
(1.13164 0.0306628 8.80636e-22)
(1.19328 0.135043 8.21193e-20)
(0.999933 -0.0275925 1.31926e-20)
(0.800744 -0.123312 0)
(1.02265 0.0534911 2.26812e-22)
(1.15665 0.296835 0)
(0.997579 -0.00826851 3.79695e-21)
(0.981653 -0.019861 -2.9204e-20)
(0.893733 -0.0751323 -3.86036e-20)
(0.769861 0.129674 -8.73884e-21)
(-0.233127 -0.0056189 -1.43165e-21)
(1.10843 0.0402478 5.54377e-21)
(1.03055 -0.0154563 -6.16283e-22)
(1.18985 0.203684 -4.05268e-21)
(1.24633 0.175953 -2.31485e-21)
(1.05069 0.102317 -3.588e-21)
(1.12781 0.0306837 1.17777e-20)
(0.732435 0.127755 0)
(-0.421055 0.0239652 2.90418e-20)
(1.08901 -0.0118826 1.79567e-20)
(1.08597 0.023209 0)
(0.84838 -0.167377 -8.8296e-20)
(1.02131 -0.0222672 0)
(1.00109 -0.00583948 -2.5549e-22)
(1.0517 0.106993 2.22631e-21)
(1.16834 -0.128605 4.70321e-20)
(1.02341 -0.0118286 -7.46444e-22)
(1.00006 -0.00147667 -3.55931e-21)
(1.00125 -0.0148182 0)
(1.00389 -0.000640514 -4.36118e-21)
(1.09893 0.0131175 -3.46292e-20)
(1.00114 -0.00630664 2.46441e-22)
(0.669527 0.0851496 2.59652e-20)
(1.10925 0.0344625 0)
(1.01267 -0.0347184 5.39139e-21)
(0.742951 -0.00028705 0)
(0.119498 0.100426 1.52578e-20)
(0.974739 -0.0217933 -8.77498e-21)
(1.09467 0.142347 -9.67334e-21)
(-0.555809 0.00683543 0)
(0.973832 -0.0501596 -6.74644e-21)
(0.973348 -0.0210855 -9.75128e-21)
(1.11251 0.0363714 0)
(0.172415 0.0429509 0)
(0.128941 -0.0575778 3.38601e-20)
(1.15897 0.0498662 0)
(1.00192 -0.00056019 4.80555e-21)
(0.770456 0.209335 -8.06346e-20)
(1.00067 -0.00736284 0)
(1.1703 0.052813 -3.1354e-21)
(-0.525366 0.00834217 -5.74002e-21)
(1.12733 0.288284 3.29807e-20)
(1.05724 0.00373071 9.1264e-21)
(0.971518 -0.206246 9.15773e-20)
(1.27103 -0.240668 7.16109e-20)
(-0.132783 -0.0370477 -3.27939e-20)
(1.30154 -0.0126306 0)
(0.776937 -0.0910691 -4.46223e-20)
(-0.174477 -0.0181129 -3.86647e-20)
(0.212084 0.141603 -1.93813e-21)
(1.21153 0.299841 0)
(1.04418 -0.0265599 -5.97157e-21)
(-0.281045 -0.0162675 8.89964e-20)
(0.360274 0.00068231 0)
(0.448759 -0.43067 0)
(0.483521 -0.437215 3.45037e-21)
(0.935487 -0.0247176 -1.15334e-20)
(1.1684 0.0372603 5.50592e-20)
(0.945038 -0.120318 0)
(0.579301 0.00277662 9.48006e-21)
(0.780033 -0.137966 -4.37011e-20)
(1.00815 -0.00213785 0)
(1.01926 6.25722e-05 1.59921e-22)
(1.07658 -0.0822054 2.03823e-20)
(-0.162018 -0.0370969 0)
(0.20049 -0.51564 0)
(1.02131 -0.0214272 0)
(-0.252301 -0.00909575 1.79212e-19)
(0.933979 -0.117246 2.02611e-20)
(1.11104 -0.0653561 0)
(1.05816 0.00489526 0)
(0.169231 0.0331338 -2.33665e-21)
(1.18035 0.199171 0)
(1.01425 0.0293773 0)
(1.02426 -0.0823415 0)
(1.07826 -0.0375983 -5.264e-21)
(0.765159 -0.00424022 0)
(0.976838 -0.0286875 0)
(1.25821 0.17543 0)
(1.08699 -0.0108859 -1.53941e-20)
(1.11554 0.0352784 2.10012e-20)
(0.927844 -0.11942 0)
(0.991989 -0.0148287 1.63846e-20)
(1.01347 -0.0341887 -4.62144e-21)
(1.28541 -0.118633 1.8111e-20)
(1.23462 -0.238155 7.30092e-20)
(1.17076 0.138013 0)
(1.1592 -0.217785 8.14536e-20)
(0.778069 -0.00544853 3.02025e-21)
(1.00981 -0.0768371 1.82151e-20)
(0.0199115 0.123834 -8.70018e-20)
(1.03723 0.165143 6.3733e-21)
(1.02795 -0.00724616 5.42696e-22)
(1.1178 0.292069 -4.84257e-20)
(1.10841 0.103054 9.37928e-21)
(-0.480134 0.0176781 0)
(1.07426 -0.0794286 -5.69018e-21)
(1.04122 0.0254241 0)
(0.979009 0.0422089 -6.49106e-21)
(0.948817 -0.119103 9.71561e-20)
(1.27526 -0.130086 0)
(0.577513 0.00225628 -1.69356e-20)
(1.04864 -0.0376289 1.06137e-20)
(0.985495 0.153962 -7.83351e-21)
(-0.325196 -0.00607904 0)
(1.10581 -0.0113808 0)
(0.553083 0.00991041 0)
(1.11511 -0.0118113 2.34331e-20)
(0.0788128 0.124322 0)
(1.08595 0.0217218 1.0791e-20)
(1.05561 0.0234559 0)
(1.20562 0.121853 1.11343e-19)
(1.26678 -0.225109 5.76046e-20)
(0.983716 -0.0127733 0)
(1.08748 -0.0183283 -2.16444e-20)
(1.17293 -0.133013 0)
(1.06525 0.0236218 2.14841e-22)
(1.01384 -0.0267404 0)
(1.10638 0.042741 -5.64059e-21)
(0.895431 0.282985 0)
(0.994919 -0.0296399 1.69542e-20)
(1.07752 0.0433042 1.37673e-20)
(-0.197266 -0.0113728 1.75772e-19)
(1.07039 -0.0357422 1.16534e-20)
(1.18967 -0.497914 7.30327e-20)
(1.05841 0.0320827 -6.20172e-23)
(0.167159 -0.0593027 0)
(1.08474 -0.0419881 -1.10306e-22)
(1.04513 0.0324306 3.04896e-22)
(0.879615 -0.672506 8.68284e-21)
(1.22212 0.193499 0)
(1.14117 0.0175882 0)
(0.5769 0.00195092 -1.83715e-23)
(-0.0628043 0.0408325 -1.51888e-20)
(1.24629 -0.372726 0)
(0.999138 -0.0276951 -7.92385e-21)
(1.28261 -0.111929 -8.85026e-21)
(1.11902 -0.0199489 0)
(1.04178 0.0271449 0)
(1.02821 -0.0170412 -2.5258e-22)
(-0.249068 -0.00337532 1.89058e-23)
(0.815968 0.297079 -6.73323e-21)
(0.921552 -0.0866928 -1.88182e-19)
(1.0775 -0.035381 1.04971e-20)
(1.203 0.128205 -9.08671e-20)
(0.976882 0.100964 -4.43553e-23)
(-0.221593 -0.0075367 -5.79092e-21)
(1.02423 -0.00243477 0)
(-0.320284 -0.00970477 -9.95819e-20)
(1.2825 -0.215361 -9.58642e-20)
(0.242298 -0.15246 8.42416e-20)
(1.05298 -0.142335 3.14224e-22)
(1.13795 0.197112 0)
(0.987544 -0.020005 1.18029e-20)
(1.00099 -0.000303945 0)
(0.460322 0.0175684 -6.44552e-20)
(0.978864 0.111522 0)
(0.990388 -0.0101009 -2.1122e-20)
(1.0734 -0.0187922 0)
(1.07892 0.0445844 -1.44655e-20)
(1.01317 -0.00941654 -2.09834e-21)
(0.878373 0.308363 9.64257e-21)
(1.1669 0.0423195 0)
(1.1123 0.100762 7.72986e-21)
(1.07067 0.0063128 -1.03397e-20)
(1.04925 -0.0362702 -5.10981e-21)
(0.971966 -0.0103464 0)
(1.02096 -0.133545 0)
(1.01146 -0.0340265 2.40391e-21)
(0.97301 -0.00924256 0)
(0.96364 0.000483933 -5.68493e-21)
(0.915112 0.288699 0)
(1.03524 -0.0941039 -3.64757e-23)
(0.982176 0.0484593 -5.90164e-21)
(0.995648 -0.00184929 9.42318e-21)
(1.00125 -0.0059671 0)
(1.07296 -0.0364465 -1.58199e-20)
(1.17826 0.140918 0)
(1.05641 0.0291332 5.27593e-21)
(1.01374 -0.028264 1.98318e-21)
(1.05792 -0.0271236 -5.39625e-21)
(1.09075 -0.370981 2.45969e-20)
(1.06365 -0.012652 -9.97929e-21)
(0.188999 -0.055647 6.627e-20)
(1.00112 -0.00756606 -1.2481e-20)
(1.06612 0.0146629 0)
(0.836448 0.0150601 1.25219e-20)
(0.93361 -0.163656 0)
(1.01875 -0.000519808 2.40373e-22)
(1.00015 -0.0060665 -5.77628e-21)
(1.0708 0.00538204 1.26317e-20)
(1.04801 -0.00716384 -1.58943e-22)
(1.21752 -0.41325 0)
(0.975239 -0.00824536 -6.20724e-21)
(1.10735 0.00675199 5.51904e-21)
(0.306505 -1.07624 -5.65993e-20)
(1.07457 -0.0346062 8.56725e-21)
(0.999977 -0.0109334 0)
(0.515122 0.181663 8.81034e-21)
(0.978758 0.0469892 0)
(0.873248 -0.123191 0)
(0.996207 -0.0335985 0)
(0.197618 0.131075 6.09694e-21)
(0.854591 -0.0929786 2.46137e-20)
(1.11047 -0.633412 -1.38208e-20)
(0.989395 -0.0308112 -4.21598e-21)
(1.1129 -0.0548181 0)
(1.28241 -0.128001 0)
(1.07078 0.0270982 7.70224e-21)
(0.277531 0.161235 -9.71517e-21)
(0.973891 0.097749 1.0423e-21)
(0.991164 -0.0980526 1.7e-19)
(0.976213 -0.0739166 0)
(1.30677 -0.00586448 0)
(1.00117 -0.0288957 1.66319e-21)
(0.736759 0.0049178 2.3289e-20)
(1.05956 0.032437 -1.71626e-21)
(1.05386 0.116022 0)
(1.11645 -0.0178714 7.0181e-21)
(1.02486 -0.0790238 0)
(0.940197 -0.161836 0)
(1.16331 0.0332131 3.04949e-20)
(1.00151 -0.000490905 0)
(-0.255703 -0.00612247 -1.33696e-22)
(0.453823 0.169223 0)
(0.2132 -0.0563509 -2.87912e-22)
(-0.167643 9.47982e-05 -1.66512e-19)
(0.972613 -0.00459375 5.78982e-21)
(-0.387862 -0.0218864 -1.71367e-19)
(1.24074 0.185879 -4.05387e-20)
(0.910536 -0.0807257 0)
(0.999574 -0.00169505 -4.84051e-21)
(1.13077 -0.482642 -8.95484e-21)
(0.991124 -0.00849993 9.30886e-21)
(1.01348 -0.026064 -1.5408e-21)
(0.903851 -0.0972733 0)
(-0.171263 0.00546231 -1.81207e-19)
(1.06912 -0.0106925 1.53536e-20)
(0.970511 -0.043072 -1.05251e-20)
(1.06124 -0.298452 0)
(1.15967 -0.0139237 5.31062e-21)
(0.989155 -0.00409849 -1.53267e-20)
(0.493666 -0.0297751 2.01071e-19)
(1.00907 -0.0255837 0)
(0.471863 0.204389 1.78353e-21)
(1.20997 -0.398332 0)
(1.00561 -0.0206149 3.65031e-21)
(1.06206 -0.00356871 -1.65597e-20)
(1.30139 -0.19045 0)
(1.14595 0.301415 2.09531e-20)
(1.02281 -0.0122301 -6.90292e-22)
(0.683171 -0.109377 -7.04221e-20)
(0.936911 -0.381157 0)
(1.03138 -0.0019622 9.41399e-22)
(-0.130519 -0.046832 -3.45313e-20)
(1.27986 0.174365 0)
(1.1142 0.141727 0)
(0.974809 -0.0721481 1.77075e-20)
(0.958934 0.00503182 -1.21749e-20)
(-0.287221 0.0371938 -8.22298e-21)
(1.03209 -0.00212446 -1.11116e-21)
(1.36085 0.030819 -1.33151e-19)
(1.01952 -0.0416391 4.92726e-21)
(1.00957 -0.0261634 0)
(0.992532 -0.0128197 -1.23012e-20)
(0.0824606 0.117345 5.68171e-20)
(1.13482 -0.0156641 -2.1039e-20)
(1.05634 0.0280723 -6.74857e-21)
(0.990497 -0.00729498 0)
(1.05277 0.0395355 -1.0633e-20)
(0.427541 0.201693 2.4831e-21)
(-0.185715 -0.0305595 -7.63075e-20)
(1.03543 -0.0048118 3.29995e-21)
(-0.396777 -0.0140087 0)
(1.01331 -0.0276209 0)
(1.02085 -0.0422803 1.61004e-21)
(1.14126 0.021044 -7.04753e-21)
(1.06206 0.0155313 -1.02075e-20)
(1.02443 -0.00215497 -3.52043e-22)
(1.01988 -0.0769029 5.73322e-21)
(-0.121196 -0.0495244 1.44767e-19)
(1.26365 -0.220057 1.29581e-21)
(-0.152343 -0.045834 0)
(1.06712 -0.01156 0)
(0.992874 -0.0155121 0)
(0.796885 0.11686 -9.64681e-21)
(0.99932 -0.00282851 0)
(1.28969 -0.096817 0)
(1.07144 0.0125507 0)
(1.06848 0.0236855 1.37718e-20)
(1.1101 -0.000496463 -2.73977e-20)
(0.91289 0.00509806 3.66205e-20)
(-0.403276 0.0291596 5.66317e-20)
(1.08618 -0.0234763 1.48529e-20)
(-0.30346 -0.0101545 -1.71153e-19)
(1.05665 0.00198737 -2.19945e-21)
(1.18565 0.0155592 -1.71244e-21)
(0.802118 0.00500538 5.33751e-21)
(0.490857 0.033547 -2.63864e-20)
(1.01295 -0.0428787 -1.56237e-21)
(1.00041 -0.028801 0)
(0.811777 -0.155662 -1.12772e-20)
(-0.148616 -0.0466315 -1.68158e-19)
(0.995813 0.0240816 4.16798e-21)
(1.0528 0.0380436 7.63185e-21)
(0.989939 -0.544981 -9.28811e-20)
(1.06162 0.0158339 1.08278e-20)
(1.08361 0.0209974 -2.35171e-20)
(0.0160761 -0.040465 -1.04954e-19)
(0.440159 -0.0414226 0)
(1.06633 -0.35741 -1.83804e-20)
(0.453618 0.196612 1.70683e-21)
(1.00975 0.105675 -3.00079e-23)
(0.803405 -0.00543193 0)
(1.0442 -0.0367578 -3.34263e-21)
(0.976482 0.0369619 -1.63218e-20)
(1.23639 0.201102 -6.81237e-20)
(0.999607 -0.00909058 0)
(-0.622693 -0.00652133 1.16698e-19)
(0.342454 0.036522 6.12807e-20)
(1.03447 -0.129257 1.4156e-21)
(1.09193 0.045284 -7.1245e-21)
(1.00303 -0.0386908 9.14917e-21)
(0.443856 -0.807048 -9.76397e-21)
(1.15077 -0.21133 7.98751e-20)
(0.451369 -0.160834 8.57822e-20)
(1.01074 -0.0346334 3.08493e-21)
(1.00057 -0.000399503 0)
(0.909234 -0.0483946 0)
(1.15818 -0.0183468 -9.24e-21)
(1.00117 -0.00724247 -2.10705e-21)
(-0.216774 0.00305196 2.14345e-19)
(1.00067 -0.00048993 0)
(1.0143 0.107565 0)
(0.969419 -0.0705271 0)
(1.04076 0.0281901 -1.01983e-21)
(0.990921 -0.0312924 -2.04778e-20)
(0.988436 -0.00443491 -1.99474e-20)
(1.09867 -0.173865 1.13479e-20)
(-0.399187 -0.017047 7.7336e-23)
(1.14588 0.01058 -2.88757e-20)
(-0.265586 -0.0126756 0)
(1.11355 -0.0586101 4.21749e-21)
(1.01338 -0.01052 2.38415e-21)
(1.031 -0.00950195 -1.22421e-21)
(1.16941 0.0252283 2.84698e-21)
(1.05688 -0.0283363 5.85662e-21)
(1.25033 -0.00568357 0)
(1.07386 -0.0118524 -8.84003e-21)
(0.873568 -0.11545 0)
(0.979775 0.0339099 0)
(0.99921 -0.00252545 -1.66979e-20)
(0.580182 -0.00160607 0)
(1.00002 -0.000972978 9.08665e-22)
(1.03196 0.0242479 -5.12808e-22)
(-0.28711 -0.00991863 9.50628e-20)
(0.828189 0.0420703 0)
(0.881061 -0.0277618 -9.49241e-21)
(0.645261 -0.238968 -5.70653e-20)
(1.0503 -0.296459 0)
(1.21603 -0.28861 0)
(0.316248 0.0404615 3.53942e-20)
(1.03779 -0.00566542 -4.37955e-21)
(0.415468 -0.037114 -1.78868e-19)
(0.939226 -0.122438 0)
(1.10893 -0.0106593 2.936e-20)
(-0.156501 -0.00170384 1.81193e-19)
(1.21265 0.0239884 0)
(1.02844 -0.00769487 -4.51344e-22)
(1.24585 -0.0100524 0)
(1.0447 -0.00772379 0)
(0.769849 -0.00393443 0)
(-0.557268 -0.00962256 5.51973e-20)
(1.02627 -0.0431251 -1.37012e-21)
(0.686645 -0.140122 2.22558e-20)
(0.823881 0.297652 3.80807e-20)
(0.999964 -0.000685102 -7.32411e-21)
(0.999942 -0.000967322 8.96408e-21)
(1.04243 0.0317002 6.36815e-21)
(0.561575 -0.00240559 -2.50409e-21)
(0.95623 0.0137207 1.16699e-20)
(0.973563 -0.0197006 0)
(1.21941 0.112455 0)
(1.06195 -0.0129064 -4.69109e-21)
(0.987352 -0.00572256 0)
(0.982494 0.0269373 0)
(1.2164 0.120009 -2.89425e-20)
(1.2335 -0.221184 -6.14231e-20)
(1.02287 -0.00201713 1.45452e-22)
(1.02363 0.0561251 0)
(0.89836 -0.209602 2.21861e-20)
(1.04742 0.0306276 0)
(0.957021 -0.0221286 -1.83124e-20)
(1.00907 -0.0704791 0)
(1.14245 -0.209685 -5.59518e-20)
(0.91338 -0.0497649 -4.00199e-20)
(1.01826 0.0505654 -1.51749e-22)
(1.11457 0.0439151 1.90853e-20)
(1.12118 0.0411813 1.23942e-20)
(1.05658 -0.343687 -4.33773e-21)
(1.12474 -0.659152 -2.90222e-20)
(1.29881 0.161261 1.12388e-19)
(0.916439 0.135713 -2.0345e-20)
(0.772341 -0.115248 0)
(1.01212 0.0423408 0)
(0.327469 0.0657033 -2.82992e-20)
(1.02056 -0.18519 -4.61649e-22)
(0.992624 -0.0142383 1.2676e-20)
(1.10723 0.145238 2.82205e-20)
(1.033 -0.0194179 0)
(1.08317 0.0192113 1.03029e-20)
(1.29274 0.14954 -1.37785e-19)
(1.0625 -0.0893191 0)
(1.00518 -0.0191892 6.64509e-21)
(1.00565 -0.0181639 0)
(1.03098 0.0275691 -7.19335e-22)
(0.568413 -0.000298346 7.82639e-22)
(1.06721 0.0151528 0)
(-0.0225881 0.111484 0)
(1.0132 -0.0109564 -2.10849e-21)
(0.951993 0.0147083 -6.63465e-21)
(0.979047 -0.379024 -5.45156e-22)
(-0.56736 0.00511648 2.02303e-19)
(1.246 -0.0204069 0)
(1.08712 -0.0410469 -1.02147e-21)
(1.07163 -0.0146075 -9.77107e-21)
(-0.544416 0.00677826 -1.48983e-19)
(1.23801 -0.216002 -1.15335e-19)
(1.02157 -0.177962 0)
(0.975211 0.107877 0)
(1.04774 -0.0342765 -8.31128e-21)
(1.15966 -0.447274 0)
(1.03057 0.0260106 5.79489e-22)
(1.01759 0.11404 8.75938e-22)
(1.11763 -0.0334452 3.97284e-20)
(1.31779 -0.216059 0)
(0.988283 -0.0204017 0)
(1.00003 -0.00114233 0)
(0.940538 -0.0232591 1.14987e-20)
(0.986682 -0.00665114 0)
(0.792557 0.00869365 6.10677e-21)
(1.00365 -0.000786613 0)
(0.985355 0.0259944 2.94887e-21)
(0.760585 0.119189 1.0677e-20)
(1.25166 -0.0238649 -1.43523e-20)
(-0.17191 -0.0256095 1.16054e-19)
(-0.478531 0.0178273 -4.66255e-20)
(1.01668 0.117706 0)
(1.2254 -0.287418 -5.84216e-21)
(0.883863 -0.035294 8.01273e-21)
(0.998594 0.000997619 1.69416e-20)
(0.982879 -0.0190324 -2.79641e-20)
(1.0208 -0.00589842 -5.16382e-22)
(1.03034 -0.00962489 1.25688e-21)
(1.00081 -0.000466168 5.55133e-21)
(1.18047 0.0267149 -2.62444e-20)
(1.29453 0.0283279 -1.80058e-21)
(0.894493 -0.221048 0)
(1.20521 0.303884 -9.53231e-20)
(1.02587 -0.0655867 0)
(0.6296 0.0849909 4.00879e-22)
(0.999998 -9.33658e-06 -1.1842e-20)
(-0.146448 -0.016811 -4.79367e-20)
(1.1359 -0.0942226 7.78707e-21)
(0.999975 6.61544e-06 1.79666e-20)
(0.996976 -0.000125053 4.52386e-23)
(0.818381 0.0508887 8.18151e-21)
(1.08824 -0.032752 -7.23396e-21)
(0.927738 0.0688014 0)
(0.368486 0.0479821 0)
(1.0887 0.0417243 -2.95763e-22)
(1.11606 0.0738507 5.17561e-21)
(1.03089 -0.00125901 -2.72594e-21)
(0.591834 0.223014 0)
(0.985345 -0.0848491 -2.16622e-21)
(1.07048 -0.0117362 -2.03406e-20)
(0.979875 0.0309844 -1.34231e-22)
(0.998608 0.000497932 5.58529e-21)
(0.973884 -0.0460481 -1.63714e-20)
(1.03581 -0.0101016 0)
(1.06166 0.0343654 -8.42192e-21)
(0.558333 0.00310362 1.1615e-20)
(1.10241 -0.0549698 -4.38348e-20)
(1.11785 -0.0265285 1.58159e-20)
(1.28359 -0.224521 1.04948e-19)
(-0.226262 -0.0301384 0)
(0.884889 -0.0576054 0)
(0.986924 -0.108898 1.01404e-20)
(0.813457 -0.00217783 -6.61776e-21)
(1.02038 -0.00570986 0)
(0.797789 -0.00144172 1.23747e-20)
(1.00029 -0.000948864 6.46111e-21)
(1.06388 -0.011011 -1.07177e-20)
(1.02165 -0.0274136 0)
(1.05112 0.0663231 6.33582e-22)
(1.04114 0.103762 -3.23302e-21)
(1.23061 -0.116094 -2.66237e-20)
(1.14596 0.0146958 8.09009e-21)
(0.999496 0.00016305 0)
(0.999996 -2.91246e-05 -1.26129e-20)
(1.19219 0.0177119 -5.90589e-20)
(1.04578 -0.0364259 -4.05698e-21)
(0.999638 0.000257587 0)
(1.06455 0.0167691 8.99903e-21)
(1.25485 -0.25841 0)
(1.00448 -0.00603359 -7.33792e-21)
(1.20093 -0.299308 3.93302e-20)
(1.22396 -0.493509 -8.05473e-20)
(0.94038 0.0515166 0)
(1.23008 -0.109088 0)
(-0.0526039 -0.0305508 1.41436e-22)
(0.835639 -0.0899366 -7.14489e-21)
(0.998452 0.000665746 -1.84238e-20)
(1.2672 -0.144451 -3.20593e-20)
(1.01258 -0.0114933 -2.70061e-21)
(1.08764 -0.0160312 0)
(0.91613 0.129342 2.83998e-20)
(0.779004 -0.00621685 -9.74453e-21)
(0.403399 -0.0387471 -2.58462e-20)
(0.850882 -0.00334242 -1.93745e-20)
(1.03012 -0.0430609 -1.48174e-21)
(1.02612 -0.0422444 -2.67903e-21)
(0.96619 -0.285934 -9.53823e-21)
(1.00533 -0.067942 -1.53296e-20)
(1.02333 -0.0193311 -4.85336e-23)
(0.486777 -0.261334 -6.25508e-20)
(1.03268 0.142934 0)
(0.540054 0.0164023 1.54189e-20)
(1.03155 0.0228759 0)
(1.05106 0.0685393 0)
(0.985355 -0.00879708 2.53965e-21)
(1.02123 -0.0126893 0)
(1.18105 -0.349995 4.48827e-20)
(1.1185 0.101956 -4.054e-20)
(1.0659 -0.0104134 0)
(0.999805 0.000660016 4.15402e-21)
(1.03542 0.0980055 8.24781e-21)
(1.31645 -0.0411773 -1.88522e-19)
(-0.00492564 0.111295 -5.05713e-20)
(0.972663 -0.0243601 4.83063e-21)
(1.00069 -0.00287821 6.10892e-21)
(0.539256 0.00154442 1.34925e-20)
(0.958203 -0.020753 -1.43378e-20)
(1.11273 -0.00604092 -3.11589e-20)
(1.01274 -0.00891402 -9.53549e-22)
(-0.147493 0.0125297 6.99044e-20)
(1.00991 -0.000546918 1.65349e-21)
(-0.283524 -0.0154121 1.5496e-19)
(0.994753 -0.00619011 5.02909e-21)
(1.20884 -0.233451 5.87699e-20)
(1.10933 0.0226184 1.75529e-20)
(0.942375 -0.28782 -5.87142e-21)
(1.11968 -0.0307913 -5.03472e-20)
(0.993415 -0.028754 -5.46722e-21)
(1.07359 -0.0217542 0)
(1.00302 -0.00411212 0)
(0.989114 0.0211072 8.93377e-21)
(0.961281 -0.0299092 -1.53516e-20)
(0.613073 0.000928777 0)
(1.04991 -0.0330126 -3.1982e-21)
(0.963916 0.218618 0)
(0.613126 0.177525 3.63799e-20)
(1.11298 -0.0399402 2.38551e-20)
(1.00363 -0.00301907 2.89722e-23)
(-0.174078 -0.0148518 0)
(0.966026 5.88711e-05 0)
(1.08875 -0.0228412 -3.17711e-20)
(1.04867 0.062806 -9.57013e-21)
(0.982876 -0.01804 2.78008e-20)
(0.56587 0.000811036 -2.75384e-20)
(1.03392 -0.0199828 3.74736e-22)
(1.29903 0.139845 0)
(0.999006 -0.0102149 -1.45385e-20)
(1.0033 -0.00435164 -3.43664e-21)
(0.934129 0.0679681 4.09876e-21)
(1.11013 0.0021191 3.25285e-20)
(1.0002 -0.0066735 -5.92825e-21)
(1.06172 0.0209057 -1.48838e-20)
(0.17997 0.161052 -2.38988e-21)
(0.691062 -0.768599 0)
(0.766537 0.286081 -4.95106e-20)
(1.01853 -0.0166651 0)
(0.361265 0.0738191 2.13041e-20)
(0.997357 -0.008967 -1.30438e-20)
(1.00424 -0.00564588 5.53287e-21)
(0.973957 -0.0272498 -5.00235e-21)
(1.01925 5.75527e-06 1.01816e-22)
(0.99983 -0.00132294 0)
(0.623717 0.230109 1.23745e-19)
(0.920146 0.170125 -6.10256e-21)
(1.04649 -0.0177961 1.59762e-22)
(1.0007 -0.000670494 0)
(1.13578 -0.0112727 2.19038e-20)
(1.01694 -0.024417 1.73201e-21)
(-0.14583 -0.018977 7.79354e-20)
(1.27499 -0.141874 0)
(0.304321 0.0531212 0)
(-0.152092 -0.0217036 1.56097e-19)
(1.07345 -0.0230933 -5.9227e-21)
(1.01909 0.0533388 1.87335e-21)
(0.999644 -0.00980815 6.70433e-21)
(1.11007 0.0288558 -3.36838e-20)
(0.97554 -0.36147 -5.25761e-22)
(1.03709 -0.00515805 6.41433e-21)
(1.00024 -0.000923536 -6.63367e-21)
(1.28793 -0.36572 5.88448e-20)
(-0.545377 -0.00920281 -2.97785e-19)
(1.11233 0.0717817 0)
(-0.38763 -0.00952599 -1.90927e-19)
(1.07776 0.0631093 0)
(0.995724 -0.00272351 1.83931e-20)
(1.14376 -0.0273399 -2.83451e-20)
(1.04587 0.0621668 9.45193e-21)
(-0.456897 -0.0134975 0)
(1.09707 0.0108593 -3.06728e-21)
(0.956957 0.061124 1.26855e-20)
(1.12292 0.104589 4.54491e-20)
(1.00011 -0.00168354 4.70139e-21)
(0.257902 -0.0948215 0)
(0.17484 -0.0636172 0)
(0.585013 0.00584281 1.90073e-20)
(1.10396 0.0222857 0)
(0.99746 -0.0143887 -7.67205e-21)
(0.979351 -0.0748175 1.91506e-20)
(0.713884 -0.344612 -2.13388e-20)
(0.972476 -0.00752426 8.97465e-21)
(1.0121 0.216317 -9.3225e-21)
(1.06133 -0.0856381 0)
(1.00795 -0.00170151 9.78494e-23)
(0.680848 0.260357 -6.07447e-20)
(1.02189 -0.0649073 -7.36696e-21)
(1.00354 -0.00276447 2.89878e-21)
(1.01429 -0.0427965 3.02359e-21)
(1.02038 -0.0631589 4.76122e-21)
(-0.194265 0.00909499 9.67794e-21)
(1.27547 0.162606 4.09607e-20)
(1.01256 -0.0161169 -2.05227e-21)
(1.14599 -0.0230849 0)
(0.220038 0.0438647 7.72598e-21)
(1.04063 -0.0580229 3.16379e-22)
(-0.395942 -0.00846231 -1.16676e-19)
(0.957425 -0.0465951 0)
(1.06339 0.0735721 -9.15309e-21)
(0.000273865 0.0954461 5.33308e-20)
(1.00097 -0.00652521 2.23719e-21)
(0.993457 0.0221396 0)
(1.07224 -0.102451 -3.96256e-21)
(1.11699 -0.0407971 -8.05293e-21)
(0.645941 -0.793785 2.81575e-20)
(1.02442 -0.0640544 -1.30086e-21)
(1.34058 -0.12934 -1.30634e-20)
(1.04577 0.030895 0)
(0.255095 0.179039 0)
(1.04555 -0.00267252 -8.24267e-21)
(0.60012 0.000539672 1.24761e-20)
(1.10504 -0.0147213 3.16881e-20)
(0.093191 0.0815067 1.30741e-20)
(-0.529043 -0.011123 1.14673e-19)
(0.579999 0.000228665 1.96245e-21)
(1.08348 0.0420702 -2.86592e-20)
(0.990358 -0.0271812 1.81269e-20)
(1.02947 -0.0443664 1.34172e-21)
(0.999955 -0.000632609 -5.31123e-21)
(1.05618 0.0229625 0)
(0.996896 -0.00207987 -3.88004e-21)
(0.291269 0.169294 1.95958e-21)
(1.03097 -0.120331 0)
(0.923673 -0.0896558 -2.28711e-20)
(0.88801 -0.0542854 1.85253e-20)
(0.981505 -0.0733473 -8.01397e-22)
(1.01808 -0.0161066 2.39407e-21)
(1.05801 0.0143814 -7.06316e-21)
(1.06907 -0.0865595 -5.13775e-21)
(1.06216 -0.00466496 0)
(1.04673 -0.0996552 3.14446e-21)
(0.255646 0.0597917 -3.5922e-20)
(0.993403 0.0165736 0)
(1.09882 -0.00549507 2.25313e-20)