/*--------------------------------*- C++ -*----------------------------------*\
| =========                 |                                                 |
| \\      /  F ield         | OpenFOAM: The Open Source CFD Toolbox           |
|  \\    /   O peration     | Version:  v2012                                 |
|   \\  /    A nd           | Website:  www.openfoam.com                      |
|    \\/     M anipulation  |                                                 |
\*---------------------------------------------------------------------------*/
FoamFile
{
    version     2.0;
    format      ascii;
    class       surfaceVectorField;
    location    "100";
    object      Uf;
}
// * * * * * * * * * * * * * * * * * * * * * * * * * * * * * * * * * * * * * //

dimensions      [0 1 -1 0 0 0 0];


internalField   nonuniform List<vector> 
20580
(
(1.08672 0.136788 -1.79164e-21)
(1.08303 0.143323 1.32301e-20)
(1.08086 0.135353 -1.13157e-20)
(1.07255 -0.0170734 0)
(1.07331 -0.0181146 0)
(1.07448 -0.0166425 0)
(1.07152 -0.0155287 0)
(1.07038 -0.0169989 0)
(-0.182395 -0.0122605 4.19977e-20)
(-0.159946 -0.0151731 -1.20125e-19)
(-0.181711 -0.0131304 -4.92732e-20)
(1.00179 -0.000498029 -3.86576e-22)
(1.00159 -0.000451644 -2.4295e-21)
(1.00165 -0.000269651 -5.00208e-21)
(1.08752 -0.0295757 0)
(1.08765 -0.0320257 0)
(1.08507 -0.0310343 -7.12685e-21)
(1.05439 0.0101892 0)
(1.05461 0.0107965 -3.3567e-21)
(1.01397 -0.0009073 -4.72837e-22)
(1.01366 -0.000933997 -9.41287e-22)
(1.01285 -0.00058295 -9.82791e-22)
(0.660124 0.0821127 3.17152e-21)
(0.668526 0.0783183 1.60812e-21)
(0.626176 0.0747987 -2.58916e-20)
(0.990667 -0.00968918 2.44474e-21)
(0.991083 -0.00885154 -3.43179e-21)
(0.991473 -0.0094161 8.15159e-21)
(1.19399 -0.109831 -2.63611e-20)
(1.18699 -0.108754 3.83872e-20)
(1.19009 -0.11598 2.17282e-20)
(1.00088 -0.00787672 3.52587e-22)
(1.00105 -0.0083008 2.62229e-21)
(1.0009 -0.00835631 4.27608e-22)
(0.980692 -0.0225618 8.8724e-21)
(0.980284 -0.0235154 1.61734e-20)
(0.981487 -0.0231577 4.3252e-21)
(0.307239 0.0408631 6.32371e-21)
(0.286648 0.03086 -3.05268e-20)
(0.302817 0.0483923 -2.47457e-20)
(1.08887 0.0293419 4.25789e-21)
(1.09081 0.0306598 5.65643e-21)
(1.09063 0.0281281 9.12225e-22)
(1.01641 0.0266063 8.85746e-23)
(1.01757 0.024828 0)
(1.01515 0.0252966 -8.81452e-23)
(-0.375556 -0.0168097 -3.48449e-20)
(-0.387164 -0.010553 0)
(-0.388381 -0.010581 -7.28111e-20)
(1.03579 -0.0176682 -1.43664e-21)
(1.03668 -0.0175867 -2.42081e-22)
(1.03642 -0.0185476 -1.40616e-21)
(1.28818 0.173351 4.50771e-20)
(1.29797 0.166258 -3.75786e-20)
(1.30931 0.179304 2.37627e-20)
(1.09246 0.139541 1.47911e-21)
(1.09051 0.131899 -3.78861e-21)
(1.10894 0.0333726 6.58758e-21)
(1.10942 0.0302589 -1.34528e-21)
(1.10606 0.031542 -3.39058e-21)
(1.04397 -0.0952678 0)
(1.04035 -0.0957505 -5.40733e-23)
(1.04217 -0.0919526 9.36832e-22)
(0.609558 -0.311065 3.54316e-20)
(0.470601 -0.24772 -5.57786e-21)
(0.337222 -0.186051 2.63946e-21)
(1.00004 -0.000139664 1.48148e-24)
(1.00006 -0.000188039 1.21431e-21)
(1.00004 -0.000117691 9.83014e-21)
(0.9461 -0.0421657 1.56461e-20)
(0.925403 -0.0470434 -3.56154e-20)
(0.838174 -0.0436673 -2.39739e-21)
(1.04417 0.0327784 -1.27445e-21)
(1.04278 0.0323054 -1.48305e-22)
(1.04307 0.0339657 -1.86274e-21)
(0.972682 0.0819009 1.03251e-20)
(0.969126 0.083611 5.78302e-22)
(0.96972 0.0782298 -1.73456e-22)
(1.20489 0.302339 -3.62294e-20)
(1.20475 0.304222 -3.50012e-21)
(1.17046 0.308829 2.36734e-20)
(0.771185 0.0041992 1.62303e-20)
(0.745067 0.00503178 -3.59125e-21)
(0.74053 0.00606429 8.69992e-21)
(1.02167 -0.0119968 -1.02757e-21)
(1.02132 -0.0124849 -5.15862e-22)
(1.02102 -0.0118217 -2.71625e-22)
(-0.089952 -0.0311107 5.12114e-20)
(-0.118674 -0.0310072 7.7303e-20)
(-0.075854 -0.0331781 6.00445e-20)
(1.05494 0.0100823 0)
(1.05412 0.00974691 -3.05855e-21)
(1.06593 0.126987 0)
(1.06175 0.123684 0)
(1.0674 0.121932 6.24731e-22)
(0.641718 0.229047 -7.68216e-24)
(0.618647 0.228266 7.25133e-21)
(0.692789 0.245822 1.28855e-21)
(1.14825 -0.086974 -1.02477e-20)
(1.15015 -0.0823744 -3.1207e-21)
(1.15261 -0.088187 -8.83016e-21)
(0.75303 0.000638899 0)
(0.782564 -0.000942519 0)
(0.755938 -0.00119405 0)
(1.00001 -8.99055e-05 -7.57275e-21)
(1.00004 -0.000166891 -8.06474e-21)
(0.96546 -0.170018 0)
(0.86355 -0.150293 1.25859e-20)
(0.836793 -0.145024 0)
(-0.14527 -0.0391491 6.08537e-21)
(-0.129581 -0.0379077 -6.52013e-20)
(-0.0858347 -0.0411799 -1.06667e-19)
(1.00688 -0.0411148 0)
(1.00764 -0.0401744 0)
(1.0081 -0.0414073 5.95388e-21)
(0.177664 0.158375 -8.85089e-21)
(0.256375 0.175579 1.5263e-20)
(0.204586 0.165474 -1.02025e-20)
(0.796417 0.00427341 0)
(0.801089 0.00218262 -5.19869e-21)
(-0.274708 -0.00512635 5.32491e-20)
(-0.279364 -0.00515987 -6.45163e-20)
(1.06481 -0.479376 0)
(1.05339 -0.485466 1.71933e-20)
(1.05142 -0.490416 -1.44054e-20)
(0.838697 0.0120582 -2.43165e-21)
(0.833406 0.0145549 -6.40752e-21)
(0.803351 0.0132208 -7.15065e-21)
(1.01586 -0.0244693 0)
(1.01511 -0.0245981 -1.08831e-21)
(1.01534 -0.0237043 0)
(1.01925 8.13475e-05 3.15691e-23)
(1.01908 0.000101369 -1.49967e-23)
(1.01418 0.048838 0)
(1.01251 0.0469882 -8.3039e-23)
(1.01541 0.0464078 -9.70484e-23)
(1.04974 -0.0583909 0)
(1.04767 -0.0565779 0)
(1.05042 -0.0561921 -4.73261e-22)
(0.981062 -0.0214295 -4.34316e-22)
(0.979664 -0.0218155 -1.14912e-20)
(-0.557399 -0.000495308 -2.60379e-20)
(-0.557819 -0.000831547 -2.12336e-20)
(-0.611449 -0.000120168 -2.19916e-20)
(0.972964 -0.015827 -1.07652e-20)
(0.974184 -0.0158955 8.70905e-21)
(0.973357 -0.0171165 6.12739e-21)
(1.01539 0.0287099 -1.01037e-22)
(1.01816 0.0279022 -6.97255e-22)
(1.06136 0.0199492 8.19652e-22)
(1.06154 0.0206253 2.28914e-21)
(1.06081 0.0202579 -2.96154e-21)
(0.461499 0.0199852 -1.9802e-21)
(0.477389 0.0285166 -4.02458e-20)
(0.450942 0.0210397 -1.63498e-20)
(1.00629 -0.0420771 2.98859e-21)
(1.00579 -0.0407616 5.15783e-21)
(1.06331 0.133229 0)
(1.07115 0.130195 4.98696e-23)
(0.145989 0.150204 3.42689e-20)
(0.104767 0.136746 -1.91689e-21)
(0.97739 0.041895 7.50713e-21)
(0.976105 0.039045 -2.842e-21)
(0.974089 0.0426781 8.22644e-21)
(-0.128384 0.0412429 -5.42276e-24)
(-0.104657 0.043502 8.05362e-23)
(-0.0979697 0.0543892 -3.18713e-21)
(1.00074 -0.00745399 -3.41455e-21)
(1.00086 -0.00741148 4.79897e-21)
(0.976424 0.0804494 -1.33048e-21)
(0.975889 0.0854469 8.84192e-21)
(0.995537 -0.00214153 -1.12473e-23)
(0.995584 -0.00257066 -1.19446e-20)
(0.995108 -0.00270426 -1.0308e-20)
(1.04879 -0.0600749 -1.4486e-21)
(1.05137 -0.0595635 0)
(0.842146 -0.449541 9.4648e-23)
(0.865884 -0.446323 2.64306e-21)
(0.851096 -0.428801 -1.33134e-20)
(0.816512 -0.452466 -4.53116e-21)
(0.833885 -0.477364 -7.81433e-21)
(-0.154234 0.0311145 0)
(-0.165434 0.0254255 0)
(0.695344 -0.112181 0)
(0.688424 -0.128215 0)
(1.02267 -0.041425 1.00481e-22)
(1.02142 -0.0417808 -2.37281e-21)
(1.0219 -0.0403655 -1.42377e-21)
(-0.131797 -0.0177386 -6.50529e-20)
(-0.160432 -0.0142739 3.29807e-20)
(-0.149251 -0.0161023 -6.72637e-20)
(-0.163438 -0.0301133 -2.19326e-20)
(-0.200866 -0.0263869 -2.44189e-20)
(-0.16749 -0.0325227 -1.13643e-22)
(1.11691 0.0440021 1.11574e-20)
(1.12013 0.0426616 1.14413e-20)
(1.11994 0.0470218 2.12972e-21)
(0.994557 -0.0295284 4.94812e-21)
(0.993723 -0.0291949 2.78223e-21)
(0.993924 -0.0303663 3.38605e-21)
(-0.085584 0.0451671 1.49391e-22)
(-0.122563 0.0273762 4.17713e-23)
(1.06575 0.023526 -5.5242e-21)
(1.06624 0.0227102 -6.59002e-21)
(1.06681 0.0237647 -5.58544e-21)
(1.02347 -0.0779189 1.22452e-21)
(1.02099 -0.0767267 0)
(1.02321 -0.07501 -1.68307e-21)
(-0.351394 -0.0193935 -4.07056e-20)
(-0.337238 -0.020725 2.91826e-20)
(1.02171 -0.00541973 -7.98151e-24)
(1.02157 -0.00581514 1.11251e-22)
(1.02224 -0.00571743 3.25469e-22)
(0.962462 -0.0363596 -1.06736e-19)
(1.06338 -0.044586 -1.98043e-20)
(1.00539 -0.020293 -3.67773e-21)
(1.00515 -0.0195496 -1.56099e-21)
(1.0048 -0.0199427 -1.78947e-21)
(1.02399 -0.0413158 8.22692e-22)
(1.02335 -0.0427763 -3.01536e-22)
(1.33536 -0.149076 -1.54551e-20)
(1.34152 -0.143533 5.87291e-20)
(1.34874 -0.15487 0)
(1.14334 -0.0864927 0)
(1.14545 -0.0920494 0)
(0.242434 0.0404879 6.44337e-21)
(0.265796 0.045489 1.73128e-20)
(0.273224 0.057849 -1.57005e-20)
(-0.0683102 0.0453808 4.69969e-23)
(-0.0532144 0.0599121 -9.64159e-22)
(-0.13639 -0.0297135 3.93637e-20)
(-0.129763 -0.0315109 7.96469e-23)
(-0.0975174 -0.0339712 -7.55378e-20)
(1.04618 -0.098057 0)
(1.04729 -0.0942479 5.11541e-22)
(0.576759 0.00242633 7.27479e-21)
(0.547815 -1.55207e-06 7.55256e-21)
(0.581252 0.00188275 -6.94681e-21)
(0.99142 -0.0139529 -2.09138e-22)
(0.991874 -0.0143786 -8.95667e-21)
(0.991955 -0.0134006 4.93747e-24)
(-0.0736686 -0.0315539 7.98872e-22)
(-0.110003 -0.0277154 1.36321e-20)
(0.971007 -0.0157518 -1.0478e-20)
(0.97242 -0.0141284 1.38395e-20)
(1.05551 0.00994538 0)
(1.05568 0.0105347 3.13512e-21)
(-0.529848 -0.00628156 0)
(-0.536349 -0.00801674 0)
(-0.14564 -0.0282993 3.69817e-20)
(-0.17371 -0.0263945 -8.08412e-21)
(-0.220574 -0.0026073 -1.13186e-20)
(-0.242634 -0.0091013 -1.40782e-19)
(-0.277368 -0.00779944 -7.40132e-20)
(1.05921 -0.457534 1.36568e-20)
(1.0525 -0.439523 1.07118e-20)
(1.03937 -0.450089 1.2177e-20)
(1.01072 -0.0262497 9.06866e-22)
(1.00998 -0.0263164 4.60511e-21)
(1.01071 -0.0270984 5.80509e-21)
(1.01133 0.0380011 -1.17648e-21)
(1.01232 0.0352304 5.25028e-22)
(1.01428 0.0372827 1.30143e-21)
(-0.492164 0.0159474 -3.42115e-20)
(-0.487711 0.0152638 5.65201e-20)
(-0.542959 0.0077956 -2.37347e-21)
(1.2216 -0.236039 -6.3049e-20)
(1.22959 -0.238944 -3.32812e-20)
(1.22263 -0.244677 2.76145e-20)
(1.01026 0.040511 -1.06876e-21)
(1.00862 0.0381611 5.28792e-22)
(0.803084 -0.118843 -1.15287e-21)
(0.801675 -0.108251 -2.31728e-20)
(0.812483 -0.113285 2.01648e-20)
(0.809061 -0.152066 -1.32305e-20)
(0.807655 -0.140465 1.89769e-20)
(0.796301 -0.148118 -4.25511e-20)
(0.989574 -0.030997 4.14176e-21)
(0.990512 -0.0312985 -5.8163e-21)
(0.98972 -0.0324003 2.05359e-21)
(1.01882 -0.0234678 1.78989e-21)
(1.0194 -0.0241779 7.47681e-22)
(1.01942 -0.0232446 -1.60481e-21)
(1.13583 0.0252136 6.56869e-21)
(1.13926 0.0232901 5.80841e-21)
(1.13943 0.028434 -4.90824e-21)
(1.01819 -0.0226855 -6.84985e-22)
(1.01799 -0.0237206 5.03278e-22)
(-0.159793 -0.0303735 3.86639e-20)
(-0.126764 -0.0351025 -6.70045e-21)
(1.05521 0.00934554 0)
(1.05612 0.00975551 -2.12549e-21)
(1.03498 -0.0177945 4.83313e-22)
(1.03521 -0.0169439 3.70657e-22)
(1.0282 -0.133644 1.78276e-21)
(1.03023 -0.138376 9.94286e-22)
(1.02468 -0.137013 1.09749e-23)
(1.01664 -0.0244356 -1.40345e-22)
(1.01655 -0.0253567 0)
(1.30404 0.00824586 2.32004e-20)
(1.30378 0.0164905 2.98325e-20)
(1.31201 0.0096223 -6.92291e-20)
(1.20153 -0.0295234 2.20068e-20)
(1.19601 -0.0275215 -3.24055e-20)
(1.19683 -0.0334855 -3.06503e-21)
(1.0389 0.103127 -1.09996e-21)
(1.03627 0.0999562 -2.14468e-21)
(1.03446 0.104825 -4.90666e-21)
(1.06117 0.0191639 -2.04433e-21)
(1.06189 0.0194364 -2.75432e-21)
(1.01493 -0.00840782 4.97531e-22)
(1.01471 -0.00869589 9.91017e-22)
(1.0153 -0.0087359 -1.68161e-21)
(1.01434 -0.000802514 9.52886e-22)
(1.01439 -0.00121396 1.00364e-21)
(-0.203916 -0.00951252 5.88096e-20)
(-0.185854 -0.0126384 1.07456e-19)
(-0.108378 -0.0195453 -3.49165e-20)
(-0.096752 -0.0211063 -1.70091e-20)
(1.08868 -0.375218 1.13594e-20)
(1.07879 -0.383751 -1.84518e-20)
(1.09284 -0.386745 0)
(1.03007 -0.0152781 -1.42778e-23)
(1.02908 -0.0153382 -4.89477e-23)
(1.0294 -0.0146035 -1.95526e-23)
(1.01661 -0.0419011 -4.61347e-23)
(1.01768 -0.0425184 -4.53827e-23)
(1.01663 -0.0433125 2.54222e-23)
(0.123824 0.104015 8.95702e-22)
(0.162182 0.11931 -3.59034e-21)
(0.106121 0.106834 -2.8403e-21)
(1.20664 0.196241 7.12938e-21)
(1.21672 0.196443 0)
(1.2085 0.20728 -2.43602e-20)
(0.596559 -0.187416 4.56626e-20)
(0.61979 -0.180817 6.15143e-20)
(0.615146 -0.210456 -1.50277e-20)
(1.01158 -0.0263452 -7.6726e-21)
(1.01084 -0.0254369 -4.43623e-21)
(1.14359 -0.171019 -9.42498e-21)
(1.14244 -0.163773 -1.01465e-20)
(1.13762 -0.16951 -1.06654e-20)
(0.39367 0.195181 7.97938e-22)
(0.324171 0.178903 1.86449e-21)
(0.369827 0.192459 -2.47598e-22)
(1.09658 0.0440867 2.49969e-21)
(1.0973 0.0472572 0)
(1.09956 0.0440145 0)
(1.0368 -0.0953998 6.31521e-22)
(1.03827 -0.0988888 -2.21174e-24)
(1.11068 -0.0642173 -8.36471e-21)
(1.112 -0.0601066 -6.48598e-21)
(1.10767 -0.0618983 1.19903e-20)
(1.10505 -0.201121 -3.88334e-20)
(1.07812 -0.187486 -5.54451e-21)
(0.672998 0.228928 -1.78924e-20)
(0.602664 0.21668 3.10397e-21)
(1.20001 -0.111926 -7.02227e-22)
(1.19708 -0.105313 -1.02956e-21)
(-0.206626 -0.0176338 -3.78428e-20)
(-0.25252 -0.0140296 -2.81082e-20)
(-0.263007 -0.0161693 -6.04871e-20)
(0.712493 -0.110966 0)
(-0.127792 -0.0322911 -2.79431e-20)
(-0.16016 -0.0283749 -7.64629e-20)
(0.849868 -0.0900745 1.30803e-20)
(0.84048 -0.0884424 2.03279e-20)
(0.845687 -0.0813236 -5.91766e-21)
(1.0908 0.0446868 0)
(1.0891 0.0423007 0)
(1.08778 0.0448955 0)
(1.33019 -0.157284 -6.55179e-21)
(1.325 -0.145721 -1.16509e-20)
(0.974284 -0.0490149 7.02644e-21)
(0.974417 -0.0469459 -2.60502e-21)
(0.976223 -0.0477768 -6.45641e-21)
(0.99091 -0.0136208 -3.3596e-21)
(0.990821 -0.0146323 -5.79414e-21)
(0.732966 -0.291196 -6.1263e-20)
(0.715777 -0.304809 -5.99873e-20)
(0.738654 -0.309304 4.22882e-20)
(1.00707 0.028165 3.81962e-22)
(0.928913 0.0211939 1.34893e-20)
(0.935146 0.0302111 0)
(1.00948 -0.074186 -9.26342e-21)
(1.00914 -0.0762954 7.71822e-21)
(1.00687 -0.0751563 -5.93503e-21)
(1.02181 -0.00503576 -2.68552e-22)
(1.02122 -0.00517817 -2.85174e-22)
(-0.156964 -0.0262195 0)
(0.643353 0.024381 0)
(0.646925 0.027896 0)
(0.616607 0.0225151 -1.23883e-20)
(1.14643 -0.176493 0)
(1.15006 -0.170708 0)
(1.01115 0.042274 -2.19469e-23)
(1.00861 0.0425466 3.24158e-21)
(1.3043 -0.00164273 -9.4453e-21)
(1.29544 0.00523377 -4.04254e-20)
(1.20675 -0.0316733 1.03417e-20)
(1.20589 -0.0254283 1.74591e-20)
(1.2616 0.169367 0)
(1.27018 0.162656 2.51587e-20)
(1.25974 0.158309 0)
(0.972576 -0.0253014 0)
(0.973213 -0.0267078 5.27457e-21)
(0.971439 -0.0267509 3.2352e-21)
(0.983692 -0.0122885 6.04934e-21)
(0.983126 -0.0116626 -4.97555e-21)
(0.9841 -0.0112758 -6.54442e-21)
(1.00105 -0.00622588 -1.03225e-22)
(1.00096 -0.00634417 4.92606e-21)
(1.00088 -0.0058208 6.01697e-21)
(-0.158894 -0.0402551 2.24836e-20)
(-0.195939 -0.0388523 3.77858e-20)
(1.09102 0.0387348 -1.10559e-20)
(1.08965 0.0405691 -9.35846e-21)
(1.08949 0.0380035 -2.96372e-22)
(1.05776 0.00399957 -8.89159e-23)
(1.05813 0.00452921 -4.71675e-21)
(1.0587 0.00397243 3.75777e-21)
(1.00008 -0.000345633 4.76703e-22)
(1.00009 -0.000303111 4.29393e-21)
(1.00013 -0.000419693 4.76733e-21)
(0.748533 0.000959416 3.47301e-21)
(0.746726 0.00349523 -1.59039e-20)
(0.777172 0.000792827 9.91875e-21)
(1.13264 0.0282324 -1.81156e-21)
(1.13201 0.022892 -3.80621e-22)
(1.01652 0.0506358 5.09907e-22)
(1.01338 0.0516399 0)
(0.327483 0.0485733 2.45989e-20)
(0.309639 0.0324181 1.02045e-20)
(0.779564 0.0694404 1.1298e-20)
(0.742461 0.06652 1.62733e-20)
(0.786449 0.0658029 -2.45407e-20)
(0.768833 0.0748009 -7.84059e-21)
(0.813796 0.0743236 -9.83744e-22)
(-0.560485 -0.000692441 -3.89192e-21)
(-0.512518 -0.00144598 -4.59785e-20)
(1.03169 -0.130139 -3.32122e-22)
(1.02652 -0.128992 7.06109e-22)
(0.744225 0.200551 1.07641e-20)
(0.747264 0.193836 4.5195e-20)
(0.668519 0.184956 3.76042e-20)
(1.0006 -0.00707341 -2.70284e-21)
(1.00049 -0.00666975 3.31262e-21)
(1.00058 -0.00661543 -2.06974e-21)
(1.0152 -0.00808085 -1.61703e-22)
(1.01458 -0.00800365 1.33698e-21)
(1.16399 0.0301676 5.58281e-21)
(1.16693 0.0259832 0)
(1.16156 0.0253316 1.05822e-20)
(1.00092 -0.000329322 -1.39788e-21)
(1.00083 -0.000420986 -2.86999e-21)
(1.00077 -0.000273216 -3.60696e-21)
(-0.207939 0.000232569 9.35469e-21)
(-0.162868 -0.002904 7.26868e-20)
(0.98704 0.151458 -1.01702e-21)
(0.991947 0.147254 -1.49771e-21)
(0.985213 0.144574 1.43732e-22)
(1.00616 0.0608568 -3.20488e-22)
(1.00602 0.0642696 -1.92113e-21)
(1.0029 0.0614417 1.83497e-21)
(1.01548 -0.00779563 -4.91611e-22)
(1.01579 -0.008155 -4.44458e-22)
(1.06392 0.0229731 4.83991e-21)
(1.06485 0.0233172 8.11919e-21)
(1.06429 0.0222823 9.03191e-21)
(1.00648 0.0572568 -3.10574e-22)
(1.00962 0.0598695 0)
(1.19482 0.199391 -2.72032e-20)
(1.19963 0.186798 -2.90445e-20)
(1.0804 -0.467464 1.77115e-20)
(1.03469 -0.126379 -1.05048e-21)
(1.03285 -0.122041 -1.28827e-21)
(1.03738 -0.122644 -2.80291e-22)
(1.09321 0.0445031 2.61484e-21)
(1.09487 0.0414219 -5.16919e-22)
(-0.340446 -0.00772814 4.72085e-20)
(-0.333585 -0.00726792 6.74608e-20)
(0.661822 0.025955 -1.77795e-20)
(0.636858 0.0207756 0)
(1.05865 0.120265 -1.67335e-21)
(1.05604 0.125406 5.65678e-21)
(0.890555 -0.0665205 -1.37596e-20)
(0.886269 -0.0623553 -1.72618e-20)
(0.884908 -0.0688851 -1.3844e-20)
(0.976863 -0.0278476 7.71746e-22)
(0.976314 -0.0266137 -2.35447e-20)
(0.977801 -0.0265625 -8.55092e-21)
(1.01962 -0.0168924 2.56132e-22)
(1.01968 -0.0175851 -6.48722e-22)
(1.02041 -0.0171379 -6.46079e-22)
(1.07942 0.0257044 -5.16051e-20)
(1.0854 0.0373979 2.0532e-21)
(1.0936 0.039116 -3.21598e-21)
(1.09246 0.0363943 0)
(0.266017 0.0280896 -1.34908e-20)
(0.260833 0.0198424 -3.03413e-21)
(1.08665 -0.0269323 9.45354e-22)
(1.08934 -0.0277878 -5.58589e-21)
(1.0097 -0.0717792 -4.44166e-21)
(1.01206 -0.0731073 3.38388e-21)
(1.01321 0.0330924 2.28821e-22)
(1.01425 0.0306823 -7.52567e-22)
(1.01607 0.0322571 -5.94832e-22)
(1.05576 0.117228 -5.00242e-21)
(1.06055 0.115729 8.43965e-22)
(1.04507 -0.00807393 -3.08038e-21)
(1.04605 -0.00837014 8.56211e-23)
(1.04526 -0.00893134 -1.02894e-24)
(1.04348 -0.0262729 5.73984e-22)
(1.04213 -0.0264408 -1.40347e-21)
(1.04267 -0.0252563 5.88218e-22)
(0.694316 -0.142149 0)
(0.714532 -0.146614 1.46154e-20)
(0.703007 -0.159429 3.23747e-20)
(1.32709 -0.164387 -1.46418e-20)
(1.32151 -0.171041 8.96454e-21)
(1.31696 -0.16063 -2.4155e-20)
(-0.20087 0.0399001 -6.91424e-20)
(-0.166165 0.0396708 -4.00466e-22)
(-0.141862 0.0457133 5.2307e-20)
(0.0786317 0.13682 -1.01053e-20)
(0.0496703 0.129999 2.20146e-20)
(0.139701 0.146703 3.05597e-20)
(1.08716 0.0275584 1.52904e-20)
(1.0868 0.0300959 4.2913e-21)
(0.889912 -0.690339 -7.33422e-21)
(0.88628 -0.739731 -1.88448e-20)
(0.935256 -0.740175 -6.16921e-21)
(-0.252151 0.0368693 -2.36943e-20)
(-0.227956 0.041121 -6.02687e-20)
(0.936316 -0.0244276 3.75323e-21)
(0.938835 -0.0233371 0)
(0.936191 -0.0213356 0)
(1.07418 0.0425299 -1.33778e-22)
(1.07617 0.0427905 9.78732e-21)
(1.07497 0.0410552 6.12762e-21)
(0.635625 0.0892637 -5.0348e-21)
(0.669234 0.0969661 -2.46502e-20)
(0.616807 0.0914198 -2.43757e-21)
(1.08163 -0.0396678 3.33418e-21)
(1.0832 -0.0410394 6.77548e-21)
(1.08052 -0.0417463 6.19648e-21)
(1.01851 0.02281 0)
(1.01951 0.0209746 5.68091e-22)
(1.01725 0.0216508 -8.15113e-22)
(1.01577 -0.0416135 0)
(1.0165 -0.0410138 0)
(1.33947 -0.167719 -2.47212e-20)
(1.00003 -0.00130362 0)
(1.00006 -0.00156149 0)
(1.00004 -0.00159559 -4.43324e-21)
(1.15331 -0.0774333 4.02094e-21)
(1.15597 -0.0738165 -2.09605e-21)
(1.1576 -0.0799429 -1.17348e-20)
(1.0255 -0.0836686 -2.99126e-21)
(1.02814 -0.0839986 -8.15683e-23)
(1.02655 -0.0864078 8.08562e-22)
(0.981714 -0.0203756 5.27717e-21)
(0.982394 -0.0211697 3.16326e-21)
(1.09215 0.184086 7.76982e-21)
(1.08656 0.188573 0)
(1.09429 0.191608 0)
(1.04622 -0.0174226 3.89842e-21)
(1.04512 -0.0168747 -1.29819e-21)
(1.04629 -0.0162302 -9.30031e-23)
(0.173087 -0.511671 -1.00674e-19)
(0.12963 -0.554786 -1.26931e-21)
(1.0152 -0.00737084 0)
(1.01581 -0.00749134 -9.01278e-22)
(1.09865 0.141253 6.31462e-21)
(1.10496 0.142824 1.13669e-21)
(1.1026 0.135923 1.07112e-20)
(0.221567 0.0394532 0)
(0.210978 0.0248472 -1.83671e-20)
(-0.240054 -0.0122055 -1.02442e-20)
(-0.246946 -0.0126192 3.36397e-20)
(-0.185921 -0.0135941 1.05915e-19)
(0.896292 -0.0756705 1.00736e-20)
(0.90156 -0.0745119 3.32255e-20)
(0.899671 -0.0800962 1.59817e-20)
(1.07218 0.0423159 -2.43921e-21)
(1.07333 0.0442255 -1.95425e-21)
(1.00002 -0.000839827 -8.71986e-23)
(1.00001 -0.000619995 2.88346e-22)
(1.00001 -0.000622446 -3.50916e-21)
(0.743476 -0.277913 -3.2257e-20)
(0.723989 -0.271046 9.72568e-22)
(1.00134 -0.0145782 5.18013e-21)
(1.00132 -0.0138326 3.51823e-21)
(1.00165 -0.014418 7.31813e-22)
(1.14849 -0.076037 3.80559e-20)
(-0.0158749 -0.0345926 -1.08831e-21)
(-0.0677097 -0.0291582 4.79869e-20)
(-0.0493218 -0.0316908 -8.63333e-20)
(0.893279 -0.0716003 -3.40785e-20)
(0.895387 -0.0655237 -1.45298e-20)
(1.07968 -0.0378783 -2.41323e-21)
(1.0824 -0.0369684 2.07495e-23)
(0.996501 3.74923e-05 -8.52241e-23)
(0.996121 -0.000377424 -3.07695e-21)
(0.0228003 0.126865 -8.45669e-21)
(0.0983713 0.140469 -2.43003e-20)
(1.0224 -0.0120771 7.20547e-23)
(1.02196 -0.0114196 -3.96322e-22)
(0.785148 -0.388958 7.30624e-21)
(0.920745 -0.468755 8.73093e-21)
(0.0315596 0.124215 -5.6338e-21)
(0.00739147 0.117856 -2.60445e-20)
(0.0887715 0.131845 -2.10001e-20)
(1.21329 -0.232873 -9.92065e-22)
(1.22046 -0.227079 1.55175e-21)
(1.00008 -0.000385485 -4.68247e-21)
(1.00005 -0.000273693 1.54905e-21)
(1.2642 -0.378582 2.33045e-21)
(1.27683 -0.375225 -7.57365e-22)
(1.27739 -0.386305 2.14175e-21)
(-0.0482788 0.0456491 -7.30405e-22)
(-0.0276672 0.0461676 -6.98135e-22)
(-0.0149764 0.0629977 -2.07968e-21)
(0.873862 0.0103116 9.91729e-23)
(0.842025 0.00903134 7.00957e-22)
(1.02011 0.0239488 3.60274e-22)
(1.10742 0.00572901 0)
(1.10878 0.00308585 1.57818e-20)
(1.10532 0.00397947 0)
(0.704344 -0.337852 1.50018e-20)
(0.69841 -0.318843 -2.91248e-20)
(0.680406 -0.332721 3.37925e-20)
(1.09047 0.176842 8.258e-21)
(1.09783 0.179185 -5.93324e-22)
(1.0634 0.0236757 -9.84641e-21)
(1.06299 0.0226541 -7.10921e-21)
(1.0642 -0.429985 -1.44112e-20)
(1.04872 -0.424939 -1.07906e-20)
(1.05068 -0.140936 3.61663e-22)
(1.04546 -0.140652 6.47427e-22)
(1.0485 -0.136476 8.12023e-23)
(0.544854 0.00852168 6.51371e-22)
(0.527328 0.00755961 -3.15944e-21)
(0.526586 0.00638095 -4.14944e-21)
(1.19008 0.13285 2.36008e-21)
(1.18178 0.136819 -4.50396e-20)
(1.18433 0.126361 -2.04663e-20)
(1.01022 -0.000660564 3.30948e-22)
(1.01084 -0.000940113 2.27886e-21)
(1.01035 -0.0013522 -3.252e-22)
(1.08224 -0.00482385 2.66503e-21)
(1.08019 -0.00500595 1.93498e-21)
(1.08133 -0.00668811 3.18452e-21)
(1.0107 0.0334756 -1.71102e-21)
(0.745578 0.000743489 0)
(0.722614 0.00372754 0)
(0.586011 0.00178386 9.01573e-24)
(0.603367 0.0013803 0)
(0.589388 0.0009872 0)
(1.01895 -0.0166265 2.05439e-21)
(1.01957 -0.0163027 2.73203e-21)
(0.577482 -0.200132 1.5945e-20)
(0.992302 -0.0147386 -3.46267e-22)
(0.992754 -0.0150881 7.90216e-21)
(0.992839 -0.014183 8.08255e-21)
(1.03643 0.144065 2.65241e-23)
(1.04103 0.148286 1.20664e-22)
(1.04232 0.141846 0)
(1.22623 0.189659 -1.75972e-21)
(1.23608 0.185445 -4.97252e-20)
(1.22431 0.180195 2.96723e-20)
(1.08379 -0.00505252 1.24385e-21)
(1.08277 -0.00382633 -7.45785e-21)
(1.13013 0.0304318 -1.43455e-21)
(1.13313 0.0327863 -1.79557e-20)
(1.1982 0.131318 0)
(1.19531 0.141339 1.76181e-20)
(0.999466 -0.0275351 1.43242e-21)
(1.0002 -0.0282513 -3.05304e-21)
(1.00008 -0.0269748 -3.17866e-21)
(0.805227 -0.128826 1.61482e-20)
(0.793629 -0.123856 2.16691e-20)
(1.02338 0.0553042 6.99339e-23)
(1.02072 0.0536098 -6.0262e-22)
(1.02369 0.0524512 -1.13361e-23)
(1.15191 0.299161 -1.32814e-20)
(1.16752 0.303826 1.61059e-20)
(1.15351 0.2884 -2.9667e-20)
(0.997463 -0.00860998 -1.30114e-21)
(0.997732 -0.00819209 -2.53958e-22)
(0.99753 -0.00786065 -3.54254e-21)
(0.982265 -0.0194014 1.75092e-21)
(0.980901 -0.0196813 -8.74647e-21)
(0.890885 -0.0773031 -1.81909e-20)
(0.748906 0.129882 6.86622e-21)
(0.763414 0.124893 2.04827e-20)
(0.793736 0.137078 -3.12119e-22)
(-0.226421 -0.00621751 -7.04371e-22)
(-0.243625 -0.00372701 3.46534e-22)
(-0.229337 -0.00720825 -8.47199e-20)
(1.10747 0.0414677 3.47261e-22)
(1.10769 0.0388152 1.12818e-20)
(1.11023 0.0405555 1.36848e-20)
(1.03093 -0.0152571 1.80232e-22)
(1.03063 -0.0160369 0)
(1.18695 0.200799 -3.56173e-21)
(1.18904 0.208902 -2.97628e-20)
(1.25305 0.175167 3.76606e-20)
(1.24423 0.180795 -8.67572e-21)
(1.24265 0.170267 3.80028e-20)
(1.05158 0.105287 1.5347e-21)
(1.04841 0.101517 -3.78671e-22)
(1.05264 0.100959 3.686e-21)
(1.12677 0.0329234 4.23726e-21)
(1.12681 0.0280715 0)
(0.735235 0.133902 2.47014e-21)
(0.700514 0.121086 1.33633e-20)
(-0.412733 0.0266176 1.531e-20)
(-0.402725 0.0262016 -7.96493e-21)
(-0.458668 0.0161127 -2.70257e-20)
(1.08819 -0.0116065 0)
(1.08903 -0.0133606 9.00575e-21)
(1.09028 -0.0111968 -6.43545e-21)
(1.08608 0.0225783 -3.19553e-22)
(1.08708 0.0238487 6.45267e-21)
(1.08489 0.0238704 2.07616e-21)
(0.915744 -0.186119 -2.02317e-20)
(0.879956 -0.175189 -7.88436e-21)
(0.741074 -0.141471 3.05682e-20)
(1.02127 -0.0218278 2.43239e-22)
(1.02178 -0.0226204 0)
(1.02057 -0.0223094 0)
(1.00111 -0.00605016 -3.78113e-21)
(1.00117 -0.00589776 1.27389e-22)
(1.00099 -0.00554936 -9.02212e-24)
(1.05448 0.108448 3.61062e-21)
(1.04957 0.109338 -2.49869e-21)
(1.1707 -0.131411 0)
(1.16915 -0.125446 0)
(1.16437 -0.130029 -1.31831e-20)
(1.02314 -0.0120259 3.62778e-22)
(1.02379 -0.0120108 -1.28641e-22)
(1.02331 -0.01148 1.31205e-23)
(1.00009 -0.0015921 2.69817e-21)
(1.00007 -0.00157117 0)
(1.00005 -0.00132254 -3.34528e-21)
(1.00134 -0.0151438 3.36651e-21)
(1.00104 -0.0145689 -6.46292e-22)
(1.00375 -0.000722587 1.94382e-21)
(1.00406 -0.000753627 2.35707e-22)
(1.0037 -0.000426878 -2.88244e-22)
(1.09806 0.0119041 -3.05532e-20)
(1.10043 0.0127935 4.34884e-21)
(1.0984 0.0144985 3.81424e-21)
(1.00124 -0.00661298 2.2109e-21)
(0.650183 0.0857798 2.08522e-20)
(0.697646 0.0895506 2.37379e-22)
(1.11122 0.0350214 0)
(1.1078 0.0357738 -2.88056e-21)
(1.01299 -0.0343977 2.33469e-22)
(1.01216 -0.0344288 3.63299e-21)
(1.01287 -0.0352173 4.25673e-21)
(0.726514 -0.000726897 0)
(0.126938 0.101395 0)
(0.0902458 0.09263 0)
(0.974016 -0.0212937 2.9477e-21)
(0.974572 -0.0226333 8.30505e-21)
(0.97551 -0.0214156 3.87472e-21)
(1.09473 0.147618 1.9168e-20)
(-0.541126 0.00694747 1.51014e-20)
(-0.595815 0.00465567 7.95777e-20)
(-0.53885 0.0073357 -1.06886e-20)
(0.972464 -0.0502755 1.22364e-20)
(0.974724 -0.0510519 -7.85784e-21)
(0.973294 -0.0199508 -3.70212e-21)
(0.972147 -0.0214417 -4.56953e-21)
(1.11437 0.0357361 1.07257e-20)
(1.11282 0.0390337 0)
(0.168272 0.0373415 -1.60303e-22)
(0.150637 0.0390063 1.79237e-20)
(0.187951 0.0527255 0)
(0.147114 -0.0582031 -1.49264e-20)
(0.101675 -0.0561135 5.1674e-20)
(0.138865 -0.0578495 0)
(1.15656 0.0507131 0)
(1.16207 0.0522506 -1.49532e-20)
(1.15984 0.0468783 -1.34776e-21)
(1.00203 -0.00049188 2.5807e-21)
(1.00193 -0.000700432 5.84534e-21)
(0.74818 0.208515 -7.77384e-20)
(0.820219 0.214899 -3.61651e-20)
(1.00062 -0.00754558 -6.91516e-22)
(1.16735 0.0536168 7.66877e-21)
(1.17128 0.0494894 8.12262e-21)
(1.17342 0.0557373 4.82972e-21)
(-0.547372 0.00650852 2.78752e-21)
(-0.497825 0.0111391 4.74879e-20)
(1.12465 0.291141 1.84411e-21)
(1.13903 0.295546 -2.15586e-20)
(1.12194 0.27989 -8.47518e-21)
(1.05734 0.00317038 2.45118e-21)
(1.05672 0.00376628 0)
(0.956358 -0.202887 6.922e-22)
(1.07846 -0.238181 -8.88628e-23)
(1.21209 -0.231039 -4.27635e-20)
(1.28871 -0.238996 0)
(1.2973 -0.249012 -3.04709e-20)
(-0.148706 -0.0359237 1.92155e-20)
(-0.140953 -0.0369065 0)
(-0.10685 -0.0389788 1.6516e-22)
(1.30428 -0.00963502 -2.70905e-20)
(1.29625 -0.0129053 7.30517e-20)
(1.3042 -0.0182947 -2.42739e-21)
(0.78043 -0.0969281 4.46252e-20)
(0.781198 -0.0855358 1.87609e-20)
(0.768667 -0.0896152 1.42978e-20)
(-0.162801 -0.0203838 -1.90613e-20)
(-0.150202 -0.0175711 -1.92092e-20)
(0.202663 0.136077 -3.60502e-21)
(0.240006 0.150116 1.07277e-21)
(0.179035 0.135563 1.46735e-22)
(1.22563 0.296985 -6.24907e-20)
(1.19873 0.296614 -5.1502e-20)
(1.04479 -0.0262293 -1.23176e-21)
(1.04419 -0.0275437 0)
(-0.301283 -0.0138882 0)
(-0.272616 -0.0173185 2.327e-20)
(-0.265631 -0.018566 0)
(0.448946 0.000228676 -8.31778e-21)
(0.44865 -0.000898702 0)
(0.46547 -0.4323 2.34857e-21)
(0.433731 -0.405585 1.9916e-21)
(0.434115 -0.452092 -7.78981e-20)
(0.494669 -0.413079 0)
(0.503015 -0.454323 3.66016e-20)
(0.934293 -0.0256892 6.12778e-21)
(0.93574 -0.0269066 -1.09841e-20)
(1.16777 0.0397394 1.05089e-21)
(1.166 0.0349589 -2.12169e-20)
(1.17157 0.0363298 -3.39187e-21)
(0.941899 -0.121241 2.02331e-20)
(0.945458 -0.1168 -5.37414e-21)
(0.948006 -0.122582 2.93399e-21)
(0.589589 0.00311535 0)
(0.568092 0.00221014 6.77915e-21)
(0.784828 -0.144449 -2.16928e-20)
(0.783543 -0.131118 4.48293e-20)
(0.769828 -0.139739 3.58361e-20)
(1.00804 -0.001936 -2.19548e-21)
(1.008 -0.00230984 -3.74635e-22)
(1.00843 -0.00216532 4.38678e-21)
(1.01926 1.55427e-05 -2.27215e-22)
(1.0192 1.80826e-05 2.32068e-23)
(1.0754 -0.0811598 1.39382e-21)
(1.07879 -0.08175 -6.13314e-21)
(1.07585 -0.0842661 6.89903e-21)
(-0.187505 -0.0347543 -3.52083e-20)
(-0.156838 -0.0349194 -6.53955e-20)
(0.23668 -0.540219 4.45959e-20)
(1.02188 -0.0213224 1.20302e-21)
(1.02078 -0.0211322 -1.08365e-21)
(-0.290344 -0.007511 -1.7415e-20)
(0.930773 -0.117961 9.39156e-21)
(0.936829 -0.120119 2.12516e-20)
(0.934674 -0.113879 -2.08839e-20)
(1.10964 -0.0673692 -1.52317e-20)
(1.11355 -0.0655596 -1.40011e-20)
(1.05878 0.00518928 -3.29557e-21)
(1.05786 0.00512158 -4.88251e-21)
(0.179053 0.0318122 1.82366e-23)
(0.147452 0.0254822 -1.38709e-22)
(1.17496 0.202458 -1.10706e-20)
(1.18078 0.191427 4.76553e-20)
(1.01279 0.0291473 9.06345e-23)
(1.0245 -0.080619 -2.21567e-21)
(1.02258 -0.0827247 2.27251e-21)
(1.07788 -0.0365815 -2.25192e-21)
(1.07728 -0.0387189 5.64821e-21)
(0.772676 -0.00514948 4.45087e-21)
(0.773284 -0.00556496 0)
(0.750622 -0.00370043 0)
(0.976083 -0.0292041 9.47566e-21)
(0.977599 -0.0290341 1.4921e-20)
(1.2604 0.1804 0)
(1.08603 -0.0117809 -2.10016e-21)
(1.0872 -0.0095247 7.70938e-21)
(1.11588 0.0326883 -2.29528e-21)
(1.11779 0.0369483 9.56541e-21)
(0.927643 -0.123002 0)
(0.924466 -0.116424 0)
(0.991763 -0.0153175 -1.70872e-20)
(1.01418 -0.0344992 -1.62089e-21)
(1.0133 -0.033502 -4.12998e-21)
(1.28421 -0.116245 -9.07715e-21)
(1.28263 -0.123644 -1.3276e-20)
(1.29177 -0.119069 7.37024e-20)
(1.23725 -0.242723 2.1443e-20)
(1.23594 -0.233987 4.17865e-20)
(1.17541 0.139249 -9.84926e-21)
(1.16764 0.141172 3.5973e-20)
(1.17087 0.131976 1.59298e-20)
(1.12822 -0.215004 -3.93321e-20)
(0.769462 -0.00513706 1.18638e-21)
(0.795621 -0.00692317 6.09144e-21)
(1.0111 -0.0774225 1.16811e-20)
(1.00882 -0.0785172 9.11652e-21)
(-0.0253168 0.115158 -2.38888e-20)
(1.04232 0.167139 -1.44605e-21)
(1.03708 0.162139 -5.69235e-22)
(1.03459 0.169152 -4.17163e-21)