/*--------------------------------*- C++ -*----------------------------------*\
| =========                 |                                                 |
| \\      /  F ield         | OpenFOAM: The Open Source CFD Toolbox           |
|  \\    /   O peration     | Version:  v2012                                 |
|   \\  /    A nd           | Website:  www.openfoam.com                      |
|    \\/     M anipulation  |                                                 |
\*---------------------------------------------------------------------------*/
FoamFile
{
    version     2.0;
    format      ascii;
    class       volVectorField;
    location    "300";
    object      cellDisplacement;
}
// * * * * * * * * * * * * * * * * * * * * * * * * * * * * * * * * * * * * * //

dimensions      [0 1 0 0 0 0 0];


internalField   nonuniform List<vector> 
13851
(
(0 0.000115034 0)
(0 4.44682e-05 0)
(0 -7.70236e-06 0)
(0 0.000124498 0)
(0 -1.00824e-05 0)
(0 0.000219664 0)
(0 -0.000144427 0)
(0 -9.91198e-06 0)
(0 0.000241173 0)
(0 -2.21719e-06 0)
(0 0.000375814 0)
(0 2.13889e-06 0)
(0 -8.84045e-06 0)
(0 -7.85295e-06 0)
(0 -8.82986e-05 0)
(0 -3.42435e-06 0)
(0 -2.41187e-05 0)
(0 4.24126e-05 0)
(0 -8.76672e-06 0)
(0 0.000231185 0)
(0 0.00012187 0)
(0 -8.13169e-06 0)
(0 2.4634e-05 0)
(0 1.76005e-05 0)
(0 1.7674e-05 0)
(0 -9.50488e-06 0)
(0 -3.74465e-05 0)
(0 -8.81555e-06 0)
(0 0.000109203 0)
(0 8.85223e-06 0)
(0 0.000226277 0)
(0 -2.22302e-05 0)
(0 -7.57818e-06 0)
(0 0.000551135 0)
(0 2.12187e-05 0)
(0 -9.46991e-06 0)
(0 -9.09834e-06 0)
(0 -7.88438e-06 0)
(0 -2.21554e-06 0)
(0 0.000553602 0)
(0 3.36651e-05 0)
(0 8.35538e-05 0)
(0 -8.8173e-06 0)
(0 0.000393181 0)
(0 0.000386608 0)
(0 -8.72757e-06 0)
(0 0.000400657 0)
(0 0.000349977 0)
(0 -3.56077e-05 0)
(0 0.000539885 0)
(0 -1.0831e-05 0)
(0 -9.49662e-06 0)
(0 -8.83054e-06 0)
(0 -6.34872e-05 0)
(0 -2.03531e-05 0)
(0 8.25087e-05 0)
(0 4.61481e-05 0)
(0 -8.81449e-06 0)
(0 8.55551e-06 0)
(0 -0.000126878 0)
(0 -7.74172e-06 0)
(0 -8.13007e-06 0)
(0 8.07212e-05 0)
(0 -9.77232e-06 0)
(0 3.37981e-05 0)
(0 0.000133716 0)
(0 -9.06184e-06 0)
(0 0.000411637 0)
(0 -1.61074e-05 0)
(0 4.59602e-05 0)
(0 -8.81642e-06 0)
(0 -9.01745e-06 0)
(0 4.39857e-05 0)
(0 -6.50154e-05 0)
(0 -1.58194e-05 0)
(0 0.000325065 0)
(0 -8.42357e-06 0)
(0 -8.81807e-06 0)
(0 -1.17739e-05 0)
(0 -8.81795e-06 0)
(0 -9.2703e-05 0)
(0 3.81675e-05 0)
(0 -0.00012077 0)
(0 -8.77982e-06 0)
(0 7.65794e-05 0)
(0 2.45137e-06 0)
(0 0.000225894 0)
(0 1.9213e-05 0)
(0 -2.59402e-05 0)
(0 0.000410585 0)
(0 -9.5114e-06 0)
(0 0.000325215 0)
(0 0.000419672 0)
(0 -2.02462e-05 0)
(0 -2.76787e-05 0)
(0 2.83716e-05 0)
(0 -1.0013e-05 0)
(0 -8.77746e-06 0)
(0 0.000543577 0)
(0 2.25028e-05 0)
(0 -8.515e-06 0)
(0 -1.19593e-05 0)
(0 4.64428e-05 0)
(0 -4.32459e-05 0)
(0 6.16649e-06 0)
(0 0.000244866 0)
(0 -1.16851e-05 0)
(0 4.48577e-05 0)
(0 -8.96303e-06 0)
(0 0.000213121 0)
(0 1.94389e-05 0)
(0 0.000419724 0)
(0 0.000322402 0)
(0 4.59065e-06 0)
(0 2.39055e-05 0)
(0 0.000210572 0)
(0 -8.77256e-06 0)
(0 5.57455e-05 0)
(0 3.7986e-06 0)
(0 -1.41731e-05 0)
(0 -8.81628e-06 0)
(0 -4.41231e-05 0)
(0 -8.80601e-06 0)
(0 0.000385258 0)
(0 0.000350401 0)
(0 0.000314861 0)
(0 0.000356346 0)
(0 -1.1744e-05 0)
(0 0.00012812 0)
(0 -8.90229e-06 0)
(0 3.00515e-05 0)
(0 8.27953e-05 0)
(0 -8.8179e-06 0)
(0 -0.000124991 0)
(0 0.000215999 0)
(0 2.07058e-05 0)
(0 5.1234e-05 0)
(0 -9.01817e-06 0)
(0 -7.07197e-06 0)
(0 -4.86526e-06 0)
(0 -8.54904e-06 0)
(0 -1.72217e-05 0)
(0 0.000425414 0)
(0 0.000181135 0)
(0 -3.6127e-05 0)
(0 0.000402544 0)
(0 2.52346e-05 0)
(0 -8.81582e-06 0)
(0 -0.000146062 0)
(0 0.000376648 0)
(0 -1.11918e-05 0)
(0 -1.20456e-05 0)
(0 -7.96262e-06 0)
(0 4.53224e-05 0)
(0 -5.04082e-05 0)
(0 -3.6175e-05 0)
(0 0.000155119 0)
(0 -7.62149e-06 0)
(0 -9.43907e-06 0)
(0 -1.08832e-05 0)
(0 1.73648e-05 0)
(0 -2.266e-05 0)
(0 -8.82072e-06 0)
(0 8.23318e-05 0)
(0 8.32098e-06 0)
(0 0.000143878 0)
(0 3.19154e-05 0)
(0 -1.59229e-05 0)
(0 0.000124883 0)
(0 -8.74238e-06 0)
(0 -8.81752e-06 0)
(0 0.000142443 0)
(0 0.000151267 0)
(0 -5.19481e-06 0)
(0 7.37748e-05 0)
(0 0.000343664 0)
(0 -1.19015e-05 0)
(0 0.000401116 0)
(0 -8.78331e-06 0)
(0 4.49874e-05 0)
(0 -1.89675e-05 0)
(0 -9.00192e-06 0)
(0 -0.000132311 0)
(0 -8.13674e-06 0)
(0 5.62286e-06 0)
(0 3.08714e-05 0)
(0 0.000127338 0)
(0 -1.57582e-05 0)
(0 -9.6363e-06 0)
(0 7.09402e-06 0)
(0 0.000409271 0)
(0 -8.83041e-06 0)
(0 0.000433601 0)
(0 -1.56928e-05 0)
(0 -8.04496e-06 0)
(0 -5.1879e-05 0)
(0 0.000418721 0)
(0 0.000562898 0)
(0 0.000402073 0)
(0 0.000326342 0)
(0 0.000323194 0)
(0 -8.62697e-06 0)
(0 -8.34311e-07 0)
(0 -7.4439e-05 0)
(0 2.99005e-06 0)
(0 -0.000130239 0)
(0 -5.55569e-06 0)
(0 -2.48549e-05 0)
(0 -8.89955e-06 0)
(0 2.84347e-05 0)
(0 -8.9059e-06 0)
(0 4.41966e-05 0)
(0 0.00056353 0)
(0 2.94638e-05 0)
(0 0.000157054 0)
(0 0.0003492 0)
(0 6.79935e-05 0)
(0 -8.72844e-06 0)
(0 -0.00012991 0)
(0 -8.89885e-06 0)
(0 -2.30915e-05 0)
(0 -8.9837e-05 0)
(0 -8.86355e-06 0)
(0 -9.28524e-06 0)
(0 -8.87523e-06 0)
(0 2.08272e-05 0)
(0 -1.73815e-05 0)
(0 5.07048e-06 0)
(0 -8.81924e-06 0)
(0 2.71823e-05 0)
(0 -9.16263e-06 0)
(0 5.10391e-05 0)
(0 0.000131583 0)
(0 0.000425237 0)
(0 -1.14e-05 0)
(0 3.74448e-05 0)
(0 -5.70192e-06 0)
(0 3.32035e-05 0)
(0 0.000173219 0)
(0 -7.76399e-05 0)
(0 0.00023257 0)
(0 0.000559508 0)
(0 2.59293e-05 0)
(0 3.02537e-06 0)
(0 9.1183e-06 0)
(0 -8.8769e-06 0)
(0 -1.16926e-05 0)
(0 0.000556631 0)
(0 -3.2483e-05 0)
(0 -1.42982e-05 0)
(0 0.000382453 0)
(0 0.000561726 0)
(0 -6.21493e-05 0)
(0 -3.25402e-05 0)
(0 -1.25258e-05 0)
(0 0.000126149 0)
(0 7.98514e-06 0)
(0 -9.00346e-06 0)
(0 -8.87329e-06 0)
(0 -0.00014722 0)
(0 0.000164937 0)
(0 4.93516e-05 0)
(0 0.000235142 0)
(0 0.000281759 0)
(0 -8.62515e-06 0)
(0 -5.11279e-05 0)
(0 -6.50434e-05 0)
(0 -2.14459e-05 0)
(0 -8.87319e-06 0)
(0 0.000482002 0)
(0 0.000387759 0)
(0 -4.93343e-05 0)
(0 0.000223811 0)
(0 -1.21291e-05 0)
(0 -3.01971e-06 0)
(0 9.10279e-05 0)
(0 2.88577e-05 0)
(0 0.000306197 0)
(0 -8.86579e-06 0)
(0 0.00036635 0)
(0 1.88599e-05 0)
(0 1.80967e-05 0)
(0 5.13405e-06 0)
(0 -1.27855e-05 0)
(0 0.000240471 0)
(0 0.000335683 0)
(0 0.000281061 0)
(0 -0.000133077 0)
(0 0.000229797 0)
(0 1.42742e-05 0)
(0 -8.72936e-06 0)
(0 4.39274e-06 0)
(0 -0.00012243 0)
(0 -1.48447e-05 0)
(0 2.66966e-05 0)
(0 -8.67566e-06 0)
(0 3.17571e-06 0)
(0 3.43583e-06 0)
(0 9.91473e-05 0)
(0 -8.88233e-06 0)
(0 -2.36976e-05 0)
(0 -2.42068e-05 0)
(0 -8.869e-06 0)
(0 -1.39216e-05 0)
(0 0.000238796 0)
(0 -8.86879e-06 0)
(0 0.000268797 0)
(0 -1.35197e-05 0)
(0 -1.94799e-05 0)
(0 3.85801e-06 0)
(0 -7.14361e-06 0)
(0 4.29793e-06 0)
(0 -5.83154e-05 0)
(0 -8.83924e-06 0)
(0 0.000102668 0)
(0 -1.34607e-05 0)
(0 0.000340321 0)
(0 -8.87756e-06 0)
(0 -9.96811e-06 0)
(0 -0.00013442 0)
(0 -1.21252e-05 0)
(0 -0.000136975 0)
(0 -8.87169e-06 0)
(0 0.000383974 0)
(0 2.89036e-05 0)
(0 0.000208848 0)
(0 -1.00328e-05 0)
(0 -1.82436e-05 0)
(0 -5.31188e-05 0)
(0 -0.000129561 0)
(0 -1.96553e-05 0)
(0 -5.77034e-05 0)
(0 0.000379263 0)
(0 -8.28678e-06 0)
(0 -8.66843e-06 0)
(0 6.90189e-05 0)
(0 -8.88065e-06 0)
(0 -7.45212e-06 0)
(0 -8.46031e-05 0)
(0 -1.52655e-05 0)
(0 -8.60935e-06 0)
(0 0.000314613 0)
(0 4.41497e-05 0)
(0 -9.77151e-06 0)
(0 -8.71191e-06 0)
(0 0.000330769 0)
(0 0.000246202 0)
(0 -8.8887e-06 0)
(0 -7.75009e-05 0)
(0 0.000408733 0)
(0 0.000404086 0)
(0 -5.72578e-06 0)
(0 -5.45672e-05 0)
(0 4.49279e-05 0)
(0 -8.81717e-06 0)
(0 0.00015694 0)
(0 0.000250926 0)
(0 0.000213532 0)
(0 -0.000132511 0)
(0 9.84886e-06 0)
(0 4.32715e-05 0)
(0 0.000129276 0)
(0 -8.89389e-06 0)
(0 0.000559507 0)
(0 -7.92104e-05 0)
(0 -1.39333e-05 0)
(0 0.000113509 0)
(0 4.04606e-06 0)
(0 2.59232e-06 0)
(0 0.00033851 0)
(0 -8.72326e-06 0)
(0 -7.48658e-05 0)
(0 6.77806e-05 0)
(0 -1.8389e-05 0)
(0 0.000340555 0)
(0 3.66272e-05 0)
(0 6.07804e-05 0)
(0 0.000353675 0)
(0 -8.55443e-06 0)
(0 -1.54245e-05 0)
(0 -6.963e-06 0)
(0 0.000320917 0)
(0 -9.68151e-06 0)
(0 -8.74352e-06 0)
(0 0.000406964 0)
(0 0.00041262 0)
(0 0.000405324 0)
(0 6.60361e-05 0)
(0 -4.68106e-05 0)
(0 6.81582e-05 0)
(0 -1.22442e-05 0)
(0 -7.70827e-06 0)
(0 -1.60894e-05 0)
(0 -8.88379e-06 0)
(0 -8.87574e-06 0)
(0 0.000119622 0)
(0 -0.000148233 0)
(0 -8.6959e-06 0)
(0 -8.81679e-06 0)
(0 5.33875e-05 0)
(0 -8.7903e-06 0)
(0 0.000358256 0)
(0 -1.75744e-05 0)
(0 2.4684e-05 0)
(0 -7.4869e-06 0)
(0 0.00019896 0)
(0 -4.38823e-06 0)
(0 0.000401557 0)
(0 -0.000137705 0)
(0 4.38339e-06 0)
(0 0.00026698 0)
(0 0.000137109 0)
(0 -9.86706e-06 0)
(0 3.45964e-05 0)
(0 -8.86163e-06 0)
(0 5.44857e-05 0)
(0 -1.18593e-05 0)
(0 0.000180535 0)
(0 0.000562415 0)
(0 -9.84929e-06 0)
(0 -5.42804e-06 0)
(0 -2.60902e-05 0)
(0 0.000339039 0)
(0 4.61544e-05 0)
(0 0.000255155 0)
(0 2.30757e-05 0)
(0 -7.51021e-06 0)
(0 0.000573191 0)
(0 -9.22171e-06 0)
(0 0.000174407 0)
(0 -8.86602e-06 0)
(0 0.000548109 0)
(0 0.000232154 0)
(0 -1.07845e-05 0)
(0 -1.14004e-05 0)
(0 3.40334e-05 0)
(0 0.000564555 0)
(0 1.13392e-05 0)
(0 -4.00293e-06 0)
(0 0.000572472 0)
(0 -7.115e-06 0)
(0 -8.89499e-06 0)
(0 0.000411556 0)
(0 0.00028116 0)
(0 0.000573214 0)
(0 -8.55042e-06 0)
(0 7.8237e-06 0)
(0 -1.62178e-05 0)
(0 -1.16894e-05 0)
(0 0.000481238 0)
(0 0.000161713 0)
(0 -5.4034e-05 0)
(0 -1.1399e-05 0)
(0 -9.58661e-06 0)
(0 5.68665e-05 0)
(0 7.05306e-06 0)
(0 2.67116e-05 0)
(0 0.000212205 0)
(0 -8.81554e-06 0)
(0 1.06443e-05 0)
(0 1.64997e-05 0)
(0 1.99003e-05 0)
(0 6.56973e-05 0)
(0 0.000120894 0)
(0 0.000178694 0)
(0 1.72534e-05 0)
(0 -7.53561e-06 0)
(0 2.56716e-05 0)
(0 0.000413362 0)
(0 -8.83554e-06 0)
(0 -0.000118455 0)
(0 -1.52221e-05 0)
(0 2.3429e-05 0)
(0 0.000248841 0)
(0 0.000310486 0)
(0 4.16782e-06 0)
(0 7.48637e-05 0)
(0 8.91173e-06 0)
(0 9.06704e-06 0)
(0 0.000330311 0)
(0 -6.9997e-05 0)
(0 0.000225972 0)
(0 -0.000135663 0)
(0 3.30541e-05 0)
(0 -8.34341e-06 0)
(0 -8.90265e-06 0)
(0 -0.000128352 0)
(0 0.000254194 0)
(0 -1.03575e-05 0)
(0 0.000558816 0)
(0 -8.76638e-06 0)
(0 0.000206701 0)
(0 0.000555766 0)
(0 3.15508e-05 0)
(0 -9.84329e-06 0)
(0 -0.000127477 0)
(0 -8.79758e-06 0)
(0 3.2272e-05 0)
(0 -8.82072e-06 0)
(0 1.04935e-05 0)
(0 9.00614e-05 0)
(0 0.000263255 0)
(0 -8.78324e-06 0)
(0 -8.68077e-06 0)
(0 0.00047008 0)
(0 4.53548e-06 0)
(0 0.00039913 0)
(0 -1.78206e-05 0)
(0 7.71014e-05 0)
(0 0.000108799 0)
(0 -0.000150199 0)
(0 -8.81846e-06 0)
(0 -1.11638e-05 0)
(0 -9.7449e-06 0)
(0 -8.93974e-06 0)
(0 7.19808e-05 0)
(0 2.24016e-05 0)
(0 -8.59993e-06 0)
(0 0.000572536 0)
(0 -1.9044e-05 0)
(0 -2.20245e-05 0)
(0 0.00055627 0)
(0 0.000385966 0)
(0 -8.91402e-06 0)
(0 -4.74836e-05 0)
(0 -8.78973e-06 0)
(0 -8.74655e-06 0)
(0 -8.63117e-06 0)
(0 6.32611e-06 0)
(0 0.000268496 0)
(0 0.00036536 0)
(0 0.000291182 0)
(0 0.000132744 0)
(0 0.000562539 0)
(0 -4.16523e-06 0)
(0 -3.41066e-06 0)
(0 -4.45265e-06 0)
(0 -8.9911e-06 0)
(0 3.67425e-05 0)
(0 0.000296203 0)
(0 -1.1098e-05 0)
(0 -8.90197e-06 0)
(0 -2.88794e-05 0)
(0 -8.7693e-05 0)
(0 0.000148023 0)
(0 -2.34903e-05 0)
(0 -9.78499e-06 0)
(0 2.85416e-05 0)
(0 2.04073e-05 0)
(0 7.8411e-06 0)
(0 3.27237e-05 0)
(0 -8.81681e-06 0)
(0 -8.82742e-06 0)
(0 0.000256735 0)
(0 0.000573123 0)
(0 -1.53893e-05 0)
(0 1.38177e-05 0)
(0 0.000253563 0)
(0 3.74286e-05 0)
(0 -8.62237e-06 0)
(0 -4.89821e-05 0)
(0 -1.05793e-05 0)
(0 -9.47816e-06 0)
(0 7.59233e-05 0)
(0 0.000186931 0)
(0 0.000380388 0)
(0 -5.81751e-06 0)
(0 -9.66674e-06 0)
(0 -8.81976e-06 0)
(0 -8.99e-06 0)
(0 3.49951e-05 0)
(0 -0.000140179 0)
(0 2.21889e-05 0)
(0 -8.86882e-06 0)
(0 -9.84396e-06 0)
(0 -1.63503e-05 0)
(0 8.53376e-05 0)
(0 4.72112e-05 0)
(0 -1.18931e-05 0)
(0 -4.30063e-06 0)
(0 7.0444e-05 0)
(0 -2.82584e-05 0)
(0 3.897e-05 0)
(0 2.33304e-05 0)
(0 -8.97934e-06 0)
(0 -9.83752e-06 0)
(0 0.000173552 0)
(0 6.46962e-05 0)
(0 -7.00687e-06 0)
(0 0.000564371 0)
(0 9.07769e-05 0)
(0 5.4494e-05 0)
(0 0.000290796 0)
(0 -5.68454e-05 0)
(0 -8.5928e-06 0)
(0 0.00055925 0)
(0 0.000560742 0)
(0 -8.59013e-06 0)
(0 0.000404907 0)
(0 -1.74092e-05 0)
(0 -8.90506e-06 0)
(0 -8.90349e-06 0)
(0 0.000331641 0)
(0 -1.57318e-05 0)
(0 1.03923e-05 0)
(0 0.000331457 0)
(0 -5.62256e-06 0)
(0 -8.8177e-06 0)
(0 0.000246005 0)
(0 -1.06504e-05 0)
(0 -1.50199e-05 0)
(0 0.000217331 0)
(0 -1.01262e-06 0)
(0 0.000446356 0)
(0 0.000474651 0)
(0 -1.06789e-05 0)
(0 -0.000137302 0)
(0 6.49198e-05 0)
(0 0.000152878 0)
(0 -2.31133e-05 0)
(0 -9.13232e-06 0)
(0 -0.000128572 0)
(0 3.79906e-05 0)
(0 1.46108e-06 0)
(0 -9.77904e-05 0)
(0 -9.96162e-06 0)
(0 -7.36281e-06 0)
(0 -9.37288e-06 0)
(0 1.45968e-06 0)
(0 -9.77974e-06 0)
(0 0.00020581 0)
(0 5.64491e-05 0)
(0 0.000380285 0)
(0 -8.60275e-06 0)
(0 3.6947e-05 0)
(0 2.56466e-05 0)
(0 -8.97603e-06 0)
(0 2.70924e-05 0)
(0 -8.7609e-06 0)
(0 -8.89332e-06 0)
(0 -8.75055e-06 0)
(0 2.1752e-05 0)
(0 0.000189869 0)
(0 -9.00316e-06 0)
(0 1.96894e-05 0)
(0 3.87207e-05 0)
(0 2.84029e-05 0)
(0 2.82255e-05 0)
(0 1.18339e-05 0)
(0 5.92281e-05 0)
(0 1.70227e-05 0)
(0 6.00081e-05 0)
(0 -6.55252e-06 0)
(0 9.46822e-06 0)
(0 -6.70903e-06 0)
(0 0.000154634 0)
(0 1.85419e-05 0)
(0 3.48899e-05 0)
(0 -8.50235e-06 0)
(0 -7.7842e-06 0)
(0 -1.27727e-05 0)
(0 -2.19369e-05 0)
(0 2.58664e-05 0)
(0 2.92664e-05 0)
(0 2.0092e-05 0)
(0 0.000179426 0)
(0 -9.17215e-06 0)
(0 -7.07251e-07 0)
(0 -9.93349e-05 0)
(0 5.48346e-05 0)
(0 -0.000151714 0)
(0 0.000170915 0)
(0 -3.69496e-06 0)
(0 -8.83028e-06 0)
(0 -1.68945e-06 0)
(0 -8.75118e-06 0)
(0 0.000392971 0)
(0 3.43221e-05 0)
(0 -9.78113e-06 0)
(0 -8.52688e-06 0)
(0 -1.52185e-05 0)
(0 1.36066e-06 0)
(0 -9.10017e-05 0)
(0 4.58411e-05 0)
(0 -1.28986e-05 0)
(0 5.36993e-05 0)
(0 0.000564175 0)
(0 -0.000130972 0)
(0 0.00037215 0)
(0 9.5685e-06 0)
(0 -1.96591e-05 0)
(0 -8.89234e-06 0)
(0 0.00036097 0)
(0 3.43557e-05 0)
(0 8.98657e-05 0)
(0 8.75575e-05 0)
(0 -2.05238e-05 0)
(0 0.000234026 0)
(0 -6.32469e-06 0)
(0 -1.07266e-05 0)
(0 -8.59391e-06 0)
(0 0.000407069 0)
(0 3.53782e-05 0)
(0 0.000145948 0)
(0 -8.36048e-06 0)
(0 -9.53069e-06 0)
(0 3.7505e-05 0)
(0 -8.89291e-06 0)
(0 0.000273741 0)
(0 -2.44454e-05 0)
(0 4.11832e-05 0)
(0 0.000410747 0)
(0 -9.06089e-06 0)
(0 4.40603e-07 0)
(0 8.30415e-05 0)
(0 0.000320519 0)
(0 -3.47615e-05 0)
(0 3.69161e-05 0)
(0 -8.81973e-06 0)
(0 0.000123988 0)
(0 -8.84256e-06 0)
(0 9.60392e-05 0)
(0 -0.000103839 0)
(0 -8.84415e-06 0)
(0 -8.81827e-06 0)
(0 -9.59808e-06 0)
(0 0.000438945 0)
(0 -8.94744e-06 0)
(0 -0.000126346 0)
(0 0.000334851 0)
(0 -6.64907e-06 0)
(0 -6.80617e-06 0)
(0 -1.83222e-05 0)
(0 -8.7504e-06 0)
(0 0.00039797 0)
(0 0.000473575 0)
(0 -9.12269e-06 0)
(0 2.75577e-05 0)
(0 -9.81344e-07 0)
(0 -5.95767e-06 0)
(0 0.000203596 0)
(0 -8.81673e-06 0)
(0 -8.08931e-06 0)
(0 -9.66551e-06 0)
(0 0.000166952 0)
(0 0.000311003 0)
(0 0.00021908 0)
(0 0.000231879 0)
(0 7.73069e-06 0)
(0 0.000403181 0)
(0 2.4303e-05 0)
(0 3.44813e-05 0)
(0 -1.6019e-05 0)
(0 -8.86145e-06 0)
(0 0.000136943 0)
(0 7.99391e-05 0)
(0 0.000351949 0)
(0 -0.000138566 0)
(0 -8.84816e-06 0)
(0 1.19951e-05 0)
(0 0.000431634 0)
(0 -1.12267e-05 0)
(0 -3.17433e-06 0)
(0 0.000564052 0)
(0 3.43106e-05 0)
(0 0.000219097 0)
(0 -8.73097e-06 0)
(0 -6.68366e-05 0)
(0 -8.89566e-06 0)
(0 -2.02388e-05 0)
(0 0.000190285 0)
(0 0.000520245 0)
(0 -8.8187e-06 0)
(0 0.000220037 0)
(0 -1.03359e-05 0)
(0 2.60524e-05 0)
(0 5.01811e-05 0)
(0 0.000572224 0)
(0 -5.99625e-06 0)
(0 1.60882e-05 0)
(0 3.36755e-06 0)
(0 0.000522974 0)
(0 -5.67991e-05 0)
(0 0.000434261 0)
(0 -1.07231e-05 0)
(0 0.000568849 0)
(0 -9.65821e-06 0)
(0 0.00024088 0)
(0 -0.00010541 0)
(0 -9.83639e-06 0)
(0 -1.05045e-05 0)
(0 -8.88514e-06 0)
(0 2.6516e-06 0)
(0 -4.53807e-06 0)
(0 -8.93438e-06 0)
(0 -0.000140773 0)
(0 -8.76444e-06 0)
(0 5.70225e-05 0)
(0 -8.38084e-06 0)
(0 -6.55491e-06 0)
(0 -8.84358e-06 0)
(0 0.000539959 0)
(0 -4.51421e-06 0)
(0 0.000192055 0)
(0 7.24906e-05 0)
(0 -8.80824e-06 0)
(0 -8.78021e-06 0)
(0 0.000231582 0)
(0 2.40014e-05 0)
(0 -1.12173e-05 0)
(0 2.80162e-05 0)
(0 0.000103391 0)
(0 -8.83779e-06 0)
(0 0.00026156 0)
(0 -9.21828e-05 0)
(0 -8.8146e-06 0)
(0 -8.8231e-06 0)
(0 0.000412991 0)
(0 4.58168e-05 0)
(0 -0.000131455 0)
(0 -8.82459e-06 0)
(0 -9.20151e-06 0)
(0 -9.95966e-06 0)
(0 0.00030544 0)
(0 -8.67317e-06 0)
(0 -6.09684e-06 0)
(0 -7.81403e-06 0)
(0 -1.17248e-05 0)
(0 -1.41135e-05 0)
(0 -5.47282e-05 0)
(0 -0.000131908 0)
(0 4.65743e-05 0)
(0 -1.33341e-05 0)
(0 -8.81663e-06 0)
(0 0.000366517 0)
(0 -1.63863e-05 0)
(0 -8.81458e-06 0)
(0 -8.45001e-06 0)
(0 -8.82346e-06 0)
(0 -0.000129337 0)
(0 -1.86703e-05 0)
(0 9.05964e-05 0)
(0 5.32945e-07 0)
(0 3.83406e-05 0)
(0 6.97326e-07 0)
(0 -1.46625e-05 0)
(0 -8.83425e-06 0)
(0 0.000102765 0)
(0 -1.13308e-05 0)
(0 4.63095e-06 0)
(0 -6.26824e-06 0)
(0 -1.68729e-05 0)
(0 -1.89561e-05 0)
(0 -8.77022e-06 0)
(0 -1.37583e-05 0)
(0 1.9244e-05 0)
(0 1.76267e-05 0)
(0 -1.12456e-05 0)
(0 0.000342597 0)
(0 7.30575e-05 0)
(0 -2.34548e-05 0)
(0 -8.81902e-06 0)
(0 0.000273625 0)
(0 -6.5148e-06 0)
(0 0.000553471 0)
(0 -6.21518e-05 0)
(0 -8.9017e-06 0)
(0 -8.52094e-06 0)
(0 -8.8402e-06 0)
(0 0.000535163 0)
(0 0.000370689 0)
(0 0.000205779 0)
(0 -8.84487e-06 0)
(0 -2.57408e-05 0)
(0 0.00020842 0)
(0 -8.89059e-06 0)
(0 0.000143145 0)
(0 -6.3241e-05 0)
(0 -7.68479e-06 0)
(0 0.000565934 0)
(0 -4.03972e-06 0)
(0 -8.9082e-05 0)
(0 5.66208e-05 0)
(0 3.19511e-05 0)
(0 -8.90046e-06 0)
(0 -9.56698e-06 0)
(0 -1.16458e-05 0)
(0 0.000294074 0)
(0 0.000549718 0)
(0 -8.79933e-06 0)
(0 -1.03861e-05 0)
(0 8.54886e-05 0)
(0 -5.02429e-06 0)
(0 7.97082e-05 0)
(0 -1.14489e-06 0)
(0 0.000405334 0)
(0 2.26329e-05 0)
(0 -4.99197e-06 0)
(0 0.000565538 0)
(0 -8.81308e-05 0)
(0 0.00042281 0)
(0 0.000212038 0)
(0 -9.01043e-06 0)
(0 -8.85266e-06 0)
(0 -8.76546e-06 0)
(0 -1.68826e-05 0)
(0 -4.86e-06 0)
(0 1.0629e-06 0)
(0 -1.61724e-05 0)
(0 0.000206478 0)
(0 8.09971e-05 0)
(0 -4.15388e-05 0)
(0 -8.56157e-05 0)
(0 -8.88902e-06 0)
(0 -0.000125292 0)
(0 -1.27946e-05 0)
(0 -0.000125885 0)
(0 -1.1063e-05 0)
(0 0.000411779 0)
(0 -8.81561e-06 0)
(0 5.12908e-06 0)
(0 2.03893e-05 0)
(0 1.55972e-05 0)
(0 -9.0264e-06 0)
(0 -8.39643e-06 0)
(0 -1.1884e-05 0)
(0 -8.81618e-06 0)
(0 -2.37377e-05 0)
(0 3.42987e-05 0)
(0 1.23953e-06 0)
(0 0.000212611 0)
(0 -8.82767e-06 0)
(0 -1.1295e-05 0)
(0 0.000372804 0)
(0 3.46043e-05 0)
(0 -1.41034e-05 0)
(0 -1.19563e-05 0)
(0 -4.38225e-06 0)
(0 2.82573e-05 0)
(0 -4.85489e-06 0)
(0 0.000146789 0)
(0 0.000153186 0)
(0 -7.56457e-06 0)
(0 0.000334463 0)
(0 -8.76258e-06 0)
(0 -1.67929e-05 0)
(0 0.000108081 0)
(0 0.000180993 0)
(0 9.94973e-05 0)
(0 -0.000136012 0)
(0 3.10396e-05 0)
(0 -9.4459e-05 0)
(0 -9.1733e-06 0)
(0 0.00014162 0)
(0 -9.19445e-06 0)
(0 -8.80537e-06 0)
(0 3.86043e-06 0)
(0 -6.38003e-06 0)
(0 -0.000133167 0)
(0 5.80287e-06 0)
(0 0.000348743 0)
(0 -1.76495e-05 0)
(0 9.11489e-05 0)
(0 -1.07755e-05 0)
(0 -0.000108636 0)
(0 0.000276264 0)
(0 7.84318e-05 0)
(0 2.17272e-05 0)
(0 -8.82099e-06 0)
(0 -2.16738e-07 0)
(0 7.67475e-05 0)
(0 -8.80606e-06 0)
(0 -9.16587e-06 0)
(0 -7.40984e-06 0)
(0 0.000453067 0)
(0 -1.57848e-05 0)
(0 0.000131 0)
(0 0.000546146 0)
(0 0.000271052 0)
(0 0.000527207 0)
(0 -1.88807e-05 0)
(0 0.0003986 0)
(0 0.000566593 0)
(0 -8.78932e-06 0)
(0 0.000105744 0)
(0 -8.78076e-06 0)
(0 -8.54542e-06 0)
(0 -3.68722e-05 0)
(0 3.28372e-05 0)
(0 0.000262907 0)
(0 -3.58464e-06 0)
(0 6.06856e-05 0)
(0 0.000329364 0)
(0 0.000350455 0)
(0 -0.000118342 0)
(0 0.000357229 0)
(0 -6.25961e-05 0)
(0 -4.07528e-06 0)
(0 0.000547117 0)
(0 3.58737e-05 0)
(0 -8.85159e-06 0)
(0 0.000576293 0)
(0 2.91177e-05 0)
(0 -5.98357e-05 0)
(0 6.12848e-05 0)
(0 0.000240484 0)
(0 -4.25093e-05 0)
(0 -6.58055e-06 0)
(0 -1.13505e-05 0)
(0 -0.000104607 0)
(0 0.000299 0)
(0 3.86466e-07 0)
(0 0.000286573 0)
(0 -8.8594e-06 0)
(0 -8.97664e-06 0)
(0 0.000211773 0)
(0 -9.0485e-06 0)
(0 -4.50111e-05 0)
(0 0.000246783 0)
(0 8.45895e-05 0)
(0 0.000468003 0)
(0 0.000569196 0)
(0 0.000114875 0)
(0 1.23285e-06 0)
(0 0.000349079 0)
(0 -1.06505e-05 0)
(0 0.000136986 0)
(0 0.000337649 0)
(0 -8.53166e-05 0)
(0 -1.59168e-05 0)
(0 -9.08221e-06 0)
(0 3.13757e-05 0)
(0 5.6021e-05 0)
(0 -1.51493e-05 0)
(0 -1.30658e-05 0)
(0 -8.48946e-06 0)
(0 -8.59408e-05 0)
(0 -8.76883e-06 0)
(0 -6.97126e-06 0)
(0 -1.0809e-05 0)
(0 0.000182183 0)
(0 -1.34119e-05 0)
(0 -8.47765e-05 0)
(0 2.75153e-05 0)
(0 8.1842e-05 0)
(0 -8.81865e-06 0)
(0 -9.95788e-06 0)
(0 0.000572329 0)
(0 -4.19148e-05 0)
(0 0.000324807 0)
(0 -0.00011709 0)
(0 6.69077e-06 0)
(0 6.80964e-06 0)
(0 0.000453478 0)
(0 0.000187357 0)
(0 1.9741e-05 0)
(0 -1.60206e-05 0)
(0 3.77795e-05 0)
(0 -8.85074e-06 0)
(0 8.04699e-06 0)
(0 3.82896e-05 0)
(0 2.31437e-05 0)
(0 -5.96649e-06 0)
(0 -4.27314e-06 0)
(0 -8.91716e-06 0)
(0 -1.06162e-05 0)
(0 -1.06758e-05 0)
(0 -7.13828e-06 0)
(0 -8.83219e-06 0)
(0 0.000575825 0)
(0 -8.58412e-06 0)
(0 4.56035e-05 0)
(0 2.35404e-07 0)
(0 0.00013015 0)
(0 -2.45755e-05 0)
(0 -2.67732e-05 0)
(0 -7.95184e-05 0)
(0 -8.85707e-06 0)
(0 -1.02619e-05 0)
(0 -1.94505e-05 0)
(0 0.000542809 0)
(0 -9.11485e-06 0)
(0 0.000337034 0)
(0 -0.000134672 0)
(0 -4.12824e-05 0)
(0 9.48195e-07 0)
(0 0.000263739 0)
(0 7.7505e-05 0)
(0 3.18885e-05 0)
(0 0.000416229 0)
(0 6.4532e-05 0)
(0 -7.77816e-06 0)
(0 -2.31059e-05 0)
(0 0.000307785 0)
(0 0.000379606 0)
(0 -8.791e-06 0)
(0 6.42673e-05 0)
(0 0.000239553 0)
(0 -0.000116569 0)
(0 -8.77949e-06 0)
(0 -8.26103e-06 0)
(0 -3.32301e-06 0)
(0 -8.333e-06 0)
(0 0.00041614 0)
(0 0.000174864 0)
(0 -9.02411e-06 0)
(0 8.19852e-05 0)
(0 -1.22207e-05 0)
(0 -1.84362e-05 0)
(0 -8.90285e-06 0)
(0 0.000463827 0)
(0 -9.014e-06 0)
(0 4.80959e-05 0)
(0 4.3246e-05 0)
(0 0.000236352 0)
(0 -9.84269e-05 0)
(0 -8.82679e-06 0)
(0 3.44454e-05 0)
(0 -8.84533e-06 0)
(0 0.000335768 0)
(0 -2.72024e-05 0)
(0 -9.64134e-06 0)
(0 -4.98819e-05 0)
(0 -8.90831e-06 0)
(0 -9.16141e-06 0)
(0 2.61863e-05 0)
(0 1.22987e-05 0)
(0 -8.8853e-06 0)
(0 1.11601e-05 0)
(0 -8.96636e-06 0)
(0 -3.80147e-05 0)
(0 -5.91236e-05 0)
(0 -8.91426e-06 0)
(0 -8.40157e-06 0)
(0 -8.79928e-06 0)
(0 -3.06712e-05 0)
(0 -0.000146081 0)
(0 -8.1408e-05 0)
(0 -8.82318e-06 0)
(0 -9.67686e-06 0)
(0 -9.26233e-05 0)
(0 0.000277794 0)
(0 -6.3036e-06 0)
(0 -5.33508e-06 0)
(0 -9.03049e-06 0)
(0 0.000334141 0)
(0 -0.000140892 0)
(0 -8.95739e-06 0)
(0 -3.10025e-05 0)
(0 7.85637e-05 0)
(0 -9.6483e-06 0)
(0 -7.90329e-06 0)
(0 -0.000142196 0)
(0 0.000157658 0)
(0 -8.81549e-06 0)
(0 -8.90345e-06 0)
(0 0.000306418 0)
(0 -4.10998e-06 0)
(0 -4.58306e-06 0)
(0 3.12065e-05 0)
(0 2.83255e-05 0)
(0 -9.95996e-06 0)
(0 0.000386527 0)
(0 -4.8823e-05 0)
(0 -1.25788e-05 0)
(0 6.41405e-05 0)
(0 -8.81074e-06 0)
(0 -5.80477e-05 0)
(0 -8.82469e-06 0)
(0 0.000567566 0)
(0 -6.09126e-06 0)
(0 -8.8292e-06 0)
(0 -5.70245e-06 0)
(0 0.000404702 0)
(0 -4.42963e-05 0)
(0 -6.79335e-06 0)
(0 6.5497e-06 0)
(0 -0.000137489 0)
(0 0.000256001 0)
(0 0.000523233 0)
(0 3.82907e-05 0)
(0 -9.12296e-06 0)
(0 0.000156868 0)
(0 0.000473032 0)
(0 -8.86591e-06 0)
(0 -5.7974e-06 0)
(0 -4.71767e-06 0)
(0 -4.27121e-05 0)
(0 0.000365959 0)
(0 0.000100214 0)
(0 -1.70343e-05 0)
(0 -9.0163e-06 0)
(0 -8.3925e-06 0)
(0 2.35096e-05 0)
(0 -1.10032e-05 0)
(0 0.00053401 0)
(0 1.46154e-05 0)
(0 0.000274748 0)
(0 -8.83755e-06 0)
(0 -1.55292e-05 0)
(0 -1.12634e-06 0)
(0 -9.7107e-06 0)
(0 -4.80733e-06 0)
(0 0.000179962 0)
(0 -9.0287e-06 0)
(0 -8.97771e-06 0)
(0 0.000400006 0)
(0 0.000353402 0)
(0 0.000570413 0)
(0 3.41052e-05 0)
(0 -1.09106e-05 0)
(0 1.53522e-05 0)
(0 -9.8323e-06 0)
(0 -3.38169e-05 0)
(0 -2.04341e-05 0)
(0 -1.1433e-06 0)
(0 -8.86065e-06 0)
(0 2.29833e-05 0)
(0 -7.81931e-06 0)
(0 6.77645e-05 0)
(0 -8.86141e-06 0)
(0 0.000263054 0)
(0 0.000250823 0)
(0 -2.62465e-07 0)
(0 6.37961e-05 0)
(0 0.000534313 0)
(0 0.000415626 0)
(0 -5.53359e-05 0)
(0 -8.87685e-06 0)
(0 -8.84267e-06 0)
(0 4.05796e-05 0)
(0 -8.91817e-06 0)
(0 9.89155e-06 0)
(0 -8.83427e-06 0)
(0 -8.89492e-06 0)
(0 -1.72289e-05 0)
(0 -3.86797e-05 0)
(0 0.000107571 0)
(0 3.65455e-05 0)
(0 2.05791e-05 0)
(0 -9.18369e-06 0)
(0 -3.01768e-05 0)
(0 -7.75556e-05 0)
(0 2.34206e-05 0)
(0 -8.59217e-06 0)
(0 -8.89086e-06 0)
(0 -8.66477e-06 0)
(0 9.62137e-05 0)
(0 -9.01328e-06 0)
(0 2.13263e-06 0)
(0 1.08156e-05 0)
(0 -1.48052e-05 0)
(0 3.04285e-05 0)
(0 -8.8114e-06 0)
(0 -8.14814e-06 0)
(0 -8.89295e-06 0)
(0 4.56373e-05 0)
(0 0.000285241 0)
(0 -1.00232e-05 0)
(0 -9.10605e-05 0)
(0 4.06199e-06 0)
(0 -3.84402e-05 0)
(0 -9.71297e-06 0)
(0 0.000394297 0)
(0 -4.59699e-05 0)
(0 9.30566e-05 0)
(0 -1.03679e-05 0)
(0 -9.55688e-06 0)
(0 -7.8901e-05 0)
(0 -6.69115e-06 0)
(0 0.00041863 0)
(0 -5.97128e-06 0)
(0 -6.29214e-06 0)
(0 -8.83262e-06 0)
(0 0.000143382 0)
(0 -1.18942e-05 0)
(0 5.12254e-06 0)
(0 9.48084e-05 0)
(0 0.000287049 0)
(0 -8.24691e-06 0)
(0 1.08888e-06 0)
(0 -1.79122e-05 0)
(0 -4.17114e-05 0)
(0 -4.78636e-05 0)
(0 0.000438748 0)
(0 1.8613e-05 0)
(0 0.000305806 0)
(0 -0.000130102 0)
(0 0.000353083 0)
(0 0.000421507 0)
(0 -8.84681e-06 0)
(0 -2.04796e-05 0)
(0 0.00013331 0)
(0 0.000326426 0)
(0 1.6693e-05 0)
(0 -1.19011e-05 0)
(0 -8.81874e-06 0)
(0 -8.51781e-06 0)
(0 -1.50152e-05 0)
(0 -0.00010412 0)
(0 0.000528079 0)
(0 1.27134e-05 0)
(0 0.000319012 0)
(0 -9.05867e-06 0)
(0 -8.84042e-06 0)
(0 1.55144e-05 0)
(0 1.30518e-05 0)
(0 2.81422e-05 0)
(0 -9.00013e-06 0)
(0 -9.84019e-05 0)
(0 -7.86269e-05 0)
(0 -8.83017e-06 0)
(0 -5.23411e-05 0)
(0 0.000534976 0)
(0 -9.15183e-06 0)
(0 -8.89985e-06 0)
(0 -4.22059e-05 0)
(0 0.000293012 0)
(0 -8.03572e-05 0)
(0 -8.87372e-06 0)
(0 -9.8854e-06 0)
(0 -9.65451e-06 0)
(0 -9.93409e-06 0)
(0 -8.63106e-06 0)
(0 -7.13594e-05 0)
(0 -8.91094e-06 0)
(0 -2.72146e-06 0)
(0 7.38412e-05 0)
(0 -8.53486e-06 0)
(0 -1.07144e-05 0)
(0 -4.82264e-05 0)
(0 -8.80353e-06 0)
(0 -0.000110279 0)
(0 0.000229456 0)
(0 0.000238434 0)
(0 -9.12574e-06 0)
(0 0.000436174 0)
(0 -9.54106e-06 0)
(0 -4.19709e-05 0)
(0 -8.22992e-05 0)
(0 -2.0022e-05 0)
(0 0.000565815 0)
(0 -9.12267e-06 0)
(0 -8.89617e-06 0)
(0 0.000527689 0)
(0 -9.34966e-05 0)
(0 -9.81862e-06 0)
(0 -8.59277e-06 0)
(0 -8.81972e-06 0)
(0 -3.78333e-06 0)
(0 3.46091e-05 0)
(0 1.82434e-05 0)
(0 0.000332722 0)
(0 0.000264206 0)
(0 0.000139252 0)
(0 1.46476e-05 0)
(0 -7.74097e-05 0)
(0 -1.59013e-06 0)
(0 -3.65755e-07 0)
(0 -1.1412e-05 0)
(0 0.000500639 0)
(0 2.44464e-05 0)
(0 1.91184e-05 0)
(0 1.09521e-06 0)
(0 -7.19772e-06 0)
(0 0.000351166 0)
(0 -1.07929e-05 0)
(0 -6.81566e-06 0)
(0 4.79859e-06 0)
(0 -8.92341e-06 0)
(0 -1.93458e-06 0)
(0 0.000110707 0)
(0 -8.8982e-06 0)
(0 0.000152626 0)
(0 0.000246989 0)
(0 -9.21803e-06 0)
(0 -8.5514e-06 0)
(0 -8.81959e-06 0)
(0 0.000232587 0)
(0 1.53467e-05 0)
(0 -8.85334e-06 0)
(0 0.000532543 0)
(0 0.000361885 0)
(0 -2.60029e-05 0)
(0 2.60521e-06 0)
(0 -1.38137e-05 0)
(0 -1.10008e-05 0)
(0 0.00027634 0)
(0 -8.83353e-06 0)
(0 -9.14404e-06 0)
(0 -5.55972e-05 0)
(0 -8.19355e-06 0)
(0 -8.81829e-06 0)
(0 -0.000142104 0)
(0 2.963e-05 0)
(0 -7.19172e-06 0)
(0 -8.81623e-06 0)
(0 -3.90378e-05 0)
(0 -1.11264e-05 0)
(0 2.19777e-05 0)
(0 -2.72716e-05 0)
(0 0.000418555 0)
(0 -1.08203e-05 0)
(0 -8.88656e-06 0)
(0 -8.74844e-06 0)
(0 -8.80807e-06 0)
(0 -8.69544e-06 0)
(0 -6.6124e-05 0)
(0 4.32032e-06 0)
(0 5.59566e-06 0)
(0 2.51281e-05 0)
(0 -1.79619e-05 0)
(0 0.000253443 0)
(0 -8.83824e-06 0)
(0 3.45292e-05 0)
(0 -8.91826e-06 0)
(0 9.49818e-06 0)
(0 8.0295e-05 0)
(0 -7.88361e-06 0)
(0 -9.2044e-06 0)
(0 -8.82098e-06 0)
(0 -8.99502e-06 0)
(0 -1.39654e-05 0)
(0 0.000125574 0)
(0 0.000404627 0)
(0 -9.0127e-06 0)
(0 -8.9965e-06 0)
(0 -2.94812e-05 0)
(0 1.71703e-05 0)
(0 5.91876e-05 0)
(0 -8.72798e-06 0)
(0 -9.61852e-06 0)
(0 -9.66736e-06 0)
(0 -3.98258e-06 0)
(0 -6.86193e-05 0)
(0 0.000250253 0)
(0 -1.00025e-05 0)
(0 0.00052676 0)
(0 -8.88325e-06 0)
(0 0.000112221 0)
(0 -2.31655e-06 0)
(0 -1.05845e-05 0)
(0 7.15971e-05 0)
(0 -8.86202e-06 0)
(0 0.000174353 0)
(0 -8.84403e-06 0)
(0 0.000288594 0)
(0 -7.19985e-05 0)
(0 8.73344e-05 0)
(0 -5.67017e-05 0)
(0 9.97698e-05 0)
(0 -1.71589e-05 0)
(0 -1.22075e-05 0)
(0 -8.80046e-06 0)
(0 -8.8391e-06 0)
(0 -2.55205e-05 0)
(0 -1.35033e-05 0)
(0 -5.89922e-06 0)
(0 -9.00498e-06 0)
(0 -8.77714e-06 0)
(0 1.48008e-05 0)
(0 0.000213748 0)
(0 0.00053854 0)
(0 4.20132e-05 0)
(0 -8.81954e-06 0)
(0 8.88537e-06 0)
(0 5.34026e-05 0)
(0 -6.14897e-06 0)
(0 0.000126607 0)
(0 1.89881e-05 0)
(0 0.000175181 0)
(0 -0.000154391 0)
(0 -1.1315e-05 0)
(0 -8.88478e-06 0)
(0 -4.02532e-05 0)
(0 0.000146247 0)
(0 -8.09553e-06 0)
(0 0.000119525 0)
(0 2.97929e-06 0)
(0 7.09049e-06 0)
(0 -8.85928e-06 0)
(0 -3.21812e-05 0)
(0 -4.18341e-06 0)
(0 -0.000121843 0)
(0 0.000520667 0)
(0 0.000525816 0)
(0 -8.80842e-06 0)
(0 -8.791e-06 0)
(0 -3.10648e-06 0)
(0 0.0003414 0)
(0 0.000411422 0)
(0 0.000169923 0)
(0 -8.87567e-06 0)
(0 0.000546873 0)
(0 -8.86198e-06 0)
(0 -8.80923e-06 0)
(0 -7.4026e-06 0)
(0 -2.54079e-06 0)
(0 0.000254861 0)
(0 7.57975e-06 0)
(0 1.77344e-05 0)
(0 -0.000125653 0)
(0 -8.84656e-06 0)
(0 -1.32275e-05 0)
(0 -1.14689e-05 0)
(0 2.43913e-06 0)
(0 1.81964e-05 0)
(0 7.27989e-05 0)
(0 -6.359e-05 0)
(0 -8.73028e-06 0)
(0 -9.19237e-06 0)
(0 -6.67996e-06 0)
(0 -8.76514e-06 0)
(0 -8.79271e-06 0)
(0 0.00032479 0)
(0 -0.000113825 0)
(0 0.000295476 0)
(0 0.000271737 0)
(0 -8.83841e-06 0)
(0 -9.16949e-06 0)
(0 -7.26097e-06 0)
(0 -1.05117e-05 0)
(0 0.000187649 0)
(0 -6.22119e-06 0)
(0 -1.25457e-05 0)
(0 -8.84085e-06 0)
(0 -7.19724e-06 0)
(0 -8.8984e-06 0)
(0 -1.93484e-05 0)
(0 5.04874e-05 0)
(0 -0.000116956 0)
(0 2.98856e-06 0)
(0 -1.06089e-05 0)
(0 0.000568183 0)
(0 0.000513113 0)
(0 -8.84951e-06 0)
(0 -7.89853e-06 0)
(0 -7.83579e-06 0)
(0 0.00040547 0)
(0 -2.92081e-05 0)
(0 1.70407e-05 0)
(0 -8.80421e-06 0)
(0 -8.50463e-06 0)
(0 0.000392293 0)
(0 0.000263904 0)
(0 -4.13682e-05 0)
(0 -0.000100454 0)
(0 1.49754e-06 0)
(0 -0.000135365 0)
(0 0.000255876 0)
(0 -8.81621e-06 0)
(0 -9.94723e-06 0)
(0 -8.82051e-06 0)
(0 8.96735e-07 0)
(0 -8.20782e-06 0)
(0 -3.06851e-06 0)
(0 -8.88947e-06 0)
(0 0.000391094 0)
(0 -2.74074e-05 0)
(0 -8.80122e-06 0)
(0 8.32946e-06 0)
(0 3.8426e-05 0)
(0 -8.82249e-06 0)
(0 7.54743e-05 0)
(0 0.000455126 0)
(0 -1.89649e-05 0)
(0 -8.59898e-06 0)
(0 -8.82315e-06 0)
(0 3.12689e-06 0)
(0 0.000291813 0)
(0 0.000555121 0)
(0 2.75532e-06 0)
(0 4.73336e-05 0)
(0 -2.55956e-05 0)
(0 -8.61111e-06 0)
(0 0.000561747 0)
(0 -3.32756e-05 0)
(0 -0.000149416 0)
(0 0.000518361 0)
(0 2.19666e-06 0)
(0 -9.21482e-06 0)