/*--------------------------------*- C++ -*----------------------------------*\
| =========                 |                                                 |
| \\      /  F ield         | OpenFOAM: The Open Source CFD Toolbox           |
|  \\    /   O peration     | Version:  v2012                                 |
|   \\  /    A nd           | Website:  www.openfoam.com                      |
|    \\/     M anipulation  |                                                 |
\*---------------------------------------------------------------------------*/
FoamFile
{
    version     2.0;
    format      ascii;
    class       volScalarField;
    location    "300";
    object      k_0;
}
// * * * * * * * * * * * * * * * * * * * * * * * * * * * * * * * * * * * * * //

dimensions      [0 2 -2 0 0 0 0];


internalField   nonuniform List<scalar> 
13851
(
0.000153053
0.0191578
0.000191336
0.000152144
0.000189653
0.000419907
0.000146445
0.000178426
0.000140216
0.000200795
0.00427061
0.0361283
0.00633239
0.0375775
0.000144005
0.000168235
0.000156932
0.000163161
0.000312924
0.000140004
0.000151706
0.00019026
0.00014343
0.000153328
0.000144544
0.000179132
0.000155405
0.00314465
0.000152645
0.000155593
0.000500587
0.000157579
0.000190342
0.00633976
0.000153469
0.000211576
0.000121564
0.000216169
0.000203851
0.00646841
0.000144803
0.00013254
0.00561748
0.00431322
0.00401822
0.0186236
0.00380223
0.00225166
0.000155879
0.000263092
0.000188696
0.00020188
0.0124797
0.000145833
0.000154003
0.000132684
0.000143986
0.0141716
0.000155087
0.000147055
0.000225919
0.019263
0.000201205
0.000192523
0.000764389
0.00015674
2.09985e-05
0.00341212
0.000168217
0.000162999
0.015167
0.00255845
0.0205031
0.000146673
0.000141323
0.000143419
0.000189484
0.0152838
0.00017831
0.0177661
0.000148806
0.00332583
0.00014386
0.0160188
0.000201084
0.036239
0.000212744
0.0336836
0.000157769
0.000142298
0.000211451
0.000177827
0.00323038
0.000161278
0.000157398
0.000149246
0.000190139
0.0267148
0.000286417
0.000149144
0.0261643
0.000179975
0.000149811
0.000154598
0.000143575
0.000209686
0.000182398
0.000131538
0.0116627
0.000557483
0.000152512
0.000142769
0.000190086
0.000156169
0.000152612
0.013558
0.0272575
0.000131588
0.000158612
0.000157726
0.00546113
0.000154385
0.00951699
0.00628844
0.00417866
0.000154545
0.00428994
0.000179206
0.000151173
0.00020013
0.000144581
0.000139278
0.0181348
0.000143823
0.0148563
0.000140882
0.000131668
0.00186151
0.020973
0.0336585
0.0259819
0.000153782
0.00015099
0.000136136
0.000153431
0.00429305
0.000899319
0.000200331
0.000146262
0.00380559
0.00019021
0.000154378
0.0373771
0.00014444
0.000152469
0.000153245
0.000142891
0.000153053
0.00020165
0.000188289
0.000134784
0.000161038
0.0143755
0.000139154
0.000161258
0.000134277
0.00120888
0.000168661
0.000150834
0.0171211
0.0133842
0.000136893
0.000143022
0.0325418
0.000138999
0.00268991
0.000178351
0.000151807
0.000319862
0.000131972
0.000158904
0.00255557
0.000143725
0.000191593
0.000133164
0.000144562
0.000157441
0.000148622
0.000192061
0.000207504
0.00370251
0.0139333
0.000144085
0.00016842
0.0194975
0.000152043
0.000150201
0.00280148
0.000151096
0.000143659
0.000155313
0.0195905
0.000166732
0.000143219
0.000194289
0.000143842
0.0218591
0.000157206
0.0271967
0.000132804
0.0298442
0.000149425
0.00245979
0.000131484
0.000135393
0.00394695
0.000193209
0.0190449
0.000143379
0.0281647
0.000157528
0.000149048
0.0272767
0.000199718
0.0354905
0.000145049
0.000163864
0.000144954
0.0163742
0.000131611
0.000178267
0.000284053
0.000136792
0.000143566
0.000186279
0.000175173
0.0208321
0.00189535
0.000136017
0.000143331
0.000391041
0.00185426
0.00014009
0.00019731
0.000141482
0.0349132
0.000180504
0.00497148
0.000153481
0.000158602
0.000178058
0.00301742
0.000149007
0.000153658
0.000180729
0.011647
0.000202938
0.00188309
0.00496765
0.000144165
0.000135513
0.000161656
0.00863824
0.000138986
0.00310188
0.000152017
0.00014885
0.000160559
0.0252692
0.000370076
0.000177129
0.00015248
0.00460388
0.000176847
0.000167377
0.000139407
0.00323825
0.00299129
0.0375178
0.00404639
0.000141147
0.000132344
0.00014334
0.000179649
0.00644777
0.00324827
0.000141761
0.000144033
0.00361757
0.00303985
0.000203713
0.000154392
0.000147175
0.000170537
0.00309432
0.00306212
0.000160483
0.0370971
0.000139674
0.0347566
0.000160473
0.000156708
0.0361639
0.000147249
0.000216717
0.0307548
0.000141432
0.000175732
0.000161471
0.000153866
0.0171441
0.000160753
0.000148693
0.0279166
0.000133011
0.000159036
0.000162431
0.0350285
0.000202514
0.000143391
0.000180736
0.000143612
0.0105758
0.000200374
0.000143261
0.000145506
0.000201785
0.000163
0.000152196
0.000144044
0.000147106
0.000148495
0.00418911
0.0266021
0.0184433
0.000168848
0.0336979
0.0182884
0.000143643
0.000169083
0.000204206
0.000189848
0.000184921
0.000199124
0.000143479
0.000162035
0.00537356
0.032249
0.000144243
0.000428123
0.000430018
0.000286701
0.000152171
0.000187044
0.0167514
0.00014338
0.00435101
0.000145482
0.000143674
0.00013988
0.000131629
0.000141981
0.0317535
0.00184527
0.0001445
0.000174529
0.000133675
0.0364805
0.000173822
0.00319109
0.0179035
0.000144696
0.000198367
0.000161668
0.00243075
0.000143902
0.000131697
0.000183701
0.0206962
0.000144811
0.0173247
0.000178777
0.000201247
0.0155024
0.00123538
0.00091564
0.00016473
0.000139664
0.000150002
0.000166823
0.000180455
0.0390127
0.000168629
0.0341089
0.0311573
0.000133774
0.00014426
0.0179243
0.0197442
0.00025982
0.0275373
0.00018877
0.000162538
0.000148026
0.0151459
0.000138387
0.000167653
0.000161888
0.000145771
0.000144407
0.000141108
0.000134175
0.000191924
0.000179368
0.0140328
0.000164249
0.000182079
0.000176553
0.00406833
0.000160115
0.000239749
0.000156179
0.00379864
0.000131574
0.000140817
0.000146112
6.31741e-05
0.00478401
0.000198801
0.000174457
0.0110274
0.00609155
0.000207102
0.000160753
0.000186788
0.000143657
0.00482226
0.000142985
0.00250309
0.00418435
0.000189418
0.0244541
0.000151685
0.00293733
0.00405694
0.0180553
0.000131766
0.000164316
0.000178994
0.000862329
0.000137695
0.000148563
0.000188706
0.000200778
0.000169767
0.0249715
0.000144956
0.000145965
0.0112538
0.000162112
0.000132078
0.0302498
0.000139588
0.000152898
0.000138537
0.000171975
0.000151956
0.000132504
0.000151121
0.0270337
0.000143986
0.000170615
0.000140086
0.000166567
0.00370079
0.000157682
0.000144885
0.000156509
0.000156115
0.00619609
0.00014873
0.000245937
0.000143678
0.000146435
0.0302856
0.023127
0.000144087
0.000170011
0.00016033
0.000682468
0.0173025
0.000145974
0.00223528
0.00014411
0.000189852
0.0001463
0.0179576
0.000133004
0.0118955
0.000203564
0.000132663
0.000170259
0.0220685
0.000179222
0.00351012
0.000157894
0.00735599
0.000157384
0.00013861
0.000139633
0.00014573
0.0239677
0.000186157
0.00020342
7.92597e-05
0.000190689
0.000135207
0.0192054
0.00501595
0.000159125
0.000161365
0.00042882
0.00699537
0.0266718
0.000152299
0.0185024
0.0177992
0.0196438
0.000161634
0.000173458
0.00102798
0.00312228
0.0143763
0.00297497
0.00979762
0.000153515
0.0115511
0.00393615
0.00013179
0.00289503
0.000186783
0.0188255
0.000153892
0.000142786
0.000142572
0.000143768
0.000191501
0.000171494
0.0331386
0.0244392
0.000139923
0.00959298
0.0229362
0.00026435
0.00453403
0.000170074
0.000131572
0.000140521
0.00300708
0.0217012
0.000152708
0.000194722
0.000211304
0.000132566
0.000195452
0.00617364
0.000131157
0.000198187
0.0251383
0.00397285
0.000144355
0.000145901
0.0232788
0.0310349
0.000204057
0.000168422
0.000217025
0.000131851
0.000142042
0.00399273
0.000132298
0.000153704
0.000131857
0.000139524
0.00491215
0.000191543
0.000167968
0.000132207
0.0155876
0.00202771
0.000139839
0.000141663
0.000139305
0.00014922
0.0188601
0.00390496
0.0029532
0.0195563
0.00716822
0.000166739
0.0152312
0.0247831
0.000164614
0.000168703
0.000131558
0.000162252
0.000169837
0.0244402
0.00556278
0.000194297
0.000163019
0.000139466
0.000167778
0.000150053
0.00383992
0.0001883
0.000143564
0.000169546
0.000137667
0.000160165
0.000199357
0.000146707
0.000143453
0.000174121
0.000146691
0.000189958
9.38468e-05
0.000198898
0.000168162
0.000205231
0.000139256
0.000229841
0.000186221
0.0194232
0.000149168
0.000150234
0.00873753
0.000154384
0.0152091
0.0329732
0.0191202
0.0282676
0.000138288
0.00308094
0.000143907
0.000139533
0.000133013
0.000139604
0.000252085
0.000165693
0.000170309
0.000131978
0.0173645
0.000208338
0.0189129
0.000141995
0.000134546
0.000140579
0.000202284
0.0190053
0.000181349
0.000160573
0.000143622
0.000147165
0.000147424
0.000143675
0.00022841
0.0294075
0.000146417
0.000131871
0.000145861
0.000143546
0.00021075
0.0143648
0.000168355
0.0250409
0.00724433
0.000143238
0.000202792
0.0195563
0.000170038
0.0351248
0.000148748
0.000161938
0.000180864
0.000162776
0.00237197
0.000143961
0.00249686
0.000143732
0.000164398
0.0269755
0.000144456
0.000152612
0.000220142
0.000138766
0.000158074
0.00428146
0.0362844
0.000187712
0.0024449
0.00244669
0.000131602
0.000141696
0.028111
0.000209177
0.000177017
0.0327353
0.000139606
0.000164856
0.000131887
0.00687882
9.76007e-05
0.000158295
0.000148218
0.0037586
0.000155777
0.000140269
0.00951033
0.0156316
0.0262541
0.000132875
0.000146271
0.015481
0.00952867
0.000208596
0.000149455
0.0142853
0.00014392
0.00385934
0.000203835
0.000190847
0.000157246
0.0187836
0.000170219
0.000152061
0.000141752
0.000149758
0.000166191
0.000152417
0.000139047
0.0110738
0.000166948
0.000198762
0.000167015
0.00352138
0.000139722
0.00751426
0.000157391
0.000169528
0.000135037
0.000142859
0.000144951
0.0306522
0.000142238
0.000131972
0.0101202
0.000146136
0.0190978
0.000144042
0.000150277
0.000188317
0.000287659
0.00231289
0.000141475
0.00272516
0.0258441
0.000148887
0.0278919
0.000164047
0.000138703
0.000195842
0.00697818
0.00144517
0.000158888
0.00014097
0.000131657
0.00476163
0.00019385
0.000185751
0.000159845
0.000194937
0.00015005
0.00014983
0.000194522
0.00439188
0.000191498
0.00705886
0.000146039
0.000190075
0.000192066
0.0334363
0.000158052
0.0265664
7.90356e-05
0.000146275
0.0159947
0.000220199
0.0234945
0.0392091
0.0285852
0.00302778
0.000175414
0.000138867
0.0001661
0.0147511
0.0153401
0.000145317
0.000146277
0.000186935
0.00310527
0.000132621
0.0122622
0.000139269
0.000144485
0.0119394
0.0152612
0.00228981
0.000139504
0.000143786
0.0108286
0.000230055
0.000201878
0.000154556
0.0212673
0.00014539
0.0208013
0.000182036
0.000173931
0.000148715
0.00014615
0.02189
0.000179571
0.0187317
0.000205824
0.000168157
0.0117571
0.0231662
0.0205555
0.000144578
0.000165083
0.00013973
0.000168812
0.000152349
0.0343333
0.000165347
0.0333997
0.000132489
0.000187695
0.000142496
0.000218009
0.000167369
0.000164633
0.0255267
0.000175864
0.000173563
0.000153934
0.000187636
0.00232414
0.000210637
0.000153916
0.0137809
0.000138456
0.0428399
0.00209215
0.000147209
0.0317922
0.0236056
0.0205227
0.00367535
0.000196702
0.000144924
0.025112
0.000166161
0.0135576
0.027734
0.00014187
0.000151782
0.000121892
0.00203635
0.0283723
0.000146204
0.00014132
0.0246789
0.0269992
0.000198186
0.000158092
0.000152212
0.00292471
0.0161236
0.000192662
0.000132014
0.00017587
0.000138815
0.000162462
0.000471151
0.000148567
0.00390485
0.00526849
0.000144648
0.00015161
0.000145137
0.000152583
0.0155923
0.0209229
0.000163787
0.0258365
0.000142422
0.000163867
0.000144657
0.000138939
0.000146716
0.000144497
0.0211
0.000144129
0.00018088
0.000144672
0.00015913
0.000531479
0.00798191
0.000158357
0.0232834
0.000188291
4.3526e-05
0.000167637
0.000167905
0.0163449
0.000160163
0.000173166
0.0348752
0.0131339
0.0124022
0.000174269
0.00380064
0.000148724
0.000174425
0.000180515
0.0276882
0.000145875
0.0280556
0.000141504
0.000142179
0.0383496
0.000150435
0.00156933
0.000157751
0.000139762
0.000186961
0.000139803
0.00014382
0.000149705
0.00014842
0.000229235
0.000142056
0.000232811
0.015455
0.000190068
0.0323978
0.000145918
0.000157789
0.000169339
0.000143953
0.000139534
0.000191168
0.000148865
0.000142417
0.00014843
0.000144855
0.0188308
0.0287683
0.000212164
0.0276917
0.000214511
0.000142027
0.00117541
0.000162759
0.000141791
0.00427462
0.000238112
0.00441267
0.000141816
0.00400513
0.00236702
0.0181712
0.000137004
0.00773621
0.000165921
0.000155191
0.000153594
0.000139594
0.0181581
0.000219101
0.00494818
0.000143957
0.000143495
0.00695566
0.000147302
0.000264295
0.002659
0.0233078
0.000158573
0.00329463
0.000145844
0.00014431
0.000194668
0.00016688
0.000154677
0.000205951
0.00017561
0.000149047
0.000151881
0.0291087
0.000142716
0.0178564
0.000470729
0.01397
0.000222576
0.000151924
0.000136718
0.000147677
0.00354698
0.00514599
0.000137006
0.000161365
0.000143743
0.000190241
0.000133246
0.000143276
0.000149223
0.000167464
0.000118467
0.000173248
0.000168233
0.000145419
0.000180923
0.00859047
0.000150203
0.0159894
0.00705177
0.000191699
0.000134447
0.000176513
0.000142767
0.000143533
0.000147362
0.0151998
0.000202372
0.00489155
0.000154788
0.0037753
0.000143139
0.000144022
0.000147278
0.000901968
0.0175584
0.00013427
0.000167068
0.00018227
0.0245222
0.000157513
0.0221732
0.0002687
0.0211086
0.000193781
0.0233683
0.000194955
0.000191109
6.41352e-05
0.0241802
0.00368299
0.0201956
0.000143591
0.000234098
0.00013313
0.000154113
0.000158971
0.000146957
0.0244927
0.000164157
0.000161216
0.00344416
0.00020883
0.00445555
0.000143495
0.000154336
0.000159017
0.00013742
0.000168406
0.0247707
0.00553509
0.0113446
0.000140602
0.000160234
0.000155923
0.00582642
0.0269779
0.000194004
0.000136617
0.000148511
0.018911
0.000178376
0.00917226
0.022948
0.000260888
0.000134273
0.00198369
0.000167703
0.000176407
0.000162516
0.0291541
0.00304858
0.000198422
0.00022529
0.000150125
0.000162774
0.000144487
0.0113792
0.000177237
0.0232451
0.00378165
0.000158757
0.000206342
0.00015195
0.0282052
0.000216895
0.000140876
0.00637986
0.0279388
0.0097197
0.00861035
0.00014644
0.000144552
0.0157624
0.0103522
0.017149
0.000155249
0.00014589
0.000144669
0.0192278
0.000207689
0.000148334
0.000231086
0.000194904
0.0204493
0.00154868
0.003478
0.000144158
0.0113091
0.0001565
0.000144771
0.000205067
0.0186839
0.000146542
0.000141602
0.00666279
0.0267669
0.000151625
0.000140493
0.0285031
0.000140428
0.00299801
0.000140603
0.00676276
0.00014457
0.000181296
0.0138478
0.0265395
0.000151307
0.00716341
0.0054648
0.0165959
0.000999152
0.0216833
0.000274983
0.000142384
0.00472791
0.000158116
0.000143608
0.000137254
0.00430612
0.000143065
0.000141625
0.000141792
0.000152268
0.0142959
0.000188948
0.00206823
0.000152429
0.000186623
0.000139488
0.000166928
0.000877563
0.0300595
0.00014049
0.000186702
0.0040018
0.000147007
0.000139878
0.0262877
0.000168814
0.000170119
0.000202784
0.0385186
0.0172195
0.000713176
0.00686213
0.000313519
0.00389729
0.00523021
0.0241711
0.000186584
0.000136645
0.000203177
0.000142328
0.000142363
0.0289939
0.0267024
0.000153173
0.0362324
0.000233529
0.0173635
0.000262307
0.000220418
0.000143554
0.000232294
0.000224317
0.000142962
0.000151641
0.0300898
0.0270953
0.020882
0.0248668
0.000171774
0.0358571
0.0308782
0.000166379
0.000147328
0.000142726
0.00317996
0.000141454
0.000223576
0.000152649
0.000149723
0.000153728
0.0100274
0.0309542
0.0214863
0.000148316
0.00235077
0.000157375
0.000163174
0.000141012
0.00014078
0.0130023
0.000160685
0.0252628
0.0253398
0.00019826
0.000200823
0.000144429
0.000174539
0.000147058
0.000207355
0.000151487
0.000152162
0.000147975
0.000153758
0.000207515
0.000149915
0.000169921
0.000143248
0.000170582
0.000234784
0.0164294
0.00014322
0.00017888
0.000145468
0.000217599
0.00020317
0.021264
0.000240008
0.000165958
0.000154568
0.000152604
0.000313478
0.000144058
0.00360192
0.000143916
0.000144319
0.000149732
0.0286298
0.000160488
0.000155494
0.000186379
0.000144155
0.000186336
0.0278763
0.00249818
0.000170114
0.000144486
0.000196016
0.000137348
0.000144825
0.000222469
0.033255
0.000143604
0.000163962
0.000229437
0.00299114
0.00014858
0.000149621
0.0321065
0.000151618
0.000223692
0.000214068
0.0292397
0.000144768
0.000238345
0.000143108
0.0354837
0.000205035
0.000175583
0.000201059
0.0223759
0.000150921
0.025194
0.012032
0.000147107
0.0121674
0.000191752
0.000152501
0.0124104
0.000145864
0.000145471
0.00013873
0.00020801
0.000261146
0.000209215
0.000152279
0.00015044
0.00016412
0.00294919
0.000162341
0.029742
0.00365306
0.00014943
0.000205368
0.000200183
0.0133667
0.000192812
0.00312303
0.000141576
0.000186892
0.000139843
0.017747
0.000169222
0.000143049
0.029038
0.000233412
0.000167429
0.000162417
0.000132997
0.000143686
0.000183941
0.000169366
0.00897121
0.000186545
0.000188485
0.00018811
0.000197334
0.0193385
0.000147698
0.0301389
0.00014344
0.000142198
0.000236313
0.022857
0.0120596
0.000269919
0.000156278
0.0141586
0.00397612
0.000144657
0.000159348
0.000139736
0.000174561
0.000188163
0.00133299
0.0137842
0.00017248
0.000151772
0.0222811
0.0128013
0.00014407
0.000205321
0.0224507
0.0119859
0.000154783
0.000190035
0.000131557
0.000158439
0.000143111
0.000157834
0.0331653
0.0225905
0.00991293
0.0170816
0.000151553
0.000168516
0.000184136
0.000141806
0.000149006
0.000139588
0.0230569
0.000141219
0.0253081
0.000169848
0.000193273
0.000204299
0.000231242
0.0165881
0.0033777
0.000173999
0.000133989
0.000152167
0.00211427
0.000557116
0.000156817
0.000139513
0.000139477
0.000186477
0.00016517
0.000207116
0.0179014
0.000151394
0.000139028
0.000202868
0.000195868
0.0152669
0.0152875
0.000140591
0.000188167
0.000146763
0.0376885
0.000135383
0.0359657
0.000146179
0.000151157
0.000170018
0.000149026
0.000220446
0.0001644
0.000178379
0.0162901
0.0275819
0.000157724
0.000164521
0.000143381
0.00268563
0.0188029
0.000149926
0.000135518
0.00420813
0.000131431
0.0252182
0.000144785
0.000170398
0.000189908
0.0187023
0.000169741
0.000150825
0.000146009
0.000188535
0.029603
0.000142438
0.0188242
0.0306348
0.0148405
0.000178585
0.00016732
0.018432
0.000157699
0.000147256
0.000143114
0.00340942
0.00364179
0.0132575
0.0173064
0.022065
0.00015347
0.000292433
0.000141691
0.0122887
0.0040207
0.0300286
0.0157612
0.000160486
0.0162628
0.00486697
0.000168761
0.000152055
0.000146622
0.0259264
0.00015846
0.000188342
0.00016196
0.000147348
0.000138881
0.000146532
0.0268072
0.000235149
0.00016606
0.0194494
0.00298126
0.000149203
0.000143549
0.000139908
0.000165363
0.0354064
0.000224321
0.000158241
0.000171024
0.0180289
0.000192217
0.000176778
0.0107046
0.000165046
0.0314077
0.000164374
0.000164979
0.000143263
0.000161307
0.000187625
0.00352609
0.00335318
0.0284526
0.000189025
0.0161549
0.000159128
0.000156125
0.000144537
0.0104204
0.022809
0.00740622
0.000242464
0.000154191
0.000144639
0.000142262
0.000143905
0.000139828
0.00946729
0.000163734
0.0128602
0.000166753
0.0233088
0.00245288
0.0342356
0.000217109
0.000158711
0.0173647
0.000172579
0.0156529
0.0288294
0.000138498
0.000254742
0.000160832
0.0150983
0.00875073
0.000169237
0.000225884
0.00589827
0.000160156
0.00018309
0.000164623
0.020028
0.00222336
0.00015523
0.000146037
0.00349404
0.000223431
0.000199825
0.0086007
0.000202852
0.000166802
0.000144216
0.0317115
0.0322805
0.000194917
0.000165237
0.0270686
0.0326437
0.000141892
0.000144228
0.000155732
0.0293819
0.0278312
0.000143549
0.0195212
0.000149616
0.000143037
0.000147107
0.0165765
0.00014429
0.000209425
0.0113132
0.000152528
0.000152062
0.00014138
0.0110148
0.000151798
0.0167878
0.000153812
0.0195576
0.000148465
0.000142387
0.000198449
0.00876272
0.00429737
0.000170725
0.0144927
0.000138876
0.000145751
0.000144354
0.000177353
0.000185886
0.000185935
0.000169929
0.0208177
0.000156008
0.000198925
0.000254055
0.0176572
0.000147066
0.0238908
0.0290477
0.000157008
0.00573721
0.000186894
0.0236272
0.000146818
0.000192556
0.000145373
0.0120802
0.014155
0.000200034
0.0306466
0.000154217
0.000179265
0.000151081
0.0201625
0.000134612
0.000139626
0.00319452
0.000199276
0.0240734
0.00073188
0.00018636
0.000162846
0.000138515
0.00598264
0.000169057
0.000143314
0.000208271
0.000149949
0.000175986
0.000144646
0.0164403
0.000154712
0.00410106
0.00365824
0.000170497
0.000253212
0.000185062
0.0377326
0.000145276
0.0152893
0.024041
0.000139559
0.000144054
0.000152537
0.000148616
0.000173785
0.00014382
0.000259664
0.000190265
0.00395275
0.000167314
0.000146563
0.000148886
0.000139011
0.00491575
0.000145976
0.000144416
0.000222301
0.000154916
0.0185776
0.0290424
0.000194331
0.000154519
0.000168738
0.00015189
0.000149579
0.000206763
0.000136121
0.000155232
0.0108414
0.0369373
0.00010633
0.000151731
0.0134083
0.0191899
0.000148693
0.00377298
0.0235823
0.000143629
0.000154162
0.000143155
0.0065852
0.0207805
0.00232495
0.000136015
0.000155365
0.000153171
0.000146139
0.000200624
0.000146795
0.000234853
0.00797797
0.0282789
0.000138607
0.000154988
0.000153938
0.0201742
0.00013314
0.0201835
0.0110286
0.000353246
0.0126781
0.0186251
0.0121156
0.000151061
0.00174849
0.00108349
0.000150856
0.000138242
0.000140471
0.0299028
0.0113094
0.0154452
0.000143214
0.0325206
0.000146685
0.000204305
0.00013953
0.000153428
0.000150673
0.000138435
0.0212622
0.000151033
0.028561
0.0349826
0.0198131
0.000179441
0.000181006
0.0204195
0.0290694
0.00014977
0.006533
0.000139001
0.000131731
0.000143365
0.00023836
0.000141674
0.0170569
0.000168157
0.000768039
0.000170099
0.0114902
0.0190105
0.000213963
0.000138136
0.00018525
0.000193624
0.0208393
0.000147336
0.000134635
0.00015739
0.0306957
0.000147397
0.0043834
0.0166206
0.000174639
0.000185478
0.000147213
0.00307178
0.000148304
0.0363215
0.000135865
0.00869759
0.000165684
0.000145637
0.0170519
0.0186366
0.000135464
0.000186942
0.000156442
0.0140639
0.000200293
0.000507501
0.00059739
0.00014843
0.000184976
0.0247471
0.000143794
0.000227872
0.000152879
0.000190593
0.000166994
0.0113229
0.0213074
0.00014589
0.0241205
0.00015107
0.000176624
0.0261566
0.0165387
0.000168122
0.0240089
0.00014137
0.000146159
0.00432833
0.000204453
0.000165311
0.00015088
0.0237879
0.000135813
0.010007
0.000315941
0.000199346
0.000143395
0.000167472
0.0233138
0.000176954
0.0215432
0.000149739
0.00015489
0.000217921
0.0239045
0.000158844
0.0304643
0.00511636
0.0176576
0.000147212
0.0224235
0.00527092
0.0215403
0.000143886
0.000148831
0.000145639
0.0315495
0.000166646
0.00400418
0.00222282
0.000148629
0.000137477
0.000143708
0.0210359
0.00243002
0.0282816
0.0194931
0.000141146
0.0224309
0.0253416
0.000204303
0.0120514
0.0243456
0.000168617
0.0100316
0.000153757
0.00015826
0.00518295
0.0140112
0.00015967
0.0330292
0.000147865
0.000144306
0.0216561
0.0214067
0.0232355
0.0130733
0.000165918
0.000148608
0.00015948
0.0223128
0.0177846
0.000142449
0.000177943
0.00540671
0.000144465
0.000146221
0.0197558
0.0194677
0.000152987
0.000144153
0.000150563
0.000151535
0.0105545
0.000148565
0.000145689
0.000158484
0.00106212
0.0166051
0.000187344
0.0221589
0.000146089
0.00015674
0.0266199
0.0271364
0.00016173
0.000235112
0.00014327
0.000170492
0.000150828
0.000164923
0.000189362
0.00014529
0.00323694
0.000166596
0.000142866
0.000156063
0.00784359
0.0236826
0.0203146
0.000144608
0.000169806
0.0274585
0.00617159
0.000155339
0.000146903
0.000144513
0.00365073
0.000146413
0.000150778
0.000161981
0.000143931
0.0270966
0.000241269
0.000148307
0.00015576
0.000135349
0.000146745
0.0178692
0.000290154
0.000187926
0.0134539
0.000182408
0.000148992
0.000143137
0.000145672
0.000145331
0.000148111
0.000165166
0.00019665
0.0265535
0.000151095
0.00019636
0.0202328
0.000381007
0.000143932
0.000139737
0.000153974
0.019769
0.000144884
0.0001765
0.000144108
0.000192366
0.000147818
0.0131175
0.000136145
0.000258611
0.000137515
0.000136348
0.000147592
0.000143296
0.000199375
0.0108626
0.000258524
0.00017332
0.0109765
0.0086885
0.0190902
0.000166448
0.021685
0.0134184
0.000195836
0.017625
0.0202781
0.000200011
0.00317152
0.000148673
0.000141658
0.0258208
0.000142193
0.000155972
0.0231014
0.000202063
0.0357489
0.000246899
0.000141164
0.000160689
0.000145909
0.000225012
0.000139221
0.000190959
0.0260896
0.023813
0.00118519
0.000146016
0.000136308
0.000188835
0.0398022
0.0275552
0.000200367
0.000115984
0.000140547
0.00032319
0.0271407
0.00115942
0.000155008
0.000146354
0.00013818
0.000153576
0.000146191
0.000145496
0.000155478
0.026078
0.000189779
0.0244268
0.000735182
0.000820468
0.000211971
0.000143033
0.000142056
0.000149356
0.000138716
0.000148437
0.000352425
0.0135567
0.00782749
0.0331405
0.000153806
0.0198336
0.000201652
0.0302672
0.0296589
0.000146395
0.000143062
0.00110525
0.000146114
0.000135657
0.0049968
0.0273196
0.000637971
0.000144638
0.000146049
0.000157128
0.000172955
0.00620901
0.00013926
0.000155522
7.38344e-05
0.00013994
0.00533787
0.000172617
0.0242631
0.000148516
0.000182921
0.0412652
0.000169578
0.0215515
0.000198123
0.0257737
0.000135808
0.000157516
0.00014139
0.000164559
0.0182642
0.000144115
0.0127454
0.000148744
0.000147414
0.000144173
0.0338169
0.000176612
0.000197253
0.00187801
0.000139644
0.000176254
0.0128141
0.000185208
0.000141929
0.000151805
0.000146226
0.000180636
0.000146491
0.000143712
0.0368697
0.0275796
0.0323886
0.00020672
0.000152151
0.0190186
0.000188633
0.0340751
0.000199324
0.000135183
0.00014178
0.000131525
0.000147395
0.0231215
0.0240743
0.000138085
0.0110354
0.0374585
0.000163473
0.00015086
0.000168984
0.0223167
0.0192768
0.0265015
0.0290156
0.0277524
0.0001316
0.000201155
0.000194543
0.00439437
0.00637308
0.000143611
0.000204539
0.0160101
0.000167081
0.0400095
0.000148341
0.000229435
0.017683
0.0330286
0.000190057
0.000166304
0.014811
0.000204879
0.0340415
0.0344032
0.0268763
0.000199643
0.0179857
0.000146287
0.000157478
0.000178336
0.0208106
0.00365346
0.025866
0.000153215
0.000199347
0.000194914
0.000153937
0.0207926
0.000143638
0.000203824
0.0189614
0.000143629
0.0237869
0.0191105
0.0354959
0.0218259
0.000845751
0.000329588
0.0001444
0.0238986
0.000148548
0.000143184
0.000174797
0.000155098
0.0297528
0.000155499
0.000170164
0.000155698
0.000143184
0.0115785
0.00015277
0.000200627
0.00432473
0.000138431
0.0266548
0.000194548
0.000151598
0.0105573
0.000215425
0.000143384
0.000284605
0.00014989
0.0368527
0.00250555
0.000138328
0.000201767
0.000152948
0.0255791
0.0281203
0.000188538
0.0180025
0.000158802
0.000144599
0.0229882
0.000155316
0.000145723
0.0005795
0.00017395
0.000140372
0.000142669
0.000200451
0.000152364
0.0186483
0.000199206
0.00019578
0.0225102
0.000181349
0.000186731
0.000144805
0.0265506
0.0161936
0.0239937
0.00014397
0.000137194
0.00018817
0.000165282
0.0027224
0.000145884
0.00502499
0.000146081
0.00213014
0.000150749
0.000182121
0.000220249
0.000200438
0.0267484
0.0254731
0.0237736
0.0268425
0.000131776
0.000110192
8.58366e-05
0.0194054
0.00014366
0.000229108
0.0155544
0.0179103
0.000201288
8.07245e-05
0.002274
0.0285826
0.00017736
0.000222566
0.00013832
0.000178544
0.000175502
0.000143369
0.000188367
0.0235774
0.000269805
0.0190897
0.000193684
0.000142337
0.000141206
0.00016717
0.000143467
0.00159755
0.000139605
0.000141504
0.032588
0.000234187
0.000169253
0.000194756
0.000155269
0.000196809
0.013985
0.0292824
0.015121
0.000158066
0.0287616
0.00015156
0.000138679
0.000153426
0.0231031
0.000216137
0.00020343
0.000236249
0.000150862
0.000142475
0.000143492
0.000148723
0.000159903
0.0288418
0.000104661
0.00016324
0.0211987
0.0182833
0.0012915
0.0178953
0.00014456
0.000164476
0.00129964
0.000144185
0.000441798
0.000160503
0.000155374
0.0196392
0.0295321
0.000139624
0.000173324
0.000164475
0.000190369
0.0209909
0.024504
0.0292169
0.00014752
0.000192413
0.0321427
0.000192035
0.000201604
0.00250246
0.0227731
0.0258871
0.0356609
0.000139015
0.0162783
0.000137907
0.000152094
0.000143991
0.000185265
0.0265272
0.0134156
0.00424964
0.0160953
0.000183912
0.00013504
0.000139632
0.000146155
0.000160155
0.000176471
0.0311617
0.0375173
0.000190715
0.0100132
0.000147451
0.000184056
0.000138884
0.0350646
0.000193572
0.000147152
0.00020821
0.000195036
0.0358053
0.0244453
0.000201024
0.00696204
0.000157013
0.0234713
0.000224604
0.00531427
0.0040447
0.000151254
0.000184187
0.000145586
0.0224088
0.0136302
0.000174522
0.0162438
0.000222098
0.0230152
0.000188137
0.000238743
0.000175028
0.000140226
0.000202708
0.000187579
0.00015582
0.000184378
0.000165994
0.000167844
0.0120402
0.000208182
0.000153349
0.000165159
0.00017112
0.000166379
0.000151845
0.0273637
0.000196356
0.00140488
0.0119906
0.000144501
0.0286238
0.000144338
0.000156172
0.00015417
0.0282676
0.000172104
0.0353706
0.0193438
0.000185706
0.000206234
0.000201491
0.0282473
0.000205885
0.0175975
0.000168773
0.000177468
0.000143718
0.0314397
0.00669716
0.000168526
0.000144749
0.000171285
0.000158996
0.000156202
0.000179453
0.000173398
0.000146956
0.000167492
0.0194172
0.0263661
0.000295812
0.000174703
0.000133179
0.0291061
0.000167092
0.000186353
0.0174815
0.0001758
0.0377446
0.00013601
0.000166457
0.000155677
0.000166807
0.000143194
0.0302043
0.00414284
0.0083613
0.000169974
0.0218413
0.000233022
0.000158562
0.0291329
0.00018688
0.00023501
0.0139358
0.00018041
0.000155526
0.00017406
0.000187982
0.000155149
7.20759e-05
0.0253049
0.00392007
0.000140278
0.000227493
0.000150226
0.0358724
0.000143042
0.000176797
0.000145476
0.000165531
0.0127737
0.000164117
0.000163639
0.000140527
0.000140175
0.00274325
0.0227866
0.000145874
0.0192733
0.000234606
0.000135215
0.000159964
0.0315503
0.000197417
0.00019541
0.000144073
0.00016098
0.000210751
0.00014607
0.000143122
0.0205494
0.000164014
0.0301151
0.000192582
0.000159419
0.0245845
0.000201788
0.000204538
0.000140762
0.00174637
0.000164391
0.000160139
0.0235105
0.000174121
0.000146957
0.000195721
0.000156465
0.000158018
0.000135598
0.0128018
0.000144298
0.000187963
0.00560423
0.000194531
0.000143405
4.34055e-05
0.000165408
0.0190996
0.000225419
0.0242197
0.000198398
0.031933
0.000138956
0.00018944
0.000158168
0.000142053
0.00175103
0.00409242
0.000157169
0.0145407
0.00015789
0.000188129
0.0246206
0.00015906
0.000854493
0.0145984
0.0163958
0.0283754
0.00191856
0.000647697
0.00014095
0.000190967
0.000169023
0.00868316
0.0373808
0.0346616
0.0238487
0.0339617
0.000139974
0.00502997
0.000143885
0.000151068
0.00014663
0.00585968
0.000223179
0.00020269
0.000142438
0.0101887
0.000161261
0.0206182
0.000143257
0.00018928
0.000164866
0.000188305
0.000176459
0.000195887
0.000152521
0.000221839
0.000226669
0.000141011
0.0238034
0.000233109