/*--------------------------------*- C++ -*----------------------------------*\
| =========                 |                                                 |
| \\      /  F ield         | OpenFOAM: The Open Source CFD Toolbox           |
|  \\    /   O peration     | Version:  v2012                                 |
|   \\  /    A nd           | Website:  www.openfoam.com                      |
|    \\/     M anipulation  |                                                 |
\*---------------------------------------------------------------------------*/
FoamFile
{
    version     2.0;
    format      ascii;
    class       volScalarField;
    location    "300";
    object      omega;
}
// * * * * * * * * * * * * * * * * * * * * * * * * * * * * * * * * * * * * * //

dimensions      [0 0 -1 0 0 0 0];


internalField   nonuniform List<scalar> 
13851
(
0.0232367
1.17931
0.0773707
0.0229491
0.0790482
0.101635
0.0216023
0.0456762
0.0206965
0.0924148
0.300844
2.06911
2.5365
3.29194
0.0214046
0.0324415
0.0244438
0.0275914
0.604798
0.0206892
0.0227956
0.0749891
0.0211397
0.0222656
0.0213069
0.0464816
0.0238895
12.026
0.0230575
0.0237582
0.122077
0.0247412
0.0737561
0.474814
0.0222774
0.170633
0.218921
0.179699
0.10211
0.480471
0.0212818
0.0197457
4.01259
0.306961
0.299433
2.81313
0.295286
0.448432
0.0241067
0.0408385
0.0735755
0.134592
3.53419
0.021558
0.0225063
0.0197512
0.0211269
2.55252
0.0235595
0.0216265
0.167825
3.53505
0.0533199
0.0920347
0.45873
0.0247793
0.410618
0.283806
0.0334179
0.0274279
7.44316
1.93039
1.1933
0.0216666
0.0210165
0.0209457
0.0720401
5.33242
0.0467138
6.80714
0.0218049
0.236912
0.0213406
2.71865
0.0538417
2.10356
0.046392
1.73438
0.0249682
0.0208201
0.171052
0.0311216
0.277441
0.0271366
0.0247675
0.021836
0.0810064
2.80505
0.0438906
0.0218315
3.92867
0.0502686
0.0220532
0.0236828
0.0210895
0.0443836
0.0558555
0.0196532
3.22005
0.13356
0.022225
0.0208936
0.0321442
0.0227867
0.022234
0.829048
2.85189
0.0196801
0.0229909
0.0229474
4.32688
0.023557
2.58926
0.51267
0.519279
0.0219312
0.510084
0.0486255
0.0226341
0.132857
0.021265
0.0207243
6.03938
0.0213426
0.843849
0.0209064
0.0196908
1.74349
2.69984
2.19504
3.78831
0.022476
0.0228154
0.0200542
0.0229504
0.306727
0.130119
0.133843
0.0215873
0.289592
0.077732
0.022527
3.47304
0.0211633
0.0226791
0.0228658
0.0210276
0.0228175
0.134138
0.0725142
0.0198326
0.0271888
2.43602
0.0207092
0.0269997
0.0198926
0.163473
0.0338962
0.02252
5.05311
6.55727
0.0203936
0.0210442
2.17781
0.0206988
0.47786
0.0469544
0.0228338
0.623505
0.0196722
0.0254574
2.30939
0.0213432
0.0804378
0.0197703
0.0212684
0.0249706
0.0218516
0.0890788
0.0933779
0.292222
2.78487
0.0211216
0.0334345
3.14329
0.0225419
0.022554
0.315005
0.022621
0.020981
0.0221517
3.65858
0.0240374
0.0212385
0.0724246
0.0213531
2.28218
0.0245952
3.17889
0.0197096
3.50818
0.021972
0.310117
0.0196279
0.0199778
0.288026
0.050965
2.62285
0.021343
3.13522
0.0247535
0.021843
3.15357
0.12959
3.61545
0.0213894
0.0290534
0.0212735
2.20032
0.0196309
0.0451095
0.14847
0.0203858
0.0210372
0.0657262
0.0408315
2.26233
0.858295
0.0200364
0.0212495
0.0966529
0.246549
0.020337
0.0787637
0.020742
3.3992
0.0514835
0.4543
0.0229448
0.0252502
0.0286688
0.305487
0.0218133
0.0230267
0.0523521
0.933792
0.0882892
2.02475
22.8896
0.0214288
0.0199953
0.0265606
0.82833
0.0203862
2.00072
0.0225289
0.0217839
0.0266461
3.15678
0.0850752
0.0284729
0.0226708
0.64719
0.0441369
0.0314917
0.0207353
0.233858
0.256529
3.88017
0.292147
0.0204958
0.0196719
0.0210418
0.0500429
0.816814
0.534713
0.0208182
0.0214384
0.578116
0.228956
0.151895
0.0232844
0.0216322
0.0358737
0.230636
1.63476
0.026463
2.06031
0.0207571
3.43398
0.0268017
0.0243044
3.82311
0.021556
0.0467456
3.1999
0.0207938
0.0432923
0.0272554
0.0231009
2.92949
0.0266373
0.0217621
3.04223
0.0197896
0.0254806
0.0229241
3.8907
0.124274
0.0213424
0.0521325
0.021375
10.1101
0.0335324
0.0210948
0.0212843
0.121229
0.0283781
0.0226103
0.0214419
0.0215371
0.0217265
0.299299
3.23488
4.36062
0.0306672
3.83388
2.42775
0.0213631
0.0340441
0.152909
0.0367038
0.0526473
0.118398
0.598021
0.0256437
0.766912
3.29881
0.0214202
0.0522319
0.0497538
0.516973
0.0226035
0.0559067
2.2152
0.0210699
0.701129
0.0212748
0.0213874
0.0205753
0.0196531
0.0209667
3.37056
0.238463
0.0213391
0.0413936
0.0198346
1.96269
0.0386404
0.526538
4.2571
0.0213491
0.0556855
0.0273379
0.448905
0.0212034
0.019696
0.0302445
4.19223
0.0214089
2.98184
0.0336266
0.127226
7.14747
0.166545
0.139973
0.0259571
0.0207851
0.0220356
0.0294003
0.0515859
3.31448
0.0339527
3.66742
3.24348
0.0198455
0.0214359
5.04882
5.07577
0.124904
2.90987
0.0322033
0.0279255
0.0217003
2.41318
0.0205265
0.031752
0.0253947
0.0215358
0.021173
0.0207654
0.0198812
0.0896706
0.049177
6.3806
0.0279985
0.0552469
0.0337592
0.347795
0.0261014
0.628397
0.0240659
0.282462
0.0196784
0.0207438
0.0214575
0.276274
0.403388
0.125803
0.0328881
8.59625
0.464727
0.0437542
0.0232768
0.06731
0.0211853
0.375587
0.021012
1.54012
0.371761
0.0694931
3.27619
0.0229155
0.26393
0.370581
3.99262
0.0196444
0.0293095
0.0480788
0.139377
0.020478
0.0217369
0.0727517
0.126708
0.0319223
1.55537
0.0213225
0.0213509
2.23821
0.0277353
0.0196534
1.56643
0.0207745
0.0232122
0.0205652
0.0394205
0.0224937
0.0196854
0.0227311
3.05064
0.021351
0.0361681
0.0208248
0.0282266
0.275502
0.022983
0.0212604
0.0228209
0.0227847
0.647262
0.0217667
0.0571877
0.0213431
0.0214837
3.23581
3.41902
0.0213769
0.0290585
0.026273
0.1609
2.6218
0.0213602
0.251737
0.021225
0.0786944
0.021567
2.1667
0.0197858
3.98031
0.0880062
0.0197587
0.0290302
2.99219
0.0463791
0.310006
0.0228481
0.568522
0.0229087
0.0206455
0.0207442
0.0215486
4.06485
0.065681
0.133371
0.315786
0.0494202
0.0198664
2.77397
0.405655
0.0256203
0.0273747
0.0720923
0.534008
3.48703
0.0223479
2.21105
2.9724
3.04257
0.0273195
0.0299045
0.284928
0.262705
0.986916
0.336901
2.0629
0.0229762
2.0977
2.4431
0.0196876
0.257794
0.0675147
4.2164
0.0231066
0.0212261
0.021004
0.0212371
0.0876391
0.0374241
1.78229
1.52306
0.0207709
2.52967
3.18209
0.0607894
0.394602
0.0354903
0.019615
0.0207186
0.235159
2.82555
0.0227612
0.092837
0.169104
0.0197391
0.0414814
0.515684
0.167754
0.116865
3.84954
2.44992
0.0212428
0.0215486
1.39664
3.19635
0.131706
0.0338394
0.0596242
0.019668
0.0211043
1.6568
0.0197185
0.0230223
0.0196595
0.0207906
2.53431
0.0880998
0.0299164
0.0197086
3.09099
0.263905
0.0207824
0.0208593
0.0204311
0.0219476
4.41904
0.396231
0.340911
2.92194
0.58258
0.0320641
5.81648
3.33339
0.0262273
0.0338444
0.0196109
0.0226602
0.0339263
3.02384
0.782613
0.0912879
0.0281911
0.0206447
0.0319378
0.022631
0.323215
0.0729259
0.0213356
0.0313711
0.0204796
0.026427
0.128915
0.0216015
0.0211662
0.0389069
0.0215657
0.0798997
0.258308
0.123821
0.0323911
0.136331
0.0206277
0.0908251
0.0303812
2.72957
0.0219059
0.0219348
3.00891
0.0232848
7.52757
3.29002
2.4209
1.48201
0.0205257
2.45452
0.0208768
0.0207866
0.0197799
0.0207999
0.0411759
0.028875
0.0372021
0.0196906
2.295
0.0932068
2.3149
0.0209426
0.0199267
0.0207051
0.14586
2.84597
0.0538882
0.0267058
0.0208233
0.021572
0.0215936
0.0210835
0.208887
1.77935
0.021545
0.0196804
0.0215609
0.0210739
0.440793
2.49012
0.0326171
2.78264
0.552608
0.021151
0.131735
4.03033
0.0353324
2.13623
0.0217884
0.0267966
0.052796
0.0271597
0.302329
0.0213659
0.372416
0.0211003
0.0302516
3.10647
0.0210596
0.02275
0.0604427
0.020656
0.0250188
0.634756
2.53389
0.0711065
1.45878
0.235927
0.0196418
0.0209217
2.92895
0.161164
0.0438353
3.3208
0.0205864
0.0240737
0.0197023
0.593863
0.457486
0.0251185
0.0217645
0.278914
0.0240025
0.0206734
2.697
1.01369
2.91151
0.0197755
0.021538
5.38943
4.49448
0.152689
0.0223943
3.22575
0.0213539
0.284678
0.134147
0.0736256
0.0245415
2.49678
0.0270363
0.0232143
0.226916
0.0218512
0.023989
0.0226233
0.0206086
2.42723
0.0311243
0.118502
0.0294841
0.269744
0.020668
0.853298
0.0227736
0.0269064
0.0200033
0.0211191
0.0214075
3.1573
0.0209856
0.0197284
0.638009
0.0215661
3.98618
0.021212
0.0226714
0.0715162
0.668039
0.259898
0.0209205
0.47942
2.77126
0.0217955
3.32135
0.0299248
0.0205789
0.0325739
3.35863
0.299384
0.0253916
0.0208863
0.0196649
0.397771
0.0826544
0.0582822
0.0260596
0.0323154
0.0220747
0.0225153
0.0921411
0.368137
0.0869775
0.796023
0.0215208
0.0798519
0.0857333
3.89953
0.0249688
2.18817
0.248415
0.0215803
5.26527
0.0806104
2.68892
2.76085
2.9794
0.275462
0.0404471
0.0205948
0.0288047
2.64347
3.5513
0.0212361
0.0214889
0.0678304
0.233887
0.0197731
3.4498
0.0205616
0.0213547
2.21303
5.30227
0.230262
0.0207778
0.0214016
3.58645
0.215728
0.12275
0.0238532
3.21013
0.193718
2.53267
0.0550806
0.0405194
0.021765
0.0215594
1.22379
0.0504019
5.84117
0.0356963
0.0334599
2.59091
2.75343
3.49396
0.0214238
0.0305408
0.0207705
0.0331411
0.0226676
2.03995
0.0241577
3.31357
0.0197684
0.0698318
0.0211223
0.155832
0.0326532
0.0301242
2.79562
0.0435972
0.041757
0.0223776
0.0696093
0.445439
0.0619205
0.0230987
6.49919
0.0203249
3.007
0.240636
0.0215688
3.52531
4.10763
3.65665
0.301687
0.0333093
0.0212053
2.92182
0.0242275
0.826699
3.19453
0.0209451
0.0225484
0.287117
0.273096
2.0798
0.0215096
0.0207984
1.54516
3.13629
0.117567
0.0249813
0.0231097
0.275385
2.1398
0.088585
0.0197342
0.0408741
0.0206695
0.0234723
0.072755
0.0218081
1.68559
0.38897
0.0213616
0.0230018
0.0212296
0.0226733
6.00368
3.13952
0.0289214
2.22707
0.0211212
0.0289196
0.021164
0.020684
0.0215048
0.0213475
3.98482
0.0213775
0.0527812
0.0214263
0.0255646
0.0790824
3.94372
0.0228867
1.37908
0.0622444
0.272217
0.0318847
0.0323021
7.86527
0.026452
0.0383867
2.02728
0.794489
3.08345
0.0397577
0.286212
0.0218201
0.0413716
0.0515958
2.1252
0.0214013
1.97588
0.0209046
0.0209599
3.0988
0.0219462
1.81138
0.0247874
0.0207576
0.0381835
0.0207707
0.0214076
0.0219752
0.0217471
0.233368
0.0209615
0.214533
2.07994
0.0639231
2.31811
0.0215424
0.0228116
0.0233815
0.0212464
0.020749
0.0816721
0.0218591
0.0208838
0.0218085
0.0213303
3.88582
1.73046
0.0610715
2.89395
0.19927
0.0210988
0.189571
0.0280016
0.0209496
0.337248
0.0505659
0.4179
0.0210753
0.300554
0.290806
2.39023
0.0204196
2.59637
0.0303562
0.0237487
0.0229549
0.0205955
2.1628
0.0770309
0.640304
0.0209994
0.0213038
0.566811
0.0215855
0.645782
0.262224
1.56711
0.538418
0.340467
0.0214155
0.0213003
0.0543387
0.028383
0.0236615
0.152696
0.0416279
0.021891
0.0229906
1.77167
0.0209077
3.70269
1.1995
0.825272
0.209704
0.0222537
0.0201418
0.0216551
0.309626
0.39759
0.0204192
0.0234173
0.0209656
0.0791082
0.0198372
0.0209219
0.0218728
0.03231
0.405744
0.0397863
0.030808
0.0214651
0.0532848
2.39744
0.0221512
7.41618
2.11695
0.0830736
0.0199385
0.0445053
0.02122
0.021131
0.0215982
5.18191
0.124167
0.402662
0.0237392
0.280435
0.0212716
0.021166
0.0215584
0.147199
0.912346
0.0197961
0.0319108
0.0516214
3.56032
0.0229544
1.3643
0.0439273
2.423
0.0779704
3.29201
0.0936186
0.0816106
0.255711
3.11503
0.359546
3.98744
0.0210599
0.151396
0.0198247
0.0231865
0.0259033
0.0215639
3.17425
0.0289277
0.0270299
0.294107
0.173191
0.591421
0.0213579
0.0233956
0.0255209
0.020212
0.0301384
1.43223
0.578055
1.17414
0.0209449
0.0265331
0.0242884
0.500403
2.96854
0.0537954
0.020122
0.0218013
2.23942
0.0450239
2.03407
2.66358
0.0455382
0.0199216
1.6737
0.0295296
0.0435473
0.0279713
3.40479
0.285587
0.123944
0.0947247
0.0221197
0.0270918
0.0213633
3.13328
0.0451645
3.24828
0.281576
0.02571
0.146466
0.0224894
3.42389
0.213286
0.0207468
1.59559
3.0739
1.55852
3.00156
0.0216214
0.0213199
5.72068
2.48952
2.12349
0.022723
0.0215555
0.0213549
3.78355
0.145065
0.0217274
0.0530369
0.0873143
2.19825
1.52057
0.567124
0.0214161
3.07024
0.0243325
0.0212428
0.142164
3.1511
0.021608
0.0209008
5.28029
3.33625
0.0216729
0.0209292
1.95088
0.0206738
0.234749
0.020945
0.533913
0.021313
0.0536835
1.1202
3.01356
0.0223371
4.05119
0.39512
2.25006
1.48288
2.35692
0.0481657
0.0211534
1.86897
0.0230258
0.0213743
0.0201864
0.416774
0.0211348
0.218036
0.0209178
0.0233554
5.22851
0.0662208
1.49658
0.0226172
0.0258157
0.0207345
0.0321484
1.5901
3.4507
0.0208641
0.0673821
0.329178
0.0215278
0.0206086
3.00271
0.0338581
0.0341098
0.132233
2.46124
0.899301
1.13003
2.79522
0.0564928
0.286307
0.403643
1.63642
0.0671079
0.0201695
0.130074
0.0211409
0.0211273
1.77713
3.05141
0.0228886
3.37395
0.0806808
3.98191
0.0592006
0.0465985
0.0212046
0.0846302
0.034859
0.0210196
0.0224259
3.25541
2.86422
1.38858
3.38872
0.0372288
3.38756
3.37719
0.0315669
0.0217259
0.02105
0.232861
0.0210042
0.2095
0.0223577
0.0219644
0.0230605
2.52504
3.78709
2.7761
0.0217941
1.84377
0.02462
0.0285272
0.0209867
0.0207345
2.63252
0.0264976
3.35648
1.32426
0.0471443
0.11854
0.0214736
0.0395525
0.0215369
0.144332
0.022676
0.0225426
0.0217225
0.0224516
0.154072
0.0220217
0.0340618
0.0210701
0.0346928
0.157623
5.90243
0.0210667
0.0481069
0.0213851
0.0641109
0.0347272
2.63562
0.168748
0.0313511
0.02353
0.022389
0.053459
0.0212298
0.270379
0.0214229
0.021043
0.0224143
3.03193
0.0265574
0.0242942
0.0312857
0.0212398
0.0662397
2.94152
1.83452
0.035307
0.0213714
0.0308584
0.0202363
0.0211336
0.210795
3.29084
0.0211043
0.0293879
0.111546
2.03962
0.0217686
0.021944
3.31153
0.0224005
0.0348378
0.198613
3.8154
0.021324
0.0445458
0.021239
3.56229
0.135127
0.0412844
0.121225
2.73163
0.022289
3.63059
2.09451
0.0215459
2.60403
0.0831551
0.0223625
2.90468
0.0215121
0.0212686
0.0205273
0.17046
0.043589
0.159838
0.0225616
0.0222092
0.0299331
0.305004
0.194438
3.73452
0.311627
0.0219377
0.135782
0.131654
2.26468
0.0746218
0.234377
0.0210165
0.0310022
0.0206162
1.02109
0.035214
0.0212325
1.79651
0.159896
0.0317774
0.0261406
0.0197156
0.0211704
0.0532853
0.0335132
0.622125
0.0670127
0.066143
0.0607305
0.116316
2.18435
0.0567122
3.68576
0.0210826
0.0208836
0.23432
2.53992
2.57673
0.0647944
0.0226291
5.534
0.325318
0.0210987
0.0260644
0.0208221
0.0413249
0.0716825
0.176101
2.72895
0.206429
0.0224753
2.6571
6.61079
0.021413
0.085016
2.57887
2.28419
0.023577
0.077044
0.0196238
0.0230718
0.0210148
0.0248162
3.70082
2.95185
2.67122
6.45406
0.0224825
0.0329384
0.0538288
0.020861
0.0219059
0.0206046
3.03406
0.0209674
3.48054
0.0353095
0.0480021
0.152388
0.232954
4.78869
2.38374
0.040493
0.0198605
0.0229164
2.07611
0.941817
0.0244655
0.0207897
0.0206225
0.0626843
0.0296968
0.146272
2.16884
0.0224616
0.0205509
0.125301
0.0307182
6.45547
1.00823
0.0209408
0.0726303
0.0214979
3.81651
0.0199895
3.39798
0.0211948
0.0223982
0.0309898
0.021933
0.0609793
0.0295079
0.0471532
2.6034
2.86996
0.0249117
0.0293381
0.0211969
2.24501
2.40695
0.0218602
0.0200292
0.337634
0.0196578
3.95267
0.0212694
0.0327087
0.0695526
1.04885
0.0364562
0.0225773
0.0215806
0.0720933
3.30628
0.0211535
1.02146
3.27711
0.993905
0.196809
0.0323197
3.71084
0.0252936
0.170436
0.0212726
0.300165
0.310035
2.36888
2.19565
2.16809
0.0222819
0.0517136
0.0208964
8.39505
0.330631
3.16261
2.52419
0.0263368
2.16336
0.71959
0.0335864
0.0225535
0.0215905
3.45259
0.0251441
0.0716745
0.0234728
0.0215692
0.0206839
0.0215012
2.81273
0.234834
0.0303952
2.28279
1.78613
0.0217511
0.0213036
0.0205906
0.0275369
3.36583
0.232268
0.0250456
0.0246077
0.962211
0.0769811
0.0443249
4.67524
0.0295933
3.6072
0.0301498
0.028649
0.0212813
0.023395
0.0709419
0.3367
0.300529
3.27434
0.0696129
3.25927
0.0247029
0.0240885
0.0213235
2.78501
2.44482
0.556609
0.0526349
0.0233175
0.0213775
0.0210841
0.0214192
0.0206247
3.15036
0.0285648
3.23487
0.0312295
2.59345
1.5316
3.40232
0.0367177
0.0256717
2.12587
0.038073
1.6074
3.45406
0.0206316
0.0439031
0.0267347
4.59079
3.26674
0.0337216
0.0684715
0.484674
0.0231626
0.0478155
0.0240325
2.38291
0.264176
0.0237036
0.0215754
0.304732
0.249114
0.130374
0.690046
0.130114
0.0279947
0.0212266
2.20559
3.28954
0.0791886
0.0305889
2.85553
2.58237
0.0209143
0.0214009
0.0239188
3.22391
3.07248
0.0213359
4.30578
0.0219742
0.0210722
0.0215399
6.77902
0.177209
0.0331919
2.68
0.0226839
0.0225038
0.0209805
3.75221
0.0222504
3.1251
0.0235797
1.20878
0.0217838
0.0211409
0.124392
3.29249
0.339071
0.0349582
2.2927
0.0202325
0.021479
0.0214105
0.0437829
0.0650079
0.0651486
0.0346411
3.21909
0.0241047
0.125106
0.12571
2.1866
0.0215323
3.45485
3.18011
0.0249006
0.507723
0.0674989
3.41162
0.0215596
0.0694042
0.0212035
1.5483
7.5231
0.0784891
3.48712
0.0232238
0.0498487
0.0222923
3.97412
0.019917
0.0208062
0.424647
0.0891726
2.76922
1.45021
0.0661646
0.0279813
0.0205083
1.25857
0.0302535
0.021075
0.147942
0.0218901
0.0433457
0.0213699
1.01427
0.0226092
0.302124
0.311065
0.0311239
0.090238
0.0549635
3.84181
0.0212931
1.10655
1.71066
0.0207292
0.0213512
0.0226455
0.0218101
0.0388131
0.0212621
0.0739944
0.0779615
0.288365
0.0668093
0.0214576
0.0217984
0.0205108
2.66133
0.0214967
0.0212556
0.208272
0.0237422
1.32257
3.46774
0.0913268
0.0238377
0.0328304
0.0224529
0.021959
0.0378345
0.0200826
0.0238594
2.53023
3.50086
0.342717
0.0224029
2.12539
1.00485
0.0218294
0.279616
3.124
0.0213504
0.0233644
0.0213112
2.81957
2.35192
0.314396
0.0200659
0.0237173
0.0233836
0.0215743
0.131618
0.0214949
0.0398615
2.95362
3.58672
0.0206163
0.0237051
0.0233858
2.35569
0.0197148
2.32718
2.75397
0.0621932
0.784981
4.87884
2.10616
0.0227471
0.265439
0.187207
0.0222951
0.0204871
0.0208789
3.44722
2.29485
2.1726
0.0210946
3.65229
0.0215424
0.153543
0.0204692
0.0229348
0.0222261
0.0206041
2.3577
0.0223662
1.94069
2.80964
2.30452
0.0464652
0.0532924
2.33506
3.25468
0.0219001
3.86673
0.0205197
0.0196982
0.0212934
0.0315647
0.0207046
2.46798
0.0297286
0.124259
0.035664
2.54307
2.31804
0.093397
0.0205778
0.0551357
0.0755106
2.34364
0.0215783
0.0199062
0.022929
1.93827
0.0216315
0.324365
2.3205
0.0411995
0.0598427
0.0215769
0.333726
0.0217369
3.41335
0.0202622
2.74412
0.0311811
0.0214942
2.34653
2.23521
0.0201857
0.067798
0.0241503
2.17881
0.0316034
0.322063
0.100513
0.0217349
0.0549509
2.78319
0.0210673
0.0306997
0.0232458
0.0788907
0.0321191
2.97452
3.08848
0.0215061
3.49292
0.0222772
0.0437071
2.96611
2.26547
0.0342681
3.08121
0.163336
0.0215875
0.32298
0.132896
0.0305716
0.0223129
2.62838
0.0202151
6.17143
0.0527616
0.107776
0.0213485
0.0300178
3.28933
0.0441203
2.5586
0.0219836
0.0235299
0.0851521
2.72526
0.0259302
3.30154
0.728745
2.50701
0.02155
2.70509
1.97594
2.34706
0.0213937
0.022248
0.0213166
3.41451
0.0271754
0.375584
0.277105
0.0217549
0.0202472
0.0213647
2.33601
1.96265
3.77132
2.32367
0.0209673
2.97027
3.24737
0.134373
2.16492
3.14305
0.0332202
6.32004
0.0232076
0.0255668
2.59241
2.69945
0.0234413
3.41092
0.0216929
0.0213903
2.18871
3.14024
3.58346
8.95178
0.0303761
0.0217628
0.0231663
3.31798
2.18165
0.0211663
0.0473929
0.512957
0.0214224
0.0214913
3.02179
2.52322
0.0227809
0.02143
0.0222202
0.0224053
0.623809
0.0217913
0.0212667
0.0252071
0.552734
2.86164
0.0655827
2.7519
0.0215164
0.0242847
2.93034
3.27594
0.0273565
0.0985165
0.0213291
0.035304
0.0225861
0.0246512
0.0662268
0.0211922
0.60372
0.0315921
0.0209083
0.0239957
2.20262
1.67392
3.63994
0.0214343
0.0245674
3.37984
0.590137
0.023838
0.0214915
0.0214774
0.2774
0.0215047
0.0219403
0.0273922
0.0213388
2.97642
0.054518
0.021716
0.0238574
0.0200093
0.0214908
1.64346
0.0697824
0.0715967
2.06958
0.0575377
0.0218226
0.0213101
0.021489
0.0212796
0.0217011
0.0238469
0.0750815
2.92247
0.0227324
0.11117
3.53221
0.0634623
0.0212153
0.0208226
0.0233323
2.20259
0.0212347
0.415466
0.19592
0.0468048
0.0221089
6.38609
0.0200471
0.0426283
0.020388
0.0200767
0.0216811
0.0209046
0.0358194
2.6437
0.0893418
0.0380397
2.08855
0.821583
1.00598
0.031542
3.15252
2.11247
0.10895
2.23224
3.06639
0.117237
0.338759
0.0218012
0.0207086
1.47313
0.0210244
0.0239527
2.24224
0.0318208
1.87496
0.176285
0.0208132
0.0247458
0.0214684
0.0375369
0.020436
0.0348499
2.78065
2.97327
0.390924
0.0214621
0.0202462
0.0736457
3.3453
3.02337
0.114932
0.425961
0.0208793
0.7717
3.68036
0.248448
0.0235114
0.0214868
0.0201613
0.0230302
0.0214181
0.021322
0.0237468
2.97833
0.078024
3.31352
0.190998
1.08656
0.171816
0.0212665
0.020885
0.0222171
0.0205104
0.0217699
0.0660703
2.23638
0.665763
3.6233
0.0233075
2.38967
0.138133
3.33919
3.40388
0.0214572
0.02089
0.179899
0.0214556
0.0201989
0.454985
2.99977
1.11317
0.0213855
0.021494
0.0241933
0.037396
2.02998
0.0205411
0.0238451
0.234751
0.0205365
0.452569
0.0368942
2.17547
0.0217545
0.203479
3.31472
0.0344148
3.26807
0.114941
3.40758
0.0200201
0.0246815
0.0208752
0.0291291
5.99657
0.0212348
2.46056
0.0220329
0.0216181
0.021441
3.53814
0.0442429
0.113664
0.310292
0.0206472
0.0429457
3.10973
0.0551096
0.0207568
0.0229986
0.0214533
0.0437712
0.0214103
0.0209817
3.68834
3.62765
3.40362
0.197533
0.353791
2.51522
0.0723671
3.74264
0.125223
0.0199639
0.0208738
0.0196706
0.0215772
3.3689
3.33987
0.0202999
2.56312
3.56466
0.0292689
0.0226338
0.0246034
2.52452
2.97406
3.02674
2.04888
3.04845
0.0196708
0.21022
0.101566
0.325711
2.73926
0.0213295
0.133137
2.82158
0.0317302
3.14883
0.0217279
0.0365257
2.67192
3.26828
0.0770688
0.030646
5.30735
0.13456
3.32693
3.37472
2.95265
0.116963
2.62678
0.0215087
0.0249127
0.0472336
4.18315
0.311155
3.52823
0.0222054
0.114241
0.0724599
0.0223448
3.10963
0.0213498
0.133619
3.93
0.0213599
2.16984
2.21785
3.37714
2.59666
0.858397
0.0664873
0.0211342
3.41916
0.0219445
0.0209154
0.0411709
0.0236341
3.26103
0.0238556
0.0246868
0.0238501
0.0208965
2.2304
0.0227096
0.1206
0.322693
0.020618
3.83887
0.102001
0.0228046
3.42252
0.207189
0.0213476
0.13354
0.0219803
3.53853
0.300278
0.0203281
0.120386
0.0227761
3.52549
3.09961
0.0734299
1.07591
0.0254879
0.0214839
2.20386
0.0239216
0.0213247
1.10721
0.0412636
0.0208814
0.0208918
0.130967
0.0225866
3.86866
0.213917
0.0303877
3.32885
0.0539896
0.0625253
0.021185
3.57604
6.31734
2.53269
0.0213981
0.0202203
0.0724586
0.0297913
0.29886
0.0213547
0.526684
0.0213418
0.782576
0.021905
0.0288384
0.158265
0.117899
3.65859
1.3065
3.0804
3.07859
0.0197027
0.360818
0.402256
4.58356
0.0210954
0.165045
6.01357
2.28579
0.119716
0.519688
0.442783
3.6807
0.0465004
0.208108
0.0205904
0.0476755
0.0435162
0.0213151
0.0717405
2.91859
0.0473924
2.29729
0.68294
0.0211581
0.0208582
0.029588
0.0213212
0.504487
0.020576
0.0208387
3.84391
0.233691
0.0322571
0.103069
0.0224931
0.0851473
2.26691
3.20403
2.15074
0.0254546
3.15797
0.0228743
0.0205248
0.0231588
3.21742
0.230887
0.208204
0.235133
0.0222334
0.0209046
0.021321
0.0218191
0.0263787
3.48645
0.528572
0.0282194
3.14927
3.90745
0.25776
4.8637
0.0214147
0.0293706
0.35788
0.0214012
0.0799023
0.0264761
0.0237819
3.50161
3.23144
0.0205673
0.0402937
0.0291727
0.0694414
2.32226
2.18382
3.63499
0.0216675
0.0849107
3.5816
0.0836731
0.11986
0.341747
2.56706
3.70835
3.75117
0.0205399
2.63015
0.0202864
0.0228764
0.0213297
0.0601139
3.69176
6.67148
0.497152
2.28199
0.05653
0.0201416
0.020807
0.0214937
0.0232151
0.0439968
3.73504
3.66322
0.0792238
0.604676
0.0215874
0.0562539
0.0206699
3.34748
0.0704039
0.0215882
0.136979
0.103806
2.16841
3.70751
0.13048
3.62237
0.0244131
2.4229
0.21786
2.61561
0.33275
0.0227589
0.0559375
0.0214639
2.98276
2.5496
0.0399545
2.93507
0.20965
2.55771
0.066346
0.15553
0.039439
0.0208925
0.124741
0.0597024
0.0239752
0.0557455
0.0304622
0.0319842
3.54552
0.155733
0.0229183
0.029641
0.0361191
0.0310986
0.0229256
2.19728
0.111455
0.200597
4.66882
0.0213807
3.30671
0.0214594
0.0240641
0.0231943
3.24164
0.0369953
3.40713
4.37891
0.0596039
0.0502957
0.122002
1.68079
0.138428
1.06802
0.0242983
0.0465359
0.0209805
3.38849
0.481844
0.0242663
0.0212645
0.0360783
0.0257589
0.0240306
0.050047
0.0402586
0.0215697
0.0329357
5.3472
3.86105
0.199674
0.0411675
0.0198018
1.77862
0.0321215
0.0659685
0.962569
0.0439162
2.04177
0.0202297
0.0242537
0.0239857
0.0321417
0.0211983
3.47908
0.322929
2.26445
0.0361262
3.19457
0.233201
0.0255348
1.73216
0.0674453
0.233523
2.57754
0.0427437
0.0238068
0.0412698
0.0670169
0.0242446
0.236486
3.89774
0.315928
0.020899
0.232762
0.182874
2.04104
0.0212597
0.0442097
0.0212224
0.0300413
2.29647
0.0288168
0.0285617
0.0208918
0.0208634
1.19128
3.15396
0.0213599
2.15611
0.231275
0.0201528
0.0250095
3.42036
0.115209
0.104573
0.0213673
0.026752
0.110796
0.0214439
0.0210688
2.22109
0.0289007
3.44166
0.0854187
0.0259232
3.64632
0.115757
0.152773
0.0209327
0.222558
0.0299911
0.0262871
1.47186
0.0404221
0.0215222
0.0840759
0.0242633
0.0251532
0.0201003
1.51218
0.0213478
0.0646433
2.06437
0.100734
0.020931
0.401941
0.0305751
2.5265
0.16242
3.55108
0.106894
3.24177
0.0206986
0.0771992
0.0253343
0.0211223
0.250258
1.67704
0.0249076
0.958897
0.0246619
0.0724936
3.61278
0.0258379
0.159586
0.836572
2.94734
1.71262
0.795779
0.114703
0.0207941
0.0680042
0.034435
0.67559
1.91891
3.32539
2.19718
3.48404
0.0208361
1.26753
0.0213956
0.0223507
0.0215339
0.471159
0.15551
0.0823503
0.0210436
10.3166
0.0269812
3.69558
0.0209314
0.0631441
0.0301623
0.0717384
0.0420081
0.105501
0.0227095
0.166761
0.138679
0.0209564
3.80432
0.234202
0.0548764
0.0226568
0.0295706
0.0215893
0.0210829
0.066099
0.0297835
2.07214
0.223815
0.0864762
0.980865
0.0211794
1.48593
0.0658351
2.20895
0.0297245
0.0301716
0.200017
0.030608
0.125164
0.367946
4.42666
0.023257
0.0216005
3.06767
0.0315694
0.0234497
0.0272519
0.0293752
0.0205147
0.0260006
3.47465
0.0215733
0.041945
3.36305
0.115198
0.071734
1.86326
1.97965
3.63238
2.96405
1.40359
0.0555689
0.361846
0.0225736
0.0247601
0.0214751
0.0209924
2.9201
0.483975
0.0309682
0.0207724
0.995781
0.0934375
0.0213036
0.220616
0.0524992
0.0212124
0.0228443
1.58348
0.026377
0.0377845
0.0362627
0.0214482
0.0940359
0.0657025
0.0290265
0.21802
0.0796607
0.80293
1.08163
3.02235
0.0236306
5.1896
0.153259
0.148792
0.0666276
1.75438
0.0760987
0.0258884
0.050084
0.0669236
0.0233992
0.0730693
0.0210925
0.0212515
0.0200809
0.0242228
3.42133
0.0203967
0.106218
0.0242056
0.0235952
0.0239507
0.466891
0.0232714
0.0622211
0.0215068
0.0240698
0.0246176
0.0207949
0.153466
0.0234601
0.0205548
0.0222509
0.028124
0.0210124
2.05884
0.0268583
2.44876
0.46241
2.5345
0.0593279
0.0747932
0.0961745
0.0407484
0.0252687
0.0250403
1.60008
2.93464
1.1347
0.0645368
0.0315823
0.0214103
2.08837
0.0390597
3.14907
0.0217825
0.960744
0.145494
1.48289
1.26094
0.0200727
0.0214092
0.0203409
0.0289699
2.98497
0.0462875
0.936196
0.0254258
0.0289577
0.0210099
0.0218118
0.0327963
0.0235002
0.0237075
0.0209394
0.211017
0.322749
2.67483
0.0246582
0.230532
0.0207648
0.020232
0.106869
0.0218796
0.0239384
0.06539
0.0238973
0.0703261
0.0214159
0.0248001
0.0215218
0.0241876
3.38476
0.0212895
0.0234226
0.0225125
0.0236093
0.673174
0.02175
0.0499065
1.59521
0.0243151
0.0292234
0.0223676
0.0235391
0.0217421
0.127292
0.0214374
0.0263432
2.82984
0.0208841
0.0287264
0.0500616
0.0579649
2.38033
0.0200507
0.0235602
0.0224723
0.0301732
0.102277
0.866625
4.14469
0.0202627
0.0284459
0.0779888
0.0239218
0.839091
0.0199524
0.0215515
0.975831
0.0404261
0.0235184
0.0200073
0.300775
0.124894
2.05671
0.0215533
1.81772
0.0199842
0.0205641
0.0233595
0.0790698
3.75181
0.0215028
0.0209378
0.279249
0.0214445
0.0231445
0.194315
3.43741
0.0214328
0.0205324
0.0222282
0.0306505
0.208511
3.19846
0.0218125
0.10738
0.0213389
0.0213439
2.0275
0.0234273
0.0217801
0.0301676
0.20931
0.135089
0.023231
0.0221235
2.29405
0.040407
0.0222992
1.23477
3.22874
0.0214595
0.0216995
0.0231049
0.021358
0.0214518
0.0209621
0.0201873
0.0389323
0.0230197
0.0422111
0.0478875
2.17144
0.328038
0.0302183
0.020033
0.0213587
0.0221573
0.0230638
0.0403835
0.0284277
0.349572
0.0233891
0.0757794
0.023984
2.64884
2.39117
0.0282567
0.0230046
0.123394
0.0236392
0.0266295
0.021384
0.0222618
0.0211088
0.0312119
0.0416629
0.0459052
0.108102
0.0230216
0.0255589
0.0221961
3.25032
2.59141
0.322823
0.0264365
0.110783
0.0913325
3.01199
0.021901
0.200577
0.0648751
0.0213909
0.0217743
2.49307
0.0214867
0.0223304
0.023185
1.08829
0.0214696
0.021717
0.0253185
2.07298
0.0210109
0.0509603
1.08338
0.0234349
0.0214924
0.0211584
0.0214137
0.0217431
0.0216822
0.0608329
0.0228069
0.0214745
0.0216894
0.0217093
0.028156
0.0213671
0.277964
0.0215417
0.0216761
0.0375148
0.034479
0.0278954
2.11614
1.12571
3.30458
0.0377767
0.0209405
0.0378924
1.68239
0.0201666
0.0519798
0.0238678
1.05333
0.0230493
0.043827
0.0217374
0.0213799
0.116109
0.234161
1.76076
0.272559
3.43591
0.0217048
0.0210246
2.21043
0.0201392
0.0214803
3.09674
0.021012
2.13597
0.0214336
0.167091
0.108745
0.023596
0.616405
0.0255156
0.0762992
0.128547
0.183363
0.298129
2.70586
0.474302
2.59895
0.0215272
2.31988
0.021448
0.0213071
0.0210823
0.0218514
1.07533
0.0223168
3.8051
0.0214823
0.0213722
0.0215542
0.843802
0.0218718
0.0207062
0.053486
0.0250651
0.0260152
0.0250693
0.0279008
0.213602
1.65274
0.231564
0.885362
0.0982314
0.022298
0.211248
0.021444
0.0282498
0.0653724
2.65366
0.0428208
3.35164
0.0214556
0.225378
2.1677
0.14791
3.65582
0.272005
0.0234683
0.021317
0.0237506
0.0214411
0.0213016
2.17767
2.19029
0.0210723
0.607009
0.0214113
0.109337
0.0209942
0.162686
0.0274849
0.0232977
0.0208467
0.650266
1.17858
0.277277
0.0206301
0.0206908
0.0260189
0.0221029
0.0221852
0.160044
0.209197
0.047291
1.39118
0.0410629
0.0217622
0.0319699
0.0682326
0.021836
3.11714
0.054693
0.0532955
0.02295
0.0240283
0.0202508
0.0197066
0.021364
0.0259114
0.0207925
2.43969
0.0373654
0.176448
0.0212622
0.0427112
0.0214311
0.410954
0.0385617
0.0540251
3.03327
0.0254288
0.0213271
0.0245333
0.0217787
3.17589
0.0717659
0.0400353
0.0543705
3.40731
2.51153
0.109125
0.0494888
0.0213887
0.0228863
0.0231235
0.0284375
0.107356
0.0257832
0.0215264
0.384871
0.203603
0.0217249
0.0232429
0.0549688
0.0222207
0.0209847
0.0399511
0.0213939
0.0218395
0.0209425
0.0234285
0.0219815
0.0442109
2.52601
0.021457
0.232744
0.0980343
0.11
0.0209329
0.0217092
0.0390686
0.0259018
0.0214274
0.12705
0.0213343
0.0487036
0.0215596
0.0402336
1.66532
0.0537999
0.0224376
0.0591335
1.95378
1.21244
0.0214251
0.0355253
4.28057
0.0212778
0.0222136
0.0793897
8.58409
3.34678
0.0236472
0.0213298
0.0279191
0.0212408
0.0222744
0.0279226
0.0217258
3.45606
0.0217586
0.15467
0.0214354
0.0214607
0.0524279
0.0213625
0.0215305
0.0278561
0.219812
0.0205769
0.0398227
0.0218293
0.0212264
0.0217322
0.0276308
0.0252747
0.0700229
0.02295
0.0217082
0.0217889
0.0386394
0.0223265
3.6012
0.0219541
0.110875
0.0332286
0.0230756
0.0271718
1.14118
0.0214837
0.0220008
0.0199717
0.0714968
0.392008
0.021787
0.0363803
0.0209551
0.0348548
0.0214433
0.27151
1.44756
0.0233057
0.0250234
0.0270781
0.0259104
0.0221665
0.0207502
0.0475362
0.0214045