/*--------------------------------*- C++ -*----------------------------------*\
| =========                 |                                                 |
| \\      /  F ield         | OpenFOAM: The Open Source CFD Toolbox           |
|  \\    /   O peration     | Version:  v2012                                 |
|   \\  /    A nd           | Website:  www.openfoam.com                      |
|    \\/     M anipulation  |                                                 |
\*---------------------------------------------------------------------------*/
FoamFile
{
    version     2.0;
    format      ascii;
    class       volScalarField;
    location    "600";
    object      omega;
}
// * * * * * * * * * * * * * * * * * * * * * * * * * * * * * * * * * * * * * //

dimensions      [0 0 -1 0 0 0 0];


internalField   nonuniform List<scalar> 
13917
(
5.33971
0.0387052
0.21054
0.0221762
0.0280775
0.038344
0.0262936
0.0844264
0.0251887
6.07512
0.0674623
0.021739
0.0245148
1.55675
0.0277222
7.00468
0.0219795
0.061339
0.105523
7.28258
0.0329306
0.0216941
0.0428404
0.021696
0.023144
0.0349097
1.77306
8.97443
0.0448574
0.0200598
7.72377
0.0627059
0.0221992
2.98201
0.0213703
0.0869821
0.0238977
0.0236903
0.0263276
0.0372837
0.0219394
0.0216355
0.023809
0.100544
0.0996426
0.197277
0.0312998
4.92482
0.281131
0.0213873
0.0217077
0.107859
16.5083
0.0216641
0.0217373
0.107238
5.87635
0.0428556
0.0215301
0.143681
3.21191
0.0285496
0.0210315
0.0229704
3.11616
0.146552
0.0488234
0.0880304
0.0661661
5.77375
2.81885
3.10355
0.0217187
0.0213308
0.0338013
0.0235955
0.0243018
0.0212402
0.0233904
0.0222704
0.022207
0.0220829
0.0217038
2.93946
0.0211472
0.139648
0.0604543
0.0216211
0.0368829
0.0218971
0.0207605
0.02397
0.2457
0.0210671
0.022179
0.0487999
1.56893
0.0223348
0.0215228
0.124504
0.0214457
0.0213361
0.0222556
0.0214848
0.0242506
3.16768
3.00673
0.0284392
0.0219487
2.11348
0.0215388
2.94224
0.0448866
3.22757
3.12334
0.0239907
0.0988067
0.0209162
0.168708
0.0216466
0.0219744
0.0209918
0.0534365
0.0865206
5.33419
3.08142
0.0228124
0.0355867
0.0211187
0.0876602
0.0314803
0.132274
3.63582
0.0239518
0.0733946
2.1384
2.81793
5.21678
0.0371515
0.0236375
0.842892
0.0210972
3.14288
0.0211801
0.0216477
0.0238907
2.78085
0.481062
6.20411
0.0217
0.03416
0.0212044
0.0216278
0.0216552
2.04852
0.0223771
0.021421
3.61703
0.0215792
0.0211258
0.0211261
2.86704
0.0258505
0.835729
3.30832
0.148364
23.0948
4.01396
0.0195968
0.0393864
0.021822
3.49746
0.0251526
2.68232
0.0652892
0.0213731
0.0221799
0.118357
0.0307806
0.026406
0.0237069
0.0217342
0.021706
0.176138
0.171946
0.129938
0.0216805
0.176552
0.0200551
0.113142
0.0653128
0.0921003
0.130111
5.13959
0.0210751
5.14416
0.0254991
3.69735
0.0213302
0.0221444
0.0294241
5.56812
6.64858
0.023548
1.46998
0.0348076
0.0346041
0.0210995
0.117542
0.0222019
0.0208687
0.0331972
0.0355344
6.13907
0.0713558
0.0366708
2.95026
0.0226542
0.020342
0.0203308
3.84246
0.149897
0.139825
0.0213614
0.0211575
2.14806
6.18393
0.0202924
0.0202808
0.0219386
0.0203531
0.0203444
3.26204
5.81583
0.0218494
0.0196016
0.0697695
3.33773
0.0217284
0.0213589
1.67952
3.21325
0.178734
2.93836
0.0886485
0.0211879
4.40677
0.0723821
0.0420077
0.0704924
0.0233012
6.08109
0.0216581
0.0399255
0.0591605
0.0219532
0.0220559
0.0229489
0.0266626
0.0214226
3.69998
1.20392
0.0210038
0.0202816
0.0224947
0.0202857
0.0216627
0.0244954
0.0352698
0.0211146
4.17873
2.90115
0.0214922
0.0247899
0.596717
0.0202309
0.093421
3.32606
0.0202418
4.2617
0.0213327
2.86335
0.0214647
0.0261103
0.0220232
0.0211488
0.138934
0.0227799
0.133731
0.0277333
1.19473
0.0242966
0.471426
5.46247
0.0211934
0.0486218
0.0270529
0.0242715
0.0275936
0.0233463
0.0211335
0.0224181
0.116349
0.0286847
0.0387906
0.0231943
0.0213422
3.65593
8.3454
0.0210439
0.0236625
0.0243067
0.119537
0.117666
2.82084
2.52503
0.132646
0.138981
0.0245322
2.74161
0.181399
0.210102
0.0243207
0.0274179
1.56137
0.0220782
0.041266
0.0910362
0.0218638
3.49382
0.0211931
0.0393475
0.0204416
18.3345
0.0207908
0.0365984
0.035347
0.100351
0.0217387
0.0706553
2.85388
0.0220788
0.0220707
2.92466
2.94326
2.62044
1.55078
0.020221
0.0218128
3.29605
0.13798
0.0202343
0.0275276
0.0216776
0.0524476
0.037571
0.105138
0.0858494
0.0940807
0.0389002
3.17788
0.0211545
0.0220867
0.0293261
0.167773
0.0218282
6.20303
0.0386972
0.256975
0.0217783
0.109654
0.0247306
0.190477
0.0216748
0.162923
0.625712
0.0376562
0.0215144
1.64629
0.020649
3.48869
0.139661
0.0216996
0.160266
0.0223787
0.0829651
0.0206884
6.33538
0.135451
0.0234325
2.14871
0.0807638
0.0229557
2.65166
0.213338
0.0230453
0.140489
0.021729
0.0827486
0.209116
0.0212179
0.0257793
0.0231669
0.0211354
0.0209289
0.0212015
2.90141
0.142652
0.0219168
0.0212568
0.0215457
0.0474686
0.0911612
0.0202807
0.0196157
0.115821
0.109807
0.0211736
0.0232956
2.3964
1.94566
0.183088
0.111758
2.31744
0.0207162
0.0202489
0.0302441
0.0209192
0.0202927
0.0219238
0.0202633
0.0206621
4.81555
0.021773
0.0400722
3.83376
0.0482522
0.0208862
0.0216094
2.68014
0.0294815
6.51561
0.020378
0.0213416
0.0207325
0.0203643
0.0237855
0.0225616
2.38026
0.0213253
3.29034
0.021336
0.0337762
0.0206606
0.0221318
0.0867037
2.58962
0.0216452
1.69472
0.0209175
0.0213345
0.0215028
0.0223964
0.0208272
0.0221994
3.60861
3.07917
0.0208106
0.597639
0.113712
0.0218691
0.0526232
0.068106
2.73366
0.0264874
3.22191
0.206631
0.198729
0.0225829
0.121778
0.0186809
0.0231695
2.53064
0.0209099
0.0216148
0.0221851
0.0254805
0.0321977
0.150656
0.0503425
0.0238095
0.0256019
0.0599388
0.0519992
0.0219184
1.4694
0.0345926
0.0277504
3.24448
0.0211559
0.0539234
0.131015
0.0208335
3.4172
0.0214388
0.020361
0.0486589
0.0203865
0.0224546
0.115661
3.70265
1.98116
0.0211229
0.0223743
0.0230475
2.31581
1.96134
0.0218193
0.0217045
0.0211046
0.0549663
0.322804
0.0211734
0.0217473
0.0220652
0.0211167
0.0253841
0.0278394
0.0211282
0.0510336
0.0208362
0.0215829
0.0230364
2.84145
0.0204008
0.0235464
0.0214287
0.0328028
0.0616401
0.0559789
0.0613922
0.137402
0.0228213
0.0536204
3.69095
4.98263
3.4836
0.0209757
0.0214601
0.0244111
0.0214144
3.16823
0.0202582
0.604202
0.0254918
3.506
0.103123
0.0238009
5.70031
0.0208011
0.0590495
0.0222358
0.0224077
3.53634
0.0203246
0.200433
0.0212664
0.0228372
0.0215018
0.144711
0.0257342
0.0202624
0.101698
0.0515542
0.653522
2.60424
3.74111
2.80913
0.0204082
6.03072
0.0205818
2.8895
0.51437
0.02291
0.0260724
0.0213906
0.0341638
0.0234791
0.0203365
0.0222505
0.0242387
2.18956
0.0211715
0.0567536
0.0215824
0.0202519
0.0215598
0.138296
2.80202
11.9217
0.0660825
0.027708
0.834813
3.23316
0.0207126
2.62666
0.0240066
0.0916419
0.0214089
1.25634
0.0210985
0.0257578
0.0216691
0.630896
0.0354614
3.11428
0.0212069
0.0340127
0.0213556
0.0215504
3.04412
0.158202
0.0215388
0.114867
0.0213418
0.022097
0.0213395
2.90307
0.0211757
0.0269983
0.020248
0.021441
0.167999
0.0212479
0.106617
0.0222307
0.0208083
3.18339
0.0584383
0.0217663
17.9238
0.193357
0.0801532
0.134992
0.0207856
0.0287592
2.95872
0.217571
0.029104
0.0239094
0.0259616
0.0220778
0.0211967
0.179679
0.0665173
0.0247194
3.85892
0.035868
0.0965532
2.13069
0.0364137
0.0348867
0.128048
3.81107
0.0211392
0.0324286
0.181509
0.0208201
0.021327
0.0215487
0.0237158
0.0224778
5.75319
0.0334437
0.02118
0.084787
0.021103
2.79765
0.0213248
0.0211168
3.60413
0.0580935
0.280939
0.0217718
0.0211741
0.02109
0.0220819
0.0276711
0.0211352
6.01232
0.0296545
0.624969
0.293724
0.0326983
3.76349
0.022379
0.0221347
0.0214146
3.2239
2.10407
0.0258747
5.75467
0.290406
0.020801
0.021078
0.0238033
3.07855
0.240321
0.0357151
0.0220493
0.0235433
0.0945056
0.02392
0.104597
0.0335667
0.0221195
0.0222945
0.0221706
0.0275847
0.0256009
0.221152
0.024635
0.0245635
5.75488
0.0215994
0.354855
0.0236045
0.0330014
0.0253238
0.209792
0.0219377
0.0557011
2.79326
0.224381
0.0214371
0.0246586
0.023131
0.0213341
0.0216562
0.0322308
0.0198184
0.155335
0.107139
0.0207598
0.200698
0.0251379
0.0255101
0.117987
0.0218987
0.0589387
0.966384
0.0202874
0.0581614
0.0760747
0.0332694
0.021024
0.0208533
0.021186
7.14762
0.0221594
0.0214885
0.0388629
0.0211591
0.02093
0.102092
0.30101
0.0395058
1.9254
0.0483964
3.36612
0.0216617
0.0247323
0.31954
0.0229036
0.0317793
0.0217179
0.0212868
0.0217461
0.0250904
0.0585056
0.0210194
0.223997
0.0218992
0.527052
0.0236382
0.0264317
0.0204481
0.0712336
0.0264055
2.75945
0.0415159
0.0221467
2.85359
0.0223777
3.91544
0.0232989
0.0651418
0.0234592
0.0209097
0.021422
3.40663
0.0274988
0.0870502
1.83423
0.0213287
0.0335118
0.019588
0.0258991
0.217742
0.0196142
4.54511
0.0236231
0.0674394
0.0963524
0.0671418
0.0204071
0.0213707
0.0929721
0.0207757
0.0216276
0.0228471
0.0214157
0.0389545
0.0203956
0.114971
0.0221155
5.68554
4.02632
0.135817
3.38268
1.82601
7.5718
0.0983206
0.0207406
0.021982
0.0215493
0.0223862
0.0211081
0.0276142
0.0212114
0.0885805
0.021663
0.938241
0.0220815
0.0299639
0.0825276
0.0210124
0.0398957
0.0223761
0.0226097
0.025588
0.020647
3.85321
0.0711882
0.226012
0.0210418
0.0215039
0.0219045
0.0219828
3.1431
0.0207622
0.142114
0.0210823
0.233369
0.0257521
0.0211909
0.0573864
0.0289261
0.0207729
0.310949
2.62498
0.0239192
0.0711536
0.0207546
0.132041
0.0209156
0.0219828
3.55812
0.0216404
0.0222473
0.0833566
3.9088
0.0212707
0.116293
1.02957
0.0218095
0.0229471
0.0214599
1.8534
0.0214758
0.109173
0.0216545
3.47237
0.0261444
2.17857
0.0212598
0.0201427
0.167153
0.0229714
0.0213989
3.68733
0.022812
0.0209163
0.4278
0.0217996
0.0219808
0.0657958
0.0229482
3.17255
0.0378344
0.0678727
0.123518
0.0234834
3.40209
0.0223215
0.0617223
0.0213818
3.65988
0.228574
0.0218262
0.0209388
0.0220315
0.0218231
0.0207545
0.0207239
0.0210685
0.0214148
0.0283101
0.0202879
0.0226397
0.0666222
3.51504
2.76299
0.0775037
0.0219125
0.153234
0.0211697
0.312521
0.272628
24.2955
0.0203197
0.0207499
0.0217205
0.0215669
0.0203002
0.0207241
0.021238
0.0359403
0.0209239
11.5398
0.269835
0.020948
3.42741
0.0213922
0.0212115
0.027825
2.87225
0.0567819
0.0212926
0.268574
0.0212055
0.0212185
0.190134
0.0220929
2.0526
0.0223245
0.183699
0.0208953
0.0210512
0.0296941
0.0537158
0.0227303
3.05502
0.0294353
0.0229872
0.0232233
0.0215009
0.0208355
0.0841596
0.0326243
0.0245619
3.12331
8.63995
0.0503601
0.0887991
0.0210085
3.25086
0.0209942
2.35939
0.0576265
0.0258663
0.0225704
2.18428
1.88383
1.66299
0.0216472
0.510748
0.0207736
0.0212174
0.0337254
0.0220612
0.0216316
0.159642
4.17668
0.0210499
0.0267756
3.40155
0.0212357
0.0202444
0.745154
2.7892
0.0222765
0.020678
0.025916
0.0215872
0.0211748
0.0322088
0.0253625
0.021532
0.60385
0.0217452
0.123347
0.209247
0.0283918
3.54689
0.021799
0.0220376
0.0374984
3.94861
0.0539514
0.0257029
0.0308132
0.0219667
0.0223515
0.0213036
2.71882
0.0256042
0.0222545
0.0488693
0.0211498
0.224124
0.0692331
0.106325
0.0547987
0.398256
0.254168
2.41132
3.15963
0.0236782
0.386685
0.0202589
0.0535159
0.0707864
0.289755
0.0242831
0.0224153
0.0250288
0.0972674
0.0229451
2.72438
0.0332991
0.0793714
2.47725
0.0212725
0.0908175
0.0232264
0.0216064
0.026737
0.0827756
0.0202573
0.0207092
0.0225964
2.42993
0.0209133
0.0228247
0.0234783
0.0223208
0.0215252
0.0827108
0.0634303
0.0222572
0.0210057
0.0909824
0.0358879
0.0352053
3.48544
0.0218142
0.0214445
1.99304
0.0214968
0.0230285
3.19532
3.44045
0.0284338
0.0536201
0.0259991
7.6861
0.145735
0.0310255
2.63404
0.0211336
0.0720294
3.02629
0.176945
0.46184
0.529608
0.0206382
0.0215452
0.0243794
0.0215459
0.0216295
0.221731
0.0216486
0.0417136
0.0204864
0.0527261
2.69893
0.0229774
2.39628
1.75159
0.0214429
0.0692614
0.025774
0.0226947
0.0213352
3.32888
0.0648499
3.6673
0.0266936
3.65916
0.077849
0.0211461
0.181113
0.0334737
0.0236982
0.0212035
0.142781
0.0213419
0.0250934
0.0346366
0.0251486
0.0219957
0.0508498
2.11927
0.0211383
0.149426
0.200093
0.0216257
0.0211473
0.0241904
1.61761
0.259206
0.0208467
0.0292036
0.0214639
0.07252
6.63996
0.0215923
0.020941
0.0206345
0.0215069
0.0245264
0.0236708
1.95064
0.0220639
0.0240174
0.0729491
0.0241098
0.0764671
2.8023
3.70269
0.0217992
0.0215439
0.0208926
0.0225594
0.0636507
3.886
0.211064
0.0853826
0.0290516
0.0461261
0.0233948
0.0685655
0.0248533
0.0983253
0.0210735
0.125775
0.067684
0.0207535
0.0217561
2.99071
0.0452751
0.0529452
3.72092
0.112053
0.0210921
0.484851
0.0235185
0.0212345
2.64521
0.613333
0.0210877
0.028356
0.0952349
0.0321511
0.0221838
0.0203776
0.0211594
0.0208604
0.021332
0.0286092
0.0477783
4.45758
0.032628
0.025212
0.0302362
0.0751228
0.0209717
0.0322642
0.15427
0.200834
2.99559
0.0227427
0.0203614
3.55106
0.02105
0.0466982
0.0227331
0.0402391
0.0218589
0.0211008
0.181603
0.0256357
0.0226532
0.0214939
2.12904
0.221451
3.29701
0.0217508
0.0215153
0.188247
0.0211093
0.0207386
0.107801
0.579032
0.0261147
0.0318331
0.0221227
2.3486
0.0212433
0.0240011
0.0219972
0.0203471
0.195101
0.0212386
0.0208431
0.163774
0.0537376
2.11775
0.197537
0.0211825
0.0290072
0.0209364
0.0210547
0.0232866
0.0225219
0.0216115
0.168651
0.0215834
0.0652089
0.0262866
0.0275056
0.021605
0.0231307
0.0211553
3.38746
0.020252
0.0946417
0.063297
0.0228301
0.0480489
0.0317872
0.0292949
0.02151
0.0262012
0.0209262
0.0207483
0.259476
0.0349244
0.0254599
0.0213813
0.0212589
0.0210388
0.0632973
0.0211525
2.89598
0.0423458
0.0211141
0.0213106
0.02061
0.0421209
0.063143
1.86825
0.0317271
0.223861
0.0276907
0.0849791
0.0236111
2.86177
0.0204793
0.0202147
0.0244748
0.251536
0.0206362
2.94685
0.021568
0.0214966
0.108968
0.135698
8.32567
0.238516
0.025138
0.134561
0.0694575
0.0206874
2.88362
0.0214025
0.0213606
1.71108
0.0205426
2.96962
0.184258
0.0210658
0.0214284
0.0207177
3.75558
0.0216189
0.0203751
0.068224
0.0211882
0.020908
0.0213653
0.0207055
0.0419539
0.0216939
0.0239249
0.0207011
0.586451
0.0464005
0.0207205
0.0207278
0.02223
0.0212952
0.0236221
0.021825
0.0212464
0.0217203
0.0214522
0.022413
0.0214916
0.0560579
0.0206043
0.0715961
0.0216143
0.0439609
0.0208146
0.0215916
0.0211411
0.0202952
0.0342784
0.0257779
0.0247172
2.1375
0.0373486
3.52076
2.8139
0.0718267
3.45568
0.0215701
0.0214699
0.444966
2.32647
0.0211102
3.34146
0.0206939
0.107647
0.259762
0.0234965
0.0733904
1.49576
2.10003
0.0213881
0.0435941
0.0209632
0.0667038
0.0239322
3.17732
6.04419
0.0216919
0.0439768
0.159271
0.0220911
2.19518
0.229625
0.0230048
0.0209511
0.215586
3.33565
0.0206854
0.0305739
0.0218544
0.167584
0.115543
0.0215419
0.0208424
0.918083
0.0210141
0.0214496
0.0220652
0.0207249
1.65045
0.0281688
0.0275552
3.20593
0.0213371
0.0534118
0.0217088
0.216888
0.0507814
0.017811
0.020784
0.0268211
0.0209581
0.0217375
0.0235778
0.0214815
2.46865
0.0225425
0.0207642
0.0211498
0.262176
0.0209338
0.462497
2.3844
0.447863
0.0215003
0.0209061
0.0212442
0.136422
0.0217673
2.87557
0.0214639
1.82791
0.0228938
0.0226358
0.190513
0.0215904
0.0219055
3.38436
0.0972826
2.92503
0.0218008
3.48642
1.86201
0.021529
3.12906
0.0216624
0.0250675
4.07395
0.023332
0.0383604
3.75683
0.0288797
0.061257
0.021593
1.72807
0.0214276
0.427886
0.0212475
4.29024
0.0214489
0.0215743
0.0232807
0.529411
0.0209379
0.0326855
0.0595679
1.30965
0.0212575
0.0281277
3.52965
0.0833384
1.06949
0.069149
0.0208097
0.0971339
1.84455
0.0237993
1.13972
0.020174
0.126815
6.33323
0.0209772
6.53827
0.0213127
3.39528
1.10633
0.0235257
0.0235774
0.362584
0.495565
0.0214735
0.0226613
0.0207383
0.0215541
3.11385
0.0586346
0.200229
0.0216178
0.0265962
3.0117
0.0260159
0.0940316
1.40776
0.021145
0.021385
0.166366
2.34054
1.97925
0.332773
0.171983
0.0362027
0.0585243
3.46676
2.82862
0.420028
0.0209512
0.071354
0.0414981
0.0641981
0.0214424
0.0255403
0.0544793
0.13332
0.368343
0.0219368
0.736823
3.1837
0.0396089
0.021428
0.0214322
0.0851906
0.0209378
3.66263
0.0271478
0.0221202
0.151492
0.0633981
0.0207062
0.0338386
0.028562
0.0214675
3.77143
0.0246619
3.83169
0.0209634
3.01311
0.216433
0.171568
0.0202946
0.025739
0.029277
0.206486
0.098746
0.0618869
3.12426
0.924162
0.0196454
0.0251378
0.0222071
0.109428
6.36112
0.0208305
0.0206823
0.0225792
0.408693
0.248954
0.0210142
0.0465399
0.150425
0.0209213
0.0510142
0.0236908
3.81126
0.0265941
0.37486
3.01286
0.0273955
0.0241904
0.982794
0.0211372
0.0421718
2.98488
0.0245388
0.0800061
0.0302306
0.053285
2.33027
3.4329
0.0215709
1.09021
0.600146
0.0205507
0.116581
0.0603212
0.0966939
2.3829
0.158048
0.214213
0.0941254
2.88997
0.0261165
0.0607305
0.0205944
0.0217402
0.0215166
0.0209126
0.189559
0.133559
0.0202602
0.0420764
0.152035
0.0211245
0.542726
3.12777
0.0200819
0.0217268
0.0207137
0.0224657
0.0414854
0.0214241
3.84168
0.0284195
0.0632167
0.0254506
0.062629
0.0542618
0.0318053
0.639032
0.0214662
0.0225634
0.0202229
0.0209093
3.55652
0.0858565
0.0277543
3.57494
0.0216812
0.0220072
0.0305066
0.0207238
0.0210654
0.0686225
0.024816
3.21444
2.12058
2.59554
0.0216261
2.34758
0.0212602
0.202511
0.0206854
0.123494
2.19963
0.0215143
0.326596
3.46251
0.0307991
0.0224427
0.0210184
0.0268388
2.56832
0.0206998
0.0217795
0.0225373
0.0238328
0.167317
0.022828
0.0250633
0.0211136
0.022536
1.10826
0.0322823
0.023611
0.109633
0.0805044
3.25976
1.09344
0.0232081
0.0223859
3.00397
0.0214589
0.0597924
0.0216513
3.16067
0.0220326
0.0218963
0.0300803
2.81353
0.0213888
0.0207789
0.0204627
0.126908
10.2082
0.102535
0.0214803
0.0236128
0.0209212
3.27031
0.0211921
1.79024
0.0525346
0.0216843
0.147615
0.0323115
0.245171
0.0220418
0.0207296
0.0289049
0.0381341
0.108039
0.0217197
0.0219154
0.021929
2.86065
0.0216412
0.0223991
3.38842
0.0229057
0.026739
0.02418
0.0210799
0.0212213
0.539722
0.0232271
1.43622
0.260631
0.0200053
1.94892
0.0218571
0.0928246
0.0452395
0.0226399
0.020334
0.0199789
0.0214119
0.734963
0.0441029
3.43912
2.77408
0.0209425
0.0215283
0.0361831
0.698714
0.0214106
0.379515
3.45972
3.00425
0.021296
0.0227974
0.0219723
0.0776428
3.52167
0.0219079
0.0215485
0.029206
3.72411
0.0216662
0.0228687
0.0228561
0.105067
0.457316
0.0205006
2.715
0.0281905
0.0214167
2.57395
0.052195
1.9615
1.04063
0.0304598
0.0253399
0.0224572
0.0260456
0.022061
0.0577455
0.0436557
0.0212543
0.0240279
0.217274
2.14625
0.0206843
0.0947322
2.26945
2.07417
0.0213918
0.021547
0.259843
2.42801
0.0697138
0.0211495
2.26203
0.0609295
0.0200646
4.45791
0.0264459
0.0216867
0.149305
0.0214121
0.0296562
0.0208743
0.019884
0.0215491
0.020457
3.11556
0.020254
0.0211719
0.0696244
0.0245926
0.0241552
0.11889
0.0215111
0.021482
0.0227573
0.0223399
0.225399
0.224234
0.248849
1.08168
0.0333373
0.330411
0.038772
2.87997
2.14985
3.06204
0.0208893
0.0288779
0.0214305
0.0215277
0.0209643
0.022248
0.165168
0.05462
0.0357247
0.0211015
0.0213913
0.0515935
0.0217599
0.0218647
0.0215142
3.30151
0.0296493
7.78496
0.0216146
0.261949
0.0219663
0.0218245
0.0220953
0.0398652
0.0210571
0.0763545
2.9136
0.0384998
3.60953
0.539372
0.023148
0.026591
0.17173
0.0990214
0.0203959
0.02092
0.0199984
2.78683
0.0198645
0.0663204
0.0396113
0.0696729
1.5911
1.08711
0.0593872
3.81875
0.0207037
0.0204573
0.0756707
2.51132
0.0214222
0.0215976
0.831845
0.0209644
0.166626
0.0228614
0.0211302
0.0248662
0.0215181
0.0645067
2.8513
3.10864
0.0243037
0.0215714
0.0722394
0.0224648
0.0701615
0.0208986
0.122566
0.0823574
0.021865
0.0216403
0.0200514
0.108406
0.0511525
0.170934
1.83683
0.0284584
2.82812
0.0673739
0.0996122
3.28371
0.0212784
2.7613
0.0222723
3.33112
0.184177
2.76846
3.15624
0.0221562
0.0496182
0.0807004
0.0214383
3.86577
0.0214808
0.0215039
0.0253665
0.0220504
0.0293885
0.197721
0.836567
3.80447
0.0251964
0.0373976
0.0224713
0.0218147
0.0216733
0.113176
0.0783373
2.29259
0.0416805
0.020304
0.02075
0.0220179
0.207764
0.0238375
0.0223435
0.0245357
0.0817906
0.0301133
0.0387682
0.0365083
2.77842
0.0281202
0.0311245
0.021417
0.0254323
0.39492
0.181264
0.0430356
0.020718
2.56741
0.0310965
0.0211238
0.0447318
2.90399
0.395836
0.0313544
0.0209765
2.73818
0.0219158
0.0209294
0.0203458
1.86418
1.29663
0.0231385
2.30094
2.9418
0.0245917
0.0366413
0.0547223
3.79972
0.0292332
3.47949
0.0219509
0.0921929
0.0244426
3.64107
0.031606
0.0208306
3.04993
0.0216878
0.0222763
1.54459
2.74462
0.063186
0.509147
0.0240736
0.0225428
2.17848
0.0211294
0.0211862
0.0215806
0.0418208
0.0213963
0.0300673
0.0245895
0.374848
1.03554
0.0221286
3.8219
0.0244463
2.98622
3.47166
0.0215544
0.0217245
0.0249575
0.404507
0.164982
0.0604158
2.90256
2.72174
1.12722
0.0225366
2.22362
3.25953
0.0465967
0.81997
0.0215888
0.0213268
0.0215982
0.0223961
0.0213007
0.0314634
3.15312
0.0301039
0.26377
5.69708
2.23019
2.45032
3.31377
0.0276084
3.65313
0.0954623
0.0679709
0.0206645
0.0214855
0.0622053
4.04451
0.0224947
2.79335
3.15657
0.0209271
0.0215965
0.0216565
0.0797206
0.0220064
0.0657047
2.77076
0.0206591
0.021407
0.0209063
0.022189
0.0895664
2.9488
0.0338888
2.74398
0.0968792
0.0211603
0.247903
0.109384
0.0218372
0.259504
0.800354
2.27524
1.29471
3.4533
0.0213676
2.13298
2.98774
0.135904
2.87254
0.0209508
0.0230495
0.023549
0.0231733
3.19962
0.0598797
0.0216981
0.0263579
0.29669
3.0746
0.0224282
0.0233109
3.60199
3.28591
0.0217166
0.0269314
0.0933351
0.0213243
0.0214146
2.17723
0.0211141
0.219499
0.25906
3.30279
0.021041
0.0678256
0.128071
0.0210933
0.0201106
2.1229
2.06459
0.0218944
0.0319515
0.147235
0.189379
3.55639
2.06573
0.0250575
0.225456
0.250441
0.0327214
0.0211128
0.0639865
0.0204131
0.0202123
3.26857
0.0353643
0.0839814
0.0240142
0.0254151
0.0209413
0.0204592
0.0220864
0.0222749
2.50321
0.0237976
1.43845
6.12626
0.0409477
0.0648139
2.53168
3.54187
2.50006
0.0208341
0.0243748
0.0332292
0.0248573
0.162372
0.319348
0.0220649
1.24978
3.26827
0.0257816
0.0833043
0.0683641
0.0909814
0.0993648
0.0226033
0.110607
0.121372
0.133355
0.147142
0.102916
0.0745649
0.0259062
0.0210924
0.0311736
0.0824532
0.0210757
0.346671
3.72676
0.153178
2.99189
0.0200846
0.020707
0.106014
2.83837
0.0222027
0.0235797
0.0591379
3.31385
1.04349
0.0214804
0.0296464
0.0246625
3.21692
0.285393
0.0238283
0.278284
3.04296
0.0915283
3.38375
0.085046
0.384915
3.66305
0.019588
3.73447
3.15113
0.0224074
0.0634193
0.0870658
0.025046
0.0208768
0.627571
1.04416
0.0208451
0.0208902
2.29857
0.310543
0.0711019
0.0217171
0.216138
0.115739
3.12532
3.7347
0.0215754
0.0213766
0.0221562
0.022925
3.40895
0.576762
3.02841
0.0769815
0.18601
0.377536
0.0229308
0.0210512
3.10814
0.020907
3.57181
0.0210437
3.38502
0.0224193
0.0223019
0.325071
0.0215967
0.10137
0.452639
0.0243324
0.0233245
0.0225357
0.160025
3.29263
0.132694
3.02788
0.0240293
0.0227909
0.026859
0.0686285
3.86497
3.53115
0.0862684
0.200344
0.11232
2.55982
0.021522
0.0208764
0.020675
0.0206656
0.158958
0.0583251
0.355004
0.038339
0.133987
0.021112
0.250493
1.12001
3.43682
0.0214689
0.0226744
0.0198998
2.98649
0.0252262
0.594728
0.159351
0.109347
0.19289
0.0200246
0.0349511
0.127102
0.158519
0.279422
0.0216459
0.120733
0.0219533
0.0218339
0.0926877
1.09663
0.924803
0.0217581
0.0773602
0.132928
2.40713
5.26126
3.40219
3.35921
0.0210073
0.0555692
0.0215546
0.125506
0.0211436
0.0973809
0.0230068
0.0454526
0.240485
0.4072
0.0236318
0.0979585
3.12496
0.106269
0.0232893
1.66288
0.0976752
0.0223918
0.0221437
3.2508
0.0276807
0.110985
0.216601
0.384282
4.1066
0.0232429
3.00407
2.89324
0.941909
0.198945
0.0300154
0.0982278
0.0886851
3.33208
0.062248
0.0220894
0.835194
0.0490388
0.344455
0.0266771
4.18492
0.315332
1.18719
0.0255739
1.07084
0.0238003
3.08049
0.131038
1.67016
7.39666
0.0209394
0.0198824
3.09297
3.68853
0.0289798
0.0220094
0.0394441
0.0292057
2.96016
0.0613132
3.17717
0.0253097
3.23674
0.109658
0.538958
0.0220477
0.139273
3.5248
0.0238453
0.0780932
0.0200708
0.0239341
0.0216199
0.220312
0.0211816
0.0216213
3.62802
2.52281
0.0206474
3.7818
0.0222373
0.0214835
0.0213011
0.0209076
0.0217457
0.285942
3.53961
0.0206292
1.9178
0.0627779
0.0450344
1.13439
0.0792448
0.0249134
0.0306673
0.0212955
0.218262
0.0291514
3.82629
0.0246354
3.04973
0.619794
0.0644943
1.21813
3.31048
0.0207804
3.67209
0.0515111
0.0607103
0.0367553
0.0211651
0.0382803
0.168471
0.0215791
0.0555365
0.0214186
3.3403
0.131443
2.35574
0.157404
0.151152
3.58828
0.0215642
0.0211409
0.0585129
0.0227546
0.0217246
0.0217518
0.0263363
0.021084
0.0211978
0.0225192
0.0398899
0.0230026
0.0264159
0.0228781
0.0353076
0.0927569
0.0232917
3.45067
0.0230769
0.0212534
0.0861834
0.0399509
0.0230439
0.0210699
1.90605
0.0232233
3.17247
0.0233904
0.102047
0.0213035
0.0213885
0.097245
3.72767
0.0657309
0.0330425
0.0201616
3.14385
0.0216424
0.0211608
0.0715114
0.0236642
0.12795
3.10193
0.0902258
0.191955
0.0390934
4.13275
0.0214615
0.0216143
0.0584569
0.239386
0.0558791
0.0901402
2.96713
0.0266291
0.0215645
0.0270493
0.214815
0.0539017
0.0215975
0.0941307
0.0897886
0.0596061
0.0217419
0.0216368
0.171545
0.0585586
1.13712
0.283078
0.0234332
0.065527
0.0217159
0.0419247
2.19572
0.021682
0.147372
0.147664
0.0756564
0.731077
0.021544
0.0213513
0.0212481
3.61475
0.195984
0.0232302
0.0949766
0.102864
0.0216919
0.0213987
0.133038
3.72968
0.172723
3.1525
0.1351
0.0295215
0.233567
0.112858
0.0293076
0.653427
0.0819944
0.670466
0.0215166
0.090307
0.124499
0.0222826
1.92542
0.0373066
0.0762768
0.0262787
0.137005
0.0210917
4.00436
0.0241862
0.0208016
0.020931
0.0207474
0.0225304
0.0223381
0.0208811
0.0238261
0.0216041
0.022229
0.227762
0.0734115
0.0221291
0.0590401
0.024198
0.0230747
0.020422
0.0438399
0.0262834
1.98567
0.0215614
0.0215863
0.0635325
0.120985
0.0215894
0.0215405
0.100533
0.0233177
0.0837601
0.056098
0.0215207
5.63881
0.0235153
0.0222311
0.0708838
3.85233
0.0224025
0.0540278
0.0208421
0.0252624
0.0213138
0.0263578
0.0211817
0.0216008
0.0380648
0.0565236
8.60607
0.0477602
0.0214964
0.0275171
3.30757
0.0468873
0.161545
0.0927238
0.0216336
0.050543
0.539593
0.167777
1.90119
0.025272
3.3808
0.324046
0.0284879
0.0216933
0.0696276
0.0221835
0.0533261
3.10525
0.0215487
0.0322034
0.0217724
2.86179
0.0440885
0.0222955
0.0572295
2.96709
0.491468
0.02357
0.0678377
0.0293955
0.020631
2.12191
0.0205114
0.0322304
0.0210921
0.024629
2.64741
0.0675728
0.020726
0.028096
0.163073
0.0215391
0.0218743
0.0274742
0.0249098
0.0214506
0.0234851
0.0241354
0.0219898
0.0210904
0.0579689
0.0969105
0.161699
0.0210272
0.054755
2.99759
4.35088
0.0208289
0.0215819
0.0247018
0.0836787
0.0221245
0.0210644
0.0212115
0.0208661
0.0254733
0.0268069
0.0246221
0.0612928
0.0230971
0.0204348
0.0231082
0.0600022
0.0445329
0.100103
0.0221111
0.0276285
3.21497
0.0284862
0.024311
4.1593
3.21502
0.0923612
0.0631405
0.148689
0.0213409
0.30711
0.0264292
5.13032
0.0214116
0.0212281
1.02197
0.0208109
0.227785
2.29496
0.0219508
13.6968
0.0297073
0.0309654
0.0261534
0.0680806
0.0280568
0.0256501
1.42142
0.0208742
0.0239299
3.53899
0.0228005
0.0214382
0.0292546
3.17775
0.0221428
0.0221451
3.23695
0.0235648
0.0261032
0.0552084
0.0203495
7.55018
0.0237838
0.0222838
0.0957211
0.0541399
3.00312
0.0232432
1.07679
0.0323265
0.0823163
2.24449
0.0215425
0.0314198
0.0851178
0.0221148
1.4647
0.0221758
0.0230565
2.92488
0.0222547
0.0395151
0.0811632
0.145392
0.0292239
0.0258959
0.022256
0.0236068
0.0841946
0.0241003
0.029838
0.0648682
0.05112
0.0216148
3.4197
0.0365288
0.0204459
0.0227102
0.0212373
0.0207643
0.0203553
0.0215532
0.0215109
0.0288895
0.0235809
0.0384548
0.020215
0.0204433
0.0220564
0.0729501
0.0207385
0.0296046
0.0549051
0.027869
0.0290274
0.0213993
0.023066
0.0238998
0.0358603
0.0276769
0.0239834
2.63203
0.021687
2.12104
0.0244589
0.0832902
0.0822257
0.0215173
0.0556098
0.0303079
3.14179
3.03112
0.024966
0.0217199
0.0233137
0.0289408
0.0456996
0.0216438
0.200409
0.050133
0.0219177
0.051404
0.0440851
0.0551295
0.0276399
0.13545
0.0766344
0.0264602
0.493611
0.023185
0.119714
0.022372
0.0212658
0.0771235
0.078201
0.0213967
0.0477732
0.0214426
0.0216419
0.0214533
0.0219864
0.021482
0.0214086
0.0213938
0.0221264
0.14931
0.0226281
0.0213514
0.0223588
0.022452
0.172667
2.95018
0.0528885
0.023815
3.34117
0.0214321
0.0213643
0.0294389
0.0310239
0.0222406
0.0221822
0.0216472
0.151314
0.0217328
0.0251244
0.0222453
0.0323314
3.77526
0.0214541
0.0513717
0.061025
0.0247407
0.0414496
0.0206793
0.0216735
0.0570298
2.0203
0.0230772
0.0341778
2.08468
0.0851118
0.0207957
2.2403
0.0225664
0.019645
0.05096
3.54999
0.0214359
0.0207225
0.0229901
0.0293076
0.0321755
0.0214228
0.022334
0.0375471
0.0216689
0.027874
0.0252864
1.33152
0.0204205
2.74448
0.239055
0.0352671
0.0213155
0.0864616
0.0210123
0.0232073
0.0215735
0.0529446
0.0201866
0.0201678
0.0388745
0.0529636
0.384331
0.0218724
0.0200891
0.0230954
0.0208036
2.88184
0.0231492
0.0226604
0.0220682
0.0576807
0.0454061
0.0232969
0.0229228
0.042805
0.0216449
0.0216721
0.0232102
0.0220774
0.149032
0.0211626
0.0295744
0.0219551
0.0215111
0.0466287
0.0833488
2.81232
0.0214526
0.0509755
0.286244
3.0009
3.35068
0.0301178
0.021512
0.0241587
0.0289256
2.43268
0.0218308
0.0246951
0.0263684
0.0299525
0.0202406
0.051739
0.0442118
1.01444
0.0220402
0.0216677
0.0827954
1.04433
0.0201179
0.024199
0.0322593
0.019982
0.0223966
0.0435419
0.0212725
0.0214546
0.0216967
0.0241164
0.0765955
0.0346818
0.022404
0.0206379
0.0221173
0.135918
0.0199363
0.020827
0.0253578
0.0826837
0.0251006
3.79206
0.0241025
0.0214502
0.021522
0.0229018
0.0212063
0.0318327
0.0497759
0.0208882
0.0210063
0.021972
0.0213013
0.0220168
0.043021
2.50746
0.0228521
0.0924546
0.0234171
0.0213143
0.217456
0.0232793
3.59081
0.0217784
0.0217122
0.0207311
0.0214768
0.0224559
0.0296993
0.035774
0.811817
0.0272523
0.050518
0.0217431
0.0323959
0.0214367
0.0231835
0.0323025
2.5083
3.09615
0.021808
3.26627
0.13231
0.0403199
1.88993
0.0198406
0.0214092
0.0216396
0.0227767
2.71131
0.0207633
0.067533
0.211278
0.0223266
0.0765723
0.0199717
0.0301372
0.305992
0.602784
0.0217872
0.26606
0.108422
0.227864
0.025655
3.41669
0.0224824
0.160647
0.0929702
0.0205111
0.0377345
0.030331
0.0234262
0.39516
0.0298122
0.0209209
0.0228089
0.278374
0.0217241
0.0491722
0.0215658
0.019905
0.0228743
0.0315461
0.0215331
0.0755953
0.0261521
0.0234902
0.019879
0.0214817
0.484749
0.0745108
0.13388
0.0324461
0.0246129
0.0273121
0.0251789
0.0214249
0.0225916
0.0322769
0.0229874
0.0238871
0.0203887
0.0254237
2.90314
0.0219567
1.38089
0.126578
0.0216663
0.0216513
0.0202597
0.0278294
0.0349905
0.0200926
0.025095
0.022787
0.0219025
0.0211178
0.0220051
0.0212391
0.0215793
0.228491
0.0218302
0.025887
0.0214565
0.154523
0.625095
0.0214545
0.264554
0.0216057
0.0236893
0.029286
0.331843
0.0281714
0.0210047
0.0213242
0.0324333
0.0400124
0.139225
0.0225876
0.0474098
0.107748
0.021914
0.0214792
0.127112
0.0498069
0.0301605
0.0216673
0.0227717
0.022594
0.0231879