/*--------------------------------*- C++ -*----------------------------------*\
| =========                 |                                                 |
| \\      /  F ield         | OpenFOAM: The Open Source CFD Toolbox           |
|  \\    /   O peration     | Version:  v2012                                 |
|   \\  /    A nd           | Website:  www.openfoam.com                      |
|    \\/     M anipulation  |                                                 |
\*---------------------------------------------------------------------------*/
FoamFile
{
    version     2.0;
    format      ascii;
    class       volVectorField;
    location    "300";
    object      U_0;
}
// * * * * * * * * * * * * * * * * * * * * * * * * * * * * * * * * * * * * * //

dimensions      [0 1 -1 0 0 0 0];


internalField   nonuniform List<vector> 
13917
(
(1.09259 0.119452 1.93316e-20)
(1.01924 0.0406467 0)
(0.619947 -0.0716151 -2.22264e-20)
(1.05448 -0.00905713 0)
(0.996183 0.00241506 3.91615e-22)
(0.358818 0.0500426 0)
(0.544181 -0.0600231 0)
(0.625383 -0.0711466 0)
(0.431237 -0.0600991 1.71632e-20)
(1.13522 0.147888 1.34927e-20)
(1.10705 -0.0592735 -2.0424e-21)
(1.08886 -0.0399272 -1.21865e-21)
(1.05498 -0.00975623 -1.04348e-20)
(0.0100572 -0.00222518 1.79965e-20)
(0.970355 0.0914581 0)
(0.993353 0.0864573 0)
(1.01363 0.0456057 -1.57339e-21)
(1.1361 0.0200848 0)
(1.08793 -0.0394624 1.41399e-21)
(1.00143 0.00455541 4.26525e-22)
(0.999974 0.000982395 4.08788e-21)
(0.52236 -0.0584475 0)
(1.00082 0.00740777 3.59993e-21)
(0.684794 -0.0756205 1.66874e-20)
(0.99457 0.0139638 3.80158e-21)
(0.552994 -0.0536723 0)
(0.782692 0.0298155 0)
(0.75685 0.117387 0)
(0.733342 0.565238 0)
(1.18861 0.0894564 0)
(1.1068 0.109649 0)
(1.05751 0.0877823 7.62089e-21)
(0.836662 0.0649003 0)
(0.91027 -0.00249859 1.05812e-19)
(0.991103 0.0108075 0)
(1.10606 -0.0729536 4.91991e-21)
(1.00074 0.00699047 -7.17033e-21)
(0.13494 -0.0287665 2.61335e-20)
(1.06121 -0.0140116 5.57309e-21)
(0.313284 -0.00477557 3.55157e-20)
(1.00828 0.000783766 0)
(0.999987 0.000426774 5.80822e-21)
(1.02032 0.00263973 2.72437e-21)
(0.702451 0.199766 8.8018e-20)
(1.03741 0.0244841 -2.24225e-22)
(0.891467 0.0110746 -2.49576e-20)
(1.13363 0.0183572 0)
(1.13652 -0.0124522 0)
(0.103989 0.132737 3.27763e-20)
(1.00336 0.000755421 -1.36599e-21)
(1.08279 0.0155747 1.4065e-20)
(0.965066 0.00748785 -1.98258e-20)
(0.074907 0.111413 0)
(0.905618 -0.00129586 2.47994e-20)
(1.01244 0.0465437 3.17407e-21)
(1.08242 0.0386096 2.25326e-20)
(1.10834 -0.0587302 0)
(0.994727 0.028297 1.07393e-20)
(1.06871 0.0446319 -2.70357e-20)
(1.03603 0.0240177 -1.57254e-20)
(0.57261 0.0503087 1.13392e-19)
(1.02073 0.0407555 1.15578e-21)
(-0.00648718 0.00213501 0)
(1.00152 0.00492567 2.02138e-21)
(0.385518 0.0622018 0)
(1.07192 0.356586 8.28468e-20)
(0.99544 -0.00150451 -5.96005e-21)
(0.988051 -0.00284198 -8.92561e-21)
(1.1488 -0.050053 1.37292e-20)
(1.06016 0.133438 -1.96572e-22)
(0.996575 0.00260984 -1.76562e-22)
(0.492682 -0.0680408 2.51346e-20)
(-0.0841071 -0.0156064 5.25458e-20)
(0.995173 0.013606 3.61971e-21)
(0.105769 0.206456 1.38839e-19)
(1.08273 -0.0448726 -6.04756e-21)
(-0.0885805 -0.00974958 0)
(1.05211 0.0271354 -1.37885e-20)
(0.56132 -0.0453776 0)
(0.99989 0.00198834 4.57492e-22)
(1.00007 0.00304075 5.8327e-21)
(0.995995 -0.00132375 -2.83019e-20)
(0.404907 0.125311 0)
(0.16205 -0.0336658 0)
(-0.0863157 0.0168497 -7.50763e-20)
(1.05109 0.0259822 0)
(1.00033 0.00391295 5.61098e-21)
(1.20825 0.427867 -5.85204e-20)
(1.08099 0.0154917 3.07768e-20)
(1.02076 0.00265929 -6.57762e-21)
(-0.00642992 -0.0241315 0)
(1.17066 0.128072 0)
(1.02206 0.0230046 -3.08103e-21)
(0.972672 0.0510038 0)
(1.15985 0.423794 -3.26319e-22)
(0.385855 -0.0112044 6.48364e-20)
(1.12514 -0.0478162 5.00012e-20)
(1.137 -0.00294333 2.48766e-20)
(1.08562 -0.051595 2.86162e-21)
(0.608424 0.125309 1.03426e-19)
(1.01093 0.00568396 0)
(0.844495 -0.00341635 -4.56558e-20)
(0.692239 0.184717 -9.98107e-20)
(1.05939 0.0207116 0)
(1.01585 0.0120269 8.01076e-22)
(0.502898 -0.0605738 0)
(0.813048 0.503584 1.27556e-20)
(1.139 -0.0136746 0)
(1.01544 0.0461457 0)
(1.107 0.124115 -3.1305e-20)
(-0.157073 -0.00897049 -6.45986e-20)
(0.321661 -0.00535866 -2.50133e-20)
(1.08947 -0.0453298 -2.77223e-20)
(0.465097 -0.0602415 3.25383e-20)
(0.947873 0.0057461 0)
(0.0829652 -0.119103 -2.50556e-19)
(1.00048 0.0131346 -8.95199e-21)
(0.200155 0.0910558 1.22197e-19)
(0.198485 -0.00950652 -4.917e-21)
(0.906834 0.0113096 0)
(0.999984 0.000832661 3.1426e-21)
(1.14972 -0.0483676 0)
(0.160235 -0.0119666 0)
(0.765716 0.110653 -5.41099e-20)
(1.00499 0.000668138 4.40823e-22)
(0.974122 0.048476 -1.88102e-20)
(1.0329 0.02776 5.65657e-21)
(1.00463 0.000541743 9.83939e-22)
(1.01765 0.00181804 2.56668e-21)
(0.361246 0.00311203 -2.54137e-19)
(0.260763 -0.0278199 9.42427e-21)
(0.950338 0.00488968 0)
(1.03774 0.0254502 1.44984e-20)
(0.999978 0.000775081 -7.80809e-21)
(1.27406 -0.00124538 0)
(0.70147 -0.0788665 1.58669e-20)
(1.09006 0.123925 -2.33344e-20)
(0.58455 0.126493 0)
(0.995118 -0.00114791 -7.66287e-21)
(0.907833 0.00706963 1.05928e-20)
(1.09721 -0.0709604 0)
(1.02385 0.0131448 -2.32007e-21)
(0.961736 0.0194402 3.98548e-20)
(0.654604 0.196466 0)
(0.987397 -0.00253538 -5.48172e-22)
(0.710385 -0.0716858 4.97428e-20)
(0.803735 0.57061 7.37548e-21)
(0.966989 0.00799469 1.66093e-20)
(1.02259 0.0111068 1.90349e-21)
(1.05249 0.0967061 -1.34609e-20)
(1.11254 -0.02105 6.6755e-20)
(0.0923614 -0.152865 2.7696e-19)
(1.10636 -0.042887 0)
(1.02341 0.176365 -5.65908e-21)
(1.0739 0.0627269 2.2758e-21)
(-0.0510631 0.0542732 1.73497e-19)
(1.05549 0.130724 -1.24052e-21)
(1.14324 -0.0855907 0)
(-0.110768 -0.00697042 0)
(1.26883 0.0008899 5.49762e-20)
(0.939086 0.0410062 0)
(0.783449 -0.0306191 -1.30851e-19)
(1.00002 0.00211335 5.91284e-21)
(1.12321 -0.0468467 -6.26803e-20)
(1.09013 -0.0448515 4.53229e-20)
(1.08641 -0.0514515 0)
(1.0585 0.0215553 -1.06311e-20)
(1.12374 -0.0143435 3.92171e-20)
(1.03097 0.0209363 -9.78034e-21)
(0.837615 -0.00773815 -3.02976e-20)
(1.04265 0.169365 2.18182e-20)
(-0.284541 0.00294101 9.48257e-20)
(1.08751 -0.0469842 3.73301e-20)
(1.01112 0.0545002 9.77155e-22)
(0.860808 -0.0811439 0)
(1.0129 0.196827 -2.11787e-21)
(0.282882 -0.0321904 -3.97874e-21)
(0.16314 0.0928401 1.33033e-19)
(0.768525 -0.0748984 -5.70723e-20)
(1.01163 0.0260072 0)
(1.17588 0.123029 0)
(1.11206 0.108222 0)
(1.02436 0.0127307 2.28967e-21)
(1.00032 0.00425075 -5.51139e-21)
(0.9348 0.110198 0)
(0.607267 -0.0568963 -1.03231e-20)
(1.2518 0.132161 1.84623e-19)
(0.00501085 0.05468 -1.22368e-19)
(1.11232 0.0416187 1.36357e-20)
(1.09165 -0.0518906 1.98827e-21)
(1.11541 -0.0762156 -2.62384e-20)
(-0.0352959 0.0207429 2.28886e-19)
(1.244 0.171179 -1.63366e-19)
(0.999599 0.00717722 7.2875e-21)
(0.563285 0.0594855 -1.59924e-19)
(0.793294 0.0316364 0)
(1.00723 0.000299141 0)
(1.02223 0.0239862 0)
(0.873366 0.437733 7.23281e-21)
(1.21652 0.468452 0)
(1.07411 -0.00109869 9.06814e-21)
(1.00307 0.0006737 -1.95178e-21)
(1.11746 -0.0145479 0)
(1.11074 -0.021043 -6.18614e-20)
(-0.111751 -0.0119776 2.82138e-20)
(1.23916 -0.0371032 -5.12492e-20)
(0.991452 0.00997943 0)
(0.993976 0.029305 -9.29499e-21)
(1.13453 -0.00461124 6.00947e-21)
(0.632202 -0.0659697 -9.76763e-21)
(0.963978 0.019877 -4.14378e-20)
(0.52876 -0.0621071 0)
(-0.158872 -0.00632363 0)
(1.09246 -0.0517689 0)
(1.01547 0.0122757 -1.02026e-21)
(0.494127 0.404776 1.85644e-19)
(1.12723 -0.00326196 0)
(-0.24902 -0.00436226 1.37282e-19)
(1.00242 0.0174965 0)
(0.729749 0.0722495 -1.45702e-19)
(1.01129 0.0250669 0)
(1.18105 0.0670151 -4.88805e-20)
(1.0081 0.000972878 0)
(0.111527 -0.0327287 0)
(0.480938 -0.0593284 -1.70987e-20)
(0.994247 0.0899179 7.15703e-21)
(1.18829 0.468694 2.78707e-20)
(1.07686 0.0617475 2.19348e-20)
(1.01479 0.0118271 -9.01397e-22)
(1.10121 -0.0716885 0)
(1.08674 -0.0464769 -3.53747e-20)
(1.11108 0.0392161 -7.15303e-21)
(0.709164 -0.0760251 2.11685e-22)
(-0.179199 -0.00379345 -5.06051e-21)
(1.01194 0.0029849 1.84509e-21)
(1.0607 0.0889348 9.64474e-21)
(0.0237706 -0.0279816 -3.62228e-20)
(-0.131442 0.0205204 0)
(0.999978 0.00236149 1.5913e-22)
(1.00586 0.0087888 -2.36174e-21)
(0.359577 -0.00394905 0)
(1.13052 -0.0499793 0)
(1.00004 0.000129507 -3.90243e-21)
(1.08703 -0.0656697 -4.00869e-21)
(1.16931 0.0106264 -1.08756e-21)
(0.793339 -0.0356983 1.16742e-19)
(1.09038 0.105183 0)
(1.00003 0.00229658 0)
(0.976841 0.201146 5.84514e-21)
(-0.148522 -0.00494807 6.20143e-20)
(1.04008 0.0039984 -1.29839e-20)
(1.19168 0.138803 4.84375e-20)
(0.569878 0.170744 -1.43937e-19)
(1.03265 0.0265337 2.47745e-21)
(0.994188 0.0266771 0)
(1.10242 -0.0367425 -8.66211e-21)
(0.376666 -0.0103001 1.55704e-20)
(1.1056 -0.0416531 2.22906e-20)
(0.935586 0.114853 -2.182e-20)
(0.973632 0.0941271 7.40257e-21)
(1.00004 0.000226965 -2.62368e-21)
(0.139002 -0.00733135 0)
(0.686546 -0.0373012 7.6175e-20)
(1.08125 -0.0615455 8.08618e-21)
(1.01434 0.0120603 3.19655e-21)
(-0.138825 -0.0108825 0)
(0.0156197 -0.00698186 0)
(1.10622 -0.0877736 0)
(0.542924 -0.0437082 1.31672e-21)
(1.08297 -0.045652 3.50702e-20)
(1.00001 0.0028324 0)
(1.00611 0.00081114 5.60506e-22)
(1.13266 0.0135156 3.36462e-22)
(0.0329437 -0.0222732 1.64027e-21)
(1.15851 -0.0257647 -8.72843e-20)
(1.06724 0.0425974 0)
(1.24264 -0.0375272 5.07024e-20)
(1.07638 -0.0327063 -1.68145e-20)
(1.01758 0.00120974 -4.57344e-21)
(0.976593 0.0225406 -1.35146e-19)
(1.00183 0.00446721 -3.39635e-21)
(0.823219 -0.0803289 0)
(1.0724 -0.000752634 1.16299e-22)
(1.00007 0.000131582 3.5558e-21)
(0.997812 0.10676 1.08094e-20)
(1.0178 0.178209 2.55476e-21)
(0.783696 -0.0182038 0)
(1.08757 -0.0669465 2.34189e-21)
(0.995209 0.141832 -3.66701e-21)
(1.04245 0.0103941 1.56301e-20)
(1.23417 0.0159701 0)
(0.719662 -0.0763083 2.74033e-20)
(0.586858 -0.0398622 -5.94963e-21)
(1.00216 0.016986 4.95954e-21)
(1.08432 -0.0864545 6.68449e-22)
(0.998379 -0.000135502 0)
(1.04253 0.00948805 3.04385e-20)
(1.00063 0.0125213 4.22517e-21)
(0.816326 0.610402 -9.47729e-21)
(1.00155 0.000808321 0)
(1.1857 0.0668216 -1.10587e-19)
(1.08595 0.104981 2.03898e-21)
(1.0306 0.020005 1.03492e-20)
(1.11719 -0.0166818 4.34898e-21)
(1.03588 0.0559347 0)
(0.11302 0.054451 0)
(1.01213 0.191765 5.52389e-21)
(1.16505 0.125607 -6.42785e-20)
(1.02933 0.014191 3.42872e-21)
(0.994893 0.0257509 0)
(-0.177843 -0.0065946 0)
(0.127818 -0.0104288 0)
(1.00071 0.0137302 0)
(1.00696 0.000857602 0)
(1.03006 0.0313456 -6.22656e-22)
(1.01489 0.024684 -9.85281e-23)
(-0.0609993 -0.0184353 -4.88242e-20)
(1.02842 0.0140711 -3.1237e-21)
(0.127936 -0.0340634 -1.56834e-20)
(1.04638 -0.00362363 1.08112e-20)
(1.20416 0.317321 -4.69215e-20)
(1.09813 0.00467746 -5.07187e-20)
(0.111327 0.27871 -3.25199e-21)
(0.942902 0.0408081 1.02492e-20)
(1.29555 0.00570095 -6.58037e-20)
(0.510366 0.298129 -2.0707e-19)
(1.00085 0.104605 -6.63355e-21)
(1.13252 -0.0487847 -4.6884e-20)
(0.953942 0.514946 2.82996e-21)
(0.994726 0.0421313 2.04687e-21)
(0.200152 -0.0280549 0)
(0.571417 0.0386507 1.77638e-19)
(0.0221836 -0.0101421 -2.71394e-21)
(0.921337 0.0163686 -3.25398e-20)
(0.246683 -0.00537554 3.74261e-20)
(1.0668 0.0871987 -3.01663e-20)
(-0.0629965 -5.34029e-05 6.83036e-20)
(0.528503 0.277046 0)
(0.919886 0.347233 1.21509e-20)
(0.935918 0.342071 -2.06128e-20)
(0.562678 -0.0692358 2.72109e-20)
(0.999709 0.00243561 -9.2782e-21)
(1.04882 0.17255 1.7933e-21)
(-0.122322 -0.0100394 -5.85452e-20)
(0.981936 0.0279506 -1.30415e-20)
(1.00034 0.0698255 4.95641e-21)
(0.0393612 -0.00755422 3.15045e-20)
(0.860651 0.47213 1.31351e-20)
(1.01593 0.0515264 0)
(1.10975 -0.0738756 2.34361e-20)
(0.702898 0.538039 0)
(1.00902 0.00494684 -5.5865e-22)
(0.178762 -0.00554373 -4.85152e-21)
(1.10516 -0.0739931 2.85343e-20)
(1.00195 0.00481195 7.1175e-21)
(1.00904 0.01265 -7.59584e-22)
(0.998573 -0.000259447 2.47334e-21)
(1.02299 0.0107627 -1.69493e-22)
(1.22903 0.0136464 5.44257e-20)
(0.807819 -0.0778724 4.84026e-20)
(0.385522 -0.282212 -2.06439e-19)
(-0.143451 -0.00815108 1.21682e-19)
(0.997611 0.0136462 0)
(1.19834 0.138116 -2.77405e-20)
(-0.188487 0.0234119 1.2633e-19)
(1.10854 -0.00585404 -5.272e-20)
(0.50818 -0.0600249 -6.52969e-21)
(0.0620409 -0.0276082 2.87858e-20)
(0.443811 -0.0589225 -8.70288e-21)
(1.01311 0.00545602 -1.31353e-21)
(1.08003 -0.0606668 -1.4942e-20)
(1.01022 0.0122463 7.08148e-22)
(0.861845 0.0871919 5.14359e-20)
(1.03515 0.024651 1.74021e-21)
(0.0855809 0.326303 -1.44771e-19)
(1.17219 0.0127043 -3.87094e-20)
(1.0634 -0.00660522 -1.29508e-21)
(0.99955 0.00290159 0)
(1.13207 -0.00327321 -4.90241e-20)
(1.18168 0.124168 8.36041e-20)
(1.15161 0.00676373 2.27535e-21)
(0.326828 1.09032 6.9039e-20)
(-0.107157 -0.000805118 -7.34826e-20)
(-0.275796 -0.00172214 -1.8867e-19)
(0.981832 0.209115 4.47171e-21)
(1.12898 0.145018 -9.44669e-22)
(1.00556 0.00835304 2.73814e-21)
(-0.105811 0.0213 -5.53558e-20)
(0.511147 -0.0553109 -2.49228e-20)
(0.998602 0.0322376 6.35681e-22)
(1.26687 0.00937758 1.58868e-21)
(0.995447 0.00982143 0)
(1.20741 -0.0202401 0)
(1.04642 -0.00307227 5.90978e-21)
(0.999782 0.00206851 4.10523e-21)
(1.03132 0.0588943 -3.71449e-21)
(0.587481 -0.0376964 0)
(1.02957 0.059147 3.13943e-21)
(0.396922 -0.0137855 0)
(-0.0535886 0.0349948 2.23138e-19)
(1.10156 -0.0559332 0)
(0.442257 0.278517 1.84258e-19)
(0.996461 0.0418366 -2.10588e-21)
(0.495882 0.362008 -1.94246e-19)
(0.468554 0.303111 1.20112e-19)
(1.00189 0.00956666 -2.89452e-21)
(0.825542 0.472991 -4.56173e-20)
(0.983356 0.0277243 1.13791e-20)
(0.994167 0.011633 -5.77832e-21)
(1.18712 0.0939305 0)
(1.00007 0.000340196 0)
(0.993445 0.0133435 1.54528e-20)
(1.01046 0.01205 -5.63604e-22)
(1.23309 0.0175658 0)
(0.99994 0.00158794 -4.72378e-22)
(0.25607 -0.00734315 -3.27522e-20)
(0.681868 -0.0468764 -8.46251e-21)
(-0.126098 0.0163611 -6.18841e-20)
(1.23971 0.177372 -1.12639e-19)
(0.382989 -0.021801 6.54998e-21)
(-0.23064 -0.00600454 0)
(1.10652 -0.0061952 6.28842e-20)
(0.997982 0.0130548 7.47238e-23)
(1.20218 0.0106895 0)
(1.06089 -0.0128802 -6.20923e-21)
(1.06535 0.0943785 -1.94373e-20)
(0.999584 0.00767194 -4.16731e-21)
(0.738823 -0.0765494 -6.91185e-20)
(0.573361 -0.0627438 -1.17706e-20)
(0.735265 -0.0491685 -1.05121e-21)
(0.982333 0.0849742 -1.09666e-20)
(1.17297 0.000823711 2.19937e-20)
(0.924753 0.0135256 2.84031e-20)
(1.06248 -0.0144424 -2.20077e-20)
(1.1495 0.00527896 -3.7707e-21)
(1.01749 0.0602915 1.30053e-22)
(1.07995 -0.0590287 -4.43137e-21)
(1.01653 0.0449869 0)
(1.00153 0.000952753 0)
(-0.0289754 -0.0223636 -4.66857e-20)
(0.279004 -0.0300557 -4.23193e-21)
(0.299505 -0.0330966 0)
(1.17427 0.206277 5.18812e-20)
(-0.135224 0.0127731 1.40069e-19)
(0.228246 -0.0332781 -1.71976e-20)
(-0.0751356 -0.0190646 1.20362e-19)
(-0.0481014 -0.010836 0)
(1.01684 0.00194426 -2.81024e-21)
(1.13412 0.00452241 -2.46487e-20)
(1.01951 0.0601442 -2.92301e-22)
(0.991652 0.0297989 0)
(1.23178 -0.0306261 1.17681e-19)
(1.13471 0.0150944 0)
(1.01857 -6.38516e-05 -3.19068e-21)
(1.15266 0.0478243 0)
(1.10736 -0.00105986 -2.32055e-20)
(-0.0381121 -0.00830775 0)
(1.00204 0.00994299 3.52825e-21)
(1.14059 -0.0377296 -1.79727e-20)
(-0.00124231 0.0171804 -1.57072e-19)
(1.22427 0.331753 0)
(0.258963 -0.0113697 -1.91525e-20)
(0.999943 0.00138403 0)
(0.997472 0.0326461 -8.67966e-22)
(1.0111 0.000424295 0)
(1.05042 0.134474 6.861e-22)
(1.01305 0.00505969 2.6225e-21)
(0.667256 -0.0585632 0)
(0.397034 -0.242766 1.2402e-19)
(0.998123 0.136553 -8.03462e-22)
(-0.0648229 0.0299167 9.01212e-20)
(1.08188 0.036292 2.87606e-21)
(1.12138 -0.0484093 3.47944e-20)
(-0.034761 -0.0214051 5.81681e-20)
(0.825011 0.571181 -9.86209e-22)
(1.10064 -0.0551975 -3.76831e-21)
(1.10028 -0.0725567 0)
(1.13968 -0.0393564 0)
(1.15088 0.064413 -1.24249e-20)
(1.19183 -0.00578866 -2.93714e-20)
(1.09129 -0.0237583 0)
(1.09354 -0.0572463 3.46112e-21)
(0.375038 0.105388 0)
(1.08723 -0.0311224 4.82411e-20)
(1.13741 -0.0220801 0)
(1.01447 0.000704327 0)
(1.264 -0.0111463 0)
(1.0857 0.0183411 2.75036e-20)
(1.02953 0.00391591 9.88792e-21)
(1.04611 0.13094 0)
(1.05448 0.0255216 -9.74742e-22)
(-0.0354489 -0.011521 0)
(0.489522 -0.0646623 -3.81251e-20)
(1.01421 0.0237046 -2.38731e-22)
(1.01747 0.000977405 4.66644e-21)
(0.69797 -0.0660905 1.05039e-20)
(-0.252769 -0.00298729 0)
(1.00006 0.000258003 2.64305e-23)
(0.236618 -0.00687249 0)
(1.05553 0.00576146 -9.25061e-21)
(1.22855 0.158146 -2.16927e-20)
(1.01355 0.0255434 1.00333e-22)
(-0.143175 -0.0086231 -3.65276e-20)
(1.19218 -0.0744994 0)
(1.05541 0.0944704 2.86297e-20)
(1.03545 0.0370947 8.2542e-21)
(0.408068 -0.0257475 0)
(1.24158 0.130904 -4.77922e-20)
(-0.249379 0.0128117 0)
(1.00004 0.000307127 -2.57663e-21)
(-0.147842 -0.00694435 0)
(0.135854 0.0539537 0)
(1.00555 0.0329811 -7.49656e-20)
(1.02964 0.0044085 -1.20245e-22)
(-0.119232 0.0174486 0)
(0.336682 -0.0395015 1.28686e-19)
(1.106 -0.00956928 3.23737e-21)
(1.00958 0.0127084 0)
(1.00769 0.0458483 -2.34872e-21)
(1.08112 -0.0453297 0)
(1.20705 -0.0240449 1.06636e-19)
(1.01902 -5.57559e-05 6.31748e-22)
(1.0086 0.0119658 -7.99343e-22)
(1.00488 0.00235819 -1.79485e-21)
(1.00519 0.00247043 0)
(-0.16386 -0.00902348 0)
(1.23084 -0.0265026 0)
(1.1056 -0.00828851 -1.35641e-20)
(1.25025 0.119407 1.38533e-19)
(1.00614 0.000634506 -8.48607e-22)
(1.0105 0.00539663 2.81141e-22)
(1.16959 -0.00070327 5.43448e-20)
(0.189495 -0.0382895 -9.19309e-21)
(1.10261 0.0517815 0)
(1.03208 0.0212012 9.55947e-21)
(0.994491 0.01211 -8.23824e-21)
(0.992338 -0.00131684 -6.04512e-21)
(0.944519 0.023363 1.64497e-19)
(0.0117332 0.023161 -2.01412e-19)
(1.00048 0.00371139 0)
(0.992489 0.0017038 -1.71959e-20)
(1.07863 -0.0595561 0)
(1.09182 -0.0223973 -2.11577e-20)
(1.09723 0.00340503 -4.34674e-20)
(0.996501 0.031137 -8.61894e-21)
(1.02686 0.0618986 -5.61103e-22)
(1.04135 0.0928511 4.63362e-21)
(1.13507 -0.0227352 -3.24995e-20)
(0.949554 0.488759 0)
(1.25501 0.127359 -1.07345e-19)
(1.20295 0.00677348 0)
(1.15685 -0.0144049 0)
(1.23825 -0.0415108 0)
(1.16466 0.118916 -3.82079e-20)
(1.00137 0.0163959 0)
(-0.135199 -0.00711957 -3.9789e-20)
(0.992693 -0.00180309 0)
(1.00089 0.072679 -1.03536e-20)
(1.06511 0.000499244 0)
(1.26237 -0.0124852 3.00932e-20)
(0.990492 0.284921 3.56051e-21)
(1.00978 0.00121158 -4.46098e-22)
(1.22665 0.320808 0)
(1.19691 0.0825862 7.08046e-21)
(-0.0888668 0.00410965 0)
(1.15835 -0.012351 0)
(0.886227 0.131707 1.06944e-19)
(1.10963 -0.00184661 -2.86657e-20)
(0.999412 0.00314659 -5.68827e-21)
(0.515076 -0.041132 0)
(1.21543 0.310793 5.79993e-20)
(0.393712 -0.056741 0)
(1.01592 0.042852 0)
(1.09283 0.0416779 2.46738e-22)
(1.25339 0.115182 -1.04266e-19)
(0.0703431 -0.0298035 -4.96518e-20)
(-0.188848 0.00589403 0)
(1.1396 -0.00446485 8.76354e-22)
(1.1828 0.207878 -8.68162e-21)
(0.989568 0.0854693 -2.02175e-21)
(1.05401 0.0555653 0)
(0.995403 0.0315989 -3.65738e-21)
(0.887935 0.227164 0)
(0.670327 0.178321 0)
(0.973459 -0.00546244 -1.20829e-20)
(1.12482 -0.00455793 0)
(0.568874 0.145516 0)
(0.408158 -0.0586125 -8.99505e-21)
(-0.242739 0.0144777 0)
(1.02967 0.0717695 -2.87812e-21)
(1.11963 -0.0476766 -4.71387e-20)
(1.19018 -0.0728969 0)
(1.00222 0.114886 -2.35703e-21)
(0.967478 0.0219483 4.35616e-20)
(0.175375 0.539168 0)
(0.687667 -0.05929 0)
(0.65507 -0.0752577 4.9892e-20)
(1.2456 0.103667 9.42048e-20)
(1.01753 0.00205437 -5.05204e-22)
(0.183987 -0.00819875 2.24749e-20)
(1.08179 -0.0446752 -2.7208e-21)
(1.0097 0.000902596 -4.90942e-22)
(1.09035 0.0729012 0)
(1.12032 -0.0317628 0)
(0.846022 0.0666397 1.18345e-20)
(1.18537 0.0848449 0)
(0.550762 -0.047746 -9.69852e-21)
(1.18836 -0.00641789 8.46182e-20)
(1.08789 -0.0205404 -1.50885e-20)
(0.516008 -0.0409247 0)
(1.05649 0.031445 5.16932e-21)
(-0.068788 -0.00829079 0)
(0.999973 0.00209482 -1.40353e-20)
(1.00047 0.00399197 1.02634e-21)
(1.06285 -0.0878111 4.63936e-20)
(0.657448 -0.0604267 3.2811e-20)
(0.376727 0.236812 -3.50534e-20)
(1.05704 0.0300872 5.46035e-21)
(1.01242 0.0526422 3.96268e-21)
(0.992913 0.00218314 1.53796e-20)
(1.07751 -0.0328626 0)
(0.0780234 0.171511 -9.97357e-21)
(1.08638 -0.0507502 2.20503e-20)
(1.05624 0.0559984 1.29926e-20)
(1.10085 -0.0536843 3.09563e-21)
(1.1297 -0.00472554 0)
(1.01339 0.0262508 -1.23141e-22)
(1.16686 0.477483 -1.0424e-19)
(1.08569 -0.0502965 -1.85868e-20)
(1.0795 -0.0544365 3.07683e-20)
(1.00408 0.018997 0)
(1.18389 -0.0109242 -6.61926e-20)
(1.05363 0.0270027 2.45989e-20)
(-0.00838972 0.0460979 -2.00983e-19)
(1.14087 0.144637 -1.31385e-20)
(1.00109 0.277979 -2.42877e-21)
(1.09395 0.0435212 -2.48969e-21)
(1.00761 0.00280511 5.24937e-24)
(1.0274 0.00650921 3.01586e-21)
(1.0341 0.0283432 -3.12594e-21)
(0.966187 0.347529 1.6993e-21)
(0.889837 0.0161215 0)
(1.24473 0.0464925 9.7232e-20)
(0.474002 0.804542 -6.86702e-20)
(1.12403 -0.0120291 -6.65085e-20)
(1.00856 0.00489719 0)
(1.19231 0.000841859 3.88076e-22)
(0.373805 0.267274 2.33062e-20)
(1.11639 -0.0766239 0)
(1.03936 0.00448976 1.32677e-20)
(0.899301 0.029252 -1.28688e-20)
(1.00808 0.0118666 -1.05394e-22)
(1.07415 -0.0149004 -2.27957e-20)
(1.07104 0.0442631 4.48428e-20)
(0.313447 -0.0399446 -9.1663e-20)
(0.999851 0.00215314 0)
(1.23559 0.494388 4.85569e-20)
(1.07537 -0.0121834 -2.71888e-24)
(1.10535 -0.0592748 -6.45672e-21)
(1.16779 0.139982 -7.99739e-20)
(-0.0974418 -0.0134535 2.84581e-20)
(1.02361 0.275898 -1.98288e-20)
(1.00734 0.044218 2.98685e-21)
(-0.0020458 -0.0193548 -8.07362e-20)
(-0.256951 -0.000139779 7.56963e-20)
(1.00529 0.0338656 6.51501e-21)
(1.0641 -0.000255267 0)
(1.19866 -0.0679637 5.69948e-20)
(1.23794 0.105948 0)
(1.15562 -0.0261047 8.19722e-20)
(1.00016 0.000374194 -2.55621e-21)
(1.0367 0.0370715 -9.15696e-21)
(1.19201 0.308709 4.54317e-20)
(1.06396 -0.00748883 -3.38722e-21)
(1.15148 0.0103018 -6.11713e-20)
(1.10184 -0.0350852 -3.77269e-20)
(1.02806 0.00638889 0)
(1.10841 -0.0234284 0)
(0.629676 -0.0723779 -1.28072e-20)
(1.03891 0.00298558 -1.33877e-20)
(1.05207 -0.00550155 5.97298e-21)
(1.00435 0.00250003 -5.98471e-22)
(0.125672 -0.00850708 0)
(0.999951 0.000942563 0)
(0.98266 0.0811414 0)
(-0.279346 0.000644561 0)
(0.991883 0.0662927 -1.47611e-20)
(0.718347 -0.0592857 0)
(1.07279 0.0653764 2.35748e-21)
(0.830799 0.0707825 0)
(1.00468 0.00262231 2.53131e-21)
(1.02014 0.211132 1.06846e-21)
(1.00038 0.0118357 9.20344e-21)
(1.14893 0.0722977 0)
(1.0073 0.0016812 -7.94229e-23)
(1.08097 0.256351 2.5099e-20)
(1.05524 0.0064967 -9.31591e-21)
(0.269473 0.156403 0)
(0.435303 0.679981 4.80465e-20)
(0.18676 -0.038726 -3.4775e-20)
(1.01061 0.000408149 -3.30834e-22)
(0.999637 0.00260065 4.18107e-21)
(1.15918 0.115904 6.8363e-20)
(1.12134 0.111535 7.56795e-23)
(0.0780473 -0.0120231 -4.83628e-20)
(0.304916 -0.0501238 0)
(1.13704 0.0236236 -1.14591e-20)
(0.992472 0.0103912 0)
(1.23191 0.0156817 -2.32306e-20)
(0.343745 0.211891 0)
(1.07772 -0.0549213 -3.39572e-20)
(1.23968 0.0493458 -8.89352e-20)
(1.12815 0.00993255 4.09319e-20)
(0.590806 -0.0452231 0)
(1.08299 0.128155 1.15902e-20)
(1.07594 -0.0315449 0)
(1.199 0.0233773 -7.53471e-20)
(0.855457 0.417026 -2.01874e-20)
(1.13545 0.0255454 1.06385e-20)
(0.304861 0.288305 -2.64865e-19)
(1.13586 0.0316231 0)
(1.05753 -0.00410436 9.15907e-21)
(1.1216 -0.0332226 -2.74406e-20)
(1.00493 0.106144 -5.38574e-21)
(1.03285 0.00537317 1.09421e-20)
(1.07408 -0.0139938 2.13101e-20)
(1.10875 0.119129 -3.30034e-20)
(1.04843 0.0951438 5.65631e-21)
(0.999255 0.0116722 -1.16466e-20)
(1.00657 0.000506607 1.39392e-22)
(1.12698 -0.00884742 8.08175e-20)
(1.06105 0.0117763 1.76405e-20)
(1.15444 0.0117146 6.66631e-20)
(0.993176 0.0100993 1.81648e-22)
(0.995089 0.00776564 -8.23273e-21)
(0.999962 0.000746041 0)
(1.02275 0.0619875 1.00006e-22)
(1.02302 0.00143831 -1.93636e-21)
(1.04684 0.0811631 -5.06014e-21)
(1.00385 0.0026435 -3.86115e-22)
(-0.150715 -0.00790772 1.09208e-19)
(1.08616 -0.0401936 -8.66409e-21)
(0.469962 -0.288824 0)
(1.01188 0.00513003 1.9442e-21)
(1.00006 0.00161503 0)
(0.801667 0.140543 -4.7265e-20)
(1.15415 0.0623282 0)
(0.953294 0.000875047 -1.58298e-20)
(0.844846 0.00558397 5.53309e-21)
(1.13089 0.193785 -1.86176e-21)
(1.04446 0.115464 4.68801e-20)
(1.07536 -0.0131275 0)
(1.1793 -0.00115459 5.32757e-20)
(1.04991 0.0158807 1.5069e-20)
(0.999908 0.00101828 -3.90939e-22)
(1.00544 0.00220646 -4.28323e-22)
(1.03415 0.0569249 -2.03837e-21)
(-0.308323 0.00290332 0)
(1.00005 0.00137283 0)
(1.19955 -0.0494503 2.79357e-20)
(1.04815 0.0835338 6.86993e-21)
(-0.186924 0.0264542 -7.51034e-20)
(0.965351 0.22043 6.72551e-21)
(1.138 0.19178 3.83357e-20)
(1.10428 -0.0585196 0)
(1.0204 0.00644968 -3.2815e-21)
(1 4.35715e-05 0)
(1.08722 -0.0405069 -8.20791e-22)
(0.988059 0.00208837 -2.09194e-20)
(0.984542 0.0411728 -5.65022e-21)
(0.984989 0.00527474 -3.86662e-20)
(1.01209 0.0563914 -4.05996e-21)
(0.998608 0.000419195 -1.30926e-21)
(1.08287 0.0539665 -1.43562e-20)
(1.00603 0.00752934 -7.74928e-22)
(1.01638 0.00091223 1.9749e-21)
(1.05485 0.0903628 -7.69089e-21)
(0.884966 -0.027194 -6.48482e-20)
(0.0570614 -0.00761699 7.6511e-20)
(1.07844 0.108621 0)
(1.03891 0.00249481 -7.87905e-21)
(1.00893 0.000941098 2.37509e-22)
(0.102874 -0.034922 4.71324e-20)
(0.951829 0.355149 4.00922e-22)
(1.00109 0.0407047 2.71719e-21)
(1.01695 0.0422352 1.31891e-22)
(0.93761 0.00932072 0)
(1.19803 -0.0701664 8.39971e-20)
(-0.288687 -0.00184098 -2.34853e-20)
(0.893967 0.132222 1.56838e-20)
(1.05838 -0.00336426 4.94384e-21)
(1.01156 0.00310083 8.28088e-22)
(1.0166 0.00107376 -1.07307e-21)
(1.08856 -0.0312493 -2.48144e-20)
(1.08301 0.109644 0)
(1.11798 -0.0717403 3.88523e-20)
(0.917387 0.0162974 2.32265e-20)
(0.175443 -0.0232712 0)
(1.02712 0.041943 4.33587e-21)
(0.964124 0.056722 -2.24696e-20)
(-0.298007 0.00146923 0)
(0.995278 0.00925334 7.16059e-21)
(1.08668 0.01677 -2.55247e-20)
(1.00427 0.0304069 -6.72293e-21)
(1.00196 0.00122462 1.98262e-21)
(1.10162 0.124483 3.07532e-20)
(0.773589 -0.0121502 -4.95532e-20)
(1.04744 0.0275702 0)
(0.68275 -0.0599138 0)
(0.334729 -0.00856461 -1.73984e-20)
(1.17203 0.135197 -3.73017e-20)
(1.00166 0.0169954 0)
(1.02476 0.00300113 -5.37051e-21)
(1.0902 -0.0512762 4.37171e-20)
(1.21534 -0.0458552 -2.76008e-20)
(1.00007 0.000421942 -4.49657e-23)
(1.22424 -0.0455329 -5.0068e-20)
(1.02427 0.00313985 -2.48697e-21)
(1.10529 0.114137 0)
(1.03383 -0.000740373 -2.8562e-21)
(1.03389 0.00703558 -1.29469e-20)
(1.21293 -0.0231851 -1.01772e-19)
(1.03881 0.0161887 1.72115e-21)
(1.01762 -0.0517957 7.55864e-21)
(1.11059 0.0875329 0)
(0.999956 0.000682082 3.91758e-21)
(1.01987 0.00358346 6.12005e-21)
(0.981221 -0.000366954 2.10005e-20)
(1.00902 0.0196394 2.62598e-22)
(1.05162 -0.00457493 -5.51514e-21)
(0.27339 0.682915 0)
(1.03767 0.00474485 -3.04774e-21)
(1.03011 0.0107363 0)
(0.383274 -0.0632311 1.56626e-20)
(0.621278 -0.0698272 -6.13065e-20)
(1.08909 -0.0217931 0)
(1.1161 0.112784 -3.00008e-20)
(1.14451 0.00181213 3.15608e-20)
(1.07434 0.024557 -9.43247e-21)
(1.02372 0.0142818 2.15636e-21)
(0.887636 0.00880798 3.92625e-20)
(-0.118558 -0.0109208 2.79439e-20)
(1.0906 0.257627 -1.78196e-20)
(0.998205 0.00476569 0)
(1.03418 0.0362562 -6.32665e-21)
(0.337737 -0.0531413 -3.72375e-20)
(1.10994 0.0200525 3.1812e-20)
(-0.0949924 -0.00984589 6.9531e-20)
(0.999956 0.000893933 0)
(0.950876 0.00163237 -4.97438e-22)
(0.107486 -0.00687121 0)
(1.1026 0.014428 0)
(1.0495 0.0262411 0)
(-0.302529 0.0043957 1.28818e-19)
(0.212782 0.234653 -1.19171e-19)
(1.00929 0.0191284 -2.37362e-22)
(1.1949 0.0246209 -6.65631e-20)
(1.00575 0.00231981 2.27007e-22)
(1.0377 0.0161444 -3.02395e-21)
(1.01224 0.00539992 1.01038e-21)
(-0.112666 -0.0140987 0)
(1.02265 0.00128789 7.37678e-23)
(1.03837 -0.00259382 7.37462e-21)
(1.02426 0.0138765 -6.67182e-21)
(0.969662 -0.0519648 0)
(1.06062 -0.010836 6.80339e-21)
(1.23258 0.151605 1.06053e-19)
(0.701359 -0.098227 7.63818e-20)
(1.03446 0.00530017 2.54447e-21)
(0.844455 0.0235929 1.32691e-20)
(1.00051 0.00352828 0)
(-0.133035 -0.00801974 0)
(1.00517 0.00999679 0)
(1.03833 0.00424404 0)
(0.998658 0.000930084 -5.19256e-21)
(1.0908 -0.0518929 -6.14415e-20)
(0.998489 0.000761588 0)
(1.18731 -0.0103977 6.6833e-20)
(0.339293 -0.00391736 8.67361e-21)
(0.745792 -0.0762954 -2.48026e-20)
(0.904157 0.0298066 -2.57284e-21)
(1.10581 -0.0738279 3.34663e-20)
(-0.253589 -0.000757029 -4.63392e-20)
(0.996038 0.025983 -1.60468e-20)
(0.164442 -0.0051547 -1.16775e-20)
(0.442329 0.0440422 -7.88739e-20)
(-0.231462 -0.00107594 4.63492e-20)
(0.370758 -0.0215115 -1.62809e-20)
(0.363134 -0.0622237 0)
(0.124322 0.177181 0)
(1.18891 0.00208698 4.57001e-22)
(1.00931 0.0468318 -1.94645e-21)
(0.535373 -0.0459249 0)
(1.10203 0.0163671 -9.97107e-21)
(0.478672 -0.0525991 3.33997e-20)
(1.02897 0.00476333 -9.59574e-21)
(1.02291 0.0225879 4.22011e-21)
(1.00249 0.0416864 0)
(1.00054 0.00380147 0)
(1.07907 0.020205 -3.53994e-22)
(0.890487 0.0882196 2.37985e-20)
(0.128081 -0.0149318 0)
(1.02276 0.0216488 0)
(0.993754 0.00303422 -2.20162e-20)
(-0.218181 0.019745 -7.26066e-20)
(0.971237 0.446239 1.31444e-22)
(0.981399 -0.00163221 -1.03297e-20)
(0.81193 -0.057239 -4.45883e-20)
(1.09011 0.0558921 -3.74817e-20)
(1.04353 0.0216785 -4.82583e-21)
(0.49799 0.716676 0)
(0.80566 -0.0520117 4.59768e-20)
(0.951152 0.0486868 -1.97881e-20)
(1.06098 -0.0101665 6.8176e-21)
(0.312907 -0.00499331 1.82643e-20)
(-0.282591 0.00192652 0)
(0.222496 0.056667 0)
(1.03339 -0.000320653 -5.51969e-23)
(1.23861 0.138125 0)
(1.19354 0.0788311 -1.49707e-20)
(-0.215454 0.00598657 0)
(0.426721 -0.0578295 0)
(1.08522 -0.0465591 3.1213e-20)
(1.01461 0.0256157 0)
(1.05087 0.0165942 1.61774e-20)
(1.02574 0.0422536 1.67822e-21)
(1.01946 0.000117102 0)
(1.02534 0.063099 -3.27508e-22)
(1.0168 0.00170582 3.79081e-23)
(1.04371 0.0913406 -3.49285e-22)
(1.0789 0.12796 -8.77121e-21)
(-0.0445569 0.0293706 -4.58982e-20)
(1.14427 -0.0422443 0)
(1.03879 -0.00209152 -7.8357e-21)
(1.17593 -0.00214162 0)
(-0.0581795 -0.02037 0)
(1.09833 0.119402 0)
(0.971932 0.0220086 0)
(-0.0782914 -0.00657108 0)
(1.02941 0.0196229 -1.13044e-20)
(0.985432 0.0392092 3.51334e-22)
(0.817176 0.0598758 3.55088e-20)
(-0.00513084 0.0367016 0)
(0.998423 -0.000639956 -1.52417e-20)
(1.00365 0.0192841 -2.50594e-21)
(0.509691 -0.0619746 0)
(1.10009 -0.0719324 4.11656e-20)
(1.18234 -0.0733814 -9.27101e-20)
(1.15783 -0.0195188 2.20929e-20)
(1.10571 -0.0727865 -2.40689e-20)
(1.00723 0.0184127 -2.99288e-21)
(1.19954 0.00107233 1.29622e-21)
(0.970968 0.0238483 0)
(1.00331 0.0103902 -2.84247e-21)
(0.968865 0.0197768 -1.69539e-20)