/*--------------------------------*- C++ -*----------------------------------*\
| =========                 |                                                 |
| \\      /  F ield         | OpenFOAM: The Open Source CFD Toolbox           |
|  \\    /   O peration     | Version:  v2012                                 |
|   \\  /    A nd           | Website:  www.openfoam.com                      |
|    \\/     M anipulation  |                                                 |
\*---------------------------------------------------------------------------*/
FoamFile
{
    version     2.0;
    format      ascii;
    class       volVectorField;
    location    "550";
    object      ddtCorrDdt0(U);
}
// * * * * * * * * * * * * * * * * * * * * * * * * * * * * * * * * * * * * * //

dimensions      [0 1 -2 0 0 0 0];


internalField   nonuniform List<vector> 
13851
(
(-0.00370127 0.00257271 -2.2417e-18)
(-0.00884171 -0.0877511 6.91469e-20)
(0.00959574 -0.0123391 2.16349e-18)
(-0.00280786 0.00291683 -6.27403e-19)
(0.0268998 0.0108354 -5.60969e-18)
(0.0434809 0.0164462 -2.53166e-19)
(-0.000285943 -0.00014757 -1.40097e-18)
(0.00834486 -0.00150091 1.28731e-18)
(-0.000414741 -9.77653e-06 -4.76238e-20)
(-0.00173107 0.00495693 1.73069e-19)
(-0.0464116 0.00615862 -1.1084e-19)
(-0.246683 0.196243 1.15129e-17)
(-0.101084 0.0879477 2.25871e-17)
(0.00167871 0.0512566 2.4836e-18)
(-0.000299014 -1.72552e-05 -4.94139e-18)
(0.00410355 -0.00315438 2.58766e-18)
(0.00176966 7.05393e-06 5.17141e-18)
(-0.0049145 -0.00528691 5.19577e-19)
(-0.0788902 0.0802522 2.79064e-18)
(-0.000404273 -4.00676e-05 2.19006e-19)
(-0.00257085 0.00267685 1.5779e-19)
(0.0123121 -0.011595 1.31391e-17)
(-6.98752e-05 3.80245e-07 -1.16622e-20)
(-0.000200113 6.92537e-06 -2.90102e-19)
(-6.40667e-05 1.77717e-06 4.98299e-21)
(0.00791257 -0.00204533 3.50464e-18)
(0.000344706 0.00134866 -4.58005e-18)
(-0.0013602 -0.0103606 9.05044e-19)
(-0.00365708 0.0020924 2.15136e-18)
(-0.00142195 -0.00331244 3.75495e-19)
(0.0521066 0.00386115 7.1162e-19)
(0.00195334 6.77182e-05 3.17352e-18)
(0.00805234 -0.0110512 -3.97481e-18)
(0.023411 0.0698178 -5.12716e-19)
(-0.00019718 4.02492e-06 8.89918e-19)
(-0.0433287 0.032191 2.12559e-18)
(-0.0199527 0.0229843 -2.52741e-18)
(0.0730637 -0.0577193 -5.49759e-19)
(-0.00484033 0.00618735 -1.71987e-19)
(0.0113744 0.0814484 -1.27687e-19)
(-0.000966214 5.438e-05 1.57644e-19)
(-5.25409e-05 -0.000103682 -3.60613e-21)
(-0.00139576 -0.00387269 2.91208e-17)
(-0.0487295 0.00804528 1.45583e-20)
(-0.0469572 0.00542426 -1.64746e-20)
(-0.0284927 0.0108342 -3.50474e-17)
(-0.0194525 -0.00906681 2.43644e-22)
(0.0555446 0.0910793 -9.77851e-19)
(0.000347138 0.00148986 5.70697e-18)
(0.028606 0.00776047 -6.10008e-19)
(0.00545794 0.0274928 -7.06918e-18)
(0.0293156 0.0548502 -2.02584e-17)
(3.53503e-05 -0.00977536 1.38414e-17)
(-0.000324067 -1.06022e-05 4.48005e-18)
(-0.000483413 -1.06628e-05 1.72072e-18)
(-8.56414e-05 -0.000140832 -1.21531e-20)
(-9.72942e-05 2.9524e-05 4.1979e-20)
(0.00375362 -0.00767884 9.66094e-19)
(-0.00153154 -0.00312117 -6.25597e-19)
(-0.000266014 -2.92159e-05 -1.12493e-18)
(0.0658592 -0.0630937 -1.44085e-18)
(-0.131529 0.0167695 -1.96927e-18)
(-0.0070035 -0.0124153 -1.78604e-18)
(0.0335087 0.0173499 -1.63504e-17)
(-0.0218336 -0.0351723 -2.33026e-19)
(-0.00449399 0.00519168 2.66401e-19)
(-0.0196239 0.020313 -1.8896e-17)
(-0.00348579 -0.0143134 -1.01845e-20)
(0.00209475 0.00639358 1.04448e-17)
(-0.00527376 -0.00510143 3.61848e-20)
(0.0663118 -0.00708011 -1.38505e-17)
(-0.0096612 0.00976925 -5.19477e-19)
(-0.00816065 -0.1063 -3.61752e-19)
(-0.000334235 -1.51189e-05 6.94394e-18)
(-0.000530689 -5.54044e-06 3.28517e-18)
(-0.000906185 7.39689e-05 -4.53152e-19)
(0.0130015 -0.00988856 -3.69042e-18)
(-0.00824851 0.00219788 -2.49985e-17)
(0.0102789 0.00711095 -6.36967e-18)
(0.0718251 -0.00775184 2.33976e-17)
(-0.000123248 7.78696e-05 -2.54385e-18)
(0.00887591 -0.0476967 3.93639e-20)
(-0.000326111 -8.94724e-05 -4.25785e-18)
(-0.0123546 0.00648099 5.93197e-18)
(-0.0053828 -0.0115582 -3.6299e-19)
(-0.261569 0.235297 -1.13819e-17)
(0.0217584 0.00549299 5.46522e-19)
(0.0461719 -0.102306 -8.0654e-18)
(0.001619 0.0013018 2.79778e-18)
(-0.00154136 -0.00164332 -2.22897e-20)
(-0.0444938 0.0344354 3.59425e-18)
(0.00669682 0.000718826 5.84456e-22)
(-0.000119516 -0.0101585 -1.35965e-19)
(0.00236768 0.00229806 -2.13315e-18)
(0.00140644 0.00134709 2.58094e-18)
(-0.000150227 1.49615e-05 -8.94955e-20)
(0.0283753 0.0135223 -3.0301e-18)
(-0.0716669 0.0530961 2.24305e-18)
(0.0287163 0.00326924 1.73071e-18)
(-0.000142683 1.10865e-05 5.39928e-20)
(0.0168428 -0.0974028 3.52758e-18)
(0.00785481 0.0129227 7.0778e-19)
(-0.00253916 -0.000565784 -5.92477e-19)
(-0.00101567 0.000751662 -1.27434e-17)
(-2.77241e-05 2.27675e-06 1.01571e-21)
(0.0153544 -0.00394432 8.94345e-20)
(0.00717789 0.0169901 -3.12323e-18)
(-0.000123772 -3.92877e-05 1.48976e-20)
(-0.00031567 0.00251718 2.11917e-17)
(0.0419126 0.0297947 -6.3946e-19)
(-0.000198938 6.52109e-06 1.02401e-19)
(-0.00152114 -0.00191662 -4.20846e-20)
(0.00622868 0.000449458 -5.24254e-21)
(-0.000134612 2.10286e-06 -3.02052e-19)
(-0.000208306 6.46658e-06 4.58238e-20)
(0.0621691 0.0898662 1.65717e-19)
(-0.0755368 0.0572018 4.69582e-19)
(-2.26383e-05 1.42357e-05 -2.33977e-20)
(-0.00031604 2.63457e-05 3.3328e-20)
(-0.000510724 1.76574e-06 -1.80167e-18)
(-0.00189454 -0.00431101 6.27473e-18)
(-0.000876696 0.000793645 1.11037e-17)
(-0.104666 0.0852199 -1.54406e-17)
(0.0421954 -0.0793857 1.35435e-18)
(0.0629245 0.0531911 2.75635e-19)
(0.00495432 0.00185596 4.43408e-20)
(0.0735851 0.00643685 1.01056e-19)
(0.0095295 0.00987972 1.25142e-18)
(-0.00206757 0.00279362 8.83784e-19)
(0.0574172 0.000743562 1.20573e-18)
(-0.000924708 3.18333e-05 7.75733e-19)
(-0.000182015 8.17662e-05 6.91743e-19)
(0.0659032 -0.00632557 1.39784e-17)
(-0.000313068 -6.69489e-05 4.32066e-18)
(0.0543909 0.0919599 4.91552e-20)
(-0.000188293 5.04975e-05 3.66399e-19)
(-1.99068e-05 1.7361e-05 8.37677e-21)
(-0.0142971 0.0139449 -2.40801e-17)
(-0.049238 0.0149085 -1.15266e-18)
(0.0578675 -0.0346869 -2.16312e-19)
(0.0156369 -0.0852269 4.85468e-18)
(-0.000484526 -9.46516e-06 -2.98385e-18)
(-0.00468728 -0.00216199 3.1515e-20)
(0.000854181 -0.000387867 4.10426e-20)
(0.000694282 -0.000917526 -2.07098e-18)
(-0.0422819 0.00987979 1.52195e-19)
(-0.0192843 -0.00247996 3.10961e-19)
(0.0558383 -0.0049772 -6.38366e-18)
(-0.00027832 -0.000138157 2.94167e-18)
(-0.0493332 0.00910667 -1.63731e-20)
(-0.016972 0.0182631 5.00926e-18)
(-0.000512016 5.00439e-06 -1.91258e-18)
(0.0195772 0.0329646 -8.5146e-18)
(-8.49958e-05 2.76233e-05 1.77967e-20)
(0.000488812 0.000368664 -4.76864e-19)
(0.000594917 -0.00101919 7.06861e-18)
(1.18835e-05 0.000425443 1.39319e-19)
(-0.000851409 -0.00230489 -1.05021e-18)
(0.0349144 0.0542445 4.01838e-19)
(0.00711089 0.0260608 -2.04842e-17)
(-0.00103712 0.000122109 6.04997e-21)
(0.000652961 0.00333318 -1.40813e-17)
(0.00279288 -0.00819846 7.82343e-19)
(-0.000180398 6.35732e-05 -4.53586e-19)
(-4.34848e-05 -0.00521059 8.95444e-19)
(0.000331627 -0.000238247 -1.81329e-20)
(-0.0197565 -0.00593205 -4.11601e-19)
(0.00172799 0.00685057 -8.0175e-18)
(-0.00195636 0.00252138 3.50966e-19)
(-0.0950275 0.0362772 3.32545e-17)
(-0.00546393 -0.000369444 2.6206e-17)
(-0.000155566 8.84283e-05 8.00356e-20)
(5.1495e-06 0.000461457 -6.88769e-19)
(0.0499632 -0.0254037 6.93728e-20)
(-0.000176088 5.86932e-05 -7.41867e-19)
(0.0326013 0.139227 3.49311e-18)
(0.00938705 0.00891709 5.23445e-18)
(-0.00245788 -0.00331663 2.17785e-20)
(-0.0974696 0.088095 -1.31087e-17)
(-0.000224975 -7.8959e-05 -2.55626e-20)
(0.00233811 -0.000123776 -5.9146e-19)
(-0.0104369 0.010448 1.68521e-17)
(-0.000303272 -3.29362e-05 1.1838e-18)
(0.0142471 -0.0130101 -1.28724e-17)
(-2.1125e-05 2.11212e-06 7.73994e-22)
(-4.11994e-05 -1.10765e-07 2.35473e-20)
(-0.0052085 0.00476481 -3.15188e-19)
(-0.000488911 -9.89403e-06 1.98631e-18)
(0.0338828 0.00472427 7.07146e-18)
(0.020622 -0.00395416 -4.32259e-19)
(-0.0128507 -0.0101968 2.20942e-19)
(0.000418248 -0.0098094 8.57475e-18)
(-0.00198442 -0.00250333 3.47913e-20)
(0.00381105 0.00543092 5.04775e-18)
(-0.133814 0.0157168 -3.70096e-18)
(0.000451522 0.000218726 -7.53435e-19)
(-0.00424842 -0.00166514 -1.35877e-20)
(-0.0335014 0.0516132 -1.34434e-18)
(-0.00273675 -0.00294927 -3.86429e-21)
(-0.000971608 9.55583e-06 1.63375e-19)
(0.00499991 0.0024856 6.16365e-21)
(-0.0821367 0.0201399 3.28158e-17)
(-0.000376505 9.38414e-06 -2.84856e-19)
(-0.000522926 -0.000270376 -8.191e-20)
(0.0110771 0.000537624 -9.74735e-19)
(-0.000304673 -3.52823e-05 3.811e-19)
(-0.0631801 -0.0687971 6.95773e-18)
(0.00179078 0.00048729 1.13832e-18)
(0.0355335 0.00579479 -5.5808e-18)
(-0.000505818 -4.42595e-05 -1.0424e-20)
(-0.000383838 0.0247446 3.74229e-17)
(-0.00236131 -0.000511658 -4.0001e-20)
(-0.0179842 0.00823902 -1.29207e-19)
(-0.000191053 -3.01886e-05 -1.24274e-20)
(0.000540021 -0.000435613 -1.81463e-20)
(-0.0118589 -0.00997609 1.92389e-19)
(-0.00552176 -0.0091818 6.28292e-19)
(-0.0213726 0.00316965 -1.7674e-18)
(-0.000286617 -2.06714e-07 1.25775e-18)
(0.0322673 0.0078452 1.83921e-17)
(0.00192819 0.000435948 -1.067e-17)
(-0.000115231 0.000102712 -6.46619e-18)
(-0.0500786 0.0544114 1.80298e-18)
(0.0492174 0.0340958 -2.66372e-19)
(0.0237644 0.00949519 -2.83621e-17)
(-5.44343e-05 1.1883e-06 1.85789e-20)
(0.00322909 0.00288909 -3.77801e-19)
(-3.43533e-05 1.27341e-06 -4.44428e-21)
(-0.000727186 -0.0114454 -6.48624e-18)
(-0.000232609 -2.98949e-05 7.67148e-21)
(0.00725305 -0.00202461 -4.03826e-18)
(-0.0255741 0.00579755 -2.79249e-18)
(-0.000162702 8.14598e-05 1.18554e-20)
(-0.00202885 -0.00216448 2.48817e-20)
(0.00109155 0.0229844 -2.31513e-18)
(-0.00542898 -0.00922966 2.1745e-19)
(-0.0778403 -0.069899 -9.59426e-18)
(-0.0226466 -0.0404907 -1.73779e-18)
(0.000774118 -0.0004567 -3.66393e-20)
(-0.000513231 -0.000273626 -2.22262e-18)
(0.0460078 -0.00656711 -5.93262e-19)
(-0.00318775 -0.0308307 2.2605e-20)
(-0.00319491 8.7241e-05 1.26661e-20)
(0.0120792 0.00210222 1.00562e-18)
(-1.73073e-05 2.62201e-06 -2.02416e-21)
(0.029585 0.0103745 -3.41633e-17)
(0.0092609 0.0128889 1.16455e-18)
(0.0151527 0.0512171 2.47136e-19)
(0.000515842 -0.00131134 4.96116e-18)
(0.0019123 -0.00172405 5.74754e-18)
(0.0024835 -0.00473877 8.88448e-20)
(-0.0131706 -0.0310135 -6.37634e-20)
(-0.000126815 -0.000428064 -4.72652e-18)
(0.000627117 -0.00121002 -7.33571e-18)
(-0.000365727 0.0162427 3.5441e-18)
(0.00471679 -0.0537692 -1.60878e-18)
(0.0191316 -0.00682267 1.53523e-19)
(-0.0148341 0.0145989 -2.11125e-18)
(-0.0496695 -0.00379442 -5.29066e-17)
(-0.000290037 -4.71001e-05 -1.71359e-17)
(0.000626071 -0.000389349 8.43234e-20)
(-0.00549265 -0.00423091 2.26666e-20)
(-0.0384128 0.0973678 1.6029e-18)
(0.0016397 0.00108804 1.49319e-20)
(-0.110034 0.0752599 8.35441e-18)
(0.000482324 0.000137489 1.49671e-19)
(-0.000128494 -0.000370756 2.63409e-18)
(0.00212256 0.00220411 -1.78577e-18)
(-0.0555783 0.0585025 6.96124e-18)
(-0.0123406 -0.0170901 -1.65166e-19)
(0.00217301 -0.00519629 -7.63101e-20)
(0.000540699 0.000290003 6.36519e-18)
(0.0155173 0.0844117 -1.79028e-18)
(0.0091515 0.00674399 -3.16707e-18)
(0.00383712 -0.00337965 -6.17827e-19)
(-0.000181582 8.8913e-05 -2.87383e-19)
(0.00965407 -0.0402149 3.72543e-19)
(0.00622381 -0.00453786 1.55041e-20)
(0.0271275 -0.00133146 2.11831e-17)
(-0.0420467 0.00176406 -5.67855e-20)
(-0.00344714 0.000433035 -4.07877e-20)
(-0.000404641 1.35284e-05 -6.63489e-22)
(-2.41631e-05 2.01644e-06 -4.2038e-22)
(-0.000566057 0.0151539 1.74914e-17)
(-0.0397162 0.0554069 -3.41321e-18)
(-0.00122083 0.191968 3.67651e-18)
(-0.000629757 -5.82625e-05 -7.30804e-20)
(-0.000277966 -7.22891e-05 3.63654e-18)
(0.0266006 0.053411 1.61057e-18)
(0.00668382 -0.0239214 4.16929e-21)
(0.0743815 -0.0108879 -2.63985e-19)
(-0.00131254 -0.00286646 1.90317e-19)
(-0.000250316 -1.97541e-05 -1.77824e-18)
(0.00374262 0.00708456 2.89401e-18)
(0.0078598 -0.0358136 -1.70838e-19)
(-0.104385 0.0799835 -1.20011e-17)
(0.000498152 -0.00452433 1.58966e-18)
(-0.254592 0.294956 8.62806e-18)
(-0.000177864 0.00010985 -5.18182e-19)
(0.0254466 0.012351 7.15586e-18)
(0.000517768 0.00313167 3.31158e-18)
(0.00172553 -0.000213943 2.5071e-18)
(0.0246485 0.001809 1.34482e-17)
(-0.00126086 -0.000758615 2.08978e-18)
(0.0194906 -0.0031462 -1.69933e-19)
(-0.0138799 0.0341937 4.41099e-19)
(-0.00056601 -6.08827e-05 -2.74822e-20)
(0.00097816 0.0117758 -2.02104e-17)
(0.00262394 0.0021266 7.28008e-18)
(-0.00137854 -0.00268593 -2.19858e-18)
(-0.0589547 0.0109841 7.49574e-19)
(0.000515421 -0.00475562 2.19226e-18)
(-0.000247408 -0.000556147 3.00529e-18)
(-0.0593194 0.0561762 2.3118e-17)
(2.85406e-05 -0.000141968 -7.41241e-22)
(0.00208543 -0.00169409 -6.82864e-18)
(0.00601412 0.0039568 -4.54494e-20)
(0.0213301 -0.000610479 -1.39783e-17)
(-0.0277738 0.031416 -3.34293e-18)
(-0.000290522 8.36112e-07 -2.06253e-18)
(0.00520396 0.0153771 -1.07993e-17)
(-0.000298284 -2.05146e-05 -2.52085e-18)
(-0.0554658 -0.00185948 1.90319e-17)
(0.0032252 -0.00554518 -1.66829e-20)
(-6.3792e-05 -5.24022e-07 -2.81336e-21)
(0.000491298 0.000459399 -7.88933e-19)
(-0.0255644 0.0325697 8.30874e-18)
(0.00290816 0.00269582 1.0667e-17)
(0.000363069 0.000417944 3.82045e-18)
(-0.000272325 -7.71106e-05 -1.29337e-19)
(-0.00118138 -0.000718839 2.32077e-18)
(-0.000292676 -0.000572841 -6.86095e-18)
(-0.0519979 0.00771108 2.07185e-20)
(0.0478013 -0.0809415 -2.15031e-17)
(-0.0993642 0.0360596 2.92755e-18)
(-0.00822843 -0.00536498 3.3415e-20)
(0.0189942 0.00230922 7.60386e-18)
(-0.134686 -0.024575 1.17573e-18)
(-0.00029777 -1.80699e-05 -2.0747e-18)
(0.00439097 0.0053419 1.01177e-17)
(0.0756159 -0.0201819 -4.71943e-19)
(0.00625503 0.00216977 5.43985e-20)
(-0.00809752 -0.00903767 -1.72996e-18)
(0.0148017 0.0501941 -8.31403e-18)
(-0.0897263 0.0777896 -2.85097e-18)
(0.00385808 -0.00134384 3.32241e-20)
(-0.0508596 0.0256799 -9.27806e-19)
(0.00473962 0.0242899 -1.36381e-17)
(-0.000310283 -2.25292e-05 5.25361e-18)
(0.00166689 0.0375955 2.12678e-19)
(0.00528427 0.0350883 -8.2956e-19)
(-0.0172436 -0.0650601 1.90668e-19)
(0.000312048 0.000454156 4.20719e-18)
(-0.00928885 -0.00904355 -6.60881e-19)
(3.34237e-05 -0.0116626 1.29683e-17)
(4.362e-05 0.000490421 6.9468e-20)
(-0.0514884 -0.0116953 4.21843e-19)
(0.0004842 0.000392818 7.11927e-19)
(-0.000294087 -2.05223e-05 2.34012e-18)
(-1.29742e-05 2.81578e-06 2.78706e-21)
(-0.000154303 -4.80128e-05 -1.8239e-21)
(-0.000101935 0.000395251 -1.52273e-18)
(0.0002238 0.0270914 -8.96376e-19)
(-0.00138976 0.00817739 -1.58297e-20)
(-0.000579692 -0.000387643 -3.15002e-18)
(0.000759553 0.0107752 3.32503e-20)
(6.36987e-05 -0.000279407 8.40624e-20)
(-0.239879 0.332589 -2.02822e-17)
(0.00517177 -0.00511794 -2.9142e-18)
(0.00080448 0.23868 -4.39775e-19)
(-0.0920833 0.0383965 -1.51646e-17)
(-0.000617256 -0.00041679 1.65255e-18)
(-0.00492189 -0.00911113 1.68491e-18)
(0.00292689 0.001635 2.32611e-17)
(0.00652834 0.225157 7.05098e-18)
(-0.000796536 0.000125568 3.46212e-18)
(-1.97205e-05 1.37687e-05 9.64186e-21)
(0.00492478 -0.00314425 7.61712e-20)
(0.0176828 -0.0939976 9.064e-18)
(-0.000509507 -2.8215e-06 -2.28046e-18)
(-0.0587727 0.000445873 -8.80459e-19)
(0.00690118 0.00182017 -4.20082e-21)
(0.0155103 0.0537987 1.94653e-17)
(-0.105567 0.033914 -7.69824e-18)
(-0.0129909 0.0446117 -2.72913e-19)
(-0.013159 0.051242 2.03479e-20)
(1.62698e-05 -0.00580808 -1.0526e-19)
(-0.000217685 0.000188483 -4.46084e-19)
(-0.000344258 -2.14129e-05 -1.52314e-19)
(-0.00798239 -0.00463915 2.09269e-20)
(0.00395629 0.0154744 8.26782e-18)
(0.0345713 0.0653126 -6.19891e-18)
(0.000763841 0.00713836 3.17343e-17)
(0.0176545 0.010985 2.00646e-17)
(-0.00788946 0.031516 4.88035e-18)
(0.000116884 -0.00025843 1.43771e-19)
(-0.000293558 -5.25102e-05 1.13249e-18)
(-0.100054 0.03492 -5.7761e-18)
(0.0682567 -0.00702566 1.15461e-17)
(-0.019621 0.00762792 4.78302e-19)
(-0.0743015 0.0592947 7.72463e-18)
(0.00513871 -0.00357985 1.92858e-19)
(0.00319444 0.00179529 3.14274e-18)
(-7.92598e-05 7.07241e-06 -2.86934e-19)
(-0.119663 -0.0296025 -8.67131e-19)
(-0.000191809 9.86473e-05 2.72714e-19)
(0.00406713 -0.00282795 -1.34898e-18)
(-0.000245313 -0.00551123 7.21369e-20)
(-0.000275163 -4.51415e-05 -3.16236e-18)
(-3.07068e-05 1.42556e-06 -1.56551e-21)
(-0.000533452 -2.60316e-05 3.92536e-19)
(0.000277065 -0.000261858 1.84324e-20)
(0.0308869 0.0199238 -4.71388e-18)
(-0.00622512 -0.0118216 -7.33992e-19)
(-0.0661096 0.0104169 2.59685e-17)
(-0.00621449 -0.00492708 1.4311e-19)
(0.005716 0.0168193 -5.01421e-19)
(0.000453909 0.017938 1.42327e-19)
(-0.0119428 -0.0228192 -2.22286e-20)
(0.00212831 -0.00232429 1.65041e-18)
(-0.0272506 -0.0634088 -2.14385e-19)
(0.00156142 -0.000258537 -1.65017e-18)
(-0.00722846 -0.0106874 1.66129e-19)
(-2.08964e-05 1.48473e-05 8.26719e-21)
(-0.000486986 -2.99182e-05 5.70034e-20)
(-4.86162e-05 6.83228e-07 -2.16639e-20)
(0.058945 -0.0823695 1.87708e-18)
(-0.0435232 -0.009285 -3.37051e-19)
(0.0501273 0.0239269 1.06097e-17)
(-0.00193235 0.0166114 -1.13252e-19)
(-0.0670484 0.00572682 -1.82582e-17)
(0.0200538 0.0631656 4.0924e-20)
(0.0187597 0.00250911 2.94186e-19)
(-0.000513047 3.38449e-06 4.20377e-18)
(-0.000613016 0.0235541 3.6092e-17)
(-0.000765469 0.000104355 -1.39381e-18)
(-0.0184081 -0.0165367 -3.12708e-20)
(-3.20296e-05 2.74232e-06 9.84696e-22)
(-0.0739953 -0.0355489 -4.02961e-18)
(-0.0330301 0.0335933 -4.70534e-19)
(0.00577207 -0.0081138 2.15709e-19)
(0.0265069 0.00587793 6.84742e-19)
(-0.003398 -0.00316013 1.84991e-20)
(0.00502544 -0.00219291 2.01152e-20)
(-0.0410524 0.0347614 3.40517e-19)
(-0.0367684 -0.076446 5.6173e-18)
(-2.86959e-05 1.53774e-06 2.54696e-22)
(0.0038228 0.00204638 -1.82617e-18)
(0.0104596 0.00812298 -1.71998e-18)
(-0.0144608 -0.020056 1.86059e-19)
(-0.000198948 5.90803e-05 -9.2742e-20)
(-0.00036515 -0.000683863 -1.75328e-18)
(-0.0157904 0.0172996 2.5321e-17)
(0.0235681 0.0517438 2.80194e-17)
(-0.00658413 -0.006562 -3.85438e-19)
(-0.0680204 0.406415 -9.67012e-20)
(-5.09056e-05 5.92599e-07 2.56469e-20)
(0.000612658 0.000501826 3.46712e-19)
(-0.00239412 -0.00324317 9.40133e-18)
(-0.000287035 -0.00569253 -5.10829e-19)
(-0.000343073 1.57365e-05 2.4112e-21)
(0.0555711 -0.134345 -3.06745e-18)
(-0.000210792 0.000173183 -1.51369e-19)
(-0.00334439 0.00291411 6.64907e-19)
(-0.000267862 -8.80761e-06 5.80553e-21)
(0.000804738 -0.0104007 -7.5368e-19)
(-0.00114779 -0.00200406 1.76097e-18)
(-0.000433134 -2.52541e-05 -2.75797e-21)
(-0.00367193 -0.00271376 4.49925e-21)
(-0.0668683 0.0614799 -4.50228e-18)
(-0.000325561 -9.30127e-05 1.29884e-18)
(0.00157346 0.00809751 9.5718e-18)
(-0.00019731 6.09152e-05 -1.19992e-18)
(0.00586663 0.00260859 -2.11842e-19)
(0.00429745 -0.0068247 -4.31604e-21)
(-0.000139017 3.42524e-06 -3.98065e-20)
(-0.000619559 0.000560845 -1.31895e-18)
(-0.00020401 4.04925e-06 2.19122e-19)
(-0.000199517 4.33283e-06 -3.51612e-19)
(-0.0169095 0.136724 -3.38657e-18)
(-0.000108828 -0.000259733 -5.41687e-18)
(0.0292917 0.00567854 -3.81228e-19)
(-0.000299585 -1.99842e-05 -5.84415e-18)
(-6.39449e-05 1.07369e-05 2.3675e-19)
(-0.0474436 -0.0713153 -9.763e-18)
(0.0292754 0.00402102 5.79671e-18)
(-0.000299154 -2.10966e-05 3.16501e-18)
(0.00596347 0.00203755 1.22921e-19)
(0.00232837 -0.00211646 -1.16948e-18)
(-0.0017272 -0.0328796 -5.61387e-19)
(-0.0139753 0.00609002 -2.31435e-17)
(0.000605288 0.000578417 1.46902e-19)
(0.000587169 0.0212287 -3.47271e-19)
(-0.000841755 7.04526e-05 -1.55969e-18)
(0.0265471 0.000971798 -7.36604e-18)
(-0.000265025 -1.50594e-05 -7.57831e-18)
(-0.00844873 -0.010461 -1.82154e-17)
(-1.5614e-05 1.1754e-05 3.42201e-21)
(-0.000203077 -0.00963829 -2.54566e-17)
(0.0182727 -0.0128331 -1.04495e-18)
(-2.21083e-05 -0.000106425 1.24869e-20)
(0.00545021 0.00173728 -2.2007e-19)
(-0.0709695 0.0433759 8.53051e-18)
(0.00693399 -0.00246112 -4.93504e-19)
(0.0127262 0.0215354 -1.11884e-19)
(-0.000326425 3.50268e-05 1.30832e-19)
(0.0474498 -0.0900543 -2.33715e-19)
(-0.000481448 -7.1402e-06 -2.068e-18)
(-0.000184753 -5.72342e-06 5.46493e-19)
(-0.000181909 6.78856e-05 2.67472e-19)
(-0.0002829 -0.000125689 2.64013e-18)
(0.0661499 -0.00594899 -4.09352e-17)
(0.00771208 0.0220051 3.01591e-18)
(-0.00362915 0.0571201 9.11039e-18)
(-0.0913884 0.0932996 4.64492e-17)
(-0.00604837 -0.00982462 -1.70871e-19)
(-0.00119843 6.49121e-05 -1.33398e-20)
(-0.121191 0.0733097 -9.2086e-18)
(-0.0564079 -0.0103481 2.60458e-19)
(0.00240657 0.000106266 2.82196e-18)
(0.000966241 0.00337112 8.15642e-18)
(0.0112629 -0.0270477 4.86357e-19)
(0.0555338 -0.0901792 9.33793e-20)
(-0.00677363 0.0267009 4.7542e-18)
(-0.000361037 -5.15896e-06 -5.89726e-19)
(-0.00921882 -0.011573 1.26024e-17)
(-0.0294849 0.0133483 4.89378e-17)
(-0.0612577 0.0123683 2.12457e-17)
(0.000320523 -0.00513999 -1.8168e-18)
(0.00539319 0.00137706 1.9675e-19)
(0.0172238 0.00777762 7.60722e-19)
(0.00501444 -0.00282983 -2.42418e-20)
(-0.0133146 -0.0460461 4.67497e-19)
(-0.0244303 0.043581 5.63005e-19)
(-0.120496 -0.0593133 -6.00543e-18)
(-0.000988038 -0.00249363 2.25452e-18)
(-0.12171 -0.0740018 2.62327e-18)
(-0.0313635 0.0343189 1.53956e-17)
(-1.76914e-05 1.23915e-05 7.32563e-22)
(0.00553704 -0.00340493 -1.04068e-20)
(0.00638599 0.0234295 8.61061e-18)
(0.0268529 0.000171928 2.20765e-17)
(0.000525296 -0.00151381 1.6182e-18)
(-0.000387878 -0.000146565 3.26984e-18)
(-2.51128e-05 0.000406212 2.05156e-18)
(-0.000809015 -0.000285989 -1.61807e-19)
(0.032235 0.00817393 -1.4588e-18)
(-0.00343282 -0.00972692 5.59766e-20)
(0.0307686 -0.0932017 6.88529e-18)
(-0.13451 0.446375 4.91629e-19)
(-0.000158953 -4.99348e-06 -1.73218e-19)
(-0.00228319 -0.00372467 -2.57152e-17)
(-0.00133606 0.0110614 1.40235e-17)
(0.0111608 -0.01799 8.32652e-21)
(-0.0519574 0.0122622 -4.96261e-19)
(0.00197805 0.00758719 1.55422e-18)
(-0.000248229 8.22006e-06 -1.90349e-21)
(-0.000454982 -1.16707e-06 1.73839e-19)
(-0.0136865 -0.0194913 4.79279e-19)
(-0.116373 0.0712988 6.54734e-18)
(0.000495759 0.00045083 1.39253e-18)
(-0.0184794 0.0266177 2.68617e-18)
(-0.0388377 0.0464701 -8.69365e-19)
(-0.000117579 -0.000136163 -2.97128e-20)
(0.00426202 0.0241249 2.76489e-19)
(0.0641484 -0.0908763 3.77221e-19)
(-0.0214522 -0.0524357 -2.57847e-19)
(0.0265762 0.0440772 -2.19292e-17)
(0.0647348 -0.00525754 1.63531e-17)
(-0.0269455 0.0291026 4.165e-18)
(-0.000882577 8.90802e-05 -1.2505e-18)
(-0.000277264 -6.0722e-05 1.86212e-18)
(0.0595165 -0.17816 -4.49054e-19)
(-0.00837954 0.0313537 3.27089e-18)
(-0.023731 0.0418671 -2.32358e-17)
(0.000176654 0.00699683 1.03991e-17)
(-0.00702191 -0.0156252 2.31293e-18)
(-0.000181703 -6.97324e-05 2.30385e-20)
(-0.000595185 -0.00016176 1.15468e-20)
(-0.0798898 -0.0513485 1.25932e-18)
(-0.00011077 -9.89428e-05 2.06986e-20)
(0.000393586 -0.00160315 -2.64839e-18)
(-0.000228205 -6.18952e-05 6.05922e-21)
(-0.0002988 0.000151683 -3.45148e-18)
(-0.0306975 0.0351249 -8.20462e-18)
(0.0320624 0.0141003 2.05355e-17)
(-0.00143214 0.0134683 -6.79431e-19)
(-0.000131831 -9.71067e-05 -6.99846e-20)
(-0.0659023 -0.00253774 -7.17211e-20)
(-0.0444615 0.0313508 -2.75471e-18)
(-0.000184123 0.000167665 1.52684e-19)
(-3.77065e-05 2.26873e-05 -4.20067e-20)
(0.00158207 0.0013353 1.16015e-20)
(-0.000338433 -1.92442e-05 -8.93267e-19)
(0.0202082 -0.0687814 -2.26539e-17)
(0.00128189 0.0449088 -6.03214e-20)
(-0.0042895 0.0233209 1.91332e-20)
(-0.0550295 0.00630817 -6.97231e-19)
(0.0371674 -0.105493 3.87677e-19)
(-5.78682e-05 0.00610063 -5.76304e-18)
(0.0261134 -0.00258114 -1.48829e-17)
(0.0374603 0.00340685 -7.95627e-18)
(0.00425271 -0.00132295 -3.02863e-20)
(0.0027022 0.00642464 -4.00618e-18)
(-0.00025805 2.25891e-05 -7.57983e-22)
(0.00607077 0.00295139 -6.42842e-20)
(0.00464894 -0.00221902 4.90243e-18)
(-0.0817463 0.070112 1.56594e-17)
(-0.0546796 0.0216974 3.6263e-20)
(-0.0166231 0.0270804 1.24446e-17)
(0.0036046 0.000584022 -4.32276e-18)
(-0.000348492 -2.29402e-05 -1.23948e-19)
(0.00371089 -0.00410103 4.90299e-19)
(-0.00531456 0.00136148 6.98263e-20)
(0.0133031 0.0110527 -9.03367e-20)
(0.0134991 0.0243327 2.59365e-17)
(-0.000298621 -2.03701e-05 -4.90197e-18)
(-0.00766378 -0.00592568 1.38028e-20)
(-0.00021148 4.28062e-05 6.1698e-20)
(0.00169855 0.00239244 9.16076e-18)
(0.0542279 0.0194306 -1.59811e-17)
(-0.00027105 -9.5517e-06 5.02517e-18)
(-0.000724268 0.000153088 -2.779e-18)
(0.00534432 -0.00458198 6.80211e-19)
(-0.000230442 -5.14531e-05 5.63773e-18)
(0.0285764 0.00809884 9.81821e-18)
(0.0518259 -0.0779729 -2.2058e-18)
(0.0423909 0.0328911 3.9718e-18)
(0.00353619 -0.0049319 -1.46805e-18)
(-0.0268805 0.041046 1.45392e-17)
(-0.000325982 -2.9405e-05 1.35512e-19)
(-0.0111891 0.00313941 1.15971e-18)
(0.00299391 -0.00512759 6.44176e-20)
(-0.0455367 0.000560233 -7.99954e-18)
(-0.0022004 -0.000608694 2.38542e-18)
(-0.000173656 1.10467e-05 -8.36721e-20)
(-0.00356784 0.0048879 5.53819e-18)
(-0.00299783 -0.00252329 -1.6112e-18)
(-0.103436 0.0364808 2.99864e-18)
(0.0146374 0.0191924 -2.21855e-18)
(-0.015209 -0.00511803 2.41682e-18)
(0.0338817 -0.133178 -2.70614e-18)
(-0.000209445 7.35925e-05 -4.67976e-19)
(-0.00662554 0.00697126 4.93067e-18)
(-0.00413551 0.000467301 5.8989e-20)
(-0.000263118 0.000170543 8.13577e-20)
(-1.37236e-05 9.2939e-06 -1.70228e-20)
(-0.000296682 0.000170048 -4.38874e-19)
(-0.0114878 0.00152012 3.30376e-20)
(-0.00682524 -0.00504755 -2.14339e-19)
(0.000298427 -0.00969242 -2.73088e-19)
(-0.000119628 -6.85165e-05 8.02498e-21)
(-0.123685 -0.0715662 1.10846e-19)
(0.0207182 -0.0107043 1.04423e-18)
(-0.134908 -0.0592091 -7.97124e-20)
(-5.03224e-05 0.000262199 -5.29986e-19)
(-1.14608e-05 4.2081e-06 6.26358e-21)
(-7.69076e-05 7.16871e-07 -2.76123e-21)
(0.0608003 -0.021772 8.09692e-19)
(-0.139475 0.00465346 -7.12235e-18)
(-0.00575592 0.0155426 1.29191e-17)
(0.00191969 0.00243167 -8.76871e-18)
(-0.00442745 0.000106148 -5.1353e-20)
(-7.88504e-05 1.19476e-05 -1.42482e-19)
(-0.000155224 2.62768e-06 -8.75475e-19)
(0.000141611 0.000402894 -1.11092e-18)
(-0.06252 0.0684387 -2.88721e-18)
(0.0832853 -0.113481 -1.72415e-19)
(-0.000240992 -5.00628e-05 5.63498e-18)
(-0.000134511 -6.50119e-05 1.01693e-20)
(-0.000280463 -0.000152261 -9.35456e-19)
(0.000100226 0.000426152 1.39732e-18)
(-0.0590221 -0.0131552 3.89448e-19)
(0.00130333 -0.00910896 -6.92095e-18)
(0.0039626 -0.00380472 -4.3938e-18)
(-0.0748823 0.0498693 7.63637e-18)
(0.0570447 -0.0916903 -6.80658e-19)
(-0.000702474 0.000131752 2.61894e-18)
(0.000481882 0.0555159 5.45896e-18)
(-0.0230495 -0.0884 -1.20721e-17)
(0.0030311 0.00707828 -7.35362e-18)
(-0.234681 0.122252 2.25792e-18)
(-0.000105283 5.83259e-05 1.61766e-19)
(-0.00519184 -0.00458173 9.30609e-19)
(-0.00475009 0.0151934 -1.63684e-17)
(-0.00600889 -0.00434009 2.15402e-20)
(-0.0293513 0.0167645 5.54222e-19)
(-0.000299575 -2.15517e-05 2.33598e-18)
(0.0290899 -0.0463741 7.0144e-19)
(-3.19032e-05 1.69731e-06 3.02748e-21)
(-0.00325246 0.00400335 -9.48831e-18)
(0.0255296 0.00874684 1.33455e-17)
(-0.000919204 0.000681148 5.67996e-19)
(-0.00303777 -0.00167375 2.76473e-19)
(-0.00981404 -0.0160278 -1.42006e-18)
(-0.000193348 -8.18571e-06 3.92036e-19)
(0.00211721 -0.000148569 -3.23643e-18)
(0.00082818 0.0550583 -2.41374e-19)
(0.0322602 0.032326 1.00381e-19)
(0.0143617 0.0222892 -8.53119e-18)
(-0.0926494 0.0652484 -4.39428e-18)
(-0.0219917 0.0445476 2.25784e-19)
(-0.000191478 -4.32685e-05 -4.98298e-21)
(-8.07683e-05 0.000255907 1.90027e-18)
(-0.0533906 -0.0596427 -1.35791e-17)
(-0.0421835 0.0432627 1.50005e-17)
(-0.00593921 -0.00993048 -3.06298e-19)
(0.0100308 0.0215835 -7.45462e-18)
(5.28922e-05 0.000315329 1.03924e-19)
(-0.000256416 -1.93311e-05 -1.57938e-18)
(-1.86603e-05 1.54145e-05 2.04594e-20)
(0.0220185 -0.0979197 -4.14036e-20)
(-0.0331286 0.032698 5.275e-18)
(0.000130623 -0.00377342 1.88184e-18)
(-0.00166223 0.000878467 1.24625e-18)
(0.00457018 -0.00943179 -9.66711e-20)
(0.000799083 0.00125468 -3.82941e-18)
(-7.72715e-05 3.46222e-07 1.80222e-21)
(-0.00141535 -0.00357903 -3.88474e-17)
(0.0259688 -0.06541 1.00397e-19)
(-0.023358 0.0255395 -6.6977e-18)
(-1.0638e-05 -0.000143997 6.88522e-21)
(-0.000242558 -3.16578e-05 4.06264e-19)
(0.0147328 -0.00114263 4.33621e-17)
(0.00040243 -0.00800532 -4.80404e-19)
(-0.037463 0.0345467 9.82825e-18)
(-0.00451314 0.00137309 5.02535e-21)
(-0.0123319 0.0202463 -1.00861e-17)
(-0.0003083 -4.90619e-05 -2.01833e-18)
(0.000306794 -0.0122896 -1.32856e-19)
(0.00323768 -0.0352009 2.33594e-18)
(0.0046174 -0.00978832 2.25631e-18)
(0.00159139 -0.00144202 5.6957e-18)
(-0.0144679 -0.000707841 -1.08446e-17)
(0.000982548 -0.00548682 -1.7184e-19)
(-0.00332505 0.00637496 -3.21213e-19)
(-0.0231086 0.0271205 -1.29026e-17)
(-0.000179579 1.16991e-05 5.27317e-20)
(-0.000254673 6.23482e-06 7.96652e-19)
(-0.00110237 -0.00216026 1.2768e-18)
(-0.000308793 -1.29412e-05 2.80623e-19)
(-0.00151651 -0.00274034 3.93393e-18)
(0.00437266 -0.00137021 -2.02463e-18)
(0.023363 0.0480511 1.06114e-17)
(-0.00306045 0.0125333 9.14902e-19)
(0.00630521 -0.00626917 -2.40246e-20)
(-0.000368698 -4.00029e-05 5.7196e-19)
(-0.0367323 0.101447 -1.24961e-18)
(-0.000196115 7.91374e-06 1.64146e-19)
(0.000708426 -0.00585261 1.53661e-19)
(-1.27225e-05 8.23798e-06 1.08554e-20)
(-0.000650232 0.000153229 -3.22834e-18)
(-0.000470223 2.96541e-05 -6.97417e-19)
(-0.0141304 0.0328391 -1.01015e-18)
(-6.94384e-05 0.000416497 -8.07303e-19)
(4.56586e-06 8.13581e-06 3.15317e-22)
(0.0487045 0.00300229 4.67672e-21)
(-0.000277713 -6.76587e-05 9.14234e-18)
(0.0154144 0.00230049 -2.09959e-17)
(-4.98221e-05 1.49408e-06 2.31825e-21)
(-0.00511098 -0.000731118 -2.12107e-21)
(-0.00491134 0.0252334 5.01064e-18)
(-0.0680514 -3.72398e-05 2.3012e-19)
(0.00125937 -0.0124162 2.63872e-20)
(-0.000171948 -7.00985e-06 1.97764e-19)
(0.0294791 0.0592937 -7.97345e-19)
(-0.0808763 0.0534454 -1.03116e-17)
(-9.33476e-05 -0.000313582 5.18681e-19)
(-0.0242003 0.0411694 1.40129e-17)
(-0.00288217 0.00393369 9.95673e-18)
(-0.000278898 -3.63801e-06 6.51774e-20)
(0.000799832 0.0242107 -2.29523e-19)
(-0.00132855 -0.00371402 -3.41046e-17)
(0.050347 0.0349427 1.92866e-19)
(0.00164745 -0.00245364 2.4411e-18)
(-0.000148821 4.68476e-07 3.43034e-19)
(-0.000116366 -4.47526e-05 3.19551e-20)
(-0.0539382 0.0108748 1.0935e-19)
(0.00083067 -0.011131 2.69252e-18)
(0.00548182 -0.0151789 -1.55184e-20)
(0.000242253 -0.00436673 -7.3074e-19)
(0.00495551 0.0244927 7.60813e-19)
(-0.000347539 -5.35749e-06 -2.45138e-18)
(-0.00501068 -2.86489e-05 2.61034e-21)