/*--------------------------------*- C++ -*----------------------------------*\
| =========                 |                                                 |
| \\      /  F ield         | OpenFOAM: The Open Source CFD Toolbox           |
|  \\    /   O peration     | Version:  v2012                                 |
|   \\  /    A nd           | Website:  www.openfoam.com                      |
|    \\/     M anipulation  |                                                 |
\*---------------------------------------------------------------------------*/
FoamFile
{
    version     2.0;
    format      ascii;
    class       surfaceVectorField;
    location    "550";
    object      Uf_0;
}
// * * * * * * * * * * * * * * * * * * * * * * * * * * * * * * * * * * * * * //

dimensions      [0 1 -1 0 0 0 0];


internalField   nonuniform List<vector> 
20537
(
(1.02228 -0.000823686 -7.37862e-22)
(1.0231 -0.000745965 9.63174e-22)
(1.02299 1.45783e-05 9.32954e-22)
(0.625882 0.0478388 1.01745e-20)
(0.670621 0.040773 -2.9182e-21)
(0.656719 0.0596571 -7.36342e-21)
(1.02662 -0.102441 -1.89043e-22)
(1.02399 -0.0999024 -3.04555e-21)
(1.0223 -0.103119 -9.09072e-21)
(1.02301 -0.00184501 0)
(1.0233 -0.00128836 0)
(1.02401 -0.00168562 -4.20585e-22)
(1.08731 -0.11213 5.25802e-22)
(1.08225 -0.113591 1.041e-20)
(1.08354 -0.108409 4.19652e-23)
(1.06678 -0.0521693 -1.23951e-21)
(1.07487 -0.0427592 0)
(1.06513 -0.0406257 -3.05106e-22)
(1.03041 -0.00268238 -2.24573e-21)
(1.03102 -0.00295649 5.82055e-21)
(1.0309 -0.00239209 -7.10754e-21)
(1.03818 -0.0758701 5.64524e-21)
(1.04029 -0.0741377 5.10296e-21)
(1.04072 -0.077467 -1.38485e-20)
(1.00998 -0.000344884 1.84567e-22)
(1.01028 -0.000280218 -3.42043e-22)
(1.01009 -0.000268065 -1.29849e-22)
(1.00684 -0.0797313 2.09881e-21)
(1.00736 -0.0792672 0)
(1.00763 -0.0799606 6.39768e-22)
(0.967649 -0.0249348 -4.62817e-23)
(0.94978 -0.0143961 -3.07735e-21)
(0.95656 -0.027704 2.01093e-22)
(0.751779 0.0908718 -6.87106e-21)
(0.689079 0.120735 -5.41657e-21)
(0.641617 0.135819 -5.97882e-23)
(0.833124 -0.134973 5.15317e-21)
(0.877345 -0.140392 3.64727e-20)
(0.834691 -0.12918 2.31228e-20)
(0.246285 0.189279 -2.51605e-20)
(0.274445 0.18088 -5.33582e-21)
(0.173393 0.173229 0)
(1.01934 -0.000622387 -3.73593e-21)
(1.01941 -0.000558851 -1.20725e-21)
(1.01949 -0.000685419 -6.32329e-21)
(1.01685 -0.0495982 -1.28135e-21)
(1.01849 -0.0506566 -1.63733e-21)
(1.01659 -0.0517852 4.51553e-22)
(1.03707 -0.0341658 -5.81408e-21)
(1.03591 -0.0332786 -3.0174e-21)
(1.03742 -0.032897 0)
(1.00438 -0.00641163 4.43072e-22)
(1.00474 -0.00803908 4.00418e-23)
(1.00321 -0.00731435 1.24641e-22)
(1.00851 -0.187974 -5.95971e-21)
(1.01318 -0.195877 -2.88741e-22)
(1.05549 -0.197345 1.87457e-22)
(1.0097 -0.000416244 5.16341e-22)
(1.00987 -0.000439132 2.70277e-22)
(1.02268 -0.00231297 7.9641e-22)
(1.0221 -0.00208116 0)
(1.03158 -0.102507 5.31499e-21)
(1.02959 -0.106349 -3.00677e-21)
(1.00288 -3.0468e-06 -6.05941e-24)
(1.00336 3.62748e-05 -5.63437e-24)
(1.00396 6.83791e-05 2.2547e-22)
(1.00438 -0.000109873 7.12441e-24)
(1.00264 -1.02151e-05 8.20287e-22)
(1.00457 -0.000110378 5.95406e-22)
(1.00245 -5.11615e-06 1.81721e-24)
(1.00175 -5.2121e-05 -6.31526e-25)
(1.03558 -0.0749145 1.01836e-20)
(1.03599 -0.0781024 1.06743e-20)
(1.05253 -0.023857 1.14243e-20)
(1.05189 -0.0228074 0)
(1.05124 -0.0238204 0)
(0.00680152 -0.1038 -2.20066e-22)
(0.0102637 -0.109455 -8.426e-21)
(1.02158 -0.00144318 -1.19786e-21)
(1.02146 -0.000835022 -1.23522e-21)
(1.01352 -0.0181498 1.65001e-21)
(1.01359 -0.019306 3.73175e-21)
(1.01269 -0.0182849 -1.71855e-21)
(1.05684 -0.0574694 -2.0083e-21)
(1.0679 -0.0644045 6.29939e-21)
(1.03654 -0.0356151 1.45264e-21)
(1.03826 -0.0352362 -3.74553e-21)
(1.02495 -0.0966962 1.04262e-20)
(1.02127 -0.0970848 4.74896e-21)
(0.806514 0.0898678 0)
(0.809041 0.10812 1.36628e-21)
(0.813227 0.0937984 4.6487e-22)
(1.00426 -7.19282e-05 -8.18071e-22)
(1.00566 -0.00015128 -3.10753e-22)
(1.16803 -0.0136542 6.33136e-21)
(1.16613 -0.0104218 4.38038e-20)
(1.16951 -0.0104921 1.4821e-20)
(0.910733 -0.0130872 5.18908e-21)
(0.952173 -0.0152841 -6.25739e-22)
(0.955132 -0.0127522 2.35574e-20)
(1.01137 -0.179153 -1.18385e-20)
(1.02078 -0.190825 -2.00568e-21)
(1.01767 -0.173814 1.12298e-20)
(1.00644 -0.0791781 -1.14649e-21)
(1.006 -0.0798424 4.30112e-21)
(0.814453 0.0782657 -1.49425e-21)
(0.804069 0.0666438 -2.25483e-21)
(1.01558 -0.00473745 9.29478e-22)
(1.01573 -0.0047055 8.56889e-22)
(1.01578 -0.00488575 1.8701e-21)
(1.0081 0.000225192 1.70104e-23)
(1.00805 0.000171005 1.66909e-23)
(1.00795 0.000193032 -9.3381e-24)
(-0.00921327 0.0524656 1.91227e-20)
(-0.00882337 0.0524476 -1.43499e-20)
(-0.0024366 0.0571224 3.07284e-20)
(0.917373 0.0292773 -2.2525e-22)
(0.901792 0.0249967 -5.78417e-23)
(0.914773 0.0131946 -4.92726e-24)
(0.933306 0.0333899 -7.61753e-22)
(0.924944 0.0439387 9.37214e-22)
(-0.0667701 0.0146738 -1.79407e-22)
(-0.031672 0.0156616 -1.34282e-21)
(-0.0264218 0.00604597 1.03398e-21)
(0.921864 0.0610568 -3.31921e-21)
(0.919628 0.0584211 -3.62886e-22)
(0.932982 0.0665206 -5.31369e-21)
(1.0123 -0.126245 -1.44948e-21)
(1.00902 -0.121167 1.43952e-21)
(0.988335 -0.150174 -2.76538e-21)
(1.05309 -0.0249619 -4.0862e-21)
(1.05379 -0.0238393 -6.40632e-21)
(1.05594 -0.0439438 4.33925e-22)
(1.05411 -0.0362171 8.4848e-23)
(1.06349 -0.0367552 1.03383e-21)
(1.11915 -0.072961 -1.04068e-20)
(1.12323 -0.0732017 0)
(1.12054 -0.0693147 0)
(1.15523 -0.117861 2.46726e-20)
(1.15501 -0.112506 -6.59621e-22)
(1.16228 -0.114308 1.95385e-20)
(-0.0240537 -0.0886939 -2.22579e-20)
(-0.0207603 -0.0835 -4.27441e-20)
(-0.0168569 -0.0926589 0)
(1.01898 -0.00058447 7.57686e-21)
(1.01849 -0.000339222 -9.73442e-22)
(1.01908 -0.000660693 1.95503e-21)
(1.01089 -0.000680277 0)
(1.01079 -0.000671474 0)
(1.01174 -0.000761098 2.50545e-21)
(1.00816 0.000283937 0)
(1.00824 0.000269012 0)
(1.00545 -4.96022e-05 3.33707e-22)
(1.00601 -4.47881e-05 1.45754e-22)
(1.00501 -2.7838e-05 -1.62993e-22)
(-0.0237986 -0.0941814 -1.49593e-20)
(-0.0266277 -0.0916127 -4.77664e-21)
(-0.0148874 -0.0947418 -3.5209e-20)
(1.01439 -0.0178979 -2.58231e-21)
(1.01348 -0.0170313 -4.47104e-21)
(1.0313 -0.00607687 -4.10975e-21)
(1.03082 -0.00569241 -7.265e-21)
(1.0315 -0.00552757 -1.3533e-20)
(1.004 -0.18598 0)
(1.00217 -0.170108 -2.77021e-22)
(0.434949 -0.120073 4.94116e-21)
(0.421162 -0.114867 1.42193e-20)
(0.379144 -0.109563 2.59098e-20)
(0.988711 0.0140274 2.69449e-21)
(0.988603 0.0175267 -1.61533e-21)
(0.991494 0.0154911 1.15105e-21)
(1.09953 -0.119028 -1.2921e-20)
(1.09436 -0.120772 7.07992e-21)
(1.09853 -0.124522 -1.25416e-20)
(0.929535 -0.0118658 -6.63501e-21)
(0.93758 -0.00801353 1.72156e-22)
(0.938581 -0.0170031 7.46335e-24)
(1.02727 0.00245766 -7.51576e-22)
(1.02718 0.0012779 5.7568e-22)
(1.0286 0.00209359 -2.47212e-22)
(0.871066 -0.0143699 -1.96476e-20)
(0.876204 -0.0124586 6.12705e-21)
(0.936624 0.0597851 -1.72448e-21)
(0.928873 0.0614885 3.08722e-23)
(1.07502 -0.0450639 -6.04772e-22)
(1.07348 -0.0464714 -5.93852e-22)
(1.07292 -0.0442583 5.99886e-23)
(1.00561 -0.00557572 0)
(1.00437 -0.00451039 -1.64181e-22)
(0.159831 -0.0197854 -1.02843e-20)
(0.15322 -0.0196919 1.23258e-20)
(0.127508 -0.0193456 0)
(0.789087 -0.0107529 -2.30831e-20)
(0.787195 -0.0102831 1.14753e-20)
(0.829889 -0.0104704 1.37433e-20)
(0.598529 0.0649228 6.85499e-21)
(0.601501 0.0350044 -8.95896e-22)
(1.01918 -0.00056907 5.42734e-21)
(1.01882 -0.000591277 9.0863e-22)
(1.01172 -0.00092587 -1.3235e-21)
(1.01187 -0.00104014 4.18808e-21)
(1.01174 -0.00105718 2.37932e-21)
(1.01252 0.000558947 4.01472e-22)
(1.01277 0.00065798 2.54319e-22)
(1.01235 0.000434376 -1.81641e-22)
(1.035 -0.102733 2.88506e-21)
(1.03301 -0.100169 1.25873e-20)
(0.15626 -0.0226828 1.35421e-20)
(0.181806 -0.022676 -2.97929e-20)
(0.154955 -0.0212258 -2.68583e-20)
(1.07093 -0.07208 -1.24792e-20)
(1.07321 -0.0741246 -5.02772e-21)
(1.07024 -0.0752758 -1.27723e-20)
(0.167054 -0.0193776 3.9974e-20)
(0.141145 -0.0216812 2.79117e-20)
(1.03406 -0.0109631 -2.59226e-21)
(1.03321 -0.0108887 1.27631e-20)
(1.03353 -0.0101868 4.63488e-21)
(0.951372 0.0568545 -2.9889e-22)
(0.934845 0.0550087 5.03826e-23)
(0.952796 0.0427666 3.23521e-21)
(1.02049 -0.00527455 0)
(1.02062 -0.00558077 0)
(1.0202 -0.00539034 0)
(-0.037979 0.0288855 -8.59637e-21)
(-0.0121328 0.0325263 -9.82919e-21)
(-0.0404243 0.0327967 -7.27482e-21)
(0.988837 0.0110894 7.40549e-22)
(0.986384 0.0127365 -1.819e-21)
(0.812144 0.043126 -4.26669e-21)
(0.850984 0.0401563 -9.53918e-21)
(1.04468 -0.0309912 -1.16971e-21)
(1.05 -0.0337965 3.47361e-21)
(1.04863 -0.0281491 -2.80089e-22)
(0.845812 -0.134185 -4.90787e-21)
(0.862696 -0.119344 4.07583e-21)
(0.869113 -0.138973 -1.41219e-22)
(1.04777 -0.0322307 6.7914e-21)
(1.0465 -0.0330266 -1.52841e-21)
(1.04811 -0.0339145 -1.54046e-21)
(1.00955 0.00282879 0)
(1.00969 0.00225875 0)
(1.01007 0.0030567 -1.43644e-22)
(1.16763 -0.017126 -3.72298e-20)
(1.17111 -0.017464 -5.19265e-20)
(1.0138 -0.0233626 -2.4352e-23)
(1.0149 -0.0247654 6.74772e-22)
(1.01266 -0.0245507 -6.44124e-22)
(0.924832 0.0560213 4.70213e-21)
(1.0533 -0.0389072 6.63902e-21)
(1.05278 -0.0401711 1.20302e-20)
(1.05445 -0.0399997 6.87028e-21)
(1.04783 -0.0309957 -1.23746e-21)
(1.04933 -0.0315239 -4.35175e-21)
(1.00337 1.55715e-05 -8.01038e-22)
(1.00345 2.30324e-05 -2.13618e-22)
(1.00456 -7.84563e-05 -4.88354e-22)
(1.09053 -0.11704 2.43013e-20)
(1.09251 -0.111294 7.04548e-21)
(0.471195 -0.0629086 -2.06819e-20)
(0.441355 -0.0564706 0)
(0.440072 -0.0530904 0)
(1.05626 -0.0507359 0)
(1.04875 -0.0477127 0)
(1.00181 4.32033e-05 5.15379e-22)
(1.00327 -1.88305e-05 2.49885e-22)
(-0.0267239 -0.0110601 1.09477e-20)
(0.0405751 -0.000822487 -5.86522e-20)
(-0.00576014 0.0114931 1.36245e-20)
(1.08842 -0.0699598 -9.37226e-21)
(1.09076 -0.0677951 8.93519e-21)
(1.08751 -0.0669477 2.47436e-20)
(1.01702 -0.00638511 1.76444e-21)
(1.01684 -0.00653391 -1.05308e-21)
(1.01706 -0.00597467 7.28513e-22)
(1.05886 -0.0127183 0)
(1.05996 -0.0129748 0)
(1.00309 4.05306e-05 0)
(1.00401 4.65076e-05 0)
(1.00326 3.38164e-05 0)
(1.0362 -0.0340739 4.02571e-22)
(1.03281 -0.0336887 1.47804e-22)
(1.03437 -0.030262 0)
(1.09909 -0.0671663 0)
(1.09703 -0.0695128 9.0992e-21)
(1.10058 -0.0704877 1.21662e-20)
(1.00778 0.000293082 2.05911e-23)
(1.0077 0.000259462 5.11382e-23)
(1.00762 0.000235624 1.90445e-23)
(0.7138 -0.00821262 1.90265e-21)
(0.676434 -0.00795621 -1.8652e-20)
(1.08667 -0.0440565 0)
(1.08011 -0.0333774 4.9417e-22)
(1.00333 -2.68163e-05 3.28064e-22)
(1.00178 -3.75916e-06 0)
(1.00326 -2.72319e-05 0)
(1.00939 0.00352292 0)
(1.00904 0.00241208 0)
(1.013 -0.0220678 3.53477e-23)
(1.015 -0.022329 -6.64142e-23)
(1.00096 4.24972e-05 -3.06753e-23)
(1.00097 -1.85869e-05 -1.4568e-22)
(1.00448 -5.48484e-05 4.29273e-23)
(1.0032 -2.01356e-05 -8.19521e-22)
(0.75927 0.0496052 1.05878e-21)
(0.746095 0.0700469 1.69914e-21)
(0.504135 -0.0705881 4.01811e-21)
(0.507232 -0.0757524 -2.51953e-20)
(1.00727 8.69435e-05 1.18968e-23)
(1.00726 9.24274e-05 -1.62365e-23)
(1.00728 9.91733e-05 5.02218e-24)
(1.00639 -0.000290281 -1.27968e-21)
(1.00623 -0.000294009 1.42665e-22)
(1.00389 -0.000146757 -9.66312e-22)
(1.01044 -0.00053903 7.91991e-22)
(1.00912 -0.000502136 2.18241e-21)
(1.00861 -0.000405028 1.90674e-23)
(-0.0152626 0.0474818 -8.90981e-21)
(-0.00640642 0.0584021 2.3319e-20)
(1.05829 -0.0140385 6.45221e-21)
(1.05747 -0.0127287 -4.19721e-21)
(0.834819 -0.141762 -2.14317e-20)
(0.788572 -0.130428 1.78481e-22)
(0.820856 -0.162229 6.49253e-21)
(1.00975 -0.121345 7.29789e-21)
(1.02977 -0.105711 -4.17374e-22)
(1.02488 -0.0101683 3.87733e-22)
(1.02321 -0.00963543 3.90616e-23)
(1.02419 -0.0116332 -5.13024e-23)
(1.00282 -0.110158 8.28215e-21)
(0.988537 -0.130414 4.45701e-22)
(1.07875 -0.0716095 7.63682e-21)
(1.08113 -0.0707887 2.17135e-20)
(1.08059 -0.0742259 -8.16398e-22)
(1.02247 -0.00281718 7.38706e-22)
(1.02331 -0.00265005 -2.61072e-22)
(1.075 -0.163636 -4.23524e-21)
(1.07991 -0.158621 7.26689e-21)
(1.08109 -0.167189 0)
(1.0154 -0.0045723 -7.30342e-23)
(1.01546 -0.00476643 7.57844e-24)
(1.00865 -0.00132894 2.10537e-22)
(1.0088 -0.00142148 1.15242e-21)
(1.00872 -0.0013405 1.7057e-22)
(0.164936 -0.0192554 -7.96154e-21)
(0.184915 -0.0197682 -2.09802e-20)
(1.02074 -0.00508454 -2.63776e-21)
(1.02029 -0.00491336 1.48134e-21)
(0.745086 0.0292552 6.98102e-21)
(1.0087 -0.000615962 7.94298e-22)
(1.00857 -0.000592185 1.13888e-22)
(1.00826 -0.000495259 8.05901e-22)
(1.00727 7.93086e-05 -1.21112e-23)
(1.00726 7.56799e-05 -1.92123e-23)
(0.795045 -0.0121461 -2.44095e-20)
(0.801549 -0.0139005 1.01693e-20)
(0.838561 -0.0138265 2.90482e-20)
(0.0383306 -0.015059 -3.1237e-21)
(0.0269115 0.00373042 -5.82886e-22)
(0.0504591 -0.000847656 -1.61356e-21)
(0.375091 0.0775996 1.41642e-21)
(0.423885 0.0808441 -4.83141e-22)
(0.374998 0.0797707 -5.34815e-22)
(-0.048518 -0.0319338 4.50351e-20)
(-0.0770074 -0.0219238 4.1994e-20)
(1.01127 -0.000811925 -1.23883e-21)
(1.00947 -0.000386473 0)
(1.01302 0.00813663 5.45227e-23)
(1.01201 0.00858547 2.18283e-22)
(1.01333 0.0098941 2.55654e-23)
(1.00973 -0.00153806 -6.90708e-23)
(1.0099 -0.00150807 8.75461e-23)
(1.01001 -0.00184559 -5.22096e-23)
(1.02771 -0.0248468 -5.38777e-22)
(1.02812 -0.0259508 5.96877e-22)
(1.02867 -0.0247945 -7.43125e-21)
(0.895098 0.03532 -1.41907e-22)
(0.888763 0.0230054 0)
(1.01563 0.0446363 -3.89075e-22)
(1.02339 0.0429194 -2.50892e-22)
(1.0192 0.0379779 -3.83609e-21)
(1.06921 -0.170594 2.59101e-21)
(1.06667 -0.161132 2.44988e-21)
(1.02975 -0.00232953 -5.9693e-22)
(1.0298 -0.00288992 -1.65533e-22)
(0.946027 0.0205893 3.26052e-23)
(0.94753 0.0356857 -2.10524e-21)
(1.12575 -0.0269609 4.94665e-20)
(1.12819 -0.0277172 2.8778e-20)
(1.00946 -0.000604135 7.58481e-22)
(1.00984 -0.000564352 -3.03645e-21)
(1.0107 -0.000605466 -1.89514e-21)
(0.179097 0.182007 -9.40031e-21)
(0.320183 0.204836 2.00511e-20)
(1.00493 -3.634e-05 -2.67239e-22)
(1.00585 -8.64474e-05 3.52743e-22)
(1.03904 -0.0211565 -5.29161e-21)
(1.03997 -0.0213443 6.49916e-22)
(1.03945 -0.0202197 0)
(1.02667 -0.0250281 4.35072e-22)
(1.0271 -0.0238749 9.26649e-21)
(1.01203 -0.00337989 -5.77842e-22)
(1.0118 -0.00327584 -1.70312e-21)
(1.01192 -0.00342551 -1.55906e-21)
(1.01695 -0.0186159 0)
(1.0175 -0.018244 -9.27669e-22)
(1.01764 -0.019166 0)
(1.16134 -0.125269 1.86134e-20)
(1.15005 -0.122514 2.26471e-20)
(1.11523 -0.0726274 -1.21042e-20)
(1.11734 -0.0766857 4.31923e-21)
(1.01197 0.00260056 1.976e-23)
(1.0116 0.00225407 1.39481e-23)
(1.01216 0.00241597 1.60266e-23)
(1.06352 -0.0321414 4.40957e-22)
(1.06344 -0.033316 -5.34893e-21)
(1.0648 -0.0326833 -4.31924e-21)
(-0.0194475 -0.0972741 6.40835e-21)
(-0.0282619 -0.0929945 -6.26981e-21)
(1.0085 -0.00124341 -8.65193e-22)
(1.0086 -0.00131036 -1.24748e-21)
(1.00652 -0.0280961 -6.51306e-22)
(1.00804 -0.0294794 0)
(1.00807 -0.0274132 -6.65076e-22)
(1.00884 -0.000400095 4.24075e-23)
(1.00901 -0.000547658 7.61205e-23)
(1.0089 -0.000445436 0)
(1.00793 0.045021 6.61326e-22)
(1.00997 0.0515105 2.00533e-22)
(1.07719 -0.0458445 0)
(1.07641 -0.0436519 -9.58002e-21)
(1.02176 -0.00292751 4.96606e-22)
(1.02218 -0.00316427 5.43444e-22)
(0.32234 -0.0375775 -1.98879e-20)
(0.272624 -0.0262659 1.4281e-20)
(0.316253 -0.0296756 -1.6883e-20)
(0.124551 -0.0210683 4.00222e-21)
(0.1546 -0.0246875 7.16473e-21)
(1.00756 -7.85993e-05 -3.04049e-22)
(1.00765 -7.86494e-05 0)
(1.00771 -8.8736e-05 -2.25479e-22)
(1.01227 -0.00349691 0)
(1.01214 -0.00334224 0)
(0.331874 0.071538 -5.4018e-22)
(0.38296 0.0774074 3.13426e-22)
(1.00835 -0.00115697 8.32025e-22)
(1.00841 -0.00116715 4.64041e-22)
(0.999336 -0.10625 8.13433e-21)
(1.02658 -0.0886466 2.32383e-21)
(1.07563 -0.0730499 1.29221e-20)
(1.07617 -0.0695589 6.41504e-21)
(1.00902 0.00407348 3.99003e-24)
(1.00861 0.00322475 0)
(1.00805 0.00435227 0)
(0.960601 -0.175762 -1.25927e-20)
(1.01078 -0.181005 1.21105e-20)
(1.00815 0.00042992 1.81837e-23)
(1.00827 0.0004774 -1.87261e-23)
(1.00836 0.000522645 -3.08121e-23)
(1.03714 -0.0379598 4.66859e-21)
(1.03609 -0.0369543 2.63784e-21)
(1.03561 -0.038359 -3.35609e-21)
(0.752986 -0.0109389 -2.82246e-20)
(1.02076 -0.00451338 1.43285e-21)
(1.02057 -0.00421213 0)
(1.02036 -0.00440953 0)
(1.02773 -0.109184 -6.93179e-21)
(1.03231 -0.109398 -1.06667e-20)
(1.00712 0.000102198 -2.94279e-24)
(1.00675 8.42947e-05 3.94712e-25)
(1.00699 9.16926e-05 -1.14269e-24)
(1.00317 -6.26315e-05 -3.02911e-22)
(1.0035 -3.78499e-05 4.78849e-23)
(1.00422 -7.28394e-06 7.92999e-23)
(1.02708 0.00358845 -6.89194e-22)
(1.02581 0.00257208 -2.72745e-23)
(1.01147 -0.00079781 -1.82461e-21)
(1.01139 -0.00077898 -7.73726e-23)
(1.07873 -0.124195 3.39468e-23)
(1.07317 -0.124899 3.39918e-23)
(1.07632 -0.130182 1.03277e-20)
(0.986865 -0.0785964 -3.29514e-22)
(0.987248 -0.0828108 -1.16644e-21)
(0.990954 -0.079835 6.20337e-22)
(0.909656 0.0558631 1.14957e-22)
(-0.0245453 -0.094057 -3.17482e-20)
(-0.0311494 -0.0859806 -9.04355e-21)
(1.00914 0.0041529 3.25476e-23)
(1.00844 0.00360425 -1.02435e-22)
(1.0088 0.00480192 2.91546e-23)
(1.06716 -0.0518082 1.81623e-22)
(1.06868 -0.0504032 -1.33892e-20)
(1.06672 -0.0495918 -9.17289e-21)
(0.450223 -0.124245 -8.44481e-21)
(0.489275 -0.131186 -1.47798e-20)
(1.03698 -0.0205512 9.37025e-21)
(1.03792 -0.0209417 4.13927e-21)
(1.03747 -0.0198721 6.01303e-21)
(1.01407 0.00771629 0)
(1.01291 0.00677464 -2.81011e-23)
(0.816311 -0.000831026 -6.99965e-22)
(0.830905 -0.0156635 -4.3277e-21)
(0.827525 -0.00411974 2.70256e-21)
(1.00966 0.00523842 1.51473e-22)
(1.00988 0.00394458 -4.4486e-23)
(1.01226 0.00044585 -1.62418e-22)
(1.01264 0.000689737 3.15774e-23)
(1.02705 -0.0108962 -1.69388e-22)
(1.02549 -0.0087563 -4.04121e-22)
(0.0452282 -0.0275888 6.56792e-21)
(0.113187 -0.0445685 6.90202e-21)
(0.10959 -0.0329672 4.49317e-21)
(1.0024 -0.000104532 3.24412e-22)
(1.00483 -0.000141715 8.72015e-22)
(1.00196 -0.000130546 2.9947e-22)
(1.01685 -0.00563583 -1.27875e-21)
(1.01657 -0.00535241 0)
(1.01661 -0.0056141 0)
(0.999973 -0.0758041 -1.3719e-21)
(0.999097 -0.0737327 -2.71393e-22)
(1.00134 -0.0741085 -1.50695e-21)
(1.02119 -0.00459387 -1.77088e-22)
(1.02095 -0.00483429 -1.00371e-21)
(0.39664 -0.0634639 -7.24939e-21)
(0.311116 -0.0590289 -7.11462e-21)
(0.35211 -0.0525823 -5.07252e-21)
(1.04038 -0.0342592 -2.22004e-21)
(1.03997 -0.0328858 6.32331e-21)
(1.04166 -0.0332281 1.15494e-20)
(0.2593 -0.022225 3.237e-21)
(0.236262 -0.0216068 -2.02316e-21)
(0.261625 -0.0217196 -1.08878e-20)
(1.00955 0.00103737 -1.83421e-23)
(1.00988 0.00121427 6.2936e-24)
(1.00962 0.00114043 1.51084e-23)
(0.539723 -0.0257338 1.81143e-20)
(0.504951 -0.0250789 -2.18793e-20)
(0.513254 -0.0258873 8.89819e-21)
(1.01702 -0.00667966 1.39339e-21)
(1.01719 -0.0061808 -2.32878e-21)
(0.831999 0.0194444 5.07902e-22)
(0.827179 0.0125901 0)
(0.846065 0.0209229 -5.90247e-22)
(1.00822 0.00043985 -8.91697e-24)
(1.00808 0.000394151 1.99486e-23)
(1.00798 0.000354502 -1.09857e-23)
(1.0093 -0.000997899 -4.83309e-23)
(1.00917 -0.000931679 1.69886e-22)
(1.00915 -0.000765253 -8.41379e-25)
(1.01104 -0.0429905 6.37323e-22)
(1.00443 -0.0426934 2.99106e-21)
(1.01011 -0.0472897 3.54671e-21)
(0.986816 0.00730276 -7.56923e-22)
(0.988798 0.00856818 3.2988e-22)
(0.989039 0.00559868 0)
(-0.0936027 0.0153852 -1.95605e-20)
(-0.0955562 0.00955463 -2.26115e-21)
(1.01954 -0.00161555 0)
(1.01943 -0.00140615 2.3157e-21)
(1.01928 -0.00154949 0)
(0.259605 -0.0226621 0)
(0.284695 -0.0223939 0)
(1.03943 -0.0350369 -6.7227e-21)
(1.04079 -0.035268 2.71991e-21)
(1.03456 -0.011568 -7.90318e-21)
(1.03487 -0.010843 -1.03043e-20)
(0.563474 -0.0599863 1.73646e-20)
(0.533173 -0.0579281 5.27699e-22)
(0.529578 -0.0555781 -1.923e-20)
(1.12337 -0.139028 -5.26085e-21)
(1.12086 -0.145527 -1.1668e-21)
(1.12906 -0.144491 -6.93892e-21)
(0.46522 -0.014108 2.17608e-20)
(0.43687 -0.0145492 -1.50149e-20)
(0.439866 -0.0141493 1.89776e-20)
(1.00278 -1.48244e-05 0)
(1.00279 -2.07758e-05 0)
(1.0016 1.21533e-05 0)
(1.05534 -0.0442336 -6.1651e-21)
(1.05693 -0.0455728 -4.83326e-21)
(1.05491 -0.046239 1.39032e-21)
(1.00291 3.62925e-05 -2.37497e-24)
(1.00207 4.90371e-06 0)
(-0.0611508 -0.0625189 1.10604e-20)
(-0.0616256 -0.0552044 3.96786e-22)
(-0.0540312 -0.0625971 -4.99793e-20)
(1.00838 0.000481552 -1.71883e-23)
(1.00847 0.000537481 3.44323e-24)
(1.03307 -0.0742131 -1.43847e-21)
(1.03479 -0.0723471 -6.25958e-23)
(0.976496 0.0146912 2.68959e-23)
(0.971125 0.0136735 -1.34231e-21)
(0.975251 0.0198038 7.35094e-22)
(1.00743 -6.38873e-05 4.96153e-23)
(1.00747 -7.32429e-05 -2.97361e-22)
(1.00982 0.00440577 -1.47211e-22)
(1.11746 -0.0589902 9.72432e-21)
(1.11633 -0.0625728 0)
(1.11401 -0.0598616 1.46751e-20)
(0.985211 -0.0127949 -6.57712e-24)
(0.987419 -0.0138853 -2.25918e-22)
(0.987418 -0.0112676 -3.78043e-23)
(0.47563 -0.0657943 -3.61376e-21)
(0.435687 -0.0736206 7.13781e-21)
(0.92116 -0.00753244 -2.87249e-21)
(0.922997 -0.0172241 -2.82475e-21)
(1.0095 -0.00124115 3.45353e-23)
(1.00953 -0.00151797 0)
(1.01703 -0.005668 -1.07067e-21)
(1.01706 -0.00588556 5.00163e-22)
(1.0496 -0.0497856 -7.82193e-22)
(1.04668 -0.0602386 -7.44211e-21)
(1.00862 -0.0446523 0)
(1.00946 -0.054102 -5.38248e-22)
(1.01456 -0.0446874 0)
(1.01566 0.00777211 5.30909e-22)
(1.01484 0.00665694 1.08856e-22)
(1.01448 0.00763221 5.74129e-23)
(1.00098 -0.0773414 0)
(0.998732 -0.0776121 -9.10388e-22)
(1.00484 5.23218e-05 0)
(1.00469 4.99427e-05 -7.02175e-24)
(0.394974 -0.017736 -3.25749e-21)
(0.37058 -0.0173162 -1.29691e-20)
(0.393125 -0.0167383 -4.74825e-21)
(1.0863 -0.0720778 -6.77177e-21)
(1.08965 -0.0732814 -7.63798e-21)
(0.817889 0.0342581 -7.96465e-22)
(0.81643 0.0488441 4.81329e-22)
(0.837738 0.041094 -6.67282e-23)
(1.0258 -0.0250948 3.61927e-21)
(1.02478 -0.0250461 3.65439e-21)
(1.02532 -0.0240229 5.78957e-21)
(1.02578 -0.0364648 -9.71477e-22)
(1.02633 -0.0349518 7.56822e-21)
(1.02468 -0.0353471 1.72214e-21)
(1.00062 -0.00894585 2.87809e-22)
(1.00072 -0.0106468 1.52502e-22)
(1.00189 -0.00933087 1.46489e-22)
(1.00982 -0.0374193 1.91507e-22)
(1.00079 -0.0425282 0)
(1.02667 -0.0146807 3.3027e-21)
(1.02682 -0.0152589 0)
(1.02616 -0.0149144 0)
(1.02629 -0.0260415 4.44598e-21)
(1.10255 -0.0507256 -1.05227e-20)
(1.10561 -0.050314 -1.27805e-20)
(1.10376 -0.0535309 -1.60757e-21)
(0.904734 0.0753857 -1.4206e-21)
(0.882412 0.0634392 4.24448e-21)
(0.928176 0.0668439 1.57903e-21)
(0.982791 -0.0768189 1.62483e-21)
(0.986499 -0.0743381 1.89013e-23)
(0.764088 -0.0134922 0)
(0.804371 -0.0146784 1.19194e-20)
(0.0829535 0.0117189 5.22297e-20)
(0.0460577 -0.0032162 -3.2189e-20)
(0.0346208 0.0285528 1.65097e-20)
(1.0225 -0.00152794 6.90396e-21)
(1.02214 -0.00132013 -2.51363e-21)
(1.02213 -0.00160784 8.6059e-21)
(1.00943 -0.00102874 6.39766e-23)
(1.00679 -0.00499372 0)
(1.00715 -0.00324562 2.45261e-22)
(1.00824 -0.00427386 0)
(0.89113 -0.108653 -2.93193e-22)
(0.932771 -0.103513 -2.44127e-21)
(0.874754 -0.0877678 -2.20507e-21)
(1.01721 -0.00301585 -9.86797e-24)
(1.0163 -0.0028924 7.06619e-24)
(1.01692 -0.0035767 -6.34453e-24)
(0.938702 -0.194115 8.56482e-21)
(0.952664 -0.201184 -2.79026e-21)
(0.899029 -0.190062 1.23164e-20)
(1.03663 -0.0214521 -3.29904e-22)
(1.03613 -0.0203675 -3.29171e-22)
(1.02713 -0.0144238 3.27691e-21)
(1.02648 -0.0140849 1.92601e-23)
(1.05403 -0.0376304 -1.51029e-20)
(1.0524 -0.0379522 -9.09808e-21)
(0.599178 -0.0669135 1.79816e-20)
(0.593612 -0.0629767 1.218e-21)
(0.993843 0.0360112 -4.95502e-22)
(0.998271 0.0321359 -3.04379e-23)
(0.99206 0.0299516 1.15901e-21)
(0.999459 -0.0082582 -2.54569e-23)
(1.0008 -0.00719294 -1.18089e-21)
(1.03845 -0.0221179 -1.14241e-20)
(1.05311 -0.0937262 5.55341e-22)
(1.07418 -0.0794703 2.82107e-21)
(1.0499 -0.0751902 2.61707e-21)
(1.06863 -0.0702925 7.51147e-22)
(1.0714 -0.069056 7.58734e-22)
(1.01499 -0.048886 8.844e-22)
(1.01658 -0.0476803 1.88757e-21)
(1.00894 -0.00151285 5.45087e-22)
(1.00886 -0.0014861 -4.20903e-22)
(0.953193 0.0666391 2.61514e-22)
(0.970133 0.0557633 0)
(1.01443 -0.0272606 0)
(1.01519 -0.0294814 0)
(1.01666 -0.0278596 -4.78351e-23)
(0.498885 -0.00801921 -1.5821e-20)
(0.472577 -0.00774912 0)
(0.474341 -0.00831623 0)
(0.982296 -0.0359438 1.79253e-22)
(0.976734 -0.0242169 -1.90517e-22)
(1.0165 0.00880673 -9.93642e-23)
(1.01664 0.00776929 -7.40291e-23)
(1.00937 0.000815759 0)
(1.00948 0.00093793 -1.89401e-23)
(1.00971 0.000965211 -1.09126e-24)
(1.00337 1.79524e-05 0)
(1.00356 3.20361e-05 9.46184e-24)
(1.0043 6.83399e-05 5.94672e-24)
(1.10158 -0.0485867 4.93241e-21)
(1.10015 -0.0511227 3.61932e-21)
(0.836208 -0.106907 0)
(0.89369 -0.118135 0)
(0.9888 -0.0778202 4.83592e-22)
(0.99994 -0.033493 0)
(0.968599 -0.04248 8.135e-21)
(1.01089 -0.00024521 7.48381e-22)
(1.01123 -9.85718e-05 -2.75582e-22)
(1.01108 -0.000210245 1.68581e-22)
(1.02022 -0.000163273 -1.38104e-21)
(1.02024 -0.000311879 0)
(1.02042 -0.000203769 -6.48576e-21)
(1.02394 -0.111615 2.67043e-21)
(1.04891 -0.101741 3.22975e-21)
(0.911122 0.0731731 -2.50144e-22)
(0.920215 0.0793448 5.58233e-23)
(0.903736 0.0817631 1.51973e-22)
(1.06492 -0.176899 6.12763e-21)
(1.07467 -0.179803 5.67343e-21)
(1.01499 -0.0176186 0)
(1.01502 -0.0186113 6.00943e-21)
(1.0318 -0.00642708 0)
(1.03111 -0.00650505 0)
(1.07443 -0.0508683 0)
(1.07272 -0.0522465 0)
(1.07505 -0.0533245 1.3548e-20)
(0.918357 0.0632529 -1.67789e-21)
(0.903701 0.0690944 -2.48645e-22)
(0.975709 -0.196379 1.19218e-20)
(0.918102 -0.184049 -1.46684e-21)
(1.0105 -0.0303882 -1.79817e-21)
(1.01112 -0.0297531 0)
(1.01167 -0.0310047 -4.08366e-21)
(0.811374 0.0211666 1.04573e-20)
(0.89145 -0.00661479 -1.78524e-21)
(1.00912 -0.00166088 -4.56631e-22)
(1.00919 -0.00168732 -1.83191e-22)
(1.00906 -0.00158783 7.63968e-23)
(0.397855 -0.018531 2.46887e-20)
(0.421098 -0.0178181 2.38151e-21)
(1.06243 -0.0314912 1.18258e-20)
(1.06378 -0.0308373 -1.27443e-20)
(1.03492 -0.0324613 8.26262e-21)
(1.03453 -0.0336471 -2.84151e-21)
(0.503505 -0.0098498 3.94599e-20)
(0.474602 -0.0105802 7.27907e-23)
(0.480315 -0.0102537 -3.25516e-20)
(1.0176 -0.00898937 1.36948e-21)
(1.01745 -0.00878237 5.25394e-21)
(1.01756 -0.00921087 -1.02879e-21)
(1.0408 -0.0330274 -2.80116e-21)
(1.03953 -0.038186 3.90129e-22)
(0.43207 -0.0356424 4.38918e-20)
(0.430144 -0.0352369 -2.14597e-20)
(0.461599 -0.0374699 8.47007e-21)
(1.01074 -0.000260157 1.18613e-22)
(1.0106 -0.000383171 3.90587e-22)
(1.09051 -0.0485078 -3.23027e-20)
(1.09305 -0.0487338 2.03465e-20)
(1.09135 -0.0512244 -1.68204e-20)
(1.05093 -0.0407985 -8.79975e-21)
(1.05247 -0.0420471 4.91658e-21)
(1.01562 -0.0173266 0)
(1.01497 -0.0166388 0)
(0.0631346 -0.0349486 -1.74037e-21)
(0.0386212 -0.0321195 -2.12803e-21)
(1.00929 -0.0303418 -1.86598e-21)
(1.0101 -0.031674 2.03775e-21)
(1.02453 -0.01424 2.25273e-21)
(1.02501 -0.0142716 5.17932e-21)
(1.02485 -0.014811 1.99365e-21)
(0.533067 -0.0656258 9.6873e-21)
(0.520102 -0.0594886 -3.43346e-21)
(0.494926 -0.0560808 5.89747e-22)
(1.00821 0.000109983 -3.88381e-23)
(1.00829 6.3886e-05 1.91142e-23)
(1.00818 5.87905e-05 1.94158e-23)
(1.0256 -0.0376211 0)
(1.027 -0.0371068 3.63402e-21)
(1.02937 -0.011348 1.08701e-22)
(1.03199 -0.0115245 -7.88938e-23)
(1.02972 -0.00920573 1.06811e-23)
(0.528656 -0.00814105 -1.59695e-20)
(0.527379 -0.00864501 -1.70623e-20)
(1.15435 -0.0272553 4.44057e-21)
(1.1565 -0.024421 -4.60985e-20)
(1.15242 -0.0244123 -7.11324e-21)
(1.01978 -0.00166511 0)
(1.01965 -0.00182523 -2.71892e-21)
(1.09742 -0.0614982 1.78708e-20)
(1.09818 -0.0645052 -9.20246e-21)
(1.09509 -0.0633851 -1.85584e-20)
(1.02014 -0.0010233 -3.62577e-22)
(1.02014 -0.00118172 -2.85797e-21)
(1.02037 -0.00107189 -2.25418e-21)
(0.133825 0.0149113 -1.02023e-20)
(0.147369 0.00439216 -8.22329e-21)
(1.00004 -0.0118358 0)
(0.998505 -0.0119507 0)
(0.99944 -0.0135599 5.93691e-23)
(1.00313 -2.42915e-05 -7.75559e-24)
(1.00349 -6.04689e-06 0)
(1.00417 3.31209e-05 -2.61198e-23)
(1.0129 -0.00491823 -5.04062e-22)
(1.01318 -0.00510691 0)
(1.01301 -0.00480494 2.72659e-22)
(1.15565 -0.0308602 1.52702e-20)
(1.15191 -0.0303928 1.23561e-20)
(1.05398 -0.0430521 0)
(1.05576 -0.0425866 0)
(1.04103 -0.0191999 3.57975e-21)
(1.04097 -0.0201163 -2.23522e-21)
(1.04017 -0.0195248 3.46204e-21)
(1.02008 -0.000141614 1.34737e-21)
(1.01772 -0.00921293 -8.3912e-23)
(1.01758 -0.00880029 -2.62547e-21)
(1.02395 -0.01431 -4.97554e-21)
(1.02409 -0.0137246 -5.7355e-21)
(0.945822 0.00351308 -6.95028e-24)
(0.930073 5.67209e-05 1.74863e-21)
(0.451882 0.191671 3.74427e-20)
(0.434352 0.162502 1.02867e-20)
(0.337643 -0.0552607 4.75464e-21)
(0.377738 -0.0660667 -4.615e-20)
(0.345507 -0.0642856 -9.12072e-22)
(1.00591 0.00461829 9.99844e-23)
(1.00394 0.00436388 0)
(1.00486 0.00660894 -1.78943e-22)
(0.53543 -0.00958782 2.14817e-20)
(0.52983 -0.00913947 4.39617e-20)
(0.822544 -0.192328 2.70558e-21)
(0.778409 -0.186296 1.00403e-21)
(0.782166 -0.182568 3.31365e-21)
(1.01929 -0.000724421 0)
(1.06747 -0.0540058 1.0724e-20)
(1.06552 -0.0529783 3.92045e-21)
(1.05568 -0.174621 -2.10196e-21)
(1.0628 -0.184551 0)
(1.01671 -0.0253787 -9.88202e-23)
(1.01798 -0.0257838 8.2498e-23)
(1.01761 -0.0240127 1.19456e-21)
(0.97884 -0.00632583 -8.85628e-22)
(0.981113 -0.00555202 -3.23909e-22)
(0.979747 -0.00830635 6.46893e-22)
(1.15525 -0.098036 2.83419e-20)
(1.14932 -0.0988835 3.85708e-21)
(1.15158 -0.0941008 2.5883e-20)
(1.02598 -0.202806 -2.60191e-21)
(1.01025 -0.0151353 7.52739e-24)
(1.00959 -0.0140355 -1.44309e-22)
(1.01078 -0.014119 1.2794e-23)
(0.743522 -0.0788471 3.3941e-21)
(0.76212 -0.0911825 1.07141e-22)
(0.73022 -0.0741548 -1.43535e-21)
(0.441088 -0.0286766 1.96248e-22)
(0.411845 -0.0274267 1.59942e-20)
(0.415378 -0.0286511 2.68681e-21)
(1.01917 -0.000440994 1.97545e-21)
(1.0195 -0.000492225 4.86348e-21)
(1.06601 -0.0123574 6.579e-22)
(1.06772 -0.00797602 -1.47864e-21)
(1.0655 -0.00139972 -9.29467e-22)
(1.05911 -0.0210246 0)
(1.06352 -0.021431 0)
(0.948439 -0.100743 -1.395e-21)
(0.952935 -0.10602 -2.01785e-21)
(0.946932 -0.11115 -1.58654e-21)
(1.04117 -0.0183988 3.82737e-21)
(1.04199 -0.0190428 -4.65529e-21)
(0.976138 -0.00610824 -2.20665e-21)
(0.977987 -0.00401108 1.72944e-21)
(-0.0590376 -0.0696255 3.04727e-20)
(-0.0672024 -0.0624818 3.50237e-20)
(1.01252 -0.00361024 1.40433e-21)
(1.0124 -0.00366522 0)
(0.741989 -0.0650263 6.7915e-23)
(0.754135 -0.0711608 1.94954e-22)
(1.01265 -0.00474316 -2.38954e-22)
(1.01277 -0.00506474 -1.20186e-21)
(1.02012 -0.000892369 2.46435e-21)
(1.01994 -0.000985975 -9.19016e-22)
(1.00555 5.88365e-05 9.14968e-24)
(1.00499 5.82198e-05 6.06168e-24)