/*--------------------------------*- C++ -*----------------------------------*\
| =========                 |                                                 |
| \\      /  F ield         | OpenFOAM: The Open Source CFD Toolbox           |
|  \\    /   O peration     | Version:  v2012                                 |
|   \\  /    A nd           | Website:  www.openfoam.com                      |
|    \\/     M anipulation  |                                                 |
\*---------------------------------------------------------------------------*/
FoamFile
{
    version     2.0;
    format      ascii;
    class       volScalarField;
    location    "350";
    object      omega;
}
// * * * * * * * * * * * * * * * * * * * * * * * * * * * * * * * * * * * * * //

dimensions      [0 0 -1 0 0 0 0];


internalField   nonuniform List<scalar> 
13917
(
5.14268
0.0389301
0.192227
0.0221551
0.0288289
0.0384671
0.0258294
0.0702264
0.0248
5.96461
0.0803853
0.0217589
0.0246283
1.3449
0.0279677
6.70773
0.021695
0.0657291
0.101812
6.5655
0.0326252
0.0218562
0.0408635
0.0218601
0.0230876
0.0347163
1.76982
9.66172
0.045718
0.0202052
8.00248
0.0590187
0.0221937
2.88198
0.0215275
0.120455
0.0239239
0.0239171
0.025872
0.0362662
0.0219039
0.0217166
0.023587
0.0956814
0.0949349
0.485579
0.0310614
5.93033
1.06958
0.0215477
0.0217308
0.106673
15.9802
0.0217346
0.0217978
0.105279
4.95254
0.0408431
0.0215918
0.44347
3.34948
0.0278996
0.021111
0.0229216
3.09569
0.0313427
0.0504571
0.104357
0.0811799
5.60324
2.9001
3.00116
0.0217172
0.0213648
0.0334362
0.023546
0.0247559
0.0212697
0.0233468
0.0222615
0.0223634
0.0217775
0.0217024
3.01924
0.0211549
0.299151
0.057035
0.0216603
0.036014
0.0216013
0.0206969
0.0237246
1.04646
0.0211649
0.022268
0.0502331
1.10663
0.0220957
0.021554
0.115794
0.0215498
0.0214235
0.0224044
0.0214284
0.0247059
3.29397
2.74062
0.0279068
0.022054
1.87102
0.0215439
2.84036
0.045642
5.0071
3.10362
0.0239251
0.094974
0.0208738
0.166068
0.0216456
0.0216719
0.0209983
0.056048
0.0833748
5.20165
3.13094
0.0227683
0.0352131
0.0212356
0.0847229
0.030348
0.175374
3.5058
0.0238899
0.0691336
1.90641
3.06277
5.10985
0.0370763
0.0238624
0.80797
0.0211124
3.29034
0.0212399
0.0216503
0.0244357
2.88315
0.612764
6.39629
0.0217665
0.0334712
0.0213191
0.0216312
0.0216534
1.68133
0.022678
0.0213625
3.47576
0.0215016
0.0210669
0.0211463
2.79735
0.0258918
0.77221
3.02813
0.114738
22.4027
4.24992
0.0196223
0.0394175
0.0220098
3.3936
0.0247642
3.1078
0.0628203
0.0214127
0.0221562
0.117527
0.0297415
0.0264405
0.0235014
0.0219062
0.0217294
0.154266
0.173089
0.159628
0.0217065
0.146709
0.0202185
0.132587
0.0628303
0.0876729
0.128309
4.90679
0.0211745
5.01295
0.0252442
3.57552
0.0214766
0.0224084
0.0291967
5.39878
6.50781
0.0236267
1.77088
0.0349507
0.0338083
0.0211152
0.115874
0.0223587
0.0209236
0.0344468
0.0377434
6.09071
0.0672228
0.0364762
2.84301
0.0227922
0.0203191
0.0203083
4.30519
0.154074
0.186584
0.021368
0.021224
1.94065
6.02506
0.0202735
0.0202638
0.0218982
0.020329
0.0203207
3.15255
4.20676
0.0220048
0.0196416
0.0670457
3.23671
0.021553
0.0213655
1.82686
3.35291
0.169919
2.8271
0.0872644
0.0212468
4.21218
0.0696521
0.0424057
0.0671395
0.02338
4.59602
0.0216571
0.0383935
0.0567214
0.0221269
0.0220148
0.0228975
0.0272754
0.0215541
3.60178
1.16373
0.0210214
0.0202646
0.0227979
0.0202689
0.0216612
0.0246065
0.0339335
0.0211336
4.09035
2.67861
0.0215184
0.0253105
1.63177
0.0202262
0.0891102
3.23222
0.0202353
4.13638
0.0214442
2.79801
0.0215168
0.0264206
0.0222072
0.0212128
0.137082
0.02279
0.188317
0.0273216
1.09909
0.0247166
1.2147
5.36127
0.0211095
0.0464172
0.0277343
0.0242057
0.0283336
0.0232977
0.0212376
0.0224557
0.116009
0.0391739
0.0373573
0.023156
0.0213488
3.51851
8.07569
0.0211445
0.0275564
0.0242395
0.477155
0.110563
2.65472
2.89099
0.0341497
0.119457
0.0250342
2.87385
0.720532
0.190677
0.0244096
0.0276953
1.6846
0.0223146
0.0415751
0.086649
0.0216145
3.39203
0.0212037
0.0372652
0.0205552
17.7467
0.0208112
0.0353177
0.0354877
0.0322027
0.0214989
0.0671838
3.0745
0.0221569
0.0223069
2.82395
3.1512
2.6195
1.37207
0.0202127
0.0219495
3.42108
0.125287
0.0202248
0.0282691
0.0217174
0.0518974
0.0362082
0.102685
0.0836975
0.0893096
0.0369064
3.0548
0.0212794
0.0221632
0.0304908
0.169452
0.0216198
5.91297
0.036696
0.260913
0.0218437
0.113754
0.0274815
0.654973
0.021766
0.219267
1.39151
0.0379222
0.0215427
2.14146
0.0207759
3.32287
0.144598
0.0217855
0.769106
0.0226082
0.218357
0.0207181
5.60985
0.190666
0.0234527
1.92846
0.0778166
0.0230456
2.60196
0.209163
0.0230628
0.139131
0.0218441
0.079702
0.191792
0.0212299
0.0253492
0.0231222
0.0211915
0.0209453
0.0213368
2.87054
0.113969
0.0219857
0.0214078
0.0216856
0.0453545
0.168299
0.0203125
0.0196407
0.108791
0.109547
0.0212414
0.0233162
2.4371
1.93569
0.0557133
0.107859
2.58688
0.0206771
0.0202678
0.0300948
0.0209343
0.0203204
0.022088
0.0202787
0.0206249
4.46145
0.0218895
0.0388238
3.74247
0.0460618
0.0209455
0.0216138
2.61972
0.0292916
6.35624
0.0204353
0.0213514
0.0208512
0.0203395
0.0238199
0.0228176
2.39827
0.0208396
3.39239
0.0213457
0.0324254
0.0253479
0.0222939
0.0851529
2.58548
0.0216833
1.80498
0.0209822
0.0213735
0.0216412
0.022627
0.0208737
0.0222825
3.47219
3.41024
0.0208532
1.48336
0.106954
0.0218845
0.0502847
0.0635279
2.621
0.0259774
3.31253
0.283467
0.290442
0.0228395
0.030019
0.0236393
0.0232603
2.63052
0.0208215
0.0216754
0.0222726
0.0250761
0.0317943
0.147366
0.0477648
0.0238086
0.026162
0.065525
0.0499287
0.0219892
1.23349
0.0332868
0.0273268
3.29646
0.0211637
0.0517248
0.143589
0.0208499
3.2786
0.0214832
0.0203364
0.046476
0.0204481
0.0225702
0.115522
3.54948
1.89364
0.0211406
0.0223237
0.0231776
2.52391
2.21262
0.0218917
0.0217699
0.0211196
0.052659
0.61925
0.0213043
0.0215562
0.022328
0.0211676
0.0257863
0.0273023
0.0209917
0.0485368
0.0208526
0.0217225
0.0230006
2.69912
0.0203974
0.0233819
0.0215611
0.0315805
0.0589865
0.0568993
0.059045
0.120668
0.0228055
0.0566547
3.58306
4.28014
3.38735
0.0210619
0.0215977
0.0247801
0.0214314
3.14576
0.0202594
0.792001
0.0252266
3.45758
0.101045
0.0235807
8.74482
0.020844
0.0553052
0.0219965
0.0224349
3.46557
0.0203656
0.193378
0.02136
0.0228745
0.0216422
0.139805
0.0260131
0.0202506
0.0964337
0.0492452
0.538043
2.75497
3.59973
2.65521
0.020405
5.86519
0.0206817
3.16634
0.641157
0.0229447
0.0298916
0.0214999
0.0329127
0.0232988
0.0203776
0.0220311
0.0243888
2.47046
0.0211925
0.0535048
0.0216463
0.0202407
0.0214824
0.0991453
2.81117
12.8439
0.0629577
0.0271656
1.63667
3.13547
0.0207463
2.6673
0.0241386
0.0856609
0.0214273
1.78921
0.0211462
0.0261856
0.0216705
0.587468
0.0340816
3.059
0.0210687
0.0328075
0.0215184
0.0216414
2.92467
0.119919
0.0217238
0.112169
0.0213484
0.0221114
0.0214387
2.79025
0.0211961
0.0276664
0.0202512
0.0216135
0.168802
0.0213423
0.103786
0.0219125
0.0208274
3.20424
0.0550588
0.0218389
17.4675
0.188341
0.0847409
0.143743
0.0208253
0.0289603
2.80236
0.212419
0.0289633
0.0239295
0.0266349
0.0217845
0.0213238
0.0719371
0.0638003
0.0245572
3.82616
0.0344755
0.423589
2.2515
0.0381564
0.0336993
0.126297
3.6975
0.0212465
0.0310765
0.0991606
0.0208384
0.021178
0.02149
0.0236124
0.0225715
5.59336
0.0320076
0.0211857
0.0806965
0.0209789
2.64101
0.0214354
0.0212333
3.45165
0.055445
0.286908
0.0217707
0.0214423
0.0212012
0.022058
0.0270611
0.0212067
5.87511
0.0290819
0.577459
0.272161
0.0308591
3.62428
0.0223314
0.0220034
0.0215858
3.12903
1.91576
0.0255891
5.61397
0.840722
0.0208225
0.0211859
0.023849
3.21516
0.329657
0.0343499
0.0220288
0.0233807
0.0883792
0.0243632
0.101906
0.0321575
0.0222172
0.0222876
0.0220304
0.0269765
0.0261674
0.219878
0.0245728
0.0236604
5.6221
0.0213434
0.840119
0.0236222
0.0330695
0.0250517
0.20213
0.0216333
0.0521887
2.80683
0.228946
0.021453
0.0245909
0.0233445
0.0213488
0.021657
0.0326095
0.0186716
0.122714
0.104549
0.0207968
0.197027
0.024756
0.025103
0.115459
0.0220459
0.0552081
0.74643
0.02028
0.0554866
0.0737828
0.0318746
0.0211068
0.0209033
0.0213124
6.92767
0.0221576
0.0216022
0.0368239
0.0212346
0.021
0.100499
0.232507
0.040418
1.93639
0.047899
3.47954
0.0216617
0.0252233
0.576741
0.0229746
0.0321392
0.0214795
0.0211464
0.0217482
0.0250283
0.059039
0.0211025
0.196202
0.0221605
0.650176
0.0236487
0.0259087
0.0205585
0.0679544
0.0266886
2.71922
0.042627
0.0218469
2.68838
0.0223702
3.81356
0.0231372
0.0618244
0.0238536
0.0209837
0.0214375
3.31818
0.0269089
0.0950967
1.87154
0.0213421
0.0321215
0.0196237
0.0254871
0.421106
0.0196612
4.14948
0.023444
0.0622253
0.09276
0.143522
0.0203938
0.0212357
0.0919444
0.0208154
0.0217029
0.0228636
0.021554
0.0369365
0.0203812
0.120776
0.0222172
5.47474
3.92415
0.495813
3.46595
1.88645
7.29321
0.430094
0.0207616
0.0219951
0.0215628
0.0223931
0.0211249
0.02702
0.0212466
0.252971
0.0217353
1.44673
0.0220834
0.028967
0.0802387
0.0211072
0.0387407
0.0223705
0.0227014
0.0252495
0.0207582
3.71538
0.0683075
0.227831
0.0211419
0.0215082
0.0221112
0.0222487
3.05576
0.0207843
0.117406
0.0211258
0.278836
0.0260988
0.0212419
0.0537803
0.0281012
0.0207966
0.269333
2.67823
0.0240197
0.067753
0.0207948
0.118696
0.021446
0.0222444
3.42025
0.0214396
0.0222208
0.0792899
3.75985
0.0217906
0.561975
1.64604
0.0219209
0.0232644
0.0215998
2.24515
0.0214814
0.103644
0.0216708
3.329
0.026457
2.13487
0.0214112
0.0202155
0.231401
0.0231315
0.0212112
3.59996
0.0228652
0.0209393
0.886238
0.021911
0.0219903
0.0629298
0.0229722
3.13969
0.0367007
0.0633707
0.142995
0.023332
3.26989
0.0224243
0.0589899
0.0213912
3.5674
0.286251
0.0218185
0.0215047
0.0221495
0.0218921
0.0209886
0.0207003
0.021094
0.0214286
0.027736
0.0202806
0.0226947
0.0629493
3.03049
2.71164
0.0736538
0.0221188
0.258169
0.0211976
0.457851
0.587491
23.4552
0.0203021
0.0207717
0.0217501
0.0216603
0.0202828
0.0208723
0.0212595
0.0346582
0.0209468
10.0696
0.803554
0.0209899
3.34833
0.0214019
0.0213483
0.0275592
2.75588
0.054491
0.0212744
0.303901
0.0213368
0.0213602
0.211929
0.0220993
1.90137
0.0222912
0.0746026
0.020954
0.0210649
0.0294471
0.070382
0.0227183
2.96001
0.0295689
0.0230935
0.0235682
0.0215057
0.0208813
0.0789771
0.0313002
0.0244115
3.02606
7.32733
0.0581613
0.0832444
0.0210267
3.15222
0.0210018
2.58299
0.0551848
0.0254293
0.0225679
2.10564
1.85429
2.34949
0.0221577
0.64444
0.0210314
0.0212509
0.0322405
0.0221632
0.0216498
0.555762
4.03748
0.0210631
0.0261767
3.3017
0.0213317
0.0202313
0.752682
2.65351
0.0222882
0.0207654
0.0255166
0.0215934
0.021306
0.0325594
0.0254663
0.0215454
0.522986
0.0223247
0.286675
0.493827
0.0284457
3.45351
0.0217948
0.0220427
0.109233
3.77761
0.179356
0.0299208
0.0306525
0.0219441
0.0223211
0.0217288
2.67995
0.0252716
0.0225207
0.0464015
0.0212089
0.230106
0.0660231
0.100061
0.0513146
1.07397
0.353639
2.41738
3.06193
0.0238762
0.769481
0.0202437
0.0512332
0.0681699
0.398212
0.0240687
0.0224592
0.0247918
0.528605
0.0230242
2.64499
0.0321782
0.0770408
2.61239
0.0211307
0.0849018
0.0232361
0.0217002
0.0266926
0.204617
0.020344
0.0207413
0.0225915
2.88892
0.0209401
0.0228876
0.0232963
0.0224163
0.0215605
0.0805666
0.0592264
0.022523
0.0210988
0.0978084
0.102431
0.0352172
3.34918
0.0218162
0.0214518
1.91647
0.0216102
0.0230897
3.09981
3.3455
0.0291217
0.0513493
0.0260029
7.49901
0.120832
0.0306749
2.77504
0.021255
0.0692451
2.74866
0.177687
0.597338
0.351003
0.0206075
0.0216827
0.0245781
0.0215826
0.0217762
0.219926
0.0214425
0.0398978
0.020492
0.0494459
2.62112
0.0230096
2.54285
1.83967
0.0214507
0.0646867
0.0259019
0.0227278
0.0213512
3.23065
0.0617143
3.54738
0.0264525
3.67369
0.0753944
0.0214467
0.518518
0.0323149
0.0243037
0.0212599
0.332597
0.0213572
0.0250178
0.0343669
0.0252709
0.021971
0.0481827
2.12747
0.0211592
0.130135
0.0795827
0.0217023
0.0211748
0.024273
2.11775
0.500513
0.0209095
0.0283116
0.0261067
0.218625
6.51218
0.0216098
0.0209592
0.0206045
0.0215115
0.0249409
0.0237269
2.50663
0.0223311
0.0238088
0.197838
0.0287648
0.0726733
2.68218
3.70244
0.0217949
0.0215684
0.020908
0.0226185
0.0594884
3.77095
0.20767
0.0829541
0.0288837
0.0437671
0.0232268
0.0323305
0.0248011
0.093311
0.0211763
0.119788
0.0240344
0.0207981
0.021752
2.89268
0.0433105
0.13506
3.3031
0.111213
0.0212039
1.20156
0.0237453
0.0212427
2.66755
0.548352
0.0211931
0.0290856
0.0918883
0.0316076
0.022176
0.0203634
0.0211891
0.020916
0.0213443
0.0280036
0.0459018
4.35478
0.0319898
0.0249182
0.0292593
0.0727502
0.0210581
0.0318878
0.178491
0.194791
2.69556
0.022857
0.0203452
3.45676
0.0210739
0.179451
0.022684
0.0390456
0.0219035
0.0211269
0.165083
0.0253274
0.0227893
0.0214988
2.00956
0.319473
3.20004
0.0219813
0.0216385
0.437594
0.0210585
0.0206997
0.106299
0.592481
0.0258997
0.0307861
0.0221182
2.80289
0.0212526
0.0243721
0.0219714
0.020331
0.188887
0.0212492
0.0208944
0.748902
0.0506447
2.01855
0.190972
0.0211914
0.0282458
0.0210061
0.0211584
0.0236424
0.0225893
0.021649
0.162477
0.0216012
0.0626065
0.0263331
0.0293682
0.0216104
0.0228851
0.0212801
3.28506
0.0203215
0.259317
0.0597958
0.0229172
0.0455296
0.0307309
0.0284912
0.0215575
0.025931
0.0209724
0.0207912
0.25287
0.035004
0.0254027
0.0213311
0.021402
0.0212477
0.0688622
0.021208
2.78274
0.0405298
0.021133
0.0213173
0.0206252
0.0403317
0.183429
1.88002
0.0316877
0.227845
0.0290365
0.0833924
0.0238271
2.83478
0.0204843
0.0202854
0.0243442
0.258851
0.0206565
2.84811
0.0216634
0.0214399
0.112403
0.39529
8.10991
0.222797
0.0248788
0.117656
0.181309
0.02066
2.84521
0.0214116
0.0214122
2.10123
0.0205487
2.86988
0.130297
0.0211064
0.0214427
0.0206938
3.63016
0.021585
0.0203596
0.0645307
0.0211965
0.0209729
0.0216509
0.0206703
0.039808
0.0217016
0.0243683
0.0207205
1.44434
0.045882
0.0207403
0.0207485
0.0222438
0.0213021
0.0234453
0.0220541
0.0213379
0.0217252
0.0214807
0.0224717
0.0215161
0.0591632
0.0206168
0.0683597
0.0217688
0.0446225
0.0208714
0.0216269
0.021208
0.0203608
0.0335875
0.0261207
0.0243956
2.02373
0.177452
3.38561
2.69131
0.0682647
3.52827
0.0217037
0.0214929
0.764992
2.45532
0.0213401
3.24517
0.0207261
0.101103
0.68694
0.023343
0.0702268
1.36191
1.82318
0.0212486
0.0412867
0.0210087
0.0223172
0.0237296
3.08351
5.2058
0.0217244
0.0438171
0.39474
0.021792
2.46582
0.243149
0.0230146
0.0209633
0.166439
3.24035
0.0206559
0.0295721
0.0219805
0.262345
0.115441
0.0215971
0.0209049
1.70896
0.0211094
0.021457
0.0220509
0.0207587
2.22291
0.0285203
0.0269783
3.10509
0.0213488
0.0531843
0.0217062
0.15585
0.0486053
0.0369533
0.0208348
0.0263001
0.0210169
0.0216236
0.0233828
0.0215304
2.59016
0.0225786
0.0208045
0.0211704
0.261771
0.0209469
0.275779
2.4015
0.848884
0.0216757
0.0209803
0.0212555
0.629106
0.021845
3.14702
0.021317
1.3609
0.0229319
0.0226878
0.169675
0.0216693
0.0216074
3.2906
0.0937618
2.82411
0.0219235
3.45586
1.8772
0.0216248
3.03532
0.0217691
0.0253813
3.99534
0.0235205
0.0387295
3.61959
0.0288536
0.0582603
0.0215978
2.42962
0.0214369
0.298368
0.0212574
4.15963
0.0214573
0.0215817
0.0236681
0.642825
0.0210179
0.135962
0.0572605
1.2674
0.0212782
0.0279788
3.43855
0.118043
1.98453
0.0665145
0.0208657
0.0948023
1.35726
0.0239226
1.80249
0.0202468
0.124851
6.11675
0.0210651
6.40883
0.0213195
3.39161
1.93785
0.0234886
0.0239619
0.326808
0.811539
0.021479
0.0226197
0.0207753
0.0216351
3.15111
0.0561936
0.154733
0.0218386
0.0262508
2.91357
0.0279997
0.378197
1.92
0.0211526
0.0213936
0.15981
2.36712
2.144
0.82677
0.165941
0.0354701
0.0488029
3.39966
2.69575
0.618297
0.0209635
0.0685014
0.039715
0.0616831
0.0214707
0.0251201
0.0521655
0.120771
0.853812
0.022049
1.58034
3.08518
0.0397311
0.0214353
0.0214394
0.0783848
0.0210182
3.51965
0.0267641
0.023603
0.124798
0.0326788
0.0207264
0.0326689
0.0278532
0.0214947
3.66851
0.0245721
3.69724
0.0210328
2.91727
0.270567
0.167498
0.0203598
0.0255712
0.0292516
0.160211
0.0986133
0.0584957
3.15651
0.402975
0.0197045
0.0249589
0.0223593
0.106668
6.20159
0.0209087
0.0207014
0.0225814
1.44835
0.339017
0.0210977
0.0447912
0.119894
0.0209405
0.0356045
0.0237571
3.68154
0.0269702
0.306297
3.2381
0.0268306
0.0243013
1.65534
0.0211663
0.0425563
2.75256
0.0247741
0.0775995
0.0292257
0.0503046
2.33169
3.41146
0.0215776
1.04676
0.273223
0.0205591
0.1096
0.0576139
0.0956248
2.55907
0.464628
0.788246
0.0927471
2.64844
0.0258855
0.0567793
0.0206581
0.0217394
0.0215477
0.020954
0.174666
0.122098
0.0203475
0.0425886
0.143969
0.0211514
0.584064
3.08004
0.020244
0.021805
0.0207635
0.022576
0.0393435
0.0214332
3.95082
0.0277223
0.0606092
0.0255916
0.06013
0.0476128
0.0318448
1.56199
0.0214949
0.0226701
0.0203071
0.0209773
3.47316
0.0802586
0.0276246
3.48334
0.0219083
0.0221526
0.0304783
0.0207623
0.0210905
0.0656299
0.0245886
3.0986
1.98978
3.11521
0.0216263
2.71672
0.0212806
0.312535
0.0207049
0.119041
2.14066
0.0215631
1.04127
3.36369
0.0305826
0.0225441
0.0209698
0.0266409
2.58082
0.0207309
0.0217824
0.0225919
0.02411
0.161292
0.0229032
0.024837
0.0211216
0.0224035
1.70041
0.0312655
0.0239454
0.106807
0.074927
3.16999
0.583857
0.0233869
0.0225478
2.80626
0.0214919
0.0568668
0.0216519
3.19426
0.0222913
0.022129
0.0312128
2.7614
0.0213967
0.0208285
0.0204656
0.120088
9.34233
0.102255
0.0214853
0.023826
0.0209478
3.16964
0.0212444
2.21655
0.0495035
0.0219106
0.152182
0.0323571
0.252713
0.0220111
0.0206892
0.0283808
0.038409
0.111377
0.021725
0.02201
0.0221688
2.74822
0.0216984
0.0224389
3.37292
0.0229529
0.0270131
0.023984
0.0211882
0.0213316
0.610174
0.0230754
1.35605
0.258448
0.0200355
1.90055
0.0218972
0.0907325
0.0433677
0.0227017
0.0203944
0.0200112
0.0214218
0.84856
0.0417085
3.33744
2.60549
0.0209928
0.0180216
0.0354683
1.09003
0.0214231
0.354912
3.41957
3.07369
0.0212961
0.0227507
0.0219803
0.275192
3.44524
0.0235745
0.0215558
0.0284238
3.94881
0.0216739
0.0228105
0.0230053
0.0985288
0.768809
0.0205089
2.64549
0.0285271
0.0214238
2.63441
0.0492545
1.91544
0.436742
0.0301775
0.0256264
0.0224886
0.0260565
0.0221702
0.0619956
0.0430259
0.0213469
0.0238418
0.188481
2.05538
0.0207138
0.0938864
2.59051
1.88285
0.0214824
0.021564
0.258858
2.68289
0.0740191
0.0212346
2.42161
0.0570138
0.0201008
4.35219
0.0262289
0.0218093
0.302411
0.0215511
0.0307284
0.0209428
0.0199067
0.0217274
0.0204598
3.0865
0.0203226
0.0211892
0.0666204
0.0242903
0.0243005
0.114424
0.0215698
0.021487
0.0227783
0.0223816
0.235359
0.227081
0.424122
0.854382
0.0333315
0.462249
0.042894
2.77135
2.07925
3.01676
0.0209427
0.0288873
0.0214423
0.0216241
0.0210346
0.0222583
0.1586
0.0513108
0.035401
0.0211279
0.0213993
0.0483812
0.0217684
0.0219707
0.0215844
3.18894
0.0291006
7.53211
0.0216152
0.253021
0.0220586
0.0220568
0.0222915
0.0378808
0.0211002
0.0735746
2.80836
0.0377641
3.51646
0.642477
0.0229948
0.0262316
0.266437
0.0977663
0.0205003
0.0209786
0.0200325
2.62106
0.0198933
0.0674453
0.0406849
0.0668753
1.51018
1.51396
0.0562278
3.70528
0.0206709
0.0204613
0.180694
2.91653
0.0214494
0.0216014
0.200766
0.0209768
0.147321
0.0229684
0.0211935
0.0248291
0.0215305
0.0617841
2.72733
3.00109
0.0240972
0.0215402
0.0690407
0.0224621
0.0675599
0.0209372
0.115925
0.0771207
0.0219659
0.0217607
0.0200802
0.107903
0.0465642
0.164801
2.3058
0.0280064
2.94653
0.0635478
0.0933582
3.29637
0.0212986
2.60621
0.0222788
3.21901
0.156699
2.59872
3.17273
0.0218346
0.0474709
0.192765
0.021596
3.73219
0.0215407
0.0215203
0.0249949
0.0220479
0.0285532
0.193377
1.36656
3.78603
0.0249475
0.0368082
0.0225118
0.02207
0.0216737
0.113374
0.0742651
2.45035
0.0400639
0.0203964
0.0207865
0.0222116
0.201809
0.0239321
0.0225862
0.0244111
0.0783855
0.0291743
0.0390152
0.0358247
2.6465
0.0277017
0.0301029
0.0214288
0.0250535
1.11862
0.126397
0.0426264
0.0207542
2.60875
0.0301953
0.0212042
0.0427513
2.80014
0.377029
0.0310815
0.0209905
2.70588
0.0220151
0.0209484
0.0204453
2.09329
1.89433
0.0229647
2.48513
2.97243
0.0248702
0.0359112
0.0524184
3.66171
0.0287234
3.41073
0.0220667
0.0369764
0.0249384
3.57402
0.0305984
0.0208814
2.95337
0.0217131
0.0223221
1.63841
3.06301
0.0608464
1.56211
0.0238302
0.0225097
2.47456
0.0212047
0.0211975
0.0215853
0.0400594
0.0214087
0.0301468
0.0248514
0.367708
1.64077
0.0221149
3.70382
0.0246697
2.88972
3.37803
0.0215618
0.0217336
0.0246311
0.196652
0.158244
0.0578525
2.79899
2.61042
0.583939
0.0227981
2.76338
2.99885
0.0433038
1.28878
0.0216692
0.021462
0.0215997
0.0225261
0.0213134
0.0303966
3.05235
0.0302393
0.262792
4.7778
2.66571
2.88355
3.2264
0.0280074
3.55532
0.093208
0.0641568
0.0206832
0.021644
0.0589833
3.94369
0.0227965
2.77166
3.0638
0.0209918
0.0216057
0.0217572
0.0768234
0.022117
0.0630704
2.61604
0.0206858
0.0214131
0.0209632
0.0221983
0.0843099
2.84578
0.0337391
2.9873
0.0958477
0.0211817
0.250585
0.113521
0.0215787
0.423199
1.26652
2.35033
2.06389
3.35609
0.0215056
2.49214
2.89054
0.140453
2.98711
0.0210273
0.0231209
0.023521
0.0230418
3.22891
0.0573741
0.02171
0.0260349
0.286709
2.9802
0.0226723
0.0231435
3.45695
3.20131
0.0217185
0.0267471
0.0921532
0.0213334
0.0214217
2.1007
0.0211425
0.217323
0.251089
3.31873
0.0210811
0.0648813
0.124922
0.0211724
0.020171
1.95829
2.19504
0.0221566
0.0319692
0.151305
0.182663
3.45101
2.40665
0.024897
0.248993
0.309629
0.0317591
0.0211209
0.0795308
0.0204132
0.0202841
3.15787
0.0347637
0.081714
0.0238201
0.0258711
0.0210222
0.0204492
0.0220756
0.0222544
2.57699
0.0236298
2.14853
5.99899
0.0394349
0.0618655
2.53572
3.4968
2.55181
0.0211625
0.024143
0.0322151
0.0247144
0.145705
0.256324
0.022053
2.02501
3.17306
0.0256292
0.0787737
0.0652455
0.0860038
0.0939181
0.0225609
0.104593
0.114534
0.126092
0.139701
0.0967831
0.0714945
0.0264988
0.0211046
0.0302078
0.0781915
0.0211133
0.975009
3.60908
0.12594
2.89191
0.0201323
0.020738
0.0426074
2.89895
0.0221852
0.023669
0.0553257
2.99408
0.280021
0.0215309
0.0297113
0.0244472
5.67013
0.288395
0.0236179
0.430098
2.94806
0.0876756
3.31468
0.0826975
0.369046
3.55228
0.0196138
3.64895
3.05145
0.0224594
0.0609401
0.0854309
0.0253644
0.0209449
0.284967
1.16934
0.0208433
0.0208943
2.29547
0.627117
0.0685744
0.0217659
0.187581
0.113328
3.03035
3.64191
0.021585
0.0213841
0.0221434
0.0230801
3.36212
0.237495
2.94703
0.0728088
0.15136
0.613428
0.0230498
0.0210697
3.0139
0.0209726
3.49147
0.0211218
3.30617
0.0223912
0.022434
0.300943
0.0216506
0.096844
0.215863
0.0243656
0.02351
0.0225005
0.15349
3.18994
0.137929
2.93114
0.0243903
0.0226906
0.0263412
0.0661055
3.76431
3.51162
0.0843822
0.190893
0.107346
2.71861
0.0210938
0.0209252
0.0207034
0.0206847
0.156225
0.061584
0.253305
0.0376062
0.12806
0.0211784
0.269275
1.43039
5.61641
0.021474
0.0226348
0.0199256
2.89042
0.0548906
0.62425
0.147478
0.104814
0.163056
0.0200563
0.033546
0.138164
0.161714
0.520758
0.0216691
0.115384
0.0220972
0.0220765
0.0890234
0.828779
1.88135
0.0218904
0.0747499
0.134406
2.88757
5.12203
3.37641
3.36733
0.0211004
0.0531974
0.0217681
0.119753
0.0212604
0.0970691
0.0232652
0.0434649
0.247327
0.238326
0.0238132
0.0937299
3.02574
0.099738
0.0235314
1.75311
0.0914413
0.0221229
0.0224531
3.27323
0.0271752
0.111368
0.288919
0.350326
3.95969
0.0231435
3.00005
2.78314
0.545346
0.168221
0.029218
0.0939482
0.0848651
3.32681
0.060621
0.0220814
1.27772
0.0449823
0.659878
0.0265316
4.00608
1.30352
1.8317
0.0251546
1.48191
0.0237584
2.96749
0.140595
2.14262
7.22444
0.020953
0.0199145
2.99871
3.6118
0.0296097
0.0220098
0.0385482
0.0293795
3.0039
0.0692405
3.07671
0.0251713
3.13598
0.107842
1.06577
0.0220426
0.171982
3.64655
0.0241415
0.0731269
0.0201024
0.023765
0.0216272
0.250008
0.021227
0.0216231
3.52698
2.76465
0.0206658
3.68955
0.02224
0.0216383
0.0213172
0.0209824
0.0217473
0.501936
3.42636
0.0206467
1.61999
0.0594199
0.0425852
1.69367
0.0749324
0.0247765
0.029615
0.0213023
0.250662
0.0292077
3.72775
0.0250062
3.11402
0.855343
0.0619421
1.73346
3.21001
0.0208008
3.57231
0.0492961
0.0578096
0.0384584
0.0212374
0.0383116
0.162281
0.0215877
0.0865166
0.0214248
3.34475
0.124502
2.35503
0.150431
0.14371
3.49646
0.0216042
0.0212574
0.0553061
0.0227574
0.0217324
0.0217578
0.0261647
0.0211498
0.0212097
0.0225313
0.039365
0.0229933
0.0263065
0.0230052
0.0349582
0.0867978
0.0232648
3.43844
0.0230467
0.0212711
0.0815324
0.0378811
0.02322
0.0211432
1.63599
0.0230695
3.07904
0.0232242
0.0999234
0.0213143
0.0215438
0.0934249
3.59485
0.0622274
0.0328039
0.0201533
3.04788
0.021649
0.0211737
0.0677017
0.0235007
0.126149
3.00344
0.0866577
0.128023
0.0381823
4.00407
0.0215706
0.0216349
0.0559814
0.248312
0.0528607
0.0883303
3.04857
0.0264689
0.0215846
0.0265259
0.188624
0.0505878
0.0216052
0.0889822
0.0839715
0.0569697
0.0217406
0.0216377
0.1489
0.056071
1.94601
0.497737
0.0236696
0.0624944
0.0217181
0.039704
2.42491
0.0217347
0.151151
0.105548
0.0732362
1.16505
0.0215536
0.0214577
0.0212561
3.52543
0.188993
0.0232673
0.0903043
0.0972227
0.0216965
0.0215205
0.123182
3.63319
0.146904
3.0546
0.118636
0.0286116
0.36182
0.106563
0.0284443
0.510439
0.0769158
0.55445
0.0215358
0.0844307
0.11739
0.0223116
1.77533
0.0362144
0.080039
0.0260943
0.129278
0.0211543
3.91241
0.0239251
0.0208192
0.0209781
0.020781
0.0225599
0.0223586
0.0209488
0.0236104
0.0216529
0.0222663
0.249699
0.0694445
0.0221127
0.0564859
0.0240835
0.0234712
0.02041
0.0416246
0.0266501
2.36348
0.0215706
0.0215898
0.0609744
0.332326
0.021612
0.0215616
0.100447
0.0231622
0.0820383
0.0536673
0.0217177
9.0116
0.0233405
0.0222498
0.0678426
3.74001
0.0223441
0.0517023
0.0208401
0.0248941
0.0214645
0.0262354
0.0212118
0.0216037
0.0433404
0.0540306
8.73483
0.0456555
0.021516
0.0273069
3.19052
0.0466723
0.154548
0.0885586
0.0216358
0.0483753
0.88848
0.166182
1.87451
0.0251191
3.28332
0.265572
0.0285343
0.0217019
0.0669351
0.0221894
0.0501126
3.01052
0.0216156
0.0495624
0.0218275
2.74923
0.0444548
0.0222903
0.0546611
2.87002
0.465412
0.0234141
0.0647897
0.0286117
0.0206489
1.96404
0.0205197
0.0320385
0.0211155
0.0247891
2.64273
0.064037
0.0208107
0.0281763
0.145167
0.0215832
0.0219301
0.0269888
0.0250548
0.0214738
0.0233436
0.024285
0.0220447
0.0211315
0.0548791
0.0907282
0.155674
0.0210397
0.0517754
2.89983
4.25381
0.0211293
0.0216464
0.0243791
0.0800401
0.0221781
0.0211263
0.0212553
0.0209219
0.025642
0.0263082
0.0249701
0.0580362
0.0230742
0.0204231
0.0231524
0.0567103
0.0426373
0.0938285
0.022119
0.0274358
3.12168
0.0284898
0.0240386
4.05715
3.11627
0.08645
0.0602201
0.141027
0.0214887
0.293429
0.0265468
5.56593
0.0214192
0.021236
1.55518
0.0208282
0.255789
2.66621
0.0219539
13.6799
0.0289295
0.0298919
0.0260782
0.0654945
0.0280979
0.0253691
1.5323
0.0209112
0.023704
3.44047
0.0230892
0.0215598
0.0287691
3.08324
0.0221551
0.022161
3.14909
0.0236836
0.0260153
0.051789
0.0203455
5.82057
0.0236091
0.0223352
0.0935664
0.0509396
3.02734
0.0230973
1.98044
0.031247
0.0799615
2.32638
0.0215972
0.030449
0.0794496
0.022108
2.12282
0.0222213
0.0229181
2.81754
0.0222661
0.0375154
0.0789475
0.367683
0.0283818
0.025623
0.0222303
0.0234188
0.0786118
0.0240579
0.0289042
0.0755784
0.0479957
0.0218364
3.32263
0.0349828
0.0204357
0.022752
0.021245
0.0207772
0.0203505
0.0216359
0.0215574
0.0284389
0.0234333
0.0384886
0.0202007
0.0204472
0.0228548
0.0698647
0.020758
0.029874
0.057028
0.0278586
0.0284182
0.0215204
0.0229296
0.0237973
0.0357955
0.0277973
0.0242306
2.59449
0.021806
1.91573
0.0241711
0.0778126
0.0786669
0.0216015
0.0524139
0.0293794
3.04757
2.93414
0.0246244
0.021751
0.023161
0.0280722
0.0433494
0.0215788
0.136517
0.0479525
0.0227111
0.0538641
0.0442209
0.0578212
0.0277235
0.305231
0.0885889
0.0266017
0.464034
0.0230469
0.113349
0.0223505
0.0212893
0.0723425
0.0751168
0.021404
0.0459868
0.0214488
0.021651
0.0214974
0.0219846
0.0215234
0.0214162
0.0214084
0.0222899
0.144023
0.022718
0.0213596
0.0226058
0.0224688
0.166742
2.84801
0.0537153
0.0237757
3.23843
0.0214551
0.0213731
0.0521137
0.0300899
0.0223138
0.0223057
0.0217018
0.128583
0.0218534
0.0247572
0.022359
0.0321979
3.68311
0.0214603
0.0541199
0.0584078
0.0244257
0.0399129
0.0206499
0.0216876
0.0548264
1.93183
0.0229444
0.0340998
2.05285
0.0820614
0.0207873
2.4974
0.0226346
0.019702
0.0510799
3.49319
0.0215893
0.0207515
0.0228613
0.0300618
0.0322162
0.0214312
0.0223699
0.0369607
0.0216819
0.0278439
0.0249429
1.13478
0.0205383
2.84349
0.350464
0.0367651
0.0214205
0.0808177
0.0210954
0.0232335
0.021624
0.0498195
0.0201789
0.0201604
0.037478
0.0544367
0.836105
0.021952
0.0201321
0.0229712
0.0208209
2.77437
0.0234112
0.0226682
0.0220824
0.0552736
0.0431281
0.0231699
0.0231113
0.0406555
0.0217358
0.0215639
0.0230853
0.0220767
0.12254
0.0212053
0.0298584
0.0219382
0.0215248
0.0445912
0.0807935
2.67
0.0215036
0.0514838
0.142127
2.92354
3.27546
0.0307709
0.0215699
0.0240392
0.0284972
2.5197
0.0219183
0.0244886
0.0260624
0.0289953
0.0202246
0.0488957
0.042235
1.12592
0.022048
0.0216774
0.0808306
1.04708
0.0201128
0.0240108
0.0311037
0.0200241
0.0224286
0.0413945
0.0216759
0.021476
0.0217071
0.0239045
0.072622
0.033584
0.0224044
0.0206138
0.0222488
0.119669
0.0199482
0.0208739
0.0253185
0.0792504
0.0248265
3.49854
0.0240562
0.0215031
0.0215331
0.022898
0.0212148
0.0308618
0.0628441
0.0209249
0.0210185
0.0219777
0.0213135
0.0222125
0.042594
2.52453
0.0228368
0.0896964
0.023445
0.0213307
0.185771
0.023246
3.53516
0.0217799
0.0218511
0.0207605
0.0214963
0.022478
0.0287561
0.0392124
0.401346
0.0273824
0.0482797
0.0218432
0.0324784
0.0214433
0.0231653
0.0310151
2.52685
3.04983
0.0219379
3.17279
0.554825
0.038511
1.78803
0.0199443
0.0214175
0.0217631
0.0228058
2.68533
0.0207733
0.0631248
0.264842
0.0224669
0.0741154
0.0200077
0.0301709
0.259422
1.24966
0.0218816
0.271057
0.101849
0.312481
0.0254647
3.27629
0.0224572
0.121654
0.0923038
0.0205167
0.0375746
0.0302186
0.0232666
0.359687
0.0288445
0.020938
0.0222093
0.309234
0.0217815
0.0491612
0.021571
0.0199163
0.0231458
0.0304553
0.0215453
0.0729541
0.0263337
0.0239264
0.0199379
0.0215667
0.452393
0.0720327
0.117766
0.0313931
0.0243848
0.0274754
0.0253597
0.0214709
0.0226105
0.0323229
0.0229709
0.0237027
0.0203849
0.0251137
2.89156
0.0219414
2.16954
0.1237
0.0216962
0.021682
0.0202434
0.0277178
0.0351366
0.0200898
0.0247672
0.0229869
0.0220779
0.0212017
0.0221219
0.0213781
0.0216889
0.241863
0.0220716
0.0262706
0.0214626
0.146488
0.301579
0.0214903
0.268768
0.0216962
0.0235313
0.0300372
0.311763
0.0277705
0.0210155
0.0214604
0.0324975
0.0394647
0.132832
0.0228671
0.0453332
0.104302
0.0219218
0.0215405
0.120338
0.0476462
0.0293332
0.0216717
0.0221235
0.0225635
0.023289
0.0209207
1.93563