/*--------------------------------*- C++ -*----------------------------------*\
| =========                 |                                                 |
| \\      /  F ield         | OpenFOAM: The Open Source CFD Toolbox           |
|  \\    /   O peration     | Version:  v2012                                 |
|   \\  /    A nd           | Website:  www.openfoam.com                      |
|    \\/     M anipulation  |                                                 |
\*---------------------------------------------------------------------------*/
FoamFile
{
    version     2.0;
    format      ascii;
    class       volScalarField;
    location    "100";
    object      nut;
}
// * * * * * * * * * * * * * * * * * * * * * * * * * * * * * * * * * * * * * //

dimensions      [0 2 -1 0 0 0 0];


internalField   nonuniform List<scalar> 
13917
(
0.00378685
0.00182438
0.000441206
0.00487448
0.0052605
0.00195953
0.00285877
0.00188481
0.00243315
0.000273764
0.00245104
0.00684866
0.00388957
0.00518062
0.00550735
0.00236088
0.00681836
0.00188395
0.000541041
0.00206853
0.00193186
0.0068387
0.00132138
0.00683781
0.00494413
0.00160288
0.0110595
0.00019299
0.00128211
0.00681194
0.000212286
0.00124293
0.00586937
0.0103148
0.00681546
0.00188431
0.0052287
0.00687485
0.00248619
0.00267615
0.00682187
0.00673888
0.00255637
0.000621797
0.0006453
0.000377821
0.00203832
0.00523412
0.00343471
0.00681335
0.00684971
0.00041454
0.000533066
0.00685107
0.00684888
0.000411828
4.0127e-05
0.0013875
0.00675112
0.000420355
0.0122217
0.00488804
0.00691153
0.00470611
0.00900705
0.00678767
0.00140719
0.00257411
0.00195847
0.00320642
0.00582588
0.00926259
0.00682953
0.0067732
0.00180053
0.0046918
0.00636374
0.00678677
0.00474916
0.00676936
0.00676908
0.00681749
0.00682876
0.00712547
0.00671832
0.00197547
0.000997579
0.00676415
0.00254914
0.00682918
0.00675912
0.00238984
0.00371047
0.00683651
0.00678672
0.00137454
0.00240963
0.00682657
0.0067532
0.0010566
0.00688812
0.00686597
0.00676137
0.00679998
0.00636544
0.00828326
0.00915978
0.0052771
0.00670294
0.0123214
0.006735
0.0107445
0.00131496
0.00395486
0.00888906
0.00398222
0.000594359
0.00679079
0.0004687
0.00680597
0.00683201
0.00681928
0.00147659
0.000535302
0.00383423
0.00697557
0.00487542
0.00166336
0.00683933
0.000586842
0.00181978
0.000880209
0.0139269
0.00450144
0.000926681
0.0116063
0.0143007
0.00410185
0.00142594
0.00686882
0.00952917
0.00680617
0.00790251
0.0068016
0.00682379
0.00675
0.00583508
0.00905011
0.00413274
0.00685201
0.00273998
0.0068739
0.0068184
0.00680516
0.00489657
0.0066979
0.00679449
0.0142341
0.00681888
0.00680686
0.00673867
0.00782027
0.00416033
0.00995102
0.00807568
0.000489848
0.000215992
0.00863594
0.00668423
0.00139193
0.00682036
0.0135247
0.002375
0.0109464
0.000931505
0.006843
0.0051786
0.000373669
0.00191188
0.00382279
0.00269131
0.00683146
0.00685113
0.00027656
0.000519928
0.000662599
0.00685065
0.000287508
0.00680507
0.00168611
0.000941882
0.000669545
0.000358092
0.0039302
0.00683385
0.00403814
0.00405626
0.0136289
0.00681764
0.0067473
0.00235879
0.00330966
0.00276743
0.00651695
0.0130114
0.00177094
0.0027659
0.0068029
0.000394476
0.00677147
0.00676654
0.00493966
0.00453062
0.0051769
0.000969645
0.00151053
0.0100857
0.00686464
0.00674707
0.00674567
0.00809223
0.000340018
0.000278571
0.00671948
0.00692915
0.0120954
0.00285924
0.00672758
0.00672314
0.00680852
0.00675722
0.00675604
0.00836222
0.00829794
0.00682898
0.00669468
0.000789982
0.00816534
0.00683143
0.00671913
0.0131986
0.00818861
0.000301413
0.0103996
0.000555326
0.00680106
0.00857538
0.000714044
0.00133706
0.000888331
0.00657144
0.00762936
0.00681329
0.00416653
0.00122849
0.00681388
0.0067886
0.00476493
0.00600832
0.00680953
0.00722374
0.00573386
0.00681956
0.00671919
0.00668247
0.0067191
0.0068123
0.00686207
0.00229994
0.00680702
0.0061824
0.00954603
0.00682972
0.00626584
0.000272348
0.0067567
0.000826446
0.00906145
0.00675669
0.00532438
0.00681587
0.00726043
0.00685899
0.00596936
0.00680343
0.00680188
0.000374848
0.00685039
0.00118558
0.00399752
0.00534212
0.00674711
0.00971194
0.00386652
0.00681098
0.0013982
0.00591009
0.00422181
0.00575459
0.00493104
0.00683452
0.00686192
0.000413525
0.00504683
0.00427307
0.00492253
0.00671877
0.0140678
0.00188792
0.00683152
0.00854638
0.00429176
0.00927886
0.000790659
0.00998724
0.00978596
0.00542408
0.000752947
0.00629761
0.00609662
0.00935391
0.000717484
0.00685039
0.00574273
0.0110622
0.00677158
0.00193865
0.000696428
0.00681176
0.0134158
0.0067237
0.00156189
0.00680544
0.000379313
0.0067158
0.00448553
0.00153667
0.00488648
0.00682559
0.000838948
0.00698085
0.00680501
0.00677246
0.0115069
0.00729273
0.00391166
0.00782799
0.00674554
0.00683419
0.00850508
0.000747807
0.00674688
0.00541173
0.00685323
0.0011344
0.00437674
0.000434697
0.000626922
0.000930921
0.00149036
0.00855095
0.00684341
0.00680316
0.00443998
0.000334019
0.00681517
0.00288444
0.00175198
0.0181851
0.00684559
0.00056965
0.00754788
0.00896975
0.0067249
0.0002686
0.000359164
0.00145829
0.00683674
0.000981777
0.00679453
0.00821976
0.000325971
0.0067092
0.00703099
0.00673937
0.00610697
0.00677203
0.00276757
0.00750134
0.00514467
0.013545
0.000901668
0.0066418
0.0070207
0.000987403
0.00581613
0.000361604
0.00684212
0.000865818
0.000582192
0.00672667
0.00264783
0.00505256
0.00678953
0.00671992
0.00684702
0.0145504
0.00036852
0.00682794
0.00684861
0.00685095
0.00160918
0.0108018
0.00678929
0.00668474
0.000869215
0.000620668
0.006811
0.00629816
0.00663763
0.00503
0.0101207
0.000494882
0.00428862
0.0068118
0.00677784
0.00215297
0.00671789
0.00678881
0.00681699
0.00677849
0.00681269
0.00848686
0.00683922
0.00326922
0.00737544
0.00117298
0.00677246
0.00681338
0.00710491
0.00235418
0.00269007
0.00680091
0.00673675
0.00678884
0.00676794
0.00535392
0.00670528
0.00627842
0.00842623
0.00880465
0.00673691
0.001978
0.0107952
0.00678215
0.00056037
0.0040424
0.0068541
0.00928189
0.00677987
0.00675902
0.00685039
0.00673499
0.00675453
0.00681459
0.0140959
0.0107425
0.00674911
0.0105219
0.000783293
0.00679153
0.00111543
0.00142235
0.00806375
0.00231251
0.0082276
0.011954
0.0114033
0.0066991
0.00572886
0.0114056
0.00659431
0.000666283
0.00677209
0.00685546
0.00678513
0.00274897
0.00215127
0.000448049
0.00114997
0.00676899
0.0061374
0.00163913
0.00186242
0.00682711
0.00719836
0.00238424
0.00394807
0.0081997
0.00671864
0.00149657
0.000353226
0.0067135
0.0140395
0.00676802
0.00676786
0.00133918
0.00680124
0.00684573
0.000429743
0.0145145
0.0138208
0.0067348
0.00428571
0.00686246
0.000559351
0.00536362
0.00683906
0.00685015
0.00672891
0.00141248
0.00878656
0.00684411
0.0068279
0.00675557
0.0067795
0.00639674
0.00353272
0.00678745
0.00115624
0.00671356
0.00685147
0.0051607
0.0101636
0.0067026
0.00346496
0.00680665
0.00174353
0.00088146
0.0011327
0.000925234
0.000855809
0.00509736
0.00154172
0.0133154
0.00877012
0.00925835
0.00682301
0.00684977
0.0064392
0.00678089
0.00943903
0.00676865
0.00560855
0.00371298
0.0118021
0.000900847
0.00288288
0.00134963
0.00675069
0.00124696
0.00683901
0.00665485
0.0106328
0.00679898
0.00107999
0.00692875
0.00682253
0.00685068
0.000462589
0.00634403
0.00670578
0.000663939
0.00127476
0.0108747
0.0043712
0.0140271
0.00840333
0.00670315
0.00308577
0.00681677
0.0134598
0.00840845
0.00665073
0.0072598
0.00688742
0.00222336
0.00277532
0.00679804
0.0068364
0.00686661
0.00303444
0.00674484
0.00118019
0.00685346
0.00670311
0.00684274
0.000402414
0.00392806
0.000785941
0.000829341
0.00346702
0.00023734
0.00882713
0.00678302
0.00185846
0.00685618
0.00137362
0.0067825
0.00121575
0.00677359
0.0062979
0.00682771
0.00970948
0.00234997
0.00946094
0.0067896
0.00247943
0.00682496
0.00688196
0.00923448
0.00068159
0.00679866
0.000406265
0.00671883
0.00670087
0.00690346
0.0103215
0.00674421
0.00594713
0.00676894
0.00681255
0.000351458
0.0068854
0.000459344
0.00682091
0.00671458
0.0132525
0.00113237
0.0068425
0.000508542
0.000750941
0.0099754
0.000343461
0.00674585
0.00441568
0.00932589
0.00108377
0.00231079
0.00548874
0.00627026
0.00682954
0.00684281
0.00830021
0.000768407
0.00413471
0.00850482
0.00204632
0.014779
0.00603196
0.00522461
0.00466429
0.000345591
0.0063993
0.0068331
0.00576458
0.00836308
0.00671479
0.00680534
0.00685036
0.00696552
0.00685476
0.00331033
0.00170095
0.00676505
0.000725739
0.00678676
0.0103129
0.00681777
0.00684044
0.0144876
0.000958274
0.0136524
0.00676934
0.00679636
0.00683849
0.00505924
0.00249875
0.00680905
0.0032068
0.00436909
0.00951278
0.0129217
0.0058201
0.0140165
0.00435835
0.0068505
0.00681839
0.00990007
0.0138125
0.00403703
0.00344388
0.00482389
0.00671786
0.0068368
0.00573023
0.00789118
0.01362
0.00247047
0.00516858
0.00326238
0.00129286
0.00640845
0.000433004
0.00164735
0.0067932
0.00532917
0.00682673
0.00250073
0.00611574
0.00102984
0.00400646
0.00701453
0.0033198
0.00711752
0.00440967
0.00526796
0.00207314
0.00367222
0.00106084
0.00683561
0.0013753
0.00355774
0.0214921
0.00678446
0.00415503
0.00688522
0.00675296
0.00682191
0.00340079
0.0100671
0.000490081
0.00045077
0.00674231
0.000405375
0.00229376
0.00245932
0.000374349
0.00682011
0.00131847
0.00294177
0.00669792
0.000938554
0.000713669
0.00172776
0.00680625
0.00675821
0.00684475
0.00227098
0.00575942
0.00679558
0.00164033
0.00681642
0.00679046
0.000463381
0.000799634
0.00325838
0.00641876
0.00113017
0.00857883
0.00681962
0.00628621
0.000102082
0.00665648
0.00342176
0.00682019
0.00679623
0.00683559
0.00381733
0.00103783
0.00680667
0.0143153
0.00677653
0.0072301
0.00478174
0.00238717
0.00680449
0.000724459
0.00592545
0.00611063
0.00283955
0.00682478
0.00994361
0.00576351
0.00639723
0.00285891
0.00337261
0.00650639
0.00681121
0.00677712
0.01135
0.0026739
0.0118231
0.00397544
0.00675014
0.00167133
0.00669085
0.00645475
0.0123988
0.00670061
0.00852219
0.00315877
0.00294042
0.000582442
0.0101434
0.00672945
0.00679566
0.000610581
0.00674735
0.00685281
0.00606055
0.00684946
0.00157658
0.00672634
0.00131074
0.00679494
0.00333021
0.00614326
0.00964507
0.00913096
0.00960574
0.00222835
0.008842
0.00671504
0.00671389
0.00682092
0.00622201
0.00673211
0.00276382
0.00677059
0.00822094
0.00685343
0.00154558
0.00593406
0.00180928
0.000702745
0.00683188
0.00276038
0.00533502
0.00664919
0.00353961
0.00679183
0.0140729
0.000715594
0.0123926
0.00683312
0.00674224
0.0068048
0.0067656
0.00795157
0.00671725
0.000952418
0.00676527
0.0143573
0.00605375
0.00679082
0.00143203
0.00440685
0.00671973
0.0134886
0.00152804
0.00643923
0.000794118
0.00675103
0.00104182
0.00673932
0.00676499
0.00699488
0.0068111
0.00506376
0.000738768
0.00602339
0.0067954
0.00514395
0.000548141
0.00672541
0.00662651
0.00684989
0.0033777
0.00673862
0.000718218
0.00684609
0.0142121
0.00597476
0.0149474
0.00684691
0.0067813
0.00963192
0.0068837
0.0070473
0.0127597
0.00667344
0.00672618
0.00618701
0.00670446
0.00672255
0.000819444
0.00623581
0.00965654
0.00340415
0.00136542
0.000363231
0.00375884
0.0140128
0.00675872
0.000890713
0.00674225
0.00774768
0.0129191
0.00601446
0.00674122
0.00671961
0.00683845
0.00673659
0.00681719
0.00681572
0.00676895
0.00382481
0.00669792
0.00671045
0.000964279
0.00844849
0.00692578
0.000771324
0.00680369
0.00955458
0.00675531
0.000221627
0.0102784
0.000218634
0.00676778
0.00671683
0.00676353
0.00685461
0.00676247
0.00679186
0.00675388
0.00453916
0.0067268
0.000884635
0.00630584
0.00674981
0.0120984
0.00674474
0.00684549
0.0056478
0.0106582
0.00141623
0.00682996
0.0140867
0.00683016
0.00684488
0.000233201
0.00670752
0.00367625
0.00520974
0.00327998
0.00677036
0.00681127
0.00248897
0.0105424
0.00600993
0.0101924
0.00202272
0.00690651
0.00656817
0.00674674
0.00675243
0.000977459
0.00167868
0.00407135
0.0111974
0.00166444
0.0101069
0.000942484
0.00681819
0.0104726
0.00681586
0.0104467
0.00117988
0.00238636
0.00564082
0.0167679
0.0143075
0.00348214
0.00648627
0.00792658
0.00673741
0.00676972
0.00166175
0.0067998
0.00684325
0.00226556
0.00544299
0.00681407
0.00198316
0.00793221
0.00690123
0.00674269
0.00673783
0.0101114
0.00640973
0.0068357
0.00276856
0.00681069
0.0068428
0.00338367
0.00525464
0.00681121
0.0105946
0.00648611
0.00935556
0.0112038
0.00336234
0.00814487
0.00640669
0.00657762
0.00603866
0.00595938
0.00517902
0.00814138
0.00209529
0.0049718
0.00450574
0.0068051
0.00622793
0.00802492
0.00673361
0.00120823
0.00679466
0.0209131
0.000772074
0.000797444
0.00143775
0.000238754
0.0143985
0.00424768
0.0130103
0.0068694
0.000219231
0.00674792
0.00152722
0.000740355
0.0130061
0.00354185
0.00665659
0.0038122
0.0139904
0.00664291
0.00717512
0.00305901
0.000645841
0.0075583
0.00679096
0.00127206
0.0055615
0.0068549
0.0061612
0.00765373
0.00679648
0.0067354
0.00543528
0.00546062
0.00673036
0.00667254
0.00304082
0.00675856
0.0068462
0.000677076
0.00135456
0.0067343
0.0068286
0.00130659
0.00500642
0.00188933
0.0141705
0.00667913
0.00674162
0.0127734
0.00679342
0.00662791
0.0129928
0.0088898
0.00448723
0.00160867
0.00382694
0.0020361
0.000909524
0.00245534
0.00469859
0.00683968
0.000639942
0.00785051
0.000576417
0.00850565
0.0138308
0.00681166
0.00685075
0.00687794
0.00684804
0.00684886
0.00082199
0.00681487
0.00188204
0.00671411
0.00146382
0.00775347
0.00598918
0.000402169
0.00790428
0.00674626
0.0014359
0.00583178
0.00654492
0.00675746
0.0100651
0.000839351
0.00670332
0.00352302
0.00908824
0.000686219
0.00678197
0.00872638
0.00274177
0.00637041
0.00679888
0.000497348
0.00675694
0.00391983
0.00165645
0.00618783
0.00487506
0.00116984
0.0149431
0.00674154
0.000610572
0.00326351
0.0068553
0.00675205
0.0067606
0.0032817
0.000100894
0.00679934
0.00186655
0.00183916
0.0097819
0.00272155
0.00683884
0.0067209
0.00680977
0.00674585
0.00695956
0.00641764
0.00389676
0.00675604
0.00319603
0.00703798
0.00292199
0.000785191
0.00981955
0.00935876
0.00656741
0.00679457
0.0067159
0.00672283
0.00144259
0.0136029
0.0125102
0.000659749
0.00240575
0.00127213
0.00295831
0.00396136
0.00397745
0.000663599
0.0068352
0.0012622
0.00487832
0.00678114
0.00631063
0.0122068
0.00165029
0.00590566
0.00893655
0.000443213
0.00683707
0.000239286
0.00692186
0.006722
0.00288632
0.010367
0.00683458
0.00438348
0.000557024
0.00278174
0.00564476
0.00672561
0.00675641
0.00676882
0.00674628
0.00368543
0.00259522
0.00528799
0.00283699
0.00324589
0.00193886
0.000755497
0.0068243
0.00199416
0.000287637
0.00101106
0.00935765
0.00667604
0.00672559
0.00842581
0.00673148
0.00617375
0.00477132
0.00269783
0.00684003
0.0067358
7.71159e-05
0.0037383
0.00668987
0.00673964
0.0170126
0.000128685
0.00856187
0.00680482
0.00685681
0.0117147
0.00680909
0.00680969
0.000715501
0.00885919
0.00379938
0.00204368
0.00599349
0.00520716
0.00672548
0.00640429
0.00464757
0.0067221
0.00095562
0.00672933
0.00676243
0.00345607
0.00125804
0.0175585
0.000729537
0.00671987
0.00279002
0.00678918
0.00683359
0.00655871
0.00680925
0.00685226
0.000817286
0.00683651
0.000847131
0.00618103
0.00649677
0.00681571
0.00758254
0.00684204
0.0101845
0.00679321
0.0148245
0.000983987
0.00684225
0.00126519
0.00190292
0.00243129
0.00685046
0.00640073
0.00675224
0.00678288
0.0155623
0.0019675
0.00484
0.00679817
0.00682802
0.00679082
0.00154328
0.00679018
0.0100799
0.00166748
0.00680888
0.0067186
0.00675451
0.00192268
0.00545595
0.0125267
0.00368753
0.0226321
0.00635919
0.000591128
0.00648175
0.00546088
0.00671497
0.00678853
0.00413069
0.0144101
0.00675871
0.0118136
0.0068567
0.0067992
0.000681331
0.000514363
0.00197143
0.0147727
0.00363976
0.000851157
0.00607391
0.00681598
0.00595141
0.00674489
0.00684651
0.0110077
0.00673861
0.0120551
0.0110295
0.00676035
0.00677539
0.00681766
0.0136862
0.00685379
0.00672626
0.00100187
0.00672181
0.00678418
0.00676202
0.00681369
0.00141941
0.00683778
0.00640968
0.00671125
0.00983686
0.00725019
0.00671295
0.00671438
0.00652789
0.00671861
0.00309931
0.00679606
0.0068217
0.00683558
0.00674987
0.00675284
0.00682525
0.00140604
0.0067564
0.000737686
0.00684357
0.00174649
0.00679284
0.00685145
0.00680338
0.00679575
0.00240825
0.0060362
0.0025886
0.0176192
0.00385172
0.0141458
0.01024
0.00081767
0.00925646
0.00685235
0.00681782
0.00440494
0.0103754
0.00679435
0.00839294
0.00676944
0.000919954
0.0074598
0.00329423
0.000718255
0.00173405
0.0136606
0.00679465
0.00137453
0.00675483
0.00793444
0.00338695
0.0128241
0.00298021
0.00685255
0.00571092
0.00364065
0.00682292
0.000500447
0.0149644
0.00579709
0.00671631
0.0109223
0.00936957
0.00681496
0.0019216
0.00682633
0.00138354
0.00042752
0.00685474
0.00680104
0.00224071
0.00683069
0.0067457
0.00515391
0.0067396
0.000249941
0.00484424
0.00280855
0.0111755
0.00674596
0.000990595
0.00682638
0.0112609
0.00167135
0.00755385
0.00678685
0.00281091
0.00682594
0.00681127
0.00295033
0.00684512
0.000546246
0.00673065
0.00674966
0.00674149
0.0141463
0.00671671
0.0138076
0.00338408
0.00453582
0.00683778
0.00681311
0.00673227
0.00568506
0.00684336
0.00647271
0.00680033
0.00148067
0.00665699
0.00662178
0.00020962
0.00685394
0.00682779
0.00880924
0.000544737
0.0117097
0.00675284
0.0115306
0.00311216
0.00685597
0.00990168
0.00685088
0.00617027
0.00883648
0.00654256
0.00140398
0.00653701
0.00263559
0.000889557
0.00680637
0.0041452
0.00674839
0.0137905
0.00672845
0.00523212
0.00675063
0.00674729
0.00652895
0.00768845
0.00681874
0.00383235
0.00119661
0.00199772
0.0067562
0.00259523
0.011684
0.00894915
0.0013227
0.000780426
0.00679445
0.00046972
0.00132653
0.00645937
0.000312178
0.00678521
0.000350004
0.00291674
0.00682696
0.00279398
0.00671875
0.0106472
0.000273679
0.00481872
0.00649865
0.0136924
0.00479652
0.0067356
0.00477943
0.00674548
0.00685476
0.00878573
0.00130317
0.000208483
0.00682093
0.00380323
0.0122279
0.00534999
0.00736885
0.00294267
0.00671818
0.00673603
0.000591299
0.00815605
0.0116462
0.00523475
0.000900896
0.00205047
0.00294126
0.0123236
0.00840922
0.00830555
0.00671645
0.000668878
0.00211264
0.00101505
0.00681936
0.00243861
0.00160229
0.00114546
0.00436539
0.00670095
0.0012083
0.0108678
0.0013573
0.00673591
0.00673953
0.012485
0.00682408
0.014222
0.00397099
0.00669539
0.000498361
0.00492754
0.00671255
0.00274369
0.00224316
0.00682297
0.0131754
0.00745824
0.0139245
0.00683272
0.0107371
0.000184453
0.000648056
0.0067967
0.00364401
0.00237916
0.00181175
0.00051422
0.000983358
0.00883478
0.000768962
0.00671409
0.00420189
0.0066997
0.000421551
0.00277565
0.00682432
0.00671044
0.00608812
0.000755342
0.00177051
0.00683349
0.00258208
0.00056856
0.00672236
0.00429774
0.00649007
0.0123769
0.00590424
0.00606325
0.00683111
0.00285424
0.00638416
0.000349015
0.00675321
0.0013688
0.00922283
0.00475971
0.000887192
0.00178637
0.00119384
0.00788418
0.0112733
0.00680304
0.00859439
0.00114242
0.00673724
0.000795272
0.0009128
0.000593316
0.000700457
0.00420638
0.00609438
0.000536837
0.00956741
0.00389327
0.00132004
0.00684723
0.00683285
0.00683928
0.00674652
0.000228264
0.00128372
0.00679355
0.00187133
0.000592001
0.00674901
0.00872414
0.00940985
0.00680775
0.00684508
0.00687514
0.00672924
0.00147582
0.0067489
0.00905835
0.00240157
0.00087554
0.00612042
0.00113347
0.0032199
0.00259569
0.00582828
0.00682625
0.0067142
0.00679251
0.00682672
0.0127395
0.00126701
0.00275654
0.0101786
0.00681402
0.00680507
0.00217563
0.00677534
0.00681629
0.000888798
0.00369282
0.00845706
0.0175931
0.0122913
0.00679893
0.0157539
0.00675539
0.000456979
0.00671118
0.000535653
0.016125
0.00676881
0.000545089
0.0076994
0.00220332
0.00683344
0.00679724
0.00327411
0.00295051
0.00673596
0.00683441
0.00685749
0.00687759
0.000648654
0.00683402
0.00379068
0.00671795
0.00683781
0.000199453
0.00308034
0.00648969
0.000409288
0.0107257
0.0127872
0.0139304
0.00690648
0.00673664
0.00907877
0.00683061
0.000958117
0.00681659
0.00897694
0.0067406
0.00678923
0.0043642
0.00673139
0.00673253
0.00678863
0.00671116
0.0012616
0.00121687
0.000448097
0.0067325
0.00647837
0.0067306
0.010849
0.00693946
0.00259336
0.0012437
0.00681248
0.000366981
0.00235751
0.0148682
0.00427708
0.00681199
0.00435664
0.0015473
0.000720552
0.0068388
0.00682156
0.00674898
0.01122
0.00678607
0.00682168
0.0110018
0.0066573
0.00784272
0.00365964
0.00683545
0.0068275
0.0102067
0.00308085
0.00189402
0.0129172
0.00672605
0.00162968
0.0068399
0.000480769
0.00374375
0.0068109
0.00679894
0.00672278
0.0067484
0.00875517
0.00137375
0.00989124
0.00991838
0.00675767
0.00504127
0.00224709
0.00175001
0.00676238
0.00931308
0.0115581
0.00764226
0.00677623
0.00477758
0.0067219
0.00959758
0.0125914
0.00666092
0.00674252
0.00250588
0.00854666
0.00683805
0.00467512
0.00664664
0.000965981
0.000171392
0.00671264
0.00755108
0.00524567
0.00673411
0.00163255
0.00122165
0.00189372
0.0143496
0.00238087
0.00612551
0.00684576
0.00382122
0.00680128
0.00194785
0.00136148
0.00682028
0.00356576
0.000311693
0.0172412
0.00673218
0.000540161
0.0160356
0.00454217
0.00680211
0.00682754
0.0161784
0.00485143
0.00393461
0.00682312
0.0145736
0.0013196
0.00674676
0.00522758
0.00353956
0.00684845
0.000453914
0.00685062
0.00107675
0.00680708
0.00669965
0.00683643
0.0067118
0.00878106
0.00679258
0.00673031
0.000760638
0.0026036
0.00638408
0.000545622
0.00685377
0.00673521
0.00619119
0.00676875
0.0178494
0.0231372
0.000364341
0.0108022
0.00254465
0.0124055
0.00416866
0.00959358
0.0170987
0.00833457
0.00676062
0.00253473
0.00676527
0.00685816
0.00683128
0.00668309
0.000805704
0.00132847
0.00158477
0.00674597
0.00673567
0.0014391
0.00683877
0.0068286
0.00685554
0.011569
0.00417008
0.00192098
0.00679202
0.0150033
0.0068172
0.00679594
0.00679203
0.00150541
0.00676205
0.000642989
0.0107779
0.00171733
0.00794086
0.00944743
0.00681605
0.00361424
0.0116439
0.000492626
0.00680176
0.00682854
0.00672819
0.0101226
0.00670402
0.00460878
0.0014192
0.000767314
0.00395627
0.010183
0.00102741
0.0133588
0.00681723
0.00670318
0.0072842
0.00561265
0.00681034
0.00680409
0.016021
0.00671721
0.000367832
0.00685071
0.0069297
0.00398398
0.0068011
0.000815326
0.0105863
0.0090903
0.00357233
0.0068001
0.000824751
0.0059489
0.00085985
0.00674208
0.000664034
0.00101838
0.00682706
0.00685063
0.00673514
0.000649136
0.00336908
0.000631295
0.000259181
0.00406393
0.00670491
0.000960159
0.000998138
0.0100139
0.00675812
0.00982269
0.00624431
0.0113443
6.73155e-05
0.00968231
0.00924513
0.00682019
0.00194628
0.0078877
0.00684473
0.00625594
0.0068493
0.00681245
0.00306861
0.00599709
0.00209767
0.000204422
0.0020963
0.00897143
0.00385311
0.00175064
0.00674197
0.00678932
0.00682485
0.000450265
0.000795297
0.0123351
0.00402075
0.00679594
0.00674328
0.00680066
0.000995072
0.00645621
0.00674008
0.00414808
0.000866272
0.00203166
0.00134383
0.00230855
0.00972079
0.00373806
0.00203002
0.00676137
0.0026603
0.000396447
0.00939232
0.00132948
0.00677738
0.0016041
0.00291696
0.00681488
0.0015351
0.0116068
0.012463
0.00204886
0.00671924
0.00753405
0.0068228
0.00672308
0.00680061
0.0134755
0.000392112
0.00681592
0.000340048
0.00678326
0.00691652
0.00242021
0.00142381
0.0140284
0.00406245
0.012347
0.00681348
0.00553944
0.00665386
0.0122788
0.00250808
0.00681831
0.0125289
0.00676012
0.00677756
0.00471728
0.00613538
0.00216357
0.000584408
0.00286241
0.00498295
0.00265668
0.00681094
0.00672764
0.00679609
0.0021497
0.00675882
0.00297107
0.00522531
0.0124689
0.00265185
0.00555264
0.00635875
0.00688848
0.0119329
0.00843071
0.00679771
0.00684184
0.00268041
0.000703967
0.000746163
0.000883546
0.01143
0.00848788
0.00104586
0.00661568
0.00504976
0.00806393
0.00364192
0.000881936
0.0068568
0.00684829
0.00678751
0.00673908
0.00673044
0.00187247
0.00910054
0.00341495
0.0155802
0.00766052
0.00428593
0.0122939
0.012824
0.00575893
0.0131236
0.000491594
0.000883555
0.00670957
0.00684355
0.000948614
0.0062934
0.00668398
0.00507097
0.0126407
0.00677881
0.00682624
0.00676891
0.000765236
0.00680626
0.000886328
0.0100938
0.006729
0.00671987
0.00676602
0.00640561
0.000845317
0.0103313
0.00167531
0.00655763
0.000513898
0.00674484
0.0117075
0.000630035
0.00682221
0.000526387
0.00206627
0.0124163
0.00444476
0.0079696
0.00685031
0.00435671
0.0107964
0.000452418
0.00695787
0.0068307
0.00662546
0.00497436
0.00332893
0.00925314
0.000978594
0.00684418
0.0038286
0.0145988
0.0105375
0.00663294
0.00741996
0.0143543
0.0125953
0.00683202
0.00316297
0.000497737
0.00673113
0.0067312
0.0167936
0.00675013
0.00104762
0.0124552
0.00994187
0.00675729
0.000881061
0.000405985
0.00680841
0.0067733
0.0148239
0.00907178
0.00677881
0.00247783
0.000331997
0.00088094
0.0134304
0.000451673
0.00417247
0.0171275
0.0133545
0.00493142
0.00671791
0.00261611
0.00670553
0.00678905
0.00820716
0.00206882
0.000568948
0.00346061
0.00619689
0.00682254
0.00673811
0.0056353
0.00539802
0.00118649
0.00352385
0.000272491
0.00315041
0.00408761
0.000819141
0.0036335
0.0118221
0.00132351
0.00675058
0.0033876
0.00486794
0.00409448
0.000425425
0.0126661
0.00607142
0.000271588
0.00969448
0.00367947
0.000801382
0.000759956
0.000765003
0.000712528
0.0045591
0.000713173
0.000671996
0.000704449
0.00063858
0.000798863
0.00065927
0.00607726
0.00672253
0.00236825
0.000761716
0.00675756
0.000277018
0.0135045
0.000439008
0.0120481
0.0067607
0.00678529
0.00425367
0.0057603
0.00535054
0.00651194
0.00157105
0.0127781
0.0156186
0.00684814
0.00256105
0.00380669
0.00179536
0.0141596
0.00290539
0.000135799
0.0106328
0.000621311
0.0122495
0.000524907
0.0123761
0.0134546
0.00668283
0.0127034
0.0114928
0.00675284
0.0010493
0.000578418
0.00618482
0.00680474
0.000494068
0.00230475
0.00682268
0.00682379
0.0101148
0.00070672
0.00081405
0.00685217
0.000629571
0.000368745
0.0127102
0.00771626
0.00681891
0.00673042
0.00554315
0.00688681
0.0116457
0.0154579
0.00918045
0.000817551
9.00123e-05
0.00830922
0.00689471
0.0067265
0.0104134
0.00682746
0.0126897
0.00690746
0.0125477
0.00531583
0.00675482
0.0121519
0.00678008
0.000635974
0.0141077
0.00685716
0.00654189
0.00520125
0.00076471
0.00829905
0.000491196
0.012431
0.00690195
0.00684622
0.00282997
0.000877064
0.0132364
0.0105178
0.000608399
0.000928013
0.000576204
0.00402674
0.00707762
0.00682496
0.00673244
0.00671003
0.0001357
0.00197062
0.00716243
0.00185918
0.000570193
0.0067976
0.0158894
0.0019254
0.00202784
0.00673096
0.00477067
0.0067039
0.0116093
0.00373636
0.00797973
0.000194796
0.000658912
0.000194626
0.0067314
0.00185176
0.000444459
0.00010783
0.000546927
0.0067567
0.00052914
0.0068115
0.00677665
0.000740621
0.0121592
0.00279225
0.00683892
0.00071993
0.000809059
0.0137214
0.00393523
0.0112194
0.0102658
0.00682683
0.00117107
0.00682872
0.00055673
0.00683259
0.000543511
0.006607
0.00154183
0.0243642
0.0140438
0.0068619
0.000868
0.0116269
0.00108084
0.00654291
0.00582006
0.00107187
0.00682545
0.00674032
0.0096206
0.00376263
0.000487222
8.33559e-05
0.00907307
0.00558216
0.00682428
0.00719306
0.010726
0.0130577
0.000847701
0.00287807
0.000597444
0.000648241
0.0106221
0.00267468
0.00566556
0.00103553
0.00232309
0.000246292
0.00314645
0.00835543
0.00133105
0.00235417
0.00240627
0.0122412
0.00490244
0.00917081
0.000416002
0.00221119
0.00225742
0.00671742
0.00670857
0.0100341
0.0125039
0.00183143
0.00620819
0.00182266
0.00449043
0.00721507
0.00238719
0.0113423
0.0037809
0.0110162
0.000475543
0.00364577
0.00593824
0.000295711
0.00892994
0.00687659
0.00104108
0.00674464
0.00370911
0.00682823
0.0213435
0.00678028
0.0068077
0.0132734
0.00533127
0.00670881
0.0129763
0.00633935
0.00684309
0.00675218
0.00681751
0.00683267
0.000719794
0.0136701
0.0067599
0.00100639
0.000952821
0.00138673
0.000828642
0.000835335
0.00396086
0.00180455
0.00671843
0.0234082
0.00294558
0.0130572
0.00696782
0.00797112
0.000866
0.000869034
0.002675
0.0106132
0.00671536
0.00698601
0.00136139
0.000913384
0.00357107
0.00681525
0.00181017
0.000851206
0.00681706
0.00571989
0.00672039
0.0103483
0.00066508
0.00544332
0.000789055
0.000706894
0.0130722
0.00685243
0.00683442
0.00110959
0.0057999
0.0068391
0.00683866
0.00343605
0.00679194
0.00672952
0.00612082
0.00152112
0.00535226
0.00321835
0.00686287
0.00266349
0.00120893
0.00489948
0.0109333
0.00491224
0.00674953
0.000807527
0.00153529
0.00688799
0.00679823
0.0010623
0.0029351
0.00972506
0.00294591
0.000460059
0.00673619
0.00684654
0.000902643
0.0137935
0.000912409
0.00180409
0.00671401
0.0128692
0.00683217
0.00672929
0.000878968
0.00334928
0.000331403
0.0117414
0.000596855
0.00107765
0.00207281
0.00544395
0.00685838
0.0068462
0.00134062
0.0134077
0.00112158
0.000512403
0.00788443
0.0032136
0.00683787
0.0027346
0.000632741
0.00134954
0.00682226
0.000750293
0.00107278
0.000963004
0.00669671
0.00681098
0.00034429
0.00108327
0.00263248
0.0120632
0.00651741
0.000848334
0.00683565
0.00147015
0.000265268
0.0068537
0.000318336
0.0091303
0.000667463
0.00161977
0.00680372
0.00685168
0.00672194
0.0129306
0.000640026
0.00623817
0.00093916
0.000736927
0.00683389
0.00685321
0.000641351
0.0129514
0.000323319
0.011043
0.000791579
0.00195107
0.000236708
0.000693421
0.00202462
0.00661456
0.000952111
0.00607102
0.00682498
0.00115338
0.000712883
0.00677916
0.00092887
0.00403358
0.00127787
0.00356466
0.000689983
0.0067902
0.00658658
0.00272879
0.00671286
0.00682886
0.00673691
0.00673077
0.00664515
0.00679978
0.0029258
0.00685532
0.00678835
0.0242534
0.00086799
0.00573317
0.00101637
0.00422333
0.00662338
0.00673018
0.00138432
0.00609853
0.00385831
0.00680916
0.00679426
0.0010693
0.00058286
0.00684209
0.00683181
0.000478434
0.00309171
0.00061842
0.0011075
0.00683535
0.00148135
0.00303788
0.00674814
0.000829437
0.0134596
0.0068565
0.00124122
0.00682402
0.00242522
0.00682297
0.00328309
0.00675977
0.00679892
0.00269904
0.00104892
0.000277652
0.0016839
0.00681888
0.00302836
0.0120086
0.00117877
0.000634126
0.00066477
0.00681577
0.00190284
0.00781408
0.000426045
0.00137879
0.00383652
0.00979063
0.0140294
0.00284714
0.00684104
0.000886046
0.00629792
0.00130449
0.012532
0.00685346
0.00672282
0.00684708
0.0113218
0.00182491
0.0054455
0.000997739
0.0116136
0.00861651
0.00363782
0.000766611
0.00258081
0.00670819
0.0166501
0.00671711
0.00189315
0.00674143
0.00628061
0.00700116
0.00092263
0.00680768
0.0032564
0.00024157
0.00685205
0.00683631
0.00375697
0.00623196
0.00681173
0.0036408
0.00638802
0.00682218
0.00676353
0.00104371
0.000993687
0.000564106
0.00672154
0.00112015
0.0103735
0.00569552
0.00674689
0.00685588
0.00244524
0.000691099
0.00680303
0.00678454
0.00678299
0.00682353
0.00611926
0.0028369
0.00696284
0.000968823
0.00491884
0.00673387
0.00630157