/*--------------------------------*- C++ -*----------------------------------*\
| =========                 |                                                 |
| \\      /  F ield         | OpenFOAM: The Open Source CFD Toolbox           |
|  \\    /   O peration     | Version:  v2012                                 |
|   \\  /    A nd           | Website:  www.openfoam.com                      |
|    \\/     M anipulation  |                                                 |
\*---------------------------------------------------------------------------*/
FoamFile
{
    version     2.0;
    format      ascii;
    class       surfaceVectorField;
    location    "100";
    object      Uf;
}
// * * * * * * * * * * * * * * * * * * * * * * * * * * * * * * * * * * * * * //

dimensions      [0 1 -1 0 0 0 0];


internalField   nonuniform List<vector> 
20642
(
(0.470656 0.0148573 1.19652e-20)
(0.482879 0.0168549 -2.62464e-20)
(0.491697 0.0226228 -3.01178e-20)
(0.998884 -0.00539551 2.31011e-21)
(0.994756 -0.00713669 3.80718e-21)
(0.995361 -0.00166335 5.66394e-21)
(1.11199 0.113767 0)
(1.11008 0.11627 -1.68678e-20)
(1.11466 0.11706 1.20437e-20)
(1.036 0.0168789 -6.84801e-21)
(1.03583 0.0175808 0)
(1.0352 0.0168785 0)
(1.00006 0.00288954 1.0709e-21)
(0.99718 0.00313617 1.16556e-21)
(0.999202 0.00550549 0)
(1.00289 -0.00247625 -7.6972e-22)
(1.00342 -0.00790712 1.21024e-21)
(1.05157 0.0340925 -1.16592e-20)
(1.05066 0.0333153 -8.80963e-21)
(1.05059 0.0344177 5.61464e-21)
(0.916638 0.0182593 6.85298e-21)
(0.902623 0.0138824 3.67942e-21)
(0.907398 0.0301027 -1.43377e-21)
(1.06443 0.0226861 1.07378e-20)
(1.06366 0.0232554 4.14457e-21)
(1.06479 0.0237893 1.45339e-20)
(0.0479094 -0.158953 2.22162e-22)
(0.110033 -0.186143 1.92757e-22)
(0.926593 0.026004 -5.49188e-22)
(0.925704 0.0114514 3.16565e-21)
(1.02481 0.0140826 1.65214e-21)
(1.02504 0.0146373 0)
(1.02544 0.0142739 0)
(1.01122 0.000248264 0)
(1.01143 0.000170333 1.47171e-21)
(0.780082 0.193765 -2.00307e-22)
(0.777127 0.21711 0)
(0.807374 0.202441 0)
(1.01741 0.0122952 7.51368e-22)
(1.01791 0.0113624 -1.47159e-21)
(1.01651 0.011794 2.97557e-22)
(0.456533 0.0123643 3.13341e-20)
(0.438466 0.00584478 3.22962e-20)
(1.00203 -0.000123465 0)
(1.00197 -0.000138773 -4.30932e-22)
(1.00107 -8.03974e-05 0)
(0.935526 0.0322689 -3.76211e-21)
(0.945093 0.0369185 1.57384e-21)
(0.943972 0.0254484 0)
(1.0713 0.105404 -1.50489e-20)
(1.07378 0.107756 -1.54185e-21)
(1.06998 0.10867 -3.83085e-21)
(0.487407 0.0102261 5.31136e-20)
(0.541746 0.0241743 1.58969e-20)
(0.530034 0.0266741 -7.16844e-21)
(1.01598 0.0442489 8.10632e-23)
(1.01618 0.0463711 1.14299e-22)
(1.01442 0.0451338 -5.43207e-22)
(1.01063 0.00837353 -1.1812e-23)
(1.01077 0.00850214 -8.76947e-23)
(1.01077 0.00871987 -2.56118e-22)
(1.05619 0.0589516 -1.75912e-20)
(1.05757 0.0584633 -9.1905e-21)
(1.05702 0.0603734 1.8212e-21)
(1.01049 0.00811814 8.48236e-23)
(1.01051 0.00798163 -2.12628e-23)
(1.03236 0.0251199 -2.39853e-21)
(1.03288 0.0257051 2.70669e-21)
(1.03209 0.0255296 3.94605e-21)
(1.00794 0.0478528 -6.89856e-22)
(1.01023 0.0468765 1.74702e-22)
(1.008 0.0451699 -3.37878e-22)
(0.965617 -0.0279511 2.92295e-21)
(1.01321 -0.0230461 -1.03623e-20)
(1.04329 0.0151461 -8.16059e-21)
(0.0491062 -0.114423 -6.53436e-21)
(0.978225 0.0482488 -1.50604e-21)
(0.983787 0.0492677 9.11725e-22)
(0.981706 0.0435531 -7.98772e-22)
(1.01834 -0.0033815 -3.26163e-23)
(1.0186 -0.00332374 -1.47534e-23)
(1.01817 -0.00321656 -1.04464e-22)
(0.0231751 -0.0746515 -6.11793e-21)
(0.0680674 -0.101792 -1.25771e-20)
(1.08157 0.0693734 8.1661e-21)
(1.0832 0.0695839 -3.16353e-21)
(1.08174 0.0707287 5.58785e-21)
(1.03082 0.0195859 -1.80801e-21)
(1.03023 0.0190642 -7.46034e-22)
(1.03092 0.0190225 -6.8972e-22)
(0.515047 0.0353879 -9.71958e-21)
(0.535612 0.0412999 1.38401e-21)
(0.530883 0.0398538 -1.49727e-20)
(1.00886 0.00127591 2.86362e-22)
(1.00878 0.00126986 -2.15508e-22)
(1.00912 0.00125064 1.08475e-21)
(0.893674 -0.000504403 -8.96407e-21)
(0.884003 0.0142979 -1.33671e-21)
(1.01802 0.0233408 -2.36804e-22)
(1.01844 0.024117 0)
(1.0176 0.0240702 0)
(1.00068 9.0429e-05 2.24283e-22)
(1.00243 0.000219608 1.46026e-22)
(1.00052 6.02308e-05 1.66115e-22)
(1.0525 0.0348296 6.77355e-21)
(1.05243 0.0336985 1.49013e-21)
(1.03357 0.0478884 -1.31034e-22)
(1.03489 0.0484278 -1.19878e-21)
(1.03443 0.0470943 -5.9037e-22)
(1.00235 -0.000130696 -4.03091e-22)
(1.00197 -8.2387e-05 3.99397e-22)
(1.0037 -8.01426e-05 -2.17333e-22)
(1.01034 -0.000828967 3.42231e-22)
(1.01065 -0.000537343 1.21957e-21)
(1.01068 -0.000684094 6.15597e-22)
(1.05932 0.0179842 -9.22555e-21)
(1.05815 0.0185306 3.64221e-21)
(1.05828 0.0172136 9.79307e-22)
(1.08581 0.095531 8.42937e-21)
(1.08724 0.0937751 0)
(1.08829 0.0967368 0)
(1.08324 0.0942028 9.21733e-21)
(1.08358 0.0975696 -1.28541e-20)
(0.918887 0.0578601 -2.14533e-21)
(0.92775 0.0636771 0)
(0.914457 0.0688992 0)
(1.01609 0.0421161 -1.04933e-22)
(1.01786 0.0431811 7.60815e-22)
(0.452497 0.332314 -2.14881e-20)
(0.501146 0.309738 -2.63111e-20)
(0.473739 0.321947 -2.2999e-20)
(0.841038 -0.283295 -2.86998e-22)
(0.820967 -0.276305 1.10567e-21)
(0.83222 -0.258597 1.00879e-21)
(1.00873 0.00130228 0)
(1.009 0.00125029 -2.87585e-22)
(1.02425 0.0139792 1.49452e-21)
(1.02455 0.0136353 -3.4302e-21)
(0.994826 0.0831854 0)
(0.988554 0.0816537 8.4201e-22)
(0.99336 0.0767779 4.28941e-22)
(0.272971 0.00327232 1.15098e-20)
(0.346997 0.00540938 -1.62123e-20)
(0.268867 0.00229749 -2.30703e-20)
(1.01731 0.0130777 -4.95023e-22)
(1.01717 0.0126759 0)
(1.0169 0.0128204 0)
(1.01835 0.0140888 -2.60986e-21)
(1.01817 0.0136661 -3.94139e-22)
(1.01861 0.0138573 -9.81761e-22)
(0.998604 0.0841892 0)
(0.995548 0.089294 0)
(0.17218 -0.0181881 0)
(1.05457 0.0590777 2.71702e-21)
(1.05546 0.0571428 6.70734e-21)
(1.01008 -0.00110249 -1.11472e-21)
(1.01008 -0.00111395 -5.58408e-22)
(0.907042 0.0496948 3.09013e-21)
(0.922405 0.0449771 4.92968e-21)
(0.359667 0.263887 -2.63785e-21)
(0.310577 0.266492 -6.75596e-22)
(0.311674 0.283081 -1.72173e-21)
(1.02675 0.00543751 -2.49477e-21)
(1.02783 0.00146019 6.24832e-22)
(1.02367 0.00223374 3.70417e-22)
(1.00759 -0.000173599 7.87701e-24)
(1.00788 -0.000122659 1.56852e-22)
(1.00887 -0.000185451 -4.95865e-24)
(1.03267 0.0245599 -3.28454e-21)
(1.03182 0.0244898 -2.75719e-21)
(0.89966 0.135538 -1.12293e-21)
(0.900857 0.140826 4.43555e-20)
(0.870547 0.13479 3.25222e-20)
(1.04407 -0.00761125 0)
(1.04073 -0.00584266 0)
(1.04086 -0.00965394 1.19e-22)
(0.972842 0.0469361 2.07769e-22)
(0.966718 0.0454434 -2.4764e-22)
(0.971166 0.0401792 -2.50291e-22)
(0.906294 -0.01445 1.06041e-21)
(0.882581 -0.016421 -2.14628e-21)
(0.928696 0.0411582 -5.44533e-21)
(0.420476 0.0141486 1.86502e-20)
(0.406126 0.0113709 1.5588e-20)
(0.400276 0.0105989 -8.87276e-21)
(1.01431 0.139809 0)
(1.02993 0.144444 0)
(0.987752 0.13925 0)
(0.501488 0.0317138 -7.98257e-21)
(0.497006 0.0312572 -1.4983e-21)
(1.03281 0.00747053 0)
(1.03358 0.00773114 0)
(1.03277 0.00799872 -8.61988e-21)
(1.00986 -0.00126448 -1.76986e-22)
(1.01006 -0.00110213 -1.40449e-21)
(1.01658 0.0485822 -1.74437e-22)
(1.01824 0.0473297 1.72412e-22)
(1.02786 0.0267954 -2.5466e-21)
(1.02829 0.0275224 1.40588e-21)
(1.02737 0.0270595 -1.98888e-21)
(1.00711 0.00907312 -1.48449e-21)
(1.00664 0.00954467 -9.90526e-22)
(1.00747 0.010038 -1.45814e-21)
(1.00964 -0.00139836 1.0416e-21)
(1.00972 -0.00151198 2.25584e-22)
(1.02839 0.0263381 -3.02885e-21)
(1.02738 0.0260746 1.08583e-21)
(1.03078 0.0198994 -8.90282e-22)
(1.03135 0.0199453 1.7344e-21)
(1.01468 0.0139878 -2.5098e-22)
(1.01442 0.0136893 1.1624e-22)
(1.0146 0.0136231 -1.80666e-22)
(1.00157 -9.59056e-05 8.83261e-23)
(1.00164 -9.94797e-05 -4.29015e-22)
(1.00068 -7.2174e-05 3.82789e-22)
(1.03288 0.0069067 0)
(1.03205 0.00714305 0)
(0.966513 0.103568 0)
(1.00634 0.107837 1.43969e-20)
(0.997907 0.104183 0)
(1.01231 0.00228526 4.13502e-22)
(1.01238 0.00257462 5.48294e-22)
(1.01204 0.00243438 1.37817e-21)
(0.934241 0.118797 5.13404e-21)
(0.936388 0.133978 3.42919e-21)
(0.921486 0.12417 3.7176e-21)
(1.08161 0.0675157 -2.20955e-20)
(1.07976 0.0687983 7.19125e-21)
(1.01195 0.00131957 -8.40943e-22)
(1.01167 0.0013279 -2.54007e-21)
(1.01118 0.000968423 -3.50846e-22)
(1.03248 0.0470102 -5.51257e-22)
(1.03244 0.0485857 1.26663e-21)
(1.00196 -0.000105675 0)
(1.00275 -0.000187193 0)
(1.0041 -0.000294902 -1.82672e-22)
(1.004 -0.000280545 1.73819e-22)
(1.00444 -0.000317453 -6.48457e-22)
(1.06017 0.0189998 -4.41855e-21)
(0.860995 -0.283354 5.60282e-21)
(0.849848 -0.301172 -2.5078e-21)
(1.00788 0.000864503 3.34138e-22)
(1.00799 0.000788401 -1.445e-22)
(1.00777 0.000734566 1.51032e-22)
(1.01757 0.0162475 3.8438e-22)
(1.01725 0.0158202 -2.83273e-22)
(1.01723 0.0162748 -1.14414e-22)
(0.975523 0.0541287 -1.09602e-21)
(1.12837 0.176783 -5.19556e-21)
(1.14862 0.158912 -2.13518e-21)
(1.13743 0.185623 -2.11948e-21)
(1.00123 -1.26414e-05 -2.82029e-22)
(1.00124 -1.53824e-05 -1.47452e-22)
(1.00013 -1.97414e-05 -2.61117e-22)
(1.01221 0.00155008 7.70386e-22)
(1.01214 0.00127411 8.63704e-22)
(1.10846 0.0859939 1.36954e-21)
(1.09567 0.0855334 1.50048e-21)
(1.0992 0.0975801 2.60343e-21)
(1.00566 -0.000106877 6.17741e-22)
(1.00557 -0.000131958 -1.51124e-22)
(1.00419 -5.32027e-05 -1.52177e-22)
(1.00584 -0.000121174 1.63458e-22)
(1.00667 -0.000281652 4.65838e-22)
(1.01476 0.0142591 -2.05054e-22)
(1.01489 0.0142249 -4.47199e-22)
(1.00285 0.000126082 -8.42292e-24)
(1.00279 0.000116375 -6.50443e-23)
(1.00206 8.70529e-05 -2.73324e-23)
(1.00766 0.0084968 -1.50414e-21)
(1.00702 0.00779303 1.71912e-21)
(0.948486 0.0642014 0)
(0.945905 0.0661037 0)
(0.90852 0.0659804 -2.33478e-20)
(0.641374 0.144201 -1.3485e-20)
(0.636305 0.127879 -2.85603e-20)
(0.630973 0.137305 -5.84498e-21)
(1.02341 0.00854748 5.9449e-21)
(1.03019 0.0091536 9.67588e-22)
(1.01059 -0.000385452 1.60021e-21)
(1.01108 -9.55796e-05 -5.6353e-22)
(0.921887 -0.0308169 -2.48742e-21)
(0.880784 -0.0795178 1.06667e-20)
(1.01863 0.000292705 -2.39652e-21)
(1.01875 0.000298399 -1.80327e-21)
(0.559272 0.0481232 -1.26291e-20)
(0.543343 0.0437705 1.32421e-20)
(0.988276 0.0498123 1.82064e-21)
(0.98643 0.054849 2.821e-21)
(0.892257 0.131023 -1.77508e-20)
(0.930964 0.138845 -7.18147e-20)
(1.02569 0.0282491 -4.0377e-21)
(1.02624 0.0290016 -2.69267e-21)
(1.02626 0.027926 2.01418e-21)
(1.06904 0.102807 -1.47358e-21)
(1.07247 0.102368 -1.09675e-20)
(1.00482 -0.000293878 -1.53366e-22)
(1.0054 -0.000349096 -2.44009e-22)
(1.00493 -0.000309198 -9.75934e-23)
(1.10279 0.117807 3.47251e-21)
(1.10546 0.115302 -1.48331e-20)
(1.10131 0.11462 -5.13392e-22)
(1.03175 0.00351131 3.65499e-22)
(1.03185 0.0040679 2.9693e-21)
(1.03114 0.00367628 5.8297e-21)
(1.00233 -0.00011776 7.82876e-22)
(1.0014 -9.25263e-05 1.31789e-22)
(1.0094 -0.00128634 -4.23987e-23)
(1.00924 -0.00123776 -6.37179e-23)
(1.00914 -0.00134231 4.89135e-22)
(0.960565 0.0428787 -5.5304e-21)
(0.962907 0.0515983 -2.8169e-21)
(1.04027 0.0971809 -7.51898e-21)
(1.03672 0.0961963 8.29422e-21)
(1.03977 0.093132 9.60985e-21)
(0.352033 0.00653552 5.63789e-21)
(0.373084 0.0100588 2.45848e-22)
(0.357404 0.00687747 -3.1537e-20)
(0.942443 0.104194 7.13879e-21)
(0.934384 0.101736 0)
(1.03292 0.0240739 -1.71332e-21)
(1.03318 0.0235668 -1.83436e-21)
(1.03243 0.0234685 -1.77868e-22)
(1.01485 0.0498471 -1.72378e-22)
(1.01721 0.0509795 3.71256e-22)
(1.0078 0.00301758 -1.45942e-22)
(1.0077 0.0028243 0)
(1.00765 0.00291709 0)
(1.04379 0.0970018 -1.04854e-20)
(1.04143 0.100092 -8.0218e-21)
(1.06911 0.040169 5.89419e-21)
(1.06866 0.0412188 1.44829e-20)
(1.07006 0.0409174 1.50577e-21)
(1.01824 -0.0544655 -3.05534e-21)
(1.01531 -0.041285 6.17849e-21)
(1.0055 -0.0538503 4.67042e-22)
(0.662457 0.0478741 -9.18405e-21)
(0.630168 0.0445727 -4.36717e-21)
(0.637948 0.0456631 6.13296e-21)
(1.02501 0.0287009 -8.79601e-22)
(1.02501 0.0275541 8.56856e-22)
(1.08451 0.0763268 -1.36701e-20)
(1.08367 0.0780581 -1.78337e-20)
(1.08611 0.0775984 1.98414e-20)
(0.879482 -0.0298949 -1.03666e-20)
(0.9596 0.0179529 -1.00508e-20)
(0.257823 0.226506 -1.27204e-21)
(0.30622 0.22929 1.33064e-21)
(0.30269 0.207641 -1.26452e-21)
(0.313194 0.00669378 1.43448e-20)
(0.31026 0.00606694 -3.58265e-21)
(0.331574 0.00864251 1.62565e-20)
(1.00243 0.0494638 1.45725e-21)
(1.00569 0.0487288 5.75169e-22)
(1.00286 0.0464027 5.55172e-22)
(1.00059 0.000118187 4.10074e-22)
(0.82678 0.222017 -4.2062e-21)
(0.831732 0.207808 -4.90272e-21)
(0.842955 0.229643 -6.29696e-21)
(1.00954 -0.00133585 -3.20078e-23)
(1.00943 -0.00149968 -7.47431e-23)
(0.941027 0.0636557 -1.5294e-20)
(0.985636 0.0658181 0)
(1.0102 0.00619004 0)
(1.00999 0.00591839 0)
(1.01006 0.00612742 0)
(1.03034 0.00723332 1.75518e-22)
(1.03094 0.0075793 2.15419e-21)
(1.03034 0.00780885 -9.08621e-21)
(1.00843 0.00387064 1.28111e-22)
(1.00736 0.00203847 -6.25251e-22)
(1.00892 0.0022775 1.59613e-22)
(1.03452 0.138364 0)
(0.993774 0.134465 -1.11696e-20)
(0.878234 0.25617 -3.42464e-21)
(0.527348 0.291545 -5.2695e-20)
(0.549473 0.272425 -1.18134e-20)
(0.519176 0.293155 -1.80113e-20)
(1.01773 0.0133976 1.27895e-21)
(1.01743 0.0135445 -2.29167e-22)
(1.03151 0.0462357 5.75651e-23)
(1.03069 0.0453716 1.50191e-21)
(1.03034 0.0465769 1.49269e-21)
(1.00625 -0.000163256 -1.78985e-23)
(1.00642 -0.000166137 -3.64264e-22)
(1.00751 -0.000228281 2.06589e-22)
(1.02975 0.00692456 3.46856e-23)
(1.0303 0.00667407 4.48004e-21)
(1.10527 0.153823 -3.11638e-21)
(1.10709 0.185871 -2.45701e-21)
(1.00996 0.00615063 1.9127e-21)
(1.00993 0.00607629 7.03491e-22)
(1.01005 0.00587733 6.99974e-22)
(1.00291 0.000106569 2.85472e-22)
(1.00327 8.34477e-05 5.87913e-23)
(0.614962 0.0427258 -1.52131e-20)
(0.606587 0.0405699 1.08144e-20)
(0.586417 0.0389222 3.14599e-21)
(1.00389 -0.00016514 -2.28962e-22)
(1.00397 -0.000162363 -1.20236e-22)
(1.00275 -9.67867e-05 6.48492e-23)
(1.00464 -0.000276949 0)
(1.004 -0.000258846 3.85003e-22)
(1.0114 0.00478778 5.16193e-22)
(1.01155 0.00508859 -3.45261e-22)
(1.0112 0.00488657 -1.57566e-21)
(0.81225 0.227604 2.22663e-20)
(0.827983 0.221719 -4.05881e-21)
(0.783983 0.224115 -1.05031e-20)
(1.01129 0.0219989 -3.62257e-22)
(1.01224 0.0225583 -9.60303e-23)
(1.01205 0.0212833 -1.52241e-22)
(0.814304 0.19417 1.58577e-20)
(0.530916 0.288061 -3.075e-21)
(0.534281 0.288731 -1.33993e-20)
(0.572758 0.280344 -3.34528e-20)
(1.14712 0.113031 4.60605e-21)
(1.13456 0.0981422 -1.02772e-21)
(1.12322 0.112735 -1.47853e-21)
(0.276279 0.00316903 -8.06158e-21)
(0.383102 0.327868 -3.79666e-20)
(0.414085 0.318075 -1.63793e-20)
(0.373641 0.32691 -4.32073e-21)
(1.01228 -0.000984191 -4.8324e-23)
(1.01243 -0.00108438 8.37253e-25)
(1.01243 -0.00101771 7.78864e-24)
(0.999062 0.0498275 0)
(1.00226 0.0529682 -3.18975e-22)
(1.01041 0.00808341 3.25852e-22)
(1.0103 0.00803324 1.62871e-23)
(1.01051 0.00842484 4.74258e-22)
(0.675027 0.0546563 -7.3221e-21)
(0.677008 0.0545359 2.39674e-20)
(0.64423 0.05018 -6.31618e-21)
(1.06416 0.0215372 -7.38443e-21)
(0.4572 0.231151 7.79283e-22)
(0.404131 0.250937 5.17969e-21)
(0.411342 0.229996 2.34935e-21)
(1.02174 0.0472204 1.84313e-22)
(1.02278 0.0490803 4.97904e-22)
(1.02017 0.0493514 -2.05849e-22)
(1.00499 -0.000155816 -2.28574e-22)
(1.00587 -0.000217454 -1.88835e-22)
(1.00472 -0.000139097 2.67561e-22)
(1.03679 0.0169943 -3.69697e-21)
(1.03623 0.0163476 3.04204e-21)
(0.98292 0.0805833 1.20637e-21)
(0.974946 0.0790544 9.7631e-22)
(0.9814 0.0738593 -5.4846e-22)
(1.06946 0.0389669 -1.80389e-20)
(1.06815 0.0392613 -1.11076e-20)
(1.01048 0.0228807 -9.31846e-23)
(1.01042 0.0212424 -1.51401e-22)
(1.0573 0.0188746 2.93142e-21)
(1.05635 0.0181456 1.49522e-20)
(1.05614 0.0193276 2.43435e-21)
(1.01031 0.00779801 0)
(1.02381 0.013845 1.50617e-21)
(1.02401 0.0142841 -4.01254e-21)
(0.985024 0.135879 -8.67124e-21)
(0.991631 0.134527 -3.64829e-21)
(0.987246 0.143168 2.56431e-21)
(1.10035 0.120389 2.05482e-20)
(1.10328 0.121358 4.79831e-23)
(1.03275 -0.0553839 2.69421e-21)
(1.01874 -0.0706878 3.1386e-21)
(1.02353 0.0133736 -1.97634e-25)
(1.02327 0.0136899 1.58146e-21)
(0.973956 0.138566 -5.47379e-21)
(0.979521 0.128319 -4.22239e-21)
(1.01844 -0.00354114 0)
(1.01797 -0.00340646 2.08368e-23)
(0.934861 0.106124 1.47321e-21)
(0.948067 0.114454 0)
(1.02299 0.0448019 -1.02856e-21)
(1.01991 0.0447836 -8.19478e-23)
(1.08099 0.0926862 0)
(1.08307 0.0910872 9.9275e-21)
(1.00863 0.124306 5.10468e-23)
(1.01381 0.121474 4.55996e-21)
(1.00834 0.118406 -2.53151e-22)
(0.48994 0.0188346 1.41949e-21)
(0.508332 0.0264959 1.85246e-20)
(0.497824 0.0204041 2.55115e-20)
(1.00801 0.000960412 -3.15902e-22)
(1.0078 0.000924207 -3.5891e-23)
(0.368318 0.00891816 -1.32449e-21)
(0.383439 0.0114935 1.52951e-20)
(0.362506 0.00766864 -4.18256e-21)
(1.03664 0.0338098 -1.23583e-21)
(1.0362 0.0343355 0)
(1.03587 0.0335023 -4.09558e-21)
(0.696026 0.0512975 5.00904e-21)
(0.68838 0.0497858 1.33631e-20)
(1.00875 0.00123121 2.64642e-22)
(1.00845 0.00125522 2.70095e-22)
(1.00997 0.00617151 -3.6605e-22)
(1.00991 0.00641858 1.2089e-21)
(1.01778 0.0395344 -6.38196e-22)
(1.0192 0.0402326 -4.07215e-22)
(1.01883 0.0385203 -4.0234e-22)
(0.413243 0.0109899 -4.04375e-21)
(0.410146 0.0113922 -4.15139e-21)
(0.429958 0.0147967 1.55189e-20)
(0.313622 0.00636473 0)
(0.287172 0.0045792 4.70668e-20)
(1.01664 0.020096 -7.35051e-22)
(1.01639 0.0206047 -2.76396e-23)
(1.01609 0.0198729 -1.88477e-22)
(0.954441 -0.0892391 -1.54498e-21)
(1.00104 -0.0732901 6.52591e-21)
(0.923125 -0.115431 -1.12213e-21)
(0.993647 0.0289302 1.16873e-21)
(0.993211 0.0253098 3.59887e-22)
(0.996182 0.0272914 -3.66516e-23)
(1.03256 0.0458572 -2.69804e-21)
(1.00967 -0.00119062 4.81114e-22)
(0.98421 0.087235 4.89512e-22)
(1.01418 0.0133577 1.00309e-22)
(1.01426 0.0136885 -5.95923e-23)
(1.00642 0.00197265 8.78471e-23)
(1.00627 0.00189265 2.92715e-22)
(1.00633 0.00184872 8.74006e-23)
(0.985532 -0.00607208 0)
(0.990942 -0.00728716 0)
(0.989306 -0.00239773 6.79546e-22)
(0.980385 -0.00959335 0)
(0.97909 -0.00306708 -1.3459e-21)
(0.534589 0.282807 -4.22983e-20)
(1.08326 0.0752578 -1.26552e-20)
(1.0853 0.0748723 6.45615e-21)
(1.00814 0.0507966 -4.25987e-22)
(0.763686 0.14885 -4.15002e-20)
(0.763029 0.157519 -4.10382e-21)
(0.793753 0.157604 -1.62949e-20)
(1.00602 0.000550048 1.56078e-21)
(1.00517 0.000473701 2.56221e-22)
(1.00677 0.000615354 -7.15187e-22)
(1.00757 -0.00173724 -8.37275e-22)
(1.00763 -0.00176917 -4.34972e-22)
(1.00736 -0.00167425 2.15541e-22)
(1.00777 -0.00180337 -4.56076e-22)
(1.0075 -0.00169557 -3.66967e-22)
(0.394201 0.327382 4.1461e-23)
(0.997234 0.131503 0)
(1.00343 0.127446 2.94304e-22)
(0.995865 0.124525 3.15218e-21)
(0.96478 0.140798 -1.3066e-21)
(0.954007 0.142491 -2.58861e-21)
(0.959665 0.13198 -5.16955e-22)
(1.01815 0.00179891 4.44374e-22)
(1.01835 0.00201916 -6.0917e-22)
(1.01842 0.00175828 7.11483e-22)
(1.00736 -0.000164076 1.18738e-22)
(1.00569 -0.000120644 1.38289e-23)
(0.788767 -0.087424 9.84078e-21)
(0.832874 -0.0330173 9.5981e-23)
(0.373256 0.00972861 -1.18177e-22)
(1.00675 -0.00144823 4.04418e-22)
(1.00695 -0.00149387 -6.81878e-23)
(1.00684 -0.00147903 0)
(1.00653 -0.00138207 3.22675e-22)
(1.00666 -0.00141591 4.12943e-22)
(1.00322 -0.000198307 -1.75348e-22)
(1.00164 -7.69374e-05 1.62951e-22)
(1.00797 -0.00187454 -6.77035e-24)
(1.00805 -0.00190482 3.75685e-22)
(1.00818 -0.00194788 5.04981e-23)
(1.00792 -0.00184414 5.05726e-23)
(0.484576 0.0261397 -9.15942e-21)
(0.49932 0.0304579 6.84798e-21)
(0.544503 0.275778 -3.1705e-20)
(0.527357 0.28753 -2.35608e-21)
(0.557799 0.267557 -2.07956e-20)
(1.01253 0.0112137 2.68707e-23)
(1.01239 0.0108887 1.63078e-22)
(1.01265 0.0111959 1.50149e-22)
(1.01342 -0.00164061 9.03695e-24)
(1.01361 -0.00173589 1.19203e-23)
(1.01335 -0.00167803 -4.37023e-23)
(1.02462 0.0714247 2.80355e-21)
(1.02312 0.0684723 -3.81164e-21)
(1.02605 0.0689495 -3.73432e-22)
(0.467408 0.0251727 5.89379e-21)
(0.455233 0.0217701 -3.3934e-20)
(0.473281 0.0263539 -4.32937e-22)
(1.00366 -0.000206617 -4.0394e-22)
(1.00279 -0.000120176 -3.46336e-22)
(1.00287 -0.000133277 0)
(1.01789 0.00187844 -7.83979e-22)
(1.01795 0.00161396 1.27759e-21)
(0.987328 -0.0572166 8.98037e-21)
(0.895019 -0.106091 0)
(0.936301 0.062314 -9.42599e-22)
(0.929798 0.0607762 3.43538e-20)
(0.97371 0.0629772 1.44675e-20)
(0.999605 0.137184 1.45071e-21)
(0.765348 0.142312 6.31628e-21)
(0.73721 0.13985 1.8492e-21)
(1.00201 0.0439957 -5.03206e-22)
(1.00388 0.0395711 -6.59709e-22)
(0.998631 0.0401326 -1.7978e-21)
(1.01032 0.00622509 -4.17731e-22)
(1.01039 0.0064269 -3.00539e-22)
(0.458572 0.308308 0)
(0.449148 0.307564 1.1015e-20)
(1.02603 0.0743036 9.63301e-21)
(1.02254 0.0741347 -4.55533e-21)
(0.99219 0.0500561 0)
(0.989652 0.0458594 0)
(1.06367 0.0823134 3.44537e-21)
(1.06312 0.0843445 -5.10016e-21)
(1.0656 0.0839189 2.47398e-21)
(1.01683 0.0195881 -4.33877e-22)
(1.01717 0.0202014 -3.44342e-22)
(0.565259 0.261661 -1.13889e-20)
(1.03198 0.00455217 -7.8389e-21)
(1.03146 0.00468187 -4.13619e-21)
(1.03208 0.00508112 1.09212e-21)
(1.0375 0.0441962 -2.48308e-21)
(1.03735 0.0440334 -8.08591e-23)
(1.03729 0.0443087 -1.04455e-21)
(1.02523 0.0499048 -1.05265e-21)
(1.02739 0.0508469 -1.58723e-21)
(1.02686 0.0486984 -6.66966e-22)
(1.01225 0.0112249 0)
(1.01241 0.0112001 1.99882e-23)
(1.01211 0.010902 9.65896e-23)
(1.00204 -2.56786e-05 4.60637e-22)
(1.03343 0.0246834 -2.86725e-21)
(1.00857 -0.0025442 7.60232e-22)
(1.00948 -0.000709403 3.39904e-22)
(1.0108 -0.00237699 9.74151e-22)
(1.00861 0.000605507 -4.46284e-22)
(1.00877 0.000804317 -3.8322e-22)
(1.0088 0.000756197 -1.82052e-21)
(0.409876 0.0166896 -2.90909e-20)
(0.396808 0.0141848 -1.86899e-20)
(0.391446 0.013602 -4.94028e-21)
(0.765087 -0.186816 4.05322e-21)
(0.734653 -0.120145 3.99832e-21)
(0.752592 -0.178919 -9.44992e-22)
(1.0093 -0.00112842 0)
(1.00904 -0.00109924 -9.36366e-22)
(1.00899 -0.00108594 0)
(1.00639 -0.00132292 -4.58087e-22)
(1.00633 -0.00129299 -2.15873e-22)
(1.00978 0.00636246 -5.72415e-22)
(1.00986 0.00599858 -1.26376e-21)
(1.00645 -0.00136035 4.79164e-24)
(1.00626 -0.00127815 -4.08557e-22)
(1.0326 0.00441121 -3.52481e-21)
(1.01472 0.000381339 1.07366e-21)
(1.01065 0.000242417 0)
(1.04536 0.0475738 3.1637e-21)
(1.04539 0.0486781 -9.79872e-22)
(1.04436 0.0481338 0)
(1.00956 -0.00113141 -9.2526e-22)
(1.00962 -0.0011817 0)
(0.316704 0.00738447 -2.33063e-20)
(0.335642 0.0099363 6.3212e-21)
(0.643926 0.162147 2.1547e-20)
(0.657577 0.151672 2.22515e-20)
(1.02029 0.0110654 0)
(1.02047 0.010751 2.49284e-21)
(1.01991 0.0106537 0)
(1.0088 0.0029102 -4.56236e-22)
(1.00799 0.00233644 -4.63931e-22)
(1.0077 0.00357292 2.73572e-22)
(0.898675 0.0418987 -3.15083e-21)
(0.903529 0.0264103 -6.83927e-21)
(0.888628 0.0301263 -1.80148e-20)
(1.00919 -0.00254685 7.07884e-22)
(1.00943 -0.00265872 4.16095e-22)
(1.00917 -0.00251774 1.34391e-22)
(1.07773 0.085315 -9.15272e-22)
(1.08543 0.0841298 0)
(1.07732 0.076421 0)
(0.429023 0.0202441 -3.56831e-23)
(0.423371 0.0192106 -1.04498e-20)
(1.00897 -0.0024414 3.24439e-22)
(1.00923 -0.00257226 -2.86393e-22)
(0.438583 0.018066 -1.62002e-20)
(0.432374 0.0170265 2.22807e-21)
(1.00849 0.00037595 1.37798e-21)
(1.00841 0.000482903 7.06101e-22)
(0.849799 0.229831 9.15317e-21)
(0.805003 0.234268 8.84613e-21)
(1.00506 -0.0001552 9.31311e-23)
(1.00366 -8.48762e-05 0)
(1.01649 0.0136606 -3.99357e-22)
(1.01675 0.0141828 -1.4225e-21)
(1.0161 0.014162 -5.70626e-22)
(1.01214 0.0112637 0)
(1.01241 0.0115593 1.88699e-22)
(1.00947 0.00556024 1.502e-24)
(1.00928 0.00534639 1.62383e-22)
(1.00935 0.00537522 -2.01299e-22)
(1.05292 0.133258 2.60895e-21)
(1.05401 0.128381 9.04853e-21)
(1.05781 0.132037 -7.83618e-21)
(1.00257 0.000229566 -1.25457e-23)
(1.00259 0.000214972 2.65813e-22)
(1.00106 0.000104949 -1.91311e-23)
(1.15739 0.129584 -2.13687e-21)
(1.16669 0.107527 8.95392e-21)
(1.03456 0.0381268 2.89619e-22)
(1.03417 0.0387192 4.55698e-22)
(1.03383 0.0378511 -4.06363e-21)
(1.00974 0.00516639 -8.0477e-24)
(1.00731 0.00575576 -1.17722e-23)
(1.02991 -0.080662 1.209e-21)
(1.0459 -0.0625594 6.44109e-21)
(1.08787 -0.0498805 0)
(0.300108 0.00563162 -1.50644e-20)
(1.00427 -0.000267759 -3.3108e-22)
(1.00433 -0.000256093 -3.51337e-22)
(1.04501 0.062043 -1.76137e-22)
(1.04549 0.063645 -7.73085e-21)
(1.0468 0.0625087 -7.93688e-21)
(1.00422 -0.00114254 -3.63005e-21)
(1.00636 -0.00197777 -1.26886e-21)
(1.00574 0.000558805 -1.77355e-21)
(1.02449 0.0290696 -1.44883e-22)
(1.02381 0.0293742 -7.61097e-23)
(1.02385 0.0283163 7.37743e-22)
(1.00159 0.000747524 3.26131e-21)
(1.00237 0.00347215 1.08973e-21)
(1.02882 0.0259897 -2.76222e-21)
(1.0292 0.0266957 -2.5336e-21)
(1.00812 0.000722348 -3.22565e-22)
(1.00822 0.000648297 0)
(1.00801 0.00056949 -3.20166e-22)
(1.00346 0.000286318 7.96873e-24)
(1.00239 0.000201347 5.18066e-23)
(0.978327 0.0599769 9.38003e-22)
(0.971605 0.0640996 6.1131e-21)
(0.980208 0.0668974 4.5947e-22)
(0.995923 0.0352717 1.22521e-21)
(0.988225 0.037977 4.08994e-22)
(0.991145 0.0295699 4.24833e-22)
(1.03759 0.0441765 -1.0314e-21)
(1.0375 0.0441068 -1.14657e-21)
(1.02929 0.025618 -3.822e-21)
(1.02843 0.0253707 0)
(1.01769 0.00188827 -1.58709e-21)
(1.01753 0.00167344 3.61714e-21)
(1.01744 0.0018841 -1.54522e-21)
(0.623612 0.0437747 -2.61826e-20)
(0.64665 0.0453655 -4.91541e-20)
(0.410258 0.00885202 2.50433e-20)
(0.382675 0.00787892 1.70375e-20)
(1.00747 0.00232309 1.11498e-22)
(1.00739 0.00217359 2.36556e-22)
(1.00732 0.00225048 -1.38927e-22)
(1.01531 -0.0112705 -1.11026e-21)
(1.01655 -0.0132152 -1.0853e-21)
(1.01724 -0.0112794 5.85158e-22)
(1.02519 0.0297348 4.8507e-22)
(0.887705 -0.0838327 0)
(0.905405 -0.104294 6.52711e-22)
(0.906863 -0.0748612 -1.70476e-21)
(1.1057 0.0810209 4.84881e-21)
(1.10752 0.0818306 -2.09533e-20)
(1.10665 0.0795928 8.96801e-22)
(0.655816 0.124118 -4.6485e-21)
(0.639949 0.10867 -1.83768e-20)
(0.639617 0.117686 -1.41564e-20)
(0.492884 0.23677 -3.83247e-21)
(0.505638 0.217938 4.29392e-21)
(1.03795 0.000865883 0)
(1.03982 -0.00225825 0)
(1.04179 0.00113509 0)
(1.01103 -0.0280721 8.70983e-21)
(1.0222 -0.0280595 6.74447e-22)
(1.00929 0.00357542 0)
(1.00974 0.00262287 -4.67541e-22)
(1.04262 0.113268 -1.46682e-21)
(1.01409 0.112413 1.24889e-20)
(0.87232 -0.0956664 -1.32842e-22)
(0.869205 -0.0590088 3.11647e-21)
(1.11355 0.111672 -6.25451e-21)
(1.11271 0.110993 -8.41326e-21)
(1.01464 0.000476247 -2.41903e-21)
(1.01024 0.000113962 1.19596e-21)
(1.01699 0.0130709 1.68297e-21)
(1.01801 0.0131083 2.01394e-22)
(1.05878 -0.0133434 2.08918e-21)
(1.00996 0.00746265 0)
(1.01007 0.00765913 0)
(1.01002 0.00780107 0)
(0.989163 -0.00584528 -5.04869e-21)
(0.992684 -0.0108494 1.25966e-21)
(1.079 0.0912461 0)
(1.079 0.094311 -1.32565e-21)
(1.00244 -0.000146913 3.06031e-22)
(1.00235 -0.000141765 7.32725e-23)
(1.00143 -0.000100858 -2.2243e-23)
(0.700841 0.0593531 -7.46339e-23)
(0.668887 0.0549302 -1.26751e-20)
(1.01221 0.00176532 5.66746e-22)
(1.01224 0.00206002 -1.49269e-21)
(1.01198 0.0019044 -1.07563e-23)
(1.08339 0.0451381 5.25479e-21)
(1.08463 0.045835 1.13045e-20)
(1.01272 -0.00362702 0)
(1.01271 -0.00357268 -1.66264e-22)
(1.01304 -0.00369276 3.39994e-22)
(0.384823 -0.00233614 3.21113e-21)
(0.388185 0.00574491 2.92741e-20)
(1.00547 0.00152143 -5.1206e-23)
(1.00535 0.00142627 -5.87556e-23)
(1.00536 0.00141181 -6.2523e-23)
(1.03772 0.0442409 0)
(1.03767 0.0439753 -1.75074e-22)
(1.03793 0.0441387 0)
(0.991356 0.0307569 8.34847e-22)
(0.995138 0.0319802 -2.27647e-22)
(1.03567 0.00222562 -1.38226e-22)
(1.03409 -0.000497649 -3.83511e-23)
(1.00331 -0.000181011 3.19562e-22)
(1.00265 -0.000148462 3.01472e-23)
(1.0677 0.0833973 1.37426e-20)
(1.06995 0.0829452 -2.12103e-21)
(1.06832 0.0812207 7.02631e-21)
(0.976276 0.0722285 5.83169e-21)
(1.01579 0.0751444 6.50758e-21)
(0.98198 0.0743167 -1.88251e-21)
(1.01819 0.0160656 -1.1748e-21)
(1.01785 0.0161807 0)
(1.01787 0.0155966 5.90339e-22)
(1.00988 0.00723803 0)
(1.00995 0.00714065 -4.11163e-22)
(0.57558 0.0516214 -2.61105e-20)
(0.583038 0.0544288 -6.33029e-22)
(0.961575 0.0701295 -1.74111e-21)
(0.970514 0.0713262 -3.64825e-21)
(1.00496 0.0712904 -1.75011e-20)
(0.790064 0.228812 3.54275e-21)
(0.824095 0.227029 9.03518e-22)
(0.774184 0.240546 7.71752e-22)
(0.790096 0.168734 -2.06003e-22)
(0.757963 0.179927 2.17064e-22)
(1.00875 -0.00232967 -3.12985e-22)
(1.00871 -0.00230523 2.16596e-22)
(1.01336 0.0118543 -2.56612e-23)
(1.01322 0.0115232 8.79637e-23)
(1.0135 0.0118158 0)
(0.9237 0.0596922 -7.33265e-21)
(0.917995 0.0586402 -1.08294e-20)
(0.961688 0.0602797 -2.91042e-20)
(1.00633 -0.0179234 4.25322e-21)
(1.00142 -0.0298352 7.72034e-22)
(1.00879 -0.00235772 1.00476e-22)
(1.00853 -0.00222276 -3.04454e-22)
(1.00164 -0.00243537 1.25582e-21)
(1.02059 0.0134659 -5.90516e-22)
(1.02083 0.0139293 -5.79253e-22)
(1.02034 0.0136243 1.43736e-21)
(1.01978 0.0710505 1.29478e-21)
(1.01841 0.0748467 -7.53353e-22)
(1.02316 0.0741362 5.82601e-22)
(1.03767 0.0444364 4.41309e-22)
(1.01885 0.10763 3.13587e-21)
(1.02308 0.105346 3.15999e-21)
(1.01892 0.102531 -3.46778e-22)
(1.02072 0.0148112 3.02712e-21)
(1.02536 0.0179269 -2.2316e-22)
(1.02027 0.0205395 -9.57946e-22)
(1.06971 0.0851968 -8.65443e-22)
(1.07516 0.094855 -2.31756e-21)
(1.08006 0.0468933 1.03285e-21)
(1.07908 0.0476436 -3.88092e-22)
(1.08031 0.0481485 2.90148e-20)
(0.543766 0.0433681 -3.47746e-24)
(0.525018 0.0357695 -1.9699e-20)
(0.53547 0.0407056 -3.44491e-24)
(1.00795 0.00310968 1.41092e-22)
(1.00789 0.00319826 -6.12281e-22)
(1.01853 0.0165263 -1.06923e-21)
(1.01851 0.0159465 8.40971e-22)
(0.995138 0.00146856 3.51222e-22)
(0.994246 0.00466311 -8.57379e-22)
(1.0744 0.138377 -1.20137e-20)
(1.07828 0.13519 6.15523e-22)
(1.07865 0.141443 -1.70562e-20)
(1.00271 -0.000156627 2.48494e-22)
(1.00172 -7.26916e-05 -3.97932e-22)
(1.00272 -0.000153361 -2.75764e-22)
(0.464548 0.0118829 -1.46186e-20)
(1.08104 0.046238 1.00835e-20)
(1.07967 0.0458556 -8.27242e-23)
(0.852512 0.163977 -1.64087e-22)
(0.853902 0.162776 -3.50325e-22)
(1.01814 0.0142567 2.6999e-22)
(1.01856 0.01445 5.68504e-22)
(1.01636 -0.00505474 -2.53768e-21)
(1.00811 -0.00969567 -2.07624e-21)
(1.00949 0.000335771 6.25585e-22)
(1.01362 -0.0109862 -2.20541e-21)
(1.01506 -0.00965215 -1.4605e-22)
(0.880175 -0.277962 4.02695e-21)
(0.903169 -0.264551 -5.90296e-22)
(0.879706 -0.287344 2.54199e-21)
(1.00966 -0.00216133 6.04642e-22)
(1.00972 -0.00167898 -2.07676e-22)
(1.00971 -0.0019093 3.91223e-23)
(0.969298 0.14883 2.79764e-21)
(0.894597 0.0554433 4.16302e-21)
(0.987253 0.0305119 1.60996e-22)