/*--------------------------------*- C++ -*----------------------------------*\
| =========                 |                                                 |
| \\      /  F ield         | OpenFOAM: The Open Source CFD Toolbox           |
|  \\    /   O peration     | Version:  v2012                                 |
|   \\  /    A nd           | Website:  www.openfoam.com                      |
|    \\/     M anipulation  |                                                 |
\*---------------------------------------------------------------------------*/
FoamFile
{
    version     2.0;
    format      ascii;
    class       volScalarField;
    location    "550";
    object      nut;
}
// * * * * * * * * * * * * * * * * * * * * * * * * * * * * * * * * * * * * * //

dimensions      [0 2 -1 0 0 0 0];


internalField   nonuniform List<scalar> 
13851
(
0.000299292
0.00141469
0.0015302
0.00366431
0.00672144
0.00106315
0.00359174
0.00676816
0.00582453
0.00618056
0.000325179
0.00672346
0.00283048
0.00551657
0.000805738
0.000709987
0.0017865
0.00395934
0.000286749
0.000340843
0.000651315
0.000738436
0.00117565
0.00672544
0.00961543
0.000972123
0.00040437
0.00951162
0.00256439
0.00674359
0.00880788
0.0040456
0.000379994
0.0119254
0.000420723
0.00215556
0.00672578
0.00414904
0.0153362
0.00284513
0.0141336
0.00187769
0.000177028
0.00016181
0.00179584
0.00555539
0.00673583
0.000538571
0.00130113
0.0027986
0.00302647
0.00284646
0.000671544
0.00197651
0.00445556
0.00262182
0.000321909
0.014657
0.000501665
0.00525438
0.00672332
0.00042103
0.00672493
0.00129378
5.72055e-05
4.72845e-05
0.00289241
7.78984e-05
0.00275898
0.00550729
0.00793665
0.000523162
0.00352545
0.00400872
0.00150814
0.00104502
0.00285122
0.00673454
0.00864323
0.00673645
0.00246171
0.000509954
0.00041835
0.00608703
0.00574781
0.00867331
0.000770833
0.00216675
0.00579416
0.00870841
0.00200207
0.00343052
0.000244622
0.00779739
0.0148486
7.62122e-05
0.00569134
0.000613875
0.00361555
0.000236305
0.000587147
0.00016074
0.000141953
0.00322687
0.00591859
0.000445407
0.00527112
0.00848526
0.00344659
0.00415507
0.000457973
0.00561664
0.000309636
0.000346252
0.000387581
0.00209395
0.00673074
0.00675648
0.00308776
0.00603943
0.000122484
0.00570459
0.00242831
0.0103828
0.00025187
5.15088e-05
0.00529887
0.000304887
0.0126753
0.000585322
0.000733446
0.000657976
0.00243964
0.0119441
0.000357882
0.0145418
8.90224e-05
0.00842391
0.000213395
0.000710459
0.000529676
0.00145559
0.00578049
6.16943e-05
0.011779
0.00121909
0.00673356
0.00792482
0.00487463
0.000286661
0.000576678
0.000289485
0.000344941
0.000410702
0.00190382
0.00413587
0.00672287
0.0144887
0.000742977
0.00274233
0.00672496
0.00260987
0.000505936
0.000566736
0.005684
0.00493609
0.00432559
0.00427218
0.000483746
0.015896
0.00672323
0.00672932
0.000402374
0.00672218
0.0157304
0.000353642
0.000464457
0.00673028
0.00162451
0.000508424
0.000360819
9.46173e-05
0.000522786
0.000694727
0.00019376
0.00507537
0.000366845
0.000330805
0.00228069
0.00674807
0.010297
0.000749239
0.00347105
0.00100786
0.00110571
0.000631817
0.000341395
0.00360718
0.00274042
9.25059e-05
0.000536355
0.0163512
0.0159569
0.000892975
4.76137e-05
0.0154053
0.000902304
0.000905824
0.00629155
0.00101968
0.000739084
0.00314855
0.000517281
0.00672487
0.000426156
0.000929567
0.00288137
0.000376804
0.00298989
3.44937e-05
0.00672931
0.000325062
0.00428253
0.0150872
0.000373903
0.000797053
0.00672557
6.89272e-05
0.00672855
0.000420824
0.00401945
0.000370789
0.00106801
0.00672403
0.0161592
0.00674444
0.000839203
0.0156792
0.000228346
0.00672519
0.000209939
0.0061346
0.00171545
0.00072835
0.000763875
5.28569e-05
0.000313754
0.00161634
9.18498e-05
0.00045309
0.00289353
0.000291512
0.00673915
0.00118702
0.000626945
0.00265192
0.00273323
0.00674658
5.30962e-05
0.00596362
0.000347315
0.000375893
0.00127161
0.00051687
0.00025227
0.00436442
0.000149047
0.000531169
0.00563228
0.00672537
0.00309598
0.000359766
0.00610089
0.00156059
0.00061325
0.00527444
0.000307898
0.000387602
0.000399265
0.000539212
0.00645927
0.00350544
0.00102765
0.000973797
0.00307773
0.00550598
0.00672272
0.000356251
0.000346337
0.00674773
0.00672482
0.00672996
0.00672086
0.000839879
0.00672277
0.00566915
0.000646291
0.00375721
0.00252397
0.0107409
0.00233971
0.000307164
0.00306936
0.00132656
0.00211496
0.000592458
0.00522395
0.0125843
0.000399179
0.00672083
0.0166571
0.00672332
0.000345129
0.00468303
0.00471136
0.00273209
0.00207233
0.00058537
0.00966833
0.000294761
0.000136932
0.0157246
0.0111571
0.00891405
0.00256506
0.00356897
0.000152237
2.76196e-05
2.87091e-05
0.000764667
0.000401456
0.000387298
0.0024658
0.000116933
0.006722
0.00672539
0.000742791
0.00886635
2.78349e-05
0.0055798
0.0144779
0.000366916
0.000620179
0.00265963
0.00363936
0.000385683
0.000660904
0.000997188
0.00115204
0.00209575
0.00215993
0.000277824
0.00111105
0.000562564
0.000351837
0.00567297
0.00350205
0.000296939
0.000245475
0.000312145
0.000898049
0.0019231
0.00102011
0.0161666
0.000355499
0.00675594
0.00481694
0.000353328
0.00509074
0.000778597
0.00112222
0.000484945
0.00528744
0.000284763
0.00315526
0.00201313
0.000327915
0.000380062
0.000813495
0.00413016
0.000719875
0.0172411
0.00106139
0.00183879
0.000300431
0.000316267
0.00363832
0.00113177
0.000321771
0.00150772
0.00507911
0.000572301
0.00975173
0.00365003
0.000758934
0.00195569
0.00130703
0.000186029
0.00112521
0.0120963
0.00088924
0.00100227
7.29133e-05
0.000272864
0.00050478
0.00223756
0.00406975
0.000272063
0.00434821
0.000304848
0.000650505
0.00111081
0.00549853
0.000208752
0.0121212
0.00712508
0.00115466
0.000278183
0.000406144
0.00184832
0.00673594
0.00206467
0.000420961
0.00117766
0.000398818
0.0120168
0.00392033
0.00672238
0.00345738
0.000389332
0.00581118
0.00144326
0.000756831
0.0067292
0.0115309
0.000366422
0.00041465
0.00175791
0.00190831
0.00240934
0.00404797
0.0034793
0.00242193
0.00070677
0.0101714
0.000756945
0.000490625
0.00672467
0.00672259
0.00124336
0.000288339
0.00137175
0.00454499
0.00185667
0.000123464
0.00195518
0.010794
0.00672333
0.00183464
0.00183053
0.000268968
0.00672508
0.00672322
0.00180011
0.0034773
0.0002439
0.000673998
0.000774241
1.59793e-05
0.00128284
0.00672568
0.0101675
0.000509785
0.000234317
0.0033278
0.0120465
0.000248369
0.00019845
0.00289278
0.000621158
0.000299049
0.00121003
0.0123586
0.000367803
0.00628252
0.000883457
0.000296974
0.00443774
0.00279315
0.00122242
0.000352356
0.000707942
0.00103625
0.000255452
0.000391652
0.00672134
0.00171201
0.0104146
0.0088444
0.00121375
0.000668218
0.00581508
0.000284373
0.00041674
0.00672413
0.000255905
0.00664375
0.00583817
0.000336178
0.0163871
0.00162992
0.00142333
0.000152584
0.000473829
0.00589677
0.012009
0.00635217
0.011704
0.000284575
0.0067375
0.00220957
0.000472519
0.0058991
0.00674709
0.00684468
0.000721976
0.00677297
0.0121
0.000473395
0.000316873
0.00100892
0.000697729
0.00532322
0.00677881
0.000518864
0.0027155
0.00501782
0.000658979
0.0173708
0.000590162
0.00136488
0.00626051
0.000965847
0.0121674
0.0148553
0.00634315
0.00312326
0.00526928
0.002489
0.000488312
0.00250174
0.00673597
0.000973576
0.012621
0.000341901
0.0118113
0.00168661
0.00593683
0.00520683
0.00672374
0.000296825
0.00160298
0.00140292
0.000761665
0.00105749
0.00500197
0.00112319
0.00192911
0.00282646
0.000346351
0.00197472
0.00599166
0.00258138
0.00442898
0.000138568
0.012207
0.000604449
0.000899768
0.00041117
0.00221753
0.00101158
0.0039023
0.0122218
0.000106456
0.0125694
0.000366914
0.00144046
0.0020751
0.000476655
0.00986989
0.00672455
0.000544284
0.0172781
0.000481448
0.000663506
0.00321029
1.41469e-05
0.000230079
0.00276039
0.00377075
0.00672288
0.000480743
0.000453109
0.00672304
0.0156519
0.00672276
0.000381827
0.000868719
0.00100043
0.00307631
0.00512253
0.000322621
0.00299483
0.000491089
0.0140934
0.000647099
0.00673004
0.00677114
0.000400413
0.00188592
0.000308028
0.00152835
0.000253272
0.000533043
0.00672368
0.00182379
0.00672531
0.000890967
0.00253223
0.00253348
0.000364437
0.00208206
0.000142478
0.000216563
0.0190835
0.00551028
0.0135618
0.000380433
0.000755647
0.00159986
0.00696218
0.00675951
0.00027994
0.00384432
0.00214289
0.00339013
0.00251211
7.51654e-05
0.0125383
0.00672549
0.00672525
0.000976954
0.00127854
0.000506358
0.00204089
0.000293043
0.00202217
0.00471361
0.000517275
0.00028988
0.000257907
0.00673017
0.000517918
0.000169469
0.00109949
0.00133876
0.00117458
0.000241129
0.000466578
0.00053796
0.000544252
0.000544606
0.000126127
2.89899e-05
0.000280567
0.00329646
0.00635043
0.000538643
0.00783349
0.000293433
0.000701695
0.000311428
0.00429405
0.00102891
0.000320959
0.000729027
0.00673528
0.00673364
0.00082884
0.00290545
0.00178996
0.0161143
0.00673038
0.000665875
8.53877e-05
0.0027337
0.000305696
0.000963255
0.00157166
0.00373642
0.000251425
0.00031212
0.00036534
0.00207217
0.00022979
0.000838199
0.000380724
0.000658473
0.000414984
0.00399686
0.00672511
0.000940798
0.00520315
0.00211427
0.0067207
0.000608253
0.00593964
0.00029042
0.015389
0.00446209
0.000375974
0.000259723
0.000375651
0.00672394
0.00323248
0.00673351
0.0061229
0.00672223
0.000344246
0.000302028
0.000152243
0.00774405
0.00121404
0.00628225
0.00672629
0.00432669
0.000445263
0.006726
0.00672369
0.00283915
0.00103592
0.000403565
0.0165475
0.000661856
0.000398062
0.00677078
0.0109292
0.00082259
0.00162385
0.000503231
0.00672381
0.00144159
0.00527115
0.00108155
0.0031819
0.000743191
0.000652878
0.000431184
0.013916
0.000333146
0.000584061
0.00171822
0.0067323
0.00176339
0.00672393
0.00208518
0.00878015
0.000541224
0.000399866
0.000298374
0.000492449
0.00672456
0.00672629
0.000347323
0.00205455
0.00672492
0.00187976
0.000353085
0.00672169
0.000194784
0.000154859
0.00041832
0.000299171
0.00798241
0.000206295
0.00672372
0.000273563
0.00673058
0.0011117
0.00270045
0.00189038
0.0155594
0.00108913
0.0023646
0.00256153
0.000144792
0.00126021
0.00568008
0.000944209
0.000322409
0.00473197
0.000891121
0.000548869
0.00434099
0.0067441
0.000379065
0.000346938
0.00179643
0.0067254
0.000408995
0.000334671
0.0161168
0.00195747
0.00672296
0.0024421
0.00142222
0.000714097
0.00672799
0.0168164
0.00675959
0.00311839
0.00672714
0.000227482
0.000698653
0.000123987
0.000672632
0.00356273
0.00138572
0.00672113
0.000633179
0.00139785
0.00378638
0.00237934
0.00268547
0.00922425
0.000686618
0.00672041
0.00248507
0.000642219
0.0010228
0.00057235
0.00336924
0.00194031
0.00407629
0.000541045
0.0067256
0.00672112
0.000452195
0.000780095
0.0067234
0.00182987
0.0139784
7.01815e-05
0.0142496
0.00674469
0.00826884
0.0067261
0.00672139
0.00200701
0.00671928
0.00672477
0.0156575
0.00437961
0.00293173
0.00672271
0.000566469
0.00581635
0.00324872
0.000278141
0.00663315
0.0159486
0.00159107
0.000581525
0.00672493
0.000663787
9.77357e-05
0.00573935
0.00672416
0.000236581
0.00362743
0.000436722
0.000432239
0.000525554
0.00672472
0.000531199
0.000534126
0.00227077
0.000853682
0.000410862
0.000327159
0.00672458
0.00339178
0.00338433
0.00437546
0.0091392
0.000649432
0.000925482
5.23714e-05
0.00245015
0.000517516
0.000769292
0.00672231
0.0170606
0.00131259
0.00672039
0.0027055
0.00144629
0.0161157
0.000295734
0.00673539
0.000506854
0.0055321
0.00135916
0.000410656
0.00101109
0.000486991
0.0158242
0.00672287
0.000604058
0.00059025
0.000653751
2.93012e-05
0.00146639
0.000535638
0.0010759
0.0145063
0.00415616
0.00348342
0.000825599
0.00937467
0.00238978
0.00227153
0.000729424
0.00357533
0.00217232
0.00672549
0.00189782
0.00672384
0.012438
0.000544431
0.000429941
0.000415322
0.000929361
0.00674263
0.00300634
0.000776561
0.00226082
0.000705698
0.0188476
0.00065049
0.000897603
0.000316616
0.0140561
0.00135088
0.00960993
0.00673099
0.000411191
0.00132472
0.00384007
0.000355228
0.00672625
0.00673494
0.00013423
0.00355072
0.000330137
0.00192885
0.000460458
0.00408807
0.000345803
0.000490741
0.00341369
0.0145207
0.000299339
0.00672463
0.000684735
0.00150081
0.010364
0.00111205
0.000144793
0.00458963
0.00139966
0.000263557
0.00282507
0.00116579
0.00321624
0.000764854
0.00053675
0.00673051
0.00668745
0.000385301
0.00373905
0.00387408
0.000296784
0.00672395
0.000364772
0.000347602
0.00529835
0.0187247
0.00257031
0.00035662
0.00174093
0.000966297
0.000388829
0.00672332
0.00321887
0.000593394
0.00570099
0.00613687
0.00155662
0.00171984
0.00596766
0.00857254
0.00114487
0.00466684
0.00120387
0.00463345
6.72244e-05
0.00673262
0.000453444
0.00588717
0.00672117
0.00105725
0.00207894
0.00677559
0.00217303
0.000461459
0.00475108
0.014407
0.000385361
0.00341355
0.0021414
0.000492558
0.00630555
0.0067836
0.000431653
0.00970919
0.000814832
0.00673719
0.000447211
0.000682585
0.000307428
0.000371096
0.00677409
0.00673481
0.0026651
0.00542877
0.0020728
0.0128561
0.00119568
0.00672313
0.00544756
0.00607052
0.000920799
0.000379402
0.00131604
0.00336421
0.000342629
0.00672592
0.000188214
0.00351833
0.0131796
0.00818915
0.00032096
0.0040572
0.00211655
0.00767919
0.00103849
0.000922526
0.00861814
0.000869537
0.000313247
0.000122192
0.00021231
0.00199656
5.24583e-05
0.00439228
0.00152358
0.00630652
0.00673119
0.000864449
0.000268073
0.000526814
0.000807548
0.00672261
0.00146718
0.00100428
0.00181024
3.5176e-05
0.00672352
0.000621897
0.00306416
0.00414558
0.000982962
0.001678
0.00672426
0.00210529
0.000477376
0.0151148
0.00416737
0.0067261
0.000946433
0.000815178
0.00193635
0.000475507
0.000832102
0.00672539
0.000687615
0.000548519
0.00402582
0.000690212
0.0038947
0.00107105
0.00131276
0.00012275
0.000339642
0.000345939
0.00508411
0.000403912
0.0106674
0.000832349
0.00708931
0.00182208
0.00480897
0.00869256
0.0052036
0.00629849
0.00399801
0.000589323
0.00128771
0.000369108
0.0015788
0.00420445
0.00672399
0.00609481
0.000739677
0.00673307
0.00133683
0.00102253
0.000667542
0.0012248
0.00672981
0.00672504
0.00393291
0.00672296
0.000271042
0.000480941
0.000333565
0.0112297
0.00673385
0.00529177
0.0123422
0.00956933
0.0025445
0.000501202
0.000142503
0.000626292
0.00672969
0.000203731
0.00135363
0.00672644
0.00263966
0.00412592
0.00219497
0.000327407
0.000564006
0.00344647
0.00412549
0.000542559
0.000334392
0.00672577
0.000651596
0.00411034
0.000581514
0.00672372
0.00305613
0.00103355
8.20369e-05
0.00235756
0.000370266
0.0081499
0.000741689
0.0107909
0.00398052
0.00316801
0.000332339
0.00672904
0.00585942
0.00204016
0.000157581
0.0021519
0.00534962
0.00672336
0.00508694
0.00208276
0.000420679
0.000475268
0.00270402
0.00672492
9.16577e-05
0.00675902
0.0105839
0.00672374
0.000718582
0.00141312
0.00726779
0.00665315
0.00672349
0.000331283
0.00672719
0.00213097
0.00024052
0.000434603
0.000758444
0.00672579
0.00058991
8.60909e-05
0.000484183
0.00206241
0.000286579
0.000290055
0.000880636
0.0005051
0.00114327
0.00546161
0.000367868
0.00193242
0.00104753
0.00672363
0.000455633
0.00673186
0.000608569
0.00673149
0.000234015
0.00402033
0.00673298
0.00211973
0.00105384
0.00672331
0.000496215
0.00672164
0.000162632
0.0041461
0.000596759
0.000458267
0.00672364
0.00672559
0.00014884
0.00672453
0.00672516
0.00173191
0.000862085
0.000458635
0.000234181
0.00268915
0.000453178
0.0058094
0.00672526
0.00672429
0.00672865
0.000280253
0.00584466
0.000994701
0.000497267
0.00673133
0.00672358
0.00603184
0.00672516
0.000597375
0.00217117
0.00447917
0.000392186
0.0001318
0.000302941
0.000331698
4.56752e-05
0.0025995
0.000345755
0.000775579
0.0058579
0.00553667
0.00100279
0.000871312
0.00412151
0.000329361
0.00672754
0.00144879
0.000354446
0.00300036
7.28968e-05
0.00270562
0.000136002
0.00756466
0.00463127
0.00672355
0.00145688
5.54643e-05
0.00317742
0.000505452
0.000417061
0.00302022
0.00159446
0.000871871
0.00151346
0.000387187
0.00672603
0.000285734
0.0115318
0.00230708
0.00677218
0.00974495
0.000453508
0.000435253
0.0101749
0.000778812
0.00165923
0.00672753
0.00267132
0.00539032
0.00838636
0.0108639
0.00035864
0.0043086
0.00935418
0.00672411
0.000301262
0.000471963
0.00295769
0.000607675
0.00672632
0.0191684
0.0147041
0.00677641
0.000426579
0.00126279
0.000721698
0.000463897
0.0009929
0.00045279
0.00133838
0.00069492
0.000867938
0.00672405
0.0011728
7.95879e-05
0.000683829
0.00672671
0.00038659
0.000450349
0.00113501
0.00672578
0.0139986
0.00135668
0.000954426
0.00579233
0.000420642
0.000479365
0.000144498
0.00672346
0.0015724
0.000306058
0.000201043
0.000343572
0.00672343
0.00139682
0.00127823
0.000358236
0.00672354
0.000271245
0.00244239
0.000297235
0.00227646
0.00182578
0.0032493
0.000533256
0.00480632
0.00172617
0.00672484
0.00087579
0.00113993
0.000725593
0.000300626
0.00101586
0.000322305
0.000340132
0.000696506
0.000937504
0.00673211
9.13421e-05
0.00151026
0.000424702
0.0051237
0.000802755
0.00047388
0.00673491
0.00379251
0.000271341
0.00276829
0.00148631
0.000983578
0.00512037
0.000289686
0.00127759
0.00157093
0.000988105
0.000302962
0.000316339
0.000636806
0.0067339
3.6193e-05
0.00678268
0.000473009
0.00298778
0.00219251
0.00053006
0.000224425
0.00672383
0.00381126
0.0067337
0.000608824
0.000694795
0.000538349
0.0168503
0.00308985
0.00672043
0.000517113
0.000151335
0.00673088
0.0071978
0.00672821
0.000978247
0.00150223
0.0021102
0.000668806
0.000963266
0.00417357
0.000465748
0.000453453
0.000686157
0.00034803
0.00673199
0.0045604
0.00173791
0.00672098
0.00043465
0.000759561
0.000376388
0.00835873
0.0067212
0.00140447
0.000466114
0.0110118
0.00672869
0.00672354
0.00054568
0.000771685
0.00672086
0.000397289
0.000404477
0.00411119
0.000447601
0.000557378
0.000366896
0.0067271
5.3506e-05
0.00672837
0.00440641
0.000660491
0.00673349
0.00225748
0.000299602
0.00672288
0.00328271
0.000299772
0.000605625
0.00352724
0.0050158
0.0067238
0.00672952
0.00037922
0.00672606
0.00559281
0.0169194
0.00672577
0.000640996
0.00051577
0.0109441
0.00320972
0.00674234
0.00077847
0.000427958
0.00672252
0.00357713
0.00672455
0.000535707
0.00672401
0.00078461
0.000422654
0.00677313
0.00676219
0.000737318
0.000389328
0.00044396
0.000164341
0.000344804
0.00111428
0.00530983
0.000256663
0.00230826
0.000892903
0.000234326
0.000293855
0.00101808
0.00172756
0.00387287
0.00326615
0.00390794
0.00155892
0.00380095
0.000514105
0.000234851
0.00661986
0.00367928
0.000106677
0.00672504
0.00221229
0.00672612
0.0067316
0.00244503
0.00360632
0.0026378
0.00672036
0.00773241
0.00672265
0.000165326
0.00198431
0.000396673
0.000191098
0.00340258
0.00436522
0.000778735
0.00672456
0.000833225
0.00617126
0.000386948
0.00402239
0.000808537
0.000998857
0.000548095
5.76844e-05
0.0036564
0.000549017
0.000793366
0.00467891
0.000313129
0.00350789
0.00204492
0.00012321
0.000372506
0.0029639
0.00675029
0.00596728
0.00268731
7.66268e-05
0.00855759
0.000495014
0.000548689
0.00082383
0.000757525
0.000815632
0.0160844
0.000634396
0.00672247
0.000309252
0.000288728
0.00133008
0.00673316
0.00672266
0.0152623
0.00672526
0.000584325
0.0099571
0.000643228
0.00430102
0.000306537
0.000882925
0.00282539
0.00672446
0.00462394
0.00672844
0.000539707
0.00230341
0.00330718
0.000581034
0.0099303
0.00498507
0.00672453
0.0100818
0.00449152
0.00233607
0.00407466
0.0147088
0.0058351
0.000832131
0.00672775
0.00446382
0.00944533
0.000436943
0.000120994
0.000455027
0.00426438
0.00672396
0.000887445
0.0067223
0.000631629
0.00676569
0.0016672
0.0067238
0.0114749
0.00672947
0.000967189
0.0067643
0.000188528
0.000265439
0.00673176
0.000288321
0.0164414
0.000524541
0.000570614
0.000527988
0.000261019
0.000946049
0.000709462
0.000300456
0.00741069
0.0051973
0.00168965
0.000417738
0.00357889
0.00373388
0.00583788
0.000450131
0.000309778
0.000530898
0.000497704
0.00470295
0.00652725
0.00675741
0.000285548
0.0140907
0.000363115
0.000296249
0.00209514
0.00673057
0.0140564
0.0056443
0.00840313
0.006724
0.00494798
0.00835594
0.000258718
6.80083e-05
0.00840189
0.000590169
0.0006871
0.000288137
0.000579032
0.00404366
0.00099167
0.000381584
0.00673083
0.00752182
0.00672383
0.000547444
0.000668528
0.00051878
0.00719235
0.000302338
0.00182407
0.00111302
0.000505605
0.00172945
0.0179832
0.000298489
0.0017137
0.000601845
0.000341753
0.00018455
0.00672682
0.000445953
0.000135945
0.000290109
0.00415912
0.000311389
0.000890313
0.000319098
0.000659131
0.000697804
0.00105741
0.000205845
0.00584378
0.002373
0.00147369
0.00855396
0.000509407
0.00110797
0.00125157
0.00672399
0.000228827
0.00196294
0.00165278
0.000291448
0.00158323
0.00672447
8.72783e-05
0.00054894
0.000390643
0.00414457
0.00658397
0.00672836
0.000649224
0.00672396
0.00132842
0.00141324
0.00178672
0.000572168
0.00559758
0.000859399
0.00237378
0.000933175
0.006863
0.00672555
0.0115206
0.00127521
0.00672913
4.10355e-05
0.000235332
0.000269563
0.00133446
0.000388114
0.00106158
8.48329e-05
0.000930189
0.0015468
0.00672414
0.00291162
0.00284303
0.000478952
0.00147071
0.0051278
0.00672733
0.000228088
0.00536975
0.000523311
0.000711488
0.000103644
0.00673341
0.000248002
0.00306171
0.0113123
0.0067302
0.000284566
2.77298e-05
0.00374483
0.00625174
0.00148676
0.00211955
0.000257377
0.00133176
0.000424592
0.000671408
0.000423465
0.00672463
0.00526787
0.000332739
0.00672404
0.00268347
0.000301274
0.00672561
7.1487e-05
0.0056364
0.0177087
0.00847037
0.00421944
0.000653731
0.0104432
0.00257971
0.00672354
0.0177066
0.00675484
0.00635615
0.00673072
0.000212724
0.0121063
0.00339711
0.000472261
0.00459252
0.00137008
0.000330131
0.00551071
0.00672107
0.000511322
0.0179581
0.00672378
0.00672386
0.00631498
0.000643994
0.00317291
0.00673132
0.0124306
0.0106922
0.00388158
0.0003363
0.00672531
0.0114784
5.12979e-05
0.00410471
0.00336281
0.00197336
0.0117441
0.00619672
0.00489424
0.00672502
0.00672606
0.00956181
0.00531045
0.000180224
0.000586157
0.00236348
0.001839
0.000338413
0.000573787
0.000453067
0.0163936
0.0109487
0.00672243
0.00142386
0.00129825
0.000812589
0.00210731
0.00672853
0.00326311
0.000426875
0.000865327
0.00130816
0.00672139
0.00051114
0.000492806
0.00356657
0.00672404
0.00036933
0.00223939
0.00035405
0.00159141
0.00969875
0.001121
0.000189033
0.000806163
0.00430169
0.000974373
0.000393602
5.72674e-05
0.00546084
0.0174148
0.00672281
0.000507957
8.26873e-05
0.0172849
0.00291951
0.000462801
0.000547232
0.00307836
0.0123503
0.00672518
0.000776631
0.00398123
0.0166425
0.000362526
0.0130408
0.000569362
0.000514142
0.00675783
0.0147798
0.000601802
0.0129278
0.00675802
0.00404073
0.00673288
0.00672929
0.000816066
0.000375095
0.000358678
0.00351559
0.00559672
0.0011173
0.00542755
0.000469634
0.00460562
0.000154538
0.00407167
0.0118898
0.000981237
0.00116592
0.00154596
0.00672436
0.000372961
0.00673055
0.00339563
0.000169185
0.00227899
0.00646944
0.000515368
0.000582462
0.00675831
0.00814665
0.00885109
0.000374928
0.006773
0.00288293
0.00672343
0.000262434
0.00147569
0.000189767
0.009681
0.00609824
0.000223845
0.012357
0.000344639
0.000550384
0.00673968
0.00837101
0.000177051
0.000292217
0.000106491
0.006725
0.000680018
0.000304082
0.000518898
0.000515775
0.0179239
0.00530236
0.0016031
0.00563233
0.000489242
0.000311095
0.00672452
0.00315299
0.00672976
0.000337419
0.000530557
0.000316018
0.0138847
0.00627589
0.00672596
0.001197
0.00028939
0.00110145
0.0067537
0.0166296
0.00126938
0.00107305
0.002256
0.0031606
0.000446329
0.0152009
0.000159883
0.000718668
0.000348539
0.00672499
0.00121516
0.000459238
0.000339746
0.0029488
0.00672103
0.00341571
0.00887026
0.00251454
0.00528383
0.000349763
0.000882459
0.0034468
0.00672388
0.00281166
0.0115648
7.13242e-05
0.000471042
0.00262273
0.00162128
0.00196737
0.00026448
0.000330254
0.00236806
0.000738679
0.00673252
0.000197582
0.000351151
0.00484591
0.000774953
0.0115217
0.0147617
0.000614803
0.00791934
0.0111164
0.017221
0.00103376
0.00603515
0.014745
0.0074848
0.0121048
0.00278598
0.000646221
0.00463934
0.00507941
0.000591939
0.0158034
0.000472049
0.00673031
0.000359268
0.000358541
0.000500952
0.00818313
0.00494247
0.000426352
0.00672092
0.00985172
0.00056814
0.000483891
0.00146729
0.000580666
0.0024605
0.00673427
0.000543431
0.000500599
0.000966092
0.000932192
0.00110058
0.000779456
0.000641429
0.00645422
0.000358533
0.000988844
0.0111886
0.000594606
0.00672421
2.87893e-05
5.967e-05
0.00349158
0.000510652
0.00292294
0.000893796
0.000748442
0.000427967
0.00672499
0.000254585
0.00113977
0.000782059
0.000237249
0.00672468
0.00158512
0.00578038
0.00119894
0.0175339
0.000796127
0.000612474
0.00672911
0.00564078
0.000780399
0.00675422
0.0171689
0.00544376
0.0067258
0.00673702
0.00071343
0.000662094
0.00169215
0.000556422
0.0006668
0.000312506
0.000760249
0.000233625
0.000713372
0.000529886
0.0038921
0.00121437
0.00883079
0.000494346
0.0170417
0.000743153
0.00672052
0.00673787
0.000331226
0.000286824
0.00672646
0.000279713
0.000741092
0.000374091
0.000676675
0.00322855
0.00150329
0.0067258
0.00666622
0.000467635
0.000489699
0.00673564
0.000325703
0.00101502
0.00386428
7.802e-05
0.000427275
0.00672624
0.00106986
0.000430792
0.00692759
0.00745884
0.0006626
0.000918165
0.000281393
0.00153833
0.00610724
0.00867271
0.000383005
0.00372261
0.000474508
0.0052096
0.00897192
0.000778281
0.000627149
0.000363658
0.0162779
0.00418764
0.00417181
0.00819079
0.000485712
0.0112714
0.000251863
0.00673071
0.000503199
0.000326527
0.000164358
0.000487336
0.000481858
0.00485886
0.00104959
0.00672502
0.0043566
0.000420235
0.00139641
0.000186261
0.00419692
0.00325173
0.000330492
0.00174903
0.00301773
0.00672575
0.000517254
0.00343425
0.000984591
0.00054945
0.000542961
0.000382598
0.00315389
0.000233495
0.00077577
0.000570557
8.56942e-05
0.00258213
0.000183426
0.000161215
0.00559837
0.000492359
0.00707895
0.00411048
0.00332266
0.00012906
0.00652692
0.00451242
0.00133371
6.08194e-05
0.00901689
0.000456003
0.0060735
0.000486895
0.00471849
0.000517625
0.00672821
0.001155
0.000390882
0.00379305
5.16965e-05
0.000784456
0.000150521
0.000593002
0.012404
0.00301827
0.00779958
0.00614503
0.000601897
0.0124066
0.00672431
0.00672127
0.00420989
0.00271446
0.00672556
0.000345184
0.00282101
0.00034937
0.00167239
0.0110579
0.00672198
0.000711971
0.00728655
0.00672373
0.00034094
0.00262189
0.00976208
0.00483443
0.00681467
0.0043605
0.0067347
0.00101106
0.000399526
0.000469292
0.00672637
0.000632228
0.00673343
0.00621976
0.000373204
0.000161943
0.000412014
0.00552328
0.00036674
0.000500871
8.99145e-05
0.00199358
0.000465308
0.00169049
0.00672915
0.00051566
0.000361102
0.00675206
0.0150451
0.00490002
0.00048018
0.0025781
0.0140826
0.00192576
0.00558452
0.000243123
0.000425559
0.000266723
0.00396743
0.015836
0.000149811
0.00167734
0.00151187
0.00106306
0.00125109
0.000304347
0.00100819
0.00672456
6.17076e-05
0.000416835
0.000474315
0.00462394
0.000602114
0.00031741
0.000256007
0.000368781
0.000977613
0.00561231
0.000342503
0.00673929
0.000317522
0.000585917
0.00971506
0.0067279
0.000531647
0.00480084
0.00212706
0.000358755
0.00173129
0.000527107
0.0151755
0.000429747
0.000912399
0.00128007
0.00672655
0.000967498
0.00672328
0.00194264
0.000361023
0.00221103
0.000515783
3.31038e-05
0.000115335
0.00134323
0.00273146
6.3804e-05
0.000478997
0.0143109
0.00054291
0.000207652
0.000300006
0.0014649
0.000816365
0.000192796
0.000513503
8.86378e-05
0.000457749
0.000323206
0.00115878
0.00458274
0.000289596
0.0038305
0.000772063
0.00672816
0.000453518
0.000795937
0.000480765
0.00930341
0.00110497
0.000379048
0.00671832
0.00247491
0.00672383
0.00672427
0.00217704
0.00673218
0.000483554
0.00344581
0.000525732
0.000587875
0.00192897
0.00310044
0.000730447
0.00333709
0.000777008
0.00719126
0.00469996
0.000511263
0.000497748
0.00173905
0.00672368
0.000397963
7.74454e-05
0.000444673
0.0120115
0.000585348
0.0116212
0.000521274
0.00672421
0.00672626
0.00413089
0.00444222
0.000980988
9.07555e-05
0.000522479
0.00247411
0.010427
0.00672366
0.000838893
0.00434955
0.00141423
5.97538e-05
0.000526869
0.0024314
0.0014427
0.00022709
0.000597649
0.000697047
9.23595e-05
8.74795e-05
0.000375118
0.000638329
0.00289536
0.00154707
0.000794956
0.00210437
0.0169135
0.00156979
0.0011529
0.0105344
0.00061436
0.00209111
0.00672926
0.00103437
0.00672346
0.00167682
0.00327443
0.00571858
0.00604604
0.000414824
0.000635665
0.00102786
0.000303067
0.00273697
0.00455767
0.000471123
0.0174469
0.000332558
0.00313624
0.000811764
9.61559e-05
0.0037321
0.000188013
0.0067252
0.000221962
0.000726019
0.000105191
0.0157427
0.000287759
0.00993512
0.00673749
0.0100564
0.00264603
0.00101339
0.00172141
0.000446605
0.00672273
0.000156317
0.00096873
9.17191e-05
0.00048653
0.000479155
8.72285e-05
0.00436282
0.00679995
0.00219624
0.00031148
0.00158684
0.0148162
0.00739902
0.000251739
0.00672432
0.000274215
0.00031084
0.000286197
0.00365024
0.00851612
0.00426148
0.00672662
0.00476802
0.00455131
0.00314961
0.00380868
0.0013642
0.00582608
0.000298002
8.44127e-05
0.00656987
0.00697788
0.00259224
0.0141634
0.00394337
0.00172903
0.00162587
8.58626e-05
0.00207524
0.000432089
0.00629525
0.00207677
0.00184581
0.0017046
0.000277788
0.000844497
0.00079564
0.000219555
0.000519758
0.00456799
0.000167705
0.000699315
0.00208597
0.000739081
0.00493708
0.00664171
0.00672366
0.00222673
0.00252693
0.000683391
0.0102007
0.00057489
6.79051e-05
0.00117725
0.00104849
0.00215492
0.0165043
0.00991739
0.00159981
0.00144783
0.00885445
0.00578962
0.00110629
0.000671805
0.00212589
0.00155808
0.00231629
0.00141255
0.0171113
0.000187738
9.57695e-05
0.000424925
0.00224275
0.00675158
0.000196307
0.00672607
0.00351121
7.87679e-05
0.000104008
0.00672059
0.000469641
0.000177397
0.000943665
0.00672634
0.0067218
7.45233e-05
0.00237838
0.00346509
0.00142864
0.0126593
0.00141316
0.000240973
0.00672755
6.09504e-05
8.60115e-05
0.00236925
0.000641323
0.00673126
0.0141938
0.00608599
0.000291443
0.000410776
0.000416727
0.000338861
0.0067237
0.00112537
0.0067348
0.0022884
0.00672472
0.00376545
0.00674554
0.00147981
0.000165331
0.000602688
0.00096222
0.00667771
0.0150997
0.000336778
0.00233903
0.00687431
0.000300506
0.000540173
0.00509216
0.000513401
0.000623769
0.00162981
7.11941e-05
0.00022687
0.00442431
0.0173152
0.00673199
0.0033634
0.00021088
0.0104814
0.00672146
0.000507885
0.0161221
0.00672579
0.0040872
0.000592751
0.0040762
0.00672177
0.00295206
0.000334386
5.99127e-05
0.00205542
0.000359415
0.00618497
0.00292782
0.0045202
0.012941
0.00554227
0.00111539
0.00476211
0.00162028
0.0067232
0.000348099
4.55911e-05
0.00525682
0.00194553
0.0059922
0.000607503
0.00672155
0.00672095
0.00526931
0.00214846