/*--------------------------------*- C++ -*----------------------------------*\
| =========                 |                                                 |
| \\      /  F ield         | OpenFOAM: The Open Source CFD Toolbox           |
|  \\    /   O peration     | Version:  v2012                                 |
|   \\  /    A nd           | Website:  www.openfoam.com                      |
|    \\/     M anipulation  |                                                 |
\*---------------------------------------------------------------------------*/
FoamFile
{
    version     2.0;
    format      ascii;
    class       volVectorField;
    location    "550";
    object      U_0;
}
// * * * * * * * * * * * * * * * * * * * * * * * * * * * * * * * * * * * * * //

dimensions      [0 1 -1 0 0 0 0];


internalField   nonuniform List<vector> 
13851
(
(1.16031 0.134943 8.02295e-21)
(1.07364 -0.0241435 0)
(1.07188 -0.0230807 0)
(-0.148487 -0.0330966 -1.24423e-19)
(1.0015 -0.00035372 5.54043e-21)
(1.08499 -0.0409016 0)
(1.05546 0.0111702 5.46358e-21)
(1.01307 -0.000895164 0)
(0.446945 0.123571 0)
(0.990375 -0.00493365 -3.06229e-21)
(1.16326 -0.132406 0)
(1.00036 -0.0065095 -3.09614e-21)
(0.979064 -0.018496 0)
(0.00114216 0.0225141 0)
(1.10468 0.0243587 -4.04072e-20)
(1.01624 0.0686361 1.47014e-21)
(-0.287651 -0.028364 0)
(1.03526 -0.0209775 0)
(1.34856 0.040796 -1.20328e-19)
(1.16514 0.12945 7.54443e-21)
(1.12493 0.0190193 1.8728e-20)
(1.03271 -0.0971329 0)
(0.584255 -0.294978 0)
(1.00005 -0.000152025 1.07713e-20)
(0.868031 -0.0908215 0)
(1.05167 0.0568358 -1.32265e-20)
(1.00753 0.1647 -1.25723e-21)
(1.04589 0.135007 1.08915e-21)
(0.812898 0.0647663 0)
(1.02042 -0.0136505 1.13179e-21)
(-0.0452735 -0.0380559 0)
(1.05579 0.0106999 5.56357e-21)
(1.1342 0.135906 5.16398e-20)
(0.369476 0.144147 0)
(1.13371 -0.104034 3.99151e-20)
(0.857226 0.0494726 -4.97727e-21)
(1.00003 -0.000137473 -1.09915e-20)
(0.984868 -0.185071 0)
(-0.0314553 -0.0545996 2.77436e-20)
(1.00401 -0.0403395 -1.23482e-20)
(0.0557466 0.0470055 7.56851e-20)
(0.853265 0.0715729 1.22809e-20)
(-0.193431 -0.0248484 0)
(1.03873 -0.457393 1.03375e-20)
(0.849477 0.104354 0)
(1.0133 -0.0246088 -7.90069e-21)
(1.02003 -3.85011e-05 -9.6068e-22)
(1.02943 0.0947809 -3.34199e-22)
(1.0439 -0.0616373 1.24204e-21)
(0.978869 -0.0174655 -8.19256e-21)
(-0.434204 -0.0288449 0)
(0.972429 -0.0113982 0)
(1.01814 0.0706345 0)
(1.066 0.0257474 -1.59956e-20)
(0.21994 0.021878 -3.41686e-20)
(1.00289 -0.0405947 5.9301e-21)
(1.13907 0.139817 -5.82535e-20)
(0.00724602 0.034891 -1.10026e-19)
(0.982265 0.117338 4.88122e-21)
(-0.29493 0.00376321 0)
(1.00031 -0.00600624 2.93949e-21)
(1.01529 0.162546 5.74884e-21)
(0.995222 0.000740454 -5.59382e-22)
(1.04409 -0.064046 2.41396e-21)
(0.842681 -0.417619 4.10342e-20)
(0.8247 -0.435326 0)
(-0.331071 -0.00251419 0)
(0.686392 -0.100753 0)
(1.01835 -0.0425643 3.78409e-21)
(-0.115305 -0.0302549 1.92325e-20)
(-0.111882 -0.0360778 -1.98515e-19)
(1.14085 0.0272981 -2.78909e-20)
(0.991638 -0.0266182 0)
(-0.299027 0.00198905 -3.13032e-21)
(1.07424 0.027569 9.50744e-21)
(1.01573 -0.0777358 4.98221e-21)
(-0.260625 -0.0334222 6.83321e-20)
(1.0217 -0.00690061 0)
(0.943057 -0.0937096 3.06398e-20)
(1.00331 -0.0181341 -7.26411e-21)
(1.01957 -0.0432343 0)
(1.2665 -0.179218 0)
(1.12906 -0.10518 -2.5888e-20)
(-0.038103 0.0240874 1.39348e-20)
(-0.26847 0.00672348 0)
(-0.0665997 -0.0372335 0)
(1.03592 -0.0987052 -3.07328e-23)
(0.578784 -0.000386619 3.05218e-20)
(0.990679 -0.00967048 7.7279e-21)
(-0.0421715 -0.0357749 0)
(0.971308 -0.0105356 -4.65787e-21)
(1.05689 0.0108554 -1.86593e-20)
(-0.323606 -0.0281654 -9.663e-20)
(-0.0970333 -0.0357317 -6.28466e-20)
(-0.140446 -0.0481069 0)
(1.02759 -0.42196 0)
(1.00806 -0.0259525 1.09448e-20)
(1.02025 0.0836134 0)
(-0.455372 -0.0223283 0)
(1.17839 -0.238765 -3.2727e-21)
(1.01865 0.0878017 0)
(0.801936 -0.101696 -3.98423e-20)
(0.80012 -0.134054 1.99986e-20)
(0.987469 -0.0282464 -1.03339e-20)
(1.0171 -0.0245316 0)
(1.15115 0.00152635 7.7023e-21)
(1.01637 -0.0241972 0)
(-0.0928289 -0.037561 1.3813e-19)
(1.05719 0.0102478 1.81906e-20)
(1.0343 -0.0204321 -1.42281e-21)
(1.01502 -0.135164 -5.47919e-21)
(1.01408 -0.0251344 0)
(1.27926 -0.0669416 1.00351e-20)
(1.18653 -0.0669471 0)
(1.09252 0.134692 0)
(1.06607 0.0243813 0)
(1.01401 -0.00919534 -2.13021e-21)
(1.01384 -0.00105913 2.65433e-21)
(-0.163244 -0.031475 1.01583e-19)
(-0.0830232 -0.0328056 -6.3338e-20)
(1.06047 -0.359737 -2.34981e-20)
(1.02854 -0.0174704 -4.72499e-23)
(1.01314 -0.043011 -7.1893e-21)
(-0.0884541 0.0440415 0)
(1.29199 0.107052 -2.10819e-20)
(0.605515 -0.175551 1.07256e-19)
(1.00863 -0.0255771 -1.40216e-20)
(1.11447 -0.174457 -1.6684e-20)
(0.118836 0.088405 0)
(1.11946 0.0378183 -3.07974e-21)
(1.02899 -0.0989258 2.88998e-22)
(1.10132 -0.0751942 1.12872e-20)
(1.14056 -0.218358 7.01317e-20)
(0.35436 0.142617 -2.01744e-20)
(1.16915 -0.131004 0)
(-0.132783 -0.0476544 2.95616e-20)
(0.700193 -0.0939665 0)
(-0.080554 -0.0371012 -5.35903e-20)
(0.841526 -0.0769337 5.16655e-20)
(1.11069 0.0408123 9.89729e-21)
(1.25969 -0.179629 5.00913e-21)
(0.971326 -0.0440477 -3.2405e-21)
(0.990012 -0.00981033 4.5932e-21)
(0.725452 -0.283278 -1.73878e-20)
(0.855807 -0.0585803 0)
(1.00196 -0.0749947 1.57905e-20)
(1.02149 -0.00642825 1.15171e-22)
(-0.0885314 -0.035602 -6.32498e-20)
(0.546665 0.071406 8.24632e-21)
(1.11871 -0.177869 0)
(1.02075 0.0906052 3.48318e-21)
(1.27362 -0.0700265 -8.13919e-21)
(1.19245 -0.067525 0)
(1.31051 0.0532115 -4.73083e-20)
(0.970554 -0.0216246 1.09722e-20)
(0.982863 -0.00689143 -5.45655e-21)
(1.00058 -0.00495541 0)
(-0.0659156 -0.0544057 4.12673e-21)
(1.10931 0.034565 -2.58103e-20)
(1.06034 0.00275666 -8.24758e-21)
(1.0001 -0.000347189 1.08432e-20)
(0.830899 0.0576134 2.05936e-20)
(1.14674 0.00282692 -1.42533e-20)
(1.03209 0.0970223 5.83517e-21)
(0.0112396 0.0214531 0)
(0.636022 0.153737 2.39705e-21)
(0.642877 0.161792 4.56709e-21)
(-0.405789 -0.0303126 0)
(1.01649 -0.130432 5.75096e-21)
(0.554084 0.0366396 0)
(1.00012 -0.00531478 0)
(1.01395 -0.00875872 4.27451e-21)
(1.17582 -0.00714092 5.3559e-21)
(1.00076 -0.000308657 0)
(-0.108767 -0.0467927 0)
(1.07543 0.216001 7.43656e-21)
(1.03041 0.116826 2.07543e-21)
(1.0146 -0.00871434 2.56651e-21)
(1.07145 0.0279267 0)
(1.03093 0.111922 3.12984e-21)
(1.28156 0.108335 4.92936e-21)
(1.04571 -0.441766 0)
(1.02295 -0.124014 -2.71791e-21)
(1.11601 0.03721 0)
(-0.220569 -0.0264874 8.78863e-20)
(0.565485 0.0740252 7.8134e-22)
(1.12839 0.13925 -4.1847e-20)
(0.884115 -0.0584333 0)
(0.974971 -0.0226605 0)
(1.01835 -0.0184756 -2.39772e-21)
(0.948301 -0.0604124 0)
(1.11118 0.0329503 -3.94065e-20)
(-0.0257831 0.00648203 1.47725e-21)
(1.08668 -0.038341 1.29867e-20)
(1.00406 -0.0730072 0)
(1.01886 0.0769267 -2.92597e-21)
(1.12375 0.135123 3.31116e-20)
(1.04574 -0.0112769 -4.79089e-21)
(1.04094 -0.0299107 0)
(0.700559 -0.135601 0)
(1.25262 -0.188751 -8.1667e-20)
(-0.130784 -0.0297716 -6.25041e-20)
(-0.0201428 0.0273029 9.44101e-20)
(1.10196 0.0249629 1.50645e-20)
(0.887789 -0.654326 -2.20194e-20)
(-0.175942 -0.0282744 0)
(0.935762 -0.0174527 -7.12411e-22)
(1.09408 0.0462742 0)
(0.412004 0.127492 -1.41064e-20)
(1.07805 -0.0498825 6.33187e-21)
(1.01619 0.062999 -8.20404e-21)
(1.01257 -0.0421086 3.66659e-21)
(1.25933 -0.188242 9.64479e-20)
(1.00002 -0.00128957 -3.72885e-21)
(1.13961 -0.0963601 5.78491e-20)
(1.01871 -0.0860124 7.85824e-21)
(0.980175 -0.0163394 7.358e-21)
(1.20197 0.172893 3.63513e-20)
(1.04522 -0.0205919 3.6573e-21)
(0.150143 -0.495638 -1.29532e-19)
(1.01465 -0.0082565 -3.1436e-21)
(1.17812 0.125139 4.57468e-21)
(-0.0723096 0.0143656 -2.01066e-20)
(-0.12277 -0.0486741 -8.20234e-20)
(0.895139 -0.0689323 0)
(1.09246 0.0475925 0)
(1 -0.000668288 7.01024e-21)
(0.729178 -0.263022 -2.12732e-20)
(1.00025 -0.0119107 6.82415e-21)
(1.13524 -0.0972562 -5.42005e-20)
(-0.0099669 -0.0511113 1.24994e-19)
(0.889562 -0.0595231 -6.11194e-20)
(1.07803 -0.0473586 0)
(0.996184 0.00274121 0)
(-0.0402449 0.0279281 -1.04304e-19)
(1.02113 -0.0134203 -7.5798e-22)
(0.893746 -0.436868 0)
(-0.0474216 0.0182502 2.7936e-20)
(1.17371 -0.232578 4.96783e-20)
(1.00007 -0.000333721 -1.18387e-20)
(1.21708 -0.349981 0)
(-0.247432 0.00697391 0)
(0.875163 0.103999 -1.09877e-20)
(1.01781 0.0648191 6.64611e-21)
(1.11412 -0.00889957 0)
(0.690122 -0.312029 0)
(1.19824 0.164705 3.30596e-20)
(1.07028 0.0286902 1.35723e-20)
(1.03154 -0.406454 0)
(1.03401 -0.139648 -7.6853e-23)
(0.406488 0.00786921 2.86036e-20)
(1.24009 0.0701597 -1.14577e-19)
(1.00972 -0.000941669 -8.05547e-21)
(1.08433 -0.0126877 0)
(1.01753 0.081046 2.24073e-21)
(0.819915 0.0529263 -2.48374e-20)
(0.697623 -0.00432231 0)
(1.01789 -0.01774 -2.72627e-21)
(0.582537 -0.170559 -1.45119e-19)
(0.991501 -0.0105896 -1.70202e-20)
(1.1262 0.172692 3.4958e-20)
(1.29807 0.0873134 4.75352e-21)
(1.08638 -0.01183 0)
(1.14704 0.00840397 0)
(1.24853 0.0684813 1.04706e-19)
(0.997546 -0.025077 0)
(0.79653 -0.110941 4.65604e-20)
(1.04315 0.0946234 8.45021e-21)
(1.15886 0.187469 -2.53226e-20)
(0.996967 -0.00544893 -1.23187e-20)
(0.980187 -0.0152435 9.21024e-22)
(0.889803 -0.0669495 4.02647e-20)
(0.536885 0.175214 0)
(-0.206631 -0.0265935 1.60486e-19)
(1.12897 0.0277079 4.30651e-20)
(1.02956 -0.0179864 0)
(1.27935 0.120813 -1.0084e-19)
(1.30494 0.0705631 -2.80071e-21)
(1.10632 0.12499 0)
(1.14364 0.00965987 -6.87111e-21)
(0.483934 0.160926 0)
(-0.44053 -0.0157329 0)
(1.09108 -0.0215222 0)
(1.09808 0.0188964 -7.80397e-21)
(0.969781 -0.200546 1.17667e-21)
(1.01935 -0.0236445 1.3773e-21)
(1.00072 -0.00472832 -1.30389e-20)
(1.11101 0.129038 -6.87209e-21)
(1.14197 -0.143823 2.5786e-21)
(1.02257 -0.0135825 0)
(1.00004 -0.00130357 0)
(0.999998 -0.0123178 8.6818e-21)
(1.00339 -0.000563118 0)
(1.10845 0.00278954 -4.46127e-20)
(1.00073 -0.005091 3.93837e-21)
(0.459795 0.132223 1.15624e-20)
(1.12744 0.0214433 0)
(1.00956 -0.0346403 -3.02912e-21)
(0.828213 0.0473847 0)
(-0.107285 0.0387624 1.11369e-20)
(0.973163 -0.0170573 -9.30471e-21)
(1.17393 0.131591 0)
(-0.455116 -0.0256359 2.35903e-20)
(0.970062 -0.046365 0)
(0.971852 -0.0162725 4.97261e-21)
(1.13154 0.0214959 0)
(-0.112421 0.00996692 2.33586e-21)
(0.174494 -0.0543078 8.24279e-20)
(1.18033 0.014856 0)
(1.00168 -0.000478575 -2.5511e-21)
(0.591797 0.0459401 -1.09032e-20)
(1.00016 -0.0057824 0)
(1.19139 0.0127055 -3.57066e-21)
(-0.42474 -0.0265887 0)
(1.1785 0.204847 -7.4156e-20)
(1.05928 0.00224496 0)
(1.0845 -0.24055 -3.85274e-20)
(1.25839 -0.251803 0)
(-0.0690384 -0.0410122 -2.71768e-20)
(1.26865 -0.0824736 0)
(0.774037 -0.0785287 -1.89644e-21)
(-0.0802025 -0.0514962 -3.03554e-20)
(-0.0224128 0.0611906 -3.70941e-20)
(1.06968 0.128761 -7.28514e-20)
(1.04229 -0.0306995 0)
(-0.211224 -0.0303319 -5.66743e-23)
(0.364999 -0.0158007 -2.48344e-20)
(0.449479 -0.412024 3.8407e-20)
(0.484141 -0.41743 0)
(0.933871 -0.0185988 4.78217e-20)
(1.18338 -2.63916e-05 0)
(0.937245 -0.11401 -3.99908e-20)
(0.590338 0.00195927 1.22008e-20)
(0.775906 -0.124723 -9.21593e-20)
(1.00734 -0.00205884 9.82273e-22)
(1.02004 -0.000109756 6.88442e-22)
(1.06678 -0.0895301 0)
(-0.0951896 -0.0420945 -3.00838e-20)
(0.202541 -0.50134 0)
(1.01941 -0.0228189 -5.18822e-21)
(-0.146449 -0.0469282 1.19141e-19)
(0.926688 -0.110311 -4.37135e-20)
(1.10168 -0.0788193 0)
(1.06042 0.00365692 0)
(-0.122536 0.00161462 0)
(1.27175 0.122782 6.00007e-20)
(1.01645 0.0746239 4.39208e-22)
(1.01656 -0.0834801 -2.25552e-21)
(1.07516 -0.0463196 0)
(0.899404 0.0221774 -8.17066e-21)
(0.974661 -0.0243594 1.03874e-20)
(1.31451 0.0634035 -4.94221e-20)
(1.08929 -0.0200905 0)
(1.13388 0.0193395 2.56659e-20)
(0.920676 -0.11216 -1.35732e-20)
(0.990838 -0.0106399 8.61027e-21)
(1.0104 -0.0342018 5.28887e-21)
(1.234 -0.153419 0)
(1.18606 -0.237881 0)
(1.23279 0.0819913 0)
(1.22799 -0.244732 -1.3201e-19)
(0.907548 0.0248596 4.02662e-21)
(1.00297 -0.076571 -2.79028e-20)
(-0.0720477 0.0196689 0)
(1.14181 0.192672 1.6125e-20)
(1.02786 -0.00904934 9.35601e-22)
(1.15224 0.209066 1.05508e-19)
(1.16231 0.0884703 0)
(-0.427692 -0.0221187 1.00766e-20)
(1.06495 -0.0865644 0)
(1.04402 0.050803 -5.79027e-21)
(0.988227 0.116166 -2.26278e-21)
(1.00001 -0.15097 0)
(1.22534 -0.159658 -1.09324e-19)
(0.554686 0.00622794 2.11443e-20)
(1.0455 -0.0424676 -2.42663e-21)
(1.07807 0.224323 0)
(-0.271604 -0.0253439 1.93531e-20)
(1.10832 -0.0250549 -6.94417e-21)
(0.429945 0.0200495 2.89521e-20)
(1.11742 -0.0278692 1.66215e-20)
(-0.00607327 0.0125548 2.74985e-20)
(1.09742 0.0171169 6.80205e-21)
(1.05922 0.0355844 0)
(1.2517 0.052662 2.77902e-20)
(1.21148 -0.22894 9.30591e-20)
(0.982808 -0.00791326 0)
(1.08817 -0.0280511 2.27313e-20)
(1.14512 -0.148029 -2.93413e-20)
(1.07306 0.0285747 -9.33907e-21)
(1.01135 -0.026772 0)
(1.12799 0.0310684 -3.05316e-20)
(0.668837 0.20139 4.53353e-20)
(0.992445 -0.026598 -1.4721e-20)
(1.09734 0.0460391 -2.10261e-20)
(-0.174498 -0.0322152 1.93641e-20)
(1.0676 -0.043254 -1.12572e-20)
(1.17992 -0.473366 -5.32318e-20)
(1.06894 0.0443377 2.84005e-20)
(0.210575 -0.0562594 -1.52248e-19)
(1.08076 -0.051711 0)
(1.05346 0.0553241 -1.21621e-20)
(0.872678 -0.633845 2.0285e-20)
(1.30085 0.0951249 0)
(1.15161 -0.00728033 -7.43849e-20)
(0.681834 -0.00876583 2.40204e-23)
(-0.28166 0.000880893 0)
(1.18597 -0.342731 0)
(0.996772 -0.025101 1.72744e-20)
(1.2333 -0.14808 0)
(1.11894 -0.0369613 -3.67547e-20)
(1.04578 0.0522149 5.63581e-21)
(1.02697 -0.0194 1.91677e-22)
(-0.20259 -0.0243414 0)
(0.562234 0.157036 -3.57825e-20)
(0.930457 -0.119498 -1.54688e-19)
(1.07482 -0.0439571 0)
(1.25355 0.0586028 1.4246e-20)
(1.03228 0.180327 1.18162e-20)
(-0.194653 -0.028232 -1.62036e-19)
(1.02465 -0.00342872 0)
(-0.246797 -0.0265916 0)
(1.22335 -0.222199 0)
(0.340235 -0.211886 8.91201e-20)
(1.03792 -0.143052 0)
(0.958536 0.0320707 0)
(0.985999 -0.0156864 -1.25293e-20)
(1.00089 -0.000265632 -2.87281e-21)
(0.218192 0.0113026 4.12385e-20)
(1.04134 0.1895 8.30542e-21)
(0.989648 -0.00564686 -3.65574e-21)
(1.07354 -0.0258977 0)
(1.09991 0.0469688 2.2092e-20)
(1.01206 -0.00975651 0)
(0.635165 0.167846 3.71523e-20)
(1.1843 0.0049916 1.38295e-20)
(1.16387 0.0845681 -1.3841e-20)
(1.07531 0.00340835 -1.24017e-20)
(1.04631 -0.0411764 0)
(0.971341 -0.00522414 3.4758e-20)
(1.07423 -0.16871 0)
(1.00841 -0.0337087 -1.32161e-20)
(0.972485 -0.00412687 -1.97324e-20)
(0.936048 0.081275 1.86372e-20)
(0.69815 0.202977 -4.69417e-20)
(1.02596 -0.0959915 0)
(0.996736 0.119897 0)
(0.995486 0.00128553 1.09114e-21)
(1.00086 -0.00485357 8.76528e-21)
(1.07009 -0.0443224 1.526e-20)
(1.23961 0.0808638 1.46138e-20)
(1.06436 0.0422506 1.26339e-20)
(1.01114 -0.0282869 9.26255e-21)
(1.05629 -0.0327369 -1.27032e-20)
(1.06336 -0.350632 1.71237e-20)
(1.06437 -0.0177937 1.10115e-20)
(0.240243 -0.0564508 5.43361e-20)
(1.00059 -0.00606655 -8.93288e-21)
(1.07138 0.0153892 0)
(0.849323 0.111846 -1.32752e-20)
(0.923825 -0.155399 -9.80458e-21)
(1.01927 -0.000777184 2.49724e-23)
(0.999779 -0.0046147 6.25727e-21)
(1.07524 0.00220544 1.89278e-20)
(1.04853 -0.0100279 -1.11519e-20)
(1.16645 -0.380432 2.37095e-20)
(0.938335 0.0746861 -6.20494e-21)
(1.11523 -0.00653886 4.14124e-21)
(0.311201 -1.05319 0)
(1.07201 -0.0426845 0)
(0.999136 -0.00851963 -7.33475e-21)
(0.228483 0.116597 0)
(0.991506 0.121566 1.56733e-22)
(0.867349 -0.113325 0)
(0.99338 -0.0310006 1.19338e-20)
(-0.0389013 0.0569697 -3.5036e-20)
(0.850362 -0.0829282 0)
(1.12431 -0.615723 0)
(0.98694 -0.0273427 -9.22978e-21)
(1.10543 -0.0691164 0)
(1.23088 -0.159075 1.13797e-19)
(1.08168 0.0303469 0)
(0.0352602 0.073938 9.73337e-22)
(1.02524 0.179031 -1.37279e-20)
(1.00483 -0.134688 1.22751e-19)
(0.970532 -0.0705601 1.09104e-20)
(1.2745 -0.0794336 0)
(0.998648 -0.0266555 -1.82209e-21)
(0.801411 0.0595069 3.64182e-21)
(1.07056 0.0440309 -2.63495e-20)
(1.11881 0.135386 1.85098e-20)
(1.11709 -0.0343624 3.71744e-20)
(1.01747 -0.0803232 -4.62166e-21)
(0.93046 -0.153664 3.98312e-20)
(1.17727 -0.00133496 4.58198e-20)
(1.00133 -0.00042301 0)
(-0.219745 -0.0251904 0)
(0.173082 0.102815 0)
(0.268051 -0.0587939 8.97164e-20)
(-0.151823 -0.0228697 -5.66189e-20)
(0.936979 0.0799224 1.07312e-20)
(-0.25937 -0.0350721 0)
(1.30848 0.0795228 0)
(0.905897 -0.073256 0)
(0.9995 -0.00096968 0)
(1.17064 -0.479265 -6.38785e-20)
(0.990507 -0.00412537 3.21371e-21)
(1.01106 -0.0260099 -3.5493e-21)
(0.898461 -0.0891578 5.14672e-20)
(-0.092322 -0.0457913 7.06937e-21)
(1.07046 -0.0164038 2.13003e-21)
(0.967312 -0.0389026 1.51418e-20)
(1.037 -0.285103 -1.1193e-20)
(1.15828 -0.0423868 -5.28549e-21)
(0.988923 0.000540655 1.02493e-21)
(0.454374 -0.0620539 -1.10007e-19)
(1.00671 -0.024671 -3.99701e-21)
(0.20353 0.107149 4.01307e-20)
(1.15919 -0.36738 -5.60905e-20)
(1.00371 -0.018913 8.13625e-21)
(1.06391 -0.00718678 -1.29019e-20)
(1.23739 -0.205017 0)
(1.13255 0.192586 -1.34537e-20)
(1.02188 -0.0139329 7.52888e-22)
(0.760831 -0.130733 -3.7151e-20)
(1.0338 -0.410258 7.76635e-20)
(1.03193 -0.00323989 -2.07949e-21)
(-0.0496709 -0.0471472 0)
(1.33982 0.0485085 1.09186e-19)
(1.18987 0.118865 0)
(0.969328 -0.0687129 5.05823e-21)
(0.936289 0.0879599 3.62375e-22)
(-0.376066 -0.00803828 -8.43027e-20)
(1.0326 -0.00344032 1.64159e-21)
(1.32166 -0.073214 0)
(1.0157 -0.0427176 4.09278e-21)
(1.00716 -0.0253576 3.94087e-21)
(0.954842 0.0444021 -2.56576e-21)
(0.000898235 0.00815678 -6.70239e-20)
(1.1352 -0.037142 -2.15312e-20)
(1.06356 0.0409403 -1.19825e-20)
(0.989987 -0.00283978 0)
(1.06689 0.0576517 -2.17841e-20)
(0.171286 0.098586 -3.40522e-20)
(-0.0839617 -0.0526183 -1.49773e-19)
(1.03577 -0.00665926 3.87067e-21)
(-0.283249 -0.02943 0)
(1.01076 -0.0275539 -6.22449e-21)
(1.01703 -0.0435292 0)
(1.15315 -0.00405102 5.36619e-20)
(1.06606 0.0179777 -1.42679e-20)
(1.02489 -0.00311486 4.15709e-22)
(1.01287 -0.0777326 -3.8987e-21)
(-0.0397972 -0.0497122 -1.23404e-19)
(1.20918 -0.224994 -7.3676e-20)
(-0.0667419 -0.047186 3.11789e-20)
(1.0682 -0.0170801 0)
(0.991652 -0.0114399 0)
(0.590268 0.180563 -3.77583e-21)
(0.999171 -0.00167229 0)
(1.24094 -0.138359 0)
(1.07754 0.0109567 -6.45318e-21)
(1.07731 0.0269388 -2.42204e-21)
(1.11562 -0.0149203 -7.35126e-21)
(0.915773 0.107219 0)
(-0.415237 -0.0148168 -7.71992e-20)
(1.08574 -0.0331706 1.53329e-20)
(-0.24083 -0.0269425 5.43142e-20)
(1.05852 0.000136806 0)
(1.18989 -0.0250777 0)
(0.858144 0.0791538 0)
(0.252866 0.0409814 1.47315e-20)
(1.00914 -0.0429637 -3.6138e-21)
(0.997915 -0.0264353 0)
(0.806344 -0.142833 -1.27964e-20)
(-0.0612372 -0.0484523 1.37705e-19)
(0.992708 0.0823182 -4.49709e-22)
(1.06587 0.0558053 1.5649e-20)
(1.03749 -0.552236 0)
(1.06553 0.0185992 1.54022e-20)
(1.09447 0.0172309 -1.5415e-20)
(0.0753543 -0.0626089 0)
(0.416132 -0.0643058 -8.72112e-20)
(1.04121 -0.338691 -1.23689e-20)
(0.183135 0.104908 3.14415e-20)
(1.06858 0.157767 2.20962e-20)
(0.911978 0.0406767 1.29407e-20)
(1.04106 -0.0410408 -1.50207e-21)
(0.978887 0.113524 -4.23462e-21)
(1.05436 0.034812 2.01293e-22)
(0.998943 -0.00683724 6.02323e-21)
(-0.452574 -0.0279229 0)
(0.291795 -0.043982 0)
(1.02196 -0.129223 0)
(1.11417 0.0407265 -5.40518e-21)
(0.999672 -0.0372404 0)
(0.467225 -0.781205 0)
(1.11891 -0.211936 -1.63172e-20)
(0.58435 -0.208146 -3.4713e-22)
(1.00763 -0.0342967 0)
(1.00053 -0.000353223 0)
(0.906403 -0.0411345 1.52798e-20)
(1.15564 -0.0459134 2.80556e-20)
(1.00067 -0.0058308 0)
(-0.126822 -0.0451943 3.21549e-20)
(1.00062 -0.000425681 0)
(1.07439 0.15705 -2.55621e-20)
(0.964197 -0.0666333 -1.90793e-20)
(1.0454 0.0541311 3.16043e-21)
(0.988355 -0.0279884 7.4507e-21)
(0.988192 0.000261782 9.18172e-21)
(1.07667 -0.175637 -1.46696e-20)
(-0.283891 -0.0318113 9.08723e-20)
(1.15352 -0.01558 3.7933e-20)
(-0.154512 -0.0461115 0)
(1.1053 -0.0729082 -3.8722e-21)
(1.01221 -0.0108667 0)
(1.03072 -0.0116638 -1.3049e-21)
(1.1798 -0.0108707 3.0561e-21)
(1.05505 -0.0338749 4.36252e-21)
(1.23452 -0.0620276 6.10244e-21)
(1.07529 -0.0184295 -1.22894e-21)
(0.868104 -0.105807 0)
(0.981396 0.106992 4.07153e-21)
(0.999073 -0.00132732 5.95176e-21)
(0.715648 -0.0174533 -1.19041e-20)
(1.00001 -0.000899305 7.70431e-21)
(1.03315 0.0560708 -1.56622e-20)
(-0.225545 -0.026435 -8.36439e-23)
(0.765635 0.150463 -1.28143e-20)
(0.879554 -0.0192803 -7.78575e-20)
(0.784155 -0.28853 0)
(1.02718 -0.283091 2.1326e-22)
(1.17085 -0.278206 6.04118e-20)
(0.269392 -0.0425561 0)
(1.03814 -0.00774069 -2.20748e-21)
(0.389273 -0.0637898 8.16522e-20)
(0.93155 -0.115712 4.83136e-20)
(1.11165 -0.0251063 -2.36185e-20)
(-0.140094 -0.0241621 1.00028e-19)
(1.1023 -0.0720376 -6.90836e-20)
(1.0283 -0.0095671 0)
(1.22933 -0.0642873 1.64172e-20)
(1.04504 -0.0104566 0)
(0.883438 0.0364319 -1.32237e-20)
(-0.400746 -0.0327838 0)
(1.02234 -0.045155 0)
(0.684063 -0.125499 0)
(0.586583 0.133371 0)
(0.99996 -0.000605925 0)
(0.999932 -0.000812148 4.73193e-21)
(1.0498 0.0563702 1.66101e-20)
(0.695662 -0.0199858 1.64276e-20)
(0.940682 0.0954647 1.08885e-20)
(0.972195 -0.0148428 0)
(1.25737 0.0386493 -6.7912e-21)
(1.06252 -0.0178627 0)
(0.987034 -0.000932881 0)
(0.979074 0.0978405 0)
(1.25932 0.0454377 -2.66251e-20)
(1.18582 -0.224526 2.58976e-20)
(1.02332 -0.00287081 -5.12281e-22)
(1.04613 0.0968504 0)
(0.888434 -0.197663 2.45605e-20)
(1.05473 0.0514704 0)
(0.955542 -0.0168582 -3.78804e-20)
(1.00288 -0.0702005 8.44835e-21)
(1.11189 -0.210114 0)
(0.910443 -0.042723 0)
(1.03661 0.0948341 1.10683e-20)
(1.13646 0.0286258 -3.03568e-20)
(1.14198 0.0232209 2.87023e-20)
(1.0325 -0.325852 0)
(1.0985 -0.610375 -2.26617e-20)
(1.34568 0.0305075 0)
(0.894164 0.25412 1.87854e-21)
(0.84996 -0.139563 1.0271e-19)
(1.02417 0.0903604 -7.70331e-21)
(0.0348715 0.0424713 0)
(1.00482 -0.180408 4.02276e-21)
(0.950856 0.0457033 -8.44915e-22)
(1.1864 0.125956 0)
(1.03166 -0.0223074 4.59382e-22)
(1.0934 0.0152892 0)
(1.32565 0.0287357 -2.48283e-20)
(1.05245 -0.094511 0)
(1.00342 -0.0174075 4.24233e-22)
(1.00396 -0.0165122 1.51295e-22)
(1.03432 0.0604088 6.44914e-21)
(0.55573 -0.0011163 -2.16649e-20)
(1.0729 0.0157553 0)
(-0.0950793 0.0116466 6.55258e-22)
(1.01198 -0.0112648 2.21009e-21)
(0.937268 0.0999862 4.82455e-21)
(0.96095 -0.358223 1.35381e-22)
(-0.457782 -0.0258295 0)
(1.22681 -0.0729789 9.77277e-20)
(1.0833 -0.0510381 9.76674e-22)
(1.07245 -0.0211228 0)
(-0.433337 -0.0261209 0)
(1.18961 -0.220771 -9.34194e-20)
(1.0062 -0.173693 -6.16264e-21)
(1.0337 0.188484 -9.40593e-21)
(1.04499 -0.0389619 -3.91908e-21)
(1.18214 -0.439741 2.94989e-20)
(1.03255 0.0589726 -3.38584e-21)
(1.08135 0.161363 0)
(1.11439 -0.0496275 0)
(1.24494 -0.222811 0)
(0.986686 -0.016134 0)
(1.00001 -0.0010326 0)
(0.939054 -0.0173414 -1.18938e-20)
(0.986294 -0.00180081 -1.04421e-20)
(0.834657 0.0863571 0)
(1.00317 -0.000689407 0)
(0.981822 0.094461 -1.18954e-21)
(0.532816 0.169846 1.73157e-21)
(1.22969 -0.0767282 -1.23919e-19)
(-0.0745637 -0.0521148 0)
(-0.437892 -0.0219276 1.06467e-19)
(1.08458 0.165824 0)
(1.17866 -0.277152 -6.79424e-20)
(0.882011 -0.0269547 0)
(0.998574 0.00247986 3.78425e-22)
(0.981452 -0.0144185 -9.69529e-22)
(1.02053 -0.00712666 0)
(1.03003 -0.0117738 1.69214e-21)
(1.00073 -0.000402514 0)
(1.18956 -0.0139684 7.10427e-21)
(1.27668 -0.0525567 -6.61686e-20)
(0.884355 -0.208517 1.52456e-20)
(1.10511 0.147613 1.4243e-21)
(1.01972 -0.0673097 7.78689e-21)
(0.406388 0.120878 -9.02107e-22)
(0.999998 4.3527e-06 1.67798e-20)
(-0.120836 -0.0359051 0)
(1.11929 -0.10927 -6.69935e-21)
(0.99998 4.81518e-05 -1.90919e-20)
(0.996904 0.00239756 0)
(0.731391 0.156751 0)
(1.08597 -0.0431281 -7.15325e-21)
(0.966682 0.184608 -3.26642e-21)
(0.307558 -0.0413127 6.56567e-21)
(1.10875 0.0385656 -1.41487e-20)
(1.15223 0.0571678 5.57414e-20)
(1.03149 -0.00240016 -2.91237e-21)
(0.313123 0.129654 0)
(0.978633 -0.0821765 0)
(1.07173 -0.0177621 1.1227e-21)
(0.978484 0.103772 -6.12299e-21)
(0.99857 0.00196148 6.00303e-21)
(0.970429 -0.042164 -5.9965e-21)
(1.03561 -0.0125972 2.07192e-21)
(1.07425 0.0449647 1.31111e-20)
(0.476793 0.00640765 -1.32555e-20)
(1.09544 -0.0674997 -2.05502e-20)
(1.11623 -0.0429422 -1.6102e-20)
(1.22318 -0.228759 0)
(-0.115899 -0.0507811 1.23109e-19)
(0.881628 -0.0491427 3.60174e-20)
(0.978291 -0.105817 1.35341e-20)
(0.893186 0.0613484 -1.09522e-20)
(1.02012 -0.00690198 0)
(0.888382 0.0559667 1.03257e-20)
(1.00027 -0.000857177 6.86622e-21)
(1.06485 -0.0159997 1.52408e-20)
(0.957375 -0.0890129 0)
(1.08225 0.0884386 1.61707e-21)
(1.09846 0.133267 4.87561e-21)
(1.19401 -0.142717 -4.54498e-20)
(1.15523 -0.0118095 -1.71946e-20)
(0.999475 0.000773807 5.84594e-21)
(0.999997 -1.77993e-05 -4.46608e-21)
(1.1963 -0.0250876 0)
(1.04271 -0.0409056 1.52943e-21)
(0.99962 0.000723249 0)
(1.06984 0.0189874 1.62913e-21)
(1.2016 -0.25412 -6.77347e-20)
(1.00377 -0.00530743 -7.78206e-21)
(1.1583 -0.287087 0)
(1.19891 -0.463702 8.17938e-20)
(0.952886 0.152421 0)
(1.19483 -0.13716 4.87202e-20)
(-0.011991 -0.0377543 6.14975e-20)
(0.831957 -0.0792344 0)
(0.99842 0.00226055 0)
(1.2174 -0.169164 2.6161e-20)
(1.01132 -0.0116586 -1.46342e-21)
(1.08885 -0.0256001 1.72657e-20)
(0.930711 0.259592 -2.61434e-22)
(0.915359 0.0190414 -6.80807e-21)
(0.381683 -0.0623046 1.28345e-19)
(0.915665 0.0674357 0)
(1.02624 -0.0455815 2.11545e-21)
(1.02233 -0.0442734 3.8009e-21)
(0.950063 -0.271686 0)
(0.999459 -0.067276 -2.54305e-21)
(1.02167 -0.0210777 2.00265e-21)
(0.603374 -0.31675 -6.78361e-20)
(1.1188 0.176446 -3.66831e-20)
(0.377205 0.0276297 0)
(1.03157 0.0548577 1.23939e-20)
(1.0843 0.0909274 -3.6856e-21)
(0.984778 -0.00389731 -1.07667e-20)
(1.02018 -0.0142047 0)
(1.21467 -0.353774 -3.49098e-20)
(1.16924 0.0813404 0)
(1.06706 -0.0156557 -1.72169e-21)
(0.999806 0.000940996 2.20542e-21)
(1.08835 0.131582 0)
(1.27117 -0.105849 -7.9821e-20)
(-0.0762487 0.00883055 -9.20097e-20)
(0.970904 -0.0196677 5.40775e-21)
(1.00057 -0.00241732 -2.12007e-22)
(0.450978 -0.00114724 7.40208e-21)
(0.956844 -0.0154902 -1.4963e-20)
(1.11668 -0.0214622 4.01137e-21)
(1.01166 -0.00921213 4.74546e-21)
(-0.0795328 -0.0441733 0)
(1.00905 -0.000530665 4.96207e-21)
(-0.218415 -0.0300485 0)
(0.994287 -0.00261738 2.69434e-21)
(1.1657 -0.233324 -1.48126e-21)
(1.12259 0.00908525 2.0537e-20)
(0.927745 -0.272876 -9.67177e-21)
(1.11711 -0.0475415 -1.82768e-20)
(0.991038 -0.0255087 -5.89982e-21)
(1.07335 -0.029131 5.82386e-21)
(1.00255 -0.00352138 -8.56219e-21)
(0.982198 0.0855469 3.69441e-21)
(0.959209 -0.0249316 1.60116e-20)
(0.716464 -0.000394054 1.12124e-20)
(1.04731 -0.0379915 4.53416e-21)
(1.0699 0.28225 0)
(0.321444 0.136598 -1.35597e-20)
(1.10856 -0.0549909 0)
(1.00312 -0.00262347 -3.62418e-21)
(-0.152313 -0.0362071 0)
(0.936655 0.0911167 -3.1408e-21)
(1.08853 -0.0330316 -2.02106e-20)
(1.078 0.0861984 -7.92113e-21)
(0.981564 -0.0133725 1.89795e-21)
(0.64324 -0.00929277 1.10394e-21)
(1.03254 -0.0229736 0)
(1.32473 0.0199039 2.88549e-20)
(0.998228 -0.00761334 -7.8308e-21)
(1.00279 -0.00374047 7.33195e-21)
(0.964057 0.178487 0)
(1.11662 -0.0122724 0)
(0.999776 -0.00509986 -6.43269e-21)
(1.06701 0.0265633 2.24809e-20)
(0.00456713 0.0506342 0)
(0.697562 -0.737833 9.0465e-21)
(0.531506 0.121803 0)
(1.01697 -0.0177021 1.39564e-21)
(0.0704196 0.0527967 0)
(0.996681 -0.0059966 1.39079e-20)
(1.00358 -0.00494613 6.05823e-21)
(0.971972 -0.0227126 -1.08732e-20)
(1.02001 -0.000188733 3.20254e-22)
(0.999801 -0.000967616 1.36708e-21)
(0.432524 0.0682904 -1.20413e-19)
(0.878318 0.26091 0)
(1.04577 -0.0217228 -1.93413e-22)
(1.00064 -0.000585743 -5.75651e-21)
(1.13735 -0.0331868 2.24157e-20)
(1.01471 -0.0250055 1.95342e-21)
(-0.124138 -0.0394716 1.37804e-19)
(1.22366 -0.168137 0)
(0.00818623 0.0296488 3.74175e-21)
(-0.0612934 -0.052716 0)
(1.07288 -0.0305115 6.12729e-21)
(1.03932 0.0972632 4.25056e-22)
(0.998909 -0.00745808 7.84134e-22)
(1.12575 0.0150547 -2.04754e-20)
(0.957689 -0.34195 2.51654e-21)
(1.03745 -0.00712364 6.64095e-21)
(1.00023 -0.000841319 -7.04822e-21)
(1.22715 -0.339869 0)
(-0.392134 -0.0336771 1.01279e-19)
(1.14758 0.0570237 -5.41316e-20)
(-0.30006 -0.0288573 -1.05376e-19)
(1.10882 0.0674598 0)
(0.995507 0.000395093 0)
(1.14024 -0.0503358 -6.71958e-21)
(1.0747 0.0869665 -1.5536e-21)
(-0.323958 -0.0302964 0)
(1.10579 0.00100948 0)
(0.971611 0.15417 -2.32229e-21)
(1.17505 0.0821488 0)
(1.00008 -0.00146247 0)
(0.372082 -0.134292 7.97251e-21)
(0.273917 -0.0985787 0)
(0.524197 0.0196403 -2.52854e-20)
(0.998186 -0.0671604 -8.20323e-20)
(0.958845 0.0384514 5.49454e-21)
(0.973539 -0.0717613 4.85749e-21)
(0.708988 -0.325067 0)
(0.972075 -0.00236089 3.33654e-20)
(1.18665 0.257944 -5.21311e-20)
(1.05178 -0.0908886 0)
(1.00715 -0.00162377 3.94497e-21)
(0.463172 0.0978943 1.80387e-20)
(1.01592 -0.0661545 0)
(1.00305 -0.00239992 3.06055e-21)
(1.01047 -0.0430614 2.69561e-21)
(1.01461 -0.0642915 -4.71836e-21)
(-0.113359 -0.0438945 -7.97784e-21)
(1.31922 0.0463089 1.3826e-19)
(1.01093 -0.0160861 -5.72697e-22)
(1.14343 -0.0470068 0)
(-0.0748119 0.0190086 -3.49168e-21)
(1.03507 -0.061703 -3.43237e-22)
(-0.308563 -0.0270515 -7.6898e-20)
(0.954156 -0.0417364 2.21499e-20)
(1.10022 0.0876592 -1.87354e-20)
(-0.042162 -0.00590763 0)
(1.00054 -0.00522192 0)
(0.988671 0.0821369 0)
(1.06014 -0.107915 -8.9035e-21)
(1.1122 -0.0566095 1.63731e-20)
(0.657232 -0.761215 4.53536e-20)
(1.01845 -0.0656422 -5.83031e-21)
(1.26856 -0.167876 -5.28054e-20)
(1.05299 0.0530937 1.13076e-20)
(0.0713253 0.0589939 0)
(1.0463 -0.00471025 1.03336e-20)
(0.652461 0.00341771 1.68375e-20)
(1.10671 -0.0282721 -6.45876e-21)
(-0.139814 0.0296126 -7.01506e-20)
(-0.371647 -0.0305732 0)
(0.63436 -0.00498175 -1.83226e-20)
(1.10338 0.0414871 0)
(0.988157 -0.0235091 -1.9459e-20)
(1.02545 -0.046795 -9.15101e-22)
(0.999946 -0.000546077 0)
(1.05963 0.0342812 -9.00185e-21)
(0.996718 0.000513894 4.10746e-21)
(0.0524751 0.0758649 3.96109e-20)
(1.01936 -0.120532 2.70485e-21)
(0.918287 -0.0827407 0)
(0.884991 -0.0459709 -3.90568e-20)
(0.975806 -0.0704042 -1.80533e-20)
(1.01657 -0.0170968 2.56605e-21)
(1.05999 0.0171528 0)
(1.05891 -0.0927375 -9.64507e-22)
(1.06393 -0.00850938 0)
(1.03633 -0.102515 3.59773e-23)
(0.209406 -0.0356122 -3.03422e-20)
(0.98357 0.0771682 -2.20282e-21)
(1.10282 -0.0171123 1.2453e-20)
(1.09845 -0.169358 0)
(0.489879 0.0958352 -4.26097e-20)
(0.96778 -0.0415073 2.06267e-20)
(-0.0817867 -0.041022 3.03819e-20)
(1.01948 -0.00688845 5.316e-22)
(1.01729 -0.144773 0)
(0.957525 -0.0234345 0)
(1.02211 -0.0305256 0)
(1.06049 -0.176299 0)
(0.998906 -0.00887924 7.2493e-21)
(1.01125 -0.0157795 4.99484e-22)
(0.780452 -0.0900828 -4.80962e-20)