/*--------------------------------*- C++ -*----------------------------------*\
| =========                 |                                                 |
| \\      /  F ield         | OpenFOAM: The Open Source CFD Toolbox           |
|  \\    /   O peration     | Version:  v2012                                 |
|   \\  /    A nd           | Website:  www.openfoam.com                      |
|    \\/     M anipulation  |                                                 |
\*---------------------------------------------------------------------------*/
FoamFile
{
    version     2.0;
    format      ascii;
    class       surfaceScalarField;
    location    "450";
    object      meshPhi;
}
// * * * * * * * * * * * * * * * * * * * * * * * * * * * * * * * * * * * * * //

dimensions      [0 3 -1 0 0 0 0];
oriented        oriented;


internalField   nonuniform List<scalar> 
20537
(
-1.28099e-11
-4.17664e-13
1.29629e-11
2.05102e-13
-4.37414e-13
-1.03115e-15
-3.37794e-16
0
3.27508e-15
-2.28556e-11
3.45521e-12
6.47248e-12
9.74988e-16
1.24269e-15
-4.0898e-30
-5.90252e-15
1.61441e-13
-1.83149e-13
-7.80071e-12
2.16486e-12
-2.74186e-14
2.38048e-14
-5.51535e-14
-8.96631e-15
5.60195e-13
1.52353e-11
2.2358e-12
3.13331e-15
4.07412e-15
1.27027e-15
3.91156e-13
-4.82945e-12
6.99405e-13
5.55243e-15
-2.23189e-16
-1.97534e-14
0
0
0
-2.45118e-15
2.0185e-15
-1.83762e-16
3.58441e-11
9.99321e-11
-1.15987e-10
-2.28732e-13
-1.52639e-13
2.45521e-13
8.37458e-13
-1.28125e-13
-7.55731e-13
-1.14394e-13
-8.64997e-13
8.23114e-13
-2.80764e-15
-4.41173e-15
0
1.23727e-11
3.1876e-12
-7.70909e-12
-4.95938e-12
0
-4.99423e-16
1.69276e-12
9.77535e-13
-2.7436e-12
-1.23156e-11
8.10345e-12
2.49106e-12
1.05185e-12
-1.4843e-12
-1.84033e-14
-3.40132e-14
3.32754e-13
-3.57924e-13
-1.11325e-13
2.83264e-07
0
-5.61142e-12
2.74982e-12
-2.54509e-12
5.16012e-14
1.74661e-12
2.56461e-13
-3.44459e-13
2.02803e-13
4.9087e-13
2.17663e-15
1.7332e-15
-9.02807e-13
-5.58626e-13
1.65598e-12
5.53943e-12
2.54164e-12
0
0
0
0
-2.36523e-16
-9.73277e-16
-3.58094e-16
0
-9.58872e-16
-5.65441e-15
5.69569e-15
-1.86939e-12
1.21766e-12
-2.69313e-11
-1.32585e-12
8.2856e-12
1.80834e-13
2.4519e-13
1.30318e-12
1.22983e-16
0
-1.22834e-16
3.28517e-12
-6.31771e-13
-4.0205e-12
-2.16675e-12
2.40657e-12
-1.95745e-16
-1.1752e-15
0
5.1165e-14
-1.78901e-12
1.63058e-12
-1.93733e-13
-6.4761e-13
-1.63498e-12
2.89379e-13
6.8743e-14
9.7162e-12
-9.96288e-12
-1.20848e-12
1.45521e-15
5.79431e-15
-6.31988e-16
0
0
0
-9.05351e-18
-2.57116e-31
2.1299e-18
-2.21443e-11
9.03566e-11
-7.73145e-11
3.09075e-11
1.06985e-10
-1.24239e-10
3.21703e-13
9.26885e-13
5.97741e-13
4.31363e-14
7.91695e-12
0
0
0
-7.88528e-13
-5.28289e-13
-1.49413e-12
7.60554e-13
-1.32121e-12
1.37223e-15
-3.80638e-15
0
-4.67588e-17
4.70288e-16
2.5273e-13
3.19745e-13
-5.24852e-13
0
0
0
1.54984e-14
1.10668e-15
-1.08992e-13
-1.12206e-12
3.73131e-12
-1.84359e-12
0
0
-4.99408e-13
8.13796e-13
1.77073e-14
1.76832e-14
-3.10945e-14
-1.71826e-12
1.3137e-12
0
0
0
0
0
0
-1.42349e-13
1.49901e-13
-1.39149e-10
1.08748e-10
2.17547e-11
-8.08597e-12
2.76512e-13
5.03923e-12
6.7768e-12
-8.51038e-12
-3.34543e-15
-1.40839e-15
0
0
0
-1.28018e-14
7.44864e-15
4.58842e-15
0
0
5.81284e-12
-8.26869e-13
9.39371e-13
-1.08956e-12
4.17961e-12
1.0507e-12
-3.90864e-11
5.88337e-11
-1.00101e-11
0
2.89292e-16
1.06481e-15
-3.88158e-13
6.24737e-13
-1.4969e-15
-4.3907e-15
-9.68917e-14
7.89838e-13
-5.50279e-13
-6.36233e-14
7.89617e-14
-8.43187e-15
-1.81879e-13
-3.47881e-14
4.44651e-13
1.40046e-12
4.17009e-12
-2.61479e-12
0
0
1.09005e-12
-1.86628e-12
1.50033e-12
3.10467e-12
-1.56271e-13
6.69138e-14
1.74224e-14
-1.70928e-13
6.77055e-14
8.92552e-12
1.59557e-12
-1.41835e-12
7.23328e-16
-3.92844e-15
0
0
0
4.16703e-12
1.52124e-12
1.6872e-11
-9.57619e-13
0
0
0
1.02213e-15
1.93114e-15
1.66584e-15
-1.03417e-11
3.61628e-12
2.3853e-12
-1.20084e-12
6.17722e-13
2.92608e-13
-3.1359e-13
4.35628e-14
-3.63315e-13
-1.05168e-12
3.88374e-13
-6.67959e-16
1.64073e-29
1.37418e-15
3.49818e-13
1.99943e-13
9.41994e-13
-1.10514e-15
0
5.15942e-13
-5.16377e-13
-1.89148e-11
1.5517e-11
-8.17651e-12
7.44976e-12
-1.95557e-12
-1.82222e-12
1.56788e-12
4.70852e-12
4.37039e-12
-3.31325e-11
9.16533e-12
5.62664e-14
8.30595e-13
0
0
-8.53734e-13
-6.12201e-13
5.86083e-14
-2.71579e-11
-1.403e-11
1.78896e-11
-1.14382e-10
2.75936e-11
7.79268e-11
0
8.36112e-19
3.47282e-13
-1.68644e-12
0
0
1.04179e-12
-9.128e-14
-3.86639e-13
2.65048e-14
3.13694e-12
5.19302e-13
3.07791e-14
-2.64611e-13
-2.74909e-14
2.39192e-16
1.08838e-14
-1.36696e-11
1.29392e-11
2.0449e-30
0
6.49147e-16
-4.71367e-12
-1.87162e-11
-2.3872e-12
8.8534e-12
-7.43729e-12
0
0
8.10225e-12
-1.74115e-11
5.14976e-13
-9.94572e-12
-8.23119e-12
2.05069e-11
-2.11786e-13
4.56564e-13
0
0
0
2.35021e-16
-1.58059e-15
2.97294e-17
-3.07793e-16
-5.08922e-16
-4.08499e-17
0
0
-9.35658e-11
1.41555e-10
-2.8099e-13
-7.22302e-13
1.91437e-12
2.11587e-14
1.90362e-12
-5.328e-13
-4.48197e-13
1.46955e-12
4.53003e-13
-7.84156e-13
7.0917e-13
1.88917e-12
-4.31064e-13
9.30801e-12
-1.05452e-16
4.17605e-16
-4.28627e-12
-1.77538e-12
-5.04413e-12
2.34699e-12
-2.61073e-15
0
7.86746e-11
4.99063e-12
-7.10688e-11
-1.58511e-15
-5.44694e-17
1.54305e-11
-4.28905e-12
-6.4298e-15
-2.068e-13
2.42255e-13
3.30774e-13
2.14722e-12
4.18048e-12
-2.98453e-11
1.95343e-11
1.19293e-12
-1.15656e-12
1.58398e-13
0
0
0
1.90672e-15
-1.53577e-12
3.92364e-12
-3.22388e-14
-1.8039e-13
8.46583e-14
6.94855e-15
0
0
-4.43623e-12
1.73284e-12
5.46354e-13
1.88144e-13
-8.39259e-13
2.45553e-13
-2.48996e-13
6.16673e-13
-1.21553e-12
7.33069e-12
4.80192e-14
-1.71376e-14
-8.98435e-13
-5.55258e-12
0
0
0
-1.15569e-16
5.17954e-16
1.15048e-11
-3.59341e-12
-3.07393e-12
1.91199e-11
-2.10828e-11
1.7187e-16
-2.28087e-15
2.60157e-13
-2.50833e-12
-1.58257e-12
-5.69253e-13
5.0245e-15
-3.2466e-14
-1.79353e-11
-9.08161e-12
6.46534e-12
6.61794e-17
0
1.19266e-12
3.48024e-13
-8.53869e-14
1.33693e-13
-4.09717e-13
1.69608e-13
0
7.49311e-12
-8.97001e-12
-2.96757e-12
6.90086e-16
0
-7.82937e-13
9.13295e-13
1.98257e-14
3.56614e-13
1.98925e-13
-5.90055e-12
-4.96328e-12
4.35979e-12
-7.45818e-11
-1.46684e-11
1.37513e-15
3.60187e-15
0
2.52362e-14
2.27728e-14
-1.36819e-14
6.64618e-13
-1.59787e-16
-2.07281e-17
4.5e-12
-1.73361e-13
-6.14038e-12
1.26378e-14
6.22358e-15
-2.56354e-14
0
0
2.40458e-14
1.0827e-12
7.81852e-13
-1.41002e-12
2.9223e-13
9.81264e-13
-4.8866e-13
-1.09396e-12
3.00903e-12
-3.23899e-11
-9.70771e-12
1.68434e-11
3.67272e-12
-2.43977e-14
0
0
0
5.76843e-12
-7.83251e-12
-1.82541e-12
9.81757e-12
-2.21621e-11
7.52448e-12
2.06724e-14
-1.73921e-14
-6.8979e-15
5.28583e-12
1.63677e-11
8.13501e-16
-1.12086e-15
2.87966e-15
6.59163e-13
-7.78641e-13
-1.21048e-14
-4.8543e-16
0
6.83409e-17
1.03157e-12
6.4119e-13
-1.8117e-13
0
-5.73022e-17
6.22727e-16
-6.13371e-12
-1.21881e-12
3.32978e-13
-8.28423e-13
1.36941e-13
-1.07298e-12
-2.91837e-13
2.31006e-12
-1.07027e-12
-5.52129e-13
4.17286e-12
-2.63919e-12
3.86181e-12
7.6354e-13
1.16459e-12
-1.54157e-13
-5.29458e-13
-1.33561e-16
0
5.24507e-12
7.21994e-12
3.06709e-12
0
1.43212e-16
2.18676e-13
9.39066e-14
6.33254e-12
5.73552e-13
0
-4.70606e-16
-1.54642e-15
4.04168e-30
1.32984e-15
0
0
0
0
-1.04396e-11
-2.93893e-12
1.49782e-11
-1.55391e-13
1.23359e-13
8.06421e-15
-8.90093e-14
3.31996e-13
-5.4057e-18
1.17266e-16
1.02279e-15
1.584e-13
-9.52225e-13
-1.66973e-14
-5.47449e-14
-8.17581e-14
-1.13628e-13
7.15314e-14
8.68139e-12
-3.9063e-13
-5.62645e-13
-2.73053e-15
2.94302e-15
-4.19692e-15
9.77379e-15
-7.61403e-14
-3.65539e-14
-2.3768e-15
2.47901e-16
-9.46816e-14
6.68065e-15
1.41291e-12
1.44858e-13
-9.39876e-12
1.16006e-11
5.13858e-13
-6.50013e-13
2.09063e-12
-1.2761e-13
-3.26769e-12
-5.28762e-12
7.12249e-12
-3.31887e-13
2.65975e-15
9.82545e-15
-4.37564e-14
-2.34679e-14
0
0
0
3.41829e-15
4.33642e-15
-3.65017e-13
-7.0971e-13
8.18646e-13
1.71881e-13
2.57707e-13
2.3703e-12
5.79724e-13
-3.22377e-13
-1.51109e-13
1.23226e-12
8.4565e-12
2.47104e-12
3.05688e-13
8.81518e-13
-2.4273e-12
1.55001e-12
-1.11602e-13
3.12618e-12
-1.87409e-16
2.24971e-15
1.23175e-29
-1.76706e-13
1.25734e-12
-6.49249e-13
-1.13069e-14
2.55217e-15
0
0
0
-1.71564e-07
-2.89652e-07
9.73534e-11
-4.3871e-11
-2.0914e-11
3.61656e-12
4.06484e-13
1.20046e-12
-1.49706e-12
4.46372e-14
9.13108e-14
1.41185e-13
-7.36365e-13
-1.39804e-12
6.79653e-13
0
0
0
6.89329e-13
9.49051e-13
-6.87039e-15
-2.76002e-12
-9.28903e-15
-2.07828e-13
0
0
3.59718e-13
-6.61637e-13
2.75085e-13
1.11107e-11
1.89147e-12
1.12786e-12
7.07805e-13
7.66399e-14
1.00656e-12
-6.57546e-15
-8.00529e-15
1.28838e-13
-4.00988e-13
-3.19937e-12
-6.63965e-12
2.84728e-13
5.47824e-12
-3.49734e-13
3.05569e-13
5.38491e-13
0
0
0
5.06125e-12
-4.40965e-12
2.78518e-13
6.27089e-13
1.34969e-12
5.22742e-14
-2.21955e-13
3.05317e-13
3.52699e-14
-4.47523e-13
-2.10938e-15
3.25042e-15
3.15554e-13
4.87172e-14
-2.77276e-13
-1.42487e-12
1.51958e-12
1.57897e-12
-1.09815e-11
1.79299e-12
6.0081e-12
3.11812e-12
1.24679e-11
1.64932e-12
2.20838e-13
3.00833e-12
-4.79436e-12
6.58772e-12
-6.94527e-16
2.53589e-15
-1.25177e-12
4.16464e-14
-5.16434e-12
-1.69323e-14
-7.98476e-15
-1.57138e-15
3.56757e-14
-3.07832e-12
7.15104e-12
-1.12908e-15
2.86901e-15
3.99753e-13
-8.08852e-13
-5.90981e-14
-3.20714e-15
-1.86829e-14
-4.6551e-12
-5.7726e-13
1.78713e-11
0
0
-3.18786e-13
-2.11289e-14
-5.36031e-13
2.03595e-13
0
0
0
-7.21705e-12
3.44084e-12
5.02823e-13
-1.78079e-13
-8.63265e-13
0
0
0
4.92637e-12
-6.88748e-12
-3.871e-14
1.43203e-14
6.30836e-15
-5.22962e-14
0
-1.33168e-12
-2.03645e-13
0
8.30411e-17
2.68895e-13
6.14201e-14
-4.22607e-12
-1.73854e-12
3.2312e-12
0
0
0
-8.70827e-13
1.96996e-12
2.08788e-13
6.6283e-13
3.9772e-15
-2.85551e-13
9.88074e-13
-1.21632e-12
0
0
0
0
0
3.66338e-12
7.61825e-12
-5.66535e-15
2.97718e-15
-4.93976e-15
6.58768e-11
-7.54797e-12
-2.91509e-11
0
0
-1.45807e-11
8.74548e-12
1.47982e-12
3.22282e-13
-3.22231e-13
-3.74532e-13
-7.04603e-15
8.48834e-12
5.49944e-12
0
0
-4.54668e-15
-8.02691e-14
-1.47887e-13
-5.79696e-13
-3.24678e-13
3.78342e-11
4.56052e-13
-6.28615e-12
1.73936e-12
-6.52357e-12
2.68376e-12
7.9401e-13
1.56866e-15
0
0
0
-1.5531e-15
-9.11891e-13
3.44973e-13
4.39601e-13
1.10444e-15
-2.96919e-16
0
0
0
-8.72279e-11
1.83774e-14
-1.03198e-14
4.78409e-15
0
-1.25835e-13
2.41801e-12
1.12144e-12
5.49552e-13
-2.21149e-13
4.60056e-14
0
0
0
0
1.32931e-11
-1.27156e-12
-9.93223e-12
7.10306e-13
-4.89359e-13
1.29163e-13
0
0
0
1.62998e-10
-4.40738e-11
-2.31682e-12
2.23031e-12
1.80238e-12
1.41995e-12
2.55093e-12
8.22772e-30
7.20391e-16
-1.34344e-15
-1.0629e-12
-1.45668e-13
-3.44111e-14
2.10929e-13
4.43845e-17
5.97514e-18
3.24108e-12
1.48572e-11
6.17278e-13
-2.48337e-13
6.19488e-12
7.84468e-12
1.5383e-11
5.38381e-11
-9.19557e-14
4.50096e-14
-4.9101e-13
3.71063e-13
2.22987e-11
-5.99381e-12
-8.27203e-12
0
0
-2.89413e-14
1.07979e-12
2.78859e-13
-4.17118e-12
-1.15385e-12
7.3783e-12
-3.75712e-15
-1.26202e-14
-3.22557e-13
-1.04921e-12
4.39529e-13
5.14627e-17
-4.68547e-15
4.88854e-15
1.00706e-13
-2.56972e-14
-9.31353e-13
1.27965e-13
0
0
-4.10275e-12
7.82371e-13
2.77453e-13
4.99882e-13
4.13659e-14
-4.92775e-14
-4.47897e-14
-1.55851e-12
1.5846e-13
-9.96647e-12
3.48746e-12
3.4958e-12
4.36206e-13
6.71477e-14
6.35682e-12
-6.24765e-12
-9.20382e-15
0
0
0
1.05684e-11
-5.24564e-16
2.34739e-15
2.32537e-12
0
0
0
0
-6.6351e-13
1.14966e-12
-9.66281e-15
-7.62859e-13
8.93842e-13
1.92803e-12
-2.01156e-12
2.03937e-12
6.01697e-12
1.31364e-11
2.22645e-11
-6.96123e-11
-5.94925e-11
1.07927e-10
-1.36147e-13
-4.08579e-13
-7.40308e-15
5.53097e-15
-1.98137e-15
1.02846e-30
-6.91982e-15
-1.58501e-14
5.69754e-14
0
0
0
0
0
-1.76794e-12
1.06568e-12
5.95981e-11
8.58883e-12
-4.23262e-16
0
0
0
1.38701e-14
-7.47627e-14
0
0
2.1043e-12
9.73776e-14
-4.50488e-15
2.57999e-14
-1.06267e-11
-4.86284e-13
5.07203e-12
0
0
-3.76667e-12
-5.47399e-13
1.12721e-12
-2.47426e-13
6.62154e-14
-1.20293e-12
3.22928e-12
2.41569e-12
9.55318e-12
-1.08897e-11
3.71297e-13
-1.10961e-12
-6.95647e-12
2.26664e-12
-1.83345e-12
0
0
-1.6157e-14
1.26971e-13
5.23452e-15
0
0
0
-2.82535e-13
-1.73763e-12
3.63765e-13
1.3767e-15
-1.71075e-12
1.74653e-12
-1.25914e-12
2.25053e-12
-2.83871e-12
2.69819e-13
-9.45689e-13
4.88035e-13
-7.05522e-16
-1.47458e-15
-2.42352e-13
-5.74886e-13
-1.30582e-12
4.11439e-12
9.82934e-13
3.63721e-13
-4.80693e-12
-8.29578e-12
-4.14659e-12
-2.71878e-13
-5.5036e-15
1.73223e-15
-6.75138e-16
3.00284e-13
-5.54035e-14
-2.40472e-13
0
-7.2909e-16
2.88573e-15
-3.18775e-12
1.88781e-13
0
7.10934e-13
-8.18282e-13
-2.13283e-13
9.34177e-11
0
7.86313e-16
-4.97517e-12
-9.42181e-12
-1.07962e-14
6.46354e-13
4.16753e-14
6.83118e-13
1.8996e-14
-2.52294e-15
4.66166e-15
4.04652e-16
-8.69787e-13
-8.42127e-14
-1.40991e-13
-9.94321e-17
3.2532e-15
2.62185e-15
0
0
0
-2.27558e-12
5.82249e-12
-1.45501e-12
3.23581e-12
4.77866e-13
-2.01456e-13
-5.0577e-13
0
0
-5.98105e-13
-1.818e-13
-1.16278e-14
-5.98071e-15
4.29234e-14
1.25323e-14
8.5656e-14
5.95606e-13
1.42093e-11
5.07688e-12
-7.77335e-12
8.14396e-13
-1.46002e-12
6.90869e-13
-3.86876e-15
0
0
-3.59952e-13
1.7834e-13
2.04623e-13
-6.92874e-15
-6.60903e-15
4.28933e-15
5.20934e-12
-3.56753e-12
8.80066e-14
7.75845e-12
6.51719e-17
3.79393e-17
0
3.35559e-13
-4.83157e-14
-1.88644e-13
-1.10914e-13
-3.15539e-14
9.93025e-15
6.47052e-12
3.93287e-11
2.92002e-12
1.45187e-11
-1.12216e-11
-4.22427e-12
-1.92641e-13
1.58647e-13
2.39504e-14
1.8369e-12
-1.60654e-12
-5.01485e-13
1.16772e-12
6.31165e-14
-3.01405e-13
0
0
1.63728e-11
2.10996e-11
-3.01159e-14
-1.8318e-14
2.81952e-14
-1.98093e-11
9.29481e-12
2.00765e-12
4.3621e-13
3.73593e-12
3.9363e-13
-7.89876e-13
3.05794e-12
4.90664e-12
3.11264e-12
2.05836e-12
5.19395e-12
4.67629e-12
8.34024e-12
2.62004e-12
3.3599e-12
1.56444e-12
-5.95327e-13
-1.45662e-12
2.03627e-12
-3.16513e-12
3.40815e-13
1.97161e-14
6.91862e-14
-1.98895e-11
5.1871e-12
-1.63526e-12
2.62583e-13
-2.16914e-17
0
1.89771e-17
0
0
-2.84372e-11
2.49518e-11
7.29894e-12
-2.47854e-13
4.48771e-12
-4.46483e-13
4.91509e-13
-1.39423e-12
1.93845e-13
1.13486e-16
-9.19577e-17
-4.18382e-12
3.31568e-12
1.93902e-13
8.41308e-13
1.04314e-11
-8.26775e-12
-7.40096e-16
-2.26625e-16
-1.49392e-15
-1.10771e-12
2.72299e-12
-2.20358e-12
2.50105e-17
-2.57116e-31
1.85835e-17
-2.10824e-13
-3.88631e-14
-9.64308e-14
1.432e-17
8.94743e-16
-2.55477e-15
-6.28955e-15
1.16282e-14
1.28693e-12
-1.50419e-14
8.23281e-12
-6.20746e-12
1.87221e-16
0
-7.5605e-16
6.1137e-15
-3.94985e-14
8.23831e-13
7.86814e-13
-2.70577e-13
6.78014e-12
-3.60308e-11
-4.39457e-14
1.55684e-13
-1.04846e-12
-4.96414e-11
1.38961e-10
-1.5141e-11
7.51246e-12
1.27578e-11
-4.64162e-12
1.62449e-11
-3.21147e-12
1.05551e-12
4.4748e-12
-4.589e-12
0
0
3.66327e-15
2.77873e-15
-1.45002e-15
0
0
0
0
0
0
-3.57874e-13
-5.54142e-13
-3.80459e-13
0
0
0
5.69186e-14
-1.33991e-13
6.99928e-14
-1.18303e-13
2.46398e-14
-7.47453e-14
2.05611e-14
-1.35839e-12
-2.75996e-13
4.70716e-13
0
0
-1.47442e-10
1.8825e-10
-6.09796e-11
0
1.03178e-16
0
-2.10525e-16
-1.90503e-16
3.26456e-13
4.35403e-12
9.90471e-13
-1.10213e-13
-1.08019e-12
2.32433e-12
7.98746e-13
1.29873e-12
-1.14087e-12
8.69313e-13
2.69532e-13
3.75783e-15
1.52622e-15
-8.77476e-15
-3.12055e-13
1.31958e-12
-1.72276e-15
-3.96619e-16
0
0
0
-2.19553e-13
-3.91252e-13
4.59522e-12
0
0
0
0
2.99053e-14
2.5231e-12
4.38208e-11
-6.70192e-11
4.1761e-12
-2.19229e-11
-8.30424e-12
4.68956e-12
-1.04106e-11
1.02943e-12
-1.39815e-15
4.9064e-15
-6.65794e-14
7.93164e-14
-2.96269e-14
1.30981e-14
-1.4606e-14
3.33458e-15
-8.97676e-15
2.92797e-11
7.08732e-12
-3.50495e-11
1.48527e-16
0
0
0
0
-4.16379e-13
-7.73779e-13
-2.73147e-13
2.96211e-13
-5.00406e-13
2.34291e-14
3.72413e-14
2.33461e-13
9.01354e-13
2.20441e-12
-1.16566e-12
3.27049e-12
-5.30678e-13
0
0
1.07616e-13
-6.78666e-13
0
0
0
0
0
0
1.72597e-12
-7.39189e-13
-1.60145e-12
-5.6795e-13
9.46043e-13
1.18155e-12
-8.55025e-14
-9.13433e-13
4.11258e-15
-4.96659e-15
0
0
0
0
0
-3.97478e-16
0
3.68359e-16
2.93306e-12
8.26725e-12
-3.95638e-12
-4.5373e-15
-3.33065e-14
2.68495e-14
0
5.67615e-16
-2.14955e-15
0
-6.12913e-15
2.78849e-14
-1.50399e-13
5.13133e-13
2.98635e-13
8.03825e-11
-1.04056e-10
7.71204e-12
2.78187e-15
5.98853e-13
2.19849e-12
-1.01958e-13
2.37932e-12
2.1589e-12
-4.67241e-13
-2.26604e-11
2.67507e-11
7.31847e-12
0
0
-6.99715e-16
-1.12909e-12
-1.56411e-12
7.89428e-13
3.06744e-13
-2.03262e-15
0
8.23211e-13
-1.76915e-12
-5.91236e-12
3.39762e-11
2.25793e-12
1.6543e-12
7.34429e-13
-1.12572e-11
-1.67756e-12
7.50815e-13
5.09111e-11
0
0
7.0889e-13
-1.27345e-12
5.17204e-13
-8.06908e-16
0
4.89493e-13
-2.07244e-12
2.42965e-14
-3.03411e-14
-1.22931e-14
0
0
0
0
4.52074e-12
2.0167e-12
1.45703e-14
-1.81877e-15
-4.42334e-14
4.78112e-13
3.012e-12
6.31608e-14
-8.50306e-14
1.09955e-14
0
0
0
6.54041e-14
-2.26795e-13
0
0
-9.96179e-14
6.74439e-14
-9.07907e-14
4.79114e-12
-2.29172e-12
-1.61255e-11
5.12602e-14
8.34614e-14
-1.79626e-13
-1.39115e-11
3.87348e-12
7.46037e-12
1.14598e-12
2.90862e-13
9.58298e-16
-1.87923e-15
2.70181e-15
-1.46383e-11
-3.92649e-12
-4.43372e-13
4.74784e-13
1.81599e-11
-2.22242e-13
8.57317e-14
8.48613e-16
-8.05988e-14
-2.38235e-16
6.51912e-16
-1.68689e-13
3.09628e-12
-1.33665e-11
4.78958e-12
9.63623e-14
-9.67366e-15
-3.70985e-12
8.4716e-13
1.18356e-12
-1.91112e-15
-7.46888e-16
-7.17427e-16
2.97213e-15
0
3.39729e-14
-1.36931e-13
2.56125e-14
0
-4.42873e-16
8.10927e-13
-1.10519e-11
2.87019e-13
-7.86599e-14
-2.3119e-13
-1.75392e-12
0
-7.06035e-17
4.5465e-13
1.41926e-12
-4.14264e-12
3.06253e-11
-2.02865e-11
-7.16611e-16
0
-1.66712e-12
-3.38035e-14
1.99027e-12
0
0
-9.01786e-16
0
-3.10399e-16
0
0
0
6.18641e-15
4.60468e-14
-5.48747e-12
1.03819e-12
-7.11114e-16
3.10897e-13
1.74202e-13
-2.56197e-13
5.65796e-13
2.10714e-12
2.31874e-13
-3.53066e-13
-1.4885e-11
-4.30043e-12
2.99608e-13
-8.60136e-13
2.42369e-12
5.06413e-14
-2.26934e-13
2.61747e-28
-1.21486e-14
-2.27086e-13
1.56801e-12
-2.63498e-15
0
4.34074e-15
-3.22072e-14
2.99037e-16
-4.93023e-15
-1.74115e-11
4.64487e-12
1.09492e-11
4.15465e-13
-9.74705e-14
-3.56292e-13
-3.09881e-12
2.35674e-12
-5.90628e-13
-2.63806e-15
-4.24547e-16
0
0
0
0
1.42298e-15
-3.04075e-15
2.14736e-14
-5.8243e-13
1.03981e-13
-1.36942e-12
-5.37785e-12
-4.84921e-11
4.14891e-11
7.33728e-12
-2.28148e-11
3.47151e-12
8.44099e-13
0
0
0
-4.58502e-15
-3.66332e-15
3.1008e-15
-7.26796e-12
-3.22935e-12
-1.05388e-12
1.86515e-12
5.49604e-12
-2.99043e-12
1.89531e-12
-3.1078e-11
-9.86615e-15
-3.04859e-15
6.71824e-15
-1.05698e-15
0
1.05286e-15
1.59111e-13
0
0
0
-5.82603e-13
-3.11952e-13
-4.3214e-12
-1.04151e-11
0
0
0
2.11918e-14
-9.49425e-15
3.64973e-15
8.93313e-13
4.10386e-12
-1.53839e-12
-1.69659e-16
-2.78629e-15
-2.82463e-14
-1.21168e-13
-1.18282e-11
-1.74089e-12
-3.82868e-13
1.6093e-12
-7.2661e-14
6.63733e-15
0
0
-7.29057e-12
2.05761e-12
3.90189e-12
-8.64691e-14
3.13805e-13
-7.44586e-13
2.7167e-13
-3.73656e-13
-3.01107e-12
-8.90901e-12
-7.32526e-14
1.7056e-12
5.64896e-14
4.28023e-15
-2.60316e-16
3.9477e-15
-1.3529e-15
0
0
0
1.32853e-12
8.53549e-14
2.27001e-12
-1.92777e-12
-5.36674e-12
0
-6.76568e-18
0
0
-6.62421e-14
-6.98052e-15
0
-1.13457e-16
6.26611e-12
-1.07036e-12
1.89815e-12
-1.19922e-10
2.74251e-11
3.2646e-11
3.7958e-13
-1.29597e-12
-4.56435e-14
0
0
0
-8.1178e-14
6.32588e-13
-5.87514e-13
5.16318e-15
-4.42682e-13
2.19853e-13
1.02061e-12
1.67175e-12
-7.68862e-13
8.56271e-13
2.19857e-13
1.38062e-12
-1.55361e-12
-7.09093e-17
5.08218e-31
9.69737e-16
1.22972e-13
2.26672e-14
0
0
0
2.24666e-12
-1.53691e-11
3.20147e-12
0
0
0
2.79761e-17
1.35632e-18
0
0
0
-1.38443e-11
-7.71829e-12
0
0
0
5.38688e-11
2.96878e-13
-1.04063e-13
2.64799e-15
0
-1.33633e-15
-6.03438e-16
-5.47037e-15
7.61561e-13
-2.23945e-13
-4.68114e-13
-2.26782e-15
8.76221e-13
1.48304e-12
5.7615e-12
8.55237e-13
2.09959e-12
-2.54627e-12
-4.49394e-16
0
-1.556e-11
1.64621e-11
-5.0518e-12
3.36833e-13
1.4925e-12
-7.54683e-12
-8.44425e-12
4.49485e-17
0
9.27387e-14
-2.25324e-13
6.03004e-14
0
5.4576e-13
-1.84975e-12
2.01279e-13
-5.91655e-13
-5.23496e-12
1.10465e-13
3.86378e-11
-6.26839e-11
2.48666e-11
9.00825e-12
-3.10783e-13
5.25547e-27
1.57994e-11
-1.04414e-11
-5.59948e-12
-2.76767e-11
1.19406e-10
-8.88027e-11
0
0
6.92878e-12
-1.95506e-13
-1.40531e-12
-7.27683e-13
-1.04837e-14
2.01772e-14
-1.076e-13
1.35874e-12
4.92738e-12
0
0
-7.04325e-13
-9.60851e-13
-2.67702e-13
-2.49439e-12
-4.4037e-12
5.69392e-12
0
-2.70691e-15
-1.21934e-16
-7.04978e-15
6.63114e-15
1.00408e-12
-2.97792e-13
-1.01065e-12
8.35508e-13
-1.36515e-11
-3.63446e-12
-9.00397e-13
1.53998e-13
0
0
1.6992e-12
0
0
0
-2.89895e-17
-8.68454e-14
2.01519e-12
2.85957e-12
2.28618e-12
3.10827e-12
-4.38579e-12
-1.48295e-16
2.88847e-17
-1.11505e-12
2.2553e-14
-8.33682e-13
1.94704e-13
5.32395e-13
-9.12344e-12
1.90105e-13
4.32885e-13
0
-1.84513e-15
4.00379e-15
-5.55715e-14
2.49868e-15
-4.74592e-14
-5.74434e-13
-4.70565e-14
-2.11448e-12
3.91498e-12
2.72321e-11
-1.57761e-10
6.77038e-12
-1.12e-11
2.52913e-15
-1.13856e-15
2.93584e-13
3.39344e-13
-7.07913e-13
2.60163e-15
-6.57949e-15
3.26407e-14
-1.10205e-11
-5.29645e-12
7.15277e-16
1.83987e-15
0
-2.17845e-15
0
-8.59752e-13
6.19661e-13
4.69289e-16
2.1478e-15
-8.00222e-16
0
0
-6.40941e-12
7.36791e-12
0
0
0
1.25891e-13
1.9794e-13
0
0
0
4.63583e-16
-2.41584e-16
0
0
0
-5.63843e-13
6.96312e-13
-3.92017e-13
3.6383e-14
-3.51163e-14
6.97491e-15
-1.24904e-11
2.20782e-13
-4.48176e-14
0
0
3.65808e-17
-1.03059e-12
5.11788e-12
8.2183e-13
-1.13004e-12
-1.00698e-12
7.95427e-12
0
-2.03914e-15
1.83647e-12
1.62134e-13
4.16389e-12
3.30048e-13
2.01476e-13
-1.2749e-12
4.06502e-18
-9.45355e-16
0
4.62857e-12
7.88648e-14
-7.22385e-12
-1.25468e-12
6.99554e-12
0
0
0
0
-3.50659e-12
-6.34701e-14
-2.97653e-12
-2.08198e-11
-6.93582e-11
9.04699e-11
0
2.19146e-17
0
0
0
-5.02223e-16
5.93517e-12
-5.00663e-12
-1.80176e-12
1.63946e-15
1.86599e-15
0
-8.62217e-16
0
0
1.85092e-15
-1.94771e-15
9.24512e-15
-3.50283e-15
2.73198e-12
-8.46288e-12
1.18584e-12
-3.39093e-14
3.7606e-14
0
-1.8627e-15
-5.64775e-15
0
0
-4.42877e-12
1.47143e-12
-3.94842e-15
0
-7.80986e-17
0
0
0
0
5.92605e-12
-9.45791e-12
3.79616e-13
-2.85356e-14
4.79643e-14
-3.1655e-14
1.21715e-11
1.71325e-11
9.7816e-15
1.74064e-13
-8.13907e-13
3.53675e-15
4.22915e-15
4.30993e-15
-3.07125e-11
-3.76593e-11
0
0
0
-3.25247e-13
4.72337e-13
0
0
-3.03234e-12
-1.2657e-12
1.85551e-11
-1.15428e-15
2.97318e-15
0
4.4372e-15
2.5443e-14
-5.21893e-14
0
-3.37527e-14
-1.25654e-16
1.57972e-14
2.5213e-13
3.7428e-14
7.82919e-12
-9.24304e-13
0
-1.46767e-12
-2.33383e-13
6.66181e-13
-4.27183e-13
-2.33274e-13
2.00955e-12
-1.85922e-13
0
0
-1.20765e-12
-8.62025e-13
-1.29732e-13
1.19454e-12
1.36385e-12
2.2553e-12
5.09684e-12
0
-2.44012e-16
0
0
0
1.06739e-12
-1.26502e-12
-9.49352e-12
1.36527e-12
4.02905e-12
-8.60927e-13
1.29489e-11
0
0
-1.49579e-10
4.47385e-11
6.80063e-13
-5.15296e-15
0
0
0
1.28779e-11
3.37538e-12
-1.11362e-11
6.32581e-13
-3.7262e-14
-2.2889e-13
0
-5.80241e-13
9.37167e-13
-6.4031e-16
1.52074e-15
-2.6235e-15
-9.07519e-12
-3.00199e-12
7.25081e-12
2.53137e-12
-1.04881e-12
-7.21144e-15
-4.65388e-15
9.7031e-15
0
0
0
0
-2.14252e-13
-7.10329e-13
-1.51641e-12
1.47586e-11
-1.00024e-11
-7.99294e-13
1.90612e-12
0
-4.28743e-17
2.3919e-16
0
8.16232e-16
-2.8873e-13
-2.16738e-12
3.27151e-14
-2.25566e-14
-2.39926e-12
-7.01533e-12
9.37157e-12
-8.05046e-14
-9.87815e-12
1.17169e-12
-2.19373e-14
-1.18993e-11
2.3718e-12
-3.86195e-15
0
1.55133e-15
3.13285e-12
-4.87283e-12
5.83698e-13
-6.64185e-12
2.65564e-12
4.72166e-12
-9.11674e-13
0
0
0
0
3.66642e-16
1.65517e-29
3.04676e-14
1.58414e-15
-8.15137e-16
-1.43166e-12
2.24094e-12
0
2.24958e-14
-1.54254e-11
2.22287e-11
2.16959e-12
-4.1837e-12
3.79919e-12
-7.15113e-13
-8.06256e-13
-6.37085e-12
8.59043e-12
0
0
0
2.47718e-11
-3.4444e-12
6.82914e-16
-4.33608e-16
-2.11977e-12
3.01374e-12
-8.36975e-13
6.38853e-14
0
0
0
-3.61612e-11
7.32246e-12
-4.61387e-14
2.96879e-15
-4.15083e-14
1.94492e-14
0
0
0
-5.67525e-14
9.20537e-14
8.12323e-15
-4.65137e-14
-8.99814e-15
0
1.25529e-13
-1.68503e-13
-9.64868e-15
-8.17675e-14
6.60813e-15
6.44395e-14
1.55215e-14
-3.23701e-13
0
0
0
1.83121e-14
-8.70672e-15
1.38338e-14
3.73525e-13
-8.22643e-13
-5.36376e-13
-8.90929e-15
-3.80618e-15
-8.85113e-16
-2.9731e-15
-1.60664e-12
1.04161e-12
1.15036e-15
-1.12941e-16
2.54329e-15
-9.30673e-13
1.09516e-11
1.60478e-11
0
1.10652e-16
1.34158e-12
-8.13948e-13
-1.12873e-13
0
9.47382e-16
7.05077e-14
3.20503e-12
4.33673e-14
2.98435e-11
1.02962e-11
-4.25354e-11
-6.28253e-12
2.47043e-12
2.26212e-12
-1.99784e-13
1.89658e-12
0
-5.76464e-16
-1.06796e-11
2.30725e-11
0
0
0
0
2.45351e-15
-6.0102e-15
-6.89696e-15
1.84169e-15
-2.06394e-15
-3.36521e-12
4.52822e-11
-2.07385e-11
2.63913e-12
-7.85988e-14
-1.6765e-12
4.11722e-12
4.90919e-13
8.7589e-16
1.01874e-15
-4.15579e-15
8.52363e-13
-1.42715e-12
-7.0466e-13
7.89121e-12
1.65948e-12
-1.44845e-11
-7.59373e-13
4.51581e-13
-5.18523e-13
-7.94352e-13
0
2.60784e-15
-4.29587e-15
3.91276e-13
0
0
-9.98879e-16
3.90837e-16
2.08726e-15
8.69831e-12
2.00803e-11
-4.06415e-13
8.95534e-15
3.51881e-14
-2.17592e-13
6.39443e-14
-6.07538e-12
-8.26285e-13
-1.81825e-14
4.22343e-13
-8.36743e-13
-4.21233e-13
3.66762e-13
-5.60489e-13
4.48252e-13
1.55821e-12
3.81295e-11
-2.85585e-11
6.61163e-13
-2.87914e-13
6.03419e-13
-1.33826e-12
-2.19428e-15
4.90074e-17
0
-6.35821e-12
8.43321e-12
-4.6414e-13
0
0
-2.01347e-13
-6.50567e-14
-4.40423e-13
-2.20658e-13
-1.5989e-12
-2.98649e-12
-3.98329e-12
-3.95519e-12
1.67963e-11
-4.42528e-16
4.75532e-15
-1.86531e-15
-1.70267e-13
2.33543e-13
5.29432e-13
-1.24542e-12
-4.33818e-12
1.67988e-11
-2.07273e-11
6.65254e-12
-1.31214e-13
7.90825e-14
6.45132e-13
8.74656e-12
2.2502e-15
-1.47537e-13
6.99008e-13
1.07333e-13
-1.53622e-13
9.44735e-15
0
-2.52245e-16
-2.23357e-15
-1.60967e-13
-1.69336e-14
3.13053e-14
-1.02413e-12
8.39667e-12
-1.99035e-11
3.42331e-12
1.14515e-11
7.52058e-13
-4.25814e-13
5.18551e-13
8.09411e-12
-1.73051e-12
3.71405e-13
-3.25358e-13
4.86626e-13
9.1657e-16
1.70722e-15
-5.37545e-15
5.13053e-13
1.17372e-12
3.90828e-12
-3.36435e-12
-6.04227e-15
1.11465e-15
-3.92242e-15
-2.94003e-12
-1.89273e-13
0
0
0
0
0
-2.75969e-13
-4.61508e-14
0
0
0
-5.421e-11
-4.98786e-11
2.47404e-13
4.54257e-13
1.21864e-12
-1.492e-12
1.83235e-12
-1.68721e-13
-1.34972e-13
-4.77354e-13
-1.2138e-13
-9.94791e-13
1.65095e-15
4.1574e-14
1.58984e-12
-6.95404e-12
-8.54868e-12
-7.55615e-12
-6.68872e-12
5.58014e-12
1.64179e-15
2.28898e-15
3.17294e-13
7.34659e-14
-6.07827e-13
-2.0932e-12
-2.72958e-12
7.93598e-13
3.7064e-12
-1.05963e-14
-1.63133e-14
2.46227e-14
0
0
-8.71396e-14
1.63833e-13
1.97172e-13
-1.01921e-10
8.58864e-11
1.97987e-15
0
0
0
0
1.42865e-12
-1.912e-13
0
0
0
0
6.51321e-16
-3.56937e-15
-4.0428e-16
2.45416e-14
4.70547e-13
-2.73417e-13
-9.78967e-16
6.07428e-15
7.1899e-12
8.36331e-12
-1.4422e-12
1.25873e-12
-9.72965e-13
-1.36184e-12
0
0
0
1.07652e-16
-2.12865e-16
-1.35894e-13
-7.85345e-14
1.16715e-12
1.44583e-12
-2.64656e-12
1.80437e-12
-3.11252e-12
5.9652e-13
-8.4044e-13
2.33509e-12
-6.9341e-12
5.02511e-12
-4.69285e-13
-1.74994e-13
-6.85018e-15
7.04806e-14
2.73661e-15
8.31512e-13
1.53998e-12
1.107e-14
-1.64495e-14
3.79154e-14
3.3517e-14
0
0
0
-1.03478e-11
8.84054e-12
4.0056e-14
-1.07475e-14
-8.60104e-14
3.06296e-13
1.34568e-12
2.80685e-15
7.91949e-16
6.15876e-30
-2.62253e-15
3.82095e-15
2.21771e-15
0
0
0
1.45217e-16
0
0
-1.62438e-15
-7.09451e-16
0
0
0
1.11963e-13
1.27905e-14
2.20246e-16
-2.10277e-16
-1.59302e-12
-6.15798e-15
7.89322e-15
7.49369e-15
-1.03544e-12
2.84776e-13
1.48284e-12
-8.97267e-15
7.89319e-14
1.12204e-15
-6.89631e-12
6.6462e-14
7.53688e-12
0
0
0
2.31332e-13
-7.84742e-14
-1.44897e-13
-2.31686e-13
2.19458e-12
4.79615e-16
-2.40995e-16
0
-1.41146e-12
-9.58213e-12
3.84423e-12
2.46505e-11
7.27817e-13
-1.66326e-13
-5.8113e-13
1.46843e-13
-2.7146e-13
2.22975e-12
-1.21825e-13
-8.85123e-14
4.85491e-13
-3.79006e-14
-2.71429e-14
9.01392e-13
-7.75396e-13
5.33565e-14
-2.65233e-14
-7.03495e-14
1.6815e-11
4.76124e-12
-1.73478e-11
-1.45216e-14
1.6721e-14
5.19794e-12
1.1225e-12
4.29938e-13
0
0
1.04596e-12
-1.9683e-12
3.27662e-12
-2.49518e-13
1.57719e-12
8.76777e-13
0
0
-2.141e-14
2.06223e-14
-2.00695e-15
-1.04703e-15
9.31976e-15
0
0
0
2.45435e-13
1.82272e-13
4.67135e-13
1.15955e-13
-2.19982e-13
0
0
0
-3.42541e-14
1.96297e-13
8.38857e-15
-1.51734e-14
2.58205e-15
0
0
0
-2.041e-12
2.67962e-13
0
0
2.0106e-13
-4.41054e-14
9.73916e-16
-2.14159e-12
1.78498e-12
6.17423e-13
4.56814e-12
-1.40071e-12
-6.49151e-12
5.19855e-12
0
3.46543e-17
-9.53353e-17
7.04342e-14
0
-1.43873e-12
1.06874e-12
1.06035e-12
-1.37546e-13
1.17476e-13
0
0
0
6.58028e-13
-3.25302e-13
1.5049e-13
0
0
0
0
-1.45713e-12
-4.33342e-13
9.7979e-14
1.02308e-15
-1.20898e-14
5.49209e-15
0
0
-1.73585e-15
1.06746e-15
0
0
0
-2.93155e-11
5.73204e-11
-3.03488e-11
-1.40727e-11
-4.17682e-12
3.83174e-16
1.23635e-16
5.60625e-17
0
0
0
0
0
-6.94266e-11
3.79624e-11
3.17065e-11
5.96259e-12
-1.8858e-12
-4.93009e-12
0
0
0
0
9.94111e-13
2.28881e-13
-2.49776e-14
-1.16332e-12
0
0
1.27566e-15
3.53051e-16
3.1984e-15
0
0
0
7.19882e-13
-1.02773e-10
3.65672e-11
4.82318e-11
0
0
7.91013e-15
-6.57453e-13
4.71655e-13
1.04875e-11
8.38444e-13
0
0
0
-3.25283e-12
4.91401e-13
-8.38358e-13
-3.58757e-13
1.68666e-11
0
0
0
1.74496e-12
-8.96679e-14
1.71191e-11
-1.79848e-12
-4.22434e-12
8.43352e-16
-2.86582e-15
-2.74274e-13
-2.60946e-12
9.49504e-13
-3.75266e-12
8.32924e-12
-8.94246e-12
-8.83403e-13
-1.13172e-11
-4.46344e-12
1.72087e-11
3.38978e-16
3.15564e-15
1.50021e-13
5.06493e-14
0
-1.67507e-13
-6.19088e-13
1.53088e-13
2.9445e-17
-6.19781e-17
0
1.43387e-12
5.47877e-13
0
0
0
0
0
2.2215e-16
5.91749e-13
7.80869e-13
-8.9656e-13
1.10661e-11
-1.6203e-11
2.68182e-12
0
0
4.54863e-12
1.46083e-12
3.81745e-12
2.04738e-12
1.1896e-12
5.13873e-13
8.2615e-12
-4.82217e-16
0
1.49052e-11
3.58787e-12
-2.44127e-12
0
0
-1.0947e-15
6.91646e-15
3.91686e-15
1.52167e-15
1.90242e-13
-1.28599e-12
8.49986e-13
3.31426e-13
-2.74448e-12
6.35363e-13
3.18323e-13
-1.62686e-14
-6.41063e-15
2.1698e-16
0
-1.70312e-15
-3.88294e-17
-5.02828e-12
4.20262e-12
5.72619e-15
-2.21059e-15
-4.66933e-13
1.24819e-13
3.95808e-13
7.13222e-12
-4.82194e-12
-1.44335e-12
2.41903e-12
0
0
-1.08569e-14
-3.22938e-15
6.59774e-14
3.77356e-14
2.41239e-16
2.9208e-16
5.40994e-13
-3.44651e-13
-1.02245e-30
0
2.49934e-12
-1.5127e-12
-3.88574e-13
-2.48735e-12
-5.63497e-14
9.19086e-15
-7.24591e-15
0
-2.6195e-15
2.76301e-14
1.50019e-13
0
0
0
1.9575e-12
1.42199e-11
-2.47938e-11
8.74331e-11
-1.91114e-11
-2.29022e-15
4.95305e-15