/*--------------------------------*- C++ -*----------------------------------*\
| =========                 |                                                 |
| \\      /  F ield         | OpenFOAM: The Open Source CFD Toolbox           |
|  \\    /   O peration     | Version:  v2012                                 |
|   \\  /    A nd           | Website:  www.openfoam.com                      |
|    \\/     M anipulation  |                                                 |
\*---------------------------------------------------------------------------*/
FoamFile
{
    version     2.0;
    format      ascii;
    class       surfaceVectorField;
    location    "450";
    object      Uf;
}
// * * * * * * * * * * * * * * * * * * * * * * * * * * * * * * * * * * * * * //

dimensions      [0 1 -1 0 0 0 0];


internalField   nonuniform List<vector> 
20537
(
(1.02537 -0.00918707 -2.51417e-22)
(1.02547 -0.00905276 -4.65177e-22)
(1.02551 -0.00910485 -2.03686e-23)
(0.582982 0.20615 2.5047e-21)
(0.57664 0.201957 -5.81879e-23)
(0.586392 0.195988 -2.26429e-21)
(1.05013 -0.0506922 -3.45047e-22)
(1.04838 -0.0512952 -1.36139e-22)
(1.04971 -0.0528453 -6.19046e-21)
(1.02526 -0.00903566 4.31962e-23)
(1.02544 -0.00900085 -1.26585e-23)
(1.02556 -0.0089273 -1.48075e-22)
(1.06148 -0.0399527 5.30308e-21)
(1.06106 -0.0405072 0)
(1.0608 -0.0398206 0)
(1.08176 -0.0205564 -5.96523e-22)
(1.07907 -0.00864504 0)
(1.07145 -0.016163 0)
(1.03019 -0.000196465 1.19208e-21)
(1.03076 -0.000348666 -3.14411e-21)
(1.03055 6.31362e-05 -3.80237e-21)
(1.04469 -0.0370589 4.89407e-21)
(1.04536 -0.0359802 6.20235e-21)
(1.04612 -0.0374037 -3.44118e-21)
(1.00737 -0.00311336 8.28278e-23)
(1.00744 -0.00323295 8.38537e-23)
(1.00721 -0.00301574 1.47655e-22)
(1.01567 -0.0607076 -3.04183e-22)
(1.01416 -0.056624 2.45171e-22)
(1.01892 -0.057834 -1.09283e-21)
(0.916601 -0.0223863 -8.49451e-23)
(0.910045 -0.0385908 1.19696e-21)
(0.920995 -0.0468225 -4.23942e-21)
(0.4792 -0.167074 5.27646e-21)
(0.46944 -0.168115 5.43475e-22)
(0.427125 -0.170063 -2.60867e-21)
(0.955793 -0.039112 8.21966e-22)
(0.997108 -0.0378849 9.39633e-21)
(0.964707 -0.0394692 4.89819e-21)
(0.183687 0.230604 -6.45562e-21)
(0.192517 0.222493 -5.68627e-21)
(0.12811 0.230127 5.85997e-21)
(1.0201 -0.000291868 -8.6557e-22)
(1.0201 -0.000263366 -1.89443e-21)
(1.0202 -0.000293157 2.99565e-21)
(1.03231 -0.0215396 -3.46222e-22)
(1.03292 -0.0224177 1.39545e-21)
(1.03182 -0.0225567 -1.77792e-21)
(1.04084 -0.0170392 -9.6297e-21)
(1.04021 -0.0165881 -1.26127e-21)
(1.04088 -0.0164802 3.55086e-22)
(1.03147 -0.0165619 -5.75535e-23)
(1.0317 -0.0160013 -1.65169e-23)
(1.03227 -0.0168024 7.6939e-23)
(1.0604 -0.0357177 -1.33773e-21)
(1.06104 -0.0351431 9.59361e-21)
(1.06502 -0.0362115 3.80941e-21)
(1.00729 -0.00300056 -3.17159e-23)
(1.00752 -0.00321475 2.27408e-22)
(1.02502 -0.00899544 -2.16922e-22)
(1.02502 -0.00907247 -6.21888e-23)
(1.05109 -0.0487063 -2.35417e-21)
(1.05237 -0.0501169 -2.19916e-21)
(1.00328 8.41603e-05 -1.87362e-23)
(1.00383 0.00014144 -1.01607e-22)
(1.00439 0.000220756 -2.90632e-23)
(1.00315 -0.000262479 -7.61115e-23)
(1.00181 -0.00010483 0)
(1.00321 -0.000260815 5.26919e-23)
(1.00279 6.42321e-05 9.28245e-23)
(1.00211 -1.16869e-05 5.5485e-23)
(1.04322 -0.0369768 -3.15287e-21)
(1.04416 -0.0385014 -2.89048e-21)
(1.04854 -0.0128134 -1.01375e-20)
(1.04815 -0.0122067 4.31498e-21)
(1.04776 -0.0127011 -3.06951e-21)
(0.0131512 -0.102426 -1.101e-20)
(0.0262847 -0.112397 2.99047e-21)
(1.02525 -0.00926418 3.31786e-22)
(1.02534 -0.00940671 2.78231e-22)
(1.03126 -0.0128252 -7.99038e-23)
(1.03152 -0.0129411 1.07631e-21)
(1.03145 -0.0129993 6.02597e-22)
(1.08297 -0.0317131 -1.20198e-21)
(1.09341 -0.0266604 -2.53233e-21)
(1.0407 -0.0176863 -2.28756e-21)
(1.04149 -0.0175894 2.91977e-21)
(1.04684 -0.0500108 3.94325e-21)
(1.04624 -0.0522577 -3.92167e-21)
(0.913368 0.0832461 0)
(0.903741 0.103895 0)
(0.895769 0.102581 3.02037e-21)
(1.00314 -0.00022668 -2.32921e-22)
(1.00429 -0.000402457 -1.22106e-22)
(1.07277 -0.0451086 7.98586e-21)
(1.07339 -0.0453649 -1.3194e-20)
(1.07318 -0.0459056 1.6156e-20)
(1.08164 -0.049499 -1.55327e-20)
(1.07489 -0.0485758 -9.92728e-21)
(1.07506 -0.0491205 -8.38166e-21)
(1.07444 -0.0512576 -5.77899e-21)
(1.07506 -0.0485433 -4.31556e-21)
(1.07266 -0.0502529 6.57811e-21)
(1.01297 -0.06318 -2.35962e-22)
(1.01784 -0.0646072 9.07461e-23)
(0.938514 0.0558245 1.2429e-21)
(0.92331 0.0521568 0)
(1.02005 -0.00644769 -3.91231e-22)
(1.02019 -0.0065953 -4.18381e-22)
(1.0204 -0.00659874 -2.26838e-22)
(1.01118 0.000141918 3.15594e-23)
(1.01109 0.00022462 -3.04949e-23)
(1.01082 0.000163016 -1.26421e-23)
(-0.0141479 0.020857 2.4989e-20)
(-0.0180742 0.0170879 -1.54272e-20)
(-0.0170664 0.0271817 -4.79508e-24)
(0.893249 -0.0648412 2.98096e-21)
(0.892444 -0.0866959 7.54575e-22)
(0.897212 -0.0730457 9.64713e-22)
(0.895487 -0.0375096 -2.43776e-22)
(0.893336 -0.0557192 1.4912e-21)
(-0.00624716 -0.0170909 -2.10521e-20)
(0.0269943 -0.0259451 -2.89353e-21)
(0.0339062 -0.0161057 7.08184e-22)
(0.892633 -0.0913375 -9.22318e-22)
(0.892414 -0.0832832 -5.23282e-22)
(0.902106 -0.0714238 5.98565e-22)
(0.841975 0.000244241 0)
(0.829847 -0.0226075 1.31477e-22)
(0.821872 0.00673909 0)
(1.04889 -0.0134463 8.42315e-22)
(1.04931 -0.0129052 -2.96718e-21)
(1.0034 -0.030235 -8.16868e-23)
(1.00386 -0.0249521 5.05117e-22)
(1.00893 -0.0279401 1.54986e-21)
(1.06531 -0.0366209 -7.57326e-21)
(1.06562 -0.0370015 -1.21631e-20)
(1.06578 -0.0364575 -1.3593e-20)
(1.06452 -0.0398625 0)
(1.06468 -0.0398836 5.2338e-21)
(1.06463 -0.0401666 0)
(-0.0268312 -0.122727 1.47643e-20)
(-0.0235892 -0.117221 -2.7704e-21)
(-0.0188862 -0.127271 -1.18562e-20)
(1.01985 -0.000360758 -5.97917e-21)
(1.01946 -0.000165074 -3.31386e-21)
(1.02 -0.000358636 -2.04704e-21)
(1.01375 -0.00072289 -6.46179e-22)
(1.01366 -0.000693907 0)
(1.01465 -0.000812379 0)
(1.01128 5.7763e-05 -2.42231e-23)
(1.01157 0.00011715 2.71124e-23)
(1.00292 6.30686e-05 3.53568e-22)
(1.00336 7.0146e-05 1.39087e-22)
(1.00253 5.07629e-05 -2.22748e-24)
(-0.0181628 -0.130429 1.82669e-20)
(-0.0201131 -0.128465 4.33481e-21)
(-0.00235584 -0.129969 4.58941e-20)
(1.03105 -0.0125395 8.07036e-23)
(1.0309 -0.0126729 -4.0303e-23)
(1.03169 -0.00245915 0)
(1.03119 -0.00224289 0)
(1.03173 -0.00207464 6.09645e-21)
(1.07944 -0.0521676 0)
(1.07357 -0.0539421 -5.26427e-21)
(0.546572 0.0277979 -1.47633e-22)
(0.530443 0.0290277 -1.20412e-21)
(0.471657 0.0381976 9.3233e-21)
(1.02344 -0.039648 -1.46833e-21)
(1.01854 -0.0397605 1.63364e-21)
(1.02153 -0.035314 8.90533e-22)
(1.06289 -0.0398729 -6.38028e-21)
(1.06267 -0.0402127 4.14605e-21)
(1.06315 -0.0402471 6.09428e-22)
(1.02426 0.0673834 -3.6475e-21)
(1.05994 0.0509215 -8.59214e-22)
(1.06235 0.0514919 6.21881e-22)
(1.02631 -0.00802468 -4.97729e-22)
(1.02643 -0.00817533 -4.93252e-22)
(1.02678 -0.00770095 9.91761e-23)
(1.07933 -0.0510057 7.07784e-21)
(1.08155 -0.0505687 6.18888e-22)
(0.894792 -0.0973453 -9.56871e-22)
(0.894401 -0.0972003 -3.19102e-21)
(1.05854 -0.0251512 -2.0649e-22)
(1.05778 -0.0254323 0)
(1.05776 -0.0245576 6.24739e-21)
(1.03074 -0.0162728 4.01158e-23)
(1.03099 -0.0171918 -1.94515e-22)
(0.357322 -0.00544048 -2.66711e-21)
(0.346708 -0.0047492 -1.9079e-20)
(0.321979 -0.00116134 -2.92351e-21)
(1.03346 -0.0521323 1.09092e-20)
(1.0325 -0.0530257 4.60299e-21)
(1.06076 -0.05231 1.18319e-20)
(0.60053 0.204682 6.29045e-21)
(0.592064 0.212446 1.47821e-21)
(1.02 -0.000291777 -1.67562e-21)
(1.01963 -0.000404435 3.62278e-21)
(1.01448 -0.00113692 7.56645e-23)
(1.01471 -0.00125171 1.46603e-21)
(1.01451 -0.00134095 -6.11658e-22)
(1.00887 -0.00472659 -8.78104e-23)
(1.00874 -0.00462875 8.24214e-23)
(1.00865 -0.00450646 4.21164e-22)
(1.05191 -0.0477997 2.32073e-21)
(1.0504 -0.0480607 5.32363e-21)
(0.453482 -0.00781891 -6.40226e-21)
(0.473628 -0.0107458 4.86828e-21)
(0.456055 -0.00689623 9.68255e-21)
(1.05614 -0.03344 1.03736e-20)
(1.05686 -0.0339972 7.13711e-21)
(1.05605 -0.0343272 -8.51926e-22)
(0.337122 -0.0067883 1.34818e-20)
(0.309316 -0.00513201 -3.60263e-23)
(1.03492 -0.00533358 -3.83114e-21)
(1.03429 -0.00533046 -4.42052e-23)
(1.03437 -0.00488626 -3.91809e-21)
(0.946251 0.0607313 -1.55233e-23)
(0.959716 0.0650199 -5.3805e-22)
(0.94662 0.0776878 0)
(1.02281 -0.00296893 5.97709e-22)
(1.02307 -0.00315143 1.5557e-21)
(1.02267 -0.0030863 -2.78408e-21)
(0.00908 -0.038809 0)
(0.040814 -0.0427187 -1.61473e-20)
(-0.00207641 -0.039771 0)
(1.02777 -0.0391932 0)
(1.02593 -0.0439858 1.28211e-21)
(0.48568 -0.165485 -1.37431e-21)
(0.535677 -0.164925 2.55417e-21)
(1.05122 -0.0245363 3.12589e-22)
(1.05717 -0.0233271 -1.20374e-21)
(1.05142 -0.0195721 -1.97618e-22)
(0.552377 0.0345387 0)
(0.603962 0.0380255 0)
(0.593346 0.0184009 0)
(1.04607 -0.0166898 0)
(1.04544 -0.0169805 0)
(1.04629 -0.0175356 0)
(1.00976 0.00484387 9.80324e-23)
(1.00962 0.00448622 0)
(1.01 0.00496921 -1.20209e-22)
(1.07205 -0.0445004 -6.30345e-21)
(1.07224 -0.0449598 -1.41489e-20)
(1.01466 -0.0101755 -1.11097e-21)
(1.01256 -0.0106023 -8.28757e-22)
(1.01383 -0.00835458 6.56164e-22)
(0.886176 -0.099603 -2.90227e-21)
(1.04905 -0.0202132 3.87854e-21)
(1.04878 -0.0207436 0)
(1.04958 -0.0208278 0)
(1.04607 -0.0161122 0)
(1.04686 -0.0164619 4.05886e-21)
(1.00132 8.34816e-06 2.18047e-22)
(1.00137 1.16509e-05 -2.54741e-22)
(1.00214 -5.34044e-05 -3.4868e-22)
(1.06208 -0.0402194 1.77081e-20)
(1.0619 -0.0396142 -3.12569e-21)
(0.629303 -0.0333437 -3.46858e-21)
(0.602702 -0.0320617 0)
(0.609372 -0.0346578 0)
(1.00414 -0.036037 0)
(0.998036 -0.0310475 0)
(1.00046 3.43215e-05 2.83849e-22)
(1.00125 -2.52094e-06 1.15268e-22)
(0.027614 0.122453 -7.91507e-21)
(0.101778 0.140637 4.71709e-21)
(0.0568717 0.156299 5.09726e-20)
(1.06068 -0.0335078 1.00946e-21)
(1.06133 -0.0332416 -2.91123e-21)
(1.06061 -0.0328007 5.11605e-21)
(1.02518 -0.00957918 -1.02021e-21)
(1.02551 -0.00980071 1.5254e-22)
(1.02531 -0.00973255 -2.96527e-22)
(1.05309 -0.00684624 0)
(1.05388 -0.00714454 2.9621e-21)
(1.00406 4.08149e-06 1.54587e-23)
(1.00513 -7.76743e-06 -5.73469e-24)
(1.00424 -7.61695e-06 2.24599e-23)
(1.04637 -0.0348752 2.88886e-22)
(1.0425 -0.0391731 -3.36734e-21)
(1.04112 -0.0330493 2.7659e-22)
(1.06301 -0.0338913 -1.14695e-21)
(1.06247 -0.034094 1.0235e-20)
(1.06301 -0.0345705 4.80117e-21)
(1.00986 -0.000251466 1.05877e-23)
(1.00983 -0.000177172 1.33684e-23)
(1.0096 -0.000207799 1.83824e-23)
(0.95994 -0.0524692 -5.32828e-22)
(0.915299 -0.0524009 -6.23442e-21)
(1.085 -0.000256581 3.585e-22)
(1.07291 -0.000159628 0)
(1.00162 -0.00010459 -8.3486e-23)
(1.00065 -3.14749e-05 -1.43989e-22)
(1.00152 -8.87278e-05 3.49485e-22)
(1.00986 0.00524864 8.86837e-23)
(1.00954 0.00461122 -1.35087e-22)
(1.01617 -0.00969269 -5.01601e-22)
(1.01542 -0.011396 2.73393e-22)
(1.00058 -1.52756e-05 0)
(1.00055 -5.27814e-05 0)
(1.00249 -0.000175561 0)
(1.00159 -9.71624e-05 0)
(0.855214 0.175338 1.90174e-22)
(0.850639 0.188372 -8.67681e-22)
(0.659984 -0.0355759 9.10091e-22)
(0.654786 -0.0335458 -1.53665e-22)
(1.00909 0.000138521 1.93404e-23)
(1.00915 0.000160122 4.04368e-24)
(1.00918 0.000119167 1.20211e-22)
(1.00741 -0.000473334 0)
(1.00716 -0.000459624 -1.27436e-22)
(1.00506 -0.000244377 0)
(1.01319 -0.000648936 1.11352e-21)
(1.01187 -0.000618265 -6.05359e-22)
(1.01139 -0.000492409 8.40333e-22)
(-0.0141138 0.0159618 1.12816e-20)
(-0.00924237 0.0276381 7.18883e-21)
(1.05257 -0.00763063 0)
(1.05208 -0.00670799 5.2929e-21)
(0.948906 -0.0385715 -5.81738e-21)
(0.910267 -0.0399777 -1.23722e-20)
(0.876283 0.170397 4.92738e-23)
(0.855206 0.0193383 7.61216e-22)
(0.869496 -8.68911e-05 -9.60372e-22)
(1.01803 0.00336317 -4.58626e-22)
(1.01808 0.00390361 -2.07784e-23)
(1.0179 0.00396086 1.66206e-22)
(0.872776 0.036679 -4.95247e-21)
(0.848517 0.0464381 7.54484e-22)
(1.05831 -0.0334171 -3.2163e-21)
(1.05893 -0.0332921 -5.53241e-21)
(1.05875 -0.034108 1.24069e-20)
(1.02482 -0.00901883 -1.84106e-22)
(1.0251 -0.00897391 -1.37804e-22)
(1.06652 -0.0423822 -9.6699e-22)
(1.06588 -0.0421786 -7.45716e-21)
(1.06669 -0.0415862 -8.06975e-22)
(1.01973 -0.00628829 -6.10106e-22)
(1.01993 -0.00629386 -7.69486e-22)
(1.00887 -0.00249024 -7.10514e-24)
(1.00911 -0.00264512 4.12711e-23)
(1.00905 -0.00247187 1.29957e-23)
(0.366767 -0.00778977 3.97005e-21)
(0.378388 -0.0111587 2.91785e-20)
(1.02291 -0.00281148 -1.31472e-21)
(1.02251 -0.0027541 2.73525e-21)
(0.838112 0.176768 1.95101e-21)
(1.00903 -0.00108987 -1.06274e-23)
(1.00882 -0.00104965 -9.23154e-24)
(1.00854 -0.000877395 1.22832e-22)
(1.00903 0.000105831 -1.06462e-22)
(1.009 0.000144759 -1.11234e-22)
(1.03786 -0.0512693 9.40247e-22)
(1.04155 -0.0510781 -5.95057e-21)
(1.06422 -0.0514132 6.55185e-21)
(0.0691263 0.110383 1.11745e-21)
(0.0369889 0.132251 4.13757e-21)
(0.0612312 0.115164 2.58449e-21)
(0.203877 0.0968688 0)
(0.248668 0.0927024 0)
(0.207606 0.0767334 0)
(-0.00875868 0.0797757 2.57768e-20)
(-0.0325825 0.0985071 -2.27556e-20)
(1.01408 -0.000875565 -1.05105e-21)
(1.01231 -0.000416539 -1.81563e-22)
(1.011 -0.00831381 -9.29669e-22)
(1.0111 -0.00876026 -4.94279e-22)
(1.01084 -0.00834062 1.16042e-22)
(1.01551 0.00158487 1.22579e-22)
(1.01515 0.00167753 1.76664e-22)
(1.01574 0.0017933 2.50573e-22)
(1.0353 -0.0128028 3.51144e-22)
(1.03568 -0.0132706 3.51378e-21)
(1.03567 -0.0127384 3.90832e-21)
(0.889148 -0.098218 -6.03189e-22)
(0.895755 -0.100985 6.01757e-22)
(1.02434 -0.00182283 3.09338e-23)
(1.02468 -0.00257993 -1.81971e-22)
(1.02336 -0.00238411 1.7613e-24)
(1.06799 -0.0426982 3.81892e-21)
(1.06652 -0.0433941 1.4817e-20)
(1.02957 -2.36759e-06 2.038e-21)
(1.02973 -0.000402712 1.27095e-22)
(0.900032 -0.0185772 -1.26928e-21)
(0.900366 -0.00542853 2.78173e-21)
(1.0744 -0.035908 2.09091e-20)
(1.07403 -0.0365676 6.04607e-21)
(1.01216 -0.000744225 -7.76503e-22)
(1.0125 -0.000737037 5.47393e-22)
(1.01338 -0.000791372 6.47874e-22)
(0.154089 0.235179 -5.44133e-21)
(0.23546 0.231515 -8.02493e-21)
(1.00254 5.63585e-05 1.31224e-22)
(1.00329 7.60702e-05 1.79063e-22)
(1.04017 -0.0108546 -7.07286e-21)
(1.04074 -0.010969 -3.25459e-21)
(1.0403 -0.0103646 2.9838e-22)
(1.03492 -0.012942 -4.76212e-21)
(1.03481 -0.0124049 -1.32963e-21)
(1.01418 -0.00578565 4.83845e-24)
(1.01387 -0.00564015 -2.3832e-23)
(1.01404 -0.00583971 5.82707e-23)
(1.03097 -0.0120274 8.18814e-23)
(1.0308 -0.0117785 -1.58037e-21)
(1.03116 -0.0119967 -1.56492e-21)
(1.06465 -0.0399776 -7.39338e-21)
(1.06437 -0.0397144 -1.44229e-20)
(1.06491 -0.0361804 6.10082e-21)
(1.06481 -0.0367293 6.83162e-21)
(1.01356 -0.00158408 1.06496e-23)
(1.01311 -0.00146909 -1.87448e-22)
(1.01326 -0.00160022 1.57172e-23)
(1.05449 -0.018124 5.69747e-21)
(1.05434 -0.018679 1.81295e-21)
(1.0551 -0.0185993 5.2068e-21)
(-0.0135702 -0.132834 0)
(-0.0265722 -0.129795 -5.11076e-21)
(1.00865 -0.00234239 -1.6078e-23)
(1.00872 -0.00250846 -5.00323e-25)
(1.0331 -0.0137437 3.63452e-22)
(1.03299 -0.0139808 1.62811e-22)
(1.03297 -0.0138695 1.15428e-21)
(1.01323 0.000901066 -1.48111e-22)
(1.01349 0.00103584 1.58001e-23)
(1.01301 0.000997114 -9.71879e-23)
(1.02393 -0.000975733 3.12385e-23)
(1.02592 -0.000794992 9.32201e-23)
(1.05928 -0.025739 -7.04992e-21)
(1.05925 -0.0248381 -5.93362e-21)
(1.02458 -0.00896939 3.57159e-23)
(1.02454 -0.0089914 0)
(0.478233 -0.0247213 -1.07607e-22)
(0.428143 -0.0287008 -1.51083e-20)
(0.484035 -0.029455 -9.9646e-21)
(0.425588 -0.00386457 -1.53828e-20)
(0.449877 -0.00774849 -8.55102e-21)
(1.00463 -0.000583325 -1.45046e-22)
(1.00471 -0.000660953 -1.88232e-22)
(1.0047 -0.000606956 1.5961e-22)
(1.01451 -0.00593847 -1.03178e-23)
(1.01432 -0.00573626 -1.07191e-23)
(0.172306 0.100702 0)
(0.208652 0.115018 0)
(1.00843 -0.00219265 -2.26222e-23)
(1.00858 -0.00217139 -9.81888e-24)
(0.82434 -0.0460891 6.1681e-21)
(0.848546 -0.0405881 1.23864e-22)
(1.05746 -0.0337529 1.19073e-21)
(1.0576 -0.0328483 -3.5175e-21)
(1.01253 -0.00982699 1.75104e-22)
(1.0129 -0.010058 1.16013e-21)
(1.01276 -0.0103602 5.13784e-22)
(1.03783 -0.0347638 -9.05717e-21)
(1.06489 -0.0366064 -5.64267e-21)
(1.01041 -0.000336904 -9.75142e-24)
(1.01045 -0.000413561 0)
(1.01075 -0.000399811 0)
(1.04112 -0.0187588 0)
(1.04057 -0.0182545 3.41089e-21)
(1.04046 -0.0188546 0)
(1.00023 -0.0521466 -4.89855e-23)
(1.02268 -0.00243627 6.92712e-22)
(1.02241 -0.00225766 0)
(1.02234 -0.00241078 -2.58476e-21)
(1.05341 -0.0514185 -4.23239e-21)
(1.05392 -0.0497573 -9.84056e-21)
(1.00834 -0.000213394 -1.43007e-22)
(1.00794 -0.00017233 -8.36955e-23)
(1.00814 -0.000212276 -1.15873e-23)
(1.00224 8.69661e-05 1.01783e-22)
(1.0026 0.000129013 1.246e-22)
(1.00318 0.00020742 3.2373e-22)
(1.02605 -0.00790903 -2.3438e-22)
(1.02595 -0.00834793 -2.74338e-23)
(1.0142 -0.000951147 5.17486e-22)
(1.01417 -0.000882553 3.35998e-22)
(1.06187 -0.0416604 -5.41333e-21)
(1.06159 -0.0423002 -1.95918e-23)
(1.06244 -0.0422692 -6.06044e-21)
(0.992389 -0.0147222 0)
(0.986391 -0.0163979 0)
(0.992552 -0.0205717 0)
(0.886864 -0.103314 -9.54566e-22)
(-0.0265045 -0.129039 3.07551e-20)
(-0.0347507 -0.120522 0)
(1.00989 0.00560941 -2.50551e-22)
(1.00959 0.00526022 -9.43138e-23)
(1.00983 0.00595249 3.24539e-22)
(1.05495 -0.026711 -4.71302e-21)
(1.05561 -0.0263355 1.50723e-21)
(1.05485 -0.0258607 -4.93055e-21)
(0.56251 0.0244419 -3.86169e-21)
(0.605562 0.0167008 -5.57837e-21)
(1.03891 -0.0105221 -2.63418e-21)
(1.0395 -0.0107292 -6.32311e-21)
(1.03907 -0.0101844 2.32063e-21)
(1.01088 -0.00793517 -6.41128e-22)
(1.01113 -0.00821003 -3.25934e-23)
(0.949593 -0.088267 0)
(0.963073 -0.109785 -1.03792e-21)
(0.967737 -0.0792253 0)
(1.01212 -0.00957546 -2.33798e-22)
(1.01224 -0.00930958 1.75469e-22)
(1.009 -0.00481793 -3.95215e-22)
(1.00909 -0.00494731 -1.62089e-22)
(1.01813 0.00275815 -7.23715e-24)
(1.01835 0.00304643 -6.38078e-22)
(0.0989313 0.0101082 -1.10539e-20)
(0.162055 0.00770697 -3.49598e-21)
(0.160951 -0.0046851 -5.5185e-22)
(1.00395 -0.000164543 2.1981e-22)
(1.00652 -0.000261982 7.41657e-22)
(1.00341 -0.00019571 -9.47992e-22)
(1.02067 -0.00418109 0)
(1.02035 -0.00402107 0)
(1.02053 -0.00427188 0)
(1.00415 -0.0320799 7.75557e-24)
(1.00625 -0.0291167 -1.27892e-21)
(1.00821 -0.0323684 -5.67147e-22)
(1.02304 -0.002442 3.0066e-21)
(1.02297 -0.00262049 -1.07727e-21)
(0.489101 -0.0685114 -9.70924e-22)
(0.415145 -0.0611809 9.46634e-21)
(0.449764 -0.0686026 1.09709e-20)
(1.04243 -0.0172555 -4.0681e-21)
(1.0421 -0.0165913 3.13127e-21)
(1.04297 -0.0168391 3.37973e-21)
(0.492756 -0.0197113 4.40557e-21)
(0.47364 -0.0166947 7.98429e-21)
(0.491242 -0.0200642 7.78446e-21)
(1.01144 -0.000907795 0)
(1.01175 -0.000995256 0)
(1.01176 -0.000895878 0)
(0.753229 -0.0435528 -8.53856e-21)
(0.71429 -0.042344 -4.14904e-21)
(0.724534 -0.0419219 -2.36964e-21)
(1.02504 -0.00940261 2.22154e-22)
(1.02486 -0.00934671 -5.28733e-22)
(0.905768 -0.0680257 2.36593e-21)
(0.920564 -0.101838 0)
(0.910796 -0.106827 1.10442e-21)
(1.00997 -0.000514229 -1.05211e-23)
(1.00993 -0.000439791 -1.02464e-23)
(1.00968 -0.000457482 -5.30253e-23)
(1.01485 0.00123531 -4.15628e-24)
(1.01513 0.00108805 -4.34636e-23)
(1.01452 0.00107355 -4.22181e-23)
(0.950108 0.0271983 3.19733e-22)
(0.941526 0.0173925 0)
(0.950672 0.00836747 -1.74879e-22)
(1.0365 -0.0403896 -4.52713e-22)
(1.03175 -0.0376642 -2.09335e-22)
(1.0358 -0.0350457 6.70325e-23)
(-0.0373979 -0.0203399 1.12465e-21)
(-0.0337159 -0.010789 5.08479e-22)
(1.0206 -0.000763715 7.55887e-23)
(1.02045 -0.000653023 -1.76558e-22)
(1.0204 -0.000752463 4.11461e-23)
(0.495927 -0.0197265 -1.92705e-20)
(0.513803 -0.0226569 -4.23872e-21)
(1.04204 -0.0175517 7.76029e-22)
(1.04269 -0.0177232 -6.1182e-21)
(1.03543 -0.00567484 -7.17348e-22)
(1.03548 -0.00522218 -1.93482e-21)
(0.755894 -0.0409752 -2.16607e-23)
(0.728315 -0.0407617 -2.04596e-22)
(0.728547 -0.040893 -7.53556e-21)
(1.06438 -0.0397954 2.42491e-21)
(1.06451 -0.03981 5.44193e-22)
(1.0645 -0.0396946 3.16443e-21)
(0.659885 -0.0395544 0)
(0.6299 -0.0374859 0)
(0.630454 -0.0384285 4.62641e-21)
(1.00237 0.000100027 1.39601e-22)
(1.00243 8.72119e-05 -5.6564e-22)
(1.00142 5.889e-05 1.20772e-22)
(1.04999 -0.0227548 3.72626e-21)
(1.05072 -0.0234203 0)
(1.04978 -0.0235955 0)
(1.00388 7.13113e-06 -8.26664e-23)
(1.00285 -1.7588e-05 7.50096e-23)
(-0.0678091 -0.0977434 -6.29817e-21)
(-0.0673103 -0.0900388 5.84622e-21)
(-0.0605345 -0.0966752 -1.66462e-20)
(1.01003 -0.000584999 -2.31442e-23)
(1.01029 -0.000576323 0)
(1.04178 -0.0370624 3.19988e-21)
(1.0423 -0.0357465 -2.62544e-21)
(1.10947 -0.0468149 -2.75547e-21)
(1.11 -0.0333514 -2.17597e-21)
(1.09842 -0.0361755 -1.86638e-21)
(1.00458 -0.00055172 1.05975e-22)
(1.00456 -0.000507236 -4.04507e-22)
(1.01019 0.00577918 -1.40896e-22)
(1.0667 -0.0351898 -1.12192e-20)
(1.06612 -0.035391 -1.30884e-21)
(1.06614 -0.034749 -6.88854e-21)
(1.04629 -0.0151164 4.76496e-22)
(1.04379 -0.0147357 -1.16244e-22)
(1.0445 -0.0168599 1.4555e-22)
(0.547528 -0.0693892 -1.16203e-20)
(0.522102 -0.0652821 -6.84102e-21)
(0.969277 0.0771862 1.23676e-22)
(0.989296 0.075018 9.73086e-22)
(1.01518 0.00139135 5.06114e-23)
(1.01582 0.00146013 -4.71985e-23)
(1.02078 -0.00410512 -1.35346e-21)
(1.02097 -0.00432077 1.28121e-21)
(1.07204 -0.0354972 1.30152e-22)
(1.07953 -0.0446835 1.2448e-22)
(0.941615 -0.0405195 0)
(0.953534 -0.0442753 0)
(0.953059 -0.0317185 -4.21721e-22)
(1.017 -0.00261442 0)
(1.01654 -0.00243883 3.16682e-23)
(1.0171 -0.00247345 3.31235e-23)
(1.0025 -0.0355673 6.15763e-22)
(1.00014 -0.0318292 5.54784e-22)
(1.00607 -2.74304e-05 0)
(1.00592 -1.47255e-05 3.12996e-23)
(0.594384 -0.0340656 -6.30741e-22)
(0.570274 -0.0316543 -4.91026e-21)
(0.590173 -0.0337055 2.139e-21)
(1.06013 -0.0338403 1.43729e-20)
(1.06078 -0.0342686 8.66958e-21)
(0.898521 0.0106898 -2.78027e-21)
(0.894237 0.0469465 -4.00395e-21)
(0.883114 0.0424294 -3.84058e-21)
(1.03465 -0.0130236 -1.69534e-21)
(1.03429 -0.013047 1.03608e-21)
(1.03423 -0.0125893 1.70953e-21)
(1.03634 -0.0174352 -6.11761e-22)
(1.03645 -0.0168618 -2.97765e-21)
(1.03588 -0.0169414 9.43424e-22)
(1.02278 -0.0132635 -1.2272e-22)
(1.02355 -0.0123323 -1.64111e-22)
(1.02217 -0.0122452 9.8e-22)
(0.929984 -0.0354 0)
(0.933193 -0.0513776 0)
(1.03131 -0.00801273 1.67802e-21)
(1.03164 -0.00831112 3.87047e-21)
(1.03113 -0.00820145 3.59809e-21)
(1.03507 -0.0133633 -3.38469e-22)
(1.06588 -0.0315925 5.6748e-21)
(1.06647 -0.0320269 2.2985e-21)
(1.06561 -0.0322102 -2.26348e-21)
(0.942583 -0.00614756 -1.88223e-21)
(0.936495 -0.0185858 3.69224e-21)
(0.95089 -0.0184191 -1.66503e-21)
(0.99332 -0.00815843 0)
(0.997861 -0.0130443 0)
(1.00861 -0.0512337 -6.16928e-21)
(1.04308 -0.0506935 -9.75404e-21)
(0.454472 -0.0189332 -1.07291e-20)
(0.37172 -0.00298459 2.07775e-20)
(0.344885 -0.0111957 -1.10796e-20)
(1.02299 -0.000280488 -2.82643e-21)
(1.02263 -0.000181076 -6.49214e-22)
(1.02271 -0.000382958 -1.76603e-21)
(1.01455 0.00134898 -8.24122e-24)
(1.03003 -0.0158167 7.43686e-23)
(1.02946 -0.0160494 0)
(1.02935 -0.0152544 4.05473e-23)
(0.966341 0.043868 9.43432e-21)
(0.987664 0.0442079 -8.09319e-21)
(0.941165 0.0853977 2.31368e-21)
(1.01611 0.00346139 -3.64094e-23)
(1.01588 0.00339809 0)
(1.01635 0.00349805 0)
(1.00525 -0.0342901 0)
(1.01143 -0.0338975 0)
(0.964603 -0.0333561 4.98478e-21)
(1.03883 -0.0110087 -1.83351e-21)
(1.03839 -0.0104482 1.86293e-22)
(1.03147 -0.00781499 -1.72567e-21)
(1.03096 -0.00769663 -3.0987e-21)
(1.0494 -0.0196956 3.74652e-21)
(1.0486 -0.0197369 1.56757e-21)
(0.784793 -0.0421013 2.2147e-22)
(0.783986 -0.0418184 2.15224e-22)
(0.997012 0.0295163 2.09234e-22)
(1.00111 0.0258767 -1.59763e-21)
(0.995285 0.0241063 2.10078e-22)
(1.02296 -0.014691 1.14726e-22)
(1.02165 -0.0140082 3.10053e-24)
(1.03997 -0.0113378 -2.56118e-22)
(1.08475 0.00518431 1.14805e-20)
(1.09156 0.00552898 1.01589e-20)
(1.06492 0.0374828 -2.33502e-21)
(1.05538 -0.0328983 6.61808e-21)
(1.05619 -0.0325648 7.70275e-21)
(1.03167 -0.0207442 -3.4807e-22)
(1.0325 -0.0206475 6.71187e-22)
(1.00933 -0.00279586 2.44218e-23)
(1.00915 -0.00280534 -1.7019e-23)
(0.943242 0.0396805 -1.33888e-21)
(0.93353 0.0571831 -1.2995e-23)
(1.01055 0.0277774 -3.01425e-22)
(1.00412 0.0286558 -1.59389e-22)
(1.00755 0.0230743 -7.37155e-22)
(0.677852 -0.0436543 -2.01332e-21)
(0.645557 -0.0408359 4.84562e-21)
(0.644736 -0.0424635 -5.8947e-22)
(0.923829 -0.00959345 0)
(0.916267 0.00326394 -1.05563e-23)
(1.01739 -0.00274386 3.69136e-23)
(1.01686 -0.00271408 -7.11085e-24)
(1.01083 -0.000898092 1.07442e-23)
(1.01114 -0.000898119 2.87255e-24)
(1.01111 -0.000983551 2.80017e-24)
(1.00434 -3.31508e-05 5.50988e-24)
(1.00454 -2.4813e-05 0)
(1.0054 -1.83584e-06 0)
(1.06615 -0.0310666 0)
(1.06541 -0.0312159 2.01481e-22)
(0.934814 0.0519934 -1.91379e-21)
(0.986033 -0.000900299 4.80535e-21)
(0.821735 -0.069391 2.58597e-21)
(0.8423 -0.0831417 -1.79362e-22)
(0.825235 -0.0937495 -3.63918e-21)
(1.00832 -0.00401872 -3.5003e-24)
(1.00838 -0.00410682 4.8079e-23)
(1.00858 -0.00424423 2.66506e-24)
(1.0205 0.000303429 0)
(1.02058 0.000193243 0)
(1.0207 0.000321336 3.00667e-21)
(1.07246 -0.00413972 2.99113e-21)
(1.09519 -0.0250511 5.36177e-21)
(0.980293 0.0383359 1.14277e-21)
(0.967229 0.0128484 4.64327e-22)
(0.982867 0.0120142 -5.59056e-21)
(1.06919 -0.0428026 -8.25243e-21)
(1.069 -0.0417913 -4.55069e-21)
(1.03083 -0.0123404 8.45111e-23)
(1.03116 -0.012481 -1.54638e-22)
(1.03218 -0.00263713 1.13488e-21)
(1.03165 -0.00273876 0)
(1.05775 -0.0270993 -6.13243e-21)
(1.05704 -0.0273876 3.43987e-22)
(1.05779 -0.0279956 2.42718e-21)
(0.973906 0.0550868 -2.78969e-21)
(0.987206 0.0478627 5.99827e-22)
(1.03702 -0.0363448 4.20515e-21)
(0.994983 -0.0352605 1.62848e-21)
(1.03303 -0.0144081 -3.29905e-22)
(1.03304 -0.0143955 -1.68157e-22)
(1.03303 -0.0145943 -8.27353e-22)
(0.461323 -0.164945 -7.50876e-22)
(0.515169 -0.158606 1.53516e-22)
(1.00957 -0.0031147 -1.4521e-23)
(1.00973 -0.00311413 -2.19874e-23)
(1.00952 -0.00293904 -3.94949e-23)
(0.599745 -0.0341471 7.04513e-22)
(0.621444 -0.0361121 8.96551e-21)
(1.05396 -0.0177153 3.59317e-21)
(1.05472 -0.0175614 0)
(1.03968 -0.0161782 6.15778e-23)
(1.03964 -0.0166889 -9.53469e-24)
(0.690035 -0.045034 -5.29813e-21)
(0.652262 -0.043835 -6.31566e-21)
(0.662466 -0.0433299 6.93735e-21)
(1.02464 -0.00794765 9.90276e-22)
(1.02461 -0.00803517 -1.83736e-22)
(1.02492 -0.00812692 -2.20189e-22)
(1.04922 -0.0300967 0)
(1.05373 -0.0362564 9.51028e-23)
(0.654566 -0.0349548 3.1966e-21)
(0.653456 -0.0336059 -2.19637e-21)
(0.679813 -0.0361242 -2.02191e-20)
(1.00809 -0.00381133 2.44027e-23)
(1.00828 -0.00392977 1.15375e-22)
(1.06328 -0.0288464 2.21905e-22)
(1.06399 -0.0293007 -6.87357e-22)
(1.06316 -0.0296678 -8.30884e-22)
(1.04788 -0.020889 0)
(1.04863 -0.0215736 0)
(1.03063 -0.0120969 9.61525e-23)
(1.03048 -0.0121586 5.07218e-22)
(0.115275 0.083813 -2.43113e-21)
(0.0868478 0.102251 -2.03567e-21)
(1.03297 -0.0141569 3.92833e-22)
(1.03283 -0.0145652 6.89848e-22)
(1.03001 -0.00807463 0)
(1.03026 -0.00800322 -1.5714e-21)
(1.03042 -0.00835726 -3.0933e-21)
(0.711965 -0.0411189 1.47851e-21)
(0.706616 -0.0403496 -1.04621e-20)
(0.682289 -0.0394174 -4.84078e-21)
(1.01159 0.000357914 1.51018e-22)
(1.01182 0.000426732 7.03275e-23)
(1.01143 0.00044164 -6.88107e-23)
(1.03633 -0.017862 1.51533e-22)
(1.0368 -0.0177606 -2.31249e-21)
(1.01821 0.00186148 1.50265e-23)
(1.01883 0.000796012 -2.33463e-23)
(1.01894 0.0017397 4.09505e-23)
(0.716244 -0.0463729 -7.52087e-21)
(0.716899 -0.0459512 -1.148e-21)
(1.07219 -0.0419081 -3.73997e-21)
(1.07247 -0.0424579 -1.21214e-20)
(1.07275 -0.0419332 -1.08328e-20)
(1.0208 -0.000762768 1.9095e-21)
(1.02076 -0.000872884 -1.41055e-21)
(1.06326 -0.0326737 -4.55387e-21)
(1.06308 -0.0333338 -1.10522e-20)
(1.06259 -0.0327364 -5.52427e-21)
(1.0208 -0.000320778 -4.501e-22)
(1.02088 -0.0004181 -2.47253e-21)
(1.02103 -0.000311243 -4.14988e-22)
(0.47916 -0.0302492 -2.04681e-20)
(0.48366 -0.020356 -5.87229e-22)
(1.02491 -0.0118982 1.85349e-22)
(1.02654 -0.0126367 1.76742e-21)
(1.02643 -0.0105747 4.63687e-22)
(1.00317 0.000102257 4.50734e-23)
(1.0036 0.000142578 1.14148e-22)
(1.00423 0.000237915 1.19747e-22)
(1.01575 -0.0074534 9.59315e-23)
(1.01609 -0.00761621 -2.44583e-22)
(1.0158 -0.00734758 -5.45337e-24)
(1.07155 -0.0417604 0)
(1.0719 -0.0412064 -9.43485e-23)
(1.04936 -0.0221173 3.69131e-21)
(1.05019 -0.0220572 5.16782e-22)
(1.04113 -0.00982621 -2.29422e-21)
(1.04119 -0.0103081 4.78898e-21)
(1.04064 -0.00999059 6.21715e-21)
(1.02035 0.000272763 0)
(1.02467 -0.0078549 -2.08044e-22)
(1.02436 -0.00778206 4.93272e-22)
(1.02974 -0.00822212 -7.89243e-22)
(1.02953 -0.00784183 0)
(0.903421 -0.0281055 -1.01558e-22)
(0.902519 -0.0569003 -8.07279e-22)
(0.34398 0.231652 1.28468e-20)
(0.35006 0.226902 1.10843e-20)
(0.472585 -0.0120021 0)
(0.514233 -0.00829434 -3.35879e-21)
(0.472652 -0.00483055 0)
(1.0268 -0.0185029 -2.67509e-22)
(1.0275 -0.0197857 -4.7777e-22)
(1.0261 -0.0197038 0)
(0.731461 -0.0461734 3.25726e-21)
(0.722372 -0.0461706 1.02267e-20)
(0.842177 -0.0391716 4.83639e-21)
(0.810265 -0.0337425 -1.45139e-21)
(0.808612 -0.0382522 1.80149e-21)
(1.02013 -0.000337293 -1.26825e-21)
(1.05498 -0.0275356 -6.05108e-21)
(1.05427 -0.0270201 -7.20276e-22)
(1.06963 -0.0440349 -3.59604e-21)
(1.06974 -0.0428956 -3.37455e-21)
(1.01111 -0.0129528 -8.19507e-22)
(1.01052 -0.0152783 6.3546e-22)
(1.01278 -0.0145461 -7.08037e-22)
(1.05833 -0.0192377 -3.65703e-22)
(1.05475 -0.0216189 -2.76379e-22)
(1.05527 -0.0172814 -2.55981e-23)
(1.06524 -0.0399293 -1.51342e-22)
(1.06522 -0.0396576 7.44771e-22)
(1.06548 -0.0397317 6.74404e-21)
(1.06554 -0.0352262 3.02201e-21)
(1.01925 -0.00967106 -3.09737e-22)
(1.01947 -0.00974466 -3.88328e-22)
(1.0192 -0.00997934 5.02532e-22)
(0.847552 0.0568382 2.93556e-21)
(0.874636 0.0575142 5.56343e-21)
(0.835421 0.103246 4.77173e-21)
(0.657222 -0.0358651 5.74978e-23)
(0.629684 -0.0338572 7.27166e-21)
(0.634461 -0.0339842 1.01988e-20)
(1.01985 -0.000224632 -3.03402e-21)
(1.0201 -0.000212583 1.69547e-22)
(1.03817 -0.0260081 -4.49735e-21)
(1.04007 -0.0179589 -6.37505e-22)
(1.0428 -0.0204314 -3.35114e-23)
(1.03076 -0.035129 6.0626e-22)
(1.03177 -0.0283743 2.79691e-22)
(1.03742 -0.0900562 -1.24694e-21)
(1.05608 -0.086382 9.67133e-22)
(1.03532 -0.086399 1.56316e-21)
(1.0411 -0.00940622 4.09913e-22)
(1.04169 -0.00976375 -3.7658e-21)
(1.06306 -0.0174133 -7.94799e-22)
(1.06217 -0.0225305 -5.57858e-22)
(-0.0659775 -0.105911 -7.73766e-21)
(-0.074552 -0.0989562 -1.21578e-20)
(1.01485 -0.00608882 7.76445e-23)
(1.01471 -0.00614371 1.23645e-24)
(0.822538 0.0564795 7.55203e-21)
(0.857975 0.0036453 6.15552e-22)
(1.01547 -0.00730463 1.00468e-22)