/*--------------------------------*- C++ -*----------------------------------*\
| =========                 |                                                 |
| \\      /  F ield         | OpenFOAM: The Open Source CFD Toolbox           |
|  \\    /   O peration     | Version:  v2012                                 |
|   \\  /    A nd           | Website:  www.openfoam.com                      |
|    \\/     M anipulation  |                                                 |
\*---------------------------------------------------------------------------*/
FoamFile
{
    version     2.0;
    format      ascii;
    class       surfaceScalarField;
    location    "400";
    object      meshPhiCN_0;
}
// * * * * * * * * * * * * * * * * * * * * * * * * * * * * * * * * * * * * * //

dimensions      [0 3 -1 0 0 0 0];
oriented        oriented;


internalField   nonuniform List<scalar> 
20537
(
0.000172771
8.01247e-06
-0.000182025
-0.000217172
0.00016029
5.68551e-05
2.18771e-05
8.41351e-05
-0.000106063
0.00028569
-0.000155528
-0.00013128
-6.34102e-05
-4.04015e-05
0.000103778
-0.000151976
-5.33674e-05
0.000204895
0.000205748
-0.000164963
-4.32885e-05
-6.29646e-05
0.000128503
-6.56371e-05
8.49896e-05
-0.000111317
2.32877e-05
-0.000147343
6.55057e-05
8.17647e-05
2.0438e-05
-5.56192e-05
3.5031e-05
9.96097e-05
5.48906e-06
-0.000105108
-4.83918e-05
6.18128e-05
-1.34246e-05
-2.5658e-05
-3.82941e-05
6.39524e-05
1.60301e-05
4.33012e-05
-7.08476e-05
8.77188e-05
6.0837e-05
-0.000148812
-0.000196681
5.78649e-05
0.000138298
2.43809e-05
0.000134679
-0.000159572
-4.03994e-05
-3.3637e-05
7.40282e-05
0.000107854
-2.60414e-05
0.00012918
0.000154637
0.000123676
-0.000101855
3.80279e-06
-7.77003e-07
-4.23653e-06
-9.28048e-06
9.8415e-06
-5.73904e-06
5.22522e-07
2.06279e-06
6.57532e-05
-0.000128829
-0.000152303
0.000122103
2.98183e-05
2.49217e-05
1.26639e-05
0.000230903
-5.94106e-05
0.000222218
-3.32675e-05
-0.000189807
4.9291e-05
-0.00020167
-0.000104655
-9.24806e-05
0.000132268
-4.81925e-05
7.09256e-05
4.36061e-05
-0.000114646
6.736e-06
-2.13952e-05
4.53157e-05
1.06744e-05
-5.59946e-05
-6.27891e-05
3.0884e-05
3.1903e-05
-4.66269e-05
-4.13788e-05
8.7992e-05
-0.000107595
-3.98035e-05
0.000154832
-8.40372e-05
0.000219947
-0.000123416
-9.93767e-05
-7.44709e-06
-2.45244e-06
9.46164e-06
-3.21252e-05
1.07344e-05
2.13909e-05
-3.88085e-05
-1.45126e-05
5.32545e-05
1.25896e-05
-5.14503e-05
-5.11266e-05
2.90231e-05
2.21034e-05
-1.48192e-05
5.20497e-05
-3.72205e-05
0.00019009
-5.51786e-05
-0.000135042
-0.00011692
-3.57226e-05
-0.000141657
0.000122374
1.86244e-05
5.31417e-05
-9.42991e-05
4.113e-05
-4.04889e-05
8.0811e-05
-4.03317e-05
-1.2613e-05
3.04167e-05
-1.78037e-05
-7.335e-06
3.13542e-05
-3.50166e-05
7.63227e-06
2.14845e-05
-3.94477e-05
2.17678e-06
-1.00218e-05
3.14031e-06
-1.50058e-05
9.09226e-06
1.73e-05
2.22108e-05
-3.95108e-05
0.000181708
3.95026e-05
-0.000169498
0.000207814
-4.05595e-05
-9.00897e-05
4.3447e-05
4.91662e-05
1.22047e-05
-6.1373e-05
-7.34922e-05
-0.000126346
0.00019947
3.81136e-05
4.92395e-05
-8.73733e-05
-0.000173594
3.43613e-05
0.000139102
-5.62516e-05
0.000197972
-0.000142604
-3.44887e-05
-2.8302e-05
-9.17688e-06
5.2999e-05
-6.32901e-05
-6.24993e-05
0.000125667
0.000165554
-0.000141726
2.9363e-05
-5.79829e-07
-2.87832e-05
-2.22926e-05
-2.75686e-05
4.98601e-05
-0.000133643
-8.35435e-05
-5.04395e-05
3.02632e-05
5.67555e-05
-1.08367e-05
-5.50441e-05
-3.72963e-05
-6.83592e-05
0.000103688
3.24592e-05
9.11803e-05
-2.71257e-05
3.8772e-05
-1.16463e-05
0.00011825
-6.88516e-05
-4.94676e-05
6.21276e-06
-3.15833e-05
-0.000206907
6.21569e-05
0.000143017
-3.00723e-06
4.41956e-06
-1.4049e-06
0.000138179
-0.000193613
5.02113e-05
-2.82772e-05
5.03761e-05
-2.20989e-05
0.000112128
-0.000185995
-8.04063e-06
0.000107641
5.55801e-05
-0.000198482
0.000142347
-0.000134411
0.000103748
3.06299e-05
0.000135406
1.25011e-05
-0.000148312
-8.26634e-05
6.38441e-05
1.75042e-05
6.85142e-05
-2.32028e-05
0.000245748
-0.000141633
-0.000104948
3.59202e-05
0.000149889
-7.85136e-05
-7.15933e-05
0.000205613
-7.06467e-05
7.26245e-06
1.17419e-06
-1.12656e-05
-9.22331e-05
2.87935e-05
5.7448e-05
-4.68604e-05
-1.05885e-05
-0.000112751
-2.9497e-05
6.07065e-06
-2.13721e-06
4.88197e-05
-5.10899e-05
2.27066e-06
-6.62724e-05
-4.17424e-05
0.000107962
0.000222187
-9.52741e-05
-0.000128354
0.00010006
-0.000139593
6.24902e-07
-9.64274e-07
1.08865e-07
-5.60097e-05
-0.00013475
0.000190206
5.19564e-05
4.23222e-05
-9.43191e-05
-4.22433e-06
-1.04295e-06
4.96454e-06
2.72357e-05
-4.47428e-05
-0.000199222
0.000145419
-6.71898e-06
6.35237e-06
-3.19499e-06
-6.13557e-05
-2.26644e-05
0.000135903
0.000109005
-2.55273e-06
-2.40555e-06
-1.51689e-05
4.63568e-06
-8.24057e-05
0.000177375
3.47509e-05
2.26959e-05
7.20599e-06
-5.0665e-06
-2.554e-06
-1.27856e-05
-7.86362e-06
1.33742e-05
-3.31163e-05
6.92519e-06
1.73525e-05
-3.16884e-05
-4.36813e-07
-7.65236e-05
0.000176143
1.82168e-05
-6.66122e-05
0.000189482
5.80293e-05
0.000131845
-7.77264e-06
3.5898e-05
-2.86973e-05
0.000193657
-0.000135837
8.89938e-05
-9.11193e-07
-8.81353e-05
0.000253425
-0.000125753
-3.34096e-05
7.56901e-05
-4.22937e-05
9.06162e-05
0.000125868
2.84875e-05
-9.63816e-05
6.30363e-05
-3.95357e-07
2.97584e-05
-3.8112e-05
0.000170739
9.76375e-05
-2.29698e-05
-1.59429e-05
3.30658e-05
2.95597e-06
3.7151e-06
-2.57052e-05
-2.56834e-05
5.13875e-05
8.17304e-05
-5.07186e-05
-3.10124e-05
4.57995e-05
-8.83317e-05
4.25361e-05
7.34501e-06
4.14749e-05
-3.07351e-05
2.7138e-05
0.000159979
-6.91838e-05
-9.22909e-05
1.82514e-06
1.68901e-05
-1.92119e-05
8.73352e-05
-0.00016695
7.88669e-05
-5.28077e-05
3.82207e-05
-3.68546e-06
1.60414e-07
3.40701e-06
-8.78192e-05
5.43915e-05
0.000158947
4.36578e-05
4.88042e-05
-3.62632e-05
8.50158e-05
-3.93924e-05
2.39731e-05
2.79265e-06
-3.61153e-05
3.12167e-05
-5.68744e-05
1.01644e-05
-9.43719e-06
-2.35794e-06
-0.000122122
0.00012389
-0.000102185
0.000188682
-2.53941e-05
0.000149741
-0.000127423
-0.000156961
0.00019254
-3.64643e-05
-6.41795e-05
2.36813e-05
9.44699e-05
-4.13581e-05
-2.41366e-06
2.38027e-06
-2.58106e-08
0.000133726
-7.27514e-05
-6.11423e-05
-1.66921e-05
3.39921e-05
7.92841e-05
-5.51725e-05
-0.000159968
-5.29251e-05
0.000212287
2.11428e-06
-1.7789e-05
1.51141e-05
-7.29191e-07
-3.03583e-06
-0.000119011
5.56048e-05
0.000140614
0.000111245
3.07291e-05
-4.9001e-05
1.82714e-05
-3.01886e-05
3.06295e-06
4.64567e-05
-1.04322e-05
-3.87002e-05
-0.000152176
0.000123784
8.95254e-05
-4.37231e-05
2.2843e-05
5.18952e-05
-0.000187535
0.000132218
-3.25195e-05
0.000121442
8.29951e-05
4.20532e-05
-0.000126258
-7.88372e-05
3.84305e-05
4.28272e-06
1.18802e-06
-5.71506e-06
-6.13504e-05
0.000169091
-0.000108101
-4.79988e-05
-0.000174779
0.000120387
4.90675e-05
-9.21575e-05
-9.73264e-06
-7.7185e-07
6.83546e-07
1.83352e-08
5.07751e-06
2.82368e-07
-7.26406e-06
-0.000197426
0.000140307
-3.57383e-05
-6.5347e-06
4.47244e-05
4.74229e-05
-9.21736e-05
0.000106999
-0.000144984
3.78844e-05
3.81823e-05
-3.18647e-05
1.92517e-05
7.54226e-05
-1.26156e-05
-6.38486e-05
-6.76736e-05
-4.99999e-05
0.00011756
-3.01419e-05
7.93052e-05
-3.23603e-06
-0.000137868
0.000140368
5.02151e-05
0.000108289
-0.000138893
4.54542e-05
9.32789e-05
-7.19466e-05
0.000153457
6.99758e-05
-0.000109254
-3.7535e-05
2.91685e-05
-6.15297e-05
3.00607e-05
3.14685e-05
4.51494e-06
-1.61712e-05
3.58513e-06
-7.27017e-05
0.000162752
-9.47179e-05
-0.000139762
6.55586e-05
7.41122e-05
-4.01592e-05
-0.000139751
9.56519e-05
-6.48601e-05
-3.07949e-05
-0.000175227
0.000162629
1.21405e-05
2.23666e-05
-4.02189e-05
1.78522e-05
3.77863e-06
-2.83999e-06
-1.07801e-06
4.73433e-05
-3.53089e-05
-1.20348e-05
0.000157387
6.30865e-05
-4.97583e-05
0.000143888
-9.41416e-05
-2.99397e-06
-8.80772e-07
3.64953e-06
-4.38045e-06
-1.43857e-05
1.82515e-05
1.46626e-05
-4.74742e-05
3.25919e-05
-0.000214662
7.46841e-05
0.000139538
-2.32569e-05
-2.78699e-05
-0.000114266
6.72921e-05
3.88378e-05
-1.50436e-05
3.74101e-05
-4.82522e-05
-0.000127331
-0.000174151
-3.426e-05
4.95231e-05
-2.83123e-05
-2.12116e-05
8.02749e-05
-2.93848e-05
-5.09021e-05
4.72121e-05
-2.74282e-05
-1.97841e-05
-2.95554e-06
-1.82335e-06
3.00241e-06
0.000149268
-0.000100865
-4.86012e-05
-1.69967e-07
5.05361e-07
-2.25929e-05
3.18491e-05
-9.25616e-06
1.23949e-07
-3.24768e-06
-7.54161e-05
0.00014105
5.49723e-05
0.000101641
-0.000156719
3.66226e-05
7.19246e-06
1.29955e-05
-3.50642e-05
-5.59374e-05
9.09723e-05
-0.000187338
0.00014191
4.51374e-05
7.41289e-05
2.15197e-05
-0.000140336
-3.33393e-05
1.88367e-05
-1.75545e-05
6.99829e-05
-0.000146893
0.000199319
-0.000150431
-0.000129244
7.13977e-06
0.000121832
-2.10299e-06
3.15074e-06
-1.07561e-06
-6.14296e-05
-7.84085e-05
-1.0068e-06
-2.25929e-07
2.54875e-05
-3.64679e-05
1.09802e-05
2.74459e-05
-9.37643e-05
4.25287e-05
8.96392e-05
-0.000132177
-6.42867e-05
-0.000114437
0.000177935
-0.000169676
0.00014478
2.44038e-05
-3.54638e-05
-0.000113051
0.000147569
-1.84404e-05
-0.000110872
0.000160202
-0.000172224
1.07646e-05
-0.000167208
0.000124919
-7.30432e-05
-5.19217e-05
3.82694e-05
-0.000184933
0.000146446
-5.52254e-05
0.000162103
-4.60038e-05
2.03194e-05
4.05789e-05
-1.50944e-05
-2.54841e-05
-0.000164613
0.000117372
4.08734e-05
1.39636e-05
-2.66638e-05
-0.000157695
0.000183758
-0.000117513
0.000194147
-7.6751e-05
-1.50681e-05
4.01909e-05
-2.58711e-05
2.73951e-05
4.11218e-05
-6.85228e-05
-0.000121993
0.000118118
9.11762e-07
0.000158046
6.88145e-06
0.000142795
2.13274e-05
2.81948e-05
-5.94065e-05
6.81881e-05
-9.27743e-06
-0.00014682
0.000110409
-0.000140894
-9.04969e-05
0.000189724
-9.9453e-05
6.06905e-05
5.74849e-05
-8.25736e-05
0.000170008
-4.03434e-05
-6.06721e-05
3.32184e-07
-3.34342e-06
1.16107e-05
-3.97035e-05
2.78131e-05
4.8448e-05
-3.02052e-05
-1.82431e-05
4.41909e-05
-2.38867e-05
-2.24936e-06
1.92156e-07
2.57847e-06
-1.23178e-06
-1.53167e-06
5.35005e-07
3.06982e-08
-7.33865e-07
5.44654e-05
7.04047e-05
-0.000187533
6.9921e-05
4.79014e-05
0.000148081
-0.000196029
0.000130448
-7.33478e-05
-5.98391e-05
8.87211e-05
1.36152e-05
-0.000110701
-0.000188449
9.77312e-05
5.57151e-07
-1.39352e-06
8.95058e-07
-4.52454e-05
-4.25878e-05
0.000191537
-1.06115e-05
-0.000165404
-5.98384e-06
6.42983e-05
5.06029e-05
-0.000115003
-1.95957e-06
2.54891e-06
7.36613e-05
-4.62726e-05
-0.00018279
0.000164356
1.81025e-05
-0.000118961
0.000110911
-5.94334e-05
-3.45033e-05
8.98952e-05
-1.2494e-05
3.79814e-05
0.000122602
1.09538e-05
0.000183508
-0.000126113
4.72639e-05
-3.4412e-05
-1.28521e-05
0.000230688
-7.36227e-05
-0.000158893
0.000138988
-0.00019555
-1.24507e-05
-3.66306e-05
4.90809e-05
5.11799e-05
7.61395e-05
0.000119127
-7.38022e-05
-4.53862e-05
7.52539e-05
-0.00015403
0.000163441
2.72364e-05
5.28475e-05
2.8881e-05
-9.37149e-05
-8.93921e-05
0.000108178
5.07993e-05
-0.000160273
3.66958e-05
8.87785e-06
-4.55747e-05
3.62164e-06
-1.30244e-05
8.91794e-06
-0.000163888
-6.15251e-06
4.14328e-06
-4.06827e-05
3.60228e-05
2.092e-05
2.75277e-05
3.13645e-05
-6.78757e-05
3.65037e-05
-4.64747e-05
-7.53235e-05
3.74141e-05
-9.66183e-05
5.91567e-05
0.000134718
-3.67559e-05
-0.000106039
9.11303e-06
3.14658e-05
0.000197369
-0.000120231
-7.8085e-05
3.55581e-06
6.71378e-07
-5.69199e-06
2.7963e-06
-0.000122249
0.000117306
-4.10502e-05
7.2406e-05
7.22462e-05
7.68077e-05
8.39924e-05
-0.000154695
7.00917e-05
9.61977e-05
5.11006e-05
0.000177514
-8.50787e-05
0.000191734
-4.0585e-05
-1.5164e-05
3.04266e-05
3.17402e-05
-3.03251e-05
5.6443e-05
-2.61187e-05
0.000201757
-7.49805e-05
-0.000127328
2.78741e-05
1.93894e-05
8.13001e-05
-3.63446e-05
-4.49609e-05
-4.48469e-05
-0.000115139
4.73555e-05
3.49414e-05
-8.02002e-05
-1.99041e-05
-0.00012608
0.000145295
-0.000195503
8.32923e-05
0.000111947
-7.32761e-05
2.64522e-05
4.68138e-05
4.00169e-05
-0.000177978
2.97691e-05
0.000147124
-0.000132625
0.000188747
-5.61439e-05
4.26091e-05
-2.5943e-05
-1.66663e-05
5.08718e-05
-1.92029e-05
-2.71259e-05
4.77369e-05
-2.0937e-05
-5.14346e-05
2.39646e-05
-4.99418e-05
9.3565e-05
-4.36391e-05
0.000161747
-7.83636e-05
-0.000116554
-7.9125e-05
-3.09171e-05
8.32426e-06
-2.69284e-05
-0.000128106
-0.000186421
5.37888e-05
0.000119041
-0.000118395
2.55195e-05
0.000100156
-1.44943e-06
2.17556e-07
-5.67568e-06
1.18217e-06
-0.000145618
4.28756e-05
9.91492e-05
2.69161e-05
1.56926e-05
1.09492e-05
-9.12743e-05
8.0189e-05
-0.000141651
-2.98666e-05
0.000168593
5.75453e-05
6.15052e-05
-1.37766e-06
-1.19335e-05
1.28332e-05
-1.13087e-05
-0.000107664
-2.2009e-05
-0.000126805
0.0001486
0.000205651
-2.01353e-05
-2.49462e-05
5.56745e-05
-0.00017159
2.71444e-05
-6.05056e-05
-0.000154311
-0.000161029
0.000104123
5.66597e-05
0.000150297
5.52889e-05
0.000212394
-8.70025e-05
-0.000129002
-5.62612e-06
1.36155e-07
-0.000206097
0.000157742
4.75069e-05
1.2317e-05
-3.88331e-05
2.65164e-05
1.08396e-05
9.11929e-05
-3.8347e-05
-0.000162332
-2.45923e-05
-4.86922e-05
-1.97044e-05
-2.9297e-05
2.47966e-05
-4.94849e-05
2.44479e-05
5.13129e-05
-2.67601e-05
0.000187923
-0.000111502
-7.73348e-05
3.37819e-05
-8.17514e-05
4.379e-05
-2.21265e-05
-1.47684e-05
2.52138e-05
6.58079e-05
0.000135356
8.70706e-05
-4.9693e-05
2.78626e-05
-6.61557e-05
3.26351e-05
7.47133e-05
-0.000107457
2.29275e-05
2.42842e-05
-2.65265e-05
4.69268e-05
-2.04006e-05
-1.1136e-05
9.39971e-06
-0.00014056
-2.92372e-05
-5.5272e-05
3.11151e-05
-4.03517e-06
-2.70799e-05
0.00015337
-9.85093e-05
-2.5098e-05
5.98476e-05
-5.20632e-05
-0.000154852
-7.14851e-05
-8.9763e-05
-6.3263e-06
-1.46896e-06
5.22119e-06
4.22216e-05
3.90719e-05
4.88062e-05
1.85785e-05
-6.99308e-05
0.000135237
-7.45943e-05
6.82452e-05
0.000118648
-5.4626e-05
-0.000130112
0.000181944
4.15224e-07
0.000120563
-7.22357e-05
1.24305e-05
-1.07289e-05
-4.20582e-05
8.0154e-05
-0.000141186
0.000185243
-4.42936e-05
-3.77591e-05
3.98452e-05
-2.08623e-06
-0.000139491
0.000209023
-7.0185e-05
-4.47002e-05
0.000136177
-0.0001928
5.60007e-05
-0.000116641
9.81445e-05
-5.33207e-05
0.000172678
-0.000119787
4.57969e-05
-9.57561e-05
5.77059e-05
0.0001253
4.3397e-05
-2.89495e-05
6.34937e-06
-3.90774e-06
4.26926e-05
7.48789e-05
4.1155e-06
-9.71146e-07
4.4781e-05
4.31221e-05
-8.79171e-05
0.000122816
-4.09492e-05
-8.18527e-05
-4.65129e-05
-4.75171e-05
9.40144e-05
0.000190212
-5.46174e-05
-2.86462e-05
-8.98489e-05
0.000133347
0.000194012
2.08441e-05
-8.29383e-05
4.78512e-05
8.20411e-05
0.000126582
6.31484e-07
-0.000117578
2.4421e-07
1.02799e-06
-1.72643e-06
-4.67462e-05
0.000107745
-6.10173e-05
-0.000130858
1.97871e-05
0.000110836
-0.000126122
6.96021e-05
5.64568e-05
-2.2351e-05
3.64559e-05
-1.4105e-05
7.31956e-05
-0.000146615
-1.01705e-05
3.49802e-05
-2.50559e-05
-2.62536e-05
-0.000104698
4.19946e-05
1.40347e-05
-7.94499e-07
-1.0094e-07
7.40116e-05
6.22925e-05
-0.000136487
-0.000101431
3.47105e-06
-6.32576e-05
4.35247e-05
1.13466e-05
-5.75058e-05
-6.41304e-05
0.000181006
-0.000118335
4.42054e-05
8.95731e-05
-8.77182e-06
0.000210623
-8.73477e-05
-0.000123785
4.56405e-05
6.34023e-05
-0.000109038
2.26924e-06
-7.07098e-06
1.636e-05
-0.000140586
1.7024e-05
1.98207e-05
-3.68447e-05
-0.000192858
3.23996e-05
1.59457e-06
8.92871e-07
-6.0327e-05
-7.41067e-05
-4.15764e-05
7.13529e-05
-0.000148573
-7.94126e-05
5.38446e-05
2.2576e-05
0.000189096
-0.000158434
-3.09502e-05
-0.000189588
0.000146209
4.23901e-05
2.37074e-06
-7.06639e-05
0.00014241
5.98792e-05
-2.31849e-05
-0.000107184
-9.07595e-05
6.10324e-05
5.35463e-05
-0.000114674
-4.80634e-05
1.93401e-05
-0.000188637
1.27606e-05
0.000175212
-1.10634e-05
3.97345e-05
-2.88823e-05
-3.02222e-06
-1.97013e-06
4.16955e-05
-0.000170554
0.000126252
2.36904e-06
-9.09761e-06
2.1382e-06
-0.000198448
6.10498e-05
0.000137211
-0.000164173
0.000188859
-2.61866e-05
-0.000143743
-5.52517e-05
0.000166794
-5.17987e-05
-9.0725e-06
2.79251e-07
6.04159e-05
-3.39888e-05
-2.6427e-05
-3.31192e-05
1.07681e-05
0.00017458
-0.000131186
-4.77625e-05
8.49125e-06
-0.000197899
0.000103645
-0.000157368
0.000124945
-0.000118051
1.97616e-05
-4.80388e-05
-0.000101837
0.000116528
7.95537e-05
-6.87364e-05
-0.000209966
0.000119476
-4.80933e-05
9.65907e-05
-4.85282e-05
0.000130803
-0.000189771
5.65573e-05
-1.30661e-05
3.2483e-05
-1.9417e-05
-5.11241e-06
1.75116e-06
2.89707e-06
2.99251e-05
4.91558e-07
-8.09904e-05
-6.63608e-05
0.000147247
-1.0657e-05
7.77676e-06
-0.000188466
0.000196179
-1.63002e-05
5.17198e-05
-3.54202e-05
4.543e-05
-0.000120943
4.77306e-05
1.61153e-05
-6.38655e-05
8.27369e-06
-2.802e-05
-0.000118592
-6.3923e-05
0.000182443
-1.15463e-05
2.21681e-05
-6.8638e-05
2.1602e-05
4.29392e-05
-3.3016e-05
9.66403e-05
-6.77911e-05
-4.73354e-05
-0.000135605
0.000180019
1.47882e-05
1.63269e-05
-4.91201e-05
-4.51711e-05
9.42597e-05
3.30135e-05
-7.07036e-05
3.76818e-05
2.64635e-05
3.00084e-05
-5.64754e-05
0.000186393
-2.14545e-06
-3.43962e-07
-5.11775e-05
6.82684e-05
-1.70954e-05
4.01543e-05
8.25837e-05
-0.000156384
9.47065e-05
-0.000130894
5.7945e-05
3.7767e-05
8.68379e-05
0.000128909
6.05911e-05
1.89038e-05
2.84388e-05
-2.65225e-05
2.41258e-05
-9.43267e-06
2.28686e-05
-3.59347e-05
4.87845e-05
-3.66535e-05
-2.48767e-05
-0.000147028
-0.000150008
-3.90643e-05
4.87087e-05
0.00013539
2.6388e-05
-3.68122e-05
-0.00016341
0.000201435
-0.00010021
-3.86903e-05
-4.70606e-05
9.8211e-05
-5.11662e-05
3.57596e-05
-0.000193591
5.59293e-05
-0.000103004
-3.97089e-05
5.93377e-05
-1.963e-05
-2.19873e-06
-3.40436e-06
3.77234e-05
4.53192e-05
-3.44998e-05
1.40633e-05
2.04365e-05
5.45873e-05
-0.000169748
-0.000129233
0.000144991
-2.18124e-05
0.000104495
4.19415e-05
-0.000131406
0.000157371
-2.89695e-05
9.09298e-05
-4.62309e-05
-0.000141182
0.000187323
-4.64276e-05
0.000164259
-6.05503e-05
-6.34487e-05
0.000109091
2.51207e-05
6.2907e-06
-3.59568e-05
3.87976e-05
-2.17736e-05
-3.91579e-05
1.8928e-05
2.02299e-05
5.23477e-05
0.000137171
-0.000189972
0.000131218
-9.11157e-05
-5.80803e-05
-8.36831e-07
-5.71465e-07
1.35992e-06
-7.15283e-05
-2.91204e-06
4.1674e-06
-1.2604e-06
1.29213e-05
-6.41024e-05
3.06112e-05
-0.000153161
5.15763e-05
2.62227e-05
-7.78107e-05
5.56016e-05
-1.50697e-06
-5.40985e-05
8.49197e-06
-6.70219e-06
0.000145679
4.50478e-05
-0.000191253
-0.000189673
5.6392e-05
0.00013323
3.10077e-05
6.2535e-05
-3.51314e-05
-4.54924e-05
8.06084e-05
2.8374e-05
-1.35858e-05
5.19059e-05
-2.78547e-05
-2.40522e-05
-0.000122602
-0.000185589
0.000128178
7.25794e-05
7.06448e-05
-0.00014323
-3.89775e-05
-3.703e-05
7.08768e-05
-3.38535e-05
9.86191e-05
-6.60719e-05
6.55443e-05
-0.00019222
-1.70359e-06
-0.000128868
0.000142356
-1.8816e-05
5.14486e-05
1.64316e-06
6.48724e-06
-0.000118836
0.000172681
4.44297e-06
-3.49047e-06
-7.37078e-05
5.06646e-05
1.73379e-05
2.82398e-06
-4.25338e-05
-4.30172e-05
0.000109162
8.03352e-05
6.7019e-06
-5.39099e-06
4.88909e-05
4.23009e-05
-8.4645e-05
0.000129941
3.55067e-05
-9.0676e-05
5.11992e-05
9.3069e-06
2.08646e-06
-1.34705e-05
-3.80215e-05
2.22343e-05
1.62755e-05
-2.84118e-05
4.0729e-05
-8.53997e-05
0.000127915
-0.000135207
-5.66692e-05
2.00155e-05
6.51985e-05
-0.000183851
-0.000130218
6.32321e-05
6.68592e-05
-2.14091e-05
-1.30907e-05
-1.56053e-05
-2.46136e-05
-0.00014154
-3.7339e-05
-0.000121091
5.84749e-05
-1.09547e-06
2.30996e-07
-3.39058e-05
-8.89046e-05
0.00015839
-6.96818e-05
-5.9584e-05
2.94934e-05
3.00888e-05
0.000127886
6.07817e-05
8.27119e-05
-3.1148e-05
5.3277e-05
-0.000126577
7.30751e-05
0.000101718
-4.01738e-05
-6.46743e-05
-6.43182e-05
-9.78643e-05
0.000161916
0.000139463
-4.7295e-05
-9.34158e-05
6.22572e-05
-1.45375e-05
4.71283e-05
4.07523e-05
-8.79055e-05
0.000119648
4.13959e-05
0.000128632
-0.000204162
5.44338e-05
-1.36538e-05
-0.000142786
2.68485e-05
0.000115732
3.10453e-05
-7.75708e-05
6.23998e-05
0.00014292
0.000191602
-0.000113049
-0.000138316
0.000116115
0.000201779
-6.16105e-05
-0.000142
5.04994e-05
-4.86024e-05
9.33679e-05
6.94417e-05
1.08233e-05
-5.53047e-05
0.000164408
-0.00010937
-6.59289e-05
2.88927e-05
3.76558e-05
6.09455e-05
0.000188273
-7.65936e-05
-0.000111875
8.35074e-05
-4.74498e-05
-9.2196e-06
0.000212321
-5.68439e-05
-2.06991e-06
8.20082e-06
-9.57387e-06
4.67922e-05
-1.95573e-05
0.0001626
5.70683e-06
-0.000169215
-3.55623e-05
1.58577e-05
2.94309e-05
1.11096e-05
-4.05408e-05
5.0022e-05
-2.8094e-05
-2.19281e-05
-0.00014237
8.20171e-05
6.25284e-05
-1.61729e-05
1.92227e-05
-2.01695e-06
-2.6651e-07
-8.04538e-05
3.00867e-06
7.20911e-05
3.71319e-06
-2.38779e-06
-6.55577e-05
-1.37342e-05
-1.48113e-07
8.96228e-07
-7.6966e-07
-0.000204198
6.41169e-05
0.00013527
5.35011e-05
1.27378e-06
5.12277e-06
-5.85673e-05
9.3916e-05
-3.53575e-05
-0.000136314
-7.7905e-05
1.93311e-05
0.000129721
-3.83089e-05
-9.4639e-05
2.1964e-06
-9.19356e-07
-1.57002e-06
-2.379e-06
4.08409e-06
-2.67215e-06
0.000104028
-6.91037e-05
7.33604e-05
-4.05264e-05
-3.2837e-05
9.71514e-05
-7.95754e-06
-8.92277e-05
-0.000136105
-2.10972e-06
3.24279e-08
4.95833e-06
-8.64271e-06
-2.63881e-05
1.75524e-05
4.15008e-06
0.000151902
-3.52547e-05
-0.000118671
5.11152e-05
1.4418e-05
-6.55361e-05
-5.22926e-05
-4.36643e-05
9.59579e-05
0.000133363
6.64421e-05
5.77697e-06
-4.81863e-06
-0.000181397
0.000131225
-2.10276e-05
0.000169889
-6.55834e-05
-4.93785e-05
0.000114937
1.48751e-05
-3.27007e-05
1.78257e-05
-0.000147138
3.89096e-05
1.64633e-05
-5.53741e-05
0.000122416
-0.000186415
6.52969e-05
0.000122647
-3.99727e-05
7.29766e-05
3.16186e-06
-5.68987e-05
-8.76205e-05
9.31014e-05
0.000194854
-0.00013442
0.00013836
-2.75443e-06
9.98674e-05
5.06721e-05
4.36535e-05
0.000129573
0.000197227
-1.1843e-06
9.69565e-07
0.0001166
-0.000106612
2.21927e-05
1.42631e-05
0.000111457
-3.30111e-05
-8.03039e-05
3.01384e-05
-0.000171798
0.000140703
-0.0001298
0.000195005
-2.27649e-05
-4.98483e-05
6.404e-05
-0.000205395
1.66577e-05
-3.85865e-05
7.7489e-05
-3.8901e-05
9.38415e-05
-4.67399e-05
-3.33041e-05
7.44191e-05
-4.90374e-05
-6.62072e-07
3.35509e-06
3.73039e-05
8.90329e-05
3.21508e-05
2.82654e-05
2.49872e-06
5.30992e-05
-4.6207e-05
-0.000141399
3.93096e-05
-9.87894e-06
8.35356e-05
-2.79349e-05
-5.80007e-05
-2.31033e-05
5.37109e-06
6.1842e-06
3.64766e-06
-0.000120612
0.000185765
3.32936e-05
-5.61152e-05
2.282e-05
3.56479e-05
-0.000173488
0.000137309
-6.03159e-05
0.000189657
-0.000130918
-3.95656e-05
2.82854e-05
0.00017394
-0.000129282
-4.5113e-05
2.05051e-06
-5.24136e-06
-1.85227e-05
4.223e-05
-2.37073e-05
-0.000181835
-3.21322e-06
-2.05908e-05
-1.57337e-05
3.63244e-05
-7.49079e-06
0.000201933
-7.0662e-05
3.32084e-05
-1.7226e-05
-1.59824e-05
2.92313e-05
7.08588e-07
-2.99399e-05
6.44776e-05
4.0319e-06
8.87896e-05
4.93313e-05
2.33433e-05
2.18538e-05
-4.51979e-05
-0.000183349
1.1638e-05
3.15681e-05
-0.000114619
5.67496e-05
5.78384e-05
-5.57914e-05
-7.03902e-05
-0.00017995
5.66814e-05
0.000122776
2.6765e-05
-3.39149e-05
0.000120419
-8.72394e-05
-3.22734e-05
-8.96019e-05
0.000120815
5.86773e-05
-2.77954e-05
-1.28811e-05
7.35553e-06
-3.92507e-06
-3.672e-05
-0.000153793
9.02086e-05
-5.54318e-05
-3.89574e-05
2.04348e-05
-7.34827e-05
0.000156337
-8.30282e-05
5.44267e-05
-7.08088e-05
0.000179402
-2.80921e-05
-1.18654e-05
6.4525e-05
-1.14801e-05
1.03901e-05
-2.5154e-05
8.47401e-06
-0.000146398
2.11032e-06
1.20806e-06
-0.000168352
0.000111797
5.30123e-05
-8.10715e-06
3.29165e-05
-3.25187e-05
-3.5369e-05
-1.26183e-06
-4.45414e-05
-7.01059e-06
8.57152e-06
-2.00644e-06
-0.000190052
4.85484e-05
0.000141194
-5.56664e-05
-0.000132539
1.72017e-05
1.60067e-05
-1.09243e-06
1.11784e-06
-6.28586e-07
4.88101e-05
9.76279e-05
-0.000147774
7.32849e-05
-6.53639e-05
-7.93725e-06
-0.000114113
4.8507e-05
-9.14202e-05
1.37659e-05
7.74918e-05
2.84824e-05
-2.41591e-05
-8.90816e-06
0.000215273
-2.58584e-05
6.76332e-05
-2.87251e-05
-0.000164538
2.41919e-05
-5.13267e-05
2.71342e-05
4.64991e-07
0.000116018
-2.76857e-05
-5.45209e-05
-3.93517e-05
-6.69225e-05
0.000105676
2.58247e-05
-1.50904e-05
0.000156339
5.84836e-05
0.000164487
-4.00651e-05
-0.00012487
-5.79128e-06
4.44869e-06
0.000104848
-5.72049e-05
0.000119247
-6.20911e-05
-0.000143989
8.22883e-06
0.000135616
0.000149302
1.45442e-05
6.3999e-05
-0.000103952
7.71047e-06
-4.46238e-05
-9.33624e-05
0.000140871
-7.14014e-05
7.42045e-05
-4.34888e-05
-7.9807e-05
0.000123196
9.46129e-05
-4.72176e-05
-5.97174e-05
0.000139465
6.00174e-05
4.64901e-05
-6.3913e-05
2.90578e-06
6.09948e-05
4.48585e-05
0.000187796
-0.00015273
1.62823e-05
-7.5761e-05
5.94759e-05
6.01245e-05
-3.36649e-05
0.000153483
-0.00021214
-3.12657e-05
4.7922e-05
-1.66565e-05
5.50321e-05
0.000133048
-3.10994e-05
-3.54956e-05
6.65926e-05
-8.05833e-05
4.19991e-05
5.05696e-05
-3.12595e-05
-1.93108e-05
1.58641e-05
-7.55971e-05
5.94934e-05
-8.58761e-05
0.000149144
-6.34288e-05
5.95021e-05
-0.000131103
0.000196327
4.35269e-05
-2.13162e-05
1.91102e-05
-4.99096e-05
0.000151338
-0.000103667
-3.03312e-06
-3.50433e-06
4.20014e-06
-0.000102013
4.60438e-05
-3.44452e-06
7.95161e-09
3.4022e-06
8.43412e-06
2.32785e-06
-1.12021e-05
1.69897e-05
1.55412e-05
-3.25308e-05
5.88083e-05
2.23269e-05
-0.000153792
-3.0406e-05
0.000180898
-1.91367e-05
-2.40141e-05
3.76091e-05
-1.35949e-05
-4.80787e-05
-1.18907e-06
-1.64218e-05
-6.83546e-05
-8.83514e-05
0.000105201
6.33343e-06
2.28979e-05
-9.79474e-07
5.20921e-05
3.81116e-05
3.27572e-05
-0.000185961
0.000141692
4.3057e-05
2.63234e-05
3.01186e-05
8.70085e-05
-5.602e-05
3.38906e-05
3.94666e-05
9.9196e-05
-5.69168e-05
-5.57235e-05
0.000113197
-0.000150422
0.000187623
-5.9327e-05
-0.000158519
2.49112e-05
-9.38339e-05
4.03079e-05
5.349e-05
1.53751e-05
-1.94102e-05
0.000111086
-0.000163919
0.000130192
-2.03662e-05
4.0801e-05
-6.3405e-05
3.23038e-05
-1.97479e-05
-1.941e-05
-0.000137237
0.00017221
-3.8489e-05
6.09975e-05
-0.00012763
6.65052e-05
-5.10844e-05
8.26433e-05
-0.000153417
-0.000135639
0.000164845
1.03445e-05
6.15738e-05
-7.1922e-05
-7.18392e-06
-8.801e-06
-2.79541e-05
3.78387e-05
-9.8846e-06
-1.59352e-06
9.59354e-06
-6.0495e-06
7.93163e-05
0.000107982
1.96074e-05
-0.000131216
7.49509e-05
-0.000111009
3.60326e-05
-3.16905e-05
-6.79702e-05
0.000128833
-3.03979e-05
0.000121398
-4.17675e-05
-7.96907e-05
-0.000140313
-1.8372e-05
-8.25701e-06
-4.98584e-06
-8.90078e-05
-0.000139684
6.15292e-05
-0.000178368
0.000116632
-5.42166e-05
0.000184669
-0.000131222
-2.87451e-05
4.731e-06
3.10744e-05
8.34882e-06
1.24736e-05
6.69544e-05
-7.85764e-05
0.000199323
-0.000122636
-3.43982e-06
-3.18694e-05
-2.45733e-05
3.59062e-05
-1.87044e-05
-6.05011e-05
7.61314e-05
0.000205991
-9.58761e-05
-0.000182712
6.61365e-05
0.00011414
-3.60154e-05
1.54244e-05
-2.84861e-05
6.94098e-06
0.000173653
3.74388e-06
-3.68743e-05
1.76767e-05
1.91974e-05
-9.43056e-05
-4.29338e-05
0.0001338
0.000184795
-0.00011946
-6.59634e-05
-4.69819e-05
5.05916e-05
-0.000135423
3.70129e-05
-8.32644e-05
4.62507e-05
0.000133391
5.89753e-05
-0.000194591
-1.33604e-05
-3.99256e-06
0.000150808
-8.1183e-05
-6.96094e-05
-3.77896e-05
2.27459e-05
3.84394e-05
-8.39464e-05
4.13427e-05
0.000122679
4.10155e-05
-0.000176046
0.000133762
7.83236e-05
-6.59661e-05
-1.92544e-05
-2.23985e-05
4.16528e-05
-7.90613e-05
1.51333e-05
1.46527e-06
-8.9505e-06
-0.000128631
4.26112e-05
-2.36595e-05
-5.01317e-05
6.95653e-05
-7.18185e-06
-1.45252e-05
-5.52537e-05
3.47417e-06
4.69037e-06
-1.97856e-06
4.72982e-05
5.34191e-05
-0.000100733
-0.000116889
0.000117206
1.77089e-05
-0.000174523
-0.000141232
-6.58314e-05
0.000154893
-9.66694e-06
-2.70361e-05
3.67031e-05
3.15809e-05
-4.78816e-05
0.000153703
-7.98979e-05
6.34285e-05
-4.71486e-05
0.000128788
-2.44732e-05
-8.07706e-05
0.000142875
0.000158122
-9.43034e-05
4.9764e-05
-7.76985e-05
-0.000212641
5.89742e-05
0.000151303
-0.000162379
0.000176918
-1.42693e-05
3.49615e-05
-2.06922e-05
-0.000155308
2.03355e-05
-0.000100372
9.75791e-05
3.47771e-05
-0.000175413
0.000132143
-4.30831e-06
-2.8884e-05
6.93889e-06
2.19451e-05
-2.20984e-05
8.75068e-06
0.000140891
-6.83195e-05
-0.000108508
-3.55999e-05
-4.93924e-05
2.49003e-06
4.68994e-05
4.00103e-05
-0.000113646
6.2328e-05
-0.000134184
7.17048e-05
-2.76597e-05
-0.000113522
0.000140147
-4.19185e-05
0.000183547
-7.72804e-05
-0.000194485
4.34364e-05
0.000150946
1.61883e-05
1.73563e-05
-3.35445e-05
-0.000107106
-2.00292e-05
0.000127034
8.11603e-06
4.89662e-05
0.000161657
5.30881e-05
6.82335e-05
5.74046e-05
-3.87484e-05
1.64574e-05
8.17254e-06
-7.04603e-05
8.22085e-05
-1.17454e-05
-8.78777e-05
0.000121823
-0.000135841
6.63613e-05
-3.84978e-05
-4.72006e-05
1.51259e-05
3.14245e-05
-1.7021e-05
-6.18216e-05
-3.56017e-05
-9.634e-05
-4.76414e-05
-8.93274e-05
1.73417e-05
-0.000113668
-3.85144e-06
1.8052e-06
1.97444e-06
5.43319e-05
0.000138896
3.35863e-05
2.50887e-05
8.96244e-05
-0.000135897
-5.82699e-05
5.72876e-05
2.07736e-05
-4.00279e-05
7.79999e-05
-0.000151299
7.31779e-05
3.93696e-05
3.81211e-05
5.48418e-05
1.11079e-05
-6.76218e-06
-4.43352e-05
3.17865e-06
3.01344e-05
-0.000164485
4.55489e-05
-5.70482e-05
-3.31791e-05
9.02103e-05
-0.000177105
0.000119293
5.66377e-05
-8.83189e-05
-1.93601e-05
0.000105438
-0.000185061
0.000123237
3.27388e-06
-1.27808e-06
1.90241e-05
4.65563e-05
-9.88458e-05
-0.000124703
2.71353e-05
-5.22343e-05
6.5205e-05
-2.55143e-05
-3.96934e-05
-1.83315e-05
-0.000114502
0.000166621
-0.000121445
-4.53836e-05
0.000121863
-6.87727e-05
0.000129122
-8.54647e-05
2.36427e-05
6.18116e-05
-0.000143929
-4.67417e-05
0.000190184
5.38838e-05
7.39574e-05
-0.000127992
4.15954e-05
-6.04717e-05
3.71939e-05
1.48218e-05
-7.8692e-05
0.000129113
1.70743e-05
-4.09639e-05
2.38896e-05
-3.63663e-05
3.98203e-05
-6.36143e-06
6.27562e-05
-4.45428e-05
0.000106061
5.00364e-05
0.000129472
4.4007e-05
-1.42256e-06
-2.50575e-06
-5.32789e-05
-2.92888e-05
8.0191e-05
7.6598e-06
-7.7147e-05
6.94773e-05
-0.000127555
0.000182386
-5.04503e-05
3.23737e-05
7.71337e-05
-0.000117489
0.000156896
-4.40745e-05
0.00013884
5.45524e-05
0.000107974
-0.000188297
5.83452e-05
1.1544e-05
6.66193e-05
0.000116563
-0.000174036
5.74229e-05
-6.93753e-05
3.29189e-05
3.64511e-05
-9.02092e-05
-2.42617e-05
0.000114445
3.1754e-06
-8.30705e-06
-0.000181487
3.90209e-05
0.000139356
-7.1842e-05
0.000165241
-9.36011e-05
0.000197493
-0.000185422
-6.53813e-05
0.000150437
-8.54379e-05
-3.9692e-05
-8.45379e-06
-9.87337e-05
-5.64424e-05
-0.000121779
-0.000134202
0.000173935
-0.000107871
5.13829e-05
5.6493e-05
-0.000105154
1.47974e-05
1.91698e-05
2.06753e-05
2.1438e-05
2.95741e-05
-5.10144e-05
0.000178055
-4.35257e-06
3.70874e-05
2.46681e-05
-6.17613e-05
-1.71542e-05
-1.6115e-05
5.75992e-06
-2.89517e-05
2.25435e-05
0.000207416
-0.000138735
-7.06097e-05