/*--------------------------------*- C++ -*----------------------------------*\
| =========                 |                                                 |
| \\      /  F ield         | OpenFOAM: The Open Source CFD Toolbox           |
|  \\    /   O peration     | Version:  v2012                                 |
|   \\  /    A nd           | Website:  www.openfoam.com                      |
|    \\/     M anipulation  |                                                 |
\*---------------------------------------------------------------------------*/
FoamFile
{
    version     2.0;
    format      ascii;
    class       volScalarField;
    location    "350";
    object      k_0;
}
// * * * * * * * * * * * * * * * * * * * * * * * * * * * * * * * * * * * * * //

dimensions      [0 2 -2 0 0 0 0];


internalField   nonuniform List<scalar> 
13851
(
0.000154258
0.0243242
0.000190373
0.000153381
0.000190813
3.19595e-05
0.000146662
0.000178103
0.000139375
0.000190545
0.00375303
0.0277169
0.00886965
0.0192697
0.000144017
0.000168974
0.000157397
0.000162686
0.000371924
0.000139231
0.000152862
0.000190074
0.000147046
0.000154026
0.000148772
0.000178628
0.000155734
0.00185448
0.000153776
0.000156202
0.00146193
0.000158041
0.000189195
0.00491394
0.000154061
0.000207803
0.000130534
0.000217496
0.000192863
0.00475604
0.000144709
0.000132925
0.00731737
0.00338573
0.00349507
0.0113494
0.00343844
0.0037072
0.000156204
0.00172113
0.000188348
0.000200576
0.0109872
0.000145859
0.000153409
0.000133042
0.000146443
0.0139363
0.000155659
0.00014735
0.000229028
0.025253
0.000196026
0.000194166
0.000291773
0.000158522
0.000650697
0.00337743
0.000168472
0.00016221
0.0156867
0.00810036
0.0218828
0.000146712
0.000141246
0.000141922
0.000189062
0.0168863
0.000178666
0.0181622
0.000149093
0.00394643
0.000143916
0.0118755
0.000203332
0.0270836
0.000156826
0.00441531
0.000158149
0.000142424
0.000207843
0.000182484
0.00323624
0.000161632
0.000157767
0.000153309
0.000191415
0.0277359
0.00298956
0.000153428
0.0198438
0.000180195
0.000150302
0.000154859
0.000142685
0.000233498
0.000182503
0.00013173
0.021415
8.54927e-05
0.000155137
0.00014277
0.000174489
0.000157045
0.000154939
0.0117528
0.0281523
0.000131862
0.000156839
0.000156705
0.00724622
0.000154651
0.011304
0.0052819
0.00292681
0.00014542
0.00205714
0.000179502
0.000152238
0.000202385
0.000144474
0.00013896
0.0189289
0.000143879
0.0122334
0.000140684
0.000131957
0.00692691
0.0319053
0.0278156
0.0203886
0.000153252
0.000149789
0.000137143
0.000153902
0.00320156
0.000173452
0.000202456
0.000146466
0.00356598
0.000188729
0.000153552
0.018823
0.000147194
0.000152809
0.000153708
0.000142094
0.000153592
0.000200587
0.000188012
0.000134216
0.000161341
0.0133982
0.000138847
0.000162987
0.000135085
0.000184949
0.0001689
0.000151814
0.0189346
0.0146945
0.000136632
0.000142262
0.0275721
0.000138737
0.0051421
0.000178697
0.000150033
0.000410061
0.000132115
0.000159404
0.0100085
0.000143769
0.000191601
0.000133015
0.000149461
0.000158686
0.000148348
0.000193819
0.000195969
0.00336094
0.0122779
0.000143805
0.000168709
0.0257708
0.000152381
0.000148793
0.00283414
0.000149189
0.000142125
0.000145647
0.0138076
0.000163429
0.000143217
0.000188307
0.0001439
0.0423329
0.000157636
0.0294329
0.000132791
0.0363633
0.000149932
0.00250775
0.000131555
0.000136322
0.00257332
0.00019848
0.0117631
0.000143376
0.0305886
0.000157958
0.000149314
0.0308577
0.000200542
0.0405433
0.000149872
0.000164196
0.000144026
0.0159597
0.000131652
0.000177722
0.00256969
0.000136537
0.000143467
0.000185824
0.000181834
0.0439625
0.000301263
0.000137005
0.000143333
0.00115323
0.00632801
0.000137696
0.000189815
0.000140531
0.0387984
0.000180749
0.00346832
0.00015398
0.000159301
0.000177015
0.00626226
0.000149378
0.000154162
0.000180496
0.000796393
0.00019453
0.00853994
0.00541549
0.000144214
0.000136466
0.000160406
0.0140355
0.000140131
0.00310551
0.000152357
0.000149219
0.000160921
0.0291728
0.000315387
0.000178145
0.000152824
0.00659042
0.000177212
0.000168237
0.000139069
0.00365677
0.000358816
0.0432629
0.00369071
0.000137661
0.000132286
0.000142121
0.000179483
0.012909
0.00716082
0.000140597
0.00014405
0.00861488
0.00389296
0.000206173
0.000154956
0.000147479
0.0001708
0.00403047
0.00318243
0.000161967
0.0255416
0.000139284
0.0390049
0.000160783
0.000157197
0.0422465
0.000147568
0.000262006
0.0347926
0.000140341
0.000175778
0.000161821
0.000154384
0.0353935
0.000162285
0.000149079
0.0304678
0.000133514
0.000159738
0.000148555
0.0419883
0.000198926
0.000143392
0.000180779
0.000143622
0.0119285
0.000197742
0.000147446
0.000144571
0.000198407
0.000163331
0.000152521
0.000144058
0.000147412
0.00014888
0.00366963
0.0180997
0.0209707
0.000164668
0.0409365
0.0204615
0.000143647
0.000169374
0.000206788
0.000198259
0.00019845
0.000197857
0.000164869
0.000157387
0.00608404
0.0365937
0.00014426
0.000693534
0.000828934
0.00112921
0.000152493
0.000213274
0.0162462
0.000142576
0.00489365
0.000144515
0.000143685
0.00013923
0.000131778
0.000141356
0.0366657
0.00303246
0.000144578
0.000174643
0.000134286
0.0251626
0.000174977
0.00580018
0.0203996
0.000144786
0.000205918
0.000162033
0.00557993
0.000143679
0.000131987
0.00017001
0.0184092
0.000144638
0.0371153
0.000195561
0.000198896
0.0146749
0.00333585
0.00321398
0.000168095
0.000139412
0.000150117
0.000162937
0.000180457
0.0182418
0.000168837
0.0400832
0.0353908
0.000134425
0.000144313
0.0196251
0.0204838
0.00174095
0.0286971
0.000175176
0.0001629
0.000152965
0.0161797
0.000137858
0.000168273
0.000163603
0.000145974
0.000143144
0.00014008
0.000134951
0.000193401
0.000190112
0.0159298
0.00016231
0.000182075
0.000178011
0.00616432
0.00016097
0.00265743
0.000156658
0.00213239
0.000131854
0.000139853
0.000151293
5.58664e-05
0.00467585
0.000200113
0.000174951
0.012439
0.00493485
0.000133411
0.00015951
0.000186248
0.000143441
0.00614
0.00014295
0.015906
0.00527696
0.000186884
0.0265758
0.000150247
0.000317317
0.00510296
0.0175996
0.000131842
0.000164639
0.000179316
0.000362604
0.000137317
0.00014895
0.000187409
0.000198904
0.000168228
0.0266441
0.00014995
0.000145071
0.0116838
0.000164221
0.000132027
0.00806799
0.000139338
0.000154272
0.000138036
0.000178023
0.00015243
0.000132458
0.000149571
0.0292856
0.000144054
0.000170823
0.00013992
0.000170013
0.000793712
0.000157834
0.000144509
0.000157335
0.000157295
0.00898477
0.000149093
0.000123187
0.000143718
0.00015112
0.0223311
0.025069
0.000144167
0.000172643
0.000161122
0.00632745
0.0120317
0.000145136
0.00295631
0.00014394
0.000191058
0.000146566
0.0167735
0.000133255
0.0107268
0.000196337
0.000133063
0.000171954
0.0237233
0.000178439
0.00385917
0.00015644
0.00673895
0.000156674
0.000138352
0.000139203
0.000145892
0.0249529
0.000186096
0.000199855
9.88052e-05
0.000191857
0.000134718
0.0180794
0.00464784
0.000159595
0.000161671
0.00639791
0.00543063
0.0342405
0.000152353
0.0170759
0.0116419
0.0130764
0.00016344
0.000176006
0.00221552
0.000361935
0.000583575
0.00269822
0.0273748
0.000154073
0.0289487
0.0118811
0.00013208
0.000298067
0.000186603
0.02042
0.000154432
0.000142763
0.000141822
0.000143757
0.000193331
0.000177393
0.00245897
0.0250363
0.00013969
0.0105531
0.0251999
0.00414577
0.00469738
0.000170305
0.000131509
0.000139611
0.000410325
0.0208824
0.000153051
0.000192759
0.000207984
0.000132912
0.000192687
0.00360893
8.05104e-05
0.000197929
0.0262594
0.0120869
0.00014419
0.000146107
0.0182811
0.0350283
0.000199832
0.000168618
0.000214863
0.00013202
0.000141978
0.0178636
0.000132581
0.00015424
0.000131979
0.000139405
0.0134425
0.000193234
0.000170878
0.000132482
0.0400041
0.00280667
0.000139467
0.000144035
0.000140339
0.000149305
0.0184859
0.00301449
0.00265524
0.0152282
0.00693643
0.000166962
0.0165375
0.026755
0.000158668
0.000168968
0.000131483
0.000148073
0.000170063
0.0262307
0.00682917
0.000192332
0.000163392
0.000138804
0.000168906
0.000148688
0.00416432
0.000188501
0.000143592
0.000166003
0.000137295
0.000160516
0.000200905
0.000146987
0.0001432
0.000174868
0.000147028
0.000191285
6.81558e-05
0.000199501
0.000169613
0.000200652
0.000138635
0.000481524
0.000184135
0.0167108
0.000149643
0.000153796
0.0180846
0.000154473
0.0134205
0.0370158
0.0138663
0.00841508
0.000137791
0.0108419
0.000138467
0.000139375
0.000133245
0.000139465
0.000146779
0.000162937
0.000175995
0.000132211
0.0246551
0.00019784
0.0262332
0.000141191
0.000134553
0.000143572
0.000204585
0.0266542
0.000180899
0.000160919
0.000138809
0.000152177
0.000147138
0.000142766
9.92411e-05
0.0320003
0.000146739
0.000132085
0.000146026
0.000142657
0.0038532
0.0124387
0.000169343
0.0260943
0.00627148
0.000142988
0.000199563
0.0178162
0.0001703
0.0282599
0.000149045
0.000160816
0.000180468
0.000160794
0.00250014
0.00014403
0.00250953
0.000143482
0.000164545
0.0293658
0.000142739
0.000152831
0.00020409
0.000138455
0.000158558
0.0135806
0.0237416
0.000187946
0.00230493
0.00373169
0.000131712
0.000140956
0.0237809
0.000205101
0.000185225
0.0370907
0.000138884
0.00016521
0.000132184
0.00646396
0.000960016
0.000159392
0.000148602
0.000954794
0.000156132
0.000143249
0.0100357
0.00150592
0.0289172
0.000133344
0.000146581
0.0169323
0.00680114
0.0002042
0.000147914
0.024325
0.000143984
0.0015823
0.00020516
0.000188368
0.000157884
0.0124611
0.000173867
0.000150362
0.00015973
0.000152953
0.000163055
0.000152903
0.00013846
0.0109666
0.0001673
0.000198048
0.00016923
0.000482255
0.000139017
0.0138642
0.000156252
0.000174989
0.000135214
0.000142592
0.000144722
0.0345003
0.00014158
0.000132313
0.00103317
0.000146362
0.0208448
0.000145113
0.000149069
0.000187419
0.00769015
0.00375488
0.000141224
0.00141856
0.0263784
0.000149249
0.0332818
0.000164202
0.000138174
0.000184962
0.00828901
0.00169152
0.000159737
0.000140731
0.000131848
0.0050991
0.000190418
0.000189736
0.000161225
0.000182863
0.000150113
0.000148479
0.000192564
0.00400764
0.000193387
0.0095548
0.000146329
0.000191447
0.000191388
0.0411218
0.000159112
0.0307915
9.79216e-05
0.0001465
0.0116033
0.000362302
0.0253606
0.0219187
0.0312896
0.00449755
0.000174934
0.000138317
0.000162079
0.015147
0.0121513
0.00014409
0.000151232
0.000186563
0.00363856
0.000133098
0.00991771
0.000138621
0.000144576
0.0117392
0.0167739
0.00378678
0.000139324
0.000143801
0.00820546
0.000147148
0.000198389
0.000152595
0.0232596
0.000158426
0.0264397
0.000182135
0.000174073
0.000149105
0.000146397
0.0201012
0.000179137
0.019391
0.000187768
0.000168385
0.0109921
0.0253479
0.0225836
0.000144706
0.000165311
0.00013937
0.00017011
0.000152599
0.0282926
0.000165567
0.0355769
0.000132965
0.000186951
0.000142384
0.00021688
0.000167582
0.000164876
0.0266286
0.000175857
0.000180123
0.000155106
0.000187006
0.0055866
0.000239968
0.000154491
0.0150466
0.000139671
0.0202186
0.00329063
0.000147535
0.037662
0.0190228
0.022435
0.00460933
0.000190554
0.000143903
0.0276799
0.000166394
0.0110081
0.0299196
0.000141175
0.00015206
9.00132e-05
0.00279196
0.0286617
0.000146499
0.000142415
0.0225956
0.0292971
0.00019812
0.000158914
0.000150992
0.00327695
0.0135182
0.000192205
0.000132365
0.000175313
0.000138542
0.00016007
0.00193995
0.000153387
0.0154124
0.00528177
0.000144747
0.000150522
0.000144123
0.000153099
0.0166027
0.0228124
0.000164126
0.0318749
0.000142326
0.000164208
0.00014357
0.00013864
0.000146986
0.000144581
0.0226036
0.000144215
0.000180557
0.000144813
0.000159962
0.00220144
0.00576559
0.000156928
0.0171304
0.000190738
9.67751e-05
0.000167903
0.000168137
0.0169342
0.000160503
0.000178866
0.0281165
0.0102369
0.0126469
0.000174341
0.00365558
0.000149191
0.000174478
0.000180669
0.0288266
0.000145756
0.0286771
0.000140777
0.000141375
0.0190717
0.00014423
0.00236058
0.000158404
0.000139313
0.00018318
0.000139391
0.000143835
0.000140218
0.000148737
0.000166819
0.000141348
0.000151698
0.0138458
0.000186376
0.0252282
0.000146144
0.000156771
0.000151732
0.00014394
0.000139183
0.000190139
0.000149083
0.000141108
0.000148871
0.000149466
0.0207594
0.0332612
0.000219516
0.0291936
5.84404e-05
0.000141954
0.00552273
0.000163148
0.000141177
0.00362965
0.00112823
0.00189164
0.000141732
0.00338192
0.00314145
0.0180878
0.000136739
0.00936565
0.000166318
0.00015554
0.000141037
0.000138837
0.0391639
0.000238186
0.00848955
0.000142314
0.000143516
0.00153073
0.000147642
0.00622907
0.00390983
0.00417543
0.000251226
0.00319357
0.000151156
0.000144363
0.000206673
0.000172145
0.000154957
0.000210477
0.000175647
0.000149266
0.000150739
0.0359434
0.000141354
0.0200629
0.00252423
0.0117445
0.000217498
0.000152094
0.000138041
0.000147924
0.00412475
0.00548393
0.000136738
0.000159653
0.000142126
0.000189765
0.000133952
0.000141738
0.000149495
0.000167778
0.000791671
0.000180109
0.00016638
0.000145147
0.000180376
0.00747374
0.000150435
0.0112817
0.00982709
0.000190416
0.000135522
0.000176538
0.000142744
0.000147804
0.00014753
0.0168371
0.000198749
0.00469296
0.000155061
0.00131025
0.000143133
0.00014344
0.000147601
0.00744899
0.000267227
0.000133932
0.000167376
0.000195008
0.026104
0.000157943
0.0196043
0.000146784
0.0401132
0.00018741
0.0299939
0.000192923
0.000190205
6.07599e-05
0.0265396
0.00360093
0.0163271
0.000146703
0.000218784
0.000133797
0.000154691
0.000159264
0.000147298
0.026759
0.000164611
0.000161584
0.00403663
0.000209494
0.00677815
0.000143501
0.000154675
0.000160224
0.00013872
0.000163349
0.0225333
0.00667948
0.0147576
0.00014052
0.000160573
0.000153456
0.00391519
0.028222
0.000205873
0.000137954
0.000148721
0.0169583
0.000177578
0.0279411
0.0223945
0.000240241
0.000135321
0.0069673
0.000162702
0.000176671
0.000162867
0.0349965
0.00410047
0.000200355
0.000232677
0.000150603
0.000166474
0.000144587
0.0125043
0.000186507
0.0254101
0.00110727
0.00015906
0.000202368
0.000152306
0.0345161
0.000130218
0.000142768
0.00012773
0.0305124
0.000117037
0.0186004
0.000146337
0.000144621
0.016962
0.00903134
0.0153209
0.000155067
0.000146076
0.000144762
0.021115
0.000202675
0.000148663
0.00211339
0.000191934
0.0434985
0.00588048
0.00712105
0.000144215
0.0210378
0.000156854
0.000144341
0.000201271
0.0264072
0.000146767
0.000140774
0.00456307
0.0326339
0.000144808
0.000140409
0.0292367
0.000142499
0.000678401
0.000140527
0.00518306
0.000144633
0.000180945
0.0139719
0.0281041
0.000151632
0.00813956
0.00525634
0.0266459
0.00196306
0.0392757
0.000163277
0.000142352
0.00644796
0.000158133
0.00014362
0.000138613
0.00217492
0.000142795
9.9799e-05
0.00014095
0.000150988
0.0160844
0.000185239
0.0124609
0.000152842
0.000161108
0.000139096
0.000167184
0.00611982
0.0213932
0.000140298
0.000186717
0.00393756
0.000147305
0.000139086
0.0288808
0.000169097
0.000170853
0.000199715
0.0268587
0.000430707
0.00429665
0.0159601
0.000181348
0.00293993
0.00511334
0.000501275
0.000186787
0.000136485
0.000199307
0.000142288
0.000142267
0.0342378
0.0292209
0.00015341
0.0175913
0.000732442
0.0194252
0.00318817
0.000660512
0.000143479
0.00119966
0.000918904
0.000143885
0.000151971
0.0345549
0.0295223
0.0232092
0.0321028
0.000174967
0.0383118
0.0360544
0.000166645
0.000147223
0.000142151
0.00399555
0.000141246
0.000122229
0.000152307
0.000149996
0.000153933
0.0093034
0.039049
0.0213577
0.00014867
0.008052
0.000158345
0.000165538
0.000140939
0.000142925
0.0131399
0.000161602
0.0271768
0.0201971
0.0014566
0.000197725
0.000144453
0.000175651
0.000147354
0.000203077
0.000149453
0.00015255
0.000148243
0.000153029
0.000203955
0.000150188
0.00017006
0.000144208
0.00017069
0.000222077
0.0174196
0.000142487
0.000179165
0.000144954
0.000225882
0.000152699
0.02027
0.000219259
0.00016618
0.000154889
0.000152686
0.00416954
0.000143943
0.000583191
0.00014393
0.000142656
0.000148264
0.0314398
0.000160861
0.000157298
0.000170865
0.000147039
0.000185318
0.0296762
0.00224496
0.0001704
0.000144594
0.000548469
0.000136905
0.000143092
0.000217847
0.0355898
0.000144833
0.000166803
0.000227199
0.00946288
0.000148867
0.000149899
0.0340049
0.000151966
0.00106655
5.90777e-05
0.0381662
0.000144847
0.000158454
0.000143101
0.0402936
0.000201266
0.000175365
0.000198016
0.0219758
0.000151202
0.0346359
0.0304919
0.000147263
0.0110472
0.000190512
0.000152447
0.0136275
0.000146134
0.00014429
0.000138172
0.000208954
0.00221472
0.000205602
0.000152693
0.000150676
0.000164294
0.00352159
3.23e-05
0.0380083
0.00408913
0.000149679
0.000201349
0.000202428
0.0143619
0.000186544
0.00373227
0.000141368
0.000170446
0.000139029
0.000545367
0.000173756
0.000143039
0.033766
0.000220295
0.000167676
0.000169622
0.000132882
0.000146629
0.000181995
0.000169567
0.001672
0.000186917
0.000185829
0.000185588
0.000199674
0.035564
0.000217829
0.0379307
0.000142686
0.000140936
0.000217977
0.0242385
0.0134227
0.000642824
0.000156086
0.0160654
0.00403391
0.000142925
0.000159658
0.000139645
0.000174733
0.000187635
0.000192615
0.0116858
7.50286e-05
0.000152096
0.0255042
0.0141994
0.000144122
0.000217069
0.0303398
0.013116
0.000155126
0.000188699
0.000131573
0.000158134
0.000143731
0.000158647
0.0397713
0.0240537
0.00940014
0.0160512
0.000151831
0.000170444
0.000183392
0.000144322
0.000148647
0.000138816
0.0253225
0.000140966
0.0333374
0.000173153
0.00018771
0.00020708
0.000182522
0.0182669
0.0113849
0.000174194
0.000134678
0.0001491
0.00840433
0.00250523
0.000157198
0.000139399
0.00013941
0.000185512
0.000165594
0.000202658
0.0392785
0.000151649
0.000138402
0.000199455
0.000446874
0.0163136
0.0161365
0.000140498
0.000188595
0.000146842
0.0429983
0.000136397
0.0388943
0.000142784
0.000151412
0.00016429
0.000149128
0.000211987
0.000164716
0.000178651
0.0168253
0.0298802
0.000158109
0.000164858
0.00014332
0.00996684
0.0185152
0.000149626
0.000136769
0.00393253
0.000131687
0.0260744
0.000144847
0.000169784
0.000186201
0.00267277
0.000175497
0.000151322
0.000146168
0.000187427
0.0344522
0.000142402
0.000417503
0.0178711
0.015325
0.000265909
0.000170013
0.0206498
0.000157939
0.00028769
0.000143106
0.00423453
0.00429114
0.0116264
0.0140022
0.039407
0.000144621
0.000313861
0.000140764
0.0130568
0.00371765
0.0339004
0.0158481
0.000161468
0.0358159
0.00453876
0.000171423
0.000152387
0.000146911
0.0275852
0.000159191
0.000187252
0.000160142
0.000147677
0.000138634
0.000146794
0.0271365
0.000196628
0.000166619
0.0178018
0.00420756
0.000143494
0.000143572
0.000139235
0.000165079
0.0379895
0.000152087
0.000159175
0.000169615
0.000296742
0.000188662
0.000177083
0.0085181
0.000165661
0.0380485
0.000164545
0.00016346
0.000143267
0.000159833
0.000188063
0.00366388
0.0038724
0.0303706
0.000187575
0.0353462
0.000159604
0.000156531
0.000148541
0.0107125
0.0256395
0.00612777
0.00155856
0.000154538
0.000144757
0.000142091
0.000143922
0.000139007
0.0113082
0.00016426
0.0119338
0.000168292
0.0248573
0.0172395
0.0385126
0.000195366
0.00015903
0.0160727
0.00017529
0.00263241
0.0302318
0.000138255
0.00245167
0.000161221
0.0174166
0.00949297
0.000170959
0.00221667
0.00388246
0.000158167
0.000191617
0.000164899
0.0220403
0.00284734
0.000155622
0.000146215
0.00439627
0.000301539
0.000200828
0.00113595
0.00019926
0.00016743
0.000144003
0.0155739
0.0343588
0.000187343
0.000165488
0.0277011
0.0230418
0.000140947
0.000144319
0.000156129
0.0336513
0.0306119
0.000143573
0.0209326
0.000149871
0.000142421
0.000147415
0.01398
0.000438203
0.000401415
0.0128849
0.000152833
0.000152454
0.000141113
0.0104514
0.000151486
0.0345031
0.000155348
0.0259559
0.000148677
0.000142339
0.000200131
0.0107733
0.00379386
0.000171405
0.0198921
0.00013671
0.000146008
0.000144456
0.000177092
0.000186363
0.000186253
0.000174072
0.0275692
0.000156365
0.000201445
0.000121481
0.032709
0.00014556
0.0257026
0.0313447
0.000157259
0.00627341
0.000185955
0.021019
0.000147161
0.000187856
0.000143574
0.0026323
0.0149637
0.000216879
0.0366839
0.000154276
0.00017885
0.000151463
0.0218496
0.000135492
0.000139524
0.00327049
0.000189707
0.0232519
0.00541428
0.000185378
0.000163293
0.000138003
0.0268893
0.00016385
0.000144084
0.000203572
0.000139691
0.000176202
0.000144754
0.01613
0.000154158
0.00316661
0.00307481
0.000165653
0.00252549
0.000182614
0.0432051
0.00014493
0.0114399
0.0323705
0.000139319
0.000144126
0.000153037
0.000148836
0.00017367
0.000143613
0.00579803
0.000189116
0.00158827
0.000232621
0.000146632
0.000149205
0.000138619
0.013963
0.000146256
0.000144315
0.000134484
0.000155209
0.0271006
0.0354754
0.000192339
0.000156078
0.000169081
0.000152292
0.000149836
0.000221638
0.00013741
0.000155536
0.00976614
0.0404216
0.000391989
0.00015214
0.0124427
0.000349962
0.000148903
0.000850935
0.0273275
0.000143657
0.00015448
0.00014314
0.0162471
0.0212778
0.00325173
0.000137312
0.000155794
0.000151637
0.000146345
0.000200463
0.00014706
0.00121155
0.00659965
0.036064
0.000138232
0.000155311
0.000154205
0.0247446
0.000132862
0.0191639
0.0115047
0.00443955
0.0106461
0.020721
0.0309515
0.000150233
0.00286725
0.00582836
0.000151115
0.000137771
0.000140217
0.0358718
0.0123684
0.0126258
0.000146962
0.0390305
0.000147011
0.00020713
0.000139969
0.000153977
0.000150945
0.000138106
0.0239286
0.00015128
0.0298409
0.0216335
0.0179256
0.000178391
0.0001805
0.0196569
0.0336241
0.000149213
0.00762326
0.000138535
0.000132026
0.000143376
0.000178707
0.000141529
0.0172866
0.000164056
0.00035766
0.000175275
0.0110375
0.0182423
0.000225506
0.000137871
0.000183828
0.00018667
0.0222403
0.000145644
0.000134284
0.000156948
0.0361308
0.000146901
0.0018544
0.0161394
0.000174909
0.000184561
0.000145812
0.0038444
0.000148609
0.0390763
0.000135693
0.00975769
0.000165881
0.000145884
0.0168847
0.0159026
0.000135646
0.00018588
0.000157084
0.0122097
0.000328532
0.000270832
0.000305165
0.000148769
0.000184523
0.0255911
0.000143379
0.000185313
0.00015137
0.000189271
0.000167272
0.0127834
0.0236283
0.000146168
0.0258608
0.000151382
0.00017685
0.0269271
0.0158293
0.000173153
0.0264025
0.000139262
0.000146338
0.00181385
0.00020039
0.000165583
0.000151137
0.0242901
0.000135972
0.0154673
0.000219711
0.000198074
0.000143394
0.000164779
0.0254206
0.000177303
0.0258363
0.000150005
0.000155308
0.000117662
0.0231369
0.000159106
0.0352313
0.00614293
0.0179589
0.000147528
0.0211817
0.00555823
0.0267684
0.000143923
0.000147182
0.00014501
0.0367899
0.000179171
0.00405291
0.00265703
0.000148984
0.000138785
0.000143739
0.0253597
0.00780132
0.0202397
0.0184593
0.000140926
0.0239412
0.0305613
0.000200072
0.0125137
0.0266603
0.000172213
0.0143773
0.000154071
0.000158526
0.013873
0.0133348
0.000147398
0.017783
0.000148173
0.000144411
0.0431943
0.0237423
0.03304
0.0138789
0.000166909
0.000148945
0.000158732
0.0298055
0.0152019
0.00014242
0.000177647
0.00622093
0.000144576
0.000146484
0.023129
0.0332197
0.000153498
0.000144193
0.00015082
0.00015191
0.000285635
0.000148787
0.000143879
0.000159428
0.000244824
0.0372634
0.00521929
0.0255374
0.000146386
0.000157615
0.0293282
0.0322573
0.000163631
0.000914653
0.000143261
0.000170769
0.000151398
0.000149683
0.000184801
0.000143482
0.00891235
0.00016942
0.000141475
0.000156864
0.0089778
0.0285935
0.022294
0.000144731
0.000169075
0.0335763
0.0058571
0.000155673
0.000145219
0.000144555
0.00292932
0.000146688
0.000150687
0.000162437
0.00014399
0.0298173
0.00157104
0.000148674
0.000156289
0.000136586
0.00014701
0.0240385
0.00903464
0.000187918
0.0133404
0.000200631
0.000149301
0.000143118
0.000145927
0.000144699
0.000148464
0.000163613
0.000191995
0.0271357
0.000150056
0.000197692
0.0223022
0.000270726
0.000143779
0.000139641
0.000154273
0.0400264
0.000144231
0.00235022
4.07533e-05
0.000183346
0.000148311
0.0144815
0.000137091
0.00163406
0.000137909
0.000137337
0.000147152
0.00014175
0.000193577
0.0117885
0.00160991
0.00017319
0.0106124
0.000322834
0.000412615
0.000166733
0.0240184
0.014076
0.000197903
0.0309331
0.0243778
0.000197439
0.00321379
0.000148906
0.000141699
0.0226806
0.000141747
0.000156472
0.0392053
0.000761537
0.0236111
0.000218791
0.000140172
0.000152843
0.000146145
0.000892034
0.00013979
0.000946008
0.024137
0.0247904
0.00702172
0.000146236
0.000136507
0.000188208
0.0170667
0.0302301
0.000200175
0.000842286
0.000140262
0.00221653
0.0281827
8.20141e-06
0.000155496
0.000146599
0.000136372
0.000153675
0.000146192
0.000145152
0.000155964
0.0286918
0.000189686
0.0264516
0.00181129
0.00150983
0.000208292
0.000143018
0.000144553
0.00014705
0.000139359
0.000148688
0.0091423
0.0216903
0.00234288
0.0391843
0.000154082
0.0192943
0.000203724
0.0352772
0.0312052
0.000146629
0.00014156
0.00424503
0.000146328
0.000135826
0.00404527
0.0300224
0.00424432
0.000144765
0.000146327
0.00015658
0.000172828
0.0111316
0.000138727
0.000155478
9.7551e-05
0.000138713
0.00475305
0.000172476
0.0366431
0.000148844
6.60022e-05
0.0171514
0.000171941
0.0287068
0.000197496
0.0275168
0.000136834
0.000158402
0.000140537
0.000165252
0.0160239
0.000148294
0.0113877
0.000146463
0.000147032
0.000144206
0.0390607
0.000176852
0.000197587
0.00243543
0.000139648
0.000179264
0.0148265
0.00018318
0.000141945
0.000150869
0.000146448
0.000186017
0.000144905
0.000142159
0.0417406
0.036017
0.0373074
0.000460881
0.000180753
0.0190682
0.000187426
0.040569
0.000201794
0.000136148
0.000144333
0.000131791
0.000147736
0.0309007
0.0310356
0.000139424
0.00928182
0.0411853
0.000163683
0.00014976
0.000169062
0.0248796
0.0218467
0.0290628
0.000922615
0.0303831
0.00013187
0.000171771
0.000196681
0.00229302
0.0154104
0.000143645
0.000200269
0.0172041
0.000169092
0.0183729
0.000148756
0.00120122
0.0183986
0.0354942
0.000188645
0.000166764
0.0164911
0.000200918
0.0360911
0.0383734
0.0296013
0.000197414
0.0164865
0.000146576
0.000155634
0.000178541
0.0222316
0.00385691
0.0274179
0.000153936
0.000200119
0.00019099
0.000155176
0.0255392
0.000143672
0.000199887
0.0207584
0.000143652
0.0392104
0.0363073
0.038558
0.0216939
0.000689503
0.00710989
0.000143292
0.0319093
0.000146168
0.000142488
0.000175113
0.000155502
0.0317694
0.000155864
0.000169687
0.000156159
0.000141649
0.0178223
0.000153248
0.000197918
0.00149524
0.000138167
0.0275662
0.000196513
0.000150223
0.0132327
0.000117196
0.00014338
0.00719428
0.000150195
0.0407295
0.00174334
0.000139612
0.000198576
0.000153422
0.0339722
0.0306269
0.000188476
0.00452884
0.000159832
0.000144648
0.0404528
0.000155613
0.00014505
0.00425726
0.000173816
0.000140169
0.000141316
0.00020275
0.000152868
0.0206084
0.000164168
0.000591818
0.0207741
0.000180861
0.000185029
0.000143676
0.0349777
0.0170659
0.0258407
0.000144015
0.000138573
0.000188937
0.000166353
0.00380955
0.000145242
0.00606635
0.000144494
0.000252433
0.000150774
0.000705361
0.000207928
0.00019756
0.0278512
0.0193226
0.0267772
0.0293021
0.000132076
0.000620259
0.000762763
0.0206635
0.000144874
0.000231155
0.0166945
0.0135579
0.000198011
7.2207e-05
0.00814964
0.0369886
0.000177064
0.000150667
0.000137994
0.000178707
0.000175323
0.000143377
0.000187366
0.022347
0.00312469
0.0156882
0.00163057
0.000142306
0.000140368
0.000171709
0.000143487
0.00887206
0.000138941
0.000140418
0.0403332
0.000201273
0.000169852
0.000196481
0.000155673
0.00018877
0.0147471
0.0314912
0.0154929
0.000158329
0.0311336
0.000151671
0.000138979
0.000153701
0.0253195
0.000148889
0.000177189
0.000204544
0.000151164
0.00014116
0.000143515
0.000148952
0.000160233
0.0213217
0.00118274
0.000163716
0.0265375
0.0202698
0.0043462
0.0120687
0.000144692
0.000164801
0.000238515
0.000144267
0.000164977
0.000160915
0.000155753
0.0250207
0.0316517
0.000139034
0.000173228
0.000164864
0.000185631
0.0285171
0.0361969
0.0370121
0.000146971
0.000190696
0.0383154
0.00019044
0.000198322
0.00125903
0.0240307
0.0354206
0.0414804
0.00013843
0.0145633
0.000139251
0.000153169
0.000144046
0.000184957
0.035838
0.0146123
0.00500279
0.0121674
0.0001834
0.000135293
0.000139526
0.000146426
0.000158278
0.000176725
0.0388547
0.0419363
0.000189217
0.000272861
0.000147801
0.000183039
0.000138558
0.037816
0.000208994
0.000146577
0.000205438
0.000196237
0.0163799
0.0258128
0.000203284
0.00874264
0.000157683
0.0274983
0.000167853
0.0143923
0.00396737
0.000151453
0.000182587
0.000145823
0.023846
0.0140042
0.000174494
0.0366643
0.000158127
0.0299032
0.000186534
0.000214215
0.000180205
0.000140143
0.000199171
0.000184713
0.000156202
0.000182195
0.000166316
0.000168223
0.0152155
0.000204462
0.000153863
0.000165984
0.000171364
0.000168581
0.000150541
0.0334842
0.000198553
0.000893865
0.0109674
0.000144618
0.0304357
0.000144375
0.000155812
0.000154785
0.0302796
0.000173967
0.0370903
0.0135446
0.000184021
0.00018365
0.000198185
0.0324247
0.000201216
0.00522585
0.000166338
0.000177214
0.000142932
0.0329065
0.00491029
0.000165599
0.000149852
0.000173553
0.000159341
0.000156867
0.000179085
0.000173341
0.000147302
0.000170974
0.0184864
0.0187021
0.000250412
0.000175006
0.000133716
0.032833
0.000167389
0.000185514
0.000201825
0.000175596
0.0216003
0.000136155
0.000166376
0.000155934
0.000170334
0.000143161
0.0313508
0.000990155
0.00820679
0.000174372
0.0276854
0.000193307
0.000158893
0.031417
0.000186045
0.000207655
0.0115732
0.00018373
0.000155941
0.000173963
0.000187267
0.00015501
0.000117551
0.026276
0.0030781
0.000140187
0.000169544
0.000745157
0.00388024
0.00014303
0.000177148
0.000143689
0.000166327
0.0166246
0.000164717
0.000164061
0.000140295
0.000140078
0.0037766
0.0250848
0.000145583
0.0112548
0.000217441
0.000135479
0.00018061
0.0328921
0.000199821
0.000196162
0.000144153
0.000161406
0.00019589
0.000151228
0.00014245
0.04347
0.00016437
0.0313893
0.000190959
0.000159784
0.0342786
0.000200025
0.000207449
0.000140569
0.00316656
0.000164611
0.000160535
0.0228774
0.000174392
0.000147256
0.000189027
0.000156854
0.000156679
0.000136753
0.0117051
0.000144377
0.000200405
0.00503703
0.000196752
0.000141828
1.77833e-05
0.000165698
0.0225568
0.00020872
0.0258797
0.000198331
0.0342728
0.000138733
0.000189631
0.00015849
0.000142006
0.00333977
0.0200852
0.000157442
0.000302238
0.000172463
0.000188737
0.0261025
0.000159391
0.00251315
0.000524102
0.0365201
0.0352908
0.000245687
0.000178041
0.000140003
0.000201677
0.000172618
0.00509637
0.019645
0.0375403
0.0356917
0.0388438
0.000139876
0.00234162
0.000143921
0.000151336
0.000146945
0.00474869
0.000208108
0.000208298
0.000141964
0.00996687
0.000161664
0.0224738
0.000142545
0.000185344
0.00016515
0.000187112
0.000175964
0.000196144
0.000152852
0.000227337
0.000205075
0.000140806
0.0201188
0.000184715