/*--------------------------------*- C++ -*----------------------------------*\
| =========                 |                                                 |
| \\      /  F ield         | OpenFOAM: The Open Source CFD Toolbox           |
|  \\    /   O peration     | Version:  v2012                                 |
|   \\  /    A nd           | Website:  www.openfoam.com                      |
|    \\/     M anipulation  |                                                 |
\*---------------------------------------------------------------------------*/
FoamFile
{
    version     2.0;
    format      ascii;
    class       pointVectorField;
    location    "350";
    object      pointDisplacement;
}
// * * * * * * * * * * * * * * * * * * * * * * * * * * * * * * * * * * * * * //

dimensions      [0 1 0 0 0 0 0];


internalField   nonuniform List<vector> 
14332
(
(0 0 0)
(0 0.0156009 0)
(0 0 0)
(0 0.0156009 0)
(0 0 0)
(0 0 0)
(0 0 0)
(0 0 0)
(0 0 0)
(0 0 0)
(0 0 0)
(0 0 0)
(0 0 0)
(0 0 0)
(0 0 0)
(0 0 0)
(0 0 0)
(0 0 0)
(0 0 0)
(0 0 0)
(0 0 0)
(0 0 0)
(0 0 0)
(0 0 0)
(0 0 0)
(0 0 0)
(0 0 0)
(0 0 0)
(0 0 0)
(0 0 0)
(0 0 0)
(0 0 0)
(0 0 0)
(0 0 0)
(0 0 0)
(0 0 0)
(0 0 0)
(0 0 0)
(0 0 0)
(0 0 0)
(0 0 0)
(0 0 0)
(0 0 0)
(0 0 0)
(0 0 0)
(0 0 0)
(0 0 0)
(0 0 0)
(0 0 0)
(0 0 0)
(0 0 0)
(0 0 0)
(0 0 0)
(0 0 0)
(0 0 0)
(0 0 0)
(0 0 0)
(0 0 0)
(0 0 0)
(0 0 0)
(0 0 0)
(0 0 0)
(0 0 0)
(0 0 0)
(0 0 0)
(0 0 0)
(0 0 0)
(0 0 0)
(0 0 0)
(0 0 0)
(0 0 0)
(0 0 0)
(0 0 0)
(0 0 0)
(0 0 0)
(0 0 0)
(0 0 0)
(0 0 0)
(0 0 0)
(0 0 0)
(0 0 0)
(0 0 0)
(0 0 0)
(0 0 0)
(0 0 0)
(0 0 0)
(0 0 0)
(0 0 0)
(0 0 0)
(0 0 0)
(0 0 0)
(0 0 0)
(0 0 0)
(0 0 0)
(0 0 0)
(0 0 0)
(0 0 0)
(0 0 0)
(0 0 0)
(0 0 0)
(0 0 0)
(0 0 0)
(0 0 0)
(0 0 0)
(0 0 0)
(0 0 0)
(0 0 0)
(0 0 0)
(0 0 0)
(0 0 0)
(0 0 0)
(0 0 0)
(0 0 0)
(0 0 0)
(0 0 0)
(0 0 0)
(0 0 0)
(0 0 0)
(0 0 0)
(0 0 0)
(0 0 0)
(0 0 0)
(0 0 0)
(0 0 0)
(0 0 0)
(0 0 0)
(0 0 0)
(0 0 0)
(0 0 0)
(0 0 0)
(0 0 0)
(0 0 0)
(0 0 0)
(0 0 0)
(0 0.0156009 0)
(0 0.0156009 0)
(0 0.0156009 0)
(0 0.0156009 0)
(0 0.0156009 0)
(0 0.0156009 0)
(0 0.0156009 0)
(0 0.0156009 0)
(0 0.0156009 0)
(0 0.0156009 0)
(0 0.0156009 0)
(0 0.0156009 0)
(0 0.0156009 0)
(0 0.0156009 0)
(0 0.0156009 0)
(0 0.0156009 0)
(0 0.0156009 0)
(0 0.0156009 0)
(0 0.0156009 0)
(0 0.0156009 0)
(0 0.0156009 0)
(0 0.0156009 0)
(0 0.0156009 0)
(0 0.0156009 0)
(0 0.0156009 0)
(0 0.0156009 0)
(0 0.0156009 0)
(0 0.0156009 0)
(0 0.0156009 0)
(0 0.0156009 0)
(0 0.0156009 0)
(0 0.0156009 0)
(0 0.0156009 0)
(0 0.0156009 0)
(0 0.0156009 0)
(0 0.0156009 0)
(0 0.0156009 0)
(0 0.0156009 0)
(0 0.0156009 0)
(0 0.0156009 0)
(0 0.0156009 0)
(0 0.0156009 0)
(0 0.0156009 0)
(0 0.0156009 0)
(0 0.0156009 0)
(0 0 0)
(0 0 0)
(0 0 0)
(0 0 0)
(0 0 0)
(0 0 0)
(0 0 0)
(0 0 0)
(0 0 0)
(0 0 0)
(0 0 0)
(0 0 0)
(0 0 0)
(0 0 0)
(0 0 0)
(0 0 0)
(0 0 0)
(0 0 0)
(0 0 0)
(0 0 0)
(0 0 0)
(0 0 0)
(0 0 0)
(0 0 0)
(0 0 0)
(0 0 0)
(0 0 0)
(0 0 0)
(0 0 0)
(0 0 0)
(0 0 0)
(0 0 0)
(0 0 0)
(0 0 0)
(0 0 0)
(0 0 0)
(0 0 0)
(0 0 0)
(0 0 0)
(0 0 0)
(0 0 0)
(0 0 0)
(0 0 0)
(0 0 0)
(0 0 0)
(0 0 0)
(0 0 0)
(0 0 0)
(0 0 0)
(0 0 0)
(0 0 0)
(0 0 0)
(0 0 0)
(0 0 0)
(0 0 0)
(0 0 0)
(0 0 0)
(0 0 0)
(0 0 0)
(0 0 0)
(0 0 0)
(0 0 0)
(0 0 0)
(0 0 0)
(0 0 0)
(0 0 0)
(0 0 0)
(0 0 0)
(0 0 0)
(0 0 0)
(0 0 0)
(0 0 0)
(0 0 0)
(0 0 0)
(0 0 0)
(0 0 0)
(0 0 0)
(0 0 0)
(0 0 0)
(0 0 0)
(0 0 0)
(0 0 0)
(0 0 0)
(0 0 0)
(0 0 0)
(0 0 0)
(0 0 0)
(0 0 0)
(0 0 0)
(0 0 0)
(0 0 0)
(0 0 0)
(0 0 0)
(0 0 0)
(0 0 0)
(0 0 0)
(0 0 0)
(0 0 0)
(0 0 0)
(0 0 0)
(0 0 0)
(0 0 0)
(0 0 0)
(0 0 0)
(0 0 0)
(0 0 0)
(0 0 0)
(0 0 0)
(0 0 0)
(0 0 0)
(0 0 0)
(0 0 0)
(0 0 0)
(0 0 0)
(0 0 0)
(0 0 0)
(0 0 0)
(0 0 0)
(0 0 0)
(0 0 0)
(0 0 0)
(0 0 0)
(0 0 0)
(0 0 0)
(0 0 0)
(0 0 0)
(0 0 0)
(0 0 0)
(0 0 0)
(0 0 0)
(0 0.0156009 0)
(0 0.0156009 0)
(0 0.0156009 0)
(0 0.0156009 0)
(0 0.0156009 0)
(0 0.0156009 0)
(0 0.0156009 0)
(0 0.0156009 0)
(0 0.0156009 0)
(0 0.0156009 0)
(0 0.0156009 0)
(0 0.0156009 0)
(0 0.0156009 0)
(0 0.0156009 0)
(0 0.0156009 0)
(0 0.0156009 0)
(0 0.0156009 0)
(0 0.0156009 0)
(0 0.0156009 0)
(0 0.0156009 0)
(0 0.0156009 0)
(0 0.0156009 0)
(0 0.0156009 0)
(0 0.0156009 0)
(0 0.0156009 0)
(0 0.0156009 0)
(0 0.0156009 0)
(0 0.0156009 0)
(0 0.0156009 0)
(0 0.0156009 0)
(0 0.0156009 0)
(0 0.0156009 0)
(0 0.0156009 0)
(0 0.0156009 0)
(0 0.0156009 0)
(0 0.0156009 0)
(0 0.0156009 0)
(0 0.0156009 0)
(0 0.0156009 0)
(0 0.0156009 0)
(0 0.0156009 0)
(0 0.0156009 0)
(0 0.0156009 0)
(0 0.0156009 0)
(0 0.0156009 0)
(0 0.0156009 0)
(0 0.00051703 0)
(0 0.0156009 0)
(0 0.0156009 0)
(0 0.0156009 0)
(0 0.000589305 0)
(0 0.0156009 0)
(0 0.000420438 0)
(0 0.000267711 0)
(0 0.000125342 0)
(0 0.000880087 0)
(0 0.000193942 0)
(0 0.000308511 0)
(0 0.0156009 0)
(0 0.000836431 0)
(0 0.000138903 0)
(0 0.000936072 0)
(0 0.000132158 0)
(0 0.00107282 0)
(0 0.0156009 0)
(0 0.000121681 0)
(0 0.000124559 0)
(0 8.13341e-05 0)
(0 7.81211e-05 0)
(0 6.45423e-05 0)
(0 0.000475549 0)
(0 0.000206457 0)
(0 0.0156009 0)
(0 0.0156008 0)
(0 0.0156009 0)
(0 5.38715e-05 0)
(0 3.68613e-05 0)
(0 0.000816125 0)
(0 0.000872218 0)
(0 0.000865116 0)
(0 0.00108345 0)
(0 0.000588729 0)
(0 0.000422571 0)
(0 0.000274686 0)
(0 0.000148367 0)
(0 0.000191624 0)
(0 0.000123371 0)
(0 0.000104236 0)
(0 4.1498e-05 0)
(0 0.0156009 0)
(0 0.0156009 0)
(0 2.19635e-05 0)
(0 2.1209e-05 0)
(0 0.00119579 0)
(0 0.000688008 0)
(0 0.000581653 0)
(0 0.000505265 0)
(0 0.000416252 0)
(0 0.000370583 0)
(0 0.000171901 0)
(0 0.00023144 0)
(0 0.000292075 0)
(0 6.56029e-05 0)
(0 0.000221568 0)
(0 0.000111976 0)
(0 7.40792e-05 0)
(0 6.55858e-05 0)
(0 5.38239e-05 0)
(0 9.51977e-05 0)
(0 1.06335e-05 0)
(0 0.0146808 0)
(0 0.0146301 0)
(0 0.0147063 0)
(0 0.0146534 0)
(0 0.0147278 0)
(0 0.0146727 0)
(0 0.0147451 0)
(0 0.0146882 0)
(0 0.0147595 0)
(0 0.0146998 0)
(0 0.0147696 0)
(0 0.0147074 0)
(0 0.0147758 0)
(0 0.0147113 0)
(0 0.014779 0)
(0 0.0147123 0)
(0 0.0147781 0)
(0 0.0147117 0)
(0 0.0147723 0)
(0 0.0147039 0)
(0 0.0147623 0)
(0 0.0146852 0)
(0 0.0147472 0)
(0 0.0146633 0)
(0 0.0147264 0)
(0 0.0146403 0)
(0 0.0146986 0)
(0 0.0146123 0)
(0 0.0146719 0)
(0 0.014582 0)
(0 0.0146447 0)
(0 0.0145486 0)
(0 0.0146072 0)
(0 0.0145061 0)
(0 0.0145616 0)
(0 0.0144465 0)
(0 0.0143977 0)
(0 0.0143367 0)
(0 0.00494015 0)
(0 0.00479273 0)
(0 0.0142833 0)
(0 0.01422 0)
(0 0.0048315 0)
(0 0.00469046 0)
(0 0.0141616 0)
(0 0.0140955 0)
(0 0.00472763 0)
(0 0.00458575 0)
(0 0.00462364 0)
(0 0.0044799 0)
(0 0.0140315 0)
(0 0.0139635 0)
(0 0.00451149 0)
(0 0.00437154 0)
(0 0.0138932 0)
(0 0.013822 0)
(0 0.00439551 0)
(0 0.0042595 0)
(0 0.00423374 0)
(0 0.0137448 0)
(0 0.0136695 0)
(0 0.0138227 0)
(0 0.00427712 0)
(0 0.00414464 0)
(0 0.0135831 0)
(0 0.0135053 0)
(0 0.00415783 0)
(0 0.00428247 0)
(0 0.00402777 0)
(0 0.0148364 0)
(0 0.0146619 0)
(0 0.0146158 0)
(0 0.0147133 0)
(0 0.0146717 0)
(0 0.0147603 0)
(0 0.0147173 0)
(0 0.0148021 0)
(0 0.0147552 0)
(0 0.0148408 0)
(0 0.0147934 0)
(0 0.0148765 0)
(0 0.0148274 0)
(0 0.0149098 0)
(0 0.0148578 0)
(0 0.0149383 0)
(0 0.0148859 0)
(0 0.0149624 0)
(0 0.0149115 0)
(0 0.0149852 0)
(0 0.0149338 0)
(0 0.0150048 0)
(0 0.0149526 0)
(0 0.0150216 0)
(0 0.0149688 0)
(0 0.0148951 0)
(0 0.0149105 0)
(0 0.0149839 0)
(0 0.0149256 0)
(0 0.0149958 0)
(0 0.014936 0)
(0 0.0150041 0)
(0 0.0149443 0)
(0 0.0150118 0)
(0 0.0149472 0)
(0 0.015015 0)
(0 0.0149504 0)
(0 0.0150147 0)
(0 0.0149592 0)
(0 0.0150178 0)
(0 0.0149617 0)
(0 0.01502 0)
(0 0.0149591 0)
(0 0.0150172 0)
(0 0.0149541 0)
(0 0.0150117 0)
(0 0.0149483 0)
(0 0.0150068 0)
(0 0.0149419 0)
(0 0.0150015 0)
(0 0.0149346 0)
(0 0.014994 0)
(0 0.014926 0)
(0 0.0149852 0)
(0 0.0149165 0)
(0 0.014832 0)
(0 0.014894 0)
(0 0.0148691 0)
(0 0.0149553 0)
(0 0.00403641 0)
(0 0.00390883 0)
(0 0.0134106 0)
(0 0.0133327 0)
(0 0.0150542 0)
(0 0.00391264 0)
(0 0.00378767 0)
(0 0.0132288 0)
(0 0.0131515 0)
(0 0.00378653 0)
(0 0.00366491 0)
(0 0.00366334 0)
(0 0.0130387 0)
(0 0.0129608 0)
(0 0.00365828 0)
(0 0.00354082 0)
(0 0.0150837 0)
(0 0.012841 0)
(0 0.0127601 0)
(0 0.0129087 0)
(0 0.0150697 0)
(0 0.00352878 0)
(0 0.00363436 0)
(0 0.00341576 0)
(0 0.0126325 0)
(0 0.0125496 0)
(0 0.00340026 0)
(0 0.00328991 0)
(0 0.00327161 0)
(0 0.00316343 0)
(0 0.0124133 0)
(0 0.0123291 0)
(0 0.00314342 0)
(0 0.0030365 0)
(0 0.00305368 0)
(0 0.0121826 0)
(0 0.0120959 0)
(0 0.00292986 0)
(0 0.00294601 0)
(0 0.00290924 0)
(0 0.0119413 0)
(0 0.0118565 0)
(0 0.011999 0)
(0 0.011767 0)
(0 0.0119055 0)
(0 0.011676 0)
(0 0.0118162 0)
(0 0.01158 0)
(0 0.0114284 0)
(0 0.0113327 0)
(0 0.0114777 0)
(0 0.0112373 0)
(0 0.00280512 0)
(0 0.00278246 0)
(0 0.0110738 0)
(0 0.0109799 0)
(0 0.0111434 0)
(0 0.0108843 0)
(0 0.0146489 0)
(0 0.00268469 0)
(0 0.00265635 0)
(0 0.0110441 0)
(0 0.0107849 0)
(0 0.0106151 0)
(0 0.0105171 0)
(0 0.0106845 0)
(0 0.0104153 0)
(0 0.010578 0)
(0 0.0103084 0)
(0 0.0104638 0)
(0 0.0101969 0)
(0 0.010347 0)
(0 0.0100825 0)
(0 0.00992283 0)
(0 0.00981126 0)
(0 0.0134256 0)
(0 0.00255342 0)
(0 0.00252965 0)
(0 0.0099668 0)
(0 0.00969867 0)
(0 0.00953312 0)
(0 0.00942348 0)
(0 0.00958477 0)
(0 0.00931171 0)
(0 0.00946868 0)
(0 0.00919789 0)
(0 0.00242981 0)
(0 0.00240372 0)
(0 0.00250828 0)
(0 0.00903174 0)
(0 0.00892101 0)
(0 0.00908272 0)
(0 0.00880911 0)
(0 0.00896631 0)
(0 0.00869568 0)
(0 0.00884834 0)
(0 0.00858092 0)
(0 0.00872881 0)
(0 0.00846505 0)
(0 0.00830857 0)
(0 0.00819645 0)
(0 0.00834876 0)
(0 0.00808445 0)
(0 0.00230674 0)
(0 0.00234011 0)
(0 0.00227747 0)
(0 0.00792287 0)
(0 0.00781489 0)
(0 0.00797144 0)
(0 0.00770558 0)
(0 0.00785622 0)
(0 0.00759441 0)
(0 0.00774346 0)
(0 0.00748182 0)
(0 0.00732913 0)
(0 0.0072195 0)
(0 0.00736536 0)
(0 0.00710743 0)
(0 0.00724616 0)
(0 0.00699431 0)
(0 0.00684654 0)
(0 0.00673916 0)
(0 0.00688119 0)
(0 0.00663164 0)
(0 0.00676717 0)
(0 0.00652307 0)
(0 0.00218298 0)
(0 0.00215245 0)
(0 0.0063794 0)
(0 0.0062765 0)
(0 0.00641401 0)
(0 0.00617264 0)
(0 0.00630545 0)
(0 0.00606811 0)
(0 0.00619604 0)
(0 0.00596309 0)
(0 0.00582882 0)
(0 0.00572849 0)
(0 0.00585741 0)
(0 0.00562754 0)
(0 0.00575044 0)
(0 0.00552617 0)
(0 0.00539765 0)
(0 0.00530195 0)
(0 0.0148299 0)
(0 0.0155395 0)
(0 0.0155288 0)
(0 0.0155348 0)
(0 0.0155236 0)
(0 0.0155294 0)
(0 0.0155161 0)
(0 0.0155232 0)
(0 0.0155105 0)
(0 0.0155167 0)
(0 0.0155032 0)
(0 0.0155095 0)
(0 0.0155224 0)
(0 0.0155153 0)
(0 0.0155276 0)
(0 0.0155198 0)
(0 0.0155322 0)
(0 0.0155236 0)
(0 0.0155354 0)
(0 0.0155268 0)
(0 0.0155376 0)
(0 0.0155286 0)
(0 0.0155394 0)
(0 0.0155299 0)
(0 0.0155405 0)
(0 0.0155182 0)
(0 0.0154965 0)
(0 0.0155306 0)
(0 0.015541 0)
(0 0.00206325 0)
(0 0.00202904 0)
(0 0.0154955 0)
(0 0.0106041 0)
(0 0.00516751 0)
(0 0.00507756 0)
(0 0.0120225 0)
(0 0.00564295 0)
(0 0.0155309 0)
(0 0.0155407 0)
(0 0.0087455 0)
(0 0.010337 0)
(0 0.00194551 0)
(0 0.00190676 0)
(0 0.00199571 0)
(0 0.01177 0)
(0 0.011846 0)
(0 0.0115822 0)
(0 0.0116541 0)
(0 0.0113774 0)
(0 0.0114462 0)
(0 0.0111549 0)
(0 0.0112171 0)
(0 0.0109119 0)
(0 0.0109651 0)
(0 0.0155493 0)
(0 0.0155301 0)
(0 0.0155396 0)
(0 0.00493728 0)
(0 0.00485314 0)
(0 0.0147706 0)
(0 0.00898818 0)
(0 0.0106449 0)
(0 0.0106932 0)
(0 0.0110168 0)
(0 0.0107386 0)
(0 0.0110616 0)
(0 0.0107781 0)
(0 0.0111012 0)
(0 0.0108134 0)
(0 0.0111372 0)
(0 0.0108445 0)
(0 0.0111683 0)
(0 0.0108696 0)
(0 0.0111936 0)
(0 0.0108876 0)
(0 0.0112129 0)
(0 0.0108995 0)
(0 0.0112249 0)
(0 0.0109045 0)
(0 0.0112301 0)
(0 0.0109027 0)
(0 0.011229 0)
(0 0.0108942 0)
(0 0.0112212 0)
(0 0.0108795 0)
(0 0.0112063 0)
(0 0.00182467 0)
(0 0.00186892 0)
(0 0.00178445 0)
(0 0.0108591 0)
(0 0.0111851 0)
(0 0.0155281 0)
(0 0.0155377 0)
(0 0.0155178 0)
(0 0.0108325 0)
(0 0.0111574 0)
(0 0.0047073 0)
(0 0.00462891 0)
(0 0.00476871 0)
(0 0.00455001 0)
(0 0.0107999 0)
(0 0.011122 0)
(0 0.00170546 0)
(0 0.0016636 0)
(0 0.0103588 0)
(0 0.0155256 0)
(0 0.0155348 0)
(0 0.010757 0)
(0 0.0110781 0)
(0 0.0114884 0)
(0 0.00468351 0)
(0 0.00446988 0)
(0 0.00433192 0)
(0 0.0042569 0)
(0 0.0107048 0)
(0 0.0110281 0)
(0 0.0155455 0)
(0 0.0115327 0)
(0 0.00411476 0)
(0 0.0040453 0)
(0 0.0106482 0)
(0 0.0109731 0)
(0 0.011336 0)
(0 0.0112836 0)
(0 0.0109131 0)
(0 0.0112316 0)
(0 0.0108481 0)
(0 0.0111686 0)
(0 0.0107762 0)
(0 0.0110981 0)
(0 0.0155223 0)
(0 0.0155313 0)
(0 0.0155425 0)
(0 0.0155393 0)
(0 0.0155272 0)
(0 0.0155351 0)
(0 0.0155467 0)
(0 0.0155422 0)
(0 0.0155299 0)
(0 0.0155365 0)
(0 0.0155482 0)
(0 0.0155426 0)
(0 0.0155531 0)
(0 0.015548 0)
(0 0.0155574 0)
(0 0.0155527 0)
(0 0.015561 0)
(0 0.0155566 0)
(0 0.0155641 0)
(0 0.0155598 0)
(0 0.0155672 0)
(0 0.0155626 0)
(0 0.0155695 0)
(0 0.0155648 0)
(0 0.0155712 0)
(0 0.0155668 0)
(0 0.0155727 0)
(0 0.0155683 0)
(0 0.0155741 0)
(0 0.0155698 0)
(0 0.0155753 0)
(0 0.0155712 0)
(0 0.0155763 0)
(0 0.0155723 0)
(0 0.0155772 0)
(0 0.0155734 0)
(0 0.015578 0)
(0 0.0155743 0)
(0 0.0155788 0)
(0 0.0155751 0)
(0 0.0155793 0)
(0 0.0155757 0)
(0 0.0155797 0)
(0 0.0155762 0)
(0 0.0155801 0)
(0 0.0155765 0)
(0 0.0155718 0)
(0 0.0155683 0)
(0 0.01556 0)
(0 0.0155481 0)
(0 0.0155237 0)
(0 0.0155836 0)
(0 0.0155821 0)
(0 0.0106972 0)
(0 0.0110152 0)
(0 0.0114854 0)
(0 0.0105027 0)
(0 0.0015895 0)
(0 0.00154725 0)
(0 0.0106097 0)
(0 0.0109245 0)
(0 0.00438545 0)
(0 0.00478212 0)
(0 0.0105152 0)
(0 0.0108347 0)
(0 0.0155791 0)
(0 0.00389862 0)
(0 0.00383483 0)
(0 0.00147633 0)
(0 0.00143373 0)
(0 0.0014977 0)
(0 0.0105571 0)
(0 0.0155662 0)
(0 0.0155501 0)
(0 0.00136605 0)
(0 0.00140297 0)
(0 0.00368412 0)
(0 0.00362563 0)
(0 0.00132252 0)
(0 0.0105119 0)
(0 0.0146276 0)
(0 0.00347137 0)
(0 0.00341832 0)
(0 0.00352329 0)
(0 0.00356589 0)
(0 0.00336389 0)
(0 0.00350493 0)
(0 0.00330808 0)
(0 0.00125867 0)
(0 0.00121495 0)
(0 0.00344257 0)
(0 0.00325097 0)
(0 0.00311371 0)
(0 0.00306172 0)
(0 0.0103154 0)
(0 0.0100125 0)
(0 0.0099746 0)
(0 0.00965306 0)
(0 0.00961625 0)
(0 0.00927629 0)
(0 0.00924052 0)
(0 0.0103666 0)
(0 0.0140307 0)
(0 0.0150661 0)
(0 0.00888706 0)
(0 0.00885403 0)
(0 0.00292178 0)
(0 0.00287484 0)
(0 0.00300832 0)
(0 0.00282652 0)
(0 0.0103682 0)
(0 0.00115444 0)
(0 0.00111089 0)
(0 0.00269061 0)
(0 0.00264724 0)
(0 0.00478523 0)
(0 0.00848882 0)
(0 0.00845853 0)
(0 0.00851858 0)
(0 0.00330685 0)
(0 0.00335167 0)
(0 0.00295376 0)
(0 0.00105306 0)
(0 0.00101038 0)
(0 0.001059 0)
(0 0.00250917 0)
(0 0.00247076 0)
(0 0.00807627 0)
(0 0.00805134 0)
(0 0.0147839 0)
(0 0.00313165 0)
(0 0.0031686 0)
(0 0.000955324 0)
(0 0.000995104 0)
(0 0.000911319 0)
(0 0.00233101 0)
(0 0.0022974 0)
(0 0.0127199 0)
(0 0.0126197 0)
(0 0.0127662 0)
(0 0.0126622 0)
(0 0.0128062 0)
(0 0.0126992 0)
(0 0.0128588 0)
(0 0.0127295 0)
(0 0.0128725 0)
(0 0.0127471 0)
(0 0.0128856 0)
(0 0.0127582 0)
(0 0.0126043 0)
(0 0.0128927 0)
(0 0.0127623 0)
(0 0.012893 0)
(0 0.0127545 0)
(0 0.0128856 0)
(0 0.0130253 0)
(0 0.0127399 0)
(0 0.0130161 0)
(0 0.013154 0)
(0 0.0131425 0)
(0 0.0132783 0)
(0 0.00765092 0)
(0 0.00763273 0)
(0 0.014844 0)
(0 0.0155753 0)
(0 0.0114417 0)
(0 0.000851659 0)
(0 0.000816213 0)
(0 0.00294553 0)
(0 0.00297451 0)
(0 0.00215627 0)
(0 0.00212728 0)
(0 0.00226167 0)
(0 0.00209602 0)
(0 0.00218301 0)
(0 0.00222372 0)
(0 0.00206254 0)
(0 0.00193409 0)
(0 0.00190501 0)
(0 0.0128751 0)
(0 0.00218353 0)
(0 0.0154304 0)
(0 0.0154075 0)
(0 0.0154278 0)
(0 0.0132649 0)
(0 0.0133984 0)
(0 0.00642455 0)
(0 0.00800139 0)
(0 0.00324712 0)
(0 0.00454384 0)
(0 0.00612556 0)
(0 0.0131255 0)
(0 0.00801204 0)
(0 0.0067145 0)
(0 0.00609719 0)
(0 0.00764473 0)
(0 0.0116301 0)
(0 0.00721515 0)
(0 0.00720409 0)
(0 0.0076099 0)
(0 0.00718904 0)
(0 0.00758392 0)
(0 0.00717032 0)
(0 0.00755342 0)
(0 0.00714529 0)
(0 0.00751837 0)
(0 0.00711512 0)
(0 0.0067282 0)
(0 0.0067049 0)
(0 0.00708569 0)
(0 0.00668238 0)
(0 0.00722098 0)
(0 0.0146588 0)
(0 0.00676872 0)
(0 0.0126091 0)
(0 0.0125864 0)
(0 0.0124523 0)
(0 0.0124235 0)
(0 0.012286 0)
(0 0.00177274 0)
(0 0.0018971 0)
(0 0.00180884 0)
(0 0.00168491 0)
(0 0.00171853 0)
(0 0.00184138 0)
(0 0.00174874 0)
(0 0.00162667 0)
(0 0.00165489 0)
(0 0.0018703 0)
(0 0.00153364 0)
(0 0.0015601 0)
(0 0.00143966 0)
(0 0.00146452 0)
(0 0.00158324 0)
(0 0.00148599 0)
(0 0.00141173 0)
(0 0.00160273 0)
(0 0.0015039 0)
(0 0.000763485 0)
(0 0.0013883 0)
(0 0.00140487 0)
(0 0.000727106 0)
(0 0.000768002 0)
(0 0.00628725 0)
(0 0.00627262 0)
(0 0.00665709 0)
(0 0.00625457 0)
(0 0.0148636 0)
(0 0.0100768 0)
(0 0.0148948 0)
(0 0.0148548 0)
(0 0.0145869 0)
(0 0.0154044 0)
(0 0.0154249 0)
(0 0.00177598 0)
(0 0.00175107 0)
(0 0.0145735 0)
(0 0.0027486 0)
(0 0.00277076 0)
(0 0.0154464 0)
(0 0.0154435 0)
(0 0.0154217 0)
(0 0.0154404 0)
(0 0.0154182 0)
(0 0.0154372 0)
(0 0.0154138 0)
(0 0.0154332 0)
(0 0.0154081 0)
(0 0.0154281 0)
(0 0.0155096 0)
(0 0.00662776 0)
(0 0.00623216 0)
(0 0.013383 0)
(0 0.0135142 0)
(0 0.00584798 0)
(0 0.0058335 0)
(0 0.00620707 0)
(0 0.00581523 0)
(0 0.00617835 0)
(0 0.00579304 0)
(0 0.00614695 0)
(0 0.0057679 0)
(0 0.00540617 0)
(0 0.00538858 0)
(0 0.00573921 0)
(0 0.00536695 0)
(0 0.0154019 0)
(0 0.0154225 0)
(0 0.00161848 0)
(0 0.00068061 0)
(0 0.00071448 0)
(0 0.00300136 0)
(0 0.00279083 0)
(0 0.00302558 0)
(0 0.0028066 0)
(0 0.00304808 0)
(0 0.00281865 0)
(0 0.00306846 0)
(0 0.00129041 0)
(0 0.00130594 0)
(0 0.00282767 0)
(0 0.00308509 0)
(0 0.00570684 0)
(0 0.00534172 0)
(0 0.00499865 0)
(0 0.004977 0)
(0 0.00531462 0)
(0 0.00495721 0)
(0 0.00528545 0)
(0 0.00493574 0)
(0 0.00525366 0)
(0 0.00491134 0)
(0 0.00458568 0)
(0 0.00456906 0)
(0 0.00488467 0)
(0 0.00454988 0)
(0 0.00485563 0)
(0 0.00452807 0)
(0 0.000641253 0)
(0 0.00421655 0)
(0 0.00420209 0)
(0 0.00450336 0)
(0 0.00418447 0)
(0 0.0122536 0)
(0 0.0121147 0)
(0 0.0125531 0)
(0 0.00283401 0)
(0 0.00162161 0)
(0 0.00160084 0)
(0 0.00172343 0)
(0 0.00157736 0)
(0 0.00169329 0)
(0 0.00155137 0)
(0 0.0134961 0)
(0 0.00143551 0)
(0 0.00141354 0)
(0 0.0147825 0)
(0 0.0136257 0)
(0 0.0136395 0)
(0 0.0152987 0)
(0 0.0152613 0)
(0 0.0152814 0)
(0 0.015243 0)
(0 0.015263 0)
(0 0.0154633 0)
(0 0.00544015 0)
(0 0.0155968 0)
(0 0.0155951 0)
(0 0.0155961 0)
(0 0.0155944 0)
(0 0.0155954 0)
(0 0.0155937 0)
(0 0.0155948 0)
(0 0.0155928 0)
(0 0.015594 0)
(0 0.0155917 0)
(0 0.0155929 0)
(0 0.015595 0)
(0 0.015594 0)
(0 0.0155958 0)
(0 0.0155948 0)
(0 0.0155904 0)
(0 0.0155965 0)
(0 0.0155956 0)
(0 0.0155937 0)
(0 0.0155944 0)
(0 0.0155964 0)
(0 0.0155951 0)
(0 0.015593 0)
(0 0.0155937 0)
(0 0.0155955 0)
(0 0.0155942 0)
(0 0.015596 0)
(0 0.0155946 0)
(0 0.0155963 0)
(0 0.0155948 0)
(0 0.0155964 0)
(0 0.0155949 0)
(0 0.0155964 0)
(0 0.0155948 0)
(0 0.0155962 0)
(0 0.0155916 0)
(0 0.0155967 0)
(0 0.0155945 0)
(0 0.0155959 0)
(0 0.0155929 0)
(0 0.0155929 0)
(0 0.0155914 0)
(0 0.0153946 0)
(0 0.0154159 0)
(0 0.00447341 0)
(0 0.00387774 0)
(0 0.00254457 0)
(0 0.0011926 0)
(0 0.0012073 0)
(0 0.00131807 0)
(0 0.00121858 0)
(0 0.00918286 0)
(0 0.0152214 0)
(0 0.000600586 0)
(0 0.000560823 0)
(0 0.00462002 0)
(0 0.0154575 0)
(0 0.0153951 0)
(0 0.0153871 0)
(0 0.0154088 0)
(0 0.0136053 0)
(0 0.0134706 0)
(0 0.0016607 0)
(0 0.0152018 0)
(0 0.00132653 0)
(0 0.0012263 0)
(0 0.0011197 0)
(0 0.00112699 0)
(0 0.0155941 0)
(0 0.0155953 0)
(0 0.01538 0)
(0 0.0154006 0)
(0 0.0153712 0)
(0 0.0153911 0)
(0 0.0137482 0)
(0 0.0137576 0)
(0 0.0130118 0)
(0 0.00129791 0)
(0 0.00127979 0)
(0 0.00386794 0)
(0 0.00355507 0)
(0 0.0120777 0)
(0 0.011939 0)
(0 0.0119754 0)
(0 0.0117985 0)
(0 0.0118328 0)
(0 0.011656 0)
(0 0.0116885 0)
(0 0.0115098 0)
(0 0.0115416 0)
(0 0.0113659 0)
(0 0.0113885 0)
(0 0.0112187 0)
(0 0.0112319 0)
(0 0.0110584 0)
(0 0.0110736 0)
(0 0.0108967 0)
(0 0.0109136 0)
(0 0.0107377 0)
(0 0.0122146 0)
(0 0.0107514 0)
(0 0.0105764 0)
(0 0.0108683 0)
(0 0.0105869 0)
(0 0.0104132 0)
(0 0.0103956 0)
(0 0.0102334 0)
(0 0.010248 0)
(0 0.0100696 0)
(0 0.0114052 0)
(0 0.0113126 0)
(0 0.0100812 0)
(0 0.00990415 0)
(0 0.00988657 0)
(0 0.00972224 0)
(0 0.00973793 0)
(0 0.0095581 0)
(0 0.00957136 0)
(0 0.00939376 0)
(0 0.00940433 0)
(0 0.00922757 0)
(0 0.00923549 0)
(0 0.00906033 0)
(0 0.009046 0)
(0 0.00888092 0)
(0 0.00889396 0)
(0 0.00871673 0)
(0 0.00869643 0)
(0 0.00853422 0)
(0 0.00953544 0)
(0 0.008553 0)
(0 0.00837267 0)
(0 0.00834693 0)
(0 0.00818815 0)
(0 0.00821067 0)
(0 0.00802903 0)
(0 0.0080476 0)
(0 0.0078692 0)
(0 0.00788422 0)
(0 0.00770903 0)
(0 0.00772082 0)
(0 0.00754865 0)
(0 0.00755735 0)
(0 0.00738809 0)
(0 0.00252693 0)
(0 0.00791398 0)
(0 0.00232221 0)
(0 0.0152994 0)
(0 0.0152806 0)
(0 0.0010217 0)
(0 0.00102883 0)
(0 0.0153605 0)
(0 0.0153803 0)
(0 0.0151786 0)
(0 0.00586101 0)
(0 0.00574815 0)
(0 0.00596013 0)
(0 0.00584214 0)
(0 0.00604817 0)
(0 0.00592531 0)
(0 0.0154407 0)
(0 0.00131836 0)
(0 0.00128896 0)
(0 0.00119595 0)
(0 0.00116516 0)
(0 0.00163973 0)
(0 0.00148524 0)
(0 0.00149626 0)
(0 0.00784407 0)
(0 0.00258609 0)
(0 0.000522074 0)
(0 0.0004851 0)
(0 0.000516443 0)
(0 0.00652638 0)
(0 0.015597 0)
(0 0.0155964 0)
(0 0.0155944 0)
(0 0.0155958 0)
(0 0.0155973 0)
(0 0.0155966 0)
(0 0.0155979 0)
(0 0.0155973 0)
(0 0.0155984 0)
(0 0.0155978 0)
(0 0.0155987 0)
(0 0.0155982 0)
(0 0.015599 0)
(0 0.0155985 0)
(0 0.0155992 0)
(0 0.0155987 0)
(0 0.0155979 0)
(0 0.0155981 0)
(0 0.0155989 0)
(0 0.0155984 0)
(0 0.0155991 0)
(0 0.0155986 0)
(0 0.0155993 0)
(0 0.0155988 0)
(0 0.0155994 0)
(0 0.015599 0)
(0 0.0155995 0)
(0 0.0155991 0)
(0 0.0155996 0)
(0 0.0155992 0)
(0 0.0155997 0)
(0 0.0155993 0)
(0 0.0155998 0)
(0 0.0155994 0)
(0 0.0155998 0)
(0 0.0155995 0)
(0 0.0155999 0)
(0 0.0155996 0)
(0 0.015599 0)
(0 0.0155991 0)
(0 0.0155996 0)
(0 0.0155992 0)
(0 0.0155997 0)
(0 0.0155993 0)
(0 0.0155998 0)
(0 0.0155994 0)
(0 0.0155986 0)
(0 0.0155987 0)
(0 0.0155983 0)
(0 0.0155971 0)
(0 0.0155951 0)
(0 0.00230986 0)
(0 0.0153147 0)
(0 0.0152962 0)
(0 0.0152597 0)
(0 0.015275 0)
(0 0.0153103 0)
(0 0.0152885 0)
(0 0.0153228 0)
(0 0.0153 0)
(0 0.0153332 0)
(0 0.0153096 0)
(0 0.0153419 0)
(0 0.0153173 0)
(0 0.0153488 0)
(0 0.0153233 0)
(0 0.0152894 0)
(0 0.0152944 0)
(0 0.0153275 0)
(0 0.0152978 0)
(0 0.0153301 0)
(0 0.0152994 0)
(0 0.0153312 0)
(0 0.0152991 0)
(0 0.0153302 0)
(0 0.015267 0)
(0 0.0152644 0)
(0 0.0152585 0)
(0 0.0152968 0)
(0 0.0153268 0)
(0 0.00737223 0)
(0 0.00721568 0)
(0 0.00722791 0)
(0 0.00706024 0)
(0 0.0138099 0)
(0 0.0152921 0)
(0 0.0153214 0)
(0 0.00133121 0)
(0 0.0139238 0)
(0 0.0155974 0)
(0 0.0153822 0)
(0 0.0138627 0)
(0 0.0117228 0)
(0 0.0135776 0)
(0 0.0134375 0)
(0 0.012032 0)
(0 0.0121661 0)
(0 0.0156 0)
(0 0.00559553 0)
(0 0.00355402 0)
(0 0.0151575 0)
(0 0.00116463 0)
(0 0.00115042 0)
(0 0.00125898 0)
(0 0.00113351 0)
(0 0.0154186 0)
(0 0.0155998 0)
(0 0.0151324 0)
(0 0.0070681 0)
(0 0.00690197 0)
(0 0.00210356 0)
(0 0.00209754 0)
(0 0.00323534 0)
(0 0.00322602 0)
(0 0.00102569 0)
(0 0.00101258 0)
(0 0.001114 0)
(0 0.000996691 0)
(0 0.000445795 0)
(0 0.000478835 0)
(0 0.0152853 0)
(0 0.0153143 0)
(0 0.015254 0)
(0 0.0153483 0)
(0 0.015341 0)
(0 0.0153056 0)
(0 0.015332 0)
(0 0.0156002 0)
(0 0.0055048 0)
(0 0.0010723 0)
(0 0.00104027 0)
(0 0.00134189 0)
(0 0.00134555 0)
(0 0.0110954 0)
(0 0.0057245 0)
(0 0.00580301 0)
(0 0.00560712 0)
(0 0.00568121 0)
(0 0.00548981 0)
(0 0.00555965 0)
(0 0.0053727 0)
(0 0.00543833 0)
(0 0.00525566 0)
(0 0.00531698 0)
(0 0.00513866 0)
(0 0.0051958 0)
(0 0.00502188 0)
(0 0.00536864 0)
(0 0.0052434 0)
(0 0.00541066 0)
(0 0.00528161 0)
(0 0.0054432 0)
(0 0.00557624 0)
(0 0.00560291 0)
(0 0.00546637 0)
(0 0.00327387 0)
(0 0.00314476 0)
(0 0.00318187 0)
(0 0.00303947 0)
(0 0.00308726 0)
(0 0.0029573 0)
(0 0.00299498 0)
(0 0.00286876 0)
(0 0.00289914 0)
(0 0.00277428 0)
(0 0.00280034 0)
(0 0.000924882 0)
(0 0.00093206 0)
(0 0.000914369 0)
(0 0.00103242 0)
(0 0.000935692 0)
(0 0.000409625 0)
(0 0.0142241 0)
(0 0.0153482 0)
(0 0.0153687 0)
(0 0.0153585 0)
(0 0.0138465 0)
(0 0.0139581 0)
(0 0.0137318 0)
(0 0.00690847 0)
(0 0.0153481 0)
(0 0.00562018 0)
(0 0.0153653 0)
(0 0.0153703 0)
(0 0.0119765 0)
(0 0.0121077 0)
(0 0.00324236 0)
(0 0.0035462 0)
(0 0.0109225 0)
(0 0.0155989 0)
(0 0.0011319 0)
(0 0.00100591 0)
(0 0.00109618 0)
(0 0.000969372 0)
(0 0.00105867 0)
(0 0.00188922 0)
(0 0.00188995 0)
(0 0.00190399 0)
(0 0.00548037 0)
(0 0.000836932 0)
(0 0.000840906 0)
(0 0.000935678 0)
(0 0.00084124 0)
(0 0.00340583 0)
(0 0.0152946 0)
(0 0.00674572 0)
(0 0.00674724 0)
(0 0.00719358 0)
(0 0.00495972 0)
(0 0.00484716 0)
(0 0.00267515 0)
(0 0.00269968 0)
(0 0.0047801 0)
(0 0.00467184 0)
(0 0.00473466 0)
(0 0.00456369 0)
(0 0.00462219 0)
(0 0.00445558 0)
(0 0.00439248 0)
(0 0.00428878 0)
(0 0.00434754 0)
(0 0.00418508 0)
(0 0.00412209 0)
(0 0.0040228 0)
(0 0.00395538 0)
(0 0.0038606 0)
(0 0.00423946 0)
(0 0.000896347 0)
(0 0.000884065 0)
(0 0.00332302 0)
(0 0.00037571 0)
(0 0.0080558 0)
(0 0.00291873 0)
(0 0.0155996 0)
(0 0.00957644 0)
(0 0.00334799 0)
(0 0.00293372 0)
(0 0.0137658 0)
(0 0.0135429 0)
(0 0.0136812 0)
(0 0.0133974 0)
(0 0.00735411 0)
(0 0.0153347 0)
(0 0.000342671 0)
(0 0.015356 0)
(0 0.0153875 0)
(0 0.0153629 0)
(0 0.0151101 0)
(0 0.0150833 0)
(0 0.00292531 0)
(0 0.00363572 0)
(0 0.00234362 0)
(0 0.00229694 0)
(0 0.0024558 0)
(0 0.00240288 0)
(0 0.00256032 0)
(0 0.00250149 0)
(0 0.00265723 0)
(0 0.00259285 0)
(0 0.00274672 0)
(0 0.00244112 0)
(0 0.0120359 0)
(0 0.00109177 0)
(0 0.000947386 0)
(0 0.00378821 0)
(0 0.00369939 0)
(0 0.000748182 0)
(0 0.000749117 0)
(0 0.00257098 0)
(0 0.00259474 0)
(0 0.00969097 0)
(0 0.0136452 0)
(0 0.0137811 0)
(0 0.00454977 0)
(0 0.00462113 0)
(0 0.00562833 0)
(0 0.00119163 0)
(0 0.00118772 0)
(0 0.0119112 0)
(0 0.0117801 0)
(0 0.0120397 0)
(0 0.0122347 0)
(0 0.00548517 0)
(0 0.00534123 0)
(0 0.00254604 0)
(0 0.000785004 0)
(0 0.000776266 0)
(0 0.0138683 0)
(0 0.0139702 0)
(0 0.00167774 0)
(0 0.00168711 0)
(0 0.00376644 0)
(0 0.00361394 0)
(0 0.0137666 0)
(0 0.00267718 0)
(0 0.00246924 0)
(0 0.00248909 0)
(0 0.00236949 0)
(0 0.00238393 0)
(0 0.0136489 0)
(0 0.00354247 0)
(0 0.00577405 0)
(0 0.0155973 0)
(0 0.00260528 0)
(0 0.00262843 0)
(0 0.00282904 0)
(0 0.00209516 0)
(0 0.000931885 0)
(0 0.00587166 0)
(0 0.000312493 0)
(0 0.0138261 0)
(0 0.0136952 0)
(0 0.0138667 0)
(0 0.0137362 0)
(0 0.0139039 0)
(0 0.0137738 0)
(0 0.0139388 0)
(0 0.0138093 0)
(0 0.0139703 0)
(0 0.0138422 0)
(0 0.0139984 0)
(0 0.0138721 0)
(0 0.0140239 0)
(0 0.0138979 0)
(0 0.0140461 0)
(0 0.0139198 0)
(0 0.0137663 0)
(0 0.0137843 0)
(0 0.0139388 0)
(0 0.0137959 0)
(0 0.0139533 0)
(0 0.0138108 0)
(0 0.013955 0)
(0 0.0138193 0)
(0 0.013955 0)
(0 0.0138247 0)
(0 0.0139641 0)
(0 0.013829 0)
(0 0.0139716 0)
(0 0.0138292 0)
(0 0.0139736 0)
(0 0.0138241 0)
(0 0.0136735 0)
(0 0.0136668 0)
(0 0.0138153 0)
(0 0.0136566 0)
(0 0.0138019 0)
(0 0.0136419 0)
(0 0.0137848 0)
(0 0.0136228 0)
(0 0.0136108 0)
(0 0.013671 0)
(0 0.0136369 0)
(0 0.0135085 0)
(0 0.0137635 0)
(0 0.0135993 0)
(0 0.0134505 0)
(0 0.0134257 0)
(0 0.0132659 0)
(0 0.0132406 0)
(0 0.0139385 0)
(0 0.0137371 0)
(0 0.0141057 0)
(0 0.0140265 0)
(0 0.0130702 0)
(0 0.0130439 0)
(0 0.0132115 0)
(0 0.0130132 0)
(0 0.0140896 0)
(0 0.0141349 0)
(0 0.013178 0)
(0 0.012978 0)
(0 0.013093 0)
(0 0.0128859 0)
(0 0.0129063 0)
(0 0.000284558 0)
(0 0.000312526 0)
(0 0.0013462 0)
(0 0.00118074 0)
(0 0.00134391 0)
(0 0.00117076 0)
(0 0.0153776 0)
(0 0.0154076 0)
(0 0.0154152 0)
(0 0.000978424 0)
(0 0.000657754 0)
(0 0.0006596 0)
(0 0.00283442 0)
(0 0.00690567 0)
(0 0.00674107 0)
(0 0.0121631 0)
(0 0.0123516 0)
(0 0.000853242 0)
(0 0.000883631 0)
(0 0.0118595 0)
(0 0.0139718 0)
(0 0.0140711 0)
(0 0.0140691 0)
(0 0.0132855 0)
(0 0.00659611 0)
(0 0.0067201 0)
(0 0.00084116 0)
(0 0.014167 0)
(0 0.0141652 0)
(0 0.0141643 0)
(0 0.0153121 0)
(0 0.0152969 0)
(0 0.0022654 0)
(0 0.00227703 0)
(0 0.0023923 0)
(0 0.00228346 0)
(0 0.0117072 0)
(0 0.0115778 0)
(0 0.00143296 0)
(0 0.00143454 0)
(0 0.00153789 0)
(0 0.00153634 0)
(0 0.00164133 0)
(0 0.0014319 0)
(0 0.000678672 0)
(0 0.000673324 0)
(0 0.000764342 0)
(0 0.000664693 0)
(0 0.000680915 0)
(0 0.00275403 0)
(0 0.00290344 0)
(0 0.00133863 0)
(0 0.00115769 0)
(0 0.00562698 0)
(0 0.0054809 0)
(0 0.00367136 0)
(0 0.0131402 0)
(0 0.0129387 0)
(0 0.0127667 0)
(0 0.0133292 0)
(0 0.00281471 0)
(0 0.0022961 0)
(0 0.00232759 0)
(0 0.00225991 0)
(0 0.0153185 0)
(0 0.000569927 0)
(0 0.000572973 0)
(0 0.000657912 0)
(0 0.000572464 0)
(0 0.00387908 0)
(0 0.00147118 0)
(0 0.0151353 0)
(0 0.0150867 0)
(0 0.0151112 0)
(0 0.000254104 0)
(0 0.000277907 0)
(0 0.0137436 0)
(0 0.0138769 0)
(0 0.0132901 0)
(0 0.0132437 0)
(0 0.000228605 0)
(0 0.00074922 0)
(0 0.000652797 0)
(0 0.00057015 0)
(0 0.000561318 0)
(0 0.000563531 0)
(0 0.0153975 0)
(0 0.0154254 0)
(0 0.00103459 0)
(0 0.00104292 0)
(0 0.00153023 0)
(0 0.00142503 0)
(0 0.00438075 0)
(0 0.00444587 0)
(0 0.00469192 0)
(0 0.00451047 0)
(0 0.00476148 0)
(0 0.00457236 0)
(0 0.00483025 0)
(0 0.00463245 0)
(0 0.00489869 0)
(0 0.00469218 0)
(0 0.00496571 0)
(0 0.00217014 0)
(0 0.00217452 0)
(0 0.0136797 0)
(0 0.000758121 0)
(0 0.000788288 0)
(0 0.000726046 0)
(0 0.0122807 0)
(0 0.0155579 0)
(0 0.0127262 0)
(0 0.0125431 0)
(0 0.0150607 0)
(0 0.0150836 0)
(0 0.0155402 0)
(0 0.015084 0)
(0 0.0135604 0)
(0 0.00689215 0)
(0 0.0155713 0)
(0 0.00529853 0)
(0 0.0155977 0)
(0 0.0155489 0)
(0 0.00282417 0)
(0 0.00267648 0)
(0 0.0120821 0)
(0 0.00239543 0)
(0 0.0126869 0)
(0 0.0127058 0)
(0 0.0155806 0)
(0 0.0150316 0)
(0 0.0156001 0)
(0 0.0155829 0)
(0 0.000652487 0)
(0 0.000568263 0)
(0 0.000490294 0)
(0 0.000487623 0)
(0 0.0147548 0)
(0 0.0150701 0)
(0 0.0150699 0)
(0 0.0155996 0)
(0 0.0148512 0)
(0 0.0150401 0)
(0 0.00264746 0)
(0 0.00235323 0)
(0 0.00203266 0)
(0 0.00206571 0)
(0 0.00475123 0)
(0 0.00503196 0)
(0 0.00447284 0)
(0 0.0151254 0)
(0 0.0155486 0)
(0 0.0114254 0)
(0 0.0140893 0)
(0 0.0115367 0)
(0 0.0131345 0)
(0 0.0130819 0)
(0 0.0131889 0)
(0 0.0130205 0)
(0 0.0129232 0)
(0 0.0153591 0)
(0 0.000200699 0)
(0 0.0154155 0)
(0 0.00672755 0)
(0 0.00298659 0)
(0 0.0153425 0)
(0 0.0124348 0)
(0 0.0132897 0)
(0 0.0134689 0)
(0 0.0154399 0)
(0 0.0154481 0)
(0 0.0153986 0)
(0 0.0155978 0)
(0 0.0155984 0)
(0 0.0155988 0)
(0 0.0155993 0)
(0 0.0155995 0)
(0 0.0155999 0)
(0 0.0156001 0)
(0 0.0155996 0)
(0 0.0156001 0)
(0 0.0155999 0)
(0 0.0156003 0)
(0 0.0156001 0)
(0 0.0155998 0)
(0 0.0156002 0)
(0 0.0156005 0)
(0 0.0155999 0)
(0 0.0156004 0)
(0 0.0156001 0)
(0 0.0156005 0)
(0 0.0156003 0)