/*--------------------------------*- C++ -*----------------------------------*\
| =========                 |                                                 |
| \\      /  F ield         | OpenFOAM: The Open Source CFD Toolbox           |
|  \\    /   O peration     | Version:  v2012                                 |
|   \\  /    A nd           | Website:  www.openfoam.com                      |
|    \\/     M anipulation  |                                                 |
\*---------------------------------------------------------------------------*/
FoamFile
{
    version     2.0;
    format      ascii;
    class       volScalarField;
    location    "600";
    object      ddt0(k);
}
// * * * * * * * * * * * * * * * * * * * * * * * * * * * * * * * * * * * * * //

dimensions      [0 2 -3 0 0 0 0];


internalField   nonuniform List<scalar> 
13851
(
-3.5478e-07
-0.00591727
5.97187e-07
-2.52418e-07
-2.04008e-07
-1.23365e-05
8.91306e-08
4.19336e-07
1.48106e-08
3.52125e-06
-0.000254729
0.00288199
0.00070303
0.00337214
1.00238e-07
-1.14401e-07
6.94498e-08
6.42137e-07
0.000209953
1.58736e-08
-2.05517e-07
2.68644e-07
-1.30073e-08
-1.25344e-07
-3.09365e-08
4.89127e-07
7.29218e-08
0.000444823
-2.64854e-07
1.56459e-07
6.32443e-05
7.45483e-08
5.50831e-07
-0.00175673
-1.25233e-07
2.20396e-06
-1.22509e-05
-7.98852e-06
4.08194e-06
-0.00392948
7.68769e-08
-5.21639e-09
-0.000597017
5.12384e-06
-0.000333305
0.00188294
-0.000356082
-0.00103888
7.44814e-08
-0.000503411
1.71993e-07
-4.14782e-08
0.000220986
1.12718e-07
9.63143e-08
-5.5253e-09
-6.50589e-08
0.000256063
1.62001e-07
8.37567e-08
-9.18748e-06
-0.00265784
1.38622e-05
-3.72632e-07
-1.16582e-05
-1.06416e-06
0.000102925
8.6398e-05
1.19896e-07
6.87525e-07
5.47415e-05
-0.000980381
-0.00694685
1.17072e-07
8.25106e-08
1.00123e-08
4.383e-07
-0.000173674
1.06575e-07
9.8424e-05
6.99218e-08
-0.000941771
8.37905e-08
0.00114685
1.14211e-05
0.00356199
-4.05294e-07
0.00999054
8.44859e-08
-3.07775e-07
2.72236e-06
3.65641e-06
0.000424271
1.0197e-07
8.34227e-08
-1.64813e-07
-2.14879e-07
0.000641774
-0.00215717
-1.67197e-07
0.00154935
7.42919e-08
8.39869e-08
6.62088e-08
1.49899e-07
0.000101559
8.67359e-08
-7.3212e-09
-0.00132834
-3.97118e-05
-1.71627e-07
-3.85422e-07
4.39241e-06
-1.86547e-07
-1.62869e-07
0.00206382
0.000785549
-4.91573e-09
-5.22651e-08
5.03219e-08
-0.000592605
6.39485e-08
0.000899619
0.00381982
-0.000583922
3.10604e-08
0.00276119
1.00972e-07
-1.48789e-07
-7.98266e-07
8.1791e-08
4.85554e-08
4.40656e-05
8.13012e-08
-0.00100309
5.33951e-08
-5.21381e-09
-0.000973535
-0.00491356
0.00357555
0.000603847
1.11743e-07
6.26188e-07
2.92984e-09
7.01913e-08
0.00015918
3.74293e-05
-8.3466e-07
8.98954e-08
-0.000393066
5.28147e-07
7.52822e-08
0.00421558
-6.47589e-08
7.13812e-08
7.07789e-08
4.50791e-08
1.21157e-07
-1.07551e-07
1.68567e-07
-2.24189e-08
9.35082e-08
0.00046757
4.8173e-08
-8.43588e-08
-1.51408e-08
5.78523e-05
1.21881e-07
-1.23864e-07
-0.000561443
-0.000146859
1.96453e-08
4.58528e-08
0.00336972
4.79658e-08
-0.00155948
8.82925e-08
3.70631e-07
0.000211955
-1.21643e-08
7.16061e-08
-0.00121
8.19749e-08
2.9694e-07
-3.92558e-09
-9.72587e-08
-1.03262e-06
1.11445e-07
-3.32014e-07
2.69029e-06
5.5152e-05
0.000236005
-5.64604e-07
1.2575e-07
-0.00213649
7.08655e-08
4.44747e-07
-0.000168843
3.73419e-07
1.07358e-08
-4.9484e-07
0.00335878
-1.22349e-07
8.72982e-08
3.15205e-06
7.86751e-08
-0.00873592
7.48749e-08
-0.000159357
-3.26315e-08
-0.000669884
7.04784e-08
0.00044516
-1.30641e-08
-6.96023e-10
-8.87626e-05
-5.17101e-06
0.00225237
9.68303e-08
-0.000180211
8.03782e-08
7.01073e-08
0.000131958
-4.71083e-07
-0.000490434
-8.48721e-08
1.19143e-07
1.64807e-07
-0.000428858
-1.76315e-08
4.76587e-07
6.09367e-05
1.88643e-08
-4.58741e-07
2.18163e-07
-1.01037e-06
-0.00943482
-1.12552e-05
2.01933e-08
8.94971e-08
0.000162223
-0.000411128
1.15566e-07
4.29259e-06
1.29716e-07
-0.000344696
8.52697e-08
-0.00147764
7.11265e-08
2.34048e-08
-4.26396e-06
-0.000448548
8.12204e-08
6.96171e-08
1.88617e-07
0.00794828
1.0176e-06
-0.00120811
-0.000154343
8.34971e-08
3.24565e-09
8.66336e-07
-0.00648659
-2.28937e-07
0.00103045
7.08714e-08
8.47562e-08
9.67671e-08
0.000153685
0.000177409
-4.3727e-06
7.17979e-08
8.51256e-05
1.06271e-07
-1.18317e-07
4.88918e-08
-0.000874169
0.000537199
-0.000586284
-0.000411059
1.53623e-07
-2.70239e-08
1.76355e-07
1.79094e-07
-0.01024
-0.00307644
1.20893e-08
9.95319e-08
9.09744e-05
-0.00109961
-7.98826e-07
1.48373e-07
8.4429e-08
1.25595e-07
-0.00104092
0.000836115
-8.60803e-08
0.0033606
4.93178e-08
-0.00038879
9.13926e-08
6.65592e-08
-0.000626949
1.007e-07
7.7008e-05
-0.000254687
1.56871e-08
1.59976e-07
1.05237e-07
1.51447e-07
-0.00728193
-7.3996e-08
8.89361e-08
0.000331254
-8.70711e-09
2.10059e-08
-1.04141e-06
-0.000757231
1.35864e-06
9.3199e-08
1.28235e-07
9.23748e-08
-0.000215392
-1.86729e-06
-4.13638e-08
4.36603e-08
1.27714e-06
1.15002e-07
7.04431e-08
1.00949e-07
1.01475e-07
8.98079e-08
-0.000127116
0.00715523
-0.000542633
1.93245e-06
-0.000811602
-6.48855e-05
1.02937e-07
1.30721e-07
-5.26174e-07
8.52769e-06
-3.12884e-06
9.85307e-08
0.000203935
-1.69156e-07
-0.00774436
-0.000370327
1.05631e-07
-0.000243955
-0.000457859
-0.00020716
7.06115e-08
-6.57978e-06
-0.000383404
5.17572e-08
-0.00361757
4.38067e-08
9.5208e-08
1.03918e-07
-9.50507e-09
4.76003e-08
-0.000423411
6.23485e-05
1.00309e-07
1.42165e-07
-6.87834e-09
0.00211458
-9.97434e-07
-0.00682533
-0.000553254
1.02164e-07
-4.26839e-06
1.07586e-07
-0.00361139
8.61463e-08
-4.72373e-09
-1.58984e-06
0.00329717
9.24566e-08
-0.00768034
6.40239e-06
3.14515e-07
0.000350726
-0.00122308
-0.00148074
-6.46188e-06
4.67942e-08
1.30522e-07
2.23099e-06
1.38342e-07
0.00497342
1.21637e-07
-0.000629776
-0.000314788
-9.933e-09
8.85368e-08
-0.000489466
6.59816e-05
0.000144618
0.000704434
-1.14449e-06
1.117e-07
-1.52662e-07
0.000274757
2.49001e-08
-1.27486e-08
-2.65986e-06
7.712e-08
1.8775e-07
1.4871e-08
-1.35284e-08
-3.3124e-07
-2.4005e-06
-0.000339958
1.07668e-06
1.40403e-07
-3.97386e-06
-0.00036952
-1.41065e-08
-0.000833741
6.72014e-08
-7.35693e-05
-5.72418e-09
1.49297e-08
-1.17864e-07
-2.77908e-05
-0.000955882
-6.40044e-07
-3.05614e-06
-0.000288588
0.000467681
8.49753e-06
5.91522e-08
2.57403e-07
8.24192e-08
-0.000626053
1.11143e-07
-0.00782829
-0.00128916
1.01194e-06
-0.000158942
6.33409e-07
0.000441715
-0.00118513
0.00388015
-1.00558e-08
1.30884e-07
8.94316e-08
0.000390189
2.30434e-08
9.28136e-08
4.90418e-07
1.36978e-07
1.35236e-06
-0.00336087
-9.34196e-08
4.77545e-08
-0.000242371
-1.44076e-07
-2.2716e-08
0.00870889
4.792e-08
-3.64489e-07
2.48857e-08
-1.19052e-06
1.37124e-07
-2.52649e-08
5.32745e-07
0.000522161
8.2178e-08
1.27868e-07
5.6967e-08
-3.16339e-06
0.00125367
-1.78305e-07
9.80836e-08
-1.90119e-07
-1.96135e-07
-0.00258322
7.97686e-08
2.78537e-06
8.11302e-08
-1.27018e-07
3.10248e-05
-0.000141411
7.70365e-08
-5.63749e-07
-7.84807e-09
-0.000538285
0.0015497
5.14097e-08
0.00136031
8.35431e-08
-1.4476e-07
7.98047e-08
-0.000201028
-7.12002e-09
2.46384e-05
-1.45784e-06
-6.22919e-09
2.67101e-06
8.23466e-05
5.91787e-07
-0.000932422
-3.92393e-08
0.00118555
9.66934e-08
4.05751e-08
4.76972e-08
8.21442e-08
4.28485e-05
9.88051e-08
1.00434e-06
0.000556777
-7.31691e-06
-3.00069e-08
0.00157454
-0.00180132
7.56455e-08
9.59863e-08
-0.000949285
0.00397354
-0.000820796
1.40726e-07
-0.000106585
0.00148002
0.00290787
-1.39256e-07
8.73578e-06
0.0051914
0.000547442
0.00649433
0.000133881
-0.00887971
1.24833e-07
-0.00838122
-0.00134937
-8.20571e-09
0.00047309
1.47151e-07
-0.000120607
6.96894e-08
8.6186e-08
4.58498e-08
7.53618e-08
-3.85781e-07
-8.12887e-07
0.00878428
-0.00109178
4.06521e-08
-0.000374367
-0.000186049
-0.000847215
-0.00159467
1.24956e-07
-1.82482e-08
1.59505e-08
0.000405852
0.00146184
7.04319e-08
7.20952e-07
3.75128e-06
-6.43637e-09
-4.23137e-06
0.00519769
5.46537e-06
-1.628e-07
2.75286e-05
-0.00148526
8.39481e-08
7.97419e-08
0.00287073
-0.000268228
1.29095e-06
1.23491e-07
-2.3346e-05
-9.57587e-09
7.0555e-08
-0.00734742
-6.24457e-09
7.11472e-08
-1.36435e-08
5.75984e-08
-0.00136504
-3.90783e-07
-2.4147e-06
-6.39596e-09
-0.00815425
0.00108746
4.83867e-08
-4.53004e-08
-6.0883e-07
1.32112e-07
0.00251763
-0.000616687
-0.000395584
0.00307482
-0.002863
1.19574e-07
-0.000104356
-0.000131753
1.54274e-07
1.22459e-07
-1.78816e-08
-5.208e-07
1.55543e-07
0.00078562
-0.0100325
7.52783e-07
1.16981e-07
2.09333e-08
-2.57067e-07
3.84756e-07
-0.00104017
2.93958e-08
8.37567e-08
1.45696e-06
2.47225e-08
9.43422e-08
-6.65074e-07
8.37771e-08
8.25196e-08
-8.84082e-07
8.20577e-08
-1.5257e-07
-1.83005e-05
-5.50211e-07
-3.89347e-07
1.33855e-06
2.20579e-08
7.90626e-05
-4.12457e-06
0.00220977
7.60398e-08
-1.61873e-07
-0.00132037
3.14614e-07
0.000235789
-0.000348439
0.0018323
0.00819092
2.43853e-08
-0.00124466
3.27127e-07
5.46973e-08
-8.09666e-09
5.55662e-08
3.70588e-06
1.57109e-06
-1.03761e-06
-6.44095e-09
-0.00223517
-4.87857e-07
-0.00202399
4.85727e-08
6.8194e-09
-4.0483e-09
-5.28202e-07
-0.00231615
2.61116e-07
9.58044e-08
2.5375e-07
-1.4169e-07
-1.05722e-08
4.34128e-08
0.000103118
-0.00168527
8.10217e-08
-6.03845e-09
8.53741e-08
4.70061e-08
-0.00217209
0.000583931
-2.96858e-07
0.000524218
0.00282367
7.90517e-08
8.57973e-07
0.00476823
1.21667e-07
0.00383717
7.1014e-08
8.40837e-07
2.5308e-07
1.28699e-06
0.00118562
7.84326e-08
0.00562641
1.23506e-07
1.14479e-07
-0.00018272
1.6518e-08
2.17276e-07
-1.67507e-05
4.05708e-08
7.03836e-08
-0.000379568
0.00533418
7.02844e-08
0.000767782
-0.000542059
-1.26742e-08
4.95367e-08
-0.00129769
2.98169e-06
-1.3725e-06
-0.000369494
1.21631e-08
1.81413e-07
-7.3625e-09
-0.00638831
-0.000529096
7.20273e-09
4.20543e-08
0.00121589
7.54795e-08
-6.84337e-09
-0.000171037
0.0108715
-0.000140085
-6.16087e-09
7.90102e-08
-0.00013132
0.00136353
1.73806e-06
2.46245e-07
-0.00153575
8.06721e-08
0.000141651
-6.55425e-07
8.62098e-07
3.85754e-08
0.00204928
-3.72536e-06
-1.611e-07
0.000115879
-1.46252e-07
-1.02733e-07
1.36543e-07
2.36665e-08
-2.27158e-05
1.20779e-07
-4.04693e-08
-2.62783e-06
0.000833338
2.05935e-08
-0.000916363
-8.33959e-08
-4.11941e-06
1.42103e-08
7.87377e-08
8.41495e-08
-0.00021962
4.67637e-08
-6.10106e-09
0.00795276
8.2073e-08
-0.000146394
8.17361e-08
4.65296e-07
3.38383e-07
-0.00504246
-0.00102954
4.34998e-08
4.28043e-05
0.000756441
8.25292e-08
-0.000354827
1.11532e-07
2.4566e-08
7.09844e-06
-0.000468583
1.10569e-05
-7.85733e-09
4.26846e-08
-7.4424e-09
-0.00133446
9.74816e-07
-2.93332e-06
-5.27311e-08
5.81264e-06
1.30422e-07
3.63621e-07
7.04202e-07
0.000714524
-4.15141e-07
-0.0135358
7.16503e-08
-2.21375e-07
2.00349e-07
-0.000857933
3.71956e-08
0.00310084
0.000393931
8.37799e-08
0.000829631
2.88882e-05
-0.000133316
0.00629624
0.000190252
1.52693e-05
5.2345e-07
2.34009e-08
2.15805e-06
-0.000119831
0.00079741
4.59655e-08
-1.24815e-07
2.01205e-07
0.000185911
-1.03048e-08
0.000590022
1.14075e-08
9.79905e-08
-4.33859e-05
-0.000145552
-0.000452714
5.4798e-08
9.42952e-08
0.00121132
9.67335e-05
1.17217e-06
1.60937e-07
-0.000106057
-1.92321e-05
-0.00149161
1.07342e-07
1.43398e-07
9.28141e-08
8.12568e-08
-0.00528988
2.46535e-07
7.14403e-05
-8.13032e-07
1.19746e-07
0.000183495
-0.000275648
-0.000178094
7.25628e-08
1.12617e-07
4.7398e-08
-4.20051e-07
2.04609e-07
0.00230917
1.72601e-07
-0.000118162
-1.08834e-08
3.31112e-07
6.92655e-08
9.55827e-07
1.21574e-07
1.09655e-07
0.000518926
1.68215e-07
-1.40818e-06
-1.51203e-07
2.81496e-07
-0.00171977
1.92594e-05
7.43828e-08
-0.00012641
-1.50334e-07
0.00943123
0.00045237
1.01435e-07
-0.000592037
0.0027573
-0.000159019
8.45734e-06
-1.21767e-06
4.57576e-08
-0.000144514
1.76057e-07
0.00390084
-0.000149161
4.7211e-08
6.34393e-08
3.69475e-07
0.0018265
0.00478215
8.66672e-08
-1.23779e-08
0.000589115
-0.000169915
-2.12843e-07
7.64661e-09
3.33156e-09
0.0010697
0.000545569
8.99381e-08
-6.13065e-09
5.91289e-07
4.3976e-08
-6.72701e-08
-0.00135124
-1.61436e-07
-0.00433606
-0.000415452
1.00165e-07
7.60252e-07
4.51418e-08
1.21788e-07
-3.09607e-05
-0.000104868
1.22414e-07
0.00137065
7.17017e-08
1.26024e-07
4.63535e-08
4.55671e-08
1.06591e-07
9.79332e-08
-7.85953e-05
7.76205e-08
2.26318e-07
7.37834e-08
-7.20486e-09
-0.00149344
0.0010396
-4.85569e-08
0.0034902
-3.35162e-06
-0.00234278
1.66739e-07
1.84084e-07
5.73509e-05
9.28902e-08
-7.58352e-07
0.00211485
0.00170135
-0.000582458
2.68982e-07
-0.000296608
7.38839e-08
1.5276e-07
9.87738e-08
0.0047297
-1.15137e-08
0.0017761
4.95114e-08
4.82141e-08
0.00387562
-8.04221e-07
0.000767984
3.7988e-08
4.89659e-08
-5.87558e-06
4.98507e-08
9.58044e-08
6.28606e-07
7.18836e-08
4.85886e-09
4.67508e-08
7.59947e-05
0.000224366
7.53235e-07
0.00335896
7.88247e-08
-1.02992e-07
1.03814e-06
7.87403e-08
5.06733e-08
3.27431e-07
6.84334e-08
2.33452e-08
3.55124e-08
-5.90924e-08
-0.000182292
-0.0027837
2.62275e-05
0.000596702
3.66413e-05
8.69948e-08
-0.00058917
1.10946e-07
4.71862e-08
0.000130284
-0.000343121
0.00149984
8.28997e-08
-0.000453773
0.00163921
-0.000662868
2.48405e-08
0.000998658
1.0003e-07
7.43067e-08
9.06037e-07
1.8205e-08
-0.00861584
3.16557e-05
-0.00343315
1.67318e-08
8.65308e-08
0.0085267
9.84773e-08
-0.00345013
0.000377521
0.00333997
0.000171929
0.00138172
-1.21462e-07
9.02261e-08
-5.15076e-06
-1.67231e-06
6.51256e-08
-3.59097e-06
2.73425e-07
6.51775e-08
-9.59884e-08
-0.00305023
2.12251e-08
-0.000278664
0.000342648
0.00286043
8.33937e-06
1.37207e-07
-8.60925e-08
6.55246e-08
-0.00135677
-0.00122903
2.30872e-08
-1.72459e-07
1.91384e-08
1.7176e-07
-2.38486e-08
2.05687e-08
7.03455e-08
1.29776e-07
-0.00035695
-1.01845e-06
1.2213e-06
8.26396e-08
2.81203e-07
0.00146321
6.22207e-08
0.00111304
-0.000590552
4.13685e-07
-4.72609e-08
1.58161e-07
8.4757e-08
-3.84624e-08
7.49079e-08
-0.000190393
1.2901e-06
0.000217495
6.57851e-08
0.00110656
8.53019e-08
1.34444e-07
8.62659e-08
-0.00105948
0.00209277
-3.77869e-08
1.33209e-07
-2.10533e-06
-6.80979e-05
-1.90943e-07
0.00374959
4.13995e-06
-0.00802598
2.17681e-06
-0.00051535
7.25346e-07
2.88364e-07
-3.9967e-05
-0.000187779
0.001004
0.0030725
-6.19952e-08
1.40981e-06
-2.28412e-08
7.09891e-08
8.07842e-08
8.92161e-08
-0.000178441
8.75082e-08
1.02849e-07
0.000779478
-1.36187e-07
-0.00205915
9.40138e-08
7.20257e-08
-1.64851e-08
-1.24473e-07
2.68717e-06
0.000607888
-0.00432769
2.47946e-05
7.7393e-08
9.31597e-08
3.6693e-07
0.00514311
0.000773499
-5.91972e-06
-7.1904e-08
6.93131e-08
0.000127955
6.41734e-07
-0.00945638
0.00095041
6.53606e-05
-3.90887e-08
-0.000945694
2.35132e-06
1.4817e-07
1.09666e-07
-0.000510536
-0.00120676
-7.56753e-07
-2.08756e-05
8.7085e-08
4.97799e-07
9.39139e-08
-0.00081115
-1.78687e-06
-0.000173456
0.000710332
8.20175e-08
1.23639e-06
7.2673e-08
-0.000586406
5.76001e-05
3.11387e-08
0.00176179
-0.000200393
0.00322105
-0.00152245
9.70095e-08
9.47382e-08
-7.39918e-05
0.00154725
0.000199167
1.2796e-07
8.38381e-08
1.03228e-07
-0.000169279
1.29344e-06
7.26062e-08
-0.00167306
1.34202e-06
-0.00969685
-0.000768832
-0.00491929
7.80076e-08
-0.00154202
7.94809e-08
9.94403e-08
9.17057e-07
-0.00285229
8.95177e-08
5.14997e-08
0.00102818
-0.000431529
-2.75348e-07
7.22325e-08
0.00135253
2.19538e-08
0.000262141
7.99225e-08
0.00458509
8.71184e-08
2.31458e-07
0.00364094
0.000758165
7.18475e-08
-0.000361672
-0.000643005
-0.00346346
0.000384009
-0.00746469
1.46975e-05
7.21119e-08
-0.000395289
-1.84958e-07
9.13093e-08
-1.0256e-07
0.000424762
7.80334e-08
-0.000794263
5.16261e-08
3.28443e-07
-0.000284351
1.43139e-06
-0.0043698
7.73435e-08
1.38234e-06
4.6934e-08
1.16918e-07
-0.00146801
0.000657479
5.27485e-08
9.64954e-08
-0.00113973
7.64506e-08
1.46826e-08
-0.000197678
1.2494e-07
-3.01032e-07
8.04069e-07
0.00589765
0.0033627
-0.00105619
-0.00143804
9.67088e-07
-0.000138672
-0.00109393
0.00328202
4.58262e-08
3.69497e-08
1.24884e-06
7.1187e-08
8.35562e-08
-0.00151564
-0.00019697
2.51704e-07
0.00790761
0.000125615
-0.000257243
-0.000690772
5.70093e-05
6.71765e-08
7.48402e-05
-0.000330816
-3.50831e-07
7.23135e-08
-0.000265059
6.57279e-05
0.003722
-0.000707214
-9.70326e-07
-0.000150751
-0.000422947
1.17352e-07
1.02626e-07
6.51315e-08
-0.00100477
7.4492e-08
-2.11115e-05
1.09605e-07
7.02017e-08
2.8447e-07
0.00149043
-0.000959288
-0.00136985
4.84426e-08
-0.00122945
5.04211e-08
-2.1802e-07
8.01653e-08
2.26787e-08
0.000293048
-4.23873e-08
-0.000119654
-0.00353751
-0.00102005
1.03337e-06
1.03077e-07
-1.16984e-06
1.08144e-07
1.46574e-06
2.08428e-07
7.46216e-08
6.93997e-08
1.00717e-07
7.67878e-07
6.32101e-08
1.93512e-07
-2.43701e-07
1.60325e-07
1.00315e-06
-1.82891e-05
5.60388e-08
9.39774e-08
1.224e-07
-3.53096e-05
-1.6984e-06
0.00119089
1.30959e-05
1.15613e-07
6.97435e-08
1.35674e-07
-0.00122849
7.38318e-08
0.000961345
9.88224e-08
1.42588e-08
3.5194e-07
0.000218944
1.0025e-07
-8.60575e-07
3.93721e-06
8.84777e-09
4.20118e-07
0.000483707
0.000881588
1.2214e-07
9.01064e-08
-0.000157412
4.04336e-08
4.19963e-08
5.91485e-06
-0.000144017
7.5659e-08
-2.8067e-07
-6.84423e-06
-0.0013834
7.03487e-08
7.03776e-08
-7.91374e-05
7.48109e-08
-0.000362686
-0.000202988
-0.00107779
8.4595e-08
-7.64891e-06
8.60933e-08
-0.000457339
1.29093e-06
4.00584e-07
9.01822e-07
-0.00140647
6.51129e-08
-0.00124308
-0.00803744
7.29974e-08
0.00164167
3.65025e-07
1.25895e-07
-3.46045e-05
7.17588e-08
4.27515e-08
1.53538e-08
-3.54474e-07
-0.000564326
2.48775e-06
7.964e-08
6.20098e-08
1.11348e-07
-0.000923396
7.99236e-05
-0.000996392
-0.000557753
6.35183e-08
1.53544e-06
-8.49981e-07
-0.000720042
1.94155e-06
0.000309371
7.58769e-08
2.97926e-06
1.91894e-08
0.00995486
-8.44002e-07
8.4062e-08
-0.00115326
6.09664e-07
1.84688e-07
1.03173e-06
-3.34459e-08
1.60001e-08
8.25775e-07
1.72654e-07
0.00834076
1.05686e-08
1.03692e-06
-2.34994e-07
-7.84359e-07
-0.00238389
1.39335e-05
-0.000910964
5.27114e-08
4.09808e-08
4.53152e-05
-0.00232356
-0.000799868
7.36502e-05
-1.29775e-07
-0.000371145
-0.000814484
1.71825e-08
8.63928e-08
6.45651e-08
1.32432e-07
2.47366e-07
0.000104397
0.00045098
6.46552e-06
7.16525e-08
-0.000707765
-0.000183558
8.26874e-08
-5.80642e-06
-0.00385673
-0.000620014
7.14769e-08
4.70078e-07
-1.63174e-08
1.30502e-07
-7.61474e-08
1.56088e-08
-0.000749205
0.000202119
0.000187055
0.00036639
6.36193e-08
-5.16032e-07
-1.95953e-06
2.36926e-08
1.01461e-07
2.12347e-08
0.000686744
6.91256e-08
-0.000916352
-8.06733e-07
6.19936e-06
-6.14584e-07
-1.45065e-05
-0.000164487
-0.00138707
1.33779e-07
-9.82007e-09
2.58026e-06
-0.000912979
2.97483e-05
7.67346e-08
5.78527e-08
1.4368e-08
5.97371e-07
1.03236e-07
1.55102e-06
-0.00957678
6.0327e-08
1.58363e-08
1.12393e-06
-0.000133017
-4.68199e-05
-0.00406357
7.25252e-08
-3.47858e-08
8.1334e-08
-0.00053054
-2.03071e-08
-0.000221117
-1.68274e-07
6.23079e-08
2.79078e-06
1.31275e-07
-1.53369e-05
1.22313e-07
1.09236e-07
-0.000520641
0.000160749
8.38528e-08
1.34092e-07
6.95427e-08
-0.0011694
-0.000670241
-6.15578e-09
-4.79219e-08
-0.00133909
-6.66997e-09
7.07539e-05
1.00954e-07
9.85124e-07
1.62081e-06
0.0100639
-9.39844e-07
1.42086e-07
8.85345e-08
4.20232e-07
-0.000302648
7.10002e-08
0.00770521
0.00793216
-0.00218091
1.564e-05
-5.39797e-07
-0.000248292
7.57094e-08
-4.18209e-05
8.63903e-08
-0.000660754
-0.000528295
0.000396077
0.00079547
-0.00434843
-1.59133e-07
4.73326e-05
5.48337e-08
-2.79615e-05
0.000305965
-0.000173149
-0.000246203
-4.69852e-08
-0.00601039
-0.000698985
-6.35582e-07
1.95116e-07
8.26802e-08
-7.30982e-05
1.7659e-08
4.10452e-07
-1.83752e-07
8.0013e-08
4.67115e-08
1.10368e-07
0.000919835
-1.22205e-05
2.25387e-08
6.57692e-06
0.000665421
-3.5337e-07
8.92562e-08
-1.2269e-09
3.64152e-06
-0.000173252
1.82337e-05
-3.60762e-09
1.73605e-08
0.000853717
1.23073e-06
9.69476e-08
0.000587155
1.63477e-08
-0.000731626
1.12704e-07
9.39612e-07
8.29963e-08
-1.88873e-07
1.16305e-08
0.00121755
-0.000752519
-0.000103283
7.86205e-07
-0.00618794
-1.47592e-06
7.57318e-08
-3.37132e-08
-0.000126269
-0.00291551
0.00214418
-0.000447434
7.21846e-08
9.38373e-08
6.65572e-08
9.6594e-08
2.12958e-08
-0.000803855
6.36938e-08
-0.000116261
-3.29649e-07
-2.32736e-05
-0.00881623
-0.000390132
-1.97109e-05
8.43261e-08
-8.63747e-05
-9.88739e-07
0.000137273
-9.22428e-06
3.88823e-08
-0.00159719
1.0132e-07
0.00334612
-0.000198126
-5.34575e-07
-0.000515632
-0.00235331
-6.21262e-08
-1.3545e-06
1.75296e-07
-8.79519e-05
0.000311312
7.47897e-08
8.90693e-08
-0.000836876
0.000146835
-5.48402e-07
0.00665068
1.0947e-06
3.1529e-06
2.09244e-08
0.0109244
-0.000107903
2.65218e-06
1.12654e-07
0.00087884
0.00171925
5.5416e-08
7.55983e-08
7.38006e-08
-0.000184371
0.000297155
8.26575e-08
-7.66264e-05
6.41226e-08
6.84212e-08
1.03372e-07
0.000967681
-0.000154826
-1.9092e-05
-0.000811112
2.11614e-07
7.56021e-08
6.98565e-08
0.000139846
1.08151e-07
-0.00726721
-5.33019e-07
-0.00368591
6.81341e-08
6.48297e-08
-7.08254e-07
-0.00078715
-0.000239319
-3.29761e-07
-0.00148048
6.16165e-08
8.35035e-08
7.44847e-08
3.86837e-07
-4.16866e-08
2.2055e-09
-3.2384e-07
-0.000508144
7.78123e-08
-8.37573e-07
1.24869e-05
-0.00167224
3.29779e-08
-0.000113217
-0.000160019
7.28717e-08
0.000657201
3.72061e-07
-0.000785187
8.4487e-08
1.89268e-06
4.19055e-08
8.63063e-05
-1.44388e-05
-5.60965e-06
-0.000592507
3.16105e-07
2.42669e-07
1.61902e-07
-0.000122909
-1.25688e-08
6.12957e-08
-0.000721502
4.66546e-06
-0.00171148
-0.0011532
4.0092e-07
9.54811e-08
1.38024e-08
-0.0266501
2.22154e-06
-4.50216e-07
1.37706e-06
5.43853e-07
1.31605e-07
9.85222e-08
-0.00174385
9.34381e-08
8.06984e-05
-0.000364921
1.79076e-06
-0.000466549
1.33687e-06
-0.000556032
1.02192e-07
0.0031673
-0.00724028
4.23912e-08
8.54654e-08
8.43485e-08
6.85273e-08
3.49315e-07
6.99634e-08
-0.000786196
4.07216e-07
0.000151157
3.17379e-05
7.72925e-08
7.40816e-08
-1.24207e-08
-0.00135219
8.25818e-08
7.46839e-08
-1.25228e-05
6.75172e-08
-0.00408262
-0.000636754
7.17527e-07
-6.06886e-07
6.81655e-08
7.8937e-08
6.4484e-08
-2.04675e-05
-5.62657e-08
6.92296e-08
0.000701622
-0.000297014
0.00585942
8.017e-08
0.000130061
0.00595791
6.80957e-08
0.000968244
0.000270693
8.13631e-08
6.84046e-08
9.63843e-08
-0.00158465
-0.000765119
-0.000776041
-5.4915e-08
7.21986e-08
-5.104e-08
8.72285e-08
-4.19031e-07
7.76371e-08
-0.000896448
0.000417949
-0.000897089
3.14418e-08
7.10323e-08
6.30624e-08
-0.00155339
-2.90025e-08
-0.000180772
0.000127991
-0.0012992
0.00197728
-0.000871868
-0.0094958
2.92315e-07
0.00317864
-0.000411858
6.19549e-08
1.32854e-08
5.60203e-08
-0.000561587
-0.000526179
0.000618039
-9.28909e-09
-0.000724149
8.6959e-08
-5.96365e-07
-5.31796e-08
7.98484e-08
6.47496e-08
3.26382e-08
-0.00186556
6.25323e-08
0.00199275
0.00237713
0.000175456
7.00867e-07
2.55052e-07
-0.000155183
-0.000218042
4.18632e-08
-0.000449871
-5.62805e-09
-4.64516e-09
8.36202e-08
1.9189e-05
-2.80669e-08
-0.000568101
9.01853e-07
0.000244751
-6.28503e-07
0.00049969
-0.000478368
-6.2154e-06
3.29476e-08
-9.16192e-07
3.06861e-06
-0.000939007
4.65239e-08
1.82155e-09
1.22091e-07
-0.00262017
1.42037e-07
0.00130522
-0.000255805
1.20725e-07
5.51537e-07
3.54229e-08
-0.00141971
7.20099e-08
-0.000193179
1.50898e-08
-0.000364028
1.15797e-07
7.22774e-08
-0.000443456
0.00058984
5.23438e-09
4.33312e-07
4.25869e-08
0.000392033
1.00395e-05
-9.09545e-06
0.000235005
7.43727e-08
-2.71786e-06
0.000594702
-6.6369e-07
1.37352e-05
-1.96635e-07
4.4952e-07
1.17052e-07
-0.000172757
-0.000170491
7.05571e-08
-9.92882e-05
7.07583e-08
1.80645e-07
0.000994747
-0.000237271
-7.34498e-07
-0.00018809
-2.54238e-06
9.03523e-08
0.00168415
1.65085e-06
1.13326e-07
6.12825e-08
0.000394081
5.39594e-09
0.000908741
0.000140954
6.27776e-07
9.64927e-08
1.23614e-06
-0.00016511
1.21755e-07
-0.000949812
6.53832e-08
7.25294e-08
-2.01434e-05
0.00112675
8.05838e-08
-0.000340737
-0.00253846
-0.000696604
9.64047e-08
0.00133769
0.000311347
-0.00347216
8.39574e-08
1.41179e-06
9.30728e-08
-0.000459726
1.92744e-06
-0.00146433
0.000615686
7.93287e-08
9.61985e-09
8.22763e-08
-0.00232113
-0.00084466
0.00157279
-0.000386527
6.97426e-08
0.000200923
-0.000208353
1.34481e-06
-0.000310599
-0.000183825
-2.28026e-07
3.73467e-05
6.8277e-08
7.92627e-08
-0.00152163
0.00153475
-2.95484e-06
0.00794806
5.867e-08
7.48064e-08
-0.00911941
-0.000184592
-0.00134126
-2.44156e-05
-1.58479e-07
7.55356e-08
9.35933e-08
-0.000732849
0.000543417
7.54057e-08
2.20013e-07
-0.000721602
7.4728e-08
1.01976e-07
0.00044802
-0.00696175
8.19408e-08
8.37771e-08
6.24949e-08
1.73959e-07
0.00437636
6.82578e-08
3.63984e-08
-1.75764e-08
5.88843e-05
-0.0085719
-0.00207253
-0.000826055
7.24358e-08
5.8174e-08
-0.000164846
-0.000255167
-7.06806e-08
3.89635e-05
9.74085e-08
1.61271e-07
1.2825e-07
-5.6932e-06
1.48158e-06
5.17352e-08
-0.0102514
-5.04528e-07
9.88528e-09
8.56052e-08
0.000157049
-0.00487018
-0.000170826
7.30945e-08
1.02716e-07
-0.000515873
-0.00507087
7.27613e-08
6.24531e-08
8.79283e-08
-0.000237247
1.04468e-07
-7.22431e-08
9.01953e-08
8.55511e-08
-0.00019744
0.000111409
7.74938e-08
5.90145e-08
-6.74817e-08
8.53729e-08
0.00363121
-0.00116051
1.20428e-07
-0.000187146
2.13885e-05
7.34815e-08
1.00617e-07
7.40187e-08
9.26738e-08
7.58554e-08
7.50957e-09
-1.15375e-06
0.000988381
-9.53622e-08
-5.1758e-07
-0.000187093
9.81067e-05
7.5657e-08
6.14027e-08
6.61037e-08
-0.00805481
9.18155e-08
-0.000918538
-2.85807e-05
7.86852e-06
8.33983e-07
-0.000165661
-6.29769e-10
-0.000494158
3.26157e-09
1.65138e-08
1.48572e-07
2.08729e-08
-2.58836e-06
0.00111755
-0.000194958
3.33519e-07
0.00851064
0.00263381
0.00884994
1.18755e-07
-0.000191014
-0.000526694
-7.17187e-07
-0.00479267
0.000249371
7.7714e-07
0.00073493
6.7757e-08
-9.00305e-08
0.000770203
7.00198e-08
6.44732e-08
-0.00612637
-0.000475127
0.00217098
5.65866e-05
3.76639e-08
6.64085e-06
1.02492e-07
-0.000686394
-5.43044e-08
-0.000707758
-0.00184692
0.00103605
0.00186413
1.10045e-07
3.2341e-09
2.67143e-07
0.00816226
-0.000207337
1.32747e-07
-0.000223134
5.43349e-08
-0.000748432
4.66609e-05
-3.63103e-05
1.91345e-07
1.08314e-07
4.32257e-08
2.8064e-07
8.32985e-08
1.03528e-07
6.55482e-08
-0.000191394
1.00239e-07
-0.000145256
0.00243002
-4.93504e-05
2.44138e-06
9.10953e-08
-4.29987e-08
-3.5627e-07
-5.81794e-10
7.02008e-08
-0.00161592
-0.00277376
0.00607847
-0.000642416
6.32515e-08
-0.000640634
-7.99013e-07
-0.000381855
-2.80894e-05
8.37126e-08
2.25717e-08
-0.00075575
1.10285e-07
5.09767e-09
0.00339596
-0.000204832
-0.000896992
9.03457e-08
9.03469e-08
-4.17351e-07
3.14424e-07
-0.00145315
-4.41863e-09
4.95056e-08
-0.000602622
1.08383e-07
0.00080604
3.27445e-07
-0.00280874
7.34297e-08
-5.52035e-05
0.00741107
-6.575e-07
-0.000630223
-2.32838e-08
-8.94652e-05
-1.04223e-08
1.5292e-08
5.40599e-08
-6.50456e-09
0.00156405
-3.13504e-08
0.000744388
-2.26362e-07
2.96411e-08
8.92694e-08
-0.000512345
1.08471e-07
-3.38904e-07
0.00374146
1.13011e-08
-1.36444e-06
-0.00033243
4.21829e-07
-1.89926e-07
4.0878e-07
1.04037e-07
-8.33144e-07
5.58307e-08
9.88832e-09
-0.000500257
-0.00101961
-0.000439413
-0.000812266
4.35309e-05
-0.000835746
4.6667e-07
-0.000729569
-7.4403e-07
-1.54755e-08
1.3547e-08
-6.17622e-09
9.73363e-08
-0.000820887
-0.000620111
-1.38625e-08
0.000983649
-0.000329993
1.04664e-07
-1.21198e-07
1.69418e-07
-0.000262778
0.000695976
-0.000198874
0.0103567
-0.000205747
-8.01314e-09
-1.95405e-05
-6.44568e-07
2.34751e-05
-0.00150627
8.256e-08
1.30003e-06
-0.000722067
-4.35291e-07
0.00530263
9.20208e-08
-0.000770358
-0.000871463
-0.000166984
5.19356e-07
6.58333e-08
-0.000211808
1.58119e-06
-9.56358e-05
-0.000354324
-0.00018437
6.88328e-07
0.00143846
9.40511e-08
1.65278e-06
1.16662e-07
-6.19019e-05
-0.000556174
-5.34554e-05
-1.1572e-07
-1.96018e-07
-2.15254e-06
-1.51039e-07
6.00591e-05
8.27436e-08
1.19782e-06
-0.000157738
8.42477e-08
-0.00240365
-0.00612771
-0.000243336
0.000820341
0.000325018
-0.00152733
4.64961e-08
-0.000887819
-1.67697e-07
6.04056e-08
1.27973e-07
7.37165e-08
-0.000112512
7.53739e-08
1.29831e-07
6.84566e-08
2.39029e-08
-0.00193174
7.99039e-08
7.83836e-07
0.00186041
3.6095e-08
7.21549e-05
-5.78283e-07
-3.17943e-07
-0.000589026
0.000142295
1.01944e-07
0.000226086
7.38333e-08
-0.00035165
0.00370577
-6.31531e-08
1.12879e-06
7.46424e-08
-0.00099075
-0.000192273
9.03801e-08
0.00622357
-1.10911e-06
8.29622e-08
-0.0061969
6.92705e-08
8.38419e-08
-0.00075481
1.91461e-07
5.89631e-08
1.22575e-08
-9.82833e-07
8.8814e-08
-0.00019366
-2.86408e-05
-0.00041153
-0.000997166
2.61862e-07
7.54537e-07
4.89946e-08
-0.00101101
2.89208e-07
-0.00308668
8.23393e-08
8.00354e-10
-1.02509e-07
-1.50192e-07
0.00138842
8.4302e-08
-0.00308577
6.40698e-08
3.98433e-05
-4.5181e-08
-0.000107374
7.42416e-06
8.88188e-07
3.13515e-05
-0.00179922
0.000447312
-0.000191175
-4.56848e-09
8.66929e-05
-0.000448069
-4.59131e-05
-4.44063e-08
-7.79046e-06
-6.2007e-05
0.00117882
1.16451e-06
0.000150748
-0.00589695
-0.00101545
2.26417e-07
2.44621e-06
3.23582e-08
1.1062e-07
2.03688e-07
8.62232e-08
3.80772e-07
-0.00143833
-0.0019836
0.000948321
0.00149772
7.60858e-08
5.31982e-08
-2.20452e-06
8.39214e-08
-0.00240111
4.32089e-09
4.06139e-08
-0.000895852
-6.58723e-07
5.32541e-07
-5.1381e-07
-1.4765e-07
2.70072e-06
-0.000705577
-0.00014575
-0.000619686
7.71644e-08
-0.000172124
4.31851e-07
5.82096e-09
6.29314e-08
-0.000180455
1.25566e-05
-5.26877e-06
4.17922e-06
6.91985e-08
3.58773e-08
8.54518e-08
6.82232e-08
9.04541e-08
0.000274796
-0.000343261
8.64044e-08
-0.000115163
-0.00020766
0.000262613
0.00130242
7.30547e-08
1.35872e-07
0.000345588
7.52065e-08
1.49e-05
9.69815e-08
7.43384e-08
-0.00221809
-0.000130746
-4.10166e-09
1.8634e-07
1.16119e-07
1.83408e-06
-0.00439862
9.18095e-05
-0.00090692
1.26911e-07
6.06102e-07
-0.000651048
5.80108e-07
1.2437e-06
0.00384417
0.000289259
-0.00122467
-0.000625996
9.44157e-09
0.00157501
3.5347e-08
-2.1381e-07
9.1264e-08
3.42926e-07
-0.00119885
-0.000115869
-0.00418738
0.000985295
4.01528e-07
2.03347e-09
5.82479e-08
9.75484e-08
-6.52408e-09
1.28186e-07
-0.000896268
-0.000430326
5.41315e-07
0.00345714
8.92735e-08
6.24146e-07
4.19023e-08
-0.000200219
-4.85525e-06
1.00833e-07
8.40781e-07
-4.14021e-07
0.0101381
-3.04196e-05
-1.0213e-06
-0.000635572
3.59319e-08
-0.00404185
-1.1848e-06
-0.0014857
0.000146754
3.50343e-07
7.49176e-07
8.61388e-08
0.00094037
-0.000636595
3.1378e-07
-0.00805125
-2.59529e-06
-0.00291692
7.17645e-07
-2.46975e-05
-5.25607e-07
7.04213e-08
1.27134e-06
1.32125e-06
7.54691e-08
1.07795e-06
1.52634e-07
1.02338e-07
-0.000587376
1.49487e-06
1.45985e-07
-7.13216e-08
1.70068e-07
-4.26111e-07
-2.01214e-07
0.00279479
-7.41951e-07
0.000533044
0.000100577
8.55829e-08