/*--------------------------------*- C++ -*----------------------------------*\
| =========                 |                                                 |
| \\      /  F ield         | OpenFOAM: The Open Source CFD Toolbox           |
|  \\    /   O peration     | Version:  v2012                                 |
|   \\  /    A nd           | Website:  www.openfoam.com                      |
|    \\/     M anipulation  |                                                 |
\*---------------------------------------------------------------------------*/
FoamFile
{
    version     2.0;
    format      ascii;
    class       volScalarField;
    location    "600";
    object      k;
}
// * * * * * * * * * * * * * * * * * * * * * * * * * * * * * * * * * * * * * //

dimensions      [0 2 -2 0 0 0 0];


internalField   nonuniform List<scalar> 
13851
(
0.000154222
0.0146169
0.00019247
0.000153523
0.00019086
0.000251896
0.000146892
0.000179162
0.000139124
0.00019724
0.00323723
0.0333555
0.0127548
0.027258
0.000144049
0.000169038
0.000157776
0.000164492
0.00102942
0.000139007
0.000153064
0.000191532
0.000148518
0.000152382
0.000150287
0.000179684
0.000156069
0.00232318
0.000153794
0.00015685
0.000256954
0.000158437
0.000191351
0.00201249
0.000152438
0.000212688
0.000122245
0.000197851
0.000200445
0.00291601
0.000145059
0.000132822
0.00630816
0.00289662
0.00294893
0.0137451
0.00267501
0.00974556
0.000156542
0.000411171
0.000188547
0.000200101
0.010479
0.00014593
0.000153449
0.000132951
0.000145683
0.0132235
0.000156302
0.000147616
0.000205052
0.0228713
0.000203266
0.000193951
0.000255831
0.000157586
0.000795982
0.00258052
0.000168927
0.000164123
0.0158808
0.00880136
0.0177326
0.000146797
0.000141281
0.000141599
0.000190593
0.0170887
0.000179165
0.0183971
0.000149351
0.00324523
0.000144057
0.0133883
0.000205771
0.0350135
0.000222842
0.0158268
0.000158536
0.000141478
0.000212563
0.000187135
0.00263533
0.000162059
0.000158148
0.00015174
0.000191374
0.0299142
0.000973955
0.000151906
0.0236065
0.000180527
0.000150726
0.000155135
0.000146183
0.000197333
0.000182787
0.000131678
0.0221274
0.000243724
0.000153181
0.00014184
0.000176285
0.000154796
0.000153023
0.00483594
0.0306604
0.000131726
0.00015579
0.000156566
0.00615395
0.000154927
0.0153425
0.00335273
0.0109239
0.000145734
0.0102995
0.000179947
0.000152536
0.000201729
0.000144809
0.000138937
0.0191755
0.000144006
0.00459175
0.000140657
0.000131802
0.00760966
0.0340277
0.0269543
0.0227579
0.000153334
0.000149924
0.000136732
0.000154282
0.00290204
0.000216962
0.000201681
0.000146681
0.00301641
0.000189489
0.000153471
0.0273806
0.000146443
0.000153133
0.000154088
0.000142191
0.000154109
0.000200026
0.000188216
0.000134416
0.000161732
0.0129044
0.000138822
0.000163414
0.000134818
0.00025144
0.000169354
0.000152149
0.0182503
0.0148331
0.000136491
0.000142372
0.0274856
0.000138718
0.00954025
0.000179142
0.000150318
0.00117204
0.000132104
0.000159799
0.0108927
0.000143875
0.000193148
0.000133416
0.000149389
0.000157632
0.000148443
0.000193853
0.00019198
0.00262749
0.0116799
0.000143135
0.000169198
0.023891
0.000152706
0.000148807
0.00496942
0.000149399
0.000141825
0.000146236
0.0142957
0.000161913
0.000143365
0.000186687
0.000144013
0.0381683
0.00015802
0.0298485
0.000132851
0.0376331
0.00015035
0.00452444
0.000131575
0.000135987
0.00376767
0.000199836
0.0136095
0.000143413
0.0310438
0.000158354
0.000149566
0.0333622
0.000199657
0.0412328
0.000150332
0.000164664
0.00014805
0.0142894
0.000131685
0.000178845
0.000266713
0.00013641
0.00014272
0.000186136
0.000181467
0.0356109
0.000276053
0.00013661
0.00014349
0.000216206
0.0060661
0.000138096
0.000188899
0.00014365
0.039398
0.000181114
0.00434017
0.000154374
0.000159666
0.000168566
0.00584057
0.000149716
0.000154554
0.000180882
0.0077025
0.000189897
0.00938439
0.00514527
0.000144278
0.000136112
0.000162363
0.0013088
0.000139386
0.00593849
0.000152683
0.000149553
0.00016134
0.0319581
0.000653377
0.000168243
0.000153152
0.000328355
0.000177725
0.000168303
0.000139054
0.00344034
0.00106768
0.043851
0.0033544
0.000138079
0.000132367
0.000145652
0.000179879
0.00360558
0.00835133
0.00014032
0.000144081
0.000331997
0.0035437
0.000207464
0.000155557
0.000147746
0.000171286
0.0031668
0.00580587
0.000162354
0.0342651
0.000139271
0.0396743
0.000161166
0.000157579
0.042882
0.000147988
0.00021038
0.0361702
0.000140073
0.000176225
0.000162255
0.000154985
0.033403
0.000162684
0.00014944
0.0329909
0.000133369
0.000160103
0.000149483
0.0426325
0.000200387
0.000143434
0.000181125
0.000143658
0.011886
0.000175649
0.000148359
0.000144785
0.000199786
0.000163784
0.000152832
0.000144087
0.000147831
0.000149246
0.00299055
0.0280953
0.0200196
0.000168155
0.0416331
0.0197696
0.000143675
0.000169881
0.000208069
0.000216971
0.000194284
0.000197471
0.000737672
0.000155883
0.0102138
0.0376141
0.000144297
0.000327578
0.000474202
0.000442311
0.000152804
0.00019794
0.0146767
0.000142703
0.0112429
0.000144722
0.000143716
0.000141731
0.00013176
0.000141422
0.0378204
0.00429176
0.000144853
0.00017509
0.000134118
0.0315067
0.000174202
0.00719941
0.0199863
0.000145082
0.000210087
0.000162473
0.00826475
0.000143972
0.000131842
0.000168236
0.023439
0.000144697
0.0341302
0.000210465
0.000198499
0.0144926
0.00280273
0.00251574
0.000163412
0.000139422
0.000150259
0.00016602
0.000180801
0.0278295
0.000169278
0.0408695
0.0366716
0.000134239
0.000144384
0.0184986
0.020757
0.000260635
0.0314252
0.000171229
0.000163351
0.000151902
0.0161519
0.000137642
0.000168443
0.000160783
0.000146173
0.000147106
0.000139807
0.000134711
0.000193137
0.000187837
0.0159184
0.000164815
0.000182403
0.00017402
0.00599825
0.000161299
0.000803269
0.000157035
0.00376586
0.0001317
0.000139586
0.000151129
5.86429e-05
0.00281299
0.000199023
0.000171654
0.012194
0.00185511
0.000222471
0.000159345
0.000186595
0.000143716
0.00569535
0.000146229
0.0100211
0.00423656
0.000189818
0.0269776
0.000150537
0.000727674
0.00392339
0.0240271
0.000131898
0.000165127
0.000179814
0.000895682
0.000137148
0.000149327
0.000188099
0.000198306
0.000171076
0.0302108
0.000150302
0.000145309
0.0111301
0.000164614
0.000132101
0.0186532
0.000139343
0.000154249
0.000137869
0.000176981
0.000152945
0.00013253
0.000149729
0.0321903
0.000144206
0.00017128
0.000139917
0.000171179
0.00241691
0.000155561
0.000144879
0.000155026
0.000154951
0.00972492
0.000149415
0.000238494
0.000143812
0.00015023
0.0246213
0.0254291
0.000144292
0.000177473
0.000161445
0.00589481
0.013794
0.000145384
0.00412599
0.000144247
0.000191312
0.000146806
0.0153224
0.000133314
0.00982556
0.000190498
0.000132953
0.000177369
0.0247918
0.000179579
0.00336537
0.000155513
0.00125331
0.000156727
0.000138311
0.000139178
0.000146071
0.0252582
0.000186296
0.000200301
0.000548033
0.000201239
0.000134878
0.0219647
0.00300198
0.000159991
0.000162071
0.00590034
0.00290317
0.0356671
0.000152544
0.0156597
0.0138711
0.0136497
0.000163781
0.000181444
0.00813641
0.000914021
0.00572309
0.00484371
0.0221899
0.000154608
0.0231295
0.0132178
0.000131933
0.000846872
0.000186844
0.0206903
0.000154836
0.000142847
0.000141905
0.000143992
0.000193119
0.000177188
0.0111618
0.0298233
0.000139619
0.00987347
0.0256758
0.000382451
0.00353162
0.000170765
0.000131599
0.000139348
0.000809924
0.0246046
0.000153377
0.000193592
0.000211833
0.000132826
0.000184599
0.00422147
0.000100262
0.000197319
0.0265795
0.0132735
0.000144513
0.000146311
0.0213825
0.0362528
0.000201141
0.000169054
0.000207329
0.000132003
0.000142075
0.0125591
0.000132515
0.000154648
0.000131981
0.000139421
0.0149138
0.000192965
0.000167943
0.000132422
0.0320954
0.00493684
0.000139465
0.000143523
0.00013949
0.000149435
0.0223835
0.00456441
0.00465255
0.0129722
0.00151115
0.00016739
0.0167317
0.0271246
0.000157134
0.000169436
0.000131574
0.000149044
0.000170435
0.0297203
0.00938383
0.00019314
0.000163847
0.000138595
0.000168856
0.000148692
0.00313339
0.000188581
0.000143683
0.000169626
0.000137135
0.000160923
0.000199926
0.00014724
0.00014346
0.00017415
0.000147335
0.00019134
8.92839e-05
0.000198578
0.000169471
0.000202134
0.000138436
0.00024891
0.000171266
0.0127096
0.000150064
0.000152118
0.018819
0.000155263
0.014323
0.0378277
0.014214
0.0188093
0.000137596
0.0117082
0.000139076
0.000139387
0.000133282
0.000139479
0.000151655
0.000165899
0.000175201
0.000132162
0.02088
0.000192019
0.0227177
0.000141235
0.000135057
0.000144615
0.000206724
0.0247273
0.000181349
0.000161333
0.000139477
0.000151106
0.000146532
0.00014289
0.000103628
0.0269493
0.000147034
0.000132049
0.000146211
0.000142777
0.00164704
0.0120746
0.00016929
0.0278628
0.00185475
0.00014323
0.000199844
0.0241904
0.000170773
0.0350699
0.000149305
0.000162737
0.000180905
0.000163043
0.00457424
0.000144146
0.00636756
0.000146965
0.000164929
0.0298288
0.000142402
0.000153415
0.000203556
0.000138405
0.000158947
0.000292257
0.0276208
0.000188074
0.00441679
0.00356034
0.000131708
0.000140994
0.0242166
0.000208217
0.000184382
0.0380098
0.00013847
0.000165598
0.00013204
0.00286972
0.00122953
0.000159852
0.00014905
0.00284535
0.000156486
0.00014419
0.00981259
0.0135852
0.0298151
0.000133209
0.000146868
0.0171399
0.0074861
0.000206824
0.000147845
0.0254668
0.000144114
0.00374868
0.000207292
0.000191411
0.000158262
0.0139687
0.000167031
0.000150121
0.000147672
0.000151368
0.00016171
0.000153434
0.00013827
0.0110216
0.000167716
0.000197485
0.000166549
0.00163487
0.000138802
0.000364994
0.000154873
0.000166809
0.000135877
0.000142802
0.000144766
0.0357786
0.000141658
0.000132178
0.00676651
0.000146584
0.0211407
0.000148063
0.000149096
0.000187838
0.00531559
0.00409109
0.00014114
0.000288636
0.0284529
0.000149575
0.0351545
0.000164581
0.000138
0.000203934
0.00756415
0.000280631
0.000160098
0.000140649
0.000131805
0.00357147
0.000194467
0.000186015
0.000161642
0.000203426
0.000150264
0.000148459
0.000193541
0.00296934
0.000193282
0.00674477
0.000146599
0.000191616
0.000191563
0.0417832
0.00015962
0.0373837
0.000319591
0.000146723
0.0136727
0.000237852
0.0255683
0.0280392
0.0332645
0.00433359
0.000175267
0.000138139
0.000164679
0.0141695
0.0131781
0.00014426
0.000150655
0.00018685
0.00204906
0.000132949
0.0099183
0.000138221
0.000144833
0.0116392
0.0169858
0.00363781
0.000139329
0.000143833
0.00868649
0.000135319
0.000199485
0.000152649
0.0234573
0.000137091
0.0250163
0.000182463
0.000174527
0.00014948
0.000146629
0.0191521
0.000179613
0.0196515
0.000176853
0.000168828
0.0113603
0.0253369
0.0229643
0.000144849
0.000165726
0.000139367
0.000169927
0.000153165
0.0308119
0.000165948
0.0359642
0.000132814
0.000187354
0.000142537
0.00021937
0.000168013
0.000165288
0.0285199
0.000176306
0.000178774
0.000153246
0.000187355
0.00860905
0.000213387
0.000154917
0.0152032
0.00013891
0.0287649
0.00426796
0.00014794
0.0387607
0.0238591
0.0227797
0.00442476
0.000173502
0.000144085
0.0285158
0.000166806
0.00314576
0.0303239
0.000141226
0.000152326
0.000128149
0.00420191
0.0314849
0.000146832
0.000141983
0.0194265
0.0297316
0.000197422
0.000159287
0.000151139
0.00411731
0.013933
0.00019229
0.00013223
0.000175827
0.0001385
0.000158953
0.00130445
0.000152176
0.0100174
0.00582918
0.000145027
0.000150761
0.000144311
0.000153607
0.0168009
0.0235236
0.0001646
0.0384182
0.000142467
0.000164688
0.000143721
0.000138608
0.0001474
0.000144848
0.0228903
0.000144353
0.000180971
0.000144974
0.0001603
0.00126795
0.00651611
0.000155901
0.0221268
0.000186607
0.00049622
0.000168359
0.00016869
0.0171514
0.000160904
0.000178806
0.0306564
0.0011958
0.0109927
0.000175104
0.00301524
0.000149609
0.000174926
0.000181018
0.03352
0.000145204
0.0281205
0.000140807
0.000141426
0.0276338
0.000144681
0.00533276
0.00015878
0.000139291
0.000178421
0.00013938
0.000143866
0.000141457
0.000149008
0.000151952
0.000141406
0.000122419
0.0136878
0.000183681
0.0276639
0.000146358
0.000155214
0.000152376
0.000144194
0.000139171
0.000190512
0.000149297
0.000140877
0.000149313
0.000150368
0.0210883
0.0272719
0.000211079
0.0316234
5.1482e-05
0.000142055
0.00783469
0.000163599
0.000141236
0.00273047
0.000154397
0.006677
0.00014177
0.00276687
0.00371169
0.0163767
0.000136634
0.0135155
0.00016671
0.000155884
0.000142988
0.000138467
0.0373206
0.000239249
0.00804337
0.000141967
0.000143637
0.00917472
0.000148039
0.00297378
0.00426933
0.00291792
0.000933418
0.00326815
0.000150653
0.00014463
0.000205437
0.000171555
0.000155246
0.000212527
0.000176458
0.000149481
0.000150808
0.0278078
0.000141111
0.020316
0.00445619
0.00246689
0.000211139
0.000152269
0.000137373
0.000148387
0.00304395
0.00363525
0.000136631
0.000157385
0.000141757
0.000189957
0.000133704
0.000141366
0.000149755
0.000168277
0.00103282
0.000179536
0.000169319
0.000145176
0.000180868
0.0108952
0.00015066
0.0136666
0.00853598
0.000190875
0.000135104
0.000176976
0.000142829
0.000148843
0.000147999
0.0170185
0.000200055
0.00266052
0.000155348
0.0035168
0.000143229
0.000147008
0.000148017
0.00785863
0.00119038
0.00013408
0.000167883
0.000191687
0.0264254
0.000155575
0.0073696
0.000153231
0.0371175
0.000192522
0.0321593
0.000193926
0.00019052
5.67775e-05
0.0270526
0.00287698
0.0143066
0.000146085
0.000226002
0.000133563
0.000155112
0.000159616
0.00014766
0.0272117
0.000165006
0.000162016
0.00418988
0.000210823
0.0101689
0.000143539
0.000155006
0.000160666
0.000137992
0.00016611
0.0182566
0.00440215
0.0219722
0.000140559
0.000160972
0.000153538
0.00410083
0.031263
0.000204616
0.000137292
0.000148934
0.0156841
0.000178752
0.0266691
0.0244391
0.000199328
0.000134934
0.00855576
0.000164733
0.000177267
0.000163312
0.0365202
0.00343557
0.000199145
0.000242848
0.000151034
0.000166649
0.000144831
0.0104171
0.000184852
0.0258358
0.0030944
0.000159416
0.00020354
0.000152644
0.0360854
0.000118339
0.00014463
0.000976607
0.0310267
0.00166991
0.0194368
0.000146408
0.000144912
0.0171591
0.0124577
0.0146482
0.00015526
0.000146272
0.000145052
0.0214437
0.000204394
0.000148943
0.00111288
0.000195993
0.0344573
0.00749931
0.00729412
0.000144289
0.0222259
0.000157218
0.000144698
0.000201762
0.0241101
0.000147003
0.000140794
0.00538026
0.0345628
0.000144418
0.000140446
0.0279146
0.000144121
0.000862904
0.000140564
0.00280385
0.000144928
0.000181356
0.0203703
0.0312753
0.000151944
0.00752679
0.00550871
0.0213664
0.00413158
0.0383247
0.000220757
0.000142447
0.0051756
0.000155795
0.000143656
0.000137892
0.00690687
0.000143023
9.31083e-05
0.000140979
0.000150794
0.0161116
0.00018864
0.00603287
0.000153209
0.000159565
0.000139073
0.000167625
0.00725621
0.024557
0.000140275
0.000186925
0.00326325
0.000147718
0.000138671
0.0294929
0.000169583
0.000170778
0.000199866
0.0252651
0.00175781
0.00493046
0.0167656
0.000224063
0.00368201
0.00323035
0.00268481
0.00018698
0.000137762
0.000200147
0.00014239
0.000142305
0.0274377
0.0297488
0.000154081
0.0296891
0.000185484
0.0196637
0.000178296
0.000168309
0.000143714
0.000201491
0.00028637
0.000142953
0.000152289
0.0361108
0.0309728
0.00508614
0.0338779
0.000174196
0.0387181
0.0373805
0.000167088
0.000147305
0.000142295
0.00318833
0.000141348
0.000109291
0.000152413
0.00015027
0.000154643
0.0131291
0.0398171
0.0194422
0.00014914
0.0095917
0.000158858
0.00016587
0.000140975
0.000144622
0.0124942
0.000161902
0.0275383
0.0198134
0.00083915
0.000198708
0.000144485
0.000174759
0.000147776
0.000204947
0.000149682
0.000152904
0.000148724
0.000153063
0.000205756
0.000150456
0.000170503
0.000143521
0.000171056
0.00022436
0.0176321
0.000142624
0.000179581
0.000148766
0.000237566
0.00016288
0.0223812
0.000258399
0.000166602
0.000155208
0.000152881
0.000514235
0.000144236
0.00172804
0.000143959
0.00014233
0.000148224
0.0336003
0.000161284
0.000156647
0.000170701
0.000149061
0.000185943
0.0321935
0.00446392
0.000170889
0.000144823
0.000245762
0.000138419
0.000142929
0.000211505
0.0359925
0.000148075
0.000167071
0.000212866
0.0109574
0.000149121
0.000150176
0.034374
0.000152299
0.000355503
5.50707e-05
0.0388549
0.000145156
0.000176306
0.000143231
0.040965
0.000203166
0.00017625
0.000198649
0.0198216
0.000151469
0.0355208
0.032889
0.000147715
0.0149724
0.00019094
0.000152623
0.0127519
0.000146389
0.000144477
0.000137842
0.000211067
0.000384084
0.000208357
0.000153065
0.000150904
0.00016468
0.00410064
1.26177e-05
0.0388532
0.00346834
0.00014992
0.00020326
0.000202029
0.012306
0.000191388
0.00227054
0.000141477
0.000169478
0.000138656
0.00690891
0.000173312
0.000143164
0.0273875
0.000237494
0.00016823
0.000164541
0.000132979
0.000149061
0.000180652
0.000169985
0.00972466
0.000187113
0.000188743
0.000182589
0.00019904
0.0424013
0.000253849
0.0388632
0.000142826
0.000140784
0.000205766
0.0202854
0.0113234
0.000227589
0.000154347
0.0158943
0.00330648
0.000142607
0.000160027
0.000139666
0.000175183
0.000187911
0.000314867
0.0113533
7.19293e-05
0.000152409
0.0249852
0.0142967
0.000144192
0.000204816
0.0332452
0.0114485
0.000155461
0.000189278
0.00013162
0.000158336
0.000142577
0.000159041
0.0406143
0.0252017
0.00892293
0.0150451
0.000152095
0.000170186
0.000180567
0.000146331
0.000148701
0.000138483
0.0288809
0.00014105
0.0347605
0.000172582
0.000195101
0.00020978
0.00016584
0.0185153
0.0132056
0.000174655
0.000134482
0.000150515
0.01056
0.00390221
0.000157571
0.000139416
0.000139206
0.000187189
0.00016601
0.000204418
0.035425
0.000151894
0.000138053
0.000201123
0.000212213
0.0165012
0.0140122
0.000140538
0.000188642
0.000147295
0.0435835
0.000136005
0.0393412
0.000142102
0.000151655
0.000166213
0.000149255
0.000223607
0.000165187
0.000179096
0.01551
0.0316032
0.000158498
0.000165332
0.000143536
0.0119454
0.0167746
0.000149023
0.000136221
0.00292284
0.000131554
0.0263933
0.000148495
0.000172429
0.000189722
0.0178397
0.000174982
0.000152034
0.000146358
0.000187954
0.0361164
0.000142507
0.00467342
0.0288828
0.0164941
0.000972319
0.000169784
0.0210158
0.000158245
0.000154022
0.000143191
0.0035175
0.00335415
0.0123123
0.0144217
0.0424534
0.00014589
0.000213378
0.000140769
0.0131912
0.00273454
0.0354654
0.0147137
0.000161782
0.0403811
0.0113257
0.000171052
0.000152978
0.000147169
0.0279205
0.000159565
0.000187803
0.000157781
0.000148094
0.000138604
0.000147201
0.0296657
0.000177283
0.000166909
0.016065
0.00707326
0.000143758
0.000143705
0.000138718
0.000168847
0.038406
0.000138866
0.000159573
0.000169472
0.000609122
0.000192568
0.000177531
0.00856599
0.000165957
0.0390744
0.000164934
0.000166018
0.000143377
0.000157424
0.000188182
0.00319636
0.00393231
0.0307379
0.000189827
0.0229467
0.000158011
0.000156903
0.0001499
0.00995245
0.0204487
0.00190754
0.000242984
0.000154872
0.000145011
0.000142107
0.000143953
0.000138668
0.00942947
0.000164629
0.010773
0.000168232
0.0253329
0.0141555
0.0392399
0.000188468
0.000159395
0.0149383
0.000174418
0.000228332
0.0305712
0.000138205
0.00133981
0.00016165
0.0221048
0.00918604
0.000170635
0.00279256
0.00385617
0.00015707
0.000190476
0.000165307
0.0141873
0.00416767
0.000155983
0.000146415
0.00368404
0.00161985
0.000199839
0.00729931
0.000199839
0.000170949
0.000143724
0.0339007
0.0347405
0.000192552
0.000165913
0.0304407
0.0278796
0.000140963
0.000144434
0.000156496
0.0354206
0.0331875
0.00014365
0.0211939
0.000150118
0.000142584
0.000147835
0.0146164
0.00017264
0.000191986
0.0108575
0.000153458
0.000152813
0.000141207
0.0106982
0.000151591
0.0214827
0.000155113
0.0116434
0.000148888
0.000142449
0.000198993
0.00905833
0.00276646
0.000171255
0.0168438
0.000137036
0.000146308
0.00014458
0.000178053
0.000186511
0.000186398
0.000174565
0.0299577
0.000156723
0.000200393
0.000274769
0.0422951
0.000145795
0.0260448
0.0317634
0.000157562
0.00229116
0.000186479
0.0213321
0.000147501
0.000185238
0.000143391
0.000179315
0.0151333
0.000204009
0.0379252
0.000155046
0.000179327
0.000151993
0.0221482
0.0001352
0.000139542
0.00646009
0.00019567
0.0212423
0.00663284
0.000185963
0.000163715
0.000137677
0.0114215
0.000164782
0.000143032
0.000205531
0.000140714
0.000176667
0.000145021
0.0185947
0.000154222
0.00281243
0.00434193
0.000164997
0.000253269
0.000181611
0.0437872
0.000145327
0.01908
0.0319196
0.000139261
0.000144295
0.000153448
0.000149054
0.000174474
0.000143625
0.00789385
0.000189563
0.0037059
0.000294811
0.000147072
0.000149488
0.000138087
0.0155558
0.000146573
0.000144635
0.000120155
0.000155509
0.00510784
0.0368841
0.000193254
0.000155691
0.000169399
0.000152658
0.000150087
0.000185356
0.000136803
0.00015585
0.00972311
0.0409135
0.000899012
0.000152513
0.0125341
0.00313172
0.000149113
0.002754
0.0304396
0.000143726
0.000154792
0.00014318
0.0173036
0.0167839
0.00745594
0.000136709
0.000156165
0.000151538
0.000146559
0.000199544
0.000147471
0.000794054
0.00674417
0.0372112
0.000138136
0.000155634
0.000154476
0.0150732
0.000133019
0.0163945
0.0108424
0.000645165
0.00136772
0.0188814
0.0283044
0.000150638
0.00675548
0.00850171
0.000151366
0.000137468
0.000140255
0.0372449
0.0110433
0.0135525
0.000148613
0.0399438
0.000147367
0.000208643
0.000139105
0.000154401
0.000151206
0.000138019
0.0175174
0.000151521
0.0279032
0.0275518
0.0159503
0.000179535
0.000180974
0.0161422
0.0354526
0.000148956
0.00689953
0.000138053
0.000131895
0.000143487
0.000182284
0.000140638
0.0157862
0.000163199
0.000612847
0.000175312
0.0106869
0.0164863
0.000209025
0.000137805
0.000181147
0.000191289
0.0164741
0.000145876
0.000135031
0.0001571
0.0271996
0.000147344
0.00435798
0.0148125
0.000175384
0.000186271
0.000146063
0.00168309
0.000148872
0.0395068
0.000135556
0.00919698
0.000166293
0.000146122
0.0153976
0.0151948
0.000135362
0.000186495
0.000157469
0.0128493
0.000167373
0.000263317
0.000518875
0.000149058
0.000181538
0.0271958
0.000142407
0.000178575
0.000151204
0.000189804
0.000167725
0.0118778
0.0243065
0.000146442
0.0261943
0.000151688
0.000177515
0.0302852
0.014476
0.000172908
0.0269525
0.000113511
0.000146539
0.00424344
0.000202119
0.000166019
0.000151383
0.0255025
0.000135653
0.0166688
0.000340877
0.000201347
0.000143426
0.000167765
0.0258238
0.000177868
0.0249242
0.000150266
0.000155674
0.000247571
0.0256168
0.000159438
0.0366873
0.0109877
0.0163773
0.000147946
0.0238356
0.00551186
0.0188424
0.000143982
0.000147895
0.000145342
0.0379851
0.000169954
0.00200339
0.00116829
0.000149294
0.000138001
0.000143801
0.0172049
0.00857969
0.024146
0.0166097
0.000141007
0.0248534
0.0329118
0.000201095
0.0116117
0.0271418
0.000172796
0.0150696
0.000154379
0.000158853
0.0148537
0.0174603
0.000148226
0.0289599
0.000148632
0.000144558
0.0380128
0.0243542
0.0338888
0.0140343
0.000167009
0.000149237
0.000158801
0.0317797
0.0147869
0.000142511
0.000178115
0.00239899
0.000144701
0.000146863
0.0267266
0.0293666
0.000153912
0.00014425
0.000151066
0.000152467
0.00295453
0.000149004
0.000143693
0.000159792
0.00023453
0.0262227
0.00549625
0.024867
0.000146676
0.00015812
0.0301595
0.0343455
0.000164134
0.000251391
0.000143298
0.000171363
0.00015208
0.000151581
0.000188385
0.000143346
0.00997585
0.000169303
0.000141181
0.000157383
0.00894672
0.0324398
0.0226547
0.000144864
0.00016928
0.0353156
0.00447089
0.000156009
0.000145425
0.000144622
0.00361458
0.000147074
0.000149535
0.000162852
0.000144152
0.0305163
0.000123799
0.000148993
0.000156669
0.000136056
0.00014742
0.0245018
0.00867698
0.000188076
0.0125414
0.00022351
0.00014958
0.000143155
0.000146184
0.000145019
0.00014876
0.000163325
0.000187158
0.0302644
0.000150154
0.000197019
0.0226946
0.000397093
0.000144065
0.000139661
0.000154567
0.0308971
0.000144519
0.000669901
2.49158e-05
0.000191092
0.000148076
0.0146034
0.000136731
0.000265733
0.00013766
0.000136946
0.000147615
0.00014129
0.000187281
0.0158684
0.000114876
0.000173957
0.0254004
0.00199592
0.00480267
0.00016719
0.0245882
0.0124664
0.00019742
0.0240889
0.0277093
0.000197976
0.00138334
0.00014913
0.000140721
0.0266853
0.000141879
0.000156852
0.0397773
0.000558115
0.0312972
0.000266928
0.00014004
0.000159315
0.000146504
0.000668593
0.000138919
0.000794374
0.0229905
0.0284821
0.0167868
0.000146621
0.000136104
0.00018849
0.0300144
0.0308238
0.000202891
0.00104408
0.000140298
0.00255764
0.0285117
0.000261585
0.00015619
0.000147001
0.000136668
0.000154364
0.000146624
0.00014556
0.00015634
0.0293563
0.000189799
0.0268296
0.00540068
0.00113704
0.000213302
0.000143096
0.000144066
0.000146811
0.000139068
0.00014892
0.00824569
0.0171277
0.00582822
0.0400667
0.000154357
0.017118
0.000204471
0.0367713
0.0315561
0.000147027
0.000141165
0.00416694
0.000146724
0.000135519
0.00413424
0.0306649
0.00494767
0.000145004
0.000146667
0.000155972
0.000173287
0.00839872
0.000138237
0.000155582
0.00030852
0.000141305
0.00207729
0.0001729
0.0409793
0.000149125
3.08771e-05
0.0293886
0.000171494
0.0308788
0.000197071
0.0278585
0.000136422
0.000158812
0.000140531
0.000165523
0.0148269
0.000149547
0.0112683
0.000146219
0.000146729
0.000144256
0.0399253
0.000177287
0.000196972
0.00479901
0.00013942
0.000177747
0.0137954
0.000181257
0.000140978
0.000151367
0.000146845
0.000186703
0.0001451
0.000141841
0.0423498
0.0370575
0.0383508
0.00115804
0.000474668
0.0172475
0.000188018
0.0413347
0.000201087
0.000135794
0.000146166
0.000131654
0.000148157
0.0326863
0.0330005
0.000138599
0.00950693
0.0416926
0.000164066
0.000149846
0.000169492
0.0248202
0.0257004
0.0296304
0.00989745
0.0309336
0.000131733
0.000154099
0.000196322
0.0046536
0.0162965
0.000143749
0.000201785
0.0158704
0.000168944
0.0281648
0.000149184
0.00088737
0.0168129
0.0359119
0.000189295
0.000167097
0.0166424
0.000202748
0.0364698
0.039023
0.0303636
0.000197712
0.0192551
0.000146929
0.00015733
0.000178966
0.0225133
0.0042072
0.0277466
0.000152367
0.000201843
0.00018624
0.000153332
0.0286129
0.000143753
0.000200637
0.0210625
0.000143708
0.0433167
0.0274939
0.0390261
0.0231716
0.000901604
0.00750602
0.000143418
0.0335264
0.000145933
0.000141692
0.000175646
0.000155865
0.0321473
0.00015622
0.000169975
0.000156534
0.000141226
0.0140895
0.000153646
0.000198296
0.00355654
0.000138106
0.0279025
0.000196049
0.000150211
0.0121818
0.000119341
0.000143412
0.000120408
0.000150496
0.041265
0.00597621
0.000138798
0.000200129
0.000153815
0.035275
0.0311095
0.000188604
0.0152792
0.000158442
0.000144721
0.0406412
0.000155923
0.000145359
0.00508377
0.000174285
0.000140204
0.000141027
0.000202605
0.000153284
0.0209338
0.000154986
0.000478242
0.0206585
0.000181327
0.000187145
0.000143835
0.0361398
0.0172736
0.0220697
0.00014408
0.000137801
0.000188988
0.000166479
0.00357511
0.000145569
0.00247729
0.000144663
0.000233587
0.000149895
0.000990533
0.000219268
0.000198329
0.0281716
0.0210318
0.0300469
0.0297957
0.000131947
0.000883009
0.00102077
0.0209171
0.000144192
0.000211774
0.0168896
0.0143962
0.000199199
0.000416715
0.0120934
0.0379252
0.000177558
0.000125791
0.00013791
0.000179091
0.000175802
0.000143452
0.000187852
0.0209412
0.00155508
0.0150331
0.00195565
0.000142388
0.000140355
0.000170282
0.000143571
0.0171322
0.000138477
0.000140288
0.0410311
0.000187152
0.000171886
0.000195945
0.000153839
0.000194846
0.012662
0.0318949
0.0134873
0.000158651
0.0315683
0.000152647
0.000138717
0.000153972
0.0257692
0.000138486
0.000151576
0.000190715
0.000151459
0.000140995
0.000143614
0.000149178
0.000160619
0.0239606
0.00149949
0.000164125
0.0293711
0.0205823
0.00855477
0.0148229
0.000144848
0.000165294
0.000495762
0.000144371
0.000206986
0.000161338
0.000156111
0.0228244
0.0320419
0.000138512
0.000173696
0.000165312
0.000189461
0.0186745
0.0429231
0.038045
0.000147381
0.000191551
0.0393168
0.000191115
0.000199788
0.0047373
0.0247092
0.0361348
0.0421559
0.000138038
0.0177913
0.000138425
0.000153313
0.000144236
0.000186269
0.03664
0.0147611
0.00359937
0.0136928
0.000184647
0.000135023
0.000139544
0.000146787
0.000157673
0.000177218
0.0396998
0.0424992
0.000189901
0.00242785
0.00014822
0.000184572
0.000138507
0.0382513
0.000200095
0.000146953
0.000210382
0.00019569
0.0337458
0.0261206
0.000203271
0.00754157
0.000158065
0.0224764
0.000131979
0.0157316
0.00261471
0.000152337
0.000184415
0.000146124
0.027631
0.0120975
0.000175303
0.0304311
0.000134048
0.0342798
0.000188791
0.000245817
0.000180596
0.000140172
0.000200758
0.000182665
0.000156567
0.000184217
0.000166806
0.000168556
0.014175
0.000206585
0.000154427
0.000166191
0.000171961
0.0001685
0.000150482
0.0417214
0.000197998
0.000919441
0.0112595
0.000144832
0.0307929
0.000144432
0.000155998
0.000155232
0.0306577
0.000173279
0.0374632
0.0148434
0.000186194
0.000191769
0.000199056
0.0276328
0.000202889
0.013913
0.000165593
0.000177696
0.000142133
0.0332579
0.00216503
0.000164564
0.00014985
0.000172911
0.000159724
0.000157261
0.000179542
0.000173804
0.000147654
0.000170702
0.0149349
0.0252264
0.000227737
0.000175504
0.00013356
0.027042
0.000167855
0.000186001
0.000460881
0.000176075
0.0344028
0.000135816
0.000166732
0.000155795
0.000170203
0.000143342
0.0316973
0.00224476
0.0093466
0.0001737
0.0302939
0.000175733
0.000159263
0.0271732
0.000186512
0.000197209
0.0125844
0.000185983
0.00015631
0.000174428
0.000188929
0.000156608
0.000337041
0.0265921
0.00323566
0.000140218
0.000159353
0.000356461
0.016397
0.00014312
0.000177622
0.000143469
0.000166524
0.0143998
0.000165042
0.000164491
0.000140337
0.000140106
0.01346
0.0255932
0.000146012
0.0277652
0.000208653
0.000135182
0.000167026
0.0332456
0.000199472
0.000195633
0.000144291
0.000161832
0.000203178
0.000150598
0.0001426
0.0337905
0.000164848
0.0317354
0.000191596
0.000160187
0.0350528
0.000204097
0.00020853
0.000140626
0.00510785
0.000165012
0.000160954
0.0278331
0.000174889
0.000147667
0.000194811
0.000157226
0.000158635
0.000136173
0.000457451
0.000144603
0.000194673
0.00594781
0.00019654
0.00014143
9.32498e-05
0.000166147
0.0123994
0.000208151
0.0262061
0.000200594
0.0346817
0.000138713
0.0001897
0.000158847
0.000142084
0.00403992
0.0209822
0.000157757
0.000368537
0.000163931
0.000188773
0.0264174
0.000159768
0.00624529
0.00396559
0.0229371
0.028034
0.000253671
0.000252076
0.000139857
0.000195124
0.000172169
0.00433654
0.0321638
0.0379958
0.0431817
0.0396956
0.000139905
0.000241523
0.000143977
0.000151592
0.000147312
0.00336163
0.000219468
0.000199458
0.000142115
0.00978843
0.000162095
0.0228051
0.000141732
0.00018396
0.000165585
0.000187767
0.00017688
0.000195665
0.00015317
0.000206991
0.000214526
0.000140878
0.0219575
0.000163474