/*--------------------------------*- C++ -*----------------------------------*\
| =========                 |                                                 |
| \\      /  F ield         | OpenFOAM: The Open Source CFD Toolbox           |
|  \\    /   O peration     | Version:  v2012                                 |
|   \\  /    A nd           | Website:  www.openfoam.com                      |
|    \\/     M anipulation  |                                                 |
\*---------------------------------------------------------------------------*/
FoamFile
{
    version     2.0;
    format      ascii;
    class       volVectorField;
    location    "100";
    object      U_0;
}
// * * * * * * * * * * * * * * * * * * * * * * * * * * * * * * * * * * * * * //

dimensions      [0 1 -1 0 0 0 0];


internalField   nonuniform List<vector> 
13917
(
(0.463599 0.00164816 -6.45128e-20)
(0.99948 0.00663341 -2.29894e-21)
(1.13534 0.0965689 -4.8227e-21)
(1.03819 0.0144039 0)
(0.999392 0.0108731 -1.7184e-21)
(1.00326 0.00552183 8.47875e-22)
(1.0554 0.0281832 0)
(0.930884 0.0384574 0)
(1.06582 0.0161743 0)
(0.0651215 -0.202499 4.09976e-22)
(0.940112 0.0361908 -1.19677e-20)
(1.0276 0.0133656 0)
(1.00954 0.000122416 0)
(0.826654 0.200358 0)
(1.01846 0.0163392 -4.77154e-21)
(0.440819 -0.00379655 6.83062e-20)
(1.00358 -0.000127488 0)
(0.958162 0.0454027 2.69636e-21)
(1.08959 0.095232 -9.11297e-21)
(0.493014 -0.0105008 3.72751e-20)
(1.02589 0.0459394 -2.78239e-22)
(1.01115 0.0107015 -9.66485e-22)
(1.06532 0.0509937 0)
(1.0109 0.010426 3.1691e-22)
(1.0368 0.023228 0)
(1.01991 0.0485839 0)
(0.992575 -0.0667916 1.44791e-20)
(0.0386022 -0.129607 0)
(0.995179 0.053897 6.69615e-21)
(1.0114 0.000825133 0)
(0.0589353 -0.132318 4.81775e-20)
(1.0916 0.0560384 0)
(1.03385 0.0174107 4.77626e-21)
(0.513445 0.0196659 2.70573e-20)
(1.0079 -0.000554446 -1.86429e-22)
(0.91477 0.0314405 -5.34627e-21)
(1.02316 0.0251365 -1.02532e-22)
(1.0017 0.000128113 0)
(1.05653 0.0281997 -1.44119e-20)
(1.04377 0.0440507 1.98815e-21)
(1.00306 -5.19817e-05 1.71768e-22)
(1.01594 -0.00419344 2.00064e-21)
(1.05976 0.012126 7.24037e-21)
(1.10257 0.0799013 1.11404e-20)
(1.09991 0.0808445 -1.90408e-20)
(0.92944 0.079404 -5.17687e-21)
(1.02635 0.0436395 0)
(0.468061 0.280788 7.23961e-20)
(0.830333 -0.240014 1.0099e-21)
(1.00779 -0.000437181 2.29224e-22)
(1.02703 0.0130052 -6.63835e-22)
(1.00523 0.0830817 -2.58296e-21)
(0.329887 -0.0103421 3.73843e-20)
(1.01949 0.0135024 0)
(1.02096 0.0143221 0)
(1.01022 0.087211 0)
(-0.00536781 -0.054418 -5.45246e-20)
(1.06375 0.0505265 -1.05052e-20)
(1.01542 -0.00423983 -9.32173e-22)
(0.922557 0.0673822 -5.99502e-21)
(0.332051 0.281068 6.96156e-21)
(1.02543 0.00179633 0)
(1.0055 -2.09861e-06 -2.24361e-23)
(1.0365 0.0225382 -3.05589e-21)
(0.866216 0.11086 0)
(1.01786 0.00392302 0)
(0.984945 0.0529938 0)
(0.914457 0.0164902 -1.00338e-20)
(0.94897 0.0488783 -2.6335e-21)
(0.401995 -0.00255375 -4.37968e-20)
(0.987148 0.116888 -4.94682e-20)
(0.492877 0.0150102 5.16228e-20)
(1.03417 0.00558605 0)
(1.01494 -0.00436753 4.72605e-22)
(1.02766 0.0475649 2.79998e-22)
(1.03296 0.025839 2.10271e-21)
(1.00733 0.0140732 6.53947e-23)
(1.01462 -0.00436175 0)
(1.03282 0.0251114 1.77947e-21)
(1.03429 0.0178659 3.40693e-21)
(1.01673 0.0157693 0)
(1.00304 -0.000119954 7.88031e-23)
(1.03365 0.00510342 1.73096e-21)
(0.962689 0.0785953 2.68012e-20)
(1.01343 0.00246496 -2.18862e-21)
(0.957931 0.131572 0)
(1.09009 0.0549792 0)
(1.01282 0.0012728 -1.78443e-21)
(1.04251 0.0443785 -2.01024e-21)
(1.0043 -0.00015068 0)
(1.00668 -0.000299243 1.33386e-21)
(1.06105 0.0122835 -3.11749e-20)
(0.852888 -0.272747 -2.6064e-21)
(1.00775 -0.00128967 0)
(1.0204 0.0172667 0)
(0.990604 0.0574728 0)
(1.16425 0.153543 5.94239e-21)
(1.00192 -5.808e-05 6.6006e-22)
(1.01329 0.00140926 -2.16704e-23)
(1.12081 0.0736966 0)
(1.0046 2.838e-05 0)
(1.00516 5.84253e-06 0)
(1.01704 0.0161612 0)
(1.00356 3.27445e-05 0)
(1.0072 0.0130932 0)
(0.92293 0.0338064 0)
(0.617987 0.100845 0)
(1.02485 0.00685489 0)
(1.01662 -0.00382331 -5.04725e-22)
(0.904226 -0.107438 1.99802e-20)
(1.01922 9.22053e-05 -9.55368e-22)
(0.5307 0.024474 -2.39371e-20)
(1.00042 0.0572097 -6.57855e-21)
(0.414269 0.299695 2.88776e-20)
(0.879759 0.109671 4.27711e-21)
(1.03149 0.0274139 -3.32094e-21)
(1.08809 0.0916132 8.00663e-21)
(1.007 -9.59347e-05 0)
(1.12446 0.0986858 0)
(1.03212 0.00186851 3.83194e-21)
(1.00359 -0.000150068 1.67871e-22)
(1.01349 -0.0041941 -8.95643e-22)
(0.979462 0.0565274 5.02186e-21)
(1.05426 0.0900126 1.81949e-20)
(0.364751 -0.00687852 -3.19784e-20)
(0.923706 0.0780654 -4.18061e-20)
(1.03681 0.0214123 0)
(1.02755 0.0500516 3.15051e-22)
(1.00678 0.00300541 6.4387e-22)
(1.05767 0.0920905 -2.22766e-20)
(1.07342 0.0314652 0)
(1.00203 -0.052428 5.12801e-21)
(0.636407 0.0206845 1.84254e-20)
(1.03069 0.0274088 0)
(1.09595 0.0623088 3.63534e-20)
(0.904974 -0.0753735 -1.90388e-20)
(0.295055 0.240202 -1.49937e-21)
(0.333701 -0.00756782 -3.02268e-20)
(1.01567 0.0510311 -7.85025e-22)
(1.00078 7.57444e-05 0)
(0.854517 0.2193 -1.48006e-21)
(1.0142 -0.00433009 0)
(0.940549 0.0324391 6.37639e-21)
(1.0108 0.00714174 0)
(1.03174 0.00569382 9.43221e-22)
(1.01518 0.000426541 1.42633e-21)
(0.990411 0.114176 -2.5954e-20)
(0.88258 0.27219 0)
(0.515217 0.245419 4.03481e-20)
(1.01994 0.0139614 0)
(1.0402 0.0431486 -2.8867e-21)
(1.00545 2.59338e-05 -1.58146e-22)
(1.03128 0.00513301 9.06987e-21)
(1.03239 0.00146644 8.94695e-21)
(1.12908 0.144277 -2.61639e-20)
(1.00879 0.0090002 0)
(1.00389 -1.61183e-05 0)
(0.60023 0.0164671 -4.15029e-20)
(1.00484 -3.57988e-05 4.02318e-22)
(1.00638 -0.000143848 -2.47734e-22)
(1.01255 0.00527258 8.17357e-22)
(0.790202 0.19618 -2.49814e-20)
(1.01719 0.0253177 -5.01062e-22)
(0.840157 0.226388 4.78266e-21)
(0.541905 0.26446 3.29049e-20)
(1.16068 0.0893417 0)
(0.223102 -0.00966111 -4.3728e-20)
(0.387401 0.301617 3.69352e-20)
(1.00828 -0.000169206 -1.93194e-24)
(1.01403 0.0541044 0)
(1.01059 0.0105194 0)
(0.653474 0.0290003 -3.51507e-20)
(1.06601 0.0151719 0)
(0.431353 0.250955 0)
(1.02926 0.0458841 0)
(1.00544 2.70444e-05 1.18737e-23)
(1.0388 0.0139644 3.83861e-21)
(0.992512 0.0829118 -1.95606e-22)
(1.07288 0.0303214 -1.118e-20)
(1.01625 0.0257841 4.15379e-22)
(1.05814 0.0131768 -2.89583e-20)
(1.0106 0.0103036 0)
(1.02656 0.0132388 7.91429e-22)
(1.01074 0.140319 4.00364e-21)
(1.12364 0.103069 5.30069e-22)
(1.01142 -0.0659538 2.49329e-21)
(1.02602 0.0129107 2.67446e-21)
(1.00205 0.138199 2.33569e-21)
(1.0115 0.000915122 -6.46571e-23)
(0.964126 0.119686 0)
(1.02881 0.0429334 2.84749e-22)
(1.09741 0.0781263 -1.87029e-20)
(1.03071 0.120667 -9.61482e-21)
(0.476844 0.00393561 2.63424e-20)
(1.00766 -0.00105511 -1.61633e-21)
(0.373429 -0.00539105 -3.16433e-20)
(1.042 0.0305872 -4.33982e-21)
(0.672859 0.0231443 3.61183e-20)
(1.00782 -0.000584839 -3.73334e-22)
(1.00895 0.00902971 0)
(1.02734 0.0398641 1.58461e-22)
(0.409413 -0.00235626 1.84961e-20)
(0.321394 -0.00773053 4.0664e-20)
(1.02067 0.0220769 0)
(0.936727 -0.133125 9.60097e-21)
(1.00325 0.0341459 0)
(1.0414 0.0431316 2.65078e-21)
(1.01401 -0.00429511 9.25385e-22)
(0.998847 0.0873123 0)
(1.01632 0.0156676 -3.09969e-22)
(1.00615 0.00174503 2.332e-22)
(0.98959 0.00426957 -2.92811e-21)
(0.984454 0.00458034 -3.16951e-21)
(0.507242 0.253422 -5.02597e-20)
(1.09514 0.0608427 0)
(1.01921 0.0512769 1.38128e-22)
(0.750214 0.123708 9.06539e-21)
(1.00685 0.000619366 1.52232e-23)
(1.01151 -0.00209162 0)
(1.01163 -0.00200384 7.00673e-22)
(0.373831 0.304177 0)
(1.02099 0.129453 7.93413e-21)
(0.984112 0.146733 0)
(1.01918 0.00150859 0)
(1.00464 -5.67932e-05 3.29213e-23)
(0.819039 -0.11386 -1.95684e-20)
(0.36392 -0.00611128 3.38093e-20)
(1.01041 -0.00175364 0)
(1.01013 -0.00168383 0)
(1.00278 -0.000120212 0)
(1.01216 -0.00212196 -6.03048e-22)
(1.01227 -0.0020361 -8.31387e-23)
(0.48356 0.0123451 -3.75799e-20)
(0.533613 0.239003 0)
(1.01383 0.013177 5.80858e-23)
(1.00893 -9.60961e-05 1.12436e-23)
(1.03591 0.0666162 1.28925e-20)
(0.456319 0.00761018 -3.13336e-20)
(1.00488 -6.60364e-05 3.3813e-23)
(1.01891 0.0014624 0)
(0.922627 -0.132955 -7.63452e-21)
(0.930608 0.030272 2.82339e-20)
(1.01986 0.134928 0)
(0.733481 0.113798 0)
(1.00761 0.0418977 -1.70797e-21)
(1.01104 0.00729492 1.56412e-22)
(0.437156 0.288862 -3.20305e-20)
(1.03621 0.0701284 -1.14091e-20)
(1.00354 0.0537796 -1.61443e-21)
(1.07722 0.0730747 4.02373e-20)
(1.02107 0.0216554 0)
(0.537312 0.234192 2.99886e-20)
(1.03258 0.00279221 -2.43037e-21)
(1.04517 0.0393868 -2.48923e-21)
(1.03454 0.0462579 2.64647e-21)
(1.01346 0.0133795 9.42265e-23)
(1.00165 -2.5725e-05 0)
(1.03711 0.0220964 3.53477e-21)
(1.00658 0.00458845 0)
(1.00837 -0.00223842 0)
(0.400964 -0.00132245 0)
(0.730019 -0.0639983 4.84558e-21)
(1.0124 -0.00445477 0)
(1.00976 -0.00162874 -7.26518e-22)
(1.00876 0.00934677 -7.769e-22)
(1.00969 -0.00168797 -7.66988e-22)
(1.03278 0.00241521 -1.91024e-21)
(1.01444 0.00024868 3.27729e-21)
(1.05243 0.0423769 -1.48304e-21)
(1.01298 -0.00472883 9.50957e-22)
(0.344877 -0.00633771 -1.48323e-20)
(0.630422 0.116106 0)
(1.02232 0.0105115 0)
(1.00647 0.00831553 -1.022e-21)
(0.901426 0.054818 8.01815e-22)
(1.01322 -0.00100223 0)
(1.09719 0.0698147 -1.43759e-21)
(0.421777 0.00170673 0)
(1.01317 -0.00108106 -5.43654e-22)
(0.422671 0.000774711 -6.99992e-20)
(1.00836 -0.00244653 0)
(0.803438 0.203461 2.08152e-20)
(1.00476 8.90193e-06 2.9403e-22)
(1.01796 0.0177956 1.42396e-21)
(1.01344 0.0136269 -1.11621e-22)
(1.0098 0.00643097 6.73908e-23)
(1.07652 0.122353 0)
(1.00277 0.000200721 1.87372e-23)
(1.1834 0.0917418 0)
(1.0411 0.0350424 -6.8985e-21)
(0.75621 -0.112266 -1.04628e-20)
(1.01596 0.00238139 -1.16313e-21)
(1.03352 -0.100201 8.36559e-22)
(0.322614 -0.00820265 0)
(1.00611 -0.000125551 -3.85928e-23)
(1.05526 0.0564158 0)
(1.00364 0.00611329 0)
(1.02985 0.0284731 -2.3685e-21)
(1.00092 0.00941261 2.46805e-21)
(1.03366 0.0248233 4.7897e-21)
(1.00802 -0.00175762 -1.32128e-21)
(1.00347 0.000246471 5.4301e-23)
(0.98686 0.0692923 1.80955e-21)
(0.983167 0.0306802 2.15688e-21)
(1.04534 0.0394225 0)
(1.03352 0.0241867 4.63889e-21)
(1.01852 0.0015393 4.81347e-21)
(0.623877 0.0189353 3.05059e-20)
(0.397417 -0.00416021 5.79057e-21)
(1.0066 0.00196076 -9.57771e-22)
(1.02026 0.00433484 0)
(1.03067 0.0285085 2.94052e-21)
(0.898665 -0.0594188 -3.3194e-21)
(1.1185 0.0590043 5.48582e-21)
(0.626115 0.0850374 0)
(0.486317 0.24193 0)
(1.0161 0.00504628 -5.55431e-23)
(1.00913 -0.0349723 1.07702e-20)
(1.00721 0.00800061 2.15505e-21)
(0.99371 0.0848503 0)
(0.875977 -0.0472227 4.5366e-21)
(1.13503 0.0923185 0)
(1.01407 0.000252768 0)
(1.01866 0.016924 3.65431e-21)
(1.00076 -0.0821153 -1.59212e-20)
(1.00982 0.0104051 6.03626e-22)
(0.995544 0.00489081 1.32113e-21)
(1.09471 0.0787299 -2.74459e-20)
(1.00393 -0.000124478 0)
(0.665021 0.0311029 0)
(1.01329 0.00192361 -5.49919e-22)
(1.0876 0.0327405 5.55302e-21)
(1.01686 0.000427706 2.09337e-22)
(0.406169 -0.0180872 0)
(1.00575 0.00152185 0)
(1.04543 0.03947 -2.77319e-21)
(1.00318 0.0370226 -8.5598e-22)
(1.01439 0.00449707 3.59087e-23)
(1.00496 -0.000122413 1.34392e-22)
(1.08148 0.0710576 1.40813e-20)
(0.969522 0.0410794 -5.81836e-20)
(1.02097 0.0168575 0)
(1.00957 0.0100657 -1.92053e-21)
(0.55661 0.0306074 0)
(0.959899 0.0380661 3.53725e-21)
(0.794295 0.2339 1.18569e-20)
(0.818803 0.177995 0)
(1.01268 -0.00105852 0)
(1.01498 0.0135669 1.80184e-22)
(0.919739 0.0288773 2.83283e-20)
(1.00026 -0.0261458 1.95086e-20)
(1.01265 -0.00114371 4.9287e-22)
(1.00156 0.00657514 -1.02157e-21)
(1.02314 0.0135345 2.96193e-21)
(1.03602 0.071486 -1.25633e-21)
(1.04529 0.03961 0)
(1.03793 0.102634 0)
(1.02455 0.0139241 -4.71365e-22)
(1.09319 0.0765614 1.372e-21)
(1.0842 0.0355004 0)
(0.515857 0.019569 0)
(1.00685 0.00326478 0)
(1.02147 0.0169475 0)
(0.996692 0.0108313 -1.6414e-21)
(1.09917 0.126418 1.42512e-20)
(1.00414 -9.18668e-05 3.90744e-22)
(0.459279 -0.000480349 2.60079e-21)
(1.08436 0.0346106 -1.23152e-21)
(0.878973 0.137163 -4.30165e-22)
(1.021 0.0147302 0)
(1.00962 -0.0073939 0)
(1.02037 0.00453922 0)
(0.90183 -0.273799 3.61913e-21)
(1.01526 -0.00472557 5.36769e-22)
(0.994323 0.149012 -5.99515e-21)
(0.90776 0.0699878 3.71514e-20)
(0.999572 0.0392663 7.38375e-21)
(1.0225 0.0109479 -3.01126e-21)
(1.09429 0.160308 0)
(1.01821 0.00092799 4.07534e-22)
(0.509811 0.272504 -5.69373e-20)
(1.02989 0.126619 -9.72722e-21)
(1.01526 -0.00519874 -5.44267e-22)
(0.88198 -0.261951 -6.67156e-22)
(1.01292 0.0144142 2.74804e-22)
(1.03454 0.0326498 0)
(1.00707 -0.00156966 0)
(0.527429 0.000543233 -1.06838e-19)
(1.0277 0.0378877 0)
(1.02575 0.0244003 -1.77374e-21)
(0.728902 -0.185252 2.09756e-20)
(1.07701 0.0764156 -1.94973e-21)
(1.02098 0.0204563 3.83528e-22)
(0.677692 0.246546 2.23755e-20)
(1.12673 0.0359198 1.46566e-20)
(1.02675 0.0231089 -5.06837e-22)
(1.07311 0.126567 -1.25961e-21)
(1.01578 0.0133816 2.31775e-22)
(1.0763 0.0862433 1.08643e-21)
(1.13021 0.0986694 -3.50897e-20)
(1.01344 0.00168773 1.24417e-21)
(1.06006 0.0238782 -1.35148e-20)
(1.03427 0.0239161 0)
(1.0101 0.00637326 0)
(1.00799 0.00272662 -1.43123e-22)
(1.00701 0.00388579 -1.30497e-21)
(0.23783 0.247636 0)
(1.15696 0.0644307 6.21391e-21)
(1.02126 0.0158843 0)
(1.00689 0.00353923 0)
(1.01089 0.00973313 2.70011e-22)
(1.04819 0.0517008 -7.56851e-21)
(0.896942 -0.0427302 -7.46551e-21)
(1.01491 -0.000349337 -4.43555e-22)
(1.0082 -0.000138277 0)
(1.11693 0.0604174 -1.26772e-20)
(1.01887 -0.0081333 0)
(1.01001 0.00678016 1.91389e-22)
(1.02586 0.0239131 1.62431e-21)
(0.646506 0.207172 4.14202e-21)
(1.05674 0.238556 -3.34919e-20)
(1.02101 0.00396468 0)
(1.0936 0.0961519 -5.13958e-21)
(1.03835 0.0887707 2.98272e-20)
(1.01694 -0.00310858 3.56189e-22)
(1.0143 -0.000535516 9.20832e-22)
(1.02166 0.0402173 3.41004e-22)
(1.00791 0.0025942 -1.15246e-22)
(1.01488 -0.000488458 -4.56392e-22)
(1.01384 0.0134831 0)
(1.0143 -0.000660082 -8.49891e-24)
(1.01656 -0.0029525 3.48403e-22)
(0.454249 0.282198 -2.23937e-20)
(1.01614 0.0137864 -7.74603e-23)
(1.0459 0.0424878 9.84513e-22)
(0.359621 -0.00490249 0)
(1.05372 0.0549605 -8.54871e-21)
(1.00625 0.00192359 -2.40867e-22)
(1.03052 0.00521563 -5.38013e-21)
(0.7058 0.239587 -5.15144e-20)
(1.02561 0.0401584 0)
(0.34709 -0.00882299 3.86251e-20)
(1.01619 0.000132628 0)
(1.02008 0.00432696 3.36554e-21)
(1.01879 0.000834398 -2.08671e-22)
(1.01284 -0.00210904 -6.98443e-22)
(1.02284 0.0242484 -3.0915e-22)
(1.01235 0.0145516 1.85725e-21)
(0.662853 0.188192 0)
(1.0094 -0.0143929 0)
(0.909693 0.0311575 -3.04394e-20)
(1.01977 0.00438314 -3.09555e-21)
(1.0691 0.038058 -3.04826e-21)
(1.00553 -0.00841712 0)
(1.01601 0.0152215 4.90285e-22)
(1.00967 0.0477282 1.78423e-21)
(0.774679 0.232213 0)
(1.02311 0.0131164 0)
(0.895108 0.131808 -4.98123e-20)
(1.00641 0.00234096 -4.60919e-22)
(1.007 0.000891831 0)
(1.01066 0.00930352 2.587e-22)
(1.01336 0.0146497 1.05893e-21)
(1.00595 0.0014161 0)
(1.01048 0.000938195 -3.60031e-22)
(0.613239 0.0186907 0)
(0.389682 0.272205 -6.22094e-21)
(1.00586 0.00127614 -4.25939e-22)
(0.98437 -0.123832 2.08387e-22)
(1.11577 0.0645944 -1.45452e-20)
(1.01814 0.000455892 -7.0758e-21)
(1.05163 0.0586981 -8.50115e-21)
(1.10285 0.0424911 0)
(0.640219 0.238484 4.16575e-20)
(1.06294 0.0249112 -2.34839e-20)
(0.926223 0.0343417 0)
(1.01683 0.0808888 0)
(1.03881 0.0632359 -9.03566e-22)
(1.01279 0.0148155 -1.78305e-21)
(1.01624 0.00409403 0)
(1.00254 -0.00581739 3.51515e-22)
(1.0207 0.0209384 -6.50286e-22)
(0.968012 0.213906 -7.51935e-22)
(1.00641 -0.000295416 -7.22752e-22)
(1.0195 0.0130145 -1.7845e-21)
(1.02089 0.0173816 0)
(1.06249 0.0206922 -1.77935e-20)
(1.03199 0.0443448 5.48125e-22)
(1.11542 0.103657 3.36301e-20)
(1.07327 0.0559926 1.08338e-20)
(1.02168 -0.00178196 -1.01072e-21)
(1.00577 0.00742439 2.30448e-21)
(0.965572 0.0543068 0)
(1.05248 0.0382695 0)
(1.02087 0.0156693 0)
(0.809157 0.218148 0)
(1.05715 0.0423223 3.2773e-22)
(1.04172 0.0347249 3.60939e-21)
(0.50107 0.276656 -4.11484e-20)
(1.01354 0.00219219 1.28928e-21)
(1.05386 0.0370147 -3.31938e-23)
(0.984438 0.08747 1.64611e-21)
(1.00633 0.00160033 1.18322e-22)
(0.516656 0.00985258 2.33341e-20)
(1.00709 0.000899422 -1.75009e-22)
(1.01292 -0.00200207 0)
(1.04861 0.0534164 0)
(1.01616 -4.29437e-05 4.52518e-22)
(1.00701 0.000663611 0)
(0.988236 0.0616721 -2.07119e-21)
(0.574489 0.0137506 -5.86968e-20)
(0.652221 -0.21305 1.9213e-20)
(1.01258 0.00496852 -1.62954e-21)
(1.04384 0.012473 6.0283e-21)
(1.02176 -0.00742571 5.96669e-22)
(0.953099 0.194622 8.87392e-21)
(0.801067 0.00604909 -2.56325e-20)
(1.02027 0.0148551 0)
(1.02045 0.0139307 -8.87987e-22)
(1.0122 0.00444673 2.26817e-21)
(1.03843 0.0477964 6.17694e-21)
(0.868843 -0.264019 -1.42223e-20)
(1.00671 0.00232647 0)
(1.00487 -0.000112453 0)
(1.00891 0.00866877 0)
(1.0101 0.00610452 0)
(0.99867 0.00242876 8.8653e-22)
(1.04776 0.0339713 -8.4856e-21)
(1.00607 -0.000216134 -9.58989e-22)
(1.07196 0.0572589 -1.33122e-20)
(1.00631 0.00150152 -2.3613e-22)
(1.01149 0.0103735 9.94455e-22)
(1.0342 0.0233262 0)
(0.60034 0.0558305 0)
(1.00626 -0.00066936 1.60366e-22)
(1.05181 0.0178793 4.36399e-21)
(1.00833 -0.00186123 2.32932e-21)
(1.0684 0.0370009 2.68445e-21)
(1.05207 0.0681647 0)
(1.01679 0.0790078 -7.18287e-22)
(1.03215 0.0469389 0)
(1.13408 0.0628452 -1.13319e-21)
(1.03181 0.0223292 3.80375e-21)
(0.972944 0.0501688 3.86747e-22)
(0.698634 0.0258967 -4.64183e-20)
(0.48526 0.270745 5.67673e-20)
(0.380943 -0.00278523 -2.60849e-20)
(1.00655 0.00113184 -6.03301e-22)
(1.01016 0.00867647 -2.76822e-22)
(1.02342 -0.000397354 0)
(1.02213 0.0077304 0)
(0.862498 0.0996868 -1.63854e-20)
(1.01373 -0.000985468 -5.57672e-22)
(0.832823 -0.200948 1.02451e-20)
(1.04267 0.0302652 2.26726e-21)
(0.787279 0.0430651 0)
(1.10953 0.0690032 0)
(1.05929 0.0132216 1.26592e-20)
(0.294615 -0.106384 5.60549e-20)
(1.00585 0.00112728 -1.3365e-21)
(1.09765 0.0433244 -3.80955e-20)
(1.00259 -8.7703e-05 6.41439e-22)
(1.00793 -0.00652092 1.49679e-21)
(0.753141 0.0400083 0)
(1.01554 -0.000125621 -4.19054e-22)
(1.13765 0.0680095 4.91959e-20)
(1.00443 -2.36353e-05 1.0547e-22)
(1.01689 0.000239425 6.50125e-21)
(1.01037 0.00908544 0)
(1.11417 0.100909 -3.25321e-20)
(0.997576 0.000691626 -8.64331e-22)
(1.00859 -0.00141161 -6.78871e-22)
(1.10598 0.0756563 2.34347e-20)
(1.05069 0.05681 8.58535e-21)
(0.923991 0.215242 -1.53674e-21)
(1.02838 0.113997 2.93258e-20)
(0.640579 0.0183646 1.74454e-20)
(0.609894 0.246829 -4.26078e-20)
(1.00617 -0.000611869 0)
(0.381048 -0.00616193 3.13049e-20)
(1.00666 2.3206e-05 -2.01866e-22)
(0.328715 0.252379 1.74735e-21)
(0.885632 0.251523 5.3777e-21)
(1.00704 -0.00740018 0)
(1.02097 0.00529948 -5.90832e-22)
(1.005 4.80283e-05 0)
(1.05672 0.0417272 8.24966e-21)
(1.05748 0.0120774 -2.3285e-23)
(1.01552 -0.000282426 0)
(1.00242 -5.69161e-05 -4.6924e-24)
(1.01274 0.000380413 0)
(1.06424 0.117055 0)
(1.01384 0.00584793 -5.73523e-22)
(1.08957 0.0518123 -2.8021e-20)
(1.01904 0.0126522 1.76288e-21)
(1.00851 -0.0013189 6.56361e-22)
(1.00551 -3.56222e-05 -8.96873e-22)
(0.945162 0.0790426 0)
(0.922301 0.210788 1.8381e-20)
(0.352992 -0.0618545 -4.48028e-20)
(1.07579 0.0707428 -5.20945e-21)
(1.04833 0.0336013 0)
(1.08259 0.183265 -5.07422e-20)
(0.460892 0.00861927 3.28508e-20)
(1.00729 -0.00172773 0)
(0.892212 0.222737 2.90915e-21)
(1.0123 0.000174244 1.76297e-21)
(1.11038 0.0449597 4.17782e-20)
(1.02183 0.0079145 -1.96993e-21)
(1.10449 0.154737 0)
(1.00983 0.00579423 -7.51381e-23)
(0.998546 0.00507482 8.46768e-22)
(1.03245 0.00570173 -4.55557e-21)
(0.933419 0.260157 -3.09114e-20)
(1.05421 0.0428479 9.85147e-21)
(0.832973 0.117461 8.88543e-21)
(1.00548 -0.000253799 0)
(1.05282 0.041149 -1.06865e-20)
(1.00707 0.000534725 -1.82704e-21)
(1.00398 -4.99874e-05 -8.52308e-24)
(0.533305 0.0251875 0)
(1.13743 0.120564 5.32236e-21)
(1.00742 -6.96012e-05 1.37534e-21)
(1.03604 0.108244 7.72166e-21)
(1.01876 0.0016382 -5.36801e-21)
(1.01018 -0.00770315 -7.1831e-22)
(1.00457 -6.74784e-06 0)
(0.554567 0.0323605 -2.85204e-20)
(1.01407 0.00575479 0)
(1.00502 0.00427621 1.27726e-21)
(1.01374 -0.000893033 3.17348e-22)
(1.00732 0.000104624 -1.38157e-21)
(1.09491 0.126937 0)
(1.00513 2.73975e-05 2.51155e-22)
(1.05167 0.104916 0)
(1.00253 -0.000106333 0)
(1.00596 0.00166665 -4.38665e-22)
(0.297928 0.273431 -1.46762e-21)
(1.09077 0.0525653 0)
(1.01989 0.0143804 0)
(0.276603 -0.0106217 8.10871e-20)
(1.13751 0.0663482 -4.04768e-20)
(0.954091 -0.0732755 -3.30772e-21)
(0.977582 0.0826382 -1.8684e-22)
(1.00576 0.00100216 8.4869e-22)
(1.01919 0.0154325 -5.06687e-21)
(0.581409 0.0459296 0)
(1.13237 0.0452029 2.71605e-20)
(1.02262 0.0385242 0)
(1.0239 0.0253681 -2.4249e-22)
(0.997727 0.00626254 7.57496e-23)
(1.00296 -0.000127137 4.32364e-22)
(1.00748 0.00490541 7.09838e-22)
(1.01868 0.00566515 7.28016e-24)
(1.04786 0.0711076 1.0892e-20)
(1.0382 0.0292375 4.36607e-21)
(0.443891 0.288063 -3.32705e-21)
(1.05498 0.0436248 -1.29629e-20)
(0.859165 -0.0798526 0)
(0.77534 0.0299923 0)
(0.990799 0.0342798 0)
(1.04649 0.0396325 2.33976e-22)
(1.03795 0.119405 9.81137e-21)
(0.43762 0.00365835 3.70688e-20)
(1.00792 -0.00146692 0)
(1.00949 0.0227075 2.38954e-21)
(1.01907 0.00719956 4.15173e-24)
(1.00607 0.00173364 4.08038e-22)
(1.00471 -0.000185256 -2.29038e-22)
(1.00559 -3.74664e-05 -5.58189e-22)
(1.02392 -0.00734079 0)
(1.00828 0.000764426 -4.60825e-22)
(0.386683 -0.00559924 3.46934e-20)
(1.08035 0.0293812 -3.67152e-20)
(1.00429 0.000165549 -3.03642e-22)
(1.09269 0.0762795 -8.90632e-21)
(1.00567 -0.000282941 -4.43231e-22)
(0.645457 0.0957236 2.40426e-20)
(1.00848 -0.00287628 -7.25968e-22)
(1.00672 0.00269763 0)
(0.544983 0.0113457 2.04403e-20)
(1.05553 0.0651398 1.29633e-20)
(0.870931 0.0748202 5.8704e-21)
(1.03456 0.00790176 0)
(1.0192 0.00281569 -1.82348e-22)
(1.00669 0.00134385 -7.183e-22)
(1.04043 0.0104008 -5.13399e-21)
(1.05732 0.0317291 0)
(1.00912 0.0060412 5.38146e-22)
(0.34095 -0.00729434 3.75431e-20)
(1.04215 0.0369584 0)
(0.813065 -0.172325 1.904e-20)
(0.884933 0.108603 0)
(1.00683 0.0227105 -2.44749e-21)
(0.641508 0.0187633 2.09002e-20)
(1.04354 0.0130788 1.18666e-20)
(1.00277 9.60481e-06 8.00464e-22)
(1.00712 0.000380126 2.05203e-21)
(0.437311 0.00410191 7.05964e-21)
(0.657895 -0.222863 -2.27314e-20)
(1.0421 0.0313346 4.94948e-21)
(0.354554 -0.00752959 -3.38102e-20)
(0.875324 -0.280432 8.41098e-21)
(1.00587 0.00168237 0)
(1.00665 0.00217266 0)
(1.02195 0.0239575 1.08253e-21)
(0.941223 0.0389621 5.78211e-20)
(0.966252 0.0101994 1.23579e-20)
(1.05314 0.0431881 3.43664e-21)
(1.03967 0.010345 -4.33663e-21)
(1.05143 0.0184957 0)
(1.11118 0.0441285 -5.69738e-20)
(1.00753 0.00864737 9.76798e-22)
(1.04357 0.102222 0)
(1.07984 0.0304564 3.32195e-20)
(1.02003 0.0167037 0)
(1.03403 0.018172 0)
(1.00269 1.52384e-05 0)
(1.05651 0.0313815 0)
(1.00674 0.00622808 0)
(1.12433 0.0348846 -1.93355e-20)
(1.02877 0.0294078 1.05952e-21)
(1.01511 -0.0167979 8.15968e-22)
(0.344942 -0.00758487 2.68315e-20)
(1.01328 0.00203322 -4.23013e-23)
(0.865098 -0.261232 3.0548e-21)
(1.02431 0.0246118 1.47506e-22)
(1.00634 0.0152095 0)
(1.0454 0.0292737 -6.97358e-21)
(1.13349 0.0467609 -5.27571e-20)
(1.00381 -0.000159471 0)
(1.0967 0.041393 -1.64116e-20)
(0.952607 0.205551 9.72614e-21)
(0.918732 0.0682847 -4.14536e-22)
(1.02306 0.00772384 1.94779e-21)
(1.02968 0.0294331 -1.10417e-21)
(1.00662 0.000417234 2.18026e-22)
(1.01992 0.00606112 0)
(1.03226 0.00450359 9.72221e-22)
(1.01494 0.0320439 -1.99333e-21)
(1.00607 -0.0132116 -6.76609e-22)
(0.952528 0.0741888 0)
(1.04735 0.106511 0)
(1.00567 0.000758617 9.15202e-22)
(1.12951 0.0341759 1.82602e-20)
(1.06486 0.0165048 8.63159e-21)
(1.06223 0.021351 2.57059e-20)
(1.04024 0.113147 0)
(1.01498 0.0139194 -6.14932e-22)
(1.09693 0.0440901 5.5347e-20)
(1.17445 0.118792 1.50668e-20)
(1.00734 -0.00105339 0)
(1.05767 0.0650987 2.028e-20)
(1.02092 0.0368279 0)
(1.07841 0.0306494 1.73297e-20)
(1.00704 0.00379142 -3.49416e-22)
(1.00608 0.00175468 0)
(1.00736 0.00470214 0)
(0.393003 -0.00382958 2.18009e-20)
(1.03296 0.0171323 -4.27866e-21)
(1.00864 -0.00364531 6.92909e-22)
(1.08612 0.0330975 -4.78716e-21)
(1.00932 0.00635159 -5.42259e-22)
(1.0064 0.00209746 0)
(1.01492 0.0849412 -2.13519e-21)
(1.18347 0.122529 0)
(1.00528 0.0426507 -3.11537e-21)
(1.02203 0.204076 3.43073e-20)
(1.03407 0.0675802 -1.04261e-21)
(0.91228 0.0274966 0)
(1.03269 0.00405732 -1.20673e-20)
(1.00659 0.0145433 -1.57186e-21)
(1.1076 0.166161 -1.64086e-20)
(1.00777 -0.00906594 0)
(1.04463 0.0109516 0)
(1.00466 -0.000123447 1.64556e-22)
(1.00453 -0.000217755 0)
(1.03319 0.00897905 -9.39611e-21)
(1.02753 0.0303394 -1.70409e-21)
(1.02091 0.0836915 0)
(1.00695 0.0036018 1.08429e-21)
(1.02203 -0.00132352 3.12406e-22)
(1.00846 0.00753222 1.15115e-21)
(0.906781 0.253204 0)
(1.02507 0.0249028 -1.60713e-22)
(1.06342 0.0240316 8.63464e-21)
(1.01681 0.00023214 0)
(1.0758 0.0747642 -2.43722e-20)
(1.01799 0.0174609 0)
(0.789279 0.22773 3.32879e-20)
(1.00812 0.04708 4.3116e-21)
(1.0036 -3.89321e-05 0)
(0.614441 0.0699153 0)
(1.03355 0.01905 6.0868e-21)
(0.395109 -0.00221694 0)
(1.05714 0.0104079 -8.54448e-21)
(1.00826 0.0715691 1.87688e-21)
(1.00778 0.00980516 0)
(1.00655 0.000504905 0)
(1.02275 0.00729379 -3.91393e-21)
(0.682811 0.0389958 0)
(1.05488 0.0317501 -1.15606e-20)
(0.926883 -0.0718584 -6.90178e-21)
(1.04121 0.268043 1.40218e-20)
(1.01964 0.00586984 0)
(1.07814 0.0317441 -2.25537e-20)
(1.00882 -0.00015828 0)
(1.01504 0.00438273 4.73754e-22)
(0.919048 -0.178069 -8.6719e-21)
(1.00906 -9.18992e-05 9.30274e-24)
(0.469846 0.27951 0)
(1.05337 0.0172864 -8.78331e-21)
(1.01516 0.0768212 1.81872e-21)
(1.08428 0.0909332 0)
(0.985757 -0.105751 -3.27606e-21)
(1.00899 -0.00209088 -2.59456e-24)
(1.00438 -0.000180258 -2.29973e-22)
(1.02008 0.00874776 4.89085e-21)
(1.00576 0.000861815 4.66257e-22)
(1.0186 0.0131312 3.3964e-22)
(1.02754 0.0223799 0)
(1.00971 0.0080862 2.89019e-22)
(1.08574 0.0340854 0)
(1.00889 -0.00202328 -9.84656e-22)
(1.00095 0.129851 5.67389e-22)
(1.01954 0.016627 1.0059e-21)
(0.444264 0.000126264 0)
(0.386493 -0.00340642 0)
(0.899946 -0.00682205 0)
(0.898714 0.0290148 -7.62042e-21)
(0.896155 0.0954011 2.04288e-20)
(0.434087 -0.0018779 0)
(0.910439 -0.0937491 0)
(1.00533 0.00102522 2.85209e-22)
(1.01173 -0.00802528 0)
(1.02698 0.00871012 0)
(1.03009 0.0197244 0)
(1.01221 0.00471612 1.84715e-21)
(1.05583 0.0321037 1.40704e-20)
(1.01382 0.00737374 0)
(0.89539 -0.0222385 -1.58783e-20)
(1.01902 0.0135245 0)
(1.10349 0.0966291 0)
(1.03268 0.016311 -6.7504e-21)
(1.07704 0.0242323 -2.67255e-20)
(1.04019 0.0101784 0)
(1.00676 0.000620661 1.37193e-21)
(1.04521 0.0445898 1.52775e-22)
(1.03311 0.0193007 -3.2994e-21)
(1.00714 -0.00338814 1.63849e-21)
(1.04949 0.0285471 9.04969e-21)
(1.01825 0.00117511 -5.92126e-22)
(0.642564 0.0176186 0)
(1.04639 0.0742474 0)
(1.02831 0.00244643 -6.58784e-23)
(1.00661 0.0016934 3.41123e-22)
(1.02412 0.00054678 0)
(1.01001 0.0102175 0)
(1.00856 0.00781753 0)
(0.533943 0.27038 5.46331e-20)
(1.00549 0.00124562 7.35078e-23)
(1.13965 0.0988979 0)
(1.00982 0.00557464 7.70336e-23)
(0.976339 0.0984414 3.19003e-21)
(1.01793 0.0188559 2.59038e-21)
(1.01179 0.00741729 -4.84888e-22)
(1.09765 0.0420309 2.41041e-20)
(1.02838 -0.00083894 -4.67931e-22)
(1.0056 0.00138286 -1.53939e-22)
(0.869752 0.148361 0)
(0.930315 0.219065 8.37915e-22)
(1.01893 0.0216056 0)
(1.0801 0.0730997 -1.47788e-20)
(1.00584 0.000461349 -1.4905e-21)
(1.11921 0.0899014 0)
(1.01952 0.00217722 3.68075e-22)
(1.00869 0.0080664 0)
(0.497768 0.0131932 3.59002e-20)
(1.00375 -0.000204422 -4.69602e-22)
(1.03865 0.015174 0)
(1.09005 0.0764544 3.43956e-20)
(0.48048 0.00823093 0)
(1.02025 0.00254013 -3.77064e-22)
(0.926182 -0.162197 0)
(1.10126 0.171374 0)
(1.01572 -0.00405211 0)
(1.01004 0.0135166 -2.55711e-21)
(1.0099 0.00846122 -3.50138e-22)
(1.06485 0.09477 -3.03372e-20)
(1.02327 0.00106895 0)
(1.10841 0.0774541 2.66793e-20)
(1.02788 0.0114293 3.67935e-21)
(0.5259 0.0109842 -2.0208e-20)
(1.01832 0.0180992 -3.84175e-21)
(0.621903 -0.0230632 -2.09458e-20)
(1.00697 0.00385903 0)
(1.01396 0.000982253 -1.70115e-22)
(1.02686 0.0503309 -8.73171e-22)
(1.00894 0.000564593 0)
(1.01299 0.00185429 6.63396e-23)
(0.73844 0.0282161 -8.95428e-21)
(1.02355 0.0210939 5.9523e-22)
(1.00747 0.00292378 3.10392e-23)
(0.836117 -0.0544539 0)
(1.01549 -0.00434765 0)
(1.01279 -0.00840353 -1.35898e-21)
(1.05074 0.0711786 0)
(1.02609 0.0224961 0)
(0.849451 0.101038 9.35795e-21)
(1.04487 0.0422423 3.98604e-22)
(1.10213 0.0444772 0)
(0.978857 0.0713696 -2.37363e-21)
(1.05041 0.0185653 0)
(0.538929 0.0119103 0)
(1.01978 0.0175752 -3.90519e-22)
(1.05452 0.0680291 0)
(1.02147 0.0041909 3.59809e-21)
(0.378928 -0.00341688 3.16124e-20)
(1.00695 0.0786337 0)
(1.03636 0.00734989 -6.46224e-21)
(1.01961 0.00192163 3.72351e-22)
(1.00803 -0.00395341 0)
(1.02067 0.0149393 0)
(1.01892 0.00164676 2.00409e-22)
(1.01379 -0.00411944 1.32207e-21)
(1.01163 -0.00474922 -5.78883e-22)
(1.02274 0.00665415 0)
(1.04658 0.0347309 -9.59822e-21)
(1.0073 -0.00097506 0)
(1.0237 0.0204957 -7.55415e-22)
(1.0888 0.0627698 -4.58491e-20)
(0.543655 0.257603 0)
(0.766221 0.223897 -3.71568e-20)
(1.08822 0.0738447 -1.69039e-20)
(1.01029 0.0105417 0)
(1.03316 0.0541851 1.05149e-21)
(1.0132 0.00646545 0)
(1.11156 0.15877 -1.34788e-20)
(0.87682 -0.255289 1.68566e-20)
(0.185576 -0.0115217 -4.2041e-20)
(1.01333 -0.00161522 -3.89941e-22)
(1.00542 0.00114159 -7.18018e-23)
(1.01575 0.00114605 -4.24321e-21)
(1.01579 0.0122936 0)
(1.01307 -0.00155781 0)
(1.01869 0.000557331 3.01874e-24)
(1.01606 0.00638975 2.40631e-21)
(1.04628 0.0400887 7.39164e-21)
(1.00764 0.00298471 5.42445e-24)
(0.475502 -0.00706256 0)
(0.858451 -0.0742925 -4.07044e-22)
(1.00737 0.0036588 -8.08539e-23)
(0.710097 0.0438878 0)
(1.02192 0.00428974 -4.89546e-22)
(1.00711 0.00418836 8.30864e-22)
(1.01965 0.00738929 4.05695e-22)
(0.573003 0.0389328 -2.8273e-20)
(1.05722 0.0379126 3.06244e-23)
(1.006 -4.24639e-05 -2.11794e-22)
(0.883156 0.0136963 -5.94207e-21)
(1.00742 -0.000187412 6.71641e-22)
(1.00684 0.00323749 0)
(1.14251 0.0331598 2.70462e-20)
(1.01115 -0.00845149 1.08699e-21)
(1.11897 0.208986 1.3731e-20)
(1.03955 0.0154398 -7.96016e-21)
(1.01498 0.0921468 2.0824e-21)
(1.00629 0.00213626 1.10885e-21)
(1.01315 -0.00439022 -5.20484e-22)
(1.02871 0.0406817 0)
(0.993338 -0.0791957 1.14691e-21)
(1.03193 0.0217479 5.67154e-23)
(0.481391 0.0125777 2.93661e-20)