/*--------------------------------*- C++ -*----------------------------------*\
| =========                 |                                                 |
| \\      /  F ield         | OpenFOAM: The Open Source CFD Toolbox           |
|  \\    /   O peration     | Version:  v2012                                 |
|   \\  /    A nd           | Website:  www.openfoam.com                      |
|    \\/     M anipulation  |                                                 |
\*---------------------------------------------------------------------------*/
FoamFile
{
    version     2.0;
    format      ascii;
    class       volScalarField;
    location    "950";
    object      ddt0(omega);
}
// * * * * * * * * * * * * * * * * * * * * * * * * * * * * * * * * * * * * * //

dimensions      [0 0 -2 0 0 0 0];


internalField   nonuniform List<scalar> 
13851
(
8.40577e-05
-0.0236556
0.000233196
6.81395e-05
0.000238578
0.0890925
4.52893e-06
0.000186043
-6.11959e-06
-0.00119575
-0.0599688
-0.156114
-0.0400968
-0.31419
8.09535e-07
0.000174302
6.70175e-05
-4.90096e-05
-0.0445052
-5.38439e-06
6.06639e-05
0.000444203
2.63118e-05
-2.69796e-05
2.9962e-05
0.000172238
4.05251e-05
-0.799533
7.4968e-05
2.90305e-05
0.210098
7.05343e-05
0.000532722
-0.0658754
-2.7315e-05
-0.000552815
0.515631
0.00193242
-0.00122106
-0.0585403
6.87824e-06
2.43736e-06
-0.164311
-0.0544942
-0.0341045
2.47964
-0.0392233
0.000899486
4.1537e-05
0.130381
-0.000235967
-0.00111601
-0.0269678
2.03415e-06
-5.78676e-06
2.19163e-06
1.28517e-05
-0.185679
2.8168e-05
7.05986e-06
0.0092317
-0.189863
-0.00195001
0.0002479
0.12865
0.000157946
0.496362
-0.0328431
0.000102915
-5.41648e-05
-0.0160753
0.185275
0.013755
2.80348e-06
1.01223e-06
-1.19213e-05
0.000392386
-0.0448637
0.00026559
-0.0096893
1.32135e-05
-0.0127028
2.47023e-06
3.53036
-0.00171503
-0.159652
0.0118814
-0.0126967
6.4846e-05
9.95532e-06
0.00433908
0.00331419
-0.00112832
8.67654e-05
5.93258e-05
1.32587e-05
0.000383091
0.0136192
0.143267
1.72917e-05
-0.481887
0.000162346
3.20376e-05
2.0091e-05
-1.15052e-05
0.00896828
0.000108789
4.6992e-07
0.0708949
0.127986
-1.19417e-05
8.34499e-06
0.000470212
-4.18978e-05
-1.57788e-05
0.158322
0.0228455
1.81526e-06
-4.50083e-05
-1.17756e-05
-0.213397
2.10377e-05
-0.045682
0.263035
-0.00456199
-9.08772e-05
0.131014
0.000236677
5.0306e-05
-0.000436007
6.34543e-06
-1.89033e-06
-0.0342807
2.27709e-06
-0.256658
-1.27305e-06
2.05788e-06
0.209054
-0.179427
0.146291
-0.57266
-4.29296e-06
-5.66681e-05
9.86023e-06
3.97166e-05
-0.0633687
0.00214472
-0.000459487
4.50173e-06
-0.0175969
-0.000867741
-1.19565e-05
-0.188243
1.5431e-05
3.21006e-05
3.78128e-05
-1.47579e-06
2.70895e-05
-0.00110269
-0.000214531
-6.18008e-06
6.23507e-05
-0.140724
-1.85187e-06
0.000102971
6.32241e-06
-0.00621946
9.42577e-05
4.54522e-05
-0.899278
-0.0536983
-1.55587e-06
-1.04256e-06
0.149519
-1.55159e-06
-0.0570846
0.000256038
-2.3379e-05
-0.0277173
-7.23309e-08
8.4825e-05
0.150864
1.9e-06
0.000476101
-5.28301e-06
3.96392e-05
0.000159597
-3.6023e-07
0.000528842
-0.00187852
-0.0452931
-0.0424916
7.92869e-06
0.000133438
-0.0894052
3.01241e-05
-5.63644e-05
-0.0252127
-3.34481e-05
-1.25168e-05
-0.000166166
1.58937
-6.01824e-05
3.08145e-06
-0.00105134
2.20597e-06
0.538011
6.6837e-05
0.00797247
-3.34731e-06
-0.0144203
3.01708e-05
0.07233
-9.3727e-07
7.64881e-06
-0.0465922
-0.000784575
1.54479
5.55567e-07
0.00873022
6.90153e-05
1.39052e-05
0.00711956
-0.000526009
-0.0452132
3.52706e-05
0.000108483
-1.17419e-05
-0.086119
-1.48399e-06
0.000134678
0.266647
-1.44291e-06
9.46703e-06
-0.000191471
0.000347441
0.640699
0.024983
9.24488e-06
3.07428e-06
0.166656
0.118478
-1.16065e-05
-0.00120224
-1.0679e-05
-0.026215
0.00019696
-0.0236294
3.82384e-05
8.63497e-05
0.000718226
0.0394116
1.52769e-05
4.01385e-05
-0.000111346
-0.073433
-0.00321989
0.199472
0.388819
1.70264e-06
8.21587e-06
-3.30751e-05
-0.110199
1.47712e-05
-0.116841
3.02577e-05
1.46665e-05
8.48566e-05
0.000784841
0.00344096
0.00053153
3.22116e-05
0.0820344
0.000256819
0.00017604
-2.19519e-06
-0.00708044
-0.0494691
-0.0705725
-0.0406473
2.90683e-06
-3.08288e-06
-1.47102e-05
-5.72241e-05
-0.0832956
-0.104007
-7.88099e-06
8.53611e-07
0.0706485
0.013096
0.000101581
2.80795e-05
7.72007e-06
0.000125665
0.00450359
-0.147191
9.664e-05
-0.191552
-2.3968e-06
-0.0270884
6.38314e-05
6.57301e-05
-0.0641004
1.45589e-05
0.0152832
0.0145761
-7.28519e-06
2.60703e-05
9.01454e-05
2.69832e-05
-0.334456
9.97763e-05
1.4017e-05
0.0222688
3.55384e-06
9.01982e-05
-0.000216209
-0.0534488
-0.00125586
6.38282e-07
0.000124926
8.18999e-07
0.0371674
-0.00117396
3.30405e-05
-8.16993e-07
-0.00134352
0.000100273
2.90007e-05
7.63028e-07
1.39258e-05
1.32037e-05
-0.0436344
0.683854
-0.717794
-0.000272169
-0.0462455
0.10624
5.18662e-07
0.000140683
0.000653154
0.000507567
0.00143621
-0.000603974
-0.0595887
-0.000231614
-0.0325023
-0.000651246
9.83199e-07
0.0172505
0.015275
0.178831
2.82655e-05
0.00189741
-0.101692
-4.82248e-07
-0.0297639
-1.30562e-06
7.81213e-07
-8.36038e-06
5.74274e-08
-1.35441e-06
-0.00635406
-0.0110463
5.04415e-06
5.92085e-05
4.29312e-06
-0.169412
0.000237315
-0.109457
-0.585304
5.70916e-06
-0.00079885
9.53834e-05
-0.0968197
4.34898e-06
2.09953e-06
0.000719374
-1.19084
5.34728e-07
-0.505702
0.00342343
-0.000747647
-2.24339
0.0443152
0.0522408
0.000656073
-1.47039e-06
5.46432e-06
-0.000200237
9.28583e-05
-0.363895
7.31553e-05
-0.0419631
0.00903745
4.66513e-06
1.8004e-06
-1.06851
0.0041936
0.16238
0.0266545
-0.000980794
0.000102598
3.04682e-05
0.0881388
-3.96306e-06
0.000157223
0.000414648
4.98509e-06
-1.39631e-05
-7.02514e-06
5.95203e-06
6.33306e-05
0.00117247
-0.182851
-9.82263e-05
7.3936e-05
0.000834536
-0.0414656
0.000111296
0.295657
6.22576e-05
-0.031013
1.81793e-06
-6.66837e-06
4.72968e-05
-0.0289222
-0.0702483
-0.000429691
0.000520002
-0.15902
-0.0850204
0.0080879
-1.85823e-05
-0.000239513
3.8772e-06
-0.183739
-3.58792e-06
0.335781
-0.0385074
7.95776e-05
0.010006
-9.64745e-05
-0.0113576
-0.0412395
-0.479878
-2.35144e-06
0.000113172
0.000247876
1.72819e-05
-2.75606e-06
1.34279e-05
-0.000792235
-0.00102194
-0.000212518
0.111257
4.09509e-05
-4.54905e-07
0.236722
0.000113047
-2.67551e-06
0.130123
-1.41321e-06
8.42979e-05
-3.35576e-06
0.000499476
2.40797e-05
-2.91105e-06
-0.000110164
0.012466
2.67291e-06
8.56207e-05
-3.80402e-07
-0.000343037
-0.033813
-5.20935e-05
4.04292e-06
-4.32664e-05
-4.03727e-05
-0.174212
1.44013e-05
0.0279148
1.89319e-06
2.90553e-05
-0.197136
0.00847509
2.71748e-06
-0.000488663
0.000107467
0.169877
2.92025
4.05523e-07
0.0710576
4.99741e-06
0.000365993
6.25245e-06
-0.0678726
2.35395e-07
-0.015736
-0.00303602
2.75815e-06
-0.000463203
-0.101089
0.000122114
-0.0330111
-3.44152e-05
-0.217528
-4.11681e-06
-1.36572e-06
-2.60266e-06
3.85739e-06
0.00591042
-4.30883e-05
-0.00148044
0.0730069
-0.000833306
-5.87486e-06
-0.000752155
-0.0792817
8.5208e-05
6.94164e-05
0.170997
0.108338
-0.00562096
7.71469e-06
-0.083968
2.91775
2.04161
0.000117095
-0.000215315
0.302965
-0.0191192
-0.372176
-0.0146582
0.0517154
2.80475e-05
0.058283
0.144706
1.68326e-06
-0.0408764
-7.40098e-05
-0.00437709
4.04442e-05
1.378e-06
-1.65993e-06
5.6889e-06
0.000329647
0.000425293
-0.0505872
0.144239
-1.32784e-06
0.0674413
0.00751698
0.0489986
-0.0643633
0.000104463
-2.41375e-06
-6.45845e-06
-0.000532149
0.00894598
3.31553e-05
-0.00103669
0.00307186
1.83898e-06
0.000910251
0.06662
0.0206424
-0.000806313
0.00327692
0.15016
5.57112e-06
4.99003e-06
0.101282
0.0129329
-0.00159961
6.42179e-05
-0.0025549
2.90982e-07
1.8799e-06
0.204095
1.56668e-06
3.82267e-05
-5.4829e-07
-3.8928e-07
0.127595
0.000236992
0.000627998
1.39443e-06
-0.427352
0.000662979
-2.05243e-06
1.61031e-05
1.16412e-05
4.86855e-06
-1.55724
-0.0115833
0.0569465
1.38049
-0.198352
6.28126e-05
-0.0320467
0.00735102
-0.000233053
0.000111587
-2.6954e-06
-0.000291061
0.000142271
-0.00241905
-0.0775525
-0.0010433
0.000110512
-4.80717e-06
0.000200234
-0.000210637
-0.0412655
-1.07929e-05
1.54659e-06
-0.000300907
-2.61667e-06
7.82352e-05
-0.000733854
6.59606e-06
3.36174e-06
0.000165598
8.17861e-06
0.000511
-0.0434122
-0.000747852
0.000221731
-0.00185741
-4.38775e-06
0.0265496
0.000381695
0.828827
2.81192e-05
6.06949e-06
0.0897013
2.9392e-05
-2.01585
-0.00464139
0.458023
0.153247
-3.64888e-06
0.125221
-0.000114857
-8.53863e-07
-1.71902e-07
-6.58248e-07
9.49203e-05
-0.000164494
0.000440617
1.3136e-06
0.126939
-0.00222094
0.158502
-3.15338e-06
-2.75865e-06
2.39937e-05
0.000962248
0.122574
-0.000217634
7.96819e-05
-7.71804e-05
3.0958e-05
-1.31203e-05
-2.34703e-06
0.0100911
-0.0553444
7.7371e-06
8.18144e-07
3.85352e-06
-1.27646e-06
0.340173
-0.0719674
0.000187274
-0.0180956
-0.182804
2.99125e-06
-0.0012469
-0.601995
0.00012595
-0.142389
1.33828e-05
-6.48428e-05
-0.00018265
-8.37344e-05
0.0521917
2.46898e-06
0.382356
-7.47033e-06
3.66777e-07
0.0127477
-1.78133e-05
3.55796e-05
-0.00201924
-1.77833e-06
7.73614e-05
-0.0261438
-0.192287
-3.67135e-05
-0.174842
0.0568053
-5.86331e-07
-3.16903e-06
-0.215264
0.00379602
0.000662974
-0.00539296
-5.47183e-06
1.88019e-05
1.9361e-06
-0.136115
0.660371
6.9632e-05
2.06833e-05
-0.0456217
4.87648e-05
2.4627e-05
0.557195
-0.133616
0.0201876
3.15118e-06
7.36616e-06
-0.0245017
0.108405
0.000981663
-0.000156042
0.0621622
2.52148e-06
-0.0447723
0.00153781
0.000429798
7.25784e-05
1.08279
0.00107361
-0.000799705
0.441908
4.18422e-06
-5.5469e-05
2.52303e-05
-4.23775e-06
0.951982
0.000129124
-0.000886355
0.000603004
-0.0562279
-5.091e-06
-0.049324
-4.57435e-05
0.00100875
-1.31694e-06
2.25156e-06
-4.21835e-08
0.0173811
-1.13237e-06
2.82847e-06
-0.047845
5.28797e-06
-0.00517597
2.67651e-06
-9.2089e-05
-0.000485352
0.382229
-0.0296011
-1.25397e-06
0.293079
-0.00195714
1.4928e-05
0.00100873
3.79156e-06
-3.7299e-06
0.026257
-0.0483935
0.338231
9.00657e-05
-1.84517e-06
7.84074e-07
-0.0699137
0.000295061
0.000608075
8.92672e-05
0.0290133
5.9346e-06
-0.00011632
-0.00125341
0.0362631
0.00030406
-0.0825658
6.93658e-06
0.000559275
-0.000535596
-0.0429783
5.95221e-05
0.208239
0.0379134
5.11527e-06
0.26922
0.00961475
-0.0051383
-0.369544
0.0286628
0.126521
9.80905e-05
-3.94227e-06
-0.000144533
-0.233246
2.66544
-4.55072e-06
3.89597e-05
-0.000147474
-0.000503544
3.68146e-06
0.0411405
-4.83413e-06
4.28328e-06
0.481613
-0.0268943
0.0782714
-1.04792e-06
8.68806e-07
0.0499073
0.00254206
-0.00141739
-5.05717e-05
-0.241824
0.0194956
0.130426
5.02025e-05
7.75413e-05
1.39877e-05
5.82669e-06
0.0717423
-0.000280862
-0.0157273
-0.00677858
8.30888e-05
1.9313
-0.05869
-0.00151113
3.73154e-06
5.12052e-05
-2.1834e-06
0.000206353
3.56867e-05
-0.0941562
2.31881e-05
-0.02039
3.70994e-06
-0.000346032
2.54562e-06
-3.4181e-07
6.53028e-05
5.96261e-05
-0.00542185
-1.3523e-05
0.000542788
-2.83591e-05
-0.00029329
-0.0666258
-0.000104052
3.78033e-05
-0.0348657
1.72698e-05
-0.447506
0.0798691
9.3917e-06
-0.0206195
-0.630826
5.09643e-05
0.097153
-0.00554143
-2.34744e-06
0.0164282
2.2988e-05
0.068988
0.00641795
-2.28857e-06
1.96242e-05
-0.0353393
0.0929168
0.0051796
7.2532e-06
6.321e-06
-0.143788
0.0104256
-0.000788718
8.10204e-05
-2.60779e-05
0.166159
0.373187
-0.000470664
2.94858e-06
7.2349e-05
-1.66398e-06
-4.77384e-05
0.0239617
2.78319e-05
0.195924
-0.152211
4.70967e-06
-8.54634e-05
-2.09777e-06
2.57886e-05
-0.0226482
-0.14323
0.000110817
0.167817
2.53305e-06
0.000112904
-2.9108e-06
-1.60624e-06
1.11114e-05
4.64313e-06
0.000587991
2.82352e-06
-0.000112945
3.99734e-06
9.60709e-05
0.0374255
0.271158
-4.02057e-05
0.192678
0.000304497
0.19562
0.000136998
0.000134358
-0.0466711
7.56029e-05
0.000327778
-0.119497
-0.0312865
0.00671422
0.000194076
-0.0211601
2.60625e-05
1.59695e-05
0.000137114
0.0237323
-1.04891e-05
0.106078
-3.36216e-06
-2.95924e-06
-0.416423
-4.31765e-06
-0.0798809
7.67805e-05
-2.48888e-06
-0.00168765
-2.27428e-06
8.49221e-07
-0.000540074
1.24305e-05
0.125299
-2.07728e-06
-0.00962799
0.229284
-0.000521543
-0.027247
5.50772e-06
-4.75809e-05
-0.000290886
6.07837e-06
-2.10837e-06
-0.000490613
8.57118e-06
-7.76784e-06
2.36934e-05
3.78917e-05
-0.0166563
-0.0514382
-0.00203162
0.0242776
0.0840335
2.00712e-06
0.256302
0.000108439
-1.59274e-06
-0.0205658
0.00769397
0.0959924
1.01941e-06
-0.0450926
0.154119
-0.194132
-1.47053e-06
-0.0612287
0.000131171
4.50614e-05
-0.000968783
-6.12808e-06
0.00577705
0.00418344
-0.150082
-1.64728e-05
1.81718e-06
0.0454706
9.77609e-06
0.313887
0.183454
-0.0519734
0.00453883
0.0321529
4.49288e-05
6.23453e-06
-6.16098e-05
-0.000131977
2.37324e-05
-0.00054534
0.000199835
9.00924e-06
1.10398e-05
-0.022862
-8.4171e-06
-0.0696645
0.243228
-0.158317
-0.0102485
6.51065e-06
1.4077e-05
1.5853e-05
-0.0147709
-0.0822962
-1.49706e-06
-7.02073e-05
-1.57312e-05
-0.000324023
5.5745e-06
-1.43901e-05
1.4672e-05
0.000135198
0.318523
0.000450945
-0.000202921
-1.0768e-06
-0.000311388
-0.0677312
1.08672e-05
-0.831054
0.11204
-0.000650748
9.15215e-06
1.80765e-05
1.60185e-06
3.3564e-05
1.35986e-05
-0.051382
-0.0017315
-0.0716286
2.38146e-05
-0.0301371
1.44676e-06
-8.7615e-06
1.64695e-05
0.366787
-0.0312534
-2.8666e-06
0.000133391
0.00156788
0.00531865
-4.92e-05
-0.0665148
-0.00554296
0.0716472
-0.000568929
0.00561143
-0.00115027
-0.000468937
0.0142098
0.0129219
0.0069819
0.703571
2.01423e-05
-0.00435413
5.26655e-06
4.02034e-05
4.23583e-05
8.76913e-06
0.0122116
0.000124442
9.00211e-05
0.165292
-0.00111298
-0.110541
7.32441e-07
3.86686e-05
8.00197e-05
1.40647e-05
-0.000239691
-0.115716
-0.167661
-0.124514
2.64126e-07
7.15666e-05
-6.74308e-05
0.237316
0.0167164
-0.000117082
1.38518e-05
7.44748e-06
-0.0697419
8.19034e-05
0.0863841
0.0631085
0.0808144
8.5674e-06
0.235677
-0.000160404
0.000211974
9.9191e-05
-0.00626983
-0.021948
-0.000179157
0.0285853
3.3181e-05
-8.77158e-05
4.10441e-06
-0.00444086
0.00087783
0.0092665
-0.0852269
4.49322e-05
4.76113e-05
3.04711e-05
-0.00590504
0.0328171
1.33609e-05
-0.0146292
0.0142803
-0.12914
0.092438
2.66061e-06
6.49604e-06
-0.0255405
-0.0317557
0.0306368
7.13353e-06
4.46362e-06
5.13567e-06
-0.0096102
-0.000323609
1.24044e-05
-0.00700136
0.000132622
0.491986
0.262584
-0.107436
2.12821e-06
0.0793585
5.2687e-05
3.63418e-06
-0.00129141
0.0426398
4.71926e-06
-4.09068e-06
0.183653
-0.000773477
-2.94237e-05
2.70539e-07
0.170719
1.48899e-05
-0.000291013
3.43592e-07
-0.0375708
6.96121e-06
-0.000130039
-0.0356236
0.00868577
2.64489e-05
0.603361
-0.117066
0.111999
0.00485717
0.174604
0.0519031
2.28014e-06
0.167838
-5.33656e-05
8.21167e-07
1.40038e-05
0.108852
2.60175e-06
0.45896
-3.958e-06
-0.000705865
-0.114411
7.63812e-05
0.337148
3.31775e-05
-0.000154654
-2.26337e-06
8.21373e-05
0.267906
-0.146946
-1.08524e-06
1.56353e-05
-0.0338863
1.59894e-05
-6.12417e-06
0.0193652
0.000127409
0.000170761
-0.00123625
0.0049967
-0.0298018
0.378557
0.11076
0.0704205
-0.0353877
-0.0932329
-0.0160965
0.000141033
-4.77613e-06
-0.000919162
2.36654e-06
1.49958e-06
-0.0148714
0.0164949
2.77923e-05
-0.0578727
0.00742998
-0.0590869
0.0368367
0.0103927
4.92971e-06
0.0102155
0.0595934
5.46727e-05
2.79405e-05
0.00929774
0.0209906
-0.12257
0.00275374
0.000366274
-0.0343118
-0.00535512
8.47819e-05
3.15041e-06
4.66608e-07
-0.00282562
6.77866e-07
0.0342765
2.26244e-06
1.73395e-05
2.63085e-05
-0.0675881
-0.0372676
-0.364428
1.96926e-05
0.214076
5.28293e-05
0.000130334
6.86737e-07
1.59823e-05
-0.168043
0.000111369
0.00630436
0.0586483
-0.0089577
-0.000953075
8.9351e-07
0.000277072
1.17894e-05
-0.00132674
1.33705e-05
3.1968e-05
1.66519e-05
-7.74664e-06
0.00354406
1.69404e-05
0.000132119
1.93122e-05
0.000127837
0.00271005
-0.0268123
7.73749e-09
0.000217623
-8.7181e-06
-0.00207145
0.000208323
0.0612156
-0.00615145
5.40996e-05
3.49518e-05
8.18876e-06
0.160572
5.45973e-06
-0.0420212
8.12464e-07
-1.88435e-05
-3.66061e-05
0.0255605
8.62627e-05
0.000136092
-0.00181839
1.99134e-05
-0.000666134
0.0254115
-0.132907
0.000144227
3.9385e-06
0.02635
-7.30511e-06
-1.20359e-05
-0.00958529
-0.0178727
5.41791e-06
0.000159282
0.003064
0.18919
1.19467e-05
1.69376e-05
-0.0146117
2.877e-05
0.0769
0.0879462
-0.018385
7.6772e-06
0.000370034
2.29342e-06
-0.0420407
-0.00170364
0.000171227
-0.000912883
-0.331661
1.86624e-05
0.00610272
0.0449319
1.32931e-05
-0.0341618
-0.000625048
6.59399e-06
-0.24659
6.4948e-06
-4.00171e-06
-4.28472e-06
0.00230268
0.0895232
0.00258854
3.14852e-05
1.14554e-05
1.57431e-05
-0.039606
0.279224
-0.0294162
-0.0242767
1.2932e-05
-0.00140206
0.000502957
-0.0358047
-1.20451e-05
-0.000240098
7.90825e-07
-0.00121458
-6.70345e-06
-0.853284
0.000298349
2.39631e-06
0.0187421
-0.00394453
0.000137935
-0.000828852
-2.14418e-06
2.0273e-05
-0.000105864
0.000133741
-0.0358918
0.000214355
0.000136417
-0.000471898
0.000140051
-0.0156367
-0.0100445
-0.0279388
-2.53806e-07
-7.0273e-06
-0.0171997
-0.20373
-0.0540016
0.0701703
-4.06969e-05
-0.234269
-0.0420029
-2.02619e-05
5.09108e-05
7.3085e-08
9.62525e-05
-0.000275625
-0.0160782
-0.0492903
0.250816
2.76944e-05
-0.0237729
-0.0892992
1.83753e-06
0.00413369
-0.0591023
-0.0114109
4.11203e-05
-0.000717315
-1.54869e-06
6.75797e-06
4.21524e-05
7.45465e-05
-0.0407612
-0.0808068
0.0371216
-2.27407
1.87056e-05
0.000233219
5.2483e-05
1.84594e-05
-1.83149e-06
-6.62158e-06
-0.00856547
4.61948e-07
-0.00183264
0.000325604
-0.0014587
0.000179166
0.0647183
-0.0362645
0.139944
0.000112182
5.0176e-06
-0.00071775
0.175769
0.25747
5.81533e-05
-3.48e-07
-2.41452e-07
0.000248487
0.000131223
5.9369e-05
0.0280101
1.47484e-05
-4.9359e-06
-0.00140476
0.0196994
-0.0426198
-0.451744
2.54865e-07
0.000157603
1.15073e-05
-0.0693425
9.12692e-06
-0.0360788
1.48138e-05
1.43299e-05
-0.000275749
4.57827e-06
-0.00502335
0.000107585
0.000200583
-0.252
0.0230573
6.43921e-05
0.000120284
4.70883e-06
0.155263
-0.206803
-1.72412e-05
1.19216e-05
-0.0490438
1.33134e-06
0.00587162
-6.24909e-06
-0.000208545
-5.63327e-05
-0.880775
0.000408275
8.86387e-06
3.5882e-06
-0.000620974
0.00310228
2.39131e-06
-0.651928
0.298281
-0.697907
-0.0141198
0.000251681
-0.0632474
2.1504e-05
0.0227989
1.29446e-06
-0.014306
-0.0324333
1.8828
0.256149
0.0420843
1.62993e-05
0.101724
-4.76418e-06
-0.0647551
-0.0240561
0.0184502
-0.216692
0.000118263
0.000140436
-0.034825
0.000276787
2.8077e-05
6.57525e-06
0.00433073
8.33916e-05
-0.000654671
-7.2041e-05
1.73586e-05
-1.56245e-06
8.53884e-06
0.0267358
0.0338603
0.000143033
-0.0996872
-0.0512318
-4.79231e-05
2.06078e-06
-3.74836e-06
-0.0001945
-0.0315618
0.157117
7.72143e-05
-4.96154e-06
-0.0549061
-0.000128635
0.000204625
0.0748905
0.00013938
-0.0261653
1.52766e-05
-0.00011611
1.60243e-06
-7.03585e-05
8.55326e-05
0.0887339
-0.00872594
0.00144516
0.000258115
0.0310426
0.000255743
5.83831e-05
2.77384e-05
-0.071786
-0.134334
-0.0418974
0.0148579
3.92353e-05
4.27872e-06
-4.93018e-07
8.95095e-07
-6.91102e-06
-0.167856
0.000126184
-0.00463385
0.000207976
0.0563463
0.361205
-0.021013
0.00932081
5.24014e-05
-0.0213415
0.00036106
-0.0377437
-0.00152818
-1.49283e-06
0.0256339
9.18311e-05
-1.55905
0.989259
0.000247208
0.000827696
-0.0409601
-4.64487e-05
0.000587421
2.09206e-05
0.0615911
-0.00980565
5.15951e-05
4.03143e-06
-0.0228992
-0.0182552
-0.000780349
0.111787
-0.00131842
-0.000432259
-5.50979e-06
-0.246298
-0.0140747
-0.000870237
6.53441e-05
0.0265035
-0.266039
-4.68846e-06
2.84473e-06
5.50383e-05
0.0113443
0.0180661
1.51665e-06
-0.00280676
1.41305e-05
7.34141e-07
1.30111e-05
-1.50308
0.0532449
0.071303
-0.0657651
2.85617e-05
3.09993e-05
4.6702e-07
2.72227
2.59252e-06
0.00921544
0.00010151
-0.0503244
7.86282e-06
2.42309e-06
-0.000366455
-0.234833
-0.0598016
0.000170486
0.108863
4.8425e-06
6.39407e-06
3.05076e-06
0.0001938
0.000215301
0.00016619
0.000159629
0.00966463
5.04746e-05
-0.000211691
0.127824
-0.0205441
-7.76861e-06
0.00633826
0.00470692
2.11163e-05
-0.10501
-0.000518785
-0.580731
8.4687e-06
-0.00095911
-1.3807e-05
-0.0199496
-0.0586531
0.0047871
-0.0154792
3.37631e-05
-0.000275703
2.62887e-05
6.11939e-05
7.11242e-06
-1.67819e-07
0.00507148
-0.00107277
-0.287731
0.287978
-0.000608965
0.000113463
-3.82478e-06
0.030227
-0.000193629
8.83301e-05
0.000257844
-0.000500137
0.000144409
4.49752e-06
-0.872973
-2.93927e-06
-0.0547423
-0.00795012
-0.000141219
0.00421196
-0.000271303
-0.0710031
4.73522e-06
0.0227186
-0.0232899
-9.93585e-07
2.84185e-06
3.00931e-05
8.44873e-06
0.000150796
-1.25269e-06
0.0507771
-0.000641292
-0.0729025
-0.00768052
1.10611e-05
1.45614e-05
-1.5458e-06
0.109091
6.84004e-06
6.38879e-06
0.00232627
2.802e-05
-0.181882
-0.0101489
-0.000955153
0.000112137
0.000149269
2.93669e-05
1.45973e-05
-0.00617479
1.2709e-05
3.2029e-05
-0.0142022
-0.0461922
0.198284
2.78844e-05
0.530402
-0.266882
7.89146e-06
-0.0693168
-0.00479972
1.54314e-06
3.24074e-05
3.95058e-07
0.0989029
-0.1149
0.0216479
1.2881e-05
5.4894e-05
-5.76487e-06
4.75618e-06
-0.000868392
1.45555e-05
0.00345684
0.321846
-0.0138413
-2.09249e-06
3.68643e-05
1.98013e-05
0.0201504
-3.18771e-06
-0.111771
-0.147279
0.210895
-0.0427156
-1.08393
0.0340198
-3.15755e-05
0.226587
-0.145998
1.55218e-05
-3.26368e-06
-4.45344e-07
-0.0106418
0.0148258
0.807054
2.79471e-05
-0.0357485
8.21111e-06
0.000957562
4.87453e-06
3.48763e-05
1.69535e-05
-1.8798e-06
-0.098526
1.35432e-05
-0.0290495
-0.350907
-0.0834552
0.000105125
-0.000326726
-0.0841342
0.00753401
-1.61792e-05
0.116896
-2.38778e-06
2.06364e-06
1.50987e-06
0.00252978
-3.59864e-06
-0.215542
-8.0154e-05
0.0163152
0.000313104
-0.0990826
-0.158201
0.00507678
-1.45674e-06
-0.000204357
-0.000162471
-0.0674227
-7.74068e-06
-8.00766e-06
3.02352e-06
0.0147841
1.78548e-06
-0.0499003
-0.14889
0.000160733
0.000305524
-5.30894e-06
-0.0177378
1.13437e-05
-0.0392793
-1.6605e-06
0.144307
3.37671e-05
6.11502e-06
-0.168186
-0.00149814
4.96532e-08
-0.000673847
6.47113e-05
0.913956
0.0539173
0.0993177
0.0278401
1.31037e-05
-5.4889e-05
-0.0147655
1.36972e-05
0.00193697
-8.10032e-07
-0.000786127
9.87832e-05
-0.236031
-0.0373051
6.68603e-06
0.00599047
2.46844e-05
0.000225746
0.00988803
-0.120099
0.000336084
0.0130299
0.0151855
3.97065e-06
-0.0271419
-0.00183153
7.83568e-05
1.48917e-05
0.064027
-2.37213e-07
-1.30179
0.0269507
0.000527855
5.42659e-07
-0.000210441
0.00906192
0.000271905
0.0486258
1.58747e-05
5.10547e-05
0.0146702
0.0527725
2.74137e-05
0.00377458
-0.0357829
-0.23849
1.53648e-05
0.0490125
0.123274
-0.0686154
1.57673e-06
-0.000444311
2.53669e-06
-0.0108657
-0.00146229
-0.0224725
-0.0203708
1.41051e-05
1.02841e-05
1.53724e-06
-0.0478796
0.18562
-0.163948
-0.156035
4.03544e-07
-0.0985038
0.000905383
-0.00101742
0.116976
0.0129014
0.000119245
-1.36917
3.06272e-05
2.77687e-05
0.129353
-0.0330831
5.9209e-05
0.25618
1.79431e-05
3.19442e-06
0.466574
-0.0226499
0.0190478
-0.0816514
0.000172536
1.38074e-05
-4.13065e-06
0.0104439
0.0650024
2.16012e-06
-0.000192519
-0.103996
3.25788e-06
7.21305e-06
-0.0136595
0.0344498
3.25307e-05
1.51306e-06
1.45363e-05
2.70991e-05
0.0445053
8.81927e-06
-1.5157e-05
8.60238e-05
-0.016697
-0.0831161
0.00878319
-0.079467
7.10058e-06
4.83151e-05
0.0228341
0.00334428
8.86156e-05
0.0443171
4.64813e-07
0.00018233
1.20672e-05
0.000184641
-0.000120349
-1.30663e-05
-0.0354464
0.000241176
-9.96719e-06
4.33694e-05
0.0826392
0.00102583
-0.00476254
3.619e-06
7.73685e-06
-0.00378739
-0.0972799
4.1952e-05
-8.52784e-06
1.44803e-06
-0.0114757
7.71576e-06
-2.00756e-05
0.000107013
2.67087e-06
0.0227228
0.0416821
1.30762e-05
5.95721e-05
1.14344e-05
1.38104e-05
-0.151224
0.115038
-0.000135568
0.153796
-0.00582952
1.48397e-05
2.71507e-07
6.28776e-06
2.52256e-06
1.22285e-05
-1.82919e-05
-0.000895452
0.0201806
2.94078e-06
-0.000157705
-0.00676837
0.0360203
5.0405e-06
-4.90993e-08
2.69185e-05
0.249887
2.11569e-06
0.314352
0.404248
-0.00145218
0.000108263
-0.0686421
7.36523e-06
0.0609162
1.88388e-06
8.2437e-06
1.58026e-06
-1.34018e-05
-0.00258337
-0.0626493
-0.00106896
0.000146626
0.110459
-0.171654
-0.391614
9.99458e-05
-0.00990857
0.024834
-0.00013342
0.116925
-0.0104529
-0.00103488
-0.014597
9.937e-06
3.94153e-06
0.130159
6.32126e-07
6.11034e-05
0.520115
0.0193123
-0.169654
-0.00850297
-5.60395e-06
0.000363656
6.69447e-06
0.00403839
6.60241e-06
0.00908105
-0.222409
-0.00371875
-0.126132
7.335e-06
-1.55497e-07
-0.000337591
-0.29124
0.0184893
0.000879574
0.559054
-4.39186e-07
0.421309
0.000921542
0.217001
2.53933e-05
7.83203e-06
8.93362e-06
3.21971e-05
9.48523e-06
4.67847e-06
5.7204e-05
0.0206497
-0.000193651
0.00885491
-0.337725
0.195743
0.00239491
1.13678e-06
1.50239e-05
-3.96959e-05
3.57264e-06
9.42365e-06
0.183928
0.0989484
0.18059
-0.0379137
2.17847e-05
-0.193179
0.000543214
-0.000376794
-0.00548113
1.27692e-05
-1.5133e-05
0.0421056
8.49562e-06
-2.03748e-07
-0.0155938
0.0202122
0.424743
4.15825e-06
6.90474e-06
0.000148687
0.00010108
0.131202
-2.81859e-06
7.43645e-05
0.0781588
-1.27965e-05
-0.117411
0.000114556
0.452849
1.32252e-05
0.211813
-0.430748
0.000282299
0.0108506
-0.000630816
0.00489459
9.93531e-06
6.96117e-05
-4.72886e-06
0.000142676
-1.15349
3.19157e-05
-0.0719786
-8.62973e-06
-1.19108e-05
1.31223e-06
-0.0298355
0.000159979
-0.000578311
0.199588
-1.25982e-07
0.000462271
-0.323442
-0.000254421
6.05142e-06
-5.16638e-05
1.02608e-05
5.57679e-05
-8.38998e-06
-1.40403e-05
-0.0582026
-0.0136401
-0.0117768
-0.00956557
-0.0027447
-0.257641
-0.000724823
-0.0478293
-0.000268531
8.50563e-06
1.97056e-05
1.5247e-06
1.59077e-05
0.00936812
0.00437129
1.07332e-05
0.0337858
-0.052748
3.26189e-05
2.67373e-05
2.52377e-05
0.0838563
-0.0217556
0.0181525
-1.34123
0.01644
1.44409e-06
-0.0107633
0.000192925
-0.0692251
0.112792
1.86051e-06
-0.00154295
-0.327333
0.000226752
-0.459065
2.13409e-05
0.0148522
-0.306658
-0.0147884
-0.000770742
0.000137119
-0.0670532
-0.00146962
-0.021984
-0.0207339
0.0237162
-0.00121784
0.040492
7.35646e-06
-0.000283075
0.000163678
-0.0044749
-0.0212008
0.00413663
-2.35967e-05
0.000884044
-0.000972025
-2.61487e-05
-0.00693284
1.57607e-06
-0.00120914
-0.00662881
1.3397e-06
0.0972848
0.222768
-0.0317525
0.0734682
0.026951
0.067111
-3.11641e-06
0.00784028
-6.02663e-07
-2.40932e-05
0.000204557
5.14347e-05
-0.00136162
4.95756e-05
1.63805e-05
5.86285e-05
-1.60376e-05
0.0971526
3.24001e-05
-0.00137091
-0.0188273
-1.64871e-06
-0.00169584
0.000209862
2.68415e-06
-0.321658
0.0188369
4.27026e-07
0.19985
1.92784e-05
-0.0477967
-0.237822
9.08474e-06
-0.000982611
3.46072e-05
0.00394715
0.0118234
-9.93196e-05
-0.00411866
0.000181513
1.48504e-06
0.516517
3.04359e-05
2.20466e-06
0.396831
-0.000127947
-1.6278e-07
-9.00748e-06
-6.84391e-05
2.81254e-05
-0.0227997
-0.0108379
0.0114829
-0.576729
-0.000331887
0.000151715
-3.86862e-06
-0.00705954
-0.039354
-0.153997
1.76732e-06
9.98962e-06
0.00038919
0.000168649
0.156476
2.46756e-06
-0.0967542
-8.43614e-06
-0.0943261
-1.63954e-05
0.00474147
0.000425828
-0.000641397
0.0030767
0.104788
-0.0044365
0.0147377
2.1947e-06
0.4434
0.629509
-0.00766103
3.60927e-06
0.00649934
-0.0387774
0.427257
-0.0015077
-0.0619055
0.0429149
-0.0210802
-0.000216276
-0.00510072
-2.05627e-06
0.000133939
-0.000151876
1.30577e-06
-0.000562948
-0.37933
0.0480886
0.0547033
0.417499
1.94525e-06
-4.64104e-06
0.000627097
1.49646e-06
-0.124453
-4.37632e-06
-6.10727e-06
-0.0385632
0.0215976
-0.00014323
1.11481e-05
-3.40987e-05
-0.000564343
-0.0377493
0.0024412
-0.0418386
2.80806e-05
0.00689116
-1.80872e-05
1.283e-06
2.05725e-05
0.00860129
0.180262
-0.0113434
0.000116202
2.27263e-05
-7.58338e-06
1.52323e-06
9.71685e-06
6.23588e-05
-0.234729
0.393033
0.000117796
-0.00231524
-0.0322018
-0.359495
0.142045
3.83682e-06
0.0001164
0.000962534
2.66284e-06
-0.00112954
9.19356e-05
5.06983e-05
-0.292868
0.00029449
-3.20232e-06
-0.000111413
0.00012203
-0.000176251
-0.0116643
0.00272825
-0.0208066
1.21357e-06
-0.000919247
-0.0257964
-0.000878339
-0.000856109
-0.172611
0.0690068
0.007595
-0.0578547
-4.21183e-06
0.0197584
1.08722e-05
6.52438e-05
3.02467e-06
0.000388358
-0.00539083
-0.0380791
-0.0787279
1.3762
0.000256483
3.59e-07
-2.27856e-07
7.0582e-06
-3.27388e-05
0.000180948
-0.0357422
-0.0594366
-0.000869679
0.0349757
1.71726e-05
0.000191845
-1.68876e-06
-0.0281935
0.00442579
1.74954e-06
0.00224058
-0.000156858
-0.314354
0.00682002
0.000778474
-0.221591
7.00937e-05
-0.0958161
0.0162037
0.125399
-0.0490359
-6.87543e-06
0.00010032
6.04907e-06
-0.0115057
-0.0403558
0.000182087
-0.182233
-0.00483425
-0.141551
0.000288581
-0.00687344
0.00025099
2.29009e-07
-0.000974458
-0.000474044
5.40932e-05
4.34084e-05
0.000130133
0.000138657
-0.437928
0.00265658
2.6518e-05
0.000153272
0.000159179
0.000214776
1.13246e-05
-0.0400821
7.08686e-06
-0.0179942
1.47588
3.8633e-06
0.00102761
1.3901e-06
7.27614e-05
3.72058e-05
0.00279053
0.000249476
-0.0343891
0.289875
0.000201206
-0.00288936
-0.000858561
-0.0517496
-0.00165905
-0.0270638
-3.50292e-05
-0.000172077
2.00548e-05
-0.0141862
-0.0508523
-4.6987e-05
4.1261e-05
0.000303327
6.24712e-05
6.08996e-05
-0.000185986
-7.36168e-05
8.87845e-06
0.000277447
-0.601076
0.405327
-0.00667305
0.000185512
3.87849e-06
-0.0362134
0.000113937
-0.00045826
-0.0437021
-0.000164122
-0.259398
-4.22325e-07
2.13321e-05
9.10639e-05
0.000253879
4.23466e-06
-0.0065933
-0.0235623
0.0361393
0.000352908
0.00240919
0.015657
5.50116e-05
-0.0635323
-0.000466781
-0.0176194
3.05996
-0.000165562
5.51621e-05
-9.59465e-05
0.0003858
-0.000106675
0.0902857
0.00567533
0.0876546
1.66892e-07
0.114701
0.0550884
-1.1217
1.44741e-06
0.000238825
-1.57771e-05
0.000150334
0.104061
0.000134246
0.000117683
-1.93154e-07
4.74276e-07
0.0737084
0.00593009
5.49442e-06
-0.120329
-0.0105004
6.98444e-07
0.000915778
-0.0144692
0.000413914
-0.000269925
2.77697e-06
9.64438e-05
-0.00290134
4.34323e-05
4.49604e-07
0.625541
0.0001164
-0.00648597
-0.00093153
7.36035e-05
0.0145679
0.000872984
0.000546336
2.41278e-07
-0.0168435
4.18695e-05
8.70306e-05
0.200534
0.000170702
1.53837e-05
-0.000226147
5.80685e-05
-0.000254149
7.45958e-06
-0.0254632
3.87214e-06
0.00191337
0.0698126
0.000394945
-1.82539e-05
-0.0485043
9.18317e-05
0.220964
-0.00307147
0.0055592
0.000511294
-0.00914565
-1.4705e-06
-3.18769e-05
4.92016e-05
1.68068e-06
0.167001
0.242066
2.89292e-05
-0.172994
0.000719562
0.000294044
0.00609341
5.9531e-05
-0.197687
0.00684221
-0.0602572
-0.0341566
-0.01547
-0.00211477
-5.32642e-06
0.00315754
0.000306153
0.0604931
-0.206309
-0.0241192
-0.0200938
-0.0256573
5.4158e-07
0.105868
1.45818e-06
1.69037e-05
8.00338e-06
-0.0492693
-0.000845741
0.0027951
7.65938e-07
-0.503733
9.69929e-05
0.000930377
-1.64653e-05
-0.000567235