/*--------------------------------*- C++ -*----------------------------------*\
| =========                 |                                                 |
| \\      /  F ield         | OpenFOAM: The Open Source CFD Toolbox           |
|  \\    /   O peration     | Version:  v2012                                 |
|   \\  /    A nd           | Website:  www.openfoam.com                      |
|    \\/     M anipulation  |                                                 |
\*---------------------------------------------------------------------------*/
FoamFile
{
    version     2.0;
    format      ascii;
    class       volScalarField;
    location    "450";
    object      nut;
}
// * * * * * * * * * * * * * * * * * * * * * * * * * * * * * * * * * * * * * //

dimensions      [0 2 -1 0 0 0 0];


internalField   nonuniform List<scalar> 
13851
(
0.000746364
0.00153244
0.00162942
0.0040922
0.00672184
0.00121863
0.00265482
0.00675984
0.0144087
0.00670427
0.000361329
0.00672375
0.00297344
0.00530254
0.00112183
0.00131334
0.0022067
0.00392532
0.000690661
0.000857791
0.000980485
0.000747264
0.00154626
0.00672545
0.00484651
0.00165681
0.000185487
0.00391904
0.013815
0.00674375
0.00997115
0.0031114
0.000946311
0.0156839
0.000481282
0.0137107
0.00672578
0.00286996
0.0145042
0.00282025
0.0157061
0.0140438
0.000188065
0.000199355
0.0143632
0.00549693
0.00674557
0.00141845
0.00137369
0.00278315
0.00322429
0.00282032
0.00143447
0.00185722
0.00511286
0.00267548
0.000798905
0.0158009
0.000399899
0.00480876
0.00672372
0.00042002
0.00672496
0.00130465
5.23261e-05
4.3622e-05
0.00286272
7.7285e-05
0.00275531
0.00630328
0.00954761
0.000895909
0.00363349
0.00351237
0.00165709
0.00103916
0.00357462
0.00673766
0.00345423
0.00673135
0.00242096
0.00055555
0.000477858
0.00589363
0.00524033
0.0100497
0.000785608
0.00315754
0.00623266
0.00989548
0.00198869
0.00273199
0.000284123
0.00926636
0.0143271
7.10816e-05
0.00601596
0.00139802
0.00349451
0.000204029
0.00134827
0.000158117
0.0001357
0.00315894
0.00599732
0.000689152
0.00522836
0.0100305
0.00279317
0.0041957
0.000451784
0.00577777
0.000411007
0.000468065
0.00102372
0.00195417
0.00672961
0.00675013
0.00343254
0.00680373
0.000104919
0.00567663
0.00231778
0.0125186
0.000650342
5.00479e-05
0.00548538
0.000292932
0.0157551
0.00096437
0.00075003
0.000751082
0.00130415
0.0157592
0.000409859
0.0142221
8.85519e-05
0.00987319
0.000210229
0.00113401
0.000507112
0.00144867
0.00603108
5.84047e-05
0.00556241
0.00121931
0.00673658
0.00935124
0.0119084
0.000281285
0.00132664
0.000395001
0.000468601
0.000681276
0.00190333
0.00413909
0.00672344
0.0141822
0.00113862
0.0024745
0.00672498
0.0137929
0.00078221
0.0013498
0.00559228
0.0150247
0.0151356
0.00466393
0.000481698
0.0103561
0.00672382
0.00672761
0.000654132
0.00672229
0.0147959
0.000341074
0.00126566
0.00672878
0.00171445
0.00129005
0.000778673
0.000102974
0.000520992
0.00111303
0.000201854
0.01222
0.000951181
0.000330313
0.00233106
0.00674749
0.00339275
0.00118912
0.00318152
0.00113697
0.00111386
0.00141136
0.000834343
0.00349725
0.00276264
8.80671e-05
0.000509622
0.0151993
0.0157878
0.00128292
5.74115e-05
0.0145877
0.000923287
0.00143493
0.0146182
0.00113573
0.00124437
0.00313773
0.000538876
0.00672522
0.000524563
0.00093314
0.00296161
0.000884403
0.00299407
3.31921e-05
0.00672779
0.000802677
0.00402624
0.0145188
0.000362787
0.00136191
0.00672574
6.62635e-05
0.00672581
0.000472715
0.00466508
0.000363484
0.00118102
0.00672413
0.0156275
0.00674517
0.00103489
0.0156903
0.000198846
0.00672522
0.000254745
0.00564871
0.0142583
0.00145094
0.000991914
4.96338e-05
0.00088956
0.00165746
8.56269e-05
0.000449158
0.00370959
0.000619365
0.00673624
0.00133512
0.00138766
0.0135781
0.00539587
0.00674581
5.12252e-05
0.00642813
0.000982408
0.000822395
0.00144163
0.00083905
0.000538794
0.00444219
0.000146095
0.00130718
0.00246906
0.00672504
0.00316933
0.000363013
0.0154762
0.00177051
0.00100694
0.00521329
0.000717414
0.00073697
0.000968716
0.000854694
0.0154578
0.00326089
0.00119342
0.00133352
0.00279112
0.00555639
0.00672327
0.00087072
0.000360313
0.00674936
0.00672516
0.00672619
0.00672162
0.00110256
0.00672331
0.0147135
0.00100739
0.00390238
0.0135696
0.011655
0.00239761
0.00078211
0.00317505
0.00129579
0.00212332
0.000961609
0.00495375
0.0108377
0.000710515
0.00672106
0.0108903
0.00672383
0.000612609
0.00483002
0.0022162
0.0024583
0.00167711
0.000377494
0.0111169
0.000390155
0.000134648
0.014816
0.0142467
0.00318273
0.00257859
0.0044921
0.000361872
2.72549e-05
2.83462e-05
0.000754848
0.000691466
0.000378503
0.00373958
0.000115203
0.00672094
0.00673271
0.000785727
0.0104876
2.8154e-05
0.00552513
0.0141455
0.000362836
0.000707475
0.00244608
0.00339157
0.000797857
0.00132275
0.00100788
0.00126969
0.0133441
0.00215016
0.000703769
0.00128497
0.000918366
0.000347006
0.00610586
0.00345858
0.00027948
0.000209763
0.00065358
0.000527546
0.0133926
0.000990455
0.0155088
0.00088063
0.00676358
0.0026536
0.000857201
0.00496349
0.000820059
0.00166089
0.000246556
0.00255512
0.000292503
0.00478472
0.0021206
0.000213291
0.000437107
0.001014
0.00571568
0.000927443
0.0158747
0.00136902
0.00186448
0.000647383
0.000253084
0.00388954
0.00130835
0.000331172
0.00168205
0.00514424
0.000983903
0.0118727
0.00368925
0.0011325
0.00210783
0.00140072
0.000318511
0.00149293
0.00941251
0.000973405
0.00153064
8.04939e-05
0.000714976
0.000767599
0.00384359
0.00358095
0.000287157
0.00455854
0.000335041
0.000813108
0.00156299
0.00550305
0.000219624
0.0118696
0.003251
0.00127171
0.000575704
0.000465817
0.0020388
0.00674349
0.00255671
0.000354831
0.0013266
0.000396374
0.00403524
0.0040557
0.0067226
0.00362587
0.00039289
0.0060725
0.00161405
0.00113461
0.00672726
0.0111597
0.000632837
0.000941525
0.00188791
0.00196181
0.00239715
0.00154327
0.00359728
0.00245685
0.00920338
0.0116956
0.000769282
0.000978668
0.00672472
0.00672312
0.00134446
0.000677843
0.00169345
0.00461057
0.00194116
0.00010932
0.00202901
0.0100995
0.00672352
0.00181688
0.0143922
0.000260895
0.00673017
0.006724
0.00185188
0.00334764
0.000275613
0.0112548
0.00105526
1.51361e-05
0.00141474
0.0067248
0.0155984
0.000345196
0.000225793
0.00338059
0.0137213
0.000238649
0.000230134
0.00293388
0.000717444
0.000296616
0.00147418
0.0150671
0.000381129
0.00236903
0.000871721
0.000393605
0.00448583
0.0136136
0.0017086
0.000914018
0.000888948
0.00104679
0.00024732
0.000649069
0.00672159
0.00202312
0.0153794
0.00775354
0.0012475
0.00970104
0.00696372
0.000737245
0.00041044
0.00672474
0.000374872
0.00673221
0.00594379
0.000332577
0.0151771
0.00171999
0.00142343
0.000136192
0.000659468
0.00604958
0.00891753
0.00666444
0.0158525
0.000272525
0.0067325
0.00220685
0.000403702
0.00279183
0.00674806
0.00568343
0.00110779
0.00678941
0.0129565
0.000706514
0.000770476
0.000995084
0.00966699
0.00484801
0.00679593
0.000645502
0.00273713
0.00514816
0.00730337
0.0158688
0.000788616
0.00164639
0.00648225
0.00148904
0.015858
0.0143857
0.00602742
0.00382948
0.00532193
0.00248405
0.000774137
0.00226819
0.00674431
0.000975108
0.0132235
0.000300563
0.0127845
0.00177814
0.00641239
0.0148194
0.00672455
0.000337268
0.00175392
0.00162326
0.00100019
0.0136687
0.00476526
0.00128232
0.00236438
0.00259289
0.000535917
0.0141147
0.00777497
0.00257659
0.00473333
0.000134002
0.0130242
0.0010658
0.00139049
0.00058116
0.00208796
0.00135091
0.00447857
0.00926665
9.4605e-05
0.0157773
0.00111564
0.0135929
0.00210216
0.000314815
0.00141896
0.00672443
0.000581247
0.0111354
0.00047905
0.00109788
0.003155
1.43925e-05
0.000215804
0.00329891
0.00396716
0.00672298
0.000472688
0.000620195
0.00672346
0.0148367
0.00672289
0.00116471
0.000852652
0.00155692
0.00308889
0.00531396
0.00031877
0.00363451
0.000738714
0.0139141
0.000748414
0.00672801
0.0067759
0.000646879
0.00197436
0.000455973
0.0016701
0.000248448
0.000219344
0.00672444
0.00379776
0.00672553
0.00172256
0.00315344
0.0145374
0.000363733
0.00274305
0.000127621
0.000186963
0.0137782
0.00521154
0.00950264
0.000376664
0.000947282
0.00165236
0.000580689
0.00676782
0.000418476
0.00370022
0.0135656
0.00374581
0.00249313
7.32108e-05
0.0104862
0.00672572
0.00672558
0.00148243
0.00261056
0.00802975
0.00200669
0.000595644
0.00207186
0.00497123
0.000107854
0.000574188
0.000232565
0.00673705
0.00120301
0.000162182
0.00158308
0.0013443
0.00117039
0.000222479
0.000466937
0.00138292
0.000910736
0.000930073
0.000112313
0.000110594
0.000702545
0.0113525
0.00477403
0.00142586
0.00890795
0.000284329
0.00797997
0.000784942
0.00425902
0.00129018
0.000646562
0.000747265
0.00673043
0.00672926
0.00154043
0.00377523
0.00181577
0.0153693
0.00672846
0.00902189
7.5958e-05
0.0028223
0.00040353
0.00107177
0.00170991
0.00400302
0.000229441
0.00030397
0.000377696
0.00216032
0.000414758
0.00147009
0.0010659
0.000804885
0.000454106
0.00413393
0.0067254
0.000927926
0.00526815
0.0141981
0.00672131
0.00010232
0.0154394
0.000368019
0.0146407
0.00435735
0.00104366
0.000235741
0.000383196
0.00672383
0.00335442
0.00673564
0.00594485
0.00672238
0.000550016
0.000410909
0.000146535
0.00276305
0.00120362
0.0143521
0.00672634
0.00483142
0.000493263
0.00672604
0.00672387
0.0149374
0.00117391
0.00752873
0.010653
0.00102427
0.000786411
0.0067876
0.0158179
0.000843723
0.00174578
0.000368849
0.00672388
0.00141551
0.00521263
0.00152734
0.00430029
0.00081862
0.000798056
0.000377387
0.0138763
0.000333486
0.000575548
0.013888
0.00673405
0.0138356
0.00672403
0.00221398
0.00320001
0.00113077
0.00106762
0.000319841
0.000749822
0.00672475
0.00672632
0.000555211
0.00208693
0.00672493
0.00189001
0.000284505
0.00672152
0.000170353
0.000255963
0.00683024
0.00033295
0.00876693
0.000204078
0.00672376
0.000280617
0.00672869
0.00127744
0.00993515
0.0133117
0.0109351
0.0137789
0.00239471
0.00262154
0.000130439
0.00125198
0.00566239
0.00124779
0.000881117
0.00627139
0.00139291
0.00117198
0.00445149
0.00674436
0.000553068
0.000749902
0.0018761
0.00672529
0.001051
0.000377878
0.0155349
0.00194795
0.00672336
0.00303559
0.00145666
0.000925502
0.00672615
0.015328
0.00675665
0.00393277
0.00672644
0.000199429
0.00102082
0.000114163
0.000835045
0.00366894
0.00153226
0.00672136
0.000195684
0.0014046
0.00771577
0.00247734
0.00722291
0.0156569
0.000822673
0.00672077
0.00267689
0.0101202
0.00117075
0.00142731
0.00347036
0.00310793
0.004055
0.000679928
0.00672495
0.00672134
0.00679399
0.00104264
0.00672406
0.00174061
0.0156347
7.87902e-05
0.0124025
0.00674357
0.010083
0.00672551
0.00672137
0.00205028
0.00672511
0.00672527
0.0116772
0.0107687
0.00296677
0.00672284
0.000759018
0.00572929
0.00355514
0.000288948
0.00685816
0.0148765
0.0017861
0.0013809
0.00672455
0.00100752
8.85882e-05
0.00536376
0.00672425
0.000302749
0.0040526
0.00086365
0.000496048
0.00105361
0.00672483
0.000693617
0.00125477
0.00267364
0.00110163
0.00248236
0.000727888
0.00672493
0.00364478
0.00372736
0.00677019
0.00226114
0.00683908
0.000938845
4.91249e-05
0.00246042
0.000958632
0.000799022
0.00672127
0.0141052
0.00129322
0.00672069
0.00273559
0.00145292
0.0150253
0.000667625
0.006733
0.000672958
0.00518099
0.0013974
0.000466877
0.00100354
0.00108617
0.0158231
0.00672347
0.000692234
0.000614472
0.000783435
3.0815e-05
0.00148917
0.000571484
0.00155763
0.0159092
0.00381057
0.00626634
0.00101897
0.00969422
0.00274909
0.00397235
0.00109252
0.00366626
0.00219646
0.00672572
0.00183733
0.00672416
0.0153482
0.000544492
0.000421934
0.000428471
0.000949498
0.00674145
0.00229663
0.000784586
0.0023127
0.000721501
0.0141089
0.000274595
0.0011119
0.000313372
0.0112123
0.00134429
0.0111584
0.0067322
0.000404888
0.00133669
0.00382117
0.000336422
0.00672499
0.00673251
0.000131607
0.00350669
0.000292018
0.00197845
0.000489296
0.00110871
0.000839583
0.000510865
0.00341027
0.0142204
0.000735639
0.00672503
0.000701262
0.001499
0.0116788
0.00111508
0.000143007
0.00251623
0.00152629
0.000240102
0.00285761
0.0140594
0.00218117
0.00776034
0.000560521
0.00672866
0.00623082
0.000692992
0.00395372
0.00342046
0.000310897
0.00672464
0.000842066
0.000297315
0.00518786
0.012755
0.00320899
0.00100829
0.00174799
0.0138666
0.000639796
0.00672291
0.00397163
0.000588021
0.00569739
0.00638587
0.00166905
0.00178655
0.0151188
0.0090634
0.00148883
0.0151852
0.00143833
0.00495254
6.53094e-05
0.00672844
0.000423
0.0056135
0.00672151
0.00105927
0.00209972
0.0154343
0.00416141
0.000964387
0.00449502
0.00995675
0.000377604
0.00355406
0.00223093
0.000519477
0.00588714
0.00678255
0.000475579
0.00442077
0.000410635
0.00674414
0.000468545
0.000867104
0.000710769
0.000439891
0.00679155
0.00674267
0.00244534
0.0019111
0.00192645
0.0158499
0.00119095
0.0067235
0.00540075
0.00635627
0.000925108
0.00111628
0.013468
0.0149103
0.000341953
0.00672492
0.000346492
0.00337153
0.00538229
0.00760641
0.000316904
0.00501118
0.0141032
0.00866637
0.00149417
0.00118967
0.0118777
0.00109267
0.00030762
0.000112609
0.000188641
0.00203274
6.21772e-05
0.00466637
0.0100403
0.00294661
0.00673222
0.000855326
0.000261074
0.00047472
0.00107203
0.00672293
0.00159232
0.00100589
0.00184182
3.66222e-05
0.0067241
0.0107993
0.00429106
0.00432921
0.0012519
0.00177501
0.00672434
0.0132446
0.000835452
0.0145302
0.0101718
0.00672478
0.000965676
0.000864044
0.00196271
0.000966293
0.00112612
0.00672538
0.00125794
0.00055525
0.00882996
0.00102602
0.0033723
0.00106878
0.00134899
0.000120369
0.000724795
0.000623717
0.00557287
0.000593626
0.0108735
0.0010423
0.00846712
0.011217
0.0150595
0.00886589
0.00556132
0.0067334
0.00391957
0.00104503
0.00158751
0.000645371
0.00191185
0.00382606
0.00672495
0.00622153
0.00105512
0.00673688
0.00150823
0.0010495
0.00971793
0.00122033
0.00672777
0.00672493
0.00397281
0.00672307
0.000264007
0.000961592
0.00032599
0.0100947
0.00672983
0.00539998
0.0157729
0.0157293
0.00321014
0.00753992
0.0001375
0.00836682
0.00672788
0.00018864
0.00138397
0.00672585
0.0024378
0.00520337
0.00223679
0.000723227
0.00054536
0.00333109
0.00410981
0.000517706
0.000928473
0.00672588
0.00939667
0.00401608
0.000987901
0.00672395
0.00304587
0.00118161
7.76831e-05
0.00243401
7.78333e-05
0.00969709
0.00104997
0.0156306
0.00425337
0.00379818
9.05069e-06
0.00672699
0.00284794
0.0020188
0.000155904
0.00216729
0.00453519
0.00672246
0.00552843
0.00206455
0.000418282
0.000944186
0.00273564
0.00672493
8.98715e-05
0.00676939
0.00861422
0.00672388
0.000905124
0.00160803
0.00675704
0.00106462
0.00672418
0.000909898
0.00672545
0.00197053
0.000222425
0.00668513
0.00121746
0.00672588
0.00139227
8.26899e-05
0.00109228
9.89979e-05
0.000278071
0.000419165
0.00130142
0.00100842
0.00113261
0.0054711
0.00656584
0.00209937
0.00109083
0.00672301
0.000530317
0.00672998
0.000904575
0.00672763
0.000220042
0.00227061
0.00674176
0.00251521
0.00119521
0.00672363
0.00129046
0.00672063
0.000165751
0.0109134
0.00082091
0.0072028
0.00672261
0.00672575
0.00014658
0.00672501
0.006725
0.00181344
0.0010527
0.000915897
0.000226889
0.00275212
0.00045993
0.0058104
0.00672464
0.00672485
0.00672678
0.00032666
0.00580783
0.00100423
0.000907613
0.00672943
0.00672291
0.0141655
0.0067251
0.000630375
0.00222141
0.0151585
0.000873705
0.000127188
0.000448586
0.000389294
5.21771e-05
0.00265208
0.0003858
0.000820891
0.00583452
0.00565128
0.000997711
0.00110148
0.00416764
0.000332274
0.00672534
0.00149405
0.000401459
0.00322859
4.99948e-05
0.00244646
0.000131687
0.00719985
0.00527498
0.00672438
0.00164692
6.64539e-05
0.00317828
0.000563055
0.000283707
0.0148621
0.00168151
0.00126161
0.00151688
0.000326081
0.00672612
0.000277083
0.00391152
0.00233777
0.00676384
0.00854872
0.000551515
0.000969719
0.0151974
0.00146962
0.00166153
0.00672519
0.00267324
0.00668768
0.00145836
0.0094392
0.000410692
0.00426772
0.00922541
0.00672433
0.000361772
0.000471408
0.00267069
0.000916479
0.00672521
0.0133634
0.0100451
0.00679565
0.000826085
0.00146554
0.000641164
0.000596864
0.00148328
0.000967595
0.00159196
0.000240678
0.00136298
0.00672425
0.00143896
8.05279e-05
0.00949184
0.00672495
0.00174932
0.000584933
0.00158241
0.0067259
0.00994416
0.00153327
0.00093893
0.00581886
0.000446398
0.000520103
0.000135891
0.00672427
0.00157076
0.000306508
0.000227405
0.000380225
0.00672399
0.00136894
0.00152827
0.000512936
0.00672441
0.000262362
0.00229376
0.000296452
0.0147945
0.00182251
0.00321299
0.000582523
0.00512231
0.000503966
0.00672485
0.00088875
0.00146692
0.000972244
0.000467917
0.00142528
0.000305578
0.000331593
0.000832471
0.000965475
0.00673586
8.5809e-05
0.00165746
0.000416667
0.00089334
0.000827393
0.000468694
0.0067304
0.00534581
0.0002643
0.00288848
0.0016191
0.000984252
0.00480826
0.00032989
0.00160235
0.0142394
5.73686e-05
0.000315441
0.000594458
0.000273438
0.00673092
3.51193e-05
0.00678384
0.000471229
0.00239358
0.0132282
0.000590387
0.000307018
0.00672403
0.00342972
0.00673081
0.00129381
0.000687229
0.00766514
0.0131333
0.00254674
0.00672078
0.000618231
0.000147722
0.0067275
0.00884949
0.00672766
0.00100019
0.00164798
0.00212811
0.000755246
0.000966543
0.00427735
0.000473758
0.00045942
0.00101941
0.000396778
0.00672803
0.00454274
0.0131806
0.00672115
0.000724102
0.000740405
0.000372289
0.00947508
0.00672128
0.00139331
0.000459098
0.0108146
0.00672615
0.00672384
0.000711873
0.00743381
0.00672089
0.000380942
0.000398597
0.000781984
0.000554979
0.000718554
0.000905505
0.00672682
5.13546e-05
0.00672822
0.00412503
0.000728884
0.00673148
0.00198394
0.000384628
0.00672323
0.0032787
0.000728656
0.0128395
0.00333656
0.00480318
0.00672436
0.00672991
0.000659052
0.00672466
0.00555137
0.0105932
0.00672596
0.000934612
0.00131479
0.0120508
0.000951074
0.00624677
0.00077208
0.000423253
0.00672292
0.00375024
0.00672471
0.00477475
0.00672475
0.000276522
0.0010856
0.0067656
0.00677231
0.000854372
0.000949463
0.000815101
0.000154571
0.000402687
0.00112377
0.0147039
0.000234877
0.00198045
0.00127488
0.000217371
0.000457586
0.00108059
0.00177402
0.00840543
0.00696168
0.0044415
0.00168404
0.00378857
0.000598107
0.000233296
0.00656118
0.00349597
9.5395e-05
0.00672528
0.00222085
0.00672488
0.00673889
0.00238953
0.00360571
0.00330613
0.00672075
0.00511357
0.00672307
0.000149908
0.00202569
0.00103215
0.000173062
0.00341639
0.0124329
0.000762416
0.00672511
0.00115246
0.00619745
0.00037829
0.00398517
0.0132548
0.00101185
0.00076223
5.74654e-05
0.0103852
0.000539935
0.000213335
0.00116594
0.000306994
0.00350483
0.00212024
0.00010985
0.000581292
0.00340665
0.00675236
0.00671796
0.00265299
7.22456e-05
0.00741814
0.000529691
0.00630965
0.000824998
0.000969587
0.000806889
0.0112234
0.000697341
0.00672264
0.000304674
0.00051528
0.00137659
0.00672963
0.00672303
0.0145152
0.00672562
0.000581872
0.0157674
0.000633734
0.00458386
0.000307386
0.000903289
0.00887141
0.00672581
0.00495453
0.00672647
0.000537329
0.00234568
0.00331685
0.00108753
0.0156416
0.00531597
0.0067247
0.00935628
0.00405676
0.00276336
0.00302785
0.0113735
0.00583254
0.000831924
0.00672584
0.00828408
0.0155183
0.000433079
0.000112299
0.000451137
0.00430545
0.00672418
0.0132004
0.0067225
0.00130518
0.00676862
0.00180654
0.00672449
0.0100435
0.00672746
0.00137003
0.00675664
0.000187484
0.00027981
0.00672001
0.000278372
0.0106704
0.00103224
0.00795019
0.00635779
0.000226318
0.00094897
0.000915772
0.000575884
0.00326377
0.00446612
0.00177485
0.000411868
0.00357288
0.00726358
0.00655939
0.000910057
0.000740178
0.000586416
0.000510629
0.0152652
0.00659361
0.00675999
0.000367624
0.00991724
0.000524589
0.000358238
0.00177094
0.00672865
0.00985008
0.0095665
0.00770798
0.00672422
0.00578091
0.0092556
0.00028584
7.98856e-05
0.0124917
0.00116044
0.00077684
0.000371492
0.000577492
0.00407427
0.00050804
0.000854908
0.0067352
0.00724392
0.00672461
0.000550433
0.00102095
0.00051207
0.000371378
0.000292851
0.00198828
0.00148945
0.000504707
0.0055082
0.0158614
0.000663364
0.00171324
0.000590802
0.000560302
0.000170021
0.00672504
0.000594089
0.000127386
0.000366378
0.00424393
0.000479104
0.000913003
0.000311293
0.00952788
0.000163868
0.00105439
0.000178185
0.0072649
0.00241037
0.00146596
0.00761279
0.000445094
0.00115697
0.001372
0.00672429
0.000212219
0.00197976
0.0139498
0.000430855
0.00157583
0.00672457
8.50783e-05
0.000549799
0.000260074
0.00449509
0.00671766
0.00672599
0.000681661
0.00672445
0.00142964
0.00139973
0.00184137
0.000560643
0.00571332
0.000866773
0.00237277
0.00137372
0.00280646
0.00672569
0.0104905
0.00145789
0.00672913
3.7849e-05
0.000208655
0.000252205
0.00131166
0.000888786
0.00123284
8.04079e-05
0.00114558
0.00161476
0.00672426
0.00340099
0.00226351
0.00749933
0.00148463
0.00526067
0.00672524
0.000211224
0.00564754
0.000848552
0.00126441
0.000126781
0.00672981
0.000259542
0.00142356
0.0116087
0.00672831
0.000314106
2.64979e-05
0.00170049
0.000743128
0.00148195
0.00209129
0.000232119
0.00155579
0.00530017
0.000985827
0.000504812
0.00672464
0.00531006
0.00032209
0.00672473
0.00263952
0.000325139
0.00672579
6.84112e-05
0.00562945
0.0158839
0.00998376
0.00870054
0.0106565
0.010434
0.00263373
0.00672437
0.0110297
0.00675764
0.00634239
0.00673087
0.000186278
0.0157772
0.0039431
0.000465077
0.00419395
0.00138693
0.000320885
0.00535147
0.0067214
0.00678955
0.0158909
0.00672455
0.00672395
0.00904257
0.00129581
0.00278622
0.00672825
0.0103087
0.010312
0.0038873
0.000919191
0.00672557
0.012367
9.93219e-05
0.00311577
0.00397265
0.00239737
0.00961592
0.00621995
0.00424044
0.00672543
0.00672604
0.0157118
0.00516993
0.000154289
0.000257665
0.00262286
0.00190753
0.000366173
0.000251334
0.000606115
0.0102616
0.0122248
0.00672446
0.00158782
0.00144936
0.00141718
0.0146286
0.00673553
0.00459358
0.000422746
0.00124767
0.00128157
0.00672102
0.000431317
0.000579268
0.00391644
0.00672469
0.000413483
0.00232424
0.000930133
0.00170278
0.0155287
0.00433039
0.000165574
0.00146349
0.00441651
0.000949516
0.000881877
5.21353e-05
0.0153833
0.0112017
0.00672312
0.00775133
7.80349e-05
0.015162
0.00229606
0.000567667
0.000691848
0.0031002
0.0102129
0.00672474
0.00100889
0.00923155
0.0159406
0.000333166
0.0159108
0.00057029
0.000815282
0.00676434
0.0145343
0.000598857
0.0061287
0.00676549
0.00983017
0.00674189
0.00672631
0.00104816
0.000359319
0.000348954
0.00355837
0.0103599
0.00151192
0.00543488
0.000504261
0.00834686
0.000148269
0.00432993
0.0127237
0.00100144
0.00155081
0.00167927
0.0067244
0.000480757
0.00672693
0.00237947
0.00015445
0.00203809
0.00673202
0.000455676
0.000788381
0.00676601
0.00962295
0.00154253
0.000835156
0.00679183
0.000630648
0.00672408
0.000243977
0.00160126
0.000164315
0.00262671
0.00965073
0.000220792
0.0158855
0.000346532
0.000544897
0.00673819
0.0105151
0.00015184
0.000402228
0.000104508
0.00672507
0.00571137
0.000351678
0.000523699
0.00097529
0.0116984
0.0105503
0.000808443
0.00674777
0.000480759
0.000306231
0.00672467
0.00317759
0.00673626
0.000905904
0.000526725
0.000310355
0.0138233
0.00657327
0.00672414
0.00150588
0.000550065
0.00131859
0.00674738
0.0153266
0.00135383
0.00151761
0.00223656
0.00402263
0.000439116
0.011562
0.000150447
0.00093638
0.000365938
0.00672488
0.00132646
0.000394921
0.000437801
0.00299537
0.00672045
0.00360684
0.0102694
0.0135596
0.00522694
0.000435567
0.000463644
0.00344559
0.00672302
0.00287303
0.0158493
6.73757e-05
0.000480361
0.00214032
0.00171922
0.00990874
0.000257871
0.000707981
0.00213213
0.00094597
0.00674031
0.000172348
0.000382875
0.00521788
0.0128099
0.0126097
0.0153259
0.0117926
0.00898369
0.00868208
0.0107804
0.00103049
0.00581169
0.010128
0.00777159
0.00554767
0.0028219
0.000928552
0.00465348
0.00531167
0.00533059
0.0157299
0.000909203
0.00672641
0.000349784
0.000791154
0.000730507
0.00878266
0.000813165
0.000615657
0.00672044
0.0154752
0.00383307
0.000427294
0.00166559
0.000840004
0.00243081
0.00673159
0.000676734
0.000665907
0.000980077
0.00131659
0.00129096
0.00078044
0.00106288
0.00883199
0.000350005
0.00139319
0.0112775
0.000980556
0.00672432
2.75529e-05
6.46739e-05
0.00590171
0.000614863
0.00294631
0.00109077
0.00079206
0.000420676
0.00672517
0.000250245
0.0013729
0.00112414
0.000194049
0.00672477
0.00161448
0.0102063
0.0137578
0.0156806
0.000252769
0.00133402
0.00673714
0.00547542
0.000943384
0.00675921
0.0116521
0.00578995
0.00672597
0.00673795
0.0129011
0.00103604
0.00169772
0.00107812
0.000700467
0.000303132
0.00088714
0.000228788
0.0010362
0.000604148
0.0044449
0.00136954
0.00869033
0.000548727
0.0154709
0.000829484
0.00672033
0.00673617
0.000752881
0.000695209
0.0067246
0.000266686
0.000856563
0.000447244
0.00940482
0.00378316
0.00868026
0.00672597
0.00057416
0.000452946
0.000502723
0.00673104
0.000405354
0.00103599
0.00822775
9.51293e-05
0.00043101
0.00672564
0.0135796
0.000421007
0.00821767
0.00735341
0.00107015
0.000919376
0.000509212
0.00934069
0.000135247
0.0137142
0.000495504
0.00369923
0.000525426
0.00519899
0.00797145
0.000771018
0.000688341
0.000259596
0.0150411
0.00418258
0.00422949
0.00986132
0.000580282
0.00959691
0.000249799
0.00672787
0.000646143
0.000896797
0.000162022
0.00709689
0.000506364
0.000427313
0.00109961
0.00672543
0.00442044
0.000348297
0.00139635
0.000159335
0.00425095
0.00325338
0.000293139
0.00186355
0.00303209
0.00672456
0.000552183
0.000221149
0.00140515
0.000698397
0.000536592
0.000521329
0.00311801
0.000204919
0.000929157
0.000823486
8.33018e-05
0.00210764
0.000164335
0.00015536
0.00551963
0.0009884
0.00769711
0.0106806
0.00332956
0.000244395
0.00825799
0.00465365
0.00132299
6.567e-05
0.00948511
0.000453842
0.00839504
0.000588074
0.00438551
0.00121242
0.00673419
0.00130728
0.000572601
0.00323722
4.80449e-05
0.00112963
0.000197409
0.0122285
0.0136972
0.00270512
0.0122401
0.00655155
0.00374842
0.0125913
0.0067246
0.0067216
0.00996285
0.00273355
0.00672522
0.000319837
0.0148164
0.000679717
0.00173251
0.0109187
0.00672229
0.0134635
0.0102517
0.00672397
0.000515765
0.00144242
0.00997199
0.010252
0.0107962
0.00907917
0.00673199
0.00100983
0.000621098
0.000907586
0.00672571
0.00100913
0.00672996
0.0113235
0.000663614
0.000155006
0.000962475
0.0117704
0.000872587
0.000965746
8.80635e-05
0.00244576
0.000464391
0.001781
0.00673294
0.00522788
0.000348804
0.00675436
0.0112102
0.00518922
0.00614128
0.00261832
0.0159482
0.00200733
0.00603908
0.000281115
0.000430639
0.000258728
0.00836836
0.00989842
0.000242561
0.00175955
0.0017171
0.00105591
0.00156671
0.000724275
0.00138152
0.00672449
7.1271e-05
0.000731224
0.000478958
0.0080135
0.000854997
0.000313576
0.000221804
0.000609562
0.00143759
0.00601938
0.000365231
0.00673778
0.000767808
0.000457557
0.00919267
0.00672588
0.000641857
0.00553527
0.00212836
0.000431224
0.00177223
0.000669119
0.0106299
0.000789312
0.000915077
0.00185889
0.00672466
0.0133905
0.00672403
0.00202073
0.000853892
0.0136416
0.00053132
3.15846e-05
0.000112405
0.0014975
0.00274527
5.84533e-05
0.000620117
0.014063
0.000535611
0.000333099
0.000734579
0.00160375
0.000977483
0.000171857
0.000571159
8.44667e-05
0.000832027
0.000312839
0.00122211
0.00424871
0.000331407
0.00398674
0.000888909
0.00673325
0.0010439
0.000928977
0.0008964
0.0108841
0.00110426
0.000612806
0.00672384
0.00249621
0.00672458
0.00672433
0.00204579
0.00672828
0.00112982
0.00322738
0.000987527
0.000908464
0.0019752
0.00310226
0.000263888
0.00337049
0.00870545
0.00882695
0.00589157
0.00140789
0.000524365
0.00177675
0.00672453
0.000387232
7.38446e-05
0.000505887
0.0115765
0.00106131
0.0122512
0.00139465
0.00672442
0.00672441
0.0104135
0.00452166
0.00121216
8.61425e-05
0.000608613
0.00239288
0.0157653
0.0067238
0.00086639
0.00443825
0.0014213
5.46133e-05
0.00124231
0.00245309
0.00162521
0.000225617
0.000932813
0.00121674
9.4699e-05
8.15577e-05
0.000302033
0.00136183
0.00222175
0.00158416
0.00131795
0.0134843
0.0105305
0.0140977
0.00149657
0.00494361
0.00133623
0.00215535
0.00672626
0.00152796
0.00672432
0.00175191
0.00405549
0.00606009
0.00607196
0.000449809
0.00539719
0.00144833
0.000286222
0.00278011
0.00506424
0.000530323
0.0155955
0.000328522
0.00313096
0.0136651
9.33987e-05
0.00393685
0.0001725
0.00672551
0.000191205
0.00080578
0.00010288
0.0113437
0.000282582
0.00993775
0.00673296
0.0108957
0.00282027
0.00112643
0.00169868
0.000517507
0.00672313
0.000147554
0.0136096
0.000110233
0.000722585
0.000487341
8.28811e-05
0.00435895
0.00678818
0.00223958
0.00174743
0.00172209
0.0159506
0.00749808
0.000223953
0.00672492
0.000261248
0.000277983
0.000555104
0.00258809
0.00812798
0.0043394
0.00673405
0.00493502
0.00152122
0.00317164
0.00401124
0.0139255
0.00624054
0.000375318
7.80746e-05
0.00623335
0.0154962
0.00215599
0.0159463
0.00390154
0.00166132
0.0016488
8.5075e-05
0.00249154
0.000805274
0.00657801
0.00200507
0.00888787
0.00179223
0.000272469
0.00106485
0.000839675
0.000189938
0.000507617
0.00408579
0.000174882
0.000789341
0.0019307
0.0013079
0.00531237
0.00663789
0.00672383
0.00195807
0.00260602
0.000675184
0.0099094
0.000747662
6.33477e-05
0.00129041
0.00154119
0.00191465
0.0150787
0.0111301
0.00160797
0.00173693
0.00649772
0.00935065
0.000515626
0.000773708
0.00873093
0.0133941
0.00260358
0.000521793
0.0109099
0.000180528
8.93794e-05
0.000414232
0.00211278
0.00674874
0.000211585
0.00672618
0.00385009
7.31288e-05
9.63158e-05
0.00672404
0.00098613
0.000170055
0.000946785
0.00672632
0.00672197
6.93074e-05
0.00234282
0.00332464
0.0016629
0.0132422
0.00150964
0.000218244
0.00672562
5.64656e-05
8.04534e-05
0.00241325
0.000638224
0.00672751
0.0159348
0.0153756
0.000677644
0.000661862
0.000410992
0.000691207
0.00672403
0.00145958
0.00674355
0.00230177
0.00672513
0.012615
0.00674619
0.00170172
0.00018208
0.000602636
0.00121869
0.00673258
0.0142547
0.000373751
0.0026673
0.00748243
0.000348825
0.000665952
0.0074766
0.000629575
0.000188191
0.0019561
6.59123e-05
0.000225293
0.000719672
0.0158534
0.00672891
0.00376328
0.000183062
0.011167
0.0067242
0.000979147
0.0145877
0.00672594
0.00464092
0.000591825
0.00435273
0.00672217
0.00295856
0.000410442
5.44185e-05
0.00197592
0.000493645
0.00616049
0.00300162
0.00948331
0.0104104
0.0060846
0.00152987
0.00426544
0.00162013
0.00672404
0.000338888
4.81793e-05
0.015276
0.00599076
0.000791054
0.000687788
0.00672118
0.00672098
0.0048072
0.0024777
0.0004624
0.000504291
0.000886804
7.82848e-05
0.00611108
0.00226836
0.00673872
0.00673364
0.00720467
0.00165292
8.98036e-05
0.000464108
0.00295746
0.000488717
0.000159678
0.00810116
0.00908665
0.0067241
0.00610111
0.00111164
0.000291089
0.0150699