/*--------------------------------*- C++ -*----------------------------------*\
| =========                 |                                                 |
| \\      /  F ield         | OpenFOAM: The Open Source CFD Toolbox           |
|  \\    /   O peration     | Version:  v2012                                 |
|   \\  /    A nd           | Website:  www.openfoam.com                      |
|    \\/     M anipulation  |                                                 |
\*---------------------------------------------------------------------------*/
FoamFile
{
    version     2.0;
    format      ascii;
    class       surfaceScalarField;
    location    "450";
    object      phi;
}
// * * * * * * * * * * * * * * * * * * * * * * * * * * * * * * * * * * * * * //

dimensions      [0 3 -1 0 0 0 0];
oriented        oriented;


internalField   nonuniform List<scalar> 
20580
(
-0.13334
0.00912735
0.124212
0.128313
-0.250665
0.122351
0.260129
-0.131817
0.0063861
0.00258626
-0.00897236
0.585975
-0.622221
0.0362198
0.264407
-0.189593
-0.0748154
-0.301135
0.0466188
0.580447
-0.583509
0.0030153
-0.0138291
0.0112348
0.00259438
0.423595
-0.249362
-0.174235
0.143753
0.0118033
-0.155557
-0.519207
0.315489
0.203711
-0.209685
0.28537
-0.0756859
0.00209184
-0.000230377
-0.00186146
0.191508
-0.03466
-0.156849
-0.116292
0.100383
0.0159093
0.00865826
0.00566321
-0.0143215
-0.170369
0.357747
-0.187383
0.0989869
-0.110389
0.0114017
-0.118438
-0.0149012
0.0626086
-0.194005
0.131396
0.234189
-0.204102
-0.0300878
0.0242178
-0.0369474
0.0127296
-0.585798
0.592219
-0.0064267
0.077952
-0.091768
0.013816
-0.00194345
0.116948
-0.115004
-0.0174063
-0.0663686
0.0837749
-0.0907699
0.0740768
0.0166931
-0.00729
0.0238494
-0.0165594
0.487004
-0.327122
-0.159894
0.00678683
-0.00374053
-0.0030463
-0.225884
-0.0752524
-0.11475
0.128853
-0.0141024
0.022934
-0.0165559
-0.00637807
-0.155711
0.151332
0.00437942
-0.0163173
-0.00704104
0.0233584
-0.61538
0.0295797
0.00947487
-0.0662062
0.0567314
0.00285322
-0.00201564
-0.000837577
-0.133305
-0.159807
0.29311
-0.00436442
-0.00426037
0.00862479
-0.0264189
0.0191289
0.0154039
-0.0154039
0.0969008
-0.00372172
-0.0931791
0.0223378
-0.0293259
0.00698812
0.451904
-0.281026
-0.170884
-0.540409
-0.0696653
-0.130712
0.0488873
0.0818249
-0.053872
-0.212318
0.266189
-0.298682
0.088997
0.013479
-0.0136785
0.000199486
0.142024
-0.283408
0.141383
-0.101314
-0.0149776
-0.0490189
-0.126747
0.175765
0.00460961
-0.000895875
-0.00371373
0.101441
-0.234748
0.00936827
-0.124118
-0.00739684
0.00303242
-0.0235919
0.093069
-0.0694771
0.00334826
-0.00336988
2.16231e-05
-0.357608
-0.161607
0.0720135
-0.0894198
-0.221112
-0.193724
0.414834
-0.196871
0.142998
-0.0439941
0.091476
-0.047482
-0.0826306
0.0386365
0.00414279
-0.000794532
-0.0938847
0.0657851
0.354707
-0.251071
-0.103639
0.00471856
0.00353005
-0.00824861
0.00902109
-0.00021094
-0.00881015
0.167341
-0.186842
0.0195007
-0.0298884
-0.223872
0.253758
-0.00351108
0.000141197
0.180611
-0.0183759
-0.162236
0.22083
-0.217108
-0.00372323
0.0171288
-0.00847056
0.345957
-0.52986
0.183881
0.092168
-0.014216
0.450047
-0.214277
-0.235778
0.247995
0.10671
-0.104805
0.120564
-0.0157587
-0.0214152
-0.134296
-0.000338342
0.00168838
-0.00135003
-0.00274136
-0.000769721
0.00581375
-0.00818226
0.00236851
0.0639928
0.170195
0.0107825
-0.00146266
-0.00931988
0.227534
0.149167
-0.376704
0.00400865
0.00277818
0.266879
-0.124855
-0.305935
0.0800502
0.0152394
-0.0152394
0.00970949
-0.00389574
-0.0044375
0.00512043
-0.00068293
0.0256546
0.071882
-0.0975367
0.151182
-0.35452
0.203333
-0.089885
0.109067
-0.0191824
0.00909942
-0.00998688
0.000887463
0.0188308
0.0967666
-0.115597
-0.112037
0.0221517
0.123323
-0.049097
-0.0742265
0.085192
-0.120239
0.0350468
-0.171568
-0.0770414
0.248607
-0.470374
0.129882
0.340486
0.133664
-0.173981
0.0403166
-0.162901
-0.30748
0.00852606
0.000495033
-0.0756683
-0.230268
-0.339126
0.168753
-0.00742183
0.152253
-0.144832
0.340419
0.111478
-0.104031
0.118378
-0.0143469
0.0164518
0.113545
-0.129997
-0.11912
0.111358
0.00776237
0.16398
-0.213
0.171681
-0.401286
0.229589
0.46976
0.11064
-0.00335363
0.00973973
0.00786938
-0.00315081
0.0737595
-0.10265
0.0288905
0.157949
-0.420551
0.262593
-0.275233
0.290169
-0.0149382
0.00276562
-0.00148113
-0.00128449
0.0849137
-0.114255
0.0293415
0.0256709
-0.066042
0.0403711
0.344551
-0.193375
0.0545674
0.0959778
-0.150545
0.0076706
0.00351497
-0.0111856
0.14861
0.0169647
-0.165575
-0.199533
-0.00456906
-0.136472
0.187875
-0.0514032
-0.0749346
0.0844095
0.0140314
0.00890257
-0.00321181
0.146965
-0.000398359
-0.00513847
0.00553683
-0.0471781
-0.00647374
-0.00170852
-0.00976455
0.123598
-0.113833
-0.165851
0.0246814
0.141169
-0.110076
0.00527035
0.251116
-0.232596
-0.0185203
-0.0695818
0.297114
-0.078107
0.000466124
0.0776409
-0.00341605
-0.0610915
0.0645076
-0.0356213
0.229648
-0.194027
0.518333
-0.1724
0.00596896
0.0156529
-0.0136601
-0.00199278
-0.0675259
0.122093
-0.0578898
-0.054147
-0.114296
0.0102647
-0.107544
0.123996
0.104676
-0.0988334
-0.0058422
-0.21724
-0.0187268
0.235966
0.131408
0.186237
-0.317645
0.313564
0.211152
-0.524726
0.0037458
-0.000892575
-0.188177
0.0912813
0.096896
-0.0496178
0.210294
-0.160678
-0.417713
-0.163326
0.581031
0.0253911
-0.0202994
-0.00509163
0.161288
-0.0276234
-0.0434492
-0.0872631
0.000834266
0.00125757
-0.0239253
0.00457033
0.019355
-0.016746
-0.00717924
0.0129628
0.000516118
0.158214
-0.165636
0.045281
-0.0417594
-0.00352157
0.535697
-0.330104
-0.205601
0.44122
-0.26956
0.158263
-0.144423
-0.0138405
0.551802
-0.111085
-0.440737
-0.00312546
-0.00131204
-0.0723661
-0.020831
0.093197
0.0916512
-0.106021
0.0143701
0.259354
0.181847
0.185103
-0.167061
-0.0180429
0.110962
-0.0193103
0.103257
-0.018343
0.122555
0.00610456
-0.174409
0.168304
0.18507
-0.0364605
-0.0158705
0.0158705
0.00488426
0.0107686
0.0949094
0.0339431
-0.0700817
-0.0609347
0.131016
0.230837
0.00350155
-0.234339
-0.133049
-0.244159
0.377198
-0.0733239
0.0699078
-0.131923
-0.0562545
-0.000604054
0.000373677
0.133333
0.131074
-0.225922
0.1903
-0.097625
0.116334
-0.0187086
0.119892
-0.0249824
0.203724
0.103161
-0.306889
0.126768
-0.315006
0.188234
-0.0131505
-0.0702073
0.0833577
0.114023
-0.115109
0.00108559
0.00151879
-0.000190877
-0.00132791
0.00829059
-0.00358388
-0.0047067
0.0167066
0.174802
-0.00342453
-0.0512056
0.0546301
0.00315308
-0.00163429
0.195032
-0.210793
0.0157611
0.120937
-0.136589
0.0156516
0.014093
-0.00558363
-0.00850936
0.205324
-0.011527
-0.193798
-0.103487
0.106315
-0.00282884
-0.245918
-0.0293166
0.00394713
-0.64674
0.399803
0.246935
-0.135068
0.16156
-0.0264919
-0.213635
0.184488
0.0291466
-0.249212
-0.049471
-0.00709432
0.0859763
-0.078882
-0.177502
-0.138779
0.316277
-0.00166828
0.0242863
-0.20188
0.461213
0.122606
-0.110671
-0.011935
-0.000741816
0.000403474
-0.00411095
0.00524891
-0.00113796
0.0319675
-0.138262
0.106295
0.141982
-0.0210444
0.668625
-0.363436
-0.305193
-0.0278983
-0.0502087
0.168899
-0.456063
0.287156
0.0162633
0.00260436
-0.00488367
0.00227931
0.0864221
-0.156504
-0.0342496
0.239573
-0.48032
0.22497
0.00286773
0.00542286
0.227397
0.259592
0.0691
-0.0448821
0.00589525
-0.00218722
-0.00370804
-0.103683
0.122513
0.142077
-0.559793
-0.0388525
0.0885057
-0.0496533
0.0029441
-0.00236303
-0.000581064
-0.00715539
0.0294932
-0.00310404
0.179988
-0.179731
-0.000256929
0.0640128
-0.0601052
-0.00390761
0.0835431
-0.0906375
0.0284559
0.156647
0.100413
-0.0285307
0.152752
-0.159489
0.00673672
0.000502591
-0.00500589
0.0045033
-0.107413
0.117469
-0.0100559
-0.311322
0.65034
-0.339065
0.0581975
0.156074
-0.214272
0.0114424
0.0237193
0.0016718
-0.00862648
-0.00365631
0.0122828
-0.348786
0.215727
0.0502912
0.183493
0.15739
-0.340885
0.100609
-0.0959091
-0.00470025
0.112199
-0.103595
-0.00860445
-0.0999712
0.158168
0.146966
0.0143211
-0.130419
0.0230054
-0.0969962
0.303507
-0.206514
0.0559079
0.0674155
-0.130408
0.041619
0.0887894
0.0990238
-0.077146
-0.0218778
0.458294
-0.187201
-0.271098
-0.293519
0.044307
0.118389
-0.0137761
0.0203084
-0.00653226
0.01304
-0.000116897
-0.0129231
0.154731
-0.0169115
-0.13782
0.389591
-0.231649
0.0938572
0.00939953
-0.099058
0.105379
-0.00632083
-0.0944664
0.119398
-0.0249316
0.159735
-0.0127689
-0.0180152
0.00423902
0.00758712
-0.00785414
0.00026702
0.148744
-0.196659
0.0479149
-0.101941
-0.060985
0.162926
-0.0748733
0.0833323
-0.008459
0.18652
0.166567
-0.353093
0.224256
0.299278
-0.523543
-0.113156
0.01869
-0.0228747
0.14461
-0.121736
-0.462326
0.229925
0.232389
0.494927
0.128498
-0.623431
0.404902
-0.23601
-0.567111
0.57356
-0.0064824
-0.0171347
-0.155698
0.172832
0.537811
-0.0103986
-0.00343054
-0.0906914
0.1533
0.154615
-0.289727
0.135109
0.00740193
0.00210317
0.00066245
0.0555372
0.215835
-0.271373
0.00416796
0.0110016
0.000233456
-0.0112351
0.0685531
0.182562
-0.184772
0.240309
-0.215901
0.12521
0.000228169
0.000453479
-0.000681648
0.00977561
0.00131084
-0.0110865
0.160505
-0.0273471
-0.133158
0.463666
0.122282
0.0455514
-0.000270412
0.178082
0.145269
-0.151266
0.00599629
0.0112485
-0.000246818
0.0916259
-0.0828749
-0.00875101
-0.255827
0.206208
-0.0892108
0.0143375
-0.00763679
0.091623
-0.0839862
0.00570602
-0.00760011
0.00189409
0.110863
-0.000901891
-0.109961
0.0457692
-0.110389
0.0646199
0.00180827
-0.00220663
0.0048568
-0.00261285
-0.00224395
-0.0316294
-0.0591405
0.316499
-0.189733
-0.00515466
0.0147448
-0.00959014
-0.00647033
0.00647033
0.00415214
-0.0313372
0.027185
-0.0371654
0.0413176
0.14413
0.0509014
0.162384
-0.0286241
-0.13376
0.0192171
-0.155415
0.136197
0.00455259
0.00622995
0.0545546
-0.112127
0.0575727
-0.216721
-0.303364
0.520049
-0.106769
-0.433691
-0.0474245
0.180396
-0.132972
-0.00274587
0.00845189
0.02719
0.372716
-0.186205
0.00100948
0.0484117
0.114655
-0.163067
-0.182043
0.0455703
-0.0469767
0.25727
-0.000145205
0.000373373
0.0984881
-0.00463094
0.0150194
-0.00759248
-0.206043
0.185975
-0.220225
-0.0283655
0.0234736
0.00489191
0.245589
-0.0147528
0.00561757
-0.0623378
0.211081
-0.126536
-0.0893655
0.139083
-0.0906716
0.332658
0.290838
-0.136226
0.120583
-0.134612
0.014029
-0.0227313
0.119498
-0.114219
0.120915
-0.00669666
-0.0825714
-0.0194745
-0.00889098
0.191829
0.0378176
0.00231137
-0.107273
0.0931651
0.0141076
-0.195339
0.433436
-0.238109
0.0907295
0.000896425
-0.107076
0.126034
-0.0189583
0.00916086
-6.14383e-05
0.170247
-0.217672
-0.136165
0.00768432
-0.0908107
0.0672188
-0.0828208
0.0774611
0.00535975
0.112528
-0.124237
0.0117095
0.0101668
-0.00795777
-0.00220899
0.29059
-0.237369
-0.0532224
0.0205447
-0.0929107
0.00182118
0.0135827
0.0177207
-0.184305
0.166584
0.00578217
-0.00527958
-0.0284736
-0.153839
0.182312
-0.00803225
0.00360086
0.00443139
0.0829365
-0.184878
-0.0316156
-0.130455
0.119019
-0.116308
-0.00271144
0.060305
-0.092958
0.032653
0.307703
-0.176296
0.23788
-0.155963
-0.0819182
0.0926543
-0.115529
0.0135501
-0.293415
-0.0266719
0.320083
-0.00653228
0.161263
-0.0334922
0.00153109
0.0319611
-0.208293
0.178404
-0.0750855
-0.0615036
-0.010709
0.0121878
-0.00147881
0.102171
-0.255521
0.153349
-0.0465327
0.112551
-0.0660184
-0.156485
0.151312
0.00517287
-0.00293335
0.012709
0.188658
-0.200186
0.129826
-0.13177
-0.0659603
0.0625358
-0.00205624
0.164293
-0.157759
-0.00653362
-0.0137719
0.00514539
0.000202741
-0.0886133
0.0497609
-0.281436
0.184437
0.11782
0.00276373
0.156449
-0.181398
0.024949
-0.123442
-0.0127232
0.419125
-0.206443
-0.212689
-0.0161201
0.0161201
-0.00801448
0.0292779
-0.0212634
-0.0761123
0.0838548
-0.00774251
-0.0541389
0.240113
-0.0113993
0.0859668
-0.0792048
-0.00676209
0.0119364
0.00110363
0.485741
-0.213655
-0.272103
-0.0157211
0.0105665
-0.109834
0.103344
0.00649002
-0.00884544
-0.00677245
0.0156179
0.168298
-0.0155463
-0.0177688
-0.0665
0.0842687
-0.0373019
-0.239695
0.276996
0.569404
-0.017622
0.000261141
0.00434847
0.0891987
-0.0104548
-0.0787439
0.148247
0.275347
-0.208417
-0.0422486
-0.136357
0.0612718
-0.155797
0.46176
-0.305982
-0.0356632
0.0276487
0.0353576
0.127026
-0.124254
0.0171782
-0.223615
0.220277
0.00333681
0.0147803
0.275808
-0.330974
0.249686
0.0812887
-0.0763862
-0.00643463
-0.0822725
-0.207458
-0.0321274
-0.298847
0.0181862
-0.0622043
0.0440181
-0.0332961
-0.000196063
-0.170884
-0.0286499
0.0208863
-0.0914116
0.0705253
0.213542
-0.434654
0.516317
-0.21705
0.273727
-0.171557
0.00325054
0.126368
-0.145053
0.0186852
-0.32615
0.0271878
0.298959
-0.317041
0.216315
0.100724
-0.0335139
0.107273
-0.120296
0.298248
-0.177953
-0.0202258
0.0171248
0.00310103
-0.167895
-0.381919
0.549804
-0.153688
-0.058482
0.212169
-0.0130731
-0.0162528
0.00679801
-0.0962372
0.0894391
0.433428
-0.612179
0.178706
0.498887
-0.197481
-0.301412
-0.197753
-0.0258618
0.320991
-0.124024
-0.19697
0.0880574
-0.0999759
0.0119184
-0.0571776
0.0485623
0.00861526
0.193064
-0.0130767
-0.00930964
-0.0359727
0.0452824
0.219587
0.26402
-0.486528
0.222502
-0.00588222
0.0115667
-0.00568446
-0.0699245
-0.157962
0.0819307
0.0760315
-0.299296
0.274752
0.0245421
0.00337567
-0.124533
0.114768
0.0687543
-0.0172423
-0.0515119
-0.237962
0.0663934
-0.172429
0.00439825
0.16803
-0.0220844
-0.197067
0.170752
0.0263151
-0.00791235
0.00529951
0.0888638
-0.00289693
-0.0870041
0.0108917
-0.235018
0.0847357
0.150282
-0.00343248
-0.162845
-0.147355
0.310197
0.00354995
-0.137064
-0.0194211
0.0393563
0.0805354
0.1802
-0.0237521
0.213237
-0.108793
0.115591
0.129639
-0.447469
-0.174774
-0.013874
0.0131677
0.000706292
0.00372208
-0.0096043
-0.00540234
-0.0148235
-0.00907231
-0.000699354
0.00977167
-0.0389914
0.00737261
-0.0155156
0.00814295
0.00178424
0.148247
-0.0252122
-0.123035
0.577534
-0.309158
-0.268379
0.0438178
-0.0903504
0.145181
-0.394544
-0.376025
0.0826042
0.0159812
-0.137135
0.121154
0.00372441
-0.00181849
-0.00190592
-0.0587847
-0.187875
0.246659
0.207166
-0.227607
0.0204406
-0.140328
0.0990843
0.0412434
-0.148468
0.00951842
0.13895
0.396067
-0.179185
-0.216882
-0.023859
-0.0180632
0.0419221
0.460695
-0.289204
-0.171495
0.0128842
-0.00865641
-0.00422783
0.0877089
0.000348557
0.164055
0.285986
-0.300974
0.207791
0.093182
0.101055
-0.10743
0.00637514
0.0161489
-0.234942
0.0598647
-0.0698966
0.0100319
-0.0363568
0.0801746
-0.145152
0.359128
-0.213987
-0.00602398
0.00515828
0.000865703
-0.00947412
0.108461
0.108704
-0.104366
-0.00433802
-0.0511177
-0.183901
-0.0134575
-0.0487468
-0.00545533
-0.000198187
0.00565352
-0.339964
0.194805
-0.00756047
-0.0840919
0.0916524
0.369766
-0.180808
-0.188961
0.106169
-0.0559409
0.0675946
-0.0116537
-0.0064867
-0.00154555
0.194091
-0.172717
-0.0213734
0.144267
-0.0178994
0.233731
-0.405618
0.171886
0.119147
-0.121082
0.00193474
0.0119886
-0.00431799
0.00472794
-0.00407455
-0.000653391
-0.259229
0.398122
-0.1389
-0.0169739
0.00980795
0.00716594
-0.352827
0.118692
-0.00968843
0.165414
-0.160916
-0.00449846
0.337621
0.148104
-0.0790068
-0.138102
0.00455644
-0.00469782
0.00014138
0.118385
-0.0580796
-0.00146755
0.206191
-0.264977
-0.171883
0.329271
-0.0134257
0.019929
-0.00650326
0.141499
0.409486
-0.55099
-0.118014
-0.00158166
0.119596
-0.180129
0.245692
-0.0655636
0.182424
-0.166479
-0.0159455
0.190678
-0.0353677
-0.15531
-0.0254862
0.0331226
-0.0076364
0.00782929
-0.00024217
0.0883775
-0.22874
0.140361
0.0157616
-0.0139405
0.0882805
0.18138
-0.269662
-0.000453727
0.13023
-0.129776
-0.0182719
-0.00814697
0.00538094
-0.00627682
0.285116
-0.316122
0.0310031
0.140659
-0.0060339
0.0912258
-0.00487579
0.000177977
0.0124992
-0.0886387
0.0761394
-0.0173775
0.136525
0.0899966
-0.0212423
0.186543
-0.021129
-0.0758905
0.158827
-0.00152041
0.00412477
0.0349593
-0.00451818
-0.0304411
-0.0562653
0.123464
-0.0671985
0.00953365
0.00335059
-0.0824326
0.0940394
-0.0116068
0.00545738
0.0220169
-0.0274743
0.311318
-0.211473
-0.0998469
0.0812884
0.0117806
0.0751801
-0.0929488
0.516682
-0.242844
-0.273844
0.0138405
0.00139886
0.0251134
-0.00997927
-0.0151341
0.164318
0.0192195
0.310763
-0.131404
-0.179362
-0.0472346
0.037925
-0.110958
0.126996
-0.0160377
-0.0232745
0.0382936
-0.0150191
-0.264605
0.182329
0.604212
-0.0564803
-0.547748
-0.0944839
0.130351
-0.0358674
-0.131941
-0.0165273
-0.503563
0.335656
0.000598953
0.504613
0.0995835
-0.0978746
0.015442
0.224916
-0.214312
-0.0106049
0.00975605
-0.133198
-0.253139
0.176096
0.208317
0.187749
-0.135319
-0.00247268
0.137792
-0.00748237
-0.00949152
0.173989
-0.1504
-0.0235888
0.000110441
0.0154458
-0.289812
0.48535
-0.195553
-0.420632
0.015278
0.405346
0.00401226
-0.148435
-0.147411
-0.169631
-0.099306
0.126843
-0.0275373
-0.266016
0.177438
0.088577
-0.112854
-0.0451086
0.089507
-0.00821862
0.328644
-0.558353
0.229707
-0.00983549
0.011797
-0.00196151
0.308114
0.360507
-0.108452
0.0995389
0.00891267
0.0120124
0.00374926
-0.0172298
-0.00557512
0.0228049
0.019487
0.0243185
-0.047593
-0.051208
-0.0891198
0.0946659
-0.115384
0.0207176
0.0195381
0.00557526
0.230737
-0.380922
0.150179
-0.0350479
0.0111889
0.133872
-0.153773
0.171493
-0.000522992
-0.00854932
0.00582811
0.0857131
-0.0915412
-0.353204
0.157856
-0.12649
0.0271837
-0.105904
0.309625
-0.0188325
0.0242899
-0.0156424
0.00324296
0.0123995
0.0199289
0.191381
-0.211311
0.0526346
-0.0244501
-0.00832466
0.0327748
0.619468
-0.329523
-0.289948
0.38169
0.237775
0.128932
-0.0119847
-0.0111899
0.00135441
-0.052584
0.065553
-0.012969
-0.219544
0.0347717
0.123107
-0.111461
-0.0116457
0.162025
-0.282323
0.320066
-0.381396
0.0613291
0.0659243
-0.0849809
0.0190566
0.00679891
0.139024
-0.0940986
-0.0449258
0.164363
0.314286
-0.478671
-0.0650034
-0.0654051
0.0911879
0.040593
-0.131781
0.024097
-0.136766
0.112669
-0.266886
0.0873304
0.179555
-0.198677
-0.0272465
-0.129132
0.0181744
-0.176907
0.0824232
-0.127661
0.0842116
0.0126104
0.154731
-0.12664
-0.0602023
-0.120694
0.0644288
-0.0930582
0.0758159
-0.0326695
-0.0777191
0.0260401
-0.0387179
0.0126778
-0.00845096
0.0683156
-0.0761055
0.0182157
0.00273854
0.00107564
-0.00381418
-0.0235477
-0.104257
0.127804
0.0104042
-0.0663451
-0.00196782
0.152131
0.190338
-0.342473
0.105671
-0.181562
-0.121532
0.0888621
-0.0121413
0.18418
-0.172039
0.223535
-0.437819
-0.453138
0.244034
0.209097
0.115077
-0.101193
-0.0138841
0.0014326
0.00873415
-0.207126
0.0534381
-0.004338
0.00215078
0.188431
-0.478259
0.0128569
-0.0654409
-0.0373409
0.098167
-0.0608262
0.0123008
-0.00105232
-0.0892103
-0.0372794
-0.0210107
0.209668
0.101411
0.158717
0.000960166
0.0113406
0.0788357
0.0601887
-0.143655
0.120107
0.00999391
-0.316409
0.331187
-0.0868206
0.101861
-0.0150407
0.00662535
-0.0614816
-0.036393
0.185038
-0.0268106
-0.158228
0.112817
-0.109321
-0.00349567
-0.250082
0.212779
-0.338629
-0.0279416
-0.182851
0.338648
-0.0185825
0.0244412
-0.00760003
-0.0168411
-0.414255
-0.152882
0.0863732
-0.0204489
0.0068827
-0.12353
0.0343195
0.00394664
-0.0030881
-0.000858543
-0.00416881
-0.00581807
-0.0968505
0.0353689
-0.0156769
0.110343
0.167396
-0.147909
0.1402
-0.239173
-0.0543465
0.0257101
0.338705
-0.364434
0.000271353
-0.420911
0.393512
0.148977
-0.131432
-0.0175446
-0.0239194
-0.0892318
0.113151
0.10504
-0.0138519
-0.0106245
0.0847013
-0.243714
0.0101939
0.233519
0.00369439
0.482055
0.11496
0.00724029
-0.00465403
0.00837876
-0.143818
0.135439
0.0377186
0.444334
0.236052
0.243256
-0.479309
-0.014828
0.0221086
-0.00728067
0.0297894
-0.219383
0.0237995
0.0305158
-0.0543153
0.0223175
-0.00277941
0.115963
0.0944907
-0.125531
0.0310401
-0.23546
-0.147873
0.383324
0.00252247
-0.0190784
0.00462463
0.15775
-0.162375
0.0577194
-0.245596
0.0045261
0.339192
0.184852
-0.524045
0.0201836
-0.252781
-0.153801
-0.185954
0.33975
-0.0183229
0.147561
-0.129239
-0.00570143
0.00655947
-0.000858042
0.0269361
-0.193915
0.166979
-0.175848
0.175355
0.000492925
-0.116558
0.00672415
0.00559181
-0.000863871
-0.174587
0.113652
0.0163814
0.136597
-0.152979
0.0267164
-0.00632031
-0.0203961
-0.357923
0.383612
0.0196753
-0.330651
-0.191292
0.521933
0.0465004
0.251746
-0.0763367
-0.01141
0.0877467
-0.0751305
0.117846
-0.0427151
-0.0175715
-0.101549
0.119944
-0.0147814
-0.105163
0.0162294
-0.541294
0.312287
0.229006
0.372706
0.224309
0.120079
-0.120533
0.236971
0.0743446
-0.122842
-0.418453
0.200387
-0.22406
0.023672
0.117445
-0.00602804
-0.111417
-0.398891
0.43631
-0.0374352
0.0944379
-0.109928
0.0154899
0.0257305
-0.0574324
0.048488
0.0089444
0.00188761
0.118057
-0.00240234
-0.000741114
0.00314345
-0.00494478
0.128542
0.479392
0.121131
-0.119924
-0.00120663
-0.519898
0.240361
0.279524
0.138934
0.098946
-0.0154651
0.0415052
0.0259988
-0.00252529
-8.85804e-05
-0.0301979
0.0238776
-0.182564
0.304487
-0.121926
-0.192477
0.212404
0.11941
-0.0792379
-0.0401723
0.22381
-0.21055
-0.0132613
-0.190858
-0.191618
0.382469
-0.0130215
-0.0239259
0.0959684
0.00464084
0.00072262
0.00540847
-0.00613109
-0.0155917
-0.11762
0.042489
-0.345695
0.306222
0.0394728
0.00591656
-0.333049
0.10212
-0.0550558
-0.0470641
-0.0814926
-0.0427618
0.25269
0.486781
0.140612
-0.627394
0.0286492
0.0827088
0.107295
0.000696974
-0.107992
-0.000737134
-0.253085
0.0358448
-0.629564
0.365255
0.264299
-0.00649683
0.0007954
-0.252153
-0.0147329
-0.0165079
-0.160865
0.177373
0.362442
-0.518262
0.00281666
-0.000505438
-0.00231123
-0.480925
0.169563
-0.018079
0.00413854
-0.280065
-0.124613
0.404676
0.0123962
-0.116079
0.181003
-0.156431
-0.0245721
0.132893
-0.0699882
-0.0629051
0.0091893
-0.313532
0.0896589
-0.264646
0.154133
0.110512
0.598873
-0.349439
-0.249455
-0.0192651
-0.0662498
0.0855149
0.0711147
-0.239767
0.168652
-0.0157598
0.0121035
-0.0508358
0.257276
-0.206442
-0.0808583
0.0276442
0.053214
-0.00529058
-0.0088043
0.0140949
0.0156871
-0.176048
0.160361
-0.158674
0.413128
-0.254475
-0.000711276
-0.008093
0.00880427
-0.0395768
-0.0110062
0.050583
0.227287
-0.13891
0.0978665
0.0199791
0.0416873
-0.280861
-0.0116866
0.000566735
0.0111199
0.326625
-0.174498
-0.0644315
-0.0571002
0.473779
-0.22174
-0.252045
0.429435
0.169422
0.05982
-0.0360205
0.0109462
0.292066
0.206814
-0.183017
0.05627
-0.00397582
-0.0029866
0.00696242
-0.0542826
0.065678
-0.0113955
-0.0338993
0.00944921
-0.129093
-0.219703
-0.00181798
0.00455651
0.1126
0.34569
-0.608777
0.209866
-0.228084
0.209357
-0.407787
0.30098
0.290178
-0.550512
0.260331
0.0303851
-0.0102162
-0.0201689
0.0424625
-0.0129324
-0.02953
-0.278277
0.100772
-0.436588
0.536156
0.146481
0.0476095
0.0720609
0.268354
-0.00787933
0.00716805
-0.00310656
-0.000785823
0.0030888
-0.00128054
-0.179732
-0.0849149
-0.0860418
0.252298
0.264378
-0.0286749
-0.16533
0.0706714
-0.108012
-0.141632
0.372362
0.184919
-0.515577
-0.10653
0.0935577
0.0129724
-0.00613938
-0.00950303
0.124118
-0.0296276
-0.0102073
0.15376
-0.0215941
-0.132166
-0.409429
0.215702
0.159285
-0.00784223
-0.151443
0.119279
-0.0214131
0.0142251
-0.0150072
0.000782052
0.156216
-0.173351
0.0630949
0.00846783
-0.0715627
-0.119459
0.0379667
0.0647767
0.430145
0.010308
0.00813111
-0.0184391
-0.00352412
0.0138321
0.00128485
0.0075
-0.00878485
-0.0674958
-0.0523163
0.0647013
-0.012385
-0.0946674
0.179403
0.0583473
0.00566548
-0.0221478
0.0890227
-0.0668749
-0.191905
0.179763
-0.586389
0.369631
-0.0315223
0.0290748
0.00244747
-0.234211
0.22448
0.00972987
-0.47774
0.319044
0.0381449
0.246969
-0.220138
-0.0140739
0.000998171
-0.108308
0.227931
-0.383664
0.155724
0.00638637
0.152899
0.000254982
-0.000996798
-0.12721
-0.116224
0.243433
0.00231386
0.0135567
0.0763768
-0.220407
0.14403
0.00386121
0.10603
-0.109891
-0.00102732
0.00418614
-0.00315882
-0.292421
0.0796622
-0.067163
-0.22195
0.113584
0.108365
0.177906
-0.162219
-0.064791
0.0105084
-0.0192352
-0.103897
-0.00122171
0.105119
0.153923
0.0062243
-0.0102001
-0.159762
0.321755
-0.161996
0.00155377
-0.0115427
0.00998894
-0.0202662
-0.164039
0.00107236
-0.00132503
0.000252668
-0.0149366
0.013956
0.000980551
0.00978344
-0.00822967
0.000591957
0.130816
-0.131408
-0.146895
-0.154098
0.300991
0.11821
-0.300776
-0.328343
0.657286
-0.328946
-0.174312
0.418591
-0.105714
-0.31288
-0.00439738
-0.163867
-0.0105426
0.0198443
-0.15295
0.133106
-0.0561707
-0.118417
0.120411
-0.215079
-0.368399
0.239295
0.00217107
-0.189559
0.187387
-0.176679
0.168065
0.00861304
-0.149512
-0.151463
-0.126921
0.190913
0.0110337
0.00526338
-0.0162971
-0.0152746
-0.0691703
0.0844449
0.0232871
0.168833
-0.19212
-0.140586
-0.00231464
0.142901
-0.0235821
-0.0079402
0.227348
-0.00512556
-0.00247455
-0.56277
0.204826
0.141682
0.00231577
-0.143998
-0.136702
0.207817
-0.189008
0.355564
-0.16656
0.110418
-0.141439
0.0310207
-0.161154
0.425167
-0.146582
0.374503
-0.0593689
0.105138
-0.0948787
0.281115
0.10278
0.0146646
-0.302228
0.154816
-0.0138405
0.00122063
0.0126199
-0.0839357
0.0962827
-0.0123471
0.0108111
-0.0958643
0.0850532
0.0819341
-0.0894946
0.133479
-0.328853
0.19537
-0.000127905
-0.115568
0.108035
0.00753303
0.528296
0.0075003
-0.0200462
-0.207561
0.0013646
-0.00649016
0.210657
-0.20704
-0.00361743
-0.064331
0.0657584
0.0249711
-0.0112419
0.000532944
-0.126853
0.089179
0.0376741
0.122784
0.19251
-0.315297
-0.0326416
-0.0213593
0.0871176
0.0152783
-0.110452
-0.111498
0.325301
0.160034
-0.260457
0.388808
-0.128358
0.0635296
0.096975
0.256747
-0.305118
0.048369
0.000489406
-0.00594473
-0.000194474
0.275364
0.302167
-0.0465317
-0.0607409
-0.106731
0.0275617
0.0791696
-0.30531
0.151503
-0.00726028
0.018294
-0.0109021
-0.00717686
0.107443
-0.0114748
-0.216963
0.166126
0.00791809
0.0252045
0.152989
-0.164616
0.479683
-0.31508
0.00483036
-0.00410774
-0.129779
0.14616
0.377767
-0.262122
-0.115651
0.425198
-0.178473
-0.246731
-0.190373
0.171997
-0.164498
0.139937
0.0245615
0.0109212
-0.0165048
0.00106238
0.00294627
0.0204745
0.134458
-0.154932
0.0194871
-0.00431726
-0.0151698
0.0674579
-0.215499
0.148041
0.162362
0.16131
-0.323674
-0.0862425
0.0415516
0.0446909
-0.234801
-0.218345
-0.0131445
-0.0801319
0.0932763
-0.400869
0.593587
-0.244981
-0.348623
0.128179
0.0813857
-0.209566
-0.0794397
0.00239599
-0.0142646
0.0118686
-0.00956676
-0.00211984
-0.0789281
0.0918815
-0.0129534
0.000250626
-0.00757792
0.00732729
-0.00534226
0.0208137
-0.0154714
0.122553
0.0256943
-0.0889941
-0.210305
-0.149708
-0.152522
0.016667
0.137658
0.502479
0.0365785
-0.539103
0.146686
-0.138308
0.0158313
-0.033248
-0.0506044
-0.11452
0.547902
-0.107624
0.143935
-0.0363115
-0.006043
-0.100944
0.111132
-0.0101875
-0.00608181
-0.00932208
0.12366
-0.0994578
0.437061
-0.167548
0.0893583
-0.0868673
-0.00249101
0.0195519
0.180835
-0.0042661
-0.00691947
0.0251325
-0.298875
-0.3307
0.140543
0.237218
0.4421
-0.275043
-0.167062
0.220097
-0.0356102
0.0968948
-0.092871
-0.0040239
-0.00662159
0.0286385
0.0046401
-0.0194681
0.0578823
0.109514
0.311687
-0.472847
0.0173779
0.0844834
0.229585
0.0914037
0.0145087
-0.0810086
0.00344361
-0.0036418
0.131013
-0.115032
0.00149649
0.00831146
0.00616925
-0.00644307
0.00404073
0.0182565
0.113409
-0.131666
-0.0235812
0.179796
-0.00633651
0.00451853
0.18844
-0.165154
0.0785512
0.0888583
-0.16741
0.089066
0.0303442
-0.0209456
0.336443
-0.142435
-0.19401
0.0513956
0.0142824
0.325583
-0.163223
-0.0315883
-0.01191
0.0434983
0.00235426
-0.376453
-0.186337
0.173798
0.148794
-0.0383758
0.107249
-0.00619391
0.181817
-0.14231
-0.0395075
-0.346771
0.552576
-0.205818
0.0278631
-0.207993
-0.175287
0.212439
-0.0371518
-0.11807
-0.117622
0.235691
0.015105
0.0505575
-0.0656625
0.276223
-0.458772
0.182548
0.00817254
-0.0477493
0.0075838
-0.00629895
0.17683
0.148752
-0.181541
0.157959
-0.0281364
-0.136362
-0.488531
0.245681
0.0260241
-2.52886e-05
-0.00503773
7.03649e-07
0.0132716
0.0032069
-0.0164785
0.206838
0.246751
-0.453596
0.0243133
-0.20908
0.184766
0.0168286
0.175212
-0.192041
-0.223044
-0.0217477
0.244791
-0.0988543
0.0193763
0.079478
0.0261194
0.376998
-0.598628
0.221629
-0.0145324
0.114824
-0.100291
-0.1333
-0.0436071
-0.0644334
0.0175022
0.0469312
0.152328
0.000109777
0.0371231
-0.212411
-0.224054
0.0555922
0.168461
0.0896014
0.119194
-0.014346
-0.104848
0.117922
-0.235084
0.367242
-0.132161
0.00500767
-0.000844868
0.00107914
-0.000234275
-0.0331142
0.0242688
-0.00353711
0.0109097
-0.0423059
0.0107176
0.00274102
0.000277118
0.000795246
0.366468
-0.190378
-0.176093
-0.337854
0.165968
0.183947
0.116901
-0.300852
-0.0155321
-0.0731066
-0.107257
-0.0377964
-0.115908
-0.0141546
0.0135559
0.000598653
-0.319794
0.160029
0.185884
0.339767
-0.525681
0.378911
-0.0154042
-0.0761725
0.304029
0.214286
0.134384
-0.211345
0.0769603
0.0970284
0.0948003
0.065586
-0.0522307
-0.0133553
-0.108492
0.214842
-0.106351
-0.335544
-0.184365
-0.448079
0.260873
-0.139965
0.329968
-0.190006
0.185383
-0.621988
0.123935
-0.111799
-0.0121363
-0.0797639
-0.0190904
-0.0432109
0.121762
-0.0453683
0.00953329
0.035835
-0.203234
0.346438
-0.143207
0.15289
0.00333218
-0.0174573
0.0121667
-0.008361
0.00040323
0.0672843
-0.00187613
-0.0654082
0.0622749
0.0433085
-0.105583
0.0520955
0.0330195
0.428728
-0.126346
0.113939
0.0124069
0.0193645
-0.24342
-0.425363
0.145295
-0.186062
0.198295
-0.0122337
0.00384266
0.11148
-0.283879
0.172398
0.114744
0.00444999
-0.075887
0.0627425
0.298392
-0.195234
-0.304449
0.115436
-0.157938
0.126864
0.0310737
4.433e-05
0.363541
0.209091
-0.572634
0.0264579
0.0391281
-0.124393
0.308336
0.0758519
-0.0913841
0.463404
-0.227352
-0.100447
-0.177832
0.0713236
-0.0623155
-0.0297851
0.0921006
0.0584485
0.22692
0.016974
-0.0833425
0.00431214
0.00421392
-0.0923574
-0.022377
0.0074862
0.0148908
-0.343826
0.104129
0.00106178
0.0131634
-0.0859718
0.063824
-0.396387
0.29919
0.0971938
-0.00534843
-0.0815189
0.022544
-0.104847
0.0761935
0.0286539
-0.224584
-0.194414
-0.114124
0.308533
0.430876
-0.443664
0.0127743
0.309181
0.253499
-0.0444763
-0.209025
-0.138371
0.140606
-0.00223502
-0.112366
-0.0150949
0.127461
-0.186675
0.309456
-0.21877
0.432312
-0.102909
0.0327016
-0.244142
0.42209
-0.177958
-0.0340776
0.0257635
0.00831417
-0.182247
0.0201885
0.000812308
-0.00269558
0.00188327
0.0704426
-0.102072
0.247215
-0.474038
0.22682
0.0145722
0.244621
-0.535016
0.290373
0.189536
-0.0255561
0.111561
-0.129236
0.017675
0.0810375
-0.0137531
0.13185
-0.131258
0.333367
-0.593665
0.260296
0.114451
-0.0256618
-0.0870199
0.0388074
0.0482125
0.109248
-0.105387
0.0241176
-0.104156
0.0800383
0.134769
-0.0994343
-0.0353345
0.106899
-0.130819
-0.0793325
-0.0417498
0.129526
-0.00324209
-0.126283
0.0821772
-0.190669
0.227508
0.191609
0.0631638
-0.00334379
0.00409478
-0.0394787
0.213687
-0.174209