/*--------------------------------*- C++ -*----------------------------------*\
| =========                 |                                                 |
| \\      /  F ield         | OpenFOAM: The Open Source CFD Toolbox           |
|  \\    /   O peration     | Version:  v2012                                 |
|   \\  /    A nd           | Website:  www.openfoam.com                      |
|    \\/     M anipulation  |                                                 |
\*---------------------------------------------------------------------------*/
FoamFile
{
    version     2.0;
    format      ascii;
    class       surfaceVectorField;
    location    "750";
    object      Uf;
}
// * * * * * * * * * * * * * * * * * * * * * * * * * * * * * * * * * * * * * //

dimensions      [0 1 -1 0 0 0 0];


internalField   nonuniform List<vector> 
20580
(
(1.09414 -0.00329675 8.0151e-21)
(1.09288 -0.0039692 5.3891e-20)
(1.09467 -0.00454116 -2.50743e-20)
(1.07009 -0.0223948 -4.87699e-21)
(1.07054 -0.0232955 1.3379e-20)
(1.07169 -0.0223419 7.45515e-21)
(1.06944 -0.0210481 -1.60547e-21)
(1.06824 -0.0220737 3.73223e-21)
(-0.241959 -0.00192442 0)
(-0.214679 -0.00714865 0)
(-0.243295 -0.00357511 0)
(1.0027 -0.000654981 6.25859e-22)
(1.00244 -0.000613573 -4.38332e-22)
(1.00255 -0.000364865 -8.31147e-23)
(1.08042 -0.0328606 -1.17004e-20)
(1.08045 -0.034539 5.88063e-21)
(1.07854 -0.033735 -2.66796e-20)
(1.062 0.0120976 6.64069e-21)
(1.06272 0.013098 -1.1457e-20)
(1.01395 -0.000747427 -3.37199e-22)
(1.01368 -0.000765559 -1.08688e-21)
(1.01308 -0.000471036 3.36564e-21)
(0.349689 0.0207966 -3.32155e-21)
(0.351102 0.020304 -1.23435e-20)
(0.331784 0.0206144 -1.24622e-20)
(0.991597 -0.011348 0)
(0.991934 -0.0107716 -2.61809e-21)
(0.992399 -0.0113337 0)
(1.16799 -0.0644429 1.96165e-21)
(1.1629 -0.0666542 8.22928e-20)
(1.1679 -0.0702136 1.27386e-20)
(1.00213 -0.0101577 -5.19756e-22)
(1.00235 -0.010423 -4.14834e-22)
(1.0022 -0.0105707 6.50135e-22)
(0.982336 -0.0212416 0)
(0.982074 -0.0221081 0)
(0.983228 -0.0217092 4.14796e-21)
(0.215483 0.0233222 -2.71791e-20)
(0.20403 0.0225051 6.55242e-21)
(0.223143 0.024005 -6.40076e-22)
(1.09577 -0.00197477 -8.45932e-21)
(1.09664 -0.00218275 -3.27521e-20)
(1.09577 -0.00278225 1.5447e-20)
(1.15234 -0.000573573 -8.88349e-21)
(1.15411 0.00162465 0)
(1.15459 -0.00223489 1.31521e-20)
(-0.416688 0.0170665 4.66596e-20)
(-0.441516 0.0175858 -4.54367e-20)
(-0.428614 0.0220593 0)
(1.03553 -0.0178889 -5.15677e-21)
(1.03641 -0.0179452 7.30437e-21)
(1.03613 -0.0187153 2.95547e-21)
(1.10165 0.0540466 1.70672e-20)
(1.10493 0.0562797 2.959e-20)
(1.10247 0.0583618 4.85836e-20)
(1.09352 -0.00179327 -1.70965e-20)
(1.09515 -0.00245409 -1.9194e-20)
(1.10124 -0.0052774 -1.36541e-22)
(1.10085 -0.00604511 -1.81836e-22)
(1.10022 -0.00526987 -1.74781e-20)
(1.04856 -0.0868684 1.12933e-20)
(1.04534 -0.0876295 -7.03498e-21)
(1.04649 -0.0840339 9.55586e-22)
(0.651054 -0.310813 8.4676e-20)
(0.492688 -0.241946 7.26656e-20)
(0.349252 -0.178439 1.42323e-20)
(1.00007 -0.000259345 1.0347e-22)
(1.00012 -0.000344172 -2.71691e-24)
(1.00007 -0.000218026 -1.89579e-23)
(1.27158 0.0992847 0)
(1.28543 0.0991829 3.41228e-20)
(1.27762 0.113643 0)
(1.11995 0.018604 -2.38057e-20)
(1.12184 0.0187471 1.50101e-20)
(1.12101 0.0169117 -3.54911e-20)
(1.1148 -0.0367967 2.52063e-20)
(1.10364 -0.0361291 -7.25737e-22)
(1.10402 -0.0354232 -4.66392e-22)
(1.05209 0.0389444 8.75217e-21)
(1.05017 0.0347299 -1.50031e-20)
(1.0623 0.0365963 1.69165e-20)
(0.373951 0.0103867 -1.14748e-20)
(0.353219 0.0118929 1.93764e-20)
(0.350218 0.0118762 -1.72652e-20)
(1.02153 -0.0109894 -3.43067e-21)
(1.0212 -0.011323 3.13698e-21)
(1.02091 -0.0107272 -5.06026e-22)
(-0.139056 0.000845662 -1.34811e-19)
(-0.176713 0.00168605 -2.14998e-20)
(-0.116778 0.0024747 -3.14171e-20)
(1.06267 0.0113793 -1.34282e-21)
(1.06126 0.0114278 6.53228e-21)
(1.09678 -0.00780227 -7.17119e-21)
(1.09767 -0.00868078 2.74963e-20)
(1.09801 -0.00709784 8.40725e-21)
(0.449615 0.0391474 -4.29535e-21)
(0.4456 0.0407198 1.17236e-20)
(0.485347 0.0396729 -2.10003e-20)
(1.12985 -0.0643863 -2.17689e-20)
(1.13022 -0.0609796 -1.26337e-20)
(1.13296 -0.0642599 -1.12798e-20)
(0.358743 0.0111982 0)
(0.382644 0.00999742 1.09786e-20)
(0.36106 0.0104007 0)
(1.00002 -0.000167913 5.34215e-23)
(1.00007 -0.000310311 -5.35485e-23)
(1.38901 -0.0835205 -1.83805e-20)
(1.33607 -0.0790219 7.45979e-21)
(1.32592 -0.0684224 -1.22307e-19)
(0.0401275 0.0953679 -2.28317e-20)
(0.0712449 0.0983783 -6.88765e-20)
(0.12564 0.100997 -7.23607e-20)
(1.00892 -0.0370483 1.14416e-21)
(1.00962 -0.0361355 -1.48196e-22)
(1.01008 -0.0373785 5.6589e-22)
(0.348619 0.0719596 -7.75051e-21)
(0.391447 0.0746006 3.75875e-20)
(0.356758 0.0703069 3.4721e-20)
(0.393682 0.0097202 5.42445e-21)
(0.397177 0.00918381 1.46734e-20)
(-0.369456 0.017558 2.04933e-21)
(-0.37388 0.0169559 -6.68572e-20)
(1.15674 -0.492091 0)
(1.14658 -0.498979 0)
(1.1419 -0.507932 -3.14728e-20)
(0.424886 0.0104415 0)
(0.420937 0.0110998 0)
(0.399388 0.0108696 -1.25577e-20)
(1.01661 -0.0212966 -2.78704e-21)
(1.01592 -0.0213905 2.25655e-21)
(1.01613 -0.0205668 8.22165e-22)
(1.01973 -3.28058e-05 -8.57921e-21)
(1.01946 2.2979e-05 -3.91142e-21)
(1.13263 -0.01099 -2.55503e-21)
(1.13449 -0.0120182 8.59338e-21)
(1.13371 -0.00943832 1.3194e-20)
(1.04953 -0.0540092 0)
(1.04753 -0.0523356 0)
(1.04996 -0.0521426 -3.88485e-21)
(0.982646 -0.0202256 -2.54769e-21)
(0.981245 -0.020531 9.41425e-21)
(-0.157837 0.0430024 -6.26828e-21)
(-0.150063 0.0419815 3.7976e-20)
(-0.188522 0.0341377 4.11848e-20)
(0.974106 -0.0148463 -7.21691e-22)
(0.975341 -0.01493 7.51003e-21)
(0.974641 -0.0160653 1.51504e-20)
(1.15031 -0.00279798 1.69936e-21)
(1.14956 0.000964483 -9.02247e-21)
(1.08394 0.0165322 1.15431e-20)
(1.08539 0.0165131 -2.19292e-20)
(1.08467 0.0178319 -1.2433e-20)
(0.204803 0.0216555 -1.38297e-20)
(0.225989 0.0210788 4.41134e-20)
(0.204796 0.0216018 2.63639e-20)
(1.00846 -0.0379863 -3.89028e-22)
(1.0079 -0.0367086 -3.33263e-22)
(1.09534 -0.00860671 -1.72783e-20)
(1.09596 -0.00679928 -4.11235e-20)
(0.33794 0.0740075 -1.52995e-20)
(0.313761 0.0669404 -1.86103e-20)
(1.06733 -0.0260803 1.3306e-20)
(1.02863 -0.0207576 -6.39179e-21)
(1.02671 -0.0216927 1.56681e-20)
(0.160313 0.0288029 0)
(0.169379 0.0288499 0)
(0.181431 0.0312459 0)
(1.00194 -0.00987737 -4.23986e-22)
(1.00207 -0.00974975 3.55336e-22)
(1.1202 -0.0351524 -5.33094e-21)
(1.11778 -0.0356087 2.89525e-20)
(0.995849 -0.00645444 -3.35685e-21)
(0.995974 -0.00685817 -2.06421e-21)
(0.99548 -0.00685223 -7.55287e-23)
(1.04886 -0.0554827 1.00829e-21)
(1.05112 -0.0550013 0)
(0.896291 -0.487579 -2.18119e-21)
(0.922423 -0.481099 -7.91171e-21)
(0.903679 -0.4633 -4.26605e-22)
(0.868269 -0.49301 3.66506e-21)
(0.88983 -0.519037 -7.68418e-22)
(0.150405 0.0274488 0)
(0.136082 0.0246153 -1.30833e-20)
(0.705783 -0.143489 -2.14157e-20)
(0.699974 -0.160353 4.31271e-20)
(1.02367 -0.0375173 6.24543e-21)
(1.02257 -0.0378187 4.24944e-21)
(1.0229 -0.0365426 -4.23931e-22)
(-0.19361 -0.00847491 -7.08278e-21)
(-0.228375 -0.00295728 -4.29924e-20)
(-0.21648 -0.00460319 4.76541e-20)
(-0.221288 0.0108444 -2.01662e-20)
(-0.262853 0.0136875 1.06825e-19)
(-0.223971 0.010279 8.36082e-20)
(1.10396 -0.0036883 -1.53018e-20)
(1.10454 -0.00402516 1.04341e-20)
(1.10457 -0.00318468 -3.29301e-21)
(0.9966 -0.0270268 3.98455e-21)
(0.99576 -0.0267684 -1.33882e-21)
(0.996013 -0.0278195 3.93515e-22)
(0.173768 0.0289035 3.26201e-21)
(0.14993 0.0254688 -2.04873e-20)
(1.08925 0.0112663 -2.38527e-21)
(1.08822 0.0105541 1.02104e-20)
(1.08946 0.0101302 1.79572e-21)
(1.0277 -0.0723149 -6.05537e-23)
(1.02525 -0.0712893 3.17065e-21)
(1.0272 -0.0695058 2.78751e-22)
(-0.396991 0.0167461 8.36962e-20)
(-0.377843 0.018527 -5.91058e-20)
(1.02159 -0.00562529 3.01739e-21)
(1.02144 -0.00592759 7.02323e-21)
(1.02211 -0.00595403 2.60298e-21)
(1.25758 0.101793 -9.85374e-20)
(1.23758 0.0919156 0)
(1.00696 -0.0184268 3.83155e-22)
(1.00674 -0.0178878 -7.50444e-23)
(1.00642 -0.0182837 -6.04753e-23)
(1.02504 -0.0374973 4.28982e-21)
(1.02438 -0.0389728 1.70976e-21)
(1.27455 -0.00127383 -2.33846e-20)
(1.27045 0.00674999 -1.38048e-19)
(1.28041 0.00377891 -4.48214e-20)
(1.12646 -0.065154 -2.1022e-20)
(1.12923 -0.0684988 -6.88587e-21)
(0.208513 0.0225641 1.69154e-20)
(0.214465 0.0228685 -2.1755e-20)
(0.228938 0.0245678 -3.35184e-20)
(0.176861 0.0283483 6.13995e-22)
(0.193355 0.0311387 3.31932e-20)
(-0.196743 0.00590648 4.68226e-20)
(-0.186322 0.00570982 2.44887e-20)
(-0.143214 0.00216676 1.67396e-20)
(1.05092 -0.0891972 1.8461e-20)
(1.05139 -0.0856077 -4.0384e-21)
(0.186052 0.0199155 1.3743e-20)
(0.162188 0.0209578 7.93053e-20)
(0.192768 0.0196098 1.2304e-20)
(0.992687 -0.0147818 -2.70241e-22)
(0.993201 -0.0151745 1.70393e-21)
(0.993219 -0.0144841 -5.20263e-21)
(-0.11651 -0.00174413 0)
(-0.167608 0.00259533 0)
(0.972074 -0.0149282 -9.42012e-21)
(0.973318 -0.0131511 -8.02391e-22)
(1.06339 0.0106782 -7.61179e-21)
(1.06398 0.0115348 -6.72472e-21)
(-0.261427 0.028701 4.20914e-20)
(-0.256403 0.0263192 -6.57214e-20)
(-0.209818 0.00558378 1.12874e-19)
(-0.242094 0.00720501 6.31986e-20)
(0.0591533 0.0972722 1.21447e-20)
(0.0312118 0.0899861 5.05249e-20)
(0.008867 0.0832928 -3.80569e-20)
(1.14663 -0.467029 2.74826e-20)
(1.13586 -0.446498 1.13145e-21)
(1.12205 -0.461008 4.57952e-20)
(1.01196 -0.0229548 -1.97514e-21)
(1.0113 -0.0230011 -9.77463e-22)
(1.01198 -0.0237388 -5.18728e-22)
(1.14215 -0.0100398 0)
(1.1443 -0.00840143 0)
(1.14186 -0.00735691 0)
(0.00248837 0.0427702 -2.7592e-21)
(0.00874499 0.0412272 -1.65434e-20)
(-0.0160277 0.0343675 1.24874e-21)
(1.25643 -0.151064 8.56609e-21)
(1.26602 -0.149048 4.58621e-20)
(1.26279 -0.159073 5.36149e-20)
(1.14026 -0.011814 2.75735e-20)
(1.1426 -0.0128033 -2.52794e-20)
(0.815955 -0.13911 3.46336e-20)
(0.81333 -0.128564 3.36405e-20)
(0.824771 -0.132276 -2.08754e-20)
(0.82575 -0.172385 5.4511e-21)
(0.822921 -0.160536 0)
(0.812267 -0.169991 2.35418e-20)
(0.991645 -0.0285719 -7.6157e-22)
(0.992698 -0.0287831 -7.43703e-22)
(0.991947 -0.0299015 4.42294e-22)
(1.01927 -0.0205379 -9.29075e-22)
(1.01986 -0.0212341 -3.12826e-22)
(1.01981 -0.0203901 -8.65095e-21)
(1.10856 -0.00857381 -5.52963e-22)
(1.10976 -0.00904625 -3.8388e-20)
(1.10954 -0.00740649 -1.54473e-20)
(1.0187 -0.0197597 -2.08236e-21)
(1.01849 -0.0206905 -2.0163e-21)
(-0.218547 0.00923598 -1.08813e-19)
(-0.174945 0.00635237 -1.12041e-19)
(1.06258 0.00979841 0)
(1.06412 0.00983165 -3.45224e-21)
(1.03473 -0.0178775 4.37404e-21)
(1.03499 -0.0171971 3.7552e-22)
(1.04035 -0.124218 4.08877e-21)
(1.04311 -0.128405 5.5981e-21)
(1.03764 -0.128011 0)
(1.01731 -0.0212933 -1.65163e-21)
(1.01729 -0.0221228 3.42447e-21)
(1.16447 0.0321791 8.64088e-21)
(1.16053 0.0343264 6.35186e-20)
(1.16484 0.0366122 -2.6485e-21)
(1.14404 -0.018632 2.11614e-20)
(1.14099 -0.0190975 -1.79931e-20)
(1.143 -0.0217152 0)
(1.10484 -0.0128266 -1.49107e-20)
(1.10612 -0.0132535 -1.26817e-20)
(1.10485 -0.0142802 2.13028e-20)
(1.08252 0.0165478 6.89692e-21)
(1.08315 0.0154301 7.53604e-21)
(1.01509 -0.00711926 1.90459e-21)
(1.01492 -0.00733974 -3.65303e-21)
(1.01545 -0.00742143 -9.61877e-23)
(1.01426 -0.000645297 -3.24788e-21)
(1.0143 -0.000995677 -1.67764e-21)
(-0.269372 0.00384268 0)
(-0.244293 -0.00155231 3.47796e-20)
(-0.162895 -0.0131677 5.97618e-20)
(-0.149633 -0.0138127 -1.34459e-20)
(1.16509 -0.362301 -4.40462e-20)
(1.15539 -0.37506 -4.52662e-20)
(1.1731 -0.375137 5.24774e-20)
(1.02985 -0.0150367 8.73002e-21)
(1.02888 -0.0149517 5.13563e-21)
(1.0292 -0.0143852 -3.15789e-21)
(1.01804 -0.0377496 -6.83818e-22)
(1.01912 -0.0383189 -3.57277e-21)
(1.0182 -0.0391581 -1.55323e-21)
(0.256735 0.034594 1.31279e-23)
(0.272755 0.0368354 0)
(0.255488 0.0359845 0)
(1.08698 0.0296491 9.39051e-22)
(1.08803 0.0324348 1.52642e-21)
(1.08361 0.031332 -2.00196e-20)
(0.611178 -0.229583 -1.75184e-20)
(0.634541 -0.221689 0)
(0.631673 -0.252102 7.40048e-20)
(1.01271 -0.0230251 0)
(1.01203 -0.0222389 -8.83972e-22)
(1.1534 -0.129886 2.05788e-22)
(1.14965 -0.123827 -1.85826e-22)
(1.14758 -0.130803 1.5639e-20)
(0.374977 0.0469822 0)
(0.347633 0.0464274 -2.11046e-20)
(0.370825 0.0484705 9.37482e-21)
(1.101 -0.00182808 -4.93969e-21)
(1.10137 -0.00154522 -2.37642e-20)
(1.10127 -0.00218171 -3.83128e-20)
(1.0421 -0.0875928 0)
(1.04393 -0.0906214 -8.69511e-21)
(1.09919 -0.055854 -7.51092e-21)
(1.09953 -0.0528275 -3.27764e-20)
(1.0966 -0.0545688 1.22168e-20)
(1.4246 -0.092434 1.39756e-19)
(1.42129 -0.0819054 -5.54876e-20)
(0.459184 0.0373242 9.06491e-21)
(0.423874 0.038765 -3.60955e-20)
(1.17228 -0.0633178 -4.69734e-21)
(1.16784 -0.0604201 2.1101e-21)
(0.0430673 0.096448 0)
(0.000461951 0.092724 0)
(-0.0184678 0.0910349 0)
(0.722873 -0.140896 -5.07608e-20)
(-0.182376 0.00651297 -1.40261e-20)
(-0.222869 0.00851772 -3.34211e-20)
(0.859557 -0.104173 -2.13352e-20)
(0.850061 -0.103554 -2.0601e-20)
(0.854517 -0.0957032 5.12692e-21)
(1.10065 -0.000675247 0)
(1.10008 -0.000534687 0)
(1.10064 -0.000115663 1.36246e-21)
(1.27856 -0.00908902 1.30861e-19)
(1.26799 -0.00570039 4.11255e-20)
(0.978233 -0.0471183 5.45139e-21)
(0.978169 -0.0450541 4.1913e-21)
(0.980016 -0.0456763 -1.53021e-22)
(0.992096 -0.0144252 5.27104e-21)
(0.992067 -0.01525 5.60581e-21)
(0.761883 -0.326303 0)
(0.744756 -0.342156 0)
(0.76952 -0.344764 -9.98464e-21)
(1.18445 0.106219 -6.67459e-20)
(1.20914 0.111885 -4.64703e-20)
(1.20058 0.111518 -6.07876e-20)
(1.01424 -0.0694322 2.45248e-21)
(1.0142 -0.0714706 -2.04136e-21)
(1.01195 -0.0705732 2.26885e-21)
(1.0217 -0.00532226 -4.07707e-21)
(1.02109 -0.00536116 -6.65818e-21)
(-0.225174 0.00589527 1.02967e-19)
(0.294859 0.0167084 1.52887e-20)
(0.300801 0.0177702 -1.38916e-20)
(0.276749 0.0183509 0)
(1.1582 -0.134129 -2.41832e-20)
(1.15894 -0.127413 0)
(1.13853 -0.0110821 -1.68432e-20)
(1.13887 -0.0136135 2.18398e-20)
(1.16846 0.0301869 3.06179e-21)
(1.1638 0.0283884 2.69116e-20)
(1.14701 -0.017902 1.99743e-20)
(1.14466 -0.0156089 -1.15499e-20)
(1.10023 0.0436985 -2.81662e-20)
(1.10334 0.0458174 1.46247e-21)
(1.10338 0.0419953 -2.94577e-20)
(0.974478 -0.0239466 3.96396e-21)
(0.975228 -0.0252796 1.22125e-20)
(0.97346 -0.0254285 0)
(0.984607 -0.0121916 5.17226e-21)
(0.983882 -0.011535 -3.45597e-21)
(0.984915 -0.0113675 0)
(1.00214 -0.00839194 -2.34702e-22)
(1.00206 -0.00858118 9.65292e-23)
(1.0019 -0.00809723 4.43699e-22)
(0.0127405 0.088996 1.09767e-19)
(-0.0249943 0.0838146 7.90044e-20)
(1.09915 -0.00133028 0)
(1.09943 -0.000790034 0)
(1.09871 -0.000921766 -9.95612e-21)
(1.06267 0.000459131 -9.55819e-21)
(1.0634 0.000964955 4.35949e-21)
(1.06373 1.5568e-05 1.56455e-20)
(1.00016 -0.000631229 -3.9135e-22)
(1.00016 -0.000553193 1.06479e-21)
(1.00024 -0.000752772 -2.22326e-22)
(0.355215 0.010166 2.53976e-21)
(0.354061 0.0113626 3.39779e-20)
(0.378435 0.00952912 -1.22958e-20)
(1.10755 -0.00761333 1.32569e-22)
(1.10728 -0.00929882 -5.45538e-22)
(1.13067 -0.00994144 -7.15833e-21)
(1.13096 -0.0124459 1.57624e-20)
(0.225738 0.0230945 0)
(0.205876 0.0223903 0)
(0.397378 0.0188566 1.22284e-21)
(0.377562 0.019644 8.1188e-21)
(0.398916 0.0173525 7.83219e-21)
(0.393527 0.0194402 1.8491e-20)
(0.419241 0.0186119 9.33381e-21)
(-0.168413 0.0423905 -5.08356e-20)
(-0.13675 0.0504475 -5.56098e-20)
(1.04298 -0.120445 4.1146e-21)
(1.03797 -0.120063 7.20418e-21)
(0.966171 0.0905168 0)
(0.982424 0.0936665 0)
(0.908844 0.0950445 -1.63626e-20)
(1.00175 -0.00961169 -6.90597e-22)
(1.00158 -0.00932989 -8.36284e-22)
(1.00167 -0.00918925 -1.52206e-21)
(1.01532 -0.00687525 2.17075e-21)
(1.01477 -0.00675704 6.29875e-21)
(1.11694 -0.00451774 2.90137e-20)
(1.11839 -0.00522984 -1.00849e-20)
(1.11677 -0.00623781 -2.38089e-20)
(1.00151 -0.000496323 5.58516e-23)
(1.00137 -0.000635404 4.10811e-22)
(1.00128 -0.000419387 -6.0479e-23)
(0.0788287 0.10045 6.30585e-20)
(0.119239 0.103107 -9.23692e-22)
(1.08927 -0.0324825 1.42484e-20)
(1.09245 -0.0306196 -2.43822e-20)
(1.09206 -0.0330742 -2.23908e-20)
(1.1269 -0.0187429 7.92519e-21)
(1.12501 -0.0195212 -3.82772e-20)
(1.12688 -0.0208344 -6.73533e-22)
(1.01555 -0.00666538 0)
(1.01586 -0.00698645 -2.03204e-22)
(1.08872 0.0134728 7.5596e-21)
(1.08903 0.0122562 1.44069e-20)
(1.08766 0.012789 2.05724e-20)
(1.12899 -0.0179515 -1.07119e-20)
(1.127 -0.0165729 8.1045e-21)
(1.08533 0.0270179 2.15128e-20)
(1.08882 0.0278853 2.46753e-20)
(1.17367 -0.475695 2.67302e-21)
(1.04512 -0.1165 0)
(1.0426 -0.11264 0)
(1.04693 -0.112594 0)
(1.10072 -0.00117341 -5.16722e-21)
(1.10017 -0.00180551 1.39856e-21)
(-0.402217 0.0169269 -1.66045e-20)
(-0.398312 0.0185531 3.87694e-20)
(0.307802 0.0157363 4.72076e-21)
(0.287455 0.0153853 3.10893e-20)
(1.09881 -0.00931079 3.61215e-22)
(1.09743 -0.0101902 0)
(0.897457 -0.0750616 1.15123e-20)
(0.892861 -0.071152 0)
(0.892094 -0.0781035 -2.26471e-20)
(0.97893 -0.0262075 -2.71051e-21)
(0.978286 -0.0250525 -1.36992e-20)
(0.979768 -0.0249461 -5.61272e-21)
(1.01973 -0.014778 4.96094e-21)
(1.01984 -0.0154081 -6.25913e-22)
(1.02051 -0.0150891 2.13925e-21)
(1.16996 0.101154 0)
(1.16158 0.100398 -3.20225e-20)
(1.09945 -0.00178087 6.36679e-21)
(1.09864 -0.00183569 1.12963e-20)
(0.196251 0.0227423 2.51357e-20)
(0.180169 0.0219827 2.68823e-20)
(1.07993 -0.0309765 1.44555e-21)
(1.08191 -0.0317882 1.16222e-20)
(1.01419 -0.0670936 -6.00532e-22)
(1.0165 -0.0682842 0)
(1.14621 -0.00678395 0)
(1.14849 -0.00482062 1.10273e-20)
(1.14581 -0.00335617 0)
(1.09965 -0.00949889 -1.20292e-22)
(1.09969 -0.00835598 -2.71173e-20)
(1.04577 -0.0104033 5.38985e-22)
(1.04674 -0.0108015 -1.12244e-20)
(1.04584 -0.0112508 -7.18721e-21)
(1.04283 -0.0261682 7.11322e-21)
(1.04155 -0.0261365 -1.05491e-22)
(1.04209 -0.0252309 -6.32975e-21)
(0.707283 -0.174414 6.82326e-20)
(0.728897 -0.177535 -1.24819e-20)
(0.717993 -0.192129 -3.4302e-20)
(1.28279 -0.015861 7.27989e-21)
(1.28613 -0.0239905 2.94177e-20)
(1.27592 -0.0210942 -1.80707e-20)
(0.141995 0.0970171 1.05953e-20)
(0.165258 0.101789 0)
(0.186809 0.102848 9.43191e-21)
(0.314262 0.0788362 -4.03397e-21)
(0.301732 0.0802438 5.48151e-21)
(0.351312 0.0827154 8.2725e-22)
(1.0948 -0.00172366 7.75065e-21)
(1.0957 -0.00109372 -8.88016e-21)
(0.973417 -0.761605 -3.45337e-20)
(0.969479 -0.817276 -4.60525e-20)
(1.02415 -0.81402 -4.83629e-20)
(0.104211 0.0926862 -1.98367e-20)
(0.1255 0.0939898 3.25921e-20)
(0.938527 -0.0265413 1.04256e-20)
(0.9408 -0.0252249 -2.52874e-20)
(0.938038 -0.0235722 -1.02628e-20)
(1.10109 0.00356619 0)
(1.10071 0.0030458 8.48384e-21)
(1.1003 0.00372526 0)
(0.344142 0.0220418 -5.49059e-21)
(0.360553 0.022173 -4.98225e-22)
(0.339249 0.0224062 9.98576e-22)
(1.07576 -0.0397704 0)
(1.07702 -0.0407453 -1.44761e-20)
(1.07497 -0.0412583 0)
(1.15617 0.00410115 0)
(1.15827 0.00593306 0)
(1.15853 0.00205679 1.5766e-20)
(1.01729 -0.037482 -7.31358e-22)
(1.0179 -0.036945 -6.70991e-23)
(1.28828 -0.0106277 7.63692e-20)
(1.00017 -0.00272941 -1.04178e-22)
(1.00024 -0.00317715 -6.63044e-23)
(1.00022 -0.00327711 0)
(1.13075 -0.0568941 1.12932e-20)
(1.13154 -0.0538731 -1.55736e-20)
(1.13402 -0.0575205 1.98043e-20)
(1.03023 -0.0776592 -3.5734e-21)
(1.03266 -0.0778006 -4.01054e-23)
(1.03152 -0.0801296 5.5235e-21)
(0.983185 -0.0192328 -1.19737e-21)
(0.983976 -0.0199332 3.96464e-21)
(1.08284 -0.00104671 -1.36726e-20)
(1.08162 -0.00245311 1.55716e-20)
(1.08113 -0.000323533 -1.26115e-20)
(1.04594 -0.0190485 -1.06458e-20)
(1.04488 -0.0184304 2.11903e-21)
(1.0461 -0.0180097 -5.89451e-21)
(0.181246 -0.582999 8.27549e-21)
(0.136133 -0.630646 -2.15542e-20)
(1.01529 -0.00627877 0)
(1.01585 -0.00645179 6.48046e-21)
(1.09327 -0.000515353 -1.21608e-21)
(1.0931 0.00104984 1.74382e-20)
(1.09452 0.000150289 1.66756e-20)
(0.204452 0.0233037 3.56615e-20)
(0.184769 0.021962 3.51874e-20)
(0.0275283 0.0914003 2.26533e-20)
(0.0119014 0.0927739 -3.05883e-20)
(0.0795177 0.0981373 -4.59603e-20)
(0.904265 -0.0835323 -8.42364e-21)
(0.909468 -0.0815009 -1.18595e-20)
(0.908355 -0.0876493 -1.26348e-20)
(1.10143 0.00413023 2.14247e-20)
(1.10165 0.00334935 0)
(1.00008 -0.00179839 -2.17441e-22)
(1.00004 -0.00134278 -1.22654e-22)
(1.00005 -0.00137067 6.31942e-22)
(0.771598 -0.311263 0)
(0.750806 -0.305977 -4.76731e-20)
(1.00297 -0.0151722 -5.91504e-22)
(1.00294 -0.0146384 -1.46194e-21)
(1.0033 -0.0149713 4.68036e-22)
(1.12721 -0.0572964 -3.36769e-20)
(-0.0268711 -0.0377265 -3.23141e-22)
(-0.0972354 -0.0298739 2.49954e-20)
(-0.0716137 -0.0328623 5.92444e-20)
(0.901042 -0.0800171 1.44928e-21)
(0.902387 -0.0733378 1.30338e-20)
(1.07417 -0.0383925 0)
(1.07637 -0.0378352 1.13512e-20)
(0.996602 -0.00463582 4.65733e-23)
(0.996264 -0.00495855 1.46417e-23)
(0.284609 0.0753183 -1.38114e-20)
(0.321815 0.0759811 -1.05067e-20)
(1.02225 -0.0111733 -3.30097e-21)
(1.02182 -0.0105558 7.39469e-22)
(0.851862 -0.395932 -1.47485e-20)
(1.00036 -0.482233 1.56317e-20)
(0.293537 0.0813495 -1.383e-21)
(0.28242 0.08218 -5.57059e-22)
(0.328929 0.0853033 -1.04269e-20)
(1.24635 -0.152875 2.54362e-21)
(1.24999 -0.143093 -5.50033e-21)
(1.00015 -0.00070464 2.01941e-22)
(1.00009 -0.000505424 -2.17306e-22)
(1.36513 -0.312839 0)
(1.39063 -0.30673 0)
(1.39954 -0.326912 3.18198e-20)
(0.180446 0.0278296 -2.76127e-21)
(0.186246 0.0279474 -1.59884e-20)
(0.200928 0.0311294 -1.48165e-20)
(0.450972 0.00974877 0)
(0.427478 0.00961397 0)
(1.15338 0.00548084 0)
(1.09666 -0.0143402 5.00787e-21)
(1.09694 -0.0157063 2.96947e-20)
(1.09529 -0.0148994 0)
(0.735626 -0.378937 0)
(0.727718 -0.358698 0)
(0.709415 -0.375087 2.59104e-20)
(1.08447 -0.00174082 -8.24805e-22)
(1.08406 0.000180179 -8.11573e-22)
(1.08968 0.0141907 -3.03845e-20)
(1.08828 0.0146726 -1.87672e-20)
(1.14793 -0.432972 3.20774e-21)
(1.12843 -0.430106 1.79043e-22)
(1.06257 -0.127346 7.09843e-22)
(1.05776 -0.128063 -1.02599e-20)
(1.05968 -0.123634 1.38484e-20)
(0.202887 0.0194806 -2.2214e-20)
(0.187237 0.021168 -2.44408e-20)
(0.181775 0.0205553 -8.00619e-21)
(1.10223 0.0195484 -3.37974e-21)
(1.10026 0.0181759 3.51882e-20)
(1.10278 0.0176359 3.76482e-20)
(1.01083 -0.000506423 -2.21126e-21)
(1.01132 -0.00070692 -1.89112e-21)
(1.01086 -0.00110998 1.22813e-21)
(1.07995 -0.0153941 1.23411e-20)
(1.07843 -0.0151233 -3.03646e-21)
(1.07885 -0.0164834 0)
(1.14647 -0.00973392 1.27223e-20)
(0.352414 0.0106114 0)
(0.333124 0.0129353 1.15829e-22)
(0.178721 0.018845 -8.7385e-21)
(0.199469 0.0183124 2.2221e-21)
(0.182494 0.0187426 2.17597e-20)
(1.01911 -0.014454 0)
(1.01969 -0.0142731 4.31353e-21)
(0.592714 -0.244411 -1.41975e-20)
(0.993645 -0.0155109 3.22215e-21)
(0.994121 -0.0158346 -8.05911e-21)
(0.994166 -0.0151966 -5.51764e-21)
(1.09332 -0.0163728 1.02462e-20)
(1.09203 -0.0151538 2.64346e-21)
(1.09369 -0.0146098 -1.0813e-20)
(1.09039 0.03459 4.57776e-21)
(1.09248 0.0374438 -1.99382e-20)
(1.09316 0.0335091 -4.78342e-20)
(1.08103 -0.0158955 1.0447e-20)
(1.08072 -0.0148626 -7.87208e-21)
(1.10679 -0.0070947 6.75958e-22)
(1.10749 -0.0063683 -2.59737e-20)
(1.10375 0.0212372 -3.45157e-20)
(1.1008 0.0214826 -3.2706e-20)
(1.00133 -0.0250337 2.35925e-21)
(1.00204 -0.0256507 -5.86963e-22)
(1.00196 -0.0245491 8.96036e-22)
(0.819296 -0.149102 2.04955e-20)
(0.806943 -0.14567 9.68798e-22)
(1.1254 -0.00754091 -7.31684e-21)
(1.12734 -0.0082615 -1.80964e-20)
(1.12674 -0.0060888 -1.64593e-20)
(1.0484 0.0147876 -1.31215e-20)
(1.04816 0.0190242 2.56836e-20)
(1.04962 0.0164031 -2.49537e-20)
(0.998566 -0.0118357 -1.08954e-21)
(0.998827 -0.0115567 -1.2169e-21)
(0.998583 -0.0113093 5.23079e-21)
(0.983689 -0.0184004 -1.01492e-20)
(0.982337 -0.0185738 -6.96169e-21)
(0.899426 -0.0856477 -1.67084e-20)
(0.408618 0.02478 0)
(0.412588 0.0236558 0)
(0.435495 0.0247529 0)
(-0.302456 0.00901498 1.65983e-20)
(-0.32944 0.0139983 1.17003e-19)
(-0.30806 0.00822234 -1.94942e-20)
(1.1021 -0.00352919 6.92555e-21)
(1.10175 -0.00388445 -1.93195e-20)
(1.10241 -0.00389567 -1.68336e-20)
(1.03072 -0.0151409 7.83713e-21)
(1.03041 -0.0157471 -2.49178e-21)
(1.08427 0.0245494 -7.27293e-21)
(1.0812 0.0259269 -1.58142e-21)
(1.09747 0.0416403 0)
(1.09479 0.0394259 0)
(1.09786 0.0379558 0)
(1.10272 -0.00972749 -6.53049e-21)
(1.10402 -0.0100763 -2.30376e-20)
(1.10372 -0.0088579 -8.6362e-22)
(1.10584 -0.00636683 1.8513e-20)
(1.10574 -0.00775253 -2.04437e-22)
(0.405185 0.0252883 0)
(0.38526 0.023887 -1.27183e-20)
(0.0691376 0.0376157 -1.91779e-21)
(0.0748095 0.0360338 1.34598e-20)
(0.0500142 0.0312421 -5.03829e-20)
(1.08273 -0.0210118 -5.55277e-21)
(1.08307 -0.0222298 -8.59445e-21)
(1.0842 -0.0209764 -3.3836e-21)
(1.09253 -0.00262792 -1.68833e-20)
(1.09348 -0.00270509 -2.97618e-20)
(1.09281 -0.00184314 -2.04677e-20)
(1.32639 -0.130157 -3.65066e-20)
(1.30333 -0.117681 0)
(1.15398 -0.0985908 0)
(1.02149 -0.0192987 -5.74893e-22)
(1.02201 -0.0200901 -6.77812e-21)
(1.02085 -0.0196594 -5.72254e-22)
(1.0022 -0.00814525 -4.2096e-22)
(1.00224 -0.00792085 8.70459e-23)
(1.002 -0.00767539 0)
(1.10172 -0.00945006 0)
(1.10197 -0.0107062 -2.24834e-20)
(1.16036 -0.0882501 -2.35604e-20)
(1.15663 -0.0845532 -2.24984e-21)
(1.15492 -0.0896064 -1.14567e-20)
(1.02296 -0.0112311 -3.92123e-23)
(1.0236 -0.0113391 -3.42037e-22)
(1.02313 -0.0108286 -4.3701e-21)
(1.0003 -0.00314046 4.74945e-22)
(1.00026 -0.00316014 -7.52529e-22)
(1.00018 -0.00268267 -7.46634e-22)
(1.00298 -0.0155258 -7.26866e-22)
(1.0027 -0.0152364 1.31497e-21)
(1.00497 -0.00079802 -1.37921e-21)
(1.00529 -0.000813018 4.26406e-22)
(1.00498 -0.00047889 -1.44495e-21)
(1.09346 -0.0101909 -1.12351e-20)
(1.09472 -0.0103154 -1.03502e-20)
(1.0943 -0.00919 -7.86e-22)
(1.00239 -0.00864875 -4.3471e-22)
(0.347832 0.0213754 9.62945e-21)
(0.36803 0.0210321 1.2274e-20)
(1.10205 -0.00519006 0)
(1.10137 -0.00460566 -4.96585e-21)
(1.01429 -0.0305265 -2.68582e-23)
(1.01352 -0.0305588 1.58808e-21)
(1.01424 -0.0313233 5.22464e-23)
(0.335721 0.0102767 0)
(0.25415 0.034222 -2.76817e-21)
(0.241242 0.0339729 4.85076e-21)
(0.975629 -0.0200314 0)
(0.97627 -0.0212875 -6.14263e-21)
(0.977125 -0.0201624 -7.38271e-21)
(1.09188 -0.00115253 -2.91902e-20)
(-0.0757618 0.0432403 8.16861e-21)
(-0.100453 0.0347353 5.92054e-21)
(-0.0677904 0.0416297 -6.2653e-21)
(0.976499 -0.0484845 -6.01463e-21)
(0.97882 -0.0491069 2.7473e-21)
(0.974705 -0.0187221 6.05267e-21)
(0.973685 -0.0203519 -1.0105e-20)
(1.1028 -0.00527037 0)
(1.10269 -0.00445979 -2.80311e-21)
(0.197202 0.0232302 -2.48228e-20)
(0.196615 0.0245408 1.07564e-20)
(0.215409 0.0246599 2.25719e-20)
(0.40479 0.0373183 1.28607e-20)
(0.303208 0.0371189 1.71281e-19)
(0.381961 0.031731 3.11065e-20)
(1.11226 -0.000119095 0)
(1.11336 0.0011009 1.69863e-20)
(1.11363 -0.000564396 -1.36637e-20)
(1.00301 -0.000627739 2.05351e-21)
(1.00288 -0.000895175 -8.91361e-22)
(0.955883 0.0859255 0)
(1.02133 0.0835263 0)
(1.00182 -0.010049 -1.65291e-22)
(1.11446 0.00216588 1.50863e-20)
(1.11599 0.0018013 6.49512e-21)
(1.11551 0.00361529 7.38813e-22)
(-0.08637 0.043234 1.51509e-21)
(-0.0572556 0.0524261 -9.68588e-23)
(1.04937 0.00721357 -3.18524e-21)
(1.04861 0.0110627 2.71556e-20)
(1.05008 0.00869842 2.44337e-20)
(1.06182 -0.000413754 -2.42835e-20)
(1.06141 0.000556074 -6.25458e-21)
(1.3432 -0.146089 -8.02129e-20)
(1.40129 -0.154382 -1.14485e-19)
(1.40479 -0.0990577 6.36719e-20)
(1.36791 -0.0922674 -1.21169e-20)
(1.3696 -0.1033 4.47419e-20)
(-0.191886 0.0151466 2.73347e-20)
(-0.17914 0.017514 1.08595e-19)
(-0.136309 0.0133683 0)
(1.17218 0.0283218 1.65309e-20)
(1.17194 0.0239445 -1.42449e-20)
(1.1763 0.0262692 -1.52771e-21)
(0.7906 -0.119423 1.80672e-21)
(0.790266 -0.107708 2.69669e-21)
(0.778048 -0.113246 -3.13909e-20)
(0.0865097 0.100856 0)
(0.108638 0.103166 -1.34636e-20)
(0.289797 0.0396927 9.72679e-21)
(0.307026 0.0417848 3.51517e-20)
(0.286712 0.0404002 -5.10331e-21)
(1.0519 0.0400777 -1.2635e-21)
(1.05405 0.0432261 -1.10367e-20)
(1.0441 -0.0262874 5.99536e-21)
(1.0435 -0.0273433 1.05291e-20)
(-0.380516 0.0146346 0)
(-0.350349 0.0118165 1.02556e-19)
(-0.340013 0.0125187 0)
(0.125842 0.0209603 4.21437e-21)
(0.12454 0.0206592 9.97079e-21)
(0.487435 -0.493957 -2.0808e-20)
(0.453708 -0.466907 -1.19124e-20)
(0.455457 -0.516049 -3.21157e-20)
(0.517371 -0.472544 4.58686e-20)
(0.527693 -0.515918 3.64796e-20)
(0.93656 -0.0281696 9.218e-21)
(0.938091 -0.0289656 1.81511e-20)
(1.11662 -0.00129503 3.88184e-20)
(1.11683 -0.00283248 5.22877e-20)
(1.11823 -0.00148858 8.11266e-22)
(0.955288 -0.123884 -1.68865e-21)
(0.958139 -0.118824 -2.91131e-21)
(0.961531 -0.124438 2.38294e-21)
(0.198973 0.0190215 -2.28175e-20)
(0.175367 0.0195423 -1.03736e-20)
(0.800372 -0.167211 5.66258e-21)
(0.797031 -0.154114 -3.74703e-20)
(0.78469 -0.16501 -3.00876e-20)
(1.00892 -0.00167688 4.1167e-21)
(1.00889 -0.00198241 -1.33851e-21)
(1.00924 -0.00184535 1.48366e-21)
(1.01978 -0.000130988 -3.74948e-21)
(1.01963 -9.93424e-05 1.15586e-21)
(1.07381 -0.0720382 1.15671e-20)
(1.07675 -0.0721469 5.4282e-21)
(1.07473 -0.0744964 9.9931e-21)
(-0.23785 0.0119436 -4.83747e-20)
(-0.206453 0.0118032 7.28974e-20)
(0.248126 -0.613105 -4.66384e-20)
(1.02203 -0.0189398 8.79425e-21)
(1.02101 -0.0186393 3.52039e-21)
(-0.0129359 0.0878594 4.10428e-20)
(0.943887 -0.121925 1.58814e-21)
(0.95007 -0.12338 -5.28224e-22)
(0.947214 -0.117432 -3.14148e-22)
(1.09894 -0.0581107 -2.93442e-20)
(1.10153 -0.0563758 1.42406e-20)
(1.06435 0.00144837 0)
(1.06335 0.00180782 -6.9932e-21)
(0.194975 0.0235666 -3.89123e-20)
(0.175927 0.0245012 -5.93558e-20)
(1.08261 0.0217317 2.73451e-21)
(1.08591 0.0225904 7.11658e-21)
(1.15073 -0.00633115 9.45636e-21)
(1.02898 -0.074746 1.31431e-22)
(1.02737 -0.0768617 -8.29408e-22)
(1.07278 -0.0373928 2.7281e-21)
(1.07229 -0.0389269 1.23854e-20)
(0.378061 0.0106263 1.52158e-20)
(0.379159 0.0103911 -2.9685e-21)
(0.357722 0.0115123 -2.58655e-20)
(0.978238 -0.0275519 5.03266e-21)
(0.979755 -0.0273236 1.08714e-20)
(1.09621 0.0454071 1.42509e-20)
(1.08117 -0.0208092 1.40884e-20)
(1.08236 -0.019489 1.46254e-20)
(1.10306 -0.00601281 0)
(1.10367 -0.00506446 1.15062e-20)
(0.94133 -0.127389 1.61996e-21)
(0.937517 -0.120911 -3.22393e-21)
(0.993124 -0.0158577 1.13997e-20)
(1.01542 -0.0306227 9.17118e-22)
(1.01455 -0.0296601 -1.26166e-21)
(1.22411 -0.0210007 -4.96249e-21)
(1.22844 -0.0256143 7.84512e-20)
(1.23119 -0.0171056 0)
(1.27621 -0.147838 9.38859e-20)
(1.26898 -0.13982 -3.03259e-20)
(1.09912 0.0167853 0)
(1.09765 0.0152107 2.26926e-20)
(1.10001 0.0149396 2.27133e-20)
(1.42685 -0.104889 2.49613e-20)
(0.374578 0.0104158 2.77335e-20)
(0.398244 0.00942606 3.48763e-20)
(1.01619 -0.0724034 -3.55736e-21)