/*--------------------------------*- C++ -*----------------------------------*\
| =========                 |                                                 |
| \\      /  F ield         | OpenFOAM: The Open Source CFD Toolbox           |
|  \\    /   O peration     | Version:  v2012                                 |
|   \\  /    A nd           | Website:  www.openfoam.com                      |
|    \\/     M anipulation  |                                                 |
\*---------------------------------------------------------------------------*/
FoamFile
{
    version     2.0;
    format      ascii;
    class       volVectorField;
    location    "600";
    object      cellDisplacement;
}
// * * * * * * * * * * * * * * * * * * * * * * * * * * * * * * * * * * * * * //

dimensions      [0 1 0 0 0 0 0];


internalField   nonuniform List<vector> 
13917
(
(0 -6.02727e-05 0)
(0 -0.000196538 0)
(0 -4.41805e-05 0)
(0 -0.000139351 0)
(0 -0.000204008 0)
(0 -4.42523e-05 0)
(0 -4.41557e-05 0)
(0 -4.41862e-05 0)
(0 -4.41734e-05 0)
(0 -5.10049e-05 0)
(0 -4.58976e-05 0)
(0 -5.14246e-05 0)
(0 -0.000133371 0)
(0 -4.40786e-05 0)
(0 -7.73808e-05 0)
(0 -8.66563e-05 0)
(0 -0.000175385 0)
(0 -5.31602e-05 0)
(0 -5.1812e-05 0)
(0 -0.000267525 0)
(0 -5.79187e-05 0)
(0 -4.41468e-05 0)
(0 -0.000298834 0)
(0 -4.4207e-05 0)
(0 -0.000240331 0)
(0 -4.4152e-05 0)
(0 -4.77356e-05 0)
(0 -4.61337e-05 0)
(0 -4.44659e-05 0)
(0 -4.77933e-05 0)
(0 -5.89041e-05 0)
(0 -8.19359e-05 0)
(0 -5.09788e-05 0)
(0 -6.95773e-05 0)
(0 -0.000223817 0)
(0 -4.46846e-05 0)
(0 -0.000289178 0)
(0 -4.4087e-05 0)
(0 -0.000102931 0)
(0 -4.40837e-05 0)
(0 -0.000115637 0)
(0 -2.87914e-05 0)
(0 -0.000431324 0)
(0 -4.52109e-05 0)
(0 -0.00024258 0)
(0 -6.27531e-05 0)
(0 -5.35915e-05 0)
(0 -5.07174e-05 0)
(0 -4.40872e-05 0)
(0 -0.000126692 0)
(0 -9.17132e-05 0)
(0 -0.000124545 0)
(0 -4.40822e-05 0)
(0 -6.75669e-05 0)
(0 -0.000170392 0)
(0 -8.90339e-05 0)
(0 -4.60464e-05 0)
(0 -0.000199603 0)
(0 -0.000106795 0)
(0 -0.000249949 0)
(0 -4.42612e-05 0)
(0 -0.000196384 0)
(0 -4.40785e-05 0)
(0 -0.00027624 0)
(0 -4.42821e-05 0)
(0 -4.42277e-05 0)
(0 -0.000193356 0)
(0 -0.000184345 0)
(0 -4.5941e-05 0)
(0 -6.25416e-05 0)
(0 -0.000206007 0)
(0 -4.41891e-05 0)
(0 -4.40842e-05 0)
(0 -0.000247085 0)
(0 -4.40947e-05 0)
(0 -4.97657e-05 0)
(0 -4.40801e-05 0)
(0 -0.000170543 0)
(0 -4.41601e-05 0)
(0 -9.0381e-05 0)
(0 -0.000108734 0)
(0 -0.000192093 0)
(0 -4.43127e-05 0)
(0 -4.40905e-05 0)
(0 -4.41764e-05 0)
(0 -0.000177292 0)
(0 -0.000179586 0)
(0 -4.42486e-05 0)
(0 -9.45464e-05 0)
(0 -0.000434627 0)
(0 -4.40871e-05 0)
(0 -4.8709e-05 0)
(0 -0.00030135 0)
(0 -0.000103871 0)
(0 -4.42317e-05 0)
(0 -4.42963e-05 0)
(0 -4.70403e-05 0)
(0 -5.14746e-05 0)
(0 -4.64857e-05 0)
(0 -4.4771e-05 0)
(0 -0.000448728 0)
(0 -5.22003e-05 0)
(0 -4.51765e-05 0)
(0 -0.000151138 0)
(0 -0.000405938 0)
(0 -4.41959e-05 0)
(0 -4.45371e-05 0)
(0 -5.02001e-05 0)
(0 -0.000174941 0)
(0 -5.71067e-05 0)
(0 -4.40973e-05 0)
(0 -4.40913e-05 0)
(0 -4.88285e-05 0)
(0 -4.41834e-05 0)
(0 -9.83799e-05 0)
(0 -4.41028e-05 0)
(0 -0.000328139 0)
(0 -4.41254e-05 0)
(0 -4.40805e-05 0)
(0 -6.86043e-05 0)
(0 -4.76986e-05 0)
(0 -4.60626e-05 0)
(0 -4.40929e-05 0)
(0 -4.63942e-05 0)
(0 -0.000104852 0)
(0 -0.000107249 0)
(0 -0.000245674 0)
(0 -8.76118e-05 0)
(0 -0.000369761 0)
(0 -4.42609e-05 0)
(0 -4.4089e-05 0)
(0 -0.000101269 0)
(0 -0.00023593 0)
(0 -5.0248e-05 0)
(0 -4.45742e-05 0)
(0 -4.42142e-05 0)
(0 -5.99387e-05 0)
(0 -4.46825e-05 0)
(0 -0.000192961 0)
(0 -6.89382e-05 0)
(0 -4.48215e-05 0)
(0 -0.000380298 0)
(0 -0.000112856 0)
(0 -4.49366e-05 0)
(0 -0.000181391 0)
(0 -4.42547e-05 0)
(0 -4.4443e-05 0)
(0 -0.000128936 0)
(0 -0.000398131 0)
(0 -7.84079e-05 0)
(0 -5.33887e-05 0)
(0 -4.41201e-05 0)
(0 -4.8846e-05 0)
(0 -5.53565e-05 0)
(0 -8.66632e-05 0)
(0 -4.41103e-05 0)
(0 -6.3896e-05 0)
(0 -4.45685e-05 0)
(0 -4.40794e-05 0)
(0 -4.45678e-05 0)
(0 -8.34318e-05 0)
(0 -4.80311e-05 0)
(0 -8.11591e-05 0)
(0 -4.72346e-05 0)
(0 -4.91447e-05 0)
(0 -4.66571e-05 0)
(0 -0.000153328 0)
(0 -5.26427e-05 0)
(0 -0.0002877 0)
(0 -5.14114e-05 0)
(0 -5.64766e-05 0)
(0 -4.40807e-05 0)
(0 -4.83364e-05 0)
(0 -0.000147273 0)
(0 -4.43134e-05 0)
(0 -5.19269e-05 0)
(0 -4.40913e-05 0)
(0 -4.41059e-05 0)
(0 -4.42762e-05 0)
(0 -0.000282047 0)
(0 -4.83893e-05 0)
(0 -5.78876e-05 0)
(0 -0.000381545 0)
(0 -0.000186914 0)
(0 -6.18481e-05 0)
(0 -4.41727e-05 0)
(0 -4.52723e-05 0)
(0 -4.41209e-05 0)
(0 -6.32742e-05 0)
(0 -4.67201e-05 0)
(0 -4.4786e-05 0)
(0 -4.41829e-05 0)
(0 -4.53544e-05 0)
(0 -0.000261818 0)
(0 -4.46516e-05 0)
(0 -4.82959e-05 0)
(0 -4.88751e-05 0)
(0 -0.000294777 0)
(0 -4.47093e-05 0)
(0 -4.4246e-05 0)
(0 -9.64547e-05 0)
(0 -0.000122018 0)
(0 -5.39173e-05 0)
(0 -5.38186e-05 0)
(0 -4.40828e-05 0)
(0 -4.46775e-05 0)
(0 -0.000226108 0)
(0 -0.000191471 0)
(0 -5.18142e-05 0)
(0 -4.41879e-05 0)
(0 -0.00011652 0)
(0 -4.41501e-05 0)
(0 -4.40821e-05 0)
(0 -4.68398e-05 0)
(0 -0.00040432 0)
(0 -4.44668e-05 0)
(0 -5.3433e-05 0)
(0 -4.41065e-05 0)
(0 -0.000313932 0)
(0 -4.43006e-05 0)
(0 -0.000289533 0)
(0 -4.82333e-05 0)
(0 -0.000136024 0)
(0 -4.40971e-05 0)
(0 -4.41919e-05 0)
(0 -8.40742e-05 0)
(0 -4.43176e-05 0)
(0 -8.43993e-05 0)
(0 -0.000410999 0)
(0 -4.47335e-05 0)
(0 -4.85944e-05 0)
(0 -6.38931e-05 0)
(0 -4.42146e-05 0)
(0 -4.40813e-05 0)
(0 -0.000376724 0)
(0 -7.96731e-05 0)
(0 -4.40908e-05 0)
(0 -4.41693e-05 0)
(0 -8.99584e-05 0)
(0 -0.000392893 0)
(0 -4.40874e-05 0)
(0 -4.65931e-05 0)
(0 -2.88698e-05 0)
(0 -4.49362e-05 0)
(0 -4.80845e-05 0)
(0 -4.84821e-05 0)
(0 -6.32703e-05 0)
(0 -8.5565e-05 0)
(0 -5.08949e-05 0)
(0 -4.40808e-05 0)
(0 -0.000303761 0)
(0 -4.72137e-05 0)
(0 -4.46275e-05 0)
(0 -0.000251945 0)
(0 -0.000203681 0)
(0 -5.08573e-05 0)
(0 -4.4095e-05 0)
(0 -4.92331e-05 0)
(0 -6.06575e-05 0)
(0 -7.70226e-05 0)
(0 -4.67701e-05 0)
(0 -4.40935e-05 0)
(0 -4.42601e-05 0)
(0 -4.4852e-05 0)
(0 -0.000409824 0)
(0 -4.40824e-05 0)
(0 -4.40862e-05 0)
(0 -4.45024e-05 0)
(0 -4.41528e-05 0)
(0 -4.93476e-05 0)
(0 -0.000103709 0)
(0 -0.000119712 0)
(0 -5.35187e-05 0)
(0 -4.41058e-05 0)
(0 -4.72846e-05 0)
(0 -0.00011089 0)
(0 -4.46173e-05 0)
(0 -5.82143e-05 0)
(0 -0.000302345 0)
(0 -4.43328e-05 0)
(0 -0.000289396 0)
(0 -4.42929e-05 0)
(0 -0.000100803 0)
(0 -2.99322e-05 0)
(0 -7.5146e-05 0)
(0 -5.45535e-05 0)
(0 -4.79701e-05 0)
(0 -4.48677e-05 0)
(0 -6.16641e-05 0)
(0 -0.000279654 0)
(0 -4.4821e-05 0)
(0 -4.42192e-05 0)
(0 -4.42298e-05 0)
(0 -0.000316643 0)
(0 -4.44697e-05 0)
(0 -0.000166726 0)
(0 -0.000280763 0)
(0 -0.000330152 0)
(0 -4.44069e-05 0)
(0 -0.000135977 0)
(0 -4.78585e-05 0)
(0 -6.4497e-05 0)
(0 -0.000296806 0)
(0 -5.3463e-05 0)
(0 -0.000138138 0)
(0 -4.40887e-05 0)
(0 -5.2783e-05 0)
(0 -4.92362e-05 0)
(0 -0.000346872 0)
(0 -0.000211394 0)
(0 -4.40893e-05 0)
(0 -4.40863e-05 0)
(0 -0.00032742 0)
(0 -0.0001343 0)
(0 -4.43551e-05 0)
(0 -0.000303082 0)
(0 -4.40858e-05 0)
(0 -0.000354015 0)
(0 -4.41002e-05 0)
(0 -0.000214403 0)
(0 -4.48499e-05 0)
(0 -6.91333e-05 0)
(0 -4.41215e-05 0)
(0 -8.61558e-05 0)
(0 -4.46211e-05 0)
(0 -4.44852e-05 0)
(0 -7.70017e-05 0)
(0 -4.66376e-05 0)
(0 -4.4489e-05 0)
(0 -0.000156035 0)
(0 -4.40886e-05 0)
(0 -4.46948e-05 0)
(0 -4.40868e-05 0)
(0 -7.63142e-05 0)
(0 -4.40844e-05 0)
(0 -7.72498e-05 0)
(0 -4.41015e-05 0)
(0 -4.45238e-05 0)
(0 -4.54044e-05 0)
(0 -4.55437e-05 0)
(0 -4.41596e-05 0)
(0 -0.000121291 0)
(0 -5.56541e-05 0)
(0 -4.40989e-05 0)
(0 -0.000150108 0)
(0 -0.000109522 0)
(0 -4.40794e-05 0)
(0 -4.46184e-05 0)
(0 -0.00015844 0)
(0 -4.48808e-05 0)
(0 -4.44901e-05 0)
(0 -0.000416956 0)
(0 -4.40792e-05 0)
(0 -4.47408e-05 0)
(0 -0.00029738 0)
(0 -0.000394458 0)
(0 -0.000162641 0)
(0 -0.000399769 0)
(0 -4.48817e-05 0)
(0 -4.42921e-05 0)
(0 -4.4445e-05 0)
(0 -4.40923e-05 0)
(0 -0.000281306 0)
(0 -4.68908e-05 0)
(0 -4.40804e-05 0)
(0 -5.85722e-05 0)
(0 -4.41432e-05 0)
(0 -4.41058e-05 0)
(0 -4.41811e-05 0)
(0 -0.000464445 0)
(0 -4.49377e-05 0)
(0 -0.000405474 0)
(0 -4.43321e-05 0)
(0 -0.000250444 0)
(0 -4.4129e-05 0)
(0 -4.79269e-05 0)
(0 -0.000116813 0)
(0 -0.000146795 0)
(0 -5.24003e-05 0)
(0 -4.79728e-05 0)
(0 -4.96531e-05 0)
(0 -4.44785e-05 0)
(0 -4.40945e-05 0)
(0 -4.41105e-05 0)
(0 -5.02508e-05 0)
(0 -5.17219e-05 0)
(0 -0.000394965 0)
(0 -4.4173e-05 0)
(0 -4.41428e-05 0)
(0 -0.000200963 0)
(0 -4.46968e-05 0)
(0 -0.000255386 0)
(0 -4.50483e-05 0)
(0 -0.000218431 0)
(0 -0.000108603 0)
(0 -0.000136105 0)
(0 -4.41448e-05 0)
(0 -0.000136448 0)
(0 -4.40957e-05 0)
(0 -4.40992e-05 0)
(0 -4.62205e-05 0)
(0 -4.44016e-05 0)
(0 -0.000161355 0)
(0 -4.44684e-05 0)
(0 -4.44375e-05 0)
(0 -0.000329677 0)
(0 -4.46016e-05 0)
(0 -0.000155002 0)
(0 -0.000243466 0)
(0 -4.79044e-05 0)
(0 -6.62109e-05 0)
(0 -0.000231645 0)
(0 -0.000409537 0)
(0 -4.49895e-05 0)
(0 -7.76912e-05 0)
(0 -4.40845e-05 0)
(0 -4.41996e-05 0)
(0 -4.4086e-05 0)
(0 -4.54051e-05 0)
(0 -4.41229e-05 0)
(0 -4.40854e-05 0)
(0 -5.95044e-05 0)
(0 -0.000290836 0)
(0 -4.59839e-05 0)
(0 -0.000106288 0)
(0 -7.4755e-05 0)
(0 -0.000271368 0)
(0 -4.42651e-05 0)
(0 -4.41654e-05 0)
(0 -4.42278e-05 0)
(0 -8.46146e-05 0)
(0 -4.74686e-05 0)
(0 -7.85426e-05 0)
(0 -9.91626e-05 0)
(0 -4.99156e-05 0)
(0 -0.000135854 0)
(0 -4.49001e-05 0)
(0 -0.000180004 0)
(0 -0.000160132 0)
(0 -4.40888e-05 0)
(0 -4.40895e-05 0)
(0 -4.40923e-05 0)
(0 -4.66532e-05 0)
(0 -4.40851e-05 0)
(0 -4.40912e-05 0)
(0 -4.40993e-05 0)
(0 -4.40895e-05 0)
(0 -0.000375093 0)
(0 -5.24816e-05 0)
(0 -0.000137796 0)
(0 -0.000179639 0)
(0 -4.47264e-05 0)
(0 -5.31468e-05 0)
(0 -0.000133942 0)
(0 -5.15526e-05 0)
(0 -6.05391e-05 0)
(0 -4.41065e-05 0)
(0 -0.000334149 0)
(0 -4.73699e-05 0)
(0 -4.41132e-05 0)
(0 -4.46055e-05 0)
(0 -4.40879e-05 0)
(0 -7.25907e-05 0)
(0 -0.000194684 0)
(0 -8.83991e-05 0)
(0 -6.39556e-05 0)
(0 -0.000461041 0)
(0 -4.4197e-05 0)
(0 -4.44316e-05 0)
(0 -6.34482e-05 0)
(0 -4.41528e-05 0)
(0 -9.0277e-05 0)
(0 -4.71221e-05 0)
(0 -4.41043e-05 0)
(0 -4.44573e-05 0)
(0 -4.6336e-05 0)
(0 -4.47607e-05 0)
(0 -4.71921e-05 0)
(0 -5.18579e-05 0)
(0 -4.61588e-05 0)
(0 -5.94362e-05 0)
(0 -4.58206e-05 0)
(0 -4.42733e-05 0)
(0 -5.63902e-05 0)
(0 -4.94024e-05 0)
(0 -0.000174248 0)
(0 -4.46442e-05 0)
(0 -8.79422e-05 0)
(0 -0.000405318 0)
(0 -6.53496e-05 0)
(0 -0.000162969 0)
(0 -4.41016e-05 0)
(0 -4.41907e-05 0)
(0 -0.000309064 0)
(0 -0.000257977 0)
(0 -4.42172e-05 0)
(0 -4.40808e-05 0)
(0 -5.36532e-05 0)
(0 -4.40878e-05 0)
(0 -0.000180729 0)
(0 -4.57262e-05 0)
(0 -0.000291809 0)
(0 -4.408e-05 0)
(0 -4.46125e-05 0)
(0 -7.89479e-05 0)
(0 -0.000195434 0)
(0 -4.41245e-05 0)
(0 -4.54407e-05 0)
(0 -4.40883e-05 0)
(0 -5.83546e-05 0)
(0 -4.40818e-05 0)
(0 -4.40979e-05 0)
(0 -4.43393e-05 0)
(0 -0.000402062 0)
(0 -4.41748e-05 0)
(0 -4.41673e-05 0)
(0 -5.87584e-05 0)
(0 -0.000398015 0)
(0 -0.000167558 0)
(0 -4.97074e-05 0)
(0 -4.49298e-05 0)
(0 -0.000162083 0)
(0 -0.000395948 0)
(0 -0.000269349 0)
(0 -0.000278491 0)
(0 -4.40805e-05 0)
(0 -4.4747e-05 0)
(0 -5.95922e-05 0)
(0 -4.52833e-05 0)
(0 -8.98193e-05 0)
(0 -0.000441437 0)
(0 -4.76773e-05 0)
(0 -4.41327e-05 0)
(0 -6.77572e-05 0)
(0 -0.0002806 0)
(0 -0.000242938 0)
(0 -0.000196651 0)
(0 -4.43206e-05 0)
(0 -4.41875e-05 0)
(0 -0.000202224 0)
(0 -0.000202983 0)
(0 -4.49616e-05 0)
(0 -6.00138e-05 0)
(0 -6.93004e-05 0)
(0 -0.000195487 0)
(0 -0.00013313 0)
(0 -8.4065e-05 0)
(0 -4.96231e-05 0)
(0 -4.45626e-05 0)
(0 -4.51969e-05 0)
(0 -4.58818e-05 0)
(0 -4.80741e-05 0)
(0 -4.46494e-05 0)
(0 -4.94489e-05 0)
(0 -0.000315013 0)
(0 -4.40809e-05 0)
(0 -0.000197533 0)
(0 -0.000105008 0)
(0 -0.000125362 0)
(0 -4.46612e-05 0)
(0 -4.67764e-05 0)
(0 -0.000178312 0)
(0 -4.46641e-05 0)
(0 -4.72274e-05 0)
(0 -4.41465e-05 0)
(0 -4.80766e-05 0)
(0 -5.24149e-05 0)
(0 -5.92032e-05 0)
(0 -0.000160214 0)
(0 -4.42102e-05 0)
(0 -4.47953e-05 0)
(0 -4.41195e-05 0)
(0 -0.000186299 0)
(0 -7.66568e-05 0)
(0 -4.51912e-05 0)
(0 -4.41051e-05 0)
(0 -4.40785e-05 0)
(0 -5.0903e-05 0)
(0 -4.63635e-05 0)
(0 -8.68549e-05 0)
(0 -0.000116489 0)
(0 -0.000189127 0)
(0 -4.73484e-05 0)
(0 -4.50299e-05 0)
(0 -0.000139046 0)
(0 -5.38259e-05 0)
(0 -4.4626e-05 0)
(0 -4.41238e-05 0)
(0 -4.41039e-05 0)
(0 -0.000112423 0)
(0 -4.72845e-05 0)
(0 -4.46778e-05 0)
(0 -7.21836e-05 0)
(0 -0.000120812 0)
(0 -4.44809e-05 0)
(0 -4.42671e-05 0)
(0 -4.42356e-05 0)
(0 -4.53161e-05 0)
(0 -0.000392422 0)
(0 -4.40796e-05 0)
(0 -4.99737e-05 0)
(0 -0.000134701 0)
(0 -7.05126e-05 0)
(0 -4.99071e-05 0)
(0 -5.19043e-05 0)
(0 -4.80336e-05 0)
(0 -4.41554e-05 0)
(0 -4.63278e-05 0)
(0 -6.26485e-05 0)
(0 -4.42117e-05 0)
(0 -0.00014907 0)
(0 -4.40827e-05 0)
(0 -8.42922e-05 0)
(0 -0.000209687 0)
(0 -4.4446e-05 0)
(0 -4.42534e-05 0)
(0 -4.43176e-05 0)
(0 -0.000148717 0)
(0 -0.000152592 0)
(0 -0.00020794 0)
(0 -5.78823e-05 0)
(0 -4.4084e-05 0)
(0 -4.69017e-05 0)
(0 -0.000112617 0)
(0 -4.65813e-05 0)
(0 -5.27585e-05 0)
(0 -0.000283857 0)
(0 -4.43287e-05 0)
(0 -4.70496e-05 0)
(0 -4.49128e-05 0)
(0 -0.000317218 0)
(0 -4.64589e-05 0)
(0 -0.0001645 0)
(0 -4.41089e-05 0)
(0 -5.06946e-05 0)
(0 -4.70342e-05 0)
(0 -7.51767e-05 0)
(0 -0.000300194 0)
(0 -0.000424468 0)
(0 -0.000238445 0)
(0 -4.558e-05 0)
(0 -6.21754e-05 0)
(0 -4.50701e-05 0)
(0 -4.44799e-05 0)
(0 -5.30088e-05 0)
(0 -0.000410831 0)
(0 -4.62759e-05 0)
(0 -4.43291e-05 0)
(0 -4.46344e-05 0)
(0 -0.000312603 0)
(0 -6.50796e-05 0)
(0 -0.000390557 0)
(0 -7.71453e-05 0)
(0 -0.000103059 0)
(0 -4.41615e-05 0)
(0 -0.000100686 0)
(0 -4.42595e-05 0)
(0 -7.95756e-05 0)
(0 -4.58928e-05 0)
(0 -4.86493e-05 0)
(0 -4.40827e-05 0)
(0 -4.71878e-05 0)
(0 -0.000173097 0)
(0 -4.4096e-05 0)
(0 -4.40785e-05 0)
(0 -0.000217447 0)
(0 -0.000127853 0)
(0 -4.46193e-05 0)
(0 -4.54828e-05 0)
(0 -4.74704e-05 0)
(0 -7.96299e-05 0)
(0 -0.000192839 0)
(0 -4.50028e-05 0)
(0 -0.000112473 0)
(0 -4.98657e-05 0)
(0 -5.14861e-05 0)
(0 -0.000415554 0)
(0 -5.38871e-05 0)
(0 -4.41843e-05 0)
(0 -0.000311854 0)
(0 -0.000167065 0)
(0 -0.000281223 0)
(0 -4.40923e-05 0)
(0 -6.42463e-05 0)
(0 -8.77266e-05 0)
(0 -4.40801e-05 0)
(0 -0.000109599 0)
(0 -4.42747e-05 0)
(0 -8.57879e-05 0)
(0 -5.0214e-05 0)
(0 -0.000288571 0)
(0 -5.07526e-05 0)
(0 -0.00032644 0)
(0 -5.2241e-05 0)
(0 -0.0002104 0)
(0 -4.74996e-05 0)
(0 -0.000183696 0)
(0 -4.41301e-05 0)
(0 -4.44864e-05 0)
(0 -4.41323e-05 0)
(0 -8.30872e-05 0)
(0 -0.00013576 0)
(0 -5.00568e-05 0)
(0 -5.58563e-05 0)
(0 -4.40844e-05 0)
(0 -4.41498e-05 0)
(0 -5.33413e-05 0)
(0 -0.000233135 0)
(0 -4.50688e-05 0)
(0 -4.42738e-05 0)
(0 -4.49718e-05 0)
(0 -4.51941e-05 0)
(0 -5.42839e-05 0)
(0 -4.41681e-05 0)
(0 -6.04895e-05 0)
(0 -5.8953e-05 0)
(0 -4.63167e-05 0)
(0 -4.47881e-05 0)
(0 -5.39845e-05 0)
(0 -4.42803e-05 0)
(0 -5.43935e-05 0)
(0 -0.000145182 0)
(0 -4.94564e-05 0)
(0 -7.62869e-05 0)
(0 -0.000374296 0)
(0 -7.89244e-05 0)
(0 -5.73931e-05 0)
(0 -8.03958e-05 0)
(0 -0.000310611 0)
(0 -9.57102e-05 0)
(0 -5.29022e-05 0)
(0 -0.000150887 0)
(0 -4.95916e-05 0)
(0 -0.000238855 0)
(0 -0.000246793 0)
(0 -5.62229e-05 0)
(0 -0.000131725 0)
(0 -0.000448278 0)
(0 -9.21831e-05 0)
(0 -0.000289681 0)
(0 -4.40797e-05 0)
(0 -5.18265e-05 0)
(0 -4.45038e-05 0)
(0 -0.000454386 0)
(0 -7.382e-05 0)
(0 -4.71522e-05 0)
(0 -5.13476e-05 0)
(0 -0.000105439 0)
(0 -4.42994e-05 0)
(0 -4.8738e-05 0)
(0 -4.43864e-05 0)
(0 -7.8064e-05 0)
(0 -4.69689e-05 0)
(0 -0.000210221 0)
(0 -5.51322e-05 0)
(0 -0.000256589 0)
(0 -0.000137241 0)
(0 -4.40822e-05 0)
(0 -6.97132e-05 0)
(0 -4.45486e-05 0)
(0 -8.90465e-05 0)
(0 -4.40824e-05 0)
(0 -4.9137e-05 0)
(0 -4.85003e-05 0)
(0 -4.60109e-05 0)
(0 -0.000477027 0)
(0 -8.88975e-06 0)
(0 -5.14269e-05 0)
(0 -0.000187946 0)
(0 -0.000133393 0)
(0 -4.43506e-05 0)
(0 -0.000142895 0)
(0 -0.000162938 0)
(0 -8.26873e-05 0)
(0 -0.000403743 0)
(0 -0.00023923 0)
(0 -8.16832e-05 0)
(0 -5.7853e-05 0)
(0 -4.40846e-05 0)
(0 -6.56683e-05 0)
(0 -0.00030944 0)
(0 -0.000139052 0)
(0 -4.4107e-05 0)
(0 -4.54389e-05 0)
(0 -0.000176175 0)
(0 -0.00019108 0)
(0 -4.43299e-05 0)
(0 -4.46408e-05 0)
(0 -4.40818e-05 0)
(0 -5.30979e-05 0)
(0 -0.000144284 0)
(0 -0.000377064 0)
(0 -0.000270597 0)
(0 -5.60363e-05 0)
(0 -6.42897e-05 0)
(0 -4.50353e-05 0)
(0 -7.39088e-05 0)
(0 -4.40858e-05 0)
(0 -0.000187367 0)
(0 -9.27845e-05 0)
(0 -4.40797e-05 0)
(0 -0.000252525 0)
(0 -8.61045e-05 0)
(0 -0.000239572 0)
(0 -0.000186816 0)
(0 -5.79969e-05 0)
(0 -4.74857e-05 0)
(0 -0.000189464 0)
(0 -4.42554e-05 0)
(0 -4.41066e-05 0)
(0 -4.84668e-05 0)
(0 -0.000311675 0)
(0 -0.000463557 0)
(0 -4.69221e-05 0)
(0 -4.45724e-05 0)
(0 -7.83022e-05 0)
(0 -4.47249e-05 0)
(0 -0.000467793 0)
(0 -5.8586e-05 0)
(0 -0.000347862 0)
(0 -0.000362792 0)
(0 -4.48428e-05 0)
(0 -0.000280454 0)
(0 -4.44904e-05 0)
(0 -6.05419e-05 0)
(0 -6.27038e-05 0)
(0 -0.000474143 0)
(0 -0.0001604 0)
(0 -0.00033089 0)
(0 -0.000174651 0)
(0 -4.45298e-05 0)
(0 -0.000329841 0)
(0 -0.000371581 0)
(0 -4.41574e-05 0)
(0 -4.42271e-05 0)
(0 -6.14806e-05 0)
(0 -5.67092e-05 0)
(0 -5.04626e-05 0)
(0 -0.000106224 0)
(0 -0.000372544 0)
(0 -6.14313e-05 0)
(0 -4.40825e-05 0)
(0 -4.72485e-05 0)
(0 -0.000217882 0)
(0 -0.000202797 0)
(0 -4.41578e-05 0)
(0 -6.3677e-05 0)
(0 -4.40966e-05 0)
(0 -6.89769e-05 0)
(0 -0.000102077 0)
(0 -4.40809e-05 0)
(0 -6.7823e-05 0)
(0 -0.000184004 0)
(0 -4.41493e-05 0)
(0 -4.41762e-05 0)
(0 -0.000335754 0)
(0 -4.65575e-05 0)
(0 -0.000268794 0)
(0 -0.000286354 0)
(0 -0.000459276 0)
(0 -4.40835e-05 0)
(0 -0.000444675 0)
(0 -0.000287739 0)
(0 -0.0003743 0)
(0 -4.44254e-05 0)
(0 -0.000112055 0)
(0 -4.56506e-05 0)
(0 -4.57336e-05 0)
(0 -0.000361368 0)
(0 -5.24175e-05 0)
(0 -0.000205355 0)
(0 -4.40923e-05 0)
(0 -0.000366437 0)
(0 -0.000321442 0)
(0 -0.00016554 0)
(0 -4.67553e-05 0)
(0 -0.000166667 0)
(0 -4.62803e-05 0)
(0 -4.40935e-05 0)
(0 -4.42313e-05 0)
(0 -6.69047e-05 0)
(0 -4.47623e-05 0)
(0 -4.40803e-05 0)
(0 -0.000217378 0)
(0 -4.4079e-05 0)
(0 -4.42394e-05 0)
(0 -4.40816e-05 0)
(0 -4.41222e-05 0)
(0 -4.41523e-05 0)
(0 -4.41576e-05 0)
(0 -4.6464e-05 0)
(0 -0.000166835 0)
(0 -4.41508e-05 0)
(0 -6.87188e-05 0)
(0 -4.4133e-05 0)
(0 -0.000407287 0)
(0 -0.000303495 0)
(0 -0.00017508 0)
(0 -0.000209827 0)
(0 -9.8406e-05 0)
(0 -5.72261e-05 0)
(0 -4.4081e-05 0)
(0 -0.000311138 0)
(0 -0.000218544 0)
(0 -4.40955e-05 0)
(0 -4.47077e-05 0)
(0 -0.000159221 0)
(0 -4.92803e-05 0)
(0 -7.54767e-05 0)
(0 -0.000226697 0)
(0 -4.44732e-05 0)
(0 -4.90642e-05 0)
(0 -8.79802e-05 0)
(0 -0.000113869 0)
(0 -4.41068e-05 0)
(0 -4.40801e-05 0)
(0 -4.41357e-05 0)
(0 -0.000354853 0)
(0 -4.55075e-05 0)
(0 -4.74256e-05 0)
(0 -4.41278e-05 0)
(0 -4.41782e-05 0)
(0 -4.87066e-05 0)
(0 -0.000294591 0)
(0 -0.000201503 0)
(0 -0.000187861 0)
(0 -0.000235478 0)
(0 -0.000130038 0)
(0 -0.00033993 0)
(0 -8.50808e-05 0)
(0 -6.11459e-05 0)
(0 -4.41676e-05 0)
(0 -4.67057e-05 0)
(0 -0.000286994 0)
(0 -4.71789e-05 0)
(0 -4.41008e-05 0)
(0 -5.92308e-05 0)
(0 -0.000131507 0)
(0 -4.40836e-05 0)
(0 -0.00030501 0)
(0 -0.000138313 0)
(0 -4.95027e-05 0)
(0 -4.41601e-05 0)
(0 -0.000162789 0)
(0 -0.000312516 0)
(0 -4.41444e-05 0)
(0 -4.48661e-05 0)
(0 -4.47169e-05 0)
(0 -4.77099e-05 0)
(0 -4.47071e-05 0)
(0 -0.000329599 0)
(0 -4.59194e-05 0)
(0 -0.000126816 0)
(0 -0.000348227 0)
(0 -0.000125628 0)
(0 -4.41793e-05 0)
(0 -4.40882e-05 0)
(0 -0.000373242 0)
(0 -0.000471788 0)
(0 -0.000229309 0)
(0 -4.45858e-05 0)
(0 -0.000135752 0)
(0 -7.6501e-05 0)
(0 -0.00019096 0)
(0 -0.000163907 0)
(0 -4.60066e-05 0)
(0 -0.000354575 0)
(0 -5.17439e-05 0)
(0 -4.48232e-05 0)
(0 -4.40941e-05 0)
(0 -0.000259035 0)
(0 -4.74452e-05 0)
(0 -0.000108052 0)
(0 -4.40812e-05 0)
(0 -4.40993e-05 0)
(0 -0.000238262 0)
(0 -4.40937e-05 0)
(0 -5.00006e-05 0)
(0 -4.41695e-05 0)
(0 -0.00016697 0)
(0 -4.4138e-05 0)
(0 -8.91304e-05 0)
(0 -9.08308e-05 0)
(0 -5.81841e-05 0)
(0 -4.77705e-05 0)
(0 -4.41992e-05 0)
(0 -4.48639e-05 0)
(0 -4.57861e-05 0)
(0 -4.42571e-05 0)
(0 -0.000284165 0)
(0 -4.51324e-05 0)
(0 -0.000364548 0)
(0 -7.80021e-05 0)
(0 -4.41392e-05 0)
(0 -0.000176426 0)
(0 -8.00118e-05 0)
(0 -0.000153517 0)
(0 -0.000225768 0)
(0 -4.41693e-05 0)
(0 -0.000490236 0)
(0 -0.000302522 0)
(0 -5.33883e-05 0)
(0 -5.63238e-05 0)
(0 -5.49377e-05 0)
(0 -4.42702e-05 0)
(0 -4.66692e-05 0)
(0 -4.40892e-05 0)
(0 -5.14058e-05 0)
(0 -6.50535e-05 0)
(0 -5.93481e-05 0)
(0 -4.40911e-05 0)
(0 -6.10776e-05 0)
(0 -4.43258e-05 0)
(0 -4.41443e-05 0)
(0 -0.000105459 0)
(0 -0.000349015 0)
(0 -4.41003e-05 0)
(0 -4.4946e-05 0)
(0 -0.000129434 0)
(0 -4.73043e-05 0)
(0 -6.65665e-05 0)
(0 -0.000230784 0)
(0 -9.58936e-05 0)
(0 -0.000219107 0)
(0 -5.85478e-05 0)
(0 -1.95702e-05 0)
(0 -5.47007e-05 0)
(0 -4.48413e-05 0)
(0 -0.000404168 0)
(0 -5.16016e-05 0)
(0 -0.000347785 0)
(0 -4.7503e-05 0)
(0 -0.000243112 0)
(0 -6.72161e-05 0)
(0 -5.21337e-05 0)
(0 -0.000144905 0)
(0 -0.000268598 0)
(0 -0.000370137 0)
(0 -4.44825e-05 0)
(0 -4.91533e-05 0)
(0 -4.42845e-05 0)
(0 -0.000227576 0)
(0 -0.000210062 0)
(0 -5.25956e-05 0)
(0 -0.000242129 0)
(0 -4.80052e-05 0)
(0 -4.88224e-05 0)
(0 -0.000233928 0)
(0 -4.7895e-05 0)
(0 -0.000356987 0)
(0 -4.42933e-05 0)
(0 -0.000134229 0)
(0 -6.31826e-05 0)
(0 -4.40802e-05 0)
(0 -4.52027e-05 0)
(0 -0.000325407 0)
(0 -0.000110571 0)
(0 -4.40912e-05 0)
(0 -0.000350615 0)
(0 -0.000378095 0)
(0 -4.41247e-05 0)
(0 -4.40865e-05 0)
(0 -8.12178e-05 0)
(0 -4.59426e-05 0)
(0 -0.000275098 0)
(0 -0.00027011 0)
(0 -4.4188e-05 0)
(0 -0.00014313 0)
(0 -0.000471325 0)
(0 -4.49942e-05 0)
(0 -0.000351055 0)
(0 -4.46315e-05 0)
(0 -0.000124838 0)
(0 -0.000473652 0)
(0 -0.000170941 0)
(0 -4.65013e-05 0)
(0 -4.40906e-05 0)
(0 -0.000159561 0)
(0 -0.00014989 0)
(0 -0.000329423 0)
(0 -7.93774e-05 0)
(0 -0.000169054 0)
(0 -4.43132e-05 0)
(0 -5.22719e-05 0)
(0 -6.86798e-05 0)
(0 -4.42808e-05 0)
(0 -4.94622e-05 0)
(0 -4.50282e-05 0)
(0 -4.40945e-05 0)
(0 -4.4394e-05 0)
(0 -0.00038089 0)
(0 -0.000136615 0)
(0 -0.000212035 0)
(0 -4.44765e-05 0)
(0 -7.53729e-05 0)
(0 -4.40894e-05 0)
(0 -4.40839e-05 0)
(0 -8.64948e-05 0)
(0 -4.41338e-05 0)
(0 -4.41172e-05 0)
(0 -5.47533e-05 0)
(0 -4.6151e-05 0)
(0 -4.76246e-05 0)
(0 -4.43106e-05 0)
(0 -4.42082e-05 0)
(0 -4.7215e-05 0)
(0 -4.45795e-05 0)
(0 -4.40935e-05 0)
(0 -5.19314e-05 0)
(0 -8.40398e-05 0)
(0 -4.41002e-05 0)
(0 -4.61469e-05 0)
(0 -0.000403553 0)
(0 -0.000145307 0)
(0 -4.42894e-05 0)
(0 -5.84401e-05 0)
(0 -0.000317424 0)
(0 -5.03128e-05 0)
(0 -4.76141e-05 0)
(0 -6.09717e-05 0)
(0 -4.40956e-05 0)
(0 -0.000113938 0)
(0 -4.42921e-05 0)
(0 -5.97009e-05 0)
(0 -4.4963e-05 0)
(0 -4.68461e-05 0)
(0 -4.54719e-05 0)
(0 -7.80387e-05 0)
(0 -0.000362044 0)
(0 -0.000153271 0)
(0 -4.42018e-05 0)
(0 -0.000337482 0)
(0 -8.52542e-05 0)
(0 -0.000209666 0)
(0 -0.000131607 0)
(0 -0.000307697 0)
(0 -5.40019e-05 0)
(0 -4.59711e-05 0)
(0 -4.42398e-05 0)
(0 -4.8588e-05 0)
(0 -4.59829e-05 0)
(0 -4.42457e-05 0)
(0 -4.46067e-05 0)
(0 -0.000311364 0)
(0 -4.45979e-05 0)
(0 -4.42029e-05 0)
(0 -0.000413136 0)
(0 -0.00038415 0)
(0 -7.27235e-05 0)
(0 -4.40876e-05 0)
(0 -9.84786e-05 0)
(0 -5.02293e-05 0)
(0 -4.44885e-05 0)
(0 -5.42388e-05 0)
(0 -0.000174108 0)
(0 -0.000163674 0)
(0 -0.000345426 0)
(0 -4.73404e-05 0)
(0 -5.66512e-05 0)
(0 -0.000297307 0)
(0 -4.41423e-05 0)
(0 -4.41649e-05 0)
(0 -5.1867e-05 0)
(0 -4.4669e-05 0)
(0 -5.14923e-05 0)
(0 -4.43141e-05 0)
(0 -0.000114033 0)
(0 -0.000102409 0)
(0 -4.42722e-05 0)
(0 -4.46553e-05 0)
(0 -4.84425e-05 0)
(0 -4.44818e-05 0)
(0 -7.96973e-05 0)
(0 -4.17926e-05 0)
(0 -0.000302674 0)
(0 -0.000201894 0)
(0 -0.000206997 0)
(0 -0.000108995 0)
(0 -5.10399e-05 0)
(0 -0.000322117 0)
(0 -4.68879e-05 0)
(0 -0.000402402 0)
(0 -7.99031e-05 0)
(0 -0.000372157 0)
(0 -4.88139e-05 0)
(0 -4.67399e-05 0)
(0 -4.46586e-05 0)
(0 -0.000226441 0)
(0 -4.54079e-05 0)
(0 -0.000299596 0)
(0 -4.42957e-05 0)
(0 -0.000251866 0)
(0 -6.97397e-05 0)
(0 -0.000222706 0)
(0 -4.52227e-05 0)
(0 -4.40811e-05 0)
(0 -4.62741e-05 0)
(0 -0.000322002 0)
(0 -4.6796e-05 0)
(0 -0.000225045 0)
(0 -7.49803e-05 0)
(0 -4.40851e-05 0)
(0 -0.000290339 0)
(0 -0.000125341 0)
(0 -5.7232e-05 0)
(0 -7.10894e-05 0)
(0 -4.41381e-05 0)
(0 -0.000318373 0)
(0 -6.59788e-05 0)
(0 -0.000158464 0)
(0 -0.000310915 0)
(0 -5.57832e-05 0)
(0 -0.000156013 0)
(0 -0.000438349 0)
(0 -8.98335e-05 0)
(0 -4.40846e-05 0)
(0 -0.00011131 0)
(0 -4.49253e-05 0)
(0 -4.42468e-05 0)
(0 -5.37751e-05 0)
(0 -4.40933e-05 0)
(0 -0.000115055 0)
(0 -0.000426764 0)
(0 -6.26906e-05 0)
(0 -4.40813e-05 0)
(0 -0.000151877 0)
(0 -5.95653e-05 0)
(0 -5.97163e-05 0)
(0 -4.42657e-05 0)
(0 -0.000343206 0)
(0 -4.40947e-05 0)
(0 -5.12522e-05 0)
(0 -5.00028e-05 0)
(0 -0.000419399 0)
(0 -0.000487653 0)
(0 -4.59076e-05 0)
(0 -0.000121671 0)
(0 -3.71861e-05 0)
(0 -5.15103e-05 0)
(0 -0.000415126 0)
(0 -8.1178e-05 0)
(0 -7.92694e-05 0)
(0 -5.04925e-05 0)
(0 -4.43465e-05 0)
(0 -4.41609e-05 0)
(0 -0.000107041 0)
(0 -4.9823e-05 0)
(0 -4.45621e-05 0)
(0 -4.40987e-05 0)
(0 -6.29097e-05 0)
(0 -4.46248e-05 0)
(0 -4.41045e-05 0)
(0 -6.09321e-05 0)
(0 -4.43155e-05 0)
(0 -8.40837e-05 0)
(0 -4.41692e-05 0)
(0 -4.40993e-05 0)
(0 -0.000403036 0)
(0 -9.65347e-05 0)
(0 -0.000370721 0)
(0 -0.000202621 0)
(0 -5.74268e-05 0)
(0 -0.000368542 0)
(0 -8.27193e-05 0)
(0 -4.87743e-05 0)
(0 -0.000144446 0)
(0 -5.49446e-05 0)
(0 -4.40853e-05 0)
(0 -5.78155e-05 0)
(0 -0.000123592 0)
(0 -4.41711e-05 0)
(0 -0.000183372 0)
(0 -4.40849e-05 0)
(0 -0.000122747 0)
(0 -4.72662e-05 0)
(0 -0.000352661 0)
(0 -4.4079e-05 0)
(0 -4.40839e-05 0)
(0 -0.000223341 0)
(0 -0.000192524 0)
(0 -4.41621e-05 0)
(0 -5.90006e-05 0)
(0 -4.41594e-05 0)
(0 -0.000318606 0)
(0 -0.000350912 0)
(0 -4.41259e-05 0)
(0 -0.000189206 0)
(0 -4.8162e-05 0)
(0 -4.4108e-05 0)
(0 -0.000217857 0)
(0 -5.33509e-05 0)
(0 -7.69165e-05 0)
(0 -0.00048505 0)
(0 -0.000138717 0)
(0 -4.41595e-05 0)
(0 -4.40796e-05 0)
(0 -0.000210595 0)
(0 -0.000139456 0)
(0 -0.000187397 0)
(0 -8.7658e-05 0)
(0 -4.99388e-05 0)
(0 -4.40853e-05 0)
(0 -0.000110989 0)
(0 -4.43408e-05 0)
(0 -4.44821e-05 0)
(0 -4.49654e-05 0)
(0 -4.45991e-05 0)
(0 -0.000191427 0)
(0 -4.69709e-05 0)
(0 -4.47673e-05 0)
(0 -6.0399e-05 0)
(0 -0.000249415 0)
(0 -5.2573e-05 0)
(0 -4.40905e-05 0)
(0 -9.24158e-05 0)
(0 -4.7555e-05 0)
(0 -4.42032e-05 0)
(0 -4.45074e-05 0)
(0 -4.43602e-05 0)
(0 -7.14764e-05 0)
(0 -0.000155253 0)
(0 -0.000102193 0)
(0 -0.000197095 0)
(0 -4.40842e-05 0)
(0 -5.35433e-05 0)
(0 -0.000136012 0)
(0 -0.00018457 0)
(0 -0.000115207 0)
(0 -4.80586e-05 0)
(0 -0.000252667 0)
(0 -0.000193436 0)
(0 -5.01346e-05 0)
(0 -6.07746e-05 0)
(0 -4.42903e-05 0)
(0 -4.80725e-05 0)
(0 -4.40931e-05 0)
(0 -4.40968e-05 0)
(0 -6.40055e-05 0)
(0 -5.43235e-05 0)
(0 -0.000451879 0)
(0 -7.39716e-05 0)
(0 -4.40787e-05 0)
(0 -0.000201209 0)
(0 -0.000119357 0)
(0 -5.46421e-05 0)
(0 -4.73244e-05 0)
(0 -4.62481e-05 0)
(0 -4.41979e-05 0)
(0 -4.48659e-05 0)
(0 -0.000303328 0)
(0 -4.40852e-05 0)
(0 -0.000445457 0)
(0 -0.000218427 0)
(0 -4.93458e-05 0)
(0 -6.9271e-05 0)
(0 -0.000302881 0)
(0 -4.60533e-05 0)
(0 -4.43049e-05 0)
(0 -0.000344572 0)
(0 -4.42397e-05 0)
(0 -0.000213676 0)
(0 -0.000383808 0)
(0 -0.00012376 0)
(0 -4.42669e-05 0)
(0 -7.70014e-05 0)
(0 -0.000124237 0)
(0 -4.4289e-05 0)
(0 -0.000148185 0)
(0 -4.50913e-05 0)
(0 -4.4126e-05 0)
(0 -7.74052e-05 0)
(0 -4.77981e-05 0)
(0 -0.000329582 0)
(0 -4.40946e-05 0)
(0 -4.98813e-05 0)
(0 -0.000185371 0)
(0 -4.41829e-05 0)
(0 -5.31665e-05 0)
(0 -4.53791e-05 0)
(0 -3.7921e-05 0)
(0 -4.40815e-05 0)
(0 -6.24488e-05 0)
(0 -4.44577e-05 0)
(0 -0.000173919 0)
(0 -4.60259e-05 0)
(0 -4.40873e-05 0)
(0 -0.000375258 0)
(0 -4.44592e-05 0)
(0 -0.000165328 0)
(0 -5.12533e-05 0)
(0 -4.64258e-05 0)
(0 -6.12671e-05 0)
(0 -4.41689e-05 0)
(0 -0.000105481 0)
(0 -4.74896e-05 0)
(0 -5.2557e-05 0)
(0 -4.48874e-05 0)
(0 -5.26662e-05 0)
(0 -5.01088e-05 0)
(0 -0.000114282 0)
(0 -4.42029e-05 0)
(0 -5.96277e-05 0)
(0 -4.40815e-05 0)
(0 -6.10018e-05 0)
(0 -5.17779e-05 0)
(0 -0.000267487 0)
(0 -5.81791e-05 0)
(0 -0.000179096 0)
(0 -5.08045e-05 0)
(0 -4.42131e-05 0)
(0 -0.000142805 0)
(0 -0.000357518 0)
(0 -4.40928e-05 0)
(0 -0.000166643 0)
(0 -4.44988e-05 0)
(0 -0.000188979 0)
(0 -4.42259e-05 0)
(0 -4.49056e-05 0)
(0 -6.53607e-05 0)
(0 -0.000337365 0)
(0 -0.000344716 0)
(0 -0.000199335 0)
(0 -0.000394182 0)
(0 -4.76515e-05 0)
(0 -4.76113e-05 0)
(0 -4.90097e-05 0)
(0 -9.3138e-05 0)
(0 -0.00029658 0)
(0 -4.46397e-05 0)
(0 -0.000137141 0)
(0 -6.6847e-05 0)
(0 -4.46291e-05 0)
(0 -0.000190524 0)
(0 -4.41129e-05 0)
(0 -5.45358e-05 0)
(0 -7.47681e-05 0)
(0 -4.41459e-05 0)
(0 -4.40846e-05 0)
(0 -4.4781e-05 0)
(0 -4.4248e-05 0)
(0 -4.44187e-05 0)
(0 -0.000345469 0)
(0 -4.47332e-05 0)
(0 -4.41011e-05 0)
(0 -4.4344e-05 0)
(0 -0.000210045 0)
(0 -0.000139096 0)
(0 -4.71764e-05 0)
(0 -4.41765e-05 0)
(0 -4.4085e-05 0)
(0 -4.47405e-05 0)
(0 -0.000225522 0)
(0 -4.78304e-05 0)
(0 -5.99462e-05 0)
(0 -4.41236e-05 0)
(0 -4.40881e-05 0)
(0 -5.94752e-05 0)
(0 -4.6817e-05 0)
(0 -0.000110487 0)
(0 -4.89753e-05 0)
(0 -4.85313e-05 0)
(0 -0.000212963 0)
(0 -4.73992e-05 0)
(0 -4.43176e-05 0)
(0 -0.000199441 0)
(0 -4.45557e-05 0)
(0 -9.42827e-05 0)
(0 -0.000283969 0)
(0 -4.40917e-05 0)
(0 -4.40936e-05 0)
(0 -0.00042822 0)
(0 -0.000217053 0)
(0 -0.000181607 0)
(0 -0.00034281 0)
(0 -5.19223e-05 0)
(0 -4.59958e-05 0)
(0 -0.000166818 0)
(0 -0.00035964 0)
(0 -0.000273617 0)
(0 -6.0666e-05 0)
(0 -8.14733e-05 0)
(0 -8.30773e-05 0)
(0 -4.4848e-05 0)
(0 -0.000217638 0)
(0 -4.40926e-05 0)
(0 -4.41718e-05 0)
(0 -4.4117e-05 0)
(0 -4.48618e-05 0)
(0 -5.37572e-05 0)
(0 -4.47491e-05 0)
(0 -6.86995e-05 0)
(0 -4.41549e-05 0)
(0 -4.46443e-05 0)
(0 -4.44767e-05 0)
(0 -0.000164631 0)
(0 -4.41576e-05 0)
(0 -4.4123e-05 0)
(0 -0.000397568 0)
(0 -0.000316887 0)
(0 -4.77535e-05 0)
(0 -4.40936e-05 0)
(0 -4.43074e-05 0)
(0 -0.000355945 0)
(0 -0.000221435 0)
(0 -4.40907e-05 0)
(0 -4.43427e-05 0)
(0 -4.45258e-05 0)
(0 -0.000118295 0)
(0 -8.41809e-05 0)
(0 -4.41593e-05 0)
(0 -0.000156457 0)
(0 -4.40971e-05 0)
(0 -4.41225e-05 0)
(0 -4.46586e-05 0)
(0 -4.45213e-05 0)
(0 -0.000169822 0)
(0 -0.000325104 0)
(0 -0.000321141 0)
(0 -6.94152e-05 0)
(0 -4.40822e-05 0)
(0 -6.09515e-05 0)
(0 -0.000104225 0)
(0 -0.000108086 0)
(0 -4.72637e-05 0)
(0 -4.40789e-05 0)
(0 -6.04527e-05 0)
(0 -4.43263e-05 0)
(0 -4.40952e-05 0)
(0 -4.40812e-05 0)
(0 -4.42246e-05 0)
(0 -0.000245544 0)
(0 -0.000213549 0)
(0 -4.42374e-05 0)
(0 -0.000498905 0)
(0 -0.000407335 0)
(0 -0.000118476 0)
(0 -4.40868e-05 0)
(0 -6.2704e-05 0)
(0 -4.41356e-05 0)
(0 -4.65244e-05 0)
(0 -0.000292513 0)