/*--------------------------------*- C++ -*----------------------------------*\
| =========                 |                                                 |
| \\      /  F ield         | OpenFOAM: The Open Source CFD Toolbox           |
|  \\    /   O peration     | Version:  v2012                                 |
|   \\  /    A nd           | Website:  www.openfoam.com                      |
|    \\/     M anipulation  |                                                 |
\*---------------------------------------------------------------------------*/
FoamFile
{
    version     2.0;
    format      ascii;
    class       volScalarField;
    location    "600";
    object      k_0;
}
// * * * * * * * * * * * * * * * * * * * * * * * * * * * * * * * * * * * * * //

dimensions      [0 2 -2 0 0 0 0];


internalField   nonuniform List<scalar> 
13917
(
0.000165964
0.000149223
0.0391935
0.000154601
0.000148703
0.00019293
0.0420985
0.0354144
0.03213
0.00017381
0.000209603
0.000178066
0.000154769
0.00977193
0.000155359
0.000154377
0.000149571
0.000176693
0.000177477
0.000148699
0.000149772
0.0419197
0.000148608
0.0308139
0.000148113
0.0407366
0.000161528
0.000164231
0.000213583
0.000187334
0.000167667
0.000158495
0.000160053
0.000154515
0.000148276
0.000232042
0.000148668
0.0353355
0.000157626
0.0145054
0.00014764
0.0001499
0.000145239
0.000168211
0.000149279
0.000155816
0.000176276
0.00018406
0.000388892
0.000148016
0.000158433
0.00014979
0.000422678
0.000154827
0.000149621
0.000158177
0.000209579
0.000148323
0.000155605
0.000149053
0.0942429
0.000149254
0.00738878
0.000148622
0.000191314
0.049387
0.000148653
0.000148507
0.000213614
0.000163448
0.000148754
0.0260976
0.0508147
0.00014814
0.00040621
0.0001813
0.033021
0.000151611
0.0393191
0.000149571
0.000149353
0.000148696
0.000189099
0.0386505
0.0495291
0.000151374
0.000149186
0.0303774
0.000158093
0.000145229
0.0489447
0.000181178
0.000147759
0.000151164
0.0382085
0.000190057
0.000199297
0.00018174
0.000200534
0.000170383
0.000146628
0.000158573
0.000168031
0.000152731
0.000146654
0.0274604
0.000197611
0.000185254
0.000149622
0.000168532
0.0635931
0.0156514
0.000184781
0.0296029
0.000151155
0.000414498
0.000148035
0.000261002
0.0177838
0.000154754
0.000149819
0.00021347
0.0203938
0.000163689
0.000147891
0.000150801
0.00014897
0.000147965
0.000145223
0.00019221
0.0302321
0.000151002
0.000149373
0.000149823
0.000455286
0.0303313
0.00016606
0.000171164
0.000148606
0.000154638
0.000271436
0.000146873
0.000150285
0.000170595
0.00014852
0.00618806
0.000219383
0.000149628
0.000146552
0.000158991
0.000177449
0.000403095
0.000187981
0.000163948
0.000158045
0.0254683
0.00016262
0.0002648
0.0288045
0.000562264
0.000153004
0.0001618
0.000149569
0.000197523
0.000184439
0.000199815
0.000152659
0.000179646
0.0001483
0.000159022
0.000164607
0.0326826
0.000187168
0.000150484
0.000788681
0.000165132
0.0321057
0.000306438
0.00433002
0.000147723
0.000182746
0.000168657
0.000146859
0.000149131
0.000158093
0.0414113
0.000260015
0.0303364
0.000167132
0.000197172
0.000290933
0.0539555
0.000229799
0.000148684
0.000171236
0.000161181
0.000154069
0.000147824
0.000183197
0.0095149
0.000157771
0.000148117
0.000177517
0.000176992
0.0451712
0.000278558
0.000148284
0.000148415
0.000181174
0.0413156
0.00015005
0.0422621
0.0348645
0.000197368
0.000146677
0.000202493
0.000177769
0.040014
0.000147752
0.0926938
0.000147655
0.000186259
0.000147389
0.0400561
0.0310477
0.000154757
0.000492009
0.000158456
0.000146701
0.000230447
0.000186387
0.000166831
0.0323168
0.0295512
0.000146281
0.000159043
0.0530506
0.0368687
0.000149519
0.000147581
0.0170864
0.000203483
0.000149758
0.000258026
0.000191698
0.000161225
0.000165224
0.000149516
0.000164308
0.030804
0.000149379
0.000187949
0.000173637
0.000148853
0.000148277
0.000181108
0.0222691
0.000186379
0.000158285
0.000155666
0.00014979
0.0158484
0.0502452
0.000165668
0.000146741
0.0528583
0.0189812
0.000156444
0.0385795
0.00018308
0.000149427
0.000147472
0.000176473
0.0373738
0.000199523
0.000155199
0.000273594
0.000169127
0.000145163
0.0525724
0.000148527
0.00123684
0.000157266
0.000149722
0.000156898
0.000163904
0.000161774
0.000260296
0.000160192
0.00014963
0.000273311
0.0303887
0.058393
0.000147755
0.000132294
0.000149113
0.000149633
0.000148086
0.000242193
0.000148581
0.000188616
0.000164523
0.000148199
0.000177508
0.000151961
0.00034145
0.000164766
0.000179566
0.000147658
0.00014821
0.059234
0.0192013
0.000147995
0.000147467
0.0500878
0.000147669
0.0538532
0.000147518
0.0424439
0.000151532
0.000245921
0.00016454
0.000432034
0.000152599
7.05039e-05
0.000185237
0.000156936
0.000203417
0.00020686
0.00014932
0.0310908
0.000171041
0.0223918
0.000153695
0.0141075
0.000159836
0.0720084
0.000182538
0.000173965
0.000173373
0.0416251
0.000149444
0.000165156
0.0699876
0.000149015
0.000152232
0.0192547
0.000186967
0.000150339
0.000263915
0.00020834
0.00014692
0.0154619
0.000285698
0.000148485
0.000147228
0.00014916
0.000146527
0.000271875
0.00252614
0.000200546
0.0662179
0.000148099
0.000191294
0.00841108
0.000170843
0.0421455
0.0413789
0.0339661
0.000146277
0.000191552
0.000147089
0.0882307
0.000149016
0.000454487
0.000191575
0.000156078
0.000149325
0.000179861
0.000185
0.000184489
0.00056611
0.066298
0.031664
0.000164775
0.000172873
0.000147635
0.0403367
0.0410904
0.000148427
0.00013227
0.000148279
0.000268381
0.0001515
0.000149509
0.000151938
0.0390627
0.000151858
0.0250922
0.0108797
0.0002038
0.000193699
0.000149272
0.000194901
0.00019106
0.000148223
0.000189005
0.000148936
0.000148217
0.000187133
0.00014972
0.00014816
0.000147058
0.000272678
0.000149646
0.015918
0.0414301
0.00537407
0.000231081
0.0279287
0.0405793
0.000170433
0.000148134
0.000211404
0.000157244
0.000160279
0.000148637
0.00404139
0.0418324
0.0418339
0.000154263
0.000195571
0.000153304
0.000158081
0.000184344
0.000151311
0.000171325
0.000149617
0.000148555
0.0587469
0.0308624
0.0324152
0.000185611
0.00357279
0.0342504
0.073867
0.0285218
0.000145378
0.000178884
0.000151415
0.000148572
0.000293113
0.000176898
0.000148836
0.000178963
0.000169242
0.0263321
0.000148195
0.000198928
0.00949828
0.000295371
0.0195128
0.000149695
0.000148467
0.000153951
0.000162622
0.000146284
0.0413804
0.000198645
0.000160176
0.0384518
0.000158136
0.000198278
0.0798018
0.00022201
0.000201922
0.000276794
0.0001988
0.000177581
0.000209938
0.000169375
0.000208616
0.000206177
0.000171125
0.000188196
0.000147692
0.000298355
0.000159263
0.000146816
0.00016183
0.000151937
0.0283421
0.027819
0.000147595
0.000145352
0.040592
0.0342427
0.000149721
0.0155396
0.000152373
0.000211363
0.000147692
0.0453092
0.000291969
0.000158986
0.00014999
0.0304431
0.000219832
0.0119774
0.000149777
0.0352235
0.000342499
0.056197
0.000146899
0.0449991
0.0783356
0.0001707
0.000147182
0.000149485
0.000181221
0.000272593
0.000148304
0.000147261
0.000147604
0.000147567
0.0469349
0.000290762
0.000170336
0.000257274
0.000148142
0.000146675
0.000195103
0.0708423
0.000164456
0.000148444
0.000148177
0.000148459
0.0618803
0.0591512
0.000149136
0.000148458
0.000167523
0.000169197
0.000164542
0.00014842
0.000152032
0.000157265
0.000187417
0.000198806
0.000263115
0.000212422
0.000193469
0.00027923
0.00017932
0.000147824
0.0355547
0.000148474
0.000152695
0.000155205
0.000303928
0.000170333
0.000146772
0.000306155
0.000191135
0.00906466
0.000193573
0.000160229
0.000170536
0.000149263
0.0631109
0.000254617
0.0434501
0.000149302
0.000161149
0.000257045
0.0436451
0.0145091
0.000182946
0.000189606
0.000154188
0.000154027
0.000148445
0.000165249
0.000169025
0.000149288
0.000177367
0.000173033
0.0437564
0.0142836
0.000153509
0.000196958
0.000294878
0.000157885
0.000149813
0.000415307
0.0185328
0.00915906
0.000241909
0.000145316
0.0172006
0.000180657
0.000147261
0.000162509
0.000185172
0.000159506
0.000187257
0.039293
0.00020917
0.000166665
0.0615622
0.000152563
0.0248482
0.000149577
0.000149093
0.000121348
0.0186704
0.000207223
0.000152563
0.000150316
0.000148472
0.000169461
0.000432275
0.000196896
0.000154392
0.000199518
0.000179377
0.000147727
0.000567232
0.000196034
0.00233573
0.000147641
0.000208112
0.000151832
0.0124572
0.00017454
0.000170152
0.00016143
0.000147063
0.000146567
0.00014913
0.000174955
0.000156054
0.000259902
0.000518335
0.000179408
0.000146986
0.000207346
0.000208502
0.000222644
0.000149227
0.000155678
0.000147317
0.000160714
0.000155878
0.0786227
0.000149521
0.00248968
0.000160388
0.000209545
0.000180704
0.0519501
0.000171124
0.000149327
0.036784
0.0161981
0.000148374
0.000155119
0.000290194
0.000216706
0.000199524
0.000149544
0.000150111
0.000217285
0.000156283
0.000184114
0.000180041
0.000146659
0.000176699
0.0380886
0.000149232
0.00015316
0.000147743
0.0182434
0.000149764
0.000153813
0.0354626
0.000151899
0.0139684
0.000158094
0.000160257
0.000147694
0.000166439
0.000148145
0.000176466
0.000147099
0.000174088
0.00015236
0.024725
0.000329296
0.0719372
0.000152733
0.000149367
0.000178291
0.000170428
0.0230461
0.0526843
0.000176297
0.000148264
0.00026452
0.000209437
0.000870121
0.000236172
0.000175682
0.0396123
0.000165229
0.000168385
0.000203832
0.00017928
0.000175929
0.000239046
0.00017545
0.000154196
0.000186861
0.000157076
0.000147819
0.000160519
0.000168677
0.000158341
0.000148198
0.000147619
0.000179455
0.00015332
0.00018433
0.000148265
0.000148379
0.000149816
0.000151795
0.000145219
0.000156137
0.000147883
0.0441801
0.000177162
0.000187522
0.000146442
0.000149633
0.00016346
0.000177972
0.000150691
0.0679878
0.000175508
0.0763137
0.000160511
0.000199691
0.000150972
0.000149786
0.000147445
0.00015195
0.022644
0.000149685
0.00026536
0.000156596
0.0101536
0.000165187
0.000176156
0.000208599
0.000145886
0.000149935
0.000177684
0.000148471
0.000149734
0.0421936
0.000150688
0.000149171
0.000159218
0.000147529
0.000145756
0.000158494
0.000156282
0.0177351
0.000163713
0.000149231
0.000147317
0.0470219
0.000175217
0.000149055
0.0001493
0.0526445
0.000291857
0.0307653
0.000160243
0.000154204
0.000146363
0.000145624
0.000171699
0.000164402
0.000238908
0.00015396
0.0288005
0.00014975
0.000152158
0.0256308
0.000148332
0.000159437
0.000148099
0.000148443
0.000167822
0.000161954
0.000150841
0.0140972
0.0192047
0.000181469
0.000147805
0.000145741
0.000196103
0.000267241
0.000149717
0.000285121
0.000145668
0.000167721
0.000148388
0.000148103
0.000275213
0.000149109
0.0356415
0.000167787
0.000149813
0.000145422
0.00014877
0.000147448
0.000152942
0.000419565
0.000148897
0.000147467
0.0385652
0.012253
0.000167506
0.000169583
0.000183227
0.000156128
0.000146986
0.000156402
0.042392
0.000174893
0.00014888
0.000149793
0.0477969
0.000166928
0.0744025
0.000149768
0.000150882
0.0161526
0.000164899
0.000151116
0.0187076
0.000278779
0.000147409
0.000200455
0.000147428
0.000148928
0.000146367
0.0573093
0.000145147
0.000149657
0.000146975
0.0385888
0.000156454
0.000211169
0.000165414
0.000148225
0.000158776
0.000149128
0.0680489
0.0001477
0.00014903
0.000149186
0.000197617
0.00014913
0.000209164
0.0156746
0.0318903
0.00015531
0.000281567
0.0418548
0.000148177
0.0142097
0.0916518
0.0473664
0.027715
0.0416769
0.0113494
0.000204579
0.000149594
0.038607
0.00016487
0.0405981
0.00014672
0.00014776
0.000149104
0.000149085
0.000157286
0.000158237
0.0230167
0.000147678
0.000148479
0.0113705
0.000190668
0.000148755
0.000160601
0.000161024
0.00014999
0.000319713
0.000160701
0.00015242
0.000156328
0.0152941
0.031226
0.00025481
0.000148225
0.000221886
0.000191246
0.0393548
0.037935
0.000186163
0.000147691
0.000151142
0.000149739
0.000144822
0.000152007
0.000145306
0.000157371
0.00016473
0.0427459
0.000203371
0.00014968
0.000198999
0.0752061
0.000166878
0.000149515
0.0280172
0.000148041
0.000149501
0.000160491
0.0429363
0.000149112
0.000147669
0.0424703
0.000271823
0.000295419
0.000196229
0.000232973
0.000147498
0.000212763
0.000149612
0.000147939
0.000149678
0.0413357
0.0380803
0.00014759
0.000145428
0.000148222
0.000291699
0.000151515
0.000161376
0.000148451
0.000149973
0.000211134
0.000148366
0.000177219
0.000203417
0.0326913
0.000148692
0.000173002
0.000153699
0.0501239
0.0718719
0.000148156
0.0582723
0.000184723
0.000262291
0.000149114
0.0381725
0.000149606
0.000157958
0.000166824
0.000196149
0.0411349
0.00141597
0.000210246
0.0250376
0.000146934
0.000249108
0.000148109
0.000156998
0.0427405
0.00014861
0.000149662
0.000151277
0.000149791
0.041504
0.000145766
0.000148544
0.000177271
0.000170766
0.000175613
0.000205338
0.000199142
0.0210164
0.000176977
0.00016633
0.000168031
0.0343615
0.000168081
0.0833961
0.0401448
0.00015678
0.000148486
0.0291741
0.0011871
0.000149621
0.000195953
0.000164835
0.000151019
0.000157786
0.000149977
0.000166997
0.000149943
0.000175241
0.000171006
0.00014714
0.000178363
0.000147966
0.000167369
0.000147074
0.000154939
0.00017937
0.000153618
0.000149828
0.000147626
0.000294903
0.000177788
0.00766233
0.000148151
0.000149086
0.000179892
0.000148095
0.000188151
0.000177783
0.000151014
0.00019199
0.000147819
0.0874072
0.0001495
0.000166346
0.0220796
0.000242985
0.000147542
0.000152513
0.0132441
0.000147962
0.000147401
0.0443028
0.0629864
0.000153037
0.000209855
0.000148631
0.000149841
0.0413999
0.000151734
0.000145945
0.000252375
0.000148125
0.000301082
0.000149313
0.000145932
0.000149072
0.000200864
0.0245388
0.000148809
0.00014932
0.0001475
0.000155257
0.000148409
0.000230139
0.000177974
0.000149774
0.00233095
0.000165278
0.00025934
0.0357962
0.000427641
0.000147401
0.000149352
0.000148396
0.000214742
0.000155608
0.0243488
0.0406813
0.000152551
0.0425723
0.000321778
0.00017546
0.000203868
0.000169906
0.000189528
0.0405879
0.000167872
0.000339744
0.040371
0.000178343
0.000154497
0.0344517
0.000164203
0.000146836
0.000153072
0.0857129
0.000163297
0.000147541
0.000166756
0.000190382
0.000165118
0.0311142
0.000152834
0.0149284
0.000167581
0.0034791
0.000199832
0.000225902
0.000160386
0.000147645
0.000150435
0.036677
0.000147934
0.000152791
0.000146961
0.000152056
0.000147821
0.000160583
0.000207301
0.000290168
0.00016292
0.000164901
0.0417785
0.000195997
0.000147889
0.000287193
0.0413385
0.000146385
0.000147341
0.000162183
0.0264311
0.000149677
0.000182904
0.000222987
0.00016731
0.000148584
0.000153217
0.000148326
0.000195903
0.000163439
0.000147823
0.0384534
0.0394269
0.000163918
0.000284393
0.000178422
0.00970122
0.000151793
0.000156537
0.0386199
0.00028265
0.000186564
0.000274032
0.000159029
0.000149837
0.000149109
0.000149245
0.000148335
0.000150388
0.000167217
0.000147595
0.000199467
0.00014752
0.000159833
0.000147849
0.000176339
0.000198266
0.000296463
0.0001481
0.000223497
0.000149088
0.0327153
0.000148251
0.000154451
0.000148838
0.000226781
0.0481168
0.000203477
0.000147573
0.000203451
0.000148352
0.000160334
0.0574981
0.000148722
0.000149716
0.000169988
0.00016252
0.0423288
0.000147611
0.000158404
0.000153513
0.000148261
0.000158666
0.000150118
0.000146107
0.000152171
0.0333463
0.000154417
0.000259539
0.00776315
0.000175894
0.0261472
0.000154011
0.000146151
0.000159056
0.0332624
0.000153826
0.000162522
0.000170022
0.0028778
0.000147339
0.00417043
0.000179137
0.000183429
0.000146316
0.000145481
0.000209267
0.000149843
0.000149902
0.000159181
0.000146673
0.000153179
0.000159487
0.000182126
0.000182385
0.0417337
0.000157167
0.000184312
0.0299488
0.0123856
0.000166753
0.000183424
0.024492
0.000169283
0.0879409
0.000152314
0.0206463
0.00344528
0.000146952
0.000149724
0.000147628
0.000151784
0.000169387
0.000147989
0.000152688
0.000185963
0.0001528
0.000160548
0.0458476
0.000157691
0.000154722
0.0322627
0.000151096
0.0156412
0.000155396
0.000165277
0.000147271
0.0371428
0.0377217
0.00014838
0.000152064
0.0402864
0.000157317
0.0151982
0.000148045
0.000148179
0.0433979
0.000151877
0.000162615
0.00705588
0.000148452
0.000176542
0.00015991
0.000145481
0.000147311
0.0388796
0.0387936
0.000149515
0.000153522
0.00014845
0.000156876
0.000159928
0.0282423
0.000150434
0.000326284
0.000120158
0.00217722
0.000281464
0.000151694
0.000196262
0.000179853
0.00015706
0.000148409
0.000178264
0.0435173
0.000151817
0.000163271
0.0297877
0.000463425
0.000182434
0.000154113
0.000149299
0.000149619
0.000148473
0.0312134
0.000177838
0.000154305
0.000152357
0.000154703
0.000149795
0.000147994
0.000148444
0.000183845
0.000166864
0.00158178
0.000163604
0.0089578
0.0265964
0.000158822
0.000175916
0.000146576
0.000157942
0.0320324
0.000149019
0.000152593
0.000176057
0.000199642
0.000164571
0.0418373
0.000268006
0.000148029
0.0329824
0.000145298
0.000150135
0.00016405
0.000149815
0.000149385
0.000214113
0.0283382
0.000148139
0.0409959
0.000148975
0.000147352
0.000152432
0.000346178
0.000159699
0.000155399
0.0879609
0.000151543
0.000238523
0.0318543
0.000149608
0.000163821
0.000147966
0.0155261
0.000183503
0.000148499
0.0408653
0.000177418
0.000168112
0.000149852
0.0351263
0.000157349
0.000186901
0.000152931
0.00016797
0.0387855
0.000147436
0.000255609
0.00014875
0.000178579
0.000163943
0.000149601
0.0332543
0.000152356
0.000198973
0.000177701
0.000170054
0.000163127
0.000163302
0.000150256
0.0302579
0.000159215
0.0133696
0.000157972
0.000179807
0.000148503
0.000168727
0.000148495
0.000178317
0.038484
0.000150846
0.000147065
0.000441253
0.000151892
0.0346009
0.000150716
0.0409242
0.00332699
0.000163628
0.00014791
0.000147553
0.000148726
0.000145349
0.000192939
0.00016632
0.00016078
0.000156107
0.00014848
0.000276616
0.000153701
0.000162903
0.0257756
0.000148404
0.0125636
0.000176059
0.000161675
0.000255633
0.0409552
0.000258972
0.0383619
0.0448325
0.000147307
0.000204886
0.0370246
0.000189579
0.000149119
0.000149376
0.000197425
0.0404077
0.015992
0.000278552
0.000151236
0.000164558
0.000169745
0.030103
0.00282057
0.000170184
0.000202135
0.000153116
0.000177236
0.000186199
0.000149066
0.00019141
0.0572014
0.000148862
0.000281505
0.00014967
0.0001489
0.0286595
0.0475558
0.000146852
0.000151502
0.000150492
0.000148061
0.00016665
0.000215298
0.000153143
0.000147877
0.000148605
0.000168048
0.000158813
0.0001584
0.000266602
0.000148299
0.0549258
0.0170973
0.0485506
0.000176503
0.000174531
0.00029204
0.000164794
0.0385074
0.000277416
0.0424862
0.000149932
0.10006
0.0262232
0.000146248
0.000148223
0.000187465
0.0708549
0.080032
0.000148347
0.000148369
0.0311868
0.00767938
0.0261328
0.000153622
0.000152647
0.000294809
0.000149042
0.0359172
0.031208
0.000230662
0.00418354
0.000148617
0.00014751
0.000147108
0.00015502
0.0259641
0.000168901
0.00015691
0.000150534
0.000173909
0.0298019
0.000168035
0.0021304
0.0150495
0.0174572
0.000307447
0.000148351
0.000149106
0.0404851
0.000145657
0.00014673
0.000151361
0.000379889
0.000167803
0.037358
0.00019913
0.000148171
0.0598004
0.000167667
0.00014781
0.0164473
0.000176839
0.000154034
0.000150053
0.00518356
0.0794183
0.000149185
0.0517727
0.000119586
0.064418
0.00335149
0.000176988
0.000147689
0.000150978
0.000479088
0.000156441
0.0367643
0.00016872
0.00861055
0.00025276
0.000150937
0.000157487
0.00014776
0.000150497
0.0679253
0.0130656
0.000148472
0.0225234
0.000170832
0.000148394
0.000153766
0.000147521
0.000211366
0.00015043
0.000329296
0.000164994
0.000147646
0.000147025
0.000169187
0.0235013
0.000168992
0.000153317
0.000169229
0.000148463
0.00015245
0.000159021
0.0241872
0.0212174
0.075712
0.000145973
0.000146961
0.000149731
0.00019674
0.000147116
0.000149886
0.000214067
0.000179405
0.000298538
0.000146766
0.0797831
0.0213898
0.000149885
0.0219573
0.000198785
0.000166546
0.000309289
0.000149539
0.0382576
0.000157642
0.000151255
0.000152591
0.000145617
0.000255369
0.000154115
0.000152568
0.000157923
0.0246435
0.0258558
0.000149622
0.000148078
0.000152955
0.000148661
0.000202142
0.000149912
0.000186237
0.000153674
0.0413872
0.000152028
0.0431401
0.000146018
0.0734466
0.000150446
0.000145545
0.0645655
0.000187249
0.000171049
0.000229545
0.000162512
0.000170141
0.000148435
0.0480164
0.000148456
0.000147156
0.000168857
0.000176791
0.0440965
0.048252
0.000199559
0.0392171
0.000198467
0.000231144
0.000148679
0.000155762
0.000159624
0.0610637
0.000153772
0.0702264
0.0210915
0.00015049
0.00014876
0.000148247
0.000310632
0.000421466
0.000153255
0.000148739
0.00015523
0.000158955
0.000168332
0.000265209
0.00019833
0.00014835
0.000198872
0.00018415
0.0290674
0.000184133
0.000152033
0.000153791
0.0618415
0.000147082
0.000187749
0.0409098
0.00015061
0.00015562
0.000215315
0.000172748
0.000150637
0.016756
0.000154691
0.000247258
0.000167939
0.000158433
0.000152049
0.0758717
0.000146949
0.000172215
0.000280278
0.0726817
0.000174359
0.000177019
0.000157112
0.000163962
0.000149758
0.0732406
0.000158284
0.000149245
0.000161535
0.000148552
0.000149777
0.000382895
0.000148458
0.000149121
0.000148411
0.000202469
0.000149523
0.000162135
0.000184048
0.000212685
0.000194954
0.000149669
0.000185715
0.000196157
0.000215767
0.000183507
0.000155966
0.000210211
0.0290285
0.000277123
0.000149887
0.0324046
0.0413841
0.000149882
0.000154248
0.000145509
0.000216933
0.00018784
0.000149771
0.000256669
0.0662967
0.0001466
0.000149386
0.041019
0.022887
0.000177383
0.000145705
0.0675731
0.0305933
0.000472357
0.000148167
0.0610131
0.000183562
0.000168044
0.0633541
0.00015745
0.00014559
0.00016154
0.000208065
0.000163568
0.0406689
0.0818355
0.00014705
0.0150146
0.000203683
0.0435171
0.000146014
0.000163504
0.000149708
0.000147694
0.0477554
0.000285609
0.000238278
0.000278571
0.000158053
0.000174985
0.00015227
0.0816599
0.0150056
0.000148455
0.000149721
0.000158395
0.000148663
0.00017599
0.044356
0.0632315
0.00017545
0.000150705
0.000150332
0.050383
0.000154065
0.000176749
0.000146892
0.000151255
0.000290862
0.000278311
0.000272035
0.000355006
0.000149092
0.000253671
0.000152913
0.00016404
0.0942141
0.0215384
0.00014849
0.000149957
0.000165426
0.000154619
0.000149273
0.0481468
0.0649535
0.000147364
0.000145095
0.000149256
0.000147718
0.000334529
0.0001475
0.0410675
0.000193322
0.000176529
0.000147735
0.000167366
0.0853969
0.000165005
0.000199255
0.0495881
0.000149269
0.0340598
0.000158944
0.000159719
0.000193305
0.0371533
0.0431114
0.000176083
0.000147373
0.000193317
0.00014755
0.000154124
0.000149237
0.0416028
0.000159174
0.0026745
0.000182158
0.000174476
0.000148816
0.000229906
0.000158517
0.000149786
0.000182809
0.000145198
0.000167392
0.000165216
0.000149107
0.0887909
0.000152108
0.000202457
0.000150802
0.000147529
0.0590103
0.0344865
0.000152863
0.000158683
0.000167867
0.000172326
0.000177469
0.000157897
0.000155361
0.000156258
0.000254182
0.00015406
0.0416655
0.000167024
0.000275582
0.000195081
0.000151742
0.0474066
0.000145217
0.0415552
0.000152976
0.0714639
0.0137202
0.0406363
0.0234018
0.000262683
0.000169169
0.000149629
0.0445112
0.000170502
0.000148476
0.028612
0.00617177
0.000151616
0.000154296
0.000161525
0.000161556
0.000163901
0.0417305
0.000149882
0.000161788
0.000165465
0.000159661
0.000149055
0.00018678
0.000145672
0.0414527
0.000152323
0.000198868
0.000163014
0.000169551
0.000185645
0.000288272
0.000184381
0.000147084
0.000190679
0.0427894
0.0645742
0.000151071
0.0406323
0.000160603
0.000297626
0.000148455
0.000153646
0.0402689
0.00017263
0.0305871
0.0351572
0.000159121
0.0711613
0.000148139
0.000145668
0.031267
0.000165067
0.000153543
0.0334584
0.000157741
0.000163626
0.000157975
0.000178276
0.000149423
0.000536938
0.0143459
0.00945348
0.000241679
0.000156386
0.000172343
0.0338094
0.000153029
0.000149483
0.000177355
0.00014591
0.000185605
0.0488629
0.0142838
0.0197635
0.000177026
0.000151285
0.0581773
0.000145298
0.000184674
0.000149562
0.0435419
0.000153068
0.000164614
0.0276874
0.000198109
0.000148102
0.000159623
0.00859449
0.000148821
0.000207012
0.000147108
0.072077
0.0712967
0.000198403
0.000168168
0.000147595
0.000715068
0.000203419
0.000169348
0.00014711
0.000151546
0.0001489
0.000176426
0.000148817
0.000187329
0.000149126
0.000147499
0.0997639
0.000147879
0.000157672
0.000156426
0.000149825
0.0320996
0.000147685
0.000161841
0.0482379
0.000171249
0.0420057
0.000148646
0.0783116
0.000172192
0.041223
0.000152623
0.000200919
0.000150548
0.000170515
0.000198853
0.00019587
0.000228644
0.0608562
0.000218611
0.000475024
0.00015561
0.000196125
0.000163327
0.000150076
0.000153957
0.000150339
0.000148393
0.000175482
0.00016526
0.0002821
0.000177179
0.0367118
0.015965
0.000170089
0.00014823
0.000263408
0.00017969
0.000150049
0.00015286
0.000148607
0.00796533
0.00014841
0.0110465
0.000147746
0.000158777
0.0499691
0.000171266
0.000148319
0.000148337
0.0307589
0.000147652
0.000152993
0.000156256
0.000161091
0.000158782
0.000149047
0.000205201
0.000168212
0.000162853
0.000262299
0.0535339
0.030688
0.0410538
0.000146102
0.000148035
0.000172638
0.000151281
0.000163354
0.041068
0.0314277
0.000145656
0.000148408
0.0322279
0.000285757
0.000145821
0.000147147
0.000155339
0.0535231
0.0404274
0.000157487
0.000162863
0.000149342
0.000274436
0.000199975
0.000173877
0.000158349
0.000163823
0.000149992
0.000167396
0.000267959
0.00015072
0.000149662
0.000157094
0.0415881
0.000154383
0.0270724
0.000148714
0.038911
0.000162443
0.000156228
0.000146359
0.000147456
0.000307194
0.0460636
0.000165042
0.019968
0.0556606
0.000150092
0.0494498
0.000202713
0.000147963
0.000117009
0.000281662
0.000198576
0.000149675
0.028825
0.0438889
0.000149259
0.00016299
0.0206382
0.000166806
0.000148462
0.000147369
0.000150439
0.000154394
0.00018463
0.000259595
0.000167715
0.000181745
0.000146215
0.000149066
0.0320639
0.000147489
0.000168608
0.000155316
0.000150717
0.000175001
0.000148159
0.000152498
0.000260663
0.000147945
0.057548
0.000148141
0.0116852
0.0351781
0.000190887
0.000149284
0.000149947
0.0647683
0.000145549
0.00015402
0.000149738
0.000214479
0.000146937
0.000164939
0.0347891
0.000162896
0.000296819
0.000150362
0.000183515
0.000148305
0.000148949
0.0219675
0.0345207
0.00128234
0.000153246
0.000184134
0.000183871
0.0411407
0.0525996
0.000244867
0.000167421
0.000145244
0.0600625
0.000148535
0.000148746
0.000245432
0.000196722
0.000156909
0.000178948
0.000164078
0.000159917
0.000158763
0.0679257
0.000154817
0.000147911
0.0225493
0.000164284
0.000146262
0.0263664
0.000148141
0.000148755
0.000211288
0.000189561
0.0377917
0.000146359
0.000153804
0.000147478
0.000312654
0.000147531
0.000200039
0.000278225
0.0329217
0.025811
0.0210512
0.000157655
0.0551998
0.000222649
0.000149402
0.000158599
0.00016291
0.000157864
0.000250908
0.0434165
0.0647455
0.0336939
0.000332928
0.000148929
0.000195997
0.000148177
0.0221286
0.000160292
0.000153237
0.000154234
0.000151313
0.000147494
0.000196286
0.0677059
0.000145993
0.000153336
0.000146948
0.0442674
0.000153107
0.089943
0.0422856
0.000849854
0.000148624
0.000147554
0.0300642
0.000189886
0.000148938
0.000194525
0.000149518
0.000191414
0.000178203
0.000192214
0.000175941
0.05845
0.000146901
0.000148438
0.000252107
0.0284545
0.000160331
0.000166849
0.000147727
0.0125516
0.000148117
0.000147676
0.000152291
0.000148098
0.0068206
0.037526
0.000301621
0.000175377
0.0669912
0.00023189
0.000145626
0.000162873
0.000145986
0.000254039
0.000149371
0.000153878
0.00014808
0.000147423
0.000147831
0.000402293
0.000152614
0.000278362
0.000146581
0.000158603
0.000156947
0.000264285
0.000148305
0.000163291
0.000165476
0.000172682
0.0928862
0.000147399
0.022584
0.000177016
0.000164975
0.000149521
0.000147654
0.0268683
0.0121588
0.000149464
0.000148217
0.000236787
0.000232952
0.000160692
0.0429444
0.00015069
0.000290689
0.000163012
0.000145954
0.000880564
0.000153448
0.0391125
0.000148364
0.000151199
0.000148815
0.0348559
0.0315403
0.000145767
0.000180996
0.000225307
0.00014831
0.000148102
0.000147733
0.000182271
0.0486645
0.000175844
0.000155642
0.000168143
0.000148188
0.000148458
0.000153533
0.000147981
0.000217172
0.000148583
0.000178506
0.000147929
0.000165378
0.000145282
0.0413525
0.000185733
0.000148253
0.000179197
0.000162429
0.000302464
0.000153372
0.0911595
0.000176602
0.000148185
0.000185295
0.000185868
0.000155255
0.0888436
0.000177178
0.000161951
0.000304695
0.000147889
0.000188154
0.000169251
0.000183819
0.000147557
0.000147994
0.000145506
0.000159005
0.000176184
0.0001761
0.00587394
0.0358434
0.0419417
0.000149771
0.000303933
0.0364383
0.0512617
0.000148104
0.000148387
0.000177241
0.040908
0.00015319
0.00016607
0.0134731
0.033715
0.0095198
0.000171151
0.000212803
0.0309386
0.000149359
0.000145731
0.00441178
0.000233499
0.000150174
0.000150798
0.00015105
0.0763588
0.000188024
0.0146762
0.000153635
0.0306962
0.000149333
0.000289499
0.0238305
0.000149152
0.000165334
0.0616166
0.0287934
0.000175551
0.000151778
0.000152458
0.000149852
0.000187257
0.000197798
0.00488556
0.0510307
0.000146653
0.0187578
0.000196748
0.0160756
0.000148099
0.000149054
0.0284895
0.0001819
0.000147886
0.000173626
0.000167074
0.000160975
0.0415301
0.0421191
0.0852149
0.0545999
0.000154844
0.000146329
0.000166226
0.0191942
0.0799342
0.000148981
0.000184703
0.000169075
0.000191369
0.000151949
0.000149702
0.000241973
0.000281622
0.0133752
0.000276659
0.019826
0.000147699
0.000182919
0.0549946
0.000149325
0.000165624
0.000195393
0.00014588
0.00021223
0.0408345
0.000181655
0.000149695
0.0161001
0.00019958
0.0607405
0.000144885
0.000154172
0.000149112
0.000153763
0.000148974
0.000171533
0.000163047
0.000162691
0.000184852
0.000165112
0.041239
0.000154249
0.000161288
0.000158477
0.02904
0.000164947
0.0404111
0.000158095
0.000156351
0.0138331
0.000169576
0.000148695
0.000162936
0.000258381
0.0180977
0.000271192
0.00014807
0.000147617
0.000147964
0.00029547
0.00015168
0.000329696
0.000258352
0.000182081
0.000161622
0.000227406
0.0354866
0.000148947
0.0439346
0.00016038
0.00016366
0.000148127
0.00014887
0.000176349
0.0756865
0.000148445
0.0338427
0.000234339
0.000169971
0.00020769
0.00014764
0.000148119
0.00016182
0.000152868
0.0644451
0.036611
0.00017032
0.000287351
0.000148017
0.000149113
0.000149567
0.000149612
0.096405
0.000153048
0.0544604
0.000168581
0.000152052
0.000191044
0.00486878
0.0294267
0.0258258
0.000153667
0.000148242
0.000148877
0.000154466
0.000208026
0.000181742
0.0695805
0.000149044
0.000151305
0.000176952
0.000149709
0.000254744
0.000152279
0.00017539
0.000177094
0.00016297
0.000163132
0.000146379
0.000173488
0.000162624
0.00018216
0.000167984
0.00016332
0.000147016
0.000191022
0.000147484
0.00445422
0.0357141