/*--------------------------------*- C++ -*----------------------------------*\
| =========                 |                                                 |
| \\      /  F ield         | OpenFOAM: The Open Source CFD Toolbox           |
|  \\    /   O peration     | Version:  v2012                                 |
|   \\  /    A nd           | Website:  www.openfoam.com                      |
|    \\/     M anipulation  |                                                 |
\*---------------------------------------------------------------------------*/
FoamFile
{
    version     2.0;
    format      ascii;
    class       surfaceVectorField;
    location    "600";
    object      Uf_0;
}
// * * * * * * * * * * * * * * * * * * * * * * * * * * * * * * * * * * * * * //

dimensions      [0 1 -1 0 0 0 0];


internalField   nonuniform List<vector> 
20673
(
(1.12001 0.112523 1.65695e-20)
(1.1242 0.108731 -1.74863e-20)
(1.1182 0.106879 9.94756e-22)
(1.0263 0.0394973 0)
(1.02504 0.039002 -9.75696e-22)
(1.02546 0.0409173 2.65999e-21)
(0.676103 -0.0377388 -4.36084e-21)
(0.71148 -0.035371 1.39703e-21)
(0.72579 -0.0316845 7.38139e-22)
(1.05664 -0.00959705 6.38778e-21)
(1.05658 -0.00869211 -6.69874e-21)
(1.05568 -0.00914875 0)
(0.996759 0.00760925 -1.47883e-21)
(0.996556 0.00723374 6.4882e-21)
(0.996306 0.00796844 -5.66808e-21)
(0.371335 0.0863269 -1.17094e-20)
(0.35985 0.0592851 0)
(0.342627 0.0868657 0)
(0.588974 -0.0320595 2.00054e-21)
(0.59027 -0.0343604 -5.7999e-21)
(0.624726 -0.0311942 -2.22067e-21)
(0.771181 -0.0363995 0)
(0.726167 -0.0399414 -7.7734e-22)
(0.751112 -0.0412228 0)
(0.781716 -0.169639 -2.95772e-21)
(0.748074 -0.171262 1.22952e-20)
(0.706637 -0.163049 9.22317e-21)
(1.17467 0.133543 1.57361e-20)
(1.18224 0.132174 -3.57264e-20)
(1.18051 0.140317 -4.36923e-20)
(1.04825 -0.013875 2.0429e-21)
(1.04878 -0.0116357 -4.92548e-22)
(1.04605 -0.0131296 -3.64235e-22)
(1.07789 -0.00761218 0)
(1.07734 -0.00686774 7.12853e-21)
(1.07719 -0.00796108 0)
(1.05749 -0.00969564 5.08447e-21)
(0.184428 -0.0349097 5.29383e-22)
(0.233698 -0.0364671 -8.26146e-22)
(0.177299 -0.0330165 -1.81104e-21)
(0.98414 0.100849 2.8807e-22)
(0.979686 0.100675 0)
(0.982496 0.0965031 -8.95985e-23)
(1.00654 0.0932718 -1.26227e-21)
(1.00382 0.0910443 0)
(1.00748 0.0891608 -1.23275e-21)
(1.02032 0.0462912 3.45175e-22)
(1.02171 0.0457405 0)
(1.02042 0.0447214 4.94196e-22)
(1.12572 -0.0137062 8.36709e-21)
(1.12838 -0.0124298 3.59777e-20)
(1.12817 -0.016377 -4.03586e-20)
(1.0786 -0.00726729 -3.67896e-22)
(1.07836 -0.00821422 0)
(1.00208 0.00628078 0)
(1.00207 0.0059873 9.09161e-22)
(1.00183 0.00579809 8.61371e-22)
(0.999997 0.00125146 1.73653e-21)
(0.999991 0.00169797 5.24426e-21)
(1 0.00125106 -2.48108e-21)
(0.583938 -0.0330076 3.06289e-21)
(0.559268 -0.0365807 3.68045e-21)
(1.00167 0.0100697 2.3536e-21)
(1.00181 0.0106231 -2.10802e-21)
(1.00191 0.0103817 2.24114e-21)
(0.801867 -0.033912 3.15411e-24)
(0.817972 -0.0344106 9.09571e-22)
(0.997095 0.0194269 5.85492e-21)
(0.996595 0.0193124 9.64234e-21)
(0.996942 0.0199795 1.48891e-20)
(0.580642 -0.026609 -2.93538e-21)
(0.552825 -0.0275217 -2.58665e-21)
(0.554759 -0.028919 4.62595e-21)
(0.790169 0.0529975 0)
(0.78129 0.0591295 3.02771e-20)
(0.781991 0.04694 -5.6541e-20)
(0.766592 0.140318 -2.19603e-20)
(0.76551 0.153013 0)
(0.756198 0.144245 0)
(0.723686 0.598503 -5.67386e-22)
(0.756343 0.610714 0)
(0.732207 0.645583 8.11467e-22)
(1.23286 0.0433578 4.01647e-20)
(1.22983 0.0372563 4.15539e-21)
(1.23731 0.0358371 5.9993e-20)
(1.13754 0.0930919 -1.74084e-20)
(1.13465 0.0974655 0)
(1.13221 0.0924644 0)
(1.07602 0.0821135 0)
(1.07312 0.0834056 0)
(1.0734 0.0796808 0)
(0.846394 0.0850675 1.11551e-20)
(0.838719 0.0882426 0)
(0.839492 0.0786419 0)
(0.908059 0.0113456 3.04453e-20)
(0.9106 0.0080976 5.24053e-20)
(0.912189 0.01194 1.62431e-20)
(0.993003 0.0168998 -2.37728e-21)
(0.992542 0.0175335 -2.71432e-21)
(0.993283 0.0177037 -5.47266e-21)
(1.02677 0.00824285 -5.29256e-21)
(1.02523 0.00660118 1.13448e-21)
(1.03236 0.0109825 2.23365e-21)
(1.00147 0.00969726 4.9553e-22)
(1.00161 0.00951475 0)
(0.345677 -0.0576924 -2.08056e-21)
(0.32213 -0.0551691 -1.17753e-21)
(0.333096 -0.0549717 -4.14317e-21)
(1.06314 -0.0117219 7.12992e-22)
(1.0641 -0.0121423 1.73638e-20)
(0.306027 -0.0301482 1.20089e-21)
(0.279221 -0.0310705 9.69577e-22)
(0.306293 -0.0305231 -1.5295e-21)
(1.00967 0.000958377 0)
(1.01006 0.000924913 -1.04665e-21)
(1.00925 0.000552144 1.14078e-21)
(0.999999 0.000842043 -2.3678e-21)
(1 0.000388906 -2.21691e-21)
(1 0.000420764 4.59852e-22)
(1.02084 0.00196278 -4.08693e-21)
(1.02056 0.00209971 -1.05894e-21)
(1.02042 0.00184165 2.58923e-21)
(0.703467 0.220091 -6.20226e-20)
(0.720623 0.228129 -1.52762e-22)
(0.702938 0.242907 -3.94579e-20)
(1.04019 0.0206089 0)
(1.04118 0.0211949 -4.91566e-21)
(1.04129 0.0203636 -2.40305e-21)
(0.892256 0.0287269 1.1471e-20)
(0.890277 0.0242276 -2.97133e-21)
(0.895922 0.024954 1.16749e-20)
(1.12291 -0.0159873 3.10996e-20)
(1.1227 -0.0119741 3.3674e-22)
(1.10164 -0.0398381 1.53607e-20)
(1.10291 -0.0374958 9.03241e-21)
(1.09986 -0.0376517 -5.34079e-21)
(0.0932364 0.153615 3.92144e-20)
(0.0911112 0.188307 0)
(0.120925 0.167701 6.26658e-20)
(1.00396 0.000893346 7.27047e-23)
(1.00431 0.000806741 0)
(1.00425 0.00124171 0)
(1.08037 0.00767973 1.74956e-20)
(1.08143 0.00814915 1.02317e-20)
(1.0814 0.00703267 1.3615e-20)
(0.967311 0.015922 -6.40729e-21)
(0.965949 0.0146052 1.20899e-21)
(0.965744 0.0167047 2.34108e-20)
(0.0868694 0.12292 -3.93003e-20)
(0.0522897 0.158591 3.2279e-20)
(0.90522 0.0146717 2.60596e-20)
(0.903732 0.0102922 2.7904e-22)
(1.02025 0.0478643 3.44591e-22)
(1.01878 0.0465942 2.21208e-22)
(1.08622 0.0254873 -6.47442e-21)
(1.08609 0.027429 -2.31236e-20)
(1.08824 0.0265253 -6.07933e-21)
(1.04787 -0.0164503 8.95768e-21)
(1.05037 -0.0149788 3.58199e-21)
(0.998877 0.0329938 -2.17469e-22)
(0.998778 0.0317283 1.16123e-21)
(0.999925 0.0324701 2.53435e-21)
(1.0744 0.0342722 7.91087e-21)
(1.0766 0.034849 6.40046e-21)
(1.07497 0.0364945 9.252e-21)
(1.03913 0.0208239 -4.78234e-21)
(1.03919 0.0199871 6.46949e-21)
(0.528781 0.042144 1.18157e-19)
(0.379769 0.0308665 6.71837e-20)
(0.443443 0.0322531 7.57239e-20)
(1.02748 0.0386477 -2.66999e-22)
(1.02775 0.0405376 0)
(0.188165 -0.0357877 1.28733e-21)
(1.00209 0.00654296 -8.57074e-22)
(1.00233 0.00673494 5.72204e-22)
(0.380553 0.122254 -1.1943e-20)
(0.404025 0.0906521 -1.98175e-21)
(0.959023 0.33324 -1.85958e-19)
(0.911293 0.30521 3.05142e-20)
(0.638656 0.2071 -5.26625e-20)
(0.995673 0.00403571 3.44836e-21)
(0.99523 0.00439027 -1.22954e-21)
(0.987615 0.00478968 4.21919e-21)
(0.988349 0.00470826 -7.74095e-21)
(1.06308 -0.0707623 -8.33083e-21)
(1.06076 -0.0683866 7.27414e-21)
(1.05916 -0.0728849 5.22345e-21)
(1.08347 0.131207 -8.33819e-21)
(1.08911 0.130504 -1.21034e-20)
(1.08622 0.137468 1.47515e-20)
(0.997162 0.00727023 6.38809e-21)
(0.996946 0.00798678 7.36891e-23)
(0.848651 -0.177762 8.09542e-21)
(0.813428 -0.170542 -5.12365e-21)
(-0.0643009 -0.0900063 6.65483e-21)
(-0.031564 -0.101037 1.53349e-21)
(-0.0494368 -0.0992272 1.45286e-20)
(0.997781 0.0195201 -5.87814e-21)
(0.997416 0.0186701 -5.9871e-21)
(0.0914818 0.223076 6.29815e-20)
(0.125588 0.240639 1.30198e-19)
(0.0931952 0.261169 6.11502e-20)
(1.08536 -0.0017149 2.21435e-20)
(1.08589 -0.00288102 1.39773e-20)
(1.08448 -0.00292276 2.49054e-20)
(0.0405039 -0.0579132 -4.13859e-21)
(0.0633903 -0.0681308 -7.71511e-21)
(0.0546003 -0.0604645 1.67204e-21)
(1.05507 0.0212694 -3.68541e-21)
(1.05642 0.0216243 5.21368e-21)
(1.0555 0.0226326 2.79782e-21)
(0.523995 -0.0242823 -4.6344e-21)
(0.525862 -0.0257649 5.73515e-21)
(0.548924 -0.0238827 6.06778e-21)
(0.999988 0.00257966 -9.98024e-23)
(0.999953 0.00306481 3.35288e-21)
(0.999972 0.00308176 0)
(1.00019 0.00401592 2.32825e-21)
(1.00022 0.00443688 1.39225e-22)
(1.00021 0.00389637 2.06525e-21)
(0.996105 0.00414028 -4.24333e-21)
(0.390027 0.147905 -6.39595e-20)
(0.400862 0.178148 1.11848e-20)
(0.422128 0.153504 -7.23153e-21)
(0.372763 -0.0604875 1.04812e-21)
(0.362165 -0.0614389 -1.05493e-21)
(-0.14201 0.0154038 9.81572e-20)
(-0.187634 0.0102924 -1.43556e-20)
(-0.177152 0.0111497 -6.07711e-20)
(1.05366 0.021032 7.54298e-21)
(1.05458 0.0201289 -7.95673e-21)
(1.00063 0.00556277 -7.25056e-22)
(1.00068 0.00543612 -1.11631e-21)
(1.00052 0.00500041 -1.1122e-21)
(0.994009 0.364695 -2.51583e-20)
(1.15802 0.435292 -1.09046e-19)
(1.07879 0.0072685 0)
(1.07907 0.00865238 0)
(1.02109 0.00189061 -2.44696e-22)
(1.02122 0.0021346 -5.48282e-21)
(0.146051 -0.102477 -9.67096e-21)
(0.110503 -0.0942063 5.15088e-21)
(0.132115 -0.0960188 -5.72316e-21)
(1.225 0.0953107 0)
(1.21734 0.0998742 -4.15183e-20)
(1.2234 0.104848 1.21785e-20)
(1.02594 0.0216835 -2.09113e-21)
(1.02616 0.0208583 -3.94843e-21)
(1.02521 0.0209567 -1.2718e-21)
(0.98025 0.0563876 8.59015e-22)
(0.978272 0.0577692 0)
(0.980901 0.0588027 -4.86247e-21)
(1.12073 0.421677 9.53172e-20)
(0.885845 0.341625 1.72808e-20)
(0.374027 0.0320747 0)
(0.402482 0.0246712 -1.52266e-19)
(0.379504 -0.002306 -2.34889e-20)
(1.06095 -0.0362146 -2.33221e-21)
(1.06108 -0.0383521 -2.09832e-20)
(1.05859 -0.0368995 0)
(1.10831 -0.032426 -8.9877e-21)
(1.11026 -0.0345239 1.14715e-20)
(1.11122 -0.0318536 2.4497e-20)
(1.07649 0.0108024 -1.44486e-22)
(1.07577 0.0121736 2.09684e-21)
(1.07777 0.0120009 -7.92653e-21)
(0.596604 0.156509 2.22336e-20)
(0.616827 0.141578 2.77962e-20)
(0.619125 0.168399 0)
(1.01232 0.00535515 1.99112e-22)
(1.01275 0.00539098 -4.06067e-22)
(1.01261 0.00580288 2.30189e-21)
(0.84071 0.0127934 -4.44994e-21)
(0.844613 0.0200614 5.62597e-20)
(0.848411 0.0129034 -2.46073e-20)
(0.686145 0.213759 -2.36934e-20)
(0.704494 0.203976 5.14759e-20)
(1.06105 0.0157535 -1.23115e-20)
(1.06207 0.0154364 -3.40642e-21)
(1.06105 0.0145245 -1.93877e-20)
(1.01787 0.0111722 0)
(1.01785 0.0106094 1.83506e-21)
(1.01844 0.0110557 -3.28215e-21)
(0.802095 -0.196055 2.19584e-20)
(0.78977 -0.200983 -5.37837e-21)
(0.866671 -0.202504 1.91156e-21)
(0.835149 0.534893 1.02735e-21)
(0.805367 0.553936 4.08218e-21)
(0.846525 0.562585 -9.71587e-22)
(1.10052 -0.0416531 -2.34397e-20)
(1.10346 -0.0418342 5.0853e-20)
(1.02321 0.0450799 1.54178e-21)
(1.02336 0.0468528 0)
(1.13918 0.108359 -2.26597e-20)
(1.13558 0.112388 1.85596e-20)
(1.14174 0.113946 4.88177e-20)
(-0.31316 -0.0504901 8.62542e-20)
(-0.36163 -0.0492745 -2.61813e-20)
(-0.340693 -0.0513577 6.88521e-20)
(0.325248 -0.0290384 0)
(0.304546 -0.0301438 1.04874e-20)
(1.07531 -0.00280636 -7.63927e-21)
(1.07618 -0.00197351 -3.42801e-21)
(1.07497 -0.0017661 1.16616e-21)
(0.803133 -0.191534 -2.85671e-22)
(0.727346 -0.191478 1.20473e-20)
(0.949997 0.0148134 -1.84179e-21)
(0.948814 0.0168788 -3.84472e-21)
(0.94785 0.0142659 1.37738e-21)
(0.0895151 -0.102292 1.01407e-20)
(0.0975847 -0.0717177 -4.33886e-20)
(0.0601019 -0.0786111 -3.43657e-20)
(1.00268 0.0168752 2.0529e-21)
(1.00286 0.0175004 2.97976e-21)
(1.00243 0.0172898 3.09912e-21)
(0.181489 0.126592 -1.19729e-19)
(0.211909 0.10781 -8.93165e-20)
(0.213071 0.143388 -2.26279e-20)
(0.3193 -0.0309879 1.68154e-22)
(0.324101 -0.0326285 -6.72044e-21)
(0.337153 -0.0337574 -1.60576e-20)
(0.908516 0.0224305 -2.70431e-20)
(0.905953 0.0259227 -1.16817e-20)
(0.910666 0.0260028 -1.42731e-21)
(1.00002 0.00128771 0)
(1 0.00128105 3.08173e-21)
(1.06503 -0.0739262 -9.39391e-21)
(1.06643 -0.0698685 -2.39234e-20)
(0.310915 -0.0344348 1.49121e-21)
(0.327901 -0.0357653 1.52257e-21)
(0.323544 -0.0359847 1.54712e-22)
(0.768034 0.127881 1.9128e-20)
(0.780489 0.136463 1.12617e-20)
(1.00593 0.000756522 -3.89607e-22)
(1.00618 0.00108876 6.36274e-22)
(1.0063 0.000644149 -5.98743e-22)
(0.979899 0.0537474 7.96576e-22)
(0.982406 0.0547573 -3.05203e-22)
(1.03687 0.023901 3.63035e-23)
(1.03772 0.0246892 2.8407e-22)
(1.03668 0.0248524 -4.49461e-21)
(1.00557 0.000777841 -3.10665e-22)
(1.0054 0.000384562 -3.86878e-22)
(1.01799 0.00146573 6.80214e-22)
(1.01818 0.00133518 -1.3545e-21)
(1.01788 0.00124511 1.20063e-21)
(0.345859 0.0338145 1.21642e-19)
(0.397981 -0.0385473 4.23827e-22)
(0.391294 -0.0377524 -4.77671e-21)
(0.380423 -0.0362618 -2.58708e-21)
(0.951334 0.0124458 1.28739e-20)
(0.952536 0.0151015 -3.11592e-21)
(1.04217 0.0217998 -2.91878e-22)
(1.04101 0.022119 -4.63882e-21)
(0.999983 0.00123507 0)
(1.00001 0.000823927 1.65976e-21)
(1.31304 -0.169811 -3.61041e-20)
(1.2962 -0.167815 -3.45397e-20)
(1.31012 -0.184219 0)
(0.834428 -0.03008 2.08175e-21)
(0.78568 -0.0341693 1.56003e-21)
(1.12141 0.117828 3.36255e-20)
(1.11571 0.115448 1.30465e-20)
(0.580143 0.16809 -6.86108e-20)
(0.580854 0.139977 4.23295e-20)
(0.995253 0.00485229 8.80429e-21)
(0.994754 0.00468253 1.80184e-21)
(0.906653 0.0185833 7.05507e-21)
(0.911046 0.0193973 -4.92024e-20)
(1.02736 0.000851892 8.52657e-22)
(1.02908 0.00276021 7.41499e-22)
(1.03429 0.000172772 -4.48446e-22)
(1.02609 0.0109232 -3.43612e-21)
(1.0261 0.0114461 0)
(1.02538 0.0110066 0)
(0.965649 0.0277356 5.01226e-21)
(0.963609 0.028545 1.26246e-20)
(0.964071 0.0260209 1.10191e-20)
(0.668963 0.218679 0)
(0.648161 0.22515 4.95078e-21)
(0.667495 0.242031 5.74194e-20)
(0.987488 0.00550621 1.35334e-20)
(0.986869 0.00498005 1.66822e-20)
(0.995006 -0.166053 -7.17207e-23)
(0.949772 -0.168911 1.16439e-20)
(0.995196 -0.173737 1.24602e-20)
(0.820449 0.645994 3.94204e-21)
(0.828982 0.615121 -5.29621e-21)
(0.792375 0.615385 -5.0158e-21)
(0.968787 0.0174749 -2.88654e-20)
(0.969132 0.0153646 -1.16451e-20)
(1.02446 0.00911383 -2.5684e-21)
(1.02459 0.00960562 -2.55415e-21)
(1.0239 0.00920177 -8.95905e-22)
(1.0719 0.0908475 -1.16112e-20)
(1.06818 0.0919222 0)
(1.07152 0.0955224 0)
(1.08337 -0.0217293 -3.01911e-21)
(1.08275 -0.023038 9.75732e-21)
(1.08454 -0.0225327 -3.20422e-20)
(0.113548 -0.123139 4.75786e-20)
(0.0754172 -0.131879 1.06003e-19)
(1.06781 -0.0169571 -1.36415e-20)
(1.06684 -0.0180697 -2.56785e-21)
(1.06654 -0.0162431 -5.72123e-21)
(1.04745 0.18688 4.00509e-21)
(1.05021 0.181262 -4.25734e-21)
(1.05579 0.185075 1.18336e-20)
(1.08673 0.0508875 1.48392e-20)
(1.08514 0.0532876 -1.18742e-20)
(1.08375 0.050596 1.40149e-20)
(-0.0789107 0.0227492 9.29278e-21)
(-0.0929093 0.0251486 2.43066e-19)
(-0.12403 0.0197712 6.9162e-20)
(1.07787 0.132644 3.72507e-21)
(1.0803 0.126553 8.78756e-21)
(0.998254 -0.0473705 0)
(0.996887 -0.0510319 -4.8798e-21)
(0.997685 -0.0466832 2.73279e-21)
(0.0155483 -0.0487684 -6.4311e-21)
(0.026853 -0.0574551 -3.75272e-21)
(1.31585 -0.159735 -3.5048e-20)
(1.32422 -0.170582 5.92336e-20)
(0.945906 0.051075 1.22877e-21)
(0.943249 0.0529015 4.45152e-21)
(0.942773 0.0493134 -1.44806e-20)
(0.787047 -0.0105819 -2.56587e-20)
(0.781985 -0.00213927 1.53337e-20)
(0.775828 -0.0123834 4.00065e-20)
(1.00007 0.0030771 -6.10612e-22)
(1.00009 0.00295013 2.4156e-21)
(1.00003 0.00249578 -2.36019e-21)
(1.06046 -0.0336987 8.94553e-22)
(1.06304 -0.0351244 -2.57481e-21)
(1.07437 -0.00372375 -6.7798e-21)
(1.07556 -0.00391026 -9.04879e-21)
(1.0767 0.00964336 9.81182e-21)
(1.07512 0.0098365 7.1458e-21)
(1.06105 0.0167913 1.99308e-21)
(1.06 0.0159584 8.21593e-21)
(1.09348 -0.0279504 -1.1305e-20)
(1.09162 -0.0277262 4.17431e-20)
(1.09229 -0.0298787 4.3053e-20)
(1.03381 0.0175623 -6.23827e-21)
(1.03469 0.0180932 6.34305e-22)
(1.03373 0.0184032 -1.97648e-21)
(0.837088 0.00642314 -1.22912e-20)
(0.832683 0.0142981 3.59335e-20)
(1.07481 0.177437 1.82169e-20)
(1.06671 0.177588 0)
(1.07186 0.170201 -1.13253e-20)
(-0.507135 -0.0249903 3.18469e-20)
(-0.531993 -0.025171 -1.37213e-20)
(-0.489501 -0.0258801 0)
(1.07815 0.000634502 7.69278e-21)
(1.07738 0.0016113 7.39893e-21)
(1.07689 0.000248907 -3.82789e-21)
(1.02018 0.0542827 2.03725e-22)
(1.02036 0.0561068 1.24145e-21)
(1.01843 0.0551238 -1.0935e-21)
(1.01554 -0.118481 -1.90531e-22)
(1.01658 -0.125241 9.01523e-22)
(1.02532 -0.12046 -3.43894e-21)
(1.04041 0.207519 -3.90752e-21)
(1.03778 0.213429 7.1587e-21)
(1.04641 0.21243 8.75147e-21)
(0.403863 -0.0378025 5.35045e-21)
(0.41867 -0.0386902 5.07736e-21)
(0.149526 0.109396 -3.10114e-20)
(0.15111 0.147472 2.92077e-20)
(0.998851 -0.159285 -7.83601e-21)
(1.02625 -0.162961 0)
(1.01576 0.025927 2.65673e-22)
(1.0165 0.0264524 1.85563e-21)
(1.01569 0.026829 5.77994e-22)
(1.23217 0.0918057 -4.13209e-20)
(1.22587 0.0872288 -3.05001e-20)
(1.14389 0.0935464 -3.85216e-20)
(1.14081 0.0885662 4.9435e-21)
(1.02673 0.0107944 4.78231e-22)
(1.02599 0.0103754 -3.42863e-21)
(1.00061 0.00572556 1.68277e-21)
(1.00075 0.00616189 3.65199e-21)
(0.947809 0.125969 -5.42964e-21)
(0.94337 0.12223 -1.89118e-20)
(0.949587 0.121078 5.76876e-21)
(0.610083 -0.0248193 5.00342e-21)
(0.612039 -0.0252238 -1.246e-24)
(1.33905 0.0875171 0)
(1.34905 0.0829162 4.17731e-20)
(1.35155 0.0941891 -4.31243e-20)
(-0.0648395 0.0243106 -3.4753e-20)
(-0.0109459 0.0341921 1.32754e-20)
(1.11528 0.0179345 -1.31385e-20)
(1.11596 0.020419 2.63981e-20)
(1.11798 0.018227 -2.73791e-20)
(1.06732 0.00324594 -8.73324e-22)
(1.06832 0.00424583 2.07378e-20)
(1.06695 0.00440227 -7.3312e-22)
(1.02343 -0.0215001 -1.45929e-20)
(1.01907 -0.0194548 4.23289e-21)
(1.01804 -0.0231498 -5.43524e-21)
(-0.0927238 0.0196966 -1.03556e-20)
(-0.105023 0.0183101 9.55245e-20)
(1.33587 0.157342 4.14789e-20)
(1.33609 0.147148 9.7465e-22)
(1.34637 0.152327 -8.20371e-20)
(1.00055 0.0110968 -2.77429e-21)
(1.00056 0.0105553 -2.76155e-21)
(1.00039 0.0105258 2.41803e-21)
(0.567693 0.0779893 0)
(0.574101 0.0981866 0)
(0.548637 0.092939 5.30267e-20)
(0.798469 0.0491332 0)
(0.798282 0.0603964 0)
(1.01056 0.000352276 -1.33977e-21)
(1.01022 0.000347671 6.66168e-22)
(1.02563 0.0223753 2.47985e-21)
(1.02668 0.0223501 -2.96555e-21)
(0.887153 0.499631 5.59004e-22)
(0.881697 0.470327 1.58597e-21)
(0.910855 0.479855 -1.81808e-21)
(1.22017 0.511275 -9.91699e-21)
(1.21198 0.484468 -3.31894e-20)
(1.02595 0.407774 1.50342e-20)
(1.07109 -0.00232375 0)
(1.07183 -0.00283951 0)
(1.07208 -0.00206599 -3.52362e-22)
(1.00375 0.00107457 6.57031e-23)
(1.00373 0.000670819 -3.39005e-22)
(1.08857 -0.0239029 -1.17793e-20)
(1.08925 -0.0224433 2.37567e-20)
(1.09026 -0.0243395 2.09247e-20)
(1.08213 -0.0212732 -7.8775e-23)
(1.08328 -0.0205087 -3.00188e-21)
(-0.0771829 -0.0814846 -1.43305e-20)
(-0.0939562 -0.0803836 9.4112e-21)
(1.13886 -0.186967 0)
(1.12866 -0.182667 2.60259e-20)
(1.13309 -0.176032 0)
(0.993412 0.0164639 -3.75564e-23)
(0.992905 0.0163579 3.04745e-21)
(0.997824 0.0333674 5.53984e-21)
(0.998949 0.0340497 6.51771e-21)
(1.10653 -0.0304861 -4.08298e-21)
(1.10543 -0.0328346 1.69372e-20)
(0.630414 -0.0301467 0)
(0.670262 -0.0258822 2.69705e-21)
(0.663895 -0.0275196 0)
(0.96746 0.0266647 5.2036e-21)
(0.967436 0.0290163 9.51059e-21)
(0.588272 -0.0358142 -4.27698e-21)
(0.585614 -0.0374228 -9.6622e-22)
(0.624833 -0.0339235 3.71663e-21)
(-0.147013 -0.0611967 -1.66794e-21)
(-0.120162 -0.0698016 1.72879e-20)
(-0.131303 -0.0613091 2.43215e-21)
(1.06759 0.00182649 -2.6063e-24)
(1.066 0.00227043 -9.18662e-21)
(1.01743 0.011202 2.7712e-21)
(1.01791 0.0116073 -8.47266e-22)
(0.495505 0.419316 2.41535e-20)
(0.515244 0.455032 2.74603e-20)
(0.46142 0.455666 0)
(1.10172 -0.0247397 0)
(1.10325 -0.0266191 -2.02837e-20)
(1.10409 -0.0242499 0)
(-0.481448 -0.045258 5.53159e-20)
(-0.437506 -0.0525404 -3.46703e-20)
(-0.458837 -0.0461409 3.60532e-21)
(1.00529 0.0206006 -1.45681e-21)
(1.00573 0.0208445 -9.25974e-22)
(1.00538 0.0213434 2.58846e-21)
(0.679605 0.0547401 -8.01271e-20)
(0.626434 0.0564332 5.71471e-21)
(1.01495 0.025353 2.65109e-22)
(1.01575 0.0250819 -3.18281e-22)
(1.21429 0.0100168 6.40928e-21)
(1.20797 0.0090458 -3.16084e-20)
(1.21025 0.0147618 -5.2457e-21)
(1.00951 0.00123792 0)
(1.00932 0.0008752 0)
(0.323481 -0.070131 -7.99453e-25)
(0.298552 -0.0677688 9.10684e-22)
(0.317699 -0.0675194 8.971e-22)
(0.778051 -0.204838 -1.74287e-20)
(0.765305 -0.207798 0)
(0.842702 -0.210532 0)
(1.00642 0.0967851 3.01587e-21)
(1.00995 0.0949572 -1.07907e-21)
(1.2328 0.536241 -5.34504e-20)
(1.25192 0.538257 3.88406e-20)
(1.24821 0.518477 4.62239e-20)
(1.08969 0.0509229 1.77833e-20)
(1.08763 0.0484217 -1.28574e-20)
(1.01678 0.0111841 -6.89035e-22)
(1.01684 0.0106378 6.40361e-21)
(1.02964 0.00763634 0)
(1.02761 0.0101085 7.16727e-22)
(1.0794 0.000931832 -4.06802e-22)
(1.07892 -0.000388724 0)
(1.11273 0.017656 -1.45097e-20)
(1.11446 0.0155718 1.08483e-20)
(0.796964 -0.0284529 -2.2512e-21)
(0.752874 -0.03291 6.63738e-22)
(0.807387 -0.0245509 -1.85748e-22)
(-0.163994 -0.0545145 3.46629e-22)
(-0.179125 -0.0491669 -1.70699e-20)
(1.01309 0.00278786 -1.94812e-21)
(1.01344 0.00280096 2.69708e-21)
(1.01323 0.00243637 1.20839e-21)
(1.07886 0.0804806 0)
(1.07887 0.0846153 1.49271e-20)
(0.167577 -0.112045 -1.17498e-20)
(0.189757 -0.112338 2.74937e-21)
(-0.185021 0.00763647 0)
(-0.216168 0.00352319 -4.45936e-20)
(-0.187008 0.00719226 0)
(1.00006 0.0030685 -2.64679e-21)
(1.00007 0.00360339 -2.81578e-21)
(1.00748 0.00992798 -3.27822e-24)
(1.00795 0.0100957 -3.4499e-24)
(1.00771 0.0103972 -4.13858e-23)
(0.310949 -0.0277833 1.65251e-20)
(0.326841 -0.0271446 2.59494e-20)
(1.0588 -0.0454519 1.81116e-21)
(1.05819 -0.0428227 -6.65384e-22)
(1.05609 -0.0447548 -1.0901e-20)
(1.00006 0.000146951 0)
(1.00003 0.00011111 0)
(1.00006 0.000184282 5.56439e-22)
(1.03962 0.0115133 1.6824e-21)
(1.04138 0.0132855 1.02364e-21)
(1.0455 0.0109084 -3.83943e-23)
(1.15555 -0.0519448 2.12865e-20)
(1.15096 -0.0541538 -1.98746e-20)
(1.15098 -0.0481319 -2.39249e-20)
(0.796389 -0.010863 -5.34579e-20)
(0.791485 -0.0203242 -1.07492e-19)
(1.11225 0.0941418 1.15347e-20)
(1.11624 0.0973284 1.81979e-20)
(1.11572 0.0917086 6.87384e-22)
(1.0001 0.00350099 0)
(1.00011 0.00291209 2.02253e-21)
(1.00369 0.22301 4.89494e-22)
(1.00448 0.212241 -9.80626e-22)
(0.994147 0.217652 4.92387e-22)
(-0.0723445 -0.0618035 1.47238e-20)
(-0.0615699 -0.0595012 1.19556e-20)
(-0.0945315 -0.048757 1.26517e-20)
(1.04065 0.00259739 1.93461e-21)
(1.04087 0.00203988 0)
(1.04162 0.00247369 -2.36766e-21)
(1.25898 0.10912 3.38559e-20)
(1.25198 0.115121 -6.89662e-20)
(1.25091 0.104171 1.1536e-20)
(0.570407 0.186262 -5.77385e-20)
(0.586562 0.207165 7.52647e-20)
(0.556135 0.213119 3.17522e-20)
(1.03602 0.0230964 1.54004e-21)
(1.037 0.0228876 3.47487e-21)
(0.998739 0.0305961 1.14137e-21)
(0.997789 0.0310512 6.15322e-21)
(1.07335 -0.0156196 1.1839e-20)
(1.07245 -0.0160977 2.67132e-21)
(1.07259 -0.0148934 3.15979e-21)
(0.354232 -0.0272566 -5.44025e-21)
(0.33861 -0.027779 5.8063e-22)
(0.341168 -0.0277765 -4.41445e-21)
(1.06879 -0.0159357 -9.14607e-23)
(1.06909 -0.0175901 7.38706e-21)
(0.951268 0.130269 0)
(0.945421 0.132158 6.9809e-21)
(0.988236 0.100188 -4.34102e-21)
(0.985993 0.104448 2.31652e-22)
(1.00006 0.000319021 -5.08223e-22)
(1.00006 0.000277016 1.45456e-23)
(1.00002 0.000184746 -4.8412e-22)
(0.293037 -0.0331589 0)
(0.297814 -0.0333384 0)
(0.851031 -0.202166 -1.69886e-20)
(0.940941 -0.213311 1.19319e-20)
(0.926987 -0.20528 6.72991e-20)
(1.05145 0.0235313 0)
(1.05039 0.0237169 0)
(1.05918 0.0271982 0)
(1.01629 0.0112077 -1.41462e-21)
(1.01677 0.0116274 -3.0632e-21)
(-0.22872 -0.0808599 2.22714e-20)
(-0.191156 -0.0925766 -5.43682e-21)
(-0.213946 -0.0874599 2.44778e-20)
(0.231908 -0.0420328 2.12731e-22)
(0.2371 -0.0407176 0)
(0.212082 -0.0375951 0)
(1.00222 -0.0479034 1.55224e-21)
(1.00146 -0.0433454 2.61372e-21)
(0.519518 -0.0252334 -7.31648e-21)
(0.502439 -0.0272443 -6.66282e-21)
(1.08466 -0.000734997 1.77508e-20)
(1.08614 -0.000598505 -1.34633e-20)
(1.00015 0.00412595 0)
(1.00745 0.000817713 -1.70451e-22)
(1.00708 0.000880056 6.54593e-22)
(1.00751 0.00127181 -2.18747e-22)
(1.12092 -0.0171891 6.91626e-21)
(1.1185 -0.0155273 -2.9727e-21)
(1.11842 -0.0186034 -2.13841e-20)
(0.242321 -0.0713616 -3.35215e-21)
(0.225052 -0.0653499 -8.36461e-22)
(0.216619 -0.0667221 1.51877e-22)
(1.10001 -0.0700436 -8.40247e-21)
(1.10359 -0.0716087 -6.03922e-20)
(1.09927 -0.0744006 -5.48919e-20)
(1.0722 0.0339523 7.42628e-21)
(1.07365 0.0324916 -7.37329e-22)
(1.15133 -0.190777 0)
(1.15203 -0.198481 0)
(1.08036 -0.0139316 -7.44826e-21)
(1.08 -0.0144476 -1.53607e-21)
(1.01779 0.00077917 3.29291e-23)
(1.0178 0.00099295 -4.51568e-23)
(1.018 0.000881148 -5.18921e-21)
(1.06668 -0.0693043 -3.53671e-20)
(1.0658 -0.076907 4.2934e-21)
(0.962962 -0.0811041 -1.28819e-19)
(1.00257 0.00606389 -1.21846e-23)
(1.00256 0.00578796 -4.08916e-23)
(1.00231 0.00564584 0)
(1.01446 -0.112675 4.06581e-21)
(0.986466 -0.116334 8.28148e-23)
(1.07025 -0.00156103 9.25091e-21)
(1.06994 -0.00242769 -7.41777e-21)
(1.00007 0.000113876 -3.66523e-22)
(1.00011 0.00018187 0)
(1.0149 0.110356 3.13739e-22)
(1.01415 0.115422 -7.02434e-22)
(1.01065 0.111089 7.71611e-22)
(1.04606 0.193312 3.59994e-21)
(1.04057 0.187921 6.7642e-22)
(0.77707 0.00843396 -3.09601e-20)
(0.78781 0.00826214 1.92841e-21)
(1.03548 0.0132867 5.62495e-22)
(1.03754 0.0104045 3.83633e-21)
(1.01653 0.14736 -4.81583e-22)
(1.01741 0.153815 -4.19227e-22)
(1.01066 0.150068 -1.90986e-21)
(1.04386 0.00740498 1.98748e-20)
(1.04451 0.00806463 -7.64718e-21)
(1.04346 0.00793653 2.60513e-21)
(1.2618 -0.121511 -1.73083e-20)
(1.27032 -0.115501 2.58869e-21)
(1.27626 -0.125019 -3.30478e-20)
(0.832985 -0.0241046 -1.18263e-21)
(0.782757 -0.0328771 1.92365e-22)
(0.773526 -0.204626 -9.5156e-21)
(0.77036 -0.199725 -2.84155e-20)
(1.00482 0.020512 -2.62582e-21)
(1.00512 0.0200561 -3.37461e-22)
(1.00258 -0.0649337 -5.42631e-21)
(0.998651 -0.0674198 6.35114e-21)
(1.00401 -0.0703891 -7.2177e-21)
(0.998523 0.00288394 -2.75944e-22)
(0.998423 0.00320343 -2.7398e-21)
(0.998213 0.00319753 -1.38869e-21)
(1.04344 0.0067362 3.38435e-21)
(1.04449 0.00681431 9.10221e-21)
(1.00248 0.016201 -4.99373e-21)
(1.0029 0.0164273 -1.50475e-21)
(0.851522 0.679052 -6.23199e-21)
(0.801309 0.684098 -1.23751e-21)
(1.00191 0.00114431 -2.64118e-22)
(1.00207 0.000996276 0)
(1.00177 0.000897311 4.71297e-23)
(1.22033 0.0108626 8.0842e-22)
(1.21801 0.00516732 3.05692e-20)
(1.10871 0.0976893 -3.78317e-21)
(1.10786 0.0920075 1.13243e-20)
(1.03289 0.0169855 -4.56188e-22)
(1.03382 0.0167426 -3.08312e-21)
(1.08785 -0.0256414 -2.81256e-20)
(1.08696 -0.0235328 -1.85169e-20)
(1.04416 0.0530639 2.27666e-21)
(1.04474 0.0512446 -7.10149e-23)
(1.04641 0.0527809 -5.803e-21)
(0.120256 0.0883455 1.29833e-19)
(0.106733 0.0729529 2.0823e-20)
(0.10717 0.104043 3.84822e-20)
(1.04378 0.201062 -1.12471e-20)
(1.03561 0.202214 -5.33188e-21)
(1.21157 0.093144 -6.34378e-20)
(1.20935 0.101954 -1.54937e-21)
(1.03094 0.0117204 -3.17301e-21)
(1.03165 0.0122635 -2.67922e-21)
(1.0316 0.0115299 -9.50504e-22)
(0.999619 0.0301385 0)
(0.998681 0.0295629 -1.18197e-21)
(-0.345091 -0.0427164 1.72793e-19)
(-0.379835 -0.0430169 4.76253e-20)
(-0.387497 -0.0412659 -1.87014e-20)
(0.303498 -0.0362138 -1.34365e-21)
(0.297561 -0.0352649 1.2686e-21)
(0.317114 -0.0379164 -1.29837e-21)
(1.00294 0.0181494 1.14475e-21)
(1.00325 0.0177354 3.39219e-22)
(1.00819 0.000737965 -3.91372e-22)
(1.00864 0.000976846 0)
(1.0082 0.00129204 -7.13015e-22)
(1.04755 -0.0653608 0)
(1.17704 -0.067802 0)
(1.01857 0.0238273 -4.69129e-22)
(1.01891 0.024741 -1.21306e-21)
(1.01963 0.024127 -2.87917e-21)
(0.00762104 -0.111423 -2.7751e-20)
(-0.0119017 -0.102712 -1.3979e-20)
(1.03017 0.0113386 8.05863e-23)
(1.03026 0.0120734 -1.80829e-21)
(0.328599 -0.0728804 -1.03006e-21)
(0.349197 -0.072608 -9.13342e-22)
(1.04755 -0.00449123 -6.63387e-21)
(1.0471 -0.00509847 9.03018e-21)
(1.048 -0.0050745 0)
(1.28415 0.346457 1.92523e-20)
(1.26915 0.344471 -7.02592e-22)
(1.27452 0.360475 -4.02525e-20)
(1.08823 -0.00462116 -3.57756e-20)
(1.08893 -0.0033804 -3.48955e-21)
(1.08999 -0.00476502 -2.23641e-20)
(0.0977111 0.336164 -6.99736e-20)
(0.0962612 0.295956 -1.93237e-20)
(0.131306 0.313544 5.57132e-20)
(0.949306 0.052016 3.30637e-21)
(0.948506 0.0486037 6.34736e-21)
(1.30135 -0.149515 -5.4601e-20)
(1.32826 -0.151795 0)
(0.519041 0.324591 0)
(0.492141 0.335461 5.96856e-20)
(0.520374 0.357437 -2.34404e-20)
(1.01913 0.11002 3.9891e-22)
(1.01603 0.10691 -4.93239e-22)
(1.06079 -0.0460821 -3.53933e-21)
(1.05915 -0.0484659 1.34869e-20)
(0.978932 0.552774 0)
(0.997347 0.572965 0)
(0.965377 0.577824 0)
(1.00197 0.0452845 -1.23592e-21)
(1.00045 0.0450485 7.06433e-22)
(1.00109 0.0467126 5.25595e-22)
(0.379446 -0.044782 -1.69215e-21)
(0.35882 -0.0433339 2.04179e-21)
(0.365498 -0.0431831 -2.49936e-21)
(0.582407 0.0663423 0)
(0.561548 0.0582395 -1.23057e-19)
(0.24727 -0.0449262 9.7901e-22)
(0.229665 -0.0424851 -1.87e-21)
(0.924839 0.0267999 5.26209e-21)
(0.921276 0.0283226 5.69042e-22)
(0.924356 0.0309199 1.55699e-20)
(0.315996 -0.0312629 -2.54352e-21)
(0.290488 -0.0315326 -1.39989e-27)
(0.315737 -0.0312841 2.34909e-27)
(1.08198 0.0788708 2.38909e-23)
(1.0851 0.0820134 2.32289e-20)
(1.08542 0.0780306 -5.6514e-21)
(-0.213065 -0.00849079 1.00729e-19)
(-0.170194 -0.00642001 1.06225e-19)
(-0.155941 -0.00886963 -7.29998e-20)
(0.525099 0.292636 4.24295e-20)
(0.551345 0.315915 0)
(0.9524 0.378879 -2.20458e-21)
(0.934335 0.376552 1.14484e-21)
(0.944594 0.395515 1.23152e-21)
(0.972223 0.38437 2.21252e-21)
(0.962632 0.364593 -5.7403e-22)
(0.645938 -0.039937 -4.2459e-21)
(0.628515 -0.0428857 -4.00977e-21)
(0.999848 0.00355667 -4.01619e-22)
(0.999809 0.00403444 1.50164e-21)
(0.999834 0.00403246 -4.09351e-21)
(1.0825 0.175255 -9.42673e-21)
(1.07999 0.183632 9.98715e-21)
(-0.255789 -0.0544443 -3.42036e-20)
(-0.278729 -0.0505193 4.13683e-20)
(0.98671 0.0336954 -6.91387e-23)
(0.985932 0.0345737 -6.44407e-21)
(0.985419 0.0330966 -7.78554e-21)
(1.01143 0.074241 -3.19131e-22)
(1.01192 0.0716841 -1.82026e-21)
(1.00918 0.0725546 -7.13587e-22)
(0.252603 -0.0409038 0)
(0.259496 -0.0407158 0)
(0.862215 0.519536 -2.57575e-21)
(0.896837 0.528562 1.12816e-21)
(1.02342 0.0504658 7.74155e-22)
(1.02364 0.0521011 7.52574e-23)
(1.02541 0.0512355 1.21969e-21)
(1.02766 -0.0240443 -1.42887e-20)
(1.02859 -0.0204613 -3.55907e-22)
(0.687136 0.592953 2.42872e-20)
(0.714922 0.563938 -2.47999e-20)
(1.01038 0.00505403 -5.83643e-22)
(1.01081 0.00524907 0)
(1.01071 0.00476538 1.95289e-22)
(0.314916 -0.0317309 1.30589e-20)
(0.293666 -0.0306275 8.72283e-22)
(1.02273 -0.00547826 4.75358e-21)
(1.01917 -0.00265123 2.47093e-21)
(1.02521 -0.00334041 -8.58658e-21)
(1.00258 0.00633505 -8.70914e-22)
(1.00284 0.00648641 7.75717e-22)
(1.01181 0.0133209 -7.36043e-22)
(1.01127 0.0130856 -7.90459e-22)
(1.01151 0.013681 9.08987e-23)
(0.998485 0.00258804 4.19948e-21)
(0.998744 0.00253201 4.9568e-21)
(1.02512 0.00903895 2.14016e-21)