/*--------------------------------*- C++ -*----------------------------------*\
| =========                 |                                                 |
| \\      /  F ield         | OpenFOAM: The Open Source CFD Toolbox           |
|  \\    /   O peration     | Version:  v2012                                 |
|   \\  /    A nd           | Website:  www.openfoam.com                      |
|    \\/     M anipulation  |                                                 |
\*---------------------------------------------------------------------------*/
FoamFile
{
    version     2.0;
    format      ascii;
    class       volScalarField;
    location    "500";
    object      ddt0(omega);
}
// * * * * * * * * * * * * * * * * * * * * * * * * * * * * * * * * * * * * * //

dimensions      [0 0 -2 0 0 0 0];


internalField   nonuniform List<scalar> 
13851
(
3.98616e-05
-0.0243862
0.000161368
3.56881e-05
9.85057e-05
0.046918
4.20266e-06
9.08031e-05
3.58523e-06
-0.00039086
-0.00805053
-0.0653212
-0.0232247
0.329663
8.49875e-06
6.0431e-05
2.57522e-05
-5.6046e-05
-0.00900564
3.61435e-06
3.23917e-05
0.000390603
-3.58144e-06
2.80928e-06
-3.82879e-06
9.03397e-05
9.70236e-06
-1.02394
3.56329e-05
-2.59326e-06
0.173229
2.7145e-05
0.000538428
0.0154365
2.66505e-06
0.00207548
0.190423
-0.00484792
-0.000339664
-0.0523969
5.95986e-06
-8.04919e-08
0.0600791
0.0116275
-0.0131161
1.90423
0.0147262
-0.210305
9.47768e-06
0.0922974
-0.00015464
-0.000440818
-0.082874
9.05276e-06
8.66277e-06
-1.26795e-07
1.41583e-06
-0.110663
-2.84945e-06
4.62109e-06
-0.00203449
-0.5127
-9.14402e-05
4.66027e-05
-0.392134
7.35138e-05
0.167007
0.036124
2.27803e-05
-6.61154e-05
0.00451245
0.0655277
-0.070973
9.42994e-06
6.50867e-06
5.19101e-06
6.58883e-05
-0.0152156
0.0001115
0.00730846
5.67434e-06
-0.000589815
5.79717e-06
1.40066
0.000709981
-0.0735597
0.0121858
-0.0947459
2.05269e-05
8.79696e-06
0.00111944
-0.00328498
0.0411849
2.44596e-05
1.85082e-05
2.518e-07
0.000178198
-0.0129412
0.122539
-1.7809e-07
-0.943069
4.16602e-05
8.64497e-06
3.59656e-06
-4.13903e-06
0.0140559
-2.69082e-05
9.57483e-08
0.0223734
0.0585537
2.86869e-07
9.98397e-06
-0.000701561
1.30101e-06
6.61608e-07
0.418752
-0.00835768
1.48518e-07
5.50463e-06
9.07661e-06
0.199781
3.88169e-06
-0.028544
0.104249
-0.262324
0.000286117
-0.182026
7.41589e-05
2.75003e-05
-9.68189e-05
6.10792e-06
3.77424e-06
0.00417572
5.92664e-06
0.419288
4.6519e-06
1.99281e-07
0.0738443
-0.0275071
-0.176733
-0.796213
8.53249e-06
-1.70356e-05
-1.51789e-06
1.61415e-05
0.0347458
-0.0232281
1.54683e-05
4.5119e-06
-0.0452759
-0.000352388
7.71095e-06
0.444547
1.37317e-06
1.11285e-05
1.49237e-05
5.12317e-06
1.34753e-06
-0.000441088
-0.000182033
-1.20781e-06
1.27671e-05
-0.0888969
3.7329e-06
6.11978e-05
4.27866e-07
-0.0366449
2.28206e-05
2.49375e-05
-0.440822
-0.0169456
2.41993e-06
5.12896e-06
-0.173673
3.7709e-06
-0.28965
9.21876e-05
-1.34744e-05
-0.0223212
6.16578e-08
3.26408e-05
0.0534618
6.34866e-06
0.000151302
-1.33073e-07
-2.04449e-06
6.53836e-05
8.03095e-06
0.000233817
-0.00305638
0.0304517
-0.0662524
1.02876e-05
3.75467e-05
-0.366044
1.04991e-05
-8.10997e-06
-0.0650267
-1.21815e-05
5.4205e-06
0.000309668
-0.351548
5.51184e-06
5.14391e-06
-0.000858646
6.12446e-06
-0.0315141
2.41747e-05
9.58086e-05
1.79874e-07
-0.0266869
8.73822e-06
-0.0562497
2.69088e-07
-4.19546e-07
-0.078781
0.00113067
2.17518
8.07663e-06
-0.000950417
2.49639e-05
5.71907e-06
-0.00940579
-0.00034165
-0.0363796
-2.08432e-06
3.17471e-05
-5.24383e-06
-0.0237519
2.55212e-07
7.34536e-05
0.483018
2.41628e-06
8.92871e-06
-0.000167541
0.000641652
0.183255
-0.649841
-2.01413e-06
5.19366e-06
0.139733
0.162697
-2.43877e-05
-0.00107222
-3.6725e-06
-0.0258346
6.63509e-05
-0.106543
1.47891e-05
3.91865e-05
0.000352146
0.177339
6.67089e-06
1.61386e-05
-8.2941e-05
-0.010379
-0.000895701
0.0725261
0.259808
6.74369e-06
-6.0908e-07
-7.40166e-05
-0.0476416
1.10403e-05
-0.0569771
1.07229e-05
6.49132e-06
2.38964e-05
-0.0130094
0.0106468
0.000338609
1.14248e-05
-0.034066
0.000124715
7.60989e-05
3.86628e-06
-0.00811742
-0.0690386
-0.0441651
-0.0339
-2.07433e-05
3.26013e-07
-3.91344e-06
-6.75835e-05
-0.0745637
-0.338542
4.17349e-06
8.20245e-06
-0.0250255
-0.00358628
-0.000261053
-1.37562e-06
4.85349e-06
3.47685e-05
-0.000176625
-0.0652487
5.33517e-05
-0.10155
3.62925e-06
-0.0273595
1.30683e-05
2.60498e-05
-0.042305
3.99331e-06
0.0199783
-0.00752834
4.3935e-06
-2.18127e-05
2.65398e-05
-1.89699e-06
-0.0454342
5.84857e-05
5.77001e-06
-0.00470162
8.58259e-08
4.00172e-05
0.000764594
-0.0392227
-0.000192307
7.73335e-06
-1.81034e-05
7.81757e-06
0.199035
-5.80927e-05
-2.75452e-06
6.95104e-06
-8.36006e-06
2.87249e-05
9.58426e-06
8.20089e-06
4.21906e-06
5.48176e-06
-0.0165816
-0.0971939
-0.403248
-0.000116174
-0.0378153
0.0854483
8.71034e-06
4.52211e-05
-5.38744e-05
-0.0015008
0.001985
-0.000579736
-0.0546545
-4.66857e-05
-0.0503372
-0.0158848
8.89581e-06
0.0663253
0.0692765
0.291015
9.12716e-06
0.00238848
-0.0397931
5.05917e-06
-0.0511202
7.03802e-06
8.19951e-06
-2.90716e-06
1.18415e-07
4.84238e-06
-0.0200932
-0.0357171
4.16805e-06
5.08678e-06
5.03428e-08
-0.112237
0.000100643
-0.148433
-0.303966
4.08311e-06
0.00159921
2.91381e-05
-0.176826
5.3139e-06
1.3728e-07
-0.000497779
-0.935223
7.21e-06
-0.0937797
-0.00186107
-0.000554235
-0.924603
0.0465557
0.0286273
0.000203007
4.03713e-06
1.01418e-05
-0.000110274
-1.88941e-05
0.314784
1.30176e-05
-0.0370487
-0.010899
1.13548e-07
6.83996e-06
-0.593446
0.0081244
0.386135
-0.00556437
0.000385498
3.21517e-05
-1.52285e-06
0.0691411
2.36912e-06
5.69802e-05
0.000165269
4.83357e-06
-5.04123e-06
4.2945e-06
3.70208e-07
2.49529e-05
0.00096314
0.0835223
-0.000100796
-6.91731e-05
0.000461212
0.10527
5.11091e-05
0.183694
2.47023e-05
-0.0722846
1.79248e-07
4.23068e-06
-3.02168e-06
-0.0124689
0.0203256
-0.000420559
0.0002495
0.140682
0.035005
0.00747905
8.51501e-06
-0.000210301
5.32057e-06
0.0318786
-4.1294e-06
0.118395
-0.11038
0.000122755
0.00236644
-1.5233e-05
-0.0691684
-0.0890034
-1.36467
1.23765e-07
3.5768e-05
9.42625e-05
0.00227932
2.36207e-06
4.95681e-06
-0.000308679
-0.000461143
-6.89826e-05
-0.0258027
-2.8509e-06
7.24391e-06
0.259563
7.77404e-05
2.42297e-07
0.0463327
3.99503e-06
4.305e-05
3.04174e-06
0.000376369
7.50782e-09
3.51413e-07
-1.07908e-05
-0.0103925
5.69745e-06
1.88908e-05
4.74908e-06
9.55474e-05
-0.0751558
1.66932e-06
3.60848e-06
1.45506e-06
1.1931e-06
-0.4154
6.67933e-06
0.0200594
6.44552e-06
-1.34369e-06
-0.55545
0.0032848
6.16322e-06
0.0001079
4.92938e-05
0.195095
2.27752
6.89266e-06
-0.0250928
5.6087e-06
0.000178587
5.05403e-06
0.0919709
1.15461e-07
-0.112351
-0.00129972
-2.80747e-08
5.10924e-05
-0.0775848
4.70143e-05
-0.0100797
6.27244e-06
0.114969
9.20202e-06
3.6207e-06
3.43863e-06
4.51585e-06
0.0055515
-9.15255e-05
-0.000265789
0.0797786
0.000486633
5.2664e-07
-0.0206906
0.0171625
3.17142e-05
1.60363e-05
0.193545
0.242184
-0.0221805
1.09938e-05
0.0795756
0.925545
1.04007
7.18267e-05
7.95904e-05
-0.0664383
-0.0827593
0.00630933
-0.0741125
0.0664259
1.21315e-06
0.082498
0.0484569
2.20818e-07
-0.0894935
-0.000114572
0.00066305
1.57653e-05
5.90432e-06
5.05216e-06
5.42962e-06
0.000101544
0.000323895
-0.115644
-0.0121952
3.92849e-06
0.144668
0.00201735
0.108162
-0.0340534
2.81536e-05
2.41702e-07
4.01119e-06
-0.0266701
-0.0200804
1.10604e-05
-0.000385268
0.000930591
-1.40356e-07
0.00206552
0.146435
0.0940823
-0.000314011
0.00342121
0.0490848
5.75518e-06
4.77559e-06
0.183665
-0.00808716
-0.000328502
7.56796e-06
0.00100037
1.13641e-07
5.79115e-06
0.0964775
-1.27338e-07
1.41885e-05
1.64791e-07
4.8777e-06
0.0400765
-2.02142e-05
0.000112792
-8.70278e-08
-0.10592
-0.0608244
3.80937e-06
7.06771e-07
1.15308e-05
1.03729e-05
-0.752928
-0.0882972
-0.076109
1.58681
0.0407076
7.32173e-06
-0.00713541
0.00239356
-0.000117682
3.13571e-05
2.18136e-07
0.000630608
3.8962e-05
-0.0215134
-0.0393997
-0.000310676
3.66875e-05
3.63062e-06
9.11824e-05
-3.66373e-06
0.00116403
-7.58205e-05
6.54427e-06
-0.000114848
2.48632e-06
2.13301e-05
-0.000423767
4.72358e-06
5.0798e-06
1.00832e-05
5.85475e-06
0.000211964
-0.00671128
-0.000541661
0.000107101
-0.000211637
3.59062e-06
0.104407
0.000413451
1.64396
8.20107e-06
8.47268e-08
0.0306792
-1.25211e-05
-1.08271
-0.0166829
1.33406
0.139912
2.47441e-06
0.0443593
-3.12254e-05
4.64009e-06
1.32341e-07
4.86783e-06
-0.00166865
-0.000107847
0.000343388
-7.15666e-08
0.140025
-0.00391567
0.170303
4.62173e-06
-3.49708e-07
-2.2816e-06
3.70945e-05
-0.176956
-8.96846e-05
2.12658e-05
-5.00192e-05
-1.1791e-06
3.75057e-06
5.42218e-06
0.0531365
0.00975808
6.09164e-06
-1.09913e-08
4.50774e-06
5.46842e-06
0.404768
-0.0625845
7.03838e-05
-0.0333809
0.19812
4.89586e-06
-0.000207526
-1.28274
4.01173e-05
-0.0444544
5.89603e-06
-7.33542e-05
-9.71421e-05
-9.10926e-05
-0.0551842
6.23682e-06
-0.0538856
-5.16126e-06
-9.14676e-06
0.000944489
5.32684e-06
-3.22662e-06
0.000912942
3.55093e-06
3.03308e-05
-0.0343986
-0.241386
-0.000151677
-0.0827278
0.0271304
2.1338e-07
4.47584e-06
-0.482556
0.00116764
0.000764207
-0.0179819
1.8824e-06
1.27496e-05
2.09608e-07
-0.0646869
0.23129
3.3563e-05
1.12467e-05
-0.100339
1.35227e-05
-2.28099e-06
0.0760034
-0.00530077
0.0056756
-1.33547e-08
5.86716e-06
-0.00676509
-0.152676
0.000518993
3.30189e-07
0.0141687
6.0672e-06
-0.0979643
0.00127736
0.000521092
3.26718e-05
1.96964
0.000299705
0.00020459
0.156059
2.79107e-07
5.62067e-06
-3.15746e-07
3.4605e-06
0.441978
4.18283e-05
-0.000431271
7.05079e-07
-0.125198
3.7922e-06
-0.0381893
3.46359e-06
0.000275579
-6.53514e-07
4.65725e-06
6.59265e-06
-0.00521794
4.81353e-06
2.00053e-07
-0.417254
4.56327e-06
-0.000892463
-3.86488e-06
-2.54509e-05
-0.000272965
0.267789
-0.0417597
4.33036e-06
-0.0486349
-0.0245456
6.79493e-06
-0.016147
-7.83027e-06
3.13631e-06
-0.00299926
-0.134318
0.0113132
4.32233e-05
4.10565e-06
3.7494e-08
-0.0680344
0.000475735
-0.000247674
4.74799e-05
0.000517777
1.02319e-05
-1.34469e-05
-0.000399146
0.175402
0.000245083
-0.0386027
5.8201e-06
0.000266189
-0.000277955
-0.0333459
2.73178e-05
-0.19256
0.0465656
4.45776e-06
-0.92967
0.041424
-0.0464975
-0.221619
0.00168477
0.116388
-4.37578e-05
3.29161e-06
-0.000105735
-0.124023
0.0513534
6.19518e-06
-2.04993e-06
-0.000154991
0.01407
3.01459e-07
-0.107143
2.04639e-06
4.4373e-06
0.441935
-0.00820762
-0.00761915
4.76589e-06
8.0472e-06
-0.0932766
0.0341484
-0.00040383
-1.26495e-05
-0.132313
0.0749233
-0.0642584
-3.34933e-05
5.40142e-06
5.2477e-06
4.92417e-06
-0.076501
-0.000136404
0.00777503
0.000389648
1.40785e-05
0.796907
-0.0539349
-0.00094452
5.98754e-06
6.46037e-06
3.65814e-06
8.23073e-05
-1.37984e-06
-0.0113842
1.35162e-05
-0.0160367
4.02179e-07
-0.00024359
5.24792e-06
0.00255167
5.46962e-06
8.91184e-06
-0.0211928
-3.0615e-05
0.000400824
1.90373e-06
-0.000221959
-0.251813
0.00325664
1.28089e-05
-0.00997156
8.59446e-06
-0.161292
-0.0243438
4.06948e-06
-0.0294768
-0.991264
0.00033834
0.155112
0.000526291
6.6445e-06
0.00497731
1.39445e-05
0.172787
-0.000987071
4.75138e-06
4.9065e-06
-0.0296425
-0.0410146
-0.0844441
5.60145e-06
2.49363e-06
-0.111823
0.000397166
-0.000254963
3.87015e-05
2.34856e-06
-0.0148872
0.763005
-0.000203711
2.83802e-07
1.01575e-05
3.64866e-06
5.71083e-06
0.093738
-1.20407e-06
0.11164
-0.142861
4.24408e-06
-1.92738e-05
6.72773e-06
1.36894e-06
0.000583436
-0.0974203
3.41357e-05
-0.223617
5.55846e-06
3.6088e-05
6.08724e-06
3.67787e-06
3.4863e-06
4.18323e-06
0.00360978
6.06305e-06
-0.000131024
6.01168e-06
4.64844e-05
0.0775752
-0.0812271
6.22744e-06
0.215312
-0.000568729
0.239213
4.22927e-05
4.49851e-05
0.00228742
1.99425e-05
0.000430317
-0.0348496
0.053239
-0.0493282
8.32254e-05
-0.0427679
8.10975e-06
-1.13313e-05
2.14479e-05
-0.123478
3.70549e-06
0.10241
4.26711e-06
4.8171e-06
0.125235
0.000164114
-0.0384774
3.49362e-05
3.48843e-06
0.00187677
3.70235e-06
8.08614e-06
2.96851e-05
5.92625e-06
0.0398109
4.85516e-06
0.018081
0.521495
-0.000760243
-0.22814
5.11897e-06
3.05201e-06
0.00140166
5.67233e-06
3.94679e-06
-0.000301311
3.72754e-06
3.57062e-06
1.23986e-05
-3.59092e-06
-0.00628276
0.0128258
0.00172062
-0.00522482
0.0694152
6.14268e-06
0.000887833
3.63821e-05
4.74471e-06
0.0589062
0.0165803
-0.0303253
6.56017e-06
0.00834411
-0.0244327
-0.0910107
2.59496e-06
-0.0335553
4.5552e-05
1.25341e-05
0.000171309
1.93589e-06
0.168966
0.0246274
-0.333236
4.60088e-06
5.77622e-06
-0.208427
4.28199e-06
0.261388
-0.00831759
0.0781565
0.0275152
0.0528586
-2.60061e-06
4.52646e-06
0.00220704
0.000227979
4.36307e-06
0.00136559
8.84645e-05
3.54678e-06
8.36513e-06
0.132051
4.08285e-06
-0.0110725
0.101677
0.100767
-0.00459561
1.01356e-05
2.97403e-06
8.72754e-06
-0.00438938
0.0425753
2.46466e-06
2.10244e-06
4.13977e-06
-0.000210027
8.11862e-07
3.83532e-06
5.90687e-06
4.41957e-05
0.0932875
0.000469911
-8.86816e-05
6.57985e-06
-0.000211836
-0.0459997
3.4708e-06
-1.28447
0.0700641
-0.000312288
1.08221e-06
-1.30191e-05
5.88422e-06
-3.07303e-06
8.00334e-06
-0.0177857
-4.26454e-05
0.0615442
4.23273e-06
-0.0765215
5.91491e-06
-4.41004e-06
5.68887e-06
0.0643836
-0.125999
5.40852e-07
3.87212e-05
0.00166725
0.00358178
1.62777e-06
0.0836393
-0.00156167
-0.252624
-0.000201246
-0.0143079
-0.000468714
-0.000315059
0.0206658
0.00310482
0.0610481
-0.45397
5.57418e-07
0.000819716
7.54711e-07
1.51138e-05
8.06932e-06
5.48684e-06
0.00273924
4.46038e-05
2.75458e-05
0.049787
-0.00151676
-0.462219
7.93249e-06
1.08782e-05
4.0607e-05
2.22893e-06
-0.000159558
-0.081101
-0.0990738
0.0535497
5.87155e-06
1.79809e-05
-2.28962e-05
0.0706563
-0.0097215
0.00203632
3.11382e-06
3.5314e-06
0.140569
5.60195e-05
0.039286
0.0299839
0.0164613
1.07679e-06
0.08338
-0.000147672
6.47969e-05
3.07542e-05
-0.021257
-0.020463
-0.000273033
0.0744849
7.95827e-06
8.69282e-05
4.70463e-06
0.078913
0.00100721
0.0026671
-0.0450832
9.32046e-06
-0.000313645
1.13569e-05
-0.0221025
0.0351347
-2.25622e-06
-0.0115277
0.000772639
-0.0750593
0.031975
7.82657e-06
4.31821e-06
-0.00304886
-0.0287205
0.29906
9.53154e-06
4.7045e-06
4.14348e-06
-0.00358727
0.000204042
6.00581e-06
0.0222019
0.000394329
0.415668
0.0923182
-0.268926
6.48309e-06
0.0225902
1.53806e-05
3.45901e-06
-0.000301832
-0.283117
4.23947e-06
3.89936e-06
-0.284814
-0.0167434
0.000173066
5.5154e-06
0.0904641
-1.84829e-06
-0.0154966
6.08866e-06
0.177989
4.59081e-06
-0.000147823
0.117616
-0.0134691
9.66187e-06
-1.32958
-0.190885
0.171937
-0.0116854
-0.260211
0.00396577
5.76996e-06
0.0912682
1.6962e-06
7.78668e-06
5.88347e-06
-0.057389
4.75209e-06
0.0963993
4.11412e-06
0.000110557
-0.027447
0.000136507
0.112948
1.3035e-05
0.00593874
3.58568e-06
1.92464e-05
0.0838683
-0.7265
4.62253e-06
-8.78765e-05
-0.0144327
6.70903e-06
1.82276e-06
0.00395391
3.88301e-05
5.33481e-05
-0.000370471
-0.259213
-0.209013
0.123211
0.03977
0.0071935
-0.0823694
0.0218394
0.0753734
-2.2371e-05
-1.40957e-06
-0.000617513
5.78942e-06
6.86491e-06
0.180212
0.00240009
-7.78856e-06
0.614826
0.041519
-0.01048
0.0781889
0.0223108
5.78417e-06
0.0655573
0.0470141
5.03896e-05
9.72071e-06
-0.0108147
0.00255748
0.0474379
-0.018907
0.000154888
-0.0234152
-0.0198366
1.57592e-05
8.24505e-06
4.03726e-06
0.00138971
4.59542e-06
0.043243
8.74753e-06
6.65907e-06
-1.01967e-05
-0.0463213
-0.02895
-0.355545
1.08254e-05
0.0753256
2.20183e-05
9.44449e-05
6.19461e-06
-2.24074e-06
-0.115595
5.51456e-05
0.00173015
-0.0842068
0.017526
-0.000569182
8.32176e-06
3.28306e-06
3.18532e-06
-0.000374984
-7.6808e-06
1.24891e-05
9.5211e-06
7.67444e-06
-0.000155807
5.84921e-06
3.62284e-05
7.77311e-06
2.61988e-05
0.00612642
0.000556235
4.6792e-06
7.01529e-05
-5.29152e-06
-0.00106433
0.00012328
0.0260308
-0.00314247
5.98267e-06
8.69478e-06
1.07105e-05
0.139261
5.67067e-06
-0.0922494
8.25661e-06
5.78506e-06
-1.10978e-05
-0.000887874
2.62376e-05
6.61965e-05
-0.000787039
-4.11253e-06
-0.00021296
-0.00370323
-0.0670537
4.9159e-05
5.07649e-06
0.0171793
-1.56425e-06
3.13858e-06
-0.00343171
-0.015733
-4.7505e-06
0.000118492
-0.00740157
0.0629005
5.35541e-06
6.64364e-06
-0.0121316
1.10377e-05
0.049181
0.0824462
-0.022172
4.81237e-06
0.000742938
5.00644e-06
-0.034423
-0.000426934
6.21506e-05
-0.000588404
-0.375332
5.38889e-06
-0.016265
0.0274913
7.64708e-06
-0.0311031
-0.00032807
9.34935e-06
-0.139143
5.63125e-06
6.81165e-06
2.08017e-06
-0.00114171
0.0657422
0.000715418
1.20611e-05
3.48591e-06
-4.74962e-06
-0.0485941
0.162697
-0.0271204
-0.0579973
4.60047e-06
-0.000431714
-2.07741e-05
0.0402377
0.000179434
0.0170023
4.66718e-06
-0.000903088
1.93016e-06
-0.0587787
0.000236209
4.9898e-06
0.215426
0.001771
4.51911e-05
-0.00149614
3.20011e-07
-3.73119e-06
-0.000182239
4.02646e-05
-0.348718
-1.13218e-05
0.000216777
-0.00046771
0.000158736
0.0462562
0.000742667
-0.029839
4.87389e-06
2.76033e-06
0.00562312
-0.337395
0.0596083
0.0705254
2.69777e-06
0.00695818
-0.0263884
6.25022e-06
1.06665e-05
5.31806e-06
2.02384e-05
-0.000224239
-0.0321652
-0.0556716
0.101899
9.46022e-06
-0.0681782
-0.0263681
6.81775e-06
0.000734827
-0.0361514
0.119049
1.11927e-05
-0.000333438
2.68973e-07
1.00453e-05
-2.46903e-05
3.52728e-05
-0.0371632
-0.0787326
-0.0181075
-1.35632
4.88728e-06
0.000115372
-0.000284738
-2.68505e-06
8.06003e-06
2.1021e-06
-0.0217288
4.38531e-06
-0.0184341
0.00016925
-7.07833e-05
0.000716583
0.0315279
-0.0128083
0.0454366
2.27086e-05
1.62939e-07
-0.00077012
0.0607031
0.107919
1.74587e-05
4.9756e-06
2.74901e-06
0.000226765
4.51755e-05
2.51122e-05
0.176936
3.70838e-06
2.03406e-06
-0.000498298
0.0140967
-0.00549425
0.208817
5.4568e-06
1.7593e-05
6.97363e-06
-0.0438696
5.6154e-07
-0.0267689
2.92268e-05
3.83377e-06
-0.000210522
1.02189e-05
-0.00303391
3.23457e-05
6.4726e-05
-0.130051
0.00220526
2.09937e-05
3.86446e-05
5.69889e-06
0.052448
-0.097422
4.27258e-06
1.35746e-06
0.00836627
1.56581e-07
0.00458394
-5.57527e-06
-3.46123e-05
7.34125e-05
0.000614602
0.000291284
2.99967e-06
4.30338e-06
-0.000300777
-0.0147353
5.76269e-06
-0.0555729
0.735924
0.0148983
0.0480317
0.000154392
-0.013023
2.63433e-06
0.10994
6.07122e-06
-0.0563205
-0.0618664
1.19193
0.744076
0.225291
0.000230229
0.0234631
3.56666e-06
-0.0115538
0.0507455
-0.00489939
-0.111905
5.76386e-05
0.0588462
-0.0846153
0.000167289
-3.49006e-06
4.91691e-06
0.00169765
3.77611e-05
-0.000308848
2.21078e-06
6.70984e-06
3.71786e-06
3.66801e-06
-0.0067891
0.0434754
5.18162e-05
0.0636255
-0.0292355
0.000124267
5.61456e-06
2.16083e-06
-0.000116279
-0.022919
0.04577
3.71696e-05
1.22175e-05
-0.215454
5.09008e-05
8.30022e-05
-0.137947
5.29915e-05
-0.0335594
-4.77865e-06
-0.000103386
5.73709e-06
1.76209e-06
-7.6392e-05
0.060891
-0.046441
-0.00192452
0.000143309
0.349361
9.31606e-05
2.01262e-05
-3.61094e-06
-0.0580413
-0.303184
0.267104
0.0289569
1.17515e-05
4.8619e-06
5.87109e-06
8.10792e-06
2.18032e-06
0.0961651
4.75351e-05
-0.0900551
0.000101999
0.0164961
0.103216
-0.0250534
-0.000372989
1.19234e-05
0.180819
0.000148949
-0.00887227
-0.00245877
3.6037e-06
0.0527998
2.91953e-05
-1.15502
-0.672633
9.97855e-05
0.0191818
-0.103971
5.59154e-06
0.00142493
1.34836e-05
0.458333
-0.0365124
1.75381e-05
4.52187e-06
-0.0624865
0.0845411
-0.00053093
0.0221788
-0.000289187
-1.43272e-06
4.0857e-06
-0.0581744
-0.0128079
-0.000359757
1.17768e-05
-0.00706982
-0.0738795
3.75524e-06
6.32747e-06
1.86299e-05
-0.00930728
-0.00607882
6.63828e-06
0.00332296
4.83806e-06
3.82916e-06
3.89231e-06
-1.57196
0.188431
0.033287
0.0727047
-4.89646e-06
1.20097e-05
4.26073e-06
0.659652
8.57616e-06
0.433879
5.12117e-05
-0.00682408
3.59636e-06
5.76316e-06
-0.000406576
0.0885602
0.0354025
4.45386e-05
0.105957
-2.12963e-05
5.65503e-06
6.16739e-06
8.99992e-05
1.21546e-05
-7.5525e-06
0.000295514
-0.0123277
1.45281e-05
-0.000185357
0.200188
0.018167
7.95061e-06
0.00307716
-0.00263742
2.22769e-06
0.0977215
-0.000272978
-0.559991
5.82466e-06
-0.000836941
3.4288e-06
-0.015844
-0.00603775
0.00628156
-0.0284371
-1.11089e-05
-0.000131165
-9.21437e-07
0.00192057
4.11256e-07
5.10483e-06
-0.111152
-4.66171e-05
-0.439536
0.0970421
-0.000253603
4.13246e-05
2.10253e-06
-0.127382
-0.000206454
-2.63836e-05
0.000172598
3.30381e-05
2.86757e-05
4.54552e-06
0.24094
9.08924e-06
0.0276736
-0.0352088
-0.000212785
0.0729066
-0.00033153
-0.0442473
3.87801e-06
0.156615
-0.0798404
3.93597e-06
5.6065e-06
9.44591e-06
3.72978e-06
6.20643e-05
6.15174e-06
0.0574958
-0.000276229
-0.0903899
-0.000605012
6.95312e-06
6.6402e-06
2.8374e-06
0.0309364
5.72564e-06
5.9864e-06
0.0137123
5.29747e-06
-0.00155187
-0.025481
-0.000488125
5.52931e-05
4.93525e-05
1.11822e-05
5.05799e-06
0.000486829
1.95455e-06
6.2818e-06
-0.0408148
-0.0328846
0.154256
1.02137e-05
0.638771
-0.806718
3.56152e-06
-0.128036
-0.0158776
6.73378e-06
8.31331e-06
7.72587e-06
0.0374487
-0.0467795
-0.0482011
2.0717e-06
2.02125e-05
1.69732e-05
4.52028e-06
-0.00052302
5.91693e-06
0.0220821
0.0106984
-0.0266156
3.54658e-06
8.793e-06
3.84575e-06
0.222068
1.14298e-07
0.0165919
-0.081849
0.158212
0.0484846
-0.730334
0.0547195
-4.02925e-06
-0.0428097
0.0613854
4.15621e-06
2.15155e-06
4.81424e-06
-0.0249007
0.153154
1.2051
-3.55413e-06
-0.0353388
5.53989e-06
0.00033495
1.68329e-06
1.14525e-05
5.08595e-06
3.57715e-06
-0.1121
3.643e-06
0.122093
0.025261
0.123669
6.29693e-06
-0.000121941
0.073577
-0.0117462
6.04979e-06
-0.735158
2.53956e-06
4.44008e-08
5.83845e-06
0.0244695
2.54655e-06
-0.11177
-0.00014847
-0.0482888
0.000298091
-0.0683156
-0.0511592
0.00456305
3.47273e-06
-0.00038518
-0.000184956
0.0219491
6.66625e-06
-3.61951e-07
9.23391e-06
0.169567
3.66264e-08
-0.0737071
-0.0787948
5.39458e-05
0.000257546
9.19188e-06
-0.00846008
5.32235e-06
-0.0272428
2.11764e-06
0.0221111
-1.19568e-07
5.83482e-06
-0.082733
0.323458
1.32958e-06
-0.000244491
2.93376e-05
0.996243
0.0224132
-0.257087
-0.0314989
6.32767e-06
-0.000321855
-0.0344914
1.673e-05
0.0217097
3.57314e-05
-0.0003246
2.64974e-05
-0.120605
-0.00969556
5.80971e-06
0.0033002
8.66755e-06
7.63191e-05
-0.0151242
-0.0571228
0.000223842
0.00326133
0.0751725
4.42386e-06
-0.0397124
-0.000400354
1.76592e-05
3.94353e-06
0.032724
1.31458e-06
-0.391556
0.0123702
0.000655846
8.16589e-06
-0.000107851
0.00278255
0.000142114
-0.057436
5.72288e-06
1.89947e-05
0.0341861
0.0142178
3.37078e-06
-0.0144376
-0.109136
-0.12139
4.74317e-06
0.0100129
0.0690825
-0.142023
7.03332e-06
-0.000276445
2.95473e-06
-0.0229159
-0.0021758
-0.00574968
-0.00698616
6.64678e-06
7.2524e-07
6.92677e-06
-0.0285533
0.0600681
-0.962505
-0.0331923
4.51009e-06
-0.0823854
-0.0143596
-0.000695803
0.231309
0.00299253
0.000235148
-0.392099
8.02115e-06
4.76434e-06
0.0469258
-0.0332573
-0.000194115
0.787794
9.81755e-06
5.94295e-06
0.469035
-0.00425264
-0.0107154
-0.0134744
7.46038e-05
6.6621e-06
9.66461e-06
-0.0145896
0.406653
5.73936e-06
-9.49197e-05
0.0268247
6.17684e-06
4.50568e-06
-0.021062
-0.0308839
1.06e-05
6.77884e-06
4.1432e-06
-1.86214e-06
-0.111983
3.87403e-06
3.90455e-06
4.20297e-05
-0.00458861
0.0718457
0.0516352
-0.12598
5.72614e-06
1.80776e-05
0.00568051
-0.0149625
6.39736e-05
0.167691
8.03464e-06
6.65791e-05
5.13831e-06
-0.000379993
-7.47801e-06
2.29166e-06
-0.114201
0.00015211
4.66347e-06
1.4e-05
0.0496024
-0.0537067
-0.00152057
5.95788e-06
1.27113e-05
-0.018954
-0.173063
1.04504e-05
5.62105e-06
6.41496e-06
-0.0563746
4.50341e-06
3.61841e-06
3.88431e-05
5.47215e-06
0.00451758
0.0647986
6.62627e-06
2.5201e-05
1.29121e-06
5.38146e-06
-0.0591342
0.157673
-0.000182161
0.31042
-0.0010131
6.60232e-06
8.02866e-06
5.87025e-06
2.94083e-06
6.29177e-06
9.77975e-06
-0.00132395
-0.00960302
1.55307e-05
-0.000163578
-0.00277902
-0.0333782
5.52682e-06
5.13225e-06
6.21242e-06
0.43669
3.30054e-06
0.379272
0.194796
-0.000145301
1.53649e-06
-0.0222115
-7.54997e-07
0.0501387
1.80246e-06
-1.86459e-06
-8.90574e-07
1.88505e-06
2.21168e-05
-0.0395051
0.0430501
5.18578e-05
0.130314
-0.003857
-0.45727
2.2374e-05
-0.00156541
0.148842
-6.67735e-05
0.237798
-0.017377
-0.000350134
-0.000224347
4.19979e-06
-1.88059e-06
-0.0345972
3.86035e-06
2.48956e-05
-0.0229843
0.0179906
-0.137264
-0.00507681
2.98777e-06
0.000235475
4.63562e-06
0.0157547
1.77843e-06
0.0420499
-0.46026
-0.0243169
-0.0150612
3.94731e-06
1.27111e-06
-0.000252926
0.280121
0.0026531
0.00108909
0.278374
4.7291e-06
0.146603
0.000394867
0.0340676
-7.00429e-06
3.75629e-06
-1.37221e-05
-8.74235e-06
6.29726e-06
3.40376e-06
2.33349e-05
0.00466125
-0.000106571
0.0022273
0.0225322
0.0829732
0.00120748
6.26313e-06
7.28658e-07
4.78564e-05
1.90981e-06
4.22349e-06
0.218226
0.113628
-0.0314015
-0.0347742
4.81411e-06
-0.0945154
0.000140629
-0.0168564
-0.00505067
5.52269e-06
3.33603e-06
0.120537
3.56015e-06
1.34159e-06
0.161168
0.00361112
0.140206
5.23989e-06
5.43709e-06
4.04198e-05
2.45069e-05
0.0864792
2.48843e-06
1.78955e-05
0.0920332
-2.64291e-06
0.0712239
1.58534e-05
0.0800937
6.31301e-06
0.087032
0.163681
0.000133476
-0.0129013
-0.000392016
0.00156151
2.04719e-07
3.28296e-05
3.48135e-06
5.95895e-05
-1.70027
-3.41381e-06
-0.0614674
3.63305e-05
4.66428e-06
7.08197e-06
-0.0316564
5.87788e-05
-0.000269522
-0.0545955
2.68248e-06
8.51978e-05
-0.172258
-0.000357705
1.71765e-06
-8.93171e-06
3.81529e-06
0.000935549
5.3481e-06
5.4747e-06
-0.0403568
-0.0235066
-0.0225968
0.0911001
0.0173833
-0.152452
-0.00033486
-0.0381521
-9.34756e-05
3.25832e-07
-2.77394e-06
1.28331e-07
4.49573e-06
-0.0171256
-0.0159714
4.08342e-06
-0.0330167
-0.0361253
1.37748e-06
1.62221e-05
1.46062e-05
0.0249726
-0.0259821
0.0032125
-0.220465
0.00169086
1.53134e-07
0.00135938
0.000200995
-0.101452
0.041751
6.21363e-06
-8.91206e-05
-0.169885
0.000116482
0.0777534
5.67742e-06
0.0579315
-0.166026
-0.015084
-0.00031767
4.76884e-05
-0.0220598
-0.000442492
-0.0162668
-0.0238799
0.00523627
-0.000148065
0.0105995
5.31238e-06
-7.35134e-05
4.69563e-05
0.00308545
-0.0551556
0.00201538
3.01804e-06
0.000749763
-0.00120844
1.77402e-06
-0.0152887
6.70135e-06
-0.000489563
-0.00196259
7.1013e-06
0.312511
0.400164
-0.0254598
0.0386006
0.0765458
0.0883936
5.84083e-06
-0.0194654
2.94831e-05
-9.1554e-06
8.29025e-05
1.82738e-05
-0.00574023
1.48648e-05
1.30843e-05
2.28795e-05
2.63804e-06
0.0986963
1.14665e-05
-0.000241927
-0.021163
3.55125e-06
0.0011439
-0.000125243
3.89165e-05
-0.155387
-0.0163567
8.57545e-06
0.626137
7.81764e-06
-0.0346733
-0.009842
-2.85082e-06
-0.000518194
1.34474e-05
-0.0238599
-0.000184336
-0.000105803
0.147755
6.53129e-05
6.1128e-06
0.166693
5.97301e-06
3.39291e-06
0.143535
-5.89786e-05
4.84437e-06
4.42004e-06
-6.84323e-05
7.54782e-06
-0.00821916
-0.00239606
0.0123352
-0.497247
-8.26724e-05
0.000178522
6.24686e-06
-0.0211049
-0.000367426
-0.357369
6.83854e-06
6.36341e-07
0.000169846
7.66001e-05
0.045841
3.46452e-06
-0.0349229
4.09793e-06
-0.0455983
3.98742e-06
0.00413805
0.00733397
-0.000675367
0.00111273
-0.096319
-0.0177456
0.00169368
8.9302e-08
0.378988
0.216208
0.00341243
1.77348e-06
0.00044999
-0.00512777
1.07912
-0.000121322
-0.070146
-0.0814014
-0.0255508
-0.000102618
0.0156683
3.55831e-06
2.37378e-05
-7.27074e-05
6.59819e-06
-0.000277332
-0.454881
0.0685441
0.48731
0.120974
5.96598e-06
3.35273e-06
0.000410486
6.4455e-06
-0.0108682
2.0291e-06
2.80645e-06
-0.0341366
0.0317142
3.21121e-05
-9.39392e-05
2.57643e-06
0.000221425
0.0253743
-0.00303479
0.0226841
5.0376e-06
-0.00302077
-1.2505e-05
2.39918e-06
4.65585e-06
0.00235261
0.054174
-0.0056806
-0.0238572
7.67208e-06
2.8567e-06
6.36964e-06
4.04342e-06
1.40579e-05
-0.775427
0.177097
4.37132e-05
-0.0137376
-0.0109524
0.0519105
-1.04003
5.97165e-06
3.77489e-05
-0.00983815
6.28451e-06
0.00176276
3.01885e-05
1.59529e-05
-0.535345
-0.00356054
2.30752e-06
-5.77614e-05
4.21674e-05
-4.51995e-05
-0.0709616
0.140648
-0.0276279
1.4518e-06
-0.000364683
-0.0328219
-0.000285028
-0.000283266
-0.0688493
0.039727
-0.0140116
-0.0404364
2.08415e-06
-0.000770821
-7.26304e-09
3.1859e-05
5.08316e-06
0.000288925
-0.018352
-0.0109465
-0.107681
1.785
0.000203203
1.43415e-06
5.01166e-06
5.07013e-06
6.53799e-06
4.42017e-05
-0.0321514
-0.0401509
-0.000316271
-0.0475815
5.57096e-06
0.000147005
3.58724e-06
-0.0222673
0.00204899
2.10763e-06
0.000813073
1.20316e-05
-0.100646
0.00465624
0.000436723
0.138204
3.23515e-05
-0.275344
-0.00615851
0.0410263
0.0352393
-8.12401e-06
8.62713e-05
5.49731e-06
-0.0249569
0.0140154
7.1033e-05
-0.00262451
0.0141271
-0.0154268
0.000259491
0.000987088
0.000553148
5.54223e-06
-0.000529459
-0.00035793
1.75939e-05
1.47482e-05
4.24889e-05
4.48843e-05
-0.209623
-0.000136092
-1.26301e-06
6.30102e-05
5.88893e-05
0.000126889
2.71567e-05
0.0727192
0.000130454
-0.0197219
0.201851
5.36775e-06
-0.00214171
6.75932e-06
6.17608e-06
1.14464e-05
-0.00185439
8.80298e-05
-0.0203197
-0.949291
0.000194103
-0.00129591
-0.000750679
-0.0356485
-0.000109654
0.097976
9.22838e-06
-8.7619e-05
7.49305e-06
-0.00983667
-0.0354612
7.34327e-06
-2.22199e-06
0.000138773
1.58079e-05
2.73261e-05
-8.89835e-05
-4.69153e-05
5.69428e-06
0.000166973
-1.41193
-1.26686
-0.0822976
6.9264e-05
1.4622e-07
0.0769948
3.31234e-05
-0.000208203
-0.146294
-7.91322e-05
-0.134304
1.32009e-06
1.36274e-05
2.38521e-05
0.000157644
5.56158e-06
-0.00511868
-0.0223301
0.0256323
0.000212968
-0.0130631
0.0218767
1.31556e-05
-0.0359548
-0.000229408
-0.0287162
1.54988
0.000647675
1.97312e-05
-4.87189e-05
0.000258508
-4.24301e-05
0.122387
0.00453213
0.0550382
5.45824e-06
0.0352641
0.233728
-0.572884
5.8611e-06
0.0001094
6.03414e-06
5.8959e-05
0.086454
5.28081e-05
4.17895e-05
4.75728e-06
5.37492e-06
0.285923
0.00166664
3.83071e-06
0.0411133
-0.00187713
1.4595e-06
0.000738961
-0.00952931
7.01027e-05
-0.000150411
5.93792e-06
3.30672e-05
-0.00124975
-2.21561e-06
4.19078e-06
0.368276
4.08929e-05
-0.00504809
-0.000355369
2.09815e-05
-0.0125322
0.00141413
9.5934e-06
4.74425e-06
-0.0395999
4.42496e-06
2.75186e-05
0.0225634
5.20731e-05
5.66146e-06
0.000321811
1.88752e-05
-7.60765e-05
1.12673e-06
-0.0121933
4.82844e-06
0.000299737
0.0380067
0.00034198
3.20158e-06
-0.075729
2.34649e-05
0.863775
0.0179747
0.00347475
0.000609069
-0.0117476
3.88704e-06
-6.30593e-05
1.16982e-05
6.10741e-06
-0.0204305
0.0645207
5.95697e-06
-0.403109
0.000615076
7.58511e-05
0.00400672
1.42621e-05
0.0217107
-0.112339
0.273087
0.0448807
-0.0140607
0.00406609
3.0816e-06
3.67942e-05
0.000169308
0.120334
-0.156503
-0.0210676
0.0905813
-0.0289863
5.3323e-06
-0.0388506
7.09296e-06
4.47225e-06
5.3436e-06
-0.0538845
0.00339582
-0.00110246
3.7279e-06
-0.0469764
3.21414e-05
0.00105452
1.63496e-05
-0.000636612
1.98864e-05
-0.000265675
4.77524e-05
-0.000289189