/*--------------------------------*- C++ -*----------------------------------*\
| =========                 |                                                 |
| \\      /  F ield         | OpenFOAM: The Open Source CFD Toolbox           |
|  \\    /   O peration     | Version:  v2012                                 |
|   \\  /    A nd           | Website:  www.openfoam.com                      |
|    \\/     M anipulation  |                                                 |
\*---------------------------------------------------------------------------*/
FoamFile
{
    version     2.0;
    format      ascii;
    class       volScalarField;
    location    "500";
    object      nut;
}
// * * * * * * * * * * * * * * * * * * * * * * * * * * * * * * * * * * * * * //

dimensions      [0 2 -1 0 0 0 0];


internalField   nonuniform List<scalar> 
13851
(
0.00657881
0.016725
0.00223424
0.00662917
0.00236635
0.00384429
0.00679456
0.00228834
0.00675313
0.00121425
0.0100329
0.013001
0.00458649
0.00617546
0.00672986
0.00263923
0.00392859
0.00576287
0.00116402
0.00674789
0.00665679
0.00246487
0.00681737
0.00685472
0.00682557
0.00218823
0.0034494
0.000233627
0.00661307
0.00647924
0.00537775
0.00369956
0.00221961
0.00808881
0.00685633
0.00111827
0.000312709
0.000966446
0.00144929
0.00886058
0.00682004
0.00670768
0.00198992
0.0103208
0.0104763
0.00366349
0.0106572
0.0129769
0.00336019
0.00617022
0.00219712
0.00148609
0.00292106
0.00676714
0.00683581
0.00671179
0.00681908
0.00658772
0.00651877
0.00681724
0.00096115
0.00763728
0.00311556
0.00206361
0.00255465
0.00630595
0.00103091
0.0113079
0.00247767
0.00579767
0.00220726
0.00431277
0.0152692
0.00677151
0.00672496
0.0068152
0.00256231
0.00328249
0.00253277
0.00278313
0.0066117
0.0123938
0.0067487
0.00247582
0.00322272
0.0123957
0.0044209
0.0121152
0.00324742
0.00680432
0.00114357
0.0057499
0.0116267
0.00308442
0.00401248
0.00683281
0.00230692
0.010717
0.00689539
0.00683218
0.00437574
0.0023837
0.00679431
0.00280368
0.00681966
0.00452642
0.00234143
0.00668805
0.00732793
0.00424169
0.0068387
0.00680072
0.00578574
0.00681401
0.00683967
0.00563618
0.0107366
0.0066842
0.00687789
0.00686632
0.00190287
0.00303897
0.00547947
0.00902927
0.0116174
0.00671458
0.0141066
0.00243608
0.00668343
0.00146853
0.00681416
0.00671567
0.00332572
0.00674577
0.00481406
0.00673826
0.00668474
0.00392044
0.0129292
0.0155623
0.00505739
0.00683435
0.0066468
0.00678354
0.00527419
0.010613
0.00483613
0.00147167
0.00678959
0.0116707
0.00189009
0.00684649
0.0051588
0.00683008
0.00420841
0.00597293
0.00678905
0.00666953
0.001491
0.00219958
0.0067598
0.00289376
0.00633277
0.00671506
0.00585641
0.00674687
0.00450502
0.00246294
0.0067028
0.00650155
0.00230953
0.00670396
0.00679208
0.0152348
0.00671157
0.0100591
0.00248226
0.00664708
0.000950178
0.00670025
0.00364314
0.0048887
0.00673995
0.00231974
0.00673037
0.00682942
0.00627774
0.00679668
0.00211263
0.00131272
0.0108292
0.0043354
0.00677704
0.00254351
0.00902205
0.00524524
0.00668402
0.0121485
0.0066774
0.00681663
0.00670811
0.00425762
0.00689261
0.00675144
0.00130218
0.00674283
0.00988819
0.00395863
0.0096484
0.00672279
0.0105103
0.0068054
0.0113906
0.00669017
0.006773
0.00980106
0.0030503
0.00451423
0.00671971
0.0101829
0.0038678
0.00645899
0.0103878
0.00153217
0.0122314
0.00682125
0.00274641
0.00682902
0.00722787
0.00669473
0.0023733
0.0040304
0.00670191
0.00678281
0.00208228
0.00405063
0.00960726
0.00254171
0.00678301
0.00675367
0.00503934
0.00790188
0.00677833
0.00129388
0.00683159
0.0122971
0.00237735
0.0104546
0.0058588
0.00392468
0.00605745
0.00831612
0.00683339
0.00604638
0.00222231
0.00300704
0.00135143
0.0044334
0.000235037
0.0067324
0.00677344
0.00595238
0.0188718
0.00680269
0.00313818
0.00503396
0.0068369
0.00309014
0.00986155
0.00706793
0.00606414
0.00460142
0.0166567
0.00250449
0.00286259
0.00671847
0.0124573
0.00579999
0.0121947
0.0105861
0.00678223
0.00671369
0.00682183
0.00241672
0.0183501
0.0068127
0.00678287
0.00672096
0.0168857
0.0125976
0.00125608
0.00657536
0.00682025
0.00246664
0.0126422
0.00273668
0.00595107
0.0123941
0.00672332
0.012242
0.00280313
0.00413415
0.0118758
0.00684953
0.00441399
0.0114459
0.00677616
0.00219098
0.00279828
0.0066115
0.0127532
0.00515261
0.00683878
0.010639
0.00671755
0.00428318
0.00667959
0.0118082
0.00160895
0.00672103
0.00225593
0.00672115
0.00124165
0.00585096
0.00682586
0.00683761
0.00164406
0.00295861
0.00486068
0.00672027
0.00684975
0.00684328
0.0103397
0.00305135
0.00777347
0.00537768
0.011773
0.0101047
0.00672589
0.00259216
0.00125114
0.00554974
0.00295381
0.00166934
0.000756981
0.00632545
0.0140479
0.011779
0.00673635
0.00788324
0.00773412
0.00181116
0.00483183
0.00240369
0.00745513
0.00680053
0.0148815
0.00683906
0.00672
0.00680635
0.00669049
0.00676705
0.0115751
0.0120581
0.00678685
0.00236048
0.00673467
0.0129343
0.00213941
0.0106353
0.00750619
0.00679421
0.00314497
0.0029868
0.0114145
0.00679717
0.00668457
0.0059347
0.00417633
0.00676201
0.0118562
0.00559044
0.00157345
0.00412011
0.0102115
0.0110369
0.00623585
0.00671705
0.00680923
0.00557073
0.00216017
0.00702799
0.00226727
0.0119174
0.0115232
0.00673637
0.006735
0.00686357
0.00420196
0.00343653
0.0106427
0.00610273
0.00291383
0.00682151
0.00892978
0.00672501
0.00245117
0.00629163
0.00678308
0.00683254
0.00677013
0.00674495
0.00211828
0.00272397
0.00281578
0.00572536
0.00224014
0.00525157
0.0078742
0.00423705
0.0023495
0.0041483
0.0112633
0.00668403
0.00676445
0.00682209
0.000468303
0.00750762
0.00157816
0.00533666
0.001615
0.00824109
0.00457752
0.00689681
0.00190313
0.00679086
0.00629743
0.00682507
0.00557845
0.010195
0.00190401
0.00839635
0.00663227
0.00698776
0.00989752
0.0033966
0.00670237
0.00284764
0.00273219
0.00716258
0.00671196
0.0068426
0.00183096
0.0015782
0.00515784
0.0175181
0.00682365
0.00684237
0.00453301
0.00571938
0.00670739
0.0167554
0.0067168
0.00658181
0.00672197
0.00270927
0.00672951
0.00671517
0.00666021
0.0103075
0.00675205
0.00240809
0.00672601
0.00578895
0.0101494
0.00681385
0.00682592
0.0068154
0.00681086
0.00172578
0.00683755
0.00406138
0.0067369
0.00683175
0.00563273
0.00756975
0.0067479
0.0057114
0.00373506
0.00827577
0.00312235
0.00684059
0.0123534
0.00680193
0.0023661
0.00680064
0.00789338
0.00671941
0.00248948
0.00139412
0.00670931
0.00573214
0.0090718
0.0022507
0.0107433
0.00688056
0.00550899
0.00686142
0.0067097
0.00672427
0.00677488
0.00637483
0.00225746
0.00150792
0.000487667
0.00327261
0.00676753
0.00809502
0.00760345
0.00346418
0.00255851
0.00811622
0.00788582
0.0105033
0.00681188
0.00801955
0.00264249
0.00397382
0.00579625
0.00566686
0.0133759
0.00733416
0.00310151
0.0114525
0.00883634
0.00663726
0.00914068
0.00506591
0.00669125
0.00422256
0.00218404
0.005
0.0062544
0.0067309
0.00678188
0.00678314
0.00215248
0.00443532
0.0118608
0.0176103
0.00673439
0.00394021
0.00815856
0.00447352
0.00792249
0.00239889
0.00669512
0.00675903
0.0116734
0.00897994
0.00435052
0.00196898
0.00114956
0.00671024
0.00483996
0.00932499
0.000115925
0.0016843
0.00711109
0.00517069
0.00680859
0.00678513
0.0190148
0.0115397
0.00152659
0.00224845
0.00316172
0.00669664
0.00673497
0.00652626
0.00670325
0.00618471
0.00669875
0.00671098
0.00550346
0.00214754
0.00559465
0.00670236
0.0106038
0.01279
0.00672334
0.00679972
0.00680168
0.00680051
0.0043335
0.0110495
0.0115331
0.00508597
0.00519152
0.00227329
0.00296534
0.00833603
0.00626954
0.00250426
0.00669594
0.00668702
0.00249573
0.009558
0.015746
0.00188043
0.00296591
0.0067385
0.00277582
0.00666708
0.0105822
0.00229238
0.00673386
0.00528724
0.00671047
0.00341769
0.00152802
0.00680886
0.00678563
0.00220441
0.00682185
0.00233007
0.00061463
0.00159475
0.00282204
0.00148271
0.00673416
0.00250047
0.00597128
0.00499886
0.0068157
0.00684018
0.00684683
0.00657245
0.00334593
0.0119633
0.00619706
0.0185812
0.00672218
0.00514262
0.00677013
0.00671228
0.00672069
0.00671184
0.00662503
0.00560886
0.00333247
0.00669658
0.0103102
0.00139807
0.0105252
0.00676955
0.0067506
0.00682051
0.00126846
0.009246
0.00207448
0.0030684
0.00676334
0.00684133
0.00681181
0.00680857
0.000234666
0.0159074
0.00681524
0.00669465
0.00677717
0.006805
0.00208212
0.00527889
0.0027272
0.0103592
0.00631627
0.00677979
0.00152232
0.00369375
0.00244485
0.0127188
0.0068292
0.00591001
0.00196662
0.00586746
0.0114904
0.00674487
0.0121245
0.00682974
0.00205606
0.00981883
0.0068257
0.00667513
0.00310487
0.0067126
0.0038663
0.018884
0.0130868
0.00239157
0.00234301
0.0107671
0.00669219
0.00676312
0.00688706
0.00116785
0.00331417
0.0118832
0.00675698
0.00683252
0.00669151
0.00557253
0.00118363
0.00620817
0.00682618
0.00843336
0.00369554
0.00681873
0.0026532
0.00284536
0.0102473
0.00671505
0.00681095
0.00325312
0.001554
0.0013113
0.006699
0.00763483
0.00674701
0.00919566
0.00144721
0.00184036
0.00449652
0.00507489
0.00613849
0.00658617
0.000318934
0.00684365
0.00688989
0.00670601
0.00673106
0.00284341
0.00271861
0.00166622
0.00565984
0.00475564
0.00674306
0.0195244
0.00687618
0.00614668
0.00675299
0.00677009
0.00676985
0.0114621
0.00677323
0.00668773
0.00577685
0.00679178
0.0053872
0.00681291
0.0066653
0.0021098
0.00228119
0.0117208
0.00676203
0.0106382
0.010627
0.00683417
0.0106099
0.00211431
0.00672546
0.00525646
0.0024105
0.00871194
0.00461535
0.00674861
0.00668923
0.00770907
0.00162045
0.0017482
0.00602567
0.00521442
0.00679637
0.00668471
0.0020553
0.0102541
0.00216174
0.015505
0.00680437
0.00232709
0.00214114
0.0109663
0.00623816
0.0123979
0.000442631
0.00679341
0.00211384
0.00249584
0.00956279
0.0122655
0.0109957
0.0104554
0.00221179
0.00672741
0.0056707
0.00698643
0.00201336
0.006836
0.00682205
0.00226062
0.0134394
0.00670461
0.00276443
0.00675083
0.00677966
0.0040825
0.0032751
0.0128194
0.0067137
0.00672088
0.00235597
0.000284744
0.00162505
0.00652127
0.00934083
0.000533763
0.0102724
0.00242122
0.00239157
0.00683913
0.00679553
0.0133236
0.001952
0.00349762
0.00594461
0.00255436
0.00204436
0.00957357
0.00664849
0.00675818
0.00235238
0.00672261
0.00270884
0.00669145
0.0139511
0.00346554
0.0114714
0.00670012
0.00197646
0.00675243
0.00121822
0.00246988
0.0024506
0.0104278
0.00248514
0.00267837
0.00684779
0.00221062
0.0110073
0.00272102
0.00657662
0.00237487
0.00680174
0.0118208
0.0130418
0.00684371
0.0114905
0.00406727
0.00632418
0.00981774
0.00599159
0.00683081
0.00976556
0.00683762
0.00642674
0.00977227
0.00676591
0.00411871
0.000706719
0.012175
0.0141451
0.00681676
0.00679522
0.0147263
0.00971681
0.00167473
0.00481054
0.00662278
0.0129735
0.00563239
0.0021043
0.00668825
0.00199015
0.00671211
0.0068896
0.00860669
0.00681873
0.0064744
0.00554975
0.00678654
0.00661965
0.00683425
0.00669656
0.00291272
0.00879847
0.00281044
0.0120919
0.00674906
0.00286101
0.00682831
0.00671205
0.00684314
0.0067832
0.00589529
0.00675058
0.00249855
0.00676291
0.00451092
0.0096631
0.00152348
0.00689014
0.0195866
0.00158558
0.000436392
0.00239073
0.00267554
0.00228937
0.00283626
0.00433154
0.0139513
0.0150815
0.00366907
0.00242105
0.0115609
0.00682556
0.0020654
0.00240682
0.013732
0.00680458
0.0157181
0.0067592
0.00677381
0.00827167
0.00672053
0.00240507
0.00427882
0.00672518
0.00501366
0.00672414
0.00672064
0.00674629
0.00683106
0.000314157
0.00676988
0.000348513
0.00604838
0.00138389
0.0134845
0.00678885
0.00687766
0.00664826
0.00678975
0.00671974
0.00229281
0.00583775
0.00679243
0.00682036
0.00682402
0.00551042
0.0162336
0.0027938
0.0107895
0.000166033
0.0067358
0.0146999
0.00283509
0.00676289
0.00970591
0.00452697
0.0136722
0.00672927
0.0104498
0.012155
0.00795002
0.00670176
0.00494208
0.00309521
0.00359657
0.00674428
0.00675351
0.0100822
0.00261151
0.00177128
0.00682126
0.00674142
0.0129413
0.00684171
0.00238754
0.0131809
0.0207759
0.000745818
0.0105698
0.00683742
0.00679063
0.0033368
0.00574865
0.00314731
0.00126124
0.0025187
0.0056228
0.00664107
0.0172273
0.00679878
0.00576152
0.00203548
0.00514846
0.00112174
0.00682924
0.00678755
0.00683705
0.0107731
0.00768628
0.00670199
0.00683094
0.00682034
0.00226455
0.00671727
0.00681196
0.00674854
0.00262637
0.00124419
0.0039617
0.00530671
0.00677304
0.00195963
0.00515184
0.00436562
0.00209937
0.00676626
0.00206663
0.00674618
0.00203609
0.00673172
0.00682865
0.00684012
0.00336912
0.00160914
0.0077198
0.00315658
0.0107852
0.00673351
0.00682025
0.00684997
0.0121238
0.0171483
0.00675166
0.0027146
0.00270408
0.00761116
0.00681509
0.0206642
0.00665064
0.010893
0.0013823
0.00966253
0.00192081
0.00196768
0.000466653
0.00878705
0.0101186
0.00462061
0.00682964
0.00148062
0.00671499
0.00659619
0.00253848
0.00683448
0.00871018
0.00298704
0.00310153
0.0120585
0.00115539
0.00384006
0.00672095
0.00381069
0.00613023
0.00679512
0.00541061
0.0157549
0.00577617
0.018291
0.00671418
0.00285578
0.00646426
0.00923316
0.010338
0.00261111
0.0067891
0.00618272
0.00795199
0.00218562
0.00861528
0.00988633
0.00510552
0.0067429
0.00355701
0.0053589
0.00259604
0.00288268
0.0109134
0.0107265
0.0015938
0.00224748
0.00678493
0.00591072
0.0067763
0.00373709
0.00315854
0.00806258
0.00795544
0.0027306
0.00137917
0.00508703
0.0107168
0.000350557
0.00681953
0.000806391
0.0103202
0.000621366
0.00669565
0.00677135
0.00679762
0.00310428
0.00597948
0.00723757
0.00682436
0.00678145
0.00679043
0.00574952
0.00140411
0.00683441
0.00446133
0.00172893
0.00918845
0.00318161
0.00703219
0.0067363
0.0071722
0.00308466
0.00682489
0.00142776
0.00880908
0.00679756
0.00676223
0.000971421
0.0103652
0.00673203
0.00671411
0.0161005
0.00682093
0.0125693
0.00671412
0.00763551
0.00680117
0.00220932
0.0182326
0.0101605
0.00500081
0.00115175
0.00691865
0.0101429
0.00188736
0.0107259
0.0050177
0.00673613
0.00560911
0.00681788
0.00672126
0.00679675
0.013568
0.00677557
0.000289184
0.00676613
0.00656743
0.00328
0.001614
0.0052795
0.0055765
0.00635975
0.00672093
0.00258727
0.00354971
0.0048435
0.0067325
0.00230503
0.00967311
0.006848
0.00676124
0.00993926
0.00254136
0.00242309
0.00151801
0.0150525
0.0149413
0.00285927
0.00630112
0.00484429
0.0109322
0.00752826
0.0198228
0.00238942
0.00677775
0.00154094
0.0067378
0.00673806
0.0167884
0.00992093
0.00664993
0.00576792
0.00262857
0.00512594
0.00439053
0.0044293
0.00678165
0.00253107
0.00586113
0.00677401
0.00508975
0.0111957
0.0107076
0.0208786
0.0099715
0.00258364
0.0122242
0.0113387
0.00250926
0.00677915
0.00678025
0.0126175
0.00673657
0.000259368
0.0068205
0.00566408
0.00661668
0.00552756
0.0106174
0.00759291
0.00682136
0.00393054
0.0063065
0.00559488
0.00672001
0.0068198
0.0062825
0.00398735
0.00841897
0.0115885
0.00460013
0.00167512
0.00672854
0.00213802
0.00684781
0.00141376
0.00667257
0.00561742
0.00682815
0.00684542
0.00126225
0.00558705
0.00247018
0.00676378
0.00233093
0.000840867
0.0031186
0.00679565
0.00253536
0.00681767
0.00320668
0.00669709
0.00976097
0.00139531
0.00224587
0.00350006
0.0068133
0.00594412
0.00679879
0.00796197
0.00672024
0.00682577
0.00670327
0.0109092
0.00326222
0.00638747
0.00589939
0.00681717
0.00185809
0.0107471
0.00284739
0.00253617
0.00677308
0.00598642
0.0067893
0.00682798
0.00113973
0.0115428
0.00683627
0.00544889
0.00213607
0.00440137
0.00682938
0.00593519
0.0109065
0.0055875
0.00592406
4.48407e-05
0.0105003
0.00680773
0.00676313
0.00674484
0.0123017
0.00149722
0.00231276
0.00164075
0.00773062
0.00464887
0.00970824
0.00921267
0.00684614
0.00635845
0.00201774
0.00681476
0.00636797
0.00679845
0.00683494
0.00673904
0.00115421
0.00551202
0.0012218
0.00608111
0.00444825
0.00260542
0.010768
0.000726157
0.0104943
0.0108828
0.00570516
0.00149214
0.00148765
0.0051095
0.00136829
0.0134454
0.00673863
0.00591019
0.00675751
0.00256593
0.00346138
0.0067437
0.0169181
0.00137754
0.00269712
0.0063399
0.00672709
0.00682577
0.00151395
0.00283378
0.00881065
0.00250659
0.00177891
0.00137186
0.00166512
0.0105048
0.00343282
0.0112037
0.00680155
0.00678444
0.000360716
0.00841178
0.00402453
0.00439443
0.00686751
0.00347286
0.00963355
0.006824
0.00271891
0.00671158
0.00228906
0.0022414
0.00468453
0.0043767
1.38449e-05
0.00490525
0.010436
0.00224161
0.00673323
0.00228148
0.0127464
0.00473588
0.00370625
0.00199348
0.00669348
0.00685644
0.00678235
0.00496842
0.0115625
0.00952434
0.00410318
0.00489115
0.00407134
0.002897
0.00155365
0.006832
0.00679745
0.00675089
0.00919981
0.00673609
0.0102333
0.00284937
0.00329783
0.0012732
0.000527355
0.00396568
0.00491909
0.00234961
0.00674205
0.00666609
0.00403735
0.00191114
0.00365968
0.00671083
0.00675544
0.00231344
0.00286247
0.0013779
0.00997248
0.00370473
0.00674408
0.00159929
0.00604988
0.00267626
0.00415159
0.00671498
0.00241486
0.00684494
0.0125176
0.0067693
0.0124065
0.00675801
0.00413447
0.00497109
0.00679704
0.00325334
0.00259339
0.00269389
0.00741067
0.0108655
0.00327465
0.00288852
0.0067754
0.00449327
0.00803937
0.00684861
0.00676892
0.00934382
0.00668346
0.00683307
0.0068298
0.00503651
0.00169406
0.00280783
0.00386758
0.00668714
0.00677752
0.00198547
0.0110282
0.00673926
0.00183728
0.00381298
0.00263902
0.000341142
0.00337826
0.00591451
0.00257288
0.000459789
0.00673125
0.0120409
0.0107685
0.00263402
0.00622244
0.0105725
0.00670132
0.00503735
0.00676514
0.00164771
0.0096963
0.0112644
0.0072422
0.00416296
0.00994216
0.0150018
0.00295442
0.00671428
0.00680941
0.0083113
0.00436396
0.00195696
0.00683769
0.00684948
0.00671154
0.00683551
0.0107124
0.000261847
0.00302534
0.00820854
0.003015
0.00672906
0.00674479
0.00676881
0.00593771
0.0121774
0.000337228
0.00533018
0.00694378
0.0135522
0.00168267
0.00235965
0.00170653
0.00300349
0.0112183
0.00242466
0.00561025
0.00673708
0.00683365
0.00250385
0.010943
0.012901
0.00970049
0.00234663
0.0070104
0.00638128
0.0035557
0.0068169
0.00429017
0.0088133
0.00674467
0.00443321
0.00392167
0.00677976
0.00674748
0.00672102
0.00675465
0.00361281
0.00308424
0.0033783
0.0031193
0.0104088
0.00541414
0.0121603
0.00566026
0.00285799
0.00757763
0.0025876
0.0186353
0.00916377
0.00670948
0.0055711
0.00306554
0.00344624
0.00170713
0.0027977
0.00453836
0.00943767
0.00688862
0.00319791
0.00683439
0.00908338
0.0110984
0.00390962
0.00678169
0.0119229
0.000181453
0.00151797
0.0127466
0.00153965
0.00587856
0.00678956
0.00603068
0.0110999
0.00130828
0.00239336
0.010621
0.0102782
0.00676921
0.00674718
0.00380148
0.01101
0.0105971
0.0067321
0.00504722
0.00568404
0.00678794
0.00684877
0.00298251
0.000383091
0.00571826
0.00373337
0.00669067
0.00568477
0.00673984
0.00117298
0.00681549
0.00771967
0.0065143
0.0179399
0.0064234
0.00674088
0.00159254
0.00326578
0.00934825
0.00250293
0.00946282
0.00679169
0.00680409
0.0067508
0.00259639
0.00252996
0.00242956
0.00472524
0.00873487
0.00357182
0.00156158
0.00300639
0.0100155
0.00682795
0.00771293
0.0103114
0.0026256
0.00575357
0.00195362
0.00611332
0.00682955
0.00127126
0.00683168
0.018885
0.0021141
0.00226576
0.0112512
0.00658536
0.00195335
0.00676113
0.00568332
0.00675498
0.0067112
0.0122728
0.00121313
0.00759292
0.00325794
0.00190979
0.0030086
0.00673568
0.0186989
0.00498676
0.00676735
0.00136781
0.00675738
0.00239468
0.00678309
0.00236252
0.0068361
0.01052
0.0133714
0.00479599
0.00252569
0.00149118
0.0125275
0.00683539
0.0185205
0.0179567
0.00673044
0.00675618
0.00670355
0.00611225
0.00241379
0.00676462
0.00599156
0.00205906
0.00713316
0.00347356
0.00684922
0.00683169
0.00675687
0.00560439
0.00681026
0.00680866
0.000324007
0.00315704
0.0199379
0.0106877
0.00183982
0.00647
0.00276252
0.00625995
0.00562928
0.00541685
0.0067791
0.00321266
0.00447551
0.0126131
0.000808703
0.00662673
0.00453062
0.00204547
0.00585977
0.00568993
0.00943185
0.00673118
0.00356013
0.00671904
0.00630213
0.0088487
0.0149336
0.00677936
0.00418362
0.00658841
0.00678827
0.00151404
0.00684973
0.00562815
0.00227315
0.0106279
0.006715
0.00342539
0.00326934
0.00955348
0.00673001
0.00850365
0.00552504
0.00633417
0.0118471
0.00633856
0.00929193
0.00667207
0.0142184
0.00612776
0.00434043
0.00673038
0.00672736
0.0110808
0.00498087
0.0044508
0.00682824
0.0116208
0.00682878
0.00124321
0.00680064
0.00664736
0.00465798
0.00671155
0.00917369
0.0041825
0.0155965
0.00911139
0.00823637
0.00204341
0.00215107
0.00862272
0.010918
0.0068387
0.00164023
0.00675334
0.00668548
0.0067383
0.00591941
0.00681577
0.0076424
0.00540774
0.0110878
0.0046107
0.00531656
0.0081726
0.00202836
0.00670755
0.00145012
0.00130026
0.00905496
0.00682304
0.0067588
0.00685402
0.017892
0.00683009
0.0120355
0.00744452
0.00248313
0.00223961
0.00682232
0.013409
0.00683014
0.0124293
0.00669778
0.00315353
0.00230078
0.00679218
0.00768263
0.00755452
0.00670669
0.00187222
0.00479526
0.00389565
0.00564786
0.00172668
0.0107349
0.00683569
0.00151851
0.0104285
0.00678915
0.00598929
0.00660745
0.00200719
0.00248484
0.00552141
0.00804847
0.00680224
0.00768151
0.00522533
0.00261775
0.0100748
0.00729642
0.00452553
0.00883248
0.000277446
0.0067832
0.0131907
0.00151821
0.00245245
0.00424701
0.00985053
0.00671278
0.00320342
0.00774651
0.00164712
0.00671858
0.00544403
0.00797257
0.00255986
0.0105412
0.00573163
0.0042878
0.00219537
0.00962285
0.00231503
0.011291
0.0133806
0.00774362
0.00684989
0.0090726
0.00546027
0.0094673
0.00672966
0.00670368
0.00684179
0.0114806
0.00629204
0.011669
0.0147942
0.00683721
0.00679106
0.00673027
0.00947115
0.00431295
0.00422912
0.00824962
0.00673304
0.00969942
0.00998018
0.00150026
0.00531147
0.0087544
0.00489305
0.00329856
0.00369401
0.00274494
0.00572888
0.00675284
0.00668306
0.0039806
0.00683282
0.00675567
0.00924804
0.00788359
0.00915872
0.00165191
0.00317488
0.00683338
0.00687457
0.00904569
0.00709152
0.0067347
0.00198979
0.00521016
0.00675271
0.00682439
0.00839294
0.0117783
0.00667844
0.00673087
0.0045714
0.00674205
0.0151224
0.00637332
0.00682838
0.00499899
0.00183387
0.0117099
0.00438094
0.00919151
0.00680862
0.00637635
0.0103309
0.0104144
0.00578896
0.00264694
0.00671877
0.00262745
0.00668463
0.00665846
0.00149533
0.00683183
0.0173239
0.00374954
0.00680325
0.00643194
0.0065821
0.0179945
0.00632998
0.00675589
0.00689775
0.0105381
0.00597172
0.00336474
0.0068272
0.00673297
0.0129646
0.00682864
0.00683918
0.00310871
0.00675369
0.0103579
0.00440696
0.0068382
0.00460715
0.00676646
0.006849
0.0138137
0.00634518
0.00231937
0.00582805
0.00352772
0.00682786
0.00671826
0.00679614
0.00683793
0.0068352
0.00691808
0.00134839
0.0102551
0.00667867
0.00175095
0.0065038
0.00878875
0.00679614
0.00671146
0.00343711
0.00974998
0.00682952
0.00176304
5.15046e-05
0.00325644
0.00668877
0.00234896
0.00678736
0.00547852
0.0067428
0.00678877
0.00682404
0.00681669
0.00548746
0.00580118
0.002628
0.00246129
0.00313851
0.00324695
0.00357828
0.00251057
0.00788372
0.00517531
0.00176939
0.0101886
0.0086326
0.00168798
0.0143318
0.0064196
0.0068146
0.0163794
0.00676383
0.00426406
0.0103382
0.00619537
0.0127657
0.00145973
0.00676233
0.00678873
0.006816
0.00576595
0.00679986
0.00643197
0.00742088
0.00939116
0.0163837
0.0068238
0.00672522
0.00214764
0.00787077
0.0103647
0.00167627
0.00121186
0.00672992
0.00200473
0.00797635
0.00461611
0.00652869
0.00683238
0.00679125
0.00662198
0.0068439
0.00683693
0.00441161
0.00994557
0.00215001
0.00827028
0.00568233
0.00282651
0.00112673
0.00672895
0.0068118
0.006712
0.00676301
0.0067667
0.00657097
0.00941992
0.010646
0.0117462
0.00327141
0.00828119
0.00127408
0.0112048
0.00964388
0.00684414
0.00681158
0.00782612
0.00683122
0.00671051
0.00803538
0.0103602
0.00275412
0.00677659
0.006815
0.00645104
0.0023463
0.00687263
0.00675737
0.00647698
0.000453091
0.00681652
0.00809306
0.00213288
0.0103403
0.00683239
0.000385944
0.00869439
0.00284432
0.00892983
0.00170994
0.00839907
0.0067784
0.00563684
0.00675922
0.00296643
0.0035043
0.00682217
0.00530507
0.0067366
0.00681666
0.00672782
0.0119229
0.00237193
0.00172425
0.0124647
0.00675576
0.00201038
0.00650265
0.00147094
0.00681048
0.00663337
0.00683764
0.00356049
0.0068337
0.00681782
0.0124663
0.0101723
0.0117049
0.000482173
0.000658095
0.00793915
0.0019482
0.0118762
0.00154447
0.00676739
0.00682479
0.00668419
0.00684892
0.00921123
0.00986079
0.00680396
0.00396692
0.0126777
0.00244113
0.00669427
0.00684285
0.0107983
0.00806007
0.00993429
0.00160015
0.0103467
0.00668745
0.000638114
0.00188471
0.0105669
0.00614079
0.00673824
0.00151117
0.00723271
0.00321996
0.0090435
0.00683892
0.00653188
0.00757293
0.0115692
0.00195177
0.00273969
0.00324166
0.00150167
0.0115963
0.0122085
0.0103556
0.00168983
0.00858255
0.00682104
0.00632221
0.0024641
0.00556468
0.0126625
0.00808374
0.0068669
0.00167692
0.001381
0.00685649
0.00882567
0.00673265
0.00150642
0.00543433
0.00672747
0.0105335
0.00993693
0.0123425
0.0102188
0.00187755
0.00598654
0.00682329
0.0092098
0.00674912
0.00681183
0.0025112
0.00402209
0.0102252
0.00373263
0.00687218
0.00419656
0.00681431
0.00888273
0.00655024
0.00164685
0.01366
0.00670989
0.0074977
0.00188342
0.0066675
0.00494584
0.000283989
0.00671832
0.00399781
0.00654958
0.012587
0.00547873
0.00680506
0.00165699
0.00610126
0.00957997
0.0102908
0.00224779
0.0190988
0.00619357
0.00673543
0.00984848
0.0031944
0.00684269
0.00270141
0.00196981
0.00672222
0.00679963
0.0014889
0.00671594
0.00550291
0.000625194
0.00630847
0.00637484
0.00198524
0.00202278
0.00682809
0.00981439
0.0028658
0.00847937
0.00673276
0.00678985
0.00255116
0.00320879
0.0123125
0.00684184
0.00637756
0.00683365
0.00167077
0.00686494
0.0066444
0.000946132
0.00168153
0.00792136
0.0103796
0.00942397
0.00987281
0.00668628
0.00111467
0.0010361
0.00470996
0.00680191
0.000805293
0.00292912
0.00581206
0.00166158
0.000656493
0.016837
0.0102967
0.00193037
0.000331488
0.00671066
0.00244678
0.0020276
0.00672964
0.00216829
0.00725555
0.00560714
0.00736877
0.00175384
0.00673169
0.00675576
0.00559201
0.00673309
0.0168858
0.00676049
0.00676892
0.0115957
0.000827639
0.00506191
0.00187165
0.00686387
0.00122528
0.00550447
0.0102964
0.00620753
0.00281707
0.0103018
0.0066308
0.0067514
0.00331084
0.00810749
0.000444621
0.000644992
0.000293701
0.0052057
0.00679076
0.00673535
0.00627609
0.0031201
0.00502541
0.0014108
0.00305669
0.00899294
0.00537892
0.00606461
0.00306137
0.00676075
0.00287198
0.00357794
0.00674415
0.00690138
0.00318095
0.00383816
0.00860777
0.0102719
0.00676455
0.00197438
0.00289186
0.00156876
0.0098613
0.0112242
0.0107336
0.00682522
0.00186948
0.0115664
0.00198196
0.00166192
0.00469082
0.0104468
0.00967642
0.0121747
0.00674706
0.00783545
0.00679863
0.00664504
0.0067607
0.00249943
0.00992079
0.00225842
0.00857036
0.00380953
0.00238215
0.00670228
0.00671122
0.00682023
0.00687892
0.00246379
0.0113649
0.0126245
0.00193458
0.0161342
0.00684799
0.00225502
0.00671307
0.0121676
0.0023068
0.0068316
0.00144589
0.0018643
0.00722987
0.00721161
0.00148581
0.00270868
0.00447964
0.00904333
0.000431722
0.00579672
0.00959035
0.00665277
0.00206689
0.00680108
0.00894707
0.00518717
0.00228384
0.0123529
0.00056887
0.013276
0.00206827
0.00151372
0.0041595
0.00671305
0.00160462
0.00137916
0.00383517
0.00187383
0.00285681
0.00255791
0.00567251
0.00124886
0.0066486
0.00300018
0.00260097
0.0035122
0.00665166
0.0117736
0.00173402
0.0143316
0.00119626
0.00677039
0.00962569
0.00673004
0.00643596
0.00659662
0.0097644
0.00240781
0.011732
0.00382283
0.00196057
0.00349504
0.00163294
0.0162534
0.00146392
0.0175723
0.00693074
0.00199117
0.0068143
0.010281
0.0102461
0.00691922
0.00683299
0.00256025
0.00318219
0.00512312
0.00206923
0.00205033
0.0068324
0.0036934
0.00402874
0.00337405
0.00128139
0.00249502
0.00672133
0.0161344
0.00252784
0.00193901
0.0154828
0.00197102
0.0108429
0.00671646
0.00683915
0.00645208
0.00413883
0.00676499
0.00945788
0.0136515
0.00627175
0.00315239
0.0092133
0.000600438
0.00290369
0.0159343
0.00198965
0.00092363
0.00213478
0.00343349
0.00405921
0.00203558
0.00225832
0.00638776
0.000514647
0.0070006
0.0118288
0.00671333
0.000495505
0.000398481
0.00214228
0.00673229
0.00262557
0.00683036
0.00310911
0.00892411
0.00304166
0.00311247
0.00672645
0.00671902
0.000797438
0.00819056
0.00684385
0.00351845
0.00107498
0.00670653
0.00646825
0.0101664
0.00167276
0.00185662
0.00675074
0.0032525
0.0012415
0.00683511
0.00679181
0.00938706
0.00295722
0.00958057
0.00195292
0.0028204
0.00947328
0.00154977
0.00124919
0.00672518
0.0137265
0.00240607
0.00323981
0.0178245
0.00249157
0.00684797
0.00133013
0.00375933
0.00626828
0.00675152
0.0197757
0.00677102
0.00216245
0.00518497
0.00189333
0.00681419
0.000569503
0.00255883
0.00901687
0.00110706
0.00756555
0.00178636
0.0112024
0.00671102
0.00227182
0.00295726
0.00672895
0.0129247
0.00642431
0.00276983
0.00648912
0.00649433
0.00250326
0.00749051
0.00285468
0.00597414
0.0174307
0.00760202
0.0169271
0.0017256
0.00716549
0.00675866
0.00213566
0.0032213
0.00813306
0.0108444
0.0121284
0.0110903
0.0120227
0.00671796
0.0136272
0.00672905
0.00421503
0.00682955
0.0110895
0.00129974
0.0019034
0.00676967
0.000987236
0.00309294
0.00627367
0.00680941
0.00135641
0.00254323
0.0018584
0.00219835
0.00184634
0.00400576
0.000975017
0.00138303
0.00672983
0.00524397
0.000257419
0.00338105
0.00683193
0.00278635
0.00676547
0.00680511
0.00195916
0.0053122
0.00555763
0.00109296
0.00193005
0.00748548
0.00677537
0.0212162
0.00205167
0.0106769
0.00374127
0.00386943
0.0137625
0.00418162
0.00490341
0.00365027
0.00485639
0.00657887
0.00684669
0.00971814
0.0025648
0.00442757
0.00592945
0.00349538
0.0068074
0.00473213
0.0125299
0.00683161
0.00248335
0.0107516
0.00170893
0.00258303
0.00164092
0.00318626
0.0125069
0.0107899
0.0208632
0.00176707
0.0055655
0.00671685
0.0027498
0.00680816
0.0067382
0.00687961
0.00934931
0.00483535
0.00675258
0.00370299
0.00123828
0.00677234
0.00406277
0.00272926
0.00676994
0.0065401
0.0178377
0.00267053
0.00207495
0.00228761
0.00677113
0.00146144
0.00222598
0.00334275
0.000267196
0.00121325
0.00111415
0.00156509
0.00855242
0.00655516
0.00554224
0.00126328
0.00136243
0.00140471
0.0169684
0.00197419
0.00496592
0.00203591
0.00270215
0.00326633
0.00130942
0.00677321
0.00672978
0.00679208
0.00407692
0.00955426
0.00679202
0.00183872
0.00641227
0.00336571
0.00621975
0.000993257
0.00352157
0.00148129
0.00682497
0.0058731
0.00485773
0.00681412
0.00193309
0.00362783
0.00681005
0.00429288
0.00564885
0.00680359
0.0094764
0.00333637
0.00869297
0.00571486
0.0119484
0.00281074
0.00141621
0.00470941
0.00222201
0.00649835
0.00273869
0.0146953
0.00743438
0.00905202
0.00141524
0.0023656
0.0067423
0.0090229
0.00260167
0.00783914
0.00676378
0.00449766
0.00139116
0.0211983
0.0187523
0.00675171
0.00672893