/*--------------------------------*- C++ -*----------------------------------*\
| =========                 |                                                 |
| \\      /  F ield         | OpenFOAM: The Open Source CFD Toolbox           |
|  \\    /   O peration     | Version:  v2012                                 |
|   \\  /    A nd           | Website:  www.openfoam.com                      |
|    \\/     M anipulation  |                                                 |
\*---------------------------------------------------------------------------*/
FoamFile
{
    version     2.0;
    format      ascii;
    class       surfaceVectorField;
    location    "500";
    object      Uf;
}
// * * * * * * * * * * * * * * * * * * * * * * * * * * * * * * * * * * * * * //

dimensions      [0 1 -1 0 0 0 0];


internalField   nonuniform List<vector> 
20537
(
(1.01459 -0.0113385 -2.8715e-22)
(1.01441 -0.0109184 9.81094e-23)
(1.01424 -0.0114312 8.90556e-23)
(0.542072 0.12816 -2.52856e-22)
(0.529062 0.116155 2.96065e-22)
(0.541543 0.139182 -5.48943e-21)
(1.05194 -0.0615599 5.64722e-21)
(1.05103 -0.0621493 2.75417e-22)
(1.05201 -0.062888 3.65461e-21)
(1.01464 -0.0101846 -4.89702e-23)
(1.01446 -0.0104357 -7.0739e-24)
(1.0145 -0.00985073 5.94775e-24)
(1.0613 -0.0581207 0)
(1.06049 -0.0581169 5.91031e-21)
(1.06089 -0.0574297 1.0675e-20)
(1.05138 0.0281142 2.92952e-22)
(1.04232 0.0306217 1.70297e-21)
(1.04457 0.0220034 2.72254e-21)
(1.03118 -0.00278164 -1.55536e-21)
(1.0318 -0.00304359 0)
(1.03167 -0.00251414 0)
(1.04676 -0.051367 -5.0405e-21)
(1.04734 -0.0502769 -3.6313e-22)
(1.04816 -0.0515773 3.48272e-21)
(1.00804 -0.000859511 1.83829e-25)
(1.00822 -0.00087088 -9.93174e-24)
(1.00804 -0.000807784 1.62801e-23)
(1.03173 -0.0793755 2.07837e-21)
(1.02878 -0.0769033 2.42561e-21)
(1.03259 -0.0758495 -5.69583e-22)
(0.946465 -0.0982194 0)
(0.943664 -0.106443 4.08263e-22)
(0.960777 -0.0979302 0)
(0.59331 -0.125496 1.4896e-21)
(0.572702 -0.117876 1.1204e-21)
(0.52709 -0.119195 -1.79759e-21)
(0.957368 -0.0793004 8.14269e-21)
(0.997841 -0.077788 2.38454e-21)
(0.966301 -0.079167 8.74819e-21)
(0.207846 0.169866 1.8556e-20)
(0.226468 0.176485 -1.18069e-20)
(0.152476 0.168253 1.56214e-20)
(1.01958 -0.000678793 -2.21931e-21)
(1.01965 -0.000614718 1.11213e-21)
(1.01974 -0.000744464 5.21363e-22)
(1.02891 -0.0379142 5.8544e-22)
(1.0301 -0.0386433 2.21885e-21)
(1.02881 -0.0394828 1.7755e-21)
(1.04055 -0.0273383 5.41765e-21)
(1.03967 -0.0267441 2.95989e-21)
(1.04066 -0.0264912 1.36599e-21)
(1.02123 -0.0216831 -4.0849e-22)
(1.02138 -0.021391 1.93229e-23)
(1.02166 -0.0218473 -2.56718e-22)
(1.05315 -0.0720642 2.48967e-21)
(1.0518 -0.0702161 -9.74421e-21)
(1.05476 -0.0697823 -1.63609e-21)
(1.00785 -0.000852527 1.66198e-23)
(1.00803 -0.000915089 -2.01766e-24)
(1.01474 -0.00981823 -6.37094e-23)
(1.01483 -0.0103895 -5.56472e-24)
(1.05242 -0.0602964 4.75454e-21)
(1.05318 -0.0610221 -6.37626e-21)
(1.00273 3.68581e-05 1.14908e-24)
(1.00319 7.87163e-05 1.64165e-22)
(1.00373 0.000122473 -8.51747e-23)
(1.00314 -0.000103074 -6.21046e-23)
(1.00166 -1.21349e-05 -3.46502e-23)
(1.0033 -0.000104474 -1.7873e-22)
(1.00231 2.65168e-05 0)
(1.00169 -2.72208e-05 -1.18172e-22)
(1.04538 -0.05147 0)
(1.04639 -0.0528031 0)
(1.05148 -0.021042 -8.42754e-21)
(1.05104 -0.0202143 5.39966e-21)
(1.05048 -0.0208854 -3.87268e-21)
(0.00952663 -0.0812832 -8.41631e-21)
(0.0196858 -0.0920415 -1.8241e-20)
(1.01491 -0.0113491 -3.4922e-22)
(1.01478 -0.0119244 -1.10279e-22)
(1.02372 -0.0202562 -4.79613e-22)
(1.02406 -0.0206924 2.15199e-22)
(1.02359 -0.0205554 -1.83377e-21)
(1.0604 0.0229758 1.39702e-21)
(1.05137 0.0363791 6.26922e-22)
(1.04031 -0.0283088 -1.96507e-21)
(1.04143 -0.0280615 -9.7602e-22)
(1.04982 -0.0615805 -4.70535e-21)
(1.04979 -0.0631642 1.26967e-22)
(0.881385 0.147863 -1.20873e-21)
(0.875936 0.135997 4.02933e-21)
(0.87976 0.150096 -1.30118e-21)
(1.00303 -6.8933e-05 5.18498e-23)
(1.00437 -0.000153201 -1.63734e-23)
(1.0893 -0.0661139 2.53526e-23)
(1.09001 -0.0660826 1.42125e-20)
(1.0883 -0.067096 0)
(1.0911 -0.0715295 -8.99728e-21)
(1.09971 -0.0711322 0)
(1.10094 -0.0713709 -9.91249e-22)
(1.05691 -0.0572693 -3.65422e-21)
(1.05536 -0.0569562 0)
(1.057 -0.0584086 4.64654e-21)
(1.03109 -0.0821482 1.02352e-21)
(1.03479 -0.0808771 0)
(0.889385 0.146177 0)
(0.887212 0.154671 5.69492e-22)
(1.01478 -0.00746935 6.70608e-22)
(1.01476 -0.00757255 0)
(1.01503 -0.00773736 0)
(1.00904 0.000791286 1.47097e-24)
(1.00894 0.000770381 -2.8522e-23)
(1.00878 0.000742739 -4.85218e-24)
(-0.0170913 0.0448848 1.52405e-20)
(-0.0182876 0.0407281 0)
(-0.0127018 0.0524619 8.91189e-22)
(0.921717 -0.114117 -1.33431e-21)
(0.928682 -0.0963098 1.15956e-21)
(0.934114 -0.107039 -2.44765e-21)
(0.914296 -0.122367 1.12265e-21)
(0.912258 -0.120209 -7.2863e-22)
(-0.00605809 -0.112802 -1.00219e-21)
(0.0619802 -0.115768 2.06868e-20)
(0.0678364 -0.11488 -1.06815e-20)
(0.900563 -0.0762961 -4.75973e-21)
(0.904921 -0.0966613 1.43754e-21)
(0.902691 -0.100103 5.55103e-21)
(0.870472 -0.0893563 1.23355e-23)
(0.871523 -0.106233 -2.82944e-22)
(0.85273 -0.104512 -8.6992e-22)
(1.05187 -0.0218986 5.56329e-22)
(1.05246 -0.0211737 2.41679e-22)
(1.05004 -0.00878328 1.28494e-22)
(1.04499 -0.00872267 -4.93179e-21)
(1.0491 -0.000413751 -4.73864e-23)
(1.07152 -0.0556836 -3.29826e-21)
(1.07211 -0.0564836 -8.90802e-21)
(1.0725 -0.0553875 5.57408e-21)
(1.06846 -0.0662402 0)
(1.06921 -0.0656682 6.33016e-21)
(1.06958 -0.0669778 0)
(-0.020572 -0.109948 2.25686e-21)
(-0.0183766 -0.104684 2.7032e-20)
(-0.014024 -0.112182 1.31118e-20)
(1.01923 -0.000625724 2.31277e-21)
(1.01879 -0.000382826 0)
(1.0193 -0.000687255 -1.92159e-21)
(1.01072 -0.000795561 -1.0174e-21)
(1.01067 -0.000765316 1.48901e-22)
(1.01165 -0.000922826 0)
(1.00915 0.000812186 8.71451e-23)
(1.00931 0.000843576 3.85411e-23)
(1.00409 2.35362e-05 -2.04982e-22)
(1.0046 3.43092e-05 -2.93371e-22)
(1.00366 2.99515e-05 -4.64287e-24)
(-0.00816536 -0.118837 5.02497e-21)
(-0.00795653 -0.120051 1.96039e-20)
(0.00502423 -0.118314 1.44589e-20)
(1.02385 -0.0198079 1.55723e-22)
(1.02331 -0.0197819 -7.59268e-22)
(1.03228 -0.00584077 2.7079e-21)
(1.03177 -0.00549458 -1.85652e-21)
(1.03244 -0.00535629 2.64488e-21)
(1.06171 -0.0554367 -3.34908e-21)
(1.05773 -0.0577083 5.35609e-21)
(0.476322 -0.0122776 -7.31026e-22)
(0.468222 -0.0204756 0)
(0.409781 -0.0116179 -3.05303e-22)
(1.02505 -0.0407884 -2.74805e-22)
(1.02166 -0.0437405 4.13783e-22)
(1.02166 -0.0389872 -3.01051e-22)
(1.06259 -0.0599445 -7.60817e-21)
(1.06181 -0.0597874 4.15088e-21)
(1.06207 -0.0605495 6.16196e-22)
(0.975449 0.0483078 -1.67332e-21)
(0.995893 0.0451789 -2.03621e-21)
(0.992767 0.0345702 -8.69581e-21)
(1.01282 -0.0102828 -1.85638e-22)
(1.01324 -0.0098218 -2.85876e-22)
(1.01285 -0.00940471 6.35779e-22)
(1.07271 -0.0726268 6.91171e-21)
(1.07593 -0.0718694 -1.63221e-20)
(0.894663 -0.0245837 2.31421e-22)
(0.897438 -0.0540877 -7.76942e-21)
(1.0635 -0.0375951 -6.91918e-22)
(1.06248 -0.037947 -4.32071e-22)
(1.06254 -0.0367803 7.69107e-21)
(1.02073 -0.021469 1.07581e-22)
(1.02093 -0.0220714 -1.84382e-23)
(0.30997 -0.0101269 -4.33891e-21)
(0.299363 -0.00907243 -5.44757e-21)
(0.276951 -0.00536042 -2.92989e-20)
(1.00155 -0.071553 -9.25064e-21)
(0.999279 -0.0721175 7.67148e-21)
(1.03879 -0.072373 7.46318e-21)
(0.574655 0.144805 1.38492e-20)
(0.55368 0.119498 9.29827e-21)
(1.01943 -0.0006191 -2.23774e-21)
(1.0191 -0.00061564 -7.55982e-22)
(1.01142 -0.00118417 -5.67976e-22)
(1.01166 -0.00133317 1.41799e-21)
(1.01145 -0.00139583 -4.53248e-22)
(1.00989 -0.00111429 1.24668e-22)
(1.00992 -0.001048 8.43639e-23)
(1.00971 -0.00106317 6.84942e-23)
(1.05289 -0.05968 0)
(1.05191 -0.059917 0)
(0.430579 -0.0143385 5.92289e-21)
(0.45067 -0.0184303 -2.5496e-20)
(0.434586 -0.0135095 -2.59886e-20)
(1.05907 -0.048117 0)
(1.05979 -0.0489352 -5.17245e-21)
(1.05872 -0.0491436 0)
(0.287695 -0.0109361 0)
(0.260694 -0.00917775 -2.53674e-20)
(1.03537 -0.0100509 9.46854e-22)
(1.03458 -0.00998048 4.64117e-21)
(1.03481 -0.00939365 6.27826e-21)
(0.899834 0.104605 4.19475e-23)
(0.901424 0.101048 7.09471e-23)
(0.899574 0.0916682 3.5532e-22)
(1.02133 -0.00506123 -4.37788e-22)
(1.02152 -0.00535589 -4.10879e-21)
(1.02106 -0.0051857 -4.06924e-22)
(0.032352 -0.103936 -1.34088e-20)
(0.104581 -0.103593 -7.63636e-21)
(0.00777539 -0.0863987 0)
(1.02749 -0.0382326 -5.80896e-22)
(1.02917 -0.0425463 -5.83304e-22)
(0.609093 -0.132735 -6.36114e-22)
(0.656306 -0.1326 3.05425e-22)
(1.03948 0.00170547 -5.13561e-22)
(1.04183 0.00674107 4.07871e-21)
(1.03461 0.00501175 -4.9928e-22)
(0.667086 -0.0930015 1.31934e-20)
(0.729247 -0.0755071 -2.04424e-21)
(0.730228 -0.09194 9.44091e-21)
(1.04782 -0.0264081 5.68512e-21)
(1.04695 -0.0268587 1.35129e-20)
(1.04807 -0.0275601 -5.12796e-21)
(1.01233 0.000254281 6.23326e-23)
(1.012 0.000332501 1.77952e-22)
(1.0121 0.000341918 1.02948e-23)
(1.08812 -0.06546 -5.74721e-21)
(1.08865 -0.0663908 2.27865e-20)
(1.00282 -0.00907089 0)
(1.00117 -0.0113701 -6.26971e-22)
(1.00025 -0.00794856 8.64981e-22)
(0.892884 0.00286354 5.59599e-21)
(1.05151 -0.0310793 0)
(1.05115 -0.0318092 8.99833e-22)
(1.0522 -0.0318675 2.71694e-23)
(1.04786 -0.0255916 6.24529e-21)
(1.04891 -0.0260575 -1.34473e-22)
(1.00219 3.06337e-05 2.2448e-24)
(1.00224 3.93088e-05 1.93368e-24)
(1.00321 -3.98074e-05 -1.20483e-23)
(1.06148 -0.0590603 1.44467e-20)
(1.06213 -0.0583561 0)
(0.621166 -0.0811433 1.43562e-20)
(0.593684 -0.0817093 0)
(0.602324 -0.0808128 0)
(1.0529 -0.00791078 -5.09437e-22)
(1.04953 -0.0184741 -1.11647e-22)
(1.00099 5.0763e-05 0)
(1.00211 5.24312e-06 0)
(0.0325254 -0.0611543 0)
(0.0873615 -0.0510597 2.20033e-20)
(0.0509935 -0.0363464 -1.07189e-21)
(1.0649 -0.0492921 -6.5101e-22)
(1.06592 -0.0490591 -6.31504e-22)
(1.06505 -0.0482707 4.32658e-23)
(1.0177 -0.0128935 1.24981e-22)
(1.01794 -0.0133073 6.58678e-22)
(1.01757 -0.0130659 1.84884e-22)
(1.05782 -0.0132633 -6.46281e-21)
(1.05878 -0.0136701 -8.99762e-21)
(1.00354 6.60428e-05 5.29683e-24)
(1.0045 9.39908e-05 0)
(1.00374 6.04151e-05 4.38333e-24)
(1.04538 -0.00844491 0)
(1.04569 -0.0153497 0)
(1.03989 -0.0121569 -3.80454e-22)
(1.06833 -0.0504442 6.19158e-21)
(1.06741 -0.0506347 4.54055e-22)
(1.06811 -0.0515214 5.94307e-21)
(1.00846 0.000642719 -9.81074e-25)
(1.00837 0.000634818 1.55785e-23)
(1.00825 0.000592387 6.69174e-23)
(0.917943 -0.0689521 9.95966e-21)
(0.870104 -0.0676852 -1.04534e-20)
(1.0358 0.0406752 2.11164e-21)
(1.0322 0.0311379 1.52053e-21)
(1.00214 -2.52793e-05 -4.57131e-23)
(1.00091 4.50808e-06 -7.00109e-25)
(1.00207 -2.1591e-05 2.27157e-22)
(1.01262 0.000135576 -1.89514e-22)
(1.01257 0.000184533 -2.27813e-22)
(1.0042 -0.00729779 -4.63014e-22)
(1.00493 -0.00980543 0)
(1.00034 3.4852e-05 3.84902e-23)
(1.00035 -1.41183e-05 5.60192e-22)
(1.00316 -5.64283e-05 1.40203e-24)
(1.00203 -1.82095e-05 2.12216e-22)
(0.877619 0.1529 1.16497e-20)
(0.835715 0.121496 4.36541e-21)
(0.653036 -0.0806246 2.56189e-21)
(0.645818 -0.0813516 4.46871e-21)
(1.00761 0.000422614 3.40213e-25)
(1.00763 0.000448291 -1.66114e-23)
(1.00768 0.000458982 -1.4857e-23)
(1.00508 -0.000318709 0)
(1.00491 -0.000310177 3.2555e-22)
(1.00296 -0.000157059 -5.14562e-22)
(1.01011 -0.00067495 -2.81778e-22)
(1.00878 -0.000595259 -2.91549e-22)
(1.00835 -0.000483848 1.11079e-22)
(-0.021889 0.0378222 -1.43995e-21)
(-0.0117954 0.0566784 1.49104e-20)
(1.05712 -0.0142607 5.77867e-21)
(1.05657 -0.013061 1.12938e-20)
(0.950261 -0.078964 -7.33391e-21)
(0.911727 -0.0804046 4.16148e-21)
(0.876228 0.0497589 2.09214e-21)
(0.869638 -0.072211 1.4827e-21)
(0.889962 -0.0748168 2.83049e-22)
(1.01463 -0.00103263 -2.73719e-22)
(1.01423 -0.000477377 9.03129e-22)
(1.01423 -0.00109296 -1.27147e-21)
(0.870769 -0.0545293 2.94975e-21)
(0.849815 -0.0664605 -3.02368e-22)
(1.06175 -0.0485616 2.30797e-21)
(1.0626 -0.0485596 -1.33896e-21)
(1.06212 -0.0495308 7.71478e-22)
(1.01481 -0.00956873 -5.41726e-23)
(1.01473 -0.00931857 1.97416e-22)
(1.05799 -0.0620454 0)
(1.05836 -0.0620928 -2.10137e-21)
(1.05825 -0.0628318 -1.42637e-21)
(1.01455 -0.00719265 1.79449e-23)
(1.01481 -0.00734392 -6.98041e-23)
(1.00731 -0.00118778 -1.15938e-22)
(1.00746 -0.00128294 3.05696e-22)
(1.00737 -0.00122005 -7.7027e-23)
(0.319554 -0.0123939 -3.91583e-21)
(0.331287 -0.0159411 1.50379e-21)
(1.02155 -0.00487569 -3.4445e-21)
(1.02107 -0.00471847 0)
(0.879829 0.17482 -1.32724e-20)
(1.00728 -0.000601085 -3.7243e-22)
(1.00715 -0.000564136 0)
(1.00681 -0.000484131 -4.37534e-22)
(1.0076 0.000388321 1.3953e-23)
(1.00755 0.000376984 1.3519e-23)
(1.00785 -0.0714012 -1.01925e-20)
(1.01409 -0.0718876 7.50068e-21)
(1.04625 -0.072851 -7.14223e-22)
(0.0354401 0.13246 -4.55565e-21)
(0.0223226 0.141734 1.75221e-21)
(0.0372494 0.144127 -3.01066e-22)
(0.232148 0.166905 -1.33939e-21)
(0.276536 0.160995 3.05301e-21)
(0.227659 0.158894 1.59388e-21)
(0.013179 -0.0821135 -9.85512e-21)
(-0.013316 -0.070003 2.07419e-20)
(1.01104 -0.000948543 -9.55517e-22)
(1.00929 -0.00048268 1.23966e-21)
(1.01237 -0.0027025 -9.73444e-23)
(1.01259 -0.00319219 3.67383e-22)
(1.01222 -0.00289895 -5.69947e-22)
(1.01148 0.00122729 9.45404e-23)
(1.01127 0.00118677 0)
(1.01161 0.00126827 -5.65838e-23)
(1.03283 -0.0211756 -1.08101e-21)
(1.03331 -0.0219292 -3.76494e-21)
(1.03348 -0.0210613 -4.57248e-21)
(0.922162 -0.0828663 -8.73252e-22)
(0.936314 -0.0731446 2.88114e-21)
(1.0156 0.0124287 1.14429e-23)
(1.01837 0.0120788 -4.97415e-23)
(1.01636 0.00988194 -1.40141e-21)
(1.0577 -0.0619603 3.89384e-21)
(1.05769 -0.0613966 0)
(1.03051 -0.0024553 1.71436e-21)
(1.03058 -0.00296879 -4.89622e-21)
(0.916657 -0.120519 1.36998e-21)
(0.909438 -0.123618 -1.38588e-21)
(1.08664 -0.0522086 -1.9967e-20)
(1.08629 -0.053265 -7.1253e-21)
(1.00903 -0.000704307 -9.4969e-22)
(1.00934 -0.000698233 2.84591e-21)
(1.01026 -0.000785055 7.98606e-22)
(0.164726 0.153434 -4.20866e-21)
(0.260445 0.170651 1.1942e-20)
(1.00363 2.36197e-05 -7.10317e-23)
(1.00449 1.02093e-05 2.3657e-22)
(1.04073 -0.0181908 -5.16351e-21)
(1.04148 -0.0183587 -4.26399e-21)
(1.041 -0.0174946 5.6075e-21)
(1.03216 -0.0213987 3.45728e-21)
(1.03221 -0.0205298 3.79132e-21)
(1.01044 -0.00353532 1.97664e-22)
(1.01028 -0.00338689 -4.80432e-22)
(1.01041 -0.00345176 3.72501e-23)
(1.02487 -0.0192102 -1.25204e-21)
(1.02493 -0.0187817 2.37866e-21)
(1.02534 -0.0192769 3.76612e-21)
(1.06841 -0.0674197 -8.88488e-21)
(1.06741 -0.0660597 5.72319e-21)
(1.07086 -0.0547619 -8.03425e-21)
(1.07051 -0.0558393 1.92097e-21)
(1.01196 0.00130397 8.93512e-24)
(1.01163 0.00123651 -6.45542e-23)
(1.01189 0.00127192 6.36705e-24)
(1.05873 -0.0281735 6.37511e-21)
(1.05851 -0.0289267 3.90653e-21)
(1.05951 -0.0288029 3.2255e-21)
(-0.00543828 -0.118712 -6.44065e-21)
(-0.0159314 -0.118477 -7.84339e-21)
(1.00717 -0.00110107 1.0006e-23)
(1.00727 -0.00115607 1.40435e-22)
(1.02311 -0.0249128 -6.70282e-22)
(1.02369 -0.0255428 -5.55082e-22)
(1.02362 -0.0246545 -1.60442e-22)
(1.01016 0.000974501 -7.68037e-23)
(1.01031 0.00100297 -8.1658e-23)
(1.01001 0.000945781 4.38351e-23)
(1.01268 0.0120821 2.84869e-22)
(1.01456 0.0155948 -1.57602e-21)
(1.06444 -0.0384105 8.45366e-21)
(1.06448 -0.0371893 -7.23865e-21)
(1.01488 -0.00968859 1.06379e-22)
(1.01479 -0.00930778 -4.89942e-23)
(0.472609 -0.0976018 -9.0267e-21)
(0.446452 -0.103209 -2.25797e-20)
(0.48016 -0.0987221 -1.50779e-20)
(0.40486 -0.00891754 1.80748e-20)
(0.425658 -0.0140259 4.68937e-21)
(1.00595 -0.000124895 -3.47775e-23)
(1.00602 -0.000141695 6.56828e-23)
(1.00608 -0.000124851 5.89571e-23)
(1.01062 -0.00369385 8.75528e-23)
(1.0105 -0.0036158 1.00497e-22)
(0.198929 0.170037 -4.69354e-22)
(0.246091 0.171539 -5.04646e-22)
(1.00702 -0.001016 -3.85457e-22)
(1.00707 -0.00103833 2.70037e-23)
(0.875422 -0.122568 0)
(0.891354 -0.106309 -3.87613e-22)
(1.06059 -0.0487849 -1.47172e-21)
(1.06101 -0.0476956 4.59382e-21)
(1.01389 -0.00334358 -7.11298e-23)
(1.01414 -0.00329884 -3.30198e-22)
(1.01442 -0.00367063 -3.03869e-22)
(1.03425 -0.0731475 1.30233e-20)
(1.05876 -0.0735752 1.52988e-21)
(1.0089 0.000739101 0)
(1.009 0.000749561 0)
(1.00916 0.000789976 -3.91007e-23)
(1.04091 -0.0298412 2.37638e-21)
(1.04013 -0.0291895 2.54237e-21)
(1.03995 -0.0301047 2.43865e-21)
(0.964206 -0.070773 -1.58975e-20)
(1.02147 -0.00433983 3.59464e-21)
(1.02124 -0.00405469 -9.34039e-22)
(1.02106 -0.00423877 -1.91142e-21)
(1.05387 -0.0617012 -1.38306e-20)
(1.05402 -0.0607354 2.58401e-21)
(1.0078 0.000290196 -2.14323e-25)
(1.00744 0.000244895 -1.74711e-25)
(1.0077 0.000268104 -2.43595e-24)
(1.00254 2.77084e-06 0)
(1.00287 3.00775e-05 0)
(1.00353 7.69544e-05 -1.20361e-22)
(1.0124 -0.0107668 7.78377e-23)
(1.01301 -0.0110439 2.10834e-23)
(1.01113 -0.000987183 -6.61664e-22)
(1.01111 -0.000940699 -6.0637e-22)
(1.05976 -0.0593132 -1.09414e-20)
(1.05915 -0.0592428 -1.17515e-21)
(1.05935 -0.0598874 -1.16773e-20)
(0.992592 -0.0587847 -4.33396e-22)
(0.989887 -0.0632796 -2.5199e-21)
(0.996214 -0.0627967 -1.51328e-21)
(0.900589 -0.047348 -1.94162e-21)
(-0.0195694 -0.115041 -1.04019e-20)
(-0.0264689 -0.109201 -1.75581e-20)
(1.01289 1.58281e-05 0)
(1.0132 -0.000101126 0)
(1.01312 -0.000163948 1.25564e-22)
(1.05868 -0.0395332 9.43759e-21)
(1.05956 -0.0390725 1.84992e-21)
(1.05864 -0.038429 -6.06145e-21)
(0.485791 -0.00253672 -8.93963e-22)
(0.532603 -0.0132706 -6.74792e-22)
(1.03904 -0.0176972 -6.26295e-23)
(1.03983 -0.0180053 3.52527e-22)
(1.03936 -0.0171909 2.29525e-22)
(1.01215 -0.00232086 4.29271e-22)
(1.01239 -0.00255029 2.67637e-22)
(0.903284 0.12502 -5.16503e-21)
(0.916896 0.105271 -2.4295e-21)
(0.914434 0.12562 -4.39916e-21)
(1.01359 -0.00339848 4.34571e-22)
(1.0134 -0.00304493 2.8873e-22)
(1.00986 -0.00117892 -1.88455e-23)
(1.01007 -0.00116685 -5.22121e-23)
(1.01531 -0.00162976 3.18557e-23)
(1.015 -0.000845132 -1.57328e-22)
(0.141814 -0.108781 0)
(0.213722 -0.102632 0)
(0.232185 -0.107867 0)
(1.00196 -0.000121303 1.21564e-21)
(1.00397 -0.000181473 4.94407e-22)
(1.00156 -0.000141041 -8.07175e-22)
(1.01771 -0.00596841 0)
(1.01738 -0.00569984 0)
(1.01745 -0.00602851 -1.60578e-21)
(1.01036 -0.0640957 0)
(1.01012 -0.0607945 1.3202e-22)
(1.01334 -0.0622185 0)
(1.02192 -0.00441818 5.42596e-21)
(1.02172 -0.00464002 2.42325e-21)
(0.425033 0.0297488 6.86809e-23)
(0.332404 0.0458335 4.44001e-21)
(0.381897 0.031013 2.40207e-20)
(1.04279 -0.0274536 -5.31946e-22)
(1.04241 -0.0265236 -3.004e-21)
(1.0436 -0.0267964 8.62662e-22)
(0.45727 -0.0281356 5.94732e-21)
(0.437057 -0.0243372 6.95935e-21)
(0.455035 -0.0283182 1.65913e-20)
(1.0101 0.000926599 1.74703e-23)
(1.01037 0.000978343 1.33643e-24)
(1.01025 0.00096923 1.69236e-23)
(0.724535 -0.0606048 -1.03592e-20)
(0.684644 -0.0581721 7.44148e-22)
(0.696335 -0.058397 2.66685e-21)
(1.01781 -0.0126546 3.98204e-22)
(1.01746 -0.0124365 -7.44342e-22)
(0.882132 0.126734 2.03432e-21)
(0.884223 0.114489 3.99898e-21)
(0.876815 0.103735 -2.14478e-22)
(1.00884 0.000683858 2.23426e-24)
(1.00872 0.000671036 0)
(1.0086 0.000630501 -1.84107e-23)
(1.01112 0.00114726 0)
(1.01132 0.001172 -2.30329e-24)
(1.01094 0.00110911 0)
(0.954167 -0.0479313 3.73846e-22)
(0.953722 -0.0618678 4.37601e-22)
(0.967404 -0.0561693 4.67296e-21)
(1.03353 -0.0350063 4.83927e-22)
(1.02948 -0.0351214 1.61438e-22)
(1.03034 -0.0315814 -9.93272e-22)
(-0.0625257 -0.107038 2.57649e-22)
(-0.0562426 -0.111689 6.51176e-22)
(1.01989 -0.00162782 -3.50216e-21)
(1.01976 -0.00142938 -1.49584e-21)
(1.01962 -0.00155808 0)
(0.461223 -0.0283399 -1.18565e-20)
(0.479471 -0.031932 -1.11929e-20)
(1.04221 -0.027942 7.26522e-22)
(1.04314 -0.0281163 0)
(1.0359 -0.0105654 -3.2122e-21)
(1.03612 -0.00996132 -4.88673e-21)
(0.750479 -0.0699333 2.69738e-23)
(0.722606 -0.0693487 2.77106e-22)
(0.721593 -0.0681552 2.81731e-22)
(1.06329 -0.0643072 2.30823e-21)
(1.06243 -0.0646477 1.4936e-21)
(1.06329 -0.0654659 -8.41097e-22)
(0.622055 -0.0515913 1.77662e-20)
(0.592196 -0.048908 1.96928e-21)
(0.591801 -0.0496401 5.39341e-21)
(1.00236 2.70077e-05 -2.27558e-23)
(1.00239 1.92736e-05 -4.60594e-22)
(1.00136 3.0749e-05 3.46414e-22)
(1.05262 -0.0344208 -4.63925e-21)
(1.05352 -0.0352728 -1.75383e-21)
(1.05232 -0.0355147 3.24095e-21)
(1.00334 5.71397e-05 -3.88938e-23)
(1.00247 1.2974e-05 -2.80713e-24)
(-0.0567505 -0.0977891 -3.09178e-21)
(-0.0591549 -0.0908186 1.22585e-20)
(-0.0511574 -0.0943691 -1.31344e-20)
(1.00897 0.000697629 4.18526e-23)
(1.0091 0.000739316 -2.24318e-23)
(1.044 -0.0517924 4.32215e-21)
(1.0443 -0.0504117 0)
(1.06984 0.011094 5.60774e-22)
(1.06441 0.019165 -1.46821e-21)
(1.0416 0.0281124 -1.49567e-22)
(1.00584 -0.000116891 -4.967e-23)
(1.00588 -0.000105148 -7.81735e-23)
(1.0126 0.000168769 -2.02232e-22)
(1.07428 -0.0529423 1.88529e-21)
(1.07325 -0.0533442 3.66784e-22)
(1.07336 -0.0521992 -9.75658e-21)
(1.02564 -0.0165273 1.22316e-22)
(1.02462 -0.0176297 -1.90087e-22)
(1.02616 -0.0181027 4.66108e-22)
(0.506463 0.019789 -6.13844e-21)
(0.46117 0.0317034 -1.47212e-20)
(0.942353 0.0527491 5.49886e-21)
(0.95758 0.0445731 -6.65562e-21)
(1.0113 0.00118596 9.58242e-23)
(1.01168 0.00126472 4.72697e-23)
(1.01791 -0.00592844 0)
(1.01798 -0.00622051 -1.83738e-21)
(1.06025 0.0113779 1.65092e-22)
(1.06743 0.0144041 -4.12622e-21)
(1.0076 -0.0893276 4.88409e-22)
(1.0218 -0.0812308 3.39675e-22)
(1.016 -0.0783427 -9.70959e-22)
(1.01453 0.00223755 1.44664e-23)
(1.01413 0.00203091 -2.00175e-23)
(1.0143 0.00216727 -1.7874e-23)
(1.01094 -0.0673558 -1.13528e-21)
(1.0074 -0.0660287 4.62546e-23)
(1.00535 0.000127427 0)
(1.00516 0.000119919 -2.71637e-23)
(0.558595 -0.0450755 -1.38137e-20)
(0.533735 -0.0418673 -1.95202e-20)
(0.553572 -0.0443804 -9.06821e-21)
(1.06402 -0.0496283 0)
(1.06481 -0.0504139 0)
(0.888278 0.153736 -2.13824e-21)
(0.888282 0.160262 5.19071e-22)
(0.892657 0.157187 -1.07031e-21)
(1.03161 -0.0215365 -4.44612e-21)
(1.03095 -0.021607 -2.00454e-21)
(1.03108 -0.0208379 4.52634e-23)
(1.03348 -0.0290754 1.45878e-21)
(1.03366 -0.028069 -8.92813e-21)
(1.0327 -0.0283936 -6.75474e-21)
(1.01992 0.00431186 -2.35746e-22)
(1.01878 0.00603622 -2.17668e-22)
(1.01821 0.00348501 -8.79027e-22)
(0.994111 -0.0905896 4.51137e-22)
(0.999852 -0.101253 6.83849e-22)
(1.02945 -0.0133883 -2.7661e-21)
(1.02974 -0.013868 3.49366e-21)
(1.02909 -0.0136376 4.15412e-21)
(1.03215 -0.0221512 -2.12534e-21)
(1.07314 -0.047041 0)
(1.07401 -0.0477238 0)
(1.07267 -0.0480112 0)
(0.952045 -0.0629028 -1.11333e-21)
(0.954566 -0.0751374 -5.89981e-21)
(0.963556 -0.0668213 -6.6569e-22)
(0.989586 -0.054056 1.09222e-21)
(0.994904 -0.0543434 2.55705e-22)
(0.976601 -0.0710594 0)
(1.01693 -0.0717544 0)
(0.452002 -0.0222574 1.92698e-20)
(0.368168 -0.00772695 1.51878e-20)
(0.342843 -0.0123054 -1.73854e-20)
(1.02297 -0.00163771 -2.80028e-21)
(1.0226 -0.00143612 -2.38702e-21)
(1.0226 -0.00170135 -9.00048e-22)
(1.01093 0.00112006 5.72023e-23)
(1.02024 -0.0210872 2.13848e-22)
(1.01973 -0.0212464 0)
(1.01969 -0.0205709 -4.84323e-22)
(0.815264 0.152027 -5.36305e-21)
(0.831731 0.138731 7.8917e-22)
(0.795322 0.15065 -6.64793e-22)
(1.01253 0.00078458 -3.70007e-23)
(1.01228 0.000861357 0)
(1.01257 0.000819385 0)
(1.00046 -0.0696679 -3.37328e-21)
(1.00522 -0.0672384 3.86422e-21)
(0.959714 -0.0688836 3.32194e-22)
(1.03884 -0.0183707 -2.76858e-21)
(1.03835 -0.017556 -2.3843e-22)
(1.02978 -0.0131287 -6.81508e-21)
(1.02914 -0.0128894 -4.83167e-21)
(1.05201 -0.0303721 0)
(1.05096 -0.0304437 0)
(0.780724 -0.072683 -3.00119e-22)
(0.778749 -0.071145 -2.91655e-22)
(1.00121 -0.00433725 1.85216e-22)
(1.00431 -0.00348365 -8.234e-23)
(1.00322 -0.00712808 1.36304e-21)
(1.02184 0.00470258 -1.61944e-22)
(1.02026 0.00268472 0)
(1.04035 -0.0188927 4.34031e-21)
(0.952839 0.0859901 -1.25195e-20)
(0.977255 0.0745844 -1.04183e-21)
(0.929326 0.0901913 -4.78569e-22)
(1.05829 -0.0473526 -9.83253e-22)
(1.05934 -0.0470689 8.20769e-21)
(1.02763 -0.0373973 1.73885e-21)
(1.02863 -0.0365646 2.43011e-21)
(1.00759 -0.00137772 1.28559e-22)
(1.00753 -0.00133098 3.32539e-22)
(0.899366 0.109297 4.22244e-22)
(0.90167 0.104196 3.51142e-23)
(0.996173 0.00537055 0)
(0.992226 0.00221986 6.31238e-22)
(0.997858 0.00074905 1.63217e-22)
(0.631649 -0.0541727 -1.1208e-20)
(0.599978 -0.0507923 1.16882e-20)
(0.598215 -0.0522053 -9.52867e-21)
(0.950996 -0.0868452 0)
(0.936757 -0.0920531 2.53974e-22)
(1.01489 0.00245244 -6.65109e-24)
(1.01472 0.00226546 4.01503e-24)
(1.00979 0.000830801 0)
(1.00995 0.00088603 0)
(1.01006 0.000886655 0)
(1.00388 4.63122e-05 8.09744e-24)
(1.00411 6.57451e-05 -1.42442e-23)
(1.00484 0.000125775 5.57624e-23)
(1.07362 -0.0462279 -2.03123e-21)
(1.07248 -0.0464556 -2.46243e-22)
(0.800396 0.169671 1.12296e-21)
(0.830637 0.148411 2.75581e-21)
(0.881826 -0.137274 -9.74826e-22)
(0.900456 -0.142066 -6.07239e-21)
(0.887121 -0.154493 -5.99742e-21)
(1.00889 -0.00108487 1.52934e-24)
(1.00909 -0.00107556 -2.32235e-24)
(1.0091 -0.00114794 -2.06766e-24)
(1.02058 -0.000272812 8.47694e-22)
(1.0206 -0.000419911 4.75432e-21)
(1.02079 -0.00032038 3.28445e-21)
(0.927267 0.0978077 4.71615e-21)
(0.978757 0.0751157 3.47255e-21)
(0.911568 0.106231 -8.30098e-25)
(0.907588 0.104529 -9.21965e-25)
(0.917834 0.100998 6.48613e-21)
(1.05745 -0.0617461 3.48139e-21)
(1.05761 -0.0625321 -1.24254e-21)
(1.02387 -0.0194553 -3.10445e-22)
(1.02425 -0.0198836 -2.58861e-21)
(1.0328 -0.00614986 -4.80407e-22)
(1.03213 -0.00621531 2.02939e-21)
(1.06226 -0.0401739 -1.52844e-20)
(1.06129 -0.0405203 8.09229e-21)
(1.0622 -0.0413687 -1.66987e-20)
(0.90673 0.103235 6.60559e-23)
(0.914582 0.100942 3.76017e-23)
(1.03005 -0.071841 -9.37703e-21)
(0.992047 -0.0724604 3.686e-22)
(1.02474 -0.025998 7.97787e-22)
(1.02496 -0.0256754 -8.52588e-23)
(1.02527 -0.0262741 3.18443e-21)
(0.586104 -0.137363 -6.67828e-21)
(0.647355 -0.135228 4.87087e-22)
(1.0078 -0.00151262 -1.32627e-22)
(1.00785 -0.00156122 8.54378e-23)
(1.00771 -0.00145823 -3.50576e-22)
(0.564803 -0.0454593 2.33998e-20)
(0.586404 -0.0479253 6.54005e-21)
(1.0581 -0.0276239 -2.92948e-22)
(1.05909 -0.0274281 8.08576e-21)
(1.03892 -0.026199 -2.5577e-22)
(1.03879 -0.026996 -4.16453e-21)
(0.645508 -0.0561271 7.22732e-21)
(0.607745 -0.0540864 -6.79632e-21)
(0.618858 -0.0540121 2.25114e-21)
(1.01952 -0.0112798 -2.92402e-21)
(1.01929 -0.0113438 -2.69408e-21)
(1.01969 -0.0115997 1.04367e-21)
(1.04232 -0.00305277 0)
(1.05124 -0.00404888 -9.62941e-23)
(0.635132 -0.0527553 -9.77973e-23)
(0.635284 -0.0519175 8.80513e-22)
(0.662357 -0.0553677 0)
(1.00871 -0.00102863 3.07302e-23)
(1.00872 -0.00110123 2.59482e-24)
(1.06961 -0.0429019 1.17997e-20)
(1.07057 -0.0435898 -6.19469e-21)
(1.06936 -0.044068 1.23168e-21)
(1.04998 -0.0320566 1.01389e-21)
(1.05092 -0.0329223 -5.07063e-21)
(1.02394 -0.0190404 -4.67825e-22)
(1.0235 -0.0189751 2.2713e-23)
(0.0610836 0.119462 5.32036e-22)
(0.0411959 0.114546 0)
(1.0242 -0.0259344 1.44934e-23)
(1.02457 -0.0266272 2.12268e-21)
(1.02753 -0.0132706 -3.12333e-21)
(1.02794 -0.0132269 -3.95002e-21)
(1.02797 -0.0137393 -1.05545e-20)
(0.708568 -0.0752284 7.01095e-21)
(0.702507 -0.0724801 0)
(0.67803 -0.0725156 -8.81953e-21)
(1.00923 0.000826881 -5.00217e-23)
(1.00935 0.000847352 -3.14196e-23)
(1.00909 0.000798565 -3.19152e-23)
(1.03352 -0.0298339 6.06709e-21)
(1.03431 -0.029452 1.06512e-20)
(1.01607 -0.00218589 -4.10353e-23)
(1.01721 -0.00265738 1.2654e-21)
(1.01641 -0.00154616 -7.16703e-24)
(0.668965 -0.0575274 -1.29371e-20)
(0.670655 -0.0574378 8.6344e-21)
(1.08587 -0.061891 8.29346e-21)
(1.08647 -0.0625135 0)
(1.08666 -0.0615529 0)
(1.02014 -0.00168198 -1.50762e-21)
(1.02001 -0.00182566 1.76225e-22)
(1.06898 -0.048572 -3.07729e-21)
(1.06857 -0.0495589 6.28998e-21)
(1.06793 -0.0485532 5.97149e-21)
(1.02047 -0.00109923 -2.2867e-21)
(1.02048 -0.00125109 0)
(1.02072 -0.00115725 -2.40016e-21)
(0.477989 -0.0368901 2.37535e-20)
(0.476713 -0.0275878 0)
(1.01798 0.00775545 -6.09001e-22)
(1.01984 0.0101683 -2.77036e-21)
(1.01672 0.0104507 -5.97822e-22)
(1.00284 2.6443e-05 4.71574e-23)
(1.00319 5.00766e-05 0)
(1.00383 0.000100786 -5.92457e-23)
(1.01141 -0.00402902 -3.00505e-23)
(1.01154 -0.00417188 3.22994e-22)
(1.0114 -0.00409741 -1.53324e-22)
(1.08489 -0.0621069 -5.60051e-21)
(1.08514 -0.0610579 -2.7024e-21)
(1.05184 -0.0336113 -8.1229e-21)
(1.05293 -0.0334854 1.63428e-21)
(1.04221 -0.0167687 5.28404e-21)
(1.04221 -0.0174619 -1.62241e-21)
(1.04154 -0.0169882 1.32171e-20)
(1.02042 -0.000240529 2.59643e-21)
(1.01975 -0.0112206 3.48149e-21)
(1.01937 -0.0109976 9.73696e-22)
(1.02707 -0.0134226 4.92656e-21)
(1.027 -0.0128666 1.84323e-21)
(0.928269 -0.11389 7.67364e-23)
(0.938739 -0.108898 -1.00938e-21)
(0.351326 0.11793 5.2167e-21)
(0.335608 0.0822204 -1.04102e-20)
(0.461008 -0.090627 5.55965e-21)
(0.489526 -0.0839003 0)
(0.45684 -0.0848514 6.83071e-21)
(1.01797 -0.0239127 2.66175e-22)
(1.01891 -0.0247334 1.59465e-22)
(1.01774 -0.0251973 -2.29367e-22)
(0.687203 -0.0583643 -5.66952e-21)
(0.677056 -0.0579965 3.46388e-21)
(0.817652 -0.0285151 4.83734e-21)
(0.778522 -0.0242457 -1.33211e-21)
(0.780075 -0.0211456 6.09207e-21)
(1.01952 -0.000770598 -5.12182e-22)
(1.05862 -0.0406013 -5.3344e-22)
(1.05778 -0.0399139 8.76085e-22)
(1.05755 -0.061098 1.29576e-21)
(1.05587 -0.061494 1.10923e-20)
(1.00137 -0.01499 6.95508e-22)
(1.00234 -0.0182061 -1.74546e-21)
(1.00423 -0.0151811 -3.92422e-22)
(1.034 -0.0108972 1.7809e-21)
(1.03361 -0.013994 1.71824e-22)
(1.03114 -0.0117378 -2.31486e-22)
(1.07136 -0.0647496 6.3383e-21)
(1.0708 -0.0639134 1.9771e-21)
(1.07178 -0.0638885 7.8141e-21)
(1.05411 -0.0684173 -1.95603e-21)
(1.00972 -0.00196703 -3.05641e-22)
(1.01052 -0.00146325 -2.68798e-22)
(1.01052 -0.00256446 0)
(0.798428 0.181769 -1.54179e-20)
(0.792961 0.184228 -2.40947e-21)
(0.799311 0.186267 -2.30838e-21)
(0.631663 -0.0513455 -1.66581e-20)
(0.602869 -0.0482257 6.34505e-21)
(0.608839 -0.0488472 -9.49216e-21)
(1.01945 -0.000491932 1.61083e-21)
(1.01974 -0.000549983 3.27353e-21)
(1.04169 0.00256501 3.24055e-21)
(1.03885 0.00368258 5.75422e-22)
(1.04009 0.0104343 6.36958e-22)
(1.04162 -0.0026314 -5.82101e-22)
(1.03958 -0.00435013 -4.73593e-22)
(1.05566 -0.0740394 2.8835e-21)
(1.06777 -0.0728527 -1.1204e-21)
(1.05186 -0.069559 7.33904e-21)
(1.04228 -0.016163 -2.64433e-21)
(1.04298 -0.0166886 -8.31252e-21)
(1.03497 -0.0074562 -7.10011e-22)
(1.03805 -0.0105226 7.73368e-22)
(-0.0529091 -0.10462 -8.43659e-22)
(-0.0613476 -0.101671 3.10968e-20)
(1.01079 -0.00385662 -1.9597e-22)
(1.01074 -0.00377065 -1.94063e-22)
(0.812181 0.175631 2.16063e-21)
(0.796862 0.173702 -1.21818e-21)
(1.0113 -0.00385742 -1.25643e-22)