/*--------------------------------*- C++ -*----------------------------------*\
| =========                 |                                                 |
| \\      /  F ield         | OpenFOAM: The Open Source CFD Toolbox           |
|  \\    /   O peration     | Version:  v2012                                 |
|   \\  /    A nd           | Website:  www.openfoam.com                      |
|    \\/     M anipulation  |                                                 |
\*---------------------------------------------------------------------------*/
FoamFile
{
    version     2.0;
    format      ascii;
    class       surfaceScalarField;
    location    "350";
    object      meshPhi;
}
// * * * * * * * * * * * * * * * * * * * * * * * * * * * * * * * * * * * * * //

dimensions      [0 3 -1 0 0 0 0];
oriented        oriented;


internalField   nonuniform List<scalar> 
20580
(
-0.000315561
0.00035296
-3.73671e-05
-0.000782093
0.000346142
0.000437107
-2.87993e-05
-0.000751577
0.000173897
-0.000227992
5.40951e-05
6.25852e-05
4.68328e-05
-7.0536e-05
4.53937e-05
0.000656288
-0.000700559
-0.000492034
0.000769981
0.000122842
7.25562e-05
-0.000127926
-8.72724e-05
-0.000107189
0.000194461
-0.000202153
0.00112245
-0.000917518
0.000300862
-0.000514805
0.000214062
-0.000150126
-0.000613697
0.00077442
0.000899917
-0.000168044
-0.000730645
-6.72225e-05
0.00017247
-0.000105248
-0.00031521
0.00059121
-0.000275655
-0.000283079
-5.04773e-05
0.000333582
-0.000219839
0.00016587
5.39693e-05
-0.00105379
0.000324797
0.00073549
-0.000185399
-0.000120832
0.000306243
9.62226e-05
-0.000411749
0.000650372
-0.000251949
-0.000398096
0.000261787
0.000475667
-0.000736531
-0.000227325
0.000109134
0.000118192
4.36355e-05
1.63332e-06
-3.74516e-05
-0.000271179
6.39404e-06
0.000264791
-0.000507333
0.000309511
0.000197931
-0.000328437
0.000218566
0.00010988
-0.00010262
-0.000166123
0.000268748
-0.000237239
0.000129364
0.000107875
0.000218006
0.00077369
-0.000973189
-3.09624e-05
0.000204559
-0.000173596
0.00034683
-0.000837017
0.000322452
6.3405e-05
-0.000385821
9.98722e-05
0.000132544
-0.000232415
-0.000361619
-0.000118423
0.000480223
0.000228184
-0.00027044
4.2257e-05
6.92986e-09
4.71076e-05
-0.000304097
0.000180082
0.000124019
0.000181316
5.17027e-05
-0.000233018
0.00106141
-0.000846396
-0.000211329
0.000192183
-0.000242707
5.05242e-05
-0.00010676
-0.000130478
-0.000116153
-6.51881e-05
-0.000349851
0.000282488
6.73721e-05
-0.000168469
-4.95249e-05
0.000217995
0.000209395
0.000780958
-0.000981046
0.000153018
-0.000286355
-0.000111
0.000286277
-0.000175252
0.00103248
-0.000452727
-0.000577686
4.41377e-05
0.00085654
-0.000133282
-4.80586e-05
0.000181341
0.00106971
-0.00031159
-0.000756781
8.69189e-05
-0.000369969
-0.000676486
0.000515935
0.000161127
0.000137907
-0.000224378
8.64711e-05
0.000750008
0.000314112
0.000345795
-2.33121e-05
1.27249e-05
0.000179459
-0.000339869
0.000183718
0.00015616
0.00019542
1.44856e-05
-0.000209906
0.000613355
-0.000752072
-0.000229277
-9.91498e-05
0.000998207
-0.00102904
3.29721e-05
0.000437654
0.000596464
0.000339793
-0.000152552
-0.000187229
0.000212183
0.00012762
2.48066e-05
0.000170614
5.6772e-05
-0.000307611
0.000367523
0.000622254
-0.000985591
-0.000218082
0.000185986
3.20966e-05
-0.000125844
0.00018822
-6.23759e-05
-0.000299338
-0.000190414
0.000489955
-0.00106897
0.000715493
0.000356402
-0.000170798
0.000185284
0.000291576
-0.00063361
0.000342527
0.000365617
0.000424755
-0.000789085
-4.88919e-05
-0.000170947
-0.00113574
0.000194437
0.000974537
4.36534e-05
-0.000314826
0.000197204
-0.0010815
0.000894729
-0.000545439
0.000916962
-0.000304913
-6.98423e-06
0.000311911
-0.000640012
0.000278625
0.000166694
4.43084e-05
-0.000211002
3.44618e-05
-0.00020526
0.000142996
0.000105889
-0.000248885
0.000704496
-0.000441891
-5.1913e-05
0.000178635
-0.000126722
0.000972097
-0.000947617
-2.0706e-05
-0.000172905
0.000141943
0.000158263
0.000912214
-0.000387362
0.000735853
-0.000102525
-7.88163e-05
-5.91399e-05
0.000202136
-0.000240467
4.54631e-05
0.000195004
0.000227925
-0.000317743
8.98294e-05
-0.00142749
0.000584722
0.000850947
0.000211655
0.000182389
-0.000394013
-0.000110823
-7.2503e-05
0.000183326
-0.000397937
0.000207948
0.000190016
-0.000117342
0.000329023
-0.000170109
0.00046715
-0.000297005
-0.000443805
6.40995e-05
0.000379762
0.00095624
-0.00108224
0.000127897
-0.000378218
0.000966314
-0.000578968
-0.000565244
7.91717e-05
0.000486268
-0.00108189
0.000714125
4.9181e-05
-0.000175025
-0.000756437
0.000370845
-0.000253852
-0.000793014
-0.000701988
0.000260339
0.000442059
-0.000878297
0.00109784
-0.00031126
-7.01341e-06
0.000318297
0.000469386
-0.000321584
-0.000147703
-0.000230755
-0.000122917
0.000353706
-0.000461299
-0.000214487
-0.00106117
0.000451743
0.000632509
-9.62335e-05
0.000288792
0.000156332
1.75655e-05
-4.75899e-05
-0.000170492
-0.000355518
6.9873e-05
0.000285664
0.00115238
-9.86975e-05
-0.00104107
-0.00059743
-0.000199694
0.000800202
0.000171473
-0.000225616
5.41434e-05
-0.000347064
4.16358e-05
0.000305443
0.000322414
-2.3355e-05
-0.000299054
-0.000413733
-0.00100494
0.000483672
-0.000342202
-0.000141348
-0.000126018
0.000229665
-0.000103646
-0.000526809
0.000490798
3.62148e-05
-0.000260498
0.000737005
0.000668012
5.47208e-05
-0.000722228
-0.000152392
-0.000151699
-0.000139302
0.000239175
0.000439576
-0.000138614
-0.000231416
0.000108387
0.00012303
-0.000328989
-7.24857e-05
0.000178375
-0.000563343
0.000224676
0.000338741
0.000356801
-0.000612247
0.000255682
6.26523e-05
-0.00036755
0.000173937
0.0006313
-0.000804103
0.00107155
-9.65941e-05
-3.5733e-05
0.00027637
-0.000240624
-0.00031791
0.000170875
0.00014704
-0.000883006
0.000476171
0.000408155
-9.70047e-05
-0.00100449
0.000145419
-7.35946e-05
-0.000116125
0.00018972
0.000395098
8.86575e-05
-0.000304752
0.000187431
9.68429e-05
-0.000408073
0.000313843
0.000155628
0.000162214
0.000181201
-0.000343399
0.000716767
-0.00101885
0.000303153
-0.00109286
0.000935673
0.000158578
-0.000794412
0.000843313
-3.42549e-05
4.0724e-06
0.000177244
-2.5924e-05
0.000352993
-0.000326886
-0.000894432
0.000476068
0.000420028
9.93773e-05
-9.08309e-05
2.1215e-06
0.000177519
6.66571e-05
-0.000244176
-6.40784e-06
-0.000558622
-0.000359882
0.000248915
-0.000185317
0.000118094
-0.000171032
0.000205882
-3.48496e-05
7.97112e-05
-0.000250742
7.43369e-05
-0.000207619
-0.000460422
-0.000241107
-0.0001325
-0.000106884
0.000239386
8.34396e-05
0.000631745
-0.000703991
-0.000201643
-0.000828225
0.000209466
0.000282167
-0.000491499
-4.94384e-05
0.000119809
-4.05732e-05
-2.22575e-05
-0.000218209
0.000237503
-0.000327875
9.03816e-05
-0.000281467
-4.22902e-05
0.000323781
-0.000962037
0.000788229
0.000379771
0.000260719
-0.000640005
9.38481e-05
-0.000375289
1.15115e-05
-0.000358559
-0.000121916
0.00065711
-0.000235712
-0.000420927
0.000133344
-0.000659865
-6.1707e-05
-0.000119634
-0.000169739
9.61446e-05
-0.000270741
0.000334176
-0.000672776
0.000577003
9.58964e-05
-0.000649118
0.00104643
-0.000396143
-0.00126772
0.00101009
0.000271983
-0.000180178
-0.000137726
0.000478667
-0.000504324
1.39872e-05
0.000158483
-0.0006429
0.000689383
-0.000351839
-0.000529754
0.000143651
0.000247262
-0.000390881
3.67028e-06
-0.000274385
-0.00084425
0.00103853
-0.000189066
0.00108991
-0.000172935
-0.000911984
0.000439234
-0.000211187
-0.000228035
0.000228689
0.000114711
-0.000343385
0.000241952
-8.54845e-05
-0.000156467
0.0001467
9.4979e-05
-0.000241679
-0.000595311
0.000280472
-0.000207244
0.000182934
2.43112e-05
0.000194316
4.76369e-05
-0.00044961
-0.000316268
0.000766045
0.000499452
5.72041e-05
-0.000556447
9.53741e-05
-0.000217941
0.000122568
-0.000596661
0.000752482
-0.000154879
-0.000331776
2.4512e-06
0.000329352
0.000237939
-0.00083243
0.000291354
9.67141e-06
-0.000332895
0.000327434
-0.000510948
1.91798e-05
0.000491958
-0.000191405
-0.000502685
0.00069504
0.000941415
-0.000896456
-0.000333836
0.000168555
0.000165295
0.0010398
-0.00103107
-3.66401e-06
-5.29319e-05
-0.000118061
-0.000820882
-0.000110971
0.000243759
0.000147523
-0.000391248
-3.02414e-05
0.000196935
0.000156585
8.45386e-05
-0.000241123
0.000630801
-0.000196126
-0.000434529
-5.93839e-06
0.000505584
1.19056e-05
-0.000154907
0.000148514
-0.000310239
0.00027452
0.0010657
-0.000112906
-0.00094208
-0.000629138
-0.000245901
0.000194936
5.09654e-05
-0.000483841
-0.000188752
-0.000787183
0.000191755
-4.40566e-05
-0.000886303
0.000204143
-5.74427e-05
0.00112893
-0.000890501
-0.00012189
-0.000105434
0.000101384
0.000119149
-0.000220532
-0.000190008
-0.000207896
0.000100933
4.13947e-06
-0.000283509
-1.03268e-05
0.000293842
0.000167255
2.47717e-05
-0.000192027
-0.000257274
8.88057e-05
-0.000382223
0.000530061
0.000188276
-0.000717858
-0.000235711
-2.84097e-05
0.000264129
-0.000161058
-0.000172762
0.000631845
-0.000251606
-9.37916e-05
-0.00022394
0.000328927
0.000312989
-0.000641555
-0.000221597
7.31074e-05
0.000148489
0.00036416
4.83262e-05
-0.000412451
-0.000193351
8.35749e-05
0.000179242
0.000779518
-0.000633138
-0.000145306
0.000326066
-2.89363e-05
0.000206456
0.000184984
-0.000224746
3.97613e-05
-0.000455541
-0.0007979
-7.02915e-06
0.000948095
-0.000941251
-4.17873e-06
0.000180486
0.000158357
-0.000338825
0.000269922
0.000105185
-0.000375089
0.00045846
0.000321751
-0.000496626
0.000490406
1.60603e-05
0.00034813
0.00125299
-0.000335332
-0.00091363
-0.000408665
0.000238582
-5.6421e-05
0.000330916
-0.000274456
0.00020109
0.000124272
-0.000325355
0.000259671
-0.00103744
0.000784506
2.88421e-05
0.000913197
0.000147083
0.000212597
2.93337e-05
-0.00024193
-0.000174907
0.000201012
-2.61052e-05
0.000344307
-0.000525495
0.000181375
0.000345839
0.00081703
-0.000288744
0.000300269
0.000156761
0.000180683
-0.000337429
0.000269231
0.000158428
-0.000427616
8.11206e-05
-0.000577532
1.3002e-08
0.000212584
-0.000124764
-5.65765e-05
0.000181341
-0.000691835
4.67521e-05
0.000645793
-0.000651986
0.000548981
0.000103355
-0.000153853
-8.9384e-05
0.000243241
-0.0013817
0.000931322
0.000460589
0.000765991
-0.00073499
-1.69507e-05
-4.80371e-05
0.000317299
0.000517579
-0.000266308
-0.000251144
-7.52215e-05
0.000995784
-0.000903715
-0.000259868
0.00034365
-7.51849e-05
0.000310598
0.000764275
7.7199e-05
6.70095e-05
-9.50154e-05
-0.000701743
0.00048585
0.000216368
-1.37573e-05
0.000110747
-0.000198019
0.000450831
0.000199776
-0.00109932
0.0002685
0.000835103
0.000199248
2.3956e-05
0.000147517
0.00101039
-0.000711926
-0.000297094
0.00034001
-0.000152236
0.000181341
-2.91045e-05
0.000778933
-0.000604008
0.000837083
0.000174156
8.32417e-05
0.000367821
0.000167417
4.19315e-05
-0.000209349
-0.000194979
0.000226213
-3.12335e-05
-0.00012955
0.000434286
-0.000304626
-6.14112e-05
0.000164126
0.00012638
-0.000258878
0.000707176
-0.000236965
-0.000198273
0.000435327
4.29712e-05
-0.000195208
0.000245028
6.96572e-05
-0.000314679
-0.000233487
-0.000658597
6.81761e-05
-0.000222025
0.000342901
-0.000186415
-0.000156477
0.000230389
-8.99604e-06
-0.000221392
0.000216728
-0.000373252
0.000156551
-0.000488037
0.000199115
0.000288941
-8.39042e-05
-0.000147512
0.000130631
-0.000261408
0.000130778
-0.000263128
0.000160513
0.000360227
0.000734007
0.000202402
-6.74665e-05
-0.000134936
-9.33758e-05
-8.7965e-05
-0.000227578
0.000223382
4.1968e-06
-5.12113e-06
-0.000222455
7.37017e-05
-0.000523276
0.000219311
-0.000482531
0.000263334
0.000690176
-0.000260022
-0.000429836
-0.000160326
0.000108413
-0.000499329
0.000219427
0.000279927
-0.000328715
0.000331477
5.07106e-05
0.00045596
-0.000228651
-0.000760981
0.000183055
0.000578593
0.000192209
3.81805e-05
-0.000187197
-0.000241359
-0.00112827
0.000202048
0.000670945
-0.000480684
-0.000189977
0.000131184
0.000537237
0.000598999
-0.000121403
-6.04888e-07
0.000168022
7.98398e-05
-0.000368568
0.000334207
-0.000867243
0.000677061
-0.000637393
-0.000148544
-0.000133906
-7.3168e-05
0.000207074
0.000308047
-0.00095609
0.00031899
-0.000728977
3.80443e-05
-0.000349484
0.00043295
0.000164202
0.000507008
3.29453e-06
-5.20479e-05
-0.00104206
-0.000363888
2.25392e-05
0.000341378
0.000349779
-0.000141807
0.00029131
7.7899e-05
-0.000369178
0.000190515
0.00011062
-0.000244525
-0.000153506
0.000630579
0.000196363
-7.80266e-05
-0.000236547
0.000314589
0.00109681
-2.49727e-05
-0.00105434
-2.43124e-05
0.000269347
-0.000427679
3.3307e-05
0.000394428
0.000109755
-0.000220579
-0.000470817
-0.000289335
-0.000115205
0.000420733
-0.000152645
-0.000187213
-0.000139042
-0.000135945
0.000274992
0.000324433
7.93151e-05
-0.000403715
9.55968e-05
0.000102427
-0.000198024
-0.000453354
-0.000278859
0.000734332
0.000248159
-1.06487e-05
-0.000212886
9.67335e-05
0.000702183
-0.000278647
-0.000422971
-0.000102004
-0.000119593
-0.000663622
0.00046852
0.00019555
-4.96654e-05
0.000211501
-0.000161835
-0.000494656
-0.000156856
-0.000553808
0.000286459
0.000332915
7.18092e-05
-0.000404691
-0.000377989
0.000110373
0.00026763
-0.000319463
-0.000772116
3.93967e-05
0.000645215
-0.000683585
0.000312318
0.000205362
0.00055272
-0.000859144
0.000942479
-7.65477e-05
0.000441639
-9.71633e-05
-0.000243983
0.000238078
5.90659e-06
-0.000545436
-0.000521449
0.000591449
-0.000534033
0.000166341
2.96778e-05
-0.000196019
0.000821204
-0.000117483
-0.000702087
0.000299731
-0.000185443
-0.000114283
-0.000426856
-4.21672e-05
0.000469227
-0.00025247
5.74928e-05
0.000580129
0.000173273
-0.000270269
-0.000236932
6.82261e-05
-0.000275468
0.000311572
0.000414458
0.00016533
-0.000579578
-2.1882e-07
0.000185203
0.000201717
1.32143e-05
-0.000296716
0.000533973
0.000723117
1.59023e-05
-0.000379761
-0.000633449
8.02852e-05
0.000553562
0.000338586
-0.00045369
0.00012849
-0.00100798
0.000889973
-9.06704e-05
-9.06704e-05
-0.000255847
0.000119202
0.000136646
-0.000247942
-1.01532e-05
0.0002581
-0.000756158
0.00011999
0.000349006
0.000236217
9.80814e-05
-0.000334288
2.83158e-05
-0.000203223
0.000316912
-0.00102718
0.000735462
6.31368e-05
0.000139265
0.000238702
0.000121556
-0.000360241
-0.000140527
0.000222134
-8.16059e-05
-0.000182458
0.00051168
-0.000325824
0.000233015
9.2815e-05
-0.00102995
0.000712531
0.000319529
3.24501e-05
-5.29825e-05
0.000181341
-4.34336e-05
0.000153179
-0.000292589
0.000139419
-0.000965258
0.00076554
-0.000196888
0.000544023
0.000106537
0.000485102
-0.00100314
0.000285485
0.000745781
-0.000116907
-0.000138938
0.000433207
-0.000213793
8.72446e-06
-0.000436341
-0.00052726
-0.00016429
0.000692645
-0.000823048
0.000372312
0.000611321
0.000338884
-0.000949984
0.000155927
-0.000294963
0.00125163
-0.000977968
0.000965512
-0.000354064
0.000295778
-0.000109939
-0.000185836
1.49919e-05
-0.000258974
0.000462242
-0.000721944
0.000325599
-0.000136859
-0.000188728
0.000925253
7.30372e-05
1.92927e-05
-0.0007386
0.000215248
0.000607494
0.000339665
-0.000411055
-0.000103088
0.000514369
-0.000717832
0.000975815
-0.000252708
6.24404e-05
-0.000789709
0.000729671
-0.000232862
-0.000122639
-0.000999416
0.000303184
0.000698805
-0.000130118
-7.88835e-05
0.000209003
-0.000958333
0.000604997
0.00036912
0.000633525
-0.000728015
9.54065e-05
0.000174993
-0.000224517
-0.000588401
0.000331261
0.000257264
-0.000283039
-3.62774e-05
0.000384827
5.33841e-05
-0.000696309
0.000652854
0.000232421
-0.000758608
0.000376366
-0.00103486
0.000662934
-0.000306114
7.57065e-05
0.000230414
-0.0001469
-9.57045e-05
0.000242607
-4.31183e-05
0.000573587
-5.32348e-05
0.00015711
-0.000103875
-0.000539436
0.000916472
-6.67873e-05
-0.000840162
0.000159628
5.4158e-05
-0.000213785
0.000172963
0.000167352
0.000315186
-0.000482429
-0.00038914
-0.000494616
0.000886649
-9.49853e-05
-0.000168817
-0.00039444
2.5971e-05
-0.000204044
0.000178075
0.000178285
0.000779483
0.000519939
-0.000722698
0.000203249
0.000347002
-0.000195628
-0.000378135
0.00057417
-0.00012109
-0.000140318
-1.5814e-05
0.000252039
5.71522e-05
-0.000305089
0.000276577
-0.000613151
0.000337197
0.000313594
0.00112826
-0.00103869
-8.46492e-05
0.000196022
0.000197546
-0.00062415
-0.000225052
0.000228743
9.89569e-05
-0.000731911
-0.000500302
-0.000298431
-0.000289798
-0.000272936
-4.6806e-05
0.00012525
-8.17038e-05
-0.000102768
0.000184471
0.000195859
-3.62314e-05
-0.000260959
0.000130843
-0.000121727
0.000174636
-5.29083e-05
0.000148882
-0.000193909
2.94499e-05
0.000164459
0.000285882
0.000236291
-0.000654243
0.000418165
-6.9566e-06
0.000493292
-0.000482409
0.000218722
8.10126e-05
0.00100676
0.00011739
0.0001508
-0.00100257
0.000595593
-0.000197225
-0.000398207
0.000222108
9.39611e-06
-0.000231504
-0.000831955
0.000733777
9.99403e-05
-0.000517936
-0.00030343
0.000822321
1.22623e-05
-0.000286305
0.000274082
-0.000308328
0.000482641
-0.000174156
-3.2208e-05
-0.000834565
0.000867483
0.000223468
-0.000264533
4.10677e-05
0.000377895
0.000620265
-0.000990604
0.000100613
0.000125411
-0.000226023
2.80479e-05
-0.000334154
0.00093417
-0.000728102
1.90936e-05
-0.000732461
0.00071538
0.000151177
0.000179063
-0.000330225
0.000270753
0.00107334
-0.000216235
-2.96502e-05
0.00024589
0.00024174
-2.30149e-05
0.00121193
-0.000179962
-0.00101743
0.000119511
0.000105241
-0.000224751
-0.000325481
0.000140095
0.000192855
0.000176772
-0.000369596
0.000661345
-0.000384015
-0.000277447
0.000167511
0.000126135
-0.000218115
9.19807e-05
0.000465323
0.000757803
-0.000355367
0.000244735
0.000110645
0.000186773
0.000836993
-0.0010193
0.000969843
0.000213892
6.88115e-05
-0.000282699
-0.000180175
0.00013051
0.000192576
0.000392251
-0.000584494
0.000140377
-0.000551191
-0.000964488
6.56848e-05
0.000900185
-0.000383161
-4.80184e-05
0.0004313
0.000105522
-0.000231539
0.000155726
6.64434e-05
-0.000222169
0.000916471
0.000112704
-0.00101882
-5.80407e-05
-0.000103049
0.00016109
0.000231513
0.000812583
0.000493819
0.000523795
0.000199046
-0.000722116
-0.000626473
0.000966573
0.000772439
-0.000346633
7.84773e-05
0.00015012
-0.000228596
-0.000164923
-0.000213045
0.000197988
-0.000756757
-7.32011e-05
-0.000952578
1.42128e-05
0.000179349
6.6427e-05
-0.000245775
0.000661818
-0.000520056
-0.000135189
0.00032703
-0.000411748
8.47504e-05
0.000624863
4.14888e-05
-0.000665402
0.000257717
0.000387597
-0.000644816
0.000371841
-0.000721873
0.000350512
0.000142867
9.45976e-05
-0.000237463
8.32727e-05
-0.000208037
0.00069286
-6.00176e-05
-0.000631849
-7.73987e-05
-0.000135487
0.000896341
-0.000729212
-0.000164596
0.000518576
-0.000297763
-0.0002207
0.000132531
-0.000239291
-0.000128517
-9.58613e-05
-0.000618639
-0.000273913
0.00089601
0.000796307
-0.000406612
-3.71597e-05
-2.4649e-05
0.000174769
0.000343876
-0.000140827
-0.000203035
-0.000489658
0.000106636
-0.000164763
0.000190736
-5.35534e-05
0.000578015
-0.000691795
0.000197577
-0.000159845
-8.60552e-05
0.000151102
-0.000279385
0.000128286
-0.000328523
-5.09466e-05
0.0003795
-0.000103124
0.000203737
-0.000327976
4.80848e-06
0.000323186
0.000225076
-0.000131528
-9.35477e-05
0.000236013
0.000615722
-0.000848867
-8.07245e-05
0.00026445
-0.00018522
-0.000140597
4.65409e-05
-0.00082099
0.000783489
8.70357e-05
-0.00018956
0.000136934
-0.00027062
0.000133687
0.000197111
0.000490366
-1.10246e-05
-0.000841282
0.000855574
0.000140819
-0.000194054
-0.000296653
-9.82649e-05
0.000394982
-0.000185227
-4.04777e-05
0.000225707
0.000555054
0.00070088
7.42116e-05
-8.97098e-05
3.92829e-05
-0.00055825
-0.000114485
0.000672884
0.000235088
-0.000543235
-0.000170089
-0.000771336
0.000199851
-4.54073e-05
0.000143145
1.06918e-05
-0.000338648
-0.000471482
-0.000247358
0.000719485
0.000419031
-8.03565e-05
-0.000476436
-0.000603389
0.000663349
-0.000694997
0.000456453
-0.000577126
0.000120841
-0.000173648
0.000115607
0.000324195
0.000242307
-0.000566293
0.000192926
0.000575064
0.000864124
1.44516e-05
-0.000855851
-0.000780869
0.000971103
-0.000178447
0.000481499
-0.000199206
-0.000613877
0.00067837
-0.000407245
1.76603e-05
0.000389635
-4.03813e-05
-0.000678797
0.000720628
-0.000280871
0.00044833
0.000241475
-0.000322191
-0.00064103
2.62276e-05
0.000617897
0.000123793
7.90833e-05
-0.000202876
0.000229579
-0.000212649
8.20645e-05
0.000346339
-0.000428349
0.000120571
-0.00019797
0.00018458
-0.000252081
6.75023e-05
-0.000555715
-0.000264025
7.87998e-05
-0.000302547
0.000314853
0.000221747
0.000149546
-0.000371274
-7.80385e-05
0.000214974
-0.00106172
0.000150764
0.000919888
4.69978e-05
0.000176472
0.000209764
0.000405315
0.000297376
-0.000218851
9.71235e-05
0.000322955
-0.000190489
-0.000132459
0.000313252
0.000796379
2.18768e-05
-0.000429065
-0.000962083
0.000122887
0.000133767
9.13092e-05
-5.80752e-05
0.000169487
-0.000111411
-0.00111832
0.000529202
0.000591884
0.000131631
0.00019086
-0.000277836
8.69777e-05
-3.5763e-05
-0.000184505
0.000225276
0.000247174
-0.000278685
-3.94111e-05
0.000349004
-6.04048e-05
0.000184197
0.000168919
0.000109673
-0.000278588
0.000221557
0.000616023
0.000277204
0.000129078
-0.000406249
-0.0007749
-0.000221749
-0.000646764
-0.00031545
0.000963349
-0.00028981
2.46311e-05
0.000265187
0.000349043
-0.000119616
-0.000237059
0.000356705
0.00106317
-0.000805514
-0.000225019
-0.000267953
0.000211561
0.000281831
-0.000462541
0.000180801
0.000493237
-0.000210044
-0.000283055
0.000400998
-0.000744656
0.000344035
0.000473905
-0.000824381
0.000156401
-0.000452978
-0.000126248
-0.000431852
-0.000152061
-0.000207786
-0.00054938
0.000250244
0.000326228
-0.000516447
6.5431e-05
-0.000393918
4.70487e-05
-0.00025109
-0.00029188
0.000171058
-0.000246673
3.73022e-05
0.000209372
-0.000299549
8.3318e-05
1.08962e-05
-0.000315629
-0.000137147
0.000218351
-8.12046e-05
-0.000612779
0.000455095
0.000157875
0.000245772
-3.1877e-05
0.000340406
0.00100939
-0.000779893
-0.000222658
-0.000439277
-0.000252031
-6.81678e-05
-0.000223697
-0.000733911
0.000320948
0.000413653
-0.0010264
-4.38699e-05
1.12546e-05
0.000966884
-0.000966886
0.000276797
0.000157747
-0.000434489
0.000183617
-8.80204e-05
-6.80717e-05
0.000702415
-8.18152e-05
0.000200964
0.000933487
-4.49611e-05
0.000259769
-9.08461e-05
-0.000312088
1.44323e-05
0.000297679
-0.00013837
0.000181341
0.00042498
-0.000403049
0.000686498
-0.000105499
0.000709097
-0.000736287
-0.000220609
8.224e-05
-0.000320135
0.000200543
-0.000222954
-0.000389595
0.000251268
-0.000380799
-0.000439062
-8.02686e-05
-0.000197531
0.000277804
0.000358909
0.000353969
-0.000343257
0.000358491
-0.000700898
0.000342881
-0.000185683
-0.000115011
0.000300705
-0.000590777
-0.000437402
0.000243242
-0.000843478
0.000527472
0.000496569
-0.0011421
9.32409e-05
-0.00022904
0.000135799
-5.12228e-05
0.000166891
5.40383e-05
-0.000343839
0.000208683
4.81579e-05
0.000376872
0.000143891
7.53095e-05
-0.0002192
-0.000165896
9.33928e-05
4.06189e-05
0.000313368
0.000301888
-8.01246e-05
-0.000242907
-0.000312733
-0.000701582
0.000881388
-0.000851963
-0.00122402
0.000611556
0.000640518
-0.000962224
0.000193578
9.80516e-05
-0.000251374
-0.000214068
0.00046555
-0.000430036
0.000299801
0.000130265
-0.000169406
0.000451308
-0.000284833
0.000118715
-0.000574802
0.000787624
-0.000211347
0.000206121
8.90959e-05
-8.90959e-05
-9.78365e-05
-0.000130155
0.000556417
-0.000248078
-0.000308114
0.000124643
-3.31579e-05
-0.000872172
0.000872422
8.3844e-07
0.000208779
2.58373e-05
-0.000234616
0.000748574
-9.1268e-05
-0.000293595
0.000231061
6.25366e-05
0.000186149
-0.000264186
-0.000259062
-0.000407706
4.2819e-05
0.000364962
0.00100131
-0.0010097
2.1872e-05
0.000237289
-0.000104744
-0.000765641
0.000335318
0.000431006
0.000784371
-4.89108e-05
0.000266114
0.000700948
-0.000701056
1.50221e-06
0.000930987
-0.000298412
-0.00108921
0.000786772
0.000310068
-0.000549382
0.000288349
0.000261253
0.000135257
7.58782e-05
-0.000211135
0.000740213
-0.000312774
-0.000426818
0.000207307
0.00047925
-0.000686101
-5.29005e-05
0.000291617
-4.37951e-05
0.000199521
0.000304011
0.00027306
-0.000707293
0.00035982
0.000347948
0.000114589
-0.000248404
0.000133816
-0.000544256
-0.000648915
-0.00015585
0.000220946
-0.000212453
6.93953e-06
0.000830357
-0.00052498
0.000220727
-0.000297166
7.6444e-05
0.00045473
-2.18655e-05
-0.000432792
-0.000415768
0.00018505
-0.000272548
0.000413898
-0.000141298
0.000489707
0.000190222
0.000335355
-0.000523668
7.86539e-05
-7.86539e-05
0.00029205
0.000226622
-0.000581191
0.000820057
0.000355199
-0.000164518
-0.000353858
-0.00031377
0.00066847
-0.00029246
0.000299486
-7.01124e-06
-0.000596227
-7.24385e-05
0.000691809
0.000156448
0.00018587
-0.0003423
-0.000265707
9.07124e-05
0.00024218
-0.000332888
-0.000407387
0.00013489
0.000248016
-0.000174729
-7.32865e-05
0.000497098
-0.000272361
6.94189e-07
0.000265415
0.00014621
-0.000411591
0.000245999
-0.000896942
0.000670885
0.000627929
-0.000587601
-0.000287665
4.09945e-05
0.000177879
-0.000251046
0.000198102
-0.000100548
-0.000147855
0.0010959
-0.000146074
-0.000946096
-0.000420624
-0.000694469
5.08878e-05
0.000298986
-0.000349823
0.000329004
0.000470242
-0.000797901
0.0010465
-0.00106262
2.7221e-05
0.000215209
-0.000106074
-0.00013572
0.000316224
0.000193572
-7.90842e-05
-0.000114488
0.000349515
5.24689e-05
0.000402327
-0.000541677
-0.000417729
0.000960536
0.00103471
-0.00024689
-0.000147896
-0.000128683
0.000276583
0.000417723
-0.00040894
7.55413e-05
0.000298172
-0.000344038
4.7406e-05
-0.000301719
0.000178827
0.000172574
-0.000359044
0.000186492
0.000129686
-0.000242471
0.000960119
-6.20993e-06
-0.000447311
0.00046905
-4.70686e-05
0.000182326
-0.000378713
0.000780125
-0.000674516
0.000401189
0.000273778
-0.000817158
-0.000152973
0.000192151
4.21615e-05
-0.000234312
-1.67145e-05
-0.000116928
6.6181e-05
-0.000201668
-0.000898127
0.00100766
-0.000106988
-0.000391484
0.000201508
0.000266461
0.000316363
-0.000582517
-7.04794e-05
-0.000287396
0.000357924
0.000566186
-0.000182133
0.000900512
0.00017958
-0.00067368
0.000495278
0.000157446
0.000453862
-0.000580883
-0.000319259
0.00021435
0.000104919
0.000896448
-0.000338905
-0.00055676
-8.90224e-05
-0.000135723
0.000836633
-0.000453135
-0.000381292
-2.33884e-05
0.000243201
-0.000219809
-0.000236915
0.000157203
7.9713e-05
0.000645757
-0.000269364
-0.000375916
-0.000485469
0.00016213
0.000354325
-0.000242026
0.000146138
9.5888e-05
0.000157458
-0.000256112
9.86563e-05
0.00012607
0.000567653
0.000418535
-0.000440328
0.000947331
-6.49052e-05
-0.000138322
0.000181341
-4.30187e-05
0.000181141
0.0008347
-0.000260061
0.000191905
0.000179444
-0.000965064
0.000793568
-0.000307329
0.000488015
-3.8242e-05
-0.000255349
0.000560498
-0.000675066
0.000738053
6.143e-05
0.000454928
-0.000213512
0.000138558
7.49549e-05
0.000245554
-0.000125173
-0.000120381
-5.04829e-05
0.000241345
-0.00126266
0.000821755
-0.000207604
7.0457e-05
0.000934197
-0.000668799
1.52938e-05
-0.000582482
-0.00040731
-0.000610196
0.000193556
0.000316695
-0.000358132
-2.86815e-05
0.000390932
0.00011951
-0.000255491
0.000135982
0.000140422
-0.000272906
0.000132485
0.000201004
0.000843037
0.000149501
1.70046e-05
-0.000392485
0.000585378
-0.000901714
2.87314e-05
-8.69349e-05
-0.000155091
0.000344759
0.000113104
0.000139593
-0.000223497
-0.00040359
0.000584251
0.000178885
-0.000783919
0.000839147
-0.000578646
0.000327006
-0.000372806
6.07483e-05
-0.00115603
0.000104704
0.000212864
1.78528e-05
0.000242876
8.70334e-05
-0.000329902
-0.000163145
0.00010507
0.000127103
-0.000534704
0.000104163
-0.00013281
0.000406889
-0.000273968
-0.000199091
-0.000826102
0.000253016
-0.000576991
0.000324231
1.95874e-05
0.000399013
-0.000109033
-7.4756e-05
0.000183789
-0.000430443
-0.000270786
-0.00016628
0.000291904
-0.000125619
3.73163e-05
0.00038046
-0.000346704
9.43422e-05
0.000170425
-0.000233028
6.26036e-05
0.000193089
-2.26628e-05
0.000192751
-0.000124217
-6.85339e-05
0.000142784
0.000167348
0.000100775
-0.000268119
-0.000758128
0.000145648
1.60328e-05
-0.000251737
-0.000324631
0.00018002
0.000144617
-0.000304466
-0.000428664
-0.000102372
-0.000171965
-0.000173939
-2.96385e-05
0.000203579
-0.000540096
-0.000235221
0.000776859
-0.000134258
-0.000318243
-0.000983023
0.000367703
0.000372316
-0.000910603
0.000201547
-0.000144264
-0.00102879
7.99782e-05
0.000961859
0.000556173
-0.000302908
0.000168464
-0.000198705
0.00083124
-0.000720826
-0.000108694
-0.000222377
0.000102743
0.000764667
-0.000209203
-0.000554829
0.000427748
-0.000201192
-0.000226487
-0.00024759
0.000178326
6.92642e-05
0.000689207
0.000152979
0.000190909
7.65975e-05
0.000386029
-0.000462202
0.000273075
0.000373121
0.000157654
8.79006e-05
-0.000808424
0.00029769
-0.000374713
7.70379e-05
0.00022311
-0.000152648
-6.08639e-05
-0.000997946
0.00020955
0.000793319
0.000194365
-9.2986e-05
-0.000101379
-0.000709957
0.000431884
7.87001e-05
-0.000190742
0.000112042
-8.17793e-05
-0.000103847
0.000185627
9.73284e-05
9.70362e-05
0.000623445
-0.000382658
-0.000240551
0.000964177
-0.000774252
-0.000187612
0.000856257
0.000243332
0.000189869
4.35684e-05
-0.000228779
-0.000278202
0.000247282
-0.000991348
0.000747367
0.000108575
0.000428173
-0.000663399
0.000662445
-0.000246468
-0.000415717
0.000506824
-0.000202776
-0.000561969
-0.000195321
-0.000307282
-0.00093972
-0.000749587
0.000448933
0.000301683
0.000323637
0.000459093
-0.000782011
-0.000558811
0.000579491
0.000598433
0.000106714
-0.00017772
0.000226247
-4.85264e-05
-0.000322359
0.000185773
0.000136595
0.000676884
-0.000422965
-0.000253311
0.000312546
-0.000487909
0.000175502
0.000109951
-0.000283888
0.000414184
-0.000206192
0.000197197
0.000361075
-0.00087481
0.000236911
-0.000601072
0.000364466
0.000658786
0.000238238
-0.00103229
0.000250603
0.000787662
0.000425042
0.000118326
-0.000543197
0.000881597
4.35927e-05
-0.00106991
5.63604e-05
-0.000315696
-0.00017231
0.000856554
8.00071e-05
4.11575e-05
-0.000333604
0.000150671
-0.00076234
9.43051e-05
-0.000180583
8.62779e-05
0.000178543
0.000124689
-0.000303224
0.000329376
-0.00013194
-0.000197419
-0.000211343
-0.00014401
0.000992905
-0.000146097
-0.000841279
0.000210335
-0.00017089
-0.000177884
0.0003488
1.74565e-05
0.000645193
-0.000850692
0.00054829
-0.000238754
3.25627e-05
-0.000383209
-0.000336415
0.000720115
-0.000344514
-0.000282201
0.000257894
-4.58548e-05
0.000212196
0.00010666
0.00035891
-0.000465501
0.000934282
-0.000814477
-0.00011536
-0.000114406
-0.000329023
4.68289e-05
0.000236163
0.000483764
-0.000406721
-0.000828284
0.000864669
0.000857976
0.000137392
-0.000985274
-0.000372354
0.000242885
-0.000573784
-0.000300123
0.000876009
0.000174248
-4.81132e-05
0.00034296
0.000522482
-0.000525853