/*--------------------------------*- C++ -*----------------------------------*\
| =========                 |                                                 |
| \\      /  F ield         | OpenFOAM: The Open Source CFD Toolbox           |
|  \\    /   O peration     | Version:  v2012                                 |
|   \\  /    A nd           | Website:  www.openfoam.com                      |
|    \\/     M anipulation  |                                                 |
\*---------------------------------------------------------------------------*/
FoamFile
{
    version     2.0;
    format      ascii;
    class       volScalarField;
    location    "200";
    object      k_0;
}
// * * * * * * * * * * * * * * * * * * * * * * * * * * * * * * * * * * * * * //

dimensions      [0 2 -2 0 0 0 0];


internalField   nonuniform List<scalar> 
13851
(
0.000200317
0.000154673
0.000154465
0.0198982
0.000148432
0.000157155
0.00015554
0.000147581
0.050827
0.000148404
0.000176305
0.000148441
0.000149013
0.0287333
0.000168903
0.000201993
0.0177257
0.00014861
0.000233589
0.00020002
0.000171932
0.000156021
0.0322561
0.000149734
0.0186105
0.000184701
0.000168558
0.0123546
0.0457826
0.000146738
0.0456065
0.000155505
0.000200677
0.0681596
0.000169701
0.0453557
0.00014981
0.0178825
0.0656346
0.000148849
0.0695301
0.0475476
0.0063526
0.000216077
0.0502586
0.000147653
0.000145531
0.000201936
0.000152644
0.000148974
0.0248072
0.000149228
0.000201998
0.000164438
0.0267294
0.00014885
0.000200789
0.0669494
0.000113701
0.0297382
0.000148492
0.000243634
0.000148585
0.000152916
0.000180694
0.000181263
0.0241871
0.000166095
0.000149129
0.0289048
0.0408633
0.000176379
0.000148536
0.0265113
0.000165804
0.000152769
0.0231075
0.000145974
0.0121485
0.000147764
0.000149207
0.000231021
0.000169206
0.0309837
0.0310166
0.0445057
0.000156273
0.0206477
0.000148373
0.0455264
0.000149341
0.000155667
0.009277
0.0401864
0.0593502
0.000198334
0.00014781
0.000203294
0.0258878
0.000193198
0.000204559
0.000161985
0.000162902
0.000148787
0.000147661
0.000174888
0.000147649
0.0432378
0.000155627
0.000148457
0.000159798
0.00014767
0.000199968
0.000178395
0.000201381
0.000163598
0.00014652
0.0001471
0.0173378
0.0324225
0.000188874
0.0001477
0.000149028
0.0484041
0.000222916
0.000171688
0.0001478
0.00017134
0.0639893
0.000175412
0.000155931
0.00016229
0.00490851
0.0671505
0.000176898
0.0590899
0.000165579
0.0430483
0.000160025
0.000175374
0.000224734
0.000150456
0.0001484
0.000170889
0.0295481
0.000152277
0.000145909
0.0407468
0.0404481
0.00017199
0.000204389
0.000198738
0.000179493
0.000220804
0.000149533
0.000148672
0.00014859
0.0617662
0.000173117
0.00015402
0.000149584
0.0456438
0.000174364
0.000202006
0.0293169
0.0542766
0.0554027
0.0294229
0.00015958
0.0715206
0.000148598
0.000146504
0.000178579
0.000148826
0.0627636
0.000181547
0.000207917
0.000146436
0.000165846
0.000206935
0.00021963
0.000214489
0.000159073
0.00017517
0.00732681
0.0411061
0.00020074
0.000157356
0.00014934
0.000147166
0.0120231
0.000173065
0.0235381
0.000157375
0.000152014
0.000202646
0.000200231
0.000149725
0.000149704
0.000167153
0.000224914
0.0638991
0.0674685
0.000168929
0.000332304
0.0599561
0.000152249
0.000175377
0.0522314
0.000156251
0.000201484
0.000148968
0.000228975
0.000149534
0.000170329
0.000153884
0.00014889
0.000217834
0.000149806
0.000496739
0.000146401
0.000199717
0.026776
0.0607951
0.00015703
0.000175685
0.000149742
0.000169218
0.00014805
0.000169974
0.0335773
0.000156988
0.000156208
0.000148716
0.0653307
0.000146728
0.01665
0.0665075
0.000189826
0.000149645
0.000333636
0.0316607
0.0503366
0.000201437
0.000165202
0.000174424
0.000211448
0.000166114
0.000197221
0.000161221
0.0220135
0.000198965
0.000147124
0.000157542
0.000203598
0.0444818
0.0235838
0.000147109
0.000172316
0.000148342
0.000211571
0.000221204
0.000158133
0.000174978
0.000199674
0.000148232
0.000162298
0.000197665
0.00549265
0.000148477
0.000148868
0.000157206
0.059824
0.0121308
0.000174829
0.000147867
0.0002214
0.000220924
0.000197942
0.000174581
0.058813
0.0253254
0.000158453
0.000166203
0.0215688
0.000147651
0.000148584
0.000198543
0.000173345
0.000146794
0.000149514
0.000148006
0.000147866
0.000165264
0.000148538
0.0524762
0.000173112
0.000148333
0.0442678
0.0458242
0.000149299
0.000200308
0.0250719
0.000150682
0.000149379
0.000174269
0.0293667
0.077723
0.000181332
0.00014835
0.0683168
0.000148545
0.000182884
0.0300868
0.00403671
0.000153715
0.0097007
0.000620076
0.0482921
0.000197988
0.000162569
0.0640839
0.0545541
0.0102361
0.000149934
0.0250927
0.00831671
0.000209997
0.000205987
0.000152277
0.0001806
0.000157767
0.0218076
0.000163651
0.000147006
0.000144866
0.000158045
0.0448138
0.000375397
0.000147585
0.058216
0.000157812
0.000162542
0.000154264
0.025446
0.000219382
0.000202764
0.000153494
0.000155546
0.0437878
0.000149365
0.000222735
0.000158352
0.000174178
0.000158388
0.000148361
0.000148305
0.000195274
0.000196349
0.000199252
0.00124006
0.0445117
0.000152397
0.0643699
0.000217901
0.000146749
0.00593164
0.000190337
0.0304787
0.000157539
0.000185959
0.000229563
0.00808062
0.000193725
0.0243538
0.000151061
0.000158252
0.0069075
0.000162364
0.0268439
0.000164558
0.069824
0.000165842
0.000172249
0.000198764
0.000207665
0.000148683
0.000157762
0.000174348
0.000166105
0.000147813
0.000175168
0.0641728
0.000148513
0.00017539
0.0122892
0.000154148
0.00114003
0.000174887
0.080253
0.000156916
0.000183334
0.000304135
0.000222157
0.000174273
0.0200362
0.0267727
0.000318685
0.000148267
0.00019471
0.000164571
0.000185637
0.000147719
0.00742612
0.0708062
0.0115179
0.000155484
0.000199326
0.000238378
0.0132343
0.000145583
0.0187389
0.00021389
0.0325423
0.000161822
0.0195694
0.000148593
0.000148749
0.022865
0.000227266
0.000148422
0.000154701
0.000175857
0.000146726
0.0676996
0.00018094
0.000189875
0.000157594
0.0001511
0.000149287
0.00483295
0.000148291
0.000149215
0.0287754
0.0629864
0.0001554
0.000244798
0.000148627
0.000148528
0.000154686
0.000199706
0.000174718
0.000147899
0.000151811
0.000188013
0.000153072
0.0796076
0.000148406
0.000160221
0.0509339
0.000160699
0.000145211
0.000148722
0.000157441
0.000150256
0.000294946
0.0365723
0.000165439
0.00060834
0.000154796
0.000148299
0.0612772
0.000224217
0.000160076
0.000148616
0.0523048
0.000159495
0.000302711
0.000148792
0.000162632
0.000194553
0.0001675
0.0584188
0.000224149
0.0054017
0.000152553
0.000198996
0.000148226
0.0446169
0.00017477
0.000200222
0.00016439
0.000153169
0.000160734
0.00017907
0.000148507
0.0139712
0.0594495
0.080164
0.0072856
0.0348903
0.0334769
0.000222477
0.000156534
0.000149338
0.00216139
0.000148406
0.000147784
0.000157698
0.065498
0.000154365
0.000150448
0.00017309
0.000173234
0.000148469
0.0785574
0.000147805
0.0654546
0.000275917
0.00014776
0.000153444
0.000217695
0.0064886
0.000146811
0.0477257
0.0120101
0.000147066
0.0568981
0.000233161
0.000199321
0.000152504
0.0270846
0.0302168
0.000147304
0.000226123
0.000149066
0.000147819
0.0199921
0.0707736
0.000168699
0.00017412
0.00014842
0.000180805
0.0656437
0.0616882
0.000148089
0.0240576
0.000147868
0.000149142
0.000174483
0.000160419
0.00014555
0.000152761
0.0587409
0.000205225
0.0551074
0.000153791
0.000148329
0.0595761
0.000149139
0.000195433
0.000159959
0.000165793
0.000164924
0.0496575
0.0299518
0.000157217
0.0174733
0.000153197
0.00018003
0.0482847
0.0326189
0.000148984
0.000148262
0.000163313
0.0562763
0.000235449
0.00018039
0.00725289
0.000160609
0.00016502
0.0415666
0.0809975
0.000181208
0.0637892
0.000212534
0.0460591
0.000150488
0.000101013
0.00477065
0.000148431
0.0106755
0.0850668
0.000159595
0.000175316
0.000148752
0.000511365
0.000174954
0.0489662
0.00014832
0.00014902
0.000155295
0.000172765
0.00014847
0.0624294
0.00014898
0.000211308
0.000152537
0.000186199
0.000148764
0.000148494
0.000167244
0.0243085
0.000173933
0.057192
0.000162668
0.000146806
0.000147455
0.000178806
0.000151772
0.000187612
0.000155157
0.000159765
0.00010789
0.000149149
0.0194233
0.000149668
0.000192289
0.0200203
0.0538073
0.000156825
0.0386904
0.000172538
0.000202763
0.0848811
0.000148501
0.0833819
0.000157878
0.000163209
0.00929044
0.000891685
0.000146905
0.000187106
0.000149625
0.0449171
0.0256654
0.000149549
0.000167054
0.0709567
0.000149738
0.000149659
0.000184905
0.0162112
0.017828
0.000149394
0.000198473
0.000152651
0.000148524
9.78556e-05
0.000198995
0.000192589
0.000145339
0.000197716
0.000163608
0.000181653
0.000150515
0.000151726
0.000173758
0.00015509
0.000199902
0.000176257
0.000176126
0.000177784
0.000334411
0.000233662
0.0508875
0.0356449
0.000203053
0.0373778
0.00016324
0.0235636
0.000200257
0.00014832
0.000164415
0.000223286
0.000157153
0.000147766
0.000147715
0.000192531
0.0218514
0.000160441
0.0634473
0.00014684
0.0218672
0.000177562
0.0238104
0.000186617
0.000157091
0.00015451
0.027957
0.000192638
0.000162895
0.000228879
0.000150732
0.00195436
0.000192615
0.00021144
0.000163676
0.00025282
0.000148582
0.000149609
0.000151831
0.000148539
0.0485372
0.000147859
0.000131408
0.0587683
0.000187132
0.0634151
0.0287096
0.000212558
0.000205553
0.00015665
0.000149132
0.000148795
0.000145994
0.000147424
0.000148841
0.000180527
0.000199396
0.000164386
0.00787836
0.000151689
0.050806
0.000149953
0.0230554
0.000167963
0.00014988
0.000148813
0.054293
0.000157398
0.0177152
0.0849241
0.000174332
0.000183337
0.000146905
0.0675669
0.000153387
0.000154466
0.000108851
0.000149156
0.000150426
0.000148252
0.000174771
0.0233684
0.000160463
0.000164138
0.00021809
0.0580333
0.000156994
0.000156195
0.0475005
0.000145949
0.0468017
0.000149288
0.000153143
0.0103122
0.000188842
0.00020083
0.000182832
0.000174201
0.000149472
0.000149954
0.000181297
0.000150655
0.000149527
0.000161191
0.000211818
0.000147755
0.00019814
0.000748309
0.0116899
0.000182617
0.0458212
0.000160262
0.0001491
0.000192673
0.000146933
0.000157886
0.0462636
0.0442204
0.0826889
0.0480322
0.000149745
0.00014941
0.000168809
0.000151406
0.000147517
0.0267051
0.000212306
0.0285666
0.000192433
0.000189272
0.000148587
0.000146786
0.00188697
0.00018977
0.000153721
0.000149657
0.000201003
0.000202064
0.0652039
0.000149495
0.000148931
0.020009
0.000150464
0.000164747
0.00014674
0.0670047
0.00014799
0.0224844
0.000148459
0.000187264
0.000169943
0.000168442
0.000163998
0.000148531
0.000154675
0.000148009
0.000152794
0.000150463
0.0278894
0.000150957
0.023741
0.0615714
0.000162337
0.000147872
0.0136865
0.0372971
0.000157783
0.000188771
0.000148782
0.0190144
0.000148445
0.000223383
0.000148356
0.000147987
0.013078
0.000165156
0.000148653
0.000164934
0.0644173
0.000422671
0.0737591
0.000147088
0.039904
0.000148439
0.000147801
0.000149521
0.000144482
0.000149526
0.0786131
0.0507274
0.000149855
0.000148953
0.000169147
0.000147682
0.017215
0.000193574
0.0329688
0.0654297
0.000154596
0.000199849
0.000148386
0.000171724
0.000174805
0.000148391
0.000149348
0.000395166
0.0274184
0.000182784
0.00872078
0.000182002
0.000148609
0.000169887
0.000189177
0.0207925
0.000164218
0.000717364
0.000190328
0.000149454
0.0572702
0.0562746
0.028539
0.00629539
0.0186421
0.000152489
0.000174228
0.000149222
0.000649999
0.000156664
0.000147026
0.0764419
0.000151443
0.000147878
0.000148995
0.000151137
0.0638307
0.000222564
0.000147194
0.000170375
0.0295889
0.000151952
0.00797379
0.000151532
0.000187724
0.0696263
0.000148559
0.000238262
0.000159581
0.000163398
0.000481691
0.000151426
0.000229112
0.000182944
0.068285
0.000150055
0.0260999
0.000161929
0.0407879
0.0217442
0.0211291
0.000174433
0.000148622
0.000149812
0.000149737
0.000171015
0.000148748
0.0603871
0.000158423
0.000156451
0.000156843
0.000152387
0.000147032
0.000159348
0.000157784
0.000153418
0.000157015
0.0835972
0.000161799
0.00016153
0.000169098
0.0759082
0.000150532
0.0480286
0.000145989
0.000160822
0.000150488
0.000148263
0.000166383
0.000148268
0.00014715
0.000162612
0.000148716
0.000209679
0.000151377
0.0094267
0.00114891
0.000212398
0.000217933
0.000149279
0.0599345
0.000203031
0.000149472
0.000157605
0.000150241
0.0516122
0.000151516
0.000162474
0.00517378
0.0101271
0.000176763
0.000149411
0.0504647
0.00361517
0.0223611
0.000159485
0.000146751
0.000148013
0.00018141
0.000148605
0.025878
0.000195887
0.000149271
0.000218214
0.000212498
0.00014815
0.0841
0.0204375
0.000211977
0.000151214
0.0496164
0.000180374
0.000148034
0.023243
0.000155985
0.000147935
0.000147843
0.000164758
0.000171231
0.0552172
0.0489514
0.00017201
0.0558328
0.000166166
0.000148421
0.000168594
0.000147743
0.000921818
0.000148244
0.000148177
0.000153018
0.000150553
0.060217
0.021426
0.000231868
0.0291176
0.0847188
0.000157027
0.000148555
0.00015138
0.000230386
0.000148168
0.000148415
0.000168593
0.0155583
0.000218227
0.000145896
0.000165155
0.000164276
0.000199053
0.00746384
0.000147066
0.000145439
0.000153524
0.00493973
0.00016113
0.065688
0.000151674
0.000149011
0.000147992
0.000147825
0.000153871
0.000211978
0.0461365
0.0534187
0.000156822
0.000148303
0.0012341
0.000150285
0.0279649
0.0371301
0.00015805
0.0274979
0.0476741
0.0411929
0.000179206
0.000164013
0.0443884
0.000162366
0.000160176
0.000169128
0.000203341
0.000150486
0.00048298
0.000148447
0.0411075
0.00968965
0.000146016
0.000152693
0.000166646
0.000226259
0.000165213
0.000148862
0.000160238
0.000151509
0.000157275
0.000234197
0.000149017
0.0409206
0.0233607
0.000148489
0.000163111
0.000170896
0.000148469
0.0434001
0.0113273
0.0619026
0.0330774
0.00014819
0.00015419
0.000156928
0.000149556
0.000231007
0.000165625
0.000149684
0.000182089
0.000154759
0.0338175
0.000170114
0.0252629
0.000151383
0.000151967
0.000163527
0.000189348
0.0001829
0.000148228
0.00897886
0.0441924
0.0257532
0.0378754
0.0455245
0.0544285
0.0388375
0.000148222
0.000148312
0.000148968
0.000232415
0.000174234
0.000182516
0.0141473
0.000149831
0.000145651
0.000148428
0.000218193
0.000145844
0.000158223
0.000152574
0.0252144
0.000151067
0.000146974
0.000148505
0.000148254
0.000149002
0.00015988
0.000230356
0.000160273
0.0609401
0.000148279
0.000147848
0.0639191
0.0638521
0.0205123
0.014326
0.00016361
0.0202748
0.000146709
0.000168837
0.000151945
0.000148482
0.000154929
0.0266321
0.000152137
0.000189717
0.00169212
0.000149945
0.000148188
0.000155064
0.000212705
0.000149798
0.0253208
0.000148884
0.000214561
0.000148765
0.000149826
0.000157974
0.000170706
0.000149043
0.000133163
0.0418188
0.000208113
0.0669722
0.000148589
0.0246467
7.68328e-05
0.000148306
0.00942885
0.000149538
0.000161713
0.000149344
0.000149731
0.000147625
0.000148507
0.000150139
0.000155657
0.000182883
0.000149617
0.000148591
0.000165263
0.000146776
0.0817809
0.000148769
0.000163389
0.000166115
0.0345161
0.00212186
0.000148911
0.000212377
0.000146693
0.000163264
0.000172397
0.0111736
0.00017555
0.000149801
0.000196626
0.000167741
0.00018887
6.05365e-05
0.000160777
0.000196328
0.000180381
0.000183657
0.000150967
0.000147753
0.010981
0.0116852
0.000154405
0.000148011
0.00863419
0.000146887
0.000171154
0.000147745
0.000176171
0.00987797
0.000145051
0.0160437
0.00015704
0.000149066
0.000206972
0.000147017
0.000161229
0.0347653
0.000169321
0.012885
0.000147594
0.000149748
0.000161918
0.000149471
0.000149608
0.000160141
0.000161174
0.000182867
0.000177585
0.00014889
0.000165127
0.000147601
0.000148343
0.000149394
0.000148322
0.000477883
0.000148317
0.000151618
0.000242126
0.000146844
0.000147933
0.0617038
0.000149632
0.0116955
0.000152481
0.0597678
0.000218688
0.000164226
0.0012359
0.000176911
0.000272326
0.000150291
0.00020313
0.000157408
0.000147658
0.000147672
0.000151584
0.000162754
0.000148185
0.000170642
0.000147301
0.000151946
0.00705336
0.0246459
0.000117296
0.000154767
0.000163161
0.0362095
0.0296021
0.000149094
0.00015792
0.000324663
0.000149593
0.000167903
0.000320983
0.0532175
0.000159084
0.000172686
0.000150884
0.000214887
0.000149892
0.000160972
0.0168356
0.000149167
0.000147763
0.0803079
0.000170204
0.000239059
0.0677394
0.000192893
0.000149926
0.000147322
0.000149947
0.0321748
0.00355632
0.0513155
0.000173831
0.000148566
0.0416884
0.000148658
0.000198033
0.000155335
0.000153013
0.00017176
0.000148324
0.084763
0.085116
0.00014687
0.000182354
0.000175064
0.0017063
0.000171093
0.000180199
0.000236167
0.000166084
0.000179843
0.000181224
0.000148674
0.000167282
0.000168362
0.0308391
0.000148169
0.000522117
0.000171969
0.000181441
0.000149804
0.0832204
0.000157362
0.000152262
0.000147551
0.000166198
0.000165644
0.000166005
0.000148792
0.000150635
0.000171479
0.00821155
0.000174935
0.000148978
0.000150437
0.00016724
0.000212898
0.000149086
0.000179359
0.0153782
0.000167292
0.0547127
0.000170749
0.0253056
0.000228678
0.00014824
0.000857349
0.000149551
0.000154573
0.000164746
0.000165701
0.000188119
0.00017484
0.000165512
0.000166762
0.000161917
0.000153199
0.000145783
0.000169134
0.000156451
0.00015726
0.00139458
0.000156175
0.000159058
0.000147713
0.0252175
0.000178115
0.000148885
0.000155121
0.000151598
0.0293077
0.000195843
0.000164772
0.0497669
8.55951e-05
0.000350778
0.000188366
0.00024153
0.00014732
0.000184413
0.000148364
0.000155471
0.0166191
0.043177
0.000230172
0.000482557
0.000148734
0.0257793
0.000147294
0.000188679
0.000154452
0.0169277
0.0790289
0.000157929
0.000148007
0.000225383
0.00016187
0.000148138
0.038379
0.000148469
0.000152372
0.000156502
0.000149326
0.000161385
0.000151734
0.000148582
0.000162888
0.000247194
0.000170181
0.000175007
0.000148125
0.0295138
0.0437618
0.000147888
0.000242518
0.000154374
0.000157186
0.0511016
0.000147867
0.000150567
0.000156597
0.0458027
0.00014817
0.000149153
0.000168969
0.0213046
0.000147769
0.000159533
0.000161428
0.000938225
0.00017107
0.000168593
0.000218042
0.000148486
0.000171938
0.000146042
0.0279945
0.000160539
0.000148409
0.000159195
0.00018527
0.000148921
0.000149486
0.000199893
0.0453375
0.000150242
0.0295041
0.000149198
0.000146004
0.000180552
0.000148159
0.000148325
0.0832081
0.000149812
0.000169968
0.000206072
0.0541705
0.00072719
0.000148089
0.000152653
0.000156399
0.000148394
0.000148607
0.000148562
0.00570209
0.000149258
0.000213365
0.0001982
0.000147746
0.000146914
0.000161088
0.000198162
0.000242422
0.00016617
0.000175948
0.000152824
0.0521953
0.000175213
0.000163201
0.000171027
0.000171227
0.00018651
0.0253423
0.000169776
0.0294635
0.0229422
0.0234921
0.000155056
0.000148258
0.000166753
0.000159241
0.000147726
0.00015029
0.00017718
0.000149594
0.000149766
0.000148272
0.000145385
0.000153255
0.000149
0.022247
0.000147986
0.0292965
0.000148448
0.000172904
0.000150617
0.00019831
0.000172663
0.000148642
0.0523863
0.00015258
0.000149472
0.00017027
0.000147494
0.000158727
0.000148624
0.046273
0.000153483
0.000170416
0.000170084
0.0490794
0.000157774
0.000185703
0.00141374
0.000169039
0.00014923
0.000151741
0.000174922
0.000179543
0.0245186
0.000146878
0.0328181
0.000148875
0.000168753
0.0813016
0.000164791
0.014594
0.000154951
0.000163631
0.000154063
0.0851303
0.000161348
0.000148853
0.000168214
0.00019756
0.000152324
0.0001483
0.000148868
0.0645043
0.000149661
0.000157103
0.0652612
0.000155304
0.000148242
0.00017084
0.000154562
0.0362144
0.000145663
0.000148411
0.000147052
0.000154791
0.000150179
0.000149278
0.000182044
0.0615056
0.000148112
0.000148625
0.0452732
0.000149982
0.0164592
0.000154034
0.0811852
0.00014762
0.000153309
0.000146688
0.0307129
0.0663405
0.000159016
0.000168692
0.000155532
0.000148101
0.00014871
0.0463748
0.000148815
0.00018853
0.000147354
0.000172423
0.000149214
0.0587692
0.000146893
0.000173851
0.000147633
0.000215566
0.000296029
0.000147279
0.000165863
0.086025
0.000183479
0.0212947
0.0119547
0.000200865
0.000151831
0.000164755
0.000188637
0.0085317
0.000149858
0.000169524
0.000156531
0.000148348
0.027507
0.0380444
0.000183325
0.000202384
0.000225742
0.000162299
0.059095
0.000147654
0.000147185
0.000185987
0.0837699
0.000211326
0.000196838
0.00254277
0.000146729
0.0841121
0.0352743
0.0800968
0.000149296
0.0311836
0.0460117
0.000313841
0.000394917
0.0463056
0.000189321
0.000161073
0.000200065
0.00015436
0.000148271
0.000860837
0.000190088
0.000145658
0.0356265
0.000149208
0.00015837
0.000171505
0.000155472
0.000597538
0.000160208
0.01231
0.000173538
0.000154863
0.015347
0.0724732
0.000199037
0.000149842
0.00015451
0.000182031
0.000168075
0.000146801
0.000172417
0.000167045
0.000194758
0.000148231
0.000205656
0.000153487
0.000168176
0.0325877
0.000172708
0.000151287
0.000183735
0.0336711
0.000149162
0.000150893
0.0788702
0.000220166
0.000154004
0.000154834
0.000148526
0.000173696
0.000156642
0.0472513
0.000187651
0.000150158
0.000149442
0.00016636
0.000159078
9.12942e-05
0.0286813
0.000147539
0.000148184
0.000157964
0.000149246
0.000154016
0.00015116
0.000151191
0.000154646
0.000147861
0.000154068
0.000149265
0.000175009
0.00755132
0.000149742
0.0664678
0.0165284
0.000146054
0.000181419
0.000185291
0.000178185
0.000150645
0.000190226
0.000158291
0.000168215
0.000161276
0.000152085
0.000149342
0.0242331
0.000160504
0.013969
0.000150611
0.000148453
0.000148096
0.00017245
0.000148044
0.000175172
0.000181233
0.000310919
0.000147491
0.000185736
0.00549748
0.0461772
0.00014667
0.00019236
0.000218787
0.00713282
0.000217959
0.000150264
0.000149586
0.000191893
0.00175832
0.00544138
0.000170083
0.000244365
0.000149499
0.000147887
0.000164226
0.000149261
0.00014907
0.000196419
0.000149753
0.000168955
0.00014758
0.0727256
0.0652199
0.0321608
0.0308972
0.0431498
0.000149044
0.000148901
0.0804423
0.00014707
0.000147399
0.000146029
0.00018216
0.0695396
0.0258859
0.000156157
0.000149496
0.000151805
0.00016271
0.0296222
0.000148114
0.0131587
0.0743539
0.000149209
0.000149121
0.0352642
0.000187421
0.00015292
0.000148286
0.0731648
0.0440917
0.000148805
0.000212105
0.000149669
0.0481226
0.0003873
0.000153632
0.0269044
0.0163969
0.0541921
0.000147419
0.000149809
0.000149608
0.000149898
0.0649565
0.000147777
0.000194904
0.000240428
0.0226046
0.000150999
0.000173289
0.000104926
0.000172907
0.078358
0.0526209
0.00014545
0.000156638
0.00015678
0.000200318
0.0543146
0.000145233
0.023976
0.000160446
0.000172147
0.000150667
0.000147507
0.000216085
0.000167726
0.0190339
0.00014926
0.000173128
0.00015074
0.000198233
0.000154343
0.0600968
0.00917407
0.000199127
0.000191403
0.000148173
0.000152865
0.000188589
0.000180851
0.0586144
0.0849203
0.000148913
0.0164143
0.000169925
0.072003
0.000158876
0.000169667
0.000168266
0.000149163
0.0614967
0.00014839
0.000164038
0.0306335
0.0710879
0.000494476
0.0687442
0.000157769
0.000174705
0.000146961
0.0732178
0.000156796
0.0350282
0.000146902
0.0431702
0.000145098
0.000147991
0.000163512
0.000158474
0.000159757
0.000148302
0.0372562
0.000173043
0.000147806
0.000165608
0.0314596
0.000221101
0.000148546
0.0574805
0.000153822
0.000166076
0.000164532
0.000145841
0.000177073
0.000147963
0.0140242
0.00017234
0.000158864
0.000148297
0.000223532
0.00016878
0.000146901
0.0455295
0.00471735
0.000219
0.00014669
0.000481851
0.000148866
0.000189475
0.000159501
0.000180147
0.00904199
0.0363309
0.000159488
0.0685337
0.000169256
0.000157606
0.000147003
0.0555399
0.00017848
0.000188127
0.000164913
0.000149589
0.0196278
0.000181998
0.000227741
0.000241966
0.0852383
0.0374089
0.00274708
0.0332444
0.000157914
0.000158625
0.000148564
0.000149093
0.000145384
0.000207978
0.000158434
0.000159769
0.0629316
0.000147806
0.000146963
0.000171497
0.000198032
0.000159355
0.000147116
0.0651703
0.000154028
0.000175023
0.000149314
0.0232916
0.000157079
0.0773599
0.000166304
0.000164872
0.000170899
0.000148521
0.0106854
0.000129906
0.000179003
0.000148649
0.000147242
0.022959
0.0453265
0.0443006
0.000148038
0.000179222
0.000196635
0.000149085
0.00014795
0.000148944
0.0682159
0.000171159
0.000162913
0.000159553
0.000157396
0.0437014
0.000178391
0.000221406
0.000158228
0.00016385
0.000145359
0.000181981
0.000172476
0.000148376
0.0451304
0.0547486
0.0618342
0.0439154
0.0420773
0.0829366
0.0819008
0.000151383
0.000148157
0.0674576
0.037967
0.0303025
0.000148767
0.000169569
0.000148569
0.000148082
0.00946824
0.0728631
0.00018117
0.000148002
0.00019718
0.000189664
0.000173626
0.0378386
0.000733539
0.000240554
0.000147277
0.0599134
0.0040357
0.000220271
0.000164475
0.000170801
0.000149244
0.000147219
0.000167578
0.00017151
0.000153835
0.000170544
0.000159326
0.000154313
0.000224586
0.0350383
0.000159136
0.000171948
0.0454169
0.000213161
0.000148676
0.000191597
0.000224888
0.0266429
0.000168625
0.000149338
0.000160912
0.0001571
0.000158365
0.000145844
0.000158917
0.000163332
0.000174241
0.000198743
0.000149496
0.000151654
0.0371751
0.0483428
0.0697627
0.000123699
0.000196074
0.000144902
0.00014849
0.000161459
0.000146818
0.0857816
0.000148462
0.00014981
0.000146324
0.0451709
0.015912
0.000149926
0.000181452
0.000158282
0.000161544
0.000160931
0.000159728
0.000169998
0.000165975
0.0212494
0.000157354
0.0399983
0.000166745
0.06858
0.000159994
0.000147408
0.00014693
0.000190609
0.000199808
0.000146748
0.000162825
0.000160304
0.000174959
0.0284931
0.0241261
0.0281173
0.000149809
0.000286304
0.000158558
0.000164231
0.000148281
0.000178472
0.000152589
0.0286359
0.000278778
0.000165616
0.000148469
0.0476732
0.00015574
0.0347155
0.0368562
0.00022858
0.000153493
0.000195103
0.0348679
0.000157912
0.0502155
0.000176106
0.000148388
0.000166798
0.000148088
0.0804547
0.000153861
0.000161945
0.000201276
0.0660357
0.00014817
0.000148155
0.0418978
0.000168881
0.0806459
0.000158703
0.000148284
0.00017001
0.00021568
0.000162333
0.0125909
0.000164111
1.62148e-05
0.000155265
0.000149607
0.00014806
0.000210689
0.000150514
0.000181038
0.000148626
0.000148638
0.000206726
0.00015753
0.00014916
0.000148178
0.000164013
0.000137619
0.000172319
0.000167904
0.000155168
0.000177004
0.000148622
0.000189368
0.000161647
0.000171214
0.000166921
0.000160261
0.000173743
0.000162983
0.000147958
0.000183005
0.049114
0.0337679
0.000149337
0.000480159
0.0341304
0.000148143
0.000150521
0.000222074
0.0401587
0.000156143
0.0336081
0.000228948
0.000149252
0.000188943
0.000145335
0.000156998
0.000177758
0.0253464
0.000201514
0.000236059
0.000137687
0.043746
0.0524614
0.000153109
0.04469
0.000148392
0.00374093
0.0494251
0.00014859
0.000148432
0.0328855
0.000149017
0.000148505
0.00023358
0.057053
0.000213875
0.000157612
0.0446476
0.000148586
0.0478589
0.0386646
0.000149206
9.41216e-05
0.00603587
0.0436524
0.0353302
0.0394748
0.0319248
0.000147256
0.000151496
0.00017845
0.000181685
0.000148479
0.000211349
0.000148321
0.0402192
0.000244407
0.000164109
0.000243157
0.0409247
0.00024651
0.000224777
0.000165354
0.0194706
0.000241523
0.00015623
0.000145613
0.0067499
0.00016122
0.00014698
0.0826913
0.000148182
0.00929165
0.000149125
0.0702761
0.000156623
0.000148134
0.00595087
0.00015594
0.000160449
0.0295997
0.0722732
0.00050314
0.000159655
0.000173974
0.000151726
0.000170337
0.000196894
0.000170734
0.000149348
0.000300841
0.000179408
0.000161508
0.0309599
0.000169693
0.000162132
0.000196188
0.000182246
0.000173499
0.000148104
0.000202171
0.000146953
0.000197191
0.000115811
0.0405359
0.000147098
0.000167555
0.0256158
0.000152582
0.000177398
0.000163596
0.000169471
0.0737026
0.000179671
0.000151859
0.0226408
0.000147148
0.0470127
0.000148759
0.000151845
0.000197524
0.045115
0.000161609
0.000187794
0.000212649
0.000163533
0.00014961
0.000176596
0.000171059
0.0626166
0.000155206
0.00413698
0.000199942
0.000163566
0.00016073
0.000177098
0.000165829
0.000167469
0.000179789
0.00016245
0.0001541
0.000149456
0.000592229
0.000148449
0.000159655
0.000145413
0.000195615
0.000160219
0.000179979
0.042759
0.000151182
0.000213706
0.000144601
0.000149157
0.00014921
0.000149324
0.000158321
0.000147634
0.000189395
0.0251141
0.000180086
0.000172989
0.000155968
0.000148781
0.000197071
0.00014856
0.0280978
0.0377882
0.0285452
0.000203912
0.000163547
0.000159098
0.000149132
0.000157986
0.00016992
0.000168557
0.0475726
0.000180141
0.0589411
0.000203867
0.000149351
0.000146858
0.0333815
0.000148094
0.000161424
0.000166318
0.000225899
0.000152848
0.0650393
0.000149087
0.000155762
0.000148576
0.000150429
0.000176531
0.000195168
0.000149537
0.000164766
0.000159481
0.000173725
0.000179954
0.000211348
0.000197361
0.000207359
0.000200312
0.00015804
0.000151529
0.000179791
0.0446172
0.0781247
0.0496941
0.000163884
0.0223015
0.000194425
0.000151368
0.00014795
0.000181847
0.000148893
0.000164758
0.0227452
0.000148027
0.000147608
0.000261569
0.0111282
0.00017514
0.000391948
0.000149013
0.0267712
0.00016846
0.0700199
0.000157085
0.000148609
0.0487263
0.000164518
0.000148554
0.000171307
0.000149663
0.00018822
0.000159594
0.000164018
0.0845508
0.000159492
0.0524952
0.000147656
0.0533468
0.000149054
0.000156752
0.00015024
0.000170579
0.000148873
0.000165921
0.047429
0.000267632
0.000173957
0.000160997
0.000168038
0.000148044
0.000148915
0.000152027
0.00078294
0.000156272
0.0730815
0.0351675
0.000187226
0.000149398
0.000190192
0.000201927
0.000198809
0.000157715
0.0384687
0.000148231
0.000144886
0.000148097
0.00408329
0.000149084
0.000148481
0.049027
0.000148068
0.000197474
0.00017125
0.000147926
0.0598548
0.000160556
0.0699065
0.000148284
0.00235016
0.000151224
0.00016716
0.0288875
0.00018138
0.000147866
0.000159244
0.0334022
0.000164581
0.000191501
0.000162583
0.000156564
0.000185564
0.000158138
0.000150002
0.00701739
0.000160105
0.000160515
0.000201346
0.000148146
0.00014749
0.000149195
0.000163539
0.000149051
0.000155153
0.0579807
0.0148584
0.000170857
0.00960372
0.000181592
0.000166757
0.0675652
0.0504265
0.000149985
0.0163621
0.0434156
0.0351304
0.000818803
0.0001617
0.0309886
0.0520043
0.0448773
0.000869857
0.0792562
0.000162749
0.000169179
0.000157726
0.000157684
0.0001496
0.00027739
0.000149893
0.0186492
0.000173974
0.000196809
0.000145184
0.000185503
0.000163557
0.000152067
0.00014995
0.00014868
0.000173489
0.000153423
0.000150014
0.000171121
0.056058
0.00015438
0.000190015
0.000146796
0.000173489
0.000168859
0.000149172
0.000156165
0.000147639
0.0703599
0.0612961
0.000203139
0.00294896
0.000161103
0.000187438
0.000148806
0.000171566
0.000148688
0.000149846
0.000149523
0.0507857
0.000146851
0.00017459
0.000242602
0.000157395
0.000162749
0.000148125
0.0672304
0.000201681
0.0407738
0.0337377
0.000197516
0.000226693
0.0309706
0.000226341
0.000141091
0.0169759
0.000173968