/*--------------------------------*- C++ -*----------------------------------*\
| =========                 |                                                 |
| \\      /  F ield         | OpenFOAM: The Open Source CFD Toolbox           |
|  \\    /   O peration     | Version:  v2012                                 |
|   \\  /    A nd           | Website:  www.openfoam.com                      |
|    \\/     M anipulation  |                                                 |
\*---------------------------------------------------------------------------*/
FoamFile
{
    version     2.0;
    format      ascii;
    class       surfaceVectorField;
    location    "750";
    object      ddtCorrDdt0(Uf);
}
// * * * * * * * * * * * * * * * * * * * * * * * * * * * * * * * * * * * * * //

dimensions      [0 1 -2 0 0 0 0];


internalField   nonuniform List<vector> 
20673
(
(0.000597285 8.08184e-05 3.07286e-18)
(0.000598113 7.34449e-05 2.21752e-18)
(0.000585164 7.65699e-05 8.17698e-18)
(0.00022451 4.13919e-05 3.43662e-21)
(0.0002197 4.95577e-05 -2.14212e-19)
(0.000226445 5.1295e-05 6.75515e-19)
(0.00188434 -0.00467025 -8.85033e-18)
(0.00215993 -0.00475743 -2.9782e-19)
(0.00282562 -0.005088 2.97021e-18)
(-2.47326e-05 -0.000398101 -8.49884e-19)
(-8.36151e-06 -0.000392585 -6.04357e-18)
(-1.93469e-05 -0.000384425 -5.24276e-18)
(1.2355e-05 0.000167222 -1.15911e-18)
(1.12043e-05 0.000168653 1.70893e-19)
(1.38738e-05 0.000156456 -6.09664e-19)
(1.9944e-05 0.00100689 -3.68597e-17)
(4.11213e-05 0.00103025 -5.74753e-17)
(4.5481e-05 0.000991717 -6.97226e-17)
(0.00240003 -0.00481675 4.73106e-19)
(0.00217652 -0.00469001 -2.14278e-18)
(0.00326432 -0.00495698 6.49303e-18)
(0.000707434 -0.00394234 -2.51755e-18)
(0.000394491 -0.00374385 -3.29596e-18)
(0.000247522 -0.00367396 -1.17739e-18)
(-0.00518933 0.00298399 1.64088e-18)
(-0.00481185 0.00299927 1.25493e-17)
(-0.00444465 0.00286442 -6.3848e-18)
(0.000691399 8.66314e-06 1.07847e-17)
(0.00069517 -1.16073e-05 -5.47863e-18)
(0.000715988 3.19509e-07 -3.20642e-18)
(0.00102635 -0.00369114 -5.31483e-19)
(0.000825176 -0.00374154 -4.13443e-18)
(0.0010163 -0.00389946 1.57282e-18)
(-0.000160916 -0.00150066 -7.28293e-19)
(-0.000204026 -0.0015541 -5.41538e-18)
(-0.000113001 -0.00154218 -4.0215e-18)
(-2.69693e-05 -0.000412029 1.93771e-18)
(-0.00614193 0.000222337 3.8374e-18)
(-0.00670169 -0.000115247 1.13655e-17)
(-0.00633657 -0.000201884 -3.19307e-18)
(0.0003136 0.000289631 -1.55638e-18)
(0.000305228 0.000301203 -3.06785e-18)
(0.000300043 0.000290784 9.09295e-19)
(0.000340514 0.000217203 4.5388e-19)
(0.000326841 0.000224079 -1.27917e-18)
(0.00032673 0.000205139 -1.68685e-18)
(0.000231865 9.84406e-05 2.263e-19)
(0.00023329 8.78323e-05 8.27567e-20)
(0.00022679 9.66732e-05 2.11184e-20)
(0.000933601 3.58722e-05 1.91711e-18)
(0.00090852 6.25069e-05 3.89314e-18)
(0.000950039 6.59422e-05 1.49489e-18)
(-0.000210705 -0.00146462 4.50299e-18)
(-0.00014392 -0.00144969 6.02151e-18)
(3.11162e-05 5.75872e-05 2.38159e-19)
(3.0505e-05 5.50107e-05 -5.57327e-20)
(2.84166e-05 6.02697e-05 1.00542e-18)
(7.45935e-07 1.75714e-05 -1.67448e-19)
(1.12021e-06 2.67155e-05 2.60142e-18)
(6.74902e-07 1.68982e-05 -1.23874e-18)
(0.00252459 -0.00478947 -3.27409e-18)
(0.00178446 -0.00466064 4.79302e-19)
(3.98992e-05 8.83838e-05 -1.71098e-18)
(4.18323e-05 8.27472e-05 2.07856e-19)
(4.16565e-05 7.96737e-05 -1.13457e-18)
(0.00110981 -0.00439417 -1.00541e-18)
(0.000823626 -0.00419565 -3.9478e-18)
(5.99497e-05 8.43077e-05 -2.60344e-19)
(5.98922e-05 8.50766e-05 -4.33443e-19)
(6.1208e-05 9.0684e-05 -1.6189e-19)
(0.00491388 -0.00458312 8.97688e-19)
(0.00433971 -0.00435611 2.00183e-19)
(0.0040991 -0.00445938 -1.01139e-18)
(6.72508e-05 0.000664405 1.53812e-18)
(6.96005e-05 0.000678536 -1.11668e-17)
(5.49493e-05 0.000670168 -1.10263e-17)
(0.000186199 0.000731875 -7.3533e-18)
(0.000196136 0.000743353 -5.78293e-18)
(0.000187911 0.00075698 5.68274e-18)
(0.000367829 0.00138846 -5.79046e-19)
(0.000421773 0.00142444 6.59638e-18)
(0.00036913 0.00148188 4.92399e-18)
(0.000370446 1.32623e-05 -6.12666e-18)
(0.000359942 5.137e-05 -1.41941e-18)
(0.000322257 2.52565e-05 7.41379e-19)
(0.000591982 5.46372e-05 2.60247e-18)
(0.000593862 5.84006e-05 -5.62535e-18)
(0.000583902 5.82782e-05 -1.4314e-18)
(0.000466943 6.16306e-05 -1.4713e-18)
(0.000461217 6.57453e-05 1.62586e-18)
(0.000455527 5.73282e-05 -1.00942e-18)
(0.000142697 0.00057055 5.4823e-18)
(0.000151058 0.00056333 1.42327e-17)
(0.000136204 0.000580789 1.59255e-17)
(7.22367e-06 0.000457207 -1.74681e-17)
(-4.0528e-08 0.000452844 -1.23156e-18)
(1.02607e-05 0.000451659 -2.83435e-18)
(4.50273e-05 9.82958e-05 -1.90098e-18)
(4.73507e-05 0.00010575 -1.81554e-19)
(4.82649e-05 0.000100133 4.60716e-19)
(-0.000575702 -0.00609033 -2.79448e-18)
(-0.000224721 -0.00624771 -2.79582e-18)
(8.67449e-05 -0.0065006 1.65386e-18)
(3.72367e-05 9.59905e-05 1.50303e-18)
(3.76209e-05 9.19617e-05 -2.19945e-18)
(-0.00632137 -0.000607173 1.45454e-19)
(-0.0065155 -0.000544773 -1.94786e-18)
(-0.00640026 -0.000638632 4.22799e-19)
(-4.19065e-05 -0.00052163 -4.74233e-19)
(-5.06617e-05 -0.000541103 2.78344e-18)
(0.00983692 -0.000416048 -5.27006e-19)
(0.00996099 -0.00026211 -2.59104e-19)
(0.00997346 -0.000383119 2.95019e-18)
(4.44892e-05 3.8576e-06 7.08085e-20)
(4.58329e-05 3.71999e-06 -2.64154e-19)
(4.69234e-05 2.51585e-06 -4.82183e-20)
(1.88846e-07 9.16277e-06 -3.54536e-18)
(7.25722e-08 3.30683e-06 -4.38993e-19)
(3.05573e-08 3.48765e-06 -9.5472e-20)
(3.32498e-05 -2.06546e-05 -4.75422e-19)
(3.44658e-05 -1.79896e-05 -1.16787e-18)
(3.24231e-05 -1.87289e-05 -1.28681e-18)
(0.000236587 0.000858276 5.11026e-19)
(0.000256915 0.000859908 4.64889e-18)
(0.000243801 0.000888625 -8.05927e-18)
(0.000191232 -6.46568e-05 2.57445e-18)
(0.000197916 -6.53762e-05 1.87451e-18)
(0.000193774 -6.55917e-05 -1.38245e-19)
(4.6914e-05 0.000482959 -8.03274e-19)
(2.90405e-05 0.000485327 -1.50988e-18)
(3.7167e-05 0.000476598 -8.71611e-18)
(0.000965558 5.4534e-06 3.25451e-18)
(0.000919666 3.8404e-06 -3.71909e-18)
(0.00157293 -0.000312598 -8.47434e-18)
(0.00147098 -0.000289043 1.52553e-18)
(0.0015148 -0.000398022 1.00941e-18)
(9.2717e-05 0.00101841 -2.02475e-17)
(4.17342e-05 0.00102972 4.38553e-17)
(8.13711e-05 0.0010314 1.06308e-17)
(3.24916e-05 2.02949e-06 -2.28574e-19)
(3.35321e-05 1.50316e-06 -4.94461e-20)
(3.23136e-05 2.34237e-06 -1.42092e-19)
(0.000435643 -0.000254093 -3.28022e-18)
(0.000447507 -0.00024538 -3.62069e-18)
(0.000448522 -0.00026264 1.98728e-18)
(3.43829e-05 0.000337366 2.16561e-18)
(3.3536e-05 0.000342162 -4.18179e-18)
(3.67238e-05 0.000346138 2.79604e-18)
(5.60526e-05 0.00100994 -3.7534e-17)
(5.45352e-05 0.00119441 -1.14518e-16)
(1.43114e-05 0.000461196 2.02682e-20)
(4.12206e-06 0.00046272 -1.61928e-17)
(0.000237154 0.000101488 -2.05606e-19)
(0.000229733 0.000109461 -2.34084e-20)
(0.000469194 -8.44403e-05 -1.84169e-18)
(0.000466499 -7.46992e-05 -1.50096e-18)
(0.000480257 -7.69377e-05 1.22457e-18)
(0.00123301 -0.00363304 4.69563e-18)
(0.00105457 -0.00349466 4.23659e-18)
(0.000126799 0.000220345 7.34267e-19)
(0.000120785 0.000213166 6.27617e-19)
(0.00012623 0.000213657 2.16658e-18)
(0.000401716 -5.1856e-05 1.94935e-19)
(0.000413351 -4.94374e-05 -2.71303e-18)
(0.000406306 -4.51195e-05 4.0403e-18)
(0.000188588 -6.39249e-05 3.94168e-18)
(0.000184881 -6.41738e-05 -2.46092e-18)
(0.0015785 -0.00115037 2.30548e-18)
(0.00119949 -0.00110028 1.58069e-17)
(0.0014363 -0.00117647 2.09593e-17)
(0.000225817 3.13016e-05 -1.26986e-19)
(0.000231403 3.37613e-05 1.13578e-18)
(-0.00645541 -0.000215651 1.96731e-18)
(3.16332e-05 5.92326e-05 -1.74304e-18)
(3.3524e-05 5.34721e-05 4.34153e-20)
(8.19272e-05 0.00105684 4.96259e-17)
(8.09547e-05 0.000988975 2.84399e-17)
(-0.00128839 0.000267265 1.41732e-18)
(-0.000615705 -0.00145356 2.57785e-18)
(-0.00173401 -0.000392175 8.85369e-18)
(-2.66208e-06 0.000165322 -3.81034e-19)
(-1.25657e-06 0.000156772 -1.24649e-18)
(-5.24236e-06 0.000112168 -3.39375e-18)
(-1.7136e-06 0.000108174 2.80848e-18)
(0.00356132 -0.000765324 1.16658e-18)
(0.00356495 -0.000938352 -9.71284e-18)
(0.0038072 -0.000793957 -4.93952e-18)
(0.000561658 0.000146219 2.42385e-19)
(0.000580012 0.000131625 -1.01485e-18)
(0.000585573 0.00016471 -9.68875e-19)
(1.45212e-05 0.000172853 -2.41953e-18)
(1.64978e-05 0.000168145 -1.74215e-18)
(-0.00582177 0.00305647 1.59383e-18)
(-0.0054831 0.00297498 4.1922e-18)
(-0.000160671 0.000984816 1.26371e-18)
(-0.000108659 0.00121361 6.25312e-18)
(0.000136235 0.00115903 9.46093e-18)
(6.11222e-05 8.10267e-05 1.75357e-18)
(5.74449e-05 7.70039e-05 1.13522e-18)
(1.60613e-05 0.00103913 2.73667e-17)
(1.18294e-05 0.00102488 4.21579e-17)
(3.32588e-06 0.00104278 3.27226e-17)
(-0.000575399 -0.0011665 1.66923e-18)
(-0.000505843 -0.00114914 2.89879e-18)
(-0.000509068 -0.00121491 2.03273e-18)
(-0.00420007 0.000428259 4.31492e-18)
(-0.00388662 0.000590788 -1.08146e-18)
(-0.0042768 0.000478402 -2.06726e-17)
(0.000262716 -8.0936e-05 -2.323e-18)
(0.000271941 -8.18723e-05 -1.75825e-18)
(0.000270126 -7.74055e-05 2.92839e-18)
(0.00587212 -0.00313715 1.59758e-18)
(0.00575159 -0.00332037 -2.68746e-18)
(0.00609192 -0.00328672 -1.38519e-18)
(2.74996e-06 4.70743e-05 -1.9679e-18)
(3.62876e-06 6.04087e-05 9.18252e-19)
(3.43371e-06 5.897e-05 3.15449e-19)
(7.71509e-06 7.17471e-05 -1.2866e-18)
(8.67262e-06 8.02159e-05 9.94971e-19)
(7.3258e-06 6.83e-05 -2.04009e-18)
(-2.08246e-06 0.000173247 3.63387e-18)
(3.20529e-05 0.00102093 -1.23685e-17)
(-1.66924e-06 0.00102539 -4.07599e-17)
(1.96288e-05 0.00104515 -2.78987e-17)
(-0.00603733 -0.00070829 1.72633e-18)
(-0.00617847 -0.000591484 -4.69409e-19)
(-0.00124063 -0.000478191 -2.96328e-17)
(-0.00131022 -0.000472711 5.68516e-18)
(-0.00128445 -0.000532808 2.40651e-17)
(0.000253116 -7.87938e-05 1.82919e-18)
(0.000254572 -8.35259e-05 2.93971e-18)
(1.56298e-05 9.17725e-05 -6.6292e-20)
(1.56575e-05 8.87807e-05 -6.74091e-19)
(1.28186e-05 8.36929e-05 1.09411e-19)
(0.000175056 5.3565e-05 2.33031e-17)
(-0.00150019 0.00188453 -9.9094e-18)
(0.000418109 -0.000261332 7.16105e-19)
(0.000421699 -0.000241117 -3.92246e-18)
(3.21153e-05 -2.33117e-05 7.07342e-19)
(3.42021e-05 -2.22109e-05 6.73157e-19)
(-0.00297227 0.00138537 1.44935e-18)
(-0.00307795 0.00119198 2.60736e-18)
(-0.00325855 0.001221 4.90189e-18)
(0.00057065 -0.00010806 7.50215e-18)
(0.000588636 -8.83602e-05 1.3644e-17)
(0.000604843 -0.000112954 1.75385e-18)
(0.000156785 -2.40704e-05 6.90458e-19)
(0.000153993 -3.02766e-05 -9.52775e-19)
(0.000152333 -2.25098e-05 5.61492e-19)
(0.000190722 0.00030605 -1.3611e-18)
(0.000191818 0.000308888 1.63452e-18)
(0.000198139 0.000299923 -4.70229e-18)
(5.4956e-05 -0.000601529 5.3434e-18)
(0.000817604 -0.000401675 -1.07684e-18)
(5.47384e-05 0.00101218 -5.57198e-18)
(5.82479e-05 0.00100092 -1.84701e-17)
(4.93292e-05 0.00100383 -7.03025e-18)
(0.00212199 -0.00209976 -3.6293e-18)
(0.0022441 -0.00203714 -5.30627e-18)
(0.00226195 -0.0022135 -5.79037e-19)
(0.00132188 -0.000176421 4.96426e-18)
(0.00135191 -0.000136696 3.15957e-18)
(0.00130125 -0.000129623 -7.42285e-18)
(-0.00154853 -0.00174594 -2.28129e-18)
(-0.00171275 -0.0017747 4.60275e-18)
(-0.00163501 -0.00158584 -2.96742e-18)
(9.89195e-05 0.000918063 1.58421e-17)
(0.000107172 0.000886094 -1.70581e-17)
(0.00011945 0.000911837 -9.06672e-18)
(5.99267e-05 1.50325e-05 4.18377e-21)
(6.12084e-05 1.16258e-05 -6.79909e-19)
(6.19329e-05 1.51965e-05 -1.24135e-18)
(8.31351e-07 0.000569384 1.83846e-17)
(1.87318e-05 0.000568999 -7.60001e-18)
(7.95686e-06 0.000555042 -2.37312e-17)
(0.000209995 0.00087343 -2.76575e-18)
(0.000217619 0.000831885 2.69764e-18)
(0.000277966 -0.00012246 -2.8936e-19)
(0.000282964 -0.000129338 1.34954e-18)
(0.000272949 -0.00013144 -4.25656e-19)
(9.29808e-05 -7.14719e-06 -5.18494e-19)
(9.09434e-05 -1.066e-05 5.80176e-20)
(9.43348e-05 -1.4021e-05 -3.3001e-19)
(-0.00523928 0.00330275 -1.20896e-19)
(-0.00508806 0.0033998 1.95473e-18)
(-0.00587729 0.00341893 1.34069e-17)
(0.000605764 0.00127219 3.13832e-18)
(0.000548529 0.00132913 1.03062e-17)
(0.00064734 0.00133026 4.39966e-18)
(0.00161871 -0.000313636 -1.57095e-18)
(0.0015888 -0.000263958 -3.38592e-18)
(0.000235461 7.57291e-05 -5.12435e-20)
(0.000241299 7.83997e-05 -4.36454e-20)
(0.000610244 5.83232e-05 1.05678e-17)
(0.000613259 6.41325e-05 -5.69416e-18)
(0.000622907 5.83117e-05 -4.35248e-18)
(0.00317914 -0.000837127 8.26199e-19)
(0.00334545 -0.000739561 4.03487e-20)
(0.00339149 -0.000725113 3.08487e-18)
(0.00953892 -0.000556428 6.54889e-18)
(0.00970702 -0.000460611 -8.06196e-19)
(-0.000466606 -0.00178475 -2.4541e-18)
(-0.000527311 -0.00174671 -1.0146e-17)
(-0.000551204 -0.00183761 -5.2201e-18)
(-0.00526768 0.00327719 -9.31452e-18)
(-0.00451924 0.00324298 -6.91742e-18)
(2.61493e-05 0.000397751 2.41464e-18)
(3.30593e-05 0.000400555 2.90499e-18)
(2.29193e-05 0.000403258 -6.57478e-18)
(-9.58039e-06 0.00106945 8.92848e-18)
(-7.19646e-05 0.0010543 2.53607e-17)
(-4.86526e-08 0.000968026 -1.94179e-17)
(6.2055e-05 4.41355e-05 1.02979e-18)
(6.43137e-05 4.6557e-05 1.7893e-18)
(6.28938e-05 4.6972e-05 9.032e-19)
(7.35584e-05 0.00105529 2.09662e-18)
(7.35886e-05 0.00106116 -2.12945e-17)
(6.16706e-05 0.00105533 -4.89864e-18)
(0.000336599 -0.00110281 -7.33725e-19)
(0.000672604 -0.00123666 -7.08947e-19)
(0.00022752 -0.00147355 -5.81662e-18)
(3.61328e-05 0.000457375 -6.78198e-18)
(4.43446e-05 0.0004617 -2.93595e-18)
(4.71855e-05 0.000453536 8.47035e-18)
(5.44848e-07 1.6202e-05 7.5507e-19)
(4.64023e-07 1.62121e-05 1.25055e-20)
(0.00356344 -0.000569965 2.69647e-18)
(0.00335627 -0.000713964 -1.36082e-18)
(-0.00272733 -0.00109137 -2.99374e-18)
(-0.00271815 -0.00137551 5.57717e-19)
(-0.00300746 -0.00129733 -3.01962e-18)
(0.000173518 0.000713991 -2.0854e-18)
(0.000190622 0.000705656 -8.73221e-18)
(3.55885e-05 1.11626e-06 -8.52749e-21)
(3.4816e-05 1.26685e-06 9.51034e-20)
(3.60616e-05 8.88628e-07 3.38222e-20)
(0.000181463 0.000309572 4.35169e-18)
(0.000188561 0.000299199 -1.55718e-18)
(0.000194422 -6.00247e-05 -7.01289e-19)
(0.000200988 -5.85067e-05 2.13736e-19)
(0.000197237 -5.64451e-05 -9.24665e-19)
(3.4909e-05 9.97937e-07 -1.3334e-19)
(3.66385e-05 5.95935e-07 6.94129e-20)
(3.19144e-05 -8.94994e-06 1.20858e-19)
(3.06574e-05 -8.51083e-06 4.90874e-19)
(3.11036e-05 -7.81892e-06 4.22942e-19)
(3.90465e-05 0.001028 5.98257e-18)
(-0.00144914 -0.00262341 6.18583e-19)
(-0.0017073 -0.00249728 1.44289e-18)
(-0.0014697 -0.00234045 1.577e-18)
(1.91068e-05 0.000394453 7.1752e-18)
(2.80474e-05 0.000392609 -2.14653e-18)
(0.000204935 -6.52547e-05 -1.77192e-18)
(0.000201308 -6.42447e-05 2.01548e-18)
(5.71852e-07 1.79972e-05 1.28451e-18)
(3.25058e-07 1.0286e-05 1.31934e-18)
(-0.00221072 0.00298864 2.20465e-17)
(-0.00156645 0.00241538 1.29865e-17)
(-0.00263216 0.00256231 -1.78909e-17)
(0.00141655 -0.00483353 -6.14402e-18)
(0.00144003 -0.00456356 2.65019e-18)
(0.000606694 8.37596e-05 -5.66637e-19)
(0.000596945 8.76191e-05 -1.29821e-17)
(0.000113165 0.00093151 1.31413e-17)
(0.000109562 0.000938597 -1.07886e-17)
(6.89531e-09 0.000156779 1.14346e-18)
(-1.02144e-06 0.000147776 2.05004e-18)
(2.37292e-05 0.000459972 5.58545e-18)
(2.772e-05 0.000453208 -1.13576e-17)
(2.46438e-05 -0.00579041 3.7208e-18)
(-0.00020272 -0.00563529 -3.03576e-18)
(6.9818e-05 -0.00548272 -3.75975e-18)
(9.9604e-05 -5.11481e-05 5.11415e-19)
(0.000102957 -5.24416e-05 -1.08579e-18)
(9.90132e-05 -5.13196e-05 1.25073e-18)
(7.23807e-05 0.000359594 -2.19862e-18)
(7.77157e-05 0.000363354 -1.87845e-18)
(6.96804e-05 0.000365621 -2.66878e-18)
(0.000205837 0.000907815 9.66629e-18)
(0.000192924 0.000921734 -8.36183e-18)
(0.000218186 0.000924483 2.53153e-17)
(-1.24023e-06 0.000111004 -1.42217e-17)
(-3.38589e-06 0.00012017 -1.05554e-17)
(-0.00691384 0.00274974 -1.26349e-19)
(-0.00665126 0.00284197 1.1139e-17)
(-0.00694593 0.00294388 7.53759e-18)
(0.000557272 0.00149912 -8.61021e-19)
(0.000572459 0.00143514 -8.79093e-19)
(0.00050311 0.0014281 -2.94078e-19)
(4.04711e-05 0.000332517 1.23253e-18)
(3.39201e-05 0.000326099 -5.13429e-19)
(8.54939e-05 -4.54333e-05 -1.94553e-20)
(8.91226e-05 -4.73564e-05 2.85131e-19)
(8.56608e-05 -4.58212e-05 6.44484e-19)
(0.000470919 8.20442e-05 -1.23461e-18)
(0.000464567 8.67336e-05 -2.16108e-18)
(0.000478253 9.1574e-05 -3.68774e-18)
(0.00100822 -0.00101716 -3.31495e-19)
(0.00106859 -0.00105629 3.46712e-18)
(0.00104576 -0.000965254 -1.92597e-18)
(3.09878e-05 0.00105198 1.50855e-17)
(1.52741e-05 0.00105528 -7.42571e-18)
(0.000747083 -0.00209997 2.434e-18)
(0.000846471 -0.00215394 -1.88351e-19)
(0.000722169 -0.00220131 -9.15593e-19)
(0.000617599 0.000308292 1.12989e-19)
(0.000608181 0.000294413 1.07978e-18)
(0.0006291 0.00028717 1.53239e-18)
(0.000464964 -3.33672e-07 1.75109e-18)
(0.000460658 3.47145e-06 5.53712e-19)
(0.000453506 -2.96521e-06 4.21807e-18)
(-0.00123145 -7.03959e-07 1.15753e-17)
(-0.00113198 -4.52773e-05 2.65056e-17)
(-0.00116127 -6.77511e-05 1.56275e-17)
(0.000555707 0.000154589 5.61026e-19)
(0.000549038 0.000142839 -2.06149e-19)
(0.00202023 -0.00442587 4.15342e-18)
(0.0032239 -0.00398653 2.30415e-19)
(0.00389865 -0.00482238 1.18098e-19)
(-0.00440317 0.000186583 -4.97535e-18)
(-0.00397605 0.00039406 1.3781e-17)
(-0.00135293 0.00322492 2.75986e-18)
(-0.00253533 0.00263051 -6.18381e-18)
(0.000133002 0.000391788 2.30953e-18)
(0.000136902 0.000394811 -7.60149e-18)
(0.000126911 0.000398427 -2.83495e-18)
(-3.98536e-05 0.000659994 -1.11712e-17)
(-3.19222e-05 0.000661267 -5.24779e-18)
(-3.59645e-05 0.000673442 -2.58635e-17)
(3.77449e-06 5.21256e-05 -5.64686e-19)
(3.50455e-06 4.93225e-05 -6.95425e-19)
(2.44677e-06 3.90922e-05 -8.86285e-19)
(0.00199767 -0.00219951 -1.44292e-18)
(0.00199099 -0.002027 -1.32806e-18)
(-0.000381743 -0.00184371 2.52002e-18)
(-0.000378423 -0.00173543 3.40049e-18)
(-0.00142177 -0.00171787 4.55787e-19)
(-0.00146906 -0.0018636 4.66764e-18)
(0.00028256 -0.000115876 8.66203e-19)
(0.000272955 -0.000117032 9.69479e-19)
(0.00125946 -0.000615925 2.61517e-18)
(0.00124616 -0.000686161 -4.34041e-18)
(0.00132281 -0.000660814 -3.17387e-18)
(0.000154603 -6.28212e-05 -2.78052e-18)
(0.000160422 -6.32073e-05 8.14198e-19)
(0.000158611 -6.22223e-05 -3.40372e-18)
(-1.18201e-05 0.000573788 1.22739e-17)
(3.00747e-06 0.000582188 2.61141e-17)
(0.000648054 0.000243786 1.22077e-18)
(0.000630093 0.000255698 2.66389e-18)
(0.000629663 0.00023109 1.71457e-18)
(0.00227845 -0.000624241 -2.64313e-17)
(0.00248139 -0.000495341 1.50145e-17)
(0.00236551 -0.000666892 -2.41433e-17)
(-0.00071567 -0.00162653 -1.91908e-18)
(-0.000791846 -0.00167081 -7.94978e-19)
(-0.000700464 -0.00171584 1.8671e-18)
(0.000256435 0.00010971 -9.13483e-20)
(0.000262895 0.000111395 -1.00865e-19)
(0.000255472 0.000121039 6.01694e-19)
(-0.00589053 0.00116793 3.03203e-18)
(-0.00611512 0.0014377 -2.57322e-19)
(-0.00575503 0.00115578 -4.75485e-18)
(0.00064817 0.000362085 3.49432e-19)
(0.000658069 0.000380548 2.53918e-19)
(0.000671494 0.000361357 8.14254e-20)
(-0.00109187 -0.00272221 -9.92449e-19)
(-0.00128542 -0.00292241 -1.55817e-18)
(5.66815e-05 0.00105281 2.08985e-17)
(9.39217e-05 0.00105003 -1.51092e-17)
(-0.00688007 0.00256601 -1.61477e-17)
(-0.0068266 0.00267449 -5.20578e-18)
(0.000144597 0.000104766 1.09213e-19)
(0.000149199 9.98206e-05 1.16715e-19)
(0.000148108 0.000109434 1.19164e-19)
(0.000545783 -0.000127327 -1.83843e-18)
(0.000538682 -9.71754e-05 -3.60363e-18)
(0.000596525 5.05341e-05 1.30256e-18)
(0.000589085 5.14717e-05 4.84608e-18)
(9.97972e-05 -5.07164e-05 -1.51452e-20)
(9.61144e-05 -4.96738e-05 -4.15107e-19)
(1.62421e-05 9.5025e-05 6.33098e-19)
(1.90738e-05 9.72563e-05 1.17076e-19)
(0.000324608 0.000400918 3.92841e-18)
(0.000310108 0.000408522 -3.12142e-19)
(0.00031406 0.000391948 4.25427e-18)
(0.00586537 -0.00469063 7.9567e-20)
(0.00567765 -0.00482263 8.72951e-19)
(0.000350885 -0.000772278 4.23449e-18)
(0.000273397 -0.000823218 1.13918e-17)
(0.000354183 -0.000891766 9.55164e-18)
(-0.00118385 -3.37703e-05 -1.52925e-17)
(-0.00144635 -0.00012469 -2.48142e-17)
(0.000644569 -2.31269e-05 7.40722e-18)
(0.000634165 -1.39888e-05 2.94811e-18)
(0.000650526 -1.02298e-05 -1.85735e-18)
(-0.000875587 -0.00250401 1.93329e-18)
(-0.000955859 -0.0024574 1.84846e-18)
(-0.000971186 -0.00259766 4.73213e-18)
(0.00282661 -0.00525332 -3.22163e-18)
(0.00300763 -0.00579835 4.52584e-19)
(0.00362965 -0.00536318 -3.16593e-18)
(-0.00107549 -0.000515818 3.81554e-18)
(-0.00116088 -0.000470755 -2.12434e-18)
(0.000922442 -0.00072014 -2.04799e-17)
(0.000853627 -0.000740537 6.21063e-18)
(0.000918111 -0.000798248 -4.31896e-18)
(3.80859e-05 0.000111697 -1.2169e-18)
(3.58663e-05 0.000116418 7.23448e-19)
(3.54152e-05 0.0001218 -3.27164e-19)
(4.55945e-05 0.000907005 -1.53597e-18)
(7.85231e-05 0.00092485 1.89858e-17)
(4.05422e-05 0.000940083 -3.99904e-19)
(6.12007e-05 0.000648492 2.15942e-17)
(8.32568e-05 0.000650833 8.35965e-18)
(4.7091e-05 -5.24349e-07 3.18566e-19)
(4.75302e-05 -3.96989e-07 -2.72125e-19)
(0.000159209 -1.91019e-05 5.52533e-19)
(0.000160954 -2.72136e-05 1.71228e-19)
(0.000695383 0.00117421 1.98362e-18)
(0.000674126 0.00111063 -2.25783e-18)
(0.000744989 0.00111941 -2.187e-18)
(0.00128682 0.00243168 1.55379e-17)
(-0.000376654 0.000684329 -4.4914e-18)
(0.00105054 -0.000626212 -2.40671e-18)
(0.00025473 -0.00044789 7.52702e-20)
(0.00025882 -0.000466137 3.92196e-19)
(0.00027402 -0.000447469 -3.32985e-18)
(3.20584e-05 2.78856e-06 -1.4454e-19)
(3.22544e-05 2.13408e-06 -2.71208e-19)
(0.00112956 -0.000783098 2.17523e-18)
(0.00108667 -0.000748782 -4.77298e-18)
(0.00114814 -0.000716003 -3.1341e-18)
(0.000974466 -0.00107698 1.43504e-18)
(0.000947056 -0.000992259 -2.85473e-18)
(-0.00046754 0.000803868 -2.79504e-18)
(-0.000207744 0.000757608 2.11795e-18)
(0.00134469 0.0048707 -4.98226e-18)
(0.00185998 0.00460827 -6.2846e-19)
(0.00231649 0.004489 4.85257e-18)
(4.38619e-05 9.28451e-05 -9.57919e-20)
(4.30187e-05 9.67931e-05 -1.00228e-18)
(0.000127082 0.000226939 -1.89484e-18)
(0.000132628 0.000225762 -9.02521e-19)
(0.00128518 -0.000244943 9.73403e-18)
(0.00136235 -0.000254624 4.2557e-18)
(0.00431556 -0.00512476 6.2112e-19)
(0.00559578 -0.00532124 -1.98611e-18)
(0.00503865 -0.00534104 -9.83548e-20)
(7.13869e-05 0.000350262 5.60037e-18)
(8.04514e-05 0.000356058 9.08384e-19)
(0.00181463 -0.00471941 -2.4795e-18)
(0.00138504 -0.00458351 -2.37833e-18)
(0.00266281 -0.00492809 7.16009e-20)
(-0.000554502 0.000355777 1.27371e-18)
(-0.000313559 0.000565092 2.51464e-18)
(-0.000805001 0.000367125 6.53699e-18)
(-0.000741284 -0.00245766 -3.82788e-18)
(-0.000764905 -0.00262601 -4.12784e-18)
(9.28047e-05 -2.9052e-07 8.87123e-20)
(9.54617e-05 -4.71595e-06 -7.39392e-19)
(0.000143697 0.00112266 -1.38363e-17)
(0.000147267 0.00115545 2.54432e-17)
(0.000114042 0.00115135 4.38358e-17)
(0.00116502 -0.000388036 1.59376e-18)
(0.00121724 -0.000324172 -1.26378e-17)
(0.00113184 -0.000308452 -7.10294e-18)
(0.00407046 -0.000257983 4.16935e-18)
(0.00405519 -0.000290865 -4.28834e-18)
(0.00410058 -0.000245026 -7.33468e-18)
(8.18285e-05 8.24257e-05 2.70398e-18)
(8.44077e-05 8.766e-05 -3.28257e-19)
(8.43329e-05 9.1896e-05 4.90672e-19)
(0.00194771 -0.00121566 -7.4251e-18)
(0.00175372 -0.00107849 -1.25406e-17)
(0.000139115 0.000110516 -1.43503e-19)
(0.000140291 0.000102024 6.7352e-20)
(0.000375514 0.000227446 -2.28198e-18)
(0.000410762 0.000244645 -1.18168e-17)
(0.000408781 0.00020754 -5.16296e-18)
(4.30419e-05 4.8668e-06 3.46244e-20)
(4.33977e-05 3.45552e-06 -5.4982e-21)
(-0.00616705 1.16553e-05 1.50921e-18)
(-0.00643818 -9.41117e-05 6.68615e-18)
(-0.00636938 -5.34527e-05 5.70374e-19)
(-0.00496864 0.00344425 1.03755e-17)
(-0.0048127 0.00343863 1.79778e-17)
(-0.00560045 0.00350873 3.29542e-17)
(0.000347527 0.000220098 9.55027e-19)
(0.000348209 0.000207022 3.01297e-18)
(0.00178681 0.00126363 4.16016e-18)
(0.0017842 0.00171848 2.71811e-17)
(0.00228716 0.00131288 -6.05225e-19)
(0.000477075 1.62467e-06 3.02848e-18)
(0.000467882 -6.13268e-06 1.35042e-18)
(9.09472e-05 7.52789e-06 3.45944e-19)
(8.93835e-05 3.51736e-06 7.09133e-19)
(-0.000665614 -0.0057505 -7.23114e-19)
(-0.000851676 -0.00595601 -1.24139e-18)
(-0.000756553 -0.00154125 -3.75868e-18)
(-0.00066335 -0.00155441 -2.97843e-19)
(0.000637779 -3.71328e-05 3.79304e-18)
(0.000654526 -3.37667e-05 -6.86254e-18)
(0.0023137 -0.00512419 -2.30938e-18)
(0.00229798 -0.00498136 -4.90477e-18)
(0.00279121 -0.00545406 -3.19155e-18)
(-0.000304024 0.000270527 -1.75251e-18)
(-0.000426861 0.000122645 1.37451e-18)
(5.51987e-05 -1.86085e-06 8.21456e-19)
(5.50222e-05 -4.43814e-06 -6.58331e-19)
(5.44222e-05 -3.13239e-06 1.93049e-19)
(0.000471646 5.71019e-05 -1.39661e-19)
(0.000477393 6.5618e-05 -2.19553e-18)
(-0.00266909 0.00158109 -7.32938e-18)
(-0.00285941 0.00163185 -2.52895e-18)
(-0.00136675 -0.000278843 1.56082e-18)
(-0.0014366 -0.000243545 1.93727e-17)
(-0.00142144 -0.000229493 1.17907e-17)
(4.04275e-06 5.28335e-05 -9.90163e-19)
(4.76891e-06 6.45117e-05 -8.55297e-19)
(5.10127e-05 2.17553e-05 -8.04332e-21)
(5.26831e-05 2.60115e-05 1.39107e-19)
(5.31337e-05 2.49303e-05 1.40637e-19)
(0.0104927 -0.000151218 2.32805e-18)
(0.0102696 -0.000225078 9.46806e-19)
(0.00267759 -0.00190366 3.66731e-18)
(0.00257482 -0.00202898 -2.13633e-18)
(0.0027297 -0.00207911 2.41366e-18)
(4.15612e-07 1.25088e-06 8.49721e-21)
(1.58018e-07 7.8441e-07 1.705e-19)
(4.04338e-07 1.53023e-06 2.65084e-19)
(-0.00143088 -0.00491322 -1.39862e-18)
(-0.00161507 -0.00474211 -5.52942e-18)
(-0.00121555 -0.00470245 -4.70359e-19)
(0.0010574 0.000667907 -3.33943e-18)
(0.00113547 0.000661086 9.65796e-19)
(0.00109561 0.000583115 -6.49243e-19)
(-4.22926e-05 0.000650355 -3.72292e-18)
(-5.36337e-05 0.000659201 -4.33073e-18)
(0.000557138 6.84337e-05 9.8877e-19)
(0.000565426 6.87976e-05 2.15072e-19)
(0.000557945 6.51357e-05 6.09366e-18)
(4.49777e-06 6.11919e-05 -7.06296e-19)
(3.47567e-06 4.75292e-05 1.17179e-18)
(0.000608925 0.000459175 1.28162e-18)
(0.000590816 0.000434967 1.68861e-18)
(0.00058122 0.000464482 6.47611e-19)
(-0.0017586 0.000451569 -1.47809e-18)
(-0.00200883 0.000409208 1.93027e-18)
(-0.00201558 0.000186513 7.65063e-18)
(7.92631e-05 -0.000144859 -7.65618e-19)
(7.46933e-05 -0.000154718 1.88142e-18)
(8.16816e-05 -0.000152445 -5.42795e-19)
(0.000586148 -0.000272469 -2.74567e-18)
(0.000625732 -0.000247997 5.27095e-18)
(0.000576425 -0.000227799 2.11184e-18)
(0.000127017 0.000950054 -1.47216e-17)
(0.000149109 0.000948056 2.21334e-17)
(0.000139269 0.000978794 -3.10192e-17)
(0.000189783 -5.98502e-05 2.15013e-20)
(0.000190959 -6.05188e-05 -7.24497e-19)
(0.000115308 0.000205441 4.55574e-19)
(0.000115959 0.000212544 -2.8801e-18)
(0.000566757 -0.00169122 -5.63466e-18)
(0.00062426 -0.00175671 9.7994e-19)
(0.000527732 -0.00176639 -9.02321e-19)
(0.00958386 -0.000480533 -3.4397e-21)
(0.00986706 -0.000417961 -7.75065e-20)
(0.00976609 -0.000463871 -1.13055e-18)
(0.000649771 -0.0020619 1.96338e-18)
(0.000769011 -0.0020072 -4.81146e-19)
(0.000338613 0.000396269 2.92449e-18)
(0.00033231 0.000415828 -2.95412e-18)
(0.00032029 0.000273339 8.31473e-19)
(0.000329002 0.000286962 3.34556e-18)
(4.24371e-07 2.58906e-06 3.61488e-19)
(3.67924e-07 2.23895e-06 -3.45221e-20)
(9.77769e-08 1.20932e-06 6.31419e-19)
(-0.00273268 -0.000843189 6.07585e-19)
(-0.00244103 -0.000894851 -7.86586e-19)
(-0.00332876 0.00110252 4.07039e-18)
(-0.00356812 0.00137509 -4.93488e-19)
(-0.00331922 0.00109603 -2.12997e-17)
(-0.00347635 -0.00380767 9.55375e-19)
(-0.00353368 -0.00404181 -4.4639e-18)
(-0.00413894 -0.0039034 1.02264e-18)
(9.00668e-05 1.44735e-05 -3.6951e-19)
(9.25726e-05 9.58758e-06 4.06533e-20)
(0.00248951 0.000592325 -9.46795e-18)
(0.0025299 0.000789407 8.29879e-18)
(0.00269886 0.000684264 -5.56247e-18)
(-0.00693213 -0.000318864 -5.95115e-19)
(-0.00685702 -0.000330464 7.60152e-18)
(-0.00708979 -0.000262307 -3.57083e-19)
(0.000126143 -0.00390921 3.35651e-18)
(0.0011992 -0.0047453 -5.52835e-18)
(0.00606838 -0.00305575 1.44099e-18)
(0.00586643 -0.00291916 3.04868e-18)
(-0.000638316 -0.00121049 -1.10235e-18)
(-0.000643042 -0.00112673 9.94615e-20)
(7.45146e-06 7.57867e-05 2.4657e-19)
(3.77769e-05 1.99963e-06 -1.99935e-21)
(3.63303e-05 1.58097e-06 5.31493e-20)
(3.65755e-05 3.33147e-06 -2.20313e-20)
(0.000989379 -1.90368e-05 -6.2388e-19)
(0.00097235 -5.3896e-05 -7.30711e-18)
(0.00101612 -5.17445e-05 -9.30592e-18)
(-0.00590685 0.000395334 2.00209e-18)
(-0.00600445 0.000311419 4.27746e-18)
(-0.00591172 0.000349049 5.37285e-18)
(0.00231908 0.000197071 3.45395e-18)
(0.00225908 0.000312953 -1.50849e-17)
(0.00243652 0.000298205 -1.03242e-17)
(0.00038954 -5.28911e-05 -4.34892e-18)
(0.000395853 -5.80233e-05 3.87565e-18)
(0.00074235 0.00497606 -9.98399e-18)
(-0.0010093 0.00485043 1.50203e-18)
(-0.000133685 -0.00108463 -4.07216e-18)
(-0.000137235 -0.00106431 3.12229e-18)
(2.91972e-05 -5.90257e-06 6.27887e-19)
(3.03669e-05 -6.83674e-06 8.385e-19)
(2.91463e-05 -6.61009e-06 -9.93058e-19)
(0.001125 -0.000916873 7.87251e-18)
(0.000889247 -0.000934688 9.53968e-18)
(0.000864842 -0.00120903 8.18028e-18)
(3.3779e-05 4.13772e-05 1.12811e-19)
(3.30595e-05 3.95003e-05 -3.89207e-19)
(3.14227e-05 4.49271e-05 -5.04989e-19)
(-0.00572208 0.000910918 -2.93988e-18)
(-0.0059255 0.00122737 6.41851e-18)
(0.000249657 -0.000424752 -1.12703e-18)
(0.000234151 -0.000443413 -9.90885e-19)
(4.34222e-07 9.74223e-07 4.52652e-19)
(7.94255e-07 1.81826e-06 1.83869e-19)
(0.000392281 0.000218973 -7.20464e-19)
(0.000401737 0.000229625 1.69385e-18)
(0.000385616 0.000229595 -1.04305e-18)
(0.000629617 0.000320888 -1.63973e-18)
(0.000609003 0.000321327 -1.3955e-18)
(-2.47975e-05 0.000678405 1.2367e-17)
(-1.65572e-05 0.000659877 -3.26432e-17)
(-0.00174951 -0.00521271 3.47614e-19)
(-0.0012429 -0.00511334 2.40605e-18)
(0.000477547 0.000287251 1.51156e-18)
(0.000492143 0.000297451 3.88242e-19)
(0.000473166 0.000302604 -2.14596e-18)
(0.000131461 -0.000106606 2.34596e-18)
(0.000138934 -0.000104697 1.44397e-18)
(0.000134161 -9.88363e-05 7.59541e-19)
(-0.00125786 0.00265281 -7.05311e-19)
(-0.00121306 0.000868733 1.6412e-18)
(-0.00153829 0.00197801 2.86625e-18)
(0.00216998 -0.00527713 -5.38777e-19)
(0.00191279 -0.00477711 3.63865e-18)
(-0.00307608 0.00115173 2.25086e-18)
(-0.00294982 0.000933708 8.16761e-18)
(7.96874e-05 7.88611e-05 1.90836e-18)
(7.82402e-05 7.45485e-05 2.37097e-19)
(-0.00157366 -0.00226365 6.00183e-18)
(-0.000326264 -0.00222957 7.42055e-18)
(-0.00221506 -0.00182872 -5.78193e-18)
(1.24074e-07 0.000164366 9.35799e-20)