/*--------------------------------*- C++ -*----------------------------------*\
| =========                 |                                                 |
| \\      /  F ield         | OpenFOAM: The Open Source CFD Toolbox           |
|  \\    /   O peration     | Version:  v2012                                 |
|   \\  /    A nd           | Website:  www.openfoam.com                      |
|    \\/     M anipulation  |                                                 |
\*---------------------------------------------------------------------------*/
FoamFile
{
    version     2.0;
    format      ascii;
    class       surfaceVectorField;
    location    "750";
    object      Uf;
}
// * * * * * * * * * * * * * * * * * * * * * * * * * * * * * * * * * * * * * //

dimensions      [0 1 -1 0 0 0 0];


internalField   nonuniform List<vector> 
20673
(
(1.09371 0.122462 9.82415e-21)
(1.0978 0.119938 2.14283e-20)
(1.09309 0.117464 1.03201e-20)
(1.02043 0.0409385 2.21564e-21)
(1.01924 0.040259 -9.17119e-22)
(1.01945 0.0421946 -1.31366e-21)
(0.581577 -0.0705946 1.42809e-20)
(0.617799 -0.0729692 3.56593e-21)
(0.644307 -0.073177 -3.46636e-21)
(1.05476 -0.0105221 -1.40127e-20)
(1.05493 -0.0095278 -1.2481e-20)
(1.05387 -0.00988275 -9.77842e-21)
(0.996398 0.00272185 1.10836e-21)
(0.996225 0.00229617 -1.65619e-23)
(0.995906 0.00283808 5.38234e-21)
(0.371879 0.0552141 -3.14669e-21)
(0.360009 0.0281111 1.58647e-23)
(0.343086 0.056148 6.18776e-20)
(0.524573 -0.0579521 -5.98802e-21)
(0.519292 -0.0602156 1.69233e-20)
(0.569742 -0.0624005 -1.83871e-20)
(0.644839 -0.0743455 0)
(0.59429 -0.0719425 1.32462e-20)
(0.614235 -0.0752696 0)
(0.454388 -0.0711583 -2.60393e-20)
(0.420946 -0.0674484 -1.95863e-20)
(0.385489 -0.0630574 1.49365e-20)
(1.13454 0.147298 -1.89324e-20)
(1.14065 0.147152 1.28965e-20)
(1.13832 0.153241 1.78134e-20)
(1.10662 -0.0608301 1.19324e-21)
(1.10526 -0.0608764 -1.88564e-20)
(1.1065 -0.0622269 -9.91209e-21)
(1.08847 -0.041732 -9.19879e-22)
(1.08889 -0.0429596 -2.67134e-23)
(1.08961 -0.0415661 -1.45401e-22)
(1.05558 -0.0108056 -5.16168e-21)
(0.000731776 -0.00293028 -8.82023e-21)
(0.0234117 -0.00767539 -9.33637e-21)
(-0.00653383 -0.00428209 -2.10975e-20)
(0.972737 0.0938804 -3.70117e-21)
(0.968563 0.0932785 9.32239e-21)
(0.971646 0.0895951 9.01897e-21)
(0.994503 0.0893325 3.4764e-21)
(0.992248 0.0868707 0)
(0.995922 0.0856414 -6.66067e-21)
(1.01369 0.0465516 0)
(1.01511 0.0462426 0)
(1.014 0.0450192 2.17795e-22)
(1.13725 0.0173751 -8.30004e-22)
(1.13835 0.0197007 -3.15369e-23)
(1.14011 0.0165 1.955e-20)
(1.08741 -0.0422283 -1.55688e-20)
(1.08773 -0.0408358 -1.38028e-20)
(1.00152 0.00482673 0)
(1.00153 0.00461568 -2.47201e-23)
(1.00135 0.00446313 0)
(0.999979 0.00093346 -2.38495e-22)
(0.999965 0.00124828 9.87945e-23)
(0.999982 0.000945227 -7.32322e-21)
(0.523027 -0.0582796 -4.01547e-22)
(0.48738 -0.0584293 2.05078e-20)
(1.0008 0.00735048 -3.01606e-21)
(1.00085 0.00776474 -4.1709e-22)
(1.00097 0.0076387 -2.10959e-21)
(0.686348 -0.0794029 0)
(0.69684 -0.0804959 1.41258e-20)
(0.994982 0.0142698 0)
(0.994506 0.0140448 0)
(0.99472 0.0148266 -2.09489e-21)
(0.571354 -0.0547406 5.58887e-21)
(0.534344 -0.0513915 -1.48012e-20)
(0.531067 -0.0534173 1.17708e-20)
(0.788344 0.0324049 1.96197e-20)
(0.779373 0.0380019 -7.5338e-21)
(0.780604 0.0261147 3.98983e-20)
(0.760818 0.116551 0)
(0.759332 0.129057 -1.63271e-20)
(0.750407 0.119883 5.83119e-21)
(0.717164 0.553868 2.96224e-21)
(0.748277 0.564101 -1.88049e-20)
(0.726688 0.597688 -1.74341e-20)
(1.1917 0.0916151 -4.41014e-20)
(1.1912 0.0868232 6.92291e-21)
(1.19621 0.087827 -4.27976e-20)
(1.11164 0.109256 -2.29811e-21)
(1.10852 0.112306 -1.53614e-20)
(1.10741 0.107747 -1.44497e-20)
(1.06063 0.0888008 2.51334e-21)
(1.05777 0.0894935 -6.78127e-21)
(1.05865 0.0861795 -8.5041e-21)
(0.8417 0.067317 4.45695e-21)
(0.833924 0.0700519 -2.14133e-20)
(0.835224 0.0605838 -5.60359e-20)
(0.907906 -0.000613496 4.72043e-20)
(0.910675 -0.00359452 1.03366e-20)
(0.911922 0.000309664 1.49426e-21)
(0.991351 0.0108903 -6.68678e-21)
(0.990798 0.0115109 3.24328e-21)
(0.991503 0.0117869 7.63419e-23)
(1.10333 -0.0717046 1.59798e-20)
(1.10524 -0.072322 -4.67176e-21)
(1.10814 -0.0736214 -4.27685e-21)
(1.00067 0.00703234 1.32305e-21)
(1.00081 0.00694699 -5.49106e-22)
(0.145508 -0.0343307 2.49895e-20)
(0.119525 -0.0304523 -7.58479e-21)
(0.132629 -0.031309 1.2804e-20)
(1.06096 -0.0145697 5.38362e-21)
(1.0618 -0.0153424 -8.35863e-21)
(0.304182 -0.00749027 7.18586e-22)
(0.279044 -0.00486183 8.84076e-21)
(0.307657 -0.00708984 8.81827e-21)
(1.00833 0.000900558 1.15279e-23)
(1.00872 0.000883829 -2.53795e-22)
(1.00791 0.000509326 -4.71187e-22)
(0.999994 0.000668709 -5.85733e-21)
(1 0.000314372 1.21804e-21)
(0.999997 0.000342798 5.04897e-22)
(1.02071 0.00252981 -1.33794e-21)
(1.0204 0.00269598 -1.43249e-21)
(1.02031 0.00238174 -1.43146e-22)
(0.696649 0.192283 3.91503e-20)
(0.713082 0.19997 -1.20158e-22)
(0.696164 0.214048 3.87195e-20)
(1.0373 0.0240799 -3.89274e-21)
(1.03818 0.0247999 0)
(1.03846 0.0239238 2.01271e-21)
(0.89071 0.0152717 0)
(0.889286 0.0106976 0)
(0.894667 0.0118785 -1.37002e-20)
(1.13632 0.0141683 2.7768e-20)
(1.13415 0.0174138 1.79625e-20)
(1.139 -0.0162318 1.45675e-20)
(1.1378 -0.0137816 6.5138e-21)
(1.13621 -0.0162322 -6.42771e-21)
(0.09047 0.120931 0)
(0.0899011 0.156557 9.27815e-20)
(0.119585 0.135385 0)
(1.00322 0.000723305 -1.59462e-21)
(1.00352 0.000657175 -5.51979e-22)
(1.00346 0.00101722 -5.72365e-22)
(1.08293 0.0145033 1.73092e-20)
(1.08395 0.0154667 2.24814e-20)
(1.0844 0.0139237 3.02896e-21)
(0.966028 0.00843564 3.45389e-21)
(0.964826 0.00707201 8.10101e-21)
(0.964417 0.00913289 1.94857e-20)
(0.0841519 0.0910541 -7.02212e-20)
(0.0508076 0.123649 -1.10257e-19)
(0.904813 0.00247077 6.10566e-20)
(0.9037 -0.00198822 -2.50621e-21)
(1.0134 0.0480524 0)
(1.01214 0.046604 -6.42487e-22)
(1.08334 0.0366086 -3.22799e-21)
(1.08262 0.0386337 5.32519e-22)
(1.08506 0.0382867 9.447e-22)
(1.10837 -0.0609672 -2.01025e-20)
(1.10743 -0.0593584 0)
(0.994664 0.0293014 -2.72654e-21)
(0.994728 0.027921 -8.51291e-22)
(0.995755 0.0288978 -9.47001e-22)
(1.06913 0.0430753 9.83162e-21)
(1.07117 0.0440675 8.94616e-21)
(1.06919 0.0454346 1.34521e-20)
(1.03617 0.0242069 3.84855e-21)
(1.03636 0.0233356 -2.04825e-21)
(0.624869 0.0571476 6.35141e-20)
(0.474646 0.0398137 -1.35058e-19)
(0.53287 0.0441912 -1.37916e-20)
(1.0217 0.0402894 6.03191e-22)
(1.02173 0.042195 9.31676e-22)
(0.00316853 -0.00116719 -1.72316e-20)
(1.00151 0.00501526 1.40815e-21)
(1.00169 0.0051868 0)
(0.379703 0.0901106 1.04195e-19)
(0.403317 0.059511 0)
(1.14347 0.389411 1.22299e-19)
(1.10691 0.36219 -5.55894e-20)
(0.850675 0.279596 -5.4392e-20)
(0.995733 -0.00115732 3.87591e-21)
(0.995275 -0.00102254 1.48211e-21)
(0.987719 -0.002043 7.29821e-21)
(0.988484 -0.0020772 1.1004e-21)
(1.14885 -0.054357 -4.6753e-21)
(1.1466 -0.0554799 -2.7185e-20)
(1.14948 -0.0570474 -3.57404e-20)
(1.0595 0.133297 -4.58847e-21)
(1.06475 0.13329 7.49638e-23)
(1.0613 0.139228 -2.01054e-20)
(0.996829 0.00265624 -2.10926e-21)
(0.996533 0.00314453 -2.82036e-21)
(0.524328 -0.079263 1.77179e-20)
(0.487623 -0.0759187 -1.48631e-20)
(-0.10944 -0.0176115 -2.85087e-20)
(-0.0841673 -0.0213025 -2.00722e-21)
(-0.0922847 -0.020194 2.95883e-20)
(0.995635 0.0144587 0)
(0.995381 0.0135222 4.2346e-21)
(0.0907929 0.191445 8.57429e-20)
(0.125626 0.209912 6.34945e-20)
(0.0928815 0.230115 -8.65573e-20)
(1.08263 -0.047894 1.59103e-20)
(1.08201 -0.0473167 0)
(1.08284 -0.0469425 0)
(-0.106377 -0.0114284 -2.30527e-20)
(-0.0816008 -0.0162728 2.09807e-20)
(-0.0966047 -0.0118463 5.92637e-20)
(1.05235 0.0261235 3.63042e-21)
(1.05366 0.0266472 8.543e-21)
(1.05253 0.0276498 1.26594e-20)
(0.541739 -0.0436756 -2.93567e-21)
(0.53917 -0.0460654 1.23101e-20)
(0.577313 -0.0474104 1.12935e-22)
(0.999928 0.00186247 -1.09488e-20)
(0.999873 0.00216006 -3.51746e-21)
(0.999893 0.00220699 7.84109e-23)
(1.00005 0.00301191 -2.67175e-21)
(1.00006 0.00330035 2.14823e-21)
(1.00008 0.00294706 3.3325e-21)
(0.996138 -0.000828646 6.64921e-21)
(0.389415 0.116448 9.74786e-20)
(0.400047 0.146563 -4.6438e-22)
(0.421298 0.1224 -6.39387e-20)
(0.175654 -0.0393274 -1.51638e-21)
(0.162591 -0.0386199 6.79269e-21)
(-0.0656192 0.0167394 -9.54717e-21)
(-0.108305 0.0136363 -5.60647e-20)
(-0.0966896 0.0133205 -3.2114e-20)
(1.05097 0.025704 1.88385e-21)
(1.05209 0.0248093 -3.87369e-21)
(1.00035 0.00415558 1.57913e-21)
(1.00041 0.00408299 -4.19018e-21)
(1.0003 0.00377903 -2.67121e-21)
(1.15705 0.416249 -1.56622e-20)
(1.22809 0.439532 2.30397e-20)
(1.08135 0.0135417 0)
(1.08119 0.0153215 0)
(1.02098 0.0024334 -3.03458e-21)
(1.02107 0.00273629 0)
(-0.000947055 -0.030545 0)
(-0.0293199 -0.027143 1.64926e-20)
(-0.0157013 -0.0282211 -2.44804e-20)
(1.17729 0.125757 0)
(1.17139 0.127924 0)
(1.17486 0.132194 0)
(1.02261 0.0236275 9.40617e-22)
(1.02297 0.0228721 -1.82639e-22)
(1.02199 0.0228265 1.09066e-21)
(0.973772 0.0506338 4.50957e-21)
(0.971705 0.0518041 -3.92974e-23)
(0.974142 0.0531292 -7.75583e-21)
(1.20615 0.436957 -7.94011e-20)
(1.09556 0.414411 -1.14689e-19)
(0.373963 0.00103484 3.0258e-21)
(0.402704 -0.00614746 0)
(0.379806 -0.0335357 0)
(1.12359 -0.0502986 8.35072e-21)
(1.12545 -0.0505564 8.64061e-21)
(1.12438 -0.0523294 -9.56384e-21)
(1.13714 -0.0067256 3.07887e-21)
(1.13984 -0.00667304 0)
(1.13851 -0.00433286 1.5807e-21)
(1.08671 -0.0539883 1.06864e-21)
(1.08619 -0.0544783 1.37897e-21)
(1.08595 -0.0540889 -4.83793e-22)
(0.594794 0.127991 -4.22358e-20)
(0.614771 0.11354 2.21951e-20)
(0.616629 0.139856 -9.82623e-20)
(1.01086 0.00555532 -2.8319e-22)
(1.0113 0.00566092 0)
(1.01112 0.00604194 0)
(0.840833 -0.00430894 -4.48675e-20)
(0.844232 0.00306356 2.36568e-20)
(0.848382 -0.00369025 6.93612e-21)
(0.680367 0.185576 -4.3315e-22)
(0.698279 0.177037 0)
(1.0596 0.0204883 1.06893e-22)
(1.06081 0.0202351 -1.6803e-23)
(1.05979 0.0190072 4.30503e-22)
(1.01589 0.0121768 -2.31671e-22)
(1.01594 0.0116216 6.41024e-23)
(1.01648 0.0121511 4.08947e-22)
(0.473279 -0.0670588 -3.40334e-20)
(0.462295 -0.0666275 2.14901e-20)
(0.543451 -0.0687985 2.66245e-21)
(0.820341 0.490881 1.33368e-20)
(0.792331 0.508952 -2.78682e-20)
(0.831179 0.516802 -3.96227e-22)
(1.13999 -0.0180004 6.60503e-21)
(1.1414 -0.0158694 2.58442e-20)
(1.01666 0.0458601 0)
(1.01656 0.0475834 2.55396e-23)
(1.11029 0.122104 -1.66255e-20)
(1.1067 0.124834 -1.34678e-20)
(1.11142 0.12704 0)
(-0.150766 -0.0108381 5.72751e-20)
(-0.182807 -0.0103297 0)
(-0.169149 -0.0105161 -2.08209e-20)
(0.321768 -0.0098615 0)
(0.297907 -0.00700969 0)
(1.08982 -0.0473611 -6.19437e-21)
(1.08905 -0.0476818 -1.90555e-20)
(1.08967 -0.0482056 -1.58839e-20)
(0.473208 -0.0687457 -4.82912e-20)
(0.404893 -0.0666521 -4.15595e-20)
(0.949039 0.00625299 -1.44658e-20)
(0.947629 0.0082357 1.6933e-21)
(0.946961 0.00549654 -1.2033e-20)
(0.0880413 -0.133611 9.82858e-20)
(0.0991773 -0.103702 0)
(0.0609544 -0.108576 0)
(1.00069 0.0131768 3.69155e-21)
(1.00075 0.0138145 3.52244e-21)
(1.00039 0.0134708 2.4836e-21)
(0.181114 0.0943839 -6.17985e-20)
(0.211189 0.0759483 7.56065e-20)
(0.212331 0.111109 6.44893e-20)
(0.185085 -0.00939153 0)
(0.193028 -0.0114252 7.61701e-21)
(0.206247 -0.014918 2.22495e-20)
(0.907299 0.0104202 -9.64349e-21)
(0.904449 0.0136407 6.41813e-22)
(0.90905 0.0141521 1.75452e-20)
(1 0.00100968 1.37797e-21)
(0.999986 0.000995297 6.29553e-22)
(1.15089 -0.0534576 5.57385e-20)
(1.14862 -0.0523322 6.32482e-20)
(0.146693 -0.0119087 0)
(0.16734 -0.016019 -3.27426e-21)
(0.15959 -0.0154258 -2.97016e-21)
(0.762721 0.104718 -2.00876e-20)
(0.774353 0.113445 3.57062e-20)
(1.00488 0.000638553 -4.25658e-23)
(1.00511 0.000929121 -3.46627e-22)
(1.00521 0.000541132 -1.63922e-23)
(0.973754 0.0479922 4.07338e-21)
(0.976018 0.049327 -6.11462e-21)
(1.03338 0.0271569 6.99121e-21)
(1.0341 0.0280359 1.55272e-21)
(1.03304 0.0280793 3.49307e-21)
(1.00457 0.00065265 3.1071e-22)
(1.00445 0.000319021 -2.9685e-22)
(1.01775 0.00189887 3.2987e-22)
(1.01801 0.00173911 0)
(1.01769 0.00162126 -2.30352e-21)
(0.345792 0.00206979 -5.87186e-20)
(0.266868 -0.0321868 -1.83605e-21)
(0.255661 -0.0294989 0)
(0.244777 -0.0262531 -6.79991e-21)
(0.950607 0.00391066 -1.16679e-20)
(0.951577 0.00667202 3.96968e-21)
(1.03904 0.0254977 0)
(1.03786 0.0257269 2.26699e-21)
(0.999968 0.000906415 5.20835e-22)
(0.999997 0.000620903 5.69261e-21)
(1.26834 -0.00499629 0)
(1.27742 -0.00332378 1.51068e-20)
(1.24768 -0.0129647 0)
(0.73312 -0.0834989 -2.1565e-20)
(0.675348 -0.079169 0)
(1.09401 0.12719 1.11611e-21)
(1.08958 0.12431 -1.25259e-20)
(0.578275 0.139177 0)
(0.578744 0.111223 0)
(0.99523 -0.000558569 6.44712e-21)
(0.994777 -0.00093583 1.70952e-21)
(0.905885 0.0064573 1.20873e-20)
(0.910129 0.00763892 -4.01007e-20)
(1.09757 -0.0719638 -7.78328e-21)
(1.09583 -0.0710544 2.74586e-20)
(1.0952 -0.0700264 1.19363e-20)
(1.02446 0.0128782 0)
(1.02439 0.0134331 2.55132e-21)
(1.02372 0.0129208 1.23904e-21)
(0.963044 0.0203241 5.72994e-21)
(0.960893 0.0210207 1.65314e-20)
(0.961656 0.0184535 1.73411e-20)
(0.663557 0.189483 -7.86525e-20)
(0.64327 0.195736 3.64819e-20)
(0.661774 0.212394 -4.10066e-20)
(0.98749 -0.00130954 3.04463e-21)
(0.986935 -0.00189214 -1.27704e-20)
(0.731682 -0.0818733 -1.34703e-20)
(0.653586 -0.0774383 -1.13486e-20)
(0.726536 -0.0808231 4.16738e-20)
(0.809805 0.59603 2.70389e-21)
(0.817285 0.566602 6.53662e-21)
(0.782527 0.567907 2.66472e-21)
(0.967322 0.0100879 1.78079e-21)
(0.967912 0.0079468 3.76724e-21)
(1.02309 0.0108529 0)
(1.02314 0.0113865 0)
(1.0225 0.0109047 -1.16983e-21)
(1.0554 0.0960052 -1.67376e-20)
(1.05183 0.0964544 6.95966e-21)
(1.05433 0.100214 -2.09098e-20)
(1.11229 -0.0233077 0)
(1.11365 -0.0249591 -1.27288e-20)
(1.11384 -0.0222932 1.99425e-20)
(0.112036 -0.154847 4.75352e-20)
(0.0726875 -0.164134 8.34998e-20)
(1.10571 -0.0443727 9.91903e-21)
(1.10711 -0.0451404 2.19366e-20)
(1.10545 -0.0457183 -1.80151e-20)
(1.02191 0.178489 1.72801e-21)
(1.025 0.173694 0)
(1.02944 0.177748 -2.92053e-21)
(1.07696 0.0619727 1.23839e-20)
(1.07492 0.0639124 -9.61907e-21)
(1.07422 0.0610219 1.16017e-20)
(-0.0299564 0.0484767 -3.95031e-20)
(-0.0491527 0.0549429 -7.63154e-20)
(-0.0820119 0.0472819 0)
(1.05456 0.133812 3.13937e-21)
(1.0574 0.129009 7.21336e-22)
(1.1213 -0.0920165 -1.39831e-20)
(1.14157 -0.0889696 -3.01624e-20)
(1.14391 -0.0878032 -7.20338e-21)
(-0.138248 -0.00858006 -2.96518e-20)
(-0.114459 -0.0119562 1.21077e-20)
(1.2881 -0.00230627 0)
(1.24103 -0.00237278 3.6724e-20)
(0.94123 0.0419198 7.18484e-22)
(0.938423 0.0434969 4.45743e-21)
(0.938316 0.0398907 -8.84027e-21)
(0.789081 -0.0309472 2.2168e-20)
(0.783387 -0.0224699 -2.28338e-20)
(0.777529 -0.0334446 1.8692e-20)
(0.999996 0.00233341 1.13638e-22)
(1.00002 0.00225561 0)
(0.999982 0.00193032 0)
(1.12135 -0.0506453 -2.09428e-20)
(1.12259 -0.0485799 4.20128e-21)
(1.09085 -0.0470891 1.37941e-20)
(1.08995 -0.046383 1.56769e-20)
(1.08696 -0.0535148 1.09515e-20)
(1.08739 -0.0539508 1.38537e-22)
(1.05941 0.0217515 -7.14224e-21)
(1.05841 0.0206075 -5.5968e-23)
(1.12474 -0.0159411 1.10315e-20)
(1.12326 -0.0175232 2.71723e-20)
(1.12571 -0.018228 5.51896e-20)
(1.03128 0.0204017 -5.97882e-21)
(1.03206 0.0210152 -1.56186e-21)
(1.03105 0.021246 -7.85656e-21)
(0.837662 -0.0105868 -4.96369e-20)
(0.833123 -0.00340705 -5.53796e-20)
(1.04686 0.172622 -7.45414e-21)
(1.03973 0.172049 3.64749e-21)
(1.04493 0.166043 0)
(-0.289978 -0.000498525 1.40924e-21)
(-0.307314 0.000682568 -3.13218e-20)
(-0.27636 -0.000638127 2.42543e-20)
(1.08724 -0.0490542 0)
(1.08764 -0.0497862 1.21015e-22)
(1.08808 -0.0490381 0)
(1.01245 0.0542465 1.08983e-21)
(1.01237 0.0560108 -7.8427e-22)
(1.01064 0.0547871 9.86418e-22)
(0.83603 -0.0880201 7.42181e-22)
(0.827191 -0.0883487 0)
(0.89829 -0.0888833 0)
(1.01403 0.196205 -1.99542e-22)
(1.01114 0.201122 -4.28203e-21)
(1.01886 0.200987 -2.65555e-21)
(0.277946 -0.0324957 2.55274e-22)
(0.293531 -0.035731 -2.15868e-21)
(0.150276 0.0774339 -1.76874e-20)
(0.150781 0.114797 -1.68495e-20)
(0.746569 -0.0835787 -1.24241e-20)
(0.813977 -0.084494 0)
(1.01186 0.0257955 -3.256e-22)
(1.01252 0.0264542 0)
(1.01167 0.026629 0)
(1.18283 0.124371 -1.61529e-20)
(1.1792 0.120215 1.82119e-20)
(1.11665 0.110767 1.36186e-20)
(1.11522 0.106216 1.34431e-20)
(1.02514 0.0127866 0)
(1.02444 0.0122957 0)
(1.00032 0.00424665 1.72227e-21)
(1.00041 0.00456981 1.67661e-21)
(0.935933 0.114221 1.16549e-20)
(0.932071 0.110256 -9.96978e-22)
(0.938123 0.109764 -1.10633e-21)
(0.616413 -0.0577755 2.75518e-24)
(0.612523 -0.0583986 1.46801e-20)
(1.25167 0.132916 1.41802e-21)
(1.25905 0.130974 3.88746e-20)
(1.26002 0.137916 -5.33536e-20)
(-0.0112626 0.0484858 -3.75379e-20)
(0.0596311 0.0637494 -8.68016e-20)
(1.11353 0.0391932 -3.62846e-21)
(1.11314 0.0417396 0)
(1.11577 0.0404913 0)
(1.09224 -0.0537378 -1.23912e-20)
(1.0916 -0.0537847 1.16753e-20)
(1.09189 -0.0544905 -1.73757e-20)
(1.10941 -0.0764596 1.4006e-20)
(1.11258 -0.0777552 -1.00685e-20)
(1.11554 -0.0786281 1.26154e-20)
(-0.0170503 0.0189582 5.88715e-20)
(-0.0311111 0.0185292 -4.58155e-21)
(1.24606 0.176304 -5.99396e-20)
(1.24635 0.169681 -1.46003e-20)
(1.25421 0.173615 3.40391e-22)
(0.999638 0.00762868 -2.14249e-21)
(0.999739 0.00727103 0)
(0.999571 0.00714754 0)
(0.567002 0.0495632 0)
(0.572572 0.0695492 -1.7447e-20)
(0.547816 0.0637867 0)
(0.79682 0.0290676 -5.73429e-21)
(0.79593 0.0402284 3.44106e-21)
(1.00944 0.000375865 0)
(1.00908 0.000370807 1.09392e-21)
(1.02219 0.0242553 0)
(1.02325 0.0243917 0)
(0.86822 0.457686 -1.45774e-20)
(0.862894 0.430527 9.84382e-21)
(0.889858 0.43921 5.45893e-21)
(1.228 0.483801 4.49854e-21)
(1.23159 0.463981 4.47658e-20)
(1.14941 0.442256 2.54407e-20)
(1.07373 -0.00221659 -1.77452e-20)
(1.07477 -0.0030009 1.00737e-20)
(1.0751 -0.00168785 -2.06109e-20)
(1.00305 0.000868316 -3.66338e-22)
(1.00303 0.000541703 -1.37953e-22)
(1.11801 -0.0183763 -3.19698e-22)
(1.11681 -0.0165787 1.85821e-20)
(1.11947 -0.0166105 0)
(1.11103 -0.0247434 0)
(1.11057 -0.0222794 0)
(-0.125866 -0.0154669 2.91301e-20)
(-0.133222 -0.0147916 1.53359e-20)
(1.24592 -0.0448606 1.50581e-20)
(1.24262 -0.0474822 -5.26873e-20)
(1.23706 -0.0444922 -1.59487e-20)
(0.991837 0.0104882 -3.50511e-21)
(0.991369 0.0102714 -3.86311e-21)
(0.993592 0.0295037 -5.59796e-21)
(0.99458 0.0304287 -7.02022e-22)
(1.1347 -0.006776 5.44343e-22)
(1.13566 -0.00906554 3.17444e-21)
(0.593633 -0.0640763 0)
(0.650707 -0.0659864 3.33846e-21)
(0.633671 -0.0662108 0)
(0.964924 0.019398 -1.78299e-20)
(0.964606 0.0217362 1.90369e-22)
(0.511614 -0.0612606 1.11226e-20)
(0.501743 -0.0617139 -1.12191e-20)
(0.555724 -0.0642496 -1.17457e-20)
(-0.182278 -0.00932088 0)
(-0.15663 -0.0113512 3.06034e-20)
(-0.17575 -0.0092218 0)
(1.09266 -0.0530984 1.18127e-21)
(1.09315 -0.0540186 -2.74943e-21)
(1.01543 0.0121086 3.37802e-22)
(1.01586 0.0126051 -2.10755e-21)
(0.493949 0.384773 9.22612e-21)
(0.513775 0.419765 -1.10175e-19)
(0.460613 0.420789 -7.86285e-20)
(1.12719 -0.00653488 -4.09748e-20)
(1.12973 -0.00670197 -1.94168e-20)
(1.12844 -0.00437787 -2.11305e-20)
(-0.275843 -0.0058218 1.39551e-20)
(-0.243694 -0.00875361 -7.321e-20)
(-0.26175 -0.00522896 -5.82091e-20)
(1.00251 0.0176051 -7.31097e-22)
(1.00288 0.0180177 1.30759e-21)
(1.0025 0.0183739 -6.08181e-22)
(0.775506 0.0785547 2.74652e-20)
(0.729599 0.0762455 0)
(1.01115 0.0250318 -1.31724e-22)
(1.01198 0.0249648 -4.67204e-22)
(1.18754 0.0659316 -5.50524e-21)
(1.18382 0.0637362 2.3839e-20)
(1.18378 0.0680103 4.46188e-21)
(1.00819 0.00116969 0)
(1.00798 0.000809679 0)
(0.117316 -0.0377057 -8.31769e-21)
(0.0920564 -0.0351041 1.83871e-20)
(0.111573 -0.0361953 4.50159e-21)
(0.453048 -0.0659335 0)
(0.442533 -0.0651863 0)
(0.520533 -0.0666469 0)
(0.993951 0.0925785 -1.67214e-21)
(0.99752 0.0913802 3.73429e-21)
(1.17655 0.477606 -4.7108e-20)
(1.21925 0.48963 -7.60413e-20)
(1.18723 0.458924 4.12247e-21)
(1.07974 0.0626009 9.4565e-21)
(1.07839 0.0598556 -1.10256e-20)
(1.01476 0.0119748 -3.99531e-23)
(1.01488 0.0114467 2.33981e-21)
(1.09668 -0.0702536 7.63914e-22)
(1.10284 -0.0713637 -1.1873e-20)
(1.08644 -0.0491081 1.67575e-20)
(1.08683 -0.0483365 0)
(1.11142 0.0379317 1.22959e-20)
(1.11373 0.0367155 9.83533e-21)
(0.709122 -0.0775665 1.1442e-20)
(0.662135 -0.0762228 2.59072e-20)
(0.731033 -0.0772287 7.89786e-21)
(-0.190775 -0.00611045 1.1825e-20)
(-0.211879 -0.00545736 0)
(1.01191 0.00305105 3.33618e-22)
(1.0123 0.00310313 -2.73689e-22)
(1.0121 0.00268356 1.54438e-21)
(1.06348 0.0878094 1.99281e-20)
(1.06278 0.0914982 2.0701e-20)
(0.0184206 -0.0339741 3.76009e-20)
(0.0320134 -0.0349997 1.03605e-20)
(-0.122307 0.0180538 2.97779e-20)
(-0.151143 0.0156837 -8.99753e-21)
(-0.125869 0.0184972 2.66532e-20)
(0.999982 0.0023002 1.06254e-22)
(0.999963 0.00267446 3.66365e-24)
(1.00584 0.00870325 0)
(1.00624 0.00895436 7.66355e-22)
(1.006 0.00914786 -5.79794e-22)
(0.340767 -0.00652178 -7.67912e-21)
(0.358938 -0.00910076 5.2675e-21)
(1.13068 -0.0529294 -9.70492e-22)
(1.12873 -0.0530761 9.40708e-21)
(1.12962 -0.0551245 1.69109e-20)
(1.00006 0.00013358 4.82832e-22)
(1.00003 0.000102326 -2.08235e-21)
(1.00006 0.000167767 -1.03742e-21)
(1.08738 -0.0665435 1.90158e-21)
(1.08639 -0.0656327 2.22389e-20)
(1.08894 -0.0653846 -1.70515e-20)
(1.17422 0.00858725 1.03463e-20)
(1.17285 0.00523287 0)
(1.17028 0.00850664 0)
(0.798346 -0.0308132 5.30587e-20)
(0.793842 -0.0404904 9.65844e-21)
(1.09024 0.105532 -2.83122e-22)
(1.09324 0.109015 2.75471e-20)
(1.09383 0.104035 5.25924e-22)
(1.00001 0.00264316 -2.78149e-21)
(1.00004 0.00224305 -4.15034e-21)
(0.98012 0.207554 -1.81298e-21)
(0.981512 0.197952 0)
(0.971844 0.202139 -6.31987e-21)
(-0.152056 -0.00977238 -1.94194e-21)
(-0.149247 -0.00886933 -2.81809e-20)
(-0.182277 -0.0051876 -2.98215e-20)
(1.0399 0.00371069 1.78541e-21)
(1.04012 0.00307891 1.04114e-21)
(1.04086 0.00358698 -3.29058e-21)
(1.19903 0.139756 6.03805e-20)
(1.19354 0.143136 2.53358e-20)
(1.19408 0.135433 -3.02808e-20)
(0.568179 0.156744 2.17186e-21)
(0.58359 0.177459 2.14696e-21)
(0.553746 0.182741 5.01479e-20)
(1.03264 0.0262534 2.45318e-21)
(1.03367 0.0261345 2.68847e-21)
(0.994841 0.0266919 9.50996e-22)
(0.993866 0.0270162 -1.20745e-20)
(1.10206 -0.0381818 1.37596e-20)
(1.1034 -0.0391475 -6.6163e-21)
(1.10173 -0.0396226 -4.32195e-21)
(0.373772 -0.0143263 -6.18487e-21)
(0.358636 -0.0120419 6.43341e-22)
(0.356929 -0.0121961 -4.97729e-21)
(1.10429 -0.0438939 -1.32749e-20)
(1.10594 -0.0430363 7.6888e-21)
(0.938843 0.118609 1.00192e-21)
(0.933269 0.119741 9.81786e-21)
(0.976641 0.0938124 -3.50138e-21)
(0.974025 0.0975458 7.10614e-21)
(1.00005 0.000290125 -1.1547e-21)
(1.00005 0.000252174 -6.71484e-23)
(1.00002 0.000170394 1.24896e-21)
(0.126619 -0.0084518 -2.24461e-21)
(0.13439 -0.0089831 -1.84796e-21)
(0.613538 -0.0396917 3.03539e-20)
(0.702011 -0.0431417 -2.42225e-21)
(0.696067 -0.0404229 -5.25693e-20)
(1.08283 -0.0620462 -2.80047e-21)
(1.08509 -0.0626149 4.30556e-21)
(1.08871 -0.0623686 -2.69538e-20)
(1.01423 0.0119001 -7.15005e-22)
(1.01469 0.0124353 -1.80984e-21)
(-0.165413 -0.0128137 6.67298e-20)
(-0.137711 -0.0159424 -5.36817e-21)
(-0.149123 -0.0142589 -3.2627e-20)
(0.0186503 -0.012947 5.4745e-21)
(0.0241685 -0.0115309 -3.7498e-21)
(0.000126475 -0.00822421 9.2658e-21)
(1.08333 -0.0917041 1.09601e-20)
(1.09657 -0.0912652 0)
(0.539401 -0.0438292 -1.56526e-21)
(0.510742 -0.0434064 -8.6741e-21)
(1.08323 -0.0482833 1.38441e-20)
(1.0825 -0.0485754 -1.29739e-20)
(1 0.0030499 -3.04991e-21)
(1.00623 0.000716336 -3.69788e-24)
(1.0059 0.000763916 6.1108e-23)
(1.0063 0.00112726 -3.69203e-24)
(1.13566 0.0120505 1.72292e-20)
(1.133 0.0119509 -5.25882e-20)
(1.13473 0.00954523 -2.43833e-20)
(0.0423383 -0.028639 -1.38589e-20)
(0.0240494 -0.0247662 -3.12504e-20)
(0.0176341 -0.0245808 2.17234e-20)
(1.1583 -0.0304573 8.9341e-22)
(1.1605 -0.0286596 4.1636e-20)
(1.16089 -0.0322912 2.45145e-21)
(1.06707 0.0423009 -1.19377e-20)
(1.06889 0.0410763 1.1157e-20)
(1.24482 -0.0434874 6.85186e-20)
(1.22254 -0.0507079 3.93636e-20)
(1.07664 -0.0346254 8.47379e-23)
(1.07581 -0.0339655 1.49825e-20)
(1.01768 0.00105839 2.11775e-21)
(1.01765 0.00131733 -5.65407e-22)
(1.0179 0.00118491 1.06274e-21)
(0.97189 0.0275275 0)
(0.964108 0.0217575 -5.56606e-20)
(0.871177 0.008758 7.12166e-20)
(1.00193 0.00471741 -1.30235e-21)
(1.00194 0.00451152 7.22889e-23)
(1.00175 0.00438693 -1.44032e-21)
(0.835843 -0.0887588 5.95156e-22)
(0.765979 -0.0872507 -1.5802e-20)
(1.07257 -0.00112721 -7.55227e-21)
(1.07218 -0.0024669 -1.01353e-21)
(1.00006 0.000103499 4.58683e-22)
(1.0001 0.000162932 1.45616e-22)
(1.00027 0.106214 -3.00122e-21)
(0.999086 0.11084 -1.21589e-21)
(0.996284 0.106471 1.29773e-21)
(1.02009 0.184191 -3.91748e-22)
(1.01565 0.178891 1.68858e-21)
(0.778092 -0.0126801 -2.83411e-20)
(0.788381 -0.0121635 -4.13585e-20)
(1.0911 -0.0672961 0)
(1.08864 -0.0671558 0)
(0.99788 0.140271 0)
(0.998161 0.146336 -1.58688e-21)
(0.992198 0.142314 1.19859e-21)
(1.04283 0.00941589 2.09402e-20)
(1.04343 0.0102226 5.61381e-21)
(1.04238 0.0100404 3.6653e-21)
(1.24009 0.0117914 0)
(1.24297 0.0159736 3.02562e-20)
(1.25743 0.012885 0)
(0.748577 -0.0786206 0)
(0.683084 -0.0786457 0)
(0.536678 -0.0447756 -5.46495e-21)
(0.541555 -0.0431661 2.85451e-22)
(1.00208 0.0173538 -2.02739e-21)
(1.00244 0.0170216 -4.24332e-22)
(1.06946 -0.0925065 -2.03352e-20)
(1.10702 -0.0916321 -3.4201e-20)
(1.05976 -0.0922795 2.57099e-20)
(0.998492 -4.77026e-05 1.35889e-21)
(0.998388 0.000206271 -1.45563e-21)
(0.998209 -5.27031e-05 1.45639e-22)
(1.04244 0.00860849 5.81515e-21)
(1.0435 0.00871359 1.12246e-21)
(1.00061 0.0124957 -4.21771e-21)
(1.00097 0.0128353 -1.9828e-21)
(0.839777 0.626116 1.61265e-20)
(0.792573 0.632323 -1.53916e-21)
(1.00157 0.000908049 0)
(1.0017 0.000791575 8.37072e-22)
(1.00146 0.000713511 0)
(1.191 0.0679254 -2.95096e-20)
(1.19108 0.0637571 -2.59583e-20)
(1.08663 0.107934 -2.08115e-20)
(1.08687 0.103006 -8.73767e-21)
(1.03044 0.0197163 9.70926e-22)
(1.03144 0.0195382 -1.71148e-21)
(1.11903 -0.0202476 1.61078e-22)
(1.11642 -0.0195171 -2.03732e-22)
(1.0358 0.0566683 1.07866e-21)
(1.03671 0.0549906 2.06953e-23)
(1.03804 0.0567728 -3.99681e-21)
(0.119454 0.0567944 0)
(0.106756 0.0404561 -1.7641e-20)
(0.10436 0.0731142 -6.0231e-20)
(1.0176 0.190868 9.82126e-22)
(1.01028 0.191265 3.33729e-21)
(1.16813 0.122226 0)
(1.16522 0.128398 1.46761e-20)
(1.02927 0.014004 0)
(1.02993 0.0146286 -1.28302e-21)
(1.02999 0.0138078 -3.85242e-21)
(0.995761 0.0263525 5.53473e-21)
(0.994934 0.0255641 -5.43125e-23)
(-0.171668 -0.00845119 1.1268e-20)
(-0.194885 -0.00788873 2.8851e-20)
(-0.200284 -0.00791779 -3.89201e-20)
(0.124772 -0.012028 1.29628e-20)
(0.116292 -0.0112186 -7.38893e-21)
(0.138835 -0.0160146 6.3538e-21)
(1.00072 0.0144673 2.66585e-22)
(1.00106 0.0141668 -1.03957e-21)
(1.00691 0.000660517 6.40193e-23)
(1.00734 0.000891349 -1.66639e-22)
(1.00694 0.00117201 0)
(0.963563 0.026654 0)
(1.0819 0.0360939 1.97619e-20)
(1.01492 0.0243869 -2.55119e-22)
(1.01515 0.0253387 -4.79632e-23)
(1.01594 0.0248794 -9.86265e-22)
(-0.0564618 -0.0246759 -2.23083e-20)
(-0.0747886 -0.022301 1.27196e-20)
(1.02856 0.013561 0)
(1.02854 0.0143504 -2.03658e-21)
(0.122166 -0.0387627 -8.12488e-21)
(0.14278 -0.0406395 2.5378e-21)
(1.04644 -0.00411283 -7.013e-21)
(1.04595 -0.00472129 8.86516e-21)
(1.04682 -0.00475124 7.0421e-21)
(1.21347 0.316566 3.14405e-20)
(1.20122 0.315898 4.34772e-20)
(1.20644 0.328624 -3.06851e-20)
(1.09846 0.00220189 -2.54764e-20)
(1.09847 0.0041324 -1.66183e-20)
(1.10045 0.00309561 2.17673e-20)
(0.0977714 0.30521 0)
(0.0960943 0.264978 -8.39022e-20)
(0.1313 0.282534 0)
(0.944416 0.043118 -1.43661e-20)
(0.943986 0.0397193 -5.20983e-21)
(1.29373 0.00485801 0)
(1.29547 0.00465868 -1.27677e-20)
(0.516696 0.291562 1.13378e-19)
(0.489832 0.302026 -4.28181e-20)
(0.517944 0.324087 3.52804e-20)
(1.00424 0.106459 -4.61026e-22)
(1.00183 0.103139 5.91344e-22)
(1.13172 -0.0513818 -1.73381e-20)
(1.13277 -0.0534431 1.11934e-20)
(0.953267 0.504903 6.0148e-22)
(0.9706 0.52281 1.58548e-20)
(0.941327 0.528206 3.47391e-21)
(0.996088 0.0425344 -4.1038e-21)
(0.994615 0.0420182 -1.55401e-21)
(0.995 0.0438342 -3.84067e-21)
(0.211644 -0.0328412 -8.31418e-21)
(0.185778 -0.0284923 0)
(0.196821 -0.0294015 -1.14333e-20)
(0.582045 0.0383759 1.21744e-21)
(0.561345 0.0294538 -4.11174e-21)
(0.0346995 -0.0161385 9.5295e-21)
(0.0161404 -0.0133522 -7.16948e-22)
(0.922954 0.0161531 -1.16667e-20)
(0.919353 0.0173557 -1.73555e-21)
(0.92214 0.0201559 5.30511e-22)
(0.242106 -0.00857109 4.25243e-21)
(0.217666 -0.00528204 1.4296e-20)
(0.245169 -0.00782088 -4.76885e-28)
(1.06658 0.0868969 -1.5935e-21)
(1.06895 0.0902177 -9.78245e-21)
(1.06994 0.0866657 -9.035e-21)
(-0.0928036 -0.00121545 5.8315e-20)
(-0.0619078 -0.000849812 5.04461e-20)
(-0.0505655 -0.0020708 3.53335e-20)
(0.522974 0.260437 9.58502e-21)
(0.548441 0.283553 8.81803e-21)
(0.928369 0.346765 4.69156e-21)
(0.911825 0.344478 -1.58907e-21)
(0.921031 0.361965 6.83158e-21)
(0.946451 0.352106 -3.83551e-21)
(0.937978 0.333801 -4.20614e-21)
(0.551702 -0.0695748 1.22291e-20)
(0.522359 -0.0697893 1.65704e-20)
(0.999751 0.0023546 9.41242e-22)
(0.999683 0.0026134 1.35306e-21)
(0.999714 0.00266201 5.4219e-21)
(1.05368 0.171471 -1.8831e-21)
(1.05077 0.178373 -7.09334e-21)
(-0.11417 -0.0124968 -1.26141e-20)
(-0.128368 -0.0116739 6.21373e-20)
(0.982897 0.0283869 3.63398e-21)
(0.981955 0.0292442 1.22846e-21)
(0.981647 0.0275722 7.53838e-21)
(1.00149 0.0720511 -1.28708e-21)
(1.00228 0.0696988 -6.39379e-21)
(0.999556 0.0701494 -3.48714e-21)
(0.041674 -0.0125144 0)
(0.0490799 -0.0124621 0)
(0.84515 0.476473 -1.25016e-20)
(0.877549 0.484355 -1.52404e-20)
(1.01613 0.051056 -5.26572e-22)
(1.01608 0.05264 2.26789e-22)
(1.01792 0.0521268 7.11172e-22)
(1.10783 -0.0753165 7.0947e-21)
(1.10567 -0.0748768 -1.19704e-20)
(0.681995 0.549267 5.1602e-20)
(0.708063 0.520935 -1.23406e-20)
(1.00891 0.00495827 1.94202e-22)
(1.00933 0.00520965 1.02823e-23)
(1.00926 0.0047354 0)
(0.177233 -0.0093599 -1.60709e-20)
(0.156941 -0.00580644 1.28266e-20)
(1.10388 -0.0741633 -3.79272e-21)
(1.10954 -0.0751041 -4.67722e-20)
(1.10005 -0.0732383 9.08444e-21)
(1.00192 0.0049187 -1.51552e-21)
(1.00212 0.00506252 0)
(1.00954 0.0127964 -1.40715e-23)
(1.00904 0.0124407 -1.16349e-22)
(1.0092 0.0130441 -1.0928e-22)
(0.998489 -0.00033925 -1.50093e-22)
(0.998721 -7.56468e-05 1.2276e-21)
(1.02377 0.0108203 0)
(1.02312 0.0103841 0)