/*--------------------------------*- C++ -*----------------------------------*\
| =========                 |                                                 |
| \\      /  F ield         | OpenFOAM: The Open Source CFD Toolbox           |
|  \\    /   O peration     | Version:  v2012                                 |
|   \\  /    A nd           | Website:  www.openfoam.com                      |
|    \\/     M anipulation  |                                                 |
\*---------------------------------------------------------------------------*/
FoamFile
{
    version     2.0;
    format      ascii;
    class       volVectorField;
    location    "850";
    object      U;
}
// * * * * * * * * * * * * * * * * * * * * * * * * * * * * * * * * * * * * * //

dimensions      [0 1 -1 0 0 0 0];


internalField   nonuniform List<vector> 
13917
(
(0.472691 0.01647 -3.54463e-20)
(1.01444 0.0346728 3.83766e-22)
(1.07817 0.0899749 -2.16654e-20)
(1.03711 0.0180457 -7.80141e-21)
(1.01142 -6.51295e-05 1.1241e-21)
(1.01296 0.0347844 -4.22912e-22)
(1.05393 0.0360091 0)
(1.0373 0.0166637 1.05731e-21)
(1.0671 0.0234933 0)
(0.0111625 -0.0743721 9.1403e-21)
(1.03325 0.0197506 4.4797e-22)
(1.02598 0.0153851 3.73496e-21)
(1.00978 0.000152933 0)
(0.689002 -0.0879393 -2.75141e-21)
(1.00575 0.0245686 0)
(0.450306 0.0101991 4.27039e-20)
(1.00372 1.33007e-05 3.60097e-24)
(1.02418 0.019149 -1.81363e-21)
(1.07071 0.0791836 1.93547e-20)
(0.495568 0.0456467 0)
(1.01461 0.0370265 0)
(1.00935 0.00742292 0)
(1.06453 0.0578737 1.22175e-20)
(1.00926 0.00705627 0)
(1.03329 0.0271548 0)
(1.01247 0.0344665 0)
(0.977837 0.155913 -1.35263e-21)
(-0.00029186 -0.0534095 0)
(1.01185 0.0257788 -8.10954e-22)
(1.00915 -0.00420285 1.20229e-22)
(0.0277618 -0.0629154 0)
(1.081 0.0651385 -1.29613e-20)
(1.03173 0.020494 1.60621e-21)
(0.515194 0.0349069 1.43206e-20)
(1.0149 -0.0031212 -4.79198e-23)
(1.04718 0.0186336 -1.00962e-21)
(1.01929 0.026428 0)
(1.00184 0.000100048 7.06205e-23)
(1.0552 0.0361111 0)
(1.02136 0.0520751 0)
(1.00096 -1.93212e-05 1.28369e-22)
(1.02234 0.00150975 0)
(1.0611 0.018277 4.88346e-21)
(1.07755 0.0781669 -2.41389e-20)
(1.07646 0.0777346 2.73128e-20)
(1.06355 0.0766409 0)
(1.01585 0.0368179 0)
(0.289309 0.12324 0)
(1.02223 0.138993 -1.04797e-20)
(1.01472 -0.00319894 5.89265e-23)
(1.02544 0.0149442 0)
(1.05702 0.0766445 0)
(0.32142 0.00385996 0)
(1.01698 0.0142556 0)
(1.0184 0.0154418 0)
(1.05726 0.0762994 7.53645e-21)
(-0.0304597 -0.016935 9.60905e-21)
(1.06337 0.0576645 -2.21852e-22)
(1.02151 0.00155799 0)
(1.06509 0.0784612 4.87722e-21)
(0.402299 -0.0372781 4.99378e-22)
(1.02569 0.00713748 -3.06375e-22)
(1.00233 -0.000106586 -7.48602e-23)
(1.03319 0.0263623 3.93711e-21)
(0.866358 0.0901886 0)
(0.995732 -0.035306 1.41487e-21)
(1.01417 0.0230754 0)
(1.04795 0.0259455 0)
(1.0271 0.0156486 -4.10365e-21)
(0.404679 0.0119942 1.71608e-20)
(0.99678 0.0954124 1.19182e-20)
(0.495699 0.030131 0)
(1.03454 0.00810863 2.32535e-21)
(1.02079 0.00117662 2.05588e-22)
(1.01417 0.0383229 0)
(1.02827 0.0288494 0)
(1.00765 0.00457788 -1.61103e-21)
(1.02006 0.00124988 -1.94473e-22)
(1.02838 0.0281078 0)
(1.03204 0.0210363 1.0615e-20)
(1.01244 0.0154782 -1.223e-21)
(1.00389 6.59671e-06 -1.62515e-22)
(1.03409 0.00753002 0)
(0.990422 0.0914278 0)
(1.01302 0.00251749 -3.69793e-21)
(0.989465 -0.0158091 8.28841e-21)
(1.08055 0.0641205 1.19066e-20)
(1.01251 0.00130547 -3.10028e-21)
(1.02065 0.0504088 0)
(1.00449 4.22224e-05 0)
(1.00655 0.000194254 1.53108e-22)
(1.06252 0.0185839 1.11633e-20)
(1.01324 0.153477 3.93767e-21)
(1.0142 -0.00255467 0)
(1.01697 0.0184478 1.61764e-21)
(1.01166 0.0237432 8.29521e-22)
(0.935127 0.107436 2.59841e-21)
(1.00368 -3.80242e-05 0)
(1.01297 0.00145433 -1.93969e-21)
(0.979426 0.087161 2.30377e-21)
(1.00143 1.18663e-05 2.17153e-22)
(1.00175 1.09188e-06 -3.50208e-22)
(1.01269 0.0161232 1.83398e-21)
(1.00603 2.29899e-05 0)
(1.00808 0.00449694 5.98794e-22)
(0.951288 0.0881204 -3.05914e-20)
(0.553352 0.0903325 1.07727e-20)
(1.0229 0.00909843 7.43986e-22)
(1.02305 0.00205008 0)
(0.93824 0.163067 0)
(1.01988 0.000272993 -3.77307e-21)
(0.532022 0.0391929 -3.82255e-20)
(1.01005 0.0268602 -1.72051e-21)
(0.15126 0.12292 -3.25101e-20)
(0.882841 0.0901922 2.06149e-21)
(1.02625 0.0299664 -5.825e-21)
(1.07092 0.0780414 -5.71494e-21)
(1.00482 0.000261174 0)
(1.07763 0.0872312 -1.91967e-20)
(1.03302 0.00383383 -4.51925e-21)
(1.00474 1.87325e-05 2.18769e-22)
(1.01871 0.000459126 5.51485e-22)
(1.01467 0.0205643 -4.63249e-21)
(1.06219 0.0746524 1.29286e-22)
(0.349046 0.0103447 1.67112e-20)
(0.951902 0.0914008 0)
(1.03387 0.0252453 -1.31107e-20)
(1.01282 0.0385745 -5.25209e-22)
(1.00986 -0.000594295 -5.5347e-23)
(1.06303 0.0751332 1.04308e-20)
(1.07275 0.0409615 1.40508e-20)
(1.04783 0.107372 0)
(0.627651 0.0625063 0)
(1.02552 0.0297418 5.58617e-22)
(1.08085 0.0697962 1.48732e-20)
(0.912856 0.163544 0)
(0.424761 -0.0605506 6.10555e-21)
(0.288432 0.0111042 -5.83811e-22)
(1.01125 0.032799 8.44563e-23)
(1.00082 5.8688e-05 1.74618e-23)
(0.713983 -0.0975854 -1.87325e-21)
(1.01941 0.000971016 1.94983e-22)
(0.967844 0.0882029 2.88671e-20)
(1.01002 0.00560491 6.24267e-22)
(1.03197 0.00792109 -1.14358e-21)
(1.02411 0.00633056 4.6184e-22)
(1.00124 0.0962594 0)
(0.846573 -0.0211602 8.64773e-21)
(0.348273 0.128333 0)
(1.01735 0.0148403 -1.53367e-21)
(1.02158 0.0474411 0)
(1.0019 -2.36872e-05 -1.54045e-24)
(1.03156 0.00726681 2.2356e-21)
(1.03338 0.00342052 1.06242e-20)
(0.937307 0.117514 -8.87912e-21)
(1.00874 0.00408996 7.63676e-23)
(1.00644 -3.49576e-05 -3.14219e-23)
(0.581765 0.0581296 2.59258e-20)
(1.00248 7.60835e-05 0)
(1.00417 0.000133105 0)
(1.01188 0.00492324 4.80775e-21)
(0.748465 0.0905039 7.46024e-21)
(1.01537 0.027244 -5.24569e-22)
(0.740966 -0.131791 1.49377e-21)
(0.53216 0.0538402 -1.86237e-21)
(0.967783 0.0987707 0)
(0.217794 0.00364695 0)
(0.303329 0.0573893 4.19454e-21)
(1.00528 -0.000838068 2.92178e-23)
(1.0101 0.0321736 2.47974e-22)
(1.00902 0.0066636 0)
(0.654751 0.0636326 -1.98925e-20)
(1.06747 0.0223763 0)
(0.567286 -0.0222629 -7.25854e-22)
(1.0485 0.0732883 0)
(1.00214 7.7937e-05 1.39191e-22)
(1.03785 0.0176597 -4.427e-21)
(1.05752 0.0772897 0)
(1.0724 0.0397441 0)
(1.01513 0.0276312 4.42111e-22)
(1.05912 0.0192881 -1.68873e-20)
(1.00914 0.0066135 0)
(1.02488 0.0151274 0)
(1.05545 0.077866 4.50682e-21)
(1.07657 0.0878701 2.00564e-20)
(1.04537 0.11166 9.22868e-21)
(1.02438 0.0147245 -3.72703e-21)
(1.05539 0.0769908 3.17893e-21)
(1.00881 -0.00403965 -1.61263e-22)
(0.994565 -0.00879224 0)
(1.04732 0.0740949 -3.31871e-21)
(1.07645 0.0761761 1.38295e-20)
(1.05813 0.0782385 5.49757e-22)
(0.486723 0.0218859 -4.53192e-20)
(1.01402 -0.00253695 0)
(0.361343 0.0116339 1.13515e-22)
(1.03665 0.0368705 -5.89112e-21)
(0.669397 0.0667586 0)
(1.01465 -0.00299584 0)
(1.00874 0.00424327 -7.19328e-23)
(1.01802 0.0362171 2.74262e-21)
(0.413827 0.0117934 4.75615e-21)
(0.278308 0.00932026 2.64641e-21)
(1.01702 0.0238268 -9.48847e-22)
(1.00557 0.154713 4.24467e-21)
(1.01468 0.0293513 -1.37229e-22)
(1.02212 0.0489319 0)
(1.01943 0.000637754 -5.77649e-22)
(1.05729 0.0768608 -1.18705e-20)
(1.01189 0.0150835 -7.29879e-22)
(1.00892 -0.000223375 -2.49839e-22)
(1.01919 -0.00363046 -3.39921e-21)
(1.02163 -0.00576455 1.12414e-21)
(0.359478 0.121022 -8.00923e-21)
(1.0812 0.0688701 -9.54287e-23)
(1.01128 0.0343299 4.22902e-23)
(0.716685 0.0888912 1.22517e-20)
(1.00695 0.000545372 1.8532e-21)
(1.01145 0.00156649 -3.47889e-22)
(1.01137 0.0016372 -3.83726e-22)
(0.253521 0.0715815 -1.13184e-20)
(1.05747 0.0779532 -3.71588e-21)
(1.05281 0.0751346 0)
(1.0194 0.0019319 1.40225e-21)
(1.00187 -9.20071e-05 6.38256e-23)
(0.849804 0.167677 0)
(0.3543 0.00974438 -1.7277e-20)
(1.01045 0.00127896 4.05688e-22)
(1.01012 0.00122005 0)
(1.00091 -4.89009e-05 -1.45113e-22)
(1.01179 0.00179492 3.77053e-22)
(1.01171 0.0018677 3.82181e-22)
(0.487391 0.0270593 -1.00223e-20)
(0.447294 0.10835 -3.11338e-21)
(1.0105 0.0110209 1.25185e-21)
(1.00609 -0.00144691 -3.64111e-23)
(1.0559 0.0717405 0)
(0.457246 0.0239692 -1.62975e-20)
(1.00327 9.5253e-05 0)
(1.0191 0.00184003 -2.74089e-21)
(0.990311 0.159795 -2.42331e-21)
(0.955573 0.0878782 0)
(1.05745 0.0782504 5.17806e-21)
(0.702206 0.0872101 -1.7332e-20)
(1.05158 0.0800468 -1.06549e-21)
(1.0102 0.005823 7.32681e-22)
(0.399671 0.0540736 0)
(1.05673 0.0722269 0)
(1.01067 0.0283161 -6.11203e-22)
(1.07016 0.0702722 4.96243e-21)
(1.01737 0.0233516 3.94107e-21)
(0.435671 0.114674 9.52445e-21)
(1.03336 0.00490473 1.37752e-20)
(1.03624 0.0590997 0)
(1.04801 0.0710316 0)
(1.00996 0.0107385 9.5319e-22)
(1.0004 -3.29128e-06 0)
(1.03399 0.0260377 6.92501e-23)
(1.01175 0.00475492 0)
(1.01629 -0.00335498 -7.31981e-22)
(0.385073 0.0187181 1.19301e-20)
(0.745087 -0.0480651 0)
(1.01852 -0.000986233 -1.81212e-22)
(1.0099 0.00109604 0)
(1.00873 0.00431886 -2.45075e-22)
(1.00999 0.00105168 0)
(1.03363 0.0045077 2.54501e-21)
(1.01472 0.000302418 4.50076e-21)
(1.05168 0.0535365 0)
(1.01938 -0.00100696 -1.88489e-22)
(0.289231 0.0147927 0)
(0.566217 0.0926539 0)
(1.02092 0.0117883 3.99548e-21)
(1.01001 0.00389959 1.74556e-23)
(1.07752 0.0789981 9.90529e-21)
(1.01018 0.00263036 3.95078e-22)
(0.986321 0.0781505 -3.24914e-22)
(0.40498 0.0237407 3.78892e-21)
(1.0103 0.00258953 -4.03036e-22)
(0.424265 0.0161834 -1.65606e-20)
(1.0161 -0.00326797 4.62208e-22)
(0.763887 0.0892305 -9.32768e-21)
(1.00171 4.59978e-05 2.46466e-22)
(1.0062 0.0213944 3.22172e-23)
(1.00973 0.01086 0)
(1.00942 0.00455859 4.35799e-22)
(1.06382 0.0828685 -1.38106e-20)
(1.0038 0.000135579 9.79543e-23)
(0.960002 0.105811 -2.96475e-21)
(1.0327 0.042079 5.16411e-21)
(0.692662 -0.0665837 3.20681e-21)
(1.02512 0.00765521 -2.66197e-22)
(1.01814 0.141008 0)
(0.267865 0.0103407 1.96444e-20)
(1.00444 0.000158315 -7.14821e-22)
(1.05899 0.063022 -5.32933e-21)
(1.01232 0.00319406 -1.8938e-21)
(1.02441 0.0303886 0)
(1.01182 0.00112167 -1.03794e-21)
(1.02936 0.0280518 3.41352e-21)
(1.01493 -0.00278832 0)
(1.00483 0.000150711 0)
(1.05738 0.0786225 -2.01149e-21)
(0.981744 -0.0276211 -2.4747e-21)
(1.036 0.0580428 -1.24868e-20)
(1.02944 0.0273758 6.75168e-21)
(1.01864 0.00187981 0)
(0.610446 0.0617309 -2.53814e-20)
(0.402857 0.00938665 2.93334e-21)
(1.01031 -0.00111723 -3.01128e-23)
(1.00872 0.00236564 -5.95348e-22)
(1.02515 0.0306661 4.95784e-21)
(1.05469 -0.0147064 2.54946e-21)
(1.08945 0.0795628 4.20222e-20)
(0.580945 0.0811762 2.02814e-20)
(0.619282 -0.0140742 0)
(1.00916 -0.0379556 0)
(1.04749 0.102538 0)
(1.00974 0.00401432 0)
(1.01685 0.0928166 1.51293e-20)
(1.01918 -0.0429825 -2.04805e-21)
(1.07971 0.0894895 -1.26552e-20)
(1.01442 0.000303226 0)
(1.00541 0.0233782 1.63662e-22)
(0.992002 0.153456 5.39949e-23)
(1.00874 0.00582387 -6.62318e-23)
(1.01584 0.0353115 0)
(1.0754 0.0757403 -6.81503e-21)
(1.00343 1.29776e-05 3.78614e-22)
(0.668292 0.0654906 0)
(1.01292 0.00196197 -8.96621e-22)
(1.08678 0.0452918 -1.56423e-20)
(1.01074 0.00402145 4.44641e-22)
(0.445887 0.038448 4.82701e-20)
(1.00733 0.000571286 -2.26916e-22)
(1.03746 0.0559706 -4.89894e-21)
(1.01441 0.0292123 0)
(1.01655 -0.0335177 0)
(1.00467 0.000115371 -3.01145e-22)
(1.07218 0.0700876 0)
(1.00013 0.0908358 0)
(1.01776 0.0180959 5.23006e-21)
(1.00873 0.00542318 1.22612e-23)
(0.556917 0.045221 8.80754e-23)
(0.98987 0.0909964 -3.55229e-20)
(0.813937 0.0556597 0)
(0.736563 -0.0886076 0)
(1.01 0.0023888 0)
(1.01157 0.0122059 -7.61334e-22)
(0.94176 0.08756 0)
(1.04993 0.0994613 -6.8827e-21)
(1.01017 0.00236376 -3.40256e-22)
(1.01295 0.00216131 1.43231e-21)
(1.02106 0.0150199 -3.13047e-21)
(0.999943 0.0423952 -3.0964e-21)
(1.03754 0.0570701 5.60311e-21)
(1.05957 0.0766918 0)
(1.04224 0.085878 0)
(0.984061 0.0740371 -5.29989e-22)
(1.08241 0.0470487 2.71809e-21)
(0.51863 0.0350888 0)
(1.00985 -0.000555589 -1.9183e-23)
(1.0183 0.0182831 3.70341e-21)
(1.01245 -0.00133118 0)
(1.06815 0.0870555 -8.17957e-21)
(1.00288 3.10794e-05 7.8974e-23)
(0.470168 0.0151194 4.65516e-20)
(1.08293 0.0461912 -1.18674e-21)
(0.941397 0.0909458 1.24976e-21)
(1.01831 0.015863 2.30283e-21)
(1.04666 0.0939734 0)
(1.0084 0.00347013 6.26699e-22)
(1.00298 0.156333 9.34227e-22)
(1.02099 0.0024016 -7.65967e-22)
(1.05249 0.0764189 -1.21549e-22)
(1.07492 0.0764206 -5.58657e-21)
(1.01438 0.0285398 0)
(1.02102 0.0122631 0)
(1.06806 0.0973447 -2.79853e-21)
(1.01108 0.00454008 -2.39033e-22)
(0.509377 0.0419075 2.81961e-21)
(1.05765 0.0786339 -1.03432e-20)
(1.02087 0.00249776 2.60737e-22)
(1.01659 0.150141 0)
(1.00867 0.0105668 -2.81476e-22)
(1.0095 0.0365154 -3.68134e-22)
(1.01172 -0.00133875 0)
(0.511731 0.0520158 -2.34009e-20)
(1.00398 0.0405675 5.04946e-22)
(1.0216 0.0260651 6.87242e-21)
(0.816191 0.169435 0)
(0.988375 0.0651757 0)
(1.01726 0.0220968 -9.34505e-23)
(0.663649 0.0601912 -3.9362e-21)
(1.10216 0.0861695 -1.52109e-20)
(1.02282 0.0250503 3.87089e-21)
(1.06286 0.0829671 1.38931e-20)
(1.01266 0.0125924 -3.00569e-21)
(0.983599 0.0622223 0)
(1.0781 0.0893389 2.30359e-22)
(1.01309 0.00173359 2.14133e-21)
(1.05966 0.0315199 -1.46658e-20)
(1.0303 0.0272909 -4.06971e-21)
(1.00963 0.00477288 0)
(1.00832 0.00192689 -1.90463e-21)
(1.00961 -0.000173801 -7.42292e-23)
(0.324798 -0.0789324 0)
(0.977465 0.101199 4.34986e-22)
(1.01833 0.0171261 2.27162e-21)
(1.01 -0.000827012 0)
(1.00946 0.00674516 1.50863e-21)
(1.05358 0.0630977 0)
(1.05377 0.0550359 1.14423e-21)
(1.01031 0.00331645 0)
(1.00512 -0.00073043 8.31961e-24)
(1.0885 0.078956 -2.79001e-20)
(1.04344 0.0942296 0)
(1.00952 0.00486429 9.58434e-22)
(1.02181 0.0256474 9.25824e-23)
(0.77693 0.0194143 4.56415e-21)
(0.821636 0.0976339 1.82286e-20)
(0.990026 -0.0421189 -5.59488e-22)
(1.07154 0.0801085 0)
(1.05445 0.0953623 -1.61094e-20)
(1.01577 0.00320925 2.23496e-22)
(1.01015 0.00308047 4.14325e-22)
(1.01582 0.0337343 -8.54666e-22)
(1.00826 0.00184277 9.43418e-22)
(1.01045 0.00331285 -4.08317e-22)
(1.01029 0.0111858 -1.21428e-21)
(1.01032 0.00308938 -7.43937e-24)
(1.01526 0.00310991 -4.51384e-22)
(0.398081 0.0758598 -9.92565e-21)
(1.01288 0.0131566 3.10848e-21)
(1.02324 0.0554938 0)
(0.306017 0.0176611 -1.76107e-20)
(1.0578 0.0625373 0)
(1.009 -0.000184533 3.42148e-22)
(1.03075 0.00726011 0)
(0.682 0.0680179 3.00118e-21)
(1.01717 0.0354194 -2.94472e-21)
(0.330369 0.00746133 -3.02765e-20)
(1.01061 0.00378681 0)
(1.01985 0.00506995 0)
(1.01154 0.00482867 2.44806e-22)
(1.01212 0.00206299 -8.02291e-22)
(1.01905 0.0256678 1.13972e-21)
(1.00814 0.00985349 -1.10658e-22)
(0.810742 0.0259469 -2.95529e-22)
(1.02078 0.000773759 5.92068e-22)
(0.93569 0.0874134 0)
(1.01952 0.00509907 4.22973e-21)
(1.06773 0.0469951 1.53209e-20)
(1.01933 0.00301301 0)
(1.01176 0.0143882 0)
(1.05211 0.0786231 9.23107e-21)
(0.807083 0.0489118 -1.37794e-21)
(1.02114 0.0145829 0)
(0.665544 0.158016 8.52196e-21)
(1.00895 4.11546e-05 0)
(1.00765 0.000654579 -7.74842e-22)
(1.00945 0.00636293 -8.86819e-22)
(1.00886 0.0111346 -5.24718e-22)
(1.00874 -0.000284517 4.91063e-22)
(1.01026 0.000910976 7.08867e-22)
(0.599732 0.0600411 0)
(0.48364 -0.0288716 3.08517e-22)
(1.00864 -0.000300422 -3.36767e-22)
(1.02847 0.145278 0)
(1.08633 0.0790258 3.13943e-20)
(1.0185 0.000572665 -4.09402e-21)
(1.05794 0.0651334 2.57108e-21)
(1.09592 0.0629559 0)
(0.606523 0.0701398 6.82366e-21)
(1.06265 0.0329317 8.03278e-21)
(0.955428 0.0872557 3.37881e-20)
(1.00762 0.0717254 -8.88577e-22)
(1.01787 0.0605093 8.87894e-22)
(1.00825 0.0104531 6.00089e-22)
(1.00355 -0.0335563 -8.70776e-22)
(1.01825 0.00417234 0)
(1.01697 0.0226179 -1.78194e-21)
(0.991254 0.0734037 6.68477e-21)
(1.00641 0.000165726 3.0905e-22)
(1.01714 0.0137756 0)
(1.01754 0.0186554 -2.08867e-21)
(1.06274 0.0281904 1.88008e-20)
(1.01729 0.0403738 1.78525e-21)
(1.07449 0.0859969 0)
(1.06983 0.061336 -7.53341e-21)
(1.02933 0.00433386 -4.61547e-22)
(1.01074 0.00379311 -3.67578e-22)
(1.01957 0.0175629 2.06457e-21)
(1.02262 0.0669438 3.97751e-21)
(1.01793 0.0168092 0)
(0.616661 -0.0962729 5.19884e-21)
(1.05651 0.0519684 -9.7155e-21)
(1.03382 0.0420621 -5.27413e-21)
(0.527442 0.0240143 -6.95692e-22)
(1.01315 0.00225176 4.29835e-21)
(1.02208 0.0688559 4.56827e-21)
(1.05812 0.077167 -1.23719e-20)
(1.00736 0.000865212 -6.45144e-22)
(0.482297 0.0471442 1.65172e-21)
(1.00767 0.000671821 2.00314e-21)
(1.012 0.00213218 0)
(1.05463 0.0637028 0)
(1.01078 0.0037945 -4.51843e-22)
(1.0072 0.000570409 0)
(1.05668 0.0793398 8.2944e-21)
(0.541208 0.0567131 2.66734e-20)
(0.694537 0.174245 4.01339e-22)
(1.01194 0.00466202 -6.89201e-21)
(1.04362 0.0168053 0)
(1.03015 -0.000632719 7.41464e-22)
(1.01936 0.0681411 -6.21201e-21)
(1.03389 0.085971 7.9583e-22)
(1.01745 0.0158174 2.06471e-21)
(1.01794 0.0149357 1.59328e-21)
(1.01166 0.00415852 2.83317e-21)
(1.0487 0.0685355 -1.53681e-20)
(0.91135 -0.118141 1.07078e-20)
(1.01063 -0.00145369 8.47977e-23)
(1.00347 6.63285e-05 5.8442e-23)
(1.00877 0.00395926 -4.67206e-23)
(1.00965 0.00463723 2.05314e-21)
(1.01222 -0.0157658 0)
(1.04349 0.0429281 0)
(1.00581 0.000175486 -2.87092e-22)
(1.06896 0.0620145 0)
(1.00733 0.00082895 -6.03744e-22)
(1.00971 0.00756123 -1.32115e-21)
(1.03044 0.0266854 0)
(0.576753 0.0671903 0)
(1.00801 4.66324e-05 -1.30267e-23)
(1.05135 0.0238667 0)
(1.01605 -0.00321417 0)
(1.06717 0.0459432 -2.70725e-21)
(1.06017 0.068769 -1.17391e-20)
(0.998711 0.0307484 -9.35315e-22)
(1.04878 0.0720785 0)
(0.981877 0.0953902 -4.47988e-22)
(1.0282 0.0251997 1.29855e-21)
(1.01822 0.0208087 2.02981e-21)
(0.700812 0.0697488 0)
(0.434012 0.0817209 4.31596e-21)
(0.327027 0.022332 1.65996e-20)
(1.01071 -0.00143139 8.81994e-24)
(1.00929 0.00563173 0)
(1.03014 0.00548402 -1.85562e-22)
(1.02136 0.00887122 -2.69831e-21)
(0.870023 0.088864 -2.41792e-20)
(1.01048 0.00284801 2.60162e-24)
(0.806987 -0.16073 0)
(1.03763 0.0366855 -6.1013e-21)
(0.809678 0.0780719 0)
(0.984645 0.0831884 -1.65709e-21)
(1.06039 0.0194518 5.22071e-21)
(0.0706335 0.000221873 -1.71608e-20)
(1.00878 -0.000427646 2.88433e-22)
(1.0911 0.0598391 1.70468e-20)
(1.0047 -5.03226e-05 1.74472e-23)
(1.01934 -0.00653683 0)
(0.769063 0.0742904 1.37637e-20)
(1.01047 0.00355304 0)
(1.08778 0.0882165 -3.11341e-20)
(1.00154 -5.85851e-05 0)
(1.01727 0.000321172 8.86269e-21)
(1.00932 0.0059806 0)
(1.07475 0.0853364 9.65809e-21)
(1.01406 -0.0176834 -4.38477e-22)
(1.00915 0.000735192 -5.75437e-22)
(1.07972 0.0778989 0)
(1.05695 0.0645978 7.48837e-21)
(0.870666 0.156476 2.15522e-21)
(1.03728 0.0961283 1.46211e-20)
(0.625816 0.0632139 -2.22589e-20)
(0.582114 0.0666219 -3.78825e-21)
(1.00798 3.71001e-05 -6.64798e-24)
(0.376612 0.00948342 1.58948e-20)
(1.0029 -9.89823e-05 2.32846e-22)
(0.454611 -0.0482947 -6.19507e-21)
(0.825591 -0.00237328 -7.27207e-22)
(1.01956 -0.00764294 -1.0897e-21)
(1.00794 0.00557192 6.80302e-22)
(1.00162 1.3836e-05 2.1162e-22)
(1.05587 0.0513813 9.22964e-21)
(1.05857 0.0179921 2.33639e-22)
(1.01063 0.00355775 0)
(1.00448 -3.27503e-05 5.98728e-23)
(1.01283 0.000433413 0)
(1.06394 0.0967677 -1.32431e-20)
(1.01302 0.00570525 1.63957e-22)
(1.08132 0.0620406 2.44928e-20)
(1.01674 0.0132951 1.68049e-21)
(1.00894 0.000728136 2.7914e-22)
(1.00307 0.000121629 0)
(1.0604 0.0773985 0)
(0.900912 0.0883641 -1.60149e-20)
(0.251639 0.0459433 -2.6185e-20)
(1.06987 0.0691618 -1.29944e-20)
(1.0444 0.042405 -2.91264e-21)
(1.06414 0.0900119 1.35158e-20)
(0.46057 0.0258005 1.68283e-20)
(1.01215 -0.00145813 3.09008e-22)
(0.912875 0.0645765 3.02423e-21)
(1.01241 0.000228736 -4.99473e-21)
(1.09769 0.0713344 0)
(1.021 0.00902634 0)
(1.07281 0.0968152 5.79773e-21)
(1.00949 0.00434298 -1.00406e-21)
(1.00953 -0.0156907 0)
(1.03273 0.00802068 5.47437e-21)
(0.861293 0.147221 -4.06187e-21)
(1.05378 0.0532635 0)
(0.820897 0.0897934 -8.27541e-21)
(1.00608 0.000105678 -2.55488e-22)
(1.05163 0.0520678 0)
(1.01316 -0.00307463 0)
(1.00113 -2.84203e-05 -1.44529e-22)
(0.533819 0.040707 0)
(0.957208 0.085657 0)
(1.01449 -0.0036784 0)
(1.05922 0.077313 0)
(1.01891 0.0020167 0)
(1.02085 -0.00579612 5.88642e-22)
(1.00145 -3.04999e-05 0)
(0.552678 0.0463567 1.54437e-20)
(1.01326 0.00566763 1.14301e-21)
(1.01266 0.00433827 2.20215e-22)
(1.01033 0.00286756 2.48314e-22)
(1.01403 -0.00341272 2.60546e-22)
(1.06696 0.086462 0)
(1.00173 -1.23546e-05 9.09576e-23)
(1.06143 0.0774369 1.44363e-20)
(1.00375 -2.15843e-05 -1.53491e-23)
(1.00733 0.000734092 9.65007e-22)
(0.377192 -0.0523045 0)
(1.0817 0.0629374 0)
(1.01714 0.0152454 -3.2757e-21)
(0.226063 0.00418027 -4.94537e-20)
(1.08906 0.0876443 3.32353e-20)
(1.02837 0.0641754 -6.90932e-23)
(1.05869 0.0775814 7.18855e-21)
(1.00869 -0.000439444 -6.52176e-25)
(1.00486 0.0255248 -8.34141e-22)
(0.559307 0.0636622 3.44724e-20)
(1.09434 0.087801 1.89447e-20)
(1.01666 0.0335703 8.63214e-22)
(1.01989 0.0266605 3.04559e-21)
(1.00733 -0.0166765 2.64068e-21)
(1.00446 -1.72872e-05 -6.93976e-23)
(1.00912 0.00107921 3.23281e-22)
(1.00518 -0.0440433 -6.17292e-22)
(1.05939 0.0703356 3.26035e-21)
(1.03265 0.0339482 1.24548e-21)
(0.457115 0.0190001 2.83544e-22)
(1.05485 0.053828 0)
(1.06629 0.0789253 1.25334e-21)
(1.00748 0.0778046 8.76221e-22)
(0.979506 -0.0198923 -1.01641e-21)
(1.04137 0.0541043 0)
(1.05882 0.078611 -1.1796e-20)
(0.439619 0.0192011 -1.91561e-20)
(1.0147 -0.00273651 0)
(0.992232 -0.00263461 1.45603e-21)
(1.00825 -0.0484116 7.156e-22)
(1.00734 0.000813511 0)
(1.00618 7.54134e-05 1.74043e-22)
(1.00296 0.000106485 2.66258e-22)
(1.03189 -7.70647e-05 6.79639e-24)
(1.00824 0.000706329 -1.1566e-21)
(0.382954 0.0101651 5.8829e-21)
(1.08026 0.0399747 7.24552e-21)
(1.00663 1.46163e-05 -3.64197e-22)
(1.0754 0.0743823 -6.91696e-21)
(1.00639 0.000110836 3.182e-22)
(0.600879 0.0847017 1.10247e-20)
(1.0164 -0.003406 2.38221e-22)
(1.0101 -0.000881895 6.94989e-24)
(0.507286 0.0521751 1.37466e-20)
(1.06099 0.0670962 -6.96792e-21)
(0.945869 0.0546625 3.30857e-21)
(1.03453 0.0106198 -6.63636e-21)
(1.00988 0.00436756 2.67661e-22)
(1.01119 -0.00178899 0)
(1.04035 0.0140865 0)
(1.05579 0.0401744 -2.10174e-20)
(1.00909 0.00379637 -1.38427e-21)
(0.311977 0.0101526 2.29992e-20)
(1.0323 0.0455464 0)
(0.886196 -0.188898 0)
(0.95923 0.0792731 2.69931e-21)
(0.992217 -0.0059685 1.5963e-21)
(0.625972 0.0638611 -4.13342e-20)
(1.04318 0.0174215 0)
(1.00499 -7.05742e-06 -2.47913e-22)
(1.01355 -0.00334583 0)
(0.422049 0.0269499 0)
(0.748756 0.168568 -4.69598e-22)
(1.0364 0.037843 -6.58348e-21)
(0.335214 0.00958476 1.77712e-20)
(0.847865 -0.0529183 1.02596e-20)
(1.00742 0.000642664 0)
(1.01034 -0.00113088 0)
(1.0183 0.02544 3.17852e-21)
(0.972292 0.0898401 -2.46109e-21)
(1.01391 0.0126264 0)
(1.0528 0.0541264 0)
(1.03952 0.0139221 0)
(1.05081 0.02452 0)
(1.09889 0.0718485 0)
(1.00933 0.00403679 -2.79472e-22)
(1.06031 0.0767639 -8.62186e-21)
(1.07947 0.0410064 0)
(1.01664 0.017744 8.10686e-22)
(1.03168 0.0213295 -1.03014e-20)
(1.00482 -1.51495e-05 0)
(1.05488 0.0397555 1.77947e-20)
(1.01083 0.00435973 0)
(1.09918 0.0871688 1.93318e-20)
(1.02316 0.0308016 -2.00082e-21)
(1.02944 -0.00993441 2.83963e-22)
(0.320638 0.00955426 -1.90203e-20)
(1.00864 -0.00925442 -3.28702e-22)
(0.83959 -0.0962386 0)
(1.0203 0.0260917 -2.69854e-21)
(1.01273 0.0311572 -2.34401e-22)
(1.04145 0.03614 -4.06974e-21)
(1.09528 0.0875323 0)
(1.00481 2.05788e-05 2.95142e-22)
(1.09162 0.057515 0)
(0.934441 0.0864615 7.85221e-21)
(0.892418 -0.114234 0)
(1.02236 0.00895137 5.38354e-21)
(1.02392 0.0311037 2.18477e-21)
(1.0065 0.000376756 0)
(1.01934 0.00689166 -9.39578e-23)
(1.03272 0.00673371 -1.04246e-20)
(0.993667 0.00633163 1.26762e-21)
(1.01966 0.00114898 0)
(1.0617 0.0784927 -3.10271e-21)
(1.0608 0.0774805 9.28588e-21)
(1.00873 -0.000548829 3.94364e-22)
(1.09824 0.088659 2.22889e-20)
(1.06601 0.0237792 0)
(1.06234 0.0289355 -1.82091e-20)
(1.05953 0.0779693 2.19848e-21)
(1.01133 0.0124837 7.64641e-22)
(1.08993 0.0601908 0)
(0.946497 0.112103 0)
(1.00836 0.000371779 -1.83059e-22)
(1.06185 0.0667537 0)
(1.04743 0.0783842 -7.12222e-21)
(1.07799 0.0409608 0)
(1.00894 0.000815443 1.55648e-22)
(1.00869 -9.45345e-05 1.84829e-22)
(1.00915 0.000869948 1.50541e-22)
(0.396843 0.0101339 -2.23424e-20)
(1.03084 0.0200669 0)
(1.01723 -0.00389053 -6.98809e-22)
(1.08517 0.0451863 3.49104e-22)
(1.00917 0.00406883 1.39499e-21)
(1.00929 -0.000317977 0)
(1.05731 0.07609 1.16464e-21)
(0.949016 0.102674 0)
(0.989605 -0.00507034 -2.84043e-21)
(0.795797 0.122786 -1.88939e-20)
(1.00289 0.0418422 -1.10352e-21)
(0.93093 0.0867725 0)
(1.03324 0.00629156 4.84991e-21)
(1.00751 0.00411293 -3.66258e-22)
(1.06403 0.0926671 1.71089e-20)
(1.02082 -0.00828232 7.12522e-22)
(1.02693 0.0172046 6.27279e-22)
(1.00447 9.07935e-05 7.2622e-23)
(1.00614 1.36475e-05 0)
(1.03286 0.0115635 2.01862e-20)
(1.02186 0.0311024 -3.7589e-21)
(0.995758 0.0320024 0)
(1.00894 0.00069063 1.4426e-25)
(1.00331 -0.0132685 0)
(1.00876 0.00254619 -6.31706e-23)
(0.8198 0.0461359 -2.06484e-21)
(1.02093 0.0264065 -3.31802e-21)
(1.06329 0.0320014 9.07967e-21)
(1.01091 0.00402941 4.88566e-22)
(1.06932 0.0707682 0)
(1.00638 0.0226186 0)
(0.76248 0.0778326 0)
(0.985431 -0.00457427 3.8966e-21)
(1.00334 7.98237e-05 0)
(0.57733 0.0759266 1.19065e-20)
(1.03096 0.0221616 0)
(0.381604 0.0167161 -1.59772e-20)
(1.05849 0.0160398 1.89804e-20)
(0.96777 -0.012135 2.63764e-21)
(1.00895 0.00428475 2.42037e-22)
(1.011 -0.0015713 -3.00559e-23)
(1.02212 0.0084666 2.7467e-21)
(0.689393 0.0648755 0)
(1.05296 0.0401585 -1.44791e-20)
(1.03658 0.0647051 -1.66318e-22)
(0.766488 0.0942481 0)
(1.01909 0.00666386 0)
(1.07747 0.0419877 0)
(1.00605 -0.00140865 0)
(1.01969 0.00262538 8.91006e-22)
(0.935182 0.029159 0)
(1.0063 -0.00156091 1.34193e-23)
(0.437599 0.0635039 6.58783e-21)
(1.05318 0.0233835 -9.8322e-21)
(0.96272 -0.00850074 0)
(1.06998 0.0772061 0)
(1.06398 0.0594588 0)
(1.01112 0.000430658 7.01031e-23)
(1.00653 2.28414e-05 1.35978e-22)
(1.04351 0.0881684 0)
(1.00884 -0.000554613 -2.80672e-22)
(1.01609 0.0136254 -3.23117e-21)
(1.02377 0.0244889 -2.0003e-21)
(1.00917 0.00493147 0)
(1.08439 0.0461183 1.85187e-20)
(1.01086 0.000454244 -8.70969e-23)
(0.975524 0.00967037 6.72799e-21)
(1.01604 0.0175538 -8.46677e-22)
(0.452391 0.0142403 0)
(0.369267 0.0157417 1.65488e-20)
(1.03999 -0.0457386 0)
(0.921602 0.0864688 -5.24216e-21)
(0.712899 0.158952 0)
(0.443147 0.0119302 0)
(1.06419 0.0116902 0)
(1.00735 0.000169979 2.92123e-22)
(1.02185 -0.00511256 -2.77832e-22)
(1.02633 0.010424 0)
(1.02707 0.0222815 -2.64821e-21)
(1.01163 0.00438484 1.93906e-21)
(1.05407 0.0405915 6.81499e-21)
(1.01271 0.00695954 0)
(1.05958 0.0457425 6.08434e-23)
(1.01643 0.0141376 4.99013e-21)
(1.08716 0.0958203 -1.59123e-22)
(1.03073 0.0191583 -5.76124e-21)
(1.07787 0.033902 6.60853e-21)
(1.03492 0.0867205 3.98815e-21)
(1.0116 -0.00192051 -2.06121e-23)
(1.02029 0.0535475 0)
(1.03042 0.0223639 -4.08753e-21)
(1.01755 -0.0053269 0)
(1.04675 0.0358973 -1.05026e-20)
(1.01086 0.00450542 4.49667e-24)
(0.620693 0.0646675 0)
(1.05946 0.0713574 3.64972e-21)
(1.01788 -0.0120024 1.38206e-22)
(1.01057 -0.00132905 0)
(1.02489 0.00153367 1.14554e-20)
(1.00883 0.00599434 0)
(1.00873 0.00283764 5.61209e-23)
(0.547734 0.0360777 0)
(1.00739 0.000302883 8.1557e-23)
(0.966125 0.0897266 0)
(1.0095 0.00423746 -1.05887e-21)
(0.98971 0.0741494 1.98453e-21)
(1.00439 0.0184503 2.63572e-22)
(1.0108 0.00626387 -7.91111e-22)
(1.09202 0.0584768 3.1977e-22)
(1.02805 0.00719635 0)
(1.00748 0.000351466 0)
(0.946324 0.11108 -7.13596e-21)
(0.944978 0.0707248 -1.50478e-22)
(1.01527 0.0238227 0)
(1.07127 0.0707022 -1.19232e-20)
(1.00932 -0.000843285 -2.02924e-22)
(0.972358 0.0835496 -5.1136e-21)
(1.01068 0.00493779 2.43998e-22)
(1.00876 0.00326469 -2.92719e-23)
(0.503119 0.0293502 -2.01995e-20)
(1.00566 -5.98611e-05 -1.30816e-22)
(1.03745 0.0189323 -2.50474e-21)
(1.0744 0.073867 2.47498e-20)
(0.487183 0.0235023 1.8699e-20)
(1.01073 0.00531963 8.07531e-22)
(1.04115 0.0395338 0)
(1.06831 0.0945783 -1.6712e-20)
(1.02191 0.0023532 0)
(1.00777 0.00696723 -1.48173e-22)
(1.00919 0.00525215 0)
(1.06948 0.0960086 0)
(1.02388 0.00200777 0)
(1.07979 0.0790887 0)
(1.02672 0.0133946 2.57753e-21)
(0.491116 0.0496143 -1.28823e-20)
(1.00514 0.0207117 0)
(0.930318 0.0887906 4.59932e-22)
(1.00977 -0.00048877 -3.82649e-23)
(1.00802 0.00243668 2.00444e-22)
(1.00474 0.0525627 3.9384e-22)
(1.00868 0.000545101 1.34891e-21)
(1.00968 -0.00888055 1.96078e-22)
(0.748383 0.0738439 -1.10175e-20)
(1.01995 0.0227985 2.67038e-21)
(1.00806 0.00181368 0)
(0.918073 -0.0957858 0)
(1.02165 0.00256353 4.74621e-22)
(1.02281 -0.00486621 1.0864e-21)
(1.06019 0.0699059 0)
(1.02229 0.0243907 0)
(0.853231 0.0887394 1.80312e-20)
(1.02413 0.053961 3.9418e-21)
(1.0938 0.0637055 -1.6402e-20)
(1.05827 0.0786695 -3.1835e-21)
(1.04966 0.0244419 4.67217e-21)
(0.514634 0.0486126 1.56611e-20)
(1.0161 0.0187056 -1.59739e-21)
(1.061 0.0683242 -6.86513e-21)
(1.02138 0.00506439 -5.46468e-21)
(0.341722 0.0191256 0)
(1.00275 0.0636864 1.31873e-21)
(1.03656 0.0102764 0)
(1.01098 0.00507769 -4.98398e-22)
(1.01782 -0.00486185 -6.12005e-22)
(1.01788 0.0160164 -1.00734e-22)
(1.01084 0.00473801 0)
(1.01621 0.00164839 -4.24986e-22)
(1.01838 -0.00188218 -4.2162e-22)
(1.02224 0.00779051 2.64195e-21)
(1.04155 0.0439551 2.46202e-21)
(1.00821 0.000367578 0)
(1.02017 0.0222255 0)
(1.07731 0.0679558 2.53219e-20)
(0.511896 0.0721477 3.47901e-21)
(0.733168 0.0792447 -5.21151e-21)
(1.07436 0.0724603 -1.15595e-20)
(1.00886 0.00640993 0)
(1.01066 0.057161 1.69293e-22)
(1.0123 0.0060604 3.46526e-21)
(1.06426 0.0924016 -1.60831e-20)
(0.909196 -0.0735488 0)
(0.152592 0.00232803 2.55497e-20)
(1.01158 0.00245066 2.47229e-22)
(1.00744 0.000207131 -9.77831e-22)
(1.01558 0.00128159 0)
(1.01321 0.0117043 -1.14185e-21)
(1.01127 0.00238385 2.33848e-22)
(1.01175 0.00482076 2.52376e-22)
(1.01516 0.00669487 0)
(1.04145 0.0553991 5.96747e-21)
(1.00814 0.00191955 1.61563e-21)
(0.448144 0.0697435 0)
(0.975418 -0.0606611 0)
(1.00825 0.00186936 0)
(0.720452 0.070081 0)
(1.02184 0.00521696 5.75002e-21)
(1.00947 0.000106577 -5.30932e-23)
(1.0208 0.00710938 -3.88127e-22)
(0.568189 0.0516863 0)
(1.01899 0.0698213 -4.21766e-21)
(1.003 0.000105931 1.55724e-22)
(0.954964 0.0108011 3.39116e-21)
(1.01367 -0.00274713 0)
(1.01005 -0.000860521 0)
(1.10455 0.0905595 0)
(1.02189 -0.00583209 1.44823e-22)
(0.91205 0.0936812 4.7418e-22)
(1.03836 0.0193808 7.08541e-21)
(0.952566 -0.0118306 8.84766e-21)
(1.00885 1.49613e-06 1.9468e-22)
(1.01902 -0.000369671 -4.0933e-22)
(1.01834 0.0371671 -5.67048e-21)