/*--------------------------------*- C++ -*----------------------------------*\
| =========                 |                                                 |
| \\      /  F ield         | OpenFOAM: The Open Source CFD Toolbox           |
|  \\    /   O peration     | Version:  v2012                                 |
|   \\  /    A nd           | Website:  www.openfoam.com                      |
|    \\/     M anipulation  |                                                 |
\*---------------------------------------------------------------------------*/
FoamFile
{
    version     2.0;
    format      ascii;
    class       volScalarField;
    location    "350";
    object      nut;
}
// * * * * * * * * * * * * * * * * * * * * * * * * * * * * * * * * * * * * * //

dimensions      [0 2 -1 0 0 0 0];


internalField   nonuniform List<scalar> 
13917
(
0.00321673
0.00297015
0.00117151
0.00562505
0.00568476
0.00310755
0.00323517
0.00255958
0.00288799
0.000277255
0.00236034
0.00684779
0.00326158
0.0166115
0.00581097
0.00198499
0.00680918
0.0022914
0.00181532
0.00181069
0.00498926
0.00683648
0.0020236
0.00683604
0.00615907
0.00474499
0.00607401
0.000127083
0.00308288
0.00681103
0.000162079
0.00294025
0.00672413
0.00985195
0.00683299
0.00266122
0.00647578
0.00693481
0.00280211
0.00326974
0.00677735
0.00675101
0.00296879
0.00191726
0.00192879
0.000202394
0.00521284
0.00296635
0.0016749
0.00683091
0.00684811
0.00103015
0.000489721
0.00685326
0.00685037
0.00112174
8.18529e-06
0.00233658
0.00675918
0.000232042
0.00668664
0.00607263
0.00683334
0.00580903
0.00971899
0.00884017
0.00268094
0.00264729
0.00230733
0.00289574
0.00620736
0.00870295
0.00682931
0.00679034
0.00489045
0.00653892
0.0063179
0.00679811
0.00645733
0.00678206
0.00677879
0.00681503
0.00682764
0.00574354
0.00672073
0.00052969
0.00235252
0.00676534
0.00362258
0.0068257
0.00676468
0.00273368
0.00183878
0.00684778
0.00679459
0.00293679
0.00584144
0.0068371
0.00675464
0.00164755
0.00681601
0.00680137
0.00677358
0.00681499
0.00632761
0.00625802
0.00791983
0.00612322
0.0066971
0.0105876
0.00673839
0.0103416
0.00339272
0.00337546
0.00901451
0.00627348
0.00193209
0.00679144
0.00114249
0.00680406
0.00682904
0.00682813
0.00253552
0.00191111
0.00361091
0.00548973
0.00585051
0.00468154
0.00685135
0.00168771
0.00241313
0.000661649
0.0120839
0.00646986
0.00255871
0.0135764
0.00846635
0.00400701
0.00449966
0.00692723
0.017047
0.00681547
0.00595771
0.00681204
0.00682116
0.00645921
0.00596111
0.008887
0.00283525
0.00685411
0.0042522
0.00681361
0.0068154
0.00680376
0.0103578
0.00671415
0.0068083
0.0124668
0.00679497
0.00679849
0.00674314
0.0114283
0.00609958
0.0167063
0.00746659
0.0016028
0.000195028
0.0051281
0.00669062
0.00427917
0.00681779
0.0119403
0.00276283
0.00904153
0.00121565
0.00680243
0.00605407
0.000878396
0.00248989
0.00599474
0.00315521
0.00683054
0.00684979
0.00103117
0.00113553
0.000559366
0.00684915
0.00053223
0.00680523
0.00227354
0.00121598
0.00207337
0.00107201
0.00328982
0.00684627
0.00378909
0.00460043
0.0116442
0.00683395
0.0067601
0.00548423
0.00294805
0.0026966
0.00654158
0.00321852
0.0045794
0.00385124
0.00681495
0.000986253
0.00677996
0.00678144
0.0051714
0.00497829
0.0025358
0.0026241
0.00455071
0.0117596
0.00688105
0.00675469
0.0067534
0.00457682
0.00126841
0.000331349
0.00672245
0.00682646
0.0170762
0.00267522
0.00673404
0.00672964
0.0067679
0.00676504
0.00676385
0.0077392
0.00325287
0.00682453
0.00670085
0.00152111
0.00762577
0.00681377
0.00672218
0.0052193
0.00627462
0.00131956
0.0118266
0.000973666
0.00681128
0.00498802
0.00145645
0.00391433
0.00263806
0.00659229
0.00283749
0.00681107
0.00229521
0.00135856
0.00680695
0.00675821
0.00581427
0.00597705
0.00681014
0.00687363
0.00691069
0.00683502
0.00672539
0.00669473
0.00672551
0.0068104
0.00683487
0.00229257
0.00682218
0.00606218
0.00886971
0.00683186
0.0062549
0.00107716
0.00676015
0.0013291
0.0086525
0.00676063
0.00485868
0.00681803
0.0113003
0.00680351
0.00606045
0.00679591
0.00681306
0.00137974
0.00688051
0.00068782
0.00419269
0.00780546
0.00641808
0.00116211
0.00379268
0.00681009
0.00192411
0.00589237
0.00640606
0.00577028
0.00658746
0.00684333
0.00688421
0.000819877
0.00498723
0.00232822
0.00647576
0.00672194
0.0122178
0.001692
0.00684661
0.0072357
0.00639765
0.00362517
0.00168164
0.00977168
0.0097673
0.00730923
0.000907055
0.00630534
0.00491301
0.00375559
0.00115507
0.00682745
0.00585241
0.00352303
0.00677235
0.00297419
0.00209227
0.00680335
0.011845
0.00672615
0.00213051
0.00680736
0.000338288
0.00672304
0.00247546
0.00453825
0.00631653
0.00681804
0.00263426
0.00498407
0.00681
0.00677461
0.0112354
0.00531416
0.0106543
0.0144891
0.0067502
0.00683371
0.00664042
0.000789647
0.006752
0.00579591
0.00685256
0.00281222
0.0023051
0.00145952
0.000925573
0.00141194
0.00215174
0.00783406
0.00685499
0.00680812
0.00551511
0.0011573
0.00679698
0.00240695
0.0024437
0.011688
0.0068473
0.000891915
0.00765577
0.00382074
0.00672559
0.000560816
0.00138593
0.00425845
0.00683798
0.00247959
0.00679016
0.00697206
0.00107687
0.00671698
0.00203689
0.00672869
0.00579921
0.00678799
0.00231951
0.00913687
0.00656828
0.0172089
0.00150254
0.00665792
0.0112087
0.00103268
0.00664374
0.0013677
0.0068441
0.00144016
0.00116789
0.00672913
0.00304372
0.00657756
0.00680019
0.00672488
0.00685684
0.00835623
0.00127554
0.00683104
0.00685602
0.00685334
0.00199855
0.0026177
0.00679075
0.00669096
0.00170514
0.00086841
0.00682184
0.00659454
0.0109645
0.0201617
0.0109337
0.001724
0.00318638
0.00681859
0.00678038
0.00534985
0.00672266
0.00679031
0.00681212
0.00678101
0.00681955
0.00443034
0.00684194
0.00259717
0.00719565
0.00200096
0.00678752
0.00681056
0.0113658
0.00547926
0.00252999
0.00680291
0.00674023
0.0067833
0.00677525
0.00649492
0.00669021
0.0108334
0.00688076
0.00678637
0.00674024
0.00270504
0.00722927
0.00678798
0.00101589
0.0107779
0.00685352
0.0205342
0.00679541
0.00676089
0.00685356
0.00672515
0.00676785
0.00680921
0.012324
0.0076016
0.00676168
0.000867109
0.00173212
0.00679674
0.00183692
0.00200569
0.0104754
0.00277861
0.00626612
0.0102961
0.00914147
0.00668472
0.00790097
0.00743681
0.00661431
0.00667798
0.00677668
0.00685719
0.00679274
0.00319839
0.00510076
0.00128177
0.00233858
0.00649903
0.00611368
0.00236189
0.00171526
0.00683039
0.0173469
0.00262498
0.00405497
0.0075809
0.00672106
0.00147996
0.00102445
0.00671905
0.012773
0.00676977
0.00677516
0.00180426
0.0068028
0.00684388
0.000935755
0.012813
0.0199122
0.00673901
0.00486725
0.00658905
0.00531118
0.00542749
0.00684176
0.00685187
0.00673295
0.00157475
0.00718781
0.00685577
0.00681357
0.0067701
0.00678946
0.00612424
0.00328376
0.006788
0.0023728
0.00671897
0.00685113
0.00659212
0.00987534
0.00670981
0.00397126
0.00680873
0.00232535
0.00185684
0.00261852
0.00138839
0.00139678
0.00668677
0.00235723
0.0111477
0.00429581
0.00897487
0.00683997
0.0068558
0.00651592
0.00678456
0.00967233
0.00677163
0.00613088
0.00417076
0.00945207
0.0012133
0.00328706
0.00112668
0.00676348
0.00187747
0.00685586
0.00663081
0.0086387
0.00679884
0.00110375
0.0068261
0.00681644
0.00685581
0.00135198
0.006084
0.00671186
0.00190339
0.00210351
0.00989485
0.00430067
0.0121041
0.00974424
0.00671035
0.00285116
0.00680681
0.00801943
0.00958229
0.0065408
0.00828344
0.00681669
0.00236804
0.00320461
0.00679884
0.00685284
0.00683119
0.00323551
0.00674872
0.00248216
0.00685517
0.00670906
0.00681867
0.00032133
0.0090692
0.000772905
0.00241366
0.00327052
0.00122558
0.00831525
0.00679902
0.00906376
0.0068226
0.00210467
0.00678632
0.0019175
0.00678349
0.00606867
0.00682545
0.00866528
0.00239877
0.0106255
0.00679047
0.00238628
0.00683989
0.0067996
0.00862218
0.00158482
0.00681492
0.00140237
0.00672194
0.0066778
0.00681509
0.00993634
0.00674834
0.0059121
0.00677146
0.00682866
0.00114845
0.00680997
0.00163268
0.00681744
0.00672108
0.00689753
0.00252578
0.00684545
0.000493048
0.00108685
0.00294629
0.00107777
0.00675804
0.00537212
0.00866959
0.00109413
0.00553359
0.00647093
0.00604176
0.00683115
0.00685373
0.0101198
0.00169044
0.00534744
0.00592861
0.00224562
0.0023407
0.00673426
0.00592823
0.00246936
0.00134496
0.00588776
0.00684325
0.00557846
0.0102243
0.00672125
0.00681582
0.00682364
0.00645939
0.00683921
0.00304467
0.00224582
0.00677283
0.00223424
0.00679379
0.0105723
0.00681975
0.00685364
0.0129423
0.00205193
0.0111927
0.00683168
0.00679969
0.00685409
0.00572438
0.00275196
0.00682121
0.00307513
0.00384764
0.0110854
0.0119756
0.00556159
0.0120652
0.00495333
0.00686888
0.00683258
0.0094425
0.0189086
0.00445228
0.00325193
0.0047098
0.00672553
0.0068515
0.00649427
0.00579376
0.0089443
0.00247432
0.00586735
0.00378351
0.002046
0.00642064
0.00148618
0.00222139
0.00680115
0.00663034
0.00684506
0.00290937
0.00612637
0.00107444
0.00633434
0.0063519
0.00316712
0.00701781
0.00487379
0.00653533
0.00359493
0.00399299
0.0010862
0.00683129
0.00214355
0.00847342
0.0129507
0.00678786
0.00632694
0.00690337
0.00675711
0.00681916
0.00519614
0.00709448
0.000663342
0.00163609
0.0067542
0.000825122
0.00269066
0.00292766
0.00144688
0.00682037
0.00220854
0.00111194
0.00670412
0.00203455
0.00106549
0.00229051
0.00682216
0.00677192
0.00685574
0.00203305
0.00679926
0.006793
0.00225618
0.00682819
0.00680665
0.00119405
0.000853317
0.00464174
0.0205858
0.00297225
0.00682976
0.00681712
0.00623329
0.000324274
0.00653988
0.00602414
0.00681434
0.00680675
0.00683721
0.00624328
0.00225209
0.00682237
0.0121216
0.00679285
0.0092355
0.00652662
0.00285936
0.00680421
0.00258014
0.00601938
0.0112716
0.0040801
0.00680837
0.00958399
0.00676566
0.00605884
0.00323924
0.00383594
0.00650672
0.00682921
0.00678055
0.0106173
0.00298964
0.00279162
0.0209209
0.00675413
0.00224771
0.00669815
0.0062127
0.00503814
0.0067075
0.00492614
0.00365383
0.00376373
0.00197442
0.00416839
0.00674027
0.00681104
0.000904697
0.00675986
0.00685511
0.00668182
0.00685796
0.00221993
0.00673692
0.0021138
0.0068033
0.00286077
0.00584092
0.00295167
0.00710621
0.0209011
0.00193307
0.00366542
0.00672263
0.00669768
0.00682082
0.00676416
0.00673631
0.00304003
0.00677557
0.0023245
0.00685587
0.000899288
0.00681114
0.00228045
0.000941726
0.00684931
0.00278067
0.00670317
0.00659746
0.00388321
0.00679293
0.012167
0.00183241
0.0111531
0.00684907
0.00674409
0.0068039
0.00678307
0.00800059
0.0067249
0.00139322
0.00677442
0.0112131
0.00611792
0.00680044
0.00214318
0.00599138
0.00672796
0.0122747
0.00814136
0.00647115
0.00261717
0.00676448
0.00159114
0.00671628
0.00678175
0.00621522
0.00682348
0.00577453
0.00226634
0.00527171
0.0067546
0.00394271
0.00164532
0.00671121
0.00660302
0.00685753
0.00236204
0.00674058
0.00178382
0.00684501
0.0128416
0.00605833
0.00911252
0.00685335
0.00678352
0.0101093
0.0068766
0.00696067
0.0102625
0.00668413
0.00673249
0.00516971
0.00670807
0.00669973
0.00179738
0.00665977
0.0100391
0.00285789
0.00210136
0.00102162
0.00420308
0.0126933
0.00677033
0.00188919
0.00674508
0.00750291
0.0102144
0.00672541
0.00673273
0.00669941
0.00684094
0.00677947
0.00682544
0.00683154
0.0067723
0.00333762
0.00670408
0.00671887
0.00278365
0.00678777
0.0114633
0.00242508
0.00680193
0.00912296
0.00676026
0.000489471
0.00686428
0.000210336
0.00677333
0.00672481
0.00676394
0.0068562
0.00676824
0.00678292
0.00675692
0.00239001
0.00673273
0.000837597
0.00445906
0.00675928
0.0110013
0.00674749
0.00685437
0.00615128
0.0103935
0.00159634
0.006796
0.0102482
0.0068466
0.00685272
0.000299214
0.00667781
0.014974
0.00593946
0.00169794
0.00678558
0.00682557
0.00545135
0.00455495
0.00670446
0.00970451
0.00592539
0.00693025
0.00653895
0.00674826
0.00676569
0.00227041
0.00216572
0.00536857
0.0106625
0.00135262
0.00474264
0.00216397
0.00683382
0.010027
0.00682733
0.0107294
0.00145381
0.00288121
0.00673286
0.0109355
0.0199751
0.00201271
0.00660939
0.00551453
0.00678041
0.00677474
0.00215597
0.00680822
0.00684231
0.000181889
0.00485414
0.00682648
0.00241601
0.00742373
0.00681656
0.00674888
0.00736343
0.0115024
0.00678349
0.00680235
0.00315646
0.00680801
0.00685286
0.00519537
0.00619645
0.00681112
0.0105274
0.00651328
0.00445897
0.00590545
0.00598336
0.00784079
0.00683116
0.00681599
0.0100225
0.0051383
0.00424931
0.00832318
0.00527526
0.00547716
0.00519606
0.00678159
0.011356
0.00635334
0.00674004
0.00240289
0.00680501
0.0126932
0.00235932
0.00183985
0.00212631
0.000533411
0.00867005
0.0101884
0.0123297
0.0069291
0.000767437
0.00675407
0.00151798
0.0014213
0.00546306
0.00397913
0.00662975
0.00431713
0.00216987
0.00665771
0.0102158
0.00253612
0.00105142
0.0105851
0.00679972
0.00212241
0.00660775
0.00685709
0.0059732
0.00488171
0.00679556
0.00674695
0.00661792
0.00381358
0.00673757
0.00668389
0.00344645
0.00676919
0.00684744
0.000937326
0.00211944
0.00673802
0.00684515
0.00204712
0.0088491
0.00318476
0.0126673
0.0068343
0.00674336
0.0200265
0.00679093
0.0066426
0.0122885
0.00855256
0.005612
0.00153951
0.00606573
0.00191859
0.00150191
0.00526297
0.00524826
0.0068522
0.00147924
0.00836423
0.00111909
0.00773786
0.00218119
0.0068185
0.00685125
0.00683613
0.00684878
0.00684641
0.00109401
0.0068298
0.00213843
0.00672331
0.00211565
0.0112352
0.00665612
0.0061829
0.0209588
0.00674786
0.00233021
0.00612247
0.00670749
0.0067615
0.00967256
0.00246892
0.00607089
0.00595676
0.00526264
0.00102941
0.006786
0.003078
0.00252217
0.00717398
0.00680821
0.000721115
0.00676094
0.00623959
0.00477799
0.00623638
0.00533164
0.00241028
0.00774579
0.00674643
0.000809173
0.00188276
0.00685775
0.00675763
0.006224
0.00216951
0.000343603
0.00681774
0.00232758
0.002122
0.00404836
0.00267043
0.00683809
0.00672521
0.00681641
0.00674759
0.00697438
0.00651781
0.00235056
0.00677247
0.00370605
0.00515912
0.00266575
0.00245203
0.0117038
0.00531995
0.00682854
0.00680286
0.00672051
0.00673051
0.00198849
0.0116329
0.0111671
0.000961318
0.00553682
0.00233687
0.00336783
0.00442619
0.00628501
0.0019586
0.00685006
0.00191282
0.00538743
0.00679842
0.00682808
0.0119744
0.00208881
0.00551926
0.00637496
0.000908863
0.0068516
0.00122325
0.00694293
0.0067246
0.0100673
0.0123476
0.00684821
0.00562153
0.0019932
0.00512892
0.00659603
0.00673511
0.00676191
0.00678352
0.00674985
0.00320222
0.00184475
0.00509451
0.00469783
0.00352621
0.00251174
0.00104179
0.00684171
0.00509077
0.000510965
0.00105043
0.008037
0.0066937
0.00673422
0.00814632
0.0067351
0.00263415
0.00569917
0.00253767
0.00683929
0.00673923
0.000255736
0.00396922
0.00670991
0.00674166
0.0118505
0.000128483
0.00807265
0.00681844
0.0068576
0.00403059
0.00680403
0.00681791
0.000919787
0.00983402
0.00597391
0.00240763
0.00680447
0.00341631
0.00672829
0.00640117
0.00509415
0.00673053
0.00103541
0.00673213
0.00677699
5.07655e-05
0.00241345
0.00965961
0.00110589
0.00672222
0.00316518
0.00680536
0.00684962
0.00653113
0.00680313
0.00685222
0.00116048
0.0068359
0.00162038
0.00603384
0.00694803
0.00681268
0.00794244
0.00685251
0.00979637
0.00679632
0.00248962
0.0026772
0.00683773
0.00244144
0.00244112
0.00292204
0.00685192
0.00617462
0.00676334
0.00680038
0.0125322
0.00339251
0.00632165
0.00681253
0.00684542
0.00679796
0.00238318
0.00680032
0.0118404
0.00208442
0.00682339
0.00672173
0.00676813
0.0020541
0.00409439
0.0204641
0.00605246
0.012353
0.00669631
0.000989681
0.00652436
0.0102934
0.00672421
0.0067918
0.00573817
0.0122341
0.00677297
0.0115475
0.00685839
0.00681408
0.000864294
0.000595311
0.00186199
0.0125459
0.00403295
0.000993778
0.00394214
0.00682413
0.0104434
0.00674724
0.00680286
0.00457997
0.00675017
0.0119443
0.0106069
0.00676897
0.00677883
0.00682602
0.0111845
0.00681722
0.00673578
0.00272897
0.00672432
0.00680033
0.0067975
0.00682141
0.00232913
0.00683724
0.00641184
0.00671857
0.000793806
0.00469704
0.00672044
0.00672203
0.00678929
0.00672167
0.00361489
0.00680879
0.00682616
0.00683596
0.00675176
0.00675874
0.00682753
0.00231431
0.0067701
0.0023144
0.00684403
0.00274563
0.0068113
0.00685147
0.00681437
0.00679752
0.00463718
0.00611216
0.00299435
0.0106755
0.00517068
0.0125608
0.0117229
0.00259747
0.00727785
0.00685105
0.00682067
0.000597948
0.0109238
0.00680364
0.00792838
0.00678525
0.0018215
0.00334832
0.00386896
0.00217764
0.0195403
0.0174749
0.00680875
0.0023326
0.00676458
0.000348327
0.00388076
0.0122387
0.00233702
0.00685135
0.00487452
0.000401245
0.00680973
0.00484592
0.0126608
0.00665016
0.00672016
0.0122212
0.00896919
0.00682297
0.00251353
0.00683007
0.000559147
0.000879753
0.00685633
0.00681944
0.00115833
0.00684771
0.00674718
0.00596037
0.00675181
0.00234396
0.00573685
0.0030407
0.0106493
0.00674977
0.00238087
0.00682551
0.0123319
0.0016378
0.00283416
0.00680479
0.00306862
0.00680605
0.0068261
0.00341091
0.00684645
0.00646645
0.00673743
0.00676268
0.00674565
0.0119271
0.00672112
0.0126686
0.00949353
0.00528115
0.00684891
0.00683138
0.00673524
0.00399608
0.0068467
0.0046498
0.00681589
0.00817361
0.00666936
0.00659544
0.000452081
0.00685607
0.00682499
0.00843334
0.0019558
0.0115322
0.00674132
0.00861484
0.0203592
0.00685707
0.00942137
0.00685265
0.00624133
0.00533457
0.00657844
0.0033479
0.00581481
0.00557373
0.0024114
0.00680375
0.00266332
0.00675019
0.0117042
0.00673134
0.00472503
0.00675196
0.00675141
0.00653903
0.007517
0.0068367
0.00556918
0.00133641
0.0190418
0.00675936
0.0056925
0.0100463
0.00278437
0.00277042
0.00138902
0.00681286
0.00167592
0.00639554
0.00649196
0.00203706
0.0067879
0.00124581
0.00253727
0.00684437
0.00273465
0.00672186
0.00780908
0.00207437
0.00655148
0.00646498
0.00886861
0.00547689
0.00673762
0.00576656
0.00675836
0.00685659
0.0075242
0.00143122
0.000320866
0.00683032
0.00405802
0.0120812
0.00637365
0.00400751
0.00194667
0.00672062
0.00673874
0.00119206
0.0109407
0.00589224
0.00369867
0.00113915
0.00459187
0.00398105
0.010843
0.00943217
0.0078024
0.0067203
0.00166893
0.00207577
0.00123662
0.00682217
0.00292856
0.00148177
0.00176208
0.00484925
0.00669764
0.00275309
0.0103679
0.00426009
0.00673798
0.00674138
0.00288965
0.00684191
0.0124112
0.0042291
0.00657956
0.000608287
0.00106965
0.00672005
0.00242739
0.00257178
0.00682568
0.0110976
0.00641187
0.0116984
0.00684453
0.0102704
0.000202204
0.0011318
0.00679946
0.00612577
0.00551646
0.00105317
0.000903579
0.00263277
0.00749542
0.00228282
0.00672614
0.00558845
0.00667491
0.00174645
0.00259927
0.00679373
0.00671783
0.00673312
0.000848671
0.00047545
0.00684531
0.00194816
0.000647484
0.00672786
0.00215417
0.00651621
0.0100931
0.00596925
0.0135853
0.00504935
0.003075
0.00641854
0.00160484
0.00675936
0.00404367
0.00833046
0.00365932
0.00155663
0.00225443
0.00240951
0.0107643
0.0089261
0.00680075
0.011499
0.00184215
0.00674887
0.0016953
0.00181856
0.000841179
0.00537544
0.000262283
0.00406508
0.00110691
0.0089466
0.00583564
0.00207613
0.00681838
0.00683404
0.00684078
0.00675692
0.000354146
0.00184932
0.00679545
0.00292879
0.00131969
0.00675511
0.00846299
0.0104022
0.00681282
0.00684842
0.00682234
0.00674353
0.00237202
0.00675077
0.00529516
0.00281809
0.00156046
0.00617801
0.00125447
0.00407147
0.0041072
0.00184063
0.00682876
0.00672911
0.00679334
0.00684165
0.0108999
0.0022332
0.00574947
0.00528198
0.00682524
0.0068095
0.0053254
0.00679187
0.00683272
0.001282
0.00413304
0.00777462
0.0104514
0.0092285
0.00679749
0.0112354
0.00675855
8.55676e-05
0.00671867
0.00157396
0.010816
0.00676891
0.000794683
0.00722803
0.00527291
0.00682674
0.00679019
0.00592231
0.0102834
0.0067481
0.00683713
0.00688194
0.00694291
0.00115657
0.00682959
0.00431727
0.00672055
0.00685623
0.00198133
0.00262497
0.00648568
0.00174409
0.00301218
0.0120641
0.015868
0.00689792
0.00675154
0.00820742
0.00683262
0.00238384
0.00681424
0.00677215
0.00673276
0.00680152
0.00545042
0.0113386
0.00673517
0.00680667
0.00672024
0.00155888
0.00105141
0.000939042
0.00673476
0.00652271
0.00673731
0.0103579
0.00682717
0.0023997
0.00239809
0.00682444
0.000470773
0.00398187
0.0122533
0.0046799
0.00681985
0.00404538
0.00402424
0.000891213
0.00683916
0.00682786
0.00675019
0.0111967
0.00678707
0.00682362
0.00888023
0.00666913
0.00619252
0.00415113
0.00684919
0.00683453
0.012669
0.00350078
0.0197578
0.0111978
0.00673011
0.017044
0.00683882
0.00117283
0.00184101
0.00680425
0.00680072
0.00672675
0.00675072
0.000595021
0.00228722
0.00954994
0.0104006
0.00676925
0.00679963
0.00433117
0.00106012
0.00676497
0.0134919
0.0088379
0.00586362
0.00678477
0.00577468
0.00682547
0.00387445
0.0108922
0.00657863
0.00674646
0.00282306
0.00524317
0.00683638
0.00559556
0.00667022
0.00186152
0.000416153
0.0067218
0.0115495
0.00573203
0.00673624
0.0084226
0.00243886
0.0180624
0.0113516
0.00533865
0.00620024
0.00684761
0.00606114
0.00680974
0.00247727
0.00365547
0.00682463
0.00404262
0.00120082
0.00993718
0.00674374
0.000914417
0.0115808
0.0151021
0.0068035
0.00682826
0.0126155
0.00346234
0.00279521
0.00683572
0.0127056
0.00214027
0.00675064
0.00500563
0.00599799
0.00684795
0.000793
0.0068601
0.00602841
0.00682545
0.00670312
0.0068473
0.00672082
0.0091757
0.00679535
0.00673279
0.00216634
0.00305593
0.00642506
0.0016334
0.00685561
0.00673733
0.00669666
0.0067723
0.0125612
0.0125075
0.000167048
0.012218
0.00418065
0.0071781
0.00488263
0.0117804
0.0119888
0.0101882
0.00677466
0.00558606
0.00676715
0.00685956
0.00684312
0.00665432
0.00119341
0.00230786
0.00466225
0.00675235
0.00673819
0.00211841
0.00684025
0.00683417
0.00685787
0.0110111
0.00390045
0.00169281
0.00679105
0.0125661
0.00682357
0.00681007
0.00678226
0.00235835
0.00677077
0.00160825
0.0104314
0.00437051
0.00766618
0.0122645
0.00684141
0.00387526
0.007096
0.000965792
0.00680474
0.00684111
0.00673226
0.0103779
0.00670672
0.00296323
0.00498095
0.00165852
0.0113123
0.00519789
0.00256935
0.0110152
0.00682335
0.00671077
0.0071653
0.00381541
0.00681352
0.00680163
0.0047497
0.0067209
0.000768762
0.00684605
0.00683082
0.00628549
0.0068011
0.00160779
0.0103759
0.00850538
0.00404896
0.00681281
0.00116786
0.00675258
0.00109853
0.00675207
0.00161328
0.00231601
0.00683301
0.00684946
0.00673961
0.000887737
0.00421149
0.0011522
0.00282077
0.00427824
0.005195
0.00258455
0.00195435
0.00771015
0.00676149
0.0108439
0.00678277
0.0108388
0.000351499
0.0103746
0.00846836
0.00681525
0.00169823
0.00601817
0.00685568
0.00559592
0.00685089
0.00681442
0.00356188
0.00681362
0.00263421
0.000490801
0.00133151
0.0056783
0.00425691
0.00451892
0.00674749
0.00680256
0.00682273
0.000838502
0.00240524
0.0110546
0.00199197
0.00679865
0.00675561
0.00679015
0.00103913
0.00648532
0.0067252
0.00599948
0.0014184
0.00258434
0.00414811
0.00393639
0.0115076
0.00436302
0.00257481
0.00676358
0.00307
0.00104294
0.00382917
0.00401398
0.00679413
0.00911318
0.00269726
0.00682818
0.0019271
0.0115254
0.0141222
0.00520257
0.00672286
0.00981104
0.00682908
0.00672843
0.00680202
0.00512406
0.00214678
0.00684076
0.00574675
0.00789191
0.0068652
0.0040917
0.00152048
0.0120802
0.00420746
0.0108174
0.00682079
0.0033853
0.00649617
0.00932231
0.00270097
0.00683362
0.0121428
0.00676135
0.00678038
0.020348
0.0042881
0.00331641
0.000989046
0.00332765
0.00581953
0.00332311
0.00682304
0.00673011
0.00679424
0.00204512
0.00676167
0.00452749
0.00392606
0.0127791
0.00163017
0.00640434
0.00580286
0.00684406
0.0115277
0.00809328
0.00679598
0.00684203
0.00313276
0.00120103
0.00119431
0.00166859
0.0112371
0.0109565
0.00299694
0.00664898
0.00343196
0.00689454
0.00431741
0.000714059
0.00685902
0.00685904
0.00678662
0.0067548
0.00673288
0.0024744
0.00855847
0.00471595
0.0128256
0.00333648
0.00272005
0.009999
0.0119177
0.00580456
0.0109251
0.00152316
0.0024564
0.00671711
0.0068534
0.00263037
0.00602238
0.00669205
0.0106575
0.0121869
0.00679435
0.00682452
0.00676245
0.00103853
0.00681446
0.00156884
0.0108294
0.0067406
0.00672262
0.00678073
0.0067967
0.00214203
0.00989276
0.0048599
0.00457615
0.000927484
0.00674961
0.010683
0.00086611
0.00681266
0.000279614
0.00124159
0.0110931
0.00266711
0.0075263
0.00686085
0.00288337
0.010349
0.000992011
0.00519466
0.00684568
0.00664058
0.00654753
0.00380521
0.00705972
0.00157916
0.00684352
0.00428483
0.0103901
0.0100522
0.00666327
0.00808327
0.0126718
0.0118638
0.00683222
0.00590602
0.00114214
0.00673454
0.00673351
0.0101221
0.00675667
0.00107316
0.0110778
0.00734858
0.00676556
0.0012934
0.00151489
0.00682257
0.00677692
0.0137655
0.00642307
0.00679413
0.00389466
0.00130337
0.00106717
0.0117145
0.00447796
0.0060854
0.0105128
0.00996247
0.00274898
0.00672054
0.00238552
0.00671417
0.00679256
0.00755901
0.00473643
0.00114632
0.00398813
0.00618844
0.0068405
0.00675059
0.00651146
0.00632078
0.00807188
0.00405074
0.00196838
0.00306503
0.00230822
0.00220249
0.0105353
0.00890586
0.00873616
0.00674007
0.00376149
0.00271528
0.0060852
0.00103631
0.0131638
0.00680817
0.00232965
0.00926139
0.00611915
0.00227763
0.00220593
0.0021054
0.00194612
0.00537765
0.00176824
0.00162922
0.00149263
0.00135301
0.00189309
0.00204687
0.00605064
0.0067254
0.00258619
0.00229397
0.00676564
0.000364829
0.0110354
0.000566786
0.0120441
0.00676307
0.00680155
0.0032212
0.00716556
0.00624257
0.00653791
0.00230864
0.00557441
0.011596
0.00684979
0.00483729
0.00431203
0.00301356
0.0101624
0.00337019
0.000439446
0.0101523
0.00207576
0.0112122
0.00121573
0.0138742
0.0114805
0.006689
0.00977804
0.0109283
0.0067579
0.00131402
0.000956065
0.00624581
0.006823
0.00148726
0.00326514
0.0068335
0.00683536
0.0109269
0.000339132
0.00114361
0.00685206
0.00118246
0.0013165
0.012245
0.00748532
0.00681686
0.00673314
0.00645888
0.00691036
0.00939779
0.000967455
0.0111953
0.00244484
0.000374955
0.00718926
0.00692243
0.00672955
0.00992591
0.00684249
0.0108158
0.00682848
0.0114811
0.00622751
0.00676862
0.00202006
0.00678084
0.00189663
0.0127767
0.00683501
0.00657901
0.00603565
0.00123157
0.00772985
0.000940064
0.0120055
0.00696259
0.00687379
0.00314534
0.00115291
0.0104442
0.00560524
0.0009446
0.00110155
0.00172813
0.00503681
0.00701354
0.00683874
0.00674457
0.00671767
0.000248607
0.00236094
0.0127433
0.00431638
0.00147582
0.00680893
0.0107173
0.00306458
0.00295733
0.00673317
0.00581411
0.00670762
0.0111748
0.00642631
0.0107806
0.00028666
0.0017667
0.000634044
0.00673584
0.00246251
0.000950059
0.000192029
0.00025585
0.00675821
0.00162026
0.00681492
0.00677028
0.0010604
0.0153663
0.00249907
0.00683804
0.00101634
0.000697311
0.0101673
0.00365223
0.00931808
0.00752704
0.00684296
0.00167413
0.00683525
0.00156924
0.00684624
0.000890859
0.00661749
0.00183157
0.0133646
0.0107506
0.00691912
0.001397
0.0110517
0.00184159
0.00657476
0.0208678
0.00198852
0.00683006
0.00672398
0.00727205
0.00345676
0.000839551
0.000138327
0.0138777
0.00491701
0.00685662
0.00858596
0.0104193
0.00658439
0.000596215
0.00278506
0.00194813
0.00213507
0.00843079
0.00322916
0.0065794
0.000766707
0.00378237
0.000580946
0.00594792
0.00543046
0.000561188
0.00127885
0.00286846
0.00373563
0.00649631
0.00856887
0.000934628
0.0023538
0.00215
0.00672173
0.0067113
0.00954832
0.00959699
0.00599963
0.00681811
0.00361851
0.00559728
0.00751871
0.00239056
0.0107986
0.00620881
0.0105033
0.000867371
0.000709068
0.00681217
0.00044525
0.00649744
0.00694153
0.00242947
0.00674841
0.00422682
0.00682595
0.0106772
0.00678908
0.0068052
0.0113338
0.00371104
0.00671653
0.0108838
0.006789
0.00685211
0.00675592
0.00683546
0.00683417
0.000365775
0.0120003
0.00677424
0.0104925
0.00263395
0.0023158
0.00179688
0.00238418
0.00614048
0.00237575
0.0067215
0.0115157
0.00504843
0.0101187
0.00692101
0.00599104
0.000797405
0.00146861
0.00178172
0.0101548
0.00672268
0.00657866
0.00172339
0.00229338
0.00450236
0.00682695
0.00502394
0.001165
0.00681496
0.00365828
0.00672312
0.00774755
0.00151012
0.0100209
0.00126115
0.00131603
0.0111963
0.00685297
0.00684623
0.0026786
0.00670003
0.00683956
0.00684003
0.00601492
0.00680369
0.00673212
0.00674324
0.00427956
0.00665355
0.00599252
0.00685249
0.0044501
0.00208196
0.00659891
0.00795435
0.0065421
0.00675272
0.0022106
0.00231674
0.00689247
0.00681156
0.0086332
0.00334619
0.00925404
0.00338253
0.00107515
0.00673975
0.00685748
0.00150426
0.0118177
0.00272295
0.00497544
0.00671996
0.0122848
0.00682984
0.00673208
0.00261156
0.00388574
0.00103636
0.0111652
0.0021
0.00115508
0.00355186
0.00489333
0.00686027
0.00684553
0.00134181
0.0105866
0.00253924
0.00110602
0.00850792
0.00595543
0.00683804
0.0030365
0.00117564
0.00223465
0.00681958
0.00204388
0.00214487
0.00179867
0.00683091
0.00680859
0.00113822
0.00159391
0.00141166
0.00601384
0.00655345
0.00247132
0.00683578
0.00233078
0.00531975
0.00685433
0.00109479
0.00882848
0.00121327
0.00156072
0.00680228
0.00685907
0.00672473
0.0108755
0.00110345
0.0066068
0.00154869
0.0018884
0.006833
0.00686056
0.000727612
0.0105988
0.000629144
0.0105219
0.000957459
0.00247853
0.000142148
0.00173889
0.00256609
0.0132549
0.0023223
0.0161037
0.00682657
0.00213349
0.00159562
0.00678216
0.0118755
0.00282023
0.00212279
0.00602501
0.00146663
0.00680219
0.00642185
0.00318353
0.00671882
0.00684197
0.00674811
0.00673777
0.00677359
0.0068179
0.00337653
0.0068561
0.00679016
0.0125603
0.0025531
0.00656517
0.00168869
0.00579095
0.00707552
0.00674155
0.00238883
0.00607954
0.00259788
0.00680713
0.00679251
0.00121569
0.000619102
0.00684163
0.00683262
0.000914607
0.00352682
0.000973197
0.00173408
0.00684464
0.00172569
0.0034944
0.00679055
0.00121965
0.011192
0.0068835
0.00167542
0.00683444
0.00288752
0.0068404
0.00600131
0.00676455
0.00679694
0.00495478
0.00184012
0.000307194
0.00181863
0.00682115
0.00580164
0.0113933
0.00355985
0.00122787
0.00205519
0.0068131
0.0016105
0.00581069
0.00113878
0.0182848
0.00614857
0.00943171
0.0126723
0.00556066
0.0068404
0.00109206
0.00679623
0.00229492
0.0122001
0.00685528
0.00520446
0.00684764
0.0114757
0.00275289
0.00636637
0.00186863
0.0112273
0.0152493
0.00414181
0.0020612
0.00282416
0.00671601
0.0117593
0.0067267
0.00507171
0.00674756
0.00633253
0.0104023
0.00274918
0.00680112
0.00539762
0.000249989
0.00685305
0.00683711
0.00354063
0.00628302
0.00681498
0.004173
0.00643183
0.00682329
0.00677263
0.00254311
0.00200314
0.00120867
0.00672567
0.00248033
0.00990906
0.00551639
0.00674312
0.00685795
0.00286991
0.00225436
0.00680482
0.00679679
0.00679113
0.00683897
0.00617911
0.00309288
0.00690702
0.0026111
0.0066364
0.00674576
0.00662795
0.00277677
0.00192038
0.00194538
0.00680811
0.00578277
0.00909114
0.00564459
0.00310555
0.00553401
0.0102004
0.00209015
0.00217906
0.00134086
0.00685666
0.0105857
0.00600167
0.00283865
0.0067399
0.0067231
0.00155773
0.00671878