/*--------------------------------*- C++ -*----------------------------------*\
| =========                 |                                                 |
| \\      /  F ield         | OpenFOAM: The Open Source CFD Toolbox           |
|  \\    /   O peration     | Version:  v2012                                 |
|   \\  /    A nd           | Website:  www.openfoam.com                      |
|    \\/     M anipulation  |                                                 |
\*---------------------------------------------------------------------------*/
FoamFile
{
    version     2.0;
    format      ascii;
    class       volScalarField;
    location    "1000";
    object      ddt0(omega);
}
// * * * * * * * * * * * * * * * * * * * * * * * * * * * * * * * * * * * * * //

dimensions      [0 0 -2 0 0 0 0];


internalField   nonuniform List<scalar> 
13851
(
-0.0019115
-7.47537e-06
-7.46378e-06
0.0120207
-7.44325e-06
-4.87194e-06
-2.15467e-05
-1.517e-05
0.0535493
-1.67175e-06
0.000243187
-3.78736e-06
1.07478e-07
-0.0121629
2.36082e-05
-0.00238812
0.0469147
-6.80189e-06
-6.199e-05
-0.00210885
1.57972e-05
-1.12235e-05
-0.041662
-1.44172e-06
-0.466414
0.000223399
-0.00973791
-0.382552
0.068235
-8.27578e-06
0.0162464
-2.09891e-05
-0.0021116
-0.0436308
1.95e-06
0.0743087
-6.36625e-07
-0.247676
0.0351901
-3.52855e-06
-0.0244185
0.0725819
0.0123331
0.000382668
0.0618566
-4.8465e-06
-1.58425e-05
-0.0004154
-8.69544e-06
4.48878e-07
0.00152734
-7.53935e-08
-0.00220948
-2.37049e-05
0.00992621
-3.43897e-06
-0.00182921
-0.0234637
-0.020516
0.0612866
-3.81386e-06
0.0155245
-8.31932e-07
-8.75971e-06
-0.0161796
-0.0153033
0.0852254
-0.0101112
-6.60046e-06
0.00343426
0.011145
-1.35827e-05
-1.26427e-06
0.0817729
-1.99722e-06
-1.20962e-05
0.0259978
-9.83111e-06
-1.18321
-4.11582e-06
-7.06653e-06
0.00373896
3.02838e-05
-0.00823764
0.0567682
0.0113338
-8.58886e-06
-0.00723451
-2.71721e-06
0.0188597
3.08843e-07
-2.00515e-05
-0.0444368
0.0164617
-0.00941433
0.0140075
-3.50254e-06
-0.00118721
0.00030399
-0.000796195
-0.00108659
0.000883988
-0.00628815
-1.68675e-07
-5.62776e-06
-2.82288e-05
-5.61246e-06
0.0100194
-1.99081e-05
-7.10607e-06
5.30593e-05
-4.89905e-06
-0.0066066
-0.000128016
0.000602871
-2.63128e-05
-8.94895e-06
-1.52801e-05
0.0155714
0.0125402
0.00922252
-7.26157e-06
-5.94738e-06
0.0256157
0.00569514
-0.0248265
-3.73292e-06
0.000160123
-0.0207774
3.22051e-05
-1.17493e-05
-2.72923e-06
-0.855942
-0.0313665
0.00016691
-0.00392282
-0.0132453
0.0112209
-0.00279441
5.0055e-05
0.00187826
-1.43321e-06
-2.44747e-06
-0.0071591
-0.0802219
-1.0705e-05
-9.75174e-06
0.017984
0.033636
0.000113892
-0.000488483
-0.00657344
-0.000216602
0.000807742
2.36874e-07
-7.58625e-07
-3.61874e-06
0.0263857
4.00979e-05
-1.33895e-05
-2.02528e-06
0.0710906
-3.57203e-05
-0.000349133
-0.0036119
0.0629144
0.0666819
-0.000760365
4.64096e-07
-0.0212417
-3.55905e-06
-9.74725e-06
-0.000102809
-6.10815e-06
-0.0138189
-0.0258555
0.00291084
-9.90965e-06
-5.95982e-06
0.00187641
0.00642613
-0.00446698
-3.23964e-05
4.43024e-05
0.113533
0.0352121
-0.00244984
-0.000107416
3.11389e-07
-7.02725e-06
-0.298551
3.78798e-05
-0.0479959
-4.35814e-06
-1.06558e-05
-0.00201035
-0.00158469
-7.66741e-06
-6.8171e-06
0.00339542
-0.00356479
-0.00225864
-0.0121589
2.6235e-05
-0.114159
-0.000686629
-1.13962e-06
7.54112e-05
0.0575915
-4.58683e-06
-0.00208114
-5.68817e-06
-0.00255728
-9.04367e-07
-1.76134e-05
-1.21314e-05
4.31314e-07
-0.00412241
-6.80788e-06
-0.0108782
-9.66035e-06
-0.00286927
-0.0304084
-0.00810509
-1.88917e-05
8.20135e-05
-1.12156e-06
-0.0079026
-4.41893e-06
-9.48342e-06
-0.312063
-0.000112391
-4.91522e-06
-3.90804e-07
-0.0134402
-8.30182e-06
-0.842169
-0.00762588
-0.00233287
-1.1792e-06
0.922525
0.0580108
0.0602622
-0.00195774
-7.47706e-06
0.00614359
-0.00124604
-1.0864e-05
0.00712913
4.90825e-05
0.00535619
0.00249993
-1.31918e-05
-6.52757e-06
-0.00198439
0.0673858
-0.0106191
-7.85926e-06
-0.024562
-2.3173e-06
-0.00479234
0.00586172
-6.83906e-06
-3.01339e-05
0.00256459
-1.57891e-06
-0.0089806
-2.04669e-05
-0.650782
-2.69858e-06
5.35291e-07
-7.18879e-05
0.0718508
0.0357383
9.86362e-06
-7.35178e-06
0.00712782
0.00481416
0.000150873
-1.55947e-05
0.0701724
0.0154123
-4.71877e-06
1.2566e-05
-0.550716
-6.45661e-06
-3.65433e-06
-0.000461202
-5.16457e-05
-8.09616e-06
-1.87404e-06
-4.59978e-06
-1.0186e-05
7.91135e-06
-3.69038e-06
0.0587918
8.97786e-06
-3.94045e-06
0.0670894
0.0285438
1.11697e-08
-0.00310464
-0.00475086
-2.15073e-06
5.52778e-07
-2.58217e-06
-0.0293603
-0.0503594
-6.3533e-05
-7.95737e-06
-0.00721318
-3.56673e-06
-8.97876e-05
-0.000715136
-0.652815
-1.36579e-05
-0.450597
-0.302008
0.00773323
-0.00234119
-0.00703359
-0.00803537
0.0140052
-0.724023
-6.6931e-06
0.0308775
0.152774
0.0462586
-0.00448105
-7.65692e-07
-0.00011474
-1.42945e-05
-0.0113941
0.00704468
-1.22401e-05
-1.61619e-05
-5.66585e-06
0.00830993
-0.0290782
-6.44489e-06
-0.00582674
3.94547e-05
1.99669e-06
-1.39183e-05
-0.0612382
0.00547762
-0.00245178
-1.17488e-05
-5.16019e-06
0.0678733
5.10064e-07
0.00454006
-5.20282e-06
-1.10282e-06
-0.000200364
-2.42332e-06
-4.32893e-06
0.00713184
-0.00209744
0.00146332
-0.772305
0.0746377
-1.09723e-05
-0.00928201
-0.00771201
-8.22808e-06
-0.389742
-0.000659338
0.00408594
-5.21578e-06
0.000275156
0.0285183
2.21198
0.00218094
-0.00454482
-6.93898e-06
-0.0245692
0.00768728
-4.15864e-06
0.007181
-7.63464e-06
-0.00026604
1.02687e-05
-1.65282e-05
0.000435885
-0.00504629
-8.00536e-07
-5.38321e-06
-0.000375333
-6.69355e-06
-4.71743e-06
2.13243e-05
-0.0383054
-9.97275e-07
7.92225e-05
0.0485441
-5.73973e-06
-4.90722
4.88313e-05
-0.0504557
-4.21553e-06
0.000205783
-0.0304699
0.00586669
-1.90559e-05
-0.016874
0.101689
-0.0270018
-1.94818e-06
0.00753462
-8.51246e-06
0.000260978
-7.21752e-06
0.0562091
-0.00619383
0.572222
-5.07065e-06
0.00213843
0.0116317
0.0360473
-9.35988e-06
0.041961
-0.00166206
-0.0626092
6.28614e-05
0.420366
-1.41336e-06
-6.21963e-06
0.0102921
-0.00135241
-1.54549e-06
-7.17778e-06
7.47506e-05
-8.83321e-06
0.000116978
-0.000155753
-0.000508535
-1.13803e-05
-6.84112e-06
2.57396e-07
-1.59759
-3.51418e-06
2.53085e-07
-0.0765026
-0.0356242
-1.23831e-05
0.00701411
-7.77936e-09
-4.16271e-06
-5.64625e-06
0.00216708
2.98631e-05
-3.84904e-06
-6.1417e-06
0.0042928
-7.65422e-06
-0.0532244
-4.1038e-06
-1.47315e-05
0.0591799
0.000103482
-1.46116e-05
-3.21382e-06
-1.08451e-05
-8.22538e-06
0.00672788
-0.0288212
-8.14911e-07
-0.00361822
-5.73903e-06
-3.84644e-06
0.0198984
0.0224152
-0.000729009
-1.03817e-06
0.020379
-0.000709103
-11.8377
-3.23649e-07
-7.2305e-06
0.00530722
1.22821e-05
0.00397451
0.015029
0.842507
-8.81112e-06
-0.00617057
-2.04217e-06
0.0622716
5.60707e-05
-0.00148934
-7.8164e-06
-1.19549e-05
0.000986939
-8.09094e-05
-7.07381e-06
0.00272319
0.0243089
-0.0524888
-0.0164349
-0.0383274
-0.0131015
0.00633487
-8.09532e-06
-9.16753e-07
-0.678619
-1.22958e-06
-4.0842e-06
-8.42222e-06
-0.0165561
-8.16233e-06
-9.31092e-07
-0.00155821
-3.74711e-05
-5.45284e-07
0.151684
-3.25317e-06
-0.0229317
0.173746
-4.05571e-06
-9.96404e-06
-0.0011528
-0.723571
-8.07268e-06
-0.0310662
-0.382134
-8.56331e-06
0.0444206
-0.0058442
-0.001682
-8.65788e-06
-0.0794472
0.0383109
-8.17891e-06
-0.0116327
-6.16837e-06
-3.03548e-06
-0.0937497
0.00374669
-3.78937e-05
3.35592e-05
-1.01547e-06
0.000166825
-0.0278183
0.00960238
-7.65154e-06
-0.00933813
-4.35647e-06
-6.4067e-06
-2.24959e-05
-2.19966e-05
-9.13852e-06
-1.20248e-05
0.0557211
-0.00422283
0.0387106
-7.84969e-06
-2.51742e-06
0.0757105
-1.70889e-06
0.00359933
-8.80971e-06
3.67481e-06
-3.66129e-06
0.0417444
0.0181085
-4.65012e-06
0.0245184
-1.20273e-05
-0.000195047
0.0708872
0.019668
-4.92792e-06
-1.48747e-06
0.00474849
0.043827
-0.003268
0.000167642
9.99787
-2.47955e-05
7.45453e-06
-0.395206
0.145482
0.00133921
-0.0104179
0.00131213
0.0833049
-7.07868e-06
-0.0232838
0.676346
-3.32624e-06
-0.0966615
-0.00530029
-1.09585e-05
4.87234e-05
-2.44667e-06
0.0262525
-0.000611749
-0.0814138
-3.40403e-06
-4.65733e-06
1.08179e-06
-3.87989e-05
-4.47133e-06
-0.011964
-4.78923e-06
-0.000117629
-7.34414e-06
0.000256484
-8.14918e-07
-5.10757e-07
0.000313193
-0.00426812
-3.16289e-05
-0.00442086
-7.94161e-06
-7.73234e-06
-7.54313e-06
-9.50891e-05
-6.12047e-06
-0.00197666
-7.99483e-06
-0.00116196
-0.00559688
-7.51806e-07
0.0027912
-1.12172e-06
0.000377739
0.0245497
0.0602793
0.0028747
-0.113286
0.00360239
0.0132851
-0.0225345
-7.69405e-06
0.13991
2.36291e-05
-5.65999e-06
0.0200401
-0.732631
-8.67778e-06
-0.00195395
-7.80934e-06
0.0759631
0.000481223
-7.35833e-06
0.00945791
0.0383369
-1.00766e-06
-1.05412e-06
0.000210632
0.012125
-0.0852172
5.53112e-07
-0.0011982
-7.59504e-06
-7.93189e-07
-0.0236488
-0.00144875
-0.00309946
-1.02034e-05
0.00014203
-7.1514e-05
0.00016748
7.84544e-08
-1.02027e-05
0.00228773
-5.45774e-06
-1.9387e-05
-1.22654e-05
-7.86876e-06
0.00215661
-0.231759
-0.013802
0.0120543
0.00953081
-0.00074172
0.0219067
-0.000293685
-0.0674086
-0.0023505
-7.02869e-06
4.8561e-06
-0.00250742
-9.12496e-06
-4.33137e-06
-4.50149e-06
0.000308926
-0.0103357
-1.30912e-05
-0.00551196
-8.24211e-06
-0.0671738
-0.000954489
-0.00774765
-0.001561
-4.3849e-06
-7.59054e-06
-0.00804304
-0.00277545
3.11482e-05
0.00837141
-6.71171e-06
-1.5479
0.000305755
-0.00144587
-8.75549e-06
-0.015687
-1.26267e-06
-8.94178e-07
-1.06306e-06
-7.9214e-07
0.0667849
-1.00147e-05
-0.0137977
0.0729817
0.000282884
0.00259747
0.00483707
-0.0029776
0.00872306
0.000259954
-5.6347e-09
2.59681e-07
-1.00049e-05
-7.47063e-06
-5.13634e-06
-0.00015637
-0.00253759
-0.000965647
-0.495661
-1.05214e-05
0.0531496
-5.05099e-09
0.0028778
-1.4099e-05
-5.29325e-07
-2.71063e-07
0.0622275
-4.46592e-06
0.0330426
-0.026246
4.49986e-05
-0.000110236
-8.30206e-06
-0.037953
-1.14213e-05
-7.93184e-06
-0.0137027
-2.70645e-07
-1.51309e-06
-7.16289e-06
6.65815e-05
0.00430644
-5.11927e-06
-8.54887e-06
-0.00572667
0.00925746
0.000132587
2.07861e-05
0.0787894
-1.03886e-05
0.0796392
-3.43951e-06
-7.76634e-06
-1.48198
0.000355937
0.000322163
-0.000399792
-1.94828e-05
-4.52695e-07
-5.42459e-09
-0.00026244
-7.0388e-06
-9.75751e-08
-1.70348e-05
-0.00614271
-7.46544e-06
-0.00118465
5.52466
-0.000165737
-0.000526011
0.0816285
0.000631458
-2.90927e-07
-0.00363072
-7.03997e-06
-4.84073e-06
0.0169018
0.071011
0.139297
0.0748027
-7.89619e-06
-7.71869e-06
0.000866877
-9.16596e-06
-6.98822e-06
-0.0131536
-0.00408817
0.0136289
0.000333042
0.000354168
-7.88104e-07
-8.33503e-06
3.81656
-0.000312364
-7.82564e-06
-2.77921e-07
0.000755379
0.0025487
-0.00393752
5.40514e-07
-3.35893e-06
0.00535798
1.54587e-07
-3.22965e-06
-8.7771e-06
-0.0185651
-1.35562e-05
0.0340238
-1.39621e-06
0.00289161
4.47236e-06
0.000703492
-8.51429e-06
-1.23285e-06
-6.76424e-06
-6.87256e-06
-0.0227975
-2.27138e-07
-0.0056465
-6.38721e-06
0.0999199
0.0350596
-4.54502e-06
-9.47962e-06
0.0289635
-0.0434213
-4.97167e-06
0.000390113
-3.61316e-07
-0.0131138
-6.95844e-06
-0.00446492
-3.30281e-06
-6.89939e-06
-0.0312086
-4.27753e-06
-3.21642e-06
-2.37981e-05
-0.0253596
0.0344867
0.0329959
-7.69229e-06
0.0263797
-2.66055e-06
-7.29427e-06
-2.49702e-07
-1.60146e-05
-1.05626e-06
0.0280847
-0.00772348
-6.9051e-06
-4.89504e-06
-2.04259e-05
-4.93955e-06
-0.00698248
-0.00143867
0.0127857
-0.00568914
-6.6369e-06
0.000130344
-3.38877e-06
1.12892e-05
0.000507778
-7.80133e-06
-2.37341e-06
-1.90868
-0.00734274
-8.91685e-05
0.1386
0.000131981
-1.56506e-06
-1.84618e-05
0.000389496
-0.0251413
2.45564e-06
-0.538385
-0.000129455
-2.17093e-06
-0.224899
-0.335263
0.00595476
-1.39692
-0.0924196
-8.77528e-06
0.00560822
-2.16162e-07
0.145402
-6.99769e-06
-1.19814e-05
0.0361852
-1.07703e-05
-8.48546e-06
-5.26386e-06
-1.00014e-05
-0.0135448
0.00171355
-5.78714e-06
-2.98097e-05
-0.033533
-9.50454e-06
0.153889
-2.14784e-06
0.000248353
0.0056614
-4.43744e-06
-0.0105111
-1.91225e-05
-6.55181e-06
0.0185366
-1.05494e-05
0.014171
0.000182034
-0.0332373
-8.82762e-06
-0.00799116
-3.98466e-06
0.0354039
-0.0331304
-0.00942741
4.88964e-05
-9.94853e-07
-8.09446e-06
-8.78619e-07
-2.88353e-05
-1.13906e-06
-0.00556475
-3.26831e-05
-1.09982e-05
0.000109099
-8.52899e-06
-7.3176e-06
-2.98247e-05
-7.52254e-06
-9.79401e-06
-9.2744e-06
-0.070103
-0.0107537
-4.90517e-06
0.00031596
0.0415752
-1.2528e-06
0.0111192
-1.02871e-05
-0.000163263
-3.72133e-08
-6.42492e-06
-7.32632e-05
-4.12951e-06
-6.45504e-06
-0.00496094
-5.82641e-07
-0.0110347
-6.03869e-06
-0.110732
-0.240811
0.00319165
-0.00659339
-6.7102e-06
0.00448236
-0.00046561
-1.64908e-06
-8.40789e-06
-3.24441e-07
0.0116271
-1.707e-06
-0.00321044
-0.299517
0.0679987
-0.000461942
-7.00648e-06
0.0508301
-0.399295
-0.0630666
-4.89021e-07
-7.75753e-06
-7.80077e-06
-5.87791e-05
-1.2113e-06
0.0427423
0.00465199
-8.92993e-07
-0.00753162
-0.010222
-7.9406e-06
-0.0666693
0.0368431
-0.00384777
-6.86966e-06
0.0516307
-0.000143536
-5.39827e-06
0.00854726
-1.10779e-05
-7.33833e-06
-3.26521e-06
-8.47661e-06
-1.44982e-05
0.0653684
0.0335502
3.5119e-05
0.068846
5.12771e-06
-2.14809e-06
0.0224929
-4.58058e-06
-0.160957
-7.68549e-06
-6.40797e-06
-1.22968e-05
-6.9631e-06
0.0616434
-0.00939156
0.000954128
0.0128912
0.118709
-7.90055e-06
-1.06271e-06
-6.10438e-06
0.00776613
-7.64725e-06
-1.66503e-05
-6.67697e-06
-0.720158
-0.0250235
-1.50221e-05
-4.18367e-05
-8.47769e-06
0.000687526
0.0930325
-8.71633e-06
-9.44436e-06
-1.29406e-05
0.915045
-1.69967e-05
-0.0307055
-9.73631e-06
-3.3651e-06
-7.35891e-06
-3.28796e-06
-1.13307e-05
-0.00365952
0.085636
0.059975
0.00027602
-3.63427e-06
0.262301
-8.28861e-06
0.21087
0.031801
-3.94225e-05
-0.0108661
0.0681908
0.0389204
0.000130565
1.30739e-06
0.0357422
-2.15753e-06
-1.37166e-06
-0.00654983
0.00493016
-7.25542e-06
0.11904
-2.04719e-06
0.0270238
0.74106
-1.02797e-05
-7.86663e-06
-8.50468e-05
-0.00064208
4.42734e-06
-4.29047e-06
-8.87019e-06
-6.34067e-07
-1.27201e-05
0.060414
-6.59075e-07
-0.0133649
-0.000675158
-1.88062e-06
-7.28426e-07
-3.66278e-06
-3.19546e-06
0.0645939
0.0305629
-0.00102343
0.0113589
-4.22149e-06
-1.13063e-05
-5.68234e-06
4.08419e-07
-0.00100221
6.84041e-06
-4.92597e-07
0.000210265
-3.77682e-06
-0.017849
1.15267e-05
-0.0800088
-6.45565e-07
-1.03684e-05
0.00139162
-0.000280858
-0.000108955
-2.10711e-06
0.0778561
0.0263558
0.272154
-0.00755913
0.0245285
0.0642503
0.0399527
-2.36071e-06
-3.0696e-06
-7.2561e-06
-0.00171084
4.23697e-05
-0.000121608
0.0026149
-8.5585e-06
-1.25728e-05
-1.19421e-06
-0.00721287
-9.65167e-06
-7.50277e-06
-1.14459e-05
-0.0490832
-3.47454e-06
-7.22676e-06
-2.65055e-06
-2.73696e-06
-4.49295e-06
-1.58628e-05
0.00537495
2.56426e-05
0.0262635
-2.8666e-06
-3.29874e-06
-0.0159955
0.0221029
-0.00620978
-0.0124146
4.41041e-05
-0.0850209
-8.55262e-06
-0.00100731
-1.05874e-05
-1.5816e-06
-1.49635e-05
0.0277654
-7.65203e-06
-0.000393427
-4.92421
-8.03212e-06
-6.91592e-06
-4.80993e-06
-0.00290499
-4.90792e-07
-0.0561598
-7.4155e-06
-0.00935728
-4.73736e-08
-6.78478e-06
-4.50911e-06
-0.00328756
1.53971e-07
-0.00844173
0.0124656
-0.00333739
-0.0262491
-1.37132e-06
-0.0230231
-0.0388414
-2.51049e-06
0.66484
2.90667e-07
-0.000434763
-5.66822e-08
-9.57122e-06
-6.86234e-06
1.07729e-07
-8.38771e-06
-3.72401e-05
-3.15547e-05
-7.00637e-06
1.56118e-07
-0.0120671
-8.27402e-06
-0.0339223
-4.14674e-07
-4.2289e-06
-3.31878e-06
0.041936
-0.11849
-1.18576e-06
-0.00373056
-9.2072e-06
-2.51886e-05
0.00128107
-0.00115606
5.99136e-05
-7.22788e-07
-8.40824e-05
0.00153822
0.000292227
0.0058054
-0.000266412
0.000331964
0.000173967
9.86527e-05
-3.27376e-06
-7.24577e-06
-0.0221465
0.0484064
-7.35442e-06
-5.41561e-06
0.095359
-7.17288e-06
3.79458e-06
-4.64478e-06
-0.00259987
-0.238109
-1.0242e-05
0.0008191
-4.97261e-06
-3.2004e-06
0.000492115
-1.15265e-05
-0.00378557
0.0158886
-3.13527e-06
-0.0179134
-7.6435e-06
-1.18882e-06
-0.00339681
-9.05318e-07
-8.339e-07
-1.16782e-05
-6.10337e-06
-4.92574e-05
-0.00144928
-4.18585e-07
-5.75036e-06
-7.44855e-06
-3.83146e-06
-8.98177e-07
-2.29659e-06
1.8418
-7.46286e-06
-2.44418e-06
0.0103576
-7.53029e-06
-5.835e-06
0.058506
-4.85699e-07
-0.0603188
-8.71937e-06
0.0763603
0.00037036
0.00139805
4.165
0.000169606
0.0152659
-6.57632e-06
0.00356597
-4.29956e-06
-7.28568e-06
-5.51255e-06
-1.61397e-06
-1.19072e-06
-2.81765e-06
2.86554e-05
-6.56821e-06
-9.63424e-06
0.0743057
0.00067529
0.0813633
-1.40471e-05
0.00344084
0.0179699
-0.130339
-1.17353e-06
-8.2885e-06
0.0212975
-6.89818e-06
7.78422e-06
-1.81457
0.0590225
-9.35514e-06
4.79752e-05
-9.43882e-06
-0.0124161
9.63405e-08
-0.000198609
0.337266
-4.95562e-07
-1.55777e-05
-0.0570958
-1.24215e-05
0.00676983
-0.0402646
-0.000122835
-5.29249e-07
-6.62448e-06
-6.58371e-06
-0.00829235
0.456288
0.0557526
-5.17084e-05
-7.9583e-07
0.00521782
-1.66002e-06
0.00441478
0.000130821
-1.19424e-05
-4.68199e-06
-3.33738e-06
-0.0369515
0.132768
-8.95569e-06
-6.81662e-05
4.09542e-05
-2.01589
-5.25704e-05
0.000159619
0.00460783
1.10047e-06
-0.0171212
0.000186572
-8.03002e-07
1.57126e-05
0.0171486
-0.0660261
-4.15663e-06
-0.439293
-6.04782e-05
0.000169937
-5.65074e-07
0.0769267
-7.23668e-06
-8.67439e-06
-6.70341e-06
1.59124e-05
2.2137e-05
0.000676313
-7.11974e-06
-8.47771e-06
-0.000827784
-0.0417497
-1.32698e-05
-8.77667e-07
1.72872e-07
1.44066e-05
-0.00831423
-1.62747e-06
0.00103045
-0.060662
9.93323e-05
0.0612657
-1.78581e-05
-0.00734209
0.0180639
-2.30244e-06
0.111703
-2.45946e-06
-1.11312e-05
4.43383e-06
1.05808e-06
-0.000163761
7.24333e-05
8.51532e-05
0.00014403
-5.16149e-06
-1.2305e-05
-1.02451e-05
-0.00287031
-7.99487e-06
-3.7939e-06
-0.300905
-8.56112e-06
0.000244144
-4.28171e-06
-0.0055904
-0.000148464
-7.59274e-08
-7.86863e-06
-2.89848e-07
0.000481973
-0.000999372
4.00756e-06
0.065065
-0.0687476
0.290043
-0.000196044
-0.0131642
-5.57914e-06
-0.00717211
-1.66948e-05
-1.1392e-05
-0.922175
0.0601601
-0.00728922
0.562603
-3.82631e-07
-0.085324
-5.49434e-06
0.000412517
-1.3057e-05
-0.120957
0.0306277
-2.66534e-05
-8.00241e-06
-0.00461761
0.00146515
-3.82666e-06
0.000387395
-2.71577e-07
-8.82356e-06
-7.84913e-06
3.04587e-07
-4.92417e-06
-6.7335e-07
-1.10054e-06
1.05418e-05
-0.0170474
1.67055e-05
-2.35747e-05
-4.1783e-06
-0.00148462
0.065438
-8.45058e-06
0.0146035
-1.26839e-05
-3.20138e-06
-0.0187927
-7.41242e-06
-3.52557e-06
-1.48887e-05
0.00509692
-3.92484e-06
-3.20765e-06
-3.36216e-05
-0.0586418
-8.2393e-06
-1.28927e-05
-8.25377e-05
-0.20968
-1.74864e-05
-8.72038e-06
-0.00651902
-2.54579e-07
-0.00627752
-1.09319e-05
0.0589471
2.81412e-06
-9.80345e-07
-2.08855e-05
-0.00131291
-3.7582e-06
-6.90144e-06
-0.000487309
0.0670554
-8.44444e-06
0.0746349
-2.48992e-06
-1.10158e-05
-9.36957e-05
-4.57102e-06
-7.52253e-06
-0.024027
-2.17336e-07
-1.41618e-06
0.000319134
0.0159065
-0.124758
-7.79932e-06
-2.39015e-06
-7.69764e-06
-4.62582e-06
-1.30562e-06
-2.63426e-06
-0.262459
-1.5743e-06
-0.0262856
0.00083532
-1.57597e-05
-8.22786e-06
-4.99979e-06
0.000675545
0.0132775
0.000242513
0.000172375
-1.1799e-05
0.0580254
-0.00154201
-2.96419e-05
3.22954e-05
7.59354e-05
0.000380623
0.232867
-1.48961e-05
0.00102083
0.1583
-0.107325
-8.49198e-06
-5.06037e-06
-2.50943e-05
0.000649133
-7.60592e-06
-8.70844e-06
0.00196082
-2.09146e-06
-7.888e-06
-3.90519e-06
-1.09136e-05
-1.06471e-05
-6.67453e-06
0.0381577
-8.57164e-06
0.0178246
-4.18831e-06
-0.00484085
-7.1242e-06
0.00023081
-0.000762838
-9.22163e-07
-0.00477882
-3.9623e-06
-1.233e-06
2.12947e-05
-7.26363e-06
-3.88194e-06
-6.8163e-06
0.0850833
-1.22306e-05
-1.76193e-05
-0.00457996
0.00306077
-1.39673e-05
-0.0323477
-0.0989822
0.000171206
-6.78451e-06
-6.40649e-06
0.000551065
-0.00015681
-0.0255166
-8.43759e-06
-0.00253091
-4.60085e-06
-0.00563298
-0.0654219
2.55742e-06
-0.15666
-1.09458e-05
-4.44318e-06
-1.29006e-05
0.14727
-6.80957e-06
-5.25274e-06
-0.000416985
0.00109992
-8.938e-06
-2.89568e-06
-4.26911e-06
0.0239581
-7.21796e-07
-2.30107e-05
-0.00417185
-1.69348e-05
-1.83287e-06
0.00107357
-1.05193e-05
-0.0270631
-1.21935e-05
-2.17183e-06
-7.40868e-06
6.02013e-05
-6.59225e-06
-6.72237e-06
0.00013958
0.0269435
-2.47809e-06
-2.87106e-07
0.0685073
-8.90899e-06
-0.000358317
-1.86799e-05
0.0827189
-6.55105e-06
-1.11646e-05
-8.84678e-06
0.00700885
-0.017003
-0.000198265
0.00017563
0.000890709
-3.80522e-06
-7.93263e-08
0.0805383
-5.36138e-06
0.000350922
-1.62823e-05
-1.96343e-06
-7.16889e-07
0.0447526
-8.20573e-06
5.54386e-05
-1.47426e-05
0.0648798
0.138976
-7.90389e-06
-2.39119e-05
0.109218
0.000126814
-0.0335192
-0.211708
-0.00284509
-1.44934e-06
-7.20823e-06
9.88337e-05
-0.392859
-9.47177e-06
-4.75562e-06
-1.02583e-05
-5.18498e-06
-0.00430778
-0.0462958
-4.63875e-05
-0.000966353
0.0109858
1.34152e-05
0.0774846
-7.4231e-06
-7.71343e-06
0.000970181
0.09196
-0.00744624
0.00382855
-0.138476
-8.54851e-06
0.0997838
0.0225344
-0.0232026
-2.79004e-06
-0.0175785
0.0542586
0.220909
-0.118938
0.037782
0.000397139
-1.73612e-06
-0.00600293
0.000126577
-3.01661e-06
-0.0485042
-0.000509906
-1.03372e-05
0.0428912
-1.92933e-06
-0.000141403
1.7762e-05
-7.3632e-06
-0.568527
-0.000342277
0.056839
4.49283e-05
-0.000460011
0.294768
-0.00265285
0.000306747
1.97055e-07
-3.84058e-06
-0.000212104
-0.00215699
-8.84692e-06
-6.7574e-05
-0.000302205
-0.00115196
-2.20939e-06
-0.00664665
-1.27654e-05
-0.000136422
-0.0532865
-0.0229647
-4.17995e-07
-0.000731229
-0.00475559
-1.82986e-07
-9.30585e-06
-0.0258895
-0.00248116
-7.4801e-06
-5.95152e-06
-3.13699e-06
-0.000402684
-1.24374e-05
0.0765637
-0.000789021
-9.40124e-07
-2.62733e-06
0.00225432
-2.62222e-05
0.00314176
0.000608727
-5.85298e-06
-3.7862e-06
-7.52954e-06
-2.60555e-06
-5.57074e-06
-1.00454e-05
-6.85903e-06
-4.47068e-06
-3.23223e-06
-1.25791e-05
4.46911e-07
7.70129e-05
-0.560782
-1.09065e-06
0.00920976
0.0653105
-1.12548e-05
-0.010262
0.00331941
0.00193122
-3.35035e-06
-0.000373341
-4.99148e-06
-0.0035342
-2.027e-06
-8.69112e-06
-2.61898e-06
-0.0319618
-3.38376e-05
0.00743783
-2.33731e-06
-1.6889e-06
-4.44635e-06
0.00129894
-2.73042e-06
-2.60465e-06
0.000193156
-0.0234864
-5.13651e-06
0.0199262
-0.855214
0.021896
-8.22e-06
-0.00288113
0.0918819
2.0383
-0.308666
2.21928e-07
-7.16439e-06
0.000540557
-0.0469056
-0.0958602
-3.34971e-06
0.014736
-2.46184e-06
-7.33094e-06
4.44147e-06
-1.81698e-06
-1.82598e-07
-0.00114459
-9.55124e-07
-0.00516991
-6.86517e-06
0.00909252
-0.0303898
0.00579096
-0.0535633
0.0262162
-2.07149e-07
-1.39298e-06
-0.0320924
-7.59007e-06
-7.55003e-06
-1.00017e-05
-0.00347982
-0.0540558
-0.02358
-9.69623e-06
-8.36929e-06
-1.00288e-05
-4.53667e-06
0.00273431
-6.42894e-06
-0.186157
0.0113144
-1.9011e-06
-8.72022e-08
0.0222354
0.000316024
-1.31519e-05
-2.68687e-06
0.0415467
0.0134797
-6.6529e-06
-0.0058765
-9.49691e-07
0.0237877
-0.0585543
-1.72118e-05
-0.25508
0.00774258
0.0611638
-7.16856e-06
-9.36323e-06
-1.09616e-06
-6.56745e-07
0.00644788
-3.85804e-06
0.00639727
-0.00623794
-0.0263002
-6.51391e-06
6.39633e-05
0.052015
-4.64692e-05
-0.044134
0.0244217
-1.27176e-05
-7.09882e-06
-6.36928e-06
-0.00102035
0.0569183
-1.02829e-05
-0.00132063
-8.41811e-05
5.0262e-05
-2.57108e-06
-8.58818e-06
0.00982889
-1.37946e-05
-0.00908619
-1.96219e-06
5.33343e-05
-6.65508e-06
-0.000741875
-7.73619e-06
0.0358237
0.436273
0.010663
0.000197382
-2.29569e-06
-1.19785e-05
-0.000335466
-0.0185445
0.0749758
0.0267985
-3.99118e-06
-0.116512
-0.00401485
-0.0170372
-3.00711e-05
-3.11707e-05
-1.58312e-05
-6.90957e-06
0.0537851
-3.38499e-06
-3.88735e-07
0.0028398
-0.00352828
-0.227806
-0.0464077
1.32854e-05
2.96422e-06
-7.88702e-06
0.0082508
-1.22701e-05
0.0691918
-8.62924e-06
-0.0204554
-1.01986e-05
-4.54396e-06
-1.44906e-06
-4.94569e-05
-1.41895e-05
-3.00189e-06
0.0272557
5.42014e-05
-3.77553e-06
2.9962e-05
0.0119432
-0.285775
-1.60343e-06
0.035792
-1.20468e-05
8.45068e-06
-7.49485e-06
-1.24854e-05
-0.000162971
-4.44136e-06
-0.586546
0.000293577
-2.15267e-05
-3.11414e-06
-0.00108671
-4.82926e-06
-8.63352e-06
-0.00822266
0.536129
0.00401589
-8.79098e-06
-0.0384904
-1.15613e-06
0.00129165
-9.83936e-06
-0.00110555
-0.669937
0.0259749
0.00176249
-0.0458921
-0.000104991
1.28848e-05
-6.94137e-06
-0.0381249
0.00522551
-0.00165341
-0.0134978
-1.93814e-06
-0.108624
0.00162829
-0.00487868
0.00568969
0.0127294
0.0256821
-1.02715
-0.0135263
0.000583545
-2.57194e-05
-1.9785e-06
-6.71102e-06
-1.01789e-05
-0.00306488
1.43319e-05
-0.00157194
0.0684382
-3.4278e-06
-8.44566e-06
3.8102e-05
0.000159308
-5.38151e-06
-1.50421e-05
-0.00497854
-5.81196e-06
6.16273e-05
-2.94721e-06
0.0329564
-1.07475e-05
0.0383314
-0.000899173
-6.82477e-06
-2.12327e-05
-2.02842e-06
0.0558937
0.0195108
-0.00010186
-2.54631e-06
-1.0642e-05
0.00421033
0.00794336
0.0693147
-7.47508e-06
-0.000138687
-0.0655541
-6.66792e-06
-5.52254e-06
-6.70965e-06
-0.0430688
-0.000509046
2.33295e-05
-2.82953e-05
-9.89609e-06
0.022061
0.00120896
0.00438131
-2.0898e-05
-1.00013e-06
-1.07653e-05
-0.0033135
-2.27657e-05
-2.28677e-06
0.0841045
0.0333525
-0.0179582
0.0604322
0.0368962
-0.0520969
-0.0381291
-5.30862e-07
-7.68511e-06
0.0359657
0.000864308
0.0153368
-2.14525e-06
4.55795e-06
-5.85184e-07
-2.56077e-06
-0.271003
0.00357659
-4.28578e-05
-4.57301e-06
-0.0245365
-0.000740634
-5.55891e-05
0.0165844
0.191705
0.0150101
-1.03462e-05
0.0293611
-0.400643
-0.000439353
-3.23235e-06
-2.47918e-05
-2.36961e-07
-5.74438e-06
-3.0508e-05
-4.24863e-05
-1.17666e-05
4.29786e-05
-4.64962e-06
-1.26693e-05
-0.007103
0.0239861
-8.66521e-06
5.31821e-05
0.0217175
-0.00785585
-2.04862e-07
-0.0644416
0.0194401
-0.00780012
5.71586e-07
-6.87939e-06
-3.04621e-06
-5.71539e-06
-1.27413e-05
-1.21594e-05
0.000258078
-5.45776e-07
6.36501e-05
-0.000981157
-1.93255e-06
-9.14361e-06
0.0272278
0.0678364
-0.0104158
-0.0398944
0.000102557
-1.07499e-05
-1.003e-06
-3.54318e-06
-8.30179e-06
0.119255
-1.49774e-06
-6.05664e-07
-9.24528e-06
0.0856874
0.323482
-4.49753e-07
9.28718e-05
-4.69361e-06
-9.13222e-05
-5.0596e-06
-0.000584871
1.40753e-05
-2.04775e-05
0.00441088
-7.17207e-06
0.0115455
-1.07485e-05
-0.0197194
-5.41778e-06
-1.02176e-05
-7.261e-06
-0.000654865
0.000158373
-9.12582e-06
8.79703e-05
-3.74707e-06
3.62758e-05
-0.0688492
-0.212602
-0.034869
-5.42829e-07
-0.0153201
-0.000469113
-1.00361e-05
-2.79519e-06
-0.000152931
-1.15654e-05
-0.00386457
-0.0263844
-4.85098e-05
-1.81271e-06
0.0728686
-1.83326e-05
0.0195805
0.00690721
-0.010727
-1.19181e-05
-0.000479685
0.00675686
0.114291
0.0442795
-5.5966e-05
-7.18588e-06
-2.32589e-05
-7.64847e-06
-0.109111
-1.32515e-05
-6.84907e-06
-0.0162113
-0.015029
-7.1511e-06
-2.96912e-06
0.00332205
-1.84392e-05
-0.0562149
-0.000717507
-2.50227e-06
-3.3463e-05
-0.00583512
0.000455327
-0.0274573
-1.91852e-05
-0.00672416
-5.26999e-06
-3.57622e-07
-3.61912e-06
0.000246348
1.69593e-08
-0.00139347
-8.5627e-07
-6.8546e-06
-0.00305105
-9.63834e-06
-7.08032e-06
-4.17837e-06
1.85527e-05
0.0311567
4.499e-05
-3.57953e-06
-8.51106e-06
-0.000130293
-1.4443e-06
-0.00342506
-3.70716e-06
-2.26754e-05
0.00675649
-3.06603e-05
-0.00204356
-0.00048199
-7.58361e-06
2.08415e-05
0.113033
0.0120272
-6.62255e-06
1.20362
0.0208733
-2.34322e-06
-4.5265e-08
0.0119479
0.0373617
-0.000164374
0.021902
0.00556955
-8.15163e-06
0.000347758
-1.06527e-05
-5.78398e-06
-0.000152168
-0.802887
0.0160476
-0.0117661
0.0141759
0.0739013
0.016345
-1.2919e-05
0.0387049
-1.81715e-06
-0.457675
0.012898
-2.24454e-06
-6.53819e-06
0.0117179
-2.07836e-07
-1.81924e-06
-0.0223749
0.0733819
0.00246235
-1.15264e-05
0.0227623
-6.57899e-06
0.052454
0.0276586
-2.78189e-06
0.00788164
0.839941
0.00133697
0.0226883
0.0304093
0.00941241
-5.59612e-06
-9.13843e-07
-0.000116314
-5.00198e-05
-1.81469e-06
-0.00769534
-2.35078e-06
0.0317938
-0.0199219
0.000534793
0.00510293
0.0339736
-0.0169453
-0.00461726
-0.00440257
0.051483
0.00661283
-1.06913e-05
-1.05986e-05
-0.190212
-9.786e-06
-7.91093e-06
0.106268
-2.87449e-06
-0.0799478
-1.11366e-07
-0.0362572
-1.2134e-05
-2.88574e-06
-14.8218
-1.02574e-06
-0.000108489
0.00133295
-0.055898
2.5722
-1.19235e-05
1.80944e-05
-6.09704e-06
2.12421e-05
-0.00048832
3.50662e-05
-2.62976e-07
-0.11429
-6.76794e-05
-2.61954e-05
0.0116503
-1.80449e-05
-7.03464e-06
-0.00198975
-0.000211337
6.34058e-05
-2.89576e-06
0.000555644
-6.8815e-06
-0.00202467
-0.0308661
0.0289074
-7.52246e-06
-9.63049e-06
0.000915023
-8.27368e-06
-0.00015039
-1.49079e-05
-4.37711e-05
0.0288894
-5.06889e-05
-1.0198e-06
0.168934
-7.18972e-06
0.0765307
-2.91471e-06
-6.32168e-06
-0.0011342
0.0752062
9.26972e-07
-0.0500846
-0.0325852
-4.05745e-06
-6.8773e-06
0.00254621
-6.11752e-05
0.050924
1.5304e-06
-1.80413
0.000223252
-7.91249e-06
-5.34137e-06
0.00331187
7.14621e-06
0.00243319
-6.08815e-05
6.90965e-05
-7.36417e-06
-8.33986e-06
0.590788
-1.56811e-06
-3.82408e-06
-1.46731e-05
0.00114137
-5.08271e-06
-4.99573e-06
0.0291801
-2.24077e-07
-0.00153011
-1.31961e-05
-1.18215e-07
-2.33102e-06
7.99992e-08
-1.7356e-05
-4.95666e-06
0.00042699
0.0078557
4.96591e-05
-4.87975e-06
-1.29155e-05
-7.14119e-06
-0.0174445
-1.52675e-06
-0.0105099
0.0294462
0.0272706
0.00054993
-1.30448e-05
-1.37479e-05
-1.51965e-06
-1.72913e-05
-0.00456006
2.98655e-05
0.0108152
9.5108e-05
0.00764451
-0.000175949
-2.37374e-06
-8.82034e-06
0.0117607
-2.92836e-06
-2.56729e-06
0.00590367
0.000721476
-1.02731e-05
-0.0157481
-1.88339e-07
-8.3122e-06
-3.87268e-07
-1.87637e-06
0.00191617
0.00105072
-7.81208e-06
-4.38591e-06
-0.00316396
8.89969e-06
0.000159992
0.00328059
0.00591896
-0.00363277
-0.00121327
-2.78302e-05
-8.94513e-06
0.00015909
0.0748153
-0.0557486
0.062906
1.52623e-06
0.0550446
0.000216222
-6.44863e-06
-4.67181e-06
0.000174193
-1.93321e-06
-1.29522e-05
0.0179916
-2.92161e-06
-7.42505e-06
0.000452525
-0.186763
6.83708e-05
0.127821
-1.93912e-07
0.0128388
1.61601e-05
-0.0190015
0.000114646
-2.07788e-06
0.0512315
-0.012691
-1.53581e-06
0.00717133
-5.0323e-07
0.00397337
-2.72316e-06
-0.0055098
0.138895
0.000534552
0.0148068
-4.35247e-06
-0.00867532
-6.75074e-08
-4.2116e-06
-8.70676e-06
-2.15482e-05
-4.07957e-06
0.00101898
0.079201
-1.05575
-4.70123e-05
-1.58197e-05
0.0033988
-6.5389e-06
-1.39054e-05
-7.91056e-06
0.12545
-9.2279e-06
-0.0102291
0.00754455
-0.00332531
-1.09785e-06
0.00271111
-0.00214845
-0.00162729
-2.63904e-05
0.0165396
-1.88457e-06
-1.08756e-05
-2.43959e-06
1.25435
-6.89931e-06
-1.53252e-06
0.0648278
-2.98624e-06
0.00330028
-0.000463167
-7.6704e-06
0.0677953
-3.05705e-05
-0.030445
-7.13875e-06
0.0368261
-9.30369e-06
0.00802352
-0.0249557
-0.000102356
-3.28056e-06
-1.72897e-05
-0.0211864
-1.33894e-05
-0.00253874