/*--------------------------------*- C++ -*----------------------------------*\
| =========                 |                                                 |
| \\      /  F ield         | OpenFOAM: The Open Source CFD Toolbox           |
|  \\    /   O peration     | Version:  v2012                                 |
|   \\  /    A nd           | Website:  www.openfoam.com                      |
|    \\/     M anipulation  |                                                 |
\*---------------------------------------------------------------------------*/
FoamFile
{
    version     2.0;
    format      ascii;
    class       volVectorField;
    location    "1000";
    object      ddtCorrDdt0(U);
}
// * * * * * * * * * * * * * * * * * * * * * * * * * * * * * * * * * * * * * //

dimensions      [0 1 -2 0 0 0 0];


internalField   nonuniform List<vector> 
13851
(
(0.00172035 -0.000129435 5.91338e-18)
(-8.2909e-05 0.000360206 6.13925e-18)
(-8.93134e-05 0.000353299 3.14093e-18)
(0.000924822 -0.0033505 -7.96297e-17)
(6.35283e-06 -2.89475e-06 -4.28645e-19)
(-1.89302e-05 0.000428163 -7.44416e-18)
(-0.000438439 0.000347942 -4.54961e-18)
(-6.51129e-06 4.43779e-06 8.42943e-20)
(-0.00206968 0.00124746 -9.79353e-19)
(1.51537e-05 -2.537e-05 3.89841e-19)
(0.000341874 0.000944554 2.49636e-17)
(1.69518e-05 -6.07507e-05 -6.8041e-18)
(3.58088e-05 -1.2531e-05 1.42488e-18)
(-0.00731751 0.00068573 1.50253e-17)
(-0.000113156 0.000622666 -1.96049e-18)
(-0.00268899 0.00357142 4.1156e-19)
(-0.003032 -9.4007e-05 1.65069e-17)
(-4.24312e-05 0.000198303 -1.28055e-18)
(0.00443922 -0.001858 -2.62331e-17)
(0.00148835 -0.000152976 -2.01561e-18)
(-2.85393e-05 0.000541936 -7.21184e-18)
(0.000219192 0.000258094 -8.39343e-19)
(0.00426182 0.00463976 4.91141e-17)
(-1.19755e-06 2.99844e-06 1.30635e-18)
(0.0146756 0.0248645 2.6612e-17)
(-0.00122115 0.00137058 6.6316e-18)
(-0.00221849 0.00440075 1.6559e-17)
(-6.85067e-05 0.00890482 -4.62864e-18)
(-2.90165e-05 0.00523751 1.33126e-17)
(-1.14467e-05 8.85141e-05 1.06488e-19)
(3.78349e-05 0.00509528 9.45012e-17)
(-0.000420096 0.000341623 -2.58396e-18)
(0.00196226 0.000762166 -1.01513e-17)
(-0.00453813 -0.003459 8.88313e-18)
(0.000175266 0.000732021 -5.27058e-18)
(0.00247982 0.0063973 -1.95616e-18)
(-6.9628e-07 2.88481e-06 -1.1576e-18)
(0.00399108 -0.00750916 -2.54088e-17)
(0.0036683 0.0073892 -4.66186e-17)
(7.39748e-05 -6.78623e-06 1.98095e-18)
(0.00455784 -0.00240533 -2.57492e-17)
(0.000437205 0.00568229 -2.74644e-18)
(-0.00157071 0.000792277 6.78589e-17)
(-0.00118221 -0.000886351 -2.13282e-18)
(0.000354136 0.00362954 -2.63591e-18)
(3.05747e-05 1.56216e-05 -1.02964e-20)
(-6.83546e-05 7.44335e-06 1.76805e-18)
(-0.000856261 0.00333233 -1.72261e-18)
(9.58151e-05 0.000291062 -4.12279e-18)
(3.4664e-05 -1.03736e-05 -2.61395e-18)
(0.00521368 0.000227126 -2.31602e-17)
(2.4636e-05 -3.36048e-05 5.45746e-18)
(-0.00239095 0.00356478 -1.63419e-18)
(-0.000523386 0.000607194 -3.89102e-17)
(-0.00625477 0.000847406 -1.23169e-17)
(7.44876e-05 -9.26504e-06 -2.15128e-18)
(0.00208706 0.000564875 1.7503e-17)
(0.00437369 -0.0018847 2.97064e-17)
(-0.000805091 0.00274573 1.06589e-18)
(-0.00200481 -0.000525101 -3.78349e-18)
(1.48132e-05 -6.46334e-05 1.61359e-18)
(-0.00165489 0.00449004 -1.48797e-17)
(4.65696e-06 -0.000121968 7.60462e-18)
(0.000106559 0.000298038 1.22088e-18)
(0.000293226 -0.000300074 -1.47135e-18)
(0.000316455 -0.000300726 1.95853e-18)
(-0.00224504 -0.000272013 1.8241e-18)
(9.04967e-05 -0.000297136 5.11207e-17)
(7.10364e-05 7.90533e-05 3.86499e-20)
(-0.00642963 -0.00300571 8.58735e-17)
(0.00164494 -0.000682462 1.19943e-16)
(3.54503e-05 0.000485534 -9.0076e-19)
(4.92383e-05 8.95704e-06 -7.95757e-18)
(-0.00290422 -0.000472974 -1.59012e-18)
(-0.00042421 0.000655815 -1.70962e-17)
(0.000163201 0.000146071 3.9417e-20)
(-0.00264146 -0.000569755 1.49887e-17)
(-4.82719e-05 7.31883e-05 -1.3399e-18)
(0.00662239 0.0254537 -2.47468e-17)
(2.9808e-05 4.32568e-05 -2.44992e-18)
(7.16664e-05 9.06979e-05 2.6194e-20)
(0.00690515 0.000937514 -1.19033e-17)
(0.000178746 0.000705502 -3.19605e-18)
(-0.00730912 0.000452033 3.47954e-17)
(-0.00276447 -0.000545902 4.44935e-18)
(0.00190178 0.00271584 8.50246e-18)
(0.000225222 0.000273361 8.13025e-19)
(-0.000181582 0.00150463 -1.65327e-17)
(2.47982e-05 -2.19216e-06 -1.03023e-18)
(-0.000547534 0.00539492 -6.27744e-18)
(2.45098e-05 -3.78146e-05 2.14682e-18)
(-0.000413065 0.000356485 -7.69409e-18)
(0.0034417 0.000699001 -1.55925e-16)
(0.000847903 0.00277528 1.40491e-18)
(0.00621822 -0.000881124 -8.34548e-17)
(-0.000415266 -0.000929501 -2.39513e-17)
(3.79575e-05 9.09313e-06 -2.15824e-18)
(-0.00144889 0.00366801 4.13137e-18)
(0.00315252 0.000558169 7.01094e-17)
(0.000400651 0.00216209 -2.54784e-17)
(-0.00121927 0.00376778 -2.00484e-18)
(0.000116114 -0.000221736 3.81165e-17)
(0.000149801 -0.00022809 4.17013e-18)
(5.47968e-05 -1.06417e-05 7.79151e-19)
(2.56415e-05 3.98804e-05 -3.92023e-20)
(-7.40646e-05 0.000437404 2.62101e-17)
(2.63091e-05 3.35589e-05 2.4191e-19)
(0.00216277 -0.000518383 -1.15368e-16)
(-0.000399 0.000348197 1.58416e-17)
(-4.07183e-05 0.000194369 -4.79594e-19)
(0.000346262 0.000176042 -2.972e-19)
(3.08691e-05 1.92545e-05 -4.47078e-21)
(-0.00331497 0.000727907 6.65416e-19)
(-0.000292692 0.000819208 1.21541e-17)
(0.00150942 0.00235818 -1.9657e-18)
(-0.000507528 0.000591288 1.60491e-17)
(9.9076e-07 2.48738e-05 2.36081e-19)
(-9.51502e-06 5.93006e-06 -6.67984e-19)
(0.00139476 -0.00278714 7.74172e-17)
(-0.0059152 -0.0041815 -3.02416e-17)
(0.000760688 -0.00147721 1.68482e-17)
(-3.16142e-05 0.000156228 1.71001e-18)
(7.74245e-05 4.08051e-05 6.06234e-19)
(-0.00289215 -0.00189781 7.11783e-18)
(-0.00019848 0.00154128 -8.00389e-18)
(0.000104439 -0.000349873 2.2488e-17)
(3.73702e-05 1.04495e-05 8.58407e-19)
(0.000590858 0.000693351 4.93173e-18)
(-0.000861793 -0.00424577 1.11563e-17)
(1.63268e-05 0.000648914 3.0636e-19)
(0.000227423 0.000242337 6.76929e-19)
(9.58207e-05 0.000541251 -4.82618e-18)
(-0.00576853 -0.00751609 8.27336e-17)
(-0.00454908 -0.00289874 -5.029e-18)
(0.000329081 0.000982461 -1.98134e-17)
(0.00677363 0.00110076 -3.66625e-18)
(8.5375e-05 -0.000281424 1.65679e-18)
(0.0020637 0.00154466 2.39594e-17)
(0.000102451 -0.000177419 -1.50257e-17)
(-2.25782e-05 0.000726648 -5.08255e-18)
(0.00587291 0.00043923 9.32968e-18)
(8.92538e-05 -8.648e-05 -1.36692e-18)
(2.55648e-05 3.54941e-06 1.07271e-18)
(0.000208153 -0.000340483 1.51149e-17)
(0.0122153 -0.00548163 -6.36562e-17)
(0.000161325 7.11381e-05 -2.48421e-18)
(-4.88397e-05 6.8216e-05 2.43297e-18)
(0.000387491 0.00369842 -3.09284e-18)
(-0.00393949 0.0016826 -4.95938e-18)
(0.000618563 0.000723991 8.96598e-18)
(-0.0010532 0.00364114 -3.03545e-18)
(-0.00299251 0.00106899 1.81615e-17)
(-0.000349485 0.000853544 9.78316e-18)
(0.00238296 -0.000332749 2.09556e-17)
(4.43388e-05 -6.44649e-05 1.53615e-18)
(1.41259e-05 1.04033e-05 -5.562e-18)
(1.06872e-05 -5.71402e-05 -4.39293e-19)
(0.00278069 0.00687294 4.81067e-17)
(-6.01822e-05 0.000683878 2.46722e-18)
(-0.000283317 0.000302385 -7.20177e-18)
(-1.93857e-06 4.96681e-06 9.59419e-19)
(0.000898285 0.00580558 1.72467e-18)
(-5.72271e-05 0.00044714 -3.03449e-17)
(-0.000729259 0.0032601 6.05294e-18)
(-0.00729809 0.000685156 -1.77776e-18)
(0.000984538 0.00110819 2.16213e-18)
(0.00157942 0.00110153 9.95184e-19)
(0.00528895 0.000200428 2.64203e-17)
(0.000335533 0.000185981 -1.01281e-18)
(-0.0078187 0.00741838 1.75293e-17)
(1.19275e-05 -6.87613e-05 -2.28209e-18)
(3.07708e-07 2.40682e-05 -3.62244e-19)
(-0.000162528 0.000365912 2.80197e-17)
(-1.78539e-08 -2.29295e-06 3.66852e-19)
(0.00621267 -0.000871381 8.8894e-17)
(0.00723727 0.00672777 1.31613e-17)
(-0.000333476 0.00344959 -3.66247e-18)
(-1.27221e-06 3.0884e-05 -6.43321e-19)
(-0.000464174 0.000657303 5.55526e-18)
(-0.000392493 0.00339088 3.75293e-18)
(-0.000492692 0.00111153 1.18497e-17)
(-0.000877756 -0.00108595 1.18823e-17)
(0.000304974 0.000229637 7.27982e-19)
(-7.22752e-06 0.000664151 -4.82431e-18)
(-0.00129773 0.000207043 1.42805e-17)
(-0.00379232 0.00181554 5.48416e-18)
(0.00209664 0.00104415 -1.01284e-17)
(0.000108006 -0.000160638 -6.05396e-18)
(3.93531e-05 -4.09686e-05 8.55667e-18)
(1.05158e-05 5.74439e-05 4.31807e-19)
(0.00288378 -0.00567212 -2.32601e-17)
(-5.066e-05 0.000659295 -9.04534e-18)
(-0.00742642 0.000625724 5.57907e-19)
(-2.95328e-05 0.000428544 1.05776e-18)
(0.000154216 7.60386e-05 -9.01722e-19)
(-0.00191839 0.00365491 8.68977e-18)
(0.00191928 0.00118096 6.43512e-18)
(-0.00013213 0.000187559 4.53281e-18)
(-1.61625e-05 0.000252888 -1.33324e-19)
(0.000110486 -0.000304312 6.51275e-17)
(0.0046007 -0.0015056 3.6002e-17)
(0.00233683 -0.00040045 -6.40263e-18)
(0.00479891 -0.000152791 2.92278e-17)
(-0.000126964 0.000636038 5.14729e-19)
(0.00086691 -0.000182249 -5.47614e-18)
(0.00257701 -0.000253165 -1.34399e-17)
(4.08934e-05 -0.000156779 7.45377e-19)
(-0.000174321 0.00085484 -1.41205e-17)
(-0.00223345 0.00148389 -5.5074e-18)
(2.14043e-05 0.000418955 -1.09905e-17)
(-0.00326465 0.00331759 1.55912e-17)
(7.60365e-05 3.66065e-05 -4.27075e-19)
(0.00584906 -0.00129976 2.37013e-17)
(-2.18905e-06 1.64674e-05 8.31621e-19)
(0.000144746 0.000732092 -1.44362e-18)
(0.000187305 0.000176844 6.51463e-19)
(3.24443e-05 -2.10833e-06 2.07732e-17)
(0.00138599 -0.00271341 -3.60729e-18)
(-7.4463e-05 0.00023426 -5.48201e-18)
(-0.000136282 -0.000307634 -4.03203e-17)
(-2.57892e-06 3.13929e-05 1.053e-18)
(0.00113589 -0.00036773 1.30697e-17)
(-0.00768177 0.000249133 -3.7667e-17)
(0.00682483 5.76904e-05 -8.98316e-17)
(0.000122743 -0.000151078 6.89568e-18)
(-0.000213434 0.000870532 1.68622e-17)
(-7.57132e-07 1.71766e-05 3.07204e-18)
(0.000203087 -0.000325023 1.37099e-17)
(2.94895e-05 3.88862e-06 -1.6107e-18)
(0.000158128 0.00072033 5.30927e-18)
(0.003808 -0.00516227 -2.82893e-17)
(0.00011065 -0.000160129 3.33781e-18)
(1.30653e-05 0.000414367 5.10017e-18)
(1.23921e-06 -0.000122337 2.24871e-18)
(0.00485166 -0.000445364 -3.27015e-17)
(-1.55013e-05 9.49919e-05 5.05594e-19)
(0.00664342 0.00447014 1.48006e-17)
(0.00459118 0.000502025 -1.40935e-17)
(0.00046977 0.00177761 -1.88926e-17)
(-1.38979e-06 5.36556e-06 -2.39312e-19)
(0.0131049 -0.00179008 -7.63256e-20)
(-0.00375733 -0.000546521 5.059e-17)
(0.00121238 0.00406719 -1.07717e-17)
(-0.00297046 0.00324748 -1.54751e-17)
(-8.5982e-05 0.000476881 -9.17401e-18)
(0.000201345 -0.000375113 -1.79099e-17)
(0.00147877 -0.00211068 3.01474e-17)
(-0.000488477 0.00066452 -1.42617e-18)
(-0.000227657 -0.00106161 5.95706e-18)
(0.000375265 0.000259155 6.72792e-18)
(-0.00453121 0.00096352 -3.57363e-18)
(0.000202103 -8.79685e-05 1.76516e-17)
(4.83724e-07 2.63405e-07 2.10909e-19)
(-0.000128096 0.000404127 -6.1468e-18)
(-0.0016456 0.00383092 -2.2496e-18)
(0.00116409 0.00558139 2.04747e-18)
(0.00709963 0.00200159 1.04416e-17)
(1.01696e-05 5.19355e-05 -2.93263e-19)
(9.90157e-05 -0.000351959 -2.23326e-17)
(2.64008e-05 3.69531e-07 -8.98084e-18)
(0.00390228 0.00113515 1.21439e-17)
(0.000917614 0.00123702 3.89394e-18)
(-0.000127764 0.000408647 -3.76018e-18)
(-3.50425e-05 0.000446757 3.6991e-17)
(0.000226217 -8.57986e-05 -1.11628e-17)
(4.45328e-05 2.522e-05 -2.67556e-18)
(0.000125143 -0.000226888 -4.60604e-17)
(-0.000620181 0.00284531 -8.15051e-18)
(-0.00491725 -0.00245295 2.41896e-17)
(1.73218e-05 -9.65425e-05 -3.29369e-18)
(3.24988e-05 5.92809e-07 -2.00391e-17)
(0.000121241 -0.000157273 6.58914e-19)
(-0.000291524 0.00260511 1.85556e-19)
(-0.00140582 -0.00116214 2.77146e-18)
(1.15755e-05 0.000550512 -1.8589e-17)
(-3.31852e-05 0.000161974 1.36044e-18)
(-0.00110101 0.000915744 -1.45728e-17)
(0.00182853 0.000691536 -1.04453e-17)
(0.00140523 0.00170702 -1.7164e-17)
(-2.73445e-05 0.000463369 -3.19425e-17)
(-0.00110633 0.00225737 1.29682e-20)
(0.00315459 0.000413193 -3.41845e-17)
(-7.62283e-05 0.000426142 -1.25049e-18)
(-0.000178846 0.000579846 -3.25838e-18)
(0.0188072 0.00979917 -2.7402e-17)
(1.94727e-05 6.48907e-05 1.87746e-18)
(1.01026e-05 -5.33572e-05 3.97733e-18)
(0.00160305 0.00162369 7.7185e-18)
(0.000400958 0.000825497 3.64864e-17)
(-2.1862e-05 0.000107125 -2.2457e-18)
(-2.10767e-06 1.51659e-05 -2.4238e-19)
(3.09049e-05 7.07794e-06 2.17382e-18)
(1.2731e-05 8.05955e-07 5.13958e-19)
(-0.000106783 0.000503274 -2.39887e-17)
(1.16208e-05 -5.54522e-05 7.06805e-19)
(-0.00158678 0.00137136 -6.57915e-18)
(-1.61207e-05 0.000531717 -3.60371e-18)
(5.86635e-05 7.9234e-06 -2.42694e-18)
(0.00179562 0.00585358 -3.15834e-18)
(-0.00333604 -0.0015265 -2.33754e-18)
(3.40442e-05 -4.0833e-05 2.17651e-18)
(0.00137932 -0.000427995 -5.27614e-18)
(0.00366214 0.000322217 3.94554e-18)
(9.46458e-05 -8.86868e-05 -1.09672e-17)
(3.33856e-05 -4.58188e-05 9.44005e-19)
(-5.32195e-06 0.000521854 6.34905e-19)
(-0.0047281 0.00154554 -2.51875e-18)
(-0.000999355 -0.00985005 7.23915e-17)
(-5.31757e-05 0.000258247 -4.08837e-18)
(8.69556e-06 -3.59519e-06 4.45041e-19)
(-0.00721227 0.00844405 -3.29571e-18)
(1.41687e-05 -6.79893e-05 -1.13769e-18)
(-0.000108368 0.000199644 -7.52919e-18)
(0.00375723 0.000196833 -1.71642e-17)
(-0.00344487 -0.00703127 2.66041e-18)
(-0.000279202 0.000295986 7.64268e-18)
(0.0205191 0.0140876 1.00622e-17)
(-0.0132423 -0.00242102 -2.94968e-17)
(0.00148994 -0.00312036 -1.5887e-17)
(-0.0026629 0.00196333 -2.21425e-17)
(8.4579e-05 -0.00024767 -3.77436e-17)
(0.00714059 0.00113063 3.23063e-17)
(-0.00210111 -0.00268245 -1.78825e-17)
(-0.00148952 0.0105798 4.18742e-18)
(-1.76199e-05 0.000254841 -3.90496e-18)
(-0.000483017 0.00127682 -2.98454e-17)
(-0.000673769 0.000862174 2.34521e-18)
(4.08824e-05 -0.000493754 1.03612e-17)
(7.7542e-05 -0.000532997 -1.71364e-17)
(4.21721e-05 -0.000159915 1.16178e-17)
(-0.000156346 0.00029786 -4.65335e-18)
(0.000221462 -6.72375e-05 -7.21086e-18)
(0.000217484 0.00172416 9.17506e-18)
(0.000129518 -0.000241658 3.41022e-18)
(1.48495e-06 3.94913e-06 -6.97222e-21)
(-6.59034e-05 7.70807e-06 2.66608e-19)
(0.000178649 0.000414387 2.82483e-18)
(0.000813004 -0.00261107 4.88766e-17)
(-0.000128136 -0.000354374 1.07734e-17)
(1.86578e-05 6.51488e-05 -1.40664e-18)
(0.00677843 -0.000221126 8.06767e-17)
(0.00020683 -9.12139e-05 -9.69902e-18)
(0.000111916 0.000544007 2.05235e-18)
(-0.000289827 0.000313979 3.34905e-20)
(-0.00760457 -0.00539466 5.04394e-18)
(-0.00120013 0.000520815 1.39225e-17)
(-0.0021724 0.00376917 -8.89211e-18)
(0.000179449 0.00016102 1.33762e-19)
(1.10297e-05 0.000405825 -1.55491e-18)
(0.00810103 0.0058931 8.72305e-18)
(3.80503e-05 -4.28908e-05 -1.5851e-17)
(0.00247681 0.000477079 4.28731e-18)
(-8.88291e-05 0.000421255 6.0936e-19)
(-6.14057e-06 0.000502321 1.577e-17)
(0.000209989 -9.53725e-05 5.43012e-19)
(2.61576e-05 4.30265e-06 2.80962e-18)
(5.68204e-05 1.04842e-05 8.15506e-19)
(0.00170647 0.00197214 -4.32963e-17)
(-8.34606e-05 0.00222993 1.92596e-17)
(0.00015766 -0.000110127 -8.40453e-18)
(-0.00831476 -0.00311403 -7.7262e-17)
(0.00771842 0.00638253 -7.66381e-18)
(0.000166476 7.70066e-05 1.28529e-18)
(0.00472683 0.000122093 4.60312e-18)
(0.00529048 -8.84329e-05 -1.69158e-17)
(-7.30257e-05 0.000101299 -2.6407e-18)
(-0.00168655 -0.00887631 9.8e-18)
(0.000678668 0.000282115 2.20328e-18)
(0.00322972 0.000502894 -2.9489e-17)
(0.000166996 0.000403412 -1.50623e-17)
(-0.00165757 0.00108665 3.51698e-18)
(0.000355993 0.00323329 4.55453e-18)
(-0.00142169 -0.0116941 3.35864e-17)
(0.00149595 0.00127304 -9.29387e-18)
(-0.00148462 0.00163034 -1.81873e-18)
(2.32122e-05 0.000285453 -9.28187e-18)
(0.00891695 0.00682556 -1.7767e-18)
(-0.00242384 0.00110513 -4.73067e-17)
(-6.87068e-05 0.000473115 2.56984e-18)
(-0.00450561 0.00115711 -1.97722e-17)
(-6.50619e-05 0.000491904 1.79101e-17)
(0.00390734 0.00126211 3.15245e-17)
(-0.000175065 0.000581217 2.79932e-18)
(-0.000753672 0.000728318 2.81459e-18)
(0.000267896 -0.000229239 -4.16424e-17)
(-0.00190795 0.000846063 1.13499e-17)
(1.76356e-05 1.1596e-05 7.30341e-18)
(-6.5068e-05 0.000420814 6.86334e-18)
(0.000425707 0.000840853 -5.05765e-19)
(-0.000447619 0.000669001 -2.88952e-18)
(3.83497e-05 9.58493e-06 -1.21762e-20)
(1.97637e-05 0.000567971 2.00429e-17)
(-0.0034991 -0.00659446 2.89921e-17)
(4.91131e-05 1.0483e-05 -3.94602e-18)
(-0.000110445 0.000860542 -1.28653e-18)
(0.0033087 -1.81123e-05 3.87194e-17)
(7.47591e-07 0.00037456 -8.99274e-18)
(-0.00770364 -0.00711166 5.23804e-17)
(-0.000620596 0.000946345 4.25825e-18)
(-0.00170693 -0.0101139 -8.09007e-17)
(2.56564e-05 0.000431328 8.50981e-18)
(-0.00115428 0.0012995 1.01532e-17)
(0.000710179 -8.79469e-05 8.00415e-18)
(0.000526008 0.00170191 -1.33299e-17)
(-9.49998e-05 0.000447872 -3.35942e-17)
(0.00681766 0.00163783 -6.15266e-18)
(-0.00416085 -0.000253007 -5.87521e-17)
(0.0108788 -0.00237024 3.68832e-18)
(4.41142e-05 2.45557e-05 -2.49004e-18)
(0.0014195 0.00209513 3.5216e-17)
(-4.93372e-05 0.000506425 -1.32981e-17)
(-0.0015422 0.00116921 8.00174e-20)
(-1.65645e-05 0.000148233 3.52661e-18)
(-0.000463421 0.000552606 -2.52763e-19)
(0.003374 -0.0105241 -1.34931e-17)
(0.00388141 0.0102132 3.56332e-17)
(-2.71103e-06 0.000403002 -2.15129e-18)
(0.000291658 -0.000145137 3.48679e-17)
(-0.0002814 0.00661317 8.62703e-18)
(-0.000728462 -0.00157644 -1.13388e-19)
(-8.2439e-05 4.19869e-05 1.17163e-18)
(-0.000773415 0.00109284 3.41779e-17)
(-0.00197463 -0.00105607 -6.10931e-18)
(0.000877716 -0.000135237 -2.49805e-17)
(0.000393415 0.000273952 -6.17897e-18)
(-0.00202844 -0.00351905 4.29986e-17)
(3.20752e-05 2.15526e-05 1.38597e-19)
(5.87691e-07 -1.88362e-06 9.80856e-20)
(-0.00629979 0.000782202 7.20243e-18)
(0.00113005 0.00739441 2.68221e-17)
(1.88511e-05 -1.60374e-05 3.69406e-19)
(-7.86975e-05 0.000362532 -1.35941e-17)
(-9.75481e-05 0.000847551 -1.15383e-17)
(4.90926e-06 1.00228e-05 3.85241e-19)
(0.00378692 -0.0114557 1.53518e-17)
(-0.000129826 0.000271497 8.15003e-18)
(0.000606664 0.000293345 -3.09387e-18)
(-0.000242351 0.00041018 2.82241e-18)
(1.60862e-05 0.000289559 6.82325e-18)
(1.31279e-05 -3.34564e-05 -1.16102e-17)
(0.00241215 -0.0133769 -2.34305e-17)
(5.69813e-05 3.31127e-06 4.14599e-19)
(1.29808e-05 -2.63651e-05 1.79878e-17)
(0.0108706 0.00787694 -1.5287e-18)
(-0.00219811 -0.00774743 -2.67897e-17)
(0.000219606 0.000223534 6.09479e-19)
(0.000261009 0.00326014 2.95149e-19)
(3.50586e-06 -0.000123724 1.03597e-18)
(1.11567e-05 -5.13794e-05 -4.55453e-18)
(2.24858e-06 0.000384116 5.33327e-18)
(0.000154134 -9.18001e-05 4.15729e-18)
(-0.000710132 0.000889126 1.50792e-17)
(4.14536e-05 8.66005e-06 -3.6381e-18)
(-3.42205e-05 0.000315572 -7.48455e-18)
(0.000999272 -0.00140759 -9.21693e-18)
(-0.000118234 0.000309179 -8.99037e-18)
(0.00702819 -0.0103554 2.83768e-17)
(1.5936e-05 -5.80761e-05 -7.88217e-19)
(-0.000360098 0.00049421 -1.59982e-18)
(0.000784741 0.00302731 2.75783e-19)
(0.000287103 -9.69642e-05 1.61606e-17)
(-5.60881e-05 8.43771e-06 -1.75459e-20)
(8.64041e-06 -7.16589e-05 -4.90366e-20)
(-0.000229964 0.000403141 -4.58985e-18)
(-0.000149852 0.000198612 -2.29393e-18)
(0.00591926 -0.00709298 3.50339e-17)
(0.0100464 0.00875609 -1.77932e-18)
(-9.44967e-05 0.000475715 1.2925e-17)
(-0.000337855 -0.000709134 1.39897e-17)
(-6.92348e-06 0.000386904 4.90006e-18)
(1.89589e-05 -5.44033e-05 3.86532e-18)
(-0.00434052 -0.0013756 1.07656e-17)
(7.48387e-05 0.00286462 -6.60653e-18)
(0.000169413 -0.00016442 -1.34754e-17)
(5.70516e-05 -8.84152e-06 -5.32379e-18)
(-0.00272729 -0.00225503 5.39666e-18)
(0.000123904 -0.000171182 -2.77545e-18)
(-0.000405053 0.00713353 1.10619e-17)
(5.28883e-05 -9.16754e-06 8.89755e-19)
(7.07215e-05 0.000539105 -2.8419e-17)
(0.00171237 0.00141418 5.87176e-18)
(-0.000346562 0.000704361 2.85756e-18)
(-0.00182081 -0.00316437 1.45891e-17)
(-0.000788509 0.00657399 -6.81711e-18)
(0.0068539 0.00724035 -3.44459e-17)
(0.000147721 -5.13472e-05 8.75145e-18)
(-0.00312829 0.00169095 -3.34774e-18)
(4.65257e-05 1.82049e-05 2.31468e-18)
(0.000200725 0.00521519 -1.15898e-17)
(-0.000575453 0.000932452 -6.66459e-18)
(0.00191276 0.00135468 3.53574e-18)
(-5.39602e-05 0.000501058 1.30021e-17)
(0.000170803 0.000160046 -3.78771e-19)
(0.000295683 -7.75287e-05 -6.61016e-19)
(-0.00014141 0.00033807 1.68791e-17)
(5.77535e-06 -3.36563e-06 -1.01062e-19)
(-0.00591188 0.000106977 8.61351e-17)
(-0.00419998 -0.00141997 -9.26712e-18)
(0.00795567 -0.00988787 -3.59769e-17)
(-0.00382183 0.00218506 -2.77573e-17)
(0.0105728 0.00797178 4.94165e-18)
(-0.00463767 0.00218398 -1.19522e-18)
(0.00162353 0.00134538 1.37143e-17)
(0.000135128 -0.000138894 4.38814e-18)
(-1.50472e-06 2.25042e-06 -2.52591e-18)
(-0.0110998 -0.00486824 -2.47737e-17)
(1.70577e-05 -2.85188e-05 2.0866e-18)
(3.63156e-05 9.54188e-06 -8.36364e-20)
(0.00015561 -0.000137635 -1.0384e-17)
(0.00573363 -0.00167559 -8.32624e-19)
(-0.000123615 0.000339604 -4.97324e-19)
(7.92684e-05 -9.51913e-05 -2.13672e-18)
(0.000940301 -0.000356674 1.4026e-17)
(-0.00014626 0.000572521 1.0248e-18)
(5.01724e-06 -3.1512e-05 8.92724e-18)
(0.0102859 0.0175852 -2.99626e-17)
(3.61148e-05 1.40522e-05 3.20997e-19)
(-0.0024838 -0.00396419 -9.84615e-18)
(0.0067364 -0.00608429 -5.55864e-17)
(2.98472e-05 4.05716e-05 -7.15884e-20)
(-0.00018301 0.00030175 -5.32655e-18)
(0.00100337 -0.00271012 3.1237e-17)
(-0.0020574 -0.0050611 -2.74825e-17)
(-1.69811e-05 0.000102681 -4.71194e-19)
(-0.00353229 -0.0104715 -2.00425e-17)
(-0.0137006 0.00217317 9.13024e-18)
(-0.000130806 7.64616e-05 1.5951e-18)
(-0.00714926 0.000489975 -7.02408e-18)
(0.00364821 -0.000882594 2.28591e-17)
(0.000794558 -0.000445314 -8.87133e-18)
(0.00014403 -5.73247e-05 2.16171e-18)
(0.0105594 0.00676787 2.87881e-18)
(0.0022626 -0.000102098 9.94659e-19)
(-0.000131544 7.96205e-05 -4.2847e-19)
(-0.00834143 -0.00109039 -3.63683e-17)
(7.30921e-05 5.92616e-05 4.20695e-19)
(3.7101e-05 9.82508e-06 3.63567e-19)
(0.0126259 0.0117677 -1.37309e-17)
(0.00362233 0.00149825 1.85692e-17)
(-7.54973e-05 0.000533997 -1.34494e-17)
(-0.00071957 0.000860139 -1.34222e-17)
(1.00948e-05 -3.75911e-05 -2.19866e-18)
(-0.000659821 0.00129518 -1.39535e-18)
(-0.00136255 -0.00445792 -7.68331e-18)
(0.00559405 0.00446752 4.98207e-17)
(-0.000126022 0.000109294 2.04726e-18)
(-0.00509651 -0.000148005 -5.8273e-17)
(3.92325e-05 9.09095e-06 3.60368e-18)
(7.44198e-05 7.10916e-05 -2.19132e-20)
(-9.22273e-05 0.000435383 3.07728e-17)
(-0.000447174 0.000481723 -7.73141e-19)
(-8.57983e-05 4.1548e-05 -5.47177e-18)
(0.000164188 0.000131987 -2.72867e-19)
(-0.00703104 0.00272418 -2.58424e-17)
(-0.00139767 0.000628308 -5.95469e-17)
(-0.00725073 0.00166524 -6.98011e-18)
(-0.000121001 0.000329588 -2.15247e-19)
(2.76566e-05 6.25865e-06 9.38466e-19)
(0.000955911 0.00258954 8.75362e-18)
(6.83701e-07 -3.51753e-05 -9.49662e-19)
(0.00108696 0.00271858 -1.93456e-17)
(-0.000273955 0.000479194 1.18098e-18)
(-0.000382472 0.000652293 -7.45301e-18)
(-8.26493e-05 0.000481966 -4.08055e-18)
(0.00376479 0.0042966 -5.92573e-18)
(0.00330954 0.000452411 -3.39558e-18)
(-4.66723e-05 0.000418629 4.89159e-18)
(-0.00214496 0.00160146 2.50865e-17)
(-0.000255436 0.000281695 2.81061e-18)
(-0.000323208 0.000413542 -2.25304e-18)
(0.000351819 0.00541999 4.38828e-19)
(-0.00588049 0.000958593 3.25665e-18)
(7.71893e-05 1.77182e-05 9.65093e-19)
(4.72961e-05 1.99506e-05 2.51888e-18)
(0.00016202 -0.000225928 6.16174e-18)
(-0.00698475 0.00312678 3.40906e-17)
(-0.000592761 0.00604674 2.95804e-17)
(-0.000693492 0.00125641 -3.03204e-18)
(0.010653 -0.00329428 2.45424e-18)
(-0.000477245 0.000489786 -3.36353e-18)
(-0.000192012 0.000566421 8.93039e-18)
(0.00133923 -0.00831181 6.38702e-17)
(0.00533419 0.0200176 -6.58631e-17)
(0.000782954 -0.000941549 -5.9941e-18)
(-0.00284384 -0.00340658 -1.10686e-17)
(0.00169134 0.00392928 2.13586e-17)
(0.00525246 0.00744414 8.33052e-18)
(2.92158e-05 0.000259907 2.54414e-20)
(-0.00010304 0.00297687 3.30741e-18)
(0.00752102 -0.00415506 -9.00179e-18)
(1.87128e-05 -7.6211e-05 4.32001e-18)
(0.00516073 0.00100004 7.42283e-17)
(0.00829886 -0.00877304 -4.74534e-18)
(0.000333152 0.000222216 1.73871e-18)
(-3.12583e-06 0.000707482 5.21352e-18)
(6.7664e-05 -1.69189e-05 -7.00137e-19)
(-0.00193093 -0.00170025 -1.13731e-18)
(0.000902199 0.000778648 1.42938e-18)
(-0.0105953 -0.00310573 1.21619e-16)
(5.85551e-05 1.87457e-06 8.1625e-19)
(-2.67299e-06 -1.54415e-06 3.62567e-19)
(8.43011e-05 -0.000163778 1.04363e-18)
(-0.000130469 0.000589979 -7.01121e-18)
(1.4767e-05 -5.65411e-05 1.16314e-18)
(0.00567832 -0.00134703 -2.13953e-18)
(-2.06419e-06 -3.25371e-06 -3.74975e-19)
(0.00194137 0.00365572 -2.22996e-17)
(0.000138999 -7.25727e-05 -7.55588e-18)
(-0.00156945 0.00126927 1.49142e-18)
(5.13587e-05 -7.89963e-06 -7.93847e-18)
(5.35898e-06 -2.4178e-05 1.01789e-17)
(0.000588426 0.000443956 1.37198e-17)
(-0.00527199 -8.46558e-05 -2.98768e-17)
(-0.000116381 0.000466066 -1.26158e-17)
(0.00671567 0.000770253 -1.1903e-17)
(8.1067e-05 0.000549229 1.33216e-17)
(5.53422e-06 1.07367e-05 -6.50353e-20)
(-7.46157e-05 0.00012945 6.1626e-18)
(-0.000196516 0.000365992 -3.04995e-18)
(-2.73965e-05 0.00031328 7.96347e-19)
(-0.00115446 0.000883571 -5.87667e-18)
(-0.000113309 0.000363108 -9.32602e-19)
(0.000160972 -0.00016256 1.24646e-17)
(-6.79871e-07 0.00379065 8.05955e-18)
(1.28416e-07 -3.50792e-05 5.74405e-18)
(0.0096375 0.00138167 -2.17803e-18)
(-1.42946e-06 1.8415e-05 -4.7221e-18)
(-0.00242002 0.00163253 -1.75667e-18)
(-0.00252574 0.00186844 -7.32189e-17)
(0.00218374 0.000808269 -1.15994e-17)
(6.05685e-05 -0.000195532 1.11451e-17)
(-0.0176189 0.000754643 -1.36818e-16)
(0.000857728 -0.000345863 -1.04405e-17)
(0.00292435 0.00293108 -3.36648e-17)
(0.00613132 -0.00813414 3.23421e-17)
(-0.000132273 0.000127011 6.64933e-18)
(0.00942994 0.0179119 4.41906e-17)
(0.000221082 -7.77907e-05 1.46092e-18)
(-6.93701e-05 0.000478222 -1.32625e-17)
(-0.00366576 0.00225035 5.52711e-17)
(-0.0251952 -0.00136139 2.18838e-18)
(-7.16591e-05 0.00010686 -1.91033e-18)
(-0.00101564 0.000948746 9.15666e-18)
(-0.000136497 0.000180137 -2.12737e-18)
(0.00504895 0.00673051 -4.05163e-19)
(0.00545874 0.000981277 1.79309e-17)
(7.4481e-05 0.000121682 -4.61128e-19)
(9.73861e-05 -0.000296667 -3.11212e-17)
(0.005665 -0.00717052 1.48282e-17)
(-1.18674e-06 2.27153e-05 1.07226e-18)
(-1.75018e-06 2.35403e-05 3.17106e-18)
(-0.00129989 0.00136381 -1.07792e-17)
(0.00941531 0.0011969 5.82954e-18)
(0.00878496 0.00561767 4.88576e-18)
(3.12602e-05 -4.28335e-05 7.74183e-18)
(0.000239508 -0.000420963 4.89039e-17)
(-0.000115651 0.000300411 1.15002e-18)
(7.96623e-06 -8.59063e-06 -3.02021e-18)
(0.000471488 0.00485882 2.50331e-18)
(0.000323497 -0.000330604 -3.3176e-17)
(-7.43919e-05 0.00150711 -3.62168e-17)
(-7.65653e-05 3.42452e-05 -2.95801e-19)
(-0.000491028 0.00279599 4.04801e-18)
(0.000291474 -0.000182202 -5.88203e-19)
(-0.00109664 0.00113576 6.43714e-18)
(3.63472e-05 -0.000116688 3.23114e-17)
(0.000147574 6.1459e-05 1.4439e-18)
(0.000897174 0.000701615 9.22831e-18)
(8.5785e-05 -0.000161048 7.12907e-18)
(-0.000732937 0.00309621 -4.47139e-18)
(4.04959e-05 0.000517175 -1.80228e-17)
(1.25021e-05 0.000472356 1.15543e-17)
(0.000789909 -0.000767237 -6.70936e-19)
(0.0016378 0.00326491 8.64947e-18)
(0.003648 -0.00279636 2.59865e-17)
(0.000141185 0.00859915 -4.40197e-18)
(-0.00741898 -0.0129592 1.00426e-17)
(-0.00101486 0.00350554 -4.17562e-18)
(-0.00667417 0.000599422 1.63519e-18)
(0.000483494 8.45642e-05 3.89473e-18)
(0.0127136 0.0118397 1.46336e-17)
(0.000988288 -0.000553219 5.41921e-18)
(-2.24199e-05 0.000184921 1.0942e-18)
(-0.000191535 0.000557426 -1.33754e-17)
(0.00277977 -0.00239483 1.71858e-17)
(0.00020723 0.000352053 -2.63796e-18)
(2.89282e-05 4.40304e-05 4.2538e-19)
(2.70758e-05 4.32872e-05 -8.82996e-19)
(-0.00217549 0.00192139 -8.78835e-18)
(-0.00103004 0.00149228 1.51141e-18)
(-0.000351817 0.000503615 2.16401e-18)
(0.0044817 0.000589833 -4.5076e-18)
(6.77255e-06 9.78988e-06 2.16911e-19)
(0.00955264 0.00454083 -5.22032e-18)
(0.000307731 -0.000511959 4.32887e-18)
(0.00390177 0.00031596 1.39686e-17)
(-0.000933209 0.00116176 1.21448e-17)
(1.88794e-05 0.000433671 -1.11686e-17)
(-0.000100387 0.000353802 -1.2508e-18)
(0.00404841 0.000143699 2.28833e-17)
(-0.000186776 0.00125357 6.82381e-18)
(0.000469165 0.000102119 -1.83906e-18)
(0.000424491 0.00750479 -1.86501e-17)
(9.41703e-06 0.000280428 2.77925e-18)
(-0.0104317 -0.00325334 -7.71939e-18)
(-0.00237056 0.00189319 4.11984e-18)
(0.00228802 0.00349981 1.28904e-17)
(-1.20123e-05 0.00052079 -4.41764e-17)
(-0.00190869 -0.00469212 7.57421e-18)
(3.27578e-05 2.23607e-05 -6.37884e-19)
(-1.64974e-06 1.94331e-05 2.47744e-18)
(3.98816e-05 -0.000151205 8.12739e-18)
(9.14098e-06 -1.15712e-06 7.04369e-18)
(-0.000317699 0.00455207 6.65005e-20)
(1.33465e-05 2.17201e-07 -2.34101e-19)
(0.000516734 0.0053469 4.65323e-18)
(-0.000165454 0.00237777 -7.97442e-18)
(-0.000937514 0.00127939 -1.7908e-17)
(0.00658098 0.00348388 9.0938e-18)
(0.00318722 0.000534777 -1.10813e-17)
(0.00270655 0.00358097 -3.37333e-18)
(0.00270895 0.00371795 4.57405e-17)
(7.01751e-05 -0.000186869 -2.12276e-17)
(1.98479e-07 -4.10111e-05 -3.48239e-18)
(3.44573e-05 8.21657e-06 2.81421e-18)
(-3.90415e-05 7.11098e-05 -5.19143e-19)
(-6.62334e-05 0.000129411 -6.24494e-18)
(-9.51615e-08 -3.67382e-06 -1.94795e-18)
(-0.000269549 0.000335075 -1.40509e-17)
(-0.00274756 -0.000122713 1.98216e-17)
(0.000299686 -0.000197311 7.51902e-19)
(-0.00278774 0.00661248 1.82522e-17)
(0.00013445 0.000149493 2.07731e-19)
(-0.00248909 0.00134539 6.02582e-18)
(9.52154e-07 7.52457e-06 -1.64086e-18)
(0.00239449 -0.00434721 -3.66645e-18)
(0.000222756 0.000674852 1.17538e-18)
(2.0359e-06 1.56217e-05 2.92957e-18)
(1.30497e-06 -0.000110962 -3.32775e-18)
(0.00212095 0.000749362 5.06894e-18)
(-8.8974e-06 0.000433971 1.04341e-17)
(0.00755115 0.00299717 -1.33273e-17)
(0.00521068 -0.0091326 -3.85084e-17)
(-4.66202e-05 0.000716507 -9.49047e-18)
(0.000280776 0.000450174 1.82252e-17)
(-0.000134152 7.36358e-05 -1.0181e-19)
(-0.0038184 -0.00357061 1.37619e-17)
(0.000174845 -4.0413e-06 -9.20779e-18)
(-0.000116471 0.000346863 1.19701e-18)
(0.000524281 0.00405075 -1.10302e-17)
(2.56392e-07 -4.06388e-05 -8.90868e-18)
(8.55744e-05 -8.8257e-05 3.09955e-18)
(-8.82858e-05 0.00015083 2.15282e-18)
(-0.000497718 0.000948193 -2.10887e-18)
(-0.0033393 0.00124817 -1.22021e-17)
(7.6864e-05 0.000493803 -1.85175e-17)
(-3.33316e-05 0.000508397 -8.87821e-19)
(-0.00290569 -0.00068552 -6.92159e-18)
(0.00489872 0.00444824 -5.31629e-17)
(0.00010041 -0.000171855 -4.29397e-18)
(0.000231613 3.22229e-05 -5.35637e-18)
(0.00219885 0.00697081 -5.71374e-18)