/*--------------------------------*- C++ -*----------------------------------*\
| =========                 |                                                 |
| \\      /  F ield         | OpenFOAM: The Open Source CFD Toolbox           |
|  \\    /   O peration     | Version:  v2012                                 |
|   \\  /    A nd           | Website:  www.openfoam.com                      |
|    \\/     M anipulation  |                                                 |
\*---------------------------------------------------------------------------*/
FoamFile
{
    version     2.0;
    format      ascii;
    class       volScalarField;
    location    "450";
    object      k;
}
// * * * * * * * * * * * * * * * * * * * * * * * * * * * * * * * * * * * * * //

dimensions      [0 2 -2 0 0 0 0];


internalField   nonuniform List<scalar> 
13917
(
0.000165986
0.000149512
0.0637124
0.000155052
0.000148665
0.000192056
0.0609027
0.066322
0.0815457
0.000173756
0.000211621
0.000186838
0.000155241
0.0148057
0.000155411
0.000154451
0.000149861
0.000176953
0.000186424
0.00014867
0.000149766
0.060342
0.000148559
0.0639937
0.000148275
0.0564779
0.000161511
0.000164186
0.000208711
0.000185231
0.000167734
0.000158488
0.000160048
0.000154442
0.000148416
0.000721546
0.000148616
0.0469844
0.000158726
0.0198952
0.000147595
0.000149899
0.000145268
0.000168076
0.000149507
0.000155785
0.000176706
0.000184747
0.000382872
0.000147993
0.000159486
0.000149807
0.000437732
0.000154776
0.000149909
0.000158722
0.000210812
0.000148681
0.000155915
0.00014929
0.0856883
0.000149537
0.00822128
0.000148591
0.000190828
0.0371651
0.000148638
0.000148495
0.000213092
0.000163448
0.000148712
0.0816662
0.0435692
0.00014828
0.00039773
0.000190553
0.0316232
0.000151813
0.0524932
0.000149555
0.000149328
0.00014868
0.000188447
0.0512984
0.0457546
0.000151572
0.000149154
0.0159817
0.000159101
0.000145247
0.0486377
0.000180132
0.000148105
0.000151313
0.0244822
0.000188265
0.000200359
0.000182407
0.000205495
0.000170091
0.00014673
0.000158532
0.000167907
0.000153018
0.000146888
0.0836196
0.000194267
0.000185769
0.000149906
0.000168527
0.0466027
0.0218455
0.000192935
0.0831287
0.000151129
0.000420731
0.000148097
0.000260432
0.0277657
0.000154707
0.000149816
0.000212506
0.031158
0.000163594
0.000147822
0.000150981
0.000149237
0.000147888
0.000145293
0.00019032
0.0444432
0.000150965
0.000149597
0.000149819
0.012561
0.0627891
0.000166096
0.000170675
0.000148592
0.000154555
0.000222106
0.000147231
0.000150385
0.000170262
0.000148508
0.0770635
0.000212949
0.000149662
0.000146855
0.000158944
0.000181012
0.000424632
0.000193016
0.000163914
0.000158255
0.0254216
0.000162617
0.0138002
0.0256784
0.0137679
0.000153058
0.000161534
0.000149555
0.000199271
0.000192404
0.000204864
0.000152925
0.000181834
0.000148591
0.000158962
0.0001646
0.0250141
0.000195236
0.000150708
0.0633639
0.000165038
0.0469808
0.000301128
0.072936
0.000148089
0.000181388
0.000168661
0.000147212
0.000149091
0.000158099
0.0565162
0.000225394
0.0312536
0.000167669
0.000202984
0.00016805
0.050541
0.000215353
0.00014863
0.000171488
0.000161145
0.00015439
0.000148168
0.00018185
0.00246811
0.000159228
0.000148095
0.00018019
0.000180844
0.0381634
0.00595619
0.000148406
0.000148769
0.000182079
0.0591387
0.000150157
0.0617527
0.027897
0.000203074
0.000146908
0.000199881
0.000179229
0.02825
0.000147945
0.0830794
0.000148021
0.000184479
0.000147356
0.0500859
0.0841925
0.000154809
0.000421704
0.000158658
0.000146919
0.000712612
0.000194636
0.000167467
0.0610215
0.0229338
0.000146395
0.000159038
0.0534511
0.0353292
0.0001495
0.000147606
0.022047
0.000203571
0.000149758
0.000149324
0.000189394
0.000161144
0.000165291
0.000149498
0.000164326
0.0256429
0.000149414
0.000185688
0.000173294
0.000149127
0.000148625
0.000187291
0.0286293
0.000191427
0.000158281
0.000155686
0.00014979
0.025723
0.0850309
2.34664e-05
0.000146952
0.0403524
0.0247718
0.0227592
0.0516806
0.000192147
0.000149404
0.000147456
0.000177116
0.0433849
0.00019725
0.000155495
0.00907534
0.000176088
0.000145218
0.0657265
0.000148501
0.0660011
0.000158539
0.000149722
0.000156875
0.00016387
0.000161664
0.000140936
0.000160189
0.000149721
0.000133328
0.0605574
0.0879159
0.00014794
0.030275
0.000149084
0.000149718
0.000148128
0.00023159
0.000148573
0.000186296
0.0001646
0.000148483
0.00018052
0.000152135
0.00033926
0.000164702
0.000178804
0.000147956
0.000148558
0.0435767
0.029664
0.00014807
0.00014742
0.0621908
0.00014803
0.0470563
0.000147841
0.053157
0.000151634
0.000224823
0.000166819
0.000433851
0.000152659
0.00195786
0.000184572
0.000156907
0.000203466
0.000201382
0.000149635
0.0446407
0.000171323
0.0288658
0.000153707
0.0210519
0.000159823
0.0572082
0.00018104
0.000173443
0.000172821
0.0641766
0.000149415
0.000165133
0.0514996
0.000149291
0.000152382
0.0264528
0.000185028
0.000150584
0.000106582
0.000204456
0.000146976
0.0239774
0.000401798
0.000148457
0.000147359
0.000149136
0.000146826
0.000153095
0.0693381
0.000206363
0.0488102
0.000148198
0.000188203
0.0087324
0.000173982
0.0610675
0.0483868
0.0837157
0.000146417
7.68714e-05
0.000147232
0.0774633
0.000149262
0.000450157
0.000189299
0.000157048
0.000149285
0.000180998
0.000183345
0.000183853
0.000594763
0.0522873
0.0219514
0.000164732
0.00017279
0.000147648
0.0387709
0.0585841
0.000148803
0.000363496
0.000148326
0.000193321
0.000151602
0.000149485
0.000152123
0.0472354
0.000152041
0.0319935
0.0113585
0.000206928
0.00019495
0.000149589
0.000194458
0.000191899
0.000148204
0.000186724
0.000149218
0.000148328
0.000185088
0.00014972
0.000148326
0.000147198
0.000227135
0.000149633
0.0244148
0.0487133
0.0056459
0.000214892
0.0384545
0.0285932
0.000173575
0.000148205
0.000204043
0.000158319
0.000160229
0.000148586
0.0745977
0.0596265
0.0468531
0.0001543
0.000192757
0.000153291
0.000159446
0.000183835
0.000151494
0.000108096
0.000149896
0.000148544
0.0520948
0.0453754
0.0475142
0.000184028
0.00376035
0.04882
0.0551348
0.0311205
0.000145482
0.000179545
0.000151596
0.000148911
0.00126257
0.000177342
0.000148825
0.000178272
0.000171929
0.0293946
0.000148181
0.00019826
0.0135712
0.000245843
0.0295234
0.000149685
0.000148843
0.000154305
0.00016262
0.000146427
0.0540475
0.000200655
0.000160181
0.0380001
0.000158673
0.000199964
0.0601357
0.000214681
0.000205896
0.000212623
0.000198346
0.000176944
0.000203611
0.000175381
0.000211313
0.000207502
0.000178962
0.000188951
0.000148191
0.00603109
0.000160356
0.000146933
0.000161818
0.000152152
0.0319548
0.0830814
0.000147949
0.00014546
0.0555177
0.023471
0.000149721
0.0241735
0.000152649
0.00020282
0.000148056
0.03565
0.00976945
0.000158944
0.000150226
0.041732
0.000210807
0.0126302
0.000149777
0.0289098
0.000339827
0.0648046
0.000147043
0.0415141
0.0855838
0.000174216
0.00014732
0.000149778
0.000190585
0.000277948
0.000148133
0.00014737
0.000147588
0.000147553
0.0352105
0.00171134
0.00017384
0.000221443
0.000147978
0.000146768
0.000192412
0.0761542
0.000164826
0.00014871
0.000148291
0.000148457
0.0701262
0.055524
0.000149109
0.000148464
8.23326e-05
0.000174999
0.000166812
0.000148782
0.000152205
0.000157256
0.000188336
0.000194886
0.000225638
0.000205378
0.000191862
0.00616588
0.000178619
0.000147986
0.0300184
0.000148468
0.000152824
0.000156008
0.00587832
0.000170127
0.000146846
0.000250121
0.000188243
0.00846925
0.000191984
0.000160296
0.000173339
0.000149217
0.0875865
0.000228536
0.0631431
0.000149595
0.000161732
0.000225344
0.0505682
0.00961477
0.000183378
0.000187211
0.000154265
0.000154227
0.000148805
0.000165259
0.000168785
0.000149214
0.000179068
0.00017243
0.06435
0.0148984
0.000153644
0.000199193
0.0063837
0.000157873
0.000149952
0.000437142
0.0816989
0.0770264
0.000218678
0.000145407
0.0268783
0.000190145
0.000147298
0.00016261
0.000188045
0.000159486
0.000185163
0.0531535
0.000203188
0.000171912
0.0875557
0.000152809
0.0261999
0.000149562
0.000149062
0.0330627
0.082681
0.000206727
0.000152811
0.000150554
0.000148473
0.000176547
0.000436228
0.000203045
0.000154586
0.00020356
0.000180613
0.000148092
0.000415101
0.000202348
0.000128579
0.000147888
0.000202651
0.000152051
0.0141576
0.000174415
0.000169918
0.000161993
0.000147089
0.000146775
0.000149395
0.00017433
0.000156033
0.000246768
0.000525964
0.00018134
0.000147032
0.000201774
0.000207821
0.00195435
0.000149266
0.000155679
0.000147417
0.000163387
0.000156177
0.0843506
0.000149499
0.000857785
0.000162948
0.000211249
0.00017979
0.0429795
0.000170847
0.000149636
0.0408001
0.0104155
0.00014875
0.000155912
0.0118622
0.000208545
0.000197327
0.000149544
0.000150346
0.00020746
0.000157301
0.000183405
0.000186091
0.000146848
0.000181039
0.0638155
0.000149252
0.000153454
0.000147724
0.0277928
0.000149758
0.000153888
0.0270675
0.000152053
0.0798851
0.000158252
0.000160269
0.000147676
0.000166372
0.000148168
0.000175937
0.000147119
0.000173544
0.00015263
0.0186389
0.000321846
0.0760593
0.000152907
0.000149333
0.000177686
0.000170451
0.0321037
0.0806418
0.000176506
0.000148374
0.000229979
0.000206731
0.000137752
0.000224736
0.000176646
0.0510351
0.000165261
0.00017472
0.000198891
0.000178539
0.000176157
0.000235773
0.000175446
0.000154728
0.000189445
0.000157053
0.00014799
0.000163107
0.00016876
0.00015829
0.000148228
0.000147534
0.000181046
0.000153708
0.000183547
0.000148356
0.000148396
0.000149811
0.000151951
0.000145155
0.000156216
0.000147862
0.0343551
0.000186482
0.000187633
0.000146563
0.000149626
0.000163397
0.000177311
0.000150638
0.0777327
0.000175146
0.0629507
0.000163102
0.000195806
0.000151136
0.000149781
0.000147436
0.000152126
0.0191814
0.000149681
0.0239332
0.000156621
0.01053
0.000165176
0.000175823
0.000210592
0.00014608
0.000149934
0.000186871
0.000148508
0.000150004
0.0650406
0.000150901
0.000149141
0.000159521
0.000147545
0.000145967
0.00015849
0.000156455
0.0263059
0.00016378
0.000149249
0.00014731
0.0551436
0.000174443
0.000149392
0.000149597
0.0697423
0.00932183
0.0221022
0.000160268
0.000154738
0.000146473
0.000145802
0.00017941
0.000164471
0.000148706
0.000153996
0.0413826
0.000150012
0.000152293
0.0184316
0.000148366
0.00016062
0.000148483
0.00014843
0.000167885
0.000161889
0.000151036
0.0810126
0.0263449
0.000180368
0.000147983
0.000145765
0.000202381
0.0195937
0.000149717
0.00373168
0.000145701
0.000167784
0.000148373
0.000148235
0.000332202
0.000149271
0.0179055
0.000167756
0.000149809
0.00014551
0.000148769
0.000147734
0.000153208
0.000427662
0.000148938
0.000147767
0.0768691
0.0802334
0.000172906
0.000169696
0.000183075
0.000156701
0.000147357
0.000156305
0.0359517
0.000174333
0.000148816
0.000150041
0.0817164
0.00016843
0.0551891
0.000149762
0.000150822
0.0255118
0.000166606
0.000151309
0.0173111
0.000284234
0.000147681
0.000195934
0.000147421
0.000149108
0.000146498
0.0444242
0.000145068
0.000149624
0.000147352
0.0240799
0.000157386
0.000202655
0.000165682
0.000148314
0.000158724
0.000149105
0.0503052
0.000147726
0.000149068
0.000149151
0.000203379
0.000149094
0.000203313
0.0211125
0.0580279
0.000155311
0.000132286
0.0320533
0.000148533
0.0227828
0.0841347
0.0360621
0.0386894
0.0758438
0.00933973
0.000199683
0.000149884
0.0524048
0.000166406
0.0581678
0.000146863
0.000148109
0.000149432
0.000149057
0.00015808
0.000158254
0.0335532
0.000148028
0.000148476
0.0119233
0.000188311
0.000148749
0.000160374
0.00016136
0.000150164
0.000310753
0.000160442
0.000152498
0.000157218
0.0214552
0.0230129
0.000253684
0.000148231
0.000210868
0.000188295
0.0339357
0.0840991
0.000194614
0.000148054
0.000151319
0.00015
0.000144663
0.000152171
0.000145394
0.000157367
0.000164757
0.0421447
0.000202142
0.000149656
0.000195418
0.0567935
0.000166924
0.00014968
0.0278045
0.000148348
0.000149783
0.00016049
0.0431937
0.000149089
0.000147918
0.0625524
9.7754e-05
0.00381886
0.000194306
0.000931996
0.000147738
0.000205725
0.000149788
0.000147955
0.000149802
0.0553684
0.0273677
0.000147861
0.000145512
0.000148605
0.0133796
0.000151699
0.000162071
0.000148483
0.000150236
0.000204213
0.000148441
0.000176597
0.000198806
0.0479166
0.000148969
0.00017254
0.000153828
0.0402966
0.0544365
0.000148289
0.0425218
0.000184421
0.000265508
0.000149084
0.0469177
0.0001496
0.000158428
0.000166818
0.000194165
0.0575446
0.000137597
0.000218945
0.0837377
0.000146973
0.000216534
0.000148232
0.000157025
0.0631795
0.000148955
0.000149657
0.000151483
0.000149983
0.0405012
0.000145942
0.000148497
0.000181295
0.000170677
0.000177556
0.000203959
0.000204712
0.0185978
0.000186993
0.000167724
0.000174101
0.0376393
0.00017354
0.0711646
0.0558089
0.000157879
0.000148533
0.0371767
0.00013447
0.000149676
0.000192876
0.000165317
0.000151136
0.000158655
0.000150167
0.000167053
0.000149943
0.000176265
0.000170884
0.000147265
0.000177669
0.000148174
0.000167049
0.000147095
0.000154903
0.000179956
0.000154054
0.000149938
0.000147886
0.000289582
0.000177325
0.076598
0.000148333
0.000149382
0.000181702
0.000148479
0.00018612
0.000177286
0.00015113
0.000189744
0.000148048
0.0797583
0.000149572
0.000171584
0.029647
0.000224506
0.000147798
0.000152654
0.0178408
0.000147971
0.000147496
0.0378938
0.0494262
0.000153002
0.000214518
0.000148603
0.000149944
0.0554236
0.000151929
0.000146151
0.000109057
0.000148303
0.00772645
0.000149284
0.000146134
0.000149401
0.000205483
0.0361653
0.000149091
0.000149631
0.000147731
0.00015525
0.000148393
0.000227307
0.000177411
0.000149773
0.0712128
0.000165185
0.000212269
0.0511629
0.00042936
0.000147677
0.000149537
0.000148776
0.000209475
0.000155636
0.0361169
0.0305527
0.00015261
0.0622846
0.000317157
0.000176759
0.000208036
0.000169663
0.000188979
0.0570727
0.000167599
0.00032928
0.0541589
0.000186123
0.000154544
0.0386213
0.000164228
0.000147009
0.000153393
0.0799295
0.000163271
0.000147892
0.000166719
0.000188084
0.000165134
0.0383026
0.000152979
0.0794057
0.000173963
0.000146132
0.000195717
0.000212822
0.000160744
0.000147922
0.000150666
0.0612683
0.000148007
0.000152859
0.000147326
0.000152232
0.000148161
0.000160538
0.000210671
0.000295493
0.000162951
0.000164801
0.0455523
0.000192851
0.000148213
0.0108629
0.0521475
0.000146657
0.000147446
0.000162582
0.0224925
0.00014967
0.000182002
0.000213568
0.000167282
0.000148767
0.000153608
0.000148467
0.00019277
0.000163423
0.000147802
0.0239533
0.0516323
0.000163882
0.00497335
0.000186567
0.00389263
0.000151961
0.000157133
0.046436
0.00971432
0.000194894
0.000266817
0.000159022
0.000149834
0.00014922
0.000149518
0.000148503
0.000150486
0.000167146
0.000147849
0.000202545
0.000147536
0.000160136
0.000148011
0.000176007
0.00020293
0.000274201
0.000148453
0.000212545
0.000149207
0.0455995
0.000148314
0.000154353
0.000148773
0.000240264
0.0390043
0.000207811
0.000147842
0.000202073
0.000148722
0.000160286
0.0481545
0.000148924
0.000149835
0.000169863
0.000162619
0.0617938
0.000147869
0.00015842
0.000153852
0.00014827
0.000158752
0.000150363
0.000146243
0.000152255
0.0284817
0.000154585
0.000122383
0.0760909
0.000176024
0.038251
0.000154173
0.000146284
0.000159061
0.0230035
0.000154267
0.000162512
0.000174313
0.00371644
0.00014761
0.00396746
0.000178353
0.000182665
0.000146576
0.00014559
0.000216803
0.000149991
0.0001499
0.000159145
0.000146849
0.000153231
0.000159541
0.000187815
0.000181736
0.059215
0.00015825
0.000188497
0.0114489
0.0164992
0.00017163
0.0001821
0.02169
0.000170247
0.0777387
0.000152237
0.0116587
0.00369119
0.000147044
0.000149723
0.000147663
0.000151986
0.000169309
0.000148115
0.0001526
0.000194597
0.000153044
0.000160477
0.0448117
0.000157687
0.000155242
0.0817164
0.000151295
0.0243939
0.000156249
0.000165276
0.00014754
0.0274597
0.0277764
0.000148737
0.000152303
0.0478007
0.000157303
0.0156901
0.000148022
0.000148329
0.0639163
0.000152094
0.000162563
0.00867113
0.000148457
0.00017624
0.000159905
0.00014559
0.000147287
0.0510109
0.0300927
0.000149781
0.000153901
0.000148794
0.000156898
0.000160103
0.0294462
0.000150617
0.000329188
0.0283207
0.000129061
0.0145701
0.00015189
0.000202521
0.000178961
0.000157031
0.000148415
0.000183935
0.0466556
0.000151915
0.000163032
0.0661877
0.000458225
0.000182996
0.000154026
0.000149613
0.00014961
0.000148472
0.023587
0.000179645
0.00015488
0.000152622
0.000154976
0.00014979
0.000148373
0.000148503
0.000188042
0.000172756
0.0684598
0.000163534
0.00922343
0.0340443
0.000158821
0.000177175
0.000146686
0.000157916
0.0232884
0.000149314
0.000152738
0.000178305
0.000197569
0.00016437
0.0468934
9.63678e-05
0.000148337
0.0437337
0.000145353
0.00015031
0.000163934
0.000149811
0.000149415
0.000213029
0.0778309
0.000148311
0.0489534
0.000149274
0.000147634
0.000152599
0.000351214
0.000159653
0.000156255
0.0815652
0.000151753
0.000162077
0.0432907
0.000149607
0.000163726
0.000147944
0.0204376
0.000182585
0.000148527
0.0530147
0.000178288
0.00016796
0.000149849
0.0261591
0.000157336
0.000188123
0.000153213
0.000167765
0.0274453
0.000147747
0.000250452
0.000149042
0.000177835
0.000163966
0.000149601
0.0318803
0.000152486
0.000197193
0.000177254
0.000169644
0.00016306
0.000163218
0.000150455
0.0656352
0.000159248
0.0207276
0.000157996
0.000185583
0.000148798
0.000168725
0.00014871
0.000188255
0.058149
0.000151058
0.000147402
0.000439381
0.000152105
0.0166355
0.000150917
0.0516854
0.000150375
0.0001637
0.000147983
0.000147664
0.000148689
0.000145448
0.000190553
0.000166112
0.000160847
0.000156197
0.000148454
0.00934629
0.000154103
0.000162959
0.00672635
0.00014861
0.0155334
0.000177955
0.000164719
0.000249009
0.0418939
0.000128109
0.05208
0.039651
0.000147588
0.000199726
0.031255
0.000187148
0.000149098
0.000149441
0.000200467
0.0527502
0.0244381
0.00024369
0.000151295
0.000164467
0.000170738
0.0418405
0.00307454
0.000174095
0.000202571
0.000153251
0.000176798
0.000194752
0.000149041
0.000188602
0.0736479
0.000148812
0.0179616
0.000149666
0.000149088
0.035418
0.0515406
0.000146919
0.000151577
0.000150723
0.000148265
0.000166539
0.000214142
0.00015352
0.000147885
0.000148574
0.000173864
0.000158871
0.000158447
0.000138935
0.000148441
0.0551255
0.016524
0.0650544
0.000175919
0.000174187
0.0024723
0.000165953
0.0513629
0.00606706
0.0241253
0.000150201
0.0838657
0.036391
0.000146369
0.000148235
0.000185362
0.0541497
0.0748646
0.000148403
0.000148739
0.0458241
0.0029468
0.016974
0.000153777
0.000152635
0.000291035
0.000149375
0.0516052
0.0320152
0.00221517
0.000716856
0.000148813
0.00014778
0.000147128
0.00015498
0.0372993
0.000173016
0.000158092
0.000150481
0.000173375
0.0234101
0.0001739
0.0701118
0.0153551
0.026783
0.000311232
0.000148382
0.000149088
0.0506781
0.000145808
0.00014691
0.00015155
0.000371014
0.000169007
0.0393387
0.000194802
0.000148229
0.0787185
0.000167669
0.000148151
0.0169466
0.000176108
0.000153942
0.000150132
0.00559162
0.0584227
0.000149146
0.0788445
0.0306736
0.0598617
0.000540757
0.000176649
0.000148052
0.000151187
0.000348182
0.000156755
0.050691
0.000168631
0.0024347
0.000120319
0.000151044
0.000157491
0.000148127
0.000150677
0.0550456
0.0210453
0.000148475
0.0224168
0.000174612
0.000148767
0.000153806
0.000147653
0.000205759
0.000150652
0.000315792
0.000164821
0.000148006
0.000147049
0.0001697
0.0228177
0.000169766
0.00015345
0.000169104
0.000148663
0.000152676
0.000160369
0.0185061
0.0318787
0.0563235
0.000146145
0.000146995
0.000150004
0.00020297
0.000147284
0.000150153
0.000213394
0.000181688
0.00117182
0.000146843
0.0593165
0.0319275
0.000149885
0.0178572
0.000198521
0.000171207
0.000314795
0.000149834
0.0375608
0.000157665
0.000151404
0.000152632
0.000145766
0.000161763
0.000154256
0.000152813
0.000157868
0.0324384
0.0380755
0.000149617
0.000148038
0.000153154
0.000148952
0.000197341
0.00015003
0.000184509
0.000154081
0.0448442
0.000152255
0.0628116
0.000146203
0.0790219
0.000150656
0.000145676
0.0614052
0.000184656
0.000171504
0.00185704
0.000162432
0.000171728
0.000148483
0.0346587
0.000148459
0.000147314
0.000168705
0.000186428
0.0464751
0.0396121
0.000195631
0.0809743
0.00019379
0.000165629
0.000148734
0.000156199
0.000161076
0.0554672
0.000153699
0.0534592
0.0320502
0.000150577
0.000148786
0.000148637
0.000375521
0.000423724
0.000153594
0.000148681
0.000155238
0.000158993
0.00016954
0.000237442
0.000194665
0.000148324
0.000202973
0.000182493
0.0218527
0.000183257
0.000152211
0.000154004
0.0768125
0.000147102
0.000185588
0.0604954
0.000150835
0.000155731
0.000215001
0.000173013
0.000150816
0.0256579
0.000154953
0.000225611
0.000174563
0.000158426
0.000152273
0.0557667
0.000147034
0.000171709
0.000261017
0.0583203
0.000174161
0.000176476
0.0001583
0.000163866
0.000149753
0.0600363
0.000159532
0.000149365
0.000162185
0.000148523
0.000149776
0.000376704
0.00014845
0.000149119
0.000148788
0.000203093
0.000149542
0.000162177
0.000187907
0.000203731
0.000191476
0.000149663
0.000184088
0.000193721
0.000207121
0.00018193
0.000155937
0.000205121
0.0569647
0.000245777
0.000149887
0.0596578
0.0517356
0.000149882
0.000154485
0.000145637
0.000218105
0.00018571
0.000149848
0.000251449
0.0529186
0.000146691
0.000149432
0.047476
0.0344866
0.00018694
0.000145867
0.0521434
0.0385764
0.000477963
0.000148189
0.0572084
0.000192518
0.000167712
0.0488344
0.00015798
0.000145733
0.000161942
0.000200806
0.000164768
0.051079
0.0615913
0.000147397
0.0774797
0.000199079
0.0361773
0.000146205
0.00016351
0.000149665
0.00014806
0.0624742
0.0154932
0.000230666
0.0205448
0.000158052
0.000174859
0.000151878
0.0611275
0.0238926
0.000148477
0.000149977
0.000158345
0.000148688
0.000177556
0.0668761
0.0837965
0.000175435
0.000150918
0.000150407
0.0620558
0.000154103
0.000177608
0.000147218
0.000151452
0.000247681
0.0184601
0.000265089
0.000359733
0.000149076
0.000206967
0.000152902
0.000163905
0.0856522
0.0200917
0.000148472
0.000149956
0.000170238
0.000154607
0.000149354
0.0674284
0.0548642
0.000147705
0.000144943
0.00014922
0.000147739
0.000331463
0.000147749
0.0487986
0.000190995
0.000186387
0.000148077
0.00016737
0.0642621
0.000166474
0.000195436
0.0480203
0.000149583
0.0261417
0.00015895
0.000159754
0.000190356
0.0259804
0.0355903
0.000184804
0.000147659
0.000190532
0.00014779
0.000154088
0.00014941
0.0476054
0.000159178
0.00195119
0.000147794
0.000174586
0.00014877
0.000214153
0.000159507
0.000149785
0.000182152
0.000145258
0.000173018
0.000165745
0.000149299
0.0815566
0.000152262
0.000203768
0.000150968
0.000147639
0.0546948
0.0494809
0.000152901
0.000158627
0.000172977
0.000172203
0.000183415
0.000159388
0.000155341
0.000156759
0.000164924
0.000154114
0.0477021
0.000166826
0.000108687
0.000201583
0.000151947
0.0697949
0.000145287
0.0606123
0.000152956
0.0526654
0.0093587
0.0334709
0.0509065
0.00019909
0.0001687
0.000149694
0.0647684
0.000170044
0.000148532
0.0210029
0.074142
0.000151718
0.000154874
0.000161505
0.000161553
0.000165895
0.0344753
0.000149883
0.000164842
0.000169359
0.00015964
0.000149034
0.000193092
0.00014576
0.0491605
0.000152461
0.000194214
0.000163166
0.000170334
0.000184031
0.0181472
0.000182936
0.00014741
0.000188334
0.0626263
0.0701106
0.000151216
0.0460615
0.000161302
0.000292871
0.00014846
0.000153703
0.0547419
0.000181125
0.0277139
0.02495
0.000159124
0.0731192
0.000148503
0.00014573
0.0213076
0.000164967
0.000153641
0.0786421
0.00015783
0.000163493
0.00015797
0.000177668
0.000149689
0.0658552
0.0670879
0.00999189
0.00023463
0.000156708
0.000172281
0.0292726
0.000153164
0.000149758
0.000177005
0.000146138
0.000184265
0.049634
0.0228575
0.0292366
0.000181534
0.000151453
0.0601939
0.000145357
0.000188258
0.000149546
0.0438306
0.000153206
0.000164689
0.0408016
0.000194248
0.000148078
0.000159625
0.0103378
0.000148836
0.000204968
0.0001475
0.0704089
0.0534342
0.000198605
0.000167492
0.000147602
0.000162176
0.000206585
0.000169956
0.000147485
0.000151725
0.000148895
0.000181241
0.000148767
0.000193328
0.000149061
0.000147833
0.0826247
0.000148206
0.000157796
0.000157453
0.000149822
0.0466572
0.000148034
0.000161831
0.0578658
0.000179552
0.0456297
0.000148786
0.057935
0.000180795
0.076758
0.000152771
0.000202882
0.000150624
0.00017185
0.000202813
0.000200711
0.00021934
0.0536244
0.000210016
0.000415942
0.000155613
0.000199758
0.000163289
0.000851745
0.000153991
0.000150398
0.000148578
0.000179787
0.000165143
0.00988082
0.000178579
0.0572336
0.0704347
0.00017035
0.00014861
0.0277357
0.000178576
0.000150165
0.000152918
0.000148888
0.053968
0.000148547
0.0184373
0.000148082
0.000160108
0.0362349
0.000170946
0.000148366
0.000148526
0.0248887
0.000148006
0.00015311
0.000156767
0.000161075
0.000158946
0.00014938
0.000210361
0.000167802
0.000162899
0.000234896
0.0442476
0.0447924
0.0299254
0.000146279
0.000148367
0.000172149
0.000151453
0.00016335
0.0459375
0.0442757
0.00014581
0.000148463
0.0432198
0.000350255
0.000146004
0.000147486
0.000155326
0.0573371
0.0535881
0.000157667
0.000162916
0.000149302
0.000238508
0.000203565
0.000173895
0.000158271
0.000163857
0.000149989
0.000167325
0.000178424
0.000150816
0.000149874
0.000157225
0.0617719
0.000154418
0.0222486
0.00014866
0.0524372
0.000162423
0.000156352
0.000146498
0.000147571
0.000256831
0.0694233
0.000164839
0.0258073
0.057262
0.000150321
0.0532851
0.000207695
0.000148432
0.0349632
5.99115e-05
0.000198339
0.000149667
0.0418775
0.0372296
0.00014935
0.000162945
0.0313133
0.00016679
0.000148835
0.000147724
0.000150659
0.000154882
0.000183032
0.000208898
0.000167507
0.000180557
0.000146512
0.000149395
0.0529196
0.000147839
0.000168612
0.00015526
0.000150731
0.000174872
0.000148199
0.000152639
0.00023368
0.000147943
0.0420321
0.000148223
0.00563454
0.0512712
0.000188654
0.0001496
0.000149947
0.0583829
0.000145676
0.000154182
0.000149819
0.000205642
0.000529543
0.000165487
0.0503378
0.000162807
0.00358171
0.000150312
0.000186391
0.000148411
0.000148882
0.0219065
0.0483966
0.00040906
0.000153401
0.000185169
0.000185803
0.0394541
0.0579161
0.000245106
0.000167414
0.000145297
0.0498559
0.000148763
0.000148998
0.000221035
0.000200656
0.000156916
0.000178161
0.000163994
0.000159925
0.000158899
0.0758127
0.000155125
0.000147918
0.0205425
0.0001642
0.000146514
0.0366638
0.000148117
0.000148696
0.000205765
0.00018716
0.0406361
0.000146626
0.000153845
0.000147754
0.000310832
0.000147887
0.000199084
0.0246022
0.0481916
0.0341372
0.0162806
0.000157616
0.0419182
0.000221587
0.000149369
0.000158579
0.000162909
0.000157872
0.000246525
0.0452822
0.0507045
0.0480579
0.000354035
0.000149257
0.000196721
0.000148154
0.0220719
0.00016088
0.000153635
0.000154472
0.000151532
0.000147844
0.000195361
0.0521468
0.000146154
0.000153537
0.000146984
0.0395382
0.000153323
0.0773476
0.0456349
0.000282098
0.000148592
0.000147906
0.0377627
0.00018986
0.000148876
0.000191564
0.000149498
0.000188453
0.000177609
0.000190145
0.000178975
0.0453453
0.000147234
0.000148505
0.00021892
0.0374132
0.00016035
0.000166805
0.000148088
0.016777
0.000148258
0.000147629
0.000152497
0.000148436
0.0073425
0.0448156
0.0053464
0.000184952
0.0581481
0.000227966
0.000145768
0.000164648
0.000146197
0.000252228
0.000149481
0.000153953
0.000148329
0.000147524
0.000148059
0.000414367
0.000152897
0.000276868
0.00014653
0.000158613
0.000158165
0.000265293
0.000148292
0.000164488
0.000169435
0.00017249
0.0771312
0.000147527
0.0340557
0.00017662
0.000164866
0.000149698
0.00014787
0.0386932
0.00937325
0.000149571
0.000148505
0.000202932
0.000205657
0.000160655
0.0580468
0.000150904
0.000224261
0.000164998
0.000146145
0.0640073
0.000153736
0.0536309
0.000148522
0.000151416
0.000148754
0.0406312
0.0462936
0.00014594
0.000180845
0.000235939
0.000148288
0.000148385
0.000147728
0.00018244
0.0568959
0.000175486
0.000156489
0.000168147
0.000148201
0.000148777
0.000153761
0.000147973
0.000216135
0.00014884
0.000185854
0.000262334
0.000165303
0.000145367
0.0417231
0.000187159
0.00014825
0.000178474
0.000163636
0.00387514
0.000153302
0.084029
0.000176044
0.000148561
0.000183675
0.000183996
0.000155575
0.0813193
0.000184392
0.000164983
0.00556395
0.000148264
0.000185928
0.000168951
0.000182442
0.00014765
0.000148371
0.000145635
0.000158733
0.00018218
0.00018138
0.0703956
0.0322495
0.046617
0.000149766
0.000296121
0.0526479
0.0636665
0.00014837
0.000148753
0.00017932
0.0572766
0.000153289
0.000168953
0.0123107
0.0345874
0.00548244
0.000171221
0.000206499
0.0418449
0.000100857
0.000145813
0.00245415
0.000228533
0.000150397
0.000150942
0.000151238
0.0587948
0.000185776
0.0686963
0.000153792
0.0180721
0.000149603
0.00336268
0.03562
0.000149472
0.000167466
0.0473764
0.053766
0.000175092
0.000151997
0.000152605
0.00014994
0.000185521
0.000203124
0.000912217
0.061188
0.000146973
0.0189685
0.000192523
0.00072175
0.000148077
0.000149035
0.00608403
0.000182074
0.00014826
0.000173341
0.00016706
0.000160942
0.0479201
0.0637863
0.0631599
0.0583908
0.000154865
0.000146505
0.000166121
0.0293317
0.0721329
0.000149135
0.000183141
0.000169069
0.000192539
0.000152063
0.000149694
0.000238209
0.0227947
0.0187059
0.000274718
0.0264237
0.000147805
0.00018222
0.0570107
0.000149515
0.000165506
0.000192462
0.000146072
0.000207395
0.0736559
0.000180244
0.000149686
0.0213371
0.000197062
0.055254
0.000144783
0.000154749
0.000149419
0.000154095
0.000149289
0.000171556
0.000162974
0.000162656
0.000184991
0.000167137
0.0434468
0.000154283
0.000163942
0.000158446
0.0201635
0.000164781
0.0327305
0.000158099
0.000156344
0.0106519
0.000169592
0.000148842
0.00016291
0.0235283
0.0722434
0.000172503
0.000148451
0.000147977
0.000148317
0.0025515
0.000151848
0.000331257
0.000257712
0.000181989
0.000161631
0.000214753
0.0278583
0.000149272
0.0769335
0.000160387
0.000163656
0.000148465
0.000149002
0.00017608
0.0583818
0.000148425
0.0298669
0.000219505
0.000170003
0.000200658
0.000147992
0.000148107
0.000162776
0.000153195
0.0650843
0.0289757
0.0001699
0.000254851
0.000148391
0.000149394
0.000149822
0.000149605
0.082203
0.00015337
0.040717
0.000168704
0.00015217
0.00018918
0.00100907
0.0421074
0.0202701
0.000154043
0.000148347
0.000148817
0.00015494
0.000214305
0.000180579
0.0822671
0.000148983
0.000151463
0.000176335
0.000149709
0.000155842
0.000152335
0.000174975
0.000176322
0.000162835
0.000163099
0.00014665
0.000173387
0.000162601
0.000181086
0.000167731
0.000163227
0.000147096
0.000188695
0.000147831
0.00110406
0.0505601
0.000224647
0.0001489
0.000171031
0.000148657
0.000175699
0.000152335