/*--------------------------------*- C++ -*----------------------------------*\
| =========                 |                                                 |
| \\      /  F ield         | OpenFOAM: The Open Source CFD Toolbox           |
|  \\    /   O peration     | Version:  v2012                                 |
|   \\  /    A nd           | Website:  www.openfoam.com                      |
|    \\/     M anipulation  |                                                 |
\*---------------------------------------------------------------------------*/
FoamFile
{
    version     2.0;
    format      ascii;
    class       volScalarField;
    location    "450";
    object      p;
}
// * * * * * * * * * * * * * * * * * * * * * * * * * * * * * * * * * * * * * //

dimensions      [0 2 -2 0 0 0 0];


internalField   nonuniform List<scalar> 
13917
(
-0.0948413
-0.00776333
-0.115736
-0.0451311
0.025849
0.455948
-0.101901
-0.130112
-0.22875
-0.149445
-0.115942
-0.0851958
-0.0456603
-0.143378
0.0419148
0.0184906
-0.00104046
-0.140974
-0.0841493
0.00617926
0.0175473
-0.0968036
0.0115845
-0.135557
0.0237554
-0.0849744
0.215785
0.227019
0.0848728
-0.208426
-0.110409
-0.0518673
0.169108
0.108835
0.029098
-0.106513
0.0116404
-0.146784
-0.0521442
-0.0641731
-0.00498775
0.0159084
-0.0165486
0.252193
-0.0290233
0.125203
-0.138188
-0.143951
0.506672
0.000445621
-0.0774513
0.056618
0.509974
0.112968
0.000404426
-0.0776048
-0.117176
0.0217645
-0.0622231
-0.0276678
-0.398444
-0.00940436
-0.141939
0.00632644
0.446542
-0.397671
0.0276591
0.0350656
-0.166127
-0.0594558
0.0253399
-0.227776
-0.250448
0.0229961
0.49221
-0.0767156
-0.21546
-0.0440706
-0.0754902
0.0172224
0.0136155
0.0271094
0.431359
-0.14821
-0.416513
-0.0430416
0.0112204
-0.360563
-0.0755771
-0.0168966
-0.21844
-0.189382
-0.0131814
0.0442441
-0.395923
0.449333
-0.134798
-0.143847
-0.0825444
0.327884
-0.00671561
0.16674
0.261158
-0.0519635
-0.00969076
-0.237199
0.054577
-0.147005
-0.00301271
-0.112192
-0.340425
-0.0648752
-0.0871566
-0.234225
0.0733634
0.513178
0.013777
0.497139
-0.0936062
0.111289
0.016008
-0.166592
-0.107266
0.220867
-0.00128958
0.0428369
-0.0239871
-0.00103127
-0.0144391
0.45667
-0.104321
0.0710941
-0.029256
0.0179181
-0.286707
-0.131623
-0.0920848
0.342421
0.0278865
0.110625
-0.111247
-0.0173724
0.0587744
0.287209
0.0356036
-0.222581
0.0251422
0.0547503
-0.0167298
-0.0468518
-0.114149
0.508796
-0.109888
-0.0261249
-0.0686416
-0.424941
-0.054379
-0.154011
-0.215784
-0.295462
0.0788785
0.216304
0.0144278
-0.132463
-0.0878694
-0.0833915
-0.0509705
-0.128025
-0.0229208
0.172371
-0.0469328
-0.365253
-0.0843257
0.0017375
-0.197022
-0.019047
-0.101772
0.504284
-0.216482
-0.0002956
-0.195524
-0.116304
-0.0179899
0.0115003
0.074696
-0.0875261
-0.292285
-0.421531
-0.112771
-0.0917813
-0.132267
-0.416598
-0.289522
0.0158791
0.360894
0.207664
-0.00902122
-0.0131614
0.036631
-0.364516
-0.067306
0.000757455
-0.12019
-0.112201
-0.249024
-0.249718
0.0288565
0.0226243
-0.140792
-0.0965677
0.0566033
-0.104897
-0.250056
-0.092865
-0.00927612
0.310169
-0.131631
-0.325848
0.0109112
-0.391628
-8.05682e-05
-0.197875
-0.00451309
-0.161943
-0.242978
0.0175672
-0.308995
-0.0719454
-0.00863448
-0.106343
-0.0831572
-0.111157
-0.118393
-0.251835
-0.00853269
-0.0553601
-0.219467
-0.42396
0.0149403
0.0010378
-0.0626675
-0.141753
0.00410892
-0.0987427
-0.183338
0.208932
-0.0905913
0.014048
0.0162946
-0.237033
-0.032581
-0.217721
0.342722
-0.023903
0.0225341
-0.103297
-0.0642959
-0.108809
0.0732046
0.0381726
0.00442272
-0.10579
-0.300699
-0.0869944
-0.00807286
-0.278061
-0.151979
-0.156103
-0.0715602
-0.0771548
0.0140802
-0.00247606
-0.137574
-0.180697
-0.173313
-0.0604594
-0.25143
-0.0689451
-0.0143877
-0.337813
0.00492236
-0.194298
-0.0653826
0.00405238
0.0112951
-0.0208297
0.216475
-0.0996556
0.00924079
-0.0348305
-0.278604
-0.118644
-0.295276
0.0112578
-0.168069
0.0245169
-0.0348932
0.0133867
-0.00863729
0.00250366
-0.203647
-0.0856542
-0.022679
-0.120416
-0.025849
0.51478
-0.017238
-0.182619
-0.0223839
0.0217531
-0.345772
-0.115461
0.0133853
-0.00338771
-0.345144
-0.00450163
-0.248229
-0.0215712
-0.163942
-0.0377474
-0.273773
-0.095449
0.472292
0.0751748
-0.288581
0.345006
0.00898595
-0.144107
-0.0803073
0.0209344
-0.119386
0.357285
-0.153683
0.0976614
-0.0747331
-0.0619542
-0.38298
0.341082
0.0295046
0.0173537
-0.114354
0.0186543
-0.0536386
-0.341573
0.0367604
0.012799
-0.144453
0.0307895
-0.00347897
-0.131474
0.120935
-0.00484295
-0.0932235
-0.116714
0.00502709
-0.00137375
0.0244272
-0.0171461
-0.27306
-0.209308
0.411699
-0.347801
0.0190966
-0.225208
-0.420017
-0.108185
-0.102406
-0.182679
-0.240308
-0.00905161
-0.0870489
-0.00308888
-0.390879
-0.0266794
0.461916
-0.186605
-0.0551377
0.0190941
-0.137642
-0.202573
-0.161279
-0.0938949
-0.381021
-0.326749
0.0102964
-0.141562
0.00121682
-0.424886
-0.0938043
0.0168683
-0.285345
0.0235812
-0.241315
-0.037848
0.0186323
-0.0208229
-0.067089
-0.0189408
-0.0656581
-0.409891
-0.106881
0.379939
0.0189882
0.327403
0.361963
0.00949768
0.0613711
0.0352538
0.0248766
-0.207129
0.00451222
0.0254287
-0.0034403
-0.268654
0.0172019
-0.0759586
-0.0684961
-0.410827
-0.285259
-0.0706643
-0.30872
-0.105918
0.0185821
-0.22512
-0.051941
-0.0610181
0.0158994
-0.210732
-0.0972568
-0.0710865
0.0304708
-0.188542
0.0945613
-0.0532797
-0.158818
-0.00568104
-0.0851826
-0.0041859
0.00258892
-0.249364
-0.100873
-0.0996101
-0.207762
-0.411224
-0.120083
-0.30792
-0.191845
-0.0136733
-0.139719
-0.00766123
0.0253788
-0.250593
-0.139874
-0.0158835
-0.161758
-0.107
-0.182638
0.00935899
-0.152281
-0.407477
-0.307641
-0.0805158
0.0176267
0.0181652
-0.00935339
-0.048834
-0.00911401
-0.0820851
0.418742
0.00733989
-0.424814
-0.0767307
-0.13032
-0.308867
0.0163852
-0.105181
-0.113089
-0.151983
-0.15998
-0.21236
-0.0878437
-0.0971254
0.444694
-0.0827552
-0.146366
-0.0117277
-0.276751
-0.0810066
-0.0235719
-0.0438527
-0.0464687
-0.186739
-0.238359
-0.0039662
-0.0142442
-0.0930565
-0.309503
0.00430654
-0.0794141
-0.0476761
-0.26702
-0.00280658
-0.264398
-0.202342
-0.0498348
-0.0258945
-0.0706587
-0.281458
-0.426522
0.00465526
-0.24494
0.511155
-0.348417
-0.0236672
-0.418962
-0.29534
-0.105963
-0.00205017
0.00578127
-0.0742466
-0.242777
-0.0160149
-0.00111264
-0.000936254
-0.00123247
-0.276915
-0.253739
-0.105354
-0.288609
-0.00270862
-0.00631669
-0.184384
-0.269271
-0.101458
-0.0239761
0.0242987
0.0306216
-0.343602
-0.414959
0.00949953
0.0299779
-0.0863375
-0.0885205
-0.094372
0.0194569
-0.0162643
-0.0344279
-0.143413
-0.0608739
-0.295953
-0.226879
-0.169307
-0.247039
-0.181059
0.0125281
-0.23952
0.0303676
0.0118873
-0.0573142
-0.27297
-0.0195154
-0.00627442
-0.305108
-0.218894
-0.404851
-0.171179
0.116762
-0.109723
0.0193917
-0.297039
-0.287239
-0.126032
-0.00368086
-0.0892485
-0.293287
-0.185031
-0.279085
-0.146966
-0.216937
0.0227648
-0.04595
0.0207363
0.0957216
0.280177
0.0494811
-0.128672
0.346251
-0.127209
-0.426846
-0.0193764
-0.128117
-0.198561
0.00583433
0.052671
0.347649
-0.255819
-0.204112
-0.281646
-0.0143004
-0.0952266
-0.0753078
-0.0062863
-0.0881798
-0.12569
0.161049
-0.203859
-0.0757658
-0.20843
-0.0835387
-0.294565
-0.0486418
-0.193554
0.0153728
0.00970077
-0.166302
-0.253681
0.419901
-0.0492051
0.000153434
0.0294366
-0.0703423
0.502317
-0.0831474
-0.0484009
-0.104999
-0.134758
-0.00232665
-0.293345
-0.0818067
-0.0773137
0.00847029
-0.203199
-0.0456628
-0.409248
-0.155451
-0.0279551
-0.0904674
-0.00387473
-0.021741
-0.0251682
-0.013919
0.126343
-0.276277
0.0892488
-0.128233
-0.00437053
-0.212785
0.413521
-0.114515
-0.031971
0.116826
-0.000463072
-0.067008
-0.0647086
-0.297651
0.017718
-0.343213
-0.068414
-0.113405
-0.188058
-0.257829
-0.050991
0.00625815
-0.190793
-0.279932
0.00849093
-0.0561901
-0.211549
-0.275
-0.169667
0.00413488
-0.0272083
-0.255848
-0.0558016
-0.160907
-0.102488
-0.0223018
-0.109687
-0.12118
-0.0314484
-0.0431742
-0.000270296
-0.112622
0.0184113
0.0305913
-0.369035
0.0221654
-0.252654
-0.0673826
0.172988
-0.00058884
-0.0309943
0.0138307
-0.158117
-0.00368538
-0.108605
-0.0473806
-0.400566
0.190343
-0.271446
-0.00845537
0.0190811
-0.174118
-0.127849
-0.137513
-0.252183
-0.142841
0.0274787
-0.263354
0.437693
-0.0779164
-0.271142
-0.132232
-0.0728533
-0.0851591
-0.0683652
-0.220597
0.0583615
-0.14063
0.432661
-0.141129
-0.0488715
-0.127807
0.00451461
-0.0263091
-0.0667905
-0.113586
-0.0421657
0.0162694
-0.00306357
-0.131719
-0.0534458
-0.164124
0.0267271
0.0248935
0.0187452
-0.0112187
-0.0186411
-0.0391346
0.000370453
-0.264772
-0.0818324
0.375284
-0.0078666
0.0112638
0.18801
-0.164164
0.0685385
-0.339802
-0.152003
-0.384911
-0.0684288
-0.19697
-0.0420302
0.0151771
-0.00160823
-0.023996
-0.394062
0.0109077
-0.247977
-0.04014
-0.421308
0.0226007
-0.159652
-0.111963
-0.015858
0.0042036
-0.0832178
0.0344312
0.0326201
-0.328742
0.000628435
0.024133
-0.078459
2.22316e-05
-0.013215
-0.0489777
0.13205
-0.13641
-0.0773376
-0.0314197
-0.00542454
-0.186081
-0.00409077
0.0135351
-0.00476603
-0.332744
-0.204028
-0.343634
0.110293
-0.0498759
-0.00810147
-0.0133919
-0.0845193
-0.082339
-0.139853
0.101155
-0.121614
-0.0163793
0.0525386
-0.345754
0.0240631
-0.0822121
0.00967963
0.00213345
-0.105977
0.223712
-0.0391829
-0.243792
-0.0664335
-0.192153
0.0121447
-0.0198912
-0.0894962
-0.252209
0.00477417
-0.23665
-0.0195248
-0.108914
-0.0266914
-0.0271476
-0.246584
-0.0311319
-0.0691111
-0.112868
0.019482
-0.0160294
0.0414343
0.00154681
-0.0427724
0.2414
-0.0304889
-0.0235881
-0.197367
-0.218097
-0.085107
-0.12167
-0.152759
-0.0681798
-0.0170241
0.12846
-0.246123
-0.119661
0.0213843
-0.0245594
-0.247382
-0.109646
-0.350844
0.0191822
0.0706991
-0.116167
-0.100955
-0.0413865
-0.410775
0.468814
0.000982654
-0.215568
-0.00191656
-0.0301027
-0.00808302
-0.276191
-0.0183579
-0.0303518
-0.0176473
-0.0676844
-0.0516395
-0.271564
0.273691
-0.027696
0.165625
0.00878768
-0.349987
0.00288362
-0.0310511
0.0237867
-0.0904792
0.0240679
-0.20738
-0.0644052
-0.115901
0.112787
-0.119841
-0.37284
0.02025
-0.0957512
-0.4079
-0.371221
-0.0719264
-0.19549
-0.413988
-0.209062
0.00388657
-0.0757004
-0.100181
-0.0967486
-0.0230494
-0.0141944
0.0118939
0.00902742
-0.0736121
0.119646
-0.120229
-0.014251
0.028325
-0.424845
-0.0611122
0.0413891
0.193251
-0.0868775
-0.0354484
0.128242
0.197709
0.0663448
-0.0521302
-0.0655457
-0.348446
0.496247
-0.0263786
-0.278314
-0.214174
-0.40668
-0.246042
-0.0808283
-0.00403888
-0.043006
-0.0148704
-0.0160277
-0.0142676
-0.0136236
-0.0363829
-0.0808637
-0.424015
-0.157598
-0.0308107
-0.192778
-0.302398
-0.101432
0.0481894
-0.201751
-0.0215592
0.0317011
0.185562
-0.42523
0.0246471
0.00926764
-0.107832
-0.119884
-0.188713
-0.171398
-0.108896
0.0036719
-0.222853
0.048935
0.00668226
0.0515636
-0.0823429
-0.343116
-0.0247843
-0.0164075
0.00982721
-0.208047
-0.0101111
-0.0908029
0.0335508
-0.00261031
-0.222052
-0.0282828
-0.16172
-0.175022
-0.0961352
-0.0226799
-0.0912367
-0.0194414
-0.262562
-0.299285
0.024532
-0.343436
-0.156111
0.473515
0.0244035
-0.0675879
0.0233381
-0.0757297
-0.0947889
-0.17266
-0.0945283
-0.0779194
-0.0794283
-0.263061
-0.00462915
-0.214885
-0.0271942
0.0017001
-0.113423
0.0246922
0.0232288
-0.0257591
-0.0335172
-0.422497
-0.0148761
0.0119793
-0.111817
-0.130243
-0.122957
0.440962
-0.0783577
-0.403027
-0.0733705
-0.107236
-0.0669127
-0.193296
-0.0869775
-0.40838
-0.0813694
-0.0659284
-0.0285559
-0.0663036
-0.078335
0.0539686
-0.192938
-0.104104
-0.0394751
-0.0750875
-0.0346275
-0.0970245
0.00512239
-0.12958
0.301528
-0.00247176
-0.160763
-0.0254127
0.0201159
-0.00389497
0.114129
-0.142576
-0.0548534
-0.0360296
-0.0246657
0.286605
-0.171241
-0.245365
0.0252446
-0.0128502
-0.131395
0.0108544
-0.197563
-0.173483
-0.0393633
-0.184722
-0.0249454
-0.378062
0.0520969
-0.0813964
-0.146781
-0.209342
0.00542294
0.0058411
-0.0635376
0.00631704
0.000628959
-0.405301
-0.277315
0.0908201
-0.0773599
0.00574712
-0.0358746
-0.0853406
-0.0255614
-0.0155549
-0.181531
-0.0265743
-0.170179
0.0135895
-0.0150063
0.015502
-0.0792085
-0.080654
0.0351457
0.024292
0.00402038
0.0343497
0.00198942
0.421139
-0.156901
0.00493707
-0.206009
0.013665
-0.219599
-0.119109
0.391286
-0.0242015
0.0460242
0.0113704
0.0682397
0.0468132
-0.0830427
-0.361091
0.0723933
-0.111003
0.487699
-0.127638
-0.0777582
-0.0439138
0.429162
-0.0956805
0.0114822
-0.342491
-0.146948
-0.0910472
0.0267632
-0.187845
0.220701
-0.0231916
-0.0531948
-0.410729
-0.0314688
-0.00466076
-0.0396222
-0.202686
-0.0861654
-0.167414
-0.00755447
-0.2631
-0.0722421
-0.0738344
-0.203554
-0.282617
-0.0839999
-0.0241265
-0.00229281
-0.114463
0.0108813
0.0693964
-0.0114033
-0.0186093
-0.0171184
0.0777036
-0.0960013
0.447841
0.124684
0.265494
-0.0702314
-0.0753779
-0.0197471
-0.199872
-0.0769072
-0.0163966
-3.26612e-05
-0.0928079
-0.395196
0.0227178
-0.166145
-0.162651
-0.086015
0.0366115
-0.0480646
-0.0280384
-0.194967
-0.024723
5.904e-05
-0.400476
-0.0735267
0.0124067
-0.239311
-0.0902549
-0.379998
0.0196555
-0.0701192
-0.0848329
-0.232411
-0.0819294
0.241336
-0.0579573
0.0148868
-0.0319058
-0.0100659
0.0310815
0.0602301
-0.0528231
0.00693672
-0.118918
0.000310178
-0.0810794
-0.02639
-0.160326
-0.103073
-0.329466
0.0196411
-0.286045
-0.0316746
-0.096033
0.02398
0.107966
0.021078
-0.1418
-0.259397
-0.0828785
0.00613828
-0.160342
0.00329219
-0.0631747
-0.258993
-0.0284667
0.0527213
-0.12585
-0.0880698
-0.107276
0.00767132
0.0281574
-0.0441649
0.01586
0.124891
0.00203132
-0.00962456
0.0660994
-0.23571
-0.0436401
-0.139822
-0.206536
-0.143206
-0.0801926
-0.0411071
-0.00940973
0.0342258
-0.28511
-0.0477142
-0.0252851
-0.0991942
-0.344791
-0.000450284
-0.409205
-0.164008
-0.164343
-0.0165164
-0.0154336
-0.0790654
0.0512015
0.0201178
0.172626
-0.0224271
0.0801871
-0.0686802
-0.105154
0.434802
-0.0960878
-0.0524988
-0.115581
-0.0708851
-0.0621693
-0.0858399
0.172083
-0.40413
-0.117067
-0.413971
0.0870528
-0.38584
-0.408923
-0.0240106
0.00543309
0.00233247
-0.0436124
-0.1224
-0.0269073
0.0881817
-0.0785795
-0.049067
0.0724253
-0.221296
0.125594
-0.0610351
-0.222111
-0.0407018
-0.0815335
-0.0568283
0.105733
-0.00184195
-0.269469
-0.358515
0.00222303
-0.0454345
-0.0669616
0.123139
-0.424394
0.00134438
-0.0273077
-0.124262
-0.0464173
0.153757
-0.407944
0.0288208
-0.14994
-0.0649543
-0.0158249
-0.00386206
-0.0728399
-0.376808
-0.0216995
-0.0555711
0.024304
-0.0387529
0.186381
-0.196366
0.0450875
0.411825
-0.163816
-0.0756476
-0.232367
-0.0454817
-0.0785482
0.0855794
0.117208
0.024123
-0.102526
-0.200092
0.0630884
0.179175
-0.13619
0.442575
0.418504
0.1052
0.0225952
0.0229261
0.0303087
-0.359864
-0.12884
-0.0574408
-0.0465939
-0.0578013
0.013858
0.0106732
0.0337262
-0.11588
-0.0710412
-0.20127
0.129119
-0.410778
-0.0659194
0.0279995
-0.130305
-0.00715269
0.00237492
-0.267418
-0.00621713
-0.0115806
-0.123134
-0.168874
0.260174
-0.0676891
-0.121321
-0.020724
-0.149589
-0.0163851
-0.0362044
0.0657273
0.0202092
-0.0322768
-0.171925
-0.286757
-0.0267016
-0.0782359
-0.0113532
-0.0243365
-0.011836
0.434809
-0.0566216
-0.0558936
-0.417937
-0.0275819
-0.141925
-0.0710822
0.00426501
0.123499
0.00103879
-0.0640501
-0.167499
0.035144
-0.0766041
-0.136358
0.240216
0.0141813
-0.353862
0.0904851
0.407133
-0.0435545
0.14837
-0.286878
-0.0238853
0.316756
0.0339596
-0.163526
0.208501
0.00410453
-0.42292
0.0218505
-0.165592
-0.154613
0.340724
0.0180724
0.0676915
0.0440459
-0.134567
0.0579331
-0.0766057
0.0814768
-0.103593
-0.0203963
-0.117345
0.034183
-0.0737513
-0.104694
-0.00207599
-0.0108419
0.484988
-0.0460463
-0.0674447
-0.0367343
-0.0828589
-0.0746437
-0.0743166
0.0102992
0.00387039
0.0259063
-0.0139731
-0.194655
0.0405281
0.200568
-0.0412596
0.00453781
-0.257855
-0.0563852
-0.0690782
-0.0717607
0.0327158
-0.407195
-0.125692
-0.0647301
0.498412
-0.20656
-0.284945
-0.0940349
-0.359953
-0.00137208
-0.176578
-0.400517
0.442108
0.00807924
0.0508026
-0.118403
-0.0774209
-0.0776091
-0.318458
-0.0358978
0.11383
-0.11893
-0.0734885
-0.409476
-0.101253
-0.144147
-0.00956679
-0.166246
-0.0795901
0.00830154
-0.207005
-0.332486
0.024418
-0.172224
0.00935484
-0.0295601
-0.164359
-0.201287
-0.00500595
-0.0368016
-0.0296678
-0.0262522
-0.0487129
-0.178033
-0.0480178
0.00470128
0.00667848
-0.0847721
-0.064856
-0.0595357
-0.278525
0.0300326
-0.223349
-0.417162
-0.165798
0.103435
-0.146681
-0.182904
-0.101745
-0.0777159
-0.147718
-0.375451
-0.000324379
-0.341293
-0.0725441
-0.00886
0.0150164
-0.209061
-0.369869
-0.377494
-0.0280251
0.00577557
-0.0971917
-0.359874
-0.371317
-0.0365142
0.0862649
0.502773
0.0253108
-0.115448
-0.42379
-0.117613
-0.359366
0.0370702
0.00455834
-0.00360405
0.105691
-0.121772
-0.0974461
-0.0649925
0.0664191
-0.103056
-0.37571
-0.0835214
-0.241967
-0.424496
-0.0911034
0.450352
0.0252856
0.00740471
-0.0845379
-0.0146149
-0.022998
0.0201774
0.518148
-0.112343
-0.422651
-0.22167
0.0187247
-0.252674
-0.110838
-0.0162067
-0.426526
0.218191
0.104034
-0.0363609
-0.408886
-0.334532
0.0233289
-0.315059
-0.157687
-0.411878
-0.359973
-0.167828
0.00301098
-0.0383473
-0.294575
-0.0662384
-0.0957914
-0.117868
-0.368555
-0.183867
0.0633989
0.0701381
-0.0013377
0.0495573
-0.389144
-0.0819933
0.0300195
-0.426034
-0.103601
0.00719768
0.0690971
0.00374197
-0.199362
-0.0282541
0.502401
0.0906218
0.00105665
-0.0044028
0.327495
-0.199128
-0.117247
-0.0128949
-0.120663
0.0339856
-0.0472412
-0.0781035
-0.362228
-0.0820309
-0.353491
-0.0117639
-0.00435792
0.00374886
-0.0806655
-0.00297813
0.00178848
-0.170804
-0.12526
-0.145968
-0.0234134
-0.316906
-0.0798625
0.0042638
-0.384257
-0.148694
-0.0868575
0.475692
0.00238816
-0.425306
0.0830505
0.0468505
0.079588
-0.0144719
-0.0960519
-0.00795373
-0.043077
0.154261
-0.0660943
-0.0822387
0.00967604
0.000224425
-0.0415646
-0.0215377
-0.207215
0.0550609
-0.188011
-0.055947
-0.197084
-0.0448708
-0.122031
-0.0122723
-0.277308
-0.0341637
-0.0151966
-0.415915
0.32203
0.350002
-0.113617
0.160302
-0.116036
0.0328866
-0.325693
0.0306167
-0.00231942
0.329346
-0.0791697
-0.423566
-0.396613
-0.197214
-0.293023
-0.220698
-0.311894
-0.0158501
-0.0659702
-0.0802755
-0.247113
0.101398
-0.292741
-0.101461
-0.0378657
0.0415593
0.0112669
-0.301009
0.458708
-0.0538947
0.0153162
0.0197499
-0.0633885
-0.114811
-0.290307
-0.145987
0.0038918
0.394816
-0.193776
-0.252034
-0.1665
-0.0101444
-0.0503481
-0.251406
-0.00361319
-0.193545
-0.104169
0.0275642
-0.0401029
-0.176136
0.343206
0.0493704
-0.122904
-0.0565683
-0.213729
-0.0718789
0.0512169
-0.0475077
-0.3398
-0.00446565
0.0611517
0.502349
-0.385122
-0.140874
-0.167009
-0.0663539
0.10562
0.0222502
-0.389436
-0.0746791
-0.0324613
-0.0917471
0.0054593
0.00526861
0.516721
0.0238011
0.00343826
0.0140906
-0.139397
0.0531316
-0.0603521
-0.11786
-0.272863
-0.214598
0.0230092
-0.0351764
0.217748
-0.268495
-0.192574
0.126208
-0.193655
-0.119175
-0.314535
0.00528869
-0.323093
-0.078207
0.0049524
-0.0540939
-0.0142339
0.43667
-0.213367
-0.0353795
0.495637
-0.274897
-0.00718922
0.0512249
-0.0670527
-0.100837
-0.0805147
-0.0152362
-0.384749
-0.0659868
0.443182
0.0146634
-0.242145
-0.0784573
0.135055
-0.376077
-0.0743694
-0.0139257
-0.0902784
-0.260259
-0.0987098
-0.0727841
-0.311712
-0.0116173
-0.266422
0.000969375
-0.399707
-0.0126144
0.249119
0.0562264
0.00196532
-0.16345
-0.218177
-0.203101
-0.167747
0.033151
-0.141363
-0.00575745
-0.35431
-0.0835859
0.033228
-0.0230762
0.159861
-0.0293517
-0.128151
-0.137347
-0.319505
-0.143786
-0.0357477
-0.0370195
-0.184822
0.0685819
-0.135634
-0.0126882
0.0179746
-0.318608
-0.223885
-0.183215
0.33866
0.00677872
-0.235282
-0.00743479
0.0932384
-0.389404
-0.411399
0.0230867
0.0163289
-0.0800835
0.0989493
0.0490518
-0.164695
-0.263202
-0.0212526
-0.0159747
0.0231153
0.00314725
0.291356
-0.0250863
-0.0664083
-0.192261
-0.0767231
-0.0170609
-0.0880461
-0.317313
-0.102246
-0.0207152
-0.422262
0.0258673
-0.254262
0.159819
0.183432
-0.00636306
-0.310932
-0.398315
-0.0839628
3.15776e-05
-0.159343
-0.0250438
0.102814
0.0453592
-0.0691772
0.0639224
-0.355763
-0.0905872
-0.136415
0.0249314
-0.283377
-0.0783194
0.00565504
0.428638
-0.0147557
-0.0661502
-0.106569
0.0435345
-0.38125
0.0072899
0.440468
0.044127
0.00329421
-0.414418
-0.116822
0.0809586
0.166509
-0.0874841
-0.138479
-0.100216
-0.0678375
0.0305229
-0.0682211
-0.114303
0.0824208
-0.0711178
0.0326456
-0.109236
-0.077639
-0.0459768
-0.166398
-0.0142453
-0.104018
0.089804
-0.344954
-0.357522
-0.369844
-0.326367
-0.241394
0.0849901
-0.0345865
-0.135893
0.0911528
0.0345112
-0.351893
-0.202518
0.0626946
-0.0564027
-0.0749527
-0.0780118
-0.0944791
-0.251396
0.00413237
-0.0662345
-0.0873043
0.0406724
0.00763002
-0.101532
-0.0185805
-0.0747016
0.0551987
-0.224511
-0.0920872
-0.119018
-0.203551
-0.213508
-0.197444
-0.00925182
-0.131297
-0.115751
-0.422548
-0.0419666
-0.077079
-0.0877594
0.491191
0.0304812
0.0341282
-0.143015
-0.0817897
-0.413648
-0.328215
0.157234
-0.26718
-0.00217303
-0.019086
-0.308371
0.281464
0.0270338
-0.203259
-0.0571854
0.084961
0.0497886
-0.17339
-0.0217144
-0.216048
-0.155092
-0.423673
-0.207796
-0.0660113
-0.141992
-0.406246
0.0273536
0.0326156
-0.168873
-0.0128568
0.213946
-0.422567
-0.0857413
-0.124881
-0.108636
-0.0431187
-0.224342
-0.0160296
-0.119534
0.0163346
-0.410938
-0.0170991
0.0326157
-0.106572
-0.200738
0.00293913
0.0340595
-0.407313
0.0427356
-0.159699
-0.0171956
-0.365845
-0.305712
-0.141703
0.312401
0.000168903
-0.0746837
-0.109902
-0.119078
-0.0165463
-0.0428503
0.00313745
-0.106266
0.0242925
-0.103093
0.0469215
-0.0209235
-0.340664
-0.0188878
-0.059077
-0.06419
0.0133319
-0.108831
-0.0152372
-0.0384545
-0.183941
-0.0794133
-0.0675595
0.0388846
-0.346032
-0.08017
-0.202978
-0.00850937
-0.125032
-0.0371758
-0.118307
-0.111042
-0.102807
-0.264488
-0.252224
-0.259142
-0.317367
0.116022
-0.116117
0.0338892
-0.311053
0.0791893
-0.0361718
0.0325186
-0.108183
-0.014904
-0.228596
-0.131316
-0.106837
-0.28559
0.338147
0.00849119
-0.227034
0.184072
0.0554317
0.0731019
0.0328075
-0.14221
0.0336195
-0.0863696
-0.0179481
-0.0767041
-0.32813
-0.0434282
0.0250224
0.0313597
-0.24192
-0.0123278
0.0306986
-0.0688609
-0.0337058
-0.0699611
0.00528084
-0.0818355
0.327718
0.113413
-0.28306
-0.397523
-0.106955
-0.279486
-0.0114037
0.0196611
0.049512
-0.0431852
0.144262
-0.0747828
-0.127501
-0.0150714
0.0320945
-0.0698997
-0.186037
-0.0150668
-0.00980875
0.109947
-0.422337
-0.0765586
-0.0637944
-0.065534
0.0182371
-0.285028
-0.109252
0.328613
0.160258
0.029065
0.0569106
-0.110494
-0.248142
0.0625052
-0.0320039
-0.0572754
-0.105861
0.0601205
-0.384407
0.012137
-0.144675
-0.0180219
0.13075
-0.00868572
0.00206449
-0.278555
-0.326498
0.271842
-0.0642478
-0.423346
0.0395867
-0.204238
-0.0788439
-0.0109943
-0.175854
-0.125872
-0.148634
0.0223156
-0.080941
-0.404004
-0.0328706
0.0142457
-0.085953
-0.0846186
0.0154541
-0.0200961
-0.0330798
-0.0593788
-0.188815
-0.22392
0.317928
-0.185573
-0.0125524
0.0219493
-0.107045
-0.0143773
-0.107091
0.118647
-0.0339645
-0.143498
0.016941
0.0307141
-0.257864
0.00490217
-0.329345
0.0202716
-0.354546
-0.0974054
-0.189453
0.011876
0.00590134
-0.253296
-0.0147775
-0.0391058
0.0545491
-0.242105
-0.318602
-0.10419
-0.110141
0.0592766
-0.184714
0.0643888
-0.125062
-0.0278777
0.0194719
-0.425941
-0.12893
-0.344829
-0.0318105
-0.140002
-0.132551
-0.423246
-0.205141
-0.244365
-0.10991
-0.0158417
-0.262181
-0.0268403
-0.0260443
-0.220684
-0.110419
0.086065
0.281193
0.0742643
-0.00162345
-0.0682424
-0.263144
-0.059613
0.0053124
-0.410326
0.0562429
-0.0162302
-0.0704091
0.00289341
0.0164305
-0.197861
-0.212769
-0.420537
-0.0153335
0.0729105
0.00319105
0.398969
-0.010349
0.456114
-0.174507
-0.0939162
-0.066818
-0.41112
0.148628
-0.28162
0.478041
0.0182122
0.057163
0.104971
0.124458
0.495408
-0.204941
-0.37915
-0.0801921
0.509435
0.0262062
-0.140552
0.00200001
-0.425681
-0.0867228
-0.0503855
-0.0527899
-0.0376594
-0.00620459
-0.159119
-0.374334
-0.0113051
-0.0462601
-0.0044365
-0.235176
-0.0453358
-0.307663
-0.0672083
-0.352854
0.0253938
-0.00576731
-0.162556
0.430994
0.0219798
-0.115218
0.0158796
-0.230105
0.164296
-0.180471
-0.117086
-0.380291
-0.0133236
-0.0285694
-0.0971408
-0.0673779
-0.0710956
-0.0786067
0.00499257
-0.0626455
0.0219417
-0.00200026
-0.0374775
0.0203048
-0.407689
-0.17501
-0.168159
-0.0762552
-0.260839
-0.268755
-0.0140392
-0.0925048
-0.0147043
0.486789
-0.033622
0.0479085
0.0225866
0.00108781
-0.0253431
-0.190765
-0.0452109
0.428944
-0.0227809
0.162837
-0.0129375
0.485989
0.0135512
-0.0970606
-0.0863841
-0.124402
-0.381214
0.00136669
-0.10635
-0.168072
-0.00542826
-0.015761
0.00858987
-0.0766874
-0.374218
-0.0340432
-0.0235366
-0.182862
-0.129018
0.201241
-0.147975
0.0298353
-0.13041
-0.0916754
-0.0131043
-0.196823
-0.0425001
-0.0785743
0.0319359
-0.0341605
0.0163303
-0.178237
-0.0944858
-0.0143862
0.383814
-0.114953
0.00261942
-0.023034
-0.00582277
0.404475
-0.189169
-0.161835
-0.0534421
-0.114631
0.0134666
0.0286754
-0.0492367
0.00473319
-0.184021
0.0342137
-0.0938726
-0.332325
-0.0953973
-0.0139015
-0.0705225
-0.137689
0.0138493
-0.179955
-0.0941705
-0.162095
0.0979763
-0.402011
-0.1545
0.00449889
-0.197381
-0.194848
-0.0615079
-0.30828
-0.0928614
-0.0628629
-0.164196
-0.000484981
-0.203137
0.283783
-0.19155
0.00344029
0.0117444
-0.0146172
0.168967
-0.0989549
-0.103129
-0.264937
-0.413935
-0.0686349
0.0156409
0.500486
-0.090193
-0.187725
0.023313
0.00462548
-0.125781
-0.0878076
0.0340468
-0.0964394
-0.402878
-0.20334
-0.391238
0.342421
-0.203711
-0.0702763
-0.310487
-0.0189984
-0.332635
-0.207467
-0.0314969
-0.0411817
-0.00292803
-0.370936
-0.20404
-0.166066
-0.0343155
-0.370437
-0.0230691
-0.23192
-0.0869532
0.0265645
-0.0993034
-0.282169
-0.113632
-0.152774
-0.041417
0.0336376
0.0557941
-0.108338
-0.0961022
-0.362509
-0.190055
-0.0170019
-0.425879
-0.240293
-0.0729477
0.00169744
0.00698523
-0.0695418
0.418506
0.00925509
-0.142995
0.305863
0.193482
-0.072727
-0.116139
-0.335681
-0.213053
0.0419331
-0.0208032
0.29461
-0.0847832
-0.372783
-0.0307024
0.189243
0.323688
0.381071
-0.0380221
0.0148988
0.36897
-0.222434
-0.347923
0.408237
-0.065412
0.00664516
0.416953
-0.217884
0.0443573
0.282995
-0.188656
-0.0147402
-0.181817
-0.1732
0.424672
0.0167209
-0.062966
-0.174453
-0.409195
-0.0175237
-0.0550509
-0.00459661
-0.0436036
-0.00377911
-0.135577
0.0277011
0.0951818
0.386632
-0.0983579
-0.202168
0.0764718
-0.0618279
-0.0392441
-0.325666
0.272797
-0.391488
-0.0229335
0.109996
-0.383202
0.333146
0.0396235
0.0775398
-0.23225
-0.166876
-0.247299
0.00461193
-0.00105409
-0.0060231
-0.20672
0.0114885
0.46736
0.487993
0.401285
-0.0587728
-0.274464
-0.381203
-0.00210176
-0.309864
0.0260199
0.224522
-0.0103891
-0.0303889
-0.147906
-0.294886
0.00321226
-0.408734
-0.237884
0.32793
-0.257715
-0.0111809
0.00726684
-0.0925019
-0.0458497
-0.412859
-0.405131
0.037563
-0.260675
0.00118081
-0.0217436
-0.0257175
0.0231806
-0.381537
-0.0530763
-0.360971
0.297474
-0.0383952
0.444346
-0.365479
-0.0773925
-0.374129
-0.0561279
-0.0278845
0.022248
-0.0460976
0.467001
0.355368
-0.278924
0.0212006
-0.0423907
0.127922
0.00414663
-0.0943138
0.0761539
0.176083
0.241224
0.043976
0.00512394
-0.01597
-0.136484
0.00199178
0.0109567
0.32423
0.0492526
-0.00395301
-0.13824
-0.00409868
-0.345492
-0.0806383
0.48693
0.0297681
0.314012
0.0165872
-0.135296
-0.0444745
-0.0439027
0.115425
-0.359466
-0.0791327
0.317459
-0.029167
-0.0995709
-0.132399
-0.0702931
-0.275998
0.0217544
-0.280101
-0.217042
-0.0152402
0.268114
-0.243498
0.33366
0.0181828
-0.151312
0.430089
-0.23275
-0.198108
-0.0341668
-0.172234
0.027609
0.00503357
-0.0816458
-0.126735
0.00631982
-0.0769551
-0.391453
-0.0975482
-0.403796
0.413084
-0.356687
-0.282109
-0.0151286
-0.0522719
-0.0220901
0.130931
-0.231523
-0.250694
0.047321
-0.000956409
-0.0229459
-0.336859
-0.106762
-0.138094
-0.0867725
0.350484
-0.425218
-0.320056
0.00936938
-0.416755
0.0267405
0.106945
0.140092
-0.0907001
-0.119971
0.10594
-0.0444859
0.282942
-0.0826704
-0.0894298
-0.408273
0.162192
-0.0656424
-0.081835
0.0230135
0.477729
-0.161424
0.0594205
-0.382512
-0.419943
-0.0931011
0.103128
-0.0858268
-0.418547
0.0109857
-0.0261246
-0.014253
-0.0125037
0.0576097
-0.425954
0.0466959
-0.176569
-0.000170538
-0.0311155
0.449222
-0.0368176
-0.0158276
0.0139562
0.0259375
-0.189152
-0.0212645
-0.426194
-0.0342181
-0.0514878
-0.0383703
0.0501871
0.364857
-0.0217452
0.00802255
-0.0186664
-0.0742356
0.299378
-0.0620048
-0.0867122
-0.00125806
0.086136
-0.0918636
-0.281117
0.0684828
0.0130378
-0.0264164
-0.0190133
-0.297328
-0.000643584
-0.0245835
-0.0640549
-0.350027
-0.00103913
0.176093
0.0410834
0.0150426
-0.125507
-0.420364
-0.115705
-0.131121
-0.0637118
-0.0958916
0.0429501
0.347279
-0.264044
-0.0409882
-0.174753
-0.0755222
-0.114097
0.0460254
0.0247485
0.484749
-0.0587099
-0.275245
-0.174836
-0.0222448
0.018383
-0.421834
-0.0657923
-0.0992283
0.0520589
0.00966802
-0.423107
-0.219346
-0.0178019
0.00595675
-0.0332967
0.0135445
0.0163061
0.0327211
0.177235
-0.214155
0.0103481
0.0426949
0.451438
0.00849055
-0.267997
0.0500159
-0.0341864
-0.0787318
0.00260627
-0.198058
0.0580667
0.245534
0.0121431
-0.0287054
-0.343371
-0.381639
0.00336351
-0.101693
0.20272
0.0165789
0.0816541
0.00609984
-0.0438145
-0.31204
-0.239677
-0.0706066
-0.145287
-0.0432874
-0.413266
-0.16346
-0.0327112
-0.275672
0.0598655
-0.132196
-0.169963
-0.0735476
-0.352923
-0.244232
-0.0883439
-0.0244153
-0.0627082
0.0985611
-0.0215741
-0.0257387
-0.0895765
0.304161
-0.0238088
0.107622
-0.122824
0.0682033
0.417728
-0.0928245
-0.075068
-0.317609
-0.362982
0.169574
0.100798
-0.0849717
-0.425081
-0.152119
0.0722055
-0.0224248
-0.00764921
-0.0184479
-0.0919189
-0.122555
-0.21878
-0.0275189
-0.323978
0.00434193
-0.0753532
-0.0748548
0.314242
-0.227476
0.318571
0.376624
0.0568029
0.16418
-0.00407251
0.117748
0.0115027
-0.035318
-0.101189
-0.0989856
0.013498
0.0949408
-0.233509
-0.00675585
-0.0259515
0.11263
-0.425965
-0.213532
-0.159995
0.202395
0.00567916
-0.0652083
0.19294
-0.0430695
0.0290886
0.00225264
-0.0301435
0.0326209
-0.0631261
-0.195858
0.00226982
-0.0203888
0.226541
-0.00196327
0.105502
0.135722
0.0226558
0.00977228
-0.4261
-0.0156176
0.0209285
-0.0164477
0.067054
-0.0175807
-0.359838
-0.0538199
-0.264521
-0.000148671
-0.0279001
-0.0355825
-0.327357
-0.0780818
0.0351249
-0.0229018
-0.191822
0.102308
-0.143892
-0.004333
-0.221814