/*--------------------------------*- C++ -*----------------------------------*\
| =========                 |                                                 |
| \\      /  F ield         | OpenFOAM: The Open Source CFD Toolbox           |
|  \\    /   O peration     | Version:  v2012                                 |
|   \\  /    A nd           | Website:  www.openfoam.com                      |
|    \\/     M anipulation  |                                                 |
\*---------------------------------------------------------------------------*/
FoamFile
{
    version     2.0;
    format      ascii;
    class       surfaceVectorField;
    location    "450";
    object      Uf;
}
// * * * * * * * * * * * * * * * * * * * * * * * * * * * * * * * * * * * * * //

dimensions      [0 1 -1 0 0 0 0];


internalField   nonuniform List<vector> 
20673
(
(1.10188 0.130032 1.30803e-20)
(1.10618 0.127468 1.3344e-20)
(1.10129 0.124811 1.30045e-20)
(1.02379 0.0439504 5.08965e-22)
(1.0225 0.0432638 2.78498e-21)
(1.02279 0.0453214 1.99915e-21)
(0.497239 -0.0789568 1.30682e-20)
(0.531504 -0.0816326 -1.12667e-20)
(0.558519 -0.082999 4.82501e-21)
(1.0599 -0.0138608 1.57385e-22)
(1.06012 -0.0127109 0)
(1.05889 -0.0131099 -3.35316e-21)
(0.996523 0.00446728 1.15475e-22)
(0.996349 0.00406134 5.156e-21)
(0.996048 0.00466211 4.31743e-21)
(0.371709 0.0647074 -8.45003e-20)
(0.360099 0.0377435 -1.49213e-19)
(0.343074 0.0654231 -8.32241e-20)
(0.449471 -0.0690794 2.19747e-21)
(0.443378 -0.0707333 0)
(0.493325 -0.0740496 1.48362e-20)
(0.553202 -0.0805454 -8.18346e-21)
(0.50414 -0.0774297 -2.61555e-20)
(0.52238 -0.0804085 -2.14604e-20)
(0.36251 -0.0618858 2.94401e-20)
(0.332823 -0.0583053 -3.12399e-21)
(0.301336 -0.0547623 3.29773e-20)
(1.144 0.156525 -5.89818e-22)
(1.15034 0.156498 2.95969e-20)
(1.14783 0.162735 2.04379e-20)
(1.1287 -0.0745211 3.55454e-21)
(1.12683 -0.0750994 0)
(1.12963 -0.0765037 0)
(1.09998 -0.0513137 3.04811e-21)
(1.10052 -0.0528943 -1.02839e-20)
(1.10144 -0.0510952 1.72134e-20)
(1.06084 -0.0142043 2.09632e-22)
(-0.0567124 -0.00682776 9.9345e-21)
(-0.0400693 -0.0108767 4.38338e-20)
(-0.0623908 -0.00860032 2.09644e-20)
(0.975918 0.100603 -1.2101e-21)
(0.971644 0.100094 3.02619e-21)
(0.974686 0.0962443 -7.57752e-21)
(0.998286 0.0955212 7.71936e-21)
(0.995879 0.0930149 2.75666e-21)
(0.999642 0.0916286 5.28673e-21)
(1.01691 0.0501682 2.44212e-22)
(1.01839 0.0497887 2.49079e-22)
(1.01716 0.0485327 -4.10935e-22)
(1.15166 0.0207591 0)
(1.15265 0.0233382 0)
(1.15475 0.0200447 -2.01531e-20)
(1.09859 -0.051936 -1.16109e-21)
(1.09902 -0.0501348 1.84773e-20)
(1.00173 0.00534478 -9.98146e-22)
(1.00173 0.00510446 2.48911e-22)
(1.00153 0.00494308 -3.31386e-21)
(0.999986 0.00108348 0)
(0.999976 0.00145237 0)
(0.999989 0.00108853 0)
(0.448748 -0.0695382 1.49427e-22)
(0.413432 -0.0687261 -1.0337e-20)
(1.00112 0.00832369 2.73015e-21)
(1.00119 0.00878844 -1.40086e-22)
(1.00131 0.00862086 3.06319e-21)
(0.594617 -0.0866413 7.41684e-22)
(0.60418 -0.0870283 2.79317e-20)
(0.995725 0.016586 -2.59428e-22)
(0.995238 0.0163984 1.33538e-21)
(0.995503 0.0172141 9.63245e-22)
(0.504298 -0.0689734 1.31441e-20)
(0.4681 -0.0649964 -1.09192e-20)
(0.463894 -0.0668115 1.18354e-20)
(0.78878 0.0413651 -5.53524e-20)
(0.779802 0.0470459 6.62466e-20)
(0.780959 0.035093 8.67424e-22)
(0.761742 0.126065 -7.83612e-22)
(0.760272 0.138628 0)
(0.751325 0.129483 0)
(0.715615 0.566726 0)
(0.746891 0.577534 0)
(0.724556 0.611021 4.13631e-21)
(1.20437 0.100735 2.50931e-21)
(1.20402 0.0958115 -6.81243e-21)
(1.20911 0.097029 -6.27186e-21)
(1.1208 0.116592 -9.54075e-22)
(1.11749 0.119701 -1.64388e-20)
(1.1164 0.114921 -1.73985e-20)
(1.06731 0.0943821 2.81415e-21)
(1.0643 0.095097 -1.90466e-20)
(1.06521 0.0916053 -9.67561e-21)
(0.842648 0.0758417 0)
(0.834882 0.0785991 3.71335e-20)
(0.836124 0.0691398 3.31787e-20)
(0.90803 0.00646957 2.46002e-20)
(0.910742 0.00341065 -1.05844e-20)
(0.912069 0.00728895 8.11287e-21)
(0.991915 0.0134816 3.6089e-21)
(0.991396 0.0141813 3.02232e-21)
(0.992113 0.0143842 2.97511e-21)
(1.13267 -0.0946987 1.46158e-20)
(1.13245 -0.095455 -4.52738e-20)
(1.11753 -0.0975352 -2.56302e-20)
(1.00096 0.00798696 1.11959e-21)
(1.00111 0.00786642 -4.53955e-22)
(0.0806041 -0.0360089 0)
(0.0562422 -0.0324476 0)
(0.068372 -0.033536 -4.5403e-21)
(1.06704 -0.0186457 1.00203e-20)
(1.06801 -0.0195594 -3.81079e-21)
(0.26286 -0.0132818 -1.05319e-21)
(0.239191 -0.0101751 1.48663e-21)
(0.266711 -0.0126847 -2.12897e-21)
(1.0089 0.000965382 0)
(1.0093 0.000947218 1.32423e-21)
(1.00846 0.000548361 0)
(0.999997 0.000753989 6.57074e-21)
(1 0.000352125 1.19549e-21)
(1 0.000383869 2.00191e-21)
(1.02179 0.0023779 -2.85993e-21)
(1.02147 0.0025737 1.91201e-21)
(1.02134 0.00224311 2.60581e-21)
(0.69741 0.202355 6.58164e-20)
(0.713917 0.210171 1.05497e-20)
(0.696815 0.224325 3.84596e-20)
(1.04119 0.0252587 4.54355e-21)
(1.04219 0.0260239 0)
(1.04246 0.0250657 0)
(0.891173 0.0227912 0)
(0.889604 0.0182296 0)
(0.895062 0.0192861 -2.7182e-20)
(1.15091 0.0172546 0)
(1.14834 0.0205905 0)
(1.15716 -0.0154213 -3.55892e-20)
(1.15537 -0.0128699 -1.13722e-20)
(1.15406 -0.0159269 -7.16007e-21)
(0.0912283 0.130208 4.41869e-20)
(0.0903142 0.16571 -1.18633e-19)
(0.120104 0.144692 -1.32748e-19)
(1.00348 0.000783796 -6.33545e-23)
(1.00379 0.000711216 1.45001e-22)
(1.00372 0.00110016 5.08026e-23)
(1.09187 0.0147332 1.98901e-20)
(1.09298 0.0158257 5.74563e-21)
(1.09353 0.0141196 5.89822e-21)
(0.966462 0.013185 -1.3741e-20)
(0.965237 0.0118751 4.72112e-21)
(0.964873 0.0139928 2.30198e-21)
(0.0849271 0.100229 1.20539e-19)
(0.0513998 0.133318 2.42987e-19)
(0.905002 0.00962418 2.88877e-21)
(0.9038 0.00519481 3.62271e-20)
(1.01667 0.0517721 -1.97689e-22)
(1.01529 0.0502792 -3.68386e-22)
(1.09188 0.0389746 -7.26555e-21)
(1.09107 0.0411543 1.46091e-20)
(1.09374 0.0408272 2.34043e-20)
(1.13095 -0.0740827 2.69092e-20)
(1.12846 -0.0723695 -8.84654e-22)
(0.996295 0.0326855 -1.48976e-21)
(0.996284 0.0312102 -4.09798e-21)
(0.997382 0.0321913 0)
(1.07632 0.0457478 -3.05464e-22)
(1.07854 0.0468386 6.66198e-21)
(1.07638 0.0482863 1.60882e-20)
(1.03997 0.0254163 -8.8712e-24)
(1.04014 0.024466 2.65038e-22)
(0.550574 0.0503044 -1.14646e-19)
(0.406703 0.0328367 4.16161e-20)
(0.461593 0.0374079 -9.46031e-20)
(1.0251 0.0432168 -8.22437e-22)
(1.0252 0.0452421 1.49072e-22)
(-0.0550343 -0.00429574 -5.26362e-20)
(1.00173 0.00555942 1.06686e-21)
(1.00193 0.00573681 0)
(0.379948 0.100098 7.7175e-20)
(0.403685 0.068959 2.04181e-19)
(1.08198 0.376821 2.67547e-20)
(1.04042 0.348898 2.11502e-20)
(0.779906 0.260051 7.74903e-20)
(0.995717 0.000694583 -1.31134e-22)
(0.995265 0.000908417 -5.94936e-21)
(0.987694 0.000806063 1.5608e-21)
(0.988451 0.000688882 -3.99024e-21)
(1.17652 -0.0550187 0)
(1.17441 -0.0567268 0)
(1.17854 -0.0576794 5.01442e-20)
(1.06616 0.140944 -4.40523e-21)
(1.07165 0.140976 5.91176e-21)
(1.06802 0.147157 7.35469e-21)
(0.996949 0.0043089 3.25333e-21)
(0.99668 0.00487654 -4.18388e-21)
(0.425603 -0.0687849 1.69236e-20)
(0.39207 -0.0657203 1.67278e-20)
(-0.137496 -0.0180304 4.69794e-20)
(-0.113738 -0.0208882 -3.90324e-21)
(-0.120673 -0.0199454 3.78752e-20)
(0.996392 0.0167222 5.57186e-22)
(0.996085 0.0157521 -5.46295e-21)
(0.0909895 0.20054 0)
(0.125576 0.218842 6.56614e-20)
(0.0928915 0.239047 -7.88859e-20)
(1.09193 -0.0588027 -1.71698e-20)
(1.09124 -0.0579889 0)
(1.09235 -0.0576397 1.65199e-20)
(-0.146144 -0.0130916 5.67429e-22)
(-0.121582 -0.0171248 -7.65265e-21)
(-0.137135 -0.0132064 3.05968e-20)
(1.05779 0.0273243 -1.13222e-20)
(1.05925 0.0278903 0)
(1.05802 0.0289858 -1.06811e-20)
(0.483904 -0.0573314 4.18481e-21)
(0.480406 -0.0596762 -2.85652e-21)
(0.518671 -0.0617827 -1.16862e-21)
(0.999953 0.00217415 8.80167e-24)
(0.999906 0.00254279 -2.07667e-22)
(0.999926 0.00257754 -2.06829e-22)
(1.00011 0.00342135 -2.54053e-21)
(1.00013 0.0037559 -5.96292e-21)
(1.00014 0.00333911 5.60252e-22)
(0.996131 0.000945377 1.27615e-21)
(0.389149 0.126164 -4.31302e-20)
(0.399455 0.156262 0)
(0.420859 0.132362 6.29713e-20)
(0.108989 -0.0406325 0)
(0.0968423 -0.0397216 0)
(-0.0824991 0.0111697 7.89752e-20)
(-0.122731 0.00817245 0)
(-0.111873 0.00778425 -4.83577e-20)
(1.05626 0.0268749 -4.21804e-21)
(1.05748 0.0258909 -6.66738e-21)
(1.00046 0.00469316 0)
(1.00051 0.00459974 0)
(1.00038 0.00425423 2.24958e-21)
(1.10299 0.405481 -4.21645e-20)
(1.2037 0.44459 -2.65335e-20)
(1.09013 0.0136353 1.17169e-20)
(1.0899 0.0156103 -6.70412e-21)
(1.02206 0.00225769 -2.78455e-21)
(1.02219 0.00257647 -4.44362e-21)
(-0.0435741 -0.0282117 1.37577e-20)
(-0.0700753 -0.025596 -4.45447e-20)
(-0.0579622 -0.0264252 4.00314e-20)
(1.1886 0.135285 9.20766e-21)
(1.18247 0.137353 3.64434e-20)
(1.18594 0.141829 2.06932e-20)
(1.02525 0.0251768 1.92491e-21)
(1.02559 0.0243346 0)
(1.02454 0.0243226 -2.22327e-21)
(0.975893 0.056019 1.03253e-20)
(0.973831 0.057303 3.86282e-22)
(0.976352 0.0585743 8.93955e-21)
(1.17837 0.438559 0)
(1.02616 0.396311 6.84853e-20)
(0.374281 0.0105533 -2.80549e-21)
(0.402993 0.0034157 1.77486e-20)
(0.380131 -0.0239696 3.13166e-20)
(1.14599 -0.0567997 4.36974e-21)
(1.14815 -0.0566882 -4.17562e-20)
(1.14728 -0.0590872 1.55024e-20)
(1.1539 -0.00522822 0)
(1.15683 -0.00489025 0)
(1.15512 -0.00250589 0)
(1.09602 -0.0685778 -7.16339e-21)
(1.09538 -0.0694284 0)
(1.09483 -0.0686424 0)
(0.594759 0.137738 -7.00241e-20)
(0.614881 0.123268 2.87587e-20)
(0.616701 0.149725 0)
(1.01168 0.00593607 1.44066e-22)
(1.01215 0.00604094 2.34057e-21)
(1.01197 0.00645418 2.73327e-21)
(0.840916 0.00400767 1.22807e-20)
(0.844445 0.011421 -5.0355e-20)
(0.848541 0.0045668 -1.48951e-20)
(0.680948 0.195645 2.49996e-20)
(0.699004 0.186934 -4.83317e-21)
(1.06575 0.0211395 6.47009e-21)
(1.06708 0.020858 -2.05466e-21)
(1.06594 0.0195138 8.10895e-21)
(1.01738 0.0129475 -3.51533e-22)
(1.0174 0.0123428 1.64301e-21)
(1.01801 0.0128944 1.46453e-21)
(0.379799 -0.0577378 8.16592e-21)
(0.369927 -0.0567904 -1.3626e-20)
(0.444366 -0.0588326 -1.4874e-20)
(0.820374 0.504523 1.90317e-21)
(0.792057 0.522382 0)
(0.830932 0.530643 -1.81638e-21)
(1.15846 -0.0172134 3.16191e-20)
(1.15968 -0.0147194 -2.48166e-20)
(1.02 0.0493263 1.54636e-22)
(1.01997 0.0511628 4.47477e-22)
(1.11917 0.129938 -1.89735e-20)
(1.11538 0.132711 -3.65297e-20)
(1.1203 0.135097 -3.43629e-20)
(-0.161967 -0.014509 -2.22638e-20)
(-0.191324 -0.0140245 -4.70754e-20)
(-0.178775 -0.0141003 1.02576e-20)
(0.279345 -0.0161173 3.28506e-22)
(0.256062 -0.0126803 -1.67155e-21)
(1.10168 -0.0588425 -2.12827e-21)
(1.1006 -0.0592745 4.25228e-22)
(1.10149 -0.0600317 -1.24919e-20)
(0.379659 -0.0591197 2.36785e-20)
(0.318859 -0.0574216 0)
(0.949375 0.0119196 1.87967e-21)
(0.948028 0.0140029 5.82617e-21)
(0.947239 0.0112801 4.36774e-21)
(0.0882415 -0.124411 9.95083e-20)
(0.0990416 -0.0946702 0)
(0.0614518 -0.100307 0)
(1.00141 0.0147507 -7.90394e-23)
(1.00152 0.0154428 4.32126e-21)
(1.00113 0.0151102 1.11495e-21)
(0.181434 0.103882 2.10561e-21)
(0.211507 0.0854168 -1.55853e-20)
(0.212584 0.120548 -1.5907e-20)
(0.122975 -0.0153473 -3.07026e-21)
(0.130845 -0.0170582 2.67388e-21)
(0.143242 -0.020857 1.29503e-20)
(0.907693 0.0175202 3.55642e-21)
(0.904913 0.0208252 4.77339e-20)
(0.909544 0.0212088 2.50535e-20)
(1.00001 0.00114179 1.26695e-21)
(0.999993 0.00113095 -1.25566e-22)
(1.17857 -0.0534104 -3.35671e-20)
(1.1746 -0.052843 -1.42221e-20)
(0.0824875 -0.0168686 2.12829e-20)
(0.102069 -0.0211288 8.99328e-21)
(0.0943864 -0.0203847 -1.13147e-20)
(0.763579 0.114132 4.22194e-20)
(0.775334 0.122835 -3.56394e-20)
(1.00524 0.00068778 1.6332e-22)
(1.00548 0.000999549 2.2911e-22)
(1.00559 0.000585631 9.66124e-23)
(0.975781 0.0532903 3.24219e-21)
(0.978145 0.0545685 0)
(1.03704 0.028674 1.6913e-21)
(1.03787 0.0296201 -2.43887e-21)
(1.03671 0.0296964 5.77587e-21)
(1.00491 0.000702614 -9.77038e-23)
(1.00478 0.000345439 -2.86602e-22)
(1.01862 0.00188241 0)
(1.01886 0.00170852 0)
(1.01853 0.0016051 0)
(0.346 0.0116172 -1.34264e-19)
(0.199151 -0.0386374 -2.26598e-21)
(0.187999 -0.0357447 -1.33171e-20)
(0.17804 -0.0324963 -8.19613e-21)
(0.950871 0.00950727 1.45298e-20)
(0.951921 0.0122274 -1.07454e-20)
(1.04316 0.0267728 1.79973e-21)
(1.04187 0.0270424 -7.81429e-21)
(0.999973 0.00105991 0)
(1 0.000718928 0)
(1.22085 0.0037617 1.67157e-22)
(1.24774 0.00748774 -4.46002e-20)
(1.18238 -0.00208964 -1.14927e-20)
(0.641874 -0.0918739 2.1164e-20)
(0.58459 -0.0868275 1.69655e-21)
(1.10213 0.134963 1.47211e-20)
(1.09756 0.131903 0)
(0.578234 0.148938 -9.19727e-21)
(0.578857 0.121001 -1.18444e-19)
(0.995236 0.00137293 5.45455e-21)
(0.994772 0.00107404 -7.02469e-21)
(0.906166 0.0135893 -4.12209e-20)
(0.91045 0.014656 -4.07137e-20)
(1.13477 -0.0934683 -1.27709e-20)
(1.1308 -0.0927775 1.07094e-20)
(1.12373 -0.0900873 8.91655e-21)
(1.02664 0.0133827 6.45392e-21)
(1.02659 0.0139868 3.19651e-21)
(1.02584 0.0134503 1.54628e-21)
(0.963894 0.0254218 2.76899e-21)
(0.961781 0.0262321 -9.61496e-21)
(0.96245 0.0236065 5.71558e-22)
(0.664031 0.199645 -2.80024e-20)
(0.643579 0.205853 6.504e-20)
(0.662202 0.222661 -5.95467e-20)
(0.987494 0.00154203 -5.28514e-21)
(0.986914 0.00103283 1.24532e-20)
(0.622955 -0.0719887 -6.309e-21)
(0.547417 -0.0675576 -3.58117e-22)
(0.61799 -0.0705132 -2.61555e-20)
(0.808358 0.610377 -1.66757e-21)
(0.816265 0.581017 -1.82659e-21)
(0.781403 0.581785 -1.05736e-21)
(0.967822 0.0147775 -1.66903e-20)
(0.968337 0.0125728 -7.01941e-22)
(1.02503 0.0112257 -3.74006e-21)
(1.02511 0.011803 -3.7572e-21)
(1.02439 0.011303 -6.97003e-22)
(1.06184 0.101944 0)
(1.0581 0.102405 3.8874e-21)
(1.06072 0.106358 0)
(1.12785 -0.0267836 4.26954e-21)
(1.12958 -0.0285438 -1.92667e-22)
(1.1295 -0.0254327 -4.42349e-20)
(0.112472 -0.145733 -4.33356e-20)
(0.0730593 -0.155001 2.23122e-20)
(1.12265 -0.0532842 -1.84899e-21)
(1.12459 -0.0540347 -6.62033e-21)
(1.12261 -0.0550722 2.27435e-21)
(1.02727 0.187631 -4.15868e-21)
(1.03043 0.182686 4.48857e-23)
(1.03501 0.186865 2.15617e-24)
(1.08471 0.066103 1.27095e-21)
(1.08252 0.0681409 1.34582e-21)
(1.08177 0.0650519 -1.29782e-20)
(-0.0441645 0.0414596 4.06174e-20)
(-0.0616911 0.0465703 -3.91572e-20)
(-0.0940783 0.0396723 0)
(1.06101 0.141454 0)
(1.06397 0.13645 0)
(1.06641 -0.0983978 1.66888e-20)
(1.10455 -0.0958192 -1.35592e-21)
(1.11668 -0.0960579 -1.11731e-20)
(-0.177598 -0.011297 8.59838e-21)
(-0.153057 -0.013803 -3.26739e-21)
(1.26008 0.00754741 -3.75199e-21)
(1.17223 0.00371371 -4.18037e-20)
(0.94258 0.0482631 -1.08952e-20)
(0.9398 0.0499498 -4.72292e-21)
(0.939596 0.0463029 8.09213e-21)
(0.788991 -0.0220259 -6.84511e-21)
(0.783324 -0.0135522 4.6676e-20)
(0.777473 -0.0244544 4.00631e-20)
(1.00003 0.00265237 -2.31157e-21)
(1.00005 0.00255105 -3.56353e-22)
(1 0.00217994 -2.49973e-21)
(1.14341 -0.0577129 -2.40192e-20)
(1.14434 -0.0549625 4.82434e-21)
(1.10311 -0.0584555 1.66221e-20)
(1.10187 -0.0574827 -1.44602e-22)
(1.09664 -0.0678106 1.10297e-20)
(1.0972 -0.0686137 9.40961e-21)
(1.06556 0.0225261 6.11331e-21)
(1.06443 0.0212772 -2.50682e-21)
(1.1412 -0.0169032 1.2732e-21)
(1.1397 -0.0188446 2.05029e-20)
(1.14257 -0.0193792 2.16968e-20)
(1.03446 0.0213748 3.06576e-21)
(1.03535 0.0220274 -6.81599e-22)
(1.03425 0.0223059 7.23996e-21)
(0.837797 -0.00230527 2.49864e-20)
(0.833116 0.00497248 7.1006e-20)
(1.053 0.181662 8.59486e-21)
(1.04562 0.181029 0)
(1.05101 0.174834 -7.51965e-21)
(-0.291939 -0.00520481 -2.46373e-20)
(-0.308022 -0.00394597 1.0733e-20)
(-0.279054 -0.00535732 2.59435e-20)
(1.09803 -0.0611034 0)
(1.0985 -0.0621509 -2.26055e-20)
(1.09921 -0.0611473 7.74185e-21)
(1.01592 0.0583578 1.08519e-22)
(1.0159 0.0602274 4.89018e-23)
(1.01404 0.0589866 -2.32131e-23)
(0.729206 -0.0801829 -2.80129e-20)
(0.719706 -0.080016 -1.92008e-20)
(0.794466 -0.080987 1.16622e-20)
(1.01915 0.205848 -1.34578e-21)
(1.01618 0.210906 0)
(1.02412 0.210786 0)
(0.210379 -0.0393081 1.71105e-20)
(0.224715 -0.0426302 -7.29614e-21)
(0.150362 0.0868092 1.77312e-20)
(0.151147 0.124278 1.68911e-20)
(0.637571 -0.0738086 2.26802e-20)
(0.705764 -0.0742724 -1.38105e-20)
(1.01392 0.0279848 -4.81704e-23)
(1.01466 0.0286807 1.41028e-22)
(1.01377 0.0289046 -1.17187e-22)
(1.19435 0.134004 5.16187e-20)
(1.1907 0.129646 2.56717e-20)
(1.12599 0.118269 1.00819e-22)
(1.12461 0.1135 -9.62797e-22)
(1.02737 0.0132609 -2.33939e-21)
(1.02659 0.0127493 3.30502e-21)
(1.00043 0.00480961 2.163e-21)
(1.00054 0.00516995 0)
(0.938644 0.12207 1.15132e-20)
(0.934654 0.118083 1.63587e-20)
(0.940798 0.117483 -6.98833e-21)
(0.549308 -0.072943 1.07614e-20)
(0.544425 -0.0732978 -1.86689e-21)
(1.26499 0.144223 -4.68905e-20)
(1.27254 0.142401 2.74777e-20)
(1.27336 0.149453 -6.85153e-20)
(-0.0268994 0.041463 -1.59061e-20)
(0.0385081 0.0555402 -1.23797e-19)
(1.1247 0.0427539 -1.63282e-20)
(1.12416 0.045468 0)
(1.12706 0.0442402 0)
(1.10541 -0.0681411 -1.09255e-20)
(1.10438 -0.0682973 -1.83777e-20)
(1.10474 -0.0693473 -2.81892e-20)
(1.15464 -0.0931524 1.73028e-20)
(1.1602 -0.0953758 -1.19244e-20)
(1.16392 -0.0949567 8.0652e-21)
(-0.0372805 0.0133713 1.26387e-20)
(-0.0501751 0.0131849 1.63413e-19)
(1.25856 0.188413 -1.15893e-21)
(1.25894 0.181638 1.54259e-20)
(1.26677 0.185697 -1.0033e-19)
(0.999967 0.00887032 -3.00473e-21)
(1.00004 0.00844812 -2.99067e-21)
(0.999867 0.00835885 -4.56793e-22)
(0.567022 0.0591895 0)
(0.572712 0.0792859 7.15151e-20)
(0.547767 0.073515 5.4823e-20)
(0.797232 0.0379389 -5.0573e-20)
(0.796474 0.0491237 -8.01459e-20)
(1.01006 0.000395634 -1.22612e-21)
(1.00969 0.000391297 6.36724e-22)
(1.02483 0.0258722 2.65507e-21)
(1.02597 0.0259755 -1.1594e-21)
(0.86926 0.471366 -7.40568e-21)
(0.864034 0.443769 4.5465e-21)
(0.891337 0.452785 1.06388e-20)
(1.2251 0.499056 -3.77613e-20)
(1.2246 0.477655 -5.36836e-20)
(1.109 0.437647 6.75347e-20)
(1.08176 -0.00427857 1.96088e-20)
(1.08297 -0.00516955 -9.41191e-21)
(1.08333 -0.00365753 1.00281e-20)
(1.00329 0.000940772 -1.9779e-22)
(1.00327 0.000588555 -9.54866e-23)
(1.13393 -0.0204499 -5.20817e-21)
(1.1323 -0.0185284 -8.20334e-21)
(1.13539 -0.0182253 7.27557e-21)
(1.12652 -0.028628 -9.0942e-22)
(1.12571 -0.0257413 4.2453e-21)
(-0.153717 -0.0165049 4.88113e-20)
(-0.159978 -0.0159359 -8.55658e-21)
(1.23072 -0.0321214 -5.60407e-22)
(1.2359 -0.0346859 -2.18476e-20)
(1.25509 -0.0319621 -8.52459e-21)
(0.992378 0.0130085 -2.70592e-21)
(0.991897 0.0128532 -6.85354e-21)
(0.995217 0.0329766 2.01515e-22)
(0.996282 0.0339036 -1.00178e-21)
(1.15121 -0.00560406 0)
(1.1526 -0.00797814 3.44499e-21)
(0.51897 -0.0769157 1.30047e-20)
(0.575565 -0.0801253 -1.40566e-20)
(0.557512 -0.0796703 2.09144e-21)
(0.965757 0.0243579 4.62248e-21)
(0.965533 0.0267841 2.07344e-21)
(0.435178 -0.0713211 0)
(0.424752 -0.0711795 0)
(0.477523 -0.0747876 -1.71649e-20)
(-0.207293 -0.0118079 -1.48685e-20)
(-0.182434 -0.0131904 -5.08475e-20)
(-0.201787 -0.0117469 -4.32924e-20)
(1.10603 -0.0671029 2.57491e-20)
(1.10683 -0.0684615 2.92286e-20)
(1.01689 0.012897 -2.51023e-21)
(1.01737 0.0134136 1.59767e-21)
(0.492739 0.39486 -3.17647e-20)
(0.512288 0.429827 1.50446e-19)
(0.459397 0.430641 9.24286e-20)
(1.14289 -0.00612797 1.43661e-21)
(1.14571 -0.00605853 -1.91284e-22)
(1.14405 -0.00362071 -2.32153e-20)
(-0.278667 -0.00954251 4.31301e-20)
(-0.248352 -0.0121572 -7.65596e-20)
(-0.265528 -0.00883386 -6.08723e-20)
(1.0036 0.019452 -3.69225e-21)
(1.00401 0.0198735 6.7563e-23)
(1.00363 0.0203024 1.62535e-21)
(0.694394 0.0712681 5.76565e-21)
(0.651017 0.0689725 -5.38673e-20)
(1.01311 0.0271855 3.24946e-23)
(1.01399 0.0270752 3.42396e-23)
(1.2011 0.0743856 0)
(1.1974 0.0719477 -2.9676e-21)
(1.19713 0.0763153 -2.36633e-20)
(1.00874 0.00125524 0)
(1.00852 0.000869666 0)
(0.0560339 -0.0376848 0)
(0.0321133 -0.0356384 -4.58565e-20)
(0.050165 -0.0363944 0)
(0.361653 -0.0557574 -1.10091e-20)
(0.352281 -0.0551312 9.32828e-21)
(0.423436 -0.0561953 -1.94934e-20)
(0.99777 0.0988843 5.54113e-22)
(1.00142 0.0975762 1.5685e-21)
(1.18372 0.49691 -1.01383e-20)
(1.22502 0.509172 4.43754e-20)
(1.19551 0.478427 1.50763e-20)
(1.08769 0.0668148 0)
(1.08627 0.0638675 -7.98461e-21)
(1.01616 0.0127823 1.09116e-21)
(1.01627 0.0122027 -4.4769e-21)
(1.12875 -0.093239 2.91198e-20)
(1.13173 -0.0947069 4.21363e-20)
(1.09684 -0.061095 -1.82381e-20)
(1.09746 -0.060012 0)
(1.12246 0.0413035 -3.17985e-20)
(1.12501 0.040104 -1.39704e-21)
(0.620211 -0.0866983 1.86129e-20)
(0.574392 -0.0850317 5.75061e-21)
(0.643208 -0.0876964 3.2587e-20)
(-0.214708 -0.00886069 3.91674e-20)
(-0.234894 -0.00872281 -3.34278e-20)
(1.01268 0.00322867 -8.29345e-23)
(1.01309 0.00327555 7.52746e-22)
(1.01287 0.00283451 7.94001e-22)
(1.07032 0.0933522 1.30646e-20)
(1.06959 0.0972397 1.11789e-20)
(-0.0250578 -0.0309028 -1.05639e-20)
(-0.0130979 -0.0316337 1.1808e-20)
(-0.134888 0.0128277 7.605e-21)
(-0.162593 0.0105751 6.89946e-21)
(-0.138341 0.0132648 -2.84655e-21)
(1.00002 0.00262626 0)
(1.00001 0.00306 0)
(1.00648 0.00940437 -1.11976e-22)
(1.00692 0.00967161 7.37353e-23)
(1.00668 0.00989079 -1.90132e-22)
(0.302632 -0.0124026 -5.14481e-21)
(0.320476 -0.0151687 4.81206e-21)
(1.15454 -0.0581074 2.4575e-20)
(1.15236 -0.0587963 -2.27603e-21)
(1.15374 -0.0608451 1.39792e-21)
(1.00006 0.000141206 2.82602e-23)
(1.00003 0.000107742 -3.86073e-22)
(1.00006 0.000177259 9.09181e-22)
(1.11219 -0.0880757 0)
(1.10924 -0.0872907 0)
(1.10614 -0.0858605 0)
(1.19144 0.0149108 1.12726e-20)
(1.19037 0.011318 -3.43729e-20)
(1.18742 0.0144178 1.79703e-22)
(0.798218 -0.0219454 -4.76149e-20)
(0.79368 -0.0315472 -7.06832e-20)
(1.09842 0.112296 1.90388e-21)
(1.10153 0.115983 -1.58748e-20)
(1.10221 0.110793 2.19915e-20)
(1.00005 0.00299987 2.45432e-21)
(1.00007 0.002531 1.53187e-21)
(0.984402 0.21745 2.18618e-21)
(0.985815 0.207596 2.78324e-21)
(0.975919 0.211893 -1.85711e-21)
(-0.182036 -0.0120051 -4.87034e-21)
(-0.180007 -0.0111802 2.56648e-20)
(-0.211524 -0.00829432 -4.83229e-20)
(1.0433 0.00280877 -1.97481e-21)
(1.04353 0.00208197 -4.26479e-21)
(1.04438 0.00264121 -4.36201e-21)
(1.21061 0.150146 -3.81161e-21)
(1.2049 0.153473 1.11076e-19)
(1.20562 0.145608 4.61824e-20)
(0.568129 0.166614 1.44271e-19)
(0.583623 0.187375 5.69868e-20)
(0.553686 0.192706 9.69992e-20)
(1.03621 0.0277129 4.67567e-22)
(1.03732 0.0275655 -3.48891e-21)
(0.996331 0.0298926 9.19375e-22)
(0.995358 0.0303064 -3.7571e-21)
(1.11718 -0.0459092 3.17334e-20)
(1.11897 -0.0470089 -1.42918e-20)
(1.11691 -0.0477954 2.4319e-20)
(0.3329 -0.0212064 -9.17127e-21)
(0.318627 -0.0185157 -7.12071e-21)
(0.31622 -0.0187044 -1.23793e-20)
(1.12069 -0.0528712 4.27492e-21)
(1.12267 -0.0515254 1.52625e-21)
(0.941666 0.126509 1.12438e-20)
(0.935979 0.127762 -6.42836e-21)
(0.979938 0.100446 1.28127e-20)
(0.977317 0.104355 4.00205e-22)
(1.00006 0.000306698 7.49721e-22)
(1.00005 0.000266528 6.28462e-22)
(1.00002 0.000179463 1.49367e-21)
(0.0639146 -0.0134425 5.64043e-21)
(0.0713911 -0.0139324 1.75637e-20)
(0.515858 -0.0348505 3.21709e-20)
(0.602012 -0.0375618 5.08353e-21)
(0.597026 -0.0350621 6.45776e-20)
(1.10475 -0.0841471 1.27629e-21)
(1.10851 -0.0857715 -3.63981e-20)
(1.11029 -0.08592 -3.17169e-20)
(1.0156 0.0127239 3.85722e-21)
(1.01611 0.0132793 3.31862e-21)
(-0.182606 -0.0139161 -2.81744e-20)
(-0.156463 -0.0161596 6.05765e-21)
(-0.16654 -0.0148393 -3.09656e-20)
(-0.0415366 -0.015638 -1.07784e-20)
(-0.0361386 -0.0144756 4.75488e-21)
(-0.0620495 -0.0110755 -1.17504e-20)
(1.00871 -0.0978968 -6.59107e-21)
(1.02851 -0.0985522 0)
(0.482256 -0.0571119 -3.22234e-21)
(0.453609 -0.0563588 0)
(1.09261 -0.0594255 -1.2502e-20)
(1.09161 -0.0596411 1.13637e-20)
(1.00006 0.0034896 0)
(1.00667 0.000771442 5.48802e-22)
(1.00632 0.000823681 -7.31611e-22)
(1.00674 0.00121183 -1.7859e-22)
(1.15037 0.0149148 0)
(1.14751 0.0145903 0)
(1.1496 0.0121379 0)
(-0.0121837 -0.0283086 3.38447e-20)
(-0.0301262 -0.0251162 -1.13063e-21)
(-0.0356346 -0.0247936 -1.31627e-21)
(1.18014 -0.0276616 1.02807e-20)
(1.18215 -0.0253797 -6.50007e-20)
(1.18331 -0.0291328 -4.27179e-20)
(1.07408 0.0448934 -1.58573e-20)
(1.07606 0.0435867 -1.6096e-20)
(1.21966 -0.0313342 -1.66248e-20)
(1.16941 -0.0386632 -4.57582e-20)
(1.08554 -0.0423944 4.90717e-21)
(1.08454 -0.0416013 1.61597e-20)
(1.01849 0.00103832 1.99793e-22)
(1.01847 0.00129886 -2.51824e-21)
(1.01871 0.0011565 1.11215e-21)
(0.876627 0.0258191 -2.0784e-21)
(0.868724 0.0201837 -7.62405e-20)
(0.778214 0.00714133 -9.53693e-20)
(1.00217 0.00519244 9.53502e-22)
(1.00217 0.00496148 -5.12833e-23)
(1.00195 0.00483275 -1.5805e-23)
(0.72928 -0.0816392 3.20704e-20)
(0.658889 -0.0794692 -4.19175e-20)
(1.08043 -0.00304295 8.18508e-21)
(1.07999 -0.00458026 8.61823e-21)
(1.00007 0.000109413 6.19274e-23)
(1.0001 0.000172965 2.32725e-22)
(1.00451 0.112938 1.00613e-21)
(1.00334 0.117742 2.43995e-21)
(1.00039 0.113246 -1.14587e-21)
(1.0254 0.193498 -1.02415e-21)
(1.02083 0.188033 -8.36659e-22)
(0.778042 -0.00367225 5.44561e-20)
(0.788376 -0.00325261 -3.89098e-20)
(1.12019 -0.0908147 1.41903e-20)
(1.11576 -0.088946 1.08222e-20)
(1.00241 0.148228 -9.54463e-23)
(1.00273 0.154468 1.46336e-21)
(0.996588 0.150352 -3.62009e-21)
(1.04678 0.00912112 1.34537e-20)
(1.04749 0.0100011 -1.09299e-21)
(1.0463 0.00982732 -3.11163e-21)
(1.26741 0.0244693 4.32696e-20)
(1.27066 0.0288483 5.91743e-20)
(1.28982 0.025941 5.77608e-20)
(0.659132 -0.0879273 -1.09746e-20)
(0.593427 -0.0867834 3.07218e-21)
(0.442371 -0.0398736 2.13838e-20)
(0.447469 -0.0384739 -3.1188e-20)
(1.00314 0.0192078 -7.38644e-22)
(1.00348 0.018804 -2.57372e-21)
(0.987368 -0.094311 3.30487e-20)
(1.03584 -0.0929409 1.9496e-20)
(0.97437 -0.0928863 2.81836e-20)
(0.998501 0.00105614 6.59525e-22)
(0.998402 0.00132897 4.15914e-21)
(0.998213 0.00115936 8.39988e-22)
(1.04634 0.00822756 4.91494e-22)
(1.04753 0.00833187 1.33315e-20)
(1.00129 0.0140163 -4.03655e-21)
(1.00167 0.0143458 -5.23078e-21)
(0.838076 0.640991 1.63315e-20)
(0.790684 0.646567 -2.94141e-21)
(1.0017 0.000992377 0)
(1.00184 0.000864451 -1.35715e-23)
(1.00158 0.000779959 -8.61895e-23)
(1.20457 0.0765551 -2.22468e-20)
(1.20483 0.0723049 -4.02599e-20)
(1.0946 0.114753 3.95278e-22)
(1.09491 0.109595 -6.16507e-23)
(1.03351 0.0206529 -3.82129e-21)
(1.03459 0.0204319 9.77432e-21)
(1.13528 -0.0224683 1.72547e-20)
(1.13223 -0.0218997 -2.57418e-20)
(1.04062 0.0603902 -2.26791e-21)
(1.04155 0.0585924 2.46425e-21)
(1.043 0.0604644 9.0074e-21)
(0.119528 0.066399 0)
(0.107174 0.0507175 7.08151e-20)
(0.10497 0.0823409 0)
(1.02282 0.20036 1.412e-21)
(1.01529 0.20074 -2.05992e-21)
(1.17923 0.131425 2.44756e-20)
(1.1761 0.137705 -8.7009e-21)
(1.03195 0.0144692 -1.5314e-21)
(1.03269 0.015128 -4.27792e-21)
(1.03272 0.0142479 -3.64643e-21)
(0.997246 0.0294645 7.3989e-21)
(0.99636 0.0286771 5.0814e-21)
(-0.181147 -0.0124875 1.24306e-19)
(-0.202467 -0.0118945 3.98699e-20)
(-0.207506 -0.0119794 -3.24917e-20)
(0.0602278 -0.0163541 7.67518e-21)
(0.0521472 -0.0158359 0)
(0.0731815 -0.0204311 0)
(1.00153 0.0161557 -1.26289e-21)
(1.00186 0.0157937 0)
(1.00739 0.000712043 -2.93998e-22)
(1.00784 0.000959385 4.47484e-22)
(1.00742 0.00125882 6.86716e-22)
(0.868872 0.024649 -1.36634e-20)
(0.986514 0.0347253 4.40444e-20)
(1.01707 0.0263249 6.06593e-22)
(1.01736 0.0273486 6.0976e-22)
(1.01818 0.0268188 -1.6455e-21)
(-0.0879887 -0.0234703 -5.44008e-20)
(-0.105623 -0.0217166 -2.80219e-20)
(1.03114 0.0140012 3.99636e-21)
(1.03116 0.0148671 3.6291e-21)
(0.0609475 -0.0383086 0)
(0.0799754 -0.0401378 0)
(1.05049 -0.00631605 -9.87956e-21)
(1.04991 -0.00701183 4.31806e-22)
(1.0509 -0.00707007 -5.72474e-21)
(1.22304 0.33174 1.54381e-20)
(1.21048 0.330888 -5.70754e-22)
(1.21567 0.344018 -3.25137e-20)
(1.10985 0.00149236 -4.50312e-20)
(1.10975 0.00366147 1.21611e-20)
(1.11204 0.00259913 -1.15949e-20)
(0.0975857 0.314 6.757e-20)
(0.0960053 0.273841 -9.52378e-21)
(0.131089 0.291384 7.13759e-20)
(0.945838 0.0493862 -1.40275e-20)
(0.94531 0.0459392 6.73136e-21)
(1.29993 0.0182597 -4.96615e-20)
(1.27256 0.0153603 0)
(0.5161 0.301674 -6.21472e-21)
(0.489251 0.312095 5.12544e-20)
(0.517198 0.334255 -1.27923e-20)
(1.0086 0.113134 -8.34285e-23)
(1.00605 0.10973 -3.62215e-22)
(1.15566 -0.0561967 -4.84706e-21)
(1.15665 -0.0581644 2.54417e-20)
(0.954983 0.520193 0)
(0.972359 0.538628 0)
(0.942661 0.543674 -1.28145e-20)
(0.998425 0.0466425 -5.25161e-21)
(0.996881 0.0461783 -4.85671e-21)
(0.997365 0.0480593 7.8352e-22)
(0.142659 -0.037164 1.06049e-20)
(0.117905 -0.0328305 0)
(0.128644 -0.0338088 -7.15031e-21)
(0.582066 0.0479546 -7.65552e-20)
(0.561394 0.0391192 4.13029e-21)
(-0.0252565 -0.0185489 0)
(-0.0437469 -0.0164332 0)
(0.92353 0.0228244 4.13736e-21)
(0.919929 0.0241401 1.37679e-20)
(0.922794 0.0268824 1.54454e-20)
(0.189382 -0.0144166 5.90946e-21)
(0.16635 -0.0104701 3.65955e-20)
(0.193065 -0.0135647 1.78866e-20)
(1.07361 0.0924165 1.31721e-21)
(1.0761 0.0959347 1.54346e-20)
(1.07715 0.0922048 9.68381e-21)
(-0.109742 -0.00658065 -3.31197e-20)
(-0.0813653 -0.00611961 -7.76325e-20)
(-0.0710242 -0.00734064 3.53746e-20)
(0.522508 0.270475 -3.51788e-20)
(0.547972 0.293753 5.51719e-20)
(0.931078 0.359288 -9.12881e-21)
(0.914302 0.356851 -2.61383e-21)
(0.923498 0.374685 -9.53423e-21)
(0.949413 0.364826 3.57024e-21)
(0.94094 0.346173 4.18099e-21)
(0.469522 -0.0778422 0)
(0.440641 -0.0773088 0)
(0.999789 0.00284666 8.86402e-23)
(0.999733 0.00318585 5.57052e-22)
(0.999762 0.00321307 6.69584e-22)
(1.06004 0.180518 -1.0639e-20)
(1.05702 0.187624 8.17854e-21)
(-0.128675 -0.015972 3.07802e-20)
(-0.141573 -0.0153357 -1.23689e-19)
(0.98426 0.0324718 1.32714e-21)
(0.983374 0.0334241 -4.90444e-21)
(0.982982 0.0317181 1.21837e-21)
(1.00507 0.0773568 -1.18679e-21)
(1.00582 0.0748737 1.66146e-21)
(1.00302 0.0754203 2.9003e-21)
(-0.019595 -0.0155627 -1.23358e-20)
(-0.0120686 -0.0157084 -1.63255e-21)
(0.845726 0.490268 -6.38817e-21)
(0.878514 0.498592 -7.55726e-21)
(1.01965 0.0548674 -7.59373e-22)
(1.01967 0.0565551 3.64202e-22)
(1.02158 0.055947 1.35064e-22)
(1.14725 -0.0903468 6.7988e-21)
(1.14316 -0.0908543 1.2576e-20)
(0.680336 0.561706 0)
(0.70684 0.533482 3.06185e-20)
(1.00959 0.00531458 8.95826e-22)
(1.01004 0.00558343 -6.01845e-22)
(1.00995 0.00507403 -1.63393e-22)
(0.115073 -0.0150464 -1.39593e-20)
(0.0966099 -0.0113915 -2.18423e-20)
(1.14366 -0.0944896 -3.80779e-20)
(1.14115 -0.097291 -3.03215e-20)
(1.14059 -0.0934249 2.04307e-20)
(1.00216 0.00541893 0)
(1.00238 0.00556535 -5.13111e-22)
(1.01064 0.0138334 -1.51796e-22)
(1.01009 0.0134518 -3.22221e-22)
(1.0103 0.0141113 2.12523e-23)