/*--------------------------------*- C++ -*----------------------------------*\
| =========                 |                                                 |
| \\      /  F ield         | OpenFOAM: The Open Source CFD Toolbox           |
|  \\    /   O peration     | Version:  v2012                                 |
|   \\  /    A nd           | Website:  www.openfoam.com                      |
|    \\/     M anipulation  |                                                 |
\*---------------------------------------------------------------------------*/
FoamFile
{
    version     2.0;
    format      ascii;
    class       volScalarField;
    location    "500";
    object      p;
}
// * * * * * * * * * * * * * * * * * * * * * * * * * * * * * * * * * * * * * //

dimensions      [0 2 -2 0 0 0 0];


internalField   nonuniform List<scalar> 
13917
(
-0.0571603
0.00501848
-0.0597549
-0.023802
0.00311487
0.00568113
-0.0353224
0.00260882
-0.0472358
-0.0635954
0.00292495
-0.0158586
-0.013413
-0.026521
0.00263075
-0.0567144
0.000694572
0.00168342
-0.0553423
-0.0568874
-0.00459686
-0.00162063
-0.0439541
-0.00147835
-0.0195569
-0.00296155
0.0459126
-0.0638242
-1.0555e-05
0.000194748
-0.0630872
-0.0586609
-0.0193588
-0.0574496
0.00117271
0.00486083
-0.00774088
-0.00312504
-0.0363578
-0.00820242
0.000803285
0.00147095
-0.0426043
-0.0579222
-0.0573806
-0.0346148
-0.00523507
-0.0762135
0.0263813
0.00114729
-0.0156055
-0.0370232
-0.0526532
-0.00870496
-0.00962215
-0.0389639
-0.0619892
-0.042874
0.00139164
-0.0318138
-0.0701027
0.00295296
0.000177235
-0.0195958
-0.0594279
-0.000181512
0.000603567
0.00648799
0.00169335
-0.0536836
-0.0609085
-0.0563285
-0.0231836
0.00137121
-0.00453117
-0.0152545
0.00192505
0.00131123
-0.0154247
-0.0195247
-0.00408579
0.000599673
-0.0229366
-0.0586868
-0.00910148
-0.00619544
-0.0582493
-0.00883035
-0.00804159
0.000662808
0.000796269
-0.0436224
0.0235093
0.00097537
-0.00748093
0.000275722
0.0259504
-9.04325e-05
-0.00901136
0.017724
0.000522127
0.00049615
-0.00416414
-0.000427674
0.00190756
-0.0561754
-0.0624324
0.00349214
0.00146868
0.0449207
-0.0143175
-0.0578028
-0.000309085
-0.0781731
-0.0618833
-0.0133441
-0.0549777
0.000840531
-0.059442
-0.0223191
0.000593057
0.00124997
0.0007208
-0.0467493
-0.0527537
-0.0575538
-0.0202903
-0.00391364
-6.60769e-05
-0.047898
-0.0514455
0.00460568
-0.0567416
-0.012796
-0.0588933
0.0432758
-0.0549705
-0.054797
-0.0020731
-0.00300745
-0.030649
0.00129461
-0.058543
-0.00394474
-0.0214605
0.00153024
-0.0608583
-0.0125342
-0.0734315
-0.00884244
-0.00891806
0.000482229
-0.0212198
-0.0225756
0.0293527
0.000757578
-0.000402205
-0.0588985
0.000781201
0.000828898
-0.00721914
-0.0770312
-0.00346037
-0.0262632
-0.093416
0.0245784
-0.0528185
-0.103915
5.92308e-05
-0.00160114
-0.00105649
-0.0576493
-0.0475677
-0.0624521
-0.0236726
0.000702558
-0.0244682
-0.0367405
-0.0511688
-0.00295106
-0.0410203
-0.00125431
-0.015119
-0.0529304
-0.0593906
0.00775819
-0.0148443
-0.0521111
0.000260829
-0.00422374
-0.0218593
-0.0570614
-0.050065
-0.0583191
0.000945695
-0.0528323
-0.0210378
-0.056978
0.00110024
0.00047195
-0.00662686
-0.0543537
-0.0542632
-0.00614212
0.0518805
0.000132346
-0.00903943
0.00128101
-0.0381981
-0.00363808
-0.000657531
0.00351067
0.00353017
-0.0759411
-0.0590488
-0.00250888
-0.0668044
-0.00513849
0.000941058
0.000946377
-0.102721
-0.0510436
-0.0532704
-0.0141246
0.00012584
0.0420534
-0.0531577
0.000927007
0.00091499
0.000742904
0.000964464
0.000970496
-0.0563226
-0.0756581
-0.00290368
9.59954e-05
-0.0354731
-0.0552259
0.000813939
-0.0139656
0.0484262
-0.0601291
-0.0527582
-0.0663678
-0.0225192
-0.00411108
-0.0984487
-0.0366888
-0.000586836
-0.0513817
-0.00658149
-0.0742539
-0.0225538
-0.0173412
-0.0244945
-0.00232739
0.000855961
-0.0202647
0.00331286
0.00133769
-0.0535887
0.00516517
0.0012399
0.000883683
0.000886706
0.000877591
-0.022769
-0.0135713
-0.0319248
0.00129495
-0.0569646
-0.0638118
-0.0127928
0.00255337
-0.0301113
0.000946108
0.0114483
-0.0541269
0.000948021
-0.0542608
0.00127373
-0.0757518
0.000656975
0.00152581
-0.00210195
-0.00321471
-0.056017
-0.00207887
0.0274132
-0.017292
0.00517894
0.00157607
0.0393382
-0.0560438
0.000820165
-0.0387638
0.00324677
-0.0118381
0.00332837
-0.0162143
0.00109266
-0.00204408
-0.0321551
0.00199989
-0.0173315
-0.0163914
-0.0136665
-0.056579
-0.053915
5.02304e-05
0.000941853
-0.0124262
0.00474284
-0.0635219
-0.0622104
-0.0645973
0.000330448
0.00200846
0.00245307
-0.0598788
0.00381151
-0.0597577
-0.0131025
0.00240009
0.0442256
-0.000200133
0.00564115
-0.0564115
0.000792442
-0.058762
-0.00893582
-0.0635707
0.00100952
-0.0560653
-0.00189902
-0.0189125
-0.000123467
0.000151251
0.000804459
-0.0528692
-0.0585413
-0.00826886
-4.17431e-05
-0.0578455
-0.0609696
-0.0723542
-0.0252875
0.000928854
-0.00387794
-0.061263
-0.00130066
0.000929648
0.00344868
-0.0120366
0.000269433
-0.0187066
-0.0468446
-0.00920652
0.0103565
-0.059732
-0.0580542
-2.47863e-05
-0.0087099
0.00315375
-0.0586182
0.000767371
-0.057612
-0.0600573
-0.00832227
-0.00942989
-0.0055364
0.000893899
0.0227713
0.00133777
-0.0539091
-0.0339009
0.000401665
-0.0127593
-0.0643513
0.00104361
-0.0926925
-0.0515166
0.00132918
0.0241219
-0.00100574
0.00529599
0.00058219
-0.0571773
0.00316295
-0.00995794
0.0409726
0.00748745
-0.00678596
-0.0843255
-0.0691559
-0.0111848
-0.0562349
-0.00493022
0.0086232
-0.0598099
-0.00908754
-0.0405314
-0.0170939
-0.00367389
-0.00399051
-5.78547e-05
-0.054927
0.0240569
-0.00902165
0.000219346
-0.00197241
-0.0328652
0.0114229
0.000957495
6.25803e-05
-0.0632235
-0.0028421
-0.00317733
-0.0101809
-0.0615944
0.0126216
-0.000832963
-0.0559216
-0.0592789
0.00113726
0.000932607
-0.00467143
-0.00402385
0.000960698
-0.00266881
0.000938388
0.00112086
-0.0951758
-0.00501441
-0.00871782
-0.056787
-0.0374264
-0.000652369
-0.0206583
-0.0833517
-0.00595647
-0.0520375
0.000986121
-0.0138028
0.0010694
0.000996873
-0.00769006
-0.000453922
-0.0549892
0.00111145
-0.0589312
-0.0135566
-0.046809
0.00106015
-0.00367593
-0.024582
-0.0719327
-0.0122358
0.0210347
-0.000730686
-0.00368694
-0.00201086
-0.00121017
-0.000663207
-0.00720808
-0.0564266
-0.0692194
-0.000671654
0.0350589
-0.0621136
-0.0136997
-0.0375519
-0.0703632
-0.0838795
-0.0429961
-0.0638082
0.000106791
0.00149854
-0.000620273
0.000184653
0.000744106
-0.0063861
-0.0683871
0.000752479
-0.0089801
-0.00795447
-0.0433517
-0.0065047
-0.0589202
-0.0492443
0.00193189
0.00286575
0.00122346
-0.00544547
-0.00873491
-0.0268733
-0.0365095
-0.0181793
-0.0894934
-0.0092095
-0.00434282
-0.0377254
-0.00278052
-0.0581315
-0.00389948
0.000997496
-0.0338229
0.000982411
-0.00475577
-0.0293185
-0.0598208
0.0318716
-0.00735849
-0.0289119
0.0018786
-0.0633087
-0.0197159
-0.00862946
-0.00934014
-0.0072975
-0.0262689
-0.00154908
0.000300315
0.00076343
0.000362376
-0.00391194
0.00201623
-0.0259297
0.000773079
-0.0485267
-0.0027991
-0.00226201
-0.0173377
-0.060123
0.000570017
-0.0342586
0.00131665
-0.0463318
-0.0409748
-2.85349e-05
-0.0251147
0.0211621
-0.0157081
0.00114939
-0.0564363
-0.0908594
-0.0576045
0.000162169
-0.00180271
0.00201015
-0.0139783
-0.0610028
0.000965134
-0.00180119
-0.0218372
-0.0583421
0.0159154
-0.0419475
-0.059498
-0.000558601
-0.0664391
-8.37447e-05
0.00155166
-0.0571791
0.000964969
-0.0609226
0.000263494
-0.0136978
-0.00175829
-0.0588607
0.00204224
0.0008225
-0.0589573
-0.0366382
-0.0147058
-0.0612225
-0.0599301
-0.0840848
0.000548775
-0.0530007
0.000345487
-0.06162
-0.0154427
0.00162443
0.00110589
0.000582767
-0.0360695
-0.040637
0.000966132
-8.86843e-05
-0.0114554
-0.0629389
-0.00805289
-0.058675
-0.0087524
0.000818534
0.000825053
-0.0361649
-0.0690269
-0.0557679
-0.0507467
-0.0267521
-0.0646724
-0.0549977
0.000639084
-0.0733706
-0.0125194
-0.0706198
-0.0136616
-0.063688
-0.00384993
0.00239727
-0.0219439
-0.0122995
-0.0338216
-0.064103
0.000713944
-0.0320582
0.000925681
0.000565142
-0.0583891
0.0194789
0.00118631
-0.0478151
-0.0138288
0.00153147
0.000469857
-0.0588366
-0.00829027
0.0034911
0.000956651
0.00109379
-0.0582425
0.000399369
-0.0494541
0.000457469
-0.00218836
-0.0663402
-0.0590623
-0.00854842
-0.0545528
-0.0611359
0.0132852
-0.0363677
-0.000561196
0.00332173
-0.0590762
-0.0645362
-0.00526913
-0.00825012
0.00248874
0.00046509
-0.000555318
-0.000347266
-0.0405256
-0.0181716
-0.0931404
-0.0346429
0.0137548
-0.0243804
0.00248753
-0.0225487
-0.0506599
-0.0547096
0.00106973
0.00325612
-0.00023868
-0.00232538
0.000586898
0.000751413
0.00192421
-0.00573461
-0.0538342
-0.057995
-0.000801975
-0.0560901
0.000716576
-0.0634157
0.00129379
4.58401e-05
-0.0602132
-0.0415681
-0.00875963
-0.0229276
0.00111688
0.000375561
-0.0267474
-0.0366164
-0.00257382
-0.0524901
-0.0167079
-0.00997488
-0.0073059
0.00283593
-0.0573147
-0.0285251
-0.000395533
0.001029
-0.0542727
0.0372475
-0.0207949
-0.0519911
0.00119572
-0.00193092
9.51412e-05
-0.00698031
-0.0573216
-0.00199827
-0.032849
-0.0261618
-0.0338113
-0.0713872
0.00214772
-0.0475718
-0.0572265
-0.00739418
-0.0191453
-0.000514515
-0.0358903
0.00302499
-0.0686336
-0.0107094
0.00168172
-0.0522806
0.000586507
0.00185324
-0.00868426
0.00295659
-0.0250345
-0.0645653
0.000584778
-0.067173
-0.0677676
-0.0028012
-0.0146724
-0.0113405
-0.00578318
-0.0130289
-0.0219665
0.00410088
0.000508574
-0.0342259
-0.0490184
-0.000455034
-0.0668387
-0.0462889
-0.0430004
-0.0495431
-0.00359212
-0.0654079
0.0299322
0.000730567
-0.0423425
-0.0192448
-0.0558899
-0.000896693
-0.000782014
-0.000472216
-0.0538047
-0.0187079
0.00136136
-0.0621099
-0.00257607
-0.000486921
-0.0394637
0.0253087
0.00392842
0.0185977
-0.000436406
-0.0624472
-0.0224264
0.00204508
-0.0627921
0.00155852
0.00373635
0.000745154
0.000529836
-0.0216488
-0.00958453
0.00032837
-0.000846063
-0.00178066
0.000493588
-0.012811
-0.00918498
-0.0436501
0.000999737
-0.0510225
0.00179643
-0.0787693
0.00406505
0.000758721
-0.0605814
-0.0184617
-0.0533133
-0.0406296
0.00366462
0.00170746
0.00026139
-0.014629
-0.0609534
-0.0342723
0.0126552
0.0104665
-0.0129453
-0.0554963
6.57881e-05
0.00250755
-0.0011108
8.65845e-05
-0.0971699
-0.0358304
0.00484501
-0.0541571
0.00788324
0.000835882
0.000404987
-0.00784835
-0.000453967
-0.00805393
-0.0121261
-0.00161361
-0.0614187
0.000831936
-0.00226506
-0.00688466
-0.0554307
-0.0534045
0.00273645
-0.0597381
0.0257196
-0.0554011
0.00574207
-0.00133746
0.00153035
-0.0171881
-0.0153093
-0.00715646
-0.0351577
-0.00711634
0.00991611
-0.00821171
-0.0596518
-0.0187956
-0.0561666
-0.00354754
0.000445465
-0.00723308
-0.0179727
0.00164261
-0.0294205
0.00106156
-0.0606468
-0.041032
-0.00147279
0.000147655
-0.0173156
-0.000478531
0.000604376
-0.0891743
-0.00149384
0.0198639
-0.00402866
-0.00198374
0.00192793
-0.00496218
-0.0675188
0.00302617
-0.00151785
-0.00839823
-0.0710535
-0.00445395
-0.0523761
-0.000178872
0.0172514
0.00112711
0.000442612
-0.0577614
0.000386282
-0.0239904
-0.0553731
-0.0570542
0.00111723
0.00693815
-0.0645326
0.00139929
0.000626946
-0.00157115
-0.0598366
-0.0167634
-0.0591269
-0.0168818
-0.0572763
0.00197093
-0.00882036
0.000126507
0.00088636
0.00202636
-0.00725641
0.000431669
-0.0565532
-0.00909276
-0.00325515
0.00148359
0.00140079
0.00151922
-0.0414825
-0.0108239
-0.0615527
-0.00958392
-0.0686441
-0.0336569
-0.0328549
-0.0563476
-0.00661437
-0.0419037
-0.0149049
-0.0546915
-0.00170283
-0.0243483
0.0010906
0.00153967
-0.0089431
0.00109483
0.00112503
0.00124335
-0.0148828
-0.0241862
0.000730268
-0.00943598
-0.0562279
-0.0877814
-0.0796918
-0.0549479
-0.000653038
0.00108542
-0.00712147
-0.062489
-0.0018178
-0.0540879
0.000993735
-0.0013578
-0.0112792
-0.00578398
0.000991194
0.00105988
-0.00967604
-0.0223437
-0.0034121
-0.0572869
0.00372949
-0.0024107
-0.0605994
-0.0151669
-0.000137907
0.00292474
-0.0592423
-0.00261103
0.000728371
-0.00739736
0.000929787
0.0001468
-0.0650639
0.0015255
0.0107212
-0.02456
0.00139824
-0.000775768
0.00126767
-0.00693107
0.00742813
-0.016043
-0.0554759
0.00317186
-0.00315124
0.000932376
-0.017588
-0.000783736
-0.0625267
-0.0594699
-0.0176966
-0.0546573
-0.0571047
0.00746746
-0.062706
0.00122517
-0.0547626
0.00123816
-0.055184
-0.0263213
-0.0414362
-0.0153552
-0.0119162
0.0262549
-0.0616387
0.00117973
-0.010571
0.00107004
-0.00739948
-0.0601477
-0.00677414
-0.0164712
0.0170721
-0.0534485
0.00128576
-0.0522621
-0.0546405
0.000219786
0.000959232
-0.0050871
-0.0666871
-0.015547
0.000297372
-0.0351251
-0.0198488
0.000203489
0.00393992
-0.00266338
-0.0170507
-0.0138913
0.00111655
0.000648618
-2.26392e-05
0.00308495
-0.0539343
-0.023492
-0.0182688
0.00220591
-0.0584865
0.00271901
0.00125433
-0.00469871
-0.0284747
-0.0246542
0.00117267
-0.0798707
0.001815
0.000428934
-0.0507136
-0.00376599
-0.00388401
-0.0491604
-0.0621994
-0.0680993
-0.0542441
-0.00186991
-0.054374
-0.0567924
-0.00304065
-0.0557417
0.000970036
-0.0246615
-0.0341984
-0.0037265
-0.0285063
0.00158637
-0.022924
0.012571
-0.00734968
-0.086651
-0.0288721
-0.0209437
-0.0706325
0.000515422
-0.0689373
-0.0109139
-0.00588405
0.00222551
0.0014308
0.000937548
-0.000270449
-0.0157812
-0.06127
-0.00294297
-0.00849298
-0.0412609
-0.00708379
-0.0115762
-0.00742296
-0.0690563
0.000269965
0.000199361
-0.00101637
0.00257329
0.00452122
-0.0569525
-0.0215373
-0.0164325
0.0354183
0.00136818
-0.00812691
-0.057881
-0.054234
0.00314159
-0.0218901
-0.00465961
-0.0516401
0.0154626
-0.00716196
-0.0642761
0.000246605
-0.0383102
-0.0841529
-0.0596583
-0.00731445
0.0218355
0.0011004
-0.00223138
-0.0116611
-0.011631
-0.00203063
-0.0675849
0.000403772
-0.0328321
0.000420603
-0.0677272
-0.083809
-0.0102027
-0.060882
0.0191269
-0.0164865
-0.0694704
-0.00147721
-0.0109144
-0.0124919
-0.055473
-0.0496058
-0.0540105
-0.012896
-0.09978
-0.0170499
0.00109
0.00212113
-0.0309756
0.00134986
-0.00479335
-0.0223033
-0.0127898
-0.0102134
-0.00347505
-0.00287142
-0.0291556
-0.0511018
-0.0024328
-0.00736034
-0.0190618
0.00424562
-0.00761234
-0.00672172
0.0014691
-0.0641757
-0.0629045
0.000352783
-0.0555905
0.000692294
0.00764202
-0.0554842
-0.0163229
-0.00332707
0.00110069
-0.0176179
-0.00670134
-0.00683375
-0.0626621
0.000542212
-0.0332981
0.00157103
0.000700919
-0.0541492
-0.0680949
-0.0939787
-0.0238229
-0.00199584
-0.00331113
-0.00918732
-0.0701489
-0.0609098
-0.00123402
-0.00465013
-0.00591039
-0.0511158
-0.039401
0.000124678
-0.00946102
-0.0583638
0.000862304
0.0106689
0.000251813
0.000465663
-0.0237386
-0.0580184
-0.0328666
0.00178254
-0.0933103
-0.0248246
0.00028826
-0.0275955
-0.00508328
-0.0107553
-0.0735502
-0.0163483
0.000912724
0.00308213
-0.0528431
-0.00950864
-0.0199864
0.000830423
-0.00684672
-0.000531907
-0.0130234
-0.0249315
-0.00814049
-0.0531132
-0.00971363
-0.02924
-0.047983
-0.0153751
0.000247574
-0.00583666
-0.0501439
-0.0660018
-0.0642799
-0.00598063
0.000863427
-0.0549987
-0.00344006
0.00386844
-0.0222413
-0.00755648
-0.0118254
-0.00359734
-0.0598109
-0.0248844
-0.00493937
-0.0170698
0.00766303
-0.0598983
-0.0548871
0.000249901
-0.00283389
0.0238483
0.00074667
0.00113431
0.00631173
-0.00761957
-0.0142589
-0.0372324
-0.0199507
-0.0591457
-0.0114612
0.000879999
-0.0295089
0.000855737
-0.0670543
-0.0111656
-0.000539596
0.0157105
-0.0592844
0.0140108
-0.0608171
-0.0101725
-0.0383925
-0.000588489
0.000330955
0.00110957
-0.0113351
-0.0119957
-0.0674866
-0.0159801
-0.0352333
0.00229372
0.00117221
-0.0203701
0.000948054
-0.000141061
-0.0575168
0.000949015
0.0143427
-0.0560036
-0.0115305
-0.0514937
-0.0381793
-0.0381704
-0.00960898
0.00292152
-0.0019022
0.000517514
-0.00718784
0.00371449
0.00209582
-0.000215807
0.000968554
0.00106064
0.00012309
-0.00403249
-0.0649623
-0.0339604
0.0013187
-0.0131102
0.000621212
-0.0317558
0.000394324
0.0324255
0.00385801
-0.00191117
0.00142324
-0.0204416
-0.00163343
-0.07589
0.000456443
0.000928914
-0.0166064
-0.00222014
0.000593117
-0.0578703
-0.00541713
-0.00042657
0.00510184
-0.0264328
-0.0517282
-0.00223069
-0.0243689
0.0077243
0.000802057
0.00112054
-0.0734971
-0.0154806
0.000622847
2.39074e-05
0.000618769
-0.058582
-0.000709765
-0.00396664
-0.0149371
0.00112685
-0.0567201
0.000745437
0.000848023
-0.0569776
-0.0102558
-0.000515607
0.00110073
0.00112067
-0.0539984
-0.0201563
0.00199041
-0.0010376
0.0451047
0.00692428
-0.0011855
-0.00120655
-0.0151777
-0.0127227
-0.0352236
5.87115e-06
0.00125234
-0.0210807
-0.00862338
-0.00951092
-0.0132371
0.000100882
0.000652071
-0.0499873
-0.00171129
0.00451149
0.000392996
-0.0122323
-0.0030118
0.000962979
-0.00786765
0.00160254
-0.0429589
0.00834404
0.00126654
-0.0565052
-0.0665741
-0.053741
-0.0620636
-0.00257439
-0.0132549
0.0367841
-0.0516114
0.00105454
-0.0544263
0.000532678
-0.0648025
0.000842374
-0.0325067
-0.0472295
-0.0221809
0.0217118
0.000244616
-0.0542962
-0.00242822
0.00319227
-0.0326145
-0.057226
-0.0542481
-0.0134213
0.00672914
0.0301156
0.000724428
-0.0583146
-0.00489348
-0.0118259
-0.00460578
-0.00221979
-0.0542017
0.00111248
-0.0490751
-0.00471123
0.0313479
-0.0273037
-0.00898588
0.000419968
-0.0596247
0.000367668
-0.0166303
-0.0233944
-0.000271884
-0.055512
0.00367494
-0.0333827
-0.0549344
-0.0133071
0.000563619
-0.0233614
-0.00252748
-0.0250325
0.00303432
0.000432829
-0.0371053
0.000684138
-0.000237847
-0.0423098
-0.0093971
-0.0659648
-0.0112164
-0.000266251
-0.00767412
-0.00215949
-0.00414234
-0.0113536
-0.0499723
0.00159926
-0.000632483
0.000335978
-0.0111457
0.00580015
-0.00806134
-0.0607442
0.000246311
0.0161735
-0.00993663
0.00161864
-0.0597467
-0.00747794
0.000704723
-0.0535514
-0.0537372
-0.0582324
0.0014772
-0.0576115
0.00427524
-0.00533339
-0.0547855
-0.0052227
0.000681131
-0.09744
-0.00249718
0.00077437
-0.0573006
-0.00205047
-0.0492936
-0.0203935
-0.0590678
-0.016175
-0.00909701
-0.0114399
-0.0552419
-0.0166745
-0.0142278
0.00160147
-0.0108513
0.000293721
0.0015044
-0.0016583
-0.0140981
-0.00991908
-0.00647318
-0.0549108
0.0110183
-0.0153383
-0.0325196
0.00045634
-0.0485214
0.0128525
-0.00428537
-0.0657721
0.000905738
-0.0481824
-0.0549948
0.000403886
-0.0547164
-0.0133121
-0.0570443
-0.0526535
-0.0136897
0.00136915
-0.00554758
1.13374e-05
-0.0165433
-0.02166
-0.000185934
-0.00693116
-0.0583215
-0.0224792
-0.0606255
0.000208136
-0.019842
-0.0582926
0.00159343
0.00787482
-0.063091
-0.00925411
-0.0150243
-0.0612794
-0.0506838
-0.00370466
-0.00204812
-0.0701279
-0.00611045
0.00421665
-0.0593895
-0.0904955
-0.00343334
-0.00448111
-0.0402752
-0.0305328
-0.0188562
-0.0117205
-0.0450714
-0.0202732
0.0143034
0.00340923
0.00148297
-0.00780488
-0.0546076
-0.0012415
-0.0159357
-0.0161032
0.0153468
0.000504647
-0.0583725
-0.0186334
0.000968509
-0.022344
0.000645487
-0.00106081
-0.029898
-0.0376603
-0.0123656
-0.0558825
0.00198226
-0.0587717
0.000956358
-0.0560275
-0.0601613
-0.0609063
0.000962479
-0.0130239
-0.00216601
-0.00248844
-0.0198981
-0.0550734
-0.0629063
0.0112603
7.21993e-05
-0.0170028
0.00159346
-0.0506689
-0.052336
0.000556452
-0.000894883
-0.0149149
-0.0151514
-0.00446344
0.000917909
-0.00755022
-0.0160609
-0.00354727
0.000699741
-0.00623985
-0.0584463
0.00244891
-0.000225574
-0.0618264
-0.0324525
-0.00409591
-0.0646508
-0.00640077
-0.000853422
-0.0605582
-0.0113685
0.00635504
-0.0574923
-0.0574565
-0.0467137
-0.0571645
-0.0196225
0.00898688
0.00764722
0.000586585
-0.0625389
-0.0397191
-0.00479732
-0.064951
0.0308243
0.00289271
-0.0377869
-0.0668211
-0.0149395
-0.0685699
9.7247e-05
-0.0227443
-0.0122812
-0.00204296
-0.0595084
0.010166
0.000935576
0.00445337
-0.0613943
-0.00627972
-0.0077151
-0.0630609
0.000198984
-0.00789663
6.01529e-05
-0.00625645
-0.054781
-0.0160304
-0.101969
-0.0367527
-0.0337539
-0.00158932
-0.0172896
0.00382654
0.00358171
-0.00546062
-0.0119487
-0.00637267
0.000916697
0.000795033
-0.0536461
-0.0689621
-0.00635041
-0.0878506
0.000302898
-0.0040375
-0.00158742
0.000497815
0.00126017
0.00350434
-0.0245474
-0.0576849
0.0191651
-0.0619953
-0.0218567
-0.0386508
-0.0102483
-0.0600943
-0.00091999
-0.0573919
-0.014692
-0.00453632
-0.011393
-0.0543807
-0.00532427
-0.00755831
0.000729081
-0.010496
-0.0698751
-0.000185965
-0.0214047
-0.00216479
-0.0036221
-0.0628571
-0.0123425
-0.0221279
-0.00822425
-0.000887422
-0.0642069
-0.0289724
0.000522097
-0.0511351
0.0151272
-0.0575418
0.010856
-0.00661636
-0.00388726
-0.0592934
-0.0111429
-0.0482273
-0.0224404
-0.057675
0.00144415
9.13181e-05
0.00350314
-0.078004
-0.0150682
0.000489062
0.000466247
-0.071351
-0.0563661
-0.0292821
-0.0163203
-0.0020352
-0.00311253
-0.0554354
0.000120649
-0.0608133
-0.0582494
0.000150518
-0.0411379
0.00301152
-0.00205136
-0.030137
0.00113825
-0.0172141
0.000167946
0.00958656
-0.020692
-0.00701499
0.0013797
-0.0596591
-0.00442499
-0.0134171
-0.0577865
-0.00935014
0.00151251
-0.027065
-6.97837e-06
0.00117493
-0.0195754
-0.0389119
-0.0181909
-0.00150261
0.00081958
-0.00281138
-0.0122908
-0.0357128
-0.014475
-0.0121567
0.000987079
0.000794156
-0.0157199
0.0192889
-0.0561309
-0.0581289
-0.0671394
-0.00191816
0.000570462
-0.00699711
-0.0597158
-0.0151167
-0.00372478
-0.0573955
-0.0594363
-0.000922418
-0.0209531
-0.0183105
0.00665378
-0.0595999
0.00103404
-0.0142201
-0.0362696
-0.105392
-0.020019
-0.0221927
-0.00457482
-0.065598
-0.0620764
0.000338254
-0.0819416
0.00347906
-0.0156439
-0.0679811
-0.0564264
0.00403595
0.0170039
-0.00667084
0.000921894
-0.013337
-0.00412672
-0.00631137
0.00323732
-0.00225982
0.00124166
-0.0285382
-0.0600362
0.00264984
-0.000183191
-0.017636
-0.033752
0.0104142
0.0013232
-0.0158402
-0.00774552
-0.0588335
0.0120599
-0.00196716
-0.0285787
-0.0674505
0.000864084
-0.0533958
-0.01274
-0.0041172
-0.0290088
-0.00141241
0.00277125
0.000380177
0.000721169
-0.000565923
0.000496284
-0.0661843
0.000946638
-0.00663055
-0.0467971
-0.0419303
-0.00330044
-0.0572534
-0.00837743
-0.0165792
-0.0118094
-0.0111799
-0.00262015
-0.00267385
-0.0593932
0.0110978
0.00619232
-0.00858874
0.00431872
-0.0677589
-0.00605982
-0.0648171
-0.00102222
-0.00149555
-0.0157474
-0.00499118
0.000917876
0.00152104
-0.0670185
-0.0629546
-0.00339475
-0.00589161
-0.0151921
-0.0664893
-0.0195478
-0.00601224
-0.00718279
-0.0580196
-0.0156798
-0.0542275
-0.021468
-0.00446701
-0.00712528
0.000183917
-0.0015209
-0.0544112
-0.00373191
-0.0400219
-0.0580043
-0.0044825
-0.0542694
-0.0173084
-0.000980855
-0.0206429
0.00160874
-0.0267302
0.00100435
0.000919209
0.000811576
-0.0630821
0.000686219
0.012287
0.00623161
-0.0389356
-0.0207685
-0.00951445
-0.0547902
-0.0608313
0.0011172
0.000377207
0.00281085
-0.0599813
-0.0118364
-0.0206362
0.0205997
-0.00459934
-0.0400611
-0.0101487
0.000107787
-0.00880338
-0.0172667
-0.0362858
-0.0594656
-0.0575387
-0.0277769
-0.000828637
0.00412782
-0.0165637
-0.0161398
-0.0020216
-0.060151
-0.063182
-0.006436
-0.0040882
0.000857358
0.00166713
0.00263534
-0.0635439
-0.0604458
-0.0159522
-0.0594204
-0.0574813
-0.0656188
-0.057152
-0.0104974
-0.0693099
-0.0161507
-0.0587283
-0.0595658
-0.0710553
-0.0592131
0.000607744
-0.0237807
0.00228809
-0.000853749
-0.0574205
-0.00819006
-0.0154223
-0.0390326
-0.0204712
-0.0438874
-0.0658942
-0.0606838
-0.0908696
-0.0235316
-0.00475224
-0.0109009
0.00052592
-0.0222644
-0.022243
-0.0562659
-0.0482101
-0.0146845
0.000959378
-0.000359853
-0.00162797
-0.0673494
-0.00506972
-0.000484415
-0.0158519
0.00878116
-0.0441872
-0.000794194
0.00710126
-0.0697147
-0.015637
-0.0437751
-0.0153829
-0.0400899
-0.0194236
0.000552232
-0.0020421
0.000548129
-0.066024
-0.0300448
-0.00197442
-0.033947
-0.0588336
-0.00393453
-0.00586927
-0.00447612
-0.08714
-0.00654793
-0.00374019
0.000982308
0.0058313
-0.0648796
-0.000931122
-0.0566381
-0.0613366
-0.010123
0.00684651
-0.0230652
-0.0577029
-0.0153673
-0.0580039
-0.00568942
0.00049349
0.00164222
-0.0568089
-0.03584
0.000816021
-0.0573357
-0.011759
-0.0109034
0.00734989
-0.0599537
0.0144037
-0.0239446
-0.0388216
-0.0216838
-0.0616936
-0.00236536
-0.00977051
-0.0203325
-0.0293978
-0.0147595
0.00220101
-0.0109409
-0.00466891
-0.0589048
-0.0227103
-0.0551545
-0.0111817
-0.056647
-0.0537988
-0.0191453
-0.0194488
-0.0374108
0.0149576
-0.0660922
-0.0361454
-0.0584299
-0.0800293
0.00478431
0.00189487
-0.0607031
-0.0581804
0.00302396
-0.0607837
-0.00705804
-0.00130317
-0.0209039
-0.00522653
-0.0106011
-0.044878
-0.0557544
0.00447616
-0.00452313
-0.0776619
-0.0635876
-0.0570711
-0.0576138
0.00318129
-0.0566258
-0.0465988
-0.0582631
-0.000762008
-0.000982779
-0.0526819
-0.0532317
0.000730015
-0.0757861
-0.0579379
-0.000814668
-0.0188097
0.00143072
0.00528269
-0.00620702
-0.0379391
-0.0658656
-0.00010087
-0.0145596
-0.00104884
-0.0163338
-0.0609057
-0.0575427
-0.00293933
-0.0581633
-0.0222217
-0.00777903
-4.56995e-05
0.000389363
0.000774889
-0.0596641
-0.0596587
-0.0432531
-0.0104801
-0.0542186
-0.00126975
-0.0592553
-0.0562191
-0.0248715
-0.0583433
0.000838745
-0.00755309
-0.0130881
-0.0342303
-0.0574743
-0.0335652
-0.0185433
-0.0194992
-0.00303018
-0.0551892
0.00179762
0.00100799
-0.0570417
-0.0581793
-0.0221935
-0.0097673
-0.0344644
-0.0134618
-0.0154942
-0.00949871
-0.00599623
-0.0669207
-0.00124508
-0.0571798
-0.00367407
0.00439895
-0.055981
-0.00180121
0.000878636
0.00706059
-0.0154779
0.000639852
0.00422252
-0.0481196
-0.0656726
-0.0556016
-0.0527524
-0.0157325
0.00036912
-0.00398508
-0.0210095
-0.00839756
0.00536129
0.000551136
0.00092701
-0.0582026
-0.00629606
-0.0320322
-0.0293091
0.00318009
0.000437083
0.000814704
-0.0221204
-0.0222019
-0.0629545
-0.0292862
-0.0501921
-0.0546268
-0.0141021
-0.0471893
-0.0675662
-0.0571496
-0.0622604
0.00107709
-0.0298602
-0.0218335
-0.0154495
-0.037041
-0.00256853
-0.0230935
-0.0575109
-0.0540221
-0.0122591
-0.0578383
-0.0475413
-0.0586643
-0.0594509
-0.0227345
-0.0600715
-0.0605834
-0.0609484
-0.0611472
-0.0616482
-0.0466158
0.00292133
-0.00655522
-0.0348931
-0.0565612
-0.00444731
-0.0498938
-0.058494
-0.0283456
-0.0588674
0.000870965
0.000680532
0.00100711
-0.0632855
-0.0221807
-0.00552905
-0.0684647
-0.0775982
0.0176547
-0.00899615
0.000318318
-0.023912
-0.0636997
-0.00325516
-0.0384387
-0.0624517
-0.0555933
-0.0549023
-0.0570274
-0.0353704
-0.00486581
-0.0567702
7.59975e-05
-0.0576043
-0.0547847
-0.0100662
-0.0207369
-0.0181834
0.00105468
0.000304758
0.0201952
0.0135999
0.00116676
0.00119923
-0.0430656
-0.059345
-0.0197818
-0.0110705
-0.0600755
-0.0470811
-0.0575983
-0.0559132
-0.0186606
-0.0147827
-0.0216201
-0.00468293
-0.0587134
0.0221939
-0.0665384
-0.0568599
-0.0597363
-0.00558253
-0.00359162
-0.00456884
-0.0548093
0.000841208
-0.0565337
0.000139599
-0.0554655
-0.0222042
-0.0051543
0.00534167
-0.00473246
-0.0571224
-0.00451653
-0.0140655
-0.00290719
-0.0222342
-0.0657796
-0.0556091
-0.0192388
-0.0569429
-0.00475827
-0.00124291
-0.0349407
-0.0183026
-0.0604431
-0.082854
-0.0138269
-0.0602622
-0.0578277
-0.0629366
0.000262143
0.000919109
-0.000104318
-0.000788308
-0.0610656
0.00390973
0.000289296
-0.00522481
-0.0588352
-0.00277289
-0.00656438
-0.00957545
-0.0619926
-0.0160539
-0.0209997
0.000737676
-0.0563391
0.00161566
-0.00842051
-0.0611194
-0.0573609
-0.0597427
0.000836026
-0.0421497
-0.0220168
-0.0611247
-0.0593331
-0.0117659
-0.0581802
-0.00400582
0.00122403
0.0117434
0.00824511
-0.00646401
-0.00382416
-0.0129738
0.0148096
-0.0517061
-0.0536225
-0.056274
-0.0574074
0.000103222
-0.0319018
0.000256654
-0.0586223
0.000975734
-0.0151614
-0.00101238
-0.0356289
-0.00124097
-0.00328864
-0.00281025
0.0128955
-0.0546172
-0.0670714
-0.00148007
0.0107756
-0.0664007
-3.56592e-06
0.0014098
-0.0573549
-0.0243627
-0.0168864
-0.0604769
-0.00263586
-0.0567135
-0.00126944
-0.065559
-0.0588379
0.0187221
0.0225667
-0.0309832
-0.0564949
-0.0541315
-0.0578276
0.0134836
-0.0215815
-0.0609087
0.00934033
-0.0514161
-0.0088812
-0.0979077
-0.00688391
-0.0590589
-0.0445069
-0.00512334
-0.0127265
-0.0581074
-0.0272707
-0.0623204
-0.052218
-0.00429949
0.000704234
-0.055211
-0.0572903
0.00287401
-0.0199112
-0.00502386
0.00380843
-0.05946
0.00620758
-0.0547672
-0.013504
-0.0551461
-0.0195723
0.0184146
-0.0209925
-0.0491885
-0.0852966
-0.00375574
-0.0630088
0.000866455
-0.0271086
-0.0196408
-0.000291722
-0.00542124
-0.0212885
-0.0566286
-0.0585336
-0.000635213
-0.0586134
-0.0173601
-0.00116949
-0.011736
0.000470962
-0.0220166
-0.0595734
-0.0561247
0.000631958
0.009868
-0.0543339
-0.0571639
-0.0641524
-0.0576258
-0.0147035
-0.0519868
-0.0129183
2.81005e-06
0.000359829
-0.059438
-0.00814385
-0.0580384
-0.0615698
-0.0323996
-0.0621223
-0.0561919
-0.00176222
-0.0539661
-0.0305288
-0.0475147
0.00299777
-0.00280644
0.00591651
-0.0685062
-0.0189728
0.00370838
-0.0144563
-0.0571778
-0.060218
-0.0462609
-0.0645389
-0.0626383
-0.0560725
-0.0109215
0.00100969
-0.0554915
-0.0140383
-0.0198584
-0.020412
-0.0110104
-0.0025494
-0.00995212
-0.0139273
-0.00334573
-0.0141007
-0.00807493
-0.00855618
0.00616082
-0.0679972
-0.0140693
-0.0570713
-0.0158269
-0.010333
-0.0585231
-0.0570385
-0.00547477
-0.00197821
0.00264915
-0.0394556
-0.0545057
-0.0388413
-0.0349883
-0.0127121
-0.000733166
0.00947485
-0.0576794
-0.0546178
-0.00405069
0.000900318
-0.0566543
-0.0201766
-0.00890723
-0.0557433
-0.0312114
-0.0473883
-0.0548208
-0.053685
0.00885551
-0.00598289
-0.0552141
-0.00338335
-0.0154996
-0.0179525
-0.000311254
-0.0552108
-0.0323875
-0.0852014
-0.00958965
-0.015061
-0.0341534
-0.0599866
-0.0638729
-0.0194674
-0.0592931
-0.0656239
-0.0373105
-0.0230895
-0.0218606
-0.0495433
-0.0320034
-0.0601453
-0.00571278
-0.00135661
-0.0489627
-0.0218283
-0.0566791
-0.0497594
-0.0103739
-0.0487266
-0.000448046
-0.0298238
0.018431
-0.0183274
-0.00255422
-0.0117545
-0.0569524
-0.0602661
-0.00911766
0.0102437
-0.0599921
-0.0212683
-0.00206612
0.0187665
-0.0580396
-0.0486395
-0.054388
0.00231108
-0.0503712
-0.059729
-0.0605406
-0.0464956
-0.0086437
-0.0617251
-0.0103254
-0.014717
-0.0672031
-0.0609659
-0.0128855
-0.000952052
-0.0107308
-0.000797895
-0.0117245
-0.0612592
-0.00275227
-0.0557988
-0.0405049
-0.00219639
0.00104107
-0.00054956
-0.0117972
-0.0137973
0.000157342
-0.0390314
-0.0103492
-0.0120071
-0.00114162
-0.0565794
-0.0231717
-0.034727
-0.0169492
0.00108292
0.000826162
-0.0515638
0.00317926
-0.0591763
-0.0188007
-0.0204919
-0.0153061
-0.0120478
-0.0150747
-0.0146927
-0.0247747
-0.0378188
-0.0162599
-0.0345373
3.38385e-07
-0.0610128
-0.0376701
-0.0145918
0.00509575
-0.0599862
-0.00112326
-0.0305329
0.00117633
-0.0410445
0.00105619
-0.00874344
-0.00719456
-0.0209696
0.00470474
-0.0371563
-0.0625125
-0.0292286
-0.0143696