/*--------------------------------*- C++ -*----------------------------------*\
| =========                 |                                                 |
| \\      /  F ield         | OpenFOAM: The Open Source CFD Toolbox           |
|  \\    /   O peration     | Version:  v2012                                 |
|   \\  /    A nd           | Website:  www.openfoam.com                      |
|    \\/     M anipulation  |                                                 |
\*---------------------------------------------------------------------------*/
FoamFile
{
    version     2.0;
    format      ascii;
    class       volScalarField;
    location    "200";
    object      nut;
}
// * * * * * * * * * * * * * * * * * * * * * * * * * * * * * * * * * * * * * //

dimensions      [0 2 -1 0 0 0 0];


internalField   nonuniform List<scalar> 
13851
(
0.00661889
0.0110524
0.0012281
0.00665926
0.00244611
0.0059786
0.00678437
0.00190804
0.00674612
0.000764458
0.0159894
0.00954403
0.00261476
0.0100412
0.00672784
0.00222841
0.00388021
0.00587106
0.000646931
0.00674099
0.00668224
0.00141248
0.00683343
0.00686128
0.00684269
0.00173192
0.00352298
0.000282568
0.00665007
0.00651635
0.00801137
0.00363443
0.00124081
0.00905536
0.00686421
0.00123023
0.000191144
0.000944705
0.000886885
0.00996895
0.00680673
0.00670807
0.00216125
0.016117
0.0167639
0.00425797
0.0155665
0.0110889
0.00343116
0.00669147
0.00263691
0.00155309
0.00342562
0.00676544
0.00684342
0.00671218
0.00682219
0.00586858
0.00655241
0.00680623
0.000593244
0.00719579
0.00218456
0.00213365
0.00770868
0.00637842
0.000382733
0.0140618
0.00259221
0.00590488
0.00213
0.00274159
0.00795528
0.00677033
0.00672242
0.00680665
0.00151075
0.00309888
0.00274366
0.00269424
0.00682464
0.0157038
0.00674269
0.00256354
0.00223875
0.00865484
0.00459386
0.0152631
0.0032534
0.00680431
0.00122592
0.00613272
0.012978
0.00307789
0.00401204
0.00684498
0.00238788
0.0090597
0.00722219
0.00684569
0.00264137
0.00282939
0.00680539
0.00290813
0.00683105
0.00467513
0.00289463
0.00668722
0.00590597
0.00680286
0.00685069
0.00680026
0.00602756
0.0068273
0.006851
0.00460196
0.00969435
0.00668358
0.00688271
0.00687337
0.00218884
0.00315582
0.00370582
0.0087824
0.0111245
0.00668554
0.0109787
0.002745
0.00670357
0.0015291
0.006801
0.00671157
0.00315832
0.00673998
0.00366133
0.00673686
0.00668424
0.00233611
0.0124462
0.0159817
0.00312162
0.006843
0.00668834
0.00678886
0.00546206
0.0147137
0.00546072
0.00151905
0.00678025
0.0170166
0.00188359
0.00685285
0.00873214
0.00683503
0.00431451
0.00616305
0.0067775
0.00669026
0.00155614
0.00266953
0.00676575
0.00298075
0.00603654
0.00671123
0.00594192
0.00675051
0.00544883
0.00259403
0.00672037
0.00494595
0.00220131
0.00670105
0.00678044
0.015677
0.00670816
0.0110942
0.00277407
0.00668042
0.000594256
0.00669967
0.00352657
0.00295679
0.00673478
0.00134924
0.00672591
0.00683976
0.00635537
0.00680216
0.00218482
0.000941046
0.0145438
0.00479788
0.00678027
0.00260135
0.00733714
0.00538451
0.00671645
0.0128034
0.00670618
0.00680857
0.006729
0.00438376
0.0069034
0.00674511
0.000893483
0.00673731
0.00707632
0.00392625
0.00897832
0.00672399
0.0085008
0.00681415
0.0119981
0.0066895
0.00677796
0.0150476
0.0019268
0.00548477
0.00671721
0.00942411
0.00380383
0.00676888
0.00877723
0.00158973
0.0106628
0.0068315
0.00271587
0.00685565
0.00738836
0.00669449
0.00184242
0.00561242
0.00669901
0.0067879
0.00243619
0.00224654
0.00694411
0.00954282
0.00678879
0.00674718
0.00710143
0.00739353
0.00681231
0.000882802
0.00682359
0.0109853
0.00287702
0.0110282
0.00604293
0.00380497
0.00623499
0.0065923
0.00683334
0.0062736
0.00252067
0.00318365
0.00095143
0.0025862
0.000234488
0.00672857
0.00677835
0.00604966
0.0135123
0.00680437
0.00183735
0.00517637
0.00683589
0.00307286
0.00815188
0.00412196
0.00626106
0.00472449
0.0170434
0.00265412
0.00242617
0.00671455
0.0152604
0.00767959
0.0105759
0.016407
0.00680381
0.00671494
0.00683045
0.00271172
0.0139801
0.010573
0.00677336
0.00671877
0.0169127
0.0141339
0.00133602
0.0066041
0.00680977
0.00260495
0.0146434
0.00178391
0.00603251
0.00830565
0.00671874
0.0108599
0.00287641
0.00408394
0.0101658
0.00684297
0.00474921
0.00995595
0.00676699
0.00242788
0.00276875
0.00663703
0.0118518
0.00533058
0.00683672
0.00921089
0.00671903
0.004089
0.00675902
0.0100098
0.00168925
0.00671812
0.00266934
0.00671845
0.00120883
0.00554385
0.0068372
0.00683026
0.00171637
0.00293476
0.00497718
0.00671817
0.00684248
0.00684017
0.0166346
0.00560316
0.00583309
0.00357522
0.0102839
0.00933531
0.00672381
0.00265169
0.00132532
0.00565114
0.00179062
0.00174187
0.000388623
0.00643677
0.0117468
0.0102907
0.00673433
0.0070455
0.00700497
0.00140059
0.00494166
0.00146251
0.00739066
0.00678826
0.0120581
0.00683139
0.00671746
0.00680396
0.00668969
0.0067569
0.00999539
0.0130486
0.00677714
0.00259175
0.00673723
0.00842118
0.00166706
0.0105134
0.00615701
0.00678396
0.00225044
0.00290999
0.0109628
0.00678516
0.00668403
0.00624774
0.00203795
0.00676345
0.0113028
0.00571091
0.00164188
0.00363766
0.00905266
0.00865781
0.00638515
0.00671315
0.00680915
0.00415899
0.00254399
0.0106727
0.00239932
0.0103511
0.0100063
0.00673925
0.00673095
0.00457893
0.0040447
0.00441129
0.0095118
0.00609896
0.00283226
0.00684226
0.00823821
0.00672114
0.00208776
0.00641442
0.00677354
0.00685244
0.00676144
0.00674873
0.00219091
0.00170316
0.002746
0.00523105
0.00270871
0.00380115
0.00617773
0.00402636
0.00144692
0.00412886
0.0152905
0.00668354
0.00675608
0.00684689
0.000313637
0.0095605
0.00162657
0.00393989
0.00160728
0.00880011
0.0046478
0.00690565
0.00220211
0.00677945
0.00837425
0.00682758
0.00412706
0.0121997
0.00117153
0.0078529
0.00667634
0.00896807
0.0119645
0.0022927
0.00670089
0.00275367
0.00302228
0.00487104
0.00670874
0.00683985
0.0018474
0.00164426
0.00354754
0.0156905
0.0068432
0.00683714
0.00475879
0.00580975
0.0067088
0.0181452
0.00671281
0.00661959
0.00671766
0.00191578
0.00674324
0.00671628
0.00669557
0.00885876
0.00674547
0.00257441
0.00672435
0.00600231
0.013027
0.00682846
0.00681504
0.00682905
0.00682514
0.00801953
0.00683589
0.0048589
0.00673231
0.00684273
0.00652235
0.00712877
0.00674172
0.00576414
0.0035391
0.00859205
0.00409432
0.00683551
0.0124403
0.00678957
0.00244882
0.00678952
0.00798412
0.00671665
0.00292449
0.00100185
0.00671006
0.00597796
0.00846389
0.00170138
0.0149336
0.00688956
0.00655943
0.00687133
0.00670623
0.00671968
0.00676683
0.00611689
0.00290492
0.00158259
0.000310163
0.00213754
0.0067734
0.00699403
0.00988913
0.00335997
0.00262323
0.00823121
0.00779032
0.00852994
0.00681515
0.00803499
0.00281101
0.00406434
0.00588633
0.0057671
0.0122529
0.00921313
0.00252361
0.0126002
0.00732838
0.00666073
0.00784861
0.00302863
0.00669014
0.00744229
0.0027618
0.00474478
0.00652313
0.00672699
0.00677088
0.00677186
0.00222484
0.00261332
0.0161165
0.0158701
0.00673299
0.00412725
0.00760866
0.00500088
0.0108914
0.00255163
0.00669596
0.00675137
0.0109639
0.00751529
0.00448048
0.00191877
0.00125428
0.00671021
0.00386472
0.00726454
5.49539e-05
0.00175365
0.00679297
0.0031422
0.00679559
0.00677569
0.0157716
0.0100985
0.00160563
0.00240294
0.00225499
0.00669559
0.00672932
0.004634
0.00670298
0.00648486
0.00669789
0.0067074
0.00333099
0.00221995
0.0043914
0.00670186
0.0102061
0.0129817
0.00671841
0.00680201
0.00680117
0.00680034
0.00209161
0.0116507
0.0118144
0.00537088
0.00655283
0.00237844
0.00280646
0.00782377
0.00639421
0.0026179
0.00669688
0.00669728
0.00207169
0.00807193
0.0122678
0.00185724
0.00279679
0.0067325
0.00234045
0.00670821
0.0144913
0.00264463
0.00672925
0.00356684
0.00670719
0.00342063
0.00158533
0.00679779
0.00677489
0.00173644
0.00680911
0.00241241
0.000502277
0.00165448
0.00236018
0.00156034
0.00672841
0.00291599
0.0061627
0.00592685
0.00682252
0.00685136
0.00510568
0.00660503
0.00278329
0.0105796
0.00783736
0.0192933
0.0067185
0.00327263
0.00679835
0.00670878
0.00671774
0.00670827
0.00606971
0.004728
0.00236652
0.00669593
0.00914212
0.00103536
0.00933545
0.00675994
0.00674558
0.00682187
0.00136613
0.00764018
0.00225871
0.00306855
0.00680817
0.00684956
0.00681477
0.00679655
0.000750477
0.0136738
0.00680259
0.00669389
0.00676905
0.00679282
0.00127416
0.00555429
0.00227292
0.00955544
0.00658365
0.00676972
0.00159668
0.00221505
0.00258633
0.00977821
0.00682755
0.00600442
0.00214442
0.00597267
0.0124281
0.0067391
0.0110726
0.00684337
0.00216957
0.00910018
0.00682033
0.00670035
0.0023339
0.00670892
0.0037628
0.0164018
0.0140803
0.00270442
0.00151313
0.0102117
0.00669157
0.00675444
0.00744019
0.00129533
0.00188475
0.0104285
0.00675168
0.00684644
0.00669046
0.00781527
0.000486192
0.0062716
0.00682842
0.0128935
0.0037478
0.00681648
0.00241874
0.00307255
0.00937585
0.00671606
0.006798
0.00308083
0.00172245
0.0013957
0.00673231
0.00596818
0.00674107
0.0141043
0.000798227
0.00108821
0.00449812
0.00696194
0.00632555
0.00663854
0.000304122
0.00685289
0.0069004
0.00672241
0.00672584
0.00275632
0.00236048
0.00173584
0.00478421
0.00948324
0.00673662
0.0154413
0.00688379
0.00633777
0.00674909
0.00676113
0.00677168
0.0100458
0.00676256
0.00668748
0.0107006
0.00678158
0.00509783
0.00683593
0.00670731
0.00235862
0.00116058
0.0131044
0.00676149
0.016493
0.0087775
0.00683348
0.00885989
0.00223277
0.0067209
0.00550243
0.00232602
0.0136162
0.00448158
0.00674787
0.0066884
0.0112817
0.000913796
0.00123334
0.00610173
0.00543507
0.00679801
0.00672193
0.00194961
0.00943183
0.00223538
0.0119086
0.00679204
0.00241072
0.00231511
0.00930988
0.00629848
0.00982478
0.000438354
0.0067835
0.00235586
0.00260474
0.00826467
0.0135047
0.00969847
0.00961955
0.00172137
0.00672254
0.00412768
0.0058994
0.00209637
0.00682774
0.00683492
0.00271799
0.01477
0.00670557
0.00305215
0.00674562
0.00677062
0.00424562
0.00309503
0.00999932
0.00670984
0.00671844
0.00261007
0.000988932
0.00170439
0.00659275
0.0072872
0.00050674
0.00851347
0.00299989
0.00261221
0.00683708
0.00678468
0.00572968
0.00207363
0.0033514
0.00560755
0.002679
0.00203337
0.00786536
0.0062486
0.00675083
0.00246545
0.00671789
0.00224278
0.00671534
0.0112799
0.00360611
0.0106225
0.00670091
0.0022229
0.00674475
0.000894274
0.00259424
0.00256071
0.00959126
0.00271195
0.00180402
0.00685687
0.00252422
0.010982
0.0018961
0.00664633
0.00227012
0.00680345
0.013069
0.0123618
0.00683438
0.00970773
0.00210262
0.00595481
0.00837135
0.00586066
0.00682106
0.00896816
0.00685466
0.00467176
0.00910468
0.00675625
0.00425526
0.000545555
0.0124187
0.0121186
0.00680415
0.00679609
0.00983463
0.00902703
0.00174205
0.00474313
0.00666888
0.011401
0.00653694
0.00224568
0.00668806
0.00154108
0.0067084
0.00689833
0.00780538
0.0068364
0.00487363
0.0102479
0.00677689
0.00666831
0.0068253
0.00671416
0.00277112
0.0082227
0.00274689
0.00946981
0.00674174
0.00275193
0.00681775
0.00670847
0.00683387
0.00677392
0.00559424
0.0067439
0.00273308
0.00675489
0.00435878
0.00794696
0.00162266
0.00689814
0.0172534
0.00110596
0.000111
0.00207611
0.00241474
0.00218901
0.00287809
0.00243255
0.0109542
0.00401701
0.00412396
0.00207374
0.0169668
0.00682992
0.00225009
0.00289436
0.011552
0.00680665
0.015099
0.0067511
0.00676357
0.0113744
0.00675321
0.000995128
0.00416879
0.0067202
0.00317937
0.00671914
0.00671818
0.00678541
0.00682714
0.000447312
0.0067596
0.00116944
0.00674531
0.000968895
0.0142551
0.00677874
0.00688595
0.0067314
0.00677785
0.00671563
0.00241892
0.00607313
0.0067825
0.00682411
0.00684379
0.00519354
0.0139182
0.00201856
0.00963763
0.00064092
0.0067303
0.0129576
0.00270988
0.00675337
0.0107233
0.00468726
0.00986666
0.00672721
0.0159247
0.0114435
0.00700595
0.00669884
0.00306687
0.00272938
0.00365534
0.00676917
0.00674879
0.00916804
0.00269683
0.00859504
0.00681527
0.00673641
0.0110522
0.00683282
0.0013231
0.0108504
0.0198484
0.000415591
0.0109984
0.00685251
0.0067802
0.00210755
0.00593616
0.00325295
0.000851761
0.00214304
0.00584722
0.00668114
0.0151313
0.00678908
0.00550335
0.000704258
0.00368739
0.000920292
0.00682953
0.00678772
0.00683595
0.0138618
0.0096932
0.0066991
0.00684568
0.00681408
0.00247815
0.00671825
0.00680623
0.00682064
0.00264469
0.000477338
0.00232362
0.00408687
0.00677499
0.00207755
0.00405123
0.00454724
0.00200933
0.00597374
0.00219711
0.00674566
0.00224247
0.00672789
0.00683998
0.00683721
0.00319215
0.00168895
0.00885416
0.00326225
0.014223
0.00672928
0.0068337
0.00684479
0.0112219
0.0155142
0.00675644
0.00270287
0.0017208
0.00721909
0.00682994
0.0158511
0.00583957
0.00787408
0.00085686
0.0073967
0.00181102
0.0021963
0.000299697
0.00815814
0.0105826
0.004272
0.006834
0.000996491
0.00671599
0.00662914
0.00261672
0.00682306
0.00811125
0.00269893
0.00304532
0.00974635
0.00121092
0.0103331
0.00671818
0.00389055
0.00620083
0.00679517
0.00374874
0.0099222
0.00839192
0.015584
0.00671106
0.00289099
0.00655191
0.00840623
0.00907701
0.00176838
0.00678941
0.00645706
0.0081628
0.00167563
0.00679595
0.00945171
0.00568992
0.00674255
0.00190302
0.00377847
0.00267791
0.00284281
0.00919252
0.0141889
0.0016339
0.00275898
0.0067976
0.00607844
0.00676748
0.00426331
0.0018401
0.00754406
0.0106362
0.00280636
0.00145356
0.00525499
0.00862155
0.000743853
0.00681606
0.0011698
0.00951597
0.00159897
0.00496937
0.00677187
0.00678614
0.00294615
0.0049812
0.00776567
0.00683227
0.00677264
0.00678053
0.00542263
0.00148768
0.00683007
0.00471763
0.000943036
0.00727373
0.00160812
0.0100581
0.00673225
0.00534211
0.00312525
0.00681347
0.00149806
0.00764727
0.00678725
0.00675426
0.00102549
0.00840186
0.00671444
0.00671091
0.01549
0.00682276
0.0109747
0.00671091
0.00680259
0.00678892
0.00243301
0.0157907
0.00877993
0.00517813
0.00087515
0.0111261
0.0089726
0.000803141
0.0075729
0.00518644
0.0067308
0.00482564
0.00683249
0.00671847
0.006797
0.0101205
0.00676604
0.000255597
0.00675761
0.00665541
0.00315958
0.00104075
0.00394338
0.00579133
0.00658304
0.00671673
0.00270019
0.00155943
0.00527077
0.00673106
0.00283655
0.0137943
0.00684204
0.00675597
0.00914889
0.00263742
0.0019777
0.00159114
0.015734
0.0150001
0.00144918
0.0044255
0.00550017
0.015904
0.0100692
0.0209545
0.00284191
0.00677206
0.00161935
0.00673198
0.00673646
0.0149006
0.00915844
0.00667443
0.00861968
0.00267519
0.00487875
0.00484109
0.00460966
0.00677041
0.00260132
0.00664855
0.00676718
0.00524653
0.00960638
0.00969399
0.0164472
0.00769818
0.00198979
0.0112451
0.00970845
0.00261444
0.00678031
0.0067701
0.0151001
0.00673138
0.000952177
0.00682555
0.00592699
0.00664465
0.00425305
0.00887549
0.00595815
0.0068233
0.0021229
0.00636015
0.00569426
0.00671718
0.00681759
0.00557701
0.00376811
0.00790852
0.00328095
0.00480326
0.00175609
0.00672679
0.00162477
0.00683936
0.00148859
0.00669322
0.00581159
0.00682804
0.00685359
0.0013758
0.00580582
0.00206038
0.00676161
0.0019258
0.000536728
0.00296434
0.00678359
0.00297795
0.00685608
0.00248028
0.00683217
0.00912263
0.00100145
0.00236176
0.0035855
0.00681646
0.00671588
0.00678626
0.0112498
0.00671796
0.00681966
0.00673193
0.00952924
0.00320587
0.00644618
0.00609182
0.00683723
0.00191714
0.00950756
0.00172617
0.00264796
0.00676441
0.00661629
0.00678279
0.00682166
0.00113824
0.0106542
0.00684527
0.00555264
0.0019071
0.00245274
0.00682638
0.00620912
0.0101758
0.00577678
0.00641265
0.000309506
0.00880355
0.00679537
0.00686598
0.00673933
0.0108555
0.00157146
0.00191614
0.00171932
0.00637325
0.00481685
0.00787444
0.00752737
0.00684194
0.00517881
0.00218188
0.0068192
0.00527812
0.00678633
0.0068275
0.00673454
0.00123391
0.00607075
0.00132533
0.00627906
0.00462751
0.00272712
0.0131412
0.000257965
0.00868047
0.0145943
0.00593833
0.00156702
0.00152968
0.00534227
0.000866943
0.014893
0.00673302
0.00614959
0.00675265
0.00254065
0.00254443
0.00673847
0.0151231
0.000930923
0.00242235
0.00590724
0.00672904
0.00683878
0.00108011
0.00239509
0.0112336
0.00284092
0.00112676
0.000959521
0.00171511
0.00910745
0.00276034
0.00920374
0.0067894
0.00677528
0.00117998
0.00759875
0.0041798
0.00556605
0.00687631
0.00343621
0.0140758
0.00681959
0.00278795
0.00670794
0.00252359
0.00270229
0.00534346
0.00485382
0.000303378
0.00506435
0.00915338
0.00213601
0.00672903
0.0018708
0.0126091
0.00494694
0.00377786
0.00209746
0.00669347
0.00686484
0.00679619
0.00497891
0.00962638
0.00842099
0.00345302
0.00386212
0.00421336
0.00238807
0.00110882
0.00683673
0.00680212
0.00674644
0.00746713
0.00673033
0.00814135
0.00223787
0.00224091
0.00104437
0.00102554
0.00373646
0.00264292
0.00257099
0.00674535
0.00640597
0.0018522
0.000933881
0.00367681
0.00670729
0.00675443
0.00154306
0.00255846
0.00145696
0.00897742
0.00385211
0.00673946
0.00167953
0.00683538
0.00253449
0.00157651
0.00671175
0.00264776
0.00683901
0.010992
0.0067733
0.0112906
0.00674703
0.00429608
0.00350658
0.00679656
0.00247618
0.0025743
0.00308324
0.00611024
0.00978492
0.00326204
0.00267629
0.00676469
0.00223501
0.00707237
0.00685179
0.00676804
0.012905
0.00668285
0.00657445
0.00685069
0.00355108
0.00106107
0.00317171
0.00267474
0.00669996
0.00676959
0.00208876
0.00937229
0.00673331
0.00145529
0.00717342
0.000826253
0.000814486
0.00280981
0.00555972
0.00268058
0.000551197
0.00672758
0.0148241
0.0146628
0.0030009
0.00726464
0.00956356
0.00674967
0.00590095
0.00675733
0.00156532
0.0107093
0.00976427
0.00623909
0.00395487
0.00856816
0.012104
0.00237886
0.00673151
0.00679756
0.00785947
0.00424192
0.00205479
0.00685236
0.00684549
0.00670795
0.00682498
0.00935877
0.00079718
0.00262809
0.00818
0.0017947
0.00675464
0.00673947
0.00676247
0.00613878
0.0111678
0.000368628
0.00540578
0.00695908
0.0158095
0.000986413
0.00262066
0.00197404
0.00266361
0.00922181
0.00254792
0.00559074
0.00673246
0.00684853
0.00270471
0.010367
0.0146806
0.00909835
0.00138833
0.00633472
0.00647315
0.00356524
0.00683365
0.00344159
0.00832644
0.00716977
0.00463892
0.00400102
0.00677042
0.00674728
0.00671867
0.00674995
0.00367701
0.00279335
0.00385194
0.00266545
0.00972152
0.00382511
0.0107552
0.00513939
0.00292172
0.00788244
0.00196893
0.0203998
0.00869038
0.00670592
0.00610492
0.00298502
0.00230379
0.0013409
0.00227061
0.00472969
0.0105301
0.00689451
0.00196245
0.00684813
0.00814516
0.0131074
0.00394662
0.00677308
0.0147406
0.000712694
0.00157689
0.00664598
0.00161668
0.00609684
0.00679055
0.00235956
0.0103132
0.000829587
0.00250328
0.00961913
0.012241
0.00676089
0.00674104
0.00382625
0.0094116
0.0091076
0.00672811
0.00480192
0.00589924
0.00677694
0.00684137
0.00250886
0.000443074
0.00611625
0.00373601
0.00671045
0.00589476
0.00673411
0.00116352
0.00681976
0.00771509
0.00656
0.0124739
0.0067252
0.00673455
0.00163529
0.00302022
0.0119777
0.00203676
0.00857514
0.00680492
0.00679194
0.00674406
0.00208624
0.00291792
0.00291645
0.00338701
0.00673498
0.0036062
0.00161235
0.0044534
0.0082018
0.00682528
0.00727516
0.00957737
0.00273477
0.00676663
0.00207231
0.00382876
0.00681732
0.000872133
0.00682747
0.019905
0.00200873
0.00149857
0.00955848
0.00661824
0.00207958
0.00677257
0.00537757
0.00675928
0.00670759
0.010558
0.000766695
0.00664677
0.00132089
0.00198775
0.00279689
0.00673109
0.0167514
0.00354624
0.00677633
0.00145281
0.00677159
0.00266795
0.00677362
0.00272085
0.00684438
0.0149672
0.0141548
0.00341271
0.00258979
0.0010568
0.0111245
0.0068243
0.0160539
0.017254
0.00672891
0.00674912
0.00672395
0.00637121
0.00202508
0.00676574
0.00659453
0.00221103
0.012746
0.00264757
0.00684189
0.00683102
0.00675046
0.00335552
0.00679738
0.00679543
0.000892322
0.00325569
0.0156521
0.00862062
0.00179337
0.00652197
0.00233177
0.00654006
0.00584411
0.00511674
0.00677877
0.00330427
0.00448099
0.0113737
0.00012801
0.00676407
0.00499365
0.0107452
0.00611052
0.0114834
0.0074745
0.00672731
0.00365348
0.00671656
0.0042053
0.00845159
0.013555
0.00677886
0.00419815
0.00664302
0.00677878
0.00157469
0.00684205
0.00623511
0.00222301
0.00848981
0.00671064
0.00350679
0.00339085
0.00949111
0.0067334
0.00830561
0.00461504
0.00709832
0.00369401
0.00427754
0.00787749
0.00670649
0.0132486
0.00453452
0.00449715
0.00672577
0.00672198
0.00937696
0.00456512
0.00543563
0.00683943
0.00998711
0.00681687
0.001069
0.00679841
0.00667398
0.00482398
0.00670748
0.00866528
0.00434305
0.0138972
0.0116676
0.00837662
0.00155327
0.00229606
0.00859222
0.00927207
0.00684077
0.00126898
0.00674715
0.00668505
0.00673351
0.00616552
0.00681443
0.00654336
0.00385405
0.0110821
0.00327267
0.00506069
0.00760828
0.00156308
0.00670414
0.00103622
0.000839555
0.00884127
0.00682037
0.00675124
0.00686183
0.0162569
0.00682994
0.0133918
0.00696353
0.00271517
0.00149535
0.0068208
0.0119033
0.00682531
0.0113509
0.0066956
0.0030745
0.00241909
0.0067809
0.00696926
0.00814941
0.00670453
0.00193192
0.00476687
0.00445807
0.00612087
0.00542597
0.0109555
0.00683209
0.00108134
0.00906212
0.00678698
0.00631825
0.00665654
0.00213431
0.00258187
0.00436661
0.00752571
0.00678971
0.00725889
0.00541399
0.00258676
0.00845065
0.00714418
0.00321262
0.00818866
0.000414498
0.00677479
0.0133871
0.00159038
0.00254722
0.0044023
0.00938214
0.0067106
0.00282129
0.00828065
0.00082068
0.00671624
0.00397521
0.00747162
0.00258688
0.00903146
0.00596871
0.00431927
0.0025379
0.00876785
0.00241077
0.00967447
0.0119059
0.00649824
0.00684369
0.00847656
0.00477067
0.00901443
0.00672599
0.00660038
0.00683334
0.0098734
0.00555246
0.0116619
0.0119593
0.00683498
0.00679368
0.00672659
0.00915828
0.002721
0.00337023
0.00779033
0.00672801
0.00799565
0.00812021
0.00157681
0.00528354
0.0081405
0.00426569
0.00316632
0.00379198
0.00284161
0.00374084
0.00540165
0.0068014
0.00662418
0.00683271
0.00674842
0.00745398
0.00736724
0.00760203
0.00156148
0.00274166
0.00683084
0.00688592
0.00704804
0.00778883
0.00672988
0.00211859
0.00737171
0.00674588
0.0068121
0.00625156
0.011757
0.00670237
0.00672747
0.00474229
0.00675598
0.0110881
0.00666945
0.00682599
0.00499016
0.00145695
0.0115321
0.00462272
0.00774213
0.006796
0.0064257
0.00944847
0.00866537
0.00587425
0.00311558
0.00671636
0.00253334
0.00669705
0.00686607
0.00097751
0.00682664
0.0148967
0.0031484
0.00679404
0.00647569
0.00588129
0.0172018
0.00593807
0.00674896
0.00691921
0.00848386
0.00882304
0.00343168
0.0068237
0.00672964
0.0162901
0.00681721
0.00684821
0.00291821
0.00674704
0.00948903
0.00502496
0.00683383
0.004604
0.00676546
0.00684063
0.0101659
0.00729019
0.00269368
0.00629923
0.00274122
0.00682752
0.00671606
0.00678445
0.00682854
0.00682943
0.00692717
0.000961205
0.00873925
0.0067112
0.00181463
0.00610492
0.00884488
0.0067839
0.00670778
0.00354133
0.00825156
0.00681937
0.00114738
0.000180522
0.00225538
0.00672486
0.00223877
0.00679291
0.00600934
0.00674123
0.0067942
0.00682454
0.00681204
0.0057323
0.00412248
0.00270704
0.00205735
0.00111493
0.00312123
0.00730668
0.00259526
0.00735886
0.00548812
0.00183189
0.00896231
0.00675038
0.00176827
0.0114455
0.00671337
0.00681302
0.0135439
0.0067552
0.00424206
0.00741982
0.00699844
0.00729067
0.00106753
0.00675446
0.0060533
0.00680425
0.00632578
0.00679697
0.00758798
0.00737695
0.0076033
0.0143106
0.00681254
0.00672303
0.00254288
0.0102931
0.00952294
0.000845807
0.000570755
0.0067241
0.00104951
0.00762953
0.00920125
0.00656143
0.00682079
0.00680172
0.00665138
0.00683492
0.00682692
0.00442027
0.00914285
0.00250068
0.00775301
0.00271238
0.00197108
0.00122474
0.00672558
0.00681441
0.00672823
0.00676171
0.00681957
0.00703724
0.00843007
0.00728692
0.0101392
0.00338918
0.00749047
0.0011283
0.00955017
0.00909869
0.00683456
0.00680547
0.00896914
0.0068203
0.00670846
0.00738401
0.00950665
0.00139089
0.0067674
0.00680206
0.00651882
0.0018951
0.00594353
0.00675097
0.00653425
0.000382584
0.00680708
0.00863173
0.00173343
0.00796868
0.00682918
0.000374249
0.0115351
0.00228719
0.00691947
0.0017837
0.00792489
0.00678304
0.00581645
0.00675205
0.0026347
0.00329158
0.00683857
0.0052939
0.00674695
0.00681858
0.00672484
0.0103853
0.00266513
0.00179128
0.011876
0.00675519
0.00144427
0.00509488
0.00104468
0.00681005
0.00667497
0.00682712
0.00207756
0.00682884
0.00681032
0.0110343
0.00826961
0.0101476
0.000851362
0.000505109
0.00664358
0.00201534
0.00999102
0.00160238
0.00677173
0.00682995
0.00668349
0.00684351
0.00721155
0.00758548
0.00680615
0.00414996
0.0113977
0.00256086
0.006721
0.00686444
0.00980016
0.00598937
0.00915648
0.001735
0.00952243
0.00668655
0.00098601
0.0019481
0.0133591
0.00419825
0.00673352
0.00159089
0.00548414
0.00272911
0.0117821
0.00683953
0.00725939
0.00593413
0.0106532
0.00199702
0.00237909
0.00307348
0.00157581
0.0107764
0.0108685
0.00947507
0.00176874
0.00782691
0.00680885
0.00642737
0.00282376
0.00527537
0.0144839
0.00766432
0.00687709
0.000959364
0.000969218
0.00686669
0.00682137
0.00672821
0.00158245
0.00513914
0.00672411
0.00945655
0.00847051
0.0112027
0.00953428
0.00168489
0.00652892
0.00681212
0.00726696
0.00675596
0.00681715
0.00266056
0.00405286
0.00955904
0.00377895
0.00689482
0.00419678
0.00680902
0.00792305
0.00671497
0.00172443
0.0131022
0.00670625
0.00717661
0.00194716
0.00669776
0.00394556
0.000899982
0.00671601
0.00457
0.00681615
0.0112834
0.00452172
0.00680509
0.00172857
0.00638894
0.00763377
0.00950632
0.00263514
0.0115667
0.00628047
0.00673182
0.00743557
0.00328966
0.00683499
0.00130045
0.00209638
0.00671743
0.00679
0.00135484
0.00673444
0.00518758
0.000951236
0.00694084
0.00404067
0.00212786
0.00132604
0.00681838
0.00790184
0.00272495
0.00822933
0.00672882
0.00679248
0.00264136
0.00278214
0.0104853
0.00683506
0.00838719
0.00682785
0.00102483
0.00686916
0.00732942
0.000648073
0.00176229
0.00757462
0.00292474
0.00776376
0.00913193
0.00668589
0.000375588
0.000385084
0.00448104
0.00680565
0.000543439
0.00277057
0.00715446
0.00174302
0.000353278
0.0148264
0.00843667
0.00205792
0.000996571
0.00670699
0.0028143
0.00216913
0.00672591
0.00231587
0.00581683
0.00605828
0.0082351
0.00102455
0.00672694
0.00674892
0.00461573
0.00672897
0.0148628
0.00675452
0.00676051
0.00978679
0.00107801
0.00402871
0.00193635
0.00687303
0.000759194
0.006048
0.0095824
0.00682949
0.00292668
0.00954906
0.00665132
0.00675098
0.0034305
0.00757363
0.000622004
0.000977522
0.0011273
0.00539359
0.0067814
0.00673062
0.00653545
0.00317353
0.00470537
0.000557129
0.00280288
0.00699421
0.00507433
0.00223386
0.00291438
0.00675301
0.00273599
0.0034892
0.00673858
0.00552487
0.00308371
0.00388173
0.00701567
0.00958045
0.0067579
0.00210318
0.00261942
0.0010045
0.00957047
0.0101129
0.00867385
0.00682718
0.00184318
0.00991864
0.0020132
0.0016637
0.00645259
0.00991983
0.00820068
0.0106827
0.00674188
0.00698906
0.00680207
0.00667647
0.00675347
0.0017205
0.00811557
0.00215471
0.00915906
0.00495168
0.00173737
0.00669983
0.00670761
0.00680759
0.00688527
0.00274554
0.00934362
0.0112484
0.0019552
0.00892696
0.00684358
0.00158578
0.00670906
0.0111217
0.00163182
0.00683173
0.000833369
0.00193149
0.00253821
0.00688095
0.00102618
0.00255192
0.00446628
0.00901351
0.00103887
0.00361185
0.0113698
0.00667052
0.00143617
0.00678889
0.00692974
0.00546829
0.00195954
0.0118335
0.000982895
0.0128115
0.00128919
0.00107918
0.00229616
0.00670953
0.00168063
0.000965373
0.00385628
0.00129524
0.00259824
0.00219711
0.00457796
0.00135985
0.00667084
0.00262477
0.00254133
0.00296298
0.00668628
0.010263
0.00178996
0.0121449
0.00128596
0.00676184
0.00905359
0.00672698
0.00649604
0.00662785
0.00913554
0.001901
0.010949
0.00358729
0.00131787
0.00259866
0.00171183
0.0137834
0.00154148
0.00915989
0.00693837
0.00213668
0.00681545
0.00969019
0.0100114
0.00692743
0.00684553
0.00200305
0.00323072
0.00512896
0.00222578
0.00219415
0.00682096
0.00297471
0.00426595
0.00286729
0.00181293
0.00270983
0.00672302
0.0140118
0.00260153
0.00208419
0.0163588
0.00210286
0.0057795
0.00671433
0.00685988
0.00651223
0.00332872
0.00675588
0.00900065
0.0126082
0.00559752
0.0023792
0.00715662
0.00107236
0.00296664
0.0135038
0.00216956
0.0010334
0.00238447
0.00205451
0.00407463
0.00217513
0.00144331
0.0064556
0.00042989
0.00671775
0.0107373
0.00670995
0.00095511
0.000486207
0.000508902
0.00672839
0.0028765
0.00682741
0.0027492
0.00810531
0.00272416
0.00285511
0.00672121
0.00671618
0.000204483
0.00763281
0.00683443
0.000931878
0.000950479
0.00670412
0.00667657
0.00960745
0.00172595
0.0019258
0.00674427
0.00311469
0.000808846
0.00684984
0.0067802
0.00713829
0.00276451
0.00909428
0.00198898
0.00282591
0.00793622
0.000793033
0.00121549
0.00672046
0.0131027
0.00252307
0.0031741
0.0160401
0.00269285
0.00684102
0.000804868
0.00377146
0.00637936
0.00675248
0.0200274
0.00676293
0.0015645
0.00451192
0.0019573
0.00680935
0.000347578
0.00263712
0.00840504
0.000710743
0.00716306
0.000900235
0.0103566
0.00670755
0.00251792
0.0030338
0.00672421
0.0116364
0.00378122
0.00287066
0.0133537
0.00667994
0.00264612
0.00712599
0.00290624
0.00484044
0.0147515
0.00868341
0.0146424
0.00155438
0.00485097
0.00675092
0.00153257
0.00249047
0.00648014
0.00487163
0.0110594
0.00980239
0.0105105
0.00671508
0.0180702
0.00672539
0.00436425
0.0068174
0.010944
0.000780303
0.00149324
0.0067608
0.00103863
0.0029726
0.00591457
0.00680925
0.000942747
0.00263046
0.00190059
0.00173549
0.0019173
0.00413223
0.000933468
0.000878429
0.00672489
0.00263652
0.00056139
0.00254363
0.00683786
0.00254222
0.00676585
0.00679281
0.00206998
0.00584225
0.00608435
0.00101077
0.00224192
0.0153322
0.00677446
0.0187777
0.00224176
0.00874236
0.00329965
0.00337369
0.0127163
0.00366165
0.00718044
0.00293804
0.00462527
0.00660763
0.00684342
0.00815578
0.00262995
0.004466
0.00557589
0.00310037
0.00680534
0.00459408
0.011268
0.00683408
0.00198366
0.00901337
0.00178482
0.00266965
0.00377565
0.00538754
0.0111043
0.0126527
0.0178264
0.00122655
0.00326571
0.00673648
0.00285641
0.0067961
0.00673279
0.00531416
0.0107229
0.00404883
0.00674515
0.00739116
0.000790915
0.00676554
0.00580784
0.00224008
0.00676024
0.00669046
0.0166058
0.0027397
0.00221165
0.00181402
0.00678258
0.00112416
0.00272095
0.00298906
0.00070128
0.000784591
0.000438901
0.0014407
0.00793692
0.00661347
0.00518693
0.0011651
0.00144601
0.000928876
0.0148309
0.00221062
0.00487935
0.00224989
0.00284006
0.00337586
0.000917764
0.0067644
0.00672635
0.00679699
0.00404554
0.00905528
0.00678886
0.00191192
0.00647644
0.00345835
0.00649177
0.000578507
0.00362312
0.00100277
0.00681313
0.00612277
0.00482487
0.00681143
0.0037954
0.00371199
0.00680842
0.00445865
0.00573976
0.00680225
0.00421618
0.0031528
0.00791004
0.0114273
0.0119846
0.00315424
0.00102122
0.00627431
0.00242269
0.00684516