/*--------------------------------*- C++ -*----------------------------------*\
| =========                 |                                                 |
| \\      /  F ield         | OpenFOAM: The Open Source CFD Toolbox           |
|  \\    /   O peration     | Version:  v2012                                 |
|   \\  /    A nd           | Website:  www.openfoam.com                      |
|    \\/     M anipulation  |                                                 |
\*---------------------------------------------------------------------------*/
FoamFile
{
    version     2.0;
    format      ascii;
    class       volVectorField;
    location    "950";
    object      ddt0(U);
}
// * * * * * * * * * * * * * * * * * * * * * * * * * * * * * * * * * * * * * //

dimensions      [0 1 -2 0 0 0 0];


internalField   nonuniform List<vector> 
13851
(
(-0.00315698 0.00255868 -2.67576e-19)
(-0.00839449 -0.0891199 3.50458e-18)
(0.0096357 -0.0123721 2.35118e-19)
(-0.00233532 0.00290474 7.90203e-20)
(0.0270046 0.0107992 1.30774e-19)
(0.0435214 0.0167344 1.35991e-18)
(0.000977777 -0.000151298 4.61694e-18)
(0.00847633 -0.00150776 -1.61807e-18)
(0.000217192 -9.47904e-06 -1.52919e-19)
(-0.00167442 0.00513178 4.15483e-19)
(-0.0461977 0.00553042 9.23214e-20)
(-0.247995 0.198849 8.21921e-18)
(-0.100688 0.0879979 -4.40777e-18)
(1.89196e-05 0.0497683 7.33841e-18)
(0.00220293 -1.88621e-05 2.23788e-18)
(0.00439881 -0.00315111 2.8407e-18)
(0.0022473 -5.34593e-06 1.90078e-18)
(-0.00455959 -0.00527233 -3.30363e-19)
(-0.0787449 0.0802152 9.34727e-18)
(0.000259323 -3.98576e-05 3.07356e-19)
(-0.00187645 0.00266505 1.92636e-19)
(0.0123676 -0.011636 4.02108e-18)
(0.000157942 2.82009e-07 2.71316e-21)
(0.000671639 6.84688e-06 -5.66541e-19)
(0.000172799 1.72263e-06 3.04665e-21)
(0.0080405 -0.00204773 -3.91939e-18)
(0.000828377 0.00133678 3.29965e-18)
(-0.00136421 -0.0106138 -5.56692e-18)
(-0.00307947 0.00207971 9.32016e-19)
(-0.00088226 -0.00331873 -2.60155e-18)
(0.0521621 0.0042612 -5.99021e-19)
(0.00239447 5.61228e-05 7.38515e-19)
(0.00808993 -0.0110716 -2.46942e-18)
(0.0234298 0.069796 7.62987e-19)
(0.000630727 3.95739e-06 8.40653e-19)
(-0.0432224 0.0320735 9.5955e-18)
(-0.0198606 0.0229937 -3.08778e-18)
(0.0731377 -0.0579144 -5.16592e-18)
(-0.00482426 0.00637445 -8.33749e-19)
(0.0113878 0.081426 -1.30972e-18)
(1.60804e-05 4.82821e-05 1.09969e-18)
(9.07579e-06 -0.000102412 -9.20581e-21)
(-0.00134317 -0.00345252 -8.29378e-20)
(-0.0487428 0.00758023 -2.91408e-20)
(-0.0470187 0.00487256 4.06557e-20)
(-0.0280769 0.0115496 -4.62641e-17)
(-0.019727 -0.00931718 1.22311e-20)
(0.055954 0.0903051 -3.38295e-19)
(0.000798547 0.0014782 -7.46042e-18)
(0.0287767 0.00772237 -5.93849e-19)
(0.0055531 0.0274755 1.24467e-17)
(0.0292904 0.0548935 5.34827e-19)
(-3.95995e-05 -0.00934571 9.31568e-18)
(0.00236299 -1.18912e-05 -2.89779e-18)
(0.00162812 -1.21387e-05 -1.11451e-18)
(-2.64114e-05 -0.000139302 -1.88128e-20)
(0.000415802 2.95697e-05 1.77819e-20)
(0.00329363 -0.00729257 2.65941e-17)
(-0.000988336 -0.00312719 -9.96935e-20)
(0.000882548 -3.54677e-05 1.06181e-18)
(0.065923 -0.063304 4.31813e-19)
(-0.130667 0.0166193 -1.97177e-17)
(-0.00668755 -0.0122691 3.68784e-19)
(0.0336152 0.0173197 2.97802e-17)
(-0.0217991 -0.0354798 -2.46085e-18)
(-0.00407556 0.00516839 -2.81467e-19)
(-0.0195317 0.0203085 1.75228e-17)
(-0.00380543 -0.0143938 9.47395e-20)
(0.00231152 0.00637868 -5.43087e-18)
(-0.00490741 -0.00508648 -3.5995e-19)
(0.0664013 -0.00708669 -4.32474e-18)
(-0.00955443 0.00977096 -3.35348e-18)
(-0.00763728 -0.10779 -2.27137e-18)
(0.00242342 -1.67524e-05 3.1689e-19)
(0.00135733 -7.54935e-06 -1.77805e-18)
(-0.000325547 7.49871e-05 -3.80835e-19)
(0.013057 -0.00992626 -1.50458e-18)
(-0.00821657 0.00222951 -6.33322e-18)
(0.0104207 0.00709062 1.68184e-17)
(0.0719114 -0.00774986 2.43901e-17)
(0.000795036 6.81412e-05 8.98975e-18)
(0.00894401 -0.0474076 1.53142e-19)
(0.00127736 -9.80507e-05 7.04256e-19)
(-0.0120605 0.00697667 9.18706e-19)
(-0.00507789 -0.0113967 -3.17796e-19)
(-0.262904 0.238302 -3.91619e-18)
(0.0219759 0.00560262 5.06574e-19)
(0.0467713 -0.102397 -5.38212e-18)
(0.00204432 0.00128896 2.25076e-18)
(-0.00129287 -0.00164062 -1.68778e-20)
(-0.0428972 0.0331665 -1.10941e-17)
(0.007011 0.00069384 -8.49059e-21)
(-0.000410204 -0.0101528 4.41804e-20)
(0.00272249 0.00228395 3.07993e-18)
(0.00184016 0.00133423 1.26205e-18)
(0.000394807 1.49395e-05 -3.66036e-19)
(0.0284799 0.0134881 2.83976e-18)
(-0.0714282 0.0532225 -1.19687e-17)
(0.0288934 0.00322807 3.49907e-19)
(0.000405005 1.11045e-05 2.61271e-19)
(0.0164662 -0.0959378 -3.27738e-17)
(0.0079864 0.0129034 1.47578e-17)
(-0.00182725 -0.000573167 1.0492e-18)
(-0.000519559 0.000743193 -3.91287e-18)
(1.7542e-05 2.41875e-06 -2.00366e-21)
(0.0156483 -0.00384558 -1.80349e-19)
(0.00729541 0.0169707 3.86817e-18)
(-8.09281e-05 -3.78949e-05 -2.0263e-20)
(-0.000217372 0.0025038 -4.92105e-19)
(0.0418396 0.030065 1.94311e-18)
(0.000531676 6.46668e-06 -5.44804e-19)
(-0.00127237 -0.00191375 2.49565e-20)
(0.00654059 0.000428576 -5.04655e-21)
(0.000667477 2.14676e-06 -2.37127e-19)
(0.000550904 6.39239e-06 2.81617e-19)
(0.0620236 0.0892699 -3.73476e-19)
(-0.0753077 0.0573125 -2.75593e-18)
(7.49922e-05 1.47515e-05 -3.58117e-21)
(0.00109747 2.602e-05 9.28043e-19)
(0.00151048 7.94458e-07 1.55819e-18)
(-0.00183886 -0.00386045 -3.16344e-17)
(-0.000397271 0.000785338 9.06792e-18)
(-0.103955 0.0857192 9.98912e-18)
(0.0423841 -0.079503 2.15381e-19)
(0.0633249 0.0525175 -3.57117e-19)
(0.00504376 0.00182736 3.7781e-21)
(0.0738288 0.00589715 -1.74552e-19)
(0.00967541 0.00985882 -8.18283e-19)
(-0.00140815 0.0027833 8.35966e-19)
(0.0575806 0.000641841 5.17875e-18)
(0.000200795 2.52599e-05 8.89534e-19)
(0.000843516 8.06906e-05 -1.34001e-18)
(0.0659953 -0.00633055 2.15311e-18)
(0.00131806 -7.5159e-05 -6.08139e-19)
(0.0543777 0.0912945 6.42186e-19)
(0.00100158 4.99088e-05 -1.38859e-18)
(8.46364e-05 1.78249e-05 -3.27648e-21)
(-0.0142014 0.0139436 1.74719e-17)
(-0.049425 0.0140467 -5.6744e-19)
(0.0568671 -0.0357049 -5.59924e-20)
(0.0153584 -0.0837742 3.29262e-17)
(0.00162985 -1.0847e-05 -2.97997e-18)
(-0.00429158 -0.00215461 -2.14284e-20)
(0.000932893 -0.000388896 3.01724e-20)
(0.00125807 -0.000928537 8.33793e-18)
(-0.0423363 0.0095886 2.99078e-19)
(-0.0192738 -0.00246008 -3.17732e-20)
(0.0559891 -0.00509029 5.26149e-18)
(0.00105359 -0.000141969 -9.07035e-19)
(-0.0493644 0.00847218 -5.61532e-20)
(-0.0168956 0.0182442 6.42467e-18)
(0.00145601 3.82422e-06 1.4551e-18)
(0.0180345 0.0314487 -2.08373e-17)
(0.0004235 2.7614e-05 -1.96019e-19)
(0.00109916 0.000356759 2.22192e-18)
(0.00115494 -0.00102994 -7.74553e-18)
(0.000899102 0.00042284 -4.16962e-19)
(-0.00026398 -0.00231323 -3.25369e-18)
(0.0348936 0.0543062 1.02927e-17)
(0.00721052 0.0260433 -1.0341e-17)
(-0.00102659 0.000125915 1.62461e-20)
(0.000989784 0.0033193 7.30996e-18)
(0.00243358 -0.00781593 1.37228e-17)
(0.00084688 6.25848e-05 2.01411e-19)
(0.000362156 -0.00521944 1.69196e-18)
(0.000418958 -0.000238256 -2.08369e-20)
(-0.0197675 -0.0059108 2.36677e-19)
(0.00194486 0.00683525 3.96929e-18)
(-0.00129183 0.00251177 2.24257e-19)
(-0.0950528 0.0371592 -2.10579e-17)
(-0.00542929 -0.000350438 1.4816e-17)
(0.000473427 8.84133e-05 -5.58827e-20)
(0.000895243 0.000458712 -4.50415e-19)
(0.0489061 -0.0264959 -3.23303e-19)
(0.00085548 5.77845e-05 7.92007e-19)
(0.0330742 0.138575 2.00516e-18)
(0.00953437 0.00889667 -1.32276e-18)
(-0.00204867 -0.00331107 5.83872e-20)
(-0.0972782 0.0880431 -2.01134e-17)
(-0.000190596 -7.69794e-05 9.2563e-22)
(0.00275805 -0.000135173 1.03429e-19)
(-0.0103367 0.0104469 7.78296e-18)
(0.00144519 -4.04804e-05 -5.55544e-18)
(0.0142863 -0.0130596 -6.31594e-18)
(-8.30777e-06 2.72846e-06 1.00885e-23)
(0.000315892 -1.84208e-07 7.57268e-20)
(-0.00477663 0.0047398 5.39856e-19)
(0.00160883 -1.14221e-05 -1.53754e-18)
(0.0339768 0.00467084 -3.05377e-18)
(0.0209261 -0.0039235 4.43208e-20)
(-0.0131427 -0.0102978 -6.25871e-21)
(0.000293404 -0.00938931 2.30063e-17)
(-0.00174917 -0.00249948 7.02726e-20)
(0.00403821 0.00541557 7.89037e-18)
(-0.133035 0.0155082 1.1797e-17)
(0.00105819 0.000207389 -6.07251e-18)
(-0.00385501 -0.00165878 -2.27742e-20)
(-0.0334589 0.0515675 2.62373e-18)
(-0.00231383 -0.00294359 -4.78219e-20)
(-0.000386479 1.06798e-05 6.10288e-19)
(0.00509846 0.00245393 1.06609e-20)
(-0.0816439 0.0208202 3.19821e-17)
(0.00124193 9.21027e-06 -4.35146e-19)
(0.000984993 -0.000278867 -1.05813e-18)
(0.0112959 0.000623214 -5.46892e-19)
(0.00135472 -4.28349e-05 -5.55392e-18)
(-0.0628196 -0.0698697 -2.17535e-18)
(0.00224983 0.000474709 -9.58581e-18)
(0.0356204 0.00580441 5.38938e-18)
(-0.000482015 -4.14931e-05 -2.73237e-20)
(-0.000306277 0.0247664 -2.00138e-17)
(-0.00164077 -0.000519029 -4.11016e-19)
(-0.0179876 0.00820776 -2.57577e-19)
(-0.00015935 -2.8527e-05 3.04787e-21)
(0.000610856 -0.000434888 6.86667e-20)
(-0.0118048 -0.010284 5.78151e-19)
(-0.00525442 -0.0090423 2.7864e-19)
(-0.0209199 0.00391164 -3.72157e-18)
(0.00205941 -3.78831e-06 1.4442e-18)
(0.0323517 0.0078571 -2.6596e-17)
(0.00237372 0.000423313 1.082e-17)
(0.000785728 9.28755e-05 -8.08302e-18)
(-0.0499438 0.0545212 -6.39539e-19)
(0.0493122 0.0340885 1.23832e-17)
(0.0238449 0.0095002 1.9686e-17)
(0.000257915 1.0816e-06 -2.62283e-22)
(0.0035252 0.00287601 -1.24529e-17)
(2.20405e-05 1.37946e-06 -8.08457e-23)
(-0.00082278 -0.0108366 -1.02372e-17)
(-0.000213894 -2.80604e-05 -8.6651e-21)
(0.00739922 -0.00202349 2.08598e-18)
(-0.0259495 0.00581346 -1.6407e-19)
(0.000473404 8.147e-05 -3.93576e-19)
(-0.00179053 -0.00216063 -9.12719e-22)
(0.00119825 0.0229678 5.60957e-18)
(-0.00524178 -0.00922014 -7.50659e-20)
(-0.0772522 -0.0708828 8.98022e-18)
(-0.022594 -0.040846 5.16899e-18)
(0.000853387 -0.000456886 -8.50597e-20)
(0.00101375 -0.000282419 -2.54442e-18)
(0.0461951 -0.00623463 2.44605e-19)
(-0.00312601 -0.030833 -7.39275e-20)
(-0.00318939 9.41552e-05 4.19926e-20)
(0.0123025 0.00220456 -6.07218e-19)
(3.5886e-05 2.82622e-06 7.0692e-21)
(0.0296664 0.0103818 -2.27581e-17)
(0.0093831 0.0128691 -6.8294e-18)
(0.0151447 0.0511946 3.60497e-19)
(0.00107447 -0.00132217 -5.04768e-19)
(0.00236206 -0.00173417 -9.07595e-18)
(0.00276488 -0.00473986 -1.52032e-19)
(-0.0131658 -0.0310143 7.07099e-20)
(0.00075473 -0.000440032 -4.70341e-19)
(0.00118651 -0.00122099 3.19984e-18)
(-0.000232721 0.0162256 -1.3011e-17)
(0.00545846 -0.0536426 -9.78813e-19)
(0.0194341 -0.00681594 -2.11492e-19)
(-0.0147428 0.0145923 -1.59339e-17)
(-0.0499394 -0.00359402 2.96912e-17)
(0.00163885 -5.00243e-05 -3.90318e-19)
(0.000700973 -0.000389486 6.69578e-21)
(-0.00514987 -0.00422027 3.32603e-20)
(-0.0388203 0.0982447 -2.5426e-18)
(0.00177569 0.00107666 4.86732e-21)
(-0.109842 0.0752625 -1.85252e-18)
(0.00109176 0.000126059 -1.55997e-18)
(0.000749051 -0.000382325 3.67278e-18)
(0.00246898 0.00219179 4.56865e-18)
(-0.0554161 0.0586074 -9.53811e-18)
(-0.0122705 -0.017056 -5.09681e-19)
(0.00245763 -0.0051995 -2.06316e-19)
(0.00115017 0.000277344 7.10747e-18)
(0.0147501 0.0851277 2.30463e-18)
(0.00930738 0.00672416 -3.27361e-18)
(0.00414511 -0.00338118 1.49017e-19)
(0.000874884 8.76897e-05 1.3801e-18)
(0.00971784 -0.0398787 -9.95945e-20)
(0.00620168 -0.00453194 -7.07664e-21)
(0.0272015 -0.00134364 -1.23856e-17)
(-0.0418676 0.00117092 -5.6124e-20)
(-0.00345496 0.000439808 -3.68768e-20)
(-0.000375446 1.59526e-05 1.29679e-21)
(9.1663e-06 2.16587e-06 -3.16284e-22)
(-0.000424428 0.0151371 -5.19399e-18)
(-0.0401582 0.0565777 7.14736e-19)
(-0.000840411 0.191686 -2.54228e-18)
(-3.57873e-06 -5.77928e-05 1.44249e-19)
(0.00215898 -7.29606e-05 3.06652e-18)
(0.0258411 0.0543899 2.33963e-19)
(0.00676061 -0.0235555 -1.59213e-20)
(0.0745552 -0.0110291 -1.79947e-17)
(-0.000769365 -0.00287298 8.15884e-19)
(0.000890055 -2.68805e-05 -3.40671e-19)
(0.00393294 0.0070688 6.46595e-18)
(0.00792548 -0.0354781 1.261e-19)
(-0.104193 0.0799337 -2.51118e-17)
(0.000871428 -0.00453275 5.6053e-20)
(-0.255409 0.298427 1.05991e-18)
(0.000802577 0.000108603 7.98745e-19)
(0.0255267 0.0123599 1.75918e-17)
(0.000873588 0.00311844 -2.84372e-18)
(0.00220683 -0.000226239 -3.13784e-18)
(0.0247156 0.00180642 -4.96229e-18)
(-0.000393378 -0.000767016 -1.80177e-18)
(0.0197751 -0.00303382 -4.08939e-19)
(-0.0138085 0.03426 1.60804e-17)
(0.00015561 -6.05376e-05 8.03403e-20)
(0.00113962 0.0117595 1.25252e-17)
(0.00298072 0.00211313 -4.42733e-19)
(-0.000826759 -0.00269226 -2.86348e-18)
(-0.0591071 0.0102123 -2.25697e-18)
(0.000977286 -0.00476728 -5.74102e-19)
(0.000648198 -0.000567683 -2.11094e-18)
(-0.0591898 0.0563085 -1.26964e-17)
(0.000101991 -0.000141016 2.24179e-20)
(0.00247075 -0.00170186 9.68127e-18)
(0.00610267 0.00391509 -1.06745e-19)
(0.0214058 -0.000624003 1.99336e-17)
(-0.0277278 0.0314048 1.20798e-17)
(0.00194935 -2.9501e-06 1.59505e-18)
(0.00534329 0.0153581 4.3148e-18)
(0.00196289 -2.29326e-05 -1.85131e-18)
(-0.0556273 -0.00168001 -3.12711e-17)
(0.00350125 -0.00555473 4.52069e-19)
(0.000202507 -6.67955e-07 5.45737e-21)
(0.00119186 0.000456638 1.58046e-20)
(-0.0255105 0.0325646 -1.19053e-17)
(0.00322854 0.00268208 -4.97494e-19)
(0.00101133 0.000405944 -7.28004e-18)
(0.00218352 -7.76445e-05 -3.63863e-18)
(-0.000251697 -0.00072782 4.20499e-18)
(0.000610995 -0.000584486 3.97089e-18)
(-0.051878 0.0070887 -4.81616e-21)
(0.0475079 -0.0817836 -1.71289e-17)
(-0.0988727 0.0363884 5.5123e-18)
(-0.00785572 -0.0053382 -1.18848e-19)
(0.0190744 0.00230728 1.18905e-17)
(-0.134318 -0.0250873 -3.72391e-18)
(0.00227686 -1.97263e-05 1.90609e-19)
(0.00461867 0.00532605 1.88215e-18)
(0.0757785 -0.0202982 1.23748e-17)
(0.00659811 0.00214572 4.89151e-21)
(-0.00794065 -0.00901499 -3.57955e-19)
(0.0148356 0.0502264 -1.25855e-17)
(-0.0895437 0.077738 5.8882e-18)
(0.0042183 -0.00135443 7.40239e-22)
(-0.0506902 0.0263908 5.79795e-19)
(0.00481988 0.0243097 -1.48166e-17)
(0.00233373 -2.38191e-05 -1.28596e-18)
(0.00194103 0.0374877 -5.20791e-19)
(0.00556599 0.0349375 -1.4859e-20)
(-0.0175854 -0.0653761 6.98362e-19)
(0.000965558 0.000442301 4.15997e-18)
(-0.00922936 -0.00902446 -1.3478e-18)
(-0.000138247 -0.01107 2.91673e-17)
(0.000901937 0.000487657 5.97388e-21)
(-0.0513252 -0.0109809 -2.28761e-19)
(0.00118265 0.000390081 -3.24212e-19)
(0.00207681 -2.29617e-05 -1.81723e-19)
(2.97588e-05 3.08722e-06 -8.13811e-21)
(-0.000111693 -4.64804e-05 1.43333e-20)
(0.000853012 0.000392725 1.05429e-18)
(0.000305217 0.0271213 2.15472e-18)
(-0.001348 0.00818416 -2.22773e-19)
(0.000694788 -0.000397527 1.25112e-18)
(0.00092946 0.0107589 -2.95055e-21)
(0.000134616 -0.000278089 1.93625e-20)
(-0.240439 0.336064 5.60411e-18)
(0.00543337 -0.00511446 -4.49048e-18)
(0.000877382 0.238487 -5.42306e-19)
(-0.0918289 0.038688 6.39493e-18)
(0.00063103 -0.000426658 -1.00669e-18)
(-0.00478105 -0.00895545 -3.35578e-19)
(0.00328155 0.00162216 1.78767e-18)
(0.00676336 0.224776 -5.78362e-18)
(0.000285679 0.000120026 9.28303e-19)
(8.16124e-05 1.42729e-05 1.11453e-20)
(0.00522745 -0.00316069 2.1515e-20)
(0.0175501 -0.0919396 -3.11131e-17)
(0.00144367 -4.56047e-06 1.47023e-18)
(-0.0585963 -0.000581232 8.68904e-19)
(0.00724334 0.00179208 -3.5678e-21)
(0.0155131 0.053814 -1.40384e-18)
(-0.10461 0.0350116 2.97739e-17)
(-0.0126203 0.0443774 -9.12953e-19)
(-0.0128059 0.0511029 2.00772e-20)
(0.000356192 -0.00580251 -1.22128e-19)
(0.000822847 0.000187034 1.12296e-18)
(0.0025985 -2.24103e-05 -1.12959e-18)
(-0.00759976 -0.00462054 1.32933e-20)
(0.00408968 0.0154553 -1.04614e-17)
(0.033155 0.0640872 -9.40556e-18)
(0.000965404 0.00712389 -1.82067e-18)
(0.0177347 0.0109899 2.55687e-18)
(-0.00780466 0.03156 -3.31487e-18)
(0.000187591 -0.000257562 -6.00574e-20)
(0.00167806 -5.56942e-05 -4.42047e-18)
(-0.0997078 0.0354577 2.81525e-19)
(0.0683506 -0.00702537 2.33207e-17)
(-0.0199067 0.00776723 4.11504e-19)
(-0.0740906 0.0594023 -5.52814e-18)
(0.00541577 -0.00359722 1.68198e-19)
(0.00353498 0.00178244 5.35988e-18)
(0.000402996 7.06334e-06 -6.40181e-20)
(-0.119381 -0.0300773 6.20865e-19)
(0.000445551 9.8829e-05 4.65346e-19)
(0.00435391 -0.00283589 -3.83719e-18)
(0.000108124 -0.0055061 -9.6268e-20)
(0.00101726 -5.05819e-05 -5.9815e-18)
(1.32102e-05 1.52755e-06 1.0127e-21)
(0.000172378 -2.56824e-05 -4.69729e-19)
(0.000363836 -0.000261468 -6.97532e-20)
(0.0309863 0.0199002 -1.87942e-17)
(-0.00609939 -0.0118477 -8.13731e-19)
(-0.0661943 0.0106738 -2.86211e-17)
(-0.00581964 -0.00490903 -1.67705e-20)
(0.00584041 0.0168004 -4.42103e-18)
(0.000665743 0.0179049 -5.81326e-19)
(-0.0119501 -0.02281 1.34318e-19)
(0.00253667 -0.00233184 -3.78082e-18)
(-0.0276603 -0.0636837 1.40628e-19)
(0.00206458 -0.000270891 -4.80747e-18)
(-0.00725594 -0.010876 1.1218e-19)
(7.47894e-05 1.53378e-05 -3.66461e-21)
(0.000220629 -2.96317e-05 2.77554e-19)
(0.000313043 6.21738e-07 -4.10044e-20)
(0.058964 -0.0826168 -6.99541e-19)
(-0.0434953 -0.00932798 -3.12082e-20)
(0.0502455 0.0239244 1.89682e-18)
(-0.00170983 0.0165665 3.89257e-19)
(-0.0672102 0.00596679 3.02838e-17)
(0.0200711 0.0631425 -1.00482e-18)
(0.0190225 0.00262498 2.01713e-19)
(0.00150104 2.36636e-06 -2.69146e-18)
(-0.000504634 0.0235361 1.00335e-17)
(0.000359693 9.88152e-05 -1.35672e-18)
(-0.018346 -0.0165335 -1.42536e-19)
(4.80873e-05 2.85663e-06 3.10147e-21)
(-0.0748065 -0.0355988 -1.70334e-18)
(-0.0330011 0.0335572 -4.30108e-19)
(0.00582978 -0.00810737 2.91097e-18)
(0.0265892 0.00589095 7.74311e-18)
(-0.0029781 -0.00315344 -2.30289e-20)
(0.00501605 -0.00216847 2.57495e-20)
(-0.0410404 0.0347107 3.0863e-19)
(-0.0363062 -0.0742616 -2.87858e-17)
(-7.39009e-06 2.26205e-06 4.20679e-23)
(0.00412074 0.0020342 -1.09684e-17)
(0.0106039 0.00810144 -1.48814e-17)
(-0.0144218 -0.0200135 5.45729e-19)
(0.000434137 5.92283e-05 -2.26549e-19)
(0.000515855 -0.000695283 8.16512e-18)
(-0.015704 0.0172813 6.35359e-18)
(0.0235413 0.051784 4.79654e-18)
(-0.00624504 -0.00652447 2.54716e-19)
(-0.0704327 0.411633 9.59499e-18)
(0.000257196 4.476e-07 3.2312e-20)
(0.00126461 0.000499136 5.14586e-19)
(-0.00228717 -0.00281909 4.01769e-18)
(9.02619e-05 -0.00570159 -1.37164e-18)
(-0.00033018 1.79613e-05 -1.5043e-20)
(0.0558372 -0.134412 2.04319e-18)
(0.000830357 0.000171808 -1.06528e-18)
(-0.00280252 0.00290059 -3.94198e-19)
(0.000433979 -8.6401e-06 -6.41507e-20)
(0.00105247 -0.0104315 -2.1051e-20)
(-0.000507145 -0.00201236 3.56808e-18)
(-0.000402528 -2.27285e-05 2.91124e-20)
(-0.00325892 -0.0027071 2.04565e-21)
(-0.0667273 0.0616142 1.19778e-17)
(0.00122007 -0.00010181 -7.30515e-19)
(0.00177331 0.00808165 1.2906e-17)
(0.00101866 6.01725e-05 5.25576e-19)
(0.00622857 0.00263326 -1.29912e-19)
(0.00420687 -0.00679055 3.22296e-20)
(0.000806282 3.46894e-06 9.07928e-20)
(0.000248297 0.000556165 7.82677e-19)
(0.000660677 4.10634e-06 9.52545e-20)
(0.000636416 4.32913e-06 3.327e-19)
(-0.0163791 0.136519 2.81297e-18)
(0.000811179 -0.000271487 5.32283e-20)
(0.0294717 0.00583979 3.60624e-19)
(0.00148265 -2.70694e-05 5.7313e-18)
(0.000377562 1.07455e-05 2.87916e-20)
(-0.0472143 -0.0709454 2.4777e-18)
(0.0293615 0.00403301 1.56648e-18)
(0.00133169 -2.8791e-05 -5.74415e-18)
(0.00633006 0.00206429 5.9123e-20)
(0.00272967 -0.00212668 4.17921e-18)
(-0.00165841 -0.0329007 -2.58405e-19)
(-0.0135956 0.00670625 -1.65473e-17)
(0.00125818 0.000575806 -2.81802e-19)
(0.000655356 0.0211858 8.81702e-20)
(0.000268138 6.44836e-05 3.07291e-19)
(0.0266342 0.000928255 8.6469e-18)
(0.00098377 -2.21922e-05 2.42371e-18)
(-0.00840386 -0.00970231 5.5459e-18)
(7.13422e-05 1.21914e-05 -2.29042e-20)
(-0.000261906 -0.00920141 1.1316e-17)
(0.0185498 -0.0128846 -2.23244e-19)
(4.09841e-05 -0.000105296 -4.70321e-21)
(0.00582303 0.00175712 -2.59129e-20)
(-0.0707113 0.0434312 -1.09107e-18)
(0.00707433 -0.00245613 -1.97543e-18)
(0.012875 0.0218299 1.18643e-19)
(0.00109252 3.45203e-05 -5.75681e-19)
(0.0475358 -0.0900591 3.487e-21)
(0.00166305 -8.40141e-06 1.84169e-18)
(0.000776062 -6.33414e-06 -3.29644e-21)
(0.000762101 6.68083e-05 -8.24999e-20)
(0.00104312 -0.000129157 9.73796e-19)
(0.0662413 -0.00595084 -1.83612e-17)
(0.00782087 0.0219869 -5.82854e-19)
(-0.0035753 0.0568154 2.4824e-17)
(-0.0911317 0.0933311 3.87489e-17)
(-0.00574054 -0.00969146 7.54361e-19)
(-0.00118409 6.91018e-05 -1.38995e-20)
(-0.120699 0.0734205 -1.59659e-17)
(-0.0563608 -0.0104058 3.48919e-19)
(0.00282697 9.47363e-05 -4.29475e-19)
(0.00130083 0.00335747 1.83261e-18)
(0.0113729 -0.027074 4.02442e-19)
(0.0557297 -0.0902105 3.69759e-19)
(-0.00669132 0.0267231 1.13727e-17)
(0.00255908 -6.26974e-06 -5.15925e-18)
(-0.00920941 -0.0107607 7.01685e-18)
(-0.0291881 0.0139977 3.85616e-17)
(-0.0607217 0.0131721 -2.22781e-17)
(0.000733623 -0.00514944 3.6638e-19)
(0.00577391 0.00139653 2.41385e-19)
(0.0175183 0.00719282 7.39664e-19)
(0.00499332 -0.0028061 -6.13615e-21)
(-0.0124948 -0.0460864 7.32231e-21)
(-0.0244275 0.0435465 1.39363e-18)
(-0.121314 -0.0596482 2.35495e-18)
(-0.000398045 -0.0025017 3.95269e-18)
(-0.122384 -0.0744806 -5.62049e-18)
(-0.0312569 0.0343477 5.08135e-18)
(7.55354e-05 1.28968e-05 -4.03312e-20)
(0.00552346 -0.0033946 1.35032e-20)
(0.00649236 0.0234113 -1.4531e-17)
(0.0269353 0.000190616 1.70243e-17)
(0.00107657 -0.00152448 -4.36667e-18)
(0.00139431 -0.00015397 -6.87072e-19)
(0.00088387 0.000403613 -1.23782e-20)
(0.000416016 -0.000293987 2.09906e-19)
(0.0323312 0.00813087 -1.38083e-18)
(-0.00322075 -0.00973837 3.79149e-20)
(0.0313627 -0.0932664 6.96549e-19)
(-0.136056 0.450784 1.90694e-18)
(0.000791285 -5.24608e-06 2.50299e-19)
(-0.00216613 -0.00326932 -2.33237e-17)
(-0.00128755 0.011106 -2.87466e-17)
(0.0115082 -0.0178928 -5.59108e-20)
(-0.0519169 0.0122012 -2.4225e-19)
(0.0021757 0.00757164 -3.64613e-18)
(-0.000239498 1.0102e-05 4.28183e-21)
(0.000245099 -8.91316e-07 1.65418e-19)
(-0.0138042 -0.0194636 2.26973e-19)
(-0.115834 0.0713496 7.44729e-18)
(0.00108398 0.000438875 -2.60904e-18)
(-0.0184184 0.0266013 -1.31488e-18)
(-0.0381449 0.0451454 -1.7193e-17)
(-5.89767e-05 -0.000134428 -8.15737e-21)
(0.00437989 0.0240972 -1.37789e-20)
(0.0643342 -0.0908117 3.81619e-19)
(-0.0216664 -0.0526651 1.82432e-19)
(0.0266584 0.0440762 -7.46209e-18)
(0.0648257 -0.00525866 -1.96621e-17)
(-0.0268265 0.029125 7.46374e-18)
(0.000194478 8.30844e-05 2.73279e-19)
(0.00102363 -6.57755e-05 6.03549e-18)
(0.0593564 -0.178167 -2.27497e-19)
(-0.00830324 0.0314051 3.75879e-19)
(-0.0237286 0.0417214 1.5612e-17)
(0.000377249 0.00698178 -1.83784e-17)
(-0.00667048 -0.0154596 -1.51364e-18)
(-0.000134479 -6.79529e-05 3.65768e-21)
(0.00090121 -0.000167217 -2.77803e-19)
(-0.0807003 -0.0515619 -3.32717e-19)
(-6.07947e-05 -9.74062e-05 2.05661e-20)
(0.000947329 -0.00161376 -1.63662e-18)
(-0.000193802 -6.004e-05 2.40739e-21)
(0.00102503 0.000150332 5.96912e-19)
(-0.0305962 0.0351522 -5.59113e-18)
(0.0321683 0.0140651 -2.03353e-17)
(-0.00115484 0.0134355 6.11391e-19)
(-8.20299e-05 -9.53418e-05 4.95931e-20)
(-0.0653544 -0.00345582 -1.8592e-19)
(-0.0444048 0.0312948 -6.20085e-19)
(0.000802347 0.000166201 -1.2236e-19)
(0.000422645 2.26581e-05 -5.68876e-20)
(0.00171862 0.00132303 -7.46565e-21)
(0.00267016 -2.051e-05 -3.98964e-18)
(0.0198365 -0.0671888 1.23418e-17)
(0.00127812 0.0448845 -8.99562e-20)
(-0.00428788 0.0232966 8.78568e-20)
(-0.0543781 0.00693032 -5.37496e-20)
(0.0372282 -0.105556 2.52325e-19)
(0.000199123 0.00608585 -8.54699e-18)
(0.0261988 -0.00256501 -7.59517e-18)
(0.0375496 0.00341691 -5.31508e-18)
(0.00467572 -0.00133625 2.94996e-20)
(0.00292711 0.00640903 2.45412e-18)
(-0.000253839 2.45305e-05 -2.18749e-21)
(0.00615511 0.00291225 -1.46586e-19)
(0.00498523 -0.00223508 -3.07363e-19)
(-0.0815791 0.0702162 -4.80009e-17)
(-0.0548112 0.0226928 -1.63041e-19)
(-0.0165625 0.0270649 6.79722e-18)
(0.00395377 0.000573715 -7.24172e-19)
(0.000392608 -2.27954e-05 2.97972e-19)
(0.00400008 -0.00410134 2.59929e-18)
(-0.00494614 0.00136658 -6.45835e-20)
(0.013452 0.0114021 4.42211e-19)
(0.0136054 0.0243132 -1.26154e-17)
(0.00153178 -2.72099e-05 -1.89984e-18)
(-0.00730092 -0.00589287 -5.43022e-20)
(0.000459839 4.29564e-05 1.88338e-19)
(0.00205451 0.00237911 -1.40649e-17)
(0.0543677 0.0194249 8.92901e-18)
(0.000933495 -1.67127e-05 3.18484e-18)
(0.000410806 0.000147769 2.54428e-19)
(0.00560258 -0.00457224 3.30081e-18)
(0.000895278 -6.11942e-05 5.20768e-18)
(0.0286806 0.00805806 4.77629e-18)
(0.0518334 -0.0782105 -5.42298e-19)
(0.0424758 0.0328706 -7.45989e-18)
(0.00383046 -0.00493549 -2.53005e-18)
(-0.0268223 0.0408131 -2.81709e-17)
(0.000417315 -2.93033e-05 -4.10448e-19)
(-0.0113195 0.00330756 1.67106e-18)
(0.00327555 -0.00513648 9.36794e-20)
(-0.044962 0.00121224 1.3514e-17)
(-0.00145475 -0.000616022 5.15174e-19)
(0.000425315 1.10479e-05 -1.50941e-19)
(-0.0034679 0.00488078 2.04558e-17)
(-0.00243049 -0.0025266 1.24993e-18)
(-0.102182 0.0369039 -2.11547e-17)
(0.0147122 0.0192123 1.81113e-17)
(-0.0148217 -0.00434371 2.21847e-17)
(0.0342878 -0.133119 -6.86127e-19)
(0.000423712 7.37826e-05 -4.83311e-19)
(-0.00651441 0.00697091 -6.05807e-18)
(-0.0041227 0.000474839 5.24625e-20)
(0.00097603 0.000169193 -3.41159e-19)
(7.0167e-05 9.72205e-06 5.06313e-21)
(0.00101013 0.000168581 -2.43272e-19)
(-0.0114714 0.00153239 -1.89093e-20)
(-0.00646419 -0.00502635 1.98517e-19)
(0.000552811 -0.00971862 1.63543e-19)
(-7.41722e-05 -6.71087e-05 -5.55655e-20)
(-0.123425 -0.0722713 5.37291e-18)
(0.0210193 -0.0107478 5.37766e-19)
(-0.134543 -0.0599259 -1.52878e-18)
(0.000842871 0.000260051 1.08479e-18)
(4.89318e-05 4.69032e-06 1.40885e-20)
(0.000145282 4.88736e-07 2.31111e-20)
(0.0609875 -0.0219624 1.05534e-19)
(-0.138719 0.00428924 -7.67394e-18)
(-0.00563123 0.0155271 1.59767e-17)
(0.00226726 0.00241857 4.06004e-18)
(-0.00440869 0.000114602 -5.19739e-20)
(0.000409476 1.19467e-05 3.72002e-20)
(0.000826645 2.39992e-06 -1.0759e-18)
(0.000922553 0.000400432 -1.7052e-19)
(-0.0624351 0.0683169 1.79745e-17)
(0.0835125 -0.114264 -1.3963e-20)
(0.000985512 -6.02626e-05 2.48451e-18)
(-9.11963e-05 -6.35023e-05 -3.65299e-20)
(0.00105524 -0.000155255 2.18117e-18)
(0.000949222 0.000423442 -2.63409e-20)
(-0.0595892 -0.0130416 -5.90996e-20)
(0.00110255 -0.00872437 -1.36426e-17)
(0.0042523 -0.00380127 -5.93951e-18)
(-0.0746426 0.050055 1.68358e-17)
(0.057174 -0.0916467 -1.80905e-19)
(0.000422427 0.000126665 -1.58803e-18)
(0.000464332 0.0554019 -2.09572e-17)
(-0.0229056 -0.0864457 2.6437e-17)
(0.00322874 0.00706277 -2.33173e-18)
(-0.236047 0.12401 -4.2792e-18)
(0.00081227 4.85901e-05 -2.33967e-18)
(-0.00484086 -0.00457006 1.01499e-18)
(-0.00461953 0.0151778 -5.44991e-18)
(-0.00561153 -0.00432729 8.5282e-20)
(-0.0293465 0.0167296 4.69698e-20)
(0.00136547 -2.9003e-05 4.24129e-19)
(0.0294039 -0.0467559 -9.38462e-19)
(4.74596e-05 1.7792e-06 -2.39155e-20)
(-0.00298586 0.00399153 -1.47481e-18)
(0.0256113 0.00876156 -8.24722e-18)
(-0.000416031 0.000682126 -4.15107e-19)
(-0.00239193 -0.00167905 -6.38829e-20)
(-0.00943369 -0.0159015 2.46864e-18)
(0.000754642 -8.81739e-06 9.80718e-19)
(0.00255075 -0.000159975 -4.00452e-19)
(0.000117643 0.0563054 -3.16648e-18)
(0.0308651 0.0311882 -4.70497e-20)
(0.0144699 0.0222686 -1.75265e-17)
(-0.0924592 0.065152 1.17167e-17)
(-0.0216215 0.0442856 -7.34408e-19)
(-0.000158951 -4.1579e-05 2.64457e-20)
(0.000823145 0.00025383 -5.23539e-19)
(-0.0533403 -0.0590438 -1.33793e-17)
(-0.041484 0.0425501 3.29063e-18)
(-0.00577962 -0.00992819 2.25615e-19)
(0.0101063 0.0216047 6.09582e-18)
(0.000582538 0.000315244 -9.40805e-20)
(0.00287244 -1.9527e-05 -2.55551e-18)
(7.77158e-05 1.58969e-05 2.5325e-20)
(0.0220586 -0.0979681 2.08177e-19)
(-0.0329635 0.032722 -9.91835e-18)
(0.000584825 -0.00378222 1.91696e-18)
(-0.000938103 0.000871446 4.08492e-19)
(0.00447867 -0.00942647 -1.39376e-19)
(0.00126363 0.00124255 6.03778e-18)
(0.000132365 1.10125e-07 -3.10224e-20)
(-0.00128444 -0.00315706 -1.87244e-17)
(0.0268268 -0.0651145 8.96575e-19)
(-0.0233228 0.0256538 -1.03268e-17)
(6.37552e-05 -0.000142781 -1.32359e-20)
(0.000965027 -4.12132e-05 2.6868e-18)
(0.014805 -0.00112799 -2.23768e-17)
(0.00025065 -0.00790011 -4.64189e-18)
(-0.0374411 0.034958 -8.29067e-18)
(-0.00410516 0.0013776 -9.66939e-20)
(-0.0122446 0.0202452 -4.53169e-18)
(0.00132273 -5.71511e-05 6.91109e-18)
(0.000235099 -0.0123875 1.084e-19)
(0.0031351 -0.0353196 1.33469e-18)
(0.0046491 -0.0097854 2.60274e-18)
(0.00205783 -0.00145331 -2.72263e-18)
(-0.0140154 2.06636e-05 -6.98574e-18)
(0.00128211 -0.00548305 -1.94207e-19)
(-0.00300909 0.00637418 1.41953e-19)
(-0.0230202 0.0270684 1.98588e-17)
(0.000427325 1.17994e-05 7.26228e-20)
(0.00139234 6.1802e-06 -7.0217e-20)
(-0.000493127 -0.0021683 -2.16724e-18)
(0.000443334 -1.28061e-05 3.88962e-19)
(-0.00136857 -0.00231777 3.82473e-18)
(0.0046669 -0.00137364 4.2474e-18)
(0.0234248 0.0480692 6.62785e-18)
(-0.0028004 0.0124958 -3.46576e-19)
(0.00625712 -0.00625961 1.91141e-20)
(0.000387804 -3.9937e-05 -3.53402e-20)
(-0.0372788 0.102352 3.06482e-18)
(0.00094915 7.71506e-06 1.05972e-19)
(0.00102923 -0.0058479 8.80029e-20)
(6.66507e-05 8.63739e-06 2.17242e-20)
(0.000491048 0.000148492 -1.78397e-18)
(0.00126076 2.8527e-05 7.98408e-19)
(-0.0140575 0.032907 -1.86085e-17)
(0.000867355 0.000413904 -6.34506e-19)
(0.000110614 8.43399e-06 -3.88537e-22)
(0.0488207 0.0027754 1.31748e-19)
(0.000973913 -7.27417e-05 -5.45022e-18)
(0.0154855 0.00231858 -1.43755e-18)
(7.39257e-05 1.4945e-06 1.64564e-21)
(-0.00471687 -0.000724485 3.25122e-20)
(-0.00480804 0.025218 -6.20507e-18)
(-0.068717 0.000233838 -2.95161e-19)
(0.00129922 -0.0123721 -5.50566e-20)
(0.00077268 -7.23795e-06 -8.06497e-19)
(0.0288499 0.0599265 -1.79735e-20)
(-0.0805953 0.0535844 -1.95474e-17)
(0.000784727 -0.000325196 1.69071e-18)
(-0.024106 0.0412193 5.474e-18)
(-0.00261652 0.00392201 3.04784e-18)
(0.000439301 -3.4679e-06 7.79108e-19)
(0.00104457 0.0241915 1.98864e-19)
(-0.00125085 -0.00329357 4.3407e-17)
(0.0499993 0.0355367 -3.6572e-19)
(0.00208044 -0.00246312 1.83447e-18)
(0.000845539 1.47214e-07 -5.1313e-19)
(-7.17726e-05 -4.33824e-05 7.6962e-21)
(-0.053904 0.0108142 3.18124e-19)
(0.000820285 -0.0111167 -3.9683e-19)
(0.00570376 -0.0152473 8.3889e-20)
(0.00066767 -0.00437587 7.68684e-19)
(0.00520017 0.0244694 -8.24281e-19)
(0.00248598 -6.34026e-06 5.40993e-18)
(-0.00462188 -2.27183e-05 3.4599e-20)
(-0.02144 0.0206279 -5.192e-18)
(-0.0667589 -0.0351006 1.75115e-20)
(0.0316512 0.00208918 -1.4183e-18)
(-0.0469008 0.0690677 -1.32174e-19)
(0.000958428 -4.10578e-05 6.9768e-19)
(0.0283976 0.00278778 2.39202e-18)