/*--------------------------------*- C++ -*----------------------------------*\
| =========                 |                                                 |
| \\      /  F ield         | OpenFOAM: The Open Source CFD Toolbox           |
|  \\    /   O peration     | Version:  v2012                                 |
|   \\  /    A nd           | Website:  www.openfoam.com                      |
|    \\/     M anipulation  |                                                 |
\*---------------------------------------------------------------------------*/
FoamFile
{
    version     2.0;
    format      ascii;
    class       volScalarField;
    location    "50";
    object      nut;
}
// * * * * * * * * * * * * * * * * * * * * * * * * * * * * * * * * * * * * * //

dimensions      [0 2 -1 0 0 0 0];


internalField   nonuniform List<scalar> 
13851
(
0.00651302
0.00322346
0.000516751
0.00658391
0.000561162
0.00229988
0.00679922
0.00117464
0.00669756
0.000610526
0.00238401
0.00812583
0.00369717
0.011999
0.00672717
0.00497289
0.00397484
0.00318965
0.000376223
0.00670218
0.00661476
0.00048343
0.00685914
0.00690511
0.0068838
0.00126722
0.00302866
0.000632661
0.00654814
0.00545443
0.0051785
0.00383271
0.000550664
0.0295389
0.00690661
0.00108192
0.000795195
0.000272826
0.000743078
0.0287736
0.00682536
0.00662526
0.00132943
0.0027099
0.0025512
0.00194128
0.00457845
0.0100227
0.00293013
0.00743853
0.000778845
0.000447754
0.00399467
0.00676404
0.00684925
0.00662765
0.00681669
0.00718094
0.00555533
0.00682263
0.000299126
0.00826134
0.00220881
0.000474723
0.00191478
0.00621841
0.00274853
0.00792516
0.0016113
0.00315449
0.00222076
0.00613818
0.00398483
0.00676972
0.00672073
0.00681613
0.00054916
0.00367799
0.00103133
0.00275751
0.0060724
0.00620304
0.0067473
0.00280374
0.0028279
0.00952
0.00322417
0.00648689
0.00288324
0.00671153
0.000763484
0.0055881
0.00859036
0.00247967
0.00361565
0.00693254
0.00050417
0.0107262
0.00715056
0.00694826
0.00708053
0.000993902
0.00678947
0.00245326
0.00678365
0.00412561
0.000924962
0.0066707
0.00969326
0.00364521
0.00692565
0.00670591
0.00594142
0.0068637
0.00692468
0.00847237
0.0105672
0.0066671
0.00687068
0.00687674
0.0012689
0.00265718
0.00413645
0.0100488
0.00950566
0.00630836
0.00850341
0.00099455
0.00665444
0.000294506
0.00681906
0.00670609
0.00334571
0.00674381
0.00901031
0.0067305
0.00666676
0.0058782
0.0133766
0.00585822
0.00813252
0.00685197
0.00672339
0.0065607
0.00477346
0.00310843
0.00645522
0.000294087
0.00679379
0.00232993
0.00150629
0.00685577
0.010855
0.00681693
0.00374925
0.00532048
0.00678104
0.00632307
0.000380842
0.000793081
0.00663474
0.00221416
0.00723542
0.00670405
0.00292586
0.00660953
0.00643133
0.00158217
0.00667784
0.00662634
0.00257135
0.00671258
0.00678524
0.00642594
0.00670081
0.0112534
0.00104302
0.00672469
0.000330397
0.00664652
0.00408537
0.00703278
0.00673814
0.000459792
0.00671757
0.0069106
0.00618026
0.00680759
0.00043592
0.000733352
0.00580183
0.00511082
0.00671876
0.00164492
0.00763783
0.00476687
0.00678461
0.0283441
0.00675178
0.00681835
0.00632431
0.0037218
0.00689001
0.00675116
0.000715127
0.00674091
0.0155216
0.00388365
0.0104337
0.00664022
0.0131898
0.00680284
0.0291082
0.00665659
0.00655186
0.00337707
0.00183647
0.00186784
0.00671721
0.0110552
0.00389051
0.00599348
0.0114107
0.000363169
0.0143156
0.00692422
0.00219713
0.00679312
0.00733504
0.00664722
0.00147119
0.00265116
0.00671489
0.00670846
0.000919416
0.00151474
0.0147964
0.00210628
0.00654865
0.00675405
0.00622495
0.0218339
0.00658424
0.0007049
0.00677962
0.0139666
0.000934097
0.0300818
0.00507454
0.00438681
0.00620338
0.0235424
0.00683573
0.00535632
0.00113509
0.014039
0.000847767
0.00663234
0.000245585
0.00673133
0.00656297
0.00401761
0.00919436
0.00628166
0.000729738
0.00463682
0.00683987
0.00274455
0.0109064
0.00714486
0.00621449
0.00423242
0.00798427
0.00110079
0.00508422
0.00670855
0.00622061
0.00610827
0.0144974
0.00232616
0.006585
0.00663927
0.0067791
0.00121629
0.00865061
0.0122738
0.00674395
0.00671925
0.00845044
0.00621462
0.000287642
0.00595679
0.00682507
0.00145715
0.00618485
0.00100736
0.00388903
0.0110605
0.00671267
0.014036
0.00226867
0.00428648
0.0143786
0.00685416
0.00498348
0.0129103
0.0067338
0.00121825
0.00240727
0.00640427
0.0127135
0.00297833
0.00684247
0.0112272
0.00661667
0.00531684
0.00637678
0.0141256
0.00108679
0.00671874
0.00099797
0.00671904
0.001238
0.00620122
0.00687049
0.00685119
0.000999432
0.0023709
0.004395
0.00671856
0.00685475
0.00684807
0.00237692
0.00695163
0.00855527
0.00259708
0.0140215
0.00192828
0.00672294
0.00161972
0.000280121
0.00512876
0.00175655
0.000511067
0.000276442
0.00640642
0.00936813
0.0134577
0.00673347
0.00661789
0.00657613
0.000489705
0.00423836
0.00186189
0.00743176
0.00679431
0.00895714
0.00685235
0.00671791
0.00676786
0.00667012
0.00675697
0.0134344
0.0236112
0.00679293
0.00136097
0.00661815
0.0106654
0.00245476
0.00992897
0.00775354
0.0068003
0.0014877
0.00275085
0.0101751
0.00679912
0.00664662
0.00612044
0.00618338
0.006765
0.0129549
0.00523249
0.000520077
0.00296746
0.00460143
0.00472333
0.00635292
0.00670907
0.00681059
0.00315867
0.00103243
0.0120372
0.00148917
0.0141499
0.0131045
0.00661639
0.00673412
0.00778869
0.0042289
0.00194419
0.0105684
0.00613476
0.00264495
0.00695406
0.000807462
0.00669833
0.00505098
0.00635996
0.00678695
0.00678617
0.00672022
0.00661115
0.000512451
0.0014357
0.00252641
0.00333988
0.000940064
0.00425637
0.0229932
0.00514479
0.0016336
0.00422439
0.00379467
0.00668039
0.00671308
0.00694867
0.000281155
0.0279678
0.000369696
0.00436563
0.00131183
0.0295294
0.00241724
0.00690988
0.000864543
0.00679208
0.0233037
0.0067941
0.0116619
0.0270676
0.000623532
0.00912779
0.00667282
0.00620023
0.0272297
0.00632651
0.00670745
0.0023991
0.00106787
0.00708515
0.00670485
0.00684643
0.00144681
0.000466278
0.00211353
0.00563476
0.00692527
0.00685779
0.00388052
0.00298961
0.00663839
0.00728255
0.00670795
0.00651852
0.00667165
0.00137367
0.00670122
0.00663946
0.00669481
0.010678
0.00675078
0.00147756
0.0067202
0.00572262
0.00568588
0.00686342
0.00682902
0.00687055
0.00687505
0.0131291
0.00684024
0.00275175
0.00673493
0.00691091
0.0101591
0.0082025
0.0067463
0.00546257
0.0048081
0.0217318
0.00262928
0.00685445
0.0238627
0.00680537
0.000514571
0.00680581
0.00427477
0.00671384
0.00374445
0.000864968
0.00661856
0.00552337
0.00946601
0.00141732
0.011073
0.00688312
0.0109973
0.00688249
0.0066991
0.00671256
0.00677767
0.00649462
0.000817527
0.000554428
0.000407109
0.00129715
0.00662914
0.00487316
0.0275573
0.00374054
0.00200527
0.0171514
0.0103318
0.0129291
0.0068177
0.00403097
0.00213213
0.00288231
0.002853
0.00539645
0.00731407
0.00616519
0.0124586
0.0289102
0.0151876
0.00623767
0.0138736
0.00780255
0.00669972
0.00615552
0.000810157
0.0054439
0.00538488
0.00672987
0.00677331
0.0067801
0.000468457
0.00143902
0.00428632
0.00889527
0.00673587
0.00378165
0.00900168
0.00816102
0.0273739
0.00147901
0.00663727
0.00670377
0.00637038
0.0059937
0.00406793
0.00114604
0.00090169
0.00663074
0.00399644
0.00965898
0.000619216
0.000471227
0.00729369
0.00791867
0.00681293
0.0067892
0.00806479
0.0130187
0.000783084
0.00148958
0.00384102
0.00665269
0.00673238
0.0101389
0.00664112
0.00516265
0.00664528
0.00670425
0.00831604
0.000478958
0.00483833
0.00664042
0.0118768
0.028721
0.00671267
0.00677586
0.00628257
0.00680088
0.00663212
0.0295188
0.0295396
0.00348498
0.0112427
0.0015972
0.00323559
0.00897225
0.00635011
0.00158918
0.00663745
0.0063554
0.0047824
0.00940454
0.00852167
0.00111996
0.00322818
0.00668835
0.00467032
0.00677126
0.0116885
0.000691091
0.00673199
0.00245351
0.00670253
0.00286764
0.000339649
0.00681435
0.00678526
0.00270668
0.00682672
0.000525735
0.000292478
0.00040998
0.00330991
0.000779041
0.00668234
0.0023068
0.00611778
0.00292312
0.00681539
0.00692289
0.00892095
0.00653402
0.00208106
0.0135892
0.00160402
0.00585849
0.00669507
0.00708565
0.00659497
0.00670499
0.00671925
0.00670499
0.00655196
0.00295034
0.00152616
0.00665047
0.00189767
0.000790388
0.00285821
0.00675927
0.00672963
0.00680233
0.000313698
0.00694041
0.0011872
0.00255698
0.00659873
0.00693168
0.00681561
0.00680506
9.45774e-05
0.00718938
0.00681936
0.0066534
0.00677993
0.0068009
0.00619201
0.00570815
0.00495423
0.0104001
0.0108714
0.00677852
0.000583934
0.00671389
0.00147589
0.00767613
0.00670348
0.00388245
0.00119194
0.00378471
0.0288942
0.006743
0.00802293
0.00680305
0.00162099
0.0106943
0.00680079
0.00665221
0.0033244
0.00670111
0.00418537
0.00892039
0.00928491
0.000702554
0.000667678
0.00385069
0.00666025
0.00675257
0.00971836
0.000646473
0.00143364
0.0135887
0.00671934
0.006865
0.00669123
0.0108326
0.00318687
0.00406157
0.00681776
0.00542534
0.00327988
0.00680474
0.00272677
0.01443
0.0112057
0.00661928
0.0068151
0.00358993
0.00225929
0.000706344
0.00682211
0.010955
0.00674535
0.0044757
0.00039961
0.000545922
0.00468909
0.00199809
0.00627755
0.00683774
0.00105117
0.00690606
0.00688725
0.00667344
0.00667917
0.00268588
0.00513878
0.000457722
0.00497653
0.00599315
0.00669531
0.00916067
0.00688061
0.0062726
0.00673771
0.00676695
0.00677388
0.0128369
0.00676335
0.00660357
0.00720939
0.00679657
0.00592905
0.00682884
0.00678561
0.000931839
0.0112754
0.025011
0.00678829
0.00630612
0.0101258
0.00683663
0.0124401
0.0016691
0.00667376
0.00705574
0.0020146
0.00536527
0.00481878
0.00674244
0.00666593
0.0273103
0.000485152
0.00100532
0.00356359
0.0068701
0.0067987
0.00679137
0.00153017
0.0281794
0.000458577
0.00896233
0.00680758
0.000495464
0.000706451
0.0138702
0.00396431
0.0133533
0.000390343
0.00679819
0.00177471
0.00338213
0.00773241
0.00956731
0.0117697
0.0151588
0.00351268
0.00667356
0.00349243
0.00783542
0.00263182
0.00684731
0.00693173
0.000891814
0.00620678
0.00659599
0.00401321
0.00671394
0.00678377
0.00351527
0.00363787
0.00405286
0.00670532
0.00671887
0.00228839
0.000153099
0.000824602
0.00654773
0.00959633
0.000512645
0.00623268
0.000948096
0.00136714
0.00684232
0.00680053
0.00786854
0.00142727
0.00349371
0.00610587
0.00168096
0.00277701
0.00842314
0.00737823
0.00675789
0.00172454
0.00671229
0.00380942
0.00667242
0.00484841
0.00392879
0.0123904
0.00659401
0.00090636
0.00675129
0.000527316
0.00169953
0.00179227
0.0105621
0.00146792
0.00124333
0.00690141
0.000934177
0.010566
0.00367992
0.00520222
0.00262324
0.00634076
0.00870852
0.0246569
0.00685025
0.0136933
0.00697909
0.006964
0.0133435
0.00618907
0.00684037
0.0107234
0.00687411
0.00829646
0.0105343
0.0067557
0.00355675
0.000260299
0.0287683
0.0104696
0.00682066
0.00674493
0.00313863
0.0105476
0.000479931
0.00470938
0.0066266
0.0241559
0.00294763
0.000712755
0.00660303
0.00297325
0.00669928
0.00688678
0.00608873
0.00696451
0.00469028
0.0218603
0.00679236
0.00666632
0.00684509
0.0066634
0.00305225
0.00929354
0.00233465
0.0144257
0.00674765
0.00252009
0.00683363
0.00669966
0.00684854
0.00678915
0.00626919
0.00674915
0.00136049
0.00676264
0.00502041
0.00606019
0.00172569
0.00689011
0.0091988
0.000855363
0.000852802
0.00489618
0.00271434
0.00229719
0.00236127
0.00146701
0.00467952
0.00890717
0.00498779
0.00158513
0.00223933
0.00682792
0.00125391
0.00100053
0.0116669
0.00682759
0.00818689
0.00674829
0.0067639
0.0121437
0.00636747
0.00088927
0.00471904
0.00671309
0.00387276
0.00671307
0.00671877
0.00660044
0.00683058
0.000180379
0.00675975
0.000188187
0.00378333
0.000823371
0.010564
0.00679317
0.00688746
0.00640859
0.00678767
0.00671043
0.000934517
0.0054554
0.00678492
0.00681098
0.00690297
0.0061483
0.00657396
0.00277483
0.0110009
0.000335883
0.00673346
0.00728036
0.0027015
0.00675275
0.0214066
0.00706596
0.0305678
0.00672598
0.00339209
0.028762
0.00676668
0.00672603
0.00327575
0.00524574
0.00323025
0.00659827
0.00673774
0.0172215
0.00188186
0.0131352
0.00680058
0.00674037
0.00789635
0.00684779
0.00667314
0.0216327
0.00173167
0.000276215
0.0214679
0.00693081
0.00679152
0.00237523
0.00571719
0.00275376
0.000369007
0.00144512
0.00522318
0.00665195
0.00549082
0.00678828
0.00613356
0.00257755
0.00961035
0.000287068
0.00683312
0.00651214
0.0068343
0.00950102
0.0272232
0.00672263
0.00686002
0.00679843
0.000786677
0.00662431
0.00678931
0.00606311
0.0017721
0.00252607
0.00145721
0.00247755
0.0067769
0.00142783
0.00136667
0.00399428
0.00145479
0.000476928
0.000932142
0.00664244
0.0011347
0.00673062
0.00687699
0.00683992
0.00378128
0.00094631
0.0283588
0.00277434
0.00485338
0.00673251
0.00679072
0.00685636
0.00722101
0.0038583
0.00663739
0.0018956
0.00158585
0.00802861
0.00686743
0.00209359
0.0065527
0.0150697
0.000565432
0.0117233
0.00146145
0.000821876
0.000327624
0.00966622
0.0192572
0.00564614
0.00680495
0.00336
0.00662003
0.00542196
0.00206145
0.00684051
0.00953376
0.00493579
0.00283383
0.0194951
0.000364052
0.0126584
0.00671873
0.00344514
0.00364608
0.00643271
0.00319642
0.00296121
0.0114359
0.00894757
0.00671033
0.00239112
0.00647317
0.00938106
0.010158
0.00142412
0.00652213
0.00578507
0.00270722
0.00153291
0.0171738
0.00496102
0.00397784
0.00663808
0.00589901
0.00352673
0.00117434
0.00245633
0.012989
0.00980981
0.00034429
0.00226945
0.00677875
0.00591719
0.00677849
0.00364396
0.0014197
0.00884127
0.00508352
0.00228006
0.000490138
0.00470038
0.0128964
0.000459202
0.0068279
0.00402556
0.0112696
0.00524402
0.00947122
0.00677197
0.00679943
0.00333054
0.00108582
0.00364535
0.00684073
0.00678509
0.00679685
0.00639048
0.000816575
0.00683471
0.00875394
0.000479649
0.0151831
0.00531186
0.0118033
0.00673521
0.0102219
0.00281908
0.00682691
0.000515383
0.00763647
0.00680233
0.00675047
0.00179366
0.0123246
0.00628211
0.00671006
0.00720161
0.00682804
0.00637056
0.0067101
0.0102447
0.00680138
0.00126647
0.00995221
0.0100958
0.00459136
0.00159857
0.0226409
0.00301963
0.00115377
0.0155611
0.00486866
0.00673262
0.000474542
0.00686982
0.00671913
0.00644852
0.0300624
0.00677323
0.000621599
0.00675497
0.00681214
0.00353412
0.000680232
0.00451629
0.0051623
0.00651315
0.00671008
0.00176257
0.00618796
0.00727332
0.00672607
0.000778549
0.0177217
0.00685439
0.00673109
0.0109014
0.00158806
0.00477973
0.00052399
0.00547348
0.00431537
0.00525367
0.00859363
0.00473074
0.00295552
0.0274921
0.00169032
0.000747139
0.00674906
0.000659329
0.00673406
0.00673488
0.00762375
0.0108559
0.00661705
0.00856577
0.00614437
0.00560165
0.00877308
0.00633212
0.00678258
0.00567681
0.00569331
0.00659906
0.00467514
0.0127711
0.0115705
0.00116116
0.0123758
0.00170248
0.0133744
0.0132526
0.00172862
0.00678086
0.0067758
0.00618479
0.0067312
0.000267706
0.00683
0.00531467
0.0065792
0.0021751
0.0136889
0.00443603
0.00681479
0.00647206
0.00420389
0.00262717
0.00671582
0.00683369
0.00638906
0.00487866
0.00902554
0.00734591
0.00779602
0.000791095
0.00672675
0.00200835
0.00685192
0.00111015
0.00677129
0.00514058
0.00682496
0.00685989
0.000503633
0.00515213
0.00476704
0.00659005
0.00469921
0.000544883
0.00324497
0.00678962
0.00103218
0.00679902
0.00468747
0.00619256
0.00392024
0.00519463
0.00160692
0.00310359
0.00681916
0.00553538
0.00680267
0.00598668
0.00671845
0.00682492
0.00681287
0.0117045
0.00299352
0.00630816
0.00607574
0.00688447
0.0014346
0.0110461
0.00047965
0.00151779
0.00677382
0.00482409
0.00674868
0.00683945
0.000346113
0.0125248
0.00683534
0.00235656
0.00128663
0.00708744
0.00632514
0.00541462
0.0116602
0.00510056
0.00609558
0.000211859
0.0132181
0.00680796
0.00618754
0.00674495
0.0142615
0.00143221
0.00162073
0.000687626
0.00496482
0.00429349
0.0128755
0.0176788
0.00684641
0.00178069
0.000871548
0.00682322
0.00616812
0.0068017
0.00685076
0.00671649
0.000348654
0.00470345
0.0006102
0.00551476
0.004086
0.00202502
0.023022
0.000646035
0.0135578
0.0152315
0.00528015
0.00124171
0.000300688
0.0059863
0.000593506
0.00617319
0.00673324
0.00609511
0.00673786
0.0114992
0.0015552
0.00674364
0.00785284
0.00420677
0.00309103
0.00492661
0.00664483
0.00688544
0.00111776
0.00483044
0.00827282
0.000717863
0.000660124
0.000847343
0.000361651
0.0151049
0.00494772
0.0136266
0.0067965
0.00677036
0.000164998
0.00567669
0.00497275
0.0053898
0.00689741
0.00290048
0.017231
0.00681124
0.00221148
0.00670537
0.00125978
0.000839237
0.00612423
0.00447225
0.000884486
0.00456917
0.00708784
0.00249131
0.00673203
0.00147904
0.0132934
0.00508246
0.00333137
0.00105436
0.00664364
0.00687335
0.00663076
0.00455276
0.0140505
0.00984451
0.00115477
0.00470214
0.00368633
0.00256075
0.0010367
0.00685847
0.00680639
0.00671779
0.00923459
0.00673022
0.0127447
0.00185383
0.00272647
0.000291184
0.000358086
0.00443038
0.00763031
0.00129036
0.00661378
0.00662919
0.00640202
0.00279727
0.00349292
0.0067039
0.00672761
0.000662012
0.00493809
0.000737732
0.0169192
0.0033675
0.00672234
0.0014821
0.00461409
0.0028313
0.00839023
0.00671097
0.000667425
0.00684733
0.0145824
0.00659122
0.0137468
0.00625665
0.00377151
0.00324777
0.00679778
0.00420502
0.00204796
0.00118208
0.00812796
0.0116138
0.0031304
0.00318464
0.00677496
0.00706043
0.00608521
0.0068481
0.00660534
0.0193474
0.00668867
0.00692645
0.00680545
0.00201641
0.000637448
0.0144053
0.00149271
0.00669753
0.00678008
0.00109417
0.0127313
0.00673575
0.00899442
0.00779131
0.0105361
0.0107137
0.00228253
0.00651333
0.00218439
0.0012947
0.00672976
0.0124575
0.0135261
0.00256698
0.00216086
0.0150348
0.00639501
0.00393832
0.00675233
0.00173455
0.0210848
0.0125989
0.00797162
0.00466202
0.0170294
0.00973873
0.00207241
0.00668894
0.00681512
0.00878137
0.00473225
0.00114889
0.00686825
0.00685563
0.00669951
0.00684282
0.0100393
0.000121443
0.00523839
0.0026291
0.00164431
0.0063277
0.00674414
0.0067089
0.00588852
0.0133672
0.000223452
0.00438895
0.00696397
0.00323403
0.000523116
0.00110585
0.0025646
0.00535339
0.0137508
0.00187103
0.00299842
0.00673615
0.00687236
0.000668795
0.028403
0.0100732
0.0103361
0.000593536
0.00930881
0.00644842
0.0033663
0.00688146
0.00197435
0.00605039
0.0109147
0.00760116
0.00358911
0.00678137
0.00674596
0.00671917
0.00671762
0.00317969
0.00551204
0.00452403
0.00354171
0.00616774
0.0158975
0.013942
0.00603153
0.00239304
0.00421679
0.00176955
0.00216794
0.00955092
0.00670099
0.00425977
0.0029326
0.00666474
0.00254623
0.00278503
0.00913526
0.0299993
0.00688285
0.00187243
0.00686334
0.00238759
0.021575
0.00370038
0.00678497
0.0107302
0.0128872
0.000339201
0.00843818
0.000600181
0.00578828
0.00679778
0.0157875
0.0119476
0.000602876
0.00171174
0.0100987
0.0125326
0.006757
0.00674607
0.00362686
0.0124778
0.0112748
0.00672999
0.00537882
0.00517924
0.00678385
0.00685296
0.00306835
0.0023163
0.00641331
0.00471821
0.00666226
0.00521846
0.00673418
0.00253123
0.00682304
0.00948528
0.00644493
0.000363013
0.00598524
0.00673748
0.000356487
0.00328093
0.0205149
0.00468051
0.00122742
0.00658393
0.00680656
0.00675001
0.00152084
0.000716837
0.000748576
0.00159386
0.0111227
0.00318165
0.000318855
0.00181919
0.0155034
0.00685789
0.00826672
0.0111633
0.00225035
0.0158123
0.00115284
0.00566055
0.00683459
0.000733225
0.00685678
0.00251687
0.00220115
0.00147494
0.01345
0.0065526
0.00135248
0.00674132
0.00616594
0.00660181
0.0067046
0.00832576
0.000679987
0.00555488
0.00596418
0.00132534
0.00377726
0.00671151
0.0103353
0.00349737
0.00660961
0.000880069
0.00659981
0.00115627
0.00678637
0.0111482
0.00685206
0.00357529
0.00837562
0.00342439
0.00858105
0.00105101
0.0145858
0.00684043
0.00882367
0.009554
0.0067342
0.0067554
0.0059178
0.00569218
0.0017909
0.00676598
0.00737176
0.000935898
0.00435724
0.00565164
0.00685193
0.00677603
0.00674561
0.00840437
0.00681345
0.00681346
0.000257811
0.00274188
0.00275396
0.0131585
0.00123248
0.00639305
0.00491783
0.00553784
0.00513546
0.0046271
0.00656698
0.00280172
0.00321649
0.0142138
0.00137518
0.00579383
0.00317433
0.00719319
0.00548389
0.0054135
0.0102923
0.00672905
0.0031606
0.00671676
0.00904243
0.00228891
0.00752155
0.00657402
0.00407961
0.00661611
0.00679258
0.000390899
0.0068564
0.00426188
0.00103204
0.0133043
0.00670981
0.00301778
0.00288767
0.00352744
0.00664819
0.00191657
0.00335464
0.00585246
0.00884554
0.00869079
0.0168501
0.00664031
0.0076519
0.00853145
0.00391633
0.00670964
0.00671954
0.0132332
0.00486753
0.00220885
0.0068643
0.0139401
0.00683381
0.000255678
0.00669687
0.00539279
0.00428023
0.00670842
0.00368658
0.00383316
0.00848077
0.0123077
0.00167405
0.00149693
0.00144759
0.00160702
0.0124839
0.00683237
0.00121644
0.00672851
0.00664659
0.00673738
0.00673937
0.00660804
0.00779702
0.00430787
0.00685181
0.00157383
0.0040041
0.00494144
0.00142139
0.00669876
0.000968219
0.00062071
0.00224296
0.00686123
0.0067276
0.00686915
0.00524738
0.00682772
0.0054529
0.0077837
0.00127553
0.000749778
0.00685323
0.0264712
0.00682979
0.0137142
0.00671906
0.0029962
0.00169257
0.0067947
0.00769656
0.00202386
0.00665005
0.00136285
0.00473206
0.00291708
0.00593018
0.00202371
0.00580508
0.00683648
0.00095008
0.00996889
0.00669531
0.00669876
0.00663953
0.00101416
0.00167656
0.00477273
0.00843309
0.00680517
0.0081901
0.00480058
0.00119257
0.00947694
0.00767607
0.00163457
0.0097348
0.000533636
0.00678624
0.00652986
0.0010036
0.00174087
0.00383687
0.00608631
0.00664687
0.00493492
0.00472255
0.000410714
0.00671615
0.00259503
0.00871295
0.00112545
0.00613725
0.00522907
0.00413298
0.0013817
0.00611822
0.00191891
0.0130099
0.0105062
0.00753333
0.00685562
0.00492472
0.000498717
0.00587002
0.00672796
0.00661818
0.00684438
0.013465
0.0044437
0.0272111
0.0214479
0.00683931
0.00657501
0.00672823
0.00441905
0.00594948
0.00612428
0.00391073
0.00672749
0.00979445
0.0116198
0.000672164
0.00482957
0.00960707
0.00174903
0.00295359
0.00329883
0.00229906
0.00837148
0.00288482
0.00622943
0.00703108
0.00682731
0.00675436
0.016182
0.00867969
0.0125149
0.00173116
0.00523693
0.00683386
0.00689866
0.0118484
0.00240209
0.0067318
0.00137945
0.0154856
0.00675228
0.00683082
0.00884919
0.0112016
0.00574899
0.00672958
0.00416967
0.00671946
0.00453775
0.005915
0.00687546
0.00449973
0.0015554
0.0102722
0.0109518
0.00782123
0.00681166
0.00442285
0.0113027
0.0120965
0.00275113
0.00310698
0.00671638
0.001668
0.00669476
0.00623222
0.000684379
0.0068492
0.0075141
0.00216214
0.0067783
0.0046886
0.000402939
0.011854
0.00700903
0.00675587
0.00695099
0.0126196
0.0105504
0.00298739
0.00686275
0.00673201
0.00278194
0.00683574
0.00685757
0.00382985
0.00675296
0.0113453
0.00775033
0.00684187
0.00458415
0.00661423
0.0068554
0.00392872
0.00791429
0.000744852
0.00485375
0.00405316
0.00665139
0.00671595
0.00679838
0.00684111
0.00683757
0.00692838
0.000738823
0.00953937
0.00669337
0.000402335
0.00724047
0.00513048
0.00679951
0.00670528
0.00303674
0.0133688
0.00683264
0.00204594
0.000657616
0.00245668
0.00677016
0.00262343
0.00652526
0.00431071
0.00669167
0.00653644
0.00682073
0.00677393
0.0049292
0.00381846
0.00946126
0.00218971
0.0174811
0.00815908
0.00812877
0.00172103
0.00872871
0.00556978
0.00035631
0.00690171
0.00948678
0.000660871
0.0254982
0.00593309
0.00665659
0.013897
0.00675877
0.00432339
0.0159772
0.00397413
0.0128806
0.00525093
0.00674456
0.00661284
0.00682175
0.00388771
0.00669817
0.00564234
0.00849506
0.00862522
0.00744187
0.00683185
0.00664393
0.000843803
0.00846106
0.0113468
0.000395498
0.00248294
0.00672155
0.00377688
0.00817761
0.00146689
0.00562463
0.00684047
0.00658994
0.00659077
0.00684829
0.0068428
0.00438129
0.0109134
0.000673735
0.0089535
0.0032307
0.000344191
0.000955654
0.00672773
0.00677175
0.00689592
0.00670758
0.00625542
0.00782139
0.00170923
0.00906556
0.0140026
0.00289661
0.00414464
0.000287504
0.0130344
0.0101215
0.0068495
0.00678862
0.00751317
0.00683915
0.00664961
0.0134443
0.0113475
0.00510692
0.00677712
0.00681899
0.00653218
0.00441308
0.000719634
0.0067163
0.00639442
0.000607779
0.00675895
0.0303287
0.00446851
0.0150378
0.00683225
0.000802186
0.0104385
0.0022683
0.0115026
0.000482175
0.00892021
0.00657226
0.00447236
0.00674587
0.00542103
0.00530953
0.00687999
0.00462367
0.0068769
0.00680712
0.00672646
0.0140324
0.00115108
0.000453709
0.00851577
0.00673281
0.00124493
0.00737795
0.00101425
0.00668137
0.00658614
0.00684378
0.00184242
0.00686282
0.00682195
0.0145001
0.0132603
0.0136131
0.0109993
0.000350837
0.0062584
0.00119205
0.0141683
0.000293876
0.00658577
0.00685741
0.00668199
0.00685402
0.0121618
0.012059
0.00651013
0.00285464
0.0143782
0.00186929
0.00671789
0.00689053
0.00517385
0.00813428
0.0108849
0.00859196
0.0113154
0.0066995
0.000140077
0.000417845
0.00620555
0.00869483
0.00673631
0.000897772
0.0083232
0.00276174
0.0118268
0.00684316
0.00538287
0.00771666
0.0126021
0.00117807
0.00520451
0.00362777
0.00119655
0.0124952
0.0138934
0.0113379
0.000615262
0.0023156
0.00682587
0.00624392
0.00113829
0.00587849
0.0087619
0.00849013
0.00691923
0.000377199
0.000807932
0.00690986
0.0100346
0.00673068
0.000618172
0.00601177
0.00672519
0.0139562
0.0102925
0.0137233
0.00382959
0.000310659
0.00692199
0.00682547
0.0124271
0.00687564
0.00655471
0.00123454
0.00382103
0.0109521
0.00343905
0.00692808
0.00418616
0.00678834
0.000757142
0.00560613
0.000643477
0.00649607
0.0067043
0.00762384
0.000409177
0.0067057
0.00427414
0.00032198
0.00671588
0.00812535
0.00599171
0.0143272
0.00193509
0.00645042
0.00130715
0.00527148
0.0128902
0.0112153
0.000736422
0.00467885
0.00608435
0.00673463
0.0162591
0.00278393
0.00684627
0.00493326
0.00148728
0.00671549
0.00676958
0.000328126
0.00597423
0.00615364
0.000121156
0.00318476
0.00567442
0.00127756
0.000723837
0.0068365
0.0130783
0.00295797
0.00800242
0.00673126
0.00656872
0.000605371
0.0053185
0.0285947
0.00684602
0.0151391
0.0068587
0.00118475
0.00688399
0.00369945
0.000586084
0.000723389
0.0081509
0.0110134
0.00993916
0.0107804
0.00663886
0.00243441
0.00288416
0.00495109
0.00677386
0.000347027
0.00312317
0.00179951
0.000889678
0.000145693
0.00721274
0.013411
0.00139457
0.00015044
0.0067024
0.00112157
0.00143835
0.00672757
0.00112583
0.00571424
0.00498549
0.00146603
0.00285254
0.00672871
0.00674199
0.005155
0.00673103
0.00807209
0.00670785
0.00675129
0.013844
0.000363629
0.00203774
0.00043628
0.00688938
0.000557647
0.00624577
0.0111059
0.00656777
0.0023705
0.0111888
0.00661225
0.00671582
0.00293526
0.00891904
0.000322615
0.000161871
0.000329907
0.00475779
0.00678139
0.00673367
0.00582363
0.00255288
0.00821642
0.00345743
0.00456551
0.0104845
0.00601438
0.00679791
0.00209726
0.00676023
0.00258679
0.00590968
0.00674316
0.00615463
0.00320983
0.00355358
0.00837095
0.0110439
0.00671712
0.00144499
0.00426777
0.000658217
0.00671511
0.0124592
0.0134717
0.006821
0.0014122
0.0138446
0.00108016
0.00113553
0.00510242
0.00508078
0.0127428
0.0143628
0.00670808
0.00261826
0.00659481
0.00659191
0.00676186
0.000726711
0.0130139
0.00249132
0.0145268
0.00232352
0.000812873
0.00665152
0.00670495
0.00682547
0.00687875
0.00113949
0.0137643
0.0145408
0.00122636
0.00455805
0.00685387
0.000854127
0.00670063
0.0134045
0.00137386
0.00683023
0.000558296
0.000448534
0.0152616
0.00751464
0.000304221
0.00197681
0.00458284
0.00851694
0.000297674
0.00862179
0.0203693
0.00664463
0.000875072
0.00680354
0.0084617
0.00592032
0.00148975
0.0112993
0.000202699
0.0139866
0.000620893
0.00404428
0.00153103
0.00670808
0.00121024
0.000871714
0.00354237
0.000919535
0.00330831
0.0050234
0.00730982
0.000543505
0.00639593
0.00534549
0.00157859
0.00261937
0.00668165
0.0102853
0.000352862
0.0127613
0.00259585
0.00677036
0.0102115
0.00672888
0.0063518
0.00523635
0.0104482
0.00217388
0.0125267
0.00317502
0.000790012
0.00359286
0.000755409
0.00492646
0.000890613
0.00420508
0.00692936
0.00135017
0.00667989
0.0108175
0.0273685
0.00691452
0.00691961
0.00197835
0.00265975
0.00482757
0.00137124
0.00142983
0.00683823
0.00198799
0.00738232
0.00768405
0.00161651
0.00121915
0.00661934
0.00761227
0.00170348
0.00111109
0.00169548
0.0014329
0.0139854
0.00664534
0.0068875
0.00635603
0.00194837
0.00676171
0.00978686
0.0060479
0.000378592
0.0016465
0.0109307
0.000182443
0.00242914
0.00585075
0.00102987
0.000332349
0.00273795
0.00191888
0.00391491
0.00145409
0.000612826
0.0063382
0.000808455
0.00712916
0.0231382
0.0067087
0.000398053
0.00458964
0.0111777
0.00673125
0.00116146
0.00688219
0.00528781
0.000717086
0.00547019
0.00431711
0.00671931
0.00671388
0.0170408
0.00905292
0.00685198
0.0168871
0.000230518
0.0066524
0.00575772
0.0106418
0.00032064
0.000447575
0.00674903
0.00340688
0.000979869
0.00692234
0.00678651
0.0142867
0.0032126
0.00995705
0.00101164
0.00245932
0.0126441
0.000446806
0.00026558
0.00671909
0.0276804
0.00179197
0.00308023
0.0131069
0.00128483
0.00685428
0.000530347
0.00340182
0.00619408
0.00658117
0.00171319
0.00677288
0.00132571
0.000456472
0.000387577
0.00679346
0.000196209
0.0018094
0.00443764
0.00133063
0.00802298
0.000386107
0.0121534
0.00670011
0.000655959
0.00247279
0.00672574
0.0285045
0.0173489
0.00234711
0.00370161
0.00615611
0.000626114
0.00785543
0.00238096
0.0065569
0.00592619
0.00971156
0.00476977
0.00159518
0.00615414
0.00674236
0.00124342
0.00175105
0.010072
0.0142981
0.0134007
0.0125482
0.0140128
0.00671236
0.00233092
0.0067273
0.00386529
0.00683539
0.0269622
0.000588287
0.00122746
0.00676528
0.00124189
0.00328915
0.00687684
0.0065273
0.000823666
0.0018209
0.00135258
0.00183583
0.000498645
0.00371206
0.000363632
0.00225833
0.00672423
0.00564343
0.000128144
0.00350941
0.00684335
0.00349029
0.00676599
0.00680036
0.00121573
0.0052028
0.00423357
0.000304636
0.000743864
0.00417788
0.00674241
0.00205634
0.00111705
0.0134106
0.0033834
0.00285337
0.0277716
0.00236908
0.00419759
0.00533965
0.00514014
0.00632522
0.00685283
0.010075
0.00174844
0.00429444
0.00585113
0.00415753
0.00669348
0.00436136
0.0141658
0.00689554
0.00166499
0.0127279
0.000531283
0.000607549
0.00233674
0.00567601
0.0144667
0.0111418
0.00196202
0.000967591
0.00395587
0.00590334
0.00234982
0.00681145
0.00673257
0.00793935
0.0289748
0.00217166
0.00673639
0.0053371
0.00065809
0.00659401
0.00614085
0.000947255
0.00676667
0.00544212
0.0101014
0.00215581
0.00150008
0.00274208
0.00672799
0.000832024
0.000884598
0.0051025
0.0126802
0.000602644
0.0169695
0.00107017
0.00912368
0.00659321
0.00832333
0.000315568
0.000951402
0.00070838
0.0065169
0.000853676
0.00421117
0.00115078
0.000710839
0.00287594
0.000797944
0.00676725
0.00672881
0.00651958
0.00411013
0.00996054
0.00668933
0.000532735
0.00631409
0.00296541
0.00468026
0.000189177
0.00312589
0.000807886
0.00683093
0.00472192
0.00476631
0.00668304
0.0018642
0.00323493
0.00671419
0.00392158