/*--------------------------------*- C++ -*----------------------------------*\
| =========                 |                                                 |
| \\      /  F ield         | OpenFOAM: The Open Source CFD Toolbox           |
|  \\    /   O peration     | Version:  v2012                                 |
|   \\  /    A nd           | Website:  www.openfoam.com                      |
|    \\/     M anipulation  |                                                 |
\*---------------------------------------------------------------------------*/
FoamFile
{
    version     2.0;
    format      ascii;
    class       pointVectorField;
    location    "800";
    object      pointDisplacement;
}
// * * * * * * * * * * * * * * * * * * * * * * * * * * * * * * * * * * * * * //

dimensions      [0 1 0 0 0 0 0];


internalField   nonuniform List<vector> 
14332
(
(0 0 0)
(-0 -0.069286 -0)
(0 0 0)
(-0 -0.069286 -0)
(0 0 0)
(0 0 0)
(0 0 0)
(0 0 0)
(0 0 0)
(0 0 0)
(0 0 0)
(0 0 0)
(0 0 0)
(0 0 0)
(0 0 0)
(0 0 0)
(0 0 0)
(0 0 0)
(0 0 0)
(0 0 0)
(0 0 0)
(0 0 0)
(0 0 0)
(0 0 0)
(0 0 0)
(0 0 0)
(0 0 0)
(0 0 0)
(0 0 0)
(0 0 0)
(0 0 0)
(0 0 0)
(0 0 0)
(0 0 0)
(0 0 0)
(0 0 0)
(0 0 0)
(0 0 0)
(0 0 0)
(0 0 0)
(0 0 0)
(0 0 0)
(0 0 0)
(0 0 0)
(0 0 0)
(0 0 0)
(0 0 0)
(0 0 0)
(0 0 0)
(0 0 0)
(0 0 0)
(0 0 0)
(0 0 0)
(0 0 0)
(0 0 0)
(0 0 0)
(0 0 0)
(0 0 0)
(0 0 0)
(0 0 0)
(0 0 0)
(0 0 0)
(0 0 0)
(0 0 0)
(0 0 0)
(0 0 0)
(0 0 0)
(0 0 0)
(0 0 0)
(0 0 0)
(0 0 0)
(0 0 0)
(0 0 0)
(0 0 0)
(0 0 0)
(0 0 0)
(0 0 0)
(0 0 0)
(0 0 0)
(0 0 0)
(0 0 0)
(0 0 0)
(0 0 0)
(0 0 0)
(0 0 0)
(0 0 0)
(0 0 0)
(0 0 0)
(0 0 0)
(0 0 0)
(0 0 0)
(0 0 0)
(0 0 0)
(0 0 0)
(0 0 0)
(0 0 0)
(0 0 0)
(0 0 0)
(0 0 0)
(0 0 0)
(0 0 0)
(0 0 0)
(0 0 0)
(0 0 0)
(0 0 0)
(0 0 0)
(0 0 0)
(0 0 0)
(0 0 0)
(0 0 0)
(0 0 0)
(0 0 0)
(0 0 0)
(0 0 0)
(0 0 0)
(0 0 0)
(0 0 0)
(0 0 0)
(0 0 0)
(0 0 0)
(0 0 0)
(0 0 0)
(0 0 0)
(0 0 0)
(0 0 0)
(0 0 0)
(0 0 0)
(0 0 0)
(0 0 0)
(0 0 0)
(0 0 0)
(0 0 0)
(0 0 0)
(0 0 0)
(-0 -0.069286 -0)
(-0 -0.069286 -0)
(-0 -0.069286 -0)
(-0 -0.069286 -0)
(-0 -0.069286 -0)
(-0 -0.069286 -0)
(-0 -0.069286 -0)
(-0 -0.069286 -0)
(-0 -0.069286 -0)
(-0 -0.069286 -0)
(-0 -0.069286 -0)
(-0 -0.069286 -0)
(-0 -0.069286 -0)
(-0 -0.069286 -0)
(-0 -0.069286 -0)
(-0 -0.069286 -0)
(-0 -0.069286 -0)
(-0 -0.069286 -0)
(-0 -0.069286 -0)
(-0 -0.069286 -0)
(-0 -0.069286 -0)
(-0 -0.069286 -0)
(-0 -0.069286 -0)
(-0 -0.069286 -0)
(-0 -0.069286 -0)
(-0 -0.069286 -0)
(-0 -0.069286 -0)
(-0 -0.069286 -0)
(-0 -0.069286 -0)
(-0 -0.069286 -0)
(-0 -0.069286 -0)
(-0 -0.069286 -0)
(-0 -0.069286 -0)
(-0 -0.069286 -0)
(-0 -0.069286 -0)
(-0 -0.069286 -0)
(-0 -0.069286 -0)
(-0 -0.069286 -0)
(-0 -0.069286 -0)
(-0 -0.069286 -0)
(-0 -0.069286 -0)
(-0 -0.069286 -0)
(-0 -0.069286 -0)
(-0 -0.069286 -0)
(-0 -0.069286 -0)
(0 0 0)
(0 0 0)
(0 0 0)
(0 0 0)
(0 0 0)
(0 0 0)
(0 0 0)
(0 0 0)
(0 0 0)
(0 0 0)
(0 0 0)
(0 0 0)
(0 0 0)
(0 0 0)
(0 0 0)
(0 0 0)
(0 0 0)
(0 0 0)
(0 0 0)
(0 0 0)
(0 0 0)
(0 0 0)
(0 0 0)
(0 0 0)
(0 0 0)
(0 0 0)
(0 0 0)
(0 0 0)
(0 0 0)
(0 0 0)
(0 0 0)
(0 0 0)
(0 0 0)
(0 0 0)
(0 0 0)
(0 0 0)
(0 0 0)
(0 0 0)
(0 0 0)
(0 0 0)
(0 0 0)
(0 0 0)
(0 0 0)
(0 0 0)
(0 0 0)
(0 0 0)
(0 0 0)
(0 0 0)
(0 0 0)
(0 0 0)
(0 0 0)
(0 0 0)
(0 0 0)
(0 0 0)
(0 0 0)
(0 0 0)
(0 0 0)
(0 0 0)
(0 0 0)
(0 0 0)
(0 0 0)
(0 0 0)
(0 0 0)
(0 0 0)
(0 0 0)
(0 0 0)
(0 0 0)
(0 0 0)
(0 0 0)
(0 0 0)
(0 0 0)
(0 0 0)
(0 0 0)
(0 0 0)
(0 0 0)
(0 0 0)
(0 0 0)
(0 0 0)
(0 0 0)
(0 0 0)
(0 0 0)
(0 0 0)
(0 0 0)
(0 0 0)
(0 0 0)
(0 0 0)
(0 0 0)
(0 0 0)
(0 0 0)
(0 0 0)
(0 0 0)
(0 0 0)
(0 0 0)
(0 0 0)
(0 0 0)
(0 0 0)
(0 0 0)
(0 0 0)
(0 0 0)
(0 0 0)
(0 0 0)
(0 0 0)
(0 0 0)
(0 0 0)
(0 0 0)
(0 0 0)
(0 0 0)
(0 0 0)
(0 0 0)
(0 0 0)
(0 0 0)
(0 0 0)
(0 0 0)
(0 0 0)
(0 0 0)
(0 0 0)
(0 0 0)
(0 0 0)
(0 0 0)
(0 0 0)
(0 0 0)
(0 0 0)
(0 0 0)
(0 0 0)
(0 0 0)
(0 0 0)
(0 0 0)
(0 0 0)
(0 0 0)
(0 0 0)
(-0 -0.069286 -0)
(-0 -0.069286 -0)
(-0 -0.069286 -0)
(-0 -0.069286 -0)
(-0 -0.069286 -0)
(-0 -0.069286 -0)
(-0 -0.069286 -0)
(-0 -0.069286 -0)
(-0 -0.069286 -0)
(-0 -0.069286 -0)
(-0 -0.069286 -0)
(-0 -0.069286 -0)
(-0 -0.069286 -0)
(-0 -0.069286 -0)
(-0 -0.069286 -0)
(-0 -0.069286 -0)
(-0 -0.069286 -0)
(-0 -0.069286 -0)
(-0 -0.069286 -0)
(-0 -0.069286 -0)
(-0 -0.069286 -0)
(-0 -0.069286 -0)
(-0 -0.069286 -0)
(-0 -0.069286 -0)
(-0 -0.069286 -0)
(-0 -0.069286 -0)
(-0 -0.069286 -0)
(-0 -0.069286 -0)
(-0 -0.069286 -0)
(-0 -0.069286 -0)
(-0 -0.069286 -0)
(-0 -0.069286 -0)
(-0 -0.069286 -0)
(-0 -0.069286 -0)
(-0 -0.069286 -0)
(-0 -0.069286 -0)
(-0 -0.069286 -0)
(-0 -0.069286 -0)
(-0 -0.069286 -0)
(-0 -0.069286 -0)
(-0 -0.069286 -0)
(-0 -0.069286 -0)
(-0 -0.069286 -0)
(-0 -0.069286 -0)
(-0 -0.069286 -0)
(0 -0.0692859 0)
(0 -0.00231341 0)
(0 -0.0692859 0)
(0 -0.0692859 0)
(0 -0.0692859 0)
(0 -0.00266289 0)
(0 -0.0692858 0)
(0 -0.00186762 0)
(0 -0.00115744 0)
(0 -0.000498675 0)
(0 -0.00398096 0)
(0 -0.000821263 0)
(0 -0.00135105 0)
(0 -0.0692859 0)
(0 -0.00379202 0)
(0 -0.00055108 0)
(0 -0.00427303 0)
(0 -0.000551091 0)
(0 -0.00489016 0)
(0 -0.0692858 0)
(0 -0.000483412 0)
(0 -0.000512954 0)
(0 -0.000324547 0)
(0 -0.000317089 0)
(0 -0.000258064 0)
(0 -0.00212681 0)
(0 -0.000881871 0)
(0 -0.0692859 0)
(0 -0.0692859 0)
(0 -0.0692859 0)
(0 -0.000217434 0)
(0 -0.000146608 0)
(0 -0.0036989 0)
(0 -0.00393674 0)
(0 -0.00393456 0)
(0 -0.00494332 0)
(0 -0.00264318 0)
(0 -0.00186645 0)
(0 -0.0011967 0)
(0 -0.000614073 0)
(0 -0.000805574 0)
(0 -0.000490698 0)
(0 -0.000413498 0)
(0 -0.000166887 0)
(0 -0.0692859 0)
(0 -0.0692859 0)
(0 -8.79848e-05 0)
(0 -8.44966e-05 0)
(0 -0.00545816 0)
(0 -0.00311072 0)
(0 -0.00260501 0)
(0 -0.00225868 0)
(0 -0.00185827 0)
(0 -0.00163246 0)
(0 -0.000726998 0)
(0 -0.000982157 0)
(0 -0.00126823 0)
(0 -0.000265065 0)
(0 -0.000951635 0)
(0 -0.000445313 0)
(0 -0.000294959 0)
(0 -0.000262316 0)
(0 -0.000214476 0)
(0 -0.000389847 0)
(0 -4.24278e-05 0)
(0 -0.0650788 0)
(0 -0.0648482 0)
(0 -0.0651974 0)
(0 -0.0649582 0)
(0 -0.0652986 0)
(0 -0.0650504 0)
(0 -0.0653817 0)
(0 -0.065126 0)
(0 -0.065452 0)
(0 -0.0651845 0)
(0 -0.0655034 0)
(0 -0.0652252 0)
(0 -0.0655377 0)
(0 -0.0652494 0)
(0 -0.0655581 0)
(0 -0.0652605 0)
(0 -0.0655612 0)
(0 -0.065265 0)
(0 -0.065542 0)
(0 -0.0652372 0)
(0 -0.0655047 0)
(0 -0.0651608 0)
(0 -0.0654456 0)
(0 -0.0650719 0)
(0 -0.065362 0)
(0 -0.0649794 0)
(0 -0.0652463 0)
(0 -0.0648639 0)
(0 -0.0651362 0)
(0 -0.0647389 0)
(0 -0.0650251 0)
(0 -0.0646009 0)
(0 -0.0648688 0)
(0 -0.0644224 0)
(0 -0.0646756 0)
(0 -0.0641499 0)
(0 -0.0639434 0)
(0 -0.0636636 0)
(0 -0.0204403 0)
(0 -0.0197964 0)
(0 -0.0634366 0)
(0 -0.0631453 0)
(0 -0.0199653 0)
(0 -0.01935 0)
(0 -0.0628978 0)
(0 -0.0625934 0)
(0 -0.0195143 0)
(0 -0.018896 0)
(0 -0.0190653 0)
(0 -0.0184403 0)
(0 -0.0623212 0)
(0 -0.0620089 0)
(0 -0.0185832 0)
(0 -0.0179762 0)
(0 -0.0617081 0)
(0 -0.0613821 0)
(0 -0.0180864 0)
(0 -0.0174979 0)
(0 -0.0173807 0)
(0 -0.0610502 0)
(0 -0.060704 0)
(0 -0.0614105 0)
(0 -0.0175813 0)
(0 -0.0170092 0)
(0 -0.0603364 0)
(0 -0.0599771 0)
(0 -0.0170742 0)
(0 -0.0176129 0)
(0 -0.0165131 0)
(0 -0.065809 0)
(0 -0.0651179 0)
(0 -0.0649223 0)
(0 -0.0653514 0)
(0 -0.0651775 0)
(0 -0.065568 0)
(0 -0.0653875 0)
(0 -0.0657596 0)
(0 -0.0655591 0)
(0 -0.0659355 0)
(0 -0.0657326 0)
(0 -0.0660975 0)
(0 -0.0658872 0)
(0 -0.0662483 0)
(0 -0.0660257 0)
(0 -0.0663776 0)
(0 -0.066153 0)
(0 -0.0664873 0)
(0 -0.0662697 0)
(0 -0.0665909 0)
(0 -0.0663715 0)
(0 -0.0666809 0)
(0 -0.0664578 0)
(0 -0.0667588 0)
(0 -0.0665328 0)
(0 -0.0662118 0)
(0 -0.0662834 0)
(0 -0.0666028 0)
(0 -0.0663532 0)
(0 -0.0666587 0)
(0 -0.0664029 0)
(0 -0.0666993 0)
(0 -0.0664432 0)
(0 -0.0667368 0)
(0 -0.0664604 0)
(0 -0.0667551 0)
(0 -0.0664792 0)
(0 -0.0667583 0)
(0 -0.0665219 0)
(0 -0.0667756 0)
(0 -0.0665368 0)
(0 -0.0667888 0)
(0 -0.0665292 0)
(0 -0.0667793 0)
(0 -0.0665109 0)
(0 -0.0667583 0)
(0 -0.0664883 0)
(0 -0.0667393 0)
(0 -0.066463 0)
(0 -0.0667186 0)
(0 -0.0664344 0)
(0 -0.0666893 0)
(0 -0.0664001 0)
(0 -0.0666543 0)
(0 -0.0663625 0)
(0 -0.0659425 0)
(0 -0.0662399 0)
(0 -0.0661541 0)
(0 -0.0664425 0)
(0 -0.0165592 0)
(0 -0.0160091 0)
(0 -0.0595728 0)
(0 -0.0592108 0)
(0 -0.0669457 0)
(0 -0.0160349 0)
(0 -0.0154966 0)
(0 -0.0587648 0)
(0 -0.0584027 0)
(0 -0.0155012 0)
(0 -0.0149778 0)
(0 -0.0149614 0)
(0 -0.057918 0)
(0 -0.0575518 0)
(0 -0.0149584 0)
(0 -0.0144539 0)
(0 -0.0670599 0)
(0 -0.0570375 0)
(0 -0.0566564 0)
(0 -0.0573575 0)
(0 -0.0669644 0)
(0 -0.014411 0)
(0 -0.0148644 0)
(0 -0.0139271 0)
(0 -0.0561088 0)
(0 -0.0557176 0)
(0 -0.0138697 0)
(0 -0.0133988 0)
(0 -0.0133297 0)
(0 -0.0128694 0)
(0 -0.0551345 0)
(0 -0.0547361 0)
(0 -0.0127933 0)
(0 -0.0123399 0)
(0 -0.0124036 0)
(0 -0.0541111 0)
(0 -0.0537018 0)
(0 -0.0118891 0)
(0 -0.0119487 0)
(0 -0.0118104 0)
(0 -0.0530436 0)
(0 -0.0526445 0)
(0 -0.0532502 0)
(0 -0.0522236 0)
(0 -0.052814 0)
(0 -0.0517925 0)
(0 -0.0523914 0)
(0 -0.0513343 0)
(0 -0.0506918 0)
(0 -0.0502346 0)
(0 -0.0508471 0)
(0 -0.0497793 0)
(0 -0.0113718 0)
(0 -0.0112844 0)
(0 -0.0490863 0)
(0 -0.0486381 0)
(0 -0.049331 0)
(0 -0.0481812 0)
(0 -0.064979 0)
(0 -0.0108739 0)
(0 -0.0107629 0)
(0 -0.0488591 0)
(0 -0.0477041 0)
(0 -0.0469857 0)
(0 -0.046514 0)
(0 -0.0472195 0)
(0 -0.0460257 0)
(0 -0.0467125 0)
(0 -0.0455154 0)
(0 -0.0461686 0)
(0 -0.0449842 0)
(0 -0.045615 0)
(0 -0.0444415 0)
(0 -0.0437691 0)
(0 -0.0432378 0)
(0 -0.0596067 0)
(0 -0.010332 0)
(0 -0.0102408 0)
(0 -0.0438923 0)
(0 -0.0426994 0)
(0 -0.0420027 0)
(0 -0.0414736 0)
(0 -0.0421535 0)
(0 -0.0409383 0)
(0 -0.0415982 0)
(0 -0.040395 0)
(0 -0.0098252 0)
(0 -0.00972403 0)
(0 -0.0101598 0)
(0 -0.039696 0)
(0 -0.0391679 0)
(0 -0.0398454 0)
(0 -0.0386328 0)
(0 -0.039288 0)
(0 -0.038087 0)
(0 -0.0387208 0)
(0 -0.0375319 0)
(0 -0.038144 0)
(0 -0.0369702 0)
(0 -0.0363222 0)
(0 -0.035776 0)
(0 -0.0364057 0)
(0 -0.0352297 0)
(0 -0.00932126 0)
(0 -0.0094531 0)
(0 -0.00920711 0)
(0 -0.0345612 0)
(0 -0.034034 0)
(0 -0.0346807 0)
(0 -0.0335023 0)
(0 -0.0341251 0)
(0 -0.0329627 0)
(0 -0.0335732 0)
(0 -0.0324174 0)
(0 -0.0317882 0)
(0 -0.0312616 0)
(0 -0.0318627 0)
(0 -0.0307298 0)
(0 -0.0313004 0)
(0 -0.0301957 0)
(0 -0.0295855 0)
(0 -0.0290777 0)
(0 -0.0296614 0)
(0 -0.0285675 0)
(0 -0.0291195 0)
(0 -0.0280529 0)
(0 -0.00881569 0)
(0 -0.0086961 0)
(0 -0.0274657 0)
(0 -0.0269789 0)
(0 -0.02754 0)
(0 -0.0264886 0)
(0 -0.0270263 0)
(0 -0.0259953 0)
(0 -0.0265099 0)
(0 -0.0255012 0)
(0 -0.0249581 0)
(0 -0.0244866 0)
(0 -0.0250067 0)
(0 -0.0240128 0)
(0 -0.0245073 0)
(0 -0.0235365 0)
(0 -0.0230192 0)
(0 -0.0225663 0)
(0 -0.0658066 0)
(0 -0.069006 0)
(0 -0.0689575 0)
(0 -0.0689848 0)
(0 -0.0689338 0)
(0 -0.0689604 0)
(0 -0.0689001 0)
(0 -0.0689325 0)
(0 -0.0688746 0)
(0 -0.068903 0)
(0 -0.0688417 0)
(0 -0.0688708 0)
(0 -0.0689292 0)
(0 -0.0688978 0)
(0 -0.0689534 0)
(0 -0.0689188 0)
(0 -0.068975 0)
(0 -0.0689371 0)
(0 -0.0689904 0)
(0 -0.068952 0)
(0 -0.069001 0)
(0 -0.068961 0)
(0 -0.0690096 0)
(0 -0.068968 0)
(0 -0.0690156 0)
(0 -0.0689153 0)
(0 -0.0688113 0)
(0 -0.0689719 0)
(0 -0.0690184 0)
(0 -0.0083275 0)
(0 -0.00819174 0)
(0 -0.0688076 0)
(0 -0.0467562 0)
(0 -0.022025 0)
(0 -0.0215962 0)
(0 -0.0534269 0)
(0 -0.0240055 0)
(0 -0.0689738 0)
(0 -0.069018 0)
(0 -0.0384282 0)
(0 -0.0457521 0)
(0 -0.0078469 0)
(0 -0.00769204 0)
(0 -0.00805977 0)
(0 -0.0523108 0)
(0 -0.0526711 0)
(0 -0.051505 0)
(0 -0.051848 0)
(0 -0.0506248 0)
(0 -0.0509551 0)
(0 -0.0496666 0)
(0 -0.0499694 0)
(0 -0.0486184 0)
(0 -0.0488841 0)
(0 -0.0690506 0)
(0 -0.0689711 0)
(0 -0.069014 0)
(0 -0.021031 0)
(0 -0.0206267 0)
(0 -0.065644 0)
(0 -0.0392993 0)
(0 -0.0474632 0)
(0 -0.0477091 0)
(0 -0.0491429 0)
(0 -0.0479402 0)
(0 -0.0493691 0)
(0 -0.0481415 0)
(0 -0.0495695 0)
(0 -0.0483207 0)
(0 -0.0497498 0)
(0 -0.0484776 0)
(0 -0.049904 0)
(0 -0.0486032 0)
(0 -0.0500294 0)
(0 -0.0486949 0)
(0 -0.0501288 0)
(0 -0.0487614 0)
(0 -0.0501959 0)
(0 -0.0487982 0)
(0 -0.0502319 0)
(0 -0.0488039 0)
(0 -0.0502383 0)
(0 -0.0487777 0)
(0 -0.0502143 0)
(0 -0.0487228 0)
(0 -0.050158 0)
(0 -0.00735394 0)
(0 -0.00753179 0)
(0 -0.00719349 0)
(0 -0.048642 0)
(0 -0.0500737 0)
(0 -0.0689632 0)
(0 -0.0690061 0)
(0 -0.0689169 0)
(0 -0.0485326 0)
(0 -0.0499603 0)
(0 -0.0200391 0)
(0 -0.0196599 0)
(0 -0.020221 0)
(0 -0.0192778 0)
(0 -0.0483962 0)
(0 -0.0498145 0)
(0 -0.00686882 0)
(0 -0.00670226 0)
(0 -0.0462202 0)
(0 -0.0689531 0)
(0 -0.0689945 0)
(0 -0.0482159 0)
(0 -0.0496333 0)
(0 -0.0514049 0)
(0 -0.0198126 0)
(0 -0.0188909 0)
(0 -0.0183384 0)
(0 -0.0179741 0)
(0 -0.0479968 0)
(0 -0.0494245 0)
(0 -0.0690359 0)
(0 -0.051548 0)
(0 -0.0174046 0)
(0 -0.0170668 0)
(0 -0.0477574 0)
(0 -0.0491939 0)
(0 -0.0507852 0)
(0 -0.0505693 0)
(0 -0.0489436 0)
(0 -0.0503571 0)
(0 -0.0486729 0)
(0 -0.0500949 0)
(0 -0.0483693 0)
(0 -0.0497961 0)
(0 -0.0689397 0)
(0 -0.06898 0)
(0 -0.0690287 0)
(0 -0.0690157 0)
(0 -0.068963 0)
(0 -0.0689981 0)
(0 -0.0690487 0)
(0 -0.0690299 0)
(0 -0.0689766 0)
(0 -0.0690061 0)
(0 -0.0690566 0)
(0 -0.0690328 0)
(0 -0.0690782 0)
(0 -0.0690565 0)
(0 -0.0690975 0)
(0 -0.0690773 0)
(0 -0.0691131 0)
(0 -0.0690943 0)
(0 -0.0691271 0)
(0 -0.0691086 0)
(0 -0.0691408 0)
(0 -0.0691209 0)
(0 -0.0691509 0)
(0 -0.0691311 0)
(0 -0.0691586 0)
(0 -0.0691397 0)
(0 -0.0691655 0)
(0 -0.0691466 0)
(0 -0.0691717 0)
(0 -0.0691532 0)
(0 -0.0691769 0)
(0 -0.0691596 0)
(0 -0.0691813 0)
(0 -0.0691646 0)
(0 -0.0691853 0)
(0 -0.0691691 0)
(0 -0.0691889 0)
(0 -0.0691733 0)
(0 -0.0691923 0)
(0 -0.0691766 0)
(0 -0.0691945 0)
(0 -0.0691794 0)
(0 -0.0691963 0)
(0 -0.0691815 0)
(0 -0.0691982 0)
(0 -0.0691832 0)
(0 -0.0691627 0)
(0 -0.0691472 0)
(0 -0.0691106 0)
(0 -0.0690576 0)
(0 -0.0689504 0)
(0 -0.0692131 0)
(0 -0.0692065 0)
(0 -0.0480319 0)
(0 -0.049441 0)
(0 -0.0514986 0)
(0 -0.0469663 0)
(0 -0.00639775 0)
(0 -0.00622972 0)
(0 -0.0476567 0)
(0 -0.0490511 0)
(0 -0.0184883 0)
(0 -0.0197565 0)
(0 -0.0472514 0)
(0 -0.0486638 0)
(0 -0.069193 0)
(0 -0.0164779 0)
(0 -0.0161665 0)
(0 -0.00593844 0)
(0 -0.00576884 0)
(0 -0.00603155 0)
(0 -0.0472627 0)
(0 -0.0691356 0)
(0 -0.0690596 0)
(0 -0.00549118 0)
(0 -0.00563845 0)
(0 -0.0155595 0)
(0 -0.0152727 0)
(0 -0.00531743 0)
(0 -0.0471114 0)
(0 -0.0648545 0)
(0 -0.0146505 0)
(0 -0.0143892 0)
(0 -0.0149076 0)
(0 -0.0149819 0)
(0 -0.0141227 0)
(0 -0.014687 0)
(0 -0.013851 0)
(0 -0.00505602 0)
(0 -0.00488122 0)
(0 -0.0143876 0)
(0 -0.0135745 0)
(0 -0.0130258 0)
(0 -0.0127728 0)
(0 -0.0459942 0)
(0 -0.0446729 0)
(0 -0.0444705 0)
(0 -0.0430643 0)
(0 -0.0428695 0)
(0 -0.0413798 0)
(0 -0.0411933 0)
(0 -0.0464994 0)
(0 -0.0622913 0)
(0 -0.0669691 0)
(0 -0.0396419 0)
(0 -0.0394705 0)
(0 -0.0122125 0)
(0 -0.0119829 0)
(0 -0.0125153 0)
(0 -0.0117484 0)
(0 -0.0465716 0)
(0 -0.0046346 0)
(0 -0.00446011 0)
(0 -0.0112058 0)
(0 -0.010994 0)
(0 -0.0204161 0)
(0 -0.0378655 0)
(0 -0.0377107 0)
(0 -0.0380179 0)
(0 -0.0139828 0)
(0 -0.0142077 0)
(0 -0.0122546 0)
(0 -0.00422615 0)
(0 -0.00405492 0)
(0 -0.00425222 0)
(0 -0.0104422 0)
(0 -0.0102527 0)
(0 -0.0360292 0)
(0 -0.0359027 0)
(0 -0.0655529 0)
(0 -0.0132679 0)
(0 -0.0134577 0)
(0 -0.00383294 0)
(0 -0.00399277 0)
(0 -0.00365581 0)
(0 -0.00969298 0)
(0 -0.00952531 0)
(0 -0.056028 0)
(0 -0.0555716 0)
(0 -0.0562465 0)
(0 -0.055775 0)
(0 -0.056438 0)
(0 -0.0559551 0)
(0 -0.0566901 0)
(0 -0.0561072 0)
(0 -0.0567678 0)
(0 -0.0562025 0)
(0 -0.0568438 0)
(0 -0.0562707 0)
(0 -0.0555598 0)
(0 -0.0568945 0)
(0 -0.0563083 0)
(0 -0.056916 0)
(0 -0.0562932 0)
(0 -0.0569034 0)
(0 -0.0575328 0)
(0 -0.0562484 0)
(0 -0.0575118 0)
(0 -0.0581329 0)
(0 -0.058101 0)
(0 -0.058712 0)
(0 -0.0341405 0)
(0 -0.0340478 0)
(0 -0.0659364 0)
(0 -0.0691761 0)
(0 -0.0510908 0)
(0 -0.00341587 0)
(0 -0.0032725 0)
(0 -0.0125051 0)
(0 -0.012659 0)
(0 -0.00895944 0)
(0 -0.00881333 0)
(0 -0.00935079 0)
(0 -0.00865914 0)
(0 -0.00909761 0)
(0 -0.00916893 0)
(0 -0.00849725 0)
(0 -0.00798349 0)
(0 -0.00784157 0)
(0 -0.057151 0)
(0 -0.00898 0)
(0 -0.0685557 0)
(0 -0.068457 0)
(0 -0.0685439 0)
(0 -0.0586705 0)
(0 -0.0592713 0)
(0 -0.0274999 0)
(0 -0.0347211 0)
(0 -0.0132342 0)
(0 -0.0187125 0)
(0 -0.0263599 0)
(0 -0.0580437 0)
(0 -0.0342739 0)
(0 -0.0283534 0)
(0 -0.0255762 0)
(0 -0.0333293 0)
(0 -0.052089 0)
(0 -0.0322099 0)
(0 -0.0321527 0)
(0 -0.033931 0)
(0 -0.0320725 0)
(0 -0.0337975 0)
(0 -0.0319708 0)
(0 -0.0336416 0)
(0 -0.0318371 0)
(0 -0.033461 0)
(0 -0.0316759 0)
(0 -0.0299905 0)
(0 -0.0298571 0)
(0 -0.0315116 0)
(0 -0.0297227 0)
(0 -0.0322405 0)
(0 -0.0651339 0)
(0 -0.0302282 0)
(0 -0.0556388 0)
(0 -0.0555582 0)
(0 -0.0549334 0)
(0 -0.0548259 0)
(0 -0.0541856 0)
(0 -0.00711127 0)
(0 -0.00761474 0)
(0 -0.00725671 0)
(0 -0.0067562 0)
(0 -0.00689207 0)
(0 -0.00738914 0)
(0 -0.00701504 0)
(0 -0.00652176 0)
(0 -0.00663623 0)
(0 -0.00750746 0)
(0 -0.00614636 0)
(0 -0.0062534 0)
(0 -0.0057667 0)
(0 -0.00586728 0)
(0 -0.00634738 0)
(0 -0.00595472 0)
(0 -0.00565398 0)
(0 -0.00642727 0)
(0 -0.00602834 0)
(0 -0.00306083 0)
(0 -0.00556057 0)
(0 -0.00562886 0)
(0 -0.00291359 0)
(0 -0.0030782 0)
(0 -0.0280036 0)
(0 -0.0279066 0)
(0 -0.0295736 0)
(0 -0.027793 0)
(0 -0.0660933 0)
(0 -0.0453227 0)
(0 -0.0662555 0)
(0 -0.0661006 0)
(0 -0.0647211 0)
(0 -0.068443 0)
(0 -0.0685311 0)
(0 -0.00732446 0)
(0 -0.00720223 0)
(0 -0.0645918 0)
(0 -0.0116938 0)
(0 -0.0118164 0)
(0 -0.0686241 0)
(0 -0.0686113 0)
(0 -0.0685172 0)
(0 -0.0685972 0)
(0 -0.0685015 0)
(0 -0.0685831 0)
(0 -0.0684822 0)
(0 -0.0685652 0)
(0 -0.0684569 0)
(0 -0.0685428 0)
(0 -0.0688738 0)
(0 -0.0294065 0)
(0 -0.0276602 0)
(0 -0.05922 0)
(0 -0.0598098 0)
(0 -0.0259955 0)
(0 -0.0259004 0)
(0 -0.0275147 0)
(0 -0.0257852 0)
(0 -0.0273524 0)
(0 -0.0256516 0)
(0 -0.0271798 0)
(0 -0.0255079 0)
(0 -0.0239401 0)
(0 -0.0238334 0)
(0 -0.0253526 0)
(0 -0.0237118 0)
(0 -0.0684294 0)
(0 -0.0685176 0)
(0 -0.00649226 0)
(0 -0.00272749 0)
(0 -0.00286499 0)
(0 -0.0128029 0)
(0 -0.0119291 0)
(0 -0.0129355 0)
(0 -0.0120235 0)
(0 -0.0130622 0)
(0 -0.0121027 0)
(0 -0.013181 0)
(0 -0.00516575 0)
(0 -0.00522972 0)
(0 -0.0121694 0)
(0 -0.0132839 0)
(0 -0.0251809 0)
(0 -0.0235717 0)
(0 -0.0220869 0)
(0 -0.021963 0)
(0 -0.0234177 0)
(0 -0.0218422 0)
(0 -0.0232498 0)
(0 -0.0217103 0)
(0 -0.0230673 0)
(0 -0.0215631 0)
(0 -0.0201705 0)
(0 -0.0200604 0)
(0 -0.0214038 0)
(0 -0.019937 0)
(0 -0.0212322 0)
(0 -0.0197997 0)
(0 -0.0025686 0)
(0 -0.018479 0)
(0 -0.0183756 0)
(0 -0.0196496 0)
(0 -0.0182583 0)
(0 -0.0540618 0)
(0 -0.0534152 0)
(0 -0.0552838 0)
(0 -0.0122249 0)
(0 -0.00668305 0)
(0 -0.00658011 0)
(0 -0.00707121 0)
(0 -0.00646751 0)
(0 -0.00693111 0)
(0 -0.00634558 0)
(0 -0.0597463 0)
(0 -0.0058819 0)
(0 -0.00577771 0)
(0 -0.0656192 0)
(0 -0.0603279 0)
(0 -0.0603736 0)
(0 -0.0679094 0)
(0 -0.0677388 0)
(0 -0.0678312 0)
(0 -0.0676557 0)
(0 -0.0677479 0)
(0 -0.0686969 0)
(0 -0.0241909 0)
(0 -0.0692673 0)
(0 -0.0692594 0)
(0 -0.0692639 0)
(0 -0.0692564 0)
(0 -0.0692609 0)
(0 -0.0692532 0)
(0 -0.069258 0)
(0 -0.0692491 0)
(0 -0.0692544 0)
(0 -0.0692441 0)
(0 -0.0692496 0)
(0 -0.0692591 0)
(0 -0.0692544 0)
(0 -0.0692628 0)
(0 -0.0692584 0)
(0 -0.0692383 0)
(0 -0.0692659 0)
(0 -0.0692618 0)
(0 -0.0692532 0)
(0 -0.0692567 0)
(0 -0.0692656 0)
(0 -0.0692596 0)
(0 -0.0692503 0)
(0 -0.0692534 0)
(0 -0.0692619 0)
(0 -0.0692559 0)
(0 -0.0692639 0)
(0 -0.0692578 0)
(0 -0.0692653 0)
(0 -0.0692589 0)
(0 -0.069266 0)
(0 -0.0692592 0)
(0 -0.0692661 0)
(0 -0.0692588 0)
(0 -0.0692654 0)
(0 -0.0692437 0)
(0 -0.0692667 0)
(0 -0.069258 0)
(0 -0.0692639 0)
(0 -0.0692505 0)
(0 -0.0692501 0)
(0 -0.0692429 0)
(0 -0.0683969 0)
(0 -0.0684882 0)
(0 -0.0194791 0)
(0 -0.0169589 0)
(0 -0.0108484 0)
(0 -0.00477128 0)
(0 -0.00483181 0)
(0 -0.00528005 0)
(0 -0.00487896 0)
(0 -0.0409081 0)
(0 -0.067557 0)
(0 -0.00240643 0)
(0 -0.00224575 0)
(0 -0.0204166 0)
(0 -0.0686702 0)
(0 -0.0684018 0)
(0 -0.0683638 0)
(0 -0.0684564 0)
(0 -0.0602542 0)
(0 -0.0596504 0)
(0 -0.00678245 0)
(0 -0.0674674 0)
(0 -0.00531596 0)
(0 -0.00491201 0)
(0 -0.00448083 0)
(0 -0.00451213 0)
(0 -0.069256 0)
(0 -0.0692615 0)
(0 -0.068332 0)
(0 -0.0684202 0)
(0 -0.0682931 0)
(0 -0.0683778 0)
(0 -0.060878 0)
(0 -0.0609063 0)
(0 -0.0574144 0)
(0 -0.00531476 0)
(0 -0.0052281 0)
(0 -0.0168766 0)
(0 -0.0155486 0)
(0 -0.0532712 0)
(0 -0.0526251 0)
(0 -0.0527665 0)
(0 -0.0519694 0)
(0 -0.0521026 0)
(0 -0.0513023 0)
(0 -0.0514291 0)
(0 -0.0506174 0)
(0 -0.0507413 0)
(0 -0.0499424 0)
(0 -0.0500249 0)
(0 -0.0492539 0)
(0 -0.0492931 0)
(0 -0.0485063 0)
(0 -0.0485536 0)
(0 -0.047752 0)
(0 -0.0478055 0)
(0 -0.0470081 0)
(0 -0.0539079 0)
(0 -0.0470464 0)
(0 -0.0462529 0)
(0 -0.0476495 0)
(0 -0.0462773 0)
(0 -0.0454893 0)
(0 -0.0454335 0)
(0 -0.0446742 0)
(0 -0.0447177 0)
(0 -0.0439078 0)
(0 -0.0500812 0)
(0 -0.0497208 0)
(0 -0.0439382 0)
(0 -0.0431338 0)
(0 -0.0430781 0)
(0 -0.0423094 0)
(0 -0.0423552 0)
(0 -0.0415408 0)
(0 -0.0415735 0)
(0 -0.0407697 0)
(0 -0.0407892 0)
(0 -0.0399892 0)
(0 -0.0399979 0)
(0 -0.0392046 0)
(0 -0.0391706 0)
(0 -0.0383946 0)
(0 -0.0384242 0)
(0 -0.0376223 0)
(0 -0.0375621 0)
(0 -0.0367984 0)
(0 -0.0414664 0)
(0 -0.0368533 0)
(0 -0.0360394 0)
(0 -0.0359544 0)
(0 -0.0352088 0)
(0 -0.0352804 0)
(0 -0.0344639 0)
(0 -0.0345198 0)
(0 -0.0337192 0)
(0 -0.0337607 0)
(0 -0.0329757 0)
(0 -0.0330039 0)
(0 -0.032234 0)
(0 -0.0322495 0)
(0 -0.0314951 0)
(0 -0.0107459 0)
(0 -0.0352114 0)
(0 -0.00989482 0)
(0 -0.0679144 0)
(0 -0.0678295 0)
(0 -0.00408657 0)
(0 -0.00411703 0)
(0 -0.0682453 0)
(0 -0.0683301 0)
(0 -0.067361 0)
(0 -0.0249511 0)
(0 -0.0244269 0)
(0 -0.0253469 0)
(0 -0.0248012 0)
(0 -0.0256955 0)
(0 -0.0251292 0)
(0 -0.0685957 0)
(0 -0.00527679 0)
(0 -0.00515837 0)
(0 -0.00478284 0)
(0 -0.00465902 0)
(0 -0.00677666 0)
(0 -0.00613413 0)
(0 -0.00619755 0)
(0 -0.0336356 0)
(0 -0.0110991 0)
(0 -0.00209151 0)
(0 -0.00194197 0)
(0 -0.00206688 0)
(0 -0.0288516 0)
(0 -0.0692688 0)
(0 -0.0692664 0)
(0 -0.0692575 0)
(0 -0.0692638 0)
(0 -0.0692704 0)
(0 -0.0692674 0)
(0 -0.0692731 0)
(0 -0.0692703 0)
(0 -0.069275 0)
(0 -0.0692725 0)
(0 -0.0692766 0)
(0 -0.0692743 0)
(0 -0.0692778 0)
(0 -0.0692757 0)
(0 -0.0692789 0)
(0 -0.0692768 0)
(0 -0.069273 0)
(0 -0.0692743 0)
(0 -0.0692777 0)
(0 -0.0692754 0)
(0 -0.0692785 0)
(0 -0.0692764 0)
(0 -0.0692792 0)
(0 -0.0692772 0)
(0 -0.0692797 0)
(0 -0.0692779 0)
(0 -0.0692802 0)
(0 -0.0692785 0)
(0 -0.0692806 0)
(0 -0.0692789 0)
(0 -0.0692809 0)
(0 -0.0692793 0)
(0 -0.0692812 0)
(0 -0.0692796 0)
(0 -0.0692815 0)
(0 -0.06928 0)
(0 -0.0692818 0)
(0 -0.0692804 0)
(0 -0.0692782 0)
(0 -0.0692786 0)
(0 -0.0692807 0)
(0 -0.069279 0)
(0 -0.0692809 0)
(0 -0.0692792 0)
(0 -0.0692812 0)
(0 -0.0692796 0)
(0 -0.0692762 0)
(0 -0.0692767 0)
(0 -0.069275 0)
(0 -0.06927 0)
(0 -0.0692607 0)
(0 -0.00981611 0)
(0 -0.0679851 0)
(0 -0.0679018 0)
(0 -0.0677352 0)
(0 -0.0678071 0)
(0 -0.067968 0)
(0 -0.0678705 0)
(0 -0.0680268 0)
(0 -0.0679252 0)
(0 -0.0680766 0)
(0 -0.0679715 0)
(0 -0.0681183 0)
(0 -0.0680088 0)
(0 -0.068152 0)
(0 -0.0680384 0)
(0 -0.0678844 0)
(0 -0.0679101 0)
(0 -0.0680601 0)
(0 -0.0679283 0)
(0 -0.0680746 0)
(0 -0.0679384 0)
(0 -0.0680824 0)
(0 -0.0679398 0)
(0 -0.0680804 0)
(0 -0.0677945 0)
(0 -0.0677629 0)
(0 -0.0677469 0)
(0 -0.0679325 0)
(0 -0.0680682 0)
(0 -0.0314496 0)
(0 -0.0307313 0)
(0 -0.03076 0)
(0 -0.0300189 0)
(0 -0.0610737 0)
(0 -0.0679152 0)
(0 -0.0680475 0)
(0 -0.00533676 0)
(0 -0.0616024 0)
(0 -0.0692704 0)
(0 -0.068348 0)
(0 -0.0613941 0)
(0 -0.0521777 0)
(0 -0.0601484 0)
(0 -0.0595212 0)
(0 -0.0530874 0)
(0 -0.053711 0)
(0 -0.0692823 0)
(0 -0.0245719 0)
(0 -0.0155073 0)
(0 -0.0672643 0)
(0 -0.0047669 0)
(0 -0.00469756 0)
(0 -0.00513142 0)
(0 -0.0046173 0)
(0 -0.0684968 0)
(0 -0.0692813 0)
(0 -0.06715 0)
(0 -0.0300286 0)
(0 -0.0292957 0)
(0 -0.00895642 0)
(0 -0.00890687 0)
(0 -0.0141519 0)
(0 -0.0141474 0)
(0 -0.0041864 0)
(0 -0.00412248 0)
(0 -0.00452651 0)
(0 -0.00404727 0)
(0 -0.00178499 0)
(0 -0.00191878 0)
(0 -0.067888 0)
(0 -0.0680191 0)
(0 -0.0677466 0)
(0 -0.0681689 0)
(0 -0.0681393 0)
(0 -0.0679834 0)
(0 -0.0681023 0)
(0 -0.0692829 0)
(0 -0.0229333 0)
(0 -0.00428437 0)
(0 -0.00415571 0)
(0 -0.00555489 0)
(0 -0.00558688 0)
(0 -0.049377 0)
(0 -0.0242569 0)
(0 -0.0245649 0)
(0 -0.0237136 0)
(0 -0.0240024 0)
(0 -0.0231707 0)
(0 -0.0234408 0)
(0 -0.0226291 0)
(0 -0.0228804 0)
(0 -0.0220886 0)
(0 -0.0223213 0)
(0 -0.0215498 0)
(0 -0.021765 0)
(0 -0.0210141 0)
(0 -0.0225136 0)
(0 -0.0219407 0)
(0 -0.0226659 0)
(0 -0.0220779 0)
(0 -0.0227796 0)
(0 -0.0233865 0)
(0 -0.0234755 0)
(0 -0.0228553 0)
(0 -0.0132817 0)
(0 -0.0127388 0)
(0 -0.0128945 0)
(0 -0.0122973 0)
(0 -0.0124979 0)
(0 -0.0119549 0)
(0 -0.0121127 0)
(0 -0.0115875 0)
(0 -0.0117144 0)
(0 -0.0111968 0)
(0 -0.0113064 0)
(0 -0.0036972 0)
(0 -0.00372772 0)
(0 -0.00365323 0)
(0 -0.00413326 0)
(0 -0.00374406 0)
(0 -0.00163906 0)
(0 -0.0631828 0)
(0 -0.068191 0)
(0 -0.0682782 0)
(0 -0.0682032 0)
(0 -0.0612483 0)
(0 -0.0617658 0)
(0 -0.0607148 0)
(0 -0.0293009 0)
(0 -0.068194 0)
(0 -0.0235262 0)
(0 -0.068249 0)
(0 -0.0682926 0)
(0 -0.0528594 0)
(0 -0.0534705 0)
(0 -0.0141494 0)
(0 -0.0154416 0)
(0 -0.0478235 0)
(0 -0.0692773 0)
(0 -0.0045255 0)
(0 -0.00401804 0)
(0 -0.00438233 0)
(0 -0.00387184 0)
(0 -0.00423181 0)
(0 -0.00803707 0)
(0 -0.00801936 0)
(0 -0.0081209 0)
(0 -0.0228936 0)
(0 -0.00334526 0)
(0 -0.00336306 0)
(0 -0.00374574 0)
(0 -0.00336643 0)
(0 -0.0138383 0)
(0 -0.0679374 0)
(0 -0.0285853 0)
(0 -0.0285708 0)
(0 -0.0306603 0)
(0 -0.0207771 0)
(0 -0.0202614 0)
(0 -0.0107892 0)
(0 -0.0108933 0)
(0 -0.0200031 0)
(0 -0.0195076 0)
(0 -0.0197481 0)
(0 -0.019014 0)
(0 -0.0192367 0)
(0 -0.0185217 0)
(0 -0.0182797 0)
(0 -0.017807 0)
(0 -0.0180315 0)
(0 -0.0173363 0)
(0 -0.0170936 0)
(0 -0.0166426 0)
(0 -0.0163815 0)
(0 -0.0159509 0)
(0 -0.0175436 0)
(0 -0.0036476 0)
(0 -0.00358758 0)
(0 -0.014283 0)
(0 -0.00150326 0)
(0 -0.0345328 0)
(0 -0.0127695 0)
(0 -0.0692805 0)
(0 -0.0415723 0)
(0 -0.0144243 0)
(0 -0.0128051 0)
(0 -0.0608787 0)
(0 -0.0600114 0)
(0 -0.060629 0)
(0 -0.0593612 0)
(0 -0.0312595 0)
(0 -0.0681303 0)
(0 -0.00137033 0)
(0 -0.0682102 0)
(0 -0.0683486 0)
(0 -0.0682115 0)
(0 -0.0670474 0)
(0 -0.0669249 0)
(0 -0.011825 0)
(0 -0.0152084 0)
(0 -0.00964692 0)
(0 -0.00943177 0)
(0 -0.010093 0)
(0 -0.00985283 0)
(0 -0.0105075 0)
(0 -0.0102437 0)
(0 -0.010891 0)
(0 -0.0106049 0)
(0 -0.0112436 0)
(0 -0.00997599 0)
(0 -0.0533735 0)
(0 -0.00442509 0)
(0 -0.00378134 0)
(0 -0.0156703 0)
(0 -0.0152667 0)
(0 -0.00299103 0)
(0 -0.00299691 0)
(0 -0.0103632 0)
(0 -0.0104642 0)
(0 -0.0432624 0)
(0 -0.0604843 0)
(0 -0.0610898 0)
(0 -0.0194008 0)
(0 -0.0197487 0)
(0 -0.0235401 0)
(0 -0.00494506 0)
(0 -0.00494466 0)
(0 -0.0525887 0)
(0 -0.0519776 0)
(0 -0.0531895 0)
(0 -0.0540645 0)
(0 -0.0228946 0)
(0 -0.0222668 0)
(0 -0.0102581 0)
(0 -0.00319291 0)
(0 -0.00314789 0)
(0 -0.0614071 0)
(0 -0.0618799 0)
(0 -0.00713168 0)
(0 -0.007154 0)
(0 -0.0155244 0)
(0 -0.0148764 0)
(0 -0.0609344 0)
(0 -0.0109366 0)
(0 -0.00994817 0)
(0 -0.0100331 0)
(0 -0.00954214 0)
(0 -0.00960512 0)
(0 -0.0603342 0)
(0 -0.0146018 0)
(0 -0.0241997 0)
(0 -0.0692695 0)
(0 -0.0114009 0)
(0 -0.011476 0)
(0 -0.0115653 0)
(0 -0.00887406 0)
(0 -0.00373229 0)
(0 -0.0248303 0)
(0 -0.00124922 0)
(0 -0.0617099 0)
(0 -0.0611443 0)
(0 -0.0618818 0)
(0 -0.0613182 0)
(0 -0.0620376 0)
(0 -0.0614755 0)
(0 -0.0621825 0)
(0 -0.0616218 0)
(0 -0.0623107 0)
(0 -0.0617551 0)
(0 -0.0624231 0)
(0 -0.0618747 0)
(0 -0.0625236 0)
(0 -0.0619762 0)
(0 -0.0626103 0)
(0 -0.0620613 0)
(0 -0.0614029 0)
(0 -0.0614712 0)
(0 -0.0621347 0)
(0 -0.0615128 0)
(0 -0.0621894 0)
(0 -0.061569 0)
(0 -0.0621895 0)
(0 -0.0615984 0)
(0 -0.0621818 0)
(0 -0.0616145 0)
(0 -0.062214 0)
(0 -0.061626 0)
(0 -0.0622392 0)
(0 -0.0616189 0)
(0 -0.0622402 0)
(0 -0.0615877 0)
(0 -0.0609382 0)
(0 -0.060899 0)
(0 -0.0615399 0)
(0 -0.0608437 0)
(0 -0.0614703 0)
(0 -0.0607672 0)
(0 -0.0613831 0)
(0 -0.0606695 0)
(0 -0.0607161 0)
(0 -0.0609518 0)
(0 -0.0608819 0)
(0 -0.0602134 0)
(0 -0.061275 0)
(0 -0.0605506 0)
(0 -0.0599104 0)
(0 -0.0597855 0)
(0 -0.0590987 0)
(0 -0.0589717 0)
(0 -0.0620584 0)
(0 -0.0611423 0)
(0 -0.0628434 0)
(0 -0.0625663 0)
(0 -0.058239 0)
(0 -0.0581072 0)
(0 -0.0588266 0)
(0 -0.0579541 0)
(0 -0.0627532 0)
(0 -0.0630057 0)
(0 -0.0586607 0)
(0 -0.0577791 0)
(0 -0.0583534 0)
(0 -0.057444 0)
(0 -0.0575455 0)
(0 -0.00113734 0)
(0 -0.00124978 0)
(0 -0.00560739 0)
(0 -0.00493149 0)
(0 -0.00561548 0)
(0 -0.00490466 0)
(0 -0.0683075 0)
(0 -0.0684387 0)
(0 -0.0684698 0)
(0 -0.00390596 0)
(0 -0.00262859 0)
(0 -0.00263797 0)
(0 -0.011444 0)
(0 -0.0292681 0)
(0 -0.0285245 0)
(0 -0.0537695 0)
(0 -0.0546156 0)
(0 -0.00340243 0)
(0 -0.00352437 0)
(0 -0.0522033 0)
(0 -0.0618766 0)
(0 -0.0623368 0)
(0 -0.0623372 0)
(0 -0.0587255 0)
(0 -0.0279095 0)
(0 -0.0284961 0)
(0 -0.0033571 0)
(0 -0.0627792 0)
(0 -0.0627628 0)
(0 -0.0627751 0)
(0 -0.0680342 0)
(0 -0.0679658 0)
(0 -0.00911909 0)
(0 -0.00917049 0)
(0 -0.00964426 0)
(0 -0.00920159 0)
(0 -0.0516729 0)
(0 -0.0510708 0)
(0 -0.00574703 0)
(0 -0.00575555 0)
(0 -0.00617241 0)
(0 -0.00616877 0)
(0 -0.00659263 0)
(0 -0.00574737 0)
(0 -0.00275903 0)
(0 -0.0027289 0)
(0 -0.00309095 0)
(0 -0.00268618 0)
(0 -0.00277672 0)
(0 -0.0112381 0)
(0 -0.0118571 0)
(0 -0.00561045 0)
(0 -0.00486351 0)
(0 -0.0235153 0)
(0 -0.0228587 0)
(0 -0.0150971 0)
(0 -0.0584752 0)
(0 -0.0575846 0)
(0 -0.0568452 0)
(0 -0.0593094 0)
(0 -0.011548 0)
(0 -0.0100518 0)
(0 -0.0101668 0)
(0 -0.00991761 0)
(0 -0.068058 0)
(0 -0.00227677 0)
(0 -0.0022907 0)
(0 -0.0026331 0)
(0 -0.00229063 0)
(0 -0.0160846 0)
(0 -0.00624958 0)
(0 -0.0671626 0)
(0 -0.0669396 0)
(0 -0.067052 0)
(0 -0.00101513 0)
(0 -0.00111048 0)
(0 -0.0609382 0)
(0 -0.0615313 0)
(0 -0.0588609 0)
(0 -0.0586736 0)
(0 -0.000913596 0)
(0 -0.00302185 0)
(0 -0.00263102 0)
(0 -0.00230254 0)
(0 -0.00226106 0)
(0 -0.0022494 0)
(0 -0.0683964 0)
(0 -0.0685185 0)
(0 -0.00430485 0)
(0 -0.00432586 0)
(0 -0.00614694 0)
(0 -0.00572208 0)
(0 -0.0187111 0)
(0 -0.0190321 0)
(0 -0.0200945 0)
(0 -0.0193501 0)
(0 -0.0204333 0)
(0 -0.0196541 0)
(0 -0.0207655 0)
(0 -0.0199469 0)
(0 -0.0210933 0)
(0 -0.0202355 0)
(0 -0.0214136 0)
(0 -0.00873643 0)
(0 -0.00875869 0)
(0 -0.0604846 0)
(0 -0.00302019 0)
(0 -0.00314116 0)
(0 -0.00289205 0)
(0 -0.0543237 0)
(0 -0.0690989 0)
(0 -0.0566441 0)
(0 -0.0558565 0)
(0 -0.0668215 0)
(0 -0.0669283 0)
(0 -0.0690106 0)
(0 -0.0670315 0)
(0 -0.0599282 0)
(0 -0.0291909 0)
(0 -0.0691582 0)
(0 -0.0223404 0)