/*--------------------------------*- C++ -*----------------------------------*\
| =========                 |                                                 |
| \\      /  F ield         | OpenFOAM: The Open Source CFD Toolbox           |
|  \\    /   O peration     | Version:  v2012                                 |
|   \\  /    A nd           | Website:  www.openfoam.com                      |
|    \\/     M anipulation  |                                                 |
\*---------------------------------------------------------------------------*/
FoamFile
{
    version     2.0;
    format      ascii;
    class       surfaceVectorField;
    location    "150";
    object      Uf_0;
}
// * * * * * * * * * * * * * * * * * * * * * * * * * * * * * * * * * * * * * //

dimensions      [0 1 -1 0 0 0 0];


internalField   nonuniform List<vector> 
20673
(
(1.09616 0.119596 0)
(1.10029 0.116928 0)
(1.09544 0.114497 -1.25953e-20)
(1.02061 0.03986 1.27983e-21)
(1.01942 0.0392213 -6.59082e-22)
(1.01966 0.0411334 2.32946e-23)
(0.591677 -0.0587197 0)
(0.626824 -0.0606857 6.94322e-21)
(0.651879 -0.0607626 -7.3233e-21)
(1.05196 -0.0132957 -8.07952e-22)
(1.0522 -0.0122653 7.19874e-21)
(1.05109 -0.0125989 -1.04322e-21)
(0.996455 0.00267557 1.86531e-21)
(0.996288 0.00226062 -1.36644e-21)
(0.995974 0.00285424 1.06224e-20)
(0.372528 0.0544098 0)
(0.360723 0.0273047 -2.16179e-20)
(0.343737 0.0552651 0)
(0.533532 -0.0486569 0)
(0.528828 -0.0505394 -3.94246e-21)
(0.577813 -0.0525361 -1.32119e-20)
(0.655929 -0.0624373 1.30577e-20)
(0.606896 -0.060566 1.419e-20)
(0.626856 -0.0637776 -3.39747e-22)
(0.488598 -0.0897038 -8.29952e-21)
(0.453509 -0.0863878 2.93213e-21)
(0.416255 -0.0811025 -2.70253e-20)
(1.13841 0.14449 -6.49045e-21)
(1.14471 0.144291 1.36468e-20)
(1.14234 0.150603 3.1493e-20)
(1.10754 -0.0581198 1.84257e-21)
(1.1068 -0.0583623 -1.02804e-21)
(1.10763 -0.0588961 3.78117e-22)
(1.08692 -0.0471129 0)
(1.08759 -0.0484526 -9.24762e-21)
(1.08816 -0.0467437 0)
(1.05277 -0.0136342 -8.42735e-22)
(0.0179367 -0.00727472 -8.15109e-21)
(0.0434355 -0.010914 -8.62803e-21)
(0.0115315 -0.00804806 3.32481e-21)
(0.973845 0.0933309 -6.28386e-21)
(0.96967 0.0927855 -1.58443e-20)
(0.972705 0.0890885 1.00052e-20)
(0.995591 0.0885242 -3.04802e-21)
(0.993297 0.0861185 3.21834e-22)
(0.996952 0.0848175 -3.11795e-21)
(1.01404 0.0456049 0)
(1.01545 0.045266 -2.46921e-24)
(1.01432 0.0440795 0)
(1.1362 0.0105102 -1.00941e-20)
(1.13751 0.0127518 -1.44631e-20)
(1.13907 0.00940048 -4.1831e-20)
(1.08574 -0.0478484 1.46994e-20)
(1.08597 -0.0461501 0)
(1.00144 0.00465369 6.26395e-23)
(1.00145 0.00444623 -1.98172e-21)
(1.00127 0.00427376 -1.64392e-21)
(0.999979 0.000894556 -2.04203e-21)
(0.999966 0.00118108 -6.16248e-21)
(0.999982 0.000906417 -3.97655e-22)
(0.531617 -0.0494 0)
(0.496245 -0.0495665 0)
(1.00076 0.00718701 0)
(1.00081 0.00762913 8.3701e-22)
(1.00093 0.00749998 -2.02292e-21)
(0.69605 -0.0665602 8.23849e-21)
(0.707083 -0.0677827 -2.03406e-20)
(0.995154 0.0141759 1.97882e-22)
(0.994685 0.0139594 9.79695e-22)
(0.994898 0.014686 0)
(0.577718 -0.0509542 0)
(0.539716 -0.048074 6.11898e-22)
(0.536662 -0.0493683 0)
(0.789467 0.0323974 8.3965e-21)
(0.780489 0.0379718 2.18332e-20)
(0.781721 0.0260881 3.93938e-20)
(0.761962 0.116443 4.2206e-20)
(0.760472 0.128937 3.82554e-20)
(0.751556 0.119765 -1.21743e-20)
(0.717789 0.554261 0)
(0.748936 0.564594 0)
(0.727208 0.598161 0)
(1.19761 0.0851996 -1.20845e-20)
(1.19695 0.080077 -4.50657e-21)
(1.20239 0.0810225 -7.92574e-20)
(1.11424 0.10565 1.62482e-20)
(1.1111 0.108868 -1.75051e-20)
(1.10987 0.104209 -1.87856e-21)
(1.0619 0.08623 0)
(1.05903 0.0870231 -2.1197e-21)
(1.05985 0.083642 0)
(0.842787 0.0673267 -4.45697e-21)
(0.835024 0.0700473 -1.70929e-20)
(0.836319 0.0606033 5.54704e-21)
(0.908742 -0.000416549 3.25756e-20)
(0.911498 -0.00339307 -9.74892e-21)
(0.912741 0.000491215 4.37142e-21)
(0.991553 0.0109266 4.8475e-21)
(0.991013 0.0114972 -3.01568e-21)
(0.991707 0.0117804 -2.96136e-21)
(1.11395 -0.064142 1.00842e-20)
(1.11517 -0.0637167 -3.37715e-20)
(1.11942 -0.0646711 -4.58189e-21)
(1.00064 0.00684289 0)
(1.00077 0.00675937 0)
(0.172406 -0.0338163 0)
(0.145751 -0.0305705 0)
(0.158456 -0.0309987 0)
(1.05809 -0.0177598 0)
(1.0589 -0.0185923 5.49773e-21)
(0.286221 -0.0136509 -2.80587e-21)
(0.26044 -0.0104056 4.32995e-22)
(0.290296 -0.013195 -4.8026e-22)
(1.00794 0.000841669 0)
(1.0083 0.000825192 0)
(1.00751 0.000473002 0)
(0.999994 0.000648057 -2.88062e-21)
(1 0.000309089 -7.01346e-22)
(0.999998 0.000336782 6.03291e-22)
(1.01937 0.00202418 -5.75403e-22)
(1.0191 0.0021857 -1.36026e-21)
(1.01898 0.00190886 -6.50971e-22)
(0.697733 0.19211 4.30623e-20)
(0.714179 0.199835 -3.23437e-20)
(0.697214 0.213912 1.29883e-20)
(1.03669 0.0221109 9.28689e-22)
(1.03759 0.0227769 -3.94753e-21)
(1.03782 0.0218854 0)
(0.891644 0.015436 -2.81614e-21)
(0.890207 0.0108782 -1.48858e-20)
(0.895579 0.0120481 5.86575e-22)
(1.13502 0.00736217 3.80617e-20)
(1.13305 0.0107574 1.82316e-20)
(1.13489 -0.0224861 -1.9369e-20)
(1.13399 -0.0201268 3.1101e-21)
(1.13228 -0.0222278 1.97476e-20)
(0.0907692 0.120035 -1.46659e-19)
(0.0902033 0.155713 2.41664e-19)
(0.119928 0.134507 6.70974e-20)
(1.00308 0.000705639 -1.09369e-21)
(1.00336 0.00064065 -6.90365e-22)
(1.00331 0.000991236 -4.4824e-22)
(1.08165 0.0106837 1.78753e-20)
(1.08272 0.0115931 -1.10546e-21)
(1.08309 0.0100619 5.31006e-21)
(0.966506 0.00807795 3.89883e-21)
(0.965313 0.00673291 -8.18533e-21)
(0.964911 0.00878528 -9.05648e-21)
(0.0844463 0.0901347 -2.1937e-19)
(0.0510693 0.122818 5.24392e-20)
(0.905666 0.00266012 1.82078e-20)
(0.904553 -0.00177688 2.46538e-20)
(1.01378 0.0471035 0)
(1.0125 0.0456864 0)
(1.08303 0.0326821 5.45415e-21)
(1.0824 0.0347367 -1.30532e-20)
(1.08483 0.0342884 -5.58913e-21)
(1.10852 -0.0580171 -2.67276e-20)
(1.10788 -0.0572424 -7.77393e-22)
(0.994965 0.0285213 1.64246e-21)
(0.995016 0.0271549 0)
(0.996036 0.0281111 -4.86615e-21)
(1.06905 0.0397169 -6.63323e-21)
(1.07113 0.0406417 -5.99976e-21)
(1.06919 0.0420943 -6.56691e-21)
(1.03559 0.0223068 7.31272e-21)
(1.03574 0.0214185 2.69582e-21)
(0.605717 0.0569007 -2.44509e-20)
(0.457501 0.0399212 -4.25695e-20)
(0.515104 0.044519 1.25908e-19)
(1.02185 0.0391777 6.86187e-22)
(1.02192 0.0410576 4.61341e-22)
(0.0202777 -0.00519794 1.60968e-20)
(1.00143 0.00484147 1.75317e-21)
(1.00161 0.00503026 -7.75446e-23)
(0.380444 0.0895305 -9.25751e-20)
(0.404179 0.0587476 0)
(1.12976 0.384143 -4.06675e-20)
(1.09163 0.35665 1.32046e-20)
(0.834099 0.272123 -2.09574e-20)
(0.995809 -0.00109892 3.0685e-22)
(0.995357 -0.000907625 4.87858e-21)
(0.987912 -0.00175824 8.12587e-22)
(0.988665 -0.00175647 2.27025e-21)
(1.1375 -0.0577096 -1.31365e-20)
(1.13543 -0.0581316 2.76045e-20)
(1.13712 -0.0600688 5.97831e-20)
(1.0615 0.131325 -7.70594e-22)
(1.06685 0.131192 8.52545e-21)
(1.06344 0.137348 1.00644e-20)
(0.996877 0.00254636 0)
(0.996589 0.00308855 4.33121e-21)
(0.56171 -0.0981882 1.50274e-20)
(0.523297 -0.0942126 0)
(-0.104263 -0.0280047 1.43927e-20)
(-0.0785588 -0.0328782 -1.17667e-20)
(-0.0881039 -0.0316097 1.40038e-20)
(0.995796 0.0143567 2.46547e-21)
(0.995541 0.0134783 -4.43249e-21)
(0.0910287 0.190657 1.03511e-19)
(0.125859 0.209136 -7.22027e-20)
(0.093057 0.229362 -1.46426e-19)
(1.08008 -0.0560469 -1.56279e-21)
(1.07912 -0.0552073 -8.79556e-21)
(1.08034 -0.0546161 4.6184e-21)
(-0.0848347 -0.018047 1.95121e-20)
(-0.0601502 -0.0236991 -2.6333e-20)
(-0.0743567 -0.0186395 1.05388e-20)
(1.05162 0.0234223 0)
(1.05295 0.0238957 5.67778e-22)
(1.05187 0.0249427 -9.31487e-21)
(0.546085 -0.0480353 -8.76026e-21)
(0.543383 -0.049679 1.13333e-20)
(0.584195 -0.051768 2.50612e-20)
(0.999928 0.00173014 3.1998e-22)
(0.999874 0.00198897 -3.68404e-21)
(0.999894 0.00203653 -3.80105e-22)
(1.00004 0.00277883 0)
(1.00005 0.00304206 4.49925e-21)
(1.00007 0.00272242 0)
(0.996206 -0.000833073 2.0864e-21)
(0.390026 0.115871 -2.087e-20)
(0.400634 0.146022 1.43954e-19)
(0.421928 0.121918 7.7222e-21)
(0.202958 -0.0379867 -5.79885e-21)
(0.190416 -0.0377937 0)
(-0.0691923 0.0151188 7.87276e-20)
(-0.111655 0.0119282 0)
(-0.100192 0.011915 0)
(1.05023 0.0230655 0)
(1.0513 0.022126 -1.90372e-21)
(1.00032 0.00386383 1.10537e-21)
(1.00038 0.00379671 -1.47885e-22)
(1.00027 0.00350237 2.28229e-24)
(1.14524 0.411486 -2.11836e-20)
(1.22348 0.438721 -1.30228e-19)
(1.08001 0.00979378 1.05188e-20)
(1.07993 0.0115692 -4.13341e-21)
(1.01961 0.00192875 2.62666e-21)
(1.01972 0.00219325 -1.98097e-21)
(0.0195881 -0.041344 2.22227e-20)
(-0.00903488 -0.0370797 -2.75491e-20)
(0.0056622 -0.0382123 3.04168e-20)
(1.18276 0.121682 2.08492e-20)
(1.17656 0.123999 1.85867e-20)
(1.18024 0.128471 9.51247e-21)
(1.02231 0.0226238 1.08448e-21)
(1.02264 0.0218415 -1.19876e-21)
(1.02167 0.021851 5.85455e-22)
(0.974466 0.0501728 -8.76853e-21)
(0.972426 0.0513685 0)
(0.974857 0.0526679 -1.43256e-21)
(1.20076 0.435142 1.4679e-19)
(1.08009 0.407785 1.06136e-19)
(0.374779 0.000155481 -2.4608e-20)
(0.403562 -0.00697924 0)
(0.380655 -0.0344445 0)
(1.11861 -0.0506266 1.4029e-20)
(1.12 -0.0509277 6.59457e-20)
(1.11907 -0.0521646 3.22995e-20)
(1.13406 -0.0132446 -2.59507e-20)
(1.1367 -0.0134402 -2.55395e-20)
(1.13562 -0.0110434 -2.64781e-20)
(1.08971 -0.0642376 1.36277e-20)
(1.08974 -0.0650658 8.17039e-21)
(1.08876 -0.0651227 1.9163e-23)
(0.5957 0.127622 5.36174e-20)
(0.615722 0.113198 -4.26128e-20)
(0.617551 0.13954 3.30328e-20)
(1.0104 0.00524741 -3.96197e-22)
(1.01082 0.00535302 2.35585e-22)
(1.01065 0.00571236 -3.34081e-22)
(0.841867 -0.00414315 -8.84835e-21)
(0.845275 0.00323534 4.48401e-20)
(0.849415 -0.00350772 -1.13783e-20)
(0.681416 0.185396 7.46401e-20)
(0.69936 0.176836 4.35822e-20)
(1.05856 0.0175567 -1.67891e-20)
(1.05974 0.0172575 -6.41011e-21)
(1.05868 0.0160947 -1.16922e-20)
(1.01541 0.0115884 -5.32251e-22)
(1.01543 0.0110455 -1.20695e-22)
(1.01597 0.011544 1.2702e-21)
(0.508211 -0.0890171 -1.96478e-20)
(0.496482 -0.0892905 -1.80621e-20)
(0.581554 -0.0914474 -6.16932e-20)
(0.821351 0.491362 -4.32018e-21)
(0.793248 0.50943 8.369e-22)
(0.832163 0.517355 9.44201e-22)
(1.13565 -0.0242416 2.83268e-20)
(1.1372 -0.0223626 -2.20489e-20)
(1.01698 0.0448465 2.5811e-23)
(1.01691 0.0465606 -1.5707e-22)
(1.11311 0.118884 1.7648e-20)
(1.10947 0.121759 -1.58482e-20)
(1.11436 0.123937 0)
(-0.175195 -0.0146441 3.76202e-20)
(-0.208551 -0.0142714 -4.78753e-20)
(-0.194543 -0.0146957 7.6611e-20)
(0.3044 -0.0165467 1.06144e-20)
(0.279024 -0.0129365 1.29656e-20)
(1.08981 -0.0534004 -7.54644e-21)
(1.08897 -0.0540643 -1.3829e-20)
(1.08998 -0.0543821 -1.69783e-20)
(0.508229 -0.0901104 2.91034e-20)
(0.436037 -0.088178 3.91979e-20)
(0.949656 0.0061059 -1.06383e-20)
(0.948261 0.00810049 -8.091e-21)
(0.947585 0.00538489 8.55323e-21)
(0.0882895 -0.135157 9.79922e-21)
(0.0993328 -0.10524 -1.24038e-19)
(0.0612025 -0.110294 -3.38456e-20)
(1.00074 0.0130591 3.84706e-21)
(1.00081 0.0136556 6.38157e-21)
(1.00046 0.0133508 2.60674e-21)
(0.181531 0.093514 -2.08029e-21)
(0.211658 0.0750603 1.56255e-20)
(0.212782 0.110272 1.5948e-20)
(0.17552 -0.0111443 5.73358e-21)
(0.182703 -0.0128376 0)
(0.198437 -0.0156329 -4.78226e-23)
(0.908159 0.0105701 1.0989e-20)
(0.905328 0.0137866 2.2855e-20)
(0.90991 0.0142806 -1.16472e-20)
(1.00001 0.000967003 0)
(0.999987 0.000954757 1.13539e-22)
(1.13933 -0.0575859 -1.51056e-20)
(1.13799 -0.0560692 -3.8048e-20)
(0.14761 -0.0129556 0)
(0.169501 -0.0160245 0)
(0.162661 -0.0155774 -3.10199e-21)
(0.763863 0.104612 2.00913e-20)
(0.775503 0.113343 0)
(1.00468 0.00061386 1.0921e-22)
(1.0049 0.000892298 -4.06037e-22)
(1.00499 0.000518471 1.44269e-22)
(0.974422 0.047523 9.65258e-21)
(0.976689 0.0488344 -8.55568e-21)
(1.03297 0.0254518 -3.5729e-21)
(1.03372 0.0262955 -1.51403e-21)
(1.03267 0.0264148 2.3159e-21)
(1.00438 0.000630508 -8.70611e-23)
(1.00425 0.000307096 -5.36647e-23)
(1.01663 0.00159462 4.89104e-22)
(1.01684 0.00144599 -2.61094e-21)
(1.01656 0.00135791 -1.09026e-21)
(0.346528 0.00116631 1.11089e-20)
(0.270994 -0.0285331 1.99417e-21)
(0.260005 -0.0260223 0)
(0.247044 -0.023443 2.19815e-20)
(0.951205 0.00376093 1.83889e-20)
(0.952173 0.00649198 0)
(1.03847 0.023436 2.9539e-21)
(1.03731 0.0237374 -3.7255e-21)
(0.999968 0.000867781 4.07195e-21)
(0.999997 0.000601917 0)
(1.28323 -0.0306147 5.82652e-20)
(1.28947 -0.0295786 1.38498e-20)
(1.26526 -0.0393817 -9.43649e-21)
(0.741403 -0.069902 2.08648e-20)
(0.684648 -0.0662655 0)
(1.09654 0.124419 0)
(1.09198 0.121569 -2.78501e-21)
(0.57913 0.138805 7.38806e-20)
(0.579671 0.110806 -3.37379e-20)
(0.995311 -0.0004499 1.16226e-20)
(0.994865 -0.000768452 1.99033e-20)
(0.906741 0.00662745 1.20657e-20)
(0.910971 0.00779048 2.76976e-20)
(1.10408 -0.0633548 2.15317e-21)
(1.10349 -0.0635153 4.03048e-21)
(1.10214 -0.0629533 -3.88401e-21)
(1.02368 0.0117223 4.97493e-21)
(1.02364 0.0122817 3.4515e-22)
(1.02297 0.0118181 3.54477e-21)
(0.963592 0.0199373 -2.15368e-21)
(0.961473 0.0206562 0)
(0.962214 0.018097 -2.07281e-20)
(0.66458 0.189301 0)
(0.644235 0.19551 0)
(0.662777 0.212225 0)
(0.987688 -0.00103853 8.53541e-21)
(0.987143 -0.00164497 1.63822e-20)
(0.773266 -0.0985717 -1.2528e-20)
(0.694366 -0.0949805 -1.02853e-20)
(0.768586 -0.0988719 3.12705e-20)
(0.810524 0.596674 2.41067e-22)
(0.818042 0.567225 3.86722e-22)
(0.783256 0.568472 2.38411e-22)
(0.967794 0.00970901 1.54969e-20)
(0.968371 0.00758335 1.21337e-20)
(1.02226 0.00979526 1.5697e-21)
(1.02233 0.010326 4.05872e-21)
(1.0217 0.00989606 -5.67942e-22)
(1.05678 0.0936788 1.04552e-20)
(1.05319 0.0942309 -6.80728e-21)
(1.05578 0.097954 1.55388e-20)
(1.10939 -0.0273171 7.04048e-21)
(1.11063 -0.0289037 5.53736e-21)
(1.11088 -0.0264067 4.22649e-21)
(0.112323 -0.156401 9.28382e-20)
(0.0729843 -0.165673 1.11732e-20)
(1.10434 -0.0466421 -2.18962e-20)
(1.1056 -0.0471113 -2.5167e-20)
(1.10432 -0.0478086 1.7856e-20)
(1.02397 0.177494 5.88688e-22)
(1.02704 0.172637 -2.05519e-21)
(1.03156 0.176661 6.43682e-21)
(1.07759 0.0584972 2.72447e-21)
(1.0756 0.0605302 -1.02952e-20)
(1.07481 0.0576415 2.0809e-21)
(-0.0328782 0.0436368 3.03015e-20)
(-0.0516953 0.0498577 -7.25641e-20)
(-0.0843596 0.0423239 -7.88955e-20)
(1.05653 0.131928 -6.1837e-22)
(1.05935 0.127031 5.99612e-21)
(1.12227 -0.0773943 -7.62123e-21)
(1.13565 -0.0753865 0)
(1.13623 -0.0736973 2.25978e-20)
(-0.116718 -0.0143261 3.42101e-20)
(-0.0938528 -0.0185154 -2.55355e-21)
(1.30103 -0.0269695 -3.73357e-20)
(1.2588 -0.0272233 0)
(0.942033 0.0417744 -6.17689e-21)
(0.939252 0.04337 -1.44278e-20)
(0.939127 0.0397735 -1.28478e-20)
(0.790235 -0.0308973 -1.5222e-20)
(0.784514 -0.0224494 -2.47572e-20)
(0.778702 -0.0334369 -4.42241e-20)
(0.999995 0.00216592 1.57013e-22)
(1.00002 0.00209465 -3.75125e-21)
(0.999981 0.001806 -5.89821e-21)
(1.11689 -0.0508231 -4.96155e-20)
(1.11793 -0.0492823 -1.60061e-20)
(1.09088 -0.0527249 3.69089e-20)
(1.08964 -0.0522474 -6.57342e-22)
(1.08953 -0.0634778 2.29297e-21)
(1.0906 -0.0635452 -4.92024e-21)
(1.05843 0.0188025 1.63687e-22)
(1.0574 0.0177219 7.53781e-21)
(1.12141 -0.020983 -1.17533e-20)
(1.11994 -0.0223852 3.54988e-20)
(1.12219 -0.0231888 -1.58709e-20)
(1.03065 0.0187869 5.33169e-21)
(1.03145 0.0193564 -2.90265e-21)
(1.03047 0.0196628 1.13436e-21)
(0.838702 -0.0104184 -1.41903e-20)
(0.834169 -0.00325954 -2.37546e-20)
(1.04915 0.171317 1.58041e-20)
(1.04192 0.17081 2.17204e-21)
(1.04715 0.164675 4.56066e-21)
(-0.31545 -0.00308527 0)
(-0.333796 -0.00232159 -5.45238e-20)
(-0.301773 -0.00318132 0)
(1.08715 -0.0565642 -3.18028e-21)
(1.08801 -0.0574234 -1.95231e-20)
(1.08828 -0.0561748 -1.02615e-20)
(1.01296 0.0532755 4.09004e-22)
(1.01291 0.0550306 3.27998e-22)
(1.01117 0.0538516 0)
(0.871164 -0.0946468 -5.13341e-21)
(0.863483 -0.0965024 -4.41327e-21)
(0.932488 -0.095547 -5.76245e-22)
(1.0161 0.195406 -6.70037e-22)
(1.01321 0.200388 7.7681e-22)
(1.021 0.200191 0)
(0.281356 -0.0286614 -2.03805e-20)
(0.299267 -0.0309846 2.34459e-21)
(0.150612 0.0765334 -2.13228e-20)
(0.151194 0.113947 -1.69108e-20)
(0.787608 -0.0989645 1.08841e-20)
(0.854554 -0.100398 0)
(1.01183 0.0249522 0)
(1.01249 0.025612 2.98453e-22)
(1.01166 0.0257808 0)
(1.18859 0.120183 9.85842e-21)
(1.18473 0.115825 -1.35998e-20)
(1.11942 0.107087 1.65438e-20)
(1.11785 0.10243 9.1101e-22)
(1.02433 0.0115771 -3.87981e-22)
(1.02364 0.0111372 9.04027e-23)
(1.00029 0.00395075 -3.0977e-21)
(1.00037 0.00427395 6.11603e-22)
(0.937169 0.113896 -1.10275e-20)
(0.933284 0.109969 0)
(0.939332 0.109442 0)
(0.623479 -0.0544734 0)
(0.619423 -0.0541874 0)
(1.26207 0.130384 -2.61458e-21)
(1.27013 0.128561 2.1998e-20)
(1.27084 0.136093 2.0969e-20)
(-0.0142531 0.0435404 7.10008e-21)
(0.0551662 0.0584089 -1.67879e-20)
(1.1136 0.0339336 0)
(1.11332 0.0365231 0)
(1.11594 0.0351388 0)
(1.0957 -0.0592004 -1.1315e-20)
(1.095 -0.0597563 -1.7754e-20)
(1.09585 -0.0600204 -1.76015e-20)
(1.10497 -0.0649909 2.633e-21)
(1.10718 -0.0652681 -1.12691e-20)
(1.10828 -0.0660249 1.22695e-20)
(-0.021285 0.017645 -8.69602e-21)
(-0.0348901 0.0168031 7.6616e-20)
(1.25427 0.176089 -2.70191e-20)
(1.25486 0.169193 -2.90164e-20)
(1.2629 0.173577 -2.78552e-20)
(0.999635 0.00748713 -1.72664e-21)
(0.999726 0.00709497 -1.68275e-21)
(0.999565 0.00696982 -2.25539e-21)
(0.567981 0.0490808 0)
(0.573545 0.069111 7.14949e-20)
(0.548745 0.0633062 0)
(0.797935 0.0290849 -1.80286e-20)
(0.797054 0.0402265 -2.29343e-20)
(1.0089 0.000348933 6.86243e-22)
(1.00857 0.00034591 -9.36435e-22)
(1.02192 0.0232604 5.88229e-22)
(1.02295 0.0233399 1.27335e-21)
(0.869424 0.458162 2.54105e-21)
(0.864123 0.430908 -7.72873e-21)
(0.891175 0.439657 4.63941e-21)
(1.22858 0.485121 -3.13963e-20)
(1.2312 0.465051 9.65927e-20)
(1.14114 0.438978 -2.58685e-20)
(1.07167 -0.00555573 -7.21884e-21)
(1.07269 -0.00637632 4.8755e-22)
(1.07308 -0.00508075 3.59352e-22)
(1.0029 0.000847668 -4.5715e-22)
(1.00288 0.000527237 0)
(1.11491 -0.0228807 7.14848e-21)
(1.11385 -0.0211389 7.26665e-21)
(1.11636 -0.0213159 -6.36386e-21)
(1.10818 -0.0286484 -2.99312e-20)
(1.10778 -0.0263298 -3.03485e-20)
(-0.119683 -0.0248494 -6.93536e-21)
(-0.128506 -0.0240427 1.41782e-20)
(1.24013 -0.0730224 -5.85368e-22)
(1.23361 -0.0747032 -3.92678e-20)
(1.22534 -0.0704488 3.76527e-20)
(0.992026 0.0105609 1.02661e-20)
(0.991562 0.0103398 6.95263e-21)
(0.993909 0.0287361 1.56675e-21)
(0.994895 0.0296468 -7.21415e-21)
(1.13165 -0.013099 -2.10531e-20)
(1.13243 -0.0154093 2.78399e-20)
(0.600572 -0.0552299 3.92859e-21)
(0.656228 -0.0573193 -7.83969e-21)
(0.639663 -0.0568332 7.43216e-21)
(0.965454 0.0189857 8.0924e-22)
(0.965152 0.0213295 -2.11655e-21)
(0.521621 -0.0512896 -6.97954e-21)
(0.512465 -0.0515699 -1.93726e-20)
(0.564738 -0.0537061 1.55762e-20)
(-0.177875 -0.0166151 -2.89416e-21)
(-0.152167 -0.0196021 0)
(-0.169995 -0.0164561 0)
(1.09566 -0.0583227 1.42272e-21)
(1.09663 -0.0588471 2.57832e-20)
(1.01496 0.0115348 -1.26527e-21)
(1.01539 0.0120004 1.75611e-22)
(0.494436 0.384523 -2.64736e-20)
(0.51424 0.419561 -6.47442e-20)
(0.461046 0.420539 3.28476e-20)
(1.12437 -0.0122155 -3.95093e-20)
(1.1268 -0.0125998 2.61783e-20)
(1.12578 -0.0102375 2.45874e-20)
(-0.304171 -0.0108551 -4.34991e-20)
(-0.271072 -0.0142112 1.30077e-20)
(-0.289322 -0.0105001 1.33665e-19)
(1.00258 0.0170853 1.10305e-22)
(1.00295 0.0174484 -1.66666e-22)
(1.00258 0.0178087 0)
(0.754218 0.0776285 -1.51674e-20)
(0.708621 0.0753069 -6.10645e-20)
(1.01111 0.0241886 0)
(1.01193 0.0241269 0)
(1.19224 0.0577299 -8.69882e-20)
(1.18813 0.0555203 -2.73916e-20)
(1.18826 0.0601096 1.81352e-20)
(1.00782 0.00109362 0)
(1.00761 0.00075672 -5.34829e-23)
(0.147658 -0.0395534 -1.7261e-21)
(0.121986 -0.0371323 1.25671e-20)
(0.141611 -0.0378469 1.23796e-20)
(0.486558 -0.0890374 3.48896e-20)
(0.475263 -0.088577 2.1981e-20)
(0.557287 -0.0902651 1.71552e-20)
(0.995069 0.0917559 -2.71373e-21)
(0.998625 0.0905012 -2.86828e-21)
(1.17891 0.479422 1.12932e-19)
(1.22162 0.491783 4.62014e-20)
(1.18984 0.46084 -3.9905e-21)
(1.08042 0.0590224 3.91721e-21)
(1.07895 0.0562804 1.08762e-20)
(1.01431 0.0114151 1.04654e-21)
(1.01442 0.0109001 -1.13452e-21)
(1.10681 -0.0639638 5.57962e-21)
(1.11446 -0.0647205 0)
(1.08605 -0.0569708 1.86682e-20)
(1.08634 -0.0557145 2.74127e-21)
(1.11139 0.0327709 1.30375e-20)
(1.11367 0.0314224 -1.43017e-20)
(0.716082 -0.0643143 -8.12758e-21)
(0.670057 -0.063388 5.9122e-21)
(0.736938 -0.0638313 -1.25813e-20)
(-0.187664 -0.0129175 5.79968e-20)
(-0.20855 -0.011616 -2.27777e-21)
(1.01134 0.00287394 2.04813e-23)
(1.01171 0.00291938 -4.06154e-22)
(1.01151 0.00252305 -1.49421e-21)
(1.06475 0.0851333 -9.84831e-21)
(1.06412 0.0888962 -7.42502e-22)
(0.0382237 -0.0458963 9.56516e-21)
(0.0529369 -0.0468004 2.86073e-20)
(-0.124319 0.0146901 2.79023e-20)
(-0.15328 0.012312 0)
(-0.127911 0.0150411 -1.92682e-20)
(0.999981 0.00213287 3.52515e-21)
(0.999962 0.00247017 3.51101e-21)
(1.00569 0.00836343 -5.23227e-22)
(1.00608 0.0085747 1.09729e-21)
(1.00586 0.00878189 -1.21881e-21)
(0.330187 -0.0140263 -2.27311e-20)
(0.349575 -0.0174389 -8.07329e-21)
(1.12369 -0.0532139 -1.85453e-20)
(1.12222 -0.0530832 1.89573e-20)
(1.12269 -0.0547488 5.4248e-21)
(1.00006 0.000126544 -1.79371e-23)
(1.00003 9.77329e-05 -4.35673e-24)
(1.00005 0.000159132 1.43721e-21)
(1.0988 -0.0647218 3.42576e-21)
(1.09822 -0.0650931 -6.69491e-22)
(1.09975 -0.0642623 8.30431e-25)
(1.17308 -0.00222265 -1.08983e-20)
(1.17128 -0.00555263 2.09088e-20)
(1.16893 -0.00184242 0)
(0.799479 -0.0307252 5.06663e-20)
(0.795004 -0.0404098 -4.94338e-20)
(1.0923 0.102382 6.25e-21)
(1.09541 0.10586 5.37557e-21)
(1.09591 0.100758 -6.28752e-21)
(1.00001 0.00244518 0)
(1.00003 0.00208758 -2.61173e-21)
(0.981977 0.207037 0)
(0.983345 0.197381 0)
(0.973631 0.201644 0)
(-0.141043 -0.0171002 -2.01344e-21)
(-0.1371 -0.015996 -1.64814e-21)
(-0.171052 -0.011269 -3.96191e-20)
(1.03804 0.00206392 1.65449e-21)
(1.03821 0.00142555 -4.32629e-21)
(1.03898 0.00188674 -4.21076e-21)
(1.20569 0.136458 -1.53214e-20)
(1.19987 0.139991 2.03898e-20)
(1.20047 0.131864 4.32014e-20)
(0.56901 0.156384 0)
(0.584443 0.17712 0)
(0.554566 0.182397 0)
(1.03222 0.0245942 1.59374e-21)
(1.03322 0.0244103 -2.81865e-21)
(0.995116 0.0259422 0)
(0.994157 0.0262723 0)
(1.10034 -0.0415044 1.36078e-20)
(1.1017 -0.0422798 -2.63224e-21)
(1.10019 -0.0429134 5.97481e-21)
(0.362654 -0.0232754 0)
(0.346819 -0.0203821 0)
(0.344185 -0.0204127 5.574e-21)
(1.10303 -0.0463931 5.59595e-22)
(1.10435 -0.0454499 -6.28168e-21)
(0.940109 0.11825 2.89745e-21)
(0.934527 0.119427 -1.6589e-20)
(0.977757 0.0932093 -6.61596e-21)
(0.975177 0.0969648 -5.30345e-21)
(1.00005 0.000275743 -3.27742e-23)
(1.00005 0.000239651 1.71905e-23)
(1.00002 0.000163367 2.53734e-21)
(0.126377 -0.0104714 0)
(0.133215 -0.010812 -1.98073e-21)
(0.639786 -0.0598032 3.36274e-20)
(0.729886 -0.0647688 2.82163e-21)
(0.722286 -0.0610946 8.86002e-20)
(1.0972 -0.0694207 4.9833e-21)
(1.10008 -0.0689625 -1.79622e-20)
(1.10485 -0.070096 -2.26543e-21)
(1.01381 0.0113443 1.98931e-21)
(1.01425 0.0118564 2.14963e-21)
(-0.176177 -0.0222102 0)
(-0.148005 -0.0266144 0)
(-0.160793 -0.0244006 -3.15797e-20)
(0.0431152 -0.0160455 1.38749e-21)
(0.0478546 -0.0145559 2.99724e-23)
(0.0230297 -0.0119233 -6.52485e-24)
(1.09323 -0.0773547 -1.3615e-21)
(1.10343 -0.0757959 2.74302e-21)
(0.543605 -0.0490829 -1.47132e-20)
(0.512652 -0.0477284 -1.0365e-20)
(1.08105 -0.0565864 1.36886e-20)
(1.07992 -0.0571455 -1.43672e-20)
(0.999995 0.00281231 4.18835e-22)
(1.00597 0.000677284 -1.84386e-22)
(1.00566 0.000725803 -3.26909e-22)
(1.00603 0.00106524 -2.33247e-22)
(1.13419 0.00531193 -3.39156e-21)
(1.13151 0.0054226 8.57108e-21)
(1.13306 0.00289828 1.76486e-21)
(0.0721274 -0.0332699 -1.68526e-20)
(0.053449 -0.0291805 1.2904e-20)
(0.0469227 -0.0293193 -1.42668e-20)
(1.15104 -0.0387033 8.95571e-21)
(1.15344 -0.0374481 -3.17121e-20)
(1.15306 -0.0409261 -5.2007e-20)
(1.06695 0.0390225 4.47867e-23)
(1.06872 0.0377195 1.10885e-20)
(1.24315 -0.0722488 -1.37872e-20)
(1.23026 -0.0795272 -2.94778e-20)
(1.07336 -0.0393195 7.9058e-21)
(1.0725 -0.0385589 -1.27884e-20)
(1.01653 0.000871615 0)
(1.01651 0.0010944 -1.84533e-21)
(1.01672 0.000972219 0)
(0.971052 0.019907 4.17125e-20)
(0.964548 0.0136776 -2.98098e-20)
(0.870604 0.00245949 -7.59473e-20)
(1.00184 0.00458699 1.61582e-21)
(1.00184 0.00438416 1.64337e-21)
(1.00165 0.00424318 1.68635e-21)
(0.870181 -0.0938792 -5.27889e-22)
(0.801458 -0.0940221 -1.34551e-20)
(1.07055 -0.00441687 -7.51063e-21)
(1.07009 -0.00574776 -9.91075e-22)
(1.00006 9.8004e-05 -9.12693e-22)
(1.00009 0.000153154 -7.04541e-22)
(1.00155 0.105246 2.7025e-21)
(1.00041 0.109882 5.76006e-22)
(0.997555 0.105562 5.09219e-23)
(1.02217 0.183243 3.89514e-22)
(1.01766 0.177948 1.33924e-21)
(0.779186 -0.0126706 0)
(0.789478 -0.0121275 -3.20788e-20)
(1.10373 -0.0647098 1.18296e-21)
(1.09962 -0.0642492 -1.50086e-21)
(0.999483 0.139349 3.9746e-21)
(0.999814 0.145425 2.01786e-22)
(0.993789 0.141457 -3.58158e-21)
(1.04132 0.00743649 9.81138e-21)
(1.04197 0.00818101 -9.30123e-22)
(1.04092 0.00806208 7.86223e-22)
(1.24977 -0.00841595 -3.00833e-20)
(1.25382 -0.00344874 0)
(1.26852 -0.00789188 0)
(0.755067 -0.064801 -5.88738e-21)
(0.691281 -0.0656562 -6.51094e-21)
(0.561536 -0.0645858 0)
(0.565222 -0.062372 0)
(1.00216 0.0168762 -3.392e-21)
(1.00251 0.0165447 2.19503e-21)
(1.08346 -0.0825381 9.36299e-22)
(1.11406 -0.0821767 -1.49266e-20)
(1.07619 -0.0838869 4.7767e-21)
(0.99852 -0.000328708 -1.07261e-21)
(0.998416 -7.73606e-05 4.46781e-21)
(0.998242 -0.000320659 -9.6201e-21)
(1.0409 0.00667317 3.07595e-21)
(1.04195 0.00673786 3.86531e-21)
(1.00066 0.0124147 -2.01941e-21)
(1.00101 0.0127234 -1.06249e-22)
(0.840475 0.626886 -1.38716e-20)
(0.793193 0.63298 0)
(1.00147 0.000866136 1.17894e-21)
(1.0016 0.000757163 -3.36249e-23)
(1.00137 0.000677161 1.92159e-22)
(1.19611 0.0597087 -6.03457e-20)
(1.19596 0.055192 2.3659e-20)
(1.08868 0.104932 1.03715e-21)
(1.08881 0.0998845 -6.04613e-23)
(1.0298 0.0181607 -1.22841e-21)
(1.03076 0.017911 2.44589e-21)
(1.1158 -0.0246915 -1.32761e-20)
(1.11336 -0.023899 0)
(1.03624 0.0548607 -2.47774e-21)
(1.0371 0.0531528 6.44238e-21)
(1.03846 0.0548594 4.05848e-21)
(0.119761 0.0558376 1.42837e-19)
(0.10717 0.0396964 1.21822e-19)
(0.104724 0.0721729 4.55905e-20)
(1.01967 0.189994 -1.43446e-21)
(1.01229 0.190454 -5.4385e-22)
(1.1731 0.118052 -1.71318e-20)
(1.17011 0.124547 2.56981e-20)
(1.02839 0.0125159 -8.58869e-22)
(1.02905 0.0130943 1.92652e-21)
(1.02906 0.0122895 -1.80997e-21)
(0.99602 0.0255992 2.61792e-21)
(0.995198 0.0248375 -7.18797e-21)
(-0.196353 -0.0115339 4.2511e-20)
(-0.220708 -0.0113434 6.44967e-20)
(-0.225953 -0.0110683 1.02263e-20)
(0.131168 -0.0131047 0)
(0.123448 -0.0126578 3.44645e-21)
(0.147416 -0.0161976 0)
(1.00079 0.0142656 -3.5377e-22)
(1.00112 0.0139681 -2.60269e-21)
(1.00661 0.000617548 -4.24069e-23)
(1.00702 0.00083426 8.93939e-23)
(1.00664 0.00110215 0)
(0.96094 0.0199909 4.10852e-20)
(1.08093 0.0273472 4.33013e-21)
(1.01479 0.0235663 2.03105e-22)
(1.01504 0.0245065 1.4854e-23)
(1.01581 0.0240483 -5.0247e-22)
(-0.050245 -0.037464 -1.10795e-21)
(-0.0677132 -0.0340428 -2.40149e-20)
(1.02767 0.0121125 3.0919e-21)
(1.0277 0.0129099 4.27429e-21)
(0.152795 -0.0409162 1.5199e-20)
(0.17337 -0.0422242 5.62518e-21)
(1.04396 -0.00622561 6.05792e-21)
(1.04341 -0.00683452 -5.82404e-21)
(1.04428 -0.00692878 -7.94781e-23)
(1.2173 0.31804 5.48401e-20)
(1.20498 0.317199 1.19807e-21)
(1.21007 0.330083 -8.18827e-21)
(1.09664 -0.0021607 -4.29573e-20)
(1.09673 -0.000248072 1.01757e-20)
(1.09868 -0.00136595 -2.61714e-20)
(0.0979117 0.304551 7.84697e-20)
(0.096254 0.264268 5.67766e-20)
(0.131491 0.281844 1.4337e-19)
(0.945211 0.0429481 -1.77357e-20)
(0.944766 0.0395535 1.13035e-20)
(1.30468 -0.0191493 -3.98946e-20)
(1.30898 -0.0191807 2.13208e-20)
(0.517322 0.291259 4.43745e-21)
(0.490436 0.301706 7.62027e-20)
(0.518548 0.323804 -1.0356e-20)
(1.00553 0.105412 3.20681e-21)
(1.00306 0.102156 1.67467e-21)
(1.12466 -0.0521493 0)
(1.12527 -0.0539145 -1.61859e-20)
(0.954642 0.505698 -1.61527e-21)
(0.971988 0.523706 4.59933e-22)
(0.942621 0.529044 1.04034e-20)
(0.996529 0.0418004 1.61121e-21)
(0.995062 0.0412906 -4.90414e-21)
(0.995462 0.0431137 -3.77025e-21)
(0.226365 -0.0292621 8.32182e-21)
(0.199558 -0.025942 0)
(0.209705 -0.0265201 1.16089e-20)
(0.583047 0.0378988 -7.6507e-20)
(0.562343 0.0289498 4.1244e-21)
(0.0604261 -0.018593 9.91553e-21)
(0.0412593 -0.0162575 7.86811e-21)
(0.923754 0.0162086 1.18701e-20)
(0.92017 0.0174274 -2.85145e-20)
(0.922952 0.0202039 -1.766e-20)
(0.22056 -0.0122456 -1.15437e-20)
(0.194208 -0.0093294 -2.23164e-20)
(0.223285 -0.0116354 -1.91608e-20)
(1.06786 0.0841067 -1.36449e-21)
(1.07031 0.0874065 7.37552e-21)
(1.07123 0.0837762 2.0325e-20)
(-0.10555 0.000793456 0)
(-0.0732888 0.00162878 -4.65823e-20)
(-0.0622707 0.000494922 -3.61218e-20)
(0.523641 0.260106 7.71593e-20)
(0.549124 0.283286 -1.06907e-19)
(0.929972 0.346957 1.41659e-20)
(0.913365 0.344649 3.29885e-21)
(0.922583 0.362207 1.0641e-20)
(0.948125 0.352331 -5.3005e-22)
(0.939639 0.333951 -6.42963e-22)
(0.56265 -0.0579987 1.7173e-20)
(0.535111 -0.0584069 0)
(0.999753 0.00214137 -6.05716e-21)
(0.999685 0.00236501 6.14131e-22)
(0.999716 0.00241697 4.70706e-21)
(1.05604 0.170078 -8.69412e-22)
(1.05314 0.177103 -8.80789e-21)
(-0.13689 -0.0162726 0)
(-0.151556 -0.0150464 0)
(0.983314 0.0277269 8.00288e-23)
(0.982398 0.028594 1.95267e-21)
(0.982079 0.0269351 -8.88293e-21)
(1.00232 0.0711963 -9.60752e-22)
(1.00307 0.0688401 -1.76377e-21)
(1.00037 0.0693401 -3.10128e-21)
(0.0638996 -0.0152072 1.09326e-20)
(0.070716 -0.014956 0)
(0.846248 0.476975 -1.24719e-20)
(0.878735 0.48494 3.0046e-24)
(1.01655 0.0500198 5.3964e-22)
(1.01654 0.0515969 -6.29438e-22)
(1.01836 0.0510288 5.85962e-22)
(1.10462 -0.0648702 -4.23965e-21)
(1.10402 -0.0644035 -1.15067e-20)
(0.682566 0.549581 0)
(0.708744 0.521256 3.14429e-20)
(1.00854 0.00466173 1.59973e-23)
(1.00894 0.00490221 1.17051e-22)
(1.00887 0.00445359 -1.11037e-22)
(0.168625 -0.0112308 -1.62399e-21)
(0.145692 -0.00878675 2.00025e-20)
(1.10676 -0.06347 -2.01399e-20)
(1.11412 -0.0635713 -1.39923e-20)
(1.10409 -0.0635232 5.91328e-21)
(1.00183 0.00478534 -1.54301e-21)
(1.00203 0.00494357 -1.78478e-21)
(1.00931 0.0121592 -4.00263e-22)
(1.00883 0.0118185 -9.14904e-22)
(1.009 0.0124007 -8.20408e-22)
(0.998516 -0.000615766 7.45543e-22)
(0.998745 -0.000351663 4.02376e-21)
(1.02291 0.00970972 5.73116e-22)
(1.02226 0.0093236 2.20618e-22)