/*--------------------------------*- C++ -*----------------------------------*\
| =========                 |                                                 |
| \\      /  F ield         | OpenFOAM: The Open Source CFD Toolbox           |
|  \\    /   O peration     | Version:  v2012                                 |
|   \\  /    A nd           | Website:  www.openfoam.com                      |
|    \\/     M anipulation  |                                                 |
\*---------------------------------------------------------------------------*/
FoamFile
{
    version     2.0;
    format      ascii;
    class       volScalarField;
    location    "550";
    object      omega;
}
// * * * * * * * * * * * * * * * * * * * * * * * * * * * * * * * * * * * * * //

dimensions      [0 0 -1 0 0 0 0];


internalField   nonuniform List<scalar> 
13851
(
0.122537
0.023935
0.0238238
4.99888
0.0220825
0.0256728
0.023717
0.0218441
3.79734
0.0220408
0.0657123
0.0220796
0.0221093
5.55663
0.0348387
0.127473
7.93938
0.0219093
0.294622
0.122653
0.0392663
0.0259415
23.2851
0.0222638
6.3023
0.0611536
0.22178
3.13596
3.56953
0.0217642
4.94645
0.0237221
0.12029
4.90028
0.0438364
3.54354
0.0222741
9.05972
5.23831
0.0220735
4.84005
3.69521
19.7531
0.659522
3.90478
0.0218848
0.0215934
0.120941
0.0233311
0.022104
7.75803
0.0221654
0.127329
0.0292963
5.55522
0.0220726
0.122304
4.66941
0.255725
5.69157
0.0220872
0.239952
0.0220963
0.0234607
0.228729
0.243495
7.55118
0.0701027
0.0221012
4.75337
4.55973
0.0473383
0.022019
6.81409
0.0307627
0.0236376
6.45311
0.021671
4.54866
0.0219496
0.0221142
0.360311
0.0432407
5.18774
5.4975
4.76641
0.0261025
6.86632
0.0220277
4.97189
0.0222015
0.0238022
24.643
4.61544
4.61472
0.384139
0.0219169
0.130148
7.34931
0.190659
0.134386
0.0425513
0.0472014
0.0220647
0.0218686
0.0461013
0.0218704
4.62068
0.0238
0.0218878
0.0308772
0.0218822
0.163008
0.0617174
0.11748
0.0286035
0.0217779
0.0218027
5.16101
4.97438
0.238991
0.0218025
0.0220937
3.98096
0.225301
0.12684
0.0219156
0.0572417
4.46016
0.0439533
0.0258706
0.0310114
5.27557
4.7917
0.06697
4.65495
0.0663086
4.67507
0.0359389
0.0434034
0.33955
0.0226154
0.0220273
0.110504
5.65753
0.023417
0.0216643
4.64033
3.57241
0.059756
0.133454
0.156954
0.0663212
0.227638
0.0222667
0.02205
0.0221023
4.96703
0.0401621
0.0232439
0.0222429
3.55747
0.0451664
0.121102
5.36947
4.01268
4.08354
6.37922
0.0303934
6.27254
0.0221027
0.0217814
0.0564347
0.0221392
4.78681
0.257452
0.142982
0.0217676
0.0307104
0.139887
0.219366
0.614063
0.0295534
0.0434854
21.8584
3.54563
0.120261
0.0294609
0.0222003
0.0218177
3.4659
0.0401233
7.53095
0.0257298
0.0232792
0.128762
0.116497
0.0220619
0.0221372
0.0734704
0.346547
4.64914
4.71615
0.0348796
2.91565
4.49048
0.023685
0.0425313
3.85287
0.0251659
0.126817
0.0220776
0.356993
0.0222347
0.0446734
0.0243535
0.0220839
0.202672
0.0221283
3.85289
0.0217659
0.122906
6.29692
4.70756
0.0291219
0.043018
0.0222639
0.0948272
0.0220106
0.0440574
7.5192
0.0290456
0.0251458
0.0221176
4.58837
0.0217584
17.5701
4.67074
0.165744
0.0222513
1.2062
5.32951
3.98143
0.126086
0.0319028
0.14844
0.180912
0.0307951
0.357628
0.0327372
6.29348
0.127348
0.0218485
0.0254477
0.131693
3.49912
4.60712
0.0218147
0.133906
0.0220246
0.169433
0.223551
0.0257701
0.0457364
0.130686
0.0219783
0.0450887
0.102703
1.80868
0.0220811
0.0220812
0.0292793
4.32075
6.86156
0.0437642
0.021817
0.219221
0.224735
0.105613
0.0450411
4.21117
7.52022
0.0262298
0.0319695
9.56448
0.0218575
0.0221017
0.108828
0.057268
0.0217542
0.0222319
0.0220022
0.0220002
0.0316086
0.022095
3.86263
0.041239
0.0219706
3.47236
3.99831
0.022189
0.124265
7.85836
0.0227313
0.0222129
0.0431756
5.50669
7.86519
0.0614089
0.0220727
6.17846
0.0220948
0.0669509
6.25051
1.58343
0.0231509
8.78192
1.75044
4.72963
0.156172
0.0466431
4.9343
4.04692
2.55084
0.0222
5.70188
21.811
0.817636
0.749859
0.0237042
0.0612344
0.0296408
6.16589
0.0490713
0.021874
0.0215318
0.0272837
4.59833
3.25367
0.0218502
4.5696
0.0298989
0.0313011
0.0233532
6.63874
0.217671
0.129424
0.0240975
0.0246823
3.4495
0.0222099
0.234844
0.0261216
0.0431105
0.0303928
0.0220236
0.0219678
0.158908
0.209174
0.127238
3.09726
3.51085
0.0234903
4.54462
0.202287
0.0217042
1.7915
0.0842532
6.12511
0.0267186
0.0649259
0.211717
5.36914
0.152203
5.26236
0.0225642
0.249662
15.7629
0.0294903
4.91678
0.031928
4.88544
0.0315739
0.037117
0.128371
0.282033
0.0220506
0.0258612
0.0618888
0.0308934
0.0219052
0.0440515
5.36988
0.0220149
0.0427398
5.88597
0.0238684
4.56588
0.040948
8.21814
0.0256519
0.0576729
2.26177
0.229426
0.0454878
5.49107
6.61009
1.06148
0.0219826
0.155852
0.032222
0.063945
0.0218176
21.0165
5.58317
5.29867
0.0246248
0.130487
0.242512
6.53634
0.0215984
7.38072
0.318894
23.9183
0.0337188
3.62369
0.0220338
0.0221269
6.67998
0.245344
0.0220383
0.0239771
0.0435544
0.0218157
5.57703
0.0613529
0.0827415
0.025125
0.0225776
0.0221868
3.73452
0.0219701
0.0221654
3.93643
5.38014
0.0254796
0.239649
0.0221032
0.0220938
0.0241809
0.129396
0.0405042
0.0219144
0.022762
0.223614
0.0231401
8.78882
0.0220748
0.0264839
3.97518
0.0355794
0.0215869
0.0221203
0.0250784
0.0221754
1.07161
4.053
0.0321536
7.79584
0.0242103
0.0220544
4.29731
0.212821
0.0353565
0.0220317
3.99428
0.0345847
6.59055
0.0220667
0.0312089
0.15756
0.03253
4.16707
0.240121
4.40374
0.0237575
0.160936
0.0219745
3.50352
0.0409152
0.116254
0.0319876
0.0238876
0.0355935
0.056792
0.0220943
6.9283
4.18779
9.12975
5.98121
4.05347
4.94106
0.231938
0.0280877
0.0222071
7.7806
0.0220434
0.0219055
0.0301519
4.88124
0.0237224
0.0226198
0.0906279
0.0461377
0.0220473
7.83166
0.0219217
4.57092
0.969797
0.0219458
0.0231757
0.323684
1.9675
0.0217608
10.3351
13.7446
0.0216748
4.9037
0.286626
0.122596
0.0237324
3.91436
5.96073
0.0216892
0.304796
0.0220955
0.0219221
3.55661
4.96966
0.0375911
0.0397721
0.0220448
0.0520484
4.57648
4.88484
0.021774
6.31521
0.021912
0.0221081
0.0459019
0.0264381
0.0215926
0.023654
4.99118
0.258353
4.77495
0.0234389
0.0220208
4.34821
0.0221788
0.156346
0.0265139
0.0308614
0.0318593
4.16929
6.12017
0.0255422
7.45471
0.0229786
0.0618055
3.76154
4.35672
0.0220949
0.0219794
0.048043
4.80981
0.229217
0.0511331
12.5106
0.0265427
0.0307414
9.89728
7.94678
0.16332
4.45141
0.162198
3.64231
0.0223891
0.241794
1.27484
0.0220763
18.2867
6.95497
0.0303769
0.0434475
0.0220574
6.82151
0.0776382
16.6186
0.0219707
0.0221657
0.0265355
0.0455888
0.0220846
4.71066
0.0221601
0.156815
0.023829
0.0653966
0.0220595
0.0220471
0.0462759
6.71358
0.0455618
4.5611
0.0312139
0.0218243
0.0217532
0.0569854
0.0227608
0.097469
0.0241147
0.0347329
0.229181
0.0221807
5.53329
0.0222536
0.0872085
6.43937
4.08258
0.0286478
16.7843
0.0877505
0.282825
6.842
0.0218299
7.78348
0.0298857
0.0304328
5.73361
0.981238
0.0217135
0.0948517
0.0220404
3.52287
6.97614
0.0221795
0.0738631
5.73735
0.0222634
0.0222521
0.0617362
6.85565
3.67552
0.0222198
0.129068
0.0229648
0.0220454
0.2055
0.130596
0.176227
0.0215832
0.102881
0.0463411
0.0537786
0.0226584
0.0231314
0.0731173
0.0263708
0.111897
0.0470845
0.0472439
0.133767
3.13445
0.293552
4.81804
9.80734
0.127073
4.20305
0.0397312
3.66445
0.125767
0.0218807
0.0301718
0.246801
0.0266557
0.021952
0.0219488
0.0874054
5.8639
0.0266398
4.51301
0.0218281
3.82755
0.151193
8.38802
0.0949411
0.0257823
0.0238144
6.93247
0.174608
0.0381477
0.242746
0.0224434
6.09045
0.0880175
0.159422
0.0317142
0.481982
0.0220304
0.0222453
0.0234011
0.0220441
3.75711
0.022
0.215855
4.23606
0.0977154
4.95376
6.52597
0.164636
0.304596
0.028594
0.0221799
0.0220661
0.0216798
0.0217536
0.0221412
0.0620708
0.156088
0.0502277
2.22106
0.0230273
3.79844
0.0222934
4.94004
0.0407433
0.0222835
0.0221327
4.08387
0.0258375
3.94257
6.89526
0.0415718
0.0623523
0.0216589
4.79138
0.0242904
0.023759
0.247372
0.0221832
0.0226198
0.0218246
0.0410294
5.62011
0.0287858
0.031922
0.348223
4.69544
0.0290901
0.0267216
3.7425
0.0216777
3.66967
0.0222021
0.0231459
4.06625
0.0730838
0.116035
0.0920568
0.045809
0.0222271
0.0222935
0.0667605
0.0224325
0.0222346
0.0270428
0.337336
0.0219831
0.261196
3.24161
3.59055
0.0907087
5.58817
0.0366473
0.0221753
0.150404
0.0218415
0.0258891
4.7456
3.49012
7.83015
3.87467
0.0222428
0.0221519
0.0702953
0.0229836
0.0218291
23.5732
0.172841
4.72484
0.0883972
0.0746157
0.0220453
0.0217698
5.38599
0.0832997
0.0234085
0.0222529
0.11569
0.185838
4.61443
0.0222548
0.0221517
6.84084
0.0226359
0.0319082
0.0218205
4.94792
0.0219168
5.82405
0.0220732
0.148013
0.0370317
0.0704557
0.0318726
0.022019
0.0240046
0.0220217
0.209861
0.0226431
3.75566
0.0225031
4.22318
4.33232
0.0303023
0.0220032
5.20469
4.13263
0.0259717
0.0727771
0.0220652
6.37183
0.0218973
0.248958
0.0220628
0.0220184
3.68722
0.0320136
0.0221102
0.0296596
4.5133
5.3653
5.78134
0.0218191
4.02134
0.0220737
0.0219905
0.022263
0.0214974
0.0222331
6.02731
4.90754
0.0221388
0.0221562
0.037835
0.0218823
4.99424
0.154139
4.75578
5.05152
0.0239754
0.111624
0.0220689
0.0393348
0.120464
0.0218137
0.0222104
1.48297
6.84226
0.0610679
17.5196
0.0563915
0.0221005
0.0398942
0.0739208
7.82093
0.0305356
1.56931
0.0852767
0.0222237
14.8017
13.559
4.32789
2.57707
3.48148
0.0237007
0.143898
0.0221681
0.505422
0.0261479
0.021876
5.8572
0.02293
0.0220043
0.0220926
0.022795
4.76362
0.237806
0.021867
0.0405874
5.59501
0.0230505
16.9854
0.0232075
0.0704852
4.88339
0.0220978
0.228813
0.0292438
0.0316329
6.05767
0.0229102
0.347771
0.0568549
4.75213
0.022093
4.38283
0.0292717
4.15807
7.98085
5.68569
0.0414696
0.0220341
0.0222502
0.0222632
0.0355318
0.0221233
4.26238
0.0287229
0.0278693
0.0288384
0.0236362
0.0218174
0.0256619
0.0271063
0.0231794
0.0268277
6.48789
0.204624
0.0284969
0.049888
5.89886
0.022668
4.66722
0.02169
0.0327723
0.0226522
0.0219213
0.0446294
0.0220489
0.0218619
0.0467143
0.0220569
0.317609
0.0226168
19.2784
0.706369
0.186281
0.262737
0.0220101
4.75952
0.141278
0.0222261
0.0270199
0.0225374
4.85607
0.0231921
0.0449384
1.73546
6.61918
0.0823627
0.0220847
4.12873
1.32039
3.60134
0.0291851
0.0218153
0.0217584
0.0615544
0.0220331
7.1844
0.15966
0.0221976
0.202801
0.326268
0.0218133
6.57547
6.45764
0.168134
0.0225995
4.10756
0.0617168
0.0220201
6.24376
0.026543
0.0218062
0.0219354
0.0297368
0.0358766
3.99174
5.3926
0.0373481
4.08578
0.0312664
0.0220159
0.0824008
0.0219549
2.82272
0.0217905
0.0220461
0.023897
0.0223966
4.27756
5.52835
0.220938
6.34454
7.87826
0.0290274
0.0220197
0.0226224
0.355552
0.0217736
0.0218973
0.0427288
5.62648
0.207344
0.021648
0.0386786
0.0320675
0.123759
17.0479
0.02167
0.021581
0.0231004
3.97056
0.026995
4.5763
0.02312
0.0221631
0.0218072
0.0219285
0.0243084
0.16449
3.69287
3.98252
0.028861
0.0220546
4.38092
0.0221756
4.89993
4.8149
0.0304034
5.55598
3.68762
5.04908
0.048445
0.0303131
3.84478
0.0293522
0.0334838
0.0719652
0.288789
0.022405
5.26768
0.0220182
4.57922
4.96749
0.021694
0.0238376
0.045485
0.356164
0.031741
0.0221427
0.0267093
0.0232125
0.0248908
1.20463
0.0221626
4.19713
5.64625
0.0220208
0.0294275
0.0356426
0.0220824
3.42971
15.3996
4.83481
3.37725
0.0220374
0.024427
0.0261562
0.0222716
0.222234
0.0320063
0.0222565
0.0553843
0.0258029
4.65608
0.0370994
6.98308
0.0231145
0.0230818
0.0496938
0.0840274
0.0666189
0.0219814
17.144
4.09293
26.2779
4.64882
4.66956
3.98933
4.2402
0.0219851
0.0220219
0.0219364
0.227572
0.0400277
0.0665199
7.43221
0.0220457
0.0216625
0.0220425
0.197708
0.0216545
0.0257293
0.0235759
3.94489
0.0229138
0.0218494
0.0220859
0.0219682
0.0221629
0.0341648
0.215055
0.0336062
5.49114
0.0220308
0.0219289
4.45439
4.52889
6.54651
3.64913
0.048236
3.75432
0.0218109
0.0607249
0.0230864
0.0220787
0.0236179
5.25978
0.022766
0.0852311
5.39724
0.0221129
0.0219113
0.0263556
0.168021
0.0222719
3.94747
0.0219215
0.194016
0.0221258
0.0221392
0.0260257
0.0979712
0.0221185
0.206716
4.60039
0.169502
4.83651
0.022035
6.55154
0.24721
0.0220471
5.18546
0.0222659
0.0423482
0.0222048
0.0219819
0.02196
0.0220458
0.0223699
0.0271296
0.0599501
0.0221377
0.022097
0.0633811
0.0216917
8.7954
0.0221261
0.0306165
0.0310001
4.96103
1.00344
0.0221472
0.169904
0.0218157
0.0283687
0.0689207
3.37386
0.0433409
0.0222723
0.0990867
0.0757483
0.0742325
0.305411
0.0354446
0.13858
0.051183
0.0603244
0.0228778
0.0218161
3.57049
5.60385
0.0243205
0.0220162
16.2677
0.0218309
0.039161
0.0219582
0.0814435
6.37527
0.0215304
6.4364
0.025511
0.0221706
0.140408
0.0218764
0.0406003
3.30923
0.0377519
3.62448
0.0219547
0.0222647
0.0438018
0.0222258
0.0222465
0.0265653
0.0284552
0.0605702
0.0856007
0.0220869
0.0386398
0.0218078
0.0220619
0.022215
0.0220503
1.61249
0.0218218
0.023247
0.237384
0.0218261
0.0220046
4.43986
0.0222496
18.7279
0.0228987
4.52435
0.210716
0.0516135
4.09385
0.064061
2.04541
0.0222622
0.188775
0.026575
0.0218045
0.0218891
0.0232291
0.0295309
0.0219603
0.0532264
0.0219029
0.0230572
17.5319
7.70699
4.34876
0.0235747
0.0471062
5.02358
5.93617
0.0221729
0.0254726
2.03204
0.0220776
0.0393798
3.68757
3.99693
0.0260013
0.0388625
0.0227074
0.347261
0.0222851
0.0355398
3.57052
0.0221586
0.0218581
8.91328
0.0424305
0.232903
4.93981
0.0879814
0.0224068
0.0219071
0.0221693
4.91962
1.11581
5.32304
0.0551801
0.0220437
4.65886
0.0221094
0.161647
0.0267042
0.0229191
0.0397091
0.0220569
6.79381
7.82906
0.0216333
0.0613804
0.0410777
3.99193
0.0429417
0.0506422
0.229153
0.0310751
0.202314
0.0531184
0.0221121
0.0324598
0.0813628
4.01887
0.0220332
1.08374
0.0453249
0.0533298
0.0222726
7.87942
0.025286
0.0235352
0.0218393
0.0387275
0.0375315
0.0557825
0.0221281
0.0226183
0.0561439
25.7364
0.059507
0.0221573
0.022627
0.032313
0.208023
0.0221717
0.0892301
8.80766
0.0472437
4.23867
0.0353719
7.7762
0.339616
0.0219852
1.70159
0.0222385
0.0247425
0.0302086
0.0322507
0.0953038
0.0412848
0.042578
0.0444316
0.0300684
0.0239913
0.0216482
0.0839418
0.0247315
0.0286114
0.79123
0.0258143
0.0300649
0.021945
4.74517
0.0817269
0.0220861
0.0241213
0.0232763
5.50182
0.155376
0.0301845
3.90301
0.279966
1.06664
0.0859246
0.230094
0.0218902
0.311348
0.0218873
0.0268522
9.54678
3.40382
0.337116
1.84323
0.0221217
6.60937
0.0218872
0.0721765
0.0250268
3.59344
5.97495
0.0248696
0.0220232
0.316243
0.0428412
0.0220175
4.53539
0.0220697
0.0236124
0.0247193
0.0221989
0.029865
0.0233431
0.0220409
0.034241
0.469963
0.0369434
0.0596359
0.0220132
6.44911
3.46628
0.0220042
0.238614
0.0249716
0.0290785
5.18512
0.0220008
0.022666
0.0277766
4.42388
0.0220283
0.0221828
0.0379233
3.54041
0.0219873
0.0318648
0.0338358
0.686211
0.0448065
0.0377642
0.199208
0.0220749
0.122134
0.0217109
6.33488
0.0293292
0.0220474
0.0257198
0.0938083
0.0221506
0.0220556
0.127751
3.96505
0.0221637
5.67034
0.0221878
0.0216996
0.0599841
0.0220326
0.02182
6.96222
0.0222736
0.0374183
0.137776
4.98362
0.584789
0.0217579
0.0239921
0.0279745
0.0220746
0.0220327
0.0220953
2.91048
0.0221954
0.198378
0.104107
0.0218498
0.0217012
0.0290834
0.104221
0.238443
0.0556036
0.0601903
0.0236896
3.85307
0.0771726
0.028249
0.0367424
0.0650648
0.0872662
18.1156
0.0342669
3.65492
4.06646
5.56343
0.0240704
0.0219481
0.0368891
0.034234
0.021776
0.0221664
0.133842
0.0222434
0.0222348
0.0220499
0.0215846
0.0230772
0.0219672
6.75278
0.0220201
8.73985
0.0220821
0.0873654
0.022433
0.106493
0.078563
0.0220382
4.90254
0.0239746
0.0222256
0.0361875
0.021798
0.0305745
0.0219091
3.80948
0.0239929
0.0395416
0.10279
4.84164
0.0281692
0.200477
0.746992
0.0504344
0.0220077
0.0227233
0.11065
0.060453
7.27386
0.0217572
5.10776
0.0220701
0.0896761
9.09217
0.0353838
3.45831
0.0250067
0.0306699
0.024671
7.67892
0.0303895
0.0221421
0.0483197
0.130038
0.02319
0.0220358
0.0221434
5.11972
0.0222522
0.0274542
4.62596
0.0258805
0.0219818
0.0559961
0.0247021
4.66414
0.0216619
0.0220132
0.0218648
0.0260252
0.0222506
0.0220264
0.0564358
4.31841
0.0219664
0.0221027
5.12718
0.0220641
6.0205
0.0231309
7.55182
0.0218463
0.0242103
0.0218135
3.788
4.84411
0.0301425
0.0712173
0.0268502
0.0219402
0.0221169
3.87376
0.0221369
0.0717225
0.0217863
0.037437
0.0221899
5.46184
0.0218384
0.0399395
0.0218625
0.52923
0.98418
0.0217822
0.0440086
7.36469
0.0597952
3.88336
3.3178
0.248651
0.0233904
0.0321963
0.0872574
2.42832
0.022008
0.034144
0.0280252
0.0219634
3.95417
6.14619
0.0611098
0.138842
0.321389
0.0330077
4.36154
0.0217692
0.0217785
0.0958501
8.14204
0.204152
0.155783
1.01718
0.0218116
7.9068
3.81574
9.77541
0.0222028
5.51213
5.35736
1.07334
4.12005
3.83243
0.0743242
0.029545
0.161387
0.0255423
0.0219665
1.54078
0.0823605
0.0216325
4.69983
0.0221886
0.0290987
0.0387867
0.0266334
0.741297
0.0346254
6.23711
0.0392458
0.0261602
3.56071
5.14674
0.124859
0.0223699
0.0257646
0.0673352
0.0584362
0.0218324
0.0456444
0.0622227
0.139178
0.0219703
0.176606
0.0241766
0.048683
4.08893
0.197096
0.0230731
0.134018
4.772
0.0221583
0.0227153
9.11757
0.331341
0.024066
0.0242424
0.0220911
0.0739777
0.0245434
3.68917
0.0955224
0.0224997
0.0222233
0.0671219
0.0293836
0.281607
6.47691
0.0218715
0.0220312
0.0272912
0.0221946
0.0238406
0.0228151
0.0225977
0.025734
0.0219349
0.0246826
0.0221804
0.0417209
2.13498
0.0222642
5.58125
11.2951
0.02171
0.247512
0.134734
0.0862992
0.0226995
0.0817982
0.0261718
0.0800195
0.0283231
0.0230742
0.0222094
7.1943
0.026312
3.66915
0.0226869
0.0220338
0.0220202
0.0700344
0.0219609
0.0456269
0.0534513
1.71753
0.0219168
0.280299
4.12727
4.06107
0.0218044
0.136629
1.02921
4.30422
1.3047
0.0225463
0.0222323
0.164181
0.834419
3.08369
0.0373059
0.239783
0.0222315
0.0218168
0.0397276
0.0221959
0.0221303
0.159548
0.0222653
0.0906807
0.0218356
5.11696
5.43191
4.57727
4.06284
4.16529
0.0221216
0.0221452
6.91398
0.0217686
0.0217917
0.0216995
0.122623
4.95336
6.6561
0.0274735
0.0219765
0.0230126
0.0370213
5.31088
0.0220371
3.39903
5.23759
0.0221889
0.0221777
4.06172
0.0682656
0.0228642
0.0220386
5.8097
4.38823
0.0219331
0.174704
0.0222535
3.99889
3.23824
0.022984
7.28101
6.90695
5.43452
0.0218233
0.0220075
0.0222448
0.0222861
4.63444
0.0219089
0.243856
0.228522
8.66773
0.0225166
0.0569841
0.275684
0.0462132
6.81266
4.73324
0.0216346
0.0248669
0.0250252
0.122639
4.2972
0.0215729
5.34658
0.0318982
0.0384049
0.0227111
0.0219477
0.274731
0.0387583
5.0094
0.0221958
0.0537815
0.0224444
0.108064
0.0237427
4.2271
2.81845
0.276084
0.0825148
0.0219636
0.0237576
0.0765968
0.227525
4.26387
7.11066
0.0221496
3.59012
0.0935702
5.55556
0.0253432
0.0419738
0.0376559
0.0220285
5.55893
0.0220688
0.0306906
3.44648
4.96013
1.47299
4.81863
0.0281005
0.0447213
0.0217322
5.14496
0.027043
5.75401
0.02172
4.8002
0.0215373
0.0219993
0.0303498
0.0312442
0.032324
0.0219709
3.74291
0.0387867
0.021912
0.0368481
3.88236
0.626129
0.0220311
5.06046
0.0241689
0.0313129
0.0296442
0.021693
0.0607168
0.0219921
8.82226
0.0809688
0.0255208
0.0220253
0.35286
0.0373286
0.0217189
5.03302
1.20219
0.213408
0.02162
0.541416
0.0221412
0.145684
0.0262483
0.119831
2.44813
3.90433
0.0342026
4.81911
0.0487093
0.0283097
0.0218234
5.2148
0.114354
0.09783
0.0622765
0.0222435
3.60225
0.0843685
0.358648
0.236274
6.9812
3.69196
4.60906
5.05409
0.0286939
0.0314755
0.0220956
0.022018
0.0215916
0.152187
0.0288527
0.0329815
5.20562
0.0219359
0.0218583
0.0367872
0.129655
0.0267285
0.0218136
4.73068
0.0238932
0.0412236
0.022194
5.87183
0.0286191
5.96411
0.0560284
0.0321182
0.0513136
0.0220884
8.05376
0.284377
0.0661837
0.0220347
0.0219102
6.89672
4.76645
3.47319
0.0218193
0.067507
0.347814
0.0219852
0.0220068
0.0220595
4.81808
0.102163
0.0340561
0.025787
0.0251029
4.66503
0.0881196
0.218039
0.0251542
0.0307023
0.021577
0.126788
0.0535843
0.0220105
3.82272
4.8115
4.38197
3.97645
5.00279
8.75554
6.86057
0.0231217
0.02179
5.97528
4.99321
5.56741
0.0220609
0.037118
0.0220457
0.0219625
3.12121
5.10463
0.0569945
0.0220006
0.252031
0.0839458
0.0455836
4.24263
1.50757
0.239684
0.0219155
4.21227
2.3995
0.35163
0.0296976
0.0393534
0.0221735
0.0218744
0.037028
0.0430955
0.0242362
0.036329
0.0267082
0.0248613
0.215272
4.11583
0.0313576
0.0377796
4.11155
0.187123
0.0221114
0.470586
0.96371
4.6974
0.0392951
0.0220714
0.0282734
0.0264338
0.0299678
0.0216909
0.0330671
0.0291443
0.040785
0.241435
0.0222306
0.0228879
3.78406
3.94753
5.01511
0.29095
0.0975593
0.0215226
0.0220446
0.0291499
0.0217267
7.28366
0.0220352
0.0222733
0.0217215
3.76952
18.8846
0.0224072
0.055577
0.0278169
0.0351494
0.0289651
0.0352416
0.0368245
0.0360898
4.91057
0.0253479
4.66495
0.0378963
5.02522
0.0285243
0.0219355
0.0218186
0.0843122
0.128644
0.0218259
0.0389949
0.0286665
0.0561984
3.98314
6.8655
4.41857
0.0222731
0.498089
0.0295413
0.0358487
0.0220262
0.0657874
0.023604
3.61571
2.08523
0.0389085
0.0220777
3.92214
0.0272383
4.34588
5.06873
0.222043
0.024123
0.118114
4.51946
0.449979
3.84451
0.056824
0.0219205
0.0385932
0.0218114
9.44995
0.0244865
0.0307614
0.246296
5.02842
0.0218908
0.0219547
4.49054
0.0399396
8.76374
0.032839
0.0220398
0.0404521
0.189855
0.0432921
3.52278
0.0351963
0.371125
0.0247137
0.0222447
0.0219393
0.270346
0.0226582
0.128303
0.0220469
0.0219806
0.260387
0.0251438
0.0220361
0.0220362
0.0344334
0.336528
0.0380372
0.0371395
0.0263182
0.0571647
0.0220337
0.155712
0.029302
0.0399259
0.068677
0.0262233
0.0852821
0.0449779
0.0217956
0.0596303
6.8328
3.27728
0.0220292
2.08426
4.3055
0.0219619
0.0226602
0.846027
4.12468
0.0278308
4.13139
0.335631
0.0219383
0.0739929
0.0215904
0.02527
0.0571348
10.0833
0.527622
0.226831
0.275489
3.90203
4.01333
0.0229236
3.79457
0.0220332
2.60647
4.08067
0.0220997
0.0220833
3.42952
0.0221138
0.0220847
0.279719
4.47698
0.194897
0.025115
4.16936
0.0221039
4.05785
3.91101
0.0221902
0.299745
4.48329
4.55486
3.56806
3.80124
3.63828
0.021879
0.0231912
0.0569739
0.0577966
0.0220788
0.182667
0.0220378
3.70777
0.267771
0.0490615
0.241175
3.64249
0.26239
0.214149
0.0617678
7.93085
0.465157
0.0244664
0.0216327
3.02406
0.0344278
0.0217662
7.65873
0.0219732
3.27089
0.0221415
4.90578
0.024565
0.0219773
20.3022
0.0274236
0.0352509
3.68264
6.78751
2.17306
0.0262416
0.0394713
0.0232817
0.0352965
0.112874
0.036115
0.0222096
1.65403
0.0560321
0.0325207
3.98116
0.0376291
0.0366817
0.205339
0.068009
0.0397036
0.0219729
0.188535
0.0218174
0.111095
0.196126
4.42144
0.0218726
0.0373395
4.77396
0.0229131
0.06128
0.0287664
0.0397082
6.04662
0.0552294
0.0234221
15.2861
0.0218835
3.89806
0.0221255
0.0227608
0.109232
3.53059
0.0319541
0.387494
0.596106
0.0290813
0.0221272
0.161309
0.0428294
5.10107
0.0265081
11.966
0.12694
0.0289178
0.0283365
0.103187
0.0362193
0.0731906
0.0548176
0.0377696
0.0240016
0.0219767
2.09078
0.022008
0.0279007
0.0216073
0.0952353
0.028145
0.0540273
3.94784
0.0230202
0.20241
0.0215174
0.0221511
0.022189
0.0222065
0.0253015
0.0219408
0.0750564
7.57733
0.0531729
0.041543
0.024246
0.0220094
0.203628
0.0220225
4.3786
4.83199
5.00451
0.126951
0.0342546
0.0258609
0.0221779
0.0296043
0.0972226
0.0412815
4.27212
0.0523806
5.42241
0.1297
0.0222102
0.0218424
3.3267
0.0219478
0.0283202
0.0651794
0.320685
0.0229183
4.55314
0.0221734
0.0254759
0.0220474
0.0226126
0.164397
0.0930213
0.0221662
0.0298328
0.0353011
0.0417955
0.0510173
0.516533
0.356314
0.264534
0.117648
0.0248983
0.0228363
0.0502133
3.50642
6.67406
3.97352
0.0295862
4.10594
0.0914008
0.0225809
0.0219931
0.0542439
0.0221443
0.0296547
5.72998
0.0219621
0.0217922
0.489717
3.19321
0.0414938
1.34317
0.0221135
5.59423
0.0407969
5.09729
0.029204
0.0220286
4.08616
0.0596313
0.0220267
0.0720068
0.0222528
0.158195
0.0282698
0.0538466
7.69889
0.0333881
5.24936
0.0219303
5.41563
0.0221235
0.0255959
0.0224246
0.0445044
0.0221439
0.0554396
3.85306
1.05398
0.0459607
0.0316148
0.0762136
0.0218899
0.0219568
0.0227569
1.14279
0.0245925
5.1034
4.52651
0.139834
0.0222154
0.144275
0.221623
0.132063
0.0247506
4.77064
0.0219726
0.021529
0.0219579
3.44772
0.0220243
0.0220115
3.96748
0.021972
0.156644
0.100114
0.0217544
4.29433
0.0263951
4.86959
0.0219067
1.00977
0.0227138
0.0707764
9.61196
0.0592095
0.0219435
0.0258549
4.56992
0.0295858
0.147486
0.0295347
0.0259617
0.141622
0.028816
0.0220631
23.7353
0.0285909
0.0265377
0.126827
0.021968
0.0218576
0.022189
0.0284913
0.0221231
0.0257101
5.39206
12.7078
0.102787
7.41205
0.0537197
0.0311421
5.17016
4.97109
0.0224333
9.32306
9.02921
3.88719
1.77912
0.0299921
4.52075
4.10349
17.9831
1.76003
6.49141
0.0424423
0.0827654
0.0292714
0.0249349
0.0221629
1.40798
0.0222851
4.96127
0.12374
0.335682
0.0215977
0.0652503
0.0455165
0.0235722
0.0222931
0.0221186
0.122566
0.0231425
0.0221193
0.0361041
4.72781
0.0238077
0.154786
0.0218301
0.125139
0.082649
0.0221554
0.0264604
0.0219438
4.92324
4.52466
0.143985
7.51414
0.0327935
0.079094
0.022132
0.0370032
0.0220601
0.0222475
0.0222332
4.83277
0.0217741
0.0402381
0.745395
0.0275587
0.0292438
0.0219951
5.48017
0.18638
14.2069
4.61591
0.16122
0.276976
4.28516
0.31159
0.193823
8.72595
0.124186
0.0335596
1.54119
5.33717
0.0220424
5.32136
0.150642
5.52026
0.0216152
0.0559983
5.673
0.0222731
4.85449
0.0253719
6.60839
0.0220921
0.0221006
0.0645519
0.223668
0.0254799
0.0603269
0.0217804
0.0220668
3.5965
5.6696
7.09838
0.047491
0.0220473
0.0224335
0.0221361
0.0356422
1.12624
4.52678
3.6936
1.41259
0.0311385
0.0219528
0.0219831
5.5757
6.56435
0.275212
0.0263036
0.0245427
0.08234
5.0246
6.21714
0.0215206
0.0219561
5.04614
0.0228816
0.252184
0.0277808
0.0220594
0.0319713
0.0460943
4.54481
4.69246
0.0222022
0.0217911
0.0244612
0.19755
5.73304
0.022265
0.12843
4.46931
0.0215298
3.02852
4.14444
12.7664
0.0221102
5.68474
4.92056
0.0383055
0.31385
0.023883
0.305276
0.310629
0.0248643
0.0219418
6.79973
0.671891
0.0218638
0.126295
0.135609
0.0285038
0.23287
4.62391
5.47703
5.44548
0.0266169
0.0235378
0.0228249
4.57456
5.02804
4.78703
5.98903
4.58945
0.0217171
0.0399293
0.0220676
0.0221154
0.024677
0.0219654
0.0220576
0.0221661
4.41393
11.9727
6.98161
0.0558443
0.172425
0.0362118
0.0218533
0.0219871
4.36677
0.0221391
5.84195
3.9041
0.0221792
0.0218736
3.60624
0.0224899
0.546264
0.0253461
0.0217514
0.0217128
4.42123
0.0216797
4.75918
4.23731
0.0215724
0.0433594
0.021896
0.0227176
0.0218322
0.11169
3.93408
0.0219688
5.1358
0.464926
0.0238833
0.0218644
0.0226167
0.0233807
0.0222263
0.483812
5.32166
5.91048
0.0364178
6.89372
0.0222725
0.0251168
0.0220475
0.171973
0.0233222
4.818
0.0218617
3.88345
0.279187
5.83006
0.138105
0.0218579
0.0418468
0.0219047
4.2684
0.0219567
0.0281414
0.0260011
0.0250462
0.0221115
0.022251
0.0322088
5.17291
0.0221841
0.0227173
0.0236369
0.0331354
0.152017
0.0221883
5.28495
3.83178
0.0236112
4.94387
4.7837
3.52217
6.46433
0.0215429
0.0229807
3.76852
4.26289
0.13442
3.99654
4.43808
0.0320646
0.0459216
0.0291473
4.19568
0.0220334
0.0219654
5.5872
0.114151
4.99434
0.0242635
0.0217135
0.0220434
5.14113
0.0640581
0.0237488
0.227026
0.0218143
0.055151
0.0292367
0.0294552
0.0219089
0.022189
0.0219191
0.0242856
1.34328
4.94007
0.0215808
0.0218913
4.825
0.0220496
0.0625057
0.0259101
0.0255131
0.0347745
0.0222857
4.15929
0.028451
0.0252319
20.8437
0.0772252
0.0231594
0.030236
0.0220246
0.0224301
7.28103
0.282889
3.42916
0.0222062
0.0221545
0.0585329
0.0270299
0.0220275
0.0355784
4.70386
0.0255728
0.0399401
0.0251601
0.108149
0.0221157
0.0216962
4.8792
5.20809
5.08237
0.0219683
0.138294
0.0216052
0.0220188
0.0617453
4.61379
0.061712
0.0275682
0.140077
0.022629
0.028369
0.0499919
0.764423
0.0222338
0.0216417
0.0225438
0.0239242
0.0259892
0.0219568
1.2137
10.135
0.0220515
0.0317535
0.0224068
0.0216498
3.77355
6.03246
5.97628
0.0689289
0.0223766
0.0514693
5.18414
0.0950845
0.088953
0.0335741
0.02952
5.19364
0.200755
0.719331
0.021764
0.0302384
0.0221103
0.0296321
7.69486
0.0216287
0.0397044
0.0253853
0.0295852
0.022988
0.021783
0.0218783
4.26012
0.0428028
0.0291889
0.061362
0.0343682
4.10116
0.0308716
0.481719
0.0219221
5.35253
4.8488
7.13243
0.0222646
0.0304682
0.0220847
0.0219558
6.09995
0.0431854
5.25165
0.0219904
0.0445636
0.123603
4.63916
0.0278499
0.0216445
7.10388
0.0222852
0.0222842
0.0225358
0.0220328
6.35198
0.0218167
0.0218724
0.0357012
0.0270975
0.138931
0.12665
0.0330475
4.52208
0.0219193
0.16985
0.0217701
5.08923
0.0333844
0.47087
0.13471
2.63362
0.0974356
5.14448
0.0229179
6.67584
0.0321523
5.08501
0.19191
0.0279079
0.212371
0.0221412
7.54731
0.0229502
0.036958
0.026975
6.49917
0.12823
4.65968
0.0306836
0.0220114
5.02256
0.229798
0.0508813
0.13923
8.95725
5.46172
0.0383508
0.261597
0.0400443
0.0218755
0.0469199
0.250071
0.0677493
24.749
0.117803
0.0217957
0.0219153
0.134351
0.0220862
5.38024
0.0691829
0.0220843
3.78743
0.664645
3.36306
0.10529
0.0219663
0.0287873
0.0256665
4.78792
3.71244
0.0256303
5.36899
0.0218606
0.0313545
0.943008
0.0219988
0.0390606
0.0219286
0.0258737
0.0222513
0.159245
0.379954
0.0299113
0.029052
0.0217122
0.13663
0.0218763
0.021824
0.0327621
0.0219219
0.208217
5.40636
2.89498
4.4601
0.0217821
5.38765
0.0221892
0.0370278
0.128597
0.021995
8.1624
0.0679808
0.0220314
0.0216376
0.0401491
0.0369958
0.175425
0.226357
0.0257318
0.0237756
4.08172
0.0568791
0.247542
0.793977
12.797
4.01173
5.2573
1.12606
0.0221507
0.0221148
0.0455955
0.0221985
0.0493779
0.0345312
6.52229
5.6146
6.47174
0.0216845
0.0217715
0.115598
0.247024
4.75499
1.16588
3.67376
0.0546176
0.0324904
1.07725
0.280836
0.0256315
5.25119
0.0328986
0.0293827
4.58497
0.0384161
0.0219177
4.65011
0.889287
0.0241294
0.135736
0.0233684
3.75059
5.83042
3.09377
0.0220103
0.0216838
0.122376
0.0220121
0.0219021
0.0220161
0.0217282
0.0220219
0.0220292
5.21883
0.0275815
0.0459403
4.48687
0.0218993
0.0220385
0.0304592
0.0251531
0.0256557
0.0220471
0.0639035
0.0302211
0.026296
0.0840425
4.39556
0.0220589
0.0398467
0.0220717
0.0220318
0.0215762
0.0220847
4.69315
0.0218824
0.0220222
0.0220984
0.0426362
4.40956
4.50865
5.50097
1.36306
0.0420758
4.42018
6.74404
0.0219535
0.0418304
5.86076
0.228932
0.0221128
0.0270182
0.0402696
0.0375633
0.022061
0.0376319
0.057874
0.0438428
0.0216327
0.0517088
1.36613
0.0215804
1.53966
5.21162
0.0418637
0.652473
0.0347996
0.0220904
0.0250858
0.0220107
0.225557
5.34414
0.0216771
0.0428578
0.0219711
0.0219807
0.0221886
0.0222859
0.0368323
0.0221726
0.123332
0.140637
0.025535
0.0243599
0.0431631
0.0220455
0.0438485
0.030896
0.0223197
0.0221027
0.022142
5.36253
0.0220128
0.2372
0.0385472
0.0222533
0.0220318
0.0217393
4.64584
0.0251088
0.0422383
0.0505351
5.62655
0.0280084
4.25124
1.48917
0.0420629
0.0219703
0.206335
0.0373992
4.96904
0.068437
5.1315
0.0216415
0.048277
0.0473884
4.56068
0.0220029
0.0415295
5.79866
0.0218527
8.38693
10.5835
3.56173
0.021975
0.0217697
5.11461
0.0220469