/*--------------------------------*- C++ -*----------------------------------*\
| =========                 |                                                 |
| \\      /  F ield         | OpenFOAM: The Open Source CFD Toolbox           |
|  \\    /   O peration     | Version:  v2012                                 |
|   \\  /    A nd           | Website:  www.openfoam.com                      |
|    \\/     M anipulation  |                                                 |
\*---------------------------------------------------------------------------*/
FoamFile
{
    version     2.0;
    format      ascii;
    class       surfaceScalarField;
    location    "1000";
    object      meshPhiCN_0;
}
// * * * * * * * * * * * * * * * * * * * * * * * * * * * * * * * * * * * * * //

dimensions      [0 3 -1 0 0 0 0];
oriented        oriented;


internalField   nonuniform List<scalar> 
20537
(
0.000942852
4.37377e-05
-0.00099351
-0.00118311
0.000873151
0.000309763
0.00011884
0.000457041
-0.000576156
0.0015598
-0.000849088
-0.000716963
-0.000344411
-0.00021944
0.000563672
-0.000834136
-0.000292818
0.00112429
0.00111207
-0.000891797
-0.000233987
-0.000342033
0.00069804
-0.000356541
0.000471184
-0.000617332
0.000129168
-0.000800609
0.000355941
0.000444272
0.000117492
-0.000319699
0.000201303
0.00054136
2.9831e-05
-0.000571249
-0.000262838
0.000335734
-7.29148e-05
-0.000139367
-0.000208003
0.000347371
8.58784e-05
0.000231982
-0.000379673
0.000476694
0.000330598
-0.000808689
-0.00106816
0.000314255
0.000751046
0.00013278
0.000733349
-0.000868972
-0.00021943
-0.0001827
0.000402086
0.000597751
-0.000144307
0.000705341
0.000844043
0.000671813
-0.000553284
2.18769e-05
-4.46766e-06
-2.43366e-05
-5.14039e-05
5.45002e-05
-3.18007e-05
3.00628e-06
1.18947e-05
0.000357188
-0.000699821
-0.000826713
0.000662748
0.000161853
0.000135362
6.87835e-05
0.00125989
-0.000324131
0.00120832
-0.000180883
-0.00103216
0.000270626
-0.00110717
-0.000568401
-0.000502263
0.000718509
-0.000261798
0.000398106
0.000244677
-0.000643567
3.72676e-05
-0.000118455
0.000246126
5.79768e-05
-0.000304128
-0.000341034
0.000167744
0.000173278
-0.000253273
-0.000224764
0.000477962
-0.000584636
-0.000216271
0.000869122
-0.000471938
0.00119614
-0.000671336
-0.000540446
-4.2934e-05
-1.41101e-05
5.44393e-05
-0.000174487
5.83034e-05
0.000116184
-0.000223049
-8.33782e-05
0.000306007
7.23842e-05
-0.000295765
-0.000277692
0.000157638
0.000120054
-8.51577e-05
0.000299137
-0.000213961
0.00105
-0.000304797
-0.000746259
-0.000634686
-0.000193908
-0.000795693
0.000687249
0.000104561
0.000288631
-0.000512171
0.000223391
-0.000219912
0.000438918
-0.000219058
-6.8507e-05
0.000165207
-9.67003e-05
-3.92681e-05
0.000167779
-0.000187452
4.12248e-05
0.000115979
-0.000213019
1.25696e-05
-5.78527e-05
1.76356e-05
-8.42932e-05
5.10269e-05
9.39646e-05
0.000120637
-0.000214602
0.000987959
0.000214806
-0.000917101
0.00112419
-0.000219428
-0.000489359
0.000236001
0.000267054
6.62916e-05
-0.000333358
-0.000400828
-0.000689223
0.00108797
0.000207013
0.000267443
-0.000474566
-0.000944991
0.000187067
0.000757178
-0.000307288
0.00108159
-0.000779276
-0.000187322
-0.00015372
-5.27188e-05
0.000304518
-0.000343722
-0.00033943
0.000682481
0.000901679
-0.000771967
0.000159485
-3.14933e-06
-0.000156335
-0.00012108
-0.000149736
0.000270811
-0.000728139
-0.000455094
-0.000270098
0.000162014
0.000306993
-5.86148e-05
-0.000297828
-0.000207053
-0.000379629
0.000575607
0.000176318
0.000495297
-0.000147332
0.000210589
-6.32568e-05
0.000642272
-0.000373965
-0.000268683
3.37445e-05
-0.000171544
-0.00112125
0.000336813
0.000774878
-1.73759e-05
2.55294e-05
-8.11527e-06
0.000746056
-0.00104574
0.000271143
-0.000153587
0.000273615
-0.000120029
0.000611435
-0.00101437
-4.37008e-05
0.000585
0.000305022
-0.00108922
0.000780953
-0.000731193
0.000564379
0.00016661
0.000735238
6.78818e-05
-0.00080535
-0.000468925
0.000362098
9.93281e-05
0.000372126
-0.000126023
0.00135179
-0.000779163
-0.000577508
0.000206292
0.000813977
-0.000426383
-0.000388795
0.0011164
-0.00038359
4.07772e-05
6.5934e-06
-6.32318e-05
-0.000500962
0.000156391
0.000312025
-0.000254519
-5.75105e-05
-0.000633397
-0.000165759
3.40936e-05
-1.19949e-05
0.000265167
-0.000277497
1.23332e-05
-0.00035995
-0.000226717
0.000586382
0.00120945
-0.00051861
-0.000698804
0.000542995
-0.000757569
3.60783e-06
-5.561e-06
6.27526e-07
-0.000307554
-0.000740116
0.00104443
0.000282191
0.000229866
-0.000512278
-2.43251e-05
-6.00423e-06
2.85378e-05
0.000147929
-0.000243017
-0.00109304
0.000797638
-3.74174e-05
3.53901e-05
-1.78052e-05
-0.000348129
-0.000128533
0.000747426
0.000599332
-1.4145e-05
-1.33295e-05
-8.44335e-05
2.57874e-05
-0.000452906
0.000974603
0.000188747
0.000123271
4.13985e-05
-2.91044e-05
-1.467e-05
-6.94044e-05
-4.27026e-05
7.25749e-05
-0.000179051
3.74516e-05
9.38033e-05
-0.000172115
-2.37254e-06
-0.00041528
0.000955832
9.89441e-05
-0.000361801
0.00105012
0.000320534
0.000727963
-4.4595e-05
0.000205998
-0.000164702
0.00106969
-0.000750632
0.000483364
-4.94908e-06
-0.000478703
0.00138382
-0.000686868
-0.000181468
0.000411119
-0.000229722
0.000492804
0.000684356
0.000156296
-0.000528588
0.000345518
-2.14737e-06
0.000161632
-0.000205731
0.000921438
0.00053674
-0.000125462
-8.71601e-05
0.000180606
1.6987e-05
2.13512e-05
-0.000139616
-0.000139498
0.000279107
0.000443953
-0.000275499
-0.000168458
0.000248808
-0.000479869
0.000231083
3.98947e-05
0.000225273
-0.000166072
0.000146617
0.000889884
-0.000384789
-0.000513562
1.04968e-05
9.71012e-05
-0.000110477
0.00047418
-0.000906493
0.000428181
-0.000303351
0.000219509
-2.12417e-05
9.24906e-07
1.96345e-05
-0.000477001
0.000295435
0.000858888
0.000235942
0.000280642
-0.00020857
0.000461739
-0.000213949
0.000129658
1.51082e-05
-0.000195368
0.000169559
-0.000308924
5.70745e-05
-5.30368e-05
-1.27952e-05
-0.000662699
0.000672235
-0.000554841
0.00102439
-0.000138844
0.000818865
-0.000697006
-0.000853039
0.0010463
-0.000198147
-0.000348586
0.000128623
0.000513098
-0.000224631
-1.39306e-05
1.37355e-05
-1.49082e-07
0.000726128
-0.000395046
-0.000332007
-9.06626e-05
0.000184627
0.000435175
-0.000302987
-0.000869889
-0.000287769
0.00115434
1.21627e-05
-0.00010233
8.69121e-05
-4.20239e-06
-1.75013e-05
-0.00064634
0.000301982
0.000767582
0.000607476
0.000166903
-0.000266146
9.924e-05
-0.000163969
1.66364e-05
0.000259098
-5.81629e-05
-0.000215903
-0.0008319
0.000676506
0.000486347
-0.000237523
0.000125448
0.000284697
-0.00103593
0.000730048
-0.000176628
0.000659602
0.000460614
0.000233288
-0.00070074
-0.000428204
0.000208735
2.47027e-05
6.84719e-06
-3.2986e-05
-0.000333226
0.000918417
-0.00058717
-0.000260702
-0.000942842
0.000649137
0.000264633
-0.000500609
-5.28679e-05
-4.43151e-06
3.92496e-06
1.05296e-07
2.89083e-05
1.60654e-06
-4.13293e-05
-0.00107835
0.000766187
-0.000193253
-3.53269e-05
0.000242921
0.00025758
-0.000500646
0.000581692
-0.000788183
0.000205945
0.000219337
-0.000173072
0.000104565
0.00042801
-7.15803e-05
-0.000362431
-0.000367538
-0.00027155
0.000638466
-0.000163722
0.00043076
-1.75593e-05
-0.000748117
0.000761616
0.000279352
0.000602118
-0.000781202
0.000255688
0.000524446
-0.000399526
0.000851749
0.000388336
-0.000606542
-0.000215305
0.000167289
-0.000334198
0.000163275
0.000170921
2.44563e-05
-8.75971e-05
1.94206e-05
-0.000393437
0.000880672
-0.000512704
-0.000759651
0.000356342
0.000402814
-0.000216683
-0.000754193
0.000519619
-0.000352345
-0.000167293
-0.000951599
0.000883148
6.59279e-05
0.00012148
-0.000218442
9.69613e-05
2.17761e-05
-1.6364e-05
-6.21233e-06
0.00025714
-0.000191776
-6.53656e-05
0.000856569
0.00034341
-0.000280035
0.000809894
-0.000530082
-1.72114e-05
-5.06386e-06
2.09575e-05
-2.52077e-05
-8.28333e-05
0.000105051
8.43261e-05
-0.000272993
0.000187369
-0.00117026
0.000407177
0.000760606
-0.000126319
-0.000151375
-0.000613412
0.000361078
0.000208414
-8.1707e-05
0.000203187
-0.000262052
-0.00069151
-0.000943883
-0.000185663
0.00026898
-0.000153776
-0.000115209
0.000436011
-0.000159603
-0.000276473
0.000256429
-0.000148974
-0.000107456
-1.68555e-05
-1.03991e-05
1.71566e-05
0.000810666
-0.000547796
-0.000263955
-9.82501e-07
2.9235e-06
-0.000122713
0.000172987
-5.02745e-05
7.12281e-07
-1.86855e-05
-0.000409688
0.000766234
0.00029953
0.000553741
-0.000853894
0.000204183
4.01288e-05
7.37689e-05
-0.000190443
-0.000303812
0.000494096
-0.00101987
0.000772496
0.000245744
0.000402699
0.000116902
-0.000763992
-0.000181472
0.00010837
-0.000101019
0.000378654
-0.000795056
0.00109438
-0.000826172
-0.000728207
4.02112e-05
0.00068629
-1.21305e-05
1.81615e-05
-6.20078e-06
-0.000333877
-0.000426182
-5.80373e-06
-1.30357e-06
0.000138433
-0.000198072
5.96379e-05
0.00014907
-0.00050927
0.000239122
0.000503777
-0.000743106
-0.000349081
-0.000621438
0.00096616
-0.000921852
0.000786549
0.000132587
-0.000196032
-0.000624636
0.000815234
-0.000103944
-0.000624833
0.000868779
-0.000934049
5.83815e-05
-0.000907988
0.000678454
-0.00039671
-0.000281997
0.000209234
-0.00101095
0.000800428
-0.000300245
0.000881271
-0.000249866
0.000110363
0.000220398
-8.19843e-05
-0.000138414
-0.000886502
0.000631858
0.000220083
8.03041e-05
-0.00014523
-0.000859024
0.0010009
-0.000645986
0.001067
-0.000421835
-8.63696e-05
0.000230443
-0.000148385
0.000148797
0.000223355
-0.000372184
-0.000662008
0.000640921
4.94406e-06
0.000857008
3.73686e-05
0.000775435
0.000115838
0.000153138
-0.00033866
0.000388618
-5.28658e-05
-0.000812012
0.000610541
-0.000764603
-0.00049701
0.00104167
-0.000546107
0.000329637
0.000312225
-0.000448753
0.000923899
-0.000221186
-0.000332928
1.92046e-06
-1.93244e-05
6.67756e-05
-0.000228325
0.000159918
0.000263143
-0.000164058
-9.90865e-05
0.000254052
-0.000137364
-1.29794e-05
1.10907e-06
1.48534e-05
-7.09605e-06
-8.82573e-06
3.08115e-06
1.7654e-07
-4.22282e-06
0.000295809
0.000382379
-0.0010312
0.000384456
0.000264602
0.000817641
-0.00108283
0.000723118
-0.00040677
-0.000331706
0.000476075
7.30723e-05
-0.000594254
-0.00103527
0.000536833
3.22023e-06
-8.05278e-06
5.17444e-06
-0.000245756
-0.00023132
0.00104132
-5.76884e-05
-0.000895123
-3.23806e-05
0.000349207
0.000274828
-0.000624592
-1.13194e-05
1.47253e-05
0.000400093
-0.00025133
-0.000993762
0.000893522
9.84075e-05
-0.000646583
0.000602819
-0.00032595
-0.000189092
0.00049276
-6.78598e-05
0.000206292
0.00066571
5.94774e-05
0.000996584
-0.000684925
0.000256711
-0.000186907
-6.98057e-05
0.00125302
-0.000399966
-0.000863132
0.000762974
-0.00107376
-6.76247e-05
-0.000198956
0.000266579
0.000283738
0.000421918
0.000646994
-0.000400829
-0.000246499
0.00040869
-0.000836519
0.000888484
0.000148079
0.000287064
0.000156878
-0.000509513
-0.000485978
0.000586736
0.00027551
-0.000869351
0.00019931
4.82192e-05
-0.000247535
2.08363e-05
-7.49493e-05
5.12523e-05
-0.00089043
-3.34257e-05
2.37614e-05
-0.000233256
0.000206507
0.000113626
0.000149515
0.000170351
-0.000368656
0.000198264
-0.000249597
-0.000404557
0.000203206
-0.000524763
0.000321297
0.0007233
-0.000197376
-0.000569561
4.94959e-05
0.000170902
0.00109038
-0.000664524
-0.00043128
2.03277e-05
3.84005e-06
-3.25265e-05
1.53173e-05
-0.000669504
0.000642315
-0.000222957
0.000393261
0.000392362
0.000417128
0.000455713
-0.000839385
0.000380299
0.000515973
0.000277505
0.000964086
-0.000461487
0.00103988
-0.000233338
-8.71487e-05
0.000165265
0.000172399
-0.00016471
0.000306569
-0.000141863
0.0010997
-0.000408676
-0.000694104
0.000151397
0.000105312
0.000441613
-0.000197418
-0.000244224
-0.000240249
-0.000625328
0.000257191
0.00018979
-0.00043562
-0.00010949
-0.000693516
0.000798966
-0.00106469
0.000453627
0.000609592
-0.000397991
0.000143672
0.000254264
0.000217353
-0.000977459
0.000163554
0.000807666
-0.000729817
0.0010384
-0.000308877
0.000231426
-0.000140906
-9.05213e-05
0.000272417
-0.000102879
-0.000155443
0.000273492
-0.000119942
-0.000294796
0.000137365
-0.000271308
0.000508287
-0.000237065
0.000877522
-0.000425169
-0.000634716
-0.000430956
-0.000167925
4.52129e-05
-0.000147185
-0.000700488
-0.00102611
0.000296069
0.000652179
-0.000648745
0.000136997
0.000537515
-8.34871e-06
1.25194e-06
-3.27067e-05
6.80254e-06
-0.000795786
0.000234333
0.00054164
0.000146192
8.52326e-05
6.22632e-05
-0.00051892
0.000455772
-0.00076739
-0.000161777
0.000913162
0.000312533
0.000334038
-7.93592e-06
-6.87956e-05
7.39404e-05
-6.14683e-05
-0.000585187
-0.000119632
-0.000689306
0.000807762
0.00113682
-0.000111287
-0.000135494
0.000302394
-0.000929754
0.000147074
-0.000329824
-0.00084134
-0.000874568
0.000565493
0.000307726
0.000830513
0.000305649
0.0011551
-0.00047316
-0.000701741
-3.23124e-05
7.82102e-07
-0.00113558
0.000868941
0.000261575
6.69e-05
-0.000210923
0.000144025
5.86418e-05
0.000495356
-0.000208301
-0.000893307
-0.00013357
-0.000264466
-0.000107023
-0.000159125
0.000142182
-0.000283811
0.000140221
0.000294152
-0.000153399
0.00104139
-0.000617807
-0.000428767
0.000184481
-0.000446428
0.000238998
-0.00011846
-7.90639e-05
0.000134925
0.000358704
0.000737676
0.000472902
-0.000269896
0.000151343
-0.000359341
0.000177235
0.000405754
-0.000583586
0.000124529
0.000131897
-0.000144076
0.000254878
-0.000110804
-6.41362e-05
5.41059e-05
-0.000757179
-0.000157467
-0.000300208
0.000169001
-2.19169e-05
-0.000147084
0.000835712
-0.000536829
-0.000136318
0.000325058
-0.00028703
-0.000853305
-0.000388244
-0.000487524
-3.55826e-05
-8.26038e-06
2.93522e-05
0.000229342
0.000212235
0.000271472
0.000103379
-0.000389071
0.000734886
-0.000405347
0.000378284
0.000657245
-0.00029519
-0.000703186
0.00098305
2.3944e-06
0.00066844
-0.000400642
7.15238e-05
-6.17552e-05
-0.000228438
0.000435355
-0.000768576
0.00100834
-0.000241091
-0.000205083
0.000216413
-1.1331e-05
-0.00076001
0.00113874
-0.000382353
-0.00024278
0.000745612
-0.00105585
0.000306694
-0.00065775
0.000553321
-0.00028972
0.000938257
-0.000650898
0.000248795
-0.000520197
0.00031338
0.000680431
0.000249605
-0.000166552
3.65047e-05
-2.24567e-05
0.000236731
0.000415018
2.34564e-05
-5.53222e-06
0.000243249
0.000234236
-0.000477561
0.000693371
-0.00023115
-0.000462259
-0.000252636
-0.000258089
0.000510639
0.00104126
-0.000298977
-0.000155587
-0.000504013
0.000747951
0.00106474
0.000112727
-0.000450461
0.000259892
0.000446183
0.000688251
3.56252e-06
-0.000663188
1.41042e-06
5.93686e-06
-9.9614e-06
-0.000253965
0.000585369
-0.000331504
-0.000739254
0.000111815
0.000625981
-0.000685155
0.000378113
0.000306694
-0.000121396
0.000198004
-7.66089e-05
0.000406684
-0.000814522
-5.85244e-05
0.000201298
-0.000144226
-0.000148285
-0.000591673
0.000228095
7.62301e-05
-4.56132e-06
-5.79501e-07
0.000401972
0.000338328
-0.000741297
-0.000550923
1.97955e-05
-0.000360698
0.000242062
6.31348e-05
-0.000319895
-0.000347882
0.00098184
-0.000641967
0.000240088
0.000486509
-4.76433e-05
0.00114759
-0.000475896
-0.000674515
0.000248123
0.000344667
-0.000592771
1.29357e-05
-4.0277e-05
8.95787e-05
-0.000770057
9.24652e-05
0.000107656
-0.000200121
-0.00104878
0.000176203
9.1808e-06
5.14079e-06
-0.000328203
-0.000403136
-0.000227171
0.000389657
-0.000811244
-0.000440563
0.000298609
0.000125277
0.00102858
-0.000861822
-0.000168342
-0.0010303
0.000794467
0.00023037
1.36601e-05
-0.00039283
0.000791324
0.000325229
-0.000125927
-0.000579115
-0.000490298
0.000331465
0.000290806
-0.000622794
-0.000262458
0.000105511
-0.00103519
7.00098e-05
0.000961339
-6.36496e-05
0.000228611
-0.000166218
-1.669e-05
-1.08798e-05
0.000227176
-0.000929268
0.000687727
1.31112e-05
-5.04457e-05
1.18656e-05
-0.00109534
0.000336957
0.000757026
-0.000890162
0.0010239
-0.000141974
-0.000789034
-0.000303193
0.000898974
-0.000279252
-5.10561e-05
1.57158e-06
0.000328154
-0.000184613
-0.000143541
-0.000179881
5.84852e-05
0.000942157
-0.000708219
-0.000257802
4.66105e-05
-0.00108624
0.000563141
-0.000855068
0.00070334
-0.000664679
0.000107334
-0.000260921
-0.00055751
0.00063782
0.000452462
-0.00039105
-0.00114188
0.000649609
-0.000261222
0.00052464
-0.000263587
0.000707272
-0.00102636
0.000305848
-7.09679e-05
0.000176431
-0.000105463
-2.94173e-05
1.00809e-05
1.66717e-05
0.000162537
2.66989e-06
-0.000440346
-0.000360826
0.0008006
-6.13244e-05
4.4668e-05
-0.00103483
0.00107695
-8.85332e-05
0.000280912
-0.000192382
0.000246798
-0.000657007
0.000273441
9.2351e-05
-0.000365951
4.48816e-05
-0.000152092
-0.000657499
-0.00035425
0.00101104
-6.23072e-05
0.000119633
-0.000378307
0.000119109
0.000236612
-0.000181209
0.00053059
-0.000372386
-0.000255682
-0.000732551
0.000972213
8.03218e-05
8.86791e-05
-0.000266788
-0.00024534
0.000511956
0.000179308
-0.000384017
0.000204663
0.000143735
0.000162989
-0.000306743
0.00101626
-1.23803e-05
-1.98395e-06
-0.000277972
0.000370801
-9.2854e-05
0.000226724
0.000466077
-0.000849412
0.000514384
-0.000710784
0.00031465
0.000212523
0.000488784
0.000714099
0.000335799
0.000102674
0.000154463
-0.000141843
0.000128947
-5.04376e-05
0.00012421
-0.000195178
0.000264971
-0.000199083
-0.000135118
-0.000799411
-0.000823772
-0.000214538
0.000269696
0.000749318
0.000151798
-0.000211817
-0.000893699
0.00110147
-0.000563843
-0.000217586
-0.000255671
0.000533562
-0.000277981
0.000194368
-0.00105221
0.000303846
-0.000559595
-0.000215675
0.000322287
-0.000106619
-1.26447e-05
-1.95831e-05
0.000216965
0.000246143
-0.00018738
7.63822e-05
0.000110997
0.000296449
-0.000921891
-0.000697627
0.000782402
-0.000117697
0.000571242
0.000229389
-0.000713275
0.000854064
-0.000157212
0.000493885
-0.000251103
-0.000768345
0.00101939
-0.000252643
0.000893558
-0.000329422
-0.000344954
0.000593078
0.000138729
3.47456e-05
-0.000198598
0.000210728
-0.000118263
-0.000212685
0.000102807
0.000109878
0.000287743
0.000753797
-0.00104422
0.000741016
-0.00051473
-0.000315434
-4.81155e-06
-3.2848e-06
7.80905e-06
-0.000396803
-1.68023e-05
2.4035e-05
-7.27142e-06
7.01823e-05
-0.000348173
0.000166108
-0.000831167
0.000280126
0.000142423
-0.000422613
0.000301993
-8.1849e-06
-0.00029383
4.90495e-05
-3.87661e-05
0.000797948
0.000246808
-0.00104778
-0.00105026
0.000312254
0.000737411
0.000168446
0.00033972
-0.000190813
-0.000247089
0.000437818
0.000154113
-7.37912e-05
0.000281922
-0.00015129
-0.000130637
-0.000666911
-0.00100305
0.00069258
0.000394891
0.000384405
-0.000779329
-0.000211703
-0.000201123
0.000384956
-0.00018387
0.000535574
-0.000358823
0.000357613
-0.00104871
-9.83046e-06
-0.000698834
0.000771784
-0.000102007
0.000279507
9.49094e-06
3.74029e-05
-0.00064541
0.000937754
2.55781e-05
-2.01121e-05
-0.000401061
0.000275537
9.43337e-05
1.53382e-05
-0.000231018
-0.000233647
0.000597425
0.000439765
3.86871e-05
-3.11822e-05
0.000265574
0.000229775
-0.000476378
0.000731017
0.000194346
-0.000496256
0.000280058
5.24077e-05
1.17531e-05
-7.58874e-05
-0.000217919
0.000127395
8.71364e-05
-0.00015432
0.000221221
-0.000480396
0.000719293
-0.000760844
-0.000307799
0.000108714
0.000361634
-0.00101978
-0.000707174
0.000343387
0.000363088
-0.00011628
-7.10998e-05
-8.47577e-05
-0.000133684
-0.000777714
-0.000205004
-0.000657645
0.000317575
-6.30524e-06
1.3281e-06
-0.000194517
-0.000483071
0.000860637
-0.000378634
-0.000323626
0.000160191
0.000163425
0.000703392
0.00033439
0.000449231
-0.000169174
0.000289383
-0.000687539
0.000396931
0.000563891
-0.00022268
-0.000358665
-0.00034956
-0.000531907
0.000880006
0.000777269
-0.000263576
-0.00052079
0.000356588
-8.32578e-05
0.000255972
0.000221341
-0.000477449
0.000644569
0.000223052
0.000700988
-0.00111273
0.000302665
-7.59015e-05
-0.000775364
0.00014579
0.000628439
0.000168624
-0.000421329
0.000337523
0.000772964
0.00104202
-0.00061496
-0.000751804
0.00063112
0.0010924
-0.000333565
-0.000768895
0.000274287
-0.00026401
0.000507176
0.000377171
5.87863e-05
-0.00030061
0.000893665
-0.000594526
-0.000358084
0.000156926
0.000208783
0.000337732
0.00102601
-0.000417376
-0.000609733
0.000461076
-0.000257724
-5.00762e-05
0.00115535
-0.000309313
-1.16006e-05
4.60255e-05
-5.36748e-05
0.000254148
-0.000106224
0.00088468
3.10545e-05
-0.000920749
-0.000193155
8.61301e-05
0.00015985
6.03405e-05
-0.000220192
0.000271693
-0.000152592
-0.000119102
-0.000774613
0.000446248
0.000347702
-8.99219e-05
0.000104407
-1.1637e-05
-1.53876e-06
-0.000438388
1.63849e-05
0.000392662
2.13879e-05
-1.37508e-05
-0.000356878
-7.4737e-05
-8.52794e-07
5.15896e-06
-4.43278e-06
-0.00111268
0.000349383
0.000735754
0.000291026
7.34989e-06
2.95159e-05
-0.000318145
0.000510166
-0.000192069
-0.000741132
-0.00042319
0.000105008
0.000710454
-0.00020978
-0.000518515
1.26543e-05
-5.29541e-06
-9.03415e-06
-1.36491e-05
2.34566e-05
-1.53307e-05
0.000565051
-0.000375354
0.000398476
-0.000220129
-0.000178363
0.000527638
-4.32181e-05
-0.000484606
-0.000739097
-1.21716e-05
1.87046e-07
2.78674e-05
-4.8597e-05
-0.000145772
9.69857e-05
2.29228e-05
0.000831326
-0.000193007
-0.000649503
0.000277627
7.83097e-05
-0.000355952
-0.000284156
-0.000237265
0.000521429
0.000721875
0.000359688
3.32847e-05
-2.78236e-05
-0.000979961
0.000708726
-0.000115025
0.000929573
-0.000356319
-0.000268271
0.000624456
8.07933e-05
-0.000177613
9.68196e-05
-0.00079966
0.000211336
8.94196e-05
-0.000300761
0.000678118
-0.0010331
0.000355109
0.000666841
-0.000217106
0.000396362
1.71738e-05
-0.000309018
-0.000476176
0.000505955
0.00105578
-0.000728462
0.000753494
-1.49596e-05
0.000542387
0.000276063
0.000245743
0.000698981
0.00109207
-6.83889e-06
5.60818e-06
0.00063315
-0.000578926
0.000120536
7.74679e-05
0.000620279
-0.000183706
-0.000447092
0.000164036
-0.000935006
0.000765707
-0.000708332
0.00106402
-0.000125435
-0.000274814
0.000347827
-0.00112859
9.15461e-05
-0.000209606
0.000420932
-0.000211318
0.00050969
-0.000253863
-0.000180893
0.000404211
-0.000281276
-3.79868e-06
1.93004e-05
0.00020433
0.000487405
0.00017463
0.000153526
1.35715e-05
0.000288402
-0.000251534
-0.000769831
0.000213505
-5.36562e-05
0.000466252
-0.000155897
-0.000323844
-0.000123543
2.87162e-05
3.30755e-05
2.09763e-05
-0.0006693
0.00103037
0.000180831
-0.000304785
0.000123944
0.000193785
-0.00094307
0.000746357
-0.000328687
0.00103356
-0.000713604
-0.000227606
0.000162673
0.000944214
-0.000701839
-0.000244895
1.17718e-05
-3.00621e-05
-0.000100605
0.00022937
-0.000128765
-0.000994105
-1.75614e-05
-0.000111837
-8.54565e-05
0.000197293
-4.31648e-05
0.00109282
-0.000382431
0.000180369
-9.35618e-05
-8.68071e-05
0.000158769
3.84868e-06
-0.000162618
0.000350202
2.18987e-05
0.000494698
0.00027495
0.000126787
0.000118697
-0.000245488
-0.000989913
6.69445e-05
0.000181521
-0.000622647
0.000308284
0.000314194
-0.00030309
-0.00038239
-0.000977561
0.000307915
0.000666924
0.000145373
-0.000187837
0.000666615
-0.000482973
-0.000180302
-0.000500813
0.000675023
0.0003187
-0.000150968
-7.21139e-05
4.11933e-05
-2.12611e-05
-0.000199548
-0.000835869
0.000500246
-0.000307511
-0.000211596
0.000110991
-0.000399242
0.000849414
-0.000451119
0.000295614
-0.000387456
0.000981649
-0.000161585
-6.82319e-05
0.000357481
-6.30694e-05
5.73774e-05
-0.000138645
4.6687e-05
-0.000811203
1.21565e-05
6.96249e-06
-0.000915527
0.000607811
0.000288279
-4.39204e-05
0.000178305
-0.0001762
-0.000192104
-6.85354e-06
-0.000243386
-4.0233e-05
4.91965e-05
-1.1517e-05
-0.00104896
0.000267967
0.000779017
-0.0003009
-0.000716505
9.34299e-05
8.69387e-05
-6.29806e-06
6.4498e-06
-3.62721e-06
0.000271804
0.000543404
-0.000822774
0.000398029
-0.000355009
-4.31093e-05
-0.00061999
0.000263549
-0.000519266
7.82059e-05
0.000440047
0.000157366
-0.000133548
-4.92107e-05
0.00118171
-0.000141923
0.000367347
-0.000156019
-0.00089222
0.000131396
-0.000278776
0.000147377
2.52496e-06
0.000629979
-0.000153562
-0.000302579
-0.0002204
-0.000374731
0.000591646
0.000140266
-8.19628e-05
0.000857963
0.000321062
0.000893757
-0.000217697
-0.000678523
-3.19905e-05
2.55952e-05
0.0005919
-0.000310771
0.000647825
-0.000337322
-0.000783095
4.47562e-05
0.000737553
0.000811638
7.90728e-05
0.000358527
-0.000582428
4.12465e-05
-0.000238741
-0.000520105
0.000784524
-0.000387801
0.000403024
-0.000245099
-0.00044999
0.000694393
0.000513895
-0.000256467
-0.000328376
0.000754588
0.000324777
0.000252512
-0.000347134
1.57823e-05
0.000331284
0.000243646
0.00102092
-0.000830349
8.84562e-05
-0.000411591
0.000323117
0.000326564
-0.00018285
0.000829564
-0.00114688
-0.000169818
0.000260286
-9.04692e-05
0.000299927
0.000724995
-0.000168918
-0.000192797
0.000361703
-0.000437735
0.000228141
0.000274664
-0.000169783
-0.000104885
9.02976e-05
-0.00043022
0.000338478
-0.000466622
0.000810412
-0.000344662
0.000329842
-0.00071473
0.00107016
0.000236415
-0.000115778
0.000103796
-0.000273852
0.000830502
-0.000569077
-1.72212e-05
-1.9863e-05
2.3859e-05
-0.000554065
0.000250078
-1.99287e-05
4.60561e-08
1.96871e-05
4.84054e-05
1.33602e-05
-6.4298e-05
9.22787e-05
8.44111e-05
-0.00017669
0.000328141
0.000124645
-0.000832642
-0.000164593
0.000979184
-0.00010394
-0.000130432
0.000204272
-7.384e-05
-0.000275806
-6.8186e-06
-8.95256e-05
-0.000372573
-0.000474319
0.000564527
3.43999e-05
0.000124369
-5.31991e-06
0.000282933
0.000206997
0.000177916
-0.00101997
0.000777235
0.000236186
0.000142974
0.000163589
0.000472664
-0.00030432
0.000184085
0.000214373
0.000538767
-0.000309135
-0.00030264
0.000614779
-0.000816021
0.00101426
-0.000320753
-0.000863742
0.000135747
-0.000509614
0.000218912
0.000290504
8.35094e-05
-0.000105426
0.000612724
-0.00090422
0.000707043
-0.000110618
0.000221608
-0.000344388
0.000175459
-0.00010726
-0.000105425
-0.000741236
0.000929872
-0.000207846
0.000331242
-0.000693092
0.000361148
-0.00027978
0.000452387
-0.000833882
-0.000738358
0.000897259
5.62162e-05
0.000334608
-0.000390848
-3.84408e-05
-4.70938e-05
-0.000151832
0.000205519
-5.36878e-05
-9.14561e-06
5.5054e-05
-3.28565e-05
0.000430787
0.000586226
0.000106464
-0.000712496
0.00040716
-0.000603042
0.000195744
-0.000172101
-0.00036911
0.000699607
-0.000165104
0.000659318
-0.000226841
-0.000432807
-0.000763258
-9.99439e-05
-4.57777e-05
-2.76562e-05
-0.000483427
-0.000771919
0.000335546
-0.000972699
0.000635951
-0.000294477
0.00100301
-0.000712794
-0.000156129
2.56963e-05
0.000178112
4.78854e-05
7.0955e-05
0.00038069
-0.000426038
0.00108065
-0.00066499
-1.8683e-05
-0.000173095
-0.000133471
0.000195022
-0.000101592
-0.000344524
0.000433405
0.00113637
-0.000529221
-0.00100104
0.000362385
0.000625168
-0.000195614
8.37758e-05
-0.000152366
3.71075e-05
0.000954016
2.05637e-05
-0.000200277
9.60088e-05
0.000104268
-0.000516153
-0.000234869
0.000732035
0.00100226
-0.00064796
-0.000357775
-0.0002552
0.000284865
-0.000762438
0.000201084
-0.000452368
0.000251276
0.000722275
0.000319375
-0.00105388
-7.50832e-05
-2.24277e-05
0.000821024
-0.000442004
-0.000378947
-0.000205248
0.00012354
0.000208782
-0.00045595
0.000224637
0.000666549
0.000225025
-0.00096577
0.000733849
0.0004456
-0.000375411
-0.00010458
-0.000121656
0.000226236
-0.000429411
8.21945e-05
8.4082e-06
-5.13649e-05
-0.000698928
0.000231527
-0.000130173
-0.000276027
0.000382896
-3.89134e-05
-7.86993e-05
-0.000316713
1.99195e-05
2.63533e-05
-1.11186e-05
0.000256955
0.000290203
-0.000547245
-0.000659764
0.000661397
9.58928e-05
-0.00094508
-0.000785419
-0.000360801
0.000841621
-5.25054e-05
-0.000146844
0.00019935
0.000171529
-0.000260066
0.000834781
-0.000433934
0.000344581
-0.000256139
0.000699049
-0.000132844
-0.000438695
0.000775999
0.000866474
-0.000516912
0.000273544
-0.00042727
-0.00115407
0.000320064
0.000820979
-0.000879414
0.000957949
-7.75016e-05
0.000189888
-0.000112387
-0.000838725
0.000109804
-0.000545132
0.000529963
0.000187869
-0.000947674
0.000717974
-2.46887e-05
-0.000156883
3.76885e-05
0.000119195
-0.000120062
4.75482e-05
0.000766525
-0.000371677
-0.00059014
-0.000193602
-0.000268271
1.35244e-05
0.000254731
0.000217377
-0.000617454
0.000338571
-0.000728888
0.000389493
-0.000150233
-0.000616432
0.000760988
-0.000228156
0.000999084
-0.000419988
-0.00106813
0.000238584
0.000828815
8.7926e-05
9.42698e-05
-0.000182196
-0.000581768
-0.000108795
0.000690015
4.66786e-05
0.000266455
0.00087951
0.000288323
0.000370576
0.000311783
-0.00021051
9.08794e-05
4.51693e-05
-0.000382786
0.000446609
-6.38076e-05
-0.000481611
0.000667358
-0.00074377
0.00036046
-0.000209113
-0.000270547
8.6718e-05
0.000180091
-9.24495e-05
-0.000335784
-0.000193402
-0.000528636
-0.000260891
-0.000489485
9.31025e-05
-0.000610454
-2.21997e-05
1.04087e-05
1.13841e-05
0.000294364
0.000752441
0.000182421
0.000136267
0.000490054
-0.000743352
-0.000316487
0.000311151
0.000112831
-0.000217411
0.000423989
-0.000822405
0.000397757
0.000213863
0.000207078
0.000296426
6.14005e-05
-3.73589e-05
-0.000254222
1.82199e-05
0.000163607
-0.000892974
0.000249533
-0.000309847
-0.000180206
0.000489959
-0.000959241
0.000646019
0.000306736
-0.000489066
-0.000107157
0.000583686
-0.00100846
0.000671417
1.87343e-05
-7.30307e-06
0.000103329
0.000252991
-0.000537129
-0.000680186
0.000147383
-0.000283706
0.000354154
-0.000138578
-0.00021559
-9.94322e-05
-0.000621042
0.000926282
-0.000675335
-0.000252248
0.000661911
-0.000373543
0.000705759
-0.00048705
0.000134756
0.000352155
-0.000791348
-0.000256931
0.00104538
0.000301486
0.000413928
-0.000716387
0.000224884
-0.000327055
0.000213709
8.51939e-05
-0.000443301
0.000727067
9.27388e-05
-0.000222494
0.000129756
-0.00020238
0.000221583
-3.53892e-05
0.000340859
-0.000241933
0.000576243
0.000271863
0.00070278
0.000238883
-8.19588e-06
-1.44329e-05
-0.000297186
-0.00016329
0.000447133
4.16152e-05
-0.000419144
0.00037747
-0.000695302
0.000994101
-0.000278457
0.000180176
0.000429087
-0.000634342
0.000846756
-0.000237912
0.000766594
0.000301334
0.000585379
-0.00102101
0.00031698
6.56866e-05
0.0003789
0.000634601
-0.000947575
0.000312667
-0.00037681
0.000178799
0.000197983
-0.000511164
-0.000137413
0.000648312
1.80732e-05
-4.71723e-05
-0.00098392
0.000211549
0.000755368
-0.00039158
0.000900539
-0.000510118
0.00108322
-0.0010172
-0.000354821
0.000816379
-0.000463679
-0.000215618
-4.59177e-05
-0.000536292
-0.000305727
-0.000659674
-0.000736713
0.000954895
-0.000586179
0.000279225
0.000306985
-0.000582462
8.19791e-05
0.000104118
0.000112295
0.000116439
0.000160629
-0.000277081
0.00097806
-2.39174e-05
0.000201439
0.000133984
-0.000335454
-9.17757e-05
-8.62052e-05
3.30215e-05
-0.00016594
0.000129143
0.00113039
-0.000756263
-0.000384802
-0.000255972
0.000345398
-9.00479e-05
-0.000798075
0.000463213
0.00033343
3.04263e-05
-0.000247857