/*--------------------------------*- C++ -*----------------------------------*\
| =========                 |                                                 |
| \\      /  F ield         | OpenFOAM: The Open Source CFD Toolbox           |
|  \\    /   O peration     | Version:  v2012                                 |
|   \\  /    A nd           | Website:  www.openfoam.com                      |
|    \\/     M anipulation  |                                                 |
\*---------------------------------------------------------------------------*/
FoamFile
{
    version     2.0;
    format      ascii;
    class       volScalarField::Internal;
    location    "1000";
    object      V0;
}
// * * * * * * * * * * * * * * * * * * * * * * * * * * * * * * * * * * * * * //

dimensions      [0 3 0 0 0 0 0];


value           nonuniform List<scalar> 
13851
(
0.0936701
0.050379
0.015429
0.0941143
0.0128075
0.0873764
0.0776922
0.0208081
0.16712
0.0233467
0.173385
0.0180942
0.00509982
0.00648619
0.169717
0.0350775
0.0444361
0.0594651
0.00823015
0.167259
0.107001
0.0170093
0.165275
0.187313
0.15785
0.0239688
0.0317055
0.000972821
0.0915162
0.064089
0.0858352
0.0422106
0.0189977
0.105186
0.205951
0.00540432
0.00431014
0.0113365
0.0196153
0.134558
0.101928
0.171012
0.00132157
0.162858
0.159443
0.00300582
0.155609
0.111553
0.0302139
0.145823
0.0112197
0.00683546
0.00137874
0.150566
0.173015
0.169786
0.169563
0.00212378
0.0745407
0.0764041
0.0127279
0.00548697
0.0664272
0.00933314
0.0427439
0.0825153
0.00343624
0.165864
0.0214238
0.0624102
0.00128377
0.00338073
0.0478615
0.171341
0.171718
0.119565
0.011361
0.00167512
0.0164063
0.00137906
0.0737013
0.166359
0.122328
0.0027153
0.0624575
0.0166856
0.0889202
0.0272115
0.0389393
0.183341
0.00526275
0.109382
0.128871
0.0248839
0.0414312
0.1557
0.0121544
0.00301028
0.125685
0.18463
0.0037537
0.0147528
0.0798966
0.02923
0.163046
0.0943076
0.0132232
0.183548
0.00289509
0.0844534
0.157682
0.185711
0.107221
0.194599
0.162798
0.0680357
0.00390218
0.1351
0.171944
0.153643
0.00135827
0.0363564
0.00515652
0.107891
0.103295
0.175887
0.1069
0.0130713
0.0900604
0.00799497
0.11439
0.161914
0.00133762
0.127757
0.0698652
0.166244
0.166175
0.00332981
0.00675845
0.010174
0.003358
0.187916
0.137322
0.162531
0.0536111
0.157097
0.186945
0.0106884
0.0918494
0.160256
0.00841252
0.16664
0.00518303
0.149835
0.0388051
0.0603376
0.123395
0.0597026
0.00686337
0.0118934
0.173084
0.0198446
0.00166179
0.14599
0.0639618
0.16988
0.197695
0.0203708
0.0913784
0.00301011
0.00136885
0.144618
0.120038
0.00907849
0.150589
0.105115
0.016977
0.106396
0.00785421
0.180881
0.0353489
0.003122
0.113993
0.0119789
0.170539
0.165298
0.0793544
0.154948
0.0118962
0.0288852
0.149801
0.00151958
0.153594
0.0187646
0.00685804
0.0486067
0.136139
0.132511
0.127015
0.119634
0.17514
0.00387213
0.168606
0.11395
0.0239537
0.116005
0.00927184
0.0407915
0.00193311
0.178677
0.0024907
0.093148
0.139063
0.192638
0.178666
0.164864
0.0673032
0.00284121
0.127727
0.00192771
0.0328335
0.065351
0.00250975
0.0075211
0.00220598
0.178315
0.026898
0.163535
0.00138184
0.178405
0.0248784
0.0449283
0.142435
0.151583
0.0107293
0.0486715
0.00851124
0.0351258
0.177302
0.101528
0.0877532
0.135053
0.194626
0.0214828
0.162252
0.00163733
0.013896
0.127107
0.0565821
0.0452611
0.120989
0.126855
0.0565916
0.0528227
0.0134487
0.0655607
0.0336847
0.00309468
0.00123982
0.122956
0.166814
0.0734634
0.0781899
0.17545
0.00669144
0.0421061
0.0559971
0.0247457
0.00259636
0.142049
0.119945
0.0439804
0.0885808
0.0166267
0.0378649
0.15038
0.171691
0.154836
0.00224297
0.148278
0.146696
0.191147
0.162525
0.0133861
0.0903369
0.0975119
0.153822
0.127484
0.0897396
0.187518
0.00851106
0.0567636
0.0646367
0.0198329
0.142721
0.00695968
0.0369558
0.0178376
0.141555
0.00176438
0.0190495
0.040013
0.00228533
0.0794109
0.0937906
0.00246756
0.152203
0.0144509
0.0299087
0.0615762
0.00772737
0.0294393
0.0570272
0.0028982
0.165371
0.038927
0.17603
0.00263955
0.00614426
0.124202
0.0130551
0.132303
0.00179463
0.120556
0.172607
0.110122
0.00695717
0.0268267
0.0378576
0.128932
0.0835487
0.0663835
0.195951
0.00413013
0.00390521
0.0659146
0.00266188
0.00672213
0.149501
0.0181454
0.00843426
0.0894237
0.0406489
0.00646613
0.00741176
0.109407
0.0734389
0.00204227
0.162573
0.150879
0.151046
0.0120798
0.0374288
0.0398063
0.00140401
0.119053
0.0783988
0.110503
0.141314
0.16922
0.169254
0.133878
0.0021268
0.17779
0.08709
0.0173487
0.168188
0.0162231
0.036193
0.092625
0.0036192
0.0847977
0.0395722
0.0285215
0.107822
0.12134
0.133624
0.0992476
0.00296933
0.18457
0.00837142
0.100719
0.00583622
0.00320473
0.155793
0.159558
0.0967698
0.139711
0.146589
0.067611
0.0104622
0.00587604
0.0206756
0.00252789
0.00227276
0.126272
0.0979707
0.00371269
0.00135463
0.0423425
0.00364566
0.104999
0.0264638
0.167571
0.00752143
0.133512
0.026805
0.104042
0.0837671
0.167621
0.1417
0.126424
0.00834035
0.0459738
0.00161919
0.0686509
0.0117905
0.084208
0.11803
0.0442224
0.0139205
0.0406033
0.161585
0.174941
0.147774
0.163654
0.0104841
0.128577
0.00905812
0.0792633
0.00155337
0.101682
0.0903309
0.175212
0.00835814
0.120717
0.122737
0.180327
0.01611
0.141663
0.018271
0.00154723
0.127478
0.161898
0.159977
0.00368491
0.185448
0.0249932
0.0144815
0.131669
0.140269
0.0650555
0.00864904
0.00693394
0.0632546
0.0172019
0.187684
0.108548
0.00169148
0.0559156
0.181173
0.023825
0.133628
0.0799267
0.144284
0.0459865
0.0602517
0.16773
0.1276
0.00366503
0.105532
0.0181152
0.160113
0.0767078
0.167235
0.168167
0.108111
0.179319
0.172271
0.100651
0.0644171
0.0928531
0.113199
0.176158
0.00407161
0.00137278
0.101074
0.0870466
0.0418107
0.128491
0.00279579
0.0915531
0.159622
0.116086
0.0116218
0.0750676
0.0017005
0.174382
0.0012122
0.0296549
0.163553
0.0876116
0.00301767
0.020863
0.138033
0.164689
0.111193
0.178874
0.145212
0.151429
0.0846353
0.00138029
0.0115035
0.00649576
0.00406066
0.0626055
0.183249
0.00621341
0.132094
0.0322034
0.0234913
0.110712
0.110969
0.00283053
0.148128
0.00212732
0.00285202
0.00333158
0.0402592
0.0671372
0.114957
0.164006
0.0750355
0.128999
0.0150485
0.0584732
0.0149647
0.00345827
0.172036
0.159396
0.0114369
0.00129592
0.0524064
0.124968
0.129439
0.0922812
0.0115429
0.0473698
0.0310709
0.0170424
0.155127
0.00183198
0.00166529
0.0944267
0.141035
0.0193916
0.128289
0.145335
0.153558
0.00578444
0.029214
0.00715481
0.00428714
0.165632
0.0828928
0.105023
0.0144907
0.00900934
0.00132601
0.00302043
0.109832
0.0830727
0.0254673
0.00204034
0.00558972
0.0168569
0.0628122
0.1673
0.128521
0.0140606
0.175669
0.0535591
0.178362
0.149119
0.0027308
0.0104288
0.0852501
0.158557
0.0075858
0.128836
0.139149
0.14286
0.165762
0.153026
0.00283662
0.122734
0.130883
0.00367635
0.114107
0.0193639
0.00123307
0.00146686
0.0773118
0.019666
0.127307
0.17366
0.0295285
0.00395489
0.0776194
0.00760208
0.0269523
0.146012
0.0388695
0.126086
0.13112
0.00953905
0.117022
0.0663483
0.138104
0.0231081
0.00734392
0.0808415
0.110964
0.0325364
0.0626249
0.0112068
0.0108641
0.00617718
0.0386769
0.00526127
0.143582
0.0523346
0.102923
0.00293757
0.100188
0.171595
0.00281939
0.0660473
0.00196171
0.00188095
0.00265544
0.026293
0.128894
0.00302672
0.127827
0.150248
0.165827
0.1485
0.146448
0.0690839
0.0500414
0.161875
0.00989595
0.0282846
0.00828459
0.127962
0.15778
0.138724
0.0101742
0.00645744
0.0106633
0.0232408
0.130525
0.142288
0.154082
0.0929161
0.00401162
0.0136633
0.0618508
0.171687
0.0816068
0.12833
0.0162284
0.00155089
0.0354376
0.0040795
0.111192
0.116562
0.00736976
0.00299603
0.0199172
0.0155686
0.0732298
0.0627678
0.0115977
0.0687459
0.135782
0.109287
0.130669
0.184263
0.0158191
0.00165838
0.130401
0.0613138
0.064278
0.143241
0.0375219
0.0870948
0.00686293
0.00997396
0.00708366
0.144368
0.169659
0.131966
0.00444042
0.00407408
0.0471107
0.00192467
0.156315
0.136211
0.169999
0.118451
0.00351443
0.0481214
0.0825498
0.156865
0.0395865
0.122986
0.00201298
0.0487206
0.00167672
0.15609
0.0666008
0.00126304
0.00122071
0.00494556
0.121747
0.0025644
0.126328
0.162853
0.0145678
0.0184947
0.0428887
0.00274709
0.0882683
0.127878
0.00435979
0.171918
0.173287
0.0596213
0.131603
0.00202325
0.0241026
0.00915025
0.0730197
0.156026
0.143717
0.0841716
0.178258
0.110072
0.162076
0.111161
0.154745
0.00184723
0.130027
0.132553
0.0952913
0.0815279
0.00131075
0.152953
0.125111
0.0064643
0.016029
0.134877
0.154869
0.0786832
0.00442588
0.0574352
0.00281565
0.0175148
0.132553
0.104179
0.0011869
0.0937881
0.0431334
0.149248
0.166482
0.162139
0.0166994
0.0311176
0.0500287
0.10337
0.134498
0.123632
0.00667329
0.127419
0.0115733
0.0762567
0.077572
0.0111851
0.00645901
0.00228224
0.0527012
0.00989126
0.00437395
0.0935435
0.00262436
0.0517157
0.00517481
0.00701759
0.00251343
0.129931
0.0281808
0.144015
0.0660192
0.0021693
0.00226132
0.119748
0.176069
0.0117668
0.154742
0.130794
0.00129919
0.152119
0.0965415
0.0017841
0.0014538
0.117143
0.118014
0.137524
0.00108529
0.00340136
0.00623683
0.10629
0.00386855
0.0122499
0.00662752
0.0134636
0.0157368
0.0538158
0.0765287
0.0400047
0.0104929
0.000793301
0.0985287
0.022446
0.00205897
0.00480174
0.00142675
0.0883225
0.0193037
0.14167
0.0361428
0.0596341
0.0112133
0.193491
0.0017124
0.118402
0.0074131
0.106175
0.0142311
0.0160642
0.0203434
0.00301004
0.014094
0.0429391
0.165826
0.00824031
0.0930171
0.0574498
0.0557768
0.00115512
0.16898
0.00719315
0.148399
0.0784898
0.00174812
0.00288224
0.00143211
0.138146
0.121574
0.113689
0.00167205
0.173179
0.0649504
0.0015912
0.132954
0.0398539
0.00967082
0.138012
0.0107511
0.0732687
0.128744
0.0289217
0.00183897
0.00864606
0.0419939
0.101284
0.151131
0.00202294
0.00718746
0.128125
0.0262209
0.145054
0.119532
0.157798
0.140496
0.013367
0.12606
0.0909939
0.122239
0.106484
0.0597453
0.00129983
0.00296384
0.0279009
0.00782308
0.0993383
0.0251839
0.109103
0.145971
0.0885206
0.0955501
0.00128419
0.090396
0.0115117
0.0867135
0.0452194
0.156754
0.00121679
0.12791
0.0248571
0.0268864
0.00416202
0.0215591
0.0215687
0.00122239
0.0252794
0.0481928
0.0140682
0.0766984
0.00131203
0.0174994
0.178339
0.0858681
0.0174603
0.0131101
0.00905086
0.144141
0.00955406
0.132198
0.126924
0.00564788
0.16357
0.00649844
0.035373
0.141278
0.0713931
0.13145
0.125364
0.13597
0.0651357
0.00390814
0.129169
0.00377645
0.00188566
0.0285483
0.00669958
0.0784557
0.177526
0.156833
0.0908092
0.12808
0.00841065
0.0487398
0.117875
0.0787228
0.175006
0.00148448
0.0132405
0.0594423
0.00330216
0.00420563
0.0900628
0.100597
0.0230696
0.127769
0.139159
0.0927716
0.101278
0.151898
0.15737
0.134917
0.00198949
0.140707
0.00472349
0.0314676
0.0378294
0.165839
0.14822
0.0130226
0.050899
0.0927266
0.132567
0.103937
0.100467
0.0722834
0.014866
0.147006
0.0397413
0.00554689
0.12803
0.161367
0.0954834
0.0442253
0.0804902
0.0336019
0.0124795
0.0155563
0.0506385
0.103104
0.0152061
0.108608
0.00157172
0.00398569
0.0621645
0.00573688
0.127388
0.157907
0.0962608
0.12016
0.141676
0.138161
0.14812
0.136775
0.00956592
0.134972
0.137283
0.0572244
0.0186499
0.00365647
0.0476531
0.058739
0.161662
0.0101907
0.00677113
0.0495842
0.00189439
0.00959264
0.00717389
0.142031
0.00927679
0.0929411
0.137768
0.0990709
0.00132802
0.00726972
0.127145
0.0317041
0.15319
0.110252
0.147074
0.0868723
0.0964265
0.0685216
0.131553
0.0168732
0.0517904
0.00128804
0.186761
0.0324918
0.134427
0.00685757
0.0189363
0.00278635
0.00624697
0.0068699
0.0108377
0.00160382
0.123333
0.00382557
0.14683
0.0206015
0.138464
0.0527689
0.0202615
0.0752367
0.00152494
0.0319091
0.0313436
0.147004
0.00585848
0.0990221
0.136509
0.0370076
0.044247
0.167235
0.0673065
0.0285547
0.11147
0.0419498
0.110426
0.0246237
0.0999831
0.1096
0.00389413
0.0358695
0.151352
0.0573856
0.00243761
0.0223449
0.014999
0.00602517
0.112313
0.141299
0.00352278
0.0684558
0.0168447
0.0264009
0.00244707
0.112749
0.00785736
0.0457564
0.0580466
0.0735214
0.0957554
0.00122952
0.0460516
0.00150923
0.16039
0.0225942
0.00505314
0.0400527
0.00252619
0.00358679
0.149644
0.0255754
0.0016551
0.0246319
0.00278873
0.130293
0.0926511
0.00111031
0.00694225
0.002082
0.146916
0.0858299
0.0989181
0.00147511
0.00507188
0.0627808
0.0914517
0.0155535
0.0115198
0.00341281
0.0918272
0.116882
0.00263041
0.0322217
0.106835
0.00552714
0.00618776
0.0488195
0.136196
0.00101789
0.00262001
0.151861
0.135728
0.010953
0.147841
0.164028
0.109315
0.102628
0.091933
0.0105978
0.04009
0.00369144
0.0533798
0.00125212
0.0989292
0.00990814
0.00532766
0.00762587
0.109329
0.11408
0.0103423
0.127847
0.113453
0.155378
0.0878579
0.104178
0.0037471
0.134115
0.121957
0.00160744
0.0198295
0.0131985
0.0513225
0.134495
0.145184
0.0211049
0.00296404
0.00302268
0.12344
0.01117
0.139828
0.0869978
0.145511
0.00168451
0.018635
0.0335259
0.00667451
0.00895999
0.0664266
0.00319876
0.00279794
0.110564
0.141055
0.15562
0.0207972
0.0112525
0.154114
0.00560224
0.1142
0.162149
0.0122484
0.00160369
0.0687729
0.00534141
0.0512582
0.00183287
0.0904523
0.0789696
0.0896393
0.0505835
0.152224
0.133077
0.0502504
0.00228367
0.00214611
0.0345138
0.0026808
0.0434246
0.00185752
0.00226617
0.0208791
0.11542
0.112409
0.134534
0.11395
0.00393128
0.154817
0.0404026
0.0636865
0.00631283
0.00241194
0.00311726
0.0891244
0.00323373
0.0529626
0.0507426
0.120984
0.12751
0.00180563
0.0399782
0.00144487
0.0286138
0.0913469
0.00622827
0.145688
0.036535
0.0837245
0.00454461
0.100998
0.0453675
0.0888123
0.12034
0.00438477
0.0473538
0.024684
0.119021
0.0226724
0.0121028
0.00120383
0.114646
0.0116024
0.115622
0.0614157
0.150133
0.00636833
0.0216928
0.0176402
0.0357528
0.136431
0.11014
0.109981
0.161253
0.135475
0.12546
0.128201
0.00207218
0.0354743
0.0766926
0.103569
0.160256
0.00897981
0.0033273
0.00682933
0.019184
0.0905676
0.135386
0.155756
0.120687
0.00560099
0.00165615
0.164623
0.0464503
0.0315602
0.00318712
0.0621588
0.0428958
0.00130948
0.0400605
0.142489
0.00326064
0.0023175
0.0896029
0.147061
0.0959553
0.00155731
0.00537349
0.0245543
0.00616581
0.00350024
0.0408458
0.0023277
0.0144476
0.0933749
0.00661792
0.00714732
0.145492
0.00191475
0.0780673
0.113682
0.148211
0.00557826
0.112097
0.0048257
0.0547329
0.0462947
0.0170875
0.119757
0.00372649
0.0022769
0.145334
0.0520954
0.00490489
0.0125381
0.00152206
0.0203091
0.154539
0.112266
0.0964403
0.14363
0.0841928
0.0436569
0.0991833
0.0101954
0.0185312
0.0211444
0.120729
0.141986
0.132511
0.0261184
0.0255227
0.0946396
0.0112916
0.0188602
0.0301994
0.0124928
0.0144005
0.0621774
0.00232661
0.11323
0.129719
0.00455293
0.00337193
0.00103632
0.0894874
0.165325
0.00152075
0.145611
0.126373
0.0255948
0.143311
0.0152305
0.0116084
0.148442
0.00135115
0.00371214
0.0509365
0.00714833
0.00123536
0.127362
0.0405303
0.00473869
0.00163554
0.0369887
0.00822732
0.14033
0.159059
0.140431
0.0445459
0.0022002
0.00365771
0.00152304
0.00341485
0.0377531
0.0378855
0.0293166
0.128377
0.15387
0.13029
0.00378543
0.120717
0.00294472
0.0389793
0.062027
0.0107045
0.00382945
0.000807204
0.0029774
0.015353
0.100435
0.126046
0.00311336
0.00350655
0.0341303
0.142531
0.150813
0.0170126
0.0336137
0.00541156
0.0125791
0.0401168
0.149783
0.00557875
0.134656
0.00123763
0.0542997
0.128202
0.00958813
0.0949584
0.00154286
0.159924
0.00175051
0.144793
0.0421631
0.0656605
0.13998
0.0632074
0.0173031
0.0148486
0.00193948
0.00237256
0.0314402
0.0247892
0.0837464
0.00328582
0.00198747
0.128315
0.149994
0.140733
0.166176
0.00142319
0.178791
0.0535367
0.0195706
0.0468756
0.0495744
0.0728075
0.0784624
0.00875739
0.00216538
0.10996
0.0692821
0.00488789
0.0550944
0.020958
0.040637
0.00182781
0.0260135
0.0158798
0.113955
0.148672
0.146453
0.00198762
0.00216165
0.0129093
0.152728
0.110669
0.129189
0.000935949
0.142559
0.00234032
0.00212796
0.0412681
0.0142903
0.0789447
0.039535
0.0708663
0.0770534
0.00130723
0.0439226
0.00889386
0.155927
0.0848315
0.145273
0.0776963
0.00477772
0.00384439
0.0305813
0.00239075
0.00520996
0.164917
0.101774
0.143581
0.104396
0.00188345
0.00385607
0.0448993
0.143503
0.0723794
0.0174854
0.0179891
0.000958578
0.0332893
0.00220695
0.0149134
0.0623188
0.107247
0.146766
0.0102331
0.124589
0.142854
0.00153174
0.0197357
0.00556386
0.10417
0.0320052
0.134012
0.00155648
0.00357607
0.11181
0.0876336
0.0364754
0.0885038
0.131044
0.109093
0.134849
0.00109037
0.0314669
0.000983334
0.0373043
0.00618374
0.0166067
0.00166756
0.119313
0.026152
0.0016186
0.0405771
0.0374229
0.00129472
0.140522
0.114168
0.0294901
0.00285924
0.00133618
0.0362499
0.0901917
0.122345
0.147872
0.0459975
0.194459
0.00326824
0.145123
0.0388395
0.0761722
0.142324
0.0198174
0.00807439
0.0863098
0.00614704
0.101003
0.151741
0.0200811
0.00155407
0.0216113
0.0210083
0.0044096
0.00591484
0.128501
0.0975241
0.0345989
0.00257927
0.00229979
0.109755
0.00122542
0.0488521
0.111739
0.0824819
0.00366119
0.0146729
0.116035
0.000756469
0.0688298
0.0476017
0.120134
0.00197453
0.118888
0.00521331
0.0675231
0.0369364
0.0565705
0.113961
0.00791647
0.000678265
0.139215
0.0311531
0.010885
0.152685
0.0805731
0.0945483
0.0154878
0.0116448
0.0113324
0.0462132
0.00279539
0.0334148
0.0119289
0.0424251
0.0156039
0.111705
0.00136754
0.00150569
0.0263631
0.114474
0.00916227
0.00249574
0.0666113
0.0261005
0.128001
0.0350618
0.00115071
0.0378497
0.00213449
0.0685967
0.0112868
0.0699059
0.00127104
0.141053
0.143344
0.105893
0.0242335
0.00332991
0.00364755
0.00874453
0.0306271
0.144173
0.0402186
0.0669882
0.126385
0.00520477
0.135185
0.0151478
0.0930151
0.0437553
0.14601
0.150833
0.139811
0.0670169
0.0512939
0.0255517
0.00151141
0.099368
0.042627
0.0243156
0.144168
0.0932121
0.0552944
0.0560453
0.0208052
0.133228
0.113581
0.00674209
0.162607
0.0609338
0.0929203
0.0590233
0.141743
0.00270612
0.070858
0.117088
0.00509077
0.031405
0.0377199
0.00239338
0.00743745
0.0797047
0.0290941
0.053278
0.0520173
0.0762783
0.148384
0.031494
0.00139291
0.00176191
0.00304025
0.0535636
0.00188361
0.0699623
0.0525334
0.15694
0.00288942
0.113493
0.0353482
0.123717
0.00267109
0.00283309
0.107439
0.162678
0.0388117
0.113606
0.0930492
0.00690199
0.0896768
0.114088
0.00140211
0.00232774
0.141264
0.0329533
0.0416242
0.00359286
0.150728
0.00256222
0.00172113
0.109559
0.0555239
0.00392015
0.0148487
0.0976621
0.104131
0.113544
0.0421364
0.14573
0.122477
0.00242839
0.0015237
0.00209464
0.137556
0.00269039
0.0765846
0.00693189
0.145824
0.0535146
0.0414333
0.14051
0.00329671
0.0440237
0.0112643
0.00566398
0.0024587
0.0221184
0.0111293
0.00266565
0.00249163
0.123516
0.000965044
0.138195
0.119495
0.107122
0.114894
0.139019
0.00192932
0.0677083
0.140034
0.044618
0.00163742
0.00217644
0.0329646
0.148254
0.0287805
0.0218875
0.00305116
0.115798
0.125873
0.162464
0.0138639
0.0985646
0.140093
0.00158372
0.0159496
0.0176108
0.110172
0.128068
0.0632644
0.00200118
0.131951
0.00157185
0.0171318
0.0801861
0.00188132
0.00246294
0.15134
0.00875095
0.041341
0.00197566
0.133582
0.0434248
0.139472
0.0628635
0.0293923
0.00393267
0.150495
0.114129
0.111939
0.00727377
0.020352
0.00183425
0.00176645
0.0739845
0.00141178
0.0486631
0.017157
0.00403357
0.00134547
0.0445375
0.00161515
0.0146212
0.0731499
0.141464
0.00418704
0.0208968
0.04223
0.00603383
0.146822
0.00229606
0.137342
0.0146496
0.138436
0.0607487
0.00145749
0.0171795
0.00693953
0.0454674
0.0395425
0.0457582
0.0051256
0.0201125
0.00215473
0.0769877
0.00203771
0.082396
0.00563775
0.00935559
0.00365156
0.110818
0.126165
0.0978628
0.00229492
0.112564
0.131386
0.137243
0.0606784
0.147107
0.113963
0.00348328
0.00318223
0.00232659
0.00233726
0.124306
0.00404863
0.00252036
0.00571818
0.00163763
0.00157488
0.0460687
0.00220455
0.0365415
0.0219326
0.00263525
0.00600081
0.160075
0.00268774
0.0871189
0.0860932
0.0129696
0.00170654
0.00238059
0.000959152
0.0395565
0.0612829
0.143409
0.00268158
0.00246142
0.116407
0.0117977
0.114738
0.0902192
0.0780409
0.00350563
0.00352948
0.0544393
0.107344
0.0448761
0.0671548
0.0981028
0.0568718
0.123643
0.0443464
0.0264512
0.00555356
0.0894868
0.00614037
0.0748273
0.0504067
0.00170513
0.00254688
0.0502984
0.0415192
0.126318
0.019622
0.0667381
0.149226
0.0209425
0.122371
0.0798561
0.0417829
0.115112
0.0511524
0.00869556
0.0215076
0.00152871
0.0893154
0.179921
0.00254332
0.106588
0.0332384
0.115131
0.102122
0.151796
0.0770652
0.134859
0.0318588
0.098933
0.00168997
0.0821435
0.0613716
0.0392691
0.148196
0.0867688
0.0299131
0.105353
0.0102508
0.00175232
0.0628497
0.0539029
0.12554
0.0814513
0.109842
0.0635756
0.123615
0.034011
0.00403531
0.106417
0.00883767
0.00143867
0.136547
0.107034
0.137924
0.0340488
0.0102711
0.103197
0.0146083
0.00364803
0.0614463
0.132967
0.00123082
0.159444
0.113406
0.146835
0.176006
0.0962081
0.135045
0.0781438
0.00419692
0.0522643
0.0227845
0.0191775
0.0672576
0.0666362
0.0207278
0.00157579
0.00177079
0.00858341
0.00980518
0.00335816
0.00641775
0.134704
0.0558264
0.142244
0.0201728
0.114514
0.0394502
0.0106704
0.132357
0.0195418
0.0217849
0.130402
0.11852
0.0813581
0.115102
0.144532
0.139574
0.00458207
0.00414248
0.0603144
0.0821416
0.146845
0.0113219
0.00561051
0.00163267
0.0140957
0.00337975
0.120289
0.00243518
0.00132123
0.0761166
0.0697397
0.0814685
0.136851
0.0658834
0.094541
0.101002
0.0416278
0.00166457
0.00932816
0.00150896
0.116602
0.0107534
0.00417619
0.116033
0.126233
0.122562
0.148568
0.0579695
0.104939
0.0104032
0.0833563
0.00253149
0.0334745
0.00243384
0.0084041
0.00223056
0.00109156
0.0870158
0.131939
0.128307
0.0793517
0.149386
0.114085
0.0016642
0.00319025
0.0875055
0.0736285
0.0873982
0.0219748
0.0106506
0.137536
0.0695541
0.00431848
0.126627
0.0973237
0.0241198
0.012233
0.0612285
0.00381126
0.00560266
0.0379262
0.00274581
0.00717067
0.00130125
0.149724
0.0450714
0.129491
0.0336046
0.00351152
0.132678
0.00143331
0.126958
0.172751
0.109585
0.00193178
0.0145762
0.008169
0.105623
0.148435
0.0310219
0.00193662
0.0265408
0.120653
0.0966661
0.0846003
0.0475366
0.119851
0.125172
0.00195968
0.00239091
0.00199458
0.0223476
0.00613507
0.00223752
0.00839334
0.00216982
0.0117754
0.154764
0.134523
0.164686
0.0691776
0.00262719
0.0026949
0.143308
0.00150705
0.00177962
0.0216398
0.10677
0.132674
0.00661761
0.00387789
0.00163448
0.0249539
0.00162556
0.159284
0.00606955
0.00993964
0.139721
0.00247368
0.116467
0.00638498
0.00198306
0.0382206
0.00555588
0.0752121
0.137701
0.00209768
0.00160892
0.0077914
0.0278091
0.00126482
0.00525814
0.001691
0.00186513
0.00171298
0.00661879
0.00660993
0.0744996
0.0943254
0.0146401
0.00143243
0.138802
0.00133423
0.160953
0.0131876
0.0308721
0.131555
0.00304662
0.111735
0.00578356
0.00152513
0.11508
0.0120838
0.00973997
0.00174829
0.00659508
0.0105
0.111819
0.0774008
0.00261042
0.128051
0.136908
0.0168865
0.0387291
0.00149604
0.034277
0.135637
0.0392026
0.137261
0.0105989
0.0536674
0.00646389
0.142152
0.1471
0.00150566
0.00947603
0.110429
0.00190424
0.00439264
0.138775
0.0463319
0.0538507
0.00185616
0.116159
0.143689
0.00568095
0.0532267
0.00241538
0.00169742
0.0110101
0.0452266
0.0703755
0.097196
0.014634
0.030613
0.0940802
0.00340914
0.0135423
0.127383
0.087551
0.0111401
0.055546
0.0014008
0.00504486
0.132635
0.00227517
0.00897793
0.0185402
0.117001
0.00238829
0.00110644
0.00382839
0.108003
0.150698
0.0120613
0.0355833
0.130448
0.0909057
0.115296
0.121091
0.0284033
0.126298
0.131454
0.015151
0.0062967
0.00125107
0.0409625
0.00382607
0.00158452
0.106046
0.0035688
0.00348525
0.00136454
0.157316
0.011259
0.00116836
0.00231654
0.00637183
0.00701333
0.0809459
0.00233554
0.0115589
0.00459022
0.144273
0.0163049
0.012815
0.114377
0.0100183
0.00337045
0.113991
0.00239584
0.00329349
0.115841
0.130505
0.0809123
0.113477
0.0579928
0.145873
0.129713
0.00277466
0.0039137
0.0512312
0.0083976
0.199756
0.0204909
0.00138222
0.00151823
0.00146252
0.0270798
0.00165093
0.0776333
0.137117
0.0336269
0.00155333
0.00357445
0.0065984
0.00390855
0.0462403
0.12669
0.114827
0.0545119
0.0348478
0.00267294
0.00318249
0.0307384
0.00273688
0.00136823
0.114676
0.00350179
0.0868427
0.0226676
0.0639942
0.0971023
0.150729
0.0289335
0.0329647
0.00387146
0.00152777
0.140657
0.0139386
0.0269327
0.0194531
0.00381875
0.014334
0.00246207
0.10122
0.00766784
0.00208588
0.00693345
0.0057937
0.11674
0.00647985
0.00233381
0.00203801
0.147211
0.0065106
0.147183
0.0685962
0.0963391
0.0165923
0.00243198
0.00118566
0.115804
0.00235896
0.0169014
0.15177
0.145158
0.0750382
0.158748
0.0189458
0.00225411
0.00184007
0.00748413
0.0983882
0.080561
0.0182505
0.144111
0.00168466
0.0390237
0.10087
0.0144523
0.00775079
0.02071
0.00129561
0.0101427
0.00129087
0.0413562
0.00397566
0.0042927
0.0027642
0.141637
0.0795485
0.0193136
0.0787858
0.00398118
0.00120709
0.0176933
0.00767925
0.00492365
0.00652084
0.018391
0.0218836
0.0483969
0.135644
0.00568764
0.0265958
0.0335916
0.0199195
0.0221427
0.0293797
0.00197336
0.00485588
0.0604034
0.0411116
0.019029
0.0395938
0.108786
0.0140398
0.0114551
0.135175
0.0019054
0.0875599
0.0014473
0.105593
0.0679446
0.0524037
0.00147015
0.0348891
0.00151474
0.0033579
0.0188106
0.0629612
0.00611273
0.0152768
0.00576423
0.0478617
0.177909
0.0121794
0.137491
0.0014383
0.140135
0.142017
0.124566
0.0361784
0.0313146
0.0428647
0.0119671
0.0136603
0.0655521
0.0414745
0.00383925
0.00282727
0.0298399
0.0164364
0.137565
0.0110138
0.0202847
0.00908422
0.0732298
0.0121459
0.0217271
0.14835
0.148166
0.0740828
0.0426857
0.103318
0.00141401
0.142161
0.00805584
0.0411245
0.00270256
0.00387792
0.0286972
0.0136136
0.0100704
0.0039992
0.00215928
0.0476015
0.0381917
0.0132332
0.0184481
0.0892461
0.00434606
0.00122751
0.140401
0.134598
0.00381873
0.0164086
0.0205798
0.107596
0.0186182
0.11615
0.0365375
0.0105931
0.0325737
0.0292504
0.127737
0.144323
0.0201
0.00152809
0.0919012
0.0204135
0.00446358
0.151397
0.130631
0.00144788
0.0107397
0.00775502
0.110733
0.035575
0.021991
0.168122
0.11428
0.00825862
0.0220213
0.00142989
0.00637161
0.0263142
0.00239761
0.0144756
0.00781399
0.127767
0.126145
0.0190979
0.0288894
0.0193815
0.0163775
0.0917513
0.0177351
0.0388131
0.0939356
0.150571
0.0383174
0.0948361
0.0376706
0.00801575
0.0107848
0.135051
0.00774619
0.0207282
0.00373921
0.0155003
0.00134249
0.0131943
0.00155765
0.145226
0.00870838
0.0266637
0.122971
0.130336
0.0162296
0.0254657
0.0715273
0.131108
0.00976482
0.00132976
0.0320625
0.115995
0.0662279
0.00461435
0.0150126
0.025427
0.147085
0.129854
0.0376951
0.0399353
0.0842576
0.0214782
0.0016825
0.0142515
0.00174775
0.145378
0.0379026
0.109788
0.0398386
0.0804567
0.121405
0.0143839
0.0375636
0.113487
0.00187021
0.0324372
0.00135755
0.128202
0.0269209
0.0210879
0.00868388
0.0224066
0.0077503
0.0281281
0.0116131
0.0208318
0.126117
0.00271886
0.00380112
0.063837
0.138447
0.0255458
0.109523
0.111097
0.00897585
0.138085
0.00181636
0.00478097
0.00528245
0.0718429
0.139147
0.0373263
0.00951667
0.0159632
0.0377629
0.0375776
0.127769
0.0393441
0.103779
0.064846
0.00141364
0.0631136
0.0801667
0.00408063
0.0211478
0.0402622
0.0738364
0.0364645
0.138961
0.040217
0.00179561
0.132366
0.0249358
0.00247632
0.00681588
0.0126337
0.0286407
0.0301951
0.00192282
0.00638329
0.0373524
0.0208134
0.047736
0.0525086
0.0270878
0.0800858
0.12356
0.00198267
0.120864
0.0436173
0.13309
0.0683235
0.0237612
0.132908
0.141773
0.0166349
0.103834
0.0513107
0.0186367
0.0265458
0.0142285
0.0320493
0.129128
0.0291174
0.0108074
0.0353862
0.018958
0.0229319
0.0191974
0.0272186
0.00170611
0.107183
0.00393856
0.010941
0.00437731
0.0219279
0.0137834
0.00920289
0.0418544
0.0121243
0.0115086
0.0334446
0.0328644
0.109776
0.111855
0.15472
0.0438576
0.00137851
0.146604
0.00757032
0.073174
0.0320909
0.0479698
0.007006
0.0347248
0.021641
0.075155
0.0469258
0.0431363
0.136301
0.0394631
0.0355377
0.139957
0.0413374
0.0484468
0.129206
0.0207646
0.0315264
0.00326841
0.0433641
0.00421394
0.0117884
0.0300595
0.106028
0.0176665
0.132453
0.026081
0.0197767
0.00371794
0.0418403
0.0295931
0.0219749
0.138302
0.0159562
0.0407313
0.00281604
0.129356
0.0573805
0.00497394
0.037649
0.0389245
0.149897
0.11534
0.14644
0.0204034
0.00345509
0.0332378
0.0570673
0.0431847
0.0194278
0.116977
0.0549813
0.0445704
0.0375655
0.0487821
0.163943
0.00521861
0.142117
0.00280181
0.161206
0.00325005
0.1396
0.142696
0.00708561
0.0553004
0.0397337
0.011365
0.0403386
0.0222054
0.128504
0.132717
0.0764561
0.0447694
0.00148831
0.116385
0.0369115
0.0524202
0.0499422
0.0761547
0.0588348
0.0100015
0.0212783
0.042746
0.0312847
0.039944
0.154263
0.0625463
0.0144828
0.0816657
0.0640759
0.00747895
0.129019
0.034364
0.0140167
0.0389633
0.00256993
0.150047
0.0404122
0.169996
0.02096
0.023086
0.0684031
0.0027564
0.14508
0.0688552
0.0392948
0.1446
0.00323176
0.152033
0.0818983
0.0169687
0.0156631
0.0380108
0.148019
0.0286295
0.0215358
0.00161972
0.0732943
0.0296122
0.14543
0.13972
0.0398601
0.00786097
0.00247915
0.0759447
0.124422
0.132416
0.0828886
0.0366896
0.00367089
0.00268267
0.08208
0.13932
0.121956
0.0379698
0.00474385
0.00273567
0.0572394
0.00660402
0.153727
0.0968117
0.0160303
0.108535
0.0820493
0.0210947
0.00624402
0.00564513
0.037419
0.0458255
0.00517803
0.0167888
0.0464807
0.0297015
0.00580397
0.0803421
0.0661729
0.0349043
0.118899
0.0819988
0.133306
0.15073
0.0228154
0.0343275
0.0482429
0.013067
0.012884
0.0824996
0.0371133
0.150235
0.0964971
0.0453334
0.0365421
0.0163033
0.0335081
0.00332126
0.0512169
0.0471085
0.0537048
0.00445846
0.00192542
0.0273779
0.151561
0.010467
0.040757
0.097643
0.105991
0.0420719
0.131337
0.129888
0.0565116
0.0530681
0.00659719
0.0530429
0.0945173
0.0453177
0.00265538
0.00144258
0.119667
0.0611253
0.0385027
0.0372666
0.00336598
0.0550631
0.00427355
0.0114401
0.101242
0.0532496
0.00132417
0.0765019
0.0632814
0.0342495
0.043326
0.0806411
0.0627763
0.0788838
0.00988719
0.121416
0.0206423
0.0474091
0.0393491
0.0788343
0.106563
0.0975566
0.0588394
0.0637397
0.118979
0.150896
0.0799816
0.0641414
0.0652578
0.0328135
0.0915009
0.0957428
0.0819952
0.0643621
0.0296295
0.115002
0.137938
0.0016746
0.0450164
0.00259462
0.0141681
0.132946
0.0566406
0.0159502
0.149944
0.0964147
0.155182
0.0492571
0.060226
0.0125262
0.0589326
0.110598
0.00649566
0.00365691
0.0175189
0.146915
0.00249689
0.0602101
0.131817
0.0153148
0.150953
0.0807257
0.00286557
0.130132
0.0109343
0.0877873
0.00684538
0.00652502
0.0364914
0.100803
0.129882
0.00874043
0.051509
0.0501269
0.0437027
0.0041857
0.120407
0.00754628
0.0625487
0.00125509
0.0827069
0.108098
0.113791
0.0604723
0.0523917
0.0508304
0.00410804