/*--------------------------------*- C++ -*----------------------------------*\
| =========                 |                                                 |
| \\      /  F ield         | OpenFOAM: The Open Source CFD Toolbox           |
|  \\    /   O peration     | Version:  v2012                                 |
|   \\  /    A nd           | Website:  www.openfoam.com                      |
|    \\/     M anipulation  |                                                 |
\*---------------------------------------------------------------------------*/
FoamFile
{
    version     2.0;
    format      ascii;
    class       pointVectorField;
    location    "300";
    object      pointDisplacement;
}
// * * * * * * * * * * * * * * * * * * * * * * * * * * * * * * * * * * * * * //

dimensions      [0 1 0 0 0 0 0];


internalField   nonuniform List<vector> 
14332
(
(0 0 0)
(-0 -0.056567 -0)
(0 0 0)
(-0 -0.056567 -0)
(0 0 0)
(0 0 0)
(0 0 0)
(0 0 0)
(0 0 0)
(0 0 0)
(0 0 0)
(0 0 0)
(0 0 0)
(0 0 0)
(0 0 0)
(0 0 0)
(0 0 0)
(0 0 0)
(0 0 0)
(0 0 0)
(0 0 0)
(0 0 0)
(0 0 0)
(0 0 0)
(0 0 0)
(0 0 0)
(0 0 0)
(0 0 0)
(0 0 0)
(0 0 0)
(0 0 0)
(0 0 0)
(0 0 0)
(0 0 0)
(0 0 0)
(0 0 0)
(0 0 0)
(0 0 0)
(0 0 0)
(0 0 0)
(0 0 0)
(0 0 0)
(0 0 0)
(0 0 0)
(0 0 0)
(0 0 0)
(0 0 0)
(0 0 0)
(0 0 0)
(0 0 0)
(0 0 0)
(0 0 0)
(0 0 0)
(0 0 0)
(0 0 0)
(0 0 0)
(0 0 0)
(0 0 0)
(0 0 0)
(0 0 0)
(0 0 0)
(0 0 0)
(0 0 0)
(0 0 0)
(0 0 0)
(0 0 0)
(0 0 0)
(0 0 0)
(0 0 0)
(0 0 0)
(0 0 0)
(0 0 0)
(0 0 0)
(0 0 0)
(0 0 0)
(0 0 0)
(0 0 0)
(0 0 0)
(0 0 0)
(0 0 0)
(0 0 0)
(0 0 0)
(0 0 0)
(0 0 0)
(0 0 0)
(0 0 0)
(0 0 0)
(0 0 0)
(0 0 0)
(0 0 0)
(0 0 0)
(0 0 0)
(0 0 0)
(0 0 0)
(0 0 0)
(0 0 0)
(0 0 0)
(0 0 0)
(0 0 0)
(0 0 0)
(0 0 0)
(0 0 0)
(0 0 0)
(0 0 0)
(0 0 0)
(0 0 0)
(0 0 0)
(0 0 0)
(0 0 0)
(0 0 0)
(0 0 0)
(0 0 0)
(0 0 0)
(0 0 0)
(0 0 0)
(0 0 0)
(0 0 0)
(0 0 0)
(0 0 0)
(0 0 0)
(0 0 0)
(0 0 0)
(0 0 0)
(0 0 0)
(0 0 0)
(0 0 0)
(0 0 0)
(0 0 0)
(0 0 0)
(0 0 0)
(0 0 0)
(0 0 0)
(0 0 0)
(0 0 0)
(-0 -0.056567 -0)
(-0 -0.056567 -0)
(-0 -0.056567 -0)
(-0 -0.056567 -0)
(-0 -0.056567 -0)
(-0 -0.056567 -0)
(-0 -0.056567 -0)
(-0 -0.056567 -0)
(-0 -0.056567 -0)
(-0 -0.056567 -0)
(-0 -0.056567 -0)
(-0 -0.056567 -0)
(-0 -0.056567 -0)
(-0 -0.056567 -0)
(-0 -0.056567 -0)
(-0 -0.056567 -0)
(-0 -0.056567 -0)
(-0 -0.056567 -0)
(-0 -0.056567 -0)
(-0 -0.056567 -0)
(-0 -0.056567 -0)
(-0 -0.056567 -0)
(-0 -0.056567 -0)
(-0 -0.056567 -0)
(-0 -0.056567 -0)
(-0 -0.056567 -0)
(-0 -0.056567 -0)
(-0 -0.056567 -0)
(-0 -0.056567 -0)
(-0 -0.056567 -0)
(-0 -0.056567 -0)
(-0 -0.056567 -0)
(-0 -0.056567 -0)
(-0 -0.056567 -0)
(-0 -0.056567 -0)
(-0 -0.056567 -0)
(-0 -0.056567 -0)
(-0 -0.056567 -0)
(-0 -0.056567 -0)
(-0 -0.056567 -0)
(-0 -0.056567 -0)
(-0 -0.056567 -0)
(-0 -0.056567 -0)
(-0 -0.056567 -0)
(-0 -0.056567 -0)
(0 0 0)
(0 0 0)
(0 0 0)
(0 0 0)
(0 0 0)
(0 0 0)
(0 0 0)
(0 0 0)
(0 0 0)
(0 0 0)
(0 0 0)
(0 0 0)
(0 0 0)
(0 0 0)
(0 0 0)
(0 0 0)
(0 0 0)
(0 0 0)
(0 0 0)
(0 0 0)
(0 0 0)
(0 0 0)
(0 0 0)
(0 0 0)
(0 0 0)
(0 0 0)
(0 0 0)
(0 0 0)
(0 0 0)
(0 0 0)
(0 0 0)
(0 0 0)
(0 0 0)
(0 0 0)
(0 0 0)
(0 0 0)
(0 0 0)
(0 0 0)
(0 0 0)
(0 0 0)
(0 0 0)
(0 0 0)
(0 0 0)
(0 0 0)
(0 0 0)
(0 0 0)
(0 0 0)
(0 0 0)
(0 0 0)
(0 0 0)
(0 0 0)
(0 0 0)
(0 0 0)
(0 0 0)
(0 0 0)
(0 0 0)
(0 0 0)
(0 0 0)
(0 0 0)
(0 0 0)
(0 0 0)
(0 0 0)
(0 0 0)
(0 0 0)
(0 0 0)
(0 0 0)
(0 0 0)
(0 0 0)
(0 0 0)
(0 0 0)
(0 0 0)
(0 0 0)
(0 0 0)
(0 0 0)
(0 0 0)
(0 0 0)
(0 0 0)
(0 0 0)
(0 0 0)
(0 0 0)
(0 0 0)
(0 0 0)
(0 0 0)
(0 0 0)
(0 0 0)
(0 0 0)
(0 0 0)
(0 0 0)
(0 0 0)
(0 0 0)
(0 0 0)
(0 0 0)
(0 0 0)
(0 0 0)
(0 0 0)
(0 0 0)
(0 0 0)
(0 0 0)
(0 0 0)
(0 0 0)
(0 0 0)
(0 0 0)
(0 0 0)
(0 0 0)
(0 0 0)
(0 0 0)
(0 0 0)
(0 0 0)
(0 0 0)
(0 0 0)
(0 0 0)
(0 0 0)
(0 0 0)
(0 0 0)
(0 0 0)
(0 0 0)
(0 0 0)
(0 0 0)
(0 0 0)
(0 0 0)
(0 0 0)
(0 0 0)
(0 0 0)
(0 0 0)
(0 0 0)
(0 0 0)
(0 0 0)
(0 0 0)
(0 0 0)
(0 0 0)
(-0 -0.056567 -0)
(-0 -0.056567 -0)
(-0 -0.056567 -0)
(-0 -0.056567 -0)
(-0 -0.056567 -0)
(-0 -0.056567 -0)
(-0 -0.056567 -0)
(-0 -0.056567 -0)
(-0 -0.056567 -0)
(-0 -0.056567 -0)
(-0 -0.056567 -0)
(-0 -0.056567 -0)
(-0 -0.056567 -0)
(-0 -0.056567 -0)
(-0 -0.056567 -0)
(-0 -0.056567 -0)
(-0 -0.056567 -0)
(-0 -0.056567 -0)
(-0 -0.056567 -0)
(-0 -0.056567 -0)
(-0 -0.056567 -0)
(-0 -0.056567 -0)
(-0 -0.056567 -0)
(-0 -0.056567 -0)
(-0 -0.056567 -0)
(-0 -0.056567 -0)
(-0 -0.056567 -0)
(-0 -0.056567 -0)
(-0 -0.056567 -0)
(-0 -0.056567 -0)
(-0 -0.056567 -0)
(-0 -0.056567 -0)
(-0 -0.056567 -0)
(-0 -0.056567 -0)
(-0 -0.056567 -0)
(-0 -0.056567 -0)
(-0 -0.056567 -0)
(-0 -0.056567 -0)
(-0 -0.056567 -0)
(-0 -0.056567 -0)
(-0 -0.056567 -0)
(-0 -0.056567 -0)
(-0 -0.056567 -0)
(-0 -0.056567 -0)
(-0 -0.056567 -0)
(0 -0.0565669 0)
(0 -0.0018879 0)
(0 -0.0565669 0)
(0 -0.056567 0)
(0 -0.0565669 0)
(0 -0.00217084 0)
(0 -0.056567 0)
(0 -0.00152601 0)
(0 -0.000948626 0)
(0 -0.000412996 0)
(0 -0.00324485 0)
(0 -0.000674315 0)
(0 -0.00110599 0)
(0 -0.056567 0)
(0 -0.00308886 0)
(0 -0.000456511 0)
(0 -0.0034761 0)
(0 -0.000453422 0)
(0 -0.00398059 0)
(0 -0.056567 0)
(0 -0.000400365 0)
(0 -0.000422686 0)
(0 -0.000268588 0)
(0 -0.000261788 0)
(0 -0.000213489 0)
(0 -0.001736 0)
(0 -0.000723603 0)
(0 -0.0565669 0)
(0 -0.0565668 0)
(0 -0.056567 0)
(0 -0.000179642 0)
(0 -0.000121375 0)
(0 -0.00301377 0)
(0 -0.00320981 0)
(0 -0.00320276 0)
(0 -0.00402297 0)
(0 -0.00215627 0)
(0 -0.00152633 0)
(0 -0.000980149 0)
(0 -0.000505705 0)
(0 -0.000662121 0)
(0 -0.000406367 0)
(0 -0.00034256 0)
(0 -0.000137946 0)
(0 -0.056567 0)
(0 -0.056567 0)
(0 -7.2767e-05 0)
(0 -6.99407e-05 0)
(0 -0.00444099 0)
(0 -0.00253581 0)
(0 -0.00212571 0)
(0 -0.00184366 0)
(0 -0.00151727 0)
(0 -0.00133544 0)
(0 -0.000597033 0)
(0 -0.000806312 0)
(0 -0.00103904 0)
(0 -0.00021897 0)
(0 -0.000780471 0)
(0 -0.000368777 0)
(0 -0.000244196 0)
(0 -0.000217003 0)
(0 -0.000177515 0)
(0 -0.000321476 0)
(0 -3.51115e-05 0)
(0 -0.0531597 0)
(0 -0.0529726 0)
(0 -0.0532556 0)
(0 -0.0530614 0)
(0 -0.0533373 0)
(0 -0.0531356 0)
(0 -0.0534042 0)
(0 -0.0531964 0)
(0 -0.0534606 0)
(0 -0.0532433 0)
(0 -0.0535017 0)
(0 -0.0532756 0)
(0 -0.0535289 0)
(0 -0.0532944 0)
(0 -0.0535447 0)
(0 -0.0533027 0)
(0 -0.0535464 0)
(0 -0.0533055 0)
(0 -0.05353 0)
(0 -0.0532821 0)
(0 -0.0534988 0)
(0 -0.0532191 0)
(0 -0.0534498 0)
(0 -0.0531458 0)
(0 -0.0533808 0)
(0 -0.0530695 0)
(0 -0.0532858 0)
(0 -0.0529745 0)
(0 -0.0531952 0)
(0 -0.0528717 0)
(0 -0.0531037 0)
(0 -0.0527581 0)
(0 -0.0529753 0)
(0 -0.0526116 0)
(0 -0.0528169 0)
(0 -0.0523908 0)
(0 -0.0522214 0)
(0 -0.0519948 0)
(0 -0.0168491 0)
(0 -0.0163217 0)
(0 -0.0518087 0)
(0 -0.0515728 0)
(0 -0.0164601 0)
(0 -0.015956 0)
(0 -0.0513699 0)
(0 -0.0511234 0)
(0 -0.0160903 0)
(0 -0.0155837 0)
(0 -0.0157219 0)
(0 -0.0152097 0)
(0 -0.0509004 0)
(0 -0.0506474 0)
(0 -0.0153261 0)
(0 -0.0148285 0)
(0 -0.0504007 0)
(0 -0.0501366 0)
(0 -0.0149182 0)
(0 -0.0144355 0)
(0 -0.01434 0)
(0 -0.0498643 0)
(0 -0.0495838 0)
(0 -0.0501563 0)
(0 -0.0145031 0)
(0 -0.0140337 0)
(0 -0.0492821 0)
(0 -0.0489911 0)
(0 -0.0140862 0)
(0 -0.0145281 0)
(0 -0.0136259 0)
(0 -0.0537493 0)
(0 -0.0531773 0)
(0 -0.0530169 0)
(0 -0.0533667 0)
(0 -0.0532237 0)
(0 -0.053542 0)
(0 -0.0533936 0)
(0 -0.0536971 0)
(0 -0.0535328 0)
(0 -0.0538396 0)
(0 -0.0536735 0)
(0 -0.053971 0)
(0 -0.0537988 0)
(0 -0.0540933 0)
(0 -0.053911 0)
(0 -0.0541981 0)
(0 -0.0540142 0)
(0 -0.054287 0)
(0 -0.0541088 0)
(0 -0.054371 0)
(0 -0.0541912 0)
(0 -0.0544437 0)
(0 -0.054261 0)
(0 -0.0545066 0)
(0 -0.0543215 0)
(0 -0.0540595 0)
(0 -0.0541172 0)
(0 -0.054378 0)
(0 -0.0541735 0)
(0 -0.0544229 0)
(0 -0.0542134 0)
(0 -0.0544554 0)
(0 -0.0542456 0)
(0 -0.0544854 0)
(0 -0.0542589 0)
(0 -0.0544996 0)
(0 -0.0542735 0)
(0 -0.0545015 0)
(0 -0.0543076 0)
(0 -0.0545149 0)
(0 -0.0543192 0)
(0 -0.0545252 0)
(0 -0.0543123 0)
(0 -0.0545168 0)
(0 -0.0542968 0)
(0 -0.0544992 0)
(0 -0.0542777 0)
(0 -0.0544831 0)
(0 -0.0542566 0)
(0 -0.0544657 0)
(0 -0.0542326 0)
(0 -0.0544411 0)
(0 -0.054204 0)
(0 -0.054412 0)
(0 -0.0541726 0)
(0 -0.0538387 0)
(0 -0.0540771 0)
(0 -0.0540031 0)
(0 -0.0542523 0)
(0 -0.0136628 0)
(0 -0.0132115 0)
(0 -0.0486593 0)
(0 -0.0483664 0)
(0 -0.0546514 0)
(0 -0.0132317 0)
(0 -0.0127901 0)
(0 -0.0480006 0)
(0 -0.0477077 0)
(0 -0.0127929 0)
(0 -0.0123635 0)
(0 -0.012351 0)
(0 -0.0473103 0)
(0 -0.047014 0)
(0 -0.0123467 0)
(0 -0.0119326 0)
(0 -0.0547475 0)
(0 -0.0465923 0)
(0 -0.0462839 0)
(0 -0.0468509 0)
(0 -0.054675 0)
(0 -0.0118966 0)
(0 -0.0122686 0)
(0 -0.0114992 0)
(0 -0.0458348 0)
(0 -0.0455182 0)
(0 -0.0114512 0)
(0 -0.0110644 0)
(0 -0.0110068 0)
(0 -0.0106286 0)
(0 -0.0450398 0)
(0 -0.0447175 0)
(0 -0.0105652 0)
(0 -0.0101925 0)
(0 -0.0102458 0)
(0 -0.0442044 0)
(0 -0.0438731 0)
(0 -0.00982188 0)
(0 -0.00987168 0)
(0 -0.00975629 0)
(0 -0.0433325 0)
(0 -0.0430093 0)
(0 -0.043507 0)
(0 -0.0426684 0)
(0 -0.0431534 0)
(0 -0.0423195 0)
(0 -0.0428111 0)
(0 -0.0419491 0)
(0 -0.041421 0)
(0 -0.0410515 0)
(0 -0.0415555 0)
(0 -0.0406836 0)
(0 -0.00939555 0)
(0 -0.00932287 0)
(0 -0.0401137 0)
(0 -0.0397514 0)
(0 -0.0403214 0)
(0 -0.0393821 0)
(0 -0.0530736 0)
(0 -0.00898507 0)
(0 -0.00889298 0)
(0 -0.03994 0)
(0 -0.0389966 0)
(0 -0.0384054 0)
(0 -0.0380243 0)
(0 -0.0386048 0)
(0 -0.0376295 0)
(0 -0.0381946 0)
(0 -0.0372168 0)
(0 -0.0377549 0)
(0 -0.0367873 0)
(0 -0.0373068 0)
(0 -0.0363481 0)
(0 -0.0357945 0)
(0 -0.0353649 0)
(0 -0.0486909 0)
(0 -0.00853829 0)
(0 -0.00846241 0)
(0 -0.0359038 0)
(0 -0.0349297 0)
(0 -0.0343559 0)
(0 -0.0339291 0)
(0 -0.0344887 0)
(0 -0.0334963 0)
(0 -0.0340398 0)
(0 -0.0330567 0)
(0 -0.0081201 0)
(0 -0.00803604 0)
(0 -0.00839494 0)
(0 -0.0324813 0)
(0 -0.0320538 0)
(0 -0.0326119 0)
(0 -0.0316209 0)
(0 -0.0321611 0)
(0 -0.0311796 0)
(0 -0.0317023 0)
(0 -0.0307308 0)
(0 -0.0312357 0)
(0 -0.0302766 0)
(0 -0.0297423 0)
(0 -0.0293008 0)
(0 -0.0298201 0)
(0 -0.0288592 0)
(0 -0.00770418 0)
(0 -0.00781344 0)
(0 -0.0076094 0)
(0 -0.0283081 0)
(0 -0.0278818 0)
(0 -0.0284149 0)
(0 -0.0274515 0)
(0 -0.0279644 0)
(0 -0.0270148 0)
(0 -0.027519 0)
(0 -0.0265741 0)
(0 -0.0260548 0)
(0 -0.0256285 0)
(0 -0.0261243 0)
(0 -0.0251971 0)
(0 -0.0256676 0)
(0 -0.0247633 0)
(0 -0.0242606 0)
(0 -0.0238486 0)
(0 -0.0243303 0)
(0 -0.0234351 0)
(0 -0.0238909 0)
(0 -0.0230176 0)
(0 -0.0072868 0)
(0 -0.00718757 0)
(0 -0.0225328 0)
(0 -0.0221378 0)
(0 -0.022601 0)
(0 -0.0217396 0)
(0 -0.0221838 0)
(0 -0.0213388 0)
(0 -0.0217642 0)
(0 -0.0209374 0)
(0 -0.0204886 0)
(0 -0.0201054 0)
(0 -0.0205353 0)
(0 -0.0197202 0)
(0 -0.020129 0)
(0 -0.0193328 0)
(0 -0.0189051 0)
(0 -0.0185371 0)
(0 -0.0537443 0)
(0 -0.0563407 0)
(0 -0.0563014 0)
(0 -0.0563235 0)
(0 -0.0562822 0)
(0 -0.0563037 0)
(0 -0.0562549 0)
(0 -0.0562811 0)
(0 -0.0562342 0)
(0 -0.0562571 0)
(0 -0.0562076 0)
(0 -0.056231 0)
(0 -0.0562783 0)
(0 -0.0562528 0)
(0 -0.0562979 0)
(0 -0.0562698 0)
(0 -0.0563152 0)
(0 -0.0562844 0)
(0 -0.0563276 0)
(0 -0.0562964 0)
(0 -0.0563361 0)
(0 -0.0563036 0)
(0 -0.056343 0)
(0 -0.0563091 0)
(0 -0.0563478 0)
(0 -0.0562664 0)
(0 -0.0561829 0)
(0 -0.0563122 0)
(0 -0.0563499 0)
(0 -0.00688369 0)
(0 -0.00677125 0)
(0 -0.0561798 0)
(0 -0.0382391 0)
(0 -0.0180895 0)
(0 -0.0177413 0)
(0 -0.0436428 0)
(0 -0.0197207 0)
(0 -0.0563137 0)
(0 -0.0563495 0)
(0 -0.031445 0)
(0 -0.0373975 0)
(0 -0.00648691 0)
(0 -0.00635879 0)
(0 -0.0066619 0)
(0 -0.0427311 0)
(0 -0.0430226 0)
(0 -0.04207 0)
(0 -0.0423473 0)
(0 -0.041348 0)
(0 -0.0416149 0)
(0 -0.0405623 0)
(0 -0.0408065 0)
(0 -0.039703 0)
(0 -0.0399166 0)
(0 -0.0563768 0)
(0 -0.0563114 0)
(0 -0.0563461 0)
(0 -0.0172739 0)
(0 -0.0169459 0)
(0 -0.0535997 0)
(0 -0.0321795 0)
(0 -0.0387563 0)
(0 -0.0389536 0)
(0 -0.0401245 0)
(0 -0.0391388 0)
(0 -0.0403059 0)
(0 -0.0392999 0)
(0 -0.0404664 0)
(0 -0.0394432 0)
(0 -0.0406109 0)
(0 -0.0395688 0)
(0 -0.0407345 0)
(0 -0.0396694 0)
(0 -0.0408349 0)
(0 -0.0397424 0)
(0 -0.0409138 0)
(0 -0.0397945 0)
(0 -0.0409661 0)
(0 -0.0398219 0)
(0 -0.0409927 0)
(0 -0.0398238 0)
(0 -0.0409954 0)
(0 -0.0397997 0)
(0 -0.0409734 0)
(0 -0.0397524 0)
(0 -0.0409252 0)
(0 -0.00607989 0)
(0 -0.00622695 0)
(0 -0.00594714 0)
(0 -0.0396841 0)
(0 -0.0408543 0)
(0 -0.0563049 0)
(0 -0.0563396 0)
(0 -0.0562673 0)
(0 -0.0395928 0)
(0 -0.0407597 0)
(0 -0.01646 0)
(0 -0.0161527 0)
(0 -0.016617 0)
(0 -0.0158433 0)
(0 -0.0394796 0)
(0 -0.0406384 0)
(0 -0.00567918 0)
(0 -0.00554123 0)
(0 -0.0377382 0)
(0 -0.0562965 0)
(0 -0.0563301 0)
(0 -0.0393302 0)
(0 -0.0404879 0)
(0 -0.0419423 0)
(0 -0.016286 0)
(0 -0.0155301 0)
(0 -0.0150727 0)
(0 -0.0147778 0)
(0 -0.0391488 0)
(0 -0.0403149 0)
(0 -0.0563645 0)
(0 -0.0420703 0)
(0 -0.0143064 0)
(0 -0.0140329 0)
(0 -0.0389507 0)
(0 -0.040124 0)
(0 -0.0414263 0)
(0 -0.0412473 0)
(0 -0.039917 0)
(0 -0.0410712 0)
(0 -0.039693 0)
(0 -0.0408543 0)
(0 -0.0394424 0)
(0 -0.0406077 0)
(0 -0.0562855 0)
(0 -0.0563182 0)
(0 -0.0563578 0)
(0 -0.0563471 0)
(0 -0.0563042 0)
(0 -0.0563327 0)
(0 -0.0563739 0)
(0 -0.0563585 0)
(0 -0.056315 0)
(0 -0.0563389 0)
(0 -0.0563801 0)
(0 -0.0563607 0)
(0 -0.0563976 0)
(0 -0.0563799 0)
(0 -0.0564133 0)
(0 -0.0563968 0)
(0 -0.056426 0)
(0 -0.0564106 0)
(0 -0.0564374 0)
(0 -0.0564223 0)
(0 -0.0564485 0)
(0 -0.0564322 0)
(0 -0.0564567 0)
(0 -0.0564405 0)
(0 -0.0564629 0)
(0 -0.0564475 0)
(0 -0.0564686 0)
(0 -0.0564531 0)
(0 -0.0564735 0)
(0 -0.0564584 0)
(0 -0.0564777 0)
(0 -0.0564636 0)
(0 -0.0564814 0)
(0 -0.0564676 0)
(0 -0.0564846 0)
(0 -0.0564713 0)
(0 -0.0564875 0)
(0 -0.0564747 0)
(0 -0.0564903 0)
(0 -0.0564774 0)
(0 -0.0564921 0)
(0 -0.0564797 0)
(0 -0.0564935 0)
(0 -0.0564814 0)
(0 -0.056495 0)
(0 -0.0564827 0)
(0 -0.056466 0)
(0 -0.0564534 0)
(0 -0.0564237 0)
(0 -0.0563807 0)
(0 -0.0562936 0)
(0 -0.0565072 0)
(0 -0.0565019 0)
(0 -0.0391643 0)
(0 -0.0403153 0)
(0 -0.0420009 0)
(0 -0.0383342 0)
(0 -0.00528996 0)
(0 -0.00515076 0)
(0 -0.0388555 0)
(0 -0.0399946 0)
(0 -0.0152034 0)
(0 -0.0162883 0)
(0 -0.0385221 0)
(0 -0.0396762 0)
(0 -0.0564909 0)
(0 -0.0135456 0)
(0 -0.0132934 0)
(0 -0.00491045 0)
(0 -0.00476998 0)
(0 -0.00498669 0)
(0 -0.038568 0)
(0 -0.0564444 0)
(0 -0.0563833 0)
(0 -0.00454088 0)
(0 -0.00466281 0)
(0 -0.0127914 0)
(0 -0.0125592 0)
(0 -0.00439704 0)
(0 -0.0384339 0)
(0 -0.0529758 0)
(0 -0.0120446 0)
(0 -0.0118333 0)
(0 -0.0122526 0)
(0 -0.0123238 0)
(0 -0.0116177 0)
(0 -0.0120849 0)
(0 -0.0113978 0)
(0 -0.00418129 0)
(0 -0.00403661 0)
(0 -0.0118422 0)
(0 -0.011174 0)
(0 -0.0107196 0)
(0 -0.0105149 0)
(0 -0.0375573 0)
(0 -0.0364756 0)
(0 -0.0363139 0)
(0 -0.0351631 0)
(0 -0.0350073 0)
(0 -0.0337884 0)
(0 -0.0336388 0)
(0 -0.0379262 0)
(0 -0.0508789 0)
(0 -0.0546756 0)
(0 -0.0323696 0)
(0 -0.032232 0)
(0 -0.010051 0)
(0 -0.00986542 0)
(0 -0.0103064 0)
(0 -0.00967575 0)
(0 -0.0379719 0)
(0 -0.00383296 0)
(0 -0.00368858 0)
(0 -0.00922628 0)
(0 -0.00905511 0)
(0 -0.0167657 0)
(0 -0.0309192 0)
(0 -0.0307946 0)
(0 -0.0310418 0)
(0 -0.0114929 0)
(0 -0.0116746 0)
(0 -0.0100952 0)
(0 -0.0034952 0)
(0 -0.00335355 0)
(0 -0.00351655 0)
(0 -0.00859809 0)
(0 -0.0084451 0)
(0 -0.0294192 0)
(0 -0.0293173 0)
(0 -0.0535436 0)
(0 -0.0109025 0)
(0 -0.0110556 0)
(0 -0.00317001 0)
(0 -0.0033022 0)
(0 -0.00302356 0)
(0 -0.00798173 0)
(0 -0.00784654 0)
(0 -0.0458217 0)
(0 -0.0454508 0)
(0 -0.0459987 0)
(0 -0.0456154 0)
(0 -0.0461536 0)
(0 -0.0457607 0)
(0 -0.0463573 0)
(0 -0.045883 0)
(0 -0.046419 0)
(0 -0.0459589 0)
(0 -0.0464791 0)
(0 -0.0460126 0)
(0 -0.0454357 0)
(0 -0.0465183 0)
(0 -0.0460411 0)
(0 -0.0465337 0)
(0 -0.0460266 0)
(0 -0.0465212 0)
(0 -0.0470336 0)
(0 -0.045988 0)
(0 -0.0470143 0)
(0 -0.0475197 0)
(0 -0.0474916 0)
(0 -0.0479889 0)
(0 -0.0278759 0)
(0 -0.0278013 0)
(0 -0.0538422 0)
(0 -0.0564773 0)
(0 -0.0417066 0)
(0 -0.00282511 0)
(0 -0.00270666 0)
(0 -0.010273 0)
(0 -0.0103968 0)
(0 -0.00737816 0)
(0 -0.00726051 0)
(0 -0.00770552 0)
(0 -0.00713605 0)
(0 -0.00748912 0)
(0 -0.00755825 0)
(0 -0.0070051 0)
(0 -0.00657974 0)
(0 -0.00646507 0)
(0 -0.0466895 0)
(0 -0.00740493 0)
(0 -0.0559696 0)
(0 -0.055889 0)
(0 -0.0559601 0)
(0 -0.047953 0)
(0 -0.0484419 0)
(0 -0.0225756 0)
(0 -0.0284568 0)
(0 -0.0109275 0)
(0 -0.0154335 0)
(0 -0.0216271 0)
(0 -0.0474429 0)
(0 -0.0281387 0)
(0 -0.0233153 0)
(0 -0.0210485 0)
(0 -0.0273009 0)
(0 -0.0424911 0)
(0 -0.026298 0)
(0 -0.0262522 0)
(0 -0.0277074 0)
(0 -0.0261883 0)
(0 -0.0276005 0)
(0 -0.0261075 0)
(0 -0.0274756 0)
(0 -0.0260009 0)
(0 -0.0273309 0)
(0 -0.0258723 0)
(0 -0.0244921 0)
(0 -0.0243863 0)
(0 -0.0257417 0)
(0 -0.0242801 0)
(0 -0.0263227 0)
(0 -0.0531863 0)
(0 -0.0246791 0)
(0 -0.0454939 0)
(0 -0.0454259 0)
(0 -0.0449194 0)
(0 -0.0448294 0)
(0 -0.0443103 0)
(0 -0.00588249 0)
(0 -0.0062985 0)
(0 -0.00600271 0)
(0 -0.00558902 0)
(0 -0.00570129 0)
(0 -0.00611204 0)
(0 -0.00580281 0)
(0 -0.00539513 0)
(0 -0.00548968 0)
(0 -0.00620965 0)
(0 -0.00508481 0)
(0 -0.00517325 0)
(0 -0.00477103 0)
(0 -0.00485414 0)
(0 -0.00525089 0)
(0 -0.00492634 0)
(0 -0.00467786 0)
(0 -0.0053168 0)
(0 -0.00498705 0)
(0 -0.00253156 0)
(0 -0.00460051 0)
(0 -0.00465681 0)
(0 -0.00240992 0)
(0 -0.00254606 0)
(0 -0.0228719 0)
(0 -0.022796 0)
(0 -0.0241622 0)
(0 -0.0227068 0)
(0 -0.0539597 0)
(0 -0.0369445 0)
(0 -0.0540879 0)
(0 -0.0539577 0)
(0 -0.0528617 0)
(0 -0.0558776 0)
(0 -0.0559497 0)
(0 -0.00603708 0)
(0 -0.00593836 0)
(0 -0.0527645 0)
(0 -0.00960391 0)
(0 -0.0097023 0)
(0 -0.0560257 0)
(0 -0.0560154 0)
(0 -0.0559385 0)
(0 -0.056004 0)
(0 -0.0559258 0)
(0 -0.0559926 0)
(0 -0.0559102 0)
(0 -0.0559781 0)
(0 -0.0558896 0)
(0 -0.0559599 0)
(0 -0.0562332 0)
(0 -0.0240297 0)
(0 -0.022602 0)
(0 -0.0483982 0)
(0 -0.0488782 0)
(0 -0.0212375 0)
(0 -0.0211632 0)
(0 -0.022487 0)
(0 -0.0210729 0)
(0 -0.0223584 0)
(0 -0.0209677 0)
(0 -0.0222212 0)
(0 -0.0208539 0)
(0 -0.0195687 0)
(0 -0.0194847 0)
(0 -0.0207304 0)
(0 -0.0193884 0)
(0 -0.0558673 0)
(0 -0.0559395 0)
(0 -0.00537038 0)
(0 -0.00225593 0)
(0 -0.00236946 0)
(0 -0.0105126 0)
(0 -0.0097927 0)
(0 -0.0106191 0)
(0 -0.00986801 0)
(0 -0.0107206 0)
(0 -0.00993081 0)
(0 -0.0108154 0)
(0 -0.00427413 0)
(0 -0.00432685 0)
(0 -0.00998317 0)
(0 -0.0108972 0)
(0 -0.0205934 0)
(0 -0.0192771 0)
(0 -0.0180595 0)
(0 -0.0179615 0)
(0 -0.0191552 0)
(0 -0.0178665 0)
(0 -0.0190223 0)
(0 -0.0177628 0)
(0 -0.0188777 0)
(0 -0.0176467 0)
(0 -0.0165028 0)
(0 -0.0164169 0)
(0 -0.017521 0)
(0 -0.0163203 0)
(0 -0.0173854 0)
(0 -0.0162125 0)
(0 -0.00212463 0)
(0 -0.0151266 0)
(0 -0.0150464 0)
(0 -0.0160943 0)
(0 -0.0149549 0)
(0 -0.044207 0)
(0 -0.0436827 0)
(0 -0.0452156 0)
(0 -0.0100264 0)
(0 -0.00550873 0)
(0 -0.00542568 0)
(0 -0.00583213 0)
(0 -0.00533451 0)
(0 -0.00571829 0)
(0 -0.00523554 0)
(0 -0.0488245 0)
(0 -0.00485176 0)
(0 -0.00476729 0)
(0 -0.0535892 0)
(0 -0.0492978 0)
(0 -0.0493369 0)
(0 -0.0554527 0)
(0 -0.0553144 0)
(0 -0.0553892 0)
(0 -0.0552471 0)
(0 -0.0553216 0)
(0 -0.0560853 0)
(0 -0.0197624 0)
(0 -0.056552 0)
(0 -0.0565456 0)
(0 -0.0565492 0)
(0 -0.0565432 0)
(0 -0.0565468 0)
(0 -0.0565405 0)
(0 -0.0565444 0)
(0 -0.0565372 0)
(0 -0.0565415 0)
(0 -0.0565331 0)
(0 -0.0565376 0)
(0 -0.0565453 0)
(0 -0.0565415 0)
(0 -0.0565483 0)
(0 -0.0565447 0)
(0 -0.0565284 0)
(0 -0.0565508 0)
(0 -0.0565474 0)
(0 -0.0565405 0)
(0 -0.0565433 0)
(0 -0.0565505 0)
(0 -0.0565456 0)
(0 -0.0565381 0)
(0 -0.0565406 0)
(0 -0.0565475 0)
(0 -0.0565426 0)
(0 -0.0565491 0)
(0 -0.0565441 0)
(0 -0.0565502 0)
(0 -0.0565449 0)
(0 -0.0565507 0)
(0 -0.0565452 0)
(0 -0.0565508 0)
(0 -0.0565449 0)
(0 -0.0565502 0)
(0 -0.0565328 0)
(0 -0.0565514 0)
(0 -0.0565442 0)
(0 -0.056549 0)
(0 -0.0565382 0)
(0 -0.0565379 0)
(0 -0.0565321 0)
(0 -0.055841 0)
(0 -0.0559157 0)
(0 -0.0159591 0)
(0 -0.0138864 0)
(0 -0.00890719 0)
(0 -0.00394804 0)
(0 -0.00399791 0)
(0 -0.00436829 0)
(0 -0.00403668 0)
(0 -0.0334088 0)
(0 -0.0551672 0)
(0 -0.00199037 0)
(0 -0.00185763 0)
(0 -0.0166934 0)
(0 -0.0560638 0)
(0 -0.0558443 0)
(0 -0.0558141 0)
(0 -0.0558899 0)
(0 -0.0492358 0)
(0 -0.0487444 0)
(0 -0.00559722 0)
(0 -0.0550945 0)
(0 -0.00439776 0)
(0 -0.00406377 0)
(0 -0.00370748 0)
(0 -0.00373311 0)
(0 -0.0565425 0)
(0 -0.056547 0)
(0 -0.0557883 0)
(0 -0.0558606 0)
(0 -0.0557568 0)
(0 -0.0558261 0)
(0 -0.0497455 0)
(0 -0.0497701 0)
(0 -0.0469432 0)
(0 -0.00438415 0)
(0 -0.00431397 0)
(0 -0.0138235 0)
(0 -0.0127317 0)
(0 -0.0435629 0)
(0 -0.043039 0)
(0 -0.0431567 0)
(0 -0.0425072 0)
(0 -0.0426183 0)
(0 -0.0419665 0)
(0 -0.0420722 0)
(0 -0.0414115 0)
(0 -0.0415147 0)
(0 -0.0408645 0)
(0 -0.040934 0)
(0 -0.0403064 0)
(0 -0.0403406 0)
(0 -0.0396999 0)
(0 -0.0397407 0)
(0 -0.0390879 0)
(0 -0.0391338 0)
(0 -0.0384843 0)
(0 -0.0440793 0)
(0 -0.0385179 0)
(0 -0.0378715 0)
(0 -0.0390016 0)
(0 -0.0378936 0)
(0 -0.0372517 0)
(0 -0.037204 0)
(0 -0.0365877 0)
(0 -0.0366252 0)
(0 -0.0359653 0)
(0 -0.040982 0)
(0 -0.0406817 0)
(0 -0.0359921 0)
(0 -0.0353368 0)
(0 -0.0352892 0)
(0 -0.0346649 0)
(0 -0.0347045 0)
(0 -0.0340406 0)
(0 -0.0340697 0)
(0 -0.0334143 0)
(0 -0.0334328 0)
(0 -0.0327804 0)
(0 -0.0327899 0)
(0 -0.032143 0)
(0 -0.0321125 0)
(0 -0.0314822 0)
(0 -0.0315089 0)
(0 -0.0308549 0)
(0 -0.030803 0)
(0 -0.0301828 0)
(0 -0.0339774 0)
(0 -0.0302301 0)
(0 -0.029566 0)
(0 -0.0294939 0)
(0 -0.028888 0)
(0 -0.0289489 0)
(0 -0.0282824 0)
(0 -0.0283304 0)
(0 -0.0276769 0)
(0 -0.0277132 0)
(0 -0.0270723 0)
(0 -0.0270977 0)
(0 -0.0264691 0)
(0 -0.026484 0)
(0 -0.0258678 0)
(0 -0.00882533 0)
(0 -0.0287614 0)
(0 -0.00812435 0)
(0 -0.0554565 0)
(0 -0.0553876 0)
(0 -0.00338144 0)
(0 -0.0034064 0)
(0 -0.055718 0)
(0 -0.0557874 0)
(0 -0.0550084 0)
(0 -0.020496 0)
(0 -0.0200695 0)
(0 -0.0208238 0)
(0 -0.0203796 0)
(0 -0.0211128 0)
(0 -0.0206518 0)
(0 -0.0560034 0)
(0 -0.00436613 0)
(0 -0.00426824 0)
(0 -0.00395787 0)
(0 -0.0038555 0)
(0 -0.0055839 0)
(0 -0.00505472 0)
(0 -0.0051051 0)
(0 -0.027606 0)
(0 -0.00910732 0)
(0 -0.0017299 0)
(0 -0.00160638 0)
(0 -0.0017098 0)
(0 -0.0235886 0)
(0 -0.056553 0)
(0 -0.056551 0)
(0 -0.0565437 0)
(0 -0.0565488 0)
(0 -0.0565542 0)
(0 -0.0565518 0)
(0 -0.0565564 0)
(0 -0.0565542 0)
(0 -0.056558 0)
(0 -0.056556 0)
(0 -0.0565593 0)
(0 -0.0565574 0)
(0 -0.0565603 0)
(0 -0.0565585 0)
(0 -0.0565611 0)
(0 -0.0565594 0)
(0 -0.0565564 0)
(0 -0.0565574 0)
(0 -0.0565602 0)
(0 -0.0565583 0)
(0 -0.0565608 0)
(0 -0.0565591 0)
(0 -0.0565614 0)
(0 -0.0565597 0)
(0 -0.0565618 0)
(0 -0.0565603 0)
(0 -0.0565622 0)
(0 -0.0565608 0)
(0 -0.0565626 0)
(0 -0.0565611 0)
(0 -0.0565628 0)
(0 -0.0565614 0)
(0 -0.0565631 0)
(0 -0.0565618 0)
(0 -0.0565633 0)
(0 -0.0565621 0)
(0 -0.0565635 0)
(0 -0.0565624 0)
(0 -0.0565606 0)
(0 -0.0565609 0)
(0 -0.0565626 0)
(0 -0.0565612 0)
(0 -0.0565628 0)
(0 -0.0565614 0)
(0 -0.056563 0)
(0 -0.0565617 0)
(0 -0.056559 0)
(0 -0.0565594 0)
(0 -0.0565579 0)
(0 -0.0565539 0)
(0 -0.0565464 0)
(0 -0.00806202 0)
(0 -0.0555136 0)
(0 -0.055446 0)
(0 -0.0553111 0)
(0 -0.055369 0)
(0 -0.0554994 0)
(0 -0.0554202 0)
(0 -0.0555468 0)
(0 -0.0554642 0)
(0 -0.0555869 0)
(0 -0.0555015 0)
(0 -0.0556204 0)
(0 -0.0555314 0)
(0 -0.0556475 0)
(0 -0.0555551 0)
(0 -0.0554303 0)
(0 -0.0554508 0)
(0 -0.0555724 0)
(0 -0.0554652 0)
(0 -0.0555839 0)
(0 -0.0554731 0)
(0 -0.0555899 0)
(0 -0.0554739 0)
(0 -0.0555879 0)
(0 -0.0553561 0)
(0 -0.0553327 0)
(0 -0.0553185 0)
(0 -0.0554677 0)
(0 -0.0555776 0)
(0 -0.0258281 0)
(0 -0.0252434 0)
(0 -0.0252694 0)
(0 -0.0246634 0)
(0 -0.049913 0)
(0 -0.0554532 0)
(0 -0.0555605 0)
(0 -0.00441472 0)
(0 -0.0503413 0)
(0 -0.0565543 0)
(0 -0.0557998 0)
(0 -0.0501651 0)
(0 -0.0426136 0)
(0 -0.0491477 0)
(0 -0.0486371 0)
(0 -0.0434108 0)
(0 -0.0439166 0)
(0 -0.0565639 0)
(0 -0.0201087 0)
(0 -0.012702 0)
(0 -0.0549301 0)
(0 -0.00393232 0)
(0 -0.00387628 0)
(0 -0.00423541 0)
(0 -0.00381124 0)
(0 -0.0559232 0)
(0 -0.0565631 0)
(0 -0.0548375 0)
(0 -0.0246738 0)
(0 -0.0240742 0)
(0 -0.00735411 0)
(0 -0.00731553 0)
(0 -0.0115879 0)
(0 -0.0115801 0)
(0 -0.00345457 0)
(0 -0.00340294 0)
(0 -0.00373751 0)
(0 -0.00334199 0)
(0 -0.00147645 0)
(0 -0.00158695 0)
(0 -0.0554307 0)
(0 -0.0555371 0)
(0 -0.055316 0)
(0 -0.0556589 0)
(0 -0.0556345 0)
(0 -0.0555076 0)
(0 -0.0556041 0)
(0 -0.0565644 0)
(0 -0.0188888 0)
(0 -0.00354583 0)
(0 -0.00343944 0)
(0 -0.00457591 0)
(0 -0.00460048 0)
(0 -0.0403287 0)
(0 -0.0199367 0)
(0 -0.0201925 0)
(0 -0.0194946 0)
(0 -0.0197347 0)
(0 -0.0190529 0)
(0 -0.0192776 0)
(0 -0.018612 0)
(0 -0.0188215 0)
(0 -0.0181721 0)
(0 -0.0183663 0)
(0 -0.0177334 0)
(0 -0.0179131 0)
(0 -0.017297 0)
(0 -0.0185272 0)
(0 -0.0180604 0)
(0 -0.0186551 0)
(0 -0.0181758 0)
(0 -0.0187511 0)
(0 -0.0192458 0)
(0 -0.0193215 0)
(0 -0.0188157 0)
(0 -0.010973 0)
(0 -0.0105262 0)
(0 -0.0106543 0)
(0 -0.0101628 0)
(0 -0.0103278 0)
(0 -0.00988066 0)
(0 -0.0100105 0)
(0 -0.00957784 0)
(0 -0.00968231 0)
(0 -0.00925575 0)
(0 -0.00934586 0)
(0 -0.00305945 0)
(0 -0.00308447 0)
(0 -0.00302332 0)
(0 -0.00341959 0)
(0 -0.00309775 0)
(0 -0.00135587 0)
(0 -0.051601 0)
(0 -0.0556739 0)
(0 -0.0557453 0)
(0 -0.0556882 0)
(0 -0.0500541 0)
(0 -0.0504733 0)
(0 -0.049622 0)
(0 -0.0240808 0)
(0 -0.0556757 0)
(0 -0.0193655 0)
(0 -0.0557235 0)
(0 -0.0557556 0)
(0 -0.0432226 0)
(0 -0.0437181 0)
(0 -0.0115895 0)
(0 -0.0126515 0)
(0 -0.0391508 0)
(0 -0.0565598 0)
(0 -0.00374509 0)
(0 -0.00332557 0)
(0 -0.00362667 0)
(0 -0.00320463 0)
(0 -0.0035022 0)
(0 -0.00659942 0)
(0 -0.00658668 0)
(0 -0.0066665 0)
(0 -0.0188494 0)
(0 -0.00276819 0)
(0 -0.00278267 0)
(0 -0.00309891 0)
(0 -0.00278519 0)
(0 -0.0114309 0)
(0 -0.0554699 0)
(0 -0.0234951 0)
(0 -0.0234855 0)
(0 -0.0251827 0)
(0 -0.0170993 0)
(0 -0.0166792 0)
(0 -0.00891941 0)
(0 -0.009005 0)
(0 -0.0164641 0)
(0 -0.0160604 0)
(0 -0.0162609 0)
(0 -0.0156581 0)
(0 -0.0158439 0)
(0 -0.0152569 0)
(0 -0.0150553 0)
(0 -0.01467 0)
(0 -0.0148572 0)
(0 -0.0142863 0)
(0 -0.0140842 0)
(0 -0.0137165 0)
(0 -0.0134993 0)
(0 -0.0131483 0)
(0 -0.0144592 0)
(0 -0.00301104 0)
(0 -0.00296259 0)
(0 -0.0117192 0)
(0 -0.00124353 0)
(0 -0.0283433 0)
(0 -0.0104558 0)
(0 -0.0565625 0)
(0 -0.0340709 0)
(0 -0.0118322 0)
(0 -0.0104882 0)
(0 -0.0497542 0)
(0 -0.0490341 0)
(0 -0.0495371 0)
(0 -0.0485046 0)
(0 -0.0256842 0)
(0 -0.0556246 0)
(0 -0.00113365 0)
(0 -0.0556916 0)
(0 -0.0558043 0)
(0 -0.0556962 0)
(0 -0.0547544 0)
(0 -0.0546552 0)
(0 -0.00977331 0)
(0 -0.0125167 0)
(0 -0.00795419 0)
(0 -0.00777918 0)
(0 -0.00832385 0)
(0 -0.00812811 0)
(0 -0.00866748 0)
(0 -0.00845217 0)
(0 -0.00898546 0)
(0 -0.00875166 0)
(0 -0.00927803 0)
(0 -0.00823335 0)
(0 -0.0436127 0)
(0 -0.00365497 0)
(0 -0.00312996 0)
(0 -0.0129147 0)
(0 -0.012586 0)
(0 -0.00247493 0)
(0 -0.00247951 0)
(0 -0.0085677 0)
(0 -0.00865078 0)
(0 -0.0353217 0)
(0 -0.0494173 0)
(0 -0.0499105 0)
(0 -0.0159326 0)
(0 -0.0162145 0)
(0 -0.019379 0)
(0 -0.00407213 0)
(0 -0.00407012 0)
(0 -0.0429995 0)
(0 -0.0425039 0)
(0 -0.0434864 0)
(0 -0.0441995 0)
(0 -0.0188522 0)
(0 -0.0183378 0)
(0 -0.00848124 0)
(0 -0.0026358 0)
(0 -0.00259967 0)
(0 -0.050177 0)
(0 -0.05056 0)
(0 -0.00585604 0)
(0 -0.00587591 0)
(0 -0.0128008 0)
(0 -0.0122686 0)
(0 -0.0497943 0)
(0 -0.00902694 0)
(0 -0.00822504 0)
(0 -0.00829488 0)
(0 -0.00788969 0)
(0 -0.00794137 0)
(0 -0.0493132 0)
(0 -0.0120395 0)
(0 -0.0199171 0)
(0 -0.0565537 0)
(0 -0.00933485 0)
(0 -0.00939917 0)
(0 -0.00954526 0)
(0 -0.00729062 0)
(0 -0.00308755 0)
(0 -0.0204134 0)
(0 -0.0010335 0)
(0 -0.0503568 0)
(0 -0.049894 0)
(0 -0.0504986 0)
(0 -0.0500374 0)
(0 -0.0506273 0)
(0 -0.0501674 0)
(0 -0.0507472 0)
(0 -0.0502885 0)
(0 -0.0508534 0)
(0 -0.0503991 0)
(0 -0.0509469 0)
(0 -0.0504985 0)
(0 -0.0510306 0)
(0 -0.0505832 0)
(0 -0.0511029 0)
(0 -0.0506541 0)
(0 -0.0501146 0)
(0 -0.0501717 0)
(0 -0.0507155 0)
(0 -0.0502069 0)
(0 -0.0507614 0)
(0 -0.0502542 0)
(0 -0.0507626 0)
(0 -0.0502793 0)
(0 -0.0507574 0)
(0 -0.0502937 0)
(0 -0.050785 0)
(0 -0.0503042 0)
(0 -0.0508068 0)
(0 -0.0502997 0)
(0 -0.0508088 0)
(0 -0.0502757 0)
(0 -0.0497435 0)
(0 -0.049713 0)
(0 -0.0502381 0)
(0 -0.0496695 0)
(0 -0.0501829 0)
(0 -0.0496089 0)
(0 -0.0501136 0)
(0 -0.0495312 0)
(0 -0.049554 0)
(0 -0.0497508 0)
(0 -0.0496819 0)
(0 -0.0491516 0)
(0 -0.0500275 0)
(0 -0.0494364 0)
(0 -0.0489116 0)
(0 -0.048812 0)
(0 -0.0482489 0)
(0 -0.0481477 0)
(0 -0.0506649 0)
(0 -0.0499214 0)
(0 -0.0512974 0)
(0 -0.0510599 0)
(0 -0.0475469 0)
(0 -0.0474418 0)
(0 -0.0480318 0)
(0 -0.0473196 0)
(0 -0.0512269 0)
(0 -0.0514247 0)
(0 -0.0478991 0)
(0 -0.0471796 0)
(0 -0.047638 0)
(0 -0.0468953 0)
(0 -0.0469761 0)
(0 -0.000940958 0)
(0 -0.00103392 0)
(0 -0.00461548 0)
(0 -0.00405757 0)
(0 -0.00462025 0)
(0 -0.00403388 0)
(0 -0.0557705 0)
(0 -0.0558774 0)
(0 -0.055903 0)
(0 -0.00323301 0)
(0 -0.00217509 0)
(0 -0.00218258 0)
(0 -0.00945978 0)
(0 -0.0240561 0)
(0 -0.0234495 0)
(0 -0.0439561 0)
(0 -0.0446456 0)
(0 -0.00281668 0)
(0 -0.00291752 0)
(0 -0.0427026 0)
(0 -0.0505585 0)
(0 -0.0509311 0)
(0 -0.0509303 0)
(0 -0.0480019 0)
(0 -0.0229438 0)
(0 -0.0234196 0)
(0 -0.0027789 0)
(0 -0.0512895 0)
(0 -0.0512771 0)
(0 -0.0512852 0)
(0 -0.0555459 0)
(0 -0.0554904 0)
(0 -0.00754023 0)
(0 -0.00758234 0)
(0 -0.00797325 0)
(0 -0.00760756 0)
(0 -0.042253 0)
(0 -0.0417645 0)
(0 -0.00475393 0)
(0 -0.00476072 0)
(0 -0.00510538 0)
(0 -0.00510208 0)
(0 -0.0054525 0)
(0 -0.00475368 0)
(0 -0.00227771 0)
(0 -0.00225376 0)
(0 -0.0025536 0)
(0 -0.00221934 0)
(0 -0.00229137 0)
(0 -0.00927723 0)
(0 -0.00978742 0)
(0 -0.00461425 0)
(0 -0.00399855 0)
(0 -0.0193606 0)
(0 -0.0188246 0)
(0 -0.0124521 0)
(0 -0.0477503 0)
(0 -0.0470238 0)
(0 -0.0464176 0)
(0 -0.0484309 0)
(0 -0.00952649 0)
(0 -0.00822979 0)
(0 -0.00832637 0)
(0 -0.0081173 0)
(0 -0.0555659 0)
(0 -0.00188403 0)
(0 -0.00189532 0)
(0 -0.00217831 0)
(0 -0.001895 0)
(0 -0.0132523 0)
(0 -0.00513167 0)
(0 -0.0548477 0)
(0 -0.0546671 0)
(0 -0.0547581 0)
(0 -0.000839898 0)
(0 -0.000918761 0)
(0 -0.0497853 0)
(0 -0.0502684 0)
(0 -0.0480994 0)
(0 -0.0479446 0)
(0 -0.000755852 0)
(0 -0.00249739 0)
(0 -0.00217455 0)
(0 -0.00190251 0)
(0 -0.00186888 0)
(0 -0.00186163 0)
(0 -0.0558427 0)
(0 -0.0559421 0)
(0 -0.00354358 0)
(0 -0.00356232 0)
(0 -0.00508372 0)
(0 -0.0047325 0)
(0 -0.0153633 0)
(0 -0.0156231 0)
(0 -0.0164947 0)
(0 -0.0158806 0)
(0 -0.0167693 0)
(0 -0.0161268 0)
(0 -0.0170388 0)
(0 -0.0163641 0)
(0 -0.0173048 0)
(0 -0.0165981 0)
(0 -0.0175648 0)
(0 -0.00722377 0)
(0 -0.00724173 0)
(0 -0.0494344 0)
(0 -0.00250057 0)
(0 -0.00260062 0)
(0 -0.00239454 0)
(0 -0.0444048 0)
(0 -0.0564146 0)
(0 -0.0462565 0)
(0 -0.0456108 0)
(0 -0.0545713 0)
(0 -0.0546576 0)
(0 -0.0563442 0)
(0 -0.054729 0)