/*--------------------------------*- C++ -*----------------------------------*\
| =========                 |                                                 |
| \\      /  F ield         | OpenFOAM: The Open Source CFD Toolbox           |
|  \\    /   O peration     | Version:  v2012                                 |
|   \\  /    A nd           | Website:  www.openfoam.com                      |
|    \\/     M anipulation  |                                                 |
\*---------------------------------------------------------------------------*/
FoamFile
{
    version     2.0;
    format      ascii;
    class       volScalarField;
    location    "300";
    object      ddt0(k);
}
// * * * * * * * * * * * * * * * * * * * * * * * * * * * * * * * * * * * * * //

dimensions      [0 2 -3 0 0 0 0];


internalField   nonuniform List<scalar> 
13917
(
3.24166e-08
-3.91975e-08
0.000117196
-4.08195e-08
-4.46816e-09
1.28295e-06
-0.000121572
0.000410046
0.000278763
1.42875e-07
-2.40681e-07
2.66973e-07
-4.0718e-08
-0.000318437
-2.11127e-08
-3.60339e-08
-3.87487e-08
-5.40563e-08
2.61951e-07
-1.15062e-08
-1.83131e-09
-0.000117574
-1.22375e-08
0.000453539
-8.9503e-09
-0.000467103
-1.68544e-07
3.27271e-08
4.57351e-07
4.23175e-09
-6.43492e-08
1.92597e-09
-6.09136e-08
-3.10551e-08
-6.45257e-09
0.000119792
-1.13183e-08
0.000135809
-4.19946e-08
-5.75837e-06
-3.57141e-08
-1.17458e-09
-2.70748e-08
4.63019e-08
-5.73816e-09
3.53752e-08
-4.95746e-08
-6.94729e-08
4.67784e-07
-2.43881e-08
1.00427e-09
2.2425e-09
-7.35678e-07
3.25688e-08
-3.85527e-08
1.58353e-08
-2.58097e-07
1.07935e-08
1.72377e-08
-8.03035e-09
-6.34702e-05
-3.87044e-08
-4.62662e-05
-1.32348e-08
8.09872e-07
-0.0255647
1.19234e-09
1.5951e-09
-5.77954e-08
-5.27263e-09
-4.32925e-09
0.000413325
-0.000154704
-1.03115e-08
-5.10327e-07
3.52304e-07
-0.000131925
1.03627e-08
-0.000637715
-1.03585e-09
-3.65606e-09
1.3015e-09
2.93379e-06
0.000166121
5.76566e-05
9.19671e-09
-5.95458e-09
0.0690955
1.75918e-09
-2.77657e-08
-7.46582e-05
1.63548e-07
-3.20492e-08
-2.00732e-08
-0.125455
3.61752e-06
-1.57078e-08
-5.08508e-08
1.03413e-06
-3.10935e-07
-2.54586e-08
1.20745e-08
8.43555e-08
4.89132e-09
-2.44342e-08
0.000226094
-1.82279e-07
-8.87761e-08
-3.90697e-08
6.29029e-08
-3.77016e-05
-2.41613e-05
4.20205e-07
0.000211159
-9.08715e-10
2.45508e-07
-1.51378e-08
-1.6421e-06
0.000182799
-2.75004e-08
-1.01333e-09
1.697e-07
0.000172699
8.38197e-08
-2.76989e-08
-1.75098e-08
-1.62638e-08
-2.81312e-08
-3.47928e-08
4.84057e-06
0.000143613
-1.30608e-09
-5.03225e-09
-1.38605e-09
-0.00095172
0.000405276
-5.42675e-09
1.37372e-07
8.34265e-10
-1.22894e-07
-2.50217e-05
-2.64147e-08
3.44511e-10
3.8953e-08
7.155e-10
0.000815731
3.50661e-07
3.49729e-09
-2.43546e-08
2.93492e-10
5.2274e-08
5.35734e-08
2.34669e-07
-2.47767e-08
1.58941e-08
-1.39181e-05
1.21793e-08
0.000733144
-0.000145796
0.000712856
-2.04864e-08
-5.14058e-07
-9.15065e-10
-5.49506e-08
4.07491e-07
1.08713e-06
6.69763e-09
3.15773e-08
-1.61539e-08
1.87593e-08
-3.76196e-08
6.45785e-05
5.0307e-07
-3.90691e-08
0.00137979
-1.75009e-08
0.000132296
5.6149e-07
0.000939322
-1.64388e-08
2.43785e-07
-2.47614e-08
-2.50675e-08
-5.87094e-09
1.09642e-08
-0.000621356
3.49522e-07
-2.12559e-05
5.28205e-09
6.41051e-07
9.67443e-05
7.27809e-05
-2.72115e-07
-1.09548e-08
-1.24631e-06
1.69002e-07
-5.77267e-08
-3.47507e-08
-4.31085e-08
0.0392543
-2.18994e-08
-2.39258e-08
-6.69667e-10
6.61147e-08
-0.000166407
-0.000269638
-7.87904e-09
8.49268e-09
-3.99999e-08
-0.00040578
1.16249e-09
-4.20382e-05
-0.00017941
6.31353e-07
-2.27642e-08
6.63139e-07
-3.94002e-08
-4.50745e-05
-1.97405e-09
-0.000311971
-1.20336e-08
-2.17879e-07
-3.46765e-08
0.000112472
0.000154538
-3.74708e-08
-3.80726e-05
1.58415e-08
-2.19037e-08
-0.00174083
5.31419e-07
8.1579e-09
0.000206206
-0.000183051
-3.32409e-08
4.86821e-09
-5.41019e-05
2.4322e-05
-3.99862e-09
-1.75605e-08
-0.000100149
-1.06543e-08
-2.44154e-09
2.84523e-05
-1.12301e-07
-3.95683e-07
3.10895e-09
-2.70123e-09
7.04042e-08
-0.000179483
-2.26148e-08
3.93676e-07
1.34251e-07
-1.59109e-08
1.20965e-08
1.86997e-07
-0.000110318
2.21047e-07
8.93691e-09
-8.5145e-08
-1.89725e-09
0.000182825
-0.000627723
1.40242e-06
-2.24414e-08
-0.000155107
-6.1904e-05
0.00105978
-0.000564262
4.20542e-07
-2.2385e-09
-3.1771e-08
-2.01671e-08
9.49549e-06
-2.46231e-07
1.79522e-08
-0.000448501
2.29001e-08
-3.72073e-08
-0.00149641
-1.32699e-08
0.00141492
-2.2695e-08
-5.00044e-09
5.84415e-09
-2.48547e-08
6.38251e-07
-2.96168e-05
2.72338e-09
-1.1189e-08
0.00026754
0.000291501
-0.000507833
-2.68296e-09
0.00147146
8.48214e-10
-1.15017e-08
-1.72634e-08
-8.90991e-06
-1.78731e-08
-1.85701e-07
3.38012e-09
-1.69888e-08
1.25841e-08
-2.11207e-08
-4.1021e-07
1.89583e-08
-5.0253e-08
-1.77889e-08
1.29568e-08
-1.92755e-05
0.000170601
-1.42749e-08
-3.41258e-08
-0.00134492
-2.38392e-08
-0.000144329
-1.98279e-08
0.000135817
-3.4533e-08
5.16023e-07
4.3831e-09
3.8878e-07
-1.94018e-08
0.000561594
-1.28959e-06
-2.05564e-08
-3.13916e-08
8.04544e-06
-1.40751e-08
0.000167823
-1.03032e-06
-2.27577e-05
1.057e-07
0.000129007
7.6346e-09
6.3077e-05
-2.28155e-06
1.31812e-07
-1.30778e-07
0.000118617
-1.11515e-09
-6.88613e-08
-4.22992e-05
8.24167e-09
-3.54455e-08
-2.31838e-05
-3.47384e-08
-3.97189e-08
2.14131e-05
-1.00866e-06
-2.433e-08
0.000176736
-2.49165e-05
-1.46352e-08
-1.14996e-08
2.22865e-09
-2.45981e-08
3.82536e-05
0.00108412
-1.50674e-05
-2.60649e-05
-1.4451e-08
1.54529e-07
1.99531e-06
1.52847e-08
-5.59948e-05
4.19714e-05
0.000151493
-3.08773e-08
1.09897e-05
-1.50541e-08
-0.000187914
-9.3484e-09
1.01148e-07
-8.63773e-08
-3.69064e-08
-1.73262e-09
-4.84673e-08
1.43511e-07
-1.04084e-07
-2.23306e-06
4.5823e-05
-3.21585e-05
2.09299e-07
1.98803e-07
-1.80913e-08
2.78217e-05
-0.000187851
2.13924e-09
0.000756459
-1.45839e-08
-8.50642e-06
-3.48878e-08
-1.45068e-09
-2.38999e-08
-0.000735545
-2.49219e-08
-0.00015612
-1.05941e-05
2.08764e-07
3.48452e-06
-1.77359e-08
-7.01603e-07
1.89188e-06
-1.76948e-08
-2.21732e-08
8.36884e-09
-1.15718e-08
-2.32721e-09
-3.85911e-09
-4.69233e-09
-1.32018e-08
-8.33077e-05
-1.21619e-09
0.000129583
-0.00122044
9.36342e-07
5.12733e-07
-9.85257e-05
-8.88526e-05
9.17794e-09
-1.69045e-08
-3.12179e-07
-4.16485e-08
6.80901e-09
-1.18459e-08
0.000971626
-0.000279887
-0.00152657
-2.69246e-08
-2.45145e-07
-9.82075e-08
-4.08849e-08
-1.09195e-07
-3.74383e-08
1.71804e-05
-3.97196e-08
-1.67275e-08
-0.000135137
0.000130153
0.000115178
-4.71732e-08
8.2297e-07
0.000178353
-0.000120348
-7.50348e-05
-3.73569e-08
-4.43867e-09
-3.78908e-08
9.48529e-09
-3.13579e-05
-4.1215e-08
-4.64142e-08
-1.61899e-08
8.56409e-09
-7.24917e-05
-1.75746e-08
-4.20302e-07
-2.93235e-05
1.34711e-06
0.000132535
-1.61076e-09
2.02899e-09
-5.90213e-08
1.92668e-08
-2.96753e-08
-0.00100686
2.00629e-06
2.11465e-08
1.8399e-05
1.64398e-08
-4.46092e-08
-0.000135143
-1.48621e-08
2.77237e-07
-2.71254e-05
-3.72104e-07
-5.02194e-08
-6.1472e-07
5.98231e-08
8.41997e-07
-1.58726e-06
1.10449e-07
-6.64149e-08
-4.64583e-08
0.000930389
6.93418e-09
-1.6808e-08
2.53615e-08
9.63664e-09
-5.91244e-05
0.000287628
-2.16129e-08
-3.96656e-08
-0.000798839
-8.56815e-05
-4.59621e-09
0.000150023
-2.19623e-08
6.94875e-08
-2.22182e-08
-0.000180243
0.00121376
1.31333e-09
-1.6449e-08
-0.000157606
-4.22691e-07
6.977e-06
-1.84233e-09
-0.000176338
-3.41754e-07
-0.00118778
-1.63501e-08
4.70361e-05
-0.000315517
2.0003e-08
-1.12537e-08
-3.47925e-08
3.02606e-07
-1.98846e-05
-5.02398e-08
-1.20019e-08
-2.52977e-08
-2.60555e-08
-0.000163341
-4.69659e-05
1.84866e-08
6.07032e-08
-2.84911e-08
-2.48193e-08
-3.17686e-07
-0.000197258
9.15236e-09
-1.4254e-08
-1.06747e-08
1.05895e-09
-0.00104619
9.94796e-05
-5.60847e-09
-5.16196e-09
1.79015e-05
5.74176e-08
4.79285e-09
7.82422e-09
-2.91472e-08
-7.85679e-09
-6.16145e-08
-4.06908e-07
-9.38761e-07
-1.90432e-07
-1.2045e-07
-0.000277846
-6.44914e-08
-4.60223e-09
-0.000177441
2.33186e-09
-3.45772e-08
-2.75518e-08
0.000677218
-7.85455e-09
-3.36979e-08
4.89998e-07
1.55552e-07
-1.23259e-06
-1.42326e-07
-4.2662e-07
1.00143e-08
-1.37356e-09
-0.000405072
-3.18225e-07
0.000269902
-3.85244e-08
1.27437e-08
5.06525e-06
4.77439e-05
-0.000112309
-6.6115e-08
-3.292e-07
-3.32175e-08
7.59875e-09
6.48825e-09
-6.67834e-07
7.37375e-08
-2.13743e-09
-1.59661e-08
1.46096e-07
0.000295037
7.71547e-06
-1.98395e-08
-3.26576e-08
-0.00110466
-5.09172e-08
4.8679e-09
-3.69572e-07
0.000114525
0.00098327
-1.53278e-06
-3.53182e-08
0.000180368
3.3306e-07
-3.9137e-08
1.41359e-08
3.3657e-08
-2.187e-07
-2.55479e-11
-0.000574085
-5.80417e-07
2.89978e-08
-0.000390589
1.15111e-08
-0.000102602
-2.4732e-09
-5.59408e-09
0.00154737
0.000156761
1.38929e-06
1.17435e-08
-3.96302e-08
-5.5899e-09
2.58179e-08
-2.80406e-06
9.82582e-07
8.01126e-09
4.06448e-07
-6.69545e-08
-2.10081e-08
2.21189e-05
8.81813e-07
9.95322e-06
2.74486e-09
-2.47141e-07
9.29234e-09
-1.69187e-05
2.33303e-08
-1.38924e-07
1.3579e-08
-2.89248e-08
-1.96804e-08
-1.38616e-08
-2.39805e-07
-8.56703e-09
-2.11866e-05
-7.95243e-06
1.57944e-08
-2.44965e-08
-2.00069e-07
-2.65732e-06
1.94614e-05
-2.07915e-08
6.411e-08
-1.14356e-08
-2.27244e-08
1.7452e-08
-0.000299814
-1.87947e-09
0.0026388
-2.01447e-08
-2.95928e-07
-4.93755e-09
-0.000160188
1.16463e-07
-3.27913e-08
-3.0765e-05
-7.33297e-05
-1.25004e-08
-2.78263e-08
0.000206091
-2.54667e-07
-1.77304e-07
-6.67774e-09
-1.32974e-08
1.15077e-07
-3.69031e-08
-9.46279e-08
1.73285e-07
-1.92778e-08
8.21813e-08
0.000158607
-2.44823e-08
-3.95548e-08
-2.38148e-08
0.000159969
-7.82446e-10
-3.43795e-08
6.18884e-05
-3.455e-08
0.000259969
1.49989e-08
3.9737e-08
-2.38277e-08
-1.74339e-08
-1.77919e-08
-1.2814e-08
-3.01495e-08
1.2177e-07
-2.14485e-08
2.25246e-06
1.69313e-05
-0.000199684
-5.62837e-08
-1.52667e-09
-5.25988e-09
4.91313e-09
9.57782e-05
-7.13447e-05
-4.58988e-08
-1.06802e-08
-6.03599e-05
-3.33964e-06
1.00049e-05
-2.08439e-06
4.52914e-09
-0.000777159
6.98233e-09
6.25591e-09
-2.61522e-07
-2.35475e-08
-3.83983e-08
1.11933e-06
-4.86543e-09
-3.72858e-08
3.25256e-08
-2.87985e-08
-1.6446e-08
-2.37203e-08
5.61194e-08
-3.03873e-09
-1.7802e-08
-3.01839e-08
-4.13086e-08
-8.79994e-09
-8.9867e-08
-1.1997e-08
-1.43616e-08
-1.21544e-09
-3.50785e-08
-2.58681e-08
-5.90977e-09
-2.31744e-08
-0.000173689
2.60762e-07
1.73647e-06
-2.8867e-08
-3.05455e-09
-4.84523e-08
-6.01861e-08
7.69242e-10
-0.000990766
-1.21519e-07
8.81108e-05
-2.24058e-08
-2.66624e-07
-2.08732e-09
-1.89009e-09
-2.76604e-08
-2.03754e-08
8.19381e-05
-2.96865e-09
-0.000328809
-6.2144e-09
2.11186e-06
1.50497e-07
2.84985e-07
8.78752e-08
-2.85782e-08
-4.71651e-12
2.70592e-07
-2.30977e-09
-1.01528e-08
-0.0014192
-3.94412e-08
-1.34311e-09
1.7409e-08
-1.91743e-08
-4.24868e-08
1.541e-09
9.31764e-07
8.74856e-05
7.95842e-09
-2.47123e-08
-3.59108e-08
8.47537e-05
-1.78766e-07
-1.83832e-08
-3.79758e-08
-0.0012544
0.00229832
2.47001e-05
-3.85014e-07
-3.69404e-08
-3.27789e-08
-4.15475e-08
1.18514e-07
9.07352e-09
-1.60502e-05
1.59726e-07
0.000156615
-3.26091e-08
-2.26068e-08
4.12214e-05
-1.54477e-08
4.20806e-09
-3.06823e-09
-1.79016e-08
8.10441e-08
1.14428e-07
7.06391e-09
0.000306193
-1.39655e-05
1.09365e-07
-3.02115e-09
-2.12022e-08
8.15381e-07
-0.000809727
-4.64215e-09
-5.24768e-05
-2.13994e-08
6.7368e-09
-2.61313e-08
-1.59133e-08
-6.50385e-05
-3.28893e-09
-0.00231527
8.67106e-09
-5.56231e-10
-2.84149e-08
5.52201e-10
-3.36421e-09
-3.88427e-08
5.56583e-06
-2.02427e-08
-1.86277e-08
0.000432132
0.000696548
3.3943e-08
1.22126e-09
-7.7336e-08
9.42851e-09
-2.5903e-08
-1.31104e-07
-0.000168664
2.51985e-07
-4.59802e-09
-1.84435e-08
-1.55388e-05
4.40235e-09
-2.52873e-05
-1.49033e-09
-7.67688e-10
0.000176325
4.70134e-09
8.50549e-09
6.29058e-05
-1.00494e-06
-2.906e-09
-2.35851e-07
-2.80623e-08
-4.06365e-09
-2.79841e-08
-0.000152295
-2.92791e-08
-3.14863e-08
-2.53055e-08
-0.00239415
-4.02135e-08
-2.7116e-07
6.32178e-07
-1.80289e-08
-5.29788e-08
-6.56287e-09
-2.2068e-05
-1.54769e-08
-2.19106e-08
-1.57102e-09
7.33163e-07
-5.17822e-10
-3.57731e-07
-6.19889e-05
4.26734e-05
4.7803e-08
-1.39024e-05
4.91702e-05
1.29013e-08
0.000184293
4.81072e-05
3.62997e-05
-6.77787e-05
0.000396364
4.3356e-06
-2.87018e-07
-3.69068e-08
-0.000466869
4.36192e-09
-0.000106955
-1.62786e-08
-3.17262e-08
-2.21941e-08
-7.62944e-09
5.90561e-09
5.62548e-08
0.00014917
-3.06669e-08
-6.50003e-09
3.44456e-06
1.29041e-06
6.4017e-11
-1.05291e-06
1.57455e-08
1.91846e-09
1.22524e-05
-1.30154e-06
-1.38956e-08
-3.93228e-08
1.35126e-05
3.68366e-05
-2.65167e-06
-2.49132e-08
5.90837e-08
1.08205e-07
5.23769e-05
8.17225e-05
5.85873e-07
-2.44058e-08
-6.53688e-10
-3.34512e-08
-3.79343e-08
-3.04945e-08
-3.70104e-08
-7.2046e-09
-1.2051e-09
3.06097e-05
-1.05499e-07
-3.14375e-08
-2.83372e-07
-0.000133999
5.30937e-08
6.44614e-09
-0.000120026
-1.92728e-08
-5.66409e-09
7.42896e-08
2.25473e-05
-3.86644e-10
2.35795e-09
4.25885e-05
-2.7403e-05
0.000925392
-2.87165e-07
-3.06292e-05
-4.46685e-10
-5.71762e-07
5.09896e-09
-1.77529e-08
6.22272e-09
-0.00076157
3.30362e-06
-1.76031e-08
-2.778e-08
-5.76684e-09
0.00087504
-3.45364e-08
1.13628e-08
-2.79288e-09
-4.02319e-08
-9.64421e-07
-1.85656e-08
-3.36682e-08
2.06781e-07
9.68029e-05
-1.7945e-08
2.36973e-07
-2.29337e-08
-0.000167068
-0.000131529
-1.10209e-08
-3.04394e-05
-9.90889e-08
-6.28158e-08
-3.452e-10
-0.000647839
-2.29418e-09
1.69657e-08
-4.13783e-08
-2.57544e-07
-0.000607492
5.58788e-07
2.01975e-06
-2.42284e-05
-3.00452e-08
-1.01618e-05
-1.66381e-08
-3.42095e-08
0.000124585
6.67936e-09
-1.71438e-09
-1.91055e-08
1.95517e-09
2.72463e-05
-3.09919e-08
-1.31579e-08
8.3418e-08
1.22566e-08
1.96809e-08
-1.10797e-06
1.11827e-06
7.64703e-05
2.04239e-07
2.49601e-09
1.47877e-09
-5.02846e-05
4.48464e-08
-9.8792e-05
-0.000395003
-1.72709e-08
-2.00378e-08
-0.00022779
1.00012e-05
5.3443e-09
-1.44786e-07
8.16666e-09
-2.90165e-08
4.77822e-09
2.67187e-09
-7.41666e-08
-8.72393e-12
-4.01657e-09
-8.49609e-08
-1.37614e-08
-4.00093e-08
-1.3634e-08
-8.69913e-08
-3.02829e-08
9.94299e-08
-1.44426e-08
-9.60246e-09
-7.81701e-09
-1.75888e-08
3.76944e-06
-1.99836e-08
0.000464661
-3.63368e-09
-3.71318e-08
2.12766e-10
-5.83217e-10
1.48022e-08
6.17314e-08
-2.84505e-08
-1.71927e-07
-1.60213e-08
-0.000527544
5.08599e-09
2.90751e-08
1.35519e-05
-1.97141e-05
5.38649e-10
-3.61612e-08
-1.05086e-05
-1.68042e-08
-1.15741e-08
5.10646e-05
-0.000146385
-6.21377e-09
1.3684e-06
-1.29022e-08
-9.73852e-09
-0.000839377
-1.94722e-08
-2.88998e-08
-0.000106343
-1.25489e-08
0.000423802
-3.8046e-09
-2.92165e-08
-1.80302e-08
1.10647e-06
8.52237e-05
1.04733e-08
-1.17379e-08
-3.17511e-10
-1.83792e-08
-1.92459e-08
-4.22416e-06
-2.03557e-08
-2.03288e-09
0.00113521
3.08532e-07
-7.06436e-06
0.000186626
-1.27254e-06
-1.8378e-08
7.18533e-09
-6.2065e-09
1.91713e-06
-6.21057e-08
0.00010328
4.0649e-05
-1.59562e-08
9.25905e-05
1.50395e-07
-4.36297e-08
1.73104e-06
-4.07967e-08
3.75621e-06
-0.000635371
-6.64543e-08
7.48882e-07
0.000200473
2.457e-07
-2.33043e-08
-3.44684e-05
-1.61551e-08
-1.68689e-08
4.90402e-09
8.46975e-06
6.1633e-08
-2.13615e-08
-1.03423e-07
-7.43706e-08
1.74164e-08
2.27448e-05
-3.02249e-08
-6.17749e-05
1.7478e-08
-6.35169e-06
-9.34132e-08
-7.57312e-08
1.61156e-08
-1.7369e-08
-3.90327e-08
1.54116e-05
-1.43445e-08
-2.17422e-08
-4.55247e-08
-2.95802e-08
-2.91053e-08
3.49543e-07
8.16948e-07
1.64175e-06
-4.82341e-07
-3.13924e-07
-0.00172194
-1.44517e-06
-2.32672e-08
0.000764662
-0.00112328
-2.99811e-08
-1.08916e-08
1.39917e-08
8.02433e-05
-9.54908e-10
-1.04547e-07
5.42957e-06
4.01134e-08
7.25129e-09
-3.32443e-08
-1.28809e-08
-1.36524e-07
8.61572e-08
-2.31495e-08
5.14149e-05
-0.000733983
1.77921e-09
-0.000172182
2.59419e-07
0.00212175
-3.46018e-08
1.29751e-08
-0.00148484
0.000316714
5.53161e-07
1.53542e-05
5.60572e-09
-1.82625e-09
-9.41469e-09
-3.79619e-08
-1.06428e-09
-1.01885e-10
-6.81817e-09
2.36784e-09
1.81738e-07
-1.84176e-08
1.64543e-08
-1.68643e-08
3.98446e-07
4.81391e-07
6.11961e-07
1.27899e-08
1.78576e-07
-9.23685e-09
-0.000904594
-1.44839e-08
-2.4651e-07
-6.03767e-09
-6.32615e-06
-0.000169084
9.17444e-07
3.19814e-09
-2.36726e-07
-2.11658e-08
7.63125e-09
-0.000149832
-5.37504e-09
4.60981e-09
4.79432e-08
1.4269e-08
2.3517e-05
2.65096e-09
-4.58415e-08
-3.99548e-08
-1.82688e-08
-5.75883e-07
-3.86767e-08
-3.36218e-08
-1.43907e-08
-0.00018033
3.94653e-09
3.30727e-06
0.00101578
-3.4041e-08
5.78557e-05
-2.23689e-10
-3.30451e-08
7.83534e-09
-0.000141599
-3.84395e-08
1.85997e-08
3.94434e-08
0.329959
-6.50565e-09
2.97745e-06
-2.74765e-08
-7.59196e-08
-2.52774e-08
-2.96783e-08
1.64396e-06
4.06616e-09
-7.84086e-10
1.3283e-08
-1.8668e-08
-1.79506e-08
1.05979e-08
1.89746e-07
-3.86412e-07
-0.00026669
-4.07488e-08
1.41366e-07
-0.00214445
-4.70872e-05
2.68128e-08
-4.06283e-07
7.38695e-05
-1.50882e-08
-6.31433e-05
-3.67826e-08
5.71576e-05
2.14006e-06
-1.74043e-08
-4.14431e-09
-1.54997e-08
-2.58744e-08
4.26432e-08
-1.71813e-08
7.11293e-08
5.73173e-07
1.26843e-08
2.71367e-07
-9.71546e-05
2.07867e-08
2.20014e-09
0.000262825
8.5579e-09
0.000155659
-3.06656e-08
8.76655e-08
-1.05329e-08
-0.000171698
3.95233e-05
-2.36199e-08
-2.38037e-08
-0.000907104
1.01986e-08
1.34441e-05
-2.13669e-08
-1.29652e-08
0.000254567
-1.11458e-08
-2.90082e-07
-4.86456e-06
-7.18918e-09
-6.01739e-08
8.41572e-09
-2.88985e-08
-3.38622e-08
-0.00067248
5.82247e-05
-2.48456e-08
1.55029e-09
8.82727e-09
-7.01986e-09
6.25613e-07
-9.89208e-05
-1.05143e-08
-1.55934e-06
0.00132653
7.28991e-06
0.000518918
-7.59164e-09
9.62868e-07
-1.06089e-08
-8.80366e-08
-1.42483e-08
1.38941e-07
-2.50393e-05
-1.2251e-08
-7.44146e-08
0.00060149
-4.85357e-06
1.33824e-06
-1.17704e-08
-1.03591e-08
1.76634e-10
-7.5039e-10
6.30502e-05
-9.26264e-09
-1.62129e-08
-2.51392e-08
1.83993e-08
-1.03967e-09
1.8419e-09
-4.71272e-09
1.407e-07
7.69096e-09
0.00128403
2.25639e-07
-5.12148e-06
-0.000172179
-3.02738e-08
-2.36886e-08
-2.58127e-08
-4.62248e-08
-0.00016679
-3.81075e-08
-3.05949e-08
3.68429e-08
-2.25502e-07
-8.5384e-07
-0.00121605
3.606e-05
-2.10664e-08
0.000110975
-2.74734e-08
4.16016e-09
-1.84529e-07
-7.6812e-10
-2.32684e-08
-3.04057e-07
-0.000617885
-1.24416e-08
-0.00153825
-3.86339e-08
-1.77621e-08
-2.89423e-08
6.1765e-07
5.29753e-09
-3.1321e-08
2.0792e-05
-1.72503e-08
-5.77516e-06
-0.000214848
-4.60698e-09
5.43682e-07
-2.15142e-08
-9.0564e-05
-8.45833e-08
-1.73155e-09
-0.000875485
-7.51755e-09
1.11303e-08
-5.67652e-10
4.60616e-05
1.1991e-07
4.68203e-06
-3.84588e-08
-3.06402e-08
-0.000142027
-1.87079e-08
2.52653e-06
1.03708e-08
-5.79806e-08
-7.21929e-08
-4.65074e-09
2.27285e-05
-3.44253e-08
-2.6516e-07
-2.12424e-08
-1.46295e-07
3.85874e-08
4.41804e-07
-7.64097e-09
0.000551022
-4.87884e-08
0.000138856
-3.18717e-08
1.52049e-07
-2.30364e-08
-1.5539e-08
8.43674e-09
2.47184e-07
-0.000370415
-3.82081e-08
-2.77671e-08
3.5294e-07
8.69177e-09
-0.00227535
5.06683e-09
-0.00125715
-1.14509e-06
9.77123e-09
-1.36977e-08
-9.04172e-09
-3.63211e-09
-3.59025e-08
-1.9078e-07
1.16686e-08
1.16965e-07
-3.50723e-09
-1.44761e-08
-0.000450312
7.16574e-10
1.58422e-08
-0.00171953
5.48438e-09
-3.56786e-05
-4.78567e-09
-2.45269e-08
-2.0216e-08
-7.38936e-05
-0.00033844
-0.000935643
-0.00103617
-8.81906e-09
-4.11934e-07
5.88267e-05
-1.0826e-06
-6.65249e-09
5.88808e-09
2.2324e-07
-0.000795059
0.000139166
3.27035e-07
-3.46895e-08
7.13801e-07
-1.3319e-08
-0.000124021
2.55648e-06
3.03063e-08
-1.58382e-07
-2.96146e-08
2.38902e-07
5.71456e-07
-7.34013e-09
-4.30951e-08
-0.00104766
-2.35008e-09
0.00107223
-2.89444e-09
-4.79396e-09
1.26869e-05
3.33609e-06
-2.48358e-08
-3.50915e-08
-9.40176e-09
-1.24766e-08
1.25655e-08
-2.15778e-07
-3.2888e-08
-1.69934e-08
-1.11164e-08
4.78975e-08
9.83323e-09
6.54531e-09
-0.000147995
-4.95564e-09
-5.80017e-05
4.8685e-05
0.000297081
3.79031e-08
-6.99624e-09
-2.08741e-05
4.6249e-09
-0.000574755
-0.00180179
0.00372346
-3.97389e-08
-0.000126293
-5.62119e-05
-3.39334e-08
-1.79129e-08
-1.26453e-07
2.09972e-05
-0.000982444
-1.93887e-08
-1.7842e-08
0.00011571
-0.000984305
0.000263611
-5.58947e-09
4.69121e-08
3.79893e-08
-2.98876e-09
0.00018023
-1.43101e-05
2.86698e-05
7.89607e-07
8.48757e-09
2.87225e-10
-2.75832e-08
-9.77651e-08
0.000143612
2.97325e-08
-2.1286e-08
-2.48995e-10
2.21879e-07
7.866e-05
4.44712e-08
0.000447308
6.0495e-06
0.000175519
1.13349e-06
-1.46991e-08
-6.80323e-09
-0.0013103
-3.14282e-08
-1.72242e-08
-3.42914e-08
-1.95275e-07
-1.65566e-09
-1.18556e-05
-2.03739e-08
-1.73535e-08
-0.000137827
3.70145e-09
-2.98305e-08
1.35583e-05
4.10659e-08
-1.31748e-07
-1.85547e-08
2.4144e-06
-7.10977e-05
-1.34483e-10
-0.000939073
0.0013608
0.000128634
2.83972e-06
4.95275e-07
-4.78148e-09
6.61023e-09
-3.80099e-05
1.77793e-08
-0.000895513
1.51469e-08
-0.000238026
0.000109587
-7.86194e-09
5.23866e-09
-1.80612e-08
-8.52631e-09
7.21264e-05
0.000160238
-3.17815e-09
1.33094e-05
2.60906e-08
-1.56383e-08
-2.93654e-08
-6.39982e-09
-1.26293e-06
-1.09223e-08
2.32133e-06
6.66793e-08
-9.64146e-09
-3.22782e-08
1.8451e-06
-0.000127828
-5.73619e-09
-2.63663e-08
4.79173e-09
6.59423e-09
1.15823e-08
-2.465e-09
7.56647e-05
0.000127913
-1.8389e-05
-3.31702e-08
-2.87295e-08
-3.8434e-08
9.17874e-07
-1.13526e-08
-3.97493e-08
9.7066e-08
3.20442e-08
-0.00337058
-1.8345e-08
-0.00011792
0.00011314
-3.03794e-09
7.58579e-05
-2.80636e-07
2.57673e-08
-5.29582e-07
-3.70191e-08
2.00164e-05
-7.78798e-08
-1.94576e-08
-1.6173e-08
-3.15897e-08
1.49972e-05
-5.57209e-08
-3.70141e-08
-3.35654e-08
-0.000111005
7.96366e-05
-3.22866e-09
-2.58757e-08
2.80972e-09
-2.06983e-08
-3.38331e-07
2.18374e-09
-1.80099e-08
-2.00749e-09
-2.60616e-05
-2.61156e-08
0.000234639
-3.12434e-08
-0.000233103
8.01366e-10
-3.03599e-08
0.000134794
5.10302e-07
-4.14079e-06
1.43169e-05
3.49687e-07
-2.10994e-09
-5.96122e-09
-5.42987e-05
-1.1657e-09
-9.99231e-09
-1.75787e-07
2.47959e-07
9.27762e-06
5.08963e-05
-1.46503e-07
-0.000672414
2.91525e-08
0.000439186
-4.65185e-08
1.65766e-08
-9.73739e-10
-0.000126502
2.89815e-08
-0.000139041
0.000169961
-2.36353e-08
1.27051e-09
-2.73985e-09
-0.000370193
-3.52044e-07
3.16587e-09
-9.14621e-09
-4.24364e-08
7.56894e-09
-2.09167e-09
-6.87344e-05
-4.48523e-07
-1.62051e-08
-1.18754e-05
-1.04864e-07
-0.000173513
-8.35908e-08
-3.38255e-08
1.39108e-08
-0.000137127
-2.92114e-08
4.42141e-09
-0.000286422
-2.59921e-08
-2.1421e-09
1.76769e-07
8.54463e-07
-1.17989e-08
0.000178115
1.63704e-08
-2.49392e-05
2.52495e-08
-5.48165e-08
-1.18439e-08
-5.46274e-05
-2.00795e-08
9.39514e-08
-1.18481e-07
7.60885e-05
-3.19143e-08
-1.99631e-08
-1.87899e-08
3.12592e-07
-3.47961e-10
9.85509e-05
-4.86501e-09
-5.86192e-09
1.27723e-08
-1.33374e-08
-2.39017e-09
-3.85283e-07
-1.34732e-08
-1.15297e-08
-2.84865e-09
-7.51886e-08
3.22244e-09
-7.4941e-10
1.11186e-07
4.20107e-07
-2.1616e-08
3.40408e-10
3.78879e-07
4.00479e-07
-4.6513e-07
6.68563e-08
4.05792e-07
-8.49275e-07
0.000155976
3.85756e-07
-2.43512e-09
-0.0014027
-0.00124064
-2.04996e-09
1.59891e-08
-3.34079e-08
3.43905e-06
-3.50588e-07
-1.70917e-08
2.17306e-07
-0.000147298
-3.46692e-08
4.4514e-09
-0.000976266
0.000166193
2.67741e-07
-2.99408e-08
-0.00282743
-0.000272864
-3.36884e-07
-1.79205e-08
-0.000112177
4.6794e-07
-6.22112e-08
2.58839e-05
1.45726e-08
-3.41564e-08
1.44259e-08
2.31167e-07
5.98118e-09
-0.000966673
-0.000135752
-2.81726e-08
-0.000171779
1.92298e-07
5.28616e-05
-3.3417e-08
-8.30144e-07
-5.2592e-10
-7.27563e-09
0.000256791
0.000671854
3.62973e-06
0.00133804
-2.17226e-08
1.12266e-08
-3.60241e-08
-1.64433e-05
0.000165843
-3.34716e-09
-2.22369e-08
-7.85573e-08
-2.07263e-08
-4.35495e-08
0.000385098
-0.000821004
-1.64175e-10
4.2713e-09
-2.62277e-08
0.000167688
-1.54218e-08
-8.33442e-09
-2.77798e-08
-3.59262e-08
6.0241e-07
0.000187407
0.000989748
-1.98339e-06
-7.66878e-09
-3.16963e-06
-5.2511e-08
1.93424e-07
-0.000257322
6.0639e-05
-1.31027e-08
-7.42925e-11
1.4476e-08
-3.33335e-08
5.23273e-09
0.000360879
-0.00014618
-2.14202e-08
-4.11167e-08
-1.36845e-10
-1.61853e-08
4.90914e-06
-1.67279e-08
-0.00112192
-1.81896e-07
2.27255e-07
-2.73664e-08
3.27338e-08
-0.000132503
3.90342e-09
1.65654e-06
5.15195e-05
-8.1501e-09
-0.000175002
-5.87032e-09
3.05432e-07
-4.06123e-07
-6.77319e-05
5.40968e-05
2.22339e-07
-6.22861e-09
9.48714e-07
-1.73745e-08
-7.92765e-08
8.76766e-09
-0.00128988
-8.63502e-08
0.0147229
-7.17137e-06
2.15567e-09
-3.39017e-09
-6.86043e-07
4.50375e-09
-1.76949e-09
-6.11733e-07
-3.46948e-08
-9.87023e-09
5.93754e-09
9.08893e-09
-0.000565738
-3.83496e-08
1.47105e-05
-1.55325e-08
-8.54928e-09
9.58195e-05
0.000177158
-2.33442e-08
-8.24778e-08
3.30528e-08
7.90135e-08
1.56974e-07
-2.1696e-08
-2.26147e-09
1.57035e-08
-1.10475e-05
1.03004e-08
-0.00149265
7.29727e-08
-2.46496e-05
9.65804e-07
-6.73193e-09
0.000422785
-3.7811e-08
-0.00023735
-5.90403e-08
-3.58956e-05
0.0025317
0.00182362
-0.00187645
5.81204e-07
2.82232e-08
-1.57846e-08
0.000341925
2.28396e-08
-3.05805e-09
5.61878e-05
0.00114643
-5.64287e-09
-1.65279e-08
1.15917e-08
1.20892e-08
2.06539e-09
-0.000175359
-2.42697e-09
-2.24536e-08
1.57552e-08
5.05906e-08
-7.71999e-09
3.04469e-07
-2.25362e-08
-0.0014655
-2.08368e-08
-1.91248e-07
1.29761e-08
-1.40026e-08
-1.80296e-07
0.000834221
6.67681e-09
-2.64066e-08
-1.75059e-06
0.000163768
0.000133929
-1.68258e-08
-0.00175903
1.35649e-08
-8.22678e-06
-1.64373e-09
-3.51179e-08
0.000214886
1.30784e-07
5.02908e-05
-1.53289e-05
-1.19596e-07
-0.000181894
-2.75185e-08
-2.15449e-08
-6.33594e-05
-1.25475e-06
-3.42617e-08
0.000486431
6.04161e-09
2.38953e-07
-1.14378e-07
-1.41649e-08
-2.26913e-08
0.0010156
0.00112362
3.03972e-06
-6.13279e-06
1.69721e-08
9.84141e-08
5.86525e-05
-3.56557e-08
-3.66769e-09
5.06166e-07
-4.36219e-08
-2.35697e-07
4.02048e-05
0.000173084
0.000150106
8.55774e-08
-1.34422e-08
-3.79184e-05
-2.79254e-08
8.75292e-08
-2.91738e-09
8.67848e-05
-2.60557e-08
4.5494e-08
0.000158901
-7.61949e-08
-1.85604e-08
5.30825e-09
-6.59575e-06
2.7404e-09
-2.2738e-07
-2.7589e-08
-0.0011645
-0.000120785
-4.59125e-08
-7.83858e-08
-1.96893e-08
9.74779e-06
1.58499e-07
-1.00749e-09
-2.72929e-08
-2.46781e-08
-1.49575e-08
7.82253e-08
-3.44444e-09
2.7453e-07
-1.24083e-09
-2.08765e-08
-0.000112189
-2.47328e-08
8.31359e-09
-1.82257e-08
-1.47882e-09
0.000158934
-3.09967e-08
2.42527e-08
0.000121249
1.03742e-07
-0.0015899
5.82176e-09
-4.2945e-05
1.16007e-07
0.000355817
-3.03673e-08
-2.12675e-08
-2.86761e-08
2.84956e-10
3.60566e-07
5.08828e-07
-2.67809e-06
-0.000138499
1.30599e-06
0.001226
4.56522e-08
2.14238e-07
-5.40514e-07
0.00119111
-6.00745e-09
-2.86105e-08
3.05032e-09
7.69072e-08
-1.32883e-08
0.000274569
-4.2871e-08
-0.000318449
-0.000706083
3.33274e-07
-8.85143e-09
0.000329677
-1.40001e-08
2.3334e-09
-1.48298e-08
1.18134e-08
0.00104481
-8.20342e-10
0.000171294
-2.64345e-08
-4.73881e-09
-5.04986e-05
-1.14619e-07
-1.74388e-08
1.37169e-09
-0.000173814
-3.27673e-08
-3.51106e-08
1.47412e-08
-1.62559e-08
1.33686e-08
-2.92008e-08
1.57525e-06
1.59203e-06
-4.35069e-07
2.2066e-05
5.45239e-05
0.000153566
-0.000169377
-2.99451e-08
1.1526e-08
8.40377e-08
-1.32913e-08
-5.83158e-07
-0.00179364
0.000158174
-3.1225e-08
-6.23152e-09
-0.000252078
-0.0013797
-2.95802e-08
-2.70915e-08
6.97497e-08
3.28035e-05
-0.000734316
1.32924e-08
5.85935e-09
-2.11473e-09
-9.37176e-05
2.87956e-07
-5.15489e-08
-2.42127e-07
-3.9284e-07
1.52127e-09
1.52727e-09
-1.02821e-05
-2.32911e-09
-1.23241e-09
8.62962e-09
-0.000124977
-3.53754e-08
8.0413e-05
-9.97361e-09
0.000188366
1.87095e-08
8.93841e-07
-2.83869e-08
-9.10197e-09
1.38008e-08
-0.00123378
1.52329e-08
-9.20466e-05
5.72874e-05
-1.00935e-08
3.29157e-06
1.54519e-06
-4.62826e-08
0.0016528
-1.78478e-06
-2.66589e-07
-2.82694e-10
2.02741e-05
5.18394e-05
-1.20111e-08
7.3325e-08
0.000152006
7.82842e-08
-2.22682e-09
-2.24621e-08
2.88409e-10
1.22041e-09
-1.05435e-07
2.02458e-05
-7.19676e-08
2.49663e-08
-4.09846e-08
-6.71375e-09
-0.000314509
-3.08518e-08
-4.56487e-08
8.99834e-08
-3.31977e-08
-3.08737e-08
-1.68229e-08
-3.43811e-08
-3.97565e-05
-1.74754e-08
-5.55658e-05
-1.43769e-08
-0.000158965
7.08893e-05
-1.10344e-07
-2.47468e-08
-1.46194e-11
-0.000136297
-3.08646e-08
-7.00696e-10
4.84987e-09
6.67096e-07
0.000188514
6.83024e-09
0.000159946
4.49113e-07
0.00100512
-4.57455e-10
2.94477e-08
-1.5232e-08
-4.79851e-09
1.48927e-05
0.000176366
1.04607e-05
-1.12342e-08
-5.42845e-08
9.30364e-09
2.81695e-05
3.34594e-05
3.78032e-06
1.13979e-08
-2.97834e-08
-0.000149416
-7.90993e-09
-9.25424e-09
1.69872e-05
2.30867e-07
8.96447e-08
9.47032e-08
-3.74172e-08
1.95056e-08
1.24542e-08
-0.000180812
1.83559e-08
-1.73787e-08
6.54629e-05
-8.76644e-07
-2.70066e-08
-4.80398e-05
-1.7703e-08
-8.88712e-09
-1.2637e-06
-3.8429e-07
-2.15587e-05
-2.78269e-08
-1.40448e-08
2.95014e-10
-2.30002e-06
-3.16209e-08
3.64453e-06
0.00151272
7.38619e-05
-0.000123475
2.63649e-05
2.51874e-07
-0.000152394
1.94277e-07
-2.50814e-09
-8.93713e-08
-7.143e-08
1.18735e-07
-2.49347e-07
-4.93338e-05
3.56844e-05
-0.000119174
1.02313e-07
1.86465e-09
-8.80638e-08
-1.8955e-08
9.591e-06
1.51788e-08
-2.78303e-08
1.47215e-08
3.60086e-09
-2.44328e-08
-1.70616e-07
2.60734e-05
-3.28045e-08
8.96253e-09
-2.9778e-08
-0.000148499
9.94044e-09
-0.000224135
-0.00137408
6.41078e-06
-6.37055e-09
-2.40208e-08
3.54521e-05
-4.6885e-06
-3.13146e-09
1.37952e-06
-1.68806e-09
-8.28934e-08
-1.82109e-08
-2.8143e-07
1.41173e-09
-0.00129747
-2.8095e-08
-1.59088e-08
-5.18223e-06
-0.000177466
1.11694e-08
4.2312e-08
-6.74776e-10
-4.90294e-05
-9.7523e-09
-3.12596e-08
-8.81484e-10
1.2577e-08
-1.16296e-07
3.60968e-05
0.000338151
1.84316e-07
-0.000146656
0.00115766
-3.25699e-08
3.93182e-09
-2.95059e-08
4.64589e-07
-5.86927e-09
-3.14188e-08
4.24004e-09
-1.07627e-08
-1.56328e-08
8.29007e-05
-3.37527e-08
6.61932e-06
-2.38471e-08
-4.35125e-08
-4.90159e-08
-1.1743e-06
-1.79063e-08
5.92062e-09
1.5829e-08
-1.4686e-08
0.000154559
-9.29492e-09
0.000169801
-9.32923e-09
3.31793e-08
-4.71935e-08
-1.71768e-10
7.76067e-06
4.6947e-05
-7.98655e-09
-1.50252e-08
-1.07429e-05
-1.6439e-06
6.71603e-08
0.000243229
-2.50108e-08
5.36573e-05
3.19013e-09
-3.32459e-08
0.00147538
-4.03699e-08
-0.000463163
-1.05145e-09
-3.13728e-09
-8.2152e-09
7.54488e-07
9.72152e-05
-3.1126e-08
-1.83814e-06
9.01859e-06
-1.76408e-08
-1.58249e-08
-3.94271e-08
-3.26497e-06
9.06159e-05
-3.71888e-08
-3.77623e-08
1.87586e-09
-1.81336e-08
1.29124e-08
1.32627e-08
-1.73696e-08
6.96645e-07
1.17127e-08
2.31419e-07
-1.0383e-07
1.21389e-08
-3.78465e-08
-0.00204717
-3.08525e-08
-1.81575e-08
-2.00972e-07
6.92775e-09
0.000224652
2.99537e-08
5.13413e-05
-4.07827e-08
-1.55426e-08
-1.72364e-07