/*--------------------------------*- C++ -*----------------------------------*\
| =========                 |                                                 |
| \\      /  F ield         | OpenFOAM: The Open Source CFD Toolbox           |
|  \\    /   O peration     | Version:  v2012                                 |
|   \\  /    A nd           | Website:  www.openfoam.com                      |
|    \\/     M anipulation  |                                                 |
\*---------------------------------------------------------------------------*/
FoamFile
{
    version     2.0;
    format      ascii;
    class       volScalarField;
    location    "950";
    object      nut;
}
// * * * * * * * * * * * * * * * * * * * * * * * * * * * * * * * * * * * * * //

dimensions      [0 2 -1 0 0 0 0];


internalField   nonuniform List<scalar> 
13851
(
0.00656558
0.0167555
0.00175661
0.00661625
0.00241304
0.00395717
0.00679442
0.0022152
0.00676584
0.00112253
0.011111
0.014099
0.00516032
0.00692374
0.00673088
0.00285047
0.00424031
0.00577985
0.00154776
0.0067595
0.00664489
0.0019703
0.00678751
0.00685779
0.00678753
0.00207809
0.00367365
0.000243974
0.00660059
0.00648163
0.0049344
0.00397032
0.00178661
0.009501
0.00685981
0.00113053
0.000378945
0.000814074
0.0013131
0.0109112
0.00682716
0.00670988
0.00187578
0.0104907
0.0119191
0.00382372
0.0106552
0.0143396
0.00357355
0.00573376
0.00255096
0.00150193
0.00302527
0.0067695
0.00684187
0.00671404
0.00681291
0.00653999
0.00652067
0.00681727
0.000653296
0.00767216
0.002981
0.00210005
0.00293322
0.00628611
0.00119898
0.0106768
0.00263348
0.00581268
0.00216948
0.00445334
0.0150447
0.00677444
0.00672688
0.00683189
0.00222554
0.00325113
0.0026152
0.00273574
0.00682858
0.0125484
0.00675028
0.0025172
0.00308034
0.0134131
0.00448135
0.0161723
0.00349344
0.00681313
0.00115825
0.00574214
0.0107919
0.00330846
0.00426204
0.00682089
0.00235286
0.0110185
0.00609341
0.00682004
0.003678
0.00259507
0.00679168
0.00299332
0.00677378
0.00458762
0.00260483
0.00668934
0.00741031
0.00418564
0.00683377
0.00680828
0.00571097
0.00681468
0.0068351
0.0032503
0.0110945
0.00668627
0.0068904
0.00687649
0.001772
0.00321988
0.00592062
0.0061333
0.0134338
0.00670362
0.0148987
0.00252821
0.00667287
0.00147479
0.00682124
0.00672086
0.00326429
0.00674709
0.00200001
0.0067424
0.00668717
0.00407056
0.0128229
0.0154184
0.00441787
0.00684086
0.00663522
0.00679003
0.00570798
0.00990664
0.00533539
0.00147991
0.0067895
0.0130982
0.00212067
0.00685276
0.00590079
0.00682095
0.00456809
0.00650362
0.00680128
0.00667066
0.00150687
0.00256805
0.0067617
0.00312429
0.00636503
0.00672005
0.0058728
0.00675179
0.00498123
0.0026332
0.00669379
0.00613555
0.00228408
0.00670919
0.0068039
0.0151548
0.00671576
0.0128256
0.002597
0.00664102
0.00122305
0.00670108
0.00390764
0.00504693
0.00674119
0.00195661
0.00672589
0.00680544
0.00625906
0.00680093
0.00215035
0.00127379
0.0103753
0.0044599
0.00677844
0.00266245
0.00859749
0.00562783
0.00667508
0.0134995
0.00667279
0.00683207
0.00669748
0.00419873
0.00692754
0.00675411
0.00126093
0.00674402
0.00910484
0.00422799
0.00963612
0.00672363
0.0107041
0.00680312
0.0112542
0.00669044
0.00677889
0.0116857
0.00278617
0.00525623
0.00672053
0.0101845
0.00413363
0.00677975
0.0106739
0.00154743
0.0122742
0.00678811
0.00287757
0.00678366
0.00728691
0.00669489
0.00225951
0.00337473
0.00670699
0.00678785
0.00237088
0.00393265
0.0086991
0.00310347
0.00678959
0.00675635
0.00471864
0.00751457
0.0067923
0.00124011
0.00678561
0.0123388
0.00258352
0.0116681
0.00647652
0.0043419
0.00596879
0.00765029
0.00683489
0.00659705
0.00247832
0.00292209
0.00131644
0.00459236
0.000233808
0.00673323
0.00677925
0.00596323
0.0191645
0.00681038
0.00388661
0.00540121
0.00683818
0.00322102
0.0101694
0.00692267
0.00597771
0.00490272
0.0150743
0.00258121
0.00313827
0.00672358
0.0130549
0.00590633
0.0122695
0.0123975
0.00679467
0.00671427
0.00677439
0.00264369
0.018471
0.0113308
0.00679861
0.00672169
0.0147921
0.0127383
0.00124815
0.00657676
0.00682042
0.00262083
0.0125961
0.00325508
0.00596907
0.0135271
0.0067293
0.0122949
0.00295012
0.00446755
0.0119565
0.00685158
0.00447112
0.0116223
0.00679141
0.00239065
0.00295135
0.00661246
0.0123971
0.00593919
0.00683987
0.0109464
0.00672056
0.00471743
0.00665879
0.0119048
0.00164542
0.00672203
0.00248778
0.00672206
0.00124413
0.00577741
0.00679779
0.00684709
0.00168141
0.00312993
0.00519106
0.00672103
0.00685201
0.00684441
0.0118628
0.00305427
0.00732774
0.0049849
0.0117929
0.010471
0.00672673
0.00272093
0.00124543
0.00553924
0.0027921
0.00169605
0.00104761
0.00627613
0.0155373
0.0118949
0.00673748
0.00673779
0.00670355
0.00213122
0.00525618
0.00227214
0.00749128
0.00681317
0.0159112
0.00684902
0.00672084
0.00677034
0.00669108
0.00677734
0.0117012
0.0128611
0.00679053
0.00258359
0.00673833
0.0143764
0.00231154
0.0131521
0.00720831
0.00679809
0.00314528
0.00314031
0.0134456
0.00680509
0.00668678
0.00585974
0.00349635
0.00676525
0.0112643
0.00556619
0.00160063
0.00378891
0.00833173
0.00868456
0.00620216
0.00672129
0.00681406
0.00558758
0.00246229
0.00775218
0.0024308
0.0119642
0.0116831
0.00674031
0.00673579
0.00594504
0.00413928
0.00293604
0.0110155
0.00590836
0.00304842
0.00680674
0.00944617
0.00673468
0.0026345
0.00626455
0.00678348
0.00678528
0.00678509
0.00674967
0.00215661
0.00277609
0.00282646
0.00574349
0.00248835
0.00524431
0.00653305
0.00475453
0.00270463
0.00447295
0.0128656
0.00668644
0.00677895
0.00680234
0.000598281
0.00904881
0.00159842
0.00533752
0.0016173
0.00902335
0.00462997
0.00690484
0.00214513
0.00679807
0.00435828
0.00677627
0.00584993
0.0120781
0.00163036
0.00837764
0.00662494
0.0076083
0.0119068
0.00322209
0.00670234
0.00297806
0.00282872
0.00568278
0.00671917
0.00684364
0.00204967
0.00160433
0.0051274
0.0179048
0.00679886
0.00685013
0.00463618
0.00573724
0.00670791
0.0192977
0.00672106
0.00656746
0.0067306
0.00313306
0.00672954
0.00671581
0.00665368
0.0106458
0.00675372
0.00258379
0.00672976
0.00579602
0.0118709
0.00681843
0.0068345
0.00681756
0.00681152
0.00438861
0.0068389
0.00419946
0.00673799
0.00681504
0.00545618
0.00753692
0.00674918
0.00572202
0.00415251
0.0075029
0.00372013
0.00684811
0.0128308
0.00680924
0.00241254
0.00680086
0.00803984
0.0067186
0.00256978
0.0013632
0.00671164
0.00574088
0.00912012
0.00211492
0.0112395
0.00689883
0.00604868
0.00686828
0.00671381
0.00673076
0.00677515
0.00630257
0.00256851
0.00153339
0.000696238
0.00302227
0.00677001
0.00868598
0.00857273
0.0037039
0.00271927
0.00718669
0.00545127
0.0106356
0.00681895
0.0081575
0.00258219
0.00365844
0.00581693
0.005683
0.00962061
0.0081964
0.00278288
0.0126282
0.00920228
0.00663873
0.00957998
0.00530147
0.00669359
0.00442869
0.00250518
0.00495622
0.00661971
0.00673238
0.00679339
0.00678825
0.00219093
0.00446443
0.0158611
0.0180891
0.0067398
0.00388662
0.00815606
0.00430041
0.0105156
0.00257623
0.006695
0.00677276
0.0125562
0.00958046
0.00455614
0.00215172
0.00116232
0.00671239
0.00483102
0.00686762
0.000182091
0.00170881
0.00703891
0.00538772
0.00681646
0.00678545
0.0179835
0.0116974
0.00155758
0.0024835
0.00299163
0.0066973
0.00673759
0.00686917
0.00670491
0.00663772
0.00669928
0.00671366
0.00575499
0.00218623
0.00557408
0.00670394
0.0104183
0.0137167
0.00672942
0.00679417
0.00680799
0.00680504
0.00389135
0.0117616
0.0117085
0.00488018
0.00657735
0.00240331
0.00292959
0.00830354
0.00621666
0.00266049
0.00669585
0.00667239
0.00260606
0.00996643
0.016607
0.00212411
0.00310328
0.00674899
0.00308379
0.0066413
0.0107892
0.00261432
0.00673508
0.0050392
0.00671752
0.0036129
0.00153975
0.00680892
0.00679311
0.00238175
0.00682273
0.00237642
0.000810011
0.00161322
0.00319485
0.00151269
0.00674446
0.0024004
0.00586458
0.00517818
0.00681398
0.00683135
0.00693158
0.00657173
0.00312034
0.0120522
0.00715096
0.0204041
0.00673096
0.00528923
0.00678795
0.00671517
0.00672068
0.00671466
0.00636397
0.00562988
0.00398686
0.0066976
0.0104489
0.00137432
0.0106722
0.00678107
0.00674294
0.0067945
0.00125495
0.00878079
0.00225966
0.0032519
0.00677898
0.00682338
0.00681871
0.00682124
0.000275606
0.0161972
0.00681613
0.00669569
0.00677734
0.00681814
0.0023055
0.00541165
0.00299777
0.0105781
0.00526535
0.00678674
0.00154757
0.00312677
0.00261283
0.0136456
0.00683129
0.00592163
0.00218376
0.00588028
0.0118612
0.00674607
0.00822937
0.00678976
0.00219891
0.00982661
0.00683969
0.0066729
0.00297536
0.00671752
0.00416634
0.0180874
0.0131525
0.00267665
0.00286252
0.00871109
0.00669282
0.00677399
0.00671142
0.00117979
0.00323037
0.0119812
0.00677146
0.00684661
0.00669378
0.00902391
0.00134239
0.00622111
0.00682463
0.0106302
0.00395385
0.00679163
0.00265686
0.00270064
0.0103374
0.00671793
0.00681189
0.00321831
0.00163605
0.00133416
0.00667803
0.00775019
0.00674847
0.0111995
0.00141117
0.00155572
0.00495084
0.00609975
0.00609062
0.00654835
0.000398441
0.00683591
0.00692455
0.00670628
0.00674069
0.00304332
0.00283705
0.00169146
0.00564235
0.00594839
0.00675381
0.0191644
0.00688865
0.00610117
0.00674238
0.00677678
0.00677273
0.0116262
0.00678401
0.00668961
0.00790085
0.00679194
0.00534782
0.00678097
0.00664932
0.00234451
0.00255096
0.0133426
0.00676881
0.00895595
0.0109156
0.0068358
0.0108046
0.00228456
0.00673419
0.00557819
0.00226343
0.00712
0.00525173
0.00675415
0.0066902
0.0102563
0.00136547
0.00182035
0.006042
0.00560936
0.00680194
0.00666803
0.00217448
0.00920983
0.00220045
0.0168575
0.00680527
0.00237312
0.00228182
0.0110571
0.0062485
0.0124559
0.000591576
0.00679343
0.00225492
0.00253395
0.0101158
0.0123346
0.0112557
0.00895609
0.00224446
0.00673682
0.00567487
0.00686331
0.0020328
0.00684735
0.00680031
0.00257295
0.0129957
0.00670713
0.00288367
0.00676426
0.00678249
0.0043437
0.00324107
0.00972
0.00671681
0.00672163
0.00246916
0.000278294
0.00165864
0.00648968
0.00923091
0.000605772
0.0100702
0.00268481
0.00258252
0.00684011
0.00679579
0.0136593
0.00217185
0.00343628
0.00578837
0.00270521
0.00224216
0.00986785
0.00662467
0.00675927
0.00252812
0.00672831
0.00301939
0.00668913
0.014881
0.00340662
0.0114399
0.00670233
0.00222083
0.00675659
0.00109467
0.00261824
0.00262002
0.0106746
0.00270828
0.0029842
0.00684873
0.00250795
0.0135705
0.00256586
0.00662185
0.00234857
0.0068102
0.0117956
0.0129989
0.00684546
0.0115929
0.00334837
0.00629201
0.00898921
0.00584399
0.00684195
0.00984045
0.00684977
0.00331663
0.00975563
0.0067766
0.00431166
0.00088814
0.012588
0.0142107
0.00681834
0.00679593
0.0124851
0.00971467
0.00169896
0.00548131
0.00660043
0.0120093
0.00631685
0.00221099
0.00669041
0.00199405
0.00671636
0.00691413
0.0072679
0.00680408
0.00682603
0.00646651
0.00678973
0.006609
0.00684506
0.00669741
0.00286842
0.00879571
0.00294968
0.0119974
0.00675286
0.00299738
0.00684128
0.00671708
0.00684593
0.00678641
0.00584253
0.00675202
0.00277574
0.0067641
0.00509423
0.00771121
0.00161089
0.00690721
0.0189566
0.00161315
0.000715924
0.00248514
0.00274505
0.00224755
0.00301284
0.00436353
0.0149338
0.015089
0.00370276
0.0023322
0.0131757
0.00682453
0.00224779
0.00265094
0.0137519
0.00681112
0.0154599
0.00676958
0.00678559
0.00886842
0.00670071
0.00307408
0.00472052
0.00673224
0.00499428
0.00673075
0.00672147
0.0067688
0.00683252
0.000360351
0.00678088
0.000319249
0.00655247
0.00137093
0.0135274
0.00678923
0.00688955
0.00663388
0.0067952
0.00672518
0.00238714
0.00609226
0.00680884
0.00681857
0.00679533
0.00547723
0.0164718
0.00269649
0.0111266
0.000200197
0.00673853
0.0114799
0.00301864
0.00677278
0.00920263
0.00461513
0.0135696
0.00673129
0.010631
0.0117289
0.00785984
0.00670667
0.00556901
0.00326325
0.00381752
0.00677986
0.00676732
0.0108132
0.00267585
0.00642288
0.00683598
0.00674291
0.014068
0.00684318
0.00267369
0.0104056
0.0210201
0.00104559
0.00984624
0.00681563
0.00679503
0.00310737
0.00575377
0.00336242
0.00126404
0.00239689
0.00586984
0.00661837
0.0170961
0.00681484
0.0057383
0.00246198
0.0032746
0.00112369
0.0068351
0.00679639
0.00683736
0.0112977
0.0074478
0.00670685
0.00684563
0.00683636
0.00244481
0.00672119
0.00682825
0.00682297
0.002744
0.00130527
0.00418216
0.00534106
0.00677616
0.00218172
0.00591723
0.00460572
0.00208642
0.00731895
0.0023573
0.00675231
0.00218275
0.0067332
0.00679832
0.00684169
0.00333676
0.00164392
0.00784992
0.00333954
0.0124935
0.006735
0.00677369
0.00685202
0.00901183
0.0181823
0.00675324
0.00282118
0.0027108
0.0075583
0.00681885
0.02036
0.00636921
0.00965911
0.00124448
0.00989182
0.00214219
0.00228924
0.000582223
0.00879835
0.00945302
0.0042748
0.00681925
0.00140883
0.00671877
0.00660358
0.00272272
0.00683601
0.00870804
0.00317739
0.00325574
0.0099674
0.0011656
0.00921664
0.00672187
0.0040441
0.00614503
0.00680387
0.00522739
0.0139181
0.00991928
0.0178291
0.00671559
0.00298943
0.00642818
0.0063883
0.0107289
0.00251474
0.00679843
0.00645533
0.00818216
0.0020906
0.00899901
0.010695
0.0052264
0.00674864
0.00384929
0.00527948
0.00265336
0.00302758
0.0110738
0.0112758
0.0016155
0.00221866
0.0067821
0.00590748
0.0067788
0.00376292
0.00313635
0.00804929
0.00667433
0.00286374
0.00139826
0.00543624
0.0108779
0.000433452
0.00678522
0.000534492
0.010343
0.000602036
0.00679267
0.00677479
0.00680242
0.00306402
0.00676209
0.00759161
0.00683159
0.00678171
0.00679391
0.00571516
0.00143232
0.00683566
0.00452995
0.00142891
0.00919214
0.00348761
0.0118036
0.0067371
0.00728544
0.00326255
0.00683444
0.0014497
0.00824425
0.00679741
0.00677349
0.00102153
0.0105634
0.00671271
0.00671563
0.0158248
0.00679144
0.0131423
0.00671563
0.00600983
0.00680638
0.00249473
0.0181742
0.010548
0.00533199
0.00109854
0.00940468
0.0103397
0.00246266
0.00965015
0.00520578
0.00673828
0.00617175
0.00682469
0.00672215
0.0068063
0.0137343
0.00678254
0.000343391
0.00677783
0.00651858
0.00324655
0.00145165
0.00558237
0.00601156
0.00650696
0.00672692
0.00275448
0.00380362
0.00447948
0.00673654
0.00264221
0.0113417
0.00685045
0.00677636
0.00998319
0.00269514
0.0026258
0.00154222
0.0150045
0.0167176
0.00304954
0.00644571
0.00505013
0.012766
0.00796144
0.0204349
0.00274005
0.00675899
0.00157022
0.00674027
0.00674057
0.0166633
0.00994692
0.00664891
0.00660869
0.00267886
0.00509757
0.00430647
0.00448022
0.00678731
0.00253351
0.00579665
0.00678082
0.00541796
0.0113801
0.0108846
0.0206828
0.0102309
0.00298089
0.0121934
0.0114815
0.00267542
0.00678303
0.00679031
0.0126177
0.00674075
0.000315033
0.00682774
0.00592524
0.00661596
0.00625677
0.0107222
0.00725296
0.00681933
0.00421063
0.00631548
0.00561457
0.00672167
0.00678716
0.00623795
0.00450019
0.00838376
0.011475
0.0046705
0.00171
0.00672936
0.00230895
0.00685026
0.00144622
0.00666723
0.00606368
0.00682758
0.00684831
0.00127518
0.00593849
0.00255434
0.00676816
0.00239975
0.000756249
0.00307062
0.00680775
0.00275309
0.00677911
0.00311638
0.00669559
0.010378
0.00128108
0.00241595
0.00371511
0.00682058
0.0054717
0.00680557
0.00964302
0.00672103
0.00684027
0.00669263
0.0111997
0.00344331
0.00636784
0.00582425
0.00678369
0.00206804
0.0110776
0.00359523
0.00267973
0.00677529
0.00600392
0.00676694
0.00684151
0.00114752
0.0115214
0.00678721
0.00547068
0.00211742
0.00466402
0.00683102
0.00628047
0.010865
0.00598582
0.00580053
0.000155217
0.0106078
0.00681278
0.00678178
0.00674708
0.012336
0.00153216
0.00225836
0.00167242
0.00739492
0.00489767
0.00984318
0.0097219
0.00684819
0.00711936
0.00232677
0.00682169
0.00623729
0.00679936
0.0068452
0.00675059
0.00115972
0.00542752
0.00123543
0.00667996
0.0046677
0.00278264
0.0123949
5.25566e-05
0.0106108
0.0123814
0.00596621
0.00152655
0.0014972
0.00561304
0.0012492
0.0129019
0.00674314
0.00582885
0.00677186
0.00271381
0.00423713
0.00674579
0.0166851
0.0012548
0.00277523
0.00620274
0.00672784
0.00678618
0.00151031
0.002953
0.0114043
0.00280782
0.00155958
0.00137071
0.00168453
0.0112877
0.00329439
0.0112625
0.00681344
0.00680022
0.000318539
0.00815047
0.0044377
0.00429441
0.00687485
0.00346737
0.0114202
0.00683677
0.00290715
0.00671384
0.00248252
0.00257395
0.00470279
0.00452521
0.000193991
0.00516281
0.0104946
0.00221566
0.00673413
0.00226884
0.0127579
0.00524442
0.00393395
0.00225005
0.00669366
0.00686606
0.00678016
0.00570966
0.0116782
0.00960058
0.00401049
0.00429218
0.00427824
0.00335048
0.0015872
0.00679656
0.00680243
0.006764
0.00961189
0.00674102
0.0103866
0.00335963
0.00312128
0.00127514
0.00051318
0.00392866
0.00521076
0.0025211
0.00674615
0.0065871
0.00436923
0.00218126
0.00383156
0.00671344
0.00676352
0.00197125
0.00302159
0.00140057
0.010662
0.00391608
0.00675637
0.00163757
0.00609256
0.00263611
0.003109
0.00671691
0.00261649
0.00684812
0.0125141
0.00677564
0.0123998
0.00675488
0.00433527
0.00493935
0.0068014
0.00318867
0.00269583
0.00288013
0.00724776
0.0110804
0.00346325
0.00301825
0.00678067
0.00480788
0.00794792
0.0068559
0.00677687
0.0102411
0.00668552
0.00675917
0.00678796
0.0050772
0.00149502
0.00257825
0.00459155
0.00667886
0.00677752
0.00224744
0.0112151
0.00674169
0.00128018
0.00442048
0.00182022
0.000175077
0.00407471
0.00589371
0.00275274
0.000499638
0.00673249
0.0131774
0.0124776
0.00305662
0.00693783
0.0115378
0.00667943
0.00509873
0.00677721
0.00161973
0.00927172
0.0114633
0.00714146
0.00476692
0.0106529
0.0165464
0.00349026
0.00671294
0.00680955
0.00826243
0.00490726
0.00219923
0.00685396
0.00685125
0.00671558
0.0068381
0.0110965
0.000255517
0.00323861
0.00835266
0.00356175
0.00672156
0.0067465
0.00678483
0.00592801
0.0121571
0.000390982
0.00624263
0.00694303
0.0150025
0.00143377
0.00249111
0.00179065
0.00323499
0.0113785
0.00264193
0.00563081
0.00673858
0.0068476
0.00267637
0.01039
0.0136179
0.00966513
0.00194347
0.00653751
0.00635973
0.00381609
0.00678281
0.00419693
0.00860167
0.00498836
0.00449162
0.00416182
0.00678223
0.00675072
0.00672179
0.0067684
0.00349381
0.003295
0.00346399
0.00357723
0.01108
0.00566088
0.0122257
0.00561881
0.00303228
0.00780916
0.00292063
0.0188356
0.0091001
0.00671359
0.00554325
0.00324672
0.0035611
0.00158589
0.00316869
0.00465108
0.0110021
0.00690448
0.0031134
0.00684802
0.00938542
0.0122139
0.00416505
0.00678176
0.01316
1.69148e-05
0.00152995
0.00847184
0.0015674
0.00587985
0.00679612
0.00671685
0.0110677
0.00119978
0.00256858
0.0110168
0.0106948
0.00678175
0.00674828
0.00403772
0.0112153
0.0109028
0.00673316
0.00499544
0.00595223
0.00679888
0.00685073
0.0027719
0.000418414
0.00567018
0.00404136
0.00668947
0.00613705
0.00674496
0.00125583
0.00682283
0.00711454
0.00649847
0.0177595
0.00671312
0.00674355
0.00161396
0.00310767
0.00929405
0.00268926
0.00979957
0.00679597
0.00680579
0.00675193
0.00247703
0.00284164
0.00276473
0.00475435
0.0089881
0.00380951
0.00157349
0.00273405
0.0107049
0.00683262
0.00767201
0.0103024
0.00278787
0.00587481
0.00218406
0.00558946
0.00683063
0.00124789
0.00684405
0.0186847
0.00207823
0.00215486
0.0113741
0.00658393
0.00215226
0.00675973
0.00564024
0.00676041
0.00671365
0.0132798
0.00111948
0.00726421
0.00353758
0.00212849
0.00318634
0.00674688
0.0180197
0.00503181
0.00676985
0.00139591
0.00677748
0.00255916
0.00678591
0.00260643
0.00684232
0.0100334
0.0138603
0.00491543
0.0025388
0.00147232
0.0125232
0.00684385
0.0186138
0.0166683
0.00673589
0.00675806
0.00670746
0.0063886
0.00238025
0.00676776
0.00581743
0.00236396
0.00784986
0.00330549
0.00685312
0.00683373
0.00677123
0.00586574
0.00681199
0.00681598
0.000448792
0.00333975
0.0199311
0.0109008
0.00206218
0.00645339
0.00290824
0.0067429
0.00588922
0.00540782
0.00678782
0.00341794
0.00458482
0.0126152
0.00100416
0.00675219
0.00499349
0.00370534
0.00611357
0.00706397
0.00977216
0.00673217
0.00377555
0.00671995
0.00647589
0.00884918
0.0149509
0.00678831
0.00449343
0.00656054
0.00678834
0.00153088
0.00685281
0.00565825
0.00238719
0.0108163
0.00672143
0.00363578
0.00345761
0.00966617
0.00673061
0.00859236
0.00543375
0.00562389
0.01177
0.0054606
0.00976598
0.00665898
0.0142923
0.0057978
0.00457568
0.00674102
0.00673193
0.011224
0.0051126
0.0052392
0.00679284
0.0116832
0.00683025
0.00124396
0.0068152
0.00665247
0.00492587
0.00671733
0.00909412
0.00440411
0.0154675
0.00964659
0.00845039
0.00195629
0.00240156
0.00876646
0.0111203
0.00684257
0.00146528
0.00676716
0.00668757
0.00673984
0.00605663
0.00682799
0.00751971
0.0056165
0.00918994
0.00463939
0.0053698
0.00817579
0.00190628
0.00671208
0.00147126
0.00120515
0.0091027
0.00682724
0.00675001
0.0068637
0.0174822
0.00683207
0.0131335
0.00743098
0.00264678
0.0019589
0.00682617
0.014668
0.00683143
0.0124105
0.00670303
0.00306507
0.00246956
0.00679319
0.0076292
0.00795689
0.00671371
0.00208463
0.00536133
0.00447967
0.00578384
0.00221096
0.00833031
0.00683702
0.00154956
0.0106527
0.00679369
0.00619895
0.00658157
0.00227306
0.0026336
0.00539616
0.00807058
0.0068034
0.00763624
0.00555035
0.00263312
0.010511
0.00732998
0.00481941
0.00885162
0.000350913
0.00678314
0.0138306
0.00155268
0.00261247
0.0044663
0.0107222
0.00672066
0.00298879
0.00622379
0.00133438
0.00671935
0.0054727
0.00795326
0.00258266
0.0104524
0.00601081
0.00461255
0.00229071
0.0104141
0.00249487
0.0114577
0.0158277
0.0075938
0.00685214
0.00988824
0.00612611
0.00932681
0.00673057
0.00665328
0.00685051
0.0116065
0.00612705
0.0137266
0.0149998
0.00683862
0.00680276
0.0067312
0.00942716
0.0044502
0.00362519
0.00828399
0.00673717
0.00976778
0.0102271
0.00152837
0.00538646
0.00875907
0.00492303
0.00316231
0.00391902
0.00293688
0.00590309
0.00746446
0.00666575
0.00471816
0.00683251
0.00675701
0.00952495
0.00789669
0.00924281
0.00162425
0.003516
0.006835
0.00688185
0.00927138
0.00757208
0.00673659
0.00218307
0.00766381
0.00675374
0.00682687
0.00875888
0.0117717
0.00668311
0.00673168
0.00479585
0.00674063
0.0155742
0.00666863
0.00683861
0.00581787
0.00166908
0.0113717
0.00441034
0.00946673
0.00680973
0.00638431
0.0104137
0.0106315
0.0058032
0.0024251
0.00671961
0.00269186
0.00667569
0.00664047
0.00137129
0.00684479
0.0172046
0.00467226
0.00681951
0.00643824
0.00722596
0.0167997
0.00629903
0.00675689
0.00689824
0.0107174
0.0113494
0.00356942
0.00683379
0.00673364
0.0140224
0.00683101
0.00684511
0.00330297
0.00675556
0.0104202
0.00431428
0.00683946
0.00504144
0.00677439
0.00685209
0.0110613
0.00596075
0.00266624
0.00604482
0.00344907
0.00683009
0.00671907
0.00679735
0.00684729
0.00683626
0.00693769
0.00132658
0.010685
0.00665954
0.00177277
0.00648195
0.0070059
0.00680335
0.00671379
0.00364932
0.00994564
0.00683964
0.00202902
0.00011424
0.00310425
0.00667987
0.00232218
0.00679298
0.00542656
0.0067475
0.00679483
0.00682513
0.00683377
0.0054818
0.00637856
0.00267434
0.0024456
0.00325708
0.00303545
0.00453696
0.00265736
0.00789205
0.00576546
0.00179012
0.0103707
0.00900772
0.00172067
0.0150121
0.00672713
0.00682508
0.0182292
0.00677225
0.00463383
0.00987595
0.00619862
0.0146568
0.00136792
0.00677547
0.00664506
0.00681852
0.0059351
0.00681495
0.00635529
0.0072003
0.00984544
0.0138868
0.0068268
0.0067349
0.00246379
0.00800872
0.0104068
0.00139816
0.00131498
0.00673534
0.00215573
0.00790419
0.00445206
0.00652976
0.00683533
0.00679458
0.00662047
0.00684874
0.00684457
0.00478549
0.00999914
0.00246689
0.00824532
0.0053635
0.00343747
0.00114246
0.00673016
0.00680447
0.00670044
0.006766
0.00682522
0.00605354
0.00971604
0.00783195
0.0118107
0.00345805
0.00823006
0.00124846
0.0113674
0.00958466
0.00684765
0.00682886
0.00756307
0.00683459
0.00671806
0.00651093
0.0104122
0.00294052
0.00677874
0.00681697
0.00643316
0.0023802
0.00734507
0.00677197
0.0064691
0.000600328
0.00677807
0.00773861
0.00218614
0.0107132
0.00683395
1.6003e-05
0.00869942
0.0032945
0.00916751
0.0017361
0.00835559
0.00678535
0.00631185
0.00677023
0.00322312
0.00333913
0.00679053
0.00540799
0.00672806
0.00682253
0.0067286
0.0119985
0.00255211
0.00174928
0.0119836
0.00676209
0.00217548
0.00638892
0.00147187
0.00682053
0.00661802
0.00684119
0.00332186
0.00684159
0.00683312
0.012484
0.0103132
0.0118138
0.000410254
0.000846238
0.00777295
0.00218883
0.011922
0.00155317
0.00677343
0.00679138
0.00668638
0.0068506
0.00941437
0.0100672
0.00681389
0.00410878
0.012678
0.00262993
0.00667616
0.00685295
0.0110214
0.00846004
0.00996918
0.00283442
0.010379
0.00668964
0.000495219
0.00191189
0.0121858
0.00629722
0.00673943
0.00154299
0.00697998
0.00378055
0.0095113
0.00683888
0.00637103
0.00734179
0.011558
0.00219411
0.00290651
0.00320982
0.00153603
0.0115557
0.0122629
0.0104285
0.00172079
0.00928984
0.0068229
0.0063083
0.00266871
0.00550721
0.0135226
0.00802894
0.00686954
0.00162233
0.00137402
0.0068571
0.00916545
0.00673377
0.00153355
0.00539722
0.00672837
0.0116627
0.0100712
0.0123469
0.0107093
0.00241109
0.00588054
0.00683708
0.0093973
0.00674066
0.00682251
0.00262096
0.00431307
0.0101949
0.00396319
0.0068766
0.00452338
0.00683155
0.00919803
0.00669723
0.00167722
0.0141218
0.00671415
0.00741864
0.00191066
0.00664825
0.00483394
0.000414368
0.00671911
0.00336635
0.00681435
0.0126002
0.00494588
0.00681377
0.00169705
0.00668367
0.00974617
0.010304
0.00260564
0.0173103
0.00617603
0.00673604
0.00987716
0.00337614
0.00685108
0.00286817
0.00217093
0.00672645
0.00681626
0.0014993
0.00671878
0.00547072
0.000515039
0.00635722
0.00587649
0.00221683
0.00175544
0.00684009
0.00996864
0.00281887
0.00826523
0.00673364
0.00680178
0.00260786
0.00359627
0.0104863
0.00684934
0.00997359
0.00684288
0.00152388
0.00687083
0.0064656
0.000836565
0.00171542
0.00785246
0.0116088
0.00979039
0.0098897
0.0066883
0.00123062
0.00115092
0.00465308
0.00680205
0.000630919
0.00288726
0.00669312
0.00169756
0.000931461
0.0165077
0.0104296
0.00212315
0.000438532
0.00671613
0.00265209
0.00223344
0.00673074
0.00245313
0.00686866
0.00545216
0.00791375
0.0018646
0.00673359
0.00676662
0.00557557
0.00673423
0.0153839
0.00677563
0.00678298
0.0116168
0.000713532
0.00509825
0.00189889
0.00686827
0.00111898
0.00599237
0.0102778
0.00675784
0.00300811
0.0103009
0.00662269
0.00675673
0.00350856
0.00809923
0.000435049
0.000486597
0.000268202
0.00551829
0.00680631
0.00673668
0.00655684
0.00331931
0.00457089
0.00157621
0.00325306
0.00930271
0.00534706
0.00560057
0.00291502
0.00676195
0.00300285
0.00352382
0.00674517
0.00671972
0.00336099
0.00408443
0.00812119
0.0102475
0.00678022
0.0021546
0.00302361
0.00141798
0.00975724
0.0122526
0.0108956
0.00682641
0.00209428
0.0116528
0.0022353
0.00170108
0.00341288
0.0110885
0.00974325
0.012196
0.00675986
0.00859791
0.00681044
0.00663368
0.006763
0.00216375
0.010043
0.00223154
0.0112654
0.00465295
0.00212984
0.00670852
0.00671371
0.00682243
0.00689986
0.0026418
0.0114154
0.012634
0.00217238
0.0163384
0.00684948
0.00201846
0.00671868
0.0121588
0.00223577
0.00683416
0.00142936
0.00189263
0.00828016
0.00715134
0.00149824
0.00254637
0.00499407
0.00890023
0.000384503
0.00601978
0.00944847
0.00664442
0.00186693
0.00680308
0.00930956
0.00523398
0.00223834
0.0121219
0.000572068
0.0132115
0.00175939
0.00138531
0.00393752
0.00671483
0.00164218
0.00137011
0.00410355
0.00171598
0.00298265
0.00268962
0.00564946
0.00126233
0.00664928
0.00330038
0.00266773
0.00421237
0.006629
0.0127378
0.00175525
0.0133853
0.00118193
0.00677234
0.009584
0.00673081
0.00642916
0.00660169
0.00973599
0.00269845
0.0116721
0.00356429
0.00174864
0.00343959
0.00166552
0.0167137
0.00149487
0.01558
0.00696321
0.00218837
0.00682536
0.0102201
0.0128857
0.00695652
0.00680801
0.00291768
0.0033922
0.00575113
0.00229813
0.00223809
0.00683389
0.00461772
0.00401488
0.00281459
0.000967288
0.00264418
0.00672464
0.0162465
0.00266349
0.00217823
0.0163267
0.0021652
0.0122443
0.00672483
0.00684538
0.00644141
0.00510771
0.00676918
0.00938563
0.0140688
0.00699297
0.00378168
0.00949661
0.000571114
0.00308563
0.0164197
0.00223059
0.000847171
0.00246407
0.00320674
0.00435229
0.00223352
0.00187708
0.00638069
0.000676839
0.00692658
0.010982
0.00671525
0.000472508
0.000400016
0.00501062
0.00673366
0.00275401
0.00684164
0.00338802
0.00930023
0.00327049
0.00329551
0.0067307
0.00672159
0.000988883
0.00819386
0.00685074
0.00405612
0.00100381
0.00671339
0.0063986
0.0100992
0.00169344
0.00188591
0.00675217
0.0034638
0.00115153
0.00681504
0.00680335
0.00893647
0.00308697
0.00951239
0.00221275
0.0029913
0.00955076
0.00127572
0.00124511
0.00672904
0.0142626
0.00258689
0.00343255
0.0184147
0.00263768
0.00685057
0.00118862
0.0040573
0.00625887
0.00676143
0.0194903
0.00677349
0.00217876
0.00595275
0.00192082
0.00683041
0.000774466
0.00271389
0.00942022
0.00104123
0.00751572
0.00150857
0.0111886
0.00671494
0.00248383
0.00314523
0.00673092
0.0122608
0.00677416
0.00293648
0.00770055
0.00643069
0.00261412
0.00743404
0.00302805
0.00569683
0.0186621
0.00741733
0.0170078
0.0015434
0.00679269
0.00677163
0.00212755
0.00388514
0.00640574
0.0130083
0.0121303
0.0120574
0.0120981
0.00672065
0.0134736
0.00672993
0.0044523
0.00683137
0.0136158
0.00120229
0.00190038
0.00677841
0.00102326
0.00325028
0.00623844
0.00682036
0.00133259
0.00270433
0.0020708
0.00214827
0.00187618
0.0042115
0.000716322
0.00126174
0.00673403
0.0046397
0.000274068
0.00331829
0.00684022
0.00291424
0.00676874
0.00681742
0.00218453
0.00559985
0.00595534
0.00105507
0.0022657
0.00977374
0.00677555
0.0211081
0.00232923
0.0114104
0.00442633
0.00472382
0.0132332
0.00531693
0.00476879
0.00358507
0.00480243
0.00657939
0.00684794
0.0100821
0.00271083
0.00476738
0.00590406
0.00403239
0.00682175
0.00555635
0.0125443
0.00683646
0.0024051
0.0109279
0.00173687
0.00263841
0.00274806
0.00548994
0.0125298
0.0110448
0.0206502
0.00165165
0.00412749
0.00672134
0.00292066
0.00681014
0.00674287
0.0066554
0.0112557
0.00525373
0.00676432
0.00460661
0.00114552
0.00677977
0.00416466
0.00248665
0.00677435
0.00667048
0.0177018
0.002844
0.00226432
0.00250673
0.00677063
0.00144878
0.00254173
0.00377431
0.000157206
0.00112873
0.00128568
0.00148111
0.00859498
0.00652273
0.00520434
0.00126534
0.00139153
0.0013109
0.0169013
0.00228143
0.00593078
0.00224801
0.00280553
0.0034668
0.00130353
0.00678128
0.00673103
0.00679691
0.00439174
0.00948979
0.00680671
0.0018697
0.00640317
0.00357215
0.00645494
0.0013373
0.00373911
0.00139359
0.00682709
0.00643135
0.00548021
0.0068284
0.00206369
0.00385482
0.00682322
0.00450294
0.00566515
0.00681022
0.0111741
0.00354381
0.00848406
0.00535425
0.0119732
0.00286678
0.00139885
0.00475242
0.00242919
0.00638457
0.00292247
0.0171094
0.00774854
0.00942752
0.00142599
0.00255065
0.00674024
0.00952684
0.00295037
0.00809408
0.00676381
0.0102615
0.00141905