/*--------------------------------*- C++ -*----------------------------------*\
| =========                 |                                                 |
| \\      /  F ield         | OpenFOAM: The Open Source CFD Toolbox           |
|  \\    /   O peration     | Version:  v2012                                 |
|   \\  /    A nd           | Website:  www.openfoam.com                      |
|    \\/     M anipulation  |                                                 |
\*---------------------------------------------------------------------------*/
FoamFile
{
    version     2.0;
    format      ascii;
    class       surfaceVectorField;
    location    "800";
    object      Uf;
}
// * * * * * * * * * * * * * * * * * * * * * * * * * * * * * * * * * * * * * //

dimensions      [0 1 -1 0 0 0 0];


internalField   nonuniform List<vector> 
20580
(
(1.13374 0.0483355 5.47152e-22)
(1.13401 0.050807 5.98485e-20)
(1.13158 0.0490166 -1.91482e-21)
(1.06929 -0.023926 5.667e-21)
(1.06977 -0.0249818 -5.92158e-21)
(1.07107 -0.0238707 1.33484e-20)
(1.06864 -0.0223818 1.38922e-20)
(1.06732 -0.0235499 -8.4941e-21)
(-0.1943 -0.0173141 2.58715e-20)
(-0.169442 -0.0206784 -1.18094e-19)
(-0.193795 -0.0181072 -5.62146e-20)
(1.0021 -0.000528385 -5.28478e-22)
(1.00189 -0.000489713 -9.68283e-23)
(1.00198 -0.000291905 -6.87978e-24)
(1.08013 -0.036932 9.48701e-21)
(1.07992 -0.0389819 6.58696e-21)
(1.07788 -0.0377975 3.71992e-21)
(1.05776 0.0104128 -2.53684e-21)
(1.0582 0.0113153 -2.08568e-21)
(1.01343 -0.00086236 -6.29192e-22)
(1.01312 -0.000877725 -7.08365e-22)
(1.01241 -0.000541295 6.08458e-24)
(0.310081 0.0399081 1.96943e-20)
(0.316164 0.0398888 -1.04399e-20)
(0.287794 0.0359346 1.85727e-20)
(0.990603 -0.00722266 1.65347e-21)
(0.991023 -0.0065589 -3.54119e-21)
(0.991418 -0.00717003 1.26682e-20)
(1.15938 -0.096738 -1.91383e-20)
(1.15428 -0.0968304 -3.95935e-20)
(1.15735 -0.101588 -1.06705e-20)
(1.00111 -0.0078662 -1.93076e-21)
(1.00127 -0.00817208 8.55549e-22)
(1.00112 -0.00823976 -1.82769e-21)
(0.980272 -0.0181655 -5.46522e-21)
(0.97987 -0.0190832 -1.69345e-21)
(0.981064 -0.0187639 1.38774e-20)
(0.0960912 0.0110002 7.42664e-21)
(0.0827025 0.00781827 -3.90738e-20)
(0.100504 0.013215 -2.5436e-21)
(1.09852 0.00841592 -4.0845e-21)
(1.10024 0.00859275 1.34118e-20)
(1.09913 0.00694514 4.79439e-21)
(1.08643 0.0522331 -1.93386e-21)
(1.08587 0.0520094 2.06447e-20)
(1.08603 0.0527998 -2.85176e-21)
(-0.293103 -0.00691447 3.67089e-20)
(-0.316041 -0.00647486 0)
(-0.303724 -0.00340661 -7.70019e-20)
(1.03402 -0.0192988 -2.94429e-21)
(1.0349 -0.0193422 -2.73888e-21)
(1.03455 -0.0201904 6.48204e-22)
(1.20047 0.0368211 -8.19214e-21)
(1.20292 0.0343468 -4.03372e-20)
(1.20075 0.0384404 -3.53606e-20)
(1.13584 0.0476048 -2.80345e-20)
(1.13348 0.0462619 -5.42894e-20)
(1.11175 0.00341641 1.83248e-20)
(1.11094 0.00152258 -1.39932e-20)
(1.10939 0.00338266 2.38066e-21)
(1.03854 -0.0904966 1.58935e-21)
(1.03527 -0.0908563 7.75235e-22)
(1.03689 -0.0874532 -5.89342e-21)
(0.728936 -0.350552 0)
(0.581184 -0.287586 4.52977e-20)
(0.44658 -0.224663 -4.6638e-20)
(1.00005 -0.000196749 3.53207e-23)
(1.00009 -0.000260909 -2.99823e-21)
(1.00006 -0.000165538 -1.34713e-21)
(1.22732 -0.016184 0)
(1.2197 -0.0148398 0)
(1.12209 -0.00366553 0)
(1.08588 0.0411294 6.1528e-21)
(1.08578 0.0418526 2.66994e-21)
(1.08661 0.0416192 -9.80703e-21)
(1.09206 0.0687617 1.76799e-20)
(1.09161 0.0704506 3.69039e-21)
(1.09012 0.0691053 -1.61155e-20)
(1.16012 0.0757002 -2.35287e-20)
(1.16478 0.0755696 -3.24101e-21)
(1.11349 0.0782955 -2.44536e-20)
(0.46634 0.0382569 5.55859e-21)
(0.442961 0.0360789 -7.39653e-21)
(0.43416 0.035367 1.48009e-20)
(1.02053 -0.0121439 0)
(1.02015 -0.0125124 -1.46495e-22)
(1.01991 -0.0118722 -1.70216e-21)
(-0.0753286 -0.0123448 -8.97194e-21)
(-0.104847 -0.0126702 1.78529e-20)
(-0.0578952 -0.0122553 2.04768e-20)
(1.05843 0.00998117 0)
(1.05726 0.00978453 -1.02533e-20)
(1.12616 0.0508823 1.13173e-21)
(1.12433 0.0514526 1.82214e-20)
(1.12484 0.0491534 1.88243e-20)
(0.363662 0.0598113 -1.95207e-20)
(0.353529 0.0589637 0)
(0.410636 0.0638117 2.47304e-20)
(1.12454 -0.083906 -1.74265e-20)
(1.12576 -0.0804277 -9.20381e-21)
(1.12786 -0.0846083 3.03919e-21)
(0.467383 0.0363496 0)
(0.498241 0.0391359 0)
(0.475808 0.03586 -1.40044e-20)
(1.00002 -0.000127911 0)
(1.00005 -0.000235401 -4.5718e-22)
(1.26454 -0.159001 -4.56458e-20)
(1.19491 -0.147052 -6.4882e-21)
(1.17611 -0.138845 3.00472e-20)
(-0.00504892 0.0167379 -3.65105e-20)
(0.0112011 0.0176901 2.1352e-20)
(0.0430706 0.0185196 4.36294e-20)
(1.00507 -0.0375237 -8.2408e-22)
(1.00584 -0.036664 -1.02976e-21)
(1.00621 -0.0379168 6.75643e-22)
(0.183513 0.0449572 -1.47787e-20)
(0.229553 0.0498893 1.55775e-20)
(0.193966 0.0462304 -3.52645e-21)
(0.489093 0.0412554 2.80441e-21)
(0.498467 0.0412196 -1.48253e-21)
(-0.276651 -0.00557506 -1.2668e-20)
(-0.279143 -0.00684704 -4.13192e-20)
(1.09915 -0.462036 4.12092e-21)
(1.09072 -0.469563 -7.63438e-21)
(1.0851 -0.474796 4.00079e-21)
(0.512542 0.0469505 -2.92652e-21)
(0.502772 0.0464804 -8.42953e-21)
(0.475742 0.0425955 9.86246e-22)
(1.01434 -0.0225602 -1.7599e-23)
(1.01362 -0.0225883 -1.35123e-23)
(1.0139 -0.021778 -2.77884e-22)
(1.01977 -9.96729e-05 1.20131e-21)
(1.01958 -3.47232e-05 -6.86245e-21)
(1.09239 0.0534542 1.59062e-20)
(1.0918 0.0539511 -5.81062e-22)
(1.09185 0.0529356 6.40792e-21)
(1.04435 -0.0577027 2.25309e-21)
(1.04253 -0.0558337 -2.05933e-22)
(1.04508 -0.0557816 4.58213e-21)
(0.980671 -0.0170926 1.2263e-20)
(0.979278 -0.0173923 1.12043e-20)
(-0.219612 0.00288672 -1.2017e-20)
(-0.217613 0.00204962 -8.91621e-20)
(-0.254672 0.000454333 -6.50397e-20)
(0.972754 -0.0112018 0)
(0.973972 -0.0113273 0)
(0.973122 -0.0124835 0)
(1.08687 0.0524919 1.43105e-20)
(1.08665 0.0518789 -2.93915e-22)
(1.07383 0.0197894 -1.46197e-20)
(1.07487 0.0203144 7.70491e-21)
(1.07382 0.0209101 -1.29054e-20)
(0.153728 0.00748309 1.53769e-20)
(0.172131 0.0116369 -1.93249e-20)
(0.147954 0.00739905 -1.64972e-20)
(1.00449 -0.0384344 -3.47422e-21)
(1.00406 -0.0371024 0)
(1.12697 0.0531298 -6.44724e-22)
(1.12819 0.0505297 3.66247e-20)
(0.170252 0.0441505 -3.90502e-21)
(0.143961 0.0380136 -8.84002e-21)
(1.08467 0.0616841 -8.31607e-21)
(1.08611 0.0618527 4.932e-21)
(1.08722 0.0626492 -2.33587e-20)
(-0.0393864 0.00908724 -2.18456e-20)
(-0.028171 0.00978472 0)
(-0.0157333 0.0128107 2.22777e-20)
(1.00098 -0.00755534 -4.94983e-22)
(1.0011 -0.00750084 0)
(1.09421 0.0675846 1.06913e-21)
(1.09495 0.0686031 2.17954e-20)
(0.995558 -0.00202883 -4.18141e-21)
(0.995622 -0.00245321 -2.31919e-21)
(0.995135 -0.00238186 5.0462e-21)
(1.04342 -0.0591213 0)
(1.04576 -0.0588519 2.65687e-21)
(0.865168 -0.449842 2.85842e-21)
(0.889203 -0.444768 -8.48841e-22)
(0.872685 -0.427914 3.21125e-21)
(0.839106 -0.454281 1.93372e-21)
(0.858478 -0.478858 8.30895e-23)
(-0.0513419 0.00529268 -1.05075e-20)
(-0.0668114 0.00394288 2.33852e-21)
(0.699611 -0.116506 2.58514e-20)
(0.693126 -0.132804 2.28267e-20)
(1.01995 -0.0392989 5.78167e-22)
(1.01878 -0.0394979 -7.71524e-22)
(1.01928 -0.0382392 -6.70141e-22)
(-0.138414 -0.0171794 5.44356e-20)
(-0.169307 -0.0138834 -7.32579e-20)
(-0.156961 -0.0144524 -3.2141e-20)
(-0.13843 -0.00775038 -1.19151e-20)
(-0.170537 -0.00605177 1.07508e-19)
(-0.140335 -0.00913569 2.26992e-20)
(1.1192 0.0068636 1.38112e-20)
(1.12046 0.00533295 7.38909e-22)
(1.12148 0.0075269 2.11096e-22)
(0.993737 -0.0255863 2.43864e-21)
(0.992937 -0.0252283 -1.18069e-21)
(0.993091 -0.0263703 8.04813e-21)
(-0.0212699 0.0102836 1.15782e-21)
(-0.0491479 0.00445391 0)
(1.08057 0.0185268 -1.19911e-20)
(1.08018 0.0173997 7.77274e-21)
(1.08145 0.0177658 7.39422e-21)
(1.01983 -0.0738924 3.71531e-22)
(1.01753 -0.0726485 -9.04653e-23)
(1.01964 -0.0711317 -3.55299e-22)
(-0.276408 -0.00694911 4.28831e-20)
(-0.260871 -0.00621454 -4.64435e-20)
(1.02116 -0.0061964 2.73322e-22)
(1.02097 -0.00654773 -4.59042e-21)
(1.02166 -0.00655173 -3.13154e-22)
(1.22961 -0.013862 1.89073e-20)
(1.26638 -0.0198834 0)
(1.00477 -0.0178827 -3.92753e-21)
(1.00459 -0.0172324 -3.50971e-22)
(1.00424 -0.0175587 2.52753e-21)
(1.02123 -0.0393619 1.15208e-21)
(1.02055 -0.0406822 1.04748e-21)
(1.25781 -0.087176 9.70247e-21)
(1.25763 -0.0814755 1.02982e-19)
(1.26278 -0.0865403 3.88397e-20)
(1.1209 -0.0836893 -1.65011e-20)
(1.12264 -0.087738 -5.41255e-21)
(0.0727319 0.00935134 6.19609e-21)
(0.0826663 0.0103588 -2.72337e-20)
(0.0956119 0.0147753 3.50735e-20)
(-0.0164545 0.00952368 4.00135e-20)
(0.00124183 0.0139577 -2.13293e-20)
(-0.120268 -0.0101978 8.79288e-21)
(-0.111564 -0.0104485 -8.61002e-20)
(-0.078578 -0.0126288 -4.1247e-20)
(1.04054 -0.093043 -2.01546e-21)
(1.04152 -0.0896359 5.36309e-21)
(0.271428 0.00646461 -1.3404e-20)
(0.245893 0.00273986 9.13607e-21)
(0.27302 0.00702166 -6.96515e-22)
(0.991269 -0.0111292 -1.94798e-21)
(0.991722 -0.011588 1.60739e-22)
(0.991834 -0.0107664 -3.1803e-21)
(-0.0577307 -0.0135629 -2.25345e-20)
(-0.0983816 -0.0105293 -5.4154e-20)
(0.970778 -0.011133 0)
(0.972198 -0.00948546 -4.9884e-21)
(1.05915 0.00952793 0)
(1.0595 0.0103468 0)
(-0.258755 -0.002907 -4.57065e-20)
(-0.25924 -0.00497238 1.9265e-21)
(-0.131033 -0.0102933 4.16576e-20)
(-0.156551 -0.00946586 8.83353e-20)
(-0.0177692 0.0199531 -3.57025e-20)
(-0.0339574 0.0160672 4.84487e-22)
(-0.0537631 0.014052 3.1329e-20)
(1.09043 -0.439489 -2.68818e-20)
(1.08144 -0.421157 -1.93173e-20)
(1.06895 -0.433388 -2.0081e-20)
(1.0094 -0.0236593 -6.455e-22)
(1.00872 -0.0236536 -2.22656e-21)
(1.00936 -0.0244596 -6.5838e-22)
(1.08932 0.0536538 7.10996e-21)
(1.08865 0.0533791 0)
(1.0891 0.0529591 1.00774e-20)
(-0.158588 0.00573624 -3.14851e-20)
(-0.156514 0.00477495 -3.44644e-21)
(-0.189487 0.00123619 -4.19369e-20)
(1.20695 -0.187951 3.80486e-20)
(1.21454 -0.188175 3.50267e-20)
(1.2103 -0.195048 -3.32047e-20)
(1.08998 0.054098 -2.99838e-21)
(1.08916 0.054558 6.22759e-21)
(0.807307 -0.118773 -1.71778e-20)
(0.805549 -0.108303 -1.76313e-20)
(0.81645 -0.11291 1.45779e-21)
(0.814454 -0.151648 8.04857e-21)
(0.812525 -0.140086 -9.38004e-22)
(0.801611 -0.148359 -1.92016e-20)
(0.988742 -0.0267471 6.4703e-21)
(0.989692 -0.0270606 -1.401e-22)
(0.988878 -0.0281294 2.35982e-21)
(1.01717 -0.0219991 8.67747e-22)
(1.0177 -0.0227467 -3.58759e-22)
(1.01776 -0.021885 -7.90996e-22)
(1.12491 -0.00792066 -8.73277e-21)
(1.12642 -0.00953772 -9.61117e-21)
(1.12736 -0.00661487 -7.85094e-21)
(1.01662 -0.0211812 -1.26261e-22)
(1.01635 -0.0221083 -1.1034e-22)
(-0.136431 -0.00826125 -7.96495e-20)
(-0.103225 -0.0108651 2.86083e-20)
(1.0586 0.00869398 0)
(1.05989 0.00896219 0)
(1.03322 -0.0192968 4.51696e-23)
(1.03354 -0.0185694 0)
(1.02511 -0.12554 -3.65424e-21)
(1.02716 -0.12983 -9.54067e-22)
(1.02201 -0.128767 -1.59764e-21)
(1.01508 -0.0226284 1.28995e-22)
(1.01496 -0.0234571 -3.86502e-24)
(1.20651 -0.0200964 5.04472e-21)
(1.20555 -0.0168058 -3.45779e-20)
(1.20929 -0.0186524 -2.9364e-20)
(1.15854 -0.0447595 1.91454e-20)
(1.1553 -0.0436425 0)
(1.15586 -0.0471785 -7.15395e-21)
(1.11346 0.0534241 -1.66803e-20)
(1.11188 0.053616 -2.44085e-20)
(1.11298 0.0551175 -1.44974e-20)
(1.07282 0.0192059 0)
(1.07377 0.0186557 0)
(1.01417 -0.00794441 5.22485e-22)
(1.01395 -0.00817793 1.56264e-21)
(1.01451 -0.00828303 1.16901e-21)
(1.01379 -0.000761597 -5.90169e-22)
(1.01385 -0.00116161 8.128e-22)
(-0.218457 -0.0138609 7.29057e-20)
(-0.197871 -0.0178489 2.29066e-20)
(-0.112441 -0.0201652 4.6714e-20)
(-0.0986134 -0.0199022 1.58524e-20)
(1.11025 -0.349534 -2.76292e-20)
(1.10132 -0.359977 -1.96168e-20)
(1.11617 -0.360702 1.1543e-20)
(1.02857 -0.0163443 3.19466e-22)
(1.0276 -0.0162675 3.18389e-21)
(1.02798 -0.0156524 3.44606e-22)
(1.0142 -0.0391077 -5.04539e-22)
(1.01522 -0.0397806 -4.38026e-22)
(1.0142 -0.0404723 1.03421e-21)
(0.0865121 0.0256952 -1.26706e-20)
(0.106912 0.0298458 5.07294e-21)
(0.0826711 0.0264568 4.40709e-21)
(1.17419 0.0479335 5.81515e-21)
(1.17751 0.0472989 7.46102e-21)
(1.17761 0.050944 1.88799e-20)
(0.603339 -0.19598 -1.31484e-20)
(0.626413 -0.188775 5.51442e-20)
(0.622746 -0.218522 -3.52858e-20)
(1.01021 -0.0238778 0)
(1.0096 -0.0228954 0)
(1.12862 -0.149983 6.18731e-21)
(1.12663 -0.144019 -1.12387e-20)
(1.12339 -0.149537 -1.25157e-20)
(0.239893 0.0493165 -1.61154e-20)
(0.202302 0.04521 2.93822e-21)
(0.231842 0.0486141 -1.29192e-20)
(1.1091 0.0134382 3.00287e-20)
(1.11044 0.0148367 3.62819e-20)
(1.11044 0.0123914 3.89994e-20)
(1.03206 -0.0904588 3.0588e-21)
(1.03341 -0.0936656 3.05383e-21)
(1.09595 -0.0665403 8.77027e-21)
(1.09715 -0.0634233 6.2183e-21)
(1.09366 -0.064612 6.47552e-22)
(1.33099 -0.169308 -4.21723e-20)
(1.32559 -0.161236 5.74376e-20)
(0.381701 0.0604565 2.43741e-21)
(0.329877 0.0567218 -1.74622e-20)
(1.1637 -0.0974425 -1.06087e-20)
(1.16087 -0.0932949 1.29483e-20)
(-0.0189431 0.0179377 0)
(-0.0487216 0.0173158 0)
(-0.0591252 0.0164066 -1.59711e-20)
(0.716624 -0.11472 0)
(-0.108337 -0.0102183 -4.33914e-20)
(-0.140174 -0.00855889 -1.00915e-19)
(0.852349 -0.0882612 -3.56882e-20)
(0.843112 -0.0869316 8.49961e-21)
(0.848048 -0.0797107 5.7286e-21)
(1.1064 0.0161689 -4.27074e-21)
(1.10464 0.0156055 -5.05914e-21)
(1.10522 0.0175087 2.52491e-20)
(1.25812 -0.0936272 -1.12695e-19)
(1.25225 -0.0883112 -9.44838e-20)
(0.973565 -0.0441891 0)
(0.973708 -0.0421366 0)
(0.975447 -0.0429704 0)
(0.990739 -0.0107445 1.634e-21)
(0.990619 -0.0116549 3.38982e-21)
(0.744857 -0.294855 -2.01074e-20)
(0.728166 -0.309406 1.7836e-20)
(0.751494 -0.312719 -2.13627e-20)
(1.19706 0.00848026 3.51672e-20)
(1.13263 0.0113461 2.14275e-21)
(1.12875 0.0138195 2.05776e-21)
(1.00683 -0.0697774 -1.50078e-21)
(1.0065 -0.0717735 0)
(1.00439 -0.0706149 0)
(1.02131 -0.00585101 2.25455e-21)
(1.02069 -0.00591167 -2.97788e-22)
(-0.143879 -0.00974411 0)
(0.311249 0.0259725 -9.73195e-21)
(0.313068 0.0281685 -1.76157e-20)
(0.28815 0.0225137 2.84464e-21)
(1.13186 -0.154362 -2.937e-21)
(1.13399 -0.148909 1.41429e-20)
(1.09055 0.0538048 -1.25454e-20)
(1.09053 0.0546954 -1.03099e-21)
(1.20746 -0.0240679 4.39068e-20)
(1.20327 -0.0219967 -5.1455e-20)
(1.16164 -0.0458727 -2.28691e-21)
(1.161 -0.0423438 4.70361e-20)
(1.18972 0.0369484 3.36335e-20)
(1.19223 0.0345363 -1.99862e-21)
(1.18855 0.033497 3.51758e-20)
(0.97216 -0.0205608 4.90543e-21)
(0.972863 -0.021969 4.79772e-21)
(0.971057 -0.0220834 -1.20087e-21)
(0.983523 -0.00845384 4.68993e-21)
(0.98295 -0.00778579 -2.71142e-21)
(0.983945 -0.00756104 -5.73354e-21)
(1.00131 -0.00646799 1.13965e-21)
(1.00122 -0.00658982 2.01465e-21)
(1.00114 -0.00616597 4.93075e-21)
(-0.0191961 0.0152913 -5.66122e-20)
(-0.0436416 0.0123789 -8.36398e-20)
(1.10404 0.0127393 0)
(1.10386 0.014401 -9.06598e-21)
(1.10284 0.0132117 -8.49514e-21)
(1.06003 0.000510734 -1.55994e-20)
(1.06063 0.00107398 -7.02806e-21)
(1.06109 0.000215453 -4.59446e-21)
(1.00012 -0.000476292 2.07626e-22)
(1.00012 -0.000417938 5.06752e-22)
(1.00018 -0.000568048 -1.07377e-23)
(0.454604 0.0346025 -1.23477e-21)
(0.448081 0.035755 -1.48069e-20)
(0.481578 0.03825 2.27002e-22)
(1.12385 -0.00548825 -3.85524e-20)
(1.12224 -0.00847097 0)
(1.09313 0.0528204 0)
(1.09327 0.053958 0)
(0.109327 0.012724 7.33426e-21)
(0.0899203 0.00730625 1.25737e-20)
(0.401443 0.0488156 5.10196e-21)
(0.373496 0.0458787 2.88028e-21)
(0.40754 0.0474386 9.44591e-21)
(0.390589 0.0485833 -9.12648e-21)
(0.433571 0.0523673 -1.13638e-20)
(-0.224382 0.00289175 1.07236e-19)
(-0.193266 0.00499118 6.65392e-20)
(1.0282 -0.122238 -9.24487e-22)
(1.02341 -0.121263 8.36224e-23)
(0.73879 0.0691414 0)
(0.751124 0.0684592 0)
(0.667595 0.0655886 -2.582e-20)
(1.00084 -0.00727274 -1.80065e-21)
(1.00072 -0.00697479 5.33789e-22)
(1.00082 -0.00690969 3.77875e-21)
(1.01445 -0.00769099 -6.49049e-22)
(1.01386 -0.00754614 3.39749e-22)
(1.14087 -0.00954766 1.83429e-20)
(1.14197 -0.0120994 0)
(1.13901 -0.0118277 -1.19835e-20)
(1.00115 -0.000385172 -6.96848e-23)
(1.00104 -0.000492374 -1.16709e-21)
(1.00098 -0.000323968 0)
(-0.0063651 0.0215593 -6.04838e-20)
(0.0215979 0.022418 -5.63743e-20)
(1.11366 0.0771776 0)
(1.11431 0.075015 0)
(1.11147 0.0766851 0)
(1.09537 0.0567865 -4.65817e-21)
(1.09637 0.0573174 9.24496e-21)
(1.09491 0.0579476 3.53354e-21)
(1.01472 -0.00747002 -2.03331e-22)
(1.015 -0.00782595 0)
(1.07886 0.0198621 7.10263e-21)
(1.07976 0.0191619 -1.25785e-20)
(1.07843 0.018827 1.39426e-20)
(1.09437 0.056393 7.83508e-22)
(1.09528 0.055753 -6.05601e-21)
(1.17116 0.0496083 3.66452e-20)
(1.17172 0.0456231 2.85316e-20)
(1.11435 -0.44794 3.81717e-20)
(1.03079 -0.118747 1.51062e-21)
(1.02893 -0.114774 2.52981e-22)
(1.0331 -0.115269 1.52291e-21)
(1.10751 0.0149859 -2.09688e-20)
(1.10706 0.01266 -1.63663e-20)
(-0.291814 -0.00751048 0)
(-0.288993 -0.00572595 -4.72505e-20)
(0.329079 0.0293745 5.49619e-21)
(0.306251 0.0236435 1.45151e-22)
(1.12264 0.0515927 -7.4691e-21)
(1.12363 0.0533493 1.62455e-20)
(0.89169 -0.0633225 -4.36606e-21)
(0.8874 -0.0592723 -8.35345e-21)
(0.886202 -0.0658714 -6.08658e-21)
(0.976373 -0.0231742 -6.1642e-22)
(0.975898 -0.0219566 4.09931e-21)
(0.977327 -0.0219637 -1.02664e-21)
(1.01824 -0.0161496 2.94542e-22)
(1.01828 -0.0167978 -5.91618e-22)
(1.01901 -0.0164884 -1.91341e-23)
(1.25066 0.00254612 3.27253e-20)
(1.24609 0.00662167 -4.02612e-21)
(1.10537 0.0119973 -5.55152e-21)
(1.10374 0.011007 -9.4173e-21)
(0.0709983 0.00561204 -8.30294e-22)
(0.0602201 0.00370166 -4.60633e-20)
(1.07976 -0.0346453 -4.26683e-21)
(1.08193 -0.0357521 6.88913e-21)
(1.00706 -0.0674671 1.59118e-22)
(1.00925 -0.0688472 -2.42385e-21)
(1.08807 0.0531224 -9.85038e-21)
(1.08746 0.0527638 3.11621e-21)
(1.08786 0.0523421 5.53418e-22)
(1.12107 0.0514184 6.7408e-21)
(1.12174 0.049623 7.84051e-21)
(1.04443 -0.0110952 0)
(1.04538 -0.0115017 -2.79967e-21)
(1.0445 -0.0119889 -5.05489e-21)
(1.04068 -0.0281553 -4.44889e-21)
(1.03937 -0.0281365 -7.86741e-21)
(1.04 -0.0271394 0)
(0.699606 -0.146648 0)
(0.720115 -0.150444 -1.48843e-20)
(0.709088 -0.163785 3.16249e-20)
(1.25878 -0.0991079 9.98713e-22)
(1.25861 -0.105489 1.01382e-19)
(1.25283 -0.100595 9.39534e-20)
(0.0123984 0.0267441 -4.84454e-20)
(0.0332538 0.0281274 -5.78882e-20)
(0.0481989 0.0297061 3.13883e-20)
(0.143166 0.0428474 8.65301e-21)
(0.130152 0.0415491 0)
(0.180718 0.0459756 -1.67665e-20)
(1.09678 0.00814988 -2.48348e-20)
(1.09769 0.00987363 -2.23348e-20)
(0.928663 -0.695364 -1.02556e-20)
(0.92794 -0.750102 -2.03081e-20)
(0.979431 -0.748644 -8.81104e-21)
(-0.0184582 0.0250239 1.61595e-20)
(-0.00363667 0.0261082 -2.29434e-20)
(0.936319 -0.0199768 1.54071e-20)
(0.938788 -0.0188776 -2.81277e-20)
(0.936185 -0.0169315 -1.14247e-20)
(1.09798 0.0230022 -3.82574e-21)
(1.09884 0.022038 0)
(1.09735 0.0221484 -1.55996e-20)
(0.293844 0.039772 -8.78771e-21)
(0.314796 0.0431819 -8.85501e-21)
(0.282328 0.0389301 -2.34664e-20)
(1.07392 -0.0445877 3.58473e-21)
(1.07507 -0.0458656 0)
(1.07281 -0.0461755 0)
(1.08545 0.0518373 -9.7849e-22)
(1.08493 0.0517729 -9.11754e-21)
(1.08513 0.0523586 -2.07915e-20)
(1.01345 -0.0387522 -3.3889e-22)
(1.01415 -0.0382933 -9.77689e-22)
(1.26353 -0.0978345 -4.77505e-20)
(1.00008 -0.00189059 0)
(1.00013 -0.00221023 1.46467e-21)
(1.0001 -0.00226687 3.06556e-21)
(1.12802 -0.0768146 5.04511e-21)
(1.12983 -0.0741492 2.15907e-20)
(1.13121 -0.0785025 1.57652e-21)
(1.02166 -0.0793465 0)
(1.02409 -0.0797426 6.20053e-22)
(1.02263 -0.0819215 -6.20219e-22)
(0.981331 -0.0160745 3.73574e-21)
(0.982011 -0.0168817 1.51077e-20)
(1.14396 0.0584203 -1.41723e-20)
(1.14329 0.060342 0)
(1.14538 0.059702 0)
(1.04433 -0.020388 -2.53465e-21)
(1.0433 -0.01973 4.2548e-21)
(1.04454 -0.0192611 3.86881e-21)
(0.178995 -0.537943 -1.05029e-19)
(0.134252 -0.583317 3.60357e-20)
(1.01447 -0.00704733 -1.00004e-21)
(1.01506 -0.00723956 1.20679e-21)
(1.13778 0.0468775 1.01296e-20)
(1.13983 0.0459383 2.42647e-20)
(1.13756 0.0446887 0)
(0.0646694 0.00876756 -3.64775e-21)
(0.0475937 0.00497262 -1.24015e-20)
(-0.034581 0.0165351 4.37294e-21)
(-0.0425853 0.0174501 4.30498e-20)
(0.000614746 0.0189613 7.32147e-20)
(0.897664 -0.0722167 -5.38121e-21)
(0.902894 -0.0708048 -1.61029e-20)
(0.901227 -0.0765506 -1.57762e-20)
(1.09703 0.0239944 1.39835e-20)
(1.09848 0.023958 1.40539e-21)
(1.00004 -0.00125429 4.64105e-21)
(1.00002 -0.000940634 -2.4448e-22)
(1.00002 -0.000952982 2.1131e-21)
(0.75484 -0.28098 -1.36699e-21)
(0.735034 -0.274955 -6.43296e-20)
(1.00125 -0.0130296 0)
(1.00129 -0.0124413 -2.43506e-21)
(1.00158 -0.0129054 -1.8941e-21)
(1.12448 -0.075831 -9.59952e-21)
(0.0161355 -0.0461381 -2.23514e-20)
(-0.0590689 -0.0390871 7.34475e-21)
(-0.0332093 -0.042139 -1.97556e-20)
(0.894743 -0.0684059 -2.27968e-21)
(0.896605 -0.0620753 -3.66162e-20)
(1.07243 -0.0428501 -7.20141e-22)
(1.07486 -0.042426 -4.4427e-21)
(0.996503 -0.000359415 3.71434e-21)
(0.996129 -0.000600177 7.91338e-21)
(0.11075 0.0397755 7.10766e-21)
(0.151348 0.0421909 -1.07026e-20)
(1.02125 -0.0123263 -2.06317e-22)
(1.02086 -0.0116722 0)
(0.908217 -0.41955 1.46518e-20)
(1.0306 -0.490776 0)
(0.122188 0.0399899 2.501e-20)
(0.111447 0.0381685 5.21841e-21)
(0.157046 0.0422766 1.80344e-20)
(1.19906 -0.187424 -3.37194e-20)
(1.20365 -0.180715 3.035e-20)
(1.00011 -0.000531425 1.46496e-22)
(1.00007 -0.000382139 7.64664e-22)
(1.26889 -0.315435 0)
(1.29121 -0.312541 -3.48474e-21)
(1.29928 -0.327794 0)
(-0.0101032 0.00891368 1.20919e-21)
(-0.00157161 0.00907716 -1.10079e-20)
(0.0135577 0.0146844 2.86884e-21)
(0.552806 0.0504351 0)
(0.521117 0.0467395 -3.00177e-21)
(1.08557 0.0514986 2.46367e-20)
(1.10275 -0.0134854 -9.23496e-22)
(1.1031 -0.0157245 2.54312e-20)
(1.10073 -0.0143146 -1.41762e-22)
(0.718275 -0.343784 4.58516e-20)
(0.711493 -0.324466 2.77043e-20)
(0.69363 -0.339342 -2.78471e-20)
(1.14268 0.0571212 1.07025e-20)
(1.14474 0.0563994 -2.62464e-21)
(1.07915 0.0209128 0)
(1.07786 0.0205322 0)
(1.09248 -0.409774 3.70122e-20)
(1.07556 -0.406493 3.10625e-20)
(1.04583 -0.131427 -3.22187e-21)
(1.04116 -0.131391 2.18328e-21)
(1.04367 -0.127533 -3.75167e-21)
(0.216674 0.00735915 5.34215e-21)
(0.197747 0.0053467 -2.34305e-21)
(0.198396 0.00424491 7.36503e-21)
(1.16438 0.0298335 -2.06023e-21)
(1.16201 0.0321181 -1.21465e-20)
(1.16169 0.0281686 4.13708e-20)
(1.0099 -0.00056984 1.37918e-21)
(1.01047 -0.000810935 -1.57376e-21)
(1.01 -0.00121106 -2.73429e-22)
(1.0805 -0.015215 8.14086e-21)
(1.0787 -0.0149454 9.32413e-22)
(1.07927 -0.0166161 9.93432e-21)
(1.08809 0.0538792 -7.67941e-21)
(0.455496 0.0336542 0)
(0.430378 0.0329295 9.06329e-21)
(0.33068 0.00706534 -3.96317e-21)
(0.349645 0.0100578 -4.05976e-21)
(0.338609 0.00730863 1.73121e-21)
(1.01762 -0.0158069 -1.74391e-21)
(1.01825 -0.0156211 1.21483e-21)
(0.584588 -0.209662 -9.43045e-20)
(0.992132 -0.0119822 -3.45423e-21)
(0.992569 -0.0123638 -3.33867e-21)
(0.992692 -0.0116036 -6.94596e-21)
(1.1243 0.0622861 -9.95163e-22)
(1.12613 0.0619452 2.24779e-21)
(1.12489 0.0604402 3.18736e-20)
(1.17998 0.0448914 -1.67614e-21)
(1.18264 0.0430796 -1.5188e-21)
(1.17862 0.0421832 2.96548e-20)
(1.08183 -0.0157986 0)
(1.08136 -0.0144635 -5.76838e-21)
(1.12271 -0.00388742 -1.05198e-20)
(1.12471 -0.00286447 -5.73572e-20)
(1.16691 0.0285517 -4.38459e-20)
(1.16681 0.0323647 -1.73811e-20)
(0.998616 -0.0240269 2.18495e-21)
(0.999283 -0.0247644 -7.73531e-21)
(0.999259 -0.0235558 -2.17528e-21)
(0.809782 -0.128649 -9.20618e-21)
(0.798112 -0.124222 0)
(1.09521 0.0508991 1.36609e-20)
(1.09436 0.0516653 1.27734e-20)
(1.09428 0.05043 1.16431e-20)
(1.16719 0.0753003 7.97021e-21)
(1.16674 0.075595 -4.14466e-21)
(1.17664 0.07432 3.71593e-20)
(0.997548 -0.0081393 -2.68711e-21)
(0.997846 -0.0078947 -4.29789e-21)
(0.997637 -0.00758431 -4.62533e-21)
(0.981909 -0.015181 -1.29474e-20)
(0.980566 -0.0153554 -8.09298e-21)
(0.89257 -0.0738366 1.897e-20)
(0.373928 0.0545455 0)
(0.384801 0.0547242 -1.32539e-20)
(0.417394 0.0590454 -1.66263e-20)
(-0.244562 -0.0101523 1.9136e-20)
(-0.272534 -0.00784136 -8.9088e-20)
(-0.247349 -0.0108711 6.18921e-22)
(1.11368 0.00830155 -2.25884e-21)
(1.11285 0.00702121 9.25522e-21)
(1.11473 0.00690848 1.92901e-20)
(1.02943 -0.0164331 2.6206e-21)
(1.02906 -0.0170991 -9.64475e-22)
(1.1691 0.050793 4.34105e-21)
(1.17208 0.0527434 3.24917e-20)
(1.1873 0.0391335 0)
(1.18485 0.0412494 0)
(1.18368 0.0380887 -4.84851e-20)
(1.11682 0.0499742 -5.28671e-21)
(1.11484 0.0502959 -1.3669e-20)
(1.11544 0.0485603 -1.98887e-22)
(1.12165 -0.00163552 4.43068e-20)
(1.12035 -0.00431813 3.0734e-20)
(0.363551 0.0527195 -1.14199e-22)
(0.33743 0.0478414 0)
(-0.124131 0.00597275 -1.80499e-20)
(-0.120888 0.00526803 6.56582e-21)
(-0.154302 0.00239027 -8.09181e-20)
(1.08388 -0.022368 -7.54734e-21)
(1.08423 -0.0239439 -7.00881e-21)
(1.08562 -0.0223657 -1.64588e-20)
(1.09383 0.00529762 -7.2782e-21)
(1.09521 0.00568009 -1.54788e-21)
(1.09369 0.00666913 -2.14932e-20)
(1.2226 -0.184336 0)
(1.19332 -0.173566 0)
(1.05693 -0.146836 0)
(1.01959 -0.0208423 -6.34679e-22)
(1.02003 -0.0216681 3.68989e-22)
(1.01888 -0.0211939 7.73945e-22)
(1.00138 -0.0062952 -4.92981e-21)
(1.00143 -0.00614053 1.22953e-21)
(1.00126 -0.00588356 -2.37167e-21)
(1.11842 0.0499111 -4.03803e-21)
(1.11758 0.0516638 2.13482e-20)
(1.14506 -0.115185 -2.36279e-20)
(1.14304 -0.110913 -7.15707e-21)
(1.14002 -0.114923 -2.54184e-20)
(1.02197 -0.0123863 5.23932e-23)
(1.02261 -0.012483 3.85617e-22)
(1.02218 -0.0119404 2.38398e-22)
(1.00017 -0.00220897 5.2554e-22)
(1.00014 -0.00220748 -1.9017e-21)
(1.0001 -0.00188364 -5.87886e-21)
(1.00121 -0.0134515 2.17678e-21)
(1.00098 -0.0130054 3.24472e-21)
(1.00402 -0.000695496 -1.43037e-23)
(1.00431 -0.000718709 -1.60086e-23)
(1.00402 -0.000414761 -1.16943e-23)
(1.09798 -0.00670642 -4.6729e-20)
(1.09992 -0.00677604 -4.42343e-21)
(1.09909 -0.00495646 -2.08719e-20)
(1.00149 -0.00675017 -1.51421e-24)
(0.303283 0.0399723 1.24257e-20)
(0.334399 0.0437569 1.03892e-21)
(1.11375 0.0036737 7.51854e-21)
(1.11199 0.00515871 -1.99716e-21)
(1.01111 -0.031571 -1.7362e-21)
(1.01033 -0.0315196 -1.53148e-21)
(1.01097 -0.0323505 2.7125e-22)
(0.440586 0.030243 0)
(0.0847438 0.0253947 9.77875e-21)
(0.0670185 0.0231268 -4.43463e-21)
(0.973705 -0.0166271 -1.17666e-21)
(0.974205 -0.017971 4.01551e-21)
(0.97518 -0.0168187 -8.91807e-21)
(1.13793 0.0492265 8.58864e-21)
(-0.191656 0.00364571 6.25163e-21)
(-0.225336 0.00117456 6.55161e-20)
(-0.189355 0.00308152 2.32106e-20)
(0.971758 -0.0454079 3.11688e-21)
(0.973973 -0.0462029 -1.19936e-21)
(0.972979 -0.0152755 -3.5345e-21)
(0.971828 -0.0167807 -4.36255e-21)
(1.11554 0.00303696 1.53211e-20)
(1.11549 0.00529897 2.53904e-21)
(0.0462053 0.00670719 7.19608e-21)
(0.0415476 0.00746421 1.85735e-20)
(0.0645797 0.0113338 2.37984e-20)
(0.275496 -0.0113785 -8.96812e-21)
(0.202698 -0.008128 -1.47226e-19)
(0.262611 -0.0137011 -1.23205e-19)
(1.14022 0.00158437 0)
(1.143 0.00151422 -1.65697e-20)
(1.14117 -0.000583228 0)
(1.00235 -0.000511195 -1.53264e-21)
(1.00224 -0.0007279 -4.3151e-22)
(0.733803 0.069752 0)
(0.810525 0.0711343 3.6648e-20)
(1.00085 -0.00764622 -4.6873e-22)
(1.14565 0.00148797 -1.47093e-20)
(1.14706 -0.000981076 -6.20445e-21)
(1.14878 0.0017595 -7.12074e-22)
(-0.196802 0.00376958 -6.72617e-20)
(-0.166277 0.00756233 -6.4685e-20)
(1.16658 0.0759775 3.16677e-21)
(1.16811 0.0757687 -3.24725e-20)
(1.17241 0.0744432 4.61283e-21)
(1.05935 -0.000404157 -5.26902e-21)
(1.05883 0.000475999 0)
(1.24277 -0.199407 0)
(1.30061 -0.212292 0)
(1.32999 -0.176457 0)
(1.3065 -0.169111 0)
(1.30342 -0.17606 0)
(-0.116169 -0.0070215 4.11825e-20)
(-0.106528 -0.00598348 9.7552e-20)
(-0.075332 -0.00802673 2.4269e-22)
(1.2084 -0.0273707 9.77808e-21)
(1.20547 -0.0296646 -3.43341e-21)
(1.20944 -0.030975 -3.36689e-20)
(0.783894 -0.0979135 -2.2497e-20)
(0.784248 -0.0864852 -2.1999e-20)
(0.771933 -0.091084 2.10231e-20)
(0.00990142 0.0191643 -4.31912e-20)
(0.0217237 0.0201752 2.70716e-20)
(0.128484 0.0345517 -1.17319e-20)
(0.150325 0.0379311 -8.08985e-21)
(0.12219 0.0339412 -6.38967e-21)
(1.18288 0.0745123 -2.51415e-20)
(1.15142 0.0745916 -4.98885e-20)
(1.04194 -0.0282753 -7.62762e-22)
(1.04125 -0.0293956 -1.55242e-21)
(-0.268463 -0.00613472 0)
(-0.244424 -0.00775513 5.28121e-20)
(-0.235283 -0.00716252 -4.97352e-20)
(0.190687 0.000142075 -9.43133e-21)
(0.193647 -0.000291123 7.6946e-21)
(0.478397 -0.449564 4.92769e-21)
(0.445434 -0.422954 2.24361e-20)
(0.446966 -0.470741 4.36622e-20)
(0.507417 -0.429043 -1.00652e-20)
(0.517212 -0.470926 -1.06496e-20)
(0.93431 -0.0213143 9.62968e-21)
(0.935726 -0.022457 2.30507e-20)
(1.14411 -0.00525259 1.98335e-20)
(1.14254 -0.0073277 -2.82197e-22)
(1.1455 -0.00742093 -1.82953e-20)
(0.943359 -0.115835 1.05668e-20)
(0.946712 -0.111373 -8.42233e-21)
(0.949294 -0.117078 0)
(0.285947 0.00911582 -5.0238e-21)
(0.265398 0.00474911 -8.11937e-21)
(0.790067 -0.145191 -7.51583e-21)
(0.788326 -0.131991 2.03392e-20)
(0.775043 -0.141118 4.9907e-20)
(1.0079 -0.00173403 -9.07511e-23)
(1.00787 -0.00206198 -3.98745e-22)
(1.00825 -0.0019367 6.63629e-23)
(1.01978 -0.000201928 2.11644e-21)
(1.01967 -0.000164121 -3.09664e-22)
(1.06632 -0.0789929 1.89021e-20)
(1.06921 -0.0795973 1.3235e-20)
(1.06667 -0.0816252 3.8315e-22)
(-0.150428 -0.00951295 -3.73094e-20)
(-0.126861 -0.00806331 -6.98308e-20)
(0.245227 -0.566814 -4.39348e-20)
(1.02018 -0.0204917 -9.80268e-22)
(1.01916 -0.0201587 -1.38455e-22)
(-0.0658367 0.0164241 -1.21574e-20)
(0.932515 -0.11289 -5.69995e-21)
(0.938421 -0.114778 1.11996e-20)
(0.936139 -0.108857 -1.33839e-20)
(1.09503 -0.0689483 0)
(1.09812 -0.0676916 -1.54143e-20)
(1.06149 0.00166056 7.24538e-21)
(1.06048 0.00187249 1.1644e-21)
(0.0471788 0.00556648 0)
(0.027217 0.00484757 0)
(1.16613 0.0521507 -2.29721e-20)
(1.16699 0.0486739 -5.13968e-20)
(1.08697 0.0533373 1.13905e-20)
(1.02078 -0.0764467 -2.98397e-22)
(1.01898 -0.0783375 9.4935e-24)
(1.07104 -0.0415621 -4.40134e-21)
(1.07028 -0.0432864 -4.18673e-21)
(0.530558 0.036477 8.8217e-21)
(0.535474 0.0357967 1.11686e-20)
(0.509199 0.0337277 5.68737e-21)
(0.975576 -0.0245971 2.4855e-22)
(0.977165 -0.0244042 -1.57224e-20)
(1.19154 0.0402905 -1.7763e-20)
(1.08205 -0.022052 -3.21434e-21)
(1.08352 -0.0204212 0)
(1.11562 0.00105063 -2.40468e-20)
(1.11755 0.00283335 1.3664e-20)
(0.929724 -0.117938 1.02846e-20)
(0.926383 -0.11162 4.56931e-21)
(0.991567 -0.0123949 8.14787e-21)
(1.01226 -0.0318051 -2.04118e-21)
(1.01147 -0.0307213 -5.69998e-22)
(1.21863 -0.0837811 -4.23477e-21)
(1.21971 -0.0885199 0)
(1.22434 -0.0833513 -2.90067e-20)
(1.22232 -0.189114 2.37523e-20)
(1.21841 -0.181974 2.18618e-20)
(1.16024 0.0336327 -8.40904e-21)