/*--------------------------------*- C++ -*----------------------------------*\
| =========                 |                                                 |
| \\      /  F ield         | OpenFOAM: The Open Source CFD Toolbox           |
|  \\    /   O peration     | Version:  v2012                                 |
|   \\  /    A nd           | Website:  www.openfoam.com                      |
|    \\/     M anipulation  |                                                 |
\*---------------------------------------------------------------------------*/
FoamFile
{
    version     2.0;
    format      ascii;
    class       volVectorField;
    location    "450";
    object      cellDisplacement;
}
// * * * * * * * * * * * * * * * * * * * * * * * * * * * * * * * * * * * * * //

dimensions      [0 1 0 0 0 0 0];


internalField   nonuniform List<vector> 
13851
(
(0 -0.0738443 0)
(0 -0.0713326 0)
(0 -0.071184 0)
(0 -0.0739124 0)
(0 -0.00343504 0)
(0 -0.0721872 0)
(0 -0.0706749 0)
(0 -0.00665607 0)
(0 -0.0739121 0)
(0 -0.0565411 0)
(0 -0.0737068 0)
(0 -0.0374697 0)
(0 -0.06614 0)
(0 -0.0739124 0)
(0 -0.0732255 0)
(0 -0.0738478 0)
(0 -0.0739125 0)
(0 -0.0638899 0)
(0 -0.0738874 0)
(0 -0.0738399 0)
(0 -0.0733862 0)
(0 -0.0724787 0)
(0 -0.0739114 0)
(0 -0.00149081 0)
(0 -0.0739027 0)
(0 -0.0736668 0)
(0 -0.0738931 0)
(0 -0.0739017 0)
(0 -0.0739119 0)
(0 -0.0513723 0)
(0 -0.073912 0)
(0 -0.0706068 0)
(0 -0.0738386 0)
(0 -0.0739113 0)
(0 -0.0735027 0)
(0 -0.0739118 0)
(0 -0.0013065 0)
(0 -0.0739042 0)
(0 -0.0739118 0)
(0 -0.0666438 0)
(0 -0.0739118 0)
(0 -0.0739117 0)
(0 -0.0739125 0)
(0 -0.0739026 0)
(0 -0.0739115 0)
(0 -0.0591362 0)
(0 -0.011536 0)
(0 -0.0738435 0)
(0 -0.0710529 0)
(0 -0.0660357 0)
(0 -0.0739125 0)
(0 -0.0672762 0)
(0 -0.0738447 0)
(0 -0.0727151 0)
(0 -0.0739125 0)
(0 -0.0667865 0)
(0 -0.0738437 0)
(0 -0.0739119 0)
(0 -0.0738941 0)
(0 -0.0739125 0)
(0 -0.0361462 0)
(0 -0.0738903 0)
(0 -0.0460409 0)
(0 -0.071216 0)
(0 -0.0738956 0)
(0 -0.0738988 0)
(0 -0.0739125 0)
(0 -0.0738431 0)
(0 -0.0672525 0)
(0 -0.0739123 0)
(0 -0.0739122 0)
(0 -0.0735454 0)
(0 -0.064191 0)
(0 -0.0739125 0)
(0 -0.0728985 0)
(0 -0.0715679 0)
(0 -0.0739124 0)
(0 -0.0437634 0)
(0 -0.0739015 0)
(0 -0.0544043 0)
(0 -0.0675065 0)
(0 -0.0738869 0)
(0 -0.0734822 0)
(0 -0.0739124 0)
(0 -0.0739125 0)
(0 -0.0739121 0)
(0 -0.0725549 0)
(0 -0.0739124 0)
(0 -0.0579079 0)
(0 -0.073912 0)
(0 -0.0674828 0)
(0 -0.0707901 0)
(0 -0.0739125 0)
(0 -0.0739122 0)
(0 -0.0739121 0)
(0 -0.073897 0)
(0 -0.0600845 0)
(0 -0.0738492 0)
(0 -0.0739125 0)
(0 -0.0738643 0)
(0 -0.0738541 0)
(0 -0.073713 0)
(0 -0.0737536 0)
(0 -0.0657675 0)
(0 -0.0596404 0)
(0 -0.0735199 0)
(0 -0.0592044 0)
(0 -0.0739121 0)
(0 -0.0707352 0)
(0 -0.063389 0)
(0 -0.0731943 0)
(0 -0.0596355 0)
(0 -0.0738578 0)
(0 -0.0736854 0)
(0 -0.0738409 0)
(0 -0.0726321 0)
(0 -0.0395432 0)
(0 -0.00808924 0)
(0 -0.0739124 0)
(0 -0.0739122 0)
(0 -0.0738842 0)
(0 -0.059634 0)
(0 -0.067278 0)
(0 -0.0739124 0)
(0 -0.073881 0)
(0 -0.073885 0)
(0 -0.0597128 0)
(0 -0.0736889 0)
(0 -0.0739119 0)
(0 -0.0734858 0)
(0 -0.0725091 0)
(0 -0.0730201 0)
(0 -0.0739027 0)
(0 -0.0739114 0)
(0 -0.0737206 0)
(0 -0.0739121 0)
(0 -0.0738308 0)
(0 -0.0739121 0)
(0 -0.0735567 0)
(0 -0.0734585 0)
(0 -0.0738844 0)
(0 -0.0702408 0)
(0 -0.0585333 0)
(0 -0.0738806 0)
(0 -0.0739027 0)
(0 -0.0714481 0)
(0 -0.0425796 0)
(0 -0.0739121 0)
(0 -0.0739123 0)
(0 -0.0737087 0)
(0 -0.073853 0)
(0 -0.0738535 0)
(0 -0.0737048 0)
(0 -0.0738786 0)
(0 -0.0684044 0)
(0 -0.062932 0)
(0 -0.0315164 0)
(0 -0.073912 0)
(0 -0.0733942 0)
(0 -0.0703516 0)
(0 -0.00337621 0)
(0 -0.0739119 0)
(0 -0.0734966 0)
(0 -0.073842 0)
(0 -0.0739124 0)
(0 -0.0739118 0)
(0 -0.0739117 0)
(0 -0.0739125 0)
(0 -0.0731285 0)
(0 -0.0739081 0)
(0 -0.0344619 0)
(0 -0.0384496 0)
(0 -0.0736405 0)
(0 -0.00303145 0)
(0 -0.0739121 0)
(0 -0.0738923 0)
(0 -0.0738613 0)
(0 -0.0385991 0)
(0 -0.0728816 0)
(0 -0.0738572 0)
(0 -0.0738781 0)
(0 -0.0739006 0)
(0 -0.0730414 0)
(0 -0.0734613 0)
(0 -0.0739125 0)
(0 -0.0739123 0)
(0 -0.0738421 0)
(0 -0.0732235 0)
(0 -0.0676482 0)
(0 -0.0552385 0)
(0 -0.0739011 0)
(0 -0.0733886 0)
(0 -0.0739124 0)
(0 -0.0722215 0)
(0 -0.0712904 0)
(0 -0.073847 0)
(0 -0.0738362 0)
(0 -0.0662528 0)
(0 -0.0673016 0)
(0 -0.0738444 0)
(0 -0.0738843 0)
(0 -0.0739121 0)
(0 -0.0739119 0)
(0 -0.073202 0)
(0 -0.073911 0)
(0 -0.0739122 0)
(0 -0.0716974 0)
(0 -0.0734397 0)
(0 -0.0739121 0)
(0 -0.0720752 0)
(0 -0.0738467 0)
(0 -0.0669889 0)
(0 -0.0738865 0)
(0 -0.0128107 0)
(0 -0.0735147 0)
(0 -0.072005 0)
(0 -0.0654887 0)
(0 -0.0738763 0)
(0 -0.0669315 0)
(0 -0.0739124 0)
(0 -0.0375475 0)
(0 -0.0738405 0)
(0 -0.0739124 0)
(0 -0.0739121 0)
(0 -0.0731798 0)
(0 -0.0734609 0)
(0 -0.00668925 0)
(0 -0.0738745 0)
(0 -0.0486541 0)
(0 -0.0734897 0)
(0 -0.0739119 0)
(0 -0.073181 0)
(0 -0.0720158 0)
(0 -0.042839 0)
(0 -0.073912 0)
(0 -0.0517236 0)
(0 -0.0739108 0)
(0 -0.073912 0)
(0 -0.0738568 0)
(0 -0.00317583 0)
(0 -0.0739022 0)
(0 -0.0739125 0)
(0 -0.0739113 0)
(0 -0.0738428 0)
(0 -0.0730463 0)
(0 -0.0738908 0)
(0 -0.073872 0)
(0 -0.0729087 0)
(0 -0.073894 0)
(0 -0.073272 0)
(0 -0.0739125 0)
(0 -0.0738417 0)
(0 -0.00729653 0)
(0 -0.0720486 0)
(0 -0.073852 0)
(0 -0.073912 0)
(0 -0.0739125 0)
(0 -0.0544348 0)
(0 -0.0738889 0)
(0 -0.0575582 0)
(0 -0.0738694 0)
(0 -0.0738788 0)
(0 -0.0721502 0)
(0 -0.0735132 0)
(0 -0.0738466 0)
(0 -0.0617588 0)
(0 -0.0737325 0)
(0 -0.0738216 0)
(0 -0.0738999 0)
(0 -0.0452713 0)
(0 -0.0653095 0)
(0 -0.0732185 0)
(0 -0.0739116 0)
(0 -0.0739125 0)
(0 -0.073475 0)
(0 -0.0603901 0)
(0 -0.0738801 0)
(0 -0.0738787 0)
(0 -0.0738242 0)
(0 -0.0734932 0)
(0 -0.0739118 0)
(0 -0.0739125 0)
(0 -0.0723375 0)
(0 -0.0730579 0)
(0 -0.0739055 0)
(0 -0.0594742 0)
(0 -0.0303134 0)
(0 -0.07383 0)
(0 -0.0736721 0)
(0 -0.0530256 0)
(0 -0.0125514 0)
(0 -0.0495277 0)
(0 -0.0046014 0)
(0 -0.0730286 0)
(0 -0.0317502 0)
(0 -0.0739121 0)
(0 -0.0734261 0)
(0 -0.0644993 0)
(0 -0.0739119 0)
(0 -0.0739124 0)
(0 -0.0675031 0)
(0 -0.0738448 0)
(0 -0.0739125 0)
(0 -0.0704954 0)
(0 -0.0677171 0)
(0 -0.073462 0)
(0 -0.0739124 0)
(0 -0.0739104 0)
(0 -0.0736877 0)
(0 -0.00438475 0)
(0 -0.0739077 0)
(0 -0.0358666 0)
(0 -0.0737178 0)
(0 -0.0739125 0)
(0 -0.0738996 0)
(0 -0.0701476 0)
(0 -0.0739045 0)
(0 -0.0738998 0)
(0 -0.0739121 0)
(0 -0.0738524 0)
(0 -0.0737405 0)
(0 -0.073912 0)
(0 -0.0739123 0)
(0 -0.0739011 0)
(0 -0.0676716 0)
(0 -0.0739124 0)
(0 -0.0739125 0)
(0 -0.0739099 0)
(0 -0.0739091 0)
(0 -0.0717957 0)
(0 -0.0736778 0)
(0 -0.073202 0)
(0 -0.0739124 0)
(0 -0.0737764 0)
(0 -0.0121369 0)
(0 -0.0130601 0)
(0 -0.0726843 0)
(0 -0.0739122 0)
(0 -0.0739123 0)
(0 -0.0590153 0)
(0 -0.0739122 0)
(0 -0.0732381 0)
(0 -0.073062 0)
(0 -0.0704484 0)
(0 -0.0739124 0)
(0 -0.0738778 0)
(0 -0.07385 0)
(0 -0.0718778 0)
(0 -0.0718654 0)
(0 -0.0739116 0)
(0 -0.067899 0)
(0 -0.0738809 0)
(0 -0.0722658 0)
(0 -0.0734652 0)
(0 -0.0732891 0)
(0 -0.0581762 0)
(0 -0.0643235 0)
(0 -0.0738542 0)
(0 -0.0738686 0)
(0 -0.0738417 0)
(0 -0.0739018 0)
(0 -0.0739115 0)
(0 -0.0715774 0)
(0 -0.073912 0)
(0 -0.0738797 0)
(0 -0.0543377 0)
(0 -0.0739007 0)
(0 -0.0737852 0)
(0 -0.0739125 0)
(0 -0.0725868 0)
(0 -0.0736897 0)
(0 -0.0738914 0)
(0 -0.0739024 0)
(0 -0.0738483 0)
(0 -0.0739124 0)
(0 -0.0695464 0)
(0 -0.0738941 0)
(0 -0.0739124 0)
(0 -0.0728767 0)
(0 -0.0739125 0)
(0 -0.0730564 0)
(0 -0.0739118 0)
(0 -0.0730082 0)
(0 -0.0732273 0)
(0 -0.0738417 0)
(0 -0.0738796 0)
(0 -0.0630772 0)
(0 -0.0722135 0)
(0 -0.0736929 0)
(0 -0.072928 0)
(0 -0.0606168 0)
(0 -0.0734938 0)
(0 -0.0739095 0)
(0 -0.0639293 0)
(0 -0.073446 0)
(0 -0.0739124 0)
(0 -0.0713663 0)
(0 -0.0739073 0)
(0 -0.0733964 0)
(0 -0.0739101 0)
(0 -0.0721998 0)
(0 -0.0736439 0)
(0 -0.0739103 0)
(0 -0.0738813 0)
(0 -0.0734998 0)
(0 -0.0739125 0)
(0 -0.0739125 0)
(0 -0.0739006 0)
(0 -0.0619428 0)
(0 -0.0738498 0)
(0 -0.073098 0)
(0 -0.0736815 0)
(0 -0.0598078 0)
(0 -0.0739125 0)
(0 -0.0739097 0)
(0 -0.0739025 0)
(0 -0.0717852 0)
(0 -0.0738467 0)
(0 -0.0738902 0)
(0 -0.0739124 0)
(0 -0.045077 0)
(0 -0.0739124 0)
(0 -0.073883 0)
(0 -0.0739119 0)
(0 -0.0733164 0)
(0 -0.0739019 0)
(0 -0.0629664 0)
(0 -0.00266341 0)
(0 -0.0739125 0)
(0 -0.0738905 0)
(0 -0.0575145 0)
(0 -0.0713518 0)
(0 -0.0734721 0)
(0 -0.0397878 0)
(0 -0.0739091 0)
(0 -0.073687 0)
(0 -0.0737767 0)
(0 -0.0718617 0)
(0 -0.0694758 0)
(0 -0.0672177 0)
(0 -0.0739016 0)
(0 -0.0641746 0)
(0 -0.066893 0)
(0 -0.0739069 0)
(0 -0.0739091 0)
(0 -0.0724171 0)
(0 -0.0738873 0)
(0 -0.0452447 0)
(0 -0.0304915 0)
(0 -0.0715408 0)
(0 -0.0738461 0)
(0 -0.0733674 0)
(0 -0.0615427 0)
(0 -0.069929 0)
(0 -0.0738802 0)
(0 -0.0703634 0)
(0 -0.0739099 0)
(0 -0.0355146 0)
(0 -0.0722273 0)
(0 -0.0739114 0)
(0 -0.0735434 0)
(0 -0.0136362 0)
(0 -0.0334542 0)
(0 -0.0717934 0)
(0 -0.0670953 0)
(0 -0.0739021 0)
(0 -0.0739083 0)
(0 -0.0730867 0)
(0 -0.0739125 0)
(0 -0.0716106 0)
(0 -0.0448319 0)
(0 -0.0739119 0)
(0 -0.0738905 0)
(0 -0.0735558 0)
(0 -0.0652062 0)
(0 -0.0739123 0)
(0 -0.0735353 0)
(0 -0.0739104 0)
(0 -0.0656759 0)
(0 -0.0730258 0)
(0 -0.0738536 0)
(0 -0.0730725 0)
(0 -0.0739121 0)
(0 -0.0738918 0)
(0 -0.0739015 0)
(0 -0.0718565 0)
(0 -0.0738564 0)
(0 -0.0622118 0)
(0 -0.073912 0)
(0 -0.0733785 0)
(0 -0.0738369 0)
(0 -0.0730612 0)
(0 -0.0717162 0)
(0 -0.0735172 0)
(0 -0.0736524 0)
(0 -0.0038634 0)
(0 -0.0739124 0)
(0 -0.073912 0)
(0 -0.0739097 0)
(0 -0.0739124 0)
(0 -0.073908 0)
(0 -0.0739124 0)
(0 -0.0738811 0)
(0 -0.0730991 0)
(0 -0.0220379 0)
(0 -0.0739086 0)
(0 -0.0562281 0)
(0 -0.0600448 0)
(0 -0.0732812 0)
(0 -0.073912 0)
(0 -0.0710201 0)
(0 -0.070175 0)
(0 -0.0738331 0)
(0 -0.0735251 0)
(0 -0.0574097 0)
(0 -0.0739077 0)
(0 -0.0594255 0)
(0 -0.0739118 0)
(0 -0.0739006 0)
(0 -0.0550949 0)
(0 -0.0703801 0)
(0 -0.0738834 0)
(0 -0.0739008 0)
(0 -0.0528162 0)
(0 -0.0739058 0)
(0 -0.0739094 0)
(0 -0.0567719 0)
(0 -0.073912 0)
(0 -0.0738853 0)
(0 -0.0738405 0)
(0 -0.0717883 0)
(0 -0.0739065 0)
(0 -0.0739125 0)
(0 -0.0574571 0)
(0 -0.0738838 0)
(0 -0.0671952 0)
(0 -0.0599369 0)
(0 -0.0739048 0)
(0 -0.0739118 0)
(0 -0.0733206 0)
(0 -0.0733404 0)
(0 -0.0565196 0)
(0 -0.0735893 0)
(0 -0.0739118 0)
(0 -0.073912 0)
(0 -0.0606851 0)
(0 -0.0739125 0)
(0 -0.0610377 0)
(0 -0.0674198 0)
(0 -0.0735213 0)
(0 -0.0721732 0)
(0 -0.0453349 0)
(0 -0.0715501 0)
(0 -0.0739119 0)
(0 -0.0738758 0)
(0 -0.073912 0)
(0 -0.0708167 0)
(0 -0.0578154 0)
(0 -0.0739115 0)
(0 -0.027986 0)
(0 -0.0738503 0)
(0 -0.0722805 0)
(0 -0.0729155 0)
(0 -0.0730471 0)
(0 -0.0739106 0)
(0 -0.0739125 0)
(0 -0.0721477 0)
(0 -0.0739124 0)
(0 -0.0698658 0)
(0 -0.073686 0)
(0 -0.0739116 0)
(0 -0.0739124 0)
(0 -0.067203 0)
(0 -0.0623002 0)
(0 -0.0737558 0)
(0 -0.073912 0)
(0 -0.0738832 0)
(0 -0.0735734 0)
(0 -0.0739106 0)
(0 -0.0722245 0)
(0 -0.0729563 0)
(0 -0.0739116 0)
(0 -0.0739081 0)
(0 -0.0738724 0)
(0 -0.0739119 0)
(0 -0.0738697 0)
(0 -0.0739114 0)
(0 -0.068944 0)
(0 -0.0738951 0)
(0 -0.0739 0)
(0 -0.0421141 0)
(0 -0.0739124 0)
(0 -0.0739097 0)
(0 -0.0731161 0)
(0 -0.0734784 0)
(0 -0.0661373 0)
(0 -0.0739124 0)
(0 -0.0737809 0)
(0 -0.0739105 0)
(0 -0.0644303 0)
(0 -0.00353639 0)
(0 -0.0728298 0)
(0 -0.0735083 0)
(0 -0.0344315 0)
(0 -0.0739121 0)
(0 -0.00426723 0)
(0 -0.0738665 0)
(0 -0.0718534 0)
(0 -0.0736951 0)
(0 -0.0654677 0)
(0 -0.0582009 0)
(0 -0.0736146 0)
(0 -0.0739125 0)
(0 -0.0735013 0)
(0 -0.0739122 0)
(0 -0.0730562 0)
(0 -0.0420617 0)
(0 -0.058239 0)
(0 -0.073654 0)
(0 -0.0698541 0)
(0 -0.0738027 0)
(0 -0.071435 0)
(0 -0.0735278 0)
(0 -0.0738935 0)
(0 -0.0282191 0)
(0 -0.0739125 0)
(0 -0.00907339 0)
(0 -0.0737801 0)
(0 -0.0739124 0)
(0 -0.0739115 0)
(0 -0.0731406 0)
(0 -0.07391 0)
(0 -0.0738293 0)
(0 -0.0738809 0)
(0 -0.0739099 0)
(0 -0.062416 0)
(0 -0.0739084 0)
(0 -0.0732537 0)
(0 -0.0729507 0)
(0 -0.0739124 0)
(0 -0.0738983 0)
(0 -0.0551078 0)
(0 -0.0737942 0)
(0 -0.0659476 0)
(0 -0.0739117 0)
(0 -0.0739124 0)
(0 -0.0680383 0)
(0 -0.0738486 0)
(0 -0.073909 0)
(0 -0.00837193 0)
(0 -0.0112945 0)
(0 -0.0736771 0)
(0 -0.0739125 0)
(0 -0.0739048 0)
(0 -0.0675719 0)
(0 -0.0738417 0)
(0 -0.07013 0)
(0 -0.0594355 0)
(0 -0.0738944 0)
(0 -0.0738458 0)
(0 -0.0738602 0)
(0 -0.0411509 0)
(0 -0.0738206 0)
(0 -0.0737334 0)
(0 -0.0736001 0)
(0 -0.0702237 0)
(0 -0.0711217 0)
(0 -0.0737701 0)
(0 -0.0727648 0)
(0 -0.0738332 0)
(0 -0.0735267 0)
(0 -0.0735321 0)
(0 -0.0738652 0)
(0 -0.0739096 0)
(0 -0.0738859 0)
(0 -0.0739091 0)
(0 -0.0739049 0)
(0 -0.0738483 0)
(0 -0.0739124 0)
(0 -0.0735638 0)
(0 -0.0739057 0)
(0 -0.0738448 0)
(0 -0.0629965 0)
(0 -0.0728991 0)
(0 -0.0738818 0)
(0 -0.0726043 0)
(0 -0.0535184 0)
(0 -0.0522946 0)
(0 -0.0737824 0)
(0 -0.0739124 0)
(0 -0.0723089 0)
(0 -0.0739121 0)
(0 -0.0429187 0)
(0 -0.0739056 0)
(0 -0.0738764 0)
(0 -0.0739125 0)
(0 -0.0737939 0)
(0 -0.072281 0)
(0 -0.0712137 0)
(0 -0.0739125 0)
(0 -0.0738597 0)
(0 -0.0735275 0)
(0 -0.0738918 0)
(0 -0.0691302 0)
(0 -0.0739076 0)
(0 -0.0737874 0)
(0 -0.0738669 0)
(0 -0.0730489 0)
(0 -0.0738913 0)
(0 -0.0627671 0)
(0 -0.0104374 0)
(0 -0.0715105 0)
(0 -0.0600761 0)
(0 -0.0739117 0)
(0 -0.00531374 0)
(0 -0.0738926 0)
(0 -0.0739117 0)
(0 -0.073802 0)
(0 -0.073912 0)
(0 -0.0739125 0)
(0 -0.0738706 0)
(0 -0.073884 0)
(0 -0.0731286 0)
(0 -0.0299729 0)
(0 -0.0647241 0)
(0 -0.0426242 0)
(0 -0.0577048 0)
(0 -0.00407692 0)
(0 -0.0736898 0)
(0 -0.0738535 0)
(0 -0.0737562 0)
(0 -0.0739006 0)
(0 -0.070903 0)
(0 -0.0739122 0)
(0 -0.00220945 0)
(0 -0.0739123 0)
(0 -0.0734398 0)
(0 -0.00465597 0)
(0 -0.0399345 0)
(0 -0.0739116 0)
(0 -0.0722667 0)
(0 -0.073905 0)
(0 -0.0739096 0)
(0 -0.0734241 0)
(0 -0.0736967 0)
(0 -0.0560772 0)
(0 -0.0739115 0)
(0 -0.0721278 0)
(0 -0.0711391 0)
(0 -0.0738948 0)
(0 -0.0299117 0)
(0 -0.0701472 0)
(0 -0.0618105 0)
(0 -0.0733891 0)
(0 -0.0739125 0)
(0 -0.0728399 0)
(0 -0.073055 0)
(0 -0.0738853 0)
(0 -0.0739121 0)
(0 -0.0732164 0)
(0 -0.0728002 0)
(0 -0.0739114 0)
(0 -0.0412618 0)
(0 -0.0739115 0)
(0 -0.00789823 0)
(0 -0.0704458 0)
(0 -0.0739011 0)
(0 -0.0737451 0)
(0 -0.0738371 0)
(0 -0.0737923 0)
(0 -0.0735192 0)
(0 -0.0194012 0)
(0 -0.00205448 0)
(0 -0.073706 0)
(0 -0.0690927 0)
(0 -0.0169717 0)
(0 -0.0723897 0)
(0 -0.0738853 0)
(0 -0.0279811 0)
(0 -0.0738797 0)
(0 -0.0739067 0)
(0 -0.0739037 0)
(0 -0.073787 0)
(0 -0.0739118 0)
(0 -0.0735987 0)
(0 -0.031209 0)
(0 -0.0738473 0)
(0 -0.0434061 0)
(0 -0.0722305 0)
(0 -0.0739086 0)
(0 -0.0739115 0)
(0 -0.0739085 0)
(0 -0.0739111 0)
(0 -0.0682887 0)
(0 -0.0677769 0)
(0 -0.0738161 0)
(0 -0.0709361 0)
(0 -0.0586007 0)
(0 -0.0739115 0)
(0 -0.073872 0)
(0 -0.0739125 0)
(0 -0.0737871 0)
(0 -0.0737561 0)
(0 -0.0613315 0)
(0 -0.0519186 0)
(0 -0.0739052 0)
(0 -0.0737777 0)
(0 -0.0706863 0)
(0 -0.0128535 0)
(0 -0.0738375 0)
(0 -0.0738622 0)
(0 -0.073912 0)
(0 -0.0681752 0)
(0 -0.0187403 0)
(0 -0.0739125 0)
(0 -0.0700356 0)
(0 -0.0730528 0)
(0 -0.0382568 0)
(0 -0.0739119 0)
(0 -0.00504576 0)
(0 -0.0739124 0)
(0 -0.0495589 0)
(0 -0.0738517 0)
(0 -0.0732952 0)
(0 -0.0738213 0)
(0 -0.0730843 0)
(0 -0.0640136 0)
(0 -0.0713709 0)
(0 -0.0216687 0)
(0 -0.0738916 0)
(0 -0.0701368 0)
(0 -0.0739124 0)
(0 -0.0693442 0)
(0 -0.0739044 0)
(0 -0.0739118 0)
(0 -0.0729769 0)
(0 -0.0167462 0)
(0 -0.0739124 0)
(0 -0.0739083 0)
(0 -0.0722658 0)
(0 -0.0737435 0)
(0 -0.0645082 0)
(0 -0.0739125 0)
(0 -0.0635117 0)
(0 -0.0738811 0)
(0 -0.0452549 0)
(0 -0.02257 0)
(0 -0.073904 0)
(0 -0.0730791 0)
(0 -0.0350291 0)
(0 -0.072774 0)
(0 -0.073912 0)
(0 -0.0739119 0)
(0 -0.0739094 0)
(0 -0.054028 0)
(0 -0.0739124 0)
(0 -0.0467086 0)
(0 -0.0266577 0)
(0 -0.0682401 0)
(0 -0.0155206 0)
(0 -0.0159682 0)
(0 -0.0739096 0)
(0 -0.0739089 0)
(0 -0.0671977 0)
(0 -0.00536803 0)
(0 -0.0733436 0)
(0 -0.0594708 0)
(0 -0.0739124 0)
(0 -0.0738519 0)
(0 -0.0739124 0)
(0 -0.0739119 0)
(0 -0.0713731 0)
(0 -0.0738314 0)
(0 -0.0434153 0)
(0 -0.0733694 0)
(0 -0.0738693 0)
(0 -0.0619116 0)
(0 -0.00776145 0)
(0 -0.0739017 0)
(0 -0.0739124 0)
(0 -0.0736845 0)
(0 -0.0739125 0)
(0 -0.0736507 0)
(0 -0.0452366 0)
(0 -0.0733893 0)
(0 -0.0737531 0)
(0 -0.0739124 0)
(0 -0.0729606 0)
(0 -0.0739 0)
(0 -0.0737867 0)
(0 -0.0138012 0)
(0 -0.0739108 0)
(0 -0.0739111 0)
(0 -0.0739124 0)
(0 -0.0739003 0)
(0 -0.0739043 0)
(0 -0.0718134 0)
(0 -0.0738912 0)
(0 -0.0669564 0)
(0 -0.0738972 0)
(0 -0.0725024 0)
(0 -0.00996058 0)
(0 -0.0739097 0)
(0 -0.0707403 0)
(0 -0.015409 0)
(0 -0.0672125 0)
(0 -0.0705784 0)
(0 -0.073912 0)
(0 -0.073881 0)
(0 -0.0504825 0)
(0 -0.0734133 0)
(0 -0.0739124 0)
(0 -0.0707129 0)
(0 -0.0739125 0)
(0 -0.0712483 0)
(0 -0.0737366 0)
(0 -0.0739119 0)
(0 -0.0327925 0)
(0 -0.0738866 0)
(0 -0.072942 0)
(0 -0.0730471 0)
(0 -0.0739122 0)
(0 -0.070757 0)
(0 -0.0738846 0)
(0 -0.0736272 0)
(0 -0.0739118 0)
(0 -0.0663496 0)
(0 -0.0739124 0)
(0 -0.0728369 0)
(0 -0.0739124 0)
(0 -0.0739125 0)
(0 -0.0739125 0)
(0 -0.0734266 0)
(0 -0.0643248 0)
(0 -0.0684822 0)
(0 -0.00859556 0)
(0 -0.0731735 0)
(0 -0.0409172 0)
(0 -0.0739121 0)
(0 -0.0729779 0)
(0 -0.0730441 0)
(0 -0.0731675 0)
(0 -0.0716949 0)
(0 -0.0532112 0)
(0 -0.0718363 0)
(0 -0.072651 0)
(0 -0.0703446 0)
(0 -0.072661 0)
(0 -0.0739105 0)
(0 -0.0738906 0)
(0 -0.0727515 0)
(0 -0.073635 0)
(0 -0.0739094 0)
(0 -0.070306 0)
(0 -0.0739121 0)
(0 -0.039999 0)
(0 -0.0733014 0)
(0 -0.0702514 0)
(0 -0.0637112 0)
(0 -0.0735968 0)
(0 -0.0458152 0)
(0 -0.0500656 0)
(0 -0.0737408 0)
(0 -0.063362 0)
(0 -0.0738831 0)
(0 -0.0695787 0)
(0 -0.0739124 0)
(0 -0.0738972 0)
(0 -0.0738728 0)
(0 -0.0738801 0)
(0 -0.0658104 0)
(0 -0.0739121 0)
(0 -0.0738554 0)
(0 -0.0137461 0)
(0 -0.0726721 0)
(0 -0.0699014 0)
(0 -0.073912 0)
(0 -0.0712517 0)
(0 -0.0737321 0)
(0 -0.0739005 0)
(0 -0.0739125 0)
(0 -0.0737829 0)
(0 -0.0668869 0)
(0 -0.0739109 0)
(0 -0.0738992 0)
(0 -0.0739053 0)
(0 -0.0729261 0)
(0 -0.0426285 0)
(0 -0.0602806 0)
(0 -0.073683 0)
(0 -0.063642 0)
(0 -0.0739125 0)
(0 -0.0738542 0)
(0 -0.0244845 0)
(0 -0.0738784 0)
(0 -0.073884 0)
(0 -0.0612854 0)
(0 -0.0739102 0)
(0 -0.0739124 0)
(0 -0.0738692 0)
(0 -0.0695738 0)
(0 -0.0739107 0)
(0 -0.0736798 0)
(0 -0.037114 0)
(0 -0.0739125 0)
(0 -0.0727343 0)
(0 -0.0605825 0)
(0 -0.0586137 0)
(0 -0.0728195 0)
(0 -0.073199 0)
(0 -0.073912 0)
(0 -0.0739118 0)
(0 -0.0732915 0)
(0 -0.0739118 0)
(0 -0.0729847 0)
(0 -0.0607802 0)
(0 -0.0738664 0)
(0 -0.0515915 0)
(0 -0.0739027 0)
(0 -0.0612443 0)
(0 -0.0214296 0)
(0 -0.0718051 0)
(0 -0.0689222 0)
(0 -0.0739117 0)
(0 -0.0739125 0)
(0 -0.0738819 0)
(0 -0.0739125 0)
(0 -0.0739097 0)
(0 -0.0731783 0)
(0 -0.064744 0)
(0 -0.0695316 0)
(0 -0.073887 0)
(0 -0.0608442 0)
(0 -0.00647225 0)
(0 -0.0734784 0)
(0 -0.0739023 0)
(0 -0.0738863 0)
(0 -0.0115037 0)
(0 -0.0734193 0)
(0 -0.0730955 0)
(0 -0.0738407 0)
(0 -0.0739124 0)
(0 -0.0567174 0)
(0 -0.044303 0)
(0 -0.0700904 0)
(0 -0.0739014 0)
(0 -0.0723265 0)
(0 -0.0739118 0)
(0 -0.0711158 0)
(0 -0.0172955 0)
(0 -0.0607934 0)
(0 -0.0590294 0)
(0 -0.0719684 0)
(0 -0.0738687 0)
(0 -0.0739112 0)
(0 -0.0739118 0)
(0 -0.0731856 0)
(0 -0.0457369 0)
(0 -0.0739067 0)
(0 -0.0671913 0)
(0 -0.0739029 0)
(0 -0.0739124 0)
(0 -0.0733178 0)
(0 -0.0739124 0)
(0 -0.0739118 0)
(0 -0.073912 0)
(0 -0.0735364 0)
(0 -0.0729214 0)
(0 -0.0739123 0)
(0 -0.0728356 0)
(0 -0.0734387 0)
(0 -0.0738223 0)
(0 -0.0738829 0)
(0 -0.0690262 0)
(0 -0.0739118 0)
(0 -0.0612767 0)
(0 -0.0739082 0)
(0 -0.0739023 0)
(0 -0.0402124 0)
(0 -0.071901 0)
(0 -0.0736203 0)
(0 -0.0738858 0)
(0 -0.0730396 0)
(0 -0.0162157 0)
(0 -0.0723602 0)
(0 -0.0712285 0)
(0 -0.0717071 0)
(0 -0.0739092 0)
(0 -0.0328664 0)
(0 -0.0739088 0)
(0 -0.0739125 0)
(0 -0.0618871 0)
(0 -0.0728464 0)
(0 -0.0731835 0)
(0 -0.041007 0)
(0 -0.0739116 0)
(0 -0.0739124 0)
(0 -0.073912 0)
(0 -0.0739124 0)
(0 -0.045339 0)
(0 -0.0719685 0)
(0 -0.0724385 0)
(0 -0.0685012 0)
(0 -0.0738825 0)
(0 -0.0730657 0)
(0 -0.0123523 0)
(0 -0.073635 0)
(0 -0.0726612 0)
(0 -0.073906 0)
(0 -0.0733172 0)
(0 -0.0739124 0)
(0 -0.0710904 0)
(0 -0.0708932 0)
(0 -0.0737748 0)
(0 -0.0737794 0)
(0 -0.0737094 0)
(0 -0.0610952 0)
(0 -0.0739124 0)
(0 -0.0739124 0)
(0 -0.0739117 0)
(0 -0.0739124 0)
(0 -0.0739087 0)
(0 -0.0739119 0)
(0 -0.0739124 0)
(0 -0.0604665 0)
(0 -0.0572412 0)
(0 -0.0646226 0)
(0 -0.0738818 0)
(0 -0.0733572 0)
(0 -0.0737087 0)
(0 -0.0739125 0)
(0 -0.0659714 0)
(0 -0.0270646 0)
(0 -0.0569265 0)
(0 -0.073875 0)
(0 -0.0429394 0)
(0 -0.0721171 0)
(0 -0.0716154 0)
(0 -0.0739064 0)
(0 -0.0708987 0)
(0 -0.0432087 0)
(0 -0.0443874 0)
(0 -0.063665 0)
(0 -0.00576627 0)
(0 -0.0734958 0)
(0 -0.073881 0)
(0 -0.0734143 0)
(0 -0.073908 0)
(0 -0.0547643 0)
(0 -0.0595126 0)
(0 -0.0739119 0)
(0 -0.0739116 0)
(0 -0.0739124 0)
(0 -0.0739042 0)
(0 -0.0737596 0)
(0 -0.0739053 0)
(0 -0.040555 0)
(0 -0.0737636 0)
(0 -0.0709165 0)
(0 -0.0486222 0)
(0 -0.0707651 0)
(0 -0.0739124 0)
(0 -0.0697019 0)
(0 -0.0737857 0)
(0 -0.0739043 0)
(0 -0.0666458 0)
(0 -0.0632441 0)
(0 -0.0727735 0)
(0 -0.0738714 0)
(0 -0.00510879 0)
(0 -0.0739063 0)
(0 -0.0642762 0)
(0 -0.0738777 0)
(0 -0.0408458 0)
(0 -0.0671691 0)
(0 -0.072299 0)
(0 -0.073867 0)
(0 -0.0665221 0)
(0 -0.0738946 0)
(0 -0.0739122 0)
(0 -0.0738701 0)
(0 -0.0739113 0)
(0 -0.0626681 0)
(0 -0.0739124 0)
(0 -0.073895 0)
(0 -0.0512596 0)
(0 -0.0739023 0)
(0 -0.0683075 0)
(0 -0.0736954 0)
(0 -0.0678143 0)
(0 -0.0650441 0)
(0 -0.0354105 0)
(0 -0.0587833 0)
(0 -0.0692153 0)
(0 -0.0729438 0)
(0 -0.0736759 0)
(0 -0.0672791 0)
(0 -0.0463204 0)
(0 -0.0738304 0)
(0 -0.0548134 0)
(0 -0.0739086 0)
(0 -0.0409258 0)
(0 -0.0729873 0)
(0 -0.0729444 0)
(0 -0.0739125 0)
(0 -0.0738991 0)
(0 -0.0353767 0)
(0 -0.0738716 0)
(0 -0.0353884 0)
(0 -0.0725652 0)
(0 -0.0737632 0)
(0 -0.0739034 0)
(0 -0.0734614 0)
(0 -0.00481216 0)
(0 -0.073814 0)
(0 -0.0738512 0)
(0 -0.0737514 0)
(0 -0.0738951 0)
(0 -0.0735036 0)
(0 -0.0738458 0)
(0 -0.0735821 0)
(0 -0.0736825 0)
(0 -0.0707486 0)
(0 -0.0599856 0)
(0 -0.0739036 0)
(0 -0.0739124 0)
(0 -0.0717761 0)
(0 -0.0376766 0)
(0 -0.0739124 0)
(0 -0.0451536 0)
(0 -0.0733733 0)
(0 -0.050575 0)
(0 -0.0737862 0)
(0 -0.0739031 0)
(0 -0.0428311 0)
(0 -0.0739124 0)
(0 -0.0721183 0)
(0 -0.015955 0)
(0 -0.0738597 0)
(0 -0.0138667 0)
(0 -0.0736754 0)
(0 -0.0739123 0)
(0 -0.0733378 0)
(0 -0.0739043 0)
(0 -0.0364279 0)
(0 -0.00648371 0)
(0 -0.0737197 0)
(0 -0.0182078 0)
(0 -0.0148998 0)
(0 -0.0722941 0)
(0 -0.0727535 0)
(0 -0.0736799 0)
(0 -0.0737935 0)
(0 -0.0664216 0)
(0 -0.0734422 0)
(0 -0.059076 0)
(0 -0.0436121 0)
(0 -0.0209536 0)
(0 -0.0505279 0)
(0 -0.0739017 0)
(0 -0.0619749 0)
(0 -0.0713546 0)
(0 -0.0738862 0)
(0 -0.0443141 0)
(0 -0.0376713 0)
(0 -0.0739116 0)
(0 -0.0141604 0)
(0 -0.0739124 0)
(0 -0.0699465 0)
(0 -0.0739111 0)
(0 -0.0738772 0)
(0 -0.073779 0)
(0 -0.0739047 0)
(0 -0.0736975 0)
(0 -0.0739102 0)
(0 -0.0680674 0)
(0 -0.0738655 0)
(0 -0.0725439 0)
(0 -0.059405 0)
(0 -0.0593189 0)
(0 -0.0713554 0)
(0 -0.0728734 0)
(0 -0.0631553 0)
(0 -0.0736545 0)
(0 -0.0431543 0)
(0 -0.0708211 0)
(0 -0.0739124 0)
(0 -0.0739124 0)
(0 -0.0739104 0)
(0 -0.0706568 0)
(0 -0.0737575 0)
(0 -0.0739124 0)
(0 -0.0739121 0)
(0 -0.0291549 0)
(0 -0.072015 0)
(0 -0.0739095 0)
(0 -0.0665397 0)
(0 -0.0733879 0)
(0 -0.0739032 0)
(0 -0.0739117 0)
(0 -0.0721447 0)
(0 -0.0733534 0)
(0 -0.0703862 0)
(0 -0.0738857 0)
(0 -0.00419915 0)
(0 -0.0735184 0)
(0 -0.0739018 0)
(0 -0.0676559 0)
(0 -0.0063303 0)
(0 -0.0739084 0)
(0 -0.0734627 0)
(0 -0.0738842 0)
(0 -0.0739112 0)
(0 -0.0737857 0)
(0 -0.0694413 0)
(0 -0.0431589 0)
(0 -0.0674427 0)
(0 -0.0739124 0)
(0 -0.0738988 0)
(0 -0.0739068 0)
(0 -0.0736447 0)
(0 -0.0607194 0)
(0 -0.0739124 0)
(0 -0.0434758 0)
(0 -0.0738554 0)
(0 -0.0728417 0)
(0 -0.0696717 0)
(0 -0.0733943 0)
(0 -0.046488 0)
(0 -0.07391 0)
(0 -0.0739095 0)
(0 -0.0561215 0)
(0 -0.073685 0)
(0 -0.0733869 0)
(0 -0.0739033 0)
(0 -0.0734686 0)
(0 -0.0735644 0)
(0 -0.0738835 0)
(0 -0.0729589 0)
(0 -0.0738897 0)
(0 -0.0735996 0)
(0 -0.042812 0)
(0 -0.0730536 0)
(0 -0.0738606 0)
(0 -0.0739073 0)
(0 -0.04633 0)
(0 -0.0738989 0)
(0 -0.0735054 0)
(0 -0.0735919 0)
(0 -0.00532715 0)
(0 -0.07391 0)
(0 -0.0719568 0)
(0 -0.0715888 0)
(0 -0.0588354 0)
(0 -0.0734005 0)
(0 -0.073355 0)
(0 -0.073785 0)
(0 -0.00146083 0)
(0 -0.0701783 0)
(0 -0.0736763 0)
(0 -0.0739125 0)
(0 -0.0736825 0)
(0 -0.0340468 0)
(0 -0.0701085 0)
(0 -0.0730302 0)
(0 -0.0738734 0)
(0 -0.0292352 0)
(0 -0.0737915 0)
(0 -0.0739048 0)
(0 -0.0736282 0)
(0 -0.0739112 0)
(0 -0.0731587 0)
(0 -0.0739125 0)
(0 -0.0738845 0)
(0 -0.0610097 0)
(0 -0.0738998 0)
(0 -0.00123584 0)
(0 -0.0721322 0)
(0 -0.0728915 0)
(0 -0.0730832 0)
(0 -0.0737966 0)
(0 -0.0734013 0)
(0 -0.0735756 0)
(0 -0.0735812 0)
(0 -0.0729371 0)
(0 -0.0719253 0)
(0 -0.0416929 0)
(0 -0.0738572 0)
(0 -0.0717108 0)
(0 -0.073128 0)
(0 -0.0738985 0)
(0 -0.0724243 0)
(0 -0.0731455 0)
(0 -0.0532849 0)
(0 -0.0739124 0)
(0 -0.073777 0)
(0 -0.0662699 0)
(0 -0.0713908 0)
(0 -0.0712807 0)
(0 -0.0739125 0)
(0 -0.0738507 0)
(0 -0.0728883 0)
(0 -0.0739114 0)
(0 -0.0738943 0)
(0 -0.0738993 0)
(0 -0.073781 0)
(0 -0.0738877 0)
(0 -0.0503358 0)
(0 -0.073904 0)
(0 -0.00798566 0)
(0 -0.0728804 0)
(0 -0.0739048 0)
(0 -0.0739116 0)
(0 -0.0738869 0)
(0 -0.0739028 0)
(0 -0.0405438 0)
(0 -0.0739125 0)
(0 -0.0498477 0)
(0 -0.0737428 0)
(0 -0.072399 0)
(0 -0.0739044 0)
(0 -0.0739099 0)
(0 -0.0714919 0)
(0 -0.0133076 0)
(0 -0.0738848 0)
(0 -0.0737144 0)
(0 -0.051309 0)
(0 -0.0739124 0)
(0 -0.0520811 0)
(0 -0.0716941 0)
(0 -0.0717401 0)
(0 -0.0677474 0)
(0 -0.0729485 0)
(0 -0.0714243 0)
(0 -0.0616313 0)
(0 -0.073278 0)
(0 -0.0738895 0)
(0 -0.0733087 0)
(0 -0.0736717 0)
(0 -0.0517464 0)
(0 -0.0739125 0)
(0 -0.0739114 0)
(0 -0.0214742 0)
(0 -0.0738884 0)
(0 -0.0723605 0)
(0 -0.0732116 0)
(0 -0.0739074 0)
(0 -0.022435 0)
(0 -0.0703201 0)
(0 -0.0730271 0)
(0 -0.0739124 0)
(0 -0.0501225 0)
(0 -0.0145207 0)
(0 -0.0733467 0)
(0 -0.0739048 0)
(0 -0.0217363 0)
(0 -0.0733212 0)
(0 -0.0733455 0)
(0 -0.0738982 0)
(0 -0.0735003 0)
(0 -0.0733417 0)
(0 -0.0738771 0)
(0 -0.0508268 0)
(0 -0.0738859 0)
(0 -0.035502 0)
(0 -0.0739125 0)
(0 -0.0729142 0)
(0 -0.0555123 0)
(0 -0.0719612 0)
(0 -0.0737921 0)
(0 -0.0174662 0)
(0 -0.0662341 0)
(0 -0.0738449 0)
(0 -0.0739101 0)
(0 -0.066927 0)
(0 -0.0739125 0)
(0 -0.019547 0)
(0 -0.0375694 0)
(0 -0.073674 0)
(0 -0.0454631 0)
(0 -0.0618588 0)
(0 -0.073909 0)
(0 -0.00682902 0)
(0 -0.073327 0)
(0 -0.0738552 0)
(0 -0.0739119 0)
(0 -0.0738968 0)
(0 -0.0604339 0)
(0 -0.071953 0)
(0 -0.0730543 0)
(0 -0.0320759 0)
(0 -0.0639217 0)
(0 -0.0427922 0)
(0 -0.0739015 0)
(0 -0.0221983 0)
(0 -0.073888 0)
(0 -0.0738231 0)
(0 -0.00753719 0)
(0 -0.0555784 0)
(0 -0.0728591 0)
(0 -0.0738241 0)
(0 -0.0738877 0)
(0 -0.073766 0)
(0 -0.0736788 0)
(0 -0.071645 0)
(0 -0.0739121 0)
(0 -0.073776 0)
(0 -0.0725297 0)
(0 -0.0732917 0)
(0 -0.0737561 0)
(0 -0.073784 0)
(0 -0.0739121 0)
(0 -0.0731273 0)
(0 -0.0739124 0)
(0 -0.0739042 0)
(0 -0.0739122 0)
(0 -0.0713163 0)
(0 -0.0640521 0)
(0 -0.07332 0)
(0 -0.0735187 0)
(0 -0.0595675 0)
(0 -0.0670841 0)
(0 -0.0738644 0)
(0 -0.0102622 0)
(0 -0.0682487 0)
(0 -0.0466841 0)
(0 -0.0425689 0)
(0 -0.0701002 0)
(0 -0.0651364 0)
(0 -0.0739124 0)
(0 -0.0147161 0)
(0 -0.0739039 0)
(0 -0.0320127 0)
(0 -0.0738265 0)
(0 -0.0691431 0)
(0 -0.0738278 0)
(0 -0.0738023 0)
(0 -0.0643033 0)
(0 -0.0739092 0)
(0 -0.0719015 0)
(0 -0.0171964 0)
(0 -0.0732732 0)
(0 -0.0584596 0)
(0 -0.0732542 0)
(0 -0.0640157 0)
(0 -0.0739108 0)
(0 -0.0717787 0)
(0 -0.0733833 0)
(0 -0.0738788 0)
(0 -0.0739088 0)
(0 -0.0729287 0)
(0 -0.0738894 0)
(0 -0.0738976 0)
(0 -0.0736465 0)
(0 -0.0657025 0)
(0 -0.0696675 0)
(0 -0.0738567 0)
(0 -0.0736763 0)
(0 -0.0739125 0)
(0 -0.0539656 0)
(0 -0.0739121 0)
(0 -0.0668846 0)
(0 -0.073865 0)
(0 -0.0739095 0)
(0 -0.0732812 0)
(0 -0.0739037 0)
(0 -0.0722611 0)
(0 -0.0729851 0)
(0 -0.0722229 0)
(0 -0.0739098 0)
(0 -0.0729871 0)
(0 -0.0076509 0)
(0 -0.0736262 0)
(0 -0.0738414 0)
(0 -0.0708994 0)
(0 -0.0543994 0)
(0 -0.0175433 0)
(0 -0.0739119 0)
(0 -0.0117466 0)
(0 -0.0728555 0)
(0 -0.0739116 0)
(0 -0.0726347 0)
(0 -0.0616429 0)
(0 -0.0736785 0)
(0 -0.0720997 0)
(0 -0.0739069 0)
(0 -0.0291157 0)
(0 -0.0609185 0)
(0 -0.0414482 0)
(0 -0.072707 0)
(0 -0.0679089 0)
(0 -0.0659307 0)
(0 -0.0736445 0)
(0 -0.0739119 0)
(0 -0.060503 0)
(0 -0.045554 0)
(0 -0.0739061 0)
(0 -0.0660387 0)
(0 -0.0739124 0)
(0 -0.0697888 0)
(0 -0.0739104 0)
(0 -0.0593228 0)
(0 -0.0720331 0)
(0 -0.0371594 0)
(0 -0.0739124 0)
(0 -0.0739112 0)
(0 -0.0731605 0)
(0 -0.0738254 0)
(0 -0.0729092 0)
(0 -0.0629508 0)
(0 -0.0427292 0)
(0 -0.0739106 0)
(0 -0.0087681 0)
(0 -0.0737389 0)
(0 -0.00888396 0)
(0 -0.0732501 0)
(0 -0.0259135 0)
(0 -0.0739077 0)
(0 -0.0424207 0)
(0 -0.0733782 0)
(0 -0.00710594 0)
(0 -0.0738968 0)
(0 -0.0739001 0)
(0 -0.0570769 0)
(0 -0.0735966 0)
(0 -0.0739095 0)
(0 -0.0736737 0)
(0 -0.0739056 0)
(0 -0.0739031 0)
(0 -0.0738747 0)
(0 -0.0714425 0)
(0 -0.0730929 0)
(0 -0.073787 0)
(0 -0.0739012 0)
(0 -0.0654045 0)
(0 -0.0731103 0)
(0 -0.0730922 0)
(0 -0.0645352 0)
(0 -0.0739124 0)
(0 -0.0739119 0)
(0 -0.0736877 0)
(0 -0.0738519 0)
(0 -0.0738844 0)
(0 -0.0732063 0)
(0 -0.0739114 0)
(0 -0.0591187 0)
(0 -0.0563151 0)
(0 -0.0737988 0)
(0 -0.0739089 0)
(0 -0.0738711 0)
(0 -0.0738515 0)
(0 -0.0738986 0)
(0 -0.0419418 0)
(0 -0.0739098 0)
(0 -0.0739124 0)
(0 -0.0739092 0)
(0 -0.011772 0)
(0 -0.0739124 0)
(0 -0.0739119 0)
(0 -0.0739015 0)
(0 -0.0739114 0)
(0 -0.0739123 0)
(0 -0.0737526 0)
(0 -0.0729147 0)
(0 -0.0738579 0)
(0 -0.0725943 0)
(0 -0.0639454 0)
(0 -0.0738988 0)
(0 -0.0737776 0)
(0 -0.040811 0)
(0 -0.0739125 0)
(0 -0.0236269 0)
(0 -0.0730653 0)
(0 -0.0733551 0)
(0 -0.0728187 0)
(0 -0.073898 0)
(0 -0.0735035 0)
(0 -0.0739125 0)
(0 -0.0733488 0)
(0 -0.07274 0)
(0 -0.0739029 0)
(0 -0.0739117 0)
(0 -0.0738411 0)
(0 -0.0689924 0)
(0 -0.0725942 0)
(0 -0.0737097 0)
(0 -0.0737517 0)
(0 -0.0359718 0)
(0 -0.0735089 0)
(0 -0.0738019 0)
(0 -0.0738442 0)
(0 -0.0630447 0)
(0 -0.0738655 0)
(0 -0.0720038 0)
(0 -0.0736362 0)
(0 -0.0739075 0)
(0 -0.0738907 0)
(0 -0.0710787 0)
(0 -0.0738481 0)
(0 -0.0739124 0)
(0 -0.067526 0)
(0 -0.0703763 0)
(0 -0.0739099 0)
(0 -0.0738838 0)
(0 -0.0716349 0)
(0 -0.0715368 0)
(0 -0.0395961 0)
(0 -0.073775 0)
(0 -0.0715657 0)
(0 -0.0739116 0)
(0 -0.0737968 0)
(0 -0.0697377 0)
(0 -0.0074235 0)
(0 -0.0738393 0)
(0 -0.0730255 0)
(0 -0.0738947 0)
(0 -0.0739124 0)
(0 -0.0583871 0)
(0 -0.0494638 0)
(0 -0.0727167 0)
(0 -0.018341 0)
(0 -0.0713121 0)