/*--------------------------------*- C++ -*----------------------------------*\
| =========                 |                                                 |
| \\      /  F ield         | OpenFOAM: The Open Source CFD Toolbox           |
|  \\    /   O peration     | Version:  v2012                                 |
|   \\  /    A nd           | Website:  www.openfoam.com                      |
|    \\/     M anipulation  |                                                 |
\*---------------------------------------------------------------------------*/
FoamFile
{
    version     2.0;
    format      ascii;
    class       surfaceScalarField;
    location    "450";
    object      meshPhi;
}
// * * * * * * * * * * * * * * * * * * * * * * * * * * * * * * * * * * * * * //

dimensions      [0 3 -1 0 0 0 0];
oriented        oriented;


internalField   nonuniform List<scalar> 
20580
(
0.000174545
-0.00019523
2.06687e-05
0.000432188
-0.000191273
-0.000241575
1.59158e-05
0.000415293
-9.61805e-05
0.0001261
-2.99194e-05
-3.24126e-05
-2.42562e-05
3.64637e-05
-2.50875e-05
-0.000362691
0.000387133
0.00027291
-0.000427068
-6.60373e-05
-3.89598e-05
6.86465e-05
4.82694e-05
5.92849e-05
-0.000107554
0.000110955
-0.000615947
0.000503429
-0.000166381
0.00028469
-0.000118379
8.09591e-05
0.000330897
-0.000417965
-0.000496088
9.26431e-05
0.000402738
3.718e-05
-9.53912e-05
5.82112e-05
0.000174396
-0.000327092
0.000152507
0.000156594
2.79232e-05
-0.00018453
0.00012159
-9.17406e-05
-2.98498e-05
0.000579672
-0.000178718
-0.000404595
0.000102543
6.68314e-05
-0.000169381
-5.32229e-05
0.000227749
-0.000359763
0.000139367
0.000220215
-0.000144569
-0.000262678
0.000406684
0.000125731
-6.03608e-05
-6.53709e-05
-2.29721e-05
-8.59441e-07
1.96946e-05
0.000149986
-3.53647e-06
-0.000146453
0.000280741
-0.00017127
-0.000109525
0.000181662
-0.000120891
-6.07755e-05
5.67581e-05
9.18817e-05
-0.000148643
0.000131214
-7.155e-05
-5.96647e-05
-0.000119216
-0.000422907
0.000531858
1.71249e-05
-0.000113139
9.60139e-05
-0.000192332
0.00046424
-0.000178357
-3.50712e-05
0.00021341
-5.52382e-05
-7.33087e-05
0.000128546
0.000199949
6.54798e-05
-0.000265533
-0.000126206
0.000149578
-2.33719e-05
-3.65083e-09
-2.48176e-05
0.000168192
-9.96008e-05
-6.85934e-05
-0.000100284
-2.85962e-05
0.000128879
-0.000582588
0.000464389
0.000115987
-0.000106294
0.000134238
-2.79443e-05
5.90481e-05
7.21661e-05
6.42427e-05
3.60548e-05
0.000193498
-0.000156241
-3.72626e-05
9.31788e-05
2.73917e-05
-0.000120571
-0.00011418
-0.000425763
0.000534667
-8.54135e-05
0.000159815
6.14019e-05
-0.000158358
9.69443e-05
-0.000569412
0.000249625
0.000318576
-2.43281e-05
-0.000472193
7.37168e-05
2.65807e-05
-0.000100297
-0.000589627
0.000171742
0.000417194
-4.80816e-05
0.000204662
0.000374672
-0.000285733
-8.9242e-05
-7.62749e-05
0.000124101
-4.78262e-05
-0.000411796
-0.000172409
-0.000191268
1.28946e-05
-7.038e-06
-9.92566e-05
0.000187986
-0.000101617
-8.63736e-05
-0.000108085
-8.0118e-06
0.000116096
-0.000330814
0.00040521
0.000126816
5.4841e-05
-0.000547247
0.000564134
-1.80746e-05
-0.00024137
-0.000329008
-0.000187934
8.43738e-05
0.000103553
-0.000117355
-7.05846e-05
-1.37203e-05
-9.43644e-05
-3.13981e-05
0.000170127
-0.000201765
-0.000341571
0.000540888
0.000120619
-0.000102867
-1.77523e-05
6.96028e-05
-0.000104102
3.44993e-05
0.00016558
0.000105327
-0.000271018
0.000587282
-0.000393184
-0.000195871
9.44665e-05
-0.000102478
-0.000161425
0.000350785
-0.000189623
-0.000201683
-0.000234286
0.000435195
2.70415e-05
9.45489e-05
0.000623943
-0.000106733
-0.000535614
-2.41442e-05
0.000174126
-0.000107256
0.000587893
-0.000486655
0.000299474
-0.000503577
0.000168642
3.86286e-06
-0.000172513
0.000353871
-0.000154057
-9.21963e-05
-2.45064e-05
0.000116703
-1.90604e-05
0.000113527
-7.90891e-05
-5.85662e-05
0.000137655
-0.000389094
0.000244027
2.87125e-05
-9.88011e-05
7.00887e-05
-0.000533494
0.000519899
1.136e-05
9.56315e-05
-7.85068e-05
-8.72405e-05
-0.00050276
0.000214772
-0.000408008
5.67051e-05
4.35923e-05
3.27095e-05
-0.000111799
0.000132999
-2.51451e-05
-0.000107855
-0.000126062
0.000175739
-4.96832e-05
0.000778516
-0.000318918
-0.000464288
-0.00011708
-0.000100892
0.000217958
6.12952e-05
4.01006e-05
-0.000101396
0.000220084
-0.000115009
-0.000105091
6.49091e-05
-0.000182002
9.40685e-05
-0.000258327
0.000164236
0.000245426
-3.5447e-05
-0.000210014
-0.000526246
0.000595459
-7.03825e-05
0.000206376
-0.000527536
0.000315995
0.000312625
-4.37876e-05
-0.000268946
0.000590027
-0.000389562
-2.72014e-05
9.68041e-05
0.000419395
-0.000205582
0.0001396
0.000436213
0.000387974
-0.000143893
-0.000244326
0.000479018
-0.000598949
0.000172152
3.87898e-06
-0.000176044
-0.000259589
0.000177847
8.16851e-05
0.00012764
6.79908e-05
-0.000195648
0.00025551
0.000118793
0.000575362
-0.000244844
-0.000343208
5.18715e-05
-0.000155558
-8.64653e-05
-9.7153e-06
2.63214e-05
9.42972e-05
0.00019663
-3.86453e-05
-0.000157995
-0.000632981
5.41854e-05
0.000571785
0.000327875
0.000109613
-0.000439319
-9.48397e-05
0.000124786
-2.99461e-05
0.00019196
-2.30287e-05
-0.00016894
-0.000178321
1.29171e-05
0.000165401
0.000225627
0.000547836
-0.000267468
0.000189233
7.81637e-05
6.9699e-05
-0.000127025
5.73257e-05
0.000291443
-0.000271518
-2.00345e-05
0.000143851
-0.000407041
-0.000369265
-3.02495e-05
0.000399223
8.4286e-05
8.39026e-05
7.70462e-05
-0.000132285
-0.000243096
7.6656e-05
0.000127994
-5.99476e-05
-6.80463e-05
0.000181948
4.0091e-05
-9.86573e-05
0.000311467
-0.000124225
-0.000187286
-0.000197399
0.000338731
-0.000141458
-3.46518e-05
0.000203285
-9.59166e-05
-0.000348112
0.000443347
-0.000588251
5.30277e-05
1.9763e-05
-0.000152854
0.000133083
0.000175832
-9.45088e-05
-8.13258e-05
0.000486975
-0.000262654
-0.000225125
5.33481e-05
0.000551725
-8.04297e-05
4.07043e-05
6.42275e-05
-0.000104932
-0.000218489
-4.90275e-05
0.000168578
-0.000103679
-5.35617e-05
0.000225696
-0.000173569
-8.60692e-05
-8.97198e-05
-0.000100221
0.000189933
-0.000395326
0.000561948
-0.000167208
0.000601309
-0.000514796
-8.72222e-05
0.000426349
-0.000452906
1.83866e-05
-2.2524e-06
-9.80314e-05
1.43426e-05
-0.000195296
0.000180854
0.000495342
-0.000263661
-0.000232587
-5.24766e-05
4.7872e-05
-1.11914e-06
-9.81842e-05
-3.68674e-05
0.000135051
3.54412e-06
0.000308963
0.000199077
-0.000137691
0.000102496
-6.53164e-05
9.45959e-05
-0.000113871
1.92749e-05
-4.40874e-05
0.000138683
-4.11149e-05
0.000114832
0.000254455
0.000133246
7.32846e-05
5.91162e-05
-0.000132402
-4.50101e-05
-0.000340846
0.00037941
0.00010939
0.000448775
-0.000115851
-0.000156058
0.000271833
2.55169e-05
-6.19323e-05
2.09436e-05
1.23104e-05
0.000120689
-0.000131364
0.000181349
-4.99905e-05
0.000155693
2.33926e-05
-0.000179096
0.000522157
-0.000428067
-0.000210275
-0.000144349
0.000354365
-5.1912e-05
0.000207592
-6.367e-06
0.000198319
6.743e-05
-0.000363137
0.000130251
0.000232603
-7.37708e-05
0.000365059
3.41294e-05
6.61681e-05
9.38808e-05
-5.31765e-05
0.000149755
-0.000184842
0.000371826
-0.000318896
-5.30031e-05
0.000357961
-0.000577085
0.000218445
0.000691244
-0.000550818
-0.000148392
9.9654e-05
7.61748e-05
-0.000264819
0.000279016
-7.73616e-06
-8.7655e-05
0.000355316
-0.00038103
0.000194002
0.000292119
-7.94634e-05
-0.000136779
0.000216228
-2.03016e-06
0.000151772
0.000466681
-0.000574033
0.000104483
-0.000600091
9.51889e-05
0.000502082
-0.000242922
0.000116798
0.000126117
-0.000126483
-6.34442e-05
0.000189919
-0.000133821
4.72805e-05
8.65404e-05
-8.11382e-05
-5.25318e-05
0.00013367
0.000329375
-0.000155182
0.000114625
-0.000101179
-1.34463e-05
-0.000107474
-2.63474e-05
0.00024821
0.000174579
-0.000422891
-0.000276359
-3.16518e-05
0.0003079
-5.27503e-05
0.000120541
-6.77907e-05
0.000329628
-0.000415739
8.55578e-05
0.000183534
-1.35598e-06
-0.000182191
-0.000130565
0.000456692
-0.000161143
-5.2002e-06
0.000178898
-0.000176227
0.000282526
-1.06055e-05
-0.000272029
0.000105625
0.000277414
-0.000383615
-0.00051881
0.000494015
0.000184647
-9.32288e-05
-9.14256e-05
-0.000573393
0.000568526
2.02094e-06
2.92762e-05
6.5299e-05
0.000445261
6.02595e-05
-0.000134828
-8.15979e-05
0.000216408
1.67261e-05
-0.000108922
-8.66053e-05
-4.67573e-05
0.000133362
-0.000348631
0.000108388
0.000240159
3.28592e-06
-0.000279748
-6.38272e-06
8.29179e-05
-7.96841e-05
0.000171584
-0.000151829
-0.000578677
6.12664e-05
0.000511226
0.000347871
0.000136005
-0.000107817
-2.81884e-05
0.000267406
0.000104312
0.000434848
-0.000105941
2.41403e-05
0.00048576
-0.000112909
3.17709e-05
-0.000617721
0.000487181
6.74161e-05
5.83141e-05
-5.60741e-05
-6.58999e-05
0.000121974
0.000105086
0.000114979
-5.33306e-05
-2.18613e-06
0.000156805
5.71161e-06
-0.00016252
-9.25069e-05
-1.37009e-05
0.000106208
0.000142296
-4.91176e-05
0.000211443
-0.000293165
-0.000104128
0.000397025
0.000130367
1.57128e-05
-0.000146085
8.90827e-05
9.55565e-05
-0.000349841
0.000139318
5.18746e-05
0.000123857
-0.000181819
-0.000173005
0.000354608
0.000122563
-4.04349e-05
-8.21277e-05
-0.000201418
-2.67294e-05
0.000228129
0.000102684
-4.45263e-05
-9.5353e-05
-0.000431088
0.000350137
8.03525e-05
-0.000180368
1.60044e-05
-0.000114189
-0.000102313
0.000124304
-2.19916e-05
0.000248242
0.000435032
3.8877e-06
-0.000519982
0.000516074
2.29119e-06
-9.98298e-05
-8.75897e-05
0.00018741
-0.000149293
-5.81774e-05
0.000207461
-0.000253533
-0.000177941
0.000274685
-0.000271244
-8.88297e-06
-0.000192552
-0.000686617
0.000183725
0.000500451
0.000225989
-0.000131937
3.12112e-05
-0.000183056
0.000151826
-0.000111222
-6.87342e-05
0.000179952
-0.000141822
0.000566385
-0.000428467
-1.58916e-05
-0.000503263
-8.1295e-05
-0.000117585
-1.62241e-05
0.000133809
9.67391e-05
-0.000111178
1.44385e-05
-0.000190464
0.000290694
-0.000100331
-0.000190036
-0.000448774
0.000159704
-0.000166078
-8.67038e-05
-9.99353e-05
0.000186631
-0.000148923
-8.76337e-05
0.000236535
-4.48689e-05
0.000319435
-7.19126e-09
-0.000117578
6.90057e-05
3.12918e-05
-0.000100298
0.000382529
-2.58493e-05
-0.000357077
0.000360731
-0.000303736
-5.71858e-05
8.50938e-05
4.9437e-05
-0.000134533
0.000754622
-0.000508855
-0.000251499
-0.000410786
0.000393911
9.08585e-06
2.65714e-05
-0.000175511
-0.000286219
0.000147265
0.000138879
4.11849e-05
-0.000545513
0.000494987
0.000139167
-0.000184356
4.02743e-05
-0.000168753
-0.00041523
-4.05857e-05
-3.52329e-05
4.98817e-05
0.000388163
-0.00026874
-0.000119684
7.3821e-06
-6.12529e-05
0.000109522
-0.000249381
-0.000110511
0.000601625
-0.000146938
-0.000457185
-0.000110202
-1.32498e-05
-8.15899e-05
-0.00055717
0.000392606
0.000163822
-0.000188067
8.42001e-05
-0.000100298
1.60974e-05
-0.000429598
0.000333084
-0.000461568
-9.60392e-05
-4.60452e-05
-0.000203464
-9.25964e-05
-2.31918e-05
0.000115788
0.00010784
-0.000125116
1.72749e-05
7.16545e-05
-0.000240204
0.000168488
3.1867e-05
-8.52044e-05
-6.98995e-05
0.000143183
-0.000381805
0.000131065
0.000109664
-0.000240779
-2.37669e-05
0.000107967
-0.000135524
-3.8527e-05
0.000174048
0.000129296
0.000364765
-3.77072e-05
0.000122799
-0.000189653
0.000103103
8.65453e-05
-0.000127425
4.9756e-06
0.000122449
-0.000119868
0.000206437
-8.65849e-05
0.000269888
-0.000110111
-0.000159789
4.64065e-05
8.1587e-05
-7.22503e-05
0.000144582
-7.23317e-05
0.000145534
-8.87786e-05
-0.000198385
-0.000404155
-0.000111946
3.73149e-05
7.46312e-05
5.16451e-05
4.86524e-05
0.000125871
-0.000123551
-2.32122e-06
2.83245e-06
0.000123038
-4.06908e-05
0.000288876
-0.000121298
0.00026688
-0.000145646
-0.000381473
0.000143712
0.000237575
8.86745e-05
-5.99621e-05
0.000276138
-0.000121346
-0.000154807
0.000173815
-0.000175527
-2.68437e-05
-0.000254377
0.000127434
0.00042036
-0.000101129
-0.000319628
-0.000106308
-2.11172e-05
0.000103537
0.000131857
0.000615996
-0.000111751
-0.000370854
0.000265686
0.000105002
-7.25148e-05
-0.000296988
-0.000331735
6.72427e-05
3.34556e-07
-9.29309e-05
-4.41594e-05
0.000203855
-0.000184873
0.000478482
-0.0003736
0.000352075
8.20463e-05
7.4062e-05
4.04685e-05
-0.000114531
-0.000169879
0.000527208
-0.000176432
0.000403064
-2.10363e-05
0.000193314
-0.000239483
-9.07651e-05
-0.000280246
-1.80745e-06
2.84859e-05
0.000570107
0.000201256
-1.24658e-05
-0.000188807
-0.000193452
7.84286e-05
-0.000161125
-4.30864e-05
0.000204195
-0.000105371
-6.11826e-05
0.000135244
8.46757e-05
-0.000347878
-0.000108606
4.31572e-05
0.000130836
-0.000174002
-0.000604637
1.37749e-05
0.000581187
1.3447e-05
-0.000148974
0.000236565
-1.84233e-05
-0.000218171
-6.07043e-05
0.000121999
0.00026006
0.000159809
6.37516e-05
-0.000232819
8.44306e-05
0.00010355
7.69021e-05
7.51891e-05
-0.000152094
-0.000179434
-4.38666e-05
0.000223282
-5.28734e-05
-5.66511e-05
0.000109525
0.000249812
0.000153635
-0.000404681
-0.000137257
5.88983e-06
0.000117745
-5.35022e-05
-0.000388278
0.000154075
0.000233885
5.64172e-05
6.61454e-05
0.000366954
-0.00025907
-0.000108133
2.74694e-05
-0.000116979
8.9509e-05
0.000273689
8.67832e-05
0.000306672
-0.000158616
-0.000184136
-3.97177e-05
0.000223835
0.000209056
-6.10448e-05
-0.00014802
0.000175821
0.000424825
-2.17801e-05
-0.000356682
0.000377884
-0.000172713
-0.000113566
-0.000306001
0.000468662
-0.0005143
4.177e-05
-0.000244306
5.37497e-05
0.000134945
-0.000131679
-3.26688e-06
0.000299581
0.000286433
-0.000327249
0.000295484
-9.20015e-05
-1.64145e-05
0.000108416
-0.000453453
6.48635e-05
0.000387645
-0.000165778
0.000102566
6.32084e-05
0.000236259
2.33395e-05
-0.000259704
0.000139638
-3.17986e-05
-0.000320544
-9.57337e-05
0.000149563
0.000131113
-3.77352e-05
0.000152359
-0.000172329
-0.000229222
-9.14362e-05
0.00032054
1.21027e-07
-0.000102434
-0.000111567
-7.30861e-06
0.000164109
-0.000292649
-0.000396404
-8.79514e-06
0.000210035
0.00035025
-4.43909e-05
-0.000306083
-0.000187361
0.000251064
-7.04972e-05
0.000552802
-0.000488151
5.01487e-05
5.01487e-05
0.000141506
-6.59293e-05
-7.55776e-05
0.000137134
5.61563e-06
-0.000142752
0.000417645
-6.62823e-05
-0.000193035
-0.000130654
-5.42497e-05
0.000184898
-1.56612e-05
0.0001124
-0.000175983
0.000570078
-0.00040802
-3.49202e-05
-7.70261e-05
-0.000132021
-6.72304e-05
0.000199242
7.7724e-05
-0.00012286
4.51353e-05
0.000100858
-0.000282853
0.00018021
-0.000128879
-5.13351e-05
0.000566578
-0.000391997
-0.00017585
-1.67691e-05
2.73236e-05
-0.000100298
2.40226e-05
-8.47247e-05
0.000161834
-7.71139e-05
0.000529904
-0.000420312
0.00010879
-0.000300633
-5.89458e-05
-0.000268404
0.000541994
-0.000154397
-0.000403018
6.46599e-05
7.68454e-05
-0.000239604
0.000118247
-4.8258e-06
0.000241357
0.000291773
9.09201e-05
-0.000383294
0.000453477
-0.000205188
-0.000336794
-0.00018672
0.000523464
-8.62408e-05
0.00016314
-0.000684998
0.000535038
-0.000531779
0.000195022
-0.000163594
6.08069e-05
0.000102785
-8.29185e-06
0.000143236
-0.000255251
0.000398615
-0.000180094
7.56995e-05
0.000104389
-0.000507221
-4.00417e-05
-1.03384e-05
0.000395587
-0.00011887
-0.000335473
-0.00018787
0.000227544
5.70637e-05
-0.000284724
0.000391877
-0.000532878
0.000137986
-3.44472e-05
0.000435698
-0.000402624
0.00012879
6.7829e-05
0.00055223
-0.000167552
-0.000386135
7.19667e-05
4.36295e-05
-0.000115597
0.000515413
-0.000325667
-0.000198687
-0.000350774
0.000403112
-5.28298e-05
-9.67867e-05
0.000124178
0.000325315
-0.00018315
-0.000142241
0.00015628
2.00084e-05
-0.00021258
-2.88651e-05
0.000376193
-0.000353078
-0.000128605
0.000419783
-0.00020812
0.000572177
-0.000366492
0.000169307
-4.18722e-05
-0.000127439
8.12495e-05
5.29338e-05
-0.000134184
2.38484e-05
-0.00031724
2.94439e-05
-8.68964e-05
5.74525e-05
0.00029792
-0.000498133
3.62873e-05
0.000456308
-8.82883e-05
-2.99542e-05
0.000118242
-9.56685e-05
-9.25277e-05
-0.000174271
0.000266735
0.000213733
0.00027167
-0.000487149
5.25353e-05
9.33338e-05
0.000218082
-1.43643e-05
0.000112855
-9.84913e-05
-9.81206e-05
-0.000429069
-0.000287428
0.000399505
-0.000112361
-0.000191917
0.000108275
0.000209296
-0.00031779
6.69736e-05
7.76081e-05
8.74688e-06
-0.000139405
-3.16101e-05
0.00016874
-0.000152654
0.000338415
-0.000186133
-0.000173443
-0.000618094
0.000568806
4.63689e-05
-0.000108418
-0.000109335
0.000345464
0.000124485
-0.000126526
-5.47173e-05
0.00040469
0.000276
0.000164991
0.000160221
0.000150956
2.42139e-05
-6.48811e-05
4.51894e-05
5.68396e-05
-0.000102029
-0.000108328
2.00392e-05
0.000144333
-7.23676e-05
6.7326e-05
-9.65891e-05
2.9263e-05
-8.23457e-05
0.000107249
-1.62884e-05
-9.09606e-05
-0.00015812
-0.000130589
0.000361553
-0.000231087
3.79876e-06
-0.000269404
0.000263334
-0.000120973
-4.48071e-05
-0.000552489
-6.43994e-05
-8.22328e-05
0.000546698
-0.00032922
0.000109012
0.000220112
-0.000122846
-5.19688e-06
0.000128042
0.000459876
-0.000405622
-5.52513e-05
0.000285651
0.00016734
-0.000453563
-6.78172e-06
0.000158342
-0.000151583
0.00017051
-0.000266911
9.63117e-05
1.76804e-05
0.000458031
-0.000476123
-0.000123598
0.00014631
-2.2714e-05
-0.000206102
-0.000338282
0.000540039
-5.56481e-05
-6.93632e-05
0.000125011
-1.55129e-05
0.000184815
-0.000508359
0.000395992
-1.05602e-05
0.00040515
-0.000395713
-8.36128e-05
-9.90364e-05
0.000182641
-0.000149752
-0.000587421
0.000119597
1.63991e-05
-0.000135998
-0.000133704
1.27293e-05
-0.000673161
0.000100023
0.000565193
-6.61e-05
-5.82073e-05
0.000124307
0.000180021
-7.74854e-05
-0.000106672
-9.77757e-05
0.000204431
-0.000365037
0.000211933
0.000153455
-9.265e-05
-6.97637e-05
0.000120637
-5.08734e-05
-0.000258354
-0.000420958
0.000196549
-0.00013536
-6.1196e-05
-0.000102521
-0.000459418
0.00055931
-0.00052918
-0.000118304
-3.80598e-05
0.000156362
9.96528e-05
-7.21836e-05
-0.000106491
-0.000216904
0.000323206
-7.77104e-05
0.000305133
0.000529279
-3.60365e-05
-0.000494
0.000212029
2.65713e-05
-0.000238661
-5.83629e-05
0.000128062
-8.61303e-05
-3.67491e-05
0.000122879
-0.000507364
-6.24247e-05
0.000564108
3.21017e-05
5.69951e-05
-8.90968e-05
-0.000126347
-0.000446187
-0.000273115
-0.000290151
-0.000110251
0.000400016
0.000348204
-0.000537014
-0.000426089
0.000191171
-4.34049e-05
-8.30294e-05
0.000126434
9.12149e-05
0.000117829
-0.000109505
0.000418288
4.04568e-05
0.000522096
-7.79202e-06
-9.9196e-05
-3.67401e-05
0.000135936
-0.000361325
0.000283771
7.37863e-05
-0.000180872
0.000227727
-4.68734e-05
-0.000345844
-2.29645e-05
0.000368291
-0.000142665
-0.000214552
0.00035695
-0.000205644
0.000399218
-0.000193842
-7.90185e-05
-5.23211e-05
0.000131339
-4.60571e-05
0.000115063
-0.000382976
3.31718e-05
0.000349238
4.28083e-05
7.49365e-05
-0.000496321
0.000403805
9.11314e-05
-0.000286807
0.000164683
0.00012206
-7.33017e-05
0.000132349
7.10812e-05
5.30198e-05
0.000339578
0.000150331
-0.00049198
-0.000436413
0.000224857
2.05498e-05
1.36331e-05
-9.66627e-05
-0.000190208
7.7896e-05
0.000112305
0.000270968
-5.90103e-05
9.11289e-05
-0.000105494
2.96671e-05
-0.000320174
0.000382772
-0.000109322
8.84085e-05
4.75961e-05
-8.35729e-05
0.000154525
-7.09532e-05
0.000181697
2.81773e-05
-0.000209892
5.70366e-05
-0.000112685
0.000181412
-2.65969e-06
-0.000178761
-0.000124487
7.27467e-05
5.17404e-05
-0.000129972
-0.000339047
0.000467361
4.46497e-05
-0.00014627
0.000102444
7.77628e-05
-2.53028e-05
0.000446117
-0.000426042
-4.81384e-05
0.000104844
-7.57366e-05
0.000149677
-7.39409e-05
-0.000108937
-0.000271289
6.05121e-06
0.000461625
-0.000469635
-7.78862e-05
0.00010733
0.000164058
5.43436e-05
-0.00021844
0.000102447
2.23878e-05
-0.000124836
-0.000303795
-0.000383722
-3.85408e-05
4.65106e-05
-2.04519e-05
0.000308405
6.32521e-05
-0.000371746
-0.000130006
0.000300412
9.14075e-05
0.000414525
-0.000110535
2.351e-05
-7.43662e-05
-5.9139e-06
0.000187316
0.00026025
0.000136525
-0.000397162
-0.000231869
4.44656e-05
0.000262087
0.00033191
-0.000364205
0.000381562
-0.000252394
0.000319112
-6.68189e-05
9.60425e-05
-6.39409e-05
-0.000179295
-0.000134005
0.000313183
-0.000106705
-0.000317911
-0.00046737
-7.8204e-06
0.000462687
0.000430221
-0.000535105
9.83602e-05
-0.000266305
0.000110174
0.000338603
-0.000374223
0.000225232
-9.76731e-06
-0.000215493
2.23226e-05
0.000375261
-0.000398405
0.000155287
-0.000247878
-0.000133563
0.000178209
0.000350153
-1.43303e-05
-0.000337667
-6.84683e-05
-4.37401e-05
0.000112208
-0.000123255
0.000113999
-4.54034e-05
-0.000191619
0.000236996
-6.66863e-05
0.000109495
-0.000102089
0.000139424
-3.73348e-05
0.000307119
0.000146029
-4.35833e-05
0.000167323
-0.000174131
-0.000122644
-8.27107e-05
0.000205343
4.31622e-05
-0.000118899
0.000587605
-8.34074e-05
-0.000509099
-2.5994e-05
-9.76047e-05
-0.000115946
-0.000224121
-0.000164441
0.000121044
-5.37178e-05
-0.000178623
0.000105357
7.32614e-05
-0.000172617
-0.000439129
-1.20992e-05
0.000237299
0.000531864
-6.79479e-05
-7.39855e-05
-5.05022e-05
3.21207e-05
-9.37411e-05
6.16204e-05
0.000614376
-0.00029081
-0.00032518
-7.28005e-05
-0.000105563
0.000153668
-4.81065e-05
1.94923e-05
0.000100536
-0.000122847
-0.00013469
0.000151784
2.18086e-05
-0.000193119
3.34092e-05
-0.000101878
-9.34288e-05
-6.06601e-05
0.000154087
-0.000122159
-0.000339666
-0.000153321
-7.13931e-05
0.000224696
0.000428164
0.000122509
0.000355239
0.000173227
-0.000529095
0.000160298
-1.36238e-05
-0.000146678
-0.000193055
6.61548e-05
0.000131108
-0.000197281
-0.000590508
0.00044751
0.000124886
0.000148228
-0.000117031
-0.000155853
0.000255781
-9.99815e-05
-0.000272963
0.000116242
0.000156652
-0.000221183
0.000410755
-0.000189774
-0.000261292
0.000454469
-8.64943e-05
0.000250508
6.97416e-05
0.000238573
8.41166e-05
0.000114943
0.000303896
-0.000138426
-0.000180449
0.000285668
-3.61879e-05
0.000217864
-2.60221e-05
0.000138875
0.000161436
-9.46111e-05
0.000136433
-2.06315e-05
-0.000115802
0.000165676
-4.60821e-05
-6.02738e-06
0.000174596
7.58542e-05
-0.000120768
4.49133e-05
0.000338798
-0.000251621
-8.72894e-05
-0.000135937
1.76312e-05
-0.000188285
-0.000554604
0.000428486
0.000122297
0.00024306
0.000139448
3.77032e-05
0.000123725
0.000405312
-0.000177265
-0.000228459
0.00055761
2.38343e-05
-6.10695e-06
-0.000524938
0.000524611
-0.000153141
-8.72742e-05
0.000240389
-0.000101556
4.8683e-05
3.76875e-05
-0.000388902
4.52511e-05
-0.000111151
-0.000505131
2.43064e-05
-0.000143677
5.02469e-05
0.000172607
-7.98209e-06
-0.000164638
7.65306e-05
-0.000100298
-0.00023504
0.00022291
-0.000379348
5.82956e-05
-0.000391938
0.000406935
0.000122017
-4.5486e-05
0.000177054
-0.000110913
0.000123265
0.000215397
-0.000138978
0.000209755
0.000241887
4.43956e-05
0.000109252
-0.00015365
-0.000198567
-0.000195788
0.000189864
-0.000198204
0.000387504
-0.00018957
0.000102698
6.36105e-05
-0.000166315
0.000324872
0.000240616
-0.000130859
0.000465553
-0.00029113
-0.000272818
0.000627385
-5.15706e-05
0.00012668
-7.51092e-05
2.68919e-05
-8.77275e-05
-2.98895e-05
0.000190183
-0.00011542
-2.66344e-05
-0.000208435
-7.95846e-05
-4.16528e-05
0.000121237
9.17551e-05
-5.16545e-05
-2.24672e-05
-0.00017333
-0.000166968
4.43152e-05
0.000134246
0.000172827
0.000384355
-0.000485536
0.000469322
0.000670859
-0.000335435
-0.000350949
0.000530052
-0.000106601
-5.07492e-05
0.000139029
0.000118395
-0.000257486
0.000237845
-0.000165814
-7.20477e-05
9.36833e-05
-0.000249579
0.000157539
-6.56607e-05
0.000316757
-0.00043412
0.000116477
-0.000114003
-4.87513e-05
4.87513e-05
5.41123e-05
7.19875e-05
-0.000307642
0.000137158
0.000170353
-6.83058e-05
1.81583e-05
0.000478104
-0.000478097
-4.59531e-07
-0.000115474
-1.42903e-05
0.000129764
-0.000413716
5.04359e-05
0.000162387
-0.000127799
-3.45888e-05
-0.000102957
0.000146118
0.000143331
0.000225521
-2.36851e-05
-0.000201878
-0.000556814
0.000561609
-1.21703e-05
-0.000131242
5.79329e-05
0.000422681
-0.000185137
-0.000237949
-0.000433613
2.70349e-05
-0.000147191
-0.000384214
0.000384472
-8.2355e-07
-0.00051342
0.000164541
0.000600811
-0.000433945
-0.000171085
0.00030406
-0.000159587
-0.000144586
-7.48091e-05
-4.19673e-05
0.000116776
-0.000409139
0.00017287
0.00023591
-0.000114618
-0.00026498
0.00037934
2.92581e-05
-0.000161288
2.42226e-05
-0.000110353
-0.000168017
-0.000150921
0.000390767
-0.000198811
-0.000192239
-6.33781e-05
0.00013739
-7.40123e-05
0.000298061
0.000355773
8.61994e-05
-0.000117092
0.000112489
-3.67468e-06
-0.000458949
0.000290157
-0.000122082
0.000164359
-4.22802e-05
-0.00025156
1.20963e-05
0.000239427
0.00022998
-0.000102358
0.000150733
-0.000228908
7.81448e-05
-0.000270833
-0.000104376
-0.000184016
0.000287366
-4.29996e-05
4.29996e-05
-0.000161525
-0.000125337
0.000320092
-0.000451712
-0.000194896
9.02768e-05
0.000195969
0.000173756
-0.000370177
0.000161753
-0.000165639
3.87776e-06
0.000318088
3.8664e-05
-0.000369304
-8.65279e-05
-0.000102801
0.000189318
0.000146959
-5.01729e-05
-0.000133949
0.00018412
0.000225305
-7.46017e-05
-0.000137175
9.66406e-05
4.05339e-05
-0.000274857
0.000150595
-3.80448e-07
-0.000146792
-8.08638e-05
0.000227636
-0.0001329
0.000484693
-0.000362773
-0.000347165
0.000324861
0.000159105
-2.26738e-05
-9.83831e-05
0.000138851
-0.000109568
5.56122e-05
8.17774e-05
-0.000602419
8.03073e-05
0.000519946
0.000231004
0.000381487
-2.81431e-05
-0.000165352
0.000193464
-0.00018139
-0.00025924
0.000439811
-0.000572187
0.00058088
-1.48885e-05
-0.00011903
5.86686e-05
7.50692e-05
-0.000174908
-0.000107063
4.37406e-05
6.3322e-05
-0.000193372
-2.90259e-05
-0.000222568
0.000297694
0.000229627
-0.000527911
-0.00056562
0.000134879
8.17995e-05
7.11726e-05
-0.000152974
-0.000231056
0.000226198
-4.1759e-05
-0.000163184
0.000188413
-2.59426e-05
0.000166895
-9.89164e-05
-9.54471e-05
0.000198579
-0.000103145
-7.17278e-05
0.000133725
-0.000529528
3.30019e-06
0.000237707
-0.000249434
2.60331e-05
-0.000100842
0.000208873
-0.000430271
0.000373002
-0.000221852
-0.000151401
0.000441336
8.25495e-05
-0.000106277
-2.3319e-05
0.000129595
8.85909e-06
6.20788e-05
-3.66039e-05
0.00011154
0.000492048
-0.000552121
5.86196e-05
0.000216513
-0.000111446
-0.00014739
-0.000174989
0.000322209
3.89781e-05
0.000158941
-0.000197948
-0.000313042
0.000100082
-0.000494999
-9.92154e-05
0.000372207
-0.000273672
-8.37089e-05
-0.00024127
0.000308563
0.000176589
-0.000118561
-5.80324e-05
-0.000494527
0.000186952
0.000307145
4.92373e-05
7.50669e-05
-0.000461123
0.000249746
0.000210109
1.2936e-05
-0.000134513
0.000121575
0.000131035
-8.6947e-05
-4.40884e-05
-0.000357005
0.000148912
0.00020782
0.000256639
-8.57929e-05
-0.000187504
0.000133862
-8.08274e-05
-5.30346e-05
-8.70892e-05
0.000141654
-5.45663e-05
-6.96896e-05
-0.000313777
-0.000231541
0.0002436
-0.00052186
3.57469e-05
7.65043e-05
-0.000100298
2.37932e-05
-9.95597e-05
-0.000458644
0.000143838
-0.000106141
-9.7755e-05
0.000525519
-0.000432341
0.00016342
-0.000259668
2.11516e-05
0.000141233
-0.000309986
0.000364972
-0.000399404
-3.40191e-05
-0.000251938
0.000118091
-7.66348e-05
-4.14567e-05
-0.000135814
6.92321e-05
6.65817e-05
2.79216e-05
-0.000133485
0.000687667
-0.000447586
0.000114823
-3.89689e-05
-0.000510472
0.000365311
-8.15427e-06
0.000310513
0.000224639
0.000336547
-0.000107928
-0.000176795
0.000195274
1.56414e-05
-0.000213177
-6.60997e-05
0.000141309
-7.52104e-05
-7.76665e-05
0.000150942
-7.32765e-05
-0.00011082
-0.000464938
-7.78598e-05
-8.8357e-06
0.000217039
-0.000323709
0.000491679
-1.56748e-05
4.80828e-05
8.57791e-05
-0.000190676
-6.25563e-05
-7.72073e-05
0.000123614
0.000222954
-0.000322794
-9.89543e-05
0.000426078
-0.000456405
0.000320076
-0.000180881
0.000206187
-3.3598e-05
0.000639883
-5.79772e-05
-0.000112851
-9.46555e-06
-0.000134331
-4.8137e-05
0.000182464
9.02336e-05
-5.81129e-05
-7.03078e-05
0.000295773
-5.76112e-05
7.34744e-05
-0.000225098
0.000151566
0.000109153
0.000452869
-0.000139911
0.000319054
-0.000179289
-1.08361e-05
-0.000220738
6.0305e-05
4.13467e-05
-0.000101652
0.000238099
0.00014978
9.19701e-05
-0.000161453
6.94802e-05
-2.06407e-05
-0.000210444
0.000185412
-5.05275e-05
-9.42602e-05
0.000128885
-3.46253e-05
-0.000106795
1.25345e-05
-0.000106608
6.8703e-05
3.79053e-05
-7.89719e-05
-9.25604e-05
-5.57391e-05
0.000148298
0.000418408
-8.03915e-05
-8.86742e-06
0.000139231
0.000179553
-9.95688e-05
-7.99873e-05
0.000168128
0.00023672
5.40654e-05
9.07609e-05
9.6204e-05
1.63927e-05
-0.000112597
0.000297582
0.000129611
-0.00042812
7.0912e-05
0.00016808
0.000539471
-0.000201883
-0.000205123
0.000501619
-0.000111474
7.97917e-05
0.000557513
-4.33297e-05
-0.000521448
-0.000307555
0.000167502
-9.31752e-05
0.000109901
-0.000458138
0.000397222
5.99086e-05
0.000122994
-5.68261e-05
-0.000421964
0.000115435
0.000306163
-0.000236629
0.0001113
0.000125293
0.000136939
-9.86302e-05
-3.83093e-05
-0.00037045
-8.46166e-05
-0.000105596
-4.2322e-05
-0.000213306
0.000255373
-0.000150974
-0.000206282
-8.71973e-05
-4.86173e-05
0.00044541
-0.000164647
0.000207247
-4.26084e-05
-0.000123469
8.44279e-05
3.36632e-05
0.000552647
-0.000116059
-0.000439266
-0.000107501
5.14295e-05
5.60713e-05
0.000392547
-0.000238796
-4.35281e-05
0.000105497
-6.19693e-05
4.52312e-05
5.74368e-05
-0.000102668
-5.38312e-05
-5.36697e-05
-0.00034494
0.000211721
0.000133092
-0.00053056
0.000425907
0.000103231
-0.00047082
-0.000133749
-0.000103541
-2.37596e-05
0.00012476
0.000154058
-0.0001356
0.000543667
-0.000409891
-6.00514e-05
-0.000236597
0.000366556
-0.000366091
0.000136199
0.000229741
-0.000280102
0.000112061
0.000310128
0.000107784
0.000167242
0.000511713
0.000415509
-0.000248824
-0.00016723
-0.000178759
-0.000253595
0.000431924
0.000309028
-0.000320474
-0.000330547
-5.89436e-05
9.8295e-05
-0.000125135
2.68394e-05
0.000178304
-0.000102755
-7.55538e-05
-0.000374319
0.000233902
0.000140077
-0.000172826
0.00026979
-9.70466e-05
-6.08125e-05
0.000157016
-0.000228443
0.000114042
-0.000109067
-0.000197554
0.000478778
-0.000130959
0.000332241
-0.000201464
-0.000363412
-0.000131428
0.000565291
-0.000137284
-0.000431422
-0.000235022
-6.5426e-05
0.000300345
-0.000479517
-2.37017e-05
0.000579582
-3.05515e-05
0.000174579
9.52892e-05
-0.000471199
-4.40276e-05
-2.27633e-05
0.000184508
-8.30905e-05
0.00042043
-5.21591e-05
9.98783e-05
-4.77193e-05
-9.87508e-05
-6.89647e-05
0.000167712
-0.000182179
7.29767e-05
0.000109194
0.000116891
7.965e-05
-0.000547404
8.05227e-05
0.000463794
-0.000116334
9.45215e-05
9.839e-05
-0.000192925
-9.37562e-06
-0.00035639
0.000469101
-0.000302372
0.000132052
-1.801e-05
0.000211468
0.000185633
-0.000397387
0.000190511
0.000156084
-0.00014264
2.53618e-05
-0.000117363
-5.89868e-05
-0.00019849
0.000257437
-0.000513936
0.000447969
6.34389e-05
6.32769e-05
0.000181981
-2.59009e-05
-0.000130622
-0.000267298