/*--------------------------------*- C++ -*----------------------------------*\
| =========                 |                                                 |
| \\      /  F ield         | OpenFOAM: The Open Source CFD Toolbox           |
|  \\    /   O peration     | Version:  v2012                                 |
|   \\  /    A nd           | Website:  www.openfoam.com                      |
|    \\/     M anipulation  |                                                 |
\*---------------------------------------------------------------------------*/
FoamFile
{
    version     2.0;
    format      ascii;
    class       volScalarField;
    location    "300";
    object      p;
}
// * * * * * * * * * * * * * * * * * * * * * * * * * * * * * * * * * * * * * //

dimensions      [0 2 -2 0 0 0 0];


internalField   nonuniform List<scalar> 
13917
(
-0.094346
-0.00777263
-0.109586
-0.045124
0.0256919
0.455461
-0.0979193
-0.122623
-0.223328
-0.148667
-0.112833
-0.0849251
-0.0456517
-0.135507
0.0418077
0.0184419
-0.00106585
-0.139476
-0.0839125
0.00612321
0.0174701
-0.0931072
0.0115161
-0.128032
0.0236477
-0.0842048
0.215402
0.226622
0.084568
-0.207116
-0.109792
-0.0516196
0.168773
0.108564
0.0289673
-0.103049
0.0115741
-0.138881
-0.0520791
-0.0689985
-0.00507038
0.0158489
-0.0166884
0.251777
-0.0290016
0.124917
-0.136701
-0.141722
0.506223
0.000387522
-0.0769269
0.0564128
0.509523
0.112693
0.000376594
-0.0771069
-0.114062
0.0216742
-0.0618946
-0.0276546
-0.397737
-0.00941214
-0.13398
0.00626933
0.446056
-0.397654
0.0274603
0.0348568
-0.161586
-0.05916
0.0251871
-0.22237
-0.24685
0.0228915
0.491733
-0.0772964
-0.20934
-0.0439319
-0.0774373
0.0171426
0.013552
0.0269111
0.430879
-0.140232
-0.416289
-0.0429153
0.0111603
-0.358673
-0.0750772
-0.017036
-0.212659
-0.188338
-0.0132229
0.0441146
-0.393314
0.44886
-0.13142
-0.141852
-0.0834086
0.327437
-0.00680186
0.166361
0.26073
-0.0517621
-0.0097693
-0.232816
0.0544925
-0.144665
-0.0030325
-0.111592
-0.3406
-0.0695532
-0.0870069
-0.229633
0.0731365
0.512626
0.0137004
0.496665
-0.0910032
0.11102
0.0159428
-0.162204
-0.102437
0.220484
-0.00135581
0.0427119
-0.0239776
-0.00109536
-0.0145808
0.456184
-0.100351
0.0708678
-0.0292288
0.0178389
-0.285229
-0.124312
-0.0916133
0.341976
0.0276909
0.110355
-0.107394
-0.0174459
0.0585871
0.286751
0.0353971
-0.216857
0.0252152
0.05455
-0.0168139
-0.0466287
-0.112511
0.508231
-0.108011
-0.0259847
-0.0682631
-0.424409
-0.0541178
-0.146498
-0.209703
-0.2942
0.0786735
0.215962
0.0143674
-0.129221
-0.0876225
-0.0840796
-0.0507757
-0.126124
-0.022941
0.171928
-0.0467044
-0.365402
-0.0845274
0.00171534
-0.189823
-0.0189331
-0.0978608
0.503814
-0.210683
-0.000348964
-0.194426
-0.115647
-0.0180633
0.011439
0.0745183
-0.0866797
-0.290744
-0.421001
-0.111859
-0.091369
-0.126377
-0.416354
-0.288059
0.0157978
0.360447
0.207283
-0.0091239
-0.0132015
0.0366613
-0.361866
-0.0669542
0.00070052
-0.118468
-0.110638
-0.245357
-0.246551
0.0287243
0.0225331
-0.138812
-0.0933216
0.0564202
-0.100396
-0.246402
-0.0923149
-0.00935269
0.309519
-0.12987
-0.325871
0.0108412
-0.390687
-0.00013621
-0.196486
-0.00459398
-0.153724
-0.239052
0.0175219
-0.307329
-0.0715405
-0.00871195
-0.102668
-0.083417
-0.110249
-0.11176
-0.24827
-0.00863387
-0.0550907
-0.213807
-0.423754
0.0148751
0.00097096
-0.0686236
-0.137909
0.00406144
-0.0969619
-0.181212
0.20861
-0.0901015
0.0139866
0.0162958
-0.232496
-0.0326264
-0.216552
0.342233
-0.0238993
0.0224415
-0.101916
-0.0697156
-0.107019
0.0730317
0.0380753
0.00437595
-0.101071
-0.300238
-0.0870401
-0.00814918
-0.276279
-0.14403
-0.148458
-0.0737337
-0.0778181
0.0140156
-0.00254618
-0.136013
-0.172935
-0.170113
-0.0601486
-0.2487
-0.0689306
-0.0145317
-0.337278
0.00486624
-0.186856
-0.0650625
0.00400475
0.0112792
-0.0207089
0.216122
-0.0979036
0.00925786
-0.0348304
-0.277214
-0.111777
-0.29473
0.011186
-0.160243
0.0243364
-0.0348948
0.0133105
-0.00863636
0.00245066
-0.202224
-0.0851989
-0.0227058
-0.118639
-0.025769
0.51429
-0.0171308
-0.181595
-0.0224359
0.0216616
-0.345946
-0.109676
0.0133094
-0.00346212
-0.344372
-0.00455349
-0.244515
-0.0216277
-0.15573
-0.037783
-0.272476
-0.094567
0.471779
0.074976
-0.286626
0.344438
0.00897233
-0.140285
-0.0797705
0.0208527
-0.113323
0.356839
-0.145533
0.0974114
-0.0760073
-0.06164
-0.382846
0.340539
0.0295508
0.0174359
-0.108459
0.0185606
-0.0533827
-0.341748
0.0366284
0.0127574
-0.136618
0.0308931
-0.00349087
-0.126111
0.120542
-0.00492398
-0.0904091
-0.112384
0.00497037
-0.0014416
0.024244
-0.0172328
-0.271463
-0.20305
0.411164
-0.348006
0.0190056
-0.224007
-0.419282
-0.106948
-0.0981555
-0.174944
-0.236112
-0.00915042
-0.0870186
-0.00315952
-0.389803
-0.0266696
0.461365
-0.184527
-0.0549922
0.0189965
-0.13576
-0.20144
-0.159186
-0.101061
-0.380889
-0.326775
0.0103207
-0.140829
0.00115114
-0.424694
-0.0911742
0.0167899
-0.283866
0.0234694
-0.238395
-0.0378781
0.0185401
-0.0207604
-0.0722733
-0.0188835
-0.0710188
-0.408926
-0.104833
0.37939
0.0189091
0.326775
0.361406
0.00943211
0.0612969
0.035128
0.0247625
-0.205849
0.00446554
0.0253165
-0.00351329
-0.267078
0.0171245
-0.0770275
-0.0726726
-0.410055
-0.283823
-0.0737989
-0.308287
-0.104728
0.0184926
-0.223024
-0.0518673
-0.0607121
0.0158193
-0.204588
-0.0941776
-0.0752229
0.0303855
-0.1862
0.0943134
-0.0532108
-0.156775
-0.00567551
-0.0856503
-0.00420469
0.00253598
-0.245728
-0.0972651
-0.096132
-0.206748
-0.410456
-0.113904
-0.30757
-0.184464
-0.0138087
-0.137956
-0.00765025
0.0252809
-0.247679
-0.138304
-0.0160468
-0.160396
-0.105835
-0.174983
0.00929258
-0.148811
-0.40723
-0.306209
-0.0805655
0.0175467
0.0180844
-0.00946106
-0.048601
-0.00921438
-0.0822289
0.418227
0.00734362
-0.424615
-0.0762445
-0.127064
-0.308568
0.0165594
-0.103314
-0.108777
-0.1484
-0.158786
-0.209802
-0.0871298
-0.0960132
0.444215
-0.0823223
-0.143742
-0.0118517
-0.274062
-0.0804271
-0.0236773
-0.0436462
-0.0463163
-0.17912
-0.233719
-0.00401956
-0.0143889
-0.0907648
-0.309075
0.00425942
-0.0795623
-0.0475684
-0.265641
-0.0028587
-0.261684
-0.194662
-0.0495964
-0.025847
-0.0736749
-0.279993
-0.426222
0.00460911
-0.240933
0.510675
-0.347578
-0.0237703
-0.418779
-0.294817
-0.104718
-0.00211799
0.00573905
-0.0750102
-0.239973
-0.0161777
-0.00118082
-0.00100154
-0.00129887
-0.275011
-0.250847
-0.104128
-0.287083
-0.00278014
-0.00640253
-0.181992
-0.26716
-0.100705
-0.0239896
0.0241884
0.030424
-0.342697
-0.414653
0.00944334
0.0298022
-0.0867496
-0.0877734
-0.0935019
0.0193722
-0.0162157
-0.034269
-0.140845
-0.0604346
-0.294405
-0.224795
-0.166546
-0.243539
-0.180027
0.0124541
-0.235165
0.0301666
0.0118522
-0.057111
-0.270431
-0.019347
-0.00636569
-0.303607
-0.217521
-0.403109
-0.168471
0.116508
-0.108482
0.0192893
-0.296663
-0.285878
-0.119217
-0.00370217
-0.0886284
-0.29173
-0.177377
-0.27719
-0.144879
-0.215885
0.022704
-0.0457513
0.0206487
0.095571
0.279718
0.0492527
-0.126946
0.345775
-0.120186
-0.426568
-0.019306
-0.125011
-0.191562
0.00583537
0.0525004
0.346626
-0.253179
-0.197141
-0.280145
-0.0144396
-0.0921308
-0.0759394
-0.00637741
-0.087647
-0.123367
0.160722
-0.202561
-0.0772237
-0.20585
-0.0829286
-0.293951
-0.0484535
-0.186221
0.0153071
0.00964332
-0.158216
-0.250773
0.419385
-0.049015
0.000137216
0.0292656
-0.070314
0.501843
-0.0838017
-0.0481843
-0.103164
-0.1329
-0.00237948
-0.291735
-0.0826208
-0.0797426
0.00840648
-0.20046
-0.0455107
-0.408341
-0.154626
-0.0277633
-0.0898396
-0.00395278
-0.0218403
-0.0251517
-0.0137312
0.126055
-0.274703
0.0864325
-0.126355
-0.00444918
-0.210473
0.412976
-0.10994
-0.032018
0.116553
-0.000530305
-0.0667321
-0.0643586
-0.297113
0.0176335
-0.341011
-0.0680896
-0.110681
-0.187048
-0.254755
-0.0507133
0.00621234
-0.183446
-0.278121
0.00843599
-0.0560061
-0.206255
-0.273525
-0.166505
0.0040872
-0.0271572
-0.254639
-0.0556517
-0.159005
-0.101153
-0.0223995
-0.10818
-0.114687
-0.0315074
-0.0431669
-0.000333112
-0.107016
0.0183261
0.0305075
-0.369182
0.0220963
-0.249572
-0.0670186
0.172647
-0.0006527
-0.0308313
0.0137538
-0.156997
-0.00376297
-0.108095
-0.04727
-0.400378
0.18893
-0.269489
-0.0085578
0.0189836
-0.173118
-0.127119
-0.129921
-0.248629
-0.141358
0.0273514
-0.261762
0.437204
-0.0801609
-0.269681
-0.130695
-0.0759273
-0.0847284
-0.0683249
-0.218684
0.0583131
-0.139206
0.432144
-0.139776
-0.0487979
-0.125338
0.00451525
-0.0263922
-0.0665094
-0.112968
-0.0419729
0.0161858
-0.00313885
-0.129833
-0.0532538
-0.162212
0.0266012
0.0247698
0.0186579
-0.011192
-0.0187844
-0.0389622
0.00030943
-0.262188
-0.0817599
0.374798
-0.00796089
0.0112137
0.187669
-0.162923
0.0683093
-0.339437
-0.151269
-0.383726
-0.068113
-0.194573
-0.0419445
0.0151153
-0.00167601
-0.0239223
-0.394007
0.0108591
-0.244763
-0.0399653
-0.420614
0.0225968
-0.15887
-0.109369
-0.01597
0.00415656
-0.0830864
0.0342478
0.0325084
-0.328332
0.000611113
0.0239605
-0.0779814
-4.47943e-05
-0.0133515
-0.0487471
0.131762
-0.128853
-0.0769417
-0.0314812
-0.00551067
-0.178443
-0.00393347
0.0134726
-0.00478816
-0.332203
-0.198288
-0.343855
0.110057
-0.0497837
-0.00820059
-0.0135292
-0.0840203
-0.0819107
-0.134204
0.100899
-0.115488
-0.0163633
0.0523926
-0.345928
0.0239472
-0.0816091
0.00961455
0.00207994
-0.105418
0.223356
-0.0390824
-0.24052
-0.070701
-0.191104
0.012071
-0.0200202
-0.0893603
-0.249293
0.00472783
-0.232702
-0.019654
-0.108319
-0.0267989
-0.0272174
-0.244707
-0.0311282
-0.0738604
-0.11217
0.0193866
-0.0161618
0.0412331
0.00148582
-0.0427654
0.239593
-0.0305463
-0.0236567
-0.190028
-0.212226
-0.0844567
-0.120987
-0.150734
-0.0677867
-0.0170916
0.128169
-0.242213
-0.1191
0.0212699
-0.0245228
-0.243617
-0.108623
-0.351022
0.0190893
0.070469
-0.110191
-0.100027
-0.0412726
-0.410655
0.468326
0.000921726
-0.213675
-0.0019853
-0.0301065
-0.00817702
-0.274299
-0.0185043
-0.0304417
-0.0177158
-0.0726437
-0.0515651
-0.270151
0.273329
-0.0277696
0.16528
0.00873308
-0.350161
0.00281978
-0.0311068
0.0236235
-0.0902217
0.0239003
-0.204677
-0.069775
-0.109946
0.112523
-0.114871
-0.372941
0.0201623
-0.0925239
-0.407214
-0.371315
-0.0745447
-0.187994
-0.41229
-0.206756
0.0038498
-0.0774024
-0.0992792
-0.0938281
-0.023156
-0.0142351
0.0118372
0.00897168
-0.073141
0.119384
-0.113858
-0.0142961
0.028164
-0.424371
-0.060719
0.0411783
0.192951
-0.0863183
-0.0353965
0.126443
0.1974
0.0661661
-0.0520451
-0.0698875
-0.348636
0.495765
-0.0264865
-0.276868
-0.212803
-0.406512
-0.242269
-0.0813019
-0.00408904
-0.0429089
-0.0148577
-0.0161916
-0.01423
-0.013761
-0.0362195
-0.0804588
-0.423797
-0.153767
-0.0308955
-0.190344
-0.301887
-0.100895
0.0480285
-0.194963
-0.021591
0.0315929
0.18521
-0.42504
0.0244547
0.0091995
-0.102752
-0.11574
-0.182077
-0.16846
-0.105401
0.00361068
-0.220553
0.0487759
0.0066171
0.0513929
-0.0821934
-0.343345
-0.0248551
-0.01654
0.00976246
-0.20237
-0.01009
-0.090145
0.0333687
-0.00262505
-0.21982
-0.0283543
-0.160548
-0.174156
-0.0932004
-0.0226833
-0.0908013
-0.0193696
-0.259773
-0.298672
0.0244218
-0.343662
-0.154022
0.473037
0.0242242
-0.0726268
0.0231496
-0.0752551
-0.0943083
-0.169787
-0.0919511
-0.0798465
-0.0810299
-0.260858
-0.00471089
-0.211355
-0.0272656
0.0017103
-0.107855
0.0245969
0.0230452
-0.0256873
-0.0334689
-0.422298
-0.0149925
0.0119094
-0.110245
-0.129448
-0.121364
0.440478
-0.0797865
-0.402929
-0.0738369
-0.106253
-0.0668897
-0.186015
-0.0862706
-0.407607
-0.0808214
-0.0655876
-0.0286316
-0.0714168
-0.0801672
0.053775
-0.190654
-0.103336
-0.0394685
-0.0746001
-0.0345708
-0.0965264
0.00507795
-0.12806
0.301059
-0.00254076
-0.15948
-0.0254674
0.0201349
-0.00397298
0.113853
-0.140802
-0.0546433
-0.03601
-0.024733
0.285584
-0.170356
-0.241751
0.0251334
-0.0128534
-0.129458
0.0107869
-0.196003
-0.172594
-0.0393543
-0.182511
-0.0250052
-0.377021
0.0519073
-0.0808517
-0.138885
-0.205411
0.00535807
0.0058166
-0.0687936
0.00625225
0.000562487
-0.405109
-0.275516
0.0905788
-0.0792653
0.00569092
-0.035863
-0.0847872
-0.0254858
-0.0156647
-0.175791
-0.0266312
-0.162836
0.0135245
-0.0151161
0.0154335
-0.0805509
-0.0807918
0.0350206
0.0241992
0.00395909
0.0342576
0.00193505
0.42059
-0.155582
0.00489118
-0.199405
0.0136868
-0.21623
-0.113067
0.390466
-0.0242772
0.0458682
0.0113055
0.0681217
0.0466931
-0.0826681
-0.36126
0.0722017
-0.105709
0.487224
-0.126079
-0.0794902
-0.0436697
0.428675
-0.0927189
0.0115323
-0.341125
-0.138964
-0.0903697
0.0266883
-0.180338
0.220306
-0.0232957
-0.0529854
-0.41014
-0.0313134
-0.00471414
-0.0394311
-0.201102
-0.0857306
-0.15945
-0.00752935
-0.260879
-0.0720623
-0.0768386
-0.201328
-0.281161
-0.0834684
-0.0241883
-0.00230527
-0.10861
0.0108103
0.0692125
-0.0115254
-0.0185514
-0.017156
0.0775314
-0.0950411
0.447292
0.124415
0.265136
-0.0741214
-0.0749127
-0.0197836
-0.1948
-0.0785666
-0.0164892
-9.94599e-05
-0.0921777
-0.395113
0.02256
-0.164419
-0.161791
-0.0856029
0.0364659
-0.0479785
-0.0280876
-0.192764
-0.0245906
-3.15584e-06
-0.400245
-0.0762174
0.0124189
-0.235716
-0.0896466
-0.377578
0.0195925
-0.0697018
-0.0844003
-0.228283
-0.0823604
0.240238
-0.0576715
0.0148286
-0.0319234
-0.0100769
0.0309475
0.0600451
-0.05256
0.00687209
-0.116073
0.000243799
-0.080579
-0.0264685
-0.159536
-0.101434
-0.328021
0.0195538
-0.284573
-0.031691
-0.0932073
0.0238677
0.107695
0.0209668
-0.136331
-0.256419
-0.0837517
0.00607307
-0.156545
0.00324327
-0.0628547
-0.256022
-0.0284778
0.0525439
-0.12508
-0.0875358
-0.102472
0.00760465
0.0280916
-0.0441565
0.0157782
0.12462
0.00200558
-0.0097297
0.0659199
-0.231033
-0.0434515
-0.133963
-0.19991
-0.141795
-0.0805156
-0.0409348
-0.00951505
0.034148
-0.283658
-0.0476485
-0.0251556
-0.0981108
-0.342745
-0.000512334
-0.408264
-0.16266
-0.162528
-0.016612
-0.0155633
-0.0806549
0.051035
0.0200184
0.172267
-0.0225282
0.0799825
-0.0683119
-0.103672
0.434334
-0.0933241
-0.0524223
-0.113537
-0.0748026
-0.0679475
-0.0851632
0.171661
-0.404006
-0.115981
-0.413044
0.0867983
-0.384836
-0.408246
-0.0241174
0.00538753
0.00226736
-0.0435592
-0.121687
-0.0269887
0.0879262
-0.079273
-0.04887
0.0722648
-0.215651
0.125297
-0.0607346
-0.216689
-0.0405903
-0.0811933
-0.0566413
0.105569
-0.00190444
-0.26711
-0.358748
0.00217678
-0.0453577
-0.072073
0.122857
-0.424215
0.00128494
-0.0273582
-0.11762
-0.0463032
0.153452
-0.407616
0.0286596
-0.148639
-0.0646187
-0.0159549
-0.00393816
-0.0757615
-0.376883
-0.0216762
-0.0553362
0.0242086
-0.0385822
0.186234
-0.189239
0.0449499
0.411128
-0.155734
-0.0782662
-0.228385
-0.0453785
-0.0798317
0.0854699
0.116946
0.0240029
-0.101214
-0.193173
0.0629144
0.178835
-0.128201
0.441898
0.418024
0.104933
0.0225142
0.0227624
0.0301172
-0.360048
-0.127057
-0.0572092
-0.0465076
-0.0575155
0.0138034
0.0106051
0.0335536
-0.113857
-0.0708645
-0.194205
0.128811
-0.409943
-0.0710843
0.0279358
-0.128729
-0.00724194
0.00238805
-0.264914
-0.00623667
-0.0115492
-0.121494
-0.16556
0.259813
-0.0728849
-0.116804
-0.0207563
-0.141641
-0.0165224
-0.0361457
0.0656042
0.0201043
-0.0323291
-0.167575
-0.285925
-0.0267552
-0.0794815
-0.0113632
-0.0244145
-0.0118
0.434197
-0.0563404
-0.0557219
-0.417363
-0.0275006
-0.136327
-0.0742723
0.00421755
0.123177
0.000978281
-0.0698908
-0.165703
0.0349566
-0.0782906
-0.13468
0.239804
0.0141273
-0.354066
0.0902727
0.406641
-0.0435369
0.148082
-0.285529
-0.0239547
0.315897
0.0338374
-0.162248
0.20812
0.00405686
-0.422727
0.0217836
-0.162319
-0.153269
0.340295
0.0180639
0.067556
0.0439094
-0.126708
0.0577998
-0.0774827
0.081285
-0.10222
-0.0204088
-0.116666
0.0340469
-0.0743027
-0.100306
-0.00208711
-0.0109051
0.484498
-0.0459006
-0.0720268
-0.0366414
-0.0828701
-0.0775242
-0.0739371
0.0102284
0.00380478
0.0257473
-0.0141087
-0.192667
0.040481
0.200266
-0.041076
0.00448165
-0.254921
-0.0561444
-0.0687306
-0.0755351
0.0325814
-0.40652
-0.124063
-0.064528
0.497908
-0.200035
-0.283658
-0.0916201
-0.358429
-0.00143352
-0.175673
-0.400365
0.441622
0.00802612
0.0506126
-0.11569
-0.0794075
-0.0782186
-0.316742
-0.0359514
0.113475
-0.117794
-0.0760477
-0.408555
-0.100154
-0.140415
-0.00953354
-0.165402
-0.0802594
0.00824775
-0.205425
-0.332119
0.0242704
-0.164727
0.00930885
-0.0295636
-0.156317
-0.194417
-0.00508831
-0.0368504
-0.0295948
-0.0263021
-0.0484684
-0.173763
-0.0479271
0.00463782
0.00662187
-0.0841502
-0.0645182
-0.0592348
-0.277138
0.0298987
-0.217923
-0.417034
-0.157524
0.103285
-0.145598
-0.175845
-0.100872
-0.0801636
-0.14042
-0.373488
-0.000345924
-0.341404
-0.0755269
-0.00896318
0.0149366
-0.20782
-0.369868
-0.376656
-0.0281025
0.00572246
-0.0940355
-0.357905
-0.369397
-0.0363686
0.086034
0.502228
0.0252168
-0.109773
-0.423418
-0.112769
-0.357287
0.0369259
0.0044945
-0.00368089
0.105437
-0.115315
-0.096423
-0.0646732
0.0661949
-0.102566
-0.375803
-0.0829533
-0.238264
-0.424049
-0.0887996
0.449801
0.0251618
0.00735246
-0.0841961
-0.0147366
-0.0230964
0.0201107
0.517636
-0.111291
-0.422164
-0.219963
0.0186344
-0.249512
-0.110152
-0.0162478
-0.426324
0.217745
0.103765
-0.036364
-0.408292
-0.334616
0.0231786
-0.314899
-0.149933
-0.41183
-0.358275
-0.166995
0.00295205
-0.038243
-0.292961
-0.0658699
-0.0930339
-0.117145
-0.366124
-0.178166
0.0632126
0.0699698
-0.00138853
0.0494114
-0.388965
-0.0814543
0.0298378
-0.425804
-0.102434
0.00714305
0.0689193
0.00367561
-0.196256
-0.0281886
0.501948
0.0904452
0.000999584
-0.00448404
0.327051
-0.192257
-0.116202
-0.0128492
-0.119907
0.033849
-0.0470594
-0.0775614
-0.362381
-0.0817675
-0.353636
-0.0118745
-0.00443825
0.0037136
-0.0816733
-0.00304709
0.00175944
-0.166324
-0.12341
-0.139167
-0.0235247
-0.316804
-0.0800986
0.00421686
-0.384277
-0.145229
-0.0861348
0.4752
0.00235474
-0.425111
0.0828542
0.0467152
0.0793775
-0.0145962
-0.0946522
-0.00805431
-0.0430576
0.153927
-0.0707935
-0.0820663
0.00962875
0.00016551
-0.0413972
-0.0215421
-0.204978
0.0548773
-0.186459
-0.0557146
-0.189995
-0.0448031
-0.115594
-0.0123777
-0.275744
-0.0340853
-0.0153238
-0.415598
0.321439
0.349534
-0.109001
0.159985
-0.114841
0.0327146
-0.325718
0.0304281
-0.00238728
0.328932
-0.0792644
-0.423143
-0.396448
-0.194867
-0.292513
-0.219037
-0.310192
-0.0160123
-0.0656057
-0.0796945
-0.243329
0.101134
-0.291707
-0.0974706
-0.0378663
0.0413627
0.0112009
-0.29973
0.458053
-0.0536805
0.0152364
0.0196997
-0.0630648
-0.113717
-0.288869
-0.145239
0.0038346
0.394289
-0.192493
-0.248655
-0.164617
-0.0101168
-0.0501242
-0.248107
-0.00368999
-0.191963
-0.0998443
0.0274739
-0.0399285
-0.171756
0.342789
0.0492267
-0.116258
-0.0562933
-0.209763
-0.0717375
0.0510936
-0.0473847
-0.339977
-0.00454322
0.0610806
0.501852
-0.384944
-0.13966
-0.166011
-0.0660106
0.105511
0.0221056
-0.389232
-0.0741915
-0.0324703
-0.0910875
0.00540251
0.00522317
0.516243
0.0236809
0.00338893
0.0140196
-0.135703
0.0529319
-0.0600538
-0.115817
-0.271466
-0.212955
0.0228395
-0.0348791
0.217202
-0.267051
-0.191343
0.125921
-0.190398
-0.11291
-0.312952
0.00524422
-0.322734
-0.0795268
0.00490722
-0.0538402
-0.0143623
0.436148
-0.212115
-0.0353843
0.4951
-0.272989
-0.00728378
0.0510297
-0.0722942
-0.0969869
-0.0805654
-0.0153557
-0.383605
-0.0712253
0.442574
0.0145841
-0.238046
-0.0790502
0.134795
-0.3761
-0.0739093
-0.0140515
-0.0896756
-0.258828
-0.0978838
-0.0758422
-0.311491
-0.0116808
-0.264488
0.000885717
-0.399543
-0.0127203
0.248769
0.0560057
0.0019079
-0.155103
-0.213277
-0.198892
-0.159971
0.0330723
-0.140078
-0.00584694
-0.354454
-0.0827517
0.0330419
-0.0230441
0.159518
-0.029421
-0.126539
-0.12963
-0.319451
-0.142442
-0.0356584
-0.0370277
-0.177069
0.0684067
-0.13402
-0.0127565
0.0179129
-0.317095
-0.219489
-0.176742
0.337596
0.00672696
-0.232558
-0.00753429
0.09304
-0.388658
-0.411265
0.0229703
0.0162689
-0.0795645
0.0987089
0.0488661
-0.156369
-0.260522
-0.0213163
-0.0161373
0.0229651
0.00308265
0.290014
-0.0251651
-0.0707632
-0.190159
-0.0769622
-0.0171015
-0.0876272
-0.317244
-0.101328
-0.0204839
-0.421975
0.0257741
-0.250993
0.159485
0.183282
-0.00608187
-0.310617
-0.398174
-0.0836997
-2.98474e-05
-0.158558
-0.0251199
0.102556
0.0452016
-0.0738387
0.0637737
-0.353938
-0.0899098
-0.135119
0.024779
-0.281935
-0.0777844
0.0056101
0.428164
-0.014898
-0.0661095
-0.105764
0.0433806
-0.380393
0.00726145
0.439955
0.0439976
0.00322854
-0.414147
-0.111019
0.0807476
0.166138
-0.08676
-0.137745
-0.0990172
-0.0674808
0.0304416
-0.0678326
-0.110706
0.0822152
-0.074804
0.0326279
-0.106176
-0.0789728
-0.0458652
-0.15804
-0.0143861
-0.10003
0.0895677
-0.34513
-0.355714
-0.368656
-0.325612
-0.239158
0.0848499
-0.0345958
-0.128277
0.090996
0.0343329
-0.352113
-0.195439
0.0625199
-0.0561898
-0.0745421
-0.0775787
-0.0936259
-0.247844
0.00408505
-0.0660036
-0.0865622
0.0405851
0.007577
-0.100196
-0.0187058
-0.0771469
0.0550469
-0.222918
-0.091504
-0.117928
-0.202548
-0.208074
-0.196171
-0.00931413
-0.130622
-0.109993
-0.421984
-0.0419072
-0.0785899
-0.0871391
0.490626
0.0302955
0.0340412
-0.135176
-0.0814858
-0.413501
-0.328265
0.156904
-0.264735
-0.00221349
-0.0192133
-0.307974
0.281067
0.0269604
-0.196273
-0.0569016
0.0847264
0.0496669
-0.172365
-0.0216954
-0.210085
-0.14652
-0.423152
-0.203407
-0.065649
-0.141226
-0.406096
0.0272766
0.0325054
-0.168023
-0.0129893
0.213404
-0.422372
-0.0844324
-0.118066
-0.107126
-0.0430449
-0.21898
-0.0161669
-0.11741
0.0162609
-0.409953
-0.0170378
0.0325775
-0.101974
-0.198569
0.00287954
0.0339822
-0.406755
0.0425335
-0.155655
-0.01726
-0.364746
-0.305276
-0.138338
0.311964
0.000103025
-0.0775094
-0.107539
-0.118031
-0.0166103
-0.0428009
0.00308698
-0.104855
0.0241493
-0.10163
0.0466972
-0.0209792
-0.340825
-0.0189246
-0.0587801
-0.063875
0.0132793
-0.1039
-0.015282
-0.0382714
-0.176203
-0.0791535
-0.0721687
0.0387233
-0.346226
-0.0799243
-0.195986
-0.00848865
-0.121814
-0.0371914
-0.117088
-0.108734
-0.101246
-0.262938
-0.248813
-0.257596
-0.316063
0.115749
-0.113588
0.0338326
-0.309731
0.0789893
-0.0361971
0.0323823
-0.106746
-0.0147961
-0.224006
-0.129613
-0.102116
-0.284686
0.337736
0.00842893
-0.222375
0.183781
0.0552561
0.0729101
0.0326851
-0.134032
0.0334704
-0.0849037
-0.0179891
-0.0761829
-0.328199
-0.0431755
0.0249011
0.0312264
-0.237683
-0.0123718
0.0306123
-0.0684658
-0.0335451
-0.0695774
0.00523501
-0.082952
0.327293
0.113203
-0.281565
-0.397336
-0.102284
-0.277654
-0.011507
0.0195727
0.0494781
-0.04311
0.143957
-0.0771477
-0.120645
-0.0151936
0.0319279
-0.0734904
-0.180069
-0.0151809
-0.00986956
0.109685
-0.421911
-0.077998
-0.0634585
-0.0652029
0.0181467
-0.283568
-0.107052
0.32812
0.159909
0.0290324
0.0567059
-0.109772
-0.246131
0.0623187
-0.0319668
-0.0569907
-0.10126
0.0599654
-0.384387
0.0120694
-0.136805
-0.017916
0.13046
-0.00878089
0.00199876
-0.277331
-0.326221
0.271454
-0.0697607
-0.423068
0.039463
-0.19752
-0.0803438
-0.0111139
-0.167926
-0.120675
-0.144933
0.0221702
-0.0811606
-0.403829
-0.0328834
0.014246
-0.0846752
-0.0842148
0.0153808
-0.0201558
-0.033005
-0.059101
-0.187417
-0.220552
0.31752
-0.184378
-0.0126835
0.0218681
-0.102273
-0.0144269
-0.106557
0.118367
-0.0340331
-0.142227
0.0168551
0.0306258
-0.255981
0.00483928
-0.329433
0.0201753
-0.353665
-0.0943041
-0.187505
0.0118201
0.00585862
-0.249987
-0.0149041
-0.038944
0.0543619
-0.240958
-0.31673
-0.103426
-0.105115
0.0591531
-0.177916
0.0641665
-0.122879
-0.0279402
0.0193714
-0.425733
-0.122011
-0.342917
-0.0316907
-0.137728
-0.130281
-0.423054
-0.198453
-0.242066
-0.109239
-0.0159817
-0.259408
-0.0268564
-0.026046
-0.217256
-0.108232
0.0858608
0.280709
0.0740985
-0.0015847
-0.0678751
-0.260496
-0.059313
0.00524786
-0.410212
0.0561392
-0.0163262
-0.0731897
0.00283434
0.0163463
-0.194607
-0.211746
-0.419997
-0.0154237
0.0727249
0.00312702
0.398268
-0.0103989
0.455611
-0.166743
-0.0914801
-0.0713179
-0.410686
0.148305
-0.280017
0.477527
0.0181217
0.0570279
0.104808
0.124176
0.494885
-0.198303
-0.379057
-0.0807239
0.508899
0.0261094
-0.137285
0.00194223
-0.425397
-0.0861248
-0.0502552
-0.052546
-0.0375465
-0.00625825
-0.155918
-0.374346
-0.0114149
-0.0460671
-0.00451706
-0.230593
-0.0451517
-0.307392
-0.07256
-0.350792
0.0252502
-0.00581911
-0.154352
0.430511
0.0218586
-0.114588
0.0158087
-0.228936
0.163841
-0.178167
-0.115494
-0.379332
-0.013393
-0.0286369
-0.0956326
-0.071816
-0.0707113
-0.0782322
0.00493145
-0.0683191
0.0218421
-0.00206797
-0.0373443
0.0202157
-0.407074
-0.16714
-0.160839
-0.0764373
-0.258035
-0.266886
-0.0141627
-0.0917118
-0.0148113
0.48625
-0.0336208
0.0477835
0.0224877
0.00102149
-0.0254035
-0.18946
-0.0451553
0.428375
-0.0229077
0.162528
-0.0130731
0.485523
0.0134755
-0.0962482
-0.0856659
-0.123816
-0.380914
0.00130085
-0.101684
-0.167119
-0.00535313
-0.0159227
0.0085197
-0.0779436
-0.374252
-0.0340438
-0.0235621
-0.177398
-0.124075
0.200856
-0.139921
0.0297403
-0.124617
-0.0908824
-0.0132139
-0.189093
-0.0425075
-0.0794381
0.0317975
-0.034058
0.016247
-0.170419
-0.0918723
-0.0145027
0.383309
-0.111313
0.0025631
-0.0230665
-0.00591142
0.403988
-0.181648
-0.160904
-0.0533216
-0.113866
0.013391
0.0285662
-0.0490242
0.0046705
-0.179865
0.0340844
-0.0930187
-0.33067
-0.0948499
-0.0140404
-0.0743319
-0.135229
0.0137733
-0.178991
-0.0934039
-0.154708
0.097717
-0.401276
-0.15333
0.00444575
-0.196054
-0.19343
-0.0611864
-0.308091
-0.092047
-0.0627066
-0.156711
-0.000535937
-0.20217
0.283333
-0.190642
0.00337457
0.0116741
-0.0147463
0.168748
-0.0978183
-0.101828
-0.262922
-0.413773
-0.0736464
0.0155763
0.499936
-0.0884069
-0.180081
0.0232127
0.00457515
-0.124048
-0.0864164
0.0339498
-0.095497
-0.402009
-0.196584
-0.389855
0.342004
-0.200622
-0.0736993
-0.309209
-0.0191233
-0.331237
-0.203477
-0.0314328
-0.0411105
-0.0029334
-0.370918
-0.202684
-0.157519
-0.0341807
-0.368586
-0.0230481
-0.228269
-0.0855711
0.0264669
-0.098359
-0.280635
-0.107985
-0.151683
-0.0412768
0.0335416
0.055607
-0.107761
-0.0951848
-0.360714
-0.182536
-0.0170816
-0.425611
-0.239075
-0.0762491
0.00163865
0.00693304
-0.0741162
0.41803
0.00918874
-0.141962
0.305465
0.193118
-0.0756834
-0.110464
-0.335914
-0.206882
0.0418222
-0.0209078
0.294216
-0.0838132
-0.371581
-0.0307148
0.188753
0.323235
0.380574
-0.0380592
0.0148371
0.36827
-0.217231
-0.346357
0.407622
-0.070402
0.00657941
0.416485
-0.212065
0.0442061
0.282612
-0.186371
-0.0148527
-0.17784
-0.164846
0.424204
0.0166476
-0.0685138
-0.171368
-0.407959
-0.0176749
-0.0548596
-0.00462004
-0.043603
-0.00380432
-0.134844
0.027661
0.0949826
0.386146
-0.0974423
-0.195376
0.0762806
-0.0616765
-0.0390644
-0.325676
0.272417
-0.391388
-0.0228187
0.109747
-0.38332
0.332738
0.0394629
0.0773752
-0.228124
-0.158282
-0.24517
0.00455663
-0.00110821
-0.00606483
-0.201467
0.011447
0.466848
0.487526
0.400788
-0.0584866
-0.273016
-0.381235
-0.00213215
-0.309572
0.0259454
0.224134
-0.0104211
-0.0304088
-0.146591
-0.294141
0.0031572
-0.408573
-0.236732
0.327523
-0.256304
-0.0112273
0.00720207
-0.0917892
-0.0457917
-0.411944
-0.404193
0.0375618
-0.259451
0.00113065
-0.0217307
-0.0256865
0.0230052
-0.381191
-0.0528715
-0.361125
0.297029
-0.0384326
0.443856
-0.363654
-0.0785651
-0.374256
-0.0558815
-0.0279538
0.0221258
-0.0460739
0.466496
0.354849
-0.277428
0.0210848
-0.0423381
0.127742
0.0040992
-0.0932316
0.075949
0.175661
0.240773
0.0438917
0.00515184
-0.0160579
-0.135312
0.0020267
0.0110664
0.323799
0.0491539
-0.00402909
-0.137542
-0.00415411
-0.343554
-0.0810907
0.486418
0.0296571
0.31355
0.0165081
-0.133863
-0.0443129
-0.0438616
0.115166
-0.359694
-0.0799716
0.317044
-0.0290069
-0.0990265
-0.131775
-0.0740348
-0.274158
0.0217097
-0.278466
-0.216003
-0.0152857
0.26772
-0.239505
0.33322
0.018095
-0.1502
0.429456
-0.228971
-0.191018
-0.0341207
-0.165376
0.0274153
0.00497107
-0.0811757
-0.12142
0.00627516
-0.077949
-0.391203
-0.0958161
-0.403022
0.412584
-0.356839
-0.280614
-0.0152234
-0.0520255
-0.0221977
0.130653
-0.228681
-0.248341
0.0471958
-0.000904406
-0.023057
-0.337014
-0.105615
-0.137094
-0.0856686
0.350042
-0.42486
-0.320063
0.00930371
-0.416634
0.0265469
0.106699
0.139791
-0.0888344
-0.116635
0.105696
-0.0444752
0.282311
-0.0822294
-0.0879371
-0.407774
0.161931
-0.07106
-0.0814062
0.0228371
0.477201
-0.160475
0.0592506
-0.382564
-0.419391
-0.0924044
0.102881
-0.0861878
-0.417771
0.0109151
-0.0260856
-0.0143725
-0.0125916
0.0573894
-0.425646
0.04659
-0.168688
-0.000235989
-0.0311273
0.448683
-0.036767
-0.0159904
0.01388
0.0258163
-0.182774
-0.0213337
-0.425877
-0.0342276
-0.051305
-0.0381757
0.0499726
0.364429
-0.0218102
0.00797842
-0.0187283
-0.073816
0.298929
-0.0617183
-0.0857211
-0.00130975
0.0859202
-0.0911743
-0.27955
0.0682616
0.0129844
-0.0265204
-0.0191128
-0.295787
-0.000700012
-0.0246052
-0.0637106
-0.34786
-0.0011067
0.175759
0.0410017
0.0149679
-0.11842
-0.420023
-0.111181
-0.123455
-0.0634003
-0.0949993
0.0427948
0.346836
-0.261907
-0.0409354
-0.167525
-0.077398
-0.108397
0.0459167
0.0246331
0.484196
-0.0584322
-0.273928
-0.16641
-0.0223753
0.0182978
-0.421688
-0.0713272
-0.0980721
0.0519825
0.00962981
-0.422794
-0.213755
-0.0179497
0.00589062
-0.0332619
0.0134769
0.0162347
0.0325635
0.176879
-0.208032
0.0103422
0.0425463
0.450953
0.00842226
-0.26663
0.0499158
-0.0342464
-0.0782459
0.00254284
-0.197085
0.0579132
0.245191
0.0120704
-0.0286558
-0.343535
-0.38163
0.00331385
-0.100461
0.202345
0.0165533
0.081438
0.00605546
-0.0437835
-0.310416
-0.238514
-0.0705124
-0.137055
-0.0432288
-0.41237
-0.160332
-0.0325679
-0.273642
0.0596963
-0.124838
-0.161318
-0.0756923
-0.350878
-0.240257
-0.087074
-0.0245285
-0.0623857
0.0983056
-0.0216865
-0.025816
-0.0889009
0.303721
-0.0238658
0.107376
-0.119777
0.0681072
0.417256
-0.0920013
-0.0746818
-0.315964
-0.361702
0.169229
0.100533
-0.0854275
-0.424742
-0.144074
0.0720237
-0.0225412
-0.00770326
-0.0185138
-0.0913477
-0.116211
-0.21773
-0.0276065
-0.323973
0.00427757
-0.0774114
-0.0770875
0.313845
-0.226392
0.318171
0.376105
0.0566374
0.16384
-0.0041373
0.1175
0.0114321
-0.0352008
-0.100302
-0.0976344
0.0134301
0.0946925
-0.22859
-0.00684799
-0.0259388
0.112377
-0.425644
-0.21193
-0.153207
0.202013
0.00562692
-0.0706823
0.192564
-0.0429031
0.0289623
0.00227232
-0.0300129
0.0324739
-0.0629211
-0.188726
0.00225998
-0.0204977
0.226156
-0.0020272
0.105264
0.135375
0.0225433
0.00970322
-0.425779
-0.0157139
0.020829
-0.0165649
0.0668841
-0.0177353
-0.360007
-0.0535591
-0.263141
-0.000214193
-0.0279188
-0.0356096
-0.327412
-0.0782806
0.0349535
-0.0230233
-0.183968
0.102051
-0.141761
-0.00440406
-0.219838
0.0104337