/*--------------------------------*- C++ -*----------------------------------*\
| =========                 |                                                 |
| \\      /  F ield         | OpenFOAM: The Open Source CFD Toolbox           |
|  \\    /   O peration     | Version:  v2012                                 |
|   \\  /    A nd           | Website:  www.openfoam.com                      |
|    \\/     M anipulation  |                                                 |
\*---------------------------------------------------------------------------*/
FoamFile
{
    version     2.0;
    format      ascii;
    class       volScalarField;
    location    "500";
    object      k;
}
// * * * * * * * * * * * * * * * * * * * * * * * * * * * * * * * * * * * * * //

dimensions      [0 2 -2 0 0 0 0];


internalField   nonuniform List<scalar> 
13917
(
0.000165267
0.000149668
0.0694988
0.000154975
0.000148645
0.00019214
0.0692282
0.0680935
0.0628606
0.000172458
0.000198468
0.000187371
0.000155179
0.0129806
0.000155504
0.000154516
0.000150024
0.00017252
0.000187268
0.000148654
0.000149774
0.0683962
0.000148501
0.0683217
0.000148079
0.0696515
0.000161572
0.000164336
0.000205955
0.000181218
0.000166697
0.000157873
0.000160103
0.000154492
0.000148271
0.0332025
0.000148567
0.042003
0.000158977
0.0262854
0.000147362
0.000149902
0.000145411
0.000168148
0.000149564
0.000155872
0.000172205
0.000177458
0.000392482
0.000147978
0.000158541
0.00014981
0.00045456
0.000154806
0.000150073
0.000157706
0.000195398
0.000148616
0.000155333
0.000149365
0.0626719
0.000149695
0.00615333
0.00014857
0.000190867
0.0111795
0.000148667
0.000148569
0.00019009
0.000163019
0.000148687
0.0629195
0.0350182
0.000148088
0.000409012
0.000196143
0.0249182
0.00015168
0.0685563
0.00014956
0.000149327
0.000148705
0.000189164
0.0459312
0.0456106
0.000151457
0.000149148
0.00436368
0.000158183
0.000145384
0.0386481
0.000177765
0.000148149
0.000151399
0.0068882
0.000188722
0.000186868
0.000176015
0.000213373
0.000170078
0.000146634
0.000158575
0.000168021
0.00015276
0.000146809
0.0637102
0.0001924
0.000178025
0.000150072
0.000167711
0.0436727
0.0297087
0.000193071
0.0636685
0.000151156
0.000426943
0.000147915
0.00026034
0.0291627
0.000154788
0.000149822
0.000189519
0.0305053
0.000163711
0.000147772
0.000151099
0.000149344
0.000147841
0.000145432
0.000190497
0.0470297
0.000150988
0.000149659
0.000149825
0.000138306
0.0686248
0.000165378
0.000170746
0.000148618
0.000154627
0.0169183
0.000147244
0.000150412
0.000170254
0.000148577
0.0582732
0.000209926
0.000149663
0.000146881
0.000158333
0.000176217
0.000430867
0.000186049
0.000163696
0.000157429
0.0221745
0.000162228
0.0281716
0.0209501
0.000199534
0.000153144
0.000161833
0.00014956
0.000186366
0.000192552
0.000204622
0.000152675
0.00017598
0.000148671
0.000159035
0.000164301
0.0252188
0.00019694
0.000150881
0.0526556
0.000164772
0.0501333
0.000304882
0.0551435
0.000148036
0.000178657
0.00016742
0.000147237
0.000149082
0.000158162
0.0715235
0.000206539
0.0290427
0.000164915
0.000199247
0.00810946
0.0512217
0.000203675
0.00014857
0.000171936
0.00016124
0.000153189
0.000148226
0.000180908
0.0007405
0.000158798
0.000148085
0.00017506
0.000176074
0.0307012
0.00015947
0.000148269
0.000148721
0.000175855
0.0716321
0.000150176
0.0684497
0.0226475
0.000199186
0.000146815
0.000198001
0.000174023
0.0262385
0.000147716
0.047527
0.000147942
0.000179882
0.0001472
0.0429073
0.064136
0.000154857
0.000377775
0.000157752
0.000146825
0.0298225
0.000196673
0.000164759
0.0696641
0.0185381
0.000146334
0.00015831
0.0424341
0.0333361
0.000149505
0.000147494
0.0307097
0.000187976
0.000149758
0.0138324
0.000181402
0.000161391
0.000164266
0.000149503
0.000164132
0.0206004
0.000149355
0.000182409
0.000173375
0.000149232
0.000148535
0.000182702
0.0385185
0.000185373
0.000158339
0.000155699
0.00014979
0.0243644
0.0462432
0.0312757
0.000146844
0.0338182
0.0210526
0.037106
0.0672004
0.000198209
0.000149406
0.000147393
0.000172453
0.0357632
0.000184311
0.000154971
0.000113744
0.000178666
0.000145371
0.00724002
0.000148483
0.0554863
0.000158139
0.000149722
0.00015677
0.000163638
0.000161682
0.0188292
0.000160118
0.000149698
0.000237895
0.0693232
0.0547243
0.000147714
0.0361336
0.00014908
0.0001497
0.000147959
0.000225398
0.000148574
0.000181435
0.000163697
0.000148558
0.000175469
0.000152199
0.000340052
0.000164465
0.000176462
0.000148014
0.000148455
0.0412397
0.0274504
0.00014788
0.000147301
0.00478644
0.000147998
0.0377182
0.000147896
0.0453427
0.000151448
0.000213902
0.000164689
0.000448941
0.000152742
0.000164706
0.000184472
0.000156796
0.000187662
0.000198553
0.000149714
0.043764
0.000171584
0.0244714
0.000153741
0.0247733
0.000158969
0.0582416
0.000180554
0.000172484
0.000172058
0.0685856
0.000149415
0.000164806
0.0485329
0.000149286
0.000152503
0.0223209
0.000183932
0.000150757
0.001069
0.000202299
0.000146877
0.0243426
0.0191744
0.000148436
0.000147198
0.000149135
0.000146859
0.000235215
0.0536665
0.000206811
0.0463219
0.000147999
0.000184509
0.00744436
0.000170441
0.0677508
0.039906
0.0640993
0.000146364
0.0266312
0.00014708
0.0300007
0.000149338
0.000464742
0.000181447
0.000156951
0.000149279
0.000175167
0.000180281
0.000177217
0.000676249
0.0524723
0.0207434
0.000164557
0.000171538
0.000147545
0.0369169
0.0679106
0.000148783
0.000222701
0.000148189
0.000212832
0.000151422
0.000149488
0.0001522
0.0642694
0.000152126
0.0429369
0.0119565
0.000195629
0.000192979
0.000149684
0.000194231
0.000190391
0.000148101
0.000185585
0.000149204
0.000148165
0.000181174
0.00014972
0.000148134
0.000147048
0.000209465
0.000149639
0.0288338
0.0697173
0.00529449
0.000203237
0.0492093
0.0257112
0.00017013
0.000148014
0.000192276
0.00015848
0.000159395
0.000148517
0.0575855
0.0702488
0.0702067
0.000154355
0.000183337
0.00015337
0.000159711
0.000177066
0.00015164
0.0284781
0.000150061
0.000148539
0.0417149
0.0487676
0.051488
0.000181537
0.00359807
0.0481029
0.0486689
0.0245776
0.0001456
0.000174237
0.000151737
0.000148864
0.000200845
0.00017272
0.000149564
0.000174426
0.000168636
0.0237103
0.000148071
0.000184399
0.0182148
0.000235844
0.0340816
0.000149693
0.00014884
0.000153027
0.00016225
0.000146367
0.0728038
0.000200877
0.000160094
0.0358527
0.000157641
0.000187145
0.0532325
0.0002113
0.000195158
0.0196601
0.000184668
0.000173769
0.000190567
0.000174234
0.000213502
0.000206784
0.000179246
0.000179837
0.000147942
0.000176679
0.000159168
0.000147001
0.000161472
0.00015198
0.0253959
0.0635903
0.000147891
0.00014564
0.0729467
0.021074
0.000149721
0.0275666
0.000152474
0.000195574
0.000148018
0.0291105
0.00175242
0.000158316
0.00015034
0.0534007
0.000200169
0.0113705
0.000149777
0.0234216
0.00034177
0.00820409
0.000147111
0.0406829
0.0687116
0.000170886
0.00014716
0.00014993
0.000197558
0.000227819
0.000148786
0.000147215
0.000147544
0.000147505
0.0294714
0.000198272
0.000170545
0.000205138
0.000147847
0.00014667
0.000182904
0.0617442
0.00016276
0.000148793
0.00014812
0.000148509
0.00875652
0.0575934
0.000149103
0.000148462
0.025046
0.000173472
0.000164713
0.000148744
0.000152283
0.000156885
0.000179557
0.000192745
0.000206506
0.000192481
0.000181781
0.000144297
0.000176268
0.000147763
0.0240854
0.000148526
0.00015293
0.00015575
0.000167671
0.000169567
0.000146722
0.000237102
0.000183474
0.00635053
0.000181853
0.00016037
0.000169761
0.000149209
0.0598387
0.000216044
0.0620839
0.000149747
0.000160179
0.000206056
0.0415062
0.00705455
0.000176643
0.000184233
0.000154348
0.000153962
0.000148779
0.000165184
0.000168862
0.000149227
0.000173847
0.000172438
0.0628141
0.0134153
0.000153615
0.000186822
0.00169032
0.000157741
0.000149964
0.000441054
0.0528781
0.061387
0.000203175
0.000145535
0.0275482
0.000196302
0.00014707
0.000161108
0.000180361
0.000159565
0.000181048
0.0683987
0.000189836
0.000171218
0.0601922
0.000152582
0.0208518
0.000149567
0.000149054
0.0398852
0.0554825
0.000205843
0.000152584
0.00015073
0.000148463
0.000178965
0.000454028
0.000204633
0.000154276
0.000194501
0.000174945
0.000148058
0.000353498
0.000204993
0.0320046
0.00014766
0.000189101
0.000151901
0.0162773
0.000172978
0.00016951
0.00016039
0.000147003
0.000146865
0.000149495
0.000173483
0.00015613
0.000205421
0.000519329
0.000175602
0.000146934
0.000189391
0.000206728
0.0352011
0.000149226
0.000155739
0.00014726
0.000163499
0.000155562
0.0687325
0.000149503
0.000413663
0.000162796
0.000198279
0.000177553
0.0348863
0.000170272
0.000149779
0.032929
0.0108979
0.000148774
0.000155657
0.00157048
0.000198369
0.000184148
0.000149544
0.000150438
0.000201354
0.000157215
0.000176932
0.000182056
0.000146936
0.00017658
0.0692986
0.000149186
0.000153303
0.000147687
0.0257544
0.000149765
0.000153999
0.0270904
0.000152202
0.0520138
0.000157433
0.00016033
0.000147635
0.000166045
0.000148013
0.000173141
0.00014704
0.000172473
0.000152456
0.0185509
0.000319898
0.0621508
0.000151733
0.000149333
0.00017545
0.000169136
0.0281805
0.0629735
0.000172211
0.000148237
0.000208162
0.000207076
0.0292614
0.000203387
0.00017205
0.0686541
0.000164701
0.00017721
0.000188551
0.000177813
0.000171954
0.000236921
0.000171548
0.000154577
0.000181041
0.000156938
0.000148012
0.000163208
0.000167827
0.000157789
0.000148073
0.00014741
0.000175294
0.00015343
0.000177187
0.000148215
0.000148298
0.000149818
0.000152065
0.000145256
0.000155855
0.000147832
0.0283813
0.000188401
0.000188355
0.000146483
0.000149631
0.000163364
0.000174033
0.000150654
0.0188021
0.000173798
0.00882044
0.000163106
0.000185457
0.000151032
0.000149788
0.000147382
0.000152185
0.0196634
0.000149685
0.000648974
0.000156229
0.00900203
0.00016495
0.000174357
0.000199041
0.000146157
0.000149935
0.00018844
0.000148511
0.000150085
0.00844566
0.000151067
0.000149136
0.000158423
0.000147445
0.000146065
0.000157873
0.000156645
0.0224812
0.000163012
0.000149184
0.000147123
0.0451435
0.000173364
0.000149482
0.000149747
0.0123444
0.00111568
0.0217452
0.000160336
0.000154588
0.0001464
0.000145938
0.000179492
0.000163615
7.04969e-05
0.000154041
0.0400438
0.000150164
0.000152443
0.0186513
0.000148242
0.000159442
0.000148443
0.000148423
0.000167085
0.000161881
0.000150982
0.0542352
0.0346905
0.000177933
0.000147753
0.000145875
0.000200193
0.000766686
0.000149718
0.000148003
0.000145819
0.000166729
0.000148267
0.000148267
0.000232488
0.000149301
0.0548429
0.00016604
0.000149815
0.000145641
0.000148797
0.000147536
0.000153055
0.000429493
0.000148915
0.000147819
0.0606755
0.0617259
0.000172057
0.000168653
0.000176565
0.000156016
0.00014736
0.000156429
0.0288438
0.00017318
0.000148775
0.000150155
0.0634997
0.000165532
0.0531287
0.000149769
0.000150839
0.0226729
0.000164216
0.00015122
0.0174544
0.000284122
0.000147491
0.00018697
0.000147364
0.000149145
0.000146431
0.0370448
0.000145167
0.000149444
0.000147357
0.0582712
0.00015744
0.000195484
0.000165614
0.00014832
0.000158849
0.0001491
0.0480844
0.0001476
0.00014903
0.000149144
0.000200314
0.000149088
0.000189818
0.0299461
0.0703804
0.000155364
0.0151529
0.0315526
0.000148417
0.0228552
0.0727456
0.0352405
0.0488564
0.0601039
0.00727371
0.00018831
0.000150045
0.0672695
0.000164001
0.0663446
0.000146945
0.00014816
0.000149539
0.000149051
0.000157244
0.000158333
0.0312943
0.000148068
0.00014845
0.0104166
0.000186367
0.000148793
0.000160678
0.00015992
0.000150151
0.000310659
0.000161005
0.000152575
0.000157243
0.0286873
0.0228787
0.000254654
0.000148146
0.00020023
0.000183428
0.0332093
0.0645118
0.000198111
0.000148039
0.000151205
0.000150148
0.000144857
0.000152259
0.000145506
0.000156986
0.000164204
0.0404515
0.000186208
0.000149494
0.000184871
0.049659
0.000166076
0.000149683
0.0221536
0.00014842
0.000149844
0.000160661
0.0418366
0.000149087
0.000147687
0.0675817
0.00479027
0.00141342
0.000182936
0.0296578
0.000147532
0.000192208
0.000149809
0.000147833
0.000149805
0.071958
0.0262896
0.000147914
0.000145644
0.000148592
0.00219286
0.000151827
0.000160448
0.000148488
0.000150412
0.000192032
0.000148443
0.0001736
0.000195281
0.0526979
0.000149078
0.000171712
0.000153825
0.0329042
0.0473653
0.00014811
0.0398363
0.000177306
0.000265387
0.000149082
0.0634075
0.000149602
0.000157442
0.000166248
0.000182902
0.0723444
0.036519
9.71696e-05
0.0546362
0.000146882
0.000216094
0.000148252
0.000156926
0.0667073
0.00014893
0.00014966
0.000151549
0.00015
0.0384933
0.000146017
0.000148429
0.00017674
0.000169032
0.000172891
0.000204356
0.000217282
0.0189326
0.000192984
0.000165001
0.000176645
0.030078
0.000172282
0.0246785
0.0686232
0.000157351
0.000148517
0.0495367
0.0319465
0.000149675
0.00018381
0.000163131
0.000150998
0.00015774
0.000150172
0.000166391
0.000149943
0.000171813
0.000170904
0.000147109
0.000174147
0.000148229
0.000166784
0.000147013
0.000154948
0.000174497
0.000153749
0.000149904
0.000147939
0.000289521
0.000175533
0.0498632
0.000148137
0.000149539
0.000175763
0.000148425
0.000180602
0.000175502
0.000150995
0.000181499
0.000148099
0.029324
0.000149571
0.000170912
0.0252264
0.000212543
0.000147588
0.000152739
0.0255031
0.000147853
0.000147336
0.037199
0.0412743
0.000153037
9.33062e-05
0.000148586
0.000149904
0.072373
0.000151984
0.00014622
0.000159323
0.000148348
0.0114464
0.00014928
0.000146192
0.000149492
0.000217636
0.0425629
0.000149058
0.000149702
0.000147524
0.000155239
0.000148389
0.000227544
0.000173629
0.000149774
0.0562023
0.000165052
0.000223428
0.0508711
0.000435414
0.000147734
0.00014954
0.000148787
0.000206559
0.000155698
0.0419366
0.0299668
0.000152697
0.0660266
0.00031796
0.000172186
0.000231104
0.000169106
0.000189457
0.0724737
0.000167299
0.000378164
0.0487585
0.000184769
0.000154621
0.0312036
0.000164319
0.000147086
0.000153098
0.0543197
0.000163027
0.000147823
0.000166369
0.000182248
0.000164495
0.0321372
0.000153058
0.0465469
0.000175611
0.0256879
0.000185719
0.000201553
0.00015941
0.000147977
0.000150841
0.070378
0.000147817
0.000152956
0.000147093
0.000152321
0.000148226
0.000160507
0.00021059
0.000296942
0.000163002
0.000165106
0.0706388
0.00019043
0.000148282
0.00237692
0.0724592
0.000146696
0.000147283
0.000160887
0.0227266
0.000149674
0.000176498
0.000208454
0.000166758
0.00014869
0.000153432
0.000148504
0.00018377
0.00016321
0.000147769
0.0198789
0.068615
0.0001637
0.000113978
0.000185805
0.000915935
0.000152099
0.000156369
0.0735693
0.000257324
0.000198279
0.000264534
0.000158274
0.000149839
0.000149223
0.000149678
0.000148372
0.000150517
0.000166755
0.00014763
0.000190371
0.000147436
0.000158925
0.000148044
0.000174526
0.000194481
0.000292899
0.00014832
0.000201484
0.000149211
0.0723406
0.000148168
0.0001544
0.000148729
0.000165171
0.0317836
0.000224357
0.000147629
0.000186171
0.000148768
0.000159433
0.039104
0.000148973
0.000149841
0.000168238
0.000161109
0.0668603
0.000147647
0.000158429
0.000153704
0.000148128
0.000158829
0.000150534
0.000146204
0.000152354
0.0225749
0.000154314
0.000579747
0.0604481
0.000171891
0.0454546
0.000153964
0.000146238
0.000159059
0.0203098
0.000154116
0.000162321
0.000171454
0.00156706
0.000147429
0.00321137
0.000174529
0.000176745
0.000146623
0.000145712
0.000116943
0.000150007
0.000149904
0.00015924
0.000146937
0.000153318
0.000158608
0.000182766
0.000181712
0.0699127
0.000158392
0.000181791
0.0535727
0.0243559
0.000170533
0.00018153
0.0217823
0.000166841
0.0462428
0.000152277
0.00690135
0.00359811
0.000147091
0.000149724
0.000147534
0.000151834
0.000167908
0.000148134
0.00015262
0.000199595
0.000152798
0.000160472
0.0355537
0.000157753
0.000154774
0.06291
0.000151212
0.0272931
0.000156033
0.000165177
0.000147372
0.0230144
0.0273258
0.000148799
0.000152145
0.0659658
0.000157379
0.0145221
0.000147996
0.000148371
0.0636649
0.000151931
0.000162609
0.00973472
0.000148428
0.000172532
0.000159022
0.000145714
0.000147179
0.0675858
0.029753
0.000149916
0.000153571
0.000148737
0.000156508
0.000160188
0.0234162
0.000150682
0.000329054
0.0373974
0.0282595
0.000274496
0.000151733
0.000208172
0.000178262
0.000157136
0.000148314
0.000180322
0.0375369
0.000151991
0.000162875
0.0673505
0.00046008
0.000183677
0.000154069
0.000149678
0.000149614
0.000148511
0.0237856
0.000174385
0.000154562
0.000152463
0.000154529
0.000149797
0.000148295
0.000148471
0.000181332
0.000174289
0.0555893
0.000163566
0.0093084
0.045432
0.000158815
0.000172416
0.000146594
0.000157765
0.0196919
0.00014946
0.000152818
0.000173426
0.000184234
0.000164777
0.0671582
0.00517164
0.00014841
0.0387476
0.000145493
0.000150298
0.000163936
0.000149817
0.000149352
0.000189964
0.0346049
0.00014836
0.0734042
0.000149427
0.000147688
0.000152651
0.000352712
0.000158896
0.000156053
0.0596861
0.000151792
0.000131637
0.0557752
0.000149608
0.000163735
0.000147914
0.0294957
0.000176735
0.000148544
0.0712959
0.000173321
0.000167997
0.000149855
0.0259999
0.000157413
0.000188482
0.000153059
0.00016743
0.0240454
0.000147802
0.000249396
0.000149001
0.00017432
0.00016402
0.000149601
0.0299164
0.000152614
0.000183928
0.000173484
0.000169592
0.000162943
0.00016322
0.000150534
0.0676258
0.000159299
0.0243071
0.000158071
0.000181309
0.000148914
0.000167457
0.000148609
0.000194381
0.0718294
0.000151219
0.000147334
0.000454896
0.000151932
0.0549536
0.0001509
0.0735694
0.0297643
0.000162993
0.000147793
0.00014748
0.000148666
0.000145571
0.000182781
0.000165901
0.000160925
0.000155825
0.000148436
0.000177647
0.000153755
0.000162292
0.0493189
0.00014849
0.0195912
0.000173068
0.000165194
0.000250921
0.0335067
0.000238889
0.0732275
0.000865962
0.000147418
0.000195928
0.030677
0.000187152
0.000149094
0.000149433
0.000189198
0.0704619
0.0282351
0.000221443
0.000151101
0.000164404
0.000167369
0.0530149
0.00290755
0.000170977
0.000187079
0.000153298
0.000175122
0.000199693
0.000149036
0.000182788
0.0123498
0.000148787
0.0223581
0.00014967
0.000149131
0.0297171
0.041457
0.000146819
0.000151385
0.000150788
0.00014832
0.000166143
0.000190601
0.000153334
0.000147766
0.00014855
0.000173017
0.00015804
0.000157726
0.000236038
0.000148308
0.043626
0.0164276
0.0547424
0.000175464
0.00017136
0.00123043
0.000163563
0.0671468
0.0208862
0.000526048
0.000150375
0.0730923
0.046384
0.00014631
0.000148093
0.000181551
0.0536401
0.0198465
0.000148393
0.000148775
0.0499724
0.000799839
0.000370435
0.000153641
0.000152669
0.00029161
0.00014941
0.0521207
0.0297714
0.030922
0.000286331
0.00014874
0.000147577
0.000147049
0.000155046
0.0352783
0.000170474
0.000157623
0.000150496
0.000172362
0.0237875
0.000173218
0.0412465
0.0134873
0.0279807
0.00031227
0.000148275
0.000149085
0.0736741
0.000145899
0.000146995
0.000151688
0.000391581
0.000165925
0.039074
0.000186925
0.00014805
0.0621948
0.000165996
0.000148212
0.0155823
0.000175901
0.000154014
0.000150071
0.00555793
0.0547434
0.000149137
0.0272736
0.0408364
0.0625227
0.000286392
0.00017503
0.00014794
0.000151143
0.00034723
0.000156067
0.0729748
0.000166926
0.000317316
0.000165943
0.000151101
0.000157558
0.000148086
0.000150751
0.0559545
0.023128
0.000148489
0.0203557
0.000171398
0.0001488
0.000153884
0.000147464
0.000190282
0.000150721
0.000315965
0.000164707
0.000147908
0.000146955
0.000169774
0.0185283
0.000166484
0.000153475
0.000167347
0.000148559
0.000152481
0.000159395
0.0192999
0.0367159
0.054621
0.00014615
0.000146911
0.000150168
0.000206502
0.000147126
0.000150325
0.000190213
0.000175953
0.0102194
0.000146898
0.0533877
0.0373024
0.000149885
0.0183889
0.000184866
0.000169887
0.000318657
0.000149993
0.0351556
0.000157745
0.000151497
0.000152707
0.000145858
0.0136639
0.000153046
0.000152653
0.000157917
0.0429188
0.0446417
0.000149621
0.000148025
0.000153014
0.000149064
0.000187021
0.00015004
0.000179226
0.000153746
0.0361421
0.000152096
0.0629672
0.00014621
0.0651802
0.000150679
0.000145787
0.0642446
0.000184718
0.00017195
0.0317369
0.000162456
0.000168056
0.000148459
0.0318043
0.000148489
0.000147154
0.000168657
0.000189441
0.0465025
0.0389291
0.000185363
0.0387531
0.000186537
0.000256458
0.000149392
0.000155562
0.000159948
0.0442559
0.000153744
0.0458092
0.0324824
0.000150471
0.000148796
0.000148616
0.000359541
0.000425471
0.00015328
0.000148625
0.000155269
0.000158181
0.000166357
0.000213534
0.000191411
0.0001483
0.000203801
0.000178811
0.018432
0.000177049
0.000152305
0.000153724
0.0606574
0.000147024
0.000180153
0.0711505
0.000150965
0.000155423
0.000190676
0.000173254
0.000150903
0.0224022
0.000154516
0.000218445
0.000176236
0.00015846
0.000152112
0.0526362
0.000146916
0.000170953
0.000262966
0.059768
0.00017077
0.000174309
0.000157825
0.000163809
0.000149758
0.0619542
0.000158668
0.000149377
0.000160533
0.000148502
0.000149777
0.000393314
0.000148361
0.00014912
0.000148784
0.000187826
0.00014954
0.000161625
0.000180919
0.000196323
0.000184702
0.000149666
0.000182642
0.000193147
0.000197355
0.000178592
0.000155923
0.000189432
0.0698088
0.000228636
0.000149888
0.00547143
0.0729115
0.000149883
0.000154124
0.000145738
0.000218068
0.000181876
0.000149803
0.000252757
0.0440218
0.000146587
0.000149429
0.0662993
0.0355365
0.00018953
0.000145957
0.00917483
0.0515035
0.000494274
0.00014803
0.0454326
0.000197752
0.000167342
0.0479234
0.000157082
0.000145818
0.000160371
0.000193482
0.000162631
0.0703569
0.0549002
0.000147332
0.0425042
0.000196622
0.0354618
0.000146217
0.000163813
0.000149679
0.000147963
0.0528823
0.00212992
0.000209677
0.0271072
0.000158055
0.000171213
0.00015101
0.0597812
0.0264304
0.000148496
0.000150108
0.000158461
0.000148669
0.000172718
0.0629492
0.037325
0.00017156
0.000150905
0.000150313
0.0506143
0.000154169
0.000172766
0.000147167
0.00015158
0.000233524
0.00224546
0.000172022
0.000361293
0.000149073
0.000207844
0.00015176
0.00016384
0.0497116
0.0200009
0.000148383
0.000149958
0.000169801
0.000154675
0.000149344
0.0569245
0.044673
0.000147744
0.000145206
0.000149214
0.000147622
0.000331907
0.000147797
0.0688519
0.000182788
0.000190494
0.000148133
0.000166829
0.0580801
0.000164044
0.000193236
0.0477579
0.000149643
0.0219256
0.000159058
0.000159776
0.000188722
0.0238728
0.0348907
0.000185824
0.000147475
0.000187625
0.000147843
0.000154157
0.000149393
0.0687992
0.000159225
0.000243759
0.0282163
0.000170793
0.000148746
0.000202481
0.000158497
0.000149786
0.000182361
0.000145398
0.00017543
0.000163463
0.000149281
0.0314924
0.000152371
0.000203621
0.000151043
0.000147461
0.0562849
0.0495615
0.000152981
0.000158684
0.000171636
0.000171054
0.000180167
0.000158954
0.000155337
0.000156039
0.00272083
0.000154204
0.0709994
0.000166595
0.0182347
0.00020844
0.000151792
0.0587097
0.000145418
0.0709138
0.000153009
0.0500157
0.000160549
0.00151629
0.00104795
0.000213371
0.000168218
0.000149658
0.060803
0.000169433
0.000148514
0.0213577
0.0602019
0.000151804
0.000154553
0.000160365
0.000160395
0.000163894
0.0278054
0.000149883
0.000165256
0.000167907
0.00015964
0.000149031
0.000187823
0.000145885
0.072483
0.000152564
0.000187041
0.000161516
0.000167063
0.000181438
0.00240067
0.000179107
0.000147318
0.000185757
0.0651175
0.0576396
0.000151096
0.0732472
0.00015983
0.000292837
0.000148488
0.000153783
0.0499856
0.000182026
0.0269959
0.0238549
0.000159189
0.0589914
0.000148545
0.000145854
0.0198424
0.000165103
0.00015375
0.0616427
0.000157169
0.000163466
0.00015799
0.000175325
0.00014981
0.0478473
0.0643554
0.00871544
0.00021562
0.000156023
0.000171066
0.0287264
0.000153281
0.000149815
0.000175346
0.000146194
0.000183421
0.0497111
0.0249469
0.0261186
0.000177285
0.000151321
0.0474084
0.000145496
0.000181042
0.000149551
0.0338479
0.000153235
0.000164491
0.0419787
0.000184979
0.000148037
0.000159613
0.0121287
0.000148842
0.000187916
0.0001475
0.012594
0.0468779
0.000185116
0.000167643
0.00014751
0.0178292
0.000194609
0.000166793
0.000147482
0.000151579
0.000148896
0.000177141
0.000148737
0.000187823
0.000149085
0.000147885
0.0732669
0.000148274
0.000157118
0.000156979
0.000149827
0.0480927
0.000148082
0.000161511
0.0474511
0.000180941
0.0691758
0.000148725
0.0554683
0.000182028
0.06014
0.000152845
0.000189579
0.000150507
0.000168252
0.000191949
0.000193256
0.000200761
0.0430353
0.000197642
0.000379013
0.000155688
0.000189064
0.000163197
0.000261602
0.000154074
0.000150286
0.00014846
0.000175795
0.000164893
0.000132363
0.000173456
0.0716686
0.0209399
0.000170282
0.000148609
0.00354739
0.00017818
0.000150184
0.000152991
0.000148825
0.0640198
0.000148456
0.0199393
0.000148143
0.000159137
0.0333112
0.000170259
0.000148242
0.000148394
0.0203516
0.000148031
0.000153239
0.000156053
0.000160785
0.000158028
0.0001495
0.000186262
0.000167727
0.000162891
0.000205537
0.0438046
0.0464505
0.02501
0.000146264
0.000148197
0.00017141
0.000151323
0.000163452
0.072671
0.042055
0.000145904
0.000148421
0.0561791
9.11291e-05
0.000146076
0.000147412
0.000155357
0.0568706
0.0704293
0.00015697
0.000162316
0.000149297
0.000209696
0.000193354
0.000173946
0.00015838
0.000163708
0.000149997
0.000165303
0.000214967
0.000150859
0.00014991
0.000156634
0.0702234
0.000154489
0.0226225
0.000148614
0.0476052
0.000162248
0.00015638
0.000146431
0.000147399
0.000236018
0.0081419
0.000164834
0.0349915
0.0577136
0.000150412
0.042705
0.000221897
0.000148081
0.0369682
0.00715384
0.000184834
0.000149671
0.0499464
0.036542
0.00014934
0.00016283
0.0349711
0.000166245
0.000148842
0.000147769
0.00015068
0.000154454
0.000178643
0.000222114
0.000167486
0.000177327
0.00014653
0.000149449
0.0714317
0.000147863
0.000167877
0.000155304
0.000150523
0.000171259
0.000148048
0.000152774
0.000206143
0.000147842
0.0385324
0.000148054
0.00336692
0.0565196
0.000181288
0.000149716
0.000149948
0.0467817
0.000145784
0.000153977
0.000149825
0.000199868
0.0002462
0.000163259
0.0520394
0.000162779
0.00146399
0.000150326
0.000179258
0.000148438
0.000148847
0.0200157
0.0461906
0.00028605
0.000153328
0.000177745
0.000178401
0.0376766
0.0462414
0.000202229
0.000165855
0.000145438
0.0406064
0.000148824
0.000149077
0.000204437
0.000191006
0.000156994
0.000177868
0.000163963
0.000159804
0.000158007
0.0608482
0.000154639
0.000147797
0.0205315
0.000164128
0.000146562
0.0463625
0.000148082
0.000148641
0.000190357
0.00018419
0.0411865
0.000146649
0.000153901
0.000147563
0.000310977
0.000147877
0.000199077
0.027325
0.0538372
0.0449856
0.0133459
0.000157698
0.0352611
0.00022209
0.000149367
0.000158617
0.000162935
0.000157938
0.000247791
0.0362918
0.0504082
0.0584446
0.000358742
0.000149272
0.000184431
0.000148134
0.0197979
0.000159487
0.000153421
0.000154114
0.000151483
0.000147778
0.000183046
0.0515214
0.000146153
0.000153333
0.000146899
0.0316659
0.000153116
0.0679559
0.066776
0.000295733
0.000148553
0.000147849
0.0318652
0.000190254
0.000148844
0.000188773
0.000149502
0.000185234
0.000177304
0.000181446
0.000174277
0.00562628
0.000147189
0.000148518
0.0031669
0.0492481
0.000159339
0.000166344
0.000147961
0.0245973
0.000148059
0.000147564
0.000152409
0.000148284
0.007496
0.0373657
0.00673981
0.00018895
0.0471282
0.000236207
0.000145857
0.000162797
0.000146247
0.000252808
0.000149488
0.000154083
0.000148128
0.000147358
0.000148107
0.000386007
0.000152739
0.000277418
0.000146522
0.00015875
0.000157424
0.000264955
0.000148174
0.000162452
0.000168018
0.000171465
0.0767315
0.000147356
0.0340472
0.000174596
0.000164633
0.000150495
0.000147645
0.04721
0.00979127
0.000149564
0.000148579
0.000222296
8.48314e-05
0.000160753
0.0521022
0.000151037
0.0101211
0.000163229
0.000146168
0.0548959
0.00015359
0.0678769
0.000148412
0.000151418
0.000148707
0.0336462
0.0512639
0.000146013
0.00018065
0.000674955
0.000148273
0.000148451
0.000147418
0.000182582
0.0462836
0.000173606
0.000156414
0.000166295
0.000148059
0.000148688
0.000153487
0.000147881
0.000191409
0.000148762
0.000183794
0.000265569
0.000163856
0.000145499
0.0702035
0.000179068
0.000148118
0.000176384
0.000161773
0.00710071
0.000153342
0.0705927
0.00017291
0.000148576
0.000179487
0.000179492
0.000155033
0.0699589
0.000182778
0.000165706
0.0117658
0.000148242
0.000183084
0.00016901
0.000180336
0.000147483
0.00014828
0.000145741
0.00015903
0.000179243
0.000177705
0.0312224
0.0313347
0.0679218
0.000149772
0.000296401
0.0605479
0.0515626
0.000148179
0.000148799
0.000174131
0.0693159
0.000153425
0.000166672
0.010845
0.0273729
0.00334867
0.000171432
0.000191321
0.0540998
0.000248039
0.000145936
0.00154394
0.000198756
0.000150451
0.000150844
0.000151394
0.0588538
0.000181282
0.0640715
0.000153655
0.000106482
0.000149714
0.000104091
0.04009
0.000149518
0.000165051
0.0399234
0.0703586
0.000172388
0.000151898
0.000152741
0.000149949
0.000183462
0.000197165
0.000276337
0.0495394
0.000146998
0.0171061
0.00018842
0.0416015
0.000148054
0.000149032
0.045125
0.000182597
0.000148156
0.000170767
0.000167041
0.000161096
0.0720575
0.0684679
0.0595821
0.0463022
0.000154883
0.0001466
0.000166091
0.0328805
0.0155659
0.000149161
0.000182463
0.000168849
0.000193355
0.000151875
0.000149701
0.00023841
0.00290617
0.000134892
0.000274453
0.0356894
0.000147611
0.000182234
0.0451347
0.000149513
0.00016564
0.000183227
0.000146135
0.000190227
0.0610852
0.000180166
0.000149693
0.0295008
0.000184298
0.0400987
0.000144887
0.000154477
0.000149566
0.00015395
0.00014943
0.000170356
0.000162867
0.000162641
0.000185562
0.000164772
0.0348481
0.000154371
0.000164611
0.000157961
0.0196585
0.000164984
0.0321918
0.000157831
0.000156439
0.0110939
0.000169743
0.000148789
0.000162878
0.00324284
0.0638261
0.000218029
0.00014844
0.000147896
0.000148358
6.42321e-05
0.000151971
0.000331846
0.000257161
0.000182142
0.000160906
0.000200803
0.0277998
0.000149404
0.0254609
0.000160353
0.000163813
0.000148558
0.00014902
0.000172368
0.0501007
0.000148414
0.0291831
0.000211843
0.000169867
0.000193407
0.000148006
0.00014801
0.00016104
0.000153031
0.0505963
0.0244021
0.000169424
0.000237564
0.000148393
0.000149521
0.000149914
0.000149608
0.0763263
0.000153086
0.0392967
0.000168856
0.00015198
0.000189616
0.000315626
0.0515278
0.0209472
0.000153686
0.000148366
0.000148779
0.000154846
0.000213588
0.000180263
0.0669538
0.000148958
0.00015133
0.000175859
0.00014971
0.0183193
0.000152409
0.000174743
0.000176085
0.00016279
0.000162946
0.000146682
0.000170085
0.000162465
0.000180052
0.000167721
0.000163172
0.000146976
0.000186087
0.000147731
0.000367192
0.0617831
0.000226541
0.00014883
0.000171094
0.000148609
0.000171419
0.000152188
0.000152399