/*--------------------------------*- C++ -*----------------------------------*\
| =========                 |                                                 |
| \\      /  F ield         | OpenFOAM: The Open Source CFD Toolbox           |
|  \\    /   O peration     | Version:  v2012                                 |
|   \\  /    A nd           | Website:  www.openfoam.com                      |
|    \\/     M anipulation  |                                                 |
\*---------------------------------------------------------------------------*/
FoamFile
{
    version     2.0;
    format      ascii;
    class       volVectorField;
    location    "700";
    object      ddt0(U);
}
// * * * * * * * * * * * * * * * * * * * * * * * * * * * * * * * * * * * * * //

dimensions      [0 1 -2 0 0 0 0];


internalField   nonuniform List<vector> 
13851
(
(-0.000470721 0.000139756 -1.89345e-19)
(-0.0561661 0.112324 -3.88588e-19)
(0.00925374 0.00303337 6.25241e-18)
(-0.000227017 0.000371573 -5.55579e-20)
(0.000126092 0.00445398 2.67856e-18)
(0.02445 0.0245016 1.31457e-19)
(5.18014e-05 0.000202084 -6.04699e-19)
(0.00341407 8.39457e-05 -2.3457e-18)
(2.57526e-05 -0.000129984 -1.23361e-20)
(0.0109039 -0.0151185 -2.05175e-19)
(0.00893871 -0.0816588 -1.03354e-19)
(0.0712289 -0.0484043 -1.31827e-18)
(-0.00835168 -0.00229792 2.59872e-18)
(0.0943489 0.0503837 -1.55967e-18)
(6.8787e-05 2.27874e-05 -1.43761e-18)
(-0.000689802 -0.00152361 2.57391e-18)
(0.000397157 9.05222e-05 3.85838e-18)
(0.00317831 -8.43557e-05 3.07177e-20)
(-0.0126832 0.00764232 -5.41068e-18)
(3.06262e-05 -0.000125144 1.44857e-20)
(-0.000107331 0.000330298 -7.52568e-21)
(0.00801061 0.00351505 -7.85145e-19)
(-0.00015935 1.9421e-06 -1.67841e-20)
(9.97341e-06 -9.22598e-06 8.37377e-20)
(-0.000132894 2.95275e-06 4.76482e-20)
(0.00368164 -0.000292006 -3.80603e-18)
(0.00033679 0.000499467 5.75626e-19)
(0.00172928 0.00166171 -7.23172e-18)
(-0.000348406 2.21863e-05 1.09399e-19)
(0.000682487 0.000601365 4.32192e-20)
(0.036139 0.0223474 9.53728e-20)
(0.000430307 7.10124e-05 -2.07779e-18)
(0.00911267 0.00179482 -3.65074e-18)
(-0.0162419 0.105261 -1.35878e-18)
(1.2574e-05 -1.24059e-05 -4.46847e-22)
(0.00284639 -0.00139948 -1.94797e-17)
(0.00187888 -0.00381625 7.55905e-18)
(0.00334359 0.0209084 5.71057e-18)
(0.0136037 -0.0160618 -1.21657e-19)
(-0.0237245 0.134187 1.40899e-18)
(0.00023308 -2.62509e-05 7.48238e-19)
(-0.000199586 5.48937e-05 2.77309e-20)
(-0.0221778 -0.0220313 -2.08687e-19)
(0.0135443 -0.0758965 6.6119e-19)
(0.00779208 -0.0927498 -3.87274e-19)
(-0.0712276 -0.0767966 3.06178e-18)
(-0.000409269 -0.0636703 -1.0162e-18)
(-0.0134085 -0.136841 2.6732e-19)
(0.000348129 0.00052293 8.54648e-18)
(0.023139 -0.00758858 6.19226e-19)
(-0.000340218 0.00128853 -8.05814e-18)
(-0.00367966 0.000452533 -4.8928e-18)
(0.00563669 -0.0498303 -8.00503e-18)
(7.76957e-05 1.44401e-05 2.4224e-18)
(0.000149671 -3.39809e-06 -1.19013e-18)
(-0.000199415 5.94467e-05 -7.97473e-20)
(-0.000113919 -1.51746e-05 2.12939e-20)
(0.0382341 -0.045845 -5.54121e-18)
(0.000703642 0.000523919 -9.37236e-19)
(9.82436e-05 0.000209502 -1.74986e-18)
(0.00570341 0.0222589 -5.59302e-18)
(-0.0694033 0.0572789 3.82464e-18)
(0.0118174 -0.0137944 -1.79851e-18)
(-0.0013799 0.00462791 -1.90451e-18)
(-0.0159357 0.0653229 -5.20228e-19)
(-0.00129184 0.00093091 -6.17898e-20)
(-0.00206465 -0.00371568 2.88367e-18)
(-0.00876608 -0.0259963 -1.88621e-18)
(0.000723343 0.00108838 5.41071e-18)
(0.00313562 -0.000532699 6.55031e-21)
(-0.0117866 0.000217999 -4.98867e-18)
(-0.00566949 -0.00264044 1.72806e-18)
(-0.0212492 0.101329 3.38921e-19)
(7.47069e-05 1.49783e-05 -3.67239e-18)
(0.000147694 -5.96474e-06 -3.91183e-19)
(8.67788e-06 -0.000165736 1.3298e-19)
(0.00705802 0.00311217 2.13446e-18)
(-0.00104496 -0.00214393 -5.13474e-18)
(0.00139834 0.00186904 -5.85214e-18)
(-0.012172 0.00044338 1.49383e-17)
(0.000157033 0.000235922 2.65509e-19)
(0.00324089 0.0777517 2.42975e-19)
(0.000136591 6.28728e-05 -4.37205e-19)
(-0.0604966 -0.0683687 -6.96345e-18)
(0.0146024 -0.0122343 -1.4649e-18)
(0.0759641 -0.0540996 2.21608e-18)
(0.0174319 0.00900696 -5.45995e-19)
(-0.0300473 -0.0614731 -3.16712e-18)
(0.000528714 0.000343318 1.915e-18)
(-0.000308719 -0.000533281 5.80955e-20)
(0.00263131 -0.00137459 1.78602e-17)
(-0.00848422 -0.00587829 3.58109e-20)
(-0.011321 0.00315892 8.34828e-19)
(0.000727507 0.000480155 2.68403e-18)
(0.000495394 0.000370157 2.46177e-18)
(-7.63024e-05 -8.49907e-06 1.08491e-19)
(-0.000403308 0.00440705 3.24461e-18)
(-0.0208449 -0.0194561 -7.48313e-20)
(0.0252174 -0.0122038 -2.8801e-19)
(-6.76118e-05 -6.26492e-06 -1.32821e-19)
(0.0521722 -0.0661216 -1.41875e-17)
(0.000616554 0.00179899 -4.43916e-18)
(0.000303802 -0.000147867 9.07351e-21)
(0.00011221 0.000601674 -9.81293e-19)
(-0.000101 5.43659e-06 -2.03486e-22)
(0.0201165 -0.00148166 -7.91295e-19)
(0.00027789 0.00176569 -2.27452e-19)
(-0.000171803 5.49821e-05 7.83789e-21)
(-0.00807377 -0.00124234 6.86751e-18)
(0.0201377 0.0314362 9.9094e-20)
(-2.73368e-05 -5.74466e-06 4.93448e-20)
(-0.000246443 -0.000639464 -1.61062e-20)
(-0.0073068 -0.00485955 -9.05112e-20)
(1.15279e-05 -2.15297e-06 -6.32598e-20)
(-3.12949e-05 -6.9663e-06 3.72593e-20)
(0.0821616 0.0257265 -1.37689e-19)
(-0.0205502 -0.0167817 -7.79751e-18)
(-0.000186163 3.28257e-05 -8.39669e-20)
(0.000107234 -7.19914e-06 1.58587e-19)
(0.000148882 -5.71557e-06 6.69199e-21)
(-0.0158197 -0.0272029 2.25524e-17)
(0.000128433 0.00058667 -9.55816e-19)
(-0.0099342 -0.00223597 -9.5561e-19)
(0.0324605 0.0453772 5.24061e-19)
(-0.00837688 -0.111312 4.09434e-20)
(-0.000807024 -0.00228139 -2.21947e-20)
(-0.0244868 -0.0946779 -3.00607e-19)
(0.000965614 0.00192004 3.02685e-18)
(4.06837e-05 0.000395505 4.45076e-20)
(-0.00326133 0.00963728 -6.21451e-19)
(0.000230406 -2.56442e-05 -2.14446e-19)
(9.25722e-05 -4.66101e-05 1.67413e-19)
(-0.011846 0.000154323 9.95061e-19)
(0.000131073 6.11687e-05 1.38802e-18)
(0.0865651 0.0354204 1.66722e-19)
(8.85748e-05 -1.9127e-05 4.71776e-20)
(-0.000186258 3.00595e-05 2.00449e-20)
(-0.00480668 -0.00323804 9.22167e-18)
(-0.0730535 0.151189 7.27419e-18)
(0.0138421 0.1317 -3.06443e-19)
(0.0515971 -0.0769784 1.08576e-17)
(0.000148753 -3.28382e-06 1.09966e-18)
(-0.000634702 -0.00147325 3.72794e-19)
(-0.000286276 0.000147943 1.71628e-19)
(0.000235363 0.000168917 1.54126e-18)
(0.0159409 -0.0566633 1.29908e-18)
(-0.00479088 0.00741141 1.45863e-19)
(-0.00264651 0.0107792 1.75638e-18)
(5.40808e-05 0.000193964 -1.21072e-18)
(0.00365958 -0.104225 -9.73022e-19)
(0.0011045 0.00119646 3.21268e-18)
(0.000148411 -5.40103e-06 -3.90741e-19)
(0.100088 0.0426456 -1.18049e-17)
(-0.000119185 -1.39492e-05 -2.81394e-19)
(0.000271498 0.000285089 3.91201e-18)
(0.000235752 0.000180622 -3.17897e-18)
(0.000173373 -9.79912e-05 9.45702e-20)
(0.000445406 0.000359523 -1.09893e-18)
(-0.0040808 0.000762785 7.03976e-18)
(-0.000341013 0.00145378 9.65665e-18)
(-0.000188609 0.000142961 -5.81887e-21)
(0.000512647 0.000764268 -1.28612e-18)
(0.0311331 -0.0449329 -4.20931e-18)
(8.77136e-05 -4.39726e-05 -6.58147e-20)
(-0.000187984 0.0015385 -1.64439e-18)
(-0.000229957 6.34615e-05 -1.53544e-20)
(-0.00729411 0.00803346 -2.06964e-19)
(0.000683306 0.00113257 -9.45771e-18)
(8.91093e-05 0.000340968 2.95221e-20)
(-0.0208781 -0.0353917 8.22931e-18)
(-0.00103 -0.00127884 8.52395e-18)
(-5.94422e-05 -4.94028e-05 -8.10632e-20)
(0.00017898 -9.24708e-05 -1.2891e-19)
(0.0169581 0.131758 -4.31926e-19)
(8.52476e-05 -3.96885e-05 1.25269e-20)
(0.00440516 -0.142059 6.10475e-19)
(0.00110252 0.0018504 -2.14015e-18)
(0.00074488 -0.00134816 1.78075e-19)
(-0.0122251 0.00570168 -1.19848e-18)
(-0.000175341 6.50714e-05 5.7862e-20)
(0.000467014 -2.15937e-05 -2.97166e-18)
(-0.00590159 -0.00271521 -8.06299e-18)
(0.000119961 5.74606e-05 -2.09124e-18)
(0.00778999 0.00447473 -1.71087e-18)
(-0.000135958 1.78452e-05 -4.04469e-21)
(-0.000145088 -2.5153e-06 2.04865e-19)
(-0.00149131 0.000595052 -2.20997e-19)
(0.00014571 -4.54863e-06 1.09164e-18)
(0.000212332 0.0062601 -1.20436e-18)
(-0.0164882 -0.0183191 -2.4314e-18)
(-0.00178539 -0.0376886 1.03897e-18)
(0.0105811 -0.0482921 1.03002e-18)
(-0.000327228 -0.000950302 1.11918e-19)
(0.000945765 0.00101006 -4.50235e-19)
(-0.0514214 0.0620389 -5.86555e-19)
(0.000261021 0.000256619 -5.14037e-18)
(-0.00057786 -0.00113447 8.10702e-20)
(-0.00358254 0.107849 4.17913e-18)
(0.000471233 -0.00128505 -1.68117e-19)
(8.42128e-06 -0.000171739 9.89454e-20)
(-0.000332833 -0.002427 -1.82721e-19)
(-0.0706567 -0.0541372 2.88878e-18)
(0.00011643 -2.19653e-06 2.35478e-20)
(0.000180239 6.41092e-05 2.26631e-20)
(-0.00469486 -0.0144691 -7.00736e-19)
(0.000122356 6.17818e-05 4.14153e-19)
(0.0209766 0.0556004 -8.89673e-18)
(0.000462874 0.000167054 6.5912e-18)
(-0.00862938 -0.00138234 -6.66897e-18)
(-0.000174382 8.23889e-05 -1.0563e-20)
(-0.00470882 -0.00335034 -1.06705e-17)
(0.000291091 -0.000116806 -2.97026e-19)
(-0.0214403 0.114143 -3.38538e-19)
(-0.000158365 5.40834e-05 2.33553e-20)
(-0.00022875 0.000107411 -9.10611e-20)
(-0.0139261 -0.0604286 1.02137e-19)
(0.0154038 -0.00677265 -1.11308e-18)
(-0.0690211 -0.0818892 -9.3243e-18)
(8.45718e-05 3.4697e-05 -1.31308e-18)
(-0.00827622 -0.00166506 4.98463e-18)
(0.0004866 0.000139584 -4.67353e-18)
(0.000159834 0.000248788 -3.26293e-18)
(-0.0046961 -0.00959436 -7.30241e-20)
(-0.00463311 0.00395871 6.67874e-18)
(-0.0074031 -0.00143975 -3.82084e-18)
(-0.000128217 -1.98164e-06 7.0822e-21)
(0.000908636 0.000567334 4.77362e-18)
(-8.05336e-05 4.04744e-06 4.35528e-21)
(0.0108247 -0.0679998 -4.85023e-18)
(-0.00015769 5.70051e-05 -2.40518e-20)
(0.00347231 -0.000712097 -3.1729e-18)
(0.0506924 0.0290802 -3.5964e-19)
(-6.06426e-05 -4.57638e-05 2.45997e-19)
(-0.000417545 -0.000798535 -2.21546e-19)
(7.7426e-05 0.00124683 4.91488e-18)
(0.00687911 0.00769042 8.75178e-20)
(0.0278312 0.0525217 5.73296e-18)
(-0.0396855 0.0753211 5.48161e-19)
(-0.00025786 0.000145937 6.39722e-21)
(0.000179526 6.81349e-05 1.23508e-18)
(0.0363612 0.0139684 -3.69501e-20)
(0.0312743 -0.032034 -2.89255e-19)
(-0.000460205 0.000475424 -2.29675e-20)
(-0.00461917 -0.016741 1.92214e-19)
(-0.000129913 8.4725e-06 -4.98121e-20)
(-0.0079861 -0.00165026 -4.83136e-18)
(0.000635784 0.00193677 1.78575e-18)
(-0.0162792 0.160232 2.12937e-18)
(0.000224914 0.000204508 3.67672e-18)
(5.88632e-05 -5.59406e-05 2.6907e-18)
(0.0034434 0.00545864 -9.14787e-20)
(0.0331767 -0.0374079 4.4315e-20)
(0.000232332 0.000152508 5.67713e-19)
(0.000221975 0.000187733 -3.46285e-18)
(0.000380052 0.0013681 7.57842e-18)
(-0.0076314 -0.0541633 8.00976e-18)
(-0.0176824 -0.0144778 2.72141e-18)
(-0.0049383 -0.0032686 2.23169e-18)
(0.0288937 -0.00887481 4.19127e-18)
(6.19348e-05 8.82951e-05 5.46615e-18)
(-0.00024576 0.000113497 6.08537e-21)
(0.00242144 -0.0010007 3.68552e-20)
(-0.0755478 0.180034 1.34308e-18)
(-0.000388104 -0.000340961 8.76996e-20)
(-0.0150115 0.0121826 -3.95953e-18)
(0.000266134 0.000242216 -4.29261e-19)
(0.000226077 0.000151049 -1.36453e-18)
(0.000676699 0.000468926 6.02636e-18)
(-0.00453609 -0.00906402 2.54167e-18)
(-0.0117629 -0.00941534 -1.32241e-19)
(0.00439971 0.00482665 -9.98121e-20)
(0.000275393 0.000266118 7.94337e-19)
(0.00792281 0.0897978 7.91227e-20)
(0.00138627 0.00169296 4.03179e-19)
(-0.000875841 -0.00123803 -9.38649e-19)
(9.5251e-05 -5.10513e-05 -8.83918e-20)
(0.00447125 0.0858341 1.21173e-19)
(-0.0194668 -0.00605576 -3.37098e-19)
(-0.00832568 0.000210683 -3.19138e-18)
(0.000408879 -0.0836379 6.01885e-20)
(-0.00040419 0.000586767 4.62413e-20)
(-0.000157017 7.18898e-05 -1.47713e-20)
(-0.000100315 5.79887e-06 -2.19658e-21)
(0.000414864 0.00137593 -2.22374e-20)
(-0.0653102 0.184744 2.02292e-18)
(0.0220219 -0.14381 7.58558e-19)
(3.77643e-05 -0.000146703 -2.80045e-21)
(3.69545e-05 4.77023e-05 -1.2371e-18)
(0.0279551 0.0786311 1.99044e-18)
(0.00335613 0.0884706 3.67418e-19)
(-0.00380305 0.0120224 -9.81734e-18)
(0.000602202 0.000470085 4.42256e-19)
(0.000107163 0.000211161 -2.47656e-18)
(0.000860164 0.00120636 -6.18988e-19)
(0.000567432 0.0843773 4.51957e-19)
(-0.0137008 0.009632 2.13927e-18)
(-0.000313023 0.00105532 -1.4136e-18)
(0.0702485 -0.0686819 -3.54335e-18)
(0.000102727 -5.86467e-05 1.2618e-19)
(-0.00752808 -0.00190596 2.94211e-18)
(0.000483963 0.000731095 2.52723e-18)
(0.000361556 7.25819e-05 9.29097e-19)
(-0.00794739 -0.000320412 9.5927e-18)
(0.000303217 6.49599e-05 -3.96593e-19)
(0.0215587 0.00225688 -3.18163e-19)
(-0.00411372 -0.00585253 1.81892e-18)
(3.84419e-05 -0.000142017 -4.4037e-20)
(0.000526606 0.0013773 2.64303e-18)
(0.000768853 0.000431247 -3.34926e-18)
(0.000612236 0.00041026 1.06119e-19)
(-0.0846929 0.149571 -1.16619e-17)
(-0.000383228 0.0011629 7.40548e-19)
(0.000240864 0.000146066 -1.5509e-18)
(-0.00845317 -0.0128387 -3.28944e-18)
(-0.000207869 5.06477e-05 1.02519e-19)
(8.32133e-05 -0.000114399 -2.59587e-18)
(0.000752832 -0.00316424 4.2486e-19)
(-0.0080639 4.36874e-05 -4.25877e-18)
(0.00185258 -0.000287228 8.79251e-18)
(8.45936e-05 3.89697e-05 3.40641e-19)
(0.000397444 0.00163245 -2.84784e-18)
(6.73606e-05 4.89679e-05 1.48718e-20)
(0.0175237 -0.0114986 -1.0367e-17)
(0.00246143 0.00914862 -2.73715e-20)
(-0.000167393 4.60423e-07 1.28855e-19)
(0.00015934 -0.000139732 -1.5813e-20)
(0.0015848 -0.000305337 -6.01944e-18)
(0.000846352 0.000536307 9.63126e-19)
(0.000258403 0.000315063 -2.64536e-18)
(3.2599e-05 4.33339e-05 1.34986e-18)
(0.000293836 6.9259e-05 1.7224e-18)
(0.000243327 0.000143239 -1.14144e-18)
(0.00897941 -0.0878244 1.34249e-20)
(0.0784474 0.022176 -4.32501e-19)
(-0.0415216 -0.0230467 1.72997e-18)
(0.00331712 -0.00407245 -6.15209e-19)
(-0.00763256 -0.000443388 -5.23019e-18)
(-0.00311068 0.0438002 3.3242e-18)
(7.35783e-05 2.1681e-05 -7.84009e-19)
(0.00102815 0.00102945 1.04261e-18)
(-0.00312768 0.013412 6.7813e-18)
(-0.00679699 -0.0106815 -6.72546e-19)
(0.0133101 0.0123219 -5.1016e-20)
(-0.00232695 0.000264823 7.73524e-19)
(-0.0131957 0.00978828 4.11667e-18)
(-0.00282396 0.0010453 -6.3744e-19)
(-0.0791236 0.225444 4.84447e-19)
(-0.00548867 -0.00375612 -2.73513e-18)
(6.39413e-05 2.08737e-05 1.87468e-18)
(0.0235107 0.00181124 3.38781e-19)
(0.023912 -0.00482708 -3.89831e-19)
(0.024406 0.0181764 9.03886e-19)
(0.000250705 0.000326419 9.73582e-19)
(0.0154342 0.0140697 1.88747e-19)
(0.0149399 -0.0688693 4.70029e-18)
(0.000183518 -9.47627e-05 -5.585e-20)
(-0.078987 0.223742 -5.17526e-18)
(0.000154712 -0.000135075 9.47743e-22)
(6.52604e-05 4.69934e-05 6.89736e-19)
(-0.000137654 1.14155e-05 4.73472e-20)
(-0.000171041 5.78377e-05 -1.78644e-20)
(0.000167256 -8.44014e-05 -1.69063e-19)
(-0.00499867 -0.00394891 -8.09182e-18)
(0.00899862 0.0719952 -1.58709e-18)
(0.000203402 8.92603e-05 5.78255e-19)
(0.000547856 0.00134677 1.09046e-17)
(-0.000206826 5.94013e-05 1.50401e-20)
(0.0595549 -0.0763962 4.79654e-18)
(-0.00327355 -0.0021325 1.93261e-19)
(-0.030087 -0.206566 4.62338e-18)
(-0.0316325 -0.0300827 -9.15557e-18)
(0.000210245 9.03985e-05 -1.60363e-18)
(0.0181898 -0.00719251 6.89098e-19)
(0.00080265 0.000296259 -2.01934e-18)
(-0.0223219 -0.202493 -4.11354e-18)
(0.000222129 -2.70043e-05 -2.27351e-19)
(-0.000189664 3.25987e-05 7.94516e-20)
(-0.00487195 0.00517123 -2.00357e-19)
(0.0538786 -0.0810843 1.06014e-17)
(0.000146173 -5.54951e-06 -7.58589e-19)
(-0.0842415 0.140483 3.58788e-18)
(-0.00899464 -0.00950104 -4.05503e-19)
(-0.00254261 -5.66706e-05 -5.94573e-19)
(0.00248985 -0.0423082 -3.43142e-19)
(0.0317904 -0.0208201 -3.04039e-19)
(0.0324381 -0.00920609 2.14194e-19)
(0.00456934 -0.000602516 -2.25825e-21)
(0.000117947 -5.58745e-05 -2.60984e-19)
(5.76712e-05 1.02255e-05 1.86872e-18)
(0.0025316 -0.0035418 3.03652e-19)
(0.000393565 0.00155436 -2.91146e-18)
(0.0968222 0.0584021 5.42896e-18)
(0.000601854 0.00115118 4.67355e-18)
(-0.00684886 -0.00159549 6.90685e-18)
(-0.00445701 -0.00503736 -2.0634e-18)
(-0.000210055 5.77459e-05 1.13372e-19)
(5.96077e-05 9.43128e-05 -3.04707e-18)
(-0.0312513 -0.0309616 1.5852e-18)
(-0.0119588 0.000279067 -3.05917e-18)
(0.0514255 0.0207871 -5.91897e-19)
(-0.0170282 -0.0148301 7.86494e-18)
(-0.00555355 0.00643692 5.2481e-19)
(0.000871308 0.000316457 -1.15685e-18)
(-0.000101986 -2.58273e-06 -4.12683e-20)
(-0.00543474 0.0401389 4.42043e-20)
(-2.63349e-05 -8.54389e-05 -1.46692e-19)
(-0.000362615 -0.00145036 1.59796e-18)
(0.00377381 -0.000648661 9.08363e-19)
(8.72903e-05 0.000169679 -7.13442e-19)
(-8.4939e-05 4.58029e-06 1.05989e-20)
(3.23497e-05 -0.000142088 4.81063e-20)
(-0.000222372 6.27508e-05 2.36566e-19)
(-0.00138931 0.00405242 7.4906e-18)
(0.00536034 0.0135985 -1.14322e-19)
(0.0117881 -0.0205524 1.44732e-17)
(0.00318344 -0.00156401 -2.22501e-19)
(0.000305862 0.00165893 4.66439e-18)
(-0.0014821 0.00923662 1.56585e-19)
(0.0247915 -0.046744 4.17241e-19)
(-0.000134332 -0.00010208 -3.60006e-18)
(0.0249261 0.0175228 -2.87961e-18)
(0.00033635 8.90692e-05 -3.87106e-18)
(-0.0228961 -0.051108 -1.0079e-19)
(-0.000182265 3.125e-05 -5.44224e-20)
(3.32917e-05 -0.000135569 1.65575e-19)
(-0.000125744 -5.25202e-07 -1.08815e-19)
(0.00586144 0.0275819 -6.02245e-18)
(0.0129524 -0.0728173 -4.93228e-18)
(-0.00420838 0.00545175 8.30324e-18)
(-0.00260955 0.00775092 -2.20388e-19)
(0.0199374 -0.0181575 -9.70431e-18)
(-0.0169492 0.0777188 -1.23952e-18)
(0.0175423 0.00510592 -9.21188e-20)
(0.000148763 -5.17262e-06 6.39226e-19)
(0.000124893 0.00115961 3.28446e-18)
(0.000217522 -2.67958e-05 -5.20552e-19)
(0.0223533 -0.0593607 -7.6341e-20)
(-0.000126619 6.70226e-06 5.05934e-20)
(0.0340627 0.00759222 1.48491e-18)
(0.0053661 -0.123607 7.4665e-19)
(0.00876058 -0.00071513 -3.33489e-18)
(-0.0074377 -0.00160616 5.7163e-18)
(0.000256133 -0.00162623 3.94732e-19)
(-0.0194284 0.0128091 2.622e-20)
(0.0111569 -0.128726 -4.60013e-19)
(0.0465383 -0.078448 1.90888e-17)
(-0.000138702 2.11509e-05 -4.43413e-21)
(0.00103167 0.000360667 -1.02426e-19)
(0.00124877 0.00196961 6.06117e-18)
(-0.0152227 -0.00970214 -8.27279e-20)
(-3.31567e-05 -6.49027e-05 -8.54859e-20)
(0.000255262 0.000146608 -1.742e-18)
(0.000989166 0.00125707 -3.14752e-18)
(-0.00317924 0.000617195 -2.57771e-18)
(0.00569952 -0.00195868 -2.37354e-19)
(-0.0559722 -0.119382 6.34844e-20)
(-0.00014548 -3.63163e-06 -9.05156e-20)
(0.000154092 -0.000153996 -3.45396e-20)
(-0.032939 -0.0507241 -6.15699e-18)
(-0.000114153 0.00193119 -2.46771e-19)
(-0.000152386 6.54871e-05 2.75093e-21)
(-0.0250335 -0.0723731 -3.92795e-18)
(0.000113658 -5.40812e-05 4.54802e-20)
(-0.000411442 0.000299656 1.87151e-19)
(2.12449e-06 -9.61824e-05 -1.88954e-20)
(-0.00378334 0.0058341 -2.13449e-20)
(0.00047275 0.000272217 -9.21225e-19)
(-0.000166941 7.63175e-05 -8.97484e-21)
(-1.06145e-05 -0.00149403 2.62583e-19)
(-0.0094537 -0.0120544 1.94159e-18)
(0.000139806 6.70235e-05 1.38219e-18)
(0.00064593 0.00122904 2.71676e-18)
(9.24047e-05 -2.20869e-05 8.57858e-20)
(0.00537835 -0.00289509 -3.4852e-19)
(-0.0292259 -0.00982859 3.17543e-20)
(2.01922e-05 -1.66941e-06 3.3581e-20)
(0.000247922 -1.64123e-05 -1.19551e-19)
(1.97872e-05 -3.71613e-06 5.02594e-20)
(1.35702e-05 -3.0285e-06 7.21954e-20)
(0.0503119 -0.0890502 -1.96269e-19)
(0.000215538 0.000154756 1.42232e-18)
(0.0212814 0.0127141 1.73452e-20)
(0.000114818 5.67264e-05 2.84879e-18)
(-0.000118596 -5.24528e-06 -1.98784e-22)
(0.0593168 -0.0161516 7.61388e-18)
(-0.00772778 -0.00129653 -6.02751e-19)
(0.000120781 7.10082e-05 1.40582e-20)
(0.00579069 -0.00403395 1.11343e-19)
(-7.3213e-05 -0.000198932 3.96667e-19)
(0.036817 -0.0306194 4.08479e-19)
(-0.0672833 -0.0731481 3.73367e-18)
(0.000164123 -0.000158512 2.48853e-21)
(0.0164971 0.033887 -4.56822e-19)
(0.000224226 -2.69004e-05 -1.01218e-19)
(0.0018499 0.00543858 8.52589e-18)
(0.000103729 0.00018007 3.44717e-18)
(-0.0102778 -0.0816004 3.58735e-19)
(-0.000177783 2.54184e-05 3.77918e-20)
(0.00320355 -0.0538598 -1.67942e-18)
(-0.0223508 -0.00874115 1.08116e-18)
(-0.000202781 5.1779e-05 5.41901e-20)
(0.00449551 -0.00529186 -2.52155e-19)
(-0.0222175 -0.029772 1.09124e-18)
(0.00373812 -0.00111986 6.21467e-18)
(-0.00200511 0.105277 -1.43214e-18)
(0.000113576 -9.37754e-06 -3.19298e-19)
(0.00576511 0.0565424 4.03227e-18)
(0.00014964 -2.64776e-06 1.18297e-18)
(6.72936e-05 -4.06022e-05 1.63106e-20)
(9.63017e-05 -5.66937e-05 6.68209e-20)
(5.7405e-05 0.00017496 3.64393e-19)
(-0.0116954 0.000271047 2.17909e-18)
(-0.000112599 0.00166284 3.96635e-18)
(-0.00109016 -0.00122412 -4.04562e-18)
(-0.00858307 -0.00177559 4.33496e-18)
(0.0137821 -0.00860686 1.01489e-18)
(-0.000214123 0.000156807 -8.14713e-21)
(-0.0232623 0.00759418 7.60294e-18)
(0.0226005 -0.074767 -2.06214e-18)
(0.000517428 6.08045e-06 2.54191e-18)
(0.0005571 0.000753589 -3.29412e-19)
(0.0319139 -0.0307285 -4.23154e-19)
(0.0268206 0.028759 1.47746e-18)
(-0.00400433 -0.0034891 1.42049e-18)
(8.70855e-05 8.98979e-06 -1.03309e-18)
(-0.00941339 -0.0856099 -1.02707e-17)
(-0.0640049 -0.0743294 -7.2316e-18)
(-0.0811061 -0.0587966 -9.83447e-18)
(-0.00039456 0.00143905 1.79085e-18)
(0.00461058 -0.00644227 9.7554e-19)
(-0.014852 -0.0541605 -7.03856e-19)
(-0.0220243 0.00626026 -8.10556e-21)
(-0.0161909 -0.0474874 -2.3348e-19)
(-0.0101137 0.128416 -3.20765e-18)
(0.0358016 0.0204089 -1.36729e-18)
(0.000490933 0.000399349 2.20184e-18)
(0.0331688 0.0257516 -2.46771e-18)
(-0.00284644 -0.00461473 -3.94475e-18)
(-0.000177878 2.87288e-05 2.19297e-20)
(-0.0195115 0.00013335 6.69701e-20)
(-0.000160042 0.00152853 -5.78289e-18)
(-0.00718554 -0.000854133 6.41037e-18)
(0.000210524 0.000220765 -6.06309e-19)
(0.000146471 5.10823e-05 -1.98182e-18)
(0.000169786 -9.57806e-05 3.04245e-19)
(0.000219667 1.40786e-05 1.22763e-18)
(-5.95253e-05 0.0055463 -1.27565e-18)
(0.00247619 0.00743455 2.33384e-21)
(-0.0456313 -0.0402525 5.23079e-18)
(-0.0466404 -0.122944 -4.13073e-19)
(5.01535e-05 -2.29626e-05 2.79647e-20)
(-0.0267167 -0.0419669 1.50195e-17)
(-0.00337471 -0.0035569 1.22739e-18)
(0.0295718 -0.0106541 4.57031e-19)
(0.0190676 -0.105939 2.37286e-18)
(0.000688263 0.00119382 -3.82068e-18)
(-0.000145909 5.34078e-05 -1.35832e-21)
(2.68616e-05 -0.000135769 -4.33266e-20)
(-0.0158486 0.0196037 3.71693e-22)
(-0.0247091 0.00458601 -8.42003e-18)
(0.000277758 0.000293997 -5.01365e-18)
(0.00112488 0.000439148 -5.81836e-18)
(0.00165035 -0.0019847 -7.18939e-19)
(-0.000196479 6.22458e-05 4.08311e-20)
(-0.00113272 0.0140261 -5.28804e-20)
(-0.00176962 -0.00197537 -1.55362e-18)
(0.030159 0.0148481 -1.1289e-17)
(-0.00299367 0.00140632 -5.95212e-19)
(-0.0115467 0.000198352 2.46292e-18)
(-0.00335145 -0.00425374 8.25456e-18)
(0.000228534 -2.69373e-05 -2.8777e-19)
(8.0033e-05 0.000176984 1.95014e-18)
(-0.00257021 -0.0875774 5.93068e-19)
(-0.00446156 -0.00525426 2.90358e-18)
(0.0010626 -0.000982507 2.77734e-18)
(0.000561892 0.0011389 -5.61604e-18)
(0.0116465 -0.0182177 1.41665e-18)
(-0.000175966 6.227e-05 -4.94394e-20)
(0.000179914 -4.06932e-06 1.39419e-19)
(0.0309924 0.0148548 3.11386e-19)
(-0.000192697 6.01631e-05 -9.38877e-20)
(0.000221687 0.000241785 -4.13924e-19)
(-0.000169512 6.26411e-05 9.42523e-22)
(0.000125126 -3.40872e-05 -1.81243e-19)
(-0.00275802 -0.00461697 -2.7103e-19)
(-0.000839661 0.00480409 -8.64617e-18)
(-0.00150603 0.0060692 -9.90744e-20)
(-0.000189331 6.22444e-05 5.04782e-20)
(-0.0844026 0.132042 2.31446e-18)
(0.0104995 0.0570129 2.9319e-19)
(0.000113555 -6.40183e-05 -2.79962e-19)
(-0.000144836 -1.19825e-05 -3.92651e-20)
(-0.000299963 -0.00038709 -7.23156e-20)
(6.28035e-05 1.3941e-05 5.91262e-19)
(0.0507028 -0.119837 -8.44748e-18)
(-0.02047 0.164004 2.00771e-18)
(-0.0257898 0.150809 -5.71584e-19)
(-0.0891084 -0.0581998 -2.46326e-18)
(0.01396 0.0751867 -4.04411e-18)
(0.000528339 0.00107726 -8.29788e-19)
(-0.00691341 -0.000485713 -4.93066e-18)
(-0.00877494 -0.00112327 1.77182e-18)
(-0.00356862 0.000937848 3.45832e-19)
(0.000783896 0.00110536 -1.22121e-18)
(-0.000142804 5.38755e-05 -3.30413e-21)
(-7.29106e-06 -0.00328754 3.44837e-19)
(0.000451401 -0.00185986 5.77571e-19)
(-0.0122408 -0.0099857 -8.65959e-18)
(-0.0807596 0.217641 -4.33342e-18)
(0.000986615 0.000487307 8.30329e-18)
(0.000891711 -5.06868e-05 3.32977e-18)
(2.13443e-05 -0.000118746 -3.25419e-20)
(-0.00146883 -0.000995408 2.24172e-18)
(-0.00132452 9.08854e-05 7.07445e-19)
(-0.00176704 0.0930203 1.79717e-18)
(-0.000540395 0.00200824 4.00706e-18)
(0.000113019 5.19491e-05 -1.6206e-18)
(0.00424997 -0.00363704 -3.15581e-19)
(-2.97597e-05 -6.40995e-05 1.10206e-19)
(0.00061832 0.000541281 2.42878e-18)
(-0.00441201 0.00642718 -1.82192e-17)
(9.61973e-05 0.000201212 6.7392e-18)
(0.000215332 -2.59207e-05 1.01067e-20)
(-0.00283382 -0.00272755 -1.19735e-18)
(0.000160992 0.000138574 7.06952e-19)
(0.000330832 0.00501699 -5.44716e-18)
(0.0106222 0.0251499 1.56978e-18)
(-0.00400468 0.00383329 5.16708e-18)
(-0.00211076 -0.000489233 -4.74044e-19)
(0.00135691 -0.00106394 -1.23413e-17)
(1.98715e-05 -0.000113521 -6.16677e-20)
(0.0395774 0.0119019 -2.07208e-20)
(0.00247029 0.00718207 -1.07597e-20)
(-0.083333 -0.0650258 -1.07043e-19)
(0.000311431 -8.49794e-05 2.1908e-19)
(-6.25152e-05 -6.59325e-06 8.76315e-20)
(-0.00741089 -0.00176858 -6.13232e-18)
(0.000908373 -2.62005e-05 -5.51376e-21)
(0.0126421 -0.0441357 7.05553e-19)
(-0.00647694 -0.00296913 6.03688e-18)
(-0.0539754 -0.0881893 -8.21369e-18)
(-0.0312983 -0.0631945 3.26432e-18)
(-2.28062e-05 -8.45782e-05 3.37715e-20)
(-0.00655504 -0.00218704 -1.02426e-17)
(-0.000525041 0.000737225 -3.91758e-20)
(0.000121542 -4.28103e-05 -8.29775e-20)
(-0.00017306 2.48803e-05 -1.7624e-20)
(0.000127719 -3.70389e-05 2.94611e-19)
(-0.00130348 0.00335982 2.06983e-21)
(0.00329236 -0.00231286 9.85178e-21)
(-0.00260927 0.0054196 8.77281e-20)
(-0.00018527 5.92448e-05 -3.23728e-20)
(0.0140402 0.0427727 -5.72559e-18)
(-0.0222978 -0.0128892 -6.1506e-19)
(0.0150728 0.045589 3.09617e-18)
(0.000151148 -0.000102171 7.60663e-20)
(-0.000158373 2.11421e-05 6.7417e-20)
(-0.000189507 2.89075e-06 4.1381e-20)
(-0.00130188 0.0138764 -9.07878e-18)
(-0.03051 0.0757069 1.59309e-19)
(0.000472619 0.00128932 -1.43109e-17)
(0.000658474 0.000535586 -2.99834e-18)
(-0.000682554 0.000766379 4.30257e-20)
(-0.000110466 -5.42487e-06 -5.35098e-20)
(4.95286e-05 -1.41925e-05 8.5579e-21)
(0.000172906 -0.000112707 6.1876e-20)
(-0.00141185 -0.0046075 -9.73055e-19)
(0.0254915 0.0204388 2.5705e-19)
(0.000157915 0.000132268 -2.46776e-19)
(-0.000181363 5.99497e-05 -1.16962e-19)
(4.91997e-05 0.00017827 1.55132e-18)
(0.000174686 -0.000108287 1.14521e-19)
(0.0387078 -0.00438189 7.10993e-20)
(0.0184491 -0.0437993 -2.5501e-18)
(-0.00128692 -0.00132532 -7.74761e-19)
(-0.0279383 -0.0214606 -2.8196e-19)
(0.0176241 0.0278936 -3.45242e-18)
(0.000210756 -2.53133e-05 -3.90002e-19)
(-0.00135227 -0.000921185 -4.54868e-18)
(0.0538991 -0.0632632 -3.41106e-17)
(0.000794161 0.00117407 -1.11021e-17)
(0.0752 -0.0326562 2.83351e-18)
(0.000164291 0.000224201 1.92155e-18)
(0.00261538 -0.000657769 5.18755e-20)
(0.000445466 0.00129338 1.57817e-17)
(0.00255332 -0.00150888 -4.91908e-20)
(-0.0115666 0.0962922 -7.62003e-20)
(0.00011892 6.57769e-05 -1.5548e-18)
(-0.00284701 -0.000134063 -1.86587e-18)
(-0.000119564 6.55645e-06 -3.12252e-20)
(0.000221515 0.0010605 1.16425e-17)
(-0.00744224 -0.00195554 2.99332e-18)
(5.38101e-06 -0.000110391 3.55314e-19)
(0.000615796 -0.000192179 -3.86972e-20)
(0.00800154 -0.0190691 -4.59495e-19)
(6.91532e-05 -4.42027e-05 -2.11104e-20)
(0.000424079 1.02799e-05 4.28314e-19)
(0.000462025 0.111585 -3.5081e-19)
(0.0478751 0.117348 -2.41861e-19)
(-0.000414237 0.00220228 -1.0526e-17)
(-0.0140822 0.0146001 3.25672e-18)
(0.0323169 -0.0269209 -7.67458e-20)
(-0.000164286 5.74265e-05 -8.97851e-20)
(0.000146964 -9.8262e-05 -5.8699e-20)
(0.0407311 -0.0199332 9.32212e-18)
(0.00187661 -0.00173577 5.72657e-18)
(0.00718236 0.00964381 -2.70505e-20)
(-0.00599511 -0.00327774 -5.64215e-18)
(-4.73558e-05 -0.000113728 1.42493e-19)
(3.38077e-05 5.35968e-06 3.58831e-19)
(-0.000182434 2.81467e-05 -8.66899e-20)
(-0.00659234 0.122609 4.73496e-18)
(-0.00159344 -0.00462873 8.27141e-18)
(4.1434e-05 0.000803652 -7.42013e-19)
(0.000202204 1.15954e-05 -2.48492e-19)
(-0.0271797 -0.0215014 4.30718e-19)
(0.000395811 0.000426895 -1.7151e-19)
(-0.000194104 3.54897e-06 -4.68879e-20)
(-0.0405745 -0.0365066 -5.86065e-19)
(0.00966957 -0.0577609 -4.42671e-18)
(-0.0019405 -0.00918442 5.5149e-18)
(-0.000204925 5.37042e-05 -9.28739e-20)
(0.00015069 0.000135639 -2.53998e-18)
(-0.0052267 -0.000829057 -2.77539e-18)
(0.0113734 -0.022763 3.05568e-18)
(0.00249193 -0.00112221 7.73642e-18)
(-0.000987836 0.000115061 1.56064e-19)
(-0.00450399 -0.00318747 -2.48564e-19)
(0.000127815 6.34291e-05 -8.92259e-19)
(-0.0233517 -0.040551 -3.88141e-19)
(0.0171673 0.0102935 3.1939e-19)
(0.00969649 -0.000437383 -7.20343e-18)
(0.000131955 2.45024e-05 -6.81975e-19)
(-0.0609146 -0.0841116 1.1624e-17)
(0.00518122 0.00136966 7.55172e-19)
(1.6647e-05 0.00210598 -2.38736e-19)
(0.00308952 -0.00390306 -6.89435e-18)
(-5.84246e-05 -7.16703e-06 -1.38776e-19)
(7.66986e-05 -1.04485e-06 -7.43992e-21)
(0.000483332 0.000306036 -1.38268e-18)
(1.25979e-05 -0.000111292 9.14787e-20)
(-0.0428131 -0.0444799 7.15255e-19)
(0.000800497 -0.00102193 8.87658e-19)
(-0.00291991 0.000877417 -1.8383e-18)
(-0.00223627 0.00507195 -1.38318e-19)
(-0.0219291 -0.0102502 3.96222e-19)
(2.84904e-05 -0.000120042 -6.32423e-20)
(-0.0601011 0.155426 -8.3929e-19)
(6.98494e-05 -7.78805e-06 -1.65507e-19)
(0.00541959 0.000413122 2.42731e-19)
(-0.000170717 2.11062e-05 4.94433e-20)
(0.000203681 -2.29145e-05 -2.242e-19)
(0.00014335 -4.58016e-06 1.19224e-18)
(-0.0041194 -0.00603461 -4.90795e-18)
(0.000171207 -8.71916e-05 -1.16286e-19)
(-0.000200084 2.95126e-05 -1.73344e-20)
(-0.0221083 -0.0497834 1.1247e-18)
(8.06814e-05 0.000186869 -1.93465e-18)
(-0.00555836 -0.00134445 -3.54156e-19)
(-0.000120807 3.23702e-06 2.32071e-20)
(-0.00110567 -0.000832349 -8.78091e-19)
(0.000262102 0.000943282 -4.20493e-18)
(0.0416066 -0.00883034 2.64378e-19)
(-0.00247421 0.118466 -2.85456e-18)
(2.72514e-05 -2.33863e-05 -2.39353e-20)
(0.0225516 0.0579653 6.22451e-19)
(-0.0300148 -0.0169578 1.10314e-18)
(0.000222299 0.000155269 -1.4532e-18)
(-0.00317065 -0.00580599 4.54538e-18)
(0.00023974 0.0010417 -8.2915e-18)
(4.04533e-06 -0.00010238 5.99723e-21)
(0.00621011 0.0113808 2.23871e-19)
(-0.0299912 -0.0294889 -9.84809e-18)
(0.035119 0.0429969 -3.01992e-20)
(-0.000121618 8.18249e-05 -1.55145e-18)
(5.26519e-05 -1.86481e-05 -1.02773e-20)
(-0.000176543 5.60606e-05 -3.29547e-20)
(0.0225267 -0.108266 -6.18313e-19)