/*--------------------------------*- C++ -*----------------------------------*\
| =========                 |                                                 |
| \\      /  F ield         | OpenFOAM: The Open Source CFD Toolbox           |
|  \\    /   O peration     | Version:  v2012                                 |
|   \\  /    A nd           | Website:  www.openfoam.com                      |
|    \\/     M anipulation  |                                                 |
\*---------------------------------------------------------------------------*/
FoamFile
{
    version     2.0;
    format      ascii;
    class       volVectorField;
    location    "800";
    object      cellDisplacement;
}
// * * * * * * * * * * * * * * * * * * * * * * * * * * * * * * * * * * * * * //

dimensions      [0 1 0 0 0 0 0];


internalField   nonuniform List<vector> 
13851
(
(0 -5.95281e-05 0)
(0 -1.88489e-05 0)
(0 1.05665e-05 0)
(0 -6.46617e-05 0)
(0 1.20785e-05 0)
(0 -0.000113482 0)
(0 7.40877e-05 0)
(0 1.13697e-05 0)
(0 -0.000124634 0)
(0 7.3193e-06 0)
(0 -0.000192631 0)
(0 5.18392e-06 0)
(0 1.17285e-05 0)
(0 1.11876e-05 0)
(0 4.38206e-05 0)
(0 6.96439e-06 0)
(0 1.69872e-05 0)
(0 -1.96169e-05 0)
(0 1.16478e-05 0)
(0 -0.000119644 0)
(0 -6.33886e-05 0)
(0 1.0813e-05 0)
(0 -1.25213e-05 0)
(0 -9.32595e-06 0)
(0 -8.98132e-06 0)
(0 1.11408e-05 0)
(0 2.40791e-05 0)
(0 1.17541e-05 0)
(0 -5.64921e-05 0)
(0 -2.02831e-06 0)
(0 -0.000116952 0)
(0 1.61672e-05 0)
(0 1.04519e-05 0)
(0 -0.000282745 0)
(0 -1.12652e-05 0)
(0 1.20499e-05 0)
(0 1.18867e-05 0)
(0 1.10462e-05 0)
(0 7.35605e-06 0)
(0 -0.00028388 0)
(0 -1.96476e-05 0)
(0 -4.2862e-05 0)
(0 1.1755e-05 0)
(0 -0.000201468 0)
(0 -0.000198128 0)
(0 1.17e-05 0)
(0 -0.000205269 0)
(0 -0.0001816 0)
(0 2.32685e-05 0)
(0 -0.000275678 0)
(0 1.25541e-05 0)
(0 1.19982e-05 0)
(0 1.17617e-05 0)
(0 3.14324e-05 0)
(0 9.40824e-06 0)
(0 -4.23362e-05 0)
(0 -2.37504e-05 0)
(0 1.17526e-05 0)
(0 -2.03978e-06 0)
(0 6.5379e-05 0)
(0 1.09587e-05 0)
(0 1.13367e-05 0)
(0 -3.94499e-05 0)
(0 1.19987e-05 0)
(0 -1.30607e-05 0)
(0 -6.90961e-05 0)
(0 1.18708e-05 0)
(0 -0.000210843 0)
(0 1.46355e-05 0)
(0 -2.15274e-05 0)
(0 1.17547e-05 0)
(0 1.1852e-05 0)
(0 -1.85891e-05 0)
(0 3.22155e-05 0)
(0 6.58727e-06 0)
(0 -0.000167623 0)
(0 1.09455e-05 0)
(0 1.17557e-05 0)
(0 1.2661e-05 0)
(0 1.17556e-05 0)
(0 4.90224e-05 0)
(0 -1.96185e-05 0)
(0 5.97329e-05 0)
(0 1.17313e-05 0)
(0 -3.71552e-05 0)
(0 4.98104e-06 0)
(0 -0.000117034 0)
(0 -4.66933e-06 0)
(0 1.84573e-05 0)
(0 -0.000208603 0)
(0 1.20672e-05 0)
(0 -0.000169305 0)
(0 -0.000214927 0)
(0 1.60569e-05 0)
(0 1.93152e-05 0)
(0 -1.46159e-05 0)
(0 1.20727e-05 0)
(0 1.17229e-05 0)
(0 -0.000277579 0)
(0 -1.15944e-05 0)
(0 1.15774e-05 0)
(0 1.29003e-05 0)
(0 -2.39268e-05 0)
(0 2.71916e-05 0)
(0 -3.17269e-06 0)
(0 -0.000127093 0)
(0 1.28478e-05 0)
(0 -2.302e-05 0)
(0 1.18278e-05 0)
(0 -0.000109962 0)
(0 -1.00373e-05 0)
(0 -0.000213257 0)
(0 -0.000167871 0)
(0 -2.43344e-06 0)
(0 -1.23558e-05 0)
(0 -0.000107687 0)
(0 1.17179e-05 0)
(0 -2.85712e-05 0)
(0 -2.64606e-06 0)
(0 6.39519e-06 0)
(0 1.17545e-05 0)
(0 2.75569e-05 0)
(0 1.17115e-05 0)
(0 -0.000199683 0)
(0 -0.000181972 0)
(0 -0.000161206 0)
(0 -0.000185096 0)
(0 1.27287e-05 0)
(0 -6.67781e-05 0)
(0 1.16036e-05 0)
(0 -1.78731e-05 0)
(0 -4.50898e-05 0)
(0 1.17557e-05 0)
(0 6.18521e-05 0)
(0 -0.000110569 0)
(0 -1.20634e-05 0)
(0 -2.62564e-05 0)
(0 1.1852e-05 0)
(0 1.07319e-05 0)
(0 9.44181e-06 0)
(0 1.15976e-05 0)
(0 7.88963e-06 0)
(0 -0.0002196 0)
(0 -9.28142e-05 0)
(0 2.17066e-05 0)
(0 -0.000206225 0)
(0 -1.3011e-05 0)
(0 1.155e-05 0)
(0 7.48095e-05 0)
(0 -0.000193065 0)
(0 1.28055e-05 0)
(0 5.17338e-06 0)
(0 1.12514e-05 0)
(0 -2.33221e-05 0)
(0 2.93981e-05 0)
(0 2.15869e-05 0)
(0 -8.30387e-05 0)
(0 6.0764e-06 0)
(0 1.19683e-05 0)
(0 1.25633e-05 0)
(0 -8.93221e-06 0)
(0 1.74942e-05 0)
(0 1.17561e-05 0)
(0 -4.47682e-05 0)
(0 -5.98144e-07 0)
(0 -7.3731e-05 0)
(0 -1.64278e-05 0)
(0 1.45885e-05 0)
(0 -6.52151e-05 0)
(0 1.17064e-05 0)
(0 1.17554e-05 0)
(0 -7.30105e-05 0)
(0 -8.10604e-05 0)
(0 9.64089e-06 0)
(0 -4.02546e-05 0)
(0 -0.000178293 0)
(0 1.27711e-05 0)
(0 -0.000207757 0)
(0 1.16679e-05 0)
(0 -2.31032e-05 0)
(0 1.46582e-05 0)
(0 1.18449e-05 0)
(0 6.56154e-05 0)
(0 1.08567e-05 0)
(0 -2.89891e-06 0)
(0 -1.56777e-05 0)
(0 -6.56932e-05 0)
(0 6.96938e-06 0)
(0 1.18696e-05 0)
(0 1.89386e-06 0)
(0 -0.000209645 0)
(0 1.17616e-05 0)
(0 -0.000220433 0)
(0 1.43435e-05 0)
(0 1.12832e-05 0)
(0 2.99108e-05 0)
(0 -0.000216174 0)
(0 -0.000288233 0)
(0 -0.000208142 0)
(0 -0.000168407 0)
(0 -0.000165424 0)
(0 1.16388e-05 0)
(0 2.55408e-08 0)
(0 3.57026e-05 0)
(0 4.18484e-06 0)
(0 6.47195e-05 0)
(0 9.81968e-06 0)
(0 1.75798e-05 0)
(0 1.182e-05 0)
(0 -1.46143e-05 0)
(0 1.18094e-05 0)
(0 -2.29247e-05 0)
(0 -0.00028869 0)
(0 -1.51254e-05 0)
(0 -8.05253e-05 0)
(0 -0.000179074 0)
(0 -3.25204e-05 0)
(0 1.17006e-05 0)
(0 6.44142e-05 0)
(0 1.18189e-05 0)
(0 1.67493e-05 0)
(0 4.7749e-05 0)
(0 1.17719e-05 0)
(0 1.18521e-05 0)
(0 1.17913e-05 0)
(0 -1.05531e-05 0)
(0 1.48293e-05 0)
(0 -2.60833e-06 0)
(0 1.17555e-05 0)
(0 -1.39568e-05 0)
(0 1.08995e-05 0)
(0 -2.28206e-05 0)
(0 -6.74603e-05 0)
(0 -0.000216168 0)
(0 1.28103e-05 0)
(0 -1.59244e-05 0)
(0 9.90025e-06 0)
(0 -1.26892e-05 0)
(0 -8.87889e-05 0)
(0 3.73949e-05 0)
(0 -0.000120327 0)
(0 -0.000285572 0)
(0 -1.33443e-05 0)
(0 4.20126e-06 0)
(0 -4.68895e-06 0)
(0 1.17966e-05 0)
(0 1.27758e-05 0)
(0 -0.000285415 0)
(0 1.96196e-05 0)
(0 1.1734e-05 0)
(0 -0.000198792 0)
(0 -0.000286724 0)
(0 3.32076e-05 0)
(0 1.97969e-05 0)
(0 1.32858e-05 0)
(0 -6.35406e-05 0)
(0 1.33874e-06 0)
(0 1.18454e-05 0)
(0 1.17823e-05 0)
(0 7.40048e-05 0)
(0 -8.45355e-05 0)
(0 -2.36588e-05 0)
(0 -0.000121052 0)
(0 -0.000144011 0)
(0 1.15759e-05 0)
(0 2.94671e-05 0)
(0 3.46146e-05 0)
(0 1.66027e-05 0)
(0 1.1775e-05 0)
(0 -0.000245938 0)
(0 -0.000201496 0)
(0 2.88148e-05 0)
(0 -0.000115278 0)
(0 1.2801e-05 0)
(0 6.63827e-06 0)
(0 -4.94239e-05 0)
(0 -1.48528e-05 0)
(0 -0.000157085 0)
(0 1.17819e-05 0)
(0 -0.000187817 0)
(0 -9.70902e-06 0)
(0 -9.29959e-06 0)
(0 -2.644e-06 0)
(0 1.3394e-05 0)
(0 -0.000123887 0)
(0 -0.000174066 0)
(0 -0.00014538 0)
(0 6.65837e-05 0)
(0 -0.000118455 0)
(0 -7.33154e-06 0)
(0 1.15223e-05 0)
(0 5.38891e-08 0)
(0 6.3219e-05 0)
(0 1.4062e-05 0)
(0 -1.37091e-05 0)
(0 1.16069e-05 0)
(0 2.16117e-06 0)
(0 4.3996e-06 0)
(0 -5.3771e-05 0)
(0 1.17998e-05 0)
(0 1.79711e-05 0)
(0 1.69149e-05 0)
(0 1.17838e-05 0)
(0 6.43925e-06 0)
(0 -0.000123846 0)
(0 1.17839e-05 0)
(0 -0.00013911 0)
(0 1.36567e-05 0)
(0 1.5663e-05 0)
(0 1.51856e-07 0)
(0 1.07716e-05 0)
(0 1.60966e-06 0)
(0 3.09763e-05 0)
(0 1.17576e-05 0)
(0 -5.26413e-05 0)
(0 1.14494e-05 0)
(0 -0.000174172 0)
(0 1.17877e-05 0)
(0 1.22671e-05 0)
(0 6.67222e-05 0)
(0 1.30388e-05 0)
(0 6.82389e-05 0)
(0 1.17815e-05 0)
(0 -0.000199578 0)
(0 -1.46596e-05 0)
(0 -0.000110483 0)
(0 1.22935e-05 0)
(0 1.51968e-05 0)
(0 3.07919e-05 0)
(0 6.48068e-05 0)
(0 9.25597e-06 0)
(0 3.0557e-05 0)
(0 -0.00019439 0)
(0 1.14391e-05 0)
(0 1.16596e-05 0)
(0 -3.38087e-05 0)
(0 1.17894e-05 0)
(0 1.08938e-05 0)
(0 4.19392e-05 0)
(0 1.41375e-05 0)
(0 1.14547e-05 0)
(0 -0.000163745 0)
(0 -1.93181e-05 0)
(0 1.21229e-05 0)
(0 1.16167e-05 0)
(0 -0.000172388 0)
(0 -0.000126817 0)
(0 1.18024e-05 0)
(0 3.8473e-05 0)
(0 -0.000209169 0)
(0 -0.000206833 0)
(0 9.73612e-06 0)
(0 3.15222e-05 0)
(0 -1.9682e-05 0)
(0 1.17542e-05 0)
(0 -8.39542e-05 0)
(0 -0.000129317 0)
(0 -0.000112893 0)
(0 6.59988e-05 0)
(0 -5.06566e-06 0)
(0 -2.22112e-05 0)
(0 -6.98168e-05 0)
(0 1.18038e-05 0)
(0 -0.000285522 0)
(0 3.86917e-05 0)
(0 1.38302e-05 0)
(0 -5.82347e-05 0)
(0 4.05177e-06 0)
(0 3.7935e-06 0)
(0 -0.000175392 0)
(0 1.16938e-05 0)
(0 3.65057e-05 0)
(0 -3.22668e-05 0)
(0 1.50671e-05 0)
(0 -0.000176507 0)
(0 -2.15689e-05 0)
(0 -3.11459e-05 0)
(0 -0.000184107 0)
(0 1.16002e-05 0)
(0 6.58888e-06 0)
(0 1.06636e-05 0)
(0 -0.000167032 0)
(0 1.2089e-05 0)
(0 1.17085e-05 0)
(0 -0.000208389 0)
(0 -0.000211248 0)
(0 -0.000210319 0)
(0 -3.67564e-05 0)
(0 2.32369e-05 0)
(0 -3.34871e-05 0)
(0 1.31031e-05 0)
(0 1.11028e-05 0)
(0 1.47104e-05 0)
(0 1.17951e-05 0)
(0 1.17899e-05 0)
(0 -6.135e-05 0)
(0 7.46215e-05 0)
(0 1.16775e-05 0)
(0 1.1755e-05 0)
(0 -2.4156e-05 0)
(0 1.17278e-05 0)
(0 -0.00018645 0)
(0 1.47375e-05 0)
(0 -1.26736e-05 0)
(0 1.09028e-05 0)
(0 -0.000102152 0)
(0 7.50267e-06 0)
(0 -0.000208391 0)
(0 7.0233e-05 0)
(0 -2.25669e-06 0)
(0 -0.000138021 0)
(0 -7.0287e-05 0)
(0 1.20494e-05 0)
(0 -1.40816e-05 0)
(0 1.17763e-05 0)
(0 -2.61479e-05 0)
(0 1.29334e-05 0)
(0 -9.31058e-05 0)
(0 -0.000286938 0)
(0 9.56075e-06 0)
(0 9.55819e-06 0)
(0 1.77177e-05 0)
(0 -0.0001739 0)
(0 -2.366e-05 0)
(0 -0.000131968 0)
(0 -1.17265e-05 0)
(0 1.08444e-05 0)
(0 -0.000293096 0)
(0 1.1798e-05 0)
(0 -8.99338e-05 0)
(0 1.17786e-05 0)
(0 -0.000281293 0)
(0 -0.00012038 0)
(0 4.76089e-06 0)
(0 1.28213e-05 0)
(0 -2.02756e-05 0)
(0 -0.000288058 0)
(0 -5.8204e-06 0)
(0 8.69682e-06 0)
(0 -0.000292308 0)
(0 1.00973e-05 0)
(0 1.18163e-05 0)
(0 -0.000212874 0)
(0 -0.000144318 0)
(0 -0.00029278 0)
(0 1.1597e-05 0)
(0 -4.02761e-06 0)
(0 1.41632e-05 0)
(0 1.2657e-05 0)
(0 -0.000245617 0)
(0 -8.30983e-05 0)
(0 2.8563e-05 0)
(0 1.28955e-05 0)
(0 1.20369e-05 0)
(0 -2.70245e-05 0)
(0 2.34432e-06 0)
(0 -1.35378e-05 0)
(0 -0.000112206 0)
(0 1.17537e-05 0)
(0 -1.81599e-06 0)
(0 -8.47719e-06 0)
(0 -5.03703e-06 0)
(0 -3.65165e-05 0)
(0 -6.26599e-05 0)
(0 -9.23073e-05 0)
(0 -4.59279e-06 0)
(0 5.53912e-06 0)
(0 -1.31925e-05 0)
(0 -0.000213697 0)
(0 1.17532e-05 0)
(0 5.87272e-05 0)
(0 1.43262e-05 0)
(0 -1.35925e-05 0)
(0 -0.000129504 0)
(0 -0.000159323 0)
(0 -2.22178e-06 0)
(0 -4.14976e-05 0)
(0 -4.72021e-06 0)
(0 -4.76986e-06 0)
(0 -0.000171357 0)
(0 3.71556e-05 0)
(0 -0.000116944 0)
(0 6.73094e-05 0)
(0 -1.69587e-05 0)
(0 1.14763e-05 0)
(0 1.18228e-05 0)
(0 6.40721e-05 0)
(0 -0.000132276 0)
(0 9.93922e-06 0)
(0 -0.000285332 0)
(0 1.17233e-05 0)
(0 -0.000109377 0)
(0 -0.000283642 0)
(0 -1.88757e-05 0)
(0 1.18877e-05 0)
(0 6.53138e-05 0)
(0 1.1743e-05 0)
(0 -1.65507e-05 0)
(0 1.17568e-05 0)
(0 -1.2411e-07 0)
(0 -4.61857e-05 0)
(0 -0.000137055 0)
(0 1.17298e-05 0)
(0 1.06388e-05 0)
(0 -0.000240536 0)
(0 -3.18878e-06 0)
(0 -0.000206927 0)
(0 8.32319e-06 0)
(0 -4.16521e-05 0)
(0 -5.86507e-05 0)
(0 7.66307e-05 0)
(0 1.1756e-05 0)
(0 1.26617e-05 0)
(0 1.21439e-05 0)
(0 1.17707e-05 0)
(0 -3.47225e-05 0)
(0 -1.15227e-05 0)
(0 1.15879e-05 0)
(0 -0.000292694 0)
(0 1.47822e-05 0)
(0 1.71745e-05 0)
(0 -0.000284004 0)
(0 -0.000200145 0)
(0 1.18116e-05 0)
(0 2.3442e-05 0)
(0 1.17383e-05 0)
(0 1.17114e-05 0)
(0 1.16417e-05 0)
(0 5.5047e-07 0)
(0 -0.000139739 0)
(0 -0.00018937 0)
(0 -0.000149436 0)
(0 -6.70579e-05 0)
(0 -0.000288139 0)
(0 8.84516e-06 0)
(0 3.96951e-06 0)
(0 9.03801e-06 0)
(0 1.18402e-05 0)
(0 -1.88416e-05 0)
(0 -0.000151983 0)
(0 1.26487e-05 0)
(0 1.18225e-05 0)
(0 1.78485e-05 0)
(0 4.2602e-05 0)
(0 -7.94111e-05 0)
(0 9.62893e-06 0)
(0 1.19479e-05 0)
(0 -1.10832e-05 0)
(0 -5.37157e-06 0)
(0 1.8779e-06 0)
(0 -1.79425e-05 0)
(0 1.17545e-05 0)
(0 1.17619e-05 0)
(0 -0.000133266 0)
(0 -0.000292908 0)
(0 1.43703e-05 0)
(0 -7.09415e-06 0)
(0 -0.000130994 0)
(0 -1.9207e-05 0)
(0 1.16077e-05 0)
(0 2.88079e-05 0)
(0 1.25299e-05 0)
(0 1.20489e-05 0)
(0 -3.8967e-05 0)
(0 -9.63584e-05 0)
(0 -0.000197287 0)
(0 9.7693e-06 0)
(0 1.20512e-05 0)
(0 1.17569e-05 0)
(0 1.184e-05 0)
(0 -2.05778e-05 0)
(0 7.1569e-05 0)
(0 -6.33145e-06 0)
(0 1.17856e-05 0)
(0 1.22051e-05 0)
(0 1.48447e-05 0)
(0 -4.19341e-05 0)
(0 -2.42391e-05 0)
(0 3.75218e-06 0)
(0 8.89942e-06 0)
(0 -3.61484e-05 0)
(0 1.73774e-05 0)
(0 -2.00122e-05 0)
(0 -1.43979e-05 0)
(0 1.18355e-05 0)
(0 1.20063e-05 0)
(0 -8.94851e-05 0)
(0 -3.32064e-05 0)
(0 1.06872e-05 0)
(0 -0.000288877 0)
(0 -4.95912e-05 0)
(0 -2.79437e-05 0)
(0 -0.000148602 0)
(0 2.82108e-05 0)
(0 1.16231e-05 0)
(0 -0.000286648 0)
(0 -0.000287376 0)
(0 1.16174e-05 0)
(0 -0.000209899 0)
(0 1.53019e-05 0)
(0 1.1825e-05 0)
(0 1.18237e-05 0)
(0 -0.000172799 0)
(0 1.44512e-05 0)
(0 -5.336e-06 0)
(0 -0.000169676 0)
(0 8.42726e-06 0)
(0 1.17372e-05 0)
(0 -0.000126774 0)
(0 1.25574e-05 0)
(0 1.32665e-05 0)
(0 -0.000112373 0)
(0 5.47001e-06 0)
(0 -0.000229409 0)
(0 -0.000242849 0)
(0 1.24438e-05 0)
(0 6.80247e-05 0)
(0 -3.15186e-05 0)
(0 -7.86389e-05 0)
(0 1.74419e-05 0)
(0 1.17503e-05 0)
(0 6.60915e-05 0)
(0 -2.24089e-05 0)
(0 4.47831e-06 0)
(0 5.03649e-05 0)
(0 1.20117e-05 0)
(0 1.07404e-05 0)
(0 1.18878e-05 0)
(0 4.07e-06 0)
(0 1.21791e-05 0)
(0 -0.000106464 0)
(0 -2.59302e-05 0)
(0 -0.000197715 0)
(0 1.16254e-05 0)
(0 -1.92197e-05 0)
(0 -1.32118e-05 0)
(0 1.18336e-05 0)
(0 -1.24645e-05 0)
(0 1.17192e-05 0)
(0 1.18083e-05 0)
(0 1.1714e-05 0)
(0 -6.07716e-06 0)
(0 -9.75842e-05 0)
(0 1.18458e-05 0)
(0 -1.01385e-05 0)
(0 -2.24856e-05 0)
(0 -1.45714e-05 0)
(0 -1.70835e-05 0)
(0 -6.1119e-06 0)
(0 -2.86481e-05 0)
(0 -4.58669e-06 0)
(0 -3.07933e-05 0)
(0 1.03601e-05 0)
(0 5.01022e-07 0)
(0 1.04632e-05 0)
(0 -8.27874e-05 0)
(0 -9.52333e-06 0)
(0 -1.77427e-05 0)
(0 1.13768e-05 0)
(0 1.11284e-05 0)
(0 1.34506e-05 0)
(0 1.68935e-05 0)
(0 -1.33194e-05 0)
(0 -1.50394e-05 0)
(0 -1.11935e-05 0)
(0 -9.5482e-05 0)
(0 1.19068e-05 0)
(0 6.93703e-06 0)
(0 5.10374e-05 0)
(0 -2.81429e-05 0)
(0 7.74945e-05 0)
(0 -9.11204e-05 0)
(0 8.46706e-06 0)
(0 1.17614e-05 0)
(0 5.93069e-06 0)
(0 1.17076e-05 0)
(0 -0.000203718 0)
(0 -2.05761e-05 0)
(0 1.21542e-05 0)
(0 1.15833e-05 0)
(0 1.42443e-05 0)
(0 5.65026e-06 0)
(0 4.80848e-05 0)
(0 -2.17215e-05 0)
(0 1.34961e-05 0)
(0 -2.59069e-05 0)
(0 -0.000288944 0)
(0 6.52318e-05 0)
(0 -0.000192908 0)
(0 -4.91366e-06 0)
(0 1.64675e-05 0)
(0 1.18136e-05 0)
(0 -0.00018529 0)
(0 -1.68031e-05 0)
(0 -4.44133e-05 0)
(0 -4.71102e-05 0)
(0 1.53092e-05 0)
(0 -0.000120613 0)
(0 1.03014e-05 0)
(0 1.24479e-05 0)
(0 1.15469e-05 0)
(0 -0.000208472 0)
(0 -1.81626e-05 0)
(0 -7.83232e-05 0)
(0 1.14859e-05 0)
(0 1.20722e-05 0)
(0 -1.58516e-05 0)
(0 1.18066e-05 0)
(0 -0.000139739 0)
(0 1.2151e-05 0)
(0 -2.11122e-05 0)
(0 -0.000212927 0)
(0 1.18696e-05 0)
(0 3.26935e-06 0)
(0 -4.42022e-05 0)
(0 -0.000164437 0)
(0 2.26155e-05 0)
(0 -1.87805e-05 0)
(0 1.17557e-05 0)
(0 -6.23681e-05 0)
(0 1.17672e-05 0)
(0 -4.92592e-05 0)
(0 5.32345e-05 0)
(0 1.17763e-05 0)
(0 1.17555e-05 0)
(0 1.21048e-05 0)
(0 -0.00022557 0)
(0 1.18224e-05 0)
(0 6.27942e-05 0)
(0 -0.000171754 0)
(0 1.01901e-05 0)
(0 9.97689e-06 0)
(0 1.36072e-05 0)
(0 1.17139e-05 0)
(0 -0.000206656 0)
(0 -0.00024247 0)
(0 1.18971e-05 0)
(0 -1.41923e-05 0)
(0 2.73683e-07 0)
(0 4.91554e-06 0)
(0 -0.000105206 0)
(0 1.17539e-05 0)
(0 9.7203e-06 0)
(0 1.2063e-05 0)
(0 -8.60715e-05 0)
(0 -0.000159553 0)
(0 -0.000113421 0)
(0 -0.0001194 0)
(0 -4.71355e-06 0)
(0 -0.000209278 0)
(0 -1.24703e-05 0)
(0 -2.0842e-05 0)
(0 6.67368e-06 0)
(0 1.17797e-05 0)
(0 -7.3754e-05 0)
(0 -4.0939e-05 0)
(0 -0.000182883 0)
(0 7.08925e-05 0)
(0 1.17794e-05 0)
(0 -6.14435e-06 0)
(0 -0.000222439 0)
(0 1.27701e-05 0)
(0 8.16359e-06 0)
(0 -0.000287755 0)
(0 -1.8381e-05 0)
(0 -0.000112882 0)
(0 1.16932e-05 0)
(0 3.56194e-05 0)
(0 1.17964e-05 0)
(0 1.67163e-05 0)
(0 -9.82561e-05 0)
(0 -0.000266129 0)
(0 1.17556e-05 0)
(0 -0.000113427 0)
(0 9.52601e-06 0)
(0 -1.44462e-05 0)
(0 -2.5749e-05 0)
(0 -0.000292362 0)
(0 9.57595e-06 0)
(0 -3.5173e-06 0)
(0 1.93246e-06 0)
(0 -0.00026743 0)
(0 2.80666e-05 0)
(0 -0.000223605 0)
(0 1.2604e-05 0)
(0 -0.000290936 0)
(0 1.18513e-05 0)
(0 -0.000124045 0)
(0 5.38859e-05 0)
(0 1.19152e-05 0)
(0 1.24372e-05 0)
(0 1.17914e-05 0)
(0 2.00857e-06 0)
(0 9.23358e-06 0)
(0 1.17619e-05 0)
(0 7.21072e-05 0)
(0 1.1722e-05 0)
(0 -2.62331e-05 0)
(0 1.14737e-05 0)
(0 1.04341e-05 0)
(0 1.17634e-05 0)
(0 -0.000275529 0)
(0 8.03819e-06 0)
(0 -9.92875e-05 0)
(0 -3.58907e-05 0)
(0 1.17489e-05 0)
(0 1.17315e-05 0)
(0 -0.000122174 0)
(0 -1.22609e-05 0)
(0 1.27234e-05 0)
(0 -1.43852e-05 0)
(0 -5.29761e-05 0)
(0 1.17653e-05 0)
(0 -0.000133577 0)
(0 4.54472e-05 0)
(0 1.17529e-05 0)
(0 1.17598e-05 0)
(0 -0.000211487 0)
(0 -2.62131e-05 0)
(0 6.55471e-05 0)
(0 1.17587e-05 0)
(0 1.19172e-05 0)
(0 1.22547e-05 0)
(0 -0.000159442 0)
(0 1.16603e-05 0)
(0 9.94098e-06 0)
(0 1.114e-05 0)
(0 1.28424e-05 0)
(0 1.38862e-05 0)
(0 2.91016e-05 0)
(0 6.74968e-05 0)
(0 -2.00565e-05 0)
(0 1.37239e-05 0)
(0 1.17548e-05 0)
(0 -0.000190663 0)
(0 1.48125e-05 0)
(0 1.17523e-05 0)
(0 1.15177e-05 0)
(0 1.17594e-05 0)
(0 6.50154e-05 0)
(0 1.5871e-05 0)
(0 -4.9435e-05 0)
(0 4.66422e-06 0)
(0 -1.898e-05 0)
(0 6.06355e-06 0)
(0 7.26151e-06 0)
(0 1.17664e-05 0)
(0 -5.25991e-05 0)
(0 1.2809e-05 0)
(0 -5.07076e-06 0)
(0 1.00019e-05 0)
(0 1.50781e-05 0)
(0 1.59706e-05 0)
(0 1.17195e-05 0)
(0 1.37988e-05 0)
(0 -5.64058e-06 0)
(0 -9.27125e-06 0)
(0 1.27615e-05 0)
(0 -0.000177662 0)
(0 -3.50988e-05 0)
(0 1.48545e-05 0)
(0 1.17567e-05 0)
(0 -0.000139827 0)
(0 1.04091e-05 0)
(0 -0.000282428 0)
(0 3.18364e-05 0)
(0 1.18083e-05 0)
(0 1.15804e-05 0)
(0 1.1773e-05 0)
(0 -0.000273122 0)
(0 -0.000192803 0)
(0 -0.00010894 0)
(0 1.17682e-05 0)
(0 1.27387e-05 0)
(0 -0.00010655 0)
(0 1.18128e-05 0)
(0 -7.69092e-05 0)
(0 3.61806e-05 0)
(0 1.09478e-05 0)
(0 -0.000289657 0)
(0 8.94405e-06 0)
(0 4.53565e-05 0)
(0 -2.91235e-05 0)
(0 -1.18659e-05 0)
(0 1.18205e-05 0)
(0 1.20023e-05 0)
(0 1.0042e-05 0)
(0 -0.00015369 0)
(0 -0.000280547 0)
(0 1.17437e-05 0)
(0 1.23836e-05 0)
(0 -4.37734e-05 0)
(0 8.38421e-06 0)
(0 -4.31698e-05 0)
(0 -1.38939e-07 0)
(0 -0.000207503 0)
(0 -1.16377e-05 0)
(0 9.32566e-06 0)
(0 -0.000288472 0)
(0 4.34231e-05 0)
(0 -0.000218403 0)
(0 -0.00011214 0)
(0 6.6059e-06 0)
(0 1.17836e-05 0)
(0 1.17191e-05 0)
(0 1.44955e-05 0)
(0 9.42437e-06 0)
(0 -3.14727e-06 0)
(0 1.40775e-05 0)
(0 -0.000109311 0)
(0 -4.3917e-05 0)
(0 2.03845e-05 0)
(0 4.20103e-05 0)
(0 1.18127e-05 0)
(0 6.25183e-05 0)
(0 1.34363e-05 0)
(0 6.33114e-05 0)
(0 1.00289e-05 0)
(0 -0.000210791 0)
(0 1.17541e-05 0)
(0 -3.43495e-06 0)
(0 -5.31227e-06 0)
(0 -3.19143e-06 0)
(0 1.18298e-05 0)
(0 9.96299e-06 0)
(0 1.19723e-05 0)
(0 1.17546e-05 0)
(0 1.77802e-05 0)
(0 -1.42554e-05 0)
(0 5.73507e-06 0)
(0 -0.000108888 0)
(0 1.17602e-05 0)
(0 1.2048e-05 0)
(0 -0.000191108 0)
(0 -1.82041e-05 0)
(0 1.39387e-05 0)
(0 1.29271e-05 0)
(0 9.14851e-06 0)
(0 -1.51471e-05 0)
(0 9.44189e-06 0)
(0 -7.87398e-05 0)
(0 -8.20509e-05 0)
(0 1.10201e-05 0)
(0 -0.000171103 0)
(0 1.16668e-05 0)
(0 1.29371e-05 0)
(0 -5.83677e-05 0)
(0 -9.32709e-05 0)
(0 -5.40294e-05 0)
(0 6.78993e-05 0)
(0 -1.59879e-05 0)
(0 4.96443e-05 0)
(0 1.19191e-05 0)
(0 -7.61626e-05 0)
(0 1.19116e-05 0)
(0 1.17475e-05 0)
(0 3.60949e-06 0)
(0 1.03347e-05 0)
(0 6.80011e-05 0)
(0 -3.5713e-06 0)
(0 -0.000178489 0)
(0 6.65428e-06 0)
(0 -4.95489e-05 0)
(0 1.25724e-05 0)
(0 5.75207e-05 0)
(0 -0.000143463 0)
(0 -4.16872e-05 0)
(0 -1.10167e-05 0)
(0 1.17575e-05 0)
(0 6.63487e-06 0)
(0 -3.71516e-05 0)
(0 1.17389e-05 0)
(0 1.19096e-05 0)
(0 1.4312e-06 0)
(0 -0.000234454 0)
(0 1.36668e-05 0)
(0 -7.07246e-05 0)
(0 -0.000278948 0)
(0 -0.000140898 0)
(0 -0.000271125 0)
(0 8.11836e-06 0)
(0 -0.000204223 0)
(0 -0.000289897 0)
(0 1.1738e-05 0)
(0 -5.4397e-05 0)
(0 1.1692e-05 0)
(0 9.88285e-06 0)
(0 2.35625e-05 0)
(0 -1.69167e-05 0)
(0 -0.000134404 0)
(0 8.56094e-06 0)
(0 -2.82668e-05 0)
(0 -0.000170817 0)
(0 -0.0001799 0)
(0 5.82751e-05 0)
(0 -0.000185574 0)
(0 3.21861e-05 0)
(0 8.71681e-06 0)
(0 -0.000279179 0)
(0 -1.40591e-05 0)
(0 1.1713e-05 0)
(0 -0.000294202 0)
(0 -1.48578e-05 0)
(0 2.83984e-05 0)
(0 -2.87081e-05 0)
(0 -0.000125118 0)
(0 2.67306e-05 0)
(0 1.01792e-05 0)
(0 1.21202e-05 0)
(0 5.56739e-05 0)
(0 -0.000156265 0)
(0 6.25889e-06 0)
(0 -0.000148641 0)
(0 1.17751e-05 0)
(0 1.18086e-05 0)
(0 -0.000108335 0)
(0 1.1803e-05 0)
(0 2.23954e-05 0)
(0 -0.000126081 0)
(0 -4.52782e-05 0)
(0 -0.000239442 0)
(0 -0.00029073 0)
(0 -5.90346e-05 0)
(0 -7.75533e-07 0)
(0 -0.000179039 0)
(0 1.24827e-05 0)
(0 -7.00811e-05 0)
(0 -0.000173191 0)
(0 4.55867e-05 0)
(0 1.43589e-05 0)
(0 1.18783e-05 0)
(0 -1.25924e-05 0)
(0 -2.66884e-05 0)
(0 6.20547e-06 0)
(0 1.36111e-05 0)
(0 1.14965e-05 0)
(0 4.70381e-05 0)
(0 1.17242e-05 0)
(0 1.05682e-05 0)
(0 1.26012e-05 0)
(0 -9.31141e-05 0)
(0 1.36273e-05 0)
(0 4.11059e-05 0)
(0 -1.39604e-05 0)
(0 -4.39963e-05 0)
(0 1.17558e-05 0)
(0 1.22587e-05 0)
(0 -0.000292736 0)
(0 2.64984e-05 0)
(0 -0.000166636 0)
(0 5.74187e-05 0)
(0 -3.43972e-06 0)
(0 -4.43068e-06 0)
(0 -0.000234675 0)
(0 -9.57371e-05 0)
(0 -1.01525e-05 0)
(0 1.43608e-05 0)
(0 -1.57738e-05 0)
(0 1.17812e-05 0)
(0 -4.2863e-06 0)
(0 -1.5387e-05 0)
(0 -1.19404e-05 0)
(0 1.00677e-05 0)
(0 8.48245e-06 0)
(0 1.1806e-05 0)
(0 1.25561e-05 0)
(0 1.25253e-05 0)
(0 1.06112e-05 0)
(0 1.17655e-05 0)
(0 -0.000293986 0)
(0 1.16123e-05 0)
(0 -2.34018e-05 0)
(0 6.02684e-06 0)
(0 -6.66033e-05 0)
(0 1.55646e-05 0)
(0 1.94218e-05 0)
(0 4.09966e-05 0)
(0 1.17856e-05 0)
(0 1.06596e-05 0)
(0 1.55819e-05 0)
(0 -0.000277019 0)
(0 1.1818e-05 0)
(0 -0.000174847 0)
(0 6.69197e-05 0)
(0 2.55824e-05 0)
(0 3.15145e-06 0)
(0 -0.000134722 0)
(0 -3.85273e-05 0)
(0 -1.1822e-05 0)
(0 -0.000215623 0)
(0 -3.01011e-05 0)
(0 1.83481e-06 0)
(0 1.75349e-05 0)
(0 -0.000160582 0)
(0 -0.000196923 0)
(0 1.17256e-05 0)
(0 -3.03333e-05 0)
(0 -0.000122425 0)
(0 6.13096e-05 0)
(0 1.17322e-05 0)
(0 1.03565e-05 0)
(0 8.3312e-06 0)
(0 1.14301e-05 0)
(0 -0.000215929 0)
(0 -8.94181e-05 0)
(0 1.18501e-05 0)
(0 -4.10104e-05 0)
(0 1.28024e-05 0)
(0 1.52114e-05 0)
(0 1.1805e-05 0)
(0 -0.000237333 0)
(0 1.16521e-05 0)
(0 -2.12301e-05 0)
(0 -2.214e-05 0)
(0 -0.000122975 0)
(0 4.87202e-05 0)
(0 1.17597e-05 0)
(0 -1.41145e-05 0)
(0 1.17766e-05 0)
(0 -0.000172193 0)
(0 1.95819e-05 0)
(0 1.21097e-05 0)
(0 2.86716e-05 0)
(0 1.1808e-05 0)
(0 1.18972e-05 0)
(0 -1.33737e-05 0)
(0 -8.94668e-07 0)
(0 1.18073e-05 0)
(0 -2.15418e-07 0)
(0 1.18292e-05 0)
(0 1.843e-05 0)
(0 2.81571e-05 0)
(0 1.18332e-05 0)
(0 1.14457e-05 0)
(0 1.17439e-05 0)
(0 1.49211e-05 0)
(0 7.45948e-05 0)
(0 3.9888e-05 0)
(0 1.17594e-05 0)
(0 1.21401e-05 0)
(0 4.86397e-05 0)
(0 -0.000144405 0)
(0 9.78775e-06 0)
(0 9.66738e-06 0)
(0 1.18503e-05 0)
(0 -0.000173218 0)
(0 7.08285e-05 0)
(0 1.18267e-05 0)
(0 2.08839e-05 0)
(0 -4.35122e-05 0)
(0 1.21048e-05 0)
(0 1.12013e-05 0)
(0 7.30161e-05 0)
(0 -8.42823e-05 0)
(0 1.17541e-05 0)
(0 1.18008e-05 0)
(0 -0.000156874 0)
(0 -2.7316e-07 0)
(0 9.27565e-06 0)
(0 -1.59326e-05 0)
(0 -1.45339e-05 0)
(0 3.09611e-06 0)
(0 -0.000200481 0)
(0 2.28213e-05 0)
(0 1.33397e-05 0)
(0 -2.98792e-05 0)
(0 1.17366e-05 0)
(0 3.2755e-05 0)
(0 1.17584e-05 0)
(0 -0.000289551 0)
(0 1.00764e-05 0)
(0 1.17092e-05 0)
(0 9.91266e-06 0)
(0 -0.000210131 0)
(0 2.0266e-05 0)
(0 1.04483e-05 0)
(0 -3.50797e-06 0)
(0 6.8427e-05 0)
(0 -0.000130808 0)
(0 -0.00026918 0)
(0 -2.27572e-05 0)
(0 1.18979e-05 0)
(0 -8.38999e-05 0)
(0 -0.000242345 0)
(0 1.17787e-05 0)
(0 9.27838e-06 0)
(0 9.14117e-06 0)
(0 2.47915e-05 0)
(0 -0.000187291 0)
(0 -5.41403e-05 0)
(0 1.5085e-05 0)
(0 1.18509e-05 0)
(0 1.15049e-05 0)
(0 -1.35628e-05 0)
(0 1.25841e-05 0)
(0 -0.000272859 0)
(0 -8.72763e-06 0)
(0 -0.000140322 0)
(0 1.17688e-05 0)
(0 1.43074e-05 0)
(0 5.73216e-06 0)
(0 1.21207e-05 0)
(0 9.40388e-06 0)
(0 -9.18289e-05 0)
(0 1.18561e-05 0)
(0 1.18341e-05 0)
(0 -0.000207733 0)
(0 -0.00018122 0)
(0 -0.000291441 0)
(0 -1.30687e-05 0)
(0 1.25178e-05 0)
(0 -7.88791e-06 0)
(0 1.21899e-05 0)
(0 1.488e-05 0)
(0 9.07578e-06 0)
(0 7.19914e-06 0)
(0 1.17878e-05 0)
(0 -1.05301e-05 0)
(0 1.11669e-05 0)
(0 -3.21563e-05 0)
(0 1.17764e-05 0)
(0 -0.000136606 0)
(0 -0.000130191 0)
(0 -2.40057e-06 0)
(0 -2.99703e-05 0)
(0 -0.000272589 0)
(0 -0.000211586 0)
(0 3.15578e-05 0)
(0 1.1787e-05 0)
(0 1.17646e-05 0)
(0 -1.66901e-05 0)
(0 1.18112e-05 0)
(0 -4.48974e-07 0)
(0 1.17658e-05 0)
(0 1.18024e-05 0)
(0 1.51363e-05 0)
(0 1.88056e-05 0)
(0 -5.87228e-05 0)
(0 -1.8774e-05 0)
(0 -1.39671e-05 0)
(0 1.19136e-05 0)
(0 1.44861e-05 0)
(0 4.19137e-05 0)
(0 -1.0589e-05 0)
(0 1.15676e-05 0)
(0 1.17945e-05 0)
(0 1.16655e-05 0)
(0 -5.10911e-05 0)
(0 1.18473e-05 0)
(0 2.12749e-06 0)
(0 -1.77805e-06 0)
(0 5.88601e-06 0)
(0 -1.55288e-05 0)
(0 1.1751e-05 0)
(0 8.69805e-06 0)
(0 1.18153e-05 0)
(0 -1.95544e-05 0)
(0 -0.000148305 0)
(0 1.22794e-05 0)
(0 4.54128e-05 0)
(0 3.02179e-06 0)
(0 1.90148e-05 0)
(0 1.21599e-05 0)
(0 -0.000204376 0)
(0 2.65193e-05 0)
(0 -4.96139e-05 0)
(0 4.34742e-06 0)
(0 1.20739e-05 0)
(0 4.28063e-05 0)
(0 9.10706e-06 0)
(0 -0.000213177 0)
(0 8.6921e-06 0)
(0 1.00432e-05 0)
(0 1.17668e-05 0)
(0 -7.70056e-05 0)
(0 1.28187e-05 0)
(0 -2.63314e-06 0)
(0 -4.70307e-05 0)
(0 -0.000147172 0)
(0 1.13742e-05 0)
(0 5.54925e-06 0)
(0 1.55415e-05 0)
(0 2.60274e-05 0)
(0 2.36761e-05 0)
(0 -0.000227282 0)
(0 -1.21115e-05 0)
(0 -0.000156918 0)
(0 6.501e-05 0)
(0 -0.000181549 0)
(0 -0.000217408 0)
(0 1.17641e-05 0)
(0 1.60063e-05 0)
(0 -6.89842e-05 0)
(0 -0.000169994 0)
(0 -8.50856e-06 0)
(0 1.31154e-05 0)
(0 1.17459e-05 0)
(0 1.15026e-05 0)
(0 1.41021e-05 0)
(0 5.16434e-05 0)
(0 -0.000269314 0)
(0 -6.5361e-06 0)
(0 -0.000165608 0)
(0 1.17999e-05 0)
(0 1.1771e-05 0)
(0 -7.94308e-06 0)
(0 -2.96477e-06 0)
(0 -1.00057e-05 0)
(0 1.1843e-05 0)
(0 5.17797e-05 0)
(0 4.23397e-05 0)
(0 1.17638e-05 0)
(0 2.97687e-05 0)
(0 -0.000273054 0)
(0 1.19017e-05 0)
(0 1.17984e-05 0)
(0 1.94843e-05 0)
(0 -0.000150236 0)
(0 3.8835e-05 0)
(0 1.17916e-05 0)
(0 1.22377e-05 0)
(0 1.111e-05 0)
(0 1.2232e-05 0)
(0 1.16455e-05 0)
(0 3.97365e-05 0)
(0 1.18045e-05 0)
(0 7.98701e-06 0)
(0 -3.98862e-05 0)
(0 1.15331e-05 0)
(0 1.25553e-05 0)
(0 2.3733e-05 0)
(0 1.17464e-05 0)
(0 5.62693e-05 0)
(0 -0.00012111 0)
(0 -0.000121911 0)
(0 1.18144e-05 0)
(0 -0.000225986 0)
(0 1.2074e-05 0)
(0 2.42874e-05 0)
(0 4.53575e-05 0)
(0 1.65911e-05 0)
(0 -0.000288692 0)
(0 1.18953e-05 0)
(0 1.17978e-05 0)
(0 -0.000269648 0)
(0 5.00127e-05 0)
(0 1.22065e-05 0)
(0 1.1402e-05 0)
(0 1.17561e-05 0)
(0 8.16157e-06 0)
(0 -1.77699e-05 0)
(0 -1.27363e-05 0)
(0 -0.000173263 0)
(0 -0.00013515 0)
(0 -7.04802e-05 0)
(0 -3.32584e-06 0)
(0 3.72615e-05 0)
(0 7.46568e-06 0)
(0 6.39688e-06 0)
(0 1.16735e-05 0)
(0 -0.000256245 0)
(0 -1.25664e-05 0)
(0 -9.74939e-06 0)
(0 5.07353e-06 0)
(0 9.34462e-06 0)
(0 -0.000182449 0)
(0 1.24373e-05 0)
(0 9.88557e-06 0)
(0 3.0298e-06 0)
(0 1.15535e-05 0)
(0 7.55936e-06 0)
(0 -5.55598e-05 0)
(0 1.18005e-05 0)
(0 -8.17385e-05 0)
(0 -0.000129016 0)
(0 1.19311e-05 0)
(0 1.15979e-05 0)
(0 1.17561e-05 0)
(0 -0.000120408 0)
(0 -8.31536e-06 0)
(0 1.17719e-05 0)
(0 -0.000272092 0)
(0 -0.000185915 0)
(0 1.8995e-05 0)
(0 -3.58656e-06 0)
(0 1.37409e-05 0)
(0 1.26351e-05 0)
(0 -0.000141812 0)
(0 1.17631e-05 0)
(0 1.1905e-05 0)
(0 3.17952e-05 0)
(0 1.13628e-05 0)
(0 1.17556e-05 0)
(0 7.13194e-05 0)
(0 -1.09135e-05 0)
(0 1.08029e-05 0)
(0 1.17543e-05 0)
(0 2.45952e-05 0)
(0 1.27524e-05 0)
(0 -1.12839e-05 0)
(0 1.32935e-05 0)
(0 -0.000212962 0)
(0 9.493e-06 0)
(0 1.17954e-05 0)
(0 1.17076e-05 0)
(0 1.17496e-05 0)
(0 1.16787e-05 0)
(0 3.74946e-05 0)
(0 2.4651e-06 0)
(0 2.4784e-06 0)
(0 -1.28217e-05 0)
(0 8.05134e-06 0)
(0 -0.000129771 0)
(0 1.17483e-05 0)
(0 -2.11834e-05 0)
(0 1.18129e-05 0)
(0 -3.61725e-07 0)
(0 -3.93175e-05 0)
(0 1.09895e-05 0)
(0 1.19323e-05 0)
(0 1.17578e-05 0)
(0 1.18406e-05 0)
(0 1.37831e-05 0)
(0 -6.43994e-05 0)
(0 -0.000206686 0)
(0 1.18444e-05 0)
(0 1.18189e-05 0)
(0 2.01191e-05 0)
(0 -1.11208e-05 0)
(0 -3.04286e-05 0)
(0 1.09774e-05 0)
(0 1.04276e-05 0)
(0 1.21302e-05 0)
(0 8.80214e-06 0)
(0 3.88774e-05 0)
(0 -0.000127911 0)
(0 1.22893e-05 0)
(0 -0.000268526 0)
(0 1.18083e-05 0)
(0 -5.60366e-05 0)
(0 -1.37186e-06 0)
(0 1.23775e-05 0)
(0 -3.8859e-05 0)
(0 1.17802e-05 0)
(0 -8.93101e-05 0)
(0 1.17724e-05 0)
(0 -0.000147759 0)
(0 4.04449e-05 0)
(0 -4.38153e-05 0)
(0 2.81696e-05 0)
(0 -4.97323e-05 0)
(0 1.47799e-05 0)
(0 1.29675e-05 0)
(0 1.17443e-05 0)
(0 1.17617e-05 0)
(0 1.81947e-05 0)
(0 1.25639e-05 0)
(0 4.87755e-07 0)
(0 1.18433e-05 0)
(0 1.17309e-05 0)
(0 -8.37977e-06 0)
(0 -0.000109223 0)
(0 -0.000275141 0)
(0 -2.15448e-05 0)
(0 1.17566e-05 0)
(0 -4.56004e-06 0)
(0 -2.50819e-05 0)
(0 9.52211e-06 0)
(0 -6.37268e-05 0)
(0 -5.75322e-06 0)
(0 -9.168e-05 0)
(0 7.90953e-05 0)
(0 1.28316e-05 0)
(0 1.17922e-05 0)
(0 1.81621e-05 0)
(0 -7.41891e-05 0)
(0 1.13274e-05 0)
(0 -5.99444e-05 0)
(0 4.47461e-06 0)
(0 7.8953e-07 0)
(0 1.17752e-05 0)
(0 2.21434e-05 0)
(0 8.73065e-06 0)
(0 5.98154e-05 0)
(0 -0.000266077 0)
(0 -0.000268672 0)
(0 1.17488e-05 0)
(0 1.17387e-05 0)
(0 8.2988e-06 0)
(0 -0.000174667 0)
(0 -0.000213533 0)
(0 -9.04925e-05 0)
(0 1.18022e-05 0)
(0 -0.000279342 0)
(0 1.17777e-05 0)
(0 1.17495e-05 0)
(0 8.18722e-06 0)
(0 7.90806e-06 0)
(0 -0.000131347 0)
(0 6.47723e-07 0)
(0 -8.02678e-06 0)
(0 6.45403e-05 0)
(0 1.17775e-05 0)
(0 1.10875e-05 0)
(0 1.29041e-05 0)
(0 -1.5474e-06 0)
(0 -1.03783e-05 0)
(0 -3.96721e-05 0)
(0 3.19907e-05 0)
(0 1.16905e-05 0)
(0 1.19256e-05 0)
(0 8.73662e-06 0)
(0 1.17236e-05 0)
(0 1.16907e-05 0)
(0 -0.0001662 0)
(0 5.60084e-05 0)
(0 -0.000150542 0)
(0 -0.000141533 0)
(0 1.17688e-05 0)
(0 1.19183e-05 0)
(0 7.57201e-06 0)
(0 4.98224e-06 0)
(0 -9.599e-05 0)
(0 9.65635e-06 0)
(0 1.30966e-05 0)
(0 1.17669e-05 0)
(0 8.90546e-06 0)
(0 1.18042e-05 0)
(0 1.62792e-05 0)
(0 -2.38861e-05 0)
(0 5.74056e-05 0)
(0 -1.81178e-06 0)
(0 1.23687e-05 0)
(0 -0.000290687 0)
(0 -0.000262234 0)
(0 1.17795e-05 0)
(0 1.05824e-05 0)
(0 1.11732e-05 0)
(0 -0.000210305 0)
(0 1.96676e-05 0)
(0 -8.65624e-06 0)
(0 1.17472e-05 0)
(0 1.15699e-05 0)
(0 -0.000203439 0)
(0 -0.00013714 0)
(0 2.55409e-05 0)
(0 4.98172e-05 0)
(0 -2.43781e-06 0)
(0 6.76419e-05 0)
(0 -0.000131099 0)
(0 1.17545e-05 0)
(0 1.04004e-05 0)
(0 1.17566e-05 0)
(0 4.25619e-06 0)
(0 1.13653e-05 0)
(0 8.12972e-06 0)
(0 1.18051e-05 0)
(0 -0.000203202 0)
(0 1.96086e-05 0)
(0 1.17451e-05 0)
(0 4.82601e-07 0)
(0 -1.5553e-05 0)
(0 1.17586e-05 0)
(0 -4.07226e-05 0)
(0 -0.000235411 0)
(0 1.51899e-05 0)
(0 1.16262e-05 0)
(0 1.17574e-05 0)
(0 3.19944e-06 0)
(0 -0.000151704 0)
(0 -0.000284681 0)
(0 -2.10035e-06 0)
(0 -2.12029e-05 0)
(0 1.26941e-05 0)
(0 1.16314e-05 0)
(0 -0.000286695 0)
(0 2.15107e-05 0)
(0 7.64799e-05 0)
(0 -0.00026488 0)
(0 4.94624e-06 0)
(0 1.18119e-05 0)
(0 -0.000146951 0)
(0 1.21743e-05 0)
(0 -0.000137445 0)
(0 -1.49299e-05 0)
(0 3.49845e-06 0)
(0 1.17676e-05 0)
(0 7.76648e-06 0)
(0 1.56841e-05 0)
(0 1.1703e-05 0)