/*--------------------------------*- C++ -*----------------------------------*\
| =========                 |                                                 |
| \\      /  F ield         | OpenFOAM: The Open Source CFD Toolbox           |
|  \\    /   O peration     | Version:  v2012                                 |
|   \\  /    A nd           | Website:  www.openfoam.com                      |
|    \\/     M anipulation  |                                                 |
\*---------------------------------------------------------------------------*/
FoamFile
{
    version     2.0;
    format      ascii;
    class       surfaceScalarField;
    location    "800";
    object      phi;
}
// * * * * * * * * * * * * * * * * * * * * * * * * * * * * * * * * * * * * * //

dimensions      [0 3 -1 0 0 0 0];
oriented        oriented;


internalField   nonuniform List<scalar> 
20537
(
-0.381739
0.509946
-0.128194
-0.0727372
-0.0951064
0.167843
-0.187594
0.169051
0.0185431
-0.0240183
-0.301454
0.325483
-0.148411
0.163305
-0.0148938
0.273859
-0.460089
0.186234
0.196965
0.203021
-0.399961
0.246108
-0.0888111
-0.157296
-0.457499
-0.0921471
0.549677
-0.0310858
0.211477
-0.180391
0.562748
-0.121596
-0.44115
0.0842439
-0.118879
0.0346349
0.0879573
0.0104942
-0.0984515
-0.0280114
0.0175359
0.0104755
0.677294
-0.546797
-0.13038
0.278832
-0.288611
0.00978187
-0.0470203
0.283794
-0.236768
0.444945
-0.252396
-0.192542
-0.137042
0.14446
-0.00741793
0.0807082
-0.538174
0.346644
-0.370645
-0.0781707
-0.109423
-0.363437
0.583479
-0.22003
-0.690715
0.098408
0.59236
-0.548707
0.185283
0.218889
0.0272197
-0.0874594
-0.181388
0.268851
-0.00264007
-0.00103923
0.00366711
-0.385395
0.227384
-0.353558
0.126181
0.464785
-0.190921
0.231762
-0.278778
-0.0191114
0.188163
0.456412
-0.436777
-0.0196333
-0.602735
-0.0879246
0.115882
-0.129852
0.0139706
-0.00290274
0.0929129
-0.0900101
0.202243
-0.126057
-0.0761862
0.144335
-0.175421
0.0989799
0.357434
0.0423827
0.33974
-0.382092
0.487394
-0.661502
0.174113
-0.00407449
0.00142111
0.00265338
0.385271
-0.56661
0.18134
0.549076
-0.163805
0.0126179
-0.0180896
0.00547166
-0.553278
0.192755
0.360522
0.0975013
-0.480147
0.382649
0.173304
-0.260759
0.315383
0.242661
-0.55804
0.164547
-0.0191073
-0.145439
0.14796
-0.0767397
-0.0712198
-4.44431e-05
-0.00275384
0.00279828
-0.735854
0.37471
0.361256
0.657481
-0.538117
-0.119257
0.660568
-0.17317
0.651911
-0.29518
-0.356702
-0.00131695
-0.00444615
0.0057631
-0.184869
0.412264
0.285352
0.0948672
-0.380196
0.0470981
0.155145
0.0395878
-0.0503775
0.0107897
-0.414976
0.311114
0.103866
-0.142877
0.128861
0.0140158
-0.142473
0.301881
-0.159406
-0.448169
0.143182
0.304996
0.0698233
-0.072726
-0.57806
0.252983
-0.2146
0.216311
-0.00170968
0.197403
0.247548
0.0141263
-0.0172591
0.00313278
0.0863414
-0.0778213
-0.00852011
0.0950741
-0.167811
-0.292227
-0.443496
0.281461
-0.586664
0.305296
-0.52778
0.435167
0.0926337
-0.136598
0.058428
-0.0236184
0.000773601
0.0228448
-0.0008748
-0.175485
0.17636
0.0168077
-0.00140156
-0.17116
0.43271
-0.261532
0.455404
0.0462355
-0.50164
-0.435979
-0.0498066
0.485841
0.0125716
-0.0110061
-0.00156551
-0.332957
-0.0820149
0.116904
-0.0326604
0.481205
-0.168289
-0.312909
0.0679312
0.141916
-0.209847
-0.26298
0.324314
-0.0613305
-0.355404
-0.249782
0.6052
0.0222166
0.0936652
-0.100876
-0.307856
0.408739
-0.20811
-0.0909477
0.252217
-0.161267
-0.0286432
-0.234332
0.562753
-0.551133
-0.0115901
0.0292877
-0.177698
0.00356543
0.0360279
-0.0395933
-0.201171
0.51656
-0.024676
0.587463
-0.0116072
0.00857628
0.00303089
0.17596
-0.173905
-0.00205415
0.073742
-0.382931
0.309206
0.267514
-0.0173232
-0.45632
-0.0990176
0.55534
-0.507932
0.392656
0.115282
-0.18157
0.178693
0.0028772
0.522093
-0.67984
0.15775
0.0665804
0.00927289
-0.168244
-0.291839
-0.540785
-0.0194958
0.560318
0.274748
-0.630138
0.303202
-0.404071
-0.651756
0.651807
-0.0718352
-0.46891
0.34943
-0.0894155
-0.0517445
0.05531
0.0722356
-0.470396
0.398165
-0.574574
0.576735
-0.00208693
-0.192811
0.564008
-0.371105
-0.00422388
0.000149393
0.236806
0.030713
0.0893149
-0.00135752
0.0891011
0.454056
-0.35655
-0.76889
0.343307
0.425589
0.117804
0.336258
0.159441
-0.188725
0.0292844
0.0283432
0.318314
0.170494
-0.0820389
-0.0884554
0.42536
-0.38294
0.556465
-0.160498
-0.395916
0.0185788
-0.00445249
-0.552695
0.116775
0.291182
-0.572619
0.607875
-0.0351955
0.553618
-0.481377
-0.0714848
0.0878191
-0.0163342
0.0085657
-0.00774123
-0.000824463
-0.029234
-0.0234353
0.0526692
-0.00202307
-0.00958411
0.378278
0.27932
0.16057
-0.561722
0.401169
0.715094
-0.381449
-0.33364
0.412416
-0.0838317
-0.328576
-0.174239
-0.39237
-0.446559
0.612828
-0.166268
0.0413193
0.129175
-0.268989
0.465986
0.111852
0.437225
-0.00159285
0.130161
-0.424146
0.617399
-0.193157
-0.0100901
-0.0179214
0.309341
0.342595
0.365046
-0.208094
-0.156946
0.305456
0.106969
-0.497789
0.18638
0.311443
0.235441
0.127769
-0.3632
0.0152846
0.132675
0.0036595
0.160888
-0.35169
-0.245797
0.597487
-0.0766151
0.226275
-0.149658
0.00306401
-0.00438096
0.163361
0.39315
0.27287
-0.371659
0.0987965
0.638286
-0.228967
-0.409313
-0.677067
0.23051
0.00439412
-0.218993
-0.32152
0.349879
0.0316262
0.00857607
-0.0402023
0.000269856
-0.0238882
0.239479
-0.544648
0.305196
-0.172653
-0.325101
0.0159289
-0.0451629
0.566193
-0.402784
-0.121696
-0.358447
0.184366
-0.0249241
0.533688
-0.511936
-0.0217394
-0.0193713
-0.117671
-0.51749
0.664933
-0.14744
-0.271177
0.055537
0.215644
0.0148566
-0.129106
-0.36377
0.492933
0.0497694
-0.159192
-0.36188
-0.234638
0.596518
-0.448017
0.613615
-0.165578
-0.1702
-0.277961
0.35794
-0.550657
-0.168553
0.160265
0.00828853
0.225323
0.0182423
-0.243564
-0.300294
0.00375996
-0.0038044
0.262444
-0.540545
0.278111
0.186829
-0.211367
0.0245392
0.0508767
-0.0112888
0.402002
-0.178682
-0.223311
0.539866
-0.379279
-0.228992
0.531195
-0.302202
0.463052
0.0706541
-0.430301
-0.0974581
-0.300702
-0.468182
0.0138148
0.0158974
-0.0297122
-0.581356
0.0845614
0.496875
-0.54066
0.145675
0.395031
-0.0182408
0.216871
-0.198629
-0.493044
0.363992
-0.00605575
-0.0298185
0.0358743
0.149806
0.140472
-0.290273
0.0282675
-0.00177887
-0.0264886
0.128242
0.440811
-0.569052
-0.0150268
-0.0334169
0.0484437
-0.357175
0.430937
-0.529002
0.244708
0.284293
0.45021
-0.633283
0.183076
-0.716514
0.428594
0.287926
0.594471
-0.187626
-0.406843
-0.160307
0.414873
-0.254561
0.00551916
0.00709876
-0.108064
-0.411373
0.51952
0.0302277
-0.00196022
0.266344
-0.116534
0.195338
-0.366481
-0.00486099
0.0474273
-0.0425663
-0.0665572
0.144601
-0.0780432
0.000227035
0.0340463
-0.0342734
-0.597916
0.579347
0.0185872
-0.0469759
-0.19202
0.238998
-0.525151
0.0688342
-0.000908743
-0.00302776
0.00393651
0.670787
-0.220576
0.221285
-0.00239427
0.357559
-0.280579
-0.0769784
-0.285442
0.524949
0.537203
-0.156116
0.146698
0.00941848
-0.0662559
-0.248983
0.315242
0.0357314
-0.0417871
0.103423
-0.245894
0.279099
0.436
-0.457315
-0.0833036
0.152562
0.312228
0.42752
-0.526085
0.0985682
0.57196
0.0581034
-0.630063
-0.195041
0.176801
0.455377
-0.554391
0.027926
0.00416063
-0.0320866
0.19498
-0.0190201
0.51387
-0.34916
-0.16471
-0.396717
0.295314
0.101412
-0.223321
-0.124558
0.347885
0.659646
-0.387023
-0.27261
0.528697
-0.101176
-0.247276
-0.106721
0.35401
-0.0912536
-0.0305884
-0.120867
0.151456
0.403639
-0.134941
-0.268696
0.257796
-0.0324717
0.00861658
0.0792025
0.00687661
-0.0160201
0.00914353
-0.188475
-0.348423
0.536965
-0.43741
-0.450145
0.353001
0.0971498
0.336677
-0.0486844
-0.287991
-0.627017
0.205869
0.421156
-0.126746
0.10349
0.0232562
0.18929
0.212719
-0.368315
0.121053
-0.207689
0.116743
0.0475826
-0.0524435
0.412066
0.142456
-0.554516
0.294412
0.365247
0.186372
0.468162
-0.113306
-0.354855
0.177828
-0.178702
0.256495
0.0223399
-0.534688
0.374236
0.607497
-0.152093
0.586236
-0.178575
-0.407658
-0.00081183
0.0349688
-0.034157
0.059683
0.503066
0.0237655
0.548194
0.0804488
-0.556559
0.476113
-0.501892
0.598062
-0.0961688
-0.151363
0.120775
-0.0643898
0.401068
0.418326
-0.331089
-0.0872353
0.0311748
0.455826
-0.486972
-0.384215
0.498371
-0.114069
0.0843745
0.38379
-0.624846
0.212071
0.412774
0.144229
-0.102909
0.149141
-0.334002
-0.104122
0.389494
-0.219446
0.217654
0.0017934
-0.423478
-0.201368
-0.0367088
-0.0900369
0.0711822
0.170377
-0.241556
0.0909475
0.0259569
0.436069
-0.570624
0.134596
0.034481
-0.00655498
0.106865
-0.183478
0.079341
0.204459
-0.0127531
-0.0276368
0.04039
-0.144373
0.368453
-0.22406
-0.355219
-0.152707
-0.0396167
0.0373835
0.00223317
0.4805
-0.449292
-0.0147116
-0.146271
0.160984
0.227592
0.0246278
-0.225371
0.374523
0.00971471
-0.00114899
0.223049
-0.151863
0.386777
-0.363108
-0.0236571
0.044426
-0.0570806
0.0126546
0.649028
-0.256839
-0.392184
0.0566966
-0.280014
0.731984
-0.36508
-0.366899
-0.0454246
0.0446128
0.1262
-0.0161004
-0.110099
-0.508871
0.400885
-0.19136
0.0462489
0.145112
-0.263588
0.491642
-0.227972
0.0273561
-0.0204795
0.00497866
0.445737
-0.450706
-0.454056
0.642139
-0.188067
0.611842
-0.248789
-0.363032
0.125751
0.000449274
0.200221
-0.247195
-0.324629
0.0738643
0.250771
0.107615
-0.371307
0.226954
0.328878
0.057916
0.490435
-0.612029
0.0254205
-0.0249765
-0.0328364
-0.0118299
0.0446662
0.0806475
-0.387549
0.306907
0.0397215
-0.0524746
0.0086748
-0.0766621
0.0679873
0.385173
-0.0198989
0.206729
0.125099
0.0191297
0.54895
-0.330009
-0.218934
0.028339
0.228103
-0.25644
0.00055302
0.114203
-0.114756
0.107751
-0.232653
0.515505
-0.28284
0.249449
0.0818365
-0.331284
-0.00654921
-0.0316943
0.0382435
0.0391322
-0.585811
0.666188
-0.0709171
-0.595268
0.168992
0.4972
0.181434
-0.0401834
-0.14125
-0.110281
-0.214341
-0.21833
0.24667
0.00396259
-0.00487133
-0.49457
0.321943
-0.121156
0.370606
0.357506
0.254357
-0.502379
0.238884
-0.112627
0.568006
-0.0546789
0.576775
-0.181765
0.553347
-0.371545
0.0359632
-0.0425124
0.672279
-0.357164
-0.315114
0.317577
-0.443771
0.126225
0.179272
-0.193983
-0.651992
0.357799
0.294198
0.103818
-0.0128702
-0.300858
0.237497
0.0633633
0.137683
-0.344809
0.0439536
-0.0123273
-0.118661
0.436269
-0.257153
0.0968487
-0.0313011
-0.19764
0.228944
-0.297156
0.43484
0.0846722
-0.447625
0.362987
0.158669
-0.62906
0.204703
0.212432
-0.417124
-0.013461
0.0100524
0.00340859
0.639507
0.00704434
0.00267039
0.241103
-0.103214
0.103767
-0.0323179
0.0408939
-0.696544
0.165981
0.530565
-0.164794
-0.531747
-0.0185367
-0.338951
0.357497
0.632466
-0.153756
-0.478665
0.516257
-0.52986
0.0137223
0.392565
-0.311913
-0.0864309
-0.104929
0.0306259
-0.0130901
-0.256212
0.217493
0.03872
-0.0430526
0.0432796
0.0427132
-0.00959515
-0.0331181
-0.396075
-0.255913
0.234053
-0.422474
0.0111172
0.00455186
-0.0180154
0.0134635
0.112951
0.244609
-0.0470668
-0.00467774
0.442719
-0.238007
-0.216337
0.185038
0.500685
-0.534088
0.0334298
-0.0873005
0.0959754
-0.436914
0.515798
-0.0788569
-0.11009
-0.178519
0.368483
-0.387006
-0.448088
0.342633
0.105485
0.0534507
0.0921041
0.388425
0.317264
0.321026
-0.122687
-0.0201899
0.231055
0.070676
-0.301729
-0.0140771
-0.0121543
0.0262314
0.35386
0.00995228
-0.363805
-0.135321
-0.446987
0.0253067
0.421687
0.386605
0.142092
-0.330776
0.0910495
0.239731
0.180353
0.0010808
0.287346
-0.207999
0.153702
0.440771
0.121942
0.431682
0.495026
-0.402891
0.0931461
-0.541143
0.143178
-0.157675
0.014497
0.068985
-0.463066
0.394081
0.127927
-0.118615
-0.00931225
-0.0555551
-0.391424
0.013279
-0.22664
-0.210136
0.125992
0.139966
-0.0608216
-0.0952945
0.444759
-0.360047
0.473476
-0.0868673
0.658309
-0.498581
-0.159723
-0.175875
0.0180737
0.157802
-0.176542
0.480135
-0.303591
0.00564141
0.17906
-0.1847
-0.0211806
-0.00355996
0.0247405
0.589714
-0.126645
-0.621463
0.219514
0.401952
-0.54506
0.36852
0.00852594
-0.0187488
0.305059
-0.666937
-0.228811
0.225356
0.00345665
0.00888183
0.545707
-0.133637
-0.487929
0.542986
-0.0550296
-0.403712
0.104666
0.299063
0.132127
0.0261603
-0.1029
0.0766505
-0.366662
0.290018
0.0696402
-0.0683744
-0.00126588
-0.54545
-0.0524459
-0.565008
0.31624
0.0028855
-0.000210371
-0.00267513
-0.0751656
0.348041
-0.45592
0.53637
0.173086
-0.105155
0.465519
0.166989
0.208503
-0.155369
-0.377664
0.533064
0.114241
0.187267
-0.301504
-0.125087
-0.246008
0.371105
-0.428316
0.463136
0.126595
-0.0145183
0.0589443
0.38105
-0.430812
0.204474
-0.197813
-0.00665941
-0.0785474
-0.494012
0.268766
-0.38521
0.11645
-0.612175
0.196981
0.415196
0.563118
-0.563067
0.518635
-0.154861
-0.363746
-0.553298
0.134551
0.517303
-0.0731139
0.448957
-0.375839
0.26161
0.108313
-0.369906
0.329909
-0.498192
0.115174
-0.478888
-0.165895
0.666606
-0.00922178
0.00613488
0.00308689
0.00195437
-0.023135
0.140309
0.323081
-0.463343
0.404989
-0.136217
-0.288027
-0.0427445
-0.305172
-0.22091
0.00464327
0.00792834
-0.363731
-0.201258
0.314431
0.35785
-0.073292
-0.374301
-0.155209
0.00450727
0.150702
-0.334664
-0.0643894
0.39908
-0.00742563
0.00108809
0.00633753
-0.132772
0.543248
-0.410471
-0.00344228
0.000688443
-0.2282
0.243504
-0.0153035
-0.212611
-0.448887
0.226002
0.178994
0.045127
-0.0207529
-0.0243741
0.211464
0.00982174
-0.381597
0.473622
-0.0920251
-0.520013
-0.0544889
0.314157
-0.426897
0.11274
-0.573606
0.0356
-0.168209
0.578048
-0.409797
-0.579083
0.186301
0.392825
-0.449033
0.339561
0.109504
0.0218194
-0.0172675
-0.158041
0.156365
0.00167643
0.12863
-0.0189469
-0.109683
0.0959059
-0.0910875
-0.00481833
0.0819217
0.32481
-0.676499
-0.0775588
-0.0142646
0.0918234
0.479614
-0.410628
-0.0573527
-0.213821
0.00485637
0.221421
-0.529518
0.224349
-0.333027
0.422127
-0.0613075
0.0462807
-0.517145
-0.0101182
0.527383
-0.0102657
0.00284009
-0.0134463
0.0188159
-0.00500116
-0.148605
-0.139467
0.365476
0.472788
-0.340557
-0.446944
-0.174517
0.32964
0.0740017
0.267904
-0.496896
-0.167744
0.0305138
0.13723
0.355252
-0.119801
-0.120382
-0.0473617
0.0729444
-0.00652332
-0.0664211
-0.535585
0.402818
0.139294
-0.154382
0.00265551
-0.020386
0.0177305
0.379621
-0.0842994
0.335488
0.170773
-0.5062
-0.356678
0.543095
0.339231
0.119275
-0.458476
-0.0135887
-0.154964
0.245116
0.0603742
-0.305487
-0.059007
0.200923
0.0705791
-0.000938905
-0.438213
0.596389
-0.158129
0.00384873
-0.000963223
0.00163558
-0.0263328
0.0246972
0.515329
-0.413641
-0.101683
0.0854232
0.394192
0.208869
0.577289
-0.476867
-0.100422
0.402909
0.442297
0.0813312
-0.523628
-0.0898854
0.0123267
-0.226035
0.0179455
0.120897
-0.119944
-0.000953294
-0.0862254
0.103724
-0.0174983
0.210957
0.449615
-0.380689
0.439772
-0.0590769
-0.0754488
0.393469
-0.318022
-0.211784
0.1716
-0.142383
0.14701
-0.00462641
0.00220403
0.0196154
-0.00546648
0.0713521
-0.0658856
0.352101
-0.106491
-0.341567
-0.12741
0.0816898
0.0457202
0.00309655
-0.0985576
-0.00911758
0.107675
-0.118625
-0.137586
0.399173
-0.0880557
-0.572166
0.316345
0.194445
-0.510734
-0.145361
0.691863
-0.480902
0.2871
0.0925279
0.181553
0.483383
-0.159999
-0.396785
0.556845
0.0754139
-0.00246949
0.158149
-0.471714
0.416165
0.294076
0.39779
0.0160123
-0.00896799
0.343286
0.187911
0.631481
-0.182787
-0.448653
-0.41472
0.562846
-0.148104
-0.0909598
-0.536049
0.555515
-0.00097181
-0.0124892
0.32349
0.19038
-0.205512
0.0134635
0.00535239
0.46496
-0.150802
-0.050168
-0.164025
0.214194
-0.0154459
0.0181014
-0.01989
0.0181111
0.152046
-0.384691
0.021129
0.195184
0.0600903
0.517199
0.431287
-0.236086
0.0161095
0.219979
0.00978123
-0.0682
0.0584188
-0.263389
0.345226
0.0012758
0.119621
-0.276313
0.0358424
0.240473
0.0791758
-0.477218
0.398075
-0.314995
0.24388
0.0711183
0.126839
-0.524241
0.397415
0.0710137
-0.452611
0.135244
-0.143544
0.0083005
-0.373046
0.48828
-0.311019
-0.0765243
0.0215149
-0.509416
0.147021
-0.227283
0.0802636
0.116468
0.0114589
0.411121
-0.316227
0.102015
0.342781
-0.112766
-0.18809
0.061253
-0.317776
0.256542
0.149716
0.151163
-0.00798424
0.0413533
-0.10791
-0.303108
0.0697459
0.233365
0.0107677
-0.109325
0.469888
-0.39068
0.117025
-0.375393
0.258369
-0.382036
0.0121794
0.0012841
0.132686
-0.48984
-0.632241
0.290048
0.342229
-0.0014315
0.0680119
-0.210513
0.426309
-0.215785
-0.00262603
-0.0296918
0.0311155
-0.0345119
0.00339641
-0.00853626
-0.00109899
0.00963525
0.0561219
0.116965
0.079547
-0.516436
-0.0792528
-0.460798
0.484564
0.341262
-0.537964
0.196758
0.122605
0.420648
0.382336
-0.542276
-0.610792
0.274516
0.336275
-0.0273418
0.381208
-0.226889
0.341133
0.699654
-0.405575
-0.0920596
0.00290056
0.0891592
0.0295972
-0.00295583
-0.0891037
0.158792
-0.544066
0.385308
0.13757
-0.556262
0.418695
0.625037
-0.145081
-0.479945
0.00376704
0.121332
-0.00663749
-0.0443357
0.0509732
0.110677
-0.151236
0.04056
-0.0606648
0.127007
-0.587804
-0.451557
-0.0825084
-0.135195
-0.454478
0.589722
-0.25853
0.427226
-0.168675
0.0607404
-0.0861543
0.0254139
0.0364701
-0.0516397
0.0151696
-0.254298
0.315575
0.239817
0.459841
-0.135681
-0.313323
-0.471301
0.212799
0.169177
-0.179209
0.0100319
-0.000694997
0.00464204
-0.00394705
-0.0584976
0.0388095
-0.0584295
0.01962
-0.327474
-0.0994247
0.457666
-0.355611
0.135152
-0.00652204
0.0185783
-0.198316
-0.0296467
-0.089232
0.11589
0.316838
-0.252736
0.151211
-0.0405338
0.362961
0.512613
-0.352684
0.0743088
0.387171
0.271143
0.13118
0.0527253
0.0245769
-0.0281369
0.149747
-0.544466
0.394738
0.392108
-0.11254
-0.279556
0.310662
0.088515
-0.567855
0.399687
0.287304
-0.297922
0.382299
-0.0450363
0.0235249
0.0215114
-0.0027387
0.137982
0.123632
-0.0201426
-0.404292
0.570275
-0.451728
0.560834
-0.402006
0.00106423
-0.010286
-0.100272
0.0140464
-0.304716
0.238463
-0.006341
0.0374565
0.163377
-0.584585
0.421233
-0.00846741
-0.483726
0.49231
-0.413638
0.310428
0.154533
0.0784852
0.00623928
-0.0847245
0.342525
-0.112797
-0.229723
-0.418747
0.0943326
0.324432
-0.192001
-0.420172
0.0721397
0.220309
-0.292444
0.408695
0.21635
-0.000811142
0.00311983
-0.00230869
0.152929
-0.287869
0.0314919
-0.0305033
-0.000988573
0.436422
0.0873432
-0.341618
-0.00105843
0.0195174
-0.018459
-0.00447928
-0.000145398
0.00462468
-0.0739692
0.0961858
-0.384012
0.510865
0.0566777
-0.0653761
0.00869832
-0.188645
0.594371
-0.440667
-0.027882
0.175277
-0.147394
0.18718
-0.181538
-0.133512
0.322823
-0.189305
-0.0030171
0.574849
-0.230002
-0.34484
-0.589202
0.373456
0.215757
-0.0115708
0.104484
-0.147684
-0.484521
-0.58127
-0.363669
0.238594
0.117985
0.351933
-0.00274424
0.0019331
-0.208789
0.0439595
0.164832
-0.116223
-0.350731
-0.120976
0.406192
-0.584765
-0.396477
-0.346602
0.566569
-0.0596767
-0.506828
0.235908
-0.405195
0.527804
-0.122922
-0.355066
0.478028
-0.617628
0.244297
0.373411
-0.00292029
0.0403038
-0.538407
-0.517216
0.0164215
0.5008
-0.106153
0.424902
-0.318747
-0.440639
0.334175
0.0206701
-0.0217285
-0.544871
0.00343035
0.541447
0.523481
-0.382054
-0.141411
0.0826197
0.0408655
-0.123485
-0.00714832
0.176326
-0.250618
0.525554
-0.274934
0.187902
0.340752
-0.528607
0.257427
-0.37073
-0.0138187
0.0526282
-0.106692
-0.0517817
0.00481638
0.0469653
0.191227
-0.0600457
-0.499725
0.344385
0.575909
-0.408415
-0.167488
0.00296115
-0.00154004
-0.234242
0.491674
0.0945443
-0.330499
0.23596
-0.573362
-0.44002
-0.459635
-0.173979
-0.00556954
0.179549
-0.12722
0.25929
-0.132069
-0.196826
0.367207
0.417844
0.15807
-0.499735
-0.0173048
0.389717
0.133778
0.0946902
0.0241207
-0.513636
0.382741
0.130897
0.00917754
0.151087
-0.327778
-0.301167
0.388538
-0.146032
0.105601
-0.135837
0.0302356
-0.00752091
0.117773
0.224757
-0.0287692
-0.0083838
0.037153
0.00301105
0.0928949
-0.368005
-0.0726028
-0.00606265
-0.0228266
0.0288893
0.359057
-0.24203
-0.0493668
0.0551745
-0.00580767
-0.0266025
-0.0184338
-0.0227222
-0.0251134
0.0478355
0.603908
-0.244058
-0.359847
-0.225967
-0.00920223
0.235171
-0.381708
0.305229
0.0873413
-0.00666798
0.00222182
-0.0170687
-0.5311
0.139472
0.39165
0.585869
-0.594165
0.00832034
-0.0042529
0.150951
-0.358792
0.528018
-0.169226
-0.413367
0.560003
-0.146631
-0.00306496
-0.00153304
0.004598
-0.399055
0.562458
0.345003
-0.45384
0.108872
-0.00295461
0.0202566
-0.00103124
-0.0192254
0.0652618
-0.469552
0.481211
-0.139904
-0.497647
-0.00464207
-0.00106259
-0.00341669
0.0860617
-0.0253213
0.11028
-0.119398
-0.182314
-0.306076
0.488405
-0.0490335
0.0372037
-0.0883943
-0.123389
-0.063416
0.0567786
0.0110709
0.167623
0.175896
0.00337614
-0.0748214
0.0677304
-0.402369
-0.0994859
0.19456
-0.00726418
0.148136
-0.140872
-0.0103329
-0.00768247
0.492124
-0.0493976
-0.0014987
0.000608337
0.00132476
0.00432414
-0.0536909
0.0215124
-0.0198768
0.321107
0.113946
-0.435016
0.201833
-0.0221645
-0.179667
0.475979
0.155544
-0.059225
0.279862
0.112258
0.093268
-0.0534984
-0.0397696
0.654975
-0.654813
-0.0194916
-0.00680191
0.0262936
-0.537012
0.123649
0.124323
-0.041703
-0.433254
0.536164
-0.102875
-0.120094
-0.0640353
0.18413
-0.168792
0.196148
0.0056866
-0.0224017
0.0365871
-0.161671
0.125085
-0.149485
0.336754
-0.482943
0.617536
0.0635015
0.296631
0.395104
-0.065405
-0.329697
-0.372365
0.109462
0.262911
-0.000393481
0.0206501
-0.370339
0.576216
0.654288
-0.339857
-0.439389
0.151436
0.287972
-0.0440779
0.010661
0.0119849
-0.00205881
0.0227289
0.431186
0.172724
0.093451
0.398681
0.023593
0.389001
-0.412569
0.000434427
0.0310575
0.124917
0.530203
0.18927
-0.278686
0.00085707
-0.0245606
0.0237035
0.387021
-0.559769
0.172782
0.0856704
0.196448
-0.282112
-0.110577
0.554996
-0.211708
-0.0197364
-0.0169042
0.0366407
-0.27195
0.393528
-0.121554
0.217175
-0.512331
-0.028257
0.135295
-0.107038
0.00559539
0.0246323
0.121006
0.0260045
0.323046
-0.228496
0.479071
-0.147842
-0.331216
0.285485
0.368805
0.00511034
-0.00428565
-0.000824689
-0.0150146
0.120616
-0.529514
0.0123028
0.0368874
-0.262853
-0.564476
0.395216
0.169304
0.412737
-0.328122
-0.425614
0.59461
0.0211103
-0.472644
0.157463
-0.142487
-0.0149761
0.281932
0.191547
0.452172
-0.107137
-0.0985708
0.381121
-0.235889
-0.0160173
0.0125747
0.00344266
0.0321478
0.0129792
-0.00851578
-0.220293
-0.00312476
-0.0256444
0.0442827
-0.477503
0.207582
0.017776
-0.0800187
0.469042
-0.40548
-0.158951
-0.150122
0.431421
-0.281274
0.339371
0.112835
0.0184128
-0.00174523
-0.0166676
-0.147082
0.470202
0.107477
0.0437346
0.434536
-0.113393
-0.239445
-0.590404
0.00337391
3.35722e-05
-0.00340749
0.207997
0.368794
-0.0484272
-0.0789826
0.121567
-0.248786
0.0387772
-0.112423
0.0736459
-0.245359
0.0365707
0.201122
-0.00492017
-0.1962
-0.00379562
-0.201168
-0.0261122
-0.316191
0.0672114
0.0636213
-0.130013
0.328942
-0.198929
-0.00233269
0.000726215
0.00160648
-0.141687
0.17808
-0.0363919
0.602287
0.420422
-0.287718
0.200398
-0.16381
-0.162834
-0.0281202
-0.315792
0.503734
0.00758549
0.0244556
-0.0320411
0.412193
0.148675
-0.157012
0.0148796
0.0157464
-0.188386
0.607153
-0.41876
-0.104624
0.0852526
-0.258066
-0.142973
-0.355377
-0.0946053
-0.492194
-0.00537206
-0.124071
0.508201
-0.38413
0.384312
-0.268406
0.0811908
-0.0927616
-0.41088
-0.148855
0.0664412
0.0196205
0.0041275
0.000982849
0.238067
-0.0190909
-0.218974
0.0349132
-0.0113883
0.410391
-0.0218568
0.588488
0.226593
-0.591668
0.446538
-0.107279
-0.400051
0.136068
-0.112374
-0.0236941
-0.0984436
-0.231924
0.33038
0.340137
-0.514169
0.174057
-0.0904531
-0.328277
0.107256
-0.561296
0.022286
0.0485572
-0.0120872
0.313092
-0.054855
0.00778824
-0.0106045
-0.0813282
0.0919328
0.435123
-0.118742
0.132709
0.310965
-0.443671
-0.101732
-0.174579
0.1425
-0.152971
0.510312
-0.357341
0.373847
-0.489537
0.115696
-0.496728
0.337824
0.158906
-0.422539
-0.164043
-0.368811
0.561566
0.369751
0.185246
-0.00827971
0.00636009
0.00191962
0.406853
0.0933659
-0.500188
0.0110475
0.0782674
-0.215546
0.259508
-0.207294
0.279439
-0.571094
0.447024
0.4245
-0.592159
0.167684
-0.14361
0.0423879
0.101222
0.261095
0.0979646
-0.404202
0.553725
-0.403957
0.353471
0.124727
-0.478147
-0.313903
0.431709
-0.293034
-0.146337
-0.161135
0.651207
-0.365721
-0.176929
-0.0168022
0.193732
-0.00226086
0.103969
-0.101708
0.357469
-0.407963
0.0504947
0.481841
0.10405
-0.0921957
0.447141
-0.354913
0.378087
-0.15717
-0.220915
-0.199038
-0.186167
-0.300656
0.0692998
0.23136
-0.147976
-0.193319
0.0516329
-0.342061
0.24363
0.337547
0.141538
-0.013263
0.0556899
-0.042427
-0.144621
0.484779
-0.0306097
0.0184554
-0.106923
0.0892783
0.0176443
-0.0767158
0.265986
0.122278
-0.117927
-0.00435181
0.454572
-0.462937
0.668688
-0.243141
-0.42554
0.123048
0.32303
-0.446056
0.308485
0.131792
-0.440276
-0.0352167
-0.426408
0.461628
0.499592
-0.0927115
-0.495969
0.496022
0.165862
0.387884
0.119689
-0.138796
0.568296
-0.144258
-0.424032
0.554469
-0.388585
0.379676
-0.184324
0.211493
-0.200961
-0.0105314
-0.011365
0.0898503
-0.071072
0.338355
-0.261698
-0.143284
-0.474261
0.136789
-0.144053
0.112913
-0.0226242
-0.0902887
-0.0877442
0.326389
-0.0254527
0.12174
-0.115468
-0.00627223
0.136298
-0.0289971
-0.107301
0.57705
-0.1718
-0.405244
-0.151602
0.00533117
0.475555
-0.140021
0.35223
0.289921
-0.328528
0.451597
0.0217046
-0.0214374
-0.000267145
0.013389
0.112362
-0.102662
-0.360404
-0.063846
0.402373
-0.366253
-0.132228
0.498539
-0.379246
-0.145902
-0.435133
0.122378
0.312776
-0.310738
0.443449
-0.334812
0.0977965
0.237018
-0.538437
0.292641
0.196593
0.0149014
0.318213
-0.0871552
-0.018854
0.0177802
0.00107381
0.00992777
0.553248
0.156705
-0.123911
-0.0327929
-0.34909
-0.261701
0.0342321
-0.0249311
-0.00930096
0.193184
-0.00152751
-0.191655
0.00783903
0.0510543
-0.0588934
0.118793
-0.0241022
0.00555081
0.130518
0.0045119
0.146651
-0.00281494
-0.0235178
0.419276
-0.0618083
-0.0124321
0.0283295
-0.580593
0.22331
-0.240671
0.0173611
0.164372
0.40393
-0.0852568
0.222497
0.0275481
-0.250043
0.213643
-0.372575
0.158955
0.0252215
-0.00310652
-0.022115
-0.0703452
0.270885
-0.200537
0.0299543
0.407151
-0.0120946
0.126851
-0.114757
0.0905139
-0.518089
0.392949
0.125226
-0.0809122
0.29018
-0.209263
-0.309617
0.652169
-0.258364
-0.393797
0.396752
-0.0915174
0.0973937
-0.125651
0.121033
-0.446183
-0.121483
0.207057
-0.085574
-0.225909
0.489921
-0.263958
-0.24361
0.0424438
0.276335
-0.458636
-0.408476
-0.0590943
0.0544165
0.120936
0.263963
0.404731
0.366141
-0.112886
-0.253241
-0.00527461
-0.00499111
0.212415
-0.000950032
0.132014
-0.140342
0.00832868
0.0687392
0.00936334
-0.0781025
-0.519513
0.385064
0.134457
0.395378
0.181678
0.0846654
-0.0680772
-0.0165882
0.300118
0.0966398
0.17495
0.0028785
0.224851
-0.0491766
0.00640752
0.0427691
-0.113631
0.422117
0.0358643
-0.117903
-0.033166
0.35095
-0.317782
-0.383827
0.000907401
-0.40265
0.203618
-0.455402
0.349408
0.10603
-0.00158267
0.00102404
0.000558624
-0.234037
0.0231627
-0.148135
0.58704
-0.438902
0.0844457
0.138053
-0.00208517
0.0963357
-0.0942504
0.123875
-0.307725
0.183857
-0.00779489
-0.0413817
-0.0198463
0.0862875
-0.500383
0.561431
-0.0610405
-0.209482
-0.00545085
0.214933
0.0277409
-0.00316396
-0.215508
0.00602659
-0.0734366
0.0646503
0.00878623
-0.504543
0.0430788
0.461549
0.344298
-0.436465
-0.0154278
-0.00054246
0.0159702
0.0178514
0.0950617
0.00458666
-0.00883446
0.00424779
0.121915
-0.557959
0.436153
-0.0980119
0.437604
-0.104365
0.00410019
-0.023977
-0.128665
0.0546954
0.277951
0.106376
0.46578
-0.0919282
0.00292901
-0.176908
0.0578514
0.0183978
-0.0762492
-0.0703559
-0.0119748
0.0823307
-0.38439
0.0643022
0.391055
-0.455295
-0.00862743
0.0653052
0.210185
-0.00805438
-0.202127
0.20122
0.317442
0.088874
-0.107821
0.00654104
-0.142427
0.345464
-0.570087
0.414016
0.156105
-0.000523675
0.00389759
-0.0439427
-0.2185
0.561811
-0.112755
0.560915
-0.448098
-0.0290917
0.0366772
-0.525088
0.0247137
0.615161
-0.172864
-0.4749
0.249048
0.0659934
0.33192
-0.446877
0.114987
0.148116
-0.0406394
0.0770054
-0.198489
-0.049313
-0.10502
-0.238685
0.343715
0.000337825
-0.00259741
0.00225959
0.471
-0.189066
0.0898379
0.00935565
-0.0991934
0.0935763
-0.0958371
0.0044136
-0.506132
0.393475
0.112664
0.370066
0.131022
-0.501038
-0.000616211
0.122356
-0.204652
-0.358375
-0.0263761
0.409035
-0.203199
-0.293527
0.33478
-0.00921135
-0.0807987
-0.157859
-0.213004
-0.376186
0.0014989
-0.0219784
-0.190377
0.201755
-0.0113767
0.012102
0.368779
-0.221338
-0.147432
0.599155
-0.147546
-0.451605
0.560579
0.204322
-0.205819
-0.0745496
0.0690832
-0.000792264
0.00692714
0.207395
0.400525
0.00399766
0.152368
0.0918286
-0.503337
0.411509
-0.103026
-0.332736
0.435783
-0.160061
0.026313
-0.029128
-0.0217722
-0.189593
-0.295686
0.237191
0.11093
0.0242222
-0.084499
-0.250312
-0.0683103
-0.06482
-0.11777
-0.388355
0.314689
-0.502314
-0.49485
-0.0248614
-0.152067
0.152679
-0.155417
0.536742
-0.399169
-0.00392077
-0.100974
0.104894
-0.492529
0.360444
0.132136
0.172286
-0.59473
-0.0527603
0.0287027
0.0240575
0.0249637
-0.0280702
-0.161848
-0.233863
0.395723
-0.0291783
0.0410154
-0.359783
0.281138
0.078647
0.0267198
-0.0252209
0.169907
0.345428
-0.0276713
0.420332
-0.345343
0.456433
-0.111052
-0.0986856
0.18149
-0.637743
0.456261
0.32951
-0.497385
0.167883
-0.328322
-0.037806
0.0400392
0.0361036
0.00772299
-0.0438266
0.0420458
0.114659
0.0487378
-0.0565327
0.0806515
-0.320865
0.240216
0.0287845
-0.00211704
-0.0266675
0.0423707
0.205314
-0.000990235
0.431946
-0.30995
-0.138812
-0.355339
0.494184
-0.377242
-0.502464
0.376973
0.125533
-0.054945
-0.0312092
0.608995
-0.440221
-0.168672
0.257643
0.0224578
-0.280092
-0.37235
0.111561
-0.0883045
-0.00823505
0.0479565
-0.0142954
0.000762652
0.0135328
0.114511
-0.442886
0.328392
-0.063426
0.0799609
-0.0165349
-0.228444
0.346224
0.252805
-0.327966
-0.20542
0.510781
-0.31007
-0.215011
0.00346385
0.00229926
0.31299
-0.0732543
0.0208602
-0.0200031
0.0544659
-0.153952
0.371784
0.0940009
0.114253
-0.00397325
0.400226
0.223827
0.257694
-0.0201944
-0.389083
0.238985
-0.00645976
0.0977508
-0.091291
-0.281369
-0.230555
0.3333
-0.203756
-0.129537
0.437558
0.336265
0.281203
-0.0838321
0.081747
-0.234332
-0.0961835
0.330526
0.233676
-0.129726
-0.103949
-0.142209
0.471726
-0.00240827
-0.152429
0.0155316
-0.0140844
-0.00144715
0.328792
-0.484225
0.155463
-0.131119
-0.0576058
-0.468159
0.0889153
0.38323
-0.0725641
-0.169823
-0.408808
0.578635
-0.0135016
0.0822408
0.0171865
0.206124
-0.186188
-0.199893
-0.086065
0.285963
0.126899
-0.516013
0.389121
-0.14013
0.489447
-0.34928
0.603176
0.326205
0.172258
0.398425
-0.531784
0.133378
0.157827
0.0197487
-0.0424708
0.250158
-0.220201
-0.279306
0.422499
0.5474
-0.24419
0.56072
-0.0316262
-0.529083
0.133175
0.0015597
-0.00963132
-0.0452237
0.101008
0.195883
0.343431
-0.44372
0.100325
0.573503
-0.392005