/*--------------------------------*- C++ -*----------------------------------*\
| =========                 |                                                 |
| \\      /  F ield         | OpenFOAM: The Open Source CFD Toolbox           |
|  \\    /   O peration     | Version:  v2012                                 |
|   \\  /    A nd           | Website:  www.openfoam.com                      |
|    \\/     M anipulation  |                                                 |
\*---------------------------------------------------------------------------*/
FoamFile
{
    version     2.0;
    format      ascii;
    class       volScalarField;
    location    "700";
    object      ddt0(omega);
}
// * * * * * * * * * * * * * * * * * * * * * * * * * * * * * * * * * * * * * //

dimensions      [0 0 -2 0 0 0 0];


internalField   nonuniform List<scalar> 
13917
(
0.0520357
0.000458768
0.0210913
-5.96806e-06
0.000190027
0.000451311
-4.7792e-05
0.0195205
-3.80749e-05
1.52106
0.00143114
-1.36782e-06
-4.44346e-06
0.0587683
-0.000118047
0.0889426
7.75693e-07
-0.0010303
-0.000158219
0.947546
-2.51949e-05
3.5793e-06
-0.000230172
3.47429e-06
-3.74916e-06
-1.54678e-05
0.118825
0.0754101
-0.000162394
1.14313e-06
-0.243606
-0.00034281
-2.82843e-06
-0.0134999
-2.70053e-06
5.03805e-05
-2.56588e-06
1.14199e-05
-4.52345e-05
-0.000116931
-3.35755e-06
2.73468e-05
-2.30022e-05
0.000225502
0.000242433
-0.108541
-1.88863e-05
-0.00816786
-0.0490274
-1.83212e-06
-1.43152e-06
-0.000576015
0.0563318
-5.30566e-06
-4.85952e-06
-0.000872925
91.5759
-0.000231568
1.90914e-05
-0.131898
-0.369329
0.00146878
-1.01435e-05
-3.97855e-06
-0.0497899
0.00252937
-0.000172948
-0.00273167
-0.00146553
0.0355636
0.0155909
-0.00502052
-4.03323e-06
-6.8318e-07
-4.33704e-05
1.64984e-07
4.20437e-05
2.58158e-06
-5.89814e-07
-2.97474e-06
-1.11446e-05
1.06541e-06
-4.03936e-06
0.0423465
-2.71698e-06
0.00535231
-0.000362119
-2.64773e-06
-0.000129674
1.19967e-06
9.21503e-07
-2.46124e-05
-0.014543
-1.75695e-07
-9.85064e-06
-0.000283284
0.473799
3.94781e-06
-2.63616e-06
-0.000579289
-6.94227e-06
-5.71506e-06
-1.33524e-05
1.78278e-06
4.34573e-05
-0.00560611
0.0494904
0.00231304
2.24566e-05
0.0752702
-3.72516e-06
-0.0155341
-0.00018686
-0.109266
-0.0497697
2.37596e-06
-0.000580972
-6.81988e-07
0.00465181
-3.1208e-06
1.69907e-06
1.68422e-06
-0.000843984
-0.00127731
0.0156446
0.0216188
-4.3868e-06
-0.000111273
2.3759e-06
-0.00153169
-0.000118336
0.0337767
-0.0157053
2.82e-06
-0.000200496
0.0489968
-0.146941
-0.00879414
-3.13224e-05
1.10378e-05
-0.0546795
1.73272e-06
-0.0136522
-3.07222e-07
-3.62981e-06
0.000142774
0.0240744
-0.184687
0.447695
-5.23409e-06
-0.000102701
-6.40809e-06
-3.51872e-06
-3.17e-06
0.298156
-3.87756e-06
1.75406e-06
-0.0160816
-2.14326e-06
-1.40007e-06
-1.83014e-06
-0.0405995
6.40396e-06
0.00608586
-0.0882274
-0.0146991
-0.150035
-0.98033
-1.06747e-07
-0.000109456
4.47214e-06
-0.0240458
-3.72919e-05
-0.339039
0.000164341
-4.85628e-06
-6.13655e-06
-3.20109e-05
-0.000106068
1.29343e-05
-2.21656e-05
3.85763e-06
-1.4037e-06
-0.00962872
0.00425939
0.040214
-1.43489e-06
-0.00438826
1.84223e-05
-0.0159273
0.000224836
-0.000160591
-0.00299893
0.0678529
-2.30433e-07
0.0137709
-2.03128e-05
-0.0123978
-3.14575e-06
-1.8183e-06
1.6685e-05
0.0366288
-0.00705004
-1.23343e-05
0.131374
0.000176519
-9.95243e-05
1.12241e-06
0.000101813
-1.12752e-05
6.06571e-07
0.00109393
0.000798257
0.324506
-0.000277848
-9.94705e-05
-0.0324837
3.08775e-06
1.93776e-06
1.76397e-06
-1.07799
-0.00164049
-0.0273316
-2.7984e-06
-7.57914e-06
0.0345001
0.0116912
1.32974e-06
1.14864e-06
-2.08188e-06
1.86968e-06
1.75449e-06
0.00200081
0.0268163
3.31716e-07
-4.31975e-08
-0.000250747
0.000380181
-2.42222e-06
-2.896e-06
0.102318
-0.0253146
-0.00932439
-0.0306034
0.000929618
-1.9155e-07
-0.426369
-0.00032272
-6.73723e-05
-0.000692262
-1.2433e-05
0.0739258
-3.37891e-06
-9.38313e-05
0.000106937
1.62581e-06
-1.81706e-06
-4.62113e-06
0.000115059
1.37275e-06
0.00235233
0.0108289
1.38017e-07
1.1217e-06
2.68916e-06
1.16573e-06
-3.34471e-06
-4.22902e-06
-9.81213e-05
1.16949e-06
-0.00650187
0.0265775
-1.75284e-06
5.07608e-05
-0.0313409
1.21401e-06
5.0196e-06
-0.00388178
1.0965e-06
0.0202219
3.88078e-06
-0.0403232
-5.61546e-06
-9.84958e-05
1.73432e-06
-6.86456e-07
-0.0026556
6.54282e-06
0.118672
-3.30564e-05
0.0042785
0.000307665
0.33477
-0.00720441
-1.15716e-06
-0.000228159
0.000157123
4.14717e-06
0.000177536
-6.63635e-07
9.87162e-07
4.37433e-06
0.00058397
0.00268024
-8.10938e-05
-1.2074e-06
-2.8175e-06
-0.0151818
0.0555516
2.02045e-06
-0.000821155
4.67578e-06
-0.0730581
-0.000211795
0.0159746
-0.232559
-0.0848779
-0.00687567
3.25974e-05
0.0604771
-0.0999699
0.0195129
-5.15386e-06
-0.000118059
0.164924
4.00475e-06
0.000620621
-0.000148479
-1.59779e-07
-0.0244526
-2.94174e-06
-0.000196657
8.05503e-06
1.1219
-1.13372e-06
-8.64229e-05
0.000175175
-0.0719303
3.50732e-07
-0.000612297
-0.00236644
-7.90353e-06
3.6243e-06
-0.0253451
-0.0130366
-0.0286498
0.0525272
9.61842e-07
-3.00372e-06
-0.0322288
-0.00135261
7.20595e-07
0.00018602
-2.52979e-06
-0.000743666
-9.54749e-05
-0.00202671
0.000502265
-0.000114315
-0.000205845
0.00815317
2.10476e-06
-7.81985e-06
-0.000423722
-0.00115616
-1.50195e-06
0.0985175
-0.000201807
-0.0142056
-5.64081e-06
0.00272285
-6.80531e-05
0.0195228
-2.13448e-05
-0.0208422
-0.0636248
0.000184471
-1.97421e-06
0.184625
1.11929e-05
-0.108313
0.000490412
1.38548e-06
0.0523429
4.71599e-06
0.0159572
1.47592e-06
0.765459
0.00874664
-1.88769e-06
0.0457334
-0.000436211
-1.38736e-05
-0.0277615
-0.00884327
-1.64582e-06
-0.00395234
-4.37003e-06
-0.000914696
0.0203305
-2.75583e-06
-4.46285e-05
-1.48494e-06
-5.67118e-07
-1.92915e-06
1.20975e-06
0.0695757
0.00185165
-6.30411e-06
2.58634e-06
1.89289e-06
-0.000125483
-0.0341642
4.30419e-06
-1.49049e-07
-0.000156842
0.00112625
-6.04731e-07
-1.77386e-06
0.00933722
-0.0521266
-0.0913738
-0.000157401
0.0785994
5.11764e-06
2.15035e-06
4.60706e-05
-2.00408e-06
3.4816e-06
9.81936e-08
2.22253e-06
3.57449e-06
-0.302683
-5.3749e-06
-0.000174881
-0.00638127
-0.000174696
6.51948e-07
-3.37962e-06
-0.0367378
3.85839e-06
0.0184134
4.2425e-06
-2.11479e-06
4.39803e-06
1.60035e-06
-2.91532e-06
7.57849e-06
0.0208061
-0.00362307
-0.0152591
-2.02066e-06
-0.000142155
-0.00215367
-8.00316e-06
0.000694174
-0.0222432
-2.3714e-06
-0.116358
5.58792e-07
-1.33596e-06
9.04925e-07
4.05161e-06
2.67446e-07
-2.05089e-06
-0.0166187
-0.47257
1.46163e-07
0.213873
0.000117109
-3.99796e-06
-0.000216264
-0.000525953
-0.0435285
-5.12147e-05
0.00174219
-0.012532
-0.00677358
6.82755e-06
0.00966275
-0.00119661
-1.39926e-05
-0.0720767
1.0004e-06
-4.57818e-06
-9.62756e-06
-4.14067e-05
-4.62575e-05
0.00266384
-0.000369519
0.000209994
9.68483e-05
-0.00131005
-0.000200577
-6.52655e-06
0.171322
-0.000103165
-3.44153e-05
-0.145286
-3.06032e-06
-6.85502e-05
-0.00268761
-1.62783e-06
-0.0148082
-1.12857e-06
1.47927e-06
-0.000120781
1.9815e-06
1.23481e-06
0.000826909
-0.0180657
-0.0155721
-2.05187e-06
-9.14517e-06
-2.83964e-05
-0.0892751
0.0594517
-6.12606e-06
-5.13416e-06
-2.05827e-06
1.32494e-05
-0.037281
3.4441e-06
-2.08748e-06
-5.92843e-06
-7.42056e-07
-0.000254072
-4.60812e-05
5.84566e-07
-0.000394671
-1.64563e-06
2.55611e-06
-1.82722e-06
0.0103145
-1.21576e-07
-1.96464e-05
7.22879e-07
-0.000128611
-0.000427591
-0.00110758
0.000168377
-0.00102586
-5.25602e-07
-0.000165912
-0.00828431
-0.168735
-0.0063989
1.24028e-06
-3.74724e-07
0.00102359
-1.46635e-06
-0.0411809
1.69349e-06
0.0335159
-2.24749e-05
-0.000391715
4.17381e-06
-2.30342e-05
-3.00019
3.72477e-08
-0.000355662
4.72905e-06
1.63047e-05
-0.00800012
-1.26548e-06
-0.00285317
-9.77221e-06
-4.6089e-06
8.15431e-07
0.000665034
-0.000377794
6.43221e-07
0.000638606
-0.000193727
0.396152
0.0671632
-0.0136725
-0.044729
-1.27267e-07
0.0215863
-5.45865e-06
-0.242952
-0.308044
4.59832e-05
0.000419078
-6.92725e-06
-0.000104322
-1.94494e-05
6.85101e-07
4.37539e-06
-2.20347e-06
0.110337
-2.2847e-06
-0.000342063
-4.6377e-06
5.66418e-07
-3.19427e-06
0.0298342
-0.0537404
-1.68307
-0.000684381
-4.92281e-05
0.101544
-0.00498481
1.62304e-06
-0.0390305
-2.59177e-06
-0.000957329
-1.52287e-06
0.302641
-8.51091e-07
-1.46016e-05
-3.89641e-06
0.312497
-0.000108338
-0.0539201
1.12204e-06
-9.35844e-05
2.7944e-06
-6.34588e-06
0.00203507
-0.0179172
3.04318e-06
-0.00144397
-2.85493e-06
2.607e-05
-7.60578e-06
-0.00796842
-2.38457e-06
0.000149061
1.74421e-06
2.10201e-06
0.00256678
-6.54943e-06
-0.00150421
2.02913e-06
-1.26412e-06
-0.256457
-0.000341565
-6.03872e-06
0.164995
-0.00264914
0.0638582
-0.000644581
-9.36867e-08
-0.000130175
0.0245116
-0.00990946
1.63289e-05
-1.33056e-06
6.93408e-05
2.48007e-06
-8.4202e-07
-0.0822807
-0.000462015
-7.80221e-06
-0.445213
-0.000103745
0.14246
0.0567999
0.000804258
-8.78808e-05
-0.00214673
0.0110788
8.75182e-07
0.000694609
-0.0634118
-1.35066e-06
1.37861e-06
-3.54632e-06
-0.000299811
-1.48768e-06
0.0235093
-0.000141992
3.24868e-07
-0.000384132
1.43889e-06
0.00686208
4.31481e-06
2.47806e-06
-0.0172432
-0.00036826
-0.0289815
-4.34019e-06
0.000130412
2.28377e-06
-6.66516e-06
-6.02565e-05
-1.35588e-06
0.0119279
-5.35583e-05
0.108296
-0.0222482
-1.40823e-05
-0.0140165
-8.96776e-06
3.71031e-06
3.5744e-06
-0.00809092
0.0352048
-2.36413e-05
0.0197991
-0.0434912
-1.13697e-06
2.38387e-06
-6.12112e-06
0.00405376
-0.0338376
-9.69536e-05
-6.26946e-06
-1.94639e-05
-0.00101332
2.99244e-05
-0.00132435
-0.000141517
-1.00886e-05
-2.59324e-06
3.39168e-06
-5.9952e-05
0.00010398
-0.0233594
6.30359e-06
0.000170269
0.0103471
0.000122677
-0.021139
-1.2109e-06
0.000174137
-2.49911e-05
-0.00724804
1.6324e-06
-0.000343979
-0.0556142
0.0234626
-1.38935e-06
6.71538e-06
5.73779e-06
-1.95181e-06
-3.683e-06
-0.000107825
-0.00398029
0.0178256
-0.00229374
-3.60765e-07
0.00401026
-3.75794e-05
-4.2128e-05
-0.00200186
-3.25335e-06
-0.000349818
0.490629
1.95234e-07
-0.000386245
0.000449969
-0.000141597
-5.56855e-07
4.16623e-07
-3.04661e-07
0.0520368
-2.44302e-06
4.24706e-06
-0.000195497
-1.25363e-06
1.16855e-06
-0.000390996
0.140106
0.00120355
-0.0279654
-0.000556461
-0.0381432
-3.70458e-06
4.60845e-05
0.486505
-4.81135e-06
-0.00299881
4.82881e-07
1.40656e-06
-3.86913e-06
6.4769e-06
-0.00124405
-2.5608e-07
-0.0694923
-1.0379e-05
-0.419099
-2.49447e-07
-5.35236e-05
6.81067e-06
-0.000750159
-0.000104198
-0.0394971
0.00125532
-2.81184e-08
0.0204279
-2.29203e-06
0.00581037
-1.74152e-05
-0.00928418
2.65594e-05
-5.20867e-08
-1.50334e-06
-0.0386718
-5.75662e-05
0.0821114
-0.110251
-1.923e-06
-0.000142119
3.05956e-08
0.000180763
-0.0718327
8.69084e-08
-0.213718
-2.09705e-05
-0.00598519
-0.000427455
0.201617
4.77454e-07
2.04377e-06
0.000517436
-2.61237e-07
-5.15134e-06
-1.59413e-06
-1.54732e-06
-0.000200563
6.57534e-07
-0.0115882
-1.00039e-05
0.0493918
0.00632526
-0.367189
-0.0202114
-0.0850431
0.0669781
-0.0377341
-9.06412e-07
1.67534e-05
-1.78827e-06
-1.18518e-06
-2.01963e-06
-5.72211e-05
-1.91256e-06
-0.207379
-5.38427e-06
0.10855
-2.48164e-06
-9.645e-05
-9.64964e-05
3.82359e-07
-0.000185733
-2.07743e-06
-3.74008e-05
-3.35511e-05
1.85439e-05
-0.0180329
-0.000456374
-0.103609
2.00323e-06
-2.83181e-06
4.05161e-06
-9.41842e-06
-0.0899954
-8.91826e-07
-0.0137832
-9.87799e-07
-0.0150299
-9.49373e-05
-5.12408e-07
-0.000335997
0.000357573
-8.61225e-07
-0.0148762
-0.0485262
-1.96467e-05
-0.000711589
-6.05264e-07
0.000269409
-2.4322e-05
-8.2009e-06
0.0192774
2.24578e-06
-6.43744e-06
-0.000385772
0.0265542
6.1e-05
-0.00655426
0.274214
-4.33465e-05
2.07206e-05
-6.16284e-07
0.115388
-2.85159e-06
0.00102065
-1.57683e-06
-0.0156274
-0.00010492
0.163442
2.38341e-06
1.3039e-06
-0.000399842
8.76882e-07
9.27204e-05
-0.00133139
-6.64278e-06
-1.75042e-06
-0.0340227
-4.57964e-05
1.63762e-05
-0.000469385
-2.30252e-06
-0.0489756
-0.000111313
-0.000473839
-0.00101341
-1.8314e-05
-0.0173308
-1.259e-05
-0.000436266
-2.00683e-06
-0.00470112
-0.0107658
-4.83339e-06
-1.33741e-05
-4.19384e-07
-5.95712e-06
2.02623e-05
5.93252e-06
2.52068e-06
-1.57525e-06
-5.05161e-05
2.40677e-07
-6.45797e-06
-0.000350411
-0.087516
-0.0392018
-0.000526426
4.37106e-06
-0.00285078
-1.91669e-06
0.351823
-0.0563627
-0.0767321
4.63928e-07
-9.07075e-07
-2.96246e-06
-3.3143e-06
6.15549e-07
-1.14857e-05
-2.6608e-06
-8.55219e-05
-1.76752e-06
1.12073
-0.0299314
-1.68284e-06
-0.0355159
-2.09155e-06
7.41093e-07
0.00129279
-0.00755417
-0.000167829
-3.32046e-06
-0.0388655
-1.9931e-06
3.14772e-06
0.102534
2.83961e-05
0.298496
-6.96496e-06
0.00444417
6.37437e-07
1.25887e-06
-1.08274e-05
0.146218
-1.0191e-06
-0.01313
0.00253692
3.267e-06
2.4505e-05
-2.73427e-06
2.9293e-07
-0.000122591
-0.000126393
-6.77491e-06
-0.0136108
0.641859
0.100434
-0.000206776
9.2096e-07
-0.00745664
1.78652e-06
-0.119939
-5.37376e-05
-4.5193e-05
-9.98065e-07
0.194223
-0.037999
-0.115982
5.27486e-05
-0.310301
2.1987e-05
-2.13592e-06
-0.000142736
-1.0233e-05
-1.49149e-06
0.119153
0.023509
1.58048e-06
-5.67047e-05
0.00121597
-8.02245e-06
4.9678e-07
0.0433268
-0.0136968
-1.48643e-06
-5.08687e-06
-4.05079e-05
-3.13934e-06
3.29927e-06
7.46903e-05
-1.96112e-05
-1.90796e-06
0.182293
-7.59205e-05
-0.116615
-0.0520262
0.00172404
-0.00217958
-4.60759e-06
-2.07126e-06
0.0388307
0.0383423
0.056051
0.000183711
1.39503e-05
-5.61117e-06
-6.33275e-06
0.000161921
-0.03769
-0.00182036
3.86653e-06
-0.000356341
-4.80099e-07
0.0242326
-0.000731156
-2.66805e-05
-0.000331307
-0.338703
-0.0211935
0.0123105
-0.0386523
1.15115e-05
-0.204077
6.54694e-07
-4.24849e-05
-0.000108279
-0.093916
-2.27886e-05
6.56868e-06
-2.05075e-05
0.0445363
-1.14012e-05
-0.0239694
-8.48022e-05
0.000555174
-0.0535191
1.30265e-06
-0.000912086
-3.35125e-07
-4.17418e-06
0.000444429
-0.0903642
1.54112e-06
-7.88883e-07
-1.20548e-06
-0.0763679
-1.67864e-06
-8.31629e-06
-1.95494e-05
-1.15043e-05
-2.5958e-06
2.84315e-05
-0.000453408
4.12364e-06
1.24605e-06
-0.00410791
0.0271561
0.000320949
-0.0176026
-3.69876e-06
-2.69676e-06
-0.0263937
4.52065e-06
-7.94516e-06
-0.0412921
-0.00465098
-7.15191e-05
-7.04365e-05
1.49418e-05
0.0242402
-0.013862
-2.92097e-05
0.0420462
2.95834e-06
-0.000361166
-0.0667682
0.00511478
-0.0339331
0.212616
3.52315e-06
1.79296e-06
-7.43185e-07
-2.50672e-06
3.09827e-06
-0.0218769
2.20744e-06
-0.000132698
2.02134e-07
-0.000329533
-0.038204
-3.60503e-06
-0.0614012
-0.120161
-2.62701e-06
-0.000518965
-2.86059e-05
-3.33432e-06
-1.91649e-06
-0.0069221
-0.000628253
0.0126466
-9.71756e-06
-0.869331
0.000512406
0.000136451
-0.488805
-8.80197e-05
-0.000364894
-3.32661e-07
-0.0637319
-1.82388e-06
9.22105e-06
-4.61377e-05
-2.64919e-05
-5.71966e-06
-0.000369714
0.144841
-2.10528e-06
0.00951266
-0.00446303
-5.15558e-06
-1.63404e-06
-0.00019274
-0.111277
0.276643
-7.3926e-07
-8.61876e-05
-0.00106496
0.026865
-0.0130663
-1.44606e-06
-1.75299e-06
2.46491e-06
-2.73314e-06
1.23341e-05
-7.40589e-06
-0.0970623
-7.35192e-06
-2.34134e-05
-0.0424977
-0.000229762
-0.000547813
-0.0220965
-0.914308
-4.58836e-06
9.59739e-07
-1.89244e-06
-7.13e-06
-0.000448369
-0.0177609
-0.126799
0.00020851
3.13797e-05
-0.000302554
-1.87933e-05
0.0227138
1.13655e-05
0.000661033
-1.40602e-06
0.0011803
0.0107028
-7.50987e-08
-4.48271e-06
-0.0366788
-9.53444e-05
0.00409263
-0.0974953
0.000877359
2.26096e-06
-0.0372031
7.26816e-06
-3.22615e-06
-0.0329985
0.130434
-1.45491e-06
-1.32791e-05
-0.000931132
-6.58839e-05
-3.28328e-06
8.9308e-07
-1.70313e-06
5.39253e-07
-1.91378e-06
-4.94879e-05
-0.00017045
0.0040624
-7.43416e-05
-2.93835e-05
-0.000101336
0.000383409
7.64283e-07
-3.62199e-05
-0.0206843
-0.00794304
0.0258626
-1.67498e-05
1.09231e-06
-0.00606652
-1.63131e-06
0.0614356
-5.97959e-06
-0.000167619
-3.27446e-06
-1.54901e-06
-0.201705
-2.83404e-05
-1.90861e-05
-3.10765e-06
0.243732
0.0771762
-0.00373489
-8.12993e-06
1.58084e-06
0.225074
-1.4466e-06
2.93754e-06
0.00105222
0.0745511
-1.08732e-05
-9.57425e-05
-3.22271e-06
-0.042143
-2.64822e-06
-1.15227e-05
-5.67554e-06
1.2013e-06
-0.00822749
-2.6207e-06
4.43454e-07
0.265665
-0.000331233
0.261211
0.00131141
-2.78586e-06
-7.35458e-05
1.01363e-06
1.35304e-06
2.82287e-05
-3.18882e-06
-2.45551e-06
-0.00229526
-1.44213e-06
-0.000123708
0.000342946
0.000397989
-3.27752e-06
2.72851e-05
1.90043e-06
-0.00707788
2.45544e-06
0.236844
-0.000396814
-2.72006e-06
-0.00033543
-0.000100089
-7.79425e-05
-3.74265e-06
0.000363407
-1.27663e-06
3.13848e-07
0.0101412
0.000238778
0.0015383
1.7294e-06
-1.21481e-06
-5.45191e-05
-0.00258288
-3.16079e-07
-0.0278962
-9.96399e-05
1.28516e-06
-2.77893e-06
1.60126e-06
-7.99802e-05
-0.0338981
-0.0623979
-0.00264808
0.0169941
2.14631e-05
0.000748439
-4.01955e-05
-0.0462914
1.68135e-07
1.72166e-06
-4.14302e-06
-0.0471219
1.6518e-06
-0.0307757
-3.19611e-06
1.80433e-06
0.00206778
-0.0467178
0.0371505
-0.140964
-2.39303e-05
-0.00954689
-0.000695762
5.81921e-06
-0.0469467
-2.15961e-06
-5.2635e-06
0.114674
9.28821e-07
-0.0356623
0.0301105
-1.07543e-06
-1.52254e-06
6.5805e-06
-0.0122098
-4.48036e-06
9.95419e-07
-0.000418451
-3.04357e-06
9.77962e-07
0.000432471
3.48827e-06
-0.000250621
-3.05424e-06
3.00203e-05
-9.74341e-07
0.275584
-0.00193984
-9.52778e-07
-9.40791e-07
-1.25322e-06
-2.8622e-06
-2.07621e-05
-5.89048e-06
6.05507e-06
-3.53264e-06
-2.79379e-06
-6.62218e-06
-1.49611e-06
-0.000688684
1.56523e-06
-0.000767264
2.29783e-06
0.000662551
-7.60884e-07
-2.23238e-06
-9.80599e-07
3.94498e-06
-9.65606e-05
-9.35995e-05
-3.37138e-05
0.286529
-0.0104915
-0.018032
-0.0181649
-0.000604185
-0.0256318
2.20142e-06
-1.45346e-06
0.431339
-0.0564612
-6.29572e-05
-0.00328185
1.03212e-06
-0.000312491
-0.0825567
-1.87053e-05
-0.000818748
-0.0171383
0.0463159
2.03626e-06
-0.00026323
-1.74156e-06
0.102942
-2.31001e-05
-0.0438486
0.765901
-1.83134e-06
0.000141503
0.147456
3.91397e-07
-0.0811285
-0.00435336
-5.69805e-07
-2.08529e-06
-0.0358858
-0.00469911
5.21835e-06
-0.000103169
-6.01472e-06
0.172754
0.000825161
-4.24091e-06
-8.67382e-07
-0.202041
4.94634e-07
-2.70699e-06
-5.47734e-06
-7.02828e-07
-0.222747
-0.00015178
-5.40744e-05
-0.00880885
-1.88187e-06
-0.000809966
-4.01704e-06
-0.0468288
-4.49804e-05
0.101155
-5.07373e-07
-5.12716e-05
-3.97845e-06
2.7921e-06
-2.02632e-05
-3.6888e-06
-0.0679497
-3.46226e-06
-4.30969e-07
-2.21649e-06
-0.00260798
-2.01851e-06
-0.0497242
0.0124094
0.0245144
-4.47147e-06
-4.66628e-07
-2.56682e-06
-0.0072856
-6.24176e-06
-0.048473
2.39839e-06
0.42174
-4.18793e-06
-1.89203e-05
-0.127882
-4.73889e-06
1.28394e-06
-0.00257974
-0.000928566
-0.0285476
1.04527e-05
0.0104165
-0.195774
-2.12227e-06
-0.0106479
-3.80268e-06
-7.56769e-05
-0.608601
-3.30421e-05
0.000266838
0.0182131
5.2335e-05
-0.000588514
-3.28149e-06
-0.074572
-2.42927e-06
-0.0707438
-2.57319e-06
0.0222713
-2.5919e-06
-3.7509e-06
1.2171e-05
-0.3403
3.03852e-08
0.001896
-0.000311829
0.13998
-2.67673e-06
1.6762e-05
-0.018675
0.0381119
0.079645
-8.69729e-06
-7.08978e-07
-0.00144753
0.354832
-2.51838e-05
0.0455831
1.9547e-06
-0.00194146
0.0533687
-1.95743e-07
-0.0106877
-2.72667e-06
0.0223975
-0.317924
1.6244e-06
3.09494e-05
-0.0831269
0.00163605
-2.89664e-06
-5.18251e-06
-6.3334e-07
-4.12947e-06
0.0138742
-1.79555e-05
-0.0434087
-6.5366e-06
-2.7461e-05
-0.0406257
-0.00285157
0.0499338
-0.148424
-3.04433e-06
-2.19222e-06
-0.000392833
0.01297
0.11698
-0.0798511
-0.0042368
-0.000131033
-0.00446176
-0.0256456
-0.0532143
-0.0114481
-2.17864e-06
-0.00042944
-0.000120882
0.000135155
-2.08333e-06
-4.22491e-05
-4.70833e-05
-0.0010278
-0.0171141
-5.49233e-05
-0.733602
-0.00920686
-8.97696e-05
-2.64727e-06
-2.63253e-06
0.0677256
-6.86422e-07
-0.0153152
-3.04013e-05
0.000190314
0.010902
-0.00518743
-9.89329e-07
-8.99651e-05
-6.8536e-05
-1.85986e-06
-0.00932813
-0.00115201
-0.0156747
2.81165e-06
-0.0183388
0.00411471
0.00173835
4.37029e-06
1.29698e-06
4.93336e-05
-0.0123595
0.00149619
-0.000393427
0.0077252
0.0276765
-5.12208e-08
-8.18746e-06
2.45196e-06
-0.00241836
0.0172699
-4.14448e-06
-1.00071e-06
-1.13337e-06
0.162307
-0.0103518
1.29926e-06
-0.000149983
0.00671824
-1.90538e-06
-0.00634116
-1.05163e-05
-0.0139736
-0.000113905
0.162279
-0.050283
-5.41783e-05
-2.2544e-05
0.197623
-1.44269e-06
-0.000108363
0.0476975
5.39156e-09
-0.000964388
-9.44561e-05
-0.00034391
0.0364608
0.00880594
-3.07127e-06
-0.149202
0.0069382
1.03414e-06
0.000352482
-0.000352963
0.000963372
-0.0979021
0.232198
-0.0631055
-0.000232384
0.00463064
-1.00578e-05
-0.000399653
-6.42439e-06
-4.20481e-06
-2.19234e-06
-1.32215e-06
-0.159753
-0.00436828
1.07662e-06
0.000590244
0.00226169
-1.39909e-06
0.0276403
-0.0538723
-1.71773e-05
-6.12543e-06
-7.09163e-06
-1.46261e-05
-0.000239563
-2.33621e-06
-1.03159
-6.8337e-05
-6.35906e-05
-3.29303e-05
-5.08582e-05
-0.00468123
0.000117377
-0.420118
-2.03347e-06
-1.48788e-05
2.61058e-06
1.32607e-06
-0.0124359
-0.000738694
3.05685e-05
-0.635799
-8.1179e-06
-7.25683e-06
3.63853e-05
4.80063e-07
2.04415e-06
-8.49851e-05
-2.06263e-05
0.00477451
0.288386
-0.312218
-3.28541e-06
-0.0117231
-2.58852e-06
-0.103674
-1.01365e-06
8.57657e-06
0.159138
-1.24093e-06
0.10309
0.00136831
2.89041e-05
-1.67767e-06
-1.20831e-06
5.55539e-06
-0.0249577
-8.09176e-07
-3.69049e-06
4.81829e-06
1.27725e-05
-0.000708011
-2.57771e-06
-1.84382e-05
-2.5155e-06
4.91169e-06
0.179269
-7.25604e-05
-1.09102e-05
-0.0020114
0.0383568
-0.0451753
0.106966
1.97435e-06
-1.48313e-05
0.0442799
-2.48241e-06
-0.000530427
-3.52848e-06
0.0237695
1.41346e-05
-3.403e-06
6.24499e-05
-0.0402531
-2.40403e-06
-2.63002e-07
3.71181e-08
-0.00259702
1.14922
0.000799568
-3.00281e-06
-3.91511e-05
-1.74847e-06
-0.0082905
-7.85116e-06
0.170737
-0.000316084
-7.78534e-06
-0.00188834
0.00014734
-0.0673948
-5.80448e-06
4.74621e-06
-4.5628e-05
0.000128258
0.00149405
-3.31613e-06
-8.31695e-06
1.21927e-05
-0.0170243
-7.69847e-07
-3.63811e-06
0.000839007
-5.85295e-06
-0.00123458
-2.01779e-05
2.33127e-06
2.03674e-06
-0.166425
-1.70537e-05
-0.002621
0.00172951
1.70936e-07
-0.0459267
-2.79644e-06
-0.000127957
-9.02459e-05
-2.79893e-06
5.51606e-06
-1.14363e-08
-2.23467e-06
-0.0201472
-0.000262972
-0.00718488
-0.00885959
-1.35258e-06
-0.00298573
-0.000129537
0.094582
-1.68284e-06
0.0549119
-0.00684851
0.0419599
6.58723e-07
-4.97345e-06
-2.07113e-06
0.025972
-0.0203662
0.000204349
-3.52119e-06
-7.47431e-05
-1.11841
-2.97878e-06
-6.49704e-06
-2.2086e-05
-0.000487659
0.531272
6.10905e-08
-0.038942
-0.000153191
-2.59458e-06
-0.0388426
-0.000327883
0.101461
0.147572
-1.55225e-05
-8.22194e-05
-4.20025e-06
1.59806e-05
-1.03076e-05
-0.000606207
-0.000319716
5.85473e-06
-2.00067e-05
0.0253651
0.252555
-8.2781e-07
0.0012388
-0.0179825
0.228561
7.30754e-06
-1.3776e-06
-0.00201757
0.0665317
-0.00301594
-2.05022e-06
-0.00168021
-0.00038216
5.85264e-07
0.00727295
-4.18296e-06
-2.13246e-06
-0.121134
-1.80501e-06
0.00233837
-7.61289e-07
9.66065e-09
-3.93349e-06
1.08682e-09
-0.0516092
2.62402e-06
-2.28148e-06
-0.000808399
-3.21856e-05
-3.19931e-05
2.10723e-05
-4.28435e-06
-2.91106e-06
-1.88331e-06
-3.95807e-06
0.0232497
0.0199239
-0.120112
-0.0946655
-0.000215968
-0.09875
-0.00559681
-0.029945
0.14889
-0.0538252
1.55012e-07
5.61983e-05
-1.83721e-06
-2.04977e-06
2.57773e-06
3.79371e-05
-0.00392461
-0.000328468
-8.77862e-05
-1.29234e-06
-2.23354e-06
-0.000316853
-2.6355e-06
-7.85943e-06
-4.31788e-06
-0.00879872
-5.2385e-05
0.0590727
-3.13534e-06
0.0123165
-8.82023e-06
-6.58289e-06
3.55159e-06
-0.000221943
-1.25804e-06
-0.000478183
-0.0150177
-0.000195063
-0.00321238
-0.257951
7.53719e-06
-3.04194e-05
-0.0156226
0.000593904
2.84262e-06
3.43978e-06
5.22123e-08
0.00421003
3.21616e-07
0.00272989
-0.000995204
-0.000320915
-0.123019
-0.0753552
-0.000432466
-0.0110952
2.07395e-06
-2.35244e-07
0.0572333
-0.0465806
-2.07604e-06
-3.31375e-06
0.657196
-2.15378e-06
0.00512516
-2.92037e-06
-9.98192e-06
6.28348e-06
-2.05989e-06
-0.000247958
-0.00247629
-0.00360517
-2.161e-05
1.56674e-06
-0.000295242
-1.72611e-06
0.00020453
-1.25394e-06
0.00103367
-0.000103009
-7.98781e-06
-7.55008e-07
6.36979e-07
0.0012512
-0.00298674
-0.0018447
-0.222974
-3.66203e-05
0.0552328
-0.000328862
-0.000360899
0.0214289
-2.60516e-06
-0.0145335
-1.31848e-06
-0.00885828
-0.18379
-0.0234077
-0.00610764
9.66419e-07
-8.50135e-05
-0.008633
-3.30957e-06
0.0184751
-4.01446e-06
-1.43027e-06
-3.96661e-05
-3.31339e-06
-8.45566e-05
-0.0031951
-0.303088
-0.730622
-2.16832e-05
-0.00015964
-3.93639e-06
-9.68972e-06
-3.89674e-06
0.00116781
-0.00031263
-0.0744828
-0.00010202
-3.08876e-07
-4.88291e-07
5.11955e-06
-0.00887823
-1.75675e-05
1.03667e-05
-2.08898e-06
-0.000612059
-9.53393e-05
1.84961e-05
-0.000127474
-0.0229522
-3.3627e-05
-0.000104367
-1.77499e-06
-4.01236e-05
0.0440607
-0.197076
-0.000330358
9.53019e-07
-0.0304041
-7.10565e-05
-2.0051e-06
-0.000139937
-0.0263029
0.094294
-1.07867e-05
-2.05162e-06
-0.0416203
-8.68279e-06
-1.90889e-06
-1.74704e-06
0.130098
0.21997
7.33657e-06
-0.0528262
-0.0281826
1.52747e-06
-0.000150984
-1.36234e-05
-0.0150422
-4.64e-05
-0.0227899
-9.08046e-06
-0.00932895
0.000700999
0.00362738
-8.7828e-05
2.23981e-06
-0.0394033
-3.26183e-06
-4.2401e-06
-0.162842
-0.0422936
0.00110156
0.0578262
-2.66685e-05
-5.10696e-06
0.108682
-1.68831e-06
-2.71042e-06
-3.26737e-06
-6.83877e-05
-1.64214e-06
5.61051e-05
7.8685e-07
-0.0726706
-0.0269525
-4.98047e-06
0.0127564
1.2087e-08
-0.0295317
-0.00217522
-2.95189e-06
-2.62591e-06
-3.53862e-05
0.0449128
-0.000669517
-0.000181194
-0.0241011
-0.044145
-0.00742807
-4.66265e-06
-0.0743923
0.0868851
-0.000838851
0.267901
-4.71146e-06
-2.83654e-06
-3.14126e-06
-1.57324e-05
-3.15333e-06
-0.000111088
-0.00596883
-0.000126014
0.000267444
-0.10024
-0.0757609
-0.239514
-0.0436962
-0.000135442
-0.00723611
-0.0011559
-0.000380807
-1.01303e-06
-2.24785e-06
-0.000508678
0.00515526
3.29132e-06
-0.0432962
-0.0458798
5.39422e-07
-2.4284e-06
1.07659e-05
-0.000484141
-9.95926e-06
-0.000310728
-0.0039324
-7.35367e-07
-3.22751e-06
1.6694e-07
-1.48391e-06
-7.36023e-05
-0.0128107
-8.99456e-06
0.00630832
0.000905157
-2.18421e-06
0.0123871
0.00249502
-3.50347e-07
-0.227031
0.0388485
-0.0183994
0.0889429
-0.000508024
-2.64322e-06
0.0721003
-0.0170887
0.00392942
0.0553378
1.96678e-07
-1.0299e-05
8.84739e-07
-1.66447e-05
0.0290881
-8.77026e-05
-2.16161e-06
-2.6677e-05
0.0120626
-0.015549
-1.96335e-05
0.000177444
-0.0162788
-0.0466802
-3.87476e-06
3.78656e-06
0.000343414
-2.2258e-06
-2.67436e-06
0.222118
-1.2448e-06
-0.0193
0.0174366
0.0306636
-1.32734e-06
-0.000120866
-0.00109681
-2.08775e-06
6.48927e-07
0.10185
0.0820662
-1.10356e-05
3.97258e-05
-0.00114162
-0.00629654
-0.0194064
-0.0679449
-4.80232e-06
0.00184281
-0.0348982
-8.68995e-05
-2.52096e-06
-0.00153753
-2.1654e-07
1.56978e-06
0.00334703
-0.000119983
0.000431892
-2.1134e-05
-1.7176e-06
-5.59012e-07
1.18979e-07
-4.5204e-06
-4.9963e-06
-0.0327765
-1.85632e-05
-0.205442
-0.00139189
-0.00015464
-0.000706623
-0.0120081
0.00726499
-0.0234676
-1.02074e-05
-2.51957e-05
-7.71578e-05
-3.05385e-06
0.00434554
-0.0145962
-5.04845e-06
-0.335932
-0.00630455
-1.82841e-07
0.000109232
-0.000757082
0.000457641
0.000793527
-6.28528e-06
0.000898324
0.000609371
0.000981598
0.00187571
-3.63545e-05
-0.000931101
0.000125537
-2.28655e-06
-8.63335e-05
-0.000152583
-9.99479e-07
-0.36837
-0.0103995
0.0124095
-0.0397462
3.41275e-07
1.97521e-06
0.0234271
-0.0205664
-5.111e-06
-1.5752e-05
-0.000371715
-0.0666701
0.346504
-3.87127e-06
6.47352e-05
-1.95356e-05
-2.18381
-0.00187433
-2.35427e-05
0.311067
-0.0169115
-0.000564853
-0.0397288
0.000116005
-0.0117466
-0.0113811
-7.40635e-08
-0.00356116
-0.0120681
-5.51467e-06
7.45514e-05
0.000885155
-7.51849e-05
-5.35668e-07
0.0906146
-0.00506093
1.45269e-06
3.66611e-07
0.0355131
-0.243061
0.000313366
-3.50028e-06
0.00963585
-0.00183228
-0.0433119
-0.0055766
-2.60424e-06
-2.39057e-06
-4.39823e-06
4.06811e-06
-0.0212948
0.47626
-0.0455078
-0.00018792
-0.12739
-0.0493044
3.2162e-06
-2.03596e-06
-0.0139399
1.40716e-06
-0.0103258
-7.76472e-06
-0.0405707
-5.16625e-06
-1.41466e-05
-0.0353564
-1.02405e-06
-0.000340496
-0.0387696
-7.20173e-06
-3.10736e-05
-5.45316e-06
-0.00022015
0.00024435
0.00388791
-0.0349027
1.41636e-05
6.58515e-06
-5.07648e-05
0.000248422
-0.014375
-0.590661
0.00081521
0.00354494
0.000892402
0.0390066
0.000170689
3.7489e-06
-7.776e-07
-1.03752e-06
0.118474
6.64219e-05
0.162257
-0.000168564
0.00191503
-1.39683e-06
-0.0247183
-0.0290262
-1.8078
-2.98623e-06
-4.8311e-06
-4.13028e-08
-0.0257742
0.000406409
0.0340709
0.0633
5.54262e-05
-0.0590565
2.91582e-07
-0.000136855
0.00394433
0.17931
-0.176619
-3.26455e-06
0.00127246
-5.88152e-06
1.13857e-05
-0.000365554
-0.00595533
0.128777
-1.94244e-06
0.000315895
0.0164684
-0.195559
0.0246254
-0.012697
0.0276309
1.48056e-06
-4.63262e-05
-4.29314e-06
0.00176087
-1.58596e-06
0.00158538
-1.6568e-05
-0.000132956
-0.00252907
-0.062964
1.13258e-05
-1.05199e-05
-0.0144193
-0.000875263
-3.07748e-05
-0.167124
-0.000565502
4.09089e-06
3.21698e-07
0.0306464
-4.33216e-05
0.00168889
0.143776
0.102222
0.0260435
8.86675e-06
-0.0485282
-0.0120437
0.137797
0.0891021
-6.43476e-05
-0.000177047
-0.000498651
-0.00317231
0.00234453
-4.12558e-06
0.222006
-9.17124e-05
-0.205142
1.18372e-05
-0.301506
0.244827
0.0351876
-4.27418e-05
-0.0456198
2.70953e-06
-0.00134558
0.00389884
0.19901
0.0245574
-2.03567e-06
2.64456e-07
-0.0118384
6.21229e-05
0.00239006
-2.90018e-06
-0.000206542
-0.000149536
-0.0135989
0.00274549
-0.00994396
-9.72069e-07
-0.00877337
0.00131049
-0.11303
-3.67495e-06
-0.0184166
-0.568202
1.28995e-05
-0.000174524
8.40904e-07
-1.76908e-05
-2.82436e-06
-0.00371868
-8.03841e-07
-3.36087e-06
-0.0115333
0.0589108
-1.00505e-06
-0.00807464
-1.85539e-06
-1.80746e-06
-2.13742e-06
-7.08798e-07
-4.00634e-06
-0.311301
-0.0205168
1.76247e-06
0.305995
-0.000447723
-0.00027292
0.29297
-0.000173363
-1.05472e-06
-0.000107753
-2.81965e-06
-0.00440521
5.49879e-05
-0.0120679
6.40078e-06
0.0434899
0.417323
-1.9771e-05
-0.197589
-0.0077789
-1.11211e-06
0.00408917
-6.37784e-05
-0.000588656
-0.00339168
-8.90344e-07
0.000645457
-0.0040117
-2.7721e-06
-0.102338
-3.31671e-06
0.0225413
0.00129551
0.0367332
0.0002545
-2.34289e-05
-0.0126694
-2.86524e-06
-1.57007e-06
-0.000385084
-9.96579e-07
-2.85506e-06
-3.16294e-06
2.08255e-06
-1.70375e-06
-2.65721e-06
-1.34386e-06
-0.000226833
-1.45729e-07
1.55533e-05
-1.97255e-06
-0.000404448
-0.000874559
3.72067e-07
0.0181088
-2.4074e-07
-2.59288e-06
0.000160575
-0.000218706
3.82251e-06
-2.00038e-06
0.229778
-1.70279e-05
-0.00893953
-1.86967e-05