/*--------------------------------*- C++ -*----------------------------------*\
| =========                 |                                                 |
| \\      /  F ield         | OpenFOAM: The Open Source CFD Toolbox           |
|  \\    /   O peration     | Version:  v2012                                 |
|   \\  /    A nd           | Website:  www.openfoam.com                      |
|    \\/     M anipulation  |                                                 |
\*---------------------------------------------------------------------------*/
FoamFile
{
    version     2.0;
    format      ascii;
    class       surfaceVectorField;
    location    "700";
    object      ddtCorrDdt0(Uf);
}
// * * * * * * * * * * * * * * * * * * * * * * * * * * * * * * * * * * * * * //

dimensions      [0 1 -2 0 0 0 0];


internalField   nonuniform List<vector> 
20642
(
(-0.00200056 -0.00252563 -6.67611e-20)
(-0.00310364 -0.00319997 -2.08955e-18)
(-0.00154058 -0.00358461 -5.71179e-19)
(-0.00752759 -0.00817886 -2.64978e-19)
(-0.0091107 -0.00834143 3.37536e-19)
(-0.00825625 -0.00654549 6.53785e-19)
(0.00330175 -0.00594411 -4.40268e-20)
(0.00441494 -0.00567413 -3.34052e-18)
(0.00353708 -0.00696396 4.3506e-18)
(-6.40619e-05 -0.000130954 -2.55945e-18)
(-6.006e-05 -0.000138803 -2.73034e-18)
(-5.85995e-05 -0.000132847 -6.20661e-19)
(-0.00526866 0.00168581 -5.35587e-20)
(-0.00608385 0.00252533 9.61486e-19)
(-0.00474051 0.00268511 5.19613e-19)
(-0.00591015 -0.00767919 -2.82152e-19)
(-0.00618884 -0.00967065 -4.37402e-19)
(-0.000350588 -0.000311855 9.73264e-18)
(-0.000322338 -0.000318793 3.07426e-18)
(-0.000340897 -0.000346641 -9.11835e-19)
(-0.0340151 0.0125049 1.96712e-19)
(-0.0415535 0.0132084 1.42327e-18)
(-0.035515 0.0195105 -1.9059e-18)
(-0.000293899 4.98524e-05 -1.8095e-18)
(-0.000297054 3.65245e-05 1.33279e-18)
(-0.000306445 4.80488e-05 5.60175e-18)
(0.00587414 -0.00718024 4.33274e-18)
(0.0114365 -0.0115048 1.03783e-17)
(-0.0288018 0.0135412 -6.63483e-19)
(-0.0318552 0.00839876 -3.09771e-19)
(-1.25005e-05 -9.07809e-05 -3.06934e-18)
(-1.2946e-05 -9.19092e-05 8.64265e-20)
(-1.44433e-05 -9.55596e-05 1.63217e-18)
(-7.86619e-06 -1.47146e-06 9.28077e-19)
(-9.24296e-06 -1.33011e-06 8.01604e-19)
(0.0726895 0.096149 -5.63439e-20)
(0.0702113 0.105543 -2.50488e-19)
(0.0897466 0.086509 1.70572e-18)
(0.00163113 -0.00324493 -8.15452e-21)
(0.00163011 -0.00377718 -1.78616e-19)
(0.00105388 -0.00340517 7.19289e-21)
(-0.00136494 -0.00208049 -5.55441e-18)
(-0.0027747 -0.00173562 1.17714e-18)
(9.17167e-06 2.92718e-06 3.6299e-20)
(1.06342e-05 2.74338e-06 7.47021e-20)
(7.97672e-06 1.29297e-06 2.65046e-20)
(-0.0238313 0.0141148 -4.20436e-19)
(-0.0193034 0.0140166 -7.01952e-19)
(-0.0222058 0.0102381 8.22486e-19)
(0.00215564 0.00233146 -6.96378e-18)
(0.00264686 0.00222029 1.1218e-19)
(0.0024608 0.00282994 2.37776e-18)
(-0.0163638 -0.0184326 -1.99589e-18)
(-0.00688523 -0.0184761 -1.91354e-18)
(-0.00753027 -0.0147085 3.80995e-18)
(0.00115503 0.00295929 4.43295e-19)
(0.00153395 0.00324318 6.72711e-21)
(0.0010735 0.00343611 8.84016e-19)
(7.33126e-05 4.97478e-05 8.34352e-20)
(9.2428e-05 3.55686e-05 8.80257e-20)
(8.7013e-05 6.70264e-05 -7.37406e-20)
(-0.00119674 0.000130441 3.49642e-18)
(-0.00111887 0.0001443 -1.81725e-18)
(-0.00118575 0.000214947 -6.58374e-19)
(5.18903e-05 5.66414e-05 -7.03947e-20)
(6.84492e-05 3.42002e-05 -1.38784e-20)
(6.19188e-05 -0.000174512 7.11554e-19)
(6.86641e-05 -0.000190163 -1.18258e-18)
(7.62659e-05 -0.000171176 1.40986e-18)
(0.000463189 0.00516345 -1.34436e-19)
(0.00067012 0.00456574 -1.33537e-19)
(-8.15079e-05 0.00462635 -1.05786e-19)
(-0.0131066 -0.0588414 1.50459e-18)
(-0.0128219 -0.0548714 8.97638e-19)
(-0.00719978 -0.0537468 2.49876e-18)
(0.00216218 -0.00241917 -1.11988e-17)
(-0.00674674 0.0109099 6.72953e-20)
(-0.0049798 0.0101923 1.43427e-19)
(-0.00672251 0.00904913 4.37823e-19)
(-0.000241776 0.000198502 1.87e-21)
(-0.000295822 0.000213777 -8.69561e-21)
(-0.000262095 0.000158561 1.10282e-20)
(0.00102507 -0.00614801 -2.58357e-19)
(-0.00262193 -0.00468745 -3.57452e-18)
(-0.000300938 0.000316275 8.66044e-19)
(-0.000276221 0.000258632 5.51272e-19)
(-0.000236651 0.000328021 3.49328e-19)
(-9.25533e-06 -0.000139286 3.18036e-18)
(-1.1561e-05 -0.000133742 -1.51615e-20)
(-1.55591e-05 -0.00013907 2.70345e-19)
(0.0029783 -0.00420965 8.15229e-19)
(0.00298549 -0.00480277 -2.08138e-18)
(0.00366509 -0.00469477 -4.02038e-18)
(9.80595e-05 -0.000164634 2.02374e-20)
(0.000142236 -0.000157117 -2.82765e-20)
(0.000142088 -0.0002249 4.10236e-20)
(-0.0484766 0.00895319 -2.19195e-18)
(-0.0495699 0.0181748 1.16749e-18)
(-0.000386846 0.000131696 -2.28939e-19)
(-0.000349579 0.000183448 6.3233e-19)
(-0.00043784 0.000198195 -4.06073e-19)
(3.43801e-05 -4.93062e-07 -1.74592e-19)
(5.66835e-05 -1.97065e-07 1.76711e-20)
(3.04173e-05 -4.65675e-07 9.84246e-20)
(-0.00037663 -0.000306421 8.3841e-18)
(-0.000357038 -0.000281585 -4.10192e-19)
(0.00350648 -0.000924419 -7.08509e-19)
(0.00378695 -0.00126941 3.77187e-19)
(0.0032402 -0.00130377 7.44685e-19)
(-3.32247e-05 2.25398e-06 6.29246e-20)
(-2.83993e-05 1.46918e-06 -1.34277e-20)
(-5.22896e-05 2.03019e-06 4.31257e-20)
(0.000796416 -0.000218594 -1.63235e-19)
(0.000974963 -0.00037369 -1.85604e-19)
(0.000734268 -0.000384408 -9.78689e-20)
(-0.00023059 2.93417e-05 4.26053e-18)
(-0.000228132 1.80915e-05 5.58071e-18)
(-0.00022017 2.87439e-05 6.66232e-18)
(0.00142417 0.000180157 -4.23705e-18)
(0.0012278 1.066e-05 -1.65989e-18)
(0.00151146 -7.46668e-05 2.23128e-18)
(0.00127366 0.000467481 -8.8489e-18)
(0.00160381 0.000484454 -3.21218e-18)
(-0.0295401 0.000841704 4.67442e-19)
(-0.0280564 0.00180087 7.57931e-19)
(-0.029589 0.00361278 7.64414e-19)
(0.000815817 0.00261804 3.34391e-20)
(0.00121692 0.00246169 -1.54351e-19)
(0.0693465 0.0196419 -4.35234e-18)
(0.0590151 0.0152225 3.50311e-18)
(0.0602023 0.0254096 -1.5701e-19)
(-0.123171 -0.0946943 -2.43927e-19)
(-0.115577 -0.0658074 5.20816e-18)
(-0.122829 -0.0882852 -7.79558e-19)
(7.55467e-05 -0.000125997 -6.69335e-20)
(5.52505e-05 -0.00018444 5.61936e-20)
(-1.058e-05 -8.60395e-05 -3.36137e-18)
(-1.22876e-05 -8.94397e-05 1.40923e-18)
(-0.011081 0.00399259 1.29306e-18)
(-0.0125816 0.00390212 5.61446e-19)
(-0.0116199 0.00265413 -1.55552e-18)
(0.00764489 -0.000576166 -2.88214e-18)
(0.00948692 -0.000801323 7.32769e-18)
(0.00789201 -0.000578736 1.78741e-19)
(2.10155e-05 -9.9771e-05 -3.61116e-19)
(2.48267e-05 -9.39693e-05 -4.65544e-19)
(2.88558e-05 -0.000105655 -5.34036e-19)
(1.14611e-06 -9.06794e-05 -1.28935e-18)
(6.86578e-06 -8.75109e-05 3.34594e-20)
(1.33785e-06 -8.10986e-05 -1.14323e-18)
(-0.0102534 0.0040503 -1.88611e-18)
(-0.0106726 0.00531582 -3.68889e-18)
(-0.0058833 -0.00655509 5.76368e-19)
(-0.00128631 9.13276e-05 -1.14883e-18)
(-0.00119333 1.95923e-05 -2.79636e-18)
(0.000678012 -0.00010236 2.34596e-20)
(0.000811881 -1.9152e-05 1.32456e-19)
(-0.0307347 -0.00131067 1.084e-18)
(-0.0294752 -0.00268918 -5.87926e-19)
(-0.000102789 0.0840154 1.02074e-18)
(0.00599494 0.0908901 1.36823e-19)
(0.01868 0.091563 6.96801e-20)
(0.00279459 -0.00772008 -4.53406e-19)
(0.00149774 -0.00833869 6.44267e-20)
(0.00161373 -0.00659232 -1.19579e-19)
(-0.000104024 3.41291e-07 -2.90095e-20)
(-0.000109073 -4.01473e-07 3.22342e-20)
(-0.000121549 -8.17311e-07 5.04122e-21)
(4.68491e-05 -0.000179421 9.96874e-19)
(5.16606e-05 -0.000163243 -7.78035e-19)
(0.00347398 -0.00603072 1.70975e-19)
(0.00356667 -0.00506213 1.22921e-18)
(0.00385573 -0.00602872 -3.56192e-18)
(0.00447626 0.0175757 2.02113e-19)
(0.00173614 0.0143905 -2.72022e-19)
(0.00536923 0.0150403 5.22892e-20)
(-0.00850762 0.011697 2.24345e-19)
(-0.0107445 0.0124447 2.13539e-19)
(-0.0104401 0.010078 8.93701e-20)
(-0.0452219 0.00113867 -2.47622e-18)
(-0.05392 0.0025011 -4.40137e-18)
(-0.0247083 0.0194235 1.08451e-18)
(0.00534688 -0.00183156 -7.2749e-18)
(0.00490021 -0.00144016 -1.42321e-19)
(0.00545115 -0.00142594 -2.12352e-18)
(-2.002e-05 -0.0084381 1.10678e-18)
(-1.10099e-05 -0.00716003 -4.5628e-19)
(0.000675405 -0.00779789 2.89066e-18)
(0.002455 -0.00385286 3.59187e-18)
(0.00311483 -0.00375651 -7.06427e-18)
(-6.17226e-05 -2.60327e-05 -1.81552e-19)
(-6.4518e-05 -2.61869e-05 9.01486e-19)
(-6.13537e-05 -3.35854e-05 8.68882e-19)
(0.00055825 -2.67535e-05 7.87893e-21)
(0.000538107 -0.00014224 2.13224e-20)
(0.00202301 0.00350102 -7.09526e-20)
(0.00202833 0.00298797 -1.75179e-18)
(0.000126923 -1.65206e-05 1.82758e-19)
(0.000153978 -3.02937e-05 8.46449e-19)
(0.000139493 8.57834e-06 1.03972e-18)
(-0.00120793 0.00126651 1.67425e-19)
(-0.00125204 0.00155274 2.95102e-20)
(-0.000862212 0.00140658 1.16961e-20)
(0.00046956 2.10834e-05 -1.50365e-20)
(0.000547473 9.94297e-05 4.85816e-20)
(0.000115035 -4.62987e-05 -9.2372e-19)
(9.59926e-05 -1.19802e-05 -2.37418e-18)
(-4.31149e-06 -0.00013987 -3.64643e-19)
(-8.36761e-06 -0.000145984 3.35963e-18)
(0.000198994 -0.000324755 -1.53273e-19)
(0.000231936 -0.000302611 -1.58739e-19)
(0.000192556 -0.000281535 -5.75114e-19)
(2.23323e-05 3.20813e-06 8.73611e-21)
(2.08578e-05 2.96066e-06 -8.59389e-20)
(1.69446e-05 1.44451e-06 4.68245e-20)
(-6.18153e-05 -1.81311e-05 -2.28003e-18)
(-5.8539e-05 -2.5718e-05 1.16725e-18)
(0.00153023 -0.0103933 -1.11107e-17)
(0.00058879 -0.0107919 -7.11683e-18)
(0.000952754 -0.0103256 3.45174e-18)
(2.7626e-05 -1.30912e-05 -1.93788e-20)
(2.75075e-05 -1.42973e-05 2.07041e-19)
(2.92114e-05 -1.56014e-05 8.79792e-20)
(-0.00100434 0.044355 -1.96088e-19)
(0.00385526 0.0478301 -1.38699e-18)
(-0.00344619 0.0499948 3.73128e-19)
(-0.000354407 0.000289243 -8.41973e-18)
(-0.000340737 0.000348289 -1.44882e-18)
(2.9004e-05 -7.18685e-06 -5.80958e-19)
(3.08069e-05 -7.75535e-06 -2.24232e-19)
(3.06476e-05 -5.34611e-06 -7.28569e-19)
(0.00317367 -0.000598391 -2.00157e-18)
(0.00365047 -0.000437364 -1.64956e-19)
(7.42504e-06 2.87033e-06 7.25707e-20)
(7.86475e-06 4.74772e-06 -1.47724e-20)
(-4.09998e-06 1.17931e-05 4.88318e-21)
(-7.03839e-06 1.13952e-05 8.16616e-20)
(-7.04483e-06 1.44997e-05 -1.3975e-19)
(-0.000242408 2.88345e-05 -1.43951e-17)
(-0.125915 -0.121241 -1.23551e-18)
(-0.119961 -0.108 -6.74764e-19)
(0.000221547 -1.42234e-05 9.02376e-20)
(0.000248606 -4.60266e-06 7.32639e-21)
(0.000216419 4.15812e-06 -2.31991e-20)
(-5.34859e-05 -0.000164103 -7.20021e-19)
(-3.47628e-05 -0.000180201 -1.2969e-20)
(-5.74852e-05 -0.000190732 1.43284e-18)
(-0.00635702 0.0131976 -1.02162e-19)
(0.0334689 -0.0255032 1.09204e-18)
(0.0413048 -0.0240839 1.21578e-18)
(0.0486805 -0.0144265 1.37435e-19)
(5.68891e-05 9.42481e-07 -8.00112e-22)
(5.733e-05 6.83436e-07 4.11753e-20)
(4.35074e-05 4.02328e-07 -2.53951e-20)
(2.77789e-05 -8.31011e-06 -9.39667e-19)
(2.80076e-05 -6.65141e-06 1.29043e-18)
(0.0277279 -0.0149644 -1.19321e-18)
(0.0258424 -0.0110219 4.97558e-20)
(0.029416 -0.0104857 7.88888e-19)
(-8.30231e-05 4.59926e-07 6.51842e-20)
(-8.22305e-05 8.4135e-07 2.4262e-20)
(-6.1859e-05 1.26425e-07 -3.9293e-20)
(-8.5244e-05 5.78101e-07 3.61879e-20)
(-9.6238e-05 2.52424e-06 2.28667e-20)
(0.000196977 -0.000362466 2.2733e-19)
(0.000161589 -0.000328474 -2.92408e-19)
(6.63732e-05 2.09384e-06 -6.81211e-20)
(6.6556e-05 2.57695e-06 -7.88484e-21)
(6.31511e-05 1.50212e-06 -1.80385e-20)
(-0.0011141 0.000893961 -1.05021e-19)
(-0.00146911 0.000917556 1.78499e-19)
(0.00325947 0.00415935 -1.94026e-18)
(0.00325637 0.00384298 9.20417e-18)
(0.00250632 0.00411057 9.8634e-18)
(0.018412 -0.0131573 8.33545e-19)
(0.015004 -0.01513 -7.63977e-18)
(0.0195871 -0.017941 -1.01073e-18)
(0.00406826 -0.00668844 2.48044e-20)
(0.00524546 -0.00859505 -9.12302e-20)
(0.00122499 -0.000277177 4.30895e-21)
(0.0011519 -0.00057596 1.82316e-19)
(-0.0117163 -0.0621488 -9.47983e-19)
(-0.016096 -0.0622079 2.24409e-18)
(-1.41449e-05 1.22563e-06 1.19644e-19)
(-1.41651e-05 2.06045e-06 2.38244e-19)
(0.00311382 -0.0054813 -1.04524e-17)
(0.00234177 -0.00504491 4.04583e-19)
(-0.00369735 0.00937642 -3.97096e-19)
(-0.00321822 0.0111225 -2.99663e-19)
(0.00367751 -0.00713383 5.59633e-18)
(0.00254349 -0.00640974 -8.97154e-18)
(0.000151444 0.000124291 2.60795e-18)
(0.000196593 0.000111366 1.50693e-18)
(0.000148878 7.66636e-05 -2.08368e-18)
(0.00166406 0.00245391 -7.17852e-18)
(0.00182733 0.00200959 -5.93767e-18)
(-5.0754e-05 5.34262e-06 -3.81181e-20)
(-5.33247e-05 6.92373e-06 -1.10715e-19)
(-4.98825e-05 5.91186e-06 2.91776e-20)
(0.0051705 -0.00299359 2.89575e-18)
(0.00446674 -0.00357822 3.72613e-18)
(0.0043234 -0.00255183 -4.60288e-18)
(-5.33606e-05 1.23058e-05 -4.56328e-19)
(-5.48327e-05 8.47484e-06 -2.24054e-19)
(-5.23573e-05 8.88837e-06 -3.52381e-19)
(2.44128e-05 4.96752e-06 5.30632e-20)
(2.40591e-05 3.23357e-06 6.08363e-20)
(0.000322523 -3.59883e-05 -1.33259e-19)
(0.000254943 -3.66158e-05 2.17016e-20)
(0.000269527 7.84337e-06 -1.08159e-19)
(-0.0130758 0.0130057 4.57888e-19)
(-0.0106273 0.0152318 2.07309e-19)
(-0.00200549 0.00442952 -3.26385e-18)
(-0.00258104 0.00450689 -4.6381e-18)
(-0.00229562 0.00386479 -2.20143e-18)
(0.0107561 -0.000953104 5.33247e-19)
(0.0109439 -0.00120728 -8.46037e-18)
(0.0104673 -0.00102218 -1.18785e-17)
(0.00233129 -0.0105117 1.21713e-18)
(0.00272967 -0.0101531 -9.70885e-19)
(3.49816e-05 -0.000180893 3.62128e-18)
(2.28018e-05 -0.000181607 4.33842e-18)
(2.80568e-05 -0.000170519 1.82171e-19)
(0.00200567 0.0041129 2.30134e-19)
(0.00257212 0.00377883 7.29826e-20)
(0.000151795 8.28536e-06 1.32079e-20)
(0.000142536 1.50151e-05 2.6045e-20)
(0.000143664 1.72946e-06 2.5557e-21)
(-0.00151962 0.00417887 3.19513e-18)
(-0.00160992 0.00481992 7.42609e-18)
(-0.000530581 5.50351e-05 -3.21968e-18)
(-0.000548365 5.10472e-05 -3.11537e-19)
(-0.000539394 6.95601e-05 4.97898e-18)
(-0.0109218 -0.027476 -5.06509e-19)
(-0.0112578 -0.0246281 -2.37094e-18)
(-0.0133926 -0.0267371 -6.59628e-19)
(0.00736647 0.000825495 4.93862e-19)
(0.00829542 0.000620578 -4.27741e-20)
(0.00860959 0.000183066 4.06658e-18)
(0.000154374 0.000179425 4.79732e-19)
(0.000107577 0.000142473 -9.89562e-19)
(-1.59922e-05 0.000260746 3.67955e-18)
(7.79147e-05 0.000310915 -8.30749e-18)
(6.38625e-05 0.000175693 -1.26307e-20)
(-0.00899474 -0.0653342 -1.65591e-18)
(-0.00600747 -0.0602196 4.24965e-19)
(-0.0102894 0.0946067 -6.64162e-20)
(-0.0136201 0.0870784 -1.00568e-18)
(-0.02548 0.0837965 5.078e-19)
(0.0123531 -0.000343076 -5.38071e-19)
(0.0123302 -0.000310935 -6.72666e-18)
(0.0124145 -0.00031152 -4.96508e-18)
(-0.000460071 0.00646575 -5.40375e-20)
(0.000217656 0.00587575 9.07928e-21)
(-0.000759496 0.00572089 2.00599e-19)
(3.47026e-05 -1.93601e-07 -5.56902e-19)
(0.0774821 0.0843882 6.63755e-19)
(0.0844958 0.0704919 -2.10422e-19)
(0.0927799 0.0616352 -1.87393e-19)
(0.00038976 -1.32867e-05 -1.24405e-19)
(0.000379378 6.05768e-05 -5.55066e-20)
(0.00307917 0.00433172 -3.62828e-18)
(0.00358299 0.00430828 -6.91989e-18)
(8.92353e-05 -3.71451e-05 -5.38033e-20)
(8.83704e-05 -3.2264e-05 2.3049e-19)
(9.00354e-05 -3.07286e-05 -1.48536e-19)
(-5.18052e-05 -3.71552e-05 3.10426e-18)
(-5.40019e-05 -3.80535e-05 -1.11634e-18)
(-5.15923e-05 -4.46375e-05 -9.71517e-19)
(0.00425499 -0.000411388 -5.66631e-20)
(0.00417503 0.000684037 -1.01373e-19)
(0.00357771 -6.27306e-05 1.38436e-19)
(-0.000506642 -0.00911001 3.18937e-18)
(0.000426244 -0.00930559 -1.92607e-19)
(0.0576714 0.0365815 -8.51043e-19)
(0.057296 0.00250347 1.00701e-17)
(0.0535407 -0.00601398 5.60676e-18)
(0.0526127 -0.0098342 2.65494e-18)
(1.29037e-05 -9.34843e-05 5.08653e-19)
(1.55117e-05 -0.000105628 -3.99993e-19)
(0.00286758 -0.000377531 9.91717e-19)
(0.00261248 -0.000175788 7.36469e-19)
(0.00293915 3.24327e-05 1.81578e-18)
(-8.94366e-05 1.77093e-06 1.3003e-20)
(-9.1934e-05 1.63939e-06 -4.11979e-20)
(-0.000106006 2.36155e-06 -3.17068e-20)
(-4.98328e-05 -3.66336e-05 1.06489e-18)
(-5.1975e-05 -2.97622e-05 1.35768e-18)
(0.0190196 -0.037121 -2.10683e-19)
(0.0274771 -0.0271484 1.42901e-18)
(-0.000231417 -0.000238323 9.40749e-21)
(-0.000326477 -0.000271807 1.39767e-20)
(-0.00025398 -0.000346514 -1.45818e-20)
(6.64314e-05 1.63147e-06 -7.48302e-21)
(6.69375e-05 1.99034e-06 2.71991e-20)
(0.00782524 0.0013146 1.55355e-18)
(0.00764444 0.00159396 3.31549e-18)
(0.00870826 0.00108605 5.89469e-18)
(-4.81893e-05 2.93163e-06 6.6813e-20)
(-4.99815e-05 3.13231e-06 6.26581e-20)
(-3.55011e-05 1.39719e-06 5.09102e-20)
(-5.06667e-05 4.65013e-06 9.53524e-20)
(-4.50448e-05 3.91821e-06 2.11351e-19)
(4.92609e-05 -4.83355e-05 9.81636e-19)
(4.98064e-05 -5.09255e-05 6.40105e-19)
(5.25062e-05 -5.01934e-05 5.40244e-19)
(0.0137783 0.0206728 2.75941e-19)
(0.0124101 0.0181416 -1.675e-18)
(0.0154763 0.0187662 8.80611e-20)
(-0.00153508 -0.000134341 -3.8323e-20)
(-0.00131409 -1.73373e-05 -1.85555e-19)
(-0.00132621 -0.000262106 1.44642e-20)
(0.0526181 0.114047 -3.24137e-21)
(0.0176555 0.052292 3.2336e-19)
(0.021477 0.0475412 4.60223e-18)
(0.0189012 0.0464467 -6.29792e-19)
(0.0415737 -0.0192994 1.39224e-18)
(0.034288 -0.018897 6.95863e-19)
(0.0374377 -0.0144404 -2.4115e-19)
(0.0073974 -0.000567545 -1.7425e-18)
(0.0588479 0.0562518 -2.12586e-18)
(0.0419684 0.0588122 -2.0057e-18)
(0.0577931 0.0613089 -2.31579e-18)
(-0.000148087 -4.59551e-06 1.73985e-22)
(-0.0001491 -5.17868e-06 7.99768e-22)
(-0.000147863 -5.36355e-06 -4.57739e-22)
(-0.00115259 0.00714049 -4.07707e-21)
(6.05892e-05 0.00736493 1.97562e-19)
(2.69762e-05 6.90868e-05 -1.37942e-19)
(-7.07101e-06 8.32105e-05 -1.35157e-20)
(3.32085e-05 9.88577e-05 -2.69151e-19)
(0.0101086 -0.00401641 7.76755e-18)
(0.00984349 -0.00329933 -4.96411e-18)
(0.01065 -0.00366187 8.14077e-18)
(-0.000282473 5.40103e-05 1.84049e-18)
(-0.0277263 0.0720799 -2.37144e-19)
(-0.0150257 0.0793967 1.64519e-18)
(-0.0275792 0.0753097 -1.71727e-18)
(-0.0055652 -0.00424231 -1.36385e-18)
(-0.00536296 -0.00373763 8.52083e-19)
(-0.00599739 -0.00374757 -1.98861e-18)
(-7.55542e-05 2.97135e-06 -5.06617e-20)
(-8.70065e-05 4.35202e-06 -9.83084e-20)
(-7.12314e-05 2.74823e-06 5.83408e-20)
(-7.02495e-05 -0.000128883 -5.74312e-19)
(-6.71223e-05 -0.000123227 1.65323e-18)
(-0.0139197 0.00389978 -1.28524e-18)
(-0.0155715 0.0038263 -1.36103e-18)
(-0.0145039 0.0024867 -1.66878e-18)
(-0.000512603 6.07171e-05 -4.26623e-18)
(-0.000519642 3.84954e-05 1.91317e-18)
(-0.00173704 5.57994e-05 -9.5665e-20)
(-0.00174503 -0.000295049 -1.52185e-19)
(-0.000226141 5.89743e-06 2.68881e-18)
(-0.000216576 3.37106e-06 -2.36562e-18)
(-0.000224702 -8.20858e-06 2.29808e-18)
(2.5349e-05 5.12981e-05 4.02042e-22)
(-8.82097e-06 -8.2269e-05 5.24116e-19)
(-9.92287e-06 -8.35389e-05 -3.51846e-18)
(-0.0101644 0.0164834 2.17841e-18)
(-0.00901374 0.015623 3.64331e-18)
(-0.00877556 0.0181038 1.29121e-19)
(0.00586666 -0.00251722 -2.98017e-18)
(0.00609844 -0.00356067 1.38446e-19)
(-0.00821053 -0.0285417 2.25344e-18)
(-0.0130162 -0.0308652 7.36111e-19)
(-8.10841e-06 -8.07416e-05 1.65202e-18)
(-7.33922e-06 -7.80997e-05 2.06202e-18)
(-0.0126943 0.0179323 -1.14117e-18)
(-0.012108 0.0150506 1.23801e-18)
(-0.000191417 0.000236462 3.40886e-20)
(-0.000196969 0.000172405 3.28489e-20)
(-0.00570649 0.0402297 -3.60044e-18)
(0.00139021 0.0387537 1.65084e-19)
(-0.00517892 -0.00483774 -1.2359e-18)
(-0.00600011 -0.0049162 3.36117e-19)
(0.00112938 0.000660446 -1.67989e-18)
(0.000981824 0.000452256 5.26371e-19)
(-0.00558193 0.0120236 5.12238e-18)
(-0.00474571 0.0109532 1.79324e-20)
(-0.00620151 0.0107607 2.38406e-18)
(-0.00398052 -0.00389861 -7.44937e-19)
(-0.00333385 -0.00513181 1.03347e-17)
(-0.00522866 -0.0049325 -9.5218e-18)
(0.00022528 -3.29549e-05 9.10984e-20)
(0.000206502 -1.99073e-05 -3.35663e-20)
(0.00984342 -0.00108536 8.2547e-18)
(0.0103078 -0.00135983 4.90236e-18)
(0.0101737 -0.00107958 -2.12061e-18)
(0.000218978 -0.000485487 -1.41731e-18)
(0.000266201 -0.000500238 1.35343e-18)
(0.000247905 -0.000448204 -1.07134e-18)
(0.00636271 0.00102944 1.18071e-18)
(0.00603154 0.00150706 -5.17426e-18)
(0.000190333 -0.000143752 3.88637e-20)
(0.000155457 -0.000112164 2.34793e-19)
(-0.00014711 -0.000215037 -2.33554e-20)
(-0.000199672 -0.000155658 -2.64436e-20)
(0.000647484 0.00197254 -1.63692e-18)
(0.000895638 0.00179564 7.68278e-19)
(0.000645754 0.00165424 -7.92565e-19)
(0.00373139 -0.0014458 1.36621e-19)
(0.00438249 -0.00144841 1.67813e-18)
(0.00413257 -0.0018637 -8.17265e-18)
(0.0123339 -0.000361608 1.25549e-18)
(0.012082 -0.000343826 3.61775e-18)
(-0.000386781 -0.000163274 1.01847e-18)
(-0.00044859 -0.000141237 -9.16852e-20)
(-0.00043422 -0.000223701 -4.25575e-19)
(-0.0211274 -0.054821 2.26184e-19)
(-0.0175482 -0.05195 -2.0743e-19)
(-0.0248287 -0.0544448 1.08295e-19)
(-0.00562665 0.00309632 2.41638e-19)
(-0.00612069 0.0021039 -1.48968e-19)
(-0.0051114 0.0022865 1.89923e-19)
(0.00274909 -0.000722544 -2.80026e-18)
(0.000368302 -9.71847e-05 -7.308e-21)
(-0.0133751 0.00534536 -3.82637e-19)
(0.000256396 -0.000275662 2.702e-19)
(0.000280848 -0.000316524 -3.2578e-19)
(0.000109341 2.25559e-06 3.52407e-20)
(0.000107103 2.43263e-06 -2.16362e-19)
(0.000107937 7.85563e-06 -1.64202e-19)
(-0.0129522 0.00304657 2.04143e-19)
(-0.0116312 0.00134708 1.48914e-19)
(-0.0104775 0.00337372 -6.47317e-19)
(-0.0159603 0.00308128 -2.27256e-19)
(-0.0141135 0.00585945 -1.11867e-19)
(0.0528098 0.0122887 4.65548e-18)
(-0.000100849 0.000305823 1.00397e-18)
(-8.81966e-05 0.000220273 3.75822e-19)
(0.00104652 0.00563986 1.01414e-19)
(0.00767524 -0.00217057 -9.04749e-18)
(0.00885107 -0.00065174 1.98605e-19)
(0.0075466 -0.000241183 8.15268e-19)
(6.46535e-05 3.46515e-07 1.16805e-19)
(6.11411e-05 1.23489e-06 5.4677e-19)
(6.40549e-05 -9.6741e-07 -2.02221e-19)
(2.19495e-06 8.21579e-05 -1.85634e-19)
(3.94277e-06 8.18893e-05 -6.15568e-20)
(4.82775e-06 7.8404e-05 -4.17301e-20)
(2.40434e-07 8.50165e-05 -5.10219e-20)
(8.44611e-07 8.21955e-05 -8.98594e-20)
(0.058146 0.0512863 7.30848e-18)
(-0.00816678 0.0146401 1.67876e-18)
(-0.00657639 0.0131991 2.09538e-18)
(-0.00862427 0.0130912 2.05745e-19)
(-0.0147081 0.0193559 4.62087e-19)
(-0.0162506 0.0205406 9.83099e-19)
(-0.0170351 0.017469 -4.97381e-19)
(-8.51152e-06 -1.74681e-05 4.37298e-19)
(-9.53056e-06 -1.97108e-05 3.19592e-18)
(-1.08351e-05 -1.62692e-05 -1.68451e-18)
(-9.93275e-05 1.70468e-07 -1.46708e-20)
(-7.63823e-05 7.03621e-07 -2.50849e-20)
(-0.0128006 -0.0708223 -1.15776e-18)
(-0.00619125 -0.0699335 -6.06199e-20)
(0.00946449 -0.00116357 1.19038e-18)
(5.72188e-06 6.8695e-05 1.0102e-20)
(5.20771e-06 7.18714e-05 -2.6628e-21)
(8.25449e-06 6.85406e-05 -3.61141e-21)
(6.59979e-06 6.47453e-05 1.22203e-19)
(3.07206e-06 6.83486e-05 1.21877e-19)
(-4.50455e-05 3.62928e-06 -1.99122e-20)
(-2.30245e-05 1.22098e-06 -6.83565e-20)
(-1.74237e-06 8.71046e-05 1.87332e-19)
(-1.22535e-06 8.71181e-05 9.36529e-20)
(-2.32056e-06 8.81635e-05 1.04477e-19)
(-2.60871e-06 8.68947e-05 3.6596e-20)
(0.00219679 -0.00323957 3.35835e-18)
(0.00193502 -0.00368357 -2.86751e-18)
(0.0494162 0.014096 -3.81073e-18)
(0.0480988 0.0218416 -4.13343e-18)
(0.0437534 0.0164319 -2.79698e-18)
(0.000250555 -6.89396e-05 -4.96668e-20)
(0.00022409 -6.33854e-05 2.46983e-19)
(0.000234197 -8.7376e-05 -9.75977e-20)
(-0.000159194 -5.74421e-06 -3.10803e-21)
(-0.000161354 -5.11448e-06 -2.15133e-21)
(-0.00015946 -3.47872e-06 7.86433e-21)
(-0.00534564 0.000854478 8.57893e-19)
(-0.00562053 0.000323664 -2.22395e-18)
(-0.00508714 0.000404719 -4.59763e-18)
(0.00577882 -0.003078 6.69107e-18)
(0.00520879 -0.00267813 2.06472e-17)
(0.00520169 -0.00319318 2.51092e-18)
(-3.74007e-05 4.58955e-06 -7.39895e-20)
(-3.00291e-05 2.86221e-06 8.41704e-21)
(-3.20968e-05 2.73924e-06 -1.24371e-20)
(-6.2843e-06 -1.76617e-05 2.49087e-18)
(-8.21888e-06 -1.55207e-05 -7.50896e-19)
(-0.0168486 -0.0549357 -8.2512e-19)
(-0.0214347 -0.0584273 -1.30645e-18)
(0.00304241 0.00439429 4.57481e-18)
(0.00288834 0.00431254 -3.01894e-18)
(0.00332443 0.00445916 5.09542e-18)
(-0.0071538 0.0156995 8.6611e-19)
(0.00646635 -0.00329619 -8.02788e-19)
(0.00732455 -0.00394462 -4.76855e-18)
(-0.0104249 -0.00494803 2.49479e-19)
(-0.0100978 -0.0060179 1.51782e-18)
(-0.0113441 -0.00577054 3.91896e-19)
(8.82121e-05 -4.22916e-05 -9.99174e-19)
(8.99854e-05 -4.14103e-05 -1.87142e-20)
(0.0293376 0.0538181 -1.22591e-18)
(0.0260348 0.0590221 8.16758e-19)
(-0.0050791 0.00136187 -1.06323e-18)
(-0.00573213 0.00135967 9.55893e-19)
(-0.00263941 0.00863452 1.0974e-19)
(-0.00414484 0.00819311 1.40372e-19)
(-0.000419102 0.00149024 -7.90742e-18)
(-0.00034954 0.00167031 -2.68344e-18)
(-0.000199463 0.00149684 2.79058e-18)
(-0.00032795 -0.000183144 -3.05097e-20)
(-0.000338831 -0.000122788 8.27621e-19)
(0.0493879 0.00789551 -2.59758e-18)
(-5.61998e-05 4.14699e-06 -1.59615e-18)
(-5.49569e-05 2.61804e-08 1.00499e-18)
(-5.68698e-05 -1.36348e-06 1.53113e-18)
(0.000388066 -0.00307919 2.55028e-18)
(0.000382913 -0.00330803 7.15274e-19)
(0.000113402 -0.00315882 -7.45847e-19)
(-0.00477754 -0.00348317 3.22696e-18)
(-0.00425907 -0.00312366 1.91769e-18)
(-0.00427232 -0.00369896 -4.40938e-19)
(0.000280858 -9.3998e-06 2.03138e-19)
(0.000265086 -4.14472e-05 4.78305e-20)
(0.00024976 -7.31835e-06 -3.50093e-20)
(-2.97017e-05 4.4011e-07 9.80485e-21)
(4.03373e-05 -0.000193945 2.97301e-18)
(-0.00386048 -0.00275986 -1.74834e-19)
(-0.00301198 -0.00240238 3.49579e-19)
(-0.00308318 -0.00344885 5.07213e-19)
(0.000423916 0.000134645 5.45353e-21)
(0.000474403 7.58729e-05 4.92798e-20)
(0.000520427 0.000140091 -3.3846e-20)
(0.0112331 -0.00171682 1.57628e-18)
(0.0108468 -0.00154617 -4.70847e-18)
(0.0110996 -0.00147201 -7.71761e-18)
(-0.0303568 0.0709592 -9.46725e-19)
(-0.0308447 0.0812932 -7.58865e-19)
(-0.0433549 0.0582631 1.32891e-19)
(5.69479e-05 -9.52702e-05 -3.40162e-20)
(3.37989e-05 -5.58815e-05 4.86728e-21)
(8.14109e-05 -6.00742e-05 9.50543e-20)
(9.10085e-06 5.94978e-05 8.54767e-20)
(6.37722e-06 6.02275e-05 -6.15418e-20)
(-0.000400167 -0.000177526 -9.82279e-21)
(-0.000454158 -0.000292133 -6.20437e-20)
(1.17463e-05 5.8877e-05 2.49786e-20)
(1.1293e-05 5.45856e-05 5.70399e-20)
(-5.75361e-05 8.12523e-06 -3.65255e-18)
(-4.56803e-06 -2.71298e-06 2.53467e-19)
(-6.77e-06 -1.47252e-06 -1.3674e-18)
(-0.000960343 -0.00098795 4.51133e-19)
(-0.00108127 -0.000980582 -2.01299e-18)
(-0.00104361 -0.00109888 -1.04918e-18)
(8.55067e-05 -0.000147501 -5.2671e-20)
(1.72163e-05 -0.000148487 3.07957e-20)
(0.0122027 -0.000191953 6.2334e-18)
(0.0121726 -0.000121227 4.98432e-18)
(0.0224012 -0.00985453 2.9576e-18)
(0.01755 -0.00861773 1.0397e-17)
(5.8329e-06 -5.44426e-05 1.06993e-19)
(4.91436e-06 -5.52892e-05 -1.66204e-18)
(7.67348e-06 -5.12102e-05 -1.13768e-18)
(-0.00200737 -0.00104537 -7.07814e-20)
(-0.00261097 -0.00100672 -3.47254e-19)
(-0.00229134 -0.000551631 -1.19112e-19)
(-0.0311436 -0.00207326 1.71942e-19)
(-0.0321923 -0.00561683 1.76664e-19)
(-0.0340917 -0.00258232 -7.11748e-19)
(-4.06216e-05 7.75229e-05 -1.83796e-19)
(-4.6052e-05 8.24319e-05 -6.80347e-20)
(-4.65394e-05 7.26328e-05 -1.29488e-19)
(0.0230682 -0.00648629 -5.35973e-20)
(0.0234862 -0.00903134 5.32395e-19)
(0.0206602 -0.00789852 4.60369e-19)
(0.0113884 -0.00202056 2.79236e-18)
(0.0116487 -0.00183653 5.89441e-18)
(-3.76613e-05 7.38394e-05 2.34431e-20)
(-3.38234e-05 8.27396e-05 7.49742e-20)
(0.00525894 -0.00224827 9.84051e-18)
(0.0057594 -0.00212568 -4.6863e-18)
(0.00037166 0.000179776 -4.68705e-20)
(0.000350333 0.000117585 -1.07529e-19)
(0.0126263 0.0227564 -6.93949e-19)
(0.0140618 0.0237296 2.22176e-18)
(-7.67674e-05 2.70321e-06 3.10778e-20)
(-5.58496e-05 1.53744e-06 -5.73475e-20)
(0.00147704 -0.00229186 8.01336e-20)
(0.00179201 -0.00198332 1.77438e-20)
(0.00139376 -0.00186391 -3.30229e-20)
(0.000303653 1.66541e-05 -1.70788e-20)
(0.000318527 -2.4326e-05 -4.16144e-20)
(9.02299e-05 -1.64922e-05 2.36996e-19)
(9.05301e-05 -1.35487e-05 -2.83374e-19)
(8.93479e-05 -1.53303e-05 5.36697e-20)
(0.00398595 0.00840512 -1.07346e-19)
(0.00348735 0.007478 -3.69574e-18)
(0.00469266 0.00733319 3.72566e-18)
(7.37042e-05 -1.08469e-06 7.18268e-21)
(7.20477e-05 -1.57629e-06 3.50657e-19)
(5.62888e-05 -8.17113e-07 -2.79581e-20)
(0.0478957 -0.020227 6.78858e-19)
(0.0428364 -0.0260323 5.85937e-19)
(0.000662289 -0.000676412 -4.91453e-19)
(0.00076982 -0.000699456 -7.25273e-19)
(0.000709765 -0.00058895 -6.99713e-19)
(0.004183 -0.00143623 -9.3066e-21)
(0.00494422 -0.000733088 9.89434e-20)
(-0.0149172 -0.0468984 3.02292e-18)
(-0.011618 -0.0480045 -1.51766e-18)
(-0.000782565 -0.0426543 -1.49389e-18)
(0.0122336 -0.000243435 4.48381e-18)
(-4.06418e-05 6.56756e-06 -1.57219e-20)
(-4.27884e-05 5.76984e-06 2.23733e-20)
(-0.00212969 -4.55287e-05 3.78464e-18)
(-0.00214687 0.000113677 3.56769e-18)
(-0.0019784 7.26488e-05 1.71364e-18)
(-0.00493671 -0.000926916 1.11105e-19)
(-0.00456812 -0.00192986 -1.20466e-19)
(-0.0040338 -0.000867404 6.0917e-19)
(0.000155033 0.000232352 -1.06835e-18)
(0.000145646 0.000293734 9.72073e-19)
(9.82736e-05 0.000245104 -7.58959e-19)
(-0.00535361 0.000423133 -4.34743e-19)
(-0.0044144 0.00103502 4.02127e-20)
(0.000105261 -6.88661e-05 6.33317e-19)
(0.000126458 -7.95226e-05 2.18812e-18)
(0.0002734 1.40939e-05 1.94104e-20)
(0.000300223 3.66225e-05 4.94272e-20)
(0.00025508 4.06843e-05 -5.91175e-20)
(7.88309e-05 -1.86842e-06 -4.11954e-19)
(7.42542e-05 -1.06471e-06 5.92557e-20)
(-0.0156258 -0.000617903 2.12918e-18)
(-0.0168656 0.000547722 -6.49629e-19)
(-0.0149557 0.00090133 1.85717e-18)
(0.0108675 0.0129473 -3.74294e-19)
(0.0105565 0.0160777 -2.92082e-19)
(0.00775519 0.0137713 3.63689e-19)
(0.000304691 -0.00278691 3.31099e-18)
(0.000609154 -0.0029025 2.36342e-18)
(9.3548e-05 -8.89882e-05 1.97574e-18)
(8.49547e-05 -6.43326e-05 -4.67885e-19)
(-3.89272e-06 -1.81716e-05 1.02246e-18)
(-3.616e-06 -1.64411e-05 6.93771e-19)
(-2.23227e-06 -1.79557e-05 -3.81982e-18)
(0.00803835 0.00098558 -1.85861e-18)
(0.00686625 0.00158365 -2.14268e-18)
(0.00317357 -0.00125835 2.81991e-18)
(0.00336801 -0.000940435 4.47473e-18)
(0.000116481 2.85766e-05 1.04893e-20)
(0.000110251 3.01109e-05 -2.0528e-20)
(0.0001154 2.25762e-05 -6.70415e-21)
(0.00384806 0.00260017 -6.36015e-20)
(0.00446917 0.00380219 -1.16195e-19)
(0.00265887 0.00327216 1.34283e-19)
(0.000206757 0.000216767 -1.34574e-18)
(-0.0517998 0.0149384 3.00047e-18)
(-0.0606391 -0.00304692 -2.69098e-19)
(-0.0548854 0.00267009 7.95687e-19)
(-0.000386296 -0.000756704 4.27045e-18)
(-0.000492949 -0.000834746 1.09032e-17)
(-0.000470478 -0.000669596 1.38349e-17)
(0.0102985 -0.0102587 -7.39384e-18)
(0.00810526 -0.0121235 -9.89565e-18)
(0.0116478 -0.0132244 -7.20105e-18)
(-0.0249747 0.0710874 -4.47544e-19)
(-0.0321433 0.0677162 1.00263e-18)
(-0.00515627 0.0122224 -3.48685e-19)