/*--------------------------------*- C++ -*----------------------------------*\
| =========                 |                                                 |
| \\      /  F ield         | OpenFOAM: The Open Source CFD Toolbox           |
|  \\    /   O peration     | Version:  v2012                                 |
|   \\  /    A nd           | Website:  www.openfoam.com                      |
|    \\/     M anipulation  |                                                 |
\*---------------------------------------------------------------------------*/
FoamFile
{
    version     2.0;
    format      ascii;
    class       volScalarField;
    location    "700";
    object      nut;
}
// * * * * * * * * * * * * * * * * * * * * * * * * * * * * * * * * * * * * * //

dimensions      [0 2 -1 0 0 0 0];


internalField   nonuniform List<scalar> 
13917
(
0.00354166
0.00397018
0.000740307
0.00522977
0.00569315
0.0043361
0.00314678
0.00268214
0.00272966
0.000259122
0.00274544
0.00684786
0.00338532
0.0184701
0.00573388
0.00219362
0.00681399
0.00236874
0.00130317
0.00205731
0.00300539
0.00683525
0.00205252
0.00683468
0.0053606
0.00272445
0.00619519
0.000170208
0.002208
0.00680305
0.000127894
0.00221119
0.00622134
0.0101972
0.00682095
0.00234343
0.00646364
0.00691286
0.00272653
0.00259696
0.00677644
0.00672108
0.00280234
0.0014115
0.00146668
0.000251469
0.00316465
0.00332594
0.0184356
0.00681917
0.00684899
0.00173308
0.000520329
0.00685332
0.00685051
0.00164692
4.68841e-05
0.00226681
0.00674
0.00186358
0.0118783
0.00598618
0.00680794
0.00511708
0.00973658
0.00697642
0.00219431
0.00237656
0.0023647
0.00306313
0.00674568
0.00905877
0.00683134
0.00677908
0.00274219
0.00559402
0.00633088
0.00678837
0.00540871
0.00677392
0.00677578
0.00681731
0.00683011
0.00734947
0.00672098
0.00231611
0.00171243
0.00676439
0.00249141
0.00683096
0.00676976
0.00259361
0.0180715
0.00684288
0.00679227
0.002219
0.000877036
0.00683976
0.00675391
0.0017997
0.00680412
0.00679188
0.00676952
0.00681542
0.00633216
0.00749117
0.0089765
0.00596926
0.00668294
0.0084584
0.00673759
0.0106863
0.00224242
0.00287183
0.00955956
0.00480011
0.00140809
0.00679463
0.00111525
0.00680724
0.00683581
0.00682279
0.00219189
0.0014372
0.00373407
0.00671604
0.00523008
0.0025656
0.00684749
0.0015713
0.0022688
0.000840685
0.013325
0.00553713
0.0017371
0.00905787
0.0133557
0.00407486
0.00255772
0.00690512
0.0174685
0.00680923
0.00710672
0.00681002
0.00682451
0.00649406
0.0066242
0.012454
0.00283779
0.00685423
0.00272831
0.00679839
0.00681898
0.0068067
0.00314167
0.00670123
0.00680899
0.0136511
0.00679651
0.00680248
0.00674352
0.0107197
0.00606819
0.0176177
0.0097098
0.000928846
0.000216225
0.00696092
0.00668789
0.00239118
0.00681641
0.0130159
0.00262809
0.0121162
0.00272031
0.00679765
0.0056121
0.0016086
0.00235283
0.00595962
0.00297154
0.00682882
0.00685031
0.000641888
0.00112831
0.000779315
0.00685013
0.00122741
0.00679731
0.00214497
0.00271777
0.00147675
0.00120904
0.00364082
0.00684057
0.00392088
0.00397421
0.0129798
0.0068224
0.00675128
0.00347831
0.00313836
0.00273953
0.00652854
0.00638144
0.0041297
0.00260822
0.00680779
0.00162239
0.00677709
0.00677884
0.00505247
0.00502496
0.00351983
0.00192753
0.00256535
0.011427
0.00687661
0.0067623
0.00676127
0.00537499
0.00104473
0.000608902
0.0067224
0.00679556
0.0105007
0.00276526
0.00673939
0.00673515
0.00676735
0.00677358
0.00677282
0.00811379
0.00667106
0.00682498
0.00669732
0.00256854
0.00792817
0.0068173
0.00672208
0.0071823
0.00719395
0.00076295
0.011555
0.002053
0.00680943
0.00774611
0.00238646
0.00234327
0.00190398
0.00658181
0.00569633
0.00681423
0.00346731
0.00296684
0.00680803
0.00675776
0.0051558
0.0058836
0.00680428
0.00705853
0.0190918
0.00682829
0.00673018
0.00668225
0.00673056
0.00681346
0.00683607
0.0027288
0.00681116
0.00617303
0.00973456
0.0068328
0.00621434
0.00119424
0.0067704
0.00144599
0.00887837
0.00677075
0.00510782
0.00681255
0.010523
0.00679885
0.0060094
0.00679765
0.0068095
0.000946782
0.00687242
0.000230915
0.0034528
0.0171515
0.0065607
0.00310113
0.00386657
0.00681435
0.00245849
0.00581659
0.0054056
0.00574539
0.00563634
0.00683806
0.00688005
0.00162528
0.00558646
0.00299917
0.00554374
0.00672178
0.0134574
0.00181088
0.00684167
0.00643293
0.00534142
0.0106037
0.00161511
0.0102356
0.0114627
0.00407569
0.00156064
0.00625872
0.00646124
0.0127576
0.00113297
0.00682823
0.00577961
0.0057419
0.0067683
0.00377151
0.00154176
0.00680796
0.0129318
0.00672613
0.00193141
0.00681566
0.0003768
0.00672224
0.00313728
0.00341019
0.00467364
0.00682396
0.0017311
0.00641675
0.00680865
0.00677021
0.0115412
0.00659933
0.0100682
0.0189627
0.00675992
0.00683355
0.007424
0.00148369
0.00676155
0.0057519
0.00685302
0.00176115
0.00310567
0.00133971
0.00213052
0.00166295
0.00192012
0.00829068
0.00685069
0.00680666
0.00552307
0.000871517
0.00680121
0.00267008
0.00224544
0.0122743
0.00684744
0.00165648
0.00645954
0.0153994
0.00670812
0.000667782
0.00156076
0.00308665
0.00683906
0.00234026
0.00679727
0.00962824
0.0011319
0.00670409
0.0154642
0.0067324
0.0112508
0.00678912
0.00272132
0.0109334
0.00655873
0.0118047
0.00164133
0.00664998
0.0106552
0.00105645
0.00663592
0.000960157
0.00684366
0.00152181
0.00119747
0.00672899
0.00293775
0.00562489
0.00679734
0.00672421
0.00685271
0.0127723
0.00131585
0.00683057
0.00685162
0.0068508
0.00308597
0.000990893
0.00680069
0.00668847
0.00163637
0.00168097
0.00681857
0.00658572
0.0118365
0.00525116
0.00291754
0.00118321
0.00481213
0.00682003
0.00678984
0.00371829
0.00672211
0.00679991
0.00681293
0.00679048
0.00682188
0.0074888
0.00684132
0.00255249
0.00734422
0.00223342
0.00678525
0.00681408
0.0109054
0.00364651
0.00261917
0.00681102
0.00674063
0.00679223
0.00678494
0.0064831
0.00669601
0.0116083
0.00606933
0.00794035
0.00674071
0.00261912
0.00641264
0.00678638
0.00209356
0.0103893
0.00685423
0.0114758
0.00679315
0.00676008
0.00685135
0.00672871
0.00676557
0.00680777
0.0135143
0.0106234
0.00675949
0.00303385
0.00166716
0.00679466
0.00238789
0.00180359
0.0104492
0.00266028
0.00736805
0.0124616
0.0128869
0.00669101
0.0075931
0.00647316
0.00660416
0.00561575
0.00678261
0.00685741
0.00679024
0.00307295
0.00288846
0.001074
0.00200486
0.00629536
0.00606195
0.00227412
0.0023735
0.00682985
0.0204432
0.00303055
0.00343195
0.00995204
0.00672125
0.00228638
0.00135079
0.00671845
0.0136322
0.0067688
0.00678492
0.00262273
0.0068101
0.00684227
0.0016288
0.0139193
0.0137148
0.00673934
0.00459196
0.00650643
0.00449774
0.0071375
0.00684149
0.00685207
0.00673325
0.00316884
0.0112802
0.0068503
0.00681698
0.00676033
0.00678734
0.00617813
0.00325467
0.00679443
0.00206256
0.00671835
0.00684959
0.00571819
0.0102917
0.00671059
0.00376598
0.00680226
0.00224477
0.00221388
0.00180992
0.00286557
0.00174176
0.00587797
0.00223153
0.0126711
0.00847415
0.00920268
0.00683426
0.00685242
0.00637121
0.00678565
0.00990957
0.00678176
0.00921434
0.00366399
0.0112111
0.00157729
0.00313181
0.000844551
0.00676112
0.00160075
0.00685796
0.00663352
0.00988634
0.00680675
0.00106003
0.00680269
0.00681532
0.00685263
0.00109647
0.00612667
0.00671556
0.00151272
0.00309349
0.00624253
0.00500576
0.0133627
0.0113058
0.00671107
0.00297675
0.00679166
0.0128395
0.00897973
0.00655774
0.00625862
0.00680321
0.00271756
0.00303405
0.00680682
0.00685418
0.00683489
0.0041248
0.00674905
0.00192818
0.00685533
0.00671228
0.00682026
0.00114811
0.00750019
0.00077749
0.00171763
0.00323943
0.000714549
0.00861236
0.00680005
0.0082208
0.00682617
0.00203062
0.00678729
0.00224326
0.00678107
0.00613875
0.00682858
0.00563391
0.00284022
0.0104251
0.00679696
0.00281631
0.00683043
0.00678962
0.00905922
0.00118511
0.0068025
0.00127283
0.00672181
0.00667521
0.00679875
0.0103107
0.00674865
0.00582558
0.00678171
0.00681762
0.000881178
0.00679589
0.00133759
0.00681879
0.00672038
0.0122165
0.00190218
0.00684526
0.000514765
0.00105122
0.00140044
0.00128462
0.00675575
0.0055636
0.00920433
0.00109352
0.00394977
0.00645977
0.00610913
0.00683793
0.00684981
0.00311254
0.00211452
0.00433771
0.00923924
0.00258814
0.00436608
0.00823263
0.00549538
0.00308142
0.00105198
0.00616253
0.00683676
0.00564299
0.00620817
0.00672059
0.00682376
0.0068241
0.0062598
0.00684145
0.00319178
0.00208039
0.0067713
0.00156939
0.00680028
0.0108719
0.00681429
0.006849
0.0139686
0.00222359
0.0112939
0.00683225
0.00668308
0.00684752
0.0054082
0.00275109
0.00681744
0.00315439
0.00326676
0.00800394
0.0114243
0.00568491
0.0133374
0.00467058
0.00686821
0.006823
0.00970798
0.012839
0.00383071
0.00336586
0.0133021
0.00672477
0.00684643
0.00648206
0.00725319
0.011586
0.0029802
0.0055304
0.00356578
0.00189193
0.00638846
0.00130039
0.00204233
0.00679856
0.0059342
0.00684371
0.00285724
0.00606243
0.00107684
0.00533926
0.00641487
0.00325441
0.00679331
0.0127673
0.0065241
0.00491901
0.00367388
0.0010708
0.00683938
0.00185621
0.00718541
0.0144136
0.00678937
0.00540357
0.006897
0.00675752
0.00682253
0.00524777
0.00616046
0.00130317
0.00133627
0.00675195
0.000509339
0.0025578
0.00279434
0.00111822
0.00681985
0.00184894
0.0010815
0.00670613
0.00207753
0.00236426
0.00213826
0.00681952
0.00676992
0.00685193
0.00216239
0.00630822
0.00678766
0.00204799
0.00682429
0.00680376
0.00183014
0.000213795
0.00477019
0.00715727
0.00184656
0.00743391
0.00682038
0.00624653
0.000307275
0.00655943
0.00543792
0.00682022
0.00681368
0.00683816
0.00537684
0.00165271
0.00681977
0.00559755
0.00678371
0.00461405
0.0065152
0.00273815
0.0068132
0.00159174
0.00596231
0.0104374
0.00438365
0.00680944
0.0100883
0.00643242
0.00623102
0.00308457
0.00391162
0.0064887
0.00682468
0.00678192
0.0112806
0.00296538
0.00109533
0.00608261
0.00675433
0.00208752
0.00669383
0.00611794
0.0139925
0.00670375
0.00857976
0.00345796
0.0039126
0.00137868
0.00642046
0.00674501
0.00681648
0.00195291
0.00675747
0.00685512
0.00667453
0.00685372
0.00199365
0.00674122
0.0021009
0.00680085
0.00312626
0.00599568
0.00362676
0.00795048
0.0106688
0.00211209
0.0117245
0.00672155
0.00668846
0.0068241
0.00675771
0.00673666
0.00304887
0.00677591
0.000371637
0.00685589
0.0021283
0.00647074
0.00213404
0.00220597
0.00684279
0.00263315
0.0059671
0.00659954
0.00370488
0.0068006
0.0133564
0.00205517
0.00360641
0.0068436
0.00674469
0.00680166
0.00677314
0.0101204
0.00672393
0.00137282
0.00677235
0.0119075
0.00608998
0.00679952
0.00186955
0.00604871
0.00672696
0.0112943
0.0071248
0.00645208
0.00169794
0.00676229
0.00182481
0.00675784
0.00677152
0.00666371
0.00683012
0.00537591
0.00159881
0.00568946
0.00663449
0.0176763
0.00157008
0.00669403
0.00661042
0.00685356
0.00391579
0.00674104
0.00167897
0.00684674
0.0137683
0.00601446
0.0112198
0.00684967
0.00679164
0.0125167
0.00687631
0.00677922
0.011983
0.00667876
0.00673155
0.0186271
0.0066885
0.00668913
0.00213818
0.00665301
0.01017
0.00261081
0.00182725
0.00134433
0.00400615
0.0135793
0.00676629
0.00209168
0.00674598
0.0076476
0.0118882
0.00638118
0.00675293
0.00669715
0.00684071
0.00680453
0.00682824
0.00682307
0.00677364
0.00329233
0.00670606
0.00671432
0.00182543
0.00996879
0.0108147
0.00163632
0.00680002
0.0130526
0.00676063
0.000436142
0.0114849
0.000228953
0.00678425
0.00672373
0.00676273
0.00685626
0.00677903
0.0067894
0.0067568
0.0031206
0.00673177
0.000942164
0.0177599
0.00675754
0.0119041
0.00674849
0.00685078
0.00612148
0.0107444
0.00213514
0.00679641
0.0111553
0.00683746
0.00684886
0.000184744
0.00667663
0.0030344
0.00553626
0.00373639
0.00678315
0.00681676
0.00367487
0.0020607
0.0066927
0.0100149
0.00600067
0.00692451
0.00654984
0.00674906
0.00676342
0.00189571
0.00200895
0.00433811
0.0109909
0.0017171
0.00219518
0.00191175
0.00682666
0.0103063
0.00682114
0.0124844
0.0030437
0.00273901
0.00653984
0.0126258
0.0145958
0.00275766
0.0068153
0.00361114
0.00679719
0.00677501
0.00199934
0.00680605
0.00684435
0.00064264
0.00516354
0.00681856
0.00226826
0.00770046
0.00679284
0.00675785
0.00631069
0.0114241
0.00677843
0.00678309
0.00304811
0.00681164
0.00684841
0.00524643
0.00615956
0.00681463
0.00653759
0.00682637
0.00308116
0.0134159
0.00591605
0.00801019
0.00682845
0.00681154
0.00408752
0.00560396
0.00896488
0.00631131
0.00349714
0.00523386
0.00484543
0.00662013
0.0100556
0.00630527
0.0067327
0.00202375
0.00680276
0.0144654
0.00174356
0.0017786
0.00187345
0.000367786
0.0114205
0.0105336
0.0128229
0.00690737
0.00061501
0.00676355
0.00324774
0.00253016
0.013068
0.00370319
0.00663127
0.00384196
0.0054533
0.00665041
0.0101688
0.00299545
0.00228047
0.0116627
0.00680548
0.0020421
0.00659856
0.00685679
0.00598532
0.00360945
0.00680657
0.00674517
0.00596097
0.00466629
0.00673649
0.00667806
0.00328766
0.00676527
0.00684802
0.00219385
0.00183569
0.00673191
0.00683954
0.00179672
0.0032357
0.00465445
0.0136758
0.00683354
0.00674421
0.0127675
0.00678588
0.00663563
0.0128061
0.0087516
0.00566273
0.00324416
0.00604007
0.00199087
0.00146588
0.00325649
0.00569731
0.00684701
0.00196938
0.00937844
0.00110405
0.00555212
0.0105693
0.00682134
0.0068496
0.00684159
0.00684933
0.0068454
0.0010818
0.00683736
0.00288312
0.00672376
0.00187949
0.0113284
0.00664959
0.00550138
0.0093876
0.00674898
0.00203372
0.006078
0.00670255
0.0067618
0.0099346
0.00174535
0.00642867
0.00385478
0.00748339
0.00232418
0.00668488
0.0044105
0.00294516
0.00660647
0.00680755
0.000719497
0.00676139
0.00536468
0.00271467
0.00620165
0.00510295
0.00200248
0.0104061
0.00674669
0.00141064
0.00363899
0.00685771
0.00675795
0.00643925
0.00262473
0.000158885
0.0068154
0.0021843
0.00629809
0.0085971
0.00271674
0.00684073
0.00672464
0.00681959
0.00674824
0.00697422
0.00650546
0.00312038
0.00676229
0.00349066
0.00270978
0.00615581
0.00167652
0.0114172
0.00901747
0.00682861
0.00680101
0.00672
0.00672653
0.00177647
0.0128442
0.00215573
0.00215279
0.00385339
0.00203305
0.00320775
0.00760974
0.00569947
0.00148207
0.00684331
0.00191112
0.00641994
0.00679865
0.00668907
0.0122697
0.00301279
0.00278034
0.0098446
0.00167799
0.00684569
0.00132743
0.00693607
0.0067243
0.00856579
0.00800019
0.00684175
0.00568158
0.00134986
0.00290769
0.00605314
0.00674014
0.00676229
0.00678111
0.0067503
0.00322843
0.00257729
0.0052007
0.00282887
0.00333967
0.00239277
0.00239389
0.00683621
0.00282455
0.000752683
0.00104731
0.00937512
0.0066856
0.00673945
0.00832405
0.00673441
0.00776512
0.00514785
0.00239455
0.00683924
0.00673848
8.06754e-05
0.00364767
0.00670165
0.00674209
0.0128701
0.000425659
0.0083473
0.00681098
0.00685609
0.0118226
0.00680743
0.00681885
0.00173309
0.00667105
0.00406809
0.00251034
0.00642551
0.00466437
0.00672817
0.006412
0.00487
0.00673524
0.00104835
0.00673201
0.00677435
0.000558528
0.00194642
0.0118066
0.00106118
0.0067223
0.00322248
0.00680232
0.00684313
0.00653824
0.00680178
0.00685267
0.00107747
0.00683856
0.00272397
0.00603609
0.00647447
0.00681641
0.00673202
0.00684897
0.0100906
0.00680395
0.00347594
0.0018223
0.00683599
0.00207848
0.00244381
0.00293664
0.00685205
0.00602644
0.0067618
0.00680068
0.0144563
0.00468656
0.00641768
0.00681343
0.00683541
0.00675928
0.00217592
0.00679835
0.0114813
0.00273117
0.00681282
0.00672149
0.00676976
0.00292009
0.00580528
0.0132979
0.00520018
0.0138335
0.006418
0.00212895
0.00650443
0.00933779
0.00672463
0.00679969
0.00451734
0.0105564
0.00677449
0.0118466
0.00685807
0.00681434
0.00168264
0.000554271
0.00193512
0.00275498
0.00366671
0.0015985
0.0107185
0.0068274
0.00954912
0.00674834
0.00679701
0.00725742
0.00675124
0.0122039
0.00918243
0.00676702
0.00678025
0.00682905
0.0126593
0.00681631
0.00674066
0.00193029
0.00672441
0.00679713
0.00671731
0.00682316
0.00205357
0.00683916
0.00638657
0.00671741
0.00270834
0.00268018
0.00671928
0.0067209
0.00678482
0.00672138
0.00340807
0.00680163
0.00682101
0.00683746
0.00675108
0.00675558
0.00682883
0.00202324
0.00677169
0.00165655
0.00684196
0.00327241
0.00681002
0.00685225
0.00681098
0.00680567
0.00262487
0.00607552
0.0028614
0.0123405
0.00165917
0.0136231
0.0115174
0.00170262
0.00800875
0.00684988
0.00682183
0.00148111
0.0124215
0.00675471
0.00818307
0.00678633
0.00175462
0.0155928
0.00362274
0.00179447
0.0160218
0.0149404
0.00681392
0.00202761
0.00676266
0.00553933
0.00366581
0.0126976
0.00287518
0.00685181
0.00331865
0.000565331
0.00681182
0.0042646
0.0152697
0.00664177
0.0067198
0.0106527
0.00919926
0.0068261
0.00238154
0.00682916
5.37842e-05
0.0016289
0.00685643
0.0068174
0.00182995
0.00684103
0.0067482
0.00553817
0.00674983
0.00189947
0.00569521
0.00304625
0.0109802
0.00675012
0.00161819
0.00682788
0.00951944
0.00340266
0.00585936
0.00680437
0.00303967
0.00679961
0.00682754
0.00322874
0.00684654
0.00556135
0.00673309
0.00676037
0.00674596
0.0141174
0.00672067
0.0115324
0.00992879
0.0156193
0.00684334
0.00682734
0.00673511
0.0169817
0.00684639
0.00561983
0.00682125
0.000500542
0.00666356
0.00659703
0.000203984
0.00685607
0.00683013
0.00863975
0.00130675
0.0118113
0.00673817
0.0104868
0.00427817
0.00685715
0.00970687
0.00685209
0.00620681
0.00807708
0.00656272
0.00290258
0.00623089
0.00553111
0.00182482
0.0068072
0.00367598
0.00675144
0.012351
0.0067312
0.00499853
0.00675321
0.00675025
0.00651729
0.00368332
0.00683179
0.00221225
0.00226745
0.0180878
0.00675911
0.00410921
0.0111192
0.00217535
0.00328565
0.00258603
0.00681179
0.00131327
0.000524224
0.00647207
0.00139926
0.00679615
0.00113392
0.00276714
0.00683795
0.00278019
0.00672168
0.00980607
0.00161849
0.00578988
0.00647438
0.0131497
0.00958178
0.00673801
0.00518882
0.00675629
0.00685663
0.0088634
0.00299747
0.000290431
0.00682482
0.00349639
0.0123492
0.00581934
0.0150444
0.00232394
0.00672085
0.00673943
0.00111818
0.0120563
0.00850015
0.0126419
0.00108219
0.00244321
0.00421123
0.0119392
0.0113441
0.00879302
0.00671994
0.00202515
0.00296114
0.00276407
0.00682245
0.00277252
0.00320347
0.001831
0.0157404
0.00668163
0.00309127
0.0106732
0.00240408
0.0067386
0.00674218
0.000594477
0.00683702
0.0136158
0.00356677
0.00669912
0.00143313
0.00583106
0.0067189
0.0028929
0.00256082
0.00682653
0.0124565
0.00605486
0.0131245
0.00684186
0.0105922
0.000467634
0.00108665
0.00680715
0.00423642
0.00547081
0.00205019
0.00185218
0.00181646
0.00890489
0.00101651
0.00671785
0.00433965
0.00667394
0.00116549
0.0026937
0.0067848
0.00671666
0.0067244
0.00113164
0.00210338
0.00684109
0.00248553
0.00137477
0.00672708
0.00589527
0.00650329
0.0114124
0.00593431
0.00783694
0.00594035
0.00305912
0.00639592
0.00127989
0.00675961
0.00236172
0.00915242
0.00389159
0.00157196
0.00210405
0.00190317
0.0117176
0.0108658
0.00680422
0.016415
0.00127454
0.00674993
0.00163047
0.00226034
0.0019037
0.00435639
0.000542017
0.0153866
0.00195692
0.0100045
0.00409793
0.00181244
0.00679653
0.00683545
0.00684162
0.00675555
0.000230975
0.00182563
0.00680577
0.0035699
0.00124837
0.00675527
0.00548877
0.0102448
0.00679367
0.0068482
0.00679455
0.00673781
0.00210117
0.00675205
0.00799784
0.00280158
0.00279801
0.00613444
0.00283246
0.00434308
0.00508569
0.00689359
0.00682935
0.00672279
0.00680282
0.00683907
0.0122245
0.00198277
0.00451117
0.00894552
0.00681884
0.00680825
0.00528037
0.00679261
0.00682431
0.0018236
0.0037538
0.008195
0.0120461
0.012501
0.00680042
0.0143033
0.00675832
0.000398032
0.00671753
0.00129765
0.0125626
0.0067682
0.00134993
0.00747567
0.00350303
0.00682538
0.0067933
0.00410967
0.00978731
0.0067465
0.0068372
0.00687572
0.00691861
0.0010851
0.00682776
0.00379405
0.00672083
0.00685376
0.00137887
0.00302331
0.00649282
0.00108857
0.001025
0.0126119
0.0112301
0.00689758
0.0067458
0.00890159
0.00683287
0.0019637
0.00681746
0.0084952
0.00672975
0.00679397
0.00538896
0.0105674
0.00673573
0.00680638
0.00672088
0.00149847
0.00123221
0.00180126
0.00673495
0.00649995
0.00673623
0.0106841
0.00679276
0.00336585
0.00193325
0.00681793
0.000916513
0.00501026
0.00847378
0.00447765
0.00682084
0.00344353
0.00296716
0.00171976
0.00684058
0.00682679
0.00674362
0.0114615
0.006786
0.00682087
0.010662
0.0066632
0.00629994
0.00382216
0.00684483
0.00682779
0.0134207
0.00333232
0.0155646
0.01406
0.00673509
0.0016789
0.00683881
0.00199035
0.00315798
0.00680285
0.00680937
0.00673119
0.00675185
0.0159825
0.00198174
0.00982695
0.0108403
0.00676751
0.00590072
0.00248549
0.00195478
0.00676659
0.00820856
0.0105005
0.0077041
0.0067833
0.00517121
0.0068222
0.00947157
0.0121389
0.00671433
0.00674543
0.00286471
0.00617827
0.00683908
0.0050439
0.00665938
0.00179039
0.00069397
0.0067222
0.0107393
0.00567628
0.00673686
0.0076
0.00195527
0.00207287
0.0107729
0.00324797
0.00616129
0.00684452
0.00603312
0.00680757
0.00260013
0.00201497
0.00681937
0.00375557
0.000475154
0.0120496
0.0067423
0.00192144
0.0142164
0.00347213
0.00679763
0.0068307
0.0146051
0.00520546
0.0022321
0.00683155
0.0148922
0.00183645
0.00675754
0.00512714
0.00398833
0.00684752
0.000607403
0.00685549
0.00589695
0.00682239
0.00670573
0.00684227
0.00672144
0.00965435
0.00680316
0.00673242
0.00179435
0.00290086
0.00639829
0.00132243
0.00685559
0.00673763
0.00669053
0.00676952
0.014851
0.0139859
0.000579294
0.0151731
0.00503959
0.01202
0.00475314
0.0113181
0.0132884
0.00976093
0.00677274
0.0055317
0.00676899
0.00685915
0.00684031
0.00665605
0.00111623
0.00191967
0.0024922
0.00675228
0.00673888
0.00186428
0.00684043
0.00683329
0.00685787
0.0114231
0.00322781
0.0018149
0.00679374
0.0143614
0.00682249
0.00680216
0.00678404
0.00210742
0.00676864
0.00205713
0.0107743
0.0022982
0.00782412
0.011122
0.00683447
0.00339276
0.013502
0.00186502
0.00681309
0.00683908
0.00673725
0.0107648
0.00670929
0.00291185
0.00509323
0.00245457
0.0141166
0.01466
0.00185525
0.0126127
0.00682482
0.0067108
0.00561082
0.0049402
0.00681384
0.0068049
0.00541339
0.00672056
0.00135182
0.00684436
0.00680422
0.00595489
0.00680449
0.00240206
0.0107309
0.00889046
0.00375595
0.00681174
0.00189534
0.00666961
0.0025566
0.00675082
0.00156171
0.00192615
0.00683202
0.00684933
0.00674601
0.00171041
0.00436306
0.00109082
0.00211022
0.00341278
0.00690316
0.0017046
0.00188425
0.00974577
0.00676117
0.0111028
0.0067769
0.0112316
6.28038e-05
0.0109189
0.0094043
0.0068171
0.00347197
0.0064222
0.00685055
0.00596505
0.00685096
0.006817
0.00343305
0.00643084
0.00255658
0.000293341
0.00167005
0.00864342
0.00383723
0.00235456
0.00674397
0.00679499
0.00682575
0.0016507
0.00165235
0.0127968
0.00284302
0.00680857
0.00675334
0.00679305
0.00104991
0.00646783
0.00672943
0.00458386
0.00154104
0.00250849
0.00254204
0.00435293
0.0113773
0.00334541
0.00253262
0.00676522
0.00295809
0.00131432
0.00221171
0.00204915
0.00679491
0.0084442
0.00295514
0.00682427
0.00256334
0.0117838
0.00759191
0.0030041
0.00672248
0.0105275
0.00682813
0.00672763
0.00681187
0.00828487
0.00164298
0.00683445
0.0053577
0.00789093
0.0068734
0.00475392
0.00318519
0.0133322
0.00332717
0.0119442
0.00681916
0.0049399
0.00653855
0.0111484
0.0028855
0.00683292
0.0124962
0.00676004
0.00677814
0.0102742
0.00535497
0.00334546
0.0011922
0.00315475
0.00530189
0.00391593
0.00681921
0.00673023
0.00679725
0.0030488
0.00676309
0.00533012
0.00420229
0.00487495
0.00261346
0.00594632
0.00610887
0.00685025
0.0118622
0.0082773
0.00679928
0.00684302
0.00298507
0.000836281
0.00110642
0.0024708
0.0115309
0.0105954
0.00127618
0.006609
0.00434651
0.00772338
0.00447718
0.00158798
0.00685893
0.00685368
0.00678918
0.00674912
0.0067324
0.00239661
0.00889755
0.00537919
0.0142779
0.00655497
0.00350492
0.0125909
0.0125821
0.00577722
0.0125112
0.00147442
0.00162515
0.00671599
0.00684864
0.00183706
0.00617291
0.00668198
0.00941239
0.0125797
0.00679198
0.00682803
0.00675806
0.00204727
0.0068125
0.00251063
0.0110508
0.00673955
0.00672252
0.00677872
0.00679156
0.00177452
0.0102495
0.00299929
0.00612355
0.0018923
0.00674991
0.0133166
0.00165913
0.00681892
0.000790271
0.00218729
0.0126551
0.00450274
0.00776724
0.00685583
0.00462611
0.0106757
0.00139525
0.00703613
0.00684231
0.00663316
0.00621402
0.00360477
0.00895717
0.00290638
0.00684488
0.00362966
0.0121298
0.0103601
0.00662577
0.0067532
0.0137904
0.0124312
0.00683396
0.00411292
0.00196589
0.00673476
0.00673396
0.012149
0.00675671
0.00108658
0.0137494
0.00931823
0.00676353
0.00172483
0.00101948
0.00681912
0.0067827
0.0136809
0.00847198
0.00678573
0.00508008
0.000886491
0.00104978
0.0128813
0.00414629
0.00454618
0.0125713
0.0113985
0.0030816
0.00672081
0.00280344
0.00671518
0.00680034
0.00794284
0.00255893
0.00217089
0.00370508
0.00615513
0.00683489
0.00675438
0.00604332
0.0058039
0.00745244
0.00377268
0.00176405
0.00312203
0.00308053
0.00183436
0.0103164
0.0107797
0.00829633
0.0067676
0.00353496
0.003144
0.00451483
0.00131038
0.0123834
0.00652478
0.00169962
0.00951053
0.00438537
0.00167162
0.00173814
0.00166627
0.0016193
0.00490126
0.00165994
0.0015704
0.00143173
0.001281
0.00180476
0.00164482
0.00601039
0.00672518
0.00273364
0.00162728
0.00676427
0.000293027
0.0125572
0.00142428
0.0122671
0.00677054
0.00680254
0.0087932
0.00705515
0.00575655
0.00652406
0.00204935
0.0103722
0.00740062
0.00684988
0.00540212
0.00387693
0.00126967
0.0116741
0.00319292
0.000294514
0.0104681
0.00140791
0.011996
0.0021503
0.00570608
0.012831
0.00668645
0.0114766
0.0112818
0.00675491
0.00279595
0.00208945
0.0062183
0.00681957
0.000536764
0.0183802
0.0068317
0.0068323
0.012184
0.000772702
0.00252068
0.00685244
0.00100179
0.00117919
0.0126436
0.00764698
0.00682074
0.00673365
0.00596293
0.0069043
0.0108037
0.0073809
0.0107142
0.00167989
3.41783e-05
0.00813489
0.00691631
0.0067291
0.0102257
0.00684026
0.0121768
0.00679779
0.012259
0.00571583
0.00676386
0.0166403
0.00677993
0.00147911
0.0132168
0.00683488
0.00656119
0.00552352
0.00115055
0.00805706
0.00141329
0.0123641
0.00694101
0.00686702
0.00309546
0.00260237
0.0120344
0.010371
0.00211186
0.00106223
0.00135708
0.00520936
0.00679166
0.00683705
0.00674339
0.00671654
0.000137569
0.00255491
0.00772766
0.00233259
0.00135562
0.00680547
0.0123753
0.00184775
0.00236316
0.00673336
0.00521499
0.0067106
0.0115073
0.00446958
0.00451811
0.000222904
0.00155085
0.000190201
0.00674154
0.00252578
0.00141141
6.38893e-05
0.000700756
0.00675695
0.00128254
0.00681377
0.00676823
0.00176923
0.0138624
0.00329725
0.00683782
0.00234471
0.000955878
0.0130588
0.00381165
0.0108897
0.00945195
0.00683756
0.00311364
0.00683063
0.00133986
0.00683843
0.00187614
0.00661545
0.00249518
0.0123177
0.0139739
0.00689793
0.0015411
0.0114116
0.00177098
0.00656206
0.00878525
0.00191535
0.00683298
0.00672698
0.00925726
0.00335694
0.0016733
0.000378611
0.00795206
0.00527907
0.00684721
0.00854961
0.010767
0.012544
0.000458949
0.0029731
0.00137222
0.00148407
0.0102036
0.00345378
0.00608582
0.00173352
0.00374468
0.000536016
0.00437292
0.00882953
0.00104283
0.00271419
0.00272842
0.0170244
0.00618464
0.00898163
0.00139351
0.00307265
0.00221831
0.00672128
0.00671438
0.00984602
0.0113718
0.00594532
0.00665571
0.00227146
0.0055168
0.00799249
0.00290286
0.0111415
0.004368
0.010835
0.00172114
0.0184631
0.00634271
0.000727947
0.00989598
0.00691684
0.00190045
0.00675514
0.00389234
0.00682933
0.0124184
0.00678857
0.00680847
0.0126812
0.00552386
0.00671547
0.0122389
0.00678241
0.00684754
0.00675589
0.00683115
0.00683523
0.000920668
0.0131288
0.00677571
0.000231113
0.00179718
0.00200375
0.00193431
0.00171615
0.0044621
0.0022163
0.00672125
0.012349
0.00547478
0.0117586
0.00693267
0.00789208
0.00146416
0.00274975
0.00211492
0.0104697
0.00672181
0.006786
0.00311252
0.00190772
0.00485794
0.00682293
0.00516289
0.00109761
0.00681873
0.00223134
0.00672298
0.00977203
0.00145492
0.0106705
0.00117969
0.00123455
0.0125159
0.00685336
0.00683969
0.00196167
0.00669095
0.00684064
0.00684057
0.00426692
0.00680036
0.00673218
0.00673655
0.00219868
0.00634081
0.00481837
0.00685126
0.00482867
0.00200857
0.00586286
0.00989749
0.0055984
0.00675254
0.00170538
0.00207505
0.00689003
0.00680844
0.000379486
0.00317886
0.00952694
0.00321102
0.00183587
0.00673987
0.00685228
0.00147694
0.0131267
0.00176509
0.00292216
0.00672602
0.0127367
0.00683318
0.00673236
0.00174467
0.00363907
0.00119819
0.0115284
0.0013912
0.00168081
0.00237773
0.00518006
0.00685897
0.00684731
0.00300862
0.0127488
0.00192837
0.00203342
0.0102794
0.00430925
0.00684031
0.00299388
0.00106513
0.00189021
0.00682346
0.00165538
0.0020028
0.00251283
0.00683219
0.00681186
0.000794521
0.00299721
0.00210528
0.0118205
0.00653793
0.00184285
0.0068376
0.00205192
0.0052789
0.00685469
0.00116877
0.00970922
0.00238028
0.0190947
0.00680586
0.0068559
0.00672462
0.0123606
0.00106547
0.00659909
0.00152972
0.00167967
0.00683522
0.00685696
0.000843479
0.0122588
0.00133286
0.01084
0.00157947
0.00234853
0.000503336
0.00167836
0.00245682
0.000381971
0.00186271
0.00175391
0.00682863
0.00203986
0.00153795
0.00677912
3.47215e-05
0.00270372
0.0018655
0.00430215
0.00140443
0.00679886
0.00653382
0.00301745
0.00671809
0.00683893
0.00674602
0.00673334
0.00676936
0.00681421
0.00320393
0.00685647
0.00678798
0.0124683
0.00174522
0.00613635
0.00281286
0.00463258
0.00669821
0.00674567
0.00211694
0.00606254
0.00426912
0.00681089
0.0067954
0.00279654
0.00048636
0.00684368
0.00683481
0.00182619
0.00335565
0.00215754
0.00276173
0.00683949
0.00117788
0.00331749
0.00678672
0.00182171
0.0127065
0.00688215
0.00321598
0.00683324
0.00273967
0.00682973
0.00470411
0.00676493
0.00679999
0.00475369
0.00258694
0.000210624
0.00317593
0.00682306
0.00397072
0.0118555
0.00192222
0.00114121
0.00150386
0.0068165
0.00342108
0.0179696
0.00104708
0.00167089
0.00433085
0.00968108
0.011524
0.00559152
0.00684223
0.00258244
0.00679065
0.00189948
0.0125403
0.00685537
0.00382563
0.00684788
0.0116793
0.00354836
0.00583824
0.00229851
0.0115525
0.00287855
0.00389084
0.00181214
0.00291828
0.00671502
0.01248
0.0067272
0.0032152
0.00674742
0.00629781
0.0101559
0.00178457
0.00679156
0.00565463
0.000232943
0.0068533
0.006837
0.00337259
0.00624798
0.00681591
0.00389269
0.00640478
0.00682268
0.0067706
0.00188187
0.00193086
0.00113042
0.00672559
0.00192396
0.010241
0.00562791
0.00676772
0.00685809
0.00272365
0.00155704
0.00680349
0.00679379
0.0067911
0.00683747
0.00613416
0.00303888
0.00691667
0.00183403
0.00568896
0.00675013
0.00662084
0.00199741
0.0031874
0.00187472
0.00680331
0.00389382
0.00934946
0.00559176
0.0029459
0.00566783
0.0104913
0.00201703
0.0019268
0.0012634
0.00685162
0.0137478
0.00594701
0.00483857
0.00674067
0.006723
0.00187915
0.00671807
0.0137782
0.0134938
0.00682309
0.000626901
0.00301784
0.00217123
0.00532747
0.00262643
0.00565942
0.00370719