/*--------------------------------*- C++ -*----------------------------------*\
| =========                 |                                                 |
| \\      /  F ield         | OpenFOAM: The Open Source CFD Toolbox           |
|  \\    /   O peration     | Version:  v2012                                 |
|   \\  /    A nd           | Website:  www.openfoam.com                      |
|    \\/     M anipulation  |                                                 |
\*---------------------------------------------------------------------------*/
FoamFile
{
    version     2.0;
    format      ascii;
    class       volScalarField::Internal;
    location    "900";
    object      V0;
}
// * * * * * * * * * * * * * * * * * * * * * * * * * * * * * * * * * * * * * //

dimensions      [0 3 0 0 0 0 0];


value           nonuniform List<scalar> 
13917
(
0.0119165
0.0426389
0.00275265
0.0347558
0.120339
0.00224693
0.00229233
0.00146108
0.00177338
0.0078883
0.00440108
0.0091597
0.0249572
0.00135547
0.0216234
0.0262725
0.0404481
0.00906557
0.0104501
0.157376
0.136581
0.00192096
0.123467
0.00200036
0.0718473
0.00214551
0.00739623
0.00499453
0.00207953
0.00595703
0.0111199
0.0177968
0.0111483
0.0171174
0.0708555
0.00311357
0.121419
0.00144849
0.0269408
0.00123652
0.172219
0.172405
0.131872
0.00483631
0.0434872
0.0172159
0.0102353
0.00766579
0.00167524
0.168935
0.0157083
0.0390703
0.00147121
0.0159063
0.0380676
0.0195777
0.00563253
0.066238
0.0270054
0.0421882
0.00237611
0.0481472
0.00125092
0.136055
0.00319296
0.00242695
0.113798
0.067665
0.00368812
0.0124979
0.128734
0.00179866
0.00141576
0.0955025
0.00149377
0.00895857
0.0012454
0.0370692
0.00233788
0.146759
0.153098
0.109296
0.00263235
0.00171304
0.00193397
0.0382933
0.141369
0.00191676
0.0209514
0.106145
0.0014511
0.00756417
0.0691229
0.0309857
0.00154033
0.00296809
0.00507609
0.0077777
0.00482526
0.00523769
0.125705
0.0119338
0.00419227
0.0272486
0.0894754
0.00226146
0.00350378
0.00664503
0.0432512
0.00977446
0.00166248
0.00155961
0.00630694
0.00196034
0.0264246
0.00132617
0.102962
0.00174511
0.00140008
0.0157228
0.164079
0.00421017
0.00125291
0.00675441
0.14896
0.03419
0.042626
0.168873
0.171725
0.00224777
0.001296
0.033051
0.0438642
0.140539
0.00326376
0.00205941
0.0111901
0.00359962
0.101404
0.0171961
0.00417118
0.0757862
0.0409133
0.00437415
0.0567265
0.00259525
0.00231817
0.0469739
0.0875899
0.0191248
0.00928311
0.00117923
0.00733021
0.00899535
0.0209648
0.00189669
0.0145606
0.00313182
0.00125196
0.00319924
0.0233701
0.0081803
0.162193
0.00558797
0.00797903
0.00460828
0.0264632
0.00878768
0.0621445
0.00952818
0.0105685
0.00132024
0.00610699
0.035021
0.00272068
0.00734539
0.00161459
0.00163623
0.00277695
0.0655455
0.00651151
0.0122193
0.0768413
0.126303
0.0150443
0.00234279
0.00422999
0.00206682
0.0100911
0.0035365
0.00311959
0.00194292
0.00349619
0.142518
0.00370218
0.00782996
0.186327
0.0553027
0.00375665
0.00202064
0.0215668
0.12863
0.011261
0.0101645
0.00134395
0.00298498
0.0606405
0.0584616
0.00808134
0.0027014
0.0442744
0.00225971
0.00138392
0.00544115
0.091302
0.00270874
0.00948531
0.00154424
0.0699234
0.00271226
0.0778664
0.00560024
0.141553
0.00137394
0.00201623
0.0233167
0.00351972
0.0185466
0.103311
0.00271102
0.00642724
0.0108067
0.00256706
0.00105146
0.139948
0.0159845
0.00172797
0.00120055
0.138708
0.115455
0.00131733
0.00435414
0.162357
0.00393655
0.00712197
0.00732757
0.0126851
0.16375
0.0113412
0.00128497
0.0563491
0.00646881
0.00388061
0.0463886
0.0589134
0.00808355
0.00133777
0.00668929
0.0119178
0.0198928
0.177222
0.00112597
0.00261846
0.00341877
0.0827985
0.00153656
0.00126815
0.00287562
0.00192221
0.00771084
0.159907
0.183839
0.00885113
0.00140299
0.00581751
0.0269772
0.00296958
0.0116122
0.160625
0.00230254
0.138075
0.00243027
0.0249429
0.133408
0.017991
0.00800705
0.00990019
0.00324219
0.0124453
0.0493204
0.00337776
0.0021933
0.00194046
0.0799135
0.00296293
0.124146
0.0519314
0.109631
0.00201877
0.182714
0.00517736
0.0146442
0.0674973
0.0093106
0.0317143
0.0010364
0.00802233
0.00807011
0.0656528
0.0607588
0.00153543
0.00135366
0.0878094
0.154086
0.00269208
0.0710856
0.00150816
0.0768247
0.00126335
0.0395031
0.00385299
0.0160372
0.00142565
0.0255106
0.00307648
0.00263712
0.018296
0.00370377
0.00268327
0.0404212
0.00158788
0.00325382
0.00104002
0.0201404
0.00128316
0.0166028
0.00184684
0.00361768
0.0044171
0.0050087
0.00220888
0.123828
0.0107269
0.00186499
0.0406419
0.0279213
0.0013997
0.0033526
0.0432742
0.00351339
0.00198952
0.143542
0.00145635
0.00358313
0.132628
0.104417
0.139046
0.0786508
0.00330211
0.00244475
0.00240269
0.00183555
0.0888072
0.00548974
0.00127606
0.0114137
0.00194332
0.00166184
0.00193195
0.108017
0.00378851
0.0896552
0.00249922
0.0410551
0.00133846
0.00651516
0.0313015
0.109544
0.00882408
0.00521969
0.00606388
0.00123932
0.0016384
0.00122891
0.0099788
0.00641381
0.0988884
0.00124473
0.00195665
0.0585284
0.00383345
0.104261
0.00396811
0.0369338
0.135407
0.0230192
0.00167926
0.0276959
0.00168293
0.0014801
0.00246314
0.002486
0.0393015
0.0026186
0.00240577
0.12491
0.00376987
0.0469352
0.0657797
0.00486855
0.177306
0.0978136
0.0816825
0.00361747
0.141963
0.00145385
0.00213141
0.001346
0.0032739
0.00157976
0.00128462
0.0123134
0.0939651
0.00522157
0.0235206
0.0164892
0.124758
0.00259144
0.00240389
0.00258665
0.0209317
0.00571677
0.0233053
0.0282935
0.0072483
0.0290944
0.00299613
0.0404942
0.152082
0.00156958
0.0014745
0.00153269
0.00543807
0.00119471
0.00178498
0.00151148
0.00150092
0.142141
0.00790102
0.0288143
0.0536262
0.00325558
0.00762689
0.159633
0.00829461
0.0123289
0.00134819
0.0996508
0.0056203
0.00164622
0.00305532
0.00121094
0.133867
0.050181
0.159551
0.0113821
0.130267
0.0022961
0.00268969
0.0145513
0.00170588
0.0205821
0.00473442
0.00158293
0.00148549
0.00454878
0.00333724
0.00487499
0.00927048
0.00462652
0.0114033
0.00444863
0.0023244
0.00956097
0.00533269
0.153528
0.00277652
0.0214122
0.0794541
0.0123588
0.0334956
0.00150152
0.00164244
0.0692293
0.152112
0.00240296
0.00112586
0.180548
0.0012428
0.0295085
0.00412935
0.0723427
0.00107879
0.00311586
0.0187165
0.0305121
0.00184745
0.00403717
0.00127972
0.176919
0.00135699
0.0018633
0.00295379
0.0678186
0.00170487
0.00211088
0.0113193
0.0993036
0.0350741
0.00929655
0.00374954
0.135466
0.110277
0.137069
0.135851
0.00124537
0.00306139
0.0121731
0.00423271
0.165278
0.0977091
0.00574063
0.00216924
0.0120951
0.051075
0.0876472
0.0700633
0.00258223
0.00184899
0.140968
0.0728185
0.00354159
0.011885
0.0118586
0.0566887
0.0246153
0.018719
0.00594949
0.00279453
0.00350575
0.00442724
0.00526888
0.003004
0.00686346
0.0776014
0.00147786
0.0794038
0.0249779
0.0269912
0.00267254
0.00530548
0.115341
0.00317488
0.00515509
0.0014471
0.00483194
0.00961204
0.0117381
0.104158
0.00191774
0.00324338
0.00158833
0.0471882
0.0150085
0.00367704
0.00150797
0.00136609
0.00720226
0.00436461
0.025492
0.0215202
0.049584
0.00601808
0.00414727
0.0424586
0.00969114
0.00333223
0.00171558
0.00108639
0.0260381
0.00508674
0.00357969
0.0162626
0.0431783
0.00155872
0.0025902
0.00225814
0.00414324
0.138751
0.00123945
0.0098521
0.135377
0.013964
0.0072358
0.0113806
0.00633678
0.002165
0.00499647
0.0153742
0.00233279
0.0264731
0.00138095
0.140971
0.107584
0.00245846
0.00216805
0.00244698
0.0247251
0.0393555
0.0781203
0.0102797
0.00135973
0.00496875
0.0207444
0.00554898
0.00888619
0.0589182
0.00242616
0.00607856
0.00341214
0.0762986
0.00402216
0.0325218
0.00155634
0.00813656
0.00587063
0.0127316
0.135543
0.0772921
0.0416265
0.0049499
0.0149427
0.00375879
0.00126126
0.00855557
0.134006
0.00380699
0.00179583
0.00335429
0.0554267
0.0154473
0.11018
0.0167695
0.0203695
0.00188213
0.145683
0.0022953
0.0175058
0.00405712
0.00644269
0.00133484
0.00551798
0.0384833
0.00135552
0.00136609
0.054198
0.0283615
0.00333876
0.00462337
0.00556117
0.167662
0.0305217
0.00400865
0.0246143
0.00741797
0.00924095
0.0702724
0.0103296
0.00243668
0.0528874
0.0417509
0.153701
0.00138236
0.153722
0.0218557
0.00135427
0.0249379
0.00241524
0.0207179
0.0084899
0.136497
0.00818694
0.10017
0.00898902
0.16153
0.0056853
0.0288856
0.0017478
0.00135542
0.00166131
0.187013
0.135427
0.00717883
0.00947383
0.00119877
0.0015632
0.00875043
0.0754508
0.00371223
0.00238693
0.00298188
0.00412979
0.00902774
0.00207505
0.0100247
0.0128594
0.00399652
0.00375556
0.00942916
0.00169652
0.0104117
0.0304448
0.00642354
0.0144728
0.068543
0.0182034
0.0100098
0.0181004
0.101734
0.15147
0.00900802
0.0258098
0.00662924
0.067043
0.0898807
0.141059
0.0260992
0.0996831
0.0204739
0.14122
0.00110546
0.00986198
0.00280677
0.138568
0.138173
0.00676033
0.00784944
0.0300286
0.00241007
0.00628705
0.00262368
0.0136846
0.00489546
0.031022
0.158312
0.1442
0.0258394
0.00123902
0.145121
0.00267882
0.0150915
0.00106716
0.00794143
0.00550171
0.00434383
0.0954987
0.182508
0.00875735
0.0710711
0.039954
0.00268202
0.0315596
0.130121
0.0152701
0.127881
0.130733
0.0176209
0.0135351
0.0010517
0.0134748
0.0440971
0.176972
0.00157655
0.00405968
0.0478444
0.0379832
0.00253127
0.00326101
0.00130489
0.0113361
0.0295214
0.12914
0.123612
0.00937548
0.0127671
0.00320498
0.0147383
0.00156518
0.0339102
0.0253199
0.000927962
0.102997
0.0183039
0.0570034
0.159361
0.0100283
0.00751086
0.0320392
0.00205536
0.00121586
0.00745726
0.0631357
0.0804503
0.00554791
0.00273823
0.158542
0.00280471
0.0836645
0.010657
0.0533006
0.0693677
0.00344127
0.0504817
0.00293409
0.0106947
0.151687
0.108945
0.0508986
0.0715846
0.0443542
0.00152693
0.0557867
0.0703673
0.00165182
0.00200213
0.0120729
0.0116033
0.0065992
0.0210555
0.0790773
0.01078
0.00136376
0.00455713
0.0979919
0.0406403
0.00181581
0.00992664
0.00157028
0.136169
0.0284636
0.00134027
0.0132505
0.0344108
0.001242
0.0016233
0.0792342
0.00434033
0.117876
0.0542627
0.106041
0.00137682
0.0980472
0.04731
0.0796105
0.00251801
0.0215501
0.00422647
0.00587919
0.0621489
0.0103467
0.143546
0.00150951
0.0980489
0.055279
0.131002
0.00383473
0.110353
0.00395625
0.00127138
0.00255628
0.0184183
0.0030254
0.00134802
0.060081
0.00123367
0.00165947
0.00127799
0.00156285
0.00157757
0.00152283
0.00404267
0.0348347
0.0018961
0.0141095
0.00178149
0.0799374
0.0619894
0.0479567
0.141345
0.0183628
0.0129897
0.00104508
0.063624
0.0732285
0.00109425
0.00317119
0.0479377
0.00712697
0.0152173
0.0413673
0.00108628
0.00697135
0.0236134
0.02144
0.00121434
0.00100236
0.00174882
0.056547
0.00399405
0.0049172
0.00135298
0.00172552
0.00697153
0.0619057
0.030548
0.0314578
0.158794
0.0239006
0.131647
0.0163516
0.00592785
0.00165027
0.00551675
0.0443549
0.00517174
0.00152874
0.0108225
0.0472697
0.00122104
0.0598193
0.0413251
0.00859119
0.00175294
0.112544
0.0738076
0.00208566
0.00317039
0.00305262
0.00499517
0.00246235
0.0662852
0.00350749
0.0430595
0.102277
0.0437603
0.00256984
0.00114182
0.0624289
0.106554
0.0550626
0.00298534
0.0260696
0.0173744
0.0753759
0.0452281
0.0041893
0.0573297
0.00764513
0.0035503
0.00173876
0.0500831
0.00528833
0.022192
0.00139299
0.00120437
0.0860371
0.0012281
0.00658846
0.00164061
0.121782
0.00153469
0.119834
0.0158461
0.0108066
0.004442
0.0023457
0.00286288
0.00448075
0.00225865
0.13974
0.00372638
0.0723277
0.0118182
0.00185901
0.0479862
0.154844
0.0333763
0.0390848
0.00130469
0.113866
0.122873
0.00894438
0.0075735
0.00957052
0.00227398
0.00542639
0.00120181
0.00910158
0.0122679
0.014201
0.00135155
0.0122966
0.00265139
0.00150657
0.0212811
0.0643999
0.00160123
0.00334922
0.0414066
0.0059455
0.0094066
0.035543
0.0188116
0.0359854
0.0111481
0.173376
0.00915678
0.00335731
0.100976
0.00846018
0.0611007
0.00634977
0.164603
0.0148504
0.00767745
0.024033
0.0409285
0.0647904
0.00165157
0.00610078
0.00258059
0.0725779
0.0381738
0.0082547
0.0578836
0.00677966
0.00563094
0.0344719
0.00649525
0.0695227
0.00239077
0.0436927
0.0162736
0.00103619
0.00359848
0.0801763
0.0268776
0.00127358
0.0986146
0.101894
0.00142846
0.0014889
0.0218997
0.0043519
0.14494
0.0402431
0.0025342
0.0315663
0.0899488
0.00329696
0.0557799
0.00298361
0.11532
0.0975384
0.0436998
0.00520662
0.00143074
0.0433317
0.0405649
0.0728934
0.0193228
0.133808
0.0016477
0.00836367
0.158889
0.00231886
0.00842123
0.00283959
0.0015803
0.00150645
0.0675277
0.0481368
0.0531392
0.00197755
0.0195007
0.00149616
0.00141005
0.0273309
0.0018049
0.00155132
0.00925795
0.00440576
0.00569959
0.00239457
0.00223741
0.00474989
0.00278427
0.00155967
0.0091518
0.0221447
0.00133735
0.00543433
0.0708162
0.0237291
0.00247047
0.0101324
0.0670749
0.00717779
0.00599654
0.011524
0.00122787
0.0266233
0.00223893
0.0127025
0.00378737
0.00446835
0.00398381
0.0157799
0.0655721
0.0398965
0.00238247
0.0815563
0.0226367
0.151907
0.0246902
0.0589411
0.0103877
0.00503707
0.00142982
0.00806285
0.0064471
0.00237153
0.00287791
0.0586221
0.00302092
0.0022049
0.0566055
0.100235
0.0125064
0.00132502
0.141149
0.00743443
0.00255143
0.0083152
0.0572883
0.0278492
0.0572503
0.00526513
0.00938092
0.133211
0.00172193
0.00206936
0.00953778
0.00276928
0.00770341
0.00212763
0.0262348
0.0193303
0.00229093
0.00276972
0.00683549
0.00186356
0.017722
0.147785
0.0615625
0.0490691
0.0585725
0.0272309
0.00883074
0.0754596
0.00458773
0.132568
0.0143593
0.0669402
0.00644211
0.00526216
0.00294006
0.0615485
0.00399002
0.0593171
0.00225967
0.0921413
0.0176197
0.0936939
0.00360688
0.00124319
0.00400382
0.0722839
0.00527065
0.0459992
0.0142003
0.00149255
0.0529049
0.0423976
0.00805088
0.0155861
0.001919
0.0733172
0.0145297
0.0383083
0.105288
0.0122288
0.0326287
0.100515
0.024395
0.00100088
0.0221135
0.00305469
0.00227194
0.00907641
0.00142734
0.0220555
0.108725
0.0143187
0.00116934
0.0339439
0.010208
0.0107557
0.00159871
0.0746152
0.00113421
0.00713718
0.00736481
0.0666592
0.113555
0.0050434
0.0390434
0.144481
0.00999634
0.0807871
0.0158942
0.0156203
0.00539671
0.0033365
0.00208118
0.0220642
0.00553668
0.0024671
0.00110375
0.0139211
0.00280049
0.00132789
0.011719
0.00200617
0.0202084
0.00178853
0.00119277
0.0730051
0.164295
0.106614
0.0384295
0.00979294
0.0655239
0.0189369
0.00657057
0.0255332
0.010911
0.00106118
0.00971913
0.0225244
0.00156963
0.0327326
0.00122426
0.0254679
0.00422998
0.0766566
0.00106449
0.00130441
0.0459723
0.0367762
0.00180812
0.0106342
0.00126597
0.132708
0.0477588
0.0016906
0.0308855
0.00627431
0.0015641
0.0763328
0.00837605
0.0123112
0.110719
0.13191
0.00184248
0.00131562
0.0399368
0.0226932
0.0544338
0.0138992
0.00873716
0.00145341
0.0270148
0.00169927
0.00280517
0.00338892
0.0027018
0.0313892
0.00571878
0.00348353
0.0142094
0.0907002
0.00883328
0.00146369
0.0250542
0.0072801
0.00184986
0.0013214
0.0027294
0.0195522
0.0479213
0.13091
0.079411
0.00130119
0.00895543
0.0248649
0.0283421
0.0238858
0.135837
0.0589036
0.0759304
0.00620173
0.0154795
0.00236746
0.00570882
0.00119647
0.00149049
0.0134249
0.00924514
0.113753
0.0170446
0.00105569
0.0364789
0.0245177
0.00910782
0.00453281
0.00604772
0.00221562
0.00201796
0.0582541
0.00106402
0.120488
0.0382544
0.00794414
0.145003
0.046937
0.00435184
0.00238019
0.0539362
0.00233055
0.0371204
0.0671173
0.0205334
0.00168853
0.0159379
0.0272814
0.00200169
0.0315773
0.00338657
0.00164734
0.169196
0.0050219
0.129406
0.00120063
0.0064034
0.0669953
0.00195838
0.00870058
0.00463924
0.129035
0.00104965
0.0137625
0.00283183
0.040633
0.00423849
0.00129448
0.0689229
0.00174624
0.0459923
0.00759786
0.00633108
0.159416
0.00103017
0.0239776
0.00432359
0.00812859
0.00473648
0.00955706
0.00922864
0.0281851
0.00187914
0.0106881
0.00117176
0.0133491
0.00988194
0.0490115
0.0113156
0.0553864
0.00917584
0.00223565
0.0356581
0.0701412
0.00134251
0.0286571
0.00226885
0.0325192
0.00228893
0.00257819
0.0127701
0.0723907
0.100289
0.0855664
0.119612
0.0057636
0.00651924
0.00729529
0.0189466
0.135635
0.00302969
0.0248832
0.013729
0.00274498
0.0561426
0.00180969
0.00958516
0.0175458
0.00173226
0.00132832
0.00313399
0.00230678
0.00269823
0.0713932
0.00254411
0.00148535
0.00259958
0.148244
0.0441063
0.00473717
0.00210509
0.0012848
0.00298329
0.0498206
0.00715776
0.0110061
0.00185976
0.00126949
0.0121271
0.0033716
0.0216911
0.00643347
0.00639678
0.144327
0.00547142
0.00245536
0.106671
0.00282267
0.142554
0.0461558
0.00103165
0.00152924
0.126644
0.0390195
0.0229145
0.0457839
0.00971548
0.00432242
0.0259557
0.0999395
0.10221
0.00880338
0.0163145
0.0205126
0.00326553
0.0702148
0.0017627
0.00122488
0.00147893
0.00346687
0.0096006
0.00304745
0.0132978
0.00184416
0.00268776
0.00270046
0.040307
0.0018785
0.00113043
0.114487
0.0964312
0.00533197
0.00149627
0.00230165
0.0629365
0.0494959
0.00150323
0.00183884
0.00270192
0.0242875
0.0209489
0.00184763
0.0489922
0.00148634
0.00172365
0.00313698
0.00247567
0.0511629
0.0772724
0.130209
0.0154621
0.0011557
0.0110697
0.0224202
0.0297664
0.00451237
0.00107766
0.0100579
0.00277906
0.00110088
0.00103304
0.0017195
0.0800567
0.15209
0.00226265
0.1137
0.0690548
0.0281839
0.00112449
0.0115511
0.00196907
0.00443157
0.0874915
0.00146568
0.0118196
0.0592651
0.00134423
0.00303696
0.0182175
0.0412136
0.00119352
0.00156464
0.118808
0.00228158
0.00230273
0.00182793
0.00208383
0.00536577
0.0634482
0.0316311
0.00347724
0.0201187
0.00217606
0.00834745
0.00280512
0.00325488
0.0266658
0.0164112
0.0544698
0.0342032
0.001685
0.00113787
0.0809598
0.00126706
0.0100384
0.0471272
0.0202894
0.092637
0.00414276
0.0260929
0.00168417
0.00646255
0.0652916
0.133017
0.00491999
0.000988003
0.0108032
0.0226845
0.00954206
0.0639818
0.0246483
0.0174802
0.000937005
0.00136598
0.00155779
0.108759
0.130107
0.0245423
0.00656226
0.0981268
0.034028
0.00386698
0.00715791
0.00272604
0.0712993
0.00161996
0.00132993
0.163809
0.00100863
0.00523649
0.0104857
0.0015344
0.0357836
0.00144384
0.0146396
0.0240023
0.0225796
0.121452
0.00356064
0.165229
0.0362702
0.0114214
0.0015002
0.0015
0.14024
0.159994
0.0238992
0.0487496
0.00411996
0.0380455
0.00615053
0.0290104
0.00144995
0.0352559
0.00157428
0.10239
0.00162611
0.0348729
0.112623
0.00181156
0.00261565
0.00392135
0.00299679
0.00565852
0.0101141
0.0724797
0.00142749
0.0656169
0.0990107
0.00449847
0.0090802
0.00179634
0.00143642
0.00487351
0.00276014
0.00476279
0.00281024
0.139789
0.0221131
0.016546
0.00154886
0.0202726
0.00137948
0.00102516
0.0365705
0.0463201
0.0516731
0.00261809
0.00105878
0.0235545
0.123699
0.0207596
0.0182976
0.0108669
0.00345971
0.00303822
0.125905
0.00201536
0.00624581
0.000967116
0.00646803
0.0242744
0.0242945
0.00139294
0.140725
0.00601538
0.00219641
0.0283744
0.0195005
0.00380042
0.00419632
0.0330203
0.00125795
0.0243416
0.00331855
0.00964621
0.0136941
0.0304205
0.00166483
0.100677
0.00499308
0.00178503
0.00154698
0.00905525
0.00712756
0.0211536
0.00954651
0.13827
0.00172305
0.0190594
0.0493515
0.0146643
0.13856
0.164373
0.000880483
0.092789
0.146459
0.0532904
0.00394565
0.0462191
0.0129112
0.00614233
0.00352116
0.00533604
0.13752
0.00310011
0.0020025
0.00412687
0.0074384
0.0121082
0.00418653
0.002656
0.002663
0.16671
0.00246918
0.00216803
0.168686
0.0248338
0.118654
0.00222201
0.00514273
0.0343364
0.00169015
0.0014917
0.135183
0.0425344
0.00208572
0.00111402
0.00838205
0.107059
0.00264372
0.00159529
0.00130817
0.0999951
0.00151671
0.00677318
0.00402038
0.00128788
0.0209251
0.118102
0.0134526
0.00423816
0.0128917
0.0020488
0.00150162
0.0683158
0.00231763
0.00153281
0.00133823
0.0859761
0.00621995
0.0288203
0.0630255
0.00121907
0.00306997
0.00335338
0.00293234
0.0145125
0.0099821
0.156543
0.00162306
0.00118483
0.0717608
0.0374439
0.0111107
0.0606194
0.00916259
0.00167738
0.00191318
0.00903703
0.0340227
0.0366868
0.00162452
0.0195512
0.00895933
0.0750583
0.0288536
0.00330792
0.00280532
0.003114
0.00156354
0.14208
0.00365422
0.151893
0.00778088
0.00177133
0.00136487
0.0954267
0.144851
0.0145367
0.0164762
0.0444182
0.00138514
0.0015226
0.0756875
0.140159
0.118007
0.0950678
0.00145196
0.0657017
0.00150626
0.00513319
0.00854251
0.061219
0.00909411
0.00162708
0.0141012
0.00262892
0.00162397
0.0320403
0.00102431
0.00988289
0.0063601
0.00316358
0.0012282
0.00136024
0.0093085
0.0716778
0.00382444
0.0651346
0.0155728
0.0438238
0.00232585
0.0103387
0.00277886
0.00346233
0.0099454
0.114379
0.00341537
0.0179772
0.161611
0.00268825
0.108439
0.0146563
0.0104888
0.0438166
0.0021406
0.0277625
0.00228564
0.0269579
0.0935037
0.00179474
0.00151427
0.0211185
0.0109051
0.0123888
0.00657507
0.00885712
0.0148501
0.0147939
0.0221908
0.00368055
0.0181748
0.00218808
0.00556293
0.00262806
0.00571111
0.0297182
0.00159961
0.154714
0.00234717
0.0206697
0.00195127
0.00268168
0.00269074
0.00269647
0.00398258
0.00462926
0.0329428
0.00166435
0.00441081
0.0728952
0.00106241
0.00230134
0.0252318
0.0276706
0.0120317
0.0116781
0.0148347
0.0013731
0.184559
0.0153846
0.0110862
0.0110475
0.140275
0.00584893
0.0931141
0.00212537
0.0192344
0.00447041
0.0130007
0.0109564
0.00501262
0.00284089
0.00690816
0.0691673
0.00370038
0.0017814
0.00173741
0.0380552
0.00231011
0.0167484
0.00142695
0.063806
0.0221066
0.00145725
0.0100083
0.0012297
0.00123047
0.0101706
0.00123215
0.0484496
0.0928735
0.00103156
0.0056801
0.0239161
0.00171655
0.0181202
0.00719621
0.0147773
0.00704208
0.0414306
0.00253411
0.00180466
0.00123175
0.0032289
0.0168552
0.00840233
0.0012437
0.0237259
0.0423966
0.00523955
0.112541
0.00210094
0.00179412
0.00121444
0.00131998
0.00883593
0.0345677
0.00158225
0.12341
0.00506851
0.147163
0.00165699
0.0272643
0.0064796
0.00125553
0.00468913
0.123873
0.0124493
0.00182973
0.0473334
0.00536968
0.0676677
0.00214143
0.00132168
0.0054622
0.0043232
0.12326
0.00404067
0.00497811
0.0102582
0.0678219
0.0380333
0.165121
0.00959281
0.099847
0.00563933
0.0433467
0.0630394
0.00182852
0.0582805
0.01822
0.021977
0.134907
0.00146738
0.0618807
0.0117112
0.00159449
0.0100887
0.00261514
0.0490362
0.0017337
0.0101464
0.00176455
0.0258697
0.00394953
0.0434751
0.00944275
0.00512273
0.00540563
0.00387362
0.0015335
0.00427105
0.002851
0.0157096
0.00524176
0.00903966
0.00265658
0.0184967
0.0415146
0.0594788
0.00969905
0.00680329
0.00287559
0.00896418
0.00220758
0.00237035
0.00384748
0.0535602
0.00277007
0.00259569
0.0395792
0.0251325
0.0506127
0.00218297
0.0584083
0.000883377
0.0617178
0.017977
0.00142899
0.00517401
0.086912
0.059259
0.00122232
0.0735002
0.0232781
0.016776
0.0121552
0.0200368
0.0398095
0.00315536
0.00437006
0.0091513
0.00365405
0.00146071
0.00137266
0.00110576
0.115729
0.0632828
0.00417556
0.0352485
0.00554157
0.00223751
0.0012769
0.111509
0.0712494
0.00153073
0.00304953
0.107387
0.0708936
0.0148498
0.001851
0.00199957
0.0183554
0.0125235
0.130332
0.00354889
0.0054789
0.00326189
0.0114578
0.0100902
0.0269044
0.0109105
0.00331237
0.023335
0.0398643
0.0184693
0.00209247
0.0177229
0.00122191
0.0904896
0.00151469
0.0111106
0.0124287
0.0861551
0.0928623
0.00277963
0.00234935
0.00598437
0.00118485
0.00189774
0.0347477
0.00148576
0.00475646
0.143561
0.002609
0.00286636
0.00339899
0.139208
0.00146207
0.00143918
0.0639958
0.00964477
0.00128262
0.0100369
0.0486566
0.068861
0.0348099
0.0241913
0.00660491
0.00370762
0.00447808
0.00671691
0.119889
0.0513549
0.00228507
0.063373
0.00836151
0.0137962
0.0476971
0.00873047
0.0799428
0.0238339
0.00357412
0.102395
0.00134998
0.0981244
0.00181865
0.00166792
0.00585756
0.0423415
0.162544
0.00156825
0.119492
0.0227595
0.0354987
0.00367667
0.00297646
0.0113525
0.00156787
0.00973724
0.00281735
0.0300067
0.00696437
0.0586836
0.0964519
0.00122281
0.0013487
0.00300997
0.0235668
0.00761163
0.00664327
0.00106584
0.00150797
0.00351986
0.00762437
0.118539
0.00157469
0.0512852
0.0465813
0.00413601
0.00530051
0.0138797
0.00299544
0.00693477
0.0123024
0.0174288
0.00141803
0.0233555
0.0904091
0.000990687
0.0055249
0.0898357
0.00110282
0.127039
0.1071
0.0039887
0.00499487
0.00189601
0.0988148
0.01943
0.061349
0.00181886
0.0663076
0.00226899
0.00258304
0.00152327
0.00143413
0.00157707
0.0116196
0.00148824
0.00198019
0.133266
0.0126555
0.00938855
0.0114638
0.00177522
0.0012795
0.00127151
0.00156329
0.00169935
0.0435958
0.00583886
0.143713
0.00142579
0.0164728
0.025439
0.0232786
0.0276254
0.0658515
0.00477592
0.00133586
0.107157
0.0249357
0.143247
0.00149228
0.0264475
0.00168811
0.00216215
0.00291649
0.0862459
0.0657224
0.00115637
0.00260096
0.102874
0.00317793
0.137032
0.00464415
0.00295134
0.00583428
0.009778
0.00262374
0.0574431
0.0604304
0.00362213
0.00147864
0.014808
0.00684474
0.0627498
0.00110091
0.0810397
0.140941
0.0308196
0.062065
0.00174491
0.00142569
0.00287585
0.00872049
0.00149757
0.00336802
0.118829
0.0139362
0.0850928
0.00174167
0.0364742
0.0195199
0.0612381
0.0963784
0.064423
0.00202448
0.0393415
0.00154675
0.0774459
0.0116003
0.154249
0.00182479
0.0996515
0.0137831
0.010585
0.00582653
0.00178207
0.0921215
0.0011718
0.00722637
0.00836532
0.141596
0.079387
0.00142203
0.00101233
0.0406434
0.0646205
0.00342677
0.00362452
0.00889538
0.00155741
0.0275973
0.00214439
0.0168491
0.0921056
0.0017857
0.0358934
0.0018822
0.059158
0.0277789
0.109468
0.000986882
0.00145624
0.110394
0.00279807
0.00367918
0.138343
0.0567432
0.143112
0.0028276
0.00153874
0.00747405
0.0281827
0.0101745
0.0992299
0.0506149
0.0244203
0.10631
0.00394605
0.0461288
0.00784985
0.00286433
0.0104991
0.13006
0.00237474
0.00569041
0.0958071
0.00538464
0.014607
0.00288425
0.0200654
0.00230428
0.00836714
0.0523399
0.00608495
0.00611432
0.0254496
0.00170379
0.00815626
0.0183328
0.00292635
0.0564028
0.00447393
0.00389944
0.00474809
0.0956796
0.060083
0.120156
0.0105531
0.00892715
0.00880592
0.00236992
0.00129793
0.00224117
0.13312
0.00159265
0.00163113
0.00158274
0.0599271
0.0462232
0.00886689
0.00188818
0.0230146
0.0107458
0.00150521
0.00129956
0.00167659
0.00377031
0.00402944
0.00154113
0.00289403
0.0879938
0.00180012
0.00362377
0.0362967
0.0379387
0.0275969
0.00143018
0.00594464
0.00181702
0.0227301
0.00272141
0.0419927
0.0025431
0.00133794
0.0356609
0.00874382
0.00146485
0.00234436
0.0083456
0.0284566
0.0236445
0.0332084
0.00358834
0.00546308
0.00248966
0.0015508
0.0778202
0.00104723
0.00429704
0.0027108
0.143518
0.13693
0.00355745
0.00295258
0.0610774
0.00901471
0.00488543
0.00614414
0.00209358
0.00192365
0.00158866
0.00149157
0.019243
0.0766712
0.0051953
0.0012693
0.002247
0.0493184
0.00187905
0.00429931
0.00208814
0.0320005
0.146147
0.0017643
0.00266344
0.00248146
0.00182659
0.00133015
0.0852586
0.00282507
0.00158195
0.0459153
0.00541102
0.00648628
0.0992627
0.00388608
0.00185535
0.0028276
0.142091
0.00112061
0.00491453
0.00161145
0.107173
0.0254706
0.0319021
0.036227
0.035679
0.00728676
0.00939398
0.00797661
0.00288379
0.0103951
0.00135781
0.0186178
0.018554
0.0144022
0.00105627
0.00581457
0.00145241
0.0143416
0.0139097
0.00102937
0.00361361
0.0479916
0.00834017
0.00284527
0.00227979
0.00368212
0.0540813
0.07984
0.0491661
0.00311206
0.0280794
0.00149278
0.00182263
0.0026293
0.0132302
0.00382874
0.0013264
0.0469696
0.00249081
0.0110419
0.00512097
0.0475212
0.0511043
0.00780853
0.00147927
0.139411
0.00152727
0.00316307
0.00446208
0.00424858
0.0738573
0.112819
0.0147799
0.0377267
0.00167515
0.00169146
0.00509178
0.00284239
0.0556749
0.0431547
0.0404124
0.132036
0.00182013
0.0299298
0.00135974
0.00441577
0.0285133
0.00246662
0.00213516
0.00146792
0.00108055
0.0238621
0.0667429
0.103994
0.0242199
0.00212408
0.00346933
0.00162296
0.112975
0.0362221
0.00332621
0.14925
0.00340059
0.0229708
0.00332066
0.00293448
0.00844755
0.00938936
0.074989
0.00913793
0.00977184
0.00343731
0.00442909
0.0091472
0.0968284
0.00375842
0.0682752
0.00249028
0.00160958
0.00187511
0.0502322
0.00565561
0.0558469
0.0106976
0.0270786
0.0356673
0.0126504
0.00139722
0.00188767
0.00465101
0.00770226
0.00342126
0.00565677
0.00209742
0.00151824
0.0151667
0.00146297
0.00345508
0.063472
0.00582217
0.00152808
0.00476332
0.142331
0.0080412
0.00161377
0.00324328
0.00103323
0.0413405
0.00300637
0.0745424
0.0633475
0.010884
0.00186923
0.159253
0.0014754
0.00162932
0.00334877
0.00260044
0.00264567
0.00157314
0.00369946
0.10782
0.0198964
0.0810765
0.00726114
0.0037322
0.00221863
0.0189716
0.0105188
0.0744526
0.00158536
0.0111214
0.00913615
0.00174549
0.00336851
0.00167406
0.00157621
0.0589196
0.00104395
0.104081
0.0147409
0.00532824
0.00166101
0.00436435
0.0143016
0.0316981
0.00201623
0.0144259
0.00201469
0.00100973
0.00998586
0.00153782
0.0105282
0.144062
0.00188278
0.00728892
0.0275491
0.000988552
0.00188735
0.0147666
0.0149755
0.00499692
0.00130799
0.0631056
0.0479113
0.110601
0.088918
0.0285047
0.0015108
0.0106972
0.00165347
0.119652
0.0469327
0.00199966
0.0363066
0.165585
0.110624
0.0502798
0.00269658
0.0674138
0.00158109
0.0361498
0.0272104
0.00760731
0.0387108
0.0026662
0.0694693
0.149305
0.0645171
0.012633
0.00506199
0.0219191
0.0014461
0.046835
0.00773549
0.0158865
0.00151507
0.0333664
0.104918
0.0600957
0.0747181
0.00338375
0.067992
0.056774
0.0254392
0.0027949
0.141278
0.00803854
0.00874367
0.0535002
0.0016647
0.00160942
0.00304844
0.00259781
0.022204
0.00538831
0.0441077
0.00350904
0.00360153
0.0369322
0.00292454
0.00509061
0.00241988
0.0132347
0.0626237
0.00163354
0.00869138
0.00294649
0.00187342
0.0785843
0.0622851
0.00122026
0.00153486
0.00864759
0.00599302
0.0275469
0.00182522
0.00248414
0.110936
0.0912277
0.040026
0.0988204
0.133981
0.059883
0.00960282
0.00152235
0.0145002
0.0430604
0.00230757
0.0838458
0.00299834
0.00503087
0.0448073
0.0163235
0.0619029
0.00302234
0.0175985
0.00649943
0.0625724
0.0380862
0.00117964
0.00147387
0.131499
0.00896541
0.00761344
0.0151876
0.0211936
0.160232
0.0354631
0.00291088
0.00295164
0.011088
0.00211957
0.0371561
0.00163331
0.00457277
0.0247478
0.00126044
0.0263936
0.00180359
0.00240114
0.00142296
0.00268942
0.00151118
0.00151758
0.0707674
0.0173654
0.0225197
0.0771353
0.0652815
0.0150152
0.00464183
0.0595405
0.0133418
0.00419843
0.00488894
0.00265087
0.00360404
0.0129151
0.0025476
0.00212952
0.0103434
0.0184315
0.00386932
0.00175235
0.00181411
0.0188036
0.0771552
0.0659448
0.0669213
0.0127578
0.00127861
0.00330781
0.0618401
0.00128023
0.106265
0.00458882
0.00209873
0.00460689
0.00385471
0.00396585
0.00325303
0.0284201
0.0108071
0.0768708
0.00358002
0.0618568
0.0269197
0.0132741
0.00313547
0.095765
0.0242821
0.00117992
0.114971
0.041041
0.0161752
0.00158261
0.00485544
0.00302546
0.0092092
0.137944
0.00164931
0.00831539
0.0265431
0.0671199
0.0102903
0.0149528
0.0564047
0.0221363
0.00125517
0.0234373
0.0802155
0.00654846
0.0798158
0.0113542
0.00981089