/*--------------------------------*- C++ -*----------------------------------*\
| =========                 |                                                 |
| \\      /  F ield         | OpenFOAM: The Open Source CFD Toolbox           |
|  \\    /   O peration     | Version:  v2012                                 |
|   \\  /    A nd           | Website:  www.openfoam.com                      |
|    \\/     M anipulation  |                                                 |
\*---------------------------------------------------------------------------*/
FoamFile
{
    version     2.0;
    format      ascii;
    class       pointVectorField;
    location    "950";
    object      pointDisplacement;
}
// * * * * * * * * * * * * * * * * * * * * * * * * * * * * * * * * * * * * * //

dimensions      [0 1 0 0 0 0 0];


internalField   nonuniform List<vector> 
14386
(
(0 0 0)
(-0 -0.0565587 -0)
(0 0 0)
(-0 -0.0565587 -0)
(0 0 0)
(0 0 0)
(0 0 0)
(0 0 0)
(0 0 0)
(0 0 0)
(0 0 0)
(0 0 0)
(0 0 0)
(0 0 0)
(0 0 0)
(0 0 0)
(0 0 0)
(0 0 0)
(0 0 0)
(0 0 0)
(0 0 0)
(0 0 0)
(0 0 0)
(0 0 0)
(0 0 0)
(0 0 0)
(0 0 0)
(0 0 0)
(0 0 0)
(0 0 0)
(0 0 0)
(0 0 0)
(0 0 0)
(0 0 0)
(0 0 0)
(0 0 0)
(0 0 0)
(0 0 0)
(0 0 0)
(0 0 0)
(0 0 0)
(0 0 0)
(0 0 0)
(0 0 0)
(0 0 0)
(0 0 0)
(0 0 0)
(0 0 0)
(0 0 0)
(0 0 0)
(0 0 0)
(0 0 0)
(0 0 0)
(0 0 0)
(0 0 0)
(0 0 0)
(0 0 0)
(0 0 0)
(0 0 0)
(0 0 0)
(0 0 0)
(0 0 0)
(0 0 0)
(0 0 0)
(0 0 0)
(0 0 0)
(0 0 0)
(0 0 0)
(0 0 0)
(0 0 0)
(0 0 0)
(0 0 0)
(0 0 0)
(0 0 0)
(0 0 0)
(0 0 0)
(0 0 0)
(0 0 0)
(0 0 0)
(0 0 0)
(0 0 0)
(0 0 0)
(0 0 0)
(0 0 0)
(0 0 0)
(0 0 0)
(0 0 0)
(0 0 0)
(0 0 0)
(0 0 0)
(0 0 0)
(0 0 0)
(0 0 0)
(0 0 0)
(0 0 0)
(0 0 0)
(0 0 0)
(0 0 0)
(0 0 0)
(0 0 0)
(0 0 0)
(0 0 0)
(0 0 0)
(0 0 0)
(0 0 0)
(0 0 0)
(0 0 0)
(0 0 0)
(0 0 0)
(0 0 0)
(0 0 0)
(0 0 0)
(0 0 0)
(0 0 0)
(0 0 0)
(0 0 0)
(0 0 0)
(0 0 0)
(0 0 0)
(0 0 0)
(0 0 0)
(0 0 0)
(0 0 0)
(0 0 0)
(0 0 0)
(0 0 0)
(0 0 0)
(0 0 0)
(0 0 0)
(0 0 0)
(0 0 0)
(0 0 0)
(0 0 0)
(-0 -0.0565587 -0)
(-0 -0.0565587 -0)
(-0 -0.0565587 -0)
(-0 -0.0565587 -0)
(-0 -0.0565587 -0)
(-0 -0.0565587 -0)
(-0 -0.0565587 -0)
(-0 -0.0565587 -0)
(-0 -0.0565587 -0)
(-0 -0.0565587 -0)
(-0 -0.0565587 -0)
(-0 -0.0565587 -0)
(-0 -0.0565587 -0)
(-0 -0.0565587 -0)
(-0 -0.0565587 -0)
(-0 -0.0565587 -0)
(-0 -0.0565587 -0)
(-0 -0.0565587 -0)
(-0 -0.0565587 -0)
(-0 -0.0565587 -0)
(-0 -0.0565587 -0)
(-0 -0.0565587 -0)
(-0 -0.0565587 -0)
(-0 -0.0565587 -0)
(-0 -0.0565587 -0)
(-0 -0.0565587 -0)
(-0 -0.0565587 -0)
(-0 -0.0565587 -0)
(-0 -0.0565587 -0)
(0 0 0)
(0 0 0)
(0 0 0)
(0 0 0)
(0 0 0)
(0 0 0)
(0 0 0)
(0 0 0)
(0 0 0)
(0 0 0)
(0 0 0)
(0 0 0)
(0 0 0)
(0 0 0)
(0 0 0)
(0 0 0)
(0 0 0)
(0 0 0)
(0 0 0)
(0 0 0)
(0 0 0)
(0 0 0)
(0 0 0)
(0 0 0)
(0 0 0)
(0 0 0)
(0 0 0)
(0 0 0)
(0 0 0)
(0 0 0)
(0 0 0)
(0 0 0)
(0 0 0)
(0 0 0)
(0 0 0)
(0 0 0)
(0 0 0)
(0 0 0)
(0 0 0)
(0 0 0)
(0 0 0)
(0 0 0)
(0 0 0)
(0 0 0)
(0 0 0)
(0 0 0)
(0 0 0)
(0 0 0)
(0 0 0)
(0 0 0)
(0 0 0)
(0 0 0)
(0 0 0)
(0 0 0)
(0 0 0)
(0 0 0)
(0 0 0)
(0 0 0)
(0 0 0)
(0 0 0)
(0 0 0)
(0 0 0)
(0 0 0)
(0 0 0)
(0 0 0)
(0 0 0)
(0 0 0)
(0 0 0)
(0 0 0)
(0 0 0)
(0 0 0)
(0 0 0)
(0 0 0)
(0 0 0)
(0 0 0)
(0 0 0)
(0 0 0)
(0 0 0)
(0 0 0)
(0 0 0)
(0 0 0)
(0 0 0)
(0 0 0)
(0 0 0)
(0 0 0)
(0 0 0)
(0 0 0)
(0 0 0)
(0 0 0)
(0 0 0)
(0 0 0)
(0 0 0)
(0 0 0)
(0 0 0)
(0 0 0)
(0 0 0)
(0 0 0)
(0 0 0)
(0 0 0)
(0 0 0)
(0 0 0)
(0 0 0)
(0 0 0)
(0 0 0)
(0 0 0)
(0 0 0)
(0 0 0)
(0 0 0)
(0 0 0)
(0 0 0)
(0 0 0)
(0 0 0)
(0 0 0)
(0 0 0)
(0 0 0)
(0 0 0)
(0 0 0)
(0 0 0)
(0 0 0)
(0 0 0)
(0 0 0)
(0 0 0)
(0 0 0)
(0 0 0)
(0 0 0)
(0 0 0)
(0 0 0)
(0 0 0)
(0 0 0)
(-0 -0.0565587 -0)
(-0 -0.0565587 -0)
(-0 -0.0565587 -0)
(-0 -0.0565587 -0)
(-0 -0.0565587 -0)
(-0 -0.0565587 -0)
(-0 -0.0565587 -0)
(-0 -0.0565587 -0)
(-0 -0.0565587 -0)
(-0 -0.0565587 -0)
(-0 -0.0565587 -0)
(-0 -0.0565587 -0)
(-0 -0.0565587 -0)
(-0 -0.0565587 -0)
(-0 -0.0565587 -0)
(-0 -0.0565587 -0)
(-0 -0.0565587 -0)
(-0 -0.0565587 -0)
(-0 -0.0565587 -0)
(-0 -0.0565587 -0)
(-0 -0.0565587 -0)
(-0 -0.0565587 -0)
(-0 -0.0565587 -0)
(-0 -0.0565587 -0)
(-0 -0.0565587 -0)
(-0 -0.0565587 -0)
(-0 -0.0565587 -0)
(-0 -0.0565587 -0)
(-0 -0.0565587 -0)
(0 -0.00190581 0)
(0 -0.0565586 0)
(0 -0.0565587 0)
(0 -0.0565586 0)
(0 -0.00238887 0)
(0 -0.0010716 0)
(0 -0.00077869 0)
(0 -0.00138562 0)
(0 -0.00306921 0)
(0 -0.000554586 0)
(0 -0.00333411 0)
(0 -0.000389422 0)
(0 -0.00356561 0)
(0 -0.00399352 0)
(0 -0.000379018 0)
(0 -0.0565586 0)
(0 -0.000339194 0)
(0 -0.000297032 0)
(0 -0.00028723 0)
(0 -0.00022232 0)
(0 -0.000200535 0)
(0 -0.00169457 0)
(0 -0.00137606 0)
(0 -0.000914048 0)
(0 -0.0565586 0)
(0 -0.0565586 0)
(0 -0.000129477 0)
(0 -0.000127025 0)
(0 -0.00360558 0)
(0 -0.00385368 0)
(0 -0.00347277 0)
(0 -0.00287488 0)
(0 -0.00200456 0)
(0 -0.000515995 0)
(0 -0.000659458 0)
(0 -0.000373655 0)
(0 -0.000365559 0)
(0 -0.000351022 0)
(0 -0.0565585 0)
(0 -8.2744e-05 0)
(0 -6.77615e-05 0)
(0 -0.00373764 0)
(0 -0.00255678 0)
(0 -0.00205158 0)
(0 -0.00179706 0)
(0 -0.00182979 0)
(0 -0.00128582 0)
(0 -0.00107681 0)
(0 -0.00100897 0)
(0 -0.000875453 0)
(0 -0.000165629 0)
(0 -0.000364165 0)
(0 -0.000612503 0)
(0 -0.000422586 0)
(0 -0.000169737 0)
(0 -0.000202743 0)
(0 -0.000266499 0)
(0 -0.000524168 0)
(0 -2.76716e-05 0)
(0 -0.0530365 0)
(0 -0.0526757 0)
(0 -0.0528916 0)
(0 -0.0525221 0)
(0 -0.0527426 0)
(0 -0.0530961 0)
(0 -0.0529487 0)
(0 -0.0525887 0)
(0 -0.0527977 0)
(0 -0.0531406 0)
(0 -0.0529925 0)
(0 -0.0526403 0)
(0 -0.0528386 0)
(0 -0.0524765 0)
(0 -0.0526786 0)
(0 -0.0530219 0)
(0 -0.0528704 0)
(0 -0.0525123 0)
(0 -0.0527079 0)
(0 -0.053093 0)
(0 -0.052887 0)
(0 -0.0525321 0)
(0 -0.0527119 0)
(0 -0.0530431 0)
(0 -0.0528771 0)
(0 -0.0531905 0)
(0 -0.0530297 0)
(0 -0.0527066 0)
(0 -0.0528635 0)
(0 -0.0531717 0)
(0 -0.0530083 0)
(0 -0.0533048 0)
(0 -0.0531414 0)
(0 -0.0534286 0)
(0 -0.0532654 0)
(0 -0.052967 0)
(0 -0.0530928 0)
(0 -0.0533828 0)
(0 -0.0532111 0)
(0 -0.0534938 0)
(0 -0.0533204 0)
(0 -0.0536009 0)
(0 -0.0534199 0)
(0 -0.0536876 0)
(0 -0.0535093 0)
(0 -0.053756 0)
(0 -0.0535926 0)
(0 -0.0538206 0)
(0 -0.0536582 0)
(0 -0.0538818 0)
(0 -0.0537075 0)
(0 -0.0539383 0)
(0 -0.0537566 0)
(0 -0.0539837 0)
(0 -0.0538003 0)
(0 -0.0540204 0)
(0 -0.0538342 0)
(0 -0.0540494 0)
(0 -0.0538589 0)
(0 -0.0540723 0)
(0 -0.0538737 0)
(0 -0.0540849 0)
(0 -0.0538757 0)
(0 -0.0540874 0)
(0 -0.0538676 0)
(0 -0.0540819 0)
(0 -0.0538544 0)
(0 -0.0540674 0)
(0 -0.0538386 0)
(0 -0.0540465 0)
(0 -0.0538174 0)
(0 -0.0540195 0)
(0 -0.0537823 0)
(0 -0.0539739 0)
(0 -0.0537316 0)
(0 -0.0539129 0)
(0 -0.0536703 0)
(0 -0.0538493 0)
(0 -0.0535992 0)
(0 -0.0537772 0)
(0 -0.0535161 0)
(0 -0.0536928 0)
(0 -0.0534263 0)
(0 -0.0535994 0)
(0 -0.0533272 0)
(0 -0.0534889 0)
(0 -0.0532166 0)
(0 -0.0533648 0)
(0 -0.0530884 0)
(0 -0.0532344 0)
(0 -0.0529469 0)
(0 -0.0530924 0)
(0 -0.0527978 0)
(0 -0.0529344 0)
(0 -0.0526319 0)
(0 -0.0524889 0)
(0 -0.0523169 0)
(0 -0.0533084 0)
(0 -0.0536177 0)
(0 -0.0534732 0)
(0 -0.0527825 0)
(0 -0.0521659 0)
(0 -0.0519881 0)
(0 -0.0527607 0)
(0 -0.0518266 0)
(0 -0.0516433 0)
(0 -0.0514668 0)
(0 -0.0512737 0)
(0 -0.0510857 0)
(0 -0.0508864 0)
(0 -0.0506871 0)
(0 -0.0504819 0)
(0 -0.0502713 0)
(0 -0.0500598 0)
(0 -0.0502636 0)
(0 -0.0498325 0)
(0 -0.0500262 0)
(0 -0.0495864 0)
(0 -0.0493887 0)
(0 -0.0491324 0)
(0 -0.0497672 0)
(0 -0.0489276 0)
(0 -0.0486608 0)
(0 -0.0484462 0)
(0 -0.0481704 0)
(0 -0.0479414 0)
(0 -0.047661 0)
(0 -0.0474118 0)
(0 -0.0471333 0)
(0 -0.0468683 0)
(0 -0.0465875 0)
(0 -0.0463107 0)
(0 -0.0460251 0)
(0 -0.0462904 0)
(0 -0.0457234 0)
(0 -0.0459853 0)
(0 -0.0454033 0)
(0 -0.0456467 0)
(0 -0.0450639 0)
(0 -0.0448221 0)
(0 -0.0444782 0)
(0 -0.0442234 0)
(0 -0.0438749 0)
(0 -0.0452844 0)
(0 -0.0436117 0)
(0 -0.043259 0)
(0 -0.0429836 0)
(0 -0.0426298 0)
(0 -0.0423391 0)
(0 -0.041985 0)
(0 -0.0416813 0)
(0 -0.0413279 0)
(0 -0.0416127 0)
(0 -0.0409528 0)
(0 -0.0412177 0)
(0 -0.0405589 0)
(0 -0.0402828 0)
(0 -0.0398901 0)
(0 -0.0395957 0)
(0 -0.0391736 0)
(0 -0.0389054 0)
(0 -0.0385011 0)
(0 -0.0401207 0)
(0 -0.0382182 0)
(0 -0.037831 0)
(0 -0.0375161 0)
(0 -0.0371334 0)
(0 -0.0368065 0)
(0 -0.0364258 0)
(0 -0.0530569 0)
(0 -0.036089 0)
(0 -0.0357117 0)
(0 -0.0360248 0)
(0 -0.0353129 0)
(0 -0.0355991 0)
(0 -0.0348926 0)
(0 -0.0345996 0)
(0 -0.0341908 0)
(0 -0.0338847 0)
(0 -0.0334878 0)
(0 -0.0344621 0)
(0 -0.0331658 0)
(0 -0.0327717 0)
(0 -0.0324409 0)
(0 -0.0320455 0)
(0 -0.0317132 0)
(0 -0.0313225 0)
(0 -0.0309848 0)
(0 -0.0306021 0)
(0 -0.0302576 0)
(0 -0.0298846 0)
(0 -0.0302011 0)
(0 -0.0294918 0)
(0 -0.0297806 0)
(0 -0.0290801 0)
(0 -0.0287868 0)
(0 -0.0283826 0)
(0 -0.0286515 0)
(0 -0.0279628 0)
(0 -0.0276886 0)
(0 -0.0272788 0)
(0 -0.0269983 0)
(0 -0.0265983 0)
(0 -0.0263116 0)
(0 -0.0259219 0)
(0 -0.0261826 0)
(0 -0.0255164 0)
(0 -0.0252508 0)
(0 -0.0248556 0)
(0 -0.0245857 0)
(0 -0.0242004 0)
(0 -0.0239262 0)
(0 -0.0235512 0)
(0 -0.0237999 0)
(0 -0.023161 0)
(0 -0.0229078 0)
(0 -0.0225281 0)
(0 -0.0222709 0)
(0 -0.0219014 0)
(0 -0.0216402 0)
(0 -0.0212813 0)
(0 -0.021518 0)
(0 -0.0209082 0)
(0 -0.0206681 0)
(0 -0.0203057 0)
(0 -0.0200625 0)
(0 -0.0197104 0)
(0 -0.019464 0)
(0 -0.0191218 0)
(0 -0.0193458 0)
(0 -0.0187659 0)
(0 -0.0185402 0)
(0 -0.0181942 0)
(0 -0.0179654 0)
(0 -0.0176302 0)
(0 -0.0528748 0)
(0 -0.0531625 0)
(0 -0.0529761 0)
(0 -0.0532582 0)
(0 -0.0173985 0)
(0 -0.0170756 0)
(0 -0.0172835 0)
(0 -0.0167412 0)
(0 -0.0165317 0)
(0 -0.0169186 0)
(0 -0.0163902 0)
(0 -0.016529 0)
(0 -0.016024 0)
(0 -0.0539265 0)
(0 -0.0465785 0)
(0 -0.0306153 0)
(0 -0.0364476 0)
(0 -0.0540129 0)
(0 -0.0541968 0)
(0 -0.0542576 0)
(0 -0.0420147 0)
(0 -0.0562097 0)
(0 -0.0562419 0)
(0 -0.0561987 0)
(0 -0.0562316 0)
(0 -0.0561871 0)
(0 -0.0562204 0)
(0 -0.0562616 0)
(0 -0.0562505 0)
(0 -0.0562087 0)
(0 -0.0562393 0)
(0 -0.0561964 0)
(0 -0.0562274 0)
(0 -0.0562864 0)
(0 -0.0561828 0)
(0 -0.0562144 0)
(0 -0.0561676 0)
(0 -0.0562 0)
(0 -0.056151 0)
(0 -0.0561841 0)
(0 -0.0562303 0)
(0 -0.0562151 0)
(0 -0.0562583 0)
(0 -0.0562436 0)
(0 -0.056284 0)
(0 -0.0562698 0)
(0 -0.0562277 0)
(0 -0.0562545 0)
(0 -0.0563079 0)
(0 -0.0562099 0)
(0 -0.0562373 0)
(0 -0.0561157 0)
(0 -0.0561898 0)
(0 -0.0562177 0)
(0 -0.0561671 0)
(0 -0.0561958 0)
(0 -0.0562438 0)
(0 -0.0562219 0)
(0 -0.0562668 0)
(0 -0.0562452 0)
(0 -0.056287 0)
(0 -0.0562659 0)
(0 -0.0563052 0)
(0 -0.0562843 0)
(0 -0.0563223 0)
(0 -0.0563011 0)
(0 -0.0563383 0)
(0 -0.0563168 0)
(0 -0.0563523 0)
(0 -0.0563298 0)
(0 -0.0563629 0)
(0 -0.0563353 0)
(0 -0.0563715 0)
(0 -0.0563479 0)
(0 -0.0563797 0)
(0 -0.0563546 0)
(0 -0.0563857 0)
(0 -0.0563599 0)
(0 -0.0563895 0)
(0 -0.056363 0)
(0 -0.0563919 0)
(0 -0.0563653 0)
(0 -0.0563929 0)
(0 -0.0563663 0)
(0 -0.0563923 0)
(0 -0.0563645 0)
(0 -0.0563897 0)
(0 -0.0563607 0)
(0 -0.0563855 0)
(0 -0.0563552 0)
(0 -0.0563794 0)
(0 -0.056348 0)
(0 -0.0563713 0)
(0 -0.0563392 0)
(0 -0.056361 0)
(0 -0.0563275 0)
(0 -0.0563484 0)
(0 -0.056312 0)
(0 -0.0563332 0)
(0 -0.056294 0)
(0 -0.0563161 0)
(0 -0.0563195 0)
(0 -0.0563357 0)
(0 -0.0562749 0)
(0 -0.0562929 0)
(0 -0.0562589 0)
(0 -0.0563728 0)
(0 -0.0561419 0)
(0 -0.0504683 0)
(0 -0.0563692 0)
(0 -0.0536425 0)
(0 -0.0564119 0)
(0 -0.0564079 0)
(0 -0.0561107 0)
(0 -0.0560825 0)
(0 -0.0560485 0)
(0 -0.0560183 0)
(0 -0.0559793 0)
(0 -0.055947 0)
(0 -0.0559041 0)
(0 -0.0558681 0)
(0 -0.0558232 0)
(0 -0.0557824 0)
(0 -0.0557376 0)
(0 -0.0558278 0)
(0 -0.055737 0)
(0 -0.0557843 0)
(0 -0.0556881 0)
(0 -0.0557361 0)
(0 -0.055635 0)
(0 -0.0556827 0)
(0 -0.0458487 0)
(0 -0.0454789 0)
(0 -0.0555771 0)
(0 -0.0556243 0)
(0 -0.0555259 0)
(0 -0.056417 0)
(0 -0.0542753 0)
(0 -0.0535812 0)
(0 -0.0537809 0)
(0 -0.0530319 0)
(0 -0.0266854 0)
(0 -0.0177108 0)
(0 -0.0155005 0)
(0 -0.0197933 0)
(0 -0.0219853 0)
(0 -0.0282059 0)
(0 -0.0233876 0)
(0 -0.0211209 0)
(0 -0.0328169 0)
(0 -0.0460107 0)
(0 -0.0462609 0)
(0 -0.0456799 0)
(0 -0.0459096 0)
(0 -0.0453168 0)
(0 -0.0455236 0)
(0 -0.0449061 0)
(0 -0.0451033 0)
(0 -0.0444781 0)
(0 -0.0446386 0)
(0 -0.0439952 0)
(0 -0.0441271 0)
(0 -0.0434425 0)
(0 -0.0435985 0)
(0 -0.0428863 0)
(0 -0.0430672 0)
(0 -0.0422787 0)
(0 -0.0423345 0)
(0 -0.0416155 0)
(0 -0.041661 0)
(0 -0.0409243 0)
(0 -0.0409655 0)
(0 -0.0402083 0)
(0 -0.041686 0)
(0 -0.0409713 0)
(0 -0.0416928 0)
(0 -0.040943 0)
(0 -0.04168 0)
(0 -0.0408981 0)
(0 -0.041629 0)
(0 -0.040809 0)
(0 -0.0415432 0)
(0 -0.0406863 0)
(0 -0.0398396 0)
(0 -0.0414321 0)
(0 -0.0405315 0)
(0 -0.0412751 0)
(0 -0.0403228 0)
(0 -0.0410739 0)
(0 -0.040099 0)
(0 -0.0408506 0)
(0 -0.0398386 0)
(0 -0.0405935 0)
(0 -0.039538 0)
(0 -0.0403017 0)
(0 -0.0387642 0)
(0 -0.0418178 0)
(0 -0.0392003 0)
(0 -0.0399674 0)
(0 -0.0388201 0)
(0 -0.0395915 0)
(0 -0.0407126 0)
(0 -0.0403395 0)
(0 -0.0414254 0)
(0 -0.0410602 0)
(0 -0.0399419 0)
(0 -0.0406662 0)
(0 -0.0421118 0)
(0 -0.0395083 0)
(0 -0.0402328 0)
(0 -0.0390261 0)
(0 -0.0397553 0)
(0 -0.0384936 0)
(0 -0.0392347 0)
(0 -0.0404684 0)
(0 -0.0399563 0)
(0 -0.0411564 0)
(0 -0.0406492 0)
(0 -0.039406 0)
(0 -0.040102 0)
(0 -0.041809 0)
(0 -0.0388125 0)
(0 -0.0395151 0)
(0 -0.0423553 0)
(0 -0.0401584 0)
(0 -0.0394274 0)
(0 -0.0393939 0)
(0 -0.0386325 0)
(0 -0.0381557 0)
(0 -0.0388753 0)
(0 -0.0386164 0)
(0 -0.0378289 0)
(0 -0.0378211 0)
(0 -0.037018 0)
(0 -0.0370173 0)
(0 -0.0361985 0)
(0 -0.0362047 0)
(0 -0.0353732 0)
(0 -0.0353318 0)
(0 -0.0344938 0)
(0 -0.0344148 0)
(0 -0.0335632 0)
(0 -0.0334432 0)
(0 -0.032579 0)
(0 -0.032712 0)
(0 -0.031713 0)
(0 -0.0318557 0)
(0 -0.030828 0)
(0 -0.0309955 0)
(0 -0.0299509 0)
(0 -0.0301383 0)
(0 -0.0290913 0)
(0 -0.0292808 0)
(0 -0.0282282 0)
(0 -0.0284248 0)
(0 -0.0273679 0)
(0 -0.0275709 0)
(0 -0.0265141 0)
(0 -0.0267205 0)
(0 -0.0256664 0)
(0 -0.0258811 0)
(0 -0.0324011 0)
(0 -0.0248226 0)
(0 -0.0250419 0)
(0 -0.0239882 0)
(0 -0.024176 0)
(0 -0.0231689 0)
(0 -0.0233625 0)
(0 -0.028848 0)
(0 -0.0223643 0)
(0 -0.0225871 0)
(0 -0.0215593 0)
(0 -0.0218095 0)
(0 -0.0207707 0)
(0 -0.0210185 0)
(0 -0.0199889 0)
(0 -0.0202421 0)
(0 -0.0192212 0)
(0 -0.0194781 0)
(0 -0.0253987 0)
(0 -0.0184623 0)
(0 -0.0187275 0)
(0 -0.0196887 0)
(0 -0.018942 0)
(0 -0.017995 0)
(0 -0.0182118 0)
(0 -0.0172751 0)
(0 -0.0174963 0)
(0 -0.0183943 0)
(0 -0.0176846 0)
(0 -0.0167968 0)
(0 -0.0169895 0)
(0 -0.0161117 0)
(0 -0.016307 0)
(0 -0.0154402 0)
(0 -0.0156379 0)
(0 -0.0147824 0)
(0 -0.0149836 0)
(0 -0.0158039 0)
(0 -0.0151538 0)
(0 -0.0143447 0)
(0 -0.0145192 0)
(0 -0.0137219 0)
(0 -0.0139007 0)
(0 -0.013116 0)
(0 -0.0132983 0)
(0 -0.0140492 0)
(0 -0.0134486 0)
(0 -0.0127122 0)
(0 -0.0128643 0)
(0 -0.0121416 0)
(0 -0.0122965 0)
(0 -0.0115862 0)
(0 -0.0117435 0)
(0 -0.0124209 0)
(0 -0.0118685 0)
(0 -0.0112056 0)
(0 -0.0113367 0)
(0 -0.0106857 0)
(0 -0.0108098 0)
(0 -0.0114368 0)
(0 -0.0109124 0)
(0 -0.0101981 0)
(0 -0.0104064 0)
(0 -0.0109945 0)
(0 -0.0105023 0)
(0 -0.00995724 0)
(0 -0.0100195 0)
(0 -0.0105303 0)
(0 -0.0100638 0)
(0 -0.00954427 0)
(0 -0.00959849 0)
(0 -0.0100982 0)
(0 -0.00963457 0)
(0 -0.0101043 0)
(0 -0.00964464 0)
(0 -0.00917394 0)
(0 -0.00918889 0)
(0 -0.00963295 0)
(0 -0.00918184 0)
(0 -0.00959547 0)
(0 -0.0091522 0)
(0 -0.00873585 0)
(0 -0.00871073 0)
(0 -0.00910631 0)
(0 -0.00866724 0)
(0 -0.00904563 0)
(0 -0.00860479 0)
(0 -0.00823079 0)
(0 -0.00816869 0)
(0 -0.00852566 0)
(0 -0.00809307 0)
(0 -0.00773827 0)
(0 -0.00843083 0)
(0 -0.00800131 0)
(0 -0.0083206 0)
(0 -0.00789561 0)
(0 -0.0081954 0)
(0 -0.00777182 0)
(0 -0.00805478 0)
(0 -0.00762814 0)
(0 -0.00790639 0)
(0 -0.00746525 0)
(0 -0.00719522 0)
(0 -0.00773582 0)
(0 -0.00729444 0)
(0 -0.00754608 0)
(0 -0.00711648 0)
(0 -0.00734753 0)
(0 -0.00691814 0)
(0 -0.0071334 0)
(0 -0.0079829 0)
(0 -0.00862765 0)
(0 -0.00669921 0)
(0 -0.0069069 0)
(0 -0.00648593 0)
(0 -0.0185456 0)
(0 -0.0220819 0)
(0 -0.00647441 0)
(0 -0.00667247 0)
(0 -0.00710159 0)
(0 -0.0068555 0)
(0 -0.00728423 0)
(0 -0.00702618 0)
(0 -0.0229586 0)
(0 -0.0066006 0)
(0 -0.00675972 0)
(0 -0.0374376 0)
(0 -0.0381762 0)
(0 -0.0395789 0)
(0 -0.0388913 0)
(0 -0.0402485 0)
(0 -0.0395743 0)
(0 -0.0408859 0)
(0 -0.0402242 0)
(0 -0.0415069 0)
(0 -0.0408425 0)
(0 -0.0395074 0)
(0 -0.0401358 0)
(0 -0.0414037 0)
(0 -0.0407619 0)
(0 -0.0393935 0)
(0 -0.0400272 0)
(0 -0.041375 0)
(0 -0.0406421 0)
(0 -0.0392437 0)
(0 -0.0398704 0)
(0 -0.0412354 0)
(0 -0.0404763 0)
(0 -0.0418052 0)
(0 -0.0410582 0)
(0 -0.0396681 0)
(0 -0.0402627 0)
(0 -0.0416218 0)
(0 -0.0408423 0)
(0 -0.0394176 0)
(0 -0.0400155 0)
(0 -0.0414047 0)
(0 -0.0405916 0)
(0 -0.0419433 0)
(0 -0.0411428 0)
(0 -0.0397312 0)
(0 -0.0402938 0)
(0 -0.041697 0)
(0 -0.0408493 0)
(0 -0.0394071 0)
(0 -0.00633637 0)
(0 -0.00648527 0)
(0 -0.027714 0)
(0 -0.0366678 0)
(0 -0.0359047 0)
(0 -0.0188946 0)
(0 -0.00745526 0)
(0 -0.0452691 0)
(0 -0.00606374 0)
(0 -0.00620328 0)
(0 -0.0145502 0)
(0 -0.0350526 0)
(0 -0.0342714 0)
(0 -0.00578357 0)
(0 -0.00591455 0)
(0 -0.00633268 0)
(0 -0.00564332 0)
(0 -0.0377414 0)
(0 -0.0333288 0)
(0 -0.0325246 0)
(0 -0.0311294 0)
(0 -0.0369885 0)
(0 -0.0314948 0)
(0 -0.0306563 0)
(0 -0.0251589 0)
(0 -0.0113999 0)
(0 -0.0141672 0)
(0 -0.0385869 0)
(0 -0.0531495 0)
(0 -0.0554637 0)
(0 -0.0554084 0)
(0 -0.0535667 0)
(0 -0.0522879 0)
(0 -0.0563203 0)
(0 -0.0563419 0)
(0 -0.056353 0)
(0 -0.0563723 0)
(0 -0.0563822 0)
(0 -0.0563992 0)
(0 -0.0564075 0)
(0 -0.0564225 0)
(0 -0.0564298 0)
(0 -0.0564431 0)
(0 -0.0564494 0)
(0 -0.056461 0)
(0 -0.0564664 0)
(0 -0.0564766 0)
(0 -0.0564811 0)
(0 -0.0564901 0)
(0 -0.056494 0)
(0 -0.0565019 0)
(0 -0.056505 0)
(0 -0.0564975 0)
(0 -0.0565079 0)
(0 -0.0565007 0)
(0 -0.0565101 0)
(0 -0.0565036 0)
(0 -0.0565125 0)
(0 -0.0565063 0)
(0 -0.0565151 0)
(0 -0.0565088 0)
(0 -0.0565172 0)
(0 -0.0565109 0)
(0 -0.0565191 0)
(0 -0.0565128 0)
(0 -0.0565207 0)
(0 -0.0565147 0)
(0 -0.0565222 0)
(0 -0.0565119 0)
(0 -0.0565091 0)
(0 -0.0565262 0)
(0 -0.0565182 0)
(0 -0.0565159 0)
(0 -0.0565237 0)
(0 -0.0565212 0)
(0 -0.0565286 0)
(0 -0.0565259 0)
(0 -0.0565329 0)
(0 -0.0565308 0)
(0 -0.0565349 0)
(0 -0.0565386 0)
(0 -0.0565401 0)
(0 -0.0565232 0)
(0 -0.0565285 0)
(0 -0.0565431 0)
(0 -0.0565443 0)
(0 -0.0565205 0)
(0 -0.0565258 0)
(0 -0.0565469 0)
(0 -0.0565478 0)
(0 -0.0564377 0)
(0 -0.0564998 0)
(0 -0.0561509 0)
(0 -0.0557755 0)
(0 -0.055686 0)
(0 -0.0557246 0)
(0 -0.055628 0)
(0 -0.0556689 0)
(0 -0.0555706 0)
(0 -0.0556072 0)
(0 -0.0555054 0)
(0 -0.055539 0)
(0 -0.0554248 0)
(0 -0.0554643 0)
(0 -0.0553395 0)
(0 -0.0553834 0)
(0 -0.0554034 0)
(0 -0.0552521 0)
(0 -0.0552966 0)
(0 -0.0551578 0)
(0 -0.0552031 0)
(0 -0.0553375 0)
(0 -0.0552453 0)
(0 -0.0565174 0)
(0 -0.0565227 0)
(0 -0.0565304 0)
(0 -0.0565275 0)
(0 -0.0565344 0)
(0 -0.0565315 0)
(0 -0.0565379 0)
(0 -0.056535 0)
(0 -0.0565409 0)
(0 -0.056538 0)
(0 -0.0563219 0)
(0 -0.0565499 0)
(0 -0.0565505 0)
(0 -0.0565486 0)
(0 -0.0565511 0)
(0 -0.0553745 0)
(0 -0.0552844 0)
(0 -0.0565277 0)
(0 -0.0295508 0)
(0 -0.0286928 0)
(0 -0.0303977 0)
(0 -0.042717 0)
(0 -0.0554102 0)
(0 -0.0553208 0)
(0 -0.0554458 0)
(0 -0.055355 0)
(0 -0.0552209 0)
(0 -0.0552559 0)
(0 -0.0551001 0)
(0 -0.0553876 0)
(0 -0.0552895 0)
(0 -0.0554192 0)
(0 -0.0553217 0)
(0 -0.0565493 0)
(0 -0.0565517 0)
(0 -0.0565432 0)
(0 -0.0565404 0)
(0 -0.0565499 0)
(0 -0.0565521 0)
(0 -0.0565536 0)
(0 -0.0565539 0)
(0 -0.0565526 0)
(0 -0.0565542 0)
(0 -0.056553 0)
(0 -0.0565545 0)
(0 -0.0565534 0)
(0 -0.0565548 0)
(0 -0.0565537 0)
(0 -0.056555 0)
(0 -0.0565539 0)
(0 -0.0565552 0)
(0 -0.0565542 0)
(0 -0.0565554 0)
(0 -0.0565544 0)
(0 -0.0565556 0)
(0 -0.0565546 0)
(0 -0.0565522 0)
(0 -0.0564371 0)
(0 -0.0551125 0)
(0 -0.0551075 0)
(0 -0.0332897 0)
(0 -0.0322055 0)
(0 -0.0421131 0)
(0 -0.0565462 0)
(0 -0.0557261 0)
(0 -0.0556668 0)
(0 -0.055765 0)
(0 -0.0557053 0)
(0 -0.0556022 0)
(0 -0.0556406 0)
(0 -0.0557407 0)
(0 -0.0556754 0)
(0 -0.055773 0)
(0 -0.0557052 0)
(0 -0.0557997 0)
(0 -0.05573 0)
(0 -0.0558206 0)
(0 -0.0557503 0)
(0 -0.0558378 0)
(0 -0.055766 0)
(0 -0.0558507 0)
(0 -0.0557774 0)
(0 -0.0556872 0)
(0 -0.0556976 0)
(0 -0.0557852 0)
(0 -0.0557038 0)
(0 -0.0557896 0)
(0 -0.0557058 0)
(0 -0.05579 0)
(0 -0.0557031 0)
(0 -0.0557852 0)
(0 -0.0556951 0)
(0 -0.0557755 0)
(0 -0.0556823 0)
(0 -0.0555962 0)
(0 -0.0555803 0)
(0 -0.0556655 0)
(0 -0.0555586 0)
(0 -0.0556447 0)
(0 -0.0555316 0)
(0 -0.055622 0)
(0 -0.0555023 0)
(0 -0.0555913 0)
(0 -0.0554666 0)
(0 -0.0555472 0)
(0 -0.0554231 0)
(0 -0.0555014 0)
(0 -0.0553719 0)
(0 -0.055448 0)
(0 -0.0553102 0)
(0 -0.0556316 0)
(0 -0.0554873 0)
(0 -0.0552431 0)
(0 -0.0556018 0)
(0 -0.0565136 0)
(0 -0.056545 0)
(0 -0.0565424 0)
(0 -0.0565371 0)
(0 -0.0565391 0)
(0 -0.0565442 0)
(0 -0.0565408 0)
(0 -0.0565456 0)
(0 -0.0565421 0)
(0 -0.0565465 0)
(0 -0.0565431 0)
(0 -0.0565469 0)
(0 -0.0565433 0)
(0 -0.0565469 0)
(0 -0.0565427 0)
(0 -0.0565464 0)
(0 -0.056542 0)
(0 -0.0565457 0)
(0 -0.0565409 0)
(0 -0.0565447 0)
(0 -0.0565393 0)
(0 -0.0565437 0)
(0 -0.0565373 0)
(0 -0.0565369 0)
(0 -0.0565322 0)
(0 -0.0565384 0)
(0 -0.0330985 0)
(0 -0.0319864 0)
(0 -0.0328657 0)
(0 -0.0317044 0)
(0 -0.0325904 0)
(0 -0.031378 0)
(0 -0.0304819 0)
(0 -0.0301037 0)
(0 -0.0291968 0)
(0 -0.0287621 0)
(0 -0.0278472 0)
(0 -0.0273546 0)
(0 -0.026435 0)
(0 -0.0282783 0)
(0 -0.0268152 0)
(0 -0.0277406 0)
(0 -0.0262246 0)
(0 -0.0271486 0)
(0 -0.0255672 0)
(0 -0.0264937 0)
(0 -0.0248346 0)
(0 -0.0257723 0)
(0 -0.0239061 0)
(0 -0.0240407 0)
(0 -0.0249857 0)
(0 -0.0231803 0)
(0 -0.0241323 0)
(0 -0.0259321 0)
(0 -0.0250846 0)
(0 -0.0297992 0)
(0 -0.0277911 0)
(0 -0.0288951 0)
(0 -0.026834 0)
(0 -0.0278938 0)
(0 -0.0258744 0)
(0 -0.0269641 0)
(0 -0.0249308 0)
(0 -0.055341 0)
(0 -0.055281 0)
(0 -0.0565328 0)
(0 -0.0283584 0)
(0 -0.0292276 0)
(0 -0.0555325 0)
(0 -0.0553402 0)
(0 -0.0232173 0)
(0 -0.0551634 0)
(0 -0.0280819 0)
(0 -0.0268768 0)
(0 -0.0298785 0)
(0 -0.0302094 0)
(0 -0.0294632 0)
(0 -0.0297639 0)
(0 -0.0290114 0)
(0 -0.0292764 0)
(0 -0.0285236 0)
(0 -0.028752 0)
(0 -0.0279998 0)
(0 -0.0295084 0)
(0 -0.0281972 0)
(0 -0.0274388 0)
(0 -0.0276095 0)
(0 -0.0268431 0)
(0 -0.0266822 0)
(0 -0.026079 0)
(0 -0.0259303 0)
(0 -0.0253179 0)
(0 -0.0251824 0)
(0 -0.0245553 0)
(0 -0.0244379 0)
(0 -0.055091 0)
(0 -0.0361831 0)
(0 -0.0369304 0)
(0 -0.0361322 0)
(0 -0.0368446 0)
(0 -0.0360526 0)
(0 -0.051647 0)
(0 -0.0261247 0)
(0 -0.0239822 0)
(0 -0.0238097 0)
(0 -0.02371 0)
(0 -0.056555 0)
(0 -0.027075 0)
(0 -0.0279706 0)
(0 -0.0230904 0)
(0 -0.0229829 0)
(0 -0.0223751 0)
(0 -0.0222628 0)
(0 -0.0216669 0)
(0 -0.021569 0)
(0 -0.0367321 0)
(0 -0.0359438 0)
(0 -0.0209688 0)
(0 -0.0208736 0)
(0 -0.0374871 0)
(0 -0.0202735 0)
(0 -0.0201803 0)
(0 -0.046482 0)
(0 -0.0550051 0)
(0 -0.0565562 0)
(0 -0.0565557 0)
(0 -0.012907 0)
(0 -0.032352 0)
(0 -0.0381135 0)
(0 -0.0557291 0)
(0 -0.0487347 0)
(0 -0.0246385 0)
(0 -0.0565515 0)
(0 -0.0525307 0)
(0 -0.0256405 0)
(0 -0.0502006 0)
(0 -0.0499262 0)
(0 -0.0565518 0)
(0 -0.0565536 0)
(0 -0.0552079 0)
(0 -0.0551424 0)
(0 -0.0565533 0)
(0 -0.022132 0)
(0 -0.050353 0)
(0 -0.0558687 0)
(0 -0.0269823 0)
(0 -0.0277577 0)
(0 -0.0555385 0)
(0 -0.0256981 0)
(0 -0.0266127 0)
(0 -0.0438182 0)
(0 -0.0555266 0)
(0 -0.0565487 0)
(0 -0.0195871 0)
(0 -0.0194987 0)
(0 -0.0200655 0)
(0 -0.019398 0)
(0 -0.0549271 0)
(0 -0.0365967 0)
(0 -0.0358037 0)
(0 -0.0558877 0)
(0 -0.0565548 0)
(0 -0.0565545 0)
(0 -0.0548347 0)
(0 -0.0242854 0)
(0 -0.0260291 0)
(0 -0.0278117 0)
(0 -0.0189602 0)
(0 -0.0188173 0)
(0 -0.0187434 0)
(0 -0.0193579 0)
(0 -0.0186315 0)
(0 -0.0180913 0)
(0 -0.017986 0)
(0 -0.0174549 0)
(0 -0.0173569 0)
(0 -0.0168349 0)
(0 -0.0167395 0)
(0 -0.0162275 0)
(0 -0.0161342 0)
(0 -0.0166175 0)
(0 -0.0160197 0)
(0 -0.0155407 0)
(0 -0.0154333 0)
(0 -0.0149596 0)
(0 -0.014859 0)
(0 -0.0153075 0)
(0 -0.0147392 0)
(0 -0.0151633 0)
(0 -0.0146012 0)
(0 -0.0141821 0)
(0 -0.01405 0)
(0 -0.0144441 0)
(0 -0.0139004 0)
(0 -0.0142701 0)
(0 -0.0137336 0)
(0 -0.0140804 0)
(0 -0.0135503 0)
(0 -0.0132061 0)
(0 -0.0130304 0)
(0 -0.0133515 0)
(0 -0.01284 0)
(0 -0.0131386 0)
(0 -0.0126358 0)
(0 -0.0129148 0)
(0 -0.0124199 0)
(0 -0.0126818 0)
(0 -0.012193 0)
(0 -0.0124405 0)
(0 -0.0119558 0)
(0 -0.0121881 0)
(0 -0.0117053 0)
(0 -0.011916 0)
(0 -0.0114385 0)
(0 -0.0116297 0)
(0 -0.0111575 0)
(0 -0.011333 0)
(0 -0.0108675 0)
(0 -0.011028 0)
(0 -0.0105797 0)
(0 -0.0107083 0)
(0 -0.010215 0)
(0 -0.0112291 0)
(0 -0.0121396 0)
(0 -0.0103736 0)
(0 -0.0565526 0)
(0 -0.0126887 0)
(0 -0.0560542 0)
(0 -0.0565495 0)
(0 -0.0226926 0)
(0 -0.0217172 0)
(0 -0.0563224 0)
(0 -0.0500669 0)
(0 -0.0496364 0)
(0 -0.0242092 0)
(0 -0.0251621 0)
(0 -0.0232505 0)
(0 -0.0270969 0)
(0 -0.0278787 0)
(0 -0.0242913 0)
(0 -0.0556259 0)
(0 -0.0386346 0)
(0 -0.027496 0)
(0 -0.0261361 0)
(0 -0.00364705 0)
(0 -0.00322283 0)
(0 -0.00352191 0)
(0 -0.00309602 0)
(0 -0.00339171 0)
(0 -0.0565472 0)
(0 -0.056097 0)
(0 -0.0560579 0)
(0 -0.0136363 0)
(0 -0.0114874 0)
(0 -0.0442128 0)
(0 -0.0184712 0)
(0 -0.0565558 0)
(0 -0.0565555 0)
(0 -0.056556 0)
(0 -0.0550633 0)
(0 -0.0549918 0)
(0 -0.035142 0)
(0 -0.0349955 0)
(0 -0.0343335 0)
(0 -0.0342012 0)
(0 -0.033523 0)
(0 -0.0334012 0)
(0 -0.0340903 0)
(0 -0.0332105 0)
(0 -0.0325942 0)
(0 -0.0422745 0)
(0 -0.0428995 0)
(0 -0.0433129 0)
(0 -0.0439123 0)
(0 -0.0442899 0)
(0 -0.0448504 0)
(0 -0.0451944 0)
(0 -0.0457208 0)
(0 -0.0460194 0)
(0 -0.046529 0)
(0 -0.0467862 0)
(0 -0.0472788 0)
(0 -0.0475011 0)
(0 -0.0479751 0)
(0 -0.0481786 0)
(0 -0.0477533 0)
(0 -0.0477046 0)
(0 -0.0483594 0)
(0 -0.0478821 0)
(0 -0.0485196 0)
(0 -0.0480349 0)
(0 -0.0486634 0)
(0 -0.0481648 0)
(0 -0.0487723 0)
(0 -0.0482771 0)
(0 -0.0488572 0)
(0 -0.0483795 0)
(0 -0.0489364 0)
(0 -0.048457 0)
(0 -0.0489943 0)
(0 -0.0485076 0)
(0 -0.0490241 0)
(0 -0.0485342 0)
(0 -0.0490385 0)
(0 -0.0485441 0)
(0 -0.048976 0)
(0 -0.048421 0)
(0 -0.048205 0)
(0 -0.049333 0)
(0 -0.0490329 0)
(0 -0.048539 0)
(0 -0.0495105 0)
(0 -0.0488431 0)
(0 -0.0486331 0)
(0 -0.0494894 0)
(0 -0.0499497 0)
(0 -0.0492443 0)
(0 -0.0490359 0)
(0 -0.0499134 0)
(0 -0.048029 0)
(0 -0.0480259 0)
(0 -0.0478903 0)
(0 -0.0484078 0)
(0 -0.0488106 0)
(0 -0.0496216 0)
(0 -0.0498148 0)
(0 -0.0503546 0)
(0 -0.0503039 0)
(0 -0.0498614 0)
(0 -0.0503923 0)
(0 -0.0481579 0)
(0 -0.0485646 0)
(0 -0.0474931 0)
(0 -0.0474875 0)
(0 -0.0507774 0)
(0 -0.050818 0)
(0 -0.050172 0)
(0 -0.0503456 0)
(0 -0.051179 0)
(0 -0.0512151 0)
(0 -0.0478829 0)
(0 -0.0482958 0)
(0 -0.0489519 0)
(0 -0.0486909 0)
(0 -0.0480085 0)
(0 -0.0484037 0)
(0 -0.0493346 0)
(0 -0.0476989 0)
(0 -0.0480922 0)
(0 -0.0502387 0)
(0 -0.0497946 0)
(0 -0.0475056 0)
(0 -0.0506891 0)
(0 -0.0508375 0)
(0 -0.0473738 0)
(0 -0.0477723 0)
(0 -0.0484719 0)
(0 -0.0481504 0)
(0 -0.0488233 0)
(0 -0.0484941 0)
(0 -0.0491552 0)
(0 -0.0488255 0)
(0 -0.0481454 0)
(0 -0.0484847 0)
(0 -0.0491568 0)
(0 -0.048816 0)
(0 -0.0481323 0)
(0 -0.048466 0)
(0 -0.0491058 0)
(0 -0.0487773 0)
(0 -0.0481048 0)
(0 -0.0484386 0)
(0 -0.0490882 0)
(0 -0.0487712 0)
(0 -0.0480989 0)
(0 -0.0484069 0)
(0 -0.0491482 0)
(0 -0.0486859 0)
(0 -0.0230055 0)
(0 -0.0207332 0)
(0 -0.026941 0)
(0 -0.0255167 0)
(0 -0.0565076 0)
(0 -0.0565029 0)
(0 -0.0424368 0)
(0 -0.0260505 0)
(0 -0.0246022 0)
(0 -0.0251406 0)
(0 -0.0236981 0)
(0 -0.0231118 0)
(0 -0.022206 0)
(0 -0.021555 0)
(0 -0.0206509 0)
(0 -0.0199324 0)
(0 -0.0190332 0)
(0 -0.0197588 0)
(0 -0.0181473 0)
(0 -0.0188768 0)
(0 -0.0172672 0)
(0 -0.0180086 0)
(0 -0.0164068 0)
(0 -0.0171594 0)
(0 -0.0155699 0)
(0 -0.0163306 0)
(0 -0.014753 0)
(0 -0.0155169 0)
(0 -0.0182624 0)
(0 -0.0139571 0)
(0 -0.0147195 0)
(0 -0.0131836 0)
(0 -0.0139482 0)
(0 -0.0124373 0)
(0 -0.0132003 0)
(0 -0.0156147 0)
(0 -0.0117115 0)
(0 -0.0124706 0)
(0 -0.0110052 0)
(0 -0.0117603 0)
(0 -0.0178592 0)
(0 -0.0146526 0)
(0 -0.0242681 0)
(0 -0.0131412 0)
(0 -0.0103191 0)
(0 -0.0110707 0)
(0 -0.0469386 0)
(0 -0.0469312 0)
(0 -0.0478624 0)
(0 -0.0482561 0)
(0 -0.00296435 0)
(0 -0.00325555 0)
(0 -0.0257547 0)
(0 -0.00282788 0)
(0 -0.00311419 0)
(0 -0.0489626 0)
(0 -0.0485769 0)
(0 -0.0478284 0)
(0 -0.0481712 0)
(0 -0.0489048 0)
(0 -0.032444 0)
(0 -0.0329742 0)
(0 -0.0317942 0)
(0 -0.0235969 0)
(0 -0.0245631 0)
(0 -0.0270765 0)
(0 -0.0255078 0)
(0 -0.0279251 0)
(0 -0.0264264 0)
(0 -0.0238758 0)
(0 -0.0248383 0)
(0 -0.0273318 0)
(0 -0.0257811 0)
(0 -0.028219 0)
(0 -0.0266931 0)
(0 -0.0241433 0)
(0 -0.0250724 0)
(0 -0.0275789 0)
(0 -0.025986 0)
(0 -0.0550713 0)
(0 -0.0549144 0)
(0 -0.0364359 0)
(0 -0.0134119 0)
(0 -0.028439 0)
(0 -0.0268765 0)
(0 -0.0242966 0)
(0 -0.0252152 0)
(0 -0.027748 0)
(0 -0.0261241 0)
(0 -0.0322776 0)
(0 -0.054752 0)
(0 -0.054653 0)
(0 -0.054736 0)
(0 -0.00771633 0)
(0 -0.0555759 0)
(0 -0.0124573 0)
(0 -0.0117645 0)
(0 -0.0104038 0)
(0 -0.0110935 0)
(0 -0.00975753 0)
(0 -0.0104432 0)
(0 -0.00913222 0)
(0 -0.0098149 0)
(0 -0.0110782 0)
(0 -0.0104454 0)
(0 -0.00921177 0)
(0 -0.00983049 0)
(0 -0.00863274 0)
(0 -0.00925545 0)
(0 -0.0110342 0)
(0 -0.00807759 0)
(0 -0.00869992 0)
(0 -0.012676 0)
(0 -0.0334792 0)
(0 -0.0331735 0)
(0 -0.0224289 0)
(0 -0.0474686 0)
(0 -0.0469001 0)
(0 -0.0474244 0)
(0 -0.0393417 0)
(0 -0.0280741 0)
(0 -0.0159393 0)
(0 -0.0357194 0)
(0 -0.0445015 0)
(0 -0.0413444 0)
(0 -0.0416579 0)
(0 -0.040974 0)
(0 -0.0412676 0)
(0 -0.0468462 0)
(0 -0.0473456 0)
(0 -0.0549939 0)
(0 -0.05483 0)
(0 -0.0549089 0)
(0 -0.051558 0)
(0 -0.0515835 0)
(0 -0.0515159 0)
(0 -0.047044 0)
(0 -0.00754042 0)
(0 -0.0081447 0)
(0 -0.0092302 0)
(0 -0.00868622 0)
(0 -0.00760623 0)
(0 -0.00815108 0)
(0 -0.00708575 0)
(0 -0.00763917 0)
(0 -0.0565207 0)
(0 -0.0435133 0)
(0 -0.009176 0)
(0 -0.00663162 0)
(0 -0.00715945 0)
(0 -0.0501591 0)
(0 -0.0456292 0)
(0 -0.0565526 0)
(0 -0.00268722 0)
(0 -0.00296856 0)
(0 -0.00339169 0)
(0 -0.00324026 0)
(0 -0.00365974 0)
(0 -0.00350177 0)
(0 -0.00308532 0)
(0 -0.00334006 0)
(0 -0.00375252 0)
(0 -0.00358322 0)
(0 -0.00317512 0)
(0 -0.00341058 0)
(0 -0.00300753 0)
(0 -0.00323522 0)
(0 -0.00363339 0)
(0 -0.00344956 0)
(0 -0.00384296 0)
(0 -0.00364995 0)
(0 -0.00326375 0)
(0 -0.0034548 0)
(0 -0.00383565 0)
(0 -0.00363068 0)
(0 -0.00325819 0)
(0 -0.00342446 0)
(0 -0.00379154 0)
(0 -0.00357483 0)
(0 -0.0039369 0)
(0 -0.00370871 0)
(0 -0.00406573 0)
(0 -0.00382565 0)
(0 -0.00347943 0)
(0 -0.00358439 0)
(0 -0.00392507 0)
(0 -0.00367144 0)
(0 -0.00334293 0)
(0 -0.00341789 0)
(0 -0.0037403 0)
(0 -0.00347457 0)
(0 -0.00379094 0)
(0 -0.00351237 0)
(0 -0.00382242 0)
(0 -0.00321009 0)
(0 -0.00353027 0)