/*--------------------------------*- C++ -*----------------------------------*\
| =========                 |                                                 |
| \\      /  F ield         | OpenFOAM: The Open Source CFD Toolbox           |
|  \\    /   O peration     | Version:  v2012                                 |
|   \\  /    A nd           | Website:  www.openfoam.com                      |
|    \\/     M anipulation  |                                                 |
\*---------------------------------------------------------------------------*/
FoamFile
{
    version     2.0;
    format      ascii;
    class       volScalarField;
    location    "50";
    object      ddt0(k);
}
// * * * * * * * * * * * * * * * * * * * * * * * * * * * * * * * * * * * * * //

dimensions      [0 2 -3 0 0 0 0];


internalField   nonuniform List<scalar> 
13917
(
0.000931394
-2.74642e-06
2.77804e-06
-3.42166e-09
1.70245e-06
-3.1176e-06
-1.31474e-07
0.0044256
-1.17499e-07
-0.00248412
0.000436179
-5.84934e-09
-2.40658e-08
-0.0104313
-1.77012e-06
0.000883054
4.12955e-07
-3.49892e-05
4.8215e-06
0.00302023
1.90869e-06
1.31822e-08
1.13453e-07
-6.96769e-10
1.12197e-07
2.72724e-06
-0.00010902
-0.000745379
8.78164e-06
1.15344e-07
0.000834517
1.01888e-06
2.43853e-08
0.000265452
-3.9294e-07
0.0145998
-7.0108e-08
-6.35774e-08
-1.26496e-07
-3.37045e-07
1.0014e-06
2.83465e-06
-9.48392e-08
1.8975e-06
2.56817e-06
0.00173403
1.54349e-06
-0.0169771
0.0121324
-4.11621e-07
2.66674e-09
1.41379e-06
0.00063321
-4.8299e-08
-1.35223e-08
1.59863e-06
0.000341281
1.1999e-07
2.54489e-06
-0.0144358
0.00310077
-1.75097e-05
5.61699e-08
9.98126e-08
-0.00926775
2.88898e-07
1.32471e-05
0.0138578
0.000264906
0.00100806
-0.00701792
0.000474731
-1.78991e-08
1.86995e-06
1.79678e-06
1.41709e-07
1.38088e-06
1.54916e-06
1.33215e-07
3.12026e-08
-3.68505e-08
-1.69088e-07
-5.84514e-09
-0.000455336
-2.42598e-08
-0.0131281
1.03883e-06
-2.22163e-08
-3.13481e-08
3.36138e-07
3.1494e-07
-9.39413e-08
0.00853493
-5.83762e-08
-7.30224e-08
1.2333e-05
-0.00074396
-1.78698e-06
-2.41454e-08
-2.23769e-05
8.53645e-07
7.57011e-07
-3.87721e-08
-1.00338e-06
8.09302e-07
0.00831806
-0.00109223
-3.50534e-05
3.19436e-06
0.000197064
-2.87097e-08
-1.91687e-05
8.17289e-06
-0.00847507
-0.00933868
1.85496e-07
5.10843e-06
7.56171e-07
1.47186e-06
2.7899e-08
-1.66859e-07
9.78496e-07
1.81204e-05
2.71384e-06
0.0011026
-0.00423959
8.07329e-08
1.78213e-06
1.05836e-08
3.32066e-06
-7.31644e-08
-6.58804e-05
0.00329874
1.6968e-07
1.27963e-06
3.63252e-05
0.010592
0.000589597
3.56451e-06
-6.29207e-08
-0.00730144
1.18139e-06
0.00856121
-9.39632e-08
-1.81627e-08
3.31378e-06
-0.00573574
-0.00378341
-0.00394833
-2.77698e-08
2.84821e-07
5.02151e-07
-1.28309e-08
2.21783e-08
-0.00084152
-4.99643e-07
-1.19499e-06
0.00375824
7.65272e-07
6.71641e-07
4.27388e-08
-0.00824981
-4.08868e-07
-0.00875682
-0.00201727
-2.58068e-05
0.00041473
0.00843662
-5.72717e-07
4.21179e-06
-1.05548e-08
-0.000483267
-1.21542e-07
0.0124016
-3.36433e-06
3.74831e-07
-8.55902e-09
1.63886e-06
-8.84478e-08
-2.41799e-07
-9.88771e-08
-4.97054e-08
7.44976e-09
-1.17796e-05
1.79504e-06
-0.000150452
2.24968e-08
-2.37318e-05
7.50096e-08
-0.010471
-3.57192e-06
2.98189e-06
4.52927e-06
0.001016
4.46876e-08
0.00114262
1.29557e-07
0.00477874
-3.70561e-07
-3.79603e-07
1.25195e-06
0.000981004
0.000502175
-2.75648e-07
0.000302294
4.82489e-06
9.22817e-08
1.20849e-06
3.32055e-06
-4.09075e-08
4.92217e-08
-4.1138e-06
-9.96063e-05
-0.0137003
1.24138e-06
2.68337e-06
-0.0065537
-6.07063e-08
-2.19705e-07
-1.31945e-07
0.00873197
3.11643e-06
0.000258646
-3.71602e-08
8.19978e-08
0.000399091
0.00103311
-2.35625e-07
-1.69214e-07
9.96621e-07
-1.04917e-07
-1.1716e-08
0.000560511
0.000495289
4.44505e-08
-7.43735e-07
-1.95012e-06
0.00086637
1.12638e-06
-3.61005e-08
-3.36875e-06
0.00902341
-2.87301e-06
-0.0062037
-3.46335e-06
-9.7431e-08
0.00559713
-1.50672e-06
6.27478e-06
3.63821e-06
-2.46362e-07
0.00110477
2.28458e-08
-1.29281e-06
-2.73314e-06
8.43355e-08
9.47163e-07
9.1748e-08
-1.55925e-06
-1.06758e-06
0.00109331
-0.00116189
4.01195e-07
-2.97294e-07
-4.93042e-07
-4.22276e-07
1.60634e-08
-1.02372e-08
-5.53215e-07
8.54356e-07
0.000372138
-0.00191535
1.17767e-07
-4.94248e-07
0.00674318
-2.45962e-07
-1.61537e-05
0.00102978
-2.64894e-07
0.0010327
-1.49234e-06
-0.00894505
4.2561e-07
-1.02211e-06
1.00375e-07
-3.67605e-08
5.05337e-06
-8.02975e-08
-3.4686e-05
1.39099e-07
-0.00159008
-4.29744e-06
-7.90882e-05
0.000397013
7.25643e-07
-3.95342e-07
-7.60475e-07
1.83079e-07
7.71266e-07
1.4175e-07
-3.46294e-07
-4.71094e-08
3.11875e-06
-0.000157256
-1.15735e-06
1.24287e-07
-2.8867e-08
0.00417142
0.000851062
5.7935e-09
4.18489e-06
2.03529e-07
0.00949536
-2.34097e-06
-0.00214212
0.0174848
1.07603e-07
1.36714e-05
-8.0437e-07
-0.00110254
0.00775296
2.11731e-06
-2.86888e-08
-1.57603e-06
-6.51192e-05
-1.40607e-07
2.45704e-06
3.50842e-06
3.49105e-07
-0.0010089
-2.70499e-08
-1.14487e-07
-2.84885e-07
0.0018464
9.29665e-09
-9.22709e-07
4.92274e-06
5.38395e-08
2.6588e-07
3.7178e-06
0.00520531
-6.58071e-08
-1.93374e-07
-0.000425424
0.00673985
-0.000664622
-0.0177757
-2.65183e-07
-1.49473e-09
0.00956072
-1.75393e-05
-2.58837e-07
-1.41399e-07
3.19239e-08
-1.11654e-07
-1.02687e-06
3.20123e-06
-5.08471e-06
-1.71808e-05
-1.67118e-09
0.000315856
2.13902e-08
-6.95167e-08
1.24798e-05
4.26951e-06
9.08635e-07
0.00108017
-5.44493e-08
0.000555727
-2.18656e-08
-7.07751e-07
4.01656e-06
0.00194663
2.50424e-06
8.04547e-05
0.00451829
5.81951e-06
1.0887e-07
-0.000188373
-3.09649e-07
0.00185108
6.11256e-06
2.4664e-06
0.00356984
2.83593e-07
5.55427e-05
-5.14168e-07
0.0024047
7.68026e-05
-2.51008e-08
0.00086402
-1.07593e-05
-2.15198e-07
7.20245e-05
8.50373e-07
-3.64425e-08
5.26126e-06
-1.76408e-08
-1.72772e-05
3.00247e-06
-2.55294e-08
-1.35942e-07
1.25352e-07
-6.45388e-08
-5.49637e-10
8.53425e-09
0.00924391
-1.3337e-05
-4.12291e-08
-1.26343e-08
-6.88152e-08
-1.11631e-06
0.0137638
-2.77846e-07
-5.85467e-07
-2.26016e-06
1.07244e-06
-5.54461e-08
-5.71034e-08
0.0205257
-0.032317
2.75196e-07
4.7077e-06
-6.55785e-05
4.21588e-07
7.4241e-08
1.8112e-06
-7.18085e-09
-3.59061e-08
4.06959e-08
1.07911e-07
2.72792e-07
0.000184084
-2.69011e-08
-8.02357e-07
0.000433019
-7.12986e-07
5.81616e-08
-2.12486e-08
-0.0010616
1.33944e-06
0.00102492
-4.10834e-07
-2.02225e-08
-3.29764e-07
1.59005e-07
-1.07173e-07
4.28426e-07
0.0181815
1.35099e-06
0.00987527
-6.96685e-09
-6.67733e-08
-3.16548e-07
-3.09464e-08
-2.86563e-06
0.00146696
5.1209e-08
-0.0361038
7.67222e-08
-1.57442e-08
-8.83032e-08
1.95299e-07
2.43992e-08
-1.85483e-08
0.00313396
0.00574674
2.3994e-08
-8.06784e-05
-1.41928e-06
-5.6937e-08
-9.8561e-07
-8.13802e-07
0.000616188
-1.31068e-07
0.00907515
0.000469032
0.000484251
3.75283e-07
1.8558e-07
-6.92774e-06
-2.51653e-07
-0.00831274
1.82538e-07
-4.77796e-08
-8.40159e-08
-1.26799e-07
1.18376e-06
1.55269e-06
1.07221e-06
1.06842e-05
-6.78726e-07
3.59271e-06
-2.62792e-06
-4.28189e-08
-0.00636746
-3.67863e-07
9.13056e-08
0.00640322
-2.99162e-08
-2.93976e-06
-2.62455e-06
-6.39084e-09
0.00223432
-1.84839e-08
2.01674e-07
-1.1157e-06
-4.22694e-07
-7.20171e-08
1.6954e-06
0.0056835
0.00099811
2.25738e-08
-4.16364e-08
-7.58438e-06
-0.00465705
0.0130153
-3.4125e-08
-2.23369e-08
1.33639e-08
-2.29889e-06
0.00389102
-2.08786e-08
9.4313e-07
-3.95123e-07
-6.73301e-08
-1.36109e-06
-1.20318e-07
4.01725e-07
1.02014e-06
-5.71745e-09
-3.79137e-09
1.12289e-07
-0.00141597
-7.48624e-07
-8.10551e-08
-4.46616e-07
-7.85481e-08
-1.41509e-06
5.06112e-08
-2.8498e-06
-2.553e-05
8.17039e-08
1.86198e-05
0.00501566
-0.00656004
0.000514814
4.64017e-08
-1.14734e-07
1.18662e-05
9.73095e-09
-0.0092527
-2.24832e-07
0.00804503
9.37277e-08
5.94822e-05
-2.22736e-05
-9.83017e-08
0.00183009
1.63655e-08
-2.12651e-07
-1.84809e-06
-3.59965e-06
-0.00115534
-4.82814e-07
-5.02494e-06
2.98572e-07
-5.41733e-08
-1.12272e-07
5.7487e-07
-1.44987e-06
-4.50013e-07
1.15937e-06
-1.05133e-06
0.00429825
-0.000703021
0.00598254
0.000899841
-5.06089e-07
0.00105555
1.33546e-07
0.00830901
-0.00307197
-2.08195e-06
4.93754e-06
8.08669e-07
-3.65147e-07
-9.28565e-08
-4.60176e-07
-1.53973e-06
3.42945e-08
-0.000236618
-2.2518e-08
6.79636e-07
-7.4657e-08
-1.93751e-07
7.99145e-07
-4.76587e-06
-0.0116422
0.00178433
3.09227e-06
-1.30373e-07
0.0218609
0.000858091
-4.5653e-07
-0.00457008
2.37587e-08
-1.73733e-06
3.66917e-08
-3.33197e-05
-4.7703e-08
-2.33687e-06
-1.69725e-08
0.00506123
-4.74552e-07
-0.00863142
-2.32262e-07
-5.19331e-07
-1.50811e-07
6.48621e-07
-3.37003e-06
-5.71908e-05
-3.28765e-07
3.6244e-06
-3.02742e-08
-1.13173e-06
4.65548e-07
-0.000475548
-2.82283e-08
-1.16631e-06
-8.53945e-08
-2.92181e-07
4.58271e-06
4.94957e-07
3.90534e-06
-8.21261e-07
3.43332e-09
0.00280045
6.62297e-07
-3.81047e-08
0.000397593
-7.82018e-06
0.00116604
1.11719e-06
1.7765e-08
-2.16025e-06
-0.000598943
-1.18821e-05
1.28704e-06
-7.27727e-09
-3.88639e-06
-4.02065e-07
-3.87206e-08
1.32339e-07
-1.3198e-06
2.08616e-07
0.00692898
-4.64583e-07
0.0154758
0.0120975
-0.000236056
-7.52536e-07
3.40633e-06
0.000944629
-3.1254e-07
-5.02846e-05
9.94233e-08
3.9965e-10
-2.05577e-07
7.36327e-07
-8.30108e-07
-7.3984e-08
0.00113107
-9.98639e-08
1.1531e-07
3.77975e-06
-3.33964e-07
-0.00295624
-1.86844e-06
1.47169e-08
0.00438041
-1.35595e-06
-0.000808402
-3.09999e-08
4.96371e-07
4.44794e-09
-3.27548e-08
-1.55558e-07
6.5421e-08
0.000868942
-1.71673e-08
0.0010046
-0.000567279
-4.23235e-05
0.00643495
-3.46936e-08
-5.06383e-07
-2.29323e-07
0.000988868
0.00140434
1.06311e-07
0.00106272
0.00862392
7.23976e-09
5.64125e-09
-1.66849e-07
0.00701139
-0.00568774
-5.55061e-07
-2.85758e-08
-6.88572e-08
-1.84665e-06
-1.01432e-06
3.22907e-06
-7.59026e-08
-6.85245e-08
3.83041e-08
-2.44875e-07
-1.5936e-07
-1.43015e-06
-4.2905e-06
2.1582e-07
1.78972e-06
0.000984754
2.08163e-07
0.0118506
-5.60133e-08
-2.91901e-06
4.76133e-08
-8.14014e-06
-1.17292e-07
-2.63698e-07
-0.0116959
3.44248e-07
-1.51919e-08
2.40922e-07
-3.28325e-09
4.09331e-08
-1.05017e-09
5.14481e-07
-6.5716e-07
9.05196e-05
3.8539e-06
3.89825e-09
-1.30194e-05
-1.22529e-07
-1.299e-07
4.30275e-06
-1.12864e-08
-1.85992e-07
4.17734e-05
-1.1865e-06
-6.83654e-07
-4.13271e-06
-7.65307e-08
2.06974e-08
4.71921e-08
-2.95275e-08
0.000888159
2.55958e-08
-2.4935e-06
-9.62256e-08
3.75695e-08
5.76317e-08
1.00927e-06
-6.78079e-05
4.5031e-05
-0.0431255
-3.7791e-08
0.00997321
3.0843e-09
1.66801e-06
0.000218708
-1.77887e-06
-3.32049e-05
3.05259e-07
-1.30857e-08
-4.06873e-08
2.64976e-07
-1.48531e-06
2.75245e-08
1.57089e-05
-1.6946e-07
-0.000800739
-4.24597e-09
-1.32329e-07
-3.16138e-07
3.67921e-06
-1.14689e-06
-0.00609997
2.62158e-05
4.56882e-07
-0.00175417
4.88868e-08
0.00112956
-8.2811e-08
-0.000413839
-6.83359e-07
7.75055e-08
-3.06437e-08
-0.00310813
-1.58841e-07
0.00315968
-0.0145057
3.58856e-08
-5.53426e-08
-6.57007e-07
-1.53511e-06
-0.00438187
-6.75851e-07
0.0015283
-9.22234e-08
-0.00211848
5.15951e-06
0.00224097
-4.64633e-07
3.71324e-07
-5.26615e-06
1.36016e-08
-7.30807e-08
-2.20125e-08
-8.87224e-08
-5.58198e-08
-6.0274e-07
-0.00406093
-5.99572e-08
0.000900268
0.0010923
0.00386879
0.0106234
-0.0515544
0.000835552
0.00828678
4.55435e-09
-2.33395e-07
-9.19025e-08
4.17856e-08
2.091e-08
-1.58017e-07
1.38074e-08
0.019565
-5.60434e-08
1.21818e-06
1.24878e-08
-1.17343e-07
-5.69473e-06
4.0656e-08
-5.12352e-07
4.96017e-08
-3.2083e-06
-5.01857e-08
-3.20059e-07
0.00870309
-9.08687e-07
1.28974e-05
1.70108e-09
-6.25781e-09
-8.2949e-08
-2.58323e-07
0.00357629
2.06728e-08
-3.03788e-05
-7.32106e-08
0.000543609
-6.59626e-07
-3.49755e-08
-2.60743e-07
-1.21439e-05
2.04288e-08
0.00128854
-0.00719455
-4.68778e-07
3.80729e-06
5.49116e-08
-3.20466e-05
-1.82747e-07
-2.83566e-07
0.000632975
-6.92501e-09
2.69162e-09
3.96071e-06
0.00081297
1.67523e-07
0.00782657
-0.000222397
2.93831e-06
6.4729e-07
-1.12336e-07
-7.60774e-05
-1.44835e-08
1.24684e-06
-5.96766e-08
0.00270854
-9.54852e-07
0.00935979
-1.27917e-08
9.17731e-08
0.000158008
8.84169e-09
1.16578e-07
0.00688931
-1.59167e-07
-7.37979e-09
-0.000182463
2.76619e-06
-6.17869e-07
-1.06636e-06
-6.63911e-08
-0.00918797
-5.81322e-07
-6.52098e-07
4.77523e-06
-6.77123e-08
0.001564
-9.43334e-08
-1.15273e-06
-4.76676e-08
0.000722763
0.000566265
-2.86137e-08
-2.01771e-07
-2.58102e-06
-3.36741e-08
-4.05551e-07
8.38267e-07
-6.01505e-08
-4.58529e-08
-1.29208e-07
-1.00145e-06
-1.46905e-07
2.02941e-06
-0.0039042
-0.00595769
3.81027e-06
-8.41291e-09
0.000189625
3.26894e-08
0.000205662
0.00198061
6.15434e-05
3.42167e-08
1.67449e-08
-7.82159e-09
-1.58213e-08
-5.38581e-08
-3.69446e-07
-7.30878e-08
-8.45801e-07
1.92219e-09
0.00304885
0.00851404
-2.70611e-09
-0.00368646
-4.97723e-08
-4.37517e-09
-3.66647e-05
-0.000928304
-3.63024e-06
4.64399e-07
-0.00199969
-1.72768e-07
-1.40916e-08
-9.59558e-05
-8.82273e-07
-0.0314166
4.15605e-09
-0.00718443
7.71328e-08
9.7617e-07
1.07261e-06
0.00131102
7.39209e-08
0.000726185
-1.49725e-05
-5.31135e-08
8.70696e-07
-5.80109e-09
4.07936e-08
1.87178e-08
-1.25312e-07
2.13759e-07
0.000861455
0.00235445
0.000585393
-2.65418e-07
3.2828e-07
0.000809376
9.2458e-07
0.0266089
-2.4762e-06
-1.32911e-07
5.10093e-08
0.00674437
0.00224983
0.00100078
1.7523e-06
0.000710294
-3.8019e-07
-2.40603e-08
-1.26271e-07
-5.30181e-08
-5.01916e-08
-0.000167189
0.000801943
1.06862e-06
-1.16936e-07
0.000959647
2.51365e-07
-2.46517e-07
0.00349121
-0.00510409
3.40765e-08
2.00432e-07
-1.16461e-07
-4.72212e-08
-1.84202e-08
6.92458e-06
-1.02007e-06
-1.03808e-07
0.000939592
1.65146e-06
-3.41157e-05
0.00118307
-3.25633e-06
0.000888803
-2.80836e-08
1.2342e-08
7.53422e-06
0.000891966
2.65361e-05
5.16753e-06
1.80609e-06
-2.81692e-08
7.32976e-09
2.18663e-07
-0.00399847
3.37845e-06
-3.27369e-07
8.19253e-07
-8.90207e-08
2.29483e-07
3.15262e-06
-7.18657e-07
-3.63055e-07
-0.00126848
-0.00578134
0.0113331
-0.000813302
-7.45544e-08
-0.00131895
-1.84001e-07
-2.29471e-06
-2.24527e-06
-0.00953242
9.22153e-10
-3.72957e-06
9.15479e-08
0.0229611
-1.9818e-07
0.000620511
-5.41488e-07
-3.83749e-06
0.0159057
-2.20567e-07
-1.54733e-06
-1.15143e-08
-3.80498e-08
-4.32447e-06
-3.01976e-05
-1.51137e-07
1.25158e-07
5.75528e-08
0.00457569
-1.12981e-08
-1.73678e-07
-9.21187e-08
-1.00771e-07
8.6926e-08
-5.22028e-06
-5.83072e-07
-2.67767e-07
2.78657e-08
-0.000483823
5.47308e-06
-3.47167e-06
0.00200858
-3.32503e-08
-3.58995e-08
0.00154746
-1.9784e-06
-1.80881e-07
-0.00137134
0.000835002
3.29995e-06
-2.51427e-06
4.68264e-07
0.00094519
-2.78186e-05
1.12491e-06
-0.00345055
-3.02124e-08
-1.25125e-06
0.000125753
5.82834e-07
0.00490237
0.000145735
1.93724e-07
-3.04192e-08
4.97944e-08
8.79553e-08
2.95813e-08
-7.41894e-06
3.26823e-07
-8.41515e-07
-4.74068e-07
-2.89309e-07
-0.00108751
-1.01972e-07
-0.00233876
-0.0256573
-4.40286e-08
-6.84305e-07
-1.47382e-06
-9.76591e-08
5.86374e-08
0.000708467
3.009e-06
0.000795659
4.46668e-07
0.00375692
-4.25785e-06
4.35081e-07
0.000287124
-5.07517e-07
3.64415e-06
-2.88463e-08
0.000110587
5.57707e-08
3.27355e-07
2.27203e-06
-1.00931e-06
-2.6514e-08
1.13016e-06
0.0119103
3.8628e-08
-1.89506e-05
-0.00650505
-7.68202e-08
5.28673e-08
2.50489e-06
0.00181999
-0.000419613
1.22681e-07
-1.25836e-07
5.5793e-06
0.00392258
0.000434103
-5.08817e-08
-1.22148e-08
1.79669e-07
-2.43353e-09
1.46756e-07
-2.01868e-07
0.00177964
-3.59429e-07
-6.74199e-08
-3.66819e-05
5.58727e-06
3.92373e-06
-0.0058582
0.00426262
-2.61373e-08
1.35978e-08
-1.28915e-08
-1.50073e-07
-7.30268e-07
0.0102723
1.23277e-05
-6.06156e-06
1.32795e-06
5.93944e-07
-9.48463e-08
7.64248e-06
2.6034e-07
1.62365e-06
-2.59928e-09
-2.09064e-05
7.23328e-06
-1.60568e-07
-1.34069e-08
-0.00108741
-1.02895e-06
-3.52282e-05
-0.00277278
1.40578e-06
-3.32701e-08
0.00444436
-6.09539e-08
-3.66236e-08
-0.00332576
3.70624e-05
-1.2631e-08
3.2217e-06
5.16082e-06
4.96441e-07
2.0033e-08
-1.18684e-06
5.5043e-08
2.41661e-08
2.44954e-08
-1.64503e-07
-2.08669e-06
0.000885081
3.44868e-07
-2.19221e-08
-1.0364e-07
-4.4011e-06
4.7723e-08
1.31139e-06
0.000200708
-1.49373e-06
-0.00123104
-1.87927e-07
-1.62995e-06
0.000691768
-1.32355e-08
1.5935e-05
5.27741e-08
-6.72277e-07
-1.95925e-08
-1.45208e-08
-2.42758e-05
2.4625e-08
-1.45767e-07
-9.31544e-09
0.00476767
-3.69685e-06
0.000955192
-1.63021e-07
2.87303e-10
0.000627465
5.80277e-07
4.84143e-07
-5.3151e-06
0.00403591
3.68067e-07
-2.40986e-07
1.14047e-08
0.00182554
-6.01014e-09
7.05509e-07
-2.36527e-08
-1.76049e-06
-2.17799e-06
-9.44106e-09
2.06911e-08
-0.000149602
4.94351e-07
0.0117229
-2.30824e-06
-4.08858e-08
-1.77222e-07
7.00224e-08
-3.57357e-09
7.63004e-07
9.74905e-09
7.39803e-08
-6.65306e-06
-5.05517e-08
-2.20234e-06
-6.16726e-06
-2.51384e-06
-3.75035e-08
1.92663e-06
2.41442e-08
0.000620877
-2.12881e-08
0.0071932
1.65069e-06
1.88363e-08
7.20491e-07
-2.20937e-07
-1.77257e-07
-5.13897e-08
-2.86093e-06
-3.30719e-08
-2.77381e-07
6.2296e-05
-2.64627e-06
4.08184e-05
-1.4321e-06
-2.32627e-07
-1.06421e-06
2.82549e-05
-8.88894e-08
-0.00642994
-8.19128e-07
9.41706e-07
-1.34445e-08
-5.8937e-07
-9.69865e-07
2.09212e-05
-0.00564826
-5.21351e-05
2.50297e-07
-4.96299e-06
-3.29905e-06
-4.12021e-07
-0.0106738
-3.49455e-07
-4.45036e-08
2.28848e-07
1.48269e-05
-6.156e-07
-0.000524217
-5.06877e-09
-4.58083e-07
-6.98155e-06
0.000649746
0.000843132
1.46546e-05
5.76184e-08
1.15294e-05
4.309e-05
1.95716e-07
-0.0106288
-5.79885e-08
4.40316e-07
0.0157224
-2.38644e-07
-0.00139599
1.2904e-05
-6.21247e-08
-3.88386e-08
5.94859e-07
0.00698476
9.19395e-07
-1.29896e-06
1.68304e-06
-4.13512e-08
3.76164e-08
8.70589e-07
1.5149e-07
3.0204e-07
-6.62117e-08
-6.64748e-07
-3.40269e-09
-0.000107861
0.000194799
-1.77099e-08
-6.16664e-09
2.91323e-08
-5.3129e-09
-8.19755e-08
-2.50759e-07
-1.62763e-06
-5.03916e-08
-2.26421e-08
-1.30919e-07
9.78784e-08
1.45831e-05
-5.5618e-07
3.51126e-06
-3.34055e-08
4.69197e-06
2.01805e-07
8.09735e-08
-2.6451e-08
-1.47917e-07
4.22745e-07
-8.17193e-07
-1.19102e-07
0.00741961
-1.37929e-05
0.00206356
-0.00538027
3.68543e-06
0.0111039
2.32998e-08
9.58013e-08
-6.18008e-05
0.0260109
-1.00762e-06
0.00102817
-4.58297e-07
-1.79585e-06
0.000911228
-5.45096e-08
2.72936e-06
0.00758489
0.0123417
2.10979e-07
3.81186e-07
3.38777e-09
0.00331156
-6.13143e-08
-0.00171805
0.00267976
3.55631e-08
9.08655e-05
-4.14123e-05
5.01982e-07
-0.00120979
1.87783e-07
-4.73043e-09
-1.43817e-08
1.50113e-07
0.000946718
1.26196e-07
-9.80651e-08
-2.39167e-08
-4.31719e-05
1.28761e-06
-7.55869e-08
1.31461e-07
-0.00010103
5.84537e-08
-3.78687e-08
-1.42754e-08
8.4277e-08
-0.00182508
-9.62819e-07
-1.58667e-07
0.000812439
1.78355e-08
-1.05836e-06
-3.02455e-09
1.629e-07
-2.0994e-06
0.00290145
1.84494e-07
-1.47375e-07
8.09263e-08
-1.35062e-06
-8.86287e-08
-7.97148e-08
-0.00557146
-8.55137e-08
1.13172e-08
2.95605e-09
5.75526e-05
-8.38065e-09
-0.0047018
0.0103753
0.010874
-9.68853e-08
8.20883e-08
-6.6401e-09
0.00916537
-4.38666e-08
0.00609252
-2.74141e-07
-0.00778116
-1.23983e-07
-4.3242e-06
-4.235e-06
-8.71703e-08
2.37233e-07
0.000993499
5.43323e-06
-0.000853974
-2.0377e-06
0.00185163
-0.00776751
2.63039e-08
0.000925396
-2.21515e-08
-7.81667e-07
0.00686321
-3.20546e-07
6.98141e-06
0.000681635
1.45989e-06
2.4097e-06
-2.1164e-08
0.00110201
-5.56214e-08
-0.00759672
2.90916e-09
0.000974705
-4.59976e-08
-4.42722e-08
-7.89012e-07
0.000426957
6.60947e-08
-9.89958e-06
-4.13475e-06
0.0110353
-5.8101e-08
1.06179e-06
-0.00102666
0.00596663
0.0120411
-2.70278e-06
2.09228e-07
3.5535e-06
-0.00890301
-5.0682e-07
-0.00710835
1.29982e-07
2.63144e-06
0.00094452
5.99049e-08
0.000495884
-1.62228e-08
0.00321341
-0.0024698
1.19439e-07
9.77517e-07
-0.0092415
0.010134
-1.55882e-08
5.61255e-08
8.17461e-08
-8.1386e-08
-0.00488868
-2.78218e-06
-1.30276e-05
-4.09627e-08
1.10028e-07
-0.0014973
-1.40449e-05
0.00545252
0.00110385
-3.09035e-08
-4.6164e-08
-5.81772e-06
0.0219371
0.0155138
0.00404438
-5.21126e-06
4.54515e-07
8.10991e-05
-0.00389815
0.000648374
0.0049337
-1.4774e-08
-9.55699e-07
-1.01665e-06
-3.63672e-06
1.01404e-07
-1.24056e-07
-2.66035e-06
-4.06917e-05
0.0110852
3.12117e-06
-0.0125986
0.000868257
5.04377e-06
-3.94275e-08
-4.03329e-08
0.000478327
7.216e-08
0.00434927
1.31131e-07
-1.7972e-06
-3.18219e-05
0.000191865
-1.56982e-08
-5.61657e-07
-1.68463e-07
1.15027e-07
0.00893251
-2.08031e-05
0.00850934
-5.44265e-07
0.000560007
-1.16714e-06
-5.14237e-06
-8.86699e-08
4.00353e-07
1.9507e-06
-0.0258033
-2.62382e-06
1.92029e-06
-0.00654419
-0.00430472
-5.88875e-07
2.4819e-07
-2.96823e-06
4.48674e-06
0.00106691
6.12091e-07
5.9983e-08
4.3549e-08
0.00465662
-0.0239686
-1.69103e-07
-1.91547e-06
-6.34828e-05
-2.14923e-09
0.000111618
-2.54657e-07
0.00797095
-1.03269e-06
0.00356499
0.00721297
-1.5429e-07
-5.46371e-07
-0.000171473
5.92775e-08
5.96434e-06
-0.00138935
3.79866e-08
-1.28226e-05
-1.20294e-07
6.68209e-07
0.0180529
-0.000212307
-4.23708e-08
0.00126842
-0.00243384
-2.50719e-07
-1.97466e-06
-1.43686e-06
-6.1921e-06
-0.00779229
-7.59837e-05
0.00504381
-1.55496e-07
-0.00199344
3.45092e-07
-4.26156e-07
-1.88595e-07
-2.8738e-08
1.10463e-07
-2.69084e-08
-2.05078e-05
-5.35502e-05
-6.69105e-08
1.52871e-06
-3.2837e-06
3.92156e-08
0.00570142
-0.00872685
1.16146e-07
-5.08867e-08
-1.61796e-07
-1.22287e-07
2.46398e-07
-5.91845e-08
0.00670667
-1.69073e-07
-2.27603e-06
-1.43681e-06
-3.55023e-06
6.81166e-06
-3.05818e-06
-0.0167402
1.14482e-07
-1.4365e-07
-1.51764e-07
-9.1199e-09
-0.000347816
-1.22423e-06
9.67023e-07
0.0024742
-8.73434e-08
-2.04225e-08
2.62279e-06
-3.24815e-07
8.10547e-09
-4.59764e-06
7.05635e-08
0.00042434
0.0139532
0.0150677
1.76466e-08
0.0167473
-3.58732e-08
-8.40437e-05
2.38422e-08
3.74885e-06
0.0083722
-3.14918e-08
0.00274917
0.00102732
1.75616e-06
-1.24464e-08
2.42258e-07
5.9995e-07
0.00155519
1.21652e-07
-3.81179e-08
-4.94234e-08
-5.11007e-08
-6.44033e-06
2.42918e-08
1.15561e-07
-1.72826e-08
2.19289e-08
-0.000711372
-4.45808e-07
4.89837e-07
4.54756e-06
0.000143606
-0.00267657
-0.0123598
-1.26046e-08
-6.25354e-08
-0.000759622
5.60665e-08
2.09638e-06
1.51534e-08
-0.00209603
-3.18792e-07
-2.81613e-07
1.41339e-05
-0.00789954
-4.61847e-08
-3.75303e-09
-2.31081e-07
-3.7478e-06
0.00277458
5.90893e-07
-1.29686e-08
-4.29723e-07
-4.64812e-09
0.000764002
3.67014e-08
-0.000288022
5.32241e-07
-1.09387e-07
0.000122809
-3.61768e-06
1.48425e-05
-2.46425e-08
3.49659e-07
3.71025e-08
6.35645e-06
-1.28354e-05
-5.55652e-08
-4.44286e-08
-3.85974e-07
-0.0015086
-2.45178e-08
-1.86267e-08
-0.00197509
-1.524e-07
9.10545e-06
2.71101e-08
9.50046e-09
-6.77447e-07
-0.00325126
-8.534e-08
0.0109438
4.28744e-05
-2.41524e-07
-0.0137597
-1.4442e-08
3.05245e-07
-2.00566e-06
2.80326e-08
-2.65539e-07
-7.77107e-08
-5.50777e-08
0.00182497
3.1908e-07
0.000569925
-0.00335245
-3.72391e-08
6.62457e-06
2.31157e-07
-6.11746e-05
-5.5861e-08
0.00183296
-0.00182009
9.80654e-05
1.0483e-07
7.29917e-08
2.22552e-09
0.00542983
-0.00214178
-1.80258e-06
-4.27455e-08
-1.89418e-07
0.00637251
-7.35276e-08
6.66937e-08
-2.04357e-07
-1.79331e-06
0.000181395
-6.56807e-07
-0.00334508
-1.37349e-06
-4.34391e-08
-0.00373388
7.03544e-07
-0.0228164
-0.00334346
1.21137e-06
-8.8089e-07
-5.53261e-08
1.70304e-07
-4.59302e-08
-2.82016e-05
5.98631e-07
-1.89791e-06
2.8833e-09
3.11977e-06
0.008109
1.05754e-07
-3.20529e-06
0.0191187
-0.00462777
-2.27501e-06
-4.04498e-08
7.53263e-05
-4.42077e-05
0.000464691
6.00297e-08
0.0159737
-3.1809e-07
-2.25015e-07
0.000997192
4.52759e-07
1.42374e-08
0.000444346
-6.82719e-08
-3.09131e-05
7.66736e-08
-1.33944e-07
-1.23531e-07
-2.19189e-07
-0.00952468
-5.3758e-08
-3.01836e-08
2.1982e-06
-1.17712e-07
-7.12316e-07
3.59387e-06
-1.21652e-07
-1.21803e-08
-4.39922e-08
-9.06111e-08
1.77273e-07
2.45359e-07
-3.86715e-05
0.00089703
-9.24675e-07
-0.0078261
-6.91957e-05
-0.00687881
0.0042304
-0.00974421
7.2992e-08
7.60703e-07
-7.11841e-08
4.06563e-08
-4.04392e-07
-1.89058e-06
-7.48969e-06
1.20754e-07
2.15662e-06
1.0411e-09
-4.93467e-08
-2.39744e-07
-5.05389e-08
-3.8783e-08
-1.06859e-07
0.000834278
5.1897e-08
0.000806064
2.23932e-08
6.02394e-05
-4.63552e-08
-2.40991e-07
1.77303e-07
1.83191e-07
-3.24936e-08
-6.06717e-07
-0.000331421
5.27997e-07
0.000812762
-0.00328163
-2.33932e-07
8.20209e-08
-0.00664186
-1.43649e-06
-1.80116e-07
-6.89081e-07
-1.37902e-07
-0.00315104
-2.48499e-07
0.000154318
-1.67191e-05
-1.53553e-06
-0.0218276
-0.0202325
1.77833e-06
0.00953244
1.01148e-07
2.86897e-07
-0.000105294
0.00302021
1.1415e-07
-9.39025e-09
-0.00232827
-1.75028e-08
-1.75079e-05
-3.48983e-08
3.15259e-08
2.96528e-07
-1.03756e-07
-1.90716e-06
-0.0012726
0.000328659
1.94267e-08
1.37082e-07
-5.63352e-06
5.49585e-08
-4.24165e-06
-2.04197e-08
-6.00812e-07
-2.27421e-07
-4.14312e-08
3.36839e-08
-2.83053e-07
-3.46891e-06
-0.00244111
-5.33228e-06
-0.00523628
1.65666e-07
-0.000273654
1.22999e-06
-1.46303e-06
-0.000228315
-1.9507e-08
-0.00408583
4.2287e-08
0.000824657
-7.54504e-06
-0.00299271
-0.00785443
-2.07909e-07
-2.01423e-06
-9.96955e-05
-5.94041e-08
0.000729977
-1.44094e-07
-1.87571e-08
-1.28999e-07
1.67578e-09
-1.25507e-07
-1.2235e-05
5.52688e-05
0.00555645
8.21813e-08
8.4302e-07
-1.03146e-07
-6.71272e-08
-5.28748e-09
4.34106e-07
3.08241e-06
0.030466
-1.43523e-06
-6.32362e-08
2.25619e-09
1.8261e-07
-6.78206e-07
-3.98295e-07
3.6639e-07
2.48542e-07
-1.27197e-05
-1.1811e-07
5.82979e-06
-1.13657e-05
-0.00533314
1.94774e-07
-1.21754e-07
-6.47061e-08
-1.33729e-07
0.00413544
-0.000341539
1.30572e-06
-4.33439e-07
-0.00106508
-3.56396e-07
3.08901e-08
-9.01586e-07
-0.0012268
0.00133134
1.50715e-06
-1.83927e-08
0.00235564
-4.01357e-08
2.05005e-09
-1.01287e-07
0.01757
-0.000422262
-2.80801e-07
0.00129646
-0.00970958
9.83513e-09
-9.73619e-06
-2.55122e-06
0.00769499
1.03723e-07
-0.00322097
-3.39454e-08
0.000350915
-5.47309e-06
0.00687523
-2.74649e-07
-5.81003e-07
-0.000895644
-2.34959e-09
-9.61793e-08
0.0102635
0.00470679
-5.69338e-06
0.00504919
-1.043e-07
4.35845e-08
-0.000309943
7.5355e-08
-5.5289e-08
-1.31653e-08
-1.12089e-06
-4.66212e-08
-2.9814e-06
2.6191e-08
0.000798155
9.84851e-05
-9.92062e-10
0.000890739
4.05198e-08
1.82067e-06
0.00094551
-4.90208e-08
-5.84358e-08
-1.16916e-07
0.000274126
-7.43219e-06
-1.87006e-06
-0.000763028
-0.000736298
-0.0200763
-2.92659e-06
0.00305415
-0.000122199
-0.000322302
6.88983e-05
-8.65438e-08
-8.76765e-10
1.18739e-08
-8.55185e-08
-3.61853e-08
-1.05254e-07
0.000614021
-2.74857e-06
4.77988e-05
-0.00930521
0.00271315
0.0198032
-0.00306424
-6.39202e-07
0.00365347
2.84884e-06
1.18084e-06
1.12293e-07
-8.89112e-08
2.66323e-06
0.0010263
-4.28122e-07
-0.00825551
-0.00207494
8.75073e-08
-8.9459e-08
-2.18581e-06
-7.40804e-06
-4.19441e-08
-1.75039e-06
-0.00387912
7.05878e-08
-3.97471e-08
7.63697e-08
3.32605e-08
4.57104e-07
3.34975e-05
2.78376e-06
0.00353288
-2.09883e-06
-3.42659e-09
2.81119e-05
-3.3215e-06
3.81546e-07
-4.10703e-05
-7.43013e-05
0.0271838
0.0139734
0.00109205
-1.6426e-08
2.36217e-06
0.000390606
1.03811e-05
0.00114335
7.46091e-08
-2.02522e-07
9.38509e-08
-7.4898e-08
-0.000407899
-2.07279e-06
-6.68322e-08
1.29275e-07
0.000870053
0.000803285
-2.66209e-06
2.28963e-06
0.00378402
-0.00350856
-3.01901e-08
6.19274e-07
-1.05265e-06
-1.02844e-08
-3.98619e-08
0.00693451
1.52234e-08
-3.27153e-06
3.81466e-05
0.00297727
-1.19775e-08
-5.30165e-06
4.90479e-06
4.74569e-10
2.0597e-07
0.00362953
0.0140268
-1.24712e-07
-3.73152e-06
1.75887e-06
-3.73712e-06
4.92791e-05
0.00241148
2.8269e-07
1.25931e-05
-0.00362086
-5.14423e-07
-1.86926e-08
-0.000223724
8.04513e-08
1.4726e-07
0.000568604
7.90691e-07
-1.79279e-06
-1.07646e-08
5.73826e-07
6.59161e-08
1.8058e-07
-2.30135e-09
2.00103e-08
-0.000338446
-8.77377e-09
0.00157441
0.000585196
-1.46908e-06
1.96533e-06
0.00475099
0.00361025
0.00214843
3.66686e-08
-2.27563e-08
-5.54508e-07
2.71985e-07
-1.88559e-05
0.000261274
-1.06304e-08
-0.00500752
0.000974633
4.10565e-07
1.78631e-06
2.39768e-06
1.38326e-06
1.03016e-06
4.07623e-08
5.59057e-07
-1.24787e-06
-2.22604e-06
-2.21505e-06
-3.15108e-07
2.46947e-06
5.17673e-07
-2.96341e-08
-2.74974e-07
2.99298e-06
-7.94454e-08
-0.000800759
0.00616915
-7.24442e-05
-0.00186367
-7.84521e-08
-6.94667e-07
0.000163664
-0.00944465
1.05718e-08
-3.33667e-07
-3.84538e-07
0.00178555
-0.010366
-1.11065e-07
-1.8357e-06
7.9769e-08
-0.00415104
0.000830692
-1.01482e-07
0.000261949
0.000696307
5.01936e-06
-0.00505158
-1.03591e-06
0.00129499
0.00361638
-6.8046e-07
0.00933102
0.00082724
-1.25953e-07
-3.4444e-06
-4.36333e-06
-6.56501e-07
8.35644e-08
-0.000413003
0.0230704
4.74529e-07
5.68683e-07
0.0194743
-7.39291e-05
-4.03573e-06
1.05299e-08
-1.17438e-06
3.6986e-06
-0.00146335
0.000632095
-9.65397e-08
-4.63106e-08
9.41856e-09
-5.83134e-08
-0.00558811
0.000514426
-0.00847085
2.25847e-06
-5.18459e-07
0.0043674
-7.34019e-08
-2.20579e-08
0.000882372
-1.25922e-07
0.00040581
1.25987e-07
-0.00415805
3.26495e-08
-6.41025e-08
-0.0068591
-3.4806e-08
2.97264e-06
-0.00485045
-5.56601e-08
-3.34503e-07
4.06229e-08
-7.03248e-06
0.000761962
6.32754e-06
-0.000529495
2.81006e-09
-1.7475e-07
-1.38529e-07
-4.02078e-06
0.0109999
0.00275229
-4.54523e-06
-2.148e-06
2.27493e-06
-0.00380743
6.05231e-08
-8.81676e-07
8.67845e-08
7.84637e-08
2.55345e-06
-1.62492e-05
0.00383276
4.5029e-07
5.73319e-07
3.7881e-08
0.000655176
-0.0107143
0.000942503
-1.74483e-08
5.84924e-08
-1.09258e-07
0.000312249
4.4859e-06
0.00113881
1.36646e-05
2.90283e-06
3.97749e-07
-2.44807e-07
-1.22267e-07
1.20803e-05
-6.90194e-06
-6.28801e-05
-3.76608e-09
2.06083e-06
-2.70027e-08
-2.56513e-07
-7.70605e-06
-0.00493534
0.0105242
1.24358e-08
-4.66205e-06
-3.07908e-05
0.0168376
0.00117609
-0.0033497
0.00467959
6.23513e-09
-1.854e-06
1.68942e-09
1.33924e-06
-5.33982e-08
-2.4772e-06
-1.10208e-07
-8.22905e-07
-8.129e-07
-0.00795156
-6.89644e-08
-2.592e-05
0.000798932
-2.0995e-06
-2.51783e-07
-0.00527608
-1.68863e-06
-2.06146e-06
1.04294e-07
0.00126356
-8.15143e-08
1.75937e-06
1.76548e-05
0.00250443
0.000795563
-2.2905e-07
-0.010308
-0.00061944
0.000732865
3.54636e-05
-2.82255e-07
3.89444e-06
5.01132e-06
-0.0034345
-1.85271e-05
1.25643e-09
3.2692e-05
1.92831e-05
-0.0011728
6.66466e-07
0.00564531
0.00275236
-5.4073e-05
-1.24074e-07
-0.0204938
1.28947e-07
0.000153876
3.94597e-06
-0.000312089
0.000831545
-9.55211e-09
-1.91413e-07
0.00083791
0.00827265
-2.89293e-05
-1.34455e-09
-5.7882e-08
-2.03034e-06
-0.00876695
-0.000114219
0.000824284
3.2946e-07
0.000792843
1.29823e-06
0.00674467
-1.27543e-09
0.000212217
0.00673537
-4.29367e-08
-2.18479e-08
-2.43728e-07
2.6496e-08
-7.4622e-08
5.051e-06
1.21952e-08
4.14813e-09