/*--------------------------------*- C++ -*----------------------------------*\
| =========                 |                                                 |
| \\      /  F ield         | OpenFOAM: The Open Source CFD Toolbox           |
|  \\    /   O peration     | Version:  v2012                                 |
|   \\  /    A nd           | Website:  www.openfoam.com                      |
|    \\/     M anipulation  |                                                 |
\*---------------------------------------------------------------------------*/
FoamFile
{
    version     2.0;
    format      ascii;
    class       volScalarField;
    location    "50";
    object      omega;
}
// * * * * * * * * * * * * * * * * * * * * * * * * * * * * * * * * * * * * * //

dimensions      [0 0 -1 0 0 0 0];


internalField   nonuniform List<scalar> 
13917
(
5.42326
0.0414053
0.213367
0.0222285
0.029404
0.0409547
0.026655
0.933579
0.0254213
13.0298
0.298344
0.0217765
0.0241494
0.902735
0.028787
6.75066
0.0231063
0.0821061
0.110124
4.78757
0.0349874
0.0217473
0.0433017
0.0217513
0.0233395
0.0374121
0.247069
18.6103
0.0549106
0.0213038
16.0314
0.0644704
0.0222765
2.98116
0.0214908
1.21376
0.0241067
0.0232753
0.0266722
0.0397997
0.0223371
0.0225457
0.0239571
0.104299
0.103407
0.57206
0.0328324
5.97656
0.740537
0.021508
0.0217417
0.114387
17.1836
0.0216846
0.0217566
0.113873
11.0603
0.0433136
0.0223039
0.50762
3.17961
0.0338464
0.0212915
0.0231397
3.02436
0.0215451
0.0655124
1.15992
0.269289
5.7434
2.28734
3.07868
0.021724
0.0219884
0.0360228
0.0238519
0.0247981
0.0217968
0.0236193
0.0223565
0.0223417
0.023147
0.0217076
2.05254
0.0211402
1.69821
0.0620554
0.0215573
0.039628
0.0230021
0.0217905
0.0241251
0.561983
0.0210924
0.0222445
0.0654005
0.265212
0.0225552
0.0214708
0.138529
0.0217636
0.0217164
0.0223913
0.0213541
0.0247267
2.76757
2.78075
0.0356272
0.0232793
0.315868
0.0215255
2.93883
0.0550589
5.77796
3.02479
0.0242914
0.10287
0.0216664
0.171791
0.0216475
0.0229498
0.0214622
0.0786551
0.088712
5.3111
2.59717
0.0229595
0.0386368
0.0211346
0.0901388
0.0320016
0.164416
3.80638
0.0242447
0.0757173
0.304765
3.20001
5.20319
0.0407073
0.0232381
0.698979
0.0215697
2.77388
0.0211744
0.0216495
0.026578
2.12543
0.53585
5.62941
0.0217184
0.0364522
0.0215959
0.0216286
0.0216564
0.277393
0.0225464
0.021363
3.8401
0.0222255
0.0218797
0.021119
2.91364
0.0261371
0.752622
4.81589
0.172503
23.7445
3.98215
0.021116
0.04445
0.0218994
3.67096
0.0253801
3.88146
0.0654
0.0219611
0.0222301
0.129573
0.0312641
0.0267272
0.0238524
0.021801
0.0217401
0.20784
0.175188
0.162633
0.0217107
0.208811
0.0213619
1.48484
0.0660043
0.0955687
0.141343
4.9224
0.0211061
5.11427
0.025984
3.796
0.0214501
0.022281
0.0305566
5.49626
6.62659
0.0237197
0.308918
0.0366635
0.0367903
0.0215939
0.127882
0.0223384
0.020849
0.0375554
0.0366414
5.84462
0.073537
0.0401519
2.89878
0.0223921
0.0213479
0.0213731
3.95933
0.165202
0.176071
0.0213571
0.0213699
0.371751
6.12824
0.021325
0.0213183
0.0223473
0.0213794
0.021391
3.23096
4.73812
0.0219201
0.0210798
0.0696472
3.32387
0.022715
0.0213544
0.276028
2.91097
0.19993
2.88589
0.0923797
0.0211819
4.60588
0.0727985
0.048657
0.0721822
0.0234569
4.62172
0.0216596
0.041208
0.0593453
0.0220362
0.0223175
0.0231151
0.0275087
0.0216679
3.71105
1.54085
0.021557
0.0212612
0.0226765
0.021238
0.0216644
0.02414
0.0357909
0.0217106
4.19888
2.75957
0.0215001
0.025312
1.62273
0.0212877
0.117128
3.36893
0.0212993
4.23282
0.021608
2.9114
0.0219596
0.0269655
0.022117
0.0211501
0.147621
0.0225135
0.193385
0.0285488
1.54655
0.0262966
0.22081
5.45637
0.0220855
0.0488568
0.0279914
0.0245895
0.0287556
0.023575
0.0212195
0.0221612
0.127654
0.118993
0.0401009
0.0233991
0.0213378
3.83814
8.51641
0.0210481
0.0238517
0.0246296
0.812206
0.120447
2.70107
4.13785
0.0215033
0.162046
0.0250071
1.59205
0.916601
0.211148
0.023988
0.0285695
0.251359
0.0222004
0.0452966
0.0943713
0.0230067
3.65411
0.0211803
0.0401731
0.0219102
18.1256
0.0207758
0.0378205
0.0373929
0.0214646
0.0228515
0.0725031
2.11139
0.0221313
0.0221932
2.93907
2.36267
2.92614
1.00311
0.0213119
0.0218856
3.05529
0.157961
0.0213299
0.0285635
0.0216979
0.0645234
0.0388223
0.109765
0.0912116
0.115475
0.0397176
3.09302
0.0211763
0.0221395
0.0363316
0.171876
0.0228775
5.84957
0.0395139
0.152731
0.0218022
0.122857
0.0238937
0.244057
0.0225335
0.202917
1.52244
0.0407269
0.0215241
0.602416
0.0220564
4.80234
0.15065
0.0225756
0.312534
0.0225218
0.0447798
0.0208293
4.33433
0.0460811
0.0236204
0.470918
0.100581
0.0230868
3.27954
0.211926
0.0232034
0.151421
0.0217903
0.109143
0.207955
0.0212023
0.0260744
0.0233711
0.0211324
0.0209176
0.0212302
2.81446
0.160144
0.021952
0.0212981
0.0215842
0.0474816
0.79412
0.0215697
0.0211045
0.118754
0.123009
0.0211757
0.0234686
3.59041
1.66737
0.0215883
0.117207
0.719471
0.0216136
0.0214523
0.0313766
0.020908
0.021609
0.0220054
0.0214873
0.0216393
5.07899
0.0218407
0.0428853
3.88156
0.048391
0.0208678
0.0216093
3.02607
0.03055
6.48012
0.0218106
0.0213396
0.022059
0.021403
0.0239754
0.0227323
3.34933
0.0297141
3.00024
0.0213338
0.0343366
0.0320169
0.0222576
0.0895239
2.95934
0.0216625
1.63443
0.0209031
0.0212665
0.0215418
0.0225451
0.0208045
0.022053
3.81469
3.64675
0.0207876
0.227786
0.11698
0.0218173
0.0528159
0.0698194
3.26525
0.0268067
2.84154
0.124919
0.127003
0.0227608
0.0214968
0.0359734
0.0233174
2.70241
0.0219157
0.0216255
0.022251
0.0257424
0.0340969
0.15709
0.0511614
0.0274923
0.0262733
0.0891838
0.0558935
0.0219546
0.797061
0.0350952
0.0285797
4.60306
0.0211482
0.0579271
0.148623
0.020821
3.66516
0.0213573
0.0214086
0.0487548
0.0217925
0.0222275
0.127709
3.92695
0.639707
0.0211161
0.0224327
0.0286017
2.61282
2.19481
0.0218484
0.0217234
0.0210969
0.0550946
0.38756
0.0212003
0.0227795
0.022194
0.0211121
0.0265977
0.0284441
0.0222137
0.0518239
0.0208233
0.0216187
0.0232206
2.71909
0.0207033
0.023701
0.0216652
0.0333247
0.0617829
0.0776348
0.0618484
0.147452
0.022981
0.0834786
3.73317
5.28775
3.56786
0.0209705
0.021498
0.0249241
0.0214196
3.07091
0.0213388
0.959749
0.0259676
3.36702
0.129849
0.0239475
13.5028
0.0207782
0.0606038
0.0225612
0.0240981
3.50359
0.021677
0.19725
0.0214165
0.0226801
0.0215423
0.152039
0.0271652
0.0211689
0.105315
0.0515314
0.659474
1.52414
3.88648
3.59786
0.0207024
6.00647
0.0212943
3.32144
0.55299
0.0252406
0.0243969
0.0216943
0.0346807
0.0236082
0.0216976
0.0224176
0.0238846
0.70355
0.0211674
0.0583053
0.0215951
0.0211918
0.0222402
0.127641
2.8664
13.0647
0.067398
0.0282956
0.433776
3.23731
0.020854
2.78888
0.0236852
0.0936393
0.0214133
0.420847
0.0210935
0.0273135
0.0216718
0.618014
0.0359421
3.05858
0.0220592
0.0345756
0.0214374
0.02177
2.96826
0.177216
0.021676
0.121854
0.0213374
0.0238151
0.0216216
2.84502
0.0211712
0.0278856
0.021333
0.0215514
0.172666
0.0216358
0.111758
0.0232761
0.0207946
3.01957
0.0600372
0.0217922
18.2415
0.18956
0.169936
0.156774
0.0207632
0.030101
2.79682
0.217475
0.0299938
0.0241188
0.0291701
0.0230275
0.0212175
0.0215871
0.0666526
0.0251251
4.28233
0.0363508
0.884002
2.31563
0.122401
0.0358309
0.137295
3.78594
0.0212245
0.0382881
0.0216465
0.0208069
0.0219876
0.022197
0.0285245
0.0222772
5.73757
0.0340695
0.0210942
0.0878054
0.0219606
2.70353
0.0216471
0.0211322
3.84748
0.058259
0.466078
0.0217837
0.0222573
0.0211041
0.0221148
0.0280927
0.0211373
5.98966
0.0307609
0.675371
0.475357
0.038157
3.90094
0.0224384
0.0219111
0.0215108
3.29048
0.637465
0.0264117
5.75516
0.643339
0.0207861
0.021087
0.0239967
2.55914
0.453277
0.0362307
0.0220814
0.0236992
0.0964506
0.0242987
0.109393
0.0341896
0.0221882
0.0223872
0.0219739
0.028015
0.0262657
0.21783
0.0249813
0.0296628
5.71281
0.0218051
0.790209
0.0237989
0.0338762
0.0257303
0.208899
0.0229217
0.0571487
2.84001
0.0221518
0.0214437
0.0250098
0.0227927
0.0213317
0.0216579
0.037419
0.0317648
0.165379
0.112062
0.0207364
0.207278
0.0253692
0.0257789
0.125223
0.0219845
0.0605452
0.222882
0.0210221
0.0583393
0.0773604
0.0338852
0.0210236
0.0208327
0.0212058
7.1346
0.0222357
0.0220151
0.0396846
0.0211644
0.0209157
0.107091
0.210455
0.054335
1.57271
0.0579723
3.18014
0.0216632
0.0252714
0.199212
0.0253903
0.0461698
0.0228297
0.0219072
0.0217582
0.0254654
0.0814981
0.0210191
0.027384
0.0220154
0.510973
0.0238408
0.0267552
0.0218833
0.0727863
0.0272403
2.89899
0.0579557
0.0233565
2.71247
0.0224827
3.90164
0.0234145
0.472337
0.0237657
0.0208988
0.0214271
3.54185
0.027946
0.282024
1.71685
0.0213258
0.0341291
0.0211061
0.028656
0.414834
0.0210905
5.02284
0.0237778
0.46573
0.100161
0.215616
0.0205149
0.0220651
0.0992891
0.0207538
0.0216516
0.0229919
0.0214494
0.039775
0.0205002
0.66734
0.0221869
5.60133
4.01383
0.893491
3.16708
1.4637
7.69131
0.698572
0.0207226
0.023687
0.0215602
0.0224963
0.0211004
0.0280494
0.021211
1.07333
0.0216842
0.245165
0.0221487
0.0304343
0.0876223
0.0210167
0.0429947
0.0224819
0.0242022
0.0259598
0.0220845
3.96858
0.0715673
0.0263384
0.0210453
0.0214989
0.0219993
0.0221037
4.71628
0.0207447
0.162884
0.0210762
0.157545
0.0266105
0.0211823
0.058904
0.0336367
0.0207557
0.45258
2.76886
0.0241362
0.0729136
0.0207235
0.148261
0.0222635
0.0221042
3.4524
0.0224238
0.0223064
0.0862199
3.79509
0.0224502
0.577968
0.412788
0.0228449
0.0231789
0.0214983
0.584033
0.0214702
0.113264
0.0216797
3.72481
0.02702
2.23887
0.0213014
0.0214901
0.0603251
0.0226946
0.0216346
3.61359
0.0229285
0.0209035
0.924186
0.0227829
0.0238192
0.0661003
0.023092
3.09499
0.0401718
0.0696765
0.142857
0.0236346
3.65254
0.0224093
0.0618797
0.0213802
3.69716
0.160559
0.0218391
0.0222769
0.0231357
0.0218513
0.0221745
0.0213103
0.0217006
0.0214184
0.0289984
0.0210805
0.0227436
0.0685036
4.68735
2.90591
0.0799672
0.0220066
0.0667564
0.0211655
0.211712
0.362418
25.1519
0.0213874
0.0207323
0.0216626
0.0216037
0.0213812
0.0220387
0.0212302
0.0368606
0.0209112
6.28915
0.930034
0.0209336
3.5241
0.0213901
0.0212408
0.0353757
2.80598
0.0626655
0.021928
0.466349
0.0212721
0.0212533
0.189188
0.0239113
1.01087
0.0223899
0.811971
0.020879
0.0215648
0.0308796
0.158577
0.0228805
3.08437
0.0333656
0.0226579
0.0235064
0.0214959
0.0208138
0.0867987
0.0332011
0.0249583
3.23133
4.85658
0.103168
0.0915201
0.0215896
3.35924
0.0214753
3.99829
0.0573501
0.0261559
0.0227012
2.42459
0.745453
1.1357
0.0229869
0.48359
0.0221749
0.0212179
0.0343591
0.022131
0.0216551
0.193041
4.09334
0.0215489
0.0270942
3.38731
0.0213989
0.0213944
0.960727
2.75532
0.022374
0.0212965
0.0262604
0.0215874
0.0212022
0.0369579
0.025677
0.0215403
0.680477
0.0230494
0.0378869
0.319856
0.0319377
3.58532
0.0218112
0.0221019
0.0272591
3.77575
0.0362131
0.0243923
0.0320638
0.0219887
0.0224239
0.0224238
2.92873
0.0316711
0.022404
0.0497613
0.0211472
0.0221213
0.07055
0.109338
0.0561805
1.09337
0.415987
2.89504
3.31401
0.0232753
0.694684
0.0213686
0.0536358
0.0710345
0.500285
0.0245483
0.0240333
0.0254377
1.14991
0.0230703
3.8633
0.0339517
0.0816017
4.15408
0.0218988
0.0930116
0.0233974
0.0216482
0.0293672
0.0359601
0.0218049
0.0206732
0.0227302
1.94021
0.0209002
0.0229415
0.0236073
0.0224016
0.0215288
0.0868792
0.0650267
0.0224064
0.0210054
0.280293
0.0267428
0.0365822
3.73607
0.0218354
0.0214395
0.482174
0.0219438
0.0231591
3.34985
3.50665
0.0310493
0.0539752
0.0263216
7.66825
0.167142
0.0325421
1.91453
0.0211546
0.0723259
3.99066
0.178605
0.543034
0.161772
0.0216992
0.02158
0.0239783
0.0215521
0.0216684
0.219228
0.022424
0.0419946
0.0207363
0.0540448
3.08136
0.0231197
2.63968
1.69702
0.0214384
0.0709898
0.0261518
0.0228124
0.0213321
3.43003
0.0660403
3.62989
0.0274084
3.16707
0.0804502
0.0223051
0.877728
0.0340595
0.0239001
0.0211962
0.358932
0.0213395
0.0254775
0.037301
0.0254789
0.0220193
0.051819
2.13348
0.0211323
0.159618
0.747765
0.021651
0.0211404
0.0264581
1.35806
0.207404
0.0208202
0.0296342
0.0243621
0.352822
6.61954
0.0216115
0.0209213
0.0217241
0.0215021
0.0239439
0.0238477
1.4906
0.0221919
0.0242164
0.0354446
0.0244306
0.0788139
2.788
3.26002
0.0218114
0.0214277
0.0208791
0.0226532
0.0651767
3.92189
0.0263888
0.0915908
0.0300117
0.0469686
0.0235221
0.0246974
0.025188
0.101826
0.0211041
0.147335
0.0248711
0.0207221
0.0217634
3.04765
0.045408
0.0339992
4.89812
0.124279
0.0211069
1.27926
0.0231062
0.0212243
2.82625
0.67259
0.0211215
0.030838
0.0989132
0.0339673
0.0222569
0.0205348
0.021154
0.0208388
0.0213297
0.0292809
0.0509724
4.44048
0.0344622
0.0255507
0.0307181
0.0766979
0.0209675
0.0341521
0.18657
0.198223
2.81574
0.0228731
0.0207413
3.61414
0.0210175
0.0332032
0.0228602
0.0433063
0.0218963
0.0210624
0.222908
0.0260801
0.0228006
0.0214887
2.18337
0.222553
3.30251
0.0218374
0.02154
0.167426
0.0218311
0.0215164
0.119371
0.651779
0.0267198
0.03231
0.0221885
1.45788
0.0212355
0.0244843
0.022021
0.0208466
0.19496
0.0212302
0.0208208
0.205301
0.0551687
2.0344
0.193763
0.0211753
0.0294564
0.0209239
0.0210645
0.0235736
0.0223754
0.0216252
0.168752
0.0216029
0.0650246
0.0282585
0.0283985
0.0216057
0.0226957
0.0211772
3.49284
0.0219137
0.494793
0.0649653
0.0226405
0.0489728
0.0322821
0.0297606
0.0215112
0.0295779
0.0209127
0.0207231
0.0479975
0.0362783
0.0252149
0.0213914
0.0213337
0.0223072
0.104492
0.0211469
2.85597
0.0425536
0.0216809
0.0213055
0.0208933
0.0423655
0.0263257
0.599103
0.0447804
0.0220347
0.0291308
0.0877719
0.0239574
2.91495
0.0207263
0.0218002
0.0248601
0.0268179
0.0208938
2.98125
0.0216062
0.0213304
0.122092
0.427991
8.41095
0.0273311
0.025541
0.15118
0.0276835
0.0212375
2.92127
0.0214003
0.0219181
1.88747
0.0207666
3.00462
0.0261393
0.0210593
0.0214333
0.0212805
3.83944
0.0222069
0.0205717
0.0701953
0.0211804
0.0208914
0.0224572
0.0212299
0.0427646
0.021708
0.0243088
0.0206801
0.213959
0.0704813
0.0207008
0.0207098
0.0223217
0.0212891
0.0237771
0.02192
0.0216719
0.0217335
0.0214072
0.0224953
0.021501
0.0884953
0.0208953
0.0730738
0.0216622
0.0504658
0.0207824
0.0216042
0.0211432
0.021826
0.036567
0.0266371
0.0249367
2.12451
0.0261404
3.75908
2.77102
0.0737876
3.28932
0.0216
0.0214776
0.216696
3.85072
0.0223493
3.35127
0.020772
0.110116
0.467805
0.0236541
0.07462
1.12722
1.84556
0.0221085
0.0444786
0.0209485
0.455309
0.0241316
3.31298
3.81547
0.02172
0.0563342
0.186372
0.0232683
2.55781
0.0220612
0.0231638
0.020941
0.0218101
3.40314
0.0212208
0.0310482
0.0219353
0.203482
0.126992
0.0215479
0.0208146
0.395578
0.0210187
0.0214446
0.0221067
0.0206941
2.35481
0.0298028
0.0280109
3.33011
0.0213352
0.0676229
0.0217131
0.0217853
0.0511407
0.458225
0.0207508
0.0272124
0.021786
0.0217587
0.0237095
0.0214834
2.67706
0.0226487
0.0207365
0.0211446
0.0276585
0.0209235
0.666871
2.74897
0.954161
0.0215486
0.0208958
0.0212355
0.730437
0.0217962
2.49291
0.0222353
0.548153
0.0230234
0.0242636
0.228069
0.0216182
0.0229903
3.42712
0.101239
2.94015
0.0225039
3.2787
1.73046
0.0215609
3.16782
0.021714
0.02573
4.14375
0.0236142
0.0422391
3.68423
0.0293523
0.0622436
0.0215922
1.09052
0.0214242
0.627192
0.0212394
4.24919
0.0214447
0.0215537
0.0235717
0.49205
0.0209308
0.0261418
0.0662553
1.31797
0.0212481
0.0289001
3.60549
0.42043
1.76324
0.0689948
0.0207794
0.100488
0.747108
0.0240264
0.861128
0.0216154
0.136158
6.38746
0.0209772
6.50859
0.0213081
3.09606
2.1293
0.0237653
0.0239185
0.583529
0.88473
0.021468
0.0227853
0.0207018
0.021584
2.71305
0.0587976
0.223945
0.0217003
0.0272306
3.0673
0.0364834
0.37371
1.07131
0.0211379
0.0213821
0.167523
3.43666
2.08965
0.547733
0.173022
0.0389664
0.0811197
3.48877
4.04964
0.501518
0.0209408
0.0716886
0.0418195
0.0651813
0.0214413
0.0258016
0.0550991
0.1554
0.853499
0.0231891
1.51269
3.29446
0.0445847
0.0214231
0.0214273
0.128977
0.0209317
3.86412
0.0278797
0.0225892
0.15803
0.070927
0.0206873
0.0344519
0.0290079
0.0214709
3.75367
0.0305197
3.92875
0.0210663
3.04597
0.225393
0.172461
0.021896
0.0263065
0.0298076
1.29328
0.10551
0.0634588
2.80321
0.382655
0.0210919
0.0256067
0.0232946
0.114668
6.31348
0.0215717
0.0206608
0.0227099
1.18661
1.52384
0.0210392
0.0496872
0.157259
0.0209092
0.0527013
0.0238746
3.90872
0.0277419
0.388005
2.72544
0.0278606
0.024435
0.472379
0.0211291
0.0492303
2.77258
0.0240971
0.103703
0.0306866
0.0546522
3.14343
3.22569
0.0215703
0.294111
0.441364
0.0207845
0.119715
0.0602817
0.104531
2.63988
0.190924
0.48714
0.0972511
2.80185
0.0267433
0.0622741
0.021231
0.0217482
0.0215238
0.0208984
0.224308
0.163897
0.0218802
0.0471468
0.154859
0.0211151
0.62671
3.06597
0.021275
0.0217554
0.0212531
0.0225702
0.0423291
0.0214212
3.53403
0.02887
0.0632275
0.0258379
0.0634708
0.0889338
0.0328175
1.52095
0.0214684
0.0226729
0.0216692
0.0208942
3.5658
0.0879121
0.0284499
2.98916
0.021765
0.0221117
0.0312038
0.0207128
0.0216919
0.0770704
0.0251713
3.15087
2.01942
3.77203
0.0216257
3.50465
0.0212508
0.201246
0.0206657
0.129452
2.52585
0.0214284
0.857044
3.44896
0.0321385
0.0222633
0.0216777
0.0275666
2.86214
0.0206619
0.0217973
0.0222741
0.0233889
0.167315
0.0226488
0.0254786
0.0211059
0.0223257
0.66237
0.0329008
0.0240099
0.115062
0.100975
3.40164
0.48282
0.0228894
0.0225422
2.78137
0.0214568
0.0606279
0.0216526
2.74138
0.0222327
0.0220002
0.0363343
2.90323
0.0213851
0.0207498
0.0207003
0.128488
7.83393
0.109003
0.021475
0.0239497
0.020908
3.38956
0.0213749
0.498571
0.0538916
0.0217684
0.187051
0.0331844
0.0272625
0.0220684
0.021445
0.0298738
0.0419908
0.121415
0.0217333
0.021968
0.0221289
2.81259
0.0215344
0.0222885
3.18455
0.0230339
0.0325626
0.024447
0.0210894
0.0213837
0.623347
0.0233411
1.28617
0.0269342
0.0210241
1.72118
0.0218963
0.0959248
0.046887
0.0224854
0.0218406
0.0210252
0.0214094
0.236718
0.0450485
3.54357
2.7561
0.0209294
0.0294521
0.0390199
0.257946
0.0214127
0.205125
3.3189
2.20853
0.0212014
0.0229415
0.0220287
0.468677
3.53573
0.0225247
0.0215302
0.0296833
3.48103
0.0216765
0.0230143
0.0230358
0.107519
0.210667
0.0207417
2.92194
0.0298509
0.021412
2.74204
0.0534812
1.68915
0.277761
0.0318402
0.0260147
0.0223453
0.026352
0.0221365
0.0796172
0.0498806
0.0216378
0.0242618
0.226182
2.15165
0.0206442
0.100802
3.52181
0.558687
0.021974
0.0215629
0.0491265
0.885075
0.116976
0.0211504
3.3301
0.062512
0.0211254
4.43678
0.0271448
0.0217397
0.376317
0.0214449
0.0332632
0.020854
0.0210771
0.0216026
0.0206896
3.0289
0.0218635
0.0211479
0.0705084
0.0248087
0.0244438
0.124661
0.0215202
0.0214766
0.0228891
0.0224241
0.0220608
0.0220815
0.21133
0.226933
0.0372218
0.468675
0.0618242
2.86037
2.43775
3.00302
0.0208738
0.0293409
0.0214319
0.0215595
0.0210273
0.024029
0.165529
0.0561092
0.0386003
0.0210908
0.021388
0.0528999
0.0217848
0.021928
0.0215357
3.45403
0.0307451
7.74357
0.0216137
0.0408555
0.022018
0.0219185
0.0221957
0.0406407
0.0210511
0.0770026
2.88945
0.0420722
3.64736
0.58856
0.0229906
0.0272288
0.42238
0.105459
0.021906
0.0210614
0.0210285
2.72445
0.0211124
0.0903498
0.0452745
0.0698339
1.13463
1.37807
0.0608001
3.82425
0.0211992
0.0208506
0.0551984
1.83167
0.0214202
0.0215964
0.218768
0.020953
0.191205
0.0226555
0.0213154
0.0251907
0.0215235
0.0645376
2.76525
3.07406
0.0245727
0.0214414
0.0810545
0.0225831
0.0718999
0.0208846
0.126941
0.0848484
0.0219236
0.0216836
0.021054
0.120856
0.160694
0.170111
2.40936
0.0293965
1.73502
0.0693466
0.102053
2.92996
0.0212685
2.76873
0.0223696
3.47935
0.228401
2.8081
2.94605
0.0232984
0.049835
0.056355
0.0214772
3.80367
0.0214924
0.0215157
0.0256443
0.0221059
0.0298292
0.209366
0.423019
3.84622
0.0256089
0.0409259
0.0225664
0.0219278
0.0216759
0.124871
0.0809236
3.82104
0.0432878
0.021974
0.020726
0.0221061
0.206016
0.02404
0.0224791
0.0249212
0.104185
0.0305871
0.0431396
0.0420358
2.7816
0.0290804
0.0315981
0.0214185
0.0257127
1.07459
0.354912
0.0495183
0.0207523
2.76151
0.0316841
0.0211214
0.0449073
2.89914
0.406317
0.0329414
0.020962
4.27217
0.0219729
0.0209177
0.0220002
1.93858
0.645189
0.0229899
2.58471
2.74171
0.024114
0.0400574
0.055046
3.92151
0.030348
3.49023
0.0220311
0.166394
0.0264667
3.48706
0.0320954
0.0209379
3.14831
0.021635
0.0223524
1.67034
2.21077
0.0716548
1.43993
0.0242569
0.0226507
0.729673
0.0211296
0.0211788
0.0215787
0.0421428
0.0213981
0.030808
0.0241246
0.141335
0.394294
0.0221815
3.80186
0.0240209
3.05126
3.5109
0.0215534
0.0217458
0.0252157
0.201972
0.165174
0.0602987
2.89749
2.96765
0.933211
0.0231977
1.64965
2.91499
0.120033
0.238008
0.0216181
0.0213506
0.0215964
0.0225189
0.021282
0.0319467
3.14748
0.0316437
0.0288029
5.41473
1.86047
3.87313
3.45828
0.0291986
3.67779
0.0985287
0.069935
0.0206396
0.0215313
0.0635847
4.05045
0.0226776
2.89789
3.26952
0.0209143
0.0216029
0.0223706
0.0885816
0.0220829
0.0656553
2.73652
0.0206244
0.0214013
0.0208919
0.0222767
0.0926239
2.93173
0.0361599
1.82873
0.103214
0.0211557
0.0344765
0.122595
0.0229767
0.210917
0.285476
3.56423
1.89193
3.46169
0.0213953
0.821895
3.01109
0.160123
1.76621
0.0209398
0.0231832
0.0237834
0.0232948
2.75903
0.059721
0.0217214
0.0269927
0.251825
3.1209
0.0230758
0.0229776
3.83901
3.40479
0.0217248
0.0276318
0.0966398
0.0213214
0.0214099
2.28774
0.0211041
0.217219
0.0353608
2.89088
0.0210343
0.0776604
0.136164
0.0210866
0.0213992
2.15286
2.21373
0.0220099
0.0334014
0.16402
0.188831
3.69119
2.4936
0.0255187
0.0502991
0.477712
0.0337851
0.0211054
0.1443
0.0206393
0.0218001
3.22374
0.0381359
0.0859124
0.0242446
0.0261126
0.0209364
0.0206003
0.0221371
0.022348
2.70049
0.0240003
2.29194
6.10035
0.0427926
0.0656269
2.94238
3.35437
2.71543
0.0222107
0.0246371
0.0341845
0.025298
0.186754
0.489588
0.0221086
2.19023
3.33833
0.0263229
0.0861828
0.0693964
0.094168
0.102726
0.0227121
0.114452
0.1253
0.137073
0.150041
0.106027
0.0757521
0.0266554
0.0210772
0.0316961
0.0853048
0.0210676
1.10026
3.78974
0.159283
3.02337
0.0212584
0.0209163
0.173927
2.60421
0.0222649
0.0237642
0.0606349
2.65708
0.418699
0.021483
0.030145
0.0250175
11.0431
0.249101
0.0239873
0.211705
3.08293
0.095021
3.43861
0.0869239
0.186926
3.74782
0.0210853
3.63129
3.27865
0.0224911
0.0637389
0.0910092
0.0257057
0.0208598
0.23379
1.3658
0.0213115
0.0213527
3.1455
0.197085
0.0724478
0.0217372
0.221213
0.122705
3.24435
3.78067
0.02158
0.0213732
0.0222174
0.0226182
3.3612
0.126653
2.98422
0.0794841
0.233575
0.453594
0.0226125
0.0210281
3.16042
0.0209041
3.56959
0.0213256
3.47391
0.0225089
0.0224195
0.468989
0.0214988
0.105388
0.684083
0.024026
0.0235938
0.0226416
0.160467
3.27397
0.157671
3.1208
0.0235357
0.0225505
0.0272556
0.0692445
3.83275
3.12597
0.0907912
0.195144
0.117123
1.87997
0.0215338
0.0211095
0.0206381
0.0206444
0.229208
0.0743459
0.4261
0.041974
0.139455
0.0211111
0.190768
1.72035
13.0753
0.0214634
0.0228014
0.021066
3.04596
0.025512
0.512521
0.227382
0.114024
0.23284
0.0210355
0.0354731
0.154661
0.230734
0.203434
0.0215981
0.125937
0.0220499
0.0219947
0.108132
0.34858
1.50517
0.0218211
0.0805127
0.163728
3.7774
5.23418
3.24616
2.98295
0.0210066
0.0555097
0.0216357
0.130942
0.0211978
0.104179
0.0232888
0.0456011
0.0446042
0.644758
0.0232456
0.12686
3.25136
0.108513
0.023617
1.7224
0.100025
0.0227535
0.0223465
2.81879
0.0283152
0.1227
0.225691
0.273813
4.00732
0.0230343
2.89303
2.84925
0.160489
0.193614
0.0305777
0.102048
0.0918257
3.1147
0.0716968
0.0221437
0.236651
0.0550738
0.671259
0.0272935
4.64759
0.834048
0.311112
0.02584
1.41729
0.024067
3.0262
0.158462
0.50608
7.37659
0.0209291
0.0211087
3.12704
3.55876
0.0330224
0.0220626
0.0430122
0.0306743
2.69113
0.107184
3.30329
0.025796
3.35845
0.121449
0.51329
0.0220996
0.185383
4.0205
0.0234004
0.0805017
0.0211281
0.0241695
0.0216254
0.0603195
0.0211734
0.0216208
3.69974
1.07506
0.020615
3.72044
0.0223282
0.0215295
0.0212937
0.0208942
0.0217576
0.204602
3.7144
0.0209156
1.2371
0.064321
0.0460189
0.413068
0.0819056
0.0253513
0.0311689
0.0212901
0.0516279
0.0296302
3.76319
0.0240854
2.3048
0.239185
0.0642951
0.830453
3.42383
0.0207645
3.65726
0.051616
0.061477
0.0338755
0.0211704
0.0416262
0.168962
0.0215823
0.663615
0.0214127
3.01719
0.135656
2.77614
0.158215
0.152937
3.65029
0.0215694
0.0211894
0.0599842
0.0229018
0.0217435
0.021771
0.026958
0.0210787
0.0211899
0.0226398
0.0445693
0.0231772
0.0269432
0.0226504
0.0407601
0.0951159
0.0235022
3.17317
0.0232685
0.0212438
0.0892512
0.0407946
0.0227285
0.0210615
1.44486
0.0233365
3.21272
0.0235174
0.107792
0.0212992
0.0214213
0.132592
3.83767
0.0674562
0.0349706
0.0214313
3.28288
0.0216482
0.0211549
0.0736344
0.0238414
0.139328
3.22474
0.093582
0.261767
0.0426251
4.07451
0.0214791
0.0216376
0.0593375
0.0508334
0.05727
0.0929646
4.542
0.0272801
0.0215837
0.0274665
0.216184
0.0553461
0.021601
0.0974853
0.092258
0.0594197
0.0217498
0.0216371
0.200864
0.0582221
0.567381
0.418768
0.0237761
0.066591
0.0217241
0.0428194
2.52247
0.0216967
0.160694
0.0254052
0.0765222
0.844725
0.0215463
0.0213694
0.021241
3.62538
0.19198
0.0233864
0.120002
0.106302
0.0217006
0.0214261
0.172003
3.68067
0.198811
3.26268
0.15445
0.0299782
0.217999
0.116604
0.0297559
0.619635
0.0845946
0.619468
0.021531
0.0926565
0.128473
0.0223718
1.62026
0.0395915
0.128073
0.0269261
0.140726
0.0210886
4.02473
0.0243737
0.0207875
0.0213262
0.0207258
0.0226381
0.0224381
0.0208661
0.0239875
0.0216113
0.0223073
0.0517815
0.0756862
0.0221799
0.0587592
0.024539
0.0234334
0.02052
0.0446209
0.0273466
0.689658
0.0215637
0.0215842
0.0649742
0.241476
0.0216106
0.0215576
0.107138
0.0234431
0.086724
0.0560386
0.0215811
8.45416
0.0236557
0.0223226
0.0811705
3.86914
0.0221737
0.0538837
0.0213206
0.0255259
0.0214058
0.0269162
0.0211785
0.0215994
0.0480427
0.0565214
20.4353
0.047906
0.0215089
0.0283485
3.47469
0.0563687
0.162321
0.0962982
0.0216338
0.0511217
0.896461
0.17176
1.72092
0.0257723
3.47489
0.452781
0.0289332
0.0217091
0.0719087
0.0222693
0.0547598
3.20148
0.0215638
0.17057
0.0217958
2.81319
0.0498932
0.0223896
0.0572893
3.01392
0.614945
0.0237453
0.068628
0.0298821
0.0205917
2.03338
0.0207378
0.0339348
0.0210816
0.0249794
4.10798
0.0694271
0.0215625
0.0285626
0.225656
0.021541
0.0219073
0.0281244
0.025258
0.0214558
0.0236604
0.0244297
0.0220352
0.021083
0.0593076
0.0994355
0.164421
0.0210181
0.0560322
3.01124
4.34768
0.0221764
0.0215947
0.0249182
0.0864898
0.0221833
0.021057
0.0212079
0.0209362
0.0259116
0.0272211
0.0240978
0.0627176
0.0232872
0.0205467
0.0232491
0.0615289
0.0448104
0.102321
0.022188
0.0284207
3.25683
0.0289079
0.0245034
4.1426
3.32516
0.0948915
0.0638013
0.15111
0.0213689
0.239488
0.0268574
5.78149
0.0214075
0.0212203
0.596155
0.0207962
0.0255606
3.70071
0.0219965
12.9151
0.0302957
0.0314601
0.0265996
0.0692005
0.0284738
0.0261291
1.24854
0.0208595
0.0240914
3.52634
0.023012
0.0214646
0.0303363
3.2412
0.0222252
0.0222287
3.35302
0.023211
0.0265725
0.0566945
0.0206947
3.97444
0.0239847
0.022357
0.105535
0.0556096
2.79311
0.0233664
1.65452
0.0328696
0.08355
3.53537
0.0215486
0.0319302
0.086929
0.0221769
2.05354
0.0222436
0.0231558
2.88885
0.022171
0.0403185
0.0823805
0.321649
0.0296691
0.0264383
0.0223173
0.023749
0.0861621
0.0243785
0.0302906
0.193103
0.0524442
0.0216979
3.50992
0.0370178
0.0205658
0.0228262
0.0212296
0.0213542
0.0207848
0.0215842
0.0215121
0.0300024
0.0237573
0.0410758
0.0211966
0.0207833
0.0234294
0.0739088
0.020721
0.0320092
0.0718259
0.0282997
0.0298664
0.021426
0.0231665
0.0241981
0.0388619
0.0281978
0.0244089
3.14805
0.0217405
2.09081
0.0246697
0.0855469
0.09317
0.0215468
0.0570735
0.0307651
3.1995
3.10936
0.025209
0.0217517
0.0234389
0.0293707
0.0464089
0.0222252
0.284834
0.0500598
0.0234038
0.0741722
0.049756
0.072579
0.0280945
0.270235
0.568941
0.0269296
0.633262
0.0230058
0.123977
0.0224618
0.0212569
0.0796118
0.0794946
0.0213927
0.0516389
0.0214372
0.0216527
0.0214522
0.0220311
0.0214806
0.0214042
0.0213966
0.0222527
0.154559
0.0224545
0.021349
0.0224966
0.0225629
0.173161
2.96288
0.0697459
0.024077
3.45378
0.0214354
0.0213619
0.169123
0.0315735
0.0221075
0.0222841
0.0216592
0.160105
0.0217956
0.0253699
0.0223395
0.0338769
3.80853
0.0214486
0.0762994
0.0610013
0.0249713
0.0434505
0.0220003
0.0216979
0.0642927
1.42324
0.023185
0.0362467
2.01022
0.0869502
0.0213001
3.44358
0.0226609
0.0210807
0.0629312
3.41879
0.0214757
0.0206995
0.0230871
0.0321914
0.0330966
0.0214191
0.0224211
0.0410129
0.0216901
0.0283125
0.0255787
1.10049
0.0220395
2.23564
0.217152
0.0366043
0.0213329
0.0883059
0.0210575
0.0233646
0.0215794
0.0543523
0.021413
0.0214467
0.040453
0.068172
0.19303
0.0219084
0.0212589
0.0232132
0.0213924
2.85551
0.023457
0.0227947
0.0221424
0.058243
0.0460257
0.0234494
0.0231557
0.0435508
0.0216854
0.021846
0.0233456
0.0221412
0.17487
0.0211528
0.0323258
0.0219774
0.0215197
0.0467805
0.0846005
2.70313
0.0214565
0.0631442
0.436484
2.96691
3.42342
0.0334932
0.02152
0.0244983
0.0299961
2.64952
0.0218718
0.025054
0.0269988
0.030408
0.021257
0.0529323
0.044427
0.763541
0.0221072
0.0216826
0.086193
0.3338
0.0213845
0.0244704
0.0327637
0.021082
0.0224928
0.0442449
0.0217769
0.0214621
0.0217168
0.0243459
0.0790324
0.0359302
0.0225168
0.0219557
0.0222246
0.152949
0.0210605
0.0210007
0.0257109
0.0852881
0.0254477
3.27809
0.0243863
0.021456
0.0215259
0.0230634
0.0211982
0.0325297
0.390201
0.0213264
0.0209973
0.0220263
0.0212961
0.0221042
0.0494319
3.54996
0.0225823
0.0950186
0.0231209
0.0213084
0.225321
0.0234934
3.41814
0.0217943
0.0217616
0.0207084
0.0214872
0.0225646
0.030163
0.0424428
1.18029
0.0277819
0.0508472
0.0217956
0.0356891
0.0214315
0.0233784
0.032861
2.83049
3.0331
0.0218818
3.30935
1.69667
0.0407119
1.68439
0.0212839
0.0214057
0.0216818
0.0229065
2.90234
0.0213418
0.0694114
0.228119
0.0224585
0.0773638
0.0210418
0.0306611
0.488562
0.212772
0.0218345
0.0279033
0.110712
0.221915
0.0261953
3.66191
0.0225888
0.216002
0.0988325
0.0210391
0.0404173
0.0313434
0.0235645
0.406467
0.0302794
0.0214673
0.0232742
0.176408
0.0217441
0.0582341
0.0215633
0.0210215
0.0238627
0.0320382
0.02154
0.0760233
0.0266835
0.0239072
0.0208887
0.0215078
0.672249
0.0766656
0.14923
0.0330118
0.0249215
0.0279143
0.0256203
0.0214254
0.0227124
0.0330547
0.0231639
0.0240894
0.0205734
0.0258126
2.88622
0.021979
0.81493
0.134737
0.0216107
0.0216749
0.0213373
0.0284609
0.0365866
0.0213261
0.0253763
0.0230148
0.0219735
0.0211135
0.0220867
0.021302
0.0216159
0.0220519
0.0219905
0.0267577
0.021451
0.156786
0.61828
0.0214511
0.0297894
0.0216443
0.0238904
0.0317778
0.416072
0.029111
0.0209957
0.0213478
0.035867
0.0446468
0.144862
0.022764
0.0476663
0.11824
0.0219602
0.0214926
0.148904
0.0498434
0.0306868
0.0216724
0.0232778
0.0227179
0.0233455
0.0211626
2.00565