/*--------------------------------*- C++ -*----------------------------------*\
| =========                 |                                                 |
| \\      /  F ield         | OpenFOAM: The Open Source CFD Toolbox           |
|  \\    /   O peration     | Version:  v2012                                 |
|   \\  /    A nd           | Website:  www.openfoam.com                      |
|    \\/     M anipulation  |                                                 |
\*---------------------------------------------------------------------------*/
FoamFile
{
    version     2.0;
    format      ascii;
    class       volScalarField;
    location    "600";
    object      ddt0(k);
}
// * * * * * * * * * * * * * * * * * * * * * * * * * * * * * * * * * * * * * //

dimensions      [0 2 -3 0 0 0 0];


internalField   nonuniform List<scalar> 
13917
(
8.96991e-05
-2.28345e-06
-3.47049e-07
4.17973e-08
-1.34168e-06
-2.19445e-06
6.74768e-08
2.43692e-05
5.7832e-08
0.000364913
-6.304e-07
4.08842e-08
1.11278e-07
0.00799188
6.39516e-09
7.32792e-05
-5.16114e-08
-3.97599e-07
1.78476e-06
0.000268595
8.98208e-07
5.6496e-09
1.37677e-07
3.30697e-09
5.17285e-08
7.42828e-07
-0.00889294
0.000101038
-1.83779e-07
-2.43188e-07
1.84045e-05
1.45484e-07
4.06276e-08
0.000368517
3.97029e-08
1.58816e-05
-9.06019e-08
1.5933e-08
6.61767e-08
5.32146e-07
-7.76941e-08
-4.66725e-08
5.50137e-08
9.47441e-07
1.01519e-06
-0.000111647
5.36449e-07
0.0026882
0.000339577
3.11057e-08
4.17302e-08
-1.16559e-06
0.000214666
6.32918e-08
5.27812e-08
-1.01169e-06
6.68177e-05
1.36593e-07
-1.35419e-09
7.22059e-05
0.00477819
-2.07292e-06
-7.38191e-08
4.63321e-08
-0.00108102
-0.000105933
-6.7909e-07
1.58311e-05
3.68203e-06
0.000284772
-0.00270862
0.00033158
5.60057e-08
-5.77825e-09
1.08145e-06
4.35055e-08
-3.62654e-07
5.60406e-09
4.36123e-08
4.1305e-08
1.27801e-07
-4.03867e-08
5.84272e-08
-0.00144203
6.04857e-08
3.81861e-05
1.64365e-07
6.72148e-08
6.56064e-07
-5.62586e-08
-1.53585e-09
5.42354e-08
0.000237262
7.24664e-08
4.98326e-08
1.16524e-06
-0.011738
-1.41142e-08
6.39897e-08
-7.84164e-06
-8.14131e-08
-8.15711e-08
1.18462e-07
2.76029e-08
-4.99203e-07
0.00478475
-0.000214399
9.2523e-08
3.0945e-08
-0.0181712
7.67342e-08
0.000358078
1.307e-06
0.00256203
-0.00140133
3.91639e-08
1.43222e-06
-2.0906e-08
4.04487e-06
5.20658e-08
-4.09359e-08
3.76449e-08
8.99985e-07
8.33335e-08
0.00039899
-0.002021
4.49534e-08
1.50173e-06
4.14772e-08
2.35951e-07
7.73885e-08
-9.87209e-06
0.000119443
3.61228e-08
1.82444e-07
-0.0194556
-0.000662031
0.000160374
8.34664e-07
1.76869e-08
-0.00172443
3.49186e-09
0.00492734
4.19074e-08
6.32668e-08
8.28591e-07
-0.00268338
-0.0055416
0.00171819
6.01596e-08
6.3936e-07
-8.16024e-08
6.52812e-08
5.08266e-08
-0.0206886
-1.19175e-07
2.81843e-08
0.00027341
-7.21154e-08
-4.13275e-08
5.17648e-08
-5.43532e-05
-4.23466e-07
-0.00175455
0.00194823
1.88745e-05
8.55081e-05
0.00529316
-4.69116e-09
1.61583e-06
-1.92691e-08
-0.00052247
5.75883e-08
0.0011563
-4.10467e-07
-7.93008e-08
4.24732e-08
-1.51356e-06
7.46108e-08
-5.60832e-07
5.33637e-08
-1.12733e-08
4.05701e-08
1.40214e-06
3.94136e-06
-9.63524e-06
4.03704e-08
-3.61136e-06
-2.34273e-07
1.48043e-05
-4.62541e-07
9.55793e-07
3.29254e-07
5.1262e-05
7.43242e-08
0.000410204
1.01006e-07
0.000561311
6.21324e-08
-7.27214e-08
3.5055e-07
0.000243975
0.000154226
-8.88737e-08
-0.00124925
-2.28275e-06
5.27233e-07
5.16176e-08
-1.2947e-06
1.30193e-07
3.25421e-08
-2.12269e-06
-1.13131e-06
0.0021996
1.64483e-07
1.31163e-06
-0.000130815
5.08242e-08
9.03556e-09
1.07113e-08
0.00494532
-7.0149e-07
-2.20669e-06
6.36001e-08
-7.45302e-08
-0.0169702
0.000360048
4.56751e-09
7.56631e-09
-7.12642e-08
1.16074e-08
1.29233e-08
0.000287521
0.00181321
8.08385e-08
1.10761e-09
-2.36689e-07
0.000397958
-6.48935e-08
6.67755e-08
-0.00572204
0.00520011
2.35194e-06
-0.000112215
-1.09658e-06
4.13846e-08
0.0048426
-3.03973e-07
4.65598e-07
5.4437e-07
-5.47363e-08
0.00157087
5.48843e-08
1.25474e-07
-2.92246e-07
8.06957e-08
-5.30965e-08
4.70206e-08
-2.12126e-06
9.97784e-08
0.000400995
0.00912789
4.21298e-08
9.10875e-09
-1.91161e-07
9.78887e-09
5.28426e-08
1.12079e-07
6.57267e-08
3.50817e-08
-3.03069e-06
-0.000309816
4.09118e-08
-1.14973e-06
-1.59962e-05
1.4062e-08
7.84191e-07
0.000360589
1.64756e-08
0.000348629
8.12944e-08
2.6684e-05
-7.50057e-08
3.10566e-07
8.94686e-08
4.20893e-08
2.8728e-06
2.00653e-08
2.65992e-05
1.73171e-07
0.00819678
-1.42966e-07
3.3262e-05
7.23694e-05
-3.41681e-08
8.20656e-08
-2.11616e-06
2.53545e-08
-1.83698e-06
4.54812e-08
7.80639e-08
3.67901e-08
-1.6538e-06
5.46041e-05
1.39034e-07
4.20296e-08
6.67264e-08
0.000286375
0.000190634
2.66384e-08
3.6603e-06
3.14835e-08
0.000590434
-1.23757e-06
-0.000412797
0.000760741
0.000149636
-4.944e-06
-1.20211e-06
-0.00133822
0.00131031
8.74741e-06
1.14281e-07
1.76943e-07
-0.0036666
-8.0907e-08
-2.77876e-06
1.0335e-06
-5.85811e-08
-0.000628786
6.60902e-08
4.6802e-08
1.44839e-08
0.000355603
3.93517e-08
1.44325e-07
-2.20227e-06
9.80797e-05
-5.60081e-08
5.43623e-07
0.00403914
4.26564e-08
-8.35063e-08
0.000371774
0.00465632
0.000739848
0.0124209
1.9261e-08
8.45736e-08
0.00529515
-5.65232e-06
2.05735e-08
-1.95284e-06
4.38707e-08
3.02214e-06
1.22117e-07
-2.4237e-07
-1.36755e-06
8.95397e-07
7.08709e-08
0.000123183
5.03784e-08
4.10289e-08
-8.24226e-07
2.31437e-06
-6.50081e-08
6.79017e-05
6.1474e-08
-0.00111139
6.00472e-08
-1.9899e-06
-1.79336e-06
0.00137475
-2.21275e-07
-5.99518e-06
9.01395e-05
-2.43969e-06
4.26112e-08
-0.00140367
1.62453e-07
0.00296705
-4.32967e-07
-3.97012e-07
-3.03483e-05
1.12156e-07
0.000579512
3.31407e-08
0.000269616
-0.000952107
-3.13303e-08
-0.0161177
1.76908e-06
-2.00954e-08
0.000554975
1.27421e-06
2.34123e-09
3.03384e-06
8.48591e-08
2.63203e-06
-6.0028e-06
6.28806e-08
6.08501e-08
4.45876e-08
4.12199e-08
4.76883e-08
6.44894e-08
0.000274506
2.23873e-07
4.49413e-08
5.83183e-08
1.89696e-08
-2.68842e-08
-2.84179e-05
-3.13875e-09
-3.41293e-09
-1.18127e-06
-2.68984e-06
4.42657e-08
-1.91847e-08
0.000462647
-0.00113025
-0.000132171
1.93238e-06
-0.000264223
5.5815e-08
2.20257e-09
1.88255e-08
4.74441e-08
-3.66454e-10
9.68075e-08
1.92414e-09
4.50824e-08
0.00423357
8.52184e-08
5.19472e-07
-2.10157e-05
4.03014e-08
3.67513e-08
6.52723e-08
0.000332296
2.2362e-07
0.000368024
1.96264e-08
5.14948e-08
2.38283e-07
1.7706e-08
-9.0415e-08
1.10417e-07
0.000389432
1.40454e-05
0.00519183
4.91369e-08
9.31235e-08
6.16727e-05
1.29864e-07
-9.54645e-07
0.000775963
4.08411e-08
0.00479499
4.20638e-08
5.53839e-08
1.85424e-08
1.42496e-07
3.12468e-08
7.32393e-08
0.000119774
0.00320333
3.02842e-08
0.000176349
-7.24644e-07
8.244e-08
3.01934e-08
-1.71913e-07
0.000521737
6.3675e-08
0.00455161
0.000194305
0.000533858
1.57529e-07
3.2208e-05
6.41715e-05
-4.72664e-08
0.00128797
-8.36955e-09
6.16446e-08
4.55974e-08
5.91039e-08
9.05369e-07
2.31936e-06
2.21387e-07
-3.86001e-06
-1.73684e-06
2.35892e-06
1.7211e-07
4.75181e-08
0.0046828
8.14321e-08
1.71972e-07
0.00320668
6.76411e-08
8.16882e-08
-1.77441e-06
4.47806e-08
-3.94305e-05
5.53021e-08
1.86798e-08
-1.59406e-08
1.4768e-08
5.72727e-08
-1.50909e-06
0.000928005
-0.00503639
5.48623e-08
4.57113e-08
-2.36014e-07
0.00117574
0.0017604
5.41404e-08
5.83225e-08
5.40454e-08
-2.0427e-07
0.00305167
3.16341e-08
-6.21734e-08
-5.31248e-08
4.13285e-08
1.45518e-06
1.01956e-07
-2.42108e-08
2.30123e-07
4.48813e-08
2.39266e-08
4.46099e-08
-0.000239645
2.27981e-08
4.99685e-08
9.86654e-08
9.13982e-08
1.00342e-07
5.24523e-06
-3.36585e-07
-1.1287e-05
3.65039e-08
-1.04334e-06
0.000661465
0.0035362
-8.86687e-05
3.28496e-08
2.43483e-08
-9.22352e-07
4.34775e-08
-0.00157841
1.14774e-08
0.00582734
9.7268e-08
-0.00047697
1.42443e-06
5.41518e-08
0.000293596
3.05933e-08
-6.29413e-08
-1.4137e-08
2.20514e-07
-0.000694726
4.85116e-09
-6.54065e-06
-8.65918e-08
9.2855e-08
1.79826e-08
1.71004e-06
1.69257e-06
1.30927e-08
6.77267e-07
3.2999e-08
0.00585424
-0.00273482
0.0009672
0.000762885
2.31241e-08
0.000360214
-4.53317e-08
0.000564706
-0.00340251
6.12591e-07
-5.295e-06
-8.60412e-08
8.16285e-08
5.27689e-08
-1.44971e-09
-7.68749e-09
1.05586e-07
-0.00189659
5.72713e-08
1.1149e-07
6.53406e-08
1.29363e-08
-6.93427e-08
5.59706e-05
0.000732738
0.000365932
4.66375e-07
9.60467e-08
-0.000343483
0.000427263
3.3695e-08
0.000881473
1.02205e-07
-5.43366e-07
4.35705e-08
-0.00121679
4.23821e-08
1.92802e-06
6.35911e-08
0.00605117
7.02882e-08
-0.000364722
-1.65129e-08
8.30067e-08
-2.40379e-09
-7.96366e-08
8.7106e-05
2.85604e-05
-2.63511e-08
-1.44397e-07
6.56099e-08
9.29678e-08
-8.85337e-08
0.000127298
5.79008e-08
-2.21294e-06
9.35785e-09
-6.75835e-09
2.98572e-06
-8.29121e-08
5.68443e-07
-4.01557e-08
4.0209e-08
0.00398224
9.75048e-08
5.8657e-08
0.000142845
9.11801e-07
-1.7965e-05
-1.20954e-06
3.03605e-08
-2.77737e-08
-0.000229437
-1.00073e-05
-5.06507e-08
-8.06145e-08
2.16307e-06
-3.83063e-08
7.61182e-08
0.000311081
1.87022e-08
8.75758e-08
0.00501062
7.1753e-08
-4.92039e-05
0.00190306
7.74281e-05
1.12896e-07
7.17481e-07
0.000351903
7.71161e-08
-6.6192e-06
0.000379079
4.09714e-08
-4.6648e-09
-7.439e-08
1.97413e-06
7.08793e-08
0.000378421
6.19296e-08
3.50399e-08
8.61808e-07
-5.37358e-09
-0.000410581
8.10364e-08
3.67244e-08
0.000507948
1.25192e-07
-0.00140754
5.29274e-08
-6.78186e-07
2.40593e-08
4.59752e-08
7.19989e-08
5.14112e-08
0.000308944
2.28863e-07
0.00377164
-0.00172773
-7.20128e-06
0.0012296
4.53261e-08
3.6406e-09
-1.18167e-08
0.000348053
-0.0109661
1.08907e-07
0.00038426
0.00207085
3.99654e-08
2.81687e-08
-1.01414e-07
0.00421933
0.000572863
6.72951e-08
4.54929e-08
4.96268e-08
-4.97849e-07
-7.08225e-07
-8.55757e-08
6.87917e-08
5.30521e-08
3.99742e-08
3.93372e-09
7.17968e-08
-1.51967e-06
1.83964e-06
1.21172e-08
4.36885e-07
0.000361651
-9.15216e-06
0.0029709
-5.23661e-08
-1.36047e-06
8.20063e-08
-8.71452e-06
-4.33871e-08
-5.40837e-08
0.000753934
8.32628e-06
4.37861e-08
2.85606e-08
6.22454e-08
4.5875e-08
6.16373e-08
2.85367e-06
1.64974e-05
-5.51268e-06
2.6899e-07
3.178e-08
-1.89068e-05
5.75878e-08
5.94689e-08
4.94295e-07
1.00823e-07
-5.59136e-08
0.136549
1.777e-08
1.68273e-07
-7.33138e-07
6.76732e-08
6.0164e-08
3.50217e-08
7.47143e-08
0.000224115
3.98995e-08
8.73185e-08
4.76971e-08
4.84033e-08
3.53556e-08
-9.85521e-07
-0.000412785
6.73721e-06
-0.00172866
2.5426e-06
0.0052067
6.04664e-08
-3.24851e-07
-0.000248432
8.14713e-07
1.93584e-06
-5.34491e-08
-3.37494e-09
5.40402e-08
-1.29199e-08
5.06412e-06
5.82896e-08
-0.000375779
8.6463e-08
-0.00194469
-4.46529e-08
6.41313e-08
2.20673e-08
4.91972e-07
1.36439e-07
0.000263855
7.05886e-06
-5.98422e-08
-0.000339288
4.00342e-08
0.000420748
5.26167e-08
3.0259e-05
-6.06661e-07
4.36344e-08
4.5413e-08
-0.000803237
7.39959e-08
-1.83735e-05
0.00088
4.59519e-08
7.497e-08
-2.68114e-09
-5.07079e-06
0.000603167
1.12262e-09
0.00421603
5.15257e-08
8.70203e-06
1.33251e-06
3.76907e-05
3.0436e-08
-1.22663e-09
-1.50371e-06
3.2136e-08
6.90808e-08
1.35819e-08
3.61889e-08
5.74379e-08
2.96178e-08
2.72896e-05
6.21669e-08
0.000129933
0.000397456
0.000573764
0.00531503
0.000728097
0.000104158
0.000339539
3.48392e-08
3.9653e-08
5.37027e-08
3.5239e-08
5.42666e-08
7.24428e-08
5.94636e-08
-4.18068e-05
6.60617e-08
0.000159355
4.01598e-08
6.11534e-08
-1.27968e-06
3.719e-08
6.32183e-07
3.87957e-08
2.48078e-07
7.18691e-08
1.61479e-07
0.00210505
-1.04354e-07
0.000583544
2.66654e-08
5.63076e-08
-4.58772e-08
4.06346e-08
0.00231322
3.62304e-08
2.30321e-05
3.88228e-08
-0.000346679
6.64559e-07
4.58679e-08
-5.77339e-08
-4.58011e-06
3.68815e-08
-0.00119267
0.000984465
-1.13458e-07
5.45707e-07
3.84661e-08
-8.44563e-06
1.43309e-07
1.40799e-08
9.89828e-05
-1.85861e-08
4.29057e-08
9.02227e-07
0.000125225
-1.93089e-07
0.00049367
-0.000997675
-1.28582e-08
-9.28962e-08
2.44325e-08
0.000200696
5.90155e-08
6.02509e-07
4.7591e-08
6.3473e-05
3.77882e-07
0.00212345
6.34435e-08
1.82988e-08
-0.00143502
8.09682e-08
-5.10464e-06
0.00130347
-1.40932e-08
4.68217e-08
0.00485417
-3.11253e-07
2.0815e-08
6.93302e-08
-8.35509e-10
-0.00124582
4.55149e-07
-1.86912e-07
-9.18764e-07
5.01129e-08
-0.000163063
5.02959e-08
1.29972e-07
5.21631e-08
0.000151295
0.000305724
4.88029e-08
2.96638e-07
2.03952e-07
5.41632e-08
1.87529e-07
1.413e-08
2.62157e-08
4.73872e-08
1.14292e-07
1.65522e-08
-1.39422e-10
3.24595e-07
0.00150949
0.000106534
6.73641e-07
-3.75975e-08
-0.000328231
5.69092e-08
0.00035522
0.00201094
3.04702e-05
2.01488e-08
3.61513e-08
7.0241e-08
7.65498e-08
1.96471e-08
2.17647e-07
5.70387e-08
8.85589e-08
4.62677e-08
0.000333928
0.00243862
5.26281e-08
-0.000961742
5.39592e-08
6.91021e-08
8.57595e-07
8.7595e-05
3.07147e-07
-6.46642e-08
-0.000532258
5.29356e-08
4.7818e-08
0.000408387
7.41433e-08
-0.0140766
4.22145e-08
-0.000197033
3.98522e-08
4.27086e-08
4.18976e-07
-8.48662e-06
3.73563e-08
0.000444946
-3.62758e-07
5.20374e-08
-5.96927e-08
5.43698e-08
3.23352e-08
-2.21601e-07
5.88699e-08
8.81514e-08
0.000265609
0.000490365
4.83478e-06
-3.33594e-07
3.50542e-08
0.000104708
3.3866e-08
-0.000336896
-2.61808e-07
6.26009e-08
3.66601e-08
0.000766258
-0.000978235
0.00242775
2.55753e-06
0.00222699
1.55584e-07
5.95035e-08
5.64529e-08
6.75754e-08
4.58768e-08
-9.73978e-06
0.000208441
3.78788e-08
6.02651e-08
0.000418975
-7.63986e-08
2.17405e-08
0.00709546
-0.000401725
3.6745e-08
-5.07039e-08
6.56251e-08
6.5626e-08
3.26854e-08
3.15265e-06
-2.84814e-07
5.59099e-08
0.00291133
2.47112e-06
0.000351593
0.0014812
-4.54179e-07
0.000247367
4.96403e-08
3.98967e-08
-7.94735e-06
6.70424e-05
0.000340895
6.90393e-06
1.81644e-07
4.88267e-08
4.27512e-08
-6.42328e-07
0.000313741
3.54223e-06
-1.3126e-07
2.00804e-07
3.90492e-08
1.21181e-05
4.36595e-07
-4.40272e-07
-7.25393e-08
0.000282986
0.00124386
0.000705515
-2.94132e-05
1.37218e-08
0.000152827
2.30348e-08
-1.93839e-07
-3.76402e-07
-0.00248242
6.0567e-08
2.29088e-07
8.51419e-08
-4.04465e-05
-2.60871e-08
0.000931103
8.34179e-08
-8.28555e-07
0.00101037
-3.6262e-09
-6.29644e-07
-7.05874e-09
7.70702e-08
1.32801e-06
0.000177057
3.98032e-08
3.70749e-08
3.54112e-08
0.00414371
4.71569e-08
-1.3475e-08
5.37485e-08
3.83701e-08
4.63111e-08
-1.23547e-06
-1.49554e-07
-1.21677e-07
2.87638e-08
1.16414e-05
-4.24489e-05
-1.62306e-06
-9.08948e-05
4.78483e-08
5.99903e-08
-0.00444458
8.96659e-08
-3.21717e-08
-0.000161239
0.000188102
2.27523e-06
-2.14297e-07
-4.07572e-07
0.000350919
2.84503e-05
6.2104e-07
-0.00272972
2.52151e-08
-2.29176e-07
0.000970188
5.15158e-06
0.00334819
-0.00458074
3.68605e-08
2.19334e-08
1.07403e-07
4.21537e-08
2.03128e-08
-6.54495e-06
-1.90786e-08
3.62442e-08
2.11999e-08
-4.47098e-08
0.000296846
-1.01177e-08
0.00118473
0.00285965
6.01215e-08
-1.797e-07
-2.85957e-07
4.82476e-09
4.28665e-08
2.20984e-05
4.41932e-07
0.000258697
1.63241e-07
0.00740191
-8.32572e-07
-6.23515e-07
0.00102489
7.6917e-08
-1.80282e-05
4.56921e-08
-1.11886e-05
4.32301e-08
1.37863e-08
1.07103e-06
-2.25087e-07
4.83841e-08
2.20701e-07
0.00289074
5.71458e-08
1.1919e-06
-0.00041128
7.10878e-08
5.33515e-08
-2.00682e-06
0.00233973
-0.000443499
5.23815e-08
6.2993e-08
6.56733e-05
5.93526e-05
0.000120629
4.75115e-08
4.8586e-08
4.23763e-08
5.32261e-08
1.01579e-07
-9.75333e-08
0.00301862
-2.22887e-08
5.31358e-08
0.000121277
9.0002e-05
7.25071e-07
-0.00037082
0.00748425
5.00283e-08
4.31526e-08
4.86951e-08
2.00121e-09
-1.44193e-07
0.00277022
0.000334366
-1.50841e-06
9.77133e-08
1.66689e-07
5.21095e-08
-0.000135994
-3.15108e-08
7.4623e-07
6.82883e-08
-1.00165e-05
-0.000146005
4.9399e-08
5.48949e-08
0.000314893
1.23426e-08
5.6296e-05
0.0024659
-1.63009e-06
2.20386e-08
1.28962e-05
4.16273e-08
6.83378e-08
0.000737722
0.00182804
7.41181e-08
2.15878e-06
1.18997e-06
5.30387e-07
4.1185e-08
2.64485e-08
5.6027e-08
3.25586e-08
4.62716e-08
1.09624e-07
2.83942e-07
0.000293005
5.08542e-07
6.917e-08
7.68646e-08
-7.40394e-07
3.59718e-08
8.50619e-07
9.50138e-06
2.24922e-06
-9.15488e-05
1.83273e-08
2.14204e-08
0.000100655
5.10838e-08
0.000390868
4.47122e-08
6.19225e-07
4.0791e-08
5.14028e-08
-0.000143696
8.66679e-08
6.28731e-08
6.21201e-08
-0.000494576
-0.000144438
0.000439854
6.2739e-08
3.48906e-08
-0.000596366
-4.3127e-08
5.92648e-08
-2.0427e-06
0.00429879
1.37536e-07
8.13036e-08
4.05347e-08
0.00390443
5.59092e-08
6.21048e-07
4.84494e-08
2.21054e-08
2.5861e-06
5.52025e-08
3.03089e-08
-3.58561e-05
8.43347e-08
0.00159955
-3.47858e-06
5.8769e-08
7.72073e-08
3.81308e-08
2.37659e-08
-2.14963e-07
8.73937e-08
4.29917e-08
-4.76362e-06
4.612e-08
-1.68319e-07
6.05848e-07
-1.83685e-05
6.65156e-08
-1.14856e-05
5.6721e-08
-0.000100255
1.82748e-08
-3.42825e-05
2.7479e-07
9.00445e-08
1.85008e-07
8.16862e-08
7.77691e-08
5.95361e-08
-5.1768e-06
5.25225e-08
4.82763e-08
-0.000139461
-1.66511e-06
2.2107e-06
3.45433e-08
3.37971e-08
-5.36344e-08
5.44754e-06
3.97274e-08
-0.000182148
3.06899e-08
4.0487e-08
6.23458e-08
2.12117e-08
1.72638e-08
2.83582e-05
-0.001007
3.97514e-06
0.000178813
-3.39629e-05
-9.66209e-07
1.79798e-07
0.000390379
2.05154e-08
1.12387e-08
8.21609e-08
0.000734714
2.2602e-08
0.000379977
7.46739e-08
2.66077e-08
-2.23813e-06
-4.28712e-06
0.000312751
-8.33933e-05
8.23117e-08
-5.54233e-06
5.25891e-05
7.85028e-09
0.00035655
5.53264e-08
-7.92803e-08
0.00245687
1.77675e-08
0.000293525
-0.000391432
3.90722e-08
4.5589e-08
1.08665e-08
0.00127306
-8.68854e-08
2.54407e-08
2.91238e-07
6.50312e-08
3.37699e-08
4.64138e-07
2.3141e-08
1.22447e-07
5.62189e-08
-7.98755e-07
3.44187e-08
-4.33144e-05
-2.16533e-05
3.52116e-08
3.49895e-08
3.57684e-08
6.26032e-08
5.02097e-08
1.50582e-08
5.47295e-08
5.53266e-08
6.8083e-08
1.46742e-08
3.91138e-08
3.24009e-06
2.09739e-08
4.43805e-07
1.06977e-08
-2.63745e-06
5.36646e-08
4.06971e-08
4.34843e-08
1.78741e-08
6.66124e-07
6.25194e-07
5.69508e-08
0.00103448
8.6157e-06
-4.20933e-05
-0.00033774
5.53387e-07
0.00531161
3.14745e-08
3.98522e-08
-0.000139288
-0.000406391
-1.56132e-08
0.00044485
3.60249e-08
-9.95332e-07
0.000812326
5.00763e-08
2.20226e-07
0.00205488
-0.00877868
-3.03521e-09
1.24975e-07
5.37741e-08
-9.45475e-05
5.36454e-08
-0.000108688
0.000395102
3.84354e-08
-1.19362e-05
-4.01449e-05
-5.48683e-08
0.000968687
9.27483e-05
1.15578e-08
4.89097e-08
0.000367948
0.000274156
9.27327e-09
7.73547e-08
9.60688e-08
9.24267e-06
-1.48577e-06
6.32344e-08
5.41969e-08
0.00122849
3.12812e-08
6.05654e-08
4.43803e-08
3.72301e-08
0.000765084
6.27456e-07
7.39009e-08
8.0619e-05
4.75622e-08
3.15188e-06
5.7392e-08
0.000307642
-1.21991e-07
0.000394712
5.13493e-08
6.94843e-08
-4.77068e-08
9.54442e-09
5.47515e-08
6.2115e-08
0.00121603
1.39229e-08
3.50385e-08
5.83225e-08
0.000739293
4.74059e-08
-0.00319731
0.000966232
0.00433385
5.57586e-08
4.79834e-08
5.34646e-08
0.000893083
6.1928e-08
0.00498669
-5.08643e-09
-0.011821
-1.09149e-08
2.24371e-07
-3.72475e-05
7.21409e-08
-5.14506e-08
0.000324493
1.37214e-06
0.000342074
1.53822e-07
-8.12368e-05
0.00147644
7.1955e-08
0.000442976
7.89611e-08
4.69231e-07
0.00544233
1.12974e-07
-2.62631e-06
0.000160751
-1.07716e-06
3.73093e-07
6.54016e-08
0.00272019
5.87641e-08
-0.00500297
5.42335e-08
0.000305809
5.95344e-08
7.89812e-08
-4.9401e-07
0.00123062
4.24768e-08
6.45144e-06
2.13732e-07
-7.05268e-05
5.52573e-08
2.4938e-08
-0.000668964
-1.61451e-05
0.000556574
-3.37966e-07
5.40328e-08
1.07535e-07
-0.0140177
-9.61693e-08
-0.000343535
2.02086e-08
-2.03395e-07
0.000209216
4.21842e-08
0.000149975
6.20907e-08
0.000468662
0.00100129
3.69476e-08
-1.96951e-07
-0.00502634
0.00432892
6.01517e-08
4.42374e-08
3.74717e-08
7.50574e-08
-0.00210375
-2.97808e-07
-6.93785e-05
1.09652e-07
1.2681e-07
0.000251323
2.74646e-06
0.000143628
0.00201648
6.81541e-08
5.44313e-08
-7.66935e-07
5.89105e-05
0.00273023
0.00144051
-4.96134e-06
7.83906e-07
-6.79523e-06
-0.00112816
0.00106834
0.00411439
5.04139e-08
-1.28799e-07
2.37655e-08
-4.81146e-07
4.53609e-08
5.90801e-08
-2.09629e-07
-4.65201e-07
0.00291204
1.09898e-08
0.00585556
0.00018658
6.95163e-07
6.04459e-08
6.00394e-08
-1.79524e-05
5.58571e-08
0.000579097
1.50088e-07
-2.20386e-06
2.33291e-07
-0.000149948
3.55823e-08
8.79633e-08
7.65155e-08
4.11082e-08
0.00202654
6.18707e-06
0.00186429
5.19423e-08
0.000442194
-0.000154943
2.7697e-07
1.48595e-08
1.16325e-07
-1.07024e-06
5.22995e-05
-1.35185e-06
2.87564e-07
-0.00229545
-0.00277616
-8.07858e-09
9.93429e-08
2.67314e-07
8.32493e-07
0.00038196
-4.9428e-08
3.49212e-08
3.53129e-08
2.61203e-05
0.000131951
7.35068e-08
2.95163e-07
1.22676e-06
4.74951e-08
-8.08015e-05
-9.82199e-08
0.00169737
9.23962e-07
-0.00155222
0.00492017
7.61159e-08
-1.6139e-07
-0.00100082
5.14485e-08
1.48033e-06
-0.000299613
1.08053e-07
2.47471e-06
6.0166e-08
1.39979e-07
0.000502736
-0.000629524
6.57804e-08
-0.020722
-0.00161364
1.83029e-08
-9.01879e-07
4.41651e-08
-1.97423e-06
0.00132088
-4.74293e-05
0.00147091
-8.871e-07
-0.000183722
1.49628e-07
-1.16911e-07
-4.74507e-08
5.44401e-08
4.32001e-08
5.1715e-08
-0.000108787
-6.25376e-06
4.0474e-08
-2.68227e-06
-1.58277e-06
4.94543e-08
0.00398489
-0.000552934
-1.91927e-07
6.55907e-08
-5.40871e-08
4.25014e-08
1.1149e-07
5.78283e-08
0.0058743
7.54631e-08
-1.85192e-07
-2.38718e-07
-4.0698e-07
-1.91074e-06
-1.07436e-06
0.00464464
4.33001e-08
3.47366e-08
3.95535e-08
5.9326e-08
-0.000507012
-4.79059e-07
-5.84974e-08
0.00818533
9.58049e-08
1.12134e-07
-1.42297e-06
4.2939e-08
2.71367e-08
-1.58297e-07
7.58124e-08
0.000199404
0.000609065
9.60229e-05
5.58959e-08
-0.0034279
5.31334e-08
9.62622e-05
3.51411e-08
1.96463e-06
0.000493962
5.79023e-08
1.06932e-05
0.000429826
4.41144e-07
7.48179e-08
-3.75454e-08
1.69071e-07
0.000830449
3.94864e-08
5.15028e-08
3.77374e-08
1.34473e-08
-2.78837e-06
8.23836e-08
8.7841e-08
5.86115e-08
-7.89753e-09
-0.000595235
8.14019e-08
4.85598e-07
9.55902e-07
-6.9399e-06
-0.000355025
-0.0136705
8.17989e-08
1.29384e-07
-0.000273614
4.99571e-08
3.44468e-07
5.803e-08
-0.00144703
2.03269e-08
-1.3977e-08
-1.20831e-06
0.000105518
5.81301e-08
5.15947e-08
2.18268e-08
-1.01415e-06
0.000545133
-1.19105e-06
6.10034e-08
1.33302e-07
4.72606e-08
2.14405e-06
-7.3631e-08
-0.00118047
1.07182e-07
9.03725e-08
-0.000142352
-1.16301e-06
0.000422591
4.83111e-08
4.34651e-08
1.92985e-07
-2.10512e-06
-2.74984e-06
5.41942e-08
7.09792e-08
-3.42013e-08
0.000131292
5.59747e-08
8.52718e-08
-0.00108098
-1.37716e-08
9.95466e-06
6.14273e-08
3.16894e-08
7.90913e-08
-0.00358068
5.18e-08
0.000949336
0.00104667
5.86851e-09
-0.00096471
3.92217e-08
-8.53658e-07
5.35995e-08
8.05587e-08
1.60771e-08
6.98109e-09
5.61453e-08
0.10184
1.07422e-07
-0.000129705
-0.000363235
5.50977e-08
4.72856e-06
8.38915e-07
0.000189334
4.95829e-08
-0.000611809
-0.000932757
-0.000907111
3.33445e-08
4.55316e-08
4.07487e-08
0.000144652
-0.000832908
-1.63498e-06
7.48157e-08
7.77565e-08
0.00553422
5.93633e-08
4.62953e-08
6.50305e-08
-1.03189e-06
-0.000128747
2.33699e-08
6.26582e-05
4.58228e-07
6.01629e-08
0.000893243
1.504e-07
-0.00260734
-0.0209217
5.07789e-07
2.61593e-07
8.74638e-08
-4.31617e-07
7.5171e-08
-1.96138e-06
1.47998e-06
5.99473e-08
5.72788e-08
-1.23088e-06
0.00180298
3.83805e-08
-1.18041e-06
-0.0030024
-0.0156183
6.35845e-08
4.42843e-08
-0.000189128
-5.50554e-05
-4.88111e-06
6.05494e-08
-0.00353726
-1.08426e-07
4.88383e-09
0.000349593
1.63209e-07
7.44273e-08
2.02307e-05
4.06467e-08
9.37744e-06
5.28783e-08
8.39714e-09
4.71574e-08
2.20551e-08
-0.000972473
8.55672e-09
5.74567e-08
2.76128e-07
5.61191e-08
-1.26217e-07
1.7336e-06
6.91474e-08
5.92518e-08
1.16035e-08
2.06074e-08
3.85096e-05
0.00010845
9.67866e-05
-0.0205012
2.00282e-07
-0.00330899
5.43885e-06
-0.000213129
-0.000727186
-0.000189978
4.25023e-08
-1.02767e-06
5.32406e-08
6.85513e-08
6.10319e-08
1.48258e-07
-3.48242e-06
1.36095e-08
1.47482e-06
4.59488e-08
5.47267e-08
-2.58146e-08
4.84422e-08
8.1815e-08
7.50014e-08
-0.000141668
2.32513e-07
0.000149246
5.37788e-08
0.000106484
6.59707e-08
2.24427e-08
8.11066e-08
1.05535e-07
4.07285e-08
-2.97102e-07
0.000288223
1.025e-06
0.000199851
-0.00364438
-2.62262e-08
1.26211e-07
0.000544124
-1.25566e-06
2.90356e-08
4.56068e-08
6.45556e-09
-0.000405693
8.17063e-09
-7.42044e-06
-1.15176e-05
-1.77741e-07
0.0174948
0.0108783
2.59209e-07
0.00230667
1.89628e-08
2.42266e-08
8.89537e-05
0.00442746
4.36737e-08
6.35335e-08
-0.0186828
5.07875e-08
-8.43996e-06
8.43908e-08
-7.35299e-08
-6.39453e-08
5.83169e-08
-1.05448e-07
-3.52578e-05
0.000256195
6.17155e-08
2.65996e-08
-2.58833e-07
3.69816e-08
-6.44355e-07
4.95362e-08
-6.84517e-09
-3.37568e-07
7.85538e-08
6.97689e-08
1.54791e-09
-2.25034e-06
6.78073e-06
-3.15794e-06
0.00120555
2.0656e-07
-0.000869571
2.24918e-07
-8.26027e-07
-0.000728137
5.27892e-08
-0.000390135
3.85846e-08
-0.000158045
-5.65011e-05
-0.000254888
-0.00239597
-4.29726e-08
-1.30589e-07
0.000181985
5.32643e-08
0.000202013
7.17517e-08
4.67071e-08
6.00081e-08
4.13142e-08
7.78701e-08
-3.06575e-05
0.00117533
0.00602876
8.52721e-08
1.1291e-06
1.40592e-08
1.20693e-07
6.16402e-08
-2.16128e-06
5.96863e-07
-0.000722242
1.3694e-07
4.91481e-08
3.43683e-08
5.29047e-08
2.74982e-06
-1.2187e-07
8.01933e-12
7.83914e-08
1.53871e-06
7.89728e-08
-5.68093e-07
2.2319e-06
-0.000400627
2.14451e-07
8.39529e-08
5.17227e-08
6.0019e-08
2.11066e-05
0.000765053
2.61689e-06
4.05924e-08
0.000845481
8.49759e-08
6.41602e-08
2.23708e-08
0.000281411
1.33373e-05
7.42425e-07
5.02089e-08
0.00134263
7.55548e-08
4.72435e-08
4.61715e-08
0.00274497
-0.00139128
-2.84913e-08
0.00114695
-0.001894
1.03396e-07
6.38457e-07
-2.06442e-07
0.00162854
2.47987e-07
-0.00107855
8.82069e-08
7.84017e-05
1.62641e-06
0.00141327
7.96613e-08
3.86124e-08
0.000239867
7.50567e-08
2.20028e-08
0.00301389
0.00494856
-2.95545e-06
2.42912e-05
5.42327e-08
4.28118e-08
-0.00222556
5.38953e-08
5.85832e-08
6.34798e-08
6.94364e-09
4.81068e-08
-8.53318e-07
1.06555e-07
-0.000111365
0.000695469
4.15286e-08
0.000314335
1.06444e-07
0.000390249
0.000287386
6.42992e-08
5.11614e-08
5.90529e-08
-0.000509623
-3.05598e-06
-7.34857e-08
0.000313236
0.000125413
-0.0032419
-2.73308e-07
0.0037342
-0.000180707
1.08099e-05
-3.62205e-05
7.33773e-08
5.74182e-08
5.75666e-08
8.05213e-08
6.90287e-08
8.44535e-08
0.000374023
-6.55321e-08
0.000128778
0.00228905
0.00299583
-0.000679505
-0.000507683
1.18714e-06
0.000330265
-2.35668e-07
1.90958e-07
3.52265e-08
3.88605e-08
3.61645e-07
0.000352239
-2.00076e-07
0.000391516
-8.30709e-05
4.45437e-08
6.0515e-08
1.19676e-07
-1.00246e-06
7.97442e-08
-7.85171e-08
-0.000437475
3.88659e-08
7.12081e-08
4.34327e-08
3.80554e-08
6.58287e-08
0.000305758
3.98026e-07
0.00340175
-1.32969e-06
5.65487e-08
0.00102578
-2.44217e-06
-5.93326e-08
2.43467e-05
0.000298221
-0.000477062
0.000807812
0.000447564
5.29884e-08
0.00068281
0.000429518
-1.62071e-06
-0.000209108
6.61277e-08
-3.37722e-08
2.83419e-08
4.92088e-08
-0.00085402
-1.66869e-07
5.03416e-08
1.31031e-07
0.00139757
0.000437036
-1.48303e-07
-1.2342e-05
0.000351652
-0.000479074
5.64266e-08
1.47163e-07
-9.72432e-07
5.30175e-08
6.15081e-08
0.00162809
4.74935e-08
-1.05483e-05
0.00101354
0.000380713
4.11355e-08
2.66271e-07
2.66279e-06
6.64274e-08
-5.0142e-09
-0.00355551
0.00244076
9.47583e-08
-8.3224e-07
-6.27547e-07
-2.02821e-06
-0.000447243
0.000683059
9.79109e-08
0.000785654
-0.000317369
1.42933e-07
5.86356e-08
-4.08292e-06
2.46766e-08
1.85062e-08
0.000254094
7.70163e-07
-8.01533e-07
5.67821e-08
1.11235e-07
5.17599e-08
3.39282e-08
4.20114e-08
4.19756e-08
0.000924609
5.24922e-08
0.00108736
0.000185053
1.87042e-07
3.45185e-07
0.000813976
0.000423504
0.000903414
-2.54071e-09
6.10012e-08
1.33705e-07
9.18184e-08
-7.77799e-06
-0.00128679
4.4369e-08
0.000897399
0.000311206
1.04525e-07
5.5823e-07
3.25842e-07
5.4838e-07
4.437e-07
4.26524e-08
1.57453e-07
-3.88179e-07
-6.72167e-07
-1.05904e-06
-2.80723e-07
1.66728e-07
-1.93581e-06
5.53603e-08
7.89854e-08
7.37072e-07
3.94115e-08
-0.00558295
0.000985531
-6.00499e-06
0.000240168
1.51822e-08
3.14963e-08
0.00013039
-0.00192004
4.15664e-08
-8.22427e-08
-9.62062e-08
0.00769263
-0.0207206
6.56279e-08
-9.17959e-07
7.63935e-08
-0.000313314
0.00132082
5.28691e-08
-0.000377523
0.000444431
1.23163e-06
-0.00106441
-7.39499e-07
-0.000362631
0.000280718
-3.19596e-09
0.0022828
0.00015709
1.38876e-08
-4.13678e-07
-1.08662e-06
5.11426e-07
4.98096e-08
-0.00132155
0.00496122
4.84656e-08
5.30587e-08
5.11027e-05
-1.0966e-05
-6.26451e-07
4.71521e-08
-1.16585e-05
-2.5818e-07
6.81955e-05
7.87848e-05
6.34315e-08
5.74892e-08
4.09655e-08
4.69928e-08
-0.00148288
-0.00225757
3.26936e-05
5.26913e-07
-7.52163e-05
0.00316918
5.13653e-08
5.3343e-08
0.000423431
5.87798e-08
-0.00035981
-7.31027e-08
-0.000882878
4.18976e-08
8.39845e-08
-0.00286359
5.8609e-08
1.23551e-06
-0.004531
1.13563e-07
9.76459e-08
4.31369e-08
-2.84049e-06
0.000366277
-1.00849e-06
0.000297682
3.39883e-08
-4.82853e-09
6.95023e-08
-5.58632e-07
0.00310179
0.00763393
-1.18672e-06
-1.37414e-05
1.42794e-06
-0.00261791
-7.1956e-06
3.45337e-08
4.02179e-08
3.56291e-08
7.07403e-05
-3.72922e-06
-0.0025101
9.51165e-07
1.00473e-06
4.79776e-08
-0.000163203
0.00311639
-0.000380904
6.17924e-08
4.38402e-08
9.32131e-09
0.000415243
-3.34196e-06
0.00351483
0.000148307
1.4394e-06
-5.58072e-05
3.64085e-09
9.75034e-08
-9.06929e-07
-3.83624e-05
2.89425e-05
7.40571e-08
1.20184e-06
1.08805e-07
3.10837e-08
-1.66013e-06
-0.0142145
0.000738836
7.82112e-08
-9.16098e-07
-8.34582e-06
-0.0014187
0.000429663
-0.00129327
0.00105901
2.93828e-08
-1.4205e-07
1.14975e-07
1.01212e-06
7.31477e-08
-1.35471e-06
3.19869e-07
4.73956e-08
-0.00128318
-0.00667687
1.61165e-08
1.55908e-06
0.000195482
-1.09413e-06
2.87442e-07
0.00369699
-8.70563e-07
-2.1453e-08
2.53786e-07
-0.000255381
1.09452e-07
-2.46404e-06
-0.000120527
-0.000742229
0.000162654
-2.27594e-08
-0.000946854
0.000198408
-0.0224645
-0.000188839
8.36316e-08
1.25824e-06
1.1653e-06
-0.0014816
-1.00247e-05
4.20992e-08
-0.000219863
-2.92914e-06
0.000358041
7.3001e-08
0.0044914
7.69606e-06
0.000454322
5.89348e-08
0.00929527
3.28422e-08
0.000179933
-2.50523e-06
-0.0014847
0.000310777
4.77654e-08
9.70724e-09
0.00044818
0.00187005
6.017e-06
4.07116e-08
1.04029e-06
5.24728e-08
-0.00239933
-3.91359e-06
0.000118192
9.17942e-08
4.00773e-05
-1.98717e-06
0.00200546
4.14158e-08
3.11057e-05
0.00506465
1.67561e-08
-2.3489e-07
3.57048e-09
5.70641e-08
6.19859e-08
0.000340804
4.82311e-08
5.99461e-08
-4.47027e-06
0.000467272
3.51894e-08
0.00253558
3.89735e-08
3.33366e-08
4.55813e-08
5.71232e-08
5.46174e-08
2.81122e-06
-0.000362819
2.21861e-08
-0.011481
3.20264e-07
9.83982e-08
-0.00126191
4.7393e-07
8.68081e-08
7.21841e-08
6.23431e-08
-0.000152626
-8.26214e-07
0.00293424
9.99997e-08
-0.000253133