/*--------------------------------*- C++ -*----------------------------------*\
| =========                 |                                                 |
| \\      /  F ield         | OpenFOAM: The Open Source CFD Toolbox           |
|  \\    /   O peration     | Version:  v2012                                 |
|   \\  /    A nd           | Website:  www.openfoam.com                      |
|    \\/     M anipulation  |                                                 |
\*---------------------------------------------------------------------------*/
FoamFile
{
    version     2.0;
    format      ascii;
    class       surfaceScalarField;
    location    "350";
    object      meshPhi;
}
// * * * * * * * * * * * * * * * * * * * * * * * * * * * * * * * * * * * * * //

dimensions      [0 3 -1 0 0 0 0];
oriented        oriented;


internalField   nonuniform List<scalar> 
20673
(
4.8767e-15
4.2202e-15
-1.44983e-15
-6.95468e-13
-2.62157e-13
1.57705e-12
0
0
0
1.75868e-12
6.89848e-14
-2.14522e-12
1.65346e-11
4.78786e-12
4.11008e-13
-1.19355e-17
9.88037e-18
1.0788e-18
0
0
0
0
0
0
0
0
0
-3.40187e-15
4.71813e-16
2.19505e-15
0
0
0
-3.42033e-15
4.77441e-15
-5.34943e-17
3.25346e-13
2.57594e-07
0
1.50215e-07
-6.05616e-14
9.98582e-14
-2.34813e-14
1.14717e-13
9.94877e-14
-3.17494e-14
8.75266e-13
-4.64568e-13
-1.03677e-12
-4.47244e-15
5.63122e-17
1.10556e-15
-1.00785e-15
0
2.92522e-11
-1.89961e-11
1.23278e-12
-5.43031e-12
-4.3909e-13
-1.43175e-11
0
0
6.49964e-14
9.9648e-13
9.69135e-15
0
0
-9.61013e-12
-5.07531e-12
-1.23293e-12
0
0
0
-2.44342e-15
1.00396e-16
-8.07436e-16
2.33732e-17
-9.92048e-17
3.03327e-16
-1.77992e-16
0
-1.06133e-15
0
0
0
-6.81901e-16
7.07336e-16
8.33542e-15
2.48737e-14
2.56854e-14
-2.76263e-14
-4.87551e-15
-3.61907e-15
2.28119e-15
7.78331e-15
-1.68716e-14
6.5227e-15
-7.86814e-13
-1.80234e-12
3.83231e-12
0
0
0
-2.81225e-12
3.90233e-12
0
0
0
-1.71129e-13
7.30045e-14
0
0
0
-3.21766e-11
-2.74257e-11
4.68168e-11
-2.8201e-12
-2.74014e-11
1.58878e-11
6.34639e-11
6.88123e-12
-7.55348e-11
1.20681e-16
1.30898e-15
0
-2.78389e-12
3.56696e-12
-7.65472e-13
-4.57523e-15
3.20295e-14
-2.81747e-15
1.00923e-15
-2.94727e-15
2.62864e-15
6.44769e-16
-1.12528e-15
-4.05931e-18
5.70896e-17
4.91206e-18
6.86678e-12
4.8345e-11
-4.97643e-11
-1.27701e-13
-4.45334e-14
-2.46297e-14
-1.04121e-14
3.7649e-13
2.48502e-13
4.14984e-19
1.83592e-18
3.72984e-15
-1.0982e-14
6.93833e-13
2.40093e-13
-7.95147e-14
-4.06328e-14
7.43464e-14
0
0
2.20671e-12
1.3914e-13
-2.99584e-12
-2.85686e-13
2.44152e-13
1.32672e-14
6.22915e-13
-3.36532e-12
0
0
0
-7.33698e-13
1.35904e-12
-9.95537e-08
2.14313e-11
-1.34264e-12
6.45254e-17
1.6136e-15
0
0
0
2.24256e-13
-1.26966e-11
-1.20438e-12
1.95787e-13
0
0
0
-1.83622e-14
-1.09279e-15
1.91422e-14
1.16987e-14
1.82582e-11
0
0
0
0
0
3.05297e-12
3.46486e-13
-4.46714e-17
4.93464e-19
0
4.19391e-15
-1.38942e-15
-1.26131e-15
0
0
0
-1.22969e-12
7.33056e-13
1.1751e-13
5.47013e-16
-7.41871e-16
-1.7535e-16
9.24376e-13
1.6874e-11
-1.08427e-11
6.98504e-12
-5.21699e-12
-2.15187e-12
-3.18412e-12
-8.72274e-17
-5.89343e-16
-1.5386e-18
0
0
0
0
0
-4.88455e-13
-2.03481e-13
7.11902e-12
1.79087e-12
-1.81313e-13
-7.57008e-17
3.67502e-16
-2.63288e-14
-1.05006e-14
3.20818e-12
2.73523e-11
0
0
0
0
0
0
1.27786e-11
-2.29675e-12
-8.2538e-12
-9.08304e-14
3.68648e-13
-6.76902e-14
-3.87154e-16
4.25529e-16
1.2175e-15
1.55984e-15
4.83513e-16
0
0
0
-1.26898e-15
1.26862e-15
0
0
0
0
0
1.65747e-15
1.85891e-16
2.85438e-11
9.08255e-12
-2.10877e-11
3.43143e-15
-1.01724e-15
9.42023e-16
0
-9.72807e-17
-9.79553e-14
-1.39535e-13
-1.30355e-13
3.55035e-12
-1.76882e-11
1.25711e-11
0
0
0
0
0
0
8.44386e-16
0
-1.28635e-12
3.87781e-13
-4.12636e-15
-2.24887e-15
1.02268e-14
0
4.07137e-16
1.67142e-17
0
0
-2.98949e-15
1.14816e-15
2.8639e-15
0
0
2.82845e-14
-6.34734e-15
6.39613e-14
0
4.47103e-17
-8.74558e-16
5.92481e-12
7.9213e-13
-7.19184e-12
9.49734e-19
1.1306e-17
0
0
0
0
6.37795e-15
-8.20245e-15
2.07615e-14
2.90985e-12
-1.56528e-11
0
0
0
0
0
-1.20308e-15
-2.16428e-16
4.65558e-12
-1.49154e-11
-4.56879e-12
7.46156e-14
1.25632e-13
-1.34586e-12
1.11865e-12
1.49902e-13
-1.51619e-11
7.51303e-12
-1.41884e-10
-3.598e-11
1.938e-10
-1.86628e-18
0
-4.56014e-16
2.03635e-16
2.36396e-14
7.48073e-14
2.50489e-12
2.50745e-13
-9.56375e-12
-3.45984e-14
-4.35514e-16
0
3.27295e-16
0
0
6.95199e-15
3.64676e-16
1.55498e-15
2.56747e-16
1.83573e-12
5.47478e-14
2.35652e-14
2.13578e-15
0
0
0
-2.76931e-12
1.71163e-12
-2.21325e-13
-9.33737e-13
-6.12432e-15
6.1975e-13
-1.9805e-15
9.70523e-16
0
-8.08846e-13
-1.35982e-14
0
0
0
0
0
0
3.63696e-13
3.0141e-13
3.14727e-13
1.06563e-11
5.88409e-12
-9.03277e-15
6.3548e-15
9.67733e-14
-1.16684e-15
2.33205e-18
0
0
0
0
0
0
1.41689e-14
-9.51195e-15
0
3.30199e-14
5.90747e-14
-7.50131e-15
0
0
0
7.64922e-15
-2.32062e-14
0
0
0
0
0
0
7.86118e-16
-5.93914e-14
-1.21653e-14
6.41285e-15
3.91902e-16
-1.22665e-15
4.36767e-15
2.16974e-11
1.02783e-11
-2.07198e-12
0
0
9.43136e-16
-2.96766e-15
0
0
-9.53559e-14
-1.74028e-13
6.30657e-16
7.91563e-17
3.50152e-15
-7.85701e-12
5.1636e-12
5.62926e-13
1.54357e-15
-2.16116e-15
6.91444e-16
3.46634e-15
-4.96516e-15
0
0
0
-2.04808e-30
0
1.9199e-16
1.52296e-13
-1.26609e-15
-6.35362e-14
-1.83404e-16
-3.94523e-16
0
-3.20076e-15
3.05481e-15
8.34053e-17
0
0
2.33661e-17
-7.098e-18
0
0
-9.03859e-12
7.02198e-13
2.82515e-12
1.17288e-15
-1.49398e-15
9.24217e-15
8.58461e-16
7.7962e-12
-9.29968e-12
6.71692e-12
3.54612e-14
1.50315e-15
2.00871e-14
-2.72687e-14
0
0
0
0
0
0
0
-9.9767e-15
-5.66413e-15
4.09315e-15
0
4.28747e-16
-3.62948e-16
0
0
0
0
0
0
0
0
-1.2395e-12
1.51735e-11
8.55878e-13
8.3266e-17
-7.87355e-16
3.25565e-19
-2.46018e-15
2.73468e-16
-6.85152e-11
-9.01058e-11
5.76117e-12
3.20313e-12
0
0
0
0
4.2242e-16
6.55632e-16
-4.59792e-13
2.54329e-13
6.11843e-14
-3.09473e-11
3.83594e-11
5.67672e-15
0
1.08948e-15
0
0
0
0
0
0
0
3.9702e-13
9.76653e-15
-4.55411e-13
-3.53141e-14
0
8.3982e-16
-2.84713e-16
-2.72286e-16
0
1.26158e-13
-4.83511e-13
0
0
0
0
0
0
0
0
-2.17492e-12
2.02157e-11
0
0
0
-1.43868e-15
2.69498e-15
-1.2563e-15
0
0
-2.08105e-17
-1.57175e-13
-4.80102e-12
6.04676e-12
0
0
8.73074e-13
-1.18805e-11
2.11349e-15
-1.72338e-15
-9.43371e-16
-5.2566e-11
2.098e-11
0
0
0
0
0
0
2.20058e-13
-4.60457e-14
0
0
0
1.4142e-13
-3.13733e-14
1.64772e-11
-7.58554e-12
0
0
0
-3.17588e-15
-1.53158e-14
3.93157e-15
0
0
0
0
0
-5.29777e-11
-9.39421e-11
1.2744e-10
-3.25182e-15
2.56832e-14
0
0
0
0
0
6.192e-12
2.39163e-13
1.18549e-11
2.10471e-12
-1.6289e-11
0
0
0
0
0
-2.62593e-12
-3.74399e-14
4.18724e-12
0
0
0
0
0
0
-2.43738e-15
0
-1.7059e-14
1.5828e-14
-5.05866e-15
-3.69601e-13
3.28945e-11
1.7753e-15
-7.11939e-16
5.30759e-15
0
0
0
2.50787e-12
3.90599e-13
1.4373e-12
0
0
0
8.11479e-16
2.04766e-16
-4.87415e-18
-5.05378e-13
-1.66686e-13
-6.21e-13
5.56291e-13
8.41929e-17
-8.90518e-17
1.07693e-15
0
0
0
0
0
-3.16149e-14
1.95233e-14
-1.09516e-13
4.8235e-14
3.8195e-12
-4.20073e-12
3.61547e-13
0
0
0
0
0
0
0
0
-1.03607e-12
3.80341e-12
0
0
0
0
0
0
0
0
5.09903e-31
1.86145e-16
0
-9.2419e-16
2.9106e-11
5.61758e-12
4.1784e-13
-2.10981e-11
2.51285e-15
-2.62954e-15
1.43146e-15
0
0
0
0
0
0
-2.2482e-14
-8.25295e-14
0
0
6.04689e-15
-1.03065e-14
2.26632e-10
-1.10463e-10
-9.83342e-11
0
0
0
2.00561e-11
-1.99343e-11
7.73813e-13
0
-3.10417e-16
-8.81746e-14
-1.6096e-13
-2.85333e-12
6.69148e-14
2.09695e-15
1.79414e-14
9.81079e-16
-1.25315e-15
7.56429e-15
-2.00449e-15
3.01432e-15
0
0
-4.37462e-14
4.52362e-15
2.61688e-14
6.89883e-14
1.45901e-12
1.62025e-13
-2.46016e-16
0
8.34529e-16
0
0
0
0
1.78787e-12
-5.14078e-13
0
0
0
3.22483e-11
6.05835e-12
5.18277e-12
3.29564e-12
-1.35623e-12
-3.86116e-12
8.61615e-12
0
0
-3.29782e-11
1.70817e-11
1.45381e-11
0
2.77251e-17
7.26543e-15
-1.83567e-14
-9.45221e-14
-7.47656e-13
4.76978e-15
0
1.83732e-13
-1.69306e-13
1.33306e-13
4.42598e-19
-2.19075e-17
1.04005e-18
-7.04734e-16
9.2971e-16
0
0
-4.54453e-12
-1.73195e-13
4.50073e-13
-1.46808e-12
3.49102e-13
0
0
0
0
0
0
-2.87072e-12
4.05439e-12
4.78201e-11
-6.73736e-12
-4.13967e-11
0
0
-2.27948e-12
9.93416e-13
4.40758e-13
0
0
-5.46386e-12
1.44071e-13
0
0
-7.74878e-13
-9.85693e-13
9.20642e-13
0
0
0
-6.65298e-15
-4.02274e-14
3.75761e-14
0
0
0
-8.30697e-14
1.15083e-15
0
0
0
-1.03867e-15
-6.4625e-16
-1.03769e-14
-2.04611e-14
0
0
0
0
0
-6.21867e-13
3.15746e-13
4.32284e-13
0
0
0
1.62252e-15
7.32125e-16
0
0
-3.2527e-14
-1.69404e-14
1.00364e-14
0
-1.14848e-16
-9.43161e-16
-3.28513e-14
2.05506e-14
-1.62928e-14
0
0
0
0
0
2.03214e-30
2.24099e-16
0
0
-4.31083e-16
0
0
1.78099e-12
1.62711e-11
-2.43349e-11
-4.25315e-16
4.21829e-15
0
0
-1.12549e-13
-5.84844e-15
-5.11612e-13
6.57411e-14
-1.26604e-13
4.34712e-14
0
0
0
0
-2.99243e-13
-4.53847e-14
-6.16166e-15
-4.44335e-16
3.10075e-16
-3.02788e-16
0
6.44292e-12
-3.32253e-11
3.00947e-11
0
0
0
0
0
1.83733e-11
-2.42169e-13
-1.80234e-13
6.69297e-13
6.94801e-12
1.78752e-11
5.45397e-13
2.94382e-12
1.3648e-11
0
3.92071e-16
0
0
0
0
9.13701e-17
-4.67688e-17
0
0
-6.55995e-12
4.20263e-12
9.59845e-13
0
0
0
0
0
-9.09219e-15
8.65564e-16
8.18406e-15
0
0
0
0
5.92777e-12
-5.83773e-12
-9.22217e-12
0
0
-4.70124e-12
-1.26132e-12
-2.02542e-12
0
0
2.71766e-12
-2.25734e-12
0
0
0
0
2.62892e-13
-2.18481e-13
4.01361e-15
-4.55512e-12
1.79883e-12
-3.60352e-12
-5.60936e-16
-1.8158e-15
1.03088e-15
1.68318e-16
0
0
0
0
3.29686e-07
-2.35963e-07
0
0
0
0
3.29839e-15
3.55664e-15
-2.59576e-15
-1.00014e-15
1.23073e-11
-5.29879e-12
0
0
0
0
0
3.02771e-12
-4.04189e-13
-2.99057e-12
-5.6653e-16
0
2.40591e-12
-1.61142e-12
1.0428e-11
0
0
0
-1.45359e-12
2.11971e-13
-4.59587e-11
4.22805e-11
-1.84071e-14
3.21153e-13
1.99887e-13
-9.0814e-16
0
-3.11525e-16
4.56343e-13
1.78309e-13
0
0
-7.402e-16
3.55125e-16
0
0
0
0
1.94728e-16
0
1.02491e-15
-3.81338e-13
-2.46254e-13
3.812e-17
-7.76356e-17
1.16424e-15
2.54252e-13
-4.32856e-12
-1.22368e-12
0
1.8163e-14
-2.43584e-15
-8.77631e-12
4.85112e-13
7.65659e-12
0
0
2.53659e-12
1.91319e-13
8.87578e-12
4.02825e-12
5.80509e-12
2.60132e-13
-2.23331e-12
0
0
3.53359e-11
-2.78937e-11
0
0
-1.75071e-16
0
-7.50953e-17
-1.2998e-16
0
4.53326e-16
0
0
0
0
0
2.34633e-16
-5.39848e-16
4.57559e-16
-2.71848e-16
-3.04914e-15
5.4817e-13
3.98269e-12
0
0
0
1.98303e-15
-9.32995e-14
-9.14056e-15
-8.00211e-15
6.43391e-14
5.1173e-12
6.64904e-12
0
-1.0065e-16
0
-8.36822e-17
0
-5.63157e-14
-5.5989e-14
6.66438e-14
0
-1.00957e-15
4.02982e-18
-7.1357e-17
-3.24873e-14
6.55589e-14
1.54457e-13
0
0
-3.22126e-13
1.39512e-14
4.90718e-14
0
0
0
-1.33875e-12
-2.1807e-13
-1.18319e-11
-1.79751e-11
0
0
0
0
0
0
0
0
0
0
-5.50785e-17
0
0
0
0
0
0
0
0
1.58848e-10
-1.1368e-10
-2.20961e-11
2.26186e-15
-2.52674e-15
1.79363e-15
1.81704e-15
-3.24213e-13
9.0833e-14
2.352e-13
5.77475e-13
0
0
0
5.46297e-15
-1.71596e-10
-5.03965e-11
2.47729e-10
-2.7103e-15
2.5114e-15
5.27447e-16
8.2702e-15
-4.12727e-15
-8.43988e-15
2.42266e-18
0
-7.07754e-17
-1.66939e-12
-2.49943e-12
0
0
0
0
1.99265e-16
-2.45014e-17
0
0
0
0
0
0
1.53622e-11
2.94886e-13
-1.61964e-12
7.17379e-11
-2.81452e-10
-5.43228e-15
1.3361e-14
3.58367e-12
1.37532e-11
0
0
0
0
0
-1.53463e-14
-3.5891e-15
0
-6.10528e-16
9.25882e-16
-1.22941e-13
3.93363e-14
0
0
0
0
-6.07994e-16
-1.14278e-15
0
0
0
0
0
0
0
3.08749e-17
2.81654e-15
0
0
0
8.60827e-16
8.86382e-16
5.21607e-15
0
0
0
2.1246e-18
3.57994e-15
-5.28855e-15
1.19282e-15
0
0
0
-2.16647e-10
-1.32596e-10
3.55943e-10
0
0
0
-4.92213e-14
1.29299e-13
2.62514e-14
-6.22722e-13
3.04045e-12
3.11216e-12
7.03543e-15
-1.83564e-14
-1.5526e-14
-3.79984e-13
-3.12898e-13
0
-4.50358e-17
0
0
-1.64053e-12
9.43583e-13
8.76447e-11
1.6955e-10
0
0
0
-2.01941e-16
0
5.95521e-14
-6.69863e-12
0
0
-2.21215e-13
-6.05964e-13
6.494e-13
1.39573e-16
2.24215e-18
9.58151e-16
8.68298e-12
-9.36291e-13
-7.00688e-12
0
-1.07647e-16
8.57318e-17
0
0
0
7.26818e-15
4.79606e-14
2.98191e-13
-1.18541e-12
4.26882e-13
0
0
0
0
0
0
0
6.09787e-13
3.99204e-13
0
2.41936e-16
4.19834e-17
-2.27023e-17
0
0
0
-8.06726e-13
8.97108e-12
0
0
0
0
0
-8.81338e-15
8.43235e-16
5.46852e-15
1.09189e-11
-2.33621e-12
-2.32165e-13
-1.24584e-13
5.65303e-13
-2.05846e-15
0
0
-9.56022e-11
1.46362e-11
-3.71834e-12
1.7285e-11
-8.80827e-12
-1.71563e-11
3.25704e-11
1.9666e-11
-2.31112e-11
0
0
0
0
-1.46318e-15
0
0
0
-2.98477e-14
-1.1132e-11
2.93356e-11
-4.04506e-12
0
0
0
0
0
1.39156e-14
1.64695e-15
-1.06378e-14
-1.80006e-12
6.81009e-14
-1.94083e-12
-1.24868e-11
-4.2858e-12
-1.31461e-12
3.61991e-13
0
-4.85314e-17
-2.36132e-17
-6.30134e-12
5.04757e-12
6.35923e-13
-2.44494e-12
1.89347e-12
-1.45184e-14
0
-1.58781e-15
3.26926e-15
-1.92471e-14
1.57562e-14
-5.89984e-14
-3.04729e-12
-2.81356e-13
-3.09381e-14
8.1687e-14
-5.15199e-14
-8.26443e-15
6.52679e-14
0
0
0
0
0
0
0
0
0
0
0
0
0
0
6.57328e-13
5.63382e-12
-2.14133e-12
0
0
-1.57026e-13
-4.87926e-14
1.61497e-13
-1.1851e-13
2.59387e-13
1.56848e-14
0
0
-1.44908e-15
0
1.48931e-16
-1.58643e-11
5.96264e-12
-3.38962e-12
0
0
0
0
0
0
0
0
0
0
-9.80363e-15
9.44488e-16
2.78116e-15
7.42424e-15
2.76275e-15
7.2512e-12
-1.10752e-11
0
0
0
0
0
0
-6.93605e-13
2.3642e-13
7.81363e-14
2.82703e-15
-8.59211e-14
0
0
0
0
-2.25349e-07
-1.31798e-07
2.42949e-15
5.40368e-16
0
0
3.07048e-13
-2.05726e-14
1.31574e-13
3.79586e-14
-1.73936e-13
1.98304e-12
-8.32629e-13
1.55643e-15
-1.41383e-15
9.53547e-17
8.14443e-16
-1.66693e-13
7.47635e-17
1.35571e-15
3.91612e-17
0
0
0
0
3.51219e-13
-2.72879e-13
-1.67366e-13
0
0
0
0
-4.70468e-14
1.80352e-14
-2.30411e-16
1.83894e-13
-4.52623e-13
5.12308e-13
0
0
0
0
0
0
0
0
0
0
0
0
8.1167e-12
-9.74931e-11
0
0
-1.38086e-15
6.67228e-12
-1.87299e-12
-3.27737e-14
-3.73962e-15
2.89076e-14
1.30856e-15
-6.39958e-16
0
-1.57789e-16
-1.11248e-15
-3.60541e-15
1.17442e-15
0
0
0
0
0
2.19501e-14
-6.25322e-15
-3.12579e-15
0
0
1.06318e-14
5.98074e-14
1.36804e-13
0
0
-6.78584e-12
2.10251e-13
-9.17883e-12
2.62796e-12
0
0
0
0
7.80881e-16
-6.79323e-16
0
3.776e-14
1.30705e-13
-7.17109e-14
-2.69295e-28
-7.69599e-14
4.77132e-13
1.37691e-15
-1.30647e-15
-3.09027e-19
0
0
-8.91641e-14
1.51842e-13
-1.11113e-16
-1.49081e-15
1.93221e-15
6.68431e-12
5.48789e-13
0
0
0
0
0
0
0
-4.80477e-13
3.40422e-13
-7.56037e-13
0
0
0
4.70673e-14
5.75666e-16
0
4.52443e-15
-2.68561e-15
-3.73462e-17
-4.49779e-15
4.30973e-15
2.95788e-14
-1.62041e-11
4.14962e-13
1.2667e-11
1.76909e-12
-4.46965e-12
8.37144e-13
9.98462e-13
-3.2339e-13
0
0
0
-4.77435e-15
1.06066e-14
0
0
0
0
0
2.20303e-16
2.39264e-15
2.88994e-11
-2.39162e-11
0
0
0
8.47631e-18
0
0
0
0
3.929e-12
1.14615e-13
-9.1839e-15
1.70498e-14
3.61558e-14
4.56637e-12
7.24149e-12
-1.09925e-13
1.89571e-14
1.16034e-14
7.1217e-14
7.91999e-17
0
0
3.14436e-11
-2.26065e-13
0
4.97193e-14
-8.89244e-14
2.64423e-14
0
0
0
0
0
0
0
0
-1.86415e-15
2.04852e-15
-3.3343e-18
-6.04346e-13
2.20058e-13
0
0
0
1.78574e-07
5.21059e-17
-7.26368e-15
4.17111e-13
1.14972e-12
1.12477e-14
3.50507e-13
0
0
0
0
0
0
0
-1.76681e-12
4.25011e-14
-2.18608e-13
9.3987e-13
-1.17536e-12
0
0
3.66186e-14
1.4118e-13
0
0
-2.529e-15
-7.23049e-16
-9.56356e-14
6.85775e-13
0
8.91207e-16
0
0
1.13427e-14
-3.42795e-13
5.36519e-13
-1.54852e-13
9.60598e-13
2.33745e-13
-5.46148e-12
-1.07053e-11
3.10687e-11
0
0
3.61924e-11
-2.92349e-12
3.83725e-14
-1.31621e-13
0
0
-1.07935e-13
7.11744e-14
2.84235e-14
0
0
1.31416e-13
-1.91225e-14
-4.68783e-16
-1.246e-15
-1.05729e-11
-7.32365e-16
-3.85389e-15
5.83551e-16
-9.80095e-12
6.49298e-12
-2.83104e-15
-1.30921e-16
5.6746e-16
-1.84991e-11
4.13066e-12
3.90714e-11
-1.87561e-15
0
-1.58633e-15
5.55057e-14
-2.9115e-13
0
0
0
6.16963e-17
7.93004e-16
0
0
3.31651e-11
-2.40287e-10
7.72253e-12
-9.57746e-16
1.02106e-15
-5.19137e-15
-2.76675e-15
7.39221e-15
0
0
0
0
0
0
-3.2272e-15
-9.29244e-16
-9.13631e-13
2.88634e-12
1.35122e-12
0
0
6.63882e-16
-1.46786e-17
0
0
0
0
-2.05139e-15
5.24979e-15
-2.22249e-15
0
0
0
-1.60959e-15
-4.80219e-15
0
-9.04387e-15
-4.05635e-15
0
0
0
-4.01225e-16
-2.28894e-15
-3.25331e-16
4.00539e-15
-8.97903e-16
0
-7.88424e-17
3.94229e-16
8.74605e-16
0
3.60163e-13
-8.28305e-13
3.26341e-13
0
1.5925e-15
-3.24866e-14
3.46147e-15
-3.03453e-13
-6.4349e-13
1.70566e-12
6.47618e-15
-1.61806e-13
-7.9838e-15
3.687e-15
3.75975e-14
1.60227e-14
-2.31144e-12
7.93076e-13
1.24289e-12
3.24962e-11
0
-3.96878e-15
1.43017e-15
4.97218e-13
-1.01283e-13
-1.95944e-13
0
0
-1.81167e-12
1.73824e-12
4.65622e-12
-8.03399e-13
-2.74814e-12
2.77095e-11
-1.17365e-13
9.72415e-15
2.84008e-13
-1.60244e-13
8.22441e-12
-1.32097e-11
-9.54272e-13
1.74117e-13
-4.07943e-14
-5.65168e-14
-1.94706e-12
2.02586e-11
-5.72032e-12
0
0
-1.28007e-15
4.27205e-16
0
0
0
-1.6757e-11
6.97177e-12
2.87288e-11
9.45467e-12
-1.27644e-11
3.84656e-13
-1.51233e-15
0
1.60717e-15
6.17859e-16
1.18196e-15
2.4854e-14
6.2866e-14
-3.5442e-14
0
3.24664e-16
-3.25085e-16
0
0
0
0
0
2.61775e-14
-1.2082e-15
-1.92075e-16
0
9.12633e-13
-4.13566e-13
-1.31445e-12
2.82743e-11
-1.86017e-11
1.11642e-11
-1.85148e-11
4.58586e-11
-7.81632e-15
2.20163e-13
0
0
0
2.02367e-13
1.15896e-11
0
0
0
9.42128e-14
1.71152e-15
0
0
-9.6662e-16
3.17228e-17
5.10913e-16
-2.43084e-15
9.93791e-17
0
0
4.5173e-12
-9.77911e-12
4.82292e-12
4.31041e-12
-4.24764e-12
2.34046e-15
1.5475e-13
-1.02545e-12
-2.91229e-12
-4.27024e-13
1.35237e-12
-8.31811e-14
0
0
0
8.13665e-15
-2.86518e-14
-3.48288e-13
-3.35536e-11
2.42718e-12
5.60652e-14
-2.76909e-14
-3.51236e-14
-1.7356e-11
1.00673e-11
3.41294e-12
-1.63459e-10
-7.77263e-13
1.97079e-10
1.5589e-14
5.57743e-15
0
0
1.07771e-14
6.19394e-15
-7.84862e-15
-2.84784e-12
3.02374e-12
1.27111e-11
-4.26482e-11
3.07262e-16
1.42567e-16
0
-3.11776e-13
1.31923e-12
-2.58825e-13
-2.91372e-13
-1.70475e-13
0
0
0
0
0
0
0
0
-7.50571e-15
-7.3587e-16
9.84477e-14
-1.70211e-13
-1.37628e-10
6.89164e-11
-2.79425e-11
-4.23368e-11
3.93449e-15
-2.99397e-15
1.59546e-14
0
0
0
-6.66985e-14
6.70378e-15
0
0
-4.51374e-14
-1.04599e-13
2.61684e-13
3.99039e-14
-3.52816e-14
-2.66329e-14
0
0
-8.52687e-17
1.0305e-11
5.47169e-13
4.45173e-14
2.48361e-14
8.48693e-13
2.3527e-13
-2.43784e-13
3.13048e-11
-2.97378e-11
-4.79672e-12
-8.11431e-15
3.42584e-15
2.20848e-16
5.76092e-16
3.69848e-13
1.04613e-13
-4.508e-13
0
0
0
0
0
0
4.59544e-12
1.32375e-11
-1.4389e-11
2.27699e-12
0
0
0
0
1.6096e-12
-1.09563e-13
0
0
0
-4.86924e-12
2.05569e-11
-1.36086e-15
1.08165e-12
5.78091e-14
-7.11675e-13
-9.74431e-13
8.98899e-12
4.20203e-13
0
-1.7683e-12
4.10251e-13
2.07126e-13
0
0
-8.83026e-15
1.39756e-14
-7.82003e-16
-1.56251e-11
-2.6164e-13
3.89587e-11
-3.38952e-12
-7.70166e-12
1.34183e-11
-4.22987e-13
7.25534e-13
3.01062e-13
-4.13112e-12
1.52402e-12
-1.4143e-12
7.78556e-14
1.5005e-12
8.96078e-16
-7.04019e-17
0
-3.64043e-13
-9.30594e-13
3.98866e-13
9.65916e-12
-1.9746e-12
-3.69855e-12
0
2.78042e-16
-1.50956e-16
0
0
2.18094e-15
4.10695e-15
4.72594e-15
0
-1.66157e-15
-1.34921e-15
2.33986e-13
-1.25889e-13
-8.22989e-14
-4.77919e-13
4.61684e-12
3.77217e-12
4.27758e-15
5.92625e-15
0
-3.39137e-16
1.21347e-15
1.04029e-11
2.08595e-13
-1.0407e-11
7.27918e-14
-1.48571e-12
0
0
-1.05494e-14
-1.66571e-16
-5.17335e-15
0
0
0
-1.39291e-12
6.02381e-14
0
0
-6.06341e-15
6.02467e-15
2.79043e-14
2.06601e-13
-3.24334e-13
-1.24832e-16
3.49442e-16
0
0
-1.09921e-15
5.68936e-16
-4.08302e-13
-4.48078e-12
0
0
1.16211e-11
-1.74749e-11
2.18299e-16
-2.30865e-12
-2.36247e-12
-1.66181e-11
0
0
7.36921e-13
-4.89123e-12
1.61395e-13
8.59925e-12
0
-1.6738e-13
1.21182e-13
-3.23263e-13
1.12081e-16
0
0
8.42815e-17
1.25205e-12
-1.1153e-12
2.18523e-13
4.46547e-16
5.12903e-16
-3.33924e-15
-5.95826e-12
-7.31691e-13
-3.99821e-13
0
-1.00311e-11
-1.15254e-11
1.55802e-11
1.24275e-12
2.60567e-11
6.04542e-12
-2.24988e-12
-3.94245e-16
9.2743e-13
0
0
0
0
0
0
0
1.77835e-14
9.4604e-15
0
0
0
0
0
-1.03658e-12
-2.11981e-13
0
0
0
0
2.21746e-16
1.11467e-16
-1.53334e-16
0
6.23809e-16
0
0
0
0
0
0
6.81109e-13
-6.21878e-13
-5.16371e-16
1.27851e-14
1.40226e-14
0
0
6.51696e-12
2.00094e-12
-5.00542e-12
3.5035e-12
6.65728e-13
-1.87291e-13
-8.26909e-13
5.30569e-14
8.62501e-17
-7.26451e-14
1.06287e-15
5.84956e-16
-3.06383e-15
0
0
0
-1.07672e-12
-2.96506e-12
2.0559e-14
1.15357e-12
-2.07429e-12
-3.86729e-17
-4.16749e-16
-5.73412e-16
0
0
0
-1.70809e-13
-1.44093e-13
3.61428e-17
-5.16653e-14
1.21739e-14
3.04784e-14
1.49147e-12
-1.07332e-12
-2.26547e-13
0
0
-2.41824e-15
0
-3.04649e-14
1.04401e-14
-5.28244e-14
1.12257e-13
-4.82801e-13
0
0
0
0
4.00618e-17
-1.18232e-15
-1.05933e-13
2.10886e-13
0
0
0
0
0
0
0
0
0
0
0
-1.43635e-12
6.45437e-13
1.89439e-13
-1.88184e-13
2.79444e-13
5.6792e-11
-1.09385e-10
-1.47952e-13
5.45148e-11
5.27105e-11
1.43599e-14
-6.20736e-14
-4.63516e-15
-1.14167e-15
0
0
0
0
0
0
-5.37826e-13
5.4363e-15
0
0
0
0
-2.85454e-15
6.59142e-14
9.72683e-14
3.11003e-13
0
0
0
1.13476e-12
3.93291e-14
4.83176e-13
1.71359e-14
-1.57462e-15
2.83589e-15
-1.53908e-15
0
0
2.46212e-12
-3.34077e-13
6.25743e-13
0
0
0
0
0
0
0
0
0
0
0
0
0
-2.09765e-12
3.9371e-12
-4.4812e-12
0
0
0
4.90818e-13
-1.984e-13
-3.12261e-13
-5.34389e-12
2.96101e-12
5.04611e-13
-9.92284e-14
0
0
0
0
3.8729e-12
-9.78708e-12
6.87242e-12
-1.41723e-12
-1.00809e-11
1.23054e-12
-1.11083e-13
0
2.78275e-13
4.10356e-14
-2.26062e-14
1.15898e-14
7.39351e-13
-4.87828e-12
9.26587e-14
-5.9515e-13
0
-5.03194e-13
1.04931e-12
0
0
0
0
0
0
0
3.11904e-13
-1.06084e-12
1.34863e-15
-9.37997e-16
1.46535e-15
1.38554e-14
1.4951e-13
5.10913e-17
0
0
0
0
-6.89456e-17
1.35619e-15
9.38526e-16
-5.05385e-16
3.71447e-18
6.00149e-12
5.13487e-17
8.76637e-17
3.32002e-11
1.53531e-12
-7.13982e-14
1.67892e-14
-5.27477e-15
9.20866e-16
1.47814e-14
0
5.01063e-17
-4.77968e-16
0
0
0
0
0
0
0
0
0
-2.31154e-11
4.77809e-11
-1.79579e-12
-3.82521e-31
-8.11517e-17
0
3.46491e-12
4.12649e-12
-2.93856e-14
-2.33212e-15
0
0
0
-4.41676e-13
1.41162e-12
1.83368e-11
-1.26798e-12
1.56342e-13
1.1686e-13
-1.00213e-14
1.75852e-12
-2.17388e-13
-1.36956e-12
0
0
3.42716e-12
9.71655e-12
2.4573e-12
-5.53412e-13
2.0121e-12
2.40198e-15
-2.53917e-15
-1.27441e-15
1.62884e-15
5.72673e-16
0
-1.34326e-15
1.27477e-15
-5.6463e-17
-8.80213e-16
-2.58573e-15
7.08546e-16
0
0
0
0
0
-1.50975e-14
-1.49585e-14
-1.56425e-14
0
-6.64979e-15
0
0
0
0
0
8.06404e-14
-1.66781e-13
7.74152e-14
5.64577e-13
-3.89776e-12
1.72538e-12
0
0
0
0
1.20692e-13
2.97525e-13
0
1.88052e-15
-2.10953e-16
-1.73845e-15
7.41133e-15
9.30775e-14
-2.73282e-13
3.96346e-14
4.82794e-14
-1.83772e-14
5.58592e-13
3.81026e-13
4.26141e-15
2.64733e-12
-2.66654e-12
1.35058e-15
-4.08562e-15
-9.79878e-17
0
2.87837e-12
0
0
0
-1.00163e-11
6.08864e-12
2.17099e-12
3.09983e-15
-1.11941e-15
-2.49706e-16
-1.47027e-11
-6.70275e-13
-4.72004e-15
2.41775e-15
-1.90063e-15
1.14569e-13
3.33735e-13
-2.08803e-13
-1.47218e-12
4.05391e-13
-6.45684e-12
1.07595e-11
-1.29266e-16
0
7.2433e-17
0
-2.1841e-15
-8.17634e-16
0
0
0
-6.05124e-13
1.48136e-11
-4.48762e-13
-7.27924e-13
6.45304e-13
1.18672e-15
-9.00692e-15
9.46195e-13
0
0
0
0
0
-1.96921e-13
1.24137e-13
0
0
-7.3851e-12
-3.11746e-12
0
0
0
8.38471e-14
3.87056e-13
-1.69401e-15
8.0069e-15
0
0
0
-5.2936e-16
1.23576e-15
1.66652e-12
-1.51312e-12
-2.46359e-12
-5.86785e-14
-1.35438e-13
2.65629e-13
0
0
3.3798e-12
-4.68005e-12
-1.3087e-12
4.67508e-12
-2.93572e-12
0
0
0
0
1.75837e-14
1.45964e-14
0
0
0
-2.63496e-13
-1.67425e-11
3.9856e-13
0
-1.73435e-13
-2.35017e-13
-6.98844e-12
1.04605e-11
0
0
0
-6.20709e-13
-6.91179e-13
-2.98157e-12
0
0
0
-1.37283e-11
1.2606e-11
5.0031e-12
-1.09565e-11
1.96481e-13
8.95451e-13
0
-8.76048e-16
0
0
0
7.56287e-13
-6.88653e-13
-2.14079e-12
9.74478e-13
2.27955e-13
1.9365e-12
-5.35561e-12
-6.19692e-14
-2.86151e-14
1.34833e-12
2.45151e-11
0
-1.44687e-15
1.02218e-15
6.42985e-14
1.46985e-12
0
0
2.86957e-16
0
-2.2619e-16
0
0
-6.82272e-17
-7.14862e-17
-1.76995e-12
-3.55695e-12
1.04634e-13
2.33637e-13
-8.10903e-13
-6.1868e-13
2.5332e-12
0
1.74345e-14
5.68024e-14
0
0
0
0
0
0
-2.41125e-14
1.86025e-14
0
0
-6.28612e-16
2.07223e-15
2.69132e-15
-3.979e-15
0
0
1.09448e-17
-7.96918e-33
3.9638e-17
0
-6.36122e-16
0
0
0
0
0
0
1.94045e-15
-4.0738e-15
7.49319e-16
1.39829e-13
0
0
2.06995e-15
-1.29722e-12
9.14606e-12
-2.60921e-14
-2.42018e-13
0
0
-4.95916e-15
-5.6766e-15
1.14467e-14
-3.71493e-14
-7.30516e-13
-8.07477e-16
1.10482e-15
0
0
-8.78074e-15
0
0
0
1.15557e-13
-8.8946e-14
1.1361e-13
-3.56762e-17
7.67929e-17
-3.53123e-14
1.38512e-14
7.15957e-15
0
0
0
0
0
0
0
3.04244e-16
-1.50412e-14
-2.94552e-14
2.66554e-12
-1.10947e-13
0
1.66835e-12
1.62215e-13
1.35166e-12
1.60174e-14
-9.42705e-15
1.22942e-10
-3.44239e-10
2.10325e-13
8.20473e-13
-2.57427e-12
2.05758e-12
-9.04847e-15
4.16917e-15
2.93546e-15
0
0
1.18594e-15
0
-4.26188e-16
-1.16753e-16
-3.3517e-15
2.97853e-16
0
0
1.76541e-16
0
0
4.07023e-12
1.08198e-12
-3.74978e-12
0
0
0
0
-2.05404e-11
7.74963e-13
-3.69214e-12
3.03462e-12
-3.43792e-14
2.21881e-14
-1.36467e-14
0
0
1.52636e-12
2.91737e-13
3.85349e-12
0
0
0
-1.39305e-15
-6.74376e-16
7.67654e-16
-5.14312e-15
1.19232e-15
2.17894e-15
-7.87229e-13
-2.71202e-12
2.277e-12
-4.60175e-13
-5.66164e-13
5.83422e-13
5.60262e-12
3.57256e-13
-6.99414e-12
0
0
-6.89542e-15
-5.71615e-15
-5.99226e-13
0
0
0
4.01426e-16
-4.73895e-17
-2.26271e-15
4.48836e-16
0
0
2.03173e-15
-6.44809e-16
0
0
0
-1.82351e-15
-3.47519e-14
6.88434e-14
1.0975e-13
0
0
0
0
0
0
0
0
-7.2098e-14
2.89662e-11
-5.57863e-12
1.90472e-13
7.18096e-13
4.57557e-12
-7.19384e-13
4.66119e-14
-1.70757e-13
-3.76801e-12
2.28629e-12
-1.07441e-13
-1.11948e-13
-4.50103e-15
2.51688e-15
2.75711e-17
1.5715e-13
-7.23517e-13
-6.31228e-13
0
0
0
-6.11809e-12
-7.06972e-12
2.15073e-14
2.9262e-12
2.21452e-15
0
-2.06664e-15
9.83974e-16
0
0
3.09673e-13
-4.0289e-13
0
4.39278e-12
8.90654e-13
-6.73232e-16
5.08035e-31
0
1.31513e-11
-2.71444e-12
-3.08771e-15
3.30914e-15
-3.80022e-13
1.0054e-11
0
0
0
1.17642e-16
0
0
-7.41829e-14
0
0
-5.61009e-13
2.22992e-12
-8.98129e-13
2.62449e-14
0
0
3.11576e-13
-1.15349e-12
-2.2308e-14
3.34511e-13
4.2491e-14
8.27184e-16
-2.11884e-15
1.43062e-14
-3.19964e-14
0
-1.44031e-12
2.22066e-14
2.27749e-15
-2.76647e-14
4.10475e-13
9.22517e-13
4.76412e-12
-1.26635e-13
-2.75714e-15
6.77653e-15
-3.10677e-13
1.47584e-14
3.48732e-11
-1.16589e-11
-2.95086e-12
-8.18814e-14
2.39477e-14
0
0
-8.97383e-14
1.66818e-13
-5.9161e-14
0
0
0
2.5518e-15
0
0
2.05106e-14
-3.18731e-14
7.65523e-12
3.00654e-11
-2.33217e-14
2.52712e-14
6.48469e-15
0
5.60592e-17
0
-5.30409e-13
-8.73626e-14
7.55573e-15
-1.45942e-14
-1.02237e-14
4.24072e-15
2.45548e-15
3.57128e-16
-6.76011e-14
5.49856e-13
-2.19584e-12
0
0
0
2.21122e-15
0
0
0
-3.43329e-11
4.85979e-12
-3.22273e-11
-1.65634e-11
5.36945e-11
0
0
-2.95709e-13
1.29164e-13
-5.08564e-12
1.29728e-11
-7.1535e-16
-5.62285e-16
2.76246e-12
-4.40272e-12
-5.54261e-14
1.22108e-14
-4.4469e-14
7.59548e-14
-3.68422e-14
-5.98061e-17
1.69348e-15
1.02456e-15
-7.25462e-17
-2.44358e-16
1.58666e-13
0
0
0
0
0
0
0
0
0
-2.47678e-15
1.35457e-14
-7.80527e-15
0
0
0
0
0
4.94051e-15
6.85192e-15
-1.02549e-14
0
0
0
7.75013e-14
2.80907e-14
-2.99794e-14
0
0
2.43812e-16
0
2.31217e-16
-2.19656e-12
1.60568e-12
1.6672e-12
1.26264e-12
-3.9125e-12
-4.14842e-13
3.37672e-12
-1.25007e-11
1.26769e-12
-5.89761e-13
-2.72423e-13
-2.17078e-15
-1.69844e-15
6.42894e-15
-1.27421e-13
6.46884e-14
-1.07368e-14
0
0
0
-3.08126e-14
1.40216e-13
-5.38501e-14
-5.47657e-15
-1.5827e-15
0
0
-1.65353e-15
-9.79421e-15
3.76755e-15
-2.4979e-13
2.01543e-13
-1.47148e-14
0
0
8.23067e-13
-4.49014e-17
-1.50822e-16
0
-1.82758e-13
7.42807e-13
1.51341e-15
9.99757e-16
1.76612e-12
-1.46538e-12
-2.39184e-13
0
0
0
0
0
0
-5.4305e-13
1.32504e-12
1.55928e-12
-4.06475e-13
-7.72296e-13
0
0
-1.1957e-14
4.99015e-15
0
0
0
-1.30502e-12
-1.26894e-11
1.20301e-11
1.91447e-12
0
0
3.67181e-14
2.35961e-13
-4.74368e-13
6.83784e-16
1.02284e-16
1.88296e-15
-4.16911e-16
0
-1.66833e-12
7.24444e-13
2.589e-15
-1.95091e-15
-1.93259e-15
-5.50028e-14
3.02441e-14
-3.46756e-11
-4.00373e-11
3.5775e-11
0
-6.09732e-17
0
2.11875e-17
3.93699e-13
-1.34663e-13
1.15878e-13
1.77318e-13
-9.46962e-14
3.78637e-14
1.30245e-13
4.152e-14
3.42851e-15
1.22433e-15
-1.39992e-15
-7.66121e-17
0
0
-1.13691e-13
1.9811e-14
-3.18989e-13
-1.09087e-16
0
0
0
0
0
0
0
7.3555e-13
-1.24449e-12
-2.78269e-16
-2.38876e-16
-1.68205e-15
0
1.66608e-15
-1.56123e-14
1.16357e-13
4.50661e-12
4.02064e-15
-2.76433e-15
-2.49624e-15
0
0
0
3.14769e-14
-1.26894e-13
6.85837e-15
2.19303e-16
6.61166e-18
0
-1.51099e-16
4.00506e-16
-1.1623e-16
0
4.02034e-17
-3.0812e-17
-2.51033e-14
4.1976e-14
-1.1549e-12
-1.18788e-11
1.91522e-13
-6.29766e-12
9.4368e-13
0
0
0
-2.57834e-13
-1.28569e-13
2.46175e-14
6.89384e-13
2.46948e-14
-8.95143e-14
-3.84521e-11
6.93567e-12
-1.51338e-12
-1.49739e-13
5.15203e-13
-4.27486e-13
5.08734e-12
-1.03278e-12
0
0
-1.28337e-14
-6.87747e-15
-3.219e-16
0
-4.51997e-16
6.86838e-16
4.75625e-16
0
0
-6.56222e-15
4.09811e-15
3.69387e-11
-1.4484e-11
-1.38025e-14
0
0
-1.35778e-13
2.49341e-13
8.96839e-14
4.42779e-14
-4.07875e-14
0
-1.43175e-15
0
0
0
0
0
0
0
0
0
0
5.49787e-12
0
0
-1.83767e-11
2.41237e-11
8.17168e-13
4.76102e-13
-8.15887e-15
3.08295e-15
-3.61986e-15
-2.55206e-11
3.36083e-11
2.88933e-12
0
0
0
3.29797e-16
0
-1.60439e-16
-3.62408e-13
-3.75317e-12
0
0
0
-8.52174e-14
-4.21879e-13
4.01963e-12
-1.72784e-12
3.86419e-14
1.45892e-13
0
-2.12401e-15
3.71522e-14
-1.37979e-14
3.4331e-13
0
0
-4.1579e-14
5.77723e-13
0
0
0
-4.0587e-12
-1.73925e-15
-4.57622e-16
-1.16443e-11
8.02156e-12
0
0
9.46897e-13
3.64587e-13
0
0
-1.69469e-15
-2.09541e-15
0
-1.88689e-15
2.77778e-12
0
0
-1.02526e-14
-6.65262e-16
1.24997e-14
0
0
3.05437e-13
1.2348e-12
0
-1.16528e-17
-5.07344e-16
0
0
-5.96743e-12
0
0
-5.9217e-14
4.32222e-13
2.00842e-15
0
0
-2.45565e-14
1.13267e-12
0
0
1.21364e-13
-8.32678e-14
0
0
1.71319e-15
-3.43493e-17
1.53229e-15
1.48911e-16
-6.87885e-15
2.91713e-15
-4.26229e-15
1.36127e-15
-4.55117e-13
1.81628e-14
-1.12848e-16
0
1.39323e-14
-1.52131e-14
-6.847e-15
0
0
1.06784e-15
3.33395e-14
-5.5444e-16
8.14787e-13
-8.38967e-13
7.3505e-14
0
2.39556e-13
-2.06117e-12
2.51856e-12
0
-3.77218e-16
0
4.55567e-16
2.76815e-13
-4.10696e-13
-9.89609e-13
-3.10039e-12
1.91284e-12
0
-6.34331e-15
-4.60983e-13
-7.7369e-16
8.23187e-16
1.92256e-13
-1.28356e-15
-4.84573e-14
0
0
0
0
-4.49389e-15
1.62094e-14
-1.92914e-12
-5.32899e-14
1.17315e-11
-6.21841e-12
2.97211e-12
3.01797e-12
4.47422e-12
-5.84653e-11
0
0
0
3.51093e-16
1.78742e-15
3.33129e-16
-8.65354e-16
2.44992e-16
-6.82166e-14
3.46594e-14
-1.03087e-12
-1.80629e-11
0
-2.69077e-13
3.98874e-13
8.24431e-15
-4.81102e-15
0
0
-7.60081e-13
2.86996e-13
1.77712e-12
1.26279e-16
0
-2.21032e-15
2.67032e-14
-4.12011e-14
2.66272e-14
-3.00608e-17
-4.07704e-16
1.15723e-15
0
0
0
0
0
0
2.80371e-16
-5.10252e-17
0
0
0
-7.1109e-13
0
0
0
0
0
-3.0086e-18
0
-1.12354e-16