/*--------------------------------*- C++ -*----------------------------------*\
| =========                 |                                                 |
| \\      /  F ield         | OpenFOAM: The Open Source CFD Toolbox           |
|  \\    /   O peration     | Version:  v2012                                 |
|   \\  /    A nd           | Website:  www.openfoam.com                      |
|    \\/     M anipulation  |                                                 |
\*---------------------------------------------------------------------------*/
FoamFile
{
    version     2.0;
    format      ascii;
    class       surfaceScalarField;
    location    "350";
    object      phi;
}
// * * * * * * * * * * * * * * * * * * * * * * * * * * * * * * * * * * * * * //

dimensions      [0 3 -1 0 0 0 0];
oriented        oriented;


internalField   nonuniform List<scalar> 
20673
(
-0.173956
0.162267
0.011689
0.37297
-0.307149
-0.0658203
0.0205232
-0.0429382
0.022415
0.153994
-0.278747
0.124753
-0.357858
-0.120453
0.478311
-0.0198058
-0.00275203
0.0225579
0.0305672
-0.0248765
-0.00569076
0.00647082
0.0169579
-0.0234287
0.0101632
-0.0193622
0.00919901
-0.0549935
0.158269
-0.103276
-0.1108
0.108125
0.00267513
0.150414
0.00615523
-0.15657
-0.0977098
-0.00354119
-9.82777e-05
0.00363869
0.205675
-0.0399061
-0.165769
0.241516
-0.243866
0.00235024
-0.107853
0.301924
-0.194071
0.143611
-0.165679
0.0220683
0.153036
-0.0026217
0.335235
0.267037
-0.602271
-0.378922
0.57361
-0.194688
0.0274419
0.00312529
-0.599582
0.332128
0.267454
0.0383078
-0.031837
-0.30559
-0.0626415
0.368232
-0.00505983
0.0289944
-0.0239346
-0.105388
0.0782553
0.0271331
-0.100059
0.0521636
0.0478957
-0.0653923
0.0530054
0.0123869
-0.149434
0.112124
0.03731
0.15685
-0.172714
0.0158636
0.19573
-0.207768
0.0120386
-0.0959319
0.138279
-0.0423466
0.174675
-0.0497787
-0.124896
-0.388988
0.360929
0.028059
0.0893433
-0.111054
0.0217103
-0.369128
-0.230454
-0.0029458
-0.000194699
0.0031405
-0.189253
-0.0536959
-0.0138252
0.000789074
0.0130361
-0.585821
0.59571
-0.00988998
0.685121
-0.39225
-0.292871
0.368449
-0.542816
0.174367
-0.0503531
-0.017588
0.0679411
-0.171536
-0.157327
0.328864
0.0976056
0.0701096
-0.167715
0.149499
-0.00588829
-0.0176731
-0.113746
0.131419
-0.00379252
0.0104667
-0.0066742
-0.684581
0.439785
0.244796
0.0437268
-0.16703
0.123303
-0.281665
0.0309351
0.25073
-0.00694107
0.00314854
0.0565556
0.11812
0.167103
-0.274956
0.215327
-0.225915
0.0105882
-0.114888
0.00408811
0.269475
-0.354061
0.0845856
0.086365
0.161649
-0.248014
-0.334975
0.163439
-0.015062
-0.0161412
0.0312032
0.166305
0.206665
-0.00354186
-0.169099
0.504334
0.0162047
-0.0360106
-0.0747075
0.0823915
-0.00768402
-0.515774
0.327163
0.265528
-0.361499
-0.108896
0.107033
0.00186313
-0.161873
0.183097
-0.0212235
-0.525622
0.167764
-0.0122902
0.0224534
-0.00040335
-0.00539235
0.0057957
0.146292
-0.451882
-0.00777586
-0.00697275
0.0147486
-0.0164789
0.14501
-0.128531
0.00659502
0.000899636
-0.00749465
0.07372
0.192114
-0.265834
0.0316394
-0.0280489
-0.00359056
-0.61245
0.322334
0.290116
-0.330562
0.602267
-0.271705
-0.253816
0.00757149
0.0250643
-0.0326358
0.00285918
-0.00580498
0.0025829
0.00371668
-0.00629958
-0.214285
0.288005
0.365196
0.208556
-0.573752
-0.0857408
0.0110333
0.214473
-0.170746
0.520722
-0.152273
-0.000389297
0.00343069
-0.00304139
0.122385
-0.00191307
-0.120472
-0.0528769
0.368418
-0.315541
-0.261211
0.0509799
0.210231
-0.0381126
-0.0476282
0.0251802
-0.0350405
0.00986031
0.0876864
-0.127676
0.0399893
0.131504
-0.0018021
-0.129702
-0.0682129
-0.0352625
0.103475
0.0514127
-0.0642855
0.0128728
-0.458394
0.564286
-0.105892
0.121561
0.00922322
-0.130784
0.0184676
-0.0688207
-0.274436
0.0734445
0.200991
-0.487765
0.0906155
0.39715
0.0264467
-0.0198406
-0.00660608
-0.00193915
-0.0630137
0.0649529
0.096087
-0.11376
0.10567
0.196255
0.163817
-0.151123
-0.0126937
0.0028927
0.00643825
-0.00933095
-0.0027839
-0.0110413
-0.114481
0.133736
-0.0192557
0.0240834
0.0023633
-0.274854
0.118639
0.156215
0.00685059
-0.00752759
0.000677002
-0.361245
0.502204
-0.140959
0.0109529
-0.0121276
0.00117478
-0.00429117
0.0060267
-0.00173553
-0.0785362
0.165732
-0.0871955
0.502822
0.182299
-0.0996757
-0.00921996
0.00117796
0.00281306
-0.00399102
-0.0569294
-0.0431299
-0.613107
0.12374
0.489367
-0.247348
-0.0138628
0.100904
0.22009
-0.320994
-0.538905
-0.0742025
-0.498038
0.593299
-0.0952616
0.0224282
0.00544747
-0.00902651
0.00357904
-0.0843433
-0.190511
0.149254
-0.306581
0.20309
-0.582012
-0.12344
0.0644305
0.059009
0.00564688
0.0326609
-0.0181471
-0.155809
0.0515094
-9.66969e-05
-0.110426
0.437589
0.100361
-0.178898
-0.0962463
0.116977
-0.0207304
0.454998
-0.193187
-0.261811
-0.214298
0.277425
-0.0631271
-0.0715076
0.0240262
0.0474814
-0.0662136
0.331741
0.0359257
0.00465736
-0.040583
0.0170747
0.0441681
-0.0612428
0.0204565
-0.302122
0.507757
-0.169487
-0.338269
0.226051
-0.214913
-0.0111384
0.157012
0.00483612
-0.161848
-0.000574741
0.00742533
0.0206686
-0.117385
0.0967164
-0.0833476
-0.0425185
0.125866
0.220273
-0.216464
-0.0038099
0.00179478
0.00261339
-0.00440817
-0.175633
0.01376
0.0326769
-0.0878364
0.0551595
-0.00104315
0.00763817
-0.0727931
-0.0506465
-0.147152
0.219466
-0.0723135
-0.0863735
-0.00505717
0.0914307
0.238932
0.361979
-0.60091
0.1154
-0.0277134
-0.136403
0.0219222
0.0272254
-0.0954383
-0.204632
-0.0698033
-0.160655
0.156972
0.00368359
0.135599
0.221968
-0.357567
0.0241186
0.0974425
0.150051
-0.143804
-0.00624718
0.0166182
-0.00714243
-0.00947576
0.10965
0.0076132
-0.117263
-0.00531212
0.236195
-0.230883
0.0522961
-0.0403455
-0.0119506
-0.0419158
-0.0712215
0.113137
0.0108548
-0.0054073
0.000173232
0.0107796
0.0489684
-0.0130428
-0.258592
0.403992
-0.1454
0.00399372
0.118391
-0.0148354
0.171686
0.29994
0.155059
-0.094038
0.459234
0.19049
-0.0932036
-0.0972864
0.0303983
-0.0354582
-0.0309362
0.128433
-0.0974964
-0.000852317
0.0026471
0.153934
-0.152612
-0.00132229
-0.11002
0.0992065
0.0108137
-0.0127269
0.0796491
-0.0669223
-0.000455409
0.00303831
-0.114663
0.0967301
0.0179324
0.6253
-0.275767
-0.349533
-0.0320404
-0.0133056
0.045346
-0.10262
-0.00276825
0.639093
-0.639095
-0.306823
0.253946
0.00544455
-0.080709
0.0752645
-0.0877107
0.0882427
-0.000531978
0.0238586
0.178886
-0.202745
-0.342225
-0.342356
0.166843
-0.00248549
-0.164358
0.156499
0.000513229
-0.00713386
0.00673051
-0.075741
0.103512
-0.0277715
-0.279079
-0.109909
-0.0932218
0.362697
0.00891363
0.122591
0.015725
0.0267129
-0.0424379
-0.28751
0.073212
0.0322621
-0.0230392
-0.00922282
0.00840854
0.000709268
-0.00911781
-0.00797292
-0.102047
-0.416898
-0.0708671
-0.0585586
0.0421415
0.0164171
0.15159
-0.00572828
-0.145862
0.00994796
0.00406644
-0.0140144
-0.493396
0.293841
0.199555
0.0364469
-0.0515089
-0.398819
0.140228
-0.00153877
0.117329
-0.11579
-0.129533
-0.456288
-0.00321992
0.00116587
0.00205405
0.024423
-0.0182727
-0.00615031
0.0622816
0.179235
-0.119674
0.017428
0.102245
0.0370658
0.183208
-0.459631
0.0427336
0.00314912
0.0861942
0.126328
-0.0166778
-0.00968006
0.163614
-0.0501178
0.0192427
0.0308751
0.00992562
-0.00151708
-0.597086
0.493849
0.103238
0.195674
5.57176e-05
0.00148833
-0.00187763
-0.00351989
-0.00237222
0.00589211
-0.308279
0.54721
-0.462479
0.445495
0.0169834
-0.0156758
0.00111697
-0.12185
0.0967222
0.0251274
0.400587
-0.602431
0.201844
-0.0774506
0.0943906
-0.01694
-0.148254
0.143932
0.00432173
-0.103064
0.0166902
-0.167643
-0.0140517
0.181695
0.583219
-0.22124
0.139641
0.00670248
-0.146344
0.00897948
-0.0096189
0.000639417
-0.289931
0.389418
-0.0994864
0.0525544
-0.13447
0.0819152
-0.0384606
-0.00945198
0.0479126
-0.240205
0.341109
-0.280929
-0.073131
-0.0277106
-0.106724
0.134435
0.000306979
0.0123754
-0.0126824
0.106961
-0.0862927
0.123432
0.0670582
0.0147674
0.190908
0.240211
0.37231
-0.612521
-0.00126574
0.0024437
0.00304496
0.0336288
-0.0366738
0.0547671
-0.0907119
0.0359448
-0.38428
-0.075351
-0.00254991
-0.00629513
0.00884505
0.00209146
-0.00242865
0.000337189
-0.0387796
0.0714565
0.0307292
0.000910216
-0.123889
0.10741
0.252657
0.476644
-0.6669
0.190256
-0.144997
0.00331486
0.141682
-0.00134895
-0.0012003
0.00254925
0.12065
-0.137268
0.0166186
-0.171717
0.258082
-0.105077
0.0293362
-0.145593
-0.0170809
-0.0938357
-0.458847
0.552682
-0.0639504
0.0609572
0.0029932
0.253355
0.284705
-0.538059
0.0483514
0.00394467
-0.211822
0.235681
-0.0718658
0.472453
0.0854315
0.112142
-0.197573
0.0483927
-0.13174
0.106299
-0.111356
0.0246244
-0.102075
-0.00240143
0.13137
-0.128968
0.379781
-0.0911826
-0.288598
0.0873417
-0.0984506
0.011109
-0.0255351
-0.0245827
0.0210415
-0.0179965
-0.229871
-0.263525
0.0755826
-0.0247467
-0.0508358
-0.487676
0.0200588
0.467617
0.186989
0.192792
-0.477115
0.115871
0.0614218
-0.0443471
-0.0599806
0.522916
-0.462936
-0.109482
0.107943
-0.181706
0.0140632
-0.266607
0.402206
0.00384918
0.162994
-0.248312
0.0292117
0.2191
-0.00821006
0.00208929
0.00612076
0.0859623
-0.127878
0.12738
-0.129293
-0.277351
-0.108965
0.386317
0.070855
-0.351784
0.000849322
-0.00915045
0.00830113
0.00253949
-0.00114074
-0.00139874
0.286996
0.215209
-0.395207
0.631192
-0.235986
-0.0564706
-0.00747975
-0.290051
-0.0699564
0.360008
-3.03789e-05
-0.00536197
0.103876
-0.381227
-0.00263802
-0.000581908
-0.334747
0.256017
0.07873
0.10368
-0.00982752
-0.0938529
0.219587
-0.145739
-0.0738478
0.0177382
-0.0121379
-0.00560033
0.0638686
-0.211021
0.00202105
-0.0748141
-0.0518783
0.0105416
0.0413367
0.183082
-0.0976509
-0.0641229
-0.0577268
-0.00683108
0.0712858
-0.0644547
0.0570586
-0.282321
0.225263
-0.0036228
-0.00279894
0.00642174
-0.0523317
0.0202913
-0.000645327
0.00273678
-0.189378
0.169332
0.0200463
-0.00918685
0.000316396
0.00887046
-0.159955
-0.0592415
0.219197
-0.00140982
0.00446453
-0.00305471
-0.0446036
-0.00727473
0.0734714
-0.0943949
0.0209235
0.0947736
-0.0213022
0.0304993
-0.00997605
-0.564223
0.332408
0.231816
0.14533
0.00472163
-0.00561148
0.00850419
-0.177319
0.294048
-0.116729
0.222748
-0.000243119
-0.222505
0.00151243
-0.00161071
-0.0669044
0.0723489
-0.213428
-0.0543651
0.267793
-0.0859327
0.0732059
-0.0375898
-0.0278025
-0.605842
0.326273
0.279569
-0.00531699
0.00102583
-0.114261
0.0371105
0.0771509
-0.270009
0.523364
0.51176
-0.360101
-0.151659
0.105544
-0.59322
0.237663
0.270094
-0.0108392
0.0981809
-0.0330779
0.0491496
-0.0160717
-0.037926
0.0216554
0.0162706
0.00818267
-0.00733335
-0.371944
-0.00756311
0.379508
-0.0642025
0.116757
-0.00964976
0.0102462
-0.000596451
0.126595
-0.168326
0.041731
0.00738558
-0.000461862
-0.000887089
0.00458242
0.213623
-0.484239
0.270616
0.0926712
-0.0379041
0.325611
-0.498538
0.172927
-0.0131878
0.0496347
-0.145567
-0.189408
0.0161238
0.00161448
-0.0303488
-0.117905
0.184578
0.0865857
-0.271164
0.458342
-0.573803
0.115461
0.142888
-0.133974
-0.0953459
0.0993396
0.127442
-0.130521
0.00307895
-0.0129674
-0.0378428
0.0508101
-0.00709122
0.0056814
0.0136721
-0.00372412
0.00447116
0.13517
0.0639409
-0.118934
0.0193446
-0.481823
-0.00657975
0.00305986
-0.0170487
-0.00949066
0.0265393
-0.0329354
0.290858
-0.257923
0.097019
-0.094998
-0.309042
0.502302
-0.19326
0.0374698
0.0765963
-0.114066
-0.100802
-0.233945
-0.314797
-0.249426
-0.296087
0.112145
0.183942
-0.0235855
-0.00771224
0.0312977
-0.0786593
-0.217428
-0.0174301
0.0177371
0.00445512
-0.0015026
-0.00295253
0.0804733
-0.0859645
0.00549118
0.0277611
-0.0450116
0.0172505
-0.214261
0.271319
-0.0332995
-0.0252591
0.0383027
0.590094
-0.242084
-0.34801
-0.0688435
-0.297214
0.119895
0.217693
-0.340448
0.122755
-0.0775312
-0.071903
-0.36718
0.60739
-0.390514
0.462972
-0.0724577
0.391309
-0.0656977
0.0937898
-0.104629
-0.333461
-0.278989
-0.00775033
-0.00143652
-0.00342181
0.0359423
-0.0325205
0.00347987
0.00316117
-0.00664104
-0.0828924
-0.0317702
-0.00583831
-0.0109377
0.016776
0.0096031
0.00242144
-0.0120245
0.168444
-0.0418484
-0.474902
0.102958
0.111658
0.0158888
-0.127547
-0.268896
0.0796423
0.208973
-0.19545
-0.0135229
0.224106
0.401194
0.0158905
0.031938
-0.016213
-0.0486655
0.0452437
-0.18913
0.209778
-0.0206477
0.112424
0.026236
-0.13866
-0.164632
-0.0247462
-0.261429
0.207733
0.00623093
0.121211
0.197187
-0.243467
0.0462804
-0.0833317
0.0870321
-0.00370041
-0.174301
0.27997
-0.440533
0.380552
-0.00356051
0.00353013
0.00806478
0.00278999
0.0120468
-0.00398206
0.042556
0.09238
-0.134936
0.00614908
-0.00266921
0.006026
-0.0096488
0.00010207
-0.00554112
0.00543905
0.00634004
-0.000600042
-0.00574
0.149461
0.369585
-0.519046
-0.134298
0.002309
0.131989
0.226588
-0.0294018
0.348115
-0.26273
-0.0853852
-0.115721
0.0299067
0.0858145
0.00450256
0.490266
-0.544846
0.0545791
0.0140198
-0.140661
0.126642
-0.00484684
-0.151697
0.156544
0.00575234
-0.00386809
-0.00188425
0.346962
0.243132
0.124599
-0.00910736
-0.115492
0.00136785
0.00103652
-0.00240438
0.103578
-0.0191487
-0.0844291
0.000976957
-0.00851691
0.00753995
0.240149
-0.253721
0.220786
0.527455
0.111637
-0.149536
-0.0260969
0.513281
-0.299658
-0.0280589
-0.0104566
0.0385155
-0.0322868
-0.00563914
-0.154676
0.152275
0.00291421
-0.00571791
0.0028037
0.0237583
0.191568
0.0999408
0.0154591
0.00312546
-0.00302339
-0.00841436
0.0525825
-0.01417
0.0946433
-0.00188416
-0.0943622
0.107559
0.0170403
0.122877
-0.150143
0.0272657
0.0895215
0.0318671
-0.121389
-0.174611
0.179799
-0.00518759
0.0919803
-0.111055
0.0190748
0.0237762
-0.139357
-0.0155619
0.154918
0.107348
0.00387933
-0.111227
-0.536787
0.550637
-0.0138519
0.107221
-0.0299738
-0.0772468
0.217914
-0.0155165
-0.202398
-0.434021
0.306745
0.127277
-0.162032
0.0124955
-0.266825
0.186376
0.0804497
-3.67118e-05
0.00578905
0.00898189
0.0151015
0.0922718
-0.382323
-0.52272
0.428883
-0.0300861
-0.0102947
0.0403808
0.0124032
-0.00280012
0.59452
-0.22221
-0.00622372
0.00720068
-0.316069
0.234066
0.0820026
0.126388
-0.0983608
-0.028027
0.00542116
0.326874
-0.332295
0.00947209
-0.00594309
-0.003529
0.0623587
-0.0932491
0.0308904
0.0452566
0.180795
0.307169
-0.191076
-0.116094
0.0162875
-0.0221258
-0.11704
0.0861038
-0.012668
0.0125677
0.000100293
0.239678
-0.606857
0.000251042
-0.00903174
0.0087807
-0.00803684
0.0695091
-0.0108683
-0.0586408
-0.356453
-0.0775681
-0.00383007
0.00754675
0.0173387
-0.00888244
-0.00845628
-0.132278
0.169338
-0.0370606
0.1286
0.38316
-0.217116
0.267002
-0.0498853
-0.142634
-0.0673986
0.104868
-0.04476
0.535025
-0.52166
0.161559
0.654148
-0.442196
-0.211952
0.411282
0.242866
0.00559257
-0.00814249
-0.0476005
-0.0681207
0.0361661
-0.104211
0.116694
-0.0124838
0.577208
-0.100565
-0.0477752
-0.410618
-0.00963684
0.122061
-0.00839865
0.00364331
0.00475534
0.15159
-0.170156
0.0185656
-0.116392
0.33836
0.453156
-0.235463
-0.289326
-0.0881437
0.37747
0.0130384
0.000909639
-0.00136505
0.394345
0.169433
-0.563778
-0.263449
-0.14519
0.408639
0.00933945
-0.0242786
-0.150333
0.106999
0.112588
0.040516
-0.294237
-0.151183
0.263545
-0.112363
0.185395
-0.221499
0.0361037
-0.00462314
0.111971
0.0645783
-0.0714094
0.024222
0.102539
0.00911861
-0.152811
0.0615028
0.0913085
0.0173273
0.0861852
0.00938431
0.117996
0.455033
-0.292121
-0.162912
0.00878424
0.000195248
-0.452713
0.251392
-0.028644
0.253845
0.00664287
-0.260488
0.0750082
0.0322125
0.0838267
0.019242
-0.103069
-0.0142306
0.403292
-0.389062
0.000194074
0.103384
0.113071
-0.141338
0.0282667
0.00267438
0.00173567
-0.00441005
-0.0831555
-0.0696558
0.00532309
0.0931529
-0.098476
0.144305
-0.149152
0.325432
0.13291
0.0325855
-0.011544
0.103875
-0.0194333
0.0144411
0.00499213
0.172631
-0.346931
-0.159317
0.188453
-0.0291362
0.112925
0.00376974
-0.00186528
0.00140341
0.0129558
-0.0129565
0.120753
-0.122555
-0.0673674
0.109923
-0.0387204
-0.205146
0.199799
-0.229745
0.0299465
-0.214139
0.254655
-0.0759939
-0.0141193
0.0901132
-0.05304
0.0287299
0.149764
0.00182585
0.0130487
-0.0121337
-0.00729959
-0.00321553
-0.00945243
0.0189109
-0.218786
0.199875
-0.0108789
0.11082
0.0919871
-0.0296285
0.0877189
0.0914664
-0.179185
-0.292313
0.090581
0.201732
-0.0305848
0.00302368
0.0275611
0.0431842
-0.0280398
-0.0151444
-0.0399362
0.0305646
0.00937154
-0.0370998
-0.0715219
0.108622
-0.544714
0.0466762
-0.00373677
-0.00158022
0.00237598
-0.472002
0.457771
0.188534
-0.184625
-0.00390866
-0.00626464
-0.115448
0.121713
-0.125421
0.0294896
-0.0138492
0.125973
0.0331679
-0.0102493
-0.0229186
0.114097
-0.024575
-0.019408
0.19395
-0.174542
0.0168804
0.015705
0.26743
-0.199294
-0.068136
0.00651141
-0.000171366
0.267304
-0.575583
-0.0156009
0.409946
0.0612045
0.014378
0.0326496
0.0105346
0.0325024
-0.00771034
-0.0247921
0.0984068
0.169024
0.259803
-0.265115
-0.448441
0.184992
0.00641726
-0.15201
0.00269087
0.115659
-0.0884338
0.223036
-0.0232372
0.101303
-0.115473
0.13716
-0.264892
0.270313
-0.051218
-0.0684555
0.118765
-0.00310569
-0.0837041
0.0731569
0.0105472
-0.0503685
0.36219
-0.311822
-0.0869747
-0.024918
0.111893
-0.0747108
0.000920059
0.00353506
0.0314739
0.126795
0.109618
-0.0257915
-0.191309
0.0319924
-0.261823
0.54137
-0.279548
0.294041
0.0866261
-0.380666
-0.0927998
0.31289
-0.0896099
-0.0090685
0.0986784
0.155025
-0.0574195
-0.0543319
0.105293
-0.0509616
-0.0381995
0.0252321
-0.143112
-0.0175436
-0.223151
-0.382691
0.0303125
-0.0930483
0.0627358
0.0225363
0.00996612
-0.105144
0.0851667
0.0199769
0.0580457
-0.347977
-0.179445
0.148616
0.0308289
-0.123357
-0.398302
-0.163101
-0.0412043
0.204305
-0.0541582
0.215808
0.0036925
0.0136462
-0.292405
0.614739
-0.0702827
0.191653
-0.0038965
-0.187757
0.0840133
0.0241115
0.149573
-0.0598551
-0.0897175
0.00590028
0.000847197
-0.00674748
-0.0205874
-0.0916668
0.112254
0.0503975
-0.267514
0.00392328
-0.00327875
-0.000644533
0.0102821
0.00267291
0.356155
-0.265176
-0.090979
0.223939
0.0299061
0.102867
-0.0743576
-0.028509
0.0874049
-0.124505
0.121285
-0.000635209
-0.349524
-0.241842
0.591366
0.0338971
0.273272
-0.10405
0.0942229
0.245536
-0.060958
-0.115667
-0.0148539
-0.153766
0.126055
0.390924
-0.0968836
-0.147156
0.153482
-0.00632626
-0.0236955
0.403269
-0.176696
-0.226573
-0.269356
-0.0302964
0.299653
0.67654
-0.396142
-0.280398
0.00151289
0.00102659
-0.419447
0.622537
-0.203106
0.0139762
0.00387831
0.0127399
0.0109868
0.201524
-0.212511
0.0392392
-0.00658954
-0.0288258
-0.187638
0.0657765
0.072502
0.234344
0.121759
-0.00347893
-0.11828
-0.10214
-0.374975
0.1398
-0.00399929
-0.135801
0.32725
-0.590669
0.263419
0.111319
-0.102827
-0.00849246
-0.220839
-0.0952302
-0.0172316
0.0185994
0.0497475
-0.043292
-0.00645549
-0.00189914
-0.00649951
-0.565973
-0.073123
-0.241396
0.131428
-0.122043
-0.147961
0.165068
-0.0171069
0.000554793
-0.000316371
-0.000238422
0.012989
-0.0127264
-0.000262672
-0.13644
-0.0292396
-0.330525
-0.016558
0.347083
0.107956
-0.0141666
-0.0267646
0.0190543
-0.0857833
0.0020792
0.0601349
-0.114467
0.145051
-5.31178e-05
-0.144998
-0.0257943
-0.00631913
0.0321134
-0.16602
0.153604
0.0124165
0.161089
-0.17817
0.003581
0.0946942
-0.0982752
-0.0778273
-0.00288176
-0.151585
0.0151456
-0.00169683
0.0195563
-0.0178595
0.148961
-0.15578
0.00681874
-0.282446
0.0801509
0.202295
0.101659
-0.107923
0.0723844
0.110698
-0.408077
0.320337
0.0877406
-0.187322
0.0242205
0.0164377
0.147379
-0.17122
-0.043693
-0.380582
-0.044611
0.425194
0.182001
0.151341
-0.0148843
-0.136457
-0.0634635
0.244809
-0.181345
-0.14144
0.0257729
0.0125296
-0.343054
-0.223472
0.463056
-0.239584
0.129684
-0.549131
0.216441
-0.158091
-0.0583497
0.224774
0.225948
-0.450722
0.0254441
0.188102
-0.213546
0.629233
-0.284004
-0.34523
0.0080472
0.00142489
-0.147991
0.148829
-0.000837901
0.0391592
-0.0376432
0.238321
-0.520757
0.282436
-0.350786
-0.209403
0.560189
-0.0342776
0.0859168
-0.0516393
0.15414
-0.0312631
0.250728
-0.193492
-0.057237
0.036841
0.0132898
-0.0501307
0.136921
-0.0390056
-0.0979153
-0.0680513
0.0548635
0.0043319
0.100336
-0.127593
0.0272571
-0.0897416
0.262866
-0.173124
-0.630892
0.0193042
0.611588
0.602459
-0.191177
-0.257842
0.00953012
0.0147827
-0.0151245
0.000341819
-0.603709
0.252923
-0.0860957
0.0169938
0.0691018
-0.129739
0.155183
-0.0017307
-0.00791906
0.11134
-0.137292
0.0259523
0.113757
0.0231637
-0.0143111
0.0983244
-0.444206
0.103809
0.340397
0.279847
0.317168
0.00504483
-0.429938
0.273115
0.156823
-0.299502
0.0790711
0.220431
-0.0428488
-0.0176058
0.0604546
0.253099
-0.0169033
0.102592
0.444663
-0.547255
-0.0088719
0.179752
-0.17088
-0.0610507
-0.418458
0.479508
0.328253
-0.479969
0.151715
-0.162511
0.0144617
0.0014177
-0.000862906
0.166744
-0.179275
0.0125307
0.252327
0.150943
0.469236
0.126474
0.000794226
-0.0026595
0.00516372
0.333825
-0.104211
-0.229614
-0.108335
0.280966
0.0558001
-0.0189592
-0.0824287
0.0996044
-0.0171756
-0.0118933
-0.00175266
0.0136459
-0.111999
0.117322
-0.0494082
-0.233038
-0.237776
-0.359311
0.511484
-0.183231
0.0107395
-0.150096
-0.0149619
0.0234503
-0.0939657
0.0705154
0.0487742
0.120558
-0.00562609
0.00282715
-0.288601
0.0892492
0.199352
0.032522
-0.215675
0.183153
0.0107903
-0.0133836
0.00259326
0.141749
-0.450791
0.00238839
0.215526
0.273622
-0.359379
0.0857567
0.33825
0.260393
-0.598644
0.00624359
-0.157367
0.0868384
0.0194606
0.206325
-0.279077
0.0727516
0.0359453
0.00329383
0.00123753
0.0114775
-0.012715
0.0291009
0.225162
-0.313429
-0.119648
0.433077
-0.0912046
-0.013931
0.105136
-0.0687684
-0.327534
0.567211
-0.0853683
0.103442
-0.0180735
-0.441057
0.127628
-0.156276
-0.282525
0.3673
-0.0847752
0.441416
-0.155438
-0.285978
-0.114999
-0.243531
-0.103558
0.347089
0.0291371
-0.0876485
0.147461
0.0401791
-0.18764
0.398963
-0.58657
0.187607
0.377796
-0.509429
0.131633
-0.0188995
-0.2654
0.284299
0.0324807
-0.322814
0.290333
-0.341755
0.0723986
-0.0320265
0.044655
-0.0126285
0.291999
0.0511464
-0.343146
-0.110863
0.403965
-0.293101
0.0167782
-0.00652801
-0.0102502
-0.0211511
0.0258084
-0.153515
0.134107
-0.162797
-0.000110094
-0.123296
0.123406
-0.0520926
-0.167802
0.219894
0.475617
-0.164877
-0.31074
0.124934
-0.0548242
-0.00688282
0.114706
-0.00338704
0.276731
-0.482774
0.206043
-0.304895
0.113819
-0.00252852
0.0155176
-0.0519877
-0.0845173
0.136505
-0.001453
0.00602129
-0.00456829
0.528647
0.166385
0.000432275
-0.00157302
-0.185264
0.157714
0.0275507
-0.279706
0.0654216
0.014926
-0.0143695
-0.000556444
-0.0189509
0.0101419
0.00880899
0.356177
-0.323696
0.105937
-0.102356
0.495473
0.106986
-0.341693
0.0981625
0.432369
-0.194048
0.00076644
-0.00706157
0.476424
-0.25165
-0.330562
0.28243
-0.0478969
-0.276108
0.0757764
0.200331
0.0317185
0.0946694
-0.0919268
0.0464522
0.307241
0.074278
-0.381518
0.0973058
-0.124163
0.0268573
0.369763
0.170417
-0.54018
0.00672967
0.50805
-0.483566
-0.0244835
0.350045
0.356354
0.223684
-0.580038
0.0080019
0.458946
0.0271219
-0.010659
0.0141233
-0.00346426
0.0158675
-0.0476217
0.0317541
0.00205979
-0.181505
-0.0453505
-0.0689109
-0.0115024
0.0131771
-0.00167473
-0.279962
0.350817
0.000375756
-0.00411253
-0.0225081
0.00636685
-0.0130499
0.00154752
-0.000719189
0.0139573
-0.0132381
0.00516067
0.0116176
-0.0157516
0.018426
-0.0725435
0.102856
0.178759
0.0882428
0.00511902
-0.156305
-0.0289595
0.00652998
-0.0235786
-0.415241
0.0587885
0.0925282
0.27589
0.276744
0.0570808
0.539196
0.165439
-0.233068
0.0676283
0.119649
-0.147206
0.027557
-0.00244054
0.00221979
0.00022075
0.374676
-0.282148
0.425606
-0.188857
-0.236749
-0.00253021
0.0105986
-0.00806837
0.00801147
-0.0776763
0.0696648
-0.270587
0.251687
0.0236249
0.0239856
-0.178355
0.154369
-0.0738693
-0.207233
0.281102
0.0248054
0.0249421
0.0890307
-0.0654058
0.160634
-0.212788
0.0521537
-0.166944
-0.109164
0.0111846
-0.00994709
0.0118767
-0.00108637
0.00307418
-0.0152018
-0.365748
0.0832239
-0.0892839
-0.0277561
-0.00797028
0.121042
-0.00740748
-0.00392403
0.0113315
-0.0208012
-0.121734
0.125849
-0.00411514
0.256918
0.171166
-0.260907
-0.0780642
-0.210537
-0.5138
-0.115461
0.0652583
0.517542
-0.368082
0.170315
0.0150803
-0.0626386
-0.103382
-0.00500863
0.00278037
0.00222826
-0.136029
0.0363999
0.0996291
-0.094768
-0.235794
0.126572
-0.00449781
0.00505192
-0.000554109
0.168511
0.328165
-0.243943
-0.084222
-0.00530262
-0.000937082
0.0062397
-0.36391
0.0973035
-0.306666
0.00716368
0.0731551
-0.108837
0.0356818
0.00172043
0.00119378
0.48227
0.298873
-0.349242
-0.0196854
0.0290631
-0.00937768
-0.105758
0.0604073
-0.0295026
0.0941799
-0.0646773
-0.140974
0.0376936
0.10328
-0.0469845
-0.0640692
-0.489029
0.172913
0.316117
-0.102904
0.102582
0.000321838
0.171422
0.156743
0.0153252
0.357038
-0.372363
-0.0824943
-0.209819
-0.0419882
0.0139293
0.00120633
-0.0130996
-0.372077
0.090464
0.281613
0.505029
-0.127233
-0.0756037
0.349226
0.0204379
0.0684975
-0.184659
-0.00466651
0.189326
-0.23534
-0.194598
-0.304492
0.0910641
-0.000364619
0.366821
-0.0595803
-0.010343
-0.0769475
-0.0129026
0.0898502
-0.00880498
-0.00467147
0.0134764
-0.329517
0.0893122
0.117708
-0.0247676
-0.09294
0.18424
-0.165329
-0.00788065
0.00193756
-0.00508588
0.000588072
0.00999431
-0.00355606
-0.12385
0.12374
-0.00525247
-0.0136984
0.464722
0.00556123
-0.0291467
-0.461515
0.480424
-0.0732714
-0.152643
0.17428
-0.157245
-0.0170352
-0.0794711
-0.0392353
0.00914918
0.0456376
0.0317914
-0.077429
0.0917217
0.0183043
-0.110026
-0.0115984
0.0358861
-0.0242877
-0.288942
-0.275651
0.564592
-0.0613388
0.104167
-0.0428281
0.106623
0.334793
-0.0848091
0.157194
0.0254106
-0.0174748
-0.00793576
0.229253
0.118862
0.180408
-0.641923
0.218838
-0.269156
0.0503181
0.101533
-0.25737
0.155837
-0.00356373
-0.00144491
0.472055
-0.104086
-0.367969
0.515028
-0.1829
0.00934291
-0.0197882
0.132361
-0.112573
0.150153
-0.149137
-0.00101649
-0.0262015
-0.000563079
-0.100717
-0.0097931
0.11051
0.0142045
0.000428018
-0.0146326
0.000504604
-0.134893
0.115095
-0.167083
-0.00306327
0.00332324
-0.177794
0.00383756
0.0503301
-0.0541677
0.00238228
0.0266121
0.207426
-0.00718482
-0.200241
-0.309709
-0.0580244
0.367734
0.00225573
0.0180095
-0.0202652
-0.0401457
-0.245769
0.266225
-0.148855
0.0371841
0.111671
0.157844
-0.00625321
-0.347949
0.119389
0.22856
-0.0284348
0.193874
-0.144984
0.246517
0.156133
0.283891
0.313124
0.13933
0.00572108
-0.0266609
0.0506871
-0.369937
0.140728
-0.132671
-0.00805734
0.111029
0.210226
-0.321254
0.104084
-0.098506
-0.00557806
-0.25521
0.582459
0.156917
0.0013805
-0.135678
-0.233776
0.170312
0.32297
-0.0826448
-0.240325
-0.298786
-0.0732906
0.039012
-0.0375151
-0.00149681
-0.0934585
-0.0283037
0.121762
-0.0190981
0.0426867
-0.0235885
0.263049
0.199923
-0.325658
0.269512
0.0561462
0.00822933
-0.270765
-0.088613
0.0175064
0.118967
-0.136474
-0.127651
0.0341929
-0.23637
-0.111579
0.0269886
0.116944
-0.260144
0.371173
-0.0165604
0.0451416
-0.0285812
-0.291607
0.0458388
-0.00136168
0.195311
0.00198543
-0.000472998
-0.0790003
0.104053
-0.0250526
-0.0961944
0.403337
-0.307142
-0.223523
0.194051
0.0294715
0.00174495
-0.012404
0.357128
-0.341803
0.477528
-0.121114
-0.356413
-0.0110757
0.00366824
-0.004945
0.00571144
0.0323774
-0.197009
-0.0114223
-0.0866935
0.0981157
0.546176
-0.279139
0.231788
-0.0115899
0.240564
-0.211352
-0.35637
-0.0878363
-0.0978728
0.0243186
0.0735542
0.308996
-0.289582
-0.0194139
0.0232978
0.06534
-0.0886378
0.202225
0.400042
-0.450375
0.0940059
-0.298506
0.194295
0.00797075
-0.108687
0.00958462
0.00235395
-0.0119386
-0.219506
-0.0777072
0.00310809
-0.238744
0.235636
-0.351473
-0.137556
0.199324
-0.184556
0.484362
-0.146112
0.0208395
0.139522
-0.125503
-0.585045
0.257512
0.0136756
0.035474
0.115811
-0.0991076
0.0377688
0.00974912
-0.00372312
-0.0214683
-0.00911651
0.398376
-0.307912
-0.302816
0.0588735
-0.257707
0.340293
-0.0825861
-0.00823737
-0.17961
0.139704
0.00134895
0.00949006
-0.010839
-0.00447268
-0.00913776
0.0136104
0.231621
-0.167752
0.00572521
0.00847445
-0.0154472
-0.145797
0.148295
-0.00249836
-0.0990706
0.0876483
-0.114247
0.09366
-0.00113718
-0.0125224
0.110877
-0.00679268
0.0367919
0.054708
-0.0915
0.00645765
-0.00359847
0.137949
0.00186172
-0.13981
0.171057
-0.00331546
-0.0240313
0.0761949
-0.401969
-0.0132718
0.2169
-0.143455
0.0336161
-0.0297785
-0.126672
0.145832
-0.0191598
0.375822
-0.28355
0.124244
-0.00248483
-0.102554
0.120061
-0.00220557
-0.00138211
-0.00111355
0.00249566
0.215217
-0.000429042
-0.214787
-0.0441299
0.0325315
0.0271133
0.133518
-0.160631
-0.0202853
0.0893015
-0.0690161
-0.0540397
-0.0519485
0.105988
0.122749
-0.0910309
-0.160796
0.184781
-0.371007
0.205438
0.0382825
0.310042
-0.432748
0.122706
-0.0473472
0.207981
-0.509517
-0.027271
0.184886
-0.372618
0.114536
0.258083
0.00693868
0.109611
-0.11655
-0.0180219
0.110002
0.0116268
0.00577267
-0.0173994
0.0777229
0.0318014
-0.109524
-0.0315984
-0.0603283
-0.0381741
-0.0104914
0.0725897
0.26209
-0.366558
0.104467
0.00635529
0.00845909
-0.0391848
0.0307258
0.32732
-0.395359
0.0680398
0.354171
-0.153043
-0.0117748
0.164817
0.00238469
0.012398
0.332607
-0.593837
0.26123
0.131702
-0.00616852
-0.125533
0.0738745
-0.00198112
-0.0718934
0.123084
-0.153228
0.0301441
0.374802
-0.266816
-0.107986
-0.28991
0.23162
0.0582906
-0.181496
0.325434
-0.143938
-0.0816653
-0.06719
-0.146877
0.104358
0.233091
0.00574783
-0.0229794
0.031593
-0.0207388
-0.0108543
-0.118668
0.125371
-0.0999205
0.0145522
-0.0176847
0.155633
0.100502
-0.0899187
-0.0105831
-0.213075
0.224062
-0.206855
0.154763
0.0118588
0.0387967
-0.0506555
-0.0663938
0.0952164
-0.0288227
0.00459407
-0.00428006
0.0357184
-0.0384108
-0.592481
-0.418987
0.312529
0.106459
-0.145961
0.312266
0.348145
-0.0736951
-0.27445
0.116639
0.160786
-0.0552874
-0.0787616
0.134049
0.373847
-0.079758
-0.294089
-0.00158447
0.102507
-0.100923
-0.505771
0.444721
-0.169668
-0.301454
0.128666
-0.0149092
-0.00788394
0.109187
-0.0590585
0.0958504
-0.356947
0.0769856
0.0334655
-0.176454
-0.242533
0.0128612
0.0397277
-0.0525889
0.271627
0.230674
-0.185088
0.135309
0.458735
-0.182004
0.0216466
0.0773045
-0.098951
-0.00198037
0.0678468
-0.103109
0.277653
-0.0759022
-0.0601268
0.36096
-0.146829
-0.214131
0.149732
0.00556195
-0.00471475
0.235398
0.103628
-0.339025
0.193671
-0.276165
-0.139865
0.120077
0.17257
0.015964
0.00602383
0.282432
0.116014
-0.178641
0.0626272
0.252964
-0.28326
0.122764
-0.503346
0.13789
-0.0182402
-0.0945388
-0.170576
-0.216701
-0.239555
0.456256
-0.162179
-0.0506092
-0.00409109
-0.00552781
-0.202706
-0.0153707
0.218077
-0.0680095
0.0914597
-0.0262606
-0.00262426
-0.00299755
0.0125822
-0.224086
0.0213802
-0.452083
0.235382
0.0539265
0.124909
-0.178835