/*--------------------------------*- C++ -*----------------------------------*\
| =========                 |                                                 |
| \\      /  F ield         | OpenFOAM: The Open Source CFD Toolbox           |
|  \\    /   O peration     | Version:  v2012                                 |
|   \\  /    A nd           | Website:  www.openfoam.com                      |
|    \\/     M anipulation  |                                                 |
\*---------------------------------------------------------------------------*/
FoamFile
{
    version     2.0;
    format      ascii;
    class       volVectorField;
    location    "150";
    object      ddtCorrDdt0(U);
}
// * * * * * * * * * * * * * * * * * * * * * * * * * * * * * * * * * * * * * //

dimensions      [0 1 -2 0 0 0 0];


internalField   nonuniform List<vector> 
13917
(
(0.0120493 -0.00203915 1.10367e-17)
(0.00884325 0.0192432 -6.66039e-19)
(-0.0208061 -0.0225435 9.93259e-18)
(-0.000642536 1.62417e-05 -1.34555e-18)
(0.0100209 0.000438944 1.17111e-18)
(0.00569466 0.0191313 2.02858e-19)
(-0.000808466 0.000876797 -4.41765e-18)
(0.0583876 0.0180933 -4.74485e-19)
(-0.00060317 0.000664644 3.35904e-18)
(-0.0187755 0.0674001 -3.90269e-18)
(0.0526951 0.0162907 1.86755e-18)
(-0.000379775 -0.000306452 -1.23101e-18)
(-8.01434e-05 -2.28194e-06 -1.12114e-18)
(0.0267519 -0.114417 4.67461e-18)
(-0.00523237 0.00412098 5.59136e-19)
(0.0112883 -0.000791391 -1.10259e-17)
(-2.89289e-06 1.21452e-05 4.09531e-19)
(0.0446734 0.00556439 1.43516e-18)
(0.000682329 -0.0174422 6.62077e-18)
(-0.0154886 0.0134552 -2.85105e-18)
(0.000777581 -0.00990355 -2.16186e-19)
(0.000375906 -0.000783085 -2.95691e-19)
(0.00181383 -0.000285695 -6.80118e-18)
(0.000425486 -0.000726062 -2.367e-19)
(-0.00106057 -0.000521962 3.72417e-19)
(0.00499421 -0.0116248 -5.92349e-19)
(-0.0599571 0.147241 -4.25554e-18)
(-0.00886439 0.0436942 2.60265e-18)
(0.0233508 -0.0107053 8.39671e-19)
(0.000463074 -0.000201084 -1.83637e-20)
(-0.0242944 0.0473912 5.41681e-19)
(-0.00318488 -0.00343175 -7.39208e-18)
(-0.000655425 -0.000347122 -9.95547e-19)
(0.0163182 -0.00557199 -9.29876e-19)
(0.000654019 0.000286831 -9.58326e-21)
(0.0613748 0.0257561 -9.65633e-19)
(0.000687724 -0.000855575 -1.78043e-19)
(0.000155479 -2.5472e-06 1.27765e-19)
(-0.00076848 0.000884656 4.34303e-19)
(-0.0114733 -0.00409825 -2.33249e-19)
(-5.68777e-05 2.90136e-07 -2.74421e-19)
(0.000238725 -0.000523997 1.40283e-18)
(-0.000568628 0.000609271 1.54448e-17)
(-0.00620491 -0.0121258 -8.27414e-18)
(-0.00500509 -0.0124709 -3.89406e-18)
(0.0784827 0.0291424 2.8811e-18)
(0.000433823 -0.00839375 1.60079e-19)
(-0.105098 -0.198155 1.93356e-17)
(0.0931901 0.129297 -3.86152e-19)
(0.000685561 0.000316562 -1.59491e-19)
(-0.000363687 -0.000296697 6.91954e-20)
(0.0354096 0.00691594 2.16025e-18)
(0.0256612 0.00198521 5.29333e-18)
(-0.000197492 -0.000179039 -2.72531e-19)
(-0.00020587 -0.000171921 -6.07282e-20)
(0.0340166 0.00330775 -3.76076e-18)
(-0.0109023 0.0269942 6.84351e-19)
(0.0019755 -1.6082e-06 5.69162e-18)
(0.000408278 -0.000306247 -9.98079e-19)
(0.0807475 0.0393182 -2.03589e-18)
(0.105507 -0.0774982 -1.68464e-17)
(-0.00730116 0.00155516 -1.21213e-19)
(5.7868e-05 -4.31611e-06 5.27611e-21)
(-0.00099007 -0.000500948 -1.13889e-19)
(-0.00749009 -0.0363779 1.21726e-17)
(0.00412852 0.00495815 -1.92463e-19)
(0.0300661 -0.00721441 1.64066e-19)
(0.058942 0.03272 -7.73185e-19)
(0.0519107 0.00653109 -1.99256e-18)
(0.024179 0.000164217 -3.07246e-18)
(-0.00430024 -0.0375225 -1.03937e-17)
(0.0174621 -0.00456446 -2.32836e-18)
(-0.000366818 0.00019894 1.66538e-18)
(0.000288942 -8.12018e-05 4.87626e-20)
(-0.000395742 -0.0108922 7.9007e-20)
(-0.000976511 -0.00109569 2.33767e-19)
(0.00339705 -0.00226255 -2.05062e-20)
(0.000357188 6.42009e-05 3.07097e-19)
(-0.000906359 -0.00101863 1.26726e-18)
(-0.000692558 -0.000354177 -1.41512e-19)
(-0.000487443 -0.00038126 -3.86738e-19)
(5.87775e-05 9.97367e-06 3.0408e-21)
(-0.00034798 0.000198406 4.59632e-19)
(0.00929967 -0.0204924 -7.70698e-18)
(-5.72749e-05 -5.17816e-05 -4.8242e-19)
(0.103351 -0.0431882 -3.73218e-19)
(-0.00270986 -0.00308912 1.53832e-18)
(-4.3928e-05 -2.74719e-05 -5.7701e-20)
(-0.0104797 -0.00500301 3.23144e-19)
(-1.80847e-05 1.6751e-05 -3.69858e-19)
(-9.55687e-05 3.58806e-05 1.84486e-19)
(-0.00056889 0.000623717 -2.15708e-17)
(0.0562023 0.181972 -1.77583e-18)
(0.000558512 0.000140253 -8.28991e-20)
(-0.000136298 -0.000105735 9.96821e-20)
(0.0275842 -0.0120774 -1.49394e-18)
(-0.202422 -0.0425347 8.92834e-19)
(0.000207962 6.75341e-06 -2.57423e-20)
(-5.31831e-05 -2.87614e-05 8.19729e-19)
(-0.109054 -0.0327236 -1.01894e-18)
(-4.13701e-05 -3.54234e-06 8.36875e-21)
(-4.50447e-05 -5.35374e-06 -5.84752e-20)
(-0.000489111 -0.000288888 4.23429e-19)
(0.000270057 1.0739e-05 -4.02101e-19)
(0.00342072 -0.0016497 -8.80606e-20)
(0.023173 0.0125562 7.37158e-18)
(-0.0374437 -0.0502493 -4.33028e-18)
(-0.00792585 -0.00139992 4.76222e-19)
(0.000306268 -0.00091909 -9.25326e-19)
(-0.0438805 0.173634 1.19747e-18)
(-0.000117021 1.83676e-05 -4.54179e-19)
(0.0144923 -0.00696327 7.20629e-18)
(0.0205284 -0.0144477 -2.7258e-21)
(-0.113048 -0.20048 -3.90412e-18)
(-0.00665834 -0.0356981 -1.12263e-17)
(-0.000887173 -0.00142881 1.08266e-18)
(0.000840363 -0.0157828 3.73659e-19)
(-0.000153177 8.95998e-06 1.92243e-19)
(-0.0151505 -0.0223389 1.89627e-18)
(-0.000270128 0.000204375 -1.07569e-18)
(6.62877e-05 1.37617e-05 3.98839e-19)
(0.000122535 0.000207809 3.51883e-19)
(0.0347564 -0.00790477 -4.70804e-20)
(0.0139796 -0.00956924 -3.56183e-18)
(0.0258766 0.00247887 -1.04881e-17)
(0.00946565 -0.0197264 3.59172e-18)
(-0.000929432 -0.000403165 1.14215e-18)
(-0.000291307 -0.0126951 -2.66207e-19)
(0.0005981 -0.000240127 -5.9542e-19)
(0.0130148 -0.0108832 7.85412e-18)
(-0.0006726 0.000484701 -6.71623e-18)
(0.00506921 0.0952641 4.21631e-18)
(0.0179584 0.0117565 1.13605e-17)
(-0.000756016 -0.00147027 2.03756e-19)
(-0.0043705 -0.00525215 -1.86977e-18)
(-0.0605019 0.163546 1.5616e-18)
(0.12287 -0.0704085 1.16875e-18)
(0.0154134 0.00455217 -2.9129e-18)
(0.00829782 -0.0128564 -8.96452e-19)
(0.000106674 -3.43027e-06 5.52382e-20)
(0.0443413 -0.20008 3.1327e-18)
(0.000259543 0.000161919 -4.53637e-19)
(0.0199639 0.012452 -9.04084e-18)
(0.000182109 -0.000338529 -3.72549e-19)
(-0.000347155 0.000135285 -5.66095e-18)
(0.00377044 -0.00383011 -3.44931e-19)
(-0.00323415 -0.0359309 3.34322e-18)
(0.0102689 -0.298852 -4.9826e-18)
(-0.11156 -0.133423 1.72478e-17)
(-0.000198906 -0.000173677 4.21219e-19)
(-0.00810977 -0.0049822 -4.98904e-19)
(-2.46572e-05 -9.88354e-06 -5.91055e-20)
(-0.000333462 0.000141193 -1.72049e-19)
(-0.000262849 0.000203108 -3.01608e-18)
(-0.192724 -0.0221585 -1.41285e-18)
(0.00109046 -1.53691e-05 2.76504e-19)
(0.00027285 1.51896e-05 5.08889e-19)
(0.0156263 0.0134466 -4.07896e-18)
(-0.000111263 1.68156e-06 -1.55118e-20)
(-0.000142551 7.59746e-06 -2.09233e-19)
(-6.50683e-06 -0.000224024 2.39874e-19)
(0.00711766 -0.0838367 2.09291e-17)
(0.00260222 0.000665592 2.19157e-20)
(0.0432436 -0.13347 -2.92905e-18)
(0.0924902 -0.107815 2.11902e-17)
(-0.159913 -0.0329648 1.97932e-18)
(0.0167958 0.00178342 -4.41603e-19)
(0.0621569 -0.148222 1.37055e-17)
(0.000127812 -2.26278e-05 6.87872e-21)
(0.00993225 -0.0149036 6.5038e-19)
(0.0005649 -0.000750795 -2.73932e-21)
(0.018904 0.0038561 -3.3897e-18)
(-0.000599805 0.000640478 -8.8089e-19)
(0.101957 -0.0677717 -1.05818e-17)
(0.00890752 0.0177162 -7.36123e-19)
(-8.84686e-05 -9.86779e-06 1.53124e-19)
(-0.000642451 6.32066e-05 -1.79902e-18)
(0.0421692 0.0107609 6.73261e-19)
(-0.000665828 0.000539328 4.45109e-18)
(0.00320739 0.00075442 -4.16762e-19)
(-0.000597091 0.000614013 1.08389e-17)
(0.000515559 -0.000705372 9.69928e-20)
(-0.000350446 -0.00030022 2.94916e-19)
(0.046181 -0.02459 -5.8594e-18)
(-0.0143966 -0.0247512 -4.53408e-18)
(-0.00426413 0.103697 1.2257e-18)
(-0.000333794 -0.000286865 -7.66928e-19)
(0.0503107 -0.0217888 -3.52321e-20)
(0.000450785 -0.000249401 -6.94089e-21)
(0.0724117 -0.0422013 2.86214e-19)
(0.00764916 0.0197248 -2.90392e-21)
(-0.00409508 -0.0111017 2.19841e-18)
(0.0317992 -0.0183017 5.43349e-18)
(0.00804289 -0.00165549 -6.75138e-18)
(0.000557162 0.000134696 -1.0682e-18)
(0.0263448 0.00217993 1.51248e-18)
(-0.00212273 -0.000156492 -6.89606e-19)
(0.0193186 0.0121691 -1.2779e-18)
(0.000626959 0.000241043 -1.00921e-20)
(0.000974546 -0.00015072 5.10732e-20)
(-2.98032e-05 -0.00615588 2.54834e-19)
(0.0226372 -0.000166357 -2.3206e-18)
(0.0166584 0.00376823 7.42037e-19)
(0.000570011 8.71631e-06 -3.29858e-20)
(0.00742046 0.15898 1.16669e-17)
(0.01321 6.03182e-05 2.98926e-19)
(-0.00894874 -0.00433213 6.48114e-19)
(0.000149137 0.000123326 6.51485e-19)
(0.0398662 0.0064846 -8.07106e-18)
(-0.000535291 -0.000479568 -1.05175e-19)
(0.000461762 -3.47735e-05 -7.87267e-20)
(0.0172369 0.00588591 1.48768e-19)
(0.0209369 0.0061349 -6.04685e-19)
(-0.114265 -0.162731 -2.14573e-17)
(-0.00412937 -0.004763 -2.5223e-18)
(0.00581239 -0.0134826 5.38416e-19)
(-0.0114 -0.0499991 -2.49148e-18)
(0.000118211 -1.62212e-05 -9.104e-21)
(-0.000260233 0.00029112 8.47247e-20)
(-0.000275066 0.00026094 -9.42019e-21)
(0.0128732 -0.206299 -9.8141e-18)
(0.0389266 -0.0204649 -1.09127e-17)
(0.064133 -0.0229592 -3.69513e-18)
(-0.000155738 -7.88814e-06 1.45259e-18)
(4.89544e-05 -2.43707e-06 -3.06994e-20)
(-0.0490394 0.181138 -3.95347e-18)
(0.0265544 0.00204663 7.35765e-18)
(-0.000200967 0.000250384 3.37659e-19)
(-0.00019429 0.000235157 -5.99706e-19)
(-5.31104e-05 2.53683e-06 1.79313e-19)
(-0.000311673 0.000265446 -1.86614e-21)
(-0.000322569 0.000229546 1.58929e-19)
(0.0172343 -0.00420024 -1.83211e-18)
(-0.110842 -0.178676 2.64338e-17)
(-0.000175345 -0.000915968 2.71763e-19)
(0.00017508 -4.55894e-05 -1.17584e-20)
(0.0150278 0.00521549 3.25892e-18)
(0.0220761 -0.00165938 -1.0733e-17)
(-0.000100873 3.29345e-06 -3.1807e-20)
(-0.000153116 -1.39507e-05 1.7213e-19)
(-0.0101074 0.167658 -6.32699e-18)
(0.0211664 0.0141463 1.18418e-17)
(0.0411327 -0.0227112 5.72204e-18)
(-0.0109304 -0.0454791 -1.00851e-17)
(0.0207616 0.0294818 -7.85892e-19)
(0.000161532 -0.000358254 3.82052e-20)
(0.0911494 -0.122565 4.7807e-18)
(0.0160609 0.00363723 -1.2362e-18)
(0.0175247 -0.0125517 -4.13523e-20)
(0.00243974 -0.00747315 3.30889e-18)
(0.000432326 -7.19995e-05 4.83413e-21)
(-0.134068 -0.167859 -1.03508e-17)
(-0.000288313 0.000214631 -5.1593e-19)
(-0.00643847 0.00656403 5.36253e-19)
(0.00609922 0.0149778 1.56717e-18)
(-0.000152178 -0.00106086 -1.14246e-19)
(-2.77719e-05 1.10183e-07 4.07418e-19)
(-0.000986202 -0.000417618 -8.33057e-19)
(0.00366349 0.00511602 -1.45855e-18)
(0.000704806 0.000140282 -1.17715e-19)
(0.0243175 0.0029211 5.487e-18)
(0.125243 0.0748251 -1.10349e-19)
(-2.07854e-05 0.000436367 -3.62422e-19)
(-0.000166756 0.000238235 3.85125e-19)
(0.00126864 -3.31393e-05 -6.2388e-19)
(-0.000155926 0.000253899 2.94167e-20)
(-0.000284011 0.000213154 -2.65592e-19)
(-0.000124606 -1.661e-06 1.29279e-18)
(0.000202113 0.00298841 3.32515e-18)
(-0.000100059 0.000429126 9.09487e-19)
(0.0095024 0.00598574 -7.82803e-19)
(-0.0305303 -0.0609921 -6.35488e-18)
(-0.000233636 -0.000175747 4.11819e-19)
(0.00359036 0.0018606 4.67081e-19)
(0.0942191 0.0534388 1.61041e-18)
(-0.000305957 6.41223e-05 1.11208e-19)
(-0.0780268 -0.0319104 -7.64209e-18)
(0.0230775 0.00337585 -2.73611e-18)
(-0.000304222 4.92885e-05 -2.4914e-20)
(0.0238172 -0.000437752 -4.03926e-18)
(0.00068584 0.000200694 -2.45811e-19)
(0.0101115 -0.0839818 -2.58564e-18)
(-7.14631e-05 -7.09328e-06 -1.03655e-19)
(-0.00425879 0.00146876 -1.78802e-18)
(-0.00019204 -0.00112326 -9.89632e-20)
(0.000250321 -0.000252854 -9.05738e-20)
(0.0103405 -0.0277315 9.13813e-18)
(0.000242112 -7.21342e-06 4.0097e-20)
(-0.166907 -0.0178891 -3.94217e-18)
(-0.00360674 -0.000550145 1.12692e-18)
(0.128324 0.0658366 1.15982e-19)
(0.00389096 -0.00537599 2.96398e-19)
(0.00341516 0.114726 -1.49294e-18)
(0.0111516 0.00466074 4.96193e-18)
(-0.000127881 6.20685e-06 -3.01232e-19)
(0.00477745 0.00137601 -4.77084e-18)
(0.00630807 0.00393373 4.03701e-18)
(-0.000618348 -0.00172506 4.02738e-19)
(0.00867551 0.00148097 -1.27899e-18)
(-0.000978227 -0.000912275 1.38774e-18)
(0.000585701 0.000164858 8.69585e-19)
(0.000269218 -5.41625e-06 4.25839e-20)
(0.0413513 0.0201834 8.18788e-19)
(0.0156519 -0.0216332 -6.87171e-19)
(-0.00643391 0.00589338 -4.51689e-19)
(-0.000918846 -0.000858747 8.00839e-19)
(-0.000147778 -2.51373e-05 1.14222e-18)
(0.0169521 0.0133139 4.48649e-18)
(0.0209976 0.000109935 9.53184e-19)
(0.000615553 -5.60899e-05 -5.99272e-19)
(0.0064352 -0.00178986 5.6859e-20)
(-0.000784141 -0.00169292 -1.10962e-19)
(0.0467551 0.0472095 -1.15503e-18)
(-0.0130302 -0.00293162 4.64857e-18)
(-0.0214735 -0.0405213 3.81871e-18)
(0.0942857 -0.0662061 1.50268e-17)
(0.000535416 0.004177 6.05201e-21)
(0.00209752 0.0833205 1.06926e-18)
(0.00277425 0.00190818 3.07419e-19)
(0.00651265 -0.0237018 1.09099e-17)
(0.0564764 0.0466264 6.32032e-19)
(-0.0211049 -0.0200047 4.53721e-18)
(-0.000123515 -2.48749e-06 1.54119e-18)
(-0.00538431 0.00300356 -1.28048e-18)
(-0.0443129 0.144642 -5.86377e-19)
(0.00089959 -0.000660225 -2.52423e-19)
(0.0111805 0.0212424 -2.63992e-18)
(-0.00315109 -0.0111276 -1.52158e-19)
(-5.20154e-05 9.04415e-06 5.017e-20)
(0.0187272 0.00268394 1.89795e-18)
(-4.82142e-05 -3.88296e-05 3.32912e-19)
(-0.00149824 0.000535296 -2.1769e-18)
(-0.000788604 5.54577e-05 -3.71503e-20)
(-0.0106237 0.0180136 -1.252e-17)
(0.000311985 -8.12519e-05 2.21668e-20)
(-0.00520339 0.00490207 6.24824e-19)
(0.0139322 -0.00159602 5.0027e-19)
(-0.00061292 0.00282783 -3.72695e-20)
(-6.50965e-05 1.6085e-05 5.64788e-20)
(0.000818873 -0.00730968 1.77902e-18)
(0.0171224 0.00709653 2.74476e-18)
(-0.000143268 -0.000146092 4.14193e-20)
(0.000951519 -0.000534233 -2.56202e-19)
(0.0130482 -0.00836874 1.02233e-17)
(0.0186929 0.0100222 2.37522e-23)
(0.0426245 -0.0734549 -1.98247e-17)
(0.0848511 -0.0475399 -4.82598e-18)
(-0.000295318 4.36484e-05 3.05287e-19)
(-0.000275568 -0.000705616 1.76131e-19)
(0.0218583 0.0150534 -2.02911e-19)
(0.00887909 0.0777671 -2.31234e-18)
(-0.000297941 3.34709e-05 1.5518e-19)
(0.00810826 0.00368435 -3.70983e-18)
(-0.000246644 -0.000222601 1.60005e-18)
(-0.00614159 -0.0314865 1.17765e-18)
(-0.0052929 0.00552198 1.57362e-19)
(0.0243656 -0.0111628 1.65927e-19)
(-0.000913447 0.0434973 -2.19763e-18)
(-0.0726505 -0.0407733 2.90765e-19)
(-0.00136225 0.000207508 7.42583e-19)
(0.00995618 -0.0066104 4.32467e-18)
(0.000601922 -0.000281884 3.43823e-19)
(-0.00014269 -0.000170544 2.69613e-19)
(0.0121001 0.000616172 -2.55213e-19)
(0.000681312 -0.0330043 -1.22738e-18)
(-7.84227e-05 2.75593e-06 -2.53322e-19)
(0.00845756 -0.000963815 7.53948e-18)
(-0.00132618 0.000278438 -3.72206e-19)
(0.00722333 -0.0823049 1.01435e-18)
(-0.000202649 -0.000174204 -8.41993e-20)
(0.00506686 0.0635889 8.6203e-18)
(0.00576997 -0.00364911 1.73629e-20)
(-0.0115687 0.234297 7.29527e-19)
(0.00123777 0.000246694 -3.71763e-19)
(0.0581871 -0.0266352 2.17046e-19)
(0.0951477 0.0434639 -5.37786e-19)
(0.0167511 -0.00226428 -5.88299e-19)
(-0.00023928 -0.000183166 8.49159e-19)
(-0.00856977 -0.0515355 6.49901e-18)
(-0.00118525 -0.00017796 -2.78077e-19)
(0.100589 -0.0980775 -1.46302e-17)
(0.0340809 -0.0210245 -3.01507e-18)
(0.00141939 0.000669055 -2.10207e-19)
(0.0391868 0.187561 2.12165e-18)
(-0.000157098 -0.00154504 -1.01885e-18)
(-0.0203276 -0.060407 -5.05721e-19)
(0.000362199 0.000218128 -2.07287e-19)
(-0.0241619 0.00699492 1.26628e-17)
(-0.0113301 -0.0723846 -8.97403e-20)
(8.16279e-05 -0.000978733 -4.51199e-19)
(-0.0256629 0.21436 5.52408e-18)
(-0.0522996 -0.0401211 2.10461e-19)
(0.000218959 -3.31737e-05 7.35937e-20)
(0.0566511 -0.0924684 1.70063e-17)
(-0.0147092 0.00942612 1.83482e-18)
(-0.00015483 -0.000850018 3.28953e-21)
(0.0127396 -0.0290053 -8.29071e-18)
(-0.000238887 -0.000543216 4.4399e-20)
(-0.0506417 -0.053287 4.55219e-19)
(-0.0183158 -0.0231383 -1.48649e-17)
(-5.37244e-05 -3.07684e-05 -6.97556e-19)
(-0.000679174 0.000760156 5.44571e-18)
(-0.000967049 -0.000774869 4.73693e-19)
(0.000210207 -0.000260642 1.81017e-19)
(0.000179093 -8.36316e-05 -5.18628e-22)
(0.000577299 -0.000355777 4.42815e-20)
(0.124379 -0.0790534 -5.35289e-18)
(-0.139026 -0.0101714 -8.22554e-18)
(-0.000181106 -0.00017828 -1.69564e-19)
(0.000640919 -0.000346791 -3.46011e-19)
(0.000358982 -0.000604391 9.81271e-20)
(0.00446594 0.00477085 3.21063e-18)
(0.0514735 0.0613328 -2.08801e-18)
(-0.000427035 0.000161311 2.8966e-19)
(0.000120946 -2.09723e-05 -4.01647e-21)
(-0.0123856 -0.00369455 -1.24536e-17)
(-0.00239015 0.0624057 -6.27368e-18)
(0.00025162 -0.000279554 -2.69773e-20)
(2.74402e-05 -0.000910771 -5.11065e-19)
(0.0764187 -0.048788 1.45015e-17)
(-0.196982 -0.143172 5.75529e-18)
(0.00448655 0.00754954 -1.63081e-19)
(-0.000909133 -0.018319 -3.78135e-19)
(0.0036027 -0.0249956 5.04881e-18)
(-0.000839804 0.000218424 7.13485e-19)
(-0.000374287 0.000141276 -4.78128e-19)
(0.00312505 -0.00657357 -2.42178e-19)
(0.000175269 -8.2519e-05 3.3932e-20)
(-0.000400809 0.000173872 3.79023e-19)
(-0.000212644 -0.000974968 1.64461e-19)
(-0.000356118 0.000142614 4.18973e-20)
(-0.000753663 0.000176032 -5.59611e-19)
(0.0318823 -0.182435 -4.22429e-17)
(-0.000274838 -0.000500393 -8.79402e-20)
(-0.0131357 -0.0010101 6.6343e-19)
(0.00985369 0.00663733 5.03673e-19)
(0.00465842 0.00199366 5.16968e-18)
(0.000471982 -6.13904e-05 3.7237e-19)
(-0.000327526 0.000119461 7.21908e-20)
(0.0478159 -0.094041 -2.23943e-17)
(0.000825663 -0.00642368 -2.94771e-19)
(0.0255932 0.00240829 5.85764e-18)
(-0.000634669 0.000137891 -8.9447e-20)
(-0.000173601 -9.92823e-05 3.83464e-19)
(-0.00135457 -2.29251e-05 1.08604e-19)
(-0.000360361 0.000217052 4.47723e-19)
(0.000675845 -0.000686157 1.50968e-19)
(3.48711e-05 -0.00181505 -1.29115e-20)
(0.0792041 -0.0365059 -6.02279e-18)
(0.00758325 0.0073796 -2.74314e-20)
(0.0250789 0.0137574 -9.9334e-18)
(-0.000163035 -0.000101233 -2.06389e-19)
(-0.000173414 0.000390713 1.86355e-18)
(0.0109527 0.00334138 -1.3378e-19)
(-0.000491827 -0.000566297 2.37665e-19)
(0.0214539 0.0251497 1.1076e-18)
(0.0477242 -0.071102 2.17819e-17)
(-0.00024864 -0.000217724 -1.6707e-18)
(-0.0569655 -0.0254737 8.72646e-19)
(0.000472891 -0.000126017 -6.86959e-19)
(0.000186078 -3.00834e-05 -5.09339e-20)
(0.000369624 -0.000537199 -2.64502e-19)
(-0.00030985 -0.00148525 -4.07995e-21)
(0.000438494 8.57187e-06 -3.1353e-19)
(2.33669e-05 -2.77211e-05 -1.2996e-19)
(0.0169025 0.0123172 -1.16064e-17)
(0.103641 -0.0756793 -2.919e-18)
(0.000425474 2.37666e-05 3.72203e-19)
(0.0302426 0.127182 1.00737e-17)
(-0.0120496 -0.00564948 2.43063e-19)
(-0.00014448 3.09207e-06 -1.06492e-18)
(0.00660579 0.00197259 3.35491e-18)
(-0.0046227 0.00130216 -1.71453e-18)
(0.0571884 -0.105945 3.0592e-17)
(-0.000643942 0.000760063 1.26588e-18)
(0.0238302 0.0112675 3.1463e-19)
(-0.0276762 -0.0718671 -8.21492e-19)
(-0.0374434 -0.0522121 1.1621e-18)
(-0.000161295 -0.00178198 1.39202e-18)
(0.00237008 0.00395638 1.9135e-19)
(0.0143899 0.00224119 1.90802e-19)
(0.000329147 1.14349e-05 -1.41229e-19)
(0.0227642 -0.0647207 -4.08281e-18)
(-8.06739e-05 3.69195e-05 -1.0448e-19)
(-0.000195472 -0.000173147 4.40476e-19)
(-0.000118815 -0.000134004 -3.83539e-19)
(-0.000660435 0.000718756 4.28791e-18)
(-0.00306134 -0.00838316 -1.32384e-19)
(-0.009607 -0.0238945 -8.00329e-18)
(0.00127518 -0.0022927 2.34302e-18)
(-0.00162529 -0.00356137 5.15811e-19)
(0.00427469 0.00268845 1.05712e-18)
(0.0430973 -0.00223552 -5.98244e-19)
(-0.0213942 0.00706492 1.83741e-20)
(-0.000174022 -0.000170787 9.07314e-20)
(-0.00425331 -0.155567 -5.24702e-18)
(0.00061577 0.0018774 -1.75037e-18)
(-0.00344273 -0.000275314 -3.37328e-19)
(0.0974386 -0.0864387 -1.89214e-18)
(-5.83329e-05 -4.06724e-05 2.22149e-20)
(-0.0234432 0.00859778 -1.43657e-18)
(0.0482987 0.0103354 -9.00107e-18)
(0.00024271 -9.0428e-05 1.69337e-19)
(0.0114687 0.0128852 4.41268e-18)
(0.000173987 -2.74825e-05 -1.97534e-20)
(-0.000364317 0.000176047 -1.62579e-19)
(0.00521258 0.00422151 -7.09033e-18)
(-0.000588756 0.00020506 -2.04834e-19)
(0.000132007 -1.7086e-05 9.85755e-21)
(0.0381248 0.0240179 8.15608e-19)
(0.0116413 0.0155488 -1.45293e-18)
(-0.0273791 0.212119 1.18879e-18)
(-8.88481e-06 -0.00020391 9.0847e-21)
(-0.000615571 0.000323814 -5.0532e-19)
(-0.00325367 -1.87857e-05 -1.24492e-18)
(0.0432197 -0.0495411 -3.62787e-18)
(0.0962054 0.101844 -8.30792e-20)
(-0.00019316 -0.000169312 -1.62585e-19)
(-0.000199571 -0.000169604 -2.54545e-20)
(1.48179e-06 -0.000186626 -2.18538e-19)
(0.0052051 0.0117595 -2.17809e-18)
(0.0284533 0.165585 -3.63184e-19)
(0.000693612 -0.000139884 2.81849e-19)
(-9.72067e-05 4.11748e-06 2.17287e-19)
(0.000858328 -0.000135692 5.45635e-19)
(0.00019507 -0.00024607 -9.99286e-21)
(0.0053603 -0.00284727 3.91512e-19)
(-0.00193804 0.00128277 1.20638e-18)
(-8.9799e-05 2.60681e-05 -1.2184e-20)
(0.00173555 -0.00238887 -6.09325e-19)
(0.000238779 -8.68842e-05 -4.09735e-21)
(0.000265613 -0.000705075 2.00168e-19)
(-0.000921326 -0.000724252 -1.00599e-18)
(-0.0105412 -0.0218906 3.70187e-18)
(6.86285e-05 6.63904e-05 -2.21551e-19)
(-0.00074619 0.000553968 9.20409e-19)
(0.000655178 0.000100465 5.53619e-19)
(-0.000217471 0.000469402 -1.41999e-18)
(0.00949813 -0.000761996 -7.72729e-18)
(0.0130942 -0.0351389 -1.45634e-18)
(0.00802976 0.0157965 -6.62465e-20)
(-0.123636 -0.0162032 1.64556e-19)
(-0.000708609 -0.000756176 -3.73195e-19)
(0.0369514 -0.00193055 -1.60058e-18)
(0.0203809 0.0112649 -3.4677e-20)
(0.0094809 -0.190948 2.28431e-17)
(0.00847504 0.00793777 -7.71166e-18)
(0.000587995 8.20768e-05 -3.59623e-19)
(0.000415126 -0.000439366 3.87994e-20)
(-0.00225819 -0.00479353 -7.54036e-19)
(-0.000217836 -0.000159368 8.54247e-19)
(-0.0036595 -0.0311899 5.09761e-18)
(-0.000313244 7.73494e-05 -1.38396e-19)
(0.0808969 0.0535512 2.42874e-19)
(-0.00202831 -2.24951e-05 2.68056e-18)
(0.0198398 -0.000499948 1.76807e-18)
(-0.0932034 -0.030206 5.66849e-18)
(-0.000594449 0.00062027 -1.23603e-17)
(-0.0594387 0.0349665 1.02081e-17)
(0.00042862 4.2953e-05 -2.53074e-19)
(-0.00371514 0.000148475 -3.00675e-18)
(0.000221495 1.30094e-05 -6.26999e-20)
(0.00167631 0.00106631 3.30761e-19)
(0.0190914 -0.000155298 -1.73523e-18)
(-0.000514851 0.000165661 2.28447e-19)
(-0.0241928 -0.00647346 -6.40735e-18)
(2.53105e-05 -6.17561e-06 5.57825e-20)
(-0.00013964 8.00133e-07 2.80326e-18)
(0.000418065 -0.00049624 -7.48797e-20)
(-0.00970192 -0.0227454 1.69695e-17)
(0.00637076 -0.00222985 -3.05065e-19)
(-9.26917e-05 0.000210041 5.56215e-19)
(-0.00781209 -0.0104994 -2.24817e-18)
(0.00610426 0.00294529 -1.71384e-18)
(-0.0256617 -0.0379969 5.86612e-18)
(-0.00297888 -0.0365996 1.88709e-18)
(0.0168661 0.0148789 -6.21929e-18)
(0.0682976 -0.1096 -2.51237e-17)
(7.34233e-05 6.09808e-05 2.3125e-19)
(0.0263818 0.00119387 1.25865e-17)
(2.56195e-05 -2.44953e-05 -6.63607e-20)
(0.115293 -0.070315 -5.02769e-18)
(0.00410844 -0.275019 -2.91597e-18)
(0.00219145 0.00129286 1.29349e-19)
(0.00448393 -0.00757071 1.4747e-20)
(-3.89473e-05 -5.47301e-06 2.2686e-19)
(0.000387937 0.00187259 2.16532e-18)
(-0.000579602 0.000604226 -2.34757e-18)
(-0.000477292 0.000200939 2.084e-19)
(0.000227775 9.8644e-06 -1.59959e-20)
(-0.000100668 -6.14391e-06 -1.03876e-18)
(-0.00422233 -0.0375421 8.45168e-18)
(-5.31988e-05 -0.000186602 -7.93328e-19)
(-0.00252422 -0.00227164 -1.80008e-17)
(-0.000190341 -0.000183294 -1.19854e-18)
(-9.91158e-05 0.000196881 -3.80346e-19)
(-0.000128925 2.50419e-06 4.89982e-20)
(0.0670743 0.0250412 -2.43837e-18)
(0.00496449 -0.0748216 5.53671e-17)
(-0.0631078 0.027485 9.66127e-18)
(0.00255573 -0.00654163 -8.25038e-18)
(-0.00176057 0.00125386 -2.14161e-18)
(0.00980477 -0.0576915 -7.1388e-18)
(0.0222322 -0.00151109 8.43858e-18)
(0.000370372 0.000238853 3.91063e-19)
(0.0293882 -0.0690811 -8.94322e-18)
(-9.81955e-05 -2.67669e-06 -3.40294e-19)
(-0.00761174 0.00221112 1.00982e-17)
(-0.000212209 -0.000155778 -1.14008e-18)
(-0.00805941 -0.0497573 -1.09586e-17)
(0.000201014 -0.000221888 -4.08997e-20)
(0.00489232 -0.00423939 -7.97469e-20)
(-0.000351091 0.000154088 8.58074e-18)
(-0.0337294 -0.0811673 -6.83892e-18)
(0.000587897 0.002483 1.24449e-19)
(-0.0104233 -0.0407187 1.14367e-17)
(-1.26854e-05 3.08504e-05 7.95944e-21)
(-6.02453e-05 0.00274497 9.07711e-19)
(0.000836537 0.000212405 -1.2302e-18)
(-2.5537e-05 -2.33079e-06 -1.63851e-19)
(0.00756188 -0.00841158 -8.11776e-19)
(-0.165901 -0.0843158 -2.13842e-19)
(0.00089398 0.000363222 9.94432e-19)
(0.0264907 -0.0134149 1.13445e-18)
(-0.000152349 -2.49601e-05 2.64332e-19)
(0.000871558 0.00160486 4.78644e-19)
(-1.55762e-05 -6.01526e-06 2.58677e-20)
(0.00674227 -0.0106253 8.63433e-18)
(-6.35814e-05 -0.000172143 4.60224e-19)
(0.00516604 0.00547034 2.68463e-18)
(-0.000316983 9.342e-05 -4.2626e-20)
(0.000850919 0.000305793 -2.44001e-19)
(0.00286074 -0.0326468 2.66434e-18)
(-3.01098e-05 -7.03275e-06 -5.20594e-20)
(0.018522 -0.0152495 -4.33097e-19)
(9.78199e-05 9.8892e-06 -6.73813e-19)
(0.000290682 -0.000100484 -3.96467e-19)
(0.111436 -0.0776908 2.78164e-17)
(-0.00286089 -0.00241779 -4.53963e-18)
(-0.000201612 -0.000170584 2.58451e-19)
(0.0133961 0.00301248 -3.13e-18)
(-0.0228295 -0.00570593 3.55881e-18)
(0.0231659 0.0700507 -2.16204e-18)
(0.0508654 0.0145981 8.47157e-18)
(0.000414295 5.17484e-05 1.07669e-19)
(-0.00638505 0.00512528 -2.79794e-18)
(-0.0125619 -0.0183566 3.75032e-18)
(-0.0203159 0.00551467 -6.38042e-18)
(0.0024599 -0.00565812 8.12777e-20)
(0.000500504 -0.000971808 1.77539e-20)
(0.00495402 -0.00514013 -6.72505e-19)
(0.000108412 1.42251e-05 -1.89359e-19)
(0.000478068 -0.000370732 6.02232e-19)
(0.000279501 0.00592595 1.61513e-19)
(0.0118768 -0.00045316 -8.33242e-19)
(-0.00182067 -0.00083634 9.91804e-19)
(0.103603 -0.0844636 -3.93608e-17)
(0.000908377 0.00238185 -1.23027e-21)
(0.0544716 0.0795536 3.47831e-18)
(0.106186 0.0860008 -1.89268e-19)
(0.00845557 -0.0243857 6.04427e-19)
(-0.00310433 0.00429388 1.12623e-18)
(0.027842 -0.0193254 2.67328e-18)
(0.0229224 -0.00108464 1.20124e-17)
(0.000576795 0.000141641 1.75252e-19)
(-0.00634113 -0.0110239 5.81841e-19)
(-0.00188611 0.0061641 5.43246e-20)
(0.000280216 -0.000106733 -3.83604e-19)
(6.5726e-05 2.06289e-05 -5.37435e-19)
(-0.000132467 1.29841e-06 -5.07234e-20)
(-0.00435357 -0.000439847 -1.84517e-19)
(9.28037e-05 -2.68198e-05 -2.38965e-19)
(0.0264837 0.00104137 2.58569e-19)
(-0.000983114 0.000537324 5.17486e-18)
(0.000284712 1.05892e-05 4.32592e-20)
(-0.00258652 -0.0101552 -6.65172e-18)
(-6.86639e-06 3.4198e-05 1.02054e-19)
(-0.0174708 -0.0437676 -1.99972e-18)
(0.000714662 0.000281538 -4.13884e-19)
(0.00062656 -0.000193077 6.18967e-19)
(0.00969344 0.0149788 1.13533e-18)
(0.00759598 -0.000807048 -1.09721e-17)
(0.000766951 -0.0130608 1.95977e-18)
(-0.000424313 0.000136956 4.85101e-19)
(-0.000146225 -0.00203791 5.49771e-20)
(0.000674507 5.37878e-05 -9.29574e-19)
(-0.00053946 0.000252202 2.69722e-18)
(-0.000657622 0.00104417 6.57056e-18)
(0.000300944 -0.000227208 3.37288e-19)
(0.0222609 0.00339726 3.32603e-19)
(-0.00471079 -0.000139977 3.73278e-19)
(0.0771761 0.0633516 -1.68606e-18)
(-0.00977105 -0.0555552 -4.65642e-18)
(-0.00457427 -0.0121172 -1.78195e-19)
(0.0169307 0.0151733 -1.14539e-17)
(-0.000636587 0.000299611 7.88188e-18)
(0.000263534 8.75595e-06 -3.03905e-19)
(0.000882236 0.000246405 -2.90247e-19)
(0.0227539 0.00320533 1.46014e-18)
(-0.023842 0.227165 -1.0229e-18)
(-0.00229767 -0.00014457 7.91394e-19)
(0.0250785 0.00265831 -5.50092e-18)
(0.0321955 0.193727 -9.64092e-19)
(0.000311944 -9.56959e-05 -2.76266e-19)
(0.00063312 -9.73627e-05 4.79245e-19)
(0.000750621 -0.000479005 -7.12209e-20)
(0.0223232 0.00848991 -1.0159e-18)
(-0.031988 0.0241722 3.58679e-19)
(0.000546663 0.00291226 -2.10958e-18)
(-0.000533493 0.000228242 6.05623e-19)
(-0.000772695 0.000549559 3.28847e-18)
(-0.00777206 0.00283948 -1.3878e-17)
(0.0024578 0.00125845 -3.13459e-19)
(0.0216171 -0.0122729 5.14654e-18)
(-0.000968496 0.000484007 -4.46218e-19)
(-0.000171239 -0.000113631 -3.96412e-20)
(-0.000695402 -0.000376745 1.23202e-18)
(0.000257083 8.54238e-06 2.93783e-19)
(-0.000711304 0.00104459 -6.39792e-18)
(0.00337026 0.00365838 -1.33588e-18)
(-0.0152801 0.0101705 1.23144e-17)
(-0.000382524 -0.00200264 -3.12173e-19)
(-0.000586935 0.00520018 5.09917e-19)
(0.0235795 0.00318363 -3.61276e-18)
(0.00102795 -0.000407249 5.59067e-20)
(0.0647396 0.121366 8.55289e-19)
(0.00035609 -0.000911949 -2.30764e-20)
(0.00577502 0.0111845 -3.80613e-19)
(-0.00167731 0.000372261 -7.57232e-19)
(-0.0200934 0.00479799 -2.95217e-18)
(5.15127e-05 1.52812e-05 -1.16842e-19)
(-0.00328874 0.000348714 5.25477e-18)
(0.00175603 -0.0719902 -3.47275e-17)
(-0.0379899 0.0469406 9.11134e-20)
(-0.000238867 -0.000167201 -1.42062e-18)
(-0.000601054 -0.00197775 -2.45504e-19)
(8.62318e-05 -1.97315e-05 3.37791e-19)
(-0.000172043 -0.000114785 -1.73043e-19)
(-0.000327029 0.000186687 -6.00699e-19)
(-0.00371993 -0.0171389 1.49413e-18)
(0.010333 0.0065202 4.44814e-19)
(0.0608749 0.0266517 -1.52766e-18)
(0.0207933 -0.0149291 -4.69986e-18)
(0.000399947 6.3078e-05 -7.23887e-19)
(-0.0158264 0.0105712 -1.50221e-18)
(-0.000600041 0.000681858 -4.29469e-18)
(-0.000670298 0.000738655 1.5026e-18)
(0.0254852 -0.0165778 -4.43862e-18)
(-0.000324263 -0.000745901 -2.99724e-19)
(-0.00373054 -7.05784e-05 1.25005e-17)
(-0.185127 -0.0126039 4.39499e-19)
(-1.29017e-05 0.000134757 4.53801e-20)
(0.00695552 -0.0014097 7.39102e-18)
(0.00998216 0.0276777 1.3645e-19)
(-0.000893124 0.000478843 1.94419e-18)
(0.000451849 -0.00029579 -8.31385e-20)
(0.000442072 -4.15565e-05 -1.44646e-19)
(0.000492251 -0.000375829 -3.72805e-19)
(0.0228032 0.000423601 8.18007e-18)
(-0.000616878 -0.000364112 1.47609e-18)
(0.000835988 0.000413868 1.08457e-18)
(-0.00140846 0.000449043 2.50625e-18)
(0.000304317 -0.000242647 -3.44208e-19)
(0.00050685 -8.1682e-05 4.2841e-19)
(0.0312316 0.00338105 4.23782e-18)
(-0.19064 -0.0368562 -8.62985e-20)
(0.00584667 -0.0280605 6.31866e-19)
(-0.152997 -0.0844975 -2.36861e-18)
(-0.00477315 -0.0275997 1.59836e-19)
(0.0219443 0.0153377 -6.88315e-19)
(-0.000324634 0.000201605 -1.15074e-18)
(0.00403065 -0.00259712 -9.65362e-19)
(0.00235813 -0.0516451 -6.51667e-18)
(0.00204186 0.00194078 1.30674e-19)
(-0.0175281 0.00101954 7.88854e-19)
(-5.29348e-05 1.65623e-05 -2.89634e-19)
(7.96196e-05 2.14042e-05 7.07041e-20)
(-0.000433981 4.21869e-05 -6.52712e-18)
(-4.27438e-05 -0.00229978 -1.38906e-19)