/*--------------------------------*- C++ -*----------------------------------*\
| =========                 |                                                 |
| \\      /  F ield         | OpenFOAM: The Open Source CFD Toolbox           |
|  \\    /   O peration     | Version:  v2012                                 |
|   \\  /    A nd           | Website:  www.openfoam.com                      |
|    \\/     M anipulation  |                                                 |
\*---------------------------------------------------------------------------*/
FoamFile
{
    version     2.0;
    format      ascii;
    class       surfaceVectorField;
    location    "150";
    object      Uf;
}
// * * * * * * * * * * * * * * * * * * * * * * * * * * * * * * * * * * * * * //

dimensions      [0 1 -1 0 0 0 0];


internalField   nonuniform List<vector> 
20642
(
(0.468316 -0.00204845 -2.13016e-21)
(0.471761 -0.00355383 1.9453e-20)
(0.493234 -0.00247448 7.59961e-21)
(0.997555 0.022356 3.37858e-21)
(0.99607 0.0251715 3.05188e-21)
(1.00032 0.0254354 5.75147e-21)
(1.09825 0.0384656 1.23714e-21)
(1.09963 0.0400917 1.69648e-21)
(1.09861 0.0379716 6.44667e-21)
(1.03484 0.0105919 -7.96213e-22)
(1.03478 0.0110773 -1.28765e-21)
(1.03425 0.0105928 -5.14013e-23)
(1.02086 0.0198858 -1.60919e-22)
(1.02193 0.0219556 -1.57761e-21)
(1.02321 0.0200455 -1.28968e-22)
(0.999951 0.0188939 -1.51786e-21)
(0.996324 0.017554 -9.13314e-22)
(1.04725 0.0237323 -4.69984e-21)
(1.0465 0.0230707 -3.12179e-21)
(1.04646 0.0239368 4.82729e-21)
(0.998302 0.0867904 -5.10498e-22)
(0.990491 0.0934417 -3.99433e-21)
(1.00428 0.0963445 -1.37049e-21)
(1.05712 0.0154265 4.88045e-21)
(1.05652 0.0158505 -3.76099e-21)
(1.05741 0.0162675 8.25161e-21)
(0.028925 -0.0960534 -9.78445e-21)
(0.0658774 -0.130379 -1.60282e-20)
(1.00623 0.0815204 -8.89095e-22)
(0.994912 0.0784382 1.1913e-21)
(1.02649 0.0092678 1.13767e-23)
(1.02676 0.00964679 5.46667e-22)
(1.02695 0.00933767 3.44285e-21)
(1.01187 0.00016248 0)
(1.012 9.59529e-05 8.82354e-22)
(1.0142 0.263031 0)
(0.98532 0.258805 0)
(1.023 0.240208 0)
(1.01695 0.00535315 -4.94182e-22)
(1.0156 0.00495408 2.67562e-21)
(1.01598 0.00664347 1.6373e-21)
(0.458688 -0.00153557 1.60732e-20)
(0.424018 -0.00421318 -4.50082e-21)
(1.00206 -6.58488e-05 2.49145e-22)
(1.00204 -7.56286e-05 0)
(1.00118 -4.80197e-05 9.09726e-22)
(1.01309 0.0763644 -3.76863e-21)
(1.01919 0.0711267 -1.20808e-21)
(1.00965 0.0693427 -3.19096e-21)
(1.0833 0.0595557 -1.43021e-20)
(1.08546 0.0592085 -3.21122e-21)
(1.08461 0.0615023 -1.27702e-20)
(0.362147 -0.0394045 0)
(0.444916 -0.041908 0)
(0.453899 -0.0268907 0)
(1.03398 0.0237617 -1.3876e-22)
(1.03503 0.0237042 -3.98753e-22)
(1.03448 0.0246038 7.47113e-22)
(1.01797 0.00784028 3.54994e-22)
(1.01798 0.00773446 0)
(1.01831 0.00799818 1.6506e-22)
(1.05512 0.0437717 -1.87869e-21)
(1.05599 0.0429956 -5.59854e-21)
(1.0562 0.0446808 5.82889e-21)
(1.01792 0.00790608 3.67942e-22)
(1.01769 0.00765889 -1.38121e-22)
(1.03322 0.0160405 -2.88076e-21)
(1.03359 0.0163991 0)
(1.0331 0.0162853 0)
(1.0362 0.0280584 4.85667e-22)
(1.03556 0.0267945 -3.51799e-22)
(1.03442 0.0278009 5.11242e-22)
(0.601708 -0.125691 7.95558e-21)
(0.656905 -0.112464 4.28977e-21)
(0.66544 -0.13333 -9.39958e-22)
(0.0259236 -0.0698429 2.50666e-20)
(1.03382 0.0483673 9.98998e-22)
(1.03544 0.0448281 0)
(1.03055 0.0453766 5.08954e-22)
(1.01585 0.000722696 3.80267e-23)
(1.01594 0.000829638 0)
(1.01554 0.000716907 -9.91722e-25)
(0.00481862 -0.0417998 5.46919e-22)
(0.036214 -0.0670873 7.98848e-21)
(1.07223 0.043531 1.27371e-20)
(1.07287 0.0432901 -4.74199e-21)
(1.07261 0.0440239 -1.01467e-21)
(1.03154 0.0125487 -1.18404e-21)
(1.03105 0.0122282 -8.64978e-22)
(1.03151 0.0121608 -1.11336e-21)
(0.546589 0.00436203 3.29287e-21)
(0.563441 0.00537638 1.54223e-21)
(0.563246 0.00602019 7.94154e-21)
(1.01086 0.00507301 -4.53808e-23)
(1.01066 0.00486961 -1.04079e-22)
(1.01087 0.00506546 4.43748e-22)
(0.97927 0.094881 1.48699e-21)
(0.984805 0.106838 1.00544e-21)
(1.02554 0.0167416 -9.26499e-23)
(1.02598 0.0170779 5.99849e-23)
(1.02563 0.0172877 2.40905e-23)
(1.0028 0.000108879 6.71088e-23)
(1.00535 0.000277726 -2.84406e-22)
(1.00253 7.98835e-05 -1.58647e-22)
(1.04802 0.0243506 -7.05562e-21)
(1.04795 0.0234647 -1.0219e-21)
(1.03101 0.0184812 2.1118e-22)
(1.03011 0.017803 8.62698e-22)
(1.03005 0.0190722 7.32758e-22)
(1.00198 -0.000101144 -2.35539e-22)
(1.00165 -5.96618e-05 1.07737e-22)
(1.00317 -5.21581e-05 -3.20142e-22)
(1.0101 -8.98532e-06 -3.24891e-22)
(1.01058 -4.53691e-05 -1.35754e-22)
(1.01022 -0.000128023 -9.2769e-22)
(1.05302 0.0118157 0)
(1.0521 0.0122237 -4.45969e-21)
(1.05218 0.0112292 0)
(1.08251 0.0497811 1.64883e-21)
(1.08206 0.0486781 -4.56904e-21)
(1.08357 0.0490707 4.17528e-21)
(1.08119 0.0505899 5.16988e-23)
(1.08274 0.0513971 5.95749e-21)
(0.993772 0.158103 7.45421e-21)
(0.999651 0.15149 3.93237e-21)
(1.00271 0.166021 2.28109e-21)
(1.03289 0.0235595 1.16829e-22)
(1.03339 0.0230006 1.45565e-21)
(0.411346 -0.077357 2.04615e-20)
(0.456627 -0.0685575 1.42599e-22)
(0.470193 -0.0432206 -2.17918e-20)
(0.762169 0.0726914 0)
(0.770811 0.102657 -4.06326e-22)
(0.786918 0.0723375 1.13055e-21)
(1.01089 0.0051102 -1.23453e-22)
(1.01106 0.00528242 2.38459e-22)
(1.02608 0.0092632 -1.69832e-21)
(1.0262 0.00896871 -2.19762e-21)
(1.03731 0.102653 -5.68383e-21)
(1.03362 0.107163 8.89302e-21)
(1.03139 0.101144 -4.10878e-21)
(0.337823 0.000988683 9.70309e-21)
(0.429634 0.00194884 6.80634e-21)
(0.335031 0.000282548 -9.91581e-21)
(1.02155 0.00918251 -1.10769e-22)
(1.02132 0.00889999 9.32274e-22)
(1.02123 0.00899459 4.22357e-22)
(1.02248 0.00989766 0)
(1.02222 0.00959712 1.0591e-22)
(1.02255 0.00972134 0)
(1.03995 0.0993645 -2.90032e-21)
(1.04216 0.104746 -3.14586e-23)
(0.124469 -0.0109797 -8.8311e-22)
(1.05404 0.0443769 2.50866e-21)
(1.05413 0.0426896 -4.99489e-21)
(1.00972 -4.16784e-05 -2.8732e-22)
(1.00993 8.04021e-05 0)
(0.986445 0.167264 -7.56256e-22)
(0.982085 0.151549 -1.58621e-22)
(0.548762 0.228772 -3.36282e-21)
(0.50927 0.237662 9.23769e-21)
(0.505611 0.230051 8.55686e-21)
(1.0123 -0.000963174 -5.01743e-22)
(1.01058 -0.000687128 -4.84017e-22)
(1.01157 0.001096 -9.78379e-22)
(1.00522 -5.29687e-05 -2.34476e-22)
(1.00547 -9.18356e-06 2.93453e-23)
(1.00619 -1.53112e-05 7.95748e-23)
(1.03334 0.0156911 -2.92825e-21)
(1.03281 0.0156585 -2.776e-22)
(0.870603 0.0291887 0)
(0.871438 0.0306324 6.47294e-21)
(0.842613 0.0284251 1.30171e-20)
(1.01881 0.00691096 0)
(1.01934 0.00540416 0)
(1.02026 0.00698354 9.79587e-23)
(1.0321 0.0525088 9.86872e-22)
(1.0296 0.0566921 0)
(1.02625 0.0526131 0)
(0.975201 0.0838971 -1.18144e-21)
(0.968764 0.095777 0)
(1.01775 0.0843203 9.11315e-23)
(0.477084 0.00290987 -8.2222e-21)
(0.459252 0.00286048 6.84306e-21)
(0.457524 0.00271922 -7.6368e-21)
(0.987339 0.0362325 -6.57822e-21)
(1.00244 0.0376572 -5.60449e-21)
(0.959249 0.0344706 5.62554e-21)
(0.532146 0.00312167 -2.57614e-21)
(0.532234 0.00417411 -1.62845e-20)
(1.03138 0.00411872 -8.01282e-22)
(1.03203 0.00427899 -3.00261e-21)
(1.03141 0.00448615 -1.68721e-21)
(1.00937 -6.72307e-05 -2.01903e-22)
(1.00949 -7.10327e-05 -2.02524e-22)
(1.03628 0.023468 0)
(1.03542 0.0228666 8.40604e-22)
(1.03093 0.0171237 8.78129e-23)
(1.03123 0.017483 5.49009e-22)
(1.03074 0.0172732 5.95914e-22)
(1.02241 0.0124139 -1.31483e-23)
(1.02308 0.0128659 1.09337e-21)
(1.02299 0.0120106 -9.63487e-22)
(1.00907 -0.000134632 7.24903e-23)
(1.00922 -0.000118163 -3.22076e-23)
(1.03112 0.0168358 -4.9181e-22)
(1.03054 0.0167524 -5.18929e-22)
(1.03158 0.0127566 5.36981e-22)
(1.03195 0.0127556 5.39052e-22)
(1.02077 0.00952691 6.21711e-23)
(1.02062 0.00929286 2.72774e-22)
(1.02064 0.00931363 2.53872e-22)
(1.00193 -1.54808e-05 -3.66196e-22)
(1.00195 -2.01687e-05 -5.51515e-22)
(1.00103 -3.09374e-05 -4.37206e-22)
(1.03136 0.00372035 0)
(1.03072 0.00390531 0)
(0.960325 0.0252831 -2.09946e-21)
(0.997631 0.0252765 1.08512e-20)
(0.993013 0.0246077 1.60861e-21)
(1.01482 0.001679 1.94787e-22)
(1.0149 0.00188475 9.08058e-22)
(1.01464 0.0017922 6.75527e-22)
(1.08529 0.105674 -1.67239e-21)
(1.10681 0.111081 -1.90035e-21)
(1.08967 0.1213 -2.25571e-21)
(1.07187 0.0427658 1.04352e-20)
(1.07139 0.0435822 3.5267e-21)
(1.0145 0.000997072 9.21795e-22)
(1.01429 0.0010133 -3.57691e-22)
(1.01376 0.000742794 -4.85067e-22)
(1.03148 0.0192906 -3.59956e-22)
(1.03188 0.0182983 -1.55167e-21)
(1.00197 -5.41265e-05 5.73498e-23)
(1.00273 -0.000104468 -2.26064e-22)
(1.00394 -0.000200565 4.28337e-22)
(1.00382 -0.000198161 2.08718e-22)
(1.00427 -0.000220462 -2.72702e-22)
(1.05369 0.0125965 -1.05616e-20)
(0.757455 0.037429 0)
(0.744753 0.0611643 0)
(1.00938 0.00383826 -1.14101e-21)
(1.00939 0.00385109 -1.08653e-21)
(1.00918 0.0036813 -4.05286e-23)
(1.02277 0.0114964 -1.82561e-23)
(1.02247 0.0111752 8.84965e-23)
(1.02259 0.0115323 5.24963e-23)
(1.03774 0.0516138 -1.12168e-21)
(0.784543 -0.18094 0)
(0.842573 -0.161803 0)
(0.86153 -0.161719 -7.52455e-23)
(1.00259 0.000112319 -8.33165e-22)
(1.00266 0.000106812 -5.58922e-23)
(1.00134 4.32857e-05 -3.98101e-22)
(1.01472 0.00116349 1.07751e-21)
(1.01462 0.000962437 6.19191e-22)
(1.03056 -0.0805761 -1.63519e-21)
(1.03851 -0.0639235 -1.13274e-21)
(1.04831 -0.0753207 8.55215e-22)
(1.00448 -4.07475e-05 -3.54809e-22)
(1.00443 -6.23755e-05 -1.76725e-22)
(1.00327 -1.90653e-05 2.82299e-22)
(1.0046 -4.81705e-05 -3.5825e-22)
(1.00538 -0.000152874 -5.73036e-23)
(1.02087 0.00969392 1.82777e-22)
(1.02088 0.00973924 0)
(1.00464 0.000377798 1.12985e-22)
(1.00465 0.000348641 -4.20264e-22)
(1.00384 0.000258412 -2.38213e-22)
(1.02167 0.0117871 1.23388e-21)
(1.02164 0.0125861 0)
(1.00324 0.0259293 -4.47449e-21)
(0.999221 0.0262068 -3.78217e-22)
(0.968224 0.0293119 2.64107e-22)
(0.621445 -0.036632 0)
(0.60554 -0.0405944 -1.11029e-20)
(0.589722 -0.0508717 -9.24413e-21)
(1.01451 -0.000407818 -1.68348e-22)
(1.01481 -0.00286142 2.27788e-21)
(1.01093 0.000203029 -6.87054e-22)
(1.0111 -0.000100162 3.15858e-22)
(0.55663 -0.145302 3.12132e-21)
(0.547796 -0.116424 8.21303e-21)
(1.01863 7.41733e-05 6.45985e-22)
(1.01873 3.0192e-05 1.92962e-21)
(0.583005 0.00636808 -5.52546e-21)
(0.566029 0.00472297 5.08872e-21)
(1.03624 0.0413782 0)
(1.03973 0.0435372 5.98186e-22)
(0.864738 0.0288159 1.03428e-20)
(0.901388 0.032159 -1.52138e-20)
(1.03015 0.0179839 6.62269e-22)
(1.03049 0.0182849 0)
(1.03034 0.0177836 7.78886e-23)
(1.08107 0.0599726 5.98177e-21)
(1.08193 0.0580315 -1.50404e-21)
(1.00439 -0.000215357 0)
(1.00498 -0.000251666 -3.25924e-22)
(1.00452 -0.000224956 0)
(1.09805 0.0462173 -1.63584e-22)
(1.09721 0.0442477 -3.58873e-22)
(1.09564 0.046349 0)
(1.03006 0.00127795 -2.76367e-21)
(1.0302 0.00169322 -4.65833e-21)
(1.02958 0.00143531 2.45798e-21)
(1.00267 -2.2368e-07 -7.73197e-23)
(1.00181 -1.61118e-05 -3.39103e-22)
(1.00875 -8.41464e-05 6.0523e-22)
(1.00856 -1.93808e-05 6.16731e-22)
(1.00851 -0.000103978 2.65352e-22)
(1.02681 0.0612151 1.26313e-21)
(1.03363 0.0611389 5.07436e-22)
(1.06659 0.0742446 0)
(1.06431 0.076053 0)
(1.06411 0.0725863 1.49204e-20)
(0.445363 0.00149337 -1.53713e-21)
(0.46532 0.00344817 -6.41803e-21)
(0.448698 0.00171838 -6.2206e-21)
(0.935521 0.0260501 -3.82268e-21)
(0.931155 0.0264078 1.19341e-21)
(1.03345 0.0153905 2.27486e-21)
(1.03357 0.0150645 2.40162e-21)
(1.03307 0.0150118 1.27267e-22)
(1.03711 0.0243873 0)
(1.03747 0.0230708 4.18049e-23)
(1.01222 0.00541407 -3.47606e-22)
(1.01199 0.00532834 5.88693e-23)
(1.01196 0.00522252 7.21779e-23)
(1.06795 0.0720687 8.39399e-22)
(1.0691 0.0752227 -5.35942e-21)
(1.06121 0.0282894 -2.05495e-21)
(1.06095 0.0290393 -5.1248e-21)
(1.06194 0.0287908 -4.52987e-21)
(0.905744 0.0533796 -9.11391e-21)
(0.917427 0.0570217 1.65856e-21)
(0.90504 0.0650161 0)
(0.729024 0.0259778 7.75635e-21)
(0.699883 0.0252443 -2.81175e-21)
(0.705013 0.0243951 1.61742e-20)
(1.02993 0.0182428 -1.32328e-22)
(1.02974 0.0176942 2.31827e-22)
(1.07495 0.0452311 0)
(1.07522 0.0459162 -1.52033e-21)
(1.07582 0.0451564 6.44229e-21)
(0.523346 -0.168161 -1.1082e-20)
(0.570792 -0.170547 -7.44372e-21)
(0.465008 0.257884 0)
(0.510912 0.248717 2.41268e-21)
(0.509548 0.256154 0)
(0.42208 0.00525361 2.04791e-21)
(0.419631 0.00492808 -5.65161e-21)
(0.439464 0.00693674 -6.40094e-21)
(1.03709 0.0315177 7.19476e-22)
(1.0367 0.0295868 2.41339e-22)
(1.03492 0.0310485 7.76428e-22)
(1.00268 0.000146564 1.97328e-22)
(0.984805 0.251533 -2.28406e-21)
(1.00912 0.241162 1.20574e-20)
(0.998333 0.206132 -2.6254e-21)
(1.00891 -0.000112815 2.69954e-23)
(1.00881 -0.000189271 -4.8038e-23)
(1.00003 0.0281611 1.11273e-21)
(1.03292 0.0258074 -2.63001e-21)
(1.01508 0.00556578 -3.4956e-23)
(1.01482 0.00540281 -9.05557e-23)
(1.01501 0.00562228 -1.77782e-22)
(1.02935 0.00401357 3.47778e-21)
(1.02988 0.00423889 -2.72233e-21)
(1.02943 0.00441479 2.99487e-21)
(1.0154 0.00332172 0)
(1.01397 0.00406769 6.14176e-22)
(1.01398 0.00248736 -2.48465e-22)
(1.0088 0.0357942 -8.09043e-21)
(0.967868 0.0345991 0)
(0.989826 0.0579263 0)
(0.452471 -0.0820149 1.00397e-20)
(0.454381 -0.084253 2.34568e-20)
(0.407985 -0.11038 -2.44124e-20)
(1.02189 0.00941017 -3.48322e-22)
(1.02177 0.00950723 3.55297e-23)
(1.03181 0.0197928 5.27035e-23)
(1.03206 0.0202274 -2.88029e-22)
(1.03236 0.019696 5.18809e-23)
(1.00479 -7.31289e-05 -5.34532e-23)
(1.00498 -7.30959e-05 1.08312e-22)
(1.0059 -8.43303e-05 -2.01507e-22)
(1.02884 0.00381433 0)
(1.02925 0.003624 0)
(0.721856 -0.190429 5.76692e-21)
(0.739584 -0.199387 0)
(1.01765 0.0084998 4.42313e-23)
(1.0179 0.00880405 -1.76904e-23)
(1.01759 0.00853956 2.54654e-23)
(1.00463 0.000378432 -1.27277e-22)
(1.00503 0.000401119 7.41812e-22)
(0.689125 0.0269522 1.96905e-22)
(0.682851 0.0266358 -1.77758e-20)
(0.663264 0.0251769 -1.62871e-20)
(1.00342 -0.000121822 1.45012e-22)
(1.00348 -0.000119101 -1.13692e-22)
(1.00239 -7.22225e-05 0)
(1.0042 -0.000208067 0)
(1.00359 -0.000199932 0)
(1.01479 0.00363854 0)
(1.01499 0.00384687 -5.19439e-24)
(1.01469 0.00375758 2.14768e-22)
(0.831216 0.0717746 1.16919e-20)
(0.837448 0.0659685 -3.91839e-21)
(0.80665 0.0619823 -1.63738e-21)
(1.02212 0.0191007 0)
(1.02285 0.0188842 0)
(1.02198 0.0182064 -2.218e-22)
(0.962717 0.275594 -6.78772e-21)
(0.674844 0.149941 4.00951e-20)
(0.67922 0.138079 3.23361e-21)
(0.701055 0.136752 1.23667e-20)
(0.983984 -0.12004 1.25693e-21)
(1.01056 -0.106569 -7.38208e-21)
(1.03139 -0.104886 0)
(0.338618 0.000246749 7.42078e-21)
(0.53699 0.166151 2.91824e-20)
(0.578891 0.171633 6.44671e-21)
(0.534877 0.184638 5.7642e-21)
(1.00899 -4.80763e-05 4.05306e-24)
(1.00915 -4.34567e-05 0)
(1.00904 -4.10376e-05 1.18727e-23)
(1.03721 0.0339325 -1.23532e-22)
(1.03925 0.0320216 -6.57324e-22)
(1.01811 0.00804544 0)
(1.01832 0.00817466 5.87486e-22)
(1.01852 0.00820413 5.77025e-22)
(0.723235 0.020757 -3.87392e-21)
(0.727249 0.0219251 -2.7493e-21)
(0.697554 0.0199575 -2.90204e-21)
(1.05688 0.0145653 1.2168e-20)
(0.630803 0.224285 -1.25288e-20)
(0.586983 0.227763 -4.67716e-21)
(0.598153 0.235277 1.23314e-20)
(1.01588 0.0600332 -7.09555e-22)
(1.01857 0.0596307 -3.35737e-22)
(1.0172 0.0633291 4.6539e-22)
(1.00418 -8.60585e-05 0)
(1.00501 -0.000115681 -1.4908e-22)
(1.00396 -7.88003e-05 2.44114e-22)
(1.03544 0.0106767 3.3067e-21)
(1.03496 0.0102289 1.12888e-21)
(1.03069 0.112094 7.0524e-21)
(1.02737 0.117916 -1.02848e-20)
(1.02422 0.11109 -7.67674e-21)
(1.0614 0.0274316 1.2819e-20)
(1.06046 0.0276628 -1.01552e-21)
(1.02231 0.0201305 0)
(1.02137 0.0192996 0)
(1.05144 0.012471 -3.67738e-22)
(1.05067 0.0119105 4.19974e-21)
(1.05054 0.0127957 2.70322e-21)
(1.01773 0.00788372 -4.55002e-22)
(1.02576 0.00922463 3.02777e-22)
(1.02601 0.00951707 2.75377e-22)
(1.07452 0.128072 8.94668e-21)
(1.07639 0.122435 -3.99688e-21)
(1.07934 0.127845 0)
(1.09903 0.0480394 6.72979e-21)
(1.10092 0.0458459 1.2108e-20)
(0.90442 0.0404944 7.0885e-21)
(0.889664 0.0481836 -9.35228e-21)
(1.02546 0.008914 -4.83576e-22)
(1.02537 0.00917766 0)
(1.0748 0.135892 1.00329e-20)
(1.06716 0.129877 2.33047e-21)
(1.01616 0.000717549 3.98181e-23)
(1.01565 0.000596322 -1.57502e-22)
(1.06924 0.100457 -5.65503e-21)
(1.08304 0.091266 5.95733e-22)
(1.01347 0.0569051 -3.90034e-22)
(1.01176 0.0608791 -4.5136e-22)
(1.07997 0.0510604 -9.2968e-21)
(1.07981 0.0498092 1.6793e-21)
(1.07456 0.106484 5.34052e-21)
(1.07348 0.10176 7.52156e-21)
(1.06938 0.104626 1.61353e-21)
(0.471895 -0.00505895 7.75095e-21)
(0.493059 -0.00635566 -6.00797e-21)
(0.468761 -0.00701154 -2.14126e-21)
(1.00957 0.00398813 -3.94035e-22)
(1.00938 0.00383741 -5.1233e-22)
(0.454898 0.00329379 7.31983e-21)
(0.471228 0.00400176 0)
(0.451598 0.00219576 0)
(1.03575 0.0215002 -5.91291e-23)
(1.03542 0.0217125 -4.64246e-21)
(1.03533 0.0211618 7.90712e-23)
(0.759322 0.0264216 -4.03035e-21)
(0.75457 0.027081 6.6149e-21)
(1.01047 0.00469199 3.46886e-22)
(1.01037 0.00467771 -1.0846e-21)
(1.01741 0.00821524 -9.32002e-22)
(1.01771 0.0084149 -1.00149e-21)
(1.0318 0.0227432 1.41905e-22)
(1.03215 0.0223026 -7.37476e-23)
(1.03153 0.0222162 -9.036e-23)
(0.457702 0.00171505 -2.13721e-21)
(0.459426 0.00251678 1.16575e-20)
(0.478116 0.00259491 -4.0178e-21)
(0.421997 0.00486521 5.9849e-21)
(0.39369 0.00353391 6.63641e-21)
(1.02363 0.0148524 -1.2884e-22)
(1.0237 0.015344 -1.20563e-23)
(1.02326 0.0148635 -1.31107e-22)
(0.655313 -0.0628579 -6.37653e-21)
(0.710669 -0.0653632 -5.9301e-21)
(0.656266 -0.0431238 4.07231e-21)
(1.02228 0.0337549 -7.22774e-22)
(1.01999 0.0329953 2.82714e-22)
(1.02168 0.0313081 1.03045e-21)
(1.03114 0.0201001 2.81011e-22)
(1.00899 -6.34054e-05 -7.44494e-22)
(1.03665 0.112773 5.79885e-21)
(1.02051 0.00905797 -4.89052e-23)
(1.02063 0.00921551 -6.03155e-22)
(1.00984 0.00377648 -1.39534e-22)
(1.00962 0.00360656 -1.40464e-22)
(1.00964 0.00367197 -7.30551e-22)
(1.01672 0.0316546 7.17372e-22)
(1.01484 0.0285752 4.22622e-21)
(1.0191 0.0291698 1.20372e-21)
(1.01438 0.034674 1.27957e-22)
(1.01977 0.0357901 -4.49978e-22)
(0.512674 -0.0490843 -1.95664e-20)
(1.0741 0.0451817 0)
(1.07475 0.0446223 1.01326e-21)
(1.03795 0.0280876 -6.43972e-22)
(0.74524 0.0143846 -1.41413e-20)
(0.747486 0.0156976 -1.40797e-20)
(0.774038 0.0217437 1.25596e-20)
(1.00936 0.000600191 0)
(1.00839 0.000540942 1.06133e-23)
(1.01011 0.000620317 -5.78243e-23)
(1.00732 -0.00165911 -4.51365e-22)
(1.00735 -0.00165073 0)
(1.00711 -0.00152456 7.66417e-23)
(1.00754 -0.00179316 -3.91263e-22)
(1.00729 -0.00164835 -3.56561e-22)
(0.538302 0.140031 4.21741e-21)
(1.07562 0.11807 -2.22991e-21)
(1.07522 0.111398 2.08025e-21)
(1.07007 0.115813 2.57951e-21)
(1.07606 0.143745 -5.32069e-21)
(1.07793 0.15243 -1.27207e-20)
(1.06652 0.145976 1.06249e-21)
(1.01878 0.000989643 9.56163e-23)
(1.01896 0.00110858 -2.13954e-21)
(1.01894 0.000938626 0)
(1.00501 -5.67837e-05 -3.07651e-23)
(1.00387 -5.60893e-05 -3.36943e-23)
(0.482951 -0.162649 -3.52171e-21)
(0.497512 -0.194796 6.93968e-22)
(0.457113 0.00375295 3.55059e-22)
(1.00654 -0.00123698 -4.85506e-22)
(1.00672 -0.00131069 -2.39239e-22)
(1.00661 -0.0012313 3.41451e-22)
(1.00633 -0.00114346 4.58567e-22)
(1.00645 -0.00123316 2.62811e-22)
(1.00275 -0.000150846 -2.49702e-22)
(1.00138 -6.25937e-05 -1.89909e-22)
(1.00777 -0.00192917 -8.10575e-22)
(1.00781 -0.00194176 -2.12301e-22)
(1.00802 -0.0020759 -9.18274e-23)
(1.00775 -0.00191367 -7.8467e-22)
(0.515689 0.0021581 -1.00728e-22)
(0.527014 0.00262221 1.18171e-21)
(0.563726 -0.0237254 0)
(0.57592 -0.00124417 0)
(0.620478 0.00394613 2.09381e-20)
(1.01957 0.00824109 3.19013e-22)
(1.01932 0.00812647 2.09092e-22)
(1.01948 0.00819404 -9.08381e-23)
(1.01025 2.20927e-05 3.00876e-23)
(1.01049 3.93284e-05 3.0091e-23)
(1.01031 1.03347e-05 5.14469e-25)
(1.04106 0.0720063 -4.43908e-21)
(1.03764 0.0717061 3.71882e-21)
(1.03952 0.0693083 -9.55454e-21)
(0.521438 0.00564642 1.382e-20)
(0.508029 0.00449394 6.31353e-21)
(0.523501 0.00551388 7.60578e-21)
(1.00334 -0.000149936 2.57148e-25)
(1.00254 -8.34002e-05 -2.04589e-23)
(1.00259 -9.59234e-05 -3.70793e-22)
(1.01861 0.00107418 -1.26416e-21)
(1.0186 0.000886025 9.37678e-23)
(0.654918 -0.0878895 1.24987e-20)
(0.593864 -0.071137 5.65323e-21)
(0.998582 0.0292989 4.4891e-21)
(0.995801 0.0304089 -1.7848e-21)
(1.0284 0.0287555 1.31347e-20)
(1.08065 0.118045 -3.72395e-21)
(0.745217 0.0142113 4.36358e-21)
(0.718828 0.00713955 7.6301e-22)
(1.00383 0.080725 1.01796e-22)
(0.999504 0.0773824 -9.88995e-22)
(0.998519 0.0828129 -2.1027e-22)
(1.01514 0.0055065 6.45554e-23)
(1.01532 0.00570713 -9.62723e-23)
(0.623666 0.154477 -2.23841e-20)
(0.61535 0.168789 -2.2666e-20)
(1.04409 0.0728641 5.47454e-22)
(1.04181 0.0754367 -3.81847e-21)
(1.03699 0.0387938 -6.16307e-22)
(1.03346 0.0399743 -8.44122e-22)
(1.06905 0.054817 -2.97689e-21)
(1.06989 0.0559876 -4.88847e-21)
(1.07072 0.0546134 9.66781e-21)
(1.02353 0.014397 0)
(1.02396 0.0147733 1.68703e-23)
(0.559251 -0.0362626 0)
(1.03036 0.00204566 4.14522e-22)
(1.02995 0.0021648 1.86944e-21)
(1.0305 0.00242818 -1.47778e-21)
(1.02656 0.0299776 0)
(1.02523 0.0298832 1.65616e-22)
(1.02616 0.0311695 7.57687e-22)
(1.02077 0.0578932 2.20287e-21)
(1.0234 0.0558908 8.87193e-22)
(1.02006 0.0548042 3.9918e-22)
(1.01981 0.00833094 -4.35091e-22)
(1.01967 0.00825881 4.36012e-23)
(1.01956 0.00824187 -5.12741e-22)
(1.0017 -1.46474e-05 0)
(1.03383 0.0157707 -1.22152e-22)
(1.01498 0.0138545 -7.17871e-22)
(1.0156 0.012715 0)
(1.0143 0.0120312 1.72316e-21)
(1.0097 0.00413122 4.01073e-22)
(1.00992 0.00427455 4.31735e-22)
(1.00994 0.0043189 8.39882e-22)
(0.497718 0.00663179 0)
(0.484916 0.00537535 0)
(0.481718 0.00530308 0)
(0.805793 0.224072 -7.3403e-22)
(0.82867 0.222903 7.26085e-22)
(0.813921 0.202227 4.80733e-23)
(1.00841 0.000437937 -2.04538e-21)
(1.00825 0.000591562 -1.69282e-23)
(1.00825 0.00043027 -3.93735e-22)
(1.00618 -0.00101902 4.30291e-22)
(1.00614 -0.00103762 4.0367e-22)
(1.01824 0.00905085 4.01081e-23)
(1.0181 0.00914446 -3.6531e-22)
(1.00623 -0.00101061 -3.81835e-22)
(1.00606 -0.000919002 -1.06849e-22)
(1.03086 0.00191449 2.0592e-22)
(1.0156 0.000231184 0)
(1.01135 0.00016537 -1.43819e-21)
(1.042 0.0363559 4.22129e-21)
(1.04228 0.0376169 3.10221e-21)
(1.04102 0.0371922 3.69976e-21)
(1.00859 0.000295656 -6.10557e-22)
(1.00856 0.000431355 -2.41659e-22)
(0.426458 0.00673552 6.13711e-21)
(0.44338 0.00908844 0)
(0.635539 -0.0313531 0)
(0.647377 -0.0229117 -1.29422e-20)
(1.0227 0.00762509 8.13774e-23)
(1.02274 0.00737258 2.77555e-22)
(1.02232 0.00735891 -9.66731e-22)
(1.01783 0.0119573 0)
(1.01772 0.0128989 9.91685e-22)
(1.01863 0.0127236 -1.39502e-21)
(0.981141 0.175496 -9.81257e-22)
(0.968473 0.168591 7.09949e-22)
(0.971458 0.185384 3.2309e-21)
(1.00946 -0.00230707 1.7276e-25)
(1.00975 -0.00240867 -8.22112e-23)
(1.00942 -0.00225207 2.85491e-22)
(1.04705 -0.0445964 -7.53746e-21)
(1.04009 -0.0538819 -9.39945e-21)
(1.03715 -0.0400332 -2.64843e-21)
(0.514078 0.00824502 0)
(0.510599 0.00810911 -1.476e-21)
(1.00921 -0.00221329 8.47665e-23)
(1.00952 -0.00236482 -1.24018e-22)
(0.493532 0.00382508 0)
(0.49097 0.00373161 -2.02636e-21)
(1.00948 0.00396261 4.08756e-22)
(1.00947 0.00393762 5.24999e-24)
(0.864566 0.0820829 9.61478e-21)
(0.830861 0.0805754 0)
(1.00421 -8.22087e-05 1.64667e-22)
(1.00301 -5.02111e-05 0)
(1.0187 0.00642509 5.02758e-22)
(1.01945 0.00580692 0)
(1.01937 0.0069027 7.68067e-22)
(1.01997 0.00835557 -3.86991e-22)
(1.02002 0.00838343 0)
(1.01445 0.00542007 5.92778e-23)
(1.01419 0.0052903 1.66624e-22)
(1.01419 0.00523709 -1.34282e-22)
(1.09406 0.0787792 -4.66157e-21)
(1.09163 0.0768719 -4.51573e-21)
(1.0952 0.0753543 1.85519e-20)
(1.00547 0.000344195 2.78386e-22)
(1.00551 0.000312966 2.64466e-22)
(1.00354 0.00016481 5.70788e-22)
(0.947661 -0.131717 1.04324e-20)
(0.930363 -0.129511 -5.86693e-21)
(1.03355 0.0229445 -8.09131e-22)
(1.03319 0.0229696 -7.39174e-22)
(1.03335 0.0225272 -2.24103e-21)
(1.0169 0.00216157 1.96268e-22)
(1.01776 0.00426711 0)
(0.792619 -0.043743 1.31238e-20)
(0.779598 -0.0642748 1.58579e-20)
(0.841867 -0.0614944 0)
(0.410849 0.00510932 -8.24775e-21)
(1.00394 -0.000195682 2.4486e-23)
(1.00398 -0.000184652 -3.51643e-23)
(1.04781 0.0507925 3.92043e-22)
(1.04915 0.0520799 3.24424e-21)
(1.04956 0.050262 -1.46693e-21)
(1.01718 0.0170637 5.27493e-22)
(1.01578 0.0154235 -5.51892e-22)
(1.01746 0.0154507 -9.85716e-22)
(1.02982 0.018482 -1.27518e-21)
(1.02964 0.0186743 -6.09911e-22)
(1.02943 0.018201 -5.17076e-22)
(1.01897 0.0186821 6.32736e-22)
(1.02037 0.0175476 -1.15048e-21)
(1.03129 0.0166372 0)
(1.03158 0.0170066 1.00461e-21)
(1.00941 0.0038747 -5.42962e-24)
(1.00943 0.00389125 3.77395e-22)
(1.00922 0.00371922 7.67328e-22)
(1.00644 0.000444806 -2.72355e-22)
(1.00522 0.000316993 -3.58289e-22)
(1.0106 0.109707 2.64927e-21)
(1.01377 0.116723 2.22572e-21)
(1.0177 0.110081 -2.62514e-21)
(1.04679 0.0157915 -6.57015e-22)
(1.05114 0.021975 0)
(1.04038 0.0199398 -7.28264e-22)
(1.02786 0.0301781 0)
(1.02703 0.0290375 -2.92633e-22)
(1.03149 0.0164027 -1.10063e-21)
(1.03098 0.0162999 -6.1988e-22)
(1.01848 0.00109911 -2.09295e-21)
(1.01835 0.000974254 -8.20566e-23)
(1.01832 0.00111801 -8.97411e-22)
(0.695577 0.0262812 -3.62325e-22)
(0.718308 0.0274977 1.78333e-21)
(0.449396 0.000755132 -1.09383e-20)
(0.417986 0.00226816 1.07123e-21)
(1.01131 0.00502975 0)
(1.01109 0.00490593 0)
(1.01106 0.00482743 0)
(1.02746 0.00263836 1.15633e-22)
(1.02716 0.00473667 -3.27241e-23)
(1.02512 0.00284704 1.63352e-21)
(1.03024 0.0186908 2.49206e-22)
(0.962679 0.0840638 7.75127e-22)
(0.954598 0.0701838 8.25617e-22)
(0.969532 0.0706398 7.99925e-22)
(1.07987 0.0400831 4.29635e-22)
(1.08013 0.0394562 1.56089e-20)
(1.07932 0.0397717 1.23037e-20)
(0.634378 -0.0213616 -9.14134e-21)
(0.611292 -0.0262603 -5.23571e-21)
(0.610828 -0.0331672 -1.38488e-20)
(0.655765 0.216188 -2.5495e-21)
(0.671189 0.22272 -1.37066e-20)
(1.01889 0.00240473 3.58774e-23)
(1.01893 0.00379097 0)
(1.0182 0.00290245 0)
(0.931367 0.0612908 4.29413e-21)
(0.930898 0.050211 1.87984e-21)
(1.01786 0.011202 0)
(1.01726 0.0110725 0)
(1.0311 0.0266707 6.61861e-21)
(1.00191 0.0266256 -4.53119e-21)
(0.953035 0.0993435 -1.19649e-21)
(0.970951 0.0972129 -4.34759e-22)
(1.0973 0.0367589 6.92623e-21)
(1.09647 0.038904 9.83255e-21)
(1.01529 0.000367419 7.85606e-22)
(1.01071 6.32479e-05 1.57791e-21)
(1.01786 0.00597333 -1.9038e-22)
(1.01787 0.0044197 -2.11917e-21)
(0.718606 -0.103481 -5.37006e-21)
(1.01836 0.008566 6.3104e-22)
(1.01832 0.00842419 7.23738e-22)
(1.01867 0.00870026 2.60367e-22)
(0.995414 0.0297254 -1.75356e-21)
(0.991959 0.0265238 -6.08871e-22)
(1.07871 0.0515573 2.61631e-22)
(1.08005 0.0525954 -3.86912e-21)
(1.00234 -0.000102328 3.458e-23)
(1.00224 -0.000103976 3.88194e-23)
(1.00142 -7.47831e-05 -1.77247e-22)
(0.744618 0.0219525 4.66157e-23)
(0.715757 0.0199895 5.92874e-21)
(1.01473 0.00131603 -3.36526e-22)
(1.01476 0.00152302 -9.48745e-22)
(1.01457 0.00142015 -3.61295e-22)
(1.07107 0.0315392 -6.73853e-21)
(1.07182 0.0320206 9.24689e-21)
(1.01376 -0.0040536 1.21539e-22)
(1.01387 -0.00398198 -1.26732e-23)
(1.01426 -0.00427204 -6.98698e-23)
(0.243865 -0.0338264 0)
(0.275084 -0.0186471 7.39232e-21)
(1.00874 0.00218979 -1.07013e-23)
(1.00857 0.00212202 -7.5231e-24)
(1.0086 0.00203233 -6.68734e-22)
(1.02885 0.0303657 -1.17777e-22)
(1.02928 0.0294393 -7.65968e-22)
(1.02989 0.0304325 5.84051e-22)
(1.02343 0.0356812 -2.10222e-21)
(1.0247 0.033597 -2.18727e-22)
(1.01922 0.00160593 -5.48095e-24)
(1.01938 0.00252508 6.87953e-22)
(1.00316 -0.000119345 3.00531e-22)
(1.00255 -9.51167e-05 2.9445e-22)
(1.07134 0.0534445 9.8019e-21)
(1.07206 0.0523534 -2.19714e-21)
(1.07065 0.0523275 5.11372e-21)
(1.01628 0.0234883 1.85193e-21)
(1.04568 0.0230719 0)
(1.01805 0.0228473 0)
(1.02306 0.0113366 0)
(1.02289 0.0114366 -7.12288e-23)
(1.02275 0.0109969 -1.65899e-22)
(1.01836 0.00869484 0)
(1.01805 0.00840373 0)
(0.6 0.0079706 -5.27612e-21)
(0.602693 0.00743191 4.2727e-22)
(1.00971 0.0263318 0)
(1.01409 0.0248299 1.81078e-21)
(1.04284 0.0248065 1.45339e-20)
(0.868839 0.174615 1.35599e-21)
(0.894567 0.16713 -5.66913e-21)
(0.851117 0.168965 -2.88307e-20)
(1.03267 0.254761 4.18242e-21)
(1.00245 0.274899 0)
(1.00894 -0.00212081 2.95063e-22)
(1.00889 -0.00205834 -1.63477e-22)
(1.01974 0.00837007 -4.5405e-22)
(1.01952 0.0082248 -1.53904e-22)
(1.01969 0.00833969 -7.2777e-23)
(0.992957 0.0317577 -1.75911e-21)
(0.99057 0.033101 0)
(1.02345 0.031395 0)
(0.939783 0.0652671 1.75652e-21)
(0.929884 0.0719824 -7.05235e-21)
(1.009 -0.00219636 1.45411e-22)
(1.00868 -0.00204574 2.5459e-22)
(1.01657 0.0192019 4.00327e-22)
(1.0236 0.00932541 1.3309e-21)
(1.02389 0.00963365 2.26335e-22)
(1.0235 0.00945846 1.93681e-21)
(1.05136 0.0187581 -2.45477e-21)
(1.05505 0.0191795 0)
(1.05347 0.0151477 -1.81378e-22)
(1.02846 0.0313881 0)
(1.06556 0.0933504 -9.81962e-21)
(1.06542 0.0894391 1.46121e-21)
(1.06167 0.0911396 -3.32095e-21)
(0.975282 0.0522968 -1.82696e-21)
(0.979538 0.0476686 -2.10852e-21)
(0.982371 0.0536235 0)
(1.04947 -0.0343091 0)
(1.05652 -0.0451453 2.82745e-21)
(1.06899 0.0325455 1.16204e-21)
(1.0684 0.033006 1.00246e-21)
(1.06916 0.0333105 -1.36066e-20)
(0.542104 -0.00289922 6.03064e-21)
(0.524381 -0.00322016 -2.52793e-21)
(0.540512 -0.000989647 -6.60615e-21)
(1.01251 0.00559481 2.08816e-22)
(1.01244 0.00547601 7.07949e-22)
(1.02339 0.011655 0)
(1.0232 0.0112312 3.84524e-22)
(1.02089 0.0234122 -5.14071e-22)
(1.02347 0.0237948 -2.44192e-22)
(1.10358 0.0672521 -4.73349e-21)
(1.10238 0.0644296 -4.92052e-21)
(1.10699 0.0656006 2.0343e-20)
(1.00249 -0.000118759 -1.34638e-22)
(1.0016 -5.30194e-05 -2.91576e-22)
(1.00251 -0.000116714 -5.37168e-22)
(0.434468 -0.00327443 2.065e-20)
(1.06959 0.0321532 8.59603e-21)
(1.06872 0.0319147 0)
(0.893922 -0.184627 1.08154e-22)
(0.89921 -0.171192 2.36602e-22)
(1.02245 0.0100136 0)
(1.02273 0.0101427 0)
(0.953519 0.0573062 -3.73377e-21)
(0.949204 0.0641972 -2.54087e-21)
(0.959007 0.0645262 -1.02922e-21)
(1.02973 0.00225681 4.01899e-23)
(1.02706 0.000703047 0)
(0.756469 -0.00224699 0)
(0.764373 -0.0421728 0)
(0.754862 -0.0340251 3.55966e-22)
(1.00944 0.000305824 -3.25274e-22)
(1.00981 0.000464889 -9.35358e-22)
(1.00944 0.000133509 1.3702e-22)
(1.08458 0.141587 0)
(0.993279 0.182836 -1.18165e-21)
(1.02231 0.038606 2.51167e-21)
(1.02533 0.0380127 4.17889e-22)
(1.02266 0.00782042 -6.55625e-22)
(1.02306 0.00787308 -2.66005e-22)
(1.09665 0.0612216 2.10038e-21)
(1.10031 0.0654033 6.04347e-21)
(1.07051 0.0619587 8.19505e-23)
(1.01574 -0.00513953 0)
(1.01594 -0.00494017 -2.39194e-22)
(1.01534 -0.00471993 0)