/*--------------------------------*- C++ -*----------------------------------*\
| =========                 |                                                 |
| \\      /  F ield         | OpenFOAM: The Open Source CFD Toolbox           |
|  \\    /   O peration     | Version:  v2012                                 |
|   \\  /    A nd           | Website:  www.openfoam.com                      |
|    \\/     M anipulation  |                                                 |
\*---------------------------------------------------------------------------*/
FoamFile
{
    version     2.0;
    format      ascii;
    class       volVectorField;
    location    "300";
    object      cellDisplacement;
}
// * * * * * * * * * * * * * * * * * * * * * * * * * * * * * * * * * * * * * //

dimensions      [0 1 0 0 0 0 0];


internalField   nonuniform List<vector> 
13851
(
(0 -9.67251e-06 0)
(0 -4.33766e-05 0)
(0 -4.4676e-05 0)
(0 -8.8348e-06 0)
(0 -2.95607e-05 0)
(0 -3.45558e-05 0)
(0 -3.4155e-05 0)
(0 -5.5146e-05 0)
(0 -8.83149e-06 0)
(0 -5.82772e-05 0)
(0 -1.19624e-05 0)
(0 -9.60537e-05 0)
(0 -3.05291e-05 0)
(0 -8.81674e-06 0)
(0 -1.74046e-05 0)
(0 -9.0502e-06 0)
(0 -8.8167e-06 0)
(0 -0.00010082 0)
(0 -9.1589e-06 0)
(0 -9.73184e-06 0)
(0 -1.55956e-05 0)
(0 -2.65525e-05 0)
(0 -8.8736e-06 0)
(0 -9.36654e-06 0)
(0 -8.9702e-06 0)
(0 -1.0075e-05 0)
(0 -9.00903e-06 0)
(0 -8.97936e-06 0)
(0 -8.8442e-06 0)
(0 -0.000150898 0)
(0 -8.82441e-06 0)
(0 -3.52025e-05 0)
(0 -9.69101e-06 0)
(0 -8.84241e-06 0)
(0 -1.51136e-05 0)
(0 -8.85742e-06 0)
(0 -8.03964e-06 0)
(0 -8.94924e-06 0)
(0 -8.84172e-06 0)
(0 -5.99721e-05 0)
(0 -8.83712e-06 0)
(0 -8.84502e-06 0)
(0 -8.81569e-06 0)
(0 -9.01227e-06 0)
(0 -8.83909e-06 0)
(0 -0.000119072 0)
(0 -4.54506e-05 0)
(0 -9.31956e-06 0)
(0 -4.57474e-05 0)
(0 -3.13251e-05 0)
(0 -8.81783e-06 0)
(0 -3.64014e-05 0)
(0 -9.08897e-06 0)
(0 -1.90242e-05 0)
(0 -8.81978e-06 0)
(0 -5.83208e-05 0)
(0 -9.638e-06 0)
(0 -8.8347e-06 0)
(0 -8.93889e-06 0)
(0 -8.83371e-06 0)
(0 -9.61503e-05 0)
(0 -9.03606e-06 0)
(0 -6.73454e-05 0)
(0 -4.3731e-05 0)
(0 -9.14573e-06 0)
(0 -9.13595e-06 0)
(0 -8.83822e-06 0)
(0 -9.44888e-06 0)
(0 -6.95755e-05 0)
(0 -8.82478e-06 0)
(0 -8.81943e-06 0)
(0 -1.3614e-05 0)
(0 -4.51657e-05 0)
(0 -8.82346e-06 0)
(0 -1.89934e-05 0)
(0 -3.37084e-05 0)
(0 -8.81692e-06 0)
(0 -0.000143491 0)
(0 -8.98589e-06 0)
(0 -0.000103663 0)
(0 -6.8782e-05 0)
(0 -9.2139e-06 0)
(0 -1.54443e-05 0)
(0 -8.81623e-06 0)
(0 -8.82815e-06 0)
(0 -8.8223e-06 0)
(0 -2.58277e-05 0)
(0 -8.82318e-06 0)
(0 -5.33306e-05 0)
(0 -8.82484e-06 0)
(0 -3.69194e-05 0)
(0 -3.43508e-05 0)
(0 -8.81569e-06 0)
(0 -8.82051e-06 0)
(0 -8.82454e-06 0)
(0 -9.07632e-06 0)
(0 -0.000102216 0)
(0 -9.17937e-06 0)
(0 -8.81703e-06 0)
(0 -9.48812e-06 0)
(0 -9.17397e-06 0)
(0 -1.01641e-05 0)
(0 -9.96634e-06 0)
(0 -3.65006e-05 0)
(0 -0.000124458 0)
(0 -1.36887e-05 0)
(0 -0.000125256 0)
(0 -8.82066e-06 0)
(0 -3.5338e-05 0)
(0 -0.000103735 0)
(0 -1.75835e-05 0)
(0 -0.000117774 0)
(0 -9.51954e-06 0)
(0 -1.19534e-05 0)
(0 -9.56751e-06 0)
(0 -1.98844e-05 0)
(0 -0.000157158 0)
(0 -6.13044e-05 0)
(0 -8.8347e-06 0)
(0 -8.82854e-06 0)
(0 -9.23129e-06 0)
(0 -0.000120612 0)
(0 -6.48267e-05 0)
(0 -8.83718e-06 0)
(0 -9.25285e-06 0)
(0 -9.24662e-06 0)
(0 -0.000105218 0)
(0 -1.2187e-05 0)
(0 -8.84019e-06 0)
(0 -1.44528e-05 0)
(0 -2.60519e-05 0)
(0 -2.31641e-05 0)
(0 -8.97324e-06 0)
(0 -8.83993e-06 0)
(0 -1.17529e-05 0)
(0 -8.8262e-06 0)
(0 -9.52245e-06 0)
(0 -8.82123e-06 0)
(0 -1.10092e-05 0)
(0 -1.47386e-05 0)
(0 -9.24684e-06 0)
(0 -2.54114e-05 0)
(0 -5.15511e-05 0)
(0 -9.26745e-06 0)
(0 -8.95587e-06 0)
(0 -3.2531e-05 0)
(0 -0.000141833 0)
(0 -8.82117e-06 0)
(0 -8.84197e-06 0)
(0 -1.18771e-05 0)
(0 -9.20142e-06 0)
(0 -9.57239e-06 0)
(0 -1.16643e-05 0)
(0 -9.2771e-06 0)
(0 -2.97175e-05 0)
(0 -4.54002e-05 0)
(0 -0.000101305 0)
(0 -8.8413e-06 0)
(0 -1.55054e-05 0)
(0 -4.3403e-05 0)
(0 -2.01003e-05 0)
(0 -8.85049e-06 0)
(0 -1.40316e-05 0)
(0 -9.35852e-06 0)
(0 -8.81746e-06 0)
(0 -8.84211e-06 0)
(0 -8.84163e-06 0)
(0 -8.8176e-06 0)
(0 -1.8459e-05 0)
(0 -8.88311e-06 0)
(0 -9.21327e-05 0)
(0 -0.000156613 0)
(0 -1.21806e-05 0)
(0 -2.58157e-05 0)
(0 -8.82615e-06 0)
(0 -9.05835e-06 0)
(0 -9.26798e-06 0)
(0 -0.000155016 0)
(0 -1.86769e-05 0)
(0 -9.29633e-06 0)
(0 -9.29313e-06 0)
(0 -9.0358e-06 0)
(0 -1.97327e-05 0)
(0 -1.47562e-05 0)
(0 -8.81569e-06 0)
(0 -8.8394e-06 0)
(0 -9.63287e-06 0)
(0 -1.24896e-05 0)
(0 -2.93669e-05 0)
(0 -0.000150979 0)
(0 -8.97649e-06 0)
(0 -1.55969e-05 0)
(0 -8.81603e-06 0)
(0 -3.39657e-05 0)
(0 -3.40208e-05 0)
(0 -9.14297e-06 0)
(0 -9.70008e-06 0)
(0 -8.23052e-05 0)
(0 -8.03368e-05 0)
(0 -9.4419e-06 0)
(0 -9.24553e-06 0)
(0 -8.82484e-06 0)
(0 -8.83156e-06 0)
(0 -1.76512e-05 0)
(0 -8.97379e-06 0)
(0 -8.82296e-06 0)
(0 -2.13787e-05 0)
(0 -1.44742e-05 0)
(0 -8.8298e-06 0)
(0 -3.62571e-05 0)
(0 -8.99136e-06 0)
(0 -6.58783e-05 0)
(0 -9.21286e-06 0)
(0 -4.31916e-05 0)
(0 -1.49269e-05 0)
(0 -3.01532e-05 0)
(0 -3.21498e-05 0)
(0 -9.31151e-06 0)
(0 -8.16854e-05 0)
(0 -9.40561e-06 0)
(0 -0.000155083 0)
(0 -9.74337e-06 0)
(0 -8.81592e-06 0)
(0 -8.82584e-06 0)
(0 -1.30595e-05 0)
(0 -1.4151e-05 0)
(0 -2.35291e-05 0)
(0 -9.30222e-06 0)
(0 -8.87552e-05 0)
(0 -1.53521e-05 0)
(0 -8.85761e-06 0)
(0 -1.2762e-05 0)
(0 -3.67858e-05 0)
(0 -6.21801e-05 0)
(0 -8.83091e-06 0)
(0 -0.000148502 0)
(0 -8.88628e-06 0)
(0 -8.82978e-06 0)
(0 -9.59054e-06 0)
(0 -1.8439e-05 0)
(0 -8.99587e-06 0)
(0 -8.83671e-06 0)
(0 -8.84095e-06 0)
(0 -9.0308e-06 0)
(0 -2.04327e-05 0)
(0 -9.22364e-06 0)
(0 -9.36633e-06 0)
(0 -1.81948e-05 0)
(0 -9.10841e-06 0)
(0 -1.71993e-05 0)
(0 -8.84541e-06 0)
(0 -9.73809e-06 0)
(0 -5.76241e-05 0)
(0 -3.3962e-05 0)
(0 -9.13998e-06 0)
(0 -8.8534e-06 0)
(0 -8.86304e-06 0)
(0 -0.000152988 0)
(0 -9.22675e-06 0)
(0 -5.42831e-05 0)
(0 -9.3241e-06 0)
(0 -9.28228e-06 0)
(0 -3.25372e-05 0)
(0 -1.38464e-05 0)
(0 -9.67959e-06 0)
(0 -6.34787e-05 0)
(0 -1.00603e-05 0)
(0 -9.56283e-06 0)
(0 -9.01141e-06 0)
(0 -7.57936e-05 0)
(0 -3.33183e-05 0)
(0 -1.27539e-05 0)
(0 -8.83436e-06 0)
(0 -8.82719e-06 0)
(0 -1.45587e-05 0)
(0 -0.000118232 0)
(0 -9.26603e-06 0)
(0 -9.28179e-06 0)
(0 -9.80045e-06 0)
(0 -1.41483e-05 0)
(0 -8.83224e-06 0)
(0 -8.81743e-06 0)
(0 -3.12969e-05 0)
(0 -1.92647e-05 0)
(0 -8.92923e-06 0)
(0 -0.00013039 0)
(0 -0.000103203 0)
(0 -9.74235e-06 0)
(0 -1.25263e-05 0)
(0 -0.000142104 0)
(0 -4.68616e-05 0)
(0 -8.49584e-05 0)
(0 -3.58768e-05 0)
(0 -2.02259e-05 0)
(0 -0.000104397 0)
(0 -8.83158e-06 0)
(0 -1.51231e-05 0)
(0 -7.50473e-05 0)
(0 -8.85675e-06 0)
(0 -8.83755e-06 0)
(0 -3.17934e-05 0)
(0 -9.68458e-06 0)
(0 -8.8177e-06 0)
(0 -2.47248e-05 0)
(0 -3.22973e-05 0)
(0 -1.46757e-05 0)
(0 -8.81639e-06 0)
(0 -8.85348e-06 0)
(0 -1.16362e-05 0)
(0 -3.69341e-05 0)
(0 -8.88839e-06 0)
(0 -9.19034e-05 0)
(0 -1.12942e-05 0)
(0 -8.82063e-06 0)
(0 -9.01465e-06 0)
(0 -4.53411e-05 0)
(0 -8.94458e-06 0)
(0 -9.01818e-06 0)
(0 -8.82278e-06 0)
(0 -9.59474e-06 0)
(0 -1.00521e-05 0)
(0 -8.82915e-06 0)
(0 -8.83718e-06 0)
(0 -8.98482e-06 0)
(0 -7.7137e-05 0)
(0 -8.81665e-06 0)
(0 -8.81569e-06 0)
(0 -9.25678e-06 0)
(0 -9.24327e-06 0)
(0 -2.07582e-05 0)
(0 -1.17592e-05 0)
(0 -1.46939e-05 0)
(0 -8.83479e-06 0)
(0 -9.8273e-06 0)
(0 -9.9432e-05 0)
(0 -5.19793e-05 0)
(0 -2.63913e-05 0)
(0 -8.82094e-06 0)
(0 -9.3781e-06 0)
(0 -0.000133983 0)
(0 -8.82431e-06 0)
(0 -1.40386e-05 0)
(0 -2.24663e-05 0)
(0 -4.22235e-05 0)
(0 -8.81595e-06 0)
(0 -9.29905e-06 0)
(0 -9.10251e-06 0)
(0 -3.0992e-05 0)
(0 -3.84627e-05 0)
(0 -8.85081e-06 0)
(0 -2.91005e-05 0)
(0 -9.24844e-06 0)
(0 -3.21822e-05 0)
(0 -1.4606e-05 0)
(0 -1.3538e-05 0)
(0 -5.23983e-05 0)
(0 -7.73961e-05 0)
(0 -9.69398e-06 0)
(0 -9.43095e-06 0)
(0 -9.73387e-06 0)
(0 -8.98674e-06 0)
(0 -8.85289e-06 0)
(0 -3.16023e-05 0)
(0 -8.82903e-06 0)
(0 -9.21883e-06 0)
(0 -0.000117088 0)
(0 -8.99554e-06 0)
(0 -1.0365e-05 0)
(0 -8.81681e-06 0)
(0 -2.7675e-05 0)
(0 -9.38313e-06 0)
(0 -8.96082e-06 0)
(0 -8.97656e-06 0)
(0 -9.77753e-06 0)
(0 -8.81812e-06 0)
(0 -6.1915e-05 0)
(0 -9.0406e-06 0)
(0 -8.8157e-06 0)
(0 -2.34029e-05 0)
(0 -8.84414e-06 0)
(0 -2.06982e-05 0)
(0 -8.83106e-06 0)
(0 -1.98816e-05 0)
(0 -1.32817e-05 0)
(0 -9.74794e-06 0)
(0 -9.2992e-06 0)
(0 -4.39819e-05 0)
(0 -3.363e-05 0)
(0 -1.22062e-05 0)
(0 -1.84936e-05 0)
(0 -0.000105929 0)
(0 -1.43295e-05 0)
(0 -8.86523e-06 0)
(0 -4.69861e-05 0)
(0 -1.4533e-05 0)
(0 -8.87204e-06 0)
(0 -4.39641e-05 0)
(0 -8.93876e-06 0)
(0 -1.30303e-05 0)
(0 -8.85905e-06 0)
(0 -3.48483e-05 0)
(0 -1.02275e-05 0)
(0 -8.99873e-06 0)
(0 -9.24724e-06 0)
(0 -1.3932e-05 0)
(0 -8.86787e-06 0)
(0 -8.83402e-06 0)
(0 -9.02009e-06 0)
(0 -6.06965e-05 0)
(0 -9.76629e-06 0)
(0 -2.03564e-05 0)
(0 -9.55882e-06 0)
(0 -0.000125931 0)
(0 -8.81569e-06 0)
(0 -8.86628e-06 0)
(0 -8.97382e-06 0)
(0 -3.92258e-05 0)
(0 -9.68285e-06 0)
(0 -9.05466e-06 0)
(0 -8.82838e-06 0)
(0 -0.000116324 0)
(0 -8.81637e-06 0)
(0 -9.26752e-06 0)
(0 -8.85788e-06 0)
(0 -1.66725e-05 0)
(0 -8.97182e-06 0)
(0 -3.6214e-05 0)
(0 -2.25079e-05 0)
(0 -8.82041e-06 0)
(0 -9.05902e-06 0)
(0 -5.55212e-05 0)
(0 -4.33241e-05 0)
(0 -1.42711e-05 0)
(0 -0.000164314 0)
(0 -8.87392e-06 0)
(0 -1.16494e-05 0)
(0 -1.04841e-05 0)
(0 -3.19754e-05 0)
(0 -6.26052e-05 0)
(0 -4.05091e-05 0)
(0 -8.9899e-06 0)
(0 -7.55259e-05 0)
(0 -4.16689e-05 0)
(0 -8.85753e-06 0)
(0 -8.87085e-06 0)
(0 -2.68701e-05 0)
(0 -9.00265e-06 0)
(0 -6.56776e-05 0)
(0 -0.000107061 0)
(0 -4.20124e-05 0)
(0 -9.68222e-06 0)
(0 -1.29028e-05 0)
(0 -9.92281e-05 0)
(0 -5.83087e-05 0)
(0 -9.28116e-06 0)
(0 -5.14529e-05 0)
(0 -8.8598e-06 0)
(0 -0.000102585 0)
(0 -2.60815e-05 0)
(0 -8.83962e-06 0)
(0 -1.19042e-05 0)
(0 -7.67639e-05 0)
(0 -7.93985e-05 0)
(0 -3.29552e-05 0)
(0 -7.55477e-05 0)
(0 -8.9978e-06 0)
(0 -8.85529e-06 0)
(0 -1.97792e-05 0)
(0 -9.19186e-06 0)
(0 -4.10963e-05 0)
(0 -7.16868e-05 0)
(0 -8.83164e-06 0)
(0 -8.97722e-06 0)
(0 -1.13288e-05 0)
(0 -4.77055e-05 0)
(0 -8.83697e-06 0)
(0 -1.11786e-05 0)
(0 -8.9048e-06 0)
(0 -3.598e-05 0)
(0 -2.30409e-05 0)
(0 -9.69723e-06 0)
(0 -1.80001e-05 0)
(0 -8.83797e-06 0)
(0 -9.03775e-06 0)
(0 -8.9923e-06 0)
(0 -2.33839e-05 0)
(0 -9.54088e-06 0)
(0 -6.58786e-05 0)
(0 -8.84677e-06 0)
(0 -1.33543e-05 0)
(0 -9.67958e-06 0)
(0 -2.08689e-05 0)
(0 -3.26479e-05 0)
(0 -1.2145e-05 0)
(0 -1.20463e-05 0)
(0 -3.21062e-05 0)
(0 -8.81738e-06 0)
(0 -8.83124e-06 0)
(0 -8.86339e-06 0)
(0 -8.82422e-06 0)
(0 -8.85579e-06 0)
(0 -8.8271e-06 0)
(0 -9.24899e-06 0)
(0 -1.38174e-05 0)
(0 -5.51173e-05 0)
(0 -8.9211e-06 0)
(0 -6.0087e-05 0)
(0 -0.000108418 0)
(0 -1.30574e-05 0)
(0 -8.82761e-06 0)
(0 -4.55612e-05 0)
(0 -2.44806e-05 0)
(0 -9.81127e-06 0)
(0 -1.4047e-05 0)
(0 -6.13551e-05 0)
(0 -8.89466e-06 0)
(0 -0.000102295 0)
(0 -8.84006e-06 0)
(0 -9.01862e-06 0)
(0 -0.000103447 0)
(0 -4.77211e-05 0)
(0 -9.26119e-06 0)
(0 -8.99724e-06 0)
(0 -0.000145275 0)
(0 -8.9266e-06 0)
(0 -8.90893e-06 0)
(0 -9.70239e-05 0)
(0 -8.82925e-06 0)
(0 -9.18808e-06 0)
(0 -9.75488e-06 0)
(0 -2.32919e-05 0)
(0 -8.85819e-06 0)
(0 -8.81948e-06 0)
(0 -9.62456e-05 0)
(0 -9.19785e-06 0)
(0 -6.73285e-05 0)
(0 -0.000100755 0)
(0 -8.84743e-06 0)
(0 -8.83128e-06 0)
(0 -1.69032e-05 0)
(0 -1.30778e-05 0)
(0 -6.08767e-05 0)
(0 -1.11818e-05 0)
(0 -8.84099e-06 0)
(0 -8.83504e-06 0)
(0 -9.95027e-05 0)
(0 -8.81779e-06 0)
(0 -0.000101861 0)
(0 -6.69868e-05 0)
(0 -1.36517e-05 0)
(0 -2.4604e-05 0)
(0 -0.000112826 0)
(0 -3.33636e-05 0)
(0 -8.83172e-06 0)
(0 -9.35102e-06 0)
(0 -8.82882e-06 0)
(0 -4.72802e-05 0)
(0 -5.3752e-05 0)
(0 -8.83658e-06 0)
(0 -6.32659e-05 0)
(0 -9.75761e-06 0)
(0 -2.71883e-05 0)
(0 -1.92334e-05 0)
(0 -2.05599e-05 0)
(0 -8.84486e-06 0)
(0 -8.81773e-06 0)
(0 -3.46554e-05 0)
(0 -8.81597e-06 0)
(0 -4.89159e-05 0)
(0 -1.17e-05 0)
(0 -8.84304e-06 0)
(0 -8.82278e-06 0)
(0 -6.18018e-05 0)
(0 -6.34661e-05 0)
(0 -9.96717e-06 0)
(0 -8.83094e-06 0)
(0 -8.94446e-06 0)
(0 -1.12438e-05 0)
(0 -8.89496e-06 0)
(0 -2.38808e-05 0)
(0 -2.03957e-05 0)
(0 -8.86155e-06 0)
(0 -8.89263e-06 0)
(0 -9.36087e-06 0)
(0 -8.8384e-06 0)
(0 -9.25363e-06 0)
(0 -8.85845e-06 0)
(0 -6.66471e-05 0)
(0 -8.92538e-06 0)
(0 -8.99791e-06 0)
(0 -7.03523e-05 0)
(0 -8.81577e-06 0)
(0 -8.85582e-06 0)
(0 -1.87824e-05 0)
(0 -1.44999e-05 0)
(0 -5.66809e-05 0)
(0 -9.20693e-06 0)
(0 -1.0763e-05 0)
(0 -8.88862e-06 0)
(0 -7.30916e-05 0)
(0 -2.76108e-05 0)
(0 -1.4479e-05 0)
(0 -1.43495e-05 0)
(0 -0.0001045 0)
(0 -8.82601e-06 0)
(0 -3.38784e-05 0)
(0 -9.29296e-06 0)
(0 -2.19403e-05 0)
(0 -9.56793e-06 0)
(0 -3.83675e-05 0)
(0 -5.9419e-05 0)
(0 -1.30141e-05 0)
(0 -8.81945e-06 0)
(0 -1.39465e-05 0)
(0 -8.82464e-06 0)
(0 -2.25786e-05 0)
(0 -0.000165256 0)
(0 -0.000114843 0)
(0 -1.20389e-05 0)
(0 -5.91483e-05 0)
(0 -1.02061e-05 0)
(0 -4.19316e-05 0)
(0 -1.1469e-05 0)
(0 -8.92994e-06 0)
(0 -6.38477e-05 0)
(0 -8.82338e-06 0)
(0 -3.12315e-05 0)
(0 -9.09315e-06 0)
(0 -8.81621e-06 0)
(0 -8.84606e-06 0)
(0 -1.31785e-05 0)
(0 -8.89747e-06 0)
(0 -9.84253e-06 0)
(0 -9.29646e-06 0)
(0 -8.85295e-06 0)
(0 -9.77805e-05 0)
(0 -8.88598e-06 0)
(0 -1.41338e-05 0)
(0 -2.22693e-05 0)
(0 -8.82846e-06 0)
(0 -9.01271e-06 0)
(0 -0.000116322 0)
(0 -1.03325e-05 0)
(0 -8.34621e-05 0)
(0 -8.86015e-06 0)
(0 -8.81705e-06 0)
(0 -6.68802e-05 0)
(0 -9.41723e-06 0)
(0 -8.87522e-06 0)
(0 -1.55193e-05 0)
(0 -2.2552e-05 0)
(0 -9.91845e-06 0)
(0 -8.82279e-06 0)
(0 -8.86276e-06 0)
(0 -3.33268e-05 0)
(0 -9.75531e-06 0)
(0 -5.37699e-05 0)
(0 -5.61612e-05 0)
(0 -8.9124e-06 0)
(0 -9.69555e-06 0)
(0 -9.54411e-06 0)
(0 -0.000114739 0)
(0 -9.59628e-06 0)
(0 -1.03258e-05 0)
(0 -1.04412e-05 0)
(0 -2.63984e-05 0)
(0 -3.51163e-05 0)
(0 -1.09197e-05 0)
(0 -1.489e-05 0)
(0 -9.43387e-06 0)
(0 -1.38795e-05 0)
(0 -1.37697e-05 0)
(0 -9.43631e-06 0)
(0 -8.9242e-06 0)
(0 -9.18081e-06 0)
(0 -8.86427e-06 0)
(0 -8.94169e-06 0)
(0 -9.24427e-06 0)
(0 -8.81755e-06 0)
(0 -1.26657e-05 0)
(0 -8.84905e-06 0)
(0 -9.69914e-06 0)
(0 -0.000108554 0)
(0 -2.11091e-05 0)
(0 -9.2334e-06 0)
(0 -2.63193e-05 0)
(0 -0.000106708 0)
(0 -0.000112834 0)
(0 -9.22288e-06 0)
(0 -8.81797e-06 0)
(0 -2.54937e-05 0)
(0 -8.82763e-06 0)
(0 -0.000164801 0)
(0 -8.86064e-06 0)
(0 -9.26411e-06 0)
(0 -8.82459e-06 0)
(0 -1.03682e-05 0)
(0 -3.38009e-05 0)
(0 -4.42833e-05 0)
(0 -8.82588e-06 0)
(0 -9.55454e-06 0)
(0 -1.31479e-05 0)
(0 -9.04365e-06 0)
(0 -6.5199e-05 0)
(0 -8.9309e-06 0)
(0 -9.1472e-06 0)
(0 -9.30321e-06 0)
(0 -2.18588e-05 0)
(0 -9.15039e-06 0)
(0 -3.73101e-05 0)
(0 -3.53972e-05 0)
(0 -2.21327e-05 0)
(0 -5.42294e-05 0)
(0 -8.8392e-06 0)
(0 -4.10433e-05 0)
(0 -8.91846e-06 0)
(0 -8.83411e-06 0)
(0 -1.02783e-05 0)
(0 -8.83263e-06 0)
(0 -8.81932e-06 0)
(0 -9.27112e-06 0)
(0 -9.25311e-06 0)
(0 -1.31265e-05 0)
(0 -5.29448e-05 0)
(0 -3.41911e-05 0)
(0 -0.000147996 0)
(0 -0.000116297 0)
(0 -3.37574e-05 0)
(0 -1.16443e-05 0)
(0 -9.57108e-06 0)
(0 -1.0152e-05 0)
(0 -8.99629e-06 0)
(0 -4.08508e-05 0)
(0 -8.82961e-06 0)
(0 -8.55906e-06 0)
(0 -8.83905e-06 0)
(0 -1.61153e-05 0)
(0 -1.50549e-05 0)
(0 -5.93655e-05 0)
(0 -8.84623e-06 0)
(0 -3.36243e-05 0)
(0 -8.88966e-06 0)
(0 -8.85733e-06 0)
(0 -1.51385e-05 0)
(0 -1.15193e-05 0)
(0 -9.61519e-05 0)
(0 -8.84117e-06 0)
(0 -2.40026e-05 0)
(0 -4.46455e-05 0)
(0 -8.91697e-06 0)
(0 -5.04309e-05 0)
(0 -2.52361e-05 0)
(0 -0.00010433 0)
(0 -1.35662e-05 0)
(0 -8.8215e-06 0)
(0 -2.58443e-05 0)
(0 -2.13927e-05 0)
(0 -9.23032e-06 0)
(0 -8.8351e-06 0)
(0 -1.24804e-05 0)
(0 -2.00197e-05 0)
(0 -8.8524e-06 0)
(0 -0.000147649 0)
(0 -8.85537e-06 0)
(0 -4.15275e-05 0)
(0 -5.02432e-05 0)
(0 -8.98765e-06 0)
(0 -1.05642e-05 0)
(0 -9.62794e-06 0)
(0 -1.06789e-05 0)
(0 -1.36807e-05 0)
(0 -4.16963e-05 0)
(0 -6.86862e-06 0)
(0 -1.14587e-05 0)
(0 -6.54332e-05 0)
(0 -3.94669e-05 0)
(0 -2.3542e-05 0)
(0 -9.21761e-06 0)
(0 -0.000132513 0)
(0 -9.31431e-06 0)
(0 -8.94453e-06 0)
(0 -8.88884e-06 0)
(0 -1.07577e-05 0)
(0 -8.83123e-06 0)
(0 -1.07732e-05 0)
(0 -5.18776e-05 0)
(0 -9.78644e-06 0)
(0 -0.000161982 0)
(0 -3.32445e-05 0)
(0 -8.87018e-06 0)
(0 -8.84769e-06 0)
(0 -8.88539e-06 0)
(0 -8.85167e-06 0)
(0 -6.78625e-05 0)
(0 -6.92416e-05 0)
(0 -9.7805e-06 0)
(0 -3.57348e-05 0)
(0 -0.000138106 0)
(0 -8.87021e-06 0)
(0 -9.2892e-06 0)
(0 -8.85468e-06 0)
(0 -9.02629e-06 0)
(0 -1.04664e-05 0)
(0 -5.08175e-05 0)
(0 -0.000151404 0)
(0 -8.95072e-06 0)
(0 -1.04909e-05 0)
(0 -4.81604e-05 0)
(0 -2.62094e-05 0)
(0 -9.59408e-06 0)
(0 -9.50279e-06 0)
(0 -8.82814e-06 0)
(0 -3.04359e-05 0)
(0 -9.07426e-05 0)
(0 -8.82102e-06 0)
(0 -2.76924e-05 0)
(0 -2.05987e-05 0)
(0 -0.000165375 0)
(0 -8.82871e-06 0)
(0 -4.08634e-05 0)
(0 -8.81637e-06 0)
(0 -7.07429e-05 0)
(0 -9.66672e-06 0)
(0 -1.67209e-05 0)
(0 -9.69836e-06 0)
(0 -2.1116e-05 0)
(0 -4.44128e-05 0)
(0 -4.33368e-05 0)
(0 -0.000113095 0)
(0 -8.90871e-06 0)
(0 -2.48491e-05 0)
(0 -8.86279e-06 0)
(0 -6.37816e-05 0)
(0 -8.92727e-06 0)
(0 -8.82964e-06 0)
(0 -2.33437e-05 0)
(0 -0.00010804 0)
(0 -8.89172e-06 0)
(0 -8.85463e-06 0)
(0 -3.31097e-05 0)
(0 -1.05155e-05 0)
(0 -3.58912e-05 0)
(0 -8.88461e-06 0)
(0 -0.000105088 0)
(0 -9.24691e-06 0)
(0 -6.90031e-05 0)
(0 -0.000116926 0)
(0 -8.89712e-06 0)
(0 -2.00385e-05 0)
(0 -7.99808e-05 0)
(0 -1.87109e-05 0)
(0 -8.83883e-06 0)
(0 -9.10726e-06 0)
(0 -8.86963e-06 0)
(0 -0.000153522 0)
(0 -8.81877e-06 0)
(0 -7.42502e-05 0)
(0 -0.000129833 0)
(0 -2.95249e-05 0)
(0 -6.07395e-05 0)
(0 -3.68593e-05 0)
(0 -8.86454e-06 0)
(0 -8.86817e-06 0)
(0 -8.01148e-05 0)
(0 -4.14659e-05 0)
(0 -1.64496e-05 0)
(0 -0.000120156 0)
(0 -8.88498e-06 0)
(0 -9.7156e-06 0)
(0 -8.81683e-06 0)
(0 -8.83117e-06 0)
(0 -4.33398e-05 0)
(0 -9.47638e-06 0)
(0 -6.9721e-05 0)
(0 -1.57772e-05 0)
(0 -9.33106e-06 0)
(0 -9.81771e-05 0)
(0 -4.06236e-05 0)
(0 -9.00195e-06 0)
(0 -8.81834e-06 0)
(0 -1.16818e-05 0)
(0 -8.81575e-06 0)
(0 -1.2072e-05 0)
(0 -6.69045e-05 0)
(0 -1.62354e-05 0)
(0 -1.03872e-05 0)
(0 -8.8179e-06 0)
(0 -2.11836e-05 0)
(0 -8.92654e-06 0)
(0 -1.0383e-05 0)
(0 -5.4275e-05 0)
(0 -8.87421e-06 0)
(0 -8.86647e-06 0)
(0 -8.82105e-06 0)
(0 -8.9877e-06 0)
(0 -8.84148e-06 0)
(0 -2.4306e-05 0)
(0 -9.21847e-06 0)
(0 -4.22435e-05 0)
(0 -9.01494e-06 0)
(0 -2.76227e-05 0)
(0 -8.35874e-05 0)
(0 -8.864e-06 0)
(0 -4.1403e-05 0)
(0 -0.00010296 0)
(0 -6.29568e-05 0)
(0 -4.26605e-05 0)
(0 -8.82707e-06 0)
(0 -9.24439e-06 0)
(0 -0.000149901 0)
(0 -1.57669e-05 0)
(0 -8.81609e-06 0)
(0 -4.73696e-05 0)
(0 -8.81572e-06 0)
(0 -2.02667e-05 0)
(0 -1.08874e-05 0)
(0 -8.82909e-06 0)
(0 -0.000101238 0)
(0 -8.92536e-06 0)
(0 -2.22365e-05 0)
(0 -2.22287e-05 0)
(0 -9.13986e-06 0)
(0 -4.20775e-05 0)
(0 -9.25399e-06 0)
(0 -1.02187e-05 0)
(0 -8.84039e-06 0)
(0 -7.47172e-05 0)
(0 -8.8745e-06 0)
(0 -2.41762e-05 0)
(0 -8.83766e-06 0)
(0 -8.85045e-06 0)
(0 -8.87693e-06 0)
(0 -1.4981e-05 0)
(0 -3.95788e-05 0)
(0 -6.53303e-05 0)
(0 -1.72459e-05 0)
(0 -1.36846e-05 0)
(0 -6.03171e-05 0)
(0 -8.8387e-06 0)
(0 -2.03642e-05 0)
(0 -1.47343e-05 0)
(0 -1.27253e-05 0)
(0 -2.53652e-05 0)
(0 -0.000155514 0)
(0 -2.57402e-05 0)
(0 -2.6173e-05 0)
(0 -4.84132e-05 0)
(0 -2.46901e-05 0)
(0 -8.84796e-06 0)
(0 -8.89548e-06 0)
(0 -2.48347e-05 0)
(0 -1.29188e-05 0)
(0 -8.86836e-06 0)
(0 -2.44396e-05 0)
(0 -8.8229e-06 0)
(0 -0.000148251 0)
(0 -1.63298e-05 0)
(0 -2.47166e-05 0)
(0 -0.000101894 0)
(0 -1.31285e-05 0)
(0 -7.02534e-05 0)
(0 -0.000152156 0)
(0 -1.00426e-05 0)
(0 -4.49579e-05 0)
(0 -9.24614e-06 0)
(0 -6.17017e-05 0)
(0 -8.81591e-06 0)
(0 -9.04541e-06 0)
(0 -9.37068e-06 0)
(0 -9.24619e-06 0)
(0 -8.75252e-05 0)
(0 -8.83214e-06 0)
(0 -9.57746e-06 0)
(0 -4.93061e-05 0)
(0 -2.56301e-05 0)
(0 -2.52381e-05 0)
(0 -8.82498e-06 0)
(0 -2.01167e-05 0)
(0 -1.00832e-05 0)
(0 -8.99692e-06 0)
(0 -8.85965e-06 0)
(0 -1.07614e-05 0)
(0 -8.4069e-05 0)
(0 -8.84291e-06 0)
(0 -9.01596e-06 0)
(0 -8.84434e-06 0)
(0 -2.22754e-05 0)
(0 -0.000165867 0)
(0 -9.78317e-05 0)
(0 -1.16982e-05 0)
(0 -3.80077e-05 0)
(0 -8.81963e-06 0)
(0 -9.69514e-06 0)
(0 -5.88155e-05 0)
(0 -9.2411e-06 0)
(0 -9.23611e-06 0)
(0 -0.000106346 0)
(0 -8.85208e-06 0)
(0 -8.81629e-06 0)
(0 -9.31384e-06 0)
(0 -6.20102e-05 0)
(0 -8.84508e-06 0)
(0 -1.17509e-05 0)
(0 -0.000130086 0)
(0 -8.8565e-06 0)
(0 -2.07839e-05 0)
(0 -0.000114127 0)
(0 -9.70142e-05 0)
(0 -1.96631e-05 0)
(0 -1.39664e-05 0)
(0 -8.83173e-06 0)
(0 -8.82797e-06 0)
(0 -1.4902e-05 0)
(0 -8.83855e-06 0)
(0 -1.9072e-05 0)
(0 -4.53077e-05 0)
(0 -9.32108e-06 0)
(0 -0.000113556 0)
(0 -8.97932e-06 0)
(0 -9.94331e-05 0)
(0 -0.000111426 0)
(0 -2.97823e-05 0)
(0 -6.69559e-05 0)
(0 -8.83073e-06 0)
(0 -8.88235e-06 0)
(0 -9.09075e-06 0)
(0 -8.81982e-06 0)
(0 -8.87262e-06 0)
(0 -1.34319e-05 0)
(0 -4.87068e-05 0)
(0 -6.21721e-05 0)
(0 -9.21668e-06 0)
(0 -9.81091e-05 0)
(0 -4.15429e-05 0)
(0 -1.54943e-05 0)
(0 -8.9727e-06 0)
(0 -8.8108e-06 0)
(0 -6.55863e-05 0)
(0 -1.58808e-05 0)
(0 -2.06062e-05 0)
(0 -9.74172e-06 0)
(0 -8.81571e-06 0)
(0 -9.54004e-05 0)
(0 -0.000109885 0)
(0 -4.66254e-05 0)
(0 -8.99097e-06 0)
(0 -2.37563e-05 0)
(0 -8.84138e-06 0)
(0 -3.46035e-05 0)
(0 -8.62654e-05 0)
(0 -0.000112009 0)
(0 -9.97937e-05 0)
(0 -3.08796e-05 0)
(0 -9.30691e-06 0)
(0 -8.85694e-06 0)
(0 -8.84544e-06 0)
(0 -1.27517e-05 0)
(0 -6.86943e-05 0)
(0 -8.9396e-06 0)
(0 -7.43092e-05 0)
(0 -8.95751e-06 0)
(0 -8.82179e-06 0)
(0 -1.27229e-05 0)
(0 -8.81787e-06 0)
(0 -8.84014e-06 0)
(0 -8.82697e-06 0)
(0 -1.1405e-05 0)
(0 -2.16073e-05 0)
(0 -8.81986e-06 0)
(0 -2.36543e-05 0)
(0 -1.30953e-05 0)
(0 -9.7502e-06 0)
(0 -9.27038e-06 0)
(0 -6.59349e-05 0)
(0 -9.04161e-06 0)
(0 -4.29722e-05 0)
(0 -8.87318e-06 0)
(0 -8.97565e-06 0)
(0 -0.000149291 0)
(0 -2.22367e-05 0)
(0 -1.28391e-05 0)
(0 -9.22569e-06 0)
(0 -2.02629e-05 0)
(0 -8.30001e-05 0)
(0 -2.65081e-05 0)
(0 -2.25792e-05 0)
(0 -3.30166e-05 0)
(0 -9.06018e-06 0)
(0 -5.27019e-05 0)
(0 -8.85267e-06 0)
(0 -8.81956e-06 0)
(0 -4.15207e-05 0)
(0 -2.261e-05 0)
(0 -1.43341e-05 0)
(0 -7.10667e-05 0)
(0 -8.84531e-06 0)
(0 -8.81578e-06 0)
(0 -8.83011e-06 0)
(0 -8.86572e-06 0)
(0 -8.42431e-05 0)
(0 -3.24486e-05 0)
(0 -3.0057e-05 0)
(0 -2.86059e-05 0)
(0 -9.05452e-06 0)
(0 -1.97869e-05 0)
(0 -2.90213e-05 0)
(0 -1.15857e-05 0)
(0 -1.55177e-05 0)
(0 -8.90804e-06 0)
(0 -1.64156e-05 0)
(0 -8.81588e-06 0)
(0 -2.3682e-05 0)
(0 -4.41134e-05 0)
(0 -9.84889e-06 0)
(0 -1.04986e-05 0)
(0 -1.1394e-05 0)
(0 -6.05721e-05 0)
(0 -8.81605e-06 0)
(0 -8.83495e-06 0)
(0 -8.86838e-06 0)
(0 -8.82682e-06 0)
(0 -8.86891e-06 0)
(0 -8.83871e-06 0)
(0 -8.83621e-06 0)
(0 -5.8631e-05 0)
(0 -5.55699e-05 0)
(0 -9.29633e-05 0)
(0 -8.96673e-06 0)
(0 -1.31827e-05 0)
(0 -1.14042e-05 0)
(0 -8.81737e-06 0)
(0 -7.72929e-05 0)
(0 -0.000130778 0)
(0 -5.88643e-05 0)
(0 -8.82015e-06 0)
(0 -0.0001383 0)
(0 -3.15583e-05 0)
(0 -3.15604e-05 0)
(0 -8.85877e-06 0)
(0 -2.39263e-05 0)
(0 -0.000160633 0)
(0 -7.65852e-05 0)
(0 -7.31592e-05 0)
(0 -4.24979e-05 0)
(0 -1.21343e-05 0)
(0 -9.07858e-06 0)
(0 -1.34517e-05 0)
(0 -8.88794e-06 0)
(0 -6.125e-05 0)
(0 -9.87652e-05 0)
(0 -8.83963e-06 0)
(0 -8.83315e-06 0)
(0 -8.81664e-06 0)
(0 -8.87134e-06 0)
(0 -1.00136e-05 0)
(0 -8.86099e-06 0)
(0 -0.000163726 0)
(0 -1.06167e-05 0)
(0 -4.32896e-05 0)
(0 -7.08382e-05 0)
(0 -3.97872e-05 0)
(0 -8.81677e-06 0)
(0 -5.74713e-05 0)
(0 -1.04123e-05 0)
(0 -8.95376e-06 0)
(0 -7.96062e-05 0)
(0 -0.000105078 0)
(0 -1.49332e-05 0)
(0 -9.27274e-06 0)
(0 -2.19907e-05 0)
(0 -8.8589e-06 0)
(0 -9.44058e-05 0)
(0 -8.99016e-06 0)
(0 -6.07272e-05 0)
(0 -8.02289e-05 0)
(0 -3.25093e-05 0)
(0 -9.33548e-06 0)
(0 -2.99103e-05 0)
(0 -8.99845e-06 0)
(0 -8.8201e-06 0)
(0 -8.82481e-06 0)
(0 -8.83971e-06 0)
(0 -3.72107e-05 0)
(0 -8.81799e-06 0)
(0 -9.04289e-06 0)
(0 -6.66209e-05 0)
(0 -8.97574e-06 0)
(0 -2.89376e-05 0)
(0 -1.0309e-05 0)
(0 -2.96644e-05 0)
(0 -7.02044e-05 0)
(0 -0.000146381 0)
(0 -5.84478e-05 0)
(0 -5.51199e-05 0)
(0 -1.40581e-05 0)
(0 -1.18048e-05 0)
(0 -8.06797e-05 0)
(0 -6.49097e-05 0)
(0 -9.5258e-06 0)
(0 -0.000114657 0)
(0 -8.87912e-06 0)
(0 -6.05313e-05 0)
(0 -2.18252e-05 0)
(0 -1.87615e-05 0)
(0 -8.8413e-06 0)
(0 -9.00952e-06 0)
(0 -6.31311e-05 0)
(0 -9.2828e-06 0)
(0 -0.000167915 0)
(0 -2.02425e-05 0)
(0 -1.0993e-05 0)
(0 -8.87487e-06 0)
(0 -1.4556e-05 0)
(0 -2.3569e-05 0)
(0 -9.59884e-06 0)
(0 -9.42769e-06 0)
(0 -1.06967e-05 0)
(0 -9.06297e-06 0)
(0 -1.23606e-05 0)
(0 -9.66217e-06 0)
(0 -1.13765e-05 0)
(0 -1.1677e-05 0)
(0 -2.47219e-05 0)
(0 -0.000123103 0)
(0 -8.89662e-06 0)
(0 -8.89203e-06 0)
(0 -3.85596e-05 0)
(0 -0.000127394 0)
(0 -8.8157e-06 0)
(0 -0.000164494 0)
(0 -1.57086e-05 0)
(0 -0.000116478 0)
(0 -1.06985e-05 0)
(0 -8.96866e-06 0)
(0 -0.000102939 0)
(0 -8.81971e-06 0)
(0 -3.51488e-05 0)
(0 -8.0971e-05 0)
(0 -9.25298e-06 0)
(0 -0.000110163 0)
(0 -1.04281e-05 0)
(0 -8.86071e-06 0)
(0 -1.63743e-05 0)
(0 -8.88876e-06 0)
(0 -0.00014845 0)
(0 -2.60991e-05 0)
(0 -1.01806e-05 0)
(0 -5.00112e-05 0)
(0 -2.95244e-05 0)
(0 -2.67122e-05 0)
(0 -2.541e-05 0)
(0 -1.17542e-05 0)
(0 -1.05942e-05 0)
(0 -3.62557e-05 0)
(0 -1.54929e-05 0)
(0 -0.000128748 0)
(0 -7.14792e-05 0)
(0 -5.37665e-05 0)
(0 -6.84533e-05 0)
(0 -9.00065e-06 0)
(0 -0.000101799 0)
(0 -1.98303e-05 0)
(0 -9.02315e-06 0)
(0 -0.000165754 0)
(0 -0.000134097 0)
(0 -8.83342e-06 0)
(0 -3.04456e-05 0)
(0 -8.81575e-06 0)
(0 -5.49299e-05 0)
(0 -8.8421e-06 0)
(0 -9.31608e-06 0)
(0 -9.885e-06 0)
(0 -8.95793e-06 0)
(0 -1.20815e-05 0)
(0 -9.03847e-06 0)
(0 -7.41647e-05 0)
(0 -9.44718e-06 0)
(0 -2.85984e-05 0)
(0 -0.000123283 0)
(0 -0.000116452 0)
(0 -1.9792e-05 0)
(0 -2.29799e-05 0)
(0 -7.64972e-05 0)
(0 -1.27298e-05 0)
(0 -0.000154855 0)
(0 -4.58333e-05 0)
(0 -8.81571e-06 0)
(0 -8.8164e-06 0)
(0 -8.93957e-06 0)
(0 -4.08253e-05 0)
(0 -9.94116e-06 0)
(0 -8.82039e-06 0)
(0 -8.85e-06 0)
(0 -6.54754e-05 0)
(0 -3.24604e-05 0)
(0 -8.96993e-06 0)
(0 -8.3745e-05 0)
(0 -1.70466e-05 0)
(0 -8.96624e-06 0)
(0 -8.84575e-06 0)
(0 -2.88389e-05 0)
(0 -1.55303e-05 0)
(0 -4.32574e-05 0)
(0 -9.21238e-06 0)
(0 -1.19155e-05 0)
(0 -1.22995e-05 0)
(0 -8.96904e-06 0)
(0 -3.4512e-05 0)
(0 -4.73518e-05 0)
(0 -8.88244e-06 0)
(0 -1.57243e-05 0)
(0 -9.07687e-06 0)
(0 -8.84215e-06 0)
(0 -9.34568e-06 0)
(0 -2.68572e-05 0)
(0 -0.000154278 0)
(0 -7.845e-05 0)
(0 -8.81862e-06 0)
(0 -9.01213e-06 0)
(0 -8.90513e-06 0)
(0 -1.28485e-05 0)
(0 -5.18396e-05 0)
(0 -8.81854e-06 0)
(0 -6.37413e-05 0)
(0 -9.59255e-06 0)
(0 -1.52214e-05 0)
(0 -5.01771e-05 0)
(0 -1.543e-05 0)
(0 -6.78673e-05 0)
(0 -8.85367e-06 0)
(0 -8.87523e-06 0)
(0 -8.78786e-05 0)
(0 -1.17024e-05 0)
(0 -1.29601e-05 0)
(0 -8.96666e-06 0)
(0 -1.53147e-05 0)
(0 -1.11597e-05 0)
(0 -9.0674e-06 0)
(0 -1.89732e-05 0)
(0 -8.87996e-06 0)
(0 -1.13074e-05 0)
(0 -6.32712e-05 0)
(0 -1.83594e-05 0)
(0 -9.35191e-06 0)
(0 -8.85617e-06 0)
(0 -8.13951e-05 0)
(0 -8.93246e-06 0)
(0 -1.47677e-05 0)
(0 -1.06429e-05 0)
(0 -1.97516e-05 0)
(0 -8.86309e-06 0)
(0 -3.47218e-05 0)
(0 -2.72489e-05 0)
(0 -0.000136775 0)
(0 -1.65331e-05 0)
(0 -1.72184e-05 0)
(0 -9.98962e-06 0)
(0 -1.23659e-05 0)
(0 -4.37561e-05 0)
(0 -1.23874e-05 0)
(0 -8.81569e-06 0)
(0 -1.23175e-05 0)
(0 -5.24342e-05 0)
(0 -2.58507e-05 0)
(0 -1.829e-05 0)
(0 -9.35543e-06 0)
(0 -6.49731e-05 0)
(0 -1.0635e-05 0)
(0 -8.94136e-06 0)
(0 -1.27969e-05 0)
(0 -8.84753e-06 0)
(0 -1.40668e-05 0)
(0 -8.81608e-06 0)
(0 -9.26075e-06 0)
(0 -5.79048e-05 0)
(0 -9.01981e-06 0)
(0 -8.13321e-06 0)
(0 -3.01592e-05 0)
(0 -2.07946e-05 0)
(0 -1.97217e-05 0)
(0 -1.03048e-05 0)
(0 -1.3781e-05 0)
(0 -1.31801e-05 0)
(0 -1.3449e-05 0)
(0 -2.41261e-05 0)
(0 -2.87774e-05 0)
(0 -0.000137296 0)
(0 -9.40145e-06 0)
(0 -3.75496e-05 0)
(0 -1.52398e-05 0)
(0 -9.02394e-06 0)
(0 -2.84693e-05 0)
(0 -1.77993e-05 0)
(0 -0.000109496 0)
(0 -8.82229e-06 0)
(0 -1.08691e-05 0)
(0 -3.56701e-05 0)
(0 -4.25535e-05 0)
(0 -2.45193e-05 0)
(0 -8.81767e-06 0)
(0 -9.74403e-06 0)
(0 -2.0693e-05 0)
(0 -8.84103e-06 0)
(0 -9.09202e-06 0)
(0 -9.03583e-06 0)
(0 -1.05464e-05 0)
(0 -8.90908e-06 0)
(0 -0.000140085 0)
(0 -9.20455e-06 0)
(0 -5.02139e-05 0)
(0 -1.4595e-05 0)
(0 -8.93992e-06 0)
(0 -8.84246e-06 0)
(0 -9.15111e-06 0)
(0 -8.98697e-06 0)
(0 -5.98619e-05 0)
(0 -8.81645e-06 0)
(0 -0.000143458 0)
(0 -1.04025e-05 0)
(0 -2.41385e-05 0)
(0 -8.85746e-06 0)
(0 -8.86154e-06 0)
(0 -2.85602e-05 0)
(0 -9.25675e-05 0)
(0 -9.17876e-06 0)
(0 -1.01719e-05 0)
(0 -6.86982e-05 0)
(0 -8.81992e-06 0)
(0 -6.53362e-05 0)
(0 -2.60167e-05 0)
(0 -3.65746e-05 0)
(0 -3.07851e-05 0)
(0 -2.42171e-05 0)
(0 -2.33948e-05 0)
(0 -4.81278e-05 0)
(0 -1.76613e-05 0)
(0 -9.17724e-06 0)
(0 -1.64951e-05 0)
(0 -1.24667e-05 0)
(0 -6.71518e-05 0)
(0 -8.81622e-06 0)
(0 -8.84112e-06 0)
(0 -0.000117455 0)
(0 -9.04905e-06 0)
(0 -2.41067e-05 0)
(0 -1.3427e-05 0)
(0 -8.89486e-06 0)
(0 -0.000118686 0)
(0 -2.83643e-05 0)
(0 -1.57603e-05 0)
(0 -8.81908e-06 0)
(0 -6.90285e-05 0)
(0 -7.50542e-05 0)
(0 -1.66275e-05 0)
(0 -8.83751e-06 0)
(0 -0.000121344 0)
(0 -1.44101e-05 0)
(0 -1.58723e-05 0)
(0 -9.03456e-06 0)
(0 -1.50978e-05 0)
(0 -1.69538e-05 0)
(0 -9.24501e-06 0)
(0 -6.53906e-05 0)
(0 -9.24618e-06 0)
(0 -0.00014748 0)
(0 -8.84238e-06 0)
(0 -2.43306e-05 0)
(0 -6.39677e-05 0)
(0 -2.72184e-05 0)
(0 -1.05642e-05 0)
(0 -8.67366e-05 0)
(0 -8.53051e-05 0)
(0 -9.69305e-06 0)
(0 -8.8546e-06 0)
(0 -7.54408e-05 0)
(0 -8.84134e-06 0)
(0 -7.43675e-05 0)
(0 -0.000147605 0)
(0 -1.18023e-05 0)
(0 -8.87377e-05 0)
(0 -0.000101439 0)
(0 -8.86607e-06 0)
(0 -1.45613e-05 0)
(0 -1.63554e-05 0)
(0 -9.27599e-06 0)
(0 -8.82677e-06 0)
(0 -9.05636e-06 0)
(0 -9.62007e-05 0)
(0 -2.07376e-05 0)
(0 -1.42598e-05 0)
(0 -0.000115457 0)
(0 -3.81743e-05 0)
(0 -7.77932e-05 0)
(0 -8.85456e-06 0)
(0 -5.67275e-05 0)
(0 -8.83706e-06 0)
(0 -9.72427e-06 0)
(0 -5.38861e-05 0)
(0 -0.000113156 0)
(0 -2.52975e-05 0)
(0 -9.72522e-06 0)
(0 -9.04449e-06 0)
(0 -1.02169e-05 0)
(0 -1.23592e-05 0)
(0 -3.21667e-05 0)
(0 -8.83381e-06 0)
(0 -1.08504e-05 0)
(0 -1.99607e-05 0)
(0 -1.63838e-05 0)
(0 -1.10516e-05 0)
(0 -1.04675e-05 0)
(0 -8.84951e-06 0)
(0 -1.48645e-05 0)
(0 -8.86764e-06 0)
(0 -8.9308e-06 0)
(0 -8.87113e-06 0)
(0 -4.29149e-05 0)
(0 -8.6085e-05 0)
(0 -1.82037e-05 0)
(0 -1.11109e-05 0)
(0 -0.000114397 0)
(0 -7.3803e-05 0)
(0 -9.43582e-06 0)
(0 -3.8848e-05 0)
(0 -7.01014e-05 0)
(0 -6.79261e-05 0)
(0 -0.00011361 0)
(0 -4.95218e-05 0)
(0 -9.24779e-05 0)
(0 -8.81603e-06 0)
(0 -9.77221e-05 0)
(0 -8.95171e-06 0)
(0 -0.000111726 0)
(0 -9.90753e-06 0)
(0 -6.4955e-05 0)
(0 -9.7384e-06 0)
(0 -1.02793e-05 0)
(0 -3.86511e-05 0)
(0 -8.86408e-06 0)
(0 -2.07902e-05 0)
(0 -3.95724e-05 0)
(0 -1.68728e-05 0)
(0 -0.00012877 0)