/*--------------------------------*- C++ -*----------------------------------*\
| =========                 |                                                 |
| \\      /  F ield         | OpenFOAM: The Open Source CFD Toolbox           |
|  \\    /   O peration     | Version:  v2012                                 |
|   \\  /    A nd           | Website:  www.openfoam.com                      |
|    \\/     M anipulation  |                                                 |
\*---------------------------------------------------------------------------*/
FoamFile
{
    version     2.0;
    format      ascii;
    class       volScalarField;
    location    "300";
    object      omega;
}
// * * * * * * * * * * * * * * * * * * * * * * * * * * * * * * * * * * * * * //

dimensions      [0 0 -1 0 0 0 0];


internalField   nonuniform List<scalar> 
13851
(
0.128126
0.0242536
0.0241362
4.84143
0.0220824
0.0260739
0.024232
0.0218528
3.46649
0.0220439
0.065394
0.0220802
0.0221144
5.27502
0.0362248
0.135296
7.4441
0.0219613
0.323554
0.128255
0.0407468
0.0261563
22.9785
0.0222638
7.17401
0.0639048
0.512629
4.74344
3.27904
0.0217785
4.71703
0.0242333
0.126133
4.41474
0.0442355
3.268
0.022274
8.77931
4.60849
0.0220972
4.32977
3.36915
19.1385
0.623429
3.52931
0.0218971
0.0215968
0.128522
0.0234888
0.0221094
7.50753
0.022169
0.134712
0.0306693
5.41113
0.0220958
0.12804
4.18504
0.910485
5.63275
0.0220877
0.221175
0.0220966
0.023614
0.222797
0.236695
7.58377
0.0680121
0.0221457
4.59458
4.26959
0.0489021
0.0220266
6.83324
0.0321701
0.0237749
6.01535
0.0216826
6.03091
0.0219547
0.022162
0.361683
0.0436
4.88842
5.41518
4.50505
0.0263357
6.85157
0.0220328
4.75696
0.0222043
0.0243149
23.4395
4.359
4.13128
0.367447
0.021926
0.138542
7.14093
0.181789
0.143517
0.0434365
0.0466995
0.0220734
0.0218856
0.0474455
0.0218868
4.33316
0.024312
0.0219352
0.0311104
0.0218959
0.162729
0.0623324
0.124414
0.0298709
0.0217837
0.0218101
4.96955
4.8921
0.230105
0.021832
0.0221315
3.69833
0.250307
0.125459
0.0219245
0.0570949
4.00514
0.0456401
0.0260868
0.0314924
4.89989
4.30842
0.0667621
4.15737
0.0655237
4.40022
0.0359637
0.0452089
0.338088
0.0226419
0.0220324
0.108666
6.81413
0.0235244
0.0216756
4.39676
3.36558
0.0596668
0.142725
0.156379
0.0668105
0.247496
0.022274
0.0220532
0.0221023
4.40332
0.0418183
0.0235937
0.0222429
3.27285
0.0464898
0.128785
5.11533
3.61918
3.68503
6.13674
0.0306087
6.10409
0.0221028
0.0217869
0.05778
0.0221391
4.24851
0.380825
0.154775
0.0217739
0.0321528
0.15135
0.243292
0.580363
0.0297822
0.0452295
20.9142
3.3371
0.12626
0.0294786
0.0222055
0.0218321
5.70808
0.0417738
7.15303
0.0261412
0.023382
0.136692
0.122358
0.0221609
0.0222159
0.0717948
0.341772
4.16203
4.22403
0.0362857
2.79774
4.04923
0.0236969
0.0444807
3.50743
0.0254963
0.134602
0.022114
0.355718
0.0222346
0.0451138
0.0245041
0.0220894
0.216663
0.0222224
3.86086
0.0217718
0.128833
5.93727
4.19084
0.0291768
0.0450201
0.0222639
0.0943949
0.0220146
0.0444494
7.61071
0.0291209
0.0254807
0.0221177
4.1181
0.0217733
16.4518
4.18446
0.158323
0.0222513
1.11586
5.23515
3.60419
0.13282
0.0328703
0.144318
0.194885
0.0322758
0.342946
0.0329549
6.21262
0.13412
0.0218518
0.0259569
0.140251
3.23486
4.63576
0.0218282
0.131564
0.0220301
0.180766
0.246173
0.0263372
0.0471291
0.137708
0.0219855
0.0451502
0.108125
3.44371
0.0220826
0.0220864
0.029312
3.90695
6.64446
0.0453423
0.0218507
0.242875
0.246053
0.11071
0.0464348
3.80339
7.36975
0.0267549
0.0331877
8.79498
0.0218767
0.0221017
0.114026
0.0571583
0.0217712
0.0222319
0.0220065
0.0220004
0.0326368
0.0220951
3.50992
0.0427405
0.02199
3.22144
3.74304
0.0221947
0.130146
7.6279
0.0227627
0.0222176
0.0446707
5.19578
7.32185
0.0631566
0.0220726
6.04999
0.0220952
0.0687835
6.02698
3.33029
0.0234878
7.74857
1.60673
4.40666
0.155041
0.0460305
4.35375
3.7006
4.34052
0.0222866
5.34815
21.9018
0.794264
0.725432
0.0237175
0.0627593
0.0297604
6.13787
0.0493196
0.0218755
0.0215335
0.0275856
4.28921
3.24565
0.0218684
4.10104
0.0299708
0.0317766
0.0237302
6.21791
0.240983
0.137581
0.0242393
0.024988
3.22355
0.0222177
0.259109
0.0266533
0.0446003
0.0306004
0.0220291
0.0219873
0.156528
0.199032
0.134302
2.6543
3.26687
0.0236
4.08325
0.22094
0.0217282
3.49628
0.0874198
5.91355
0.0270123
0.0679515
0.277805
6.38994
0.149432
5.27196
0.0226833
0.440814
14.9143
0.0302017
4.83545
0.0327493
4.36528
0.0327537
0.0394112
0.134547
0.265914
0.0220538
0.0263343
0.0616102
0.0323333
0.0219176
0.0456737
5.17967
0.0220229
0.0446646
5.72402
0.0241191
4.03641
0.0432141
7.70649
0.0260088
0.0603183
2.13745
0.256207
0.0467482
5.55919
6.71479
0.999639
0.0219904
0.152804
0.0329875
0.0670702
0.021846
20.1449
5.3451
6.54584
0.0249362
0.137225
0.237374
6.27838
0.0216116
6.93421
0.299391
23.9707
0.0339533
5.5804
0.0220401
0.0221268
6.57485
0.263613
0.0220418
0.024294
0.0454746
0.0218199
5.42074
0.0629678
0.0857766
0.025718
0.0226985
0.0221885
4.67816
0.021987
0.0221666
4.01854
5.23481
0.0256766
0.218366
0.0221034
0.022094
0.0244519
0.136584
0.0428592
0.0219278
0.0229202
0.21576
0.0233838
8.40506
0.0220754
0.0273527
3.58945
0.035662
0.0215901
0.0221202
0.0256487
0.0223007
0.991692
3.99942
0.0331424
8.11585
0.0244934
0.0220566
3.87233
0.311044
0.0353442
0.0220417
3.67104
0.0346273
5.60805
0.0220753
0.0317286
0.154453
0.0339905
3.7764
0.296871
5.97013
0.023836
0.160086
0.0219821
3.2442
0.0431185
0.122077
0.0327626
0.0240292
0.0356438
0.0582304
0.0220942
6.61006
3.78599
8.77891
5.90197
4.03172
4.64962
0.257481
0.0281532
0.0222069
6.79016
0.022046
0.0219163
0.0302262
4.32166
0.0240472
0.0226419
0.08884
0.0470422
0.0220483
7.55895
0.0219299
4.10239
0.904895
0.021951
0.0234658
0.30946
3.70415
0.0217774
10.1455
12.8784
0.02171
4.45446
0.314146
0.128616
0.0238085
4.02341
5.83931
0.0217273
0.312195
0.0221364
0.0219305
3.7498
4.43144
0.0384956
0.0420709
0.022047
0.0544363
4.10486
4.32545
0.0218254
5.95974
0.0219243
0.0221526
0.0471945
0.0273727
0.0216054
0.023787
4.51311
0.247023
4.34158
0.0237225
0.0220265
3.93418
0.0221785
0.153708
0.0273074
0.0322352
0.0327743
3.82139
5.95856
0.0259644
7.00864
0.0232773
0.0630125
3.42063
4.21603
0.0221269
0.0219872
0.0469215
4.35996
0.222781
0.0535277
11.5701
0.0275143
0.0318728
10.0723
7.64846
0.15844
4.00063
0.176003
3.35441
0.0224852
1.07114
4.41116
0.0220775
17.3866
6.42202
0.0305921
0.0452018
0.0220744
6.79831
0.0766941
16.5079
0.0219874
0.0221658
0.0265747
0.0464423
0.022085
4.19935
0.02216
0.168302
0.0238986
0.0683604
0.0220684
0.0220481
0.0463657
6.3003
0.0467382
4.09804
0.0317282
0.0218292
0.0217846
0.0583134
0.0229162
0.0976081
0.0244743
0.0347799
0.907297
0.0221803
5.52821
0.0222536
0.0912671
6.04964
3.67791
0.0282892
16.553
0.0864057
0.269
6.26573
0.02189
7.44736
0.029983
0.031189
5.67717
1.80027
0.0217396
0.0951711
0.0221395
3.26325
6.73849
0.022238
0.0717745
5.58744
0.0222634
0.0222521
0.0646424
6.81283
3.94443
0.0222246
0.13501
0.0231838
0.0220467
1.16925
0.136969
0.168323
0.0215928
0.108485
0.0463326
0.0564208
0.0226652
0.0232266
0.0722373
0.0264142
0.11836
0.0486914
0.0487977
0.130512
2.88546
0.317383
4.71336
9.77866
0.135348
3.97332
0.0398744
3.80096
0.131902
0.0219224
0.0312526
0.266835
0.0269193
0.021957
0.0219534
0.0913989
5.94128
0.0275125
4.05847
0.021833
4.01738
0.147518
8.14866
0.0948842
0.0261479
0.0241295
6.70582
0.166873
0.0382628
0.25371
0.0225513
5.39991
0.0919991
0.171386
0.0323662
0.470725
0.0220369
0.0222452
0.0234127
0.0220458
3.41315
0.0220002
0.765588
3.82708
0.0975296
4.3709
6.32372
0.177052
0.28886
0.0285904
0.0221799
0.0220713
0.0216909
0.0217847
0.0221412
0.0634308
0.156358
0.0501552
3.97716
0.0231362
3.47149
0.0222934
4.8277
0.0411003
0.0222835
0.0221328
3.67971
0.0262365
4.22063
6.39175
0.0433269
0.0645292
0.021693
4.29841
0.0243999
0.0240805
1.04969
0.0221832
0.0226459
0.0218738
0.043182
5.59679
0.0292304
0.0326464
0.328457
4.19672
0.02914
0.0268675
3.41673
0.0216882
3.36055
0.0222021
0.0233964
5.60693
0.0762079
0.12247
0.0909862
0.0470105
0.022227
0.0222936
0.0679375
0.0225361
0.0222345
0.0280136
0.316751
0.0219841
0.249011
3.03538
4.03497
0.0897845
5.52828
0.0365147
0.0221754
0.146675
0.0218457
0.0263708
4.7061
3.25849
7.49481
3.53571
0.0223109
0.0222076
0.0695298
0.0230668
0.0218495
23.0245
0.18528
4.63471
0.0925159
0.0777369
0.0220477
0.0217842
4.73072
0.0863022
0.0236943
0.0222529
0.122507
0.185245
4.13816
0.0222623
0.0221515
6.84059
0.0226416
0.0327726
0.0218244
4.37575
0.0219214
5.45521
0.0220745
0.142226
0.0383572
0.0698472
0.0325732
0.0220268
0.0243148
0.0220221
0.612667
0.0226535
3.77073
0.0226203
4.65765
3.90438
0.0308678
0.0220036
5.08221
4.08021
0.0264275
0.0758504
0.0220694
6.43977
0.0219431
0.26758
0.0220648
0.0220189
4.12914
0.0329374
0.0221103
0.0310386
4.05124
5.16798
5.58173
0.0218311
3.77833
0.0220754
0.0219914
0.0222701
0.0214979
0.0222331
5.75197
4.82562
0.0222308
0.0221562
0.0387954
0.0218963
4.92135
0.150454
4.52978
4.4405
0.0242766
0.118301
0.0220705
0.0407859
0.118065
0.0218734
0.0222104
1.40617
6.58183
0.0631598
16.5021
0.0585789
0.0221008
0.0407441
0.0771035
7.40004
0.0314827
3.33212
0.0884417
0.0222236
14.8236
13.6607
4.29172
4.6071
3.69876
0.0237827
0.139647
0.022169
1.78089
0.0264001
0.0218775
5.59596
0.0230301
0.0220046
0.0221265
0.0228851
4.23872
0.260163
0.0218727
0.0414306
5.21073
0.023181
15.9023
0.0232362
0.0733788
4.36249
0.0220979
0.214006
0.0295493
0.0322409
5.91898
0.0230103
0.349353
0.0596509
4.25086
0.0222178
4.36246
0.0299461
3.9613
7.62012
5.65411
0.0432714
0.0220415
0.0223182
0.0222632
0.0376885
0.0221233
3.84715
0.0289608
0.0279573
0.028884
0.0237175
0.0218287
0.0265456
0.0273838
0.0234674
0.0270517
5.81324
0.545057
0.0292177
0.0499728
5.68457
0.022692
4.3316
0.0216991
0.032984
0.0226628
0.0219525
0.0446704
0.0220514
0.0218675
0.0456044
0.0220596
0.297423
0.0227561
18.2408
1.70266
0.20301
0.267416
0.0220816
4.23455
0.149112
0.022226
0.0272954
0.0225559
4.49899
0.0232171
0.0448161
3.83482
6.44468
0.0814053
0.0221526
3.7554
2.61588
3.75563
0.0294592
0.0218203
0.0218092
0.0633066
0.0220401
7.08733
0.157476
0.0221974
0.221238
0.305618
0.0218589
5.97815
6.03928
0.179843
0.0227241
3.74826
0.0630999
0.0220216
6.13361
0.0266954
0.0218443
0.0219421
0.0310318
0.0379937
3.61432
5.19916
0.0392712
3.68652
0.0325982
0.0220226
0.0833955
0.0219594
2.34696
0.0218425
0.0220463
0.0240282
0.0224963
3.86363
5.50706
0.24142
6.17067
7.36042
0.029092
0.0220287
0.022761
0.359107
0.0218251
0.0219135
0.0430582
6.74143
0.377393
0.0216539
0.0389362
0.032802
0.130048
15.8889
0.0217061
0.0215934
0.0234217
5.54332
0.0279849
4.10231
0.02321
0.0221629
0.0218468
0.0219358
0.0244633
0.176053
3.40378
3.59246
0.028881
0.022057
4.00017
0.022303
5.9715
4.62529
0.0304458
5.26138
3.36087
4.91977
0.0508087
0.0312669
3.57718
0.0301069
0.0336164
0.0709381
0.274327
0.0224998
5.09732
0.0220247
4.60312
6.1544
0.0217031
0.0239103
0.0455433
0.3476
0.0327325
0.0221426
0.0275048
0.0232277
0.0254722
1.14152
0.0221623
4.08477
5.63876
0.0220274
0.0303263
0.0377417
0.0220833
3.21191
14.9139
4.2839
3.32384
0.02204
0.0246135
0.026446
0.0222807
0.240795
0.0330497
0.0222565
0.0577459
0.0258388
4.78704
0.0384393
6.45583
0.0231256
0.0232099
0.0508314
0.0871492
0.068426
0.0219886
16.6189
3.85474
25.6672
4.34131
4.63101
3.60374
4.07476
0.0219919
0.0220275
0.0220066
0.224565
0.0422694
0.0682233
7.03104
0.0221582
0.0216683
0.0220452
0.206982
0.0216656
0.0263217
0.0236931
4.10581
0.0229528
0.0218535
0.022087
0.0219802
0.0221628
0.0342638
0.239797
0.0337535
5.44862
0.0220355
0.0219365
4.0024
4.08311
6.62218
3.98723
0.0479936
3.95551
0.0218157
0.0603982
0.0232146
0.02208
0.0240454
4.94723
0.0229637
0.0883325
3.92682
0.0222236
0.021941
0.0263975
0.181415
0.0222719
4.09203
0.0219905
0.225897
0.0221257
0.0222293
0.0264942
0.0963987
0.0221252
0.641781
4.31737
0.201556
4.36449
0.0220412
6.19075
0.516583
0.0220505
6.31565
0.0222722
0.0423544
0.022211
0.0221
0.0219617
0.0220462
0.0224397
0.0271971
0.0621236
0.0222121
0.0220971
0.0623031
0.021718
8.4209
0.0221262
0.031356
0.0324026
4.80151
2.86449
0.0221469
0.182778
0.0218193
0.0296226
0.0683466
3.89535
0.045208
0.0222723
0.104282
0.0760118
0.0772057
0.493418
0.0355411
0.139383
0.0535261
0.0626795
0.0229175
0.0218457
4.05383
5.45486
0.024532
0.0220178
15.3591
0.021836
0.0404827
0.0219626
0.0802575
6.78226
0.021541
6.11476
0.0259199
0.0221705
0.151694
0.0218778
0.0408262
3.23383
0.0387804
4.08478
0.0219566
0.0222647
0.0439816
0.0222257
0.0222465
0.0273752
0.0291053
0.0627035
0.0839928
0.0220968
0.0388853
0.0218342
0.0220637
0.0222148
0.0220533
1.46261
0.0218742
0.0232797
0.224897
0.0218313
0.0220064
4.01211
0.0222497
17.8783
0.0231225
4.12069
0.230405
0.0516808
3.71124
0.0640296
1.9487
0.0223644
0.189708
0.0268663
0.021833
0.0219014
0.0232578
0.0303242
0.0219712
0.0531491
0.0219059
0.0231892
16.5098
7.46044
3.99669
0.0239852
0.0463317
4.81259
5.98162
0.0221725
0.0260449
1.90748
0.0221617
0.0398259
2.87063
3.60249
0.0267149
0.0406577
0.0227885
0.324919
0.0222851
0.0356875
5.38347
0.0221717
0.0218682
8.55207
0.0429993
0.242678
4.466
0.0919849
0.022424
0.02191
0.0222613
4.62784
3.10236
5.38326
0.0553731
0.0220463
4.38789
0.0221095
0.160291
0.0266799
0.0232135
0.0410759
0.0220593
6.23654
7.34031
0.0216719
0.0633775
0.0434018
3.25636
0.0436526
0.0530812
0.242528
0.0324401
0.469529
0.0555119
0.0221122
0.0339061
0.0808675
4.07835
0.0220362
2.93484
0.0460164
0.0559449
0.0222726
7.31009
0.0257907
0.0236161
0.0218587
0.0390705
0.0378439
0.0555556
0.0221278
0.0226896
0.0561448
24.4158
0.0594501
0.0221571
0.0226372
0.0338006
0.218501
0.0221713
0.0872492
7.85423
0.0472358
3.83227
0.0375197
7.57422
0.342902
0.021992
2.03082
0.0222385
0.0249167
0.0313654
0.0332808
0.0961475
0.0433831
0.0426445
0.0445597
0.0306173
0.0241292
0.021659
0.0833514
0.0251865
0.0287258
2.16436
0.0260482
0.0302496
0.0219499
4.80247
0.0805594
0.0220956
0.0244776
0.023281
5.29665
0.15319
0.0313482
3.53353
0.374138
0.976094
0.0885632
0.195762
0.021895
0.312484
0.0219033
0.0268688
8.80224
3.19821
0.349274
1.73198
0.0221217
6.21403
0.0218918
0.0753118
0.0251682
3.83061
5.66464
0.025608
0.0220234
0.323496
0.043258
0.0220222
4.22904
0.0220701
0.023695
0.0251763
0.0222054
0.0303325
0.0233503
0.0220442
0.0345097
0.449682
0.0383317
0.0595888
0.0220182
6.24452
3.24899
0.0220048
0.231139
0.0251129
0.0291512
5.18798
0.0220014
0.0227037
0.0278811
4.12343
0.0220322
0.0221827
0.0388214
3.71099
0.021988
0.0320154
0.0340356
1.85397
0.04536
0.0385997
0.217448
0.0220752
0.118869
0.0217177
6.25685
0.029728
0.0220495
0.0265278
0.0935153
0.0221505
0.0221379
0.13461
3.6921
0.0222905
5.6675
0.0221876
0.0217076
0.0616105
0.0220355
0.0218734
6.57335
0.0222736
0.0386687
0.148563
4.59751
1.40942
0.0218089
0.024
0.0280509
0.022075
0.0220398
0.0220961
3.59006
0.0221951
0.400438
0.10976
0.0218607
0.0217293
0.0295976
0.10996
0.225199
0.0551226
0.060299
0.0238218
3.49944
0.0763093
0.0295242
0.0384075
0.0646029
0.0884034
19.2043
0.0362079
3.63627
4.64276
5.58845
0.0244355
0.0219702
0.0374198
0.0340617
0.0218107
0.0222967
0.130636
0.0222434
0.022304
0.0220525
0.0215948
0.0233671
0.0220307
6.33053
0.0220203
8.89693
0.0220824
0.0859658
0.0225343
0.111916
0.0775818
0.0220456
4.78612
0.0239811
0.0222255
0.0377918
0.0218234
0.0307166
0.0219618
3.51475
0.0241667
0.0405941
0.104855
4.77593
0.0283686
0.644008
1.84362
0.0503749
0.0220801
0.0228854
0.108594
0.0616277
6.93617
0.0217758
5.06606
0.0220988
0.088924
8.72236
0.0357687
3.72925
0.0251986
0.0314543
0.0248092
7.13727
0.0307936
0.0221421
0.0483973
0.134237
0.0233466
0.0220402
0.0221432
4.51096
0.0222522
0.0276515
4.15987
0.0260257
0.0219893
0.0557978
0.0248804
4.74258
0.0216679
0.0220198
0.021868
0.0260618
0.0223503
0.0220986
0.0586485
3.88986
0.0219732
0.0221029
5.27848
0.0221875
5.73394
0.0235284
6.9159
0.0218664
0.0243199
0.0218176
3.76898
4.38699
0.0302696
0.0705926
0.0268503
0.0219543
0.022117
3.57713
0.0221369
0.0748281
0.021798
0.0396872
0.0221896
5.45367
0.0218428
0.0419134
0.021869
0.500648
0.934313
0.0218052
0.0440765
6.85695
0.0621438
4.08556
3.69454
0.2358
0.023405
0.0329982
0.089912
4.23786
0.0221291
0.0360748
0.0281083
0.0219882
3.9496
6.2268
0.0633259
0.146424
0.328147
0.0333007
3.94801
0.0218044
0.0218004
0.0953926
7.74019
0.21285
0.154091
2.30506
0.0218169
7.36333
3.67709
9.50568
0.0222027
5.22006
5.22051
1.00712
3.88731
3.55049
0.0774874
0.0300058
0.161451
0.0255861
0.0219805
1.5216
0.0854003
0.0216426
4.56189
0.0221883
0.0293718
0.0402478
0.0266994
1.55094
0.0347464
6.04157
0.041309
0.0261866
4.50897
4.56417
0.131608
0.0223721
0.0257985
0.0687946
0.0580993
0.0218357
0.0464084
0.0618474
0.138913
0.0219795
0.182099
0.0243223
0.0486959
4.1301
0.682585
0.0230781
0.129843
4.47883
0.0221705
0.0227961
8.79327
0.32106
0.0242655
0.0245325
0.0220917
0.0732058
0.0250741
3.36901
0.095933
0.0225208
0.0222233
0.0656446
0.0296266
0.64729
6.23691
0.0218835
0.0220349
0.0275737
0.0221944
0.0240821
0.0229055
0.0227229
0.0257791
0.0219418
0.0248182
0.0221845
0.0437694
3.73104
0.0222642
5.46195
10.5059
0.0217172
0.241049
0.129753
0.0844808
0.0227365
0.0848753
0.0266866
0.0798558
0.0290299
0.0232142
0.0222094
6.82886
0.027306
4.06648
0.0227203
0.0220381
0.0220238
0.069438
0.0219675
0.047078
0.0557497
1.60479
0.0219212
0.260191
4.50655
3.79677
0.0218093
0.135683
0.987298
4.92356
2.19697
0.0225491
0.0222845
0.156868
2.11262
3.87568
0.0386025
0.218792
0.0222315
0.0218513
0.0398936
0.0221957
0.0221311
0.157649
0.0222653
0.0904052
0.0218568
4.56144
5.25576
4.77887
4.13673
3.92956
0.0221264
0.022145
6.56353
0.0217894
0.0218156
0.0217085
0.119166
4.44953
6.34147
0.0275494
0.0220763
0.0231369
0.0371936
5.07239
0.0220374
3.75067
4.6733
0.0221886
0.0221776
3.8989
0.0711979
0.0231576
0.0220427
5.63045
4.11839
0.0219916
0.187009
0.0222535
3.71964
2.9717
0.0233424
7.4174
6.50653
5.47774
0.0218425
0.0221279
0.0222448
0.0222861
4.17865
0.0219186
0.233349
0.206651
8.32232
0.0226365
0.0569152
0.338074
0.0470161
6.50177
4.33797
0.0216398
0.0253167
0.0254779
0.129838
3.90422
0.0215814
5.36434
0.0321193
0.0401213
0.022746
0.0219488
0.276317
0.0392686
4.93101
0.0221956
0.053843
0.0225522
0.113133
0.0240564
3.81326
4.22838
0.2626
0.0860679
0.0219725
0.0238801
0.0793397
0.221093
3.85314
6.6524
0.0221495
3.88128
0.0922101
4.82843
0.0261606
0.0425033
0.0384239
0.0220897
5.53516
0.0220705
0.0315578
3.42847
4.43403
1.30363
4.31703
0.0283183
0.0461718
0.0217565
4.58648
0.0272391
6.70989
0.0217447
4.82108
0.0215476
0.0220037
0.0311806
0.0313515
0.032473
0.0219857
3.57062
0.0407901
0.0219218
0.0371735
3.81966
0.58865
0.0220371
4.62119
0.0243563
0.0326434
0.0309045
0.0216982
0.0609459
0.0219968
8.32111
0.0798787
0.0263096
0.0220306
0.340739
0.0382988
0.0217439
5.08716
3.47916
0.234662
0.0216562
1.50209
0.0221409
0.140708
0.0269953
0.116638
4.66044
3.73672
0.0345633
4.32209
0.0488311
0.0284224
0.0218327
5.14866
0.111644
0.0983822
0.0620413
0.0222435
3.79974
0.0839338
0.353595
0.223716
6.39493
3.52877
3.93949
4.75643
0.0289212
0.0315857
0.0220963
0.0220781
0.0216009
0.161179
0.0290677
0.0331824
4.64618
0.0219423
0.021861
0.0387077
0.134988
0.027327
0.02182
4.22117
0.024128
0.0434257
0.0222209
5.5322
0.0287298
5.71591
0.0557408
0.0329547
0.0514092
0.0220894
7.81868
0.334525
0.0665084
0.022052
0.0219115
6.75586
4.48235
3.2262
0.0218588
0.0677582
0.819597
0.02205
0.0220087
0.0221003
4.3242
0.10038
0.03434
0.0266658
0.0256581
4.65722
0.086676
0.24086
0.0258733
0.0315302
0.0215879
0.123117
0.0537122
0.0220171
3.56043
4.39015
3.95023
3.73741
4.83481
8.31853
6.49884
0.0231307
0.0218414
5.88814
4.74005
6.71183
0.0220775
0.0383349
0.0220473
0.0219696
3.57844
4.55917
0.0589319
0.022005
0.323459
0.0870971
0.0466747
4.00095
2.42436
0.237719
0.0219166
3.80221
3.46337
0.333669
0.0309242
0.0405437
0.022176
0.0218794
0.0377398
0.0438901
0.0244078
0.0379684
0.0273278
0.0250074
0.218562
3.9512
0.0315031
0.0395817
3.85122
0.219723
0.0221114
0.46287
0.911314
4.68167
0.0399201
0.0221381
0.0289121
0.0267076
0.0301117
0.0216965
0.0331618
0.0301668
0.0426786
0.229566
0.0222306
0.0230134
3.61186
3.60422
4.44265
0.359913
0.102419
0.0215309
0.0220461
0.0297474
0.0217487
6.68376
0.0220391
0.0222733
0.0217332
3.50682
17.9039
0.0224242
0.0576787
0.0280855
0.0352966
0.0294899
0.0351416
0.0382086
0.0365833
4.72199
0.025845
4.4235
0.0382973
4.43794
0.0289581
0.0219364
0.0218272
0.0875516
0.135845
0.0218291
0.0390946
0.0291291
0.056491
4.08287
7.01397
4.57471
0.0222731
1.20632
0.0296634
0.0361474
0.0220313
0.0660151
0.0237226
3.62615
1.95656
0.0391635
0.0220792
3.59368
0.0272886
4.14348
4.83754
0.217062
0.0242624
0.121757
4.61697
1.10984
3.53041
0.0573023
0.0219579
0.038952
0.0218546
9.10398
0.0246248
0.0312012
0.302516
4.4216
0.0219252
0.0219663
4.17089
0.0404884
8.35944
0.0327542
0.0220435
0.0412119
0.203004
0.0433537
3.91494
0.0355008
0.866105
0.0249751
0.0222447
0.0219519
0.262766
0.0226716
0.1247
0.0220498
0.02202
0.246935
0.0257133
0.0220961
0.0220387
0.0347863
0.661002
0.0398925
0.0379181
0.0263901
0.0578669
0.0220446
0.149249
0.0298939
0.0411101
0.0691744
0.0271985
0.0840192
0.0450372
0.0218353
0.0618563
6.95676
3.22315
0.0221026
1.9219
4.12602
0.02197
0.0226682
0.797678
3.94264
0.027911
3.99203
0.347386
0.0220274
0.077013
0.021599
0.0257074
0.0580797
9.52461
0.497653
0.169566
0.286846
3.66745
3.68851
0.0232213
3.52803
0.0220375
3.45721
3.77798
0.0221003
0.0220833
3.37339
0.0221169
0.0220858
0.241427
4.09091
0.212735
0.0257078
3.9143
0.0221037
3.73196
3.70751
0.0221901
0.987407
4.50638
4.2664
3.45921
3.6022
3.59357
0.0218842
0.0232064
0.0581856
0.059793
0.0220802
0.216175
0.022042
3.50253
0.237811
0.0491032
0.24108
3.42772
0.235995
0.238071
0.0606196
7.43876
0.438791
0.0249394
0.0216418
3.65093
0.0345939
0.0217851
7.04184
0.0219804
3.77893
0.0221445
4.38519
0.0250929
0.021984
18.2689
0.0274644
0.035364
3.6617
6.53999
2.00676
0.0270294
0.041826
0.0233353
0.037084
0.117755
0.0378203
0.0222094
1.54894
0.0576268
0.0327821
3.91379
0.0387728
0.0368209
0.19526
0.0694683
0.0416311
0.0219797
0.189303
0.0218265
0.115708
0.957197
4.20292
0.0218758
0.0379893
4.58761
0.0231355
0.061632
0.0299745
0.0404763
5.8851
0.0569415
0.0234386
14.6712
0.0218863
3.58525
0.0221254
0.0229248
0.113762
3.26416
0.0322549
0.390719
0.562001
0.0301735
0.022203
0.159088
0.0435512
4.52696
0.026544
10.5816
0.133349
0.0300667
0.0289145
0.100781
0.0366706
0.0739233
0.0565848
0.0378841
0.0242193
0.0220759
1.85922
0.0220156
0.0283415
0.0216112
0.100053
0.0286537
0.0558692
3.69927
0.0230233
0.216503
0.0215193
0.0221557
0.0221887
0.0222064
0.0260143
0.0219449
0.0782579
7.41241
0.0550959
0.0429218
0.0247219
0.0220531
0.464614
0.0220336
4.52928
4.98838
4.70132
0.136146
0.0345769
0.0266039
0.0221775
0.0297262
0.0957883
0.0416869
3.97123
0.0543808
4.99774
0.138611
0.0222101
0.0218454
3.27491
0.0219584
0.0290588
0.0644437
0.328285
0.0231808
4.08565
0.0221733
0.0256997
0.0220486
0.0226411
0.163811
0.0978433
0.0222284
0.0310922
0.0350741
0.0433621
0.0531212
0.490493
0.342165
0.254087
0.124235
0.025651
0.0229617
0.0523814
3.25697
6.37341
3.60624
0.0306429
5.54328
0.0957305
0.0227258
0.0219974
0.0568117
0.022144
0.0309865
5.38158
0.0219687
0.0218215
0.491984
3.55979
0.0436444
1.19415
0.0221177
5.45797
0.0412464
4.49631
0.0293241
0.0220435
3.74314
0.0600331
0.0220335
0.071159
0.0222528
0.151866
0.0286675
0.055584
7.12747
0.0333499
5.27091
0.0219356
5.11359
0.0221302
0.0259349
0.0224984
0.0449829
0.0221437
0.0552539
3.52807
0.978863
0.0470731
0.0318848
0.0767187
0.0219171
0.0219655
0.0229537
3.12939
0.0250574
4.56793
4.28764
0.134447
0.0222152
0.139596
0.213034
0.138038
0.0254669
4.54116
0.0219808
0.021536
0.0219658
4.88193
0.022083
0.0220189
3.61115
0.0219786
0.155176
0.0986278
0.0217992
3.87472
0.027376
4.35397
0.0219421
2.89188
0.0228252
0.070917
9.9031
0.0610767
0.0219498
0.0266409
4.67115
0.0308789
0.142987
0.0302878
0.0262254
0.136672
0.0289906
0.0221871
22.5759
0.0290081
0.0274771
0.13375
0.0219755
0.0218713
0.022189
0.029783
0.0221316
0.0258621
5.36391
12.9554
0.101105
7.2101
0.0562788
0.0328377
4.52726
4.64895
0.0224438
8.74431
8.95603
3.74447
1.92104
0.0304952
4.64857
3.71292
18.2398
2.01971
6.18007
0.0425037
0.082124
0.0293974
0.0255816
0.0221616
1.27573
0.0222851
4.83217
0.121563
0.322082
0.0216021
0.0677932
0.0454978
0.0235801
0.0222931
0.0221185
0.120372
0.0234394
0.0222325
0.038105
4.2593
0.0241067
0.148546
0.0218337
0.123433
0.0821642
0.0221644
0.0266431
0.0219479
4.40438
4.10975
0.153067
6.37337
0.0330032
0.0816725
0.0221319
0.0388735
0.0220592
0.0223178
0.0222332
4.74241
0.0217887
0.0426457
0.693489
0.0277707
0.0301
0.0220016
4.84034
0.18583
14.7537
4.37781
0.159763
0.290595
4.1787
0.32108
0.834354
8.18656
0.12209
0.0342673
2.39145
4.725
0.0220462
5.3201
0.145144
5.305
0.0216201
0.0580076
4.96731
0.0222731
4.69631
0.025385
6.36983
0.0220921
0.0221013
0.0646151
0.216528
0.0262088
0.0608507
0.0218097
0.0221382
3.53489
5.59385
7.24121
0.0499261
0.0221725
0.0224413
0.0221358
0.035814
1.06695
4.11766
4.45108
2.37287
0.031603
0.021954
0.0219838
5.5242
6.92857
0.275682
0.0263238
0.0247001
0.0823737
4.96584
6.45308
0.0215297
0.0219618
4.76695
0.0230177
0.242238
0.0278836
0.0220749
0.0321979
0.0461041
4.35857
4.39719
0.0222022
0.0218217
0.0246922
0.534048
4.9707
0.022265
0.125703
4.16946
0.0215378
3.52473
3.81378
12.9946
0.0221105
5.707
4.66084
0.0384758
0.298162
0.024384
0.307202
0.321295
0.0253134
0.0219482
7.11116
1.07639
0.0218788
0.132524
0.134657
0.0292582
0.25077
4.33732
5.21333
4.77317
0.0274738
0.0235602
0.0230536
4.09906
4.77472
4.52446
5.85382
4.37648
0.0217384
0.041752
0.0220678
0.0221153
0.0248011
0.0219695
0.0220604
0.0221888
4.05781
11.0718
6.59605
0.0554975
0.17801
0.0357587
0.0218662
0.0219876
4.1822
0.0221388
5.80872
3.54255
0.0221789
0.0219095
3.32414
0.0225544
0.511852
0.0256649
0.0217576
0.0217347
4.18198
0.0216912
4.27852
4.00495
0.0215801
0.0444904
0.021929
0.0229167
0.0218919
0.108965
4.23472
0.0219728
4.60169
0.439637
0.0239967
0.0219016
0.0226564
0.0235508
0.0222262
0.471233
5.082
5.69017
0.0384499
7.02203
0.0222725
0.0256243
0.0221755
0.164899
0.0233754
4.81813
0.0218643
3.88982
0.27219
5.45549
0.148459
0.0218603
0.0423055
0.0219281
4.00876
0.021975
0.0283658
0.0262789
0.0254222
0.0221531
0.022251
0.0322936
4.64701
0.0221883
0.022833
0.0239018
0.0333027
0.16586
0.0221879
5.29368
3.52178
0.0238287
4.50502
4.61879
3.77724
6.23079
0.0215469
0.0230594
4.01491
3.84985
0.132791
3.706
4.07155
0.0323267
0.0469579
0.0300669
4.22787
0.0220376
0.0219664
5.52492
0.119352
4.9249
0.0246863
0.021722
0.0220469
4.96864
0.0664818
0.0238266
0.216306
0.0218518
0.0575461
0.0298726
0.0301269
0.0220043
0.0221887
0.0219233
0.0246258
1.25332
4.49757
0.0215885
0.0219257
4.28682
0.0220762
0.0623507
0.0259384
0.0255397
0.0366362
0.0222857
4.12237
0.0292655
0.0252424
19.3223
0.0799124
0.0232389
0.0318124
0.0220311
0.022492
7.45873
0.283307
3.31637
0.0222956
0.0221541
0.0584254
0.0271091
0.0220322
0.0373345
4.29396
0.0257678
0.0403093
0.0252966
0.112851
0.0221158
0.0217337
4.7757
5.2857
5.18449
0.0219762
0.145398
0.0216376
0.0220239
0.0645737
4.21217
0.0639068
0.0279531
0.148432
0.0228043
0.02924
0.0505499
0.732188
0.0223139
0.02165
0.0225554
0.0239967
0.0268715
0.0219624
1.13254
10.6937
0.0221216
0.0318674
0.0224117
0.0216815
3.49313
5.84184
6.02858
0.0718828
0.0223794
0.0535412
4.60396
0.0948009
0.0929405
0.0336573
0.0296585
4.88885
0.213396
0.675632
0.0217689
0.0303789
0.0221133
0.030059
7.09673
0.0216337
0.0398922
0.0253802
0.0297847
0.0230544
0.0218234
0.0218812
3.84874
0.0441568
0.0300774
0.0634256
0.0345328
6.15053
0.0310159
0.466899
0.0219294
4.86896
4.63286
6.81952
0.0222646
0.0312659
0.0220847
0.0219703
6.08546
0.0443931
4.86432
0.0219968
0.0446653
0.130357
4.1929
0.027934
0.0216725
6.7037
0.0222852
0.0222841
0.0225977
0.0220369
6.45869
0.0218357
0.0218825
0.0358702
0.0271851
0.135435
0.123328
0.0330641
4.06925
0.0220229
0.162522
0.0218156
4.73963
0.0336345
0.445931
0.135375
2.41791
0.101821
4.62259
0.0231007
6.22312
0.0322451
4.78969
0.183142
0.027915
0.202778
0.02216
7.72532
0.0231333
0.0372456
0.0270685
5.79134
0.13757
4.28986
0.0308237
0.0220182
4.71123
0.218218
0.0534201
0.138721
8.55436
4.85403
0.0385207
0.249825
0.0409881
0.0218867
0.0471007
0.237276
0.0672304
25.184
0.114418
0.021805
0.0219758
0.130118
0.0220862
5.4748
0.0683525
0.0220852
3.50812
1.4306
3.66748
0.102963
0.0220304
0.0288903
0.0257048
4.26323
3.41002
0.0256922
5.05305
0.0218931
0.0314173
0.856554
0.0220054
0.0394567
0.0219328
0.0261111
0.0222513
0.156581
1.05881
0.0299953
0.0291883
0.0217317
0.132125
0.0219066
0.0218341
0.0328089
0.0219266
0.197726
4.72884
2.37951
4.00382
0.0217968
5.15486
0.022189
0.0370448
0.123691
0.0220842
7.83147
0.0673862
0.0220499
0.0216673
0.0407719
0.0371693
0.169612
0.220235
0.0257628
0.0238973
3.75041
0.058966
0.259936
0.740413
11.8371
3.98708
4.90939
0.993868
0.022154
0.0221147
0.0457564
0.0222252
0.0495134
0.0364323
6.12846
5.18686
6.29958
0.0217183
0.0217991
0.112681
0.355032
4.39875
1.04919
3.39891
0.0558765
0.0325795
0.956521
0.252154
0.0263439
4.59017
0.0329943
0.0300143
4.27603
0.040239
0.0220048
4.69269
0.827745
0.0246003
0.130603
0.0234426
3.41539
5.58112
5.65895
0.0220168
0.0216919
0.128387
0.0220184
0.0219548
0.022022
0.02174
0.0220273
0.0220339
4.77064
0.0277927
0.0459689
4.1548
0.0219036
0.0220425
0.0311289
0.0258698
0.0262195
0.0220503
0.0635243
0.0304589
0.0263666
0.0834141
4.11963
0.0220614
0.041094
0.0220734
0.0220365
0.0215886
0.0220858
4.19105
0.0219175
0.0220288
0.0220989
0.0428011
4.00595
4.1978
4.97993
1.2923
0.0433221
4.10086
6.32009
0.0219576
0.0418196
5.82316
0.207146
0.0221129
0.0279796
0.04216
0.037444
0.0220626
0.039934
0.0576851
0.0439151
0.0216404
0.051741
4.51295
0.0215872
1.42733
4.60288
0.041911
0.639787
0.0351025
0.0220913
0.0255203
0.0220177
0.216701
4.7745
0.0217028
0.0429392
0.0219779
0.021981
0.0222053
0.0222859
0.0369888
0.0221722
0.119367
0.13618
0.0257546
0.0245282
0.0439484
0.0220491
0.0439223
0.0322314
0.0223872
0.0221031
0.0221417
4.76346
0.02202
0.245918
0.0405973
0.0222533
0.0220418
0.0217832
4.3895
0.0253116
0.0424584
0.0506261
4.97484
0.0280631
3.84374
1.58854
0.0427739
0.0219761
0.212977
0.0377603
4.75166
0.0678092
4.80982
0.0216817
0.0484403
0.0474947
4.08673
0.0220102
0.0431501
5.09985
0.0218673
7.9972
11.3078
4.08852
0.0219821
0.0218087
4.58033
0.0220504
4.32276
0.153599