/*--------------------------------*- C++ -*----------------------------------*\
| =========                 |                                                 |
| \\      /  F ield         | OpenFOAM: The Open Source CFD Toolbox           |
|  \\    /   O peration     | Version:  v2012                                 |
|   \\  /    A nd           | Website:  www.openfoam.com                      |
|    \\/     M anipulation  |                                                 |
\*---------------------------------------------------------------------------*/
FoamFile
{
    version     2.0;
    format      ascii;
    class       surfaceScalarField;
    location    "850";
    object      phi;
}
// * * * * * * * * * * * * * * * * * * * * * * * * * * * * * * * * * * * * * //

dimensions      [0 3 -1 0 0 0 0];
oriented        oriented;


internalField   nonuniform List<scalar> 
20673
(
-0.171764
0.161721
0.0100428
0.37087
-0.306754
-0.0641124
0.0221589
-0.048595
0.026436
0.152294
-0.277611
0.12532
-0.360528
-0.117476
0.478008
-0.0204508
-0.00208777
0.0225386
0.0340063
-0.0288694
-0.00513686
0.00862058
0.018739
-0.0273595
0.0133106
-0.0250225
0.0117119
-0.0561266
0.157432
-0.101306
-0.10719
0.105952
0.00123854
0.150217
0.00436988
-0.154587
-0.0980591
-0.000659107
-0.000404388
0.0010635
0.203869
-0.0377282
-0.166141
0.241475
-0.242024
0.000549657
-0.105536
0.30019
-0.194652
0.140861
-0.163198
0.0223367
0.150904
-0.000686546
0.336431
0.264955
-0.60137
-0.376446
0.573445
-0.196996
0.0313815
0.00262482
-0.598948
0.333668
0.26529
0.0441713
-0.0355507
-0.307716
-0.0601499
0.367871
-0.00440738
0.0316146
-0.0272073
-0.105906
0.0775221
0.028384
-0.0997979
0.0512409
0.048557
-0.0650988
0.0521308
0.012968
-0.147654
0.10941
0.0382447
0.156337
-0.170584
0.0142474
0.195345
-0.205851
0.0105074
-0.0970448
0.137953
-0.0409078
0.174236
-0.0480414
-0.126195
-0.387627
0.36202
0.0256098
0.0886137
-0.10878
0.0201666
-0.366911
-0.232026
-0.00405783
-0.00226611
0.00632394
-0.187231
-0.0547945
-0.015972
0.000830455
0.0151415
-0.583274
0.593346
-0.0100194
0.6852
-0.389933
-0.295266
0.367449
-0.540693
0.173278
-0.0492365
-0.0186231
0.0678597
-0.171473
-0.155558
0.327035
0.0957832
0.071767
-0.16755
0.14735
-0.00648861
-0.0172774
-0.111724
0.129001
-0.00329933
0.0100108
-0.00671147
-0.682767
0.438303
0.244499
0.0431644
-0.165393
0.12223
-0.283067
0.0332098
0.249858
-0.00638306
0.00308373
0.0548958
0.119341
0.167993
-0.273526
0.212981
-0.224247
0.0112671
-0.112769
0.00557886
0.270999
-0.352833
0.0818388
0.084608
0.161355
-0.245961
-0.333248
0.161778
-0.0177905
-0.0188834
0.0366739
0.163908
0.206966
-0.000659107
-0.166947
0.503393
0.0154612
-0.035912
-0.0789669
0.0867234
-0.00775655
-0.515657
0.324469
0.26324
-0.36177
-0.105664
0.104127
0.00153723
-0.162208
0.181804
-0.0195957
-0.525448
0.164923
-0.0150606
0.0283713
0.000171126
-0.00378208
0.00361096
0.143514
-0.451224
-0.00731299
-0.00699113
0.0143041
-0.0186341
0.144761
-0.126127
0.00453115
0.000194215
-0.00472536
0.0724152
0.191707
-0.26412
0.0337337
-0.0309046
-0.00282917
-0.612245
0.324606
0.287641
-0.327799
0.601416
-0.273611
-0.256286
0.00823643
0.0244144
-0.0326508
0.005694
-0.00975183
0.00252455
0.00327835
-0.0058029
-0.213626
0.286044
0.366913
0.206416
-0.573319
-0.0892771
0.0103102
0.212506
-0.16934
0.518785
-0.151308
-0.00164854
0.00186632
-0.000217783
0.121945
-0.00390397
-0.118041
-0.051062
0.366506
-0.315436
-0.261512
0.0529047
0.208609
-0.0394695
-0.0498076
0.0246263
-0.0351746
0.0105483
0.0866256
-0.12498
0.0383544
0.129108
-0.00150285
-0.127605
-0.0654174
-0.0366314
0.102049
0.0520306
-0.0637955
0.0117649
-0.457461
0.562034
-0.104544
0.12243
0.00765554
-0.130085
0.0192758
-0.0685123
-0.272855
0.0733784
0.199479
-0.485395
0.0891403
0.39627
0.0335672
-0.0254311
-0.00813614
-0.00316605
-0.0620841
0.0652501
0.094278
-0.111555
0.10329
0.196903
0.161757
-0.150667
-0.0110898
0.00238737
0.00641192
-0.00879929
-0.00297671
-0.0129953
-0.111417
0.131966
-0.0205493
0.0307067
0.0028605
-0.274398
0.116899
0.1575
0.00739666
-0.00788226
0.000485606
-0.362451
0.500881
-0.138421
0.0109828
-0.0116264
0.000643617
-0.00692685
0.00897928
-0.00205243
-0.076765
0.165288
-0.088523
0.500596
0.184606
-0.0969673
-0.00869669
0.00158671
0.00521581
-0.00680252
-0.0557194
-0.0440785
-0.611332
0.123653
0.487714
-0.245633
-0.0158783
0.0993376
0.219976
-0.319309
-0.537025
-0.0742659
-0.495544
0.590811
-0.0952122
0.0225386
0.00789513
-0.0122325
0.00433733
-0.082319
-0.192079
0.149468
-0.305022
0.205489
-0.581933
-0.129926
0.0652586
0.064667
0.00767204
0.0364993
-0.0164581
-0.155306
0.0512896
0.000740928
-0.113195
0.437663
0.101744
-0.178509
-0.0946027
0.113181
-0.0185778
0.453045
-0.191519
-0.261514
-0.216308
0.277106
-0.0607973
-0.0715096
0.024884
0.0466256
-0.0684826
0.331723
0.0428566
0.00526781
-0.0481244
0.0178914
0.0431372
-0.0610286
0.0180424
-0.301109
0.505795
-0.16796
-0.337822
0.223806
-0.214296
-0.00950973
0.155135
0.00414006
-0.159275
-0.00029775
0.00769441
0.0219313
-0.11598
0.0940482
-0.0814133
-0.0439504
0.125364
0.219099
-0.214046
-0.0050524
0.00241088
0.00204041
-0.00445129
-0.174134
0.0119257
0.0329389
-0.09118
0.0582411
-0.0005942
0.00512535
-0.0762947
-0.0536309
-0.148562
0.218984
-0.0704223
-0.0853891
-0.00649416
0.0918832
0.241155
0.359338
-0.60049
0.112822
-0.0261959
-0.134964
0.023547
0.028771
-0.0941884
-0.203064
-0.0697892
-0.157838
0.154449
0.00338904
0.133835
0.222017
-0.355845
0.0255804
0.0968493
0.150202
-0.142348
-0.007854
0.0168265
-0.0072189
-0.00960762
0.10951
0.00563206
-0.115142
-0.00733169
0.236478
-0.229144
0.0597859
-0.0468857
-0.0129002
-0.0433406
-0.0696053
0.112946
0.0140222
-0.0061271
0.00067509
0.0103077
0.0576947
-0.0148381
-0.259542
0.40285
-0.143301
0.00577494
0.11617
-0.0129804
0.169318
0.299507
0.153549
-0.0916461
0.458568
0.190007
-0.0915508
-0.0984556
0.0341325
-0.0385399
-0.0324283
0.128097
-0.0956683
-0.000126919
0.0025378
0.151682
-0.151177
-0.000505368
-0.107177
0.0978343
0.0093432
-0.0105682
0.0759149
-0.0653468
0.000309698
0.00221486
-0.114112
0.0948559
0.0192559
0.625201
-0.277989
-0.347201
-0.0311495
-0.0142117
0.0453612
-0.101938
-0.00396786
0.636062
-0.635995
-0.304836
0.253781
0.00655512
-0.0809294
0.0743743
-0.0884989
0.0882612
0.000237726
0.0242754
0.177011
-0.201286
-0.341168
-0.341573
0.163821
-0.00202928
-0.161792
0.153952
0.00118291
-0.00507581
0.00524694
-0.0765512
0.104889
-0.0283375
-0.280092
-0.107532
-0.0908534
0.361855
0.00858451
0.120524
0.0161816
0.0305487
-0.0467303
-0.287017
0.0707103
0.0364583
-0.0271531
-0.00930522
0.00693438
0.000286356
-0.00722073
-0.00600686
-0.101171
-0.416075
-0.0693058
-0.0581715
0.0414008
0.0167707
0.149115
-0.00554835
-0.143567
0.00979418
0.00374472
-0.0135389
-0.49243
0.29174
0.200697
0.0408372
-0.0586277
-0.397255
0.137721
-1.11755e-05
0.11499
-0.114979
-0.128688
-0.454543
-0.00541701
0.000150024
0.00526698
0.0313029
-0.0235549
-0.00774807
0.0639276
0.177549
-0.119305
0.0187189
0.100587
0.0380118
0.181088
-0.457186
0.0411268
0.00450934
0.0841043
0.124154
-0.0146441
-0.0103169
0.161999
-0.0560742
0.0205141
0.0355601
0.00812613
-0.00119176
-0.594396
0.492197
0.102239
0.19387
0.00147537
-0.00200073
0.000352186
-0.00318962
-0.00242223
0.00561185
-0.305787
0.546948
-0.462414
0.443723
0.0187091
-0.0177007
0.00142243
-0.118874
0.0950242
0.0238503
0.400139
-0.602282
0.202147
-0.0768889
0.091633
-0.0147441
-0.144965
0.141649
0.00331563
-0.10326
0.0178705
-0.167561
-0.0124605
0.180022
0.582831
-0.223488
0.140126
0.00496289
-0.145089
0.00669504
-0.00729598
0.000600943
-0.288809
0.387984
-0.0991701
0.0540519
-0.133744
0.0796923
-0.0375431
-0.0103706
0.0479136
-0.240078
0.33942
-0.282149
-0.0706811
-0.0258744
-0.105916
0.131791
0.000655336
0.0137006
-0.014356
0.105804
-0.0838729
0.121972
0.0680349
0.0129751
0.190895
0.240808
0.371574
-0.612379
-0.0033177
0.00490441
0.00442645
0.040082
-0.0445084
0.055393
-0.0889698
0.0335768
-0.383262
-0.0739089
-0.00177283
-0.00534159
0.00711442
-0.000711169
0.000305167
0.000406001
-0.0429293
0.0758683
0.0334804
0.00025336
-0.123478
0.104844
0.255037
0.474881
-0.66455
0.189717
-0.142434
0.00276171
0.139673
-0.00157192
0.00152901
4.29017e-05
0.117704
-0.134177
0.0164731
-0.171229
0.255838
-0.108427
0.0318757
-0.145493
-0.0151479
-0.0936923
-0.45654
0.550288
-0.0735304
0.0693729
0.00415753
0.254463
0.282742
-0.537189
0.0557984
0.00398753
-0.20989
0.234167
-0.0720785
0.472223
0.0830819
0.112818
-0.1959
0.0494295
-0.130843
0.105547
-0.112041
0.0225268
-0.0994157
-0.00427581
0.131594
-0.127318
0.378035
-0.0905221
-0.287508
0.0832516
-0.0960536
0.012802
-0.027391
-0.0286832
0.0267824
-0.0223559
-0.22767
-0.264753
0.0810258
-0.0251418
-0.055884
-0.485182
0.017147
0.468035
0.185962
0.192078
-0.475588
0.113146
0.0614519
-0.0435605
-0.0592477
0.521589
-0.462313
-0.107158
0.107147
-0.17988
0.012319
-0.266348
0.400191
0.00338956
0.160432
-0.245967
0.0273451
0.218623
-0.00822094
0.00237806
0.00584288
0.0845037
-0.127844
0.125211
-0.129115
-0.277201
-0.107681
0.384891
0.0683632
-0.350508
0.000538507
-0.00875321
0.0082147
0.00582035
-0.00381726
-0.0020031
0.288119
0.212769
-0.394093
0.628766
-0.234628
-0.0639875
-0.00954296
-0.290481
-0.0677288
0.358217
-0.000856428
-0.00292565
0.102426
-0.379617
-0.0057514
0.000334395
-0.333209
0.255453
0.0777602
0.103875
-0.0113799
-0.0924949
0.217062
-0.143991
-0.0730707
0.0173453
-0.0116753
-0.00567001
0.061657
-0.210218
-0.000510807
-0.0757839
-0.0518789
0.0110849
0.040794
0.18186
-0.0987777
-0.0620692
-0.0568053
-0.00793512
0.0714737
-0.0635386
0.054751
-0.280609
0.22586
-0.00429123
-0.00532511
0.00961634
-0.0520581
0.0209086
-0.000589317
-0.000121852
-0.188464
0.170262
0.018203
-0.0116826
0.000290142
0.0113925
-0.159976
-0.0574619
0.217439
-0.00119337
0.00366695
-0.00247359
-0.0438418
-0.00803714
0.0718583
-0.0937408
0.0218826
0.0943435
-0.0224851
0.0348305
-0.0126716
-0.563865
0.334522
0.229346
0.143783
0.00641845
-0.00530024
0.00768761
-0.179256
0.294014
-0.114756
0.223115
-0.00217354
-0.220941
-0.0016472
0.00124281
-0.0658987
0.0724538
-0.21427
-0.051899
0.266172
-0.0820943
0.0715262
-0.0368564
-0.0282425
-0.603954
0.32619
0.277796
-0.0083474
0.00142055
-0.110575
0.0347836
0.0757912
-0.267999
0.522478
0.509839
-0.360276
-0.149548
0.108247
-0.593432
0.237363
0.268444
-0.0124588
0.0957105
-0.0391103
0.0572328
-0.0181225
-0.0384402
0.0224147
0.0160254
0.00761204
-0.00707353
-0.373283
-0.00483012
0.378119
-0.062081
0.116133
-0.00926791
0.00990589
-0.000637975
0.125193
-0.166032
0.0408391
0.00758886
-0.00371086
0.00213895
0.00587185
0.211969
-0.481996
0.270055
0.0908519
-0.0354589
0.3233
-0.496816
0.173531
-0.0155292
0.0563665
-0.143952
-0.189292
0.0156805
0.00166476
-0.0287094
-0.116256
0.182557
0.0869952
-0.26955
0.459753
-0.573067
0.113317
0.140422
-0.131837
-0.0932657
0.0990407
0.124744
-0.128355
0.00361128
-0.0133152
-0.0376247
0.05094
-0.00665065
0.00545728
0.0133931
-0.00359892
0.00609889
0.134028
0.0619956
-0.118122
0.0179383
-0.480337
-0.00610497
0.00291535
-0.0202263
-0.0096262
0.0298525
-0.030153
0.289105
-0.258949
0.0925182
-0.093029
-0.306142
0.50154
-0.195394
0.0378811
0.0741885
-0.11207
-0.0998595
-0.233347
-0.317048
-0.246813
-0.29419
0.110414
0.183777
-0.0254078
-0.00739935
0.0328071
-0.076885
-0.217304
-0.0191127
0.0197681
0.00358743
-0.00107194
-0.00251549
0.0801264
-0.0845225
0.00439612
0.0269368
-0.0444423
0.0175056
-0.215039
0.269792
-0.0335687
-0.0246028
0.0380217
0.589705
-0.243827
-0.345866
-0.0690647
-0.296675
0.117421
0.214962
-0.339889
0.12493
-0.0754956
-0.0721587
-0.366288
0.607102
-0.392213
0.461843
-0.0696259
0.390248
-0.0669356
0.091229
-0.103688
-0.331026
-0.281217
-0.0101658
-0.00151685
-0.00246276
0.0372694
-0.0348067
0.00356206
0.00285951
-0.00642157
-0.0812177
-0.0328941
-0.00609679
-0.0128343
0.0189311
0.00919879
0.00205175
-0.0112505
0.166163
-0.0409691
-0.473742
0.100465
0.110506
0.0141975
-0.124704
-0.267416
0.0801868
0.206845
-0.194889
-0.0119561
0.226133
0.399077
0.0185845
0.0355695
-0.0193879
-0.0504006
0.0479379
-0.189442
0.208251
-0.018809
0.109582
0.0265417
-0.136124
-0.165853
-0.0226109
-0.260445
0.205651
0.00549615
0.119248
0.194658
-0.242409
0.0477529
-0.0799697
0.0851807
-0.00521094
-0.175083
0.278375
-0.439407
0.380181
-0.00182717
0.000970738
0.0109767
0.00304554
0.0152352
-0.00425853
0.0438205
0.0904877
-0.134308
0.0060809
-0.00251884
0.00908782
-0.0133791
-0.000712348
-0.00402677
0.00473912
0.00359772
-0.0008024
-0.00279532
0.148353
0.368331
-0.516638
-0.131902
0.0019313
0.129971
0.225684
-0.0310248
0.34689
-0.263901
-0.0829865
-0.112655
0.0308613
0.0817938
0.00491588
0.488245
-0.542407
0.0542213
0.0125331
-0.137917
0.125384
-0.00497431
-0.149615
0.15459
0.00239047
-0.00169162
-0.000698852
0.3452
0.244515
0.121475
-0.00855882
-0.112916
0.00129451
0.000587341
-0.00188185
0.10224
-0.0176075
-0.084632
0.000995835
-0.0107988
0.00980294
0.242421
-0.25181
0.22166
0.52487
0.11125
-0.149636
-0.0244971
0.511208
-0.299206
-0.0313858
-0.0100008
0.0413866
-0.0321402
-0.00629999
-0.155015
0.15074
0.00282479
-0.00517539
0.0023506
0.0227552
0.190226
0.0986005
0.0142211
0.00134922
-0.00206156
-0.00903525
0.0521724
-0.0122051
0.0923315
-0.0035406
-0.0910621
0.105192
0.0162833
0.122553
-0.148032
0.0254792
0.0865094
0.0321647
-0.118674
-0.171892
0.178112
-0.00621924
0.0917049
-0.108823
0.0171186
0.0236977
-0.138592
-0.0139784
0.15257
0.105322
0.00368157
-0.109004
-0.53399
0.547927
-0.0138804
0.107485
-0.0295595
-0.0779254
0.21599
-0.0156371
-0.200352
-0.432485
0.305831
0.126667
-0.160453
0.0108169
-0.265201
0.184581
0.0806221
-0.000616103
0.00300657
0.011477
0.0192298
0.0901902
-0.380663
-0.520302
0.426665
-0.0340842
-0.00977982
0.043864
0.0117912
-0.00259242
0.594262
-0.222681
-0.00855081
0.00954664
-0.314252
0.232908
0.0813466
0.125749
-0.0964659
-0.0292828
0.00758954
0.324878
-0.332461
0.00763716
-0.00492651
-0.00271065
0.0644313
-0.0967188
0.0322875
0.0433821
0.180425
0.305884
-0.191242
-0.11464
0.0185461
-0.0246429
-0.116542
0.0841136
-0.0125364
0.0124779
5.85646e-05
0.240409
-0.606694
-8.17939e-05
-0.00696137
0.00704317
-0.00754585
0.079806
-0.0133283
-0.0664777
-0.355386
-0.0770893
-0.00384673
0.00712508
0.0234539
-0.0120165
-0.0114374
-0.130033
0.166996
-0.0369623
0.126617
0.383236
-0.217745
0.265646
-0.0478998
-0.140047
-0.0629833
0.100864
-0.0442113
0.532511
-0.519695
0.159435
0.652461
-0.440583
-0.211849
0.409619
0.242871
0.00503011
-0.00680293
-0.0469087
-0.0657464
0.0361296
-0.102544
0.116787
-0.0142429
0.575207
-0.100283
-0.0484619
-0.408976
-0.0102654
0.119847
-0.0127235
0.00530832
0.00741513
0.150669
-0.168104
0.017435
-0.114867
0.336889
0.452358
-0.237392
-0.287121
-0.0904641
0.377585
0.0158185
0.000678327
-0.000368628
0.39577
0.167341
-0.563102
-0.265577
-0.142931
0.408508
0.0108822
-0.0228544
-0.149038
0.105915
0.111147
0.0431487
-0.294955
-0.148928
0.261844
-0.112914
0.183089
-0.220479
0.0373909
-0.00435193
0.109674
0.063593
-0.0715282
0.0255529
0.100103
0.0104031
-0.149621
0.0604796
0.0891417
0.0188597
0.0860291
0.00756916
0.117642
0.453696
-0.293118
-0.160571
0.00686485
-0.000169812
-0.45269
0.250031
-0.0269148
0.252575
0.00609178
-0.258666
0.0770272
0.0304578
0.0822073
0.0204657
-0.102673
-0.0144943
0.401776
-0.387247
-0.00113774
0.103377
0.110486
-0.139774
0.0292873
0.00224615
0.00155729
-0.00380343
-0.0817496
-0.0678717
0.00351248
0.0937136
-0.097226
0.142172
-0.147146
0.324021
0.135736
0.0414086
-0.0146262
0.102737
-0.02332
0.0180698
0.00525027
0.170172
-0.345251
-0.157055
0.186721
-0.0296654
0.111424
0.00536274
-0.00259821
-0.00111265
0.0117479
-0.0117479
0.118686
-0.120188
-0.0655712
0.109392
-0.0366651
-0.205358
0.199231
-0.227811
0.0285815
-0.212008
0.25516
-0.0746451
-0.0154354
0.0900805
-0.0522338
0.0265069
0.147323
0.00179208
0.0137466
-0.015549
-0.00777103
-0.00311121
-0.00942523
0.02068
-0.218663
0.197985
-0.00967525
0.108276
0.0933669
-0.0289356
0.0854285
0.0924939
-0.177922
-0.291135
0.087982
0.203154
-0.0300807
0.00275722
0.0273235
0.052708
-0.0342421
-0.0184659
-0.0476159
0.0367419
0.0108739
-0.0386331
-0.0690419
0.107675
-0.542397
0.0468954
-0.00635533
-0.00199207
0.00471476
-0.469964
0.455515
0.186011
-0.183364
-0.00264667
-0.0069583
-0.112953
0.119912
-0.124881
0.0278358
-0.0153679
0.124778
0.0357872
-0.0101477
-0.0256396
0.111649
-0.02514
-0.0204985
0.192584
-0.172085
0.0207893
0.0206193
0.2656
-0.198647
-0.0669521
0.0035347
6.30147e-05
0.269493
-0.575276
-0.0135509
0.409328
0.0664854
0.0145405
0.0395207
0.0131873
0.0319002
-0.00698168
-0.0249185
0.0971493
0.168453
0.257713
-0.265043
-0.44837
0.182794
0.00464478
-0.150137
0.00269781
0.115054
-0.0862828
0.221121
-0.0218889
0.100446
-0.112652
0.134874
-0.262786
0.270382
-0.0519528
-0.0673526
0.116119
-0.00106506
-0.0806594
0.0723724
0.00828697
-0.0478877
0.360418
-0.312523
-0.0842969
-0.0251631
0.10946
-0.0734915
-3.74971e-05
0.00362493
0.0328337
0.124599
0.109279
-0.0270716
-0.18943
0.032375
-0.260192
0.539403
-0.279175
0.293403
0.0857823
-0.379172
-0.0912259
0.311205
-0.0881243
-0.0103357
0.09846
0.154663
-0.0588798
-0.0555939
0.104531
-0.0489373
-0.0380418
0.0247265
-0.140757
-0.0170812
-0.223275
-0.380648
0.0283987
-0.0906378
0.0622391
0.0225076
0.00939262
-0.103877
0.0854554
0.0184213
0.0578178
-0.34662
-0.18044
0.148001
0.0324394
-0.121267
-0.398413
-0.160752
-0.0419268
0.202679
-0.0527929
0.214148
0.00528021
0.0181737
-0.289884
0.614494
-0.0697801
0.189416
-0.002845
-0.18657
0.0836487
0.0223029
0.148637
-0.0608835
-0.087753
0.004619
4.1671e-05
-0.00466068
-0.0218353
-0.0901364
0.111972
0.0482601
-0.266002
0.00147893
-0.000250305
-0.00122863
0.00949527
0.00225266
0.354638
-0.265912
-0.0887221
0.222291
0.0302855
0.107274
-0.078404
-0.0288697
0.0851496
-0.123783
0.118519
-0.000814504
-0.348778
-0.242185
0.590973
0.0347113
0.271175
-0.104033
0.0926526
0.243958
-0.0613996
-0.112995
-0.0153601
-0.150813
0.124939
0.389494
-0.0960799
-0.145488
0.150882
-0.00539326
-0.0280809
0.401835
-0.176187
-0.225642
-0.267534
-0.0310996
0.298637
0.67493
-0.394562
-0.280338
0.00377964
0.00204072
-0.416817
0.622306
-0.201535
0.0120943
0.00386268
0.0129638
0.00909833
0.201794
-0.210892
0.0476203
-0.0080996
-0.0271444
-0.186901
0.0666358
0.0713168
0.234374
0.122244
-0.00509268
-0.117151
-0.0996236
-0.375956
0.139091
-0.00548495
-0.133606
0.326629
-0.588589
0.262003
0.111635
-0.101628
-0.0100063
-0.219668
-0.0945821
-0.019899
0.0211935
0.0493596
-0.0432075
-0.00615213
-0.0032716
-0.00945185
-0.563379
-0.07255
-0.238542
0.129268
-0.121698
-0.147737
0.163242
-0.0155049
0.00108483
-0.00319452
0.0021097
0.017676
-0.0171172
-0.000558817
-0.135066
-0.0281316
-0.332121
-0.0137655
0.345891
0.10686
-0.0156307
-0.0261559
0.0191742
-0.0842724
0.00361303
0.0575592
-0.113153
0.142688
0.000333185
-0.143021
-0.0284367
-0.00580446
0.0342412
-0.165214
0.151498
0.0137163
0.161011
-0.176158
0.0021561
0.0935891
-0.0957452
-0.0769948
-0.0039346
-0.149244
0.0141778
-0.0021913
0.0194175
-0.0172262
0.147502
-0.153322
0.00582004
-0.281272
0.080494
0.20078
0.0991842
-0.106142
0.0704855
0.111375
-0.406554
0.319342
0.0872213
-0.185984
0.0252331
0.0148099
0.146947
-0.169274
-0.0450212
-0.381847
-0.0418687
0.423723
0.181153
0.148735
-0.0145803
-0.134155
-0.062992
0.243216
-0.180222
-0.138974
0.0259786
0.0101646
-0.342283
-0.22574
0.462983
-0.237239
0.132237
-0.549053
0.215419
-0.159041
-0.0563761
0.223822
0.225394
-0.449192
0.0268997
0.186019
-0.212918
0.627734
-0.284014
-0.343693
0.00628421
0.00135295
-0.147651
0.146561
0.00109013
0.0391139
-0.0382981
0.23853
-0.518949
0.280454
-0.352538
-0.207404
0.559946
-0.0356257
0.0860316
-0.0504059
0.152193
-0.0296398
0.250048
-0.194836
-0.0552116
0.041726
0.0163669
-0.0580929
0.136621
-0.0403281
-0.0962928
-0.0758688
0.0603396
0.00343173
0.0975935
-0.125153
0.0275593
-0.0888726
0.261332
-0.172457
-0.63229
0.0216956
0.610597
0.600841
-0.191188
-0.256756
0.010791
0.0151256
-0.0154696
0.000344015
-0.603558
0.251023
-0.0929459
0.0191512
0.0737947
-0.12763
0.15453
-0.00153298
-0.00773493
0.109778
-0.136954
0.0271761
0.112232
0.0243892
-0.0125427
0.0961914
-0.442223
0.102631
0.339613
0.280268
0.316747
0.00325331
-0.429796
0.275229
0.154568
-0.299915
0.0811406
0.218776
-0.0484543
-0.0210691
0.0695234
0.251528
-0.0150485
0.0998528
0.447059
-0.546909
-0.00771851
0.177682
-0.169963
-0.0591584
-0.418632
0.477812
0.326855
-0.477599
0.150792
-0.162469
0.0129804
-0.000629639
0.00171447
0.166529
-0.177441
0.0109122
0.251556
0.150283
0.467027
0.126374
0.00354797
-0.00614618
0.00621914
0.332091
-0.101758
-0.23033
-0.109404
0.279578
0.0643236
-0.0225976
-0.0857738
0.102919
-0.0171454
-0.0118913
-0.00170157
0.0135929
-0.1128
0.116313
-0.0498388
-0.231432
-0.236145
-0.358213
0.509041
-0.182142
0.00916465
-0.147756
-0.0133506
0.0213789
-0.0906431
0.0692643
0.0504797
0.119782
-0.00941041
0.00408529
-0.286796
0.0874163
0.199382
0.0344924
-0.21614
0.181648
0.0107879
-0.0134365
0.0026486
0.144361
-0.450498
0.00256179
0.213428
0.274407
-0.357921
0.0835183
0.337019
0.260372
-0.597366
0.0046903
-0.155357
0.0873204
0.0182264
0.205762
-0.277323
0.0715632
0.0434571
0.00416328
0.00125675
0.0133157
-0.0145724
0.0305953
0.226031
-0.312607
-0.118987
0.43161
-0.0913832
-0.0117514
0.103135
-0.0740862
-0.326556
0.566971
-0.0846413
0.102968
-0.0183268
-0.4395
0.12691
-0.155774
-0.281561
0.366376
-0.084808
0.439685
-0.154545
-0.285131
-0.109892
-0.243129
-0.102442
0.345576
0.0281687
-0.0886894
0.145071
0.0410005
-0.186071
0.396271
-0.586507
0.190237
0.376713
-0.50734
0.130654
-0.0163417
-0.267101
0.283443
0.0302102
-0.321089
0.290887
-0.340405
0.072874
-0.0319201
0.0441939
-0.0122738
0.290923
0.0509066
-0.341823
-0.109742
0.402193
-0.292441
0.0216084
-0.00774885
-0.0138596
-0.0261615
0.0314293
-0.152376
0.131878
-0.160717
0.000343729
-0.12133
0.120986
-0.0511897
-0.166753
0.217944
0.473609
-0.163244
-0.310354
0.125344
-0.0535771
-0.00515761
0.113789
-0.00215435
0.274316
-0.482529
0.208216
-0.303148
0.111909
-0.00326929
0.0209453
-0.0518419
-0.0831451
0.134987
-0.00103705
0.00521757
-0.00418052
0.52851
0.167729
0.000672501
-0.00448976
-0.183275
0.15582
0.0274558
-0.277901
0.0642782
0.0152005
-0.01461
-0.000590488
-0.0184845
0.0102017
0.00828276
0.354376
-0.324156
0.103291
-0.101135
0.493633
0.107236
-0.34013
0.097007
0.431072
-0.192517
6.44985e-06
-0.00534804
0.474741
-0.250893
-0.329779
0.282101
-0.0496951
-0.274436
0.0745088
0.199928
0.0330474
0.0927013
-0.0922539
0.0456834
0.306205
0.0738592
-0.380056
0.0982297
-0.123572
0.025342
0.371369
0.168391
-0.53975
0.00657499
0.506229
-0.483333
-0.0228826
0.348747
0.358953
0.221114
-0.580064
0.00645113
0.458807
0.0273526
-0.0123412
0.01609
-0.0037488
0.0162212
-0.0523989
0.0361777
0.000360494
-0.1808
-0.0426123
-0.0679625
-0.0116368
0.0132936
-0.00165685
-0.281067
0.349434
0.000406266
-0.00676159
-0.0269183
0.00803494
-0.0131149
0.00147814
-0.000287219
0.0157575
-0.0154702
0.00616875
0.0154397
-0.0165361
0.0187823
-0.0716528
0.100051
0.179543
0.0861059
0.00488265
-0.154378
-0.0288974
0.00658494
-0.0268112
-0.413633
0.0582597
0.0907399
0.275773
0.277189
0.0549053
0.538721
0.16421
-0.231034
0.0668248
0.120622
-0.146516
0.0258936
-0.00413205
0.00490767
-0.000775621
0.372804
-0.282057
0.425435
-0.186665
-0.238769
-0.00236074
0.0103437
-0.00798297
0.00918019
-0.0778329
0.0686528
-0.269459
0.253117
0.0222114
0.0226147
-0.176213
0.153599
-0.0726265
-0.206765
0.279395
0.0249474
0.0244122
0.0884743
-0.0662629
0.161694
-0.21181
0.0501169
-0.166669
-0.107766
0.0130862
-0.0118295
0.0119477
-0.00115983
0.00359957
-0.0152259
-0.364764
0.0832114
-0.0873529
-0.029189
-0.00928962
0.119776
-0.00735641
-0.00400252
0.0113589
-0.0268242
-0.121598
0.123696
-0.00209756
0.257156
0.170467
-0.259337
-0.0763357
-0.210458
-0.512073
-0.114872
0.0664918
0.515089
-0.366694
0.169666
0.0134228
-0.0631141
-0.1021
-0.00443695
0.00224779
0.00218916
-0.132658
0.0351662
0.0974922
-0.0949581
-0.234816
0.124135
-0.00281184
0.00410927
-0.00129743
0.166412
0.327362
-0.245501
-0.0818594
-0.00313301
-0.000859974
0.00399298
-0.362132
0.0957908
-0.305106
0.00519303
0.0741797
-0.10841
0.0342301
0.00250459
0.0003202
0.482386
0.299692
-0.347573
-0.0236037
0.0332425
-0.0096388
-0.102352
0.0597392
-0.0283911
0.0939063
-0.0655152
-0.137971
0.0371272
0.100843
-0.0446096
-0.0641706
-0.488277
0.174026
0.314258
-0.101718
0.100281
0.00143696
0.172975
0.154388
0.0129471
0.357518
-0.370453
-0.079913
-0.211222
-0.045454
0.0140682
0.00108479
-0.0129761
-0.370446
0.0895893
0.280865
0.502999
-0.126259
-0.0733559
0.347767
0.0214998
0.0666439
-0.182216
-0.00543385
0.18765
-0.232978
-0.196818
-0.302979
0.0887118
-0.00161423
0.365486
-0.0592735
-0.00894052
-0.0754936
-0.0142729
0.0897665
-0.011683
-0.00493068
0.0166137
-0.327757
0.087683
0.117627
-0.0260224
-0.0916048
0.183911
-0.16323
-0.00589454
0.000968034
-0.00375305
0.000941211
0.00972234
-0.00331042
-0.121309
0.121653
-0.00472113
-0.0137633
0.464206
0.00532205
-0.0307298
-0.463997
0.480067
-0.0733585
-0.150888
0.172104
-0.156749
-0.0153546
-0.077491
-0.0429337
0.00884949
0.0465485
0.0296574
-0.076206
0.0919964
0.0162647
-0.108261
-0.0143808
0.0442534
-0.0298726
-0.287288
-0.275131
0.562457
-0.0586986
0.101293
-0.042594
0.105998
0.333697
-0.0855
0.155986
0.0294146
-0.0212675
-0.00814701
0.230314
0.116579
0.177641
-0.641635
0.218832
-0.267383
0.0485526
0.102006
-0.256276
0.154274
-0.002939
-0.00149794
0.47
-0.10285
-0.367124
0.513988
-0.18031
0.00846425
-0.0209805
0.131642
-0.110661
0.147774
-0.146841
-0.000933223
-0.0262321
7.61541e-05
-0.100678
-0.00759661
0.108275
0.0145088
0.000423826
-0.0149326
-0.00176668
-0.132544
0.113477
-0.165319
-0.0010164
0.000676534
-0.17523
0.00497161
0.055109
-0.0600806
0.00192669
0.0296879
0.205579
-0.0067703
-0.198808
-0.308663
-0.0578
0.366471
0.00209098
0.0199355
-0.0220265
-0.0377239
-0.247269
0.265312
-0.146039
0.0373425
0.108697
0.156045
-0.00537568
-0.346321
0.118557
0.227767
-0.0278915
0.192103
-0.143487
0.245496
0.155646
0.284864
0.312151
0.137358
0.00532986
-0.0257783
0.0506623
-0.370183
0.139122
-0.129844
-0.00927841
0.109844
0.20993
-0.319766
0.104359
-0.0973722
-0.00698696
-0.253647
0.580321
0.15664
0.00176971
-0.133672
-0.232179
0.169188
0.321379
-0.0819519
-0.239424
-0.298037
-0.0723996
0.03846
-0.0373277
-0.00113232
-0.0912923
-0.0296941
0.120986
-0.0225881
0.0508484
-0.0282603
0.264381
0.197465
-0.32483
0.267557
0.0572753
0.00797894
-0.271616
-0.0863001
0.0188143
0.116378
-0.135192
-0.126632
0.0353401
-0.235456
-0.110863
0.0274268
0.114223
-0.259606
0.36946
-0.0185506
0.0516631
-0.0331124
-0.290723
0.0434542
-7.36744e-05
0.192658
-0.000635557
-0.00101165
-0.0764242
0.101483
-0.0250585
-0.0937454
0.401525
-0.307771
-0.223583
0.192249
0.0313356
0.0019627
-0.0143039
0.355615
-0.342657
0.475674
-0.118961
-0.356698
-0.0110465
0.00369007
-0.00381033
0.00381678
0.0304446
-0.196298
-0.00928625
-0.0867284
0.0960147
0.545329
-0.280359
0.230861
-0.0113215
0.238657
-0.21131
-0.355515
-0.0866892
-0.0935359
0.0228833
0.0706526
0.307814
-0.287923
-0.0198837
0.0231388
0.0671418
-0.0902806
0.200269
0.401153
-0.448315
0.0928206
-0.297091
0.195335
0.00582352
-0.106501
0.0119939
0.00252395
-0.0145178
-0.221167
-0.0755052
0.000715342
-0.23678
0.236067
-0.349495
-0.138774
0.19777
-0.184794
0.483278
-0.146236
0.0203163
0.136974
-0.124441
-0.584912
0.258359
0.0157079
0.041525
0.115877
-0.0954878
0.0367892
0.0131261
-0.00403831
-0.0212522
-0.00882853
0.396714
-0.307115
-0.301822
0.0563221
-0.258436
0.338678
-0.080238
-0.00889777
-0.178243
0.140516
0.00126178
0.0120722
-0.013334
-0.0044464
-0.00923238
0.0136788
0.230553
-0.168896
0.00581081
0.0079857
-0.0149768
-0.143453
0.146094
-0.00264083
-0.0970499
0.0877637
-0.113946
0.0921109
-0.00181771
-0.0123849
0.110093
-0.00573334
0.034808
0.0552332
-0.0900412
0.00997397
-0.00427997
0.134915
0.00350496
-0.13842
0.171587
-0.000866408
-0.0252443
0.0764853
-0.400675
-0.0129465
0.215483
-0.142103
0.0382711
-0.0332995
-0.126832
0.144247
-0.0174151
0.3741
-0.283902
0.123279
-0.00103462
-0.0999111
0.118725
-0.00380771
0.00134317
-0.00107587
-0.000267301
0.215223
-0.00227081
-0.212951
-0.0527585
0.0383777
0.0286936
0.131202
-0.159895
-0.0179022
0.0871265
-0.0692243
-0.0519
-0.0520299
0.10393
0.122196
-0.0891487
-0.159964
0.182579
-0.369339
0.205817
0.0426573
0.307503
-0.431868
0.124373
-0.0453566
0.207051
-0.507105
-0.0268309
0.18496
-0.370782
0.112836
0.257952
0.0051741
0.109962
-0.115136
-0.0159267
0.107632
0.0117077
0.00532644
-0.0170341
0.0784811
0.0302147
-0.108696
-0.0327426
-0.0595113
-0.0406969
-0.00970374
0.0727732
0.261889
-0.364796
0.102915
0.00620034
0.00792916
-0.0415094
0.0335802
0.325481
-0.393727
0.0682574
0.354421
-0.152223
-0.0106951
0.162918
0.00245122
0.0126744
0.335288
-0.593841
0.258554
0.130152
-0.00705683
-0.123095
0.0742187
-0.00315397
-0.0710647
0.121136
-0.152511
0.0313752
0.373822
-0.268253
-0.105567
-0.288149
0.230655
0.057495
-0.181193
0.324091
-0.142891
-0.0809496
-0.0650896
-0.146905
0.102955
0.233198
0.00544066
-0.0253396
0.0339883
-0.0232498
-0.0107385
-0.119087
0.12405
-0.100366
0.0157249
-0.0187957
0.153711
0.100191
-0.0902941
-0.00989668
-0.213334
0.222433
-0.204915
0.153726
0.0113116
0.0421974
-0.053509
-0.0689289
0.0983379
-0.029409
0.00255595
-0.00474754
0.0338941
-0.0406192
-0.591668
-0.417067
0.311426
0.105648
-0.147165
0.311077
0.346723
-0.0711716
-0.275549
0.118034
0.159073
-0.0567241
-0.0768345
0.133559
0.371996
-0.0772626
-0.294726
-0.000331302
0.0999766
-0.0996452
-0.503768
0.444631
-0.167682
-0.300547
0.128691
-0.0164594
-0.00611527
0.106562
-0.0596052
0.0944132
-0.355573
0.0745109
0.0348433
-0.175254
-0.241807
0.0124076
0.0435247
-0.0559323
0.273454
0.228089
-0.184504
0.136463
0.458478
-0.184157
0.0199366
0.0765289
-0.0964654
-0.00127554
0.0658715
-0.102503
0.278257
-0.0742185
-0.0584398
0.359511
-0.144746
-0.214761
0.149384
0.00323193
-0.00319026
0.234978
0.102386
-0.337359
0.195348
-0.27526
-0.139147
0.118167
0.171532
0.01448
0.00608949
0.283162
0.116856
-0.177601
0.0607448
0.251319
-0.282416
0.12026
-0.502099
0.137233
-0.0166108
-0.096138
-0.168903
-0.216563
-0.238074
0.454665
-0.163281
-0.0485285
-0.0031809
-0.00411508
-0.202287
-0.0138832
0.216171
-0.0659
0.0872789
-0.031908
-0.00174155
-0.00309238
0.0150862
-0.222223
0.0199372
-0.450412
0.233879