/*--------------------------------*- C++ -*----------------------------------*\
| =========                 |                                                 |
| \\      /  F ield         | OpenFOAM: The Open Source CFD Toolbox           |
|  \\    /   O peration     | Version:  v2012                                 |
|   \\  /    A nd           | Website:  www.openfoam.com                      |
|    \\/     M anipulation  |                                                 |
\*---------------------------------------------------------------------------*/
FoamFile
{
    version     2.0;
    format      ascii;
    class       volScalarField;
    location    "150";
    object      k_0;
}
// * * * * * * * * * * * * * * * * * * * * * * * * * * * * * * * * * * * * * //

dimensions      [0 2 -2 0 0 0 0];


internalField   nonuniform List<scalar> 
13917
(
0.000165194
0.000149194
0.0592354
0.000154007
0.000148663
0.000191914
0.0584899
0.0602593
0.074994
0.000172805
0.00020121
0.00018366
0.000154181
0.0167901
0.000155078
0.000154042
0.000149597
0.000175455
0.000183286
0.000148662
0.00014976
0.0581583
0.000148547
0.0569318
0.000148128
0.0545306
0.000161395
0.000164047
0.000206268
0.000184037
0.000166891
0.000157648
0.000159892
0.000154368
0.000148297
1.96588e-05
0.000148605
0.0461257
0.000157417
0.0192575
0.000147471
0.000149897
0.000145098
0.00016788
0.00014896
0.000155693
0.000175207
0.000182548
0.00038595
0.000147983
0.000158399
0.000149746
0.000452174
0.000154674
0.000149649
0.000157743
0.000200994
0.000148527
0.000155078
0.00014876
0.0823964
0.000149203
0.00826399
0.000148583
0.000190686
0.0247436
0.000148632
0.000148486
0.000204732
0.000162736
0.000148708
0.0724584
0.0453304
0.000148144
0.000396167
0.000187667
0.0322506
0.00015116
0.0504179
0.000149542
0.00014931
0.000148675
0.000188476
0.0503706
0.0453345
0.000150933
0.000149137
0.00850794
0.000158043
0.000145064
0.0494438
0.000179065
0.000147774
0.000151174
0.0150592
0.000187746
0.000195032
0.000180469
0.000198649
0.00016988
0.000146654
0.000158441
0.000167753
0.000152318
0.000146721
0.0741521
0.000192504
0.000183464
0.000149616
0.000167723
0.049624
0.0210332
0.000188649
0.0750905
0.000151069
0.000413898
0.000147998
0.000259526
0.0264325
0.00015465
0.000149812
0.000203642
0.0297017
0.000163411
0.000147786
0.000150866
0.00014873
0.000147851
0.000145169
0.000190172
0.0431572
0.000150902
0.000149045
0.000149814
0.00395683
0.0558149
0.00016533
0.000170472
0.000148587
0.000154493
0.000131797
0.000146842
0.000150305
0.000169938
0.000148502
0.0583926
0.000210049
0.000149597
0.000146532
0.000158105
0.000178447
0.000420631
0.000188297
0.00016337
0.000157341
0.0229928
0.000161914
0.00129109
0.0265649
0.00444351
0.000152936
0.000161644
0.000149543
0.000194057
0.000188193
0.000198211
0.000152236
0.00017943
0.000148111
0.000158886
0.000164003
0.0264757
0.000190877
0.000150408
0.040691
0.000164502
0.0456969
0.00030102
0.0520567
0.000147919
0.000180288
0.000167798
0.000146808
0.000149075
0.000157775
0.0543423
0.000221655
0.0289232
0.000166328
0.000196143
0.000131201
0.050014
0.000209837
0.000148622
0.00017143
0.000161062
0.000153832
0.000147845
0.000180936
0.00113188
0.000158053
0.000148088
0.000177838
0.000178213
0.0398267
0.000729201
0.000148296
0.000148626
0.000180047
0.0563157
0.000150076
0.0591321
0.0294744
0.00019619
0.000146748
0.000198167
0.000177233
0.0308013
0.000147763
0.0778928
0.000147855
0.000183292
0.000147268
0.0494229
0.0757912
0.000154383
0.000402044
0.00015772
0.000146768
1.4005e-05
0.000190445
0.000166115
0.0548711
0.0242895
0.000146329
0.000158164
0.054243
0.0344919
0.000149485
0.000147537
0.0211665
0.000198295
0.000149758
0.000175977
0.000187848
0.000161165
0.000164451
0.000149485
0.000163792
0.0269237
0.000148821
0.000184399
0.000173089
0.000148622
0.000148461
0.000183728
0.0274875
0.000187012
0.00015796
0.000155312
0.00014979
0.0241842
0.0738907
8.08283e-05
0.000146809
0.0430769
0.025182
0.00661919
0.0497292
0.000188915
0.000149388
0.000147429
0.000175529
0.0431862
0.00019445
0.000154674
0.00103019
0.000173745
0.000145105
0.053049
0.000148493
0.0443008
0.000157411
0.000149722
0.000156338
0.000163315
0.000161628
0.000162631
0.000159683
0.000149167
0.000214164
0.0538426
0.0800544
0.000147763
0.00992737
0.000149081
0.000149167
0.000148047
0.000227106
0.000148567
0.000185134
0.000163784
0.00014801
0.000178069
0.000151537
0.000343888
0.000164184
0.000177766
0.000147473
0.000148383
0.0463422
0.0280848
0.000147962
0.000147357
0.0492271
0.000147832
0.0487964
0.000147368
0.052417
0.000150828
0.000216776
0.000165171
0.000433319
0.00015254
0.00154886
0.000183911
0.000156365
0.000198065
0.000199098
0.00014951
0.0434124
0.000171205
0.0288555
0.000153603
0.0202683
0.000158909
0.0593394
0.000180425
0.000172689
0.000172137
0.0605783
0.000149397
0.00016453
0.0547282
0.000149183
0.000152049
0.0263068
0.00018395
0.000150237
0.000211115
0.000202379
0.00014691
0.0228112
9.67901e-05
0.000148449
0.000147244
0.000149135
0.000146498
0.000224654
0.0472874
0.0002094
0.0518095
0.000148087
0.000186809
0.00777273
0.000171841
0.0587681
0.048091
0.0766019
0.000146325
0.000123645
0.000147115
0.0693094
0.000148735
0.000450201
0.000187772
0.000155919
0.000149265
0.000178958
0.000182137
0.000182158
0.000633884
0.0543272
0.0240579
0.000164242
0.000171863
0.000147586
0.0378478
0.0566494
0.000148669
0.00014102
0.000148265
0.000239747
0.000150804
0.000149469
0.000151564
0.0439748
0.000151491
0.0306377
0.0105183
0.000198497
0.000194006
0.00014946
0.000194304
0.000190968
0.000148169
0.000185577
0.000149097
0.000148216
0.000183873
0.00014972
0.000148175
0.000147084
0.000237871
0.000149622
0.0234054
0.0447894
0.004936
0.000209801
0.037152
0.0313345
0.000171457
0.000148109
0.000202185
0.000157038
0.000159332
0.000148575
0.0548351
0.0572514
0.0423534
0.000153931
0.000191023
0.000153231
0.000158105
0.000182144
0.000151083
0.000117659
0.000149578
0.000148539
0.0539059
0.0440844
0.0462142
0.000182705
0.00332195
0.0476002
0.0587881
0.0311182
0.000145362
0.000177768
0.00015117
0.000148773
0.000328604
0.000175767
0.000148579
0.000177165
0.000169955
0.0295697
0.000148141
0.000194379
0.0149571
0.000239566
0.0283549
0.000149676
0.000148714
0.000153714
0.000161932
0.00014634
0.0515661
0.000199619
0.000159659
0.0365374
0.000157696
0.000194483
0.0639812
0.000211438
0.000197795
0.000113376
0.000194323
0.00017591
0.000201542
0.000172916
0.000201163
0.000207063
0.000176457
0.000186023
0.000147933
0.00158919
0.000159227
0.000146395
0.000161138
0.000151488
0.0318875
0.0742209
0.000147759
0.000145339
0.0526567
0.0258908
0.000149721
0.0230984
0.000151913
0.00019984
0.000147871
0.0377581
0.000213863
0.000158094
0.000149675
0.0403411
0.00020583
0.011916
0.000149776
0.0303619
0.000344605
0.0525543
0.000146489
0.0411003
0.0857515
0.000172016
0.000147199
0.000149581
0.000187979
0.000227212
0.000147915
0.000147258
0.000147565
0.000147527
0.0377709
0.000411976
0.000171642
0.000222067
0.000147869
0.000146694
0.000190651
0.0777335
0.000163636
0.000148215
0.000148173
0.000148447
0.058768
0.0551074
0.000149095
0.000148443
0.00012181
0.000172525
0.00016517
0.000148645
0.000151675
0.000156505
0.000185492
0.00019305
0.000222682
0.000203087
0.000189637
0.000557646
0.000177596
0.000147819
0.031384
0.00014846
0.000152453
0.000155018
0.0016364
0.000169509
0.000146772
0.000243819
0.000187016
0.00758168
0.000189765
0.000159948
0.000171277
0.000149199
0.0820621
0.00022121
0.0608326
0.000149315
0.000160624
0.000222253
0.0503184
0.0104946
0.000181428
0.000185584
0.00015389
0.000153471
0.000148674
0.000164832
0.00016856
0.000149191
0.000177049
0.000172206
0.0617745
0.0141045
0.000153034
0.000193774
0.000180686
0.000157318
0.000149867
0.000442112
0.0651663
0.0612277
0.000217302
0.000145278
0.0256057
0.000187387
0.000147181
0.000161552
0.000184693
0.000159353
0.000183987
0.0512045
0.000201028
0.00016969
0.081839
0.000152107
0.0264579
0.000149549
0.000149048
0.0114595
0.0671737
0.000204945
0.000152111
0.000150247
0.000148453
0.000174218
0.000438621
0.000197156
0.000153815
0.000196368
0.000178579
0.000147913
0.000356665
0.000196559
9.9059e-05
0.000147694
0.000200376
0.00015139
0.0140013
0.000173421
0.00016935
0.000160865
0.000147037
0.000146319
0.000148871
0.000173552
0.000155947
0.000229776
0.000523238
0.00017904
0.000146968
0.000199812
0.000205692
0.000167917
0.000148691
0.000155555
0.000147309
0.000161806
0.000155332
0.0852943
0.000149483
0.000517559
0.000161416
0.000201015
0.000178693
0.0450225
0.000170177
0.000149446
0.0407842
0.0117668
0.000148613
0.00015492
0.00103252
0.000204123
0.000194478
0.000149544
0.00014978
0.000203955
0.000156153
0.000181824
0.000182692
0.000146372
0.000178325
0.0589691
0.000148654
0.000152535
0.000147705
0.0262766
0.000149751
0.000153555
0.0286002
0.000151788
0.0618754
0.000157336
0.000160112
0.000147654
0.000165825
0.000148103
0.000174933
0.000147072
0.000172748
0.0001519
0.0175719
0.000318115
0.0778944
0.000152374
0.000149317
0.000176642
0.000169571
0.0312579
0.0788271
0.00017507
0.000148275
0.000236147
0.000204526
0.000104868
0.000218119
0.000174984
0.0485142
0.00016451
0.000172441
0.000197084
0.000177818
0.00017473
0.000234507
0.000174131
0.000153768
0.000185857
0.000156498
0.000147351
0.00016155
0.000167946
0.000157487
0.000148164
0.000147458
0.000178869
0.000152954
0.000181931
0.000148272
0.000148364
0.000149807
0.000151476
0.000144928
0.000155441
0.000147846
0.0365325
0.000183486
0.000187193
0.000146484
0.000149619
0.000163165
0.000176263
0.000150583
0.068475
0.000174221
0.050643
0.000161552
0.000194031
0.000150526
0.000149776
0.000147406
0.000151539
0.0196716
0.000149675
0.00406344
0.000155842
0.00944234
0.00016459
0.000174843
0.0002005
0.000145857
0.000149935
0.000183826
0.00014847
0.000149902
0.0503004
0.000150585
0.000149135
0.000158537
0.000147484
0.000145832
0.00015765
0.000156152
0.0256284
0.000162987
0.000148652
0.000147208
0.0547493
0.000173529
0.000149252
0.000149305
0.0570426
0.000438189
0.0239462
0.000159975
0.000153779
0.000146407
0.000145673
0.000176896
0.000163661
0.000241604
0.00015389
0.0401686
0.000149566
0.000152163
0.0199492
0.000148316
0.00015946
0.000148341
0.000148423
0.00016709
0.000161828
0.000150418
0.0636531
0.0253951
0.000179286
0.000147805
0.000145453
0.000195869
0.00426116
0.000149717
0.000328551
0.000145409
0.00016693
0.000147686
0.000147668
0.000213993
0.000148741
0.0114522
0.000166825
0.000149805
0.000145327
0.000148734
0.000147548
0.000152312
0.0004288
0.000148375
0.000147235
0.0718207
0.0651809
0.000170634
0.000168879
0.00018132
0.000155815
0.000146967
0.000156205
0.0374899
0.0001735
0.000148805
0.000149507
0.0785871
0.000166843
0.0584273
0.000149755
0.000150764
0.0237886
0.000165067
0.000150683
0.0173155
0.000287584
0.000147508
0.000194398
0.000147389
0.000148582
0.00014641
0.0472126
0.000144854
0.000148943
0.000146938
0.017345
0.000156187
0.000199763
0.000165607
0.000147731
0.000158616
0.000149093
0.0533238
0.000147651
0.000148492
0.000149143
0.000196576
0.000149087
0.000201126
0.0203193
0.0521972
0.000155192
0.00012426
0.0336871
0.000148359
0.0214797
0.082374
0.0379101
0.0374228
0.0714624
0.00809526
0.000197759
0.000149658
0.0505003
0.000164903
0.0564199
0.000146353
0.000147765
0.000149301
0.000149045
0.000157111
0.000158033
0.0322969
0.000147679
0.000148461
0.0109865
0.000186801
0.000148735
0.000160323
0.000160296
0.000149591
0.000308194
0.000160599
0.000152355
0.000156037
0.0207173
0.0247319
0.000252392
0.000147526
0.00020627
0.000187073
0.0343711
0.0778418
0.000190685
0.000147867
0.000150702
0.000149568
0.000144568
0.000151657
0.000145281
0.000156608
0.000164021
0.040847
0.000197697
0.000148983
0.00019359
0.0604875
0.000166121
0.000149595
0.0283476
0.000147887
0.000149681
0.000160376
0.0415577
0.000149089
0.000147717
0.0598033
0.000215085
1.84909e-05
0.000191836
0.000117313
0.000147558
0.000203418
0.000149704
0.000147898
0.000149711
0.0531173
0.0295484
0.000147288
0.00014532
0.000148469
0.000874402
0.000151247
0.000160934
0.000148447
0.000149935
0.00020223
0.00014786
0.000175579
0.000196343
0.0466222
0.000148485
0.000171819
0.000153231
0.042474
0.058002
0.000148165
0.0453409
0.000182573
0.000265363
0.00014908
0.04401
0.000149601
0.000157469
0.000166076
0.000191808
0.0547823
6.72678e-05
0.000205514
0.0692425
0.000146917
0.000232795
0.000147654
0.000156471
0.0604321
0.000148826
0.000149657
0.000150897
0.000149409
0.0392913
0.00014576
0.000148484
0.00017863
0.00016975
0.00017556
0.000202094
0.000199111
0.0188394
0.000184607
0.000166206
0.000171854
0.0376282
0.000171184
0.0606268
0.0540375
0.000156823
0.000147943
0.0355677
0.000100586
0.000149605
0.000191234
0.000164091
0.000150429
0.000157642
0.000149585
0.000166307
0.000149943
0.000174566
0.000170599
0.000147152
0.000176603
0.00014767
0.000166502
0.000147046
0.000154798
0.000178179
0.000153275
0.00014938
0.000147343
0.000286927
0.000176306
0.0560922
0.000148174
0.000149011
0.000179413
0.000148336
0.000184872
0.000176252
0.000150429
0.000188142
0.000147523
0.0723739
0.000149495
0.000169374
0.0292792
0.000231551
0.000147611
0.000152238
0.017311
0.000147913
0.000147383
0.0384516
0.0523946
0.000152914
0.000204711
0.000148595
0.000149382
0.0530871
0.000151332
0.000145927
0.000246419
0.000147784
0.000131773
0.000149266
0.000145927
0.000149284
0.000199288
0.034942
0.000148967
0.000149517
0.000147554
0.000154835
0.000148386
0.000225342
0.000176286
0.000149773
0.0502329
0.000164737
0.000232681
0.0498767
0.000432018
0.000147111
0.000149441
0.000148641
0.000206918
0.000155283
0.0348747
0.0324064
0.00015248
0.0598811
0.000317781
0.000174968
0.000201741
0.000168961
0.00018912
0.0540442
0.000167099
0.0003133
0.0530864
0.000182791
0.000154162
0.0385668
0.000164056
0.000146476
0.000152674
0.0737617
0.000162659
0.000147698
0.000166113
0.000186773
0.000164363
0.0377891
0.00015248
0.0613854
0.000171676
0.000122968
0.000194024
0.000207924
0.000159701
0.000147399
0.000150325
0.0563078
0.000147898
0.000152719
0.00014713
0.000151703
0.000147767
0.000160235
0.000200706
0.000299363
0.000162522
0.00016507
0.0409514
0.000191121
0.000147776
0.000730425
0.0494711
0.000146359
0.000147328
0.000161456
0.023033
0.000149667
0.000180618
0.000209078
0.000166604
0.000148638
0.000152753
0.000147943
0.000191158
0.00016286
0.000147785
0.0205049
0.0493231
0.000163375
0.000355792
0.000183256
0.00204157
0.000151684
0.000156237
0.0435084
0.000815471
0.000190853
0.000264309
0.000158147
0.00014983
0.000148686
0.000149166
0.000148365
0.000150412
0.000166555
0.000147657
0.000195972
0.000147476
0.000159117
0.000147411
0.000175013
0.000195865
0.000264777
0.000148265
0.000207391
0.000148673
0.0417042
0.000148242
0.00015433
0.000148765
0.000227409
0.0410436
0.000199876
0.00014765
0.000197729
0.000148566
0.000159379
0.0503379
0.000148406
0.000149747
0.00016895
0.000161559
0.0593373
0.000147675
0.000157988
0.000152905
0.000148219
0.00015845
0.000150076
0.000146164
0.000152144
0.0297605
0.000153826
0.000197093
0.0587656
0.000174633
0.0370159
0.000153442
0.000146207
0.000158632
0.025272
0.000153321
0.000161932
0.000171986
0.000533525
0.00014744
0.00337202
0.000177257
0.000181155
0.000146287
0.000145415
0.000205163
0.000149912
0.000149898
0.000159015
0.000146361
0.000153105
0.000158601
0.000184196
0.000181411
0.0569908
0.000156987
0.000184839
0.00646254
0.0159802
0.000169431
0.000181323
0.0219501
0.000168692
0.0703948
0.00015218
0.00841122
0.00329752
0.000146464
0.000149723
0.000147583
0.00015126
0.000168428
0.000147507
0.000152514
0.000190938
0.000152328
0.000160148
0.0456382
0.000157494
0.000154417
0.0751341
0.000150662
0.0232931
0.00015522
0.000164952
0.000147373
0.0296016
0.0296585
0.000148574
0.000151575
0.0440923
0.000157132
0.0150828
0.000148009
0.00014781
0.0613408
0.000151424
0.000162305
0.00881399
0.000148438
0.00017505
0.00015899
0.000145406
0.00014723
0.0487095
0.031539
0.000149286
0.000153152
0.000148648
0.000156127
0.000159961
0.0297538
0.00015051
0.000329733
0.00900762
0.000109453
0.00131241
0.000151239
0.000197613
0.000178228
0.00015688
0.000148387
0.000180813
0.0468855
0.000151793
0.000162688
0.0585276
0.000456733
0.000183871
0.000153929
0.000149492
0.000149607
0.00014846
0.025121
0.000177527
0.000154025
0.000151882
0.000154175
0.000149784
0.000148219
0.000148444
0.000184493
0.000170538
0.0469923
0.00016326
0.00838543
0.0326173
0.000158389
0.00017539
0.000146608
0.000157346
0.0252282
0.000149022
0.000152227
0.000176197
0.000194575
0.00016438
0.0420104
0.000204011
0.000147885
0.0429057
0.000145175
0.000149725
0.000163641
0.000149807
0.00014882
0.000204809
0.0617509
0.0001478
0.0459813
0.000148937
0.000147034
0.000152065
0.000355075
0.000158767
0.000155215
0.0764882
0.000151142
0.000238183
0.041802
0.000149607
0.000163507
0.000147929
0.0196417
0.000181115
0.000148489
0.0506282
0.000176515
0.000167711
0.000149846
0.0279687
0.000157116
0.000188888
0.000152329
0.00016732
0.0299627
0.000147179
0.000248203
0.000148903
0.000176775
0.00016381
0.000149601
0.0311221
0.000152183
0.00019416
0.000176074
0.000169324
0.000162601
0.000162895
0.000150362
0.0582795
0.000158889
0.0198245
0.000157666
0.000182212
0.000148346
0.00016786
0.000148558
0.000185806
0.0542782
0.000150706
0.00014714
0.000439174
0.000151447
0.0108048
0.000150297
0.0490053
0.000102532
0.000162919
0.000147868
0.00014753
0.000148679
0.000145323
0.000189025
0.000165567
0.000160689
0.000155416
0.000148446
0.00141024
0.000153343
0.00016219
0.00283904
0.000148457
0.0170804
0.000175958
0.000163008
0.000248533
0.0424069
0.000202978
0.0488746
0.0244384
0.000147413
0.000197162
0.0318721
0.000187186
0.000149087
0.000149368
0.000194323
0.050453
0.023429
0.00023588
0.000150505
0.000164282
0.000169211
0.04049
0.00274968
0.000171828
0.000197039
0.00015273
0.00017576
0.000191016
0.00014903
0.000187362
0.0621589
0.000148805
0.00289927
0.000149662
0.000148564
0.0349458
0.0517337
0.00014685
0.000150769
0.000150133
0.000147754
0.000165941
0.000205966
0.000152674
0.000147818
0.000148565
0.000171486
0.000157963
0.000157568
0.000208988
0.000148319
0.0559606
0.0163163
0.0632744
0.00017535
0.000173139
0.000155761
0.000164541
0.0493291
0.000405652
0.0117567
0.000149918
0.0868532
0.0351467
0.0001463
0.000148181
0.000184108
0.0567645
0.0658437
0.000147817
0.000148593
0.0445404
0.00145577
0.00849819
0.000153078
0.000152532
0.000293808
0.000149264
0.0502914
0.0298092
0.000272286
0.000867452
0.000148678
0.000147597
0.000147077
0.000154872
0.0361574
0.000170783
0.000157
0.000150422
0.000172601
0.0245697
0.000171546
0.0470159
0.0142327
0.0255847
0.000314199
0.00014834
0.000149079
0.0479441
0.000145636
0.000146407
0.00015131
0.000372872
0.000167473
0.0376586
0.000193393
0.000148146
0.0785307
0.000166718
0.000147768
0.0162513
0.000175676
0.000153892
0.000149536
0.00508338
0.0621296
0.000149136
0.0668696
0.0108011
0.0596263
0.000569584
0.000175596
0.000147884
0.000150551
0.000327998
0.000155875
0.0472124
0.000167699
0.00116275
0.000239211
0.000150964
0.000157162
0.000147954
0.000150587
0.056784
0.019983
0.000148465
0.0214533
0.000172355
0.000148627
0.000153611
0.000147511
0.000202916
0.000150071
0.000311742
0.000164468
0.000147837
0.000146996
0.000169525
0.0235275
0.000168275
0.000152904
0.000168165
0.000148516
0.000151975
0.000159191
0.019673
0.0306688
0.0595642
0.000146023
0.000146941
0.000149773
0.00019752
0.000147157
0.000149888
0.000205097
0.000179267
4.08878e-05
0.000146307
0.0631818
0.030745
0.000149885
0.0185176
0.000194331
0.000169035
0.000318118
0.000149602
0.036186
0.000157351
0.00015127
0.000152525
0.0001456
0.000189571
0.000153692
0.000151963
0.00015774
0.0311766
0.0368297
0.000149611
0.000148022
0.000152436
0.000148474
0.000195576
0.000149953
0.00018332
0.000153318
0.0449816
0.000151514
0.0605073
0.000146064
0.0808326
0.000150049
0.0001455
0.0610172
0.000184135
0.00017137
0.000178574
0.00016228
0.000169987
0.000148436
0.037415
0.000148447
0.000147192
0.000168498
0.000183598
0.0450248
0.04064
0.000193896
0.0672202
0.0001925
0.000211063
0.000148467
0.000155349
0.000159846
0.0571975
0.000153604
0.056954
0.0307423
0.000149936
0.000148746
0.000148499
0.000360859
0.000422939
0.000152863
0.000148669
0.000154804
0.000158081
0.000167999
0.000239934
0.00019269
0.000148314
0.000205096
0.000181458
0.0234305
0.00018172
0.000151723
0.000153244
0.0770987
0.000147053
0.000184447
0.0571198
0.000150677
0.000154968
0.00020588
0.000172916
0.000150719
0.0241372
0.000154152
0.00023331
0.000172247
0.000158056
0.000151594
0.0592694
0.000146951
0.000171049
0.000260401
0.0603517
0.000172979
0.000175462
0.00015721
0.000163514
0.00014975
0.0618118
0.000158413
0.000148831
0.000161037
0.000148514
0.000149776
0.000382045
0.00014843
0.000149117
0.000148655
0.0001975
0.000149481
0.00016143
0.000184424
0.000200605
0.000190175
0.000149661
0.000182943
0.000192944
0.000203549
0.000180911
0.000155876
0.000202156
0.050427
0.000237783
0.000149887
0.0431095
0.0489887
0.000149882
0.000153704
0.000145492
0.00021393
0.000184431
0.000149271
0.000250283
0.0559151
0.000146623
0.000149361
0.043221
0.033188
0.000184037
0.000145672
0.038708
0.0368172
0.000479492
0.000148127
0.0587136
0.000189144
0.000167221
0.0510245
0.00015703
0.000145585
0.000160842
0.000198593
0.000163399
0.0482714
0.0655245
0.000147112
0.05874
0.000196922
0.0369785
0.000146057
0.000163485
0.000149624
0.000147894
0.061057
0.00185338
0.000230718
0.00272364
0.000157617
0.000173616
0.000151307
0.0645603
0.0227092
0.000148446
0.00014946
0.000158239
0.000148128
0.000175664
0.0637469
0.0742513
0.00017412
0.000150294
0.000149774
0.0611102
0.000153886
0.000175923
0.000146935
0.000151184
0.000241449
0.00287034
0.000161665
0.000358735
0.000149067
0.000237242
0.000152354
0.000163632
0.0813353
0.0200666
0.000148455
0.000149956
0.000168148
0.000154476
0.000149272
0.0650978
0.0573238
0.000147221
0.000144846
0.000149209
0.000147672
0.000327856
0.00014713
0.0449832
0.000189381
0.000183726
0.000147676
0.000166688
0.0683117
0.000164982
0.000193539
0.0471352
0.000149474
0.0279227
0.000158814
0.000159635
0.000188884
0.0285453
0.0364585
0.000181895
0.000147483
0.00018885
0.000147208
0.000154011
0.000149315
0.043105
0.000158834
0.000156888
8.70062e-05
0.000173268
0.000148765
0.000209263
0.000158432
0.000149785
0.000181208
0.000145133
0.000170819
0.000164493
0.000149194
0.0749758
0.000151892
0.000200384
0.000150846
0.000147511
0.0543533
0.0482206
0.000152792
0.000158532
0.000170693
0.000171305
0.000180315
0.000158197
0.000154927
0.000155886
0.000224075
0.000153944
0.0436597
0.000166316
0.000126684
0.000196825
0.000151295
0.0668077
0.000145172
0.0576961
0.000152874
0.0559058
0.00331142
0.0228906
0.0331515
0.000239015
0.000168136
0.000149127
0.0623191
0.000169451
0.000148478
0.0225933
0.0562289
0.000151623
0.000154019
0.000160534
0.000160578
0.000164332
0.0361392
0.000149882
0.000163143
0.00016737
0.00015923
0.000149025
0.000188296
0.00014549
0.0458688
0.000152292
0.000192831
0.000162077
0.000168872
0.000182684
0.00160236
0.000181759
0.000147171
0.000186757
0.0602626
0.0647605
0.000150575
0.0428858
0.0001602
0.000293476
0.00014845
0.000153384
0.0535881
0.000178541
0.0277116
0.027197
0.000158953
0.0749217
0.000148315
0.000145449
0.0236432
0.000164722
0.000153317
0.0723116
0.000156957
0.00016318
0.000157598
0.000176594
0.00014919
0.0419067
0.0540363
0.0091535
0.000232743
0.000155838
0.000171376
0.02965
0.000152859
0.000149662
0.000175961
0.000146001
0.000183246
0.0481734
0.0216485
0.0280336
0.000178784
0.000150804
0.060863
0.00014519
0.000184768
0.000149533
0.0361524
0.000152647
0.000164142
0.0394961
0.000192682
0.00014806
0.000159203
0.0104079
0.00014879
0.000200454
0.000147085
0.0600291
0.0569906
0.000194194
0.000167394
0.000147547
0.000200307
0.000198297
0.000168551
0.000147097
0.000151019
0.000148892
0.000178458
0.00014876
0.000188525
0.000149038
0.000147368
0.08617
0.000147778
0.00015691
0.000156415
0.000149819
0.0453924
0.000147674
0.000161167
0.0572477
0.000177131
0.0405262
0.000148678
0.0614237
0.000178241
0.0724193
0.000152264
0.00019663
0.000149956
0.000170188
0.000195885
0.000194191
0.000214929
0.0555693
0.000208553
0.000395898
0.00015551
0.00019368
0.000162831
0.000237127
0.000153813
0.000149738
0.000148432
0.000177209
0.000164637
0.000559014
0.000176673
0.0529302
0.0516798
0.000170082
0.000148474
0.00437868
0.00017797
0.000150077
0.000152774
0.00014874
0.0409823
0.000148435
0.0172718
0.000147674
0.000158943
0.0390018
0.000170237
0.000148308
0.000148378
0.0262419
0.000147703
0.000152833
0.000155889
0.000160424
0.000158001
0.000149196
0.000202179
0.000167791
0.000162483
0.000220983
0.0453256
0.0435262
0.0323346
0.000146156
0.000148165
0.000171493
0.000150806
0.00016304
0.0423946
0.0431641
0.000145631
0.000148408
0.0416473
0.000121354
0.000145798
0.000147234
0.000155195
0.0560898
0.0514346
0.000156781
0.000162156
0.00014928
0.000237859
0.00019646
0.000173625
0.000158187
0.000163346
0.000149938
0.000166294
0.00023803
0.00015074
0.000149305
0.000156367
0.0586062
0.00015416
0.0230249
0.000148649
0.0514122
0.000161851
0.000156136
0.000146409
0.000147447
0.000242978
0.0558954
0.000164628
0.0248043
0.0557557
0.000150225
0.0535428
0.000200962
0.000148173
0.0126259
0.000162882
0.000194176
0.000149662
0.0406232
0.0378672
0.000148807
0.000162484
0.0300662
0.000166063
0.000148701
0.000147267
0.00015005
0.000154077
0.000181914
0.000231756
0.000167419
0.000179488
0.000146352
0.000149283
0.047901
0.000147498
0.000167819
0.000155148
0.000149975
0.000173631
0.000148133
0.000152383
0.000237657
0.000147894
0.0450051
0.00014813
0.00402936
0.0499244
0.000187195
0.000149437
0.000149947
0.0603476
0.000145512
0.000153451
0.000149744
0.000202158
0.000133502
0.000164243
0.049046
0.000162469
8.11596e-05
0.000150257
0.000183379
0.000147873
0.000148869
0.0210418
0.0472572
0.000439521
0.000152738
0.000182807
0.000183112
0.0385853
0.0580276
0.000237319
0.000166488
0.000145139
0.0522079
0.000148254
0.000148486
0.000234381
0.000194231
0.000156677
0.000177604
0.000163694
0.000159384
0.000157963
0.0770693
0.00015432
0.000147852
0.0206191
0.000163921
0.000146239
0.0354566
0.000148102
0.000148685
0.000202901
0.000185461
0.038644
0.000146364
0.000153644
0.000147573
0.000307707
0.000147612
0.000197762
0.00419919
0.0469039
0.0328199
0.0145072
0.000157479
0.0447719
0.000221373
0.00014935
0.000158234
0.000162492
0.000157665
0.000246255
0.0456994
0.0527746
0.0467241
0.000350098
0.000149146
0.00019256
0.000148144
0.0209176
0.00015981
0.000152828
0.00015369
0.000150879
0.000147629
0.000192253
0.0545122
0.00014604
0.000152796
0.000146931
0.0409293
0.000152588
0.0810404
0.0399848
0.000405461
0.000148586
0.000147698
0.0371578
0.000190248
0.000148864
0.00018986
0.000149483
0.000187016
0.000177136
0.000188408
0.000176655
0.0324404
0.000146942
0.000147963
0.000227101
0.0359561
0.000159394
0.000166156
0.000147919
0.0162208
0.000148113
0.000147596
0.000151808
0.000148244
0.00670706
0.0444311
0.000123044
0.000182439
0.0605216
0.000182858
0.000145617
0.000163203
0.000145996
0.000252142
0.000148946
0.000153703
0.000148132
0.000147404
0.000147533
0.000385239
0.000152077
0.000274911
0.00014601
0.000158539
0.000157289
0.00026568
0.000148257
0.000163147
0.000167438
0.000171625
0.079399
0.0001474
0.0326593
0.000175597
0.000164365
0.000149412
0.000147686
0.0374652
0.00978635
0.000149029
0.000148024
0.000236485
0.000235358
0.000160513
0.0567432
0.000150751
0.000133495
0.000163501
0.000145989
0.042287
0.00015278
0.0518522
0.000148396
0.000150779
0.000148743
0.0404412
0.0450195
0.000145765
0.000180287
0.000227028
0.00014828
0.000147907
0.000147578
0.000181752
0.0564902
0.000174506
0.000155384
0.000167164
0.000148146
0.000148614
0.000153008
0.000147929
0.000207367
0.000148692
0.000182497
0.000235476
0.00016436
0.000145253
0.0368493
0.000184342
0.000148207
0.000177408
0.000162337
8.68693e-05
0.000153218
0.0816953
0.000175014
0.000148415
0.000182504
0.000182914
0.000154753
0.0843852
0.000181279
0.000163249
4.88876e-05
0.000148095
0.000184344
0.00016868
0.000181248
0.000147532
0.000148214
0.000145476
0.00015892
0.000179276
0.000178553
0.0488729
0.0322406
0.0415738
0.00014976
0.000297651
0.0512797
0.0626279
0.000148176
0.000148602
0.000177189
0.0553127
0.000153003
0.000167109
0.0113195
0.0349334
0.00405967
0.000171237
0.000203739
0.0403803
0.000204512
0.000145525
0.00186154
0.000229849
0.000149806
0.000150336
0.000150868
0.0615262
0.000184618
0.0557139
0.000153094
0.00860319
0.000149087
0.000204575
0.034361
0.000149364
0.000165823
0.0504434
0.04766
0.000174091
0.000151323
0.000152369
0.000149867
0.000184211
0.000196091
0.000733483
0.0604976
0.000146626
0.0180276
0.000190694
6.65178e-05
0.000148065
0.000149026
0.00200846
0.000181772
0.000148099
0.000172306
0.000166938
0.000160811
0.044259
0.0604971
0.0670751
0.0587793
0.00015451
0.000146105
0.000166033
0.0281076
0.0626713
0.00014861
0.000182252
0.000168722
0.000192851
0.000151216
0.000149686
0.000236238
0.00277618
0.00837144
0.000271151
0.0254166
0.00014767
0.000181124
0.0576347
0.000149416
0.000165449
0.000190799
0.000145878
0.000204027
0.0686798
0.000179517
0.000149678
0.0205738
0.000194432
0.0447813
0.00014462
0.000153879
0.000149144
0.000153114
0.000149032
0.000170651
0.000162525
0.000162246
0.000185712
0.000165519
0.0437633
0.000154093
0.000162291
0.00015766
0.0221865
0.000164725
0.0337529
0.000157432
0.000156176
0.0111376
0.00016954
0.000148731
0.000162568
0.00470221
0.0602622
0.000241007
0.000148308
0.000147803
0.0001481
4.2937e-05
0.000151528
0.000333322
0.000257886
0.000181399
0.000160811
0.000216291
0.0290767
0.000149032
0.0634956
0.000159937
0.000163515
0.00014817
0.000148477
0.000174866
0.0620361
0.000148418
0.0300971
0.000213731
0.000169619
0.000198296
0.0001477
0.000148069
0.000161567
0.000152352
0.0570649
0.0246721
0.000169482
0.000243062
0.00014823
0.000148909
0.000149281
0.000149604
0.0838524
0.000152655
0.043034
0.0001686
0.000151316
0.000189715
0.000846335
0.0408442
0.0213204
0.00015329
0.000147773
0.000148807
0.000153915
0.000215045
0.000180067
0.0829032
0.000148967
0.000150789
0.000175753
0.000149709
0.000192963
0.000152232
0.000174544
0.000175804
0.000162487
0.000162617
0.000146361
0.000172202
0.000162105
0.000180164
0.000167767
0.000162883
0.000147012
0.000187114
0.000147637
0.000728618
0.0491534
0.000223874
0.000148751