/*--------------------------------*- C++ -*----------------------------------*\
| =========                 |                                                 |
| \\      /  F ield         | OpenFOAM: The Open Source CFD Toolbox           |
|  \\    /   O peration     | Version:  v2012                                 |
|   \\  /    A nd           | Website:  www.openfoam.com                      |
|    \\/     M anipulation  |                                                 |
\*---------------------------------------------------------------------------*/
FoamFile
{
    version     2.0;
    format      ascii;
    class       surfaceVectorField;
    location    "150";
    object      Uf_0;
}
// * * * * * * * * * * * * * * * * * * * * * * * * * * * * * * * * * * * * * //

dimensions      [0 1 -1 0 0 0 0];


internalField   nonuniform List<vector> 
20673
(
(1.09329 0.120515 -1.18385e-20)
(1.09739 0.117955 1.65728e-20)
(1.09266 0.115497 2.88198e-22)
(1.01995 0.0401323 -5.81034e-22)
(1.01878 0.0394689 -6.16585e-23)
(1.01898 0.0413779 7.23022e-22)
(0.57878 -0.0527495 -1.40839e-20)
(0.613381 -0.0546765 -1.24064e-20)
(0.638132 -0.0548429 -1.78286e-20)
(1.05347 -0.0119359 4.85172e-22)
(1.05365 -0.010888 -8.40223e-23)
(1.05256 -0.0112754 7.82433e-21)
(0.996409 0.00231605 1.54423e-22)
(0.996252 0.00189636 -6.614e-21)
(0.995926 0.00247091 2.2396e-21)
(0.372513 0.0512259 -2.41441e-20)
(0.360595 0.0240193 -1.05955e-19)
(0.34361 0.0521697 -6.41259e-20)
(0.521812 -0.0434066 5.80844e-21)
(0.517199 -0.0452049 9.31996e-21)
(0.565338 -0.0471968 1.93015e-20)
(0.642 -0.0558855 1.29906e-20)
(0.593643 -0.0540389 2.37686e-20)
(0.613288 -0.0570617 1.06162e-20)
(0.482848 -0.0803136 -1.09834e-20)
(0.448717 -0.0772271 -2.98665e-20)
(0.411968 -0.0721581 -1.13534e-20)
(1.13449 0.145465 1.17287e-20)
(1.14067 0.14533 -4.02427e-20)
(1.13829 0.151485 -5.03592e-21)
(1.11121 -0.0520593 -1.84572e-21)
(1.11049 -0.0524015 9.92499e-22)
(1.11149 -0.0528202 -1.08728e-20)
(1.09025 -0.0429404 2.62429e-21)
(1.09098 -0.0441964 0)
(1.09142 -0.0425036 -1.48006e-20)
(1.05432 -0.012225 1.71323e-21)
(0.0175153 -0.00277906 9.42162e-21)
(0.0427047 -0.00625972 0)
(0.0113369 -0.00355838 0)
(0.972594 0.0926415 -6.56885e-22)
(0.968445 0.0920373 1.64141e-20)
(0.97152 0.0883879 6.70575e-21)
(0.99424 0.0881333 2.80072e-22)
(0.992008 0.0856955 -2.2803e-21)
(0.995665 0.0844812 -6.03385e-21)
(1.01329 0.0457106 -1.20773e-21)
(1.0147 0.0454022 -3.03603e-22)
(1.0136 0.0441903 -9.1615e-22)
(1.13478 0.015042 -1.09206e-20)
(1.13597 0.0172434 -1.33134e-20)
(1.13756 0.0140597 -1.83007e-20)
(1.08916 -0.0437294 -1.51041e-20)
(1.08927 -0.0420567 2.64677e-21)
(1.00139 0.00458302 6.43711e-22)
(1.0014 0.00438042 -1.86839e-21)
(1.00123 0.00420618 -1.95006e-21)
(0.999976 0.000821975 -2.11683e-21)
(0.99996 0.00108979 -6.38679e-21)
(0.999979 0.000836612 -4.12126e-22)
(0.519958 -0.0441863 0)
(0.485167 -0.0442756 0)
(1.00067 0.00702863 0)
(1.00072 0.00746355 0)
(1.00084 0.00734367 0)
(0.681761 -0.060019 1.89165e-24)
(0.692724 -0.0610922 -1.45517e-20)
(0.994935 0.0137736 -7.22326e-21)
(0.994464 0.0135546 -1.84864e-20)
(0.994677 0.0142847 -1.06581e-20)
(0.565368 -0.0459763 -6.67262e-21)
(0.528016 -0.0431397 -2.27528e-21)
(0.525002 -0.0444038 -5.78375e-21)
(0.789125 0.0302964 1.96071e-20)
(0.780133 0.0358183 -7.52266e-21)
(0.781434 0.0239643 3.8887e-20)
(0.761205 0.1141 2.00008e-20)
(0.759671 0.126576 3.83523e-20)
(0.750787 0.11735 -1.21966e-20)
(0.716458 0.550049 0)
(0.747476 0.56026 0)
(0.725943 0.593743 0)
(1.19278 0.088227 0)
(1.19219 0.0832539 0)
(1.19745 0.0842206 0)
(1.11125 0.107105 4.56162e-22)
(1.10813 0.110204 -5.05194e-23)
(1.10699 0.10562 -8.90852e-23)
(1.06006 0.087067 5.1184e-21)
(1.05722 0.0877927 0)
(1.05808 0.0844712 0)
(0.84219 0.0654958 -5.84195e-21)
(0.834423 0.068156 3.73815e-20)
(0.835768 0.0587442 -1.60058e-20)
(0.90866 -0.0017023 4.77701e-20)
(0.911442 -0.00465373 -2.00195e-20)
(0.91265 -0.000760735 1.97476e-20)
(0.991377 0.0104357 3.79212e-21)
(0.990826 0.0110005 0)
(0.99152 0.0112983 0)
(1.12112 -0.0584098 -6.32097e-21)
(1.12206 -0.0579261 4.23928e-21)
(1.12362 -0.0590961 1.86258e-20)
(1.00055 0.00668455 1.42888e-21)
(1.00069 0.00660966 -2.59523e-22)
(0.169557 -0.028054 3.75378e-21)
(0.143448 -0.0249864 1.16732e-21)
(0.155766 -0.025397 1.13902e-20)
(1.05989 -0.0160421 -5.72679e-21)
(1.06076 -0.0168345 -5.30116e-21)
(0.279502 -0.00902419 5.7932e-21)
(0.253996 -0.005878 0)
(0.283474 -0.00858252 0)
(1.00791 0.00084763 0)
(1.00828 0.000832309 -4.44871e-23)
(1.00748 0.000476586 0)
(0.999993 0.000603956 0)
(1 0.00028718 0)
(0.999997 0.000314076 0)
(1.01964 0.00220732 -2.41665e-21)
(1.01936 0.00236595 1.22551e-21)
(1.01925 0.00207834 6.37909e-22)
(0.696793 0.18938 8.25082e-20)
(0.713168 0.197087 -4.33384e-20)
(0.696262 0.211072 -5.53215e-20)
(1.03648 0.0229023 4.38536e-21)
(1.03736 0.0235974 1.85572e-22)
(1.03762 0.022714 -5.06805e-21)
(0.891399 0.0139999 1.50195e-20)
(0.890039 0.00943522 1.25093e-20)
(0.895373 0.0106528 2.71725e-20)
(1.13375 0.0119795 5.99942e-20)
(1.13175 0.0151953 3.97935e-20)
(1.13476 -0.0165575 0)
(1.1338 -0.0143297 0)
(1.13226 -0.0164252 3.86339e-22)
(0.0904537 0.116794 0)
(0.0899465 0.152431 5.52322e-21)
(0.119601 0.131226 6.43718e-20)
(1.00304 0.000700523 -2.19833e-21)
(1.00332 0.000636418 -3.99549e-22)
(1.00327 0.000984269 2.07467e-23)
(1.08168 0.0132046 1.19379e-20)
(1.08269 0.0141388 1.50199e-20)
(1.08313 0.0126403 2.72855e-21)
(0.966337 0.00734246 0)
(0.965156 0.00598634 -1.77424e-20)
(0.964734 0.0080354 1.06391e-20)
(0.0841175 0.0869024 0)
(0.0508258 0.118965 7.3793e-22)
(0.905555 0.00135206 4.81671e-20)
(0.904481 -0.00309635 1.07695e-20)
(1.01301 0.0471988 -1.51216e-22)
(1.01176 0.0457611 -5.6184e-22)
(1.08222 0.0348558 5.13673e-21)
(1.08153 0.0368565 -1.22057e-20)
(1.08394 0.0364934 -5.35683e-21)
(1.11213 -0.0518476 2.56521e-20)
(1.11144 -0.0512008 -7.15198e-21)
(0.994511 0.028225 -1.73278e-21)
(0.99458 0.0268517 -6.51428e-21)
(0.995588 0.0278293 -5.19073e-21)
(1.06819 0.0413545 5.8994e-21)
(1.07022 0.0423236 5.55616e-21)
(1.06827 0.0436989 -1.22504e-21)
(1.03537 0.0230616 6.63225e-21)
(1.03555 0.0221824 4.47622e-21)
(0.621104 0.0610688 -4.86939e-20)
(0.471605 0.0439794 1.3389e-19)
(0.529732 0.0484789 -1.04978e-19)
(1.0212 0.0394774 -3.18028e-22)
(1.02124 0.0413569 1.77574e-22)
(0.0197193 -0.000709204 2.35655e-20)
(1.00138 0.00476683 1.46643e-22)
(1.00155 0.00495624 3.36712e-21)
(0.380113 0.0859875 2.25034e-20)
(0.403765 0.0556395 -8.04598e-20)
(1.14362 0.389584 5.43138e-20)
(1.10701 0.362486 -2.84474e-20)
(0.852404 0.280118 3.60503e-21)
(0.995808 -0.00148983 -3.32382e-21)
(0.995354 -0.00131359 4.46123e-21)
(0.987913 -0.00234069 1.85406e-21)
(0.988664 -0.00233411 -1.76103e-20)
(1.13884 -0.0493675 0)
(1.13695 -0.0498418 0)
(1.13863 -0.0515386 -9.84998e-21)
(1.05903 0.131567 1.07394e-22)
(1.06427 0.131533 7.87626e-21)
(1.06084 0.137484 -8.98572e-21)
(0.99683 0.00220182 -4.95368e-21)
(0.996536 0.00272994 1.09999e-21)
(0.554835 -0.0883086 -1.66129e-20)
(0.516664 -0.0845073 -3.57246e-22)
(-0.0943378 -0.0226845 2.79886e-20)
(-0.0691114 -0.0273438 -1.12317e-20)
(-0.07836 -0.026174 -2.66446e-20)
(0.995575 0.013968 7.96774e-21)
(0.995334 0.013086 1.00441e-20)
(0.0908901 0.187325 5.23812e-21)
(0.125774 0.205847 0)
(0.0930061 0.226036 -8.44791e-20)
(1.08421 -0.0520029 -3.1447e-21)
(1.08323 -0.0512512 -1.05838e-21)
(1.08438 -0.0506078 -5.1183e-21)
(-0.0776373 -0.0129326 -5.77738e-21)
(-0.0533484 -0.018278 6.02246e-22)
(-0.067521 -0.0134654 8.53354e-21)
(1.05138 0.0246883 5.19562e-21)
(1.05269 0.0251973 -7.23013e-21)
(1.05158 0.0262005 1.31244e-20)
(0.534407 -0.0429276 1.28582e-20)
(0.531697 -0.0445543 -1.29713e-20)
(0.571799 -0.046641 -5.00878e-21)
(0.999917 0.00160963 4.08874e-21)
(0.99986 0.00185213 3.66309e-22)
(0.999881 0.00190376 2.40182e-22)
(1.00002 0.0026574 -2.97063e-21)
(1.00003 0.00291787 6.48742e-23)
(1.00005 0.00260514 7.27146e-21)
(0.996204 -0.00120925 6.95788e-21)
(0.389955 0.112476 1.06764e-19)
(0.400596 0.142654 6.35015e-20)
(0.421899 0.118454 6.44348e-21)
(0.199454 -0.032006 -9.64772e-21)
(0.187309 -0.0318036 -2.49663e-20)
(-0.0635114 0.0189337 7.61663e-20)
(-0.106251 0.0157414 1.11359e-20)
(-0.0946926 0.0157146 0)
(1.05001 0.024286 1.7047e-21)
(1.05111 0.0233896 0)
(1.00029 0.00374942 -1.39609e-21)
(1.00034 0.0036881 1.07933e-21)
(1.00024 0.00339321 1.47217e-21)
(1.15688 0.416279 7.24713e-20)
(1.22575 0.438732 -2.14904e-20)
(1.08012 0.0122701 -5.07833e-21)
(1.07996 0.0140071 -4.56749e-21)
(1.01989 0.00211436 -4.74825e-21)
(1.02 0.00239104 -2.49449e-21)
(0.0251824 -0.0350213 3.01258e-20)
(-0.00286503 -0.0309995 -3.53448e-20)
(0.0113713 -0.0320444 1.51177e-22)
(1.17806 0.123569 0)
(1.17201 0.12578 -3.17089e-20)
(1.17555 0.130167 0)
(1.02201 0.0229748 8.09695e-22)
(1.02236 0.0222129 -2.4232e-21)
(1.0214 0.0221921 4.15347e-22)
(0.973733 0.0495848 -5.73885e-21)
(0.971685 0.0507582 -9.65516e-23)
(0.974094 0.0520887 -5.13022e-21)
(1.20408 0.436105 -5.68778e-20)
(1.09699 0.41478 -3.96658e-20)
(0.374552 -0.00303962 -9.63502e-20)
(0.403379 -0.0101673 3.3878e-20)
(0.380481 -0.0376756 7.49397e-20)
(1.12098 -0.0439924 -4.3296e-21)
(1.12229 -0.044177 3.17122e-20)
(1.12153 -0.0454181 -1.58552e-20)
(1.13357 -0.00780466 2.40241e-20)
(1.1361 -0.00789171 -2.94217e-20)
(1.13497 -0.0056413 2.50318e-20)
(1.09395 -0.059444 1.06193e-20)
(1.094 -0.060234 2.20818e-20)
(1.09305 -0.0603386 2.2283e-20)
(0.595313 0.124747 -2.40654e-20)
(0.615288 0.11038 1.64511e-20)
(0.617071 0.136646 -9.93689e-20)
(1.01036 0.00531578 1.56484e-22)
(1.01079 0.0054276 2.81453e-22)
(1.01061 0.00578703 1.10625e-22)
(0.841809 -0.00594055 -3.46633e-20)
(0.845134 0.00141808 -4.86906e-20)
(0.849308 -0.0052541 3.91426e-20)
(0.680581 0.182606 7.49496e-20)
(0.698501 0.174187 -6.07691e-21)
(1.05853 0.0191017 1.04355e-20)
(1.05972 0.0188499 -2.36429e-21)
(1.0587 0.0176505 9.80532e-21)
(1.01531 0.0117762 0)
(1.01535 0.0112336 -5.93698e-22)
(1.01588 0.0117452 6.43088e-22)
(0.503837 -0.0798005 0)
(0.492606 -0.0801872 0)
(0.576612 -0.0819042 0)
(0.819351 0.487368 4.76346e-21)
(0.791393 0.505314 3.22328e-20)
(0.83008 0.513212 9.74637e-21)
(1.13557 -0.018197 7.22073e-21)
(1.13696 -0.0163473 0)
(1.01624 0.0450204 2.21421e-22)
(1.01614 0.0467262 4.34736e-23)
(1.10997 0.120065 -1.53736e-20)
(1.10637 0.122834 1.66839e-20)
(1.11113 0.125035 1.54729e-20)
(-0.164923 -0.0110725 -6.51179e-20)
(-0.197801 -0.0105851 -2.88166e-20)
(-0.183859 -0.0110337 -7.3158e-20)
(0.297471 -0.0118332 3.76516e-21)
(0.272462 -0.00831442 -1.48417e-21)
(1.09346 -0.0488625 3.36274e-21)
(1.09268 -0.0495511 1.46997e-20)
(1.0937 -0.0497915 -2.03898e-20)
(0.503619 -0.0808461 0)
(0.432614 -0.0792568 0)
(0.949512 0.0052076 4.04064e-21)
(0.94809 0.00719094 5.59405e-22)
(0.947448 0.00445814 -2.68013e-21)
(0.0883562 -0.138562 -8.81779e-20)
(0.0996532 -0.108506 -4.23045e-20)
(0.0611222 -0.113189 -5.25782e-20)
(1.00055 0.0128186 1.78126e-21)
(1.00061 0.0134152 -3.66964e-21)
(1.00026 0.0130979 -7.34753e-22)
(0.181257 0.0901117 6.13782e-20)
(0.211399 0.0716604 1.0657e-19)
(0.212529 0.106891 1.01644e-19)
(0.170952 -0.00668171 -2.76186e-21)
(0.177992 -0.00833958 -1.67776e-20)
(0.193437 -0.0110777 0)
(0.907956 0.00928535 -2.46601e-20)
(0.905092 0.0124726 -4.7728e-20)
(0.909664 0.0130149 -3.32963e-20)
(1 0.000903141 0)
(0.999984 0.000888655 1.18126e-22)
(1.1405 -0.049153 0)
(1.13921 -0.0478519 -1.10905e-20)
(0.143667 -0.00837413 -1.99143e-20)
(0.165154 -0.0113645 1.23513e-21)
(0.158468 -0.0109166 -1.60051e-20)
(0.76316 0.102308 -2.26333e-20)
(0.774739 0.111076 1.21864e-20)
(1.00463 0.000611544 -8.73588e-22)
(1.00485 0.000889819 3.11201e-22)
(1.00495 0.000517447 5.77829e-22)
(0.973727 0.0469368 0)
(0.975967 0.0482845 5.37749e-21)
(1.03265 0.0261116 -2.31511e-21)
(1.03338 0.0269711 -1.54584e-21)
(1.03232 0.0270551 0)
(1.00434 0.000627421 -5.69396e-22)
(1.0042 0.000305524 -1.20307e-21)
(1.01682 0.00169039 0)
(1.01705 0.00153952 0)
(1.01676 0.00144061 0)
(0.346385 -0.00207734 -6.35289e-20)
(0.264472 -0.0236353 1.94199e-21)
(0.253723 -0.02116 0)
(0.241044 -0.0186613 0)
(0.95108 0.00287178 2.69653e-21)
(0.952029 0.00561307 -7.44376e-21)
(1.03822 0.0242775 -1.27691e-21)
(1.03705 0.0245393 3.31654e-21)
(0.999965 0.000793612 3.72815e-21)
(0.999995 0.000551601 -2.01224e-21)
(1.27918 -0.0222577 -5.91313e-20)
(1.28399 -0.0211846 2.64037e-20)
(1.26263 -0.0309828 -2.77717e-21)
(0.726939 -0.0634313 1.77722e-20)
(0.670436 -0.0598372 0)
(1.09361 0.125267 -9.98459e-24)
(1.08915 0.122396 -3.80081e-22)
(0.578714 0.135857 -2.48362e-20)
(0.57924 0.107871 -8.02825e-21)
(0.995299 -0.00085601 5.24756e-21)
(0.99486 -0.00119218 3.55798e-21)
(0.906589 0.00532821 1.35781e-20)
(0.910804 0.00653188 1.75197e-20)
(1.11051 -0.0574575 2.87783e-21)
(1.10967 -0.0577217 0)
(1.10688 -0.0570075 1.10077e-20)
(1.02368 0.0121318 1.12441e-21)
(1.02362 0.0126917 -3.08909e-22)
(1.02296 0.0122085 -3.94131e-21)
(0.963296 0.0191889 1.49515e-21)
(0.961145 0.0199078 -1.79871e-20)
(0.961919 0.0173166 -5.86819e-22)
(0.663773 0.186411 -2.53535e-20)
(0.643475 0.192579 3.86682e-21)
(0.661922 0.209283 7.74396e-21)
(0.987676 -0.00161693 2.22007e-20)
(0.987138 -0.00223588 2.26032e-20)
(0.764321 -0.0876945 -1.19779e-20)
(0.685951 -0.0845174 -9.8335e-21)
(0.760134 -0.0879892 9.65848e-21)
(0.808738 0.592133 -9.17761e-22)
(0.816239 0.562827 -1.50499e-21)
(0.781597 0.564079 -3.03876e-21)
(0.967605 0.00898367 0)
(0.968207 0.00686157 4.10849e-21)
(1.0223 0.01016 1.74218e-21)
(1.02236 0.0106946 1.70584e-21)
(1.02172 0.0102431 -1.20533e-21)
(1.05487 0.0943199 -8.34827e-21)
(1.05132 0.0948037 6.45529e-22)
(1.05381 0.0985282 1.98415e-20)
(1.11068 -0.02241 1.03457e-20)
(1.11194 -0.0238575 2.9321e-20)
(1.11204 -0.0214602 2.30968e-20)
(0.112209 -0.159769 4.46222e-20)
(0.0728644 -0.169061 -7.20853e-20)
(1.10709 -0.041301 1.73873e-21)
(1.10834 -0.0416601 -2.08439e-20)
(1.10717 -0.042434 3.25805e-22)
(1.0214 0.176764 1.02668e-21)
(1.02449 0.171974 2.59274e-21)
(1.02892 0.176027 2.48393e-21)
(1.07614 0.0600803 -2.99612e-21)
(1.07413 0.0620363 -5.37289e-22)
(1.07341 0.0591654 -1.27748e-20)
(-0.0273102 0.0480154 -3.86588e-20)
(-0.0465954 0.0545367 7.47578e-20)
(-0.0793476 0.0469072 0)
(1.0541 0.132099 0)
(1.05694 0.127288 0)
(1.11979 -0.068724 -1.99629e-20)
(1.13669 -0.0664249 -1.31002e-20)
(1.13859 -0.0650233 1.5571e-20)
(-0.10885 -0.00940727 6.59585e-21)
(-0.0863421 -0.0134088 -2.45825e-21)
(1.29491 -0.0188111 -1.86644e-20)
(1.25759 -0.0190539 4.4797e-21)
(0.941485 0.0408087 -6.96527e-21)
(0.938685 0.0423799 -9.35202e-21)
(0.938599 0.0387772 -1.83438e-20)
(0.790296 -0.0329946 5.90325e-21)
(0.784582 -0.0245444 0)
(0.778748 -0.0355674 0)
(0.999981 0.00205433 8.95675e-22)
(1 0.00198942 -6.1508e-21)
(0.999972 0.00170801 2.55933e-23)
(1.11939 -0.0442914 0)
(1.12024 -0.0427773 1.29493e-20)
(1.09445 -0.0481363 -7.75487e-21)
(1.09322 -0.047757 -1.49015e-22)
(1.09376 -0.058715 -2.20799e-21)
(1.09479 -0.058729 -1.16431e-20)
(1.05835 0.0203401 5.84654e-21)
(1.05734 0.019222 -7.02573e-21)
(1.12184 -0.0157253 -2.12712e-20)
(1.1205 -0.0171269 8.81503e-21)
(1.12269 -0.0177888 2.1873e-20)
(1.0305 0.0194051 -1.75509e-21)
(1.03128 0.019996 1.09684e-21)
(1.03029 0.0202681 -3.32668e-21)
(0.838693 -0.0122332 -1.2819e-20)
(0.834103 -0.00511044 -3.41062e-20)
(1.04635 0.170906 -9.76832e-21)
(1.03923 0.170336 -2.33851e-21)
(1.04443 0.164336 -4.46815e-21)
(-0.304706 0.000676352 -7.26018e-20)
(-0.32267 0.00155695 7.53287e-20)
(-0.291108 0.00056307 -2.39664e-20)
(1.09107 -0.0520922 -8.58962e-21)
(1.09196 -0.0528823 1.00925e-20)
(1.09215 -0.0516487 6.75955e-21)
(1.01208 0.0533389 3.27956e-22)
(1.012 0.0550868 -2.54998e-22)
(1.01029 0.0538776 1.5185e-21)
(0.859894 -0.0837974 4.81925e-21)
(0.852493 -0.0855759 -1.6698e-20)
(0.921577 -0.0843984 -1.01181e-20)
(1.01346 0.194424 -8.08251e-22)
(1.01054 0.199323 -2.9234e-21)
(1.01826 0.199205 -4.0424e-21)
(0.274605 -0.0237877 -2.74787e-22)
(0.292123 -0.0260343 -5.37956e-21)
(0.150413 0.0731358 1.34167e-19)
(0.150836 0.110558 8.04485e-20)
(0.778219 -0.0880156 -1.07333e-20)
(0.845369 -0.0890705 2.26596e-20)
(1.01144 0.0250415 -2.6466e-22)
(1.01209 0.0257157 9.90336e-22)
(1.01126 0.0258617 1.14149e-22)
(1.18376 0.122153 3.15371e-20)
(1.18003 0.117877 -2.35755e-20)
(1.11631 0.108591 -1.56219e-20)
(1.11484 0.10401 0)
(1.02434 0.0120065 -5.61178e-22)
(1.02365 0.0115457 2.03762e-21)
(1.00025 0.00383135 0)
(1.00033 0.00415367 0)
(0.935874 0.112734 -1.19264e-20)
(0.932042 0.108775 1.01825e-21)
(0.938077 0.108313 1.12993e-21)
(0.610351 -0.0494589 3.07988e-24)
(0.60635 -0.0491464 2.77856e-24)
(1.25522 0.132214 7.10924e-20)
(1.26301 0.130391 4.40511e-20)
(1.26373 0.137722 4.28337e-20)
(-0.00882648 0.0481174 -3.67356e-20)
(0.0622513 0.0634742 -1.79879e-20)
(1.11214 0.0370314 1.07587e-20)
(1.1118 0.0395467 2.50417e-20)
(1.11438 0.0382675 0)
(1.09962 -0.0541964 0)
(1.09894 -0.0547758 2.98276e-20)
(1.0998 -0.0549839 -1.60495e-20)
(1.11062 -0.0580755 -2.40443e-20)
(1.11409 -0.058497 -9.05939e-21)
(1.11532 -0.0590054 1.71981e-21)
(-0.0152785 0.0213953 -8.87016e-21)
(-0.0290266 0.0207058 1.57751e-19)
(1.24776 0.176889 0)
(1.24832 0.170139 -4.30101e-22)
(1.25618 0.174416 7.80713e-20)
(0.99954 0.0072666 -8.16127e-21)
(0.99964 0.00688432 -1.32551e-21)
(0.999477 0.0067494 3.25329e-21)
(0.567813 0.0462152 -3.02987e-22)
(0.573224 0.0661783 -3.33174e-22)
(0.548584 0.0603068 -5.39502e-20)
(0.797607 0.0270315 -4.04243e-20)
(0.79666 0.0381617 3.44284e-21)
(1.00892 0.000355814 0)
(1.00858 0.000352563 2.93562e-22)
(1.02161 0.0236054 4.40758e-22)
(1.02265 0.0237125 -1.34998e-22)
(0.867118 0.454419 6.22242e-21)
(0.86188 0.427385 9.31029e-21)
(0.888698 0.436088 2.01595e-22)
(1.22457 0.481683 6.95035e-20)
(1.2282 0.462232 -5.20685e-20)
(1.14902 0.441629 -3.36122e-20)
(1.07262 -0.00322411 -6.826e-21)
(1.07368 -0.00399393 0)
(1.07399 -0.00268813 -3.40055e-22)
(1.00287 0.000840986 -1.8961e-21)
(1.00285 0.000523236 1.32983e-21)
(1.11573 -0.0178743 6.41692e-21)
(1.1146 -0.0162555 6.96983e-21)
(1.11704 -0.0162844 -6.18508e-21)
(1.10958 -0.0237708 -2.82845e-20)
(1.10906 -0.0215335 -7.91162e-21)
(-0.109592 -0.0196377 5.40782e-20)
(-0.118147 -0.0188978 5.0571e-22)
(1.2356 -0.0619344 0)
(1.22931 -0.0635115 -6.22349e-21)
(1.2207 -0.0596123 2.2245e-20)
(0.991859 0.0100767 -2.06346e-22)
(0.991397 0.00984337 3.51424e-21)
(0.993451 0.0284188 2.38232e-22)
(0.994422 0.0293547 -1.61134e-21)
(1.13128 -0.00773275 2.53684e-20)
(1.13209 -0.00989866 2.38602e-20)
(0.587724 -0.0499935 -5.31228e-21)
(0.642564 -0.0521056 -1.90994e-20)
(0.626212 -0.051559 3.5004e-21)
(0.965158 0.0182638 1.00586e-20)
(0.964821 0.0205914 7.50261e-21)
(0.510119 -0.0458922 -7.45158e-21)
(0.501136 -0.0461008 -1.16821e-20)
(0.552434 -0.0482336 -1.22304e-20)
(-0.166612 -0.0117589 1.09382e-20)
(-0.141319 -0.0146754 -2.77519e-20)
(-0.158879 -0.011572 -4.54969e-21)
(1.09951 -0.0533296 2.14472e-20)
(1.10051 -0.0537839 1.37466e-20)
(1.01486 0.0117104 6.79141e-22)
(1.01528 0.0121955 0)
(0.493712 0.380954 -2.30843e-20)
(0.513411 0.415817 3.14974e-20)
(0.460497 0.416802 0)
(1.12428 -0.00719055 0)
(1.12662 -0.00747062 2.19215e-20)
(1.12555 -0.00525348 0)
(-0.290899 -0.00667843 -4.15419e-20)
(-0.258426 -0.0100706 1.14015e-19)
(-0.276226 -0.00632949 9.31169e-20)
(1.00231 0.0169067 -2.29359e-23)
(1.00268 0.0172892 1.42162e-21)
(1.0023 0.0176312 4.3205e-21)
(0.770991 0.0821182 -7.47562e-20)
(0.725078 0.0797502 -9.64535e-20)
(1.01074 0.0242591 1.86588e-21)
(1.01156 0.0242177 4.80872e-22)
(1.18786 0.0616162 5.36899e-21)
(1.18391 0.0594417 -2.60496e-20)
(1.18399 0.0638725 -4.36597e-21)
(1.00779 0.00110186 0)
(1.00758 0.000761742 -5.79294e-23)
(0.146546 -0.0333756 2.07683e-21)
(0.121284 -0.0312114 1.47045e-20)
(0.140374 -0.0317322 4.17987e-21)
(0.483093 -0.08008 -7.9634e-21)
(0.472236 -0.079775 1.30546e-20)
(0.553291 -0.081046 -1.64957e-20)
(0.993689 0.0913583 7.26486e-21)
(0.997244 0.0901611 3.89379e-22)
(1.17313 0.475133 -2.51393e-20)
(1.21544 0.487141 6.24396e-20)
(1.18373 0.45668 -3.06179e-20)
(1.07891 0.0606732 -3.82854e-21)
(1.07754 0.0579488 1.04836e-20)
(1.0142 0.0115781 3.17188e-22)
(1.01432 0.0110646 1.82901e-21)
(1.1135 -0.0583738 -1.41032e-20)
(1.12179 -0.0591084 -2.34024e-20)
(1.09002 -0.0525482 -9.97886e-22)
(1.09023 -0.051311 -9.21002e-21)
(1.11002 0.0358319 1.4766e-20)
(1.11229 0.0345915 -1.55764e-20)
(0.701706 -0.0580845 7.97886e-21)
(0.656095 -0.0572279 2.07723e-20)
(0.722451 -0.0577736 1.64688e-22)
(-0.176149 -0.00822728 -1.71425e-21)
(-0.196792 -0.00693283 2.22701e-20)
(1.01135 0.00292574 -4.50581e-22)
(1.01172 0.00297521 5.39896e-22)
(1.01152 0.0025715 -3.59346e-22)
(1.06289 0.0860447 9.52966e-22)
(1.06222 0.0897383 4.85081e-21)
(0.0435915 -0.0393324 -1.59055e-20)
(0.0577885 -0.0401362 3.16082e-20)
(-0.119313 0.0188698 -2.44355e-20)
(-0.148232 0.0164252 6.21273e-20)
(-0.122816 0.0191843 2.6333e-20)
(0.999965 0.00201959 3.71174e-21)
(0.999945 0.00234728 3.69672e-21)
(1.00558 0.00833209 2.94406e-23)
(1.00597 0.00855282 1.77901e-22)
(1.00574 0.00875133 9.56799e-22)
(0.322292 -0.00935115 1.82485e-20)
(0.341416 -0.0126276 2.3445e-20)
(1.12593 -0.0460403 4.49972e-21)
(1.12455 -0.0460278 4.65388e-21)
(1.12508 -0.0475297 -1.12517e-21)
(1.00005 0.000122848 2.51307e-22)
(1.00002 9.47792e-05 0)
(1.00005 0.000154444 -1.73313e-21)
(1.10377 -0.0592709 1.74898e-21)
(1.10301 -0.0597106 3.42868e-20)
(1.10367 -0.0587519 8.35158e-21)
(1.17043 0.00382496 -1.98439e-20)
(1.16878 0.000627267 5.21138e-22)
(1.16647 0.00411246 2.26833e-20)
(0.799564 -0.0327993 -5.77775e-21)
(0.795114 -0.0425225 -3.7039e-20)
(1.08975 0.103537 -7.57625e-21)
(1.09277 0.107008 -1.79639e-20)
(1.09334 0.102003 -2.55641e-20)
(0.999997 0.00232865 -6.06981e-21)
(1.00002 0.00198259 -1.7663e-21)
(0.979571 0.205665 -3.36876e-21)
(0.980992 0.196106 -3.0118e-21)
(0.971339 0.20025 -1.5513e-21)
(-0.131119 -0.0121123 1.60429e-20)
(-0.127404 -0.0110068 -2.55116e-20)
(-0.160569 -0.00654297 -1.0364e-19)
(1.03862 0.00287524 9.47212e-24)
(1.03883 0.00224074 -4.67211e-21)
(1.03958 0.00273367 -1.03089e-21)
(1.20036 0.138116 6.598e-21)
(1.19466 0.141539 -5.17829e-21)
(1.19528 0.13361 -8.92571e-21)
(0.568546 0.153356 -1.65817e-20)
(0.583853 0.174125 3.17124e-20)
(0.554006 0.179262 3.40275e-20)
(1.03192 0.0252333 -1.37011e-21)
(1.03293 0.0250799 -2.33493e-21)
(0.994699 0.0256341 -3.46511e-21)
(0.993736 0.0259471 -6.17998e-21)
(1.10286 -0.0366193 -1.1201e-21)
(1.10425 -0.0372933 -6.2822e-21)
(1.10283 -0.0380042 -1.39367e-20)
(0.35457 -0.0183186 -3.61388e-21)
(0.338955 -0.0155186 -1.39125e-20)
(0.336435 -0.0155427 1.27135e-20)
(1.10579 -0.0411469 1.0533e-20)
(1.107 -0.0401449 8.64177e-21)
(0.938755 0.117106 3.64783e-22)
(0.933199 0.118201 6.86075e-21)
(0.976474 0.0925871 -7.57811e-21)
(0.97386 0.0962813 -6.44165e-21)
(1.00005 0.000267407 0)
(1.00005 0.000232445 1.20645e-21)
(1.00002 0.000158278 -1.66161e-21)
(0.12285 -0.00594567 -6.98254e-21)
(0.129534 -0.00630855 3.17508e-22)
(0.643321 -0.0533777 -5.88136e-20)
(0.732978 -0.0578818 -4.96831e-21)
(0.725921 -0.0544064 -1.06901e-20)
(1.10371 -0.0642577 -3.2428e-21)
(1.10691 -0.0638848 -1.70055e-20)
(1.11191 -0.0650732 -2.8359e-20)
(1.01369 0.0114981 -1.17517e-21)
(1.01414 0.0120244 -1.05043e-21)
(-0.164136 -0.0174134 -3.45577e-20)
(-0.136475 -0.0217337 5.49114e-21)
(-0.149046 -0.0196103 -4.26446e-20)
(0.0430345 -0.0111854 1.33651e-21)
(0.0475313 -0.00974877 2.13318e-20)
(0.0230858 -0.00726891 0)
(1.08569 -0.0688025 8.37574e-21)
(1.09739 -0.0674305 2.61943e-21)
(0.531855 -0.0438317 1.4118e-20)
(0.501486 -0.0427418 1.00099e-20)
(1.08518 -0.0524622 -9.8709e-21)
(1.08413 -0.0530712 1.27681e-20)
(0.999972 0.00267902 -3.4058e-21)
(1.00593 0.000678191 -5.33892e-23)
(1.00561 0.000726006 9.01128e-23)
(1.00599 0.00106656 -4.90056e-23)
(1.13301 0.00997724 4.6405e-21)
(1.13043 0.00999851 -2.26284e-20)
(1.13201 0.00762368 -4.48309e-20)
(0.0736236 -0.0272769 -3.36292e-20)
(0.055148 -0.0234217 1.82629e-21)
(0.0489777 -0.0235744 -1.19329e-20)
(1.15062 -0.0312035 8.73346e-22)
(1.15282 -0.0299443 1.46679e-20)
(1.15259 -0.0332081 3.05074e-20)
(1.06613 0.0406048 -1.10959e-20)
(1.06793 0.0393724 3.19048e-21)
(1.23855 -0.0612226 1.26515e-20)
(1.22615 -0.0682449 0)
(1.07654 -0.0363048 -5.99633e-21)
(1.07565 -0.0356285 -1.98425e-22)
(1.01673 0.000930899 8.30906e-22)
(1.01671 0.00116496 0)
(1.01693 0.00104074 0)
(0.982655 0.0248795 2.5879e-20)
(0.975862 0.0187449 -3.02448e-20)
(0.882077 0.00712509 2.08512e-20)
(1.00179 0.00452727 1.86333e-21)
(1.00179 0.00432834 2.04458e-21)
(1.00161 0.00418634 5.42741e-23)
(0.858664 -0.0832061 2.88923e-21)
(0.789936 -0.0835178 3.68711e-21)
(1.07146 -0.00215017 1.80489e-21)
(1.07108 -0.00348535 -5.36949e-22)
(1.00006 9.51531e-05 2.14987e-22)
(1.00009 0.000148911 8.65551e-22)
(0.99997 0.104867 -1.41588e-21)
(0.998777 0.109457 -9.4234e-22)
(0.995995 0.105131 -2.1426e-21)
(1.01956 0.182452 -3.07789e-21)
(1.01513 0.177164 -1.69463e-21)
(0.779273 -0.0148394 0)
(0.789518 -0.0142367 6.84888e-20)
(1.11018 -0.0592991 -1.81151e-20)
(1.10488 -0.0587364 -1.46627e-20)
(0.997516 0.138695 2.14122e-21)
(0.997784 0.144725 1.93662e-22)
(0.991847 0.14073 1.63365e-21)
(1.04167 0.00839751 9.75018e-22)
(1.04229 0.0091714 -9.35776e-21)
(1.04124 0.00900867 -3.91599e-21)
(1.24252 -0.00135894 -2.55336e-20)
(1.24623 0.00333117 -5.32977e-20)
(1.25957 -0.000845519 -8.14168e-20)
(0.740543 -0.0584687 8.43462e-21)
(0.67703 -0.0593181 6.36077e-21)
(0.56509 -0.0583462 -2.1708e-20)
(0.569227 -0.0562425 5.05215e-21)
(1.0019 0.0166807 7.35965e-23)
(1.00225 0.0163614 2.32741e-21)
(1.07505 -0.0729791 -5.38375e-21)
(1.10891 -0.0722809 1.44251e-20)
(1.06717 -0.0740725 2.23523e-20)
(0.99851 -0.000605775 1.17788e-21)
(0.998406 -0.000357131 1.51751e-21)
(0.998233 -0.000613901 -4.94795e-21)
(1.04128 0.00761659 6.55692e-21)
(1.04233 0.00771374 5.15136e-21)
(1.00048 0.0121754 8.17205e-21)
(1.00083 0.0124935 2.31811e-21)
(0.838596 0.622101 -2.86169e-21)
(0.791526 0.628289 3.37245e-21)
(1.00144 0.00085674 4.0057e-21)
(1.00157 0.000749165 -3.71116e-22)
(1.00134 0.00066953 1.40067e-21)
(1.19156 0.0635665 1.08873e-21)
(1.19147 0.0592096 -1.1284e-20)
(1.08615 0.105977 -4.22133e-21)
(1.08636 0.101026 9.34361e-21)
(1.02967 0.0187508 -2.62499e-21)
(1.03065 0.0185322 -6.82809e-22)
(1.11666 -0.0195488 1.29908e-20)
(1.1143 -0.0188933 -1.87531e-20)
(1.03523 0.0554403 -1.69383e-21)
(1.03613 0.0537602 5.79732e-21)
(1.03745 0.0554972 2.78862e-21)
(0.119527 0.0523554 -5.63669e-20)
(0.106555 0.0357325 1.09478e-19)
(0.104315 0.0688361 -1.09007e-19)
(1.01705 0.189108 6.18184e-22)
(1.00974 0.189492 1.33809e-21)
(1.16867 0.119954 -4.86479e-20)
(1.1657 0.126266 -1.58121e-20)
(1.02842 0.0130688 3.05837e-22)
(1.02906 0.0136682 -1.05038e-21)
(1.0291 0.0128582 0)
(0.995609 0.0253059 2.98478e-21)
(0.994798 0.024524 6.05206e-21)
(-0.186121 -0.00802222 -2.93443e-20)
(-0.210021 -0.0077044 -3.25765e-21)
(-0.21536 -0.00747088 0)
(0.127692 -0.00847992 -6.12318e-21)
(0.120152 -0.00805431 -6.29735e-21)
(0.143679 -0.011482 2.16299e-22)
(1.00058 0.0140232 -1.32139e-21)
(1.00091 0.0137372 -6.45917e-22)
(1.00657 0.00062024 5.21989e-22)
(1.00698 0.00083868 5.05403e-22)
(1.0066 0.00110624 5.46657e-22)
(0.973029 0.0248068 0)
(1.09193 0.0325761 0)
(1.01444 0.0237308 -6.24241e-22)
(1.01467 0.0246743 2.12617e-22)
(1.01545 0.0242347 5.0429e-22)
(-0.0413902 -0.0317125 -2.29748e-20)
(-0.0586029 -0.0284076 -1.16594e-20)
(1.0277 0.012646 3.29352e-22)
(1.0277 0.0134405 -1.61349e-22)
(0.151724 -0.0345948 4.17016e-22)
(0.171734 -0.0358607 3.14915e-21)
(1.04504 -0.00522574 2.50637e-21)
(1.04451 -0.00586787 5.19801e-21)
(1.0454 -0.00590799 5.96537e-21)
(1.21126 0.316374 8.23786e-21)
(1.19914 0.315516 -6.86539e-20)
(1.20411 0.328209 -2.35307e-20)
(1.09698 0.0012921 -3.38617e-20)
(1.09697 0.00314918 -5.6772e-21)
(1.09892 0.00215289 -1.87063e-20)
(0.0978705 0.301162 6.79906e-20)
(0.096204 0.260921 -1.45712e-20)
(0.131412 0.278494 7.18202e-20)
(0.944641 0.0420104 -3.15427e-21)
(0.944236 0.0386173 2.26114e-20)
(1.29578 -0.0114803 3.67214e-20)
(1.30235 -0.0114275 2.70033e-20)
(0.516724 0.287933 -9.81529e-20)
(0.489839 0.298316 3.6954e-21)
(0.517853 0.320494 1.76433e-20)
(1.00392 0.105097 -5.2337e-22)
(1.00153 0.10181 2.23877e-21)
(1.12676 -0.0450038 0)
(1.12742 -0.0465876 -7.73981e-21)
(0.951619 0.501574 9.30528e-21)
(0.968815 0.519413 -9.72073e-21)
(0.939686 0.524726 -2.59653e-21)
(0.995878 0.041557 4.43356e-21)
(0.994423 0.0410195 -1.85736e-21)
(0.994797 0.042855 4.05326e-21)
(0.221125 -0.0240881 8.14002e-21)
(0.194895 -0.0208839 -1.01504e-20)
(0.204769 -0.0214572 1.13531e-20)
(0.582921 0.0351071 7.74294e-20)
(0.562239 0.0260322 -6.4029e-20)
(0.0601443 -0.0135584 -8.45024e-21)
(0.0413375 -0.0113471 6.15693e-21)
(0.923483 0.0150698 0)
(0.919897 0.0162597 0)
(0.922648 0.0190534 -1.87849e-20)
(0.215287 -0.00777528 4.84653e-21)
(0.18939 -0.00493801 1.63503e-20)
(0.217927 -0.00712034 -1.01559e-20)
(1.06599 0.0850976 -4.28135e-21)
(1.06836 0.088392 -1.28806e-20)
(1.06933 0.0848325 -8.36541e-21)
(-0.0983959 0.00359889 0)
(-0.0663031 0.00436655 0)
(-0.0551664 0.0031633 0)
(0.52308 0.256854 6.2335e-20)
(0.548481 0.280033 -2.69893e-20)
(0.927372 0.344159 1.37944e-20)
(0.910894 0.341835 -1.6285e-21)
(0.919995 0.35928 1.29508e-20)
(0.945377 0.349546 4.29704e-21)
(0.937006 0.331269 5.52367e-21)
(0.55033 -0.0521066 -3.94316e-21)
(0.52338 -0.0524462 1.08584e-20)
(0.999737 0.00197801 -6.44793e-21)
(0.999664 0.00218781 -2.80892e-21)
(0.999696 0.00224569 -6.28047e-22)
(1.05317 0.169758 3.5083e-21)
(1.05024 0.176657 -1.42043e-20)
(-0.127137 -0.0128053 4.19927e-20)
(-0.141729 -0.0116 -3.15056e-20)
(0.98289 0.0272596 -2.17509e-21)
(0.981949 0.0281171 -8.35869e-21)
(0.981654 0.0264396 -6.06029e-21)
(1.00121 0.0710052 1.55279e-21)
(1.00199 0.0686716 2.25496e-21)
(0.99929 0.0691208 -3.21817e-22)
(0.0629653 -0.0103582 0)
(0.0695334 -0.0101159 2.31004e-20)
(0.844114 0.473078 -1.36891e-20)
(0.876346 0.480978 2.28294e-22)
(1.01572 0.0501652 -4.65756e-23)
(1.01568 0.0517358 4.70905e-23)
(1.0175 0.0512149 4.80475e-23)
(1.10886 -0.0578651 2.53696e-21)
(1.10824 -0.0575882 -1.11453e-20)
(0.681391 0.545435 -3.25333e-20)
(0.707404 0.517194 -3.24434e-20)
(1.00849 0.00470112 -3.29504e-23)
(1.00889 0.00494836 -8.32879e-23)
(1.00882 0.00449688 -5.74348e-23)
(0.164186 -0.0067506 -1.29995e-20)
(0.141645 -0.00437053 1.48113e-20)
(1.11358 -0.0572036 -3.88169e-21)