/*--------------------------------*- C++ -*----------------------------------*\
| =========                 |                                                 |
| \\      /  F ield         | OpenFOAM: The Open Source CFD Toolbox           |
|  \\    /   O peration     | Version:  v2012                                 |
|   \\  /    A nd           | Website:  www.openfoam.com                      |
|    \\/     M anipulation  |                                                 |
\*---------------------------------------------------------------------------*/
FoamFile
{
    version     2.0;
    format      ascii;
    class       volScalarField;
    location    "600";
    object      ddt0(omega);
}
// * * * * * * * * * * * * * * * * * * * * * * * * * * * * * * * * * * * * * //

dimensions      [0 0 -2 0 0 0 0];


internalField   nonuniform List<scalar> 
13851
(
-2.75679e-05
0.166514
-7.78844e-05
-1.35892e-05
-0.000229407
0.00994818
-6.42623e-06
-7.04866e-05
-3.4795e-06
0.00114155
-0.01094
-0.107477
0.0238022
-0.360876
-1.00854e-05
-0.000100234
-2.30947e-05
6.4794e-05
0.0708066
-3.76972e-06
-1.25324e-05
-0.000204586
4.32696e-06
-3.63357e-07
4.76532e-06
-6.26528e-05
-1.98955e-05
-0.829425
-2.46531e-05
5.26182e-06
-0.136039
-2.46473e-05
-0.00022744
-0.0540417
-3.82737e-07
-0.00200619
-0.16435
-0.00476351
0.00127049
-0.0214862
-5.79176e-06
3.53249e-07
0.768868
-0.0219155
-0.0125657
-1.69765
-0.0209162
0.304566
-2.10767e-05
-0.0684312
-0.000285219
7.21091e-05
-0.104437
-1.08877e-05
-1.03396e-05
2.73042e-07
1.50671e-07
-0.0175133
4.27553e-06
-6.71825e-06
-0.00746355
-0.100277
0.00154401
-0.000537911
-0.0149799
-5.59622e-05
-0.32433
-0.0337273
-8.60975e-05
5.96754e-05
0.0358358
-0.0633554
0.161647
-1.13545e-05
-7.7617e-06
-4.82083e-06
-0.000173517
0.0555071
-0.000171587
0.025504
-7.32568e-06
-0.00761306
-6.65788e-06
-2.56532
0.00125378
-0.0376585
0.00180009
0.0848179
-2.85141e-05
-3.18997e-05
-0.00204254
0.000807501
-0.0438225
-4.27931e-05
-2.70856e-05
3.17454e-06
-0.00051976
-0.00287592
-0.0599515
3.55996e-06
0.139049
-0.000227989
-1.58237e-05
-1.35419e-05
3.31097e-06
-0.0193863
-0.00024089
-1.01633e-07
-0.0284816
-0.00158484
3.24013e-06
-4.41602e-05
0.000358947
3.27638e-06
2.80288e-06
-0.00998481
-0.0159562
-1.51642e-07
-4.57777e-06
-9.53791e-06
0.749599
-1.31178e-05
0.0189152
-0.0962366
0.452691
-0.000552567
0.390676
-0.000198511
-7.62189e-06
-0.00051602
-5.71928e-06
-4.63779e-06
0.0256539
-6.70043e-06
-0.0109293
-5.56946e-06
-1.55294e-07
-0.119297
0.416154
0.194233
0.159701
-1.0591e-05
-3.5185e-06
-9.49866e-07
-6.70145e-06
-0.0224493
0.00231336
-0.000785884
-6.79893e-06
-0.00291883
8.32197e-05
-8.97266e-06
-0.324094
4.27022e-07
-1.17995e-05
-6.00369e-06
-5.54486e-06
-3.95197e-07
2.88472e-05
-0.000249323
1.06831e-06
-4.10732e-05
-0.0245914
-4.69015e-06
6.94472e-06
6.1107e-07
0.00322154
-8.37407e-05
-5.76507e-06
0.571177
0.0702023
-3.13238e-06
-5.82817e-06
0.217686
-4.72726e-06
0.0685886
-0.000176355
6.79241e-07
0.0803323
-6.14348e-08
-3.12066e-05
-0.0683415
-7.14759e-06
7.99521e-05
9.09337e-07
3.87056e-06
-6.87466e-05
-1.06038e-05
-0.000577404
0.000259933
-0.0290395
-0.0772064
-9.24996e-05
-8.54325e-05
-0.108717
-1.05892e-05
-8.89574e-06
0.0738521
-4.01471e-06
-5.33253e-06
-0.000441974
1.56897
-4.56076e-06
-7.2509e-06
-7.74358e-05
-6.83723e-06
0.0432913
-2.51672e-05
-0.00928369
1.30251e-07
-0.0152121
-1.45362e-05
0.0750589
-6.66346e-08
1.20071e-06
0.0451803
0.00140773
-1.853
-9.41539e-06
-0.0109364
-2.61365e-05
-7.32225e-06
-0.0230569
-0.000280557
-0.010522
4.03507e-06
-5.42936e-05
3.6541e-06
-0.0261359
1.70934e-08
-4.00074e-05
-0.41958
-3.04219e-06
-8.33842e-05
-0.000191182
-0.000210142
-0.132516
-0.015048
-3.47142e-07
-7.26224e-06
-0.13404
-0.0151832
6.41974e-06
0.000256982
3.14854e-06
-0.0188522
-0.000222774
0.0969593
-4.47967e-06
-2.17173e-05
-0.000485471
-0.0154136
-4.93307e-06
-5.06637e-06
-0.00016806
0.401882
0.000774663
-0.0890289
-0.271694
-8.221e-06
7.82551e-07
2.71876e-05
-0.104831
-1.27338e-05
0.0274126
-1.0232e-05
-5.10829e-06
-3.90958e-05
-0.0181733
0.0164327
-0.000559277
-1.15257e-05
-0.588008
-0.000165853
-8.67772e-05
-4.59835e-06
0.00272961
0.0254472
0.0108846
-0.00668611
-1.32943e-05
2.99816e-07
3.24211e-06
-0.00015997
-0.0455064
-0.0468771
-4.67685e-06
-1.0062e-05
-0.495888
0.00375933
1.31768e-05
2.44818e-06
-7.16766e-06
-0.000100076
-0.002927
0.0536519
6.1952e-08
0.0431195
-4.40385e-06
-0.0190934
-3.81786e-05
-2.05724e-05
0.00640522
-8.22296e-06
-0.0229866
-0.0296298
-4.85967e-06
-0.000154783
-4.2899e-05
9.93668e-07
0.337268
-9.56928e-07
-4.77346e-06
-0.0218869
4.75263e-07
-2.30163e-05
-0.000400996
0.0118614
0.000323492
-9.03127e-06
-0.00020971
-9.29979e-06
0.246111
-0.00217574
4.77592e-06
-7.51878e-06
0.00032929
-5.04436e-05
-1.18261e-05
-1.0142e-05
-8.58766e-06
-4.46737e-06
-0.0166134
0.189966
0.228125
0.000118374
0.00848811
-0.0897201
-1.02749e-05
-8.34228e-05
-0.00114596
0.00244328
-0.00129928
2.61067e-05
0.0812566
-7.5252e-05
0.0234554
-0.0272889
-1.06141e-05
-0.0595311
-0.050695
-0.381321
-1.18557e-05
-0.00360781
-0.0252718
-6.5134e-06
0.102006
-6.99147e-06
-9.70979e-06
2.4842e-06
-1.35868e-07
-5.55592e-06
-0.025404
0.0305396
-6.21127e-06
-0.000136102
6.92098e-07
0.00473088
-0.00018732
0.00476862
0.382926
-6.30238e-06
0.00180928
-4.44872e-05
-0.0132765
-5.32804e-06
-1.06612e-07
-0.000172335
0.135054
-9.05531e-06
0.257378
0.00201251
4.43164e-05
1.53354
-0.0128174
-0.0172582
6.61843e-05
-4.4587e-06
-1.26435e-05
6.56189e-05
-0.000212556
-0.398486
-8.14544e-05
-0.00720833
-0.029165
7.43002e-07
-8.66146e-06
0.381465
0.0061853
-0.375219
-0.0198373
4.82258e-05
-4.85576e-05
5.7504e-06
-0.0994757
-2.85198e-06
-7.78836e-05
-1.61492e-05
-6.55155e-06
3.48595e-06
-4.46992e-06
6.94916e-07
-0.000398774
-0.00109871
0.325152
6.32768e-05
-0.000180548
-0.000535317
-0.0119696
-2.80902e-05
-0.281599
-1.92272e-05
0.0922274
-1.51733e-07
-4.29496e-06
5.15367e-06
-0.066687
-0.0431539
-0.000480929
-0.000380324
0.450268
-0.0916713
0.00492867
-8.76286e-06
-0.000173518
-5.12754e-06
-0.0204104
3.60834e-06
0.0927648
-0.0207075
8.53354e-05
-0.00260514
-6.81556e-06
0.0145089
-0.0179935
0.576079
4.2677e-07
-5.39803e-05
-0.000175204
0.0224155
-2.9454e-06
-4.21065e-06
5.6699e-05
-6.95538e-06
0.000159912
0.177364
5.02016e-06
-8.27582e-06
-0.0288993
9.02685e-06
3.56681e-07
-0.00629114
-4.48271e-06
-2.18454e-05
-3.13949e-06
-0.000317426
-3.56823e-06
2.82806e-08
-9.52762e-06
-0.0200894
-6.41356e-06
-0.000102766
-5.67135e-06
0.000547027
0.0589656
2.67657e-06
-4.09029e-06
3.18228e-06
3.74509e-06
-0.0376321
-5.3035e-06
0.00527194
-7.27643e-06
4.62366e-06
0.217255
0.00219227
-6.79448e-06
0.000186381
-3.23354e-05
-0.0175731
-2.53742
-9.08147e-06
0.0112502
-5.84457e-06
-0.000210993
-6.79035e-06
-0.173832
5.1336e-07
0.289272
0.0001129
4.0185e-07
0.000155069
0.107809
-5.65086e-05
0.0134337
-7.04803e-06
-0.148892
-1.08782e-05
-4.57489e-06
-4.34122e-06
-6.4479e-06
-0.00323922
-0.000295372
5.95147e-05
0.0686043
0.00140995
2.83539e-08
-0.0397601
-0.0453312
-3.29537e-05
-4.29177e-05
-0.0194054
-0.170626
-0.0102608
-1.29748e-05
-0.178584
-1.96168
0.885659
-4.1209e-06
-0.000218797
0.098696
0.0141917
0.308621
0.0858663
0.0771148
8.76515e-07
0.0271969
-0.0196565
-4.26652e-08
0.0161254
-0.000298409
0.0188399
-3.41778e-06
-7.33484e-06
-5.47022e-06
-7.02729e-06
-0.000341676
-0.000168211
0.242471
0.130242
-4.75185e-06
0.204207
0.006268
-0.110322
-0.0364849
-9.65111e-05
2.26507e-07
-3.96459e-06
-0.00553491
-0.0347677
-1.26034e-05
6.84565e-05
-0.00213763
2.50107e-07
-0.00117869
-0.173184
-0.149001
-0.000291949
-0.00430136
-0.0240168
-5.84857e-06
-6.63497e-06
-0.108237
-0.0291309
0.000174751
-8.28691e-05
0.00515283
-1.22661e-07
-6.53544e-06
0.0602505
2.25145e-07
-2.85254e-06
-9.53733e-08
-5.59736e-06
-0.0146542
-0.000340717
-0.000286254
9.12117e-08
-0.00647685
0.0425587
-4.29972e-06
6.12531e-07
-5.3537e-06
-1.27319e-05
0.108667
0.105403
0.123775
0.6136
-0.108697
-6.90183e-05
0.04049
-0.00220662
-7.9737e-05
-8.45705e-05
3.40304e-07
-0.000495069
-7.71531e-05
-0.0152173
0.0690422
5.13292e-05
-4.96937e-05
-3.7562e-06
-9.59174e-05
-1.06377e-05
-0.00879496
-0.000354716
-7.40087e-06
0.000161398
-3.03575e-06
-3.72959e-05
-0.000253267
-6.95624e-06
-5.00874e-06
-0.000144382
-6.32383e-06
-0.000490587
-0.0351045
1.10452e-06
-0.00010434
0.000296247
-3.71488e-06
-0.161391
-0.000570186
0.295814
-1.35642e-05
2.81498e-06
-0.0341133
-1.06685e-05
1.57876
-0.0257294
-1.19082
-0.0401865
-2.85468e-06
-0.0657631
6.78065e-06
-5.33267e-06
5.10974e-07
-5.44088e-06
-0.000233092
7.72937e-05
-0.000242423
2.86115e-08
-0.0730058
-0.0003777
-0.078981
-4.56495e-06
1.10462e-06
3.39092e-06
-0.00031112
-0.115729
-0.000166068
-3.92683e-05
1.15926e-06
3.85743e-06
-4.4133e-06
-5.28079e-06
-0.0109658
-0.0501219
-6.44277e-06
-2.52531e-08
-6.48197e-06
-6.13002e-06
-0.0386988
-0.0430734
-0.000102779
0.0120476
-0.193635
-4.99454e-06
-3.53261e-05
0.274427
-9.64509e-05
-0.106714
-7.26766e-06
4.23152e-05
-0.000156825
4.1425e-05
0.0456825
-6.9286e-06
0.020455
4.23214e-06
-4.14297e-05
-0.0101942
-2.19624e-06
-1.83293e-05
0.00390194
-4.59055e-06
-2.73388e-05
-0.234241
0.114576
-0.000225723
0.0429044
-0.00484672
-1.22285e-07
-4.44789e-06
0.326632
-0.0021038
-0.000382461
-0.0260442
-3.2068e-06
-1.66692e-05
-2.95716e-08
-0.0771339
-0.254355
4.98825e-06
-5.15581e-06
0.0705364
-2.15523e-05
3.16611e-06
0.150058
0.666716
-0.00258846
4.33176e-07
-6.42521e-06
0.0384497
-0.617794
-0.000277369
-1.19914e-05
-0.00989595
-6.75621e-06
0.0938702
-0.000876392
2.16568e-05
-1.63977e-05
-1.65784
-0.000322788
6.24319e-06
-0.205173
2.20137e-06
-5.18043e-06
-2.35947e-06
-3.58779e-06
-0.0300603
-5.38872e-05
-0.000195513
-0.000242687
0.0408494
-3.97899e-06
-0.230248
-2.80459e-06
-7.12959e-05
1.36872e-06
-4.84803e-06
-8.26964e-06
-0.0290417
-5.63243e-06
2.70842e-08
0.227633
-6.60446e-06
0.0199849
4.54934e-06
-9.0044e-06
-0.000149933
0.0445912
0.0247978
-5.2342e-06
-0.292313
-0.000466257
-5.33471e-06
-0.0216439
-4.03751e-05
-3.23581e-06
0.00119329
0.548388
-0.130493
-1.62281e-05
-5.04552e-06
-8.83862e-08
-0.0381763
0.000205153
-0.000898753
2.7231e-06
0.00154905
-1.22044e-05
-1.29514e-05
0.000159145
-0.0572394
-0.000400618
-0.0264009
-5.85094e-06
-0.00046948
-0.000218829
0.0128209
8.70184e-06
0.129227
0.0448372
-6.57003e-06
-0.955512
-0.0741038
-0.0881571
0.106896
-0.0197267
-0.0104526
-0.000175071
-3.35625e-06
3.33204e-05
-0.00129516
-3.21137
-4.08297e-06
4.43045e-06
-0.000219563
-0.0268607
2.819e-07
-0.277359
-3.31603e-06
-5.84826e-06
-0.130316
0.0410412
-0.00194176
-5.34568e-06
-9.6731e-06
-0.349617
-0.00460711
0.00010564
-4.66438e-05
0.0256598
-0.11352
-0.10055
-0.000191657
-0.000126739
-4.3188e-06
-6.816e-06
0.0551588
-6.9351e-05
0.0225684
-0.000419956
-8.37598e-05
-0.338117
-0.0839704
0.0163722
-6.7778e-06
-5.6214e-05
-4.25044e-06
-0.000109559
-1.95994e-05
-0.161935
-1.69845e-05
-0.0127297
1.19682e-07
-0.000159557
-5.9869e-06
0.000945887
-7.27173e-05
-5.95725e-05
0.0107948
-0.000133358
-0.000412027
1.45263e-06
-0.000177079
0.0147159
0.00106981
-1.04926e-06
0.0563265
-1.00502e-05
0.274819
0.0141136
-4.24113e-06
-0.016715
0.116793
0.0133291
-0.0104197
-0.00038982
-6.09204e-06
0.00220313
-1.70276e-05
-0.0616733
-0.0103711
-5.00524e-06
-1.01717e-05
0.00764347
0.0106277
-0.031706
-5.19183e-06
-1.89543e-06
0.0302603
-0.0097729
-0.000349974
-1.32409e-05
-3.52259e-05
-0.000106896
-0.545938
-0.000268128
-1.50538e-08
-7.26286e-05
-4.70868e-06
-6.12489e-06
-0.0319736
5.92962e-06
-0.00820005
0.0468678
-5.7197e-06
-1.97875e-07
-6.27913e-06
-1.1266e-06
0.0349312
0.133241
-5.26811e-05
0.189386
-6.58395e-06
-5.26324e-05
-5.32458e-06
-4.67792e-06
-6.9881e-06
-5.79884e-06
0.00839263
-6.6286e-06
-0.000133994
-6.65252e-06
-2.23989e-05
-0.0339868
-0.659108
-6.37225e-06
-0.110656
-0.000990607
-0.00148622
-7.42259e-05
-7.00186e-05
0.0563597
-3.74043e-05
-0.000109094
-0.172019
-0.466079
0.0999866
-8.90235e-05
-0.00790784
-1.29012e-05
-0.000126465
-0.000215837
0.0221656
-4.1525e-06
0.00759477
-4.28767e-06
-4.79385e-06
-0.469938
-1.16913e-05
0.0555846
-1.82579e-05
-4.27438e-06
-0.000562869
-4.33794e-06
-9.78587e-06
2.78592e-05
-7.15175e-06
0.00737438
-5.19527e-06
0.000587335
-0.367741
-8.99594e-05
-0.0386158
-6.80357e-06
-2.18583e-06
-0.000689942
-7.39164e-06
-4.67342e-06
-0.000168614
-6.40806e-06
-5.67609e-06
-6.72308e-06
5.6482e-06
0.0317257
-0.0389213
0.000587056
-0.0115663
-0.0320565
-7.91302e-06
0.0203106
-4.87524e-05
-5.33185e-06
-0.0433412
-0.0136139
0.225073
-7.84982e-06
-0.0185731
-0.020476
-0.0151085
-3.20732e-06
0.0166868
-6.22001e-05
-1.96792e-05
9.26925e-05
-2.89206e-06
-0.0159043
-0.0333507
-0.0493526
-2.17289e-06
-7.01109e-06
0.30138
-4.24114e-06
-0.0675558
-0.00467626
-0.676541
0.0761247
-0.0437746
5.02052e-06
-7.06404e-06
0.00131308
0.000362638
-1.45753e-05
0.00286388
-8.40882e-05
-6.33595e-06
-3.12271e-05
-0.0866634
-5.62729e-06
0.119362
0.0277685
-0.107356
0.00344952
-1.29594e-05
-2.0565e-06
-4.18453e-06
-0.00932739
-0.0343402
-3.06378e-06
1.94281e-06
-2.03407e-06
-0.000261445
-7.79917e-08
-2.17484e-06
-7.40317e-06
-7.38861e-05
-0.0779468
-0.000175501
0.000134916
-8.26589e-06
-2.34267e-05
-0.0219629
-6.80229e-06
0.244631
-0.138671
-0.000146035
-6.73806e-07
-0.000145677
-7.16796e-06
4.99386e-06
-4.05705e-06
0.0662613
0.000228605
-0.056744
-1.47914e-05
0.085883
-7.22401e-06
3.46161e-06
-9.21223e-06
-0.0113744
0.0464734
5.89437e-07
-7.10457e-05
-0.00145451
-0.00254419
2.91622e-06
-0.0827718
-8.54062e-05
0.11711
0.000692855
-0.0140632
0.000125908
-0.00017056
-0.130316
-0.00115628
-0.070219
0.891819
1.0711e-06
0.0161974
2.81205e-08
-1.66748e-06
-2.9022e-05
-5.06243e-06
-0.00318747
-5.53794e-05
-4.13268e-05
-0.00885259
0.000942822
0.0328568
-9.29767e-06
-1.68711e-05
4.35544e-06
-1.6667e-06
6.77342e-05
0.0363655
-0.0621133
-0.0368054
-7.21212e-06
-3.72488e-05
-5.16804e-05
-0.136296
-0.0233715
0.00162894
-1.83375e-06
-6.05457e-06
-0.261636
-3.76736e-05
0.149109
-0.0750667
-0.0152882
-5.61715e-07
-0.0124875
2.22315e-05
-0.000126242
-4.75188e-05
-0.0218644
0.00366236
-0.000643148
-0.06629
-1.67121e-05
-1.414e-05
-5.6836e-06
0.147702
-0.00081958
0.00283497
0.0817412
-2.85213e-05
0.000197166
-9.29822e-06
-0.0185359
-0.00924166
2.92915e-06
0.259767
-0.0126046
0.372474
-0.0216824
-9.91244e-06
-7.03843e-06
0.0356484
-0.0375022
-0.32292
-1.19711e-05
-6.71258e-06
-6.06876e-06
0.0240731
0.000435045
-7.03523e-06
0.0573043
0.000187167
-0.180993
-0.00547618
-0.0664144
-7.67376e-06
-0.0120078
-2.39345e-05
-4.2983e-06
0.000462961
-0.124247
-6.70359e-06
-3.95223e-06
-0.925603
-0.0198191
-0.000113929
-6.82622e-06
0.0225831
3.0423e-06
-0.0597555
-7.42834e-06
-0.256291
-6.91875e-06
-0.000125793
-0.0840956
-0.0207488
-9.83278e-06
0.560153
0.046993
-0.0788461
0.0663636
0.165429
0.00267002
-7.02509e-06
-0.185935
2.55218e-06
-9.19872e-06
-2.16571e-06
0.28316
-5.01204e-06
-0.0488005
-4.04969e-06
2.61415e-05
0.169781
0.000268841
0.0116614
-6.70543e-06
-0.00371456
-4.41614e-06
-7.20366e-05
-0.0457837
0.178058
-5.52702e-06
-0.000303197
-0.0129443
-8.87904e-06
-3.13044e-06
-0.00962851
-8.42281e-05
-9.68218e-05
5.92195e-05
0.238015
0.0135023
-0.0854563
-0.0288343
0.00215569
0.0225762
-0.0474976
-0.657959
-0.000300656
1.78815e-06
0.000113977
-6.85313e-06
-8.09241e-06
-0.118146
-0.0109635
-1.13968e-05
-0.0812537
-0.0668322
0.0999659
-0.0694325
-0.0358156
-5.49753e-06
-0.111358
-0.0323698
3.63794e-05
-1.02431e-05
-0.0284669
0.000594945
-0.0580471
-0.0138009
-0.000200531
-0.0102483
-0.0251054
-7.05717e-05
-1.03394e-05
-6.20792e-06
-0.00604056
-5.85302e-06
-0.0156592
-1.15146e-05
-7.7285e-06
-1.05695e-05
-0.00928437
0.00543088
0.175007
-3.47557e-06
-0.0170308
7.9892e-06
6.40495e-06
-7.4206e-06
2.89778e-06
-0.0327108
-3.06326e-05
-0.00432441
-0.00131376
0.0515837
7.77093e-05
-1.02487e-05
-0.00018026
-6.50703e-06
0.000269242
-1.41426e-06
-7.53816e-06
-3.73299e-06
-9.18481e-06
-0.000940223
-7.79605e-06
-7.22256e-05
1.35366e-05
-6.76385e-05
-0.00448102
0.0352961
-6.43819e-06
-0.000198728
3.76851e-06
0.00932374
0.00057866
-0.075398
0.0667417
-6.34415e-05
-1.70194e-05
-1.27128e-05
-0.107499
-5.42267e-06
0.0358551
-1.00331e-05
-3.71277e-06
-1.06682e-05
-0.0219099
-3.87095e-05
-4.36688e-05
8.68963e-05
4.24889e-06
-1.2449e-05
-0.0176564
0.0158378
-9.63182e-05
-5.77036e-06
-0.0128658
1.93094e-06
-7.59714e-06
0.00291905
-0.0139276
4.34627e-06
-7.10868e-06
-0.00437671
-0.0204052
-7.2488e-06
-7.66495e-06
-0.012134
-9.05657e-06
-0.0442246
-0.037701
0.00797909
-6.82353e-06
0.00118454
-6.90827e-06
-0.0125273
0.00024454
-0.000112151
8.25574e-05
0.18491
-9.1976e-06
0.000204428
0.149574
-4.39671e-06
-0.0261716
-0.000152006
-1.13708e-05
-0.0181178
-6.03063e-06
-4.51238e-06
-3.1404e-06
0.000639141
-0.0501869
-0.0013568
-5.61444e-06
-7.05449e-06
-4.4375e-05
0.0491701
-0.142589
0.00234681
-0.00350464
-7.29472e-06
0.000316395
-0.000330472
-0.0425561
0.000125327
-0.0255046
-5.74658e-06
6.91318e-05
-2.79964e-06
0.311551
-0.000148408
-6.86e-06
-0.13035
0.0515944
-5.60312e-05
-0.00085376
4.90769e-07
4.08187e-06
-0.000134444
-7.96001e-05
0.325761
-0.000323652
0.000152091
-0.000108304
-0.000639009
0.0239947
0.0103064
-0.00198313
-6.66129e-06
-5.09823e-06
0.00606891
0.223832
0.0231746
-0.0640255
-1.20544e-06
0.515497
-0.0161498
-3.44889e-06
-3.15728e-05
-6.39684e-06
-0.000142454
-0.000129257
0.00171923
-0.0745913
-0.130362
-1.08578e-05
-0.0953752
0.114329
-8.22146e-06
-0.00440011
0.400376
0.0100427
-1.80304e-05
-7.02787e-05
9.84567e-08
-1.27766e-05
-9.65364e-06
-8.80059e-06
-0.00360801
0.0609984
0.0385802
1.17899
-9.72455e-06
-0.000115714
-0.000266769
3.68844e-06
-1.01017e-05
-2.64608e-06
-0.0103917
-5.9065e-06
-0.00871075
-0.000166678
0.0015307
-0.00260144
-0.0167717
0.0461303
-0.013086
-0.000132206
8.00579e-07
-0.000127902
-0.00657059
0.0343282
-2.52214e-05
-5.61874e-06
-3.45e-06
-8.16093e-05
-6.05446e-05
-0.00010505
-0.0379059
-8.33382e-06
-3.06744e-06
0.000125515
-0.00679159
0.0443311
-0.0239323
-6.75102e-06
-0.00038429
-4.04141e-06
0.00630302
1.79072e-07
-0.0124637
1.22165e-05
-8.27152e-06
6.65685e-05
-1.27248e-05
0.00585493
-5.61952e-05
-0.000179104
0.00360575
-0.0023196
-2.79133e-05
-5.61555e-05
-6.17679e-06
-0.00956888
-0.0109868
-5.49787e-06
-1.39123e-06
-0.0222828
-1.42474e-07
-0.00717225
4.6647e-06
0.000192382
0.000181635
0.736542
-0.000180842
5.75477e-06
-6.3494e-06
-8.89942e-05
-0.0262436
-6.78991e-06
0.21219
0.0204841
-0.149956
0.308132
-0.000105232
0.0911051
-2.16585e-05
-0.10825
-7.46749e-06
0.031608
-0.0106238
-0.502451
-0.628905
-0.0520949
-4.21113e-05
-0.0182782
-3.86741e-06
0.0661206
-0.0517927
-0.0287204
-0.0016714
-2.67083e-05
0.0555608
0.349895
-0.000130052
-1.20916e-05
-6.97843e-06
-0.00663483
-1.7664e-05
-4.25558e-05
1.87086e-06
-9.45295e-06
-4.75825e-06
-5.23474e-06
-0.0276458
0.0127602
-6.58144e-05
-0.241255
0.0556379
-0.000198831
-7.08224e-06
-3.83753e-06
0.000121977
-0.0121259
0.00729456
-5.11494e-06
-1.32502e-05
0.0198021
0.000398631
-0.000170801
-0.498462
-6.24588e-05
-0.00959044
-4.58977e-05
8.76273e-05
-6.78214e-06
2.34088e-06
-0.000249941
-0.0592169
0.10113
-0.0111246
-8.3194e-05
-0.723494
5.00314e-06
-2.19357e-05
4.52393e-06
0.110705
0.206437
-0.144325
-0.0236309
-1.63043e-05
-5.63255e-06
-6.75887e-06
-9.89569e-06
-2.62444e-06
0.267919
-5.28226e-05
0.175306
-8.82472e-05
-0.0914553
0.157168
-0.0212636
-0.00129002
-3.05706e-05
-0.200109
-0.000227626
-1.05372
-0.00978898
-4.52807e-06
0.019872
-4.0454e-05
0.456371
0.231346
-0.00012545
0.136575
0.0463413
-4.91149e-06
-0.000583667
-1.67055e-05
-0.238321
0.0381044
-1.93506e-05
-6.6371e-06
0.0173192
0.486794
-1.08417e-05
-0.212902
-5.55397e-05
0.000152867
-4.98031e-06
0.234144
-0.0131776
0.000860598
-5.82959e-05
-0.022105
-0.325208
-3.8695e-06
-7.14607e-06
-2.08125e-05
-0.0273699
-0.0222749
-7.55866e-06
0.014775
-7.70652e-06
-6.18385e-06
-8.17135e-06
1.85891
-0.172357
-0.025386
0.0630027
-1.13801e-05
-6.55077e-06
-5.75859e-06
-0.991581
-1.14029e-05
-0.736032
-2.77118e-05
0.152477
-6.20341e-06
-6.27359e-06
-0.000562914
0.218541
-0.0344857
-9.20342e-05
-0.0808538
-1.78489e-06
-5.46509e-06
-7.05372e-06
-9.33473e-05
-0.000336906
-0.00031346
2.88688e-05
-0.0101383
-2.24773e-05
0.000159472
-0.156825
0.0989938
-1.6312e-06
-6.08343e-05
-0.0135617
-1.93945e-05
-0.0902901
-7.28975e-05
0.171245
-5.59607e-06
4.78519e-05
-8.87881e-06
-1.63939
0.0602522
-0.00572212
-0.0181406
-1.50784e-05
-7.48363e-05
-1.13641e-05
0.0126101
4.99236e-07
-6.01908e-06
0.229093
0.00109636
0.267498
-0.0494971
-1.57882e-05
-4.99387e-05
-3.1397e-06
0.113161
-6.10292e-05
1.46256e-05
0.000250252
7.55668e-06
-0.000167168
-5.69496e-06
-0.155278
-1.08485e-05
-0.0244152
0.128914
-0.000113033
-0.0560409
-7.44584e-05
0.00910508
-4.12899e-06
-0.0804299
0.236213
-4.75305e-06
-6.38117e-06
-2.14668e-06
-6.41234e-06
-7.50336e-05
-7.32329e-06
0.128469
-0.000183697
0.0914129
0.0145715
-4.84729e-06
-6.84085e-06
-3.60842e-06
-0.0105485
-5.3325e-06
-5.5659e-06
-0.00673267
-1.61069e-05
0.0605994
-0.01682
9.7039e-05
-3.44171e-05
-8.82951e-05
-5.41646e-06
-7.74435e-06
0.00333853
-9.55263e-07
-1.7899e-05
-0.126615
-0.0100221
-0.0230682
-4.47524e-06
-0.291059
0.12851
-6.07247e-06
0.0736291
-0.0118515
-7.71571e-06
-1.56848e-05
-8.99963e-06
-0.0279942
-0.176477
0.0687366
-2.44713e-06
-1.80814e-05
-3.70395e-05
-6.76719e-06
-1.89683e-05
-8.26279e-06
0.0187233
-0.285001
-0.00664075
-4.28458e-06
-1.81722e-05
-1.26864e-05
-0.180155
7.19114e-07
-0.251491
-0.00559695
-0.128207
-0.40985
0.182455
0.093058
-2.72213e-05
0.0192752
0.170495
-8.28549e-06
-3.09724e-06
-5.81385e-06
-0.0196159
0.0171259
-0.659168
4.33609e-06
-0.0072417
-4.9757e-06
0.000732437
-2.85062e-06
-1.37781e-06
-8.76797e-06
-4.25612e-06
-0.0443248
-7.73859e-06
-0.0923931
-0.372516
-0.333587
-3.87583e-05
-0.000105769
-0.327816
-0.0261002
-6.8033e-06
0.734547
-3.66568e-06
-1.21755e-08
-6.85322e-06
-0.0184167
-1.38747e-06
-0.0068326
-0.000121322
-0.0199169
-7.85027e-05
-0.0619322
-0.0649154
-0.00583902
-4.08304e-06
-0.000184081
0.000146011
-0.21216
-5.40656e-07
1.34473e-06
-1.25706e-05
-0.138353
-9.80458e-06
0.125024
-0.0121761
-0.000147658
-3.25047e-05
-2.55248e-06
-0.0611836
-7.1603e-06
-0.0104694
-2.34419e-06
0.271968
-5.81081e-05
-6.19706e-06
-0.0134804
-0.45366
-1.76186e-06
-1.04301e-05
-1.16953e-05
-0.502353
-0.0226296
0.00297602
-0.0564713
-6.80234e-06
-0.000320286
-0.0150064
-1.20487e-05
-0.0142492
-2.97273e-05
-0.000120881
-7.33748e-05
0.0171241
0.0640444
-5.52389e-06
-0.000647042
-9.20978e-06
-0.000106776
-0.0229573
-0.0141933
-0.000110781
0.000355811
-0.112408
-6.55025e-06
0.109385
0.000361667
-5.95647e-05
-8.18707e-06
-0.0850636
-1.77443e-06
0.663734
-0.0393582
-0.000243613
-9.52058e-06
0.000119874
0.00219098
-0.000163502
-0.0927123
-7.78984e-06
-1.66806e-05
-0.0149032
-0.0637112
-2.5608e-05
-0.0276551
0.0311455
-0.00285148
-8.95555e-06
-0.0623964
-0.182528
0.0657977
-8.36389e-06
-0.000111874
-7.32197e-06
-0.0233973
-0.00124834
-0.0519791
-0.130398
-5.94241e-06
1.35487e-07
-8.04209e-06
-0.057566
-0.107632
0.148478
-0.0976765
-6.02334e-06
0.0296311
-0.0167812
0.000351928
-0.0572537
-0.00243637
4.28169e-05
1.14391
-1.4726e-05
-2.39403e-05
-0.0362563
-0.0191794
0.000203305
-0.0241574
-4.83262e-06
-6.48074e-06
-0.0664616
0.049332
-0.000725814
0.0738507
-7.557e-05
-6.68598e-06
-1.14819e-05
-0.0112207
-0.440579
-7.13888e-06
-9.83876e-05
-0.0654111
-7.15635e-06
-4.78601e-06
-0.00336498
0.332972
-1.92533e-06
-8.2581e-06
-8.04596e-06
-1.1359e-05
0.112754
-6.54442e-06
-9.86464e-06
-1.12603e-05
0.00493545
-0.138991
0.17881
-0.0958717
-5.38093e-06
5.94408e-06
-0.00700939
-0.0206176
1.97786e-05
-0.169646
-9.36474e-06
-8.006e-05
6.05304e-06
0.000335848
0.000244453
-8.00173e-06
0.021495
-7.73262e-05
-4.99385e-06
5.42763e-06
-0.127026
0.200661
0.0168962
-6.97755e-06
-1.50718e-05
-0.0194309
-0.0489596
-1.96974e-05
-1.14335e-06
-8.22478e-06
0.0670445
-4.81775e-06
-3.592e-06
-4.55599e-05
-6.37055e-06
-0.0110376
-0.0915476
-5.73821e-06
-1.46332e-05
-1.11672e-06
-8.37106e-06
-0.0247567
-0.0212291
-0.000262068
-0.14398
0.00580468
-7.15238e-06
-9.399e-06
-5.93667e-06
-6.89755e-06
-6.60884e-06
-8.92391e-06
-0.000477626
-0.0279275
-2.61412e-05
-0.000232098
0.02202
-0.038855
-5.47903e-06
-6.10105e-06
-1.4447e-05
-0.199504
-7.38651e-06
-0.186743
-0.15682
0.00139246
-6.85188e-06
0.0879182
4.36188e-06
-0.0190831
-1.69075e-06
4.22589e-06
-9.00933e-06
-2.05273e-06
0.000863327
0.0116576
-0.0178993
-7.18029e-05
0.224535
0.103789
0.19474
-7.15962e-05
0.0331864
-0.087665
-0.000423422
-0.11321
-0.00514819
3.56359e-05
-0.109083
-6.8315e-06
-2.2538e-07
-0.0342533
-5.8977e-06
-1.7058e-05
0.131468
0.0110683
0.0685936
0.0705968
-4.78346e-06
-0.000588391
-4.97907e-06
0.0135226
-3.84072e-06
0.0256389
0.332802
-0.0152257
-0.0301186
-5.29008e-06
-1.61225e-06
-0.000187345
-0.185221
-0.0127449
-4.65983e-05
-0.374462
-5.6969e-06
-0.235823
-0.00892914
0.000308378
2.3108e-06
-4.88684e-06
-1.14707e-06
-1.57303e-05
-4.76013e-06
-3.96873e-06
-1.57613e-05
-0.00834522
-0.000356371
-0.00276795
0.174064
-0.250079
-0.00204378
-7.7368e-06
4.00597e-07
-5.31312e-06
-1.56071e-06
-6.86441e-06
-0.0317015
-0.0682083
-0.324844
-0.00985734
-1.29624e-05
-0.047005
-0.000444279
-0.0261162
-0.0100541
-8.07185e-06
-1.94327e-06
-0.0150071
-6.02393e-06
-1.78672e-06
-0.199753
-0.0120945
-0.073995
-5.79033e-06
-5.06526e-06
4.76636e-06
-5.45534e-05
-0.134169
-3.78824e-06
-5.14836e-05
0.0199493
2.56889e-06
-0.110385
-8.53796e-05
0.125455
-7.03099e-06
-0.0826826
-0.325393
-0.000148147
-0.0109572
-0.000101225
-0.00619438
-1.06564e-07
-3.7242e-06
-3.98363e-06
-6.07198e-05
1.16461
4.9481e-06
-0.080318
-8.63069e-06
-5.5608e-06
-8.88437e-06
-0.0162483
-0.000169662
-0.000281539
-0.0457012
-3.33265e-06
-0.000370178
-0.00222407
-8.02297e-05
-8.72792e-06
-2.96132e-05
-7.01915e-06
-8.6202e-05
-1.86186e-06
-4.3575e-06
-0.00354607
-0.00285401
-0.0239456
0.26785
0.0641711
0.0182899
7.20531e-06
-0.000576535
-0.000238733
1.10412e-07
3.51579e-06
-1.21323e-07
-8.99443e-06
-0.0114209
-0.0141324
3.76323e-06
-0.177747
-0.0073477
-4.52142e-05
-2.06222e-05
-1.6585e-05
-0.0957864
-0.00235451
-0.010513
0.488688
-0.0129191
-4.58669e-08
0.00932338
-0.000499949
0.127336
-0.0288927
-7.09468e-06
0.000232013
0.00951742
-9.65204e-05
-0.462263
-1.07296e-05
-0.0103054
0.0125556
-0.0151993
-1.47437e-05
-6.48888e-05
0.086452
0.000321555
-0.0113243
-0.0208245
-0.00946999
-8.0928e-05
-0.0674069
-5.04781e-06
1.37929e-05
-0.000181624
0.0142296
0.106579
-0.00650716
-9.87065e-07
-0.000197961
-0.000127119
1.40822e-06
-0.00737763
-7.57909e-06
0.000233747
0.021925
-8.23679e-06
-0.0520181
-0.214687
-0.0145135
-0.0877544
-0.367319
0.0702286
-5.14997e-06
-0.00918125
-3.84107e-06
-2.12232e-06
-0.000141385
-1.83365e-05
-0.0128288
-2.06587e-05
-1.56756e-05
-1.80409e-05
-1.6333e-06
-0.0680915
-3.19896e-06
-3.40444e-05
0.0611078
-4.41572e-06
-0.00642176
-0.000460729
-1.52874e-05
0.130053
-0.0080552
-1.00181e-05
-0.759402
-7.07709e-06
-0.010054
0.183686
-1.00982e-05
0.000148588
-3.92994e-06
-0.00664635
-0.0118326
-0.000372946
0.025334
-8.12309e-05
-7.67041e-06
0.0897834
-1.77523e-05
-8.23411e-06
-0.0696566
-6.98388e-05
-5.99577e-06
-5.28888e-06
-0.000996577
-1.73385e-06
0.0385594
0.0143236
0.00971077
0.158189
-0.000159501
1.11036e-05
-4.82638e-06
-0.00494115
0.0420987
0.323497
-8.18163e-06
9.30901e-08
-0.000478954
-6.83866e-05
-0.0398105
-7.9017e-06
-0.0395687
-2.28365e-06
0.00285768
-4.37508e-06
0.020709
-0.00162808
9.32072e-05
-0.00842833
-0.145018
-0.0120487
-0.0108127
-3.73281e-08
-0.174618
-0.170584
0.0164893
-1.54567e-06
-0.00791016
0.0412838
-0.860358
0.000169217
0.0568162
0.081213
-0.000426464
-7.18147e-05
0.00570717
-4.18605e-06
-0.000194712
-8.50851e-05
-7.59588e-06
-0.000119788
0.250146
0.0264369
-0.609884
-0.285169
-7.37783e-06
-3.99244e-06
-8.79342e-05
-7.37896e-06
-0.014301
-3.56763e-06
-4.76528e-06
0.00935822
0.00438125
0.000171573
-0.000368022
-9.73681e-08
0.000744808
-0.0389294
-0.0133182
-0.0641131
-2.33004e-05
-0.0136867
7.03468e-06
-2.37208e-06
-1.2132e-05
0.00435261
-0.0155389
0.0087389
0.00240311
-9.16816e-06
-5.15766e-06
-7.32797e-06
-6.84644e-06
-3.49342e-05
0.175901
-0.178142
-4.93565e-05
-0.00920582
0.0504704
0.235151
0.512973
-6.54696e-06
-5.38932e-05
0.0214475
-7.2147e-06
0.00218046
-3.86104e-05
-2.0247e-05
-0.0913641
-0.0131136
-3.81091e-06
-7.2282e-05
-5.28097e-05
0.000210271
0.0205449
-0.09385
-0.00451169
-1.2269e-05
8.28948e-05
-0.0122971
-4.74814e-05
0.000308758
0.141891
-0.0944607
0.00306048
-0.000239749
-3.343e-06
-0.0571607
2.26614e-08
-1.92891e-05
-6.3013e-06
-0.000114341
0.00234948
0.0553441
-0.0130975
-1.03226
-9.34132e-05
-1.8787e-06
-5.73914e-06
-4.9818e-06
-6.86922e-06
-0.000160305
0.000930509
-0.00366036
2.15651e-06
0.0679316
-9.28898e-06
-5.22518e-05
-4.61495e-06
-0.0134856
-0.00364613
-1.10889e-05
0.000438233
-0.000309989
0.198687
-0.00399928
-0.00140407
0.515008
-1.31453e-05
0.310464
-0.000199741
-0.0188554
-0.0399061
5.02627e-06
1.41329e-05
-5.36942e-06
-0.00856901
0.01154
-0.000102684
0.18469
0.00128928
0.34557
1.79909e-05
0.058987
-5.56492e-05
-6.84002e-06
0.000235826
1.79826e-05
-2.13631e-05
4.49156e-05
-6.27742e-05
-6.79455e-05
0.026076
-0.0012376
-6.74587e-07
-6.58234e-05
-8.5882e-05
-7.98243e-05
-2.45531e-05
-0.116148
-0.000400169
-0.160757
-2.1582
-5.88098e-06
-0.0112368
-8.58613e-06
-5.33967e-05
4.13183e-07
-0.0110794
-0.000184208
-0.00663882
0.931537
4.62606e-05
0.00156342
0.000100895
0.034268
0.000440405
-0.0208599
-8.57821e-06
-9.57206e-05
-4.34022e-07
-0.0100284
-0.0467658
-6.49052e-06
4.19401e-06
-0.000178894
-3.24037e-05
-8.62251e-06
-0.000126531
-8.82531e-05
-5.24889e-06
-0.000106909
0.484243
0.0918268
-0.00653455
-0.000145654
5.0148e-07
-0.0847765
-7.4097e-05
-0.000143804
0.047859
-8.26982e-05
0.192011
-1.66443e-06
-1.62357e-05
-5.71753e-05
-7.78683e-05
-6.56868e-06
-0.010053
0.017852
-0.102745
-0.000197644
-0.0119772
0.0259717
-3.03384e-05
0.00479499
-0.0001671
0.00340851
-1.35398
0.00016909
-1.94751e-05
-8.68077e-05
-0.000196767
2.6753e-05
-0.00427434
-0.0055261
-0.0275972
-6.72631e-06
0.0162095
-0.0659741
0.174009
-7.37616e-06
-0.000170159
-9.31792e-06
-6.75166e-05
-0.0929005
-5.64629e-05
-5.20704e-05
-5.92109e-06
-6.40833e-06
0.312089
0.00914857
-4.02565e-06
0.206632
0.003901
-1.87967e-06
0.00113642
-0.00941133
-0.000566684
-0.000360373
-6.5103e-06
-3.92364e-05
0.00220547
4.76458e-06
-6.34952e-06