/*--------------------------------*- C++ -*----------------------------------*\
| =========                 |                                                 |
| \\      /  F ield         | OpenFOAM: The Open Source CFD Toolbox           |
|  \\    /   O peration     | Version:  v2012                                 |
|   \\  /    A nd           | Website:  www.openfoam.com                      |
|    \\/     M anipulation  |                                                 |
\*---------------------------------------------------------------------------*/
FoamFile
{
    version     2.0;
    format      ascii;
    class       volScalarField;
    location    "600";
    object      omega_0;
}
// * * * * * * * * * * * * * * * * * * * * * * * * * * * * * * * * * * * * * //

dimensions      [0 0 -1 0 0 0 0];


internalField   nonuniform List<scalar> 
13851
(
0.0233694
1.34799
0.0749291
0.0230751
0.0757389
0.0461273
0.0216173
0.0446184
0.0206618
0.0865468
0.283879
1.97025
2.67063
2.54571
0.0214111
0.0323044
0.024507
0.0276789
1.09118
0.0206574
0.0229168
0.073075
0.0213404
0.0222583
0.0215219
0.045369
0.0238655
7.68055
0.0231987
0.0238982
0.107099
0.0247929
0.0719957
0.427694
0.0222673
0.171237
0.645109
0.164396
0.0962405
0.433847
0.0213082
0.0197579
4.28798
0.275204
0.279813
5.56207
0.277274
0.624257
0.0240679
0.151704
0.0692999
0.127868
3.12502
0.0215704
0.0225163
0.0197619
0.0212836
1.94543
0.0236927
0.0216483
0.146807
2.52492
0.0518057
0.0880136
0.125893
0.0248737
1.96663
0.26988
0.032644
0.0274894
7.37262
3.00683
1.23722
0.0216835
0.0210224
0.0208777
0.0699387
5.27141
0.0453757
6.73559
0.0218413
0.249598
0.0213521
4.5006
0.0555839
2.0245
0.0425421
1.58155
0.0249497
0.020856
0.172227
0.0311356
0.260413
0.0269894
0.0247413
0.022038
0.0777118
2.69586
0.223225
0.022044
2.41353
0.0483126
0.022149
0.0236078
0.0210305
0.0460742
0.0533143
0.0196576
3.52627
0.0560984
0.0223234
0.020923
0.0297619
0.0227547
0.0223193
0.828461
2.75239
0.0196895
0.0228668
0.0229734
4.77134
0.0234946
2.69999
0.482167
0.529801
0.0218996
0.417124
0.0469713
0.0227412
0.12821
0.0212899
0.0207157
5.97188
0.0213533
0.82045
0.0209081
0.0197018
2.93094
2.49107
2.25986
2.37133
0.0224653
0.0225818
0.0201
0.0230541
0.269696
0.0275916
0.127338
0.0216025
0.281171
0.0719804
0.0225177
2.61986
0.0213427
0.0227333
0.0229677
0.0210129
0.0229289
0.127331
0.0683018
0.0197892
0.0269279
1.96685
0.0206996
0.0272875
0.0199264
0.0300659
0.0330827
0.0226215
3.3041
6.50542
0.0203825
0.0210307
2.32102
0.0206916
0.696708
0.0454937
0.0225422
1.32269
0.0196715
0.0255087
3.15046
0.0213524
0.0780223
0.0197658
0.0215478
0.0250351
0.0218431
0.0857715
0.0800092
0.272517
2.49203
0.0211641
0.0327696
2.53521
0.0226
0.0223351
0.363799
0.0223514
0.020909
0.0219224
4.61297
0.0239038
0.0212499
0.0664337
0.0213636
2.74653
0.024632
3.08935
0.0196963
3.38142
0.0220637
0.321067
0.0196267
0.0200174
0.278763
0.0526741
4.89125
0.0213471
3.03821
0.0247862
0.0218802
3.07412
0.123193
3.37493
0.0216366
0.0287913
0.0211939
2.11151
0.0196263
0.0440576
0.353279
0.0203749
0.0210848
0.0618532
0.0419172
2.87547
0.133294
0.0200802
0.0212612
0.0952161
0.419988
0.0202164
0.0717979
0.020691
3.17348
0.0494983
0.412414
0.0230557
0.0253828
0.027288
0.418843
0.0218696
0.023139
0.0496299
0.311925
0.0771712
2.97317
23.3142
0.0214365
0.0200376
0.0265946
0.803456
0.0204734
2.26476
0.0225896
0.0218377
0.0265438
3.10116
0.0453787
0.0272251
0.0227274
0.393359
0.0429835
0.0314686
0.0207255
0.247143
0.0622289
3.62258
0.284171
0.0202292
0.0196564
0.0209636
0.0475896
0.809272
0.691723
0.0207697
0.0214434
0.488306
0.252472
0.154699
0.0234106
0.0216558
0.0349865
0.252375
2.06112
0.0267272
1.99342
0.0207462
3.20959
0.0265887
0.0243846
3.58929
0.0216081
0.0502337
3.07321
0.0207492
0.0414188
0.027108
0.0232198
2.74382
0.0269036
0.0218173
2.95656
0.0198072
0.0256114
0.0228
3.70497
0.11652
0.0213466
0.0498082
0.0213801
10.4525
0.0299596
0.0213497
0.0212569
0.113752
0.0281568
0.0226553
0.0214466
0.0215874
0.0217793
0.281484
3.202
2.77456
0.0301731
3.66803
2.60192
0.0213682
0.03339
0.1557
0.0348488
0.0555545
0.111798
1.21639
0.0248674
0.78306
3.13226
0.0214278
0.146431
0.159062
1.47559
0.0226457
0.0606199
2.08288
0.021057
0.762211
0.0212447
0.0213923
0.0205409
0.0196561
0.0209559
3.20714
0.306363
0.0213597
0.0397927
0.0198572
1.89458
0.0382048
0.66024
2.98689
0.0213716
0.0572797
0.027217
0.668536
0.0212203
0.0197065
0.027966
2.61399
0.0214106
2.77194
0.0342719
0.119293
5.10912
0.275603
0.27323
0.0256008
0.02078
0.0220649
0.0290228
0.0492314
2.76585
0.03307
3.458
3.10448
0.0198703
0.0214439
2.97636
5.03124
0.287851
2.82374
0.0284495
0.0277821
0.022007
2.55872
0.0205048
0.0316449
0.0250067
0.0215527
0.0210784
0.0207235
0.0199128
0.0855264
0.0500937
6.49224
0.0279445
0.0525818
0.032254
0.419673
0.0262642
1.62818
0.0241503
0.246947
0.0196889
0.0207045
0.0217991
0.403415
0.387958
0.118883
0.0312882
8.8843
0.4124
0.0397492
0.0232713
0.0632305
0.0212003
0.420186
0.0210125
2.36269
0.41185
0.0670847
3.21381
0.0226428
0.0508645
0.407777
3.04429
0.0196482
0.029078
0.0465778
0.0507451
0.0204619
0.0217916
0.0674564
0.118722
0.0318334
1.55562
0.0216345
0.0213197
2.35067
0.0280612
0.0196384
1.59822
0.0207695
0.023353
0.0205464
0.0396159
0.0225913
0.0196747
0.0224721
2.97114
0.0213638
0.0351256
0.0208287
0.0283973
0.117406
0.0229074
0.0212719
0.0227841
0.0227684
0.713236
0.021818
0.0418648
0.0213521
0.0217462
2.35898
3.37217
0.021389
0.0291822
0.0264081
0.418774
4.45892
0.0213338
0.298368
0.0212446
0.0758457
0.021588
2.45005
0.0198053
3.65129
0.0761629
0.0197721
0.0291257
2.75747
0.0452234
0.308182
0.0227538
0.516577
0.0229252
0.0206372
0.0207315
0.021562
4.00418
0.0621827
0.125623
1.13126
0.0490444
0.0198307
2.73323
0.386567
0.0256533
0.0271236
0.417943
0.460584
3.42059
0.0223972
2.51484
5.59599
4.81908
0.0276149
0.029964
0.483066
0.0587501
0.237564
0.349832
2.51168
0.0230938
2.56486
3.08394
0.0197017
0.0512622
0.063801
4.18385
0.0232264
0.0212314
0.020989
0.0212579
0.0840729
0.0381617
1.32735
1.48974
0.0207701
2.54853
3.13455
0.298903
0.397086
0.0345287
0.0196061
0.0206814
0.0689474
2.77603
0.022812
0.0861494
0.168783
0.0197487
0.0368185
0.351964
0.33017
0.110838
3.77333
3.11162
0.0212646
0.0215655
1.5139
3.06081
0.123565
0.0329191
0.0602871
0.01967
0.0211109
2.39234
0.0197258
0.0231406
0.0196579
0.0207907
3.10683
0.0842738
0.0293816
0.019715
2.96321
0.347782
0.0207743
0.0210155
0.0205217
0.0219747
2.59827
0.379725
0.34846
4.59473
0.550525
0.0313246
5.74941
3.26761
0.0252786
0.0330955
0.0195998
0.0226063
0.0336186
2.96577
0.791989
0.0848119
0.0280857
0.0206166
0.0319514
0.0224481
0.309968
0.0691696
0.0213434
0.0309962
0.0204639
0.0263151
0.123111
0.0216225
0.0211788
0.0382669
0.0215956
0.0769029
0.283614
0.117668
0.0324425
0.127857
0.0206024
0.141406
0.0282593
4.69771
0.0219936
0.0221051
3.42997
0.0233909
6.10212
3.10935
3.77303
1.60049
0.0205047
3.21384
0.0203938
0.0207845
0.0197988
0.0207986
0.022247
0.0286694
0.0375239
0.0196959
2.57635
0.078499
2.59491
0.0209232
0.0199353
0.020907
0.152109
2.5498
0.0507344
0.026568
0.0204316
0.0218339
0.0215763
0.0210647
0.20737
1.82894
0.021574
0.0196854
0.0215742
0.0210564
1.94261
2.17654
0.0325218
2.63131
0.477139
0.0211619
0.124218
2.82949
0.0344541
2.0136
0.0218266
0.026822
0.0498325
0.027092
0.318323
0.0213769
0.458391
0.0210672
0.029505
3.02141
0.0209703
0.0228534
0.0552915
0.0206455
0.0250784
0.733806
2.69922
0.0673727
1.86048
0.284036
0.0196415
0.0209029
2.46273
0.161736
0.04509
3.14272
0.0205518
0.0241681
0.0197167
0.567286
2.02574
0.0253268
0.0218316
0.139228
0.0240021
0.0208732
2.56041
0.530348
2.85147
0.0197917
0.0215651
5.34133
3.8282
0.147103
0.0222217
3.42756
0.0213655
0.208206
0.13353
0.0717268
0.0246686
4.08118
0.026527
0.0229472
0.574135
0.0220065
0.0238826
0.0227256
0.020585
2.46523
0.0309264
0.111961
0.028886
0.0838466
0.0206375
0.749593
0.0226586
0.0265543
0.020022
0.0211269
0.0214131
3.03376
0.0209744
0.0197418
0.203107
0.0215838
3.95293
0.0212605
0.0224691
0.0668183
2.03565
0.342882
0.0209248
0.127791
2.63908
0.0218487
3.23023
0.0292335
0.0205577
0.0293704
3.35949
0.123383
0.025562
0.0208869
0.0196701
0.402225
0.0803336
0.0552803
0.0263098
0.02923
0.0221101
0.0223299
0.0852503
0.345849
0.0837003
0.812564
0.0215469
0.0770822
0.0804283
3.75565
0.0251682
2.01619
0.715494
0.0215975
7.00119
0.111988
2.5805
2.86564
2.89702
0.333948
0.0395538
0.0205731
0.0284179
1.97238
5.64422
0.0211878
0.0217812
0.0639027
0.236563
0.0197914
2.97523
0.0205305
0.0213737
2.39055
5.2556
0.286323
0.0207739
0.0214066
3.13463
0.199
0.115288
0.0235656
2.57317
0.330912
2.56414
0.0525518
0.0390144
0.0218213
0.021579
1.17593
0.0474947
5.77809
0.0294536
0.032622
2.60475
2.55753
3.45474
0.0214391
0.0299231
0.0207614
0.0330756
0.0227724
1.81293
0.0243053
3.12298
0.0197865
0.0654569
0.0211322
0.150501
0.0318706
0.0295511
2.66797
0.0416399
0.0418348
0.0223854
0.06534
0.690325
0.0713098
0.0232237
6.46746
0.020408
2.98623
0.314774
0.0216087
3.35466
2.54226
3.61626
0.335183
0.0286848
0.0211764
2.86525
0.0243715
0.819172
3.09876
0.0209303
0.0225592
0.346859
0.326964
1.84044
0.0215402
0.0208928
1.29989
3.04925
0.111358
0.0251434
0.0229469
0.310834
2.75596
0.0833195
0.0197478
0.0400289
0.0206601
0.023358
0.230528
0.0220749
2.37817
0.409759
0.021382
0.0227507
0.0211995
0.0227785
5.93857
2.74092
0.0287008
2.1091
0.0211308
0.0287288
0.0211317
0.0206756
0.0215467
0.0213672
3.93698
0.0213901
0.0499105
0.0214426
0.0257242
0.246664
3.45148
0.0227793
1.54069
0.057841
1.35278
0.0316408
0.0319741
7.74204
0.0263223
0.0392375
1.81138
0.65819
3.0194
0.038944
0.282339
0.0219018
0.0396744
0.0494593
1.88176
0.0213925
2.07335
0.0208854
0.0209409
2.65527
0.0214714
2.33429
0.0249138
0.0207463
0.0344742
0.0207611
0.0214127
0.0207468
0.0217838
0.184019
0.0209472
0.181617
2.5216
0.0592321
2.51243
0.0215611
0.022697
0.0238075
0.0212688
0.0207395
0.076521
0.0218775
0.0208293
0.0218836
0.0216052
3.84549
1.8639
0.0637081
2.80607
0.257382
0.0211058
0.524207
0.0278998
0.0209384
0.307769
0.117939
0.283765
0.021081
0.277465
0.328402
2.23089
0.0204085
2.66307
0.0302181
0.0237555
0.0209308
0.0205598
2.66348
0.0910471
0.691409
0.0209152
0.0213128
0.301402
0.0216269
1.95202
0.326158
1.18136
1.39594
0.29609
0.0217234
0.0213234
0.0579575
0.0287589
0.0236029
0.155785
0.0406777
0.0219096
0.0228268
1.9885
0.0208487
3.6495
2.3102
0.807567
0.180201
0.0222864
0.0202147
0.0217085
0.306939
0.400106
0.0204079
0.0232412
0.0208849
0.0744753
0.0198674
0.0208475
0.0219118
0.0318095
1.41639
0.0406047
0.0307068
0.0214682
0.0499995
2.44082
0.0221616
7.64077
2.38455
0.0776203
0.0199874
0.0425758
0.0212262
0.0213875
0.0216472
5.12109
0.116528
0.376337
0.0236697
0.177009
0.0212782
0.0211233
0.021615
0.539984
0.127299
0.0197674
0.0314318
0.0539384
3.49952
0.0228908
1.58658
0.0221908
2.7016
0.0741635
3.27442
0.0867125
0.0765206
0.401579
3.05839
0.315085
3.73422
0.0212684
0.1719
0.0198532
0.0233131
0.0257003
0.0215996
3.11299
0.028872
0.0269173
0.326187
0.175455
0.701284
0.0213626
0.0234099
0.0257473
0.0202918
0.0294882
1.38321
0.582551
1.10172
0.0209456
0.0263785
0.0239249
0.400998
2.88649
0.0570602
0.0201923
0.021819
2.71647
0.0439559
2.48183
2.67369
0.0361158
0.0199673
2.76883
0.0288764
0.0422635
0.0277931
3.29109
0.3081
0.116904
0.10461
0.0222179
0.0271887
0.0213818
3.30165
0.0464825
3.1998
0.167623
0.0255309
0.140926
0.0225596
3.3271
0.267612
0.0208705
0.320418
2.98371
0.427869
3.36826
0.0216412
0.021344
5.65396
2.51417
2.55526
0.0227907
0.0215707
0.0213762
3.74585
0.135929
0.0217651
0.214366
0.0846543
2.84633
2.68711
0.676111
0.0214252
3.34641
0.0243181
0.0212524
0.13503
2.54051
0.0216235
0.020877
4.15096
3.26416
0.0216216
0.0209299
2.08668
0.0208162
0.0960127
0.0209461
0.41187
0.0213382
0.0507086
1.11615
2.93594
0.0223943
3.46049
0.402976
2.58001
2.25784
2.61566
0.0330944
0.0211613
2.31202
0.022938
0.0213793
0.0202653
0.324302
0.021144
0.451237
0.0208943
0.0231115
5.14634
0.0640053
2.35155
0.0227078
0.0275127
0.0207234
0.0314694
2.8781
2.34915
0.0208665
0.0638842
0.326993
0.0215835
0.020571
2.93265
0.0331664
0.0339061
0.124685
2.28682
0.143238
2.66642
3.30806
0.0352752
0.27931
0.391547
0.952393
0.0638365
0.0201691
0.122151
0.021149
0.0211363
1.96142
2.97276
0.0229914
3.22133
0.170496
3.93565
0.249496
0.0788564
0.0212233
0.231841
0.088981
0.0210987
0.0224833
3.13402
2.79258
1.57697
3.34916
0.0371849
3.15713
3.22997
0.0309372
0.0217501
0.0210445
0.250842
0.0210054
0.230539
0.0223859
0.0220087
0.0231654
2.55085
3.67192
2.55106
0.021856
2.85704
0.0248056
0.0288871
0.0209902
0.0208749
1.94111
0.0266597
3.28367
1.17462
0.159045
0.1115
0.0214798
0.038954
0.0215814
0.135881
0.0223866
0.0226261
0.0217789
0.0224421
0.152128
0.0220599
0.0337046
0.0211651
0.0342885
0.140154
5.82824
0.021057
0.0464317
0.0213236
0.0643328
0.0231217
2.65789
0.184769
0.0306445
0.0235184
0.0224395
0.256973
0.0212511
0.0905412
0.0214278
0.020959
0.0222156
2.94638
0.0264752
0.0244094
0.0285803
0.0213986
0.061538
2.85748
2.09479
0.0344961
0.0213895
0.0589759
0.0202196
0.0210405
0.178348
3.10395
0.0211703
0.0297749
0.0904175
2.94404
0.0218023
0.0219878
3.1419
0.0224702
0.0998171
0.275034
3.77493
0.0213518
0.0244148
0.0212481
3.32008
0.126673
0.0403791
0.114022
2.6468
0.0223161
3.64057
2.50442
0.0215929
2.60677
0.0777234
0.0224108
1.96232
0.0215363
0.0212209
0.0205007
0.175826
0.156741
0.158022
0.0226541
0.0222184
0.029264
0.340461
0.462113
3.63512
0.329822
0.0219664
0.127199
0.125603
2.3308
0.0717131
0.239141
0.0210185
0.0284243
0.0205781
0.239177
0.035514
0.0212414
1.97983
0.180496
0.0314853
0.0258071
0.0196975
0.0213314
0.0511798
0.0331996
0.316203
0.0639476
0.064093
0.0570024
0.111669
2.50671
0.0610329
3.56664
0.0210713
0.0208332
0.172716
2.90978
2.65396
0.071818
0.0225574
5.48446
0.327493
0.0210077
0.025874
0.0208235
0.0398277
0.0673148
0.0310073
2.44532
0.386777
0.0225261
2.56806
6.53476
0.0214212
0.0773184
2.41198
2.37968
0.0235854
0.071707
0.0196188
0.0231381
0.021068
0.0249822
3.51599
2.65655
2.31722
4.02585
0.0224964
0.0330232
0.0514909
0.0210239
0.0219045
0.0205685
2.99071
0.0209673
3.44224
0.0353803
0.0466576
0.155022
0.194329
4.72383
3.03093
0.0390867
0.0198867
0.0228038
2.87694
2.17243
0.0244663
0.02079
0.0206443
0.060668
0.0296087
0.139891
2.69575
0.0224637
0.0205212
0.117284
0.0503323
6.34948
0.954078
0.0209414
0.0691198
0.0215405
3.54437
0.0200362
3.15579
0.0210488
0.0224035
0.0300343
0.0219574
0.0583971
0.029201
0.0455305
2.06078
2.79734
0.0248963
0.0291783
0.0212146
2.96086
2.33143
0.0218318
0.0200907
0.324396
0.0196664
3.882
0.0212468
0.032715
0.0668223
0.741254
0.0369118
0.0226042
0.0215931
0.0671893
3.18569
0.0211616
0.17583
3.16564
1.0353
0.599226
0.0325191
3.63131
0.0250779
0.486858
0.0212785
0.329862
0.332303
2.66462
2.91054
2.53012
0.0216118
0.0407911
0.0208677
8.27264
0.304933
3.04997
2.00033
0.0265266
2.56345
0.753073
0.0337187
0.0226518
0.0216119
3.37498
0.0252883
0.0667472
0.0232877
0.0216287
0.0206758
0.0215373
2.71173
0.174554
0.0303249
2.7939
2.32704
0.0213067
0.0213131
0.020558
0.0274398
3.13962
0.193269
0.0252306
0.0247648
0.106695
0.0742158
0.0429405
4.03621
0.02957
3.45253
0.0294593
0.0285959
0.0212886
0.0232235
0.0674244
0.33122
0.311977
3.16842
0.0674008
3.21353
0.024332
0.0241324
0.0215229
2.1842
3.04863
0.495425
0.150407
0.0233429
0.0213969
0.0210898
0.0214243
0.0205868
3.30569
0.0285515
3.08714
0.0313395
2.62363
2.32708
3.18949
0.0317988
0.0255225
2.44664
0.0378444
0.621739
3.34164
0.0206227
0.180567
0.0266701
2.91917
2.76534
0.0336991
0.240926
0.431836
0.0230322
0.0500188
0.0241549
4.14681
0.299167
0.0237515
0.0215893
0.334833
0.810717
0.1242
0.369883
0.122316
0.0279116
0.0212243
1.94272
3.11804
0.0745094
0.0300127
2.76497
2.38123
0.0208856
0.0214126
0.0239618
3.11381
2.98814
0.0213434
4.26712
0.0220046
0.021067
0.021589
5.03708
0.735914
0.0471127
2.74936
0.0227846
0.02259
0.0209802
3.52924
0.0222753
3.29251
0.0237147
1.477
0.0218033
0.0211493
0.117296
3.30867
0.316901
0.0346524
2.55423
0.0200664
0.0215058
0.0214233
0.042829
0.0621336
0.0620774
0.0352828
3.24234
0.0241026
0.119842
0.124487
2.47158
0.0214304
3.3976
3.06814
0.0247207
0.47139
0.0629578
2.39011
0.0215931
0.0642973
0.0210993
0.760432
7.40642
0.0754832
3.34272
0.0233308
0.0470156
0.0223848
3.93472
0.0199549
0.020807
0.478086
0.0840482
2.66512
2.84139
0.0615711
0.0279356
0.0204841
1.35123
0.0293727
0.0211437
0.139876
0.0206554
0.0417758
0.0213897
1.11529
0.0226332
0.270299
0.272648
0.0299388
0.411818
0.0523363
3.57384
0.0213074
1.17244
1.70729
0.0207285
0.0213645
0.0227493
0.0218303
0.0381052
0.0212667
0.441111
0.0727897
0.212647
0.067948
0.0214983
0.0218441
0.0204908
3.13023
0.0215252
0.0212805
0.22216
0.0236895
1.53197
3.3554
0.0847124
0.0239672
0.0325986
0.0225416
0.0219914
0.0378974
0.0201481
0.0238107
2.13496
3.23552
1.22494
0.0224928
2.44254
0.14076
0.0218469
0.139974
3.08421
0.0213578
0.0233574
0.0213145
3.26627
3.27544
0.496976
0.0201297
0.0237898
0.0231404
0.0215901
0.124966
0.0215457
0.105607
2.81806
3.49639
0.020603
0.0236856
0.0233336
3.89634
0.0196886
3.0577
2.02475
0.258886
0.695995
2.74119
2.55426
0.0226514
0.455947
0.472215
0.0223105
0.0204658
0.0208767
3.31864
2.37642
2.81049
0.021307
3.47322
0.0215766
0.158781
0.0205031
0.0230521
0.0222518
0.0205926
3.37133
0.0223706
1.89073
2.43762
3.03179
0.0452352
0.0500969
3.30548
3.14648
0.0218656
3.71175
0.0204966
0.0197088
0.0213012
0.0369019
0.0207183
2.09933
0.0288674
0.0486394
0.0363352
2.00881
2.44391
0.0831945
0.0205684
0.0522793
0.0720201
3.5087
0.0214551
0.019894
0.0229689
2.0546
0.0216161
0.197116
2.03349
0.0399027
0.0582973
0.0214846
0.32401
0.0217691
3.16682
0.0202561
2.65226
0.030442
0.021517
2.07538
2.88198
0.020194
0.062996
0.024286
2.63365
0.041096
0.121916
0.0487376
0.0217762
0.0521466
2.59758
0.0210627
0.0378876
0.0230047
0.0734833
0.0314944
1.99802
3.02082
0.0215318
3.43404
0.0223307
0.0425024
2.88839
2.04983
0.0347731
3.02618
0.314414
0.0216013
0.177474
0.124712
0.0300418
0.0223248
2.64353
0.0202232
2.78487
0.0440951
0.105581
0.0213526
0.0298051
3.24004
0.0430639
2.57424
0.02202
0.0236015
0.0867434
2.70414
0.0256808
3.1689
0.792963
2.1693
0.0216037
2.69392
2.28723
3.36011
0.0214012
0.0223259
0.0213089
3.25267
0.0268596
0.334182
0.254833
0.021803
0.0203251
0.0213719
3.55455
3.03274
2.39012
2.60582
0.0209672
2.59101
3.19596
0.126241
2.31311
3.08434
0.033776
3.09858
0.0232071
0.0253495
3.20636
2.68478
0.0219874
3.11985
0.0217541
0.0214042
2.76264
3.08589
3.64753
8.79067
0.0304203
0.0218067
0.0231926
3.32461
2.77918
0.0211737
0.0448214
0.488095
0.0214351
0.0215233
3.01999
2.87317
0.0228903
0.021437
0.0222375
0.022501
0.111151
0.0218134
0.0211548
0.0253911
0.123883
3.26148
0.44576
2.55222
0.0215443
0.0244566
2.8667
3.2004
0.0276617
0.182135
0.0213328
0.0347071
0.0226188
0.0225016
0.0637155
0.0210886
0.792844
0.0318715
0.0208468
0.0241585
2.38486
1.57726
3.59422
0.0214485
0.0247593
3.29572
0.581943
0.0238248
0.0213797
0.0214842
0.271814
0.0215385
0.0219171
0.027372
0.0213513
2.90499
0.13702
0.0217612
0.0239675
0.0200681
0.0215396
1.28913
0.54783
0.0676288
2.29929
0.052708
0.0218669
0.021313
0.0215133
0.0212741
0.0217403
0.0238893
0.067475
2.84349
0.0225945
0.105908
3.49025
0.0466932
0.021235
0.0208236
0.0233082
2.79497
0.021229
1.79431
0.513897
0.0439657
0.0220863
6.32364
0.0200878
0.124296
0.0204355
0.0201191
0.0216682
0.0208237
0.0338605
2.68017
0.301309
0.0373749
1.91517
0.11911
0.178547
0.030963
3.10541
2.25733
0.104401
2.63718
3.0692
0.110549
0.285385
0.0218265
0.0207261
1.60244
0.0210222
0.0240509
2.53737
0.0778426
1.85292
0.165887
0.0207759
0.0231076
0.0214982
0.0821086
0.0204735
0.126768
2.59619
2.91269
0.885473
0.0214938
0.0202566
0.0691474
3.21076
2.94219
0.113385
1.46065
0.020877
2.22103
3.58307
0.055924
0.0236387
0.0215207
0.0200138
0.0231342
0.0214535
0.0213345
0.023844
2.9121
0.0737926
3.24937
0.206555
1.74786
0.172101
0.0212717
0.0210614
0.0220145
0.0205798
0.0217946
0.540451
2.54909
0.503592
3.42955
0.0232669
2.63521
0.143978
3.20467
3.27571
0.021502
0.0208178
0.323448
0.0214898
0.0202089
0.381163
2.92361
2.60097
0.0214046
0.0215236
0.0238246
0.0368132
2.39214
0.020515
0.0239403
0.68296
0.0204719
0.399974
0.0363214
2.34061
0.021795
0.362449
3.1271
0.0344352
3.28392
0.109067
3.33042
0.0200674
0.0248577
0.0208477
0.0291667
3.84332
0.0214672
2.03463
0.0218423
0.0215989
0.0214475
3.32935
0.0427151
0.10787
0.388222
0.0206704
0.0423158
2.00005
0.0523362
0.0207791
0.022882
0.0214913
0.0453177
0.021313
0.0209073
3.42337
3.55885
3.22523
0.757631
0.845392
2.35829
0.0673017
3.54194
0.120605
0.0200071
0.0210375
0.019679
0.0216328
3.36427
3.31212
0.020385
2.26689
3.28869
0.0287157
0.0224849
0.024795
2.61505
2.96895
2.95243
1.27688
2.96249
0.0196819
0.228691
0.097554
0.240092
3.27063
0.0213385
0.124996
2.0974
0.0318807
2.87327
0.0217993
0.149051
2.20102
3.08674
0.0715811
0.0305258
5.23668
0.126222
3.13488
3.16008
2.88535
0.110456
2.63799
0.0215405
0.0246449
0.0454718
4.12212
0.316616
3.45144
0.0222133
0.111875
0.0656285
0.0223636
3.11437
0.0213576
0.125676
3.89818
0.0213667
2.45301
2.7403
3.14272
2.64722
1.31518
0.478769
0.0211022
3.40322
0.0217535
0.0209063
0.0400507
0.0236917
3.13726
0.0238741
0.0248964
0.0239347
0.0208198
2.52455
0.0228134
0.113538
0.147451
0.020608
3.7419
0.0976407
0.0226129
2.09174
0.252193
0.0213515
0.780001
0.0220347
3.27242
0.204757
0.0204175
0.112662
0.0228815
3.48325
3.00545
0.0694042
1.10571
0.0255174
0.0214908
2.56815
0.0238616
0.0213132
2.53216
0.0392377
0.0208807
0.0208333
0.125477
0.0226887
3.82428
0.246493
0.0628855
2.38054
0.0507455
0.0604322
0.0211484
3.52053
6.22884
2.86621
0.021406
0.020296
0.0694358
0.0298808
0.361654
0.0213435
0.498313
0.0212518
0.121652
0.0218912
0.0735383
0.159516
0.111022
3.56727
1.23132
3.03894
2.99663
0.0197133
1.33646
1.87904
4.53704
0.02118
0.145923
5.92852
3.22649
0.11247
0.971699
0.782576
3.59804
0.0439125
0.211468
0.0205783
0.0457914
0.0412599
0.0213217
0.0669365
2.55375
0.22851
3.18074
2.03157
0.0211643
0.0208306
0.0294233
0.0213286
0.891584
0.0205437
0.0207971
3.7059
0.183177
0.0324255
0.0983759
0.0224603
0.0814154
2.32113
3.08872
2.20257
0.0252422
3.04916
0.0228584
0.020568
0.0231268
3.16978
0.210943
0.222473
0.172676
0.0222805
0.0208497
0.0213287
0.0218425
0.0262006
2.36105
2.11206
0.0281894
3.15617
3.85769
0.402457
5.95171
0.0214307
0.0291647
0.0725643
0.0214128
0.0256651
0.0264467
0.0238143
2.52576
3.11175
0.0205379
0.0383762
0.0290733
0.0663984
3.48998
2.38071
3.53095
0.0216456
0.0787828
3.40563
0.0778752
0.1123
0.155816
2.62957
3.74019
3.51505
0.0205117
2.62658
0.0203674
0.0230072
0.0213435
0.0585977
3.6835
6.62404
0.500862
3.15196
0.0549552
0.0201537
0.0208076
0.0215248
0.0231739
0.0425002
3.60274
3.3842
0.0735191
0.106457
0.0216463
0.0546387
0.0206601
3.12761
0.0689552
0.0215689
0.137407
0.0987863
1.91124
3.65099
0.125982
3.7683
0.0245506
2.98086
0.215266
3.16166
0.317434
0.0227518
0.054227
0.0214898
2.93353
2.53244
0.0391025
2.99058
0.214034
2.28896
0.0644104
0.171138
0.0404468
0.0208935
0.116854
0.0563737
0.0240058
0.0539022
0.0302749
0.0317728
2.067
0.153732
0.0230315
0.029681
0.035422
0.0313287
0.0227307
2.26678
0.106697
0.120195
4.92508
0.0213984
3.19907
0.0214662
0.0241377
0.0233253
3.13779
0.0367544
3.18604
4.82666
0.0579555
0.0434322
0.114666
1.80714
0.129676
1.1161
0.0243431
0.0440362
0.0209483
3.22899
0.420221
0.0242464
0.0215822
0.0359942
0.0256394
0.0241737
0.0473008
0.038419
0.0216046
0.0331959
3.16857
2.5876
0.109299
0.0399631
0.0198217
1.88041
0.0315471
0.0616445
0.0913344
0.0415992
1.93997
0.0202381
0.0244391
0.0240823
0.0324863
0.0212139
3.34669
0.102891
2.38428
0.0362991
3.19625
0.189314
0.025407
1.7853
0.0630472
0.181736
3.16446
0.0437772
0.0238668
0.0393163
0.0651402
0.0241529
0.736614
3.82638
0.294684
0.0208996
0.200687
0.964096
1.5995
0.0212657
0.0429518
0.021118
0.0300347
2.53804
0.028831
0.0284926
0.0208903
0.0208677
1.74271
3.10761
0.0213763
1.91535
0.18058
0.0201673
0.0259259
3.26468
0.111086
0.0992742
0.02138
0.0267283
0.100377
0.0217439
0.0210617
2.87033
0.0287686
3.31063
0.0795352
0.0258399
3.69366
0.114627
0.155603
0.0209329
0.377032
0.0293895
0.0262442
1.43748
0.0392056
0.0215751
0.0809598
0.0242851
0.0249348
0.0201592
1.20169
0.0213653
0.0627597
2.27225
0.0971284
0.0208513
0.619065
0.030089
4.19678
0.20058
3.49153
0.104548
3.07973
0.020692
0.0732272
0.0252041
0.0211279
0.353761
2.33484
0.0247505
0.0796383
0.0250746
0.06921
3.5538
0.0257002
0.261523
0.204508
3.36759
1.91705
0.124654
0.0286115
0.0207585
0.0651743
0.034628
0.568297
1.84235
3.11303
2.41529
3.27368
0.0208409
0.321468
0.0214025
0.0223665
0.0215677
0.426214
0.147101
0.0737909
0.0210411
9.8839
0.0269271
3.65479
0.0209239
0.0589553
0.0296694
0.0665683
0.0411567
0.0998953
0.0227548
0.149735
0.126783
0.0209566
2.36179
0.179909
0.0479125
0.0227194
0.0294224
0.021608
0.0210685
0.0616294
0.0268155
2.41305
0.181708
0.0810771
0.0902488
0.021189
1.47346
0.0616769
2.40158
0.0299402
0.0304291
0.370279
0.0309143
0.0392912
0.0649272
4.3868
0.0233732
0.0216626
3.01043
0.031034
0.02353
0.0271353
0.029547
0.0205449
0.0262052
3.21906
0.0215949
0.0411213
3.26303
0.109158
0.068631
0.278799
1.18514
3.36548
2.9325
1.53334
0.0535721
1.25957
0.0226725
0.0246
0.021503
0.0209929
2.01047
0.433161
0.0313307
0.0207392
0.0984675
0.0860068
0.0212976
0.0355431
0.0510844
0.0212296
0.0229555
1.51747
0.0261959
0.0362306
0.0360012
0.0214181
0.0779511
0.0620193
0.0291474
0.89004
0.0742381
1.63853
0.12292
2.9618
0.0233313
2.87365
0.155844
0.140656
0.0638069
1.95724
0.0711983
0.0261097
0.0475938
0.0640707
0.0233622
0.0665264
0.0210951
0.0212569
0.0201239
0.0242888
3.29535
0.0204335
0.100359
0.0242789
0.0235695
0.0241102
0.821517
0.0232578
0.0592023
0.0215396
0.0242285
0.0247674
0.0207667
0.106768
0.0234606
0.0205867
0.0222629
0.0284705
0.0210019
1.90841
0.0268564
3.05389
0.137372
2.72073
0.057291
0.0670012
0.0353796
0.039115
0.0264486
0.0248631
1.70803
2.95796
0.123317
0.0592692
0.0308988
0.0214471
2.42457
0.0389145
3.24313
0.0215861
1.02714
0.137347
1.53208
1.41324
0.020133
0.0214165
0.0203736
0.0284143
3.01391
0.0463066
1.02861
0.0256343
0.0284413
0.0210072
0.0218407
0.0331771
0.0235243
0.0238586
0.020946
0.240666
0.121933
3.20094
0.0248393
0.766117
0.0207453
0.020315
0.100814
0.0219294
0.0240099
0.0621119
0.0240284
0.0662653
0.0214233
0.0255391
0.0215424
0.0243415
3.18456
0.0211782
0.023457
0.0226064
0.0237591
0.769756
0.0217768
0.047745
1.45134
0.0244633
0.029185
0.0224065
0.023345
0.021787
0.128964
0.0214707
0.0262564
2.70044
0.0208313
0.0288178
0.0479921
0.0577845
2.81712
0.0201077
0.0236537
0.0224053
0.0296377
0.0964473
0.132886
3.2439
0.0202724
0.0279193
0.0720111
0.0237509
2.283
0.0200023
0.0215749
1.90019
0.0391189
0.0235635
0.0200681
0.112951
0.120274
2.28251
0.0215747
0.168876
0.0200412
0.0205491
0.0234277
0.073501
3.72634
0.0215301
0.0209292
0.17674
0.0214752
0.0231541
0.419598
3.12264
0.0214698
0.0205094
0.0222737
0.030837
0.19245
3.2886
0.0218616
0.101139
0.0214407
0.0213597
2.4226
0.0231533
0.0218591
0.0297152
0.203472
0.126807
0.0232479
0.0221371
2.51087
0.0393625
0.0223494
0.122264
3.23195
0.0214863
0.0217453
0.0230817
0.0213629
0.0214803
0.0208726
0.0202586
0.0382231
0.0229942
0.0436751
0.045866
2.04544
0.696024
0.0303592
0.0200876
0.0213865
0.0221737
0.023067
0.0392586
0.0284905
1.71377
0.0235275
0.0821784
0.02412
3.98654
1.99654
0.0280725
0.0228694
0.118428
0.0237237
0.0264178
0.0213923
0.0222939
0.0211104
0.0921739
0.0422486
0.0476866
0.101646
0.0231443
0.0252693
0.0222166
3.33439
2.26741
0.364819
0.026707
0.0932107
0.0833403
2.92703
0.0219357
0.588208
0.0622003
0.0214008
0.0217915
2.16649
0.0215196
0.022422
0.0231661
1.17865
0.0214945
0.0217498
0.0253831
2.14647
0.0209658
0.0494552
1.11655
0.0234951
0.0215119
0.0211612
0.0214246
0.0217666
0.0217215
0.0345187
0.0226874
0.0214983
0.021732
0.0217581
0.0281937
0.0213836
0.277876
0.0215567
0.021712
0.0369237
0.0525735
0.0254909
2.24567
1.13222
3.38096
0.0361605
0.0208556
0.0376713
2.384
0.0202338
0.36436
0.0236831
1.09805
0.023165
0.0416016
0.0217579
0.0213869
0.109825
0.209448
1.65564
0.18799
3.38467
0.0217314
0.0209241
2.30681
0.0202052
0.0215028
3.19531
0.0210132
1.95743
0.0214451
0.171244
0.102101
0.0236311
0.0871055
0.0263436
0.0729955
1.1482
1.30855
1.36795
2.55027
0.224688
2.30578
0.021559
2.28029
0.0214775
0.0213146
0.0209958
0.0219151
1.09226
0.0223777
3.18238
0.0215172
0.0213766
0.0215661
0.0732764
0.0216755
0.0206857
0.0530782
0.0251617
0.0259484
0.0249195
0.0279152
0.235338
2.33117
0.828024
0.109804
0.0940548
0.0223358
1.02657
0.02145
0.0282676
0.0711605
2.63503
0.0419429
3.42288
0.0214833
0.738745
2.40312
0.141222
3.40427
0.2415
0.0234205
0.0213259
0.0238806
0.0214729
0.0213076
2.76237
2.77696
0.0210739
1.78549
0.0214179
0.102533
0.0209911
0.216116
0.0268317
0.0233041
0.0207433
0.0842411
1.1606
0.318448
0.0206145
0.0206861
0.0261545
0.0220822
0.0221985
1.26397
0.337696
0.044822
1.7949
0.0422046
0.0217838
0.0306034
0.078402
0.0218841
3.05583
0.0533138
0.374065
0.0230562
0.0240135
0.0203192
0.0196868
0.0213717
0.0261624
0.0207939
2.02633
0.0382123
0.124226
0.0212802
0.0404145
0.0214702
0.214496
0.0394374
0.0525787
3.0655
0.0256538
0.0213381
0.0247085
0.0218068
2.41061
0.112578
0.0408136
0.0529824
3.46779
2.47357
0.1049
0.0482476
0.0214007
0.0229957
0.0231169
0.049287
0.769172
0.0259646
0.0215632
0.448687
0.332161
0.0217728
0.0232142
0.0535701
0.0223079
0.0209695
0.0389602
0.0214264
0.0218696
0.0209423
0.0234101
0.0220294
0.0454212
1.97131
0.0214631
0.505117
0.0941187
0.103055
0.0209331
0.0215307
0.0378311
0.0256346
0.0214338
0.0704158
0.0213505
0.0493331
0.0215976
0.0403345
1.7263
0.0522524
0.022517
0.0568987
0.952459
1.09008
0.021432
0.034492
2.62274
0.0212023
0.0222027
0.0735747
8.11564
3.29849
0.0236438
0.0213562
0.0382841
0.0212321
0.0222827
0.0275211
0.0217774
3.50964
0.0217888
1.06922
0.0214704
0.0214663
0.0488965
0.0213671
0.0215529
0.0275804
0.788296
0.0205679
0.033026
0.021856
0.0211571
0.0217062
0.0276275
0.0254827
0.0664813
0.0230696
0.0217506
0.0218208
0.0370521
0.0223593
3.34784
0.0220045
0.103797
0.032526
0.0229378
0.0271356
1.08119
0.0215094
0.0220352
0.0200254
0.0747973
0.359599
0.0216082
0.0351264
0.0209467
0.0341806
0.0214477
0.179622
1.44274
0.023442
0.0251411
0.0268171
0.0406637
0.0222022
0.0207443
0.0457908
0.021409