/*--------------------------------*- C++ -*----------------------------------*\
| =========                 |                                                 |
| \\      /  F ield         | OpenFOAM: The Open Source CFD Toolbox           |
|  \\    /   O peration     | Version:  v2012                                 |
|   \\  /    A nd           | Website:  www.openfoam.com                      |
|    \\/     M anipulation  |                                                 |
\*---------------------------------------------------------------------------*/
FoamFile
{
    version     2.0;
    format      ascii;
    class       volScalarField;
    location    "100";
    object      k;
}
// * * * * * * * * * * * * * * * * * * * * * * * * * * * * * * * * * * * * * //

dimensions      [0 2 -2 0 0 0 0];


internalField   nonuniform List<scalar> 
13917
(
0.000165235
0.00014968
0.0695342
0.000154979
0.000148645
0.000192158
0.0692864
0.0681229
0.0629889
0.000172427
0.00019857
0.000187281
0.000155183
0.0130302
0.000155504
0.000154522
0.000150036
0.000172528
0.000187178
0.000148654
0.000149774
0.068461
0.000148501
0.0683293
0.000148078
0.0697056
0.000161586
0.000164314
0.000205939
0.000181197
0.000166668
0.000157855
0.000160099
0.000154485
0.00014827
0.0326726
0.000148566
0.0421072
0.000158971
0.0263504
0.00014736
0.000149902
0.000145398
0.00016812
0.000149553
0.000155869
0.000172218
0.000177484
0.000392089
0.000147978
0.000158537
0.000149805
0.000454038
0.000154796
0.000150085
0.000157692
0.00019576
0.000148613
0.000155314
0.000149354
0.0625272
0.000149706
0.00618756
0.00014857
0.000190833
0.0112052
0.000148666
0.000148565
0.000190118
0.000162988
0.000148687
0.0630153
0.0351568
0.000148088
0.000408438
0.000196007
0.0250255
0.000151666
0.0685975
0.00014956
0.000149326
0.000148704
0.000188969
0.0460406
0.045647
0.000151444
0.000149147
0.00437264
0.00015818
0.000145371
0.038796
0.000177724
0.000148156
0.000151405
0.00690849
0.000188358
0.000186842
0.000176041
0.000213582
0.000170074
0.000146633
0.000158557
0.000167992
0.000152752
0.000146811
0.0638352
0.000192347
0.000178053
0.000150084
0.00016769
0.0437452
0.0297527
0.00019295
0.0637961
0.00015115
0.000426686
0.000147916
0.000260173
0.0292242
0.000154781
0.000149822
0.00018956
0.0305774
0.000163687
0.000147771
0.000151104
0.000149338
0.00014784
0.00014542
0.000190353
0.0471175
0.000150982
0.000149648
0.000149825
0.000147749
0.0686227
0.000165346
0.000170706
0.000148618
0.000154621
0.0164732
0.000147242
0.000150408
0.000170226
0.000148573
0.0582146
0.00020988
0.000149658
0.000146878
0.000158315
0.000176203
0.000430527
0.000185976
0.000163677
0.000157408
0.0222082
0.0001622
0.0275791
0.0210409
0.000147238
0.000153143
0.000161748
0.00014956
0.000186308
0.000192427
0.000204343
0.000152667
0.000175987
0.000148665
0.000159028
0.000164268
0.0252396
0.000196782
0.000150893
0.0523994
0.000164757
0.0502231
0.000304824
0.055022
0.000148041
0.000178616
0.000167391
0.000147234
0.000149082
0.000158149
0.0715629
0.000206514
0.0290811
0.000164909
0.000199029
0.00754591
0.0512512
0.000203421
0.00014857
0.000171876
0.00016123
0.000153174
0.000148233
0.000180872
0.000738126
0.000158799
0.000148085
0.000175056
0.000176061
0.0308286
0.000150515
0.000148268
0.000148718
0.000175876
0.0716656
0.000150172
0.0685112
0.0227497
0.000198978
0.000146817
0.000197873
0.000174034
0.0262966
0.000147714
0.0470367
0.000147945
0.000179872
0.000147198
0.0430252
0.0642786
0.000154861
0.000379064
0.000157731
0.000146826
0.0292745
0.000196529
0.000164754
0.0696643
0.0186237
0.000146332
0.000158291
0.0425913
0.0333804
0.000149505
0.000147494
0.030703
0.000187945
0.000149758
0.0132255
0.000181444
0.000161368
0.000164243
0.000149503
0.000164124
0.0206938
0.000149357
0.000182377
0.000173307
0.000149226
0.00014853
0.000182643
0.0385329
0.000185297
0.000158332
0.000155701
0.00014979
0.0244325
0.0465372
0.0307464
0.000146845
0.033936
0.021127
0.0366007
0.0672449
0.000198069
0.000149405
0.000147392
0.000172468
0.0358803
0.00018441
0.000154951
9.74034e-05
0.000178605
0.000145359
0.00753264
0.000148482
0.0552705
0.00015814
0.000149722
0.000156766
0.000163619
0.000161691
0.0182608
0.00016011
0.000149697
0.000234991
0.0693171
0.0550067
0.000147712
0.0356062
0.00014908
0.000149698
0.00014796
0.00022566
0.000148574
0.000181408
0.000163675
0.000148552
0.000175462
0.000152195
0.000339597
0.000164448
0.000176415
0.000148007
0.000148451
0.0413013
0.0275214
0.00014788
0.0001473
0.00505236
0.000148005
0.0378643
0.00014789
0.0454657
0.000151457
0.000213791
0.000164688
0.000448572
0.000152741
0.000170217
0.000184477
0.000156795
0.000187624
0.00019853
0.00014972
0.0438557
0.000171468
0.0245519
0.000153718
0.0248277
0.000158948
0.0582714
0.000180577
0.00017247
0.00017198
0.068639
0.000149415
0.000164764
0.0486096
0.000149282
0.000152513
0.0223946
0.000183897
0.000150768
0.000894523
0.000202308
0.000146875
0.0244108
0.0184534
0.000148436
0.000147197
0.000149135
0.000146855
0.000232257
0.0534881
0.000206881
0.0463883
0.000148
0.000184485
0.00746105
0.00017044
0.0678176
0.0400329
0.0642413
0.000146363
0.0261089
0.000147079
0.0295274
0.000149329
0.0004645
0.00018149
0.000156952
0.000149279
0.00017518
0.000180246
0.000177245
0.000676168
0.0525084
0.0207855
0.000164562
0.000171545
0.000147545
0.0369633
0.0679783
0.000148783
0.000231915
0.000148189
0.000211611
0.00015143
0.000149488
0.0001522
0.0642636
0.000152126
0.042954
0.0119632
0.000195343
0.000192824
0.000149691
0.000194156
0.000190266
0.000148101
0.000185555
0.0001492
0.000148165
0.000181161
0.00014972
0.000148133
0.000147047
0.000210837
0.000149639
0.0288857
0.0696931
0.00530356
0.000203141
0.0492619
0.0257858
0.000170129
0.000148015
0.00019228
0.000158477
0.000159374
0.000148517
0.0574795
0.0702993
0.0701597
0.000154363
0.000183372
0.000153365
0.000159705
0.000177098
0.000151649
0.0279773
0.000150074
0.000148539
0.0418699
0.0488548
0.0515764
0.000181534
0.00360428
0.0481986
0.0487961
0.024674
0.000145591
0.000174252
0.000151746
0.00014886
0.000206087
0.000172731
0.00014953
0.000174429
0.000168637
0.0237992
0.000148071
0.000184433
0.018211
0.000235764
0.0341399
0.000149693
0.00014884
0.000153012
0.000162227
0.000146366
0.0728191
0.000199936
0.000160092
0.0358992
0.000157628
0.000187111
0.0533704
0.000211259
0.000194968
0.0190192
0.000184681
0.000173754
0.00019067
0.000174201
0.000215589
0.000206756
0.000179198
0.000179862
0.000147934
0.0001738
0.000159164
0.000146995
0.000161456
0.000151968
0.0254918
0.0637127
0.000147896
0.000145628
0.0729568
0.0211359
0.000149721
0.0276222
0.000152478
0.000195464
0.000148024
0.0292282
0.00167596
0.000158298
0.000150334
0.0534557
0.00020009
0.0113953
0.000149777
0.0235255
0.000341357
0.0085506
0.000147106
0.0407239
0.0689519
0.000170881
0.000147159
0.000149941
0.000197403
0.000227565
0.000148752
0.000147214
0.000147544
0.000147505
0.0295792
0.000205573
0.00017054
0.000205295
0.000147845
0.000146668
0.000182943
0.0619375
0.000162748
0.000148785
0.00014812
0.000148507
0.00911698
0.057613
0.000149102
0.000148461
0.0245362
0.000173444
0.000164711
0.000148742
0.000152285
0.000156873
0.000179575
0.000192689
0.000206442
0.000192442
0.000181861
0.000140031
0.000176231
0.000147762
0.0241922
0.000148524
0.000152939
0.000155753
0.000167779
0.000169522
0.00014672
0.000237021
0.000183441
0.00636142
0.000181933
0.000160276
0.000169762
0.000149208
0.0601035
0.000216061
0.0621734
0.000149759
0.000160168
0.000205945
0.0416391
0.00709683
0.000176672
0.000184158
0.000154355
0.000153943
0.000148777
0.000165069
0.000168832
0.000149223
0.000173862
0.000172393
0.0629017
0.0134433
0.00015361
0.000186757
0.00163569
0.000157731
0.000149961
0.000440814
0.0530036
0.0613678
0.000203254
0.000145525
0.0276136
0.000196176
0.000147067
0.00016109
0.000180342
0.000159553
0.000181033
0.0684461
0.000189931
0.000171195
0.0604519
0.000152568
0.0209384
0.000149567
0.000149054
0.0393944
0.0556057
0.000205811
0.000152569
0.000150741
0.000148462
0.000178903
0.000453405
0.000204386
0.000154256
0.000194421
0.00017496
0.000148064
0.000352019
0.000204872
0.0315569
0.000147657
0.000189182
0.000151887
0.0162804
0.000172923
0.000169487
0.000160377
0.000147003
0.000146858
0.000149488
0.000173434
0.000156126
0.000205446
0.000519846
0.00017561
0.000146933
0.000189414
0.000206821
0.0346521
0.000149227
0.000155732
0.000147259
0.000163486
0.000155543
0.0689639
0.000149503
0.000415773
0.000162787
0.000198485
0.000177523
0.0350212
0.000170234
0.00014979
0.0330459
0.0109093
0.000148778
0.00015566
0.00159944
0.000198378
0.000184243
0.000149544
0.000150431
0.000201296
0.000157216
0.000176963
0.000181998
0.000146928
0.000176556
0.0693309
0.000149189
0.000153309
0.000147687
0.02582
0.000149765
0.000154006
0.0271134
0.000152212
0.0521075
0.000157412
0.000160325
0.000147635
0.000165995
0.000148014
0.000173121
0.000147039
0.000172464
0.000152461
0.0185598
0.000319683
0.0623451
0.000151718
0.000149333
0.000175422
0.000169099
0.0282556
0.0631587
0.000172217
0.000148237
0.000209158
0.000207125
0.0288122
0.00020328
0.000172061
0.0686776
0.000164672
0.000177153
0.000188573
0.000177779
0.00017196
0.000236768
0.000171553
0.000154582
0.000181016
0.000156936
0.000148009
0.000163196
0.0001678
0.000157773
0.000148074
0.000147408
0.000175311
0.00015343
0.000177214
0.000148215
0.000148298
0.000149818
0.000152071
0.000145245
0.000155842
0.000147832
0.0284923
0.000188304
0.000187677
0.000146481
0.000149631
0.000163347
0.00017402
0.000150647
0.0191976
0.000173748
0.00840464
0.000163095
0.000185498
0.000151028
0.000149788
0.000147381
0.000152183
0.0196808
0.000149685
0.000666289
0.000156214
0.00902146
0.000164905
0.00017431
0.000198989
0.000146151
0.000149935
0.000188344
0.000148509
0.000150089
0.00868994
0.000151079
0.000149136
0.000158405
0.000147444
0.000146055
0.000157856
0.000156436
0.022547
0.00016299
0.000149187
0.00014712
0.0452843
0.000173291
0.000149489
0.000149758
0.0125157
0.00106217
0.0217757
0.000160286
0.000154592
0.000146399
0.000145929
0.000179443
0.000163592
5.05028e-05
0.000154038
0.0401319
0.00015017
0.000152447
0.0186705
0.000148242
0.000159439
0.000148444
0.000148423
0.00016707
0.000161917
0.000150968
0.0543254
0.0347279
0.000177887
0.000147751
0.000145865
0.000199932
0.000784256
0.000149718
0.000124205
0.000145807
0.000166704
0.000148273
0.000148262
0.000232039
0.000149292
0.0545855
0.000166022
0.000149816
0.00014563
0.000148793
0.000147535
0.000153062
0.00042946
0.000148915
0.000147813
0.0608197
0.0617336
0.000172032
0.000168613
0.000176591
0.000156008
0.000147359
0.000156431
0.0289668
0.000173183
0.000148775
0.000150151
0.0636755
0.000165532
0.0531927
0.000149769
0.000150833
0.0227424
0.000164215
0.000151206
0.0174754
0.000284271
0.000147489
0.000186993
0.000147363
0.000149136
0.00014643
0.0371726
0.000145155
0.000149453
0.000147356
0.0580392
0.000157439
0.000195363
0.000165801
0.000148317
0.000158841
0.0001491
0.0481474
0.0001476
0.000149031
0.000149144
0.000200076
0.000149088
0.000189927
0.0299495
0.0703574
0.000155358
0.0145218
0.0315826
0.000148413
0.0229182
0.0727699
0.0352757
0.0489123
0.0602507
0.00728197
0.000188342
0.000150057
0.067319
0.000164
0.0664187
0.000146938
0.000148166
0.000149547
0.00014905
0.000157239
0.000158315
0.0313724
0.000148073
0.000148449
0.0104395
0.000186313
0.00014879
0.000160425
0.000159903
0.00015014
0.000310367
0.000160894
0.000152577
0.000157242
0.0287313
0.0229047
0.000254509
0.000148152
0.000200135
0.000183397
0.0332474
0.0646687
0.00019797
0.000148046
0.0001512
0.000150154
0.000144839
0.000152262
0.000145497
0.000156973
0.000164177
0.0404983
0.00018624
0.000149502
0.00018491
0.0497941
0.000166045
0.000149678
0.0222464
0.000148415
0.000149846
0.000160646
0.0418806
0.000149087
0.000147684
0.0676484
0.00431878
0.00128948
0.000183015
0.0291343
0.00014753
0.000192229
0.000149805
0.000147834
0.0001498
0.0719897
0.0263317
0.000147908
0.000145633
0.000148594
0.00217648
0.000151833
0.000160439
0.000148485
0.000150424
0.000192125
0.000148441
0.000173584
0.000195244
0.0527851
0.000149074
0.000171687
0.000153822
0.0330323
0.0474967
0.000148111
0.0399021
0.000177338
0.000265423
0.000149082
0.063412
0.000149602
0.000157427
0.000166207
0.000182989
0.0723693
0.0360842
0.000111158
0.0547947
0.000146881
0.000217194
0.000148248
0.000156924
0.0667792
0.000148927
0.00014966
0.000151544
0.000149987
0.0385398
0.000146011
0.000148429
0.000176719
0.000169017
0.000172902
0.000204325
0.000216817
0.0189528
0.000192865
0.000165001
0.000176589
0.0301891
0.000172257
0.0247358
0.0686817
0.000157354
0.000148516
0.0495616
0.0315024
0.000149669
0.000183849
0.000163122
0.000151004
0.000157735
0.000150159
0.000166348
0.000149943
0.000171822
0.000170876
0.000147108
0.000174144
0.000148222
0.000166707
0.000147012
0.000154936
0.000174519
0.000153749
0.000149901
0.000147933
0.000289425
0.000175507
0.049908
0.000148136
0.000149547
0.00017578
0.000148426
0.000180611
0.000175473
0.000151001
0.000181539
0.000148092
0.0291565
0.000149565
0.000170888
0.0253062
0.00021454
0.000147585
0.000152747
0.0255121
0.000147854
0.000147334
0.0372386
0.041411
0.000153037
9.60838e-05
0.000148586
0.000149902
0.0723978
0.000151979
0.000146215
0.000164295
0.000148342
0.0106898
0.00014928
0.000146188
0.000149498
0.000216955
0.0426277
0.000149053
0.000149707
0.000147522
0.000155247
0.000148389
0.000227584
0.000173626
0.000149774
0.0560457
0.000165043
0.00022418
0.0509678
0.00043509
0.000147729
0.000149536
0.000148789
0.000206523
0.000155702
0.0420025
0.0299984
0.000152699
0.0661021
0.000317708
0.000172195
0.000232745
0.000169051
0.000189253
0.0724922
0.000167255
0.00037783
0.0488691
0.00018469
0.000154626
0.0313143
0.0001643
0.00014708
0.000153091
0.0544185
0.000163012
0.000147829
0.000166301
0.000182251
0.000164466
0.0322368
0.000153062
0.04669
0.000175562
0.0252636
0.000185743
0.000201376
0.000159393
0.00014797
0.000150853
0.0703865
0.000147818
0.000152961
0.000147087
0.000152322
0.000148228
0.000160532
0.000213744
0.000296689
0.000162853
0.000165134
0.0705779
0.000190381
0.000148279
0.00231396
0.072467
0.000146693
0.000147282
0.000160872
0.0227499
0.000149674
0.000176508
0.000208424
0.000166738
0.000148686
0.000153437
0.000148499
0.000183808
0.000163204
0.000147769
0.0199006
0.0686473
0.000163668
9.98006e-05
0.000185721
0.000917816
0.000152109
0.000156359
0.0735298
0.00025338
0.000198092
0.000264392
0.000158255
0.000149839
0.000149219
0.000149687
0.00014837
0.000150513
0.000166724
0.000147628
0.000190229
0.000147435
0.000158907
0.00014804
0.000174471
0.000194421
0.000292867
0.000148315
0.00020131
0.000149207
0.0722786
0.000148168
0.000154407
0.000148729
0.000184291
0.0319103
0.000224454
0.000147626
0.000186209
0.000148776
0.000159412
0.039248
0.000148964
0.000149836
0.000168213
0.00016109
0.0669315
0.000147644
0.000158412
0.00015371
0.000148129
0.000158732
0.000150546
0.000146202
0.000152354
0.0226801
0.000154297
0.000494862
0.0603875
0.000171897
0.0455208
0.000153948
0.000146237
0.000159047
0.0203758
0.000154121
0.0001623
0.000171442
0.00156817
0.000147428
0.00321853
0.000174529
0.000176767
0.000146619
0.000145702
0.000126664
0.000150002
0.000149904
0.000159227
0.00014693
0.000153318
0.000158587
0.000182707
0.00018147
0.0699686
0.000158388
0.000181743
0.0532873
0.0243393
0.000170513
0.000181516
0.0218073
0.000166844
0.0464297
0.000152271
0.00691872
0.00360421
0.000147088
0.000149724
0.000147534
0.000151839
0.000167879
0.000148131
0.000152612
0.000199441
0.000152782
0.000160482
0.0356942
0.000157745
0.000154769
0.0630479
0.000151198
0.0273504
0.000156036
0.000165189
0.000147372
0.0231071
0.0273555
0.000148808
0.000152149
0.0659465
0.000157385
0.01455
0.000147996
0.000148366
0.0637488
0.000151932
0.000162557
0.00973971
0.000148427
0.000172533
0.000159002
0.000145704
0.000147177
0.0676191
0.029781
0.000149915
0.000153566
0.000148734
0.000156494
0.000160134
0.0235105
0.000150685
0.000328662
0.0368977
0.0278319
0.000282161
0.000151732
0.000207983
0.00017823
0.000157141
0.000148315
0.000180272
0.0376714
0.000151994
0.000162856
0.0673678
0.000460032
0.000183511
0.000154064
0.000149682
0.000149614
0.000148509
0.0238065
0.000174395
0.000154564
0.000152468
0.000154509
0.000149797
0.000148294
0.000148469
0.000181291
0.000174246
0.0553987
0.00016356
0.00931731
0.0454546
0.000158799
0.000172428
0.000146592
0.000157758
0.0197726
0.000149472
0.000152821
0.000173433
0.000184324
0.000164563
0.0671074
0.00450611
0.000148406
0.0388478
0.000145481
0.000150285
0.000163953
0.000149817
0.000149354
0.000190041
0.0348447
0.000148353
0.0733784
0.000149438
0.000147683
0.000152654
0.000352057
0.000158876
0.000156056
0.0597419
0.000151785
9.14886e-05
0.0558283
0.000149608
0.000163801
0.000147914
0.0294823
0.000176753
0.000148541
0.0713202
0.000173333
0.000167971
0.000149855
0.026028
0.000157447
0.00018773
0.000153065
0.000167399
0.0241241
0.000147796
0.000249283
0.000148996
0.000174311
0.000164006
0.000149601
0.0299607
0.000152622
0.000184019
0.000173479
0.000169603
0.000162922
0.000163219
0.000150536
0.0676429
0.000159282
0.0243601
0.00015804
0.000181259
0.000148913
0.000167429
0.000148605
0.000194255
0.0718359
0.000151229
0.000147339
0.000454475
0.00015192
0.0546916
0.000150885
0.073563
0.0293234
0.000162971
0.000147793
0.000147479
0.000148666
0.000145561
0.000182821
0.00016584
0.000160861
0.000155811
0.000148436
0.000170987
0.000153751
0.000162271
0.0490062
0.000148486
0.0195949
0.00017308
0.000165176
0.000250876
0.0336353
0.000238567
0.0732109
0.000681008
0.000147418
0.000195891
0.0307143
0.000187122
0.000149094
0.000149428
0.000189129
0.07049
0.0282896
0.000221313
0.00015111
0.000164542
0.000167373
0.0530727
0.0029132
0.000170969
0.000187092
0.0001533
0.000175089
0.000199552
0.000149035
0.000182792
0.0126002
0.000148787
0.0216722
0.00014967
0.000149122
0.0298105
0.0416015
0.000146817
0.000151394
0.000150778
0.000148314
0.000166114
0.000190689
0.00015334
0.000147766
0.00014855
0.000172988
0.00015802
0.000157706
0.00023486
0.000148307
0.043787
0.0164499
0.0548747
0.000175436
0.000171355
0.00112466
0.00016356
0.0671891
0.0202703
0.00116946
0.000150388
0.0733011
0.0464355
0.000146309
0.000148094
0.000181536
0.0536786
0.020097
0.000148391
0.000148781
0.0500586
0.00080237
0.000873813
0.000153628
0.000152659
0.000291347
0.000149411
0.052217
0.0298117
0.0303243
0.000285332
0.000148735
0.000147574
0.000147048
0.000155041
0.0353615
0.000170464
0.000157625
0.00015049
0.000172354
0.0238042
0.000173187
0.0412738
0.0135139
0.0280438
0.000311919
0.000148275
0.000149085
0.0736613
0.000145892
0.000146988
0.000151698
0.000391382
0.000165926
0.0391141
0.000186904
0.000148052
0.0623854
0.000165979
0.000148216
0.0156124
0.000175869
0.000154015
0.000150073
0.00556533
0.0548394
0.000149136
0.0276441
0.0403585
0.0625352
0.000285572
0.000174979
0.000147941
0.000151128
0.000349396
0.000156047
0.0729464
0.000166906
0.000332836
0.000175476
0.000151098
0.000157544
0.000148091
0.000150752
0.0559884
0.0231875
0.000148487
0.0203916
0.00017139
0.000148805
0.000153892
0.000147462
0.000190253
0.000150712
0.000315796
0.000164727
0.000147911
0.000146954
0.000169723
0.0186074
0.000166486
0.000153476
0.000167327
0.000148555
0.000152464
0.000159394
0.0193109
0.0367772
0.0546807
0.000146148
0.00014691
0.00015018
0.000206398
0.000147125
0.000150337
0.00019029
0.000175952
0.00957428
0.000146894
0.0535151
0.0373623
0.000149885
0.0184024
0.00018487
0.000169869
0.000318388
0.000150005
0.0352025
0.000157718
0.000151502
0.000152704
0.000145851
0.0131103
0.00015303
0.00015266
0.000157908
0.0429491
0.0447092
0.000149621
0.000148024
0.000152997
0.000149061
0.000187038
0.000150036
0.000179237
0.000153743
0.036271
0.000152102
0.0630533
0.000146208
0.0653851
0.000150665
0.000145778
0.0642623
0.000184678
0.00017198
0.0311742
0.000162498
0.000168062
0.000148457
0.0318744
0.000148486
0.000147153
0.000168708
0.000189338
0.0465457
0.0389713
0.000185394
0.0390303
0.000186506
0.000238795
0.000149359
0.000155547
0.000159947
0.0444174
0.000153737
0.0459449
0.0325557
0.000150475
0.000148793
0.000148617
0.000359062
0.000423955
0.000153274
0.000148625
0.000155274
0.000158161
0.00016636
0.000213176
0.000191363
0.0001483
0.000204165
0.00017878
0.0185112
0.000177072
0.00015231
0.000153704
0.0608462
0.000147023
0.000180161
0.0711817
0.000150974
0.000155409
0.000190759
0.000173134
0.000150903
0.0224699
0.000154495
0.000218789
0.000176185
0.000158464
0.000152113
0.0527207
0.000146914
0.000170941
0.000262794
0.0597972
0.000170767
0.000174282
0.000157827
0.000163806
0.000149758
0.0619842
0.000158668
0.000149372
0.000160522
0.000148502
0.000149777
0.000393105
0.000148361
0.00014912
0.000148785
0.000187768
0.000149534
0.000161605
0.000180885
0.000196236
0.000184713
0.000149666
0.000182598
0.000193065
0.000197373
0.000178567
0.000155888
0.000189441
0.0697809
0.00022855
0.000149888
0.0057009
0.0729109
0.000149883
0.000154103
0.00014573
0.000217927
0.00018185
0.000149804
0.000252916
0.0441665
0.000146585
0.000149423
0.0662662
0.0356123
0.000189429
0.000145951
0.00910176
0.0515259
0.000494054
0.000148032
0.0455978
0.000197609
0.000167306
0.0479636
0.000157068
0.000145812
0.000160356
0.000193499
0.000162627
0.0703653
0.0550387
0.000147337
0.0426531
0.000196567
0.0355025
0.000146215
0.000163857
0.000149673
0.000147965
0.0530132
0.0021294
0.000210339
0.0264748
0.000158055
0.000171216
0.000150996
0.0598408
0.0264872
0.000148493
0.000150105
0.000158454
0.000148668
0.000172729
0.0630385
0.0377053
0.000171566
0.00015089
0.000150316
0.0507624
0.000154172
0.000172779
0.00014717
0.00015159
0.00023343
0.00221916
0.000138789
0.000361275
0.000149073
0.000207825
0.000151744
0.000163893
0.0497423
0.0200263
0.000148383
0.000149958
0.000169779
0.000154676
0.000149339
0.0570519
0.0448273
0.000147739
0.000145188
0.000149213
0.000147622
0.000331958
0.000147792
0.0688342
0.000182835
0.000190389
0.000148134
0.000166811
0.0582181
0.000164043
0.000193186
0.0478023
0.000149647
0.0220181
0.000159048
0.000159795
0.000188686
0.0239338
0.0349311
0.000185738
0.000147474
0.000187581
0.000147838
0.000154148
0.000149388
0.068756
0.000159214
0.000277047
0.0276804
0.0001708
0.000148746
0.000202299
0.000158493
0.000149786
0.000182035
0.000145386
0.000175378
0.000163454
0.000149277
0.0315393
0.000152381
0.000203424
0.000151048
0.00014746
0.0563045
0.049657
0.000152978
0.000158669
0.000171614
0.000171031
0.000180113
0.000158955
0.00015534
0.000156027
0.0024801
0.000154211
0.0709632
0.000166542
0.0177099
0.000208197
0.00015179
0.0588343
0.000145407
0.0709539
0.000153013
0.0500882
0.000101165
0.00145895
0.00113357
0.000212109
0.000168247
0.000149658
0.0608996
0.000169424
0.000148511
0.0213774
0.0601186
0.000151806
0.000154555
0.000160344
0.000160374
0.000163893
0.027924
0.000149883
0.000165237
0.000167895
0.000159634
0.00014903
0.000187732
0.000145874
0.0724618
0.000152569
0.000187019
0.000161499
0.000167066
0.000181412
0.00238766
0.000179076
0.000147323
0.000185709
0.0651962
0.0577081
0.000151098
0.0732068
0.00015982
0.000297204
0.000148486
0.000153792
0.0500935
0.000181958
0.0270301
0.0238997
0.00015917
0.0591784
0.000148554
0.000145842
0.0198936
0.000165078
0.000153758
0.0617785
0.00015715
0.00016348
0.000158004
0.000175296
0.000149808
0.0476749
0.0643387
0.00873551
0.00021772
0.000156003
0.000171037
0.0287615
0.000153289
0.000149816
0.000175328
0.000146187
0.000183415
0.0497524
0.0250007
0.0261919
0.000177256
0.000151323
0.0475772
0.000145484
0.000181012
0.000149551
0.0338887
0.000153234
0.000164441
0.0420636
0.00018501
0.000148037
0.000159607
0.0121337
0.000148838
0.000187988
0.0001475
0.0132003
0.0470038
0.000185114
0.000167635
0.00014751
0.017387
0.000194495
0.000166794
0.000147483
0.000151584
0.000148896
0.00017711
0.000148736
0.000187736
0.000149081
0.00014788
0.0734621
0.000148272
0.000157098
0.000156982
0.000149827
0.0481846
0.000148086
0.000161497
0.0475939
0.000180872
0.0691108
0.000148721
0.0555438
0.000181957
0.0602932
0.000152848
0.00018948
0.000150513
0.000168258
0.000191883
0.000193179
0.000200695
0.0431919
0.000197629
0.000378846
0.000155681
0.000189
0.000163094
0.000240369
0.00015408
0.000150291
0.000148457
0.000175772
0.000164878
0.000114626
0.000173467
0.0716643
0.0211709
0.000170235
0.000148613
0.00347385
0.00017816
0.00015018
0.000152992
0.00014882
0.0639054
0.000148454
0.01999
0.000148142
0.000159137
0.0333818
0.000170227
0.000148243
0.000148391
0.0204411
0.000148038
0.000153247
0.000156041
0.000160766
0.000158007
0.00014951
0.00019152
0.000167782
0.000162785
0.000205476
0.0438462
0.04654
0.0251056
0.000146263
0.000148193
0.00017139
0.000151324
0.000163307
0.0726271
0.0421471
0.000145897
0.000148419
0.0562275
0.000167374
0.00014607
0.000147418
0.000155355
0.0569168
0.0704647
0.000156949
0.000162295
0.000149296
0.000210371
0.000193262
0.000173904
0.000158366
0.00016364
0.000149991
0.000165288
0.000214776
0.000150856
0.000149898
0.000156614
0.0702671
0.000154493
0.0226428
0.000148614
0.0477128
0.000162225
0.000156258
0.000146429
0.000147397
0.000236044
0.00842142
0.000164864
0.0350002
0.0577584
0.000150415
0.0428545
0.000223182
0.000148074
0.0364569
0.00679972
0.000184835
0.000149671
0.0500165
0.0365821
0.000149337
0.000162818
0.0350333
0.000166224
0.000148843
0.000147765
0.000150667
0.00015445
0.000178642
0.000222833
0.000167509
0.000177303
0.000146523
0.000149452
0.071394
0.000147867
0.000167831
0.00015529
0.000150533
0.000171259
0.000148049
0.000152782
0.000207008
0.000147843
0.0386125
0.000148055
0.00336161
0.056608
0.000181327
0.000149725
0.000149948
0.0469458
0.000145776
0.000153962
0.00014982
0.000199842
0.000239519
0.000163251
0.0521338
0.000162782
0.00126822
0.00015032
0.000179247
0.000148434
0.000148846
0.0200512
0.0462872
0.00028687
0.000153319
0.000177766
0.000178405
0.0377236
0.046399
0.00020281
0.000165836
0.000145426
0.0407527
0.000148815
0.000149068
0.000202443
0.000190899
0.000157008
0.000177841
0.000163975
0.000159789
0.000157987
0.0610399
0.000154621
0.000147798
0.0205562
0.000164145
0.000146558
0.0464155
0.000148082
0.000148641
0.000190328
0.000184109
0.0412234
0.000146646
0.000153906
0.000147561
0.000310961
0.000147885
0.000199471
0.0267112
0.0539228
0.0450197
0.0133657
0.000157696
0.0353802
0.000221995
0.000149367
0.000158626
0.000162834
0.000157944
0.000247809
0.0364263
0.0504477
0.058516
0.000358476
0.000149272
0.000184429
0.000148134
0.0198328
0.000159474
0.000153426
0.000154094
0.000151468
0.000147784
0.000183123
0.0515599
0.000146151
0.000153314
0.000146898
0.0317976
0.000153097
0.0681515
0.066701
0.000300031
0.000148553
0.000147856
0.0319618
0.000190312
0.000148843
0.000188735
0.000149502
0.000185164
0.000177274
0.000181489
0.000174272
0.0056655
0.000147193
0.000148515
0.00284206
0.0492844
0.000159317
0.000166317
0.000147961
0.0245814
0.00014806
0.000147563
0.000152393
0.000148279
0.00750407
0.0374819
0.00626304
0.000188846
0.047289
0.000238413
0.00014585
0.000162796
0.000146243
0.000253317
0.000149483
0.000154086
0.000148126
0.000147357
0.0001481
0.000384107
0.000152745
0.000277112
0.000146524
0.000158715
0.000157394
0.000264895
0.000148175
0.000162449
0.000168005
0.000171434
0.0768363
0.000147354
0.0341235
0.000174571
0.000164627
0.00015046
0.000147642
0.0472727
0.00979426
0.000149561
0.000148572
0.000219813
6.56232e-05
0.000160718
0.052215
0.000151045
0.00954646
0.000163228
0.000146165
0.0546596
0.000153596
0.0679307
0.00014841
0.000151404
0.000148707
0.0337559
0.0513489
0.000146007
0.000180615
0.000533515
0.000148273
0.000148444
0.000147414
0.000182583
0.0464291
0.000173581
0.000156416
0.000166282
0.00014806
0.000148683
0.000153468
0.000147881
0.000191493
0.000148757
0.000183721
0.000264073
0.000163835
0.000145489
0.0701115
0.000179075
0.000148119
0.000176343
0.000161769
0.00647902
0.000153337
0.0705644
0.0001729
0.000148582
0.00017946
0.000179491
0.000155015
0.0701796
0.000182708
0.000165685
0.0110072
0.000148249
0.000183086
0.00016898
0.000180298
0.000147482
0.000148278
0.000145733
0.000159177
0.000179198
0.000177673
0.0313503
0.0313718
0.0678604
0.000149773
0.00029726
0.0606302
0.0517146
0.000148176
0.000148806
0.000174141
0.069374
0.000153433
0.000166668
0.0108547
0.0274827
0.00335374
0.000171317
0.000191273
0.0541505
0.000247388
0.000145925
0.00155148
0.000199002
0.000150439
0.000150842
0.000151405
0.0588878
0.000181252
0.0640626
0.000153643
0.00124275
0.000149711
8.97518e-05
0.0401578
0.00014952
0.00016505
0.040053
0.0703207
0.000172368
0.000151882
0.00015275
0.000149944
0.000183412
0.000197014
0.000293158
0.0496909
0.000146996
0.0171382
0.000188426
0.0412376
0.000148053
0.000149032
0.0448084
0.000182639
0.000148154
0.000170759
0.000166984
0.000161079
0.0720248
0.068527
0.0596839
0.0464647
0.000154891
0.000146592
0.000166037
0.0329405
0.0153392
0.000149155
0.000182463
0.000168828
0.000192936
0.000151884
0.000149701
0.000238435
0.0028791
0.000103413
0.000274172
0.0357093
0.000147611
0.000181932
0.0452973
0.000149509
0.000165587
0.000183261
0.00014613
0.000190203
0.0612016
0.000180009
0.000149693
0.0295026
0.000184397
0.0401619
0.000144874
0.00015448
0.000149578
0.000153956
0.000149442
0.000170321
0.000162841
0.000162597
0.000185255
0.000164771
0.0349771
0.000154374
0.000164591
0.000157945
0.0196941
0.000164933
0.0322288
0.000157822
0.000156427
0.0110972
0.000169726
0.000148784
0.000162899
0.00320444
0.0638522
0.000215977
0.000148444
0.0001479
0.000148367
0.000107952
0.000151982
0.000331403
0.000257012
0.000182091
0.000160887
0.000200752
0.0278249
0.000149415
0.0258388
0.00016034
0.000163788
0.000148567
0.000149014
0.000172372
0.0502469
0.000148414
0.0292186
0.000211779
0.000170107
0.000193396
0.000148014
0.000148011
0.000161033
0.000153037
0.0506713
0.0244264
0.000169498
0.000237621
0.0001484
0.00014952
0.000149908
0.000149608
0.0764883
0.000153082
0.0393414
0.000168826
0.000151989
0.000189743
0.000313054
0.051594
0.0209586
0.000153679
0.000148363
0.000148779
0.00015485
0.000213597
0.000180274
0.067167
0.000148957
0.000151334
0.00017583
0.00014971
0.0177309
0.000152408
0.000174712
0.000176056
0.000162784
0.000162933
0.00014668
0.000170083
0.000162451
0.000180014
0.000167764
0.000163163
0.000146975
0.00018604
0.000147736
0.000369207
0.0618532
0.000226465
0.000148825
0.000171062
0.000148608
0.000171429
0.000152171