/*--------------------------------*- C++ -*----------------------------------*\
| =========                 |                                                 |
| \\      /  F ield         | OpenFOAM: The Open Source CFD Toolbox           |
|  \\    /   O peration     | Version:  v2012                                 |
|   \\  /    A nd           | Website:  www.openfoam.com                      |
|    \\/     M anipulation  |                                                 |
\*---------------------------------------------------------------------------*/
FoamFile
{
    version     2.0;
    format      ascii;
    class       volScalarField;
    location    "250";
    object      omega;
}
// * * * * * * * * * * * * * * * * * * * * * * * * * * * * * * * * * * * * * //

dimensions      [0 0 -1 0 0 0 0];


internalField   nonuniform List<scalar> 
13917
(
0.0402974
0.022201
4.70921
0.0237039
0.0221085
0.432636
4.36963
4.88056
5.42545
0.0657356
0.162041
0.0673335
0.0237823
12.9074
0.0262337
0.0250637
0.0223199
0.0538721
0.0661165
0.0221141
0.0222669
4.28202
0.0220942
4.90339
0.0220143
4.13457
0.0410887
0.0535167
0.754147
0.101982
0.0430297
0.0280965
0.0358059
0.025578
0.0220294
1.42801
0.0221028
3.79955
0.0256104
6.28535
0.0219081
0.0222858
0.0215883
0.0815314
0.0221052
0.0273302
0.0530465
0.0705481
2.80858
0.0220201
0.0270908
0.0223442
3.22632
0.0259449
0.0223331
0.0270322
0.158916
0.0220413
0.0251219
0.0220588
10.111
0.0222042
23.6689
0.0221027
0.402066
17.3766
0.0221036
0.022045
0.176714
0.0366832
0.0221162
5.55461
4.27089
0.0220201
2.89503
0.0787792
5.72185
0.0228027
3.90058
0.0222371
0.0222051
0.0221111
0.370099
3.76358
4.72986
0.0227011
0.0221807
15.5805
0.0268049
0.0215796
4.04413
0.0881394
0.0218933
0.0230204
16.0812
0.36754
0.121981
0.0651089
0.137406
0.107462
0.0218217
0.0322989
0.0817231
0.0232249
0.0218039
5.80845
0.452634
0.0745152
0.0223266
0.0459318
4.23212
5.50578
0.0865574
5.66181
0.0229574
3.2637
0.0220122
1.49193
5.06531
0.0259112
0.0222739
0.169124
4.55965
0.0504705
0.0219817
0.0228487
0.0220661
0.0219893
0.0216095
0.407033
3.58029
0.0228648
0.0221295
0.0222744
4.70681
4.87643
0.0408455
0.11227
0.0220965
0.0257946
0.525415
0.0217789
0.0225803
0.101876
0.0220448
5.80663
0.795829
0.0222911
0.0217505
0.0287483
0.0567816
3.25175
0.0887446
0.041631
0.0272063
6.43599
0.0351449
3.97729
7.89379
4.53719
0.0242258
0.0421222
0.022237
0.116768
0.0847964
0.134928
0.0231934
0.0604546
0.021929
0.0333122
0.0419418
6.66995
0.0941599
0.0226371
5.5126
0.0457023
3.57326
1.94372
5.7707
0.0219326
0.0924477
0.0446141
0.0217729
0.0221718
0.0300474
4.2732
0.35553
8.23049
0.0371219
0.126152
0.691246
5.21922
0.321521
0.0221045
0.118936
0.0403004
0.0224884
0.021902
0.235006
7.60507
0.0264172
0.0220353
0.0560747
0.0561199
4.71933
2.39736
0.0220316
0.0220551
0.0636238
4.49704
0.0224825
4.37612
6.66256
0.126603
0.0218114
0.581398
0.0556886
6.08802
0.0219712
10.7807
0.0219264
0.0911005
0.021898
3.83263
5.83313
0.0254024
2.11303
0.0275514
0.021815
1.21398
0.0923193
0.0366862
4.81159
8.96516
0.0217768
0.0286124
3.97068
4.58978
0.0222292
0.0219524
5.00631
0.138337
0.0222668
0.272746
0.0970915
0.0403686
0.0375086
0.022229
0.0454711
7.35715
0.0219698
0.11844
0.139946
0.0220423
0.0220304
0.0701553
3.76365
0.0834911
0.0303935
0.026408
0.0222712
5.86324
6.95877
0.386067
0.0218226
4.52254
7.15972
4.34984
3.82332
0.0842148
0.0222157
0.0219376
0.0533306
4.07952
0.12112
0.02483
3.51702
0.0435102
0.0216019
8.47926
0.0220906
5.50078
0.02593
0.022262
0.0274559
0.0413079
0.0421134
0.293954
0.032559
0.0220747
0.333031
4.84682
6.89278
0.0219722
4.69671
0.0221728
0.0220692
0.0220196
1.15554
0.0221059
0.0996192
0.0365258
0.0219083
0.0562896
0.0231787
2.35741
0.044501
0.0807076
0.0218183
0.0220212
4.32579
5.03971
0.0220066
0.0219177
8.54076
0.021914
4.11021
0.0218107
3.82867
0.0224639
0.498991
0.0338645
3.01503
0.0239295
2.67627
0.30955
0.0274614
0.137561
0.530822
0.0222783
3.67494
0.120041
5.85512
0.0247544
6.60218
0.0293739
4.6174
0.250018
0.112634
0.109305
4.60804
0.0222174
0.0436017
4.20212
0.0221776
0.023505
6.50088
0.286466
0.0225663
0.27444
0.689066
0.0218633
6.13178
0.712286
0.022084
0.0218994
0.0221802
0.0217454
0.342827
5.682
0.690811
4.21724
0.022018
0.133187
6.71418
0.0433435
4.28648
3.90085
5.697
0.0217707
0.332691
0.0218791
10.9321
0.0220562
3.75898
0.0970342
0.024806
0.0221992
0.0604643
0.101004
0.0732824
7.98308
4.39343
9.45169
0.0473879
0.0614663
0.0219602
4.73007
4.15379
0.0220625
1.13848
0.0220432
0.304682
0.0224607
0.0222273
0.0232145
3.60455
0.0231776
3.44574
5.83352
0.143441
0.471275
0.0222656
0.485873
0.42583
0.02204
0.318169
0.0221618
0.0220295
0.102234
0.0222616
0.0220188
0.0218753
0.345647
0.0222481
5.50139
3.96443
5.33578
0.321139
3.37904
6.05712
0.0426919
0.0220239
0.176183
0.025382
0.0299534
0.0220971
5.73041
4.3769
4.00581
0.0250301
0.110402
0.0245313
0.0260943
0.0728607
0.022968
0.386926
0.0223151
0.022097
4.01541
3.56708
3.5696
0.130984
6.41132
3.64301
4.15684
5.84758
0.021639
0.0581565
0.0230282
0.0220855
1.21258
0.054059
0.0218896
0.062628
0.0404602
5.86881
0.0220359
0.118641
13.6788
0.781296
4.38527
0.0222555
0.0220692
0.0224529
0.0353435
0.0217733
4.2871
0.535559
0.0324117
5.28287
0.0269513
0.119053
4.27047
0.812119
0.139252
0.617594
0.118283
0.0611343
0.165677
0.0435368
0.16163
0.599639
0.0491945
0.0830816
0.0218735
2.91145
0.027857
0.0216779
0.0338521
0.0229174
5.39704
5.68828
0.0219084
0.0216192
4.47806
8.61574
0.0222618
5.70453
0.0229116
0.233156
0.021923
4.99575
3.68855
0.0286766
0.0223534
3.35753
0.27017
7.01406
0.0222694
6.49943
2.41347
8.73984
0.0216877
4.53418
6.14865
0.043434
0.0218925
0.0223074
0.0789943
0.357693
0.0218227
0.0219051
0.0219607
0.0219551
5.10084
1.26536
0.0428195
0.344835
0.0219704
0.0218288
0.107946
4.95168
0.0337964
0.0219437
0.0220254
0.022065
8.65066
5.73478
0.0221748
0.0220644
0.26559
0.0432314
0.0338346
0.0220614
0.0232917
0.0271179
0.0811143
0.422273
0.354442
0.181114
0.0990563
2.75584
0.0785715
0.0219818
6.13069
0.0220686
0.0237974
0.0243979
2.60358
0.0767097
0.0218339
0.782264
0.115161
11.8686
0.100106
0.0356404
0.0426185
0.0221903
6.64001
0.539533
4.16726
0.0222285
0.0298161
0.344801
3.88448
24.0509
0.0681978
0.151982
0.0249978
0.024237
0.0220637
0.05435
0.0872563
0.0221609
0.0551733
0.133388
4.25149
6.3072
0.0241144
0.1153
2.46902
0.0286
0.0223935
3.50033
6.30088
5.59694
0.307924
0.021624
5.44054
0.0774037
0.0218691
0.0318663
0.0761023
0.0344272
0.0999241
3.92374
0.161442
0.0385231
6.58286
0.0232264
7.41702
0.0222378
0.0221681
4.73693
6.23203
0.646107
0.023221
0.0225835
0.0220677
0.0441623
3.33579
0.127361
0.0244551
0.12969
0.0593017
0.0219278
2.19273
0.123721
0.397376
0.0219547
0.156402
0.0228912
9.51436
0.0671098
0.0761744
0.0301628
0.0218839
0.0216924
0.0221042
0.121175
0.0276975
0.352431
7.01593
0.0596571
0.0218723
0.158067
0.676568
2.24642
0.0219448
0.0270764
0.0219129
0.0292337
0.0252927
5.95938
0.0222291
4.89496
0.0289597
0.159768
0.0894409
4.29051
0.079568
0.0222592
4.31503
17.6071
0.0220441
0.0243137
3.49776
0.244131
0.121001
0.0222376
0.0223853
0.364905
0.0249523
0.0726073
0.0668155
0.0216944
0.0560803
4.74273
0.0219283
0.0230793
0.0219804
5.30745
0.0222658
0.0246756
6.02514
0.0233583
6.22783
0.0272842
0.0365037
0.0219731
0.0508981
0.0220278
0.0596056
0.0218892
0.0867081
0.0229127
26.6782
3.02131
4.98102
0.0223304
0.0222067
0.0744161
0.0490487
4.82046
5.27309
0.0533482
0.0220326
0.343478
0.66138
0.367724
0.309109
0.0512846
3.86981
0.0397221
0.0413667
0.151721
0.185321
0.0525966
1.09897
0.0520345
0.0236588
0.0811045
0.0275779
0.0217583
0.0290054
0.0459184
0.0280674
0.0220347
0.0219308
0.0596175
0.0234308
0.0735424
0.022035
0.0220576
0.0222735
0.0231811
0.0215453
0.0259633
0.0220004
5.17641
0.0661353
0.355138
0.021797
0.0222474
0.0482592
0.0622249
0.0226833
8.16886
0.0813354
11.1669
0.0290675
0.125962
0.0224787
0.0222689
0.021938
0.0231915
7.81319
0.0222552
5.09048
0.0262608
6.03649
0.0498891
0.082734
0.156832
0.021683
0.022291
0.0673113
0.0220455
0.0224099
7.91195
0.0227237
0.0221807
0.0281311
0.0219459
0.0216763
0.0281338
0.0280012
6.24426
0.0354127
0.0219272
0.0218824
3.88491
0.119206
0.0222069
0.0222329
8.12774
3.29679
8.56674
0.0354822
0.0236685
0.0217882
0.0216582
0.050089
0.0364945
0.210066
0.0251639
3.76381
0.0223232
0.0236447
9.27974
0.0220497
0.0280293
0.021999
0.0220811
0.0444126
0.0424669
0.0225283
6.16284
4.31831
0.0909908
0.0219782
0.0216014
0.123269
4.55044
0.0222612
1.95449
0.0216009
0.0433073
0.0217588
0.0218002
0.399512
0.0220125
3.33358
0.0405044
0.0222733
0.02162
0.0220662
0.0219172
0.022988
4.14517
0.0218868
0.0217801
4.9563
5.76832
0.0397806
0.0476041
0.0687475
0.0252876
0.0217928
0.0280899
5.0271
0.09188
0.0221315
0.0222933
5.38477
0.0367284
4.29802
0.0222664
0.0227936
6.22994
0.0341204
0.0226106
7.95383
1.72243
0.0219139
0.13605
0.0219354
0.0219857
0.0217842
4.25011
0.021538
0.0219567
0.0217872
3.48719
0.0248869
0.231008
0.0625157
0.0217924
0.0327452
0.0221747
4.22495
0.021968
0.0219067
0.0221818
0.128177
0.022174
0.161199
5.72423
4.75644
0.0265458
0.761615
5.26434
0.0220173
6.81301
9.43453
4.74743
3.39842
4.85253
37.0411
0.1467
0.0223335
3.84394
0.0340466
4.0655
0.0216808
0.0218895
0.0222063
0.022168
0.026138
0.0309609
4.45452
0.0218787
0.0220718
6.48917
0.300872
0.0220661
0.0374216
0.0299275
0.0222433
2.80528
0.037926
0.0237612
0.0248182
5.70211
7.71534
1.29737
0.0217403
0.273209
0.114822
4.55911
5.72416
0.092323
0.0219188
0.022543
0.0223255
0.0214984
0.0232752
0.0216317
0.0272338
0.038652
5.51939
0.13561
0.0219713
0.122864
4.17648
0.0420905
0.0223083
6.58049
0.0218902
0.0223293
0.0377119
6.47221
0.0221739
0.0219561
4.37335
0.222686
2.01445
0.109062
1.39831
0.0219315
0.180416
0.0223387
0.0220013
0.0223336
4.25393
6.26428
0.0217735
0.0216166
0.022019
3.7941
0.0230434
0.0300073
0.022046
0.022445
0.173911
0.0218099
0.060862
0.357744
3.56909
0.0220092
0.0845278
0.0242871
4.47639
4.13941
0.0220204
4.38076
0.0735121
1.43883
0.0221727
3.54895
0.0222453
0.0268375
0.043167
0.109139
4.47749
0.552272
0.191766
6.36825
0.0218657
0.283637
0.0217901
0.0275628
4.36216
0.0220956
0.0222529
0.0228439
0.0222126
5.10116
0.0216776
0.0220851
0.056977
0.0477242
0.0513187
0.598968
0.136239
7.6431
0.0673
0.0359187
0.0403665
4.678
0.0409339
14.0927
4.05494
0.0256152
0.0218144
3.26059
0.396439
0.0222954
0.113218
0.0342245
0.0223731
0.0265508
0.0222589
0.0430971
0.0222921
0.050233
0.108269
0.0218868
0.0619625
0.0218219
0.0601299
0.0218849
0.0260251
0.0594392
0.0235787
0.0221347
0.0217837
2.09817
0.0826539
6.1257
0.0220164
0.0221502
0.060744
0.0219998
0.0934953
0.082785
0.0223751
0.0975377
0.0218056
9.94605
0.0222608
0.0380264
5.57079
0.280542
0.0219388
0.0236425
6.78486
0.0220042
0.0219245
4.40453
4.09668
0.0242426
0.175837
0.0221047
0.0221284
4.30404
0.023065
0.0216933
0.250491
0.0218282
3.35896
0.0221987
0.0216959
0.0222055
0.138479
3.64231
0.0221255
0.0222763
0.0219322
0.0259254
0.022078
0.991803
0.0599145
0.0222688
5.66409
0.0498506
0.271734
3.66211
3.62476
0.021761
0.0222529
0.0220525
0.769805
0.0263928
3.67978
5.63997
0.0239178
4.26743
2.31813
0.0507149
0.152212
0.0705194
0.378349
4.51482
0.0637931
1.1136
3.78539
0.0659698
0.0252175
4.48336
0.0540638
0.021693
0.0233876
13.3381
0.0383792
0.0219021
0.0529028
0.10314
0.0388837
4.40433
0.0237837
6.4141
0.0404506
0.326592
0.128618
0.29284
0.0292092
0.0217956
0.0225978
4.73584
0.0219985
0.0241033
0.0218028
0.0233042
0.0218839
0.0354173
0.158412
1.89534
0.0451234
0.0589719
4.02561
0.365696
0.0218779
3.41902
4.18344
0.0217348
0.0219157
0.0311059
6.66156
0.0222545
0.0708464
0.631079
0.0483852
0.0220625
0.0232257
0.0218453
0.113524
0.0397428
0.0219916
31.0976
3.88309
0.043229
2.40699
0.0668762
6.07894
0.0232959
0.0255931
4.31616
2.9938
0.0931477
1.76897
0.0284906
0.0222764
0.0219768
0.0221959
0.0220301
0.022625
0.053128
0.021947
0.127897
0.0219446
0.0286884
0.0217695
0.0821753
0.127097
0.852117
0.0220042
0.289887
0.0219752
4.4275
0.0220382
0.0255487
0.0221254
0.243633
4.60885
0.146019
0.021941
0.135942
0.0220334
0.0299942
4.08029
0.0219567
0.0223528
0.0459743
0.0318358
4.2765
0.0219483
0.0298172
0.0232243
0.0220431
0.0322339
0.0224887
0.0217513
0.0236587
6.42337
0.0245377
0.35667
5.6472
0.0526261
3.54311
0.0242821
0.0217576
0.0310343
8.28189
0.023445
0.036669
0.0430702
5.52713
0.0219033
5.78039
0.0635045
0.0716109
0.021726
0.0216345
0.180938
0.0224208
0.022286
0.0335235
0.0216893
0.0243714
0.0287807
0.0720276
0.265613
4.30621
0.0253761
0.0758544
3.12291
7.46798
0.0383522
0.267048
6.54056
0.0400631
12.9105
0.0236477
20.6517
5.51113
0.0216764
0.022262
0.0219585
0.0226548
0.045537
0.0217726
0.0238785
0.092367
0.0233602
0.0355068
4.20442
0.0300934
0.0242683
5.43074
0.0226154
5.63001
0.0244837
0.0543938
0.0218927
6.74487
5.91046
0.0220323
0.0227794
3.7195
0.0294072
6.75729
0.0220236
0.0218267
4.25616
0.0227579
0.0443358
9.29272
0.0220662
0.0556529
0.0294072
0.0216308
0.0219054
3.80875
5.49889
0.0222251
0.0235964
0.0220616
0.0266722
0.0359256
6.16127
0.0226724
2.55891
4.617
0.302912
4.22313
0.0227024
0.12654
0.196905
0.0290085
0.0220625
0.0616179
4.02267
0.0233742
0.0464945
4.95147
3.65
0.291417
0.0251877
0.0222711
0.0222463
0.0220683
7.36716
0.0560096
0.0239337
0.0228967
0.024492
0.0222702
0.0219852
0.0220432
0.0744855
0.0388439
5.59082
0.047087
4.99745
3.3561
0.0305359
0.0517634
0.0218145
0.0286254
8.19192
0.0221441
0.0236038
0.0524787
0.121177
0.0568468
3.8532
0.294195
0.0218938
3.90302
0.0215985
0.0222902
0.0457858
0.0222736
0.0219649
0.17682
6.81906
0.0218335
4.23907
0.0221275
0.0217511
0.0235202
2.67411
0.0293595
0.0244552
12.4962
0.0229712
0.22481
3.37014
0.0222462
0.0482294
0.022012
5.82531
0.0721268
0.0220444
4.10167
0.0548964
0.0790176
0.0222786
6.42634
0.029191
0.384871
0.0230114
0.0725003
6.7896
0.0217716
1.46044
0.0221166
0.0631265
0.0521848
0.0222453
4.51249
0.0236177
0.118755
0.0585289
0.0960326
0.0406545
0.0438929
0.0225979
4.92124
0.0318915
6.93134
0.0299799
0.0658888
0.021985
0.0444104
0.0220505
0.0710684
4.62568
0.0227734
0.0218355
3.4134
0.0228876
3.28229
0.0225179
4.32532
0.385624
0.0355347
0.0219947
0.021945
0.0221104
0.0216309
0.105519
0.0565203
0.038204
0.0259296
0.0220841
3.03138
0.0236853
0.0342979
2.76538
0.0220375
13.0002
0.0522534
0.0302265
1.25391
4.29636
0.354185
4.48271
9.61218
0.0218968
0.378121
4.90239
0.35973
0.0221741
0.0222196
0.11822
4.02619
5.51036
0.674833
0.0223623
0.0508681
0.0407451
3.37725
4.96723
0.0430041
0.132568
0.0239559
0.0825103
0.0928609
0.0221659
0.10755
8.00819
0.0221316
4.14366
0.0222534
0.0219855
4.73003
3.9242
0.0218533
0.0224432
0.0225095
0.0218318
0.049166
0.184653
0.0231899
0.0219918
0.0220999
0.0411923
0.0280269
0.0277427
0.354156
0.0220291
3.97651
7.58354
4.14095
0.155522
0.0531105
1.67011
0.0339021
3.79619
2.72317
10.1679
0.0224377
6.48531
3.43443
0.021772
0.0220385
0.106695
4.36541
9.74945
0.0217965
0.0220385
3.55784
5.29117
7.64374
0.0240727
0.0239265
1.85692
0.0222054
3.66346
7.1198
1.86088
2.98288
0.0220685
0.0219319
0.0218898
0.0261417
4.02883
0.0410153
0.0256938
0.022628
0.0880462
7.03629
0.041152
6.12446
5.35856
5.19362
2.15958
0.0220526
0.0221729
4.34658
0.0216654
0.0216909
0.0230766
2.83482
0.0379201
9.17134
0.135771
0.0220293
5.10744
0.0399411
0.0218871
6.07765
0.17047
0.0251042
0.0221439
5.0456
4.31237
0.0221809
7.40329
4.63996
6.07157
2.71907
0.0844963
0.021938
0.0226088
1.94671
0.0257425
4.49056
0.0422741
4.0369
0.273864
0.0228973
0.0290803
0.0219358
0.0227079
4.57845
6.85883
0.0220684
4.87008
0.0437631
0.0220459
0.0248411
0.0219405
0.167334
0.0224854
2.31611
0.0518285
0.0219292
0.0218766
0.0934121
8.19749
0.0396582
0.0240573
0.0434103
0.0220449
0.0232049
0.0276333
8.65434
4.05483
4.33846
0.0217236
0.0218701
0.0223723
0.127716
0.0218815
0.0224204
0.178633
0.0598965
1.63648
0.0216634
4.26991
4.02773
0.0222843
8.76836
0.118485
0.0379094
2.04361
0.0223188
5.05086
0.0295187
0.0230699
0.0239061
0.0216616
0.23784
0.0224727
0.0228635
0.0308248
3.48363
3.57557
0.0222463
0.0220236
0.0235982
0.0220112
0.137395
0.0224371
0.0857694
0.0236517
4.09211
0.0227438
4.17466
0.0217255
5.26208
0.0224455
0.0216458
6.77312
0.31776
0.114446
1.63805
0.0443046
0.0414492
0.0220453
5.06104
0.0220646
0.0218878
0.0876226
0.0658698
9.80271
4.38918
0.126029
6.91555
0.132868
1.13718
0.0218972
0.0250974
0.0282266
4.01345
0.024835
4.12282
4.42849
0.0222406
0.0220691
0.0220251
1.67736
3.33996
0.0234613
0.0221113
0.0258215
0.0283363
0.0386839
0.386665
0.330528
0.0220655
0.636463
0.0866984
8.49497
0.0734403
0.0233276
0.0239967
4.94172
0.0218868
0.0909638
4.57612
0.0227454
0.0255329
0.184225
0.134139
0.0227753
6.11239
0.0245092
0.277478
0.0413666
0.0303941
0.0228181
4.25899
0.0218645
0.098934
1.45283
4.71563
0.0505101
0.0681555
0.0258433
0.0481306
0.0222659
4.91692
0.0269556
0.0220134
0.0302256
0.0220933
0.0222692
2.93828
0.0220698
0.0221794
0.0220577
0.134821
0.02225
0.0334095
0.0744344
0.244125
0.120271
0.0222537
0.246088
0.485298
0.233031
0.0866916
0.0274114
0.162144
4.77268
0.688064
0.0222845
7.69168
4.22219
0.0222839
0.0242475
0.021651
0.733747
0.108929
0.0220859
1.29059
4.06344
0.0218147
0.0222174
3.76586
4.10801
0.0673614
0.0216655
11.2905
3.24009
3.25683
0.0220308
4.02197
0.0852168
0.0715342
4.29703
0.026385
0.021663
0.0304101
0.197415
0.0324756
3.98834
4.32939
0.0218299
6.46372
0.529477
4.494
0.0217233
0.0511331
0.0222905
0.0219352
4.03681
3.86732
0.278821
4.36805
0.0293808
0.051422
0.0222233
4.53771
5.83341
0.0220489
0.0222866
0.0318032
0.0218373
0.0519642
4.38837
7.41689
0.0520211
0.0225229
0.0221977
4.03047
0.0250329
0.0537978
0.0218089
0.023018
0.766813
4.26388
0.629074
2.93259
0.0221715
0.30546
0.0223224
0.0481463
9.66228
6.7903
0.0220747
0.0222938
0.0363742
0.0257306
0.022195
4.27469
4.0349
0.0217968
0.0215203
0.0221915
0.021972
2.69375
0.0217524
3.90586
0.105618
0.0656691
0.021872
0.0484495
4.46462
0.0341651
0.460548
5.75367
0.022263
7.11571
0.0331216
0.0356846
0.370228
7.11299
4.55875
0.0620249
0.0219067
0.263604
0.0217628
0.0253102
0.0222161
3.91907
0.031822
3.03468
0.434557
0.0495266
0.0221256
0.308564
0.0271795
0.0222704
0.256156
0.0216043
0.0389119
0.0346791
0.0221802
9.72134
0.0234249
0.548737
0.022848
0.0219426
5.46115
3.63803
0.0241273
0.0324878
0.0401169
0.0588103
0.0601789
0.0265238
0.0260002
0.0254091
0.222102
0.0250692
4.04648
0.0604373
0.434056
0.121898
0.0227261
4.42402
0.0216147
4.51571
0.0242247
4.21458
6.67511
9.35319
7.81597
0.31012
0.0782692
0.0220532
4.21464
0.0866852
0.0220441
7.79247
5.593
0.0232937
0.023914
0.0311303
0.0311378
0.0329251
5.19512
0.0222841
0.0303397
0.035852
0.0323928
0.0221653
0.0879881
0.0216209
4.14761
0.0236855
0.137526
0.0323074
0.0404553
0.127611
4.37347
0.088779
0.0218445
0.251734
4.24189
22.1461
0.0224566
4.20103
0.0293037
1.80153
0.0220645
0.02458
3.7822
0.0533641
4.99182
7.25748
0.0334304
4.71458
0.0219857
0.0216109
8.77031
0.0589198
0.0244975
5.14699
0.0271712
0.0460538
0.029487
0.0727967
0.0221961
5.73997
5.20421
7.10022
0.278713
0.0257037
0.0580529
4.95339
0.0240949
0.0223213
0.0843636
0.0216975
0.299524
7.62856
6.26695
5.18941
0.0570385
0.0225273
4.04893
0.0216036
0.0759665
0.0222357
23.5814
0.0238681
0.0482312
3.68627
0.122091
0.0220293
0.0322799
8.67703
0.022076
0.149569
0.0218032
9.50749
4.13857
0.117412
0.0776407
0.0219553
0.212293
0.142391
0.0402005
0.0218079
0.0225714
0.0221473
0.0560816
0.0221247
0.0889196
0.0221227
0.0218149
6.26687
0.0218819
0.0270703
0.0253189
0.0222748
3.59617
0.0218751
0.0341361
3.91879
0.0499891
3.95934
0.0220659
4.35146
0.0526556
4.91654
0.0236363
0.130693
0.0222329
0.0418903
0.127654
0.11667
0.272645
4.01276
0.228219
2.00554
0.0269621
0.114992
0.0421108
1.08579
0.0250962
0.0221761
0.0220356
0.0532137
0.046765
3.50807
0.0546841
4.65404
6.82527
0.10178
0.0220182
5.0792
0.203413
0.0224801
0.024089
0.0220813
4.92051
0.0220373
8.08028
0.0218683
0.0273745
4.81935
0.0798561
0.0220466
0.0220299
7.84437
0.0218851
0.0241044
0.0254397
0.0327775
0.0279484
0.0221818
0.162803
0.0812854
0.0440712
0.347756
4.34733
3.59243
6.11573
0.0217403
0.0219963
0.103783
0.0225367
0.0475681
4.14597
3.72236
0.0216618
0.0220457
3.35824
0.795716
0.0216781
0.0218469
0.0265781
12.8509
4.05216
0.0267836
0.0344304
0.0222009
0.378489
0.130307
0.14208
0.0317423
0.0445805
0.0224158
0.0388739
0.306603
0.0227765
0.0221898
0.0265646
4.53382
0.0252496
7.22117
0.0221091
3.7549
0.0368362
0.027958
0.021783
0.0219322
0.846389
7.84383
0.05784
4.21726
9.51375
0.0225453
3.92494
0.149424
0.0218997
4.8541
0.479051
0.117624
0.0222539
3.46114
4.44357
0.021993
0.0399109
4.22419
0.0456347
0.0220635
0.0218065
0.0224477
0.0240739
0.0838258
0.282069
0.0775626
0.0797188
0.0217268
0.0222075
4.63674
0.021855
0.0492066
0.0265935
0.0222036
0.0514541
0.0220294
0.0237652
0.339917
0.0220031
4.3863
0.0220252
15.9407
3.64212
0.0962673
0.0222616
0.0222927
4.05746
0.0216499
0.0243113
0.0223426
0.354258
1.50749
0.0343328
3.62884
0.0420324
2.32515
0.0225371
0.0710532
0.0218226
0.0221415
5.05026
3.67454
1.56753
0.0238797
0.0708355
0.0709313
4.73322
3.9652
0.32593
0.0399752
0.0215984
4.05277
0.0219355
0.0219961
0.29906
0.117613
0.0283903
0.202457
0.0476086
0.0318804
0.0279678
4.9011
0.0245381
0.0219972
6.7401
0.0473474
0.0217238
3.43742
0.0220354
0.0221137
0.166799
0.15784
11.9754
0.0217406
0.0248294
0.0219245
2.22803
0.0218783
0.544014
4.57367
3.56656
3.4243
33.3709
0.030279
4.39564
0.860933
0.0222108
0.0307422
0.0440342
0.0303883
1.22549
4.09311
4.34128
3.53633
2.43173
0.0221669
0.108574
0.0220427
4.83504
0.0290333
0.0232863
0.0242514
0.0227703
0.0218916
0.108889
4.33401
0.0217272
0.0237673
0.0218685
4.53691
0.0236126
5.29351
3.86217
1.47311
0.0220961
0.0218981
4.44478
0.391556
0.0221408
0.314094
0.0222289
0.147025
0.189902
0.0973524
0.0528225
10.76
0.0218078
0.0218259
0.210215
3.30645
0.0297456
0.0476124
0.0219465
8.50457
0.0220173
0.0219561
0.0232475
0.0220047
5.11516
3.99983
2.43089
0.0619954
4.0699
0.709467
0.0216661
0.0316687
0.0217056
1.26806
0.022034
0.024905
0.0220049
0.0219272
0.021801
2.82925
0.0229334
1.70382
0.0216185
0.0324287
0.0229499
1.55673
0.0220501
0.0321151
0.035923
0.071296
6.61851
0.0219237
4.17608
0.0705411
0.0461045
0.0219878
0.0219568
3.48218
16.0131
0.0220515
0.0219075
0.256421
0.218327
0.0384054
3.87258
0.0227795
0.838165
0.0318737
0.0217126
5.45739
0.0231605
3.92092
0.0220329
0.0227565
0.0221226
4.23864
3.54869
0.0216818
0.245924
0.228861
0.0220618
0.0218873
0.0219056
0.262488
3.91492
0.0661981
0.0244858
0.040342
0.0220341
0.0220592
0.0238211
0.0220084
0.194949
0.02207
0.0655036
0.664026
0.036693
0.0216236
3.9909
0.0761216
0.0220429
0.0830575
0.0311137
2.16304
0.02451
10.0379
0.0582103
0.0220061
0.0898992
0.0886206
0.0248507
5.69376
0.0617331
0.0303666
2.9949
0.0219517
0.156754
0.088825
0.131421
0.0219467
0.0219862
0.0216464
0.0331554
0.0572942
0.0559945
6.44875
4.58114
3.89378
0.0222669
1.89094
3.71469
4.09317
0.0220065
0.0220396
0.0550814
4.15695
0.0242173
0.0360775
32.6229
5.04835
17.3198
0.114144
0.173111
3.34416
0.432963
0.0216211
12.2406
0.286844
0.0223715
0.022411
0.0228537
4.56446
0.0998855
5.22852
0.0240982
9.0575
0.0221627
1.99227
3.78774
0.0222252
0.0348375
4.15656
4.70169
0.0567417
0.022947
0.0237636
0.0223898
0.233987
0.12706
3.21009
4.01122
0.0217601
5.29409
0.174582
1.56772
0.0220312
0.0221658
2.6665
0.26292
0.0219704
0.0511099
0.0733667
0.0392258
4.10839
4.54197
4.51015
3.99472
0.0255728
0.0216769
0.0662323
4.4703
10.1652
0.0219783
0.280626
0.0943477
0.445199
0.0225763
0.0222566
1.20351
4.75541
7.43399
1.67547
4.20285
0.0219651
0.252324
3.98702
0.0222442
0.0625916
0.110249
0.0216916
0.168309
4.7572
0.240388
0.0222556
5.24659
0.121459
27.046
0.0215163
0.0238175
0.0221826
0.0232956
0.0221469
0.0550847
0.040736
0.0430639
0.33247
0.0344757
4.17159
0.0253317
0.0294547
0.0283533
8.93615
0.0580048
4.90772
0.0283737
0.0278857
19.0919
0.0975646
0.0220747
0.0432685
4.73623
5.24392
0.304743
0.0219876
0.0219204
0.0219483
1.86348
0.023206
2.48235
1.32509
0.259937
0.0323649
0.275015
5.49314
0.0221476
7.27143
0.033861
0.051064
0.0219585
0.0219471
0.0545644
4.18727
0.0220812
4.88715
0.539869
0.0997569
0.197668
0.0218874
0.0220269
0.0304174
0.0230418
25.0767
24.4832
0.0857044
0.850891
0.0219741
0.0221181
0.0222125
0.0222458
7.37737
0.0233422
4.4259
0.0870963
0.0226075
0.390766
3.15396
3.42891
8.48517
0.0236942
0.0218061
0.0221318
0.023677
0.73206
0.248369
5.58344
0.0221564
0.0225062
0.163373
0.0222602
0.217797
0.0236997
0.153071
0.174327
0.0417648
0.0402534
0.021737
0.0482953
0.0386114
0.214993
0.080654
0.0428998
0.0218736
0.253002
0.0218975
3.63674
3.64541
0.929921
0.0220836
0.110088
0.0220311
0.0504487
0.0230725
0.0228137
0.0282614
8.80926
4.05796
0.079618
0.0480132
0.237089
0.0798752
3.99469
4.10996
0.0311889
4.08776
0.369618
0.0218649
0.0565028
4.12097
0.0961659
0.0222366
0.0551542
2.24753
0.620732
8.61997
0.0221917
1.56085
0.0220982
0.0219406
0.0435919
0.678044
0.0222639
4.20821
5.03208
0.250872
10.9704
0.372042
4.61802
0.336423
0.0217339
0.0249664
0.0216666
0.0435051
0.306556
0.519004
0.0244164
0.042261
0.0216556
4.22898
0.0396066
0.0486152
4.06839
0.0991596
6.616
4.54521
0.0219803
6.73691
0.0221176
0.0283559
0.0478359
3.84943
0.16125
0.0278894
0.0233752
0.581926
0.034975
4.29427
5.83838
0.0316553
3.23973
0.0468408
0.022273
1.16185
0.0640245
0.0230111
8.97194
14.8998
0.0304438
0.02605
0.136856
6.00217
0.021967
0.0222584
0.0216772
0.0217674
0.0223324
4.79449
0.0317395
3.8617
0.0219589
0.0219762
0.865584
0.0222452
0.023827
0.0220597
0.0220354
2.98473
0.0217771
4.73444
0.0220478
0.023206
0.0419178
0.0221758
0.14492
0.0217896
0.0222652
0.0218044
0.028071
0.0897805
0.0247404
3.64618
0.0219468
0.0439897
0.0302422
4.0992
0.0227582
0.022269
0.0217371
0.0216985
0.400722
0.0219157
0.0219218
0.0248116
2.4146
0.0219381
0.0431826
0.0328644
0.0220297
4.85511
6.53829
0.427952
4.92209
0.0251082
0.115813
0.0221579
0.098957
0.343921
0.022386
2.79916
0.136524
4.62512
0.030914
0.0220346
1.59303
0.0439654
0.829879
4.95312
0.0216032
0.0219927
7.48619
3.22341
0.0616385
0.0570931
0.0231052
10.2944
5.73939
0.0215206
0.0219705
0.0221533
0.0221744
0.0222485
0.0220384
0.0355387
4.10168
0.0312345
0.0222009
0.424994
0.021991
0.856906
0.0467699
0.0221608
0.0278756
0.0219236
0.380575
0.0249375
0.0515258
0.0219711
0.0223062
4.41534
4.81988
0.0221774
0.0533192
0.0445432
0.0312236
0.0239308
0.0222713
0.0228989
1.70215
0.580333
0.0416504
4.91387
0.0225905
23.8322
0.108849
0.0260727
17.351
0.0230813
4.22282
5.2932
3.41886
4.4751
4.00289
3.7114
0.021674
0.0275408
0.0247016
0.021654
0.0217647
0.0297179
0.0753377
0.0218007
0.0294952
0.127283
0.0771215
0.341155
0.218167
0.034144
1.88866
9.52263
0.0339172
0.0248851
0.134597
8.55024
3.78325
0.025592
0.0216436
0.0218806
0.0217943
0.032365
3.76191
0.383217
0.0217797
4.56907
0.021984
0.145338
4.1515
0.0823508
0.199884
0.0906167
0.32906
0.0228395
0.0332624
0.0218727
0.241197
0.021976
0.0230643
0.0339439
0.162111
0.0221777
0.0244549
5.33294
0.0218242
0.022077
0.0290838
5.61357
0.119488
0.985004
0.0383252
0.0221501
3.34301
0.0371591
0.0234076
0.0220242
0.0309315
0.0268187
0.0220342
0.0284421
4.45096
0.0236276
0.0216666
0.0470777
0.0218897
0.0318391
0.0301374
0.0220687
0.022
4.67003
0.0217253
0.0220348
0.0216652
0.0258097
0.0214874
4.8029
0.0260881
0.222637
0.0219629
0.0219339
0.0221259
4.23209
0.0672605
0.0220422
0.0216349
5.49162
0.0251075
0.0687395
0.0218653
0.154843
0.0234219
0.021565
4.41758
0.0217994
0.0222688
0.022148
0.0220368
0.0241557
0.0221272
0.0220375
1.62993
1.51911
4.62199
0.316232
8.1456
0.02187
4.4931
0.0219694
4.06284
7.71993
0.021803
10.1067
0.0219812
4.15581
11.4465
0.264119
4.03839
3.92241
0.850212
2.38831
5.96548
5.17456
0.0438404
0.0438664
4.61164
0.0235075
0.0216711
2.13374
0.0240057
0.0282642
11.7794
0.0230079
0.862603
3.6176
6.29361
0.389357
0.121851
0.0222519
0.0283397
0.0483314
0.0223127
6.84861
0.370796
0.107811
0.0219198
0.0220699
7.92392
0.0217058
0.762022
0.0218695
8.91555
4.39659
0.0345805
0.026245
0.0220103
10.0666
4.06679
0.025478
0.0340528
0.0222858
0.0222855
0.0601601
0.0231812
0.0320722
0.0674235
0.0243004
0.0336895
0.0220414
0.032212
14.8537
0.0226128
10.6632
0.0219867
3.58558
0.0544318
0.0220405
10.1128
0.130903
0.02186
0.156101
0.0220393
0.608896
0.0222078
0.0220137
3.87694
0.0221472
0.109598
0.0234819
0.143846
0.0218646
0.0223459
0.0218658
0.0300753
0.0242626
0.022305
0.0226111
0.0253607
0.0224608
0.128833
0.0648674
0.0304083
0.0233515
0.021658
2.35411
9.03095
0.0227834
0.0225413
0.0226591
0.0381375
0.0222389
0.03549
0.0215769
0.0222853
0.213374
0.0233457
0.0222847
0.021911
4.74227
10.6865
0.021603
0.0724457
0.058646
0.247073
0.203822
6.60065
4.25921
0.68469
0.0230385
0.142827
0.0219302
0.0314111
6.95179
4.3652
0.135992
0.0239366
15.0609
0.0220434
0.047311
0.411435
0.0222373
0.141369
0.0235099
0.0232981
0.0764524
0.154118
3.93374
3.3801
0.0218388
0.0216109
4.75341
3.73214
0.0222483
0.0291581
0.126896
0.0220571
0.0220173
0.024173
2.34708
0.0217812
4.22072
0.0295249
0.0222664
0.290629
0.0764389
0.0707967
0.119019
4.891
0.0244263
0.035455
0.0275054
0.0237791
9.39171
0.0324315
4.23783
4.04032
0.0673047
4.12608
0.0469506
0.0483734
0.355214
0.0217349
4.19711
0.0915506
0.0338747
0.029171
0.0221787
0.0216806
4.11876
0.0437424
4.25513
4.3344
0.0221164
4.18287
0.0218419
0.0219655
0.028787
11.0919
0.07739
0.0217176
4.09315
0.0220008
0.0238369
3.92067
0.0237382
3.46014
0.0222728
4.32633
4.50563
0.069123
2.98626
0.0233937
3.44749
0.0216486
5.29892
4.72873
4.36244
4.99304
0.0219474
0.0218498
0.249418
3.70756
3.44134
3.82061
3.74978
0.0221602
4.83497
3.4386
0.0224235
5.38323
0.0314792
0.033449
12.0129
0.0384686
4.3588
0.0219436
0.0381387
0.0353817
0.214029
6.12393
0.0370941
3.56099
4.43804
0.0221728
0.0246354
0.0238314
0.0250352
3.45285
0.0220166
0.0217691
0.0395868
3.70959
3.92199
0.0285085
3.86698
4.1561
0.0219713
8.30101
4.64306
0.187812
3.98501
0.0681085
0.024421
0.0221735
0.161718
0.0266459
0.0829121
9.74358
4.49581
0.0291545
0.0758184
0.0257937
0.0402014
0.0216575
0.0432803
0.0247075
0.0934886
4.60184
7.42078
3.85998
0.0216878
0.136664
0.065351
4.13288
0.0232226
4.59995
4.69873
4.13035
0.0222242
0.174012
4.49411
10.6394
7.18572
0.0367763
5.47502
4.5593
0.0650185
0.0705995
0.0242548
0.0293793
4.64158
0.0454396
0.022187
3.30282
0.0220802
0.0223524
0.128108
0.128174
0.0218584
0.0910255
0.0247646
3.72766
10.7474