/*--------------------------------*- C++ -*----------------------------------*\
| =========                 |                                                 |
| \\      /  F ield         | OpenFOAM: The Open Source CFD Toolbox           |
|  \\    /   O peration     | Version:  v2012                                 |
|   \\  /    A nd           | Website:  www.openfoam.com                      |
|    \\/     M anipulation  |                                                 |
\*---------------------------------------------------------------------------*/
FoamFile
{
    version     2.0;
    format      ascii;
    class       volScalarField;
    location    "400";
    object      k_0;
}
// * * * * * * * * * * * * * * * * * * * * * * * * * * * * * * * * * * * * * //

dimensions      [0 2 -2 0 0 0 0];


internalField   nonuniform List<scalar> 
13851
(
0.000203373
0.000154694
0.000154496
0.019698
0.000148438
0.000157327
0.000155204
0.000147592
0.0528015
0.000148392
0.000177097
0.000148462
0.000149022
0.0303405
0.000169725
0.000207304
0.0175619
0.000148451
0.000243583
0.00020311
0.000172903
0.000156054
0.038044
0.000149734
0.0367111
0.000187085
0.000210403
0.0134202
0.0455455
0.000146686
0.0454593
0.000155193
0.000203507
0.071825
0.000170164
0.0444048
0.00014981
0.036259
0.0689875
0.000148866
0.0734983
0.0467459
0.00631034
0.000224531
0.0492986
0.000147677
0.000145463
0.000205052
0.000152559
0.000148977
0.0265738
0.000149244
0.000207074
0.000164708
0.028005
0.000148871
0.000203749
0.0710448
0.000169498
0.0315055
0.000148513
0.000248241
0.000148597
0.000152841
0.0001822
0.000182786
0.0255128
0.000166392
0.000149079
0.0285122
0.0411146
0.000177436
0.000148538
0.0280252
0.000166272
0.000152719
0.0230561
0.00014589
0.0245645
0.00014776
0.000149143
0.000249249
0.000169638
0.0324529
0.0329172
0.0444255
0.000156316
0.0211731
0.000148349
0.0450883
0.000149356
0.000155374
0.0101488
0.0402005
0.0633072
0.000200396
0.00014784
0.000207356
0.0277525
0.000195847
0.000208366
0.000162073
0.000163053
0.0001488
0.000147651
0.000175821
0.000147649
0.0433857
0.000155345
0.000148299
0.000159769
0.000147685
0.00020523
0.000179579
0.000203512
0.000163797
0.000146502
0.000147102
0.0171511
0.0319653
0.000190197
0.000147567
0.000149007
0.0517044
0.000226449
0.000172519
0.000147831
0.000171663
0.0682426
0.00017652
0.000155963
0.000162731
0.0139488
0.0710606
0.000177776
0.06284
0.000165976
0.043091
0.000160141
0.000176484
0.000238136
0.000150502
0.000148374
0.000171325
0.0335718
0.000152247
0.000145828
0.0407084
0.0417209
0.000172307
0.000207908
0.000203682
0.000180755
0.000225433
0.000149561
0.000148661
0.000148608
0.064977
0.000174139
0.000153818
0.000149584
0.0451035
0.000175356
0.000205045
0.0309548
0.0554941
0.0566396
0.0314569
0.000159595
0.0749109
0.00014862
0.000146504
0.000179753
0.000148827
0.0669065
0.000213837
0.000209788
0.000146428
0.000166293
0.000209029
0.000225056
0.000221756
0.000159113
0.000176268
0.00739115
0.0423341
0.000203485
0.000157449
0.000149362
0.000147144
0.0163154
0.000174083
0.0250325
0.000157561
0.000151982
0.00020725
0.000202786
0.000149544
0.000149552
0.000167029
0.000238494
0.0677611
0.071374
0.00016975
0.000316326
0.0636879
0.000152288
0.000176525
0.0544201
0.00015637
0.000207199
0.00014895
0.000246067
0.000149538
0.000170878
0.000153866
0.000148886
0.000222906
0.00014966
0.000495024
0.000146396
0.00020282
0.0278466
0.0646968
0.000157081
0.000176847
0.000149743
0.000169903
0.000148047
0.000170477
0.0324833
0.00015702
0.000156324
0.000148722
0.0693052
0.000146666
0.0210136
0.0703915
0.000192165
0.000149645
0.000427817
0.0335705
0.048708
0.000206869
0.000165819
0.000174546
0.000216984
0.000166551
0.000199773
0.000161196
0.0230148
0.00020155
0.000147155
0.000157708
0.000207976
0.0440836
0.0234593
0.000147093
0.000173007
0.000148315
0.000215891
0.000225221
0.000158304
0.000175953
0.000202091
0.000148232
0.000162444
0.00020035
0.00551154
0.000148497
0.000148863
0.000157217
0.0622853
0.0118723
0.000175887
0.000147727
0.000225119
0.00022551
0.000200201
0.000175586
0.0614001
0.0271724
0.000158691
0.000166823
0.0359556
0.000147619
0.0001486
0.000200904
0.00017389
0.000146716
0.000149517
0.000147997
0.00014788
0.000165867
0.000148556
0.05452
0.00017412
0.000148349
0.0437601
0.0488513
0.000149312
0.000203426
0.0268482
0.00015073
0.000149399
0.000175295
0.0305076
0.0780777
0.000182664
0.000148354
0.0714656
0.000148567
0.000184297
0.0322671
0.00372777
0.000153502
0.0235215
0.00144237
0.0485615
0.000202858
0.000162535
0.068078
0.0583939
0.0114787
0.000149794
0.0250099
0.00853224
0.000211337
0.000207639
0.000152313
0.000181879
0.000157794
0.0223091
0.000163541
0.000147011
0.000144818
0.000158185
0.045161
0.000376507
0.000147553
0.0619846
0.000157848
0.000162986
0.000154058
0.0261487
0.000224988
0.000207643
0.000153464
0.000155626
0.041476
0.000149389
0.000228458
0.000158579
0.000175195
0.000158442
0.000148334
0.000148323
0.000198635
0.000199541
0.000201953
0.00436469
0.0420589
0.000152377
0.068308
0.000224055
0.000146587
0.00519347
0.000192354
0.032648
0.00015766
0.000188752
0.000248244
0.0253237
0.000196599
0.0250179
0.000150934
0.000191416
0.00675538
0.000162839
0.0279356
0.00016517
0.073589
0.00016644
0.000173146
0.000201155
0.000213615
0.00014867
0.000157967
0.000174938
0.000166571
0.000147838
0.000176251
0.0637366
0.000148519
0.000176532
0.0121236
0.000154155
0.00232172
0.000176071
0.0814612
0.000157065
0.000185514
0.000318666
0.000227125
0.00017519
0.0200786
0.0282772
0.000398396
0.000148259
0.000198154
0.000165164
0.00018837
0.000147601
0.00747078
0.0706728
0.0291412
0.00015556
0.000201796
0.000246869
0.0129383
0.000145462
0.0184562
0.000221669
0.034776
0.00016183
0.0204418
0.00014857
0.000148752
0.0240026
0.000244466
0.000148406
0.000154733
0.000177015
0.000146732
0.0664914
0.000182247
0.000191832
0.000157638
0.000150972
0.0001493
0.0144773
0.000148318
0.000149228
0.0191188
0.0619464
0.000155416
0.000242326
0.000148638
0.000148544
0.000154717
0.000202254
0.000175875
0.000147923
0.000151726
0.000189659
0.000153025
0.0807756
0.000148424
0.000160311
0.0498992
0.000160699
0.000145166
0.000148744
0.000157497
0.000150072
0.000377299
0.0269732
0.000166071
0.000603856
0.000154836
0.000148314
0.0651831
0.00024182
0.000160101
0.000148637
0.0559325
0.000159544
0.00225763
0.000148801
0.000163103
0.000197721
0.000168122
0.0625043
0.000241443
0.0216283
0.000152581
0.000204153
0.000148237
0.0444775
0.000175943
0.000202775
0.000164998
0.000153129
0.000160737
0.000180259
0.000148511
0.0135601
0.063278
0.0817717
0.00727804
0.0254316
0.0349132
0.000227702
0.000156554
0.000149347
0.00417253
0.000148395
0.000147811
0.000157738
0.0697238
0.000154377
0.00015049
0.000173561
0.000174066
0.00014847
0.0843087
0.000147833
0.0696367
0.000324911
0.000147759
0.00015335
0.000226412
0.00609206
0.000146743
0.0628818
0.0188977
0.000146769
0.0578878
0.000241685
0.000202357
0.000152533
0.0179946
0.0322976
0.000146988
0.000245637
0.000149031
0.000147848
0.00908766
0.0745091
0.000169518
0.000175248
0.000148416
0.000182501
0.0698534
0.0652726
0.00014785
0.0245709
0.000147893
0.000149094
0.000175419
0.000160422
0.000145424
0.000152718
0.0599767
0.000210575
0.0562714
0.000153776
0.000148301
0.0617202
0.000149154
0.000199155
0.000160119
0.000166287
0.000165546
0.0459078
0.0321263
0.000157396
0.0171592
0.000152987
0.000181314
0.0473353
0.0340699
0.000148985
0.000148267
0.000163144
0.0576894
0.000230868
0.000182087
0.00858667
0.000160625
0.000165564
0.0394663
0.0870917
0.000182211
0.0679598
0.000214826
0.0437284
0.000150352
0.000160714
0.00466505
0.000148453
0.0113453
0.0899351
0.000159625
0.000176427
0.000148785
0.000512285
0.000175477
0.0562837
0.000148339
0.000149021
0.000155331
0.000173576
0.000148489
0.0665182
0.000148981
0.000213831
0.000152574
0.000188942
0.000148778
0.000148495
0.000167361
0.02475
0.000174831
0.060881
0.000163132
0.000146814
0.000147268
0.000179982
0.000151685
0.000189876
0.000155202
0.000159807
0.000184473
0.000149164
0.0191962
0.00014967
0.00019637
0.0197156
0.0539597
0.000156793
0.0495328
0.000172965
0.00020594
0.0898649
0.00014828
0.0884125
0.000157904
0.000163737
0.00924129
0.000896197
0.000146734
0.000189264
0.000149437
0.0433036
0.0275212
0.000149463
0.000167011
0.0702291
0.00014974
0.000149663
0.000187393
0.0161314
0.0101312
0.000149412
0.000200949
0.000152588
0.000148524
0.000196546
0.000201461
0.00019511
0.000145243
0.00020031
0.000163809
0.000183626
0.000150554
0.000151696
0.000174172
0.000155136
0.000202717
0.000177342
0.000177183
0.000178704
0.000396888
0.000244136
0.0510211
0.0528942
0.000206547
0.0392618
0.000163296
0.0122847
0.000203398
0.000148174
0.000164915
0.000230675
0.000157243
0.000147761
0.000147713
0.000196411
0.0224551
0.000160553
0.0673326
0.000146847
0.0135236
0.000178503
0.0255145
0.00018878
0.000157249
0.000154528
0.0298474
0.00019514
0.000162939
0.000246863
0.000150601
0.00447415
0.000196674
0.000214325
0.000164226
0.000292306
0.00014856
0.000149612
0.000151868
0.000148538
0.0479904
0.000147871
0.000217581
0.0610915
0.000189333
0.0672116
0.0307703
0.000216083
0.000210993
0.000156696
0.000149137
0.000148784
0.000145923
0.000147253
0.000148843
0.000181838
0.000204301
0.000164421
0.00877839
0.000151623
0.0529063
0.000149954
0.0228314
0.000168311
0.000149881
0.000148819
0.0548105
0.000157586
0.0152194
0.0898755
0.000175406
0.00018481
0.00014661
0.0715683
0.000153404
0.000154475
0.000178954
0.000149161
0.000150475
0.00014807
0.000175935
0.0242308
0.000160799
0.000164712
0.000227606
0.0614078
0.000157033
0.000156189
0.0457653
0.000145884
0.0452211
0.000149289
0.000153094
0.0207156
0.000190753
0.000203078
0.000184261
0.000175116
0.000149477
0.000149954
0.000182648
0.00015052
0.00014953
0.000161307
0.000220816
0.000147763
0.000201359
0.00148271
0.00838685
0.000184067
0.0448568
0.000160342
0.000149105
0.000195197
0.000146945
0.000158096
0.0459735
0.0413804
0.0881052
0.0454247
0.000149641
0.000149329
0.000169057
0.000151386
0.000147459
0.0319671
0.000217069
0.0297758
0.000196755
0.000191186
0.00014858
0.000146735
0.00582729
0.000191749
0.000153705
0.000149658
0.0002031
0.000208511
0.0690528
0.000149515
0.000148937
0.0208493
0.000150501
0.000165367
0.000146747
0.071279
0.000148072
0.0222666
0.000148471
0.000189216
0.000170849
0.000168673
0.000164566
0.000148529
0.000154708
0.000148019
0.000235446
0.000150499
0.027626
0.000150836
0.0182812
0.0652463
0.000162813
0.000147881
0.0136108
0.0285231
0.000157991
0.000190745
0.000148771
0.0192751
0.000148294
0.000230974
0.000148372
0.000147996
0.0105623
0.000165781
0.000148676
0.000165235
0.0685832
0.000425671
0.0736483
0.000147079
0.0419388
0.000148458
0.00014781
0.000149557
0.000144446
0.000149532
0.0802544
0.0507852
0.00014971
0.000148954
0.000169978
0.000147694
0.0171565
0.000196409
0.0346254
0.0694442
0.00015463
0.000202564
0.000148406
0.000172693
0.000175296
0.000148161
0.000149349
0.000739124
0.0293236
0.000184243
0.0086459
0.000183456
0.000148622
0.000170671
0.000191162
0.0215182
0.000164772
0.000352092
0.00019232
0.000149457
0.0586143
0.0553901
0.0294116
0.0100696
0.00753058
0.000152515
0.000174204
0.000149237
0.000294877
0.000156733
0.000147031
0.0771374
0.000151388
0.000147886
0.000148985
0.000151086
0.0679537
0.0002286
0.000147213
0.000171149
0.0308578
0.000151858
0.00786378
0.000151581
0.000189484
0.0734408
0.000148579
0.000247303
0.000159751
0.000163928
0.000491696
0.000151371
0.000247052
0.000185131
0.0723245
0.000149809
0.0263621
0.00016238
0.0433073
0.0230601
0.0214451
0.000175521
0.000148614
0.00014971
0.000149739
0.000171772
0.000148764
0.0645782
0.000158454
0.000156479
0.000156869
0.000152406
0.000147024
0.000159191
0.000157911
0.000153333
0.00015709
0.0886289
0.000243671
0.000161947
0.000169289
0.0764848
0.000150577
0.0484051
0.000145932
0.000160904
0.000150524
0.000148193
0.000166493
0.000148281
0.000147168
0.000162419
0.000148711
0.00021648
0.000151274
0.0100299
0.00103958
0.000217265
0.000231164
0.000149123
0.0635265
0.000206534
0.000149476
0.000157713
0.000150287
0.0518857
0.00015156
0.000162452
0.00409321
0.0099442
0.000177452
0.000149259
0.0478232
0.00284943
0.010884
0.000159669
0.000146756
0.000147756
0.00018275
0.000148587
0.0276322
0.000199573
0.000149282
0.000224258
0.000220238
0.000147967
0.0890913
0.0202017
0.000216069
0.000151098
0.0463633
0.000181655
0.000148044
0.0243433
0.000156011
0.000147772
0.000147856
0.000165133
0.000172045
0.0574337
0.0482626
0.000172978
0.0574005
0.000166707
0.000148387
0.00016842
0.000147736
0.00252994
0.000148022
0.000148186
0.000153007
0.000150419
0.0632488
0.021651
0.000229296
0.0312341
0.0883177
0.000157069
0.000148573
0.000151276
0.000248079
0.000147922
0.000148363
0.000168948
0.0306709
0.00025016
0.000145837
0.000165287
0.000164861
0.000201882
0.00733434
0.00014676
0.000145321
0.000153329
0.0179151
0.000161225
0.0699051
0.000151651
0.000149017
0.000147826
0.000147846
0.000153846
0.000215825
0.0431953
0.0542757
0.000156898
0.000148319
0.00273343
0.000150092
0.0295562
0.0397807
0.000158121
0.0280777
0.0473018
0.0405343
0.000180809
0.000164545
0.046701
0.00016283
0.000160198
0.000169378
0.000206926
0.000150351
0.000495972
0.000148413
0.0400326
0.0265092
0.000145961
0.000152716
0.000166774
0.000239965
0.000165827
0.000148867
0.000160424
0.000151545
0.000157286
0.000238014
0.000149033
0.0328562
0.0241534
0.000148458
0.000163585
0.000171702
0.000148493
0.0408313
0.0117725
0.0656974
0.0326757
0.000148201
0.00015416
0.000157032
0.000149587
0.000227979
0.000166266
0.000149686
0.000183676
0.000154819
0.0296558
0.000171025
0.026086
0.000151417
0.00015187
0.000163864
0.000191231
0.000184323
0.000148213
0.00930771
0.0472694
0.0293277
0.0393604
0.0447341
0.0559828
0.0411057
0.000148199
0.000148283
0.000148791
0.000230598
0.000175377
0.000183907
0.0137565
0.000149589
0.000145608
0.000148417
0.000220842
0.000145757
0.000158383
0.000152534
0.0179627
0.000151107
0.000146986
0.000148528
0.000148285
0.000149003
0.000159897
0.000227828
0.000160295
0.0585248
0.000148262
0.000147872
0.0681471
0.0675511
0.0211693
0.00823971
0.000163639
0.0112525
0.000146711
0.000169035
0.000151862
0.000148497
0.000154748
0.0266294
0.000152049
0.00019166
0.006539
0.000149766
0.000148124
0.000155115
0.000216246
0.000149799
0.0177281
0.000148706
0.000220416
0.000148774
0.000149681
0.000158193
0.000170985
0.000149051
0.000196201
0.0419743
0.000216527
0.0705924
0.000148564
0.0254771
0.000137671
0.00014831
0.0266299
0.000149557
0.000162029
0.000149365
0.000149389
0.00014763
0.000148506
0.000150068
0.00015574
0.000184357
0.000149467
0.000148598
0.000165592
0.000146579
0.0882311
0.000148775
0.00016393
0.000166607
0.0368076
0.00200497
0.000148931
0.0002166
0.000146697
0.000163443
0.000172781
0.00630661
0.00017668
0.000149802
0.00019938
0.000167853
0.000190714
9.84872e-05
0.000160814
0.000200248
0.000182026
0.00018519
0.000151011
0.000147629
0.00852091
0.0115464
0.000154394
0.000148021
0.0084332
0.000146896
0.000172091
0.000147741
0.000176803
0.0248452
0.000144932
0.0156354
0.000157207
0.00014907
0.000209226
0.000147022
0.000161493
0.0341793
0.000170174
0.0100206
0.000147599
0.000149749
0.000162248
0.000149477
0.000149609
0.000160288
0.000161583
0.000184338
0.000178352
0.000148911
0.000165264
0.000147491
0.000148361
0.000149402
0.000148328
0.000836306
0.000148118
0.000151673
0.000241243
0.000146852
0.000147941
0.0647251
0.000149634
0.0124512
0.000152393
0.06138
0.000223775
0.000164235
0.00379395
0.000177855
0.000287006
0.000150154
0.000209777
0.000157538
0.000147532
0.000147695
0.000151629
0.000163238
0.000148218
0.000170931
0.00014731
0.000151854
0.00695921
0.0264267
4.15e-05
0.000154605
0.000162832
0.0388149
0.0290244
0.00014911
0.000158055
0.000340256
0.00014944
0.000168369
0.00333016
0.053789
0.000159205
0.000173693
0.000150843
0.000223623
0.000149894
0.00016106
0.018613
0.0001492
0.000147764
0.0877181
0.000170809
0.000234322
0.0711773
0.000196549
0.000149968
0.000147331
0.000149804
0.0328178
0.00368932
0.0484693
0.000174513
0.000148558
0.0446041
0.000148673
0.000202971
0.000155352
0.000152793
0.000172712
0.000148339
0.0898108
0.0890037
0.000146518
0.000183759
0.000176251
0.00534796
0.000171805
0.000181919
0.000231054
0.000166594
0.000247583
0.000182895
0.000148689
0.000167916
0.00016817
0.0218328
0.000148177
0.000292228
0.000172713
0.000183378
0.000149805
0.0857524
0.000157502
0.000152263
0.000147506
0.000166362
0.000165897
0.000166244
0.000148802
0.000150607
0.000171843
0.00900321
0.000175665
0.000148994
0.000150472
0.000167851
0.000218966
0.000149103
0.000180263
0.0289113
0.000167434
0.0542984
0.000171506
0.0270988
0.000246559
0.000148221
0.00259777
0.000149551
0.000154564
0.000165234
0.000166344
0.000190293
0.000176
0.000165587
0.000166939
0.000162353
0.000153178
0.000145698
0.000169549
0.000156542
0.000157283
0.00127574
0.000156221
0.000159041
0.000147712
0.0258019
0.000178927
0.000148904
0.000155171
0.00015164
0.0304317
0.000199792
0.000165259
0.0483975
0.000108675
0.000471623
0.00019015
0.000247791
0.000147336
0.000184953
0.000148306
0.000155506
0.0326628
0.0404456
0.00025766
0.00102065
0.00014875
0.0265131
0.000147313
0.000190732
0.000154469
0.00707645
0.0807004
0.000157694
0.000148015
0.000246378
0.000162023
0.000148128
0.0389778
0.000148472
0.000152381
0.000156587
0.000149343
0.000161772
0.000151773
0.000148567
0.000162967
0.00026679
0.00017109
0.000175749
0.00014811
0.0316024
0.0404354
0.000147897
0.000246125
0.00015439
0.0001572
0.0474974
0.000147876
0.000150603
0.000156623
0.0489198
0.00014817
0.000149157
0.00016978
0.00963274
0.000147776
0.000159545
0.000161483
0.000766236
0.00017171
0.000169366
0.0002232
0.000148489
0.000172247
0.000146009
0.0296786
0.000160857
0.000148406
0.000159149
0.000187235
0.000148927
0.000149334
0.000202712
0.039478
0.000150044
0.031095
0.000149206
0.000145961
0.000181827
0.000148167
0.000148124
0.0877507
0.000149814
0.000170875
0.000208572
0.054406
0.000583857
0.000147821
0.0001527
0.000156441
0.00014841
0.000148589
0.000148587
0.00088524
0.000149268
0.000253906
0.000200244
0.00014774
0.000146713
0.000161477
0.00020022
0.000245974
0.000166418
0.000176829
0.00015277
0.0540803
0.000175747
0.000163336
0.000171961
0.000171558
0.000188445
0.0254887
0.000170467
0.0292023
0.0178355
0.0231518
0.000155101
0.000148256
0.000167302
0.000159277
0.000147557
0.00015008
0.00017804
0.000149596
0.000149651
0.000148285
0.000145281
0.000153124
0.000148842
0.0221643
0.000147994
0.0505453
0.000148464
0.000173328
0.000150481
0.000200505
0.000173122
0.000148634
0.0527332
0.000152626
0.000149478
0.000171177
0.000147386
0.000158745
0.000148463
0.0423224
0.000153433
0.000171273
0.000170619
0.0490786
0.000157801
0.000252776
0.00134572
0.000169244
0.000149074
0.000151655
0.000175512
0.000180793
0.0260417
0.000146794
0.0323428
0.00014888
0.000169401
0.0835806
0.00016509
0.00439655
0.000154945
0.000164183
0.000154055
0.0886952
0.000161696
0.000148855
0.000168373
0.000200343
0.000152233
0.00014829
0.000148874
0.0679594
0.000149665
0.000157129
0.0691319
0.000155341
0.000148229
0.00017115
0.000154549
0.0340477
0.000145616
0.000148376
0.000147063
0.000154826
0.000150043
0.000149124
0.000183499
0.065306
0.000148109
0.000148633
0.0418258
0.00014971
0.0160511
0.000153648
0.0826055
0.000147576
0.000153321
0.000146695
0.0312001
0.0697984
0.000159034
0.000168942
0.000155615
0.000148128
0.000148719
0.0419295
0.000148817
0.000190702
0.000147293
0.000173368
0.000149227
0.0562596
0.000146904
0.000174936
0.000147671
0.000221563
0.000356956
0.00014718
0.000165965
0.090116
0.000185008
0.0147582
0.00406493
0.000205264
0.000151871
0.000165365
0.000190478
0.00857873
0.000149527
0.000170218
0.000156558
0.000148341
0.0275138
0.037264
0.000184817
0.000205898
0.000246051
0.000162429
0.060874
0.000147475
0.000147092
0.000188061
0.0891602
0.000217637
0.000201351
0.00166677
0.000146734
0.0872861
0.036596
0.082779
0.000149299
0.032929
0.0452395
0.000380483
0.000398642
0.0487779
0.000191389
0.000161444
0.000205163
0.000154426
0.000148296
0.00176752
0.000192075
0.000145572
0.0379184
0.00014922
0.000158347
0.000172459
0.000155525
0.00222952
0.000160213
0.0121172
0.00017461
0.0001549
0.00956833
0.0764795
0.000201779
0.000149863
0.000154557
0.000183402
0.000168258
0.000146808
0.000173203
0.000167191
0.00019863
0.000148258
0.000210478
0.000153471
0.00016836
0.0243675
0.000251474
0.000151322
0.000185171
0.0342685
0.000149194
0.000150854
0.079418
0.00022988
0.000153992
0.000154875
0.000148551
0.000174161
0.000156627
0.046054
0.000189889
0.000150205
0.000149443
0.000166062
0.000159114
0.000164389
0.0307257
0.000147551
0.000148185
0.000158099
0.000149252
0.000154014
0.000151111
0.000151072
0.000154681
0.00014788
0.000154059
0.00014928
0.000176167
0.00796782
0.000149743
0.0648689
0.0166698
0.000146017
0.000182867
0.000187036
0.000178975
0.000150683
0.000192194
0.000158521
0.000168582
0.000161674
0.000151988
0.000149343
0.0255457
0.000160402
0.0103675
0.000150644
0.000148433
0.000148099
0.000172847
0.000148043
0.000176173
0.000182773
0.000329156
0.000147501
0.000228014
0.0140784
0.0494575
0.000146673
0.000195413
0.000221815
0.0164325
0.00267849
0.000150291
0.000149542
0.000194216
0.00105031
0.00327263
0.000170997
0.000247602
0.000149499
0.000147743
0.000164344
0.000149271
0.000149081
0.000200393
0.000149754
0.00016954
0.000147526
0.0764128
0.0644168
0.0275833
0.0230434
0.0461807
0.000149048
0.000148923
0.0847083
0.000146976
0.000147297
0.000145984
0.000183445
0.0732569
0.0274242
0.0001562
0.000149245
0.000151715
0.000162792
0.0309995
0.000148123
0.00505992
0.0780162
0.000149222
0.000149128
0.0367857
0.000189523
0.000152668
0.00014828
0.0729971
0.0471556
0.000148644
0.000217087
0.000149671
0.0514629
0.000634284
0.000153235
0.02633
0.016019
0.0520816
0.000147373
0.000149489
0.000149612
0.000149898
0.0686816
0.00014781
0.000197849
0.0002493
0.0241456
0.000150878
0.000173835
0.000143483
0.000173708
0.0825928
0.053277
0.000145402
0.000156746
0.000156915
0.000206236
0.0532391
0.000145143
0.0247005
0.000160478
0.000173132
0.000150701
0.000147514
0.000225488
0.000168268
0.0188873
0.000149268
0.000173749
0.00015061
0.000200624
0.000154363
0.0637688
0.00505113
0.000202687
0.000194859
0.000148195
0.000152848
0.000190418
0.000182375
0.0606281
0.0893771
0.000148918
0.00831481
0.00017022
0.0764281
0.000158685
0.00017024
0.000168999
0.000149008
0.0596125
0.00014841
0.000164606
0.0300183
0.0748165
0.000855653
0.0727325
0.000157795
0.000175717
0.000146813
0.0769943
0.000156851
0.0367636
0.000146743
0.0419943
0.000144977
0.000147985
0.00016405
0.000158478
0.000159771
0.000148334
0.0386496
0.000174094
0.000147835
0.000165873
0.0322357
0.000229129
0.00014852
0.0579734
0.000153776
0.000166632
0.000164915
0.00014581
0.00017813
0.000147951
0.0314129
0.000172771
0.000158787
0.000148275
0.000234716
0.000169616
0.000146734
0.0413324
0.0046456
0.000223992
0.000146336
0.0002826
0.000148887
0.000191654
0.000159624
0.000181132
0.0105065
0.0378416
0.000159492
0.0725144
0.000169523
0.000157586
0.000147002
0.0534424
0.000179392
0.000190371
0.000165544
0.00014959
0.00889868
0.000183484
0.000243705
0.000237331
0.0900681
0.038738
0.0088542
0.0347365
0.000157867
0.000158631
0.000148588
0.000148939
0.000145291
0.000211812
0.000158465
0.000159813
0.0649283
0.000147819
0.000146972
0.000172428
0.000200684
0.000159628
0.000147129
0.0691278
0.000154021
0.00017621
0.000149345
0.0232422
0.000157109
0.0784829
0.000166512
0.00016549
0.000171269
0.000148543
0.0104889
0.000169269
0.000180216
0.000148682
0.000147246
0.0241805
0.0453537
0.043436
0.000147876
0.000180423
0.000330586
0.00014893
0.000147957
0.000148892
0.0721963
0.000171204
0.000162995
0.000159429
0.000157474
0.0430601
0.000179232
0.000224989
0.00015813
0.00016441
0.00014525
0.000183141
0.000172994
0.000148341
0.0397144
0.0555545
0.0659859
0.0368951
0.0415517
0.0867406
0.0864381
0.000151417
0.00014794
0.069129
0.040584
0.0326291
0.000148805
0.000170461
0.000148567
0.000148083
0.00241532
0.0765048
0.000182536
0.000147993
0.000229944
0.000191594
0.000174512
0.0397183
0.0041696
0.000245654
0.000147282
0.0636948
0.000618573
0.000229963
0.00016488
0.000171702
0.000149255
0.000147238
0.000168288
0.000172263
0.000153797
0.000171438
0.000159594
0.000154319
0.000225849
0.0365856
0.000159148
0.000172921
0.0486589
0.000219525
0.000148684
0.000193262
0.00023104
0.0271197
0.000169263
0.000149187
0.000161301
0.000157203
0.000158405
0.00014581
0.000158928
0.000163748
0.000175325
0.000203022
0.000149497
0.000151549
0.0386309
0.0453641
0.0738935
0.000139552
0.000199077
0.000144802
0.000148491
0.000161882
0.000146686
0.0898286
0.000148442
0.000149812
0.000146265
0.0402366
0.0240878
0.000149968
0.000182859
0.000158414
0.000161557
0.000161314
0.000159732
0.000170902
0.000166498
0.0209765
0.000157498
0.0427588
0.000167162
0.0728697
0.000160291
0.000147415
0.000146929
0.000192626
0.000202501
0.000146756
0.000162885
0.000160632
0.0001758
0.020025
0.0238649
0.0259482
0.000149811
0.000227367
0.000158587
0.000164384
0.000148259
0.000179607
0.000152557
0.0281988
0.000295525
0.0001658
0.000148485
0.0442142
0.000155773
0.0364423
0.0394414
0.000225709
0.00015347
0.000197521
0.0338724
0.000170357
0.0529637
0.000177083
0.000148277
0.000167173
0.000147913
0.0859671
0.000153863
0.000162349
0.000235062
0.0702161
0.000148068
0.000148185
0.0425267
0.000169481
0.0822786
0.000158762
0.000148281
0.000170762
0.000220602
0.00016241
0.00600814
0.000164287
0.000159701
0.000155311
0.000149611
0.000148092
0.00021696
0.000150557
0.000182144
0.000148613
0.000148558
0.000211624
0.000157602
0.00014901
0.000148188
0.000164323
8.58996e-05
0.000173313
0.000168648
0.000155207
0.000178079
0.000148657
0.000191323
0.000162079
0.000172122
0.00016676
0.000160171
0.000174259
0.000163108
0.000147784
0.000184492
0.0476547
0.0329683
0.000149182
0.000882517
0.0357365
0.000148162
0.000150567
0.000228227
0.0424524
0.000156187
0.0350439
0.000254051
0.000149012
0.000190813
0.00014525
0.000157158
0.000178877
0.0419212
0.000204074
0.00023628
0.000193291
0.0368236
0.056167
0.000152868
0.0469054
0.000148373
0.000313821
0.0530001
0.000148616
0.000148437
0.0326637
0.000149021
0.000148524
0.000254333
0.0571412
0.000217613
0.000157649
0.0478494
0.000148591
0.0435069
0.0404412
0.000149209
0.00011042
0.0143363
0.046622
0.0361446
0.04118
0.0321722
0.000147276
0.000151542
0.000179607
0.000183088
0.000148494
0.000218994
0.000148312
0.0418394
0.000257203
0.000164146
0.000242026
0.0424485
0.000254391
0.000225163
0.000165378
0.0192915
0.000259986
0.00015626
0.000145534
0.00136945
0.000161278
0.000146893
0.0847846
0.000148175
0.00296455
0.000149134
0.0741524
0.000156625
0.000148111
0.00709917
0.00015599
0.000160454
0.0294828
0.0758451
0.000791849
0.000159761
0.000175075
0.000151767
0.000171181
0.000199523
0.00017164
0.000149351
0.000324073
0.000180637
0.000161561
0.0318259
0.000170579
0.000162174
0.000199221
0.000183638
0.00017457
0.000148085
0.000208079
0.00014695
0.000199907
0.000225186
0.0434308
0.000147109
0.000168205
0.0252715
0.000152503
0.000178462
0.000163863
0.000170215
0.0753686
0.000180925
0.000151916
0.0331606
0.000147157
0.0430615
0.00014878
0.000151763
0.000200167
0.0438352
0.000161708
0.000189279
0.000221415
0.000163909
0.000149459
0.000177295
0.000171784
0.0653899
0.000155241
0.00616715
0.00020289
0.000163892
0.000161117
0.00017789
0.000166271
0.000167694
0.000181053
0.000162501
0.000154084
0.000149215
0.00125478
0.000148437
0.000159964
0.000145364
0.000197633
0.000160571
0.000181277
0.0450543
0.000151217
0.000218321
0.000144562
0.000149166
0.000149221
0.000149329
0.000158279
0.000147635
0.000191272
0.0269637
0.000181395
0.000173972
0.000155933
0.000148691
0.000249694
0.00014859
0.0265165
0.0328509
0.0284763
0.000206174
0.000163761
0.00015916
0.000149148
0.000158002
0.000170334
0.000168969
0.0508456
0.000181487
0.0589775
0.000206989
0.000149353
0.000146867
0.0327844
0.000148127
0.000161821
0.000165871
0.000247286
0.000152694
0.0691755
0.000149095
0.000155795
0.000148575
0.000150467
0.000177213
0.000197427
0.000149429
0.000165172
0.000159678
0.000174745
0.00018136
0.000217806
0.000199805
0.000212971
0.000204719
0.000157791
0.000151416
0.000181262
0.0426602
0.0825109
0.047645
0.000164332
0.0247721
0.000197311
0.000151269
0.000147943
0.000183788
0.000148916
0.0001651
0.0224865
0.000148019
0.000147475
0.000304547
0.00196627
0.000176322
0.0006693
0.000149016
0.0280662
0.000168889
0.0742897
0.000157259
0.000148644
0.0448678
0.00016514
0.00014853
0.000171686
0.000149666
0.000190294
0.000159861
0.000164448
0.0877166
0.000159536
0.0489284
0.000147664
0.0530074
0.00014906
0.000156888
0.000150166
0.000171175
0.00014888
0.000166109
0.0443772
0.00022919
0.00017486
0.000161066
0.000168331
0.000147982
0.000149006
0.000151936
0.000195564
0.000156342
0.0767152
0.0368353
0.000188833
0.000149406
0.000192425
0.00020594
0.000201431
0.000157461
0.0411984
0.000148251
0.000144801
0.000148114
0.0140264
0.000148935
0.000148472
0.0465014
0.00014805
0.000202246
0.000171532
0.000147674
0.0626047
0.000160495
0.0738329
0.000148187
0.00146063
0.00015111
0.000166905
0.0285191
0.000182735
0.000147871
0.000159261
0.0315002
0.000164936
0.000193796
0.000163065
0.000156643
0.000187167
0.000158179
0.00014972
0.00721505
0.000160406
0.000160567
0.000207172
0.000148143
0.000147485
0.000149197
0.000163698
0.000149065
0.000155179
0.0550864
0.0158678
0.00017104
0.00938642
0.000183493
0.00016713
0.071776
0.0504595
0.000150024
0.0163609
0.0622621
0.0365151
0.00241817
0.000162116
0.0285177
0.0505199
0.0473295
0.00263343
0.0834354
0.000162849
0.000169503
0.000157745
0.000157617
0.000149691
0.000407276
0.000149895
0.0184755
0.000174103
0.000199525
0.000145135
0.000187145
0.000163673
0.0001521
0.000149951
0.000148682
0.000173514
0.000153305
0.000149827
0.000171996
0.0583963
0.000154398
0.00019212
0.000146804
0.000173378
0.000169247
0.000149194
0.000156221
0.000147639
0.0742085
0.063704
0.000206345
0.00965585
0.000161123
0.000189132
0.00014882
0.00017251
0.000148811
0.000149733
0.000149528
0.0510161
0.000146797
0.000175728
0.00024169
0.000157469
0.000163204
0.000148095
0.0699586
0.000207861
0.0407877
0.0355138
0.000202196
0.000238398
0.0322022
0.000247855
0.000240966
0.0167616
0.000174043