/*--------------------------------*- C++ -*----------------------------------*\
| =========                 |                                                 |
| \\      /  F ield         | OpenFOAM: The Open Source CFD Toolbox           |
|  \\    /   O peration     | Version:  v2012                                 |
|   \\  /    A nd           | Website:  www.openfoam.com                      |
|    \\/     M anipulation  |                                                 |
\*---------------------------------------------------------------------------*/
FoamFile
{
    version     2.0;
    format      ascii;
    class       volScalarField;
    location    "700";
    object      ddt0(omega);
}
// * * * * * * * * * * * * * * * * * * * * * * * * * * * * * * * * * * * * * //

dimensions      [0 0 -2 0 0 0 0];


internalField   nonuniform List<scalar> 
13917
(
-0.03779
0.00118566
-0.0259106
6.16871e-05
-0.000695496
0.00110513
0.000320376
0.00168244
-6.27754e-06
0.124819
-0.00125306
2.17329e-05
1.99033e-05
0.00264186
7.2491e-05
0.019225
1.30658e-05
-0.00125748
-0.000345331
0.531165
0.00114931
-5.2524e-05
0.000478832
-5.17616e-05
0.000170405
0.00126683
-0.011339
0.45245
0.00138411
9.64286e-06
-0.141803
-0.00319156
6.65822e-05
-0.180931
1.09663e-05
-0.00911978
0.000156547
8.77222e-06
0.000306924
0.00133546
-1.20521e-05
1.59382e-05
3.84859e-05
-0.00266709
-0.0021811
0.00731845
0.00102519
-2.17083
0.168618
1.55927e-05
1.92993e-05
0.00220941
-1.34249
-1.54018e-05
-6.26056e-06
0.00214942
-0.620958
0.000523098
2.45936e-05
0.00700298
-1.00167
0.00419598
9.83743e-06
0.000151353
0.658604
0.00242945
0.000529751
-0.0209241
-0.00413852
0.0361041
1.89922
-0.13264
1.76954e-05
1.95824e-05
0.00121716
0.000209595
-0.000340649
3.09967e-05
0.000187942
7.28144e-05
-7.69784e-05
-4.46649e-06
1.61151e-05
0.495737
-4.56037e-06
0.00759655
-0.00272195
-2.48992e-06
0.0013295
2.00928e-05
9.97851e-06
1.43668e-05
0.195519
-2.17214e-05
-1.43214e-05
0.00119715
-0.0451125
-1.45364e-05
-6.30322e-07
-0.00800061
2.28722e-06
3.23236e-06
-7.12302e-05
-3.77297e-06
-0.000327309
0.0756051
0.0347827
0.0125912
-4.21177e-07
-0.0944784
2.50418e-06
-0.18592
0.00125218
-0.680629
0.631142
0.000255356
-0.000772547
-4.03156e-06
-0.00986666
9.16691e-06
-4.44114e-06
1.06581e-05
0.00124765
0.00148101
-0.00324523
0.438239
0.000132936
0.00130047
3.08723e-05
0.000975617
-0.000225566
-0.00388142
-0.259273
0.000246897
-0.00353359
-0.131375
-0.748328
-0.0658926
0.00129126
6.38547e-06
-0.211524
2.0056e-05
0.0738916
-1.04248e-05
1.52707e-05
-0.000126207
1.67567
0.0148298
-2.37346
-1.39742e-05
0.00122672
1.15615e-05
1.3982e-05
9.06951e-06
-0.0901008
-4.41259e-05
-6.62279e-06
-0.303607
-1.05567e-05
-7.04202e-06
-6.8607e-06
0.706448
0.000294496
-0.132762
0.0524398
-0.0150396
-1.91708
-1.79253
-2.64737e-06
0.00133146
-6.04109e-05
-0.185971
-2.83564e-05
-0.38343
0.0016172
-1.41065e-05
6.03376e-05
0.00172
-0.000175815
0.000345483
5.73009e-05
-5.33767e-05
1.80058e-05
0.00917847
-0.0114809
-0.00655572
1.59659e-05
0.00968818
1.56756e-06
-0.00449826
0.00162397
-0.00281471
-0.000137208
0.100433
-1.49088e-05
0.0223937
0.000452615
-0.217419
3.73314e-07
-3.75072e-05
0.000867033
0.0959242
-0.123012
8.47829e-05
-0.0242031
0.00111541
0.00124826
1.78618e-05
0.00135301
-8.2243e-05
1.09471e-05
-0.00108021
-0.00179338
-2.42291
-0.00344937
0.00126805
0.395373
-9.3758e-06
1.21153e-05
1.19072e-05
-1.68601
0.00276697
0.00632186
3.20663e-06
8.01769e-06
-0.0414616
0.0990712
8.46616e-06
7.30994e-06
-1.18124e-05
1.12346e-05
8.61289e-06
-0.0995817
-0.896101
-7.54917e-05
-4.72364e-06
0.00171712
-0.09508
6.53551e-06
3.11438e-06
-0.0321013
0.0506519
0.0149965
0.335329
0.00114463
-1.20648e-05
-1.63026
0.00168942
0.00139953
-0.000693282
6.07073e-05
-1.41457
1.0903e-05
0.00133017
0.00162594
-8.94324e-05
-1.02761e-05
0.000148243
-0.000288518
-3.70857e-05
-0.0778731
-0.090177
-1.95518e-05
7.79599e-06
-7.02496e-05
8.36174e-06
1.06884e-05
2.78978e-05
0.000926137
-1.86139e-05
-0.0822311
0.0169726
2.69501e-06
-0.000237217
0.0062619
-1.34095e-05
-0.00403185
-0.141522
-1.21576e-05
0.00511582
-4.44147e-05
0.83073
-1.09493e-05
-0.000153226
-0.000100003
-6.4871e-06
0.00712063
3.33584e-05
-0.0233849
0.000721102
-0.0931717
-0.000289652
-0.00350925
-0.0809097
1.68882e-06
0.000941753
-0.000425463
0.000282454
-0.00059448
0.000185498
-2.86516e-05
2.89242e-05
0.00189067
0.000480233
0.00134936
0.000168363
2.6213e-06
-0.276828
-0.348672
2.41237e-05
0.000134447
0.000290296
-0.0701247
-0.00834107
-0.0178691
0.14198
0.00756576
-0.00329239
-0.000181655
0.884057
-0.216193
-0.00668793
1.64097e-05
-5.39356e-06
-0.0202122
-6.37256e-05
0.00182379
-0.0021822
2.09499e-05
-0.157661
-4.26051e-06
-0.00158699
-2.15041e-05
-3.89309
3.46952e-06
0.00128677
0.0011692
0.0113622
2.06609e-05
-0.000908997
0.142744
-7.45179e-06
-6.13366e-05
-0.20304
0.113249
0.922451
-0.114236
-9.56998e-06
-6.44146e-05
0.0231992
-0.00145022
-6.71293e-06
-0.000575912
3.25163e-06
0.00122119
0.00131151
0.00213888
-0.000122989
-0.00381374
-0.00122417
-0.0831396
3.38896e-05
-5.25946e-06
-0.00086214
0.00869507
1.77498e-05
0.168715
-0.00133678
0.0119761
-7.82152e-06
-0.00151584
0.000201523
0.159913
2.07325e-05
0.000327425
0.00153608
0.00133374
2.78699e-06
0.4831
-2.72015e-06
-0.0396034
0.0022981
3.86308e-05
0.175678
-0.000146325
0.0530472
-1.68415e-05
0.25585
0.0474907
0.000129491
0.0138381
-0.00190386
2.84895e-05
0.453301
0.968921
0.000104172
0.00345238
-5.0939e-05
-0.00123766
-0.0251927
-4.04175e-06
0.000149951
0.000168312
-6.96369e-06
7.36003e-07
3.57994e-05
-0.422757
-0.0141123
-6.35668e-06
4.27722e-05
-3.59427e-05
0.00133835
-0.462214
-2.27335e-05
-1.90239e-06
-0.00741211
-0.00102577
-8.16718e-06
0.000119807
0.863073
-1.34001
0.00734222
-0.0015571
0.528704
1.02944e-05
-2.06189e-05
0.000903542
1.05606e-06
-2.30498e-05
-8.57546e-05
-2.05112e-05
3.92573e-06
-1.72626
-5.04521e-05
0.0013442
-0.104706
0.0010928
1.23114e-05
1.34035e-05
0.574092
0.000868114
0.0294601
-2.55435e-05
2.42339e-06
-3.56528e-06
9.9412e-06
0.000127726
-0.000167886
0.555661
-0.000336563
0.0440605
2.19375e-06
-2.30581e-05
-0.000564804
-8.52117e-05
0.00162774
0.992647
3.4895e-06
-0.830351
1.43592e-05
-3.11378e-06
-3.11117e-05
-0.000148484
7.71569e-06
-6.3344e-06
-0.277357
-1.10473
6.58931e-06
-0.0212596
-0.0067385
9.04506e-06
0.00115081
-0.00601836
0.232002
0.000141115
0.0814255
0.0132365
0.0182176
-0.000173538
0.0053611
-0.000660169
4.29818e-05
0.0518735
1.19962e-05
-1.19993e-05
-1.04006e-05
8.84218e-05
0.00109448
0.00563961
-0.000291086
-2.85517e-05
-0.000273176
0.00327591
0.00110491
-7.93279e-06
-0.0258555
0.000710211
0.000718633
-0.0350087
-4.4237e-06
0.00104407
0.00152661
2.77247e-06
-0.328512
-4.11376e-06
9.65013e-06
0.00126062
-2.52851e-05
-1.35354e-05
0.00166237
-0.332705
-0.492059
-6.40462e-06
6.16921e-05
-5.74368e-05
0.00465577
-0.0115609
-1.19926e-05
-1.18365e-05
-5.67979e-06
0.00155463
-0.0731866
3.55164e-05
1.17669e-05
-2.22448e-05
-6.33156e-06
-3.13325e-05
0.000637517
1.58965e-05
-0.000184042
2.68634e-06
-4.36794e-05
0.000153662
-0.0718109
-1.96695e-07
0.000130557
-3.43139e-05
0.00010415
0.000976647
0.00109292
0.00177031
-0.0110431
0.000121611
0.000173861
-0.161577
-0.950265
-0.149142
1.55679e-05
-2.12123e-05
2.57409e-06
4.08849e-06
0.558804
-1.72709e-05
0.0332008
0.00045206
0.0474096
-0.0068326
3.74071e-05
-2.00717
5.4778e-06
-0.00430872
-2.10298e-05
3.01051e-06
0.00295443
-2.51189e-05
0.103754
1.38689e-05
1.07157e-05
-2.8416e-05
0.00788017
-0.000235719
5.08111e-06
-0.00355542
0.00126303
-0.193951
1.89284
-0.268267
0.186579
-3.72594e-07
-0.16282
1.33619e-05
-0.854911
-0.0181472
7.25752e-05
0.000504844
5.37669e-06
0.000741972
4.83813e-05
-2.58798e-05
-1.58685e-05
3.19977e-05
2.48668
-7.43165e-06
-0.00261712
-1.61636e-05
4.75133e-06
-1.30265e-05
0.00373303
1.33661
-5.23413
-0.000638581
0.00060856
-0.0262253
-0.12978
-1.8974e-05
0.360749
2.74142e-05
-0.00841584
3.16083e-06
0.558129
-5.39392e-06
-0.000166044
1.61915e-05
-0.156863
0.000825671
0.58502
1.08916e-05
0.000880218
3.26798e-05
6.75514e-06
-0.110794
-0.0173669
3.92718e-05
0.00245969
2.60484e-06
-4.22638e-05
1.11731e-05
-0.145251
-7.06e-06
-0.000396259
-1.82748e-05
3.38855e-05
0.00630511
8.93116e-06
0.00168908
-1.71508e-05
3.43435e-06
-0.854868
-0.00298175
-1.51144e-05
-0.78191
-0.016912
-0.449131
0.00172532
4.42544e-06
0.00010923
-0.039202
1.58655
0.000809852
0.000162776
-2.4781e-05
-1.87806e-05
2.65062e-05
0.00930054
0.00130319
0.000364021
-0.900418
0.00082024
-0.834704
-0.0024511
0.000389836
0.00121553
0.00110624
-0.0329271
-2.66715e-05
4.17156e-05
0.0077363
3.28178e-06
-1.37622e-06
-1.83726e-05
-0.000121361
-1.39268e-05
-0.142793
-0.000792999
5.28629e-06
-0.00222895
8.24199e-06
-0.000685874
-4.70724e-05
3.10418e-05
-0.340115
0.000834603
-0.02563
2.45747e-05
0.000111932
2.41749e-05
4.21466e-05
0.000368208
-2.87537e-06
-0.0937937
0.000899084
-0.124972
-0.0182475
9.15071e-06
-0.273748
6.61387e-05
-7.68948e-07
3.78259e-05
-0.184295
-0.00115207
0.000502378
-0.0766885
0.00889802
3.81137e-06
2.70376e-05
0.00012009
0.112884
-0.0673579
0.000922577
4.26267e-05
0.000134
-0.00838077
-0.00015751
0.00205584
-0.000700524
-1.79543e-05
7.44993e-05
3.38933e-06
0.000400138
-0.000263191
0.959082
0.000319339
0.000493745
-0.00386671
0.000512004
0.0215595
0.00013701
0.000928267
0.000407976
0.748764
1.5287e-06
-0.0041652
1.47237
0.00312759
5.82083e-06
0.000324521
-1.81619e-05
8.99082e-07
1.34087e-05
-0.000647037
-0.000253045
0.00093941
0.00165194
2.39954e-06
1.15504
-3.64321e-06
9.884e-05
0.0023166
-7.54094e-05
-0.00428375
-0.0262922
3.05349e-06
0.000819368
0.00120316
-0.000676456
1.85924e-05
9.70796e-06
2.60389e-05
0.0465404
6.11022e-05
-4.9642e-05
-0.00146365
-4.27151e-06
1.57265e-05
0.00207054
-0.0202712
0.000705138
-1.32575
0.00124615
-0.00312829
1.29165e-05
-0.000410654
-0.00634002
2.25444e-05
-0.108978
2.00721e-05
-5.27344e-06
2.54297e-05
0.000358751
0.000957449
1.95483e-05
0.00043993
2.33761e-05
-0.052274
0.000153386
0.00011508
-2.04656e-05
-0.000224376
-9.64239e-05
1.04887
0.00249948
1.73912e-05
-0.0345648
8.1468e-05
-0.024622
3.71409e-05
0.00521186
-0.000150154
6.5646e-06
5.01589e-06
-0.0771202
0.000424578
-0.793393
-0.943742
7.71925e-07
-0.000603201
-4.75156e-06
-0.000306788
0.0523599
-5.09362e-06
-0.91883
0.000118839
0.0117385
-0.000481994
0.0115097
5.80849e-06
-1.57805e-05
-0.00047516
3.42081e-06
-2.03026e-05
9.55404e-05
-1.12641e-05
-0.00136053
7.43325e-06
-0.00503141
-2.48287e-05
-0.0426609
-0.0308906
0.0368115
0.014672
-1.51223
-0.313306
-0.0304646
2.74605e-06
-4.83497e-05
1.28332e-05
7.06562e-05
-6.10583e-06
0.000413182
-1.09465e-05
0.00290159
-1.95625e-05
2.3671
5.40096e-05
-0.000391029
-0.000440434
1.38129e-05
0.00133935
8.08069e-05
5.30467e-05
0.000384902
-7.61378e-06
-0.296359
0.00154623
-0.0033994
2.26452e-05
4.93425e-06
-5.84733e-05
6.58307e-06
0.0755249
3.34274e-06
-0.0128627
-4.61952e-06
0.0111254
-0.000283852
-1.22933e-05
-0.00414605
0.00804951
3.67329e-06
-0.0103085
0.277295
7.98472e-05
-0.000613559
-1.66151e-07
-0.00638438
9.71503e-05
1.03558e-08
-0.0267753
-1.64394e-05
6.93012e-05
-0.00174183
0.00331018
0.00016879
0.164082
0.0890225
6.34494e-06
-0.000198291
-2.05938e-05
2.44237
5.37388e-06
-0.00297302
1.85314e-05
-0.33485
-0.000200246
0.264867
3.95683e-05
6.97988e-06
0.0402489
-1.17155e-05
0.000418394
-0.113162
5.99071e-05
2.18569e-06
-0.20611
-9.13669e-07
-4.68579e-05
0.00126165
9.27194e-05
0.502803
0.00134738
-0.00589724
0.00152205
0.000135522
-0.32445
-2.0316e-05
0.000989807
4.41127e-06
-0.0927334
0.0080047
2.58752e-05
0.000123702
-1.15515e-05
-9.68485e-06
4.76881e-05
3.55853e-05
-3.22135e-05
5.30576e-06
0.000703463
3.08907e-06
4.78795e-05
-0.00233914
0.001677
0.734601
-0.00185554
-6.04338e-05
0.0526078
-8.6884e-06
-0.000710925
-0.032257
-0.555164
1.06316e-06
2.97463e-06
8.58557e-06
-3.63431e-05
-2.52018e-06
7.94057e-06
-5.87134e-06
0.00119126
1.90318e-06
-2.95404
-0.172108
4.89639e-06
-0.0231742
4.64267e-06
3.41083e-05
0.00750688
-0.137212
0.000846983
-1.59719e-05
-0.0350445
5.15895e-06
3.89983e-05
0.684585
-4.65914e-05
0.00577336
7.43527e-05
0.124681
1.36349e-05
-5.65435e-06
0.000898677
-0.0100996
0.000113134
-0.181145
-0.00765346
1.38099e-05
-0.000238722
5.60865e-06
8.70764e-06
-0.00601256
-0.000751544
0.000346524
-0.236567
-0.901463
-0.00739771
-0.00614393
-2.08406e-05
-0.190443
9.10127e-06
0.391588
0.00159662
0.000149796
9.13599e-05
1.18278
-0.677407
0.148085
0.000106542
-0.0419793
4.97322e-05
-1.04878e-05
-0.000943503
-2.87709e-05
1.64919e-05
-0.0106317
0.0431433
-3.99768e-06
-0.000132082
-0.0845651
1.42349e-05
-1.66e-06
0.0305784
0.170166
6.27264e-05
1.36851e-05
0.000309761
1.35763e-05
3.57851e-05
-0.000728827
0.000171154
1.19251e-05
-0.0348202
0.000134435
0.000429958
-0.0239292
-0.00635392
-0.102914
2.64601e-05
4.76704e-05
0.015714
0.0277824
0.0346799
0.000494747
0.000963555
2.14031e-05
7.82986e-05
0.000165713
0.889428
0.000303568
-6.66923e-05
-0.000603337
-7.65744e-06
0.0019024
0.000157884
-0.00815362
-0.00422212
0.00272982
-0.0968355
0.49182
-0.234295
1.76761e-05
-0.00186735
-1.16603e-06
0.00152799
0.00171518
0.0636916
0.000262689
8.38607e-06
0.000393524
-1.3608
4.20125e-05
0.286252
0.00095624
0.00132264
0.390803
-5.17984e-06
-0.0084354
0.000127909
-3.65599e-05
-0.000129653
0.000253033
1.36746e-06
-1.59547e-06
9.65164e-05
0.112087
3.15323e-06
5.07503e-05
4.39337e-05
-1.11486e-05
-2.84887e-07
-0.000233211
-0.00514332
-7.17838e-05
1.81537e-05
0.000772697
0.016249
0.00103807
-0.317889
3.13047e-05
5.97304e-06
-0.0468743
-4.67162e-05
6.60102e-05
-0.193343
-0.136015
-0.000797956
0.00152748
0.000351967
-0.119759
-0.00550543
0.00101776
1.58114
3.13792e-05
0.00164577
0.105087
-0.0233575
-0.0633513
0.0610398
1.12283e-06
-3.94623e-05
3.33847e-05
-5.34253e-07
-4.86853e-05
1.63714
-1.59189e-05
0.00110907
-5.10534e-06
-0.00370154
0.355599
9.13374e-05
-0.00566978
-0.684644
6.30551e-06
-0.00594345
0.000186443
6.95704e-05
3.27384e-07
-0.170388
-0.000285544
-0.0441983
0.000606202
-1.28891
0.00093144
0.000113964
0.0330163
0.00089454
0.000315729
-1.35628e-05
0.0044826
8.72963e-07
0.000361862
0.00121624
0.000122499
2.14318e-05
-0.000619764
0.15952
-7.15001e-06
-0.00125127
0.178711
-2.33134e-05
-8.20394e-06
-0.00011675
0.124409
-0.0176376
-1.33258e-06
-0.000344801
-0.000647636
0.0112128
-0.107523
1.44008e-05
1.392e-06
-5.82274e-06
5.43239e-06
-3.00801e-05
0.000102734
0.118211
-1.16297e-05
0.000173866
0.0103234
-0.000335039
-0.00144883
0.29266
-1.37352
2.46111e-05
1.0358e-05
1.9595e-06
3.64943e-05
-0.0050716
-0.262631
0.000270163
-0.000367163
0.00081067
-0.00062139
6.10738e-05
-4.42865e-05
0.000322518
-0.00294718
-9.93667e-06
-0.00846698
-0.000406839
-1.50869e-05
1.90356e-05
-0.194493
0.00124595
0.0260079
-0.0292925
0.00144004
2.62381e-05
0.00143072
-1.01031e-05
-1.84634e-06
0.991111
-0.0311327
-1.11518e-05
-0.000800457
-4.15778e-05
0.00110847
6.49646e-05
7.5468e-06
-8.72819e-06
1.01675e-05
1.44256e-06
0.0007231
0.00121881
-0.0391774
0.00113914
0.000345241
-4.86237e-07
0.00100115
1.3513e-05
0.00111164
0.00372021
0.511116
0.0349311
-7.52463e-06
9.79839e-06
-0.118715
9.31968e-08
0.0321654
0.000123272
0.00134147
8.98468e-06
-3.32058e-07
2.83156
0.000441801
-4.00253e-05
4.97953e-06
2.42609
1.09337
-0.11931
1.20702e-05
-3.88305e-05
0.110006
-8.61205e-06
1.20083e-05
-0.00289684
-0.131537
0.000533779
0.000587359
5.95281e-05
0.17907
-1.84423e-06
-0.000354316
2.11262e-05
9.88722e-06
0.513124
-2.34567e-06
9.4393e-06
-0.00509767
-0.00243164
0.923531
-0.00469845
-3.77875e-06
0.000412096
1.62861e-05
2.10425e-05
-0.000226012
2.68878e-05
2.25766e-06
-0.0250081
1.30259e-05
0.00139155
-0.000525711
-0.000136254
1.40425e-05
0.000236997
3.231e-05
-0.180265
-8.64889e-06
-0.700988
-0.00246656
2.71837e-05
-0.000749391
0.000565556
0.000421179
-8.86229e-06
-0.000454536
7.40349e-06
-1.55592e-05
0.0224487
0.00101049
8.37277e-05
-7.76824e-06
1.41811e-05
1.71139e-05
0.00166571
-8.88871e-06
0.369666
0.00106102
-1.76453e-05
1.43923e-06
-1.34753e-05
0.00114657
-0.00666404
-1.6082
-0.0301146
-0.00804794
3.1996e-05
0.00124528
-0.000106508
1.29116
-4.70671e-06
-2.49744e-06
0.000333961
-0.00477948
-1.47211e-05
-0.21182
-3.81402e-05
-3.12792e-06
-0.00354629
0.00513389
-0.323733
-1.98268e-05
0.000395776
-0.00348408
-0.00609848
3.51766e-05
1.52441
5.28501e-06
-1.12872e-05
0.00233656
-8.30984e-06
-0.1554
0.000226732
-3.79933e-06
5.85596e-06
3.66335e-05
-0.239312
-1.91332e-05
9.0463e-06
-0.00242776
-3.44366e-06
1.39794e-05
0.000141178
2.96349e-05
-0.000780502
2.24385e-05
-0.000173299
1.24773e-06
-0.0184652
0.000411321
2.07029e-06
2.29742e-06
5.45777e-05
9.00883e-07
0.000120095
-1.06675e-05
-5.37248e-05
2.36225e-05
-3.54701e-06
3.03904e-05
4.5263e-06
0.000352627
-1.3336e-05
-0.000159182
-4.10742e-05
0.00122321
-6.97574e-06
2.32087e-06
-4.66963e-06
-1.93803e-05
0.0012381
-0.000242874
6.61762e-05
1.39053
0.043823
-0.305229
0.230735
-0.00103385
-0.0151977
-4.59508e-05
3.00763e-06
-0.0210522
0.280706
-3.5772e-05
-0.106978
-1.62831e-05
-0.0074006
-0.0154881
0.000144296
0.000684021
0.147225
2.23468
-1.55874e-05
-0.00103675
5.03039e-06
-0.00314244
0.000181373
-0.142324
0.480199
1.14491e-05
0.00215268
-0.0150596
1.57424e-05
0.000572815
-0.00149636
0.000109852
5.21083e-08
-3.31155e-05
-0.159148
3.48563e-05
-5.6477e-05
-5.87606e-05
-0.02127
0.00192923
-1.23282e-05
-6.7267e-06
0.245759
1.65014e-05
6.26722e-06
5.07049e-05
-5.17771e-07
-0.00617587
-0.000234543
0.000448988
-0.226053
1.68056e-06
0.00105192
1.53235e-05
0.00139468
0.00148514
-0.00317849
-1.33666e-05
0.00033633
-1.18439e-05
-9.25851e-06
3.25054e-05
-1.14129e-05
0.0163071
6.03693e-05
1.33608e-06
-7.32644e-06
0.00527612
4.44824e-07
0.0362515
0.291296
-0.00151093
3.9611e-06
5.84396e-06
-2.43847e-06
-0.0231971
-1.93041e-05
0.0859094
-1.78753e-05
-0.0443426
7.3599e-05
4.20796e-05
1.36921
-2.41868e-05
1.63724e-05
-0.130352
-0.000447223
-0.184387
-3.80589e-05
0.057726
-0.956509
-3.72214e-05
-0.175566
-4.40831e-05
-0.00019505
-1.61189
-8.58503e-05
0.00117758
-0.0371469
0.000649016
-0.000539813
1.27638e-05
0.274492
6.00097e-06
0.046274
-1.87772e-06
0.000601077
6.65633e-06
3.27826e-06
-0.00011281
-0.0719109
9.23181e-06
0.031653
0.000773994
0.151292
-5.09247e-06
0.000728628
-0.0872942
-0.265558
-0.00456573
0.00172419
-1.29145e-05
0.00157469
-0.0199199
3.89446e-05
0.0206153
2.96886e-06
0.00137551
-0.0357631
1.1633e-05
-0.106
1.47984e-06
0.0995392
0.00113997
0.000192401
-0.000265066
0.0550063
0.0221338
5.003e-06
0.000115171
-1.13532e-06
-2.72162e-05
0.406692
0.00155637
2.52293
3.55892e-05
0.000581467
-0.144897
0.00228898
0.161153
0.167766
-4.5105e-06
4.42767e-06
-0.0253125
0.850797
-0.0027726
-0.0186508
0.0877094
0.00133212
-0.00115204
0.0294874
0.152192
-0.110776
5.30087e-08
0.00156049
0.00119619
0.0014554
-1.0145e-06
4.99705e-05
0.00153819
-0.0109488
0.0146945
-1.96554e-05
0.0219773
-0.21454
0.00138571
5.47469e-06
5.79689e-06
-0.914909
-1.93836e-06
-0.301775
0.000642184
0.000384242
0.00017633
0.000417178
1.48989e-06
0.000946423
0.000398439
1.0938e-06
-0.180905
0.000116007
-0.276996
-3.22526e-05
-0.207652
0.552954
-0.0379136
-1.86817e-05
0.000481652
0.000722882
-0.00201522
0.000895323
-0.00195548
0.397127
-0.0193659
-8.28385e-06
0.000415101
2.2994e-05
0.00124272
0.0599346
7.68095e-07
3.30395e-07
9.08178e-05
0.00712571
0.0101602
-2.61677e-05
0.0012308
-0.000734625
1.36703e-06
0.000381968
0.000101716
-0.26423
-0.000294492
0.00985509
0.0634962
0.000459913
8.10101e-05
0.0262538
-8.0551e-06
0.00137435
0.00808694
2.67737e-05
-0.00339252
-0.000414173
-0.0019645
0.537639
0.0892953
1.25932e-05
0.0739621
-0.0118923
-9.09883e-06
-0.00769904
0.00116442
-0.000830744
0.0432088
-0.0162833
0.0127968
0.00177094
0.0345248
0.000536894
-0.00476152
3.12679e-06
2.22261e-05
2.23456e-06
6.84785e-06
2.027
-0.00346462
1.46111e-06
0.00113722
-0.0186488
-7.46176e-06
-0.08282
0.613182
-6.03614e-05
-2.14883e-05
1.56136e-06
-1.78238e-05
-0.000957026
6.11837e-06
-1.58761
0.000406024
0.0015263
0.000136579
0.00146337
0.000857466
0.000702646
-0.105418
-2.49701e-07
-1.12691e-05
9.5208e-06
-2.36502e-05
-0.0479168
-0.00758222
0.000672185
-1.11586
2.62328e-05
-7.12386e-05
0.000833975
-1.62367e-05
-3.28051e-05
-0.000386186
0.000347671
-0.0857921
0.835379
-0.827764
9.28482e-06
-0.638208
-4.69497e-06
1.89926
5.41434e-07
0.00206437
1.07743
-7.4034e-06
0.00441605
-0.0701598
0.000968085
-4.44724e-06
-8.22432e-06
0.000611536
0.676014
-2.49931e-06
2.89601e-05
2.67573e-05
-1.30584e-06
-0.0637407
2.51582e-05
0.000394975
-4.7291e-06
1.91513e-05
0.0112201
0.000888262
-0.000297188
0.00136453
-0.749115
-0.0811183
-0.0139813
-1.40407e-05
-7.62015e-05
0.00599911
-2.9413e-06
-0.000128748
1.21606e-05
0.269502
8.65993e-05
-2.17985e-05
-0.000786475
0.924358
4.39548e-06
-1.36046e-05
-3.8831e-06
-0.00336032
-1.05953
0.00149521
4.34899e-06
-8.72457e-05
2.72894e-06
-0.206018
4.89486e-06
2.31408
-0.00218774
2.46217e-05
0.00528583
0.00078715
-0.00413264
2.0292e-05
2.04904e-05
0.000829402
0.00125766
-0.00481377
2.42652e-05
-2.94584e-05
7.31962e-05
-0.139858
-7.69237e-06
1.9806e-05
0.134223
6.99836e-05
0.00033526
0.000263809
2.78979e-05
-3.64387e-05
0.0166086
4.84092e-05
0.14581
0.00105595
-3.61135e-06
-0.217762
1.24686e-05
0.00190819
0.00136184
2.30242e-05
-2.41543e-05
-1.00159e-06
5.47743e-06
0.139357
-0.00130548
-0.174793
0.0496198
8.01142e-06
0.00016309
0.00132057
1.93328
5.46472e-06
0.00124706
0.0939179
0.325383
6.60138e-06
0.000131192
4.23759e-05
0.00275811
-0.019363
0.000357363
3.72683e-06
0.000477106
-1.47555
2.0379e-05
0.000139341
-3.87002e-05
-0.00852613
0.0905385
-5.50885e-06
0.545547
-0.00019407
5.24239e-06
0.241292
-0.00178921
-0.286712
0.0132639
0.000967251
-0.000164325
1.59339e-05
0.000351973
-3.48346e-05
-0.000863455
0.00132853
-5.21253e-05
0.000228527
0.213447
0.948481
-3.34884e-06
0.00066793
-0.574373
-0.0152993
-5.65498e-05
1.13417e-05
0.0335131
1.12773
-0.00729579
1.66038e-06
-0.747973
-0.00474099
-6.82876e-06
-0.035117
0.000576229
-5.381e-05
0.00724981
-9.86464e-06
-0.0069961
-7.23531e-07
1.29354e-06
-5.18146e-06
-3.69496e-06
0.647631
-1.00219e-05
-5.27225e-06
0.00056256
9.22146e-05
3.71071e-05
-0.00044745
-1.56448e-05
4.75086e-06
8.56001e-05
3.81414e-05
-0.00853648
-0.00143268
2.90626
0.036691
0.000645554
0.0140641
-0.000687024
0.435571
2.73872
0.991083
1.21629e-05
0.000651668
6.66847e-06
-3.76351e-05
-2.79222e-05
-2.50608e-05
0.000117591
-0.00327075
0.00132806
-6.51232e-06
4.74602e-06
-0.00355493
2.81668e-05
-4.03141e-05
-2.24526e-05
-0.22525
0.000899575
0.0225986
8.33113e-06
0.0126026
-2.63985e-05
-5.98471e-06
-0.000108478
-0.000791614
-2.75388e-06
0.00174011
-0.174607
0.00137986
-0.0996661
7.55734e-05
2.56429e-05
0.000579566
-0.0529987
0.00165327
-1.42687e-05
-3.23209e-05
-1.5357e-06
0.0087942
4.22172e-06
0.00474739
-0.000434467
0.00156668
-0.117355
-0.969149
-0.00172533
-0.219532
3.17793e-05
-2.78217e-06
-0.267932
0.140497
-1.27339e-06
1.18619e-05
-0.0151629
-2.43521e-07
0.00182925
2.46032e-05
6.52312e-06
0.000323676
1.12944e-05
0.00151446
-0.111779
-0.127091
0.00026401
6.58946e-06
-0.000829009
8.64832e-05
0.00114435
7.17996e-06
-0.00419241
-0.0059137
-3.6595e-05
-5.22e-05
-7.76071e-06
-0.00282675
0.00220839
-0.051518
-0.0157405
0.000789172
0.367293
-0.00268556
-0.0075597
0.178545
-4.09063e-06
0.130693
6.29617e-05
-0.217825
2.15752
0.0976074
0.462077
8.86351e-07
0.00148777
-0.0861943
2.94261e-06
-0.0291472
-1.76172e-05
9.26881e-06
0.000189122
5.18448e-05
0.000191185
0.94971
0.554027
-1.55367
0.000402368
0.00133828
4.52196e-05
3.7957e-05
1.52392e-05
0.00112226
-0.00270278
0.568372
0.00134882
-3.86414e-06
1.42241e-06
-0.000105268
0.730981
8.09836e-05
-0.000134711
0.000341296
-0.00185405
0.000178241
0.00133913
0.000747525
0.247637
0.00076712
0.000235587
5.86301e-06
0.000173662
0.00307785
0.0929257
0.00134478
-1.66932e-05
0.220083
0.000811446
2.70999e-06
0.00117499
-0.153826
0.0456697
0.00103088
-2.73302e-07
0.196203
-3.38485e-05
1.10402e-06
-6.01541e-06
-0.0114078
0.0612825
2.35382e-05
-0.0244223
1.13854
2.44738e-05
0.000943672
0.00155245
-0.281735
0.00086979
0.0176154
-4.69237e-05
0.0707763
-0.000268663
-0.0618162
0.000656208
-2.79538e-05
-0.218663
8.45493e-06
3.00098e-05
0.0860131
0.10783
-0.0354759
0.00535206
0.000109707
0.000102473
2.61625
-4.21648e-07
-4.33325e-06
1.10013e-05
0.00122684
4.58245e-06
0.00051705
2.34712e-05
0.000454044
0.428787
5.77963e-05
-0.0460336
3.25656e-05
-0.245861
-0.11372
1.23776e-05
2.53939e-05
0.00018896
-0.0419771
-0.0706513
0.00137178
-0.180557
0.264214
0.00169328
3.20398e-05
0.149679
0.0770488
0.000843027
1.45887
-2.66738e-05
6.53223e-06
8.14442e-06
-4.53973e-05
-1.32568e-06
0.00018687
-0.13849
0.000339142
0.00780049
-1.73862
0.0948025
-0.276148
-0.0625447
-0.000344486
-0.129691
0.00167998
-0.00270677
-4.90328e-07
-9.5817e-06
-0.00140065
-0.0712883
-7.5299e-05
1.52394
-0.0949485
1.54191e-05
1.58668e-05
-4.97066e-05
-0.00140631
-3.86883e-05
0.00137344
0.0807217
-4.89971e-06
4.07151e-06
1.28111e-05
5.89074e-05
-0.00597991
-0.173691
0.00116408
0.171505
0.00145682
-7.38021e-06
-0.0725787
-0.00254962
2.39968e-05
2.52853
1.8652
0.314224
-0.00257541
-0.0956861
4.5271e-07
0.624729
-0.200154
0.000299869
0.420552
-1.86634e-05
5.54372e-05
0.000189623
9.44575e-05
0.232548
0.00151276
2.29248e-05
0.000562021
0.00630812
-0.207497
2.65079e-05
0.000282879
-0.322094
-0.0153434
2.08982e-05
0.000620233
0.00161735
1.67994e-06
4.80875e-06
0.727379
-7.11279e-06
1.37068
-1.06576e-05
0.153306
-2.09933e-06
-0.000332971
0.00172704
6.4181e-06
3.19869e-06
1.73716
0.00765197
2.55263e-05
0.00073855
0.00307086
0.269378
-0.159558
-0.0131488
0.000405958
-0.127242
-0.044629
0.00108634
-4.66769e-06
-0.0087348
-1.53539e-06
-1.80276e-06
-0.0871055
0.00129738
0.00169148
0.000227632
8.84131e-05
4.80165e-06
2.49405e-06
5.49373e-05
7.43174e-05
0.111043
0.000195212
-0.00395164
-0.12875
0.00135146
0.000217444
0.835426
0.0122718
0.0927924
5.22181e-05
0.000256314
0.00110193
0.000379873
0.00111382
0.0100353
5.07714e-05
-0.00752465
-0.173895
0.000481265
-0.00328524
0.000511925
-0.0042441
-0.00412862
0.000106853
-0.00505261
-0.00333591
-0.00804546
-0.0364706
-0.00770228
0.000829592
-0.000349511
-4.1181e-06
0.000659172
-0.00233653
-4.83605e-06
0.00998748
-0.200489
-0.000163133
-0.0920272
-2.57543e-06
-1.88865e-05
0.0848645
2.18227
6.67345e-05
6.7389e-05
-0.00465747
-0.237456
-0.0200618
-1.17006e-05
0.000653394
0.000343118
-0.963396
-0.00813893
8.79816e-05
0.00613
-0.207135
-0.000992298
0.0641068
0.00180818
0.000369041
-0.17683
-2.73773e-06
-0.132448
-0.247538
3.21267e-05
0.00150224
0.000862779
-0.000243856
4.84686e-06
-0.0260203
0.195569
1.56362e-05
8.13124e-06
0.857482
2.69244
0.00140132
-8.05739e-07
0.301068
0.00221175
-0.165554
-0.102715
1.44825e-05
4.01695e-06
6.23002e-05
-6.66104e-06
0.138972
0.0331306
0.634559
-0.00285074
1.28231
-0.0614266
8.32472e-06
-1.69587e-06
-0.205885
-2.48197e-05
-0.0590417
1.06628e-05
0.00151563
8.88441e-05
-4.85057e-05
0.31742
-8.33605e-06
-0.00188555
0.0248429
-9.75972e-06
-6.65212e-05
0.0001017
-0.0750349
-0.0978092
0.000269949
-0.241631
-2.08603e-05
3.16372e-05
0.000371439
0.0013901
-0.234947
-1.18493
0.00020264
-0.0228763
-0.00414161
1.63754
-0.00039615
-3.42699e-05
-4.22933e-06
-4.13056e-07
-0.0155641
6.96558e-05
0.0138851
0.00136442
0.00738022
-1.88367e-06
0.00731747
-0.0173941
-0.588452
4.51357e-06
0.000117458
1.25003e-06
-0.239208
0.00778357
-0.171808
-0.0186327
-0.00118978
0.666556
-4.42274e-06
0.000393762
0.0005834
-0.0087987
2.91638
7.50677e-06
0.00147671
-7.27694e-05
7.79776e-05
-0.00436771
0.00786125
-0.00230805
-6.29532e-05
0.000673399
-0.00601033
-0.49134
-0.0199539
0.137475
0.0969828
1.97676e-05
0.00157285
4.36768e-05
0.00367862
-1.16719e-05
0.000523843
-0.0001912
0.00111376
-0.0493288
0.0500985
2.0265e-05
-0.00530388
-0.256673
-0.00926285
-0.000157966
-0.0246271
-0.00737998
-1.83575e-05
9.76385e-05
0.174481
0.000644536
0.000931705
0.446527
0.00190082
0.0148386
3.43496e-05
1.29713
-0.156037
0.0474901
-0.0253867
0.000713356
-0.00100395
-0.000562637
0.179439
-0.0550535
5.5136e-05
2.24187
0.001443
0.00329456
0.000572687
-0.904959
0.00658199
0.0510188
6.56768e-05
-0.900477
0.000218785
-0.118255
0.000621689
1.92139
-0.132926
4.29379e-07
4.31238e-06
-0.179654
-0.0986091
-0.00748958
4.74671e-05
0.00136895
0.000185159
1.38465
-0.00757802
-0.237724
0.000427386
-0.215726
0.000953571
0.238726
5.16561e-05
0.004476
-0.92526
-8.35738e-06
-0.00586589
-7.31103e-06
0.000229164
1.68084e-05
-0.103174
-1.18052e-05
1.15718e-05
-0.143806
0.149848
-1.32741e-06
-0.176258
6.56018e-05
-1.13434e-05
-1.41721e-06
-7.44775e-06
2.42538e-05
2.14527
-0.213952
-1.51187e-05
-0.0251947
-0.00190884
-0.00141564
0.23758
-0.00365792
0.000385705
-0.000239766
8.59488e-07
-0.0805459
0.000551937
-0.195392
-9.04924e-06
0.218815
0.867071
0.00152811
0.238181
-0.194237
3.44767e-06
-0.0333634
0.00145935
-9.7776e-05
-0.000821238
-6.08405e-06
-0.000461727
0.00530318
1.46642e-05
0.00553355
4.29085e-06
0.133287
0.00630603
0.421487
-0.0664965
-0.0363717
-0.105948
-1.81636e-06
-1.29583e-05
-0.00196363
0.000103692
2.5185e-05
2.75601e-05
0.000548837
9.1071e-07
-4.10935e-06
7.7983e-05
0.00137034
0.000133329
0.000518073
7.61521e-06
0.000397646
-0.00848275
0.000168458
0.0651033
0.000150529
-4.23517e-06
-0.00382514
-0.00112786
-1.33175e-05
6.20324e-06
-0.0512851
4.77277e-05
-0.169077
6.28039e-05
0.00198125
3.14405e-07
1.22037e-05
-0.00269174
-0.243294
-0.00163104
0.0011608
-4.66321e-06
-0.202008
1.80945e-05
-5.45367e-06
-0.00238492
0.000167688
0.000451995
-0.262713
-0.00020069
-0.0254026
0.00135297
0.0415055
-3.50056e-05
1.34747e-05
0.0014232
-0.116543
-0.00170732
0.00185102
0.0906987
0.000572981
1.08202e-05
0.000399446
0.104216
-0.00334565
1.51969e-05
-0.0048261
-0.0080123
0.00130619
2.07337e-05
1.23447e-05
0.00562275
0.00153403
0.250506
0.0415293
-0.000143745
-0.00018961
2.20214e-05
-0.00118388
-0.025122
-3.53813e-06
0.0033562
0.000382694
0.0015717
0.22344
1.27811e-05
-1.935e-05
-1.34183e-06
-0.0954672
-0.0203188
0.000101564
-0.00378821
-0.0046007
2.05613e-05
-1.9982e-05
-0.0124395
-0.145926
0.0049735
-0.227236
-0.00268906
-0.00011226
1.81912
-0.00604028
7.47177e-05
-0.0193528
-0.00535321
-0.0359779
8.2512e-06
-0.00834175
-0.00208567
4.90354e-05
-0.0747054
0.00132102
0.000106255
0.000547376
-0.0121592
-1.26226e-06
-0.0708898
9.08631e-05
2.98507e-06
-4.20707e-05
1.97384e-06
6.16309e-05
5.99757e-05
4.56115e-06
8.81939e-05