/*--------------------------------*- C++ -*----------------------------------*\
| =========                 |                                                 |
| \\      /  F ield         | OpenFOAM: The Open Source CFD Toolbox           |
|  \\    /   O peration     | Version:  v2012                                 |
|   \\  /    A nd           | Website:  www.openfoam.com                      |
|    \\/     M anipulation  |                                                 |
\*---------------------------------------------------------------------------*/
FoamFile
{
    version     2.0;
    format      ascii;
    class       surfaceScalarField;
    location    "200";
    object      phi;
}
// * * * * * * * * * * * * * * * * * * * * * * * * * * * * * * * * * * * * * //

dimensions      [0 3 -1 0 0 0 0];
oriented        oriented;


internalField   nonuniform List<scalar> 
20673
(
-0.17184
0.161734
0.0101059
0.369655
-0.305749
-0.0639058
0.0218422
-0.0495119
0.0276698
0.151397
-0.276384
0.124987
-0.364527
-0.112691
0.477218
-0.0203651
-0.00219166
0.0225568
0.0342444
-0.029902
-0.00434241
0.00953879
0.0187985
-0.0283373
0.013535
-0.0264321
0.0128971
-0.0561255
0.157614
-0.101489
-0.10624
0.105632
0.000607995
0.149986
0.00427358
-0.15426
-0.0977513
0.000266659
-0.000477993
0.000209944
0.203836
-0.0379118
-0.165924
0.241147
-0.241856
0.000709652
-0.105225
0.29936
-0.194135
0.140283
-0.162916
0.0226327
0.150585
-0.000598378
0.338049
0.260426
-0.598474
-0.368202
0.572883
-0.204681
0.0322492
0.00199523
-0.596885
0.33567
0.261216
0.0456268
-0.036088
-0.308836
-0.0580309
0.366867
-0.00369533
0.0316945
-0.0279992
-0.105876
0.0776685
0.0282079
-0.09987
0.0514014
0.0484686
-0.0651736
0.0522814
0.0128922
-0.148017
0.109485
0.0385316
0.156385
-0.170644
0.014259
0.195115
-0.205699
0.0105839
-0.096906
0.138023
-0.0411166
0.174325
-0.0481481
-0.126176
-0.38622
0.362477
0.0237434
0.089179
-0.10837
0.0191906
-0.362395
-0.23449
-0.00440781
-0.00311998
0.00752779
-0.18635
-0.0547276
-0.0151975
0.000809237
0.0143882
-0.575393
0.58538
-0.00998703
0.685462
-0.381639
-0.303824
0.362765
-0.534231
0.171466
-0.049431
-0.0184667
0.0678977
-0.170559
-0.154966
0.325525
0.0959727
0.0716345
-0.167607
0.147124
-0.00684117
-0.0168447
-0.111507
0.128352
-0.00337484
0.0100849
-0.00671003
-0.676536
0.433701
0.242835
0.0430004
-0.164874
0.121873
-0.283343
0.0337688
0.249574
-0.00647068
0.00309584
0.0550168
0.119308
0.167528
-0.272753
0.212478
-0.223792
0.0113136
-0.112439
0.00619916
0.27099
-0.351703
0.0807125
0.0844124
0.160996
-0.245409
-0.331695
0.161137
-0.0171416
-0.0186856
0.0358272
0.163358
0.206297
0.000265442
-0.162504
0.500553
0.0155882
-0.0359533
-0.0783858
0.0861407
-0.00775491
-0.515606
0.320601
0.261614
-0.36206
-0.104857
0.103118
0.00173839
-0.162082
0.181813
-0.0197313
-0.524909
0.160382
-0.0164684
0.0300034
0.000421979
-0.00404755
0.00362557
0.141117
-0.449953
-0.00738531
-0.00699345
0.0143788
-0.01847
0.144414
-0.125944
0.00415616
-7.99696e-05
-0.00407619
0.0721989
0.190977
-0.263176
0.0337109
-0.0313306
-0.00238036
-0.611595
0.331144
0.280452
-0.320167
0.598899
-0.278732
-0.260461
0.00813549
0.0245373
-0.0326728
0.00684014
-0.011248
0.00265437
0.00321223
-0.00586661
-0.21279
0.284989
0.370593
0.201169
-0.571761
-0.0888178
0.0104321
0.211872
-0.168871
0.512387
-0.149622
-0.00220285
0.00175984
0.000443008
0.122211
-0.00393137
-0.118279
-0.0507299
0.364543
-0.313813
-0.261214
0.0529151
0.208299
-0.0392852
-0.0495326
0.0247304
-0.0351797
0.0104492
0.0862635
-0.124186
0.0379226
0.128508
-0.00111429
-0.127393
-0.0655535
-0.0366906
0.102244
0.0519627
-0.0639093
0.0119466
-0.453014
0.555996
-0.102982
0.122377
0.0078666
-0.130244
0.0191547
-0.0685857
-0.271831
0.0730813
0.19875
-0.481585
0.0883245
0.393261
0.0358405
-0.0264768
-0.00936365
-0.0029901
-0.0622447
0.0652348
0.0941382
-0.110983
0.103008
0.196352
0.161849
-0.150708
-0.0111409
0.00286588
0.0069377
-0.00980358
-0.00288283
-0.0123146
-0.111195
0.131826
-0.0206314
0.0322341
0.00360637
-0.274384
0.116707
0.157677
0.00733022
-0.00784297
0.000512747
-0.362783
0.498509
-0.135727
0.010986
-0.0117078
0.000721826
-0.00720882
0.00914084
-0.00193202
-0.0768915
0.165361
-0.0884698
0.493181
0.192281
-0.095972
-0.00888469
0.00156256
0.00580453
-0.00736709
-0.0559238
-0.0439463
-0.605124
0.122692
0.482432
-0.245257
-0.0159566
0.0989614
0.218956
-0.317917
-0.530942
-0.074181
-0.488688
0.582265
-0.093576
0.0225388
0.00871639
-0.013004
0.00428766
-0.0821002
-0.192283
0.14873
-0.303696
0.213451
-0.581653
-0.130838
0.0647317
0.0661065
0.00862346
0.0370033
-0.0165468
-0.155293
0.0513516
0.000611124
-0.117292
0.437893
0.101687
-0.178578
-0.0950655
0.11264
-0.0175741
0.449874
-0.190465
-0.259409
-0.216502
0.276934
-0.0604325
-0.0715407
0.02476
0.0467807
-0.070182
0.331796
0.0444899
0.00628845
-0.0507783
0.0177868
0.0433
-0.0610868
0.017448
-0.300791
0.502307
-0.166773
-0.335533
0.223694
-0.214057
-0.00963712
0.154558
0.00413659
-0.158694
-0.000334437
0.00766466
0.0221798
-0.115704
0.0935238
-0.0816271
-0.0437498
0.125377
0.218779
-0.213738
-0.00504143
0.00233482
0.00210721
-0.00444202
-0.174158
0.0120758
0.0323463
-0.0909569
0.0586105
-0.000434869
0.00459103
-0.0776077
-0.0532305
-0.148482
0.218901
-0.0704188
-0.0856027
-0.00627653
0.0918793
0.247543
0.351652
-0.599195
0.112115
-0.0258513
-0.134824
0.0236293
0.0287884
-0.0943419
-0.202369
-0.0694618
-0.15735
0.153812
0.00353843
0.133225
0.220761
-0.353987
0.0253976
0.0969795
0.150133
-0.142457
-0.00767552
0.0178541
-0.00770523
-0.0101489
0.109449
0.00559885
-0.115048
-0.00728432
0.235906
-0.228621
0.0624093
-0.048623
-0.0137862
-0.0431344
-0.0698032
0.112938
0.0146731
-0.00595671
0.000602365
0.0103836
0.0606979
-0.016208
-0.25884
0.401013
-0.142174
0.00582168
0.116389
-0.0129794
0.169364
0.297371
0.152503
-0.0860056
0.456598
0.189957
-0.0917049
-0.0982526
0.0350668
-0.0387622
-0.0324717
0.128661
-0.0961894
-0.000204946
0.00253976
0.151352
-0.15103
-0.000321831
-0.107039
0.0978972
0.00914144
-0.00937684
0.0742658
-0.064889
0.000332432
0.00232194
-0.114438
0.0953155
0.0191221
0.624135
-0.281422
-0.342713
-0.0313132
-0.0140773
0.0453905
-0.102085
-0.00379103
0.626001
-0.626
-0.303146
0.252416
0.00639448
-0.0809208
0.0745263
-0.0884143
0.0882902
0.000124147
0.0242619
0.176352
-0.200614
-0.337992
-0.338544
0.163313
-0.00214401
-0.161169
0.153394
0.00116396
-0.00505132
0.0054733
-0.0754537
0.105056
-0.0296027
-0.280612
-0.105608
-0.0898991
0.36089
0.00821457
0.120293
0.015485
0.0316033
-0.0470882
-0.286686
0.0701837
0.0370352
-0.0283462
-0.008689
0.0071298
0.000118831
-0.00724863
-0.0057221
-0.101317
-0.413304
-0.068281
-0.0582588
0.0415303
0.0167286
0.1485
-0.0052448
-0.143255
0.0105961
0.00412395
-0.0147201
-0.490435
0.289558
0.200878
0.0403347
-0.0574763
-0.395343
0.136503
0.000331126
0.115011
-0.115342
-0.126785
-0.448607
-0.00628325
-0.000207497
0.00649074
0.0333268
-0.0244329
-0.00889385
0.0636893
0.177457
-0.119366
0.0185384
0.100828
0.0379657
0.180813
-0.453574
0.0402705
0.00538761
0.0837914
0.12407
-0.0146217
-0.0104732
0.161825
-0.0570124
0.0201526
0.0368598
0.00828446
-0.00115466
-0.586645
0.486064
0.100581
0.193704
0.00141109
-0.00276468
0.000561831
-0.00317604
-0.0024449
0.00562094
-0.298464
0.546007
-0.460227
0.440012
0.0202153
-0.0169785
0.00129287
-0.117952
0.0944173
0.0235348
0.398605
-0.601732
0.203127
-0.0777875
0.0916703
-0.0138828
-0.14445
0.141744
0.00270596
-0.103299
0.0176965
-0.16751
-0.0124922
0.180002
0.581588
-0.229936
0.14002
0.00520646
-0.145226
0.00649728
-0.00715782
0.000660544
-0.28692
0.385777
-0.0988563
0.0541563
-0.134067
0.0799104
-0.0377092
-0.0102304
0.0479396
-0.238938
0.3379
-0.282077
-0.0696263
-0.0256082
-0.105705
0.131313
0.000542349
0.0132718
-0.0138142
0.105583
-0.0834033
0.122085
0.0678726
0.0131433
0.190692
0.242767
0.369097
-0.611864
-0.00375135
0.00531392
0.00522306
0.0406372
-0.0458603
0.0563269
-0.0896957
0.0333688
-0.380217
-0.0733568
-0.00178432
-0.00596226
0.00774658
-0.00168551
0.0012743
0.000411213
-0.0441981
0.0765444
0.0337797
-6.87202e-05
-0.123247
0.104777
0.261421
0.469742
-0.656855
0.187114
-0.141909
0.00243122
0.139478
-0.00174603
0.00254475
-0.00079872
0.116632
-0.13356
0.0169282
-0.170806
0.255218
-0.108966
0.0335124
-0.145084
-0.0150445
-0.0920432
-0.449645
0.54169
-0.0732594
0.0691348
0.00412461
0.255824
0.278555
-0.534379
0.057957
0.00445225
-0.209119
0.233381
-0.0727684
0.471374
0.083265
0.112604
-0.195869
0.0492711
-0.130898
0.105734
-0.11201
0.0217929
-0.0995803
-0.00403102
0.131457
-0.127426
0.376044
-0.0902122
-0.285831
0.0832051
-0.0970471
0.013842
-0.027171
-0.0298414
0.0279269
-0.0227038
-0.225509
-0.264926
0.0822754
-0.0250637
-0.0572117
-0.479738
0.0107406
0.468998
0.185132
0.190912
-0.472991
0.110208
0.0614775
-0.0436907
-0.0575676
0.517313
-0.459745
-0.107204
0.107535
-0.179871
0.0123608
-0.264829
0.398055
0.00347682
0.159836
-0.245499
0.0274343
0.218065
-0.00822816
0.0023396
0.00588856
0.0846692
-0.127804
0.125416
-0.129348
-0.275405
-0.10699
0.382395
0.0672334
-0.34931
0.000798489
-0.00968038
0.00888189
0.00662066
-0.00455601
-0.00206465
0.288489
0.21002
-0.389984
0.620809
-0.230823
-0.0636517
-0.00960777
-0.289333
-0.0670458
0.356379
-0.00122935
-0.0028182
0.10173
-0.377135
-0.00693283
0.00064958
-0.331254
0.254215
0.0770394
0.103862
-0.0111306
-0.0927319
0.216426
-0.143662
-0.0727639
0.0174145
-0.0117505
-0.00566396
0.0616251
-0.210108
-0.00181614
-0.0757916
-0.0519061
0.0110076
0.0408985
0.181767
-0.0985023
-0.0615462
-0.0564059
-0.00778079
0.0714694
-0.0636887
0.0544123
-0.279871
0.225458
-0.00427119
-0.00625442
0.0105256
-0.0521368
0.0208236
-0.000548523
-0.00113699
-0.188489
0.17024
0.0182488
-0.0111949
0.000258522
0.0109364
-0.159754
-0.0575045
0.217258
-0.00161756
0.00412798
-0.00251043
-0.0439839
-0.00792224
0.0721128
-0.0938547
0.0217419
0.094422
-0.0223092
0.0356188
-0.0137766
-0.562779
0.340167
0.222612
0.143918
0.00621532
-0.00588283
0.00874872
-0.179485
0.293603
-0.114119
0.222725
-0.00209972
-0.220625
-0.00271971
0.00224172
-0.0660662
0.0724607
-0.213655
-0.0518175
0.265473
-0.0808617
0.0714849
-0.0369823
-0.0281913
-0.597936
0.323592
0.274344
-0.00858861
0.00137979
-0.109624
0.0335165
0.076108
-0.263793
0.519618
0.50621
-0.358604
-0.147606
0.11441
-0.594148
0.235335
0.266972
-0.0134247
0.0966298
-0.0405518
0.0600182
-0.0194664
-0.0384008
0.0223186
0.0160823
0.00853694
-0.00773845
-0.373776
-0.00249328
0.37627
-0.0623043
0.116461
-0.0093148
0.00995415
-0.000639348
0.124707
-0.165512
0.0408051
0.00713317
-0.00489715
0.00315112
0.00684993
0.209794
-0.476572
0.266779
0.0915548
-0.0352278
0.320444
-0.493036
0.172592
-0.0149594
0.0552941
-0.143391
-0.188305
0.0157558
0.00165865
-0.0279926
-0.116458
0.181717
0.08679
-0.268507
0.463112
-0.57101
0.107898
0.139798
-0.131583
-0.0934731
0.0992948
0.124102
-0.128154
0.00405177
-0.0132791
-0.0376849
0.0509637
-0.00723135
0.00561379
0.014487
-0.00389088
0.00586264
0.134157
0.0621163
-0.118242
0.0164882
-0.476715
-0.00611782
0.00294178
-0.02126
-0.00904703
0.030307
-0.0294452
0.288052
-0.258607
0.092428
-0.0942442
-0.302941
0.500299
-0.197359
0.0392376
0.0732315
-0.112469
-0.0990253
-0.232229
-0.323471
-0.239308
-0.293644
0.110296
0.183348
-0.0255357
-0.00757322
0.0331089
-0.0768139
-0.216831
-0.0186542
0.0191966
0.00370901
-0.00113438
-0.00257463
0.0803587
-0.0843932
0.00403451
0.0270784
-0.0445553
0.017477
-0.214685
0.269098
-0.0335428
-0.0247161
0.0380859
0.587813
-0.245567
-0.342246
-0.0690563
-0.296
0.116515
0.212437
-0.339011
0.126574
-0.0755709
-0.0724457
-0.363306
0.606072
-0.39308
0.460533
-0.0674535
0.387641
-0.0671961
0.0909966
-0.104421
-0.323443
-0.288152
-0.00981327
-0.00138163
-0.00243378
0.0377346
-0.0353008
0.00353965
0.00289791
-0.00643755
-0.0816142
-0.0328235
-0.0058863
-0.0126405
0.0185268
0.00999676
0.00222948
-0.0122262
0.165639
-0.0409327
-0.471797
0.0980207
0.111292
0.0133458
-0.124638
-0.266359
0.0800083
0.206745
-0.194715
-0.0120305
0.229063
0.395072
0.0201461
0.0360409
-0.020556
-0.0510859
0.0486521
-0.189164
0.208108
-0.0189445
0.108876
0.0271736
-0.136049
-0.165849
-0.0226401
-0.259489
0.204762
0.00498396
0.119118
0.194342
-0.24188
0.0475381
-0.0802708
0.0858549
-0.0055841
-0.174512
0.27752
-0.435917
0.37835
-0.00213147
0.000902127
0.0118393
0.00283378
0.0158243
-0.003985
0.0437187
0.0907825
-0.134501
0.00605841
-0.00251877
0.0102225
-0.0144937
-0.000677298
-0.00485636
0.00553366
0.00277116
-0.000948957
-0.0018222
0.146203
0.362993
-0.509195
-0.131365
0.00159911
0.129765
0.22519
-0.030848
0.345963
-0.263834
-0.0821292
-0.112625
0.032201
0.0804245
0.00521509
0.479951
-0.533206
0.0532556
0.0121466
-0.137691
0.125545
-0.00481176
-0.149246
0.154057
0.00123784
-0.000973024
-0.000264816
0.34225
0.245563
0.120772
-0.00869126
-0.112081
0.00127494
0.000694326
-0.00196927
0.102475
-0.0178719
-0.0846033
0.000873037
-0.0106013
0.0097283
0.24944
-0.250797
0.221352
0.516492
0.10951
-0.149515
-0.0246425
0.505579
-0.295785
-0.0322341
-0.00938359
0.0416177
-0.0321983
-0.00620254
-0.154841
0.15081
0.0028286
-0.00520058
0.00237198
0.0226409
0.189837
0.0982292
0.0138857
0.00209643
-0.00277373
-0.00895035
0.0522503
-0.0116346
0.0919933
-0.00464509
-0.0904204
0.10444
0.0163325
0.122885
-0.14807
0.0251845
0.0854791
0.0329809
-0.11846
-0.171346
0.17761
-0.00626456
0.0921665
-0.108805
0.0166386
0.0237237
-0.138245
-0.0138717
0.152116
0.104657
0.00391946
-0.108577
-0.525416
0.538927
-0.0135099
0.107383
-0.0284701
-0.0789131
0.215504
-0.0156964
-0.199808
-0.429305
0.303075
0.12623
-0.16049
0.0109747
-0.264203
0.183959
0.0802441
-0.000877936
0.00211577
0.0115316
0.0207026
0.0893192
-0.378652
-0.511817
0.419775
-0.0351265
-0.00894555
0.0440721
0.0127818
-0.00278505
0.593308
-0.224211
-0.00835521
0.00922824
-0.312822
0.231986
0.0808357
0.126144
-0.0968899
-0.0292539
0.00804765
0.323172
-0.33122
0.00807863
-0.0053392
-0.00273943
0.0630875
-0.0959873
0.0328999
0.0434761
0.180218
0.304817
-0.190496
-0.11432
0.0184483
-0.0243346
-0.116998
0.0845259
-0.0125705
0.0125088
6.16457e-05
0.242802
-0.606108
-0.000260766
-0.00688059
0.00714135
-0.00762579
0.079277
-0.013248
-0.066029
-0.352488
-0.0768168
-0.00393693
0.00714917
0.0242381
-0.012766
-0.0114721
-0.129699
0.166469
-0.0367699
0.124576
0.381634
-0.217229
0.264928
-0.0476985
-0.139826
-0.0616864
0.100924
-0.0427273
0.522679
-0.51598
0.157376
0.646511
-0.436231
-0.21028
0.405052
0.24146
0.00549699
-0.00728131
-0.0480471
-0.0645784
0.0359403
-0.103088
0.117356
-0.0142681
0.568697
-0.0989548
-0.0483257
-0.404688
-0.0109122
0.119788
-0.012907
0.00482623
0.0080808
0.150568
-0.167867
0.0172988
-0.114253
0.335015
0.451111
-0.238674
-0.284787
-0.0929907
0.377778
0.0156254
0.000845797
-0.000513365
0.398825
0.162199
-0.561024
-0.267844
-0.140404
0.408248
0.011284
-0.0227432
-0.148603
0.105552
0.110874
0.0437956
-0.294593
-0.148755
0.261286
-0.112531
0.18303
-0.220238
0.0372078
-0.00456742
0.109225
0.0637507
-0.0715315
0.025573
0.0999051
0.0113871
-0.149052
0.0606454
0.0884071
0.020354
0.0847024
0.00752642
0.11789
0.451611
-0.293148
-0.158462
0.00686468
-0.0003674
-0.452824
0.249704
-0.0269789
0.251708
0.00596106
-0.257669
0.0780044
0.0293787
0.0824468
0.0202855
-0.102732
-0.0145035
0.396501
-0.381997
-0.000911421
0.103387
0.110604
-0.140197
0.0295933
0.00230149
0.00159908
-0.00390057
-0.0818224
-0.0672301
0.00377577
0.0936069
-0.0973826
0.141839
-0.146651
0.320516
0.142596
0.0426914
-0.0147645
0.102951
-0.0243131
0.0192905
0.00502253
0.169651
-0.344163
-0.156697
0.186409
-0.029712
0.112024
0.00533173
-0.00300043
-0.00189672
0.0124158
-0.012417
0.118474
-0.119588
-0.065853
0.109572
-0.036802
-0.205054
0.198764
-0.227361
0.0285972
-0.210993
0.254789
-0.0748513
-0.0152317
0.0900831
-0.052386
0.0257496
0.146945
0.00155443
0.0136425
-0.0167611
-0.00755193
-0.00312427
-0.00944618
0.0204552
-0.218156
0.1977
-0.00938221
0.107611
0.0921957
-0.0291082
0.0856043
0.0922639
-0.177868
-0.290807
0.0874855
0.203321
-0.030175
0.00279819
0.0273768
0.055695
-0.0353877
-0.0203073
-0.0502374
0.0383456
0.0118917
-0.0388709
-0.0694092
0.10828
-0.534782
0.0460948
-0.00666554
-0.00192308
0.00458764
-0.463113
0.44861
0.185819
-0.183202
-0.00261655
-0.00696018
-0.112432
0.119392
-0.124971
0.028065
-0.0156456
0.125131
0.0358801
-0.00973251
-0.0261476
0.111495
-0.0260155
-0.0205004
0.192021
-0.17152
0.020981
0.0217104
0.264773
-0.198023
-0.0667502
0.00260389
0.000167269
0.275786
-0.57425
-0.00872552
0.407551
0.0678051
0.0144703
0.0410649
0.01463
0.0320133
-0.00709853
-0.0249147
0.0968781
0.167895
0.257078
-0.264362
-0.448136
0.180293
0.00458127
-0.149666
0.00269956
0.115157
-0.0863686
0.220672
-0.0219078
0.100547
-0.112182
0.134553
-0.261332
0.26938
-0.0518527
-0.0675135
0.116291
-0.00113394
-0.0815139
0.0728553
0.00865862
-0.0463513
0.358339
-0.311987
-0.0834078
-0.0258412
0.109249
-0.073226
0.000112777
0.00359623
0.0328239
0.12479
0.109331
-0.026884
-0.189109
0.0324127
-0.256626
0.533201
-0.276574
0.290805
0.0853017
-0.376107
-0.090925
0.309881
-0.0883599
-0.0101468
0.0985067
0.154737
-0.0587647
-0.0565027
0.105284
-0.0487814
-0.0380912
0.024812
-0.140154
-0.0171961
-0.221639
-0.376296
0.0274428
-0.0902638
0.062821
0.0225281
0.00948514
-0.103136
0.0859441
0.0171915
0.0576642
-0.344584
-0.180353
0.148047
0.0323061
-0.11925
-0.39673
-0.160118
-0.0418688
0.201987
-0.0526807
0.213677
0.00572498
0.0185131
-0.28256
0.613703
-0.069876
0.188723
-0.00275672
-0.185967
0.083974
0.0216579
0.148923
-0.0609677
-0.087955
0.00499115
-0.000194706
-0.00479645
-0.0216569
-0.0903603
0.112017
0.0479907
-0.26522
0.000746235
0.000787432
-0.00153367
0.0100749
0.00233948
0.353399
-0.26537
-0.0880294
0.221411
0.0302968
0.107536
-0.0779442
-0.0295922
0.0855077
-0.124379
0.117937
-0.00130535
-0.346372
-0.243162
0.589535
0.0345315
0.270285
-0.10406
0.0929294
0.242992
-0.0612757
-0.112321
-0.0158334
-0.150257
0.124649
0.386308
-0.0955023
-0.144978
0.150337
-0.00535936
-0.0293594
0.399363
-0.175539
-0.223824
-0.266064
-0.0312023
0.297266
0.669245
-0.390495
-0.27875
0.00440298
0.00221768
-0.408113
0.621564
-0.201386
0.012222
0.00419913
0.013655
0.00915089
0.201447
-0.210598
0.0505782
-0.00951326
-0.027124
-0.186614
0.0665162
0.0715065
0.233015
0.122155
-0.00487339
-0.117281
-0.0967316
-0.376259
0.139358
-0.00575306
-0.133605
0.323381
-0.581771
0.258391
0.111611
-0.101805
-0.00980636
-0.218816
-0.0940061
-0.0195677
0.0208427
0.0494479
-0.0432473
-0.00620061
-0.00284176
-0.0100653
-0.554731
-0.0712679
-0.230842
0.129438
-0.121911
-0.147825
0.163326
-0.015501
0.0012247
-0.00417865
0.00295395
0.0182904
-0.0182788
-1.15992e-05
-0.135154
-0.0277617
-0.332972
-0.0114602
0.344432
0.107556
-0.0165596
-0.026267
0.0191685
-0.0849818
0.00346793
0.0574537
-0.113956
0.14218
0.000643243
-0.142823
-0.0288939
-0.00558252
0.0344764
-0.165204
0.15157
0.0136345
0.160553
-0.175598
0.00146699
0.0940746
-0.0955416
-0.0771427
-0.00377815
-0.148962
0.0138081
-0.00211986
0.0194529
-0.017333
0.147585
-0.153045
0.00545999
-0.280134
0.0803274
0.199807
0.098665
-0.105625
0.0706071
0.11116
-0.403779
0.316852
0.0869272
-0.185357
0.0252388
0.0148421
0.147007
-0.169208
-0.0448491
-0.382512
-0.0388685
0.421381
0.178714
0.148315
-0.0147666
-0.133549
-0.0628291
0.242297
-0.179468
-0.138713
0.0263924
0.00835308
-0.341325
-0.228125
0.462441
-0.234315
0.140658
-0.548771
0.214985
-0.158602
-0.0563829
0.221828
0.222349
-0.444177
0.0267355
0.185848
-0.212583
0.622529
-0.282663
-0.339866
0.00656831
0.00151032
-0.147386
0.14625
0.00113529
0.0391654
-0.0382324
0.236465
-0.513152
0.276688
-0.357959
-0.20115
0.559109
-0.0354208
0.0860258
-0.050605
0.152276
-0.0293909
0.250014
-0.195065
-0.0549486
0.0416378
0.0163905
-0.0580283
0.136738
-0.0402291
-0.0965087
-0.0745542
0.0595948
0.00336632
0.096864
-0.125099
0.0282347
-0.0885938
0.260164
-0.171571
-0.636958
0.0296165
0.607341
0.594933
-0.18988
-0.256148
0.0106493
0.0156249
-0.0159437
0.000318829
-0.602994
0.245035
-0.0943526
0.0208514
0.0735012
-0.127593
0.154329
-0.00155105
-0.00776375
0.109981
-0.136972
0.0269907
0.11245
0.024288
-0.0119118
0.0958858
-0.437863
0.101707
0.336157
0.281771
0.315244
0.00319898
-0.429643
0.276784
0.152859
-0.299502
0.0812754
0.218227
-0.0483805
-0.0214608
0.0698413
0.250958
-0.0150517
0.0936383
0.452345
-0.545983
-0.00765842
0.177365
-0.169706
-0.0569992
-0.416785
0.473784
0.321325
-0.469853
0.148529
-0.162223
0.0131445
-0.00129723
0.00252193
0.166452
-0.177434
0.0109823
0.250226
0.149138
0.460305
0.125077
0.0043815
-0.00738193
0.0060621
0.331101
-0.101194
-0.229907
-0.109088
0.278739
0.0644298
-0.022792
-0.0850607
0.102843
-0.0177821
-0.0127747
-0.00185671
0.0146314
-0.112655
0.116431
-0.0498025
-0.230332
-0.232825
-0.353819
0.500821
-0.179495
0.00906029
-0.147305
-0.0134191
0.0204615
-0.0895604
0.0690989
0.0504229
0.119817
-0.010587
0.00433258
-0.285919
0.0872371
0.198682
0.0344485
-0.215914
0.181466
0.0115915
-0.0143927
0.00280122
0.146786
-0.449727
0.00264002
0.212864
0.273895
-0.356555
0.08266
0.333621
0.259421
-0.593042
0.0047397
-0.155448
0.087304
0.0184298
0.204943
-0.276308
0.0713647
0.0454275
0.00515067
0.00121631
0.0127751
-0.0139914
0.0306433
0.226101
-0.309129
-0.118266
0.427395
-0.091637
-0.0115371
0.103174
-0.0739986
-0.323277
0.566079
-0.0831916
0.102556
-0.0193645
-0.435178
0.126049
-0.155802
-0.279066
0.363732
-0.0846653
0.436793
-0.153773
-0.283019
-0.109733
-0.241835
-0.101958
0.343793
0.0292045
-0.0899255
0.144997
0.0410657
-0.186063
0.387392
-0.586293
0.198901
0.372076
-0.501439
0.129364
-0.0151111
-0.267902
0.283013
0.0290533
-0.319066
0.290013
-0.338817
0.0727538
-0.0319589
0.0442918
-0.0123329
0.288896
0.0508611
-0.339757
-0.109235
0.399529
-0.290294
0.0231843
-0.00854732
-0.014637
-0.0272639
0.0335524
-0.151924
0.131424
-0.160804
0.000770026
-0.121172
0.120402
-0.051036
-0.166282
0.217318
0.470583
-0.162324
-0.308259
0.125347
-0.0537123
-0.00531209
0.113933
-0.00232179
0.269651
-0.481749
0.212098
-0.302068
0.111571
-0.00407937
0.0223698
-0.0519596
-0.0828005
0.13476
-0.00141972
0.00604416
-0.00462444
0.52805
0.167914
0.000691416
-0.00524743
-0.182951
0.155393
0.0275582
-0.276888
0.0640979
0.0154184
-0.0147999
-0.000618467
-0.018567
0.0102
0.00836696
0.352184
-0.323131
0.103024
-0.101557
0.48817
0.106764
-0.33831
0.0964749
0.426596
-0.19013
-0.000147641
-0.00581462
0.469096
-0.247267
-0.327777
0.280119
-0.0501071
-0.273289
0.0741152
0.199173
0.0330303
0.0931134
-0.0922798
0.0458522
0.30385
0.073693
-0.377543
0.0981439
-0.123693
0.0255487
0.374817
0.163399
-0.538216
0.00711721
0.50254
-0.481281
-0.0212578
0.346561
0.364808
0.215174
-0.579981
0.00626028
0.458446
0.0280868
-0.0117291
0.0153812
-0.0036521
0.0155006
-0.0528695
0.0373689
0.000485416
-0.180838
-0.0415312
-0.0680933
-0.0122365
0.0140823
-0.00184578
-0.280952
0.348185
0.000350802
-0.00701634
-0.0262901
0.00760456
-0.0139523
0.00171578
-0.000117784
0.015372
-0.0152543
0.00683811
0.0163462
-0.0164437
0.0187452
-0.0720293
0.0994721
0.179095
0.0858328
0.00454949
-0.153964
-0.0289869
0.00607258
-0.0273325
-0.410667
0.0581797
0.0902081
0.274335
0.276588
0.0545128
0.537017
0.16378
-0.230389
0.0666084
0.120471
-0.146565
0.0260931
-0.00456481
0.00569001
-0.0011252
0.370759
-0.280551
0.425092
-0.183884
-0.241208
-0.002379
0.0103812
-0.00800218
0.00901445
-0.0778292
0.0688147
-0.268976
0.253865
0.0224488
0.0225188
-0.175952
0.153433
-0.072436
-0.205725
0.278161
0.0249445
0.0245034
0.0886305
-0.0661817
0.161576
-0.211661
0.0500851
-0.166114
-0.107174
0.0124142
-0.0111979
0.0127765
-0.00118504
0.00352619
-0.015234
-0.362122
0.0830559
-0.0877921
-0.0292055
-0.00955134
0.120155
-0.00738394
-0.00416744
0.0115514
-0.0285123
-0.121472
0.123619
-0.00214675
0.256127
0.16967
-0.258264
-0.0761426
-0.209776
-0.504639
-0.113325
0.0662302
0.507656
-0.361452
0.16947
0.0135599
-0.0630512
-0.102153
-0.00447117
0.00226844
0.00220272
-0.131732
0.0351012
0.0966304
-0.0947634
-0.233013
0.124038
-0.00349309
0.00491215
-0.00141906
0.166474
0.326919
-0.24571
-0.0812089
-0.00247655
-0.00092491
0.00340146
-0.360128
0.095299
-0.30438
0.00487791
0.0740572
-0.108498
0.0344407
0.00242402
0.000404578
0.482666
0.299254
-0.345605
-0.0248552
0.0339755
-0.00912034
-0.101766
0.0602349
-0.02828
0.0923772
-0.0640973
-0.137451
0.0374141
0.100037
-0.043748
-0.0646216
-0.486222
0.174182
0.31204
-0.102403
0.100153
0.00225054
0.173131
0.153788
0.010395
0.356852
-0.367247
-0.0793598
-0.211447
-0.0457438
0.0135097
0.00123368
-0.0140084
-0.367939
0.0891618
0.278777
0.497152
-0.125076
-0.0725751
0.34647
0.0224757
0.0665879
-0.1818
-0.00553809
0.187338
-0.231007
-0.198636
-0.302157
0.0885022
-0.00249829
0.363068
-0.0592177
-0.00871218
-0.0757184
-0.0140732
0.0897916
-0.0124938
-0.00458354
0.0170774
-0.326275
0.0873364
0.117652
-0.0258544
-0.0917976
0.183539
-0.163084
-0.00616378
0.000824578
-0.00456949
0.0010764
0.0106451
-0.0037074
-0.120696
0.121466
-0.00480348
-0.0137635
0.463085
0.00541034
-0.030946
-0.471462
0.47894
-0.073238
-0.150554
0.17222
-0.15676
-0.0154603
-0.076806
-0.0432237
0.00809719
0.0468935
0.0300142
-0.0769077
0.0921349
0.0165124
-0.108647
-0.015916
0.046648
-0.030732
-0.283475
-0.272158
0.555634
-0.0572865
0.100753
-0.0434668
0.105625
0.331168
-0.0853121
0.155919
0.0302369
-0.022545
-0.00769194
0.230207
0.115757
0.169216
-0.640678
0.21819
-0.266701
0.0485114
0.10145
-0.255145
0.153695
-0.0029625
-0.00150867
0.464981
-0.101873
-0.363108
0.511463
-0.175793
0.00841575
-0.0210574
0.13173
-0.110673
0.147386
-0.146267
-0.00111911
-0.026254
-1.30611e-05
-0.100688
-0.00785514
0.108543
0.0148415
0.000403335
-0.0152448
-0.0016703
-0.132241
0.1131
-0.16506
-0.000932263
-0.000202721
-0.174668
0.00467894
0.0543549
-0.0590339
0.00147069
0.0302238
0.204841
-0.00668939
-0.198152
-0.306308
-0.0577507
0.364059
0.00212835
0.0195405
-0.0216689
-0.0380883
-0.247561
0.265009
-0.145932
0.0379615
0.10797
0.155812
-0.00524356
-0.344442
0.117734
0.226709
-0.0277592
0.191539
-0.142971
0.244421
0.155673
0.288332
0.308683
0.137137
0.00504303
-0.025929
0.050689
-0.368459
0.139233
-0.129617
-0.00961512
0.10933
0.208403
-0.317733
0.104312
-0.0975339
-0.00677767
-0.250049
0.573431
0.156703
0.00212977
-0.133494
-0.231346
0.168517
0.319764
-0.0817005
-0.238063
-0.295863
-0.072076
0.0385654
-0.0373791
-0.00118621
-0.0915167
-0.0296589
0.121176
-0.0246572
0.0534326
-0.0287755
0.264949
0.195585
-0.323636
0.266554
0.057082
0.00816146
-0.271167
-0.0853882
0.019361
0.116244
-0.135605
-0.126831
0.0353143
-0.234379
-0.110063
0.0280792
0.113665
-0.257657
0.366987
-0.0185703
0.0508764
-0.032306
-0.290371
0.0428097
-9.18771e-06
0.19203
-0.00154846
-0.00117124
-0.0750675
0.100938
-0.0258703
-0.0921313
0.399133
-0.307002
-0.223111
0.192016
0.0310953
0.00187886
-0.0136079
0.352952
-0.342557
0.472227
-0.116933
-0.355294
-0.0112751
0.00389111
-0.00447326
0.00432562
0.0304504
-0.1963
-0.00963796
-0.0867666
0.0964046
0.542564
-0.282138
0.229551
-0.010677
0.238099
-0.210665
-0.352
-0.0858636
-0.0923606
0.0228876
0.0694731
0.305789
-0.286261
-0.0195279
0.0228814
0.0664436
-0.089325
0.195186
0.403713
-0.444012
0.0920125
-0.296243
0.195049
0.00606926
-0.106757
0.0120618
0.00232501
-0.0143868
-0.22128
-0.0747202
0.000391937
-0.236026
0.235634
-0.347232
-0.138989
0.197703
-0.18456
0.479584
-0.145963
0.0204083
0.136743
-0.124596
-0.584424
0.261147
0.016967
0.0430512
0.115844
-0.0946748
0.0373883
0.0140811
-0.00385861
-0.0212988
-0.00887619
0.393952
-0.30479
-0.301329
0.0556191
-0.257968
0.337498
-0.0795301
-0.00880539
-0.178202
0.14029
0.00105774
0.012207
-0.0132647
-0.00482664
-0.00978575
0.0146124
0.23043
-0.168805
0.00538177
0.00806255
-0.015056
-0.142915
0.145797
-0.00288155
-0.0973621
0.0877241
-0.113986
0.092329
-0.0017167
-0.0116204
0.110203
-0.00589125
0.0352075
0.0551269
-0.0903344
0.0112823
-0.00444213
0.134509
0.00362517
-0.138134
0.171306
-9.05041e-05
-0.0250586
0.0764601
-0.397495
-0.0131724
0.214715
-0.141634
0.0374222
-0.0327433
-0.126736
0.144363
-0.0176275
0.372095
-0.282776
0.123386
-0.00123141
-0.0997274
0.119088
-0.00372324
0.00236272
-0.00107838
-0.00128434
0.214801
-0.00211629
-0.212685
-0.0551931
0.0392771
0.0286827
0.130751
-0.159434
-0.0186098
0.087894
-0.0692842
-0.0511515
-0.0527336
0.103885
0.122629
-0.0895988
-0.159753
0.182272
-0.366892
0.20526
0.0431703
0.304426
-0.429953
0.125526
-0.0453537
0.206929
-0.499109
-0.0263061
0.184472
-0.368779
0.112253
0.256526
0.00542274
0.109869
-0.115292
-0.0154718
0.107638
0.0117048
0.00539654
-0.0171014
0.0783579
0.0304551
-0.108813
-0.0325798
-0.0597
-0.0412996
-0.0097863
0.0727652
0.260387
-0.362756
0.102369
0.00685549
0.00748489
-0.0417041
0.0342192
0.323009
-0.390039
0.0670304
0.352977
-0.152066
-0.0105733
0.162639
0.00262123
0.0130036
0.343485
-0.593827
0.250342
0.130332
-0.00755105
-0.122781
0.0741861
-0.00298855
-0.0711976
0.121313
-0.152563
0.0312499
0.373063
-0.268732
-0.104331
-0.286788
0.229711
0.0570772
-0.17978
0.322028
-0.142248
-0.0814303
-0.0645014
-0.146825
0.103075
0.232034
0.00547852
-0.0250462
0.0342427
-0.0237482
-0.0104946
-0.118981
0.124188
-0.100258
0.017066
-0.0188732
0.153382
0.100276
-0.0902573
-0.0100189
-0.21295
0.222101
-0.204352
0.153316
0.0106471
0.0428286
-0.0534757
-0.0679259
0.0983566
-0.0304306
0.00259841
-0.00468197
0.03395
-0.0481357
-0.588822
-0.414798
0.309556
0.105242
-0.146687
0.310045
0.345492
-0.0695741
-0.275917
0.118178
0.158756
-0.0565295
-0.0770752
0.133605
0.369844
-0.0756648
-0.294179
6.80863e-05
0.0993661
-0.0994341
-0.499438
0.44244
-0.167411
-0.298154
0.128795
-0.0163449
-0.00566514
0.106212
-0.0595141
0.0947216
-0.354263
0.0733115
0.034837
-0.174492
-0.240306
0.011559
0.0443352
-0.0558942
0.27494
0.225359
-0.184614
0.136466
0.457646
-0.187996
0.0191745
0.0762619
-0.0954364
-0.00117262
0.0660712
-0.102762
0.277713
-0.0734419
-0.0582897
0.358233
-0.144013
-0.21422
0.149241
0.00343042
-0.00362512
0.233628
0.101964
-0.335591
0.195552
-0.274911
-0.139207
0.11815
0.171398
0.0144205
0.00562931
0.282674
0.116648
-0.177572
0.060924
0.250028
-0.28123
0.117236
-0.499748
0.137294
-0.0168227
-0.0958583
-0.168504
-0.21416
-0.234985
0.449145
-0.163186
-0.0484747
-0.00322095
-0.00393687
-0.201831
-0.0139539
0.215785
-0.0653729
0.0858344
-0.0332703
-0.00137722
-0.00283894
0.0149007
-0.221828
0.0199977
-0.44498
0.230821
0.0523078
0.125555