/*--------------------------------*- C++ -*----------------------------------*\
| =========                 |                                                 |
| \\      /  F ield         | OpenFOAM: The Open Source CFD Toolbox           |
|  \\    /   O peration     | Version:  v2012                                 |
|   \\  /    A nd           | Website:  www.openfoam.com                      |
|    \\/     M anipulation  |                                                 |
\*---------------------------------------------------------------------------*/
FoamFile
{
    version     2.0;
    format      ascii;
    class       volVectorField;
    location    "200";
    object      U;
}
// * * * * * * * * * * * * * * * * * * * * * * * * * * * * * * * * * * * * * //

dimensions      [0 1 -1 0 0 0 0];


internalField   nonuniform List<vector> 
13917
(
(1.09495 0.119618 -2.37255e-20)
(1.01982 0.0408781 0)
(0.593956 -0.0592505 0)
(1.05462 -0.010895 1.44308e-20)
(0.996202 0.0025754 1.54284e-20)
(0.359041 0.0501973 3.40845e-19)
(0.521215 -0.0499058 1.2316e-20)
(0.601185 -0.0591206 0)
(0.429383 -0.0700768 1.57946e-20)
(1.13863 0.148608 -1.37668e-20)
(1.113 -0.0544901 -2.02873e-21)
(1.09199 -0.0424796 1.59167e-21)
(1.05512 -0.0116424 1.03202e-20)
(0.0126752 -0.00447347 -1.72254e-20)
(0.971141 0.0924683 0)
(0.994249 0.087305 6.88158e-21)
(1.01424 0.0459461 9.322e-22)
(1.1374 0.0175831 -1.10408e-20)
(1.09088 -0.0421189 4.1327e-21)
(1.00139 0.00453446 0)
(0.999973 0.000930836 -8.60659e-21)
(0.499753 -0.0487263 0)
(1.0008 0.0074957 -3.37189e-21)
(0.658748 -0.062865 -3.27855e-20)
(0.994707 0.0143285 -1.7832e-20)
(0.527831 -0.0482883 1.10888e-20)
(0.783205 0.0309755 4.70549e-20)
(0.757258 0.118522 0)
(0.732284 0.566488 0)
(1.194 0.0877048 0)
(1.1094 0.109474 -3.02559e-20)
(1.05906 0.0877922 0)
(0.837152 0.0661188 0)
(0.910663 -0.00138671 2.04348e-20)
(0.991233 0.0112528 6.12942e-21)
(1.1239 -0.0639076 2.0512e-20)
(1.00072 0.0070366 0)
(0.139807 -0.026965 -2.27774e-22)
(1.06168 -0.0160855 5.40676e-21)
(0.273338 -0.00877414 -1.20481e-21)
(1.00823 0.000769991 0)
(0.999987 0.000414593 6.06518e-21)
(1.02002 0.00233704 -1.18125e-21)
(0.702688 0.200825 8.48784e-20)
(1.0379 0.0238621 0)
(0.891923 0.0122534 6.06149e-21)
(1.13485 0.0159379 0)
(1.13635 -0.0141457 0)
(0.104206 0.132651 -1.33854e-19)
(1.00333 0.000762851 -2.08931e-21)
(1.0838 0.01414 0)
(0.965317 0.00789809 -2.00805e-20)
(0.0751767 0.111294 3.45025e-19)
(0.906022 -0.000160354 2.34565e-20)
(1.01306 0.0469051 -2.28073e-21)
(1.0837 0.0373718 3.37263e-20)
(1.11364 -0.0540197 0)
(0.995022 0.028399 -1.10146e-20)
(1.0699 0.0436913 0)
(1.03649 0.0234396 0)
(0.543438 0.0505517 -2.73837e-21)
(1.02133 0.0409668 1.02263e-21)
(-0.00456729 -0.00036973 0)
(1.00148 0.00492504 0)
(0.385815 0.06246 -2.08747e-19)
(1.04597 0.3499 7.88302e-20)
(0.995481 -0.00124849 1.48187e-20)
(0.988138 -0.00224064 5.50096e-21)
(1.14394 -0.0485059 -1.32864e-20)
(1.06203 0.134096 -6.82682e-21)
(0.996585 0.00272983 -1.1812e-20)
(0.490943 -0.0777201 -3.13025e-20)
(-0.0843577 -0.0228013 0)
(0.9953 0.0139806 1.54431e-20)
(0.105826 0.20633 -2.81558e-19)
(1.08517 -0.0496641 -2.31367e-20)
(-0.0779839 -0.0139328 0)
(1.05281 0.0261818 3.29193e-21)
(0.535525 -0.0461281 -3.00137e-20)
(0.999885 0.00185567 -7.07602e-21)
(1.00005 0.00287422 1.51358e-22)
(0.996031 -0.00115056 1.31858e-20)
(0.405082 0.125644 1.36397e-19)
(0.166783 -0.0311631 -4.23659e-20)
(-0.0915544 0.016195 -1.51663e-19)
(1.05175 0.0250205 -6.31631e-21)
(1.0003 0.00375368 0)
(1.18917 0.424562 0)
(1.08198 0.0140752 0)
(1.02045 0.002341 0)
(0.00147773 -0.0300089 -3.98857e-20)
(1.17528 0.128216 -7.48387e-20)
(1.02238 0.0229722 1.57882e-21)
(0.973191 0.0516881 -1.09398e-20)
(1.14057 0.419301 6.78617e-20)
(0.386287 -0.0109889 2.06533e-21)
(1.12532 -0.0448882 4.89335e-20)
(1.13729 -0.005126 -8.09304e-22)
(1.0928 -0.0583386 4.61155e-20)
(0.60866 0.126066 0)
(1.01091 0.00562453 -1.77142e-22)
(0.844989 -0.00216762 4.4154e-20)
(0.692508 0.185713 5.2728e-20)
(1.06008 0.0195436 2.63278e-22)
(1.01592 0.0119712 0)
(0.502253 -0.0730965 0)
(0.812318 0.505229 0)
(1.13866 -0.0154173 0)
(1.01607 0.0464736 0)
(1.10969 0.12428 3.30448e-20)
(-0.177655 -0.0118699 5.0326e-20)
(0.281695 -0.00942364 -3.81215e-21)
(1.09403 -0.0484446 0)
(0.46387 -0.0724029 3.09344e-20)
(0.948186 0.00642956 0)
(0.083015 -0.119573 8.36702e-20)
(1.00057 0.0134115 9.36357e-21)
(0.200399 0.0910958 0)
(0.171678 -0.00966823 0)
(0.907261 0.0124185 0)
(0.999984 0.000797318 0)
(1.14494 -0.0473199 -2.46059e-20)
(0.144148 -0.0112573 0)
(0.766139 0.111799 0)
(1.00498 0.000667599 6.87972e-23)
(0.974622 0.0491158 0)
(1.0334 0.0274162 2.77532e-21)
(1.00461 0.000542177 -1.46854e-21)
(1.01741 0.00165974 -1.54652e-21)
(0.361666 0.00328 -1.69363e-19)
(0.24289 -0.0234106 -1.00173e-20)
(0.950639 0.00553597 0)
(1.03825 0.0248475 -8.49771e-22)
(0.999977 0.000736799 8.11559e-21)
(1.27711 -0.0170594 0)
(0.674527 -0.0656932 1.69015e-20)
(1.0924 0.124204 -7.51752e-22)
(0.584778 0.127199 3.96175e-20)
(0.995156 -0.000852049 -1.56869e-20)
(0.908249 0.00817686 1.06768e-20)
(1.11148 -0.062277 0)
(1.02398 0.0127834 -1.73236e-22)
(0.962057 0.0199256 4.16394e-20)
(0.654801 0.197423 5.22366e-20)
(0.987488 -0.00194483 0)
(0.710438 -0.0797615 2.31531e-20)
(0.802618 0.572194 -5.77551e-21)
(0.967232 0.00837919 1.68212e-20)
(1.02266 0.0107449 1.76131e-21)
(1.05405 0.0969264 0)
(1.11359 -0.0217774 2.09801e-21)
(0.092577 -0.153337 9.20403e-20)
(1.10956 -0.0421845 -2.0081e-20)
(1.02486 0.177679 5.20397e-21)
(1.07541 0.062021 -1.8552e-20)
(-0.0542531 0.0504683 -1.74255e-19)
(1.05726 0.131391 -8.23648e-21)
(1.13493 -0.0707425 0)
(-0.100017 -0.0108562 -1.34466e-20)
(1.27224 -0.0145133 -5.71348e-20)
(0.939553 0.0419171 1.19645e-20)
(0.784027 -0.0294328 -8.67287e-20)
(1.00001 0.00199403 0)
(1.12378 -0.0441502 -4.61484e-20)
(1.09454 -0.04772 -1.08679e-22)
(1.09353 -0.0577363 -2.42626e-20)
(1.0592 0.020407 2.13148e-20)
(1.12421 -0.0154827 3.88861e-20)
(1.03133 0.0204788 3.6614e-21)
(0.838117 -0.00648649 8.94609e-20)
(1.04432 0.170577 0)
(-0.3034 0.000955987 4.95437e-20)
(1.09225 -0.051182 -3.68214e-20)
(1.01183 0.0549526 0)
(0.856507 -0.0814697 0)
(1.01422 0.198326 -1.59583e-21)
(0.264961 -0.027124 1.2624e-20)
(0.163338 0.0928579 0)
(0.768393 -0.0817899 -2.05709e-20)
(1.01192 0.0260409 -2.07849e-21)
(1.18073 0.122975 -2.12141e-20)
(1.11478 0.10796 2.88263e-20)
(1.02447 0.0123304 -4.5055e-21)
(1.0003 0.00409255 0)
(0.935518 0.111393 1.829e-20)
(0.581263 -0.0513924 -2.26969e-20)
(1.26074 0.134107 0)
(-3.77411e-05 0.0508142 2.03727e-19)
(1.11404 0.0399207 0)
(1.09924 -0.054463 0)
(1.12099 -0.0635944 -2.55881e-20)
(-0.0414578 0.0202215 0)
(1.25079 0.174645 -8.46732e-20)
(0.999587 0.00724844 -1.12226e-20)
(0.563684 0.0601429 0)
(0.793806 0.0328124 -5.55315e-20)
(1.00716 0.000295652 1.1221e-21)
(1.02257 0.0239618 0)
(0.872987 0.439621 -1.84745e-20)
(1.21141 0.47132 4.52506e-21)
(1.07492 -0.00260837 0)
(1.00304 0.000680356 -1.77614e-21)
(1.11819 -0.0156156 -1.14069e-22)
(1.11189 -0.0218095 -7.5568e-21)
(-0.110979 -0.0183165 2.71915e-20)
(1.2344 -0.0523803 0)
(0.991571 0.0104483 -1.40833e-20)
(0.994287 0.0294252 1.2001e-20)
(1.13477 -0.00661105 5.43064e-20)
(0.604403 -0.0562957 1.04023e-20)
(0.964289 0.0203283 -3.28531e-20)
(0.506754 -0.0514475 0)
(-0.157307 -0.011318 0)
(1.09992 -0.0539892 1.77284e-22)
(1.01554 0.0122255 -1.42875e-21)
(0.493743 0.40526 0)
(1.12775 -0.0049976 0)
(-0.268732 -0.00801612 -8.47574e-20)
(1.00258 0.0175582 0)
(0.697205 0.0718737 -9.9409e-20)
(1.01156 0.025079 1.44982e-21)
(1.18559 0.0641123 4.99119e-20)
(1.00806 0.000956438 -9.93191e-23)
(0.120724 -0.0322006 -3.04303e-20)
(0.480119 -0.0726878 0)
(0.995183 0.0907763 -7.20631e-21)
(1.18842 0.473453 0)
(1.07841 0.0609779 2.20767e-20)
(1.01485 0.0117775 -6.73359e-22)
(1.12108 -0.0637978 0)
(1.09108 -0.050812 3.48924e-20)
(1.11273 0.0375167 -7.19296e-21)
(0.680331 -0.0628243 1.19406e-20)
(-0.177938 -0.00853851 1.94994e-20)
(1.01188 0.00295402 0)
(1.06231 0.0889155 0)
(0.0304544 -0.0345406 -3.43966e-20)
(-0.134591 0.0182419 -5.77009e-20)
(0.99997 0.00222224 0)
(1.0059 0.00876699 0)
(0.323769 -0.00922228 -2.87695e-20)
(1.12948 -0.0466818 -2.97707e-20)
(1.00004 0.000125046 1.45334e-21)
(1.10194 -0.0626177 -3.72762e-20)
(1.17027 0.00599819 0)
(0.793925 -0.0344856 1.05943e-19)
(1.09262 0.105084 0)
(1.00002 0.00216602 0)
(0.977863 0.202668 -9.09867e-21)
(-0.143063 -0.00936867 3.67743e-21)
(1.04001 0.00301901 -1.56491e-20)
(1.19707 0.139544 1.53995e-21)
(0.570022 0.171446 4.72045e-21)
(1.03313 0.0261663 -2.55373e-21)
(0.994467 0.0267754 0)
(1.10517 -0.0371383 0)
(0.340346 -0.0158292 1.58602e-20)
(1.10871 -0.0411968 4.3623e-20)
(0.936324 0.116065 1.44731e-21)
(0.974454 0.0951293 0)
(1.00003 0.00021953 0)
(0.121758 -0.00778899 0)
(0.682771 -0.0501805 7.39703e-20)
(1.1038 -0.0659776 3.4146e-20)
(1.0144 0.012011 2.3084e-21)
(-0.148628 -0.0174499 5.60618e-20)
(0.0217291 -0.00886977 0)
(1.09456 -0.0727892 -1.4569e-20)
(0.516442 -0.0450359 2.2821e-20)
(1.0856 -0.0507337 0)
(1 0.00267323 -6.0234e-21)
(1.00609 0.000802642 3.39045e-22)
(1.1337 0.0111856 0)
(0.0446681 -0.0240739 3.07628e-20)
(1.15587 -0.0285318 -9.71723e-21)
(1.06838 0.0416431 -1.24313e-20)
(1.23955 -0.05395 0)
(1.07777 -0.0353163 0)
(1.01732 0.00109581 -4.00566e-21)
(0.953104 0.0180059 9.3927e-20)
(1.00179 0.0044851 3.73865e-21)
(0.818057 -0.0801522 0)
(1.07318 -0.00225669 -1.49371e-20)
(1.00007 0.000126623 8.77439e-22)
(0.998868 0.107675 -4.5001e-21)
(1.0192 0.179557 -4.12993e-21)
(0.784247 -0.0170296 0)
(1.10468 -0.0629399 2.6269e-20)
(0.996374 0.142966 -1.50773e-21)
(1.04264 0.00939646 1.70463e-20)
(1.24474 0.0051262 5.66197e-20)
(0.691024 -0.0629673 -1.3434e-20)
(0.582325 -0.0521749 0)
(1.00231 0.0170734 -5.21513e-21)
(1.07334 -0.0750697 -6.04638e-20)
(0.998391 -0.000322739 3.58741e-22)
(1.04269 0.0084862 1.28929e-20)
(1.00071 0.0128017 -4.41854e-21)
(0.815019 0.611938 7.52475e-21)
(1.00151 0.000799866 0)
(1.19055 0.0638043 5.66216e-20)
(1.08812 0.104918 -1.85749e-20)
(1.03093 0.019531 -6.79706e-21)
(1.11794 -0.0176045 5.53067e-22)
(1.03684 0.0559599 -4.2419e-21)
(0.113273 0.0544773 1.33082e-20)
(1.01345 0.193222 9.80755e-22)
(1.16945 0.125634 -6.56971e-20)
(1.0295 0.0136038 -5.16191e-21)
(0.99516 0.0258389 -5.90544e-21)
(-0.19813 -0.00896475 -1.83894e-19)
(0.116977 -0.0101717 -1.25845e-20)
(1.00081 0.0139827 -5.29956e-21)
(1.00694 0.000844152 0)
(1.00592 0.0265285 -8.50073e-20)
(1.01518 0.0247316 3.96331e-22)
(-0.0610125 -0.0260905 4.63335e-20)
(1.02859 0.0135118 -2.77728e-21)
(0.136902 -0.0336057 3.54795e-20)
(1.04625 -0.00505847 5.14892e-21)
(1.20616 0.32188 2.99818e-21)
(1.0992 0.00316858 -3.33526e-20)
(0.111296 0.278558 -1.75257e-19)
(0.943361 0.0416844 0)
(1.30528 -0.00874237 6.85878e-20)
(0.510208 0.298681 1.07021e-19)
(1.00192 0.105484 -6.51334e-22)
(1.13114 -0.0458455 2.26185e-20)
(0.953251 0.517337 3.08411e-21)
(0.99519 0.0424946 0)
(0.192344 -0.0240848 0)
(0.571859 0.039287 0)
(0.0293621 -0.01159 0)
(0.921738 0.0173744 0)
(0.207018 -0.00765333 2.5051e-27)
(1.06848 0.0870593 5.23073e-21)
(-0.0761489 0.00163979 6.97171e-20)
(0.528372 0.277643 -7.55133e-20)
(0.920045 0.349189 0)
(0.93617 0.344074 -2.54972e-21)
(0.539935 -0.0572867 0)
(0.999702 0.00225136 1.19193e-21)
(1.05057 0.173793 -1.4098e-20)
(-0.142565 -0.0127193 6.07556e-20)
(0.982253 0.0281957 6.85214e-21)
(1.00114 0.0705034 -7.88096e-21)
(0.0429614 -0.00895626 0)
(0.860111 0.474014 2.06905e-20)
(1.01664 0.0519016 2.09879e-22)
(1.11332 -0.0623253 -4.48948e-20)
(0.702001 0.539148 0)
(1.00899 0.00487016 -6.01835e-24)
(0.152133 -0.00659919 5.35585e-21)
(1.11892 -0.0628406 -9.7316e-21)
(1.00191 0.00484688 -3.89095e-21)
(1.00912 0.0125239 0)
(0.998588 -0.000458727 -2.85816e-21)
(1.02305 0.0103656 4.1281e-21)
(1.23732 0.00272075 0)
(0.806586 -0.0825968 0)
(0.386477 -0.282428 1.67265e-20)
(-0.16348 -0.0103374 9.52144e-20)
(0.997721 0.013989 -6.9872e-21)
(1.20403 0.138933 -8.80857e-20)
(-0.191675 0.0204745 1.29148e-19)
(1.10954 -0.00721572 -3.89339e-20)
(0.486878 -0.0497652 -2.06066e-20)
(0.073298 -0.0292593 1.73713e-21)
(0.44234 -0.0719532 8.34877e-21)
(1.01308 0.00540777 0)
(1.09932 -0.0649706 -1.55127e-20)
(1.01029 0.0121264 0)
(0.82549 0.0862136 1.05855e-19)
(1.03561 0.0241219 6.62636e-21)
(0.0855725 0.326219 -3.62176e-20)
(1.17339 0.00787163 -1.9143e-20)
(1.06392 -0.00827069 0)
(0.99954 0.00269064 0)
(1.13248 -0.00520206 3.78711e-20)
(1.18678 0.124193 4.9508e-22)
(1.15222 0.00346167 0)
(0.326374 1.08988 -6.86767e-20)
(-0.120623 0.000314531 7.5828e-20)
(-0.295757 -0.00525639 4.85912e-20)
(0.982875 0.21069 0)
(1.13224 0.145644 0)
(1.0056 0.00834952 8.44666e-22)
(-0.109419 0.019229 0)
(0.487798 -0.0470235 0)
(0.998945 0.0323696 -1.00714e-20)
(1.28025 -0.0037582 5.07002e-20)
(0.995524 0.0102662 -7.2394e-21)
(1.20551 -0.0322906 3.95731e-20)
(1.04632 -0.00446424 1.10653e-20)
(0.999777 0.00190845 -1.09355e-21)
(1.03225 0.0590549 -3.26369e-22)
(0.566366 -0.0475037 2.98805e-21)
(1.0305 0.0593454 -5.77031e-21)
(0.361578 -0.0198667 0)
(-0.0570118 0.0356377 -2.81065e-20)
(1.10847 -0.0536973 3.19176e-21)
(0.442173 0.278908 -2.48376e-19)
(0.996927 0.0421853 -8.2272e-21)
(0.495568 0.362475 -4.87185e-20)
(0.468372 0.303569 -1.20677e-19)
(1.00192 0.00977827 0)
(0.824963 0.474712 0)
(0.98366 0.027952 -1.76813e-22)
(0.994277 0.0120703 1.45105e-21)
(1.19246 0.0924601 -5.79137e-20)
(1.00006 0.000327675 -3.4682e-22)
(0.993582 0.0137276 6.07409e-21)
(1.01052 0.0119336 0)
(1.23866 0.00725576 0)
(0.999937 0.00148774 7.28658e-21)
(0.217435 -0.00915506 -9.37461e-21)
(0.664131 -0.0553843 1.00485e-20)
(-0.126839 0.0149312 6.19867e-20)
(1.24606 0.180895 -8.61108e-20)
(0.346922 -0.0248201 6.99312e-21)
(-0.247433 -0.010337 -8.20563e-20)
(1.10757 -0.00754413 6.08834e-20)
(0.99808 0.0134079 9.73842e-21)
(1.20467 0.00279701 1.45148e-20)
(1.06134 -0.0148964 -4.48357e-21)
(1.06707 0.094377 -2.09839e-20)
(0.99958 0.00779732 7.94935e-23)
(0.737883 -0.082688 -2.13021e-20)
(0.548347 -0.0533427 1.16849e-20)
(0.720057 -0.0586859 -1.83538e-20)
(0.98314 0.0858812 -1.15228e-20)
(1.17315 -0.00427461 -2.14611e-20)
(0.925145 0.0145007 -2.05375e-20)
(1.06301 -0.0165246 0)
(1.14995 0.00214548 3.77537e-21)
(1.01832 0.0607074 2.00867e-22)
(1.10045 -0.0654658 0)
(1.01715 0.0452908 6.70368e-22)
(1.00149 0.000943153 0)
(-0.0301278 -0.0309478 4.44031e-20)
(0.259243 -0.0254697 -4.51704e-21)
(0.279824 -0.0279343 0)
(1.17803 0.208872 -6.53628e-21)
(-0.135231 0.0109248 0)
(0.220888 -0.0282013 0)
(-0.0933592 -0.0258184 9.25395e-20)
(-0.0355809 -0.0136756 -3.48077e-20)
(1.01665 0.00180794 0)
(1.13478 0.00227719 0)
(1.02034 0.0605392 -8.95021e-23)
(0.991968 0.0299537 -3.8749e-21)
(1.22954 -0.0458608 0)
(1.1358 0.0126691 0)
(1.01805 -0.000106401 -1.90238e-21)
(1.15536 0.0450846 5.65916e-20)
(1.10839 -0.0025434 0)
(-0.0259149 -0.0109574 0)
(1.00208 0.0101616 0)
(1.13847 -0.0373411 -1.75963e-20)
(-0.00585571 0.0115844 5.27221e-20)
(1.2257 0.336676 -3.26282e-20)
(0.223717 -0.0121199 -1.347e-21)
(0.999941 0.00129877 2.64492e-22)
(0.997817 0.0327912 -1.29758e-22)
(1.011 0.000418444 0)
(1.05214 0.135215 2.23809e-20)
(1.01301 0.00501301 1.6561e-21)
(0.640965 -0.0554636 5.63293e-21)
(0.397929 -0.242852 0)
(0.999296 0.137641 0)
(-0.0685632 0.0268917 -9.02766e-20)
(1.08312 0.0350302 -1.89898e-20)
(1.12238 -0.0454245 -3.40964e-20)
(-0.0528088 -0.0285657 -2.97741e-20)
(0.823889 0.57289 5.0836e-21)
(1.10758 -0.0534833 1.86765e-20)
(1.11552 -0.0629128 0)
(1.13753 -0.0386239 9.76848e-21)
(1.15406 0.0622615 -1.2633e-20)
(1.19164 -0.0134035 -7.64342e-21)
(1.093 -0.0252835 -2.65965e-21)
(1.10344 -0.0573908 0)
(0.375249 0.105608 0)
(1.08926 -0.0331471 -2.38113e-20)
(1.13664 -0.0231733 -5.68667e-22)
(1.01435 0.000679591 1.24588e-21)
(1.26811 -0.0276012 0)
(1.08676 0.0168956 -1.09942e-20)
(1.02928 0.00325561 9.20078e-21)
(1.04777 0.131677 -9.87091e-21)
(1.05518 0.0244918 -7.00257e-21)
(-0.0230049 -0.0141058 0)
(0.488375 -0.0764904 -7.22483e-20)
(1.01447 0.0237338 -6.31064e-23)
(1.01721 0.000884803 -2.54876e-21)
(0.668075 -0.058073 0)
(-0.269796 -0.00719335 1.09153e-19)
(1.00006 0.000248566 3.33627e-22)
(0.199929 -0.00829384 1.40434e-21)
(1.05589 0.00450085 8.89304e-21)
(1.23506 0.160528 6.54198e-20)
(1.01384 0.0255893 0)
(-0.14722 -0.0149185 0)
(1.18066 -0.073892 7.11763e-20)
(1.05699 0.0946156 0)
(1.03614 0.0368612 0)
(0.373777 -0.0285857 -3.03841e-20)
(1.24969 0.132398 4.79289e-20)
(-0.252067 0.00970197 -7.96256e-21)
(1.00004 0.000296697 0)
(-0.144709 -0.0119314 5.78521e-20)
(0.135989 0.0539915 -7.62313e-21)
(0.978783 0.029364 0)
(1.02942 0.00374227 -1.43688e-20)
(-0.123892 0.0164157 1.67939e-19)
(0.327726 -0.0503081 8.82864e-20)
(1.10709 -0.0108546 -1.63161e-20)
(1.00965 0.0125826 7.54217e-22)
(1.00825 0.04623 -5.65625e-21)
(1.08285 -0.0503714 4.37546e-20)
(1.20583 -0.0367497 -8.61288e-20)
(1.01847 -0.000111933 -5.65287e-22)
(1.00867 0.0118431 -1.00572e-21)
(1.00487 0.00235831 -2.33696e-21)
(1.00519 0.00246407 0)
(-0.172714 -0.0148971 -5.19299e-20)
(1.22981 -0.0416695 0)
(1.10666 -0.00961458 0)
(1.2597 0.120467 -9.49962e-20)
(1.00612 0.000627155 0)
(1.01047 0.00533367 -1.52039e-22)
(1.16956 -0.00549343 1.14937e-20)
(0.181308 -0.0513648 0)
(1.10437 0.0504122 -2.70519e-20)
(1.03245 0.02071 -4.11295e-21)
(0.994605 0.012534 2.16131e-21)
(0.992395 -0.000770244 6.18193e-21)
(0.918953 0.0200771 0)
(0.00356624 0.0226599 0)
(1.00045 0.00356823 2.60029e-21)
(0.992549 0.00222896 -1.18645e-20)
(1.09733 -0.0652062 0)
(1.09345 -0.0238908 -2.08285e-20)
(1.09829 0.00190648 -4.35213e-20)
(0.996829 0.0312629 2.01965e-20)
(1.02779 0.0621788 2.13584e-23)
(1.04273 0.0931833 2.10425e-21)
(1.13447 -0.0236514 -3.20758e-20)
(0.948978 0.491114 -1.58089e-20)
(1.26433 0.129083 5.49267e-20)
(1.20504 -0.0015254 -3.42191e-20)
(1.15551 -0.0175745 -8.01572e-22)
(1.23305 -0.0566476 0)
(1.16906 0.118685 0)
(1.00151 0.0165341 0)
(-0.130668 -0.0122138 0)
(0.992748 -0.00127454 -6.08983e-21)
(1.00173 0.0733749 7.65826e-21)
(1.0657 -0.00096232 0)
(1.26578 -0.0288766 3.07676e-20)
(0.991294 0.28697 6.95009e-23)
(1.00972 0.00119355 -4.12268e-23)
(1.2283 0.325723 -1.68388e-21)
(1.20273 0.0803301 0)
(-0.0917508 -0.00144046 0)
(1.1572 -0.0157523 0)
(0.886824 0.133002 -6.41924e-20)
(1.11063 -0.00331458 0)
(0.999401 0.00293382 5.89089e-21)
(0.50978 -0.0532562 -2.25542e-20)
(1.21752 0.315505 -8.87687e-20)
(0.382654 -0.0472683 0)
(1.01651 0.0431425 -1.03835e-22)
(1.09429 0.0403214 -8.65181e-21)
(1.26306 0.115988 0)
(0.0813378 -0.0318051 0)
(-0.195127 0.00254449 0)
(1.13972 -0.00667262 8.73204e-22)
(1.18671 0.210677 -8.85634e-21)
(0.990423 0.0863372 -7.077e-21)
(1.05516 0.0551268 0)
(0.995739 0.0317422 -3.4211e-21)
(0.888444 0.228665 -2.92553e-20)
(0.670573 0.179298 -5.29513e-20)
(0.973617 -0.00506419 -1.63075e-20)
(1.12539 -0.00617977 3.57855e-20)
(0.569046 0.146193 0)
(0.396887 -0.0489518 -8.80004e-21)
(-0.245473 0.011388 7.19024e-20)
(1.03074 0.0720864 -2.86453e-21)
(1.12098 -0.0449024 3.23191e-20)
(1.17697 -0.0716463 -6.4423e-20)
(1.00335 0.115805 1.9972e-21)
(0.967793 0.0223619 -1.73951e-20)
(0.174999 0.538841 0)
(0.690149 -0.0741213 0)
(0.651174 -0.0793511 1.02456e-19)
(1.25523 0.103474 9.71866e-20)
(1.0173 0.00188552 -9.15877e-22)
(0.159057 -0.00855774 -2.45961e-20)
(1.08385 -0.0494218 -2.24349e-21)
(1.00964 0.000888465 -6.17378e-22)
(1.09224 0.0721241 0)
(1.12102 -0.0314532 0)
(0.846513 0.0678782 0)
(1.19053 0.0828821 -4.62605e-20)
(0.524755 -0.0472411 1.59809e-20)
(1.18795 -0.0135822 2.80079e-20)
(1.08934 -0.022173 -2.23721e-20)
(0.510983 -0.0534967 9.50388e-20)
(1.05732 0.0304878 -2.51015e-20)
(-0.0562347 -0.0112289 -2.16359e-20)
(0.999966 0.00197136 0)
(1.00045 0.00385275 0)
(1.05075 -0.0760196 2.57708e-20)
(0.659649 -0.0751215 -3.18038e-20)
(0.376691 0.237099 0)
(1.05785 0.0290936 0)
(1.01312 0.0530697 -1.74603e-21)
(0.992971 0.00268341 1.16358e-20)
(1.07896 -0.035468 -9.59209e-21)
(0.0782234 0.171446 -1.9875e-21)
(1.09291 -0.0568603 -2.21907e-20)
(1.05742 0.0555168 1.30024e-20)
(1.10737 -0.052254 2.17676e-20)
(1.13009 -0.00654244 0)
(1.01369 0.0263084 0)
(1.16667 0.481808 -1.0545e-19)
(1.09165 -0.0566841 0)
(1.09749 -0.0688731 9.98973e-22)
(1.00425 0.018974 4.70873e-21)
(1.18275 -0.0175594 1.62613e-20)
(1.05435 0.0260193 6.92518e-21)
(-0.0133881 0.0463138 1.34588e-20)
(1.14444 0.14527 6.79391e-20)
(1.00199 0.28003 0)
(1.09546 0.042178 0)
(1.00758 0.00275739 4.56811e-24)
(1.02727 0.00588431 5.81534e-21)
(1.03463 0.02796 -3.11206e-21)
(0.966507 0.349709 -1.51565e-21)
(0.890297 0.0173 0)
(1.25355 0.0399676 -1.51904e-19)
(0.471941 0.804504 -2.82467e-20)
(1.1245 -0.0133181 -1.99298e-20)
(1.00854 0.00481818 0)
(1.19327 -0.00648346 -3.80698e-22)
(0.373741 0.267573 0)
(1.12902 -0.0643509 2.04138e-20)
(1.03929 0.00353609 1.58772e-20)
(0.899756 0.0303922 0)
(1.00815 0.0117517 1.00647e-21)
(1.0751 -0.0167531 1.95443e-20)
(1.07226 0.0432878 0)
(0.304111 -0.0510493 -9.46393e-20)
(0.999845 0.00200014 7.9075e-21)
(1.23525 0.499798 4.95389e-20)
(1.07632 -0.013926 2.20919e-20)
(1.11181 -0.0549208 -6.42546e-21)
(1.17223 0.140568 2.07949e-20)
(-0.1003 -0.0206856 5.61255e-20)
(1.02468 0.278046 1.03133e-20)
(1.00788 0.0445747 1.84604e-21)
(0.0101497 -0.0220843 -2.82469e-20)
(-0.266525 -0.00393833 0)
(1.00567 0.0340197 -6.82057e-21)
(1.06466 -0.0017312 2.78298e-21)
(1.1879 -0.0720942 -7.12023e-20)
(1.24659 0.105647 1.23728e-19)
(1.15314 -0.0285081 0)
(1.00015 0.000357087 -2.47519e-23)
(1.0374 0.0367887 -8.96572e-21)
(1.19403 0.312996 -4.22165e-20)
(1.06449 -0.00918864 6.47113e-21)
(1.15231 0.00699372 -1.50437e-20)
(1.10441 -0.0356311 2.96879e-20)
(1.02793 0.00574836 -3.09325e-21)
(1.10977 -0.024155 -1.45423e-20)
(0.60357 -0.0599002 0)
(1.03878 0.0020238 -6.32003e-21)
(1.05215 -0.00710749 0)
(1.00434 0.00251316 1.58783e-21)
(0.113518 -0.00850093 1.24861e-20)
(0.999951 0.000887617 -7.67591e-21)
(0.983448 0.0820263 2.29144e-20)
(-0.297828 -0.00118397 5.56334e-22)
(0.992606 0.0669999 4.50701e-22)
(0.721356 -0.0736521 3.00476e-20)
(1.07432 0.0647354 1.87915e-20)
(0.831279 0.0720535 6.60288e-20)
(1.00467 0.00262934 7.55812e-22)
(1.02149 0.212761 -1.01622e-20)
(1.00045 0.0121332 -9.62937e-21)
(1.15223 0.0704613 0)
(1.00727 0.00165412 0)
(1.08269 0.258683 2.55707e-20)
(1.05562 0.00524935 -9.06794e-21)
(0.253204 0.146197 0)
(0.434214 0.679944 4.80168e-20)
(0.178231 -0.0516296 -4.63736e-20)
(1.01051 0.000403947 -1.11804e-21)
(0.999628 0.00239924 0)
(1.16338 0.11557 6.97963e-20)
(1.1243 0.111289 1.93717e-20)
(0.0791702 -0.0125444 -3.23214e-22)
(0.301101 -0.0634421 -2.09138e-20)
(1.13848 0.0211181 -4.50539e-20)
(0.992587 0.0108562 -5.54321e-21)
(1.23698 0.00535025 0)
(0.343792 0.21212 1.16201e-19)
(1.09511 -0.0679475 -1.42055e-23)
(1.24976 0.0435255 4.64505e-20)
(1.12908 0.00781763 -4.09413e-20)
(0.566915 -0.0492791 1.11521e-20)
(1.0852 0.128576 -2.38831e-20)
(1.0773 -0.0340815 -2.9052e-20)
(1.20257 0.0167888 0)
(0.855156 0.41879 2.01527e-20)
(1.13696 0.0230983 3.19945e-20)
(0.304842 0.288411 0)
(1.1376 0.0291958 0)
(1.05785 -0.00566954 0)
(1.12216 -0.0327302 0)
(1.00605 0.106997 -3.07476e-21)
(1.0327 0.0046077 1.03822e-20)
(1.07502 -0.0158098 -2.08522e-20)
(1.11145 0.11916 -6.49615e-20)
(1.04993 0.095391 -1.16517e-20)
(0.999323 0.0120087 0)
(1.00655 0.000498222 -3.06508e-22)
(1.12738 -0.0103575 4.509e-20)
(1.06165 0.0105018 -5.9177e-21)
(1.15535 0.00824564 -1.28773e-20)
(0.993278 0.0105692 1.86334e-22)
(0.995147 0.00820547 8.45966e-21)
(0.999962 0.000705026 4.12738e-21)
(1.02366 0.0623405 1.94934e-21)
(1.02259 0.00104508 5.51647e-21)
(1.04819 0.0812604 1.03855e-20)
(1.00384 0.00266914 0)
(-0.155513 -0.0137951 0)
(1.08895 -0.0432357 -3.43033e-20)
(0.471142 -0.288768 2.28905e-19)
(1.01185 0.00508491 0)
(1.00006 0.00153886 5.76924e-21)
(0.802098 0.141771 9.18644e-20)
(1.15737 0.0600359 -1.55399e-20)
(0.953566 0.00148484 0)
(0.825524 0.000853975 -1.31575e-19)
(1.13389 0.195572 0)
(1.00292 0.113168 4.80644e-20)
(1.07633 -0.0148975 -2.75947e-20)
(1.17934 -0.00701391 5.34956e-20)
(1.05036 0.0147911 0)
(0.99991 0.000972958 -6.41235e-21)
(1.00543 0.00219431 1.13479e-21)
(1.0351 0.0569984 -1.09784e-21)
(-0.3204 0.000923823 -3.68357e-21)
(1.00005 0.00131233 -2.728e-21)
(1.19863 -0.0647539 0)
(1.04956 0.0836392 -3.75729e-21)
(-0.190126 0.0234132 0)
(0.966246 0.222048 6.88506e-21)
(1.14118 0.193582 0)
(1.11085 -0.0546202 0)
(1.02032 0.00608466 1.50323e-21)
(1 4.25292e-05 0)
(1.09021 -0.0434737 1.90123e-20)
(0.988158 0.00265238 0)
(0.98498 0.0415923 1.86805e-20)
(0.968622 -0.00273172 2.02311e-20)
(1.01283 0.0568543 3.97364e-25)
(0.998615 0.0002077 -1.08852e-20)
(1.08439 0.0529551 1.4901e-20)
(1.00606 0.00749476 -9.62369e-22)
(1.01619 0.00084961 5.28863e-23)
(1.05638 0.0904544 0)
(0.8854 -0.0259223 -8.17504e-21)
(0.0574573 -0.00899667 1.84536e-20)
(1.0805 0.108707 0)
(1.03876 0.00152011 -7.48881e-21)
(1.00888 0.000924888 3.28298e-22)
(0.112816 -0.0369629 2.84161e-20)
(0.952051 0.357274 3.28783e-21)
(1.00155 0.0410109 -2.79645e-21)
(1.01754 0.0425066 -8.00808e-22)
(0.918709 0.00299314 1.31675e-19)
(1.18588 -0.072023 1.76254e-20)
(-0.309564 -0.00484615 -2.43573e-20)
(0.894584 0.133523 1.76163e-20)
(1.05874 -0.00489885 4.81591e-21)
(1.0115 0.00306917 6.48777e-22)
(1.01641 0.000997087 -1.85588e-21)
(1.09066 -0.0331867 1.1702e-21)
(1.08515 0.109707 1.75084e-20)
(1.11783 -0.0613603 0)
(0.917797 0.0173331 0)
(0.168271 -0.0203366 2.01978e-20)
(1.02779 0.042026 -4.17534e-21)
(0.964681 0.0575386 -1.50194e-20)
(-0.318466 -0.00129029 1.26885e-19)
(0.995349 0.00969977 2.17222e-20)
(1.08774 0.0153139 3.17226e-20)
(1.00459 0.0304847 7.02549e-21)
(1.00192 0.00122564 -2.30808e-21)
(1.10418 0.124688 3.70736e-21)
(0.774143 -0.0109828 0)
(1.04809 0.0267279 6.5775e-21)
(0.685364 -0.0739968 0)
(0.294884 -0.0125807 -1.63943e-20)
(1.17666 0.135619 9.3594e-20)
(1.00181 0.0171051 0)
(1.02443 0.00251932 -2.46783e-21)
(1.09743 -0.0547633 -3.29141e-20)
(1.21326 -0.061541 0)
(1.00006 0.000406126 -3.21778e-21)
(1.21595 -0.0582344 -1.13997e-20)
(1.02395 0.00267374 0)
(1.10789 0.114083 -2.93858e-20)
(1.03341 -0.00169332 7.81911e-21)
(1.03383 0.0062275 3.92044e-21)
(1.21293 -0.0369544 7.91866e-20)
(1.03911 0.01533 -1.66696e-21)
(1.0147 -0.0730782 0)
(1.11308 0.0867782 3.67698e-21)
(0.999956 0.000640596 -7.75352e-21)
(1.01965 0.00326158 5.5601e-21)
(0.981356 7.3596e-05 -2.1355e-20)
(1.00919 0.0195486 0)
(1.0517 -0.00612336 0)
(0.272507 0.682521 6.49235e-20)
(1.03758 0.00383972 0)
(1.03016 0.0100354 0)
(0.380913 -0.0674051 0)
(0.620131 -0.0782179 5.77911e-20)
(1.09061 -0.023411 -9.77694e-21)
(1.11894 0.112604 -1.87862e-21)
(1.14483 -0.000865016 3.17866e-20)
(1.07534 0.0232609 -9.38365e-21)
(1.02387 0.0139681 1.96976e-21)
(0.888088 0.00999996 2.03951e-20)
(-0.116541 -0.0168042 -2.76724e-20)
(1.0924 0.260051 -9.10868e-21)
(0.9982 0.00474137 -6.70007e-21)
(1.03485 0.036034 0)
(0.334484 -0.0664658 -3.64756e-20)
(1.11119 0.0183034 0)
(-0.114191 -0.011315 -3.58331e-20)
(0.999955 0.000836111 1.33165e-20)
(0.951159 0.0022807 1.7316e-20)
(0.0972346 -0.00764846 6.6924e-21)
(1.10375 0.0128232 -5.38526e-20)
(1.05015 0.025322 -3.27208e-21)
(-0.309248 0.00217782 1.23306e-19)
(0.212837 0.234643 1.19774e-19)
(1.00946 0.0190332 -9.46343e-22)
(1.19825 0.0184368 -6.77e-20)
(1.00574 0.00230178 -1.37718e-21)
(1.03799 0.0153125 2.92191e-21)
(1.01221 0.00535552 0)
(-0.122162 -0.021406 -3.01306e-20)
(1.0222 0.000910112 -7.27868e-23)
(1.03799 -0.0038048 1.29987e-22)
(1.02441 0.0135202 4.0535e-21)
(0.966549 -0.07212 1.74863e-20)
(1.06103 -0.012749 6.61117e-21)
(1.23946 0.153816 -1.53812e-19)
(0.70214 -0.0972518 0)
(1.03433 0.00448764 -7.0896e-21)
(0.844958 0.0248217 1.0741e-19)
(1.00048 0.00339403 -2.27628e-21)
(-0.152735 -0.00981057 3.79807e-20)
(1.00522 0.0100256 2.25243e-21)
(1.03823 0.0033168 0)
(0.99866 0.000719257 1.20579e-20)
(1.09831 -0.0550891 5.99456e-20)
(0.998493 0.000558261 -1.276e-20)
(1.1863 -0.0174784 0)
(0.301307 -0.00868944 -1.7827e-20)
(0.715212 -0.0631735 2.46683e-20)
(0.904613 0.0309209 2.59259e-21)
(1.11783 -0.0622641 3.35937e-20)
(-0.270833 -0.00226208 4.78043e-20)
(0.996305 0.0260572 1.10138e-20)
(0.139625 -0.00612801 3.88725e-20)
(0.416047 0.0444162 2.42174e-19)
(-0.248783 -0.00229235 -4.78242e-20)
(0.334841 -0.0237119 -1.80785e-20)
(0.361388 -0.0657588 0)
(0.116801 0.169644 5.41904e-20)
(1.18978 -0.00485109 -3.40975e-20)
(1.0099 0.0472103 0)
(0.508813 -0.0459378 -1.19071e-20)
(1.1032 0.0147592 3.00879e-20)
(0.456429 -0.0444009 0)
(1.02876 0.00411386 -2.94548e-21)
(1.02323 0.0225217 -1.75164e-21)
(1.00297 0.0420101 3.72082e-21)
(1.00051 0.00366754 -2.9146e-21)
(1.08008 0.0188265 0)
(0.891047 0.0894462 -6.47547e-20)
(0.12119 -0.0143096 1.52605e-20)
(1.02307 0.0215698 0)
(0.993806 0.00348664 -1.1054e-20)
(-0.221078 0.0165205 -7.30421e-20)
(0.970945 0.448678 2.09905e-21)
(0.981528 -0.00117869 3.52111e-20)
(0.812533 -0.0559659 4.3713e-20)
(1.09176 0.0547956 -2.96357e-20)
(1.04401 0.0208045 -4.71576e-21)
(0.496586 0.716708 0)
(0.806267 -0.0507623 -4.78522e-20)
(0.95165 0.0495426 -1.06814e-20)
(1.06141 -0.0120267 -6.63979e-21)
(0.272152 -0.0087446 -2.20047e-20)
(-0.303069 -0.000609915 -1.22648e-19)
(0.222709 0.0567048 -1.22083e-19)
(1.03298 -0.00123349 -9.99555e-21)
(1.24629 0.13994 -4.83456e-20)
(1.19912 0.0763965 0)
(-0.222825 0.00511376 0)
(0.424942 -0.0714759 3.90692e-20)
(1.08905 -0.0514799 4.72105e-20)
(1.0149 0.0256709 0)
(1.05135 0.0154972 1.58585e-20)
(1.02641 0.0423747 -1.7567e-21)
(1.01891 5.66518e-06 0)
(1.02627 0.0634084 -2.24238e-21)
(1.0166 0.00158204 -1.76595e-21)
(1.0451 0.0916171 0)
(1.08105 0.128409 1.71245e-20)
(-0.0488872 0.0267117 9.1548e-20)
(1.14123 -0.0414443 0)
(1.03845 -0.00327478 7.44645e-21)
(1.17581 -0.00758923 0)
(-0.0754866 -0.0278373 0)
(1.10081 0.119525 4.95602e-20)
(0.972232 0.0223471 1.44462e-20)
(-0.0662384 -0.00998149 4.8361e-20)
(1.02973 0.019197 1.71833e-21)
(0.98585 0.0395875 0)
(0.817659 0.0610561 1.34781e-22)
(-0.0106579 0.0336531 9.08124e-20)
(0.998436 -0.00083055 -8.59995e-21)
(1.00382 0.0192683 2.64268e-21)
(0.489301 -0.0510775 -2.02991e-20)
(1.10828 -0.0615731 -2.19539e-20)
(1.16887 -0.070097 -8.74053e-20)
(1.15594 -0.0225595 2.10343e-20)
(1.12367 -0.0633419 1.54236e-22)
(1.00739 0.018323 -1.74786e-21)
(1.20068 -0.00718973 -8.28915e-20)
(0.971282 0.024216 8.62833e-21)
(1.00336 0.0105476 0)
(0.969163 0.0201582 5.42053e-22)