/*--------------------------------*- C++ -*----------------------------------*\
| =========                 |                                                 |
| \\      /  F ield         | OpenFOAM: The Open Source CFD Toolbox           |
|  \\    /   O peration     | Version:  v2012                                 |
|   \\  /    A nd           | Website:  www.openfoam.com                      |
|    \\/     M anipulation  |                                                 |
\*---------------------------------------------------------------------------*/
FoamFile
{
    version     2.0;
    format      ascii;
    class       surfaceVectorField;
    location    "950";
    object      Uf_0;
}
// * * * * * * * * * * * * * * * * * * * * * * * * * * * * * * * * * * * * * //

dimensions      [0 1 -1 0 0 0 0];


internalField   nonuniform List<vector> 
20580
(
(1.14523 0.0577043 -2.9927e-21)
(1.14542 0.0605592 -2.97768e-20)
(1.14273 0.0583979 -3.43727e-20)
(1.07454 -0.0233468 0)
(1.07508 -0.0244796 3.49743e-21)
(1.07646 -0.0232507 -1.47901e-20)
(1.07379 -0.0216825 -8.62773e-21)
(1.0724 -0.0229768 -1.20111e-20)
(-0.200686 -0.0101844 1.0112e-20)
(-0.176899 -0.0133257 -6.20039e-20)
(-0.200145 -0.0107846 0)
(1.00225 -0.000562881 0)
(1.00202 -0.00052193 0)
(1.00212 -0.000310899 0)
(1.08646 -0.03719 -1.60591e-20)
(1.08626 -0.0393981 7.89812e-21)
(1.08406 -0.0381543 9.76093e-22)
(1.06073 0.013822 -1.17066e-20)
(1.06118 0.0148456 -1.40869e-20)
(1.01411 -0.000882444 -9.63993e-22)
(1.0138 -0.000900742 -1.14821e-21)
(1.01307 -0.000556135 1.11344e-21)
(0.266012 0.0463996 -8.13048e-21)
(0.272115 0.0465704 1.10132e-20)
(0.244836 0.0424234 -2.19586e-20)
(0.990876 -0.00925583 3.38966e-21)
(0.991272 -0.00854561 1.4307e-21)
(0.991687 -0.00912672 0)
(1.17046 -0.101606 2.44559e-20)
(1.16508 -0.101592 2.97869e-20)
(1.16822 -0.106669 0)
(1.00138 -0.00859352 4.56741e-21)
(1.00157 -0.00891768 2.47395e-22)
(1.00141 -0.0090064 -5.56662e-22)
(0.980927 -0.0211459 -2.13742e-21)
(0.98057 -0.0220984 -1.92337e-21)
(0.981761 -0.0216935 3.21963e-21)
(0.0587986 0.0172054 0)
(0.0462408 0.0144244 1.49654e-20)
(0.0630282 0.0195147 -1.19437e-20)
(1.10599 0.0126278 9.65961e-21)
(1.10792 0.0128438 -2.16191e-20)
(1.10669 0.0110006 -1.84035e-20)
(1.09226 0.0622984 0)
(1.09171 0.0620771 2.33875e-20)
(1.09171 0.0628618 0)
(-0.29794 -0.00147498 -1.89925e-20)
(-0.318863 -0.000685158 0)
(-0.308136 0.00209841 8.02727e-20)
(1.03652 -0.0195084 0)
(1.03747 -0.0195124 0)
(1.03714 -0.020445 -4.3433e-21)
(1.22087 0.0390628 2.01186e-20)
(1.22303 0.0360958 -5.24825e-20)
(1.21979 0.0402832 2.59547e-20)
(1.14768 0.0569573 5.63207e-20)
(1.14504 0.0553063 3.33171e-20)
(1.12071 0.00712703 1.12586e-20)
(1.11981 0.00502789 -1.62018e-21)
(1.1181 0.00708321 1.10125e-20)
(1.04333 -0.0944585 -5.58864e-21)
(1.03993 -0.0948701 0)
(1.04158 -0.0913074 0)
(0.677297 -0.332228 -4.62921e-21)
(0.527967 -0.266577 -1.11761e-20)
(0.390185 -0.204178 1.28897e-20)
(1.00006 -0.000213565 -1.16208e-22)
(1.0001 -0.000282578 2.89017e-21)
(1.00006 -0.00017961 8.91131e-22)
(1.1536 -0.0134126 -2.41716e-21)
(1.14091 -0.0137272 -3.07887e-20)
(1.03597 -0.00408046 -2.03372e-21)
(1.09139 0.0495304 6.92514e-21)
(1.09128 0.0503775 -9.29032e-22)
(1.09226 0.0501015 -9.85109e-22)
(1.10439 0.0810241 2.15682e-20)
(1.10862 0.0828957 9.92875e-21)
(1.10599 0.0822052 -6.62699e-21)
(1.12357 0.0868015 -2.46333e-20)
(1.13219 0.0877467 -5.01724e-20)
(1.06291 0.0884799 -2.3912e-20)
(0.428694 0.0445893 -1.95178e-20)
(0.405802 0.0421691 -1.10566e-20)
(0.396902 0.0416234 -1.47941e-20)
(1.02193 -0.0124206 -2.12153e-21)
(1.02155 -0.012826 2.1282e-22)
(1.02126 -0.0121577 2.9903e-22)
(-0.0887036 -0.00710888 0)
(-0.116313 -0.00722745 1.89283e-22)
(-0.0728396 -0.00721483 0)
(1.0615 0.0133787 -1.6902e-21)
(1.06022 0.01311 5.22143e-21)
(1.13656 0.060212 6.62833e-22)
(1.13454 0.0607535 1.90731e-21)
(1.13521 0.058274 -1.07319e-21)
(0.314227 0.0668351 5.23718e-21)
(0.304096 0.0662624 1.75006e-20)
(0.359104 0.0712538 -2.41421e-21)
(1.13389 -0.0873906 -2.40287e-20)
(1.13523 -0.0837227 5.01636e-22)
(1.13739 -0.0881819 -1.33743e-20)
(0.430516 0.041788 0)
(0.461071 0.0445907 0)
(0.438946 0.0411441 -1.83016e-20)
(1.00002 -0.000139067 -1.22615e-21)
(1.00006 -0.000255628 -8.23142e-22)
(1.20973 -0.15755 1.53273e-19)
(1.11605 -0.14139 2.16644e-20)
(1.09273 -0.133836 5.51616e-20)
(-0.0364228 0.0177442 -7.54447e-21)
(-0.0216588 0.018566 -1.25674e-20)
(0.00789399 0.0191773 -7.77241e-20)
(1.007 -0.0398666 -2.80283e-21)
(1.00775 -0.0389456 2.10785e-21)
(1.00819 -0.0402394 -1.18234e-21)
(0.1337 0.0516524 -2.71371e-21)
(0.176827 0.0566846 2.64119e-20)
(0.14387 0.0532725 -1.53861e-20)
(0.450881 0.04794 -3.25382e-21)
(0.460413 0.0476722 -5.10943e-21)
(-0.275889 0.000586385 6.54715e-20)
(-0.27837 -0.000591293 8.54729e-20)
(1.10408 -0.474921 8.23703e-21)
(1.09444 -0.481726 6.76877e-20)
(1.09015 -0.488158 5.91753e-20)
(0.471537 0.0552628 -6.16112e-22)
(0.461498 0.0549782 -3.16887e-21)
(0.435708 0.0504604 -6.64178e-21)
(1.01593 -0.0237048 5.22523e-22)
(1.01517 -0.0237656 -3.93507e-23)
(1.01543 -0.0228904 1.60305e-22)
(1.02015 3.14421e-05 2.88444e-21)
(1.01995 6.4554e-05 -5.82086e-21)
(1.09923 0.0638363 0)
(1.09851 0.0644617 0)
(1.09858 0.0632384 0)
(1.04877 -0.0599747 -1.32296e-20)
(1.04681 -0.0580527 -4.20579e-21)
(1.04949 -0.0579423 3.26958e-21)
(0.981294 -0.0200206 -3.01662e-21)
(0.979876 -0.0203911 -7.24168e-21)
(-0.246208 0.00801028 -5.835e-21)
(-0.244639 0.0072004 -1.40631e-20)
(-0.280502 0.00606131 7.94432e-20)
(0.973159 -0.0144569 1.56715e-21)
(0.974362 -0.0145297 4.17646e-21)
(0.973561 -0.0157205 5.44807e-21)
(1.09271 0.062611 0)
(1.09251 0.0619347 0)
(1.0782 0.0248292 2.05983e-20)
(1.07935 0.0254458 -1.08094e-20)
(1.07815 0.0260802 -2.11512e-21)
(0.11615 0.0136496 6.76958e-22)
(0.133843 0.0177861 2.12563e-23)
(0.110393 0.0135088 6.61082e-22)
(1.00644 -0.040831 -4.35871e-21)
(1.00594 -0.0394559 -6.70462e-22)
(1.13736 0.0627635 7.32865e-22)
(1.13886 0.0599124 -4.15737e-20)
(0.120761 0.050603 2.65355e-21)
(0.0961676 0.0446253 -2.19245e-21)
(1.09405 0.0761533 2.90122e-20)
(1.09771 0.0767523 -8.8818e-21)
(1.10025 0.077957 2.69122e-20)
(-0.0770257 0.0155864 2.50219e-20)
(-0.0659589 0.0161451 0)
(-0.0536348 0.019238 0)
(1.00123 -0.00826357 1.41773e-21)
(1.00135 -0.00818957 6.92213e-22)
(1.1026 0.0798461 -4.40188e-21)
(1.10399 0.0803946 2.49431e-20)
(0.995615 -0.00333834 0)
(0.995719 -0.00377326 -2.31559e-21)
(0.995203 -0.00379425 4.97137e-21)
(1.04783 -0.061495 -2.45006e-21)
(1.0503 -0.0611593 6.56617e-21)
(0.866823 -0.461392 -7.47162e-21)
(0.89124 -0.456396 -7.37699e-21)
(0.874607 -0.439217 1.12089e-20)
(0.840419 -0.465726 1.59217e-21)
(0.859847 -0.49069 -1.15239e-21)
(-0.0890402 0.0117459 2.08702e-20)
(-0.104688 0.0104435 -2.57366e-21)
(0.699914 -0.124671 -4.90961e-20)
(0.69348 -0.141039 2.33586e-21)
(1.02256 -0.0412096 -9.35653e-22)
(1.02134 -0.0414623 5.2505e-22)
(1.0218 -0.04011 -9.74497e-22)
(-0.146544 -0.0092616 -2.03391e-20)
(-0.175922 -0.00624967 -4.38572e-20)
(-0.164016 -0.00689013 0)
(-0.148863 -0.00264322 -1.36526e-20)
(-0.17918 -0.00101927 2.83521e-20)
(-0.150703 -0.0040259 6.51255e-20)
(1.12899 0.0109448 2.15924e-21)
(1.13038 0.00922567 1.89384e-20)
(1.13154 0.0116563 1.25927e-20)
(0.994842 -0.0279915 -2.1356e-21)
(0.994004 -0.0276659 -1.02351e-21)
(0.99422 -0.0288389 6.0012e-21)
(-0.0589947 0.0165696 -5.19134e-21)
(-0.0878163 0.0107212 3.34079e-20)
(1.08581 0.0236138 0)
(1.08541 0.0223432 0)
(1.08682 0.0227839 2.35702e-21)
(1.02352 -0.0774336 -5.67357e-22)
(1.0211 -0.0761891 -2.37048e-22)
(1.02327 -0.0745652 1.73966e-22)
(-0.281617 -0.00159601 -9.305e-20)
(-0.266926 -0.00110464 3.28529e-20)
(1.02226 -0.0060946 1.50504e-22)
(1.02208 -0.0064748 3.22284e-21)
(1.0228 -0.00643992 6.219e-21)
(1.1601 -0.0112433 0)
(1.24292 -0.0211424 0)
(1.00571 -0.0192152 2.27894e-22)
(1.0055 -0.0185318 -6.41224e-22)
(1.00515 -0.0189052 1.19862e-21)
(1.0239 -0.0412363 0)
(1.02322 -0.0426523 0)
(1.27363 -0.0962196 2.98877e-21)
(1.27396 -0.0903873 5.64596e-20)
(1.27913 -0.0960998 0)
(1.13004 -0.0871207 -1.72858e-20)
(1.13184 -0.0914136 2.18419e-20)
(0.0363218 0.0162832 9.85202e-21)
(0.0457444 0.0168047 -1.23625e-20)
(0.0581318 0.0213175 -4.61315e-20)
(-0.0541593 0.0158299 -8.67934e-22)
(-0.0366057 0.0202677 1.95615e-20)
(-0.131158 -0.00481793 4.58353e-20)
(-0.1232 -0.00514771 -5.55938e-20)
(-0.0924529 -0.00722589 0)
(1.04545 -0.0970989 2.48624e-21)
(1.04643 -0.0935246 -2.92765e-21)
(0.234452 0.0124659 -1.40303e-20)
(0.20944 0.0088991 6.07208e-21)
(0.235992 0.0131518 -6.25073e-21)
(0.99169 -0.0132173 2.35077e-21)
(0.992164 -0.0136483 -2.3886e-21)
(0.992238 -0.0127865 9.47185e-21)
(-0.0722389 -0.00823957 0)
(-0.110006 -0.00521608 -3.56555e-20)
(0.971155 -0.0144748 -8.09218e-21)
(0.972527 -0.0127319 -1.39269e-20)
(1.06232 0.0129052 5.79009e-21)
(1.06267 0.0138316 -5.70508e-21)
(-0.276155 0.00281779 6.02376e-20)
(-0.277021 0.000853675 4.27503e-20)
(-0.141038 -0.00485253 4.28816e-20)
(-0.165147 -0.00387873 -9.1125e-21)
(-0.051131 0.0225145 1.35144e-20)
(-0.0663259 0.0189441 5.5482e-20)
(-0.085463 0.017139 5.54334e-20)
(1.09567 -0.452069 -3.1107e-20)
(1.0867 -0.433424 -1.11938e-22)
(1.0739 -0.445823 1.85759e-20)
(1.01082 -0.0250823 -1.04818e-21)
(1.01011 -0.0251045 4.57296e-22)
(1.01083 -0.0259243 1.09615e-22)
(1.09549 0.0640897 -1.50732e-20)
(1.09471 0.0637211 9.2322e-21)
(1.09527 0.0632593 2.49528e-20)
(-0.194158 0.0106995 -3.06019e-20)
(-0.192366 0.00984341 -2.44185e-20)
(-0.224897 0.00654962 0)
(1.21736 -0.197657 6.71866e-20)
(1.22517 -0.198118 2.2743e-21)
(1.2206 -0.205037 7.48901e-21)
(1.09627 0.0646496 -9.8803e-21)
(1.09514 0.0652039 -2.11877e-20)
(0.808244 -0.126406 4.59853e-20)
(0.806439 -0.115852 -2.2061e-20)
(0.817431 -0.120443 1.93939e-20)
(0.815717 -0.159485 2.95254e-20)
(0.813697 -0.147829 -5.49289e-20)
(0.802735 -0.156252 -2.35125e-20)
(0.98982 -0.0294463 -2.14103e-22)
(0.990808 -0.0297242 -5.3282e-21)
(0.990023 -0.0308714 4.70068e-21)
(1.01885 -0.0230005 0)
(1.01944 -0.0237921 0)
(1.01947 -0.0228561 0)
(1.1352 -0.00550429 -5.58768e-22)
(1.13683 -0.00728349 1.27476e-21)
(1.13789 -0.00410064 0)
(1.01825 -0.0221604 -1.63541e-21)
(1.018 -0.0231434 3.84983e-22)
(-0.146913 -0.00313103 -5.06029e-20)
(-0.115991 -0.00565198 -2.04327e-19)
(1.06174 0.0119624 1.118e-20)
(1.06316 0.0123091 1.22996e-20)
(1.03568 -0.019535 -3.32189e-21)
(1.03598 -0.0187466 0)
(1.02984 -0.130983 -1.36609e-22)
(1.03201 -0.13542 -7.06218e-22)
(1.02666 -0.13435 1.57111e-21)
(1.01669 -0.0237462 8.51696e-22)
(1.01661 -0.0246236 1.41062e-21)
(1.22362 -0.0215446 -1.1761e-20)
(1.22275 -0.0179967 0)
(1.22673 -0.0201543 -2.9359e-20)
(1.171 -0.046272 1.98976e-20)
(1.16753 -0.0449896 8.41673e-22)
(1.16804 -0.0488053 -3.01568e-20)
(1.12283 0.0626886 -5.02087e-21)
(1.12116 0.0629092 2.09069e-20)
(1.12232 0.0644928 -3.51201e-20)
(1.07709 0.0241408 0)
(1.07817 0.0235588 0)
(1.01509 -0.00819953 -2.23122e-21)
(1.01487 -0.00844973 -1.06958e-21)
(1.01546 -0.0085442 2.61247e-22)
(1.01448 -0.000776293 -1.06728e-21)
(1.01454 -0.00118463 1.60412e-22)
(-0.223874 -0.00698881 9.3533e-21)
(-0.204243 -0.0109523 2.752e-21)
(-0.122109 -0.0118711 -3.56504e-21)
(-0.108993 -0.0117933 -2.15707e-20)
(1.11642 -0.360771 1.83532e-20)
(1.10727 -0.371325 0)
(1.12245 -0.372228 0)
(1.03061 -0.0165682 -4.16851e-21)
(1.02957 -0.0165245 -6.12967e-21)
(1.02995 -0.0158493 4.01561e-21)
(1.01654 -0.0411915 2.75097e-23)
(1.01763 -0.041865 -3.78371e-22)
(1.0166 -0.0426348 1.29795e-22)
(0.0474785 0.0322099 -4.12561e-21)
(0.0670318 0.0364657 -1.15068e-21)
(0.0433797 0.0329089 -4.12505e-21)
(1.19451 0.0556275 -4.81441e-21)
(1.19818 0.0544348 2.48825e-20)
(1.19892 0.0588704 3.42757e-20)
(0.60347 -0.204733 1.91756e-20)
(0.626625 -0.197603 0)
(0.622897 -0.227366 7.78871e-20)
(1.01167 -0.0252917 1.11138e-22)
(1.01099 -0.0242685 -1.64435e-22)
(1.13726 -0.156683 0)
(1.13528 -0.150466 -1.89194e-20)
(1.13184 -0.156142 0)
(0.19324 0.0570222 3.08774e-21)
(0.157203 0.0527159 2.24046e-21)
(0.185078 0.0564142 1.59961e-22)
(1.11778 0.0182715 2.40435e-20)
(1.11927 0.0198312 3.1895e-20)
(1.11927 0.0171059 2.00009e-20)
(1.03658 -0.0944972 0)
(1.03805 -0.0978159 0)
(1.1036 -0.0687724 1.76089e-20)
(1.10488 -0.0654512 -1.30509e-20)
(1.10116 -0.0667195 -1.71164e-20)
(1.3148 -0.174798 9.09592e-20)
(1.30282 -0.165044 9.19111e-20)
(0.331948 0.0672881 0)
(0.28202 0.0633781 0)
(1.17501 -0.10248 1.28425e-20)
(1.17215 -0.0980164 1.7754e-20)
(-0.0514618 0.0203341 2.99763e-20)
(-0.0796386 0.0199504 0)
(-0.0892311 0.0190605 0)
(0.716978 -0.122851 2.7969e-20)
(-0.120327 -0.00504007 -1.30615e-20)
(-0.150088 -0.0032469 1.25356e-20)
(0.853331 -0.0952438 -1.11526e-20)
(0.844021 -0.0939099 0)
(0.848989 -0.0866289 0)
(1.11476 0.0213107 -3.95707e-21)
(1.11279 0.0206767 0)
(1.11344 0.0228039 0)
(1.27355 -0.102893 2.76183e-21)
(1.26794 -0.0970555 -3.10586e-22)
(0.975072 -0.0479848 8.63863e-21)
(0.975151 -0.0458784 1.13593e-21)
(0.976951 -0.0466618 2.04316e-20)
(0.991145 -0.0128586 -7.94804e-21)
(0.991063 -0.0138102 -1.46164e-24)
(0.745791 -0.304226 -1.7784e-20)
(0.728928 -0.318794 6.13541e-21)
(0.752414 -0.322216 1.23228e-20)
(1.12999 0.0131045 -7.74538e-20)
(1.05426 0.0164939 -6.03407e-20)
(1.05024 0.018519 9.48141e-21)
(1.00996 -0.0734251 5.0584e-22)
(1.00968 -0.0755087 7.69565e-22)
(1.00746 -0.0743606 0)
(1.02238 -0.00571882 -3.25802e-21)
(1.02174 -0.00581734 -3.45802e-21)
(-0.152925 -0.00427811 -1.09207e-19)
(0.272798 0.0329346 -7.76116e-21)
(0.274255 0.0352655 -7.63108e-21)
(0.250118 0.0292987 5.99525e-21)
(1.14055 -0.161255 -2.00392e-20)
(1.14285 -0.155648 -2.31579e-20)
(1.09698 0.0642975 1.43324e-20)
(1.09694 0.0653958 7.98041e-21)
(1.22449 -0.0258835 6.00474e-20)
(1.22001 -0.0234871 -4.56409e-20)
(1.17429 -0.0475581 -1.22716e-20)
(1.17371 -0.0437427 1.00783e-20)
(1.21028 0.0407475 2.49881e-21)
(1.21267 0.0377407 1.18153e-21)
(1.20852 0.0371015 -3.72504e-20)
(0.972901 -0.0239461 2.52942e-21)
(0.973613 -0.025369 -1.07295e-22)
(0.9718 -0.0255179 -1.15926e-21)
(0.983844 -0.0110775 6.90668e-23)
(0.983228 -0.0104331 -1.24169e-20)
(0.984226 -0.0101339 6.26704e-21)
(1.00152 -0.00702271 9.26958e-22)
(1.00144 -0.00716394 -2.38465e-21)
(1.00133 -0.00670146 -1.80229e-21)
(-0.0493484 0.0166438 -7.98496e-21)
(-0.0723443 0.0139769 7.20129e-20)
(1.11213 0.0174764 -4.40259e-20)
(1.11193 0.0193295 -1.66159e-20)
(1.1108 0.0179965 2.84966e-21)
(1.06368 0.00301725 -2.38342e-20)
(1.0643 0.00365149 -9.74121e-21)
(1.06484 0.00272526 2.08368e-21)
(1.00013 -0.000515877 6.01982e-22)
(1.00013 -0.000452563 -1.07816e-21)
(1.0002 -0.000613958 -1.20209e-21)
(0.417637 0.040361 4.28817e-21)
(0.411013 0.0416774 1.21221e-20)
(0.444213 0.0441735 5.9849e-21)
(1.13408 -0.00280708 4.32437e-20)
(1.13225 -0.00606205 3.78429e-20)
(1.10011 0.0630618 0)
(1.1003 0.0644253 1.09606e-20)
(0.0714001 0.0188029 0)
(0.0531095 0.0134506 0)
(0.354988 0.0566317 -2.15572e-21)
(0.328379 0.0533518 9.42787e-22)
(0.361246 0.0553008 -1.38883e-21)
(0.344152 0.0561712 1.39296e-21)
(0.385513 0.0603589 9.00412e-21)
(-0.250503 0.00807318 7.49472e-20)
(-0.220315 0.00975107 -7.3087e-20)
(1.03299 -0.127545 7.10606e-22)
(1.02803 -0.126572 -1.08927e-21)
(0.666045 0.0689575 1.36011e-20)
(0.678363 0.067821 9.12061e-21)
(0.594899 0.0651983 -7.23234e-21)
(1.00108 -0.00796122 0)
(1.00094 -0.00764524 1.57568e-21)
(1.00104 -0.00755883 0)
(1.01537 -0.00792358 9.59055e-23)
(1.01475 -0.00778795 -5.39987e-22)
(1.15271 -0.00754469 -2.75287e-20)
(1.15387 -0.0103799 -1.80889e-21)
(1.15063 -0.0100108 0)
(1.00124 -0.000411371 3.27449e-23)
(1.00112 -0.00052583 -3.01203e-22)
(1.00105 -0.000346155 0)
(-0.0406818 0.0238551 0)
(-0.0140941 0.0245861 -2.9429e-20)
(1.12432 0.0849398 -1.71942e-20)
(1.12189 0.0830264 -1.38382e-20)
(1.12193 0.0844399 -1.82518e-20)
(1.10305 0.0676819 -1.3122e-21)
(1.1043 0.0681987 1.802e-20)
(1.10263 0.0691062 6.9354e-21)
(1.01564 -0.00768426 7.41828e-22)
(1.01595 -0.00805024 2.62468e-21)
(1.08385 0.0250628 -9.92271e-21)
(1.08488 0.0243044 1.49683e-20)
(1.0834 0.023893 1.66143e-20)
(1.1018 0.0672994 1.85879e-20)
(1.10285 0.0664227 -3.8853e-22)
(1.19111 0.0581051 -7.23691e-20)
(1.19115 0.0531233 -3.0873e-20)
(1.11968 -0.460723 -5.82055e-20)
(1.03564 -0.123916 0)
(1.03367 -0.119795 0)
(1.03802 -0.120276 0)
(1.116 0.0199942 -2.50951e-20)
(1.11551 0.0173995 4.67496e-21)
(-0.292644 -0.00142104 -5.32637e-20)
(-0.289666 0.000245116 -5.05363e-20)
(0.290454 0.0365148 6.33577e-21)
(0.268112 0.0305519 1.66665e-22)
(1.13273 0.060843 3.92152e-22)
(1.13369 0.0627655 2.19501e-20)
(0.892691 -0.0694521 0)
(0.888359 -0.0653922 3.19525e-20)
(0.887195 -0.0721043 2.56526e-20)
(0.977181 -0.0263825 -4.44696e-21)
(0.976711 -0.0251686 -4.23867e-21)
(0.978125 -0.0251612 0)
(1.01972 -0.016751 -6.15596e-23)
(1.01979 -0.0174373 2.95539e-21)
(1.02054 -0.0170865 1.08899e-21)
(1.20331 0.00627821 3.24135e-21)
(1.19845 0.0110527 -3.62114e-20)
(1.11362 0.0166569 -7.27951e-21)
(1.11181 0.0155467 -3.61016e-20)
(0.035279 0.0121591 2.39645e-22)
(0.0258155 0.0104192 2.64203e-21)
(1.08604 -0.03473 5.15659e-21)
(1.08838 -0.0358948 -8.959e-21)
(1.01013 -0.0710261 4.68391e-23)
(1.01242 -0.0724102 -3.26686e-23)
(1.09404 0.0633929 0)
(1.09337 0.0629437 0)
(1.09386 0.0625006 0)
(1.131 0.0606155 1.40509e-20)
(1.1318 0.0586699 -2.92933e-20)
(1.04727 -0.0102203 4.47148e-21)
(1.04831 -0.0106246 0)
(1.04738 -0.011187 0)
(1.04398 -0.0287401 6.60518e-21)
(1.04259 -0.0287544 3.95788e-21)
(1.04323 -0.0276841 2.40079e-21)
(0.699985 -0.154963 4.96499e-20)
(0.720717 -0.158821 -1.39665e-20)
(0.709547 -0.172304 -2.36044e-20)
(1.27385 -0.108566 -2.32253e-20)
(1.27328 -0.115102 -5.60872e-20)
(1.26776 -0.109725 -5.27922e-20)
(-0.0270056 0.0284373 -2.34706e-20)
(-0.00689216 0.029448 -3.84191e-20)
(0.00683965 0.0308713 -9.20114e-21)
(0.09416 0.0485362 1.57659e-20)
(0.0816341 0.0470374 -1.43335e-20)
(0.129507 0.0516079 1.64235e-20)
(1.10407 0.0123162 -1.63407e-20)
(1.10506 0.0142418 -2.73852e-21)
(0.930676 -0.712858 1.31996e-20)
(0.928545 -0.766657 0)
(0.980246 -0.765099 0)
(-0.0562091 0.0270463 0)
(-0.0425075 0.0280436 1.82553e-20)
(0.936839 -0.024643 -2.5049e-20)
(0.939264 -0.0234637 -2.64325e-21)
(0.936612 -0.0216002 1.57666e-20)
(1.10529 0.0289159 1.35453e-21)
(1.10626 0.0278528 -2.43837e-20)
(1.1046 0.0279546 -3.32724e-20)
(0.249996 0.0458896 1.04817e-20)
(0.269917 0.049241 1.2611e-22)
(0.238782 0.0449272 -1.74465e-20)
(1.07992 -0.0454983 -1.04646e-20)
(1.08117 -0.0468479 -5.68775e-21)
(1.07875 -0.0472159 1.63835e-20)
(1.09129 0.0618895 -4.99027e-21)
(1.09076 0.061841 -1.04045e-20)
(1.0908 0.0624099 -3.41089e-20)
(1.01574 -0.04085 -4.74163e-22)
(1.01644 -0.04033 2.67425e-23)
(1.279 -0.107686 0)
(1.0001 -0.002099 -8.64061e-23)
(1.00015 -0.00244722 0)
(1.00013 -0.00251423 0)
(1.13766 -0.0798973 5.25251e-22)
(1.13964 -0.0771026 -1.35946e-20)
(1.14102 -0.0817513 -3.27571e-20)
(1.0256 -0.0830937 3.42713e-21)
(1.02813 -0.0834722 8.31468e-22)
(1.02664 -0.0857678 1.37785e-22)
(0.981919 -0.0189433 -3.088e-21)
(0.982637 -0.0197179 -2.79613e-21)
(1.15661 0.0704451 -3.43393e-20)
(1.15566 0.07285 -3.52984e-20)
(1.15842 0.0722782 -4.98771e-21)
(1.04756 -0.0202684 4.42546e-21)
(1.04644 -0.0195995 -1.57347e-21)
(1.04775 -0.0190484 8.20968e-21)
(0.177982 -0.544773 8.59094e-20)
(0.133492 -0.590129 -2.41382e-20)
(1.01536 -0.00724886 0)
(1.01598 -0.00743421 -2.53367e-23)
(1.14996 0.0561788 -1.59398e-20)
(1.15238 0.0551446 -1.03727e-20)
(1.1498 0.0536201 -4.06042e-20)
(0.0286288 0.016011 7.23097e-20)
(0.012857 0.012081 5.58978e-20)
(-0.0667284 0.0192532 -3.09279e-21)
(-0.0740196 0.0201161 -4.6411e-20)
(-0.0333945 0.0213102 -2.19445e-20)
(0.89882 -0.0783419 4.22004e-21)
(0.904103 -0.0767866 1.42751e-21)
(0.90253 -0.0826806 -5.73564e-22)
(1.10422 0.0300463 1.56248e-20)
(1.10586 0.0299932 1.53747e-20)
(1.00005 -0.00139442 1.57935e-21)
(1.00002 -0.00104668 9.95423e-23)
(1.00003 -0.00106308 1.93238e-21)
(0.755861 -0.290255 1.06317e-20)
(0.735901 -0.284172 -7.00253e-20)
(1.00181 -0.0142498 -1.54379e-21)
(1.00181 -0.0136097 -1.65013e-21)
(1.00215 -0.0140928 1.36446e-21)
(1.1339 -0.0788291 -3.90446e-20)
(-0.00557375 -0.0378617 -8.98011e-20)
(-0.0725087 -0.0310784 2.82642e-20)
(-0.0491656 -0.034886 -1.10357e-19)
(0.895876 -0.0745769 -1.0392e-20)
(0.897666 -0.0680908 -1.07056e-20)
(1.07829 -0.0436592 -9.55286e-21)
(1.08089 -0.043167 -3.27216e-22)
(0.996522 -0.00152132 7.21335e-21)
(0.996157 -0.00182004 3.16847e-21)
(0.0634258 0.0453783 -2.59458e-20)
(0.102189 0.0480676 0)
(1.02269 -0.0125892 6.08593e-22)
(1.02225 -0.0119087 -4.65801e-21)
(0.863568 -0.408416 9.3477e-21)
(0.996811 -0.485209 9.64991e-21)
(0.0740147 0.0452266 -3.73733e-20)
(0.0637919 0.043161 1.31187e-20)
(0.106871 0.0472797 -3.97365e-20)
(1.20927 -0.196882 2.89375e-20)
(1.21418 -0.190127 7.42427e-20)
(1.00012 -0.000575736 7.8308e-22)
(1.00007 -0.000414613 1.16842e-21)
(1.28449 -0.329597 -2.00655e-20)
(1.30665 -0.327042 1.1227e-19)
(1.31435 -0.341933 5.21682e-20)
(-0.0475174 0.015255 4.46407e-21)
(-0.0392743 0.0153644 0)
(-0.0239268 0.0207206 3.81317e-22)
(0.510724 0.0591521 -5.08493e-22)
(0.480518 0.0548159 2.72267e-21)
(1.09139 0.0615448 2.50146e-20)
(1.11082 -0.0115118 5.72512e-22)
(1.1112 -0.0139623 4.11521e-21)
(1.10861 -0.0124265 -1.59462e-22)
(0.718865 -0.353562 2.17814e-20)
(0.712082 -0.334007 8.07177e-20)
(0.693959 -0.348982 2.34714e-20)
(1.15521 0.0686786 1.12404e-20)
(1.15784 0.0679528 -9.70737e-22)
(1.08415 0.0262498 -2.42732e-20)
(1.08271 0.0257872 -1.07277e-20)
(1.09794 -0.421913 -1.91207e-20)
(1.08079 -0.418528 -1.95966e-20)
(1.05134 -0.13697 6.14913e-21)
(1.0465 -0.136953 -5.23861e-21)
(1.04907 -0.132934 -7.27958e-22)
(0.179793 0.0136648 8.23796e-21)
(0.161128 0.0115489 3.8358e-21)
(0.162062 0.0103983 -4.07666e-21)
(1.18068 0.0355149 -4.60523e-21)
(1.17813 0.0383349 4.5904e-20)
(1.17749 0.0337842 4.11042e-20)
(1.01048 -0.000593528 1.06756e-21)
(1.01107 -0.000841629 -2.44284e-21)
(1.01058 -0.0012607 2.14922e-22)
(1.08651 -0.0136426 -2.208e-20)
(1.08455 -0.0133772 2.68394e-21)
(1.0852 -0.0151937 1.26762e-20)
(1.09389 0.0642993 -8.7731e-21)
(0.418645 0.0391947 0)
(0.393624 0.03853 -1.05414e-20)
(0.292482 0.0129371 4.74468e-21)
(0.311447 0.0158577 8.62887e-21)
(0.300307 0.0132264 4.15065e-21)
(1.01905 -0.016406 -2.95002e-21)
(1.0197 -0.0161905 -1.91909e-21)
(0.584663 -0.218455 6.38205e-20)
(0.992589 -0.0140179 -3.88174e-21)
(0.993044 -0.0143755 3.29921e-21)
(0.993133 -0.0135776 3.58228e-21)
(1.13372 0.0723061 1.18339e-20)
(1.13567 0.072171 2.30485e-20)
(1.1345 0.0704538 1.22386e-20)
(1.20068 0.0512096 0)
(1.20345 0.048684 0)
(1.19864 0.0482327 0)
(1.08797 -0.0142599 -8.36558e-21)
(1.08743 -0.0128131 -2.52255e-21)
(1.1328 -0.00103063 1.65176e-20)
(1.13502 0.00011989 -3.22888e-21)
(1.18346 0.0338903 -4.96476e-20)
(1.18362 0.0382599 -6.7229e-20)
(0.999723 -0.0260807 -1.8678e-21)
(1.00044 -0.0268201 1.03963e-21)
(1.00036 -0.0255569 -1.88912e-21)
(0.81084 -0.136353 1.63086e-20)
(0.799022 -0.132028 4.26766e-20)
(1.10251 0.0606969 9.71025e-21)
(1.10154 0.061637 -1.61886e-20)
(1.1014 0.0601899 0)
(1.15168 0.093584 -2.64793e-20)
(1.14652 0.092758 7.32771e-20)
(1.18362 0.0924371 8.06862e-20)
(0.997815 -0.00938183 -3.93044e-22)
(0.998098 -0.00908234 1.55638e-21)
(0.997879 -0.00878049 1.41787e-21)
(0.982472 -0.0180087 0)
(0.981125 -0.0182469 0)
(0.893772 -0.08001 -2.98536e-20)
(0.326178 0.060069 -3.96647e-21)
(0.336674 0.0603312 -3.93363e-21)
(0.36794 0.0644511 8.52733e-22)
(-0.24865 -0.00329387 1.44309e-20)
(-0.275354 -0.00126714 1.76949e-19)
(-0.251112 -0.00390847 -1.51169e-20)
(1.12289 0.0125476 1.27436e-20)
(1.12196 0.0111277 9.9799e-21)
(1.12405 0.0109839 1.59335e-21)
(1.03153 -0.0166339 -5.3641e-21)
(1.03117 -0.0173601 -9.24707e-22)
(1.18877 0.0599051 -1.25336e-20)
(1.19283 0.0620638 -3.697e-20)
(1.208 0.0435173 2.47739e-21)
(1.20559 0.0462627 1.09727e-21)
(1.20378 0.0428589 3.66571e-20)
(1.12645 0.05897 -7.16247e-22)
(1.1243 0.0593268 -2.34349e-20)
(1.12494 0.0574305 -8.1539e-22)
(1.13167 0.00147928 -4.58198e-20)
(1.13019 -0.00146491 -3.50426e-20)
(0.316018 0.0581451 1.14348e-20)
(0.291217 0.0534141 0)
(-0.162446 0.011864 -1.08334e-20)
(-0.159264 0.0112943 3.83636e-20)
(-0.1926 0.0083877 1.53931e-20)
(1.0903 -0.0213754 -1.50762e-21)
(1.09071 -0.0230841 -7.78453e-21)
(1.0922 -0.0213546 0)
(1.10084 0.00911973 1.89537e-20)
(1.10236 0.00955719 -1.34873e-20)
(1.10066 0.0106414 2.37447e-20)
(1.15338 -0.179592 1.15021e-20)
(1.11988 -0.168441 -5.57809e-20)
(0.974572 -0.137257 -1.9146e-20)
(1.02135 -0.0216943 -1.12662e-21)
(1.02186 -0.0225487 -9.9657e-22)
(1.02063 -0.0220861 -2.68161e-22)
(1.00159 -0.00682643 2.97216e-23)
(1.00164 -0.00665089 -8.22714e-22)
(1.00145 -0.00637858 -2.70192e-21)
(1.12819 0.0589203 -1.00141e-20)
(1.12725 0.0608141 -2.42873e-20)
(1.155 -0.120681 0)
(1.15298 -0.116163 0)
(1.14973 -0.120304 0)
(1.02346 -0.0126243 1.92276e-21)
(1.02413 -0.0127012 3.42412e-21)
(1.02365 -0.0121417 -3.13635e-21)
(1.0002 -0.00243478 1.5945e-21)
(1.00017 -0.00243926 -1.76918e-21)
(1.00012 -0.00208149 -1.99696e-21)
(1.0018 -0.0147089 2.70519e-21)
(1.00153 -0.0142494 2.71802e-21)
(1.00429 -0.000739364 -1.01402e-22)
(1.0046 -0.000763496 3.95114e-22)
(1.00429 -0.000440922 -4.88256e-23)
(1.10555 -0.00409482 -4.24094e-20)
(1.10768 -0.00416128 -2.5742e-21)
(1.10675 -0.00216098 -1.47278e-20)
(1.00173 -0.00732192 2.74374e-21)
(0.259264 0.0462844 1.29312e-20)
(0.289114 0.0502197 1.06551e-20)
(1.12295 0.00740609 0)
(1.12099 0.0090655 -4.96138e-21)
(1.01297 -0.0333715 -5.04785e-22)
(1.01216 -0.0333606 -2.88835e-22)
(1.01288 -0.0341968 -2.50461e-22)
(0.403834 0.0356531 0)
(0.0459807 0.0318378 0)
(0.0286015 0.0294816 0)
(0.974298 -0.0198749 -1.16937e-21)
(0.974854 -0.021202 8.68612e-21)
(0.97578 -0.0199966 3.98716e-21)
(1.15003 0.0589246 1.97911e-20)
(-0.222798 0.00864992 2.28357e-21)
(-0.256022 0.00669813 0)
(-0.220981 0.00820195 3.51976e-20)
(0.973269 -0.0492925 2.92344e-21)
(0.975543 -0.050047 0)
(0.973508 -0.0185245 -5.73102e-21)
(0.972395 -0.02012 -1.57331e-20)
(1.12493 0.00668733 -1.7541e-20)
(1.12488 0.0091951 -1.40364e-20)
(0.0105876 0.0132487 -2.11669e-21)
(0.00560337 0.0141635 -2.15162e-21)
(0.0282686 0.0181456 -6.41353e-23)
(0.218887 -0.00962582 -3.39415e-21)
(0.155176 -0.00660198 5.76539e-20)
(0.2078 -0.01161 9.05167e-21)
(1.1523 0.00475875 -1.19713e-20)
(1.15537 0.00460099 4.27493e-20)
(1.15327 0.00234524 -2.88347e-20)
(1.00251 -0.000544251 2.97774e-22)
(1.0024 -0.000775247 1.25471e-22)
(0.660918 0.070255 4.01305e-21)
(0.739075 0.0712703 -2.29041e-20)
(1.0011 -0.00837592 0)
(1.15829 0.00450378 2.65636e-20)
(1.15979 0.00173853 -2.90618e-20)
(1.16175 0.00472818 -2.77197e-20)
(-0.22743 0.00876872 2.26822e-21)
(-0.197704 0.0120982 -1.40987e-22)
(1.1549 0.0946914 1.83736e-20)
(1.15489 0.0946904 -8.64527e-20)
(1.18182 0.0938754 -2.84496e-20)
(1.06297 0.00199389 -4.88371e-21)
(1.06236 0.00294164 -8.21571e-21)
(1.18191 -0.195452 -9.63667e-21)
(1.26854 -0.217412 8.24641e-20)
(1.337 -0.187299 -4.91555e-23)
(1.32639 -0.181008 0)
(1.32359 -0.188397 0)
(-0.128694 -0.00253398 -4.22721e-21)
(-0.119928 -0.00184578 -1.04621e-19)
(-0.0907805 -0.00363945 -4.13521e-21)
(1.22536 -0.0294843 3.29825e-20)
(1.22206 -0.0318314 -7.33432e-20)
(1.22631 -0.033422 -3.69502e-20)
(0.784554 -0.105553 9.02288e-22)
(0.784826 -0.0940594 3.63067e-20)
(0.772487 -0.0987786 -1.22916e-20)
(-0.0242376 0.0212467 2.9309e-20)
(-0.013368 0.0222644 -2.91966e-20)
(0.0875211 0.0413052 -1.08691e-20)
(0.108161 0.0448984 -3.00796e-20)
(0.0809803 0.0407905 2.24133e-20)
(1.1672 0.0849031 -6.1253e-21)
(1.10614 0.0843173 -1.69364e-20)
(1.04533 -0.0288289 0)
(1.04463 -0.0300464 0)
(-0.271873 -0.000284793 1.23167e-20)
(-0.248729 -0.0019138 -5.04925e-20)
(-0.2401 -0.00142427 -5.10847e-20)
(0.159944 0.00652956 1.19235e-21)
(0.163026 0.00594307 9.18658e-21)
(0.477376 -0.458742 2.35042e-20)
(0.444681 -0.431858 -8.35409e-20)
(0.445715 -0.479749 -7.07788e-20)
(0.506575 -0.438485 2.43578e-20)
(0.516098 -0.480352 -4.90855e-20)
(0.934829 -0.026068 -9.46093e-21)
(0.936283 -0.0271232 -4.25641e-20)
(1.15641 -0.0029071 8.68555e-21)
(1.15462 -0.00514798 4.80071e-23)
(1.15788 -0.00533822 -1.5336e-21)
(0.945855 -0.121933 -6.72528e-21)
(0.949247 -0.117333 -1.11807e-20)
(0.951928 -0.123171 -1.47279e-20)
(0.248933 0.0150361 2.96745e-21)
(0.22842 0.0106639 0)
(0.791126 -0.153052 0)
(0.789123 -0.139852 0)
(0.775976 -0.149278 -1.5375e-20)
(1.0084 -0.00182025 0)
(1.00836 -0.00216352 -8.86036e-22)
(1.00876 -0.00202893 0)
(1.02019 -5.10924e-05 7.45041e-21)
(1.02009 -4.46886e-05 -4.70791e-22)
(1.0723 -0.0821074 -1.98286e-20)
(1.07536 -0.0827155 -5.62396e-21)
(1.0727 -0.0848797 1.45967e-20)
(-0.160865 -0.00459104 2.82244e-20)
(-0.138429 -0.00322523 0)
(0.243682 -0.573974 2.62867e-20)
(1.02196 -0.0212974 1.54858e-21)
(1.02087 -0.0209763 -2.15635e-21)
(-0.0965573 0.0193935 3.48606e-20)
(0.934798 -0.119123 -3.87018e-21)
(0.940812 -0.120967 7.88847e-21)
(0.938415 -0.114962 3.60992e-21)
(1.10263 -0.0713323 2.73529e-20)
(1.10592 -0.0699937 3.43332e-20)
(1.06524 0.00433286 1.25023e-22)
(1.06411 0.00452631 -2.42081e-21)
(0.0115415 0.0124028 -4.66303e-20)
(-0.00865681 0.0113982 1.46995e-20)
(1.1853 0.0619855 2.43682e-20)
(1.1858 0.0575399 -1.48736e-21)
(1.09266 0.0635882 0)
(1.02458 -0.0800644 1.99997e-21)
(1.02277 -0.0820814 9.67945e-22)
(1.07678 -0.0423023 -7.16156e-21)
(1.076 -0.0441612 5.77728e-22)
(0.493121 0.0413572 8.91199e-21)
(0.497948 0.0407459 1.21757e-20)
(0.471646 0.0387263 -7.94726e-21)
(0.976407 -0.0278622 2.49471e-22)
(0.978003 -0.0276132 -2.04515e-20)
(1.21256 0.0442334 6.21928e-23)
(1.08832 -0.0210621 2.08726e-21)
(1.08988 -0.0192647 3.20683e-23)
(1.12501 0.0044935 3.62498e-21)
(1.12715 0.00644808 6.78025e-21)
(0.93193 -0.12427 -9.81816e-21)
(0.928563 -0.117793 2.93884e-22)
(0.992043 -0.0144925 -6.44083e-21)
(1.0142 -0.033586 2.15009e-22)
(1.01332 -0.0324547 2.11748e-22)
(1.23342 -0.0902559 4.57052e-21)
(1.23429 -0.0952822 0)
(1.23941 -0.0901041 0)
(1.23313 -0.199305 -2.51651e-20)
(1.22933 -0.191874 4.81389e-20)
(1.17611 0.0401672 7.33766e-21)
(1.17363 0.0421115 2.1174e-20)
(1.17334 0.0381709 4.0338e-22)
(1.32209 -0.186395 -3.95098e-20)
(0.484693 0.0409057 2.45112e-21)
(0.515075 0.0432038 -7.02396e-22)
(1.01165 -0.0766578 1.00326e-21)
(1.00944 -0.0777585 -1.76528e-21)
(0.0433682 0.0419582 -1.76846e-20)
(1.14117 0.0760447 -4.72853e-21)