/*--------------------------------*- C++ -*----------------------------------*\
| =========                 |                                                 |
| \\      /  F ield         | OpenFOAM: The Open Source CFD Toolbox           |
|  \\    /   O peration     | Version:  v2012                                 |
|   \\  /    A nd           | Website:  www.openfoam.com                      |
|    \\/     M anipulation  |                                                 |
\*---------------------------------------------------------------------------*/
FoamFile
{
    version     2.0;
    format      ascii;
    class       volVectorField;
    location    "200";
    object      ddt0(U);
}
// * * * * * * * * * * * * * * * * * * * * * * * * * * * * * * * * * * * * * //

dimensions      [0 1 -2 0 0 0 0];


internalField   nonuniform List<vector> 
13917
(
(0.00409224 -0.00584471 1.17703e-17)
(-0.00544878 0.0161001 1.5838e-18)
(-0.00840888 -0.0125449 -1.83407e-18)
(-8.50317e-05 -4.76348e-05 1.03106e-18)
(0.00556928 0.0065577 1.37046e-19)
(-0.00743285 0.0142291 -1.47695e-18)
(-0.000343108 0.000334502 -2.91854e-18)
(0.0290629 0.0365229 2.46184e-18)
(-5.50846e-05 0.000259395 1.62209e-18)
(-0.00839315 0.0245526 1.61019e-17)
(0.0246431 0.0336611 -1.03914e-18)
(1.52961e-05 -0.000130433 1.49631e-18)
(-8.38793e-06 -3.66349e-07 1.17381e-18)
(0.106387 0.0349416 -2.21839e-19)
(-0.00529958 -0.000230144 1.65968e-19)
(0.00379536 -0.00377175 -8.59327e-18)
(1.80441e-05 1.63461e-07 1.14621e-21)
(0.0238999 0.023413 -3.16309e-19)
(0.00385863 -0.00784175 -1.13642e-19)
(-0.0251352 -0.0159449 -8.67398e-18)
(0.00498237 -0.00333851 2.17949e-19)
(0.000237893 -7.04746e-05 6.93731e-21)
(0.000833389 0.000896157 7.57194e-19)
(0.000237852 -1.74208e-05 -3.5335e-21)
(-6.49007e-05 -0.000396607 3.56507e-18)
(0.00758418 -0.00227229 -4.65794e-20)
(-0.145725 -0.0523925 -4.45888e-19)
(-0.00381693 0.0165009 -1.74724e-17)
(0.0166021 0.00555382 5.82744e-19)
(2.77352e-06 9.15554e-05 -1.68059e-20)
(-0.0111254 0.0164645 3.85688e-18)
(-0.000468799 -0.00116673 1.66373e-19)
(-2.38464e-05 -0.000209551 4.86561e-20)
(0.0124902 -0.00739449 -3.23041e-19)
(-0.000210242 0.000235753 2.10992e-19)
(0.0298808 0.0447665 3.52775e-19)
(0.000760961 0.000481902 -6.61963e-19)
(1.21707e-05 1.42274e-06 3.2657e-19)
(-0.000319859 0.000364065 -2.52512e-18)
(-0.00270715 -0.00608131 -5.95616e-19)
(-5.25766e-06 1.11832e-06 -8.32371e-21)
(-0.000625261 -0.000687164 -1.46923e-19)
(-6.22816e-05 0.000193545 -2.80251e-18)
(-0.000881438 -0.00601069 1.74215e-19)
(-0.000221499 -0.00599285 -3.91694e-18)
(0.0251896 0.0419173 1.10994e-19)
(0.00418193 -0.00282475 9.83836e-19)
(-0.0704276 -0.191911 7.66724e-18)
(0.0499251 0.143215 4.43904e-20)
(-0.000164097 0.000310121 -1.01085e-19)
(1.50083e-05 -0.00012311 -7.48888e-19)
(0.0139182 0.015836 -1.85312e-18)
(0.0190032 -0.000134225 4.8998e-18)
(-1.51839e-05 0.00010262 3.07612e-19)
(9.24955e-06 0.000105058 -9.60685e-19)
(0.0148262 0.0138537 4.13909e-18)
(-0.00240835 0.00829755 -1.53865e-19)
(0.000818146 0.00101085 -2.83709e-18)
(-0.000379454 -0.000700945 -8.53722e-20)
(0.0223713 0.0460466 -9.25933e-20)
(0.103765 -0.00287623 -5.45038e-18)
(-0.0113067 0.00149334 8.25246e-20)
(-2.88136e-05 -1.36821e-06 -5.60583e-21)
(-5.72195e-05 -0.000364008 2.11574e-18)
(0.00314103 -0.0295323 -4.4406e-18)
(0.0111212 0.0122338 -1.01094e-19)
(0.0191478 0.00996264 3.86573e-19)
(0.0248819 0.0490302 -1.42079e-18)
(0.0276787 0.0260501 -8.52755e-19)
(0.0168175 -0.00167596 -3.06962e-19)
(0.00150779 -0.02613 4.12025e-18)
(0.0126079 -0.00683663 2.56204e-18)
(-3.33392e-05 6.74209e-05 6.12452e-19)
(-0.000287787 -0.000490213 -7.33633e-20)
(0.00490442 -0.00425975 9.42099e-20)
(0.000205983 -0.000548681 6.89895e-19)
(0.00259712 0.00111629 1.86602e-19)
(-0.000131442 -0.000480067 -1.36939e-19)
(0.000189323 -0.000496527 -8.57605e-19)
(-3.06973e-05 -0.000215556 -1.51586e-18)
(-0.000290403 -9.21232e-05 -3.80385e-19)
(1.38365e-05 -7.12133e-07 -4.26129e-20)
(-2.89644e-05 6.69529e-05 -3.62237e-19)
(0.0060911 -0.0100108 2.30386e-18)
(2.13947e-07 7.22527e-06 -1.36784e-19)
(0.0577566 -0.00228609 2.68073e-19)
(-0.000318717 -0.00101876 -1.46144e-18)
(5.03017e-06 7.85109e-07 -1.21565e-18)
(-0.0018942 -0.006046 5.85246e-19)
(1.98695e-05 1.29681e-06 -7.29663e-20)
(1.54906e-05 9.421e-06 3.36522e-20)
(-5.65688e-05 0.000200334 8.22343e-18)
(0.0210322 0.167719 1.51713e-18)
(-3.57125e-05 -0.000126079 2.15788e-19)
(-4.28348e-05 0.000262458 6.25308e-19)
(0.0194125 0.00622341 -4.52552e-19)
(-0.105755 -0.126395 -6.89871e-19)
(2.42567e-05 -2.06027e-06 -4.22403e-20)
(3.37319e-06 3.0296e-06 5.89696e-19)
(-0.0227699 -0.0547691 2.59878e-19)
(-1.31225e-05 1.05937e-06 -5.00733e-20)
(-1.42558e-05 2.63767e-06 3.85367e-20)
(-0.000319675 -3.45457e-05 2.26961e-19)
(2.44295e-05 -1.15915e-06 -4.13993e-20)
(0.00225582 0.00142852 2.27764e-19)
(0.0144755 0.00126897 7.9397e-18)
(-0.00333069 -0.0593434 1.8265e-18)
(-0.0123752 -0.00196726 5.97853e-19)
(-0.000810692 -0.000985682 7.50238e-20)
(-0.145598 -0.0403698 2.38265e-19)
(-1.59824e-06 5.37082e-06 1.13827e-19)
(0.0114098 -0.00900521 3.02453e-18)
(0.0164279 0.00244301 -3.22982e-19)
(-0.0469928 -0.196977 -1.10605e-17)
(0.00242203 -0.0284311 2.54782e-18)
(0.000414924 -0.000622958 6.6257e-19)
(0.00359834 -0.00686743 1.30611e-18)
(9.11102e-06 -5.03447e-07 -1.33692e-19)
(-0.00513675 -0.0124658 -4.6436e-18)
(-1.5765e-05 5.64723e-05 1.05157e-18)
(1.46503e-05 -5.65755e-07 -6.04596e-20)
(-0.000138379 -0.000163493 2.1069e-20)
(0.0222031 0.011238 8.96217e-19)
(0.00918789 -0.000125525 -2.17986e-18)
(0.0186954 0.000113576 2.52318e-18)
(0.00511963 -0.00978518 2.35411e-18)
(-7.15095e-05 -0.0003075 3.07904e-19)
(0.00566856 -0.00502276 -3.63167e-19)
(9.53188e-05 -0.000118279 -1.08716e-19)
(0.00900133 -0.000875323 5.85704e-18)
(-3.75533e-05 0.000423135 -5.15088e-18)
(-0.0406815 0.0468111 3.64225e-19)
(0.00773693 0.00494132 -3.31302e-18)
(0.000486913 -0.000570301 1.1166e-18)
(-0.00084671 -0.00223154 3.79255e-19)
(-0.155987 -0.0643195 -5.87019e-20)
(0.106556 0.0243119 1.87185e-18)
(0.0133507 0.0010797 3.77572e-19)
(0.00965718 -0.00150302 3.14383e-20)
(7.68329e-06 -2.92757e-07 -3.26864e-19)
(0.0763892 0.0590052 -1.26722e-18)
(-0.000105399 -0.000341026 -5.71483e-21)
(0.0140158 0.000958965 -8.35098e-18)
(5.49306e-05 -4.45577e-05 1.35763e-19)
(-3.07091e-05 4.84919e-05 -1.66379e-19)
(-0.000244726 -0.00446915 -1.1785e-19)
(0.00165883 -0.0242696 -1.9238e-19)
(-0.00499713 -0.24322 -4.84453e-18)
(-0.0863701 -0.152617 4.38463e-18)
(-8.7208e-06 0.000110521 -4.92934e-19)
(-0.000942082 -0.00505735 -1.56194e-20)
(-2.34498e-05 4.37336e-06 3.44299e-21)
(-2.95342e-05 5.22887e-05 2.55112e-20)
(-1.46545e-05 4.98804e-05 -1.11675e-18)
(-0.135318 -0.133235 1.92869e-18)
(-6.1268e-05 0.000822234 1.66476e-19)
(2.67624e-05 -1.02232e-06 4.79863e-20)
(0.00748317 0.00506022 -2.83874e-18)
(1.9717e-06 1.75601e-06 -1.26197e-19)
(7.45859e-06 -7.37122e-07 5.17254e-20)
(5.50402e-06 -3.9703e-05 -6.33955e-19)
(0.0207984 -0.051343 4.60267e-18)
(0.000851703 0.00225568 -2.29356e-20)
(0.0688475 0.0728069 9.96754e-19)
(0.079054 -0.0429682 8.9374e-18)
(-0.0325026 -0.0776883 5.47521e-19)
(0.0124265 -0.000296513 3.57389e-18)
(0.0919349 -0.0419747 -1.11235e-17)
(-3.191e-05 1.53119e-05 -3.28428e-22)
(0.0112106 -0.00183699 5.83906e-21)
(0.000305918 6.85868e-05 2.45902e-20)
(0.00829463 0.0026644 4.2959e-19)
(-4.58147e-05 0.000240865 2.95197e-18)
(0.0941329 0.00860075 -2.36697e-18)
(-0.00265238 0.010887 9.69931e-19)
(-1.57591e-05 -8.13491e-07 -1.20231e-19)
(-9.10909e-05 -2.56858e-05 -9.51761e-19)
(0.0157389 0.0207317 -1.29895e-18)
(-3.9879e-05 0.000424398 -9.23769e-18)
(0.00105547 0.002624 3.92729e-20)
(-8.33332e-05 0.000204536 -2.9641e-18)
(0.000248619 6.4203e-05 3.68119e-20)
(2.0713e-05 -0.000114829 -1.95179e-19)
(0.0326092 0.00437532 3.50562e-19)
(-0.00449742 -0.0139288 6.07358e-18)
(-0.0497376 0.0465522 -4.23061e-18)
(2.10738e-05 -0.000105465 4.82411e-19)
(0.0331902 0.00767622 -4.72902e-18)
(3.39016e-05 5.95683e-05 3.52386e-20)
(0.0532204 -0.000405745 -1.89983e-19)
(-0.00400965 0.0112787 -1.70242e-18)
(2.72642e-05 -0.00519085 2.96332e-18)
(0.0220168 0.00171502 -2.29776e-18)
(-0.000584973 -0.00800799 4.91421e-18)
(-6.09731e-05 -7.95275e-05 -5.47521e-19)
(0.0189407 -5.60114e-05 2.2272e-18)
(-0.000574249 -0.00065609 -3.35739e-18)
(0.00812011 0.00483304 2.2882e-18)
(-0.000189052 0.000161352 -1.55538e-19)
(2.61262e-07 0.000647663 -3.66029e-19)
(0.00300975 -0.0021394 1.11576e-19)
(0.0154227 -0.00211249 7.45008e-19)
(0.0140637 0.00069683 7.05871e-18)
(0.000236701 0.000815527 6.85198e-21)
(-0.115801 0.00623771 -3.37361e-19)
(0.00662626 0.00708124 1.11933e-20)
(-0.00156894 -0.00515444 3.64144e-19)
(-0.00019551 -0.000236074 -3.33989e-19)
(0.0160804 0.0173141 -3.13218e-19)
(-0.000289667 -0.000181934 1.51256e-19)
(5.87414e-05 -1.44646e-05 2.23293e-20)
(0.00799574 0.0139333 4.11852e-21)
(0.0105999 0.0150458 4.98076e-19)
(-0.0664989 -0.160053 -8.36433e-18)
(-0.000783487 -0.00196445 -5.85243e-18)
(0.00871467 -0.00282105 4.61292e-20)
(0.00704099 -0.043122 -2.89803e-18)
(2.40999e-05 4.85477e-07 9.68673e-20)
(3.07711e-05 8.22343e-05 -7.95932e-20)
(2.53949e-05 8.48017e-05 4.4587e-19)
(0.0850169 -0.0545129 -1.33852e-17)
(0.0267715 0.00361395 -3.05668e-18)
(0.0420439 0.0137322 -5.35013e-19)
(-1.43194e-05 -2.88017e-06 5.15122e-19)
(-2.53497e-05 -6.12393e-07 9.92964e-21)
(-0.148252 -0.0539206 3.8518e-19)
(0.0190528 -0.000106604 4.62066e-18)
(2.91909e-05 6.39433e-05 -2.16372e-19)
(2.6832e-05 6.17234e-05 9.64441e-21)
(-2.90229e-06 1.70222e-06 1.78252e-20)
(2.12573e-05 9.39281e-05 7.51592e-20)
(1.5226e-05 9.03997e-05 -3.49458e-19)
(0.0121108 -0.00651041 -2.80734e-18)
(0.0211381 -0.123047 -1.30952e-17)
(4.02496e-05 -0.00033798 1.04869e-19)
(-3.11393e-05 1.58677e-05 -3.36276e-21)
(0.00476621 0.00751781 3.79996e-18)
(0.0161115 -0.00328299 -3.72223e-18)
(1.67703e-06 -4.34707e-07 1.32248e-19)
(-1.50048e-05 -6.28462e-06 -8.10738e-20)
(-0.126041 -0.00450609 -4.00008e-19)
(0.01503 0.000765627 2.07522e-18)
(0.0287228 0.00327897 2.54193e-18)
(0.0060245 -0.0414245 -1.30597e-18)
(-0.0018546 0.0209801 -6.61764e-19)
(5.0044e-05 -5.67109e-05 -8.13481e-20)
(0.0959126 -0.0425213 6.52589e-18)
(0.00589963 0.00726845 -3.53814e-19)
(0.0142041 0.00228488 2.10167e-19)
(0.00287772 -0.00199758 2.03094e-18)
(0.000205827 0.000688229 -5.95857e-19)
(-0.0149067 -0.136541 1.92057e-17)
(-1.71184e-05 6.68277e-05 4.69555e-18)
(-0.00493311 0.000150229 -1.9554e-18)
(-0.00279202 0.00876257 1.92482e-18)
(0.000108341 -0.000405315 6.21826e-20)
(-1.98052e-06 -4.74086e-07 -1.31777e-20)
(-7.96333e-05 -0.000333017 -2.63346e-18)
(-0.0016894 0.00627987 6.59885e-19)
(2.3739e-05 -0.000490002 -6.10815e-21)
(0.0177017 0.000378179 -2.52999e-18)
(0.130489 0.0887675 -9.57335e-19)
(-0.000136074 0.000203646 -1.30158e-19)
(3.10244e-05 5.26378e-05 -5.33649e-22)
(5.31346e-05 0.000949401 -2.09636e-19)
(3.2601e-05 4.55724e-05 8.69423e-21)
(-1.75627e-05 6.0953e-05 -2.37163e-18)
(-1.14898e-05 -1.9153e-06 -1.02405e-18)
(-0.000829594 0.00150287 -3.6643e-19)
(-0.000212146 0.000244177 -7.3468e-20)
(0.0103231 0.00168429 -3.21637e-19)
(0.00300878 -0.0612072 -2.74663e-18)
(1.72492e-05 -3.18302e-05 -2.21014e-18)
(0.000243238 0.00379993 2.30525e-19)
(0.0244448 0.0579714 -3.68626e-21)
(2.59091e-05 -4.49017e-05 -1.05011e-19)
(-0.0145203 -0.0419054 4.30141e-19)
(0.0167564 0.000689597 -7.03047e-19)
(2.23647e-05 -5.05529e-05 1.44181e-19)
(0.0168742 -0.00215574 3.59151e-18)
(8.99743e-05 -0.000420896 -1.58494e-20)
(0.0240161 -0.0477264 -7.04877e-18)
(-1.36304e-05 -5.68195e-07 1.98024e-20)
(-0.00345979 -0.00110367 -5.64143e-19)
(0.000118858 -0.000447814 -8.44432e-22)
(5.34814e-05 2.51072e-05 -7.22565e-20)
(0.0127576 -0.0121033 1.16933e-18)
(2.66855e-05 -3.6202e-06 4.27087e-20)
(-0.051306 -0.0897494 -6.70872e-19)
(-0.000980834 -0.00141382 -1.53014e-19)
(0.103337 0.118495 -2.496e-19)
(-0.000962564 -0.00528591 2.37257e-20)
(-0.0908698 -0.000680998 -1.14527e-18)
(0.0114703 0.00110023 7.10476e-19)
(3.55413e-06 -1.30154e-06 -2.45853e-19)
(0.00151136 0.00242801 -3.85005e-20)
(0.000983732 0.00698566 -1.49704e-19)
(0.000657883 -0.0005911 1.98637e-20)
(0.00399081 0.00649002 2.07233e-19)
(0.00012143 -0.000496455 2.00943e-18)
(-1.01009e-05 -0.000225793 -1.36285e-19)
(3.21692e-05 -2.84458e-06 -2.01272e-20)
(0.0116717 0.0252534 4.16146e-19)
(0.0218089 -0.0159945 -1.67359e-19)
(-0.00460465 -7.09962e-05 -5.83919e-19)
(0.00011134 -0.00045742 3.6775e-18)
(-1.2907e-05 -1.24844e-05 4.3899e-19)
(0.0077134 0.00510106 1.87242e-18)
(0.0142009 -0.00187698 2.32166e-18)
(0.000105326 -1.45505e-05 -8.25369e-20)
(0.00517973 -0.00175831 5.47326e-20)
(0.000574726 -0.000665724 1.28892e-18)
(0.031228 0.0529881 -4.46628e-19)
(-0.00515259 -0.00213886 -9.6467e-19)
(-0.00136612 -0.0465217 6.85941e-18)
(0.0885156 0.00815005 6.8598e-19)
(0.00390392 0.0138292 3.18969e-20)
(-0.0349118 0.039013 6.17889e-19)
(-0.000349546 0.00332662 9.52309e-20)
(0.00537564 -0.0121712 -1.69911e-18)
(0.0414629 0.051533 4.41171e-19)
(-0.00831671 -0.0110949 4.01773e-18)
(-1.31488e-05 -4.07311e-07 1.01992e-19)
(-0.00479993 -0.000897332 -1.91641e-19)
(-0.133029 -0.0360495 -2.01312e-19)
(0.000378917 0.000338222 -6.61309e-20)
(-0.0054483 0.0186569 -3.55573e-20)
(0.000605032 -0.00506153 1.52192e-20)
(9.81022e-06 1.95614e-06 -7.6675e-20)
(0.00818519 0.00210947 -2.63557e-18)
(1.22356e-06 6.29377e-06 -4.79465e-19)
(-0.000153368 0.000420646 -1.61719e-18)
(-7.76953e-05 0.000207035 1.0766e-19)
(-0.0404321 -0.01161 -1.41639e-18)
(3.52079e-05 -3.06144e-05 -1.37447e-19)
(-0.00374967 4.54582e-05 2.12341e-19)
(0.0077794 0.00663935 -3.22361e-20)
(0.000174886 0.0114934 -4.11729e-20)
(1.39115e-05 4.33269e-06 1.732e-19)
(0.00203579 -0.00232178 6.87911e-18)
(0.0118344 0.00138793 2.91017e-18)
(2.63382e-06 0.000214793 -4.72598e-19)
(0.000316409 0.000434326 -1.26347e-19)
(0.0112836 -0.0100126 -5.6747e-19)
(0.0127059 0.00129746 5.00625e-19)
(0.0461954 -0.00909458 1.27743e-18)
(0.115177 0.062311 6.02823e-19)
(1.66884e-05 -4.57015e-05 -1.93742e-19)
(-6.2468e-05 -0.000235166 -1.90036e-19)
(0.0159448 0.000826908 -2.27002e-18)
(-0.0286098 0.0402759 2.48456e-19)
(1.23159e-05 -4.3772e-05 -1.03845e-19)
(0.00245634 0.0078095 -2.67685e-19)
(3.85483e-05 -9.05851e-07 1.65876e-18)
(0.00998728 -0.0154284 1.32587e-19)
(-0.004059 0.000279684 -1.19663e-19)
(0.0152795 0.00275462 1.45947e-18)
(-0.0175065 0.0182613 3.77887e-20)
(-0.00955192 -0.0420997 -4.56961e-19)
(-0.000137754 0.00034625 -2.06229e-18)
(0.00529734 -0.0116173 -1.20958e-18)
(9.21183e-05 -0.00013867 1.36584e-19)
(2.57651e-05 0.000200968 2.03988e-19)
(0.00686837 0.0075624 -5.17672e-20)
(0.00729235 -0.0180843 1.48471e-17)
(1.59645e-06 4.39558e-07 1.0626e-19)
(-1.6498e-05 -0.00557834 1.36348e-18)
(-0.000121125 0.000357316 1.46785e-18)
(-0.0122823 0.0357556 6.6245e-19)
(8.00677e-06 0.000117857 -2.41938e-19)
(-0.02328 0.0309776 6.26451e-19)
(0.00417228 -0.00295079 2.77415e-20)
(-0.0230424 0.153074 -2.33777e-19)
(0.000393184 -0.00105286 -9.87343e-20)
(0.0405109 0.00860446 2.54024e-18)
(0.0264134 0.0524332 -7.84088e-19)
(0.00949297 0.0073957 -3.52951e-19)
(1.84891e-05 -3.01513e-05 1.17639e-18)
(0.00474649 -0.0358764 -4.2436e-18)
(-0.000267729 0.00022154 2.21782e-20)
(0.0841093 -0.0374843 -7.58721e-18)
(0.0248019 0.000971157 -1.19804e-18)
(0.000700869 -0.000981434 -1.11956e-19)
(0.00266283 0.149895 -1.19499e-18)
(0.000335173 -0.000645419 2.46433e-20)
(-0.034185 -0.0232664 -7.55621e-20)
(5.09286e-05 -5.86079e-05 2.06322e-19)
(-0.0230319 -0.0223942 -4.05705e-18)
(-0.0317909 -0.0342244 -2.04924e-19)
(0.000575384 6.04156e-05 4.20615e-19)
(-0.124158 -0.0161415 7.72309e-20)
(-0.00353008 -0.0339463 3.64561e-19)
(8.21915e-05 0.000562439 8.76792e-20)
(0.054462 -0.0336653 5.14564e-18)
(-0.00840977 0.00189644 -6.63269e-18)
(0.000405644 -4.64654e-05 4.26259e-19)
(0.0146964 -0.0122803 9.4004e-19)
(-8.53295e-05 -0.000120151 6.43267e-21)
(0.000805381 -0.0372845 -5.62966e-19)
(-0.00661272 -0.0130383 2.59939e-18)
(1.22425e-06 5.72587e-06 5.31142e-19)
(-0.000177878 0.000345081 -4.22979e-19)
(6.26184e-05 -0.000450387 4.53267e-19)
(5.07278e-05 -3.11374e-06 2.77511e-19)
(2.5801e-05 2.39065e-05 -9.3026e-20)
(6.66346e-05 -0.000165387 -1.29605e-19)
(0.108328 0.0257991 8.319e-19)
(-0.0414255 -0.0661877 -4.1734e-19)
(1.36536e-05 0.000151942 6.04071e-19)
(0.000112807 -0.000188021 -2.84598e-19)
(0.00017158 -1.93744e-05 -5.15615e-20)
(0.000200848 0.00367191 -1.35154e-18)
(0.00497747 0.0717964 1.12444e-18)
(3.76887e-05 7.93657e-05 -1.14745e-19)
(-3.07944e-05 1.05935e-05 5.45856e-21)
(-0.00478255 -0.00241422 -3.47069e-18)
(-0.0265532 0.0271514 -9.06128e-19)
(5.77939e-05 1.56395e-05 -1.17583e-19)
(0.000506249 5.12748e-05 -1.18037e-18)
(0.0730889 0.0227732 1.16387e-18)
(-0.144274 -0.16392 4.12572e-18)
(0.0139884 0.0156526 9.42775e-20)
(0.0031008 -0.0086103 1.1351e-18)
(0.00496735 -0.012641 -5.02658e-18)
(-0.000106839 0.000198167 -1.68258e-19)
(3.82939e-05 3.52436e-05 2.14546e-19)
(0.00453472 -0.000833205 1.73721e-19)
(2.42857e-05 2.05933e-05 1.24617e-19)
(4.61909e-05 5.69434e-05 -2.47631e-19)
(4.02567e-05 -0.000379229 -1.5923e-19)
(4.34281e-05 1.38989e-05 2.32555e-19)
(-9.61526e-05 0.000166313 9.9933e-20)
(0.0949985 -0.0604316 1.74359e-17)
(-0.000105059 -9.58931e-05 -4.39669e-19)
(-0.00455973 -0.00542323 -2.37188e-19)
(0.0101973 0.00198387 4.13125e-18)
(0.00125112 0.00259048 1.70669e-18)
(5.95453e-05 -2.75122e-05 4.40773e-20)
(-2.87891e-05 4.50684e-05 4.06231e-19)
(0.048764 -0.0375145 -1.54845e-17)
(0.00351851 -0.00180549 1.28677e-19)
(0.0185858 6.33427e-05 -3.21214e-18)
(-1.71599e-05 0.000176674 -3.69591e-20)
(-4.08474e-06 -4.9922e-05 1.08755e-19)
(-0.000308066 0.000307146 -1.27862e-19)
(8.64028e-06 9.46572e-05 1.7714e-19)
(0.000638521 0.000530142 5.25627e-19)
(0.000569011 -0.000680616 1.89447e-20)
(0.0737178 0.031032 7.64429e-20)
(0.00664223 -0.000681359 -1.34387e-19)
(0.0156118 0.000991378 -6.98316e-19)
(1.56386e-06 -4.99988e-05 1.07875e-18)
(5.72285e-05 0.000553698 -3.26168e-18)
(0.00767637 -0.00379201 4.2329e-20)
(-0.000233556 -0.000217544 -8.71521e-20)
(0.000130351 0.0191937 3.346e-19)
(0.0499826 -0.0042701 -2.60254e-18)
(3.42674e-05 -9.02563e-06 -2.63304e-18)
(-0.166061 -0.174138 -1.52138e-18)
(5.74979e-05 -5.59629e-05 5.85951e-20)
(2.1299e-05 5.05062e-06 2.01684e-20)
(0.000143824 1.34675e-05 1.78335e-20)
(0.00022502 -0.000684092 8.30399e-20)
(5.44538e-05 1.0261e-05 3.41022e-20)
(1.32977e-05 -4.65715e-06 7.47613e-19)
(0.0076317 0.00503428 4.06487e-18)
(0.0970029 -0.00210573 1.24151e-18)
(5.21058e-05 1.97327e-05 -7.51847e-20)
(-0.0823162 0.0188478 8.67594e-19)
(-0.00444794 -0.00328352 6.84969e-18)
(-1.40353e-05 1.56952e-06 -2.90824e-18)
(0.00205957 0.00324447 -3.05482e-18)
(-0.00158776 0.000788067 -7.61148e-18)
(0.0578423 -0.0475743 2.97395e-18)
(-0.000150241 0.000382278 5.02768e-18)
(0.0140808 0.00147119 -2.79084e-19)
(-0.0431584 0.0202468 -3.30806e-19)
(-0.0452339 0.0295768 1.20622e-19)
(0.000447472 -0.000766728 -7.14661e-20)
(0.00712727 0.0114399 6.21949e-20)
(0.00965491 -0.00536675 1.07123e-19)
(9.67489e-05 0.000660063 -3.59436e-19)
(0.0293389 -0.00752989 4.86899e-19)
(1.87922e-05 8.20687e-06 1.23294e-20)
(-8.13258e-06 9.19996e-05 5.68482e-19)
(-5.5127e-06 0.000254548 -7.37534e-19)
(-0.000121088 0.00031541 1.14575e-18)
(0.0026217 -0.00424333 2.25907e-19)
(-0.00185579 -0.0133698 7.3574e-18)
(0.00116285 -1.73158e-05 4.82182e-18)
(-0.00374954 -0.00141993 -1.53353e-19)
(0.000202745 0.00477303 -4.68725e-19)
(0.0254289 0.0175696 -1.44307e-19)
(-0.0110657 -0.00589701 1.07833e-18)
(6.21449e-06 0.000153593 2.36201e-19)
(0.086864 0.0212598 -2.72553e-19)
(-0.000250748 0.00122473 -2.65052e-18)
(-0.00103394 -0.00123393 4.99018e-19)
(0.0828497 -0.0269401 4.47606e-19)
(6.28481e-07 8.73487e-06 -6.6575e-19)
(-0.0125926 -0.00607538 -1.00405e-20)
(0.0187912 0.0228249 6.95477e-19)
(2.03965e-05 -1.16372e-05 -1.25944e-19)
(0.0072897 0.00472324 -3.296e-18)
(2.02494e-05 7.05649e-06 5.38223e-19)
(4.54245e-06 8.40539e-05 7.02702e-20)
(0.000685448 0.0036881 6.23136e-19)
(1.01081e-05 0.00016774 -2.13638e-20)
(2.55716e-05 1.99812e-06 -1.30757e-19)
(0.00839261 0.0254951 3.28897e-19)
(0.00769016 0.00486152 -1.32086e-18)
(-0.101985 -0.0181491 2.66959e-19)
(5.58135e-06 -3.27873e-05 8.50726e-19)
(-9.8707e-05 8.81172e-05 1.82452e-18)
(-0.00275001 0.0016289 -3.50491e-20)
(0.0383077 0.0119548 -7.66923e-19)
(0.0496159 0.0816027 1.4686e-18)
(-1.23869e-05 0.000135931 -9.21303e-19)
(3.32126e-06 0.000102599 1.34917e-18)
(7.074e-06 -3.31006e-05 -1.47412e-18)
(-0.00194007 0.0069138 1.16807e-18)
(0.0159078 0.156378 8.25614e-19)
(0.000150678 -5.8749e-05 2.37063e-20)
(1.39595e-06 8.28983e-08 -1.21216e-19)
(-7.32196e-05 0.000557911 9.5413e-20)
(4.69982e-05 -6.34273e-06 5.00171e-19)
(0.00584073 -0.00105467 1.99196e-19)
(-0.0010396 -2.5176e-05 7.84195e-20)
(1.33025e-05 7.68011e-06 1.77308e-20)
(0.00136597 5.53136e-05 -7.49829e-18)
(1.92353e-05 -1.33311e-05 6.73902e-20)
(0.000166512 -0.000103038 8.71062e-20)
(5.1408e-05 -0.000418599 -2.06879e-18)
(-0.00161823 -0.0319638 -5.78369e-18)
(1.66154e-05 -2.34927e-06 -1.87314e-19)
(-0.000172975 0.000177323 4.50927e-19)
(-8.91663e-05 -0.000437452 -2.26056e-19)
(2.17633e-05 0.000554265 -1.10082e-18)
(0.00419113 0.00314664 -9.74646e-19)
(0.019744 -0.0105736 1.32009e-19)
(-0.00223459 0.00966789 -1.32452e-18)
(-0.0340204 -0.0570003 -1.15639e-19)
(0.000133673 -0.000342962 -1.52982e-19)
(0.0214965 0.0159046 -1.62856e-19)
(0.00830926 0.00467762 -8.13887e-18)
(0.089472 -0.0722751 8.21968e-19)
(0.00907477 0.00256489 3.03715e-18)
(7.59175e-05 7.96525e-05 -6.86999e-20)
(0.000119329 7.68426e-05 -1.34783e-20)
(-0.00472372 -0.00191747 5.24316e-19)
(4.56942e-06 -6.83545e-05 5.47855e-19)
(0.00256846 -0.0243347 7.62221e-18)
(3.34136e-05 -4.55388e-05 3.30178e-20)
(0.0650706 0.0920614 -1.12681e-18)
(-0.000585448 -0.000560421 1.84048e-18)
(0.00720001 0.00112438 -2.07373e-18)
(-0.021021 -0.0470253 -1.60707e-19)
(-7.78137e-05 0.000206459 2.37902e-18)
(-0.0161975 -0.018045 -2.94927e-18)
(5.08936e-05 3.39974e-05 -8.01905e-20)
(-0.0010855 0.000279805 4.51799e-19)
(2.90042e-05 -1.5744e-06 3.90167e-20)
(0.00166097 -0.000498707 -1.55407e-19)
(0.00696902 0.00120991 -5.17787e-19)
(2.02853e-05 0.000128841 1.68344e-20)
(-0.00936114 -0.00403155 5.79999e-18)
(-2.71565e-05 1.66669e-07 2.74513e-20)
(-1.41925e-05 -1.01781e-07 2.98893e-18)
(0.000139933 6.12767e-05 4.87704e-21)
(-0.00171134 -0.0123567 -1.02297e-17)
(0.00655819 -6.99835e-05 3.86176e-20)
(3.31272e-05 1.94005e-05 4.24481e-19)
(-0.00187878 -0.00529606 -2.73983e-19)
(0.0016044 0.00341832 2.71987e-18)
(-0.00504261 -0.0579234 8.20261e-18)
(0.00174353 -0.0236654 -1.79527e-18)
(0.00823445 0.00490126 1.4346e-19)
(0.0645482 -0.0478606 -3.87563e-18)
(1.52921e-05 -2.72296e-07 2.3364e-19)
(0.0188074 -0.000668097 -1.05227e-18)
(-3.72326e-05 6.77714e-07 3.54794e-20)
(0.105026 0.0148101 -2.76557e-18)
(-0.00456524 -0.232712 4.55376e-18)
(0.00232103 -0.000545751 -2.53612e-19)
(0.00213377 -0.00547028 -6.00523e-20)
(-1.61919e-05 1.79143e-06 5.88227e-20)
(-0.000356313 0.00117163 -8.72738e-18)
(-7.63394e-05 0.000195293 -1.62447e-18)
(3.8089e-05 0.000109849 -3.36996e-19)
(2.46827e-05 -2.21744e-06 1.06642e-19)
(-1.51959e-06 -1.9995e-06 1.41465e-18)
(0.00189538 -0.024062 8.59758e-19)
(2.90794e-06 -5.19248e-06 -4.28915e-19)
(-0.000358608 -0.000661802 -6.85593e-18)
(-1.20043e-05 8.48734e-05 4.68737e-20)
(3.17412e-05 2.53514e-05 -2.89286e-19)
(2.86377e-06 1.65196e-06 -1.22732e-19)
(0.0223074 0.0369536 -3.49192e-19)
(0.0190686 -0.0362424 -3.59717e-18)
(-0.0356495 -0.0242484 3.48703e-18)
(0.00267943 -0.00157532 -5.59295e-18)
(-0.000955671 4.20991e-05 -2.14321e-18)
(0.0224917 -0.0293925 -2.18259e-18)
(0.0164502 -0.00307033 9.51544e-19)
(5.57916e-05 -6.33104e-05 5.27469e-20)
(0.0362927 -0.0059198 4.42443e-18)
(-3.70197e-06 -5.9041e-07 -2.62659e-19)
(-0.00326973 0.00106505 -1.48582e-18)
(6.81231e-06 -6.17028e-05 4.17614e-19)
(0.00473351 -0.0341137 -6.64205e-18)
(4.58181e-05 4.57332e-06 -5.40682e-19)
(0.00588396 -0.00259459 -5.98241e-19)
(-3.07724e-05 5.40751e-05 1.76611e-18)
(-0.019079 -0.106888 -6.98972e-18)
(-0.000530788 0.00145986 -8.55914e-19)
(0.00417568 -0.0345462 -6.23349e-18)
(2.65342e-05 -5.62937e-07 1.37325e-19)
(-0.000848103 0.00131536 1.08443e-18)
(0.000129029 0.000286547 5.57394e-20)
(-1.44387e-05 1.10075e-06 2.86663e-20)
(0.00414593 -0.0141431 -6.57884e-21)
(-0.00678795 -0.0798015 -2.82471e-19)
(5.66426e-05 0.000477447 -1.63175e-20)
(0.0173269 0.00231653 -4.66934e-19)
(-1.40349e-05 -1.14693e-05 -6.31044e-19)
(0.00119288 0.000482248 -2.91228e-19)
(-2.19327e-05 2.42023e-06 4.25768e-21)
(0.00527423 -0.0157026 -2.84307e-18)
(8.91309e-07 9.13226e-07 -4.05369e-19)
(-0.000750643 0.00743463 -4.93057e-20)
(3.81889e-05 -3.18176e-05 -1.90618e-19)
(5.97658e-05 0.000394473 7.88042e-20)
(0.00845725 -0.0174737 -5.8828e-18)
(-1.99344e-05 3.8788e-06 -6.69904e-20)
(0.0134528 -0.00165662 -1.82566e-18)
(1.51307e-05 1.45995e-06 2.10171e-19)
(2.93688e-05 -2.9633e-05 1.64708e-19)
(0.106929 0.0041389 2.75025e-18)
(-0.000473082 -0.000748963 4.52399e-18)
(-2.02109e-05 0.00012499 8.05235e-19)
(0.0131899 0.000366849 -3.27734e-18)
(-0.00907435 -0.00375967 -7.36393e-18)
(-0.0274146 0.0627975 -1.51299e-19)
(0.0183168 0.0255726 -1.05907e-18)
(4.77907e-05 4.10335e-05 2.24434e-21)
(-0.00649173 -0.0003191 4.46263e-19)
(-0.00449536 -0.0304676 6.06444e-19)
(-0.00754017 8.14724e-06 1.80237e-18)
(0.00383651 -0.00070576 1.47729e-20)
(0.000772655 0.000325769 1.5921e-19)
(0.00661245 -0.00331189 1.59947e-18)
(1.66214e-05 2.50746e-06 -1.50865e-19)
(-2.78707e-06 -8.66671e-05 4.52472e-20)
(0.00593718 0.0173242 1.12197e-19)
(0.00527144 0.00384792 3.10315e-18)
(-0.000199544 -0.000809618 4.91693e-19)
(0.0887617 -0.0263824 6.79835e-18)
(-0.000360303 0.00151097 9.49297e-20)
(0.0115082 0.0852107 -5.96996e-18)
(0.0599923 0.0786939 -5.53419e-18)
(0.0196452 -0.0193973 2.08947e-19)
(-0.00267745 0.000667645 1.23628e-18)
(0.0203011 -0.000522406 -1.91411e-19)
(0.0162975 -0.00278153 -1.41611e-18)
(-5.29563e-05 -0.000183053 3.5303e-20)
(-0.00161302 -0.0146564 6.89432e-19)
(0.00266032 0.021035 -6.91454e-21)
(2.69475e-05 -2.6755e-05 -1.99459e-19)
(1.63794e-05 -1.10244e-06 3.92027e-20)
(-2.74182e-07 3.52993e-06 3.81777e-19)
(-0.00380495 0.0020491 -3.68966e-19)
(2.5649e-05 -5.98556e-06 1.19244e-19)
(0.0188085 -0.000844501 -3.35392e-18)
(-5.04094e-05 0.000389007 -9.23654e-19)
(2.58969e-05 7.93214e-06 -3.09578e-20)
(0.000720956 -0.00439239 -1.51835e-18)
(2.65955e-05 -1.41332e-06 1.20536e-20)
(0.00213727 -0.0471627 7.39328e-18)
(0.000192728 -0.000412747 -5.17986e-20)
(0.000111744 -9.43647e-05 -4.079e-20)
(0.00687218 0.00489961 -1.08321e-18)
(0.00338552 0.00217479 5.08094e-18)
(-0.0178396 0.0885009 -1.21016e-18)
(-4.4329e-05 4.16673e-05 1.42502e-19)
(1.14135e-05 -0.00084909 7.54103e-20)
(0.000113883 7.71953e-05 -1.20011e-19)
(-7.29966e-05 6.98761e-05 6.66623e-20)
(-0.00036217 0.000482881 4.10502e-18)
(4.10185e-05 6.4286e-05 2.46066e-19)
(0.0168183 0.000563475 -1.27676e-18)
(-0.00157693 -0.00167757 -1.31666e-18)
(0.063704 0.0476466 -1.67753e-19)
(-0.0252086 0.0535011 -1.22905e-19)
(0.000139591 -0.0145488 -2.86501e-19)
(0.00863443 0.00461161 -6.89203e-18)
(-0.000104783 7.57338e-05 -9.78036e-19)
(2.38013e-05 1.58365e-06 1.19704e-19)
(0.000141468 0.000345855 1.4386e-19)
(0.0164486 0.00063668 1.00346e-18)
(-0.105062 -0.00195953 2.77203e-19)
(-0.000647578 -0.000721585 -2.04698e-18)
(0.0183093 0.000221903 -6.34694e-18)
(-0.0163994 0.242013 1.42435e-18)
(3.32718e-05 -3.35023e-05 1.46554e-19)
(0.000114172 -3.77314e-05 1.15508e-19)
(0.000594394 0.00069505 1.08221e-19)
(0.0132306 0.00148438 -2.27184e-18)
(-0.0364425 0.106541 5.66407e-19)
(-0.00066153 0.00159545 2.01154e-18)
(-7.01995e-05 6.18226e-05 -4.99388e-19)
(-0.000186942 0.000170568 -2.62054e-18)
(-0.00343024 0.00132907 1.1561e-18)
(-0.000127644 0.00265487 -2.60784e-19)
(0.0141188 0.00110526 -2.21524e-19)
(-4.93862e-05 0.000388869 -3.4126e-18)
(-6.39024e-05 0.000232373 -7.35115e-19)
(-2.16033e-05 -0.000226315 2.21528e-18)
(2.1003e-05 2.41987e-06 7.56782e-20)
(-0.000385584 0.00045349 -4.71351e-18)
(-0.00106771 0.00496818 1.30873e-19)
(-0.00790215 0.00163275 -3.15289e-18)
(0.000888661 -0.000571095 2.13246e-19)
(0.00180545 0.00422025 4.139e-19)
(0.0175182 0.000447102 -9.37781e-19)
(0.000932581 0.000650812 1.54692e-20)
(0.0242573 0.181734 -1.8139e-18)
(0.000650288 0.000248877 -1.27738e-19)
(-0.00306198 0.00956999 -1.76329e-20)
(-0.000583747 -0.00025986 -1.16204e-19)
(-0.00782537 -0.000211614 -2.38997e-18)
(1.69856e-05 -8.26141e-07 3.72706e-19)
(-0.000866601 0.000379388 -3.50364e-19)
(0.0169676 -0.0359958 2.2246e-18)
(-0.00200946 0.105914 8.45569e-20)
(-1.18849e-06 -7.82501e-05 1.81441e-19)
(0.000779154 -0.000672875 -1.16651e-18)
(2.33747e-05 -4.70397e-06 2.82987e-19)
(5.90254e-06 -4.20665e-05 -2.23774e-20)
(-2.59489e-05 6.68381e-05 -2.0075e-18)
(0.0061444 -0.0104829 1.66974e-19)
(0.00842043 -0.00192603 -1.3108e-19)
(0.0177892 0.036417 -4.55748e-19)
(0.0145189 -0.000603314 -8.91206e-19)
(4.14412e-05 5.18833e-05 2.63065e-20)
(-0.00900835 0.00104602 -5.33042e-19)
(-5.84126e-05 0.000268136 -7.74218e-18)
(-0.000132668 0.000332027 -4.51575e-19)
(0.0180099 0.000251951 1.62493e-19)
(-7.57917e-05 -0.000282331 1.20795e-19)
(-0.0010579 0.00019985 9.95693e-19)
(-0.0949253 -0.112996 -5.31962e-19)
(2.96291e-05 -1.1923e-05 1.12315e-19)
(0.00325928 0.00179247 -4.65564e-18)
(-0.00607857 0.0158862 -1.71857e-19)
(-3.89558e-05 0.000396275 2.06499e-18)
(3.38014e-05 -8.41476e-05 6.03009e-21)
(5.48409e-05 -1.83252e-05 1.09768e-20)
(6.73108e-06 -0.000108381 -3.30574e-20)
(0.0157337 -0.00148898 -3.49917e-18)
(-9.54602e-06 -0.000207484 7.64187e-19)
(0.000411324 -0.000462218 -4.01449e-19)
(-0.000135834 0.00039538 3.99702e-18)
(4.56365e-05 6.23657e-05 -3.23415e-19)
(6.75541e-05 -3.70445e-05 -2.88679e-20)
(0.0136341 0.0128231 -1.94733e-18)
(-0.0556774 -0.101952 7.68715e-19)
(0.0175237 -0.0110881 -2.19057e-19)
(-0.166315 -0.173338 -3.76766e-18)
(0.00905604 -0.013292 -3.3342e-19)
(0.016701 0.000965969 -3.69371e-19)
(-2.64153e-05 6.97719e-05 4.63361e-19)
(0.00316246 0.00117873 1.07082e-19)
(0.0154057 -0.0323983 9.73263e-19)
(0.00248295 0.000128102 -3.27432e-19)
(-0.0239432 0.00177134 3.19322e-19)
(1.5255e-05 3.7993e-06 6.45868e-20)
(1.48267e-05 1.0452e-06 1.65176e-19)