/*--------------------------------*- C++ -*----------------------------------*\
| =========                 |                                                 |
| \\      /  F ield         | OpenFOAM: The Open Source CFD Toolbox           |
|  \\    /   O peration     | Version:  v2012                                 |
|   \\  /    A nd           | Website:  www.openfoam.com                      |
|    \\/     M anipulation  |                                                 |
\*---------------------------------------------------------------------------*/
FoamFile
{
    version     2.0;
    format      ascii;
    class       volScalarField;
    location    "850";
    object      ddt0(k);
}
// * * * * * * * * * * * * * * * * * * * * * * * * * * * * * * * * * * * * * //

dimensions      [0 2 -3 0 0 0 0];


internalField   nonuniform List<scalar> 
13917
(
0.00019391
1.62996e-06
-5.52482e-07
4.12059e-08
2.84463e-06
4.73772e-07
3.59398e-08
1.3215e-05
2.80062e-08
-2.23192e-05
1.08453e-05
4.54029e-08
8.0643e-08
0.000683092
-1.43735e-06
0.000140363
-4.07732e-08
6.46836e-06
7.15551e-07
5.518e-05
5.16749e-07
7.14976e-08
6.52926e-08
6.87399e-08
5.5734e-08
9.40095e-07
0.00368516
0.000152973
2.12687e-06
1.08074e-07
2.43776e-05
-2.67852e-07
4.30847e-08
0.000605868
-1.39e-08
-1.47669e-05
1.17887e-07
-1.13184e-08
3.83955e-08
-1.47591e-07
-5.63254e-08
1.37497e-07
3.24346e-08
5.12011e-09
6.94312e-08
-0.00018871
5.27526e-07
-0.00289991
0.0147282
-1.7469e-08
4.77693e-08
2.47531e-06
5.85449e-05
2.09688e-08
2.20039e-08
2.23642e-06
-0.00189515
7.77702e-08
7.84607e-08
0.000301692
0.00491365
1.86399e-06
-4.47253e-08
5.27914e-08
0.00177651
0.000132771
2.55893e-06
-3.63613e-05
4.12647e-06
0.000169468
0.000652546
0.000482525
3.21908e-08
5.12635e-08
4.8829e-07
8.29502e-08
9.61824e-07
5.2113e-08
7.28531e-08
4.29521e-08
4.44676e-10
-4.01022e-08
3.05027e-08
-0.000111268
4.06352e-08
-2.79299e-06
-2.18767e-07
4.61741e-08
-1.27964e-07
-4.13392e-08
8.11727e-10
2.97632e-08
0.0172254
2.87697e-08
-9.49891e-10
2.45511e-06
-0.000285466
-2.1297e-08
4.39162e-08
-2.86264e-06
-5.90283e-08
-5.35084e-08
-1.91925e-08
1.23546e-08
8.50665e-07
0.00448526
0.000145007
2.14345e-07
7.67651e-08
0.00449658
4.94712e-08
0.000667922
1.9479e-06
-0.00813312
0.00162826
1.03953e-07
5.04364e-07
-1.55097e-08
2.6729e-06
2.30197e-08
-3.86741e-08
2.43167e-08
3.65561e-06
1.1502e-06
0.000222232
-2.72869e-05
4.99129e-08
4.49916e-07
6.2387e-08
1.06235e-06
8.26103e-09
-3.26456e-05
-6.31191e-05
1.02897e-07
-3.61079e-07
0.00437529
0.00783808
1.60698e-05
1.13986e-06
-1.40926e-08
0.00574237
4.61025e-08
0.00466627
4.27375e-08
3.31582e-08
7.2269e-07
0.000411048
7.5111e-05
-0.00192793
2.12368e-08
-1.06394e-08
-4.8538e-08
3.25044e-08
2.42213e-08
0.000856129
-3.50127e-08
1.26368e-08
-0.000148415
-4.69825e-08
-2.60821e-08
3.87734e-08
-0.00101413
2.04672e-07
0.00688561
0.000624937
-2.89307e-05
2.43529e-05
-0.00665181
-8.09077e-10
1.14256e-06
9.11768e-08
0.000125887
2.57362e-08
0.00394103
-6.2278e-07
-6.39705e-08
4.11004e-08
2.67037e-06
1.33963e-08
3.01528e-07
3.48638e-08
7.20978e-08
4.61991e-08
-2.16791e-06
2.73785e-06
-4.55721e-05
4.48946e-08
-2.53168e-07
3.29473e-08
-1.92969e-05
-1.05017e-06
-6.68914e-08
1.42366e-06
0.00020716
2.03362e-08
0.000238571
5.34915e-08
0.000174709
-2.08266e-08
-2.16989e-08
4.00271e-07
0.00015315
3.17534e-05
5.26421e-09
0.00299463
2.52517e-06
-3.72655e-08
3.66353e-08
2.48191e-06
2.56172e-09
3.51698e-08
5.56434e-06
3.78216e-06
-0.00135991
-3.39511e-07
8.13531e-07
0.000646555
4.40633e-08
9.12922e-09
6.7972e-09
-0.00680625
2.30997e-06
-6.29713e-06
4.75258e-08
-4.33512e-08
0.00341732
0.000172482
1.41947e-08
1.10791e-08
-5.24106e-08
5.10242e-09
3.40061e-09
0.000400777
0.000209639
8.14489e-08
-4.87675e-10
8.33587e-07
0.000430355
-4.91053e-08
4.94091e-08
0.00368831
0.0048453
1.47238e-05
0.00063727
-3.52756e-07
4.49851e-08
-0.00145432
9.2753e-07
1.82517e-06
1.69118e-07
1.7439e-10
-0.000100414
2.43115e-08
-2.56618e-07
-5.45522e-07
9.9157e-08
-3.00387e-08
5.16367e-08
7.51705e-07
4.33764e-08
0.000357813
0.000128407
-3.99351e-09
1.54206e-08
-8.26031e-10
1.52592e-08
2.4175e-08
8.22137e-08
6.42526e-09
2.15059e-09
-0.000122144
1.88539e-05
3.85244e-08
7.28169e-07
-0.000433948
1.20666e-08
-4.61865e-06
0.000420417
1.13702e-08
0.000267364
5.34179e-08
-0.00129872
-6.08376e-08
-9.2157e-07
1.06304e-07
3.11992e-08
7.68926e-07
3.99785e-09
-2.56156e-05
4.54894e-08
-0.000219436
1.86907e-06
0.00112917
-7.98398e-05
-2.69476e-08
1.16733e-07
1.55689e-06
1.22388e-07
2.5013e-06
6.86451e-08
3.29318e-08
1.88693e-08
2.27005e-06
-3.017e-05
-2.30113e-07
6.46848e-08
4.89307e-08
-7.11908e-05
0.000118624
4.5871e-08
-3.36795e-06
1.25614e-07
0.00517187
-1.96126e-06
0.000228357
0.00325194
-9.18602e-05
1.93059e-06
4.39878e-07
-0.000235688
0.00443479
-4.09234e-06
8.26178e-08
-1.32409e-06
0.00322334
6.93934e-08
1.59097e-06
7.35751e-09
-4.24978e-08
0.000210005
4.52787e-08
-6.56258e-08
2.72013e-09
-0.000359438
3.03957e-08
-1.57142e-07
2.19573e-06
-0.000199519
-3.77546e-08
9.83967e-08
0.00394861
8.53947e-09
6.36683e-08
0.000845586
0.00447854
-0.00225784
0.000599612
1.07005e-08
5.73314e-08
0.00477806
-9.6284e-07
8.05635e-09
2.45647e-06
3.06061e-08
-2.60415e-07
-1.74265e-07
1.69142e-06
-2.66714e-06
-4.44046e-06
-5.87744e-08
0.000368359
6.32108e-08
8.65961e-09
2.67816e-06
5.34785e-08
-5.14023e-08
0.000165579
-6.23282e-08
0.00052125
2.36335e-08
-2.81053e-06
-3.98736e-07
0.0113288
-2.29325e-08
7.57503e-06
-0.000441439
2.38559e-06
3.85215e-08
0.000170806
-9.31165e-08
0.000374902
8.69798e-07
-2.18794e-08
0.0138121
1.70342e-07
0.00136828
3.51987e-08
0.000139028
0.00134511
1.00435e-07
0.00254361
-3.04526e-06
-1.6452e-08
-0.000825208
-7.51757e-07
7.61826e-08
5.50609e-07
4.28277e-08
-3.75962e-06
8.67537e-07
4.29691e-08
3.57901e-08
6.13558e-08
3.47984e-08
2.82278e-08
6.11421e-08
0.00707219
-2.68996e-05
1.28201e-08
6.64633e-08
5.38441e-08
8.95276e-08
-6.66799e-05
1.1446e-08
-6.40156e-10
-1.914e-06
-2.89007e-06
3.37139e-08
8.88354e-08
0.00213713
-0.00163611
-0.000315928
7.94627e-07
-6.98339e-05
3.94887e-09
1.19174e-08
6.41633e-07
3.00637e-08
8.51994e-09
8.5086e-08
1.50171e-08
-1.67389e-09
-0.00195074
3.70593e-08
-3.04416e-07
-0.000121048
1.09113e-07
4.15777e-08
3.34224e-08
-0.00127339
4.64871e-07
0.000164264
-3.17648e-08
4.35716e-08
-1.5335e-07
8.08441e-10
1.1303e-07
2.15303e-07
0.00217418
-3.12413e-05
0.00477
4.22902e-08
2.3187e-08
-2.2879e-05
2.87434e-08
1.64389e-07
-0.00185701
3.36304e-08
-0.00912877
4.41791e-08
3.66403e-08
4.56765e-08
1.42697e-07
3.16046e-08
4.83719e-08
-0.000123818
0.00312932
2.9267e-08
0.00128729
-1.44881e-06
5.89502e-08
1.57664e-07
-4.69159e-07
-0.000651178
3.4715e-08
0.00424058
-0.000216272
-0.00015337
1.91599e-07
6.12061e-05
-3.23977e-05
-1.48148e-08
-0.00223464
-3.61888e-09
2.32381e-08
-1.24277e-10
3.27745e-08
2.96472e-07
1.32148e-06
3.99943e-08
8.25239e-07
7.30676e-07
4.91263e-06
-8.49495e-07
1.26455e-08
0.00397781
2.85604e-08
3.26672e-08
-0.000109853
4.53403e-08
-9.28654e-07
2.65232e-06
3.12344e-08
-0.000332915
3.5991e-08
-2.18029e-10
7.22334e-08
-3.3163e-08
4.13087e-08
1.90452e-06
9.60551e-05
0.000190666
3.96867e-08
4.04901e-08
-1.77033e-08
-0.0030468
0.00320989
1.60298e-08
1.95634e-08
4.05372e-08
-1.9198e-07
-0.0025794
5.78841e-08
-4.65623e-08
-4.627e-08
3.43712e-08
2.64497e-07
1.65466e-08
-1.5953e-08
6.79512e-08
3.18685e-08
6.36444e-08
5.86247e-08
0.000403747
1.32494e-08
4.10005e-08
3.38671e-08
2.21502e-08
2.94731e-07
3.17364e-07
-6.73686e-07
-5.19994e-06
5.89774e-08
4.0083e-06
0.000324654
0.000179151
-0.000186036
2.50516e-08
3.28985e-08
5.42538e-06
4.33477e-08
0.00155212
1.6738e-08
-0.00488192
4.61505e-08
0.000294153
-4.92293e-06
3.39433e-08
-6.24379e-05
2.60477e-08
-3.41775e-07
-1.87351e-08
1.36918e-07
0.000143124
-1.08833e-08
-1.98608e-06
-5.49653e-08
6.6397e-08
3.85029e-08
7.47247e-07
1.00133e-06
1.48486e-08
-2.66493e-07
1.66174e-07
-0.000212047
-0.000100075
0.000222333
-0.000176094
1.35048e-08
0.000198761
-2.85327e-08
0.00699495
-0.00199839
-2.25291e-08
1.06054e-06
-5.41719e-08
2.42561e-08
3.52228e-08
-2.59111e-09
-1.72778e-08
7.64079e-08
-0.000365746
3.61697e-08
-2.21399e-07
2.2916e-08
1.36139e-08
-4.59669e-08
1.30609e-05
-0.00074031
6.54434e-05
1.30926e-07
1.81891e-08
0.000326486
0.000493577
3.64125e-08
-0.00299337
7.35132e-08
-9.66165e-07
4.27376e-08
9.75593e-06
3.2797e-08
-4.39616e-07
3.36801e-08
-0.00681851
1.90756e-08
0.00164936
-1.10114e-08
-9.3706e-09
2.73277e-08
-5.06821e-08
0.000411246
-1.87843e-05
1.62293e-08
1.62935e-06
4.91044e-08
1.49683e-07
-5.2695e-08
0.000527917
3.65424e-08
1.31448e-06
1.58596e-08
1.84951e-08
-4.62726e-08
-4.68133e-08
1.22268e-06
-3.73209e-08
2.95488e-08
0.00646896
-2.45542e-07
1.73138e-08
-2.74032e-05
-4.44858e-06
-0.000115791
2.48624e-06
2.4565e-08
-1.75315e-06
0.000366128
-6.98643e-06
5.28952e-07
1.28591e-07
-8.6847e-07
-3.38266e-08
4.40943e-08
-0.00100521
5.84236e-07
7.50475e-08
-0.00257911
3.35176e-08
0.00315706
0.00293263
1.29723e-06
-9.76728e-08
1.67547e-06
0.000316839
2.4646e-08
-5.03889e-06
-0.00096247
2.96811e-08
-7.55552e-09
-4.66428e-08
8.82191e-07
4.55026e-08
0.000197417
-1.98909e-08
2.29488e-08
-6.15114e-08
-3.63401e-09
0.000200368
5.7332e-08
5.88504e-08
-0.000192797
2.4426e-07
0.000382574
3.68094e-08
2.66259e-07
3.43923e-08
3.88686e-08
3.18051e-08
2.32342e-08
0.000143064
-1.65414e-10
-0.00264583
0.000614825
-5.09047e-06
0.000392973
4.09734e-08
-1.18318e-08
3.66989e-08
0.000475572
0.00160971
4.79356e-08
0.000200864
-0.000695966
3.13388e-08
5.05817e-08
8.48977e-08
0.00394938
-0.000653582
1.60024e-08
3.83812e-08
4.18919e-08
-9.09736e-07
2.3762e-07
1.56599e-06
-1.59409e-08
-3.74566e-09
4.35414e-08
-1.05686e-08
3.06879e-08
6.11398e-07
-3.00425e-06
1.50574e-07
5.26789e-07
0.000168187
1.31633e-06
-0.0019515
1.12297e-07
2.53082e-07
4.19062e-08
-7.98764e-06
-3.96511e-08
-2.71932e-07
-0.000360602
0.000666405
4.72522e-08
1.51384e-07
5.62506e-08
3.90348e-08
2.99721e-08
-1.32103e-06
-3.23445e-05
5.07336e-06
1.35337e-06
2.02533e-08
7.78643e-06
2.77618e-08
3.41442e-08
1.45504e-06
5.5667e-08
-3.52716e-07
9.10437e-05
1.44192e-08
2.44368e-07
-1.33432e-06
-1.35424e-08
4.6206e-08
3.73765e-08
4.58976e-08
0.000119989
4.24834e-08
5.7631e-08
-6.36273e-08
2.40007e-08
4.36667e-08
2.25152e-06
-4.0664e-05
-7.33515e-06
-0.00216817
-1.77101e-07
0.00458926
2.87487e-08
1.1347e-06
0.000136633
-7.3495e-07
-1.60148e-05
-3.46867e-08
-6.42443e-09
4.07913e-08
1.80901e-07
-8.14257e-08
4.74986e-08
5.80314e-05
-8.13213e-08
-0.00499334
1.17786e-07
3.266e-08
-4.37491e-09
1.70254e-07
-1.03035e-06
-0.00205385
-1.14374e-05
-4.6828e-08
0.00027228
4.46816e-08
0.000332772
3.29025e-08
-4.30135e-06
2.82494e-07
1.16777e-08
4.75073e-08
0.00066104
2.95988e-08
-0.00017299
-0.0169898
3.83481e-08
-9.78209e-09
3.05426e-10
-2.4961e-07
0.000898536
2.24687e-09
-7.08759e-05
4.04877e-08
-1.88074e-05
5.82028e-07
0.00276004
1.42452e-08
-9.01874e-11
-2.85429e-06
2.14491e-08
2.28815e-08
6.69433e-08
1.9344e-08
-6.0339e-08
1.53771e-08
-1.60392e-05
-3.67162e-09
0.00017081
0.000302685
0.00088866
0.00476312
-0.0059712
0.000147949
0.00644402
2.58095e-08
1.11796e-07
5.40327e-08
4.85377e-08
4.12861e-08
3.0646e-08
3.82924e-08
0.000259659
2.24771e-08
-7.20734e-05
4.27394e-08
3.05386e-09
-2.33303e-06
1.50329e-08
-2.63555e-07
4.4219e-08
-1.86271e-07
3.62101e-08
9.11271e-09
0.000899618
8.40706e-07
-0.0013511
3.99968e-08
3.12848e-08
7.20587e-08
-8.07741e-08
0.000386262
2.83422e-08
-2.96588e-05
3.33468e-08
-0.000236305
-6.08851e-07
4.92451e-08
-3.03244e-07
5.57649e-06
2.96971e-08
0.000797073
-0.00300482
-8.07268e-08
1.06674e-07
1.56184e-08
1.398e-06
1.10923e-07
-7.85018e-08
0.000286932
-1.54977e-08
4.24602e-08
3.39624e-08
0.000248795
2.57163e-07
0.00809483
0.000472993
9.91445e-09
3.80849e-07
2.53268e-08
-0.000167155
3.36054e-08
-1.2875e-07
5.30876e-08
-0.000350976
-8.69675e-07
0.00449394
6.61079e-08
1.39812e-08
0.00138409
5.2309e-08
7.72783e-07
0.000865891
4.11734e-08
2.59806e-08
0.00048805
-1.56655e-08
1.09416e-07
5.20415e-07
7.05306e-08
0.00168993
-2.10952e-07
-5.11985e-07
1.96592e-06
4.23257e-08
-0.000178276
-1.89966e-08
3.19794e-07
4.34153e-08
0.00011021
-0.00040349
3.48475e-08
1.0758e-07
2.79265e-10
1.75567e-08
2.19444e-07
2.57304e-08
5.82565e-10
4.82e-08
9.3053e-09
1.40548e-08
3.36289e-08
-1.67533e-07
0.000572227
-0.0016401
1.48905e-08
7.41739e-08
0.00115978
3.99535e-08
9.33058e-05
-0.0021469
4.11457e-06
5.14516e-09
2.73506e-08
4.54717e-08
4.41713e-08
5.10352e-09
-2.23505e-07
2.89585e-08
-9.8864e-08
2.52548e-08
2.77682e-05
0.00295901
2.60369e-08
0.000601061
4.39595e-08
5.93696e-08
1.03404e-05
0.000572299
-1.02254e-06
-5.17934e-08
-0.00021391
-9.08389e-09
6.95885e-08
-0.000311289
1.55367e-07
0.000736321
4.25452e-08
-4.54883e-05
4.18219e-08
1.04248e-08
3.79614e-07
0.000426897
5.46902e-08
0.000621076
1.66017e-05
1.63384e-08
5.00736e-07
2.89902e-08
3.42412e-08
-8.64656e-07
-1.3033e-08
7.43829e-08
0.000508093
3.61204e-05
0.000182987
-1.03009e-06
-2.48524e-09
0.000175635
2.29953e-08
0.00499245
-3.39702e-07
3.61018e-08
5.10357e-08
0.0073097
-0.00111175
0.00314079
3.11702e-06
-0.00719619
1.47352e-07
3.59885e-08
-2.43944e-08
-3.72925e-09
5.28753e-08
-0.00122181
0.000241648
1.60586e-08
1.88367e-08
0.000424758
-4.99656e-08
3.91244e-09
-0.00660901
-0.000162513
4.66484e-08
-3.13947e-08
3.65457e-08
3.75109e-08
6.50173e-08
-1.76502e-06
-2.00944e-07
5.35268e-08
-0.000358859
3.91313e-06
-0.00017513
-0.00130318
1.20447e-05
0.000238603
3.5642e-08
4.3322e-08
0.000107864
0.000258933
0.00105847
2.29536e-06
6.67212e-07
3.16799e-08
4.31846e-08
2.1858e-07
-0.00180583
-6.82831e-06
4.71749e-08
1.52131e-08
3.67505e-08
0.000635548
2.02578e-07
-1.24868e-06
-2.45609e-07
3.7746e-05
-0.000940947
0.000818286
0.000999619
-1.81011e-08
6.60695e-06
4.60597e-09
-1.6631e-07
6.97719e-07
0.00128574
4.15336e-08
4.71868e-08
4.5974e-08
0.00320561
6.97131e-09
5.04272e-05
-1.45457e-08
-1.06885e-06
0.00145149
-7.48395e-09
-1.09726e-06
9.32462e-08
3.96122e-08
3.12421e-06
7.75057e-05
-1.05061e-09
1.65207e-08
4.95608e-08
0.00434584
2.59713e-08
2.76353e-08
3.36067e-08
-1.37444e-08
3.05944e-08
-2.41741e-06
-3.86691e-07
6.07546e-08
3.11582e-08
-4.0637e-06
3.05583e-05
-3.36718e-07
-0.00020592
4.20447e-08
3.77518e-08
0.00063588
5.15525e-08
3.74959e-08
0.00103797
0.000203279
5.67272e-07
-3.15247e-07
3.89493e-07
0.000133472
-1.37941e-05
3.23414e-07
0.000432063
5.5922e-08
9.78339e-07
0.000200799
2.77627e-06
-0.00315866
0.00472524
1.31553e-08
6.10867e-08
7.66401e-08
3.05694e-08
7.16135e-08
-1.97908e-06
-1.62555e-08
2.41344e-08
1.67202e-08
-2.18185e-07
-0.00111131
6.62548e-08
-0.00309946
-0.0117118
3.92847e-08
-5.08629e-07
-2.78471e-07
5.58943e-08
3.7201e-08
1.42655e-05
1.51951e-07
0.000294474
1.36215e-07
-0.000554639
-1.97792e-06
3.28535e-07
-0.000342461
-4.04368e-09
-2.04064e-06
5.00656e-08
-1.1889e-05
3.90881e-08
1.88509e-07
6.20356e-07
-2.01011e-07
3.09237e-08
5.62393e-10
0.00426795
4.09568e-08
6.10294e-06
-2.64895e-05
2.54379e-08
4.17337e-08
-2.47228e-06
0.00190074
0.00034411
1.61303e-08
6.47392e-09
-2.28576e-05
0.00478588
-4.38678e-05
5.38753e-08
3.28667e-08
1.09184e-08
2.84608e-08
5.3153e-08
6.20016e-08
0.00317441
-7.09947e-08
4.20001e-08
0.000148637
-2.26049e-05
4.06298e-08
-0.000250386
-0.000688386
3.43754e-08
2.76776e-08
3.31737e-08
2.7339e-08
-3.7764e-07
0.00160732
-0.00117986
-2.60838e-06
5.20375e-07
-4.15935e-10
3.57949e-08
7.42315e-06
1.91403e-07
-2.1756e-07
7.58596e-09
-3.53062e-06
-1.48875e-06
3.03095e-08
3.13107e-08
0.00110363
2.11788e-08
0.0001482
0.00065289
9.94114e-07
4.26396e-08
-0.000523243
5.3357e-08
4.33116e-08
-0.00284966
-0.00105356
8.7936e-09
2.9985e-07
6.95301e-07
9.53991e-08
4.2983e-08
1.8529e-08
4.25241e-08
3.33404e-08
4.09238e-08
7.18783e-09
-6.51305e-07
0.000181792
3.60607e-08
3.94561e-08
2.02249e-08
-2.01124e-06
2.13584e-08
3.95894e-07
-5.98169e-06
-4.30099e-06
-4.27395e-05
-4.83562e-08
2.07828e-08
6.51427e-05
3.43434e-08
0.000777454
4.69732e-08
-3.10435e-07
3.10512e-08
3.41263e-08
-6.42207e-05
3.78504e-08
-6.95708e-08
3.57474e-08
0.00680952
3.04471e-05
0.000478573
-5.43066e-08
6.28759e-08
0.00669499
-2.1919e-08
-7.55114e-09
-3.59666e-06
-0.00376218
1.15113e-07
2.82643e-08
4.1683e-08
0.00433354
3.62877e-08
2.19586e-07
2.99293e-08
2.02805e-08
-5.40815e-06
3.44117e-08
3.12395e-08
-0.000814998
-1.93156e-07
0.00416924
1.98932e-06
3.65878e-08
3.01888e-08
4.40403e-08
2.89339e-08
4.8702e-07
6.03232e-08
3.18717e-08
-4.28216e-06
5.43758e-08
4.8396e-07
2.64684e-06
4.80019e-06
3.66047e-08
2.20573e-06
6.43995e-08
-0.000193217
-3.90964e-10
0.00163879
-1.52983e-07
6.39639e-08
-1.32416e-08
2.95736e-08
3.17876e-08
2.35318e-08
-5.1189e-07
3.12762e-08
3.20478e-08
0.000728002
5.72302e-07
1.29866e-05
1.56607e-08
-9.65832e-09
-1.42174e-07
2.20484e-06
4.00353e-08
0.000173964
4.22406e-08
2.50837e-09
4.61173e-08
2.48163e-08
1.55542e-08
-0.000137074
-0.00155227
-1.88699e-05
0.000379614
2.20579e-06
-6.5961e-07
-2.66391e-07
-0.00122901
1.56919e-08
-9.91047e-10
8.17015e-08
-0.000895798
2.88516e-08
0.000940217
4.73559e-08
1.16285e-08
-3.56499e-06
-9.32649e-06
0.000137592
-0.00137353
4.2175e-08
2.38645e-06
-8.27959e-05
2.36258e-08
-0.000882066
4.35851e-08
-6.4897e-08
0.00404223
1.94602e-08
0.00110419
0.000231653
3.12716e-08
4.80376e-08
2.90017e-08
0.000528706
-6.31611e-08
1.93804e-08
-2.13912e-07
4.01871e-08
3.79799e-08
2.00271e-06
-3.64443e-09
-3.12779e-08
4.49063e-08
3.61839e-07
2.2249e-08
0.00112043
-5.23263e-05
2.3846e-08
2.49617e-08
4.65549e-08
4.51346e-08
4.11918e-08
-2.84363e-08
6.21607e-08
4.16802e-08
4.72452e-08
2.46984e-08
4.24124e-08
3.40713e-06
2.46874e-08
2.31576e-07
5.93202e-08
3.94968e-06
2.14449e-08
3.45724e-08
2.83289e-08
-1.7197e-08
3.70206e-08
-7.29945e-07
3.33704e-08
0.00497874
-6.79663e-05
-0.000180083
1.03874e-05
4.30463e-08
0.00462543
6.77794e-08
4.1858e-08
0.000281027
0.00475184
-1.35546e-07
0.000464654
3.40863e-08
-1.71175e-06
0.0036803
4.27493e-08
2.47338e-07
-0.00267804
0.0019251
-1.77011e-09
-4.57861e-08
2.54031e-08
0.00047896
4.20586e-08
0.0011391
9.85331e-05
3.85061e-08
-3.65947e-05
1.79672e-05
-4.38851e-08
-0.00321874
2.56105e-05
7.64898e-08
3.19242e-08
-0.000800183
0.000343088
1.96585e-08
1.86664e-08
3.3828e-08
3.3856e-05
1.77148e-06
2.31359e-08
1.69097e-08
0.00178545
1.74471e-08
3.78193e-08
4.16856e-08
1.64763e-08
-0.00121739
-9.38804e-07
2.87849e-08
0.000200185
4.09726e-08
-2.86357e-07
2.99147e-08
-0.000969833
-2.02982e-07
0.000737145
2.55028e-08
3.38886e-08
-4.33602e-08
6.01816e-10
3.31889e-08
2.26022e-08
-0.00285647
4.73202e-08
1.71571e-08
3.92875e-08
0.000129435
3.079e-08
0.0028023
0.000866196
-0.00249082
-8.19517e-09
1.25096e-08
3.3185e-08
0.00641515
1.7262e-08
0.00478963
-1.64985e-09
-0.000516172
5.98837e-08
-8.63231e-08
-3.01755e-05
2.72919e-08
-4.00526e-08
0.000363219
6.28639e-07
0.000924127
4.04194e-08
0.000456835
-0.021321
5.17417e-08
0.000579518
4.31541e-08
-5.9856e-07
-0.00312406
-1.99747e-07
2.57489e-06
0.000280376
1.04835e-06
1.29491e-07
3.29657e-08
0.0033194
4.14412e-08
0.00270557
3.49724e-08
0.000250585
3.84905e-08
5.43876e-08
1.55721e-07
-0.00718618
1.56609e-08
-3.44872e-05
-1.31506e-06
0.00467864
2.73299e-08
4.49075e-07
0.000190166
-4.23922e-05
0.00150722
6.44595e-07
2.26436e-08
1.47639e-06
-0.000236544
-1.19666e-07
3.44747e-05
1.17877e-08
1.92769e-06
0.000152964
1.01691e-08
-5.80615e-06
4.59159e-08
0.000793168
-0.000891719
8.44186e-08
5.98367e-07
0.00227416
-0.00341648
3.48868e-08
4.68452e-08
1.51669e-08
3.32796e-08
9.13225e-05
-5.57049e-07
-9.18e-05
-1.15333e-08
4.72148e-08
0.00119005
-4.06995e-07
0.00682606
0.00237321
4.51382e-08
4.24578e-08
-2.29643e-06
0.00351006
0.00396675
0.000510228
-4.69111e-06
3.72357e-08
1.27129e-06
0.000377294
0.000338959
-0.00276046
3.30547e-08
9.18279e-07
-7.29917e-09
-1.10564e-06
3.21703e-08
3.08145e-08
-4.42282e-07
-6.00639e-06
-0.00195648
6.53819e-08
-0.00643171
0.000344786
1.47499e-06
4.01013e-08
3.95875e-08
-0.000124862
9.58612e-09
-3.42353e-05
4.70603e-08
7.97751e-07
5.75072e-06
-4.95222e-05
2.31957e-08
-1.9656e-08
2.86203e-08
3.75335e-08
0.0011689
-1.65108e-06
0.000880592
4.99454e-08
0.000697112
6.70385e-05
-1.21141e-06
-6.21565e-09
1.42493e-07
1.16544e-06
-1.04684e-05
-3.84486e-07
-1.00037e-07
0.000224575
-3.84294e-05
1.83122e-09
8.55207e-08
-6.87453e-08
1.02156e-06
0.000173207
-3.51239e-08
2.12533e-08
5.26518e-08
0.000139303
-1.47229e-05
3.56315e-08
-5.79843e-07
1.50464e-06
2.77721e-08
-4.07015e-05
2.83951e-08
0.000755946
-8.53156e-07
0.00105765
0.00455555
2.81389e-08
-1.04095e-07
0.00071246
4.32051e-08
1.68175e-06
0.000193262
7.59419e-08
-2.61948e-06
2.52309e-09
-1.64087e-07
0.00329618
0.000281817
3.7447e-08
0.0101468
-4.59952e-07
2.22038e-08
-1.59668e-06
3.11886e-07
-3.11088e-06
-0.00242689
4.60573e-06
0.00139306
1.86673e-06
-0.00020159
1.01763e-07
-3.37187e-07
-2.88238e-08
3.62477e-08
3.59676e-08
3.14054e-08
-4.09924e-05
-1.61699e-05
1.79048e-09
4.32647e-06
-1.83984e-06
4.20268e-08
-0.00426643
0.00172794
1.03158e-07
1.82711e-08
-3.11924e-08
-3.3318e-08
-4.5662e-08
4.27393e-08
-0.00404862
2.93698e-08
4.29449e-07
-3.58183e-07
-9.23891e-07
1.83712e-06
-1.70106e-06
-0.00209569
3.40638e-08
-3.31992e-08
9.99743e-10
3.9369e-08
0.000114372
-9.43578e-07
3.96622e-07
0.00253942
-3.65439e-08
2.95843e-08
1.59217e-06
3.29447e-08
-1.80833e-09
-1.7576e-06
4.58338e-08
0.000376782
0.00322645
0.00559573
2.6136e-08
0.0100072
2.78987e-08
-2.25219e-05
2.16827e-08
8.19327e-07
0.00739539
3.7628e-08
0.000288203
0.000413017
5.73805e-07
4.93818e-08
-2.18605e-08
2.14053e-07
-0.00214853
1.64361e-08
4.24448e-08
1.49789e-08
-5.89567e-09
-2.63596e-06
5.90671e-08
5.11264e-08
4.11402e-08
-1.47462e-08
0.000957074
-9.52759e-09
1.63071e-07
9.3084e-07
-6.81758e-05
0.00108958
0.00494332
5.26684e-08
-3.62738e-08
0.000305633
2.65496e-08
1.64308e-07
2.57171e-08
1.10628e-06
2.07307e-07
-2.46172e-08
3.31557e-06
-0.00173998
4.3624e-08
2.72788e-08
1.36925e-08
-2.3775e-06
2.07097e-05
1.52058e-06
3.55926e-08
-2.69855e-07
2.54367e-08
2.34824e-05
-4.15779e-08
-0.000362434
-1.80749e-07
-3.67798e-08
5.82192e-06
-4.85283e-07
-0.00123616
2.9088e-08
-6.3604e-09
2.35541e-08
2.14508e-06
-3.9032e-06
4.38273e-08
7.82439e-09
1.59201e-07
0.000725522
3.67199e-08
6.18712e-08
0.000200485
4.9736e-08
-2.40972e-05
4.31951e-08
5.6446e-08
3.42258e-08
0.00385076
3.56061e-08
-0.0025276
0.000197501
-6.3145e-09
-0.00237373
3.37769e-08
1.89416e-06
-4.46706e-07
5.71069e-08
-2.01422e-08
-6.5191e-09
4.2728e-08
0.012783
-7.19575e-08
-0.000254015
-0.000265617
3.13975e-08
-2.51064e-05
-5.08267e-08
0.0012637
4.65968e-08
0.000116898
0.00023693
6.81294e-05
2.17128e-08
4.9063e-08
4.37908e-08
0.00422924
0.000202324
8.26677e-07
5.134e-08
3.00153e-08
-0.0042287
4.57955e-08
4.81644e-08
-9.66578e-08
-1.72935e-06
-6.34086e-05
1.99916e-08
-0.00139289
-9.87424e-07
4.10724e-08
-0.00322788
-1.38568e-07
-0.0029154
0.00505907
3.96392e-07
-6.84505e-07
6.36409e-08
3.55399e-07
-1.82621e-09
7.15301e-06
-1.41888e-08
5.93694e-08
4.35388e-08
-1.40885e-05
0.00527504
1.67665e-08
-8.64555e-07
0.0118885
0.00055226
6.02441e-08
5.42868e-08
0.000393568
0.000278476
-1.70098e-05
2.0113e-08
0.00908342
-3.68601e-07
-4.18471e-09
0.000220388
1.45697e-07
5.90038e-08
0.000107529
1.60655e-08
2.1499e-05
1.41019e-08
-1.95657e-09
-6.76126e-09
1.33685e-08
0.0017376
-3.1545e-09
4.03668e-08
3.0606e-07
3.48446e-08
-1.92103e-07
8.56005e-07
2.52621e-08
3.38356e-08
6.41137e-08
3.86622e-08
0.000730653
0.000492737
-0.00526765
0.0100766
-1.6829e-06
0.00146656
3.54128e-06
-0.000116461
0.0102978
0.00154765
4.07288e-08
9.13273e-07
4.67121e-08
5.40561e-08
4.65453e-08
2.18059e-07
-4.4526e-06
-2.72741e-07
5.88363e-07
4.12111e-08
4.16173e-08
-2.29252e-07
4.61889e-08
1.69469e-08
3.24871e-08
-0.000272529
1.37489e-08
8.94684e-05
2.54998e-08
0.00061692
6.7146e-09
-4.93822e-08
1.27681e-07
-3.03999e-08
2.84453e-08
1.2182e-06
0.000650082
4.81006e-08
0.000173199
-0.00136777
-3.17686e-08
4.0743e-08
0.000251842
1.15868e-06
-7.77508e-09
5.12387e-08
-5.55525e-09
-9.43111e-06
2.10642e-09
-6.47278e-06
6.73037e-06
8.14463e-07
-0.00392883
0.000680897
-6.23389e-08
0.00133112
-1.50899e-09
1.48144e-08
0.000856174
0.0046346
3.32025e-08
3.05011e-08
0.00153617
3.31982e-08
8.47627e-06
5.85285e-08
-4.34831e-08
2.11798e-07
5.05466e-08
5.96176e-07
0.000526563
0.00043898
4.40831e-08
1.37224e-08
-1.99253e-06
4.76861e-08
-1.70916e-06
3.12315e-08
-6.56514e-07
-8.89183e-07
1.31867e-08
6.35825e-08
-5.82945e-09
-3.29583e-06
2.06044e-06
-3.18503e-06
-0.000979853
4.71743e-08
-6.54389e-05
-2.60948e-07
-1.48592e-06
0.000246252
2.76599e-08
-0.0004314
4.64011e-08
-0.00033054
-2.10087e-05
-0.000481026
0.000646934
-4.25603e-08
-1.8699e-07
0.000820208
3.54474e-09
0.000274791
2.62535e-08
5.31192e-08
3.69196e-08
4.17156e-08
2.8219e-08
-2.27645e-05
0.00168553
-0.00237896
4.58441e-08
1.00297e-07
4.33039e-08
-5.56613e-08
3.1584e-08
7.97154e-07
-1.23443e-07
0.00720552
-3.45365e-07
2.27329e-09
1.79932e-08
1.26473e-07
-4.43159e-06
-3.74724e-08
2.15604e-07
9.29865e-08
-3.41361e-06
2.77045e-08
1.6705e-06
-1.61266e-06
-0.000421258
5.32147e-08
2.83852e-08
4.59898e-08
3.64161e-08
-0.000189882
-0.000912061
9.65271e-08
3.42142e-08
-0.0028707
2.68322e-09
2.25554e-08
6.80777e-08
0.000895527
-0.0017028
4.37134e-07
3.28839e-08
0.00029605
1.01233e-08
2.76774e-08
-1.98507e-08
0.00416053
4.19721e-05
-3.49469e-08
-0.00277761
0.0016269
7.32953e-08
-2.44795e-06
-3.08889e-07
0.000674231
2.58925e-08
0.000350884
8.76705e-09
-0.000288153
4.98884e-06
0.00108062
2.41361e-08
4.50313e-08
0.00111022
4.96879e-08
3.60175e-08
-0.0176593
0.00482576
3.05192e-06
-0.000127881
3.83142e-08
4.54224e-08
-0.000291554
2.23274e-08
3.43696e-08
3.12003e-08
-2.12297e-08
4.51831e-08
-9.37274e-07
7.42857e-08
-0.00343979
0.00101487
4.12591e-08
0.000303379
7.61115e-08
0.000914307
0.000300323
3.98458e-08
4.72354e-08
3.8731e-08
-3.62414e-05
-4.26933e-06
3.02089e-07
0.000819098
-0.000961989
1.73286e-05
-1.76601e-07
0.00415064
0.000294329
1.66583e-06
-0.000183206
3.0455e-08
7.22775e-09
2.74198e-08
-4.27207e-08
4.44573e-08
2.76357e-08
0.000490253
-1.5277e-06
8.68831e-05
-0.000123251
0.00281411
0.00643037
0.000935561
-7.73863e-07
0.000235083
1.594e-06
-2.86964e-07
2.08833e-08
9.48964e-09
2.06287e-08
0.000266024
4.32612e-08
-0.00208345
0.00124545
4.52053e-08
4.86698e-08
5.22845e-08
-2.42251e-06
6.60066e-11
5.91311e-07
-0.000170528
1.82801e-08
4.83724e-08
4.25315e-08
4.50156e-08
-7.8661e-07
0.000577287
9.26236e-07
0.00340382
4.97301e-08
3.85654e-08
0.0001364
-3.13769e-06
-4.2987e-08
-8.08882e-05
0.000332187
0.0063964
0.00300506
0.00043745
1.01626e-08
0.000541213
0.000705188
1.10754e-06
0.000244912
3.0715e-08
1.75455e-08
9.06655e-08
4.13818e-08
0.000143265
1.98176e-07
4.97086e-08
4.90162e-08
-0.00011826
0.000652101
-1.7993e-07
3.15551e-06
-0.000178732
0.0011924
3.64882e-08
2.41166e-07
1.65205e-06
4.30332e-08
4.16645e-08
0.00606688
4.24861e-08
-2.58172e-06
0.000361066
0.000714554
2.7218e-08
-1.71948e-06
9.24869e-07
2.69649e-08
7.31312e-09
0.0063709
0.00371668
-7.56874e-08
-2.28766e-06
3.41966e-06
-6.51208e-06
2.11688e-05
-0.00292256
1.00363e-07
-5.60498e-05
-0.000522572
-7.32163e-08
4.07248e-08
1.83243e-05
1.13322e-08
1.10232e-08
0.000368794
7.86516e-08
1.11151e-06
4.26294e-08
-1.82482e-06
6.52644e-09
8.72531e-09
4.23072e-08
4.36776e-08
-0.0030395
4.35486e-08
-0.00123932
4.62518e-05
-3.30206e-07
2.55374e-07
-0.00131467
0.000636919
-0.00240123
1.79561e-07
4.11101e-08
-7.86963e-08
9.87576e-08
7.66104e-06
0.00197479
4.17949e-08
-0.000678668
0.000413277
1.54532e-07
-2.89004e-07
2.43432e-07
-4.26279e-07
-5.28274e-07
4.54054e-08
-5.6876e-07
-1.1837e-06
-1.3299e-06
-1.6146e-06
-1.16308e-06
3.87247e-07
1.33345e-06
3.91266e-08
2.36603e-08
-1.3601e-07
3.58395e-08
3.31453e-05
0.000425332
8.87802e-06
0.00118874
-1.50829e-08
3.70775e-08
-0.0002845
0.00163635
4.27639e-08
-3.34776e-08
-3.02262e-07
0.00674673
0.00254694
2.4069e-08
4.15014e-07
4.6517e-08
-0.000372801
-0.000121423
3.90442e-08
-7.88108e-05
0.000677894
2.6016e-07
0.000830726
1.50642e-06
-0.00319869
0.000118355
-1.50987e-10
0.00150477
0.000380887
3.25163e-08
-1.10086e-06
-1.42681e-06
-5.11116e-07
1.25127e-08
-5.053e-05
0.00248187
1.79411e-08
1.49685e-08
0.00468667
0.000104153
-1.47731e-06
2.71115e-08
-1.90993e-05
1.74623e-06
0.00117889
3.90119e-06
4.83546e-08
4.41017e-08
4.2695e-08
4.0143e-08
0.000468221
0.00227738
0.000863375
-1.99387e-07
-6.43123e-05
-0.00236632
2.11008e-08
3.48386e-08
0.000618914
4.11879e-08
0.000127781
-4.46193e-08
0.000814223
4.36525e-08
-3.00068e-08
0.00810873
3.85288e-08
2.46422e-07
0.00417419
8.03679e-08
-1.99131e-07
4.51311e-08
-4.23403e-06
0.000424466
-1.12987e-07
0.00103292
3.48899e-08
-8.53292e-09
3.4658e-08
-1.44897e-06
0.0019774
0.00244729
-2.52006e-06
9.60256e-07
3.18811e-07
0.000622212
1.31057e-06
5.17653e-08
1.76779e-08
2.10435e-08
-1.58309e-05
7.95153e-06
0.00126038
-2.9619e-08
2.55655e-07
2.39815e-08
1.90131e-05
-0.000463693
0.000299286
3.62808e-08
4.76247e-08
-3.18024e-09
0.000832496
-2.43866e-05
-0.010721
1.4767e-05
5.15565e-07
-4.86086e-05
-6.83955e-09
3.58971e-08
-1.995e-07
-1.27793e-05
8.95715e-05
4.93084e-08
3.89791e-07
3.61487e-08
1.57384e-07
-3.19458e-06
0.00819915
0.00208081
6.18029e-08
-2.23257e-06
-1.2818e-05
0.00782109
0.000247776
0.000247719
0.00112303
3.59056e-08
3.59044e-08
1.68523e-08
2.40201e-07
1.25914e-09
-1.85539e-06
4.55989e-09
5.6273e-08
0.000225842
0.00449791
-2.0667e-08
-5.51939e-06
0.000470714
-1.77939e-06
-1.59244e-07
-0.0193332
-1.48637e-06
-2.44076e-08
1.03546e-07
0.000386517
1.82334e-08
-1.35084e-07
-1.01903e-05
6.62981e-05
0.000237636
-2.65736e-08
0.00186777
0.000614613
0.00696632
-2.3111e-05
1.23792e-08
2.68203e-07
2.80341e-07
0.000176815
-6.31733e-06
4.18664e-08
-6.43041e-05
-9.05255e-06
3.67349e-06
2.74039e-07
-0.00103176
0.000422861
0.000591161
3.23365e-08
0.00190917
1.00277e-07
0.000426837
1.75724e-06
-0.000145223
0.000124113
3.10033e-08
1.39325e-09
0.000602018
0.0013008
1.74498e-05
4.24962e-08
-1.28362e-07
-1.55606e-06
0.00118565
1.78696e-05
0.000290191
1.2609e-07
0.000108548
-9.61455e-08
0.0115186
4.23735e-08
-9.00251e-06
-0.001188
-2.32819e-09
-7.63324e-07
-5.77233e-09
4.45617e-08
4.44546e-08
-9.90566e-05
4.86381e-08
2.73391e-08
8.07931e-05
0.00070901
2.07075e-08
0.00160297
4.43144e-08
1.274e-08
3.24083e-08
9.03639e-09
3.88631e-08
4.6522e-05
1.31868e-05
2.87027e-08
-0.000988379
-5.19841e-08
-8.53158e-08
0.000292138
-2.65827e-07
1.13053e-07
9.41354e-09
4.51023e-08
-6.50781e-05
1.519e-07
0.0018993
6.60296e-08