/*--------------------------------*- C++ -*----------------------------------*\
| =========                 |                                                 |
| \\      /  F ield         | OpenFOAM: The Open Source CFD Toolbox           |
|  \\    /   O peration     | Version:  v2012                                 |
|   \\  /    A nd           | Website:  www.openfoam.com                      |
|    \\/     M anipulation  |                                                 |
\*---------------------------------------------------------------------------*/
FoamFile
{
    version     2.0;
    format      ascii;
    class       surfaceScalarField;
    location    "850";
    object      meshPhi;
}
// * * * * * * * * * * * * * * * * * * * * * * * * * * * * * * * * * * * * * //

dimensions      [0 3 -1 0 0 0 0];
oriented        oriented;


internalField   nonuniform List<scalar> 
20642
(
0.000156287
2.51438e-05
-0.000181431
-0.000499538
0.000855679
-0.000354852
-9.9117e-05
-0.000154161
0.000253297
-9.19327e-05
0.000683027
-0.000587143
-0.000676751
0.000982727
-0.000302119
-0.000873484
0.000375635
0.00028113
-0.00061103
0.000330959
-0.00103515
0.000587915
0.00044802
-0.000270708
-0.000256051
0.000527771
-0.000154539
-2.34255e-05
-0.000452489
-0.000581841
-0.000894339
0.000770763
0.000130943
3.6674e-05
2.96071e-05
-0.000595759
0.000904262
-0.000308118
-0.000716476
0.000955591
-0.000236141
1.44162e-05
0.000141871
1.89301e-05
1.48572e-05
-2.23948e-05
0.00101511
-0.000447418
-0.000566851
-0.000373198
0.000264498
0.00010876
0.000188966
-0.000103857
-8.51087e-05
-0.000724111
0.000470368
0.000254848
-0.000163688
-0.000570024
0.000742591
-0.000217012
-0.000188893
0.000406139
0.000642929
-0.000796894
-0.000819497
0.000426017
0.000395914
0.000769114
-0.000305005
-0.000463034
0.000639987
-0.000360861
-0.000279007
-0.000154539
0.000905999
-0.000333347
-0.000571598
7.41671e-07
1.58999e-05
-1.6186e-05
-0.000135749
-1.87894e-05
-0.000468793
0.000167584
0.000301314
0.000827019
-0.000552305
-0.000270495
0.000182955
-9.23166e-05
-9.06382e-05
3.89727e-05
-0.000575086
0.000545917
-7.80109e-05
0.000666565
-0.0006643
-7.56082e-05
0.000742963
-2.12864e-05
7.75604e-05
-1.75627e-05
0.000561416
-0.000279321
-0.000457409
0.000694921
-0.000236662
-2.52631e-07
-5.24272e-06
1.28084e-05
-0.000327089
0.000493475
-0.000160826
0.000752962
-8.86457e-05
-0.000662479
-0.000159449
-0.000125927
0.000285422
-0.000335934
0.000176544
0.000104202
-0.000317116
0.000212975
-0.000647817
-7.47426e-05
0.000250116
-0.000151713
-9.84015e-05
0.000419243
0.000380501
-0.000799507
-0.000424764
0.000471647
-8.01869e-05
-0.000806216
-0.000129478
0.000399412
-0.000269824
0.000102532
-0.000168259
6.57274e-05
0.000768749
-0.000900763
0.000141104
0.000960891
-0.000728906
-0.000223369
-0.000337369
0.000207972
-0.000135749
0.00020873
-0.000425472
-0.000504565
0.000183203
0.000371064
-0.000266784
-0.000407279
0.000216518
0.00019077
0.000273146
0.000408807
-0.000677589
-2.19976e-06
-1.67942e-07
3.38179e-06
-0.000299
-0.000517749
-0.000168949
-2.07284e-05
0.000189683
3.07905e-05
-1.96274e-05
-1.10438e-05
-0.000377612
0.000888268
-0.00050975
-0.000625913
0.000548508
0.000563421
-0.000173492
0.0001048
6.86927e-05
-5.08014e-05
-0.000158199
0.00020901
0.000133197
4.97589e-05
-0.000959553
0.000817981
0.000150623
-0.000375038
-0.000122608
0.0007378
-0.000266413
-0.000984902
0.000500547
0.00048694
-0.000613486
0.000925758
-0.000308092
-0.000507512
0.000139412
-0.00038637
-0.000595534
0.000515471
0.000314433
0.000626404
0.000299618
-0.000918945
2.22837e-05
2.22917e-05
-2.86229e-05
-0.000129691
-0.000819375
0.000260078
-0.000155935
-0.000104136
-0.00043896
0.000394587
8.30863e-05
-0.000916132
0.000385615
0.000531068
-0.000256287
-0.000212379
0.000128962
9.9954e-05
-0.000180614
-0.000660387
0.000203896
-1.20884e-05
4.08703e-05
-1.33847e-05
-4.26967e-05
6.60868e-05
0.000536912
-0.000515141
0.000934653
-6.13265e-05
0.000571654
-0.000499933
-0.000158031
-0.000681461
0.000845532
0.000529328
0.000841151
-0.000453037
-0.000387871
3.54643e-05
2.61223e-05
-3.94582e-05
0.000246855
-7.97727e-05
0.000428913
-0.00070313
0.000274587
6.65005e-06
4.74927e-06
-7.62606e-06
-1.87338e-06
1.12555e-05
0.000873458
-0.000240995
8.28186e-05
1.20747e-05
-7.46165e-05
-0.000978885
0.000370964
-0.000186028
-1.85004e-05
0.000204532
-0.000157743
-3.01205e-05
0.000187866
-0.00051103
0.000789184
0.00015132
0.000347577
0.000303093
0.000337029
-0.000122926
0.000344092
-0.000197274
0.000104958
-0.000858743
0.000526368
5.29793e-05
-0.000221922
5.2737e-05
0.00050537
-0.000556013
-0.000212837
-0.000160293
-3.50219e-05
4.2664e-05
6.14736e-07
0.000169558
0.00012457
-0.000294103
0.000201824
0.000586567
-0.000778178
5.97431e-05
-2.21986e-05
0.000500139
-0.000182739
-0.000309916
0.000351283
0.000537904
0.000217553
0.000141761
-0.000359214
0.000110742
-0.000178504
6.77616e-05
0.000114287
0.000145795
0.000734884
-0.000252949
-0.000479345
0.000242829
0.000496038
0.000584251
0.000135682
-0.000707467
-0.000134367
0.000352001
-0.000538446
0.000158083
0.000380773
0.000165747
-0.000410744
0.000245106
-0.000207301
0.000131618
7.56838e-05
0.000615016
-0.000559932
-0.000380391
0.000107644
0.000272829
0.000667949
-0.000364716
0.000399743
-0.000208138
-0.000191594
9.63099e-05
6.8134e-05
-0.000164444
0.000877593
-0.000342752
-0.000533685
1.92055e-05
0.000822556
-0.000844344
2.20852e-05
-0.000177757
-0.000322842
6.57532e-05
-0.000251776
0.000163908
-0.000661535
0.000511123
-0.000847316
0.000772457
8.45812e-05
0.000415309
9.09007e-05
-0.000501733
-0.000202629
0.000151836
-0.000948725
-4.98954e-05
-0.000113347
0.000163244
-0.000153919
0.000932562
0.000487353
-0.00068219
0.000195753
-6.65587e-06
-2.11182e-06
1.22265e-05
-0.000722287
-0.000114576
0.000325071
0.000516308
-0.000844199
0.000687618
0.000163476
-1.48806e-05
0.0001168
-0.000128592
-4.99703e-05
0.000178563
9.43778e-06
1.23518e-05
-1.39881e-05
-2.5389e-06
-2.55697e-05
-0.000773103
0.000612415
0.000186635
-9.07235e-05
-0.000141172
0.000231904
0.000994219
-0.000358994
-0.000632353
-1.62058e-05
0.000135752
0.000151144
-0.000286889
0.00070285
-0.000362271
-0.000340345
-4.04081e-05
0.000151126
-0.000305454
0.000154333
-4.96516e-06
4.88836e-06
2.00685e-07
0.000322225
0.000556482
-0.00120209
0.000702812
0.000508356
-6.35924e-05
-0.000129067
0.000192661
-0.000660616
-0.000427814
0.000280456
0.000147383
0.000114641
-0.000377967
0.000263503
-7.49095e-06
1.976e-05
-7.32379e-06
0.000544886
-0.000633229
-0.000186326
0.00039999
-0.000213569
-0.000173185
-0.000364752
0.000556534
0.000440114
0.00066738
-0.00072096
5.5413e-05
-0.000548817
-0.000747966
0.000674395
7.73594e-05
-0.000258137
0.000180817
-9.54806e-05
0.000265065
-0.000279955
0.00044583
-0.00078386
4.31883e-05
0.000330888
-0.000253472
2.36664e-05
-2.24585e-05
-0.000485758
-0.000429862
-0.000335272
0.000450145
-0.000188953
-0.00014692
0.000370963
-0.000175347
-0.000195555
0.000111717
-0.000181707
6.99899e-05
0.000401737
-0.00045515
8.22789e-05
-0.000177335
9.50561e-05
-0.000174562
0.000614271
-0.000438346
-0.000124565
-8.27339e-05
0.000135036
-0.000700494
-0.000701057
-0.000135414
0.000315635
0.000404711
-0.000718894
0.000139071
4.32466e-05
-0.000182318
-3.90266e-05
0.000135337
-0.000879334
0.000657596
0.000225218
0.000418661
-0.000538255
0.000119693
0.000577008
0.000201908
-0.000777408
-0.000172166
0.000329174
0.000213177
-0.000653029
0.00095965
0.000494274
-0.000593222
0.00011514
0.00104137
-0.000453322
-0.000585254
0.000701321
0.000342483
-0.000201607
-0.000297254
-8.306e-05
0.000427296
9.78454e-05
0.000115449
-0.000213289
3.63336e-05
-0.000106597
0.000112548
1.44519e-05
0.000185979
-0.000193464
0.000187746
-0.00016667
-0.000143204
0.000399836
-0.000209101
-0.000190669
-0.000146054
0.0003559
-0.000209796
-0.000561426
0.00053024
7.48873e-05
4.19519e-07
-1.84721e-06
0.000346203
0.000321862
-8.59803e-05
-0.000262974
0.000172064
9.83021e-05
-0.000153849
-0.000101104
8.83057e-06
-3.52557e-06
9.88896e-06
0.000184384
0.000195081
-0.000178492
0.000104121
2.90753e-05
0.000108982
0.000117731
-0.00022671
0.000930938
-0.000563814
-0.000360126
-6.18165e-06
9.58495e-06
-2.87818e-06
0.000313945
0.000169259
-0.000483026
-8.0036e-05
0.000172913
-9.28764e-05
3.24006e-05
-1.12968e-05
-1.29032e-05
-2.39273e-05
-0.000490977
-0.00021012
0.000628876
0.000132728
9.06045e-05
-0.000223328
0.000141749
-0.000103616
0.000201465
-0.000189781
-0.000257592
0.000447524
-0.000421932
0.000597798
-0.000136811
-0.000168637
-6.49483e-05
0.000379042
-0.000323942
-0.000533866
-0.000428557
0.000292598
0.000136071
-0.000636093
-0.000239639
-9.26229e-05
0.000114867
-0.000624242
0.000517577
-0.0006066
0.000444321
0.000162675
0.000521594
-0.000318165
-0.000203167
0.00104595
-0.000416675
-0.00062147
9.22845e-07
0.000438229
0.000792521
-0.00100402
0.000216237
-0.000440728
-0.000152112
0.000600707
-0.000173947
6.87394e-05
0.000105208
0.00077322
-0.000181549
-0.000591483
0.000541648
-0.000175033
-0.000358143
2.8521e-05
-0.000174089
-0.000177149
0.000871483
0.000183015
-0.000146434
0.000710619
0.000132642
-2.98085e-05
-0.000525952
0.000375112
0.000151303
0.000226548
0.000322463
0.000164973
-0.000106676
6.84262e-05
-0.000226166
0.00107349
-0.000351818
-0.000708295
-0.000709128
0.00100597
-0.000291931
-0.000166131
-0.000231303
0.000397501
-2.39809e-05
0.000165701
-0.00013642
-0.00023259
0.000556807
-0.000323901
-0.000102071
-7.18767e-05
-0.000160803
0.000141969
-8.57793e-05
-8.77127e-05
0.00015826
-0.000590917
-0.000251878
0.000161166
7.16658e-06
-9.39225e-06
0.000651683
0.000239564
-0.000888012
0.000631948
0.000419832
0.00066919
0.000147722
-0.000800711
0.000224346
-0.000300561
7.62539e-05
5.43023e-05
3.73949e-05
-5.92396e-05
0.00036684
0.000336253
-0.000186439
0.000583286
-0.000395867
-5.09761e-06
0.000424366
0.000289226
0.000268633
-0.000557689
6.86215e-05
2.11292e-05
1.84438e-05
-0.000290515
0.000496541
-0.000205765
0.000882489
7.13636e-05
-0.000948563
-0.000121713
0.000652265
-0.000528332
0.000237077
-0.000909507
-0.000849464
0.00046541
-0.000148288
0.000593636
-0.000436044
0.000132755
-4.56758e-05
-0.000245967
0.000443585
-0.000197494
-0.000205734
0.000785816
-0.000577138
-0.000324492
-0.000281577
-0.000230744
-0.000616106
0.000387713
-0.000384835
3.48947e-05
5.48681e-05
-0.000183459
1.07631e-05
0.000128308
0.000535361
0.00014457
-0.000667407
-5.22387e-05
0.000172056
-0.000118034
0.000495371
0.000707386
0.000186442
-0.000892152
-0.000262313
0.00027433
-1.19841e-05
-0.000221221
2.69301e-05
0.000194293
-0.000117588
-0.000310212
-1.41912e-05
-7.47812e-06
2.17734e-05
-5.93813e-05
-0.000351207
-0.00095072
0.000246494
-0.000249698
9.37707e-05
0.00085698
-0.000147909
0.000140729
-0.000239829
0.000105203
-2.24232e-05
-0.000863055
0.000149666
-0.000570883
0.000125582
-0.000782551
0.000664304
9.86721e-05
0.000758282
-0.000329377
0.000140485
2.80343e-05
8.09122e-06
-2.45264e-05
-0.000166348
0.000102757
-0.00029742
0.000290664
4.9665e-05
-0.000207304
0.000418473
-4.36418e-05
-0.000141161
0.000188687
0.000137916
5.10496e-05
0.000305189
5.18805e-05
-0.000336955
0.000572703
-0.000267981
-0.000304249
0.000820604
-0.000242218
1.66266e-06
-1.57344e-05
4.557e-05
-5.26611e-06
0.000191771
0.00017569
-0.000367365
0.000186812
-0.000247631
6.08246e-05
-0.000142987
0.000748676
-0.000599426
0.000774056
-0.000641209
-9.29889e-05
-0.000104284
0.000213328
1.51039e-05
-0.000228427
5.83237e-05
-0.000249081
0.000190776
-0.000800982
0.000205666
1.46811e-05
-0.000169071
0.000919575
-0.000573021
-0.000339413
0.000106378
0.000107761
-0.000214136
-0.000360648
0.000301398
0.000192166
-0.000170608
0.00112513
-0.000775013
0.00061372
0.000168014
-0.000766579
0.000457793
0.00030947
0.000248649
0.000382253
-0.000179519
-0.000202655
0.000539312
-0.000310717
-0.000228376
-0.000546715
0.00031452
-0.00032139
-3.02053e-05
0.000351797
-9.96564e-05
0.000187901
-8.82442e-05
0.000706668
-0.00011022
0.000630063
-0.000766738
0.000586756
0.000398349
-0.000103438
-0.000161659
0.000265129
1.67605e-05
-1.63102e-05
8.78988e-06
0.000136861
0.000127092
-0.000448248
6.41139e-05
-0.000264067
0.000426666
0.000541591
-0.000255128
0.000508157
-0.000252852
0.000124969
-0.000175454
-0.000303629
-0.000559218
0.000863212
0.000157517
0.000274798
-0.000427456
0.000184879
0.000204992
0.000528148
0.000293831
0.000469142
0.00061615
-0.000101324
-0.000143108
0.000244447
0.000147988
4.76198e-05
-0.000192264
-0.000172236
0.000307996
0.000161915
0.000418752
-0.000256428
-0.000818453
-3.91358e-05
0.000725072
-0.00068004
0.000225058
-0.000160164
-6.41093e-05
0.000459097
-0.000164437
-0.000283437
5.90612e-05
-0.000162918
0.000207559
1.85114e-05
-0.000974438
0.000556178
0.000420995
0.000647434
-0.000301135
0.000323479
0.000288389
-0.000611476
0.000931327
-0.000295862
-0.000631277
-0.000186777
0.000348835
-0.000162043
0.000293783
-0.000164843
-0.000548827
0.000843882
-0.000291881
0.000327151
-0.000102764
0.000613438
-0.000908388
0.000302673
-0.000335723
0.000659617
-0.000282288
0.000128149
-1.55134e-05
0.000329695
-0.000616255
0.000287477
-0.000732771
0.000504176
-0.000767321
0.00058829
0.000197323
-0.000554399
0.000328224
0.000250328
0.00067947
1.32229e-05
-0.000680166
-0.000709594
0.000347574
-0.000269287
0.000692897
-0.000418581
-0.000149907
-0.000563222
0.000724144
-0.000681194
-0.000193823
0.000885982
0.000338182
-0.000528952
0.000191079
-2.78439e-05
0.000736233
-0.000707614
-2.5724e-05
0.00016469
-0.000134411
-6.10072e-07
-3.74967e-06
7.78343e-05
-0.000340109
-0.000521215
0.000266293
8.92241e-06
0.000674174
-0.000327107
-0.000643644
-0.000184357
-0.000153618
0.000338
0.000428103
0.00028738
-0.00071533
2.29565e-05
8.04569e-06
0.00029661
-3.2061e-05
-0.00014708
-0.00010261
-0.000352374
7.26036e-05
0.000285168
0.000162272
1.75403e-06
-0.000158913
-0.000762327
0.000558366
0.000205446
-0.000294452
-0.000234074
0.000141031
0.000520423
0.000142623
-0.000136557
-8.16181e-05
-0.000265356
-0.000130677
-0.000150571
0.000281253
0.000876985
-0.000256249
-0.000634136
0.000309827
0.000324926
-0.000165897
5.92208e-05
-0.000425421
0.000135166
-7.63557e-05
0.000586528
0.000142235
-0.000853764
-0.000306071
0.000119308
-0.000525869
0.00084314
-3.35733e-05
0.000144315
-3.25396e-05
0.00017788
-0.000141143
-0.000275715
0.000623944
-0.000328141
-5.00491e-05
0.000201402
-1.54355e-05
0.000217009
0.000128012
-0.000789194
-0.000120394
0.000775741
-0.000649609
-0.000372543
0.000188219
0.000357516
9.39389e-05
-0.000447792
0.000198485
-0.000626235
0.000371593
-0.000586298
0.000253397
0.000333292
0.000345631
7.14521e-05
-0.000413653
-0.0008486
0.000201771
0.000245501
-0.000435135
-0.000229515
0.000287861
-0.000645106
-0.000123216
-0.000266582
-0.000368527
0.00063519
-0.000577214
0.000570689
2.22489e-05
5.60817e-06
0.000168623
-0.000142098
0.000171597
-0.000842721
0.00069683
-0.000730019
-0.000436819
-0.000103606
0.000557246
-0.000110859
-2.02356e-05
0.000176336
0.000186487
-0.000126805
8.00378e-05
-0.00050031
-0.000231023
0.000520386
-0.000308245
0.00019344
0.000114839
-0.000150057
0.000187122
1.72976e-05
-0.000294145
0.000425689
-0.000131305
8.68466e-05
-0.000327524
0.000278139
-0.000277213
-9.20347e-07
-0.000204117
-0.000308667
0.000513519
0.000194831
-0.000246746
0.00019955
4.81404e-05
-6.53962e-05
-0.000180596
0.000609961
-2.70217e-05
0.000438387
-8.94135e-05
0.00029913
0.000359333
-0.000223954
-0.000135348
4.47444e-05
-4.88944e-05
-0.000679019
-0.000212781
0.000595847
0.000341241
0.000274862
-0.000615151
-0.000641342
0.000161173
0.000481144
-0.000294356
0.000239137
5.52464e-05
0.000202105
-0.000400888
0.000198937
0.000580454
-0.000368859
-0.000207037
0.000302556
0.000707809
-0.000908174
0.000461411
0.00066369
-0.000318031
-0.000345198
-0.000633415
0.000369138
0.000360204
0.000544223
-0.000566318
0.00017938
0.000387333
-0.000572491
0.000387026
0.000309292
-0.000135851
-0.000173431
-0.000110589
0.000355648
0.000308455
0.000194053
0.000206019
-0.000403725
0.000246484
0.000181524
-8.61284e-05
-7.62296e-05
0.000162359
0.000144978
-0.000112638
0.000176338
-0.000185839
0.000443955
-0.000105516
-0.000168971
0.000140346
-8.32417e-05
0.000161935
0.000200989
-0.000446816
0.000187141
-0.000128957
-0.000380899
0.000630102
-0.000249163
-0.000535194
-0.00021151
0.000167508
-0.000641777
0.000477002
0.000520787
-0.000337756
-0.000178859
0.000147354
0.000200135
-0.000347453
0.000217707
0.000204848
-0.000422497
-0.000816611
0.00020136
0.000621421
-0.000873338
0.000627465
-0.000466735
-0.000135616
0.000556128
-0.000301044
-0.000254791
0.000221451
0.000545932
-0.000766512
-0.000149267
-0.000532627
0.000693091
3.89107e-05
-1.21273e-05
0.000208686
-0.00090186
-0.000567148
-0.000183027
0.000630805
0.000192435
-0.000818532
-0.000198631
-0.000323439
0.000522812
1.29406e-05
0.000381509
-0.000179257
-0.000205457
-0.000172681
-0.000676981
0.00102682
-0.000339125
-0.000581261
-0.000149166
0.000192422
-7.27611e-05
-0.00011966
-0.000110206
0.000143345
-2.15993e-05
0.000269709
0.000354635
-0.000622807
-0.000597701
0.000453365
-0.000333121
-0.000252716
0.000397385
-0.00014347
-0.000253751
0.00049277
-0.000650154
0.000158041
0.000143827
-0.000280383
-0.000718941
0.000637423
8.48667e-05
-0.000555942
-0.000202669
7.81054e-05
0.000137863
-0.000268535
-0.000101518
-6.43784e-05
0.000491197
0.00015118
-0.000629823
0.000660752
0.000184788
-0.00083512
0.000302848
0.000280798
0.000249192
-0.000790756
0.000554851
0.000143436
-0.000231874
8.84437e-05
1.23828e-06
0.000169667
0.000620724
0.000259671
-0.000879985
-0.000605895
0.000432745
0.000228633
-9.57699e-05
-0.00013286
-0.000146026
0.000580323
-0.000184734
0.000154409
3.0325e-05
-0.000425704
0.000522565
-8.97997e-05
-0.000208461
0.000298347
-2.9415e-05
8.6729e-05
0.00060687
-0.000193102
-0.000407614
0.000108177
0.000120458
-2.23205e-05
-0.000142121
-0.000246047
0.000231312
1.47498e-05
2.5446e-06
2.3219e-06
-3.1746e-06
7.17507e-07
-0.000100259
0.000842382
-0.000233989
-6.03396e-05
0.000784008
-0.0001487
-0.000119592
-4.72268e-05
0.000174254
0.000333012
-0.000189224
-0.000143739
0.000196347
-0.000490247
-0.000450621
-0.000404284
-0.000298723
9.61026e-05
-2.20431e-05
-0.000159831
0.000181875
0.000200281
7.78679e-05
9.22954e-06
-0.000108748
-2.02387e-05
-9.44372e-05
0.000114676
-4.55193e-06
-5.07754e-06
1.15426e-05
0.000135401
-0.000343534
-0.000385024
-0.000562925
0.000188703
0.00042371
5.21248e-05
-0.00018657
0.000136259
-7.8134e-06
8.67386e-06
-0.000375173
-0.000190728
-0.000187862
-0.00053129
0.000146765
7.21107e-05
-2.81179e-05
-3.88476e-06
9.50099e-05
-3.65478e-05
-0.00015413
-0.00014458
-0.000491376
-0.000123947
0.00063296
0.000426672
-0.000242948
-0.000183602
-0.000861287
0.000191308
4.94147e-05
-0.000161288
-1.17552e-05
2.83698e-05
-0.000430911
0.000113869
-0.000275268
0.000230078
4.52056e-05
-0.000112933
-7.18008e-05
-0.000226937
-0.000201487
0.000310538
-0.000508455
-0.000316962
0.00021792
9.90654e-05
-0.000166954
8.69182e-05
0.000150576
0.000319243
-0.00020341
0.000354634
-0.0001512
-3.38955e-05
8.20442e-05
0.000263801
-0.000344566
8.08128e-05
0.000762666
-0.000500983
-0.000247019
0.00014571
-0.000716014
0.00016604
0.00088963
-0.000692667
3.47638e-05
0.00074646
-0.000789751
0.000428179
9.80796e-05
-0.000525786
-6.6618e-05
-0.000123984
0.000190607
2.41622e-05
-4.25749e-05
2.98411e-05
-0.00032559
-0.000199899
0.000819369
-0.00050196
-0.000308387
1.47399e-07
-5.33369e-06
-0.000177467
7.78109e-05
-0.000308151
-0.000364992
0.000673449
-0.000718602
0.000480369
0.000245226
0.000206356
0.000175972
0.000397704
0.000179305
0.000392698
-0.000566026
-5.70291e-06
1.93453e-06
-9.39819e-05
-8.34842e-05
-0.000815901
0.000345986
0.000868728
0.00014012
-0.00013449
-0.000336161
-0.000375814
0.00013404
-0.000237451
9.27755e-06
-8.07131e-06
0.000146104
-0.000340612
0.000194579
2.021e-05
2.64536e-05
-2.9994e-05
-5.12635e-05
-0.0002927
0.0003662
0.000351921
0.000170489
0.000124385
7.37083e-05
-0.000147833
7.41248e-05
-0.000248682
2.64925e-06
0.000647062
0.000197153
-0.000843306
-0.00014255
0.000336668
0.000111843
-0.000520411
0.000364099
0.00059383
7.44763e-05
0.000117947
-0.000263772
0.000209455
5.43274e-05
-0.000226932
-0.000533853
-0.000619125
0.000546001
0.000301721
0.000592294
5.54569e-05
-2.14791e-05
-4.94591e-05
0.000636556
-0.000575875
1.01142e-05
1.1682e-05
0.000410226
-0.000188109
-0.000221967
-0.000524951
0.000694199
-0.000167733
0.000174355
0.000134946
0.000506085
-7.74519e-05
-0.00016644
-0.000617337
0.000784459
-0.00019044
0.000408196
0.000574809
-0.000777774
0.000548252
-0.000274612
-0.000273161
-0.000373913
0.000198629
8.71333e-05
0.000432196
-0.000288127
-0.00044105
0.000732595
1.18812e-05
-1.83322e-06
-0.000333875
0.000304069
2.10735e-05
4.99285e-05
-1.05772e-05
3.05849e-05
0.000172462
0.000352194
-0.000105181
1.45907e-06
0.000143972
-0.000104457
8.42181e-05
0.000277922
-0.000528219
0.000250663
-2.31607e-05
-9.16669e-05
0.000139149
-0.00017669
-0.00015262
5.63848e-05
-2.32925e-05
-7.02055e-05
-0.000151013
0.000585414
-0.000419117
0.000682433
-0.000534873
0.000122272
6.48705e-05
-0.000137781
0.000362239
-0.000224311
-0.000292844
-0.000104301
0.000691983
-0.000751019
6.51953e-05
-5.26532e-05
0.000178383
-0.000123252
-0.000153982
-0.000493897
0.00065919
-0.00060915
0.000614487
-2.11887e-06
-0.000383007
0.000399215
-1.57533e-05
0.000598273
0.000160845
-0.000744604
-0.000167185
9.47411e-05
7.24441e-05
-0.000621987
9.93348e-05
0.000523552
0.000591383
0.000213338
-0.000803947
9.96425e-05
-0.000392026
-0.000713545
0.000428696
-0.000141969
0.000119927
0.000627111
-0.000456945
-3.65659e-06
6.71283e-05
-4.50452e-05
0.000490876
-0.000168732
6.66617e-05
0.000266587
0.000116138
0.000499295
0.000131738
-0.000165312
-0.000268361
0.000888127
-0.000619315
-7.09415e-05
0.000396919
0.000679073
-0.000131321
-0.000666586
0.00079774
0.00020192
-0.000109226
0.000395168
-0.000285034
0.000473612
-0.000709493
0.000103995
-0.000302213
0.000573354
0.000261373
-0.000214761
-0.00073041
0.00019178
-0.000371221
-0.000165996
0.000444224
0.000170584
-0.000845996
1.66551e-05
0.000501163
-4.87678e-05
6.32958e-05
0.000144995
-0.000527316
-0.000696988
0.000130453
-0.000139715
0.000697276
-0.000555356
0.000622721
-0.000403448
-0.000214819
0.000120322
-0.000177111
5.67896e-05
-2.35771e-05
3.66762e-05
-1.2649e-05
0.000615752
-0.000883677
4.0764e-05
-0.000657013
0.000887867
-0.000621021
-0.000265081
0.000583239
-0.000446097
-0.00013602
-0.000227375
-3.63858e-05
-2.285e-05
6.03925e-05
0.000398713
-0.000170066
-0.000228531
-5.26129e-05
-0.000222642
-1.78481e-05
1.35992e-05
4.24863e-06
-0.000827166
0.000591437
0.000249199
0.000514575
1.42884e-05
-8.01955e-05
-0.000836311
0.000432706
0.000419691
5.13083e-05
0.000775381
-0.00081654
0.000267135
-0.000801866
0.000536981
0.000432691
-0.000339991
-9.08515e-05
0.000337954
0.000378216
0.000105504
-0.000467871
-0.000273526
0.000104248
0.000169288
-0.000529872
0.00027466
-0.000118944
0.000460966
-0.000167489
0.000296001
0.000630602
-0.000307824
0.000218112
-0.000694581
0.000241661
-0.000132159
0.000158788
-1.68602e-05
0.000231834
-0.000369461
0.000266246
0.000192753
-0.000458812
0.000266787
-0.000432488
-0.000144263
-0.000366385
0.000521488
-0.000438358
-0.00013813
0.000466198
-0.00050639
0.000148046
-0.000804571
0.000257026
-0.000151986
-0.000437354
0.000597048
0.000265238
-0.000472295
-0.000115867
0.000728271
-0.000129726
-0.000470197
0.000614017
-0.000361099
2.38017e-05
-0.000327519
0.000604396
0.000174096
-0.000776373
0.000652856
-0.000224635
-0.000438399
-0.000327429
8.93247e-05
-0.000532428
0.000590997
0.000133255
0.000796238
0.000282366
-0.000120783
-0.000161561
-0.000409985
0.000604303
-0.000118227
0.000709685
-0.000587427
-2.70681e-05
3.17588e-05
3.10713e-05
3.6374e-05
-5.4458e-05
-0.000684747
-0.000111626
0.000803123
-0.000173097
-0.000536504
0.00071161
0.000637578
-0.000144242
0.000357323
-0.00049104
5.03521e-05
-0.000170996
0.00012166
0.000677555
-0.000845449
0.000176117
0.000304764
-0.000689229
0.000599563
0.000294318
-0.000497744
0.000137785
-2.70561e-05
0.000319743
-0.000208353
0.000138659
0.000140785
-0.000279431
0.000782889
-0.000176528
6.49142e-06
-2.41817e-05
0.000168785
-0.000141853
0.000419422
-0.000741437
0.000324765
-0.000108595
0.000705359
-0.000532303
0.000568344
-0.00082524
0.000258426
0.000950525
-0.000680308
-0.000264746
0.000162041
0.000429249
-0.000579381
-0.000254922
-0.000558275
-0.000195627
5.71668e-05
0.000138461
0.000372977
0.000204629
-0.000576823
0.000796926
-0.000148991
-0.000383189
0.000670705
-0.00038844
-0.00043037
0.000435839
-0.000168757
8.72931e-07
-6.78218e-06
0.000501473
0.000185023
-0.000682034
-0.000232715
0.000774232
-0.000540531
4.5818e-06
5.29088e-06
-0.000287376
0.000203092
-0.000633781
0.000432271
0.00080759
-0.000237722
0.000141483
-0.000354257
-0.000914019
0.000684553
0.000231309
-0.000273157
-3.86282e-05
0.000321592
-6.85179e-05
1.37946e-05
6.78662e-05
0.00026794
0.000271567
0.000506073
0.000700439
0.000153904
-0.000845679
0.000808751
-0.00059605
-0.000209297
0.000636449
0.000178704
-0.000804626
0.000392538
-4.04855e-05
-0.000224904
-0.000784008
0.000385065
0.000399357
-0.000639062
0.000815422
0.000118144
-0.000155657
3.75128e-05
-7.32953e-05
-0.000182333
-0.000623465
0.000807208
0.000196986
0.000340296
-0.000606795
0.00013256
0.000900233
-0.000712071
0.000344691
2.73223e-05
-0.000351114
0.000171241
0.00036801
-0.000533512
-0.000993833
0.000404941
0.000600302
-0.000725664
0.000571547
0.000157632
0.000116436
0.000518664
-0.000117436
-0.000523564
0.000655488
-0.000559434
0.000532169
0.000849991
0.000247406
-0.000106575
-0.000140822
-0.000584993
-0.000214978
-0.000506814
0.000336238
0.000171044
0.000299265
-0.000509258
0.000210228
-0.000157819
-0.000454938
0.000624051
0.000260074
0.000435501
-0.000186327
0.000608286
0.000214311
-0.000658421
0.000450096
-0.000643396
0.000309023
0.000335443
0.000189765
-0.000138811
-0.000185736
8.06393e-05
0.00021825
0.000192101
-4.25462e-05
0.000146344
-0.000102796
0.000650742
-0.000494149
0.000571544
-0.000747597
-5.07642e-05
-0.000723677
-0.000191364
0.000877001
-0.000308077
0.000357139
2.85856e-05
-0.000364979
-0.00064822
-0.000519077
-0.000179526
-0.000287469
0.000101562
0.000186326
-0.000274049
0.000910784
-0.000633349
0.000802453
-0.000555874
-0.000232173
0.000190332
-0.000239079
0.000651053
0.000431133
-5.23128e-05
-0.000281915
0.000155946
-0.000609077
0.000897712
-0.000285182
0.000327928
-0.000108601
-0.000369329
0.000493024
-0.000373305
0.000180439
-4.60639e-05
-0.000131513
0.000679523
-0.000862982
9.45543e-05
9.33471e-05
-1.30169e-06
-5.43029e-05
0.000546895
0.000139288
-0.000330852
0.000154232
-8.68767e-05
5.24982e-05
0.000130395
-0.000196519
-0.000676224
0.000874133
0.000145845
0.00013654
0.000189227
0.00031177
-0.000495665
0.00100439
-0.000768987
-0.00022933
0.000831529
0.000100335
-0.000745141
0.000678925
8.97368e-05
0.00016473
0.000168322
-0.000438713
-0.000267517
0.000712822
9.76089e-05
-0.000183737
-0.000574546
0.000816981
-0.000257228
0.000486504
-0.000229222
0.000539649
0.000113244
-0.000146194
3.64248e-05
8.85777e-05
0.00012001
-0.000106657
4.28756e-05
6.06834e-06
-2.91895e-05
-0.00012742
-7.52471e-05
-0.00085966
0.000248213
0.000615426
-5.45117e-05
0.000436914
-0.000361415
-0.000691685
-0.000203908
0.000896805
0.000469079
0.000546389
-0.000369216
0.000209414
0.000244233
-0.000789831
0.00019642
-0.000259417
-0.000374053
0.00023686
-0.000356743
0.00011996
0.000301114
0.000357936
-0.000658548
-0.000165184
6.25709e-05
0.000102614
-0.00022943
0.000850684
-0.000616068
0.000218914
0.000712539
3.95837e-05
-0.000732707
-6.327e-05
0.000156405
-9.31345e-05
-8.7352e-05
-0.000750836
0.000696248
5.98757e-05
-0.000184708
0.000141539
-0.000631439
0.000467978
0.00017003
-4.87935e-05
-0.00013292
0.000146616
-0.000347917
0.000207258
0.000156076
0.00032804
-0.000476901
0.00082706
-0.000596641
-0.000215143
0.000328522
-0.000533736
0.000205957
1.62004e-05
-0.000138784
-0.000600835
-0.000254724
-0.000362121
0.00022168
0.000140536
-0.000311244
0.000136227
0.000175024
-0.000128099
0.00026677
-0.000166311
-0.000164464
0.000659196
-9.66835e-05
0.000186335
9.21879e-05
0.000639416
-0.000712072
-0.000283163
0.000162402
-0.00053457
0.00075691
-6.92318e-05
-0.000273755
8.6322e-05
0.000192853
0.000394506
-0.000228794
0.000105627
0.000170371
0.00062413
0.000237158
-0.00085247
-0.000203066
-6.55888e-05
0.00015306
-0.000199831
0.000553269
-0.000717996
0.000185523
0.000278663
0.000270037
-0.000420396
0.000386948
-0.000103374
-5.05309e-05
0.000153905
0.000166691
0.000470517
0.000122522
-0.000575349
-0.000132272
-6.33532e-05
4.09107e-05
0.000690263
0.000544212
-0.000521293
-0.000685508
0.000178816
-0.000182639
8.86584e-05
0.000595889
-0.000239859
-1.95467e-05
6.86366e-06
1.84859e-05
-0.000400729
0.000513394
-0.000633309
0.000131231
0.000154447
-0.000262861
0.000102377
0.000160492
0.000553189
-0.000678401
0.000344928
0.000333654
0.000636669
-8.65198e-05
0.000432463
0.000376447
-0.000636225
0.000210349
0.000249155
-0.000453361
0.000685885
-0.000280154
-0.000682469
-0.00022949
-0.000590569
-0.00012634
-9.34562e-05
-7.34975e-05
-0.000664859
-1.67664e-05
0.000685868
3.03379e-05
7.41523e-05
0.000353951
0.000655238
-5.78272e-05
-0.00059467
0.000670668
-0.000525763
0.000321259
-0.00017846
-0.000142746
0.000482061
-0.000261408
8.14409e-05
-0.000604896
-6.27898e-05
-0.000105942
7.21354e-05
-0.000175509
-0.000899001
0.000218705
0.0001407
0.000180607
0.000311247
-0.000479025
0.000165916
-0.000102637
-6.3279e-05
0.000240194
-0.000416977
-0.00023167
0.000368628
-0.000136933
0.000238218
0.000509294
-0.000178744
0.000359017
0.000277042
-0.000633152
-1.01058e-05
-0.000360054
0.000370212
0.000227128
-9.58655e-05
-0.000131257
-4.42851e-05
0.00018085
-0.000134309
-0.000818293
-2.87154e-05
0.000144044
0.000482575
-0.000586968
0.000220068
0.00020846
-0.000841606
-0.000654873
0.000222575
0.000275253
-0.000459112
0.00018398
-0.000135774
0.000113869
2.19057e-05
0.000456735
0.000192137
-8.57237e-05
0.000172642
-1.95868e-06
6.05586e-06
0.000210984
-2.93368e-05
-0.000176679
-0.00027157
-0.00012297
-9.35386e-05
0.000216513
-0.000612862
-0.000109181
-6.82142e-06
4.18535e-06
-0.000420544
-0.000189715
0.000687657
-0.000820293
0.000143306
0.000544237
-0.000537304
0.000806761
-0.000894341
0.000613482
0.000283134
-0.000715669
-0.000264952
-0.000827896
0.000141275