/*--------------------------------*- C++ -*----------------------------------*\
| =========                 |                                                 |
| \\      /  F ield         | OpenFOAM: The Open Source CFD Toolbox           |
|  \\    /   O peration     | Version:  v2012                                 |
|   \\  /    A nd           | Website:  www.openfoam.com                      |
|    \\/     M anipulation  |                                                 |
\*---------------------------------------------------------------------------*/
FoamFile
{
    version     2.0;
    format      ascii;
    class       volScalarField;
    location    "850";
    object      omega;
}
// * * * * * * * * * * * * * * * * * * * * * * * * * * * * * * * * * * * * * //

dimensions      [0 0 -1 0 0 0 0];


internalField   nonuniform List<scalar> 
13917
(
5.20045
0.0397375
0.204062
0.022246
0.0288412
0.0390965
0.0266815
0.0839178
0.0254549
8.24322
0.0817968
0.021776
0.0245543
1.48858
0.0279612
6.80159
0.0219112
0.0692512
0.108934
6.87627
0.0339569
0.0217391
0.0443388
0.0217405
0.023295
0.0361518
1.58844
11.2768
0.0476299
0.0200016
9.53093
0.0645793
0.0222734
3.00375
0.0213959
0.119921
0.0240584
0.0235794
0.0267139
0.0382738
0.0218895
0.0216842
0.023982
0.103369
0.10263
0.218371
0.0321546
5.1271
1.27476
0.0214125
0.0217422
0.111607
16.2134
0.0217023
0.0217764
0.110557
8.61347
0.0443482
0.0215652
0.163948
3.55228
0.0287494
0.0210285
0.0231079
3.12119
0.0327252
0.0524817
0.103208
0.0784905
5.75458
2.88531
3.11931
0.0217445
0.0213445
0.0348747
0.0237759
0.0245732
0.0212554
0.0235538
0.02235
0.0222974
0.0220148
0.0217275
3.04989
0.0211502
0.125071
0.0622797
0.0216268
0.0379548
0.0218355
0.0207449
0.0241506
1.25935
0.0210885
0.0222469
0.052194
0.408557
0.0222654
0.0215275
0.116036
0.0214136
0.0213092
0.0223454
0.021468
0.0244936
3.36162
2.79375
0.0285889
0.02198
1.72925
0.021541
2.96412
0.0475204
5.78118
3.12817
0.0242017
0.101978
0.0208912
0.176868
0.0216618
0.0219109
0.0210081
0.0581908
0.0894199
5.31718
3.15943
0.0229378
0.0368244
0.0211392
0.090795
0.032187
0.133475
3.5833
0.0241573
0.0755086
1.7599
3.2671
5.23854
0.0386761
0.0235272
0.841621
0.0211182
3.35712
0.0211942
0.0216687
0.0243276
2.86388
0.612228
5.23925
0.0217385
0.035178
0.0211805
0.0216471
0.0216705
1.02315
0.0224364
0.0214053
3.55027
0.0215269
0.0210883
0.0211332
2.90241
0.0260776
0.822953
2.69915
0.126973
23.3594
4.08983
0.0195927
0.0411846
0.0218729
3.47935
0.0254135
3.26379
0.067513
0.0213331
0.0222492
0.122207
0.03144
0.0266618
0.023876
0.0217786
0.0217404
0.171266
0.182861
0.117429
0.021713
0.171909
0.0200146
0.118922
0.067553
0.0948944
0.132917
4.98757
0.021096
5.13666
0.0258472
3.65115
0.0213576
0.0221973
0.0301156
5.53538
6.66891
0.0236785
1.65172
0.0359198
0.0355402
0.0211207
0.120887
0.0222927
0.0208759
0.0358951
0.0417791
4.69978
0.0734215
0.0380729
2.96819
0.0226348
0.0203387
0.0203271
4.34152
0.156603
0.147437
0.0213637
0.0211548
1.79391
6.18875
0.0202893
0.0202779
0.0218923
0.0203491
0.0203401
3.26382
3.23877
0.0219161
0.0195974
0.0723384
3.35229
0.0216569
0.021361
1.73271
3.42035
0.178023
2.95771
0.092058
0.0212023
3.35634
0.075222
0.0442109
0.0730204
0.0234208
3.52123
0.0216752
0.040998
0.0612548
0.0220291
0.0220142
0.0230858
0.0268684
0.0214612
3.71594
1.13303
0.021015
0.020279
0.0225588
0.0202834
0.0216798
0.0245385
0.0362908
0.0211318
4.19053
2.73439
0.0215112
0.0249722
1.01554
0.020228
0.0894151
3.3447
0.0202387
4.25114
0.021367
2.89724
0.0214252
0.0263761
0.0221054
0.0211614
0.142568
0.0227141
0.127268
0.0282433
1.09763
0.0248795
1.00401
5.45911
0.0211561
0.0504141
0.0274596
0.0244981
0.0282264
0.0235103
0.0211585
0.0223877
0.120408
0.0413069
0.039814
0.0233442
0.0213441
3.5932
8.22768
0.0210586
0.0239473
0.0245365
0.747996
0.119988
2.75894
3.02128
0.0591454
0.139645
0.024667
2.89241
0.851704
0.202525
0.0243628
0.0276736
1.48803
0.0221352
0.0426534
0.0939016
0.0217879
3.47746
0.0211959
0.0403747
0.0204275
18.7052
0.0207939
0.0375658
0.0365831
0.0578111
0.02168
0.0731349
3.14538
0.0221394
0.0221264
2.95257
3.22309
2.76185
1.50059
0.0202177
0.021876
3.48837
0.139752
0.0202311
0.0281472
0.0217105
0.0542839
0.0386465
0.108418
0.087869
0.090148
0.0399647
3.16266
0.0211781
0.0221476
0.0306198
0.175167
0.0217578
6.00137
0.0397281
0.289262
0.0218209
0.113823
0.0236505
1.08454
0.0217319
0.163661
0.86848
0.039278
0.0215352
1.85375
0.0206619
2.78072
0.144163
0.0217334
1.0977
0.0224936
0.270619
0.0206939
5.84405
0.269
0.0235764
1.83488
0.0790502
0.0230596
2.73594
0.219045
0.023166
0.143843
0.0217831
0.0810695
0.203338
0.0212207
0.0261118
0.0233174
0.0211469
0.0209325
0.0212289
2.97884
0.124216
0.0219672
0.0212876
0.021581
0.0491672
0.227711
0.0202733
0.0196116
0.118128
0.113037
0.0211875
0.0234288
2.66458
1.63773
0.0984967
0.11514
2.6108
0.020718
0.0202446
0.0309892
0.0209225
0.0202865
0.0219978
0.0202591
0.0206629
3.25312
0.0218296
0.0411671
3.84042
0.0500084
0.0208941
0.0216277
2.76447
0.0301624
6.4829
0.020371
0.0213469
0.0207527
0.0203598
0.023938
0.0226914
2.62306
0.0291311
3.45803
0.0213412
0.0346737
0.0290245
0.0222204
0.0902794
2.7431
0.0216759
1.80643
0.0209272
0.0213365
0.0215346
0.0225132
0.0208325
0.0222097
3.5496
3.48043
0.0208153
1.10235
0.116088
0.0218771
0.0545973
0.069602
2.70197
0.0268683
3.3774
0.291715
0.292469
0.0227165
0.0250929
0.029795
0.0232834
2.53327
0.0208889
0.0216479
0.0222531
0.0257806
0.0331307
0.155844
0.0520625
0.0243332
0.0257884
0.0671652
0.0530033
0.0219693
1.35985
0.0355895
0.0282684
2.87022
0.0211587
0.0549447
0.135519
0.0208364
3.35774
0.0214399
0.0203564
0.0504336
0.0203799
0.022445
0.119642
3.6091
1.81471
0.0211292
0.022454
0.023303
2.3608
2.29721
0.0218654
0.0217432
0.02111
0.0569042
0.522672
0.021196
0.021675
0.0221173
0.0211272
0.0259804
0.0283464
0.0210941
0.0528457
0.0208389
0.0216224
0.0231752
2.81824
0.0203995
0.0237172
0.0214668
0.0336398
0.0640758
0.0588972
0.0637328
0.12607
0.0229404
0.0589603
3.65956
3.00694
3.48205
0.0209862
0.0214891
0.0247889
0.0214267
3.17939
0.0202548
0.728661
0.0258372
3.52851
0.0982267
0.0239729
6.76425
0.0208055
0.0604623
0.0221776
0.0224397
3.54093
0.0203162
0.204803
0.0212572
0.0228599
0.0215331
0.148778
0.0264072
0.0202609
0.104389
0.0534696
0.323935
2.72382
3.66879
2.67934
0.0204069
6.01961
0.0205671
3.38742
0.603898
0.0230197
0.0244305
0.0213611
0.0351112
0.023629
0.0203277
0.0221929
0.0242673
2.41711
0.0211794
0.0584006
0.0216151
0.0202503
0.0214997
0.143853
2.80004
12.6249
0.0684422
0.0282108
0.991419
3.25255
0.0207191
2.71628
0.0240337
0.0935113
0.0214213
1.47597
0.021108
0.0264898
0.0216915
0.385598
0.0365
3.1191
0.0211783
0.0349344
0.0213792
0.021524
3.03945
0.130007
0.0215674
0.117598
0.0213438
0.0221457
0.0213199
2.91463
0.0211833
0.0273554
0.0202445
0.0214669
0.174301
0.0212266
0.109707
0.0221566
0.0208115
3.42841
0.0601119
0.0218098
17.5067
0.203111
0.101098
0.141899
0.0207896
0.0289787
2.91069
0.212157
0.0297328
0.0240732
0.026922
0.0220125
0.0212226
0.132786
0.0691295
0.0250042
3.31197
0.0369458
0.702214
2.36454
0.0387925
0.0358011
0.130474
3.81322
0.0211641
0.031263
0.158311
0.0208233
0.0212995
0.0214876
0.0249979
0.0224916
5.71876
0.0342128
0.0211751
0.0874737
0.0210778
2.7509
0.0213598
0.021137
3.5161
0.0603002
0.339523
0.0218052
0.0212004
0.0211054
0.0221384
0.0281575
0.0211481
5.99791
0.0302995
0.467226
0.344051
0.0309618
3.69138
0.0224596
0.0220983
0.0214407
3.24022
1.83459
0.0262491
5.72143
0.743527
0.0208044
0.021095
0.0239518
3.28238
0.343512
0.0367693
0.022104
0.0237147
0.0964782
0.0240343
0.10768
0.0343585
0.0221867
0.0223758
0.022118
0.0280675
0.025766
0.211746
0.0248854
0.0244426
5.74936
0.0209657
0.741826
0.023756
0.0334904
0.0256514
0.208922
0.0218746
0.057038
2.77025
0.235678
0.0214505
0.0249116
0.023097
0.0213417
0.0216759
0.0328752
0.0297792
0.15773
0.110399
0.0207633
0.197132
0.0254012
0.0258152
0.121215
0.02197
0.0603663
0.310681
0.0202863
0.0603496
0.0786436
0.0340471
0.0210394
0.0208597
0.0212113
7.08025
0.0222302
0.0215287
0.0398802
0.021173
0.0209401
0.105707
0.120448
0.0402686
1.68543
0.0501028
3.54664
0.021681
0.0250475
0.413713
0.0230654
0.0319901
0.0216585
0.0212602
0.0217792
0.0253678
0.0609878
0.0210347
0.091211
0.0219552
0.585723
0.0237943
0.0268078
0.0204371
0.0737977
0.0266486
2.83945
0.0422048
0.0220699
2.79518
0.0224652
3.93133
0.0234328
0.0573215
0.0235653
0.0209177
0.0214343
3.41087
0.0279797
0.123743
1.74261
0.0213356
0.0343177
0.0195842
0.0257715
0.573492
0.0196094
3.01504
0.023797
0.0601685
0.0995972
0.403637
0.0204076
0.0213453
0.0966188
0.0207795
0.0216654
0.0229572
0.021443
0.0399934
0.020396
0.110423
0.0221833
5.56599
4.04147
0.718652
3.52969
1.79923
7.4022
0.782904
0.020743
0.0220319
0.0215699
0.0224708
0.0211141
0.0280982
0.021224
0.316679
0.0217015
1.47019
0.0221459
0.0305338
0.0844756
0.0210241
0.0410126
0.0224633
0.0226893
0.0259291
0.0206593
3.77313
0.0738734
0.174136
0.0210559
0.0215089
0.0219565
0.0220362
2.7357
0.020765
0.125949
0.0210911
0.287869
0.0260447
0.0212052
0.0587599
0.0293564
0.0207761
0.331607
2.67748
0.024061
0.0736393
0.0207585
0.120635
0.0209513
0.0220355
3.51947
0.0215995
0.022323
0.08607
3.85186
0.0215789
0.829495
1.21175
0.021871
0.0230886
0.0214886
2.24829
0.0214808
0.111996
0.0216846
3.4047
0.0264084
2.29924
0.0212907
0.020137
0.287165
0.0229693
0.0208778
3.67585
0.0229109
0.0209208
0.880949
0.021882
0.0220249
0.0682618
0.0230611
3.18389
0.0388101
0.0693996
0.129232
0.0236489
3.35557
0.0223996
0.0640787
0.0213883
3.68031
0.286655
0.0218608
0.0209957
0.022102
0.0218686
0.0207516
0.0207268
0.0210798
0.0214259
0.0288572
0.0202869
0.0227302
0.0687038
2.69611
2.84199
0.0800209
0.0219669
0.293548
0.0211795
0.397875
0.539426
24.4406
0.0203156
0.0207525
0.0217266
0.0216069
0.0202962
0.020744
0.0212463
0.036948
0.0209284
10.753
0.867675
0.0209555
3.43639
0.0213992
0.0212393
0.0277722
2.88252
0.0576818
0.0212511
0.339941
0.0212257
0.0212454
0.325085
0.0221394
0.948147
0.0224065
0.0763309
0.0209038
0.0210675
0.0303959
0.184988
0.0228434
3.07824
0.0305305
0.0229633
0.0233953
0.0215068
0.0208413
0.0861154
0.0333377
0.0248362
3.13635
7.72395
0.1207
0.0908607
0.0210196
3.25736
0.0210098
2.8818
0.0595963
0.0262026
0.0226696
2.41351
1.80257
2.59182
0.022099
0.559706
0.0207737
0.0212297
0.0344907
0.0221273
0.02166
0.324192
4.14517
0.0210663
0.0271421
3.41869
0.0212242
0.0202408
0.719758
2.77406
0.0223527
0.0206653
0.0262714
0.0216053
0.0211976
0.0329821
0.0255486
0.0215509
0.406544
0.0221125
0.2531
0.564882
0.0301941
3.56569
0.0218333
0.0220984
0.0828018
3.86392
0.208993
0.0242145
0.0316235
0.0220072
0.0224363
0.0215419
2.81862
0.0274008
0.0223143
0.0505453
0.0211622
0.235504
0.0717057
0.108648
0.0560827
0.358566
0.33973
2.61272
3.17632
0.0235621
0.34541
0.0202551
0.0553394
0.0735533
0.565563
0.0245277
0.0224596
0.0253389
0.738275
0.0230487
2.68686
0.0341839
0.0819974
2.73397
0.0212453
0.092686
0.0233594
0.0216485
0.027489
0.201248
0.0202524
0.0207124
0.0226984
3.00331
0.0209184
0.0229237
0.0236279
0.0223963
0.0215478
0.0850308
0.0648958
0.0223187
0.0210176
0.0922115
0.0668068
0.0357613
3.43072
0.0218542
0.0214506
1.80617
0.021537
0.0231374
3.21191
3.45442
0.0292122
0.0553759
0.0262726
7.62326
0.12972
0.0318404
2.72078
0.0211526
0.0747677
2.66283
0.188887
0.460812
0.692413
0.0206397
0.0215812
0.0243995
0.0215701
0.0216726
0.210901
0.0216088
0.0431062
0.0204867
0.0539993
2.74997
0.0230899
2.47952
1.80156
0.02145
0.0707808
0.0259688
0.0227908
0.0213434
3.33264
0.0671473
3.65129
0.0271371
4.01465
0.0801432
0.021231
0.639109
0.0343772
0.0227256
0.0212188
0.171159
0.0213501
0.0253754
0.0358228
0.0253291
0.0220377
0.052544
2.24869
0.0211457
0.150725
0.072242
0.0216637
0.0211566
0.0243943
2.49173
0.305857
0.0208542
0.0297254
0.0281457
0.597921
6.65472
0.0216173
0.0209434
0.0206371
0.0215128
0.0244544
0.0238111
2.76556
0.022116
0.0242287
0.219517
0.0282715
0.0790232
2.81173
3.90221
0.0218333
0.0215369
0.0208953
0.0226444
0.0650408
3.8314
0.131023
0.0868493
0.0296903
0.0476769
0.0235413
0.025687
0.0251085
0.101151
0.0210923
0.1106
0.0314749
0.0207609
0.0217847
3.02099
0.0468782
0.153356
2.7274
0.115661
0.0211079
0.696078
0.023476
0.0212364
2.76759
0.452223
0.0211076
0.0291728
0.0984826
0.0330206
0.0222567
0.0203778
0.0211694
0.020867
0.0213384
0.0291703
0.0488615
4.46997
0.0334896
0.0255256
0.0308793
0.0774483
0.0209819
0.0331999
0.156154
0.211353
2.72433
0.022841
0.0203612
3.5638
0.0210521
0.198733
0.0228525
0.0413482
0.0219037
0.0211026
0.182297
0.0259884
0.022754
0.0214988
2.35183
0.330379
3.31738
0.0217976
0.0215512
0.805642
0.0210728
0.0207412
0.109062
0.463125
0.0265033
0.0326277
0.0221905
2.89635
0.0212465
0.0242816
0.0220389
0.0203467
0.209144
0.0212425
0.020849
0.397523
0.0552866
2.17349
0.20309
0.0211858
0.0295928
0.0209471
0.0210683
0.0234428
0.0225372
0.0216398
0.178349
0.0216079
0.0677325
0.027086
0.024945
0.0216241
0.0218782
0.0211789
3.37647
0.0202458
0.423793
0.0652936
0.0228461
0.0496328
0.0325828
0.0299075
0.0215351
0.0262677
0.0209345
0.0207559
0.272859
0.0355244
0.0258936
0.0213694
0.0212789
0.0210197
0.0702949
0.0211648
2.91509
0.0438293
0.0211314
0.0213124
0.0206122
0.0435698
0.0958378
1.80462
0.0327714
0.226904
0.0251939
0.0883749
0.0237749
2.8808
0.0204794
0.0202087
0.0247392
0.240979
0.0206397
2.97588
0.0216086
0.0214792
0.11127
0.169933
8.21096
0.146434
0.0254551
0.135273
0.0647591
0.0206875
2.89497
0.0214095
0.0213229
2.14691
0.0205429
3.00123
0.0299514
0.0210738
0.0214407
0.0207202
3.70199
0.0215605
0.0203753
0.070303
0.0211911
0.0209169
0.0215612
0.0207039
0.0432759
0.0217249
0.024047
0.0207028
1.04907
0.0499392
0.0207225
0.02073
0.0223024
0.0212969
0.0237962
0.0218706
0.0212758
0.0217524
0.0214568
0.0224908
0.0215105
0.0614318
0.020606
0.0742203
0.0216535
0.0459886
0.0208222
0.0216186
0.0211537
0.0202867
0.0352538
0.0260657
0.0249603
2.23046
0.0800302
3.46682
2.82466
0.0742433
3.59101
0.0216103
0.0214871
0.446285
2.76434
0.0210971
3.36194
0.0206998
0.10985
0.791089
0.0236668
0.0760658
1.59
1.96218
0.0213605
0.0449629
0.0209712
0.120986
0.02414
3.19813
5.39157
0.0217252
0.0463196
0.212055
0.0220166
2.30685
0.253226
0.0231255
0.020954
0.206937
3.34978
0.0206856
0.0312325
0.0219185
0.126213
0.119924
0.0215703
0.0208506
1.90533
0.0210261
0.0214564
0.0221259
0.0207281
1.67832
0.0285086
0.0280368
3.20894
0.0213436
0.0554079
0.021732
0.197753
0.0524627
0.143541
0.0207916
0.0272448
0.0209277
0.0217074
0.0237323
0.0215054
2.51131
0.0226305
0.020768
0.0211573
0.271569
0.0209367
0.504806
2.57801
0.777172
0.0215343
0.0209143
0.0212485
0.826446
0.0218121
3.23962
0.0214342
0.329524
0.0229998
0.022675
0.182404
0.0216277
0.0218443
3.4024
0.100495
2.95417
0.0218491
3.52342
1.72541
0.0215675
3.15114
0.0217106
0.0253202
3.5026
0.0234734
0.0399399
3.71416
0.0293187
0.0634625
0.0216099
2.53754
0.0214355
0.554202
0.0212511
4.27126
0.021457
0.0215775
0.0233738
0.555028
0.0209468
0.0621934
0.0606644
1.44285
0.0212656
0.0286674
3.51974
0.15004
1.79992
0.0716983
0.0208179
0.100793
0.237294
0.0239385
1.20126
0.0201696
0.128945
6.17529
0.0209883
6.55978
0.0213147
3.4545
1.08466
0.0236962
0.0237694
0.562893
0.721055
0.021478
0.0227747
0.0207419
0.0215907
3.17969
0.060585
0.163372
0.0216671
0.027026
3.04409
0.0301981
0.720415
2.26441
0.0211479
0.0213905
0.174682
2.63182
2.23291
0.728072
0.182728
0.0372529
0.0514321
3.47761
2.67399
0.494001
0.020954
0.074078
0.0428508
0.0662381
0.021459
0.0258403
0.0561668
0.120608
0.779975
0.0220138
1.53555
3.19266
0.0414701
0.0214332
0.0214379
0.0882193
0.0209485
3.59107
0.027619
0.0217301
0.153697
0.0365269
0.0207081
0.0347388
0.0291131
0.0214851
3.74023
0.0264121
3.75977
0.0209802
3.03696
0.282658
0.182568
0.0202858
0.0261077
0.0297976
0.136676
0.102881
0.0638719
3.18372
0.126878
0.0196398
0.0254563
0.0222776
0.112679
6.34205
0.0208089
0.0206839
0.022678
0.918936
0.146039
0.0210334
0.0476676
0.150415
0.0209253
0.0345614
0.0238285
3.74819
0.0269303
0.0973272
3.32954
0.0278711
0.0243442
1.13942
0.0211464
0.0443705
2.82525
0.024551
0.0784345
0.0308106
0.0548914
2.57664
3.47295
0.0215877
1.12571
0.131279
0.0205514
0.118943
0.0625762
0.0991475
2.3702
0.244469
0.778347
0.0980451
2.69089
0.0265145
0.0621381
0.0205906
0.02177
0.0215378
0.0209199
0.189537
0.120335
0.0202548
0.0437647
0.155536
0.021133
0.440827
3.13096
0.0200405
0.02177
0.0207122
0.0225512
0.0427521
0.0214319
4.02812
0.0289651
0.0656511
0.0256306
0.0645072
0.0495406
0.0320332
1.55957
0.0214842
0.0226532
0.0202157
0.0209235
3.55055
0.0875624
0.0282518
3.83172
0.0217298
0.0220836
0.0311207
0.0207307
0.0210763
0.0688896
0.0251059
3.20841
2.13799
3.31182
0.0216403
2.98673
0.0212682
0.366986
0.0206871
0.126972
2.45739
0.0215153
0.670329
3.48259
0.0316241
0.0224525
0.0209843
0.0272993
2.7191
0.0207031
0.0218163
0.0224987
0.0237147
0.178968
0.022846
0.025375
0.0211167
0.0224664
1.20989
0.0330878
0.0238499
0.11282
0.0807188
3.27692
0.86274
0.0232031
0.0224859
2.89845
0.0214774
0.0619362
0.0216696
3.23303
0.0221064
0.0219421
0.0314857
2.87193
0.0213936
0.020787
0.0204627
0.13016
9.85628
0.106837
0.021484
0.0237754
0.0209263
3.26885
0.0211917
2.0884
0.0540722
0.0217325
0.152151
0.0326595
0.223495
0.0220858
0.0207307
0.0295029
0.0397442
0.109194
0.0217519
0.0219723
0.021988
2.88161
0.0216414
0.0224153
3.42975
0.0230109
0.0284028
0.0244182
0.0210972
0.0212506
0.616234
0.0233589
1.58199
0.268892
0.0199986
0.997293
0.0219013
0.0962477
0.0464225
0.0226571
0.0203248
0.0199728
0.0214198
1.1022
0.0454515
3.42696
2.69078
0.0209516
0.0287963
0.0372918
1.12089
0.0214208
0.110525
3.48742
3.11355
0.0212889
0.0229225
0.0220277
0.615223
3.52385
0.0215908
0.0215514
0.0298144
4.21132
0.021694
0.0229999
0.022969
0.107306
0.623513
0.0205012
2.79129
0.0285132
0.0214216
2.67576
0.0537865
1.12061
0.752801
0.0312475
0.0255715
0.0224749
0.0263059
0.0221283
0.0650854
0.0452429
0.0212837
0.0242493
0.198989
2.2462
0.0206875
0.0989104
2.98248
1.14339
0.0214247
0.0215686
0.281391
2.72163
0.0750181
0.0211647
2.64596
0.0623709
0.0200569
4.4682
0.0268809
0.0217392
0.159655
0.0214392
0.0304572
0.0208824
0.01988
0.0215827
0.0204569
3.11624
0.0202468
0.0211747
0.0722538
0.0248311
0.0243079
0.122298
0.0215396
0.0214862
0.0228602
0.0224145
0.240267
0.228568
0.441326
1.05982
0.0333197
0.541013
0.0441948
2.89992
2.52598
3.05239
0.0208977
0.0293123
0.0214414
0.0215664
0.0209811
0.0222858
0.173265
0.0560568
0.0369897
0.0211093
0.0213966
0.0528609
0.0217973
0.0219224
0.0215463
3.27663
0.0302813
7.6871
0.0216279
0.270753
0.0220243
0.0218701
0.0221836
0.041067
0.0210652
0.0792819
2.93399
0.0397121
3.62882
0.618217
0.0230282
0.0270239
0.356374
0.102959
0.0203854
0.0209339
0.0199916
2.71641
0.0198605
0.0694021
0.0413588
0.0723238
1.62225
1.5701
0.0613324
3.7743
0.020703
0.0204567
0.247722
3.00959
0.0214376
0.0216137
0.340732
0.0209671
0.168706
0.0228769
0.0211303
0.025114
0.0215353
0.0669375
2.85301
3.11731
0.0245498
0.021555
0.0722725
0.0225577
0.0721963
0.0209056
0.125323
0.0842739
0.0219215
0.0216891
0.0200439
0.110579
0.0465684
0.181692
1.78181
0.0290186
2.97923
0.0693947
0.101706
3.34812
0.0212866
2.69969
0.0223493
3.30491
0.169559
2.67757
3.19914
0.0220843
0.0512202
0.250048
0.0214684
3.83097
0.021508
0.0215221
0.0256713
0.022112
0.0299872
0.182719
1.55472
3.56705
0.0255166
0.0386752
0.0225535
0.0218732
0.0216951
0.117665
0.0807653
2.86007
0.0427857
0.0202983
0.0207534
0.0220949
0.214715
0.0239789
0.0224449
0.0248018
0.0802096
0.0307676
0.0405384
0.0361116
2.76609
0.0286831
0.0318527
0.0214272
0.0257411
0.681145
0.343413
0.0447394
0.0207247
2.6925
0.0318271
0.0211381
0.046311
2.93248
0.197201
0.0322263
0.020979
2.68752
0.0219734
0.0209334
0.0203384
2.15441
1.43876
0.0230175
2.43255
2.95845
0.0245958
0.0361044
0.0565521
3.72526
0.0298704
3.48927
0.0220163
0.122025
0.0247461
3.64932
0.0323828
0.0208416
3.0775
0.0216933
0.0223464
1.80583
3.15352
0.0621216
0.992342
0.0242784
0.0226455
2.37946
0.0211428
0.0211906
0.0215956
0.0432203
0.0214057
0.0303083
0.024596
0.211373
1.70498
0.0221952
3.81469
0.0244619
3.01296
3.49058
0.0215703
0.021759
0.025235
0.127126
0.17275
0.0627799
2.92938
2.71498
0.132805
0.0225918
2.87483
3.07802
0.0438288
1.16271
0.0216264
0.0213528
0.0216106
0.0224851
0.0213032
0.0322124
3.16919
0.0302554
0.274579
3.38966
2.92874
3.18666
3.32689
0.0279976
3.63273
0.0990695
0.0699419
0.020666
0.0215159
0.064325
4.05012
0.0225606
2.84755
3.18147
0.0209374
0.0216186
0.0216988
0.080259
0.022073
0.0682889
2.71849
0.0206623
0.0214088
0.0209154
0.0222601
0.0918529
2.96858
0.0350199
3.05758
0.100995
0.0211681
0.256533
0.112821
0.0217579
0.441756
1.30447
2.7317
1.99676
3.4706
0.0213941
2.53676
3.01196
0.144567
3.03051
0.0209665
0.023158
0.0237171
0.0233117
3.27512
0.062191
0.0217311
0.0267768
0.284252
3.09659
0.0224856
0.0220194
3.5293
3.30428
0.0217458
0.0273881
0.097314
0.0213286
0.0214191
2.32877
0.0211224
0.211682
0.261309
3.37746
0.0210484
0.0679337
0.131506
0.0211074
0.0201026
2.34205
2.30387
0.0219509
0.0321656
0.154236
0.20207
3.53301
2.26366
0.025369
0.248182
0.344678
0.0335533
0.021116
0.0787431
0.0204128
0.0202076
3.26911
0.0365042
0.0871227
0.024235
0.0254873
0.0209512
0.0204596
0.0221504
0.0223549
2.63277
0.0239973
1.60958
6.13433
0.0420786
0.0672334
2.70291
3.56915
2.64767
0.0208533
0.0246245
0.0340521
0.0251533
0.166117
0.325942
0.0221256
1.17668
3.28318
0.0261412
0.0857691
0.0708343
0.0935681
0.102036
0.022711
0.113281
0.124026
0.136305
0.151317
0.105341
0.0773894
0.0261909
0.021095
0.031928
0.0850318
0.0210838
0.317239
3.68302
0.156652
3.02558
0.020077
0.020713
0.0727302
2.85855
0.0222764
0.0237094
0.0605042
3.34032
0.50931
0.0215052
0.0300347
0.0249435
5.36104
0.279795
0.024012
0.343068
3.06586
0.0945589
3.39947
0.0882179
0.199153
3.63009
0.0195841
3.72207
3.15866
0.0224847
0.0654447
0.0900632
0.0253028
0.0208843
0.122373
1.12668
0.0208555
0.0209013
2.58522
0.658231
0.0733776
0.0217533
0.198142
0.118993
3.14978
3.74555
0.0215958
0.021381
0.0222265
0.0228987
3.43127
0.442475
3.03442
0.0793588
0.161252
0.490261
0.0229068
0.0210538
3.12888
0.0209213
3.56924
0.021038
3.39788
0.0225109
0.0223871
0.686559
0.0215972
0.104357
0.484888
0.0243821
0.0234652
0.022638
0.167557
3.30461
0.141009
3.05399
0.0239247
0.0227116
0.0272905
0.0707361
3.82714
3.73504
0.0888054
0.203385
0.115497
2.63665
0.0207773
0.0208874
0.0206783
0.0206672
0.155375
0.0657232
0.118012
0.0396045
0.137122
0.0211238
0.29307
0.262261
4.90775
0.0214724
0.0227887
0.0198955
3.01242
0.0293251
0.474079
0.150874
0.112512
0.175028
0.0200173
0.0359596
0.135539
0.159458
0.543299
0.0216511
0.123864
0.0220273
0.0218984
0.0915015
1.02432
1.67969
0.0218175
0.079312
0.119487
3.21144
5.2326
3.43697
3.43076
0.0210194
0.05764
0.0216039
0.128576
0.0211661
0.101135
0.0231756
0.0470911
0.246486
0.553867
0.0235158
0.0912805
3.13481
0.108517
0.0234597
1.81112
0.0997578
0.0223176
0.0222444
3.32624
0.0281783
0.115461
0.298162
0.1004
4.0577
0.0231203
2.9919
2.90966
0.870124
0.123687
0.0306724
0.101324
0.0916696
3.37699
0.0621725
0.0221537
1.22124
0.0445663
0.285981
0.0271027
3.16006
0.813048
1.89378
0.0258791
1.53872
0.0239901
3.08283
0.138255
1.95167
7.33485
0.0209425
0.0198781
3.1158
3.68682
0.0304714
0.0220679
0.0406249
0.0293863
2.99714
0.0724376
3.1822
0.0256338
3.23835
0.112836
1.22086
0.0221091
0.148727
3.4083
0.0237281
0.0799026
0.0200631
0.0241492
0.0216428
0.246679
0.0211949
0.0216376
3.60553
2.81328
0.0206489
3.75945
0.0223131
0.0215138
0.0213082
0.0209172
0.0217781
0.526279
3.51073
0.020632
0.292827
0.0648432
0.046407
1.33311
0.0815796
0.0252105
0.031314
0.0212973
0.246891
0.0294568
3.7945
0.0246048
3.16114
0.841716
0.0669357
2.02857
3.30718
0.0207833
3.69004
0.053354
0.0629372
0.0409417
0.0211788
0.0391241
0.177924
0.021599
0.187311
0.0214204
3.40229
0.134424
2.5586
0.163433
0.156218
3.57529
0.02159
0.0211638
0.0603598
0.022864
0.0217587
0.0217876
0.0267445
0.0210954
0.0212023
0.0226115
0.0413671
0.0231304
0.0268038
0.0228906
0.0351661
0.0947069
0.0234433
3.50568
0.0232172
0.0212604
0.0886558
0.0411002
0.0230253
0.0210829
0.21817
0.023355
3.19396
0.0235365
0.105472
0.0213084
0.0214188
0.0907787
3.66784
0.0678645
0.0340729
0.0201589
3.16422
0.0216668
0.0211658
0.073841
0.0238497
0.130865
3.11389
0.0933001
0.136778
0.0403007
4.12051
0.0214947
0.0216414
0.0602393
0.249733
0.0576509
0.0937149
2.79866
0.0270625
0.0215877
0.0274891
0.200067
0.0552786
0.0216187
0.0966837
0.091721
0.0618414
0.0217713
0.0216539
0.169111
0.0607201
2.17129
0.544252
0.0236027
0.0679316
0.0217453
0.0431755
2.38747
0.0217167
0.149743
0.0248016
0.078587
1.21553
0.0215617
0.0213753
0.0212507
3.60302
0.201557
0.0233542
0.089944
0.105439
0.0217203
0.0214248
0.111122
3.70712
0.171014
3.16333
0.136514
0.030097
0.374772
0.11548
0.0298884
0.513683
0.0840301
0.507872
0.0215362
0.0922093
0.127092
0.0223556
0.308415
0.0383457
0.0799086
0.0266934
0.139516
0.0211026
4.02598
0.0243959
0.0208042
0.0209422
0.0207506
0.0226182
0.0224166
0.0208881
0.0240096
0.0216336
0.0222971
0.24793
0.0756779
0.0221958
0.0612538
0.0244371
0.0224413
0.0204225
0.0452906
0.0264229
2.39243
0.0215797
0.0216004
0.0653554
0.159532
0.0216148
0.0215621
0.10484
0.0234613
0.0868648
0.0582238
0.0215621
8.90405
0.023676
0.0223029
0.0708585
3.80488
0.0223566
0.0560117
0.0208524
0.0255549
0.0213364
0.026754
0.0211923
0.0216157
0.0448301
0.0586837
8.84493
0.0494123
0.0215148
0.0280336
3.27531
0.0488173
0.168
0.0956698
0.0216521
0.0521248
0.891312
0.175988
1.31304
0.0256022
3.38399
0.325545
0.0288445
0.0217245
0.071389
0.0222548
0.0547533
3.1333
0.021581
0.0548022
0.0218126
2.88484
0.0453811
0.0223767
0.0594218
2.99423
0.34907
0.0237507
0.0703177
0.0300164
0.0206325
2.19775
0.0205121
0.033191
0.0210991
0.0247952
2.69334
0.0697404
0.0207034
0.0283846
0.152038
0.0215647
0.0219207
0.0279641
0.0250815
0.0214667
0.023661
0.0242873
0.0220427
0.0210993
0.0598659
0.0989939
0.169701
0.0210309
0.0565154
3.02098
4.3602
0.0208328
0.0216146
0.0249429
0.0865538
0.0221852
0.0210751
0.0212261
0.0208783
0.0256602
0.027237
0.0246061
0.0633294
0.0232357
0.0204353
0.0232243
0.0618947
0.0460298
0.102174
0.0221771
0.0281402
3.23591
0.0288456
0.0245266
4.17516
3.22247
0.0943521
0.0654693
0.15305
0.0213699
0.311943
0.0266328
4.33325
0.0214172
0.0212306
1.78558
0.0208134
0.262104
3.10963
0.0220043
13.8162
0.0303521
0.0316228
0.0265018
0.0699848
0.0283467
0.0260069
1.61753
0.0208807
0.024118
3.55977
0.0229486
0.0214673
0.0298641
3.19569
0.02221
0.0222119
3.25871
0.0234439
0.0264602
0.0565944
0.0203486
5.9041
0.0239839
0.0223541
0.0966241
0.055631
3.0259
0.0233839
1.88844
0.0331669
0.0854554
2.79517
0.0215709
0.0321804
0.0868342
0.0221821
2.05587
0.0222398
0.0231743
2.94153
0.0222688
0.0406721
0.0843062
0.765797
0.0298073
0.0262716
0.0223332
0.0237715
0.0858927
0.0243037
0.0304291
0.0775923
0.0524305
0.0216646
3.41988
0.0376423
0.0204463
0.0228063
0.0212397
0.020768
0.0203542
0.0215901
0.0215355
0.0295158
0.023761
0.0390906
0.0202117
0.0204428
0.0222121
0.075623
0.0207407
0.0299031
0.0605933
0.0282505
0.0296248
0.0214257
0.023185
0.0241135
0.0372085
0.0279178
0.0241747
2.75134
0.0217394
2.2585
0.0246918
0.0850507
0.0815565
0.0215531
0.0572677
0.0309759
3.16141
3.06135
0.0252332
0.0217551
0.0234569
0.0294492
0.0472498
0.0215946
0.284266
0.051892
0.0222909
0.0560469
0.0450466
0.0611434
0.0278795
0.166695
0.088504
0.0266629
0.317397
0.0230634
0.122516
0.0224601
0.021275
0.0790923
0.0810281
0.0214014
0.0488426
0.021447
0.021668
0.0214746
0.0220424
0.021504
0.0214136
0.0214041
0.0222154
0.154283
0.0226417
0.0213559
0.0224543
0.0225382
0.184113
2.98226
0.0568116
0.0240022
3.33275
0.021447
0.0213694
0.063409
0.0317661
0.0222515
0.0222598
0.0216808
0.153468
0.0217881
0.0253983
0.0223227
0.0332875
3.79633
0.0214587
0.0562727
0.0634251
0.024995
0.0425341
0.0206891
0.0217048
0.0578469
1.14327
0.0232034
0.0353421
2.15462
0.087999
0.0208047
2.8698
0.0226524
0.0196394
0.0534561
3.56716
0.0214653
0.0207253
0.0231057
0.0302721
0.0329387
0.0214298
0.0224087
0.0387817
0.0216996
0.0282627
0.0255921
1.14786
0.0204218
2.80435
0.368445
0.0386306
0.0213375
0.0881577
0.0210318
0.0233336
0.0216023
0.0544259
0.0201834
0.0201649
0.0398691
0.0572256
0.885838
0.0219228
0.0200813
0.0232302
0.020808
2.90662
0.0233256
0.0227619
0.0221301
0.0595264
0.0469791
0.023456
0.0230531
0.0442129
0.0216879
0.0216465
0.0233583
0.0221416
0.133143
0.0211748
0.0298708
0.0219992
0.0215289
0.0482201
0.0864056
2.78582
0.0214757
0.0536976
0.120548
3.00454
3.36763
0.0310783
0.0215401
0.0243975
0.0295258
2.58942
0.0218812
0.0249773
0.0267841
0.0305394
0.0202373
0.0533711
0.0457997
1.11892
0.0221009
0.0216972
0.085508
1.15649
0.0201155
0.0244383
0.0330726
0.0199758
0.0224763
0.0450121
0.020906
0.0214706
0.0217291
0.024343
0.0790817
0.0355629
0.0224915
0.020646
0.0221947
0.134282
0.0199309
0.0208372
0.0256355
0.0856163
0.0254082
3.59461
0.0243087
0.0214743
0.0215391
0.0230214
0.0212093
0.0326314
0.110219
0.0208967
0.0210096
0.0220274
0.0213068
0.0220928
0.0447081
2.70044
0.0227792
0.0956023
0.0232953
0.0213219
0.195286
0.0234333
3.60949
0.0218145
0.0217669
0.0207339
0.0214938
0.0225416
0.0302753
0.0410146
0.134521
0.0274637
0.0523984
0.0217935
0.0324472
0.0214417
0.0233254
0.0330089
2.67619
3.09184
0.0218704
3.28596
0.160202
0.0416786
0.236276
0.0198329
0.0214155
0.0216883
0.0228793
2.81504
0.0207669
0.0691019
0.270686
0.0224164
0.0796124
0.0199656
0.0306305
0.340994
0.830597
0.0218376
0.267793
0.110651
0.327262
0.0260082
3.35344
0.02258
0.135573
0.0970795
0.0205103
0.0379942
0.0310719
0.0235829
0.133791
0.0303842
0.0209282
0.0226946
0.248108
0.0217622
0.0507957
0.0215799
0.0199002
0.0229425
0.0322914
0.0215517
0.0784015
0.0263476
0.0235981
0.019872
0.021516
0.294137
0.0765441
0.133272
0.0332704
0.0248839
0.0275279
0.0253589
0.0214459
0.0226858
0.0330034
0.0231168
0.0240924
0.0203885
0.0257578
2.87679
0.0220015
2.38872
0.129947
0.0216718
0.0216819
0.0202564
0.0283192
0.0361197
0.0200901
0.0253892
0.0229187
0.0219711
0.0211329
0.0220726
0.0212586
0.0216228
0.252347
0.0218937
0.0260664
0.0214615
0.158458
0.323592
0.0214734
0.27567
0.0216469
0.0238837
0.030238
0.261358
0.0287207
0.0210077
0.0213506
0.0324722
0.0414457
0.14208
0.0226945
0.0489888
0.10994
0.0219646
0.0215073
0.109162
0.0514883
0.0308284
0.0216924
0.0230336
0.0227011
0.0233021
0.0208857
2.15028
0.0239956