/*--------------------------------*- C++ -*----------------------------------*\
| =========                 |                                                 |
| \\      /  F ield         | OpenFOAM: The Open Source CFD Toolbox           |
|  \\    /   O peration     | Version:  v2012                                 |
|   \\  /    A nd           | Website:  www.openfoam.com                      |
|    \\/     M anipulation  |                                                 |
\*---------------------------------------------------------------------------*/
FoamFile
{
    version     2.0;
    format      ascii;
    class       volVectorField;
    location    "550";
    object      ddtCorrDdt0(U);
}
// * * * * * * * * * * * * * * * * * * * * * * * * * * * * * * * * * * * * * //

dimensions      [0 1 -2 0 0 0 0];


internalField   nonuniform List<vector> 
13851
(
(0.00114971 -4.97679e-05 2.59879e-17)
(-0.000186708 0.000324736 -1.07492e-17)
(-0.000190129 0.000316868 -1.95948e-19)
(0.00379939 -0.000791976 2.29643e-17)
(2.83181e-06 -2.27106e-06 -8.61836e-19)
(-0.000149096 0.000411416 -4.34722e-18)
(-0.000480826 0.000252335 3.66324e-18)
(-1.81988e-05 4.47768e-06 -4.33047e-20)
(-0.000935722 0.00205732 8.05955e-18)
(8.9735e-06 1.88304e-05 -5.95256e-18)
(5.52294e-05 0.00101944 -6.2417e-18)
(9.87273e-06 -4.52022e-05 5.37309e-19)
(1.74593e-05 5.70676e-05 -6.98093e-18)
(-0.00601082 0.000533118 -4.15617e-19)
(-0.000240939 0.000500173 -7.08844e-18)
(-0.00168056 0.00275857 -3.20806e-18)
(-0.00136015 0.000220371 -3.25973e-17)
(-9.20952e-05 0.000193864 3.54981e-18)
(0.00122859 -0.00747281 -1.43522e-17)
(0.00101001 -3.85149e-05 -3.879e-17)
(-0.000196566 0.000411922 1.94484e-17)
(0.000114197 0.000328022 -1.412e-18)
(0.00560452 -0.00267394 3.72023e-17)
(-1.32334e-06 3.34321e-06 -2.30323e-18)
(0.00931132 0.0202114 -1.84169e-18)
(-0.001138 0.00117503 1.69594e-17)
(-0.00166551 0.00711621 6.07583e-19)
(0.00040199 0.00901409 -3.38794e-18)
(0.000127279 0.00204611 6.96014e-18)
(-3.80914e-05 8.96573e-05 4.40178e-19)
(-0.00475583 0.00611462 -7.75202e-17)
(-0.000463511 0.000247467 3.53395e-18)
(0.00140446 0.000511452 1.45025e-17)
(-0.00124347 -0.00434494 2.02897e-17)
(-3.18739e-05 0.000780682 -7.16433e-18)
(0.000626525 0.0035001 4.43719e-18)
(-7.7983e-07 3.18111e-06 2.30725e-18)
(0.0198492 0.00946318 5.16734e-17)
(-2.5547e-05 0.00850363 6.58679e-18)
(2.97464e-05 3.75269e-05 -2.55283e-19)
(0.00328699 -0.000698311 -1.84717e-17)
(0.00112087 0.00193406 -2.96391e-18)
(-0.00370679 0.000776746 -2.05495e-17)
(-2.24932e-06 0.000980199 8.81083e-18)
(0.00351474 0.00017724 1.32712e-18)
(-3.36978e-06 3.53863e-05 -2.83369e-19)
(-6.63439e-05 3.72219e-06 -1.13254e-18)
(-0.00103892 0.00245758 5.42088e-18)
(2.46374e-06 0.000324874 7.20675e-18)
(1.55391e-05 5.48654e-05 2.84264e-18)
(0.00769429 0.000387126 3.5898e-17)
(1.36567e-05 3.92685e-05 -1.98981e-17)
(-0.00155562 0.0026877 -2.31064e-18)
(-0.000582964 0.000480032 1.67575e-17)
(-0.00442304 0.000847957 2.86496e-18)
(3.07298e-05 3.62289e-05 3.41521e-18)
(0.00148824 0.000373612 -1.92183e-17)
(0.00309198 -0.0005368 7.67987e-18)
(-0.00571564 0.0010015 -2.75168e-17)
(-0.0011231 -0.000296789 -1.33966e-17)
(8.2255e-06 -4.9506e-05 4.50918e-18)
(-0.00164128 0.00658002 7.9979e-18)
(2.72638e-06 -9.16458e-05 7.07336e-19)
(1.11594e-05 0.000333884 1.1323e-18)
(0.000489451 -0.000142874 -4.65535e-19)
(0.000513774 -0.000189243 2.49114e-18)
(-0.00136351 -0.000152849 2.10395e-17)
(6.81847e-05 -0.000121263 -4.91053e-18)
(1.53158e-05 0.000110683 -4.43805e-20)
(-0.0018439 -0.00491501 4.91253e-17)
(0.000756117 0.00222215 -1.05256e-16)
(-0.0001435 0.000335947 3.05432e-17)
(2.28481e-05 6.22555e-05 -6.614e-18)
(-0.00176726 -0.000168563 2.73098e-17)
(-0.000501693 0.000521756 2.51922e-18)
(8.15202e-05 0.000209013 3.77289e-20)
(-0.00107095 4.17971e-05 -4.43012e-17)
(-6.6711e-05 6.67963e-05 -3.19809e-19)
(0.00682706 0.0230245 -1.37342e-17)
(8.64886e-06 7.18328e-05 2.3261e-19)
(1.41176e-05 0.000121965 4.01731e-19)
(0.00353856 -0.00264522 2.43711e-17)
(-2.37288e-05 0.000757908 1.91268e-17)
(-0.00591008 0.0002814 -4.12176e-18)
(-0.00148972 -0.000373743 -2.83408e-17)
(-0.00184378 0.00524053 1.77689e-17)
(0.000116848 0.000343397 -2.49332e-18)
(-0.00132532 0.000911643 -4.82206e-18)
(1.43425e-05 4.31993e-05 -2.18919e-18)
(-0.00541889 0.00565279 7.49288e-17)
(1.44683e-05 3.63791e-05 3.34672e-18)
(-0.000458884 0.000261569 -6.35411e-18)
(0.0031144 0.000766706 5.36924e-17)
(-0.00293734 0.00463459 -1.34346e-17)
(0.00837285 0.001747 -1.15749e-17)
(-9.26186e-05 0.000244486 -4.93382e-17)
(6.18795e-06 3.71321e-05 -6.60125e-19)
(-0.00120909 0.0025173 3.25628e-18)
(0.00397993 1.0565e-05 4.06961e-17)
(0.00142734 0.00269617 -1.89314e-17)
(-0.00114714 0.0025139 -1.00785e-18)
(9.95969e-05 -6.94107e-05 2.53807e-17)
(0.000129448 -7.42188e-05 -3.61462e-17)
(2.79732e-05 4.8275e-05 1.44974e-18)
(-1.07296e-05 5.47532e-05 -1.81828e-19)
(-0.000293523 0.000331458 9.57053e-18)
(-9.0094e-06 4.93101e-05 1.84801e-19)
(0.000730084 0.0028461 1.10562e-16)
(-0.000446182 0.00025521 5.52581e-18)
(-8.87812e-05 0.000189803 -1.65248e-18)
(0.000232493 0.000278264 -2.1754e-18)
(-4.06438e-06 3.83521e-05 -1.36333e-19)
(-0.00346604 0.00228351 2.04142e-18)
(-0.000535986 0.000852272 -2.56652e-20)
(0.00131798 0.00191132 -1.82018e-18)
(-0.000567499 0.000466828 -1.00989e-17)
(-1.68977e-05 2.73594e-05 3.31071e-19)
(-2.11141e-05 5.89798e-06 -1.17429e-19)
(0.00330276 -0.000454836 -3.2172e-17)
(-0.000414321 -0.0062787 -5.23089e-17)
(2.36599e-05 -0.000617897 5.60816e-18)
(-7.00319e-05 0.000154198 -2.27196e-18)
(2.46933e-05 7.73137e-05 4.34486e-20)
(-0.00150925 -0.0016296 1.6486e-17)
(0.00279177 -0.000342477 -1.54895e-17)
(6.50657e-05 -0.000187286 3.60084e-17)
(5.80247e-06 3.78343e-05 -2.11383e-18)
(0.000451917 0.00082101 -8.3885e-18)
(0.000957845 -0.003362 6.71875e-18)
(-0.000142721 0.000493699 -3.78527e-17)
(0.000124254 0.000314434 -2.42593e-19)
(-6.74042e-05 0.000563826 3.25009e-19)
(0.000700295 0.0107512 2.96364e-17)
(-0.00171616 -0.00381067 -2.16961e-17)
(2.99913e-05 0.0010405 1.37085e-18)
(0.00706182 0.00418769 -1.51934e-17)
(6.65341e-05 -0.000112683 -7.08778e-18)
(-0.00116147 0.00431778 1.90353e-17)
(8.50004e-05 -4.95505e-05 -1.72931e-18)
(-0.000167835 0.000563201 -5.93029e-18)
(0.00246703 -0.00234232 -1.01598e-17)
(5.26096e-05 -9.18308e-06 7.21536e-18)
(1.51594e-05 5.0776e-05 3.98182e-18)
(0.000206461 -0.000195821 -1.71257e-17)
(0.0177133 0.011148 1.46262e-17)
(8.99038e-05 0.000139991 -5.49765e-18)
(-6.65352e-05 6.1617e-05 -4.04474e-19)
(-0.00391837 0.00486391 5.75887e-17)
(-0.00142661 0.000822626 2.77193e-18)
(0.00048683 0.000860449 1.69301e-18)
(-0.00113054 0.0024798 1.69757e-17)
(-0.0029489 0.00235711 -2.48692e-18)
(-0.000589734 0.000897933 -3.75547e-17)
(0.00149773 -0.00424047 2.27317e-18)
(2.54323e-05 1.05692e-05 -2.78555e-18)
(9.48419e-06 7.34702e-05 1.24413e-18)
(5.29864e-06 -4.46746e-05 2.219e-18)
(-0.000456181 0.00766183 -5.3887e-17)
(-0.000202269 0.00053134 1.01935e-17)
(-0.000340212 0.000228424 -1.03954e-17)
(-2.19933e-06 5.9411e-06 -7.03899e-19)
(0.000225625 0.00262619 1.24363e-17)
(-0.00027119 0.000342045 -5.15055e-18)
(-0.000972217 0.0024669 2.56794e-18)
(-0.00599671 0.000537408 -9.53217e-19)
(0.00247842 0.00221003 -1.06272e-17)
(0.00259457 0.00254794 2.18182e-17)
(0.00769935 0.0005821 1.9549e-17)
(0.00022255 0.000285803 -1.95471e-18)
(-0.00484442 -0.00451921 4.60427e-18)
(6.18815e-06 -5.3707e-05 -1.5467e-18)
(-1.70962e-05 2.62314e-05 7.5247e-20)
(-0.000447954 0.000257031 1.66094e-18)
(-2.10821e-06 -1.5305e-06 -1.25552e-19)
(0.00861592 0.00186696 -5.41136e-18)
(0.00847637 0.00344747 -2.18307e-17)
(-0.000950378 0.00295092 1.67214e-17)
(-1.88982e-05 3.25444e-05 -9.55372e-19)
(-0.000535407 0.000524368 8.79084e-18)
(-0.000933584 0.00279291 -1.21598e-17)
(0.00227488 -0.000292748 9.07249e-18)
(-0.000317881 0.000773577 -4.40161e-18)
(0.000193848 0.000319351 2.02593e-19)
(-0.000158926 0.000507438 2.59275e-17)
(-0.000614077 0.000291387 2.53475e-17)
(-0.00132251 0.00075058 -1.76162e-17)
(0.00156812 0.000750995 2.52575e-18)
(7.69435e-05 -3.99863e-05 2.69641e-17)
(1.7079e-05 3.23555e-05 -7.07336e-18)
(-2.02167e-05 6.47512e-05 -2.09599e-19)
(0.00348235 0.0121036 -3.40141e-18)
(-0.000196294 0.000508324 -5.66438e-18)
(-0.00616315 0.000479293 -2.97692e-18)
(-0.000160813 0.000406818 -6.91937e-18)
(8.33619e-05 0.000142339 -2.74103e-18)
(-0.0013525 0.00260283 7.00362e-18)
(0.00148072 0.000854494 -1.20556e-17)
(-0.000184182 0.000153771 4.22069e-18)
(-8.19642e-05 0.00025467 4.23035e-18)
(9.19985e-05 -0.000130986 5.21761e-17)
(0.000420564 -0.00286736 3.6385e-17)
(0.00591876 -0.00239399 -1.55647e-17)
(0.00288534 -9.03609e-05 -4.34267e-17)
(-0.000253231 0.000504522 -5.88031e-18)
(0.00383025 -0.00273251 -2.76709e-17)
(0.00579202 -0.00208333 1.00472e-17)
(2.64666e-05 -5.73526e-05 1.9558e-17)
(-0.000289695 0.000675942 1.64857e-17)
(-0.00173496 0.00218892 9.12379e-19)
(-0.000103536 0.000418903 6.19424e-18)
(-0.00206507 0.00281291 9.74222e-18)
(2.47747e-05 7.26546e-05 -6.49134e-19)
(0.00149199 -0.0035092 -9.3455e-18)
(-2.84596e-06 2.24357e-05 1.27697e-18)
(-6.66073e-05 0.000769058 2.87406e-17)
(9.91856e-05 0.000243829 -5.57085e-19)
(1.55815e-05 6.10166e-05 -1.46486e-17)
(0.000204586 -0.00113818 1.09317e-17)
(-0.000135893 0.000217629 1.62925e-18)
(-0.00032251 0.000182069 2.34759e-18)
(-1.97391e-05 3.27312e-05 1.2e-18)
(0.000815831 -0.000137543 1.42291e-17)
(-0.00599787 0.000317599 -1.86391e-18)
(0.00790236 0.00308476 1.5286e-17)
(8.79553e-05 -3.09408e-05 1.8368e-17)
(-0.000324437 0.00068874 -8.28326e-18)
(-8.9818e-07 1.95544e-05 8.06314e-19)
(0.000195854 -0.000172447 5.27566e-18)
(1.65555e-05 2.89215e-05 5.2182e-20)
(-4.86952e-05 0.000759861 -2.59292e-17)
(0.00498997 0.0018841 1.77546e-17)
(7.80362e-05 -3.99638e-05 2.51611e-18)
(-0.000110736 0.000410589 -3.1565e-19)
(7.71597e-07 -9.33931e-05 -1.32671e-18)
(0.00300037 -0.000154429 2.89247e-17)
(-4.24203e-05 9.54014e-05 5.80222e-19)
(0.00456595 -0.00245318 -6.49751e-17)
(0.002762 -0.000218416 -1.43111e-17)
(0.00120547 0.00235235 2.93239e-17)
(-1.57019e-06 6.25285e-06 5.63257e-19)
(0.0106535 -0.00860772 2.87775e-17)
(-0.00233865 -0.000425425 -2.31233e-17)
(0.00441448 0.000156545 -3.09446e-18)
(-0.00192284 0.00267915 -5.43658e-18)
(-0.000247131 0.000396476 -2.92074e-18)
(0.000193436 -0.000254936 -1.26708e-17)
(0.000544388 -0.000927015 -2.41415e-17)
(-0.000557136 0.000530829 -1.62633e-17)
(-0.000138651 7.84841e-05 2.85923e-17)
(0.000253993 0.0003632 3.2993e-19)
(-0.00310022 0.000622842 1.38417e-18)
(0.000463093 -0.00084366 -1.07836e-17)
(-1.07855e-05 7.33085e-07 -5.33042e-19)
(-0.000242324 0.000342781 5.62213e-18)
(-0.00123207 0.00260921 -9.27985e-19)
(-2.98335e-05 0.00282821 -1.4634e-17)
(0.00376859 0.00181409 9.96532e-18)
(-1.94901e-05 5.88166e-05 3.33221e-19)
(6.06426e-05 -0.000181399 -3.63071e-17)
(1.49926e-05 4.47106e-05 6.66095e-18)
(0.00297279 0.00029199 -8.57906e-18)
(0.0028058 -0.00176193 -1.20759e-17)
(-0.000244596 0.00034503 5.95927e-18)
(-0.000245863 0.000327457 -2.71763e-17)
(0.000489331 -0.000997425 1.2259e-17)
(1.81111e-05 6.9467e-05 1.39515e-18)
(0.000107847 -7.45869e-05 -1.08855e-18)
(-0.000757835 0.00227769 8.74947e-18)
(-0.00177066 0.00670663 -2.11423e-18)
(1.0766e-05 -7.03259e-05 2.35984e-18)
(1.81377e-05 6.54262e-05 1.43811e-17)
(8.77612e-05 -3.57993e-05 -2.42133e-17)
(-0.00177352 0.00325087 1.88597e-18)
(0.00160331 -0.000744847 -2.56154e-17)
(-0.000165979 0.000411785 -2.01505e-18)
(-7.3398e-05 0.000159609 2.26278e-18)
(0.00208355 0.000339703 -1.02205e-17)
(0.00243412 -0.00303597 -1.9981e-17)
(0.00111078 0.00134174 5.24178e-18)
(-0.000226751 0.000339878 2.50374e-17)
(-0.00212576 0.00278411 1.37198e-19)
(0.00242694 0.000157107 -2.67704e-17)
(-0.00020648 0.000376013 -1.87947e-18)
(-0.000301776 0.000448412 1.8395e-17)
(0.0158324 0.014721 -9.66333e-17)
(-1.75332e-05 7.68506e-05 -1.50095e-19)
(4.88998e-06 -4.19243e-05 -1.75183e-18)
(0.00127458 0.00124984 5.25836e-18)
(0.000170535 0.000950873 -2.20149e-17)
(-5.00652e-05 0.000106619 -3.91796e-20)
(-2.76802e-06 2.08132e-05 2.24524e-18)
(1.74057e-05 3.32775e-05 1.09872e-18)
(6.59774e-06 1.54004e-06 4.27649e-19)
(-0.000253856 0.000403951 6.92607e-18)
(5.96926e-06 -4.33756e-05 -3.18177e-18)
(-0.000864383 0.00227589 2.53554e-18)
(-0.000185346 0.000397327 7.80902e-19)
(1.68531e-05 4.15198e-05 1.70917e-18)
(0.000154067 0.00319005 -5.52473e-18)
(-0.00194046 -0.00136068 -1.22732e-17)
(1.82675e-05 3.13261e-05 -8.20919e-19)
(0.000929823 -0.000187392 -5.32869e-18)
(0.00633604 -6.20283e-05 -3.84063e-17)
(5.70685e-05 -9.96922e-06 4.08533e-18)
(1.80024e-05 2.79543e-05 4.53186e-18)
(-0.000182175 0.000386697 -5.2239e-18)
(-0.00545403 3.075e-05 5.70316e-18)
(0.00778275 -0.00867669 3.91822e-18)
(-0.000324212 7.55603e-05 -8.15305e-18)
(4.9341e-06 -2.79828e-06 -9.76938e-20)
(-0.00529272 -0.0032132 -3.53487e-18)
(7.93824e-06 -5.25973e-05 -1.08135e-19)
(-0.000407889 -7.67069e-06 3.10233e-17)
(0.00647103 -0.000185691 3.55261e-17)
(-0.00280629 0.00394402 -3.50943e-18)
(-0.000322888 0.000221557 1.99931e-18)
(0.0188555 0.016239 7.15007e-17)
(-0.011083 0.0126091 4.30642e-17)
(0.00293336 0.00029233 2.96228e-17)
(-0.00216271 0.00293616 2.07334e-17)
(7.59672e-05 -8.33394e-05 -1.47851e-17)
(0.00708277 0.00490084 -2.3986e-17)
(-0.000634899 -0.00223984 -1.43988e-17)
(0.000703761 0.00764334 8.64128e-18)
(-8.5491e-05 0.000256212 -8.68866e-18)
(-0.00261951 0.00211364 3.6067e-17)
(-0.00115713 0.000589022 -8.04149e-19)
(-0.00015832 -0.000385365 -3.77429e-18)
(-0.000107568 -0.000434549 -1.70677e-17)
(2.51471e-05 -5.8929e-05 -2.80079e-17)
(-0.000457388 0.000161226 -1.20496e-17)
(0.000160003 5.50078e-05 -1.4295e-17)
(-0.00113174 0.00104824 1.26965e-19)
(0.000111841 -9.10287e-05 -4.0026e-17)
(-8.61496e-06 5.76688e-06 2.16336e-20)
(-6.4891e-05 3.58283e-06 3.06609e-18)
(4.83239e-05 0.000465021 -1.48487e-17)
(0.00189977 0.000430976 -4.94343e-17)
(-0.000344335 0.00013583 -6.67121e-17)
(-1.75379e-05 7.61237e-05 -2.65283e-19)
(0.00827081 0.002348 -7.361e-18)
(0.000151122 3.4299e-05 9.15352e-18)
(-5.27919e-05 0.000571119 1.96075e-18)
(-0.000357623 0.000231929 4.44844e-18)
(-0.00567417 0.000209224 -7.0964e-18)
(0.00165693 0.000345991 5.85568e-18)
(-0.00140837 0.00270341 -7.18055e-18)
(9.34714e-05 0.000228639 -7.18945e-20)
(-0.000108554 0.000402301 -6.88312e-18)
(0.00381345 0.00570734 8.36291e-18)
(1.35421e-05 3.14787e-05 3.77444e-18)
(0.00236155 -0.00389187 1.05738e-17)
(-0.000215887 0.000372236 -2.65766e-18)
(-0.000187102 0.00037037 1.0056e-17)
(0.000154996 3.09549e-05 -1.48803e-18)
(1.47665e-05 5.01503e-05 -8.17055e-18)
(1.51357e-05 4.31206e-05 -1.79745e-18)
(0.000868246 0.00101749 4.67466e-18)
(0.00114064 0.00316783 1.8888e-17)
(0.000573752 -0.00058933 1.915e-17)
(-0.00651426 0.0154015 2.24674e-17)
(0.00348513 0.00583218 -1.53642e-18)
(9.27537e-05 0.000146279 5.26915e-18)
(0.0029169 -0.00019965 4.38582e-17)
(0.00363607 -0.00110479 -6.76559e-18)
(-9.96656e-05 8.8322e-05 1.9271e-18)
(-0.00187066 0.00281777 8.57498e-18)
(0.000487584 0.000185421 -6.44694e-18)
(0.004233 -0.000188736 -2.22663e-19)
(3.97805e-05 0.000451729 -3.41585e-18)
(-0.00152636 0.00101151 -1.58381e-18)
(-0.00273472 0.00119297 1.36401e-17)
(-0.00314794 -0.0174289 8.24943e-18)
(0.000428286 0.000820579 1.67971e-18)
(-0.0019114 0.000903863 2.81119e-18)
(-5.89709e-05 0.000300833 -1.39156e-17)
(0.00974704 0.00275125 2.16064e-17)
(-0.00556658 0.000917314 2.51821e-17)
(-0.000225743 0.000421846 -5.0725e-18)
(-0.00294849 0.000697443 -1.93813e-17)
(-0.000237581 0.000442786 -1.70973e-17)
(0.00235792 -0.00029897 4.93469e-17)
(-0.000305126 0.000460464 -1.68237e-17)
(-0.000797138 0.000596855 6.81691e-19)
(0.000148275 -0.00122485 -5.29506e-17)
(-0.00107849 0.00390787 1.60979e-17)
(9.23914e-06 7.55288e-05 2.68919e-18)
(-0.000192925 0.000383085 7.6594e-18)
(0.000195067 0.000974025 2.96723e-17)
(-0.000522082 0.000533601 -1.68233e-18)
(3.47281e-06 3.38722e-05 4.44675e-19)
(-0.000151874 0.000414603 2.99946e-18)
(0.00309673 -0.007941 3.15104e-18)
(2.27806e-05 6.28581e-05 3.89594e-18)
(-0.000232319 0.000683363 1.74824e-18)
(0.00242462 0.00168611 -8.40583e-17)
(-0.000108006 0.000372457 6.82846e-18)
(-0.00363024 0.00364399 5.03825e-17)
(-0.000667487 0.000779232 1.0456e-17)
(0.00774365 -0.0101746 1.33799e-17)
(-0.000103623 0.000432057 -2.59031e-18)
(-0.00109017 0.00111232 -5.21731e-19)
(0.00112768 -0.000487794 1.46629e-17)
(0.00302801 -0.00119415 6.82201e-18)
(-0.000319322 0.000351681 -4.75097e-18)
(0.00359666 0.00150165 3.16268e-18)
(-0.00248379 -0.000281047 3.36753e-17)
(0.00727141 -0.00717185 -2.44581e-17)
(1.78984e-05 6.97192e-05 -3.13992e-18)
(0.000813369 0.00120844 -5.58867e-18)
(-0.000228868 0.000473554 2.75801e-18)
(-0.00142121 0.00106109 -1.76709e-18)
(-5.56398e-05 0.000149846 -2.11438e-18)
(-0.0017126 0.000800388 -7.1777e-20)
(0.00625586 -0.0058418 -3.16621e-18)
(0.000757052 -0.0052809 9.39461e-17)
(-0.000120445 0.000396276 8.94044e-18)
(0.000348836 -0.00121186 5.18778e-17)
(0.00145633 0.00756118 -8.20109e-19)
(0.00216246 -0.000678485 3.37795e-17)
(-9.53791e-05 2.60615e-05 -3.84694e-18)
(-0.00267552 0.00164514 -1.66772e-18)
(-0.00293942 0.00309161 -1.76675e-17)
(-0.0040894 -0.000661203 8.50965e-19)
(0.000267907 0.000376014 -2.28519e-18)
(-0.000733887 -0.0182401 -6.36561e-17)
(1.6043e-05 7.90269e-05 6.46931e-19)
(-1.81283e-06 -1.26125e-06 -1.56447e-19)
(-0.00453337 0.000713531 1.1422e-18)
(0.00329364 0.00745115 4.64173e-18)
(1.26114e-05 2.95661e-05 8.79798e-18)
(-0.00018355 0.000329813 7.42592e-18)
(-0.000224654 0.000669612 -6.10802e-18)
(-1.26798e-05 1.47209e-05 2.5389e-19)
(0.00549645 -0.00571125 -1.21764e-17)
(-0.000419292 0.000120562 -8.29936e-18)
(0.00043113 0.000179274 3.5349e-18)
(-0.000332104 0.000323409 1.22029e-17)
(-6.71895e-05 0.000302503 1.10927e-17)
(6.34432e-06 4.05138e-05 1.26268e-17)
(-0.00149121 -0.0171933 -2.51591e-17)
(1.70834e-05 3.78127e-05 -1.15501e-19)
(7.36274e-06 4.66e-05 2.27773e-18)
(0.0108665 4.37925e-05 9.46576e-18)
(0.00397869 -0.00858342 -5.47508e-18)
(0.000119162 0.000294756 5.08789e-19)
(-0.00231398 0.00210223 -4.88975e-18)
(1.89883e-06 -9.39515e-05 1.70741e-18)
(5.72234e-06 -4.03038e-05 4.75809e-18)
(-0.000109913 0.000381376 -7.99668e-18)
(0.000605228 -0.000691006 -1.94287e-17)
(-0.000747452 0.000736028 -1.18465e-18)
(5.06938e-06 3.46691e-05 3.37041e-19)
(-0.000120776 0.000307054 -1.25805e-17)
(0.000161131 -0.00067005 1.13701e-17)
(-0.000202825 0.000270102 -1.00058e-18)
(0.0131595 -0.00258177 4.49527e-17)
(9.24464e-06 -4.3992e-05 7.28356e-19)
(-0.000435167 0.00038475 -2.19853e-18)
(0.00423278 -0.000104557 -3.44695e-18)
(0.000219821 5.20551e-05 6.13407e-18)
(-6.1478e-05 5.30377e-06 -1.74382e-18)
(3.64165e-06 -5.53351e-05 8.89952e-19)
(-0.000320991 0.00031919 -1.06859e-17)
(-0.000204506 0.00015925 -2.94481e-18)
(-0.000977862 -0.00684971 -2.67875e-17)
(0.0110071 0.00127073 1.15794e-17)
(-0.000255778 0.000391386 -4.83302e-18)
(-0.00111825 -0.000570139 1.58283e-17)
(-0.000120461 0.000380429 -1.25847e-17)
(9.60339e-06 -3.24204e-05 6.55158e-19)
(-0.00295455 -0.00210183 9.10001e-19)
(-0.00272713 0.00164974 -1.06334e-17)
(0.000134789 -2.44364e-05 1.47543e-17)
(2.58358e-05 4.32502e-05 1.63637e-18)
(-0.00128844 -0.00197239 -1.06758e-17)
(9.63494e-05 -4.07572e-05 7.06726e-18)
(0.020851 -0.00815914 -1.39935e-19)
(2.70577e-05 5.01296e-05 7.02316e-19)
(-9.58884e-05 0.00055318 1.27781e-17)
(0.000619466 0.000728141 -1.40307e-17)
(-0.00043391 0.000563528 1.50867e-18)
(-0.000202549 -0.00265952 1.91565e-17)
(0.00095568 0.00802625 1.0143e-18)
(0.00355053 -0.00731674 -8.74117e-17)
(9.35478e-05 3.55359e-05 -2.13394e-18)
(-0.00272509 0.0029803 -3.98401e-18)
(1.8255e-05 6.15707e-05 8.81151e-19)
(-0.000203152 0.0023057 -5.82546e-18)
(-0.000627689 0.000765102 -9.41309e-18)
(0.00150282 0.000992361 1.77584e-18)
(-0.000228111 0.000462617 -1.76797e-18)
(8.62689e-05 0.000224586 3.05089e-19)
(0.000224447 6.80373e-05 8.36448e-18)
(-0.000426602 0.000210279 5.86441e-18)
(2.54679e-06 -2.56119e-06 -3.44853e-19)
(-0.0036842 -0.00109807 1.38924e-17)
(-0.00284152 -0.00202194 -5.9309e-19)
(0.0131913 -0.000812266 1.13076e-18)
(-0.00453723 0.000209656 2.40412e-17)
(0.0115783 0.00035571 -1.49133e-17)
(-0.00497329 0.000794401 2.48572e-17)
(0.00302052 -0.00252228 3.56135e-17)
(9.65557e-05 -1.91818e-05 6.7739e-18)
(-2.66807e-06 1.65147e-05 3.13877e-18)
(-0.00118364 0.00238526 1.98047e-17)
(1.25055e-05 1.71208e-05 2.68967e-18)
(2.41887e-06 3.35938e-05 -5.89904e-19)
(0.000114885 -1.24341e-05 6.81396e-18)
(0.00901992 0.000657574 -9.19875e-18)
(-0.000217848 0.000291182 -6.41532e-18)
(4.7276e-05 -1.57896e-05 -1.41494e-18)
(0.000589415 -0.000121388 8.22329e-18)
(-0.000385298 0.000545657 -7.17042e-18)
(2.44497e-06 1.48895e-05 -7.0428e-18)
(0.00545791 0.0207522 -7.70448e-18)
(6.16712e-06 4.33298e-05 -2.9096e-19)
(-0.000193934 -0.00375783 -5.26159e-18)
(0.000806939 -0.00653797 -2.26502e-17)
(7.61498e-06 6.93301e-05 2.37861e-19)
(-0.000257887 0.00024125 1.78622e-18)
(-0.00307585 -0.000731604 1.94285e-17)
(-0.00128038 0.00565218 -2.19244e-18)
(-4.50887e-05 0.000102912 1.25333e-18)
(0.0141131 0.000539964 -9.59154e-18)
(0.000744672 0.00537006 -6.60746e-18)
(-0.000150445 4.67632e-05 -7.67745e-19)
(-0.00381112 -0.00278846 2.34612e-17)
(0.0012721 -0.00623021 4.1141e-19)
(0.000680855 -0.000181414 -1.49924e-18)
(9.19926e-05 2.90253e-05 -7.70965e-18)
(0.0107064 -0.000808126 9.61279e-20)
(0.00159529 3.36878e-05 -1.29981e-17)
(-0.000152332 4.92176e-05 2.42706e-18)
(-0.00899279 0.0042744 2.07658e-18)
(1.92309e-05 9.35003e-05 -4.10597e-20)
(6.11406e-06 3.8996e-05 2.37182e-19)
(0.0103954 0.00900552 2.54369e-17)
(0.00212315 -0.00020501 1.61004e-17)
(-0.000277622 0.000496654 2.56584e-17)
(-0.00075736 0.000711371 1.08461e-18)
(3.3985e-06 6.25384e-06 -2.41197e-18)
(-0.000682948 0.00106544 1.00211e-18)
(0.000743836 -0.00370337 -1.61138e-17)
(0.00308105 0.00721852 -6.25789e-17)
(-0.000157225 7.98056e-05 -2.28071e-18)
(-0.00286763 -0.000474893 6.87479e-17)
(3.83613e-06 3.50863e-05 -3.40369e-19)
(1.88094e-05 0.00010482 -2.58306e-20)
(-0.000317874 0.000330224 7.60985e-18)
(-0.000514523 0.000366505 -1.60778e-18)
(-9.79549e-05 2.46843e-05 -1.37392e-18)
(8.46054e-05 0.00019642 -1.15822e-19)
(-0.00483084 -0.00153989 -1.69605e-17)
(-0.00111917 0.0034582 2.38857e-17)
(-0.00457626 -0.00186833 -7.06412e-17)
(-0.000211336 0.00028382 4.30827e-19)
(1.54324e-05 5.09508e-05 -1.32316e-18)
(-0.000574062 0.00373478 -1.85448e-17)
(-1.46599e-06 -1.69858e-05 -2.71027e-19)
(0.000917941 0.00173627 -2.46048e-17)
(-0.00036259 0.000376045 -6.23337e-18)
(-0.00046612 0.000518655 -1.81649e-18)
(-0.000247997 0.000411875 3.92894e-17)
(0.00736228 -0.000454832 7.97181e-18)
(0.00265546 7.15577e-05 3.26621e-17)
(-0.000173621 0.000389594 -2.93957e-18)
(-0.00482445 0.00154566 3.42329e-17)
(-0.000330608 0.000209197 1.09889e-17)
(-0.000651382 0.00036882 3.06782e-19)
(0.00171576 0.00149527 -3.2774e-18)
(-0.00397371 0.00103129 -7.03463e-18)
(2.73984e-05 5.82954e-05 -4.7382e-19)
(1.94123e-05 6.43741e-05 -3.46235e-18)
(0.0001407 -7.05835e-05 2.19463e-17)
(-0.00537376 -0.000711498 2.80917e-17)
(3.56981e-05 0.00258464 1.00216e-17)
(-0.00071996 0.00104108 5.10956e-19)
(0.00296146 0.00210276 3.56166e-17)
(-0.000543968 0.000375066 -6.062e-19)
(-0.000312201 0.000444544 1.26694e-17)
(0.00506802 0.000678006 -8.63867e-17)
(-0.000176355 0.0173783 -2.78747e-17)
(0.000280492 -0.000348321 -9.32349e-18)
(-0.000783725 -0.00341215 -4.17778e-19)
(0.00199239 0.00347461 6.28346e-18)
(0.00215904 0.00509356 -4.05205e-18)
(-4.63695e-05 0.000274655 3.95985e-18)
(-0.005253 0.000172402 3.21597e-17)
(0.00311265 -0.0186702 1.4939e-18)
(1.19434e-05 -5.71631e-05 5.95407e-19)
(0.0044967 0.0010652 -1.53665e-17)
(0.0156676 -0.0030892 -1.96917e-17)
(0.000217804 0.000318351 3.75754e-18)
(-0.000153581 0.00054482 -3.00493e-18)
(2.81953e-05 3.05484e-05 1.94912e-18)
(-0.00433711 -0.00227819 6.19497e-18)
(0.000865035 0.000859026 1.14779e-17)
(0.00117177 0.00395904 9.95958e-18)
(1.84948e-05 3.73548e-05 -9.5338e-19)
(-4.16681e-06 -5.56306e-07 -4.6812e-19)
(5.74679e-05 -4.74652e-05 -3.00153e-18)
(-0.000363549 0.000568239 5.77124e-18)
(8.34327e-06 -4.30631e-05 -2.38077e-18)
(0.00885396 0.000937542 2.19922e-17)
(-3.80193e-06 -2.10653e-06 1.53243e-19)
(0.00209136 0.00313491 -2.59044e-18)
(9.00695e-05 1.65854e-05 -3.20058e-18)
(-0.00141711 0.00115364 5.56296e-18)
(2.45953e-05 4.93881e-05 8.67522e-18)
(2.61181e-06 2.37051e-05 8.565e-18)
(0.000444443 0.000544877 -1.08552e-17)
(-0.00311486 -0.000482937 -5.85706e-17)
(-0.000348107 0.000386309 2.11488e-17)
(0.00741508 0.0033744 -1.36488e-17)
(-8.63944e-05 0.000567758 -1.73873e-17)
(-1.31552e-05 1.63384e-05 8.39935e-20)
(-0.000108628 0.000116639 -3.90618e-19)
(-0.000494857 0.000267168 4.4866e-18)
(-0.000113203 0.000307588 -4.92966e-18)
(-0.00144534 0.0012432 -3.08999e-17)
(-0.000216626 0.000316553 2.75503e-19)
(0.000127097 -2.57531e-05 -2.2651e-18)
(-0.0043694 0.000209668 -5.6426e-18)
(-1.81183e-06 -1.62496e-05 1.23233e-19)
(0.00644321 0.00141591 -1.51132e-18)
(-1.73293e-06 2.20436e-05 -1.98515e-18)
(-0.00198814 0.00155327 -1.49306e-17)
(-0.00518397 0.00147951 -3.12422e-17)
(0.00517629 0.000882554 -1.87427e-17)
(3.07906e-05 -6.10045e-05 -2.64406e-17)
(-0.00279026 0.00561655 -1.2497e-17)
(0.000546755 -9.02568e-05 1.11149e-17)
(0.00412115 0.00136093 -5.72339e-17)
(0.0145073 -0.0040205 4.98211e-18)
(-0.000168455 9.63179e-05 2.12495e-18)
(0.00329887 0.0205456 6.35291e-17)
(0.000161445 4.76834e-05 1.70086e-17)
(-0.000231603 0.000426313 -3.47891e-18)
(-0.00526867 0.000407155 5.24933e-17)
(-0.0181325 0.0131765 3.42744e-19)
(-9.97218e-05 9.42394e-05 -1.83982e-18)
(-0.00133221 0.00119032 3.27346e-17)
(-0.000186461 0.00014557 -4.27564e-18)
(0.00172411 0.0048076 1.5139e-18)
(0.00555626 0.00151133 2.89174e-17)
(1.34669e-05 0.000152409 6.26789e-20)
(7.69088e-05 -0.000125955 1.6934e-17)
(0.00205587 0.000333924 -1.64641e-17)
(-1.34896e-06 2.63267e-05 5.82183e-19)
(-1.94187e-06 2.90845e-05 -8.48365e-18)
(-0.00120872 0.00118147 -2.09431e-17)
(0.006144 0.00115982 -6.18239e-19)
(0.00916842 -0.00160869 -8.14651e-18)
(1.65484e-05 3.06168e-05 8.17593e-18)
(-0.000258499 -0.00145267 2.88637e-17)
(-0.000198371 0.000263435 -2.35014e-18)
(4.23582e-06 4.26959e-05 -3.63802e-18)
(-0.00315037 -0.000143233 -1.86812e-17)
(1.59111e-05 -0.00148651 -2.52728e-17)
(0.000519077 0.00259661 -3.21012e-18)
(-8.72177e-05 2.02761e-05 1.11101e-18)
(-0.000657884 0.00226584 -9.7637e-18)
(0.00024286 -3.84094e-06 -7.7802e-18)
(-0.00105763 0.000977705 -1.98858e-18)
(2.15075e-05 -3.0658e-05 -2.28305e-17)
(7.90347e-05 0.000126714 1.39764e-18)
(0.000825232 0.000776137 -1.70098e-17)
(5.70918e-05 -4.9101e-05 7.28106e-18)
(-0.000886222 0.00238672 -5.70343e-18)
(-0.000151161 0.000359616 -3.13431e-17)
(-0.000175487 0.000329286 -1.50527e-17)
(0.000369085 -0.000281826 1.34167e-17)
(0.000859221 0.00159529 1.00758e-17)
(-0.00054143 -0.0073822 -3.42726e-17)
(-0.00222152 0.0088635 1.03445e-18)
(0.00912585 -0.00507302 -2.83109e-18)
(-0.00109415 0.0024671 -2.5804e-17)
(-0.00544904 0.000398905 1.36414e-18)
(0.000352742 0.000218878 2.44488e-18)
(0.0104339 0.00821449 -2.65264e-17)
(0.000747424 -0.000224522 1.25115e-17)
(-6.96944e-05 0.000185727 -1.14961e-18)
(-0.000307675 0.000440551 -6.46192e-18)
(-0.000561265 -0.00603222 -1.24991e-18)
(8.74878e-05 0.000412159 4.04142e-18)
(8.62456e-06 7.15264e-05 -1.60971e-18)
(7.46038e-06 6.87255e-05 -5.20509e-19)
(-0.00176768 0.00171066 4.51057e-18)
(-0.00171049 0.000870071 -1.118e-17)
(-0.000430076 0.000393323 7.25274e-18)
(0.00289996 -0.000303896 -4.72373e-17)
(-1.22832e-05 1.59873e-05 1.03024e-19)
(0.00988743 -0.00184134 1.0037e-17)
(0.000332365 -1.73724e-05 -1.47748e-18)
(0.00668976 6.4064e-05 7.49344e-17)
(-0.00110528 0.0013913 1.4184e-18)
(-0.00011299 0.000432561 5.61817e-18)
(-0.000200798 0.00031354 6.58614e-18)
(0.00691432 -3.39234e-05 -2.10437e-17)
(0.000184659 0.00250329 3.32219e-17)
(0.000342716 0.000230838 -1.48081e-18)
(0.00275374 0.00809307 -3.59666e-18)
(-6.90453e-05 0.000289576 -4.95736e-19)
(-0.00734533 0.0001573 2.57003e-17)
(-0.00191075 0.00172801 5.42902e-18)
(0.00237804 0.00283008 6.42609e-18)
(-0.000182885 0.000511103 1.35733e-17)
(-0.0064273 0.00119511 -8.6492e-17)
(1.67562e-05 7.87266e-05 -1.78245e-18)
(-2.06808e-06 2.40228e-05 -1.96887e-18)
(2.49276e-05 -5.47269e-05 -1.64179e-17)
(4.6557e-06 5.18519e-05 4.08995e-18)
(0.00173325 0.00094032 5.88395e-18)
(7.53936e-06 1.22763e-06 -1.98375e-19)
(-0.00215992 0.000566038 1.47645e-17)
(-0.00124713 0.00322093 1.24742e-17)
(-0.00101637 0.0014747 -4.62376e-18)
(0.00477593 0.00678681 2.1764e-17)
(0.00383101 -8.70274e-05 -4.97267e-18)
(0.00279385 0.00279779 -5.82951e-18)
(0.00452222 0.00217514 5.66659e-17)
(3.98014e-05 -5.78043e-05 3.8916e-18)
(4.33984e-08 -1.86766e-05 3.39459e-18)
(2.06958e-05 7.01855e-05 3.28704e-18)
(-5.71805e-05 6.69391e-05 -6.51449e-19)
(-9.95558e-05 0.000117763 -1.92503e-19)
(-2.10801e-06 -2.65538e-06 7.60694e-19)
(-0.000603318 0.000246581 -1.25566e-17)
(-0.00351652 0.00118334 -3.20672e-17)
(0.000253884 -1.32146e-05 7.41677e-18)
(0.0010597 0.00977028 -9.98623e-18)
(5.7199e-05 0.000201661 -2.7793e-19)
(-0.00165869 0.00204867 -1.16008e-18)
(1.16846e-06 8.7756e-06 1.00083e-18)
(0.00503279 -0.00100143 5.74378e-17)
(3.16726e-05 0.000734574 -9.55377e-18)
(2.48913e-06 1.79174e-05 -2.18623e-19)
(7.5869e-07 -8.34439e-05 6.0064e-18)
(0.00456905 0.00142981 -2.61773e-18)
(-0.00014132 0.000420178 5.08217e-18)
(0.00763898 0.0079656 -8.30714e-19)
(0.01422 -0.00614611 8.49854e-18)
(-0.000188209 0.00055627 -5.4106e-18)
(0.000101525 0.000284195 -5.93355e-18)
(-0.000150744 4.32551e-05 5.59226e-19)
(-0.000916619 -0.00415419 3.47869e-18)
(0.000111211 8.35354e-05 2.85541e-18)
(-0.000213685 0.000300903 2.18277e-18)
(-0.00366847 -0.0002625 6.92322e-18)
(-1.98353e-07 -1.84286e-05 4.55421e-18)
(5.09298e-05 -1.05318e-05 -1.0463e-17)
(-0.000128601 0.000132689 6.83595e-19)
(-0.000559948 0.000774891 -1.95093e-18)
(-0.00262992 0.000708976 -5.98499e-18)
(-7.75924e-05 0.000512968 -8.64782e-18)
(-0.000201932 0.000493222 -1.45844e-18)
(-0.0029736 0.00403819 -1.47877e-17)
(0.00230713 0.00666433 5.93501e-17)
(6.48649e-05 -4.76103e-05 -3.59059e-17)
(0.000155319 0.00013331 3.48108e-18)
(0.0016718 0.0030112 -3.8739e-18)
(-5.51428e-05 6.50585e-05 5.48294e-19)