/*--------------------------------*- C++ -*----------------------------------*\
| =========                 |                                                 |
| \\      /  F ield         | OpenFOAM: The Open Source CFD Toolbox           |
|  \\    /   O peration     | Version:  v2012                                 |
|   \\  /    A nd           | Website:  www.openfoam.com                      |
|    \\/     M anipulation  |                                                 |
\*---------------------------------------------------------------------------*/
FoamFile
{
    version     2.0;
    format      ascii;
    class       volScalarField;
    location    "550";
    object      p;
}
// * * * * * * * * * * * * * * * * * * * * * * * * * * * * * * * * * * * * * //

dimensions      [0 2 -2 0 0 0 0];


internalField   nonuniform List<scalar> 
13851
(
-0.116257
-0.0506083
-0.0494676
-0.40175
0.00616833
-0.0600652
-0.0398432
-0.00519325
-0.0838826
0.0317148
-0.146012
0.0143136
0.0420835
-0.0972873
-0.080115
-0.0700185
-0.358648
-0.0190184
-0.186953
-0.117283
-0.0922584
-0.0177325
-0.386553
0.00822809
-0.27457
-0.0685352
-0.0832435
-0.1677
-0.0641211
-0.00829219
-0.381124
-0.0399572
-0.107954
-0.123281
-0.110394
-0.0644491
0.00829459
-0.333107
-0.293653
0.0139962
-0.166207
-0.0650987
-0.383885
-0.182175
-0.0693006
0.00156992
-0.0115508
-0.0763252
-0.024644
0.0425665
-0.252458
0.0495725
-0.0704413
-0.0554123
-0.0790547
0.0150859
-0.109413
-0.170716
-0.0743648
-0.138272
0.0143334
-0.0842738
0.0274847
-0.0248799
0.0486304
0.0546445
-0.139395
0.276745
-0.000681959
-0.399269
-0.369254
-0.101725
0.0277993
-0.135833
-0.062
0.000812618
-0.360763
-0.0109935
-0.277913
0.0120398
-0.00180475
-0.263588
-0.106957
-0.101039
-0.134692
-0.375954
-0.0209065
-0.0631557
0.0306382
-0.380262
0.0505506
-0.0410985
-0.277985
-0.378182
-0.26638
-0.146895
0.0078173
-0.0731876
-0.206467
-0.221022
-0.0736786
0.190058
0.185911
0.0323973
-0.0023315
-0.107186
-0.0017267
-0.370749
-0.0411241
-0.0183107
-0.00793186
0.000866507
-0.197972
-0.141798
-0.0963769
-0.0548262
-0.00393556
-0.00551832
-0.402014
-0.3995
-0.148888
-0.01407
0.00467639
-0.129408
-0.160139
0.318073
0.0071458
-0.117734
-0.135298
-0.0907735
-0.0142852
-0.0765339
-0.328015
-0.118466
-0.150589
-0.2711
0.268573
-0.374447
0.161656
-0.0868297
-0.259508
0.0477297
0.0313167
0.202078
-0.251496
0.0146223
-0.0109504
-0.379675
-0.0720277
-0.122712
-0.0745906
-0.196263
-0.145799
-0.175365
0.0504243
0.0394405
0.0127984
-0.299439
-0.0851023
-0.04271
0.00842273
-0.0635441
-0.104859
-0.077267
-0.0956592
-0.0771657
-0.0794218
-0.254564
-0.00813859
-0.20305
0.0148242
-0.00407039
-0.123275
0.00714379
-0.262484
-0.101049
-0.0804381
-0.0046692
-0.0602967
-0.0798678
-0.157088
-0.1776
-0.013139
-0.089032
-0.365351
-0.0725451
-0.106826
0.126686
0.045981
-0.00498141
-0.247473
-0.0857766
-0.0961045
-0.06165
0.012876
-0.07182
-0.105139
-0.0288236
-0.0227884
0.261255
-0.261885
-0.226117
-0.175945
-0.0786432
-0.167687
-0.225299
0.0842755
-0.0796747
-0.0866172
-0.0544922
-0.0689658
0.00519746
-0.265951
0.0145535
-0.113984
-0.00260966
0.0412252
-0.128494
-0.0273341
0.367034
-0.00484545
-0.121524
-0.101222
-0.265518
0.116004
-0.0795544
0.0142194
0.206985
0.0157074
-0.110592
-0.401402
0.122035
-0.0543909
0.0267757
-0.17258
-0.00893436
-0.375983
-0.181511
-0.211335
0.00853714
-0.312909
-0.130623
-0.0685313
-0.0693286
-0.0829168
0.219962
-0.127556
-0.0599953
-0.141794
-0.0275867
-0.0680369
-0.146107
-0.00191808
-0.0604413
-0.0725197
-0.0610699
-0.0600113
-0.00475996
0.332115
0.0294845
-0.108697
-0.165134
-0.0620567
-0.104724
-0.149284
0.020743
0.192853
-0.0783167
-0.153761
0.0230753
0.0414146
0.120901
-0.0918667
-0.400868
-0.0953929
-0.014796
-0.155216
-0.170286
-0.0987745
-0.103054
-0.0950311
-0.183671
-0.0650053
-0.0753609
-0.352548
-0.00460877
0.0120732
-0.100518
-0.131471
-0.00998768
0.0138384
0.0162282
0.00401941
-0.0798801
0.0123402
-0.0853245
-0.0939998
0.00766186
-0.0670953
-0.12646
0.0482924
-0.120391
-0.229421
0.0489994
0.0494642
-0.0959629
-0.107518
-0.349708
-0.123888
0.00600946
-0.197322
0.0147939
-0.129931
-0.231752
-0.147176
-0.0415866
-0.334253
-0.312762
-0.365058
-0.199104
0.215628
-0.272129
-0.132338
-0.169693
-0.0239094
-0.377827
-0.0617759
0.321958
0.302721
0.0853425
-0.127117
0.0707051
-0.0624858
0.2065
0.000410028
-0.0114886
-0.0481245
-0.368983
0.360194
-0.0048354
-0.261025
0.0811008
-0.0773384
-0.0428515
-0.105223
-0.152628
-0.0711527
-0.000402066
-0.051876
-0.0619951
0.0461367
-0.174322
-0.0636536
-0.0973511
0.0858105
0.030289
0.00681057
-0.215951
-0.229321
-0.142554
-0.321605
-0.0612082
0.0135788
-0.179507
-0.112998
-0.0151315
-0.145895
-0.115207
-0.209095
-0.046279
-0.0651471
-0.0750178
-0.317212
-0.214012
-0.063445
-0.0259436
-0.102427
-0.385684
-0.0785877
-0.0690851
-0.0854939
-0.189008
-0.0744704
-0.0578034
-0.152894
-0.252315
0.0393299
-0.062645
-0.136369
-0.0617011
0.0043458
-0.095196
-0.115996
0.0269558
-0.0810168
-0.40037
-0.0454123
-0.314682
-0.0672782
-0.347188
-0.0572334
-0.0680252
-0.124854
-0.164383
-0.108209
-0.0601882
-0.130951
-0.300793
0.0216089
-0.21162
-0.086615
-0.065784
-0.0123799
-0.377247
-0.138462
-0.303303
-0.0515779
-0.153081
-0.0891565
-0.400443
-0.0139279
-0.377185
-0.262542
-0.392105
-0.0321037
-0.208945
0.0351097
0.00694808
-0.0777029
-0.0916983
0.0324841
-0.0507105
-0.0824332
-0.00203681
-0.13951
-0.127109
-0.115497
-0.0555326
-0.0267278
0.0508976
-0.313367
0.00888037
0.0499337
-0.0645649
-0.119583
-0.0110045
-0.0763891
0.0273309
0.0116405
-0.047617
-0.145179
-0.0641238
0.00491012
-0.035905
-0.145159
-0.0437212
-0.354292
0.0134036
-0.0551769
-0.0662061
0.0743184
-0.0106373
0.0161744
-0.055044
-0.0312203
-0.28184
-0.0654381
-0.0841221
-0.0956583
-0.0492914
0.0178112
-0.115371
-0.0759307
0.132621
0.0256424
-0.130828
0.153361
-0.303723
0.0330168
-0.079181
-0.218665
-0.0676216
-0.132805
-0.0878614
-0.300249
0.0454782
-0.200429
0.0194706
-0.0646553
-0.0676778
-0.103606
-0.0851386
-0.000760718
0.0685192
-0.123707
0.00641896
-0.398274
-0.117639
-0.356041
-0.398148
-0.0646648
-0.324964
-0.169358
0.105804
0.0208245
-0.328713
0.031716
0.00449524
0.110012
-0.254663
-0.0488214
0.0521931
-0.084884
-0.116382
0.0339301
-0.284798
0.00911552
-0.127967
-0.274824
0.0116429
-0.0443067
-0.262673
-0.150874
-0.00934146
-0.34331
-0.362926
-0.0189368
-0.337587
-0.182596
-0.125399
0.0470867
-0.0667919
-0.163912
-0.0192913
-0.218142
0.00188117
0.00873601
-0.0651834
-0.189465
-0.0992461
-0.0630782
0.0324741
-0.0720817
-0.132993
-0.286387
-0.0214685
-0.350897
0.00506629
0.000763401
-0.109357
-0.0518692
-0.0141449
0.0037752
-0.333192
-0.245995
-0.335353
-0.0469457
0.0291514
-0.0894564
0.0208084
-0.212315
-0.0586489
-0.0637251
-0.0840528
-0.0670419
-0.186105
-0.0606081
-0.385073
-0.0406786
-0.134502
-0.0658456
-0.080164
0.00862388
0.0203034
0.178022
-0.329142
-0.0707043
-0.0711152
-0.350218
-0.0518449
-0.0726578
-0.398709
-0.288226
-0.113956
-0.125417
-0.0938909
-0.0629075
-0.0220761
-0.0734646
-0.203799
0.0184015
-0.279519
-0.246714
-0.0132251
-0.0886361
0.0185915
0.0841607
-0.138654
-0.381069
0.00970725
0.00747768
0.108498
-0.115157
0.0129914
-0.258086
0.00739005
-0.0948536
0.0523124
-0.0665551
0.0315241
0.0346441
-0.0797487
-0.348397
-0.110048
-0.269614
-0.0797455
-0.00183941
-0.0170103
-0.126215
-0.034824
-0.171829
-0.0526266
0.133522
-0.0727424
0.021471
-0.0596941
0.0141823
-0.0673373
-0.385021
-0.0747768
0.134354
-0.372348
-0.0733384
-0.239971
-0.245946
-0.0231174
-0.293606
0.0757246
-0.0811387
-0.397535
-0.241815
-0.0152838
-0.169734
-0.0283512
-0.0627063
-0.275083
-0.00411949
0.272429
-0.154047
0.0179775
0.01796
-0.0680498
-0.0590951
-0.0694245
0.0492614
-0.157511
-0.0421461
0.0357684
-0.0710937
-0.15716
-0.219782
-0.0131246
-0.0793086
0.0951832
-0.0664639
0.0653092
0.0142466
-0.130844
0.105058
-0.0774402
-0.0993848
-0.102399
-0.0995716
-0.255382
-0.188205
-0.0938763
-0.341658
-0.0752038
-0.0993232
-0.00961536
-0.0661579
-0.12431
-0.0157786
-0.0716309
-0.184656
-0.0358842
0.011674
0.0105998
-0.0686575
-0.0626079
-0.0564578
-0.18524
-0.00143057
-0.0707476
-0.0368263
-0.234128
-0.169819
-0.0593922
-0.050041
-0.23594
-0.220408
-0.00916306
-0.0903232
-0.0257859
-0.338076
-0.0681411
-0.0969923
-0.0845153
-0.282024
0.0343202
0.0145717
0.0810154
0.0363927
-0.0663841
0.00435037
-0.0710155
-0.0886278
-0.173573
-0.280372
-0.205114
-0.0980818
-0.249663
0.132017
0.0244273
0.0401116
-0.00993447
-0.0164395
0.00722546
-0.132275
-0.190127
0.0963172
-0.166201
-0.00188644
-0.0863044
0.022266
-0.400938
-0.099517
0.0223967
0.0260527
-0.0752755
-0.0608154
-0.0811764
-0.245401
-0.0857105
-0.109054
-0.018675
-0.126509
0.0365245
-0.0497682
-0.0721732
0.0244095
0.0488731
-0.0205477
-0.0696604
-0.0660137
-0.0708434
-0.0853164
-0.268323
-0.28781
0.129847
0.0331396
-0.065111
-0.00971941
-0.0640014
0.00865553
-0.0443124
-0.266646
-0.0858858
-0.0977098
-0.177433
-0.110973
0.0233078
0.0218411
-0.138218
-0.0235456
0.0232096
-0.0552682
-0.262135
0.00533354
-0.228618
-0.306888
-0.0762414
-0.175234
-0.390571
0.169114
0.0245876
-0.214033
-0.000748992
-0.0633672
-0.0902207
-0.0623109
-0.282637
-0.0647796
-0.00812113
-0.00424344
0.0112616
0.0178362
-0.00738094
-0.383443
-0.107173
-0.0717918
-0.0670502
-0.0869439
0.0378624
-0.00785962
-0.342836
-0.117418
-0.0460499
0.0232335
-0.0948637
-0.212052
-0.186755
0.0504352
0.0101057
-0.0657189
0.0644235
-0.0846765
-0.00187816
-0.250242
-0.00151321
-0.38316
0.0277968
-0.202673
-0.089822
0.0324938
-0.0864109
0.0284882
-0.0503834
0.00613849
-0.0701301
0.0613368
-0.0603094
-0.0277499
-0.11112
-0.108728
-0.0804106
0.00490485
-0.399296
-0.06688
-0.0628252
-0.0842902
0.0401486
-0.0598665
-0.0164411
-0.187132
0.0199369
0.00587046
-0.0814678
-0.0847456
0.0161691
-0.0564356
-0.155982
-0.0303171
-0.155231
-0.0039861
-0.0981834
0.0233759
0.00534585
0.0490262
-0.0115271
0.0193013
-0.17521
-0.0945229
-0.0276669
0.00743189
-0.100698
0.000387482
-0.398968
-0.218257
-0.0977622
-0.275518
-0.0500921
-0.0782281
0.0184135
-0.0921935
-0.0255658
-0.0226508
0.00882688
-0.307722
-0.273531
-0.107012
-0.360525
-0.0909354
0.027135
-0.104673
-0.0837075
-0.333066
-0.078012
-0.0778737
-0.119616
0.0135691
-0.389847
-0.388692
-0.0656828
-0.246781
-0.0633374
0.0428983
0.200883
0.0504332
-0.120858
-0.0346144
0.000517289
-0.158354
0.00187747
0.0048807
0.00739032
0.00311868
-0.252239
-0.179473
0.00143222
-0.106596
-0.103725
-0.0162974
-0.367202
0.0647986
-0.0914612
-0.202252
0.0131246
-0.0703676
-0.045741
-0.0833873
-0.000501926
-0.000790556
-0.253499
-0.0668398
-0.156846
-0.0299096
-0.0612397
-0.077415
-0.125201
-0.302026
-0.0605333
-0.0831957
0.0319159
-0.00734391
0.0187751
-0.0570825
0.0258518
-0.135264
-0.00908363
0.0930637
0.128107
0.0408615
-0.00380547
-0.0460881
-0.0417385
-0.0443199
-0.0214786
-0.235128
-0.0690781
-0.0745987
-0.0995056
-0.161983
0.0515252
-0.362961
-0.00930797
-0.0123986
0.0629719
-0.00580123
-0.0647032
0.0182617
0.000962877
0.208621
0.0404294
-0.257124
-0.0330104
-0.284043
-0.158874
-0.141199
-0.214613
-0.0248462
-0.28301
-0.132392
0.0142212
-0.0393664
0.0506339
-0.361775
0.068095
0.183817
-0.142334
-0.400523
-0.151029
-0.0189826
-0.067117
-0.141049
-0.0615874
-0.0424532
-0.00240727
-0.0212812
-0.12178
0.0336491
-0.161818
-0.216114
0.0209345
-0.115199
-0.261381
-0.0199334
-0.232376
-0.380585
-0.104831
-0.0284975
-0.0668001
-0.129559
0.00947716
-0.0710591
0.0302217
-0.0176631
0.0120569
-0.0608649
-0.0589834
-0.0871719
-0.381356
-0.0686854
-0.0817456
-0.0668705
0.0307729
0.294637
0.0110429
-0.32734
-0.0219241
0.00674613
0.0136505
-0.0242014
-0.0990322
-0.0604025
-0.0810092
-0.190737
-0.310873
0.109011
0.0255044
-0.0321265
-0.259229
-0.0217661
-0.00865636
-0.10336
-0.270031
-0.0661592
-0.0106426
-0.0728145
-0.0873306
-0.133703
-0.379686
-0.0189879
-0.0140259
-0.0416882
-0.302067
-0.0539696
-0.137925
0.0170234
0.0102357
-0.0181433
0.0105982
-0.00543989
-0.101176
-0.0630519
-0.0798331
0.134823
0.0188532
-0.31831
-0.0315781
-0.210028
-0.165254
0.116407
-0.350371
-0.0662809
-0.38939
-0.0689336
-0.0761981
-0.0990514
-0.076936
0.0445046
0.000692057
-0.239804
-0.0201919
-0.097079
0.0317133
-0.0833269
-0.305356
-0.00895235
0.0502692
-0.0699803
-0.267358
-0.0809678
0.00891421
-0.0600605
0.0757694
-0.053073
-0.022848
0.023726
-0.0672152
-0.0647476
0.0321607
-0.0743404
-0.0595589
0.0178993
-0.059963
-0.0616864
-0.277727
-0.0612491
0.0160949
-0.0160349
-0.04538
0.0475272
-0.0778742
-0.0814315
0.0231767
-0.0803975
0.10154
-0.110862
-0.0899999
-0.105018
0.0747707
-0.0124487
0.197233
-0.126274
-0.126909
0.0221796
-0.0621543
-0.139175
-0.380306
-0.325979
-0.0842552
-0.0810565
-0.121784
0.023114
0.0284471
-0.0243145
-0.0715485
-0.0648653
-0.13023
-0.392527
-0.0291282
-0.00840059
0.0325625
-0.0669994
-0.0113851
-0.0607573
0.0107169
-0.067056
0.0502496
-0.000260413
0.0224846
0.01322
0.00757763
0.0875044
-0.0790879
0.0402842
-0.142537
0.0269285
0.0102177
-0.130504
-0.109777
-0.063621
-0.0722343
0.149336
-0.0667624
-0.0025394
-0.054226
-0.0108388
0.0272329
-0.0448543
-0.379767
-0.0399319
-0.125399
-0.338466
-0.0298065
-0.00546905
0.100966
-0.100058
0.0131943
-0.0706546
-0.0239674
-0.0718735
0.0262393
-0.0268649
-0.064048
0.10652
0.0430759
-0.0843095
-0.375151
-0.067199
-0.116507
0.0352947
-0.335153
-0.120726
0.0246832
-0.312419
0.047681
0.200673
0.0473502
-0.0269824
0.005515
0.0351149
-0.000882634
0.118045
-0.100548
-0.0199397
0.0277742
0.248695
-0.0164244
-0.332252
0.0263075
-0.0828738
-0.0634231
-0.144496
-0.165489
0.0232946
-0.103369
-0.00207217
-0.0535969
-0.119103
-0.0718197
-0.0845231
0.0125901
-0.0777128
0.195338
-0.0922129
-0.16487
0.056303
-0.186509
-0.0731369
-0.0938986
0.048324
-0.0131655
-0.0750142
-0.400609
-0.0345501
0.00985992
-0.373924
-0.00137187
-0.0961051
0.010776
-0.148309
-0.330045
-0.0141847
-0.397879
-0.0597939
0.0100425
-0.0787508
0.00063316
0.197734
-0.0613249
-0.0993005
-0.0731325
0.00536249
0.0134924
0.21074
0.0209921
0.0232953
-0.0584849
-0.0750089
-0.103753
-0.158147
0.0323097
-0.0723178
-0.0117422
0.0178377
0.021093
0.0246801
-0.318611
-0.0215635
0.0668424
-0.0775423
-0.00167736
0.00869139
-0.096094
0.0232669
-0.274698
-0.0413199
-0.0860382
-0.142332
0.155947
-0.333152
-0.145876
-0.0616108
-0.0284622
-0.213248
-0.047364
-0.013274
0.00252154
0.0680518
-0.0777679
0.0127285
-0.112574
0.00326887
-0.0150973
-0.377403
-0.257491
-0.220722
-0.0443699
0.204279
-0.192005
-0.39953
0.02123
-0.0592412
-0.165321
-0.0261687
-0.0990646
-0.328515
-0.0744896
-0.057982
-0.0779446
0.00670564
-0.264948
0.0220329
0.0501915
-0.190542
0.0342154
-0.0058418
-0.33204
-0.110521
-0.0817312
-0.118688
-0.0700904
0.0471
0.00371529
-0.0272486
-0.351715
-0.19953
-0.144086
-0.132507
0.0369366
-0.226272
0.0266174
-0.206484
0.117261
-0.0396395
-0.096355
0.0200002
-0.236703
-0.305022
-0.018612
-0.114188
-0.0659298
-0.333683
-0.111896
-0.0692896
-0.0797263
-0.0650702
-0.068172
-0.0740266
0.0263116
-0.06815
0.28944
-0.06643
0.0165446
-0.0772378
-0.115675
-0.0671323
0.0138779
-0.323649
-0.0589339
0.0360763
-0.00613647
-0.084858
-0.0817885
0.0525925
0.00663259
0.00999997
-0.116966
-0.282436
-0.139669
0.0240594
0.0630722
-0.0661318
-0.18794
0.0206196
-0.167523
-0.355603
-0.0768125
-0.07508
-0.0576818
-0.211365
-0.252075
0.0230299
-0.30861
0.0080157
-0.0134348
-0.0681978
-0.0827335
-0.162943
-0.0717438
-0.0531316
-0.0756547
-0.0782715
0.013788
-0.0112974
0.107759
-0.0559061
0.0702879
-0.163318
-0.0313139
0.00176852
0.0108341
-0.063519
-0.160246
0.0329119
-0.0519574
0.0793355
-0.110724
-0.209887
-0.0675215
-0.0667951
-0.153198
-0.303359
-0.14095
-0.0696108
0.00375114
0.354326
-0.00894221
0.116259
-0.343898
-0.0648697
-0.231378
-0.311762
0.025618
-0.109088
0.00331637
-0.0810014
0.0230925
-0.0665662
-0.174098
-0.0442793
0.00527552
-0.230592
0.197364
0.0199404
-0.35451
0.0302752
0.0379898
-0.0561881
0.0486245
-0.0738841
0.0810708
0.0375161
-0.0529428
-0.276813
-0.0878937
-0.138097
0.0204312
-0.214454
-0.0630121
0.00541041
-0.0834289
0.025995
0.106734
-0.128119
0.00558544
0.0409521
0.0734502
-0.225391
0.0194941
0.01017
-0.101181
-0.0634845
0.00497265
0.0404767
-0.0171942
-0.156689
-0.114621
-0.101192
-0.111092
0.0296663
0.22127
-0.00737802
-0.143225
-0.0663811
0.0317804
-0.0508399
-0.174522
0.00960854
-0.0259093
-0.136565
-0.0633068
-0.0310098
-0.127361
0.0136035
-0.00815621
-0.123601
0.0155268
-0.0216871
-0.247335
0.0191316
-0.0937244
-0.0779583
-0.357918
-0.153877
-0.0215794
0.0903273
0.100528
0.011018
0.0333599
0.0222863
-0.0656297
0.0174765
-0.0668366
-0.0898568
-0.00615052
-0.0166586
-0.0753778
-0.0913018
-0.0812417
0.0245481
-0.141568
0.00578785
-0.0833316
-0.141394
-0.0518892
-0.0773147
-0.106654
-0.159153
-0.396842
-0.0588306
-0.0608771
-0.114429
-0.399032
-0.0515171
0.00264472
-0.0947391
0.166299
-0.0174067
-0.0315121
-0.0831016
0.0138078
-0.010308
0.0192346
-0.0134586
-0.0426964
-0.0222556
-0.366893
0.00523625
-0.322239
0.0114663
-0.087145
-0.0217345
-0.0973429
-0.101949
0.0326342
-0.0935239
0.0889664
0.0190127
-0.0820059
-0.0119059
0.0486945
-0.0197565
-0.0630099
-0.00848503
-0.102104
0.309314
-0.0925175
0.00399778
-0.0663407
-0.16573
-0.0977851
-0.0240961
-0.0362328
-0.0676259
-0.131682
-0.300697
-0.0104746
-0.400531
0.00950236
0.175098
-0.35677
-0.0791938
-0.0639745
-0.0137551
-0.0821923
0.0163127
-0.30186
-0.0689183
0.00743608
-0.0902172
-0.165902
-0.0219429
0.0271946
0.00932448
-0.291567
0.0187996
0.0070304
-0.115392
0.0314162
0.0223008
-0.111491
-0.0162909
-0.0985873
-0.00864521
0.0302407
0.000890543
0.109839
-0.0274504
-0.0234351
-0.089365
-0.111772
0.0186862
0.0275561
-0.142578
-0.0292058
-0.398996
-0.0362861
-0.328329
-0.00580466
0.0342647
-0.00229579
-0.0625322
-0.11219
0.00615771
0.0202936
0.119597
0.00752624
0.026696
-0.0631514
0.00744238
-0.0788334
-0.00944513
-0.0596139
0.0213429
-0.144322
-0.000925515
-0.073382
-0.00355685
-0.222271
-0.287648
-0.0114119
-0.0591506
-0.273319
-0.0922422
-0.0679659
-0.0653676
-0.239594
0.0788557
-0.0869616
-0.143952
-0.154476
-0.0276204
-0.0594125
0.0984493
0.00246118
-0.0603819
-0.400809
-0.102733
-0.133825
-0.23899
-0.0534761
-0.0856676
-0.0173068
-0.0108722
-0.176426
-0.309021
-0.188522
-0.205102
-0.134959
-0.0025996
-0.317603
-0.0717315
-0.359246
0.0100932
-0.31019
-0.388054
-0.292255
-0.107375
-0.100802
-0.0822032
-0.0734366
-0.194461
0.105658
0.0113795
-0.305111
-0.110296
-0.0116673
-0.139772
0.0178214
0.0125655
-0.0896926
0.0896861
-0.232468
0.081716
-0.399879
-0.068813
0.112541
-0.118503
-0.219659
-0.138224
0.0591949
0.100957
-0.136412
-0.0458726
-0.00118546
-0.115744
0.0498143
-0.196769
0.0165624
-0.184717
0.0108757
-0.0876572
-0.0672963
-0.0676213
0.0765647
-0.18538
-0.354051
0.0350027
0.0090438
-0.361158
-0.262472
-0.0331213
-0.048759
0.0178981
-0.127298
-0.0521142
-0.0649337
-0.165269
0.0483857
0.00919473
0.235299
-0.017244
-0.127212
-0.259583
0.000255868
0.0197058
-0.0446992
0.0133423
-0.0438439
0.0056823
-0.0281587
0.0975783
0.0116321
0.0196055
0.0478041
-0.0741399
-0.158814
0.0128533
-0.142273
-0.350349
-0.00763129
0.0822545
-0.193756
-0.160784
0.0427635
-0.107137
-0.0651124
0.169572
-0.0731711
-0.0211154
0.0091271
-0.309123
-0.0475704
-0.0739002
0.0453038
0.0334383
0.0158523
-0.115272
0.0171264
-0.102921
-0.0797234
-0.150673
0.00661386
-0.127298
-0.322387
-0.142306
-0.00286911
-0.206088
0.164925
-0.319164
-0.26092
0.0639724
0.0040423
-0.218288
-0.130315
-0.0778889
-0.0919401
-0.0818684
0.0079671
-0.0155294
-0.0398648
0.0167352
0.0479085
-0.214349
0.0149956
0.194719
-0.00707371
-0.191864
-0.1313
-0.111847
-0.0655647
-0.144034
0.0451663
0.0214112
-0.24061
-0.0109967
-0.0112982
-0.00836674
-0.176135
-0.13132
-0.304436
0.0904801
-0.0276314
-0.0127338
-0.0157912
-0.0982779
0.00649482
-0.0653129
-0.192324
0.0206648
0.0242981
-0.0795208
-0.0785862
-0.0385704
0.0258336
-0.159552
-0.196029
-0.0212388
-0.110746
0.0149811
-0.132875
-0.228616
-0.035661
-0.399233
-0.392038
-0.151286
-0.00687452
-0.0277341
0.0192282
0.0230571
-0.112098
0.00557062
-0.217452
-0.0707553
-0.284459
-0.0284984
-0.131414
-0.147547
-0.117538
-0.232907
-0.346845
-0.00902415
-0.0572843
-0.0582774
-0.0679822
-0.0736123
-0.0130232
-0.0641597
-0.0128771
-0.0785667
0.0442999
0.00364383
-0.245519
-0.0986689
-0.399112
0.0159955
-0.128681
-0.0262899
-0.102312
-0.0490058
-0.109657
-0.119577
-0.228972
-0.0698359
0.0160154
0.0108565
-0.106187
0.0233418
-0.086945
-0.254408
0.00918865
-0.0673872
0.145913
-0.269819
-0.0454258
-0.107795
-0.10083
-0.0182495
-0.15081
0.0194177
-0.0802726
-0.0606932
-0.183214
-0.311528
-0.13838
-0.00064468
-0.100795
-0.0140788
-0.201148
0.00556827
-0.239824
-0.0146244
-0.0986916
-0.0142196
0.0147993
-0.0798741
0.0962305
0.0384475
0.0107089
-0.0729484
-0.0694801
0.00619934
-0.082888
-0.065014
-0.237062
0.0346242
-0.347879
-0.0135024
-0.0676673
-0.0611559
-0.00716131
-0.14072
0.0151839
-0.346229
-0.0831407
-0.0494612
0.0280492
-0.267102
-0.0982702
-0.0151629
-0.124149
-0.205163
-0.147409
-0.0181898
-0.151392
0.0236863
-0.210059
-0.0591764
-0.160859
-0.237841
-0.0773041
0.161086
-0.134064
-0.102125
0.0199422
-0.00284481
-0.119362
-0.143998
-0.16892
0.243837
0.00947363
-0.0626844
-0.170373
-0.266858
-0.0758881
-0.255294
-0.0719662
-0.333113
-0.322744
0.0180275
0.0960962
0.0230905
-0.0184371
-0.0128579
-0.108065
-0.00409658
0.076013
-0.319806
0.0115968
0.000191408
-0.0672147
-0.161828
-0.0674376
-0.0047297
-0.2314
-0.0425047
-0.069164
0.0213251
-0.375758
0.074727
-0.171005
0.0321802
-0.0864112
-0.115634
0.0233336
-0.403093
-0.144361
-0.146864
0.0160808
0.0016772
-0.0797161
-0.375672
-0.0635694
-0.0177042
-0.149378
-0.137325
-0.0223897
0.00911198
-0.00060988
-0.129519
0.119184
-0.0561578
-0.0472414
-0.0558036
-0.0867567
-0.161679
-0.150334
-0.0487995
-0.0815755
-0.0136776
-0.174012
-0.125858
0.0293562
-0.062814
-0.34254
-0.158038
-0.063142
-0.390032
-0.343467
-0.235111
0.0766598
-0.0213669
-0.178183
-0.24023
-0.241347
0.018097
-0.0933221
0.0373122
0.0176896
-0.0639346
-0.184989
-0.103604
0.0161759
-0.0977732
-0.122466
-0.111776
-0.107384
-0.275882
-0.0860006
0.00190524
-0.114044
-0.0656807
-0.267056
-0.0630441
-0.0995923
0.0486171
0.00214565
-0.0986963
-0.110101
-0.0108473
-0.0756005
-0.0661739
0.02075
-0.0693136
-0.0814556
0.0470437
-0.0738461
-0.146064
-0.0714363
0.0270292
0.31115
-0.115359
-0.0617469
-0.102461
-0.0192786
-0.0737811
-0.0427118
0.0444886
-0.00739537
0.147261
-0.0686011
-0.0781907
-0.234285
0.00941051
-0.0180118
-0.0743501
-0.0652579
-0.231614
-0.149588
-0.0758349
-0.0137368
0.0349238
-0.076818
-0.0135367
-0.277113
0.0335581
0.0176061
-0.00903947
-0.0620514
-0.357898
0.0477569
-0.0915562
-0.0407101
0.00873205
-0.0746387
0.151305
-0.0878212
-0.0915285
-0.400476
-0.0601136
-0.204918
-0.0919744
-0.245004
-0.0680683
0.00271576
-0.00302573
-0.112553
-0.141133
-0.00154555
0.00307943
-0.0707278
-0.135236
-0.0689668
-0.397873
-0.093813
0.0168391
-0.213495
0.0110888
-0.0684018
0.027316
-0.147212
0.00848721
-0.0603113
-0.121081
-0.0787252
0.0258126
-0.0642701
0.111235
-0.0897415
-0.215937
-0.0686401
0.00202651
-0.1626
-0.0875956
-0.201976
-0.10163
-0.136379
-0.0103701
-0.0917243
-0.0193373
-0.346022
0.0150949
-0.0730567
-0.0960434
-0.267287
-0.00961099
0.0115842
-0.35242
-0.10375
-0.348303
0.159038
0.0252561
-0.106349
-0.118524
0.162431
-0.0687881
-0.0705143
-0.189385
-0.0446191
0.0182336
0.00832974
-0.253708
0.0595635
-0.161545
0.0383595
-0.00612215
-0.248043
-0.0561122
-0.0167615
0.0151035
-0.0749849
-0.176391
-0.0732284
-0.099278
0.0851618
-0.135003
0.0222354
-0.210638
-0.0777961
-0.101773
0.202195
-0.0479837
-0.10799
0.132358
-0.0187002
-0.0974641
-0.394906
-0.0610583
-0.0243071
-0.319901
-0.0854068
0.0164926
0.0646991
-0.111702
-0.118197
0.12368
-0.0772813
-0.239468
-0.0267
-0.0894455
-0.0125178
-0.0599285
-0.1321
-0.342236
-0.0812339
-0.0663162
-0.137364
-0.0627946
-0.133721
-0.0395887
-0.0935053
0.031169
-0.064571
-0.151349
0.0217794
0.00661523
-0.061389
0.0462317
0.0254655
-0.113929
-0.079559
-0.161878
-0.0544111
-0.150314
0.00664864
-0.0654853
-0.0865271
0.00999145
-0.0952643
-0.324209
-0.241033
-0.065653
-0.082155
-0.0621499
0.0026028
0.0745635
-0.128309
-0.102537
0.0265563
-0.069636
0.0281537
-0.0780928
-0.101623
0.120077
-0.0862225
-0.0750176
-0.0982669
-0.0762127
0.234847
-0.366637
-0.276959
-0.0536156
-0.0112968
-0.0660756
0.00732148
-0.0104251
-0.321716
0.0202701
-0.0675938
0.0476731
-0.155136
-0.0520963
0.0208348
-0.347533
0.115412
0.0813286
-0.0608002
-0.232354
-0.299325
-0.0569095
-0.0612637
0.0494315
-0.066527
-0.127913
-0.0728721
0.0235478
-0.18529
-0.117589
-0.0390439
-0.0656705
-0.0969136
0.00391119
-0.22813
-0.1377
-0.0741311
0.0200158
-0.219916
-0.00333591
-0.119776
-0.0706403
-0.156657
0.00127773
-0.0987444
-0.400718
-0.0418913
-0.142552
-0.0583404
-0.104347
-0.179336
-0.111202
0.0773207
-0.377704
0.00178989
-0.0637656
0.0157548
-0.0367565
-0.111704
-0.0634182
-0.0488536
0.289656
-0.199391
-0.0654013
-0.021476
0.0534219
-0.110121
-0.306392
0.110623
-0.325021
-0.132282
-0.0618619
-0.0741658
-0.136462
-0.0883043
0.178953
-0.108133
0.00683718
-0.0386205
-0.0274922
-0.326691
0.0274006
-0.068064
-0.0104134
-0.0923646
-0.0718784
-0.102134
-0.108569
0.0748747
-0.177841
-0.0117434
0.0465696
0.0163362
0.0236871
-0.0509841
0.0089535
-0.088578
-0.18838
-0.096073
-0.0986415
-0.050912
-0.00658708
-0.0674008
0.0214852
-0.0882996
-0.125087
-0.382536
-0.0801411
-0.0676223
-0.0560028
0.0199872
0.0649884
0.164942
-0.103197
-0.194235
-0.0903178
-0.358503
-0.0761273
0.0103834
-0.000682868
-0.0611321
0.0111614
-0.0725169
0.221047
-0.234518
-0.0415137
-0.124123
0.0245099
-0.0303056
0.03761
0.044135
0.0622309
-0.0819864
-0.00952158
-0.0626621
0.171782
-0.0930183
-0.0823071
-0.184273
-0.16022
-0.25362
-0.0718787
-0.0434126
-0.0190125
-0.0774855
-0.0627338
-0.222731
-0.0670391
-0.0696763
-0.19289
-0.0757933
-0.0346641
0.0140994
-0.0682849
0.019389
-0.0590861
-0.387791
0.0174216
-0.0141484
-0.280993
-0.063277
-0.0710727
-0.309932
0.0448011
-0.0808597
-0.102728
-0.239601
0.134195
0.018014
-0.0659961
0.252743
0.0329789
-0.0908527
0.02084
-0.2036
-0.0649961
0.246558
-0.307906
0.117501
-0.134324
0.00919731
-0.372057
0.0419264
-0.0553842
-0.00201361
-0.112623
0.00978166
0.0437203
-0.0637873
-0.244601
-0.11266
-0.037588
0.152631
-0.00584857
-0.00306488
-0.0392435
-0.0940311
-0.0547349
-0.169891
-0.108837
-0.20115
0.0204361
-0.210727
-0.238722
-0.161543
-0.0441085
-0.19488
0.0180509
-0.0132926
0.0159505
-0.308045
-0.0170526
0.0283922
-0.065881
0.0193709
-0.202206
0.0745315
-0.0207132
-0.0933749
-0.049057
-0.159546
-0.00935376
-0.132216
-0.0149266
0.218253
-0.399495
-0.112349
0.0133931
-0.0531126
-0.0956109
-0.0593796
-0.212711
-0.0783615
-0.0406563
-0.195004
0.00479201
-0.0292941
-0.355179
-0.0679523
-0.0529961
-0.0683416
0.0193272
-0.00196003
0.00916264
-0.0530936
0.0400329
0.0288104
-0.136678
-0.405222
0.134274
-0.399529
-0.0689244
-0.0538864
-0.269308
-0.368295
0.0542097
-0.349055
-0.330639
-0.0736878
-0.313157
-0.0761874
-0.0978316
-0.0707615
-0.392348
-0.312488
-0.210556
0.0840485
0.0946355
0.0605043
-0.0501287
0.00313134
-0.277189
0.019112
-0.400503
0.048413
-0.156092
-0.00991612
-0.0967823
0.0851152
0.0840466
0.0230373
0.00681085
0.0823018
-0.0437532
-0.0302518
-0.0632938
-0.317226
-0.0494751
-0.215448
-0.00133032
0.0959231
0.122253
0.0409438
0.00825213
0.0087758
-0.150091
-0.0914537
-0.141309
-0.347007
-0.0223767
-0.127998
0.0257454
-0.0694314
0.00350516
-0.00964601
0.021233
-0.0867463
-0.00807522
-0.0623319
-0.260302
-0.00602357
-0.0740254
0.0218813
-0.307089
-0.215453
-0.39058
-0.094745
-0.20954
-0.197754
-0.0710395
-0.223501
-0.0694151
-0.377482
0.0624614
0.169111
-0.286876
-0.216806
0.0277218
-0.398369
-0.195062
-0.1324
-0.00947434
-0.0972522
-0.293328
0.0153838
-0.401461
0.1038
-0.251631
0.00817261
0.045481
-0.146308
0.0145516
-0.0522808
-0.138919
-0.0148219
-0.0217727
-0.0631529
-0.153873
-0.399292
-0.0677396
-0.0286393
0.0574414
0.0157853
-0.0101615
-0.0790743
-0.089683
-0.111869
-0.271192
-0.0763416
0.00394343
0.00473622
-0.123514
-0.396257
-0.247912
0.111509
-0.0080491
0.140966
-0.401321
-0.395588
-0.0139951
0.0145314
-0.299712
-0.023807
-0.136071
0.0768449
0.0198408
-0.0271133
0.103238
-0.143048
-0.291059
0.00925586
-0.0149478
-0.0368876
-0.0664775
-0.272849
0.0207983
-0.202898
-0.235978
-0.0135877
-0.0640149
-0.0666353
-0.399109
0.0262011
-0.400315
-0.278403
-0.0335915
-0.031906
-0.0438261
0.33646
-0.222351
-0.0568854
0.0130033
-0.397143
-0.227257
-0.00909861
-0.128074
-0.19545
-0.0739853
-0.180686
-0.268353
-0.128736
-0.240363
-0.0569586
0.0799888
-0.0407831
-0.142286
-0.255559
-0.249935
-0.397527
-0.168318
-0.0135267
-0.0790876
0.00772316
0.0107749
0.0326777
0.0111628
0.0241478
-0.0112697
-0.07422
-0.332997
-0.331943
0.0128381
-0.180563
0.17948
-0.00173294
0.0045647
-0.138284
0.0211729
-0.0603521
-0.066047
0.0232101
-0.0122546
-0.0696746
0.00990833
-0.243444
-0.0527426
-0.00556999
-0.014054
-0.17825
-0.0105576
-0.314907
-0.148134
-0.0126933
-0.106697
-0.00896602
-0.0390546
-0.0229739
-0.16628
-0.0800141
0.0109013
-0.159858
-0.0810477
0.0203008
-0.0142226
0.0369886
-0.0264944
0.0203551
-0.276803
-0.236638
-0.403253
-0.062679
-0.400967
0.0210633
-0.0577599
-0.028345
-0.204696
0.0522383
-0.0954292
0.000312108
-0.06108
-0.124717
-0.365597
-0.0768013
8.27985e-05
-0.106221
-0.00233122
-0.169299
-0.0102437
-0.00937588
-0.046739
-0.0575352
0.00329437
0.0116337
0.0698884
-0.150623
0.049056
-0.017884
-0.0476496
0.0118704
-0.0883717
0.0199038
-0.397151
-0.0633736
-0.0404826
-0.109604
-0.400492
-0.0644861
-0.210693
-0.0118979
0.0202837
-0.0716633
-0.0786134
-0.205868
-0.0638012
-0.0756212
-0.0311706
-0.114183
-0.0714395
-0.0598244
0.0230037
0.00432538
-0.146438
-0.13661
-0.40042
-0.0532366
-0.00976662
0.0222825
-0.399686
-0.0976718
-0.0113587
-0.225048
-0.0170534
-0.0780849
-0.0773118
-0.0787751
-0.025883
0.0170694
0.00644114
-0.0523868
-0.172827
-0.242256
-0.0124441
-0.0106839
-0.246561
0.00916294
0.0153713
0.110247
0.102896
-0.0625924
0.0168717
-0.0614515
-0.0721732
0.103566
-0.350586
-0.109439
0.0288916
-0.0532432
0.0335388
0.0089529
-0.397519
0.314332
-0.0636126
-0.025086
0.0193254
-0.13633
0.0924988
0.0231489
-0.0686214
-0.340844
-0.00780241
-0.0954586
0.0321012
-0.107758
0.025829
-0.0192152
-0.401577
-0.13998
-0.13443
0.0189366
-0.129513
-0.0177756
0.0226902
-0.067175
-0.0909502