/*--------------------------------*- C++ -*----------------------------------*\
| =========                 |                                                 |
| \\      /  F ield         | OpenFOAM: The Open Source CFD Toolbox           |
|  \\    /   O peration     | Version:  v2012                                 |
|   \\  /    A nd           | Website:  www.openfoam.com                      |
|    \\/     M anipulation  |                                                 |
\*---------------------------------------------------------------------------*/
FoamFile
{
    version     2.0;
    format      ascii;
    class       volScalarField;
    location    "250";
    object      k;
}
// * * * * * * * * * * * * * * * * * * * * * * * * * * * * * * * * * * * * * //

dimensions      [0 2 -2 0 0 0 0];


internalField   nonuniform List<scalar> 
13917
(
0.0135554
0.000173972
0.00025721
0.000150424
0.00017031
0.000173766
0.00016093
5.06558e-05
0.000158649
0.00206441
0.000229144
0.000148117
0.000166547
0.0413113
0.000162873
0.0121352
0.000150518
0.000214966
0.000220207
0.0106779
0.0001665
0.000150149
0.000182391
0.000150182
0.000153273
0.000168405
0.000312144
0.00143132
0.000179708
0.000141238
0.00202507
0.000197384
0.00015043
0.0191726
0.000145951
0.00157211
0.000153503
0.000166252
0.000161028
0.000173715
0.000149318
0.000151624
0.000155499
0.000217928
0.000217574
0.000251089
0.000164794
0.021969
0.0217031
0.000146012
0.000147892
0.000217252
0.00951174
0.000148113
0.000148415
0.000216807
0.00056148
0.000182373
0.000150596
0.00025033
0.0174882
0.000161395
0.000142998
0.00015286
0.000349306
0.002506
0.000184901
0.00126893
0.000233676
0.0161947
0.000293321
0.0192962
0.000147984
0.000148563
0.000167883
0.000153955
0.000161542
0.000147829
0.000153573
0.000150682
0.000151358
0.000151853
0.000147873
0.000279313
0.00014217
0.000224111
0.000195858
0.000146319
0.000173018
0.000150329
0.000140428
0.000155862
0.0205044
0.000144465
0.000150321
0.000184522
0.000348508
0.000153581
0.000145369
0.000220035
0.000146664
0.000145652
0.000151413
0.000146405
0.000161308
0.00378532
0.0119251
0.000165235
0.000154019
0.00112019
0.000145128
0.0180199
0.000179376
0.0229839
0.000343918
0.00015466
0.000217096
0.000142433
0.000245428
0.000147072
0.000151681
0.000145598
0.00019254
0.000209941
0.0214092
0.00029307
0.000152453
0.000169855
0.000143917
0.000210666
0.00016939
0.000248613
0.02478
0.000154491
0.000203704
0.0029704
0.0129995
0.0262419
0.000170836
0.000165743
0.0188831
0.000146574
0.00382528
0.000144563
0.000147213
0.000167785
0.000292717
0.0061382
0.019351
0.000148338
0.000169916
0.000144562
0.000146955
0.00014715
0.000675691
0.000154162
0.000145953
0.0319934
0.000147527
0.00014404
0.000142539
0.00049838
0.000155919
0.0165282
0.00754737
0.000234754
0.00866624
0.0266498
0.000131095
0.000173239
0.000151061
0.0147941
0.000158531
0.00507658
0.000197345
0.00014639
0.000150428
0.000221648
0.000168438
0.000156478
0.000155258
0.000150469
0.000147898
0.000242701
0.000246239
0.000249714
0.000147707
0.000242096
0.000141469
0.000220012
0.000197622
0.000213859
0.000227776
0.0132147
0.000144373
0.0210751
0.000158587
0.0216536
0.000145748
0.000153011
0.000162304
0.0156212
0.0227174
0.000152944
0.000337711
0.000166841
0.000170678
0.000146634
0.000220526
0.000151495
0.00014079
0.000177687
0.00017846
0.0204814
0.000202379
0.000170381
0.00192588
0.00015659
0.000137109
0.000137012
0.0292237
0.00023391
0.000250749
0.000143407
0.000143701
0.00829606
0.0184997
0.000136389
0.000136252
0.000149196
0.000137395
0.000137308
0.0187529
0.0118499
0.000150633
0.000131405
0.000200283
0.0211623
0.000148238
0.000143385
0.000329426
0.00639996
0.000237688
0.00217021
0.000209717
0.000144617
0.0141686
0.000202073
0.000176109
0.000202148
0.000152635
0.0133646
0.000147263
0.000177923
0.00019385
0.00015134
0.000149394
0.000152801
0.00016864
0.00014778
0.0261808
0.0116689
0.000145972
0.000136206
0.000154854
0.000136242
0.000147297
0.000167037
0.000173995
0.000146974
0.0317308
0.0113379
0.000146046
0.000163819
0.000267758
0.000137294
0.000208629
0.0283704
0.000137334
0.0189598
0.00014741
0.000482114
0.000146917
0.000160895
0.000151727
0.000144318
0.000233814
0.00015671
0.000254381
0.000162235
0.00835749
0.000168654
0.000313812
0.0266926
0.000144619
0.000187216
0.000169186
0.000154946
0.000169511
0.000153544
0.000145287
0.00015373
0.000221184
0.000204592
0.000176654
0.000153183
0.000143263
0.0284837
0.0133951
0.000143067
0.000176616
0.000155111
0.00027166
0.000224867
0.0119073
0.00390213
0.0016938
0.00023575
0.000162689
0.000280996
0.00032171
0.000257568
0.000165784
0.000162738
0.000316324
0.000152641
0.000178352
0.000213414
0.000149091
0.0134993
0.000142601
0.000178067
0.000142537
0.00703918
0.000139535
0.000174478
0.000167537
0.00125859
0.000148627
0.000202289
0.000708128
0.00014992
0.000152634
0.016389
0.00150029
0.000337279
0.0414346
0.00013683
0.000150095
0.009726
0.000235711
0.000136884
0.000170218
0.000147823
0.000185655
0.000175491
0.000217223
0.000208626
0.000208222
0.000177987
0.0165865
0.000144344
0.000149862
0.000172511
0.000244113
0.000148634
0.0124276
0.000177618
0.00376863
0.000148686
0.000221893
0.000174309
0.0188954
0.000151677
0.000250935
0.000267703
0.000170466
0.000146308
0.000300153
0.000145624
0.00796005
0.000232056
0.000151906
0.0207654
0.000153626
0.000182337
0.000140749
0.0108069
0.000211744
0.000152927
0.0102362
0.000201804
0.000152057
0.00156121
0.000260391
0.000152225
0.000234929
0.000149306
0.00020254
0.000255773
0.000142828
0.000160003
0.000153181
0.000143932
0.00014072
0.000144942
0.0256883
0.000234302
0.000149247
0.00014538
0.000149053
0.000185923
0.0113286
0.000139371
0.000131204
0.000224413
0.000221691
0.000144732
0.000152639
0.000403924
0.00846409
0.00262782
0.000223
0.000274346
0.000142766
0.000138559
0.000162408
0.0001406
0.000139443
0.000151017
0.000138637
0.000142071
0.0149168
0.000149527
0.000176938
0.0337519
0.000186843
0.000141018
0.0001467
0.00166447
0.000162292
0.0191283
0.000141349
0.000143558
0.000146798
0.000137744
0.000153229
0.000154622
0.000395034
0.000188489
0.0062742
0.000143523
0.000172607
0.000191594
0.000151335
0.000208435
0.000313815
0.000147606
0.0178846
0.000141382
0.000144358
0.000148684
0.000153624
0.000140319
0.000151402
0.0282423
0.00711035
0.000140127
0.000310425
0.000223669
0.000148412
0.000190165
0.000198951
0.00493249
0.00016138
0.00269904
0.00185195
0.00116412
0.000154565
0.00193768
0.000193969
0.000152372
0.000322904
0.000141767
0.000147804
0.000150233
0.000159384
0.000166455
0.000239794
0.000188836
0.000163054
0.00016558
0.000203437
0.000187234
0.000149257
0.0395668
0.000173514
0.000162269
0.00700941
0.00014223
0.000188599
0.000226837
0.000139835
0.0403593
0.000145301
0.00013772
0.000187161
0.000141425
0.000154217
0.000220035
0.0425468
0.0197555
0.000142423
0.000151222
0.000160181
0.000312618
0.000331065
0.000148904
0.000148246
0.00014218
0.000191073
0.00544042
0.00014437
0.000148291
0.000152433
0.000143569
0.000176277
0.000163252
0.000143552
0.000189427
0.000139856
0.000149292
0.000152854
0.0129892
0.000136957
0.000154895
0.000147741
0.000171346
0.000196317
0.000188883
0.000195435
0.000226148
0.000152104
0.000194553
0.0177934
0.0121292
0.037296
0.000142388
0.000148332
0.000165292
0.000144726
0.000385614
0.000137939
0.0066236
0.000158597
0.00377663
0.000213553
0.000155525
0.01027
0.000140087
0.000193822
0.000153429
0.000156104
0.00569047
0.000140257
0.000255581
0.000144631
0.000155489
0.000148724
0.000238013
0.00017983
0.00013588
0.00021842
0.000189233
0.0109089
0.000290503
0.0305235
0.00572777
0.000137022
0.0180645
0.00013963
0.0134287
0.00369613
0.000158934
0.000170533
0.000146161
0.000172883
0.000154698
0.000140369
0.00015323
0.000164986
0.000291926
0.0001429
0.000193281
0.000147581
0.000135756
0.000147458
0.000241909
0.000324826
0.0140183
0.000199473
0.000163044
0.000284628
0.0220409
0.000141222
0.000340986
0.000163237
0.000211398
0.000144726
0.000294253
0.000143278
0.000176961
0.000147485
0.010499
0.000174352
0.000386412
0.000144539
0.0001725
0.000145615
0.000146802
0.0161901
0.000228122
0.000146982
0.000221111
0.000143262
0.00015417
0.000145436
0.0157474
0.000142911
0.000169919
0.000137923
0.000146282
0.000243821
0.000144846
0.000218618
0.000153093
0.000139659
0.0196242
0.000194402
0.000148644
0.0123119
0.000252362
0.00391723
0.000227944
0.000139911
0.000164365
0.0138725
0.000265369
0.000161206
0.000153497
0.000178553
0.000152566
0.000145112
0.00193328
0.000198975
0.00015674
0.0102646
0.000174966
0.0242228
0.000351102
0.000199566
0.000172837
0.000226853
0.0196726
0.000145219
0.000185471
0.00177095
0.000139748
0.000146315
0.000147599
0.000161882
0.000154069
0.0181485
0.000171638
0.000143189
0.000210187
0.000143753
0.0102849
0.000147454
0.000143871
0.0437975
0.000194166
0.00453639
0.000148403
0.000150252
0.000143518
0.000150038
0.000163535
0.000144308
0.0220975
0.0001651
0.00678032
0.00486487
0.000186183
0.0312953
0.000151258
0.000151956
0.000146077
0.0286043
0.0154004
0.000159214
0.0212975
0.00262283
0.000139645
0.00014344
0.000153325
0.00115109
0.0048872
0.000174642
0.000149881
0.000154889
0.000212595
0.000160887
0.000217237
0.00017191
0.000150132
0.000150753
0.000151684
0.000163317
0.000166465
0.000249482
0.000155415
0.00016274
0.0215143
0.000191004
0.00357299
0.000153132
0.000165632
0.000158561
0.000263095
0.000151458
0.000191409
0.000320688
0.0036942
0.000144913
0.00015555
0.000160762
0.000143791
0.000147307
0.000175077
0.000190658
0.000240523
0.00021856
0.000139715
0.000227499
0.00015855
0.000159451
0.000222959
0.000150529
0.000193988
0.000246086
0.000135966
0.000194149
0.000203231
0.000171564
0.000142812
0.000140572
0.000144997
0.0143857
0.000150231
0.000148991
0.000177636
0.000144708
0.000141596
0.000214799
0.000254647
0.000181665
0.0108097
0.000182338
0.0128455
0.000147334
0.00016291
0.000275565
0.000158889
0.00025666
0.000148426
0.000145862
0.000148224
0.000155951
0.000190811
0.000142751
0.000226749
0.000151232
0.00387007
0.000153167
0.00016125
0.000142608
0.000202485
0.00016107
0.000424224
0.000184333
0.000151219
0.0120539
0.00015101
0.024615
0.000154175
0.000214076
0.000159095
0.000141867
0.00014471
0.00769639
0.000163097
0.00640038
0.0113876
0.000143709
0.000171958
0.000131261
0.000202114
0.00599591
0.000131657
0.0117921
0.000155095
0.000222873
0.00021567
0.000254154
0.000137679
0.000146637
0.000212339
0.00013989
0.000148021
0.00015185
0.000147915
0.000177879
0.000137506
0.000210254
0.000150264
0.0136507
0.0251681
0.000130999
0.00974184
0.0163166
0.0125245
0.000256675
0.000139152
0.000153506
0.000146225
0.000150827
0.000142279
0.000163405
0.000143761
0.0113651
0.000148244
0.000283032
0.000149936
0.000166848
0.000206926
0.000142901
0.000176586
0.000150997
0.000157507
0.000159356
0.000145542
0.0377806
0.000201511
0.000309267
0.000143061
0.000144884
0.00015164
0.000151887
0.00674737
0.000139337
0.000227851
0.00014298
0.0033384
0.000161581
0.000144346
0.000192745
0.000143711
0.000139459
0.00533899
0.000330998
0.000153784
0.000202516
0.000139909
0.000219561
0.000149885
0.000151853
0.0159833
0.000149085
0.000150701
0.000209492
0.015759
0.000152378
0.00048088
0.000290863
0.000153013
0.000156691
0.000148364
0.000279196
0.000144593
0.000221878
0.000147439
0.0409219
0.000161452
0.000393298
0.000145445
0.00013812
0.000289621
0.000158412
0.00018994
0.0144141
0.00015156
0.000140741
0.00234306
0.00015299
0.000153671
0.000198634
0.000151932
0.000372622
0.000174582
0.000199155
0.000225456
0.000154718
0.0346288
0.000150832
0.00019631
0.000143905
0.0314812
0.0031144
0.00014877
0.00014993
0.000153454
0.000148866
0.000147365
0.000142086
0.000146569
0.000144537
0.000163849
0.000135967
0.000151266
0.000199881
0.00859804
0.000458285
0.000206294
0.000151647
0.000290609
0.000143174
0.000275033
0.00554904
0.00850577
0.000137659
0.000139244
0.000146567
0.000148174
0.00013742
0.00014674
0.000143358
0.000174065
0.000140819
0.00976625
0.00125763
0.000141429
0.0059375
0.000144019
0.000145075
0.000177673
0.0145103
0.000190543
0.000145481
0.00452539
0.000144699
0.000144895
0.000193865
0.000154377
0.00163997
0.000151006
0.00024455
0.000141076
0.000146276
0.000163016
0.000220131
0.000151901
0.0224852
0.00015831
0.000159281
0.000157646
0.00014492
0.000140355
0.000209254
0.000170477
0.000156389
0.0295597
0.0097919
0.000223116
0.000211669
0.000145986
0.0340309
0.000145607
0.00202296
0.000192636
0.000160181
0.000151401
0.000397662
0.0240043
0.000364504
0.000159318
0.00626585
0.000147512
0.000143767
0.000171813
0.000150068
0.000147217
0.000268601
0.01696
0.000146264
0.000161607
0.0219253
0.000144202
0.000136731
0.00893395
0.00529709
0.000150517
0.000140147
0.000160207
0.000146439
0.000144387
0.000175103
0.000155942
0.000145954
0.0071444
0.000159294
0.000324325
0.00585438
0.000175168
0.0303142
0.000148609
0.000149701
0.000185464
0.0149279
0.000182844
0.000176132
0.000163529
0.000149471
0.000151091
0.000152205
0.000367806
0.00016519
0.000153622
0.000187722
0.000144179
0.00374307
0.000201245
0.000220129
0.000190594
0.000261819
0.00493517
0.000339156
0.0154947
0.000165895
0.000261844
0.000136941
0.000189897
0.000200984
0.00647697
0.000156526
0.000155961
0.000157792
0.0221903
0.000151892
0.00420905
0.00017137
0.000205104
0.00193464
0.000145596
0.000211407
0.000152535
0.000148431
0.000193968
0.00017182
0.000140009
0.000139369
0.000151523
0.00141514
0.00014079
0.000151672
0.000154646
0.000150682
0.000146656
0.000206891
0.000196132
0.000153586
0.000142709
0.000207956
0.000184347
0.000169122
0.0331399
0.000148661
0.000144364
0.0180353
0.000148996
0.000151991
0.0130557
0.0318744
0.0001695
0.000189792
0.000156022
0.0176684
0.000223255
0.000165101
0.000294069
0.000143939
0.000201814
0.00807854
0.000247613
0.00571567
0.0150983
0.000141899
0.00014898
0.000166075
0.000146825
0.000149652
0.000256198
0.000149371
0.000180806
0.000137919
0.000189183
0.00213319
0.000152008
0.000317807
0.0154301
0.000144414
0.000199614
0.000156737
0.000151349
0.000143878
0.0357238
0.000198704
0.0179474
0.000159706
0.0316425
0.000204272
0.000150372
0.000137917
0.000171733
0.000164303
0.000144632
0.000248787
0.000143907
0.000156069
0.000168271
0.000155754
0.000149618
0.000189212
0.000393327
0.000142677
0.00023645
0.000249577
0.000148146
0.000142999
0.000167734
0.00091997
0.000267809
0.000141509
0.00016571
0.000191898
0.000255516
0.0232932
0.000146835
0.000140781
0.000142074
0.000144973
0.000172475
0.000153055
0.000736781
0.000152481
0.000156081
0.00110798
0.000184622
0.000205693
0.00401448
0.0251377
0.000148593
0.000146219
0.000140336
0.000151017
0.000196085
0.0345508
0.00026993
0.000208493
0.000161248
0.000185411
0.000154456
0.000211163
0.000155362
0.00021695
0.000144045
0.000214283
0.000197451
0.000141026
0.000148314
0.0131699
0.000184178
0.000938828
0.00874356
0.000219111
0.00014352
0.000264798
0.000164315
0.000142708
0.000350907
0.00721685
0.000144181
0.000169831
0.000214955
0.000167371
0.000150378
0.00013728
0.000143166
0.000140751
0.000143663
0.000164441
0.000184223
0.0262558
0.000168242
0.000158588
0.000167675
0.000202667
0.000142427
0.000166377
0.000246606
0.000260507
0.0112432
0.000151788
0.000137082
0.0330622
0.000141776
0.000184629
0.000152296
0.000176921
0.000148836
0.000142229
0.000276042
0.000159141
0.000151974
0.000144769
0.000780797
0.000283787
0.0228061
0.000150336
0.000148689
0.0172783
0.000144282
0.000143004
0.000222305
0.00601391
0.000158894
0.000169942
0.000150143
0.000290796
0.000142787
0.000159111
0.000149615
0.000136896
0.000257661
0.000142836
0.000140536
0.000273338
0.000191001
0.000424262
0.000253867
0.00014237
0.000165761
0.000141646
0.000143162
0.00015814
0.00015258
0.000147351
0.000247159
0.000146731
0.000197912
0.000192296
0.000179878
0.000146685
0.000162447
0.000144393
0.0385584
0.000139819
0.0174421
0.00019795
0.00015544
0.000186951
0.000169835
0.00016619
0.000146853
0.000207473
0.000141243
0.000141121
0.00127173
0.000168308
0.000166531
0.000145752
0.000144945
0.000151756
0.000204082
0.000144089
0.00203005
0.000181667
0.000146987
0.000143054
0.000139966
0.000181322
0.000258186
0.0200221
0.000368897
0.00364602
0.000174574
0.000207707
0.000155181
0.000331121
0.0001379
0.000139248
0.000156088
0.000394102
0.00014023
0.0157947
0.00014832
0.000146445
0.000223963
0.000249939
0.0182999
0.000269449
0.00015812
0.000233418
0.000289718
0.00014163
0.000333316
0.000144088
0.000146284
0.000340154
0.000139047
0.0116081
0.000218994
0.00014273
0.000144717
0.000142005
0.0257913
0.000148239
0.000137263
0.000200579
0.000142422
0.000141312
0.000153604
0.00014204
0.000181462
0.000147757
0.000160558
0.000138843
0.000321477
0.000208648
0.000138986
0.000139059
0.000150299
0.000142957
0.000155117
0.000150922
0.000147221
0.000147992
0.000144916
0.000150732
0.000145945
0.000195369
0.000139988
0.000202673
0.000149558
0.000181922
0.000141345
0.000147167
0.000144292
0.000140362
0.000170013
0.00016112
0.000157715
0.000420545
0.00021241
0.0304312
0.00469768
0.00020292
0.0133842
0.000149105
0.000145673
0.000273688
0.00149452
0.000153131
0.0236218
0.000140661
0.000220079
0.00122211
0.000154732
0.000203359
0.0375214
0.0134494
0.000146706
0.000183
0.000141653
0.00018748
0.00015583
0.0109842
0.0106083
0.000147847
0.0002056
0.000264413
0.00015103
0.000308032
0.00302244
0.000152163
0.00014082
0.00197223
0.0304013
0.000141613
0.000168195
0.000149934
0.000255936
0.000221404
0.000147264
0.0001416
0.000199278
0.000142842
0.000144462
0.000149943
0.000139526
0.000281238
0.00016623
0.000163239
0.0342187
0.000143683
0.000186198
0.000147872
0.00215782
0.000188036
0.000184674
0.000141189
0.000161907
0.000143659
0.000148764
0.000154937
0.000146589
0.000321516
0.000151057
0.000139915
0.000142721
0.0017855
0.000140688
0.00760341
0.000340502
0.00423561
0.000148507
0.000141957
0.000142923
0.000589168
0.000148771
0.00232502
0.000147425
0.000412855
0.00015175
0.000157553
0.000273177
0.000147911
0.00015049
0.0291808
0.00021624
0.0142514
0.000151455
0.00382098
0.00900922
0.000148057
0.024624
0.000148934
0.000159239
0.0129993
0.000154196
0.000171692
0.0164385
0.000159234
0.000196653
0.000146467
0.000239391
0.000144336
0.0072936
0.000142862
0.0180768
0.000144529
0.000145594
0.000158181
0.00508306
0.000142169
0.000197192
0.000192415
0.0371133
0.000143494
0.000160176
0.00991278
0.00665331
0.000293431
0.000199795
0.000141432
0.000215023
0.000328704
0.000153658
0.000288692
0.000138647
0.000225365
0.0143411
0.000142578
0.0231582
0.00014307
0.00188106
0.000277048
0.000153612
0.000159029
0.00663521
0.00517242
0.00014453
0.000152029
0.000139743
0.000147797
0.00034179
0.000193217
0.000273259
0.0001491
0.000160536
0.0109002
0.000173774
0.000367298
0.000502902
0.000142149
0.000143834
0.000245032
0.000340061
0.000363299
0.00256424
0.000249886
0.000171941
0.000196763
0.0046361
0.00613725
0.00539091
0.000140823
0.000201645
0.000180454
0.000196804
0.000145598
0.000159466
0.000190384
0.000217017
0.0034256
0.000154245
0.029922
0.0320072
0.000173453
0.00014415
0.000144233
0.00344702
0.000142472
0.0324935
0.000161359
0.000172819
0.000239429
0.000198023
0.000138897
0.000172139
0.000165031
0.000145788
0.0225089
0.000164468
0.0338433
0.000144148
0.0216865
0.000278739
0.00024588
0.000140394
0.000157954
0.000159906
0.000214159
0.000214508
0.00019697
0.000325402
0.000258085
0.000132401
0.000157446
0.000154619
0.000220084
0.0188027
0.000142014
0.000138725
0.00015141
0.000270107
0.00023078
0.000144116
0.000182979
0.000240142
0.000140709
0.000194242
0.000153197
0.0302924
0.000163242
0.000231786
0.00456868
0.000162845
0.000154211
0.00028872
0.000142989
0.00017627
0.0121986
0.000167323
0.000200493
0.000167265
0.000190826
0.000351206
0.00254463
0.000146202
0.0122152
0.000241436
0.000139055
0.000224723
0.000195265
0.00021488
0.000312755
0.000269202
0.00152689
0.000212178
0.0105473
0.000158934
0.000194535
0.000139842
0.000148198
0.000146419
0.000141035
0.000274666
0.000214143
0.000140028
0.000178911
0.000240194
0.000142812
0.00623002
0.000409718
0.000142769
0.000148562
0.000140696
0.000151186
0.000180921
0.000144306
0.0261813
0.000164761
0.000196752
0.000156417
0.000195508
0.000191696
0.000165599
0.0342646
0.000145859
0.000151421
0.000139388
0.000143185
0.00826137
0.000208853
0.000159346
0.0310779
0.000149707
0.00015077
0.000161273
0.000140855
0.000146585
0.000197602
0.000157492
0.017421
0.000407048
0.00462227
0.000146758
0.00542379
0.000143481
0.000266885
0.000138752
0.000228532
0.000457869
0.000145897
0.000266598
0.0226191
0.000163615
0.000153417
0.000143198
0.000159383
0.000323724
0.000139364
0.00014846
0.000154868
0.000167855
0.000245168
0.000155293
0.000157821
0.000141979
0.000154247
0.000290201
0.000170063
0.000157947
0.000220306
0.00201388
0.0082131
0.00948229
0.000160654
0.000151909
0.0133238
0.000145944
0.000195547
0.000147216
0.00037465
0.000151093
0.000151507
0.000173437
0.000441995
0.000143806
0.000141284
0.000137704
0.000226729
0.0094558
0.000215472
0.000144546
0.000154837
0.000140867
0.0363112
0.000143931
0.000292021
0.000190149
0.000149729
0.000242412
0.00016519
0.000316269
0.000149822
0.000142597
0.000164156
0.000171369
0.000223757
0.000148006
0.000149539
0.00015017
0.0125392
0.00014716
0.000152343
0.00163719
0.000151826
0.000169884
0.000156229
0.000143454
0.000146215
0.00475378
0.000153987
0.0348197
0.00267476
0.000135359
0.00262024
0.000148792
0.000211084
0.000182848
0.000153491
0.000140868
0.000135027
0.000144218
0.0163083
0.000183355
0.039027
0.00884754
0.000141474
0.000191185
0.000171954
0.000279044
0.000144408
0.000220617
0.00244956
0.0002792
0.000144189
0.000152407
0.000149447
0.000255782
0.00631201
0.000167886
0.00014529
0.000166006
0.0307694
0.000147508
0.000152666
0.000152434
0.000218994
0.000287327
0.000137951
0.00139401
0.000165699
0.000144034
0.000339572
0.000190033
0.00414044
0.0114083
0.000164061
0.000159517
0.000153422
0.000156093
0.00015023
0.000204405
0.000178665
0.000147134
0.000155969
0.00026644
0.000421045
0.000139214
0.000212439
0.00408089
0.00236884
0.000148448
0.000146307
0.000565318
0.000261932
0.000658778
0.000144685
0.00741786
0.000194892
0.000136472
0.025344
0.000159202
0.000149398
0.000247223
0.000147895
0.000221525
0.000141768
0.000133581
0.000149016
0.000137678
0.000324927
0.000139823
0.000142735
0.000201241
0.00015745
0.000154468
0.000226573
0.000147143
0.000144599
0.000151559
0.000150528
0.00346283
0.00382524
0.000280503
0.0123216
0.000173417
0.00620022
0.000181974
0.00156448
0.000862239
0.000344474
0.000140932
0.00015937
0.000144586
0.000148174
0.000143963
0.000155239
0.000244882
0.000191238
0.000169884
0.00014261
0.000143869
0.000188417
0.000148268
0.000149623
0.000147459
0.0410335
0.000165089
0.0129915
0.00014657
0.00189859
0.000149744
0.000150947
0.000152283
0.000179387
0.000142696
0.000204319
0.0167159
0.000174226
0.0309528
0.00322173
0.000158817
0.000160536
0.00498434
0.000213551
0.000141936
0.000143824
0.000135344
0.00978191
0.000133448
0.000424839
0.000194898
0.000200502
0.0400771
0.0389014
0.000195341
0.0267534
0.000141849
0.000137394
0.00474937
0.000496547
0.000145314
0.000146487
0.008527
0.000140938
0.000236405
0.000155937
0.000143629
0.00015529
0.000145708
0.000197599
0.0135357
0.0180596
0.000156564
0.000146677
0.000199922
0.000151198
0.000200173
0.000140843
0.00022786
0.000208187
0.000149476
0.000149118
0.000136046
0.000221752
0.000185799
0.00024598
0.000286536
0.000163217
0.000277474
0.000200254
0.000216357
0.00066089
0.000143623
0.00719577
0.000150504
0.0418025
0.000275545
0.00798767
0.000350912
0.000152202
0.000186987
0.00404313
0.000147996
0.0170133
0.000146884
0.00014577
0.000159163
0.000149856
0.000166429
0.000233518
0.000195792
0.0114336
0.000158199
0.000172721
0.000150811
0.000150545
0.000147502
0.00022093
0.00020676
0.00146555
0.000179506
0.000140712
0.000139696
0.000151888
0.000261001
0.000153465
0.000153777
0.000156122
0.000203166
0.00016754
0.00017239
0.000178027
0.00439487
0.000162562
0.000169045
0.000144439
0.000159307
0.000264941
0.000207792
0.000177735
0.000140945
0.000343064
0.000168533
0.000144261
0.000183613
0.0129012
0.000160827
0.000164944
0.00014106
0.0046937
0.000149685
0.000140789
0.000141348
0.000367062
0.000295616
0.000158745
0.000312014
0.000298808
0.000168579
0.000177506
0.000190724
0.0337197
0.000164285
0.0049452
0.000149988
0.000193805
0.000168209
0.0110769
0.000169548
0.000142886
0.0142131
0.000146293
0.000150295
0.0182172
0.00112358
0.000180356
0.000268822
0.000156206
0.00015169
0.000294608
0.000144288
0.000142542
0.000146234
0.000180879
0.000144264
0.000162845
0.000168071
0.000235852
0.000250984
0.000150216
0.0187453
0.000166788
0.0189562
0.029739
0.000145977
0.00014803
0.000158265
0.000246427
0.000244557
0.00019525
0.0149837
0.00455867
0.00025471
0.000156455
0.000652746
0.0131123
0.000182475
0.000291157
0.000148046
0.000146965
0.000146335
0.000151366
0.00014333
0.000169533
0.0201611
0.000166826
0.0011847
0.0149517
0.00161714
0.00373561
0.00803801
0.000165717
0.0143307
0.000213773
0.000200326
0.000138617
0.000148498
0.000197327
0.0267068
0.000154762
0.000339762
0.00921705
0.000141473
0.000146699
0.000150558
0.000205323
0.000150035
0.000198342
0.00810135
0.000139057
0.000143753
0.000141148
0.000150252
0.00021236
0.0179457
0.000166859
0.000414993
0.000212974
0.000142863
0.00375401
0.00022323
0.000149038
0.000276542
0.000270452
0.00109727
0.000296523
0.0241534
0.000147416
0.000254627
0.0203659
0.000228646
0.00027912
0.00014343
0.000152128
0.000153598
0.000153859
0.000492229
0.000194758
0.000147811
0.000159976
0.00326225
0.024238
0.000155449
0.000163188
0.03589
0.0063978
0.000147973
0.000159378
0.000211828
0.000143356
0.000143979
0.000400792
0.000142789
0.000258841
0.00326675
0.00116431
0.00014245
0.000196699
0.000230298
0.000143801
0.000137522
0.00213672
0.000356599
0.000151217
0.000166373
0.000232493
0.000255573
0.0143861
0.000304492
0.000157149
0.00404986
0.00471205
0.000169924
0.00014197
0.000194106
0.000137203
0.00013924
0.0182862
0.000170718
0.000207446
0.000155932
0.000167695
0.000142361
0.000138419
0.000150017
0.000150775
0.000339805
0.000155448
0.000278381
0.0235551
0.000178547
0.000198587
0.000319379
0.00585772
0.000342552
0.000148373
0.000156787
0.000170691
0.000156715
0.000235002
0.00518674
0.000149954
0.00028074
0.0295726
0.000157949
0.000209441
0.000200609
0.000213278
0.000217379
0.000151926
0.000222475
0.00022725
0.000232259
0.000237927
0.0002188
0.000204022
0.000166747
0.000142004
0.000168869
0.000209056
0.000142743
0.000259688
0.0217597
0.00023971
0.00950067
0.00013699
0.000141303
0.000199706
0.000300341
0.000150516
0.000153164
0.000193525
0.0371432
0.00842316
0.000146704
0.000160757
0.00015711
0.0105327
0.00416723
0.000155649
0.00027069
0.0229733
0.000213551
0.00390418
0.000208045
0.000223207
0.0177848
0.000131006
0.0181728
0.0318317
0.000150644
0.000196097
0.000209019
0.000159706
0.000141655
0.000262597
0.0139979
0.000144021
0.000144613
0.000311602
0.000274917
0.000200805
0.000148169
0.000264566
0.000221323
0.0113172
0.0329179
0.000146416
0.000143683
0.000150304
0.000159162
0.00226334
0.0107399
0.000583153
0.000205976
0.000275609
0.00533745
0.000158942
0.000141754
0.025443
0.00014331
0.00873278
0.000142956
0.00507867
0.000151309
0.000151142
0.000155861
0.000146745
0.000218404
0.00591972
0.000166599
0.000153883
0.000151665
0.000242342
0.0202776
0.000228712
0.016696
0.000169708
0.000156309
0.000161973
0.000199177
0.0304692
0.022723
0.000208726
0.000254157
0.000223508
0.000296363
0.000187876
0.000143629
0.00013921
0.000138628
0.000261186
0.000214201
0.000257995
0.00017407
0.000233079
0.000143895
0.00390299
0.000634571
0.00918015
0.000144421
0.000152078
0.000133828
0.0208763
0.00017326
0.0050484
0.000258478
0.000222006
0.000271613
0.000135692
0.000174092
0.000225662
0.000264535
0.000276425
0.000145962
0.000227302
0.000150575
0.000149611
0.000212766
0.0101512
0.000295219
0.00014981
0.000203957
0.000246894
0.00350439
0.0201375
0.00149436
0.00214858
0.00014268
0.000191835
0.000148477
0.000229586
0.000144671
0.000214243
0.000155081
0.000184417
0.00363249
0.00636079
0.000165268
0.00020897
0.0304505
0.000219176
0.000155026
0.0156234
0.000215398
0.00015405
0.000152382
0.000723696
0.000162858
0.000220638
0.000283072
0.000206017
0.0162048
0.000159855
0.000313473
0.0155786
0.0138856
0.000245431
0.000167047
0.000216821
0.000212144
0.00104772
0.000187916
0.000150043
0.000289569
0.000198394
0.000258586
0.000158625
0.0112175
0.000271164
0.000263475
0.00015957
0.0380125
0.000154043
0.0171108
0.000226183
0.000294123
0.019257
0.000140748
0.000133708
0.0235543
0.0144791
0.000210581
0.000149633
0.000175541
0.000165669
0.000297736
0.000210065
0.0331072
0.000157316
0.0353101
0.00021876
0.0166035
0.000149832
0.000248254
0.00958248
0.000168026
0.000205913
0.000136469
0.00015569
0.000146956
0.00389396
0.000143999
0.000146782
0.014243
0.000248732
0.000138518
0.0228374
0.000150484
0.000148472
0.000143603
0.00014219
0.000148203
0.000275369
0.0178296
0.000140221
0.000502422
0.000197683
0.00018414
0.000293108
0.000207236
0.000156725
0.000168171
0.000142958
0.003895
0.000160329
0.0262134
0.000171146
0.000288683
0.000288474
0.000197335
0.000268576
0.0371643
0.000139451
0.0236143
0.000188879
0.000196209
0.000179025
0.000144722
0.000192132
0.000247188
0.000146423
0.000199827
0.000143851
0.00104801
0.000231673
0.000349679
0.000240899
0.000239081
0.0111362
0.000147093
0.000144762
0.000194681
0.000151784
0.000148012
0.000148252
0.000158668
0.000143504
0.000142642
0.000151161
0.000175018
0.000152434
0.000157851
0.000156682
0.000177358
0.000212612
0.000153159
0.00327458
0.000152796
0.000143329
0.000210813
0.00017921
0.000159615
0.000143404
0.000371394
0.00015394
0.0256581
0.000154479
0.000214569
0.000143322
0.000147448
0.000206979
0.0254925
0.000199384
0.000166474
0.000135534
0.0132962
0.00014722
0.000142462
0.000202797
0.000155175
0.000226192
0.0289362
0.000212775
0.00022077
0.000175156
0.0176569
0.000148136
0.00014712
0.000193058
0.00389169
0.000192914
0.000209924
0.00593209
0.000158696
0.000146614
0.000162293
0.000262167
0.000190549
0.000146667
0.00021472
0.000211613
0.000194651
0.000148193
0.000147004
0.000238926
0.000193636
0.000186214
0.00624828
0.000155274
0.000199107
0.000147991
0.000181231
0.000307769
0.000148034
0.000232103
0.000227826
0.00020352
0.0154196
0.000145949