/*--------------------------------*- C++ -*----------------------------------*\
| =========                 |                                                 |
| \\      /  F ield         | OpenFOAM: The Open Source CFD Toolbox           |
|  \\    /   O peration     | Version:  v2012                                 |
|   \\  /    A nd           | Website:  www.openfoam.com                      |
|    \\/     M anipulation  |                                                 |
\*---------------------------------------------------------------------------*/
FoamFile
{
    version     2.0;
    format      ascii;
    class       surfaceScalarField;
    location    "450";
    object      phi;
}
// * * * * * * * * * * * * * * * * * * * * * * * * * * * * * * * * * * * * * //

dimensions      [0 3 -1 0 0 0 0];
oriented        oriented;


internalField   nonuniform List<scalar> 
20642
(
-0.0189594
0.0228421
-0.00388272
0.291772
-0.065271
-0.226511
-0.105436
0.103082
0.00235408
-0.352808
0.135434
0.217344
0.391824
0.0144119
-0.406267
-0.0368638
0.328623
-0.229827
0.0300991
0.19972
-0.0136921
0.235468
-0.221781
-0.243101
0.225939
0.0171547
0.00252634
-0.000159461
-0.25018
0.236482
0.236814
0.12899
-0.36586
0.602374
-0.602896
0.287001
-0.0554307
-0.231573
0.298851
0.0326386
-0.331513
-0.0227098
0.00375034
0.585186
-0.590568
0.00527762
0.0593136
-0.274774
0.215454
-0.0193718
-0.0937148
0.113086
0.00059533
0.0206069
-0.0212022
-0.0823843
-0.192098
0.274474
0.636761
-0.370979
-0.265853
0.210173
-0.145187
-0.0649875
0.340472
0.296211
-0.0465163
-0.19073
0.237227
0.0664407
-0.263109
0.19666
0.0404525
-0.173468
0.133015
0.00252634
0.0958281
-0.285196
0.189361
-0.678444
0.394208
0.284232
0.00108015
0.00144619
0.0352785
-0.111465
0.076186
0.038109
0.259749
-0.29789
-0.00232343
0.0283258
-0.0260024
-0.662639
0.484053
0.178502
0.373171
-0.137708
0.269946
-0.363338
0.0933687
0.621481
-0.101383
-0.520411
-0.0301531
-0.199681
0.23443
-0.00472758
-0.229708
-0.770666
0.603173
0.167423
0.419706
0.130161
-0.549916
-0.144257
0.252997
-0.108754
0.134884
-0.107644
-0.0272406
0.0272714
0.107612
0.159002
-0.0697746
-0.0892274
0.227799
-0.310194
0.00227464
-0.013904
0.0116294
0.332749
-0.24663
-0.0861212
-0.408021
-0.254685
0.35026
-0.113508
-0.16446
0.0440204
0.120439
0.0162124
-0.00022579
-0.0159866
-0.316587
-0.0859191
0.402438
0.00780855
0.366851
-0.374723
-0.0829692
-0.0814916
0.00108015
0.167158
0.0430127
-0.146533
0.566187
0.0460762
0.112925
-0.0181403
0.0197667
-0.00162644
0.549188
-0.499027
-0.0501992
0.472029
-0.614934
0.142896
-0.262605
0.216067
-0.0506481
0.0510345
-0.000386402
0.126519
0.435936
-0.562456
-0.284154
0.0848422
0.199305
0.161812
0.211354
-0.190872
-0.00150153
0.0190841
-0.0175826
-0.085699
0.0616684
0.0240305
0.0175702
-0.0198936
-0.250423
-0.150675
0.401027
0.397016
-0.54361
0.0768435
-0.268948
-0.0482072
-0.185607
0.233795
0.431064
-0.118909
-0.312188
-0.156188
0.553142
-0.259383
0.211152
0.23258
-0.194493
-0.380966
0.439082
-0.0581711
-0.606502
0.578506
0.0278526
-0.421117
0.170612
0.00587574
0.0598055
-0.0656813
-0.228981
-0.305384
0.534057
0.00519605
-0.22721
0.22201
-0.0884756
0.123753
-0.643537
0.607959
0.0351953
-0.0269686
0.261392
0.483256
0.10184
-0.581287
0.406948
0.174247
0.110476
0.245478
0.0872683
-0.615626
0.202691
0.412845
-0.411926
0.28987
0.122007
-0.188332
0.00584578
-0.180009
0.174161
0.590185
-0.590676
0.000301122
-0.140475
-0.503363
-0.146768
-0.0992593
0.246025
0.527255
-0.532329
0.00503757
0.543153
-0.0159241
-0.00334419
-0.377669
0.520144
-0.594488
0.0741703
0.0058122
0.425208
-0.0678636
0.0721025
-0.00423898
0.028075
-0.0358131
0.00773812
0.412476
0.136669
0.546056
-0.415944
0.141595
-0.101144
0.537381
0.0704366
-0.00147768
0.0298035
-0.108246
-0.176957
-0.0477807
-0.00286747
0.38931
-0.184558
-0.204767
0.110313
-0.129686
0.419914
0.161402
-0.581393
0.103808
-0.0978795
-0.00592896
-0.471059
0.273704
0.197275
-0.0953136
-0.511326
0.162201
-0.578441
0.416174
0.269285
-0.184449
-0.145881
0.143337
0.00254369
-0.0205605
-0.000783756
0.0213443
0.0386284
-0.0327527
0.0712331
-0.26967
0.198417
0.260221
-0.183385
-0.429842
0.555589
-0.125852
-0.100358
-0.0455241
-0.0497552
0.156255
-0.106502
0.194501
-0.0659161
-0.128585
-0.00456952
-0.0351937
0.0397632
0.167428
0.221864
-0.058895
0.122123
-0.0632285
0.0355782
0.106016
0.0136788
-0.0180662
0.00438734
0.0220312
-0.0217397
-0.000291556
0.0510994
-0.24871
0.197602
0.621153
0.260495
0.00595752
-0.266455
-0.561803
0.405554
-0.0628605
-0.00500309
-0.544403
0.261959
0.282336
-0.145855
-0.240346
0.386125
-0.404474
0.597749
-0.193316
-0.0390662
-0.0466328
-0.0724784
0.0165154
-0.0131761
-0.00333931
-0.459214
0.142555
-0.200521
-0.0284466
0.228961
0.569308
-0.696743
0.127401
0.254708
-0.400645
-0.132079
0.137923
-0.128409
-0.343279
0.471631
0.543722
-0.0237418
0.0318783
-0.0377315
0.00585316
-0.614045
0.606562
0.0074097
0.569241
-0.149393
-0.170952
-0.335249
0.505991
0.0609803
-0.0406139
-0.0203664
0.0605038
-0.30737
0.246844
0.292507
0.0362523
-0.0276801
-0.00857228
0.040088
-0.20505
0.164961
0.0162124
-0.00852744
-0.00778781
0.0163152
-0.375799
-0.225338
0.601136
0.244266
-0.193175
0.0720219
0.303405
-0.375499
0.0483509
-0.0388351
-0.00951579
-0.0634587
-0.0250396
-0.00700052
0.03204
0.199882
-0.102268
-0.0976153
0.600255
-0.106445
-0.493858
-0.149918
-0.202918
-0.164101
0.0145958
0.149505
-0.192278
0.142519
-0.232217
0.292702
-0.172914
-0.07743
0.25033
0.412412
0.256351
0.0938574
0.142324
-0.0635828
-0.0787414
0.110208
-0.00640014
0.165506
0.0289938
-0.0987185
0.355013
0.0366429
0.105681
-0.385467
-0.292982
0.235425
-0.230232
0.149595
0.050285
0.135986
-0.108715
0.00138288
-0.11859
0.117207
-0.0216297
0.00149957
0.0201301
-0.267066
-0.348629
0.022532
-0.00184168
-0.0206903
-0.274039
0.104831
0.169199
0.0386378
-0.0432074
0.506502
-0.0225323
0.365917
-0.494388
0.283233
-0.240033
-0.0432103
0.0163954
-0.019093
0.00269757
0.0232106
-0.00117937
-0.0807773
-0.236642
0.317392
0.163385
-0.0438057
-0.11958
-0.266933
0.303308
-0.036386
-0.227495
-0.399663
-0.120081
0.311997
0.12703
-0.432493
-0.114235
0.546592
-0.0773869
0.355176
-0.277812
0.257612
-0.335019
0.00261137
0.0587382
-0.117634
-0.182276
-0.0469104
0.0405472
0.0063632
0.637317
-0.251994
-0.385664
0.725447
-0.414137
-0.311373
0.343764
0.381623
-0.0155706
-0.0295821
-0.105813
0.135395
-0.125727
0.0286941
0.0970323
0.376185
0.177848
-0.554376
0.557735
-0.0857139
-0.0903602
0.125938
0.0223062
0.127347
0.322161
-0.449575
-0.373578
0.500852
-0.313927
-0.456792
0.729607
-0.385901
0.31164
0.417906
-0.00946459
0.0270348
-0.0205538
0.0208016
-0.000247786
0.0795856
0.303297
-0.382938
0.478262
0.087331
-0.565598
-0.126795
0.155481
-0.0286872
-0.0234821
0.000899162
0.0225829
0.012628
-0.513544
0.500839
0.530831
-0.155008
0.136397
0.0269875
0.0666295
-0.061651
-0.0049785
-0.0931652
-0.037218
-0.00969243
-0.163348
0.143858
0.0194891
-0.340313
-0.204186
-0.0272111
0.0194233
-0.170094
0.0432977
-0.251981
0.143728
0.0189301
0.110618
-0.129548
0.235329
-0.316134
-0.0179425
-0.472435
0.225924
0.246447
0.0621431
0.0966515
-0.158797
-0.0522416
-0.137253
0.189493
-0.0235538
-0.335943
0.359436
0.603115
-0.19139
-0.351636
-0.0985096
0.450107
0.378395
-0.557069
0.178606
-0.00215676
0.0235455
-0.0213887
0.15391
-0.262043
0.108132
0.165514
-0.570386
0.404797
-0.66757
0.293917
-0.46525
0.121917
-0.28228
-0.385363
-0.198801
0.0617714
0.540083
-0.0150318
-0.170543
0.185572
0.585814
-0.420365
0.00175806
0.0209672
0.0307256
-0.00265059
0.0721821
-0.402367
0.330079
0.327106
0.104773
-0.431918
-0.134205
0.110123
0.0240811
-0.73932
0.304782
0.434489
0.2672
-0.0943563
-0.172845
0.0231222
-0.025279
-0.34358
-0.395787
0.0185604
-0.020062
0.571584
-0.193261
0.00740604
0.0535742
0.60291
-0.00270531
-0.30487
0.381873
-0.0770276
0.276773
-0.300372
-0.337167
0.520094
-0.183057
0.107342
0.00305041
-0.110392
0.548509
-0.589248
0.0404735
0.190565
-0.150478
-0.279477
0.0896806
0.18979
-0.560501
0.155991
-0.178029
0.187932
-0.00990415
0.021604
-0.438889
0.45145
0.169525
-0.0280054
-0.141521
-0.362511
0.468199
-0.10573
-0.356876
0.153695
0.203164
0.490002
-0.0982129
-0.0698022
-0.189598
-0.595013
0.207317
0.387615
0.0484111
0.49983
0.17909
-0.0144649
-0.164626
-0.534477
0.193624
0.340828
-0.13394
0.196079
-0.248129
0.178307
-0.3679
-0.167668
0.535274
0.0389657
-0.00708733
0.020034
-0.00363856
-0.43014
0.556485
-0.12645
-0.676985
0.198933
0.478034
-0.189463
-0.329429
0.389353
-0.0599381
0.10475
0.00477123
-0.109522
0.0158673
-0.0355247
0.0196574
-0.0357931
0.0107534
0.483992
-0.574261
0.0902673
-0.222898
0.15698
-0.105878
0.432944
-0.00334939
0.0631549
0.0669379
-0.396381
-0.0769647
-0.0284718
-0.207772
-0.395543
-0.0461087
0.344936
-0.0370719
0.515981
-0.155759
-0.36028
-0.250728
0.185448
0.0257401
0.110245
-0.489502
0.570656
-0.0812614
0.0158886
0.0324623
-0.359702
-0.254701
0.614063
0.134723
0.0211067
-0.645839
0.450802
0.195001
0.0183614
-0.0177661
-0.399574
0.559724
-0.160316
-0.00688569
0.160292
-0.15341
-0.0232559
-0.243687
0.631814
-0.147823
0.187997
-0.677611
0.124914
-0.121533
-0.00338207
-0.0632621
-0.000789821
0.0640519
-0.488118
0.19114
0.296929
0.178399
0.337524
-0.0298668
0.0283892
-0.0579714
0.0668555
-0.00888411
0.0783721
-0.038497
-0.0398752
-0.0035843
0.290582
-0.702295
0.358656
0.0940023
0.301348
-0.395407
0.0667681
-0.0624692
-0.00429888
-0.115572
-0.107326
-0.328137
-0.374221
0.127447
-0.184342
-0.194957
0.379246
-0.0136211
0.217701
-0.204085
-0.140829
0.0133229
-0.135305
0.121982
0.00596285
0.167064
-0.173028
0.0585579
0.208639
-0.140053
0.156058
-0.0160064
0.0240908
0.000590397
-0.0246812
0.0996007
-0.529544
-0.280258
-0.207909
0.296521
-0.282129
0.129972
-0.0908707
-0.0391015
0.615067
-0.0557167
-0.559437
0.00121244
-0.145693
0.00563833
-0.383495
0.0526965
0.291644
-0.283889
0.198374
-0.0325033
-0.165872
-0.484922
-0.192079
-0.313383
0.240088
0.0732912
0.545618
-0.409122
-0.136539
-0.089084
-0.0881288
0.267935
-0.291201
0.362983
-0.290892
-0.0733951
0.0702985
0.0030965
-0.434018
0.626567
-0.19258
0.0279367
0.00831556
-0.104431
0.128326
0.417249
-0.0679072
-0.486474
0.210253
0.276175
0.240788
0.266275
-0.507071
0.131441
-0.554218
0.422682
0.0241556
-0.00354868
-0.198213
0.438992
0.00212787
0.226372
-0.228521
0.0183652
-0.108726
0.240103
-0.239993
-0.000112439
0.0969937
-0.34218
0.245153
-0.055484
0.0119807
0.0435032
0.002954
0.0783419
0.240635
0.049557
-0.290216
-0.000382127
0.107723
-0.308924
-0.0823357
0.391198
0.203857
0.0362426
0.00784489
0.0952373
-0.500456
-0.202716
0.029721
0.172988
-0.0879237
-0.160221
-0.112809
-0.452144
0.564807
0.127198
0.334347
-0.461742
0.218584
-0.591732
0.373044
-0.049914
-0.155138
0.455652
-0.130022
-0.325668
-0.574393
0.439901
0.1344
0.369195
-0.480261
0.110979
-0.147161
-0.0223818
0.169541
-0.323228
0.139665
0.183557
-0.754571
0.322976
0.431553
-0.671542
0.295737
0.103002
0.00174815
-0.0030979
0.201471
-0.494528
0.157249
-0.273242
0.275341
0.0560427
-0.0491408
-0.00690207
-0.148398
0.160547
-0.0121501
-0.398361
0.524878
0.0331601
-0.126875
0.059838
-0.0631875
0.265971
-0.514141
0.248121
0.331431
-0.700906
0.369428
-0.0703163
-0.211519
0.281824
-0.344232
0.471221
-0.423182
-0.256406
-0.359616
-0.341329
0.513394
-0.247473
-0.0239801
0.0183389
0.0056412
0.0825505
-0.391532
-0.0321533
0.211213
-0.179064
-0.00293642
0.0239036
-0.0117555
0.181279
-0.551088
0.118464
0.397275
-0.142651
-0.00716939
-0.0483147
0.21598
0.0672409
-0.0220049
0.00144443
-0.704375
0.264269
0.440067
0.533637
-0.213361
-0.320435
-0.594266
0.160217
0.660506
-0.348925
0.326388
-0.0564662
-0.484813
0.18932
0.295447
-0.00302108
0.0590636
-0.440354
0.570448
-0.130127
0.00376898
0.194845
0.338624
0.0131776
-0.141715
0.128535
-0.416738
0.599177
-0.18247
-0.0907394
0.402689
-0.138002
-0.0253474
0.0581915
0.0201805
0.174241
-0.358634
-0.126751
0.107243
0.0195076
0.353023
0.206288
-0.55944
-0.633682
0.199849
0.433574
0.479478
-0.110362
-0.300884
-0.185636
0.431902
-0.555509
0.123467
0.442902
-0.623939
0.180678
0.00377192
-0.0251409
0.573407
-0.141644
-0.152827
-0.025203
-0.00747087
-0.0917041
0.0991747
0.366229
0.20964
-0.576299
0.162859
0.0193181
-0.182179
0.118782
0.0107981
0.0297925
0.00579425
-0.0355868
-0.213334
0.19538
0.017948
0.0141311
-0.186651
-0.260188
0.44683
-0.465266
0.278608
-0.2746
-0.138326
0.165027
-0.581796
0.332292
-0.00124517
0.0699252
-0.0686802
-0.415835
-0.165537
0.306691
-0.392678
-0.220828
0.205431
-0.1794
-0.0260379
-0.0830006
0.256461
-0.173468
-0.068041
-0.0357183
0.103759
0.129813
-0.010693
-0.119121
0.0771529
0.379897
-0.45709
0.434126
-0.329388
-0.0626891
-0.21209
-0.00821697
-0.175274
0.183488
0.11425
0.341363
-0.205101
0.149669
0.0896877
-0.166241
0.0765503
-0.0920096
-0.187474
0.00934089
-0.0370956
0.0277546
-0.483981
0.146069
-0.154289
0.138823
-0.124227
0.142211
0.329165
-0.471575
-0.0356179
0.0343509
0.00126705
-0.275362
-0.358537
0.394834
0.265619
0.022962
-0.170125
-0.304305
-0.400106
0.508366
0.12861
0.176683
0.00240594
0.00593693
0.0303741
-0.083602
-0.00957471
0.0931766
0.311053
-0.482217
0.280189
-0.0763548
-0.203854
0.107508
0.386461
-0.494007
0.0832057
-0.0768874
-0.0063185
-0.0836168
0.0847835
-0.00116696
0.263236
-0.405855
0.142573
-0.092432
0.149902
0.329536
-0.479641
-0.00859198
0.164563
-0.155973
0.50888
-0.359647
-0.14924
-0.547381
0.414285
0.133002
0.0784937
0.536479
0.468374
-0.10252
0.378273
-0.491221
0.471742
-0.444709
-0.0270728
-0.201737
0.176084
0.0256471
0.594852
0.00814108
0.121671
-0.345164
0.487166
0.397689
0.0227405
-0.420515
0.168128
-0.25607
0.000200426
0.0272598
-0.0274603
-0.504313
-0.0203984
0.524609
0.265352
-0.199094
-0.0662699
-0.165079
-0.392058
0.161904
-0.14873
0.0413961
-0.185274
0.143877
-0.180606
-0.0789114
0.259513
-0.15451
-0.196684
-0.162731
-0.17421
0.336915
0.206589
-0.00417674
0.0428146
-0.0172136
-0.00676656
0.0232196
-0.0261561
-0.440293
0.56669
-0.126503
-0.368215
0.481108
-0.112976
-0.371481
0.448605
0.415872
-0.129116
-0.286859
0.0531491
-0.00760618
-0.045543
0.645635
-0.340901
-0.32597
0.312853
0.0131136
-0.0618041
-0.212245
-0.00179921
-0.0453516
0.0471508
-0.193618
0.0800716
-0.0040561
0.00538951
-0.0013334
0.430981
0.142285
0.148061
-0.0788604
-0.0692015
0.523932
0.0660636
0.13711
-0.578314
0.441151
-0.0296823
0.027883
-0.738108
0.433761
-0.0478178
-0.0353171
0.0831347
0.618308
-0.563474
-0.0548496
0.498905
-0.133074
0.111182
0.040717
-0.108758
0.000644238
0.471059
0.427085
-0.512074
0.0849222
-0.00208979
0.105897
-0.103808
0.148603
0.0142546
0.403188
-0.320523
0.0193335
-0.0583998
-0.047036
0.0350329
0.0120031
-0.0109974
0.0407898
-0.52119
0.0167818
0.0256884
-0.0168444
-0.00884393
0.587748
-0.481154
-0.106612
-0.00555412
-0.0125121
-0.408707
0.336223
0.53783
-0.400769
0.630306
-0.180022
-0.450301
0.314159
0.228968
-0.085936
0.175621
-0.243193
0.16575
-0.415172
-0.210994
-0.379835
-0.764746
0.29146
0.47286
0.0711002
-0.0517668
-0.421961
0.43501
-0.0131908
-0.0109808
0.120479
-0.109499
-0.0994906
0.406112
0.521987
-0.0949717
-0.491048
-0.123065
0.0423626
-0.112138
-0.0405048
-0.0219343
0.062439
-0.0150445
0.0109884
0.144178
-0.125248
-0.16565
-0.036092
0.0108597
0.0643894
-0.0752492
-0.00278161
-0.0207005
0.542682
-0.411334
-0.0557712
-0.0176402
0.0734112
-0.450136
-0.315017
-0.0980095
-0.00816467
0.106174
0.119996
0.295778
-0.00956258
-0.0638326
-0.125026
0.50316
-0.189578
-0.255169
-0.366306
0.125891
0.068204
-0.176548
0.184682
-0.00813715
-0.0535547
0.0468075
0.00674717
-0.625633
0.0887519
0.536777
0.163069
-0.178104
0.104365
0.341629
-0.446071
0.48316
-0.169027
-0.00111252
0.0252033
-0.223003
0.194657
0.0283436
-0.0564538
-0.361731
0.418125
-0.116622
0.129944
0.162667
0.561375
-0.429703
-0.131726
-0.0144694
0.58375
0.026362
-0.0274745
-0.0714833
-0.350649
0.116525
0.376506
0.269088
-0.412216
0.355705
0.0872738
0.042698
-0.38823
-0.308545
0.135371
-0.016325
-0.119046
-0.58124
0.55107
0.030021
-0.598966
0.456539
0.142244
0.0142126
-0.0994571
0.405728
0.015115
-0.00056984
-0.0145451
0.0271856
-0.0750035
-0.226857
0.308151
-0.0813007
0.120223
0.0185992
0.550603
-0.119766
0.292622
-0.260002
-0.0225353
0.0227358
0.0439901
0.0306385
-0.0746287
-0.28156
0.211232
-0.162509
-0.200849
-0.39958
0.209965
-0.210504
-0.370858
0.57023
-0.321826
-0.248495
0.497833
-0.407566
0.0265287
-0.15939
0.132861
0.194076
0.0270171
-0.221104
-0.0178802
0.0272211
0.0157629
-0.192314
-0.321375
0.220405
0.100965
-0.0828441
-0.000773028
-0.278041
-0.25646
0.00621555
0.162987
-0.169206
-0.0089947
-0.109596
0.0194596
-0.392399
0.549103
-0.330456
-0.218676
-0.0682858
0.566119
-0.221122
-0.37802
-0.439669
0.344255
0.501746
0.104743
0.468278
-0.360805
0.409979
-0.597505
0.187203
0.0118706
0.0138177
0.172559
-0.0330743
-0.139487
-0.635213
0.458184
0.176826
0.13064
-0.1049
-0.229506
-0.396208
0.0335977
-0.0177304
0.167839
0.403675
0.139437
0.416053
-0.027464
0.033401
-0.178759
0.0585773
0.12018
0.349173
-0.551693
-0.218857
-0.116079
0.334888
-0.613453
0.179334
0.434096
-0.556436
0.421551
0.13479
0.185958
0.0875736
-0.273557
0.18131
-0.0136871
-0.167626
-0.379295
0.504295
-0.125116
-0.00135169
0.0189788
-0.0176271
-0.0821995
0.221941
-0.139748
-0.40047
0.506593
-0.106129
0.55619
-0.207022
0.233757
0.315319
-0.0285645
-0.0184715
0.0802968
0.199872
-0.655012
0.269097
0.385759
-0.307916
-0.00304064
0.0261629
-0.0652369
0.235436
-0.130614
-0.0167224
-0.00528254
-0.331746
0.00280065
0.328941
-0.563927
0.164183
0.127296
-0.557539
0.247671
0.078693
0.00359336
-0.593965
0.203314
0.390642
0.0141358
-0.100428
0.286359
0.198198
0.0671437
0.0123572
-0.438024
0.332102
-0.121442
-0.0138635
0.154017
0.0185393
0.395244
-0.105422
0.276915
-0.0443537
-0.367177
-0.287989
0.20512
-0.0238156
0.33558
0.0630437
-0.337596
0.119388
0.218192
0.108197
0.364124
-0.472361
0.0170625
0.00206978
-0.0191322
0.488039
0.0795363
-0.567579
-0.329215
-0.00253448
-0.379914
0.217383
0.0584668
0.238694
-0.297174
0.0475422
0.171511
-0.219061
-0.0297411
0.0737311
0.495663
0.0827063
-8.93845e-06
-0.115881
0.115889
-0.0616062
0.0211013
0.251029
0.340775
-0.591805
-0.130626
-0.297953
0.428473
-0.183916
0.518298
-0.108633
0.106987
0.266173
-0.373286
-0.408597
0.195767
0.212751
0.380921
-0.0869452
-0.293994
0.158789
-0.0763871
0.118749
0.013928
-0.404232
0.559973
-0.155875
-0.00231326
0.0723175
-0.0700043
0.071394
0.154538
0.207733
-0.00230744
-0.125617
0.389104
-0.295157
0.0791072
0.0689535
-0.021958
-0.158051
0.400198
0.130167
-0.530452
-0.13502
-0.0437402
-0.1442
0.179067
-0.0348691
0.152927
0.00108808
0.556438
-0.393696
-0.162831
0.417104
-0.531478
0.344216
0.225938
-8.83067e-06
-0.0916633
0.351376
-0.59907
0.384172
0.21483
0.157514
-0.0227936
-0.529593
0.150184
-0.566735
0.424824
0.141793
0.0246349
-0.107605
0.168606
-0.290602
0.380834
-0.0902486
0.025795
-0.174194
0.214579
-0.228205
0.0633175
-0.290146
-0.118508
-0.309554
0.190616
0.00209715
-0.0799892
0.077892
0.41042
0.127361
-0.576906
0.17191
0.404961
-0.375497
-0.302207
0.526215
-0.532312
0.00598041
0.248525
-0.344367
0.0957894
-0.30681
0.201262
0.105533
0.058907
-0.239517
0.390127
0.166224
0.637531
-0.205756
-0.431785
-0.364415
-0.122409
0.486758
-0.3755
-0.033211
-0.153562
-0.165196
-0.0481421
-0.381603
0.133502
-0.0228851
-0.351003
-0.0478805
0.0536204
-0.00574
0.0727667
-0.363385
-0.477445
0.101862
-0.007362
-0.0281627
0.28124
-0.0902495
-0.191011
0.0217038
0.0893129
0.174405
-0.348264
-0.000203146
0.348454
0.112012
0.327095
-0.439151
0.550176
-0.420082
-0.130195
-0.418454
0.287718
0.0211781
-0.0361698
0.0149917
-0.183571
0.200535
-0.01697
0.0884202
-0.315284
0.151683
0.0088636
-0.296452
0.403301
0.0136768
0.139248
0.667085
-0.188826
-0.403213
0.491996
-0.0888223
-0.522957
0.194351
0.328598
0.48242
-0.395092
-0.00887224
0.262892
-0.091842
-0.171062
-0.0276667
-0.320609
0.114125
-0.00381169
-0.0396658
-0.362596
0.402247
0.295268
-0.517017
0.221661
0.324803
-0.518605
0.193686
0.173347
-0.167386
0.146236
-0.305552
0.410886
-0.105399
0.0702541
0.233114
-0.303394
-0.368086
0.499908
-0.131907
0.0118199
0.493179
-0.19798
-0.0459593
-0.197586
0.243543
0.28553
0.109667
0.0204455
-0.00129389
-0.0191516
-0.0221725
-0.387979
0.271198
0.11677
0.00511702
-0.0922307
-0.0345206
-0.00226422
0.0288209
0.360517
-0.418251
0.567166
-0.149089
0.542948
-0.450201
-0.0927978
-0.0941279
0.377796
-0.283758
-0.0674919
-0.249254
0.316719
0.46076
0.021544
-0.507138
0.365381
0.14164
-0.206861
-0.116371
0.0968224
0.00310951
-0.0685013
0.0653917
0.232723
-0.324422
-0.0238712
-0.155779
0.179647
-0.172406
-0.0189392
0.191344
-0.554011
0.417513
0.136402
-0.193814
0.189082
0.263769
0.0174512
0.547855
-0.171049
-0.376859
-0.000343189
-0.183335
0.18367
0.173943
0.452593
-0.00453258
0.0425339
0.148518
-0.12199
-0.622872
0.196879
0.425984
0.147479
0.408904
0.23012
0.238512
-0.532484
0.376661
-0.471182
0.106701
-0.0091589
-0.403843
0.561994
-0.158322
-0.0580439
0.369291
-0.494458
-0.173749
0.499873
-0.326129
-0.407868
0.126418
0.281424
0.099202
0.338145
-0.437462
-0.0788699
-0.37675
-0.122305
0.154416
-0.558439
0.364747
-0.0570165
0.303861
0.0165151
-0.320403
-0.00463457
-0.559631
0.417226
0.142277
0.187979
0.21257
-0.662896
0.4503
-0.361186
-0.110059
-0.0189858
0.0195762
0.485137
-0.160448
-0.154524
0.289934
0.00626487
0.124374
-0.0228686
0.657181
-0.444635
-0.372221
0.347765
0.0244443
0.0761055
-0.0740084
0.566103
-0.418307
-0.147844
0.0780859
0.31232
-0.390454
0.11294
0.0629475
-0.157718
-0.312786
0.470318
-0.0960308
0.0939408
0.294637
-0.348949
0.0542602
-0.0283463
-0.00727157
0.290488
0.0913628
0.0727372
0.00093675
-0.0736742
-0.355893
-0.461241
-0.114931
0.57614
-0.584198
0.385976
-0.0980561
0.540583
0.643828
-0.155794
0.0428189
-0.0469957
-0.0840184
0.328607
-0.244619
-0.613163
0.234502
0.378491
0.303321
-0.323258
0.0199272
0.156935
0.115948
0.426947
-0.117995
0.306127
-0.0655164
0.0053684
-0.21126
0.179102
-0.120175
0.00363122
0.116543
0.105758
0.2303
-0.0321147
-0.00386618
0.0284895
-0.0246233
-0.380038
0.112577
0.26742
-0.126698
-0.255374
0.415701
-0.16048
-0.0237248
0.00332678
0.020398
-0.433942
0.209397
0.110006
-0.319444
-0.213818
-0.449105
-0.1959
-0.354963
0.550805
-0.62828
0.414434
0.60414
-0.177043
-0.427151
0.565767
-0.444956
-0.120875
0.121143
0.302536
-0.423798
-0.178532
-0.0270045
0.205531
0.54123
-0.141119
0.249481
-0.333532
-0.00412059
-0.120489
0.124609
-0.0168063
0.0365524
-0.0197462
-0.0466003
-0.00128025
0.132774
-0.12651
-0.229136
-0.362376
-0.221832
0.478448
-0.343799
-0.134806
-0.00339761
-0.0765918
0.342516
0.166358
0.015115
0.143518
-0.417934
0.274367
0.143567
-0.00650983
0.514782
-0.508642
-0.308144
0.414941
-0.106866
-0.282991
0.426463
-0.422647
-0.17165
-0.377765
-0.129977
0.507575
-0.156009
0.162221
-0.240799
-0.372534
0.0149211
-0.0197857
0.00486452
0.370247
-0.378854
0.5275
-0.148789
-0.0203716
0.0415497
-0.424033
0.168512
-0.285022
-0.30679
-0.100463
0.512901
-0.000838428
0.0272004
-0.0533338
0.1994
-0.203386
0.580149
-0.376819
-0.181185
-0.470297
-0.149271
0.619471
0.53941
-0.00733753
0.0693434
-0.0620059
0.111122
-0.00992527
-0.178242
0.188166
0.181465
-0.336014
-0.363893
0.336216
-0.198209
0.590333
-0.451945
-0.138443
-0.0680269
-0.172014
0.382286
-0.421969
0.0691188
-0.231865
0.0240296
-0.0268113
0.29279
-0.435043
0.142217
-0.435204
0.333602
0.371566
-0.293518
-0.513367
0.361095
0.152125
-0.13854
-0.00367689
-0.10124
0.104917
0.0198106
0.141244
0.227002
-0.0329371
-0.0279761
0.0249355
0.0214288
-0.00650764
-0.0749719
0.457239
-0.103453
0.0997763
-0.424235
-0.146215
0.00267832
0.024735
-0.0274133
-0.458331
-0.120163
0.0359274
0.010739
-0.0466665
-0.145846
0.00386902
-0.206591
-0.290187
0.306765
-0.0166006
-0.0647831
0.0527983
0.0119845
0.00350729
-0.0716846
0.0681773
-0.6526
0.22421
0.428369
0.158037
-0.381212
-0.454366
-0.313471
-0.193771
0.163439
0.382336
-0.0968529
-0.0715322
0.366118
-0.133979
-0.0258884
0.159867
-0.0167112
-0.00105156
0.0177628
0.131947
0.191431
-0.0232998
0.00259927
0.522307
0.095986
-0.17746
0.463967
-0.286553
-0.280041
0.0343236
-0.0373105
0.00298694
0.224137
-0.291657
0.0198699
0.567859
-0.133995
0.164088
-0.266438
-0.133563
0.399917
-0.408037
0.274907
0.105996
0.0583423
0.180612
-0.238972
0.308548
-0.402778
-0.0266666
-0.441592
-0.211028
0.411574
0.159097
-0.570694
-0.180448
-0.128619
0.421373
-0.0238693
0.00122696
0.0226423
-0.33048
0.111579
-0.0984398
0.331127
-0.398312
0.557213
-0.158913
0.0210758
-0.336558
0.602823
0.145367
-0.295028
0.0834981
-0.200605
-0.112085
0.312653
0.219287
-0.0378404
0.452204
0.204954
0.0464509
0.461601
-0.353438
-0.487472
0.129936
0.357478
0.00604338
-0.125254
0.119209
-0.439208
-0.0130421
0.58592
-0.334891
-0.111218
-0.0205212
0.131738
0.0884113
-0.0958824
-0.00920163
-0.10668
-0.104737
0.011833
0.092904
-0.217542
-0.376431
0.0618711
-0.0648924
0.0342684
0.00301068
-0.0372791
0.530712
0.0901234
-0.0760435
0.24691
-0.42441
-0.00498939
0.16955
0.146728
0.00875188
0.482554
-0.288208
-0.0587129
0.228683
-0.16998
-0.402277
-0.176088
0.241644
-0.182331
-0.0593219
-0.181714
-0.253463
-0.088748
-0.0322175
0.0441981
-0.163188
-0.0161291
0.179314
0.0296865
-0.173887
-0.0465812
0.0366887
0.00989237
0.0864614
-0.000653808
0.101242
-0.100588
-0.223707
-0.409459
0.101248
0.360532
0.100227
-0.460796
0.570395
-0.158846
-0.593022
0.451724
0.141267
-0.405365
0.544598
-0.139363
-0.221085
-0.0655332
0.0690405
-0.59622
0.436334
0.159721
0.0763343
0.252242
-0.153893
-0.258073
-0.124212
-0.226313
0.350464
0.182615
-0.0155523
-0.136291
0.044941
0.0913494
-0.309126
0.107915
-0.548313
-0.220112
0.174149
0.0802295
-0.478554
-0.293797
0.25692
0.0269645
-0.0308306
-0.0977514
-0.227415
0.325122
0.143576
0.320219
-0.463964
0.11827
-0.0250932
-0.431297
0.326343
-0.250036
0.0361893
-0.00192082
-0.0211909
0.380475
-0.0889306
-0.291565
0.186583
-0.175908
-0.0106763
0.309757
-0.0852124
-0.22456
-0.0204792
0.00375677
-0.0167582
0.211414
-0.239524
0.156517
-0.00171845
0.0633868
0.541486
-0.0717461
-0.0983485
-0.0278037
-0.0900347
-0.47669
0.339135
-0.301404
0.242132
0.0592688
0.519364
-0.00601936
-0.0826585
-0.0126461
0.523313
-0.511072
0.235453
-0.359732
-0.348304
0.0607304
0.274516
-0.154199
0.164584
-0.0103877
0.587576
-0.177816
-0.409868
0.117784
-0.0425205
0.256954
0.0491454
0.0743438
0.00886172
0.133037
-0.445903
0.12112
0.324628
-0.00139257
0.238178
0.121237
-0.359437
-0.0755564
0.31818
-0.242653
-0.500972
0.329199
0.171634
0.00317817
0.0234771
-0.0266553
-0.00443105
0.148608
-0.0261758
0.200709
-0.267528
0.06681
0.00560849
-0.0164836
0.161459
0.0176069
-0.161271
-0.272509
-0.115482
0.179225
-0.0161588
0.406007
-0.586048
0.402367
-0.303265
-0.128755
-0.00596624
0.134721
-0.234901
-0.187437
-0.185411
-0.0777062
-0.193772
0.252096
-0.312872
0.112232
-0.125778
0.13182
-0.00305781
0.0757947
-0.473525
0.138102
-0.140593
0.155442
-0.01485
-0.114511
-0.249391
0.304481
0.106339
-0.358367
0.490033
-0.131821
0.184829
0.412884
0.0725565
-0.0672302
-0.00532633
0.0911766
-0.0803171
0.580002
-0.437302
-0.142802
0.158794
-0.647252
0.198607
0.448631
0.0345274
-0.397138
0.0210341
0.361382
-0.432976
-0.163327
-0.338527
0.501628
0.0248175
0.494502
-0.283373
0.0341305
-0.500828
0.466338
0.321117
-0.0734707
0.0674851
0.00507141
0.107124
0.173805
-0.227298
0.0534846
0.413197
0.157173
-0.448333
0.00806794
0.124705
-0.00424995
0.0385735
0.016404
-0.0107955
-0.12113
-0.50146
0.549613
0.339667
-0.503223
-0.0873761
0.336824
0.040534
-0.438541
-0.18434
0.0102076
-0.0655908
0.000172661
0.133946
-0.13412
-0.087089
0.252826
-0.628084
0.199088
0.428983
0.298826
-0.0975798
-0.00174683
0.452202
-0.393222
-0.0590401
-0.193454
0.216371
-0.0229197
-0.42949
0.557699
-0.425801
-0.131992
-0.367768
0.217036
0.00143231
0.0300158
-0.0314482
-0.181453
0.159069
-0.152365
0.565537
-0.146445
0.164511
-0.0180662
-0.409052
-0.00362381
0.113746
-0.46556
0.213307
0.405105
0.164356
-0.569784
-0.0561374
-0.427142
0.075415
0.376724
0.274085
0.10637
-0.109833
-0.00535676
0.11519
-0.188972
0.246807
-0.0578416
-0.0860098
-0.211912
0.48563
0.00746739
0.119933
0.435372
0.111087
-0.547957
0.251355
-0.209174
0.0306375
0.177518
0.00239102
-0.179912
0.0177012
-0.0190528
-0.217425
0.197619
-0.197971
-0.150916
0.158958
-0.00804444
-0.0143247
0.175782
0.158621
0.407966
0.168504
0.0879486
0.114012
-0.01698
-0.0797709
0.0740729
0.00569797
0.0265002
0.00422536
-0.11141
0.359898
-0.248523
0.284152
-0.498362
0.214142
-0.0205466
-0.630108
0.291385
-0.482353
0.145784
0.2
0.0751096
-0.275128
0.0173955
-0.351277
0.125152
0.226083
-0.430504
0.0809501
0.00940555
-0.0903557
0.207507
-0.159973
0.0904948
-0.352493
0.261965
-0.179159
0.417497
0.00654179
0.0444387
-0.0509807
0.0736688
-0.0736844
1.55867e-05
-0.0213149
-0.00198488
0.368372
-0.490852
0.0959535
-0.426793
0.330758
-0.0613199
0.455995
0.113184
-0.494321
-0.0198666
-0.162699
0.191751
-0.0290532
0.134666
0.371921
-0.271098
0.0832342
0.187854
-0.200799
0.163351
0.037445
-0.315235
0.229191
0.0641788
-0.0649687
0.126786
0.368145
-0.495161
-0.113498
0.377849
-0.26438
-0.137873
-0.175035
-0.222898
0.506967
-0.00469518
-0.0750758
0.108525
-0.475291
0.366555
0.558705
-0.15985
0.0258701
0.113626
-0.119787
0.00615991
-0.0654941
0.0710451
-0.00555131
-0.00055791
0.0833994
-0.0828416
-0.162138
-0.273064
0.434993
0.100549
0.0884566
-0.18901
-0.360554
0.52937
0.0489761
0.32255
-0.533169
0.526217
-0.187099
0.361287
0.0812479
-0.0859432
0.040018
0.321311
0.147335
-0.176023
0.449705
-0.0892101
-0.590261
0.422252
0.167975
0.130756
-0.4568
-0.141148
0.59793
-0.156611
-0.00359693
0.0268166
0.446253
-0.59193
0.145643
0.30882
0.11699
-0.121111
-0.546237
-0.125082
-0.0849913
-0.11581
-0.0775358
0.178081
0.294469
0.109819
-0.404363
-0.503716
-0.150198
-0.374942
0.525004
0.417263
0.140337
-0.544473
0.394233
0.150234
-0.235343
-0.116465
0.484341
-0.367907
0.326751
0.216824
0.039744
-0.510129
-0.40788
-0.108388
0.516239
-0.0895394
0.2859
-0.196367
-0.177356
0.00125527
0.0392919
0.00673722
-0.160938
0.133813
-0.363268
0.531565
-0.168564
0.551842
-0.449569
-0.102358
0.15506
0.00952242
-0.564835
0.167101
0.397709
0.0864892
-0.301451
-0.275481
-0.305924
-0.265666
-0.405466
0.173543
-0.36501
0.258682
0.106298
-0.0638244
0.04189
0.443539
0.143941
0.58744
-0.14122
0.250064
-0.0563271
-0.193749
-0.634454
0.209053
0.425393
0.624076
-0.187226
-0.436947
-0.0284345
0.318321
0.0965495
-0.325543
0.0213295