/*--------------------------------*- C++ -*----------------------------------*\
| =========                 |                                                 |
| \\      /  F ield         | OpenFOAM: The Open Source CFD Toolbox           |
|  \\    /   O peration     | Version:  v2012                                 |
|   \\  /    A nd           | Website:  www.openfoam.com                      |
|    \\/     M anipulation  |                                                 |
\*---------------------------------------------------------------------------*/
FoamFile
{
    version     2.0;
    format      ascii;
    class       pointVectorField;
    location    "450";
    object      pointDisplacement;
}
// * * * * * * * * * * * * * * * * * * * * * * * * * * * * * * * * * * * * * //

dimensions      [0 1 0 0 0 0 0];


internalField   nonuniform List<vector> 
14386
(
(0 0 0)
(0 0.0565919 0)
(0 0 0)
(0 0.0565919 0)
(0 0 0)
(0 0 0)
(0 0 0)
(0 0 0)
(0 0 0)
(0 0 0)
(0 0 0)
(0 0 0)
(0 0 0)
(0 0 0)
(0 0 0)
(0 0 0)
(0 0 0)
(0 0 0)
(0 0 0)
(0 0 0)
(0 0 0)
(0 0 0)
(0 0 0)
(0 0 0)
(0 0 0)
(0 0 0)
(0 0 0)
(0 0 0)
(0 0 0)
(0 0 0)
(0 0 0)
(0 0 0)
(0 0 0)
(0 0 0)
(0 0 0)
(0 0 0)
(0 0 0)
(0 0 0)
(0 0 0)
(0 0 0)
(0 0 0)
(0 0 0)
(0 0 0)
(0 0 0)
(0 0 0)
(0 0 0)
(0 0 0)
(0 0 0)
(0 0 0)
(0 0 0)
(0 0 0)
(0 0 0)
(0 0 0)
(0 0 0)
(0 0 0)
(0 0 0)
(0 0 0)
(0 0 0)
(0 0 0)
(0 0 0)
(0 0 0)
(0 0 0)
(0 0 0)
(0 0 0)
(0 0 0)
(0 0 0)
(0 0 0)
(0 0 0)
(0 0 0)
(0 0 0)
(0 0 0)
(0 0 0)
(0 0 0)
(0 0 0)
(0 0 0)
(0 0 0)
(0 0 0)
(0 0 0)
(0 0 0)
(0 0 0)
(0 0 0)
(0 0 0)
(0 0 0)
(0 0 0)
(0 0 0)
(0 0 0)
(0 0 0)
(0 0 0)
(0 0 0)
(0 0 0)
(0 0 0)
(0 0 0)
(0 0 0)
(0 0 0)
(0 0 0)
(0 0 0)
(0 0 0)
(0 0 0)
(0 0 0)
(0 0 0)
(0 0 0)
(0 0 0)
(0 0 0)
(0 0 0)
(0 0 0)
(0 0 0)
(0 0 0)
(0 0 0)
(0 0 0)
(0 0 0)
(0 0 0)
(0 0 0)
(0 0 0)
(0 0 0)
(0 0 0)
(0 0 0)
(0 0 0)
(0 0 0)
(0 0 0)
(0 0 0)
(0 0 0)
(0 0 0)
(0 0 0)
(0 0 0)
(0 0 0)
(0 0 0)
(0 0 0)
(0 0 0)
(0 0 0)
(0 0 0)
(0 0 0)
(0 0 0)
(0 0 0)
(0 0.0565919 0)
(0 0.0565919 0)
(0 0.0565919 0)
(0 0.0565919 0)
(0 0.0565919 0)
(0 0.0565919 0)
(0 0.0565919 0)
(0 0.0565919 0)
(0 0.0565919 0)
(0 0.0565919 0)
(0 0.0565919 0)
(0 0.0565919 0)
(0 0.0565919 0)
(0 0.0565919 0)
(0 0.0565919 0)
(0 0.0565919 0)
(0 0.0565919 0)
(0 0.0565919 0)
(0 0.0565919 0)
(0 0.0565919 0)
(0 0.0565919 0)
(0 0.0565919 0)
(0 0.0565919 0)
(0 0.0565919 0)
(0 0.0565919 0)
(0 0.0565919 0)
(0 0.0565919 0)
(0 0.0565919 0)
(0 0.0565919 0)
(0 0 0)
(0 0 0)
(0 0 0)
(0 0 0)
(0 0 0)
(0 0 0)
(0 0 0)
(0 0 0)
(0 0 0)
(0 0 0)
(0 0 0)
(0 0 0)
(0 0 0)
(0 0 0)
(0 0 0)
(0 0 0)
(0 0 0)
(0 0 0)
(0 0 0)
(0 0 0)
(0 0 0)
(0 0 0)
(0 0 0)
(0 0 0)
(0 0 0)
(0 0 0)
(0 0 0)
(0 0 0)
(0 0 0)
(0 0 0)
(0 0 0)
(0 0 0)
(0 0 0)
(0 0 0)
(0 0 0)
(0 0 0)
(0 0 0)
(0 0 0)
(0 0 0)
(0 0 0)
(0 0 0)
(0 0 0)
(0 0 0)
(0 0 0)
(0 0 0)
(0 0 0)
(0 0 0)
(0 0 0)
(0 0 0)
(0 0 0)
(0 0 0)
(0 0 0)
(0 0 0)
(0 0 0)
(0 0 0)
(0 0 0)
(0 0 0)
(0 0 0)
(0 0 0)
(0 0 0)
(0 0 0)
(0 0 0)
(0 0 0)
(0 0 0)
(0 0 0)
(0 0 0)
(0 0 0)
(0 0 0)
(0 0 0)
(0 0 0)
(0 0 0)
(0 0 0)
(0 0 0)
(0 0 0)
(0 0 0)
(0 0 0)
(0 0 0)
(0 0 0)
(0 0 0)
(0 0 0)
(0 0 0)
(0 0 0)
(0 0 0)
(0 0 0)
(0 0 0)
(0 0 0)
(0 0 0)
(0 0 0)
(0 0 0)
(0 0 0)
(0 0 0)
(0 0 0)
(0 0 0)
(0 0 0)
(0 0 0)
(0 0 0)
(0 0 0)
(0 0 0)
(0 0 0)
(0 0 0)
(0 0 0)
(0 0 0)
(0 0 0)
(0 0 0)
(0 0 0)
(0 0 0)
(0 0 0)
(0 0 0)
(0 0 0)
(0 0 0)
(0 0 0)
(0 0 0)
(0 0 0)
(0 0 0)
(0 0 0)
(0 0 0)
(0 0 0)
(0 0 0)
(0 0 0)
(0 0 0)
(0 0 0)
(0 0 0)
(0 0 0)
(0 0 0)
(0 0 0)
(0 0 0)
(0 0 0)
(0 0 0)
(0 0 0)
(0 0.0565919 0)
(0 0.0565919 0)
(0 0.0565919 0)
(0 0.0565919 0)
(0 0.0565919 0)
(0 0.0565919 0)
(0 0.0565919 0)
(0 0.0565919 0)
(0 0.0565919 0)
(0 0.0565919 0)
(0 0.0565919 0)
(0 0.0565919 0)
(0 0.0565919 0)
(0 0.0565919 0)
(0 0.0565919 0)
(0 0.0565919 0)
(0 0.0565919 0)
(0 0.0565919 0)
(0 0.0565919 0)
(0 0.0565919 0)
(0 0.0565919 0)
(0 0.0565919 0)
(0 0.0565919 0)
(0 0.0565919 0)
(0 0.0565919 0)
(0 0.0565919 0)
(0 0.0565919 0)
(0 0.0565919 0)
(0 0.0565919 0)
(0 0.00191652 0)
(0 0.0565919 0)
(0 0.0565919 0)
(0 0.0565919 0)
(0 0.00240023 0)
(0 0.00104128 0)
(0 0.000752592 0)
(0 0.00137712 0)
(0 0.0031109 0)
(0 0.000530059 0)
(0 0.00340741 0)
(0 0.00034799 0)
(0 0.00365071 0)
(0 0.00407575 0)
(0 0.000358039 0)
(0 0.0565919 0)
(0 0.000304143 0)
(0 0.000276949 0)
(0 0.000258296 0)
(0 0.000206042 0)
(0 0.00018031 0)
(0 0.00170049 0)
(0 0.00134912 0)
(0 0.000884287 0)
(0 0.0565919 0)
(0 0.0565919 0)
(0 0.000119567 0)
(0 0.000115273 0)
(0 0.00367099 0)
(0 0.0039411 0)
(0 0.00355543 0)
(0 0.0028987 0)
(0 0.00201435 0)
(0 0.000490523 0)
(0 0.000635105 0)
(0 0.000334985 0)
(0 0.000327346 0)
(0 0.000327847 0)
(0 0.0565919 0)
(0 7.57946e-05 0)
(0 6.16928e-05 0)
(0 0.00381101 0)
(0 0.00256938 0)
(0 0.0020629 0)
(0 0.00180737 0)
(0 0.00182919 0)
(0 0.00126905 0)
(0 0.00105085 0)
(0 0.000976603 0)
(0 0.000847658 0)
(0 0.00015321 0)
(0 0.000326128 0)
(0 0.000587648 0)
(0 0.000378233 0)
(0 0.000153025 0)
(0 0.000182445 0)
(0 0.000248128 0)
(0 0.000499536 0)
(0 2.53122e-05 0)
(0 0.0531559 0)
(0 0.0528026 0)
(0 0.0530122 0)
(0 0.0526501 0)
(0 0.0528644 0)
(0 0.0532103 0)
(0 0.053064 0)
(0 0.0527114 0)
(0 0.0529135 0)
(0 0.0532488 0)
(0 0.0531008 0)
(0 0.0527562 0)
(0 0.0529466 0)
(0 0.0525919 0)
(0 0.0527863 0)
(0 0.0531223 0)
(0 0.0529705 0)
(0 0.0526199 0)
(0 0.052808 0)
(0 0.0531842 0)
(0 0.052979 0)
(0 0.0526314 0)
(0 0.0528031 0)
(0 0.0531276 0)
(0 0.0529605 0)
(0 0.0532678 0)
(0 0.0531056 0)
(0 0.0527883 0)
(0 0.0529375 0)
(0 0.0532402 0)
(0 0.0530745 0)
(0 0.053366 0)
(0 0.0531998 0)
(0 0.0534821 0)
(0 0.0533155 0)
(0 0.0530217 0)
(0 0.0531389 0)
(0 0.0534249 0)
(0 0.0532492 0)
(0 0.0535286 0)
(0 0.0533512 0)
(0 0.0536292 0)
(0 0.0534441 0)
(0 0.05371 0)
(0 0.0535274 0)
(0 0.053773 0)
(0 0.0536053 0)
(0 0.053832 0)
(0 0.0536654 0)
(0 0.0538874 0)
(0 0.0537089 0)
(0 0.0539381 0)
(0 0.0537522 0)
(0 0.053978 0)
(0 0.0537902 0)
(0 0.0540092 0)
(0 0.0538187 0)
(0 0.054033 0)
(0 0.0538379 0)
(0 0.0540507 0)
(0 0.0538471 0)
(0 0.0540581 0)
(0 0.0538432 0)
(0 0.0540551 0)
(0 0.053829 0)
(0 0.054044 0)
(0 0.0538094 0)
(0 0.0540236 0)
(0 0.0537873 0)
(0 0.0539968 0)
(0 0.05376 0)
(0 0.053964 0)
(0 0.0537186 0)
(0 0.0539123 0)
(0 0.0536614 0)
(0 0.053845 0)
(0 0.0535935 0)
(0 0.0537752 0)
(0 0.0535157 0)
(0 0.0536967 0)
(0 0.0534253 0)
(0 0.0536051 0)
(0 0.0533277 0)
(0 0.0535039 0)
(0 0.0532201 0)
(0 0.0533845 0)
(0 0.0531004 0)
(0 0.0532507 0)
(0 0.0529623 0)
(0 0.0531099 0)
(0 0.0528094 0)
(0 0.0529569 0)
(0 0.0526486 0)
(0 0.0527881 0)
(0 0.052472 0)
(0 0.0523262 0)
(0 0.0521433 0)
(0 0.0532139 0)
(0 0.0535721 0)
(0 0.053477 0)
(0 0.0528327 0)
(0 0.0519897 0)
(0 0.0518003 0)
(0 0.0526039 0)
(0 0.0516369 0)
(0 0.0514411 0)
(0 0.0512629 0)
(0 0.0510569 0)
(0 0.0508667 0)
(0 0.0506542 0)
(0 0.0504522 0)
(0 0.0502335 0)
(0 0.0500201 0)
(0 0.0497947 0)
(0 0.0500019 0)
(0 0.0495524 0)
(0 0.0497505 0)
(0 0.0492913 0)
(0 0.0490897 0)
(0 0.0488181 0)
(0 0.049477 0)
(0 0.0486107 0)
(0 0.0483271 0)
(0 0.0481112 0)
(0 0.047817 0)
(0 0.0475878 0)
(0 0.0472879 0)
(0 0.0470394 0)
(0 0.046741 0)
(0 0.0464773 0)
(0 0.0461769 0)
(0 0.0459026 0)
(0 0.0455975 0)
(0 0.0458608 0)
(0 0.0452768 0)
(0 0.0455372 0)
(0 0.0449372 0)
(0 0.0451802 0)
(0 0.0445787 0)
(0 0.0443382 0)
(0 0.0439741 0)
(0 0.0437206 0)
(0 0.043352 0)
(0 0.0448007 0)
(0 0.0430888 0)
(0 0.0427167 0)
(0 0.0424423 0)
(0 0.0420682 0)
(0 0.0417808 0)
(0 0.0414032 0)
(0 0.0411024 0)
(0 0.0407243 0)
(0 0.0410086 0)
(0 0.0403257 0)
(0 0.0405923 0)
(0 0.0399098 0)
(0 0.0396334 0)
(0 0.0392187 0)
(0 0.0389255 0)
(0 0.0384787 0)
(0 0.0382131 0)
(0 0.0377876 0)
(0 0.0394505 0)
(0 0.0375055 0)
(0 0.0370984 0)
(0 0.0367853 0)
(0 0.0363821 0)
(0 0.0360576 0)
(0 0.0356569 0)
(0 0.0529131 0)
(0 0.0353236 0)
(0 0.0349256 0)
(0 0.035236 0)
(0 0.0345068 0)
(0 0.0347916 0)
(0 0.0340676 0)
(0 0.0337766 0)
(0 0.0333493 0)
(0 0.033045 0)
(0 0.0326298 0)
(0 0.0336203 0)
(0 0.0323099 0)
(0 0.0318969 0)
(0 0.0315683 0)
(0 0.0311541 0)
(0 0.030825 0)
(0 0.0304158 0)
(0 0.0300834 0)
(0 0.029682 0)
(0 0.0293456 0)
(0 0.0289531 0)
(0 0.0292623 0)
(0 0.0285412 0)
(0 0.0288236 0)
(0 0.0281106 0)
(0 0.027825 0)
(0 0.0274017 0)
(0 0.0276636 0)
(0 0.0269633 0)
(0 0.0266965 0)
(0 0.0262679 0)
(0 0.0259954 0)
(0 0.0255766 0)
(0 0.025299 0)
(0 0.0248909 0)
(0 0.0251436 0)
(0 0.0244686 0)
(0 0.0242114 0)
(0 0.0237992 0)
(0 0.0235382 0)
(0 0.0231363 0)
(0 0.0228716 0)
(0 0.0224808 0)
(0 0.0227221 0)
(0 0.0220776 0)
(0 0.0218325 0)
(0 0.02144 0)
(0 0.0211914 0)
(0 0.0208099 0)
(0 0.0205581 0)
(0 0.020188 0)
(0 0.0204176 0)
(0 0.0198064 0)
(0 0.0195743 0)
(0 0.0192032 0)
(0 0.0189683 0)
(0 0.0186085 0)
(0 0.0183713 0)
(0 0.0180221 0)
(0 0.0182378 0)
(0 0.0176605 0)
(0 0.0174441 0)
(0 0.0170921 0)
(0 0.0168738 0)
(0 0.0165329 0)
(0 0.052721 0)
(0 0.0530212 0)
(0 0.0528257 0)
(0 0.05312 0)
(0 0.016313 0)
(0 0.0159852 0)
(0 0.0161824 0)
(0 0.0156481 0)
(0 0.0154505 0)
(0 0.0158159 0)
(0 0.0152964 0)
(0 0.0154279 0)
(0 0.0149318 0)
(0 0.0539472 0)
(0 0.0461911 0)
(0 0.0297217 0)
(0 0.0357031 0)
(0 0.0539417 0)
(0 0.0541902 0)
(0 0.0542151 0)
(0 0.0414609 0)
(0 0.0562501 0)
(0 0.0562809 0)
(0 0.0562387 0)
(0 0.0562702 0)
(0 0.0562265 0)
(0 0.0562585 0)
(0 0.056299 0)
(0 0.0562874 0)
(0 0.0562463 0)
(0 0.0562756 0)
(0 0.0562333 0)
(0 0.0562631 0)
(0 0.0563227 0)
(0 0.0562191 0)
(0 0.0562494 0)
(0 0.056203 0)
(0 0.0562342 0)
(0 0.0561856 0)
(0 0.0562175 0)
(0 0.0562634 0)
(0 0.0562476 0)
(0 0.0562906 0)
(0 0.0562753 0)
(0 0.0563156 0)
(0 0.0563008 0)
(0 0.0562588 0)
(0 0.0562849 0)
(0 0.056339 0)
(0 0.0562403 0)
(0 0.0562669 0)
(0 0.0561518 0)
(0 0.0562193 0)
(0 0.0562465 0)
(0 0.0561957 0)
(0 0.0562237 0)
(0 0.0562719 0)
(0 0.0562492 0)
(0 0.0562944 0)
(0 0.0562721 0)
(0 0.0563143 0)
(0 0.0562924 0)
(0 0.0563322 0)
(0 0.0563105 0)
(0 0.0563491 0)
(0 0.0563269 0)
(0 0.0563649 0)
(0 0.0563424 0)
(0 0.0563788 0)
(0 0.0563553 0)
(0 0.0563893 0)
(0 0.0563606 0)
(0 0.0563978 0)
(0 0.0563732 0)
(0 0.0564061 0)
(0 0.0563797 0)
(0 0.0564119 0)
(0 0.0563849 0)
(0 0.0564155 0)
(0 0.0563877 0)
(0 0.0564177 0)
(0 0.0563897 0)
(0 0.0564184 0)
(0 0.0563903 0)
(0 0.0564173 0)
(0 0.0563881 0)
(0 0.0564143 0)
(0 0.0563837 0)
(0 0.0564094 0)
(0 0.0563775 0)
(0 0.0564027 0)
(0 0.0563696 0)
(0 0.0563938 0)
(0 0.0563599 0)
(0 0.0563826 0)
(0 0.0563473 0)
(0 0.0563691 0)
(0 0.0563307 0)
(0 0.0563528 0)
(0 0.0563115 0)
(0 0.0563347 0)
(0 0.0563435 0)
(0 0.0563583 0)
(0 0.0562913 0)
(0 0.0563109 0)
(0 0.056284 0)
(0 0.0564001 0)
(0 0.0561697 0)
(0 0.0502309 0)
(0 0.0563908 0)
(0 0.0536226 0)
(0 0.0564393 0)
(0 0.0564328 0)
(0 0.0561392 0)
(0 0.0561101 0)
(0 0.0560771 0)
(0 0.0560459 0)
(0 0.0560081 0)
(0 0.0559747 0)
(0 0.0559331 0)
(0 0.0558959 0)
(0 0.0558524 0)
(0 0.0558104 0)
(0 0.0557672 0)
(0 0.0558541 0)
(0 0.0557637 0)
(0 0.055809 0)
(0 0.0557132 0)
(0 0.0557592 0)
(0 0.0556582 0)
(0 0.0557036 0)
(0 0.0453836 0)
(0 0.0449986 0)
(0 0.055598 0)
(0 0.0556427 0)
(0 0.0555494 0)
(0 0.0564436 0)
(0 0.0542538 0)
(0 0.0536375 0)
(0 0.0536891 0)
(0 0.0529121 0)
(0 0.0256921 0)
(0 0.0166318 0)
(0 0.014419 0)
(0 0.018709 0)
(0 0.0209162 0)
(0 0.0272008 0)
(0 0.0222994 0)
(0 0.0200141 0)
(0 0.0319648 0)
(0 0.0456071 0)
(0 0.045879 0)
(0 0.0452836 0)
(0 0.0455344 0)
(0 0.0449275 0)
(0 0.045154 0)
(0 0.0445211 0)
(0 0.0447382 0)
(0 0.0440974 0)
(0 0.0442767 0)
(0 0.0436168 0)
(0 0.0437675 0)
(0 0.0430664 0)
(0 0.0432434 0)
(0 0.0425164 0)
(0 0.0427211 0)
(0 0.0419169 0)
(0 0.0419946 0)
(0 0.0412636 0)
(0 0.0413308 0)
(0 0.0405853 0)
(0 0.0406486 0)
(0 0.0398853 0)
(0 0.0413763 0)
(0 0.0406753 0)
(0 0.0414042 0)
(0 0.0406681 0)
(0 0.0414131 0)
(0 0.0406448 0)
(0 0.0413846 0)
(0 0.040578 0)
(0 0.0413224 0)
(0 0.0404793 0)
(0 0.0396237 0)
(0 0.041236 0)
(0 0.0403493 0)
(0 0.0411044 0)
(0 0.0401659 0)
(0 0.0409288 0)
(0 0.0399687 0)
(0 0.0407319 0)
(0 0.0397355 0)
(0 0.0405021 0)
(0 0.0394621 0)
(0 0.0402376 0)
(0 0.0386764 0)
(0 0.0416851 0)
(0 0.0391511 0)
(0 0.0399296 0)
(0 0.0387964 0)
(0 0.0395784 0)
(0 0.0406862 0)
(0 0.0403372 0)
(0 0.0414091 0)
(0 0.0410671 0)
(0 0.0399626 0)
(0 0.0406948 0)
(0 0.0421028 0)
(0 0.03955 0)
(0 0.0402817 0)
(0 0.0390866 0)
(0 0.0398225 0)
(0 0.0385714 0)
(0 0.0393193 0)
(0 0.0405409 0)
(0 0.040046 0)
(0 0.0412329 0)
(0 0.0407418 0)
(0 0.0395123 0)
(0 0.0402092 0)
(0 0.0418881 0)
(0 0.0389337 0)
(0 0.0396356 0)
(0 0.0421219 0)
(0 0.0398111 0)
(0 0.0390991 0)
(0 0.0390399 0)
(0 0.0382983 0)
(0 0.0382914 0)
(0 0.0390127 0)
(0 0.0382555 0)
(0 0.0374875 0)
(0 0.0374509 0)
(0 0.0366667 0)
(0 0.0366353 0)
(0 0.0358348 0)
(0 0.0358093 0)
(0 0.0349954 0)
(0 0.0349859 0)
(0 0.0341327 0)
(0 0.0340864 0)
(0 0.0332187 0)
(0 0.033132 0)
(0 0.0322504 0)
(0 0.0323501 0)
(0 0.0313659 0)
(0 0.0314756 0)
(0 0.0304636 0)
(0 0.0305979 0)
(0 0.0295712 0)
(0 0.0297257 0)
(0 0.0286983 0)
(0 0.0288552 0)
(0 0.0278235 0)
(0 0.0279874 0)
(0 0.0269522 0)
(0 0.0271224 0)
(0 0.0260877 0)
(0 0.0262611 0)
(0 0.0252295 0)
(0 0.0254113 0)
(0 0.0321063 0)
(0 0.0243767 0)
(0 0.024563 0)
(0 0.0235346 0)
(0 0.0236901 0)
(0 0.0227062 0)
(0 0.0228669 0)
(0 0.0284888 0)
(0 0.0218906 0)
(0 0.022079 0)
(0 0.0210768 0)
(0 0.0212921 0)
(0 0.0202828 0)
(0 0.0204967 0)
(0 0.0194978 0)
(0 0.0197171 0)
(0 0.0187263 0)
(0 0.0189483 0)
(0 0.0249954 0)
(0 0.0179618 0)
(0 0.0181918 0)
(0 0.0191219 0)
(0 0.0183701 0)
(0 0.0174548 0)
(0 0.017636 0)
(0 0.016732 0)
(0 0.0169171 0)
(0 0.0177813 0)
(0 0.0170679 0)
(0 0.0162147 0)
(0 0.0163701 0)
(0 0.0155279 0)
(0 0.0156862 0)
(0 0.0148563 0)
(0 0.0150183 0)
(0 0.0142012 0)
(0 0.0143683 0)
(0 0.0151498 0)
(0 0.014505 0)
(0 0.0137363 0)
(0 0.0138763 0)
(0 0.013121 0)
(0 0.0132639 0)
(0 0.0125225 0)
(0 0.012669 0)
(0 0.0133772 0)
(0 0.0127856 0)
(0 0.0120927 0)
(0 0.0122123 0)
(0 0.0115335 0)
(0 0.0116568 0)
(0 0.0109903 0)
(0 0.011117 0)
(0 0.0117519 0)
(0 0.0112135 0)
(0 0.0105936 0)
(0 0.0106969 0)
(0 0.0100889 0)
(0 0.010186 0)
(0 0.0107709 0)
(0 0.0102617 0)
(0 0.0095961 0)
(0 0.0097687 0)
(0 0.0103185 0)
(0 0.00983878 0)
(0 0.00932771 0)
(0 0.00937047 0)
(0 0.00984651 0)
(0 0.00939608 0)
(0 0.00891293 0)
(0 0.00894939 0)
(0 0.00941321 0)
(0 0.00896874 0)
(0 0.00940382 0)
(0 0.00896306 0)
(0 0.00852743 0)
(0 0.00852616 0)
(0 0.00893697 0)
(0 0.00850442 0)
(0 0.00888682 0)
(0 0.00846212 0)
(0 0.00807704 0)
(0 0.00804023 0)
(0 0.00840551 0)
(0 0.00798722 0)
(0 0.00833554 0)
(0 0.00791668 0)
(0 0.00757234 0)
(0 0.00750319 0)
(0 0.00783077 0)
(0 0.00742195 0)
(0 0.00709714 0)
(0 0.00773087 0)
(0 0.00732649 0)
(0 0.00761754 0)
(0 0.00721909 0)
(0 0.00749108 0)
(0 0.00709568 0)
(0 0.00735149 0)
(0 0.00695492 0)
(0 0.0072064 0)
(0 0.0067976 0)
(0 0.0065542 0)
(0 0.00704191 0)
(0 0.00663382 0)
(0 0.00686102 0)
(0 0.00646433 0)
(0 0.00667238 0)
(0 0.00627592 0)
(0 0.00647067 0)
(0 0.0072651 0)
(0 0.00789683 0)
(0 0.00607095 0)
(0 0.0062596 0)
(0 0.00587711 0)
(0 0.0178953 0)
(0 0.0216451 0)
(0 0.00586241 0)
(0 0.0060423 0)
(0 0.00643668 0)
(0 0.00620862 0)
(0 0.00660255 0)
(0 0.00636352 0)
(0 0.0224119 0)
(0 0.00597332 0)
(0 0.00611755 0)
(0 0.0375921 0)
(0 0.0383349 0)
(0 0.0397211 0)
(0 0.0390524 0)
(0 0.040395 0)
(0 0.0397363 0)
(0 0.0410345 0)
(0 0.0403869 0)
(0 0.0416574 0)
(0 0.0410085 0)
(0 0.0396853 0)
(0 0.0403198 0)
(0 0.0415804 0)
(0 0.0409539 0)
(0 0.0395937 0)
(0 0.0402342 0)
(0 0.0415724 0)
(0 0.0408578 0)
(0 0.0394677 0)
(0 0.0401038 0)
(0 0.0414604 0)
(0 0.040718 0)
(0 0.0420375 0)
(0 0.0413057 0)
(0 0.0399239 0)
(0 0.0405223 0)
(0 0.0418698 0)
(0 0.0410996 0)
(0 0.0396859 0)
(0 0.0402799 0)
(0 0.0416558 0)
(0 0.0408497 0)
(0 0.0421879 0)
(0 0.0413951 0)
(0 0.0399969 0)
(0 0.0405539 0)
(0 0.0419441 0)
(0 0.0411037 0)
(0 0.0396734 0)
(0 0.00573003 0)
(0 0.00586456 0)
(0 0.0272336 0)
(0 0.036842 0)
(0 0.0360761 0)
(0 0.0184332 0)
(0 0.00675769 0)
(0 0.0449225 0)
(0 0.00547939 0)
(0 0.00560481 0)
(0 0.0140033 0)
(0 0.0352432 0)
(0 0.0344603 0)
(0 0.00522213 0)
(0 0.00533955 0)
(0 0.00572124 0)
(0 0.00509615 0)
(0 0.0378119 0)
(0 0.0335379 0)
(0 0.0327311 0)
(0 0.0307008 0)
(0 0.0365743 0)
(0 0.0317217 0)
(0 0.0308796 0)
(0 0.0246459 0)
(0 0.010836 0)
(0 0.0134634 0)
(0 0.0378962 0)
(0 0.0531759 0)
(0 0.0554846 0)
(0 0.0554321 0)
(0 0.0535006 0)
(0 0.0524218 0)
(0 0.0563518 0)
(0 0.056373 0)
(0 0.0563845 0)
(0 0.0564035 0)
(0 0.0564138 0)
(0 0.0564305 0)
(0 0.0564393 0)
(0 0.056454 0)
(0 0.0564617 0)
(0 0.0564748 0)
(0 0.0564815 0)
(0 0.0564929 0)
(0 0.0564987 0)
(0 0.0565087 0)
(0 0.0565136 0)
(0 0.0565225 0)
(0 0.0565266 0)
(0 0.0565344 0)
(0 0.0565378 0)
(0 0.0565304 0)
(0 0.0565408 0)
(0 0.0565337 0)
(0 0.0565432 0)
(0 0.0565369 0)
(0 0.0565457 0)
(0 0.0565397 0)
(0 0.0565484 0)
(0 0.0565422 0)
(0 0.0565507 0)
(0 0.0565445 0)
(0 0.0565526 0)
(0 0.0565465 0)
(0 0.0565544 0)
(0 0.0565485 0)
(0 0.056556 0)
(0 0.0565446 0)
(0 0.0565416 0)
(0 0.0565597 0)
(0 0.0565509 0)
(0 0.0565485 0)
(0 0.0565564 0)
(0 0.0565538 0)
(0 0.0565613 0)
(0 0.0565585 0)
(0 0.0565657 0)
(0 0.0565634 0)
(0 0.0565678 0)
(0 0.0565714 0)
(0 0.056573 0)
(0 0.0565556 0)
(0 0.056561 0)
(0 0.0565761 0)
(0 0.0565774 0)
(0 0.0565528 0)
(0 0.0565582 0)
(0 0.05658 0)
(0 0.0565809 0)
(0 0.056469 0)
(0 0.0565333 0)
(0 0.0561919 0)
(0 0.0558062 0)
(0 0.0557175 0)
(0 0.0557573 0)
(0 0.0556615 0)
(0 0.0557038 0)
(0 0.0556065 0)
(0 0.0556447 0)
(0 0.0555442 0)
(0 0.0555794 0)
(0 0.0554661 0)
(0 0.0555075 0)
(0 0.0553838 0)
(0 0.0554296 0)
(0 0.0554427 0)
(0 0.0552998 0)
(0 0.0553463 0)
(0 0.0552092 0)
(0 0.0552566 0)
(0 0.0553891 0)
(0 0.0553007 0)
(0 0.0565495 0)
(0 0.0565549 0)
(0 0.0565628 0)
(0 0.0565597 0)
(0 0.0565669 0)
(0 0.0565638 0)
(0 0.0565705 0)
(0 0.0565674 0)
(0 0.0565735 0)
(0 0.0565704 0)
(0 0.0563424 0)
(0 0.056583 0)
(0 0.0565837 0)
(0 0.0565817 0)
(0 0.0565843 0)
(0 0.0554279 0)
(0 0.0553415 0)
(0 0.0565599 0)
(0 0.0297923 0)
(0 0.0289291 0)
(0 0.0306404 0)
(0 0.0423237 0)
(0 0.0554651 0)
(0 0.0553792 0)
(0 0.0555017 0)
(0 0.0554145 0)
(0 0.0552831 0)
(0 0.055319 0)
(0 0.0551577 0)
(0 0.055448 0)
(0 0.0553533 0)
(0 0.0554803 0)
(0 0.0553861 0)
(0 0.0565825 0)
(0 0.0565849 0)
(0 0.0565758 0)
(0 0.056573 0)
(0 0.0565831 0)
(0 0.0565854 0)
(0 0.0565868 0)
(0 0.0565872 0)
(0 0.0565858 0)
(0 0.0565875 0)
(0 0.0565862 0)
(0 0.0565878 0)
(0 0.0565866 0)
(0 0.0565881 0)
(0 0.056587 0)
(0 0.0565883 0)
(0 0.0565872 0)
(0 0.0565885 0)
(0 0.0565875 0)
(0 0.0565887 0)
(0 0.0565877 0)
(0 0.0565889 0)
(0 0.056588 0)
(0 0.0565854 0)
(0 0.0564695 0)
(0 0.0551783 0)
(0 0.0551569 0)
(0 0.0330114 0)
(0 0.031944 0)
(0 0.0422518 0)
(0 0.056579 0)
(0 0.0557449 0)
(0 0.0556829 0)
(0 0.0557818 0)
(0 0.0557194 0)
(0 0.0556155 0)
(0 0.0556519 0)
(0 0.0557531 0)
(0 0.0556851 0)
(0 0.055784 0)
(0 0.0557135 0)
(0 0.0558096 0)
(0 0.0557372 0)
(0 0.0558296 0)
(0 0.0557566 0)
(0 0.0558459 0)
(0 0.0557713 0)
(0 0.055858 0)
(0 0.0557818 0)
(0 0.0556894 0)
(0 0.0556985 0)
(0 0.0557883 0)
(0 0.0557033 0)
(0 0.0557914 0)
(0 0.0557037 0)
(0 0.0557905 0)
(0 0.0556995 0)
(0 0.0557843 0)
(0 0.0556897 0)
(0 0.0557727 0)
(0 0.055675 0)
(0 0.0555862 0)
(0 0.055568 0)
(0 0.0556559 0)
(0 0.0555438 0)
(0 0.0556324 0)
(0 0.0555137 0)
(0 0.055607 0)
(0 0.0554814 0)
(0 0.0555736 0)
(0 0.0554426 0)
(0 0.0555263 0)
(0 0.0553958 0)
(0 0.0554773 0)
(0 0.0553413 0)
(0 0.0554206 0)
(0 0.0552758 0)
(0 0.0556371 0)
(0 0.0554722 0)
(0 0.0552048 0)
(0 0.0556004 0)
(0 0.0565455 0)
(0 0.0565777 0)
(0 0.056575 0)
(0 0.0565695 0)
(0 0.0565716 0)
(0 0.0565768 0)
(0 0.0565733 0)
(0 0.0565782 0)
(0 0.0565746 0)
(0 0.0565792 0)
(0 0.0565756 0)
(0 0.0565796 0)
(0 0.0565758 0)
(0 0.0565795 0)
(0 0.0565751 0)
(0 0.056579 0)
(0 0.0565743 0)
(0 0.0565782 0)
(0 0.0565731 0)
(0 0.0565771 0)
(0 0.0565714 0)
(0 0.0565761 0)
(0 0.0565693 0)
(0 0.056569 0)
(0 0.0565639 0)
(0 0.0565708 0)
(0 0.0328523 0)
(0 0.0317567 0)
(0 0.0326507 0)
(0 0.0315051 0)
(0 0.0324048 0)
(0 0.0312084 0)
(0 0.0302971 0)
(0 0.0299499 0)
(0 0.0290264 0)
(0 0.0286237 0)
(0 0.0276917 0)
(0 0.0272319 0)
(0 0.0262963 0)
(0 0.02817 0)
(0 0.0267227 0)
(0 0.0276577 0)
(0 0.0261572 0)
(0 0.0270864 0)
(0 0.0255212 0)
(0 0.0264521 0)
(0 0.0248086 0)
(0 0.0257524 0)
(0 0.0238729 0)
(0 0.0240342 0)
(0 0.0249882 0)
(0 0.0231932 0)
(0 0.0241578 0)
(0 0.0259448 0)
(0 0.0251236 0)
(0 0.0300157 0)
(0 0.0280191 0)
(0 0.0291056 0)
(0 0.0270534 0)
(0 0.0280905 0)
(0 0.0260832 0)
(0 0.0271489 0)
(0 0.0251295 0)
(0 0.055362 0)
(0 0.055305 0)
(0 0.0565651 0)
(0 0.0286136 0)
(0 0.0294821 0)
(0 0.0555428 0)
(0 0.0553097 0)
(0 0.0232665 0)
(0 0.0551217 0)
(0 0.0280222 0)
(0 0.0269017 0)
(0 0.0289776 0)
(0 0.0293301 0)
(0 0.0285762 0)
(0 0.0288999 0)
(0 0.0281391 0)
(0 0.0284283 0)
(0 0.0276669 0)
(0 0.0279213 0)
(0 0.0271598 0)
(0 0.0286866 0)
(0 0.0273854 0)
(0 0.0266173 0)
(0 0.0268185 0)
(0 0.0260419 0)
(0 0.0258509 0)
(0 0.0252671 0)
(0 0.0250892 0)
(0 0.0244963 0)
(0 0.0243331 0)
(0 0.0237257 0)
(0 0.023582 0)
(0 0.055045 0)
(0 0.0357557 0)
(0 0.0364839 0)
(0 0.0356733 0)
(0 0.0363665 0)
(0 0.0355618 0)
(0 0.0514562 0)
(0 0.0262998 0)
(0 0.0241727 0)
(0 0.0229737 0)
(0 0.0228484 0)
(0 0.0565883 0)
(0 0.0273415 0)
(0 0.0282347 0)
(0 0.0222492 0)
(0 0.0221157 0)
(0 0.0215292 0)
(0 0.0213903 0)
(0 0.0208165 0)
(0 0.0206913 0)
(0 0.0362224 0)
(0 0.0354203 0)
(0 0.0201136 0)
(0 0.0199904 0)
(0 0.0369906 0)
(0 0.0194135 0)
(0 0.0192921 0)
(0 0.046121 0)
(0 0.0549554 0)
(0 0.0565895 0)
(0 0.056589 0)
(0 0.0123492 0)
(0 0.0314587 0)
(0 0.0373818 0)
(0 0.0557196 0)
(0 0.0484179 0)
(0 0.0238371 0)
(0 0.0565848 0)
(0 0.05261 0)
(0 0.0258768 0)
(0 0.0499302 0)
(0 0.0496412 0)
(0 0.0565849 0)
(0 0.0565868 0)
(0 0.0552294 0)
(0 0.0551669 0)
(0 0.0565865 0)
(0 0.0212345 0)
(0 0.050088 0)
(0 0.0558729 0)
(0 0.0262134 0)
(0 0.0269989 0)
(0 0.0555969 0)
(0 0.0259736 0)
(0 0.0268847 0)
(0 0.0434813 0)
(0 0.0555792 0)
(0 0.0565814 0)
(0 0.0187233 0)
(0 0.0186077 0)
(0 0.019151 0)
(0 0.0184819 0)
(0 0.0548725 0)
(0 0.0360545 0)
(0 0.0352466 0)
(0 0.0558992 0)
(0 0.056588 0)
(0 0.0565877 0)
(0 0.0547763 0)
(0 0.0232484 0)
(0 0.026083 0)
(0 0.0278502 0)
(0 0.0178474 0)
(0 0.0179256 0)
(0 0.0178285 0)
(0 0.0184145 0)
(0 0.0176945 0)
(0 0.0171809 0)
(0 0.0170561 0)
(0 0.0165511 0)
(0 0.0164351 0)
(0 0.0159396 0)
(0 0.0158269 0)
(0 0.0153424 0)
(0 0.0152321 0)
(0 0.0156877 0)
(0 0.0151004 0)
(0 0.0146492 0)
(0 0.0145247 0)
(0 0.0140787 0)
(0 0.0139615 0)
(0 0.014383 0)
(0 0.0138265 0)
(0 0.014224 0)
(0 0.0136739 0)
(0 0.0132813 0)
(0 0.0131354 0)
(0 0.0135031 0)
(0 0.0129734 0)
(0 0.0133174 0)
(0 0.0127955 0)
(0 0.0131178 0)
(0 0.0126022 0)
(0 0.0122825 0)
(0 0.0120974 0)
(0 0.0123946 0)
(0 0.0118994 0)
(0 0.0121756 0)
(0 0.0116901 0)
(0 0.0119486 0)
(0 0.0114716 0)
(0 0.0117152 0)
(0 0.0112446 0)
(0 0.0114754 0)
(0 0.011008 0)
(0 0.0112208 0)
(0 0.0107581 0)
(0 0.0109516 0)
(0 0.0104964 0)
(0 0.0106727 0)
(0 0.0102232 0)
(0 0.0103855 0)
(0 0.00994267 0)
(0 0.0100916 0)
(0 0.00966568 0)
(0 0.00978526 0)
(0 0.00931799 0)
(0 0.010303 0)
(0 0.0112116 0)
(0 0.00947367 0)
(0 0.0565859 0)
(0 0.0117802 0)
(0 0.0560807 0)
(0 0.0565823 0)
(0 0.0229037 0)
(0 0.0219217 0)
(0 0.0563502 0)
(0 0.0497871 0)
(0 0.0493357 0)
(0 0.0244901 0)
(0 0.0254392 0)
(0 0.0235346 0)
(0 0.0263616 0)
(0 0.0271527 0)
(0 0.0234115 0)
(0 0.0556083 0)
(0 0.0383265 0)
(0 0.0277657 0)
(0 0.026411 0)
(0 0.00327837 0)
(0 0.002894 0)
(0 0.00316563 0)
(0 0.00278006 0)
(0 0.00304793 0)
(0 0.0565804 0)
(0 0.0561321 0)
(0 0.0560947 0)
(0 0.0127484 0)
(0 0.0105294 0)
(0 0.04381 0)
(0 0.0175145 0)
(0 0.0565891 0)
(0 0.0565888 0)
(0 0.0565893 0)
(0 0.0550854 0)
(0 0.0550171 0)
(0 0.0346032 0)
(0 0.0344231 0)
(0 0.0337774 0)
(0 0.0336102 0)
(0 0.0329486 0)
(0 0.0327904 0)
(0 0.0334609 0)
(0 0.0325623 0)
(0 0.0319668 0)
(0 0.042337 0)
(0 0.0429655 0)
(0 0.0433609 0)
(0 0.0439654 0)
(0 0.0443243 0)
(0 0.0448924 0)
(0 0.045219 0)
(0 0.0457553 0)
(0 0.046038 0)
(0 0.0465574 0)
(0 0.0467986 0)
(0 0.0473012 0)
(0 0.0475067 0)
(0 0.0479909 0)
(0 0.0481778 0)
(0 0.0477855 0)
(0 0.0476928 0)
(0 0.0483425 0)
(0 0.0478534 0)
(0 0.0484868 0)
(0 0.0479902 0)
(0 0.0486151 0)
(0 0.0481043 0)
(0 0.0487083 0)
(0 0.0482009 0)
(0 0.0487774 0)
(0 0.0482879 0)
(0 0.0488406 0)
(0 0.0483496 0)
(0 0.0488823 0)
(0 0.0483843 0)
(0 0.048897 0)
(0 0.0483951 0)
(0 0.0488965 0)
(0 0.0483897 0)
(0 0.0489539 0)
(0 0.0484457 0)
(0 0.0482454 0)
(0 0.0492655 0)
(0 0.048876 0)
(0 0.0483694 0)
(0 0.0493667 0)
(0 0.0488745 0)
(0 0.048679 0)
(0 0.0493314 0)
(0 0.0498049 0)
(0 0.0492799 0)
(0 0.0490846 0)
(0 0.049755 0)
(0 0.0478629 0)
(0 0.0478442 0)
(0 0.0477874 0)
(0 0.0484673 0)
(0 0.0488717 0)
(0 0.0496596 0)
(0 0.0498404 0)
(0 0.0502096 0)
(0 0.0501455 0)
(0 0.0496891 0)
(0 0.0502602 0)
(0 0.0482304 0)
(0 0.0486377 0)
(0 0.0473162 0)
(0 0.0472944 0)
(0 0.0506455 0)
(0 0.0506982 0)
(0 0.0502002 0)
(0 0.0503626 0)
(0 0.0510598 0)
(0 0.0511071 0)
(0 0.0479675 0)
(0 0.0483809 0)
(0 0.049026 0)
(0 0.0487773 0)
(0 0.0481053 0)
(0 0.048502 0)
(0 0.0494113 0)
(0 0.0478069 0)
(0 0.048202 0)
(0 0.0500667 0)
(0 0.0496083 0)
(0 0.0474487 0)
(0 0.0507092 0)
(0 0.0508477 0)
(0 0.0474926 0)
(0 0.0478931 0)
(0 0.0485852 0)
(0 0.0482785 0)
(0 0.0489428 0)
(0 0.0486265 0)
(0 0.0492773 0)
(0 0.0489584 0)
(0 0.048289 0)
(0 0.0486283 0)
(0 0.0492888 0)
(0 0.048959 0)
(0 0.0482869 0)
(0 0.0486202 0)
(0 0.0492511 0)
(0 0.0489319 0)
(0 0.0482691 0)
(0 0.0486024 0)
(0 0.0492433 0)
(0 0.0489345 0)
(0 0.0482701 0)
(0 0.0485779 0)
(0 0.0493109 0)
(0 0.0488572 0)
(0 0.0231904 0)
(0 0.0209309 0)
(0 0.0267684 0)
(0 0.0253622 0)
(0 0.0565394 0)
(0 0.0565345 0)
(0 0.042405 0)
(0 0.0258613 0)
(0 0.0244323 0)
(0 0.0249366 0)
(0 0.0235132 0)
(0 0.0229635 0)
(0 0.0220439 0)
(0 0.0214302 0)
(0 0.0205147 0)
(0 0.0198308 0)
(0 0.018924 0)
(0 0.0196135 0)
(0 0.018033 0)
(0 0.0187264 0)
(0 0.0171503 0)
(0 0.0178571 0)
(0 0.0162896 0)
(0 0.0170073 0)
(0 0.0154513 0)
(0 0.0161752 0)
(0 0.0146316 0)
(0 0.0153579 0)
(0 0.0181823 0)
(0 0.0138344 0)
(0 0.01456 0)
(0 0.0130607 0)
(0 0.0137883 0)
(0 0.0123117 0)
(0 0.0130387 0)
(0 0.0155304 0)
(0 0.0115835 0)
(0 0.0123074 0)
(0 0.010875 0)
(0 0.0115955 0)
(0 0.0176706 0)
(0 0.0144569 0)
(0 0.0240494 0)
(0 0.0130553 0)
(0 0.0101865 0)
(0 0.0109019 0)
(0 0.0467509 0)
(0 0.0467262 0)
(0 0.048043 0)
(0 0.0484359 0)
(0 0.00266126 0)
(0 0.00292442 0)
(0 0.0247007 0)
(0 0.00253769 0)
(0 0.00279616 0)
(0 0.0491341 0)
(0 0.0487569 0)
(0 0.0480166 0)
(0 0.0483597 0)
(0 0.0490843 0)
(0 0.0317804 0)
(0 0.0322911 0)
(0 0.0311522 0)
(0 0.0238757 0)
(0 0.02484 0)
(0 0.027353 0)
(0 0.0257878 0)
(0 0.0282065 0)
(0 0.0267132 0)
(0 0.0241587 0)
(0 0.0251276 0)
(0 0.0276239 0)
(0 0.0260742 0)
(0 0.0285131 0)
(0 0.0269881 0)
(0 0.0244341 0)
(0 0.0253669 0)
(0 0.0278768 0)
(0 0.0262843 0)
(0 0.0550991 0)
(0 0.0549426 0)
(0 0.0358608 0)
(0 0.0124304 0)
(0 0.028739 0)
(0 0.0271781 0)
(0 0.0245916 0)
(0 0.0255161 0)
(0 0.0280514 0)
(0 0.0264281 0)
(0 0.0321187 0)
(0 0.0546881 0)
(0 0.0545852 0)
(0 0.0546742 0)
(0 0.0070005 0)
(0 0.0556181 0)
(0 0.012255 0)
(0 0.0115564 0)
(0 0.0102289 0)
(0 0.0108786 0)
(0 0.00957636 0)
(0 0.0102219 0)
(0 0.008945 0)
(0 0.00958733 0)
(0 0.0108163 0)
(0 0.0101707 0)
(0 0.00897465 0)
(0 0.00954808 0)
(0 0.0083935 0)
(0 0.00897616 0)
(0 0.0107121 0)
(0 0.00784109 0)
(0 0.00842404 0)
(0 0.0116902 0)
(0 0.0333021 0)
(0 0.0330196 0)
(0 0.0216097 0)
(0 0.047259 0)
(0 0.0466776 0)
(0 0.047198 0)
(0 0.0389611 0)
(0 0.0282369 0)
(0 0.0152518 0)
(0 0.0349592 0)
(0 0.044562 0)
(0 0.0407692 0)
(0 0.0411078 0)
(0 0.0404031 0)
(0 0.0407225 0)
(0 0.0466062 0)
(0 0.0471027 0)
(0 0.0550251 0)
(0 0.0548614 0)
(0 0.0549433 0)
(0 0.0514504 0)
(0 0.0514864 0)
(0 0.0513969 0)
(0 0.0471734 0)
(0 0.00730843 0)
(0 0.00787726 0)
(0 0.00891994 0)
(0 0.00838665 0)
(0 0.00734974 0)
(0 0.0078621 0)
(0 0.00684026 0)
(0 0.00735962 0)
(0 0.056554 0)
(0 0.0429728 0)
(0 0.00884564 0)
(0 0.00639527 0)
(0 0.00688745 0)
(0 0.0499731 0)
(0 0.0456391 0)
(0 0.0565857 0)
(0 0.00241025 0)
(0 0.00266425 0)
(0 0.0030473 0)
(0 0.00291014 0)
(0 0.00329048 0)
(0 0.00314736 0)
(0 0.00277001 0)
(0 0.00300118 0)
(0 0.00337559 0)
(0 0.00322262 0)
(0 0.00285237 0)
(0 0.00306678 0)
(0 0.00270131 0)
(0 0.00290883 0)
(0 0.00327071 0)
(0 0.00310518 0)
(0 0.00346347 0)
(0 0.00328948 0)
(0 0.00293805 0)
(0 0.00311378 0)
(0 0.003461 0)
(0 0.00327626 0)
(0 0.00293703 0)
(0 0.00309065 0)
(0 0.00342556 0)
(0 0.00323041 0)
(0 0.00356136 0)
(0 0.00335567 0)
(0 0.00368278 0)
(0 0.003466 0)
(0 0.00314895 0)
(0 0.00324835 0)
(0 0.00356114 0)
(0 0.00333204 0)
(0 0.00303049 0)
(0 0.00310291 0)
(0 0.00339975 0)
(0 0.00315918 0)
(0 0.00345129 0)
(0 0.0031987 0)
(0 0.00348577 0)
(0 0.00291991 0)
(0 0.00322069 0)
(0 0.00350252 0)
(0 0.00322476 0)
(0 0.00350104 0)
(0 0.00321044 0)
(0 0.00348095 0)
(0 0.00294842 0)
(0 0.00317712 0)
(0 0.00344211 0)
(0 0.00376209 0)
(0 0.00371787 0)
(0 0.00338336 0)
(0 0.00365277 0)
(0 0.00400322 0)
(0 0.0039323 0)
(0 0.00356712 0)
(0 0.00384255 0)
(0 0.00375178 0)
(0 0.00422404 0)
(0 0.0041308 0)
(0 0.00275978 0)
(0 0.00373222 0)
(0 0.00401602 0)
(0 0.00443089 0)
(0 0.00431183 0)
(0 0.00387936 0)
(0 0.00417085 0)
(0 0.00461957 0)
(0 0.00447434 0)
(0 0.00493943 0)
(0 0.00479012 0)
(0 0.00430531 0)
(0 0.00461624 0)
(0 0.00389796 0)
(0 0.005119 0)
(0 0.0049406 0)
(0 0.00441638 0)
(0 0.00473531 0)
(0 0.00527808 0)
(0 0.00506815 0)
(0 0.00450309 0)
(0 0.00483156 0)
(0 0.00541623 0)
(0 0.00517511 0)
(0 0.00577946 0)
(0 0.0055333 0)
(0 0.00490424 0)
(0 0.00525645 0)
(0 0.00590604 0)
(0 0.00562314 0)
(0 0.00494775 0)
(0 0.00530757 0)
(0 0.00600392 0)
(0 0.00567976 0)
(0 0.00639611 0)
(0 0.00605918 0)
(0 0.00532139 0)
(0 0.00568681 0)
(0 0.00642805 0)
(0 0.0270403 0)
(0 0.028796 0)
(0 0.0295236 0)
(0 0.030448 0)
(0 0.0311033 0)
(0 0.0467555 0)
(0 0.0563951 0)
(0 0.0516098 0)
(0 0.0565277 0)
(0 0.0565217 0)
(0 0.0205311 0)
(0 0.0400038 0)
(0 0.0403013 0)
(0 0.0264826 0)
(0 0.0551485 0)
(0 0.0549979 0)
(0 0.0550613 0)
(0 0.0136376 0)
(0 0.0511763 0)
(0 0.0513007 0)
(0 0.051059 0)
(0 0.0565899 0)
(0 0.0565896 0)
(0 0.018817 0)
(0 0.0495256 0)
(0 0.0372383 0)
(0 0.0364501 0)
(0 0.0461711 0)
(0 0.0461547 0)
(0 0.0509742 0)
(0 0.0514115 0)
(0 0.0510868 0)
(0 0.0515055 0)
(0 0.0511866 0)
(0 0.0515848 0)
(0 0.0297386 0)
(0 0.0512603 0)
(0 0.0516505 0)
(0 0.0513114 0)
(0 0.0517006 0)
(0 0.0560728 0)
(0 0.0560313 0)
(0 0.0560541 0)
(0 0.0544755 0)