/*--------------------------------*- C++ -*----------------------------------*\
| =========                 |                                                 |
| \\      /  F ield         | OpenFOAM: The Open Source CFD Toolbox           |
|  \\    /   O peration     | Version:  v2012                                 |
|   \\  /    A nd           | Website:  www.openfoam.com                      |
|    \\/     M anipulation  |                                                 |
\*---------------------------------------------------------------------------*/
FoamFile
{
    version     2.0;
    format      ascii;
    class       volVectorField;
    location    "450";
    object      U_0;
}
// * * * * * * * * * * * * * * * * * * * * * * * * * * * * * * * * * * * * * //

dimensions      [0 1 -1 0 0 0 0];


internalField   nonuniform List<vector> 
13917
(
(0.440143 0.0270426 -4.01316e-20)
(0.995302 0.0405362 1.47918e-21)
(1.07109 -0.0417216 1.22658e-20)
(1.03737 0.0126054 -3.92987e-21)
(1.01442 -0.0230008 -1.06863e-21)
(0.994221 0.0381618 -2.35763e-21)
(1.05604 0.0203176 -6.04259e-21)
(1.01123 0.0683646 0)
(1.05827 0.0122754 0)
(-0.0115901 -0.0151765 8.66634e-21)
(1.00882 0.0653037 -5.40496e-21)
(1.02716 0.0121957 0)
(1.00963 0.000116336 2.0172e-21)
(0.946889 -0.0284558 -5.49473e-21)
(0.999199 0.0205883 0)
(0.420617 0.0244953 3.37961e-20)
(1.00277 -1.98554e-05 3.27367e-24)
(1.01108 0.0572727 2.81713e-21)
(1.09477 -0.0129714 9.6778e-21)
(0.414218 0.0834309 -4.12213e-20)
(1.02214 0.0460619 0)
(1.01327 0.00411416 0)
(1.07514 0.0183751 7.29449e-21)
(1.01347 0.00373345 0)
(1.03705 0.0218885 3.86028e-21)
(1.01822 0.0463009 1.31599e-21)
(0.791353 0.169225 -7.2251e-21)
(-0.0155429 -0.014269 0)
(1.01193 0.0479042 3.1637e-21)
(1.00683 2.2655e-05 0)
(0.000632771 -0.03276 -3.54947e-20)
(1.06956 0.00280281 -6.17948e-21)
(1.03343 0.0158707 -2.80551e-21)
(0.506022 0.0203971 -1.38125e-20)
(1.01115 0.00534217 0)
(1.00809 0.0772061 0)
(1.02112 0.0274125 2.74355e-23)
(1.00312 0.000117944 -1.40142e-22)
(1.05672 0.0198939 1.33475e-20)
(1.03903 0.0567453 6.40472e-22)
(1.00122 -6.03818e-05 0)
(1.02581 -0.0046662 9.83865e-23)
(1.05438 0.0102216 -5.55047e-21)
(1.07982 -0.0151028 -1.99653e-22)
(1.08156 -0.0138954 -1.57556e-22)
(0.918422 0.047843 6.33093e-22)
(1.02317 0.0446711 -1.10994e-21)
(0.150123 0.0638426 -1.08253e-20)
(0.875627 0.0688786 5.86254e-21)
(1.01154 0.00549067 0)
(1.0266 0.0118616 -1.59581e-21)
(1.13047 0.0341186 -1.37845e-20)
(0.402235 0.0215071 0)
(1.01839 0.0128839 0)
(1.01982 0.0139214 -2.89588e-23)
(1.12914 0.0303075 2.77754e-20)
(0.00343988 0.0256541 3.94883e-20)
(1.07518 0.0193687 -1.62894e-20)
(1.02491 -0.00327696 0)
(0.906963 0.049014 1.30734e-20)
(0.115224 0.126549 3.32664e-20)
(1.00521 0.0187178 0)
(1.00361 -2.47028e-05 8.67942e-24)
(1.03664 0.0211531 1.60322e-21)
(0.683853 0.0135414 0)
(0.98742 0.0176735 3.38005e-23)
(1.0115 0.0494673 1.67887e-21)
(1.00199 0.0783647 -2.61499e-21)
(1.01338 0.0598693 5.97783e-21)
(0.436244 0.0213908 -1.33335e-20)
(0.781694 4.67389e-05 0)
(0.490614 0.0210637 3.59211e-21)
(1.03319 0.00512887 2.51237e-21)
(1.02299 -0.00303024 1.07884e-22)
(1.02269 0.0475916 0)
(1.03286 0.0259085 -3.39322e-21)
(1.01225 -0.00736787 0)
(1.02216 -0.00205941 0)
(1.03269 0.0250613 9.77515e-22)
(1.03389 0.0163409 3.88014e-21)
(1.013 0.0136498 2.57496e-22)
(1.00281 7.08425e-06 0)
(1.03272 0.00473167 0)
(0.819754 -0.0096506 1.06784e-20)
(1.01436 0.00222059 0)
(1.02911 0.023978 6.42855e-21)
(1.0697 0.00383525 1.70628e-20)
(1.01394 0.00113717 0)
(1.03714 0.0552974 -5.20841e-22)
(1.00348 -9.39574e-06 -5.63627e-23)
(1.00566 -1.60299e-06 3.41587e-22)
(1.05524 0.0103322 0)
(0.865997 0.049841 -9.87531e-21)
(1.00963 0.00268745 0)
(1.01799 0.0174372 0)
(1.01224 0.0483723 -3.51977e-21)
(0.903167 0.131057 4.17336e-21)
(1.00343 7.44513e-05 2.29185e-22)
(1.01436 0.00125989 -1.31625e-23)
(0.984097 0.117674 0)
(1.00249 4.05535e-06 5.10619e-23)
(1.003 -2.68426e-05 -6.56652e-23)
(1.01311 0.0143993 0)
(1.00611 0.000307812 0)
(1.01369 -0.00738162 1.40908e-21)
(0.904849 -0.014703 -5.769e-21)
(0.424616 0.0560387 -5.0376e-21)
(1.00307 0.0185245 7.62221e-22)
(1.02813 -0.00512736 0)
(0.712955 0.155568 0)
(1.01924 0.000188247 2.25542e-21)
(0.513971 0.0213006 3.01349e-20)
(1.01266 0.0475441 1.51056e-22)
(0.09379 0.0645447 5.41131e-20)
(0.69711 0.0108014 0)
(1.03118 0.0281567 1.53206e-21)
(1.09304 -0.0108834 -8.19351e-21)
(1.00494 5.64959e-05 -9.02019e-23)
(1.08633 -0.0355086 -1.62289e-20)
(1.03133 0.00214766 -4.83544e-21)
(1.00355 2.34578e-05 -2.32961e-22)
(1.01859 -0.0023529 -2.5352e-22)
(1.01243 0.0501803 -1.77008e-21)
(1.10589 0.00902675 -7.43464e-21)
(0.453395 0.0188057 -6.09699e-21)
(0.788531 -0.00535309 -3.25238e-21)
(1.03684 0.0198134 3.98314e-21)
(1.02161 0.0488738 1.07002e-21)
(1.01393 0.00280952 4.59234e-22)
(1.10541 0.00686441 9.04032e-21)
(1.06386 0.0155473 7.11023e-21)
(1.03626 0.115374 -4.12081e-21)
(0.668028 0.0103254 0)
(1.03023 0.0282842 1.69701e-22)
(1.07141 -0.00271352 7.11183e-21)
(0.690976 0.154832 1.20607e-21)
(0.0663629 0.110739 0)
(0.461542 0.0215996 6.25657e-23)
(1.01615 0.046773 1.94869e-21)
(1.00166 6.04709e-05 0)
(0.771289 0.121762 0)
(1.02061 -0.00197958 0)
(0.924286 -0.0185936 6.23977e-21)
(1.0128 0.0047398 -1.27823e-23)
(1.03096 0.00509676 -5.85601e-22)
(1.0422 -0.00143352 -4.81391e-22)
(0.789764 -0.000384639 9.86036e-21)
(0.842823 -0.0158663 -3.81984e-22)
(0.190293 0.0666664 0)
(1.01875 0.0134359 0)
(1.03638 0.0513198 9.93048e-22)
(1.00334 -2.73503e-05 -1.73293e-23)
(1.03051 0.00462531 -1.15273e-21)
(1.0316 0.00185795 -2.8892e-21)
(0.855792 0.131254 2.15881e-20)
(1.01838 -0.00176087 -4.61202e-22)
(1.00642 0.000319202 0)
(0.65136 0.0136765 0)
(1.00271 -1.29253e-06 -1.23221e-22)
(1.0043 -2.91607e-05 -8.34364e-23)
(1.01358 0.00452996 -4.08888e-22)
(0.567141 0.0299619 8.92054e-23)
(1.014 0.0306015 0)
(0.758956 0.125582 0)
(0.36871 0.0620538 0)
(0.972557 0.13791 1.00273e-21)
(0.268929 0.0235776 0)
(0.159835 0.0888631 4.12552e-21)
(1.00688 -0.000181932 0)
(1.01527 0.0474523 7.21437e-22)
(1.01373 0.00269269 -6.61189e-22)
(0.654792 0.00829216 -7.52804e-21)
(1.0583 0.0118487 3.76247e-21)
(0.242563 0.0986598 3.95729e-20)
(1.09785 0.0539362 0)
(1.00312 6.76164e-06 -5.24739e-23)
(1.03789 0.012182 0)
(1.13635 0.037463 3.66767e-22)
(1.06342 0.0155517 -2.28736e-20)
(1.01333 0.031612 0)
(1.05337 0.0108196 -9.47937e-21)
(1.01382 0.00286897 0)
(1.02611 0.0121666 -8.78963e-22)
(1.01743 0.0166143 0)
(1.08697 -0.0363044 2.01483e-20)
(1.01939 0.120884 6.80823e-21)
(1.02559 0.011871 0)
(1.00581 0.0193488 0)
(1.00695 0.000654842 2.99707e-24)
(1.0257 0.032074 4.79299e-21)
(1.09716 0.0574827 -3.00319e-21)
(1.08083 -0.0110563 -7.85539e-21)
(1.12827 0.00677639 1.06198e-20)
(0.442369 0.0334723 -1.30744e-20)
(1.00979 0.00300543 -6.67967e-22)
(0.454076 0.0196097 -6.78051e-21)
(1.04465 0.0296346 2.67785e-21)
(0.694806 0.00827515 5.38121e-21)
(1.01086 0.00485113 0)
(1.01759 -0.000902515 1.04576e-21)
(1.02492 0.0419078 -1.98372e-22)
(0.433247 0.0217463 6.54657e-21)
(0.446852 0.0224727 -3.07843e-22)
(1.01745 0.0244085 0)
(0.784892 0.152527 -5.39972e-22)
(1.00993 0.0423725 0)
(1.0379 0.0525649 -9.09602e-22)
(1.01994 -0.00272435 0)
(1.13722 0.033641 -1.56107e-20)
(1.01245 0.0130366 -8.09628e-22)
(1.01087 0.00188313 -8.2934e-23)
(1.01689 -0.0396978 2.94843e-21)
(1.01314 -0.0429485 0)
(0.197568 0.0630742 0)
(1.07066 -0.0015475 3.54593e-21)
(1.01738 0.0472535 -1.41701e-21)
(0.569764 0.0302365 1.17014e-20)
(1.00862 0.00057857 6.48529e-22)
(1.00976 0.000825242 2.56621e-23)
(1.00964 0.000860799 -2.42938e-22)
(0.129435 0.0839225 -3.2826e-20)
(1.09609 0.0104868 2.67127e-20)
(0.930569 0.0262366 0)
(1.01933 0.00123358 6.21315e-22)
(1.0028 -5.38237e-05 -1.6706e-23)
(0.614049 0.141241 7.83695e-21)
(0.439874 0.0211662 0)
(1.00897 0.000466763 -1.26083e-22)
(1.00867 0.000404888 -2.23883e-22)
(1.00111 -9.34069e-05 0)
(1.00992 0.00108668 2.12212e-22)
(1.00978 0.0011136 -4.13639e-22)
(0.480264 0.0217438 7.77281e-21)
(0.287122 0.0561886 2.12987e-20)
(1.01239 0.00828835 -2.76149e-22)
(1.00752 -0.000306064 9.66517e-25)
(1.10312 0.0323164 -9.5013e-21)
(0.48133 0.0193886 1.08965e-20)
(1.00304 9.61798e-06 0)
(1.0191 0.00119261 -1.5034e-22)
(0.760056 0.155494 -2.06175e-23)
(0.929335 -0.016946 -2.68913e-21)
(1.05847 0.0110638 7.24933e-21)
(0.564098 0.031738 -3.32188e-20)
(1.11823 0.0629991 1.84279e-20)
(1.01289 0.00494906 -3.59357e-23)
(0.237414 0.0800213 2.52039e-20)
(1.10488 0.0297144 1.32633e-20)
(1.01293 0.0471953 -1.80365e-21)
(1.08617 0.00347995 6.3668e-21)
(1.01801 0.023651 -1.11416e-22)
(0.271073 0.0585522 -1.36175e-20)
(1.03173 0.00288987 -6.71131e-23)
(1.06199 0.0526765 2.78465e-21)
(1.09215 0.0512597 -5.35401e-21)
(1.01198 0.0075202 6.74003e-22)
(1.00052 -1.68425e-05 -3.13539e-23)
(1.03726 0.020527 2.07903e-21)
(1.02949 -0.0166748 1.16925e-21)
(1.00828 0.0021984 1.11934e-21)
(0.482464 0.0184464 -6.54651e-21)
(0.863421 0.238032 0)
(1.01561 -0.00375656 -6.78239e-24)
(1.00851 0.000303905 -5.89629e-23)
(1.01824 -0.00234954 -4.74832e-23)
(1.00859 0.000283671 6.07271e-23)
(1.03193 0.00260691 2.50833e-21)
(1.0146 0.000230359 -1.99644e-21)
(1.06841 0.0310386 0)
(1.01648 -0.0045334 -1.91118e-22)
(0.479004 0.0213871 8.68967e-23)
(0.438113 0.051283 0)
(1.02208 0.00968755 -2.39522e-21)
(1.02251 -0.0117057 6.71162e-22)
(0.821528 0.0498295 0)
(1.00835 0.000346463 2.23754e-22)
(0.998723 0.104016 6.19214e-22)
(0.499783 0.0177142 6.14074e-21)
(1.00836 0.000482547 0)
(0.455815 0.0199457 0)
(1.00852 0.00165718 -7.11005e-22)
(0.574832 0.0298904 -1.11503e-20)
(1.00255 -3.09466e-06 0)
(1.00183 0.0173595 6.00999e-22)
(1.01163 0.00746662 0)
(1.01261 0.00378241 0)
(1.1157 -0.0162762 2.15745e-20)
(1.00515 0.000197483 0)
(0.965175 0.150895 -1.07659e-20)
(1.04436 0.0373087 0)
(0.822039 0.237752 -1.68373e-21)
(1.04555 -0.00359803 4.02999e-22)
(0.896211 0.165858 5.1755e-22)
(0.460003 0.0216615 -1.57466e-21)
(1.00428 1.15051e-05 0)
(1.08289 0.024555 3.64002e-21)
(1.02412 -0.019785 -1.07311e-21)
(1.02919 0.0297566 -1.04451e-21)
(1.01754 -0.0213513 0)
(1.03369 0.024504 0)
(1.00929 0.00232452 3.05805e-22)
(1.00623 0.000250883 0)
(1.13709 0.0461207 -2.57814e-20)
(1.0295 0.0253213 4.60834e-23)
(1.06039 0.0515074 5.34806e-23)
(1.03348 0.0237367 0)
(1.01879 0.00125002 2.88076e-21)
(0.665799 0.0123036 2.6179e-21)
(0.416483 0.0229503 2.15948e-21)
(1.0129 0.00296843 0)
(1.0583 -0.00395087 -4.26914e-22)
(1.03015 0.0296502 -1.41594e-21)
(0.922369 -0.114593 0)
(1.05794 -0.0172408 -1.64648e-20)
(0.46579 0.050918 -1.88229e-20)
(0.305781 0.0862703 -3.00709e-20)
(0.982902 0.0119172 0)
(1.09333 0.117174 9.18731e-21)
(1.02349 -0.0100664 0)
(0.837331 -0.0115929 -9.10429e-21)
(0.884769 -0.112259 0)
(1.0748 -0.0417543 7.4185e-21)
(1.01418 0.000246871 -1.21652e-21)
(0.999638 0.0190296 -7.41685e-22)
(0.816138 0.170583 2.31345e-22)
(1.01477 0.000676011 0)
(0.994109 0.0425664 1.56803e-21)
(1.08237 -0.00973325 4.04588e-21)
(1.0027 -3.41323e-05 9.17406e-23)
(0.659175 0.00695457 4.96846e-21)
(1.01429 0.00173116 -6.47019e-22)
(1.06336 0.0142503 0)
(1.01101 -0.00445586 1.37328e-22)
(0.390622 0.0812225 0)
(1.00906 0.00103109 4.54235e-23)
(1.05992 0.0477666 0)
(1.01069 0.0434153 -1.28956e-21)
(0.982411 0.00761731 5.30705e-23)
(1.00383 2.33542e-05 0)
(1.08314 0.00161589 -7.06868e-21)
(0.917403 -0.0208678 5.66636e-22)
(1.01897 0.0169334 8.1068e-22)
(1.01536 0.000211566 -8.53155e-22)
(0.532335 0.0202555 0)
(0.923159 -0.0191466 5.52365e-22)
(0.565086 0.0446685 0)
(1.0005 0.0301624 0)
(1.00829 0.000486161 2.5589e-23)
(1.01306 0.0100771 -1.78551e-22)
(0.932679 -0.0152867 1.88758e-21)
(1.09577 0.109736 5.96495e-22)
(1.00834 0.00060863 -4.1098e-22)
(1.02194 -0.0227262 0)
(1.02252 0.0129245 1.60469e-21)
(1.01252 0.0579017 3.01491e-21)
(1.06124 0.048894 -3.11197e-21)
(1.12055 0.0115167 -6.53589e-21)
(1.10308 0.0897384 -5.13359e-21)
(0.995751 0.0979255 0)
(1.06442 0.0134714 -2.56084e-21)
(0.480305 0.0309108 1.40817e-20)
(1.01436 0.00285768 -3.70246e-22)
(1.01959 0.0170746 7.33163e-22)
(1.01338 -0.0258626 -1.70196e-21)
(1.09614 -0.026894 -7.26873e-21)
(1.0025 -2.74536e-05 5.24839e-23)
(0.430182 0.0285082 4.60578e-20)
(1.06421 0.0137863 5.60537e-22)
(0.940683 -0.0533464 -3.35981e-21)
(1.01971 0.0143864 3.74138e-23)
(1.12804 0.10352 -5.53942e-21)
(1.05571 -0.0107165 0)
(0.878834 0.0153038 0)
(1.02674 0.000666072 -1.50366e-23)
(0.947472 0.0235866 0)
(0.839323 0.049571 -7.36238e-21)
(1.01028 0.0446948 0)
(1.02222 0.0101354 8.85746e-22)
(0.84153 0.000926131 -2.81418e-21)
(1.01279 -0.00726303 -3.163e-22)
(0.336532 0.0701613 -2.61259e-20)
(1.11755 0.00623859 1.40811e-20)
(1.02691 0.00207617 6.09331e-23)
(0.885719 0.0333759 5.60852e-21)
(1.0106 0.00600365 1.08683e-21)
(0.950171 -0.11336 0)
(1.00918 0.00100382 0)
(0.415098 0.081601 6.1944e-20)
(0.942412 -0.118833 0)
(1.02425 0.0258234 -1.21774e-21)
(0.558231 0.126499 -9.72532e-21)
(1.00175 0.0852545 -4.93685e-22)
(1.01797 0.0219562 -2.78366e-23)
(0.482688 0.0475655 -1.88365e-20)
(1.03089 -0.0170389 -2.51809e-21)
(1.02558 0.0239543 0)
(1.11559 -0.0149523 -1.28496e-20)
(1.01408 0.0109065 -9.46597e-23)
(0.995492 0.0810615 0)
(1.08011 -0.0408813 -1.35047e-20)
(1.01445 0.00151508 -6.52318e-22)
(1.05681 0.016424 0)
(1.03433 0.0232527 0)
(1.01249 0.0040714 -1.2035e-23)
(1.01021 0.00189794 0)
(1.01489 0.00270406 4.70033e-22)
(-0.00584548 0.119404 0)
(0.988686 0.145641 0)
(1.01969 0.0157476 1.00385e-21)
(1.01539 0.00314289 0)
(1.01348 0.00405324 0)
(1.08229 0.033172 -1.4499e-21)
(0.972567 0.0819414 3.38222e-21)
(1.00905 -0.00132457 0)
(1.00679 -0.000156404 -2.12225e-24)
(1.05978 -0.0165276 1.03325e-20)
(1.12162 0.106929 1.05398e-20)
(1.01276 0.00397451 1.053e-22)
(1.02442 0.0251679 -1.79677e-23)
(0.456243 0.0607305 -1.39001e-20)
(0.714064 0.058974 -2.68669e-20)
(0.984732 0.0202457 -8.24243e-23)
(1.09372 -0.015738 -5.04056e-21)
(0.87525 -0.0165429 9.75555e-21)
(1.01221 0.0041603 1.53882e-22)
(1.00876 -0.000695116 -2.24302e-22)
(1.02033 0.0417018 1.16395e-22)
(1.0101 0.0018101 -1.38609e-22)
(1.00884 -0.00105509 4.6915e-22)
(1.01209 0.00828487 -1.25098e-21)
(1.00862 -0.000473857 -1.33912e-23)
(1.01164 0.00377896 -1.5715e-22)
(0.24078 0.0694945 -3.50517e-20)
(1.01418 0.0114923 -5.44668e-23)
(1.04376 0.0593868 -8.10288e-22)
(0.489542 0.0213502 -8.93276e-22)
(1.08244 0.0262658 0)
(1.01115 0.00195419 4.89293e-22)
(1.02982 0.00464924 2.15701e-21)
(0.503782 0.041792 -1.74116e-22)
(1.0234 0.0419362 7.37643e-22)
(0.438396 0.018767 7.25147e-21)
(1.01012 -0.00319786 0)
(1.02029 0.00360281 0)
(1.01206 -0.00795381 3.29716e-22)
(1.00998 0.00137974 4.24269e-22)
(1.02065 0.0264482 -6.26432e-25)
(1.01033 0.00448799 1.597e-21)
(0.473689 0.0581921 0)
(1.03451 0.0174058 -3.39459e-22)
(0.906668 -0.0135947 2.52174e-21)
(1.02003 0.00366912 0)
(1.06634 0.0173644 -6.51868e-21)
(1.04122 0.0163826 0)
(1.01253 0.0122661 6.89094e-22)
(1.11728 0.057924 -9.82162e-21)
(0.552535 0.0466893 2.90503e-20)
(1.02255 0.0124527 -5.94778e-22)
(0.560829 0.0834351 -1.40207e-20)
(1.01153 0.00199117 -3.2706e-22)
(1.0093 0.000694731 0)
(1.01358 0.00388022 3.91257e-22)
(1.01048 0.00684079 1.12478e-21)
(1.01032 0.00173941 -4.4315e-22)
(1.01188 0.00086003 -2.17598e-22)
(0.654725 0.0121996 -3.18399e-21)
(0.193762 0.112057 0)
(1.01007 0.00166167 2.91453e-22)
(0.860728 0.152007 0)
(1.0636 -0.0173574 -2.24544e-21)
(1.01824 0.000441161 -2.99551e-21)
(1.08688 0.0261681 7.28894e-21)
(1.05578 0.00693925 0)
(0.45396 0.0441443 0)
(1.05868 0.0162336 8.81595e-21)
(0.900157 -0.0161412 -2.20473e-21)
(0.893212 -0.0904047 0)
(0.894567 -0.0843081 3.0008e-23)
(1.0101 0.00539399 1.02854e-21)
(0.987003 0.0139558 0)
(1.04731 0.0181554 0)
(1.01749 0.0227169 1.01657e-22)
(0.709494 0.0309751 -9.96376e-22)
(1.00546 -7.21118e-06 0)
(1.01857 0.0123754 8.56508e-22)
(1.01867 0.0176193 -2.95889e-22)
(1.05721 0.0144823 -6.2849e-21)
(1.02727 0.0469728 -4.63572e-22)
(1.09216 -0.031373 -7.28689e-21)
(1.07655 0.0120587 0)
(1.03739 -0.0144905 -1.16069e-22)
(1.02379 -0.0140938 -2.75773e-21)
(1.01328 0.0536928 -3.2072e-21)
(1.05081 0.0750959 1.09849e-21)
(1.01929 0.015463 0)
(0.882685 -0.0574218 -2.29931e-20)
(1.06877 0.0258795 1.1475e-20)
(1.04541 0.0365148 2.48985e-21)
(0.329499 0.0787466 0)
(1.01448 0.00197853 7.45638e-22)
(1.05139 0.0784151 0)
(1.12079 0.0378068 0)
(1.00909 0.00100874 0)
(0.598102 0.0184673 -1.45169e-21)
(1.00931 0.000713969 0)
(1.00981 0.00137469 0)
(1.08382 0.0314933 5.32814e-21)
(1.00964 -0.00280322 0)
(1.00891 0.000604563 2.20281e-23)
(1.13838 0.0506404 1.09303e-20)
(0.65185 0.0188017 1.83842e-21)
(0.47434 0.109322 -1.1512e-20)
(1.01361 0.00429984 -9.48433e-22)
(1.0422 0.0107544 3.69211e-21)
(1.0263 -0.0187066 6.64401e-22)
(0.726393 0.0345872 -1.35015e-20)
(0.667274 0.0462396 -1.13795e-20)
(1.01879 0.0144604 0)
(1.01936 0.0134562 0)
(1.01329 0.00385015 -1.05476e-21)
(1.08837 0.0467238 0)
(1.01386 0.103446 -6.3601e-21)
(1.01417 0.00347484 -8.83707e-22)
(1.00314 -2.05294e-05 3.45433e-23)
(1.01768 -0.000483769 -1.06273e-21)
(1.01236 0.00404192 2.74665e-23)
(1.0245 0.0146656 8.78663e-23)
(1.05406 0.0306591 0)
(1.00496 1.96352e-05 -1.13383e-22)
(1.0778 0.0124383 7.42732e-21)
(1.00902 0.00095532 0)
(1.01322 0.0048565 -4.02374e-22)
(1.03419 0.0225276 -8.44096e-22)
(0.4851 0.0486143 0)
(1.00654 8.68577e-05 -3.02589e-22)
(1.04966 0.0142519 1.0093e-20)
(1.00851 0.00288241 7.3131e-22)
(1.06564 0.0175209 1.13095e-20)
(1.09394 0.0211937 -9.09813e-21)
(1.01008 0.04994 1.57572e-21)
(1.09555 0.0516345 0)
(0.989759 0.132575 0)
(1.0315 0.0218412 1.62661e-21)
(1.0113 0.0523721 0)
(0.709549 0.00642551 -7.09772e-21)
(0.275745 0.06182 0)
(0.506294 0.0214442 8.11576e-22)
(1.01185 0.00295808 2.21368e-22)
(1.01384 0.00333277 3.79364e-22)
(1.04027 -0.0165222 2.5538e-22)
(1.02213 0.00677947 0)
(0.696853 0.00977892 -2.14616e-22)
(1.0084 0.000275037 -2.42215e-22)
(0.768705 -0.21464 0)
(1.0454 0.0288922 5.69932e-21)
(0.736915 -0.000366225 -1.62955e-20)
(0.992982 0.111402 -5.54812e-21)
(1.05414 0.0108443 1.85278e-20)
(0.0752269 0.105565 -2.66337e-20)
(1.01001 0.00170596 0)
(1.06034 0.00771843 -5.87022e-23)
(1.0043 0.000108346 0)
(1.00518 -0.00425208 4.96391e-22)
(0.712961 0.00135373 1.16171e-20)
(1.0095 -0.00215218 0)
(1.0599 -0.0363948 1.38614e-20)
(1.00257 -3.66093e-05 -1.49659e-23)
(1.017 0.0002307 2.58641e-21)
(1.01381 0.00343816 -2.06259e-22)
(1.08973 -0.0297028 1.33966e-20)
(1.02379 0.0155211 1.05066e-22)
(1.00783 7.6973e-05 0)
(1.07569 -0.015357 -8.88719e-21)
(1.08591 0.0280667 -5.53151e-21)
(0.77627 0.0850967 -3.78293e-21)
(0.823966 -0.00674519 -2.16679e-20)
(0.685996 0.0121198 -1.88561e-21)
(0.429288 0.0487026 1.5428e-20)
(1.0065 0.000106201 3.14626e-22)
(0.442236 0.0187766 0)
(1.00481 -3.19182e-05 3.30451e-23)
(0.111374 0.112699 -3.93265e-21)
(0.860316 0.00254769 0)
(1.00377 -0.0051979 -1.66312e-21)
(1.05359 -0.0242172 -2.67717e-22)
(1.00285 1.58354e-05 -4.35086e-23)
(1.0679 0.0260793 6.65139e-23)
(1.05284 0.0101756 -5.68852e-21)
(1.00917 -0.00182334 0)
(1.00425 0.000125135 -4.37535e-22)
(1.01303 0.000346163 0)
(0.855516 -0.00965041 9.89067e-21)
(1.01464 0.00517671 3.75794e-22)
(1.06824 0.00559807 -1.30886e-20)
(1.01818 0.0119365 -1.66223e-21)
(1.00766 7.19467e-05 0)
(1.00332 1.45965e-05 2.45119e-22)
(0.971291 0.0448783 -1.8754e-20)
(0.658404 0.0257613 2.70291e-20)
(0.20429 0.126472 1.44811e-21)
(1.08486 0.00512743 0)
(1.05436 0.02962 -4.75451e-21)
(0.856363 0.00756362 4.50419e-21)
(0.489373 0.0185731 -1.14542e-20)
(1.00932 0.000946056 -6.99809e-22)
(0.64133 0.0368375 0)
(1.01255 0.000143227 0)
(1.05003 -0.00062849 1.18957e-20)
(1.02185 0.00699543 0)
(0.862149 -0.00259467 1.09919e-20)
(1.01218 0.00381595 5.71172e-23)
(1.02611 0.0146857 -9.2841e-23)
(1.03162 0.00514216 2.83459e-21)
(0.790304 0.0983428 4.979e-21)
(1.06911 0.0286669 -9.07405e-21)
(0.647497 0.0188388 7.30229e-21)
(1.0049 1.06667e-05 0)
(1.06708 0.0302636 -1.32489e-20)
(1.01349 0.00522829 2.99244e-22)
(1.00202 -4.62845e-05 0)
(0.487758 0.0332756 0)
(0.953857 0.109495 0)
(1.01333 0.00627061 3.60659e-22)
(1.12421 0.00979943 -2.38798e-21)
(1.01899 0.00132729 -1.39033e-21)
(1.00839 -0.00684281 1.4187e-23)
(1.00258 -3.06623e-05 0)
(0.503684 0.031649 -2.71257e-20)
(1.01484 0.00511776 0)
(1.02832 -0.0197123 -3.2629e-22)
(1.00841 0.00010606 0)
(1.01318 0.00579228 0)
(1.10103 -0.0253889 1.66134e-20)
(1.00305 -2.1674e-05 1.82828e-23)
(1.11526 0.00381364 -5.11006e-21)
(1.00276 1.536e-05 1.96963e-22)
(1.00911 0.00105757 4.99471e-23)
(0.0722042 0.128217 -4.02537e-20)
(1.06825 0.00467504 1.7423e-21)
(1.01849 0.0138937 0)
(0.403928 0.0232545 0)
(1.05867 -0.0348523 -1.04339e-20)
(0.964016 0.0596123 1.23719e-22)
(1.10878 0.0424891 0)
(1.00978 0.00163075 0)
(0.997447 0.0209257 0)
(0.469319 0.05393 0)
(1.04147 -0.0279267 -7.18537e-21)
(1.02117 0.0405134 -4.81625e-22)
(1.02206 0.0274505 -3.34206e-23)
(1.02732 0.0154576 1.70648e-22)
(1.0034 3.71289e-05 1.47713e-22)
(1.01464 0.00219981 0)
(0.979758 0.0143948 0)
(1.09858 0.0224538 0)
(1.03949 0.0290669 1.6448e-21)
(0.261217 0.0904621 3.34015e-22)
(1.07012 0.0279287 1.02375e-20)
(0.951908 0.0835144 -3.90692e-21)
(0.630823 0.0435996 2.49674e-20)
(1.0319 0.026194 -1.76313e-22)
(1.06195 0.0420051 0)
(1.12876 0.00375751 -1.15943e-20)
(0.464952 0.0201664 0)
(1.00943 0.00275722 0)
(1.041 0.0176148 -8.22547e-23)
(0.975716 0.0137465 0)
(1.00914 0.00107674 1.94149e-23)
(1.00483 8.01589e-05 0)
(1.00334 2.69008e-06 -5.76651e-23)
(1.02851 -0.0219829 -6.99054e-22)
(1.00996 0.000696793 -9.63701e-24)
(0.446022 0.0184763 -6.43365e-21)
(1.06389 0.0147711 -1.0686e-20)
(1.00731 0.000355539 9.26089e-23)
(1.08159 -0.00738815 4.00791e-21)
(1.00517 1.20396e-05 -1.50458e-22)
(0.483071 0.0474196 6.30609e-23)
(1.00846 0.000931399 0)
(1.01386 0.00299181 7.11669e-22)
(0.628386 0.0194708 0)
(1.09021 0.0202338 0)
(0.977751 0.0683544 0)
(1.03359 0.00700247 -3.50739e-21)
(1.02689 -0.00984162 0)
(1.01287 0.00354899 2.48263e-22)
(1.03903 0.00914535 0)
(1.05922 0.0215265 1.2429e-20)
(1.0127 0.00311799 3.61854e-22)
(0.451008 0.0210953 -4.621e-21)
(1.04634 0.0411586 1.02099e-23)
(0.999554 -0.0109312 1.68834e-21)
(0.99054 0.0770626 0)
(1.03919 0.0184613 8.42552e-23)
(0.690305 0.0129466 0)
(1.04201 0.0112521 0)
(1.00527 0.000192981 -2.60447e-22)
(1.01364 0.00562407 -6.59744e-22)
(0.509123 0.0172227 1.88135e-21)
(0.495914 0.110482 0)
(1.04503 0.0307082 0)
(0.450506 0.0190717 0)
(0.788282 -0.209739 0)
(1.00922 0.00110758 5.43502e-23)
(1.01331 0.00307231 0)
(1.01947 0.0263972 7.65989e-23)
(0.899884 -0.0172107 -6.00837e-22)
(1.03096 0.0420268 1.1121e-21)
(1.06953 0.0303012 1.23063e-21)
(1.03834 0.00909518 -1.35345e-21)
(1.04952 0.0147521 -1.07873e-20)
(1.04834 -0.000565332 -1.59575e-20)
(1.02204 -0.0082997 -5.9346e-22)
(1.1175 0.00909494 9.11658e-21)
(1.06403 0.0146832 8.17623e-21)
(1.01764 0.0166618 6.45137e-23)
(1.03367 0.0167229 -4.56824e-21)
(1.00515 0.00018294 -1.31991e-22)
(1.05859 0.0217668 -7.74387e-21)
(1.02703 -0.0139567 6.66587e-22)
(1.03102 -0.0186637 -3.00226e-21)
(1.02786 0.0310736 -4.3582e-22)
(1.00819 -0.0203621 1.32617e-23)
(0.448535 0.0205368 4.1931e-21)
(1.0019 0.00544164 -5.79556e-24)
(0.785943 -0.21704 0)
(1.02255 0.0264011 0)
(1.00041 0.0358595 2.25517e-21)
(1.04816 0.0263547 0)
(1.04274 -0.0276245 0)
(1.00361 1.20036e-05 0)
(1.0604 0.00946418 -1.83719e-22)
(0.6832 0.021576 -1.69484e-20)
(0.974654 0.0620632 -1.21362e-23)
(1.02299 0.00670625 -1.1566e-21)
(1.02893 0.0309503 2.68066e-21)
(1.00812 0.000361169 0)
(1.02015 0.00529202 0)
(1.03143 0.00419334 0)
(0.991276 -0.00281043 0)
(1.03808 0.018661 -4.46648e-22)
(1.01235 0.0499271 2.31728e-20)
(1.11784 0.00552214 -9.81601e-21)
(1.00948 0.00158883 1.51095e-22)
(1.03114 -0.0225674 2.82374e-21)
(1.0578 0.0124481 0)
(1.05724 0.0147986 0)
(1.12474 0.00582132 0)
(1.01272 0.0101925 -2.32034e-22)
(1.06099 0.00727252 -6.60961e-21)
(0.926315 0.15052 -1.36986e-20)
(1.00701 -1.35405e-05 -2.34741e-22)
(1.089 0.0187641 1.00648e-20)
(1.10499 0.0661551 0)
(1.06402 0.0147836 9.56881e-23)
(1.01279 0.00211025 -1.2809e-22)
(1.01063 0.00176608 -4.47322e-22)
(1.01461 0.00227071 -3.33282e-22)
(0.421854 0.0224451 7.22184e-21)
(1.03255 0.0156645 1.23585e-22)
(1.00799 -0.000231248 0)
(1.0637 0.0141429 0)
(1.01286 0.00326121 -4.10557e-22)
(1.01173 0.00219207 4.44676e-22)
(1.12601 0.030203 -1.81954e-20)
(0.94834 0.13992 1.06443e-20)
(0.98524 -0.0113421 2.1565e-21)
(0.669453 0.0782734 2.77041e-20)
(1.0151 0.0566435 4.46144e-21)
(0.938527 -0.0145777 0)
(1.03181 0.00386156 -1.72697e-21)
(1.01155 -0.008572 -2.57066e-21)
(0.903967 -0.00170035 1.93469e-20)
(1.0042 -0.0074513 1.09876e-21)
(1.00268 0.0232466 5.57304e-22)
(1.0036 1.06888e-05 2.28209e-22)
(1.0048 5.05124e-05 -2.58494e-22)
(1.03238 0.00786121 -2.82259e-21)
(1.02637 0.0323537 -2.96101e-22)
(1.00835 0.0508337 -1.84299e-21)
(1.01268 0.00211478 -2.53317e-22)
(1.05561 0.0236058 3.22342e-21)
(1.01894 0.000337178 -8.97938e-25)
(0.86049 0.0387848 0)
(1.02347 0.0265747 5.29662e-22)
(1.05859 0.0157857 9.94601e-21)
(1.01031 -0.00398458 0)
(1.08801 0.00337522 -1.3459e-20)
(1.00134 0.0189014 7.37279e-22)
(0.562478 0.0346961 -7.42517e-23)
(0.982587 -0.00945164 0)
(1.00252 3.84277e-05 -3.17015e-22)
(0.470248 0.0530597 0)
(1.03323 0.0177238 0)
(0.47378 0.0189034 6.52284e-21)
(1.0525 0.00917742 1.07601e-20)
(0.972532 -0.00699507 4.59368e-21)
(1.01908 -0.00640861 -5.29073e-22)
(1.01089 0.00277578 0)
(1.02271 0.00630117 -2.02518e-23)
(0.649736 0.00596846 1.42825e-20)
(1.05798 0.0230326 0)
(0.963985 0.0674428 -1.87453e-21)
(0.682313 0.0297426 0)
(1.0199 0.00510966 0)
(1.06425 0.01476 1.1133e-20)
(1.00745 -0.00032127 0)
(1.00326 0.0129583 -1.21483e-21)
(0.979621 0.10946 -2.01833e-22)
(1.00764 -0.000338129 0)
(0.27584 0.0701438 2.4172e-20)
(1.05066 0.0136555 -1.06111e-20)
(0.971818 -0.00372729 -2.56305e-21)
(1.09409 -0.00828451 9.4893e-21)
(1.00714 -0.105947 0)
(1.00951 -5.09317e-05 -6.37455e-23)
(1.00532 0.000161376 0)
(1.10712 0.0938012 4.19767e-22)
(1.00971 0.00166905 -1.64038e-22)
(1.0175 0.0123129 -1.44518e-22)
(1.02655 0.0228492 -6.33012e-22)
(1.01409 0.0028906 0)
(1.06386 0.0137939 0)
(1.00927 -4.28691e-05 0)
(1.00273 0.0287106 -1.1235e-20)
(1.01694 0.0164609 -1.27704e-22)
(0.433166 0.0248558 0)
(0.473032 0.0188855 0)
(0.928507 -0.0898928 0)
(0.909776 -0.0124857 5.76221e-22)
(0.573149 0.105701 0)
(0.419416 0.0259315 4.99874e-21)
(0.922519 -0.128308 0)
(1.00874 0.000967873 -9.80357e-23)
(1.01068 -0.00831868 0)
(1.02659 0.00752692 0)
(1.02957 0.0190671 -5.15099e-23)
(1.0133 0.00405654 1.32728e-21)
(1.05877 0.0226719 9.63118e-22)
(1.01451 0.00628719 2.60494e-22)
(0.980915 0.0859285 -1.51264e-21)
(1.01782 0.0128057 3.11933e-22)
(0.929245 -0.0236455 0)
(1.03222 0.0148483 1.36167e-21)
(1.06308 0.0146239 6.76311e-21)
(1.08885 0.0989983 7.52133e-21)
(1.01166 0.00338724 -7.37926e-22)
(1.03904 0.0592116 0)
(1.0328 0.0180859 0)
(1.00408 0.000134039 4.94694e-22)
(1.0518 0.0235439 1.09323e-20)
(1.01415 -0.00772805 1.38425e-22)
(0.70777 0.0148435 -5.10994e-22)
(1.10139 0.0215843 0)
(1.05264 0.0482891 1.81621e-21)
(1.01276 0.00310811 0)
(1.0239 0.000720632 1.47079e-21)
(1.01449 0.00154732 8.47977e-23)
(1.01918 -9.55256e-05 0)
(0.362499 0.0693254 2.54318e-20)
(1.00894 0.00102192 1.9835e-23)
(0.965911 0.119792 0)
(1.01206 0.00377905 1.34179e-22)
(0.90091 -0.0677476 1.51218e-21)
(1.0011 0.0129083 -2.37965e-21)
(1.01315 0.00548884 0)
(1.05996 0.00887219 1.73944e-20)
(1.00631 0.0201951 -2.39123e-22)
(1.00911 0.0010887 7.77866e-23)
(0.978203 0.0890474 -2.10213e-21)
(0.671124 0.0326855 1.12062e-21)
(1.01457 0.0246424 -4.46621e-22)
(1.08502 0.00148445 7.43218e-21)
(1.00952 0.00176412 0)
(0.973011 0.109751 0)
(1.02006 -0.0115143 -2.01038e-22)
(1.01845 -0.000162785 0)
(0.465577 0.0312945 0)
(1.00452 4.58258e-05 -1.42216e-22)
(1.03787 0.013281 1.26058e-21)
(1.08289 -0.00591981 -7.36538e-21)
(0.457134 0.0281493 2.51205e-20)
(1.02218 -0.0140244 0)
(0.89151 -0.157063 -1.66635e-21)
(0.861207 0.0025637 -1.96161e-20)
(1.02791 -0.002006 0)
(1.01189 -0.000745508 -6.03409e-22)
(1.0141 0.0029502 -2.00553e-22)
(0.891711 -0.0181711 -9.85988e-21)
(1.02309 0.00107094 0)
(1.07594 -0.0176076 2.52254e-22)
(1.02746 0.0101582 -4.42374e-21)
(0.606676 0.0187221 2.32127e-22)
(1.0009 0.0159472 -2.8274e-21)
(0.516154 0.0341522 8.50422e-22)
(1.01543 0.00290848 0)
(1.01346 -0.00186282 1.05237e-22)
(0.919705 -0.123885 0)
(1.01026 0.000504718 0)
(1.00188 0.00387578 -6.69279e-24)
(0.73967 0.00356723 6.90265e-21)
(1.02164 0.0221873 3.68127e-22)
(1.01014 0.00182119 -2.89184e-23)
(0.810513 -0.120182 -2.58365e-21)
(1.02843 -0.000342518 0)
(1.012 -0.00967628 4.44605e-22)
(1.09695 0.0204021 0)
(1.0248 0.0233381 4.66377e-22)
(0.683097 0.0119403 1.45292e-20)
(1.04357 0.0569058 1.03162e-21)
(1.05732 0.00531478 0)
(1.12419 0.0466711 2.101e-20)
(1.04873 0.0149548 1.23366e-22)
(0.604021 0.015021 0)
(1.01683 0.0177959 8.41262e-24)
(1.09257 0.0194668 0)
(1.02152 0.00345483 0)
(0.491191 0.0201659 -3.43327e-21)
(0.897235 -0.0654732 -1.76725e-21)
(1.03522 0.00662635 4.60391e-21)
(1.01789 -0.0116314 2.8353e-22)
(1.006 -0.000540477 -4.49896e-22)
(1.01926 0.0146373 0)
(1.01664 -0.00960824 0)
(1.01589 0.00148236 3.03945e-22)
(1.01373 -0.00393995 -5.45901e-22)
(1.0227 0.00568328 -2.28723e-21)
(1.05336 0.0328195 5.23719e-21)
(1.00689 -1.31053e-05 3.28257e-22)
(1.02188 0.0213813 1.05135e-21)
(1.07474 0.000886097 1.33168e-20)
(0.36275 0.0561796 0)
(0.546619 0.0343158 3.86753e-20)
(1.08189 -0.0035979 -4.71308e-22)
(1.01398 0.00203071 -9.60998e-23)
(0.912659 -0.118587 0)
(1.01408 0.00551363 -1.19056e-22)
(0.927312 -0.00584582 2.39416e-21)
(0.995183 0.120242 0)
(0.266876 0.023278 0)
(1.00912 0.00127454 1.29861e-22)
(1.0089 0.0010305 -1.93745e-23)
(1.01649 0.000998241 -8.38627e-22)
(1.01483 0.0102925 1.19261e-22)
(1.00895 0.00115861 -1.27276e-22)
(1.0108 -0.00713481 -5.65076e-22)
(1.01658 0.00581625 -1.8279e-21)
(1.06325 0.043148 0)
(1.01021 0.00190387 1.56847e-22)
(0.330272 0.110843 0)
(0.846374 -0.128376 3.2761e-21)
(1.01093 0.00199254 1.24392e-23)
(0.665553 0.00598539 6.61067e-21)
(1.02192 0.00353665 0)
(1.01497 0.00255184 3.00793e-22)
(1.00237 0.0163369 -8.81195e-22)
(0.510205 0.0332996 1.30973e-20)
(1.0472 0.0817697 -4.08748e-22)
(1.00366 -1.64614e-05 6.80379e-23)
(0.988095 0.0447676 0)
(1.01131 0.00447402 2.61158e-22)
(1.01488 0.00310962 0)
(1.02632 -0.0261674 -1.47095e-21)
(1.00937 -0.0084568 -4.58401e-22)
(0.843655 0.0858098 8.17013e-22)