/*--------------------------------*- C++ -*----------------------------------*\
| =========                 |                                                 |
| \\      /  F ield         | OpenFOAM: The Open Source CFD Toolbox           |
|  \\    /   O peration     | Version:  v2012                                 |
|   \\  /    A nd           | Website:  www.openfoam.com                      |
|    \\/     M anipulation  |                                                 |
\*---------------------------------------------------------------------------*/
FoamFile
{
    version     2.0;
    format      ascii;
    class       volScalarField;
    location    "100";
    object      k;
}
// * * * * * * * * * * * * * * * * * * * * * * * * * * * * * * * * * * * * * //

dimensions      [0 2 -2 0 0 0 0];


internalField   nonuniform List<scalar> 
13851
(
0.000199597
0.000154298
0.000154099
0.0198807
0.000148426
0.000156648
0.00015522
0.000147526
0.0483413
0.000148406
0.000175637
0.000148434
0.000148904
0.0269653
0.000167924
0.000194515
0.0178653
0.000148393
0.000229427
0.000199476
0.000170929
0.000155712
0.0293619
0.000149734
0.0140253
0.000181772
0.000234901
0.0033868
0.0456432
0.000146671
0.046169
0.000155194
0.000199245
0.0630305
0.000169099
0.0456773
0.00014981
0.00983215
0.0675614
0.000148818
0.0677177
0.0477593
0.0063286
0.00021222
0.0500608
0.000147578
0.000145547
0.000194964
0.00015235
0.000148872
0.0258525
0.00014915
0.000194503
0.000163707
0.024981
0.000148812
0.000199754
0.0656621
0.000127798
0.0303055
0.000148483
0.000239288
0.000148582
0.00015261
0.000180088
0.000180573
0.0250847
0.00016566
0.000149138
0.0290866
0.0414347
0.000175519
0.00014838
0.0272661
0.000164953
0.000152664
0.0233691
0.000145898
0.0102799
0.000147665
0.000149208
0.000221745
0.000168613
0.0292942
0.0313257
0.0450905
0.000155949
0.0195272
0.000148362
0.0460379
0.00014927
0.000155357
0.00962867
0.0406716
0.0612453
0.000196332
0.000147683
0.000195707
0.0272157
0.000191637
0.000196675
0.000161942
0.000162801
0.000148645
0.000147612
0.00017423
0.000147597
0.0438611
0.000155322
0.000148251
0.000159506
0.000147606
0.000199449
0.000177821
0.000198251
0.000162924
0.000146475
0.000147057
0.0173102
0.0326392
0.000187375
0.00014754
0.000149047
0.0476114
0.00022116
0.000171528
0.000147677
0.00017077
0.0617221
0.000174243
0.000155637
0.000161632
0.00277274
0.0626253
0.000176209
0.0610676
0.000165307
0.0436162
0.000159909
0.000174113
0.000217856
0.000150412
0.00014838
0.000170528
0.0235685
0.000152248
0.000145834
0.0412315
0.0389462
0.000171403
0.000196743
0.000198209
0.00017894
0.000219168
0.000149445
0.000148619
0.000148578
0.0635795
0.000171913
0.000153817
0.000149583
0.04572
0.000173638
0.000195058
0.0275299
0.0517817
0.0526497
0.0305291
0.000159256
0.0627274
0.000148585
0.000146471
0.000177995
0.000148824
0.0648027
0.000246188
0.000200772
0.000146404
0.000164997
0.000199597
0.000218309
0.000211931
0.000158743
0.000173991
0.00727249
0.0396301
0.000199308
0.000157269
0.000149233
0.000147109
0.00814376
0.000171874
0.0215643
0.000156868
0.00015199
0.00019506
0.000198373
0.000149539
0.000149437
0.000166594
0.000218385
0.0653566
0.0667049
0.000167937
0.000303807
0.061351
0.000152204
0.00017387
0.0495722
0.000155745
0.000194294
0.00014898
0.000220755
0.000149531
0.000169735
0.000153711
0.000148788
0.000216966
0.000149539
0.000496343
0.000146372
0.000199323
0.0250533
0.0628128
0.000156971
0.000174155
0.000149741
0.000169214
0.000148048
0.000169387
0.0339551
0.000156937
0.000155705
0.000148716
0.0646523
0.000146654
0.0143235
0.0661571
0.00018848
0.000149645
0.000302785
0.0317456
0.0504903
0.000194039
0.0001645
0.000173897
0.000211662
0.000165267
0.000195225
0.000160855
0.0202435
0.000198677
0.000147071
0.000157122
0.0001958
0.0444714
0.0231352
0.000147052
0.000172038
0.000148326
0.000210802
0.000219471
0.000157706
0.000174269
0.000199353
0.000148071
0.000162186
0.000191873
0.00121779
0.000148478
0.000148773
0.000157153
0.0560565
0.0121715
0.000173833
0.000147697
0.000219695
0.000219264
0.000195403
0.000173806
0.0553154
0.0265305
0.000157977
0.000165388
0.0157533
0.000147593
0.000148572
0.000196295
0.000172707
0.000146703
0.000149511
0.000147997
0.000147857
0.000164545
0.000148528
0.0498168
0.000172128
0.000148287
0.0442973
0.0451105
0.000149209
0.000199809
0.0263111
0.000150645
0.000149294
0.000173337
0.0283089
0.0781517
0.000180675
0.000148346
0.0587522
0.000148534
0.000182314
0.0313751
0.000536599
0.000153519
0.00524701
0.000543124
0.0489731
0.000197257
0.000162216
0.066245
0.0534395
0.00355808
0.000149657
0.0253293
0.00792092
0.00020756
0.00020416
0.000152234
0.000180016
0.00015768
0.0206352
0.000163588
0.000146982
0.000144871
0.000157546
0.0454299
0.000375607
0.000147531
0.0600948
0.000157726
0.000161889
0.000154047
0.024475
0.00021828
0.000195076
0.00015336
0.000155062
0.0447171
0.000149258
0.000220901
0.000157883
0.000173263
0.000158285
0.000148344
0.000148269
0.000193519
0.000194272
0.000198959
0.000975436
0.0455762
0.000152361
0.0640578
0.000218177
0.000146591
0.000973826
0.00018931
0.0318028
0.000157047
0.000183163
0.00023277
0.00340802
0.000192101
0.0230101
0.000150748
0.000246231
0.00694697
0.00016176
0.0250799
0.000163881
0.0694351
0.000165045
0.000171049
0.000198437
0.000204429
0.000148627
0.000157281
0.000173694
0.00016525
0.000147729
0.000174116
0.0499219
0.00014836
0.000173931
0.0122552
0.000153709
0.000645537
0.000173307
0.0802644
0.000156393
0.000180712
0.0002957
0.000220146
0.000173613
0.0195043
0.0274655
0.000284248
0.000148112
0.00019303
0.000163895
0.000182758
0.000147583
0.00733784
0.0574464
0.00720576
0.000155005
0.000198986
0.000246905
0.0132881
0.000145484
0.0189119
0.000209566
0.0316221
0.000161435
0.0105613
0.000148502
0.000148746
0.021393
0.000249219
0.000148417
0.000154318
0.00017441
0.000146682
0.0521488
0.000180326
0.000188827
0.00015724
0.000150782
0.000149238
0.00220604
0.000148231
0.00014917
0.0344851
0.0477847
0.000155152
0.000229265
0.000148624
0.000148518
0.000154227
0.00019942
0.000173219
0.000147822
0.000151452
0.000186381
0.000152775
0.078549
0.000148399
0.000159739
0.0506403
0.000160537
0.000145176
0.000148705
0.000157089
0.000150081
0.000265373
0.0419964
0.000164731
0.000653259
0.000154342
0.000148305
0.058487
0.000229224
0.000159933
0.000148472
0.0512417
0.000159402
0.00113619
0.000148649
0.00016197
0.000192835
0.000166551
0.0569103
0.000244648
0.00257374
0.000152556
0.000198281
0.000148065
0.0444057
0.00017318
0.00019835
0.000163715
0.000153044
0.000160547
0.000178442
0.000148503
0.0141054
0.057036
0.0787142
0.00710346
0.0402734
0.0342532
0.000220454
0.000156487
0.000149327
0.00140954
0.000148409
0.000147696
0.000157626
0.0675205
0.000154046
0.000150399
0.000172507
0.000172647
0.000148461
0.0761101
0.000147663
0.0623996
0.000251667
0.000147651
0.00015322
0.000212092
0.00108513
0.000146729
0.0368153
0.00950738
0.000146871
0.058133
0.000228779
0.000199019
0.000152508
0.0321377
0.0313114
0.000147095
0.000224485
0.000149083
0.000147681
0.0288052
0.0705031
0.000167978
0.000172641
0.000148423
0.000178543
0.0628313
0.0637016
0.000147903
0.0243561
0.000147783
0.000149153
0.000173816
0.000159928
0.000145454
0.00015267
0.0600254
0.000202182
0.056348
0.000153485
0.000148312
0.055806
0.000149122
0.000193763
0.000159493
0.000164943
0.000164235
0.0506236
0.0311327
0.000156728
0.0176576
0.000153017
0.000179484
0.048524
0.0308226
0.000148988
0.000148102
0.000162972
0.057565
0.000222305
0.000178144
0.00589157
0.000160104
0.000164266
0.0425619
0.0791281
0.000180236
0.0610541
0.000208352
0.0471983
0.000150226
0.000120527
0.00102799
0.000148429
0.0110397
0.083901
0.000159284
0.000174067
0.000148669
0.000508635
0.00017427
0.0433415
0.000148251
0.000149019
0.00015524
0.000172182
0.000148462
0.0643171
0.000148978
0.00020743
0.000152539
0.000183178
0.000148622
0.000148483
0.000166788
0.0246504
0.000173308
0.0590636
0.000162009
0.000146758
0.000147258
0.000178207
0.00015141
0.000187135
0.000154801
0.000159657
0.000124726
0.000149133
0.0192693
0.000149667
0.000187753
0.020208
0.0519872
0.00015681
0.0306438
0.000171978
0.0001991
0.0840861
0.000148334
0.0816971
0.000157791
0.000162583
0.00909786
0.000322568
0.000146736
0.00018662
0.000149446
0.0456009
0.0265374
0.000149509
0.000166431
0.0566229
0.000149737
0.000149657
0.000182009
0.0160027
0.0216674
0.000149311
0.000198157
0.000152363
0.000148509
0.000116615
0.000198655
0.000190909
0.000145258
0.000192035
0.000163405
0.000179398
0.000150456
0.000151716
0.0001731
0.000155044
0.000193439
0.000175344
0.000175275
0.000177103
0.000277199
0.000230173
0.0442242
0.0240405
0.000195753
0.0358116
0.000162938
0.0321769
0.000199911
0.000148144
0.000163696
0.000221761
0.000156719
0.000147674
0.000147632
0.000187649
0.0206163
0.000159956
0.0634369
0.00014679
0.0255903
0.00017696
0.0249824
0.000186069
0.000156567
0.000154158
0.0291932
0.000190966
0.000162595
0.000249067
0.000150425
0.000948443
0.000187741
0.000208162
0.000163005
0.000239897
0.00014848
0.000149607
0.000151786
0.00014852
0.0484308
0.000147851
0.000141264
0.0552481
0.000186588
0.0655236
0.0300355
0.000209626
0.000202132
0.000156604
0.000149133
0.000148703
0.000145929
0.000147234
0.000148839
0.000179969
0.000199095
0.000164117
0.00244675
0.000151609
0.0482897
0.000149953
0.0230264
0.000167391
0.00014988
0.00014881
0.0521512
0.000156879
0.0151947
0.0833329
0.000173043
0.000182253
0.000146725
0.0633476
0.000153359
0.000154137
0.000127047
0.000149153
0.000150372
0.000148052
0.000173171
0.0218409
0.000159854
0.000163464
0.000212852
0.0599145
0.000156954
0.000156089
0.0483247
0.000145889
0.047533
0.000149287
0.000152862
0.00873773
0.000185847
0.000198077
0.000181946
0.000173554
0.000149468
0.000149953
0.000180801
0.000150373
0.000149525
0.000160652
0.000207821
0.000147747
0.000196447
0.000419636
0.0108914
0.00018171
0.0463593
0.000160154
0.000149099
0.000190996
0.000146878
0.000157409
0.0395603
0.0453972
0.0810287
0.0494128
0.000149678
0.000149393
0.00016846
0.000151413
0.000147443
0.0242977
0.00021186
0.0268047
0.00018793
0.000186324
0.000148558
0.000146718
0.000897119
0.000188875
0.000153424
0.000149657
0.000197802
0.000200415
0.0651999
0.000149408
0.000148923
0.0184939
0.000150406
0.000164066
0.000146696
0.069006
0.000147895
0.0226956
0.000148464
0.000186009
0.000169036
0.000168131
0.000163326
0.000148381
0.000154275
0.000148004
0.000159584
0.000150402
0.0275034
0.000150628
0.00627557
0.0583065
0.000161684
0.000147866
0.0136214
0.0417281
0.000157285
0.000185638
0.000148697
0.0182945
0.000148255
0.000221389
0.000148362
0.000147981
0.0109066
0.000164458
0.000148637
0.000164174
0.063102
0.000412175
0.0609532
0.000147033
0.0382033
0.000148442
0.000147794
0.000149432
0.000144482
0.000149521
0.0698375
0.0414451
0.000149587
0.000148951
0.000168396
0.000147623
0.0171413
0.000191909
0.0315209
0.067621
0.000154189
0.000193508
0.000148387
0.000170786
0.000174216
0.00014822
0.000149347
0.000319646
0.0283381
0.000181687
0.00873389
0.000180219
0.000148606
0.000169186
0.000185874
0.0211044
0.00016354
0.000332768
0.000189434
0.00014945
0.0548567
0.0548465
0.0270759
0.00427902
0.0277749
0.000152488
0.000173683
0.000149185
7.28325e-05
0.000156242
0.000147002
0.0656815
0.000151394
0.000147872
0.000149007
0.000151121
0.0657349
0.000220945
0.000147118
0.000169694
0.0280884
0.000151741
0.00798005
0.000151502
0.000185338
0.0700269
0.000148548
0.000230925
0.00015908
0.000162729
0.00046708
0.000151377
0.000220037
0.000180448
0.0662887
0.000149922
0.0251629
0.000161332
0.0402425
0.0223164
0.0201761
0.000173078
0.000148483
0.000149748
0.000149737
0.000169925
0.000148741
0.0587386
0.000158131
0.000156404
0.000156796
0.000152384
0.000146979
0.000158892
0.000157307
0.000153187
0.000156658
0.0837763
0.000160562
0.000160955
0.000168581
0.0647001
0.000150488
0.0487831
0.000145938
0.000160534
0.000150428
0.000148233
0.000165956
0.000148279
0.000147079
0.000162284
0.000148661
0.000205681
0.000151029
0.00973803
0.000169061
0.000211649
0.000216615
0.000149032
0.0619156
0.000202896
0.000149468
0.000157154
0.000150181
0.0524146
0.000151482
0.000162306
0.000400986
0.0101216
0.000176051
0.000149193
0.0509272
0.000275872
0.0312981
0.000158979
0.000146707
0.000147826
0.000180746
0.000148486
0.0270185
0.000194133
0.000149257
0.000217823
0.000207843
0.000147952
0.0834863
0.0206337
0.000210563
0.00015088
0.0505724
0.000179824
0.000148033
0.021477
0.000155863
0.00014774
0.000147693
0.000163994
0.00017007
0.0522344
0.0495189
0.000170642
0.0528969
0.000165306
0.000148352
0.000168326
0.000147671
0.000474548
0.000148072
0.000148171
0.000152958
0.000150269
0.0566914
0.0205393
0.000215264
0.0303335
0.0847952
0.00015697
0.000148399
0.00015103
0.000221513
0.000147992
0.000148323
0.00016801
0.0118303
0.000187592
0.000145862
0.000164685
0.000163601
0.000198764
0.00749354
0.000146875
0.000145351
0.000153332
0.00232012
0.000160588
0.0631454
0.000151672
0.000149005
0.000147797
0.000147676
0.000153693
0.000209728
0.0476665
0.051273
0.000156779
0.000148312
0.000615234
0.000150118
0.0152213
0.037953
0.000157949
0.0278992
0.0475679
0.041636
0.000177214
0.000163349
0.0425453
0.000161767
0.00016
0.000168761
0.000199394
0.000150245
0.000467123
0.000148375
0.0363651
0.00492333
0.000145967
0.000152698
0.000166217
0.000218323
0.000164504
0.000148856
0.000159766
0.000151465
0.000156935
0.000230699
0.000149003
0.0445184
0.0218895
0.000148401
0.000162491
0.00016973
0.000148464
0.0444119
0.0103791
0.0639778
0.0327629
0.000148198
0.000153937
0.000156442
0.000149457
0.000213079
0.000164894
0.000149683
0.000179813
0.00015471
0.0162839
0.000169183
0.0235046
0.000151336
0.00015179
0.00016355
0.000188635
0.000182314
0.000148082
0.00829905
0.0440031
0.0239928
0.0387901
0.0404918
0.0517231
0.0383057
0.000148094
0.000148298
0.000148757
0.000217926
0.000172704
0.000181971
0.0142907
0.000149695
0.000145617
0.00014843
0.000210026
0.000145764
0.00015781
0.000152521
0.0278326
0.000151049
0.000146917
0.000148502
0.000148143
0.000149001
0.00015976
0.000213395
0.000160085
0.0433222
0.000148287
0.000147699
0.061397
0.0599591
0.0192149
0.015992
0.000163388
0.024935
0.000146664
0.000168394
0.00015179
0.000148485
0.000154685
0.0268663
0.000151871
0.000189049
0.000597197
0.000149758
0.000148158
0.000155027
0.000210556
0.000149798
0.0283127
0.000148676
0.000206316
0.000148761
0.000149547
0.00015748
0.000170345
0.00014893
0.000234953
0.0423937
0.000200796
0.0618703
0.000148506
0.0250577
0.000224198
0.000148322
0.00437564
0.000149438
0.000161602
0.000149246
0.000149604
0.000147606
0.000148495
0.00015012
0.000155627
0.000181505
0.000149382
0.000148587
0.00016504
0.000146596
0.0799886
0.00014877
0.000162736
0.000165257
0.0348508
0.000153308
0.000148894
0.000211174
0.00014665
0.000162602
0.000171843
0.0127348
0.000174207
0.000149801
0.00019089
0.000167529
0.000186439
0.000208004
0.000160595
0.000196029
0.000178144
0.000181843
0.000150944
0.000147608
0.00932912
0.0116412
0.000153998
0.000148008
0.00867328
0.000146832
0.000170304
0.000147685
0.000175438
0.00455692
0.000145002
0.016184
0.00015655
0.00014906
0.000199519
0.000146993
0.000161236
0.0345841
0.000168553
0.0115404
0.000147572
0.000149747
0.000161733
0.000149464
0.000149607
0.000159673
0.000160594
0.000181636
0.000176826
0.000148754
0.00016465
0.000147473
0.000148347
0.000149385
0.000148334
0.00037902
0.000148129
0.000151583
0.000229241
0.000146794
0.000147928
0.0577263
0.000149631
0.0121105
0.000152219
0.055772
0.00021703
0.00016403
0.000673565
0.000176257
0.000268663
0.00014999
0.000201516
0.000156901
0.000147509
0.000147591
0.000151552
0.000162148
0.000148063
0.000170085
0.000147245
0.000151749
0.00703976
0.0256368
0.000108747
0.000154532
0.000162892
0.0373209
0.0296977
0.000149076
0.000157525
0.000307196
0.000149333
0.000167265
0.00118271
0.0513189
0.000158661
0.000171352
0.000150891
0.000209738
0.000149893
0.00016077
0.0064598
0.000149053
0.00014771
0.0778638
0.000169618
0.000218119
0.0621972
0.000187691
0.000149849
0.000147267
0.000149671
0.0327322
0.000760084
0.033104
0.00017318
0.000148538
0.0429589
0.000148654
0.000196885
0.000155235
0.000152836
0.000170861
0.000148333
0.0837623
0.0849181
0.000146739
0.00018147
0.000173499
0.000438341
0.000170504
0.000177998
0.000215811
0.000165229
0.000171257
0.0001789
0.000148669
0.000166329
0.000167958
0.0355652
0.000148177
0.000241419
0.000171392
0.000179137
0.000149803
0.0835096
0.000156959
0.000152262
0.000147488
0.000165639
0.000165061
0.000165757
0.000148784
0.000150656
0.000170902
0.00851122
0.000174278
0.000148965
0.000150375
0.000166284
0.00021212
0.000149067
0.000178484
0.00961405
0.000166837
0.0528057
0.000169644
0.026612
0.000219664
0.000148104
0.000578841
0.000149551
0.000154316
0.000163989
0.000164978
0.000187736
0.00017324
0.000165103
0.000166268
0.000161292
0.000153128
0.000145703
0.000168907
0.000156087
0.000157177
0.000110848
0.000155773
0.000158814
0.000147618
0.0240014
0.000177303
0.000148747
0.000154754
0.000151554
0.0285238
0.000194312
0.000164012
0.049991
0.000238268
0.000306323
0.000187885
0.00023235
0.000147237
0.000184094
0.000148271
0.000155431
0.0097074
0.0442015
0.000225805
0.00034964
0.000148728
0.0247793
0.000147212
0.000185293
0.00015436
0.0232916
0.0708043
0.000157521
0.000148001
0.00022144
0.000161769
0.00014814
0.0391006
0.000148466
0.00015237
0.000156145
0.000149235
0.000160744
0.000151684
0.000148542
0.000162408
0.000234648
0.000169212
0.000174349
0.000148124
0.0308286
0.0450586
0.000147881
0.000236734
0.000154287
0.000157133
0.0322028
0.000147861
0.000150548
0.000156534
0.0470615
0.000148181
0.000149148
0.000168236
0.0303581
0.000147762
0.000159357
0.000161137
4.53643e-05
0.000170477
0.000167868
0.00021719
0.000148482
0.000171513
0.00014601
0.0287174
0.000159924
0.000148414
0.000158767
0.000184526
0.000148915
0.000149234
0.000199628
0.0484782
0.000150081
0.0298247
0.000149188
0.000145965
0.000179923
0.000148168
0.000148139
0.0798458
0.000149812
0.000169104
0.000198452
0.0550487
6.81731e-05
0.000147906
0.000152592
0.000156349
0.000148387
0.000148484
0.000148555
0.01171
0.000149245
0.000175816
0.000194467
0.000147686
0.000146728
0.000160474
0.000194497
0.000234433
0.000165882
0.000175314
0.000152738
0.0496175
0.000174517
0.00016255
0.000169817
0.000170714
0.000186057
0.025313
0.00016872
0.02904
0.00692724
0.0235362
0.000154711
0.000148239
0.000166078
0.000159179
0.000147533
0.000150139
0.000176547
0.000149592
0.00014967
0.000148284
0.0001453
0.000153057
0.000148757
0.0224279
0.00014798
0.0178507
0.000148439
0.000172286
0.000150362
0.000195561
0.000172078
0.000148505
0.0440453
0.000152541
0.000149465
0.000169207
0.000147362
0.000158575
0.000148406
0.0484331
0.000153292
0.000169688
0.000170102
0.0410437
0.000157523
0.000164278
0.000181729
0.000168525
0.00014898
0.000151397
0.000174348
0.000179014
0.0251828
0.000146779
0.0330203
0.000148873
0.000168667
0.079819
0.000164181
0.0224491
0.000154679
0.000162976
0.000153973
0.0851119
0.000160724
0.00014885
0.000167727
0.000197411
0.00015205
0.000148315
0.000148861
0.0664766
0.000149659
0.00015689
0.0612399
0.000155207
0.000148092
0.000170277
0.000154297
0.0233217
0.000145624
0.000148329
0.000146999
0.000154742
0.00014988
0.000149021
0.000180242
0.0584629
0.000147958
0.000148623
0.0262371
0.000149854
0.0165868
0.000153767
0.0819085
0.000147559
0.000153276
0.000146647
0.0296312
0.0610669
0.000158821
0.000168378
0.000155511
0.000148025
0.000148706
0.0486955
0.000148812
0.000184978
0.000147285
0.000171151
0.0001492
0.0410616
0.000146842
0.000172358
0.000147559
0.000212836
0.000265212
0.000147152
0.000165453
0.0852127
0.000181627
0.0233891
0.0191634
0.00019845
0.000151786
0.000164075
0.0001882
0.00165497
0.000149731
0.000168449
0.000156478
0.000148339
0.0268495
0.0383574
0.000181988
0.000202148
0.000219681
0.000161802
0.0554284
0.000147455
0.000147063
0.000185321
0.08309
0.000210838
0.000195659
0.000124962
0.000146685
0.0843309
0.0335954
0.0772758
0.000149293
0.0319795
0.0465208
0.000279176
0.000383528
0.0444348
0.000185904
0.000160461
0.000199664
0.0001543
0.000148181
0.000597672
0.000188866
0.000145575
0.0358892
0.000149193
0.000158136
0.000170509
0.00015543
0.000612351
0.000160081
0.0122971
0.000172049
0.000154815
0.00160891
0.0736605
0.000198737
0.000149796
0.000154472
0.000181527
0.000167657
0.000146756
0.00017185
0.000166698
0.000193904
0.000148087
0.00020528
0.0001534
0.000167687
0.0363549
0.000166029
0.000151239
0.000182661
0.0342597
0.000149041
0.000150896
0.0776876
0.000214465
0.000153618
0.000154381
0.000148517
0.000173077
0.000156336
0.0477356
0.000187225
0.000150087
0.000149441
0.000165905
0.000158746
0.00017596
0.0297335
0.000147467
0.000148195
0.000157481
0.000149237
0.000153574
0.000151141
0.00015086
0.000154608
0.00014771
0.000153975
0.000149183
0.00017342
0.00190943
0.000149742
0.0502105
0.0166889
0.00014602
0.000180715
0.000184263
0.000177372
0.000150636
0.000188788
0.000157809
0.000168079
0.000160713
0.000151826
0.00014934
0.0248213
0.000160006
0.0133917
0.000150585
0.000148436
0.000148102
0.000171897
0.000147891
0.000174405
0.000179063
0.000286106
0.000147401
0.00026736
0.00292607
0.0459551
0.000146629
0.000190985
0.000216353
0.00372952
0.000134668
0.000150217
0.000149598
0.000190271
7.91163e-05
0.00519994
0.000169188
0.000236433
0.000149499
0.000147713
0.000163822
0.000149249
0.000149035
0.000194753
0.000149752
0.000168923
0.000147512
0.0725658
0.0504341
0.0143997
0.0342644
0.0431123
0.000148956
0.000148881
0.0759471
0.000146954
0.000147268
0.000145989
0.000181207
0.0646929
0.0265613
0.000156106
0.000149361
0.000151639
0.000162371
0.0282593
0.000148108
0.0196205
0.074103
0.000149193
0.000149116
0.0334187
0.000184102
0.000152742
0.000148302
0.0600786
0.0450969
0.000148575
0.000212172
0.000149667
0.0475326
0.000415812
0.000153386
0.0271745
0.0165481
0.0369768
0.000147347
0.000149683
0.000149605
0.000149898
0.0607003
0.000147673
0.000193204
0.000232774
0.0233115
0.000150669
0.000172666
0.000249305
0.000172334
0.0730465
0.053704
0.000145407
0.000156257
0.000156375
0.000193465
0.0526171
0.000145159
0.022608
0.000160154
0.000170875
0.000150647
0.000147494
0.000211052
0.000167061
0.0189826
0.000149248
0.000172481
0.000150433
0.000196115
0.000154002
0.0572206
0.000617905
0.000198084
0.000186685
0.00014802
0.000152797
0.000187205
0.000180185
0.0551154
0.0830145
0.000148907
0.0211718
0.000169615
0.0743114
0.000158443
0.000169076
0.00016755
0.000148953
0.0447451
0.000148393
0.000163372
0.03051
0.0701996
0.000421289
0.0652089
0.000157517
0.000173874
0.000146804
0.0733611
0.000156552
0.0270301
0.00014674
0.0314468
0.000145045
0.000147978
0.000162879
0.000158386
0.000159574
0.000148223
0.0355557
0.000171576
0.000147705
0.000165003
0.0301394
0.000224514
0.000148475
0.0585834
0.000153587
0.000165214
0.000163774
0.000145817
0.00017648
0.000147941
0.00854018
0.000171742
0.000158443
0.000148297
0.000216549
0.000168034
0.000146736
0.0261727
0.0013293
0.000217474
0.000146579
6.79444e-05
0.000148851
0.000188053
0.000159065
0.000179153
0.00556702
0.0345272
0.000159424
0.0646908
0.000168688
0.000157453
0.000146947
0.0388253
0.000177665
0.000187702
0.000164961
0.000149589
0.0278936
0.000181182
0.000220113
0.000225842
0.0847587
0.0357629
0.00178707
0.034009
0.000157691
0.000158533
0.000148557
0.000148876
0.0001453
0.00020653
0.000158143
0.000159634
0.0644694
0.000147662
0.000146918
0.00017017
0.000197813
0.000158871
0.000147068
0.0667416
0.000153585
0.000173415
0.000149283
0.0234651
0.000157012
0.0674345
0.000165992
0.000164189
0.000170284
0.000148517
0.0106942
0.000248557
0.000178415
0.000148573
0.000147225
0.0212646
0.0459611
0.0445353
0.000147845
0.000178654
0.000113765
0.000148838
0.000147945
0.000148951
0.0640829
0.000170683
0.000162435
0.000159098
0.000157038
0.0379842
0.000177607
0.000219564
0.000157841
0.00016319
0.000145277
0.000180903
0.000171845
0.000148301
0.0478766
0.0559127
0.0609341
0.0477638
0.0424979
0.0817343
0.0778721
0.000151335
0.000147972
0.0558397
0.0392459
0.0235475
0.00014869
0.000168729
0.000148547
0.000147925
0.017622
0.0719409
0.000180067
0.000147991
0.000247717
0.000188861
0.00017303
0.036643
0.00052896
0.000239963
0.000147262
0.0572533
0.00785208
0.000214298
0.000163721
0.000170022
0.000149185
0.000147142
0.000166878
0.00017091
0.000153626
0.000169365
0.000158852
0.000154223
0.000213559
0.0332293
0.000158982
0.000170616
0.0453585
0.000205128
0.000148673
0.000190662
0.000223088
0.0255359
0.000167944
0.000149112
0.000160343
0.000156624
0.00015821
0.000145817
0.000158839
0.000162681
0.000172793
0.000196791
0.000149495
0.000151439
0.0354095
0.0497858
0.0714257
0.000243564
0.000190194
0.000144863
0.000148477
0.000160859
0.000146679
0.0856433
0.000148444
0.00014981
0.000146264
0.047681
0.0127476
0.000149844
0.000179838
0.000157813
0.00016128
0.000160328
0.000159654
0.000169055
0.000165306
0.0213041
0.000156936
0.041203
0.000166098
0.0705506
0.000159404
0.000147398
0.000146878
0.000189457
0.000199548
0.000146706
0.000162554
0.000159708
0.000174336
0.0326516
0.0241861
0.0171904
0.000149809
5.04695e-05
0.000158379
0.000163717
0.000148284
0.000177872
0.000152533
0.0283983
0.000270203
0.00016513
0.000148473
0.0494296
0.000155698
0.0329583
0.038118
0.000216564
0.000153362
0.000194956
0.027475
0.000106078
0.048106
0.000175512
0.000148299
0.000166202
0.00014789
0.0773509
0.000153769
0.000161302
0.000251071
0.0682545
0.000148088
0.000148044
0.0427303
0.000168237
0.0796632
0.000158649
0.000148295
0.000169355
0.00021534
0.000162186
0.0150098
0.000163549
0.000168436
0.00015479
0.000149604
0.000147971
0.000206511
0.000150454
0.000180021
0.000148584
0.000148612
0.000203475
0.000157169
0.000148973
0.000148183
0.000163403
0.000203666
0.000170945
0.000167192
0.00015514
0.000176446
0.00014849
0.000187784
0.000161036
0.000170419
0.000166613
0.000159768
0.00017312
0.000162851
0.000147762
0.000181465
0.0499383
0.0337453
0.000149079
0.000342239
0.0323207
0.000147988
0.00015046
0.000219545
0.039427
0.000156103
0.0318606
0.000223302
0.00014911
0.000186251
0.000145256
0.000156548
0.000177194
0.0180275
0.000199321
0.000225781
0.00026572
0.0474247
0.0516152
0.000152931
0.0426465
0.000148386
0.0102263
0.0493188
0.00014858
0.000148427
0.0324303
0.000148948
0.000148506
0.000259934
0.0538855
0.000212328
0.000157262
0.0447432
0.000148581
0.0498245
0.0367791
0.000149202
0.000202839
0.00363397
0.0449658
0.0340968
0.0375686
0.0310629
0.000147175
0.00015145
0.00017787
0.000180472
0.000148482
0.000204011
0.000148334
0.0383423
0.000246581
0.000163894
0.000225572
0.0391389
0.000243862
0.000210766
0.000164967
0.019633
0.000231686
0.000155917
0.000145537
0.0121238
0.000160945
0.000146876
0.0832231
0.000148025
0.0132748
0.000149056
0.0675909
0.000156308
0.000148005
0.00508122
0.000155891
0.000160313
0.0290583
0.0656555
0.00034182
0.000159205
0.000172561
0.000151725
0.000169131
0.000196508
0.000169503
0.000149346
0.000299214
0.000178694
0.000161089
0.0295578
0.000168886
0.000161861
0.000194304
0.000181754
0.000172035
0.000147972
0.000200071
0.000146902
0.000196563
0.000135682
0.0409689
0.000147044
0.000166859
0.0257498
0.000152321
0.000176784
0.000162915
0.00016878
0.0632333
0.000178828
0.000151812
0.01608
0.0001471
0.0490636
0.000148741
0.000151495
0.000196378
0.0456231
0.000161124
0.000187262
0.000210837
0.000162867
0.000149357
0.000176172
0.000170474
0.0642904
0.000155162
0.00303538
0.000199675
0.000162888
0.000160144
0.000176333
0.000165182
0.000167311
0.000178854
0.00016219
0.000153681
0.000149317
0.000432498
0.000148304
0.000159066
0.000145376
0.000192337
0.000159628
0.000178863
0.0414241
0.000151131
0.000212614
0.000144581
0.00014907
0.000149196
0.000149319
0.000157931
0.000147557
0.000186548
0.0263206
0.000178737
0.000172097
0.000155687
0.000148744
0.000177029
0.000148425
0.0197997
0.0177675
0.028816
0.000197391
0.000162988
0.000158683
0.000149114
0.000157883
0.000169661
0.000167967
0.0484722
0.000178562
0.0597934
0.000196497
0.000149348
0.000146814
0.0332114
0.000147974
0.000160861
0.000165873
0.000220695
0.000152659
0.0618621
0.000149084
0.000155383
0.000148556
0.000150397
0.00017617
0.000190466
0.000149466
0.000164
0.000159348
0.000172712
0.000178062
0.000209583
0.000195764
0.00020376
0.000193128
0.000157627
0.0001513
0.00017778
0.0454471
0.0724573
0.0502914
0.0001632
0.0111471
0.000188966
0.000151035
0.00014793
0.000179478
0.000148872
0.000163997
0.02293
0.000147883
0.000147447
0.000241468
0.0201363
0.000173522
0.000351752
0.000148931
0.0251025
0.000167856
0.0719383
0.000157033
0.000148511
0.0502052
0.00016472
0.000148446
0.00017081
0.000149661
0.000186845
0.000159014
0.000164293
0.0848123
0.000159353
0.0334672
0.000147543
0.0540774
0.000148938
0.000156231
0.000150217
0.000169994
0.000148865
0.000165593
0.0491089
0.000238658
0.000173352
0.000160563
0.000167916
0.000148005
0.000148778
0.000151753
4.34903e-05
0.000155932
0.0709844
0.0340739
0.000185761
0.000149389
0.000188737
0.000199273
0.000198528
0.000157318
0.0395777
0.000148074
0.000144844
0.000147939
0.00175727
0.000148889
0.000148332
0.0500802
0.000147939
0.000196508
0.000170836
0.000147723
0.0562123
0.000160058
0.0677006
0.000148212
3.37373e-05
0.000151053
0.000166832
0.0291242
0.000180497
0.000147721
0.000158814
0.0220836
0.000163824
0.000189862
0.000161979
0.00015611
0.000184283
0.000157933
0.000149876
0.00697805
0.000159503
0.000160014
0.000194138
0.00014799
0.00014743
0.000149192
0.000162874
0.000148927
0.000155054
0.0396808
0.0139201
0.000170505
0.00962259
0.000179207
0.000165923
0.069838
0.0511738
0.00014991
0.016523
0.0342052
0.0333802
0.000608883
0.000161054
0.0183803
0.051526
0.0430854
0.000622158
0.0735553
0.000162547
0.000168921
0.000157626
0.000157331
0.000149529
0.000233632
0.000149894
0.0186008
0.000173385
0.000194474
0.000145134
0.000183686
0.000163322
0.000152012
0.00014995
0.000148677
0.000172925
0.000153214
0.00014984
0.000169863
0.0574643
0.00015399
0.000188604
0.000146751
0.000172963
0.00016865
0.000149053
0.000155965
0.000147572
0.0671817
0.0570409
0.000202888
0.00122869
0.000160778
0.000186841
0.0001488
0.000170233
0.000148596
0.000149757
0.000149518
0.0432647
0.00014678
0.00017315
0.000245671
0.000157106
0.000162141
0.000148073
0.0689192
0.000199822
0.0403785
0.0319953
0.000196173
0.000224971
0.0292622