/*--------------------------------*- C++ -*----------------------------------*\
| =========                 |                                                 |
| \\      /  F ield         | OpenFOAM: The Open Source CFD Toolbox           |
|  \\    /   O peration     | Version:  v2012                                 |
|   \\  /    A nd           | Website:  www.openfoam.com                      |
|    \\/     M anipulation  |                                                 |
\*---------------------------------------------------------------------------*/
FoamFile
{
    version     2.0;
    format      ascii;
    class       volScalarField;
    location    "100";
    object      omega_0;
}
// * * * * * * * * * * * * * * * * * * * * * * * * * * * * * * * * * * * * * //

dimensions      [0 0 -1 0 0 0 0];


internalField   nonuniform List<scalar> 
13851
(
0.0233875
1.16954
0.0937449
0.0232094
0.100084
0.051499
0.021644
0.053669
0.0206475
0.103491
0.29613
1.50526
0.943323
2.41968
0.0214136
0.0345747
0.0250061
0.0265338
0.263707
0.0206397
0.0230276
0.0919254
0.0211651
0.0220283
0.0213379
0.0543722
0.0245091
10.0602
0.0231722
0.0234441
0.0618827
0.0253645
0.0897027
0.387171
0.0220338
0.185886
3.06763
0.206538
0.114187
0.406492
0.0213236
0.019723
2.88298
0.324103
0.324549
5.10984
0.323817
0.545788
0.0247958
0.0648333
0.092515
0.171899
2.7984
0.0215941
0.0224698
0.0197229
0.0211321
1.67708
0.0232692
0.0216714
0.206017
3.29845
0.0529356
0.116287
0.173803
0.0248877
3.1431
0.317545
0.0379001
0.0263346
7.23199
3.32123
1.15726
0.0217143
0.0210334
0.0208314
0.0888103
5.564
0.0565787
6.57141
0.0218753
0.287256
0.0213376
4.82442
0.0579638
1.12504
0.0428587
0.66891
0.0258693
0.0208447
0.1879
0.033612
0.313426
0.0288952
0.0255973
0.0218312
0.102572
3.2719
0.0727146
0.0218288
2.799
0.0616917
0.0220404
0.0241694
0.0208097
0.0423651
0.0685698
0.0196254
3.46054
0.0553284
0.022115
0.0209338
0.0324729
0.0224838
0.0221099
0.82683
3.1301
0.0196669
0.0227218
0.0229289
3.19943
0.0240045
0.957958
0.534471
0.483678
0.0223533
0.548294
0.0590827
0.022904
0.16002
0.0213047
0.0207019
5.72241
0.0213401
0.812317
0.0208987
0.0196798
3.26564
2.54909
2.21756
2.41118
0.0224172
0.022299
0.0200807
0.0230366
0.320666
0.0365995
0.161369
0.021626
0.320435
0.0879273
0.0224947
2.57502
0.0211684
0.0229038
0.0229362
0.0210173
0.0226645
0.170702
0.0915467
0.0197186
0.0289934
1.66505
0.0206861
0.026952
0.019894
0.0437574
0.0383868
0.0227713
4.23256
6.7903
0.0203854
0.0210395
2.19572
0.0206789
0.469746
0.0569764
0.0222457
0.266124
0.0196324
0.0262631
3.33113
0.0213405
0.097883
0.0196646
0.0212788
0.0249144
0.0218266
0.111785
0.0990702
0.321487
2.13408
0.021307
0.0380405
3.02267
0.0227269
0.0220823
0.447628
0.0220727
0.0208549
0.0223772
7.83131
0.0237625
0.0212377
0.0802156
0.0213519
4.74075
0.0252628
3.69774
0.0196424
3.5107
0.0219697
0.42286
0.0195935
0.0199849
0.260393
0.0556104
3.72768
0.0213386
3.66125
0.0254594
0.0219206
3.11454
0.160217
3.62151
0.0214057
0.0316835
0.020978
1.56892
0.0195907
0.0525216
0.22391
0.0203774
0.0211781
0.0810019
0.0429357
5.11762
0.196888
0.0200563
0.0212482
0.0541268
0.0875153
0.0201004
0.0876022
0.0204415
3.62558
0.063153
0.419554
0.0229821
0.0256788
0.0278729
0.0859264
0.0218313
0.0230792
0.0627398
1.03639
0.0941579
3.27119
24.9429
0.0214372
0.0200082
0.0255306
0.825089
0.0205854
0.303006
0.0227054
0.0218044
0.0282272
2.98238
0.222375
0.0276813
0.0228828
0.239452
0.0529185
0.0332019
0.0207108
0.283378
0.0771867
3.61207
0.298571
0.020129
0.019609
0.0207368
0.0596773
0.847502
0.447501
0.0207328
0.0214455
0.343624
0.300254
0.17748
0.0230411
0.0216766
0.0412641
0.295937
0.315033
0.0264284
1.06721
0.0207304
3.62779
0.0284664
0.0247817
3.61361
0.0215546
0.0442072
3.5236
0.0207163
0.050999
0.0290636
0.0228785
3.03645
0.0266337
0.0217669
3.1176
0.0197719
0.0259622
0.0232654
3.60696
0.148357
0.0213388
0.0635497
0.021375
10.7822
0.0309995
0.0211268
0.0212826
0.149134
0.0306489
0.0228393
0.0214492
0.0215368
0.0217288
0.315865
3.58619
3.68928
0.0287545
3.59403
0.813975
0.0213664
0.0388108
0.177077
0.0365296
0.0594123
0.148517
0.260526
0.0259009
0.833523
3.59769
0.0214348
0.0975923
0.0886105
0.252991
0.022829
0.0648757
1.53204
0.0210719
0.812781
0.0212643
0.0213882
0.0203265
0.0196226
0.0209575
3.55693
0.221448
0.0213368
0.0482711
0.0198183
1.12424
0.041741
0.57619
3.80128
0.0213469
0.0615316
0.0291148
0.569795
0.0212412
0.0196846
0.0302262
3.96318
0.0214125
3.40001
0.0363073
0.160772
6.91803
0.140453
0.15052
0.0250617
0.0207717
0.0221381
0.0276436
0.0628054
2.46312
0.0383033
3.60558
3.54095
0.0198325
0.0214461
4.07928
5.41219
0.181998
3.03913
0.0311532
0.0299289
0.0217154
0.450864
0.0205106
0.0337768
0.0245058
0.0215656
0.0208556
0.0206963
0.0198792
0.113808
0.0538104
6.72507
0.0266845
0.0679578
0.0322664
0.077513
0.0266538
0.266516
0.0244947
0.268441
0.0196664
0.0206802
0.0214691
0.240716
0.274082
0.155413
0.031367
9.15735
0.377898
0.0406721
0.023226
0.0823571
0.0212214
0.0762042
0.0208126
0.329442
0.220972
0.0825265
3.80278
0.0223363
0.0760607
0.262973
5.03338
0.0195911
0.0318916
0.0582683
0.266952
0.0204655
0.0217325
0.0818283
0.158035
0.0305535
2.27742
0.0213458
0.02136
1.72937
0.0276719
0.0195958
1.46343
0.0207612
0.0234042
0.0205428
0.0417692
0.0223648
0.0196252
0.0221862
2.94829
0.0213488
0.0414107
0.0208305
0.0299314
0.198683
0.022611
0.0213253
0.0225063
0.0224992
0.293278
0.0217943
0.0457896
0.0213411
0.0214913
2.13367
3.92763
0.021378
0.0308252
0.0268839
0.109209
4.32851
0.0213851
0.21991
0.0212631
0.0987857
0.0216008
1.51285
0.0197308
3.19416
0.0937472
0.0197379
0.0309184
3.44792
0.0537887
0.301188
0.0226339
0.543695
0.0228574
0.0206244
0.0207132
0.0215803
4.45821
0.0821284
0.173185
0.292597
0.0512982
0.019753
1.29512
0.236351
0.0265303
0.0292585
0.105344
0.533111
3.43849
0.0224547
1.52799
5.96406
6.47358
0.0273805
0.0315662
0.61308
0.0883181
0.990018
0.442926
0.551304
0.0227991
0.573493
3.08133
0.019672
0.0661774
0.0838561
4.61107
0.0231243
0.0212212
0.0209904
0.021253
0.11038
0.038811
0.669082
2.216
0.0207495
1.88373
3.74057
0.0881114
0.265297
0.0407106
0.0195716
0.0206628
0.12066
1.65008
0.0230074
0.109561
0.177493
0.0197093
0.0362199
0.573154
0.215735
0.146799
4.24065
3.14034
0.0212826
0.0215805
1.5053
3.54386
0.172023
0.0381692
0.0736564
0.0196332
0.0211139
0.347943
0.0196893
0.0230238
0.0196194
0.0207884
3.07638
0.111389
0.0295376
0.0196783
4.11097
0.448858
0.020762
0.020855
0.0206475
0.0220356
4.03404
0.429358
0.424083
5.40987
0.55347
0.0356337
6.01595
3.82973
0.0264923
0.0384318
0.0195661
0.0231726
0.0368839
2.63356
0.860625
0.109096
0.0300956
0.0206058
0.0335855
0.0223522
0.316475
0.0927549
0.0213322
0.0296203
0.0204669
0.0279497
0.156858
0.021642
0.021201
0.042098
0.0215891
0.100885
0.227379
0.152525
0.033995
0.178642
0.0205929
0.116281
0.0293365
4.27783
0.0219072
0.0219092
3.42287
0.0229593
8.09601
3.62656
2.25966
1.54322
0.0205091
3.37336
0.0202923
0.0207796
0.0197211
0.0207953
0.0229365
0.0273186
0.0390274
0.0196625
1.05703
0.0977638
1.55315
0.0209094
0.0197994
0.0207308
0.173241
2.99734
0.0627454
0.0283373
0.020348
0.0215815
0.0214476
0.0210638
0.815957
3.27123
0.0215653
0.0196502
0.0215946
0.0210628
0.252448
1.83438
0.0345775
3.27361
0.54343
0.0211839
0.170808
4.76737
0.0406118
1.85384
0.0218541
0.0257326
0.0617866
0.0259358
0.436302
0.0213661
0.586099
0.0208243
0.0324143
3.66484
0.0209683
0.0225505
0.0624022
0.0206311
0.0257007
0.670399
2.21719
0.0905743
0.289897
0.152443
0.0196065
0.0208876
1.98439
0.158076
0.0470415
3.61091
0.0205801
0.0243418
0.0196873
0.55673
2.98393
0.0250178
0.0218881
0.198647
0.0246375
0.0207076
2.09564
1.12935
3.5887
0.0197556
0.0215597
5.68029
3.54485
0.181385
0.0221165
3.34527
0.0213525
0.236933
0.153418
0.0886405
0.0248545
2.91247
0.0261764
0.0232892
2.9357
0.0218225
0.0237624
0.0224763
0.0205778
2.0545
0.0335184
0.147975
0.0290216
0.107979
0.0206238
0.716606
0.0224099
0.026029
0.0198899
0.0211484
0.0214293
3.52358
0.0209793
0.0197211
0.241451
0.0216018
4.40149
0.0210616
0.0222405
0.0875337
0.272796
0.207326
0.0208855
0.0770555
3.14496
0.0218212
3.33561
0.0320475
0.020554
0.0433356
2.38514
0.0805881
0.0256909
0.0208586
0.0196379
0.209668
0.0981238
0.0640244
0.0260058
0.0422772
0.0221639
0.0221476
0.104974
0.265598
0.109145
0.868499
0.0215396
0.100465
0.107854
3.60031
0.0247855
3.37003
0.274082
0.021618
8.94314
0.104255
2.71387
2.25695
3.35548
0.276186
0.0450005
0.0205671
0.0271044
1.66493
6.85109
0.0211647
0.0214985
0.0837062
0.272436
0.0197653
2.70291
0.0205551
0.0213516
1.7842
5.59084
0.169612
0.0207676
0.0214044
2.82279
0.596719
0.14992
0.0242356
3.24109
0.212808
2.64878
0.0680862
0.0475714
0.0217622
0.0215934
1.17277
0.0569906
5.79224
0.0323956
0.0378334
2.63172
2.87459
3.98228
0.0214325
0.0334399
0.0207479
0.0350385
0.0224951
3.29489
0.0244608
3.64335
0.019764
0.085589
0.02114
0.177301
0.0364854
0.0330035
3.28318
0.0507887
0.0446208
0.0221477
0.0862544
0.52301
0.0763683
0.0230613
6.82859
0.0205018
2.31071
0.20498
0.0215643
3.5579
3.46861
4.116
0.302865
0.0309914
0.0211769
3.59727
0.0245347
0.855015
3.70195
0.020923
0.0227869
0.233634
0.427705
2.75922
0.0215173
0.0208
1.26554
3.67523
0.146397
0.0252137
0.0234117
0.236384
1.75325
0.111573
0.0197267
0.0456561
0.0206465
0.0232529
0.10128
0.0218212
0.333337
0.0717204
0.0213582
0.022445
0.0212054
0.022535
6.22645
3.44033
0.0314249
3.43648
0.0211368
0.0313274
0.0211249
0.0206616
0.0214988
0.0213445
4.38892
0.0213788
0.0623559
0.0214345
0.0259553
0.132506
3.08043
0.0226331
1.60866
0.0678597
0.630795
0.0346042
0.0356225
7.20343
0.0279934
0.0397803
2.97304
0.735354
2.46436
0.0461604
0.316411
0.0218283
0.047841
0.063095
2.8724
0.0212782
2.10928
0.0208685
0.0209295
2.33734
0.0221525
0.32428
0.025135
0.0207295
0.0343472
0.0207465
0.0214111
0.0207306
0.021804
2.77333
0.0209427
0.451277
1.63202
0.0705244
2.15277
0.0215727
0.0224276
0.0241505
0.0212655
0.020725
0.100777
0.0219486
0.0207756
0.0219195
0.0213656
4.28751
3.20584
0.0648651
3.20554
1.72841
0.0211098
0.403517
0.0298466
0.0209373
0.296065
0.0531986
0.361483
0.0210899
0.325629
0.369591
1.51915
0.0204105
0.765944
0.0325143
0.0243025
0.0210295
0.0205832
2.20485
0.0888958
0.378348
0.0209156
0.0212989
0.500999
0.0215818
0.272099
0.242515
1.20556
0.271236
0.369426
0.0214216
0.0213055
0.0617497
0.0300216
0.0241638
0.163331
0.0486815
0.0219864
0.0231894
2.53872
0.0207935
4.1419
1.08538
0.857625
0.224862
0.0223823
0.0202614
0.0217768
0.317507
0.143726
0.0204102
0.0229111
0.0208964
0.0994074
0.019846
0.0208564
0.0219539
0.036283
2.84536
0.0417211
0.0293948
0.0214814
0.0601744
0.363399
0.0222936
9.8186
0.311205
0.101639
0.0199785
0.0522045
0.0212162
0.0211647
0.0217106
5.4405
0.149598
0.259273
0.0242643
0.245305
0.0212656
0.0209127
0.0215719
0.334807
0.365613
0.0196984
0.0358337
0.0580812
4.02006
0.0225956
1.28833
0.0234508
4.29755
0.0901672
3.20011
0.107175
0.10132
0.236489
3.69909
0.345987
7.71344
0.0210582
0.159814
0.0198306
0.0231658
0.0271565
0.0215731
3.73022
0.0307117
0.0286918
0.273393
0.209628
0.310921
0.0213558
0.0238382
0.0254628
0.0203555
0.0281113
1.22053
0.593159
1.30572
0.0209527
0.0281101
0.024728
0.560138
2.87884
0.0609729
0.0202317
0.0218801
1.57447
0.0519878
0.511972
1.70187
0.0450717
0.0199555
2.72024
0.0275555
0.0521074
0.030065
3.44741
0.30275
0.151465
0.11945
0.0220899
0.0286829
0.0213607
2.51778
0.0489145
3.78758
0.151831
0.0268953
0.195939
0.0226271
3.42317
0.538402
0.0207129
0.207012
3.64321
0.225768
3.35776
0.0216237
0.0213233
5.97496
0.338821
1.55947
0.0227653
0.0215887
0.0213517
4.20217
0.180941
0.0217796
0.0629948
0.10329
4.70821
2.5268
0.522257
0.0214244
3.28106
0.025082
0.0213054
0.197925
3.33577
0.0216506
0.0208544
3.9917
3.30331
0.0219307
0.0209367
2.13618
0.020635
0.126676
0.0209534
0.558922
0.0213196
0.0635719
1.2722
2.80827
0.0224837
3.0302
0.0748588
1.05718
0.362071
4.19376
0.0414056
0.0211582
0.296781
0.0226332
0.021374
0.0203267
0.363574
0.0211663
3.01881
0.0208727
0.0234255
5.5015
0.0775015
0.300222
0.0226941
0.0275702
0.0207064
0.0358737
3.06824
2.27554
0.0208615
0.0840977
0.326182
0.021554
0.0206013
3.6301
0.0385193
0.0364598
0.170261
2.26847
0.488418
3.05569
3.34477
0.0473133
0.282602
0.166183
1.15621
0.0839758
0.0199965
0.168678
0.0211477
0.0211456
2.47566
3.64281
0.0226458
2.82479
0.139704
4.37251
0.0753491
0.0495568
0.0212277
0.163853
0.042582
0.0212824
0.0225946
3.46179
3.49847
1.27354
3.33715
0.0393695
3.61165
3.51204
0.0352454
0.0217326
0.0210701
0.291728
0.0210197
1.03171
0.0223318
0.0220551
0.0227799
0.47476
3.5751
1.73043
0.0219458
2.85574
0.0244278
0.0285869
0.0210005
0.020719
1.79691
0.0270369
3.8406
1.20086
0.0564043
0.148847
0.0214912
0.0427206
0.021528
0.180048
0.0221203
0.0226388
0.0218615
0.0224227
0.192743
0.0221321
0.0373034
0.0213878
0.0379419
0.189033
6.03712
0.0210786
0.0584316
0.0211247
0.0989687
0.0225237
1.26797
0.170155
0.0346262
0.0240278
0.0225075
0.0835958
0.0212629
0.144104
0.021428
0.0209303
0.0219879
3.2957
0.0280534
0.0244588
0.0310401
0.0212366
0.0744183
3.15094
0.2866
0.0406469
0.0213697
0.0349114
0.0200181
0.0209472
0.220595
3.63641
0.0209774
0.0295568
0.115375
2.97009
0.0218365
0.0220312
3.67944
0.0225254
0.0464294
1.57402
3.57854
0.0213339
0.0229085
0.021236
3.61956
0.170511
0.0477287
0.150407
1.75042
0.0224688
3.52142
0.520902
0.0216455
0.431664
0.102013
0.0224293
1.98731
0.0215319
0.0212051
0.0205187
0.205687
0.0573782
0.178334
0.0226163
0.0223623
0.0322202
0.277446
2.7018
3.55928
0.351081
0.0220416
0.173539
0.157317
1.76613
0.087234
0.27854
0.0210325
0.0308277
0.0206027
1.00609
0.0365916
0.02123
2.35891
0.165523
0.0349542
0.0276782
0.0196425
0.0211645
0.0598185
0.0366233
0.354679
0.0839365
0.0781265
0.0669407
0.139941
1.54805
0.103199
3.55392
0.0210903
0.0207813
0.962374
1.80762
2.0441
0.0506635
0.0222776
5.76118
0.339328
0.0209851
0.0274241
0.0208243
0.0484991
0.0898696
0.0353208
2.08589
2.60463
0.0226648
2.62937
6.76495
0.0214193
0.0943977
2.32578
1.77426
0.0240742
0.0922476
0.0195843
0.0230966
0.0212515
0.0249521
3.59053
3.33376
2.29301
6.40144
0.0227085
0.0344541
0.0597835
0.0208343
0.0218855
0.0205872
2.54402
0.0209806
3.42819
0.0370674
0.0475577
0.167818
2.44057
5.05782
2.97211
0.0478009
0.019849
0.0278122
2.74726
1.12991
0.0252131
0.0207878
0.0206191
0.074864
0.0317502
0.186777
2.29971
0.0226743
0.0205408
0.143672
0.0331644
6.43344
0.903631
0.0209484
0.0925294
0.0215899
3.61533
0.020015
3.61127
0.021288
0.0225988
0.0286652
0.0220203
0.078361
0.0322989
0.0569439
1.58521
3.4583
0.0257594
0.0316149
0.0212164
2.87194
1.53646
0.0216724
0.0201014
0.309619
0.0196421
4.34721
0.02101
0.031516
0.0816306
1.1217
0.0379659
0.0230216
0.0216167
0.0863227
3.4141
0.0211589
0.870418
3.1853
0.90563
0.191966
0.0334968
4.1098
0.0261438
0.202842
0.0212664
0.358973
0.355824
2.54255
1.75502
3.60536
0.0225119
0.0521204
0.0208391
8.23162
0.306921
3.46171
1.5834
0.0268208
1.55187
0.79535
0.035049
0.0223833
0.0216289
3.91064
0.0254856
0.0848855
0.022955
0.0215959
0.0206633
0.0214954
3.02643
2.33635
0.0322814
1.59361
0.40646
0.0219142
0.0212986
0.020596
0.0292768
3.61083
2.90482
0.0251185
0.0246454
0.222881
0.0912782
0.0530541
3.73855
0.0312582
3.55595
0.0325063
0.0273096
0.0212756
0.0228871
0.0905401
0.322015
0.351311
3.74043
0.083634
5.12168
0.0238974
0.0246611
0.0213477
2.3942
1.85848
0.530715
0.0586185
0.0237237
0.0213753
0.0211022
0.0214241
0.0206056
2.49633
0.0301269
2.56654
0.0325685
2.34704
0.327137
3.62869
0.0332969
0.0268973
1.52101
0.0405823
0.837491
3.87199
0.0206105
0.0533377
0.0282301
5.57679
2.69478
0.0355344
0.0659787
0.415059
0.0228985
0.0523349
0.0243255
2.42848
0.269963
0.0241751
0.0216117
0.357214
0.208068
0.159634
0.793162
0.167101
0.0296043
0.0211446
0.39013
3.65832
0.0902495
0.0336281
2.96674
2.12811
0.020858
0.021406
0.0244521
3.38304
3.10862
0.021333
4.68415
0.0220848
0.0210976
0.0215359
7.6751
0.215051
0.047203
2.13042
0.0224873
0.0225769
0.020995
4.38576
0.0222238
4.73241
0.0237792
1.18509
0.0218602
0.0211491
0.152616
2.59699
0.302431
0.0376013
0.491032
0.0199672
0.021486
0.0214172
0.0513565
0.0816231
0.0818149
0.035071
3.09793
0.0247721
0.151066
0.143875
1.20035
0.021375
3.93042
3.67148
0.0256791
0.543162
0.0795365
2.03319
0.0215735
0.0767584
0.0209942
0.865984
7.37468
0.0888778
3.52569
0.0229172
0.056695
0.022175
4.40025
0.0199234
0.0208063
0.567697
0.100169
1.82826
3.00053
0.0758027
0.0296023
0.0205006
1.3907
0.0280545
0.0213669
0.178548
0.020593
0.0517914
0.0213667
0.916199
0.0225767
0.326234
0.338184
0.0286545
0.396476
0.0615292
3.6105
0.0213654
1.28992
1.69327
0.0207126
0.0213488
0.0226088
0.0218916
0.0443618
0.021282
0.138462
0.0945487
0.20668
0.137102
0.0215398
0.0218517
0.0205149
3.06714
0.0215058
0.0212908
0.276213
0.0242895
1.24801
3.47304
0.107113
0.0240135
0.0353707
0.022499
0.0220635
0.0363694
0.0201747
0.0244579
1.95804
3.61176
0.793844
0.0224284
1.76588
0.69809
0.0219129
0.156924
2.82713
0.0213489
0.0238083
0.0213049
3.26327
1.76736
0.46764
0.0201505
0.0241313
0.0235879
0.0216114
0.163549
0.0215167
0.0437422
2.4835
3.51103
0.0205897
0.0242582
0.0237955
2.34545
0.0196348
1.67433
2.1491
0.106877
0.817969
3.87353
0.561213
0.0231376
0.471438
0.258535
0.0224741
0.0204795
0.0208788
3.49194
1.77634
1.99902
0.0211234
3.57771
0.0215497
0.176976
0.0204327
0.0228866
0.0223897
0.020581
1.86874
0.0225549
2.28702
2.19637
1.66112
0.0534474
0.0611936
1.76125
3.36997
0.0218019
2.83091
0.0205218
0.0196848
0.0212878
0.0434334
0.0206765
1.53564
0.0277122
0.0361156
0.0365296
1.91906
1.53346
0.103429
0.02056
0.0610167
0.0873471
1.87965
0.0213771
0.0197477
0.0228944
2.26824
0.0217994
0.345472
1.5278
0.0487151
0.071567
0.0214388
0.146675
0.0217975
3.60718
0.0202521
2.00205
0.0341963
0.0215111
1.51298
1.63549
0.0201663
0.0770993
0.0243548
1.98841
0.0412563
0.15908
0.0354196
0.0217821
0.0605984
3.16245
0.0211318
0.0380427
0.0233416
0.094252
0.0359317
2.27271
3.66144
0.0215222
3.96106
0.0224217
0.0521987
2.65924
1.54523
0.0352395
3.68049
0.20001
0.0216258
0.338376
0.174498
0.0337024
0.0224984
2.15484
0.0201934
7.3542
0.0345108
0.125399
0.0213449
0.0284254
3.81639
0.0528187
2.48899
0.022088
0.0238911
0.10469
1.96644
0.0270636
3.48569
0.784777
1.54242
0.0215553
1.50115
0.293439
1.97023
0.0213969
0.0250843
0.0213956
3.54671
0.0295251
0.2101
0.0918041
0.0217898
0.0202955
0.0213647
2.00898
3.36341
2.59475
1.56554
0.0209802
3.23665
3.14798
0.176919
1.67256
3.71331
0.033353
7.64467
0.0236093
0.026603
3.25329
0.618097
0.021963
3.07965
0.0218066
0.0213933
4.62974
3.70386
3.51
8.40094
0.0318562
0.0218093
0.0231115
3.24787
1.62565
0.0211689
0.0537738
0.537495
0.0214312
0.0214915
2.53439
2.43086
0.0227478
0.0214387
0.0223842
0.0222664
0.529856
0.0218699
0.0210411
0.0253872
0.16694
3.25521
0.097292
2.81129
0.0215315
0.0241047
3.60147
3.25601
0.0271604
0.143743
0.021324
0.0405079
0.0230268
0.0222991
0.0766851
0.0209872
0.85844
0.0325292
0.0207984
0.0238016
0.305657
1.65878
4.0866
0.021445
0.0246491
3.36615
0.578217
0.0244304
0.0212994
0.0214923
0.294414
0.0215026
0.0217274
0.0288225
0.0213356
3.62097
0.0606899
0.0217454
0.0241437
0.0200736
0.0215042
1.43947
0.172319
0.0908538
1.60424
0.0687501
0.0218821
0.021303
0.0215026
0.0213517
0.0217418
0.0238188
0.0821925
2.7504
0.0228865
0.138445
4.01029
0.0334042
0.0212494
0.020824
0.0237639
3.30774
0.0212935
0.249589
2.84909
0.0443595
0.022741
6.59522
0.0200563
0.0486539
0.0203752
0.0200916
0.0218695
0.0208896
0.0352278
0.829891
0.371111
0.0433218
0.312776
0.600288
0.870022
0.0352926
3.72146
1.62574
0.133658
1.58349
2.70139
0.148852
0.123226
0.021881
0.0206942
1.97077
0.0210459
0.0243148
4.40297
0.0349794
0.973768
0.171105
0.0207353
0.0371626
0.0214671
0.0393875
0.0204012
0.0815577
1.90062
2.42667
0.901587
0.0214577
0.0202216
0.0917102
2.61295
3.62954
0.132875
2.95577
0.0208792
3.14747
4.08618
0.0587235
0.0231991
0.0214825
0.0199149
0.0227604
0.0214937
0.0214054
0.0240673
3.62367
0.0989519
3.82822
0.264479
0.279807
0.236382
0.02126
0.0208786
0.022223
0.0204993
0.0218441
0.163914
0.49072
0.786067
3.58103
0.0237069
1.59147
0.162894
3.47335
3.80338
0.0214724
0.0208385
0.254
0.0214512
0.0201779
0.544355
3.62537
2.98081
0.0213845
0.0214997
0.0234706
0.0414329
0.317241
0.0205439
0.0235952
0.335806
0.020239
0.357958
0.0407632
4.30098
0.0218068
2.36775
2.4972
0.0361804
3.17661
0.145202
3.88212
0.0200479
0.0247219
0.020819
0.0305893
7.28659
0.0212675
1.78887
0.0220185
0.021508
0.0214503
3.6037
0.0527676
0.142976
0.506186
0.0206428
0.0464209
2.05443
0.0613125
0.0207527
0.0234587
0.0214531
0.0463683
0.0212467
0.0208652
3.61686
3.51677
3.58079
0.197499
0.261576
1.57188
0.0849527
3.60029
0.149874
0.0199801
0.0208663
0.0196548
0.0215788
3.31194
3.27169
0.0204057
1.98752
3.61224
0.0315231
0.0226968
0.0248954
2.19572
2.31079
3.63583
0.301986
3.63591
0.0196544
0.242666
0.126351
0.350358
3.30655
0.0213262
0.171606
1.67197
0.0329804
2.37163
0.0217281
0.055528
1.59656
3.63287
0.0906426
0.0327175
5.53594
0.172869
3.63548
3.62942
3.6138
0.148949
0.676837
0.0215127
0.025918
0.0569223
4.51165
0.34572
3.9663
0.0219838
0.133263
0.0790829
0.0221266
2.82329
0.0213477
0.17394
4.34771
0.0213588
4.26481
2.34141
3.61517
1.43228
0.265377
0.123759
0.0210926
3.36736
0.021981
0.0209561
0.0487574
0.0240567
3.70325
0.0244223
0.024822
0.0242475
0.0208632
0.407895
0.0227091
0.150511
0.336026
0.0205959
4.17064
0.127604
0.02278
2.91406
0.340167
0.0213435
0.407504
0.0220491
3.61506
0.342957
0.0204561
0.140959
0.0227945
3.45538
3.64843
0.0930278
1.42165
0.0253372
0.0215002
4.49433
0.0245349
0.0213981
2.88902
0.0457255
0.0208841
0.0207832
0.155601
0.0225362
4.26354
0.242473
0.0332981
1.94827
0.0623847
0.0739876
0.0211334
3.4899
6.28894
1.8759
0.0214027
0.0202736
0.0921747
0.031062
0.291752
0.0214342
0.542718
0.0211844
0.171002
0.021705
0.0336083
0.17829
0.148832
4.09895
1.2591
2.74032
3.65386
0.0196895
2.70037
2.88851
4.88935
0.0210928
0.202502
6.10048
1.95525
0.149218
0.256023
0.851037
3.54083
0.0520816
0.253067
0.0205681
0.0575151
0.0489398
0.0213101
0.0865165
1.82866
0.0611247
1.7537
3.25072
0.0211601
0.0208019
0.0300856
0.0213169
0.929304
0.0205757
0.0207531
3.5904
1.82058
0.0313484
0.129516
0.0221949
0.097426
1.75765
3.67993
1.61923
0.0264197
3.66432
0.0234506
0.0205209
0.0235252
3.76616
2.95764
0.244112
2.00026
0.0223789
0.0207934
0.0213165
0.0219027
0.0278906
2.25465
3.06313
0.0298075
2.92433
4.28583
0.316439
8.5328
0.0214213
0.031892
0.221255
0.0214065
0.0238496
0.0278299
0.0243067
3.19044
3.68949
0.0205721
0.0450251
0.0311998
0.0806752
2.13122
3.46344
3.53543
0.0218293
0.0978604
3.5615
0.0996968
0.142091
0.375124
1.99028
3.55334
3.61229
0.0205345
0.698298
0.02034
0.0230218
0.0213257
0.0725666
3.54411
6.92099
0.5291
2.44977
0.0681
0.0201256
0.0208065
0.0214967
0.0231295
0.0527699
3.57121
3.61518
0.0913885
0.568947
0.0215955
0.0671528
0.0206451
3.61516
0.0800125
0.0217221
0.154438
0.130928
0.409188
4.14491
0.154226
2.67142
0.0246444
1.9293
0.34409
3.15172
0.314899
0.023292
0.0661233
0.021469
2.31114
2.00213
0.0461234
3.05191
0.257175
2.38304
0.0791709
0.15924
0.0409139
0.0208986
0.145787
0.0661955
0.0245501
0.065253
0.0330483
0.0344806
2.48864
0.186861
0.0227259
0.0310734
0.0415425
0.032102
0.0229832
2.86024
0.136022
0.0522732
6.78411
0.0213803
3.76224
0.0214715
0.0236966
0.0231128
3.72303
0.039489
3.63445
8.16833
0.0705715
0.0452234
0.150276
3.33091
0.181446
1.37474
0.0242522
0.0528582
0.0211008
3.73944
0.424767
0.0241551
0.0212781
0.0381954
0.027017
0.0241692
0.0577832
0.0455309
0.0215824
0.0339827
6.81528
3.41498
0.139947
0.0487507
0.0197866
2.96998
0.0359957
0.0781903
0.172426
0.0490596
0.639654
0.0202069
0.0244691
0.0238021
0.0329566
0.0212108
3.85432
0.340863
0.300332
0.0378701
3.02781
2.15153
0.0266964
3.41573
0.0807462
1.47736
3.55576
0.0442265
0.0242719
0.0463059
0.0808673
0.0252309
0.431569
4.30566
0.263303
0.0209041
2.66013
0.216087
0.344377
0.0212537
0.0530098
0.0210153
0.0316063
0.428175
0.0303159
0.030365
0.0208945
0.0208742
0.259126
3.72414
0.0214504
0.340522
0.655826
0.0201356
0.0263539
3.76087
0.137915
0.13228
0.0213669
0.0281423
0.119312
0.0214502
0.0210888
4.73489
0.0310903
3.82688
0.102129
0.0272241
3.53396
0.132554
0.175371
0.0209418
0.450884
0.0326678
0.0276452
2.10588
0.0480153
0.0215371
0.0974399
0.0249311
0.026279
0.0201327
1.04723
0.0213451
0.0726185
0.290652
0.124693
0.0208842
0.256054
0.0337724
3.35643
0.178429
4.0108
0.125635
3.64302
0.0206808
0.0980717
0.0264005
0.0211279
0.365924
0.34843
0.0257523
0.124113
0.0258962
0.0923535
4.06121
0.0271429
0.215412
0.705192
3.81014
2.85647
0.183527
0.0245878
0.02072
0.0758618
0.0358128
0.788763
0.6562
3.61829
2.83407
3.6135
0.0208476
0.45579
0.0213995
0.0225471
0.0215398
0.437063
0.168845
0.0900166
0.0210675
11.2543
0.0284759
4.1491
0.0209675
0.0702082
0.0332674
0.0818454
0.047908
0.133598
0.0229576
0.195716
0.141721
0.020968
2.3822
2.5888
0.0524903
0.0227569
0.031803
0.0215932
0.0210791
0.0770917
0.0277059
1.63809
0.254019
0.108275
0.212073
0.0213581
1.23989
0.0791735
1.15183
0.030621
0.031
0.407818
0.0313596
0.0783987
0.159029
4.79058
0.0229751
0.0216179
2.78188
0.0353834
0.0237624
0.027132
0.0303588
0.0204776
0.0262369
3.61501
0.02146
0.0481747
3.39552
0.146035
0.0914201
0.246783
0.334905
3.61697
2.30284
1.24845
0.0644109
1.34118
0.0225678
0.0255159
0.021479
0.0210077
1.80806
0.41544
0.0315878
0.0207035
0.412537
0.103167
0.0214711
0.0425811
0.0635737
0.0212245
0.0228312
2.00422
0.0278831
0.0421643
0.038817
0.0217832
0.0976759
0.0816791
0.0300895
0.208028
0.0897708
0.244764
0.189882
3.63493
0.0237349
5.76871
0.173883
0.17663
0.076462
2.6753
0.0934794
0.0260757
0.0595346
0.0837932
0.0238365
0.0800633
0.0211235
0.0212455
0.0200909
0.0247513
3.82256
0.0203618
0.134551
0.0238904
0.0241102
0.0239099
0.253915
0.0236873
0.0708248
0.0215075
0.0240836
0.0248093
0.0208531
0.135357
0.0239296
0.0205242
0.0224165
0.0279376
0.0210728
0.533643
0.0281718
1.78405
0.20189
2.35747
0.0736483
0.0816546
0.0634127
0.0475382
0.0267139
0.025906
1.39392
2.19072
0.248152
0.0705228
0.0351565
0.0218616
0.45622
0.0416338
3.07628
0.0219155
0.886892
0.177948
1.24976
1.23886
0.0201178
0.0214145
0.0203053
0.0310417
2.44078
0.0502356
0.8792
0.0255393
0.0311765
0.0210282
0.0218919
0.0335032
0.0239592
0.023643
0.0209764
0.292719
0.342617
3.20488
0.024727
3.19278
0.0208015
0.0203505
0.135307
0.0219395
0.0243886
0.0820148
0.0240884
0.0799775
0.0214229
0.0262145
0.0215472
0.0242748
3.65905
0.0210702
0.0238394
0.0225348
0.023516
0.859945
0.0218204
0.0606411
1.79108
0.0244721
0.0309482
0.0225569
0.0230211
0.0217832
0.14511
0.0214341
0.0252495
2.27639
0.0207772
0.0298669
0.0611785
0.065312
1.63324
0.020095
0.0238541
0.0221471
0.0331957
0.112906
0.35905
3.90771
0.0202378
0.0268484
0.0863631
0.0235575
3.25872
0.0200046
0.0215812
0.264195
0.0479054
0.0239402
0.0200801
0.145979
0.131787
1.57037
0.021585
0.27526
0.0200483
0.0205431
0.0236815
0.0928856
3.5638
0.0215156
0.0209307
0.0663886
0.0214402
0.0235238
2.50498
2.90889
0.0214349
0.020538
0.0220576
0.0317244
0.243602
3.15153
0.0218597
0.135674
0.0213281
0.021341
0.471122
0.0234541
0.0218054
0.033327
0.235396
0.178563
0.0236256
0.0222625
0.361723
0.0479827
0.0224522
0.193879
4.46677
0.0214618
0.021724
0.0234653
0.0213557
0.0214497
0.0209832
0.0202377
0.0442045
0.0233514
0.044689
0.0574784
3.62361
0.833946
0.0313906
0.0200774
0.0214316
0.0223039
0.0234257
0.0479867
0.0296515
2.76675
0.0232755
0.0935471
0.0235987
3.98085
1.55674
0.0304206
0.0225963
0.147046
0.0239822
0.0280827
0.0213869
0.0224323
0.0211106
0.0350318
0.0424269
0.0490878
0.136053
0.0229317
0.0267415
0.0223526
3.22127
2.10241
0.351888
0.0263031
0.114609
0.101404
2.98778
0.0219923
2.97194
0.08131
0.0213953
0.021848
1.84509
0.0214846
0.0222166
0.0235728
1.37834
0.0214777
0.0217724
0.0254147
2.22242
0.0209237
0.0594965
1.33309
0.0238063
0.0215124
0.0212048
0.0214211
0.0218126
0.0217184
0.102571
0.0224554
0.0214858
0.02172
0.0217266
0.0294417
0.0213657
0.300771
0.0215728
0.0217173
0.0413437
0.0347953
0.0277173
1.62138
1.3531
3.28902
0.0416683
0.0209151
0.0370373
0.351312
0.0202048
0.0903719
0.0234611
0.994849
0.0228169
0.0496158
0.0218058
0.0213817
0.147609
2.75975
3.42331
0.291995
3.39104
0.0217642
0.0210537
2.12067
0.0201786
0.0214947
2.9907
0.0210208
3.78493
0.0214445
0.196698
0.1361
0.0240627
0.574798
0.0273515
0.0967185
1.2111
1.32436
1.32731
1.95393
0.449641
2.58187
0.0215367
1.76684
0.0214445
0.0213021
0.0209504
0.0218318
0.634736
0.0224541
7.34107
0.0214769
0.0213708
0.021586
0.20007
0.021976
0.0207133
0.0589121
0.0253462
0.0250345
0.0259962
0.0292268
0.236665
0.455933
1.13011
0.263752
0.123266
0.0224719
1.934
0.0214538
0.0289671
0.0793926
2.48667
0.0422456
3.34381
0.0214556
0.829674
4.39213
0.191189
3.6171
0.30391
0.0239189
0.0213127
0.0233871
0.0214368
0.0212961
4.56758
2.62386
0.0211006
0.268192
0.0214171
0.135765
0.0210088
0.198894
0.0286296
0.0237208
0.0208141
0.298719
1.20339
0.29217
0.020599
0.0206757
0.0266471
0.0220795
0.0223378
1.1875
0.898685
0.0543736
0.280061
0.0425709
0.0218353
0.02927
0.0815413
0.021889
2.9102
0.0656085
0.0851475
0.0227079
0.024689
0.0202698
0.0196338
0.0213634
0.0257321
0.020794
1.74404
0.0381815
0.500254
0.0212666
0.0402873
0.0214372
0.0725876
0.039304
0.0636457
2.6475
0.0252348
0.0213236
0.0244921
0.0218528
3.17892
0.11081
0.0407391
0.0646443
3.39115
1.59573
0.132548
0.058076
0.0213918
0.0226766
0.0235021
0.0315107
1.01395
0.026104
0.0215217
0.481885
2.06091
0.0217481
0.0236413
0.0664963
0.0221454
0.0209676
0.0386261
0.0214704
0.0219234
0.0209527
0.0238936
0.022067
0.0463314
1.80394
0.0214681
3.10164
0.122278
0.135164
0.0209416
0.0217615
0.0318105
0.0269402
0.0214353
0.183942
0.0213311
0.053431
0.0215591
0.0401573
3.36117
0.0627869
0.0225295
0.0679089
0.302533
1.34875
0.0214324
0.0405602
3.52295
0.0211479
0.02258
0.0897725
8.3133
3.8629
0.0241791
0.0213353
0.0299841
0.0212941
0.0224468
0.0264109
0.0217362
3.42949
0.0218282
0.787608
0.021434
0.0214722
0.0526774
0.0213601
0.0215558
0.0263751
0.827632
0.0205597
0.0360847
0.0219136
0.0210994
0.0216346
0.0290202
0.02528
0.0804567
0.0228452
0.0217436
0.0218619
0.0435565
0.0225118
3.61636
0.0220288
0.134587
0.0377145
0.0227305
0.0286246
0.588862
0.021494
0.0221126
0.0200304
0.0877854
0.240524
0.0218026
0.0340412
0.020951
0.0329722
0.0214505
0.286053
2.0643
0.0231765
0.0259905
0.0258285
0.0320316
0.0219937
0.0207354