/*--------------------------------*- C++ -*----------------------------------*\
| =========                 |                                                 |
| \\      /  F ield         | OpenFOAM: The Open Source CFD Toolbox           |
|  \\    /   O peration     | Version:  v2012                                 |
|   \\  /    A nd           | Website:  www.openfoam.com                      |
|    \\/     M anipulation  |                                                 |
\*---------------------------------------------------------------------------*/
FoamFile
{
    version     2.0;
    format      ascii;
    class       volVectorField;
    location    "600";
    object      cellDisplacement;
}
// * * * * * * * * * * * * * * * * * * * * * * * * * * * * * * * * * * * * * //

dimensions      [0 1 0 0 0 0 0];


internalField   nonuniform List<vector> 
13917
(
(0 0.0688485 0)
(0 0.0635788 0)
(0 0.0692815 0)
(0 0.0657388 0)
(0 0.0411132 0)
(0 0.0692794 0)
(0 0.0692822 0)
(0 0.0692813 0)
(0 0.0692818 0)
(0 0.069103 0)
(0 0.0692374 0)
(0 0.0690636 0)
(0 0.0659048 0)
(0 0.0692837 0)
(0 0.0681185 0)
(0 0.0677968 0)
(0 0.0643553 0)
(0 0.0689837 0)
(0 0.0690501 0)
(0 0.0229836 0)
(0 0.00775076 0)
(0 0.0692824 0)
(0 0.0339516 0)
(0 0.0692809 0)
(0 0.0533397 0)
(0 0.0692823 0)
(0 0.0690842 0)
(0 0.0691732 0)
(0 0.06928 0)
(0 0.0691798 0)
(0 0.0688813 0)
(0 0.0681787 0)
(0 0.0689557 0)
(0 0.0680403 0)
(0 0.0547135 0)
(0 0.0692689 0)
(0 0.0326199 0)
(0 0.0692836 0)
(0 0.0670303 0)
(0 0.0692837 0)
(0 0.00543941 0)
(0 0.00313982 0)
(0 0.0316469 0)
(0 0.0692372 0)
(0 0.062155 0)
(0 0.0684132 0)
(0 0.068968 0)
(0 0.0690959 0)
(0 0.0692834 0)
(0 0.00541953 0)
(0 0.0678016 0)
(0 0.0644534 0)
(0 0.0692835 0)
(0 0.0681474 0)
(0 0.0645421 0)
(0 0.06787 0)
(0 0.0692339 0)
(0 0.0608636 0)
(0 0.0673541 0)
(0 0.0617396 0)
(0 0.0692804 0)
(0 0.0636455 0)
(0 0.0692837 0)
(0 0.024384 0)
(0 0.0692784 0)
(0 0.0692807 0)
(0 0.0426839 0)
(0 0.0548725 0)
(0 0.0692387 0)
(0 0.0687927 0)
(0 0.040018 0)
(0 0.0692815 0)
(0 0.0692836 0)
(0 0.0526623 0)
(0 0.0692835 0)
(0 0.0691125 0)
(0 0.0692837 0)
(0 0.0651844 0)
(0 0.0692824 0)
(0 0.0144152 0)
(0 0.0175553 0)
(0 0.0409673 0)
(0 0.069278 0)
(0 0.0692835 0)
(0 0.0692833 0)
(0 0.0649432 0)
(0 0.0208674 0)
(0 0.0692802 0)
(0 0.0677085 0)
(0 0.0330771 0)
(0 0.0692836 0)
(0 0.0691599 0)
(0 0.0577874 0)
(0 0.0665304 0)
(0 0.0692805 0)
(0 0.0692782 0)
(0 0.0692074 0)
(0 0.0690628 0)
(0 0.0692219 0)
(0 0.0692521 0)
(0 0.028658 0)
(0 0.0688443 0)
(0 0.0692359 0)
(0 0.0658236 0)
(0 0.0456328 0)
(0 0.0692813 0)
(0 0.069276 0)
(0 0.0691113 0)
(0 0.0644887 0)
(0 0.0689433 0)
(0 0.0692836 0)
(0 0.0692837 0)
(0 0.0691476 0)
(0 0.0692816 0)
(0 0.0663934 0)
(0 0.0692836 0)
(0 0.0472651 0)
(0 0.069283 0)
(0 0.0692837 0)
(0 0.0681388 0)
(0 0.00608237 0)
(0 0.0692358 0)
(0 0.0692837 0)
(0 0.069158 0)
(0 0.00496375 0)
(0 0.0663056 0)
(0 0.0619334 0)
(0 0.00400811 0)
(0 0.018862 0)
(0 0.0692793 0)
(0 0.0692836 0)
(0 0.0661765 0)
(0 0.0624558 0)
(0 0.00636355 0)
(0 0.0692716 0)
(0 0.0692807 0)
(0 0.0688616 0)
(0 0.0692576 0)
(0 0.0435325 0)
(0 0.0681077 0)
(0 0.0692648 0)
(0 0.0519941 0)
(0 0.06541 0)
(0 0.06925 0)
(0 0.0553746 0)
(0 0.0692799 0)
(0 0.0692796 0)
(0 0.0641518 0)
(0 0.0492424 0)
(0 0.0682976 0)
(0 0.0690021 0)
(0 0.0692836 0)
(0 0.0691532 0)
(0 0.0689729 0)
(0 0.0679704 0)
(0 0.0692832 0)
(0 0.0687555 0)
(0 0.0692728 0)
(0 0.0692837 0)
(0 0.0692716 0)
(0 0.0675392 0)
(0 0.069076 0)
(0 0.0131096 0)
(0 0.0692014 0)
(0 0.0691383 0)
(0 0.0692169 0)
(0 0.0657388 0)
(0 0.0690346 0)
(0 0.0594756 0)
(0 0.068884 0)
(0 0.0689614 0)
(0 0.0692837 0)
(0 0.0691639 0)
(0 0.0656488 0)
(0 0.0692786 0)
(0 0.069055 0)
(0 0.0692835 0)
(0 0.0692833 0)
(0 0.0692794 0)
(0 0.0579784 0)
(0 0.0691673 0)
(0 0.0689092 0)
(0 0.051978 0)
(0 0.0222133 0)
(0 0.0686492 0)
(0 0.0692819 0)
(0 0.0692549 0)
(0 0.0692831 0)
(0 0.0686703 0)
(0 0.0692132 0)
(0 0.0692661 0)
(0 0.0692831 0)
(0 0.0692552 0)
(0 0.0360138 0)
(0 0.0692584 0)
(0 0.0690596 0)
(0 0.00185924 0)
(0 0.0583149 0)
(0 0.0692685 0)
(0 0.0692801 0)
(0 0.067505 0)
(0 0.00508902 0)
(0 0.0689874 0)
(0 0.0689875 0)
(0 0.0692837 0)
(0 0.0692693 0)
(0 0.0540646 0)
(0 0.0613639 0)
(0 0.0690543 0)
(0 0.0692815 0)
(0 0.0651699 0)
(0 0.0692822 0)
(0 0.0692837 0)
(0 0.0692094 0)
(0 0.0458458 0)
(0 0.0692801 0)
(0 0.0689965 0)
(0 0.0692837 0)
(0 0.0520099 0)
(0 0.0692796 0)
(0 0.0573383 0)
(0 0.0691604 0)
(0 0.00646976 0)
(0 0.0692836 0)
(0 0.0692814 0)
(0 0.0679075 0)
(0 0.0692784 0)
(0 0.0680334 0)
(0 0.0448364 0)
(0 0.0692675 0)
(0 0.069156 0)
(0 0.0686485 0)
(0 0.0692807 0)
(0 0.0692837 0)
(0 0.0180408 0)
(0 0.0682445 0)
(0 0.0692835 0)
(0 0.0692834 0)
(0 0.0147987 0)
(0 0.0359496 0)
(0 0.0692837 0)
(0 0.0692206 0)
(0 0.000925649 0)
(0 0.0692619 0)
(0 0.0691668 0)
(0 0.0690548 0)
(0 0.0687427 0)
(0 0.0140943 0)
(0 0.0690656 0)
(0 0.0692837 0)
(0 0.0601194 0)
(0 0.069202 0)
(0 0.0692639 0)
(0 0.0615632 0)
(0 0.060459 0)
(0 0.0690883 0)
(0 0.0692836 0)
(0 0.0691414 0)
(0 0.0686956 0)
(0 0.0681479 0)
(0 0.00157182 0)
(0 0.0692837 0)
(0 0.0692796 0)
(0 0.0692651 0)
(0 0.0450595 0)
(0 0.0692836 0)
(0 0.0692837 0)
(0 0.0692742 0)
(0 0.0692826 0)
(0 0.0691297 0)
(0 0.0168363 0)
(0 0.00597228 0)
(0 0.0689703 0)
(0 0.0692836 0)
(0 0.0692046 0)
(0 0.0672235 0)
(0 0.0692709 0)
(0 0.0687373 0)
(0 0.0145017 0)
(0 0.0692772 0)
(0 0.0226002 0)
(0 0.069279 0)
(0 0.0673763 0)
(0 0.000925386 0)
(0 0.0682957 0)
(0 0.0689886 0)
(0 0.0690759 0)
(0 0.0692638 0)
(0 0.0687549 0)
(0 0.0614867 0)
(0 0.0692641 0)
(0 0.0692806 0)
(0 0.0692803 0)
(0 0.0513922 0)
(0 0.069275 0)
(0 0.0296151 0)
(0 0.0614408 0)
(0 0.0461083 0)
(0 0.0692808 0)
(0 0.00527337 0)
(0 0.0691723 0)
(0 0.0687057 0)
(0 0.0589768 0)
(0 0.0690028 0)
(0 0.0663249 0)
(0 0.0692835 0)
(0 0.0690313 0)
(0 0.0691447 0)
(0 0.056061 0)
(0 0.059911 0)
(0 0.0692836 0)
(0 0.0692837 0)
(0 0.0480535 0)
(0 0.00654528 0)
(0 0.0692766 0)
(0 0.057402 0)
(0 0.0692836 0)
(0 0.055493 0)
(0 0.0692835 0)
(0 0.0633135 0)
(0 0.069266 0)
(0 0.0684912 0)
(0 0.0692835 0)
(0 0.0673978 0)
(0 0.0692701 0)
(0 0.0692766 0)
(0 0.0682416 0)
(0 0.0692192 0)
(0 0.0692755 0)
(0 0.0643136 0)
(0 0.0692836 0)
(0 0.0692563 0)
(0 0.0692837 0)
(0 0.0677945 0)
(0 0.0692837 0)
(0 0.0683003 0)
(0 0.0692832 0)
(0 0.0692743 0)
(0 0.0692452 0)
(0 0.069241 0)
(0 0.0692819 0)
(0 0.0189736 0)
(0 0.0689857 0)
(0 0.0692835 0)
(0 0.0632464 0)
(0 0.0670203 0)
(0 0.0692837 0)
(0 0.0692721 0)
(0 0.0652959 0)
(0 0.0692638 0)
(0 0.0692794 0)
(0 0.0249112 0)
(0 0.0692837 0)
(0 0.0692669 0)
(0 0.0239695 0)
(0 0.0441774 0)
(0 0.0282323 0)
(0 0.0492387 0)
(0 0.0692625 0)
(0 0.069279 0)
(0 0.0692805 0)
(0 0.0692835 0)
(0 0.0505381 0)
(0 0.0692104 0)
(0 0.0692836 0)
(0 0.0688097 0)
(0 0.0692824 0)
(0 0.0692836 0)
(0 0.0692816 0)
(0 0.0292378 0)
(0 0.069263 0)
(0 0.0438642 0)
(0 0.0692788 0)
(0 0.0616706 0)
(0 0.0692836 0)
(0 0.0691719 0)
(0 0.0667751 0)
(0 0.0226975 0)
(0 0.0690325 0)
(0 0.0691789 0)
(0 0.0691102 0)
(0 0.0692837 0)
(0 0.0692834 0)
(0 0.0692837 0)
(0 0.0690881 0)
(0 0.0690845 0)
(0 0.034881 0)
(0 0.0692833 0)
(0 0.0692825 0)
(0 0.0615979 0)
(0 0.0692679 0)
(0 0.0492897 0)
(0 0.0692592 0)
(0 0.063223 0)
(0 0.016491 0)
(0 0.0664062 0)
(0 0.0692824 0)
(0 0.066387 0)
(0 0.0692836 0)
(0 0.0692834 0)
(0 0.0692261 0)
(0 0.0692788 0)
(0 0.064129 0)
(0 0.0692791 0)
(0 0.0692784 0)
(0 0.0388772 0)
(0 0.0692733 0)
(0 0.0629325 0)
(0 0.0522301 0)
(0 0.0691774 0)
(0 0.00226266 0)
(0 0.054127 0)
(0 0.0433728 0)
(0 0.0692592 0)
(0 0.0117616 0)
(0 0.0692837 0)
(0 0.0692813 0)
(0 0.0692836 0)
(0 0.0692538 0)
(0 0.0692835 0)
(0 0.0692837 0)
(0 0.0687827 0)
(0 0.0495645 0)
(0 0.0692313 0)
(0 0.0669219 0)
(0 0.0683896 0)
(0 0.037534 0)
(0 0.0692797 0)
(0 0.069282 0)
(0 0.0692807 0)
(0 0.0678444 0)
(0 0.0691899 0)
(0 0.0676668 0)
(0 0.0671899 0)
(0 0.0691025 0)
(0 0.0662706 0)
(0 0.0692643 0)
(0 0.0642907 0)
(0 0.00635778 0)
(0 0.0692835 0)
(0 0.0692835 0)
(0 0.0692835 0)
(0 0.0692188 0)
(0 0.0692837 0)
(0 0.0692835 0)
(0 0.0692835 0)
(0 0.0692837 0)
(0 0.0182726 0)
(0 0.0690151 0)
(0 0.066218 0)
(0 0.0619511 0)
(0 0.0692678 0)
(0 0.0689833 0)
(0 0.00664852 0)
(0 0.0690556 0)
(0 0.0687455 0)
(0 0.0692837 0)
(0 0.0399225 0)
(0 0.0691996 0)
(0 0.0692834 0)
(0 0.069272 0)
(0 0.0692837 0)
(0 0.010597 0)
(0 0.0618229 0)
(0 0.00336403 0)
(0 0.0687569 0)
(0 0.0277605 0)
(0 0.0692814 0)
(0 0.0692797 0)
(0 0.0687076 0)
(0 0.0692832 0)
(0 0.0678271 0)
(0 0.0692047 0)
(0 0.0692834 0)
(0 0.0692787 0)
(0 0.0692228 0)
(0 0.0692664 0)
(0 0.0692039 0)
(0 0.0690458 0)
(0 0.0692303 0)
(0 0.0687956 0)
(0 0.0692372 0)
(0 0.0692791 0)
(0 0.0688803 0)
(0 0.0691401 0)
(0 0.0062992 0)
(0 0.0692699 0)
(0 0.0679283 0)
(0 0.0517712 0)
(0 0.0687172 0)
(0 0.065423 0)
(0 0.0692837 0)
(0 0.0692814 0)
(0 0.0567724 0)
(0 0.0118324 0)
(0 0.069281 0)
(0 0.0692837 0)
(0 0.00178223 0)
(0 0.0692837 0)
(0 0.065033 0)
(0 0.0692438 0)
(0 0.0577513 0)
(0 0.0692837 0)
(0 0.0692713 0)
(0 0.0682798 0)
(0 0.0641768 0)
(0 0.0692834 0)
(0 0.0692501 0)
(0 0.0692837 0)
(0 0.00201148 0)
(0 0.0692837 0)
(0 0.0692834 0)
(0 0.0692769 0)
(0 0.0520448 0)
(0 0.0692834 0)
(0 0.0692818 0)
(0 0.0688118 0)
(0 0.0443878 0)
(0 0.0644439 0)
(0 0.0691101 0)
(0 0.0692623 0)
(0 0.00838261 0)
(0 0.0429638 0)
(0 0.0136752 0)
(0 0.0143221 0)
(0 0.0692837 0)
(0 0.0692672 0)
(0 0.0687837 0)
(0 0.0692535 0)
(0 0.00436214 0)
(0 0.0274957 0)
(0 0.0691837 0)
(0 0.0692827 0)
(0 0.0685276 0)
(0 0.0599471 0)
(0 0.0524453 0)
(0 0.0494403 0)
(0 0.0692775 0)
(0 0.0692829 0)
(0 0.0195883 0)
(0 0.0494358 0)
(0 0.0692626 0)
(0 0.0687751 0)
(0 0.0684865 0)
(0 0.0615425 0)
(0 0.0665078 0)
(0 0.0681122 0)
(0 0.0691338 0)
(0 0.0692732 0)
(0 0.0692564 0)
(0 0.0692349 0)
(0 0.0691777 0)
(0 0.0692701 0)
(0 0.0691383 0)
(0 0.051081 0)
(0 0.0692837 0)
(0 0.0488406 0)
(0 0.0671776 0)
(0 0.0666683 0)
(0 0.0692694 0)
(0 0.069204 0)
(0 0.00862371 0)
(0 0.0692706 0)
(0 0.0691958 0)
(0 0.0692836 0)
(0 0.0691768 0)
(0 0.0689626 0)
(0 0.0687868 0)
(0 0.0244238 0)
(0 0.0692807 0)
(0 0.0692674 0)
(0 0.0692828 0)
(0 0.0639211 0)
(0 0.0682538 0)
(0 0.0692556 0)
(0 0.0692836 0)
(0 0.0692837 0)
(0 0.0690819 0)
(0 0.0692267 0)
(0 0.0677793 0)
(0 0.0670634 0)
(0 0.0618155 0)
(0 0.0691643 0)
(0 0.069243 0)
(0 0.0624459 0)
(0 0.0689841 0)
(0 0.0692624 0)
(0 0.0692827 0)
(0 0.0692837 0)
(0 0.0672242 0)
(0 0.0691998 0)
(0 0.0692698 0)
(0 0.0684284 0)
(0 0.0648705 0)
(0 0.0692836 0)
(0 0.0692798 0)
(0 0.0692804 0)
(0 0.0692514 0)
(0 0.0204102 0)
(0 0.0692837 0)
(0 0.0691022 0)
(0 0.00647714 0)
(0 0.0684615 0)
(0 0.0691216 0)
(0 0.0689192 0)
(0 0.069172 0)
(0 0.0692825 0)
(0 0.069226 0)
(0 0.0686555 0)
(0 0.0692807 0)
(0 0.0659524 0)
(0 0.0692837 0)
(0 0.0137438 0)
(0 0.0209306 0)
(0 0.0692755 0)
(0 0.06928 0)
(0 0.0692804 0)
(0 0.0659537 0)
(0 0.0654301 0)
(0 0.0488168 0)
(0 0.0687645 0)
(0 0.0692835 0)
(0 0.0692097 0)
(0 0.0671794 0)
(0 0.0692157 0)
(0 0.0690225 0)
(0 0.0582241 0)
(0 0.0692782 0)
(0 0.0692058 0)
(0 0.0692647 0)
(0 0.0528993 0)
(0 0.0692242 0)
(0 0.0653843 0)
(0 0.0692833 0)
(0 0.0691103 0)
(0 0.0691979 0)
(0 0.068296 0)
(0 0.0159004 0)
(0 0.0503095 0)
(0 0.0622952 0)
(0 0.069242 0)
(0 0.068448 0)
(0 0.0692554 0)
(0 0.0692836 0)
(0 0.069022 0)
(0 0.0244478 0)
(0 0.0692245 0)
(0 0.0692809 0)
(0 0.0692702 0)
(0 0.0597315 0)
(0 0.0683477 0)
(0 0.0427021 0)
(0 0.0680151 0)
(0 0.0674658 0)
(0 0.0692819 0)
(0 0.0159576 0)
(0 0.0692798 0)
(0 0.0679617 0)
(0 0.0692369 0)
(0 0.0691633 0)
(0 0.0692836 0)
(0 0.069198 0)
(0 0.0641385 0)
(0 0.0692836 0)
(0 0.0692837 0)
(0 0.0615849 0)
(0 0.0665783 0)
(0 0.0692711 0)
(0 0.0692468 0)
(0 0.0691994 0)
(0 0.00255484 0)
(0 0.0642989 0)
(0 0.0692622 0)
(0 0.0668948 0)
(0 0.0691016 0)
(0 0.0690685 0)
(0 0.0509768 0)
(0 0.0689873 0)
(0 0.0692814 0)
(0 0.0594996 0)
(0 0.0649635 0)
(0 0.0143326 0)
(0 0.0692837 0)
(0 0.00807719 0)
(0 0.0677155 0)
(0 0.0692837 0)
(0 0.0669074 0)
(0 0.0692795 0)
(0 0.0680017 0)
(0 0.0689894 0)
(0 0.0149514 0)
(0 0.069093 0)
(0 0.0452543 0)
(0 0.0690394 0)
(0 0.0105522 0)
(0 0.0691964 0)
(0 0.0649553 0)
(0 0.0692831 0)
(0 0.0692832 0)
(0 0.0692827 0)
(0 0.00341879 0)
(0 0.0206132 0)
(0 0.0691218 0)
(0 0.0689689 0)
(0 0.0692837 0)
(0 0.0692823 0)
(0 0.0689811 0)
(0 0.0530587 0)
(0 0.0692571 0)
(0 0.069281 0)
(0 0.0692633 0)
(0 0.0692519 0)
(0 0.0689446 0)
(0 0.0692822 0)
(0 0.0688472 0)
(0 0.0686895 0)
(0 0.0692186 0)
(0 0.0692658 0)
(0 0.068962 0)
(0 0.0692824 0)
(0 0.0689558 0)
(0 0.0658608 0)
(0 0.0691355 0)
(0 0.0682849 0)
(0 0.0553911 0)
(0 0.0679604 0)
(0 0.068932 0)
(0 0.0682339 0)
(0 0.0461889 0)
(0 0.00467572 0)
(0 0.0690237 0)
(0 0.0659139 0)
(0 0.0691116 0)
(0 0.0522555 0)
(0 0.0479413 0)
(0 0.00663043 0)
(0 0.0665094 0)
(0 0.0384569 0)
(0 0.0678535 0)
(0 0.0149564 0)
(0 0.0692837 0)
(0 0.0690479 0)
(0 0.0692774 0)
(0 0.027281 0)
(0 0.00948777 0)
(0 0.069139 0)
(0 0.0690619 0)
(0 0.0658833 0)
(0 0.0692782 0)
(0 0.069164 0)
(0 0.0692777 0)
(0 0.0680057 0)
(0 0.0692059 0)
(0 0.0640178 0)
(0 0.0071143 0)
(0 0.0130135 0)
(0 0.0663645 0)
(0 0.0692837 0)
(0 0.00819075 0)
(0 0.0692729 0)
(0 0.0679549 0)
(0 0.0692836 0)
(0 0.0691184 0)
(0 0.0691696 0)
(0 0.0692333 0)
(0 0.0405939 0)
(0 0.000290989 0)
(0 0.0690614 0)
(0 0.0549355 0)
(0 0.0649104 0)
(0 0.0692769 0)
(0 0.0658694 0)
(0 0.0281295 0)
(0 0.0680815 0)
(0 0.032684 0)
(0 0.0100219 0)
(0 0.068192 0)
(0 0.068511 0)
(0 0.0692837 0)
(0 0.0686801 0)
(0 0.0595191 0)
(0 0.00665394 0)
(0 0.0692835 0)
(0 0.0692456 0)
(0 0.0636085 0)
(0 0.063738 0)
(0 0.0692774 0)
(0 0.0692706 0)
(0 0.0692837 0)
(0 0.0689428 0)
(0 0.0659368 0)
(0 0.0184589 0)
(0 0.0118587 0)
(0 0.0689007 0)
(0 0.0687197 0)
(0 0.0692608 0)
(0 0.0679026 0)
(0 0.0692836 0)
(0 0.0642305 0)
(0 0.0671505 0)
(0 0.0692837 0)
(0 0.0489336 0)
(0 0.0679843 0)
(0 0.0603653 0)
(0 0.0078194 0)
(0 0.0689186 0)
(0 0.069098 0)
(0 0.0645145 0)
(0 0.0692799 0)
(0 0.0692837 0)
(0 0.0691677 0)
(0 0.0516625 0)
(0 0.0440005 0)
(0 0.0692078 0)
(0 0.0692722 0)
(0 0.00275276 0)
(0 0.0692683 0)
(0 0.0430776 0)
(0 0.0688936 0)
(0 0.0562562 0)
(0 0.056542 0)
(0 0.0692645 0)
(0 0.0609193 0)
(0 0.0692743 0)
(0 0.0687999 0)
(0 0.00680308 0)
(0 0.0330683 0)
(0 0.0595079 0)
(0 0.0530886 0)
(0 0.064775 0)
(0 0.0692836 0)
(0 0.0587972 0)
(0 0.0549041 0)
(0 0.0692823 0)
(0 0.0692806 0)
(0 0.068706 0)
(0 0.068946 0)
(0 0.0690875 0)
(0 0.0673096 0)
(0 0.0528156 0)
(0 0.0684549 0)
(0 0.0692837 0)
(0 0.069203 0)
(0 0.0357725 0)
(0 0.0638826 0)
(0 0.0692821 0)
(0 0.0686479 0)
(0 0.0692834 0)
(0 0.0083677 0)
(0 0.0661185 0)
(0 0.0692837 0)
(0 0.0685242 0)
(0 0.064714 0)
(0 0.0692837 0)
(0 0.069283 0)
(0 0.052582 0)
(0 0.0692114 0)
(0 0.0138297 0)
(0 0.0605389 0)
(0 0.0287554 0)
(0 0.0692836 0)
(0 0.037143 0)
(0 0.0597595 0)
(0 0.0528083 0)
(0 0.0692759 0)
(0 0.0667593 0)
(0 0.0692456 0)
(0 0.0692053 0)
(0 0.0566644 0)
(0 0.0688616 0)
(0 0.0187064 0)
(0 0.0692835 0)
(0 0.0389227 0)
(0 0.0591707 0)
(0 0.0279684 0)
(0 0.0692125 0)
(0 0.0291759 0)
(0 0.0692283 0)
(0 0.0692837 0)
(0 0.0692804 0)
(0 0.0682734 0)
(0 0.0692663 0)
(0 0.0692837 0)
(0 0.0597299 0)
(0 0.0692837 0)
(0 0.069281 0)
(0 0.0692836 0)
(0 0.0692835 0)
(0 0.0692824 0)
(0 0.0692835 0)
(0 0.069219 0)
(0 0.0645679 0)
(0 0.0692826 0)
(0 0.0684973 0)
(0 0.0692827 0)
(0 0.0513972 0)
(0 0.0577844 0)
(0 0.0637721 0)
(0 0.0199418 0)
(0 0.0675861 0)
(0 0.0687638 0)
(0 0.0692837 0)
(0 0.0572333 0)
(0 0.0475294 0)
(0 0.0692837 0)
(0 0.0692686 0)
(0 0.0594203 0)
(0 0.0690186 0)
(0 0.0682919 0)
(0 0.0630915 0)
(0 0.0692832 0)
(0 0.0690283 0)
(0 0.0673174 0)
(0 0.0667347 0)
(0 0.0692837 0)
(0 0.0692837 0)
(0 0.0692828 0)
(0 0.0557947 0)
(0 0.0692487 0)
(0 0.0691894 0)
(0 0.0692836 0)
(0 0.0692817 0)
(0 0.0691536 0)
(0 0.057857 0)
(0 0.0642687 0)
(0 0.0641903 0)
(0 0.0131577 0)
(0 0.0666036 0)
(0 0.0160359 0)
(0 0.0680815 0)
(0 0.0688282 0)
(0 0.0692831 0)
(0 0.0692176 0)
(0 0.0599037 0)
(0 0.0692001 0)
(0 0.0692834 0)
(0 0.0688786 0)
(0 0.0642025 0)
(0 0.0692837 0)
(0 0.0584375 0)
(0 0.0646043 0)
(0 0.0690162 0)
(0 0.069283 0)
(0 0.029356 0)
(0 0.053315 0)
(0 0.0692823 0)
(0 0.0692634 0)
(0 0.069269 0)
(0 0.0691906 0)
(0 0.0692682 0)
(0 0.0520158 0)
(0 0.0692351 0)
(0 0.0645344 0)
(0 0.0400292 0)
(0 0.0645468 0)
(0 0.0692817 0)
(0 0.0692837 0)
(0 0.0551838 0)
(0 0.0343784 0)
(0 0.0608778 0)
(0 0.0692719 0)
(0 0.0663453 0)
(0 0.0682614 0)
(0 0.0540274 0)
(0 0.0650064 0)
(0 0.069232 0)
(0 0.0571288 0)
(0 0.0690533 0)
(0 0.0692651 0)
(0 0.0692834 0)
(0 0.0611671 0)
(0 0.0691969 0)
(0 0.0673576 0)
(0 0.0692836 0)
(0 0.0692835 0)
(0 0.0533731 0)
(0 0.0692836 0)
(0 0.0691049 0)
(0 0.0692828 0)
(0 0.0296158 0)
(0 0.0692826 0)
(0 0.0140607 0)
(0 0.0678201 0)
(0 0.0689168 0)
(0 0.0691883 0)
(0 0.0692814 0)
(0 0.0692659 0)
(0 0.0692421 0)
(0 0.06928 0)
(0 0.0146252 0)
(0 0.0692584 0)
(0 0.0563866 0)
(0 0.0682337 0)
(0 0.0692824 0)
(0 0.0622667 0)
(0 0.0123159 0)
(0 0.0657437 0)
(0 0.0630098 0)
(0 0.0692832 0)
(0 0.0366847 0)
(0 0.0352619 0)
(0 0.0690021 0)
(0 0.0689407 0)
(0 0.0689405 0)
(0 0.0692803 0)
(0 0.0692169 0)
(0 0.0692837 0)
(0 0.0690466 0)
(0 0.0686067 0)
(0 0.0686573 0)
(0 0.0692837 0)
(0 0.0687294 0)
(0 0.0692795 0)
(0 0.0692825 0)
(0 0.0672976 0)
(0 0.0573264 0)
(0 0.0692835 0)
(0 0.069264 0)
(0 0.064147 0)
(0 0.069193 0)
(0 0.0685634 0)
(0 0.0631815 0)
(0 0.0676669 0)
(0 0.0632916 0)
(0 0.0689049 0)
(0 0.000666225 0)
(0 0.0689315 0)
(0 0.0692547 0)
(0 0.0434596 0)
(0 0.0690523 0)
(0 0.0567638 0)
(0 0.069172 0)
(0 0.0124607 0)
(0 0.0681802 0)
(0 0.0690256 0)
(0 0.0660974 0)
(0 0.0620152 0)
(0 0.0553485 0)
(0 0.0692831 0)
(0 0.0691518 0)
(0 0.0692792 0)
(0 0.0548253 0)
(0 0.0631211 0)
(0 0.0690356 0)
(0 0.0601034 0)
(0 0.069165 0)
(0 0.0691608 0)
(0 0.0631039 0)
(0 0.0691734 0)
(0 0.0561815 0)
(0 0.0692788 0)
(0 0.0638282 0)
(0 0.0686262 0)
(0 0.0692837 0)
(0 0.069257 0)
(0 0.0527858 0)
(0 0.0670621 0)
(0 0.0692837 0)
(0 0.0394502 0)
(0 0.0433023 0)
(0 0.0692836 0)
(0 0.0692836 0)
(0 0.0675348 0)
(0 0.0692371 0)
(0 0.0228721 0)
(0 0.0619364 0)
(0 0.0692816 0)
(0 0.0661324 0)
(0 0.0408988 0)
(0 0.0692626 0)
(0 0.0570775 0)
(0 0.0692713 0)
(0 0.0195212 0)
(0 0.0398806 0)
(0 0.0638002 0)
(0 0.0692216 0)
(0 0.0692836 0)
(0 0.0625269 0)
(0 0.064357 0)
(0 0.0514546 0)
(0 0.0680549 0)
(0 0.00699623 0)
(0 0.0692818 0)
(0 0.0690332 0)
(0 0.00238568 0)
(0 0.0692793 0)
(0 0.0691119 0)
(0 0.0692607 0)
(0 0.0692835 0)
(0 0.0692836 0)
(0 0.0544343 0)
(0 0.0638572 0)
(0 0.0616368 0)
(0 0.069279 0)
(0 0.0681887 0)
(0 0.0692836 0)
(0 0.0692837 0)
(0 0.0673825 0)
(0 0.0692825 0)
(0 0.0692834 0)
(0 0.0689356 0)
(0 0.0692312 0)
(0 0.0691843 0)
(0 0.0692788 0)
(0 0.0692812 0)
(0 0.0691832 0)
(0 0.0692731 0)
(0 0.0692835 0)
(0 0.0690541 0)
(0 0.0678808 0)
(0 0.0692837 0)
(0 0.0691771 0)
(0 0.0518133 0)
(0 0.0660211 0)
(0 0.0692803 0)
(0 0.0689043 0)
(0 0.0562913 0)
(0 0.0691086 0)
(0 0.0691772 0)
(0 0.0688304 0)
(0 0.0692837 0)
(0 0.0670874 0)
(0 0.0692792 0)
(0 0.0686798 0)
(0 0.0692627 0)
(0 0.0692065 0)
(0 0.0692509 0)
(0 0.0682178 0)
(0 0.0556105 0)
(0 0.0654825 0)
(0 0.069281 0)
(0 0.0467533 0)
(0 0.0674729 0)
(0 0.00774001 0)
(0 0.0665668 0)
(0 0.0578783 0)
(0 0.0689321 0)
(0 0.0692334 0)
(0 0.0692831 0)
(0 0.0691045 0)
(0 0.0691922 0)
(0 0.0692804 0)
(0 0.0692716 0)
(0 0.0579192 0)
(0 0.0692716 0)
(0 0.0692814 0)
(0 0.0475746 0)
(0 0.043614 0)
(0 0.0683695 0)
(0 0.0692837 0)
(0 0.0119695 0)
(0 0.0690957 0)
(0 0.0692746 0)
(0 0.0690303 0)
(0 0.0600737 0)
(0 0.0654163 0)
(0 0.0577249 0)
(0 0.0691912 0)
(0 0.0689411 0)
(0 0.0155439 0)
(0 0.0692831 0)
(0 0.0692823 0)
(0 0.0690396 0)
(0 0.0692697 0)
(0 0.0690665 0)
(0 0.0692788 0)
(0 0.0667721 0)
(0 0.0674271 0)
(0 0.0692798 0)
(0 0.0692704 0)
(0 0.0691615 0)
(0 0.069283 0)
(0 0.0682284 0)
(0 0.00510177 0)
(0 0.0601864 0)
(0 0.0634152 0)
(0 0.0569012 0)
(0 0.0656819 0)
(0 0.0690965 0)
(0 0.0528704 0)
(0 0.0692123 0)
(0 0.0337787 0)
(0 0.0681622 0)
(0 0.0555983 0)
(0 0.0691615 0)
(0 0.0692112 0)
(0 0.0692713 0)
(0 0.059136 0)
(0 0.0692523 0)
(0 0.0602546 0)
(0 0.0692793 0)
(0 0.0504188 0)
(0 0.0680114 0)
(0 0.0364311 0)
(0 0.0692565 0)
(0 0.0692836 0)
(0 0.069228 0)
(0 0.0532709 0)
(0 0.0692158 0)
(0 0.0614843 0)
(0 0.0683761 0)
(0 0.0692836 0)
(0 0.0601192 0)
(0 0.0645468 0)
(0 0.0689114 0)
(0 0.0684374 0)
(0 0.0692825 0)
(0 0.0533255 0)
(0 0.0685803 0)
(0 0.0652528 0)
(0 0.0450195 0)
(0 0.0688156 0)
(0 0.0651989 0)
(0 0.0234492 0)
(0 0.0671832 0)
(0 0.0692837 0)
(0 0.0672705 0)
(0 0.0692636 0)
(0 0.0692802 0)
(0 0.0689733 0)
(0 0.0692836 0)
(0 0.0671574 0)
(0 0.0218922 0)
(0 0.0686841 0)
(0 0.0692837 0)
(0 0.0656278 0)
(0 0.0688704 0)
(0 0.0687882 0)
(0 0.0692797 0)
(0 0.0522584 0)
(0 0.0692836 0)
(0 0.0690646 0)
(0 0.069099 0)
(0 0.0471089 0)
(0 0.0322271 0)
(0 0.0692385 0)
(0 0.0648586 0)
(0 0.00351186 0)
(0 0.0689009 0)
(0 0.0508333 0)
(0 0.0676612 0)
(0 0.0682222 0)
(0 0.0690997 0)
(0 0.0692761 0)
(0 0.0692821 0)
(0 0.066931 0)
(0 0.0691198 0)
(0 0.0692728 0)
(0 0.0692837 0)
(0 0.0686564 0)
(0 0.0692738 0)
(0 0.0692837 0)
(0 0.0687389 0)
(0 0.0692797 0)
(0 0.0672383 0)
(0 0.0692827 0)
(0 0.0692837 0)
(0 0.0522164 0)
(0 0.00351012 0)
(0 0.0391449 0)
(0 0.0642678 0)
(0 0.0689149 0)
(0 0.0559305 0)
(0 0.0672882 0)
(0 0.0691521 0)
(0 0.0661572 0)
(0 0.0689031 0)
(0 0.0692836 0)
(0 0.068709 0)
(0 0.0667443 0)
(0 0.0692819 0)
(0 0.0647415 0)
(0 0.0692837 0)
(0 0.0666961 0)
(0 0.0691663 0)
(0 0.0519157 0)
(0 0.0692837 0)
(0 0.0692837 0)
(0 0.0616632 0)
(0 0.0646386 0)
(0 0.069282 0)
(0 0.0686568 0)
(0 0.0692837 0)
(0 0.0177962 0)
(0 0.0572458 0)
(0 0.0692827 0)
(0 0.064747 0)
(0 0.0691106 0)
(0 0.0692835 0)
(0 0.0486841 0)
(0 0.0689997 0)
(0 0.068308 0)
(0 0.0335283 0)
(0 0.00670336 0)
(0 0.0692825 0)
(0 0.0692837 0)
(0 0.0635332 0)
(0 0.0662274 0)
(0 0.0614739 0)
(0 0.0680002 0)
(0 0.0689728 0)
(0 0.0692837 0)
(0 0.0659009 0)
(0 0.0692835 0)
(0 0.0692747 0)
(0 0.0692632 0)
(0 0.0692718 0)
(0 0.0646462 0)
(0 0.0692082 0)
(0 0.069267 0)
(0 0.0686058 0)
(0 0.0471749 0)
(0 0.0690344 0)
(0 0.0692836 0)
(0 0.067009 0)
(0 0.0691252 0)
(0 0.069281 0)
(0 0.0692837 0)
(0 0.0692758 0)
(0 0.0679525 0)
(0 0.064147 0)
(0 0.0135479 0)
(0 0.0489714 0)
(0 0.0692837 0)
(0 0.0689981 0)
(0 0.0664318 0)
(0 0.0648949 0)
(0 0.0670906 0)
(0 0.00615784 0)
(0 0.0595467 0)
(0 0.0548925 0)
(0 0.0691096 0)
(0 0.0686269 0)
(0 0.0692791 0)
(0 0.0691263 0)
(0 0.0692835 0)
(0 0.0692836 0)
(0 0.0686468 0)
(0 0.068949 0)
(0 0.0284965 0)
(0 0.0683771 0)
(0 0.0692837 0)
(0 0.0632958 0)
(0 0.0669424 0)
(0 0.0689558 0)
(0 0.0692038 0)
(0 0.0691764 0)
(0 0.0692812 0)
(0 0.0692635 0)
(0 0.0584474 0)
(0 0.0692836 0)
(0 0.032101 0)
(0 0.0633957 0)
(0 0.069101 0)
(0 0.00688002 0)
(0 0.0600279 0)
(0 0.0692368 0)
(0 0.0692787 0)
(0 0.0573787 0)
(0 0.0692805 0)
(0 0.0629072 0)
(0 0.0542501 0)
(0 0.0668006 0)
(0 0.0692835 0)
(0 0.0683296 0)
(0 0.0666311 0)
(0 0.0692804 0)
(0 0.0659402 0)
(0 0.0692598 0)
(0 0.0692834 0)
(0 0.00256185 0)
(0 0.0691393 0)
(0 0.0184978 0)
(0 0.0692837 0)
(0 0.0691056 0)
(0 0.0554886 0)
(0 0.0692818 0)
(0 0.0689895 0)
(0 0.0692298 0)
(0 0.00471917 0)
(0 0.0692837 0)
(0 0.0685924 0)
(0 0.0692779 0)
(0 0.0648624 0)
(0 0.0692177 0)
(0 0.0692837 0)
(0 0.0547675 0)
(0 0.0692827 0)
(0 0.0621609 0)
(0 0.0690644 0)
(0 0.0691666 0)
(0 0.00192967 0)
(0 0.0692835 0)
(0 0.0670786 0)
(0 0.069199 0)
(0 0.0690246 0)
(0 0.0692465 0)
(0 0.0690117 0)
(0 0.0690752 0)
(0 0.0656847 0)
(0 0.069281 0)
(0 0.0687498 0)
(0 0.0692837 0)
(0 0.0686685 0)
(0 0.0690584 0)
(0 0.060738 0)
(0 0.0688957 0)
(0 0.0597948 0)
(0 0.0690692 0)
(0 0.0692809 0)
(0 0.0659343 0)
(0 0.0526631 0)
(0 0.0692835 0)
(0 0.0652875 0)
(0 0.0692741 0)
(0 0.0645741 0)
(0 0.0692808 0)
(0 0.0692646 0)
(0 0.0686942 0)
(0 0.0467769 0)
(0 0.0464639 0)
(0 0.040653 0)
(0 0.0200331 0)
(0 0.0691806 0)
(0 0.0691637 0)
(0 0.0690255 0)
(0 0.0678247 0)
(0 0.0223783 0)
(0 0.0692702 0)
(0 0.0663092 0)
(0 0.0686525 0)
(0 0.0692712 0)
(0 0.058688 0)
(0 0.0692833 0)
(0 0.0689546 0)
(0 0.0680797 0)
(0 0.0692828 0)
(0 0.0692836 0)
(0 0.0692646 0)
(0 0.0692804 0)
(0 0.0692758 0)
(0 0.0524829 0)
(0 0.0692675 0)
(0 0.0692836 0)
(0 0.0692778 0)
(0 0.017805 0)
(0 0.0634502 0)
(0 0.0692042 0)
(0 0.069282 0)
(0 0.0692837 0)
(0 0.0692691 0)
(0 0.0627646 0)
(0 0.0691412 0)
(0 0.0687661 0)
(0 0.0692835 0)
(0 0.0692836 0)
(0 0.0687907 0)
(0 0.0692139 0)
(0 0.067219 0)
(0 0.0691569 0)
(0 0.0691597 0)
(0 0.0190249 0)
(0 0.0691843 0)
(0 0.0692777 0)
(0 0.0370824 0)
(0 0.069273 0)
(0 0.00759065 0)
(0 0.0605148 0)
(0 0.0692837 0)
(0 0.0692836 0)
(0 0.0264798 0)
(0 0.063113 0)
(0 0.0647558 0)
(0 0.0572321 0)
(0 0.0690726 0)
(0 0.0692385 0)
(0 0.0653479 0)
(0 0.0389191 0)
(0 0.0247024 0)
(0 0.0687367 0)
(0 0.06816 0)
(0 0.0681213 0)
(0 0.0692629 0)
(0 0.055509 0)
(0 0.0692835 0)
(0 0.0692837 0)
(0 0.0692831 0)
(0 0.0692636 0)
(0 0.0689817 0)
(0 0.0692683 0)
(0 0.0685006 0)
(0 0.0692826 0)
(0 0.0692708 0)
(0 0.0692759 0)
(0 0.0648619 0)
(0 0.0692819 0)
(0 0.0692836 0)
(0 0.0193685 0)
(0 0.0447499 0)
(0 0.0691827 0)
(0 0.0692834 0)
(0 0.0692781 0)
(0 0.0568883 0)
(0 0.0615384 0)
(0 0.0692835 0)
(0 0.0692783 0)
(0 0.0692748 0)
(0 0.0670674 0)
(0 0.0674115 0)
(0 0.0692833 0)
(0 0.0636831 0)
(0 0.0692834 0)
(0 0.0692831 0)
(0 0.0692694 0)
(0 0.0692746 0)
(0 0.060572 0)
(0 0.053202 0)
(0 0.0173622 0)
(0 0.0681814 0)
(0 0.0692836 0)
(0 0.0687461 0)
(0 0.0672997 0)
(0 0.0656816 0)
(0 0.0692023 0)
(0 0.0692837 0)
(0 0.0687359 0)
(0 0.0692783 0)
(0 0.0692836 0)
(0 0.0692837 0)
(0 0.0692834 0)
(0 0.0490832 0)
(0 0.0169108 0)
(0 0.0692805 0)
(0 0.0335526 0)
(0 0.051562 0)
(0 0.0665801 0)
(0 0.0692836 0)
(0 0.0686794 0)
(0 0.0692829 0)
(0 0.0692114 0)
(0 0.0486785 0)
(0 0.0692825 0)
(0 0.068776 0)
(0 0.0578456 0)
(0 0.0692837 0)
(0 0.0692683 0)
(0 0.0678977 0)
(0 0.0619283 0)
(0 0.0692836 0)
(0 0.0692834 0)
(0 0.0279528 0)
(0 0.0692785 0)
(0 0.0692754 0)
(0 0.0692827 0)
(0 0.0692744 0)
(0 0.0691689 0)
(0 0.0571945 0)
(0 0.0648044 0)
(0 0.069277 0)
(0 0.0676084 0)
(0 0.0692801 0)
(0 0.0688429 0)
(0 0.069274 0)
(0 0.0692616 0)
(0 0.0662187 0)
(0 0.0685765 0)
(0 0.058301 0)
(0 0.0659378 0)
(0 0.0692832 0)
(0 0.0692837 0)
(0 0.048982 0)
(0 0.0692836 0)
(0 0.0688142 0)
(0 0.0617989 0)
(0 0.0678004 0)
(0 0.0474541 0)
(0 0.0692306 0)
(0 0.0646161 0)
(0 0.0692833 0)
(0 0.0691486 0)
(0 0.0570472 0)
(0 0.0086888 0)
(0 0.0692432 0)
(0 0.0692837 0)
(0 0.0687329 0)
(0 0.0672304 0)
(0 0.0688598 0)
(0 0.0593582 0)
(0 0.0659878 0)
(0 0.0678774 0)
(0 0.0692837 0)
(0 0.0692836 0)
(0 0.0692834 0)
(0 0.0310531 0)
(0 0.0162028 0)
(0 0.0648229 0)
(0 0.06921 0)
(0 0.0457123 0)
(0 0.0649701 0)
(0 0.069239 0)
(0 0.0690244 0)
(0 0.0692689 0)
(0 0.0513009 0)
(0 0.0692834 0)
(0 0.0692836 0)
(0 0.000636762 0)
(0 0.0692837 0)
(0 0.0691997 0)
(0 0.0686409 0)
(0 0.0692833 0)
(0 0.0643972 0)
(0 0.0692833 0)
(0 0.068622 0)
(0 0.0666727 0)
(0 0.0674038 0)
(0 0.0318274 0)
(0 0.0692612 0)
(0 0.00161407 0)
(0 0.0646325 0)
(0 0.0687541 0)
(0 0.0692836 0)
(0 0.0692836 0)
(0 0.0087885 0)
(0 0.00413189 0)
(0 0.0665981 0)
(0 0.0611527 0)
(0 0.0692131 0)
(0 0.0648374 0)
(0 0.0691448 0)
(0 0.0662422 0)
(0 0.0692836 0)
(0 0.0645567 0)
(0 0.0692828 0)
(0 0.035038 0)
(0 0.0692825 0)
(0 0.0643583 0)
(0 0.0327235 0)
(0 0.0692825 0)
(0 0.0692771 0)
(0 0.0692554 0)
(0 0.0692689 0)
(0 0.0691107 0)
(0 0.0687686 0)
(0 0.0539362 0)
(0 0.0692837 0)
(0 0.0496955 0)
(0 0.0454915 0)
(0 0.0692409 0)
(0 0.0690445 0)
(0 0.0692827 0)
(0 0.0692836 0)
(0 0.0692031 0)
(0 0.069279 0)
(0 0.069208 0)
(0 0.0692675 0)
(0 0.00787975 0)
(0 0.0672726 0)
(0 0.0679727 0)
(0 0.0692835 0)
(0 0.0678269 0)
(0 0.0692835 0)
(0 0.0692837 0)
(0 0.0625607 0)
(0 0.0597208 0)
(0 0.0611422 0)
(0 0.0692761 0)
(0 0.0692836 0)
(0 0.0660648 0)
(0 0.0348674 0)
(0 0.0680168 0)
(0 0.0681879 0)
(0 0.0687166 0)
(0 0.0692588 0)
(0 0.0692659 0)
(0 0.0231127 0)
(0 0.0692802 0)
(0 0.0691513 0)
(0 0.0692837 0)
(0 0.0691107 0)
(0 0.0666346 0)
(0 0.0668377 0)
(0 0.0692827 0)
(0 0.0141102 0)
(0 0.0691584 0)
(0 0.0692815 0)
(0 0.0659604 0)
(0 0.0677157 0)
(0 0.0692403 0)
(0 0.0692611 0)
(0 0.0661282 0)
(0 0.0692837 0)
(0 0.0671008 0)
(0 0.0692592 0)
(0 0.0687101 0)
(0 0.0686587 0)
(0 0.0649525 0)
(0 0.0692834 0)
(0 0.0345754 0)
(0 0.0692376 0)
(0 0.069283 0)
(0 0.0692832 0)
(0 0.0689434 0)
(0 0.0690967 0)
(0 0.0673655 0)
(0 0.0691246 0)
(0 0.00879471 0)
(0 0.069283 0)
(0 0.0677205 0)
(0 0.0607088 0)
(0 0.0682964 0)
(0 0.0241292 0)
(0 0.0027114 0)
(0 0.0692836 0)
(0 0.0458627 0)
(0 0.00213826 0)
(0 0.0616466 0)
(0 0.0692167 0)
(0 0.0637705 0)
(0 0.068621 0)
(0 0.0691099 0)
(0 0.0692474 0)
(0 0.0691985 0)
(0 0.0120746 0)
(0 0.0692669 0)
(0 0.0692777 0)
(0 0.069243 0)
(0 0.0691498 0)
(0 0.0684063 0)
(0 0.0692286 0)
(0 0.0692802 0)
(0 0.0692693 0)
(0 0.0013787 0)
(0 0.0692764 0)
(0 0.0692812 0)
(0 0.00122196 0)
(0 0.0669705 0)
(0 0.0280666 0)
(0 0.0692805 0)
(0 0.0691894 0)
(0 0.0615057 0)
(0 0.069283 0)
(0 0.0692835 0)
(0 0.00935635 0)
(0 0.0634093 0)
(0 0.0692817 0)
(0 0.0692837 0)
(0 0.0690584 0)
(0 0.0363573 0)
(0 0.0692773 0)
(0 0.0692834 0)
(0 0.0692836 0)
(0 0.0456119 0)
(0 0.0692835 0)
(0 0.0691372 0)
(0 0.0692177 0)
(0 0.0692835 0)
(0 0.0677157 0)
(0 0.0285649 0)
(0 0.0683241 0)
(0 0.0692375 0)
(0 0.0684368 0)
(0 0.0692818 0)
(0 0.0692833 0)
(0 0.0527315 0)
(0 0.0692789 0)
(0 0.069277 0)
(0 0.0692836 0)
(0 0.0360922 0)
(0 0.069161 0)
(0 0.0641304 0)
(0 0.0574504 0)
(0 0.0692833 0)
(0 0.0692718 0)
(0 0.0692558 0)
(0 0.0692735 0)
(0 0.068549 0)
(0 0.0689504 0)
(0 0.00273165 0)
(0 0.0692832 0)
(0 0.0692837 0)
(0 0.053547 0)
(0 0.0638425 0)
(0 0.0688141 0)
(0 0.0579743 0)
(0 0.068952 0)
(0 0.0692826 0)
(0 0.0692792 0)
(0 0.0689684 0)
(0 0.0645945 0)
(0 0.0622429 0)
(0 0.0692833 0)
(0 0.0678957 0)
(0 0.0689739 0)
(0 0.0513517 0)
(0 0.0664258 0)
(0 0.0692718 0)
(0 0.0692723 0)
(0 0.0692652 0)
(0 0.0692834 0)
(0 0.0159837 0)
(0 0.0692567 0)
(0 0.00299813 0)
(0 0.0691289 0)
(0 0.0692795 0)
(0 0.0692837 0)
(0 0.0449987 0)
(0 0.00156379 0)
(0 0.0685647 0)
(0 0.0680832 0)
(0 0.0630941 0)
(0 0.069283 0)
(0 0.0692835 0)
(0 0.0547969 0)
(0 0.0113114 0)
(0 0.0256021 0)
(0 0.0379751 0)
(0 0.0692834 0)
(0 0.0546458 0)
(0 0.0692816 0)
(0 0.0691828 0)
(0 0.0690404 0)
(0 0.0573315 0)
(0 0.0690175 0)
(0 0.0692832 0)
(0 0.0685296 0)
(0 0.0692759 0)