/*--------------------------------*- C++ -*----------------------------------*\
| =========                 |                                                 |
| \\      /  F ield         | OpenFOAM: The Open Source CFD Toolbox           |
|  \\    /   O peration     | Version:  v2012                                 |
|   \\  /    A nd           | Website:  www.openfoam.com                      |
|    \\/     M anipulation  |                                                 |
\*---------------------------------------------------------------------------*/
FoamFile
{
    version     2.0;
    format      ascii;
    class       volVectorField;
    location    "600";
    object      U_0;
}
// * * * * * * * * * * * * * * * * * * * * * * * * * * * * * * * * * * * * * //

dimensions      [0 1 -1 0 0 0 0];


internalField   nonuniform List<vector> 
13917
(
(1.09345 0.119662 -2.38998e-20)
(1.01948 0.0407667 -9.16138e-22)
(0.617716 -0.0717682 -2.24414e-20)
(1.05446 -0.00946298 -1.77589e-20)
(0.996183 0.00248511 0)
(0.358726 0.0509362 5.47381e-21)
(0.541922 -0.0596969 -1.11936e-20)
(0.623692 -0.0719854 0)
(0.428374 -0.0636707 5.21694e-20)
(1.13636 0.148243 -5.22747e-20)
(1.10622 -0.0597122 0)
(1.08872 -0.0407283 0)
(1.05494 -0.0101684 1.08208e-20)
(0.0106206 -0.00358464 3.55966e-20)
(0.970632 0.0918948 0)
(0.993687 0.0868274 -7.33075e-21)
(1.01388 0.0457645 0)
(1.1369 0.0190919 7.88316e-20)
(1.08778 -0.0402655 -4.3298e-21)
(1.00144 0.00458141 4.06901e-22)
(0.999975 0.00100728 -4.06043e-21)
(0.520171 -0.0581053 2.58499e-20)
(1.00083 0.0074645 9.56315e-21)
(0.683021 -0.0763383 -1.70423e-20)
(0.994612 0.0141598 -1.97273e-20)
(0.549999 -0.0530971 -1.03119e-20)
(0.78269 0.0305416 0)
(0.756934 0.118174 0)
(0.733384 0.566437 7.54219e-21)
(1.19033 0.0893472 1.20701e-19)
(1.10774 0.109759 0)
(1.05811 0.0879278 7.91506e-21)
(0.836717 0.0655664 8.79913e-20)
(0.91023 -0.00205446 -2.23607e-20)
(0.99113 0.01102 -1.29299e-20)
(1.10536 -0.0719832 0)
(1.00076 0.00704103 -3.19261e-21)
(0.135114 -0.030417 3.9414e-20)
(1.06116 -0.0144888 0)
(0.307407 -0.00594403 0)
(1.00835 0.000787637 4.78375e-22)
(0.999987 0.000438439 -5.88191e-21)
(1.02041 0.00259195 4.31306e-21)
(0.702567 0.200659 8.80597e-20)
(1.03765 0.0244229 0)
(0.891453 0.0115856 0)
(1.13438 0.0173645 -8.42601e-20)
(1.13686 -0.013883 -1.33636e-20)
(0.104043 0.133598 3.96019e-19)
(1.00339 0.000761194 0)
(1.08311 0.0150497 -1.46725e-20)
(0.965071 0.00775122 -1.98723e-20)
(0.0749784 0.112327 -3.05213e-19)
(0.905579 -0.000837063 9.49614e-20)
(1.01269 0.0467085 -1.67227e-21)
(1.08292 0.0382699 0)
(1.10748 -0.0592442 7.04171e-21)
(0.994837 0.0284805 1.0578e-20)
(1.06918 0.0444436 2.78636e-20)
(1.03626 0.0239671 -5.46466e-21)
(0.563817 0.0492592 1.03009e-19)
(1.02099 0.040873 0)
(-0.00586425 0.000835621 -3.97623e-20)
(1.00154 0.00495538 -1.93128e-21)
(0.385513 0.0631268 0)
(1.06458 0.354239 -7.89898e-20)
(0.995436 -0.00142497 -2.22124e-20)
(0.988038 -0.00263199 -5.55908e-21)
(1.14818 -0.0524152 1.77607e-21)
(1.06087 0.133795 2.03696e-22)
(0.996575 0.00267325 5.696e-21)
(0.490167 -0.0717712 -8.46203e-21)
(-0.089542 -0.0174719 -6.69663e-20)
(0.995211 0.0137979 1.48995e-20)
(0.105761 0.207298 -2.39309e-21)
(1.0826 -0.0458509 0)
(-0.0919327 -0.0115005 -5.45633e-20)
(1.05241 0.0269562 -3.4605e-21)
(0.557706 -0.0451149 1.08307e-20)
(0.999892 0.00202191 1.54315e-22)
(1.00007 0.00307196 0)
(0.995991 -0.00125653 1.75856e-21)
(0.404859 0.126238 2.47255e-21)
(0.162061 -0.0353976 -2.23426e-20)
(-0.0878965 0.0156952 7.5671e-20)
(1.05137 0.0258031 6.65116e-21)
(1.00034 0.0039399 0)
(1.20327 0.426654 0)
(1.0813 0.0149792 -2.12615e-20)
(1.02085 0.0026067 -7.04745e-21)
(-0.0102315 -0.026376 2.17248e-20)
(1.17208 0.128322 7.45065e-20)
(1.02224 0.023049 -3.43502e-21)
(0.972834 0.0513096 0)
(1.15469 0.42223 6.77265e-20)
(0.385841 -0.0102523 0)
(1.12445 -0.0491539 -2.58281e-20)
(1.13752 -0.00426825 -5.10628e-20)
(1.08598 -0.0523882 2.38566e-20)
(0.608417 0.126193 2.23543e-19)
(1.01102 0.005694 -1.38925e-21)
(0.844449 -0.00280234 0)
(0.692336 0.185585 -9.98458e-20)
(1.05967 0.0204215 -1.12962e-20)
(1.01597 0.0120504 0)
(0.49972 -0.063971 6.11594e-20)
(0.813241 0.50479 -1.24055e-20)
(1.13935 -0.0151718 1.54047e-20)
(1.0157 0.0463009 0)
(1.10796 0.124327 3.32093e-20)
(-0.161472 -0.00953637 0)
(0.315928 -0.00642938 3.83904e-21)
(1.08942 -0.0460921 2.34789e-21)
(0.461867 -0.0636359 -6.61434e-20)
(0.947868 0.00605659 2.85303e-20)
(0.0828967 -0.118167 -1.67654e-19)
(1.00052 0.0132808 8.7617e-21)
(0.200211 0.0919955 0)
(0.197411 -0.0103623 5.05497e-21)
(0.90683 0.0117688 -2.34001e-20)
(0.999984 0.000852354 -6.06722e-21)
(1.14918 -0.0507401 0)
(0.160272 -0.0129104 0)
(0.765794 0.111434 5.41752e-20)
(1.00504 0.000672867 -4.26229e-22)
(0.974279 0.0487707 2.09056e-20)
(1.03314 0.0277602 -3.31182e-21)
(1.00467 0.000545981 1.4584e-21)
(1.01775 0.00180127 0)
(0.361269 0.00403838 5.30884e-21)
(0.260336 -0.0282917 2.89711e-20)
(0.95033 0.00519469 7.51928e-21)
(1.03799 0.0253921 0)
(0.999979 0.000796328 7.74914e-21)
(1.27401 -0.00316551 1.09269e-19)
(0.699591 -0.0794074 1.74568e-20)
(1.09091 0.12417 -7.57423e-22)
(0.58454 0.127363 -1.53187e-19)
(0.995114 -0.00106004 1.92345e-20)
(0.907815 0.0075239 -5.47177e-20)
(1.09615 -0.0704156 -3.30317e-20)
(1.024 0.0131322 -7.40008e-21)
(0.961772 0.0197176 5.13342e-20)
(0.654676 0.197383 8.22996e-22)
(0.987387 -0.00231999 1.72649e-20)
(0.708677 -0.0757505 -2.51903e-20)
(0.803843 0.571872 6.09189e-21)
(0.966997 0.00825577 1.66479e-20)
(1.02273 0.0110913 -2.04762e-21)
(1.05309 0.0969181 0)
(1.11254 -0.0221146 0)
(0.0923813 -0.151926 -1.849e-19)
(1.106 -0.0437347 -4.15146e-20)
(1.02402 0.176955 6.29336e-23)
(1.07449 0.062634 0)
(-0.0525585 0.0526729 -1.75066e-19)
(1.05617 0.131085 1.28842e-21)
(1.14121 -0.0874385 0)
(-0.114171 -0.00860813 7.21046e-20)
(1.26876 -0.00100717 -1.06444e-21)
(0.939171 0.0413955 -1.18564e-20)
(0.783359 -0.0299131 -9.19783e-20)
(1.00002 0.00214409 -5.68412e-21)
(1.12256 -0.0481266 1.57959e-20)
(1.09005 -0.0456135 -1.55728e-20)
(1.0867 -0.0522216 -2.50929e-20)
(1.05878 0.0212781 0)
(1.12392 -0.0155661 6.01046e-20)
(1.03117 0.0209115 1.98087e-21)
(0.83755 -0.00710411 3.04058e-20)
(1.04333 0.169909 1.01955e-20)
(-0.28789 0.00199086 9.62149e-20)
(1.08752 -0.0477869 -3.83769e-20)
(1.0114 0.0546998 -2.83106e-22)
(0.860217 -0.0852328 0)
(1.0135 0.197486 4.28541e-21)
(0.282355 -0.0325703 -3.68042e-20)
(0.16317 0.0937753 1.33375e-19)
(0.767135 -0.0790843 -3.39756e-20)
(1.01178 0.0260905 -1.56334e-22)
(1.17735 0.123246 -2.11263e-20)
(1.11304 0.10831 0)
(1.0245 0.0127108 -2.11484e-22)
(1.00033 0.00427854 0)
(0.935052 0.110749 -3.36808e-20)
(0.603751 -0.0562122 -5.12738e-24)
(1.25389 0.132925 0)
(0.00323687 0.053195 1.64097e-19)
(1.11306 0.0410824 -1.39497e-20)
(1.09168 -0.052414 0)
(1.11303 -0.0765778 0)
(-0.0371877 0.019615 -7.70051e-20)
(1.24567 0.172058 -5.28222e-20)
(0.999611 0.00723568 3.54742e-21)
(0.563262 0.0603977 -6.47232e-22)
(0.793298 0.0323454 0)
(1.00729 0.000300868 1.64203e-21)
(1.02242 0.0240343 -2.35038e-21)
(0.87367 0.438878 -3.08595e-20)
(1.21603 0.469414 5.88582e-20)
(1.07423 -0.00164245 0)
(1.00309 0.000678327 -1.7166e-21)
(1.11759 -0.0156629 -6.11483e-20)
(1.11073 -0.0220788 0)
(-0.1171 -0.0137501 4.32944e-20)
(1.24159 -0.0410043 0)
(0.991476 0.0101884 -6.95433e-21)
(0.994088 0.0294905 -1.46462e-20)
(1.13498 -0.00592094 1.05914e-19)
(0.628971 -0.0653654 0)
(0.964017 0.0201533 -3.69388e-20)
(0.526666 -0.0619297 0)
(-0.164218 -0.00786138 -1.54097e-20)
(1.09246 -0.0523051 0)
(1.01558 0.0123 1.62104e-21)
(0.494161 0.405786 -2.3231e-19)
(1.12763 -0.00443643 -3.95632e-20)
(-0.254388 -0.00536834 2.23631e-19)
(1.0025 0.0176402 1.71272e-22)
(0.719855 0.0711027 -1.46003e-19)
(1.01144 0.0251493 3.80004e-22)
(1.18272 0.0665815 0)
(1.00817 0.000977598 -5.78653e-22)
(0.110992 -0.0347059 3.31171e-20)
(0.477465 -0.0625491 7.03355e-20)
(0.994599 0.090294 -6.91228e-21)
(1.18936 0.470238 -1.13567e-19)
(1.07747 0.0616288 2.2572e-20)
(1.01491 0.0118509 -1.10719e-21)
(1.10072 -0.0708001 0)
(1.08673 -0.047308 3.63685e-20)
(1.11179 0.0386645 0)
(0.706922 -0.0761638 -3.67445e-20)
(-0.184627 -0.00529236 0)
(1.01203 0.00299018 0)
(1.06132 0.0890735 -7.52137e-21)
(0.0198611 -0.0304081 -3.68816e-20)
(-0.132738 0.0191612 0)
(0.999981 0.00239301 2.15804e-22)
(1.00592 0.00885489 0)
(0.353223 -0.00518221 3.55946e-20)
(1.1297 -0.0515327 2.07611e-20)
(1.00004 0.000131576 -3.81666e-23)
(1.08685 -0.0651866 -4.10597e-21)
(1.17059 0.00913765 0)
(0.793245 -0.0349798 1.172e-19)
(1.0912 0.105308 0)
(1.00003 0.00232825 5.63799e-21)
(0.977333 0.201855 -8.83835e-21)
(-0.153295 -0.00648715 6.31493e-20)
(1.04016 0.0037685 3.40293e-21)
(1.19322 0.139204 -9.70053e-20)
(0.569904 0.171678 2.18194e-19)
(1.03288 0.02653 -5.43161e-21)
(0.99429 0.026864 0)
(1.10221 -0.0376065 8.91473e-21)
(0.37092 -0.0113405 0)
(1.10527 -0.0425037 3.75052e-22)
(0.935856 0.115412 2.16803e-20)
(0.97393 0.0945629 -7.28537e-21)
(1.00004 0.000230685 -2.31644e-21)
(0.139 -0.00836619 2.82299e-20)
(0.679651 -0.0386484 -7.34403e-20)
(1.08235 -0.0612761 0)
(1.01445 0.0120842 6.83793e-22)
(-0.144935 -0.0122608 5.73527e-20)
(0.0158295 -0.00837963 -1.85895e-20)
(1.10478 -0.0895573 -1.55972e-20)
(0.539315 -0.0435166 0)
(1.08287 -0.0466467 0)
(1.00002 0.00286526 0)
(1.00617 0.000816328 1.05387e-22)
(1.13335 0.0124738 6.76394e-20)
(0.0316801 -0.0242755 3.59388e-20)
(1.15892 -0.0279346 8.89737e-20)
(1.06769 0.0424043 0)
(1.24391 -0.041453 -2.64564e-20)
(1.07615 -0.0334057 -1.94121e-20)
(1.01768 0.00119692 -9.7399e-22)
(0.965469 0.0220597 4.61884e-20)
(1.00184 0.00449559 -9.59309e-23)
(0.822624 -0.0842963 4.56679e-20)
(1.07252 -0.0012812 0)
(1.00007 0.000133577 -3.69222e-22)
(0.998218 0.107178 0)
(1.01839 0.178808 -1.71006e-21)
(0.783591 -0.0174983 4.54878e-21)
(1.08742 -0.066346 0)
(0.995681 0.142361 3.7105e-21)
(1.0426 0.0101746 2.13523e-21)
(1.23831 0.0148806 0)
(0.71753 -0.0765673 4.20573e-20)
(0.580015 -0.0410539 -9.54326e-23)
(1.00223 0.0171337 -4.96157e-21)
(1.08334 -0.0892623 3.32968e-20)
(0.998381 -0.000102197 -1.1178e-20)
(1.04267 0.00926288 2.58593e-20)
(1.00067 0.0126603 -8.26565e-21)
(0.816426 0.611686 -4.61983e-21)
(1.00156 0.000812361 0)
(1.18743 0.0663914 0)
(1.08675 0.105117 1.4595e-20)
(1.03079 0.0199777 -3.79496e-21)
(1.11728 -0.0178028 7.21175e-20)
(1.03626 0.0560458 0)
(0.113126 0.0554211 -1.99697e-19)
(1.01272 0.192412 -2.46355e-22)
(1.16642 0.125824 9.87038e-20)
(1.02949 0.0141323 -5.52124e-21)
(0.994992 0.025936 0)
(-0.18194 -0.00718452 0)
(0.128252 -0.011516 2.51619e-20)
(1.00076 0.013879 0)
(1.00702 0.00086229 2.84372e-24)
(1.01891 0.0307879 -2.07608e-20)
(1.01505 0.0247517 0)
(-0.0663565 -0.0203645 4.97679e-20)
(1.02858 0.01402 4.07638e-21)
(0.127246 -0.0361852 -1.49911e-20)
(1.04638 -0.00393528 -1.12159e-20)
(1.20527 0.318429 5.05507e-20)
(1.09842 0.00393251 -6.09139e-20)
(0.111303 0.279545 0)
(0.94299 0.041186 -1.0167e-20)
(1.29954 0.00420109 -6.53341e-20)
(0.5104 0.299085 1.06553e-19)
(1.00126 0.105007 2.29697e-21)
(1.13175 -0.0504121 -2.36165e-20)
(0.954343 0.516268 -1.29339e-20)
(0.994898 0.0423328 -2.00184e-21)
(0.20046 -0.0289987 -9.7726e-21)
(0.571367 0.0395206 0)
(0.02228 -0.0116113 2.73024e-21)
(0.92135 0.0167828 0)
(0.243028 -0.0063763 3.9349e-20)
(1.06744 0.0872993 0)
(-0.0655251 -0.000463058 -1.37177e-19)
(0.528515 0.277999 7.51661e-20)
(0.920284 0.348248 -5.47778e-21)
(0.936344 0.343083 -1.96789e-20)
(0.56067 -0.0694488 4.13135e-20)
(0.999711 0.0024723 -9.22062e-21)
(1.04952 0.173097 -7.45544e-21)
(-0.126595 -0.0104722 0)
(0.982021 0.0281762 0)
(1.00063 0.0701136 -4.72974e-21)
(0.0398563 -0.00898055 0)
(0.860908 0.473332 2.02274e-20)
(1.01621 0.0517005 5.58179e-22)
(1.10769 -0.074301 0)
(0.702945 0.539186 0)
(1.0091 0.00496118 0)
(0.177724 -0.00651816 4.99316e-21)
(1.10359 -0.0734861 -9.84288e-21)
(1.00196 0.00484417 -1.05651e-22)
(1.00913 0.0127031 5.63274e-22)
(0.998572 -0.00022569 1.02559e-20)
(1.02312 0.0107403 0)
(1.23247 0.0124198 -2.75568e-20)
(0.806773 -0.0821043 4.91767e-20)
(0.385455 -0.281214 -6.97256e-20)
(-0.147473 -0.00860831 0)
(0.997652 0.013818 -6.66918e-21)
(1.19993 0.13854 2.82084e-20)
(-0.189917 0.022184 -1.29573e-19)
(1.10876 -0.00678587 -1.37734e-20)
(0.506237 -0.0598279 -1.3216e-20)
(0.0606275 -0.0297688 3.09469e-20)
(0.44032 -0.0621589 0)
(1.01321 0.00546527 1.40659e-21)
(1.08094 -0.0604574 1.54359e-20)
(1.01032 0.0122861 -9.75084e-23)
(0.85072 0.0859734 1.57148e-19)
(1.03538 0.0246125 -1.83219e-21)
(0.0855775 0.327214 0)
(1.17354 0.0112375 -3.94971e-20)
(1.06343 -0.00707533 -1.99965e-20)
(0.999552 0.00293711 2.59336e-21)
(1.13252 -0.00452106 3.88059e-20)
(1.18321 0.124412 -5.57786e-20)
(1.15249 0.00538848 0)
(0.326923 1.09154 6.97473e-20)
(-0.109524 -0.00129785 0)
(-0.281218 -0.00277828 -2.40309e-19)
(0.982346 0.209836 0)
(1.13008 0.145353 6.49925e-20)
(1.00562 0.0084191 0)
(-0.107271 0.0199684 0)
(0.508817 -0.054881 0)
(0.998739 0.0324027 0)
(1.27304 0.00804304 0)
(0.99547 0.00998467 6.66079e-21)
(1.20911 -0.0230794 0)
(1.04643 -0.00338287 -1.41867e-22)
(0.999784 0.00210522 -8.29229e-21)
(1.03169 0.0590396 -4.36714e-21)
(0.583386 -0.0383816 0)
(1.02993 0.0592997 1.42667e-21)
(0.391404 -0.0147761 2.62974e-24)
(-0.0551028 0.0348656 -1.96928e-19)
(1.10106 -0.0563103 -4.86202e-20)
(0.442283 0.279463 6.30067e-20)
(0.996636 0.0420347 6.08262e-21)
(0.4959 0.362959 2.39367e-19)
(0.468546 0.304071 -1.20152e-19)
(1.00192 0.00966081 0)
(0.82576 0.474176 2.85297e-20)
(0.98344 0.0279514 0)
(0.994194 0.0118253 -5.74814e-21)
(1.1888 0.0938732 5.75942e-20)
(1.00007 0.000345464 -2.67652e-21)
(0.993484 0.0135461 -1.98553e-21)
(1.01056 0.0120879 1.11095e-22)
(1.23548 0.0163038 2.24578e-22)
(0.999942 0.00161951 7.55958e-21)
(0.252622 -0.00821639 -3.44293e-20)
(0.677808 -0.047193 1.30932e-21)
(-0.126687 0.0156076 0)
(1.2413 0.178246 0)
(0.378857 -0.0222698 0)
(-0.236543 -0.00713495 0)
(1.10672 -0.00710716 1.23841e-20)
(0.998021 0.0132208 3.16496e-21)
(1.20428 0.00902739 -1.45987e-20)
(1.06084 -0.0133512 -1.63656e-21)
(1.066 0.0945277 4.15105e-20)
(0.999598 0.00773885 -4.03076e-21)
(0.73748 -0.0806836 -4.64238e-20)
(0.570596 -0.0622346 0)
(0.730959 -0.049522 -1.11231e-21)
(0.982619 0.0853592 5.5959e-22)
(1.17422 -0.000935095 2.24413e-20)
(0.924757 0.0139238 0)
(1.06242 -0.0149305 1.14842e-20)
(1.15032 0.00390864 0)
(1.01781 0.0604912 6.34746e-22)
(1.08122 -0.0589586 -4.59914e-21)
(1.01679 0.0451337 0)
(1.00154 0.000957491 2.12704e-21)
(-0.0343702 -0.0243935 -4.76091e-20)
(0.278334 -0.0304271 -4.31931e-21)
(0.29875 -0.0333779 8.15076e-21)
(1.17549 0.20701 0)
(-0.135579 0.0118771 7.08061e-20)
(0.228438 -0.0341948 1.73606e-20)
(-0.0807391 -0.0198589 -6.11074e-20)
(-0.049873 -0.012552 4.04669e-20)
(1.01695 0.00193284 4.17807e-21)
(1.13471 0.00334291 -5.08282e-20)
(1.01983 0.0603448 -3.89359e-22)
(0.991763 0.0299959 0)
(1.23566 -0.0341138 -4.6855e-20)
(1.13544 0.0140505 -5.09423e-20)
(1.01864 -7.10535e-05 -3.46071e-21)
(1.15389 0.0471311 -3.47589e-21)
(1.10763 -0.0019457 -2.61842e-22)
(-0.0393844 -0.00991462 -4.24907e-20)
(1.00208 0.010042 3.27975e-21)
(1.14032 -0.0395874 -7.20205e-20)
(-0.00324659 0.0150582 -5.27977e-20)
(1.2253 0.33286 0)
(0.256289 -0.0120779 -2.00017e-20)
(0.999944 0.0014141 -8.01838e-21)
(0.997604 0.0328204 6.11186e-21)
(1.01119 0.000425865 2.14541e-21)
(1.05108 0.13486 0)
(1.01315 0.00506773 6.44858e-22)
(0.663121 -0.0578589 1.04322e-20)
(0.396973 -0.241779 -6.44562e-20)
(0.998593 0.137057 2.39926e-21)
(-0.0663937 0.0283684 0)
(1.08236 0.0359368 2.24446e-20)
(1.12068 -0.0496126 3.5425e-20)
(-0.0402812 -0.0221116 0)
(0.825118 0.572462 0)
(1.1002 -0.0555896 3.10713e-20)
(1.09907 -0.0719306 4.1007e-20)
(1.13932 -0.0412059 1.01105e-19)
(1.15214 0.0639583 0)
(1.19354 -0.00793263 0)
(1.09123 -0.0245479 -2.16837e-20)
(1.09347 -0.0574243 0)
(0.375041 0.106262 -1.38829e-19)
(1.0871 -0.0318961 2.79674e-20)
(1.13754 -0.0236609 1.82353e-20)
(1.01458 0.000705385 3.03349e-21)
(1.26699 -0.0135809 0)
(1.08606 0.0178117 2.2695e-20)
(1.02961 0.00378017 -1.03238e-20)
(1.04675 0.131324 0)
(1.05477 0.025308 1.01e-21)
(-0.0369021 -0.0132076 0)
(0.486471 -0.0681897 3.85668e-20)
(1.01437 0.0237702 0)
(1.01756 0.000967625 1.02874e-21)
(0.694085 -0.0652602 1.11888e-20)
(-0.258712 -0.0041212 -2.41259e-20)
(1.00006 0.000262007 1.99585e-21)
(0.233752 -0.0077457 0)
(1.05565 0.00540929 9.4089e-21)
(1.2302 0.158863 -4.27837e-20)
(1.01371 0.0256193 -5.07787e-22)
(-0.149044 -0.0101616 -3.72562e-20)
(1.19123 -0.07889 9.63283e-20)
(1.05602 0.0946611 1.18086e-20)
(1.03575 0.0371236 -8.74674e-21)
(0.404125 -0.0260893 1.16495e-20)
(1.24351 0.131564 0)
(-0.250646 0.0114277 0)
(1.00004 0.000312051 2.3867e-21)
(-0.152947 -0.0084912 7.56015e-20)
(0.135859 0.0549443 -7.59036e-21)
(0.994008 0.0324531 0)
(1.02973 0.00427313 9.96511e-21)
(-0.120619 0.0162647 2.10456e-20)
(0.33073 -0.0403354 0)
(1.10615 -0.0104886 4.32291e-20)
(1.00967 0.012757 0)
(1.00791 0.0460249 1.78901e-21)
(1.08093 -0.0463697 2.32491e-20)
(1.20984 -0.0269621 -2.15006e-20)
(1.01908 -6.51788e-05 4.72285e-21)
(1.00869 0.0120203 -5.34147e-22)
(1.00493 0.00237682 1.40191e-21)
(1.00524 0.00248905 -4.28812e-22)
(-0.169995 -0.0103951 1.7531e-20)
(1.23481 -0.0297539 -7.67145e-20)
(1.10577 -0.00919618 -5.01306e-20)
(1.25249 0.120065 -4.86726e-20)
(1.0062 0.00063917 0)
(1.01059 0.00540689 1.78321e-21)
(1.17075 -0.00245879 3.34339e-20)
(0.184255 -0.0401875 -9.42008e-21)
(1.10333 0.0514129 0)
(1.03229 0.0211686 0)
(0.994524 0.0123027 -2.08978e-21)
(0.992333 -0.00116611 6.07189e-21)
(0.933169 0.0229344 -4.23652e-20)
(0.00923615 0.021954 0)
(1.00049 0.00373549 -2.36306e-21)
(0.992488 0.00185674 0)
(1.07961 -0.0594876 0)
(1.09177 -0.0231893 -2.16638e-20)
(1.0975 0.00265998 -5.60836e-20)
(0.996629 0.0313125 -1.64064e-20)
(1.02722 0.0620751 5.75194e-21)
(1.04188 0.0930888 4.88458e-21)
(1.13517 -0.0242666 -5.05196e-22)
(0.949946 0.490033 -5.34875e-22)
(1.25717 0.128114 0)
(1.20507 0.00498902 -3.44949e-20)
(1.15747 -0.0162769 0)
(1.2401 -0.0455811 -5.03744e-20)
(1.16605 0.11907 -7.73387e-20)
(1.00144 0.0165502 -8.09559e-21)
(-0.140059 -0.00880423 -5.42317e-20)
(0.992686 -0.001661 6.56573e-22)
(1.0012 0.072975 0)
(1.06522 4.04467e-05 0)
(1.2658 -0.0150225 0)
(0.991049 0.285822 0)
(1.00986 0.00121422 6.94193e-22)
(1.22769 0.321897 0)
(1.19875 0.0824181 2.95381e-20)
(-0.0903317 0.0017655 -5.93621e-20)
(1.15905 -0.0142069 4.51851e-20)
(0.886434 0.132383 -4.29717e-20)
(1.10991 -0.00276615 -2.76219e-20)
(0.999414 0.00318219 0)
(0.508587 -0.0422578 -4.48556e-20)
(1.21655 0.311888 -5.79876e-20)
(0.392902 -0.0576182 0)
(1.01616 0.0429911 -2.64961e-22)
(1.09342 0.0412838 -5.25419e-20)
(1.25566 0.11582 1.05895e-19)
(0.0686979 -0.0320752 -3.32793e-20)
(-0.193083 0.00463625 0)
(1.14012 -0.00584369 -8.94415e-22)
(1.18406 0.208638 0)
(0.98988 0.0858449 6.80538e-21)
(1.05447 0.0555575 0)
(0.995526 0.0317807 -6.87213e-21)
(0.888247 0.227989 0)
(0.670404 0.17922 -8.62255e-22)
(0.97343 -0.00521437 -2.01879e-20)
(1.12518 -0.00571029 0)
(0.568864 0.146425 -8.42717e-20)
(0.407267 -0.0595698 -9.04575e-21)
(-0.24398 0.0131165 0)
(1.03008 0.0719712 1.45196e-21)
(1.11897 -0.0488279 -3.14937e-20)
(1.18916 -0.0770939 -6.95218e-20)
(1.00266 0.115314 2.13619e-21)
(0.967531 0.0222155 1.71624e-20)
(0.175278 0.540005 0)
(0.683693 -0.0623935 0)
(0.65376 -0.0792126 1.28094e-20)
(1.24795 0.104158 0)
(1.01763 0.00203711 0)
(0.183143 -0.00910711 -5.79964e-21)
(1.08162 -0.0456632 0)
(1.00978 0.000905288 1.41494e-21)
(1.09108 0.0727901 -3.66963e-20)
(1.12012 -0.0329896 -6.09254e-21)
(0.846084 0.0672993 -4.90692e-20)
(1.18706 0.084669 -9.35111e-20)
(0.547287 -0.0473701 -9.96628e-21)
(1.18997 -0.00854823 7.13546e-21)
(1.08785 -0.0212893 2.39249e-20)
(0.509614 -0.0421436 7.53315e-20)
(1.05683 0.0312601 2.08508e-20)
(-0.0706734 -0.00992956 0)
(0.999977 0.00212693 0)
(1.00048 0.00401584 1.01516e-22)
(1.06199 -0.0904484 9.0626e-21)
(0.653567 -0.0635539 6.68593e-20)
(0.376705 0.237768 0)
(1.05737 0.0298871 0)
(1.0127 0.0528316 2.30927e-21)
(0.992914 0.00232849 -5.33625e-21)
(1.07729 -0.0335778 0)
(0.078084 0.172401 -1.9798e-21)
(1.08662 -0.0515563 -2.27345e-20)
(1.05671 0.0559777 1.34713e-20)
(1.10045 -0.0541438 -2.51043e-20)
(1.1301 -0.00595327 0)
(1.01355 0.0263291 0)
(1.16778 0.47899 -3.73302e-20)
(1.08592 -0.051155 1.91664e-20)
(1.08154 -0.0552202 0)
(1.00417 0.0191265 -4.11786e-21)
(1.1853 -0.0131503 -1.66435e-20)
(1.05393 0.02681 7.26148e-21)
(-0.0104673 0.0458627 2.16573e-19)
(1.14205 0.144975 0)
(1.00167 0.278861 0)
(1.09456 0.0431352 4.31801e-20)
(1.00768 0.00281648 -2.09549e-22)
(1.02751 0.00640423 3.35975e-21)
(1.03435 0.0283368 3.11273e-21)
(0.966668 0.348557 1.20845e-21)
(0.88984 0.0166421 0)
(1.24744 0.0460223 2.48399e-20)
(0.473571 0.805639 2.71001e-20)
(1.12425 -0.0132401 -3.64816e-20)
(1.00864 0.004914 0)
(1.19412 -0.00108149 -3.78615e-20)
(0.373808 0.268247 0)
(1.11501 -0.0757082 -2.04554e-20)
(1.03944 0.0042679 0)
(0.899325 0.0297476 0)
(1.00816 0.0119264 3.89154e-22)
(1.07412 -0.0154938 -2.34131e-20)
(1.07152 0.0440545 -3.65163e-20)
(0.307617 -0.0408352 0)
(0.999853 0.0021884 -7.48826e-23)
(1.23673 0.49619 0)
(1.07538 -0.0127802 0)
(1.1046 -0.0596404 0)
(1.16915 0.140319 1.92882e-20)
(-0.103167 -0.0151497 -2.93123e-20)
(1.02425 0.276774 0)
(1.00755 0.044389 2.03673e-21)
(-0.00389382 -0.0213121 -1.02497e-20)
(-0.263318 -0.00139708 0)
(1.00546 0.0340013 -6.20561e-21)
(1.0642 -0.000708539 0)
(1.19818 -0.0726375 -7.6512e-20)
(1.24008 0.106366 -4.08842e-20)
(1.15596 -0.0282094 -1.04144e-19)
(1.00016 0.000378693 2.55023e-23)
(1.037 0.0370912 -9.66202e-21)
(1.19308 0.309777 8.81974e-20)
(1.06398 -0.00796598 3.36615e-20)
(1.15241 0.00899222 -1.53019e-20)
(1.10164 -0.035956 -7.8032e-21)
(1.02817 0.00627697 -1.08411e-20)
(1.10837 -0.0244266 1.55316e-20)
(0.627522 -0.0726475 1.29073e-20)
(1.03898 0.00276307 -6.90109e-21)
(1.05207 -0.00587136 3.16651e-21)
(1.00439 0.00252123 -1.05746e-21)
(0.126038 -0.00960255 0)
(0.999952 0.00096827 -8.26773e-21)
(0.982939 0.0815161 -1.15285e-20)
(-0.282571 -0.000267807 -1.42597e-19)
(0.992146 0.066582 7.65165e-21)
(0.714819 -0.0626662 2.99034e-20)
(1.07338 0.0653066 1.84537e-20)
(0.830862 0.0714818 -1.63878e-20)
(1.00472 0.00264356 -9.79281e-22)
(1.02076 0.211831 7.34906e-21)
(1.00042 0.011969 4.50666e-21)
(1.15018 0.07195 -2.5944e-20)
(1.00736 0.00168857 0)
(1.08179 0.257174 2.56742e-20)
(1.05537 0.00614888 -2.86232e-20)
(0.263263 0.15252 0)
(0.435143 0.680978 -4.76803e-20)
(0.181461 -0.0405029 -8.31694e-20)
(1.01069 0.000409461 -1.24849e-21)
(0.999639 0.00263823 8.45414e-21)
(1.16053 0.116025 0)
(1.12238 0.111632 0)
(0.0786655 -0.0133789 -6.47348e-20)
(0.300658 -0.0529281 -4.3915e-20)
(1.13789 0.0226777 -2.86097e-21)
(0.992496 0.0105884 -5.38952e-21)
(1.23433 0.0143098 0)
(0.343743 0.212829 -1.15747e-19)
(1.07949 -0.0555942 0)
(1.24277 0.0489694 -4.42854e-20)
(1.12874 0.00889457 4.1145e-20)
(0.586918 -0.0451568 0)
(1.08381 0.128441 1.7978e-20)
(1.07572 -0.0322293 1.75827e-20)
(1.20106 0.0220764 -1.15013e-19)
(0.855752 0.418128 1.9653e-20)
(1.1363 0.0246392 0)
(0.304911 0.289186 2.65139e-19)
(1.13677 0.030796 -6.06447e-22)
(1.05757 -0.00451519 -9.62482e-21)
(1.12135 -0.0344817 6.85998e-21)
(1.00535 0.106539 -4.9109e-21)
(1.03294 0.00521206 1.36802e-20)
(1.07407 -0.0145833 1.63513e-20)
(1.10971 0.119302 -3.35245e-20)
(1.049 0.0953613 -1.8142e-20)
(0.999289 0.0118121 0)
(1.00663 0.000509754 1.71872e-23)
(1.12728 -0.0100771 4.12502e-20)
(1.06126 0.0114086 -6.20377e-21)
(1.15543 0.010399 0)
(0.993199 0.010289 2.90393e-21)
(0.995103 0.00791047 2.059e-21)
(0.999962 0.000768371 8.0225e-21)
(1.0231 0.0621764 0)
(1.02308 0.00136405 2.147e-21)
(1.04736 0.0813265 0)
(1.00389 0.00266636 0)
(-0.15665 -0.00936991 3.69831e-20)
(1.08601 -0.0410168 0)
(0.469903 -0.287785 0)
(1.01198 0.00513801 -1.89416e-21)
(1.00006 0.00163943 2.82167e-21)
(0.801801 0.14133 0)
(1.15544 0.0618386 -1.51256e-20)
(0.953276 0.00116795 0)
(0.834688 0.00525574 -8.26916e-20)
(1.13195 0.194393 1.87939e-21)
(1.03197 0.114051 4.74119e-20)
(1.07536 -0.0137267 7.15889e-21)
(1.1807 -0.00303805 2.72924e-20)
(1.05011 0.0156346 3.98181e-21)
(0.999907 0.00103996 -6.05347e-21)
(1.0055 0.00222226 0)
(1.03453 0.0570455 0)
(-0.310141 0.00178058 3.63537e-21)
(1.00005 0.00139461 2.54139e-21)
(1.19829 -0.0537729 8.46345e-20)
(1.04869 0.083701 0)
(-0.188353 0.0251979 -7.56625e-20)
(0.965829 0.221192 3.99336e-21)
(1.1391 0.192386 -3.90616e-20)
(1.1036 -0.0588911 0)
(1.02052 0.00642019 3.54094e-21)
(1 4.43774e-05 0)
(1.08708 -0.0413253 6.75028e-21)
(0.98806 0.00230304 -1.37342e-20)
(0.984687 0.0414091 2.18899e-22)
(0.974976 0.00450175 0)
(1.01238 0.0565961 9.24132e-22)
(0.998605 0.000461377 0)
(1.08347 0.0537477 0)
(1.00609 0.00758434 0)
(1.01648 0.000907558 -6.48217e-21)
(1.05544 0.0905341 -4.09013e-21)
(0.88487 -0.0266709 0)
(0.0577399 -0.00894355 -1.90426e-20)
(1.0792 0.108804 -2.02972e-21)
(1.03897 0.00227246 1.921e-22)
(1.009 0.000944364 -1.10072e-21)
(0.101089 -0.0373688 -3.18638e-20)
(0.952279 0.356186 -7.76909e-23)
(1.00127 0.0408829 -2.63335e-21)
(1.0172 0.0423713 -2.06084e-23)
(0.927217 0.00872751 1.2251e-19)
(1.19735 -0.0746542 9.45089e-21)
(-0.293324 -0.00287666 4.77955e-20)
(0.894191 0.132884 0)
(1.05843 -0.00377903 -4.94209e-21)
(1.01165 0.00310617 2.47054e-23)
(1.01671 0.00106741 5.72582e-21)
(1.08842 -0.0320316 3.63188e-22)
(1.0838 0.10982 -2.00595e-20)
(1.11599 -0.0727414 0)
(0.917395 0.0167204 -2.32805e-20)
(0.175862 -0.0242858 2.023e-20)
(1.0274 0.0420397 -2.10301e-21)
(0.964292 0.0570722 0)
(-0.302264 0.000387907 0)
(0.995297 0.00941269 7.12795e-21)
(1.08703 0.01622 -2.53476e-20)
(1.00441 0.0305402 -1.66507e-21)
(1.00198 0.0012318 2.26766e-21)
(1.10254 0.124706 0)
(0.773513 -0.0113775 0)
(1.04772 0.0274378 0)
(0.679236 -0.0632596 -6.8161e-20)
(0.329398 -0.00952667 -1.62168e-20)
(1.17344 0.135508 -1.72447e-20)
(1.00173 0.017148 6.58669e-21)
(1.02484 0.00290821 2.83426e-21)
(1.09029 -0.0518805 0)
(1.21475 -0.0500882 -2.82325e-20)
(1.00007 0.000428341 0)
(1.22652 -0.049689 8.3271e-22)
(1.02435 0.00305151 2.65916e-21)
(1.10623 0.114284 9.41859e-22)
(1.03385 -0.000924585 -1.01842e-20)
(1.034 0.00687138 -1.8201e-20)
(1.21674 -0.0261897 4.70417e-20)
(1.039 0.0160495 1.21851e-20)
(1.01512 -0.0534367 0)
(1.11152 0.0874572 -2.61646e-20)
(0.999956 0.000704681 7.44703e-21)
(1.01997 0.00354246 -6.57648e-21)
(0.981208 -0.000120341 1.15723e-20)
(1.00913 0.0197202 2.32233e-22)
(1.05163 -0.00493733 5.70765e-21)
(0.27319 0.683795 0)
(1.03776 0.0045385 6.5782e-21)
(1.03025 0.0106375 0)
(0.381119 -0.0667167 -3.13748e-20)
(0.619273 -0.0737257 -6.304e-20)
(1.08904 -0.0225575 1.05717e-20)
(1.11711 0.112898 0)
(1.14521 0.000452325 -3.21591e-20)
(1.0747 0.0241683 -9.12321e-21)
(1.02387 0.0142784 0)
(0.887602 0.0093252 0)
(-0.1238 -0.0126278 -1.01399e-19)
(1.09145 0.258459 9.07473e-21)
(0.998209 0.00481557 4.03367e-22)
(1.03447 0.0362882 9.8149e-21)
(0.333686 -0.0560693 3.57088e-22)
(1.11048 0.0193179 0)
(-0.0988357 -0.0101235 1.05666e-19)
(0.999957 0.000920723 -8.56323e-21)
(0.95086 0.00193413 0)
(0.107984 -0.00802802 -2.66272e-20)
(1.10302 0.0137124 -4.40351e-20)
(1.04979 0.0260796 -3.455e-21)
(-0.303715 0.00318152 0)
(0.2128 0.235536 1.19299e-19)
(1.00941 0.0192051 4.94393e-22)
(1.19684 0.0233468 0)
(1.00581 0.00233503 -1.55223e-22)
(1.03789 0.0160157 -1.30745e-20)
(1.01233 0.00540803 0)
(-0.118758 -0.0155089 -6.18691e-20)
(1.02271 0.00121729 4.26e-21)
(1.03836 -0.00282911 7.68686e-21)
(1.02441 0.0138656 -1.81161e-22)
(0.966691 -0.0535251 0)
(1.06059 -0.0112959 1.38051e-20)
(1.2343 0.152314 0)
(0.701221 -0.0973888 -7.39889e-20)
(1.03455 0.00512427 -7.80737e-21)
(0.844448 0.0242201 1.33009e-20)
(1.00052 0.00355088 -2.19452e-21)
(-0.136905 -0.00842729 -1.10368e-19)
(1.00523 0.0100797 1.84518e-21)
(1.03841 0.00403074 -1.31638e-20)
(0.998663 0.00096358 5.2019e-21)
(1.09087 -0.052429 4.82357e-22)
(0.998491 0.000804423 3.92393e-22)
(1.18883 -0.0126461 -2.60114e-20)
(0.333228 -0.00507118 -2.77489e-20)
(0.743251 -0.076105 -1.278e-20)
(0.90419 0.0302869 -2.57706e-21)
(1.1041 -0.0734729 1.12237e-20)
(-0.256473 -0.00161797 2.33909e-20)
(0.996141 0.0261627 1.05275e-20)
(0.163641 -0.00615813 -1.07563e-20)
(0.43456 0.0429276 -7.99058e-20)
(-0.234371 -0.001839 0)
(0.366905 -0.0219296 -2.73005e-20)
(0.361004 -0.0656342 -1.5464e-20)
(0.121131 0.174098 1.11468e-19)
(1.19062 0.000214447 7.0402e-20)
(1.00955 0.0470032 -3.17113e-22)
(0.531905 -0.0456226 1.11159e-20)
(1.10247 0.015674 7.27927e-20)
(0.476658 -0.0522843 6.90395e-21)
(1.02906 0.0046348 -3.40237e-21)
(1.02309 0.0226276 5.73762e-21)
(1.00268 0.0418631 4.54375e-21)
(1.00055 0.00382446 2.36075e-21)
(1.07942 0.0197448 3.63656e-22)
(0.890617 0.0888103 -2.37874e-20)
(0.128651 -0.0160742 -1.52919e-20)
(1.02294 0.0216858 1.1987e-21)
(0.993756 0.00316601 -1.08923e-20)
(-0.219549 0.0184192 0)
(0.971698 0.447448 0)
(0.981389 -0.00138771 1.18828e-20)
(0.811803 -0.0565386 -4.47956e-20)
(1.09076 0.0556396 -1.677e-20)
(1.04376 0.0215374 -5.04518e-21)
(0.497751 0.717703 0)
(0.805556 -0.0513137 -4.61688e-20)
(0.951271 0.049053 -1.00642e-20)
(1.06096 -0.0106277 0)
(0.307355 -0.00604961 1.69958e-20)
(-0.286798 0.000943746 0)
(0.222496 0.0576136 1.49823e-20)
(1.03341 -0.000499264 1.10773e-20)
(1.24046 0.138806 0)
(1.19536 0.0785991 -1.48932e-20)
(-0.21681 0.00491124 1.0066e-19)
(0.422988 -0.0609047 -7.96368e-20)
(1.08521 -0.0474569 -1.53478e-20)
(1.01477 0.0256889 0)
(1.05109 0.0163451 -1.67659e-20)
(1.02602 0.042358 2.2548e-21)
(1.01951 9.90694e-05 -2.31344e-21)
(1.0257 0.0632817 -2.70324e-21)
(1.0169 0.00169607 -6.65253e-21)
(1.04424 0.0915652 -3.67266e-22)
(1.0797 0.128253 0)
(-0.04619 0.0278694 0)
(1.14388 -0.0442809 -3.77001e-20)
(1.03879 -0.00232832 1.59673e-23)
(1.17723 -0.00401161 0)
(-0.0638799 -0.0212307 -5.92949e-20)
(1.09923 0.119601 5.33768e-20)
(0.971987 0.0222629 7.337e-21)
(-0.0807775 -0.00820624 -5.2611e-20)
(1.02961 0.0196045 3.91207e-21)
(0.985573 0.0394395 -2.37272e-20)
(0.817212 0.0605623 3.55679e-20)
(-0.00720389 0.035146 0)
(0.998421 -0.000604793 -1.30266e-20)
(1.00374 0.0194143 0)
(0.507874 -0.0619886 0)
(1.0985 -0.0718075 0)
(1.18098 -0.0772153 -9.42514e-20)
(1.15837 -0.0215255 4.418e-20)
(1.10488 -0.0718971 4.91245e-20)
(1.00734 0.0185079 -1.47815e-21)
(1.20154 -0.000884294 -7.46717e-20)