/*--------------------------------*- C++ -*----------------------------------*\
| =========                 |                                                 |
| \\      /  F ield         | OpenFOAM: The Open Source CFD Toolbox           |
|  \\    /   O peration     | Version:  v2012                                 |
|   \\  /    A nd           | Website:  www.openfoam.com                      |
|    \\/     M anipulation  |                                                 |
\*---------------------------------------------------------------------------*/
FoamFile
{
    version     2.0;
    format      ascii;
    class       volScalarField;
    location    "550";
    object      omega_0;
}
// * * * * * * * * * * * * * * * * * * * * * * * * * * * * * * * * * * * * * //

dimensions      [0 0 -1 0 0 0 0];


internalField   nonuniform List<scalar> 
13851
(
0.0236786
1.24323
0.0798436
0.0233514
0.0810693
0.0571921
0.0216566
0.0477523
0.0206571
0.0937575
0.287179
2.01427
2.83325
3.38185
0.0214133
0.0340619
0.0250791
0.0288818
1.70647
0.0206534
0.0231777
0.0774588
0.0212708
0.0220543
0.0214454
0.0485826
0.0243276
11.9624
0.0234935
0.0244327
0.0650353
0.0254169
0.0762296
0.475213
0.0220641
0.196935
1.23925
0.212146
0.104118
0.459126
0.0213563
0.0197329
4.24077
0.291086
0.276177
2.53879
0.281142
0.573431
0.0245667
0.0423327
0.0747443
0.139439
3.30605
0.0215785
0.0225213
0.0197351
0.0211585
2.43693
0.024191
0.0216992
0.168217
2.90082
0.0534025
0.0943056
0.206017
0.0253223
2.45679
0.275739
0.0344968
0.0286797
7.29576
3.1575
1.17424
0.021696
0.0210261
0.0208765
0.0744913
5.35336
0.0483871
6.63888
0.0219357
0.229091
0.0213716
2.40177
0.0552454
2.05689
0.0429206
1.78015
0.0256023
0.020797
0.193627
0.0324028
0.273613
0.0279812
0.0253624
0.0218383
0.0829954
2.73457
0.042427
0.0218406
4.33129
0.0516535
0.0223357
0.0240138
0.0210729
0.044088
0.0571338
0.0196409
3.58598
0.0619141
0.0220956
0.0208671
0.0317757
0.0224837
0.0220941
0.842307
2.75993
0.0196736
0.0226582
0.0229064
4.54172
0.0238805
2.85657
0.571525
0.621657
0.0218869
0.618829
0.0501797
0.022986
0.140204
0.0213352
0.0207204
5.85212
0.0213716
0.828891
0.020909
0.0196853
3.07236
2.38348
2.16023
3.99615
0.0225022
0.0227359
0.020039
0.023383
0.293196
0.075659
0.139008
0.02164
0.266564
0.0783454
0.0224921
3.71947
0.0212109
0.0229953
0.0232844
0.0210354
0.023278
0.138779
0.0738263
0.0197472
0.0279118
2.32464
0.0207037
0.0282602
0.0198825
0.0997194
0.0349872
0.0228529
4.85544
6.62257
0.0203747
0.0210549
2.12822
0.0206954
0.585633
0.0485428
0.0227229
2.09365
0.019651
0.026252
3.26303
0.0213662
0.0829168
0.0197493
0.0214124
0.0255227
0.0218884
0.0914567
0.0911386
0.281035
2.63503
0.0210806
0.0346216
2.67887
0.022838
0.022461
0.266319
0.0225102
0.0209091
0.0219849
3.35964
0.0235489
0.021272
0.0732557
0.0213794
2.18853
0.0252281
3.05839
0.0196662
3.40406
0.0222351
0.303696
0.0196098
0.0199624
0.280219
0.0526015
2.43268
0.0213514
3.00458
0.0254094
0.0219813
3.06215
0.133759
3.38176
0.0215285
0.0300722
0.0212572
2.07108
0.019608
0.0472198
0.117461
0.0203682
0.0209982
0.0668183
0.0432015
2.19292
0.376014
0.02002
0.0212845
0.0593797
0.356324
0.0201692
0.0794206
0.0207279
3.15502
0.0529069
0.342221
0.0233918
0.0260905
0.0273582
0.38119
0.0219861
0.0234857
0.0534009
0.764254
0.0875195
3.11934
22.5327
0.0214459
0.0199811
0.0276696
0.506217
0.020397
2.58227
0.0228262
0.0219475
0.0274612
3.1159
0.102273
0.0272528
0.0229888
0.221418
0.0458267
0.0330778
0.0207307
0.225007
0.219786
3.6487
0.281195
0.0201863
0.0196301
0.0210143
0.0510952
0.425212
0.577057
0.0207682
0.0214475
0.192821
0.215308
0.170333
0.0238561
0.02171
0.037139
0.219726
2.49135
0.0276238
2.00842
0.0207522
3.1945
0.0275129
0.0249353
3.61589
0.0217034
0.0441146
3.03437
0.0207472
0.0445096
0.0281181
0.0236309
2.50474
0.0278233
0.0219296
2.92858
0.0197769
0.0263572
0.0227094
3.74057
0.126968
0.0213512
0.0533907
0.0213845
10.04
0.0298912
0.0212516
0.0213034
0.123989
0.0293328
0.0229018
0.0214503
0.0216787
0.0218854
0.284444
4.0025
4.07957
0.0319076
3.70511
2.44678
0.0213691
0.0353108
0.170269
0.0363995
0.0546266
0.121297
2.02759
0.0253404
0.628746
3.10247
0.0214296
0.0582495
0.0579294
1.09268
0.0228902
0.0575985
2.08309
0.0210839
0.5305
0.0212894
0.021396
0.020561
0.0196392
0.0209729
3.18977
0.253531
0.0213994
0.0425897
0.0198199
1.90117
0.0406957
0.503815
4.19779
0.0214148
0.0568112
0.0282446
0.473722
0.0212583
0.0196904
0.0289052
4.98119
0.0214333
2.45592
0.035174
0.128834
6.20146
0.138883
0.119931
0.0255702
0.0207861
0.0220929
0.0305641
0.0528031
3.46624
0.0349852
3.47713
3.06998
0.0198318
0.0214544
4.65139
4.97585
0.106622
2.80701
0.0297898
0.0288954
0.0218169
2.46137
0.0204986
0.0333223
0.0251025
0.0215866
0.0211472
0.0207203
0.0198702
0.0919041
0.0513778
6.43275
0.029243
0.0565337
0.0330319
0.392639
0.0270994
1.28763
0.0246594
0.279107
0.0196725
0.0207008
0.0216469
0.84093
0.389433
0.128087
0.0322758
8.83976
0.476975
0.0411898
0.0232082
0.0683577
0.021236
0.396972
0.0210276
1.95973
0.329854
0.0717733
3.1935
0.0228268
0.221788
0.330264
5.0487
0.0196296
0.0304063
0.0497182
0.157375
0.020456
0.0219037
0.0732562
0.128097
0.033574
1.58197
0.0215062
0.0213729
2.14962
0.029115
0.0196155
1.63628
0.0207752
0.0236556
0.0205422
0.0416181
0.02288
0.0196479
0.0226257
2.9621
0.0213843
0.0373215
0.0208352
0.0289763
0.273464
0.022614
0.0213262
0.0225051
0.0224924
0.668244
0.0219212
0.047668
0.0213656
0.0215759
3.18802
3.35953
0.0214067
0.0298113
0.027269
0.315029
2.38052
0.0213901
0.276613
0.0212847
0.0808676
0.0216297
2.02806
0.0197804
3.6883
0.0864167
0.0197461
0.0298911
3.04086
0.0485081
0.280304
0.0226365
0.609244
0.0229295
0.0206392
0.0207371
0.0215925
3.9622
0.0669679
0.136907
1.71696
0.0504857
0.0197845
2.80427
0.385261
0.0264193
0.0281383
0.234037
0.580164
3.46376
0.0224374
2.06791
2.59636
2.82632
0.0286107
0.0305514
0.448455
0.231552
0.849968
0.284761
2.19312
0.0234745
2.21507
3.14817
0.0196824
0.213999
0.0687686
4.19411
0.023592
0.0212437
0.0210093
0.0212915
0.0899923
0.0396968
1.80388
1.54408
0.0207661
2.47616
3.13455
0.0592692
0.359687
0.0366365
0.0195884
0.020677
0.227409
2.82108
0.0230874
0.0940395
0.191577
0.0197227
0.0378706
0.571013
0.31348
0.119895
3.73101
3.17598
0.0213073
0.0216004
1.32104
3.02014
0.134773
0.0348311
0.0590796
0.0196508
0.021124
2.01942
0.0197034
0.0234962
0.0196381
0.0207955
3.17051
0.0903847
0.0300293
0.0196931
2.51495
0.27466
0.0207808
0.0209108
0.0204482
0.0219983
5.13639
0.308746
0.301679
2.75165
0.609199
0.0329906
5.75957
3.24064
0.0258463
0.034991
0.0195822
0.0226563
0.0356289
2.99507
0.524211
0.0925071
0.0292551
0.0206121
0.0335953
0.0225495
0.294502
0.0743305
0.0213545
0.0327738
0.0204582
0.0271955
0.133606
0.0216687
0.0212125
0.0408997
0.0216478
0.0819526
0.625941
0.126999
0.0341172
0.139649
0.0205983
0.0887912
0.0284635
2.59221
0.022154
0.0218972
3.49322
0.0238476
6.53475
3.07866
2.26768
1.56533
0.0204988
3.32109
0.020392
0.0207896
0.0197735
0.0208037
0.0268447
0.0301244
0.0393315
0.0196769
2.33099
0.0899537
2.33038
0.0209386
0.0199144
0.0208339
0.169758
2.4915
0.0547521
0.0274923
0.0204376
0.0216507
0.0214982
0.0210918
0.295024
1.75002
0.0216229
0.0196664
0.021606
0.0210828
1.00607
2.36217
0.0342864
2.73744
0.593472
0.0211934
0.135067
5.04367
0.0365338
2.09286
0.0219199
0.0279335
0.0537207
0.0282737
0.302624
0.0213936
0.507799
0.0211088
0.0309237
2.99193
0.0209677
0.0231924
0.0586717
0.0206474
0.0257457
0.241352
2.4533
0.0726314
2.37581
0.207851
0.019624
0.0209169
2.79148
0.187075
0.0462207
3.11538
0.0205392
0.0242964
0.0196976
0.594669
2.37602
0.026039
0.0219613
0.273157
0.0244885
0.0207987
2.58751
0.962748
2.82672
0.0197624
0.0216108
5.38465
4.13093
0.162851
0.0222936
3.48737
0.0213832
0.278242
0.138319
0.0760693
0.0252627
2.32879
0.0263818
0.0230738
0.943804
0.0218072
0.023548
0.0230404
0.0205805
2.29736
0.0325541
0.121288
0.029639
0.257591
0.020633
0.381122
0.0224655
0.0263289
0.0200015
0.0211548
0.0214271
2.98893
0.0209933
0.0197244
0.683175
0.0216217
3.97565
0.0212635
0.0225991
0.0723899
1.34807
0.252307
0.0209121
0.136539
2.71502
0.0219581
3.23346
0.0306055
0.0205531
0.03329
3.44312
0.0954254
0.0262946
0.0208807
0.0196531
0.353065
0.08531
0.0592821
0.0271518
0.0329075
0.0221404
0.0224287
0.0931413
0.390827
0.0893938
0.612481
0.0215902
0.0820066
0.0872474
3.79504
0.0258714
2.11578
1.29173
0.0216364
4.0831
0.0801363
2.58204
2.71489
2.85489
0.291837
0.0424326
0.0205692
0.0298575
2.51012
2.87529
0.0212268
0.0216339
0.068993
0.233487
0.0197666
3.22405
0.0205172
0.0214097
2.10767
5.31171
0.208054
0.0207791
0.0214107
3.32194
0.261981
0.125622
0.0238775
3.17238
0.357865
2.41373
0.0564462
0.0417596
0.021938
0.0216183
1.15144
0.0511225
5.67267
0.0310299
0.0344843
2.35409
2.64488
3.47851
0.0214611
0.031389
0.0207675
0.0348889
0.0230919
1.98624
0.024405
3.09788
0.0197642
0.0708209
0.0211527
0.155336
0.0336028
0.0309725
2.74151
0.0447429
0.0439004
0.0221587
0.0706146
0.549569
0.0631231
0.0235991
6.56614
0.0203325
3.06619
0.268498
0.0216886
3.36433
4.79055
3.62627
0.310771
0.0298329
0.0212139
2.85273
0.02448
0.820217
3.06831
0.0209457
0.0227811
0.763116
0.317831
2.03101
0.0215915
0.0208113
1.35572
3.01887
0.120368
0.0258125
0.0231748
0.294009
2.01377
0.0902611
0.0197301
0.0429552
0.0206627
0.023126
0.0679911
0.0218857
2.045
0.396937
0.0214215
0.0229315
0.0212394
0.0230993
5.89096
3.23416
0.0299662
2.12982
0.02115
0.0299994
0.0211649
0.0206788
0.0216275
0.0214052
3.91089
0.0214084
0.0537694
0.0214667
0.0264755
0.0769257
3.59595
0.022645
1.33626
0.0626081
1.84554
0.0333678
0.0337317
7.5941
0.0272055
0.0407246
1.96728
0.923083
2.96654
0.0415761
0.267483
0.0220455
0.0424908
0.0529325
2.06164
0.0213219
1.91707
0.0208985
0.0209575
3.10204
0.0216442
2.62824
0.0255482
0.0207524
0.0358922
0.0207674
0.0214166
0.0209761
0.021869
0.267744
0.0209637
0.224148
1.96009
0.0650113
2.2045
0.0215975
0.022484
0.0234076
0.0213047
0.0207452
0.0829769
0.0219673
0.0208347
0.0220186
0.0215015
3.89847
1.72459
0.0611203
2.79452
0.365881
0.0211196
0.216036
0.0290336
0.020954
0.326867
0.0503361
0.437196
0.0210867
0.28529
0.350814
2.2203
0.0204041
2.82267
0.031721
0.0241983
0.0214172
0.020549
2.22385
0.0777425
0.645901
0.0209115
0.0213294
0.65816
0.0217085
1.30688
0.283935
1.56759
2.05853
0.342396
0.0215566
0.0213632
0.0559855
0.0291275
0.0240111
0.164115
0.0435144
0.0220052
0.0230191
1.86819
0.0208529
3.80674
2.56704
0.81613
0.18889
0.0223252
0.0201515
0.0218226
0.29313
0.390091
0.0204031
0.022891
0.0208807
0.0804733
0.0198352
0.0208427
0.0220193
0.0335084
1.85259
0.0421275
0.032347
0.021478
0.054009
2.63526
0.0223043
5.86434
2.31786
0.0843171
0.0199425
0.0456965
0.0212396
0.0212914
0.0217524
5.23014
0.126996
0.394405
0.0240894
0.276598
0.0212913
0.0211598
0.021711
0.153095
1.02226
0.0197278
0.0330961
0.0535729
3.46915
0.0225961
1.43823
0.0281066
2.20829
0.0801044
3.31594
0.0946922
0.0829547
0.731722
3.0443
0.356525
3.72417
0.0211378
0.151894
0.0198219
0.0236984
0.0264807
0.0216642
3.09415
0.0301599
0.0278981
0.306297
0.1892
0.645946
0.0213671
0.0237914
0.0265165
0.020226
0.0311518
1.25772
0.525325
1.26249
0.0209522
0.0272681
0.0242931
0.563852
2.87823
0.055479
0.0201304
0.0218976
2.09691
0.0471616
2.18874
2.62264
0.0357014
0.0199243
2.89248
0.0304218
0.045241
0.0289074
3.29783
0.271375
0.124697
0.0900872
0.0224182
0.0278226
0.0214158
3.07992
0.0474609
3.19239
0.266961
0.026285
0.15351
0.0227934
3.34625
0.361994
0.0208295
1.5052
2.95068
1.54488
3.42833
0.0216532
0.0213869
5.63747
2.64523
1.99353
0.0228266
0.0216041
0.0214177
3.78246
0.149575
0.0218487
0.0524927
0.089855
2.18837
2.8289
0.568027
0.0214374
3.40416
0.0248623
0.0213044
0.146399
2.62627
0.0216642
0.0208903
4.72377
3.28006
0.0215327
0.0209364
1.90717
0.0207674
0.226047
0.0209518
0.587293
0.0213815
0.0546602
1.21217
2.93478
0.0225949
3.76133
0.392372
2.29653
2.58852
2.18288
0.0363043
0.0211757
2.20786
0.0226369
0.0213837
0.020199
0.434231
0.0211739
0.838432
0.0209084
0.0232594
5.37684
0.0687033
1.9386
0.0229756
0.0253054
0.0207286
0.0331438
2.99011
3.54302
0.0208696
0.068735
0.311454
0.0216733
0.0205593
2.90418
0.0350615
0.0359171
0.13581
2.47589
1.02369
2.83028
3.37392
0.0388703
0.280527
0.384425
1.61363
0.0685549
0.0201601
0.133111
0.0211636
0.021142
1.80445
2.9431
0.0233684
3.83004
0.0811072
4.06859
0.0568836
0.0466546
0.0212551
0.0840641
0.0354499
0.0210751
0.0226997
3.10601
2.77441
1.44411
3.3921
0.0393218
3.13861
3.21908
0.032547
0.021764
0.0210711
0.223956
0.0210208
0.320157
0.022412
0.0221358
0.0235793
2.71806
3.71638
2.54414
0.021992
2.9617
0.0254547
0.0300284
0.0209945
0.0208272
2.55224
0.0275521
3.25533
1.16047
0.0477278
0.121459
0.0214829
0.0416021
0.0216694
0.147859
0.0225514
0.022876
0.021904
0.0224303
0.171172
0.022195
0.0357483
0.0211152
0.0364272
0.131896
5.75828
0.0210847
0.0496078
0.021378
0.0639481
0.0247655
2.61925
0.171458
0.03223
0.023918
0.0224811
0.0490009
0.0212897
0.265204
0.0214314
0.0209572
0.0223163
2.90851
0.0273829
0.0248117
0.0302223
0.0213531
0.0668332
2.83247
2.47768
0.0365666
0.0214213
0.0322849
0.0202211
0.0210597
0.187882
3.07803
0.0211648
0.0309968
0.0981619
3.03513
0.0218893
0.0221111
3.1161
0.0226879
0.0376805
0.427453
3.82034
0.0213981
0.0271285
0.021267
3.31845
0.137858
0.0432436
0.124103
2.51571
0.0224966
3.69377
2.21995
0.0216892
2.72345
0.0844329
0.0224465
2.8352
0.0215764
0.0212624
0.0204892
0.189304
0.0441062
0.178027
0.0229154
0.0223721
0.0306437
0.276067
0.78327
3.68171
0.292048
0.0220789
0.138529
0.136338
2.14863
0.0768973
0.233038
0.021034
0.0299086
0.020568
0.97089
0.0372888
0.0212604
1.82914
0.160624
0.033189
0.0263253
0.0196666
0.0212821
0.055261
0.0351645
0.68487
0.0685466
0.0685698
0.0621005
0.118494
2.25907
0.0601432
3.61091
0.0211001
0.0208433
0.18531
2.36179
2.47474
0.0521369
0.0223302
5.79772
0.305312
0.0210055
0.0266853
0.0208286
0.0425982
0.0728746
0.104661
2.59061
0.606942
0.0227494
2.53106
6.69681
0.0214309
0.0813683
2.35119
2.19012
0.0239979
0.0779547
0.0196014
0.0231814
0.0210197
0.0256314
3.54548
2.9799
2.62207
5.53004
0.0227072
0.0347383
0.0555171
0.0209711
0.0219274
0.0205591
3.03404
0.0209812
3.49101
0.0372843
0.0487555
0.163345
0.252377
4.78289
3.10162
0.0418079
0.0198463
0.0232489
2.97346
2.47505
0.0250342
0.0207948
0.0206103
0.0647913
0.0310208
0.153486
2.2268
0.0226635
0.0205096
0.127942
0.0302363
6.29349
1.0004
0.0209488
0.0741388
0.0216294
3.56317
0.0199816
3.13868
0.0210158
0.0225928
0.0318298
0.0219821
0.0618357
0.0305461
0.0486579
2.43376
2.77558
0.0255434
0.0305253
0.021244
3.04329
2.23078
0.0217484
0.0200362
0.323391
0.0196504
3.84688
0.0212885
0.0344829
0.0717095
1.05845
0.0386413
0.0228765
0.0216256
0.0728964
3.16999
0.021177
0.999114
3.94284
1.00911
0.330762
0.0340998
3.7387
0.0257468
0.249925
0.0212911
0.282137
0.290457
2.18804
2.06308
2.22471
0.021981
0.0380231
0.0208812
8.20779
0.322269
3.00884
2.37525
0.0273935
2.25117
0.633957
0.0354502
0.0229582
0.0216574
3.34522
0.0259846
0.0723976
0.0229284
0.0217264
0.0206789
0.0216079
2.72757
0.214747
0.0318304
2.13551
2.62948
0.0214633
0.0213318
0.020541
0.028286
3.11968
0.301833
0.0259201
0.024622
0.943747
0.0794759
0.045842
4.3864
0.0309501
3.47998
0.0308693
0.0299945
0.0213034
0.0228716
0.0725668
0.375364
0.283201
3.13943
0.0719604
3.22547
0.0245046
0.0246397
0.0214509
2.80032
2.30679
0.589516
0.0518487
0.0237128
0.0214322
0.0210981
0.0214284
0.0205779
3.10521
0.0297783
3.08165
0.0328646
2.52138
1.9715
3.17111
0.0314988
0.0262743
1.99435
0.0401181
1.46268
3.3118
0.0206239
0.0372325
0.0276084
5.73155
2.9906
0.0355496
0.0663044
0.386083
0.022819
0.0501229
0.0242682
2.31368
0.265672
0.0241924
0.0216234
0.286771
0.488143
0.135148
0.674223
0.13321
0.0287156
0.0211873
2.20303
3.09174
0.0809722
0.0314851
2.76268
2.44421
0.0208999
0.0214292
0.0244395
3.08612
2.96445
0.0213543
4.24867
0.0221258
0.0210965
0.0216804
5.80135
0.325546
0.0348194
2.58251
0.0231183
0.0228356
0.0209958
3.07644
0.022304
3.21961
0.0240524
1.30159
0.0218811
0.0211653
0.12597
3.20536
0.326371
0.0367856
2.35157
0.0200083
0.0215504
0.021441
0.0458845
0.0665635
0.0666188
0.0367931
3.29699
0.0246073
0.131066
0.104668
2.26803
0.0214938
3.3737
3.03635
0.0253273
0.509012
0.0682983
3.34833
0.0216523
0.070621
0.0211204
1.36355
7.31369
0.0763776
3.35432
0.0237719
0.0506122
0.0226367
3.93244
0.0199073
0.020812
0.35578
0.0910491
2.57151
2.9561
0.0668429
0.0290704
0.0204727
1.08497
0.0310066
0.0211165
0.154413
0.0208116
0.0447855
0.0214272
1.05157
0.0226386
0.289406
0.295136
0.0316487
0.0903154
0.0568328
3.59313
0.021367
1.15612
1.7138
0.0207269
0.021387
0.0230413
0.0219133
0.040673
0.0212757
0.276911
0.078919
0.277911
0.06435
0.0215799
0.0219446
0.0204693
3.18501
0.021572
0.0213228
0.35559
0.0241157
1.37933
3.37656
0.0924493
0.0243328
0.0344463
0.0227824
0.0221106
0.0380861
0.0200907
0.0242607
2.43678
3.22569
1.60312
0.0227278
2.01127
1.03657
0.0219305
0.270303
3.11902
0.0213678
0.0237281
0.0213192
3.32511
2.20865
0.212803
0.0200722
0.0242361
0.0233631
0.021627
0.135085
0.0216292
0.0371338
2.75181
3.54085
0.0206022
0.024115
0.0236919
2.29731
0.0196575
2.17765
2.74306
0.0526621
0.880139
4.34009
2.21451
0.0228884
0.296409
0.378214
0.0224863
0.0204551
0.020886
3.3285
2.20246
2.0417
0.0212334
3.50006
0.0216373
0.169462
0.0204556
0.0233983
0.0224203
0.020592
2.23424
0.0225534
1.90297
2.70698
2.15944
0.0486074
0.0540882
2.19551
3.1282
0.0218228
3.88202
0.0204778
0.0196924
0.0213158
0.0319088
0.0206664
2.29887
0.0303294
0.180961
0.0378553
2.48303
2.15827
0.0882924
0.0205677
0.0567643
0.0776957
2.2226
0.0215243
0.0198794
0.0230083
2.06146
0.0217307
0.322367
2.18333
0.0426196
0.0621363
0.0215496
0.357568
0.0218496
3.15059
0.0202472
2.71135
0.0320033
0.0215547
2.19671
2.09591
0.0201775
0.0684117
0.0248185
2.0442
0.0332807
0.161276
0.14706
0.0218642
0.0565058
2.73565
0.0210345
0.0305837
0.0231933
0.0797715
0.0331634
2.97819
3.1067
0.0215738
3.40766
0.02252
0.0454823
2.89345
2.13469
0.036332
3.0147
0.23251
0.0216363
0.319713
0.135364
0.0315124
0.0225018
2.56811
0.0202047
6.77941
0.0752314
0.110125
0.0213564
0.0314095
3.22945
0.0458961
2.45029
0.0221466
0.0240163
0.0838729
2.67845
0.0264561
3.14689
0.642831
2.32303
0.0216982
2.67708
2.28353
2.26098
0.0214096
0.0225063
0.0213735
3.24473
0.0275114
0.372568
0.322297
0.0219007
0.0202667
0.0213811
2.24831
3.20176
4.06655
2.16333
0.0209809
2.97375
3.21485
0.13774
2.06967
3.0678
0.0352462
6.84524
0.0235509
0.0260687
3.27274
2.79263
0.0218803
3.99877
0.0218729
0.021425
2.18031
3.1484
3.70291
8.68662
0.0318796
0.0219003
0.0231973
3.37689
2.04657
0.0211879
0.0482288
0.502185
0.0214537
0.0215807
3.08638
2.5019
0.0232076
0.0214458
0.0223997
0.0227766
0.681646
0.0218952
0.0211759
0.0260964
0.426669
2.85885
0.0747079
2.59235
0.0215899
0.0250508
2.83826
3.20498
0.0286924
0.0931107
0.021337
0.0367915
0.0228903
0.0222506
0.0686357
0.021114
0.301999
0.033346
0.0208468
0.024706
2.38311
1.68035
3.60726
0.0214694
0.0246991
3.31291
0.522847
0.0242799
0.0214418
0.0214946
0.269139
0.0216008
0.0217886
0.0284164
0.0213731
2.87268
0.05408
0.0218509
0.0244452
0.0200152
0.0216219
1.58189
0.304809
0.0730059
1.96108
0.0570141
0.0219699
0.0213173
0.0215531
0.0213341
0.0218209
0.0237653
0.074816
2.84048
0.0227602
0.114295
3.52425
0.093762
0.0212723
0.0208287
0.0236675
2.21822
0.0212811
0.978599
0.912552
0.0467828
0.0221148
6.46779
0.0200259
0.0410069
0.0203964
0.0200542
0.0217936
0.0208178
0.0357234
2.83326
0.0903277
0.0399064
2.1956
0.546969
1.02812
0.0325707
3.1471
2.00181
0.112389
2.26972
3.12983
0.120272
0.366406
0.0219126
0.0206807
1.46647
0.021045
0.0245422
2.16399
0.0320361
1.82592
0.181965
0.0207827
0.0255165
0.0215519
0.033466
0.0204253
0.0393323
2.61182
2.95143
0.736951
0.0215537
0.0202344
0.0747106
3.68386
2.90869
0.117537
1.96169
0.0208863
2.60992
3.55211
0.0794813
0.0241358
0.0215851
0.0199574
0.0235358
0.0215285
0.0214001
0.0243002
2.88471
0.0794797
3.22712
0.36385
1.87514
0.195686
0.021283
0.0209536
0.0220474
0.0205272
0.0218748
0.210263
2.30879
0.670668
3.4475
0.0236143
2.21203
0.166645
3.1907
3.24511
0.0215775
0.0208124
0.209132
0.0215552
0.0201905
0.485262
2.89049
2.77399
0.0214377
0.0215735
0.0240506
0.0392775
2.25538
0.0204968
0.0243934
1.0698
0.0205069
0.469378
0.0387675
2.15091
0.0218843
0.538384
3.54267
0.036306
3.33732
0.118285
3.30109
0.0200094
0.0254901
0.0208599
0.030469
5.16294
0.0213826
2.35659
0.0218693
0.0215548
0.0214551
3.33124
0.0456675
0.116631
0.401728
0.020634
0.0449787
3.01378
0.0568765
0.020731
0.0231585
0.0215617
0.0460845
0.0213679
0.0209054
3.43345
3.6079
3.21033
0.307008
1.53365
2.3172
0.0730616
3.57131
0.131621
0.0199542
0.0209824
0.019663
0.0217329
3.41624
3.3542
0.0203206
2.4351
3.28407
0.0299906
0.0226284
0.0248848
2.46513
3.04426
2.92311
2.02357
2.92915
0.0196643
0.490116
0.104189
0.322273
3.33493
0.021353
0.136465
2.63557
0.033436
3.19857
0.0219288
0.0411504
2.4686
3.05998
0.077865
0.0320665
5.3675
0.137331
3.11101
3.13878
2.85421
0.120089
2.64609
0.0215958
0.0252743
0.0486446
4.08149
0.294555
3.42087
0.0220145
0.116622
0.0725282
0.0221372
3.16854
0.0213679
0.137045
3.93065
0.0213748
2.21567
2.23773
3.12394
2.56667
1.61893
0.200899
0.0211326
3.45448
0.0217754
0.0208519
0.042741
0.0241222
3.10827
0.0243375
0.0248923
0.0244057
0.0208142
2.31963
0.0231117
0.123501
0.320245
0.0206084
3.7006
0.104581
0.0227579
3.50534
0.378983
0.0213548
0.11335
0.0221722
3.26616
0.425569
0.0203531
0.122983
0.0231877
3.53404
2.97216
0.074705
1.05805
0.0260609
0.0215023
2.16436
0.0243204
0.0213764
2.71942
0.0421016
0.0208892
0.0208341
0.135667
0.0229743
3.8897
0.508678
0.0286562
3.2062
0.0547941
0.06466
0.0211832
3.57042
6.13304
2.38685
0.0214157
0.0202397
0.0741432
0.0312523
0.36693
0.0214114
0.50559
0.0213016
0.531682
0.0217755
0.0463943
0.157913
0.120862
3.5354
1.15087
3.06936
2.96716
0.0196967
1.71446
2.27133
4.49693
0.0210805
0.157206
5.88594
2.14408
0.122572
1.82708
0.223047
3.64655
0.0473121
0.331164
0.0205768
0.0490005
0.0444203
0.0213322
0.0725563
2.72418
0.0431438
2.15604
2.55702
0.0211764
0.020842
0.0299262
0.0213406
0.695732
0.0205287
0.0208052
3.74777
0.211722
0.0340902
0.105623
0.0222324
0.087338
2.15001
3.05759
2.02561
0.0259416
3.01638
0.023188
0.0205245
0.0234493
3.16604
0.353404
0.480943
0.19926
0.0224595
0.0208593
0.0213409
0.0219301
0.0270642
3.56624
2.47601
0.0293628
3.20634
3.9395
0.420449
4.0681
0.0214541
0.0305089
0.158987
0.0214282
0.041101
0.0273476
0.0242665
2.95865
3.08151
0.0205201
0.0411675
0.030402
0.0715475
2.28544
2.23447
3.57543
0.0217577
0.0858407
3.42302
0.0847539
0.122526
0.447371
2.51395
3.79077
3.53664
0.0204979
2.67596
0.0203062
0.0232817
0.0213695
0.0623767
3.73465
6.70589
0.459772
2.13136
0.0586604
0.020137
0.0208125
0.0215784
0.0230157
0.0455222
3.64621
3.38881
0.0799408
0.674879
0.0217481
0.0584218
0.0206627
3.10618
0.0695372
0.0216695
0.14125
0.106311
2.13664
3.62122
0.13483
3.69209
0.025126
2.32241
0.274106
3.22343
0.323981
0.0230605
0.0581208
0.0215329
2.99068
2.43395
0.0417921
2.692
0.27465
2.27314
0.0687031
0.157071
0.041792
0.0208987
0.12738
0.0613294
0.0244917
0.0579275
0.031806
0.0335158
3.47112
0.173245
0.0234067
0.031055
0.0376259
0.0327862
0.0228927
2.22935
0.114449
0.25942
3.51331
0.0214283
3.17136
0.0214749
0.0246493
0.0237242
3.10805
0.0389858
3.16444
3.87574
0.061909
0.0486917
0.124879
1.67779
0.141713
1.03924
0.0240707
0.0474226
0.0209069
3.20257
0.467108
0.0239291
0.0214435
0.0380683
0.0264114
0.0246904
0.0508971
0.0412008
0.0216675
0.034797
4.6781
4.5974
0.11998
0.0426616
0.0197896
1.76394
0.033216
0.0668315
0.845143
0.0447714
1.99781
0.0202185
0.0244941
0.0245315
0.0339863
0.0212397
3.32052
0.323116
2.44438
0.0381797
3.24148
0.229729
0.0261412
1.70072
0.0683293
0.202351
2.29203
0.0449176
0.0243273
0.0421763
0.0693532
0.0246802
1.06088
3.78579
0.320083
0.0209064
0.280067
0.338069
2.01836
0.021279
0.0458126
0.0211336
0.0314698
2.36743
0.0300939
0.0297224
0.0209
0.0208751
1.76191
3.11388
0.0214481
2.19883
0.193039
0.0201486
0.0253207
3.23841
0.117473
0.107031
0.0213994
0.0276731
0.110599
0.0215755
0.0210903
2.19209
0.0300477
3.2829
0.0866223
0.0266445
3.74709
0.118382
0.168947
0.0209434
0.239476
0.0307885
0.0271123
1.47877
0.0418862
0.0216638
0.0864294
0.0248212
0.0255902
0.0201165
1.36354
0.0213971
0.0646988
2.35558
0.10342
0.0208465
1.40465
0.0315612
2.47203
0.160424
3.46326
0.109456
3.05153
0.0206955
0.0787252
0.0259033
0.021139
0.336021
2.05498
0.0253661
0.566959
0.0248262
0.0740905
3.52398
0.0264817
0.320947
1.00441
3.02824
1.7743
0.637556
0.05535
0.0207639
0.0674119
0.0363962
0.678891
1.89002
3.09018
2.24832
3.26637
0.0208484
0.811003
0.0214103
0.0225533
0.0216279
0.399446
0.150727
0.0791569
0.0210667
8.64564
0.0279054
3.65857
0.0208777
0.0645206
0.0311029
0.0722693
0.0441031
0.107936
0.0230201
0.168539
0.138565
0.0209688
3.93144
0.238686
0.053861
0.022764
0.0308084
0.0216196
0.0210964
0.0668695
0.0356515
1.95964
0.191623
0.087989
0.892443
0.0211459
1.48731
0.0667917
2.2667
0.0312442
0.0317685
0.283757
0.0322758
0.0541765
0.13046
4.36076
0.0238214
0.0217664
3.03435
0.0326492
0.0239329
0.0277452
0.0308258
0.0204963
0.0270228
3.20737
0.0214764
0.0440021
3.26746
0.118499
0.073573
1.76687
1.95547
3.36906
2.94688
1.41611
0.0577305
0.38735
0.0229454
0.0251869
0.0215505
0.0210084
2.77717
0.399285
0.0327118
0.0207432
0.891044
0.0942974
0.0212492
0.146646
0.0544378
0.0212576
0.0232793
1.60094
0.027058
0.0386661
0.0381962
0.0213938
0.0895247
0.0668948
0.0304031
0.405386
0.0811829
1.56017
0.78766
3.00879
0.0235423
4.50496
0.164927
0.155102
0.0689749
1.81447
0.0770847
0.0269156
0.0511148
0.0685486
0.0237292
0.0735861
0.0211241
0.0212691
0.0200593
0.0248223
3.26584
0.0203877
0.108638
0.0247852
0.023977
0.0246315
1.44165
0.0236095
0.0641582
0.0215985
0.0247629
0.0253808
0.0207282
0.111462
0.0238503
0.0205367
0.0224276
0.0295793
0.0209611
2.02116
0.0278178
2.28252
0.217746
2.45837
0.061082
0.074167
0.0477388
0.0419113
0.0251932
0.0254974
1.59174
3.05425
0.655064
0.0650545
0.0325117
0.0214247
2.23573
0.0411088
3.31377
0.0216149
0.924418
0.151256
1.4477
1.33227
0.0200903
0.0214246
0.0203328
0.0296558
3.098
0.0483221
0.904286
0.0263719
0.0296859
0.0210285
0.0219312
0.0347328
0.0239261
0.0243394
0.0209092
0.347511
0.322975
3.26243
0.0247603
1.53314
0.0207037
0.0202467
0.109256
0.0220461
0.0244953
0.0667741
0.024519
0.0720772
0.0214326
0.0244933
0.0215789
0.0248891
3.16141
0.0211937
0.0238473
0.0228628
0.0242296
0.380138
0.0218554
0.0511305
1.60807
0.025027
0.0305162
0.0226059
0.0229814
0.0218793
0.133712
0.0215331
0.0272788
2.86207
0.0208393
0.0300385
0.0513637
0.0589865
2.20762
0.0200674
0.0240777
0.0222061
0.0310687
0.104083
1.00623
4.26981
0.0202498
0.029175
0.0755657
0.023383
2.73844
0.0199643
0.0216175
1.69806
0.0418146
0.0239722
0.0200203
0.188098
0.124662
1.94511
0.0216154
1.65699
0.0199963
0.0205459
0.0238132
0.0798685
3.77499
0.0215745
0.020944
0.327614
0.0215328
0.0234894
0.682661
3.94717
0.0215362
0.0204886
0.0220574
0.0322684
0.248585
3.35657
0.0219674
0.109717
0.021315
0.0213887
2.20246
0.0233393
0.0219941
0.0311538
0.339003
0.138433
0.0236006
0.0222771
2.71653
0.0420164
0.0225405
0.830143
3.06535
0.0215321
0.0218347
0.0233979
0.0213678
0.0215321
0.0208665
0.020206
0.0408296
0.0232924
0.0445926
0.0491304
2.1737
0.27691
0.0317675
0.0200492
0.0214525
0.0223232
0.0233853
0.0419182
0.0296817
2.15032
0.0239625
0.0757397
0.0247025
2.62078
2.25778
0.029236
0.022639
0.127146
0.0241593
0.0272154
0.0214029
0.0224715
0.0211156
0.0517246
0.0436294
0.0480427
0.110402
0.0235128
0.0259687
0.0223764
3.39993
2.49096
0.303925
0.0276083
0.0952458
0.0853013
2.91177
0.0220454
1.08104
0.0665205
0.0214143
0.0218648
2.36869
0.0215796
0.0226797
0.0234995
1.10773
0.0215351
0.0218284
0.0258699
2.06294
0.0209874
0.0530528
1.09602
0.0238916
0.0215445
0.0212017
0.0214393
0.0218411
0.0218004
0.0788121
0.0225
0.0215367
0.0218159
0.0218532
0.0293505
0.0214115
0.267957
0.0215891
0.0217865
0.0394032
0.0331815
0.0318501
2.00172
1.17162
3.4442
0.0385946
0.0208511
0.0396107
2.04123
0.0201843
0.0494337
0.0233102
1.02308
0.0235711
0.0447563
0.0218284
0.0213953
0.119305
0.201817
1.69226
0.269017
3.42879
0.021802
0.0209202
2.24648
0.0201572
0.021539
3.26982
0.0210209
2.12938
0.0214615
0.184204
0.111012
0.0240515
0.673142
0.0262134
0.0780564
0.125236
0.159594
0.20375
2.55185
0.502812
2.26296
0.0216132
2.19352
0.0215322
0.0213276
0.020995
0.0220567
1.0131
0.0225766
3.66073
0.0215847
0.0213798
0.0215948
0.447205
0.0216986
0.0205796
0.0551376
0.0256141
0.0268872
0.0255658
0.0290366
0.386389
2.63263
0.209884
0.998218
0.100904
0.0225223
1.42205
0.0214568
0.028746
0.0664602
2.57707
0.0440897
3.48376
0.0215321
0.18386
2.16693
0.153504
3.41358
0.251226
0.0237968
0.0213414
0.0244226
0.0215331
0.0213182
2.1903
2.21905
0.0211008
1.26107
0.0214253
0.111573
0.0210106
0.23255
0.0277974
0.0236662
0.0206751
0.659023
1.1364
0.264972
0.0206134
0.0206897
0.02698
0.0220511
0.0223509
0.142449
0.157265
0.0482034
2.13379
0.0433717
0.0218598
0.032538
0.0687232
0.0219924
3.07136
0.0569084
0.0787017
0.0234384
0.0245022
0.0202651
0.0196566
0.0213813
0.0269956
0.0207994
2.32893
0.0396337
0.10784
0.0213123
0.0431996
0.021538
0.344544
0.0408092
0.0563002
3.14067
0.0264217
0.0213569
0.0253256
0.0218912
3.29328
0.072674
0.0421745
0.0566283
3.52761
2.3087
0.11173
0.0516751
0.021417
0.0233692
0.0234432
0.0382458
0.103746
0.0267498
0.0216352
0.362127
0.473785
0.0218676
0.0235548
0.0571228
0.0225353
0.0209881
0.0412448
0.0214984
0.0219658
0.0209542
0.0237893
0.0221625
0.0462539
2.44627
0.0214705
0.956079
0.100811
0.112209
0.0209434
0.0215469
0.0517717
0.0263966
0.0214408
0.077601
0.0213812
0.0506602
0.0216705
0.0420525
1.64215
0.0560721
0.0227469
0.0613048
1.9202
1.24691
0.0214398
0.0366135
3.83851
0.0212455
0.0224235
0.0800271
8.38764
3.28647
0.0240665
0.021402
0.0268266
0.0212834
0.0224493
0.0287533
0.0218793
3.56777
0.0218715
0.129459
0.0215351
0.0214729
0.0522098
0.021371
0.0215923
0.0288632
0.119937
0.0205673
0.0359952
0.0219479
0.0211962
0.021663
0.0287087
0.026209
0.0719596
0.0234312
0.0218356
0.0219095
0.0395931
0.0225489
3.35015
0.022134
0.113049
0.034354
0.0227216
0.0281467
1.05412
0.0215514
0.022164
0.0199848
0.0721605
0.396525
0.0216265
0.0374989
0.0209629
0.0362975
0.0214506
0.269755
1.45003
0.0238678
0.0256185
0.0278954
0.0262592
0.0219965
0.0207492
0.0489551
0.0214119