/*--------------------------------*- C++ -*----------------------------------*\
| =========                 |                                                 |
| \\      /  F ield         | OpenFOAM: The Open Source CFD Toolbox           |
|  \\    /   O peration     | Version:  v2012                                 |
|   \\  /    A nd           | Website:  www.openfoam.com                      |
|    \\/     M anipulation  |                                                 |
\*---------------------------------------------------------------------------*/
FoamFile
{
    version     2.0;
    format      ascii;
    class       volScalarField;
    location    "200";
    object      ddt0(omega);
}
// * * * * * * * * * * * * * * * * * * * * * * * * * * * * * * * * * * * * * //

dimensions      [0 0 -2 0 0 0 0];


internalField   nonuniform List<scalar> 
13917
(
2.22272e-05
1.66187e-06
0.0475771
-2.36997e-05
-1.48314e-06
-0.0246744
0.00710483
0.057609
0.0577449
-0.000166108
0.00154244
-0.000546059
-2.45122e-05
0.542864
1.48248e-05
2.16425e-05
9.04896e-07
0.000352196
-0.000561153
-4.62899e-06
-5.85392e-07
-4.43284e-05
-3.84607e-06
0.0406729
-1.64409e-06
-0.0532668
-0.00298764
0.000435817
0.00657778
0.000115859
-6.63821e-05
-8.63442e-06
0.000159359
0.000139571
-2.68823e-07
-0.0962727
-3.96385e-06
0.014597
-3.89955e-05
0.0483036
-1.31359e-05
-3.48076e-07
-1.18387e-05
0.000728807
-6.95884e-06
-0.000259004
0.000327549
0.000559286
0.00932075
-8.94536e-06
2.97495e-05
-2.27361e-06
0.0188243
0.000126032
5.18486e-07
-2.46917e-05
0.00179941
-8.05315e-06
-2.41357e-05
-6.12224e-06
0.0147988
7.64284e-07
-0.0488502
-5.18326e-06
-0.0122932
0.0717015
3.6718e-07
-2.92194e-07
0.00270454
-0.000189206
-1.38852e-06
0.040109
0.044812
-8.66219e-07
0.00384294
-0.000864152
0.00940317
-1.31074e-05
-0.0914629
-5.79087e-07
-1.97859e-06
4.01672e-07
-0.0250717
0.0267753
0.000365386
-1.30164e-05
-3.15621e-06
1.31873
-8.43387e-06
-1.21471e-05
0.0503862
0.00162634
-3.82648e-06
-2.07895e-06
-0.421049
-0.0101801
0.00124897
0.000462822
-0.000259619
-0.00901146
-1.04956e-05
0.00025078
0.00107711
-1.71891e-05
-7.48148e-06
0.00255054
0.00453088
0.000648866
1.43668e-06
9.76667e-05
0.0176043
0.0611419
-0.000513879
0.0186046
-1.69289e-06
0.00673439
-2.32826e-06
-0.0024971
0.0179887
0.000235202
-2.7573e-07
0.00287861
0.00201358
-4.26961e-05
-1.02644e-05
-4.6223e-06
-3.47594e-06
-1.0571e-05
-1.35887e-05
-0.0581972
-0.025376
-1.56947e-06
-6.13392e-06
-3.98911e-07
0.27824
0.0374784
0.000180597
-0.00349368
4.27628e-07
0.000554339
0.00563814
-6.52902e-06
-3.94432e-06
-0.000275578
-2.97658e-07
-0.0129069
-0.000619258
-1.85112e-06
-6.14062e-06
-1.26618e-06
0.000116424
0.00730023
0.000333822
9.71353e-05
-1.79918e-05
0.0245252
-3.20256e-05
-0.485333
0.0809268
0.502713
2.24333e-05
0.0017513
-5.40203e-07
0.00121993
-0.000475777
-0.00032941
-1.68112e-05
0.000281909
-5.26889e-06
0.000452187
-6.90213e-05
0.0240788
-0.000651038
5.03161e-06
-0.0462765
0.000154998
-0.0269046
0.000940177
-0.0182589
-7.11236e-06
-0.000262829
-4.36018e-05
-6.43396e-06
-3.32169e-06
-0.000116812
-0.0414852
-0.00137912
0.052529
1.26279e-05
-0.00020222
0.00383254
0.0104205
-0.0033069
-3.55734e-06
0.00426593
-0.00176893
-1.8669e-05
-3.94018e-06
-0.00148893
0.835201
-4.43909e-05
-8.90848e-06
0.000275398
5.17357e-05
0.0431429
0.175317
-2.77491e-07
-8.6028e-06
0.000410596
0.00660658
-4.47981e-06
0.0185326
0.0738554
-0.000175562
-7.06434e-06
0.0127989
0.000403178
0.0726163
-3.92087e-06
0.0177559
-7.04797e-06
0.000143183
-1.28559e-05
0.0295791
-0.0012854
1.69009e-05
0.0278965
-1.92801e-05
-7.09231e-06
-0.0825392
-0.000793947
1.4936e-05
0.0345247
0.136614
-1.25488e-05
-9.39283e-06
0.0678826
-0.00336721
-1.82943e-06
-6.46708e-06
0.0431166
0.00156793
-9.06283e-07
0.0165485
0.00066252
0.00117669
-3.5556e-05
-1.33139e-06
-0.000308678
0.053233
-1.05085e-05
-0.00130192
0.0108864
-4.40753e-06
-7.21423e-06
1.65152e-05
0.0163918
0.00024704
-9.539e-05
1.9359e-05
-6.99607e-07
0.0369546
-0.0477404
-0.0103534
-8.0463e-06
0.0470729
0.129898
-0.514635
-0.0928111
-0.000860778
-1.36196e-06
-1.1098e-05
0.000204919
0.00903138
0.0014625
-2.27267e-05
0.255471
-0.00025673
-1.45735e-05
0.00237857
-5.03355e-06
-0.0416392
-3.96705e-05
-1.8617e-06
6.98851e-05
0.000105904
-0.0024361
0.0204069
-2.04556e-05
-1.00546e-05
-0.0177975
0.0271419
-0.0593656
-3.77369e-06
-0.362676
4.70912e-07
-1.01677e-05
-2.32101e-06
0.074152
-6.87915e-06
0.000398886
-4.44094e-05
-5.32246e-06
0.000248166
9.46372e-06
-0.00189342
0.000137181
-0.000153065
-6.79482e-06
-6.977e-06
0.0237304
0.0282565
-2.31935e-06
-1.23487e-05
0.00817968
-5.78954e-06
0.0495316
-6.52318e-06
0.0464093
-1.4536e-05
0.0121148
-4.66553e-05
0.00409503
1.88567e-05
0.116086
-0.00470474
4.66046e-05
0.00164667
0.00145879
-6.79719e-06
-0.0104556
0.0036087
0.0189155
0.000127256
0.0157627
-1.26205e-05
-0.0337803
-0.00572028
-0.0025138
-0.00331373
0.0512945
-9.62046e-07
-6.60906e-05
0.00250965
-8.14475e-06
9.81993e-06
0.0954833
-0.000872911
4.48449e-06
0.00892228
0.00839859
-9.92798e-06
-0.0111804
-0.00386874
-5.41401e-06
-7.1862e-06
1.14951e-06
-6.45551e-06
-0.01726
-0.0290084
-0.166893
0.00829754
-1.19361e-06
-0.00152579
-0.0215608
3.59706e-06
0.00983958
0.0330185
0.0090038
-1.12048e-05
0.000901309
-8.10031e-06
0.000946601
-5.88113e-06
0.00808878
0.000713592
-3.41614e-05
-1.47876e-06
0.000308081
-0.00104075
0.000491503
-0.0073425
-0.019341
0.0739408
-0.000110623
-7.40218e-05
-6.37617e-06
0.00404826
-0.0266833
-8.85755e-06
-0.0416389
-5.34381e-07
-0.00569969
-1.46957e-05
-9.00599e-07
1.02412e-05
-0.0999343
5.18366e-06
0.000632185
0.0461442
0.00123033
-0.0196046
-7.15989e-06
0.00700847
-0.0203281
-3.69071e-06
0.00029783
-8.31054e-06
-2.37622e-07
-7.65783e-05
-1.43424e-06
-3.75519e-07
-7.39961e-06
-0.00165865
-5.33474e-07
0.0251464
-0.0841284
-0.0162581
-0.00286307
-0.0351153
0.0735323
4.59358e-06
-1.38453e-06
0.000772781
-3.59142e-05
-1.26519e-05
-3.43145e-06
-0.0158936
-0.00560264
-0.0538265
1.426e-05
0.000521407
0.000152629
-4.22938e-05
0.000517603
8.00874e-06
-0.00022679
1.57207e-06
-6.39653e-06
0.0586068
-0.0288848
-0.0313307
-0.00220951
-0.0211875
-0.00446401
0.0155568
-0.0175351
-1.33481e-05
0.000339204
8.2901e-06
-8.7442e-06
0.0588818
0.000330454
-1.70628e-05
0.000206646
-8.88983e-06
-0.0295303
-3.53229e-06
0.00228217
0.0614261
-0.00451979
-0.000379124
-5.92269e-07
-8.40513e-06
-1.91849e-05
0.00043105
-1.07549e-05
-0.0399668
-0.218514
-0.000116896
0.0234237
-2.63666e-05
0.00138274
0.000354904
-0.000738817
0.00102211
-0.00878771
0.00221617
7.80647e-06
0.00166679
-0.000198991
0.00102542
-0.00772381
-0.000338635
0.000797471
-1.52621e-05
0.168258
-4.49323e-05
-9.44391e-06
0.000496571
-1.46389e-05
-0.0292384
0.0159341
-6.1521e-06
-1.53705e-05
0.0014391
0.0882701
-1.70838e-06
0.0225579
-1.70902e-05
-0.00297623
-6.0734e-06
0.0459318
-0.00619932
-5.92491e-06
-1.57292e-06
-0.0530193
-0.00148579
-0.0317126
-6.76639e-07
0.067158
-0.00197592
-0.00490132
-9.26998e-06
-0.00393316
-0.084903
-2.07179e-05
-7.00149e-06
-1.30037e-06
-0.000941015
-0.00598208
-1.80174e-05
-6.86778e-06
-8.91777e-06
-9.17544e-06
0.0533426
0.0609005
-1.97823e-05
-7.4494e-05
-1.10952e-05
-1.02418e-05
0.000854556
0.0222858
-8.23709e-06
-5.52026e-06
-3.92582e-07
1.89795e-07
-0.0130462
0.0183808
-2.84296e-06
-3.46139e-07
0.00783946
-0.00019332
-4.3206e-05
-8.8433e-06
-9.29663e-06
2.50668e-06
0.000860648
0.00416536
-0.00206435
0.00138675
0.00144905
0.182462
-0.000344058
-3.0375e-06
0.0462032
3.57273e-07
1.19461e-05
-2.9516e-05
0.161193
-0.000187616
-1.30105e-05
-0.0171353
0.000183412
0.0216107
0.00146119
9.0422e-05
2.53835e-05
-1.45667e-06
-0.0713095
-0.00204375
0.0566848
-2.79818e-07
-2.31637e-05
-0.00195024
0.0449857
0.160739
0.000620549
-0.00256029
1.77068e-05
-8.93994e-06
-8.94313e-06
-0.00148028
0.00117633
1.24785e-06
0.00028428
0.000759542
0.0678192
-0.0296157
7.51076e-06
0.00147457
-0.019439
-6.13562e-05
-6.76915e-06
-0.000582587
-0.026014
0.00725789
-0.00252835
-1.31407e-05
0.0237721
-0.000898469
-1.45332e-05
-1.81184e-05
0.000570188
0.000318405
0.000229011
-0.085403
0.00175623
-0.000170895
-0.0644503
-1.54182e-05
-0.00109942
-1.1118e-06
-2.97983e-06
-0.355869
-0.0260511
-0.0239362
-1.55763e-05
5.39094e-06
-2.41214e-07
-0.000290367
0.0157317
-0.000543736
-1.55432e-05
0.000800272
0.000368487
-6.14379e-06
-0.247055
-0.000514779
-0.0057112
-5.21733e-06
0.00176278
-1.42229e-05
0.0730687
-0.00066783
-0.00107127
-1.79467e-05
-1.10192e-05
-8.92414e-06
-4.14589e-06
0.00015376
-0.00020624
-0.0100223
-0.00401649
0.000299003
-9.84366e-06
0.00133634
-0.035463
-0.247558
-1.03548e-05
2.00807e-05
-6.61512e-06
-7.98583e-05
-2.31781e-05
-0.0795442
-1.03247e-06
-0.0508303
-7.54732e-05
0.0017261
0.000450189
0.0441562
-0.000127844
-1.84974e-06
0.00265564
0.248454
-7.434e-06
-2.90023e-05
0.0479198
-0.00113989
0.00130052
-2.48516e-06
-1.86745e-06
0.00167993
-3.59617e-05
0.000470587
-4.79257e-05
-9.04358e-06
-2.04518e-05
0.0516575
-1.05589e-05
-1.93057e-05
-8.42644e-06
0.00573241
-2.13908e-07
1.42244e-05
0.0273017
7.60157e-06
-0.0212024
-1.70401e-05
2.79526e-06
-8.38807e-06
-0.000134376
-2.27778e-06
0.000141808
-1.12028e-05
-0.00134625
-1.69741e-05
0.076334
-0.00804741
0.013475
-1.88746e-05
-1.18662e-06
-0.000180649
-0.000110116
0.0262492
0.0492855
0.000242725
-7.74637e-07
-0.00196158
-0.0103297
-0.0141831
0.00226616
8.10563e-05
-0.0969544
0.0001146
-0.000214683
0.00020272
0.00104253
0.000211064
0.0434913
-1.30116e-05
-2.47203e-05
0.000647036
-1.05533e-05
-9.13244e-06
-7.56303e-05
-7.39016e-05
-2.42628e-06
-1.95357e-06
-1.09906e-05
0.000377086
-1.95209e-05
0.000516335
-3.60347e-08
-1.03667e-06
-3.46361e-07
1.57132e-05
-1.13608e-05
8.41907e-07
-8.27447e-06
0.0501495
-0.000602648
-0.0398828
-1.12703e-05
-1.21835e-06
0.000166474
6.61194e-06
2.11358e-07
-0.0307811
-7.79189e-05
-0.0621007
-7.67185e-05
0.000837558
-1.25017e-05
-5.98378e-07
-9.81355e-06
1.61875e-05
-0.0387208
-1.08994e-06
0.345884
-2.69708e-07
-0.0212631
-0.000624131
0.000594285
0.00161149
-9.09674e-06
2.27354e-09
-0.000609536
-5.10227e-08
-8.34879e-06
0.0179114
4.77794e-06
-6.54988e-07
-2.23567e-05
-6.96405e-06
-1.49883e-05
-4.93682e-06
-0.00343032
0.111557
-1.755e-05
-1.05831e-05
-1.342e-05
0.0684851
-0.00015193
-6.15769e-06
-2.86872e-07
-0.0167457
0.0287202
0.0505604
-0.000469586
-2.44754e-05
-1.26083e-05
-1.4929e-05
-0.000338473
-3.36471e-05
0.00446707
-0.000171283
-0.0123427
2.97153e-06
1.20585e-07
0.0349981
-6.34757e-07
0.00018852
-8.21138e-06
-6.85424e-06
4.7095e-05
-0.00194807
-1.04268e-05
-0.0213173
0.0247949
-0.000478799
-3.24963e-06
-1.04933e-05
-0.000334003
0.263914
-1.71859e-06
0.104798
-1.05428e-05
-0.000207894
-9.8152e-06
-9.02523e-06
-0.0110537
-8.47828e-06
0.104816
-5.70102e-05
-8.64042e-08
-1.12726e-05
-2.12028e-07
-7.2565e-06
-1.85786e-05
-0.0145265
-1.00137e-05
-7.64043e-06
0.142021
0.00299246
-0.00016701
-0.000169827
0.000565183
-2.6645e-05
-5.70233e-06
-3.65629e-06
0.0421115
-0.00337626
-2.24999e-06
-1.92171e-06
0.0395833
1.79024e-05
-0.0169801
-4.94331e-07
-3.86765e-06
0.0235839
-2.0886e-05
-1.1716e-05
-0.053813
-0.00371144
-7.25015e-06
0.000557032
-9.96047e-06
-8.06634e-06
-1.04885e-05
0.0430594
-1.21905e-05
-1.05304e-05
-5.81106e-06
0.078553
-3.44475e-05
-0.00304845
0.00466869
-9.49534e-06
0.000250957
-3.12441e-06
0.00379078
-5.33548e-06
-1.05216e-05
-8.818e-07
-0.000273353
-4.4134e-07
0.00180128
0.0596331
0.0230148
6.70621e-05
-0.0198207
0.0240868
-7.43011e-06
0.017473
0.0151959
0.0225205
-0.0386029
0.157057
0.083233
0.00104283
-2.38159e-08
-0.0881992
-1.66042e-05
-0.0272637
-9.00319e-06
-3.77192e-06
-6.22591e-06
-3.67213e-06
-2.84744e-05
-0.000478625
0.00343488
-4.00536e-06
-4.84615e-07
-0.0261791
-0.0138501
5.28642e-08
0.00323224
-1.99284e-05
-9.42322e-06
-0.0152471
0.00174399
-2.9569e-06
-3.41528e-05
0.0472529
0.0457854
-0.0095685
-9.85331e-06
-0.00188304
-6.39639e-05
-0.0100552
0.00476602
-0.000799022
-5.72029e-06
-1.26956e-05
2.89184e-06
-1.31217e-05
3.87145e-06
-1.33244e-05
2.29119e-06
-4.28407e-05
0.0297488
0.00243607
-1.09357e-05
0.000975945
0.0157681
-9.73738e-05
-6.7688e-06
0.015955
-5.25726e-06
-9.22606e-06
7.50067e-05
0.0447289
2.26444e-07
-5.52828e-06
0.0287109
0.0249838
-0.0288728
0.00176346
-0.0791453
-6.29114e-06
0.00160979
-7.14628e-06
-4.27616e-06
-5.1428e-06
-0.0469659
0.0586462
-8.17046e-06
-1.13876e-05
-8.00798e-06
0.0402326
1.95756e-05
-2.30713e-05
-5.66981e-08
2.6143e-06
0.00125695
-9.74176e-06
3.658e-05
0.0030607
-0.0358373
-3.83419e-06
0.00198662
1.07171e-05
0.0417083
0.024571
-5.54853e-07
0.0308557
0.000685659
-0.00156793
-1.64337e-09
-0.0972057
-9.01204e-07
-2.76198e-05
-0.000101881
0.0017408
-0.00118386
-0.0331174
-0.00138212
-0.032305
-1.17634e-05
-0.00250765
-9.09894e-06
1.52182e-06
0.0383024
-9.04671e-06
-6.78469e-07
3.80113e-07
-8.14047e-06
0.016771
-9.84336e-06
-3.6762e-06
-1.0897e-05
-1.54756e-05
0.000219593
-0.0263259
-0.000631363
-0.044321
-0.000741649
2.95551e-06
-0.000219692
-0.00602895
-0.000179517
0.0295888
-0.0580083
-3.84809e-05
-9.93739e-06
-0.0327238
-0.0110358
-1.47534e-06
0.00064285
-6.07458e-06
-1.37603e-05
-3.43597e-05
-8.62839e-06
-4.74314e-05
2.38908e-09
2.37395e-05
-0.00175261
-7.83086e-06
4.62193e-05
-7.7674e-06
0.00166363
-1.14212e-05
0.000197578
0.000385408
-2.03113e-05
-1.02881e-05
-8.11058e-06
0.0253263
-0.00138614
-0.0151553
-3.12925e-07
2.61327e-07
0.000378381
-8.33124e-06
0.00014911
-0.000833172
-1.36586e-05
0.00063593
-8.02949e-06
-0.0023563
-1.53389e-06
-0.000168607
0.0732541
0.00135196
-6.60464e-06
1.10565e-05
0.0445897
-4.15107e-06
-6.47732e-06
-0.00879416
0.0417073
-0.000108865
-0.000694582
-5.02401e-06
-1.04497e-05
-0.0362472
-2.13633e-07
-8.98328e-06
0.00141673
-8.18101e-06
-0.191479
-2.25102e-06
-8.75573e-06
-7.12079e-06
-0.000501543
-0.0209085
-7.90317e-06
-9.57015e-06
-6.05528e-06
1.62123e-05
-7.37791e-06
-0.000142037
0.000186629
-7.45819e-07
-0.023329
4.23009e-05
-0.00544891
-0.00257716
-0.00109561
-8.23705e-06
-6.47125e-06
-7.93096e-06
0.0049078
1.37076e-05
-0.0194009
0.0350477
4.06006e-06
0.0271318
0.00242542
0.000165413
5.20724e-06
-0.00164872
-0.0118604
0.00794941
0.00145539
0.0333717
0.0363962
-0.000340591
1.58191e-05
-0.00779142
0.000117319
-9.03179e-06
-1.83148e-05
0.0634111
-2.80389e-05
-5.99096e-06
-0.000312358
0.000232709
0.000114171
-0.0306904
1.04821e-05
-0.0274918
-0.000213908
0.0133684
0.000200317
-0.00370679
-2.15639e-05
-7.57741e-06
1.77336e-05
0.0346696
-2.78883e-06
1.60187e-06
-1.48688e-05
-2.50503e-06
-4.16603e-06
0.000506203
0.000822493
0.00538568
0.00542569
0.000766831
-0.0467624
-0.00595951
-4.85344e-06
0.0193837
-0.0594928
-8.73375e-06
-6.6751e-06
-2.02815e-05
-0.0248674
-4.28032e-07
0.000449448
-0.00486634
3.81285e-05
-2.1066e-06
-2.03098e-05
-8.61136e-06
0.000778811
7.71483e-05
-8.20855e-06
-0.0143917
-0.0952929
-9.47369e-05
0.14552
-0.000404997
6.69938
6.90452e-06
-2.80959e-05
0.00231578
0.166205
-0.000710253
0.0108332
-1.16821e-05
-5.64376e-07
-9.27168e-06
-8.17601e-07
-6.74501e-07
-6.09264e-06
-0.000210971
-5.76487e-06
0.0010027
-6.69384e-06
-2.30469e-05
-9.19949e-06
0.000519386
0.000675092
-0.00169125
-6.73046e-06
-0.0035589
-9.20965e-06
0.00458301
-3.44134e-07
0.000426405
-2.55427e-06
0.00092347
0.0444459
8.77074e-06
-5.95446e-06
0.00238722
-5.39221e-06
-1.25383e-05
0.0485777
-7.43391e-06
-5.44389e-06
-8.44899e-05
-1.91572e-05
0.0182412
-5.70336e-06
0.000132056
-1.9815e-05
-2.17393e-06
-3.25893e-05
-8.95156e-07
-1.18283e-05
-4.12845e-06
0.0409687
-6.54862e-06
0.0109931
0.002236
1.03911e-05
-0.0288794
-6.17845e-06
-1.1719e-05
0.000336472
0.12403
-2.17645e-05
-0.000101883
-8.77785e-05
-1.30217
-7.18566e-06
-0.00802852
0.000137617
0.000568029
-7.27031e-06
-1.10457e-05
-0.000803306
-7.14401e-06
-2.09057e-07
0.000641238
-9.24343e-06
1.12653e-05
-1.51812e-05
7.29403e-05
0.0553333
-0.0160258
-3.78111e-05
0.000290502
0.138744
0.0527979
-0.000153649
-0.00109944
-0.0315804
4.46091e-05
0.036261
4.70172e-06
-8.34001
-0.0173058
-9.65108e-06
-1.53858e-06
-5.48233e-06
-1.55836e-05
0.000123256
-9.39786e-06
-3.6069e-06
-0.000869273
-1.46801e-05
0.000124472
0.0386491
8.81127e-05
-2.27344e-05
0.0545027
-1.12801e-05
0.0113859
-3.10483e-05
-0.00306422
-7.50495e-06
0.0844114
0.0446147
-5.51088e-06
-1.60953e-05
-0.101285
0.000130689
-0.0395821
-7.67214e-06
-8.43158e-06
0.0583536
-1.48185e-05
-0.00110207
0.0326311
-3.65551e-07
0.000136212
-1.37977e-05
-1.1133e-05
-1.22346e-05
-0.0978691
0.0187588
-7.91209e-07
-1.85353e-05
-8.34212e-06
-5.93045e-08
-0.00291861
-0.0069833
-7.25484e-06
-0.00937339
-0.394089
-0.00104044
0.264693
-1.50426e-05
-0.000800619
-0.000673085
-2.29314e-05
-1.14109e-06
-6.68792e-05
0.0334512
-3.20864e-06
5.25928e-05
0.0526122
0.00840416
0.00536358
-0.00010053
-7.11241e-06
-1.94934e-08
2.66835e-08
0.0239624
0.000239489
-2.37889e-05
-1.68308e-05
-2.10149e-05
-2.92594e-07
-8.46384e-06
-2.12441e-07
0.00028337
-0.000203159
-0.0310994
0.00278297
0.00701898
-0.0144854
5.62907e-06
6.18433e-05
-1.03941e-05
4.34687e-05
0.102251
3.82386e-08
1.04954e-05
9.04686e-05
0.00128847
0.00174694
-0.0793338
0.0220942
-4.91297e-06
0.00711928
-1.17143e-05
-9.65411e-06
7.66932e-05
-1.70251e-07
-1.05722e-05
0.00283305
-0.0282568
-8.12732e-06
-0.0248887
2.18278e-06
-8.38083e-06
8.9491e-06
-0.00227813
-9.89494e-06
-3.0773e-05
0.062733
-1.72431e-06
0.00443683
-0.0605225
-1.71244e-06
0.00200763
-7.65276e-06
0.0553979
0.000491254
-6.36375e-08
-0.0760119
0.000124261
0.000179294
-7.09884e-08
0.0454775
6.94755e-05
-0.0488185
-1.88377e-05
-6.62637e-05
0.102266
-7.68346e-06
0.0428298
-7.35186e-06
2.51965e-06
0.000207988
-1.72799e-06
-0.010892
9.81395e-06
0.00116786
0.000167989
-0.00198037
7.37263e-05
-0.00192136
-7.17903e-06
0.0508186
-0.000339846
0.0273262
-0.000114679
2.50736e-05
-3.24922e-06
0.000203378
-2.42709e-06
-0.000777752
0.0222307
9.95166e-06
-5.81219e-06
0.00839811
-1.49291e-05
0.118016
-8.71994e-06
-0.0181098
0.00445794
-1.75247e-05
-2.89725e-06
-5.39204e-06
-8.88558e-07
-1.30042e-05
0.00103506
0.000885276
-0.00102042
-1.58071e-06
-5.36134e-06
0.247663
-2.02731e-05
-2.45847e-05
0.178629
-1.66712e-06
0.0793822
0.000290871
-9.00602e-05
-0.00988564
0.020706
0.0549
0.00641419
0.0300781
-7.33128e-06
-0.0142945
-0.00900312
-0.124798
-3.15581e-06
-3.77816e-06
0.00103943
-0.0856867
0.0133006
-0.00612438
-1.37196e-05
-0.00182684
5.31895e-05
-0.0526638
-0.00892692
-6.22218e-05
0.00161842
1.14618e-05
-0.000642
-0.000795147
-3.51463e-06
-0.000638729
-0.0272547
-1.13315e-06
-0.21009
-1.10035e-06
-7.96703e-06
-0.0514197
0.0553394
-1.02963e-05
-1.4645e-05
-3.58659e-06
-7.80719e-06
-0.00011458
0.00268118
-1.99e-05
-4.7532e-06
-4.42954e-06
-0.000192906
-1.36285e-05
-1.05864e-05
0.0236144
-1.16287e-07
0.0753632
-0.0508207
0.121906
-0.000443436
7.91398e-05
-0.032112
-9.64704e-06
-0.095907
-0.293607
-0.0217036
2.15289e-06
-0.12044
-0.0243768
-1.25517e-05
-2.2354e-06
-0.00194395
-0.0216905
-0.00704306
-9.72631e-06
-6.72662e-06
-0.0332845
2.534
-0.499281
-5.47768e-06
-1.0993e-05
0.000711735
-8.90396e-06
-0.00669345
0.0429917
-0.228514
-0.0299243
-2.37497e-06
-6.93578e-06
-1.031e-05
0.000157659
-0.00947814
-9.43773e-05
-3.89613e-05
4.35443e-06
-0.00104954
0.00604999
-0.000196817
-0.00585471
-0.0232208
-0.0170364
0.00295263
-8.62412e-07
-3.08628e-06
-0.00863739
-1.0448e-05
-8.90717e-06
3.5106e-06
-0.00520482
2.129e-05
0.0696388
0.000518756
-1.36832e-06
0.0495166
-4.02578e-05
-3.95539e-06
-0.034781
0.000868264
-0.000419064
-1.10145e-05
0.00318464
-0.0189712
-5.49837e-07
-0.0224513
-0.38472
0.014397
-0.0146781
0.000245437
-7.67334e-06
-9.47836e-06
0.0545182
-1.90424e-05
0.00921057
-0.000137916
-0.625323
0.00126651
-9.37863e-07
4.76728e-05
-6.9011e-06
-7.90423e-06
-0.0259986
0.0210064
-4.77321e-07
-0.0200033
-3.15008e-05
-7.00501e-06
-3.36825e-06
-5.57308e-06
0.00188214
-2.63738e-06
-8.37298e-06
-0.000526205
-7.46635e-06
-1.21401e-05
0.0257851
0.0271879
3.27257e-05
9.34285e-06
-0.000172368
-1.70601e-06
-1.41748e-05
1.05083e-05
0.00468766
-0.00753667
-0.0223898
-1.03509e-05
-1.10952e-05
-1.95233e-07
-0.000659902
-7.04153e-06
1.50342e-06
0.00258871
0.000272293
-0.0564317
-9.97366e-06
-0.00629489
-0.00775649
-1.13093e-06
-0.04161
0.0020653
-0.000140808
-0.000217215
-2.08622e-07
0.0149364
5.51705e-05
-2.31588e-06
5.28436e-06
-1.06767e-05
0.0156811
-1.87783e-05
-1.80052e-05
-0.000420481
-0.00321954
-0.026952
-1.26422e-06
-9.76817e-06
-7.50239e-06
-3.733e-06
0.000500866
-6.7467e-06
0.000357338
-1.97345e-05
0.0243378
-1.60905e-05
0.0476175
-9.53183e-06
-0.0192264
-6.46488e-06
-1.09417e-05
0.0325257
-0.00750922
-0.0121445
-0.157028
-1.96548e-05
4.99414e-05
-3.24581e-07
0.0590784
-1.44443e-07
-6.83027e-06
0.0058218
-0.000645221
0.07674
-0.0047603
0.000806139
-0.0352413
8.37513e-05
0.0240228
-1.72987e-05
-2.53485e-05
4.59042e-05
0.0671292
4.27591e-05
0.0313954
-0.0163178
-1.20561e-05
-4.19767e-07
-8.41485e-06
-0.0131965
0.00651906
-1.88373e-05
-3.23122e-06
2.32127e-05
-1.34081e-05
2.7166e-05
-0.0109869
-0.0162126
-5.89569e-06
-0.0965359
-0.000243554
0.10832
0.000559026
7.7052e-06
-8.08125e-06
0.0636864
-1.09648e-05
-0.000198993
0.0242364
-2.13545e-06
-3.44439e-07
0.00260239
-0.00601946
-6.42004e-06
0.0548017
-2.00044e-05
-0.00220954
-0.000232913
-2.62663e-05
-1.59021e-05
-0.0114275
-8.9131e-06
-0.000226802
-0.00314236
-0.0360511
0.000259205
-0.000142356
-3.88812e-05
0.00074654
-1.7546e-07
-0.0371969
-3.7021e-05
-8.95647e-06
-1.96855e-05
-4.99757e-06
-8.76271e-07
-0.0105274
-1.40321e-06
-4.29469e-06
-8.73275e-06
0.00146608
-1.68545e-06
-1.26509e-05
0.000324745
-0.00301134
0.000111224
4.462e-08
-0.00939172
0.00427843
-0.00162468
-0.000201302
0.000512879
0.00209766
0.0171195
-0.00718596
-8.92777e-07
0.0480565
-0.0457465
-7.49246e-07
-1.58728e-05
-1.14038e-05
-0.169004
-0.00117844
-1.09524e-05
-0.0110683
0.042387
-1.35147e-05
-1.23945e-06
-0.0945993
-0.0186234
-0.000656175
-9.95855e-06
-0.0848343
-0.0383482
0.00329999
-2.15838e-06
0.0748785
-0.000809609
2.39783e-06
-0.00731942
-2.56392e-05
-1.13821e-05
-2.05294e-05
-0.000789777
-1.96829e-05
-0.0864443
-0.00871497
-5.77789e-06
-0.0236856
0.00677134
-0.00495261
-1.01577e-05
0.00303983
-3.9718e-07
-7.64758e-06
0.105756
0.0815001
0.00274024
-0.50016
8.64756e-05
7.86789e-05
-1.53926e-05
-0.044425
0.0417244
-1.29354e-07
-1.43648e-06
-0.000143988
-1.00366e-05
0.000255047
0.0967059
-0.0466
7.42385e-05
-8.25716e-06
-1.22448e-05
0.109505
1.48421e-05
0.000142301
-6.04005e-06
3.77354e-06
-0.00886667
0.0791857
0.00264799
-0.0174474
-3.31644e-06
-0.000922775
-1.9057e-05
1.58158e-06
-0.00461619
-0.0422757
-1.58128e-06
2.03094e-08
-0.000146714
-2.66202e-05
-1.55854e-06
0.136242
0.0537758
-7.00884e-06
-1.43962e-05
-5.42443e-07
-5.22288e-06
-0.00746848
-8.66722e-06
-0.088807
0.00148462
-0.000679893
-4.29223e-06
-3.47953e-05
-0.0264093
-1.47868e-05
0.00488466
0.0286626
-9.70629e-06
0.0949616
5.72164e-05
-0.00126695
0.000618993
0.0854452
-0.00386754
-0.000510009
-7.22794e-06
0.00746657
-8.59059e-06
-0.00017194
-6.1294e-06
-0.0776763
-9.36523e-05
0.00895723
-0.0218984
4.10674e-06
-1.47153e-06
-0.00261614
-1.50188e-05
-6.47073e-07
0.0109082
-1.37719e-05
-0.000180618
-4.47064e-06
-5.80344e-06
-0.00517362
9.68681e-06
0.278243
-4.49081e-06
-5.52821e-06
0.00900521
-0.00822551
2.66912e-05
0.00036637
-0.0001521
-2.38377e-05
-0.000128886
-4.57188e-05
1.82002e-05
-2.86513e-05
0.0199887
-4.12731e-05
-0.055261
0.00212304
-0.0142438
-0.000884752
-1.445e-05
0.14821
-1.4348e-05
0.0162519
-2.14477e-05
-0.00289483
-0.159759
-0.0630699
0.102571
-0.00363985
0.00346262
-1.04847e-05
0.0828709
0.000497737
-1.2761e-07
0.0406864
-0.00314711
-2.16771e-06
-2.37186e-05
-1.8467e-05
-1.88889e-05
-3.33944e-05
0.0487656
-9.09399e-07
-8.92977e-05
-0.000109136
0.000281233
-3.54932e-06
-6.09e-05
-1.02427e-05
-0.043834
4.82806e-06
-0.000143807
-1.88282e-05
4.53215e-05
-0.00214237
0.0688376
-0.000289104
-6.12326e-06
-0.0159309
0.0357599
0.14451
-1.3127e-05
-0.0129877
-2.80794e-05
0.0345802
-2.62453e-07
1.69095e-05
0.0365609
-0.000451425
-0.0199199
0.0733146
9.77175e-05
0.0451181
-4.84161e-06
-1.03216e-05
0.0954854
-0.000128926
1.45398e-05
0.104177
-9.31574e-06
0.00046737
0.000150339
-0.000265966
-1.74227e-06
-0.0273155
0.0102068
-0.0262201
0.00304834
-1.81498e-05
-0.000260829
-0.0128166
1.10653e-05
-9.3433e-06
0.000384779
-1.48963e-05
-0.00274478
0.0572329
0.0796979
0.0173005
-8.43135e-06
-1.367e-05
0.0961338
-1.16154e-05
0.000476685
-1.2943e-06
0.050032
9.37079e-06
-0.000959777
-0.0166737
0.000483741
-6.15922e-06
0.000103066
0.0566097
-2.15116e-07
0.00261373
-5.89027e-06
-0.00583461
0.0221652
0.00153808
0.0102332
-6.90041e-06
0.00443078
0.00116667
3.7027e-05
-5.74644e-06
-1.49731e-05
-5.67316e-06
2.87362e-05
-1.34816e-06
0.000127366
8.45556e-07
-6.41518e-06
-0.124656
-4.57666e-06
-1.06456e-05
-3.54444e-05
-4.50262e-07
-0.0175252
-4.11441e-06
0.000161238
0.0850145
-0.000356755
-0.0537023
-1.00955e-06
-0.0251583
-0.000360272
0.139633
1.00685e-05
0.00175455
-1.23099e-05
5.60992e-05
0.000585247
0.000582076
0.000115117
0.0598515
-0.000152782
-0.0464564
6.66455e-05
0.000726138
0.000120307
0.00752505
-3.20184e-05
-1.21326e-05
-1.17552e-06
-0.000130823
0.000172044
0.164409
0.000360469
0.020638
-0.00869746
0.0148796
-7.70969e-06
0.166712
0.00038725
-4.90114e-06
7.54736e-06
-6.07709e-06
-0.0484367
-6.48271e-07
0.131043
-4.52748e-06
-4.08704e-05
0.0517126
0.000913358
-1.35668e-06
-1.14684e-06
0.0853471
-4.05637e-06
1.10017e-05
-2.64867e-05
5.96594e-05
-1.55429e-05
-3.81126e-06
0.000196074
-0.00422987
0.000295369
-0.00242325
-0.00926501
-0.0192006
0.0638211
-9.51753e-06
-4.97212e-06
0.000536921
-1.34238e-05
0.00183135
-0.0230514
-0.00209998
-1.05481e-05
-1.55558e-07
-0.0617952
0.0137885
-9.3812e-06
-5.64961e-06
0.00012246
0.0930912
-0.0794459
-1.49986e-05
-1.96693e-05
-1.69787e-06
0.00489306
0.000746709
9.95558e-05
3.57045e-05
6.13025e-05
-1.82203e-06
-2.19298e-05
-0.00467907
-8.22022e-06
-7.43812e-06
-1.05315e-05
0.0269005
-4.01987e-06
-0.0218712
-3.69704e-06
0.0277801
-0.000105671
-0.00133743
-1.0531e-05
-6.04773e-06
0.00774116
-0.00643137
-0.00328343
0.0299068
0.0739769
-8.20678e-06
0.0657984
-0.000209841
-1.49317e-05
-0.30837
0.0217878
0.00203454
-1.69378e-07
-0.0418571
-0.00830611
-9.69966e-06
0.000171983
0.00107521
-2.08314e-05
-8.69722e-06
-6.15115e-06
-6.44674e-06
-2.25015e-05
-9.49408e-05
-0.0057517
-0.00120266
0.000143546
-1.39571e-05
-8.30494e-06
0.00897058
-4.59737e-06
-2.59887e-05
-0.000360658
-1.20132e-05
0.000264197
-1.85336e-06
7.89835e-06
0.000192158
-4.7326e-06
0.0377315
-9.33134e-07
21.1032
-0.0361259
0.000868189
-3.57777e-06
4.34422e-09
0.0679709
-1.07351e-05
-4.83174e-06
-5.8086e-06
0.0102622
0.0391803
-3.79202e-06
-0.0149312
-0.000390214
-0.0299294
-7.01536e-06
0.000464068
-8.97834e-06
-2.70971e-06
-0.0239635
0.00562196
-0.0374722
-5.30176e-07
0.000611282
0.000577477
0.00424944
0.0900807
0.00222032
-5.36475e-05
-1.24949e-05
0.0487633
-6.82568e-06
-5.31717e-06
0.000288258
0.000476788
-2.02801e-05
0.00129177
-0.000222743
-0.000112142
-1.57975e-05
0.0393926
-2.04816e-05
-4.81122e-06
-0.0386395
0.00075176
-7.75353e-06
-0.0261293
-6.00457e-06
-3.30914e-06
0.00184436
-0.00203223
0.0763455
-7.48839e-06
-8.07121e-06
-6.69071e-06
-0.0192249
-4.62597e-06
0.118858
-0.438154
-0.0404983
-0.0150411
0.0535489
-0.000413277
0.0433545
0.0129236
-1.65025e-06
0.00019796
0.000465931
4.8962e-05
-0.00924805
0.0295622
-0.0157116
-0.0662753
0.0107197
-9.47156e-06
0.00156081
-6.89029e-06
-0.0176777
-2.62311e-05
-2.01951e-05
-1.39815e-05
-9.02124e-06
-5.67129e-06
0.00101867
-0.0157184
-1.06084e-05
-9.55611e-06
-1.14896e-05
0.0349126
-1.00707e-05
-0.0770482
-0.0648561
-0.0424606
-1.19478e-06
-5.78885e-06
-0.0358866
-0.0107283
-1.90851e-06
0.0298202
-9.50849e-07
0.00021588
0.00015441
0.000775089
0.000126307
0.00742185
-5.99323e-06
-9.17305e-06
0.0112539
-0.0341115
-1.80396e-05
9.96265e-05
-7.86854e-06
0.0577445
-9.46041e-07
-1.11421e-05
-8.25324e-06
-6.41551e-06
0.0151677
0.00750598
-0.159012
-0.000609036
0.0587485
0.014272
-1.07165e-05
-3.30012e-05
-8.77546e-06
-0.0145748
-9.20294e-06
1.31657e-05
-2.24862e-06
-6.31402e-06
-8.07831e-06
-5.03033
-1.79327e-05
0.0181797
-9.63686e-06
0.000230979
-1.77225e-05
0.00472313
-2.79427e-06
-1.68059e-05
-0.000112102
-0.000155203
-0.0767846
-6.35319e-06
-0.0053618
-2.51632e-05
9.71251e-05
-1.81692e-05
-4.72696e-06
-0.0319709
-0.159575
-9.66865e-06
-5.75111e-06
0.000905227
0.00558839
0.00367626
0.0575033
-2.37347e-06
-0.0326426
-4.03194e-05
-1.01295e-05
-0.043062
-1.94087e-05
-0.0800811
-8.64873e-07
-5.46508e-06
-3.37252e-06
-0.00744223
-0.0371754
-9.81477e-06
0.00915307
0.00791124
-6.5433e-06
-5.92335e-06
-1.4303e-05
0.00281947
0.080261
-5.01051e-05
-3.17857e-05
3.89972e-06
-2.47352e-06
-6.22942e-06
-1.29373e-05
-4.82721e-06
0.00276947
-4.4545e-06
-0.000327191
-0.00855593
-2.24019e-05
-1.3925e-05
-0.00674781
0.000768003
-2.54572e-06
-0.000687969
-2.09476e-05
-0.139164
2.98048e-05
0.0262825
3.23653e-05
-6.51238e-06
-0.000298232
0.000352491
-2.32205e-05
-0.0937847
-0.000302551
-8.99996e-05
-0.176366
-5.98885e-06
-0.00252736
0.00125723
0.00163758
-5.37827e-06
-8.26002e-06
-1.13774e-05
0.00263882
-0.000219238
6.56971e-06
-0.00583684
-0.0147862
-0.0742411
-5.97921e-07
0.00626197
-0.0514005
0.119831
-3.09921e-06
-6.19698e-06
0.000140789
-0.0439861
1.08058e-05
-5.24045e-05
0.0529782
0.000207549
5.6025
-0.00074621
0.0016872
-0.0546541
0.0155961
-1.02811e-05
2.32643
0.000725833
-5.18966e-06
-1.20317e-05
7.70858e-06
-0.0399392
0.000279793
0.0189983
-4.87775e-07
-0.212256
-2.7937e-06
0.101365
-0.0174037
-7.47073e-06
-3.42582e-05
0.0405311
0.00644142
8.48507e-05
-1.04598e-05
7.74053e-06
-6.1544e-06
-0.0272532
8.15601e-05
-0.971285
0.105295
-6.73063e-06
-0.0250329
-0.000401513
0.143535
-6.93231e-06
-3.63322e-06
0.213031
0.0386696
-8.10716e-06
6.83049e-05
-0.00490042
0.000142893
-0.0425393
0.0471982
-0.0412177
0.0923938
1.79138e-05
-8.97012e-06
0.000994309
0.00683768
-0.00466444
-8.51239e-06
-0.00268738
-0.00482572
-0.0445812
-1.49615e-05
-9.78662e-07
0.0256902
0.0725634
0.199495
-0.00852195
0.0283831
-4.12327e-06
0.00509886
0.0845044
-6.36881e-06
0.0017612
0.000596338
-9.37312e-06
0.00222121
0.147605
0.0838462
-5.53476e-07
0.0437115
0.00155177
0.122368
-1.19946e-05
-2.34607e-05
1.53979e-07
-2.00901e-05
-4.13652e-07
-0.000230069
0.000124858
0.00049102
0.0330471
-2.75282e-05
0.0219899
6.06648e-06
-7.53986e-05
2.80161e-06
0.078501