/*--------------------------------*- C++ -*----------------------------------*\
| =========                 |                                                 |
| \\      /  F ield         | OpenFOAM: The Open Source CFD Toolbox           |
|  \\    /   O peration     | Version:  v2012                                 |
|   \\  /    A nd           | Website:  www.openfoam.com                      |
|    \\/     M anipulation  |                                                 |
\*---------------------------------------------------------------------------*/
FoamFile
{
    version     2.0;
    format      ascii;
    class       volVectorField;
    location    "200";
    object      ddtCorrDdt0(U);
}
// * * * * * * * * * * * * * * * * * * * * * * * * * * * * * * * * * * * * * //

dimensions      [0 1 -2 0 0 0 0];


internalField   nonuniform List<vector> 
13917
(
(0.000391742 -1.16335e-05 -9.86565e-18)
(0.000115565 -0.000160178 3.30355e-20)
(0.017292 -0.00567069 -1.0622e-17)
(-0.000458588 -0.000236167 -5.34741e-18)
(1.02466e-05 -6.58348e-05 5.47697e-19)
(-6.40453e-05 0.00121737 1.63992e-16)
(0.015141 -0.0024107 1.31987e-17)
(0.0193219 -0.00814209 -3.13815e-21)
(0.00321529 -0.00597307 -3.00899e-18)
(0.000243857 1.04435e-05 2.28546e-17)
(-0.00641892 -0.00176171 -3.77538e-17)
(-0.00118179 -0.000113625 1.6397e-17)
(-0.000467894 -0.000224156 2.03998e-18)
(0.00969549 -0.00118029 -8.43471e-18)
(0.000252511 1.26706e-05 3.01059e-19)
(0.000248989 -1.47496e-05 -4.77778e-18)
(0.000129047 -0.00015855 1.37597e-18)
(0.00100929 -0.00137787 -1.15049e-17)
(-0.00107831 -0.000168563 -8.92447e-18)
(3.56864e-05 -2.26757e-05 1.09519e-18)
(3.83448e-06 9.90987e-05 3.21254e-18)
(0.0154655 -0.00215648 -8.81197e-18)
(3.74769e-05 -6.27959e-05 1.38946e-18)
(0.0202784 -0.00774586 -9.10946e-19)
(2.79261e-05 0.000126566 -7.55543e-18)
(0.0134369 0.00234285 1.35973e-17)
(8.49648e-05 0.000558798 1.84251e-17)
(0.00028187 0.000652022 3.94305e-17)
(0.00130423 0.00131221 -6.11784e-18)
(0.00064106 0.000763196 1.35212e-17)
(0.000424872 -2.20946e-05 -2.50026e-18)
(0.00032644 -3.02661e-05 4.24173e-18)
(0.00014845 0.000408613 -1.03892e-17)
(-1.37182e-05 7.91626e-05 2.37655e-17)
(2.65955e-05 0.000127142 3.2335e-18)
(-0.0155171 0.00163497 -1.76601e-17)
(3.80218e-05 -4.95106e-05 -1.26875e-19)
(0.00812934 -0.00549204 -3.91475e-18)
(-0.000628756 -0.00031534 -3.18246e-18)
(0.0104813 0.000611942 -8.13564e-18)
(3.18875e-05 1.4859e-07 -7.91241e-20)
(1.09628e-08 3.74924e-05 2.26273e-18)
(-3.63973e-05 -7.32893e-05 9.37234e-20)
(0.000440425 0.00087863 -2.50709e-17)
(3.71809e-05 -8.84737e-05 8.36154e-20)
(1.92443e-05 0.0001588 1.19536e-17)
(0.000925432 -0.00141941 8.63818e-18)
(0.00051316 -0.00288317 -3.21047e-19)
(-6.4435e-05 0.00145999 1.26948e-17)
(1.62165e-05 -3.40883e-06 -1.33866e-18)
(-2.57321e-05 -0.000844218 8.46929e-18)
(1.19063e-05 0.000126042 3.44513e-18)
(-0.000253682 0.00156741 -3.36288e-17)
(-1.27412e-05 9.58491e-05 8.25247e-18)
(0.000131506 -0.000164765 7.46167e-19)
(0.000240348 -0.000515895 2.56584e-18)
(-0.00615094 -0.00205496 2.04165e-17)
(9.21849e-05 6.83513e-05 -2.04348e-18)
(0.000209362 -0.000296998 4.72525e-18)
(3.88905e-05 -7.74729e-05 -1.20969e-18)
(0.00212711 -0.00205534 -4.91798e-17)
(0.000122182 -0.000147989 -7.10839e-21)
(0.00832291 -0.00125844 1.60116e-17)
(3.29526e-05 -3.23904e-05 -3.21717e-18)
(-1.10876e-05 0.00125778 -7.93645e-17)
(0.00377169 -0.00078455 5.43952e-17)
(-6.34196e-06 -7.9272e-05 1.45715e-19)
(-5.09657e-06 0.000102952 7.76799e-18)
(-0.000241263 -0.00751913 3.1616e-19)
(0.000381697 1.01005e-05 -3.83369e-18)
(1.7616e-05 -5.57982e-05 1.4547e-19)
(0.00485279 -0.0069033 3.24344e-18)
(-0.0133028 -0.0001676 1.99117e-17)
(3.85599e-05 0.000104768 5.08189e-18)
(-2.85164e-05 0.00158138 -1.01417e-17)
(0.000220504 0.000158779 2.14823e-18)
(-0.0113601 -0.00209489 5.87095e-18)
(5.27014e-05 -0.000264762 -1.26925e-18)
(0.0105911 0.00560595 -9.10031e-18)
(9.9842e-06 0.000160785 2.15069e-19)
(2.19736e-05 0.000148059 -1.49279e-18)
(-5.43354e-06 -5.60499e-05 -3.20431e-18)
(8.68854e-05 0.00138429 -2.49853e-17)
(0.00754617 -0.00632084 1.06521e-17)
(0.00234484 -0.00236071 -5.11998e-17)
(4.00683e-05 -0.000259798 3.00416e-18)
(3.19998e-05 9.54417e-05 -1.98559e-18)
(0.00577499 0.000567314 -6.03616e-17)
(-4.9056e-05 -0.000826855 -1.10644e-17)
(-4.12319e-05 -8.1095e-05 -2.51487e-19)
(-0.0114952 -0.00296327 3.5028e-18)
(0.000152165 0.000287374 6.07996e-18)
(4.341e-05 -0.000113648 -1.06762e-20)
(0.000144166 -7.8183e-05 6.76623e-18)
(-0.000126744 -5.37389e-05 8.41404e-17)
(2.06774e-05 0.00146705 -5.52541e-17)
(-0.00297982 -0.00454759 2.44248e-17)
(0.000748409 -0.00242915 9.79713e-18)
(-0.000211367 0.00376683 -1.53119e-17)
(0.000223609 0.00101994 -4.66375e-17)
(2.71857e-05 -5.42171e-05 2.58108e-20)
(-4.9639e-05 0.000407485 -2.22239e-17)
(0.000391361 0.000871286 7.53266e-17)
(-6.68645e-06 -0.000446824 1.18772e-18)
(1.83094e-05 -9.15859e-05 -4.19505e-20)
(0.0011613 -0.00367344 2.63396e-17)
(0.00134844 0.000990981 -8.03209e-18)
(0.000648962 -0.00305487 -1.29255e-17)
(0.000131181 -0.000152035 4.51612e-19)
(0.00038604 3.94844e-06 -1.45006e-17)
(0.00367634 0.00209172 1.17768e-17)
(0.0110865 0.00113985 4.51361e-18)
(-0.00132494 0.000814033 -4.55948e-18)
(0.00129334 -0.00381518 -2.23423e-17)
(1.47629e-05 2.38896e-05 -2.14603e-17)
(-0.000158162 0.00163594 1.03056e-16)
(3.56618e-05 4.73707e-05 9.28965e-18)
(9.14341e-05 0.00154763 -6.09567e-17)
(0.024185 -0.000561999 -1.08759e-17)
(3.01204e-05 9.03865e-05 -1.25591e-17)
(1.59102e-06 7.34347e-05 1.05948e-19)
(6.88624e-05 -0.00729092 -8.4336e-18)
(0.0216984 -0.00164934 -8.15607e-18)
(0.000247434 0.000632229 -1.25399e-17)
(2.08075e-05 1.93684e-06 -5.6275e-19)
(0.000142318 -7.74418e-05 1.33007e-19)
(5.85537e-05 -6.08301e-05 -3.66598e-19)
(2.028e-05 2.31277e-06 3.63886e-19)
(-1.26338e-05 -2.06857e-05 -3.55221e-19)
(4.1154e-06 0.0013609 7.01486e-17)
(0.0207814 -0.00207986 1.01678e-18)
(7.77648e-06 4.37473e-05 1.79853e-17)
(4.42492e-05 -9.11062e-05 -3.06091e-18)
(2.15706e-06 8.10338e-05 -2.20134e-18)
(0.00466589 0.0056846 -1.98022e-17)
(0.0203299 -0.0072305 3.57372e-18)
(0.00038674 -4.75139e-06 1.01609e-17)
(0.000168646 0.00106414 2.66132e-17)
(-2.07677e-06 -8.4579e-05 -2.5004e-18)
(1.06085e-05 8.73628e-05 3.19388e-18)
(-0.0124585 5.69369e-05 -1.88517e-18)
(1.53524e-06 -2.34624e-05 1.79969e-18)
(4.04924e-05 4.53156e-05 9.39374e-18)
(0.000388381 0.0009857 -6.01626e-18)
(4.11229e-06 0.000120779 -4.35507e-18)
(0.00668511 -0.00936102 1.04332e-17)
(0.00150833 0.0011424 -5.19326e-18)
(1.77071e-05 0.000152071 -1.77762e-19)
(-2.08507e-06 -1.70729e-05 1.46714e-18)
(0.000332458 -5.30028e-06 1.21992e-17)
(-0.000892516 -0.00218176 2.20495e-17)
(-0.000115465 0.00162997 -5.84401e-17)
(-0.00291557 -0.00156917 -1.40293e-17)
(0.000453119 6.97917e-05 -5.63422e-19)
(0.000315936 -0.000190614 -1.98486e-18)
(-6.11711e-05 -0.000775914 -2.74378e-17)
(0.000381939 2.11876e-05 6.42396e-19)
(-0.00530258 -0.0125882 -8.51128e-18)
(-0.0117182 -0.00164283 -2.99457e-18)
(0.00219099 0.00449183 -5.05324e-18)
(0.000103137 -2.20815e-06 1.98064e-18)
(-8.20069e-05 0.000519181 3.19728e-17)
(1.04952e-05 0.000140121 -3.64435e-18)
(-0.00300714 -0.00422534 -3.01952e-17)
(-0.00144874 0.000657529 2.97057e-18)
(-0.000584473 0.00353652 1.6454e-17)
(-5.74564e-06 -0.000423379 2.22614e-18)
(-0.000198786 -0.00254222 -4.33906e-18)
(2.63832e-05 -5.21959e-05 4.21188e-18)
(-2.3743e-05 0.000409803 1.99644e-17)
(0.000437473 3.74034e-05 -2.56254e-18)
(0.00610949 -0.000104506 -4.88566e-17)
(-0.000821715 0.00133729 -2.69503e-18)
(0.000159557 -0.000135374 1.32536e-19)
(0.0126631 -0.0140211 -1.19248e-18)
(0.000527589 7.03315e-05 7.62261e-19)
(0.0203385 -0.00217921 -3.25335e-18)
(6.22081e-05 0.0015026 6.38898e-17)
(0.00775662 -0.0105621 -7.35626e-19)
(8.06546e-05 -0.000142032 2.56553e-19)
(0.000157357 0.000377122 3.91723e-18)
(0.00043448 -1.22349e-05 7.59767e-18)
(5.43209e-07 -2.44475e-05 2.49456e-19)
(3.11453e-05 8.68946e-05 1.25131e-18)
(0.000288928 0.000150648 2.37024e-18)
(0.0116319 0.00276799 -7.59549e-18)
(-0.00155652 0.00096468 -3.22379e-18)
(0.000519461 -0.000797416 4.76316e-17)
(0.000554742 -0.000705857 1.33317e-18)
(-0.00286733 0.00235021 1.02014e-17)
(-0.0121009 -0.00602252 -3.67516e-18)
(0.00225537 -0.00249441 5.93002e-17)
(-0.00134967 -0.000118702 2.81895e-18)
(3.41964e-05 -5.71082e-05 -7.75347e-18)
(9.33331e-05 0.00108337 -2.24737e-17)
(9.27142e-05 0.000516702 8.63596e-18)
(1.31899e-05 -1.32074e-06 4.70329e-20)
(4.79105e-05 -0.000113983 -4.62668e-19)
(0.00127315 0.00067809 -4.03347e-18)
(0.000484951 -0.00374666 -5.17259e-17)
(-0.000364791 -0.000793081 1.23277e-17)
(1.67983e-05 -4.52265e-06 5.56256e-19)
(-0.000445032 -0.00225447 -7.72882e-18)
(-0.000930801 -0.00207949 -1.88357e-17)
(-0.0138232 -0.000332509 -1.58744e-17)
(0.0125956 -0.00275467 3.3323e-17)
(3.128e-05 0.000112107 -2.68615e-18)
(9.17965e-05 5.08717e-05 2.44275e-18)
(0.000635162 -0.00247346 -2.44345e-17)
(0.0136622 -0.000739665 8.17243e-18)
(4.79647e-05 6.7807e-05 -9.05739e-18)
(0.0155287 -0.00343461 5.08478e-18)
(-0.0142775 -0.000394901 -3.84852e-18)
(-0.00304833 0.00209361 -9.81648e-18)
(2.34168e-05 -9.91759e-05 6.37211e-19)
(0.000563303 0.00151593 -9.63194e-17)
(0.00033504 -0.00219865 -2.45977e-17)
(-0.000966797 0.000646373 -1.06421e-16)
(6.02742e-05 0.000128218 8.31666e-19)
(0.00268331 -0.00161596 -6.79286e-17)
(8.10849e-05 -0.000127787 -8.40859e-19)
(0.00120824 0.000543282 -7.37001e-18)
(2.88497e-05 1.12341e-07 -6.27272e-21)
(0.00195788 -0.00585709 -4.89447e-18)
(-7.66843e-05 -0.00239599 1.46759e-17)
(0.000261044 -8.57527e-06 -9.3299e-18)
(0.00204244 -0.00140143 5.87996e-17)
(0.000326774 -0.00021858 -7.52801e-18)
(2.74284e-05 -0.00010076 -8.24877e-19)
(-0.0159521 0.00156577 5.37337e-18)
(-0.000579273 0.00116351 7.01263e-18)
(0.000528962 -0.000744874 -2.40977e-18)
(0.0192574 -0.00584972 -1.29207e-18)
(-0.014354 -0.000421055 -2.49903e-18)
(9.17896e-06 -2.7195e-05 2.67416e-19)
(0.000335318 -3.27649e-05 1.02975e-18)
(-0.0110313 -0.00324605 1.8512e-17)
(0.00102021 -0.00167988 -3.00817e-17)
(1.35443e-05 0.000153077 -1.78933e-19)
(3.71506e-05 5.90215e-05 7.53852e-20)
(0.00528602 0.00138909 -1.27678e-17)
(-0.00282281 -0.00553015 -3.68865e-18)
(2.15392e-06 6.98329e-06 -4.25619e-20)
(-0.00879841 0.00382421 -1.11468e-17)
(0.00261981 -0.00152552 4.20699e-18)
(-9.2465e-05 0.000542452 -4.77967e-17)
(0.000395343 -4.23748e-05 1.69601e-17)
(1.62687e-05 0.000144157 2.45352e-18)
(0.000547276 0.000170672 5.13828e-18)
(-0.0142765 -0.000844941 -2.81668e-17)
(-0.000164384 -0.000291517 4.70295e-18)
(-0.000171998 0.000368782 3.14508e-17)
(0.000300178 0.001077 -1.83466e-17)
(5.37221e-05 -5.75243e-05 -2.71808e-19)
(8.89513e-05 9.71835e-05 -5.05371e-18)
(-0.00205621 -0.00130991 -2.11061e-17)
(0.0083732 0.00238275 -1.14912e-17)
(-0.00270988 -0.00149998 4.57586e-18)
(0.000310932 0.000154127 9.09025e-18)
(0.000266981 4.07893e-05 -2.74432e-18)
(1.90773e-06 1.23139e-05 -9.03798e-19)
(0.0222748 -0.00125641 2.03655e-18)
(-0.010015 0.00604563 1.00706e-18)
(-0.00893547 0.00880274 -1.51449e-17)
(3.05641e-05 -0.000107364 4.21715e-19)
(-0.0102119 0.00126939 -2.08932e-17)
(0.00681356 -0.00176842 -1.17026e-17)
(0.00297453 -0.0126015 -5.48368e-18)
(0.011205 0.00553721 8.45389e-18)
(0.000418166 0.000351478 -2.00347e-17)
(2.02687e-05 0.000152062 3.3692e-18)
(2.65113e-05 4.44203e-06 -1.71894e-19)
(0.000851182 -0.00159134 2.09086e-17)
(-0.00332019 -0.0045941 1.19304e-17)
(0.00206397 -0.00461323 -4.52014e-17)
(0.000190214 -0.000301629 3.99542e-18)
(0.0113726 -0.00224428 -1.7712e-17)
(-0.000906247 -0.00072165 4.63648e-18)
(-1.47218e-05 -1.66364e-05 1.05758e-18)
(-0.00925203 0.00446016 -3.33978e-17)
(3.06732e-05 -3.50769e-05 1.65208e-18)
(0.0135238 -0.0139186 -5.84291e-18)
(-0.000365398 -0.000762012 -3.88791e-18)
(3.82755e-06 7.08891e-06 1.59803e-19)
(0.000301895 3.82846e-05 9.90412e-19)
(0.000466367 6.32772e-05 1.02675e-18)
(-9.85943e-05 0.00052402 -1.28236e-18)
(-0.0105142 0.00355743 2.36909e-17)
(0.000388827 0.00010856 -2.35021e-18)
(-8.66494e-05 -0.000326505 7.68004e-18)
(0.00444581 0.00557268 -2.69715e-17)
(0.0197873 -0.0063532 4.4375e-18)
(-0.00981208 0.00612227 -5.79471e-18)
(5.46313e-05 0.000132787 -5.17656e-18)
(0.00784003 -0.0151418 1.83535e-18)
(-3.89339e-06 0.000145266 -2.7697e-18)
(-9.88585e-05 -0.000332547 -4.4965e-19)
(3.24007e-05 2.72064e-05 -9.58278e-18)
(0.00164457 0.00124457 5.71877e-18)
(2.79363e-05 -3.14021e-06 2.93827e-20)
(0.00121887 0.000664053 1.46277e-17)
(0.000390569 -3.75069e-05 -1.50226e-17)
(2.05252e-05 -4.79022e-05 -3.154e-20)
(-0.000559577 -0.00231817 1.43769e-17)
(0.000186775 -5.75357e-05 2.43537e-18)
(5.05096e-05 0.00149149 1.11217e-16)
(0.000509453 8.38707e-05 -8.67314e-19)
(0.000216537 0.000264537 9.11655e-19)
(-2.59317e-06 -6.41274e-05 2.1327e-18)
(8.54413e-05 0.000111639 9.95777e-18)
(0.00452114 0.00158124 -2.89692e-17)
(0.0198908 -0.00198912 -1.10972e-18)
(3.94956e-05 6.7494e-05 1.00236e-18)
(2.8901e-05 2.80367e-06 -6.72508e-20)
(-0.00865747 0.00458849 6.0608e-17)
(6.8833e-05 -0.000164517 6.85947e-19)
(-0.0131119 -0.00018516 -2.29292e-17)
(-8.24182e-07 -5.46847e-05 -8.3235e-19)
(0.00151238 -0.00642595 8.83725e-18)
(-0.000313128 -0.000197191 -5.61795e-18)
(0.000668384 -0.00137557 -1.14375e-17)
(-0.000113729 -0.00126648 -5.09878e-19)
(3.57086e-05 0.00160788 -3.6891e-17)
(0.000103353 -1.00803e-05 -2.75783e-18)
(0.011611 0.0055714 2.56131e-17)
(0.000544586 0.00129776 -6.61211e-18)
(0.000287127 2.84947e-05 -2.98138e-18)
(-0.0024611 -0.00562294 -4.02185e-18)
(0.00171439 0.000562972 1.22709e-17)
(0.00012762 -0.000109245 1.18072e-18)
(0.0171756 -0.00394474 -2.0391e-18)
(9.81203e-06 0.00103862 7.30962e-19)
(0.00597644 -0.00233845 -4.02302e-18)
(5.1523e-05 4.01908e-05 -1.91068e-17)
(0.0211972 0.000164039 1.71881e-17)
(0.000342723 -5.59761e-05 -2.48265e-18)
(0.00565025 -0.00104696 -6.73325e-17)
(0.000460966 0.00126112 2.5669e-17)
(0.00101839 0.000379476 -5.11629e-18)
(0.00099389 0.000343028 -5.54923e-18)
(0.0163963 -0.00581108 1.81615e-17)
(1.62155e-05 0.000185118 1.91776e-18)
(0.000440455 1.61357e-05 1.48679e-18)
(0.00412005 0.00242779 -3.60747e-17)
(7.57559e-05 7.17326e-05 6.17236e-18)
(0.000196215 -8.75597e-05 4.26045e-19)
(0.00987305 -0.00211392 1.31834e-18)
(0.00132122 0.000778722 -1.82097e-18)
(0.000150153 -0.000136311 6.27164e-19)
(-0.00897078 -0.00572668 7.90538e-18)
(0.00117065 0.00133183 1.39371e-17)
(3.92153e-05 -1.83493e-05 -8.58261e-20)
(0.0242988 -0.000419193 5.82259e-18)
(-0.0148337 -0.00181381 3.91331e-17)
(3.07493e-05 -4.08868e-05 -2.15868e-18)
(5.54616e-05 2.37954e-06 1.15155e-20)
(8.60298e-08 0.000188169 -7.7743e-19)
(-4.09354e-06 -2.00885e-05 -2.30166e-18)
(0.00544486 0.00452066 3.41458e-19)
(0.00954711 -0.0120337 4.50456e-18)
(-0.000349495 0.00146549 5.78811e-17)
(0.00480304 0.00195703 9.50459e-19)
(3.54382e-05 7.42215e-05 -5.65401e-18)
(-0.000269995 0.000415937 -1.773e-17)
(-0.000358054 -0.000608079 3.71187e-17)
(-0.000242665 -0.00171561 -8.12449e-18)
(0.0157053 -0.00307961 -1.02065e-17)
(-0.00345482 -0.00538371 1.52577e-17)
(0.000180257 -0.00264922 -2.89835e-18)
(9.06423e-06 -4.82592e-05 1.08596e-19)
(-0.00682706 0.0082552 1.42757e-17)
(5.36838e-05 -4.03204e-05 2.38478e-19)
(0.00237122 -0.00104696 6.52379e-17)
(4.24996e-05 -6.80383e-05 1.23335e-18)
(5.83713e-05 0.00170841 -2.69448e-18)
(0.00278403 -0.00130993 6.75017e-18)
(-0.00047257 -0.000507773 9.81751e-18)
(2.06272e-05 0.000177918 8.87408e-19)
(0.00054597 -0.0022923 3.43385e-17)
(9.47295e-05 0.000421815 3.0906e-17)
(0.00165302 -0.00196287 1.2886e-17)
(0.000752877 0.00309616 -1.00842e-17)
(0.00624725 -0.000892406 7.20777e-18)
(-0.000936366 0.000640901 5.99266e-17)
(0.000573324 0.00014888 -2.13583e-18)
(0.00027508 2.09998e-05 -2.36514e-17)
(3.54021e-05 5.57348e-05 2.12019e-19)
(0.00108084 -0.0018339 9.98985e-17)
(0.0153356 -0.000532751 -8.26182e-18)
(0.000100714 -3.5452e-05 -7.75382e-18)
(0.0068039 0.00496024 -5.71667e-17)
(2.9534e-05 -6.62469e-06 8.5602e-19)
(0.00711421 -0.00125583 -2.14139e-17)
(-0.000309362 -0.000224434 2.77423e-18)
(1.19717e-05 0.000182437 -2.74929e-19)
(0.000193485 -5.95425e-05 -3.22516e-18)
(0.00409124 0.00743876 2.99001e-18)
(0.000189414 -6.55283e-05 5.87647e-19)
(0.00869301 0.00303212 1.22542e-17)
(-0.000283331 -0.000854891 -1.43502e-17)
(-0.0054303 -1.32918e-05 -2.48456e-17)
(0.000378203 0.00140447 3.04448e-17)
(0.000117905 -0.00012583 -1.9504e-19)
(0.000479308 0.00146358 9.25255e-17)
(0.000407872 0.00141148 3.10509e-17)
(2.95986e-05 -3.65353e-05 3.20641e-19)
(0.00127838 0.000878141 7.75859e-18)
(7.88128e-05 9.13171e-05 -3.58364e-18)
(2.49068e-05 7.73128e-05 -1.16313e-20)
(0.000531167 0.000704319 -1.11653e-17)
(3.63008e-06 1.84791e-05 -9.64711e-19)
(4.27247e-05 0.0001356 1.46042e-18)
(5.19042e-05 -4.61629e-05 -5.57001e-19)
(0.00413963 0.00347218 1.83461e-17)
(7.84042e-06 0.000142123 9.20313e-18)
(0.0213546 0.000460326 -1.65899e-17)
(0.00180623 0.00865585 -7.09045e-18)
(-0.000638526 -0.000622426 -3.3255e-17)
(-0.00121085 -0.000265705 -2.45192e-17)
(0.0158389 0.00343671 -7.63548e-18)
(-0.00506323 0.000968462 -6.80299e-18)
(-0.000320162 -0.00168386 4.93108e-18)
(3.73115e-05 5.02593e-05 3.38689e-18)
(0.00435822 0.000179191 -3.0554e-17)
(-0.000608549 -0.00031721 1.5164e-18)
(0.000348221 -2.73109e-05 3.2587e-18)
(3.30618e-05 -7.34245e-05 1.35613e-18)
(0.00868227 -0.0107989 7.72313e-18)
(0.0143615 -0.000952255 -1.30611e-18)
(-0.00159311 0.00929997 5.95465e-18)
(0.000227552 -9.92545e-06 5.89228e-18)
(0.00306765 -0.00200621 -1.04417e-17)
(3.07921e-05 2.67449e-05 4.21388e-17)
(-0.000654019 -0.000338691 2.72132e-18)
(0.00152772 -0.00205538 -2.83012e-17)
(0.000177176 -0.000101591 -2.96341e-19)
(-0.00588701 0.0091587 -2.82323e-17)
(0.000126486 -0.000153913 -5.66991e-19)
(2.67983e-05 -4.06687e-06 2.88867e-19)
(-0.0121228 -0.000238564 1.07355e-17)
(0.0209279 -0.00175766 -1.12574e-18)
(0.0204693 -0.00171974 5.42946e-18)
(-6.73581e-05 -0.000398421 2.01438e-18)
(-0.000745288 -0.000612565 2.18862e-18)
(0.0163464 -0.00456928 6.48771e-18)
(-0.0021927 0.00379526 -1.88776e-17)
(-0.00585642 -0.00263343 2.74828e-18)
(-6.76575e-06 -1.07518e-05 -1.18276e-18)
(0.000822187 -0.00196388 8.67814e-18)
(0.00017922 -8.12279e-05 1.70226e-19)
(9.70921e-05 5.28556e-05 -4.69902e-18)
(0.0124848 -0.00152284 5.25162e-17)
(0.000936089 -0.00154475 -2.36241e-17)
(-6.63704e-05 -6.73714e-06 -1.88982e-18)
(0.00124837 -0.000391724 -4.0907e-17)
(-0.0001521 -0.00158094 -1.83787e-17)
(-0.00348322 -0.00261057 6.8329e-18)
(3.11085e-05 -2.62669e-05 -8.80988e-19)
(-0.000420956 -0.00519696 5.05093e-17)
(0.000212817 -0.000109146 6.37294e-17)
(0.000874747 -0.00174542 -1.2396e-17)
(0.0227815 0.000577837 2.72358e-18)
(5.8636e-06 0.000131033 -2.87215e-18)
(9.43462e-05 -2.24528e-05 -1.00257e-18)
(1.08773e-05 -3.69402e-06 2.30432e-19)
(0.000385495 3.00624e-05 1.99607e-18)
(5.97186e-06 -4.5025e-05 -3.82234e-19)
(0.00859291 0.00462577 1.65341e-17)
(-0.000285522 0.00143279 -2.45214e-17)
(0.000376419 8.73553e-05 6.69322e-19)
(0.000672775 -0.00154513 2.0136e-17)
(0.00021374 -0.000541226 2.11317e-17)
(-0.0033866 -0.00405198 7.35664e-18)
(-0.00170973 0.00439496 -3.27231e-17)
(0.00150037 0.00106954 1.69505e-18)
(-0.00509094 0.000254797 2.25916e-17)
(-0.0141391 -0.000226817 3.44451e-19)
(-0.000685783 -0.00534031 -6.82415e-17)
(0.000977505 -0.000116557 6.83096e-18)
(0.00481543 -0.00164324 -1.70619e-17)
(-0.00101013 -0.00107862 -1.22273e-17)
(-0.00517829 0.0026016 1.07954e-17)
(-0.000102886 0.00126877 -2.94795e-17)
(-0.00105981 -0.000741916 4.03711e-19)
(0.000227731 -0.00362188 -5.60765e-18)
(-7.98034e-06 -6.6319e-07 -2.26803e-19)
(0.00957909 0.00344777 2.14718e-17)
(3.35319e-05 -0.000846946 7.97903e-20)
(-9.9913e-05 -0.000185194 -1.89358e-18)
(0.000381492 3.54559e-05 -4.78394e-18)
(3.94772e-05 -0.000319775 -2.47654e-19)
(-0.00442166 -0.00287696 1.70213e-18)
(0.00206565 -0.00462277 1.95646e-18)
(7.09348e-05 -0.000158324 -1.84047e-19)
(-1.53721e-05 -1.25192e-05 1.59639e-19)
(0.0115219 0.00143615 4.9544e-19)
(-0.00519098 0.000773464 -1.01559e-17)
(3.3338e-06 1.40391e-05 8.56528e-19)
(0.0229383 0.00014414 2.21737e-18)
(-0.000210877 -0.000494724 -1.458e-18)
(-0.000963921 0.000198633 1.11188e-17)
(7.66013e-05 -0.000155873 4.37666e-19)
(-0.0128955 0.00041844 -9.1564e-18)
(0.00348511 -0.0144533 -1.10265e-17)
(0.000333078 -9.71757e-06 -1.0603e-17)
(0.000106962 -7.29792e-05 3.20185e-19)
(0.0153996 0.00394784 1.31719e-18)
(-0.00119258 0.000976023 2.14915e-17)
(0.000193422 -0.000792509 -4.20755e-17)
(2.33494e-06 1.65657e-05 1.79962e-18)
(-0.0143097 -0.000568224 -8.57761e-18)
(6.69715e-05 0.00146712 -3.08572e-17)
(-0.00779709 0.00324662 -5.48811e-17)
(-9.27164e-05 -0.00019121 3.71011e-18)
(0.00232185 -0.00217939 3.70697e-17)
(-0.00601006 0.00621674 3.40543e-17)
(-0.000454581 -0.00164218 -1.1103e-17)
(5.53804e-05 -1.48744e-05 -6.68267e-19)
(0.000140785 -0.000160955 2.66436e-19)
(0.000591641 -0.000196534 -6.06824e-18)
(0.00827274 -0.00135414 3.98812e-17)
(-6.9485e-05 -7.25478e-06 1.77001e-18)
(5.39166e-05 1.73857e-05 -1.18998e-18)
(2.18598e-05 1.13235e-05 -8.29672e-19)
(2.44559e-05 1.30824e-05 1.1019e-18)
(-0.0109503 0.000853395 -5.93623e-18)
(0.011821 -0.000634683 2.93353e-17)
(-0.000382297 -0.00162235 1.43574e-17)
(-0.00133715 0.00141659 -3.49294e-17)
(2.93598e-05 4.38336e-06 4.09336e-19)
(2.74255e-05 -4.69817e-05 6.05442e-20)
(0.00286994 -0.00219583 2.46621e-17)
(-0.00519266 0.00319602 4.82288e-17)
(0.000467415 -0.000488012 -6.85283e-18)
(2.74701e-05 -5.7559e-05 -2.6833e-18)
(3.52813e-05 8.58175e-05 -2.66678e-18)
(-6.8619e-07 -5.48178e-05 -2.00535e-18)
(-0.00810982 0.00348352 -3.1111e-17)
(0.00251031 -0.00266235 -5.80969e-17)
(3.319e-05 7.98741e-05 3.70122e-18)
(7.40303e-06 -5.2805e-05 2.44854e-18)
(-0.005806 0.00849895 2.55544e-17)
(-0.000963974 -0.00111864 1.4044e-18)
(-0.000155761 -0.00125728 -6.53098e-18)
(0.000102953 3.34378e-06 -3.57177e-18)
(0.000193786 -6.26464e-05 -4.50971e-19)
(0.000310868 -4.11562e-07 -3.55312e-18)
(3.34609e-05 -0.00355077 -2.24902e-17)
(0.00159619 0.000508572 -7.12609e-18)
(-0.00159496 0.00120654 4.67829e-17)
(0.00468636 1.35213e-05 2.27094e-17)
(0.00201567 -0.00350069 -1.37718e-17)
(0.0124282 -0.00340559 -1.85956e-17)
(0.000278968 0.000281539 -2.12127e-17)
(5.12593e-05 0.000129812 -1.49643e-18)
(-0.0142085 -0.000769969 1.14362e-17)
(-3.41942e-06 -6.65025e-05 -5.55374e-19)
(0.000204005 -7.83897e-05 9.67591e-20)
(-0.000333428 -0.000623013 9.38994e-19)
(0.010525 0.00288828 -7.80533e-17)
(0.000819717 0.000108446 -1.24766e-19)
(2.24938e-05 -1.05707e-05 4.08742e-21)
(0.000688421 -0.00171119 2.35147e-17)
(0.000747431 0.00101636 -2.56408e-17)
(-0.000549574 -0.000550622 2.2908e-17)
(0.00215048 -0.0033169 -1.52603e-17)
(0.000335502 0.000334926 4.53772e-18)
(-0.000119061 -0.00166369 -4.05496e-18)
(2.15171e-05 0.00016705 -1.54301e-18)
(-0.00865802 0.00604945 2.52842e-17)
(0.00056396 -0.0015048 4.2948e-17)
(0.0144119 -0.00720629 1.92884e-18)
(0.000123881 -0.000166013 -6.02839e-19)
(0.000334819 -0.000573064 4.32362e-18)
(-0.00138969 0.00160976 1.35553e-17)
(-0.00419995 -0.00565747 -8.42324e-18)
(-0.00769465 -0.00031086 -4.00335e-17)
(0.000874677 -0.00251454 -3.88496e-19)
(-0.000141915 -0.000458854 -7.56983e-19)
(0.000232236 -1.6657e-05 4.73609e-18)
(0.000222078 -0.000105827 3.95545e-18)
(9.14517e-05 4.77221e-06 2.64769e-18)
(0.000598012 0.000420346 -4.52779e-18)
(0.000371197 0.000939963 -1.77055e-17)
(-1.13386e-05 0.000224625 5.7172e-18)
(0.000217247 -0.0021793 5.50954e-18)
(0.000252068 0.00109489 2.21687e-17)
(0.0142643 -0.00761959 4.50993e-19)
(0.000351847 -0.0008539 1.86089e-18)
(0.000228453 -4.07988e-05 4.64695e-19)
(-0.00340396 -0.00374218 -1.29265e-17)
(0.00257846 -0.0138308 1.69931e-17)
(0.000318808 5.43425e-05 3.38079e-19)
(6.18865e-05 6.67583e-05 9.51419e-18)
(0.000222206 0.0018986 -3.89069e-17)
(-0.00400014 -0.000879373 -1.74658e-17)
(0.011169 -0.0112872 -1.18516e-17)
(-0.000886708 0.00190862 2.45013e-17)
(-1.00459e-05 -2.05578e-05 3.90802e-19)
(0.0239884 -0.000713751 4.12334e-18)
(0.000298956 -6.20356e-05 5.39607e-18)
(2.28618e-05 -6.59213e-06 2.90884e-20)
(0.00041822 -0.000198351 1.11912e-18)
(-0.00145745 -0.003032 2.25646e-18)
(0.000158977 0.000381463 2.84472e-18)
(0.000743742 0.00070042 -1.10075e-17)
(0.0116435 0.00512992 -4.34619e-18)
(0.00456612 -0.00190214 1.62791e-17)
(-0.000851387 -0.00103732 1.01436e-17)
(-0.00852538 0.00580218 5.07993e-17)
(8.9282e-05 -0.000278911 -5.49513e-18)
(-0.00621397 -0.00226523 5.74175e-18)
(1.15633e-05 0.000146287 -2.6045e-18)
(2.93003e-05 6.7388e-05 -3.0284e-18)
(0.010344 -0.0145834 9.6055e-18)
(-0.00350612 -0.00108041 3.55125e-17)
(0.000215978 0.00144936 9.32913e-18)
(7.78012e-05 -0.000301582 -4.40012e-18)
(0.000158954 -0.000143929 1.53261e-18)
(9.16583e-06 -6.25151e-05 -7.29498e-18)
(-0.00087998 -0.000714491 8.46941e-18)
(-5.2704e-06 0.00157569 2.954e-17)
(-0.000446631 0.00312967 -1.20337e-17)
(0.000228084 -0.000117516 -6.66038e-19)
(-0.00472713 8.83268e-05 -5.61209e-18)
(0.000426954 -0.00229404 -2.33744e-17)
(7.50001e-05 -0.000160596 -1.59748e-19)
(0.00226487 -0.000749653 -5.19657e-18)
(-1.90806e-05 0.00290625 -6.75248e-19)
(0.00129848 0.0106024 1.03715e-17)
(6.44186e-05 0.000109439 1.67546e-19)
(0.00438108 -0.00254839 7.34964e-19)
(5.43504e-05 -0.000286328 1.13649e-18)
(-3.23097e-05 -0.000740455 5.33384e-17)
(0.000231786 4.61964e-05 1.40588e-17)
(0.000788003 7.21723e-05 -1.94642e-19)
(0.000356913 -0.000562056 -3.25864e-18)
(3.70003e-05 2.40553e-06 8.70246e-19)
(-4.8749e-05 -0.000153856 2.99602e-18)
(6.09309e-05 -6.24271e-05 2.10734e-18)
(0.00103359 0.000227527 -7.07842e-19)
(4.67479e-05 0.000173811 -3.89224e-18)
(0.00186938 0.00370986 -3.21301e-17)
(0.00109366 0.00230418 8.84623e-18)
(-8.45867e-05 -0.0024564 -2.39654e-18)
(3.91519e-05 -7.52459e-06 4.28669e-20)
(0.00430735 -0.00106829 7.89225e-19)
(0.000278097 0.00152556 5.34258e-17)
(-0.0159096 -0.000872695 -9.73868e-18)
(-0.000152886 -0.000289925 -4.79536e-18)
(6.99691e-05 0.000127553 1.08795e-19)
(5.31976e-05 3.43569e-05 2.91922e-19)
(-0.000684408 -0.000691382 7.71658e-18)
(0.000213375 -0.000328128 -4.68722e-18)
(-0.00554491 0.00608625 -5.91627e-17)
(1.29113e-05 0.000173961 2.88799e-18)
(0.00387303 -0.0017391 2.17658e-17)
(-0.000616334 -0.000743957 5.12972e-18)
(-0.00635244 -0.00117308 1.95992e-18)
(7.94498e-05 0.000175447 -2.34935e-17)
(-0.0129154 0.000358574 2.65377e-17)
(0.000769414 -1.42972e-05 -5.59169e-18)
(0.00012982 -0.000163963 -3.84668e-20)
(-0.00607117 -0.00389149 1.15013e-17)
(-0.0114569 -2.86475e-05 3.96465e-17)
(0.000104956 -0.000123366 1.16646e-19)
(-0.000345833 -0.000595624 -7.25701e-18)
(0.00647884 -0.0124558 4.06828e-18)
(-0.000681224 0.00171141 -4.68874e-17)
(0.00174736 -0.00459941 4.08791e-17)
(8.26137e-06 1.83087e-05 -1.19865e-18)
(0.000108113 -7.21442e-05 1.13872e-18)
(0.000615583 -0.00122275 -7.45096e-17)
(-0.00048127 -0.000502181 -8.85777e-18)
(0.00163782 -0.00177115 2.20941e-17)
(-0.00188913 -0.00131923 -3.49481e-18)
(-5.42796e-05 -0.000165265 -8.29794e-19)
(-0.00109968 -0.00194104 -1.27701e-18)
(0.0177839 -0.0061527 -1.32838e-17)
(-0.000172233 -0.000263742 -2.63433e-18)
(-0.000384439 -0.000265823 8.37733e-19)
(1.7509e-05 7.63916e-06 1.41854e-18)
(0.0205082 -0.00192022 5.89711e-18)
(3.16849e-06 0.000104647 2.08822e-19)
(0.000215162 -2.71461e-05 -6.93848e-18)
(0.0063273 -9.03634e-05 1.94384e-17)
(0.000170527 -8.81724e-05 -1.41529e-18)
(-0.0026807 -0.00240243 -8.94007e-18)
(0.000315592 -0.000170126 -3.74063e-18)
(0.000171744 0.000422888 -1.98276e-17)
(2.03718e-05 9.73683e-06 -3.34407e-19)
(0.000549726 5.33361e-05 3.01869e-18)
(3.16056e-05 1.46741e-06 3.49208e-18)
(0.000852029 -3.61512e-05 1.11084e-17)
(3.48844e-05 2.0193e-06 5.44564e-19)
(0.000617225 -0.00024022 2.59015e-18)
(-0.000206152 -0.000500035 -2.84356e-18)
(0.0013501 0.000149447 -5.38949e-17)
(0.000785752 0.00202679 3.26845e-17)
(-0.00517141 0.00359891 6.54748e-18)
(1.65445e-05 -4.92422e-06 2.70229e-20)
(1.75201e-05 0.000191594 -2.81944e-18)
(0.000327916 0.000238863 2.91956e-17)
(0.00042919 1.09169e-05 1.12771e-17)
(0.0124331 -0.00271999 2.40371e-17)
(-0.00257749 -0.000353207 1.83534e-17)
(0.00103896 -0.00125323 4.40287e-18)
(2.61496e-05 7.88617e-05 1.41393e-18)
(0.00467105 0.00306362 -1.74775e-17)
(0.000197361 0.00123891 -1.78676e-17)
(0.000319395 0.0100737 -1.38245e-18)
(0.00163931 0.00332363 2.49356e-17)
(0.000662158 -0.00169346 2.09631e-17)
(0.00773307 0.00716584 3.4169e-18)
(0.000393538 -3.44256e-06 -9.91213e-18)
(-0.000933151 -0.000717578 -8.99396e-19)
(0.00335468 0.000486898 1.41696e-17)
(0.00116868 0.000706811 2.91326e-18)
(0.000995076 -0.00118341 5.78248e-18)
(0.000317371 0.00152977 -8.20506e-18)
(0.00100453 -0.000986708 9.02055e-18)
(-0.000384006 -0.000426856 -1.85328e-19)
(-0.00153158 -0.00321334 -8.58371e-18)
(0.000291308 2.81701e-05 -4.06726e-19)
(-0.000101528 -0.000229332 4.23623e-18)
(-0.000670738 -0.000700959 -7.73165e-18)
(0.000399201 -1.44224e-07 4.04453e-17)
(0.000320692 -2.22361e-06 -1.03788e-17)
(3.05943e-05 -8.1554e-06 5.66405e-18)
(2.70513e-05 2.63482e-06 -1.93037e-19)
(0.000178236 -0.00243299 -1.52483e-17)
(-0.00013475 -0.00056325 4.95009e-18)
(0.00178971 -0.00169295 -1.92429e-17)
(2.93906e-05 6.04064e-05 1.07697e-18)
(2.26617e-05 -5.30437e-05 -2.72734e-18)
(1.02331e-06 8.69654e-05 1.32209e-18)
(0.000191113 -8.15007e-05 2.96747e-19)
(-8.53846e-05 -8.03723e-05 1.08808e-18)
(0.000287928 -1.99348e-05 -6.98271e-18)
(1.77374e-05 3.75428e-07 1.22715e-18)
(-0.0126858 0.000425214 -6.44823e-18)
(-0.000855848 -0.000122292 -9.89973e-18)
(-0.000415728 0.00141673 -4.95986e-17)
(1.35245e-05 -5.33129e-05 -1.0219e-18)
(8.0774e-06 0.000100603 -5.56901e-19)
(0.000393884 0.000544638 -1.95162e-17)
(0.00104615 -0.000111237 -1.59292e-17)
(5.79164e-06 5.56205e-05 -7.23549e-19)
(-0.00968054 0.00439788 8.43526e-17)
(0.00023804 -0.00019329 2.90684e-18)
(0.00333924 -0.000278172 -4.44573e-17)
(-0.000648933 -0.000727583 -3.43268e-18)
(0.00360018 -0.00193555 -4.5027e-18)
(-5.35041e-05 -0.00036995 5.0284e-18)
(-3.76461e-06 8.37467e-05 4.91997e-18)
(2.53101e-05 1.27166e-05 5.47202e-19)
(0.000188801 -6.42413e-05 -2.23739e-18)
(0.00648105 -0.000777211 1.13904e-17)
(6.0821e-06 8.61259e-05 1.3789e-18)
(0.00636118 -0.00442403 -6.56412e-18)
(0.000284995 -2.23208e-05 -7.59018e-19)
(-0.000262132 -0.000615112 2.58023e-17)