/*--------------------------------*- C++ -*----------------------------------*\
| =========                 |                                                 |
| \\      /  F ield         | OpenFOAM: The Open Source CFD Toolbox           |
|  \\    /   O peration     | Version:  v2012                                 |
|   \\  /    A nd           | Website:  www.openfoam.com                      |
|    \\/     M anipulation  |                                                 |
\*---------------------------------------------------------------------------*/
FoamFile
{
    version     2.0;
    format      ascii;
    class       volScalarField;
    location    "200";
    object      nut;
}
// * * * * * * * * * * * * * * * * * * * * * * * * * * * * * * * * * * * * * //

dimensions      [0 2 -1 0 0 0 0];


internalField   nonuniform List<scalar> 
13917
(
0.000435863
0.00226038
0.0116943
0.00332563
0.00672406
3.5509e-05
0.0121096
0.00851769
0.0095298
0.000280838
0.00138844
0.00176991
0.00350213
0.00121477
0.000605872
0.000830841
0.002318
0.000641319
0.00206715
0.00672247
0.00672571
0.0129449
0.00672312
0.0106301
0.00673072
0.0126688
0.000163062
0.000110693
2.98843e-05
0.000323774
0.000467
0.000785262
0.000223331
0.000579092
0.00595671
0.000189245
0.00672313
0.0115127
0.0028973
0.0029239
0.00673231
0.00672614
0.00672537
7.29954e-05
0.0036354
0.000491794
0.000747088
0.000778556
5.41999e-05
0.00672038
0.00154351
0.00198606
6.33509e-05
0.000518493
0.00208115
0.00125293
0.00140132
0.0035003
0.00132783
0.00359277
0.00631351
0.00261852
0.000330426
0.00672234
3.65531e-05
0.0011258
0.0067245
0.00630417
0.000689134
0.000386565
0.00672379
0.00916966
0.0100729
0.0067294
4.6511e-05
0.00195058
0.00556711
0.00238178
0.012696
0.00672501
0.00672436
0.00672415
3.56669e-05
0.0125814
0.00899647
0.00259655
0.00672391
0.000504913
0.0015868
0.00672689
0.01148
0.000299927
0.00524875
0.00121661
0.000699397
3.66151e-05
0.00120325
0.000783338
0.00159193
5.67784e-05
0.00672153
0.000255273
7.0766e-05
0.00231115
0.00673144
0.0092511
4.10761e-05
0.000875133
0.00221969
0.000407186
0.0108302
0.00360798
0.00223989
0.0113331
0.00121666
4.85192e-05
0.00672455
3.80132e-05
0.00481619
0.000531929
0.00672589
0.000897904
0.00601335
0.000131459
0.0067232
0.00133252
0.00347397
0.00672377
0.00672104
3.51849e-05
0.0113502
0.00118177
0.00346974
0.00672586
0.000815207
0.0101175
0.000432053
5.21634e-05
0.00672459
0.000557104
0.000654168
0.00674845
0.00150942
5.83881e-05
0.00532527
0.00753394
3.86019e-05
0.00187401
0.0067422
0.000654358
0.00112135
4.95983e-05
0.00191643
0.000299991
0.000967192
0.00332885
0.000442527
0.000333852
0.00345865
0.000916107
0.000804056
0.00015861
0.00672506
0.00117061
0.00235226
0.00162086
0.00230269
0.000990236
0.00475409
0.000255885
0.000283877
0.00377403
0.00198573
0.00170306
0.00667412
0.000252233
0.0120634
4.08309e-05
0.00802266
0.00524922
0.000300125
0.000460814
0.0067489
0.00672375
0.000421056
0.0120691
0.000286777
0.00306807
0.000796405
0.00172685
0.000725625
0.00892139
0.000228482
0.00672334
5.48626e-05
0.000162654
0.00448843
0.00495402
4.70459e-05
0.000166899
0.00214554
0.00672047
0.00116656
0.00133008
0.00814456
0.000268744
0.00673265
0.00373545
0.000827949
0.0115293
0.00168965
0.0124603
0.00436384
0.00172128
0.0067301
2.66071e-05
0.000904849
0.00480535
0.00672767
0.00637774
0.0057128
0.000376005
0.00672592
0.012164
0.00962842
0.000770568
0.000204021
0.000979425
0.00672982
0.000201675
0.00205262
0.000849468
0.00972177
0.00268966
0.00672048
0.000730764
0.0126058
0.00713316
0.00672487
0.00672145
0.0040335
0.00100137
0.00672561
0.000940622
0.000541133
0.000157669
0.000516821
0.00672487
0.000214035
0.00360014
0.00565133
0.000254507
4.81534e-05
0.00363836
0.00374364
0.00165106
0.00698787
0.00157726
0.000354581
0.000671238
0.0067257
0.00373792
0.0083488
0.000174676
0.00672913
0.00905074
0.00378926
0.00147855
0.0127272
0.00220597
0.0067246
0.00672056
0.000778703
0.0101874
0.000635703
0.00143927
0.000226429
0.00223043
0.00672009
0.00528752
0.00672199
0.00724058
0.00207514
0.00672543
0.000591939
0.000278748
0.000167961
0.00067235
0.000369053
0.0044516
0.000213761
0.00971704
0.00735248
0.00672724
0.00186855
0.00672367
0.00456484
0.00672421
2.98611e-05
0.00672076
0.000376218
0.000526531
0.00498498
0.00111113
0.0015896
5.03935e-05
0.000277761
0.000306839
0.0061153
0.00408036
0.0099508
0.00495296
0.00672473
0.00672368
0.00480941
0.00496803
0.0111189
0.0066153
0.0127931
0.00464287
0.000165196
0.00136169
4.80621e-05
0.000831296
0.000690407
3.40055e-05
0.000652111
0.000938188
4.67356e-05
0.00207095
0.0110712
5.55725e-05
0.005223
0.000647628
0.00290827
0.000679483
0.0118909
4.03812e-05
7.89404e-05
8.13872e-05
0.0103364
0.00672452
0.000300606
0.0119451
0.0024289
0.00114304
0.0040178
4.33167e-05
0.00197059
0.000922281
2.9577e-05
0.00672026
0.00349549
0.00024047
0.00672191
0.00672493
0.00672385
0.0067423
0.000618873
0.00711969
3.12715e-05
0.0113255
0.00672709
0.000249524
0.00112919
0.00108813
0.0130161
0.0116417
0.0102888
0.00672251
0.000727504
0.00672514
0.00540821
0.00370498
4.68341e-05
0.000464825
0.00273685
0.00672412
0.000854738
0.000285344
0.000682392
1.42612e-05
0.0114714
0.00242088
0.000198903
0.000295022
0.00672126
0.00754646
0.0130912
0.00310865
0.000172488
0.00672661
0.000670426
0.00516227
0.00672474
0.00145304
0.0120796
0.00149631
0.00848918
0.0015745
0.00152828
3.2628e-05
0.00221176
3.07109e-05
3.07893e-05
0.00672281
4.37107e-05
0.00254028
0.00672947
0.000351222
0.00672547
0.00673155
0.00672494
0.000710994
0.00672526
0.00397908
0.0105948
0.00095376
0.000250903
0.0104391
0.00495035
0.00122639
0.00672594
0.000409348
0.00286245
0.000690091
0.00672348
0.00766039
0.0114187
0.0102456
0.000748993
0.000513051
0.00073264
0.00286954
0.000680229
0.00148429
0.000254354
0.00226164
0.00672213
0.0123438
0.0116602
0.0122372
0.000196308
0.000547949
0.0122701
0.0128068
0.00542827
0.00672042
0.000803007
0.00147642
0.00307204
0.000282069
0.000779938
0.00679762
0.000512487
0.00114398
0.00506514
0.00672286
0.000887867
0.000805962
0.000342054
0.00606984
0.00672543
0.00340289
0.00685902
0.000410811
0.0067224
0.0109365
3.37767e-05
0.000412131
0.00642668
0.00127113
0.00136346
0.0134021
3.14948e-05
0.00157831
0.000276306
0.000963288
0.000454139
0.000446285
0.00167738
0.00139539
3.80886e-05
0.00192277
0.000843331
0.00676777
0.000548701
0.00142462
0.00676348
0.000440299
0.00253032
0.00585409
0.00990444
0.00576928
0.00672583
0.0101822
0.00287104
0.00672546
0.00377847
0.00319743
0.000242798
0.00555761
0.0072994
3.99253e-05
0.000742235
0.00235894
0.0114535
0.000236125
0.00166775
0.00672566
0.00460411
5.13037e-05
0.00500579
0.00676483
0.00855509
0.0102041
0.00141378
0.00672496
0.00220895
0.00213917
0.000563126
0.00678769
0.00672373
0.00671969
0.00671971
0.00712503
0.000388565
0.00140408
0.000285476
0.00673072
0.00672111
0.000524634
0.0134493
0.0008153
0.00423405
0.00672868
0.00672794
0.00573842
0.0084662
0.00672374
0.00672796
0.000805256
0.00172954
0.00142867
0.00313187
0.00135865
0.000743626
0.000915438
4.90749e-05
0.000326247
0.000431465
0.000630042
0.000149009
0.000314192
0.00672675
0.00501789
0.00672747
0.00100948
0.00241773
0.000558174
0.000120536
0.00672304
0.000295184
0.000317553
0.000307266
0.000617945
0.000226679
0.001227
0.00672374
0.0112361
0.000196891
0.0135741
0.00246774
0.00108242
0.000329201
0.0121346
0.000401072
0.000766375
0.000191177
0.000756345
0.00136193
0.00328212
0.000127812
6.8473e-05
0.00255688
0.000946287
4.98985e-05
0.0134689
0.00218421
0.00111397
0.00125662
7.83304e-05
0.000616452
0.00165233
2.94149e-05
0.00839921
0.0087497
0.000284255
0.00672161
0.00430655
0.00196761
0.00673114
0.000762599
0.00118839
0.000233609
0.000336785
0.0127759
0.000457171
0.00170996
0.0111103
0.00204413
0.00373032
0.00672508
0.00672361
0.00210351
0.00956262
3.36412e-05
0.00207855
0.0017045
0.00672734
0.00213793
5.32624e-05
0.00171057
0.00129773
0.00168015
0.000879375
0.00532772
0.000180042
0.00175551
0.000194564
0.00672957
0.000465867
0.00226868
0.00134199
0.000306312
0.000127717
0.000970123
0.00671957
0.00675359
0.00331617
7.92778e-05
0.000372648
0.000375913
1.47498e-05
0.00101728
0.00672011
0.000434422
2.97067e-05
5.45318e-05
0.0056107
0.000481147
0.0067237
0.00234679
0.00132032
0.0126007
0.00672481
0.000114098
0.00230546
0.00139569
0.000275119
0.0099552
0.000132959
0.00235233
0.00915909
0.000648165
0.00337695
0.00265617
0.000380163
0.000275655
0.000672278
0.00672483
0.00242454
0.000137431
0.00281238
0.000620996
0.00172232
0.00675575
0.00131528
0.0108042
0.00636141
0.00382686
0.00671996
0.00450658
0.00672567
0.000817894
0.00449929
0.00112441
0.00792592
0.000980194
0.000201031
0.00671993
0.000205235
0.00672397
0.000457466
0.00671947
0.000155991
0.00347142
0.000629475
1.61153e-05
0.0133876
0.0068335
0.00672408
0.000326893
0.000436836
0.00623398
0.0120627
0.000710303
0.00673092
0.000638494
3.10885e-05
0.000337029
0.000305368
0.000831902
0.0123424
0.000428531
0.00233903
0.000376485
5.33189e-05
0.000700429
3.00344e-05
0.000660886
0.00301604
0.00122037
0.000603553
0.00678457
0.00233176
0.000410141
0.000676128
0.00672462
0.00672404
0.000949855
0.00254081
0.00055477
0.00661645
0.00672627
0.00672582
0.00141183
0.00673266
0.000964472
0.00672023
0.00683481
0.0019156
3.67117e-05
0.00672145
0.0067253
0.000131527
0.000475916
0.00133124
0.00745786
0.000220075
0.00346723
0.00229375
0.000497335
0.00313662
0.00672579
0.0067195
0.00145358
0.00242562
0.00672546
0.000733792
0.000855349
0.00151399
0.000169924
0.000216208
0.00141764
0.00673108
0.00672624
0.00203942
0.00536487
0.00177301
0.0053646
0.00162852
0.00672374
0.000997858
0.00672095
0.00673068
0.000740765
0.00040155
0.00384685
0.000534845
0.00618389
0.0067281
0.013012
9.00009e-05
0.00238208
0.00268967
0.00604234
0.000212336
0.00266065
0.000249237
0.00304063
0.00672052
0.00672914
0.00191418
0.000486886
0.000724111
0.000588021
0.00999581
0.00243438
0.000950113
0.00205165
0.00672676
0.00156448
0.00393663
0.00672176
0.000413848
0.000146971
0.0026201
0.00924728
0.00558579
0.000288166
0.0067273
0.00674039
0.00176255
0.000943421
0.00672545
0.000196329
0.00673824
0.000445783
0.00680451
0.00678753
0.000294316
0.00419286
0.00432528
0.000539835
0.0067258
0.00672599
0.00344556
0.00673382
0.00384933
2.36447e-05
0.00613651
0.00676967
0.01079
0.00744938
0.00191622
0.000405328
0.000701093
0.00160217
0.0067496
0.000401462
0.00724639
0.000144755
0.00672359
0.00273401
0.0115822
0.00100884
0.0124391
0.00672565
0.00122488
0.00336387
0.00114606
0.0025697
0.00212412
3.9808e-05
0.00673301
0.00039339
0.00671953
0.00420481
0.00672207
0.010419
0.00673139
0.00613313
0.00675018
0.00586486
0.00285907
0.000232804
8.76978e-05
0.00679363
0.000254942
0.00672366
0.0116279
0.00672199
0.00569771
0.00672375
0.0017032
0.00672361
0.000470797
0.00335624
0.00897632
0.000479189
0.000574878
0.0060339
0.00420526
0.00290279
0.00641785
0.00748953
0.0104509
0.01173
0.00020078
0.000392922
0.00231479
0.0128476
0.00117411
0.0132917
0.00676005
0.00531695
0.00256776
0.00672353
0.0015599
0.000304688
0.00660359
0.00547063
0.00672635
0.00164816
5.57752e-05
0.00357324
0.000218511
0.000896552
0.00324807
2.226e-05
0.000162974
0.000878623
0.00338612
0.00344402
0.00304824
3.87699e-05
0.00680165
0.000263024
0.000333061
0.00713174
0.00983334
0.00200144
0.00518348
0.00301667
0.00237003
0.00672883
0.00142125
0.00671875
0.000795726
0.000385087
0.00662622
0.000749967
0.00624691
0.000507836
0.01305
0.000425511
0.00198281
0.00435608
0.00500318
0.00194999
0.000192508
0.00588614
0.0067237
0.00673043
0.0126601
0.000982461
0.000242805
0.00064204
0.000439151
0.00673003
0.0004479
0.00198253
0.00672265
0.00194471
0.0122129
0.00446761
0.00677481
0.00672697
0.00368729
0.000250299
0.00171308
0.00105961
0.00589516
0.00204725
0.000450346
0.00679553
0.000460923
8.72679e-05
0.0123712
0.00374615
0.000146323
0.00102104
0.00906118
0.0127118
0.00673034
0.00963157
0.000688611
3.88342e-05
0.00672369
0.0121886
0.00672503
0.00117862
0.000399238
0.000627749
0.0111932
0.000205419
0.00125898
0.00850712
0.00671974
0.000719326
0.0067898
0.000638797
0.0122434
0.00291321
0.00672528
0.00184199
0.00320386
0.00718809
0.00672777
0.00672306
0.0013673
0.000463342
0.00104333
3.26229e-05
0.00160528
0.00238601
0.00202564
0.000908851
0.00223037
0.00793388
0.0017701
0.00348777
0.0129341
0.00208468
0.00679902
0.0104134
0.000248601
0.00193139
0.000473831
0.000793749
0.00421465
0.00159873
0.00287262
0.000392291
0.00672626
0.000882203
5.43651e-05
0.00672452
0.000516332
0.00622533
0.000152943
0.00671969
0.0005149
0.000781281
0.00244742
0.00408896
0.00677447
2.60682e-05
0.000258191
0.00720257
0.00619848
0.00271657
0.000975027
0.00410086
0.000407364
0.000261015
0.00486263
0.000531066
0.00677637
0.00635141
0.00209814
0.00189721
0.00517559
0.000718564
0.00673046
0.00114994
0.00244828
0.00672268
0.00672358
0.00822342
0.0117888
0.000749814
0.00132736
0.00672227
0.00415515
0.0120399
0.00169331
0.00673103
0.00078508
0.00678326
2.40229e-05
0.00672427
0.00672983
0.00249577
0.00158137
0.00903506
0.00262759
0.0021029
0.00672959
0.000655002
0.00672102
3.24721e-05
0.000526965
0.00672567
0.00721451
0.000189779
0.00070631
0.0127946
3.20175e-05
0.00677023
0.00203915
0.00332951
3.34528e-05
0.000577991
0.00890882
0.00542727
0.000871341
0.0132219
4.29576e-05
0.00094098
0.00146124
0.000145036
3.5423e-05
0.0102836
0.000122573
0.000327612
0.0131093
0.00196082
0.000778188
0.00839912
0.000102417
0.00676207
0.00222328
0.00483354
0.000338518
0.00604014
0.00019473
0.000395662
0.000465613
0.00848888
0.00117116
0.00811611
0.00226519
0.00035759
0.000470177
0.000263364
0.000947732
0.00677264
0.00176179
0.00935509
0.00672432
0.000799568
0.00675117
0.00139807
0.00524598
0.000254256
0.00141525
4.01954e-05
0.000164914
9.69394e-05
0.00958027
5.10968e-05
0.00526712
0.000285993
0.0115878
0.00673889
0.00672375
0.00094655
0.00331141
0.00672525
0.000581686
6.50108e-05
0.000284102
0.0036856
0.00330176
0.00599568
0.000492901
0.000289547
0.00672015
0.000609381
0.0124217
0.000229577
0.00010479
0.00179396
0.000340762
0.00119865
0.0015795
0.00886718
0.000250674
0.0019956
2.02543e-05
0.000781772
0.00672596
0.00500038
0.0029702
0.0051151
0.00140768
0.000223157
0.0067303
0.00170115
0.0067209
0.000963101
0.00678414
0.000224718
0.00171538
0.000380175
0.00443606
0.000234384
0.00505859
0.00800266
0.00672736
0.000575852
0.00672353
0.000821715
0.00855715
0.00150202
0.00673158
0.00079067
0.00360586
0.000681983
0.0114799
0.00438921
0.00184562
0.000488946
0.000785093
0.0131255
0.00673072
0.00045622
0.00337736
0.0067243
0.00030138
0.00196537
0.00672107
0.000923906
0.00455669
0.00119587
0.000693293
0.00775489
0.000675378
0.00985552
0.00127202
0.00672107
0.000382126
0.0029634
0.00332735
0.00034619
0.00146265
0.000585728
0.00673302
0.000556094
0.000509718
0.000589103
0.00673864
0.00672528
0.00129401
0.00174916
0.00672612
0.000240132
0.00675704
0.000736126
0.000795696
0.00149883
3.80595e-05
0.0127093
0.00275815
0.00159185
0.00269935
0.00204467
0.0016997
3.55799e-05
0.00322913
0.000855672
0.0047224
0.000986912
0.00035654
0.00063646
0.00676792
0.00672549
0.00672183
0.00354252
0.000457627
0.00678846
0.000850535
0.00193513
0.00191763
0.000288455
0.0103603
0.00034116
0.00189338
0.0110531
0.0025626
0.00387554
0.00258247
0.000121556
0.00673311
0.00428203
0.00474679
0.00343821
0.0032768
0.0118719
0.000346992
0.0021897
0.00672053
0.00591875
0.0134125
0.00275062
0.000148666
0.000873435
0.00672708
0.000590368
0.00074094
0.00672627
0.00672156
0.0125891
0.0054209
0.00278448
0.00200346
0.00332602
0.00075953
0.000212973
0.00495171
0.00140056
3.01015e-05
0.00157573
0.000299647
0.000259749
0.00309546
0.00172104
4.76708e-05
0.000368352
0.00672575
0.00160132
0.0110585
0.000982643
0.000134341
0.0107639
3.86166e-05
3.91242e-05
0.000587967
0.00226046
0.00672505
0.00672754
0.0032487
0.000957093
0.00244019
0.00304115
0.00145716
0.00672584
0.00436294
0.00587269
0.00161806
0.00200836
0.00697774
0.000163322
0.00161052
0.00926831
0.000416852
0.000873131
0.00672164
0.000512193
0.00301058
0.00277433
0.00126128
0.00101972
0.000697591
0.00010618
0.0112131
0.000930462
0.00506922
0.010535
0.00672576
0.00323221
0.000175911
0.00672579
0.00558413
0.000760729
0.00817476
0.00673265
0.0098734
0.00278474
0.00676987
0.00132073
3.35291e-05
0.000679107
0.00279546
0.00540746
0.0016849
0.000713468
0.0118603
0.00672506
0.000137159
0.00672043
0.00320173
0.0005942
0.00577008
0.0118398
0.000829153
7.61536e-05
0.00672601
0.00412678
0.000399819
3.39579e-05
0.00347308
9.24546e-05
0.00427405
0.00676958
2.45228e-05
0.00280388
0.000464247
0.000108953
0.00672504
0.00658314
0.0010814
0.000723759
0.000557224
6.60389e-05
0.00024242
0.000192832
0.00163839
0.010811
0.000365105
0.0026855
0.000371676
0.00157987
0.00397291
0.000485112
0.00380724
0.00201378
0.010105
0.00177389
0.00674198
5.03867e-05
0.00251
0.00406658
0.00250186
0.0105357
0.000237075
0.000485005
0.00672424
0.00672429
0.00672448
0.00672139
0.00048579
0.0001478
0.000180599
0.000908298
0.00672185
0.000413178
0.00243688
0.000526326
0.00152543
0.00440281
0.00111213
0.000983046
0.0023166
3.84582e-05
0.00950025
0.00016635
0.00943241
0.00169846
0.00673387
8.17001e-05
0.00615633
3.61453e-05
0.0067236
0.00222106
0.0017023
0.0123805
0.00399534
0.000354433
0.00455113
0.00015522
0.00092376
0.0114158
0.000558369
0.00135379
0.00111605
0.00108075
0.000267747
0.00197874
0.00672349
0.000373658
0.00679393
0.00672359
0.000814803
0.00672538
0.00414113
0.0074784
0.0122781
0.00672065
0.0042467
0.00220013
0.00583377
0.000238001
0.000665421
0.00375934
0.00672219
0.0067224
0.00199692
0.000832845
0.000793965
0.000503839
0.00595509
0.0128928
0.00210796
0.0137728
5.33357e-05
0.000534043
0.000274997
0.00106527
0.0127296
0.000190296
0.000769934
0.0019119
0.00998551
0.00970015
0.00672074
0.00672407
0.000303978
0.0119911
0.00581016
0.00679734
0.00349979
0.0118349
0.000318256
0.000835546
0.00127705
0.000799755
4.2821e-05
0.00234672
0.0129078
0.0038373
0.000183642
0.00018404
0.00361843
0.00673182
0.00671958
0.000529669
0.00836809
0.00143331
0.00212003
0.00141262
0.000142729
0.00333051
0.00173924
0.00700784
0.00256779
0.0046444
3.91505e-05
0.00672692
0.00672354
0.00965963
0.00672554
0.00675921
0.00127461
5.35812e-05
0.00090859
0.00318981
0.000364271
0.00672574
0.0118898
0.0005633
0.00524067
0.00261034
4.62037e-05
0.000609729
0.0043308
0.000975545
0.0130429
0.00672372
0.00814536
0.0020624
0.00819144
0.000240283
0.000229509
0.0056051
0.00240461
0.000198261
0.00129251
0.00881412
0.00058591
0.00020983
0.000549244
0.00120364
0.000405333
0.00452098
0.00142238
0.0115176
0.00272273
0.00672755
0.00424193
0.00120348
0.00325961
0.000706808
0.00672492
0.000519936
0.00216472
4.28447e-05
0.000144836
0.00567364
0.00671986
7.02635e-05
0.00293448
0.000851265
0.00118305
0.000528021
0.00419431
0.00198216
0.00165975
0.00217782
0.00709796
0.0125552
0.00672412
0.00671946
0.00213205
0.00170673
0.00672648
0.00204265
0.000694081
0.00104789
0.000257232
0.00676425
0.0132844
0.00717217
0.00672605
0.00203349
0.00122966
0.00190573
4.1242e-05
0.00217706
0.00670068
0.000404123
0.00112814
0.000842418
0.00672507
0.000988503
0.0044338
0.00361285
0.000299375
0.00851472
0.00970049
0.00672524
0.0067211
0.00152009
0.00380979
0.000417008
0.00162463
0.000427646
0.00227912
0.0105277
0.00342456
0.0135311
0.00672561
0.0114564
0.00255645
0.00672566
0.00775859
3.27796e-05
6.03951e-05
2.67747e-05
0.000148512
0.000927492
0.00615569
0.00697744
0.00672809
0.00672614
6.63201e-05
0.00198326
0.00350783
0.00868574
0.000472498
0.00889697
0.000368684
0.000228163
0.00679051
0.00147812
0.00160249
0.0129403
0.000662321
0.0125591
0.00650158
0.00408067
0.00348714
0.00356623
0.000238839
3.99637e-05
0.00211993
0.00672346
0.000674281
0.000846588
0.000961737
0.000532863
7.30843e-05
0.00672154
3.04807e-05
0.00036588
0.00273561
0.000608399
0.00125799
0.00149677
0.0123937
0.00671937
0.000419412
0.0106394
0.00147905
0.00094863
0.000666126
5.02084e-05
0.00136183
0.00337611
0.00145465
0.000628694
0.00229545
0.000394799
0.0028552
0.0126736
0.00672193
9.09896e-05
4.07107e-05
0.0118436
0.000627873
0.000360944
0.00210812
0.000145897
0.00672554
0.0116445
0.00167696
0.00446776
0.00104078
0.00672211
0.00672568
4.20141e-05
0.00672533
0.00672324
0.00328233
0.00110524
0.00212843
0.000532325
0.00123725
0.000240332
0.000370348
0.00672525
5.91225e-05
3.09658e-05
0.000303288
0.000364337
0.000437737
0.00054178
0.00813404
0.000314997
0.00672606
0.00469382
0.01079
0.00672604
0.00147846
0.00672307
3.49184e-05
0.00029851
0.00430209
3.78754e-05
0.0125459
0.00672216
0.00217971
0.0116174
0.00757526
0.00204783
0.00672757
0.0026117
0.0108673
4.76636e-05
0.0067241
0.0131829
0.0020371
9.30082e-05
0.0110108
0.00132642
0.00672363
0.000952147
0.000281914
0.00109688
0.012071
0.0134997
0.00674267
0.00794569
3.49285e-05
0.00774422
0.00672621
0.000113742
0.00203082
0.00544408
0.0137352
0.000563205
0.000751972
0.000589609
0.000454366
0.000643317
0.0068149
0.0129482
0.00359197
0.00673307
0.00264028
0.000272072
0.00659248
0.000920116
0.0132965
0.00817759
0.000650186
0.00247064
0.00456161
0.0137042
0.000657303
0.000806972
0.00674131
0.00132103
0.000292698
0.000792109
0.000529923
2.67727e-05
0.00672347
0.000705376
0.00683428
0.000157596
0.00694533
0.00286706
0.00672492
0.00672632
0.00189433
0.000568851
0.00234528
0.0132754
0.0128836
0.00676253
0.00673516
0.00672382
0.00672159
2.29035e-05
0.00677455
0.0116613
0.000448208
0.00202369
0.00546386
0.000318399
0.0136095
0.00109388
4.19055e-05
0.00758061
0.00203747
0.00388986
0.000256337
0.000208164
4.57619e-05
0.00383118
0.00752916
0.00211986
0.00673402
8.91231e-05
0.00677486
0.000606883
0.00220012
0.010254
0.000325535
0.000144909
0.000457937
0.000681262
0.00672356
0.000254315
0.00137971
0.00672572
3.84544e-05
0.00672105
0.00219042
0.000896329
0.00241762
0.00681169
0.00119199
3.47881e-05
0.00131431
0.00672403
0.00923563
0.0124507
0.000758124
0.000250958
0.00172883
0.000353222
0.00166846
0.00222563
0.000613149
0.0015464
0.00073444
0.000625551
0.0105298
0.000135797
0.000317508
0.00177974
0.00308509
0.0134404
0.00671915
0.0113856
0.0007645
0.0121565
0.000187495
0.00191499
0.00322585
0.000744652
9.18563e-05
0.00444079
0.0135982
8.55702e-05
0.00526889
0.00276191
0.0075973
0.00104987
0.00246966
0.000614997
0.000701161
0.00129856
0.00678537
0.006726
0.00220185
0.00174081
0.000383499
0.0067234
0.00179911
0.00673499
0.010336
0.000930975
0.000354773
0.000783063
0.000841333
0.000203105
0.000403645
0.000348414
0.00674
8.14854e-05
0.0133478
0.00250114
0.00357483
0.00931788
0.00107617
4.13446e-05
0.00672814
0.000805208
0.0132294
0.00198183
0.00530906
0.00356032
0.000241504
0.012828
0.00360252
0.00673658
0.00258017
8.92467e-05
0.000852447
0.0107582
0.000847669
0.000164398
0.000423893
0.000348712
0.00286706
0.00663727
0.00779769
0.00125999
0.000611541
0.00128869
0.000329882
0.00568872
0.000898088
0.00207447
0.000239595
0.00673183
3.4258e-05
0.00499733
0.00314396
0.00484426
0.0014205
0.00340865
0.0135113
0.00672463
0.00141444
0.00672501
0.00131211
0.00118415
0.000167947
0.0100253
0.000472317
0.00672112
0.00036524
0.00110515
0.00342608
0.000763757
0.00675192
0.00532563
0.0125219
0.000946611
7.18863e-05
0.00672092
0.000995518
0.00154075
0.000808621
0.0067509
0.00360689
0.00672285
0.00139612
0.00672356
0.00199082
0.00279328
0.00640314
0.0109544
0.00524378
0.000908608
0.00215374
0.00672592
0.0118537
0.00544959
0.000431283
0.0133799
0.00201736
0.0106464
0.00356185
0.0128433
0.0020303
0.0113312
0.0012076
0.00150066
0.00460688
0.000902686
0.0017085
0.00184212
0.000329008
0.0126502
0.000316658
0.000211089
0.000536383
0.00169945
0.000217184
0.000195036
0.000655547
0.00469792
0.00454929
0.00131466
0.000201162
0.000102538
0.000897109
0.00933517
0.00675704
5.94111e-05
0.00362018
0.000781299
4.18497e-05
0.00169575
0.000782983
0.00314319
0.00716684
0.0049108
0.00192931
0.00549241
0.00167012
0.00761432
0.000128451
0.00672761
0.00486041
0.00331142
0.00545172
0.00092049
0.00155915
0.00045774
0.000872638
0.00256244
0.00140459
6.83967e-05
0.000166404
0.000353282
0.00976262
0.0113752
0.00511265
0.00672491
0.00500208
7.29961e-05
0.00326493
0.000154466
0.00967055
0.010902
0.00672673
0.006452
0.0118738
0.000279726
0.00672951
0.00674254
0.000492893
0.00393152
0.0124914
0.000983395
0.000502245
0.00672432
0.000515732
0.00167157
5.15271e-05
0.000273243
0.000196893
0.00178605
0.000618142
0.000738889
0.00137226
0.00342404
0.000962339
0.0117872
0.000737924
0.00305029
0.00672323
0.0128294
0.000318861
0.000394381
0.00672251
0.00672422
0.000215271
0.00611098
0.00010077
0.00561691
0.0049035
0.00151591
0.0126083
0.00148621
0.00677026
0.00236519
0.000886277
0.000767789
0.00672524
0.0111145
0.00802574
0.00491328
0.000257058
0.00662778
0.00033087
0.00331098
0.00676094
0.00249644
0.00211045
0.000399383
0.000731627
7.24608e-05
0.00036415
0.00673921
0.00248547
0.00838022
0.00605472
0.000361401
0.000480906
0.00508568
0.000626844
0.00672493
0.000963919
0.000584065
0.00672197
0.0095681
0.00672649
0.000245136
0.0130238
0.000451623
0.00243417
0.00672627
0.0133455
0.00672469
0.00120492
0.00191627
0.000135133
0.000129361
0.000820651
0.0127192
0.000197976
0.000198403
0.0014741
0.00116722
0.00642078
0.00672347
0.00402474
0.0120832
0.000308855
0.00130355
0.000921309
0.00100775
0.00768663
0.0133124
0.000628685
0.000547891
0.00672379
0.0119012
0.00464469
0.00406281
0.000640092
0.0018268
0.000429848
4.19393e-05
0.00017339
0.000433345
0.000856974
0.0127466
0.00150708
0.00672199
0.002959
0.00015332
0.00673631
0.00977777
0.00672112
0.00672344
0.000533323
0.000165533
0.00297493
0.00673655
0.000691227
0.00673283
3.38335e-05
0.00575363
3.38816e-05
0.000843617
0.0124759
0.00911327
0.000401449
0.000315186
0.0096068
3.57545e-05
0.0067244
0.000385547
0.000171033
0.000325589
3.9253e-05
0.0106208
0.0112812
0.0126493
5.03922e-05
0.00242
0.00111533
0.00672082
0.00415591
0.00111533
0.00309685
0.00145993
0.00216663
0.0060873
0.00076083
0.0116326
0.00672356
0.00150989
0.00671944
0.00872264
0.00159917
0.0122247
0.0102834
0.000328
0.00672435
0.00577602
0.00832766
3.65892e-05
0.00672347
6.71139e-05
0.00672485
0.000209452
4.56725e-05
0.000533832
0.00114526
0.00233939
0.00674198
0.00654596
0.000978707
0.0103584
0.000756714
0.000263142
0.00552602
0.00181346
0.00672899
0.00672251
0.00172626
0.00467215
0.00121996
0.0106583
0.000101418
0.0020184
0.0133255
0.000130001
0.00672418
0.00133417
0.00672989
3.89397e-05
0.00433842
0.000780555
0.00590743
0.00672378
0.0067783
8.42283e-05
0.00354661
3.16329e-05
0.00676545
0.000255712
0.00688059
3.87589e-05
0.00672364
0.00113487
0.00182428
0.000207273
0.00923126
0.00672471
0.00725697
0.000334843
0.000207787
0.00680664
0.00672851
0.0101679
0.000595098
0.00447852
0.00477202
0.000610636
0.000716526
0.000179234
0.0135753
0.00140086
0.000294756
0.00137377
0.00672658
0.0069952
0.00370732
0.0128953
0.00497359
0.00202105
0.00672341
0.00930751
0.0120094
0.00672639
3.84264e-05
0.000888916
0.00672112
0.00500665
0.0067382
3.99322e-05
0.0132399
0.000350823
0.00273859
0.000595073
0.00672383
0.00344368
0.00158352
0.00672181
0.000621005
0.00342147
0.00187934
0.000311068
0.000586711
0.00672012
0.00905059
0.000984113
0.00672371
0.000267545
0.00119054
5.36332e-05
0.000669068
0.00623567
0.000503228
0.00370343
0.000359234
0.000376252
0.0014409
0.0118024
0.00180983
0.00245477
1.70117e-06
0.00486148
0.000159774
6.90513e-05
0.000167932
0.00672362
0.00449811
0.00672406
0.000251177
0.00165867
0.00149632
0.00686503
0.0066951
0.0104015
0.00672572
4.34955e-05
0.0132018
0.0137418
0.00548265
0.00333768
0.00102027
0.0128742
0.000872484
0.00138757
0.000333843
0.00680842
0.000212046
5.63206e-05
0.000515802
0.0115256
0.000170045
0.00673682
0.000141407
0.000571327
0.00261217
0.00333546
0.0015034
0.012393
0.00035135
0.00694211
0.00122116
0.000608263
0.00306906
9.71996e-05
0.00850735
0.00236659
0.00120525
0.0112471
0.00815114
0.000465769
0.00201948
0.000992134
0.00175751
7.661e-05
0.00171543
0.000264719
0.0136442
0.00674369
0.00329828
0.000212319
0.000142703
0.00672072
0.00672334
0.00125746
3.82865e-05
0.00480893
0.000522062
7.7151e-05
0.000174327
0.0101579
0.0123524
0.0133754
0.0133399
0.000665582
0.00674755
8.36593e-05
0.00586101
0.00522715
0.00460493
3.51099e-05
5.79177e-05
3.18386e-05
0.00427068
0.00672551
2.76421e-05
0.000625197
0.000803303
3.11555e-05
0.00575854
0.00672462
4.15342e-05
0.013164
0.00230275
9.04528e-05
0.000521064
0.00672883
0.000635374
0.0115262
3.8539e-05
0.00672545
0.003745
0.000620599
0.00141204
0.00672654
0.00266163
0.0025828
0.00357513
0.00260474
0.000341361
0.000242873
0.000185218
3.44047e-05
0.00131773
0.0100728
0.000644956
0.0024176
0.00068015
0.00236632
9.95385e-05
0.00648574
0.000608151
0.000422277
0.000569651
5.7926e-05
0.00337584
0.000193154
0.00105985
0.00842221
0.000769886
0.00402943
0.00536673
0.00450067
0.000216433
0.00125122
4.02712e-05
3.80681e-05
3.84064e-05
0.000562133
0.000290364
0.00501031
0.0027542
0.0078871
0.000354089
0.000121861
0.00415269
0.00481365
0.000604637
0.0132714
0.00672147
0.00586392
0.000127375
6.66218e-05
0.000271408
0.00547722
0.00672235
0.00110891
0.00334545
0.0019373
0.000902258
9.26857e-05
0.000177089
0.00415625
0.00316245
0.00289855
0.00672505
0.00891238
0.00232502
0.00907272
6.7939e-05
0.00457203
3.59888e-05
0.000276079
0.0113091
0.00241013
0.00216787
0.00679172
0.00672359
0.00321266
3.73856e-05
3.78306e-05
0.011242
0.0067235
0.00349975
5.2516e-05
0.00672541
0.00103347
0.000887758
4.68706e-05
4.53584e-05
0.000218018
0.000260421
0.00673824
0.000653989
0.000289642
5.49227e-05
6.81086e-05
0.000218829
0.00672192
8.53886e-05
0.00622011
0.000153368
0.0129742
3.6824e-05
0.00327341
6.58723e-05
0.00348271
0.000813793
0.00199589
0.00360097
0.000388048
0.00246013
0.0126263
7.20916e-05
0.000222523
7.14546e-05
0.000197625
0.0112615
0.0132767
0.000454612
0.0121359
0.000110822
0.00567542
0.000110389
0.0136302
6.59089e-05
0.00672498
0.000515432
3.36747e-05
0.000432322
0.00293771
0.00321611
0.000235005
0.00672463
0.00589282
0.00192666
0.000335418
0.00672557
0.00645444
0.011496
0.000951316
0.0064978
3.62474e-05
0.0129376
0.000332479
0.0067347
0.00118601
0.00675379
0.000163004
0.000498421
0.00030316
0.000807271
0.00025056
0.00675957
0.0125223
0.00118005
0.000541985
0.0130135
5.46431e-05
0.00494358
0.0136207
0.0045003
0.00273709
0.0067239
0.000410429