/*--------------------------------*- C++ -*----------------------------------*\
| =========                 |                                                 |
| \\      /  F ield         | OpenFOAM: The Open Source CFD Toolbox           |
|  \\    /   O peration     | Version:  v2012                                 |
|   \\  /    A nd           | Website:  www.openfoam.com                      |
|    \\/     M anipulation  |                                                 |
\*---------------------------------------------------------------------------*/
FoamFile
{
    version     2.0;
    format      ascii;
    class       surfaceVectorField;
    location    "200";
    object      Uf_0;
}
// * * * * * * * * * * * * * * * * * * * * * * * * * * * * * * * * * * * * * //

dimensions      [0 1 -1 0 0 0 0];


internalField   nonuniform List<vector> 
20673
(
(1.08833 0.119776 0)
(1.09231 0.117337 0)
(1.08776 0.114915 0)
(1.01848 0.0398165 7.52088e-22)
(1.01734 0.0391156 -2.8162e-22)
(1.0175 0.040999 2.04362e-22)
(0.594473 -0.0472071 -1.60122e-22)
(0.629518 -0.048971 1.12844e-20)
(0.653689 -0.0485829 -1.28825e-20)
(1.05421 -0.00765835 -1.09974e-20)
(1.05429 -0.00670483 1.3605e-22)
(1.0533 -0.00710956 5.43681e-21)
(0.996343 0.00162802 2.52866e-21)
(0.996198 0.001207 3.6719e-21)
(0.995863 0.00172308 7.0716e-21)
(0.372552 0.0473049 -3.13178e-21)
(0.360419 0.0199768 8.42946e-20)
(0.343513 0.0483769 -1.29925e-19)
(0.534919 -0.0363337 1.35208e-21)
(0.530787 -0.0384605 0)
(0.577726 -0.0398239 -1.18138e-20)
(0.660994 -0.0509009 -6.20015e-21)
(0.612175 -0.0494045 -3.77485e-21)
(0.63251 -0.0524919 0)
(0.508828 -0.0744929 -1.12523e-20)
(0.474079 -0.0713674 2.79043e-21)
(0.436157 -0.0664276 -4.24873e-20)
(1.12808 0.144151 -1.14044e-20)
(1.13405 0.144026 -1.29124e-20)
(1.13175 0.149969 5.99005e-21)
(1.1047 -0.0415719 9.00206e-21)
(1.10407 -0.0415961 2.92224e-20)
(1.10455 -0.0422174 2.92346e-20)
(1.08929 -0.0328659 6.71024e-21)
(1.08993 -0.0338523 3.09374e-20)
(1.09021 -0.0324863 2.7974e-21)
(1.05504 -0.00785661 -9.79241e-21)
(0.0363071 0.00223499 1.31428e-21)
(0.0625557 -0.000937161 -7.76738e-21)
(0.0300509 0.00225998 2.31657e-20)
(0.970668 0.0904988 0)
(0.966587 0.0898411 -1.00086e-20)
(0.969671 0.0862689 9.43504e-21)
(0.992065 0.0864155 -7.67027e-21)
(0.989927 0.0839487 -3.68447e-21)
(0.993549 0.0828514 -3.72647e-21)
(1.01177 0.045036 1.50524e-21)
(1.01317 0.0447853 6.43503e-22)
(1.01212 0.0435448 6.16831e-22)
(1.12931 0.0193256 5.56088e-21)
(1.13042 0.0214169 -4.17399e-22)
(1.13195 0.0184165 -3.71552e-20)
(1.08844 -0.0335529 -3.4094e-20)
(1.08844 -0.0321903 -4.69748e-20)
(1.00132 0.00441028 -6.76085e-22)
(1.00134 0.00421896 1.92652e-21)
(1.00117 0.00405304 1.35153e-22)
(0.999973 0.000772562 2.45419e-22)
(0.999956 0.00102658 4.21454e-21)
(0.999976 0.000789125 4.54276e-21)
(0.532886 -0.036906 -1.8842e-22)
(0.499031 -0.0373996 1.59385e-21)
(1.00055 0.00666674 -1.8279e-21)
(1.00058 0.00707526 9.28271e-22)
(1.00071 0.00697329 0)
(0.700598 -0.0545187 -7.45121e-21)
(0.712082 -0.0557219 2.35388e-21)
(0.994581 0.0129253 3.90957e-21)
(0.994116 0.0126841 1.20057e-21)
(0.9943 0.0134284 7.00676e-21)
(0.573577 -0.0356212 0)
(0.537517 -0.0330636 5.54098e-22)
(0.535019 -0.0346144 4.89721e-22)
(0.788594 0.0267258 5.22635e-21)
(0.779589 0.0322029 0)
(0.780962 0.0203777 0)
(0.760355 0.110289 0)
(0.758799 0.122726 0)
(0.749942 0.113473 0)
(0.716388 0.544271 -6.10086e-23)
(0.747343 0.554217 -2.02662e-20)
(0.726158 0.587773 -2.25442e-20)
(1.1841 0.0892629 -4.11947e-20)
(1.18354 0.0845223 -1.46068e-20)
(1.18855 0.0854468 -3.99685e-20)
(1.1058 0.106991 0)
(1.10277 0.109949 1.40365e-20)
(1.10171 0.105518 -1.49435e-20)
(1.0565 0.0868626 -3.29471e-21)
(1.05373 0.087506 -6.25711e-21)
(1.05463 0.0843035 -3.33497e-21)
(0.841397 0.0621231 5.88283e-21)
(0.833642 0.0647201 3.86492e-20)
(0.835027 0.0553626 1.60148e-20)
(0.908426 -0.00445555 6.44781e-21)
(0.911242 -0.00737428 -2.18442e-20)
(0.912406 -0.00346699 -2.47236e-20)
(0.991097 0.00944232 1.13311e-21)
(0.990527 0.0099961 -3.08223e-21)
(0.991219 0.0103173 -3.02675e-21)
(1.10812 -0.0448971 -6.09778e-21)
(1.10928 -0.0448113 1.72266e-20)
(1.11431 -0.0453062 3.03205e-20)
(1.00045 0.00633583 -2.28457e-21)
(1.00058 0.00627523 2.49981e-21)
(0.186738 -0.0244372 0)
(0.161031 -0.0211257 -8.20833e-21)
(0.173477 -0.0216075 0)
(1.06049 -0.0109789 2.4435e-21)
(1.06138 -0.0116442 -5.72585e-21)
(0.289599 -0.00183243 4.31056e-21)
(0.263957 0.000664611 -1.54727e-20)
(0.292977 -0.00150772 -1.38712e-20)
(1.00778 0.000846564 0)
(1.00814 0.000832615 -2.00802e-23)
(1.00736 0.000475673 0)
(0.999992 0.000574031 -4.68813e-21)
(0.999999 0.000271971 -2.84507e-21)
(0.999997 0.00029871 6.55422e-22)
(1.0199 0.00267273 -2.46474e-21)
(1.01958 0.00280913 -2.36859e-21)
(1.01951 0.002508 3.45515e-21)
(0.695911 0.185222 1.61248e-20)
(0.712238 0.192865 -8.60613e-20)
(0.695429 0.206791 1.32932e-20)
(1.03532 0.0239242 -3.81424e-21)
(1.03615 0.024645 0)
(1.03645 0.023803 3.35443e-21)
(0.890953 0.0110733 8.81537e-21)
(0.889667 0.00649593 -3.02295e-20)
(0.894969 0.0077703 -1.02867e-21)
(1.12836 0.0164234 0)
(1.12644 0.0194513 -1.66683e-20)
(1.12937 -0.0105079 1.95483e-21)
(1.12847 -0.00839009 -6.16657e-21)
(1.12698 -0.0103466 -6.16141e-21)
(0.0901006 0.11335 8.70831e-20)
(0.0896909 0.148731 -4.45732e-20)
(0.119064 0.127548 1.3118e-19)
(1.00296 0.000683241 2.27607e-22)
(1.00323 0.000621426 2.80069e-22)
(1.00318 0.000961337 -5.50544e-22)
(1.07922 0.0166682 3.63444e-21)
(1.08014 0.0175752 4.26186e-21)
(1.08061 0.016178 4.67222e-21)
(0.966052 0.00564276 -4.59844e-21)
(0.964891 0.00424969 -2.67142e-21)
(0.96442 0.00629203 2.29489e-21)
(0.0833695 0.083458 9.84179e-20)
(0.0504888 0.114447 -7.60437e-20)
(0.90528 -0.0014289 3.44756e-20)
(0.904257 -0.00589508 -1.50718e-20)
(1.01145 0.0464915 3.26199e-22)
(1.01025 0.0450326 1.75208e-21)
(1.07905 0.0371454 8.32527e-21)
(1.07834 0.039036 -2.53689e-21)
(1.08066 0.038759 -2.38442e-20)
(1.10558 -0.0416799 -2.48756e-20)
(1.10522 -0.0408519 -3.82082e-20)
(0.993719 0.0272448 2.14028e-22)
(0.993826 0.0258965 -6.68842e-21)
(0.994803 0.0268864 2.67096e-21)
(1.06539 0.0429509 1.08421e-21)
(1.06732 0.0439387 -9.32341e-21)
(1.0654 0.0451987 6.18711e-21)
(1.03422 0.02402 -5.84213e-21)
(1.03443 0.0231813 -2.35892e-21)
(0.662065 0.0662617 0)
(0.508206 0.0488622 4.56705e-20)
(0.568205 0.0532837 -9.9442e-20)
(1.01972 0.0392244 2.41481e-23)
(1.01971 0.0410787 6.46933e-23)
(0.0391012 0.00414051 -2.14883e-20)
(1.0013 0.0045836 -1.59374e-22)
(1.00147 0.00476718 -2.16923e-21)
(0.379954 0.0817225 0)
(0.403463 0.0516626 0)
(1.17468 0.396825 3.33819e-20)
(1.14167 0.370602 -1.66596e-20)
(0.89354 0.293282 5.31584e-20)
(0.995798 -0.00224621 -7.2869e-21)
(0.995341 -0.00211584 2.86018e-21)
(0.98788 -0.0034973 4.12128e-21)
(0.988645 -0.00347367 -1.10556e-21)
(1.13273 -0.0424344 1.07867e-20)
(1.13081 -0.042879 4.2955e-20)
(1.13217 -0.044631 2.87278e-20)
(1.05495 0.130133 -3.32231e-21)
(1.06003 0.130171 -2.66164e-21)
(1.05664 0.135873 -1.16119e-20)
(0.99677 0.00157017 -5.57786e-21)
(0.996466 0.0020498 -9.465e-21)
(0.582146 -0.0825899 -1.74977e-20)
(0.543254 -0.078983 2.36688e-21)
(-0.0821106 -0.0170078 1.28989e-21)
(-0.0567938 -0.0216273 -3.39994e-20)
(-0.0660021 -0.0204391 -1.21314e-20)
(0.995218 0.013143 -8.17144e-22)
(0.995001 0.0122509 1.10233e-20)
(0.0908401 0.183543 -8.81839e-20)
(0.125833 0.202178 -1.31391e-19)
(0.0931094 0.222279 -4.13936e-21)
(1.08533 -0.0404661 7.60891e-21)
(1.08444 -0.0399791 0)
(1.08527 -0.0393425 1.34009e-20)
(-0.0646486 -0.00781994 -6.21812e-21)
(-0.0407907 -0.0132407 -3.57911e-20)
(-0.0545675 -0.00846915 -5.39834e-20)
(1.04976 0.0263478 1.55293e-21)
(1.051 0.0268862 1.91967e-21)
(1.04989 0.0278014 -7.30674e-22)
(0.539632 -0.0305251 8.73007e-22)
(0.537481 -0.0322868 0)
(0.575328 -0.0337686 0)
(0.999909 0.00152168 0)
(0.999849 0.0017473 4.04762e-21)
(0.99987 0.00180233 -4.92041e-22)
(1 0.00255079 -3.24687e-21)
(1.00001 0.00279933 -2.73027e-21)
(1.00003 0.00250493 4.31844e-21)
(0.99619 -0.00191811 -9.71347e-21)
(0.389988 0.10836 6.37305e-20)
(0.400452 0.138429 -9.16938e-20)
(0.421749 0.114383 6.91822e-20)
(0.216268 -0.0286442 -1.0461e-20)
(0.204 -0.0283789 0)
(-0.0526772 0.0229622 9.584e-21)
(-0.0964704 0.0198186 -9.70105e-21)
(-0.0844869 0.0197407 -5.89049e-20)
(1.04846 0.025899 0)
(1.04956 0.0250901 0)
(1.00025 0.00360228 1.38129e-21)
(1.00031 0.00354748 -3.73691e-21)
(1.00021 0.00326831 -4.64341e-21)
(1.18358 0.42229 -3.56351e-20)
(1.23454 0.435429 -6.48562e-20)
(1.07778 0.015745 -4.84491e-21)
(1.07755 0.0173621 9.14184e-22)
(1.02018 0.0026012 -2.23704e-21)
(1.02025 0.00289136 -2.5096e-21)
(0.0374307 -0.0301243 0)
(0.0092223 -0.0260635 1.40102e-20)
(0.0235279 -0.0272286 -2.05055e-20)
(1.17006 0.123075 -7.97689e-21)
(1.16425 0.12521 4.3839e-20)
(1.16766 0.129411 -3.55126e-20)
(1.02109 0.0231547 -9.9864e-23)
(1.02146 0.0224395 -1.3947e-21)
(1.02051 0.0223639 1.15075e-21)
(0.972547 0.047795 0)
(0.970487 0.0489189 0)
(0.972857 0.0502899 1.52717e-21)
(1.21502 0.435205 -5.24855e-20)
(1.1336 0.425133 -3.59781e-20)
(0.374209 -0.00701912 4.77815e-20)
(0.403041 -0.0141802 -6.69468e-20)
(0.380119 -0.0416745 -5.53316e-20)
(1.11521 -0.0358991 0)
(1.11646 -0.036208 1.90126e-21)
(1.11559 -0.037303 1.17556e-20)
(1.12827 -0.00224624 -3.39764e-20)
(1.13066 -0.00233175 -4.86579e-20)
(1.1296 -0.000206458 -2.69796e-20)
(1.09334 -0.0446514 1.02309e-20)
(1.09342 -0.0450899 1.83899e-21)
(1.09285 -0.0453052 -3.10886e-21)
(0.594965 0.120703 -4.64748e-20)
(0.61487 0.106361 0)
(0.616627 0.132547 -4.45965e-20)
(1.01016 0.00533571 1.6177e-23)
(1.01059 0.00545608 0)
(1.0104 0.00580956 0)
(0.841528 -0.00927513 6.90018e-20)
(0.844805 -0.00179323 -5.30394e-21)
(0.849123 -0.00852585 1.12623e-20)
(0.679802 0.178425 4.99964e-20)
(0.697666 0.170123 4.89096e-20)
(1.05691 0.0213109 4.78424e-21)
(1.05808 0.0211342 3.25672e-21)
(1.05714 0.019937 9.84242e-22)
(1.01489 0.0118903 5.84696e-22)
(1.01495 0.0113616 -8.10704e-22)
(1.01546 0.0118901 1.8171e-22)
(0.531217 -0.0732028 4.1359e-20)
(0.519982 -0.0735659 -8.36254e-21)
(0.604774 -0.075209 4.10916e-20)
(0.818365 0.481341 -1.38579e-20)
(0.790628 0.499297 2.25511e-20)
(0.829151 0.506985 -1.37137e-21)
(1.13013 -0.0120713 5.95739e-21)
(1.13147 -0.0103299 6.59625e-21)
(1.01468 0.0444708 -6.77809e-22)
(1.01455 0.0461449 2.56932e-22)
(1.10449 0.119494 1.61023e-20)
(1.10099 0.122142 1.48478e-20)
(1.10557 0.124302 1.88329e-20)
(-0.148995 -0.00565371 5.58891e-20)
(-0.18231 -0.00514944 -4.85163e-20)
(-0.168162 -0.00552986 0)
(0.307726 -0.00402356 1.46226e-20)
(0.28344 -0.00122832 -1.98687e-20)
(1.0921 -0.037352 0)
(1.09156 -0.0378819 -2.40624e-20)
(1.09234 -0.038012 0)
(0.530831 -0.0743076 1.55769e-20)
(0.458357 -0.0728688 1.20254e-20)
(0.949226 0.0031058 -2.10547e-20)
(0.94777 0.00506569 -1.99464e-22)
(0.94716 0.00229914 -4.95717e-22)
(0.0884376 -0.142395 -1.6563e-19)
(0.099993 -0.112405 -4.76999e-20)
(0.0611903 -0.116426 -1.00078e-19)
(1.00023 0.0122561 -2.0045e-22)
(1.00027 0.0128506 5.67077e-21)
(0.99993 0.012512 7.43528e-21)
(0.180745 0.0860645 -9.41195e-21)
(0.210975 0.0675192 5.3927e-20)
(0.212189 0.102892 1.17698e-19)
(0.195632 -0.000748364 -2.59117e-21)
(0.202632 -0.00252728 0)
(0.217421 -0.00521589 -2.2358e-20)
(0.907569 0.00653863 2.82703e-21)
(0.904665 0.0096912 -1.2253e-20)
(0.909227 0.0102935 -1.566e-20)
(0.999999 0.000860176 2.47195e-21)
(0.999982 0.000843903 -3.35033e-21)
(1.13441 -0.0422571 -1.52034e-21)
(1.13325 -0.0409025 3.32487e-20)
(0.168042 -0.00305805 0)
(0.188954 -0.00612666 3.10678e-21)
(0.182248 -0.00574335 -8.30278e-21)
(0.762344 0.0985407 0)
(0.773879 0.10733 0)
(1.00452 0.000603226 1.33016e-23)
(1.00474 0.000878714 4.28065e-22)
(1.00483 0.000511666 1.75676e-22)
(0.972597 0.0451706 0)
(0.974789 0.0465606 0)
(1.03143 0.0268242 -2.64171e-21)
(1.0321 0.0276861 0)
(1.03107 0.0277066 0)
(1.00423 0.000617221 -6.83929e-22)
(1.00411 0.000301466 1.15122e-21)
(1.01697 0.00190548 1.65606e-22)
(1.01723 0.00175537 -2.77381e-22)
(1.01692 0.0016276 -1.85886e-21)
(0.346097 -0.00610268 7.67582e-20)
(0.285235 -0.0180927 -1.79051e-21)
(0.274814 -0.0157714 0)
(0.262728 -0.013183 1.31577e-20)
(0.950829 0.00079537 1.82359e-20)
(0.951743 0.00355852 0)
(1.03695 0.0253385 -2.53094e-21)
(1.0358 0.0255299 0)
(0.999963 0.000742901 -4.32482e-21)
(0.999994 0.000517163 -6.28183e-23)
(1.27833 -0.0134219 -2.4987e-20)
(1.27741 -0.0128775 -4.07054e-20)
(1.26783 -0.022427 7.82425e-21)
(0.745486 -0.0573639 1.87739e-20)
(0.688709 -0.0542777 -1.66274e-20)
(1.08861 0.124386 0)
(1.08429 0.121556 0)
(0.578366 0.131768 8.37726e-21)
(0.57882 0.1038 -3.58076e-20)
(0.995279 -0.00165571 1.83163e-20)
(0.994842 -0.00203941 0)
(0.906262 0.00256241 2.01796e-20)
(0.91046 0.00381913 5.11207e-21)
(1.09842 -0.0453466 -1.7445e-21)
(1.09805 -0.0451702 -1.52202e-20)
(1.09759 -0.0449802 -2.01027e-20)
(1.02322 0.0127696 0)
(1.02313 0.0133117 0)
(1.0225 0.0128012 0)
(0.962787 0.0173762 -2.17452e-21)
(0.9606 0.0180562 0)
(0.961422 0.0154646 6.79765e-21)
(0.663053 0.182154 2.54531e-20)
(0.64283 0.188332 2.27102e-20)
(0.661211 0.204974 -8.76605e-21)
(0.987629 -0.0027704 0)
(0.987099 -0.00340772 0)
(0.791043 -0.0817329 -1.13372e-20)
(0.713572 -0.0786667 -9.55151e-21)
(0.787042 -0.0818966 -2.28014e-20)
(0.808507 0.585622 2.2997e-22)
(0.815854 0.556371 9.30247e-21)
(0.781313 0.557834 9.03328e-21)
(0.967285 0.00731437 2.08734e-21)
(0.967932 0.00521351 2.63179e-22)
(1.02195 0.0107675 -5.21535e-22)
(1.02198 0.0112907 1.37001e-21)
(1.02137 0.0108082 -3.50876e-22)
(1.05135 0.093798 0)
(1.04788 0.0942036 -5.25734e-21)
(1.05026 0.0978775 -7.95984e-21)
(1.10681 -0.0155282 2.95348e-21)
(1.10794 -0.0168673 5.07624e-21)
(1.10806 -0.0146939 4.08149e-21)
(0.112019 -0.163529 4.45814e-20)
(0.072779 -0.172758 -4.08489e-20)
(1.10298 -0.0319593 -1.27499e-20)
(1.10401 -0.0323708 1.03716e-20)
(1.10295 -0.0329017 9.80461e-21)
(1.01779 0.173997 0)
(1.02086 0.169317 -1.41859e-21)
(1.02517 0.173344 2.17023e-21)
(1.07259 0.0611446 -7.56512e-21)
(1.07061 0.0629839 -8.97149e-21)
(1.06997 0.0601955 -1.88886e-20)
(-0.0185393 0.0541554 -1.89212e-20)
(-0.038452 0.0610316 7.30798e-20)
(-0.0717481 0.0531717 0)
(1.05014 0.130596 0)
(1.05295 0.12594 -4.86825e-21)
(1.12274 -0.0625424 6.96013e-21)
(1.13388 -0.060427 0)
(1.13344 -0.0588325 -6.69096e-21)
(-0.0950214 -0.00406309 -6.31648e-21)
(-0.0734585 -0.0082101 2.33452e-21)
(1.28627 -0.010128 -8.0318e-21)
(1.26731 -0.0102685 4.64581e-20)
(0.940631 0.0384843 3.09959e-21)
(0.937808 0.0400105 -2.77023e-21)
(0.937777 0.0364119 1.72064e-20)
(0.790139 -0.0365742 -6.95286e-22)
(0.784429 -0.0281164 4.70437e-20)
(0.778572 -0.0391726 3.93695e-20)
(0.999971 0.00197059 0)
(0.999993 0.00191046 0)
(0.999965 0.00163902 3.20868e-21)
(1.11365 -0.0360202 0)
(1.11462 -0.0346702 0)
(1.09281 -0.0367931 0)
(1.09185 -0.0365391 0)
(1.0931 -0.0442233 -1.09557e-20)
(1.09379 -0.0441218 0)
(1.05669 0.0224882 -1.62127e-21)
(1.05576 0.0213684 -6.76443e-21)
(1.11721 -0.00957209 -1.27539e-21)
(1.11594 -0.0108564 2.87266e-20)
(1.11798 -0.0115044 6.49581e-20)
(1.02961 0.0202277 2.01138e-21)
(1.03034 0.0208392 -4.56875e-22)
(1.02936 0.0210405 -5.14393e-21)
(0.838472 -0.0155654 -3.42739e-20)
(0.833835 -0.00849438 3.40367e-21)
(1.04225 0.168433 -3.6936e-21)
(1.0353 0.167831 -9.2793e-21)
(1.04041 0.162005 -4.02575e-21)
(-0.290557 0.00580786 -7.25366e-20)
(-0.30851 0.00677315 3.25598e-20)
(-0.276858 0.00570334 -4.57159e-20)
(1.09056 -0.0398413 1.86052e-21)
(1.09128 -0.0403621 1.84041e-20)
(1.09131 -0.03945 2.28352e-20)
(1.01038 0.0525159 1.11341e-21)
(1.01025 0.0542362 2.08511e-22)
(1.00859 0.0529886 2.08375e-23)
(0.884182 -0.0789579 -6.06815e-22)
(0.877061 -0.0805198 0)
(0.944908 -0.0793148 0)
(1.00992 0.191301 -1.6468e-22)
(1.00702 0.196092 1.46708e-22)
(1.0146 0.196023 4.28839e-22)
(0.29509 -0.0181323 2.48817e-22)
(0.311875 -0.0204813 -2.10515e-21)
(0.149788 0.0690913 -6.7403e-20)
(0.150199 0.106665 1.24947e-20)
(0.804626 -0.0822272 -1.02929e-20)
(0.87065 -0.0830656 0)
(1.01059 0.0246731 4.86657e-22)
(1.01121 0.0253512 0)
(1.01038 0.0254634 0)
(1.17551 0.121707 1.50703e-20)
(1.17193 0.117614 -1.69923e-20)
(1.11068 0.10847 0)
(1.10929 0.104044 0)
(1.02389 0.0126917 -1.12158e-21)
(1.02322 0.0122008 0)
(1.00022 0.00367502 6.66441e-21)
(1.00029 0.00398169 2.41538e-21)
(0.934083 0.109968 1.24964e-20)
(0.930331 0.105989 6.00185e-21)
(0.936324 0.1056 -7.17659e-21)
(0.616606 -0.0383768 0)
(0.613308 -0.0384257 1.51472e-20)
(1.24376 0.130696 4.56526e-20)
(1.25095 0.1288 4.93287e-20)
(1.25175 0.135765 -7.12113e-20)
(0.00105873 0.054065 6.70381e-21)
(0.0748746 0.0699904 2.60807e-21)
(1.10754 0.0398674 -4.27906e-21)
(1.10717 0.0422534 1.82198e-20)
(1.10965 0.0410775 1.53853e-20)
(1.09663 -0.0409858 -1.0632e-20)
(1.09619 -0.0413548 1.23935e-20)
(1.09676 -0.0414951 -2.41388e-20)
(1.09987 -0.0492297 3.45855e-20)
(1.10116 -0.0494258 5.22115e-22)
(1.10225 -0.0504157 2.96705e-21)
(-0.00282379 0.0252687 7.34988e-21)
(-0.0173304 0.0243817 2.67217e-20)
(1.23748 0.173656 5.23587e-20)
(1.23791 0.167154 -2.96853e-20)
(1.24541 0.171118 3.87293e-20)
(0.999412 0.00679175 -5.25058e-21)
(0.999526 0.00644391 -3.07365e-21)
(0.999364 0.0062968 -4.92724e-21)
(0.567549 0.0422329 0)
(0.572825 0.0621157 1.74055e-20)
(0.548349 0.0562286 0)
(0.797078 0.0235054 3.50822e-21)
(0.796071 0.0346117 -3.43928e-21)
(1.00883 0.000362233 0)
(1.00848 0.00035774 -8.26705e-23)
(1.02066 0.0237494 -2.93751e-22)
(1.02169 0.0239147 -1.32128e-21)
(0.865643 0.448423 1.06863e-20)
(0.860356 0.421625 -8.7625e-21)
(0.886969 0.430165 3.13968e-21)
(1.22206 0.473141 5.15474e-20)
(1.22728 0.454447 3.82629e-21)
(1.16832 0.443714 8.01261e-20)
(1.07142 0.00114147 0)
(1.07246 0.000477681 -1.81979e-21)
(1.07268 0.0016869 0)
(1.00279 0.000819375 -3.29202e-22)
(1.00277 0.000509963 -4.46002e-22)
(1.1115 -0.0114764 6.1321e-21)
(1.11046 -0.00997562 6.66065e-21)
(1.11272 -0.0100275 -5.9142e-21)
(1.1058 -0.0167343 -9.53414e-21)
(1.10534 -0.0147163 -3.12069e-20)
(-0.0974281 -0.0140095 -2.55317e-20)
(-0.105933 -0.0132588 3.97745e-20)
(1.22701 -0.0528624 -1.22272e-20)
(1.21986 -0.0544605 1.62575e-21)
(1.20894 -0.0504693 -2.07643e-20)
(0.991593 0.00909575 3.66478e-21)
(0.991135 0.00884048 3.58449e-21)
(0.992656 0.0273973 1.94283e-22)
(0.993592 0.028347 -9.51041e-21)
(1.12611 -0.00215865 8.08027e-22)
(1.12686 -0.00420315 2.56345e-20)
(0.598666 -0.0416721 -4.72481e-21)
(0.652236 -0.0430295 4.9869e-21)
(0.636819 -0.0430149 -4.77214e-21)
(0.964659 0.0165135 6.1256e-21)
(0.964271 0.0188022 -1.25608e-20)
(0.524087 -0.0394477 0)
(0.515568 -0.0399875 -1.27789e-20)
(0.565923 -0.0415828 1.34477e-20)
(-0.154048 -0.00616808 -1.1799e-20)
(-0.129051 -0.00902083 1.3526e-20)
(-0.14647 -0.00604904 4.44441e-20)
(1.09654 -0.0404322 1.31443e-21)
(1.09721 -0.040747 2.38996e-20)
(1.01444 0.0117969 -5.42319e-22)
(1.01484 0.0122992 8.02222e-22)
(0.493618 0.376471 6.02848e-20)
(0.513345 0.411196 1.18206e-19)
(0.460554 0.412281 9.79257e-21)
(1.11951 -0.00162916 -1.85368e-20)
(1.12171 -0.0019013 -1.77419e-20)
(1.1207 0.000176107 2.25994e-21)
(-0.276325 -0.00102286 -2.26367e-20)
(-0.243768 -0.00429201 7.47535e-20)
(-0.26175 -0.000632606 -4.89594e-20)
(1.00184 0.0164055 8.82592e-22)
(1.00218 0.0168096 -1.81539e-22)
(1.0018 0.0171201 -3.83849e-21)
(0.816952 0.0881694 0)
(0.769648 0.0857323 -4.31507e-20)
(1.00992 0.0238833 -4.20046e-22)
(1.01074 0.0238714 -1.41026e-21)
(1.17946 0.0639217 -2.74322e-20)
(1.17572 0.061847 -6.05965e-22)
(1.17579 0.0660614 1.48414e-20)
(1.00765 0.00110131 -9.88135e-23)
(1.00745 0.000760024 4.09817e-22)
(0.161624 -0.0295802 7.57592e-22)
(0.136552 -0.0272167 -2.76675e-20)
(0.155726 -0.0278102 -9.23154e-21)
(0.510442 -0.073361 -3.96036e-20)
(0.499538 -0.0729222 -2.70055e-20)
(0.581553 -0.0741627 -1.83454e-22)
(0.991468 0.0895957 -3.3818e-21)
(0.994997 0.0884925 -7.57571e-21)
(1.16806 0.46615 -9.44888e-20)
(1.20925 0.476802 -5.3463e-20)
(1.17802 0.447585 -8.90997e-21)
(1.07525 0.061784 4.55192e-21)
(1.074 0.0591416 6.45484e-21)
(1.01379 0.0116361 -7.70754e-22)
(1.01393 0.0111363 -5.57573e-22)
(1.10145 -0.044733 -1.82054e-20)
(1.10871 -0.0450634 -2.33444e-20)
(1.08982 -0.0402584 -1.7726e-20)
(1.08986 -0.0393323 -1.83121e-20)
(1.10555 0.038692 -1.22439e-20)
(1.10772 0.0375546 -3.50877e-21)
(0.718911 -0.0518662 1.57571e-20)
(0.672741 -0.0512933 6.7355e-21)
(0.739046 -0.0509874 -1.10673e-20)
(-0.163586 -0.0027228 1.05185e-20)
(-0.183994 -0.00130132 -2.68653e-20)
(1.01121 0.00297008 -3.8511e-22)
(1.01158 0.00302982 0)
(1.01139 0.00261701 -4.92064e-22)
(1.05927 0.0859323 8.2562e-21)
(1.05856 0.0894949 8.61647e-21)
(0.0561098 -0.0343481 0)
(0.0704318 -0.0352947 0)
(-0.110861 0.0237788 2.18883e-20)
(-0.140242 0.0215014 -5.21272e-20)
(-0.114661 0.0242699 -6.97265e-20)
(0.999954 0.00193272 -2.33502e-22)
(0.999931 0.00224624 0)
(1.00534 0.00820001 0)
(1.00571 0.00843166 0)
(1.00548 0.00861475 5.37268e-23)
(0.326468 -0.001678 -1.94908e-20)
(0.345048 -0.00437781 -1.36721e-20)
(1.11986 -0.0383753 -3.04819e-20)
(1.11847 -0.0382333 -8.97451e-21)
(1.11897 -0.0397853 3.22019e-20)
(1.00005 0.000120924 9.95781e-22)
(1.00002 9.31696e-05 2.19262e-21)
(1.00005 0.000151981 -1.51397e-22)
(1.09502 -0.0445631 0)
(1.09477 -0.0445283 1.97528e-20)
(1.0967 -0.0442297 1.63526e-20)
(1.1633 0.00891366 -1.0001e-20)
(1.16175 0.00586289 1.84627e-20)
(1.15952 0.00916318 -2.18003e-20)
(0.799428 -0.0363658 -1.9224e-20)
(0.794988 -0.0461192 -1.18062e-19)
(1.08505 0.103301 4.93555e-21)
(1.08795 0.106703 1.69609e-20)
(1.08855 0.101861 -3.09817e-20)
(0.999986 0.00223433 0)
(1.00001 0.00190506 9.53849e-22)
(0.976524 0.20219 -3.04355e-21)
(0.977965 0.19278 0)
(0.968442 0.196811 0)
(-0.118678 -0.00662288 -5.65787e-21)
(-0.114978 -0.00554561 0)
(-0.147611 -0.00110194 3.70912e-20)
(1.03872 0.00485623 -2.94945e-21)
(1.03897 0.00429025 -4.60758e-21)
(1.03966 0.00479223 -9.93968e-22)
(1.19154 0.136949 4.53004e-20)
(1.18608 0.140272 -6.82523e-22)
(1.18663 0.132653 -3.16293e-20)
(0.568197 0.149203 4.53329e-20)
(0.583396 0.169947 4.46338e-20)
(0.55363 0.175023 -5.32016e-20)
(1.03074 0.0259299 -9.11399e-22)
(1.03175 0.0258323 -2.01695e-21)
(0.993979 0.024702 -5.43157e-22)
(0.993011 0.0249774 -6.34505e-21)
(1.09962 -0.027787 -3.2684e-20)
(1.10079 -0.0283993 1.23755e-20)
(1.09956 -0.0289423 -1.93189e-20)
(0.360376 -0.00916274 -2.13626e-20)
(0.344774 -0.00690515 -5.4636e-22)
(0.343073 -0.00691079 -6.86478e-21)
(1.10191 -0.0317488 -2.01544e-20)
(1.10299 -0.0309935 -7.07366e-21)
(0.936888 0.114346 9.3979e-21)
(0.931389 0.115351 -7.01033e-21)
(0.974483 0.0905072 -7.42341e-21)
(0.971865 0.0941211 -5.84614e-21)
(1.00005 0.000262898 0)
(1.00005 0.000228583 -1.46431e-21)
(1.00002 0.000155423 0)
(0.147447 -0.000518973 8.55006e-21)
(0.15428 -0.000755341 -1.59775e-20)
(0.676101 -0.045974 -1.72121e-21)
(0.765122 -0.0501816 2.29926e-21)
(0.758465 -0.0467387 -2.17986e-20)
(1.09644 -0.0460815 1.84053e-23)
(1.09878 -0.0456802 2.30969e-22)
(1.10423 -0.0461135 -1.31917e-20)
(1.01328 0.0115349 5.34762e-22)
(1.01371 0.0120792 6.68196e-22)
(-0.151077 -0.0116551 2.41758e-20)
(-0.123219 -0.0159207 -5.30222e-21)
(-0.135789 -0.0137965 2.65708e-20)
(0.0616191 -0.00593262 -1.71996e-21)
(0.0664074 -0.00458815 -1.08209e-20)
(0.0417861 -0.00180781 -4.75607e-21)
(1.09718 -0.0626358 5.86943e-21)
(1.10606 -0.0610483 -2.61275e-21)
(0.536687 -0.031168 3.56399e-21)
(0.508077 -0.0308858 6.75756e-22)
(1.08617 -0.0406883 -3.94166e-21)
(1.08546 -0.0412962 6.35902e-21)
(0.999952 0.00256252 4.47537e-22)
(1.0058 0.000673509 -6.35225e-23)
(1.00549 0.000720735 9.6848e-23)
(1.00586 0.00106022 -6.02369e-23)
(1.12767 0.0145283 9.62658e-21)
(1.12523 0.0145345 1.0683e-20)
(1.12674 0.012302 -1.44388e-21)
(0.087533 -0.0233143 -1.19278e-20)
(0.0694516 -0.0192823 -2.31905e-20)
(0.0630731 -0.0194847 1.65608e-20)
(1.14452 -0.0246883 -9.61154e-21)
(1.14666 -0.0234749 2.33072e-20)
(1.1464 -0.0266395 0)
(1.06343 0.0421657 4.74971e-21)
(1.0652 0.0410419 -2.4826e-21)
(1.23177 -0.0518668 -2.35134e-20)
(1.2262 -0.0584301 -1.16173e-20)
(1.07714 -0.0280621 5.91571e-21)
(1.07631 -0.0275322 1.38492e-20)
(1.01692 0.00106671 4.48657e-23)
(1.01688 0.00132566 -3.38685e-22)
(1.01714 0.00120161 9.02009e-22)
(1.02587 0.0310021 3.08902e-20)
(1.01877 0.0250354 5.7955e-20)
(0.924006 0.0128489 8.63804e-20)
(1.00171 0.00436374 0)
(1.00172 0.00417442 0)
(1.00154 0.00403717 0)
(0.882861 -0.0784527 -1.37618e-20)
(0.815388 -0.0788389 2.36746e-22)
(1.07028 0.00207837 1.28656e-22)
(1.07 0.000844401 6.43457e-21)
(1.00006 9.36777e-05 1.39855e-21)
(1.00009 0.000146709 -1.77948e-21)
(0.997444 0.103053 1.42569e-21)
(0.996217 0.107562 1.03997e-21)
(0.993537 0.103254 2.52166e-21)
(1.01595 0.179584 8.46727e-22)
(1.01163 0.174348 -8.72091e-23)
(0.77913 -0.0184737 0)
(0.789336 -0.0178196 4.66035e-21)
(1.09932 -0.0442082 -5.9429e-21)
(1.09547 -0.0443797 -1.78523e-20)
(0.994632 0.136344 2.63041e-21)
(0.994836 0.14229 -2.58679e-21)
(0.98903 0.138293 2.00688e-21)
(1.04123 0.0102487 1.01203e-20)
(1.04178 0.0110261 2.57694e-21)
(1.04076 0.0107985 2.66126e-21)
(1.22971 0.00496328 -1.58473e-20)
(1.2326 0.00932429 5.25513e-20)
(1.24133 0.00539595 5.12963e-20)
(0.758146 -0.0520109 1.60573e-20)
(0.694683 -0.0535659 2.2173e-21)
(0.597807 -0.0511056 8.01734e-21)
(0.602263 -0.0490202 -5.40645e-20)
(1.00143 0.0161592 4.52622e-21)
(1.0018 0.0158653 5.03946e-22)
(1.08904 -0.0674842 5.21137e-21)
(1.11724 -0.0669858 -1.36942e-20)
(1.08258 -0.0686966 4.42791e-21)
(0.998502 -0.000957092 0)
(0.998395 -0.000717391 0)
(0.998227 -0.0010138 1.06024e-23)
(1.0409 0.00948614 5.53122e-21)
(1.04191 0.00963403 1.50633e-21)
(1.00019 0.0116153 -3.9515e-21)
(1.00052 0.0119515 -6.87666e-21)
(0.838429 0.615255 6.31196e-21)
(0.791593 0.621751 -4.31786e-21)
(1.00141 0.000832509 0)
(1.00153 0.000727851 0)
(1.00131 0.000651129 2.66469e-22)
(1.18297 0.0657899 2.77441e-20)
(1.18291 0.0616542 -2.12501e-20)
(1.08154 0.105613 -8.95278e-22)
(1.0818 0.100836 7.86928e-21)
(1.02882 0.0195425 1.20027e-21)
(1.0298 0.0193896 4.85887e-21)
(1.11235 -0.0130358 -1.19776e-20)
(1.11016 -0.0123885 -1.83997e-22)
(1.033 0.0554139 -1.69625e-21)
(1.03393 0.0537962 8.22305e-21)
(1.03518 0.0555498 5.33624e-21)
(0.11875 0.0479963 -5.25537e-21)
(0.104938 0.0305243 -5.98636e-20)
(0.103352 0.0647681 5.74995e-20)
(1.01347 0.186108 -4.33912e-22)
(1.0063 0.186443 -1.39367e-21)
(1.16103 0.119615 5.03496e-20)
(1.15818 0.125681 3.8518e-20)
(1.02787 0.0139675 0)
(1.02849 0.0145906 0)
(1.02858 0.0137936 1.49264e-21)
(0.994897 0.0244097 6.10198e-21)
(0.994112 0.0236135 6.1094e-21)
(-0.170614 -0.00275816 0)
(-0.194753 -0.00235236 2.8165e-20)
(-0.200208 -0.00221124 0)
(0.151569 -0.00353301 -1.17962e-20)
(0.143926 -0.00286021 9.76051e-22)
(0.166939 -0.00658458 -1.14057e-20)
(1.00022 0.013454 0)
(1.00056 0.0131902 0)
(1.00644 0.000618297 -2.48758e-22)
(1.00684 0.000836412 -6.75725e-22)
(1.00647 0.00110185 -1.88845e-22)
(1.01695 0.0308405 0)
(1.13313 0.0389696 0)
(1.0136 0.0235061 5.15496e-22)
(1.0138 0.0244374 -3.15884e-22)
(1.01458 0.0240384 -9.58481e-22)
(-0.0287933 -0.0259332 -4.32681e-20)
(-0.0463137 -0.022729 -1.10212e-20)
(1.02719 0.0135213 0)
(1.02714 0.0142839 1.59619e-21)
(0.166542 -0.03095 6.24595e-21)
(0.186716 -0.0322773 1.33113e-20)
(1.04566 -0.00211201 -2.04869e-21)
(1.04524 -0.00272257 5.42956e-21)
(1.04608 -0.00268296 -4.38422e-21)
(1.204 0.309925 7.89881e-21)
(1.19212 0.309202 -2.45107e-20)
(1.19712 0.321571 6.68495e-21)
(1.09395 0.00603311 -4.85045e-20)
(1.09389 0.00773939 5.25713e-21)
(1.09573 0.00686064 -9.45974e-21)
(0.0980199 0.29738 8.15271e-21)
(0.096336 0.25717 -6.67761e-20)
(0.131534 0.274769 -1.35149e-19)
(0.943755 0.0397258 -4.6641e-21)
(0.943405 0.0363431 5.92891e-21)
(1.27723 -0.00432747 -3.56767e-20)
(1.29188 -0.00370719 -2.72484e-20)
(0.516512 0.283572 6.3457e-21)
(0.489634 0.29398 1.24109e-20)
(0.517615 0.316166 -1.28892e-20)
(1.00133 0.103359 7.94618e-22)
(0.999038 0.10006 -8.3732e-22)
(1.12071 -0.0373994 -6.61487e-21)
(1.12136 -0.0390398 -3.6724e-20)
(0.94965 0.494721 1.31704e-21)
(0.96678 0.512284 -3.93502e-22)
(0.937906 0.517738 1.07368e-21)
(0.994703 0.0403918 -4.62345e-21)
(0.993275 0.039816 -1.80055e-21)
(0.993594 0.0416422 -4.2269e-21)
(0.241468 -0.0197272 -7.5426e-21)
(0.21601 -0.0163848 0)
(0.225864 -0.0169564 1.04209e-20)
(0.582684 0.0311885 0)
(0.562018 0.0220107 0)
(0.0781808 -0.00862306 1.61287e-20)
(0.0595984 -0.00611967 1.61946e-20)
(0.923026 0.0125221 1.49519e-20)
(0.919433 0.0136649 1.74189e-21)
(0.922143 0.0164892 -5.31329e-22)
(0.236049 -0.00123899 -6.01749e-21)
(0.210355 0.00125936 -5.18388e-21)
(0.238377 -0.00068124 4.73126e-21)
(1.06229 0.0850784 -1.42056e-21)
(1.06456 0.088311 -8.42639e-21)
(1.06554 0.0848797 -4.06745e-23)
(-0.0840707 0.00764199 -1.0352e-19)
(-0.0516096 0.00819601 -1.82368e-20)
(-0.0399966 0.0069611 3.34754e-20)
(0.522848 0.252556 -6.95825e-21)
(0.548177 0.275664 -8.88201e-21)
(0.924979 0.338951 -6.30746e-22)
(0.90865 0.336685 8.41219e-21)
(0.917717 0.353945 -2.24868e-21)
(0.942809 0.344253 -1.13272e-21)
(0.934481 0.326172 -4.80219e-21)
(0.565599 -0.0466599 1.15541e-20)
(0.53909 -0.0473505 0)
(0.999724 0.00184212 9.43142e-21)
(0.999647 0.0020299 1.48217e-21)
(0.99968 0.00209419 5.70298e-21)
(1.04893 0.167357 6.88487e-21)
(1.04604 0.174082 -8.03346e-22)
(-0.110629 -0.00745333 -1.25107e-20)
(-0.125509 -0.00632996 6.06337e-20)
(0.982177 0.0259416 -8.33947e-23)
(0.981208 0.0267624 0)
(0.980952 0.0250926 9.21001e-21)
(0.999265 0.0696544 5.35318e-23)
(1.00009 0.0673695 -7.06924e-21)
(0.997415 0.0677445 -4.31797e-21)
(0.0826847 -0.00530329 0)
(0.0896202 -0.00515331 0)
(0.842873 0.467015 -1.4446e-20)
(0.874897 0.4747 6.97117e-21)
(1.01404 0.0495122 -4.03632e-22)
(1.01394 0.0510525 -4.87283e-22)
(1.01575 0.0506143 1.13956e-21)
(1.10056 -0.0491569 2.83647e-20)
(1.0999 -0.0484899 -1.43436e-20)
(0.681433 0.539871 2.13029e-20)
(0.707179 0.511599 -1.1461e-20)
(1.00831 0.00469766 3.06271e-22)
(1.0087 0.00494755 -9.961e-23)
(1.00864 0.00449834 -2.613e-22)
(0.188876 -0.000908818 6.16546e-22)
(0.16681 0.00160744 -5.77501e-21)
(1.10067 -0.0464224 6.84951e-21)
(1.10784 -0.0461679 1.82243e-21)
(1.09819 -0.0461737 -1.40457e-20)
(1.00169 0.00454837 0)
(1.00188 0.00470475 -2.30884e-21)
(1.00875 0.0120921 0)
(1.00829 0.0117373 -5.73786e-22)
(1.00843 0.0123121 -7.91481e-22)
(0.998505 -0.00123845 0)
(0.998725 -0.000924779 0)