/*--------------------------------*- C++ -*----------------------------------*\
| =========                 |                                                 |
| \\      /  F ield         | OpenFOAM: The Open Source CFD Toolbox           |
|  \\    /   O peration     | Version:  v2012                                 |
|   \\  /    A nd           | Website:  www.openfoam.com                      |
|    \\/     M anipulation  |                                                 |
\*---------------------------------------------------------------------------*/
FoamFile
{
    version     2.0;
    format      ascii;
    class       volScalarField;
    location    "750";
    object      nut;
}
// * * * * * * * * * * * * * * * * * * * * * * * * * * * * * * * * * * * * * //

dimensions      [0 2 -1 0 0 0 0];


internalField   nonuniform List<scalar> 
13851
(
0.00079299
0.00155169
0.00164973
0.00410419
0.00672182
0.00123307
0.00269331
0.00675932
0.0142891
0.00672003
0.000366037
0.00672359
0.00297804
0.00535368
0.00113463
0.0014364
0.00224507
0.00396136
0.000694076
0.000905736
0.00099092
0.000752632
0.00137271
0.00672545
0.00407225
0.00171426
0.000176138
0.0033861
0.0137288
0.00674323
0.00992668
0.00314877
0.000951461
0.0156116
0.000488075
0.0136219
0.00672578
0.00291025
0.0144117
0.00284017
0.0155332
0.0139486
0.000190549
0.000190947
0.0142273
0.00555023
0.00674566
0.00134233
0.00138352
0.00279528
0.0032199
0.00282368
0.00143819
0.00188339
0.00508946
0.00268821
0.000814597
0.0157739
0.000247132
0.00477476
0.00672358
0.000354482
0.00672487
0.00131738
5.23215e-05
4.36158e-05
0.00284544
7.73607e-05
0.00277985
0.00630294
0.00955374
0.000908569
0.00364456
0.0034866
0.0016782
0.00104629
0.00363104
0.0067374
0.00282308
0.00673122
0.00244072
0.000563158
0.000484236
0.00592494
0.00520049
0.0100153
0.000791536
0.00312084
0.00625724
0.00984656
0.001994
0.00277081
0.00029009
0.00925
0.0142236
7.0253e-05
0.0060422
0.0014032
0.00348484
0.00020264
0.001327
0.000158279
0.000135887
0.00317104
0.00605215
0.000700472
0.00526757
0.0100228
0.00283048
0.00424127
0.000454603
0.00581498
0.000437371
0.000480245
0.000949967
0.00198069
0.00672934
0.0067497
0.00344903
0.0067914
0.000104754
0.00573454
0.00233785
0.0124101
0.000607993
5.0095e-05
0.0055189
0.000294841
0.015664
0.000973609
0.000755046
0.000760282
0.00133169
0.0156559
0.00041552
0.0141206
8.86297e-05
0.00984947
0.000210547
0.00114198
0.000486614
0.00145441
0.00604493
5.86204e-05
0.00528354
0.00122673
0.00673634
0.00933124
0.0118673
0.000282952
0.00125372
0.00041779
0.000481387
0.000618677
0.00191481
0.00415902
0.00672335
0.014102
0.00114812
0.0025007
0.00672498
0.0137062
0.000795304
0.00123964
0.00564782
0.0148212
0.0149048
0.00465809
0.000484625
0.0101482
0.0067237
0.00672738
0.000665834
0.00672229
0.0146815
0.000310491
0.00113847
0.00672855
0.00173713
0.00123365
0.000731057
9.98642e-05
0.000524508
0.0011223
0.000203642
0.012175
0.000950245
0.000330536
0.00231847
0.00674684
0.00303356
0.00120036
0.00322376
0.00115141
0.0011202
0.00142045
0.00083122
0.00353517
0.00279218
8.83348e-05
0.00047879
0.0151219
0.0157716
0.00129603
5.87666e-05
0.0145247
0.000922372
0.00144256
0.0144808
0.00115004
0.0014442
0.00316523
0.00050306
0.00672522
0.000532676
0.000940936
0.00296526
0.000950605
0.00302391
3.31455e-05
0.00672754
0.000852967
0.00405467
0.0144117
0.000364019
0.00136725
0.00672573
6.63593e-05
0.00672559
0.000479703
0.00461607
0.000364027
0.00119511
0.0067241
0.0156043
0.00674463
0.000894473
0.0156673
0.000197746
0.00672522
0.000212843
0.00560383
0.0141088
0.00145409
0.00100403
4.97084e-05
0.00101812
0.0016799
8.46123e-05
0.000452221
0.0036814
0.00061925
0.00673581
0.00135254
0.00139208
0.0134922
0.00533977
0.00674519
5.1313e-05
0.00645106
0.000998894
0.000756477
0.00145653
0.00085128
0.000534861
0.00446265
0.00014642
0.00122647
0.00205686
0.00672482
0.00317087
0.000363592
0.0152098
0.0017812
0.00101882
0.00526606
0.000705241
0.000660699
0.000924494
0.00086783
0.0152183
0.00324266
0.00120991
0.00134807
0.00282958
0.00559859
0.00672319
0.000839488
0.000363642
0.00674878
0.00672515
0.00672599
0.00672153
0.00111584
0.0067232
0.0145673
0.00101806
0.00392891
0.0134831
0.0115596
0.0023966
0.000837964
0.00317547
0.0013014
0.00212831
0.000973664
0.00496273
0.0107395
0.000723402
0.00672105
0.0106154
0.00672369
0.00062339
0.00482578
0.00179991
0.00248848
0.00169957
0.00039943
0.0110804
0.000415439
0.000134991
0.0147058
0.0141226
0.00278174
0.00260506
0.00451443
0.000361952
2.73737e-05
2.8406e-05
0.000756308
0.000703993
0.000379937
0.00369294
0.00011514
0.00672084
0.00673274
0.00079328
0.0104781
2.81727e-05
0.00557715
0.0140472
0.000363654
0.000716712
0.00247755
0.00340647
0.000775356
0.00141562
0.00101592
0.00128447
0.0132421
0.00214873
0.000622222
0.0013013
0.000932945
0.000347821
0.00612157
0.00349021
0.000280948
0.000206507
0.000659735
0.000576538
0.0132934
0.000997515
0.0154821
0.000890062
0.00676302
0.00228943
0.000881374
0.00495126
0.000827966
0.00177267
0.000253154
0.0021136
0.000292955
0.00474776
0.00213904
0.000185046
0.000438588
0.0010281
0.00568566
0.000940564
0.015849
0.00138305
0.00190307
0.000638338
0.000241828
0.00388805
0.00132461
0.000333866
0.00170382
0.00518262
0.000996218
0.0119684
0.00370512
0.00114045
0.00212427
0.00141678
0.00027453
0.00151595
0.00926315
0.000984976
0.00158573
7.91365e-05
0.000642339
0.000779724
0.00380495
0.00355749
0.000250673
0.00456822
0.000340363
0.0008255
0.00164962
0.00555609
0.000222026
0.0119973
0.00264466
0.00128648
0.000567416
0.000398337
0.00205276
0.00674335
0.002571
0.000327333
0.00128152
0.000398995
0.00415422
0.0040611
0.00672259
0.00360427
0.000323689
0.00609617
0.00163291
0.00114093
0.00672702
0.0113078
0.000643561
0.000958669
0.00191188
0.00198258
0.00240076
0.00136751
0.00361945
0.00245493
0.00883538
0.0118722
0.000774212
0.00107594
0.00672465
0.00672303
0.00135971
0.00067876
0.00172605
0.00464363
0.00196319
0.000109509
0.00205308
0.00999155
0.00672338
0.00183945
0.0142378
0.000262331
0.00673016
0.0067239
0.00186998
0.00338106
0.000260155
0.0109393
0.00106925
1.49306e-05
0.00143136
0.00672456
0.0154317
0.000237505
0.000226392
0.00339257
0.0135984
0.000239592
0.000174437
0.0029411
0.00072658
0.000297691
0.00149057
0.0149433
0.000327109
0.00174799
0.000876039
0.00041911
0.00450871
0.0135301
0.00173251
0.000899207
0.00090131
0.00105259
0.00024843
0.000660871
0.00672158
0.00202734
0.015219
0.00769292
0.00123488
0.00943269
0.00698663
0.000651886
0.000411426
0.00672473
0.000370591
0.00673208
0.00598575
0.000333464
0.0150606
0.00174022
0.00142777
0.000136915
0.00067231
0.00605306
0.00875801
0.00670222
0.0157522
0.000262244
0.00673234
0.00223333
0.000368125
0.00235206
0.00674749
0.00558057
0.00101418
0.00678881
0.0129067
0.000712608
0.000816626
0.00100118
0.00918839
0.00480836
0.00679527
0.000654252
0.00275761
0.00518111
0.0073204
0.015837
0.000801578
0.00168002
0.00649439
0.0015083
0.0157748
0.0142893
0.00608234
0.00387673
0.00536317
0.00250366
0.000786993
0.00229366
0.00674416
0.00098162
0.0131667
0.000288089
0.0127522
0.0017998
0.0064322
0.0146745
0.00672453
0.000345463
0.00177512
0.00164337
0.00101306
0.01334
0.00474092
0.00129799
0.00237014
0.00262213
0.000548002
0.0140122
0.00775995
0.00259184
0.00474397
0.000134484
0.0129842
0.00104242
0.00141014
0.000437608
0.00211519
0.00136652
0.00445404
0.00910514
9.50454e-05
0.0156554
0.000918963
0.0135028
0.00212304
0.000149286
0.00154451
0.00672422
0.000584111
0.0109555
0.000482224
0.00110667
0.00317765
1.4313e-05
0.000217003
0.00327518
0.00398351
0.00672298
0.000473682
0.000632057
0.00672333
0.0147289
0.00672289
0.00111569
0.000856828
0.00164836
0.00309808
0.00531197
0.000321126
0.0036806
0.000750944
0.0138184
0.000758307
0.00672779
0.00677912
0.00065998
0.00199599
0.000475772
0.00169088
0.000248839
0.00014158
0.00672442
0.00375031
0.00672552
0.0019118
0.0031611
0.0143653
0.000363949
0.00268999
0.000128276
0.000187561
0.0135835
0.00526546
0.00936166
0.000377701
0.0009606
0.00164274
0.000357479
0.00676718
0.000434807
0.00374049
0.0134726
0.00373272
0.00251491
7.33365e-05
0.0105616
0.00672571
0.00672556
0.00153823
0.00257234
0.00741328
0.00201094
0.00058732
0.00209558
0.00496876
4.03917e-06
0.000566116
0.00022839
0.00673697
0.00112306
0.000162698
0.00163722
0.00134595
0.00117752
0.000223826
0.000467473
0.00130469
0.000921804
0.000941866
0.000112728
6.86185e-05
0.00070326
0.0110464
0.00459616
0.00142953
0.00893165
0.000286018
0.00796699
0.000839114
0.00429768
0.00130431
0.000590883
0.000753822
0.00673031
0.00672914
0.00167239
0.00375315
0.00183772
0.0153386
0.00672822
0.0083692
7.60534e-05
0.00282207
0.000419223
0.00108428
0.00173084
0.0040066
0.000224124
0.000305677
0.000296541
0.00218042
0.000401331
0.00161443
0.0009298
0.000816343
0.000462319
0.00413957
0.00672539
0.000928918
0.00527317
0.0140921
0.00672123
4.30853e-05
0.0151854
0.000382914
0.0145377
0.00434591
0.0008867
0.000236257
0.000383058
0.00672382
0.00335351
0.00673537
0.00601163
0.00672238
0.000561443
0.000430035
0.000146999
0.00234554
0.00121276
0.0142379
0.00672633
0.00483168
0.000499292
0.00672604
0.00672384
0.0147194
0.00118899
0.00699867
0.0104962
0.00103331
0.000797076
0.00678699
0.0157314
0.000847794
0.00176722
0.000247871
0.00672388
0.00142086
0.00526054
0.00154625
0.00427407
0.000828942
0.000809875
0.000344811
0.0137893
0.000333804
0.000578073
0.0137941
0.00673381
0.0137447
0.00672403
0.00224465
0.00261551
0.00109972
0.000997709
0.000323423
0.000762605
0.00672474
0.00672632
0.000567498
0.00210699
0.00672492
0.00191485
0.000276274
0.00672142
0.00017162
0.000209851
0.00608755
0.000338235
0.00874735
0.000204225
0.00672374
0.000279106
0.00672843
0.00129307
0.0096512
0.0132097
0.0106954
0.0136771
0.00241319
0.0026392
0.000130886
0.00125949
0.00571284
0.00105706
0.000873079
0.00625165
0.00155311
0.00112998
0.00444502
0.00674381
0.000463058
0.000766316
0.00189811
0.00672528
0.000957001
0.000401823
0.0155057
0.00195356
0.00672334
0.00301353
0.00145672
0.000938161
0.00672594
0.0152103
0.00675586
0.00394723
0.00672626
0.000199111
0.00103391
0.000114506
0.000847167
0.00367869
0.00155138
0.00672129
0.000244111
0.00140824
0.00764867
0.00250006
0.00760868
0.0154581
0.000833815
0.0067207
0.00268906
0.00979812
0.00118551
0.00138134
0.00347871
0.00307577
0.00409005
0.000649725
0.00672471
0.00672126
0.00633055
0.00105658
0.00672394
0.00176494
0.0155894
7.87342e-05
0.0124398
0.006743
0.0100943
0.00672527
0.00672127
0.0020607
0.00672513
0.00672526
0.0116671
0.0106521
0.00300127
0.00672284
0.000771163
0.00579293
0.00355126
0.000287462
0.00689937
0.0147673
0.00180535
0.00128886
0.00672432
0.00102021
8.87398e-05
0.00541443
0.00672425
0.000234366
0.00404562
0.000875487
0.000502013
0.0010536
0.00672472
0.000705303
0.0012051
0.00269932
0.00111529
0.00205567
0.000744347
0.00672493
0.0036816
0.00373068
0.00673924
0.00186414
0.00690878
0.000939811
4.91849e-05
0.00246097
0.000904214
0.000805848
0.00672117
0.0141011
0.00130339
0.00672063
0.00275377
0.00146296
0.014917
0.000599278
0.0067327
0.000684628
0.00519789
0.00140811
0.000471808
0.0010063
0.00106618
0.0157777
0.00672337
0.000879605
0.000619793
0.000794174
3.04328e-05
0.00149901
0.000585544
0.00161454
0.0158921
0.00384699
0.00619911
0.0010334
0.00962707
0.00275557
0.00392
0.00109999
0.00368085
0.00221288
0.00672571
0.00187305
0.00672408
0.0152363
0.000547958
0.000423089
0.000428395
0.000952212
0.0067409
0.00232367
0.000792248
0.00234115
0.000726879
0.014093
0.000325348
0.00112682
0.000315749
0.0112466
0.00134803
0.0111383
0.00673195
0.000407296
0.00133782
0.00385363
0.00033887
0.00672474
0.00673222
0.000132049
0.00350779
0.000281019
0.00200064
0.00049203
0.000924606
0.000898687
0.000554166
0.00344842
0.0141252
0.000787124
0.00672503
0.000707621
0.00150293
0.0116264
0.00111777
0.000143248
0.00212711
0.00154269
0.000241096
0.00288482
0.0138675
0.00190275
0.00780029
0.000564907
0.00672839
0.00628782
0.000704478
0.00395788
0.00339066
0.000319374
0.00672463
0.000878271
0.000282302
0.0052413
0.0126592
0.00322209
0.000976058
0.00176854
0.0136931
0.000653065
0.00672276
0.00394376
0.000591896
0.00576035
0.00642269
0.0016906
0.0018206
0.0149291
0.00881223
0.00150648
0.0149585
0.00145484
0.00496027
6.53129e-05
0.00672832
0.000415249
0.0056642
0.00672145
0.00106578
0.00212064
0.0153265
0.00410623
0.000976137
0.00447418
0.00975401
0.000378568
0.0035646
0.0022558
0.000504207
0.00594287
0.00678245
0.000481349
0.00370763
0.000683612
0.00674418
0.000472671
0.000878593
0.000737502
0.000441733
0.00679089
0.00674256
0.00247399
0.00141445
0.00194966
0.0157805
0.00119821
0.00672349
0.00546003
0.00639201
0.000931595
0.00104263
0.0133799
0.0147233
0.000342192
0.00672467
0.000347867
0.00340722
0.00547144
0.00754021
0.000317635
0.0050644
0.0140067
0.00864524
0.0015224
0.00120455
0.011846
0.00110749
0.000308796
0.000113041
0.000189629
0.00205082
6.12851e-05
0.0046728
0.00963996
0.00244781
0.00673196
0.000858817
0.000262877
0.000428407
0.00108606
0.00672292
0.00161123
0.00100749
0.00186386
3.62686e-05
0.00672407
0.0104675
0.00425991
0.00434008
0.0012676
0.00180698
0.00672415
0.0131395
0.000816994
0.0144277
0.0100873
0.00672455
0.000972861
0.000872644
0.00196704
0.00095696
0.00114
0.00672537
0.00125305
0.000555766
0.00924763
0.00103871
0.00338573
0.00107052
0.00135899
0.000120127
0.000738808
0.000633762
0.00557097
0.000578956
0.0107792
0.00089133
0.00849067
0.0108007
0.0148625
0.00881468
0.00557435
0.00673327
0.00396177
0.0010392
0.0016166
0.000657
0.00191353
0.00386687
0.00672482
0.00623754
0.0010286
0.00673667
0.00152683
0.00105463
0.00901575
0.00122455
0.00672756
0.00672472
0.00399728
0.00672307
0.000264662
0.000971626
0.000327366
0.0102197
0.0067296
0.00543573
0.0156666
0.0155333
0.00318524
0.00671551
0.00013783
0.00781703
0.00672764
0.000189719
0.00139392
0.00672566
0.00246609
0.00522207
0.00226257
0.000738224
0.000516429
0.0033668
0.00414449
0.0005197
0.000835163
0.00672587
0.00870445
0.00405815
0.000984104
0.00672391
0.00308043
0.00119725
7.79137e-05
0.00243435
9.25207e-05
0.00969038
0.00106107
0.0155093
0.00425688
0.00383224
0.000515009
0.00672672
0.00240823
0.00202278
0.000155834
0.00217879
0.00457795
0.00672234
0.00551915
0.00208135
0.000418859
0.000950794
0.00276194
0.00672485
9.00389e-05
0.00676882
0.00848483
0.00672385
0.000917743
0.0016272
0.00669304
0.00091368
0.00672412
0.000858553
0.00672526
0.00199764
0.00022392
0.00584741
0.00122412
0.00672587
0.0013456
8.27041e-05
0.00106704
0.000159113
0.00027861
0.000439512
0.00131408
0.00100654
0.00113682
0.00552482
0.00594422
0.00211779
0.00110126
0.00672286
0.000533497
0.00672969
0.000917294
0.0067275
0.000220978
0.00215229
0.00674163
0.00251943
0.00121015
0.00672362
0.00125459
0.00672054
0.000165327
0.0108234
0.000833744
0.00649671
0.00672249
0.00672574
0.000146735
0.006725
0.00672499
0.00183338
0.00106717
0.000925661
0.000227387
0.0027585
0.000463954
0.00586475
0.0067244
0.00672484
0.00672654
0.000265982
0.00586426
0.0010061
0.000851316
0.00672916
0.00672276
0.0140476
0.0067251
0.00063191
0.00224758
0.0148319
0.00088224
0.000127404
0.000372945
0.000396526
5.08964e-05
0.00268033
0.000414644
0.000829175
0.00589411
0.00569449
0.000999853
0.00111674
0.00419385
0.000334741
0.00672521
0.00150546
0.000403625
0.0032225
7.06518e-05
0.00247262
0.000132088
0.00716309
0.00521466
0.00672435
0.00166626
6.53777e-05
0.00321215
0.00057067
0.000280013
0.0146754
0.00170015
0.00127213
0.00152702
0.000310616
0.00672611
0.00027813
0.00387188
0.00234574
0.00676336
0.00841645
0.000560824
0.000979942
0.0150075
0.00157307
0.00166688
0.00672505
0.00270443
0.0067478
0.00151911
0.00943634
0.000416868
0.00427811
0.00919895
0.00672424
0.000384767
0.000471731
0.0027
0.000929024
0.00672496
0.0131426
0.00984877
0.00679494
0.000838728
0.00149127
0.000637008
0.00060778
0.00151261
0.000973659
0.00160963
0.000330725
0.00137461
0.00672416
0.00145502
8.04648e-05
0.00905602
0.00672471
0.00159639
0.000595964
0.00163047
0.00672589
0.00973865
0.00155302
0.000944212
0.00586704
0.000450974
0.000525391
0.000136337
0.00672424
0.00158114
0.000308664
0.000231847
0.000385105
0.00672396
0.00137166
0.00154484
0.000500596
0.00672438
0.000262517
0.00230387
0.000298433
0.014528
0.00185671
0.00320891
0.000597912
0.00512623
0.000446678
0.00672485
0.000895603
0.0014857
0.000985863
0.00048291
0.0014398
0.000307704
0.000334079
0.000844072
0.000969906
0.00673567
8.59713e-05
0.00167755
0.000418115
0.000765869
0.000834485
0.000471445
0.00673029
0.00532141
0.00026493
0.00289419
0.00163884
0.000984827
0.0048097
0.000343407
0.00161901
0.014111
0.00010598
0.000309774
0.000602706
0.000580754
0.00673073
3.50455e-05
0.00678376
0.000471813
0.0024568
0.0131223
0.00059952
0.000234788
0.00672396
0.00343564
0.0067306
0.00126308
0.000691101
0.00724663
0.013114
0.00258368
0.00672073
0.000640216
0.000147993
0.00672727
0.00890217
0.0067276
0.00100474
0.00166833
0.00213126
0.000764395
0.000967369
0.00429054
0.000477639
0.000469502
0.00103219
0.000402789
0.00672782
0.00453714
0.0130752
0.00672107
0.000714785
0.000744304
0.000373184
0.00977793
0.0067212
0.00139921
0.000460643
0.0107801
0.0067259
0.00672384
0.000723811
0.00752201
0.00672081
0.000382821
0.00040106
0.000624346
0.000564692
0.000730425
0.000915341
0.00672677
5.15115e-05
0.00672797
0.00409159
0.000736889
0.00673135
0.00200764
0.000398805
0.00672322
0.00331578
0.000751053
0.0127542
0.00336995
0.00477284
0.00672435
0.00672965
0.000670088
0.00672442
0.00560599
0.0104795
0.00672595
0.000947558
0.00127026
0.0119836
0.000735254
0.00630176
0.000773224
0.000424297
0.00672281
0.00375367
0.00672452
0.00436582
0.00672474
0.000427451
0.000991235
0.00676522
0.00677168
0.000866048
0.000880992
0.000801697
0.000155178
0.000410166
0.0011312
0.0145582
0.000236108
0.00200771
0.00128575
0.000218915
0.000471637
0.0010561
0.0018047
0.00832899
0.00733161
0.00440286
0.00170462
0.00381943
0.000606295
0.000233615
0.00664094
0.00353368
9.56654e-05
0.00672528
0.00223953
0.00672463
0.00673879
0.00241652
0.00364527
0.00334836
0.00672069
0.00453317
0.00672297
0.000150844
0.00204357
0.000975486
0.000174278
0.00342679
0.0122262
0.000763786
0.0067251
0.0011633
0.00625105
0.000379839
0.00402498
0.0131726
0.0010188
0.000774505
5.74026e-05
0.0101884
0.000543264
0.00033752
0.00103797
0.000309174
0.00354375
0.00214482
0.000110185
0.000594272
0.00341189
0.00675175
0.00669634
0.00267223
7.23824e-05
0.00734421
0.000535276
0.00617527
0.00083154
0.000983047
0.000811395
0.0109584
0.000705035
0.00672264
0.000306956
0.000515221
0.00138825
0.00672942
0.00672301
0.014423
0.0067256
0.000585283
0.0156131
0.000636844
0.0045973
0.000309493
0.0009099
0.00907597
0.00672567
0.00496164
0.00672628
0.000538075
0.00237145
0.00335315
0.00108411
0.0154588
0.00533198
0.00672461
0.00936399
0.00409141
0.00276798
0.00306819
0.0111263
0.00588268
0.000836175
0.00672566
0.00823867
0.0153714
0.00043547
0.000112639
0.000451691
0.00433651
0.00672411
0.0131181
0.00672249
0.00128278
0.00676849
0.00184306
0.00672448
0.0101077
0.00672727
0.00138241
0.00675602
0.000184459
0.000268532
0.00676188
0.000280295
0.0104935
0.00102781
0.00727543
0.00604536
0.00022111
0.000950445
0.000928877
0.00058282
0.00272988
0.00450945
0.00180414
0.000412863
0.00360095
0.0071946
0.00649336
0.000918542
0.000781861
0.000629614
0.000514848
0.0150206
0.0066482
0.00675925
0.000381915
0.00969057
0.000519256
0.000379982
0.00155814
0.00672839
0.00964372
0.00954786
0.00766177
0.00672422
0.00578803
0.00911857
0.00025499
7.9712e-05
0.012436
0.0011251
0.000786566
0.000391423
0.000578135
0.00410204
0.000578914
0.000867538
0.00673505
0.0071857
0.0067246
0.000553286
0.00103328
0.000513453
0.000208605
0.000293821
0.00200619
0.00150862
0.000505216
0.00584988
0.0157609
0.000678631
0.00171438
0.000592275
0.000571342
0.000170964
0.00672486
0.000605438
0.000127803
0.000388615
0.00426523
0.000479948
0.000917717
0.000313521
0.00904961
0.00026719
0.00105561
0.000179766
0.00732475
0.00241744
0.00147617
0.00755151
0.000409586
0.00116807
0.00138863
0.00672412
0.000213566
0.00200204
0.0138571
0.000446049
0.00158032
0.00672457
8.53027e-05
0.000553379
0.000175393
0.00448445
0.00674801
0.00672575
0.000687482
0.00672445
0.00144573
0.00141011
0.00186213
0.000562455
0.00575124
0.000870683
0.00237146
0.00138523
0.00239577
0.00672568
0.0106467
0.00147902
0.00672887
3.78304e-05
0.00020853
0.00025267
0.00131751
0.000898216
0.00124901
8.04999e-05
0.00116073
0.00162784
0.00672426
0.00341412
0.0022924
0.00667343
0.00149042
0.00527566
0.00672501
0.000212672
0.00567086
0.000860857
0.00126227
0.000123448
0.00672966
0.00024499
0.00137654
0.0115064
0.00672805
0.000322567
2.65725e-05
0.00159538
0.00043551
0.00148313
0.00210798
0.000227201
0.00140444
0.00459862
0.000998647
0.000449645
0.00672464
0.00536128
0.000324081
0.00672472
0.00264012
0.000336135
0.00672579
6.84461e-05
0.00567765
0.0158383
0.010121
0.00912176
0.0100981
0.0103406
0.00263509
0.0067243
0.0109411
0.00675696
0.006403
0.00673063
0.000187666
0.0155641
0.00394916
0.000466404
0.00423879
0.00139781
0.000323039
0.00539445
0.00672134
0.00637898
0.0158362
0.00672453
0.00672395
0.00902644
0.00127998
0.00281695
0.00672801
0.0103616
0.0102685
0.00393196
0.000945247
0.00672556
0.0122593
7.41695e-05
0.00315668
0.00393116
0.00239973
0.00953839
0.0062719
0.00430017
0.00672542
0.00672604
0.0155351
0.00521999
0.000156678
0.000477137
0.00262328
0.00192633
0.000370323
0.00011852
0.000617908
0.0101734
0.0122
0.00672439
0.00160748
0.00146715
0.00148872
0.0143405
0.00673547
0.00456489
0.000425701
0.00125771
0.00128797
0.00672092
0.000440513
0.000587263
0.00391696
0.00672468
0.000419141
0.00234797
0.000915327
0.00172278
0.015341
0.00464519
0.000167376
0.00155783
0.00443779
0.000956495
0.000888743
5.22046e-05
0.0151162
0.0110311
0.00672311
0.00715869
7.82574e-05
0.0150459
0.00232512
0.000576744
0.000703026
0.00313099
0.0102102
0.00672451
0.00102241
0.00915427
0.015924
0.000332342
0.0158789
0.00057366
0.000827176
0.00676369
0.0145625
0.000602427
0.0060443
0.00676484
0.00994689
0.00674175
0.00672611
0.00106308
0.000360513
0.00035049
0.00358147
0.0103371
0.00152989
0.00548119
0.000509528
0.00830592
0.000145571
0.00433138
0.0126526
0.00100878
0.00156892
0.00170034
0.00672423
0.000492501
0.00672674
0.00244883
0.00015542
0.00206504
0.00673184
0.000409682
0.000800994
0.00676538
0.00996448
0.00169317
0.000856211
0.00679111
0.000434089
0.00672401
0.000239817
0.00162071
0.000165977
0.00246767
0.0096347
0.000221048
0.0158402
0.000349305
0.000547616
0.00673773
0.010761
0.000153225
0.000418241
0.000104665
0.00672506
0.00567733
0.000358883
0.000478063
0.00088295
0.0114871
0.0105248
0.000861562
0.00677027
0.00048324
0.000307306
0.00672449
0.00320798
0.00673617
0.000913426
0.000530041
0.000311439
0.0137494
0.00660789
0.006724
0.00152507
0.000545044
0.00133596
0.00674692
0.0152386
0.00136899
0.00153742
0.00224866
0.00405591
0.000440668
0.0115695
0.000150996
0.000949996
0.00036921
0.00672468
0.00133867
0.000230903
0.00044924
0.00301051
0.00672036
0.00358115
0.0102342
0.0134701
0.00527279
0.000446965
0.000326148
0.00348272
0.00672287
0.00289355
0.0157861
6.75928e-05
0.000484364
0.00217105
0.00173854
0.00958035
0.00025798
0.000729701
0.00216017
0.000958824
0.0067402
0.000174044
0.000387184
0.00522673
0.0126626
0.0125725
0.0152671
0.0116041
0.0089556
0.00854891
0.0106395
0.00103158
0.00586459
0.00990217
0.00775638
0.00538009
0.00283774
0.000941868
0.00465782
0.00533368
0.00520588
0.0156971
0.0009191
0.00672622
0.00027719
0.000807155
0.000743818
0.00877286
0.000525483
0.000604184
0.00672035
0.0153015
0.00344884
0.000386466
0.00168418
0.000852489
0.00243152
0.00673134
0.000687608
0.000678146
0.00098713
0.0013289
0.00130773
0.000784237
0.00103007
0.00881868
0.000351482
0.00140572
0.0111764
0.000997377
0.00672427
2.75426e-05
6.36048e-05
0.00584731
0.000624585
0.00297623
0.00110539
0.000799351
0.000422444
0.006725
0.000250782
0.00139059
0.00113303
0.000193677
0.00672477
0.00162886
0.0101871
0.013645
0.0155718
0.000241504
0.00131767
0.00673705
0.00548974
0.000956455
0.00675861
0.0114041
0.0058071
0.00672596
0.00673758
0.0128203
0.000877022
0.0017019
0.00107823
0.000706244
0.0003049
0.000899096
0.000229131
0.0010484
0.000612297
0.00445372
0.00138667
0.00866522
0.000555543
0.0153515
0.00083972
0.00672024
0.00673576
0.000768565
0.000705751
0.00672445
0.000268022
0.000867474
0.000455859
0.00887174
0.00371335
0.0088597
0.00672597
0.000544761
0.000455803
0.000507423
0.00673087
0.000414918
0.00104181
0.00815735
9.31199e-05
0.000434737
0.00672543
0.013479
0.000421617
0.00826913
0.00733582
0.00103103
0.000925701
0.000512373
0.00921219
0.000148921
0.0136128
0.000507089
0.00373308
0.000531488
0.00524904
0.00790796
0.000775703
0.000696455
0.000175511
0.0149239
0.00422141
0.00425636
0.00989744
0.000589402
0.00946762
0.000250159
0.00672763
0.000657401
0.000999214
0.000162276
0.00627988
0.000511016
0.00100109
0.00111205
0.00672543
0.00445051
0.000323087
0.00139211
0.00016096
0.00426069
0.00328012
0.00027691
0.0018855
0.00306079
0.00672434
0.000558
0.000220114
0.00141816
0.000709828
0.000538111
0.000534101
0.00313512
0.000202958
0.000941336
0.000836734
8.33179e-05
0.00213702
0.000165527
0.000155661
0.00557543
0.000992237
0.00765625
0.010595
0.00336679
0.000184594
0.00826269
0.00467493
0.00132505
6.45912e-05
0.00943476
0.000454488
0.00838282
0.000600266
0.00442912
0.00117573
0.00673412
0.00132394
0.000586091
0.00330004
4.80005e-05
0.00111292
0.000144167
0.0120904
0.0135783
0.00273593
0.0122147
0.00656452
0.00353712
0.0124886
0.00672442
0.00672158
0.00988001
0.00273657
0.00672502
0.000297422
0.0144497
0.00062892
0.00175455
0.0108197
0.00672227
0.0133303
0.0102552
0.00672397
0.000586199
0.00143012
0.00994159
0.0102069
0.0107793
0.00900993
0.00673173
0.00101165
0.000634438
0.000916682
0.0067255
0.000986867
0.00672974
0.0112978
0.000492678
0.000155369
0.000980845
0.011739
0.000592888
0.00096941
8.82021e-05
0.00247924
0.000463011
0.00180101
0.00673281
0.0047118
0.000350426
0.00675371
0.0109519
0.00520614
0.00543491
0.0026182
0.0158961
0.00203222
0.00605768
0.000185681
0.000430674
0.000259703
0.00829341
0.00987124
0.000243975
0.00178075
0.00175493
0.00105974
0.00158657
0.000755302
0.00139463
0.00672449
7.10714e-05
0.000741997
0.000482468
0.00797683
0.000867651
0.000315402
0.000217281
0.000622844
0.00145054
0.0060392
0.00038671
0.00673732
0.000803656
0.000592487
0.00910571
0.00672572
0.000651686
0.00553897
0.00215104
0.000441083
0.00179472
0.000680388
0.0104699
0.000800476
0.000917887
0.00176767
0.00672452
0.0132998
0.00672395
0.00204329
0.000863379
0.013551
0.000535709
3.15278e-05
0.000111337
0.00151332
0.00277358
5.83934e-05
0.000631379
0.0139821
0.00053701
0.000258948
0.000769296
0.00162226
0.000991185
0.000173362
0.000578149
8.44807e-05
0.000842761
0.000314464
0.00123472
0.00429085
0.000267585
0.00399449
0.000900275
0.00673322
0.000979589
0.000941287
0.000905963
0.0108432
0.00110513
0.000573394
0.00672388
0.00249464
0.00672457
0.00672432
0.00207138
0.00672816
0.00108981
0.00321116
0.000994048
0.000920625
0.00199882
0.00312749
0.000356551
0.00338662
0.00867424
0.00912955
0.00590355
0.00125101
0.000529123
0.00179787
0.0067245
0.000388815
7.40856e-05
0.000512732
0.0115283
0.00106373
0.0121328
0.00135195
0.00672442
0.00672426
0.010328
0.0045494
0.0012278
8.64177e-05
0.000630945
0.00241887
0.0155407
0.0067238
0.000873802
0.00444585
0.00142568
5.45247e-05
0.00116195
0.00247271
0.00164646
0.000226147
0.000944079
0.00121563
9.20837e-05
8.01284e-05
0.000282792
0.00150979
0.00225428
0.00159773
0.00132074
0.0133881
0.0103989
0.0139617
0.00151532
0.00480001
0.00132784
0.00217986
0.00672608
0.00156991
0.00672426
0.001775
0.00406105
0.00608348
0.0061295
0.000458958
0.00539498
0.00146402
0.000284895
0.00278081
0.00504044
0.000537934
0.0154752
0.000328968
0.0031508
0.0135105
9.34406e-05
0.00393882
0.000173667
0.0067255
0.000191461
0.000815172
0.000102787
0.0110585
0.000283278
0.0101451
0.00673284
0.0108114
0.00281724
0.00113974
0.0017127
0.000525911
0.00672312
0.000148066
0.0135164
0.000102012
0.000735516
0.000490941
8.2951e-05
0.00439565
0.00678719
0.00226481
0.00198759
0.00174324
0.0159578
0.00749534
0.000222517
0.00672491
0.000257013
0.000265532
0.00054812
0.00260849
0.00808964
0.00435995
0.006734
0.0049576
0.00125349
0.00320167
0.00401547
0.0138018
0.00626404
0.000399681
7.83308e-05
0.0062914
0.0152495
0.00218364
0.0157858
0.00393214
0.00148929
0.00166274
8.50768e-05
0.0024727
0.000816586
0.00661406
0.00202935
0.00903434
0.00181505
0.000269018
0.00107924
0.00084752
0.000190558
0.000510867
0.00413098
0.00017619
0.000798685
0.00195408
0.00144874
0.00532512
0.00669954
0.00672383
0.00198489
0.00261186
0.000677883
0.0100921
0.000730658
6.35468e-05
0.00130495
0.00157927
0.00194344
0.0149622
0.0110677
0.00161112
0.00176595
0.00595458
0.00933487
0.000489145
0.000783426
0.00898412
0.0131521
0.00260453
0.000483213
0.0107393
0.000181085
8.95559e-05
0.000416119
0.00213875
0.00674883
0.000201082
0.00672617
0.00386319
7.32132e-05
9.54626e-05
0.00672404
0.000983479
0.000170574
0.000947599
0.00672632
0.00672197
6.94121e-05
0.00236991
0.0033605
0.00168885
0.0131881
0.00152703
0.000214375
0.00672543
5.65222e-05
8.06127e-05
0.00242083
0.000641986
0.00672739
0.0159355
0.0150813
0.000695035
0.000553866
0.000413666
0.000702784
0.00672398
0.00147592
0.00674223
0.00232094
0.00672512
0.0123133
0.0067456
0.00173844
0.000176639
0.000606376
0.00123452
0.00673248
0.0141626
0.00039486
0.00267717
0.00753237
0.000368731
0.000651679
0.00745698
0.000640039
0.000186156
0.00196686
6.59644e-05
0.000225217
0.00048078
0.0157659
0.00672869
0.00373831
0.00018436
0.011303
0.00672417
0.000985023
0.0144882
0.00672593
0.00464778
0.000592373
0.00434443
0.00672213
0.00295861
0.000419383
5.45072e-05
0.0020006
0.000506296
0.00622491
0.00303
0.00942646
0.0104238
0.00596305
0.00156102
0.0043121
0.00162393
0.00672398
0.000340676
4.7569e-05
0.0149657
0.00637921
0.000458907
0.00069595
0.00672109
0.00672089
0.00478428
0.00245544
0.000461657
0.000504872
0.000892926
7.84393e-05
0.00609385
0.00225144
0.00673861
0.00673354
0.00719558
0.00166562
8.96855e-05
0.00046567
0.00297286
0.000492052
0.000160126
0.00802904
0.00904767
0.00672409
0.00616293
0.00112127
0.000278716
0.0149489
0.00672574
0.000262696
0.010551
0.0067363