/*--------------------------------*- C++ -*----------------------------------*\
| =========                 |                                                 |
| \\      /  F ield         | OpenFOAM: The Open Source CFD Toolbox           |
|  \\    /   O peration     | Version:  v2012                                 |
|   \\  /    A nd           | Website:  www.openfoam.com                      |
|    \\/     M anipulation  |                                                 |
\*---------------------------------------------------------------------------*/
FoamFile
{
    version     2.0;
    format      ascii;
    class       volVectorField;
    location    "850";
    object      ddt0(U);
}
// * * * * * * * * * * * * * * * * * * * * * * * * * * * * * * * * * * * * * //

dimensions      [0 1 -2 0 0 0 0];


internalField   nonuniform List<vector> 
13851
(
(-0.000148713 0.0010451 2.74884e-19)
(-0.0131036 0.108044 -2.44777e-18)
(0.00367081 -0.00891677 -6.86906e-19)
(0.00019274 0.000845859 -1.33975e-19)
(0.00400886 0.00122329 -1.71325e-18)
(0.0275725 -0.0122867 -8.2793e-19)
(-0.000224857 1.12799e-05 2.0226e-18)
(-0.000155035 -0.00312471 -1.85316e-18)
(-7.13265e-05 2.5336e-05 1.45544e-19)
(-0.0171871 -0.0133015 7.66553e-20)
(-0.0306032 -0.0279453 8.26241e-21)
(0.0172743 -0.128344 -8.80733e-18)
(-0.000712586 0.0169276 7.00064e-18)
(0.00398898 0.148918 1.42741e-18)
(-0.000413757 -2.65477e-06 -5.25137e-19)
(-0.0021471 0.00138189 -1.05673e-18)
(-0.000378361 -3.46346e-05 -2.5552e-18)
(0.000279438 -0.0031858 -3.81943e-19)
(0.00555727 0.0179696 -1.16978e-18)
(-7.8834e-05 2.23576e-05 -8.26198e-20)
(0.000123935 0.000731704 -6.72396e-20)
(0.00432291 -0.00757128 -5.25956e-18)
(4.64876e-05 1.95692e-07 -1.38299e-19)
(-0.000119134 2.19153e-06 -2.15845e-19)
(3.15673e-05 -5.73414e-07 4.16677e-20)
(-0.000543015 -0.00347093 2.7301e-18)
(-0.000130402 -0.000101559 6.23629e-18)
(0.00898293 -0.0289005 -2.49148e-17)
(-0.000280972 0.000868487 -8.43312e-20)
(0.000461146 -0.000202004 2.6287e-19)
(0.029464 -0.0189259 -6.29944e-19)
(-0.000405541 -5.87598e-05 2.09616e-18)
(0.00241496 -0.00901655 5.56686e-20)
(0.006125 0.0844904 2.22455e-20)
(-0.000109865 2.10407e-06 1.51443e-19)
(-0.00227056 -0.00156946 1.42558e-17)
(-0.00436981 -0.00308869 7.56286e-18)
(0.0227461 0.000975319 -1.12991e-17)
(-0.0185519 -0.0162592 -1.57109e-19)
(0.020211 0.0304712 1.90107e-18)
(-0.00020243 2.67074e-05 3.05956e-19)
(9.77808e-05 3.98347e-06 1.1418e-20)
(-0.0112027 -0.0301607 3.47768e-18)
(-0.0215972 -0.0667524 6.79928e-19)
(-0.019255 -0.050956 -1.43018e-19)
(-0.0473997 0.00807088 2.08731e-17)
(-0.00882631 -0.0889467 -1.83409e-18)
(-0.0295108 0.0252599 2.23149e-18)
(-0.000117666 -0.000107955 2.29054e-18)
(0.0043771 -0.0180975 -3.80845e-19)
(0.00020126 0.00146496 7.87012e-18)
(-0.000918694 0.00498069 -1.23514e-17)
(-0.00212443 -0.0604249 2.08053e-17)
(-0.000445543 -1.8494e-06 2.75395e-19)
(-0.000362949 7.39919e-08 -5.69958e-19)
(9.83952e-05 2.80295e-06 -2.26758e-20)
(-2.0195e-05 2.6172e-06 -4.09074e-20)
(0.00307013 -0.0597098 -8.35893e-18)
(0.000367827 -0.000232677 1.03554e-19)
(-0.000211055 -1.29354e-05 -1.82235e-18)
(0.0246809 -0.0012417 5.6703e-18)
(0.0666388 0.0620953 2.81345e-17)
(-0.0124782 -0.0179027 -1.9848e-18)
(0.00396572 0.00295791 -6.13114e-18)
(0.0508646 0.0151995 7.03368e-19)
(0.000533897 0.0022302 7.97908e-20)
(-0.00360986 -0.00356147 2.04073e-18)
(-0.00568131 -0.110164 -4.25146e-22)
(0.000294038 -0.000212821 -6.08808e-19)
(-0.000218967 -0.00325936 1.21059e-19)
(-0.00269283 -0.000554179 1.59015e-17)
(0.000852366 -0.00451452 6.67525e-18)
(-0.0125751 0.126806 2.50167e-18)
(-0.000456473 -1.82475e-06 -1.84646e-18)
(-0.000322787 6.11738e-06 7.57854e-19)
(-7.63792e-05 6.96091e-05 -4.79051e-21)
(0.00393502 -0.00679239 8.09043e-19)
(0.000792895 0.000135194 -2.43015e-18)
(0.00132708 -0.000653748 -1.83298e-18)
(-0.00449248 -0.000583389 4.19686e-18)
(-0.000185745 -2.50366e-05 -7.8633e-18)
(0.0088158 0.0527896 -1.24663e-19)
(-0.00028293 1.24401e-05 -3.52363e-19)
(-0.0394133 -0.0130602 1.5387e-17)
(-0.00965181 -0.0207682 3.0604e-18)
(0.0101541 -0.119735 8.74163e-18)
(0.0146271 -0.0129154 -5.31472e-19)
(-0.125205 0.115595 1.6111e-18)
(-0.000228415 -0.000208857 -2.13383e-18)
(-0.000211674 -3.92076e-05 -9.08073e-20)
(-0.00234755 -0.00133926 -1.50104e-17)
(-0.0097947 0.00971036 -6.56111e-19)
(-0.00515517 -0.114873 -2.42409e-18)
(-0.000140111 -0.000362958 9.32791e-18)
(-0.000205754 -0.000189238 2.56124e-18)
(-4.01651e-05 -1.77649e-07 -3.93375e-20)
(0.00386582 0.00178951 1.2327e-18)
(-0.011205 0.0203671 -1.2143e-17)
(0.0034881 -0.0210508 1.2667e-18)
(-4.4908e-05 6.5519e-07 4.65156e-20)
(0.0277842 0.0946201 4.19194e-18)
(0.00101286 0.000217661 -6.50206e-18)
(-0.000386253 -3.66322e-05 -2.14937e-19)
(-9.34105e-05 2.64589e-05 1.97061e-17)
(6.81992e-05 -1.69223e-06 1.61266e-21)
(0.0070905 -0.0198909 1.4635e-18)
(0.000874448 0.000645867 5.5079e-18)
(0.000101037 -1.04061e-05 5.17773e-20)
(0.0029816 -0.00445213 2.08955e-19)
(0.0307414 -0.00770954 4.02622e-19)
(-7.90618e-05 1.83287e-06 3.85194e-20)
(-0.000257789 -9.09915e-05 1.6755e-20)
(-0.00745487 0.00847502 -1.49304e-19)
(-0.000122721 5.50366e-07 -1.06901e-19)
(-8.08696e-05 2.37604e-06 -1.99662e-19)
(-0.0341446 0.205031 -3.59426e-18)
(-0.00908033 0.0207068 -1.16575e-17)
(9.09306e-05 3.2902e-06 3.62082e-20)
(-0.000235483 1.38335e-06 -6.94017e-20)
(-0.000345581 1.55847e-06 7.44864e-19)
(-0.00751174 -0.0343139 -6.33585e-18)
(-9.20612e-05 1.897e-05 -1.41209e-17)
(-0.00105108 0.0184138 3.5624e-18)
(0.0106151 0.160011 -4.40445e-18)
(-0.0538492 0.0392716 -1.77734e-18)
(-0.00129669 -3.23197e-05 -8.61103e-21)
(-0.0638492 0.0797009 3.71632e-18)
(0.00125273 -0.000186931 2.08436e-18)
(0.00025244 0.000580477 -1.1443e-20)
(0.00923257 0.00567219 -2.57146e-18)
(-0.000214976 2.38302e-05 -1.10053e-19)
(-0.000157327 2.69441e-05 -5.58989e-20)
(-0.00262755 -0.000773879 -1.17094e-17)
(-0.000286758 9.47161e-06 2.4222e-18)
(-0.0451469 0.198335 2.18373e-18)
(-0.000185548 9.65285e-06 2.81692e-20)
(8.99734e-05 3.17587e-06 -1.42386e-19)
(0.000427065 -0.00401951 9.73884e-18)
(0.026829 0.0518837 -2.08267e-18)
(-0.0699302 -0.0391095 1.67325e-18)
(0.0121477 0.0862915 -2.4008e-18)
(-0.000363033 9.19489e-07 -1.06958e-19)
(-0.00155942 0.000389148 -5.58636e-19)
(0.000167165 -2.17479e-06 -2.25838e-19)
(-0.000166666 0.000146084 -2.66852e-18)
(-0.0165983 -0.0851685 -1.65566e-19)
(0.00516574 0.00269505 -4.80162e-20)
(0.0106528 0.00520061 -2.14652e-18)
(-0.000235028 8.62203e-06 -2.57838e-18)
(-0.0199177 -0.02422 -7.62065e-19)
(-0.000315632 -6.72223e-05 9.18715e-18)
(-0.000336363 2.63572e-06 2.24925e-19)
(0.0133559 0.140711 -1.2388e-17)
(-1.68075e-05 3.04688e-06 -4.91863e-20)
(-0.000189365 -4.59186e-05 -6.02417e-18)
(-0.000141774 0.000151937 3.18465e-18)
(-0.000168041 1.79514e-05 -2.524e-20)
(0.00013956 3.74991e-06 -1.09424e-18)
(-0.000507051 0.00548277 1.03815e-17)
(0.000416033 0.00142995 3.84431e-18)
(0.00014407 -2.54283e-05 -2.79696e-21)
(9.45707e-06 -0.000175875 5.10927e-18)
(0.00150712 -0.0627079 -8.72382e-18)
(-0.000154444 2.54766e-05 2.22588e-21)
(0.0014365 0.00102157 -1.14197e-18)
(0.000114287 -7.84953e-06 1.16538e-19)
(0.00571825 0.00440917 9.7001e-21)
(0.000304468 -0.000160929 -1.33466e-18)
(0.000212238 0.000501497 -7.0483e-20)
(-0.0392301 0.0280602 8.72133e-18)
(0.000748353 8.14746e-05 3.59029e-19)
(-4.28641e-05 1.16104e-05 -2.47889e-20)
(-0.000172023 1.30823e-05 -3.26195e-20)
(-0.0528564 -0.0153062 1.48285e-19)
(-0.000154254 2.30825e-05 8.78871e-21)
(-0.0220776 -0.00495677 4.57445e-19)
(0.0012189 -0.000326106 -1.35924e-19)
(-0.000941786 -0.000941126 4.5163e-20)
(0.0031332 0.0187656 1.32211e-17)
(0.000103716 -1.5122e-05 -1.26786e-20)
(-0.000501421 -6.2414e-05 2.47128e-18)
(0.00184087 -0.0043706 -1.81827e-17)
(-0.000306037 3.30337e-06 7.06258e-19)
(0.00559563 -0.00743598 7.52706e-18)
(9.74255e-05 -8.64426e-06 3.81976e-21)
(1.7794e-05 -1.30247e-06 1.09007e-20)
(8.90764e-05 0.00240124 -2.33082e-19)
(-0.00035645 1.85296e-06 -7.80769e-19)
(0.00598948 0.00138227 6.3478e-18)
(-0.0203645 0.020269 -1.9988e-19)
(-0.00761367 -0.106582 -1.29748e-18)
(-0.00158264 -0.0598424 -2.07491e-17)
(-0.000481191 -0.000119016 2.1996e-19)
(0.000312734 -0.000431888 1.77821e-18)
(0.0686571 0.0503452 -2.99906e-17)
(-0.000186458 -3.26702e-05 -1.02254e-18)
(-0.00120027 0.000387617 2.74382e-20)
(0.0390777 -0.0570292 6.97893e-19)
(-0.000993703 -0.000673668 1.18557e-20)
(-9.0481e-05 6.88844e-05 9.64826e-20)
(-0.00131401 -0.000394647 -2.45431e-20)
(-0.0755955 0.0687714 -1.4741e-17)
(-0.000262476 1.38425e-07 -2.53844e-19)
(-0.000263671 4.63306e-06 -6.34062e-20)
(-0.016774 0.00599071 2.26345e-19)
(-0.000292369 1.6273e-06 4.28366e-18)
(0.0837578 -0.00896249 -2.64459e-18)
(-0.000335124 -0.00011866 3.79097e-18)
(-6.76804e-05 -0.000810753 -1.24066e-17)
(0.000111832 -2.43974e-05 1.76394e-20)
(0.00202751 -0.00113411 -9.13346e-18)
(-0.000349189 -2.47164e-05 -1.31435e-19)
(0.0185929 -0.0624727 1.87015e-20)
(0.000101516 -2.00129e-05 9.88812e-22)
(0.000140568 -1.87904e-05 4.30766e-21)
(-0.0279877 0.0131579 -6.90973e-20)
(-0.00245838 -0.0194923 -2.29614e-20)
(-0.0407546 0.00454211 -3.28467e-18)
(-0.000397911 -5.58741e-06 1.2082e-19)
(-2.05716e-05 -0.000790878 6.93283e-18)
(-0.000364669 -0.000129625 -2.87043e-18)
(-0.000185703 -2.61121e-05 3.9994e-18)
(-0.00303926 0.0064081 1.1261e-18)
(0.00287302 0.00651862 3.82919e-18)
(0.000693276 -0.00240839 -1.25089e-17)
(1.38403e-05 -3.59984e-08 2.31904e-20)
(-5.58251e-05 -0.000496573 4.61357e-19)
(5.40291e-05 -1.0665e-06 6.66364e-22)
(-0.00979628 -0.0498201 1.80793e-17)
(0.000104481 -2.1764e-05 5.59491e-22)
(-0.00107129 -0.00325921 -2.1462e-18)
(0.0436936 -0.0293706 3.36854e-19)
(-4.29421e-05 9.3832e-06 -1.19639e-19)
(-0.00040215 -2.42864e-05 -6.54006e-20)
(0.000153293 0.000897348 -1.94287e-18)
(0.00945531 -0.0051439 -2.62403e-19)
(0.0826144 -0.00825955 3.40424e-19)
(0.0588144 0.0172168 -9.2569e-19)
(0.000164521 -1.3019e-05 -6.244e-20)
(-0.000266761 7.95237e-06 -3.88516e-20)
(0.0248708 -0.0225086 -4.79474e-19)
(-0.017075 -0.0454312 3.51663e-19)
(0.000343009 9.96627e-05 -1.5115e-21)
(-0.0197691 0.005945 -2.65563e-19)
(8.2942e-05 -2.95077e-06 -5.71672e-20)
(-6.3327e-05 -0.00191197 -1.36925e-18)
(0.00117951 0.000232292 1.95662e-18)
(0.00731071 -0.0109509 -2.00122e-18)
(-0.000107318 0.000194095 -3.19362e-19)
(-0.000462582 0.000464792 2.16851e-18)
(0.00633562 -0.000839609 1.05121e-19)
(-0.0249513 -0.0504107 -4.93732e-19)
(-0.000165321 2.99647e-05 4.91176e-18)
(-0.000134737 0.000194932 -5.89716e-19)
(0.000289233 0.000447578 5.92966e-18)
(-0.0767775 0.00939201 -1.39886e-19)
(-0.0157168 0.0208772 2.72654e-19)
(0.001337 -0.00387026 -4.10507e-18)
(0.00369199 -0.00392765 5.40237e-18)
(-0.000326976 -5.83689e-06 1.27203e-18)
(0.000146787 -1.41642e-05 1.12306e-19)
(-0.00087742 -0.00253523 -4.33827e-20)
(0.0775187 -0.0755931 -2.18993e-19)
(-9.81722e-05 4.77151e-06 -4.4238e-20)
(0.00794814 0.0231657 6.59789e-18)
(-0.000186388 -2.64167e-05 3.22475e-19)
(-0.000166715 2.29004e-05 -2.29483e-18)
(-0.000151087 -0.000328898 -4.11775e-18)
(-0.0025788 0.00697018 -2.76523e-18)
(-0.00839008 0.00719752 1.3336e-19)
(0.00599855 -0.00214642 7.86609e-21)
(-0.000192397 -4.02359e-05 -9.83762e-19)
(0.0589875 -0.0313433 -6.97055e-19)
(0.00112057 -0.000697845 3.97663e-18)
(-0.00182993 0.00159824 9.45897e-19)
(-0.000163671 2.99093e-05 -5.99369e-21)
(0.00563285 0.0367133 3.54908e-19)
(-0.00511523 0.0158676 2.86953e-21)
(-7.85458e-05 -0.00312379 -7.06698e-18)
(-0.0326411 -0.0093472 3.9679e-19)
(0.000414268 6.51332e-05 -3.74994e-22)
(0.000106895 -2.56438e-05 4.13527e-21)
(7.07399e-05 -2.45935e-06 -2.98093e-21)
(0.000313911 0.000382554 -5.38742e-18)
(0.071093 -0.0804085 8.95597e-20)
(-0.0130503 -0.0215671 -1.04456e-18)
(-8.53458e-05 3.11927e-05 1.59913e-19)
(-0.000401848 3.67144e-06 -1.4958e-18)
(0.0529477 -0.0361251 1.01029e-18)
(0.017535 0.00987428 2.69565e-20)
(0.01167 0.00664978 6.22255e-19)
(0.000295139 -0.000145808 -2.56874e-19)
(-0.000212387 -1.63926e-05 1.71281e-18)
(0.000451657 -0.000287762 2.23254e-18)
(0.0186143 0.0313537 5.52639e-19)
(0.00659164 0.0217872 -7.87715e-19)
(0.000798885 0.00108734 5.11525e-19)
(0.00343169 -0.112462 -1.60003e-18)
(-0.000153274 3.23547e-05 -1.80576e-22)
(0.000254369 -0.00185396 3.43857e-18)
(-7.14163e-06 -0.000161004 2.33647e-18)
(-0.000381878 1.67524e-05 2.41346e-18)
(0.000896337 -0.0032113 -4.55984e-18)
(-0.000201674 -4.48309e-05 3.35285e-19)
(0.0110383 -0.0192613 -2.77773e-19)
(-0.000435185 0.0015677 6.82089e-18)
(-9.92484e-05 2.64813e-05 3.15966e-20)
(0.000409657 0.000174509 1.10238e-17)
(-0.000171778 -0.00039816 -1.61396e-18)
(0.000218385 -0.000167283 -1.82344e-20)
(0.0330758 0.0427658 6.05111e-18)
(0.000896737 0.00118912 1.07598e-19)
(-0.000157448 3.78188e-05 2.30595e-18)
(-0.0057643 0.00973378 -1.0296e-18)
(9.76763e-05 3.40374e-06 -1.26053e-19)
(-0.000525969 0.000461719 -2.9727e-18)
(-0.0016014 -0.00125437 -1.90872e-19)
(0.00132724 -0.00329692 3.62011e-18)
(-0.00149359 -0.000507621 -5.55534e-18)
(-0.000380754 -6.01762e-06 -1.51069e-18)
(0.000717683 0.000445967 -2.32782e-18)
(-0.000378976 -7.11115e-06 -3.41378e-18)
(-0.000217841 -0.0043896 -4.17378e-18)
(0.00950038 0.000380322 -4.31282e-19)
(3.94178e-05 4.88912e-07 5.61654e-20)
(-0.000181061 7.25973e-05 3.62939e-21)
(-0.00153476 -0.000316959 3.59946e-18)
(-9.05505e-05 -0.000450457 -4.35967e-18)
(-0.000182396 -5.4384e-05 3.2181e-18)
(-0.000403314 3.62564e-06 2.60619e-18)
(-0.00020613 -3.59053e-05 -8.18049e-19)
(-0.000156852 3.98045e-05 -1.32835e-18)
(-0.0286243 -0.0349263 -9.71636e-20)
(0.0783422 0.10015 -2.35119e-18)
(-0.0303157 0.0526413 -1.52972e-17)
(-0.00419219 -0.00442471 1.29625e-18)
(0.00189988 -0.0033053 1.77067e-18)
(0.0417123 0.0128301 1.79425e-18)
(-0.000426495 -3.04301e-06 -3.95749e-19)
(0.000350254 -0.000506404 1.23798e-18)
(0.0132621 0.00631841 -1.81916e-18)
(-0.015452 0.00546438 5.201e-19)
(0.0155131 -0.0101757 7.28984e-19)
(-0.000949186 0.00364274 8.63026e-18)
(0.00695609 0.0193608 3.40144e-18)
(0.000287148 0.00387717 -6.83928e-20)
(0.0562316 -0.0606586 -3.84755e-19)
(0.000421404 -0.000222997 2.72492e-18)
(-0.000435417 -1.64797e-06 7.0894e-19)
(0.0048043 -0.013456 -6.49797e-19)
(0.00247454 -0.014808 5.08713e-19)
(0.0280191 -0.0352561 6.29541e-19)
(-0.000178869 -5.11148e-05 -3.62192e-18)
(0.0178334 -0.0112191 -5.56869e-19)
(-0.0110393 -0.0496574 -2.19015e-17)
(-0.000171351 1.33927e-05 1.05307e-20)
(0.0644265 -0.046331 9.92594e-20)
(-0.000165951 8.4695e-05 2.10858e-20)
(-0.000394318 -4.89432e-06 1.52667e-18)
(8.99368e-05 -4.25694e-06 3.85455e-20)
(0.000101262 -1.30802e-05 -1.11392e-20)
(-0.000171785 1.08439e-05 -2.09733e-20)
(0.000758062 -0.000180047 6.60909e-19)
(0.0289689 -0.0662018 1.19307e-19)
(-0.000226578 1.63625e-05 1.24124e-18)
(0.00039073 0.000115043 3.89358e-18)
(0.000100608 -2.06315e-06 -1.64641e-19)
(0.00300438 -0.112041 3.98731e-18)
(-0.00290582 0.00423388 1.29808e-18)
(0.0206099 0.0265803 1.68409e-19)
(-0.0308678 0.035551 -9.70218e-19)
(-0.000223587 1.31077e-05 -8.51153e-19)
(-0.000545405 -0.0219242 1.03293e-18)
(-0.000276228 -0.000427661 -3.30938e-18)
(0.0183171 0.0139015 -4.67991e-19)
(-0.000204367 3.21748e-05 -4.21517e-19)
(9.00333e-05 4.20841e-06 4.08796e-21)
(0.00396 0.00708291 3.32396e-19)
(0.08417 0.0842258 -4.74902e-18)
(-0.000332729 6.21668e-06 -2.38195e-19)
(0.0507908 0.0288261 -3.09855e-18)
(-0.0144286 0.00892407 3.60412e-19)
(-0.00136435 0.00386903 7.45196e-18)
(-0.059955 0.0221569 1.10074e-17)
(0.00233588 -0.0309782 1.10342e-18)
(0.00731479 -0.028908 -8.68856e-19)
(0.00136585 -0.00430344 -4.24398e-19)
(-0.000169007 1.8275e-05 -2.37594e-21)
(-0.000480777 1.7691e-08 4.49504e-19)
(-0.00373848 -0.00340222 1.42768e-19)
(0.000603559 0.00043703 2.17843e-18)
(0.00250819 0.133545 -1.92825e-18)
(0.0002811 -8.34917e-05 -5.35197e-18)
(0.00140994 -0.00245595 9.00888e-18)
(-9.58844e-06 0.000855703 -1.85318e-18)
(0.000103225 -2.95411e-06 2.20782e-20)
(-0.000335315 -5.04666e-06 3.42434e-19)
(-0.0444788 0.0455834 1.2774e-17)
(-0.0033087 -0.000811731 5.95509e-18)
(0.0383303 -0.0337571 -1.60165e-18)
(-0.0082007 0.0176751 1.11694e-17)
(0.00543464 0.00807081 -2.33535e-19)
(-0.000258292 -0.000482381 -1.28923e-18)
(-2.1457e-05 4.76278e-07 1.88343e-20)
(0.0370665 0.0105767 7.69888e-19)
(-6.08782e-05 3.64549e-05 -1.31075e-19)
(-0.00206822 0.00101552 3.62371e-19)
(0.000861779 -0.00371433 -2.23448e-19)
(-0.000228678 -1.33921e-05 1.25211e-18)
(5.97215e-05 -1.77453e-06 3.18061e-21)
(-9.22907e-05 2.75375e-05 -5.2982e-20)
(0.000110351 -7.22916e-06 -1.26884e-19)
(0.0033403 0.00285884 1.56963e-18)
(0.0147784 -0.00198011 -2.99945e-19)
(-0.00506318 -0.00463531 5.81275e-18)
(-0.00138748 -0.00359981 1.35273e-18)
(0.000735915 0.000583626 -1.06333e-19)
(0.00911137 0.00420674 1.0555e-18)
(-0.0330768 -0.0372125 -5.89494e-19)
(-0.000520798 0.000702499 -1.61273e-18)
(0.0310866 -0.0412118 2.19696e-19)
(-0.000351423 3.57661e-05 -2.56781e-19)
(-0.0240555 0.02551 -3.66549e-19)
(9.21476e-05 1.78276e-06 2.3351e-20)
(-8.85437e-05 2.81348e-05 5.43797e-20)
(8.30249e-06 -1.20669e-06 -1.2791e-20)
(0.0306635 -0.00280623 1.10981e-18)
(-0.0168 -0.094505 -8.94237e-19)
(0.00469529 0.00594025 7.09034e-19)
(0.00756162 0.00515676 -6.07526e-19)
(-0.00224839 -0.00589757 7.14725e-19)
(0.00496203 0.126089 1.89351e-18)
(0.0114154 -0.0144965 8.64979e-20)
(-0.00034269 3.05427e-07 -4.43131e-19)
(2.2518e-05 0.000882395 -3.86145e-18)
(-0.000212238 3.03418e-05 1.04484e-18)
(-0.0376067 -0.0343253 7.8842e-19)
(6.92675e-05 -7.26799e-07 3.12728e-20)
(0.0461414 -0.0599994 -1.95044e-18)
(-0.0294565 -0.00677302 -1.95539e-19)
(-0.000278478 -0.00913854 -7.4046e-19)
(0.000454826 -0.000390065 -1.7983e-18)
(-0.00139455 -0.000548526 -3.81722e-19)
(0.00728003 0.0163665 -1.90543e-20)
(-0.0248138 -0.0152166 2.45489e-20)
(0.121709 0.0711769 -8.77781e-18)
(9.70567e-05 -1.03932e-05 3.09007e-21)
(-0.000212 -0.000622456 -1.55872e-18)
(0.00138222 -0.000472056 -1.4777e-18)
(-0.00894225 0.0109863 -9.55887e-20)
(-5.49558e-05 2.91776e-05 -4.58358e-20)
(-0.000148316 4.26931e-05 3.99185e-21)
(-0.000241639 2.83042e-06 8.51321e-18)
(-0.00080002 0.00460924 4.13519e-18)
(-0.00104241 -0.00655132 2.02767e-18)
(0.0322532 -0.0936418 -1.02029e-19)
(2.31112e-05 1.50389e-08 -3.70418e-19)
(-0.000198338 8.24981e-05 -3.00419e-19)
(-0.0150523 -0.0334329 1.48507e-18)
(0.0018334 0.00102106 7.35423e-19)
(0.000107319 -2.50079e-05 1.7191e-20)
(-0.124971 0.116728 1.7483e-18)
(-0.000167575 2.00297e-05 3.52464e-20)
(4.93102e-05 0.00103516 1.36699e-19)
(-8.01963e-05 2.81729e-05 -4.68039e-20)
(0.00549579 0.00548937 4.15766e-20)
(3.7532e-05 -7.00645e-05 -1.29995e-19)
(0.000108257 -2.51343e-05 3.96213e-21)
(-0.00137705 -0.000252477 -4.73798e-20)
(-0.00573091 0.0113324 2.83754e-18)
(-0.000273514 1.31758e-05 1.3096e-18)
(0.000359404 -7.78458e-05 4.83433e-18)
(-0.000192587 1.00828e-05 -1.57597e-19)
(-0.00152653 -0.00637013 -4.31853e-19)
(-0.00835459 0.0316679 -1.8169e-19)
(-0.000149424 3.60794e-07 -8.17813e-21)
(-0.000153344 4.26414e-05 -1.11369e-19)
(-0.000123245 7.63613e-07 1.72797e-20)
(-0.000116279 4.98288e-07 4.51883e-20)
(-0.0378689 -0.0532178 -7.20965e-20)
(-0.000178594 1.22954e-05 1.16303e-18)
(0.0188525 -0.0145169 -3.68211e-20)
(-0.000310914 2.43177e-07 -1.88726e-18)
(-5.6986e-06 1.79585e-06 -9.49004e-21)
(-0.00310282 0.138726 -7.73232e-18)
(0.000508832 -0.000422306 3.81755e-18)
(-0.000287135 -3.32907e-06 -5.78977e-19)
(-0.00257076 -0.0073648 -2.9696e-19)
(-0.000639679 0.000632928 -1.80889e-18)
(-0.00510707 -0.0514511 1.55617e-20)
(-0.0400797 -0.00944196 2.98171e-19)
(-0.000212947 6.46772e-05 1.14565e-20)
(0.0219897 -0.0769489 -5.34973e-20)
(-0.000208926 2.70657e-05 -1.48949e-19)
(0.00540482 -0.000551972 8.06448e-18)
(-0.000224864 -1.85528e-05 -1.61256e-18)
(-0.0147403 -0.0355694 -3.31398e-18)
(9.55306e-05 -7.23547e-07 1.49339e-20)
(-0.00280424 -0.059218 1.22189e-17)
(-0.00927447 0.0252031 -2.32079e-20)
(9.79826e-05 4.77545e-06 -8.47485e-21)
(-0.00442267 -0.00649048 -4.1998e-19)
(-0.0177746 0.0181415 2.1125e-18)
(-0.00149814 -0.00362684 -1.27948e-18)
(0.00659599 0.043251 1.38443e-18)
(-0.000237347 1.28358e-06 9.27802e-20)
(-0.0265082 0.188417 2.25208e-18)
(-0.000368912 -2.17522e-07 8.37501e-19)
(-0.000134626 1.13821e-05 -2.82806e-20)
(-0.000143488 3.24915e-05 2.10435e-21)
(-0.000235021 3.27386e-06 1.50434e-18)
(-0.00331537 -0.00108234 1.13268e-17)
(0.000697667 0.00111592 8.58083e-19)
(-0.00248144 0.00229158 -1.16841e-18)
(-0.00391412 0.0130162 -9.67664e-18)
(-0.00606765 -0.0182262 -1.43459e-18)
(0.000151071 -1.76942e-05 -6.17511e-21)
(0.00534036 0.0298595 -6.06566e-18)
(-0.0224704 -0.0882005 1.43421e-18)
(-0.000488398 -0.000126454 -2.72646e-18)
(1.26971e-05 -0.000206105 -4.00651e-18)
(-0.000271202 -0.0426472 -1.44795e-19)
(-0.0118826 0.198008 1.5506e-18)
(0.00306166 -0.00107601 -2.16763e-18)
(-0.000486171 5.11397e-07 4.4181e-19)
(-0.0144568 -0.0323872 8.24742e-18)
(-0.0497536 0.00143632 -1.51326e-17)
(-0.065048 0.0628015 3.00195e-17)
(0.00122879 0.00127828 -6.49026e-19)
(-0.00559022 -0.00712852 1.03215e-18)
(0.0518248 0.0423618 -2.12286e-18)
(0.00284808 0.0194361 2.16018e-20)
(-0.0853097 0.0339341 6.09533e-20)
(0.0327266 -0.0537252 -1.36638e-19)
(0.0646 -0.0573183 4.88756e-18)
(0.000186133 -3.59391e-05 1.65895e-18)
(0.0666478 -0.0522073 -4.22246e-18)
(0.00254761 -0.00131438 1.26606e-18)
(9.37961e-05 -4.01503e-07 2.31123e-20)
(-0.000777629 0.0153819 2.65612e-21)
(0.000503806 0.00119404 -3.02475e-19)
(0.000900355 -0.000233622 -1.04334e-17)
(-8.48807e-05 0.000233866 -3.74955e-19)
(-0.000305353 1.46149e-05 -2.07432e-19)
(-0.000167308 1.77726e-05 2.97944e-20)
(-0.000228088 -1.49654e-05 2.77787e-19)
(0.00518169 0.00159859 -5.23314e-18)
(0.00818848 -0.000613612 3.02283e-20)
(-0.115445 0.115161 -1.22559e-18)
(0.0329083 -0.0861477 -4.07739e-20)
(-0.000134769 2.75275e-06 -6.21439e-21)
(-0.0131423 -0.0320106 1.09203e-17)
(0.00030679 0.000364348 1.71864e-18)
(0.00489865 -0.0349461 -1.28897e-18)
(-0.0219027 -0.0532343 3.05028e-18)
(0.000359883 -0.000136058 2.39061e-18)
(0.000104206 -2.21331e-05 1.85892e-21)
(-7.99253e-05 3.23893e-05 6.82543e-20)
(0.0120081 0.0165713 4.31808e-20)
(0.00357286 0.0306405 9.1625e-18)
(-0.000190382 -5.13115e-05 2.10516e-18)
(-0.000889477 1.12277e-05 -4.47219e-18)
(-0.00303792 -0.000609672 3.78679e-18)
(9.82589e-05 9.36591e-07 2.51032e-20)
(0.0137324 0.00477399 -2.88956e-19)
(-0.0317373 0.201119 -1.29001e-18)
(0.0225369 -0.031575 6.52047e-19)
(0.000292819 0.00437933 -3.92385e-19)
(-0.0031461 -0.00119713 -3.56406e-18)
(0.00263224 -0.00184233 -1.24481e-18)
(-0.000208507 2.90016e-05 -4.82352e-19)
(-0.000229975 -9.24931e-06 -2.48029e-20)
(-0.0622881 0.113519 1.09469e-18)
(-0.000244217 0.00100765 -1.65377e-18)
(-0.00218355 0.00017799 -2.5883e-19)
(0.00024849 -5.98419e-05 1.90847e-17)
(-0.0181358 -0.0198823 1.69093e-18)
(0.000100498 -1.2452e-05 -4.9138e-23)
(-0.000267623 -3.38844e-06 -8.2002e-19)
(0.0534025 -0.0568495 3.34119e-18)
(0.000100282 3.27264e-07 -1.3276e-20)
(-5.39825e-05 0.000225577 9.18079e-19)
(0.000103201 -1.80477e-05 2.07814e-20)
(-0.000219895 6.21778e-06 5.66449e-20)
(0.00329561 -0.0010589 6.85357e-18)
(0.00427198 0.00236273 7.18546e-18)
(0.00602495 0.00360451 -1.66072e-19)
(0.000100167 -2.34427e-06 -3.34904e-22)
(0.0603518 0.0217734 -5.83053e-19)
(0.0370623 -0.0624836 3.00251e-20)
(-0.000158324 2.86699e-05 1.2122e-19)
(2.85583e-06 5.57677e-06 6.71431e-20)
(-0.000109229 -5.00164e-05 -5.6734e-20)
(-0.000493109 -3.98641e-07 -7.69051e-19)
(0.0827559 0.0753802 1.05368e-17)
(0.0174674 -0.0332653 1.31538e-18)
(0.0159273 -0.0424095 2.55273e-19)
(-0.0543713 0.0873335 -1.04783e-17)
(-0.0284296 0.144667 3.99254e-18)
(0.000189468 -6.77144e-05 -1.0131e-17)
(0.0010861 -0.000172789 4.80716e-18)
(8.33751e-05 -0.000673297 6.54584e-18)
(-0.000220161 0.00458123 -3.04372e-19)
(0.000329137 -0.000258701 4.37562e-18)
(0.000104945 -2.20271e-05 5.99248e-21)
(-0.00178914 -0.000776694 7.79544e-20)
(-0.00250272 6.06107e-05 1.89867e-18)
(-0.00505842 0.0153484 -2.41173e-17)
(0.0716093 -0.0754813 6.97828e-20)
(-0.000865431 0.000123218 -4.19921e-18)
(-0.000577124 -0.000482224 2.20378e-19)
(-8.98246e-05 2.49146e-05 -6.54376e-20)
(-0.00158249 0.00228701 -2.35581e-18)
(-0.000189383 0.00150692 -2.7466e-19)
(0.00909231 0.0670548 4.72935e-20)
(0.00106548 0.00168233 1.68396e-18)
(-0.000319373 1.07633e-06 -4.25219e-18)
(-0.00342453 -0.00536445 5.22247e-20)
(-6.3007e-05 2.87767e-05 -3.56594e-20)
(-0.000100312 -0.000277473 2.79698e-18)
(0.00572722 0.00639293 -9.17762e-18)
(-0.000217844 -1.38306e-05 2.53627e-18)
(-0.0002112 3.45232e-05 3.23208e-20)
(-0.00348242 0.00376794 -1.38783e-19)
(-0.000210575 -1.28037e-05 3.03157e-18)
(0.00461329 0.0010504 3.08309e-18)
(0.0293845 -0.00648331 -9.17223e-19)
(0.00262664 0.00581117 -1.57565e-18)
(-0.00110544 0.00303479 -1.48373e-19)
(-0.0022415 -8.89894e-05 3.44307e-18)
(-9.0998e-05 2.28049e-05 -6.53808e-20)
(0.0267035 -0.0330682 -1.92437e-18)
(0.00745906 0.000134165 1.92381e-19)
(-0.0436428 0.0769201 -7.88824e-18)
(-0.000321051 -4.81707e-05 1.63873e-19)
(-5.21544e-05 2.30371e-07 1.95419e-20)
(0.00276941 -0.00447739 -1.12531e-18)
(-0.000197045 -0.00064209 2.23125e-19)
(-0.056658 0.0113964 -1.9691e-17)
(0.000351283 -0.00080387 -7.11096e-18)
(-0.0259109 -0.00899362 7.63828e-18)
(-0.12405 0.124495 -2.62991e-18)
(-6.12954e-05 3.57797e-05 1.25795e-19)
(0.00179284 -0.00454511 2.90744e-19)
(0.000513321 0.000109565 -1.79329e-20)
(-0.000204893 7.90351e-06 1.94101e-20)
(9.59612e-05 -2.18717e-06 2.68439e-20)
(-0.000217757 5.628e-06 -2.03064e-20)
(0.002196 0.000441879 -3.15792e-21)
(-0.00219708 -0.00391322 -1.0056e-18)
(0.00519362 0.0043696 8.53584e-20)
(0.000101295 -3.34084e-06 2.26475e-20)
(0.0551969 -0.00494438 -3.65905e-18)
(-0.0136139 0.0257633 -9.3919e-21)
(0.0564253 0.00063421 3.34189e-18)
(-0.000151003 3.58742e-05 -1.78839e-20)
(9.76216e-05 -5.89038e-06 1.93271e-20)
(6.29737e-05 3.35784e-07 5.51733e-20)
(0.0138275 0.00402208 -3.69237e-18)
(0.0728853 0.0337889 6.98854e-18)
(6.5025e-05 0.000340544 9.88838e-18)
(-0.00010252 -0.00030658 -4.93576e-19)
(0.00051872 0.000209765 1.35772e-20)
(-1.85267e-05 1.52917e-06 1.03386e-19)
(-0.000139862 1.87766e-06 -2.80784e-20)
(-0.000152936 3.37806e-05 3.68655e-20)
(-0.00701124 0.00299932 -1.67045e-18)
(-0.0383305 -0.129263 -2.40685e-19)
(-0.00022689 -1.16072e-05 -3.31651e-18)
(0.000101303 -6.35263e-06 1.91707e-20)
(-0.0002367 8.94102e-06 -1.9595e-18)
(-0.000165803 2.7707e-05 4.53509e-21)
(0.0119202 -0.0577264 -8.36028e-19)
(-0.00173942 -0.0642783 1.49089e-17)
(-0.00193276 0.00208886 1.35079e-18)
(-0.0129967 0.0266818 -4.95777e-18)
(-0.0353363 0.225912 -5.4437e-18)
(-0.000209988 3.27108e-05 -5.66981e-19)
(-0.00216752 0.0025319 3.48026e-18)
(0.115243 0.0772691 4.39063e-18)
(0.000396837 -0.000239196 -1.44355e-19)
(0.023164 -0.127733 -6.62756e-18)
(-0.00018517 -2.54869e-05 3.97774e-18)
(-0.000466857 -0.00269789 -1.49727e-19)
(0.000119511 0.000331654 -3.53435e-18)
(-0.00139256 -0.00285804 -4.03166e-20)
(0.0276814 -0.065279 -2.30086e-19)
(-0.000293079 -2.33525e-06 1.27621e-18)
(0.0378462 0.083506 -1.61425e-18)
(6.68997e-05 -1.16146e-06 4.02218e-21)
(7.32888e-05 7.4089e-05 -1.12426e-18)
(0.000245624 -0.000471705 -1.44058e-18)
(2.57305e-05 0.000111504 -2.3079e-19)
(-0.000423287 -0.000379204 -2.16073e-19)
(-0.0208232 -0.0155451 -8.26981e-19)
(-0.000133115 1.29056e-05 -9.60367e-22)
(-0.000458776 -2.89272e-05 2.31134e-18)
(0.0584494 -0.0512529 -6.96082e-21)
(-0.0377045 0.0546106 9.20344e-19)
(0.00131864 0.00153148 6.88506e-20)
(0.0108153 0.021465 -1.34552e-18)
(0.000583215 -0.0400764 -3.58585e-19)
(0.000102645 -1.82645e-05 5.23933e-20)
(-0.000152044 3.40324e-05 -5.01493e-21)
(-0.00350143 0.140957 -8.14772e-18)
(-0.00281086 -0.000631156 -3.48796e-18)
(0.0116045 -0.0049107 9.8225e-19)
(0.000485578 -0.000637714 6.752e-18)
(-3.92487e-05 2.85468e-05 1.99407e-20)
(-0.000502002 1.19971e-06 -3.62343e-18)
(9.28761e-05 1.29636e-06 4.54075e-22)
(-0.0111312 0.0671534 -1.40788e-18)
(-0.00437304 -0.00211183 -2.2474e-18)
(0.000594957 0.0006336 -1.15509e-19)
(-0.000127071 0.000173724 1.26758e-19)
(-0.0143449 0.0283754 -3.15324e-19)
(-0.000164199 -0.000129803 2.15693e-18)
(6.79211e-05 -9.7959e-08 -8.9808e-20)
(-0.0209358 -0.0260335 5.63379e-18)
(-0.0673385 -0.00690437 3.43854e-19)
(-0.00196191 0.00154704 1.36595e-17)
(9.63922e-05 3.8163e-06 1.06607e-19)
(-0.000223729 -1.53038e-05 -2.80187e-20)
(0.00116617 -4.95007e-05 8.17437e-18)
(0.00301919 -0.0600796 -9.92961e-18)
(-0.00220103 -0.00106489 6.61264e-18)
(-6.98911e-05 0.00118971 3.24695e-20)
(0.00467987 -0.00247573 8.82806e-18)
(-0.0002876 5.63647e-06 -4.50069e-18)
(-0.0220408 0.0239658 -8.63898e-20)
(0.0138607 -0.0171722 -1.49974e-18)
(0.000123935 -0.0104527 3.4417e-19)
(-0.00034699 0.000351812 -1.32296e-18)
(-0.0327768 -0.00780973 -7.28664e-18)
(0.00325655 -0.00400705 5.18168e-19)
(0.00207854 0.000871352 5.26155e-20)
(-0.00464648 -0.00281865 2.3298e-18)
(-5.28014e-05 2.03938e-07 2.19057e-20)
(-0.00027095 4.02321e-07 -3.06783e-19)
(8.25452e-05 -6.4848e-05 2.06167e-18)
(-9.03728e-05 2.69424e-05 1.17968e-19)
(-0.0217459 -0.0272731 -4.15982e-18)
(-0.00160696 -0.000315791 -4.14998e-19)
(-0.000279424 0.00439056 9.14701e-18)
(0.00488789 0.00423205 -6.37736e-20)
(-0.00831809 0.019014 -9.45561e-20)
(-9.51045e-05 2.13175e-05 1.27778e-19)
(0.0764938 -0.0614172 -3.70804e-19)
(-0.000176003 3.42971e-06 -5.64659e-20)
(0.00253973 -0.00469969 -5.86234e-20)
(9.61506e-05 -2.25372e-06 5.56525e-20)
(-0.000210271 3.42074e-05 6.36599e-19)
(-0.000287934 4.36043e-06 9.59271e-19)
(-0.000695378 0.00160278 -3.32724e-18)
(-0.000171534 1.17826e-05 -6.89948e-21)
(8.93762e-05 4.71828e-06 -6.63074e-21)
(-0.080909 0.077141 -3.69901e-19)
(-0.000222923 -8.54065e-06 -5.94066e-19)
(0.000973103 -4.73765e-05 -2.11795e-18)
(4.95923e-05 -4.29674e-07 2.85872e-20)
(-0.00105276 0.00101098 -1.21986e-19)
(-0.000279906 0.000783375 -1.73057e-17)
(0.0215484 -0.0617526 8.29674e-19)
(0.0355936 -0.0448632 -5.05966e-19)
(-0.000133519 2.19317e-06 5.20096e-20)
(0.0500035 -0.0184709 -5.46595e-19)
(-0.00986036 0.0303511 5.43182e-18)
(-0.000170552 1.79877e-05 -1.52017e-18)
(0.000494446 0.00179442 -5.27788e-18)
(7.95692e-05 6.48914e-05 -2.99274e-18)
(-8.28771e-05 2.91246e-05 1.22214e-19)
(0.010626 -0.00162962 -2.69756e-19)
(-0.0151411 -0.027472 2.54162e-17)