/*--------------------------------*- C++ -*----------------------------------*\
| =========                 |                                                 |
| \\      /  F ield         | OpenFOAM: The Open Source CFD Toolbox           |
|  \\    /   O peration     | Version:  v2012                                 |
|   \\  /    A nd           | Website:  www.openfoam.com                      |
|    \\/     M anipulation  |                                                 |
\*---------------------------------------------------------------------------*/
FoamFile
{
    version     2.0;
    format      ascii;
    class       surfaceScalarField;
    location    "850";
    object      meshPhiCN_0;
}
// * * * * * * * * * * * * * * * * * * * * * * * * * * * * * * * * * * * * * //

dimensions      [0 3 -1 0 0 0 0];
oriented        oriented;


internalField   nonuniform List<scalar> 
20537
(
0.00103254
4.78852e-05
-0.00108809
-0.00130262
0.000961465
0.000341007
0.000131442
0.00050549
-0.000637249
0.00170686
-0.000929331
-0.000784385
-0.000381053
-0.000242784
0.000623626
-0.00090894
-0.000319196
0.0012254
0.00121691
-0.000976281
-0.000256047
-0.000378191
0.000771822
-0.000394257
0.000502257
-0.000658215
0.000137618
-0.000885042
0.000393456
0.000491132
0.000122422
-0.000333288
0.000209945
0.000598302
3.29709e-05
-0.000631323
-0.000290864
0.000371531
-8.06898e-05
-0.000154216
-0.000230162
0.00038438
9.30638e-05
0.000251249
-0.000411457
0.000526417
0.000365108
-0.000893126
-0.00117915
0.000346871
0.000829015
0.000146045
0.000806767
-0.000955954
-0.000242818
-0.000202172
0.000444938
0.000636983
-0.000153896
0.000771621
0.000923756
0.000743071
-0.000611986
2.18645e-05
-4.4801e-06
-2.44657e-05
-5.36705e-05
5.68932e-05
-3.31691e-05
3.0011e-06
1.17893e-05
0.00039493
-0.000773825
-0.000912561
0.000731474
0.000178646
0.000149801
7.61204e-05
0.00137971
-0.000355076
0.00133057
-0.000199216
-0.00113663
0.000294784
-0.00120618
-0.000627508
-0.000554503
0.00079465
-0.000289537
0.000424523
0.000260977
-0.000686137
3.90222e-05
-0.000123853
0.000272369
6.41586e-05
-0.000336558
-0.000377406
0.000185634
0.000191759
-0.000280215
-0.000248679
0.000528807
-0.000646292
-0.000239096
0.000926857
-0.000503062
0.00130844
-0.000734363
-0.000591338
-4.40145e-05
-1.45628e-05
5.61824e-05
-0.0001931
6.45225e-05
0.000128577
-0.000232739
-8.70733e-05
0.0003194
7.54624e-05
-0.000308517
-0.00030731
0.000174451
0.000132858
-8.89248e-05
0.000312257
-0.000223261
0.00113611
-0.000329799
-0.000807118
-0.00070068
-0.00021406
-0.000847654
0.000732175
0.000111435
0.000319349
-0.000566691
0.000247166
-0.000243348
0.000485691
-0.000242405
-7.58146e-05
0.00018283
-0.000107015
-4.25505e-05
0.000181756
-0.000203155
4.46628e-05
0.00012564
-0.000230926
1.2818e-05
-5.90518e-05
1.83434e-05
-8.76374e-05
5.3054e-05
0.000103988
0.000133505
-0.000237493
0.00108786
0.000236498
-0.00100594
0.00123265
-0.000240628
-0.000541415
0.000261101
0.00029551
7.33561e-05
-0.000368879
-0.000440328
-0.000756959
0.00119504
0.000229048
0.000295909
-0.000525086
-0.00104142
0.000206128
0.000834503
-0.000336324
0.00118354
-0.000852605
-0.000207301
-0.000170115
-5.50864e-05
0.000318066
-0.000380048
-0.000375299
0.00075456
0.000991588
-0.00084893
0.000176497
-3.48527e-06
-0.000173012
-0.000133995
-0.000165707
0.000299695
-0.000801582
-0.000501124
-0.000292634
0.000175443
0.000332791
-6.35859e-05
-0.000323068
-0.000221399
-0.000405846
0.000615361
0.000195024
0.00054782
-0.000163048
0.000233052
-7.00043e-05
0.00071036
-0.000413624
-0.000297174
3.73439e-05
-0.000189842
-0.00123307
0.000370358
0.000851888
-1.80372e-05
2.65333e-05
-8.43252e-06
0.000816411
-0.00114475
0.000296753
-0.000169968
0.000302799
-0.000132832
0.000671858
-0.00111448
-4.82941e-05
0.000646544
0.000332315
-0.00118684
0.000851141
-0.00080676
0.000622711
0.000183855
0.000811865
7.49565e-05
-0.000889387
-0.000496195
0.000383278
0.000105087
0.000411802
-0.000139461
0.00146756
-0.000845901
-0.000626746
0.000215643
0.000899295
-0.000471096
-0.000429586
0.00123265
-0.000423582
4.21193e-05
6.79562e-06
-6.53859e-05
-0.000554272
0.000173031
0.000345303
-0.000281664
-6.36443e-05
-0.000674768
-0.000176523
3.51239e-05
-1.24159e-05
0.000293441
-0.000307086
1.36482e-05
-0.000398167
-0.000250791
0.000648622
0.00132726
-0.000569234
-0.00076684
0.000599081
-0.000835936
3.67415e-06
-5.69239e-06
6.43851e-07
-0.000334854
-0.000805574
0.00113706
0.00031218
0.000254292
-0.000566732
-2.51201e-05
-6.20278e-06
2.96467e-05
0.000163707
-0.000268938
-0.00119166
0.000869811
-3.89966e-05
3.68145e-05
-1.85389e-05
-0.000368194
-0.000136005
0.000811513
0.000650954
-1.47432e-05
-1.38932e-05
-8.80484e-05
2.689e-05
-0.000493138
0.0010615
0.000208877
0.000136418
4.30116e-05
-3.0243e-05
-1.52544e-05
-7.46423e-05
-4.5895e-05
7.8015e-05
-0.000193741
4.05001e-05
0.000101406
-0.000190474
-2.62562e-06
-0.000458199
0.00105444
0.000109494
-0.00040038
0.0011323
0.000346805
0.000787974
-4.65087e-05
0.000214729
-0.000171633
0.00115731
-0.000811794
0.000534636
-5.47411e-06
-0.000529499
0.00151354
-0.000751147
-0.000200788
0.000454888
-0.000254184
0.000538906
0.000748579
0.00016749
-0.000566958
0.000370665
-2.37643e-06
0.000178873
-0.000225089
0.00100791
0.000584257
-0.000134323
-9.32029e-05
0.000193153
1.76311e-05
2.21459e-05
-0.000154507
-0.000154376
0.000308876
0.000491209
-0.000304825
-0.000186386
0.00027522
-0.000530798
0.000255604
4.41488e-05
0.000249294
-0.000179886
0.000158619
0.00095338
-0.00041232
-0.000550114
1.08714e-05
0.000100712
-0.000114487
0.000522845
-0.000999658
0.000472137
-0.000316917
0.000229393
-2.21827e-05
9.64606e-07
2.05044e-05
-0.000527786
0.000326883
0.000939376
0.000258165
0.000292424
-0.000217254
0.000510902
-0.000236732
0.000140253
1.63461e-05
-0.000211458
0.000187628
-0.000341841
5.93494e-05
-5.51463e-05
-1.41086e-05
-0.000730779
0.000741163
-0.000611773
0.00112938
-0.000150521
0.000887253
-0.000755285
-0.00093942
0.00115218
-0.000218236
-0.000385737
0.000142329
0.000567694
-0.000248536
-1.42899e-05
1.40928e-05
-1.52493e-07
0.000802312
-0.000436517
-0.000366871
-0.000100333
0.000204321
0.000465833
-0.00032431
-0.000959018
-0.0003173
0.00127256
1.25742e-05
-0.000105825
8.99943e-05
-4.39161e-06
-1.82786e-05
-0.000714693
0.000333899
0.000839661
0.000664282
0.000184704
-0.000294531
0.000109824
-0.000181459
1.84109e-05
0.000273138
-6.13224e-05
-0.000227599
-0.000902334
0.000733734
0.000537986
-0.000262747
0.000134118
0.000304767
-0.00112096
0.000790292
-0.000195361
0.000729542
0.000494763
0.000250694
-0.000752689
-0.000473849
0.000230985
2.53307e-05
7.04263e-06
-3.37319e-05
-0.000367938
0.00101399
-0.000648321
-0.000288509
-0.00103085
0.000709437
0.000289293
-0.000553727
-5.84786e-05
-4.63412e-06
4.10161e-06
1.10089e-07
2.93571e-05
1.63766e-06
-4.21063e-05
-0.00118052
0.000838897
-0.000209347
-3.82666e-05
0.000268769
0.000284983
-0.000553918
0.000642396
-0.000870476
0.00022746
0.000229177
-0.000191534
0.000115719
0.000452522
-7.56812e-05
-0.000383065
-0.000406373
-0.000300242
0.000705889
-0.000181164
0.000476656
-1.93578e-05
-0.000824824
0.000839556
0.000299227
0.000645189
-0.000831614
0.000272171
0.00055852
-0.000428854
0.000914687
0.000415338
-0.000648708
-0.000224698
0.000174638
-0.000369837
0.000180686
0.000189148
2.63637e-05
-9.44412e-05
2.09413e-05
-0.000430625
0.000963693
-0.000561154
-0.000839221
0.000393637
0.000445016
-0.000236946
-0.000824927
0.000574815
-0.000389775
-0.000185058
-0.00105059
0.000974914
7.27846e-05
0.000134439
-0.000241744
0.000107304
2.2417e-05
-1.68595e-05
-6.3954e-06
0.000284568
-0.000212233
-7.23379e-05
0.000939991
0.000376765
-0.000297879
0.000861453
-0.000563608
-1.79003e-05
-5.2624e-06
2.18908e-05
-2.60394e-05
-8.53666e-05
0.000108418
8.77042e-05
-0.000284078
0.000195049
-0.00128641
0.000447525
0.000836199
-0.000139792
-0.000167519
-0.000666953
0.000392343
0.000226561
-9.04228e-05
0.000224861
-0.000289316
-0.000763521
-0.00103828
-0.000204191
0.00029767
-0.000170178
-0.000127497
0.000482457
-0.000176605
-0.000305929
0.000283781
-0.000164865
-0.000118918
-1.71509e-05
-1.05882e-05
1.73314e-05
0.000895885
-0.000605432
-0.000291719
-9.95336e-07
2.95258e-06
-0.000135802
0.000191439
-5.56373e-05
7.42179e-07
-1.93671e-05
-0.000452957
0.000847132
0.00032962
0.000609483
-0.00093975
0.000215215
4.22902e-05
7.79936e-05
-0.000210707
-0.000336137
0.000546656
-0.00112324
0.00085084
0.000270611
0.000445471
0.000129323
-0.000841899
-0.00020002
0.000112072
-0.000104381
0.000414461
-0.000870409
0.00119193
-0.000899604
-0.000774095
4.27581e-05
0.000729636
-1.25427e-05
1.88078e-05
-6.42477e-06
-0.000368878
-0.000470815
-5.95935e-06
-1.33272e-06
0.0001532
-0.0002192
6.59994e-05
0.000164895
-0.000563358
0.000254577
0.000536542
-0.000791128
-0.000384889
-0.000685167
0.00106514
-0.00101742
0.000868014
0.000146317
-0.00021157
-0.000674524
0.000880252
-0.000110459
-0.000664108
0.000956027
-0.00102803
6.42473e-05
-0.00100125
0.000750541
-0.000438873
-0.000311964
0.000229195
-0.00110764
0.000877117
-0.00033154
0.000973185
-0.000276517
0.000122134
0.000243909
-9.07296e-05
-0.000153179
-0.000965106
0.000687448
0.000239588
8.31622e-05
-0.000159686
-0.000944366
0.00110036
-0.000702976
0.00116141
-0.000459159
-9.03035e-05
0.000240788
-0.000154951
0.000164656
0.000247159
-0.000411852
-0.00072989
0.000706513
5.44025e-06
0.000942891
4.12847e-05
0.000856657
0.000128193
0.000169471
-0.000356896
0.000409781
-5.57429e-05
-0.000876045
0.00065861
-0.000843151
-0.00054134
0.00113492
-0.000594955
0.000364568
0.000345314
-0.000495523
0.00102017
-0.000237429
-0.000357025
1.98848e-06
-2.00244e-05
6.93581e-05
-0.000237212
0.00016618
0.000291212
-0.000181558
-0.000109656
0.000264631
-0.000143021
-1.34134e-05
1.14363e-06
1.53256e-05
-7.31867e-06
-9.09567e-06
3.17447e-06
1.83039e-07
-4.36719e-06
0.000327233
0.000422995
-0.00112184
0.000418254
0.000286338
0.000885221
-0.00117187
0.000772751
-0.000434691
-0.000354618
0.000515058
7.91055e-05
-0.000643294
-0.00112727
0.000584577
3.34008e-06
-8.35887e-06
5.36205e-06
-0.000271922
-0.000255953
0.00114655
-6.35292e-05
-0.000982173
-3.55252e-05
0.000386149
0.000303899
-0.000690699
-1.17668e-05
1.53e-05
0.000442736
-0.00027812
-0.00109586
0.000985269
0.000108527
-0.000714486
0.000666137
-0.000350027
-0.000203208
0.00052923
-7.50983e-05
0.000228297
0.000735503
6.57149e-05
0.00109991
-0.000756006
0.000284094
-0.000206844
-7.72517e-05
0.00137554
-0.000439052
-0.000947698
0.000830973
-0.0011692
-7.4838e-05
-0.000220178
0.000295014
0.000303052
0.000450832
0.000715612
-0.000443354
-0.000272649
0.000451536
-0.000924301
0.000978225
0.000163016
0.000317618
0.00017358
-0.00056185
-0.000535972
0.00064552
0.000303119
-0.000956624
0.000220568
5.33623e-05
-0.000273937
2.15134e-05
-7.73491e-05
5.31281e-05
-0.000982802
-3.68937e-05
2.48151e-05
-0.000243769
0.000215867
0.000125746
0.000165463
0.000188509
-0.000407954
0.000219397
-0.000271444
-0.000440133
0.000224791
-0.000580519
0.000355423
0.000785129
-0.000214365
-0.000618393
5.47757e-05
0.000189133
0.0011778
-0.00071753
-0.000466018
2.06616e-05
3.90196e-06
-3.31445e-05
1.66138e-05
-0.000726482
0.000696883
-0.000246722
0.000435175
0.000433571
0.000460952
0.000502417
-0.000925546
0.000419264
0.000557881
0.000304658
0.00105817
-0.000507721
0.00114387
-0.000243186
-9.09093e-05
0.000182881
0.000190778
-0.000182275
0.000339261
-0.000156991
0.0012083
-0.000449094
-0.000762584
0.000167546
0.000116545
0.000488615
-0.000218433
-0.000270215
-0.00026045
-0.000691436
0.000284365
0.000209993
-0.000482001
-0.000118888
-0.000753151
0.00086783
-0.00117224
0.000499383
0.000671238
-0.000440403
0.000158981
0.000281358
0.000240517
-0.00106214
0.000177624
0.000877887
-0.000793357
0.00112909
-0.000335867
0.000256112
-0.000155937
-0.000100177
0.000294787
-0.00011136
-0.000162771
0.000286443
-0.000125656
-0.000308609
0.000143758
-0.000300096
0.000562226
-0.00026223
0.00096732
-0.000468757
-0.000698896
-0.000474421
-0.000185838
5.00357e-05
-0.000159729
-0.000759863
-0.00111515
0.000321748
0.000707134
-0.000703518
0.000148627
0.000583328
-8.60161e-06
1.2943e-06
-3.36765e-05
7.04257e-06
-0.000862166
0.000253758
0.000586802
0.000161786
9.43242e-05
6.56886e-05
-0.000547589
0.00048109
-0.000841482
-0.000177402
0.00100109
0.000345665
0.000369453
-8.15965e-06
-7.05232e-05
7.59543e-05
-6.79181e-05
-0.000646632
-0.000132097
-0.000761058
0.000891815
0.00122937
-0.000120374
-0.000149944
0.000334643
-0.00101974
0.000161267
-0.000362613
-0.000924733
-0.000966297
0.000624764
0.000339974
0.000898481
0.000330497
0.001262
-0.000517115
-0.000766707
-3.36039e-05
8.1277e-07
-0.00123019
0.00094145
0.000283571
7.40337e-05
-0.000233414
0.000159382
6.35275e-05
0.000548074
-0.000230465
-0.000969642
-0.000147806
-0.000292651
-0.000118438
-0.000176096
0.000148829
-0.000297013
0.000146681
0.000307961
-0.000160664
0.00112071
-0.00066503
-0.000461271
0.000198766
-0.000481248
0.000257633
-0.00012809
-8.54382e-05
0.000145755
0.000394076
0.000810597
0.000523128
-0.000298571
0.000167463
-0.000397619
0.000195972
0.000448644
-0.000645316
0.000137812
0.000145967
-0.000159445
0.000282066
-0.000122623
-6.5996e-05
5.5788e-05
-0.000824705
-0.000171416
-0.000332223
0.000187028
-2.42548e-05
-0.000162773
0.00091958
-0.000590639
-0.000150857
0.000359726
-0.000310764
-0.000924421
-0.000428998
-0.00053869
-3.70915e-05
-8.6062e-06
3.06198e-05
0.000253753
0.000234821
0.000286845
0.000109215
-0.000411359
0.000811593
-0.000447699
0.000406952
0.000707474
-0.000323065
-0.000769797
0.00107568
2.4525e-06
0.000713597
-0.00042776
7.38761e-05
-6.37044e-05
-0.000252756
0.000481691
-0.000846667
0.00111085
-0.000265637
-0.000226959
0.000239499
-1.25397e-05
-0.000835447
0.00125183
-0.000420381
-0.000268584
0.000814443
-0.00115314
0.000334906
-0.000698772
0.00058792
-0.000319772
0.00103546
-0.000718377
0.000275184
-0.00057539
0.00034584
0.000750919
0.000259475
-0.000173069
3.78399e-05
-2.33247e-05
0.000252579
0.000442972
2.37244e-05
-5.604e-06
0.000269119
0.000259153
-0.00052836
0.000735551
-0.00024524
-0.000490213
-0.000279543
-0.00028558
0.000565023
0.00113757
-0.000326675
-0.000172184
-0.000537645
0.000798018
0.0011599
0.000121782
-0.000498398
0.000287544
0.00048732
0.000751934
3.78343e-06
-0.000704412
1.43054e-06
6.01474e-06
-1.01369e-05
-0.000280873
0.000647373
-0.00036661
-0.000783909
0.000118547
0.000663999
-0.000757691
0.000418127
0.000339167
-0.000134345
0.000219126
-8.47808e-05
0.000436256
-0.000873967
-6.07243e-05
0.000208829
-0.000149535
-0.000157258
-0.000627169
0.000252417
8.43588e-05
-4.77404e-06
-6.06199e-07
0.000444231
0.000373888
-0.000819281
-0.00060937
2.08494e-05
-0.000379899
0.000255044
6.64823e-05
-0.000337185
-0.000382734
0.00108003
-0.000706284
0.000265648
0.00053835
-5.27206e-05
0.00126179
-0.000523325
-0.000741589
0.000274068
0.000380742
-0.000654778
1.31522e-05
-4.11156e-05
9.72421e-05
-0.000835703
0.000102328
0.000119139
-0.000221467
-0.00115629
0.000194229
9.49492e-06
5.31902e-06
-0.000362083
-0.000444813
-0.000244655
0.000419613
-0.000887976
-0.000467254
0.000316638
0.000132729
0.0011343
-0.000950407
-0.000185672
-0.00113419
0.000874523
0.000253555
1.40726e-05
-0.000421119
0.00084865
0.000359916
-0.000139357
-0.000634158
-0.00053683
0.000366539
0.000321581
-0.000688734
-0.000281264
0.000113118
-0.00112705
7.62403e-05
0.00104671
-6.60879e-05
0.000237312
-0.000172457
-1.75645e-05
-1.14499e-05
0.000247868
-0.00101418
0.000750563
1.37084e-05
-5.25047e-05
1.23297e-05
-0.0011863
0.000364924
0.000820218
-0.000979446
0.00112637
-0.000156203
-0.000859557
-0.000330412
0.000982065
-0.000305114
-5.31919e-05
1.63859e-06
0.000363137
-0.000204294
-0.000158842
-0.000199069
6.47239e-05
0.00103039
-0.000774842
-0.000281978
5.07303e-05
-0.00118246
0.000621586
-0.000943873
0.000748182
-0.000706961
0.000118782
-0.000288751
-0.000605354
0.000692472
0.000477258
-0.000412358
-0.00124832
0.00071015
-0.000289
0.000580415
-0.00029161
0.000774922
-0.00112497
0.000335175
-7.85377e-05
0.000195249
-0.000116712
-3.0402e-05
1.04004e-05
1.72036e-05
0.000179875
2.95468e-06
-0.000486194
-0.000398349
0.000883902
-6.32722e-05
4.63701e-05
-0.00112594
0.00117194
-9.79758e-05
0.000310873
-0.000212901
0.000272851
-0.000726419
0.000286483
9.67366e-05
-0.000383298
4.83195e-05
-0.000163656
-0.000708576
-0.000381944
0.00109008
-6.75104e-05
0.000129465
-0.000402203
0.000126477
0.000251456
-0.000194438
0.000568863
-0.000399194
-0.000279481
-0.000801008
0.00106254
8.88897e-05
9.81384e-05
-0.000295168
-0.000271438
0.000566405
0.000198421
-0.000424953
0.000226479
0.00015906
0.000180367
-0.000339449
0.00111682
-1.2725e-05
-2.04122e-06
-0.000307604
0.000410328
-0.000102752
0.000240494
0.000494607
-0.000937981
0.000567978
-0.000785458
0.000347678
0.000226132
0.000519954
0.000770324
0.000362065
0.000113626
0.000170938
-0.000153612
0.000139546
-5.4618e-05
0.000137459
-0.000215997
0.000293232
-0.000220313
-0.000149527
-0.000881558
-0.000896229
-0.000233368
0.000291108
0.000809194
0.000157613
-0.000219811
-0.000978604
0.0012063
-0.00059997
-0.000231638
-0.000282771
0.000590107
-0.000307432
0.000214025
-0.00115883
0.000336068
-0.000618921
-0.000238678
0.000356661
-0.000117991
-1.30945e-05
-2.02798e-05
0.00022533
0.000272329
-0.000207368
8.453e-05
0.000122838
0.000326839
-0.00101652
-0.000762588
0.000854996
-0.000128636
0.000618935
0.000248423
-0.000780634
0.000934587
-0.000172079
0.000546432
-0.000277824
-0.000846575
0.00112322
-0.00027841
0.000985894
-0.000363411
-0.000380991
0.000655074
0.00014601
3.65828e-05
-0.000209149
0.000233206
-0.000130878
-0.000235371
0.000113773
0.000121598
0.000312969
0.000820125
-0.00113586
0.000785933
-0.00054573
-0.000348809
-5.00762e-06
-3.42157e-06
8.16765e-06
-0.000423172
-1.75178e-05
2.50915e-05
-7.58109e-06
7.76644e-05
-0.000385291
0.000183174
-0.000916656
0.000309969
0.000157596
-0.000467641
0.000334192
-9.05759e-06
-0.00032516
4.99848e-05
-3.93193e-05
0.000871345
0.000269427
-0.00114399
-0.00113346
0.000336976
0.00079617
0.000186324
0.000375762
-0.000211144
-0.000273413
0.000484458
0.000170552
-8.16625e-05
0.000311991
-0.000167427
-0.000144571
-0.00072911
-0.00109796
0.000757776
0.000435616
0.000423981
-0.000859625
-0.000234285
-0.000222563
0.00042599
-0.000203471
0.000592175
-0.000396771
0.000392664
-0.00115164
-1.0066e-05
-0.000763044
0.000842478
-0.000111384
0.000309134
9.67456e-06
3.83472e-05
-0.000711546
0.00103376
2.6435e-05
-2.07106e-05
-0.000432503
0.000297078
0.000101694
1.69741e-05
-0.000255659
-0.000258513
0.000652816
0.000480394
3.95303e-05
-3.16467e-05
0.000293835
0.000254232
-0.000506849
0.000778105
0.000209115
-0.00053425
0.000301543
5.45611e-05
1.22413e-05
-7.89846e-05
-0.000227858
0.000133285
9.43101e-05
-0.000170776
0.000244811
-0.000511223
0.000765756
-0.000809359
-0.000340622
0.000120307
0.000389555
-0.00109852
-0.00078187
0.000379632
0.000401419
-0.000128684
-7.86841e-05
-9.37989e-05
-0.000147945
-0.00084475
-0.000222859
-0.000727182
0.000351132
-6.53505e-06
1.38308e-06
-0.000202955
-0.00053369
0.000950747
-0.000418285
-0.000358141
0.000177275
0.000180854
0.000765026
0.000363583
0.000497086
-0.000187197
0.000319711
-0.000759641
0.000438509
0.000600073
-0.000237149
-0.000381736
-0.000385958
-0.000587241
0.000971543
0.000831692
-0.000282059
-0.000557239
0.000373693
-8.72439e-05
0.000283208
0.000244893
-0.00052826
0.000703848
0.000243634
0.000770486
-0.00122294
0.000318732
-8.00114e-05
-0.000856616
0.000161065
0.000694241
0.000186581
-0.000466204
0.000370025
0.000847193
0.00113773
-0.000671464
-0.000830224
0.00069693
0.00119929
-0.00036624
-0.000844343
0.000303464
-0.00029208
0.0005611
0.000417345
6.50487e-05
-0.00033185
0.000986433
-0.000656241
-0.000396258
0.000173655
0.000222025
0.000359389
0.00112873
-0.000459218
-0.000670703
0.000498264
-0.000285207
-5.54164e-05
0.00126778
-0.000339497
-1.19884e-05
4.73795e-05
-5.54535e-05
0.000281256
-0.000117554
0.000972915
3.41477e-05
-0.00101266
-0.000213756
9.53165e-05
0.000176901
6.67769e-05
-0.00024368
0.000300671
-0.000168867
-0.000131805
-0.000854479
0.000492242
0.000367224
-9.50488e-05
0.000115543
-1.20428e-05
-1.58899e-06
-0.000472729
1.76725e-05
0.000423286
2.20127e-05
-1.41815e-05
-0.000384955
-8.06272e-05
-8.93051e-07
5.4072e-06
-4.63772e-06
-0.00122306
0.000383991
0.000811389
0.000320898
7.52471e-06
3.03533e-05
-0.000351972
0.000564403
-0.000212485
-0.000818341
-0.000468189
0.000116176
0.000767417
-0.000226726
-0.000560082
1.30241e-05
-5.45492e-06
-9.34089e-06
-1.38298e-05
2.36358e-05
-1.55254e-05
0.000625185
-0.0004153
0.000440917
-0.000243577
-0.000197359
0.000583727
-4.78126e-05
-0.000536133
-0.000816603
-1.26118e-05
1.93768e-07
2.90043e-05
-5.05805e-05
-0.000153143
0.00010172
2.40855e-05
0.000901039
-0.000209125
-0.000704155
0.000307233
8.66607e-05
-0.000393912
-0.000314145
-0.000262318
0.000576471
0.000792311
0.000394845
3.42679e-05
-2.84325e-05
-0.0010713
0.000774403
-0.000124726
0.00100738
-0.000394029
-0.000296677
0.000690554
8.94115e-05
-0.000196559
0.000107147
-0.000883012
0.000233874
9.89562e-05
-0.000332837
0.000731472
-0.00111389
0.000387598
0.000728071
-0.000240248
0.000438607
1.9005e-05
-0.000341711
-0.000526319
0.000559245
0.00116074
-0.000801134
0.000828649
-1.65497e-05
0.000600028
0.000303434
0.000261373
0.000764129
0.00117868
-6.94484e-06
5.65442e-06
0.000699873
-0.000639972
0.000133394
8.57315e-05
0.000662122
-0.000196162
-0.000477222
0.000180232
-0.00102753
0.000841426
-0.000777563
0.00116815
-0.00013351
-0.000292291
0.000383988
-0.00122867
9.96402e-05
-0.000231898
0.000465692
-0.000233783
0.000563911
-0.000280873
-0.00020017
0.000447285
-0.000294364
-3.97286e-06
2.00089e-05
0.0002206
0.000526532
0.000193247
0.000169892
1.50185e-05
0.00031915
-0.000277069
-0.000847811
0.00023628
-5.93797e-05
0.000493786
-0.000165131
-0.000343066
-0.000133055
3.09132e-05
3.5638e-05
2.17077e-05
-0.000720649
0.00110991
0.000200117
-0.000337291
0.000137164
0.000213632
-0.0010398
0.000822879
-0.000359849
0.00113126
-0.000781035
-0.000236419
0.000169053
0.00104218
-0.000774756
-0.00027033
1.19091e-05
-3.05325e-05
-0.000111336
0.000253836
-0.0001425
-0.00108911
-1.92468e-05
-0.000123767
-9.4572e-05
0.000218338
-4.43245e-05
0.0011991
-0.000419665
0.000199609
-0.000103542
-9.60668e-05
0.000175705
4.25922e-06
-0.000179964
0.000387538
2.42335e-05
0.000529327
0.000294158
0.000140311
0.000131358
-0.000271673
-0.0010832
6.95614e-05
0.000188788
-0.000688733
0.000340995
0.000347544
-0.000335174
-0.000422889
-0.00107874
0.000339752
0.000735907
0.000160879
-0.000202296
0.00071816
-0.000520406
-0.000192633
-0.000534794
0.000721036
0.000352689
-0.000167069
-7.47105e-05
4.25925e-05
-2.29193e-05
-0.000219704
-0.000920199
0.000531534
-0.000326771
-0.000234166
0.00012283
-0.000441073
0.000938344
-0.000498362
0.000327111
-0.000423492
0.00107285
-0.000167827
-7.08999e-05
0.000380902
-6.86783e-05
6.00996e-05
-0.000145829
4.91042e-05
-0.000873367
1.24924e-05
7.14988e-06
-0.000998978
0.000663185
0.000314453
-4.73745e-05
0.00019216
-0.000190042
-0.000212595
-7.58459e-06
-0.000263819
-4.1949e-05
5.12729e-05
-1.20009e-05
-0.00113569
0.000290089
0.000843697
-0.000329439
-0.000784668
0.000103396
9.62125e-05
-6.39193e-06
6.51842e-06
-3.67042e-06
0.000290974
0.000581867
-0.000880963
0.000440396
-0.000392802
-4.76982e-05
-0.00068559
0.000291424
-0.000548427
8.25861e-05
0.000464861
0.000165518
-0.000140382
-5.18052e-05
0.00128772
-0.00015469
0.000406522
-0.000172657
-0.000981899
0.000145411
-0.000308512
0.000163097
2.79098e-06
0.000696325
-0.000163019
-0.000320962
-0.000235302
-0.000400149
0.000631777
0.000155228
-9.07057e-05
0.000935168
0.000349813
0.000986113
-0.000240221
-0.00074869
-3.36273e-05
2.64796e-05
0.000628016
-0.000343679
0.000716396
-0.000373025
-0.000864076
4.9378e-05
0.000813809
0.000894928
8.71794e-05
0.000382685
-0.000621675
4.4676e-05
-0.00025866
-0.000556677
0.000839734
-0.000429118
0.000445959
-0.000260442
-0.000477953
0.000737806
0.000568556
-0.000283746
-0.000357252
0.000827719
0.000356323
0.000279369
-0.000384102
1.7463e-05
0.000366559
0.000269635
0.00112529
-0.000915273
9.78427e-05
-0.00045525
0.000357393
0.000361378
-0.000202344
0.00090799
-0.00125588
-0.000187931
0.000288047
-0.000100118
0.000329905
0.000797644
-0.000186924
-0.000213346
0.000400255
-0.000484293
0.000252411
0.000303961
-0.000187893
-0.000116072
9.51604e-05
-0.000453498
0.000356928
-0.000515613
0.000895431
-0.000380822
0.000350437
-0.000785038
0.00117554
0.000261633
-0.000128128
0.000114867
-0.000296445
0.00089867
-0.000615772
-1.75689e-05
-2.03592e-05
2.42806e-05
-0.000613025
0.000276684
-2.05628e-05
4.73015e-08
2.02955e-05
5.04649e-05
1.39252e-05
-6.69962e-05
0.000102122
9.34153e-05
-0.000195537
0.000347405
0.000131979
-0.000913105
-0.000180497
0.00107354
-0.000115027
-0.000144345
0.000226062
-8.17165e-05
-0.00028864
-7.1402e-06
-9.65128e-05
-0.000401854
-0.000514342
0.000611963
3.80693e-05
0.000137636
-5.88721e-06
0.000313103
0.00022906
0.000196879
-0.00110938
0.000845118
0.000256816
0.000158221
0.000181033
0.000522832
-0.000336629
0.000203693
0.000237204
0.000595999
-0.000341982
-0.000334722
0.000679929
-0.000897922
0.00111081
-0.000351349
-0.000950759
0.000149406
-0.000563776
0.000242172
0.000321371
9.24172e-05
-0.000116672
0.000663034
-0.000978494
0.000781731
-0.000122417
0.000245247
-0.0003811
0.000194164
-0.000118701
-0.00011667
-0.000811231
0.00101731
-0.000227407
0.000366164
-0.000766202
0.000399218
-0.000300868
0.000486533
-0.00092063
-0.000811142
0.000985647
6.21383e-05
0.00036988
-0.000432038
-4.16283e-05
-5.09987e-05
-0.000168027
0.000227442
-5.94146e-05
-9.53495e-06
5.7418e-05
-3.63534e-05
0.000476633
0.000640291
0.000116265
-0.000778295
0.000450373
-0.000667045
0.000216513
-0.000190286
-0.000408026
0.00077332
-0.000182713
0.000729247
-0.000250909
-0.000478728
-0.000841747
-0.000110206
-4.76755e-05
-2.87726e-05
-0.00053488
-0.000834946
0.000368707
-0.00106892
0.000698944
-0.000324637
0.0011056
-0.000785755
-0.000172783
2.84373e-05
0.000186209
4.99966e-05
7.48332e-05
0.000401699
-0.000468276
0.00118761
-0.000730933
-2.06758e-05
-0.000191559
-0.000147702
0.000215825
-0.000112429
-0.000362846
0.000456633
0.00122935
-0.000572224
-0.00108508
0.00039265
0.00067772
-0.00021648
9.27121e-05
-0.000164962
4.01638e-05
0.00103922
2.24066e-05
-0.000221641
0.00010625
0.00011539
-0.000558151
-0.000254108
0.000791601
0.00110441
-0.00071414
-0.000394274
-0.000282353
0.000302955
-0.000810902
0.000222408
-0.000500322
0.000277912
0.000793025
0.000350697
-0.00115738
-7.81179e-05
-2.33279e-05
0.000904849
-0.00048708
-0.000417664
-0.000227142
0.000136719
0.000231023
-0.000504529
0.000247823
0.000735381
0.000244537
-0.00104986
0.000797522
0.000469871
-0.00039571
-0.000115735
-0.000134633
0.000250367
-0.000475146
9.09476e-05
8.77031e-06
-5.35675e-05
-0.000772368
0.000255854
-0.000138829
-0.00029408
0.000407836
-4.19611e-05
-8.4853e-05
-0.000331562
2.08413e-05
2.74351e-05
-1.15619e-05
0.000284203
0.000320989
-0.00060529
-0.00070041
0.000702284
0.00010516
-0.00103665
-0.00084184
-0.000391013
0.000926738
-5.81062e-05
-0.000162508
0.000220614
0.000189823
-0.000287803
0.000922485
-0.000479565
0.000381157
-0.000283326
0.000763417
-0.000145115
-0.000484795
0.00085749
0.00093846
-0.000559806
0.00029209
-0.000456282
-0.0012673
0.000351394
0.000901439
-0.000964379
0.00105025
-8.57688e-05
0.000210144
-0.000124375
-0.000917943
0.000120162
-0.000603075
0.000586279
0.000205667
-0.00103751
0.000792297
-2.58612e-05
-0.000173617
4.17086e-05
0.000131909
-0.00012897
5.10322e-05
0.000845644
-0.00041007
-0.000651167
-0.000213647
-0.000296879
1.49666e-05
0.000281893
0.000240166
-0.000682203
0.000374172
-0.000805594
0.000430474
-0.000166259
-0.000681031
0.000840672
-0.000251343
0.00110045
-0.000464203
-0.00116382
0.000259912
0.00090327
9.7305e-05
0.000104326
-0.000201631
-0.000643287
-0.000120293
0.000762938
4.8606e-05
0.000292316
0.000965045
0.000318892
0.000409865
0.000344893
-0.000232841
9.56841e-05
4.74651e-05
-0.000423404
0.000494006
-7.05809e-05
-0.000519637
0.000720096
-0.000804259
0.000398851
-0.000231382
-0.000282854
9.06101e-05
0.000188334
-0.000102305
-0.000371578
-0.000213441
-0.000567574
-0.000284973
-0.000526283
0.000100912
-0.000662152
-2.30919e-05
1.08119e-05
1.18213e-05
0.000323588
0.000827018
0.000201875
0.000150799
0.000530458
-0.000804618
-0.000350236
0.000344331
0.000124866
-0.000240601
0.000468294
-0.000908407
0.000439364
0.000236601
0.000229102
0.000324585
6.41093e-05
-3.91071e-05
-0.000265645
1.90555e-05
0.000179035
-0.000977432
0.00026807
-0.000342841
-0.000199397
0.000542128
-0.0010538
0.000709464
0.000336931
-0.000523586
-0.000114757
0.00062482
-0.00110433
0.000735269
1.89623e-05
-7.43051e-06
0.000114351
0.000279676
-0.000593799
-0.00074722
0.000163102
-0.000313966
0.000391922
-0.000153357
-0.000238582
-0.000108561
-0.00067825
0.000995254
-0.000725463
-0.000271087
0.000731251
-0.000412719
0.000763905
-0.000512514
0.000141779
0.000370729
-0.000860336
-0.000279408
0.00113677
0.00032224
0.000442337
-0.000765483
0.000243993
-0.000355024
0.00022318
8.89028e-05
-0.000471244
0.000773195
0.000102631
-0.000246227
0.000143596
-0.000212937
0.000232973
-3.72036e-05
0.000377199
-0.000267727
0.000636543
0.000300297
0.000775604
0.000263645
-8.54503e-06
-1.50742e-05
-0.000314795
-0.000172966
0.000473482
4.60245e-05
-0.000463535
0.000417452
-0.000764614
0.00109329
-0.000301605
0.000192257
0.000458044
-0.000694062
0.000926146
-0.000260275
0.000829686
0.00032599
0.000643399
-0.0011224
0.00035056
6.92542e-05
0.000399702
0.000699318
-0.00104411
0.000344485
-0.000416981
0.000197859
0.000219089
-0.000540686
-0.000145411
0.000685991
1.83092e-05
-4.8124e-05
-0.00107825
0.00023177
0.000827657
-0.00043058
0.000990379
-0.000561034
0.00117997
-0.00110798
-0.000391512
0.000900716
-0.000511663
-0.00023851
-5.07752e-05
-0.000593026
-0.000335908
-0.000724947
-0.00080014
0.00103681
-0.000647987
0.000308658
0.000339366
-0.00062361
8.77334e-05
0.000115224
0.000124273
0.000128856
0.000177759
-0.000306629
0.00106557
-2.60463e-05
0.000222911
0.000148266
-0.000371213
-9.89434e-05
-9.29093e-05
3.44823e-05
-0.00017338
0.0001351
0.00123662
-0.000827289
-0.000421077
-0.000268466
0.000362381
-9.44494e-05
-0.0008471
0.000491887
0.000353903
3.20358e-05
-0.000260914
-1.58666e-05
-1.4094e-05
0.000654705