/*--------------------------------*- C++ -*----------------------------------*\
| =========                 |                                                 |
| \\      /  F ield         | OpenFOAM: The Open Source CFD Toolbox           |
|  \\    /   O peration     | Version:  v2012                                 |
|   \\  /    A nd           | Website:  www.openfoam.com                      |
|    \\/     M anipulation  |                                                 |
\*---------------------------------------------------------------------------*/
FoamFile
{
    version     2.0;
    format      ascii;
    class       volScalarField;
    location    "850";
    object      omega_0;
}
// * * * * * * * * * * * * * * * * * * * * * * * * * * * * * * * * * * * * * //

dimensions      [0 0 -1 0 0 0 0];


internalField   nonuniform List<scalar> 
13851
(
0.0232299
1.35433
0.0743613
0.0229606
0.0749139
0.0504422
0.0216098
0.0441917
0.0206506
0.0878348
0.27217
1.89518
2.68982
2.61929
0.02141
0.0319383
0.0243912
0.0276322
1.04947
0.0206466
0.0228129
0.0720221
0.0214002
0.0222833
0.0215884
0.0449278
0.0237907
10.4505
0.023071
0.0238411
0.0574083
0.024669
0.0709245
0.362245
0.0222896
0.165183
0.354097
0.160817
0.0977066
0.303671
0.0212909
0.0197612
4.73485
0.265594
0.253696
2.7931
0.256015
0.590826
0.0239894
0.0394057
0.0688409
0.127284
3.1842
0.0215696
0.022502
0.0197653
0.0213017
2.21522
0.0236394
0.0216372
0.14012
2.58187
0.0534413
0.0869345
0.112486
0.0246336
1.0891
0.270836
0.0323916
0.0274495
7.41732
2.64572
1.30062
0.0216818
0.0210206
0.020855
0.069175
5.35419
0.0447965
6.76993
0.0218208
0.216072
0.0213473
2.58154
0.0543366
1.96653
0.0408265
1.83541
0.0248331
0.020826
0.165853
0.0322248
0.283727
0.026827
0.0246322
0.0220903
0.0765891
2.74472
0.0387297
0.0220997
3.07455
0.0477836
0.0220933
0.0235571
0.0210766
0.0451797
0.0527765
0.0196598
3.41908
0.0525356
0.0223734
0.0208893
0.0305528
0.022809
0.022365
0.81925
2.77866
0.0196911
0.0228713
0.0229569
5.07991
0.0234449
2.71871
0.614732
0.636859
0.0217663
0.64357
0.0464559
0.022652
0.1267
0.0212734
0.0207113
6.00556
0.0213488
0.819517
0.0209017
0.0197031
2.55682
2.55841
2.23267
2.78923
0.0224509
0.0225222
0.020101
0.0229888
0.276371
0.037343
0.125873
0.021595
0.252286
0.0721116
0.0225044
2.87173
0.0213614
0.0226805
0.0229057
0.0209966
0.0228843
0.126822
0.0679903
0.0197946
0.0267909
2.14833
0.0206952
0.0270968
0.0199285
0.0451588
0.0328305
0.0225392
4.92053
6.60405
0.0203785
0.0210139
2.17341
0.0206876
0.583767
0.0449312
0.0224777
1.19902
0.0196743
0.025359
2.85916
0.0213485
0.0772332
0.019776
0.0216075
0.024791
0.0218314
0.084503
0.0832422
0.266036
2.50783
0.0211392
0.0324925
2.4737
0.0225512
0.0222722
0.348563
0.0222887
0.0208845
0.021872
4.11512
0.0239117
0.0212439
0.0672167
0.0213593
2.37126
0.0245153
3.09358
0.0196996
3.41898
0.0220115
0.389844
0.019629
0.0200195
0.27224
0.0511624
2.66539
0.0213453
3.04336
0.0246651
0.0218586
3.0804
0.122483
3.44027
0.021698
0.028588
0.0212498
2.0236
0.0196286
0.043671
0.106999
0.0203714
0.0210573
0.0615369
0.0406648
2.34432
0.116673
0.0200816
0.0212552
0.0571527
0.385471
0.0202413
0.0731616
0.0207363
3.21802
0.0489666
0.314529
0.0229928
0.0252311
0.0267089
0.390681
0.0218454
0.0230728
0.0493335
0.981642
0.0804435
2.6209
22.8203
0.0214333
0.0200393
0.0265604
0.197752
0.0204702
2.28522
0.0225409
0.0218145
0.0263913
3.11067
0.0774058
0.0266207
0.0226743
0.0965487
0.0424043
0.0311093
0.0207205
0.216374
0.148604
3.71465
0.269222
0.020256
0.0196598
0.0210078
0.0472906
0.188086
0.542353
0.0207534
0.0214417
0.094355
0.217454
0.150965
0.0233612
0.0216437
0.0346759
0.214567
2.07781
0.0265442
1.91152
0.0207411
3.2557
0.0264576
0.0242718
3.67244
0.0215843
0.0448748
3.07933
0.0207342
0.041094
0.0269417
0.023173
2.60773
0.0267152
0.0217952
2.96092
0.0198103
0.025453
0.0224525
3.77941
0.11625
0.0213448
0.0493773
0.021378
10.4666
0.0288548
0.0214094
0.0212258
0.113459
0.027968
0.022607
0.021445
0.0215644
0.0217584
0.264748
4.44314
3.96453
0.0302777
3.73512
2.4371
0.0213673
0.033098
0.151486
0.0375134
0.0518956
0.111397
1.12533
0.0247661
0.483582
3.15275
0.021427
0.041653
0.0451673
0.636637
0.0225983
0.0548625
2.00863
0.0210391
0.576105
0.0212141
0.0213904
0.0205772
0.0196583
0.0209432
3.23344
0.317907
0.0213511
0.0394503
0.0198606
1.77709
0.0376594
0.420148
4.15357
0.0213621
0.0559798
0.0270421
0.496176
0.0212069
0.019708
0.0279545
4.08631
0.0214033
2.53269
0.036237
0.119217
6.84154
0.177428
0.154389
0.0250715
0.0207751
0.022062
0.0290737
0.0488213
2.78682
0.0328342
3.52239
3.11576
0.0198734
0.0214406
4.60593
5.03966
0.104221
2.83495
0.0287584
0.0275915
0.0220811
2.41704
0.0204995
0.0313134
0.0246517
0.0215448
0.0211323
0.0207094
0.0199152
0.0846695
0.0482295
6.84804
0.0279242
0.0521833
0.0313412
0.391662
0.0260732
0.90745
0.0240448
0.271783
0.0196902
0.0206912
0.0218753
0.337728
0.308601
0.118497
0.0306397
9.33936
0.406469
0.0403622
0.0232548
0.0629632
0.0211878
0.389063
0.0210611
2.0455
0.328925
0.0666929
3.21887
0.0225788
0.124528
0.315557
5.14405
0.0196529
0.028862
0.0460427
0.111124
0.0204575
0.0217705
0.0675854
0.118727
0.0318483
1.64459
0.0217025
0.021285
2.30393
0.0278349
0.019642
1.74661
0.020765
0.0232157
0.0205406
0.0387247
0.0225532
0.0196778
0.0224025
2.98009
0.0213586
0.0348402
0.0208229
0.0280031
0.259749
0.0229614
0.0212558
0.02284
0.0228281
0.605273
0.0217953
0.0452467
0.0213482
0.0218008
2.47196
3.37824
0.021384
0.0290157
0.0262163
0.373831
2.5788
0.0212989
0.330833
0.0212302
0.0748848
0.0215779
2.06582
0.0198121
3.83497
0.0789408
0.0197753
0.0291552
3.01296
0.0448303
0.259508
0.0227414
0.526622
0.0229081
0.020633
0.0207262
0.0215558
4.00648
0.0617126
0.12537
0.849684
0.0491919
0.0198364
2.74188
0.308219
0.0255024
0.0269766
0.339537
0.623228
3.44565
0.02239
2.09585
2.85021
3.32432
0.0273927
0.0302674
0.602558
0.143467
0.997126
0.365372
2.30287
0.023047
2.3053
2.92961
0.0197035
0.130537
0.0633714
4.2073
0.0231594
0.0212282
0.0209739
0.0212458
0.0830566
0.0372422
1.80635
1.61655
0.0207636
2.67372
3.14878
0.0559958
0.303087
0.0342482
0.0196089
0.0206692
0.140173
2.78107
0.0227572
0.0862121
0.16378
0.0197521
0.0354413
0.631545
0.172013
0.110152
3.77912
2.94276
0.0212492
0.0215575
1.34807
3.0688
0.123385
0.0326921
0.0578347
0.0196727
0.0211055
2.03584
0.0197289
0.0230775
0.0196608
0.0207878
2.97675
0.0833475
0.0287639
0.0197182
2.51676
0.376939
0.0207692
0.0210318
0.0205084
0.0219722
4.07546
0.339779
0.370696
3.21766
0.438811
0.0311258
5.81012
3.27304
0.0252153
0.0328292
0.0196028
0.0223901
0.033277
2.98152
0.353137
0.0848321
0.0278797
0.0206076
0.0315611
0.0223855
0.261264
0.0685099
0.02134
0.0311001
0.0204596
0.0261723
0.122251
0.021612
0.0211672
0.0378457
0.0215823
0.0757375
0.29571
0.117033
0.0320235
0.127747
0.0205942
0.089252
0.0276654
2.97656
0.0219454
0.0221549
3.28707
0.0233374
7.22189
3.1331
2.44506
1.69835
0.0204994
2.95301
0.0204368
0.0207808
0.0198056
0.0207951
0.022898
0.028688
0.0367216
0.0196987
2.36401
0.0814523
2.37975
0.0209107
0.0199493
0.0209518
0.147101
2.39525
0.0505366
0.026421
0.0204889
0.0218847
0.0215701
0.0210448
0.178794
1.67735
0.0215613
0.019688
0.0215681
0.0210375
0.939771
2.21312
0.0321409
2.7261
0.613563
0.0211511
0.123861
4.91383
0.0341573
2.00258
0.0218059
0.026798
0.0496258
0.0270795
0.393236
0.0213722
0.610036
0.0211254
0.0293802
3.02422
0.0209444
0.0227936
0.0551606
0.0206407
0.0249428
0.126977
2.30939
0.0669444
1.87949
0.238773
0.0196437
0.0208915
2.43126
0.155489
0.0434754
3.16748
0.0205426
0.0241534
0.0197185
0.371065
1.16543
0.0252016
0.0217881
0.261681
0.0239169
0.0209154
2.77714
1.11283
2.85964
0.019795
0.0215531
5.39554
3.60035
0.145012
0.0221547
3.37301
0.0213606
0.26943
0.129662
0.0707953
0.0245428
2.53616
0.02586
0.0228908
0.328333
0.0220498
0.0238868
0.0226852
0.0205776
2.46121
0.0306647
0.11152
0.0283948
0.200388
0.0206275
0.144275
0.0226664
0.0257958
0.0200386
0.0211174
0.0214039
3.0378
0.0209608
0.0197434
0.704824
0.0215751
3.97919
0.0213198
0.0224116
0.0666979
1.31339
0.256627
0.020914
0.0745876
2.69638
0.0218251
3.24513
0.0291105
0.0205513
0.0299957
3.79133
0.0662175
0.0254039
0.020879
0.0196723
0.312388
0.079596
0.0543518
0.0261448
0.0297921
0.0221057
0.0222643
0.0854065
0.391351
0.0825964
0.266249
0.0215355
0.0758831
0.0800767
3.81645
0.0250585
2.31233
0.539166
0.021589
4.58444
0.0783576
2.52126
2.4559
2.89702
0.318254
0.0391549
0.0205665
0.0284435
2.2297
3.01639
0.0211612
0.0218461
0.0635545
0.205515
0.0197938
2.93649
0.0205216
0.0213662
2.26064
5.31324
0.242463
0.0207699
0.0214046
2.96439
0.183901
0.115049
0.023452
2.99015
0.203006
2.38771
0.0521143
0.0386872
0.0217994
0.0215695
1.23513
0.0473751
5.80904
0.0297159
0.0323852
2.47837
2.5483
3.47956
0.0214326
0.0297505
0.0207562
0.0326678
0.0227096
1.83956
0.024286
3.15697
0.0197884
0.0652393
0.0211242
0.148513
0.0316654
0.0293743
2.74468
0.0413331
0.0408079
0.0224203
0.0650874
0.555394
0.0634637
0.0231613
6.53924
0.0204028
2.81078
0.324413
0.0215936
3.39754
3.63997
3.63623
0.323191
0.0287133
0.0211498
2.87858
0.0243505
0.835427
3.10318
0.0209179
0.0225235
0.344958
0.400682
2.11384
0.0215281
0.0208933
1.23936
3.05281
0.110748
0.0250025
0.0228393
0.332198
2.15229
0.0828214
0.0197494
0.039682
0.0206558
0.0233574
0.0771926
0.0221492
1.95749
0.390278
0.021374
0.0226943
0.0211715
0.0227368
5.98812
3.14978
0.0284946
2.34308
0.0211233
0.0285174
0.0211077
0.0206713
0.0215291
0.0213593
3.94985
0.0213848
0.0496505
0.0214357
0.0255558
0.0761764
3.11819
0.0227704
1.38524
0.0571835
0.840655
0.0313442
0.0316847
7.82152
0.0261823
0.0383018
1.80721
0.748784
3.04597
0.0385471
0.256668
0.0218571
0.0393677
0.0489722
2.20015
0.0213877
1.99104
0.0208747
0.0209276
2.52699
0.021626
2.34236
0.0247795
0.0207411
0.0336631
0.020756
0.0214108
0.0208626
0.0217645
0.19523
0.0209341
0.182941
2.08416
0.0596625
2.17171
0.0215523
0.02271
0.0229869
0.0212556
0.0207347
0.0762187
0.0218626
0.0208124
0.0218359
0.0216783
3.89111
1.68243
0.0625045
2.82435
0.199136
0.0210998
0.454365
0.0276987
0.0209263
0.303349
0.0426401
0.474089
0.0210785
0.25622
0.407802
2.07787
0.0204053
2.69254
0.0299478
0.0236773
0.0210765
0.0205511
2.39931
0.0784733
0.560914
0.0208926
0.0213089
0.680886
0.0216113
1.1214
0.323387
1.38898
1.22024
0.379205
0.021793
0.0213119
0.0546384
0.0282156
0.0235481
0.153069
0.0402712
0.0218938
0.0227139
1.80351
0.0208299
3.8075
2.07154
0.857923
0.189345
0.0222832
0.0202101
0.0216722
0.25046
0.348804
0.0204046
0.0232869
0.0208641
0.074013
0.0198682
0.0208283
0.0218889
0.0315416
0.874306
0.0395001
0.0307304
0.021459
0.0498869
2.45753
0.0221403
6.59235
2.16829
0.0774192
0.0199865
0.0422323
0.0212226
0.0214502
0.0216139
5.21793
0.116284
0.330688
0.0236147
0.270135
0.021275
0.0211719
0.0215866
0.421875
0.814983
0.0197721
0.0311769
0.0504921
3.50244
0.0229467
1.44717
0.0232028
2.36878
0.0747004
3.28451
0.0868415
0.0762012
0.301805
3.0658
0.374936
4.43794
0.0212916
0.159012
0.0198543
0.023246
0.0255979
0.0215852
3.11834
0.0286295
0.0267513
0.328278
0.174407
0.602037
0.0213606
0.0233427
0.0256054
0.0202841
0.0295722
1.24842
0.394468
1.29566
0.0209432
0.0262416
0.0238137
0.621487
2.89669
0.053985
0.0201885
0.021806
2.1544
0.0435911
2.3437
2.60468
0.0375231
0.0199667
2.53811
0.0289203
0.0418331
0.0276079
3.31661
0.249554
0.116529
0.0858507
0.0221605
0.0269919
0.0213746
3.33045
0.0445973
3.20889
0.251717
0.0254289
0.139213
0.0225106
3.35397
0.213874
0.0209144
1.28362
2.98647
1.49872
3.2497
0.0216369
0.0213325
5.70703
2.51025
2.08626
0.0227788
0.0215635
0.0213676
3.78007
0.135782
0.0217458
0.0771695
0.0841161
2.34434
2.45135
0.499138
0.0214213
3.27126
0.0242233
0.0212369
0.134179
2.44081
0.0216157
0.0208664
3.8008
3.28005
0.021462
0.0209273
1.97896
0.0208601
0.138246
0.0209441
0.641161
0.0213257
0.050463
1.2193
2.94702
0.0223524
4.0081
0.382379
2.34998
2.21173
2.36882
0.0336963
0.0211557
1.96822
0.0229912
0.0213773
0.0202602
0.466918
0.0211337
0.287157
0.020883
0.0230628
5.38112
0.0638142
1.90468
0.0226544
0.0241383
0.0207184
0.0312492
2.52679
2.60081
0.0208601
0.063367
0.269704
0.0215545
0.0205616
2.93403
0.0328867
0.0335348
0.124404
2.51678
0.988494
2.13655
3.14835
0.0344729
0.272563
0.326314
1.39329
0.0632385
0.0201934
0.121957
0.0211432
0.0211334
1.81371
2.97435
0.0229417
3.69489
0.0821458
4.06837
0.0474658
0.0474015
0.0212111
0.0864136
0.0307033
0.0210425
0.0224389
3.14375
2.8103
1.39853
3.36647
0.03658
3.20671
3.25464
0.0307244
0.0217456
0.0210312
0.216074
0.0209999
0.19094
0.0223743
0.0219816
0.0231158
2.57585
3.72076
2.24823
0.0218132
2.63793
0.024708
0.0286197
0.0209886
0.0209187
2.38933
0.0264582
3.28831
1.18007
0.0655029
0.11117
0.0214789
0.0384612
0.0215631
0.135457
0.0223283
0.0225747
0.0217398
0.0224284
0.147909
0.0220328
0.0333799
0.0211244
0.0339634
0.135612
5.87933
0.0210406
0.045914
0.02138
0.0611529
0.0234568
2.59257
0.212148
0.0304591
0.0234536
0.0224323
0.0401409
0.0212367
0.218292
0.021426
0.0209323
0.0221496
2.94729
0.0263198
0.0242005
0.029194
0.0214619
0.0615673
2.86541
2.11208
0.0341843
0.0213825
0.0294661
0.0202465
0.0210141
0.189026
3.13557
0.0212286
0.0294583
0.0881109
2.74188
0.0217835
0.0219614
3.16906
0.0224243
0.0353562
0.18297
3.80652
0.0213376
0.0248604
0.0212433
3.38223
0.12637
0.0399821
0.113726
2.27445
0.0222844
3.65416
2.3858
0.0215619
2.61415
0.0775183
0.0224041
2.66631
0.0215256
0.0211921
0.0204931
0.171293
0.0393135
0.153671
0.0226034
0.0221956
0.0291315
0.271675
0.253669
3.67769
0.273834
0.0219452
0.126943
0.124127
2.22442
0.071497
0.214962
0.0210132
0.0289344
0.0205692
1.05425
0.0349009
0.0212364
1.86067
0.177141
0.0312241
0.0258698
0.019701
0.0213918
0.0508509
0.0328759
0.698538
0.0632747
0.063719
0.0571024
0.110465
2.42502
0.073954
3.6125
0.0210532
0.0208194
0.196507
2.37544
2.59951
0.0511137
0.0225796
6.10112
0.272814
0.0209782
0.0257619
0.0208208
0.0394555
0.0670917
0.0516268
2.46478
0.259468
0.0224813
2.46353
6.69287
0.0214178
0.0738948
2.56122
2.32368
0.0235135
0.0716791
0.0196214
0.0231235
0.021015
0.024852
3.57975
2.92667
2.95856
6.10451
0.0224625
0.0325777
0.0511014
0.0210765
0.0218939
0.0205601
3.00822
0.0209617
3.46162
0.0348234
0.0477144
0.150609
0.199648
4.79469
2.88908
0.0387303
0.01989
0.0226677
2.71362
1.91393
0.0243638
0.0207872
0.0206361
0.0601447
0.0293495
0.138446
2.39411
0.0224345
0.0205132
0.117025
0.027466
6.42514
0.966842
0.0209386
0.0683658
0.0215121
3.63567
0.0200367
3.2074
0.0209779
0.0223754
0.0301718
0.0219547
0.056869
0.0289912
0.04504
2.1457
2.81249
0.0247797
0.0289463
0.0212033
2.81049
2.10457
0.0218241
0.0200879
0.274047
0.0196679
3.88286
0.0213105
0.0326959
0.0665928
1.13501
0.0361529
0.022555
0.021587
0.0671413
3.2005
0.021156
1.05445
4.11433
0.950236
0.634277
0.0320684
3.76488
0.0250019
0.188009
0.0212756
0.284208
0.278843
2.33575
2.19469
2.41122
0.021895
0.03715
0.0208572
8.37516
0.308331
3.05242
2.12623
0.0263261
2.43171
0.688857
0.033228
0.0226048
0.0216014
3.3781
0.0251422
0.0667069
0.023332
0.0215975
0.0206718
0.0215237
2.73483
0.194985
0.0300439
2.17899
2.31745
0.0214503
0.021309
0.0205465
0.0275336
3.18683
0.196725
0.025095
0.0247342
0.517669
0.0740914
0.0424095
3.96529
0.0292978
3.5033
0.029323
0.0285938
0.0212853
0.0232708
0.0669281
0.408559
0.297387
3.17501
0.0668618
3.13949
0.0240998
0.0240334
0.0215868
3.27483
2.45588
0.586742
0.0482304
0.0232757
0.0213895
0.0210824
0.0214224
0.020578
3.39632
0.0283093
3.20478
0.0309561
2.50685
2.15741
3.22979
0.0301911
0.0254135
2.06113
0.0372467
0.863027
3.35228
0.0206185
0.0628427
0.0265045
5.39496
3.11558
0.0332521
0.198913
0.303133
0.0230353
0.0476825
0.0241358
2.63082
0.322602
0.023665
0.0215825
0.29185
0.955033
0.123514
0.740347
0.122113
0.0279444
0.0212146
2.23879
3.1453
0.0754696
0.0298267
2.78027
2.32064
0.0208745
0.0214076
0.0238689
3.1207
2.99283
0.0213401
4.28555
0.0219817
0.0210534
0.0215671
6.45609
0.228973
0.0328798
2.7235
0.0227362
0.0225403
0.0209738
3.14727
0.0222644
3.4386
0.0235533
1.38223
0.0217899
0.0211433
0.116976
3.41641
0.288286
0.0342799
2.34363
0.0200761
0.021495
0.0214179
0.0423801
0.0614437
0.0614526
0.0347002
3.24809
0.0240137
0.118469
0.0990568
2.42192
0.0213957
3.40286
3.07674
0.0246518
0.409677
0.0628918
2.46423
0.0215792
0.0649302
0.0210687
0.585663
7.49886
0.0698125
3.38042
0.0232722
0.0468882
0.0223423
3.95174
0.0199569
0.0208043
0.438313
0.0854693
2.34159
2.49957
0.0615555
0.0277212
0.0204769
0.782619
0.0294301
0.0210562
0.139114
0.0207446
0.0413697
0.0213821
0.975349
0.022618
0.271247
0.30973
0.0299869
0.0877715
0.0522673
3.66706
0.0212899
1.14687
1.78682
0.0207221
0.0213592
0.0227007
0.021816
0.0377359
0.0212574
0.414111
0.072571
0.267474
0.0835064
0.0214714
0.0218213
0.0204799
3.02675
0.0215137
0.0212647
0.190059
0.0236297
1.35088
3.38818
0.0847877
0.0237889
0.032257
0.0224946
0.0219681
0.0345915
0.0201446
0.0237451
2.39426
3.29999
0.873245
0.0224482
2.15923
1.04226
0.0218333
0.253485
3.09614
0.0213546
0.0232972
0.0213129
3.13919
2.33719
0.431085
0.0201266
0.0236988
0.0230178
0.0215822
0.124474
0.0215193
0.0494939
2.70604
3.53092
0.0205973
0.0236171
0.0232866
2.65035
0.0196928
2.25546
2.86903
0.0455002
0.868507
4.15805
2.35208
0.0225706
0.484285
0.460816
0.0222823
0.0204595
0.0208704
3.35097
2.3399
2.19696
0.0213672
3.5307
0.021563
0.154529
0.0204914
0.0229951
0.0222224
0.0205875
2.43358
0.0223439
1.89839
2.36899
2.24406
0.0448836
0.0499372
2.32918
3.15612
0.0218533
4.27435
0.0204863
0.0197106
0.0212977
0.0275124
0.0207039
2.08517
0.0288346
0.100047
0.0356037
2.47677
2.10676
0.0794726
0.0205642
0.0521561
0.072155
2.42492
0.0214221
0.01991
0.0229538
1.89721
0.0215814
0.32093
2.03068
0.0394813
0.0577155
0.0214445
0.211516
0.0217515
3.22125
0.0202529
2.92987
0.0302725
0.0215069
2.03885
2.18937
0.0201915
0.0630358
0.0241756
2.19392
0.0305555
0.10517
0.0808455
0.0217558
0.0518716
2.69858
0.0210241
0.0269055
0.0228811
0.0733548
0.0312606
3.12554
3.1163
0.0215207
3.4389
0.022292
0.0420683
2.90008
2.02237
0.034135
3.03546
0.163372
0.0215945
0.321402
0.124432
0.0298442
0.0222973
2.55368
0.0202201
6.68875
0.048338
0.103777
0.0213509
0.0298515
3.24804
0.04247
2.41909
0.0219945
0.0235168
0.0797717
2.66028
0.0255918
3.1846
0.660936
2.10154
0.021578
2.6529
2.04044
2.55513
0.021398
0.0222305
0.0212846
3.28319
0.0269697
0.248764
0.197648
0.021781
0.0203205
0.0213688
2.54314
2.65788
2.89215
2.14794
0.0209616
2.88056
3.20634
0.126091
2.2064
3.09032
0.0333085
7.24266
0.0231507
0.0252646
3.03344
2.70276
0.0217479
3.89961
0.0217147
0.0213983
2.36444
3.15833
3.64378
8.90774
0.0300921
0.0217851
0.0231737
3.334
2.15284
0.0211685
0.0446418
0.359346
0.0214295
0.0215114
3.03494
2.85504
0.0228376
0.0214342
0.0222112
0.0224566
0.674627
0.0217987
0.0211198
0.0252427
0.319328
3.14052
0.334521
2.48497
0.0215325
0.024368
2.87044
3.21244
0.0274733
0.0901848
0.0213312
0.0343656
0.022568
0.0221378
0.0636924
0.0210614
0.308937
0.0314432
0.0208264
0.0240804
2.23147
1.76736
3.62089
0.0214423
0.0247275
3.31677
0.359743
0.0237493
0.0213495
0.0214817
0.268594
0.0215259
0.021918
0.0271727
0.0213462
2.90569
0.0505476
0.0217407
0.0238671
0.0200656
0.0215153
1.41173
0.451616
0.0672632
2.08088
0.0622231
0.0218437
0.0213117
0.0215028
0.0212523
0.0217214
0.0238692
0.0682827
2.85158
0.0224899
0.105008
3.52369
0.0560459
0.0212212
0.0208209
0.0232542
2.35015
0.0212087
0.693607
0.274556
0.0456447
0.0220297
6.44762
0.0200898
0.0341252
0.020433
0.0201208
0.0216339
0.0208071
0.0341312
2.70484
0.077926
0.037028
2.2807
0.662603
1.07247
0.030739
3.1546
2.09529
0.10317
2.34934
3.08074
0.110109
0.247632
0.0218102
0.0207096
1.47908
0.0210125
0.0239481
2.37157
0.0385533
1.74006
0.243116
0.0207648
0.0237199
0.0214871
0.0427488
0.0204612
0.0508504
2.40203
2.93054
0.923059
0.0214819
0.0202529
0.068791
3.45031
2.94312
0.111126
0.877292
0.0208706
1.49154
3.59002
0.0589346
0.0235888
0.0215081
0.0200237
0.0230772
0.0214293
0.021316
0.0237483
2.91422
0.073177
3.25427
0.425516
1.31655
0.166209
0.021269
0.0210785
0.0219519
0.020578
0.0217793
0.41286
2.31667
0.734274
3.48724
0.023219
2.16543
0.136581
3.2238
3.29123
0.021479
0.0208005
0.249128
0.0214762
0.020206
0.541625
2.92413
2.06678
0.0213972
0.021512
0.0236904
0.0364602
2.11246
0.0205045
0.0237958
0.466126
0.0205088
0.44425
0.0359724
2.3737
0.0217745
0.244064
3.1043
0.0339339
3.29108
0.108371
3.33394
0.0200683
0.0247364
0.0208378
0.0288905
5.77744
0.0215319
2.23242
0.0217877
0.0215889
0.0214451
3.38059
0.0422356
0.107157
0.520443
0.0206631
0.0415593
2.72939
0.0522766
0.0207559
0.0228001
0.0214745
0.0438277
0.0212847
0.020883
3.50224
3.59031
3.2567
0.546475
0.717623
2.13551
0.0673322
3.61147
0.118869
0.0200084
0.0210882
0.0196806
0.0216065
3.37708
3.32531
0.0203812
2.32155
3.36077
0.0285763
0.0223839
0.0247678
2.46516
2.98823
2.95367
1.98325
2.96425
0.0196836
0.212416
0.0963021
0.319751
3.1119
0.0213346
0.124708
2.24815
0.0314664
2.65572
0.0217632
0.0551227
2.16038
3.11573
0.071624
0.0302416
5.36073
0.125922
3.17012
3.1995
2.88698
0.109974
2.59047
0.0215282
0.0246238
0.0450151
4.14509
0.306167
3.45442
0.02223
0.109532
0.0664379
0.022396
3.12315
0.0213543
0.125478
3.92713
0.0213638
2.40728
2.34694
3.19036
2.55027
0.936395
0.372223
0.02108
3.41943
0.021699
0.0208854
0.0395988
0.0236057
3.15038
0.0237892
0.024865
0.0238368
0.0208031
2.2902
0.0227606
0.113228
0.32098
0.0206034
3.75152
0.0965421
0.0225073
3.93763
0.204655
0.02135
0.111756
0.0220048
3.33924
0.464989
0.0204146
0.1124
0.022825
3.50785
3.0094
0.0688333
1.07307
0.0252463
0.0214883
2.37748
0.0237965
0.021286
2.01466
0.0390621
0.0208755
0.020814
0.123785
0.0226434
3.88038
0.222948
0.0345371
2.40139
0.0505945
0.0600037
0.0211237
3.54858
6.29044
2.46902
0.0214026
0.0202921
0.0684713
0.0295667
0.40242
0.0213159
0.317309
0.0212259
0.348827
0.0218854
0.067258
0.152647
0.110637
3.57293
1.15206
3.05257
2.99875
0.0197152
0.822954
1.04511
4.55869
0.0211847
0.13656
5.99242
2.29664
0.11218
0.918453
0.457966
3.63451
0.0437597
0.18475
0.0205731
0.0453337
0.0410713
0.0213188
0.0668413
2.32038
0.0701512
2.27745
1.28283
0.0211597
0.0208212
0.0287808
0.0213254
0.90234
0.0205336
0.0207852
3.76612
0.198251
0.0323506
0.0974209
0.0224864
0.0819129
2.21726
3.09877
2.06174
0.0251589
3.05645
0.0228166
0.020564
0.0230821
3.18106
0.205594
0.215215
0.195528
0.0222446
0.0208343
0.0213254
0.0218266
0.0260753
2.58651
1.30277
0.0279646
3.16335
3.93073
0.479485
4.70099
0.021424
0.0289428
0.200496
0.0214078
0.0298837
0.026283
0.0237288
2.64584
3.12351
0.0205267
0.0382065
0.0288361
0.0663578
2.69574
2.38197
3.5709
0.0216043
0.0788409
3.45628
0.0778196
0.112013
0.466418
2.5046
3.7491
3.5922
0.020503
2.5965
0.0203616
0.0228941
0.021338
0.0579266
3.70322
6.69956
0.313024
2.30547
0.0543796
0.0201513
0.0208047
0.021513
0.0231659
0.0420745
3.65447
3.46462
0.0735554
0.668929
0.021617
0.0541432
0.0206554
3.1707
0.0642436
0.0215306
0.133499
0.0979598
2.15057
3.65064
0.12335
4.06946
0.0244304
2.56585
0.198117
3.02517
0.296074
0.0227068
0.0538327
0.0214794
2.95401
2.49723
0.0387106
2.8158
0.191999
2.47229
0.0638568
0.176823
0.0394086
0.0208911
0.116576
0.0564605
0.0239136
0.0536117
0.0300145
0.0314745
3.19263
0.149406
0.0229868
0.0293912
0.0350868
0.0309303
0.0226184
2.30455
0.105535
0.148785
3.49619
0.0213915
3.20626
0.0214637
0.0240048
0.0232632
3.14365
0.0362185
3.23458
4.60016
0.0574818
0.0457506
0.1144
1.63898
0.129565
1.05837
0.0243261
0.0438475
0.0209136
3.25411
0.285567
0.0242384
0.0216452
0.0354489
0.0255195
0.0240694
0.047126
0.0382206
0.0215901
0.0327064
5.1558
3.69063
0.108794
0.0395235
0.0198247
1.72057
0.0313009
0.0615261
0.381065
0.0414175
1.95117
0.0202348
0.0244144
0.0239195
0.0320225
0.0212042
3.36325
0.294006
2.2855
0.0356521
3.2032
0.198861
0.0252968
1.63195
0.0629113
0.198347
2.43006
0.0427964
0.0237745
0.0391115
0.0644325
0.0241266
0.482266
3.82916
0.340476
0.0208967
0.201646
0.301512
2.0213
0.0212626
0.0423892
0.0210832
0.0297432
2.32991
0.0285729
0.0282659
0.0208845
0.0208641
2.06616
3.12557
0.0213559
2.263
0.197673
0.0201647
0.0244403
3.29038
0.109616
0.0985372
0.0213748
0.026554
0.104235
0.0218115
0.0210467
2.33978
0.0285495
3.32647
0.0794924
0.0257062
3.69657
0.112384
0.15133
0.020928
0.357741
0.0292275
0.0260904
1.54845
0.038803
0.0215486
0.0809338
0.0241846
0.0249291
0.0201566
0.758841
0.0213583
0.0599339
2.11429
0.095746
0.020833
0.581325
0.0298807
2.94707
0.160662
3.49609
0.102729
3.10252
0.0206883
0.0725245
0.025102
0.0211234
0.40008
2.24381
0.0246731
0.267854
0.0239458
0.0683648
3.5548
0.0255824
0.408406
1.04945
3.38422
1.73058
0.467457
0.0357943
0.0207476
0.0617959
0.0340865
0.733074
1.86818
3.15242
2.39453
3.32023
0.0208374
0.217305
0.0213996
0.0223362
0.0215544
0.242455
0.147554
0.07141
0.0210306
9.1071
0.0267503
3.67247
0.0209047
0.0592851
0.0294691
0.0666218
0.0407866
0.0992781
0.022703
0.144946
0.136664
0.0209516
2.74043
0.194911
0.0500022
0.0227112
0.0291812
0.021604
0.0210493
0.0615656
0.029312
2.08872
0.194879
0.0807395
0.515053
0.0211576
1.26311
0.0614822
2.39196
0.0295963
0.0300629
0.382221
0.0305246
0.0410638
0.147084
4.40578
0.0233263
0.0216303
3.02524
0.0308002
0.0234472
0.0267359
0.0292267
0.0205321
0.026024
3.27835
0.0215985
0.0407291
3.28251
0.108545
0.0679582
1.38684
1.92397
3.43974
2.54215
1.23008
0.0533674
1.10505
0.0226241
0.0245302
0.0214921
0.0209869
2.41465
0.291838
0.030923
0.0207286
0.733584
0.0880928
0.0212744
0.0718415
0.0505055
0.0212193
0.0228989
1.67668
0.026071
0.0360527
0.0355136
0.0213886
0.0804679
0.061627
0.0288535
0.78183
0.075539
1.9873
0.443696
3.02457
0.0231917
4.78654
0.15128
0.13988
0.0639366
1.78539
0.0709257
0.0259352
0.0473026
0.0633253
0.0233096
0.0675081
0.0210855
0.021254
0.0201276
0.0241804
3.30973
0.0204225
0.0998561
0.024124
0.0235065
0.0240201
0.802171
0.0232029
0.0592861
0.0215272
0.0241299
0.0246424
0.0207409
0.0964502
0.023395
0.0205713
0.0222375
0.0282455
0.0209855
2.00153
0.0266723
2.36056
0.118947
2.75335
0.056523
0.0675679
0.0379304
0.0388204
0.0250896
0.0247873
1.57641
2.97708
0.179929
0.0595225
0.0307
0.0213663
2.40491
0.0381933
3.23226
0.0215549
0.915519
0.136718
1.20602
1.34158
0.0201315
0.0214135
0.020365
0.0282906
3.02829
0.0448917
0.899244
0.0254789
0.0283066
0.0209975
0.0218228
0.0326838
0.0234508
0.0237771
0.020915
0.203766
0.321541
3.05872
0.024807
0.411621
0.0207226
0.0203138
0.100379
0.0219036
0.0239104
0.0615599
0.0239276
0.0666377
0.0214202
0.024599
0.0215329
0.0242344
3.2249
0.0211385
0.0233837
0.0225584
0.0236847
0.456489
0.0217611
0.0473378
1.69161
0.0243488
0.0289281
0.0223685
0.0233854
0.0217658
0.124548
0.0214572
0.0262101
2.71309
0.0208159
0.0285393
0.0475064
0.0547835
2.21128
0.0201065
0.0235651
0.0224201
0.0294482
0.0984421
0.807007
4.27926
0.0202684
0.0278346
0.0690491
0.0237667
1.58258
0.0200015
0.0215639
2.09688
0.0387378
0.0234845
0.0200662
0.134175
0.120954
2.0518
0.0215645
0.965073
0.0200396
0.0205437
0.0233494
0.0734602
3.75273
0.0215187
0.0209183
0.205515
0.0214637
0.0230972
0.235106
3.65992
0.0214532
0.0204981
0.0223076
0.0304632
0.185434
3.27723
0.0218378
0.100757
0.0214528
0.0213534
2.38433
0.0230202
0.021815
0.0295052
0.199257
0.126688
0.0231858
0.0221155
2.53509
0.0389287
0.0223104
0.375641
3.00032
0.0214759
0.0217252
0.0230362
0.0213608
0.0214697
0.0208543
0.0202554
0.0378547
0.022953
0.0421835
0.0454504
2.17114
0.668289
0.0300166
0.0200867
0.0213656
0.0221499
0.0230149
0.0388371
0.0282331
0.929249
0.0234616
0.0728043
0.0240642
3.22109
2.06865
0.0278806
0.0228833
0.116926
0.0236329
0.026479
0.0213887
0.0222615
0.0211082
0.0760728
0.0416111
0.045953
0.101329
0.0230877
0.0253099
0.0221899
3.32334
2.52101
0.337254
0.02654
0.0891421
0.0784892
2.93586
0.0219134
0.301878
0.0614531
0.0213965
0.0217795
2.22
0.0215074
0.0223859
0.023116
1.07769
0.0214842
0.0217324
0.0251074
2.18849
0.020951
0.0491093
1.03951
0.0234154
0.0215031
0.0211482
0.0214199
0.0217524
0.0217028
0.066172
0.0226925
0.0214883
0.0217126
0.0217375
0.0279526
0.0213771
0.266198
0.0215497
0.0216944
0.0365576
0.0377052
0.0278105
2.08558
1.08752
3.37153
0.0360073
0.0208381
0.0376556
2.15081
0.0202303
0.137724
0.023703
1.05242
0.0231199
0.0413861
0.0217452
0.0213839
0.109293
0.213671
1.57681
0.271521
3.40622
0.0217167
0.0209044
2.31899
0.0202024
0.021493
3.18467
0.0210106
2.27994
0.0214401
0.170625
0.101839
0.0235514
0.552751
0.025712
0.0720287
0.461819
0.575838
0.264589
2.46332
0.509898
2.45143
0.0215462
2.20667
0.0214665
0.0213113
0.0209662
0.0218907
1.06368
0.0223362
4.38829
0.0215039
0.0213748
0.0215607
0.321882
0.0216352
0.0206727
0.0512721
0.024904
0.0258713
0.0248326
0.0276892
0.21878
2.27587
0.69579
0.601448
0.0930063
0.0223004
0.512954
0.0214478
0.0277362
0.0645358
2.55604
0.0422632
3.4147
0.0214729
0.638872
2.38754
0.140086
3.47652
0.263872
0.0233689
0.0213221
0.0238284
0.0214606
0.0213049
2.38085
2.34913
0.0210648
0.956301
0.0214153
0.102327
0.0209814
0.158936
0.0271373
0.0232426
0.0207561
0.543116
1.20538
0.30097
0.0206079
0.0206827
0.0259687
0.0220717
0.0221749
0.202906
0.498193
0.0446024
1.63662
0.0410953
0.02177
0.0307975
0.0681077
0.0218598
3.06701
0.0527571
0.191041
0.0229952
0.0239307
0.0203118
0.0196906
0.0213684
0.0260148
0.0207911
2.17432
0.0374229
0.293437
0.0212709
0.0415247
0.0214517
0.51668
0.0386421
0.0521434
3.07545
0.0255271
0.0213336
0.0245984
0.02179
4.46353
0.0749668
0.0400875
0.0524798
3.4634
2.15894
0.103581
0.0478519
0.0213957
0.0229524
0.0230654
0.0486143
0.348145
0.0257894
0.0215494
0.352396
0.228444
0.0217518
0.0231651
0.0529622
0.0222745
0.0209552
0.0393111
0.0214032
0.0218504
0.020937
0.023351
0.0220008
0.0441973
2.32233
0.021461
0.33181
0.0929995
0.102897
0.0209286
0.0214894
0.0383775
0.0255523
0.0214314
0.134416
0.021344
0.0473666
0.021583
0.0400376
1.59953
0.0518822
0.0224694
0.0568002
1.81507
1.29783
0.0214292
0.0342304
3.61273
0.0211772
0.0221635
0.0736651
9.30927
3.30554
0.0235721
0.0213434
0.028658
0.0212093
0.0222579
0.0274701
0.0217564
3.50758
0.0217716
0.126191
0.0214555
0.0214644
0.0502447
0.0213652
0.0215426
0.0275775
0.526636
0.0205638
0.0375145
0.0218384
0.0211342
0.0216958
0.0274157
0.0253426
0.0666366
0.0230173
0.0217308
0.0218023
0.0368466
0.0223245
3.41611
0.0219761
0.103655
0.0322636
0.0229451
0.0269474
0.97049
0.0214987
0.02201
0.0200243
0.0702039
0.35609
0.021562
0.0355403
0.0209352
0.0343815
0.0214464
0.271663
1.50488
0.0233808
0.0249549
0.0267345
0.0253251
0.0222329
0.0207404