/*--------------------------------*- C++ -*----------------------------------*\
| =========                 |                                                 |
| \\      /  F ield         | OpenFOAM: The Open Source CFD Toolbox           |
|  \\    /   O peration     | Version:  v2012                                 |
|   \\  /    A nd           | Website:  www.openfoam.com                      |
|    \\/     M anipulation  |                                                 |
\*---------------------------------------------------------------------------*/
FoamFile
{
    version     2.0;
    format      ascii;
    class       volScalarField;
    location    "650";
    object      omega;
}
// * * * * * * * * * * * * * * * * * * * * * * * * * * * * * * * * * * * * * //

dimensions      [0 0 -1 0 0 0 0];


internalField   nonuniform List<scalar> 
13917
(
5.27854
0.0419221
0.195721
0.0223078
0.02929
0.0413482
0.0269391
0.0788693
0.0256506
9.60926
0.0753942
0.0218225
0.0245772
1.09071
0.0283836
7.00644
0.0218473
0.066062
0.110451
8.17227
0.0345494
0.0218252
0.0450286
0.0218273
0.0234439
0.0367787
2.14739
10.5164
0.0477506
0.0200416
9.40804
0.0653594
0.0223501
2.9768
0.021474
0.0950196
0.0243112
0.023568
0.0269758
0.0390156
0.0217873
0.0218462
0.0241154
0.104569
0.103972
0.211042
0.0327421
5.46464
1.27906
0.0214935
0.0217878
0.113296
16.2775
0.0217505
0.0218303
0.112056
5.09383
0.0450417
0.0217064
0.159718
2.44252
0.031901
0.0209032
0.0232418
3.13313
0.103135
0.0520936
0.0962277
0.070771
5.8236
2.99568
3.1159
0.0217694
0.0214261
0.0354687
0.0239764
0.0249118
0.0213399
0.0237354
0.0224322
0.0223833
0.0219618
0.0217504
3.13678
0.021154
0.111004
0.0629682
0.0216353
0.0385949
0.0217785
0.0207435
0.0242909
1.22441
0.0211418
0.0223352
0.0518429
1.72367
0.0222373
0.0215339
0.122606
0.0212869
0.0212034
0.0224322
0.0214778
0.0248473
3.43054
3.04655
0.0318069
0.0221762
2.17582
0.0215421
2.93351
0.0476431
4.3198
3.14208
0.0244353
0.103291
0.0208632
0.187957
0.0216779
0.021867
0.0210729
0.0566493
0.0910309
5.34176
3.22483
0.0230583
0.0373482
0.0211881
0.0919203
0.0326085
0.143031
3.48599
0.0243909
0.0764204
2.11878
2.50236
5.23086
0.0392554
0.0235149
0.333561
0.0211959
3.42833
0.021222
0.0216886
0.0256422
2.99094
0.543954
5.91982
0.0217893
0.0357188
0.0210753
0.0216653
0.0216869
1.84008
0.0225914
0.0214152
3.4498
0.021451
0.021037
0.0211433
2.79898
0.0265257
0.32253
2.49323
0.132722
23.4492
2.94719
0.0195904
0.0416342
0.0219756
3.37063
0.025608
2.44477
0.0691636
0.0212366
0.0223101
0.122519
0.0318423
0.0271685
0.0240056
0.0218715
0.0217861
0.16212
0.187989
0.1311
0.0217577
0.157113
0.0200503
0.104595
0.0694037
0.0958677
0.135103
5.16881
0.0211502
5.16344
0.0261144
3.571
0.0214306
0.0223307
0.0306788
5.61805
6.68823
0.023893
2.21976
0.0369731
0.0361727
0.0211977
0.122552
0.0223775
0.0208999
0.0359386
0.037812
5.75449
0.0742819
0.0385949
2.90308
0.0226561
0.020359
0.0203469
3.41572
0.163375
0.154505
0.0213669
0.0210416
2.06144
6.2424
0.0203051
0.020292
0.021813
0.0203714
0.0203617
3.27744
4.51885
0.0219976
0.0195963
0.0735636
3.35371
0.0215637
0.021364
2.22807
3.48671
0.177258
2.8953
0.0945408
0.0212301
2.65436
0.0763999
0.0446839
0.073819
0.0236106
5.2189
0.0216927
0.0419962
0.0627753
0.022122
0.0219373
0.0232168
0.027643
0.0215462
3.69956
1.31297
0.0210778
0.0202928
0.0227363
0.0202971
0.0216975
0.024566
0.0369546
0.0212031
4.15688
2.90617
0.02154
0.025449
0.608489
0.0202441
0.0932269
3.30746
0.0202553
4.28948
0.02145
2.79426
0.0213157
0.0266344
0.0222043
0.0211892
0.147572
0.0227101
0.53825
0.0286229
1.2092
0.026313
1.97039
5.44693
0.0211118
0.0512135
0.0282064
0.0247617
0.0288193
0.0236863
0.0212201
0.022403
0.120966
0.0375489
0.0407699
0.0235082
0.0213473
3.49888
8.28886
0.021104
0.0224578
0.0248027
0.0649721
0.122971
2.83122
2.45374
0.0758123
0.151412
0.0251066
3.02915
0.0849995
0.195713
0.0243852
0.028036
2.14404
0.0222667
0.0451602
0.0950674
0.0217212
3.3696
0.0211998
0.0410433
0.0204775
17.7066
0.0208024
0.0383876
0.0375531
0.0615953
0.0216229
0.0739281
3.2565
0.022221
0.0222571
2.89673
3.32204
2.61084
0.867886
0.0202327
0.0219454
3.54882
0.150714
0.0202461
0.0287784
0.0217585
0.0540646
0.0394735
0.110183
0.0918591
0.0936633
0.0405798
3.19921
0.0212279
0.02223
0.0309852
0.182697
0.0216783
6.25081
0.040355
0.262858
0.0218781
0.119031
0.0229171
1.1903
0.0218544
0.192272
0.611075
0.0402601
0.0215667
2.36083
0.0206653
2.47249
0.155105
0.0218479
1.23588
0.0226238
0.287139
0.0207201
7.04959
0.289149
0.02378
2.05316
0.0808443
0.0232148
2.57117
0.233415
0.0233367
0.148314
0.0218423
0.0817925
0.195291
0.0212246
0.0263398
0.0234767
0.0211721
0.02094
0.0212789
2.58102
0.142356
0.022036
0.0213464
0.0216511
0.050123
0.114003
0.0203006
0.0196093
0.120936
0.117879
0.0212175
0.0236236
2.52827
1.74945
0.13462
0.116688
2.84805
0.0207669
0.0202669
0.0316615
0.0209293
0.0203133
0.0220845
0.0202819
0.020707
2.9994
0.0218898
0.0418824
3.79588
0.0508913
0.0209199
0.021645
2.60371
0.0307037
6.52929
0.0203971
0.021355
0.0207314
0.0203831
0.024182
0.0228416
2.52064
0.0258132
3.51766
0.0213492
0.0351574
0.0263846
0.0223054
0.0920212
2.59296
0.0217209
1.68959
0.0209538
0.0213489
0.0216008
0.022643
0.0208537
0.0222274
3.44679
2.43194
0.0208348
2.002
0.118421
0.0218794
0.0554759
0.0712931
2.54071
0.0271221
3.43787
0.300933
0.305214
0.022865
0.0785844
0.0268365
0.023459
2.49529
0.0208813
0.0216919
0.0223423
0.0259916
0.0336772
0.162693
0.0527448
0.0241745
0.0263883
0.0631554
0.0542502
0.0220382
1.37414
0.0361877
0.0286435
2.44432
0.0211624
0.0564547
0.145585
0.0208432
3.25276
0.021453
0.0203795
0.0514041
0.0204102
0.0224661
0.120941
3.5286
1.79435
0.0211382
0.0225209
0.0235851
2.25295
2.23682
0.021926
0.0217944
0.0211179
0.0582055
0.554899
0.0212539
0.0215871
0.0222356
0.0211502
0.025947
0.0287069
0.0210678
0.0534451
0.0208457
0.0216942
0.0233244
2.85908
0.0204069
0.023846
0.021552
0.0341035
0.0649056
0.0575233
0.0652562
0.134807
0.0230806
0.0577827
3.58894
3.12729
3.42301
0.0210263
0.0215509
0.0269616
0.021445
3.18516
0.0202745
0.77895
0.0260995
3.49423
0.104419
0.0241056
3.20836
0.0208254
0.0615666
0.0221579
0.0225932
3.48691
0.0203446
0.211285
0.0211242
0.0228702
0.0215993
0.152314
0.0262592
0.0202707
0.105636
0.054347
0.616257
2.89303
3.59114
2.52002
0.0204143
6.07405
0.0205019
2.46239
0.612597
0.0231043
0.0238604
0.0212366
0.0357045
0.0237466
0.0203582
0.0221748
0.0242929
2.7154
0.0211895
0.0590863
0.0216567
0.0202594
0.0213933
0.13256
2.75776
7.21756
0.0690801
0.0285572
1.6931
3.23844
0.0207474
2.59085
0.0240565
0.0965473
0.0214402
2.08861
0.0211296
0.0262724
0.0217126
0.625911
0.0371508
3.08934
0.0211638
0.0355599
0.0214619
0.0214039
3.05871
0.118905
0.0216696
0.120346
0.0213471
0.0222805
0.0211977
2.90661
0.0211932
0.028135
0.0202638
0.0215578
0.183978
0.0211163
0.112187
0.0221111
0.0208194
2.46282
0.0608424
0.021866
17.6697
0.212008
0.0844554
0.148706
0.0208081
0.0294905
2.99587
0.228415
0.030307
0.0243274
0.026563
0.0219746
0.0212653
0.0950064
0.069973
0.0252512
2.45623
0.0376041
0.233272
2.32168
0.0383243
0.0365226
0.134838
3.83647
0.0212261
0.0338582
0.0916779
0.0208307
0.0212906
0.0213726
0.0239714
0.0225197
5.76619
0.0346991
0.021189
0.0883367
0.0210672
2.79083
0.0214424
0.0211863
3.42501
0.0611685
0.292626
0.0218359
0.0211954
0.021158
0.0221878
0.0284704
0.0211764
6.02222
0.0307569
0.477926
0.287786
0.0332888
3.62182
0.0225274
0.0220985
0.02153
3.18915
1.93022
0.026535
5.74806
0.745977
0.0208133
0.0211427
0.0241954
3.35664
0.340498
0.0374454
0.0221522
0.0238439
0.0997496
0.0243992
0.109963
0.0348359
0.022269
0.0224624
0.0221066
0.0283794
0.0263857
0.234367
0.0251809
0.0245073
5.77519
0.0213435
0.776672
0.0239799
0.0348331
0.025897
0.222447
0.021828
0.0580574
2.75815
0.229006
0.021469
0.025209
0.0231154
0.021354
0.0216948
0.0327389
0.026215
0.150794
0.112285
0.0207807
0.217452
0.0255953
0.0260283
0.123205
0.0220457
0.0614307
1.60848
0.0202937
0.0612037
0.0809297
0.0345205
0.0210679
0.0208818
0.0212552
7.17486
0.0223059
0.0216289
0.0405278
0.0212035
0.02097
0.107218
0.7822
0.0387408
1.77999
0.0501723
3.60254
0.0217
0.0254239
0.792401
0.0231721
0.0230496
0.0216034
0.021253
0.0218099
0.0257007
0.0596601
0.0210639
0.169914
0.0220463
0.678407
0.0240206
0.0270558
0.020481
0.0746289
0.0269457
2.70325
0.040177
0.0219895
2.87739
0.0225609
3.93096
0.0235404
0.0549206
0.0238719
0.0209521
0.0214515
3.3013
0.0282929
0.0880312
1.70421
0.0213469
0.0347881
0.019583
0.026869
0.513456
0.0196086
2.71769
0.0239277
0.057301
0.10108
0.442026
0.0204222
0.0213448
0.100051
0.0207981
0.0217113
0.0231095
0.0214999
0.0406282
0.0204105
0.103187
0.0222648
5.67497
4.03981
0.0828277
3.58325
1.75249
7.499
0.265085
0.020752
0.0221642
0.021593
0.0225762
0.0211229
0.0284155
0.0212403
0.11793
0.0217496
2.11689
0.022215
0.0309095
0.0881116
0.0210693
0.041675
0.0225594
0.0228379
0.0261731
0.020656
3.72824
0.0749668
0.106028
0.0211016
0.0215146
0.0220688
0.0221385
2.46187
0.0207745
0.128797
0.0211107
0.287491
0.0262311
0.0212295
0.0598008
0.0329285
0.0207863
0.283291
2.57469
0.0243013
0.074404
0.0207775
0.123571
0.021014
0.0221395
3.58373
0.021584
0.0223894
0.0870739
3.93158
0.0213251
0.691376
1.8171
0.0220117
0.023305
0.0215503
2.62395
0.0214861
0.113454
0.0217206
3.30016
0.0266496
2.4838
0.0213493
0.0201557
0.296762
0.0229923
0.0212976
3.63342
0.0230614
0.0209299
0.426683
0.0220044
0.0221622
0.0692802
0.0232247
3.17448
0.0396075
0.0709505
0.143547
0.0237763
3.24161
0.0224967
0.0649546
0.0213965
3.64409
0.301928
0.0218931
0.0210524
0.0222309
0.0219294
0.0208786
0.0207808
0.0211512
0.0214411
0.0292386
0.0202943
0.0228644
0.0695019
2.57603
2.70462
0.080811
0.0220792
0.298734
0.0211928
0.663446
0.549881
24.5036
0.020335
0.020762
0.0217335
0.021654
0.0203145
0.0207444
0.0212577
0.0377034
0.0209375
11.3891
0.434663
0.0209702
3.34051
0.0214078
0.0212889
0.0310455
2.87315
0.0591225
0.02117
0.307871
0.0212889
0.0213042
0.30934
0.0222747
1.74937
0.0224773
0.0661933
0.0209285
0.0211349
0.0309184
0.0847181
0.0229756
3.04349
0.0322776
0.0229869
0.0236371
0.0215133
0.0208617
0.0874672
0.0338044
0.0250749
3.06586
9.75459
0.0697581
0.0924462
0.0210839
3.19376
0.0210746
2.48757
0.0608353
0.0264321
0.02279
2.52654
1.66621
2.73449
0.0226252
0.675477
0.0208821
0.0212452
0.034995
0.0222047
0.0216952
0.368509
4.2122
0.0211335
0.0273986
3.41974
0.0211103
0.0202556
0.773828
2.746
0.0224479
0.0205965
0.0265195
0.0216225
0.0212552
0.0327348
0.0259285
0.0215721
0.495712
0.0227598
0.0347399
0.551619
0.0312395
3.53184
0.0218648
0.0221655
0.114596
3.98024
0.268185
0.0230149
0.0322432
0.0220456
0.0225118
0.021285
2.67047
0.0254685
0.0224661
0.0511414
0.0211886
0.230375
0.0726378
0.110647
0.057155
0.571436
0.354138
2.51237
3.06552
0.0235458
0.572712
0.0202713
0.0566123
0.0748023
0.449587
0.0247058
0.0226107
0.0255745
0.103821
0.0232067
2.51027
0.0347887
0.0843269
2.49562
0.0212369
0.0954042
0.0235487
0.0216964
0.0273311
0.0311684
0.0202753
0.0207273
0.0228195
3.13042
0.0209285
0.0230732
0.0237457
0.0224955
0.0215817
0.0883636
0.0663174
0.0224704
0.0210609
0.0832711
0.0783164
0.0374588
3.31794
0.0218923
0.0214568
1.8305
0.0216366
0.0233071
3.09915
3.40797
0.0293363
0.0567314
0.0267327
7.6803
0.120494
0.0323881
2.89484
0.0212083
0.0758979
2.5268
0.193045
0.549709
1.1693
0.020684
0.0216506
0.0244274
0.0216064
0.0217496
0.23427
0.0215939
0.0439539
0.0204986
0.0549566
2.58974
0.0232556
2.34932
1.70991
0.0214571
0.0724109
0.0263725
0.0229317
0.0213569
3.27033
0.0679775
3.68418
0.0275051
2.58879
0.0827729
0.0212187
0.0836844
0.0349779
0.0207475
0.0212456
0.154604
0.0213635
0.0257111
0.0363946
0.0256765
0.0220775
0.0532112
2.44754
0.0211559
0.152552
0.0673846
0.0217095
0.0211699
0.025545
2.56454
0.572138
0.0208835
0.0300706
0.0310348
0.470495
6.66229
0.0216485
0.0209506
0.0206811
0.0215193
0.0244666
0.024042
2.8559
0.0222326
0.0243843
0.0200845
0.0332314
0.0799649
2.75492
2.49714
0.0218646
0.0215526
0.0209017
0.0227713
0.0665056
3.81042
0.120508
0.091167
0.0302833
0.0483033
0.0236559
0.0519661
0.0254385
0.102449
0.0211438
0.118509
0.0581217
0.0207862
0.0218114
2.93726
0.0478467
0.0200695
2.53556
0.11715
0.0211605
0.404627
0.0234981
0.0212393
2.62094
0.438038
0.0211604
0.029324
0.100051
0.0335544
0.0223303
0.020392
0.0211835
0.020892
0.0213493
0.0295725
0.0500243
4.46667
0.0340538
0.025752
0.0312629
0.0799864
0.0210223
0.0337666
0.158509
0.225018
2.96196
0.0229707
0.0203759
3.51657
0.0210608
0.254213
0.0229606
0.0421243
0.0219679
0.0211117
0.291421
0.0262473
0.02287
0.0215043
2.55162
0.638397
3.30324
0.0218791
0.0216136
1.20277
0.0210228
0.0207915
0.115524
0.515954
0.0268379
0.0331181
0.0222593
3.0643
0.0212523
0.0244661
0.0220787
0.020361
0.219356
0.021249
0.0208723
0.588013
0.0559672
2.52128
0.208507
0.0211903
0.0299627
0.0209759
0.0211176
0.0237063
0.0225538
0.0216819
0.187198
0.0216387
0.0687861
0.0267241
0.0250076
0.0216422
0.0219798
0.0212283
3.30825
0.02027
0.156053
0.0659953
0.0228639
0.0502833
0.0330606
0.0302858
0.0215695
0.0273158
0.0209507
0.0207822
0.223076
0.0371232
0.0261057
0.0213828
0.0213482
0.0210974
0.0649967
0.0211903
2.84948
0.044727
0.0212022
0.0213159
0.0206356
0.0445052
0.0365614
1.739
0.0306722
0.245073
0.0249487
0.0905059
0.0239308
2.80006
0.0204911
0.0202308
0.0249804
0.0977346
0.0206637
2.90759
0.021656
0.0214887
0.119131
0.153828
8.26702
0.156373
0.0256904
0.147688
0.0359556
0.0207395
2.82376
0.0214177
0.0212243
2.2729
0.020562
2.92239
0.128097
0.0210921
0.0214571
0.0207741
3.63763
0.0214415
0.0203901
0.0709912
0.0211955
0.020945
0.0221385
0.0207549
0.0438934
0.0217553
0.0244077
0.020711
2.07796
0.0519308
0.0207309
0.020739
0.022395
0.0213004
0.0239271
0.0219638
0.0213575
0.0217831
0.0214637
0.0226041
0.0215388
0.059472
0.0206301
0.0750101
0.0217316
0.0482888
0.0208495
0.0216585
0.0211815
0.0203115
0.0358484
0.0262651
0.0251376
2.53908
0.0278453
3.35512
2.78055
0.0749834
3.64144
0.021679
0.0215129
1.70776
2.49716
0.0211701
3.34545
0.0207246
0.112577
0.713509
0.0237954
0.0771181
1.43814
1.86323
0.0213577
0.0455964
0.0209871
0.36835
0.0242912
3.08762
6.90907
0.0217728
0.0508353
0.619167
0.0219432
2.11701
0.187377
0.0232924
0.02096
0.10517
3.30215
0.0207361
0.0316297
0.0219844
0.888694
0.120663
0.0216079
0.0208799
2.30259
0.0210715
0.0214633
0.0221804
0.0207441
1.65942
0.0287601
0.0283589
3.13848
0.0213538
0.0549788
0.0217547
0.114729
0.0537018
0.346169
0.0208176
0.027529
0.0208604
0.0217081
0.0238542
0.0215379
2.42574
0.0227566
0.0207869
0.0211673
0.188357
0.0209429
0.363129
2.48465
0.7773
0.0215973
0.0209486
0.0212556
0.605542
0.0218682
3.32361
0.021431
1.60011
0.023159
0.0228434
0.241678
0.0216718
0.0217906
3.36594
0.101947
2.89176
0.0219653
3.50419
1.65887
0.0216147
3.11437
0.0217646
0.0255099
2.50387
0.0236229
0.0410089
3.76942
0.0300649
0.0641497
0.0216262
2.82009
0.021444
0.371788
0.0212574
4.31822
0.0214652
0.0215784
0.0236494
0.685401
0.0209841
0.0266648
0.0619265
1.47012
0.0212774
0.0291867
3.43136
0.104609
1.41874
0.0730135
0.0208455
0.102047
1.29794
0.0241567
1.83526
0.0201902
0.132516
6.24328
0.0210301
6.57222
0.0213184
3.46825
1.1366
0.0238975
0.024055
0.414642
0.77182
0.0214827
0.0228808
0.0207594
0.0216334
3.23393
0.0620013
0.178192
0.0217365
0.0273488
2.95327
0.0279075
0.693293
2.40672
0.0211518
0.0213972
0.181858
2.51425
2.35045
0.7447
0.192296
0.0378908
0.0484122
3.40266
2.49305
0.54797
0.02096
0.0751421
0.0437297
0.0682089
0.0214848
0.0260525
0.0576449
0.120656
0.782992
0.0221736
0.125211
3.12546
0.0419808
0.0214386
0.0214438
0.0788685
0.0209868
3.49801
0.0279687
0.0220996
0.153064
0.0455817
0.0207167
0.0353743
0.0294645
0.0215125
3.70422
0.0247876
3.71136
0.0210319
2.99232
0.477487
0.191725
0.0203109
0.0264414
0.0305416
0.0995735
0.105766
0.064598
3.23524
0.515612
0.019639
0.0257307
0.0224165
0.114611
6.39302
0.0207419
0.0206919
0.0228008
0.532238
0.101126
0.0210856
0.0487299
0.154002
0.0209334
0.0365892
0.0240581
3.69204
0.0271303
0.406575
3.39757
0.0281853
0.0246045
1.76307
0.0211607
0.0447511
3.03678
0.0245772
0.0791127
0.0312023
0.0555236
2.50977
3.4624
0.0216039
0.988309
0.372775
0.0205703
0.121478
0.0634862
0.104406
2.33504
0.94777
0.749879
0.0992843
2.83881
0.0268463
0.0634149
0.0205081
0.0217978
0.0215702
0.0209347
0.26822
0.118833
0.0202788
0.0460106
0.159998
0.0211463
0.542527
3.11102
0.020067
0.0218232
0.0206221
0.0226592
0.0433706
0.0214404
2.61817
0.0293097
0.066845
0.0260027
0.066225
0.0460564
0.0331788
0.121958
0.0215118
0.0227694
0.0202382
0.0209669
3.47836
0.0899388
0.0287954
2.49514
0.0218033
0.0221607
0.0319928
0.0207556
0.0211473
0.0712447
0.0253271
3.23487
2.51497
2.44947
0.0216553
2.58614
0.0212802
0.557868
0.0206953
0.129105
2.52313
0.0215285
0.353798
3.48216
0.032247
0.0224721
0.0209371
0.0277069
2.57048
0.020718
0.0218514
0.0225096
0.0237037
0.186286
0.022862
0.0256181
0.0211212
0.0224515
1.81551
0.03366
0.0240188
0.115061
0.083979
3.16537
0.98082
0.0232298
0.0225807
3.06616
0.0215056
0.0627005
0.0216875
3.282
0.0222546
0.0220467
0.0319634
2.74829
0.0213994
0.0208138
0.0204737
0.136113
11.5329
0.108656
0.0214882
0.0239341
0.0209364
3.19631
0.02108
2.53199
0.0547746
0.0218071
0.145547
0.0339225
0.113127
0.0221277
0.0207808
0.0299292
0.0405786
0.11801
0.0217831
0.0220392
0.0221306
2.84756
0.0216566
0.0224263
3.42335
0.0231696
0.026646
0.0245952
0.0211446
0.021322
0.413476
0.0234644
1.48394
0.21748
0.020007
1.47712
0.0219653
0.097381
0.0476329
0.0226707
0.02035
0.0199799
0.0214287
1.08533
0.0461013
3.36084
2.71953
0.0209689
0.0256897
0.0378928
1.74098
0.0214339
0.335473
3.45728
3.19067
0.0213031
0.0230401
0.0220891
0.270853
3.44454
0.0218534
0.0215526
0.0301952
2.83815
0.0217212
0.0231175
0.0230969
0.110128
1.18169
0.0205122
2.64354
0.0287905
0.0214267
2.53728
0.0544606
1.63973
1.03705
0.0317926
0.0257934
0.0224838
0.0267758
0.0222049
0.0628076
0.0456362
0.0213654
0.0244155
0.188475
2.52867
0.0207016
0.100956
2.58956
1.8252
0.021521
0.0215956
0.201445
2.92482
0.0901962
0.0211955
2.58419
0.0635753
0.0200691
4.46923
0.0272429
0.0218004
0.157611
0.0214955
0.0318455
0.020914
0.0198836
0.0216512
0.0204677
3.12149
0.0202705
0.021181
0.0730435
0.0250042
0.024548
0.124091
0.0215753
0.0214908
0.0230059
0.0225221
0.227984
0.243816
0.870849
0.98813
0.0341399
0.431611
0.0416483
2.82513
2.57543
3.04351
0.0209193
0.030057
0.0214544
0.0216136
0.0210325
0.0224265
0.181353
0.0568781
0.0375628
0.0211226
0.0214028
0.0537985
0.021836
0.0219852
0.0215841
3.19618
0.0307484
7.80612
0.0216422
0.225697
0.0220946
0.0219625
0.022292
0.0416659
0.0210838
0.0803683
2.9061
0.0402988
3.59378
0.505712
0.0229893
0.0273379
0.350281
0.10407
0.0204257
0.0209847
0.0199995
2.7624
0.0198643
0.0865506
0.0494697
0.073464
0.444854
0.184888
0.0619475
3.74051
0.0207525
0.0204647
0.173384
3.14581
0.0214615
0.0216293
1.16505
0.020973
0.158092
0.0228972
0.0210015
0.0254414
0.0215541
0.0680838
2.85739
3.11903
0.0247323
0.0215667
0.0746515
0.0226655
0.074514
0.0209195
0.127281
0.0857379
0.0219846
0.0217506
0.0200552
0.115795
0.0439665
0.189495
1.88326
0.029437
3.0952
0.0702236
0.104188
3.37433
0.0212991
2.69501
0.0224428
3.22726
0.25749
2.67446
3.23602
0.0220239
0.0524534
0.0981732
0.0215267
3.8823
0.0215423
0.0215452
0.0258834
0.022174
0.0303515
0.206714
1.8795
2.44435
0.0257609
0.0392014
0.0226737
0.0219555
0.021716
0.119031
0.0815707
2.49539
0.0438575
0.0203263
0.0207706
0.0222046
0.229603
0.024213
0.0225929
0.0250546
0.0819741
0.0311565
0.0412325
0.0372373
2.71808
0.0290766
0.0322842
0.0214398
0.025956
0.360187
0.0485458
0.045021
0.0207509
2.54956
0.0323416
0.0211667
0.0471834
2.87622
0.406746
0.0328092
0.0209852
2.48453
0.0220395
0.0209415
0.0203728
2.35043
2.07085
0.0229762
2.25143
3.03284
0.0246255
0.0372876
0.0579385
3.66744
0.0303063
3.41328
0.0220853
0.0390741
0.0265081
3.62071
0.0328784
0.0208819
2.97988
0.0216987
0.0224488
1.61244
3.25646
0.0671416
0.551804
0.0244283
0.0227423
2.69639
0.0211712
0.0211965
0.0216102
0.044186
0.0214185
0.0312234
0.0246226
0.243231
2.27698
0.0222573
3.84302
0.024491
2.93846
3.4564
0.0215856
0.0217945
0.0254294
0.488557
0.180652
0.0637972
2.87909
2.57672
0.362319
0.022802
3.03751
3.38082
0.0422192
1.92776
0.0216705
0.0214009
0.0216239
0.0225824
0.0213065
0.0326472
3.15857
0.0309512
0.188086
4.51638
2.97256
2.46508
3.21659
0.0281865
3.56116
0.100259
0.0706989
0.0206739
0.0215799
0.0649915
4.03759
0.022738
2.73314
3.07418
0.0209633
0.0216405
0.0218118
0.0839021
0.0221458
0.0692082
2.7315
0.0206757
0.0214108
0.0209379
0.0223457
0.0930811
2.94593
0.0356727
3.18549
0.102425
0.0211785
0.263069
0.119603
0.0216865
0.763727
1.93533
2.50137
1.80881
3.45577
0.0214457
2.8102
2.96954
0.147838
3.13674
0.0210104
0.0233265
0.023923
0.0234191
3.31857
0.063318
0.0217669
0.0270832
0.299148
3.04678
0.0226741
0.0218353
3.42925
3.19784
0.0217732
0.027806
0.098796
0.0213357
0.0214238
2.51897
0.0211365
0.23293
0.251147
3.40841
0.0210656
0.0699678
0.133806
0.0211342
0.0201164
2.40821
2.33999
0.0220405
0.0332791
0.159008
0.212112
3.43189
1.97651
0.025648
0.275269
0.317292
0.0341276
0.0211205
0.0746697
0.0204216
0.0202302
3.28897
0.0370475
0.0887093
0.0243978
0.025764
0.0209895
0.0204763
0.0222102
0.0224293
2.47521
0.02415
1.39845
6.14901
0.042948
0.0679463
2.5606
3.54266
2.49902
0.0209075
0.0248034
0.0347023
0.0254226
0.156793
0.300544
0.0221814
1.33337
3.23295
0.026482
0.0867768
0.0717777
0.0947217
0.103399
0.0228083
0.114918
0.126248
0.139485
0.155751
0.107141
0.0783038
0.0268054
0.0211006
0.0324016
0.086005
0.0211015
0.446144
3.61603
0.152165
2.93956
0.0200896
0.0207427
0.0389524
2.96934
0.022344
0.0239218
0.0617158
2.53479
1.07507
0.0215378
0.0308923
0.0251565
2.59495
0.306992
0.0241498
0.584651
3.02031
0.0955714
3.3134
0.0896608
0.308429
3.54682
0.0195824
3.69776
3.08364
0.0225986
0.0671083
0.0930291
0.0254845
0.0209158
0.658204
1.10025
0.0209073
0.0209545
2.50767
1.20295
0.0755326
0.0218053
0.191796
0.120743
3.04325
3.70322
0.0216159
0.0213864
0.022293
0.0229218
3.38429
1.18297
2.97783
0.0803042
0.224633
0.554578
0.02293
0.0210609
3.07818
0.0209646
3.49853
0.0209303
3.29866
0.0225967
0.0224788
0.722794
0.0216113
0.105589
0.411674
0.0244026
0.0236177
0.0227334
0.174863
3.3093
0.14582
2.96431
0.0239277
0.022699
0.0275761
0.0728758
3.81528
2.45227
0.0922918
0.208318
0.116971
2.83473
0.0212911
0.0209367
0.0206924
0.0206753
0.180574
0.0642354
0.40512
0.0401685
0.139574
0.0211498
0.273307
0.107412
2.77078
0.0214763
0.0228968
0.0198995
2.94585
0.0210232
0.691317
0.159328
0.114026
0.212618
0.0200268
0.0365156
0.142307
0.206913
1.0387
0.0216562
0.125667
0.0221021
0.0220232
0.0968629
0.973596
1.48714
0.0218848
0.0822109
0.12955
2.47664
5.26774
3.41692
3.45651
0.0210625
0.0587685
0.0216711
0.130534
0.0212241
0.104754
0.0233042
0.0479886
0.244417
0.42237
0.023497
0.0944873
3.05862
0.111826
0.0235938
1.65847
0.102403
0.0222851
0.0223581
3.3628
0.0285355
0.11769
0.560004
0.389968
4.13353
0.0230846
3.03463
2.89009
1.06909
0.541399
0.0311343
0.102648
0.0928883
3.38291
0.0700413
0.0222158
1.93594
0.0502177
0.450371
0.0275283
2.5326
0.52894
2.4005
0.0260935
0.196076
0.0242162
3.09273
0.144268
2.45553
7.38509
0.0209489
0.0198824
3.08041
3.6594
0.0316188
0.0221279
0.0412589
0.0299282
3.07704
0.0712826
3.10916
0.0259419
3.1666
0.114177
1.10856
0.0221689
0.139791
2.42903
0.0237188
0.0812151
0.0200757
0.0243147
0.0216653
0.274919
0.0212164
0.0216538
3.52224
2.99081
0.0206567
3.73406
0.0223996
0.0215778
0.0213203
0.0209526
0.0218085
0.874095
3.40175
0.020657
1.44042
0.0655174
0.0470598
1.92383
0.0824342
0.0254914
0.0317087
0.0213011
0.264131
0.0302829
3.78005
0.0246265
3.23118
1.28961
0.0681367
2.24598
3.23652
0.0207919
3.68999
0.0544424
0.063653
0.0372402
0.0212093
0.0454804
0.186757
0.0216183
0.066671
0.0214224
3.42158
0.137168
2.49646
0.169799
0.161606
3.49437
0.0216285
0.0212215
0.061037
0.0230042
0.0217928
0.0218228
0.0271219
0.0211197
0.0212086
0.0227316
0.041816
0.0232901
0.0272361
0.0229127
0.035811
0.097311
0.0236242
3.51499
0.0233765
0.0212709
0.0896162
0.0417164
0.02305
0.0211077
1.11586
0.0234608
3.15681
0.0236508
0.10646
0.0213168
0.021472
0.0919324
3.59141
0.0686426
0.034704
0.0201683
3.05516
0.0216902
0.0211724
0.0746506
0.0239898
0.132418
3.03644
0.0943693
0.0923525
0.0409093
4.17687
0.0215489
0.0216773
0.0619733
0.274742
0.0582602
0.094944
2.448
0.027481
0.021619
0.0277916
0.190986
0.0561631
0.0216386
0.0977815
0.0938073
0.0627877
0.0217991
0.0216709
0.157557
0.061795
2.44875
0.46361
0.0237442
0.0686037
0.0217729
0.0438084
2.14936
0.0217659
0.15846
0.0883299
0.0800929
1.08965
0.0215791
0.0214243
0.0212556
3.53207
0.206197
0.0235438
0.0920507
0.106834
0.0217475
0.0214797
0.125028
3.66831
0.15756
3.09417
0.149005
0.0304518
0.737829
0.117289
0.0302401
0.14518
0.0853046
0.217132
0.021563
0.0946083
0.129422
0.0224566
1.20125
0.0390566
0.0743165
0.0270632
0.142881
0.0211269
3.99465
0.02455
0.0208115
0.0210003
0.0207663
0.0227434
0.022521
0.0209195
0.0241471
0.021676
0.0223943
0.251329
0.0764405
0.0222565
0.0622538
0.0246622
0.0214043
0.0204372
0.0459135
0.0267322
2.71572
0.021598
0.0216145
0.0674393
0.144815
0.0216498
0.0215919
0.10712
0.0235732
0.0894108
0.0592722
0.0216243
3.5238
0.0237985
0.0223964
0.0727477
3.78059
0.0223619
0.0570985
0.0209038
0.0257598
0.0214107
0.0271781
0.0212064
0.0216307
0.0415245
0.05965
8.12104
0.0505133
0.0215403
0.0284858
3.19239
0.0488087
0.175185
0.0966683
0.0216699
0.0534264
0.174343
0.187894
1.51558
0.0259026
3.32299
0.28738
0.0295656
0.0217561
0.0738454
0.0223384
0.0555597
3.03011
0.0216206
0.365464
0.0218694
2.84464
0.0486536
0.0224643
0.0603265
2.92954
0.435264
0.023887
0.0712924
0.0304163
0.0206402
2.50623
0.0205248
0.0338515
0.0211111
0.0250736
2.50332
0.0703981
0.0206473
0.0290593
0.154639
0.0216012
0.0219864
0.0283075
0.0253912
0.0214912
0.0237957
0.0245227
0.0221189
0.0211185
0.060534
0.101272
0.177298
0.0210382
0.0571744
2.98853
4.34659
0.0208813
0.0216561
0.0251199
0.0874645
0.0222733
0.0210977
0.0212465
0.0209214
0.0260064
0.0275258
0.0246324
0.0640463
0.0233983
0.0204509
0.0234036
0.0625372
0.0470953
0.105051
0.0222539
0.0285993
3.19843
0.0295741
0.0246862
4.17405
3.1575
0.0966219
0.0663074
0.157827
0.0214195
0.169039
0.0271192
5.13123
0.0214232
0.021235
2.07481
0.0208205
0.240032
2.51131
0.022059
10.9817
0.0307838
0.0320304
0.0269346
0.0722671
0.0290381
0.0262768
0.312093
0.0208946
0.0242598
3.55832
0.023124
0.0215252
0.0303203
3.1438
0.0222929
0.0222964
3.15097
0.0234201
0.0268884
0.0575086
0.0203558
8.27376
0.0241331
0.0224564
0.10276
0.0563751
3.08955
0.0234935
1.84325
0.0336895
0.086814
2.50787
0.0216086
0.0326835
0.0895648
0.0222486
1.74697
0.0223326
0.0232714
2.92462
0.0222731
0.0412711
0.0857912
0.749555
0.03016
0.0265651
0.0224007
0.0238971
0.0883499
0.0245624
0.0307992
0.0732482
0.0532897
0.0217332
3.35918
0.0382364
0.0204619
0.0229479
0.0212441
0.0208113
0.0203613
0.021633
0.02157
0.0299404
0.0238994
0.0414898
0.0202226
0.0204509
0.0233605
0.0767103
0.0207489
0.030207
0.0617581
0.0288841
0.0300426
0.0214805
0.0232825
0.0243143
0.037819
0.0285305
0.0243393
2.58799
0.0217997
2.27444
0.0248596
0.0869758
0.0854717
0.0215952
0.0579754
0.0313798
3.11033
2.96678
0.0254231
0.0218049
0.0235685
0.029785
0.0479129
0.0215128
0.0510649
0.0529793
0.0230666
0.0556046
0.048436
0.0612243
0.0285112
0.151749
0.0836886
0.0271276
0.508472
0.0230252
0.124424
0.0225453
0.0212881
0.0802425
0.0822175
0.0214067
0.0499125
0.0214513
0.0216949
0.0215041
0.0220972
0.0215354
0.0214192
0.0214191
0.0223003
0.159286
0.02266
0.0213623
0.0226105
0.0226537
0.193693
2.90855
0.0605526
0.024233
3.26271
0.02147
0.0213763
0.542767
0.0322439
0.0222656
0.0223433
0.0217272
0.151685
0.0218487
0.0255931
0.0224119
0.0339797
3.76061
0.0214633
0.0560928
0.0643488
0.025176
0.0435616
0.0207386
0.0217405
0.0590979
1.74308
0.0233038
0.0360693
2.47432
0.0895069
0.0208552
2.59669
0.022778
0.0196387
0.0589124
3.52669
0.0215239
0.0207385
0.0232002
0.0302358
0.033965
0.0214371
0.0225162
0.0393274
0.0217335
0.0289007
0.0258071
1.42615
0.0204429
2.93878
0.641988
0.0361163
0.0213835
0.0908194
0.0210841
0.0235226
0.0216423
0.055174
0.0201953
0.0201753
0.0408271
0.0592457
1.50972
0.0219865
0.0200948
0.0233348
0.0208553
2.86361
0.0234577
0.0228951
0.0222061
0.0609942
0.047658
0.0235786
0.0231767
0.0448368
0.0217368
0.0216512
0.0234726
0.0222087
0.11162
0.0211955
0.0301596
0.0220393
0.0215494
0.0492747
0.0877444
2.8166
0.0215063
0.0576388
0.400876
2.94575
3.27271
0.0309271
0.0215759
0.0246149
0.0299694
2.41611
0.0219414
0.0251976
0.0271022
0.0309146
0.0202496
0.0540294
0.0466202
1.02495
0.0221697
0.0217272
0.08845
1.00953
0.0201238
0.0246198
0.0335361
0.0199832
0.0225886
0.0456406
0.0210618
0.0214942
0.0217632
0.0245075
0.080021
0.0362796
0.0225958
0.0206949
0.022274
0.144443
0.0199305
0.0208791
0.0260103
0.0865656
0.0256334
4.00779
0.024567
0.0215054
0.0215568
0.0231748
0.0212139
0.0331586
0.0619465
0.0209515
0.0210166
0.0220875
0.0213164
0.022204
0.0449761
2.55411
0.0227727
0.0970918
0.0232669
0.0213345
0.188848
0.023612
3.58115
0.0218484
0.0218385
0.0207472
0.0215177
0.022658
0.0306365
0.0392567
0.25799
0.0280321
0.0532085
0.0218495
0.0329708
0.0214467
0.0235012
0.0334665
2.53594
3.08139
0.0219368
3.24804
0.110828
0.0423751
0.872324
0.0198382
0.0214226
0.0217504
0.0230267
2.66992
0.0208101
0.0705013
0.456031
0.0225074
0.0809159
0.0199723
0.0315145
0.295779
2.00915
0.0218951
0.142153
0.113839
0.563577
0.0263122
3.25134
0.0226757
0.096889
0.0999217
0.0205186
0.0403008
0.0317334
0.0237025
0.404377
0.0307513
0.0209858
0.0222208
0.103732
0.0218152
0.0561276
0.0215937
0.0199006
0.0231913
0.032722
0.0215719
0.0797287
0.0267444
0.0237711
0.0198792
0.0215579
0.450927
0.0793192
0.145155
0.0338353
0.0250864
0.0280664
0.0256768
0.0214736
0.0228152
0.0340717
0.0232738
0.0242464
0.0203979
0.0259979
2.8823
0.0220421
2.59242
0.13248
0.0216784
0.0217259
0.0202696
0.0288592
0.0372368
0.0200981
0.025594
0.0230333
0.0220676
0.0211615
0.0221455
0.0213272
0.0216769
0.190688
0.0220198
0.0262437
0.0214666
0.163433
0.102028
0.0215018
0.162796
0.0216943
0.0240314
0.0305243
0.305396
0.0291291
0.021014
0.0213982
0.0330533
0.0419044
0.14456
0.0228794
0.0501498
0.111392
0.0220191
0.0215416
0.115865
0.05265
0.0312886
0.0217161
0.0221956
0.0228077
0.023475
0.0209352
2.441
0.0241472
0.0240497
0.0206498
0.028393
0.0204106
0.183329