/*--------------------------------*- C++ -*----------------------------------*\
| =========                 |                                                 |
| \\      /  F ield         | OpenFOAM: The Open Source CFD Toolbox           |
|  \\    /   O peration     | Version:  v2012                                 |
|   \\  /    A nd           | Website:  www.openfoam.com                      |
|    \\/     M anipulation  |                                                 |
\*---------------------------------------------------------------------------*/
FoamFile
{
    version     2.0;
    format      ascii;
    class       volScalarField;
    location    "600";
    object      ddt0(k);
}
// * * * * * * * * * * * * * * * * * * * * * * * * * * * * * * * * * * * * * //

dimensions      [0 2 -3 0 0 0 0];


internalField   nonuniform List<scalar> 
13851
(
-8.72303e-07
8.81755e-09
1.11768e-08
-2.71948e-06
3.77416e-08
-2.69192e-09
5.37354e-08
7.97871e-08
-5.51758e-05
9.53223e-09
3.7376e-08
1.94351e-08
-5.5108e-09
-5.35287e-05
-1.12503e-08
2.37329e-07
3.66414e-05
2.0659e-08
1.26236e-05
-8.21126e-07
-1.13236e-08
9.91838e-09
-0.000106572
7.62516e-09
-0.00194872
-1.10522e-07
-0.000107248
-0.00632772
0.00105408
4.58757e-08
-0.000305978
5.38436e-08
-1.32238e-06
-7.17004e-05
3.06859e-08
0.0010804
3.28211e-09
0.00409857
8.39053e-05
3.58288e-08
0.000591521
0.00138208
-2.23814e-05
5.26449e-06
0.00138919
3.46874e-08
8.1648e-08
6.18785e-07
7.1656e-09
-9.62785e-09
0.00020615
-1.10272e-09
4.50768e-07
5.00284e-08
0.000114734
3.55517e-08
-1.07208e-06
0.000505157
-0.000137701
-0.000284765
1.99224e-08
-6.58062e-05
7.23628e-09
6.45102e-09
3.73951e-07
-2.44862e-07
-0.000220215
6.55578e-07
4.5431e-08
-9.45206e-05
-4.71819e-05
-8.42547e-11
-2.95794e-09
-0.000276432
2.9946e-08
2.86451e-08
4.21258e-05
4.88051e-08
-0.00196482
1.1316e-08
4.46408e-08
5.05536e-06
1.83297e-09
-0.000129428
-0.00032946
-0.000243186
8.01472e-09
-0.000266278
9.82492e-09
-0.000401386
-1.6154e-09
5.41474e-08
4.5934e-05
-0.000199322
-0.000296991
1.46699e-06
2.0445e-08
1.06483e-06
0.000300754
1.83499e-06
1.39415e-06
7.10191e-07
-3.01753e-07
-1.47587e-09
4.07012e-08
5.82043e-08
4.02454e-08
-9.70779e-05
5.4488e-08
2.41088e-08
1.09977e-07
3.62397e-08
-7.73092e-07
5.41314e-08
-1.48838e-06
5.28441e-08
4.90363e-08
8.02224e-08
-4.39337e-06
-0.000115589
2.25294e-06
3.41494e-08
4.63778e-08
-0.000552297
7.98819e-06
7.05026e-07
2.19521e-08
1.85304e-08
-0.000225418
-7.15079e-08
1.13286e-08
-8.65958e-09
0.00447837
-0.000289943
4.41639e-08
-0.000266076
9.19563e-07
-0.000176264
-3.20639e-07
-7.46314e-08
1.14281e-05
2.18902e-08
7.48695e-09
-1.10738e-06
0.000993751
3.67277e-08
4.85484e-08
-0.000220134
0.000469734
5.66139e-08
1.06019e-06
-8.7483e-07
3.39784e-08
-3.3757e-06
-4.35795e-10
-2.253e-09
2.16501e-08
3.98796e-05
-4.42662e-08
5.13281e-08
9.75496e-09
0.00108781
3.45845e-08
5.81289e-07
-5.11046e-05
-0.00011113
-0.000236658
0.000179434
3.55625e-08
-0.0033976
1.96319e-08
5.16575e-08
7.31263e-08
3.08581e-08
-0.000362904
-9.99799e-05
2.7047e-07
5.20702e-08
3.50631e-08
3.95014e-07
6.48874e-06
4.72079e-06
1.67993e-09
-6.15739e-08
2.56186e-05
0.000508931
-1.59298e-06
2.25174e-08
-2.10896e-09
4.33602e-08
0.000414804
-4.5377e-08
-2.31339e-05
-1.26101e-09
3.79631e-08
7.86416e-07
-1.67208e-06
2.91342e-08
1.16998e-08
-6.2704e-07
6.1509e-06
2.74614e-05
0.000651089
-1.64137e-08
0.000774423
0.000153987
1.04609e-08
-6.94225e-08
-0.000292836
-8.02492e-09
-6.76021e-08
4.56855e-08
1.1235e-05
3.98569e-09
2.2534e-08
2.18843e-08
-1.02735e-08
4.86302e-06
1.33467e-08
5.22959e-06
5.21754e-08
-2.50146e-07
-9.24108e-05
-0.00031491
2.20209e-08
-7.4666e-08
5.40939e-09
1.85172e-07
2.13717e-08
2.90686e-08
0.000386014
-1.04774e-08
-6.77109e-09
3.20608e-09
0.000590932
4.57862e-08
0.0217032
0.00064399
3.59669e-06
5.30338e-09
0.000969226
-0.000342535
0.00155602
2.60463e-07
9.402e-09
7.523e-08
1.84659e-08
4.16492e-08
2.41682e-06
-1.24305e-07
-9.77145e-05
2.19529e-06
6.90307e-08
1.82872e-08
1.06697e-06
0.000884033
-0.00017454
4.69959e-08
-3.66944e-07
6.65372e-09
-2.64598e-06
2.75017e-06
2.2517e-08
9.26959e-09
1.91594e-06
-4.23074e-09
-1.28131e-06
4.03227e-08
-0.00524615
2.05966e-08
-1.06608e-08
4.54028e-08
-0.00100756
-7.65499e-05
-3.06921e-08
3.27097e-08
5.49111e-06
-1.74405e-06
-1.29085e-06
1.0363e-08
-0.000931615
0.000104163
9.49435e-09
6.11599e-09
0.0061739
4.36368e-08
1.91164e-08
-1.40913e-06
-2.15706e-09
4.45812e-08
8.14308e-09
2.02795e-08
5.27746e-08
8.93711e-09
2.06544e-08
-0.00020415
-7.9668e-10
3.45173e-08
0.000837931
-0.000532307
-2.66413e-09
-7.49273e-07
0.000322164
2.35216e-08
-3.19925e-09
-5.43294e-09
-0.000171597
5.0265e-05
1.69173e-07
4.05753e-08
-0.00385769
2.04745e-08
1.87294e-07
0.000334478
-0.00592617
5.06442e-08
0.0062476
-0.00041618
-1.64122e-05
-9.84652e-07
-1.90215e-06
-0.000286386
-0.000535476
-0.00311563
9.57938e-09
-7.27884e-05
-0.000180328
-3.90091e-06
-3.5924e-06
1.02588e-08
8.31245e-08
2.07584e-08
-0.000277111
1.07996e-06
6.13713e-08
8.4345e-08
-5.95965e-09
-6.34552e-06
3.61405e-06
4.37205e-08
-0.000279329
2.30862e-08
-7.2457e-09
5.24776e-08
-9.03178e-05
5.46781e-06
5.79367e-07
2.48827e-08
-6.0542e-09
0.000645938
-1.60287e-09
8.32898e-07
1.19396e-08
-5.00091e-09
4.93485e-08
7.04837e-09
3.8557e-08
1.04916e-06
2.10242e-06
1.84275e-06
0.00321012
0.000865538
3.65895e-08
0.000603014
5.50516e-07
3.90875e-08
-0.00534173
-1.67637e-07
0.000335883
-7.8196e-09
-1.61002e-07
-9.86036e-05
-0.00185895
7.64233e-07
-0.000226399
4.61227e-09
-0.000165598
-4.41391e-05
9.2953e-09
-1.72895e-05
9.45109e-09
0.000646871
8.69227e-09
3.7167e-08
1.16582e-06
2.20311e-06
-2.38485e-09
6.60189e-09
1.66038e-09
3.55524e-08
3.33804e-08
-5.44998e-08
0.00157296
-3.55057e-09
-7.89391e-08
5.94212e-06
-4.29692e-09
-0.00122875
-1.11477e-08
7.47029e-05
-7.32082e-09
-8.54665e-08
-0.000118792
1.06335e-05
4.63241e-08
-0.000165433
-0.000284031
0.000451384
-1.74801e-09
7.7647e-07
5.71517e-09
-1.62375e-07
3.62587e-08
1.49849e-05
0.000952214
-0.00174899
-5.80864e-09
1.38222e-06
-3.402e-06
-4.42007e-05
4.42098e-08
-7.02303e-05
-6.80271e-06
-0.000490116
6.11778e-08
0.00458761
-4.87183e-09
3.14102e-08
7.04879e-05
0.000134685
8.33198e-09
8.6886e-09
-8.40411e-08
4.704e-08
0.000682035
1.21126e-07
-1.51119e-07
4.08851e-08
4.12838e-09
-5.65259e-09
0.000516809
3.23519e-08
-6.52829e-09
0.00156687
0.00165133
1.54085e-08
2.64571e-05
2.84453e-09
2.38409e-08
-5.87622e-09
1.93179e-06
6.91439e-09
3.05846e-08
3.79451e-10
2.33498e-06
1.78593e-08
-0.000286493
2.41819e-08
4.68012e-08
0.00130314
-5.15175e-08
7.20989e-08
1.75844e-08
3.76531e-08
3.13422e-08
0.000344849
0.00266636
9.97259e-09
-1.66461e-06
-4.65048e-09
2.5184e-08
-0.000820555
-3.26008e-05
-6.84375e-08
4.47933e-09
-0.000584948
-1.2646e-07
-0.0860011
-2.69618e-09
-5.59878e-09
5.24487e-07
1.13771e-08
-0.00049059
-2.93638e-05
-0.00191529
3.48094e-08
-1.1276e-06
2.05052e-09
0.000886701
-8.77281e-09
-1.71317e-06
6.61775e-09
2.63386e-08
-1.23897e-07
8.49402e-08
3.58659e-08
-0.000141812
-0.000812117
-0.000353056
-5.67796e-05
0.00222842
5.22538e-06
3.16531e-06
2.86503e-08
3.25855e-09
0.002034
6.97742e-09
3.01108e-08
-4.11623e-08
-0.000379066
2.00167e-08
1.86003e-08
-1.71708e-07
2.95606e-08
3.17169e-09
0.000269118
1.42119e-08
-0.000336157
-0.000255102
1.14702e-08
3.48059e-08
2.51849e-06
-0.00657632
4.47606e-08
0.000952892
-0.00322926
4.10453e-08
0.00030363
2.60089e-05
4.99344e-07
3.49619e-08
0.00089404
-7.12107e-05
3.88026e-08
-6.34869e-06
4.60833e-08
1.68948e-08
0.00439846
0.000592673
-4.05713e-09
1.02419e-08
5.62355e-09
-5.67016e-08
-0.000196493
-0.000104565
3.49051e-08
4.75622e-05
3.16186e-08
4.48934e-08
5.33979e-08
5.33162e-08
4.37485e-08
3.15641e-08
0.000322973
1.29546e-06
0.00027959
2.02537e-08
6.99537e-09
-0.000962477
7.43741e-09
-5.33696e-07
3.86727e-08
2.46463e-08
9.53325e-09
0.00161472
0.000148119
1.61886e-09
-0.000112981
4.82934e-08
1.15729e-07
0.00147652
0.000182141
4.37535e-08
-2.49922e-09
-2.61507e-06
0.000277779
2.27164e-06
-7.03439e-08
0.073165
5.2993e-08
1.09053e-08
0.000772089
-3.43737e-05
-2.57244e-06
-0.000496851
-2.6076e-06
0.00141621
1.01523e-08
-0.000174758
-0.00126212
2.37779e-08
2.83189e-06
0.000778391
1.22339e-07
-7.04423e-08
2.41993e-08
-9.51453e-07
-8.34784e-08
0.000806701
3.15686e-08
2.36061e-08
-4.27142e-08
1.48761e-08
2.87537e-08
-0.000313693
2.41811e-08
-4.27098e-06
3.30235e-08
-1.50005e-07
1.24843e-09
2.41161e-09
-9.39799e-09
4.44339e-05
1.14036e-08
-0.000263035
-6.65989e-09
4.06154e-08
3.41647e-08
5.08961e-08
-2.86234e-10
-6.09119e-08
1.60366e-08
-9.87798e-08
-0.000151851
2.51217e-09
1.52636e-05
5.25405e-09
-3.85874e-07
-0.000123987
0.000456961
2.93744e-07
-0.000320256
-1.50163e-07
-8.77072e-06
0.000426495
3.39565e-08
0.000434142
1.21797e-08
8.74923e-09
-5.17182e-05
-0.000370792
4.28445e-08
-6.12868e-08
2.98966e-08
0.000981082
3.96281e-05
3.90419e-08
-2.22159e-08
-0.000656326
4.62114e-09
4.66322e-09
-1.21632e-07
4.43929e-05
-0.000590049
-3.24173e-09
4.86658e-07
1.79676e-08
3.05236e-09
-0.00226462
5.41029e-07
-1.60669e-06
4.9121e-08
3.3503e-08
1.54911e-07
-4.48895e-08
5.83733e-09
3.92908e-08
-1.33577e-07
-3.11915e-08
3.00793e-07
-3.86248e-09
-6.17601e-09
-2.16835e-07
-0.00896025
3.69805e-06
0.000415653
0.000521571
9.57776e-07
-0.000187318
-1.17642e-07
0.00441942
1.03571e-08
2.7581e-08
1.77376e-08
-2.28674e-07
-6.17163e-10
1.23927e-08
1.51645e-08
-2.30099e-07
-0.000268335
4.44637e-08
0.000603701
4.27327e-08
-0.00048287
3.77666e-07
0.000294735
-9.82149e-08
-7.09027e-09
1.39169e-08
0.000283489
-5.20887e-07
-4.78832e-08
5.26134e-05
5.64068e-09
0.000661745
-2.84511e-07
-4.59073e-06
7.8966e-10
-1.22164e-05
-5.64503e-09
4.13888e-09
9.26013e-09
2.46356e-09
0.00136475
5.17516e-08
-0.00144752
-0.000885317
-1.28427e-07
-0.000167787
0.000306651
-4.88444e-06
-9.75886e-07
2.68147e-07
-7.43727e-10
-1.05457e-08
4.95314e-08
3.50196e-08
2.59591e-08
1.19631e-07
-1.32632e-07
9.50018e-08
-0.00473391
3.0454e-08
-0.000152507
-1.05436e-11
-6.00042e-06
-4.89e-08
2.58209e-09
2.32419e-09
0.000280049
-3.28073e-09
0.000493128
0.000500171
-5.7093e-08
-6.30591e-08
4.00591e-08
-0.000215614
3.39376e-08
1.89315e-08
-0.000340802
3.92663e-10
1.97601e-08
2.63336e-08
-1.324e-08
-0.000164262
-7.56703e-09
3.85795e-09
-1.00182e-05
-0.000104956
3.83287e-08
-4.43329e-08
0.00168445
5.26542e-08
0.00150206
1.6825e-08
2.07159e-08
-0.00181415
-3.36067e-07
-1.63311e-06
1.16458e-07
4.13691e-08
8.52001e-10
1.92453e-11
1.19271e-07
8.88012e-09
-5.84485e-10
4.72663e-08
3.95771e-07
3.92846e-08
2.54633e-07
-0.00121735
-0.000298087
7.21862e-08
-0.000505712
6.60835e-07
7.0788e-10
-5.18859e-08
3.65162e-08
7.59247e-09
0.000794819
0.000790387
0.00024226
0.00207374
3.42998e-08
4.35531e-08
-1.57625e-07
4.06687e-08
4.3225e-08
-0.00115643
-1.68985e-06
8.56925e-05
-4.0926e-07
-4.1926e-07
4.54657e-10
4.71673e-08
0.0020429
-1.35056e-08
2.09108e-08
1.0098e-09
-1.48729e-06
4.92454e-07
0.000626351
-1.86841e-09
1.5752e-08
-0.000189098
4.70542e-09
9.75529e-09
4.5735e-08
-0.000402431
7.49178e-08
-0.000108581
1.23822e-08
9.42388e-07
-1.10008e-08
3.94307e-07
3.03941e-09
-4.00295e-09
5.11363e-09
3.63865e-08
0.000225587
9.58502e-09
-0.000209545
2.98781e-09
0.00228937
-0.000977898
-2.78553e-09
5.11595e-08
-5.9871e-06
0.0016732
2.29893e-09
-3.05191e-07
-7.81293e-09
-0.000229135
2.51578e-08
2.62837e-07
2.37883e-08
3.64037e-08
0.000728116
9.6702e-09
1.81198e-08
4.79259e-08
0.000285767
9.49694e-05
-0.000434392
4.60681e-08
-0.000218349
2.04603e-08
3.90392e-08
9.34974e-10
8.33162e-08
4.62251e-09
-0.00189472
0.00143637
1.40547e-08
2.46924e-08
1.78564e-09
3.7014e-08
-2.75695e-06
5.68813e-07
-0.000114845
-0.000236054
3.68567e-09
2.72205e-07
2.43261e-08
-1.26189e-08
8.55154e-07
3.53051e-08
1.22869e-08
-0.000993149
3.89617e-05
-1.03495e-07
1.85964e-05
-2.49569e-07
1.1276e-08
-3.4048e-08
-3.10995e-07
-1.6615e-05
1.17841e-08
0.00161497
1.4385e-08
9.48722e-09
0.00148185
0.00158969
-9.07187e-05
-0.000779619
0.00483089
3.65221e-08
2.44426e-07
-3.64171e-09
-0.00357026
-2.37892e-09
6.06509e-08
-0.000720328
3.55648e-08
4.46808e-08
4.45326e-08
3.9414e-08
-0.000331835
-2.16661e-06
3.09373e-08
-7.56138e-10
-0.000151575
1.67377e-08
1.13864e-05
2.01417e-08
-4.49594e-07
0.000454568
2.81218e-08
4.22123e-05
-4.83542e-09
-1.69809e-09
-4.23411e-06
3.53353e-08
1.65693e-06
-7.09777e-08
0.000458862
4.16929e-08
-0.000259776
6.91758e-09
-0.00046409
-6.22165e-05
-0.000258724
-7.01243e-08
-5.63538e-09
3.67965e-08
4.45209e-09
4.73042e-08
7.97812e-09
-0.000375941
7.66858e-09
1.94706e-08
1.3183e-10
3.78903e-08
4.40184e-08
6.02189e-08
-3.2823e-09
3.29778e-08
5.68024e-09
-0.00102883
-0.000113753
1.18968e-08
3.78781e-08
-0.001356
1.97512e-08
6.7512e-05
5.29557e-08
3.14103e-08
8.45786e-09
4.23921e-08
-2.35557e-09
2.76455e-08
3.43754e-08
-3.79405e-06
-3.55154e-09
6.17251e-06
8.52059e-10
-3.07495e-06
-0.00135516
4.68758e-06
-3.23582e-06
1.71424e-08
-0.00015856
1.29839e-06
6.92848e-09
-1.69814e-09
1.62428e-08
6.87762e-05
1.76999e-08
-9.22129e-07
-0.00580103
6.8824e-06
1.522e-07
1.77306e-08
0.0015713
-0.00443881
0.00479359
-4.25341e-09
4.17836e-08
3.67142e-08
1.73804e-07
-7.31897e-09
-0.000104224
-1.91654e-07
3.19854e-09
-2.05747e-06
1.15811e-05
3.12828e-08
-0.000935534
-8.78472e-05
-2.87763e-06
1.97112e-09
0.00179237
7.81797e-08
2.92305e-08
-5.1265e-06
1.57637e-08
2.91576e-08
8.21386e-09
3.84167e-08
3.86438e-08
-0.000513228
-0.000506024
-3.78331e-09
-0.000365014
2.03296e-08
-1.13616e-09
-1.356e-06
1.57982e-08
0.00227422
3.46339e-08
3.39198e-08
3.33523e-08
8.02521e-09
-0.00102038
-0.000234832
6.77481e-06
0.000189861
0.000211524
7.27771e-08
-2.09561e-10
7.29207e-10
2.98043e-06
3.62827e-08
8.0793e-08
-5.11902e-08
-0.00188644
-2.8676e-05
7.37476e-08
1.4919e-08
4.49788e-09
1.12464e-06
-3.79098e-05
4.33567e-08
4.54126e-08
4.94918e-08
-0.00213213
4.72524e-08
-6.16581e-05
3.99636e-08
1.56445e-08
2.94329e-08
1.16535e-08
2.03006e-08
-3.63351e-06
0.00158007
0.000375965
4.38659e-07
2.4591e-08
-0.000232296
3.26207e-08
0.00502968
-5.6343e-05
6.46567e-08
6.4503e-05
0.0012843
-0.000356249
-6.71246e-08
1.31537e-08
-0.000346376
1.15033e-08
1.84252e-08
-3.20739e-07
-1.00094e-05
1.22222e-08
-6.82133e-06
-1.95964e-09
0.00026111
-0.00199224
5.32741e-08
3.21992e-08
4.89931e-08
-2.52499e-06
1.0278e-08
2.19786e-08
3.59122e-08
1.02357e-08
4.3597e-08
1.54983e-06
3.16777e-09
0.00164009
-0.000190189
-4.16335e-09
1.67901e-08
3.23981e-08
2.29229e-08
0.000543896
-0.000181845
-0.000218756
-0.000185909
2.51255e-08
1.31501e-08
-7.20988e-09
2.98361e-09
2.27259e-06
7.47389e-09
2.04364e-09
-1.58253e-07
6.63413e-08
0.003006
-6.46562e-09
-0.000124268
7.85357e-09
2.02107e-08
1.94966e-06
2.99618e-07
2.0511e-07
-2.34516e-09
-0.000155312
-0.000404123
-0.00172137
4.15473e-05
7.3663e-05
-0.000163221
-0.000421637
-1.57996e-09
1.00512e-08
2.25753e-08
9.97938e-06
-3.40883e-09
1.46196e-07
-0.000135509
4.09049e-08
6.39351e-08
4.99207e-09
-2.55776e-07
4.74935e-08
2.71237e-08
3.46678e-08
-0.000820076
2.89564e-08
3.66797e-08
2.0178e-08
2.08138e-08
2.27387e-08
1.24223e-08
-2.66288e-07
3.98852e-08
-0.000425952
1.61312e-08
1.40864e-08
-0.000367534
-0.000905492
-0.00024474
-0.00155714
-4.2473e-07
6.83321e-05
4.58972e-08
-1.10108e-07
2.34855e-08
1.45199e-08
5.21814e-08
-9.55079e-05
1.95714e-08
3.3586e-07
0.00441443
2.94047e-08
4.55237e-08
3.14041e-08
-1.32089e-06
1.57412e-09
-0.000697839
2.43915e-08
1.19978e-06
1.58871e-09
1.22474e-08
3.99891e-09
-7.45412e-07
-6.02751e-09
-8.72167e-05
-0.000117816
-4.83258e-06
-0.000355053
-4.42517e-09
4.93119e-06
0.0460906
1.80647e-08
-0.00210238
1.50998e-09
1.90344e-06
-8.37703e-10
4.7333e-08
3.40905e-08
-8.79882e-11
4.06038e-08
1.7811e-07
-2.05003e-07
1.51986e-08
2.41591e-09
-7.19139e-08
3.8744e-08
-1.67119e-05
2.82992e-09
5.91015e-09
2.93165e-08
-0.00030622
-0.00190551
6.59778e-09
-9.40203e-07
4.76578e-08
5.19381e-08
7.06582e-10
-0.00159719
-9.1074e-08
3.48519e-09
1.14637e-07
7.93281e-07
-5.22666e-07
-9.07314e-05
2.21175e-08
5.12553e-07
-5.90213e-08
-2.80136e-07
2.67599e-08
3.5058e-08
0.000544144
6.57991e-06
-3.97872e-09
2.93394e-08
-2.21391e-05
3.84873e-08
1.56418e-08
1.67857e-08
1.8648e-07
0.00214984
5.39889e-08
-0.00013651
2.6246e-10
1.52786e-08
5.32179e-07
5.8618e-08
1.57015e-06
-0.000154541
3.94837e-08
3.23218e-05
3.75907e-08
5.0252e-09
9.70271e-07
3.65982e-09
4.14163e-09
4.03499e-08
7.44654e-09
-1.66744e-07
-1.23963e-07
1.33677e-09
7.91671e-08
3.88433e-08
2.53644e-08
3.37274e-09
1.71441e-08
0.00193314
3.00231e-08
2.26276e-08
-5.37703e-06
4.01313e-08
3.06016e-08
-0.00108724
1.89662e-09
2.16723e-05
2.43806e-08
-0.00109997
4.79554e-07
9.3077e-07
0.00233757
2.52814e-08
2.50334e-05
8.34408e-09
6.79047e-07
-1.00219e-08
3.54955e-08
3.65171e-08
1.7724e-08
1.27137e-08
1.94276e-08
3.2726e-08
2.9858e-08
1.85809e-08
-1.30787e-05
0.000175852
-0.00641948
5.13065e-08
-1.43297e-06
0.000242184
0.000126776
4.99023e-09
2.96445e-08
-0.000140581
1.4867e-08
2.45864e-08
0.000226794
0.000498001
3.98188e-08
-4.19349e-08
4.28327e-08
7.94014e-06
-5.50092e-10
1.36184e-07
0.00365173
1.00751e-08
8.06638e-08
-3.18926e-05
-3.6583e-08
7.37549e-06
-6.39924e-05
-6.69453e-08
1.35531e-08
3.04415e-08
1.18746e-08
8.48585e-05
0.00646082
-0.00231355
-2.8516e-08
6.12822e-10
0.000351621
1.04907e-08
1.45056e-07
2.62544e-08
4.97111e-08
7.53318e-09
2.36737e-08
0.000139397
0.000268236
5.05321e-08
3.19514e-08
-6.66648e-09
0.00169836
3.60108e-08
-8.33134e-08
5.42213e-06
2.71504e-08
6.64385e-05
-7.00802e-08
6.21136e-09
1.06879e-08
-1.17221e-06
0.000953875
2.2597e-08
0.00147448
1.09843e-08
-6.53128e-08
2.62315e-09
0.00021183
2.20468e-08
3.76402e-08
4.333e-08
-2.0508e-08
7.69767e-09
1.38368e-07
3.50312e-08
4.4658e-08
1.02895e-07
2.72453e-05
-4.85115e-08
4.31243e-09
5.98425e-09
1.27738e-08
-8.27175e-07
7.37384e-09
4.36625e-08
0.00494694
1.29107e-08
0.000145901
4.122e-08
0.00031968
-1.85233e-07
-2.46886e-09
-0.000298885
1.29313e-08
1.29334e-08
2.19258e-08
8.07422e-09
-6.17808e-08
-3.20556e-08
8.61949e-10
4.54168e-09
-3.63521e-09
3.07358e-08
5.0164e-08
8.2541e-08
2.32033e-08
2.38519e-08
-0.00114525
-2.93824e-09
-1.3568e-07
1.28642e-08
-0.000257547
-2.20132e-08
6.27057e-10
1.37481e-08
2.66923e-08
-0.000198098
-5.07724e-07
2.23132e-08
0.00157736
0.000238943
0.000325941
4.25048e-07
4.5121e-05
2.54528e-08
1.47671e-06
8.15452e-08
-2.41846e-08
0.00775498
0.000456567
-1.80265e-06
0.000885878
3.673e-09
-0.000134611
2.53764e-08
-2.27029e-07
2.96828e-08
0.00145777
-0.00124292
5.70812e-08
4.10679e-08
-2.67988e-06
3.36124e-07
1.89643e-08
0.000112156
4.14861e-09
3.87348e-08
2.47015e-08
-3.67586e-09
-6.47488e-09
1.44147e-08
-3.86755e-10
-2.35886e-08
-1.24571e-05
-1.28929e-09
-9.09015e-08
2.02593e-08
0.000346644
0.000651989
4.25344e-08
-5.56243e-05
3.0331e-08
-2.51381e-08
0.00133852
3.83626e-08
3.0341e-08
2.09118e-08
0.000336234
2.22311e-08
1.52575e-08
7.98386e-09
0.00504176
4.09264e-08
1.10759e-08
-1.13768e-07
-0.0014767
-3.94829e-09
2.96571e-08
-2.2969e-06
3.93871e-09
-4.57975e-07
5.80818e-08
-0.000240692
-9.23839e-09
7.0893e-09
5.5533e-08
-1.01957e-07
1.93518e-08
1.60739e-08
1.18462e-06
0.00287535
3.44321e-08
-0.000289929
8.36134e-09
5.7746e-08
1.6954e-07
2.63149e-08
3.02409e-08
0.00136693
1.16006e-09
2.52798e-08
4.6894e-07
0.000126582
-0.0012892
3.81615e-08
-1.22555e-08
1.31632e-08
2.70027e-08
-6.70941e-09
1.95222e-08
0.00129247
5.97598e-09
4.67756e-05
-1.05051e-06
8.13247e-08
3.89064e-08
-3.87648e-09
-1.03598e-06
-4.2586e-05
6.98353e-08
6.3527e-08
3.00137e-08
-8.05192e-05
4.61606e-08
5.58603e-08
-2.27237e-08
1.1752e-07
-9.81617e-10
-0.000128704
3.97837e-08
-0.000216003
0.00196097
0.000112047
1.88965e-08
4.33974e-08
-1.858e-08
7.39958e-08
3.06633e-08
3.69675e-08
-9.0719e-08
9.51735e-09
3.16223e-08
2.45369e-08
5.22114e-08
4.12339e-08
1.65633e-08
2.39809e-05
4.37731e-08
-0.00148446
2.42354e-08
-4.3204e-07
1.08765e-08
-1.27498e-06
7.56709e-08
-6.74449e-09
0.000969549
4.89264e-08
5.21136e-09
-1.88633e-08
3.83277e-08
2.05248e-08
2.05827e-08
0.00213865
1.88666e-08
1.92607e-08
8.26657e-07
0.00115573
1.13259e-08
7.15836e-05
-0.000267429
-2.08363e-08
1.59957e-08
4.34627e-09
8.54446e-07
1.2619e-07
-5.65663e-05
4.51224e-08
-8.7389e-05
4.23484e-08
-2.29896e-07
-0.000159987
-9.81981e-09
0.00301263
9.07656e-09
9.00721e-09
2.92781e-08
0.000445494
-9.47472e-09
2.65501e-08
-3.22372e-08
1.02856e-06
1.03338e-08
1.63795e-08
2.25398e-08
1.71266e-05
3.30589e-09
1.362e-08
-0.00065318
1.04033e-08
-3.141e-09
2.55639e-08
1.28348e-08
0.00321696
6.19119e-08
-2.4282e-09
3.62893e-08
-4.25336e-08
7.73704e-09
1.43854e-08
-2.54892e-07
-0.000905673
-3.60364e-10
4.77168e-09
-0.00242689
4.3474e-08
-0.00013669
5.31012e-08
0.000359155
4.25745e-08
3.45302e-08
4.6592e-08
-0.000162581
-0.000498093
-1.08201e-07
1.04925e-07
8.17696e-08
3.16301e-08
2.56297e-09
0.0024138
2.74428e-08
-1.43647e-07
7.99104e-08
2.90261e-08
2.09065e-09
-0.00118385
4.14383e-08
-3.18639e-08
7.94247e-08
2.28871e-05
9.56742e-05
4.29032e-08
-5.93363e-09
0.00135614
-2.84297e-07
-0.00144333
0.00225172
6.10857e-06
1.09213e-08
7.75252e-09
4.12333e-07
-0.00671956
4.66721e-08
3.15404e-08
2.6106e-08
4.37694e-08
-0.000238177
-9.11597e-05
-1.88349e-07
1.50003e-06
-3.02694e-06
-5.16595e-09
-0.000913672
3.0675e-08
4.27311e-08
-1.35941e-07
-0.000178695
-1.25045e-06
2.80357e-07
-0.00329277
4.4985e-08
0.000224031
0.00026228
-0.000593507
1.35159e-08
-5.10916e-05
-0.000488585
-0.000294034
-0.000134517
-0.0004421
-2.71694e-07
-6.32119e-09
-4.66813e-07
1.05645e-07
2.74958e-08
0.000574737
-3.33144e-07
4.96449e-08
-0.000334642
8.07141e-09
3.01645e-07
-7.43322e-09
2.30536e-08
-1.58825e-05
2.47173e-08
3.5657e-06
-2.18783e-09
-1.73445e-08
0.00130233
-0.000174672
1.28923e-06
-9.61253e-10
2.77627e-08
1.4713e-07
1.0064e-08
4.48866e-08
-3.59946e-08
4.56018e-08
-8.39697e-07
1.03001e-08
-8.99822e-07
2.9316e-08
-5.62931e-08
0.000405359
7.05617e-05
-3.78931e-09
3.32242e-06
9.03828e-05
7.3843e-09
4.22433e-08
-0.000623084
1.92538e-06
-2.70756e-10
-3.66918e-09
2.21958e-08
-4.33823e-08
4.33298e-08
0.00146031
2.15078e-09
1.51608e-08
1.34452e-08
-1.05213e-06
9.38191e-09
-0.00019591
0.000152511
3.99701e-08
2.24262e-08
-3.78951e-09
1.0543e-08
-5.23063e-09
3.92176e-08
2.60252e-09
1.65768e-08
9.97765e-09
2.86388e-08
-5.02001e-09
-4.99969e-08
-0.00525538
4.9197e-09
0.000274582
3.03086e-05
5.96692e-08
4.6862e-10
3.19004e-06
-3.07108e-08
3.12203e-08
-4.83691e-07
8.00902e-09
5.54074e-07
1.28369e-08
1.19544e-08
1.33645e-08
-6.16163e-05
5.93163e-08
-0.000853596
2.83502e-08
5.91448e-09
2.33718e-08
3.31889e-08
2.01263e-09
-1.33904e-08
-1.52444e-07
-3.72462e-05
2.04835e-08
6.83319e-05
0.00266285
-0.000378393
4.50964e-08
-7.27158e-07
-9.41763e-06
-0.00245275
-0.000889714
1.81469e-09
4.47326e-08
1.02473e-06
-0.00198859
0.000358564
-7.12266e-09
-6.17071e-05
1.29617e-08
3.1778e-08
-3.23413e-09
7.46141e-09
-3.76203e-09
-7.76417e-07
4.92654e-09
6.80908e-07
4.27988e-08
0.000440972
0.00145958
0.00278189
-4.65784e-05
-0.000352859
-6.33749e-09
7.86172e-09
0.00175604
4.15768e-08
4.06573e-08
5.259e-08
7.02436e-07
0.000179005
-5.87787e-05
2.07658e-08
4.02564e-08
2.27424e-08
-2.85686e-10
-7.34888e-05
3.41826e-08
0.00148147
0.000348415
8.47528e-09
-1.1488e-09
0.000223166
-1.50152e-07
5.09709e-08
1.705e-08
-0.00108204
0.000351285
1.78243e-08
-2.85371e-06
4.79932e-09
-0.000496276
0.015248
5.26211e-08
0.000392257
-0.000137606
-0.00307973
4.42858e-08
4.62017e-08
5.18496e-09
2.94122e-09
-0.00077052
2.64058e-08
-2.73311e-05
3.71063e-05
-3.18683e-05
3.12513e-09
1.24523e-07
-0.000478769
-8.93212e-09
0.00141021
0.00023261
6.30626e-08
2.01607e-08
1.56797e-08
-5.8214e-07
6.50895e-05
4.9606e-08
-0.000212313
2.01043e-07
-4.43446e-08
3.04197e-08
4.337e-08
-1.13565e-06
5.36152e-09
2.26881e-05
8.41191e-09
-4.6397e-08
5.17326e-09
-1.41977e-06
1.57263e-08
-0.000950034
0.00114969
3.60267e-06
-1.0911e-07
8.69803e-09
3.39531e-08
-3.97485e-07
-2.86785e-07
-0.00082865
0.00153838
2.05951e-08
7.46939e-07
-9.30971e-07
-0.000260874
5.94585e-08
-3.8945e-08
-4.97319e-10
1.95041e-08
-0.0018489
2.42657e-08
1.12191e-08
-0.000187423
0.000673518
-0.000307119
0.00018216
1.36599e-08
7.01609e-09
3.90545e-08
0.000343905
1.59413e-08
0.00310539
4.41399e-08
0.00258049
5.36881e-08
2.16398e-08
1.18117e-08
-7.71225e-09
1.40319e-08
2.91025e-08
0.000328509
-1.35252e-08
2.57218e-08
-1.26398e-08
-4.86545e-05
-1.506e-05
-3.33542e-09
0.000263091
1.43528e-08
1.42304e-08
3.54305e-08
6.5255e-08
-3.80787e-08
1.8498e-08
0.00693303
-1.36882e-07
5.46811e-08
1.35225e-08
4.68656e-06
2.24762e-08
4.27477e-08
0.00149055
0.00204364
3.071e-06
5.29304e-08
-0.00144995
6.96476e-09
1.24923e-06
3.9114e-08
-5.67533e-07
0.00177884
0.000259624
-3.59631e-07
6.06354e-05
-1.34605e-09
-2.54373e-07
4.08707e-08
0.00203469
-3.44974e-07
-9.44604e-09
6.77654e-07
9.8541e-09
0.00375407
2.49809e-08
1.38224e-06
2.62546e-05
0.000856875
0.000337698
0.00438715
-1.19036e-06
-2.62467e-08
1.67589e-09
1.59142e-08
1.83153e-08
4.86604e-08
-2.29821e-06
1.05698e-08
1.38563e-07
0.000358307
9.37693e-09
4.15987e-08
6.87091e-10
1.01902e-06
1.511e-08
7.96192e-08
-7.33857e-05
-6.57625e-09
-1.50812e-08
3.2794e-08
-3.55936e-05
1.89602e-08
-0.00161123
3.8213e-07
9.386e-09
5.03105e-10
1.67038e-08
3.00547e-06
-0.000941659
-2.77325e-08
2.6483e-08
5.41376e-08
8.26003e-05
-0.000182173
0.000850002
3.03262e-08
-3.01394e-08
-0.000678345
1.63307e-08
2.89666e-08
4.6347e-08
-6.9734e-05
-9.0456e-07
2.54824e-08
5.9405e-08
3.389e-08
0.000540509
-1.70001e-07
5.27743e-06
5.49794e-08
9.30112e-09
5.21801e-08
-1.44859e-06
5.67408e-08
-8.73124e-10
0.00232811
0.000271099
0.000226325
0.00318732
-0.00038862
7.97589e-05
0.000993299
6.94105e-09
3.32523e-08
-0.00465092
0.000242868
0.00206816
2.56383e-08
2.79223e-08
8.5015e-10
1.11042e-09
0.00340694
0.000624306
-1.09852e-07
1.97059e-08
-0.000101327
1.52743e-07
2.14276e-08
-0.000302507
-0.000717577
-5.17645e-05
5.26502e-08
-0.000883566
0.000761221
4.51261e-10
3.26092e-08
1.87885e-08
-1.59747e-09
2.95822e-08
-7.12604e-09
-3.16937e-08
1.77103e-08
-2.27194e-08
1.59768e-08
2.8943e-08
-2.14795e-06
0.000187917
1.29084e-08
-2.21907e-08
-0.000316501
2.7544e-06
2.7685e-09
8.61394e-09
1.84444e-06
-0.000238496
-3.67835e-08
1.7237e-08
8.16544e-09
-7.55914e-09
7.72933e-08
6.34641e-08
-4.92416e-08
2.42785e-08
-4.8357e-08
2.8414e-06
9.77968e-09
1.66566e-08
0.000311486
0.00213437
-0.000280848
0.000211794
1.87117e-07
5.64676e-08
4.42521e-09
2.37462e-09
4.15852e-08
0.00119415
5.92673e-09
2.78986e-09
4.93935e-08
0.00205702
-0.00924724
1.14678e-08
-2.17747e-07
-3.24636e-09
3.3361e-08
-3.22802e-09
-1.93031e-07
-2.50332e-09
-1.47311e-08
-5.38005e-05
1.82985e-08
0.000368032
1.58791e-09
-0.000422248
-8.11729e-09
5.28779e-08
4.16841e-08
-2.67559e-07
1.41063e-06
4.64893e-08
8.28238e-08
-6.69494e-09
2.37946e-08
0.000278914
0.000288136
0.00343243
2.33087e-09
0.00043255
-1.99372e-08
-1.80686e-08
1.19231e-08
2.72828e-10
3.42752e-08
-0.00018964
9.26438e-05
-1.48283e-07
1.61055e-08
0.00226441
2.29356e-08
3.18525e-06
0.000367061
-5.28014e-06
2.59664e-08
8.41552e-07
0.00196162
0.144076
-0.000598445
1.13371e-08
3.63265e-08
-1.62783e-09
2.96266e-08
-9.97642e-05
3.00408e-08
-8.31103e-09
5.59212e-06
-0.000365482
3.87508e-08
2.30799e-08
0.000135831
-3.30814e-08
-0.000117972
1.92836e-07
1.62456e-08
-4.15156e-09
-3.91648e-06
-5.03768e-07
-0.00146642
-2.27489e-08
-0.0123815
-8.46497e-09
8.40588e-10
2.88291e-08
9.9298e-07
9.97622e-09
-4.96595e-07
-1.44462e-09
4.19597e-08
-2.45901e-06
3.64443e-08
2.21779e-08
2.45165e-08
1.87986e-09
-0.000818741
-1.967e-08
2.37881e-08
2.34315e-08
5.31624e-09
1.10278e-08
-2.28829e-06
1.27734e-09
2.08765e-08
4.28561e-07
5.84418e-08
1.73092e-07
-7.26806e-08
2.94861e-08
-2.40049e-07
-0.000623224
-0.000182491
1.49588e-08
-0.000728856
0.000111685
6.3379e-09
6.13571e-09
-2.05885e-06
-0.000438856
1.01386e-07
0.000210658
-2.31074e-06
3.79315e-08
-4.55181e-07
5.08462e-08
7.61079e-09
3.84926e-08
0.00685269
-1.23284e-06
1.73047e-06
7.0646e-05
0.00301376
-0.000500949
5.0402e-08
-0.00021651
7.1889e-09
0.00230075
-0.000200732
1.70223e-08
3.317e-08
-0.000180151
-3.44995e-09
1.55259e-08
-3.41402e-05
-0.000810097
3.83023e-06
4.18427e-08
-0.000252842
3.32493e-08
0.00229242
9.2831e-05
1.34497e-08
0.000500228
-0.000290967
0.000188518
0.000119928
0.000202661
-0.000162012
2.74331e-08
1.1201e-08
6.57539e-08
-1.49725e-07
1.59796e-08
6.67905e-07
1.4416e-08
0.00030926
-5.0504e-05
2.99393e-07
-4.8775e-07
0.000403809
-4.13114e-05
5.94337e-06
-1.08342e-06
2.70213e-05
-2.41285e-05
3.41732e-08
5.11514e-08
0.000536994
2.32623e-08
4.34078e-08
0.000372403
1.80879e-11
-0.000726118
-2.03632e-09
0.000539955
4.19175e-08
-2.97296e-11
-0.00146257
7.1948e-08
7.44023e-09
-0.00022437
0.00249974
0.00050581
4.37249e-08
1.74808e-08
3.3239e-08
1.00691e-08
5.55083e-07
-8.54657e-09
-2.91858e-10
0.000921315
7.71237e-08
-6.83831e-09
-3.21679e-05
-3.29597e-09
3.19476e-08
-3.04961e-07
1.61409e-07
-3.59459e-08
2.23782e-10
-5.54162e-07
4.08345e-08
-3.51254e-07
0.0016982
-0.000179846
3.64307e-08
1.16669e-08
-8.40865e-05
2.34991e-08
-4.57777e-08
4.56246e-08
1.57147e-08
-0.00367987
7.32121e-09
1.14567e-08
-0.00154373
3.45888e-08
0.00233025
1.27902e-08
2.79717e-09
-8.48971e-07
0.0010436
-4.00508e-09
1.55586e-06
-8.73232e-06
3.16679e-08
1.3716e-08
1.54873e-06
1.84076e-08
0.000192855
-3.48791e-09
-0.0345277
1.10273e-06
3.82252e-08
2.23754e-09
-2.93536e-07
6.92971e-09
1.10577e-06
-1.25145e-08
1.09461e-07
-3.97988e-09
3.90697e-08
0.000476725
-5.40328e-09
-6.54009e-09
7.21412e-08
-8.84252e-07
-2.30175e-09
-9.13636e-08
-0.000429394
-3.59449e-09
1.01321e-06
6.70171e-08
-4.52718e-09
1.05791e-08
-2.19606e-09
5.17967e-08
1.85301e-08
-4.65002e-07
0.000142399
-1.55416e-07
-1.72085e-08
4.26416e-08
4.06227e-08
7.05278e-05
1.09274e-08
0.00273149
0.000945321
-0.000138856
1.74178e-07
-6.84358e-09
4.70139e-08
6.31624e-09
1.46231e-08
-1.46545e-06
-7.13762e-09
0.000382648
-1.70815e-07
0.000128713
8.9525e-07
1.15827e-08
4.42353e-08
-0.000186139
1.97688e-08
1.51468e-08
-1.09011e-06
-9.89315e-07
4.07912e-08
-0.000490648
2.07603e-10
9.22133e-10
-7.06463e-10
2.62607e-08
1.62517e-06
-2.46589e-07
3.50949e-08
3.53019e-08
-5.49209e-07
-2.03555e-08
-1.11624e-07
7.25329e-06
5.44941e-06
-1.48557e-06
4.27369e-07
5.67871e-08
1.40803e-08
-1.29623e-07
0.000890445
-3.76994e-05
0.0017114
2.30038e-08
0.00165153
9.28479e-08
4.64774e-09
2.18283e-08
-7.69518e-08
1.08543e-08
4.29073e-08
-0.000140841
1.49566e-09
3.50617e-08
-1.02234e-05
0.00456206
-2.94057e-08
0.000864491
-6.00174e-09
0.000111366
2.40826e-08