/*--------------------------------*- C++ -*----------------------------------*\
| =========                 |                                                 |
| \\      /  F ield         | OpenFOAM: The Open Source CFD Toolbox           |
|  \\    /   O peration     | Version:  v2012                                 |
|   \\  /    A nd           | Website:  www.openfoam.com                      |
|    \\/     M anipulation  |                                                 |
\*---------------------------------------------------------------------------*/
FoamFile
{
    version     2.0;
    format      ascii;
    class       volScalarField;
    location    "1000";
    object      omega;
}
// * * * * * * * * * * * * * * * * * * * * * * * * * * * * * * * * * * * * * //

dimensions      [0 0 -1 0 0 0 0];


internalField   nonuniform List<scalar> 
13851
(
0.128483
0.0241055
0.023989
4.88385
0.0220824
0.0259186
0.023944
0.0218465
3.67496
0.022043
0.0659931
0.0220799
0.0221108
5.43032
0.0358048
0.132167
7.63927
0.0219329
0.318219
0.12872
0.0404705
0.0260832
23.0755
0.0222638
7.28509
0.0630639
0.256735
4.36803
3.44228
0.0217707
4.76184
0.0239483
0.125959
4.73708
0.0443134
3.42301
0.022274
8.98904
4.76721
0.0220825
4.63037
3.55158
19.3059
0.639794
3.7444
0.0218897
0.0215905
0.126283
0.0234221
0.0221059
7.7293
0.0221667
0.131865
0.0300317
5.51447
0.0220814
0.128001
4.47093
0.356835
5.77
0.0220875
0.233368
0.0220965
0.0235544
0.226709
0.240824
7.76035
0.0695825
0.0221234
4.62639
4.35326
0.0488173
0.0220219
6.97829
0.0315691
0.0237194
6.19702
0.0216757
6.11837
0.0219525
0.0221382
0.368089
0.0436667
5.04967
5.54472
4.56511
0.0262583
6.90291
0.0220313
4.79488
0.0222024
0.0240329
23.9529
4.42725
4.31393
0.375141
0.0219201
0.13556
7.33577
0.186145
0.140388
0.0427316
0.0471896
0.0220673
0.0218764
0.0473896
0.0218778
4.40891
0.0240307
0.0219093
0.0310302
0.021888
0.166651
0.0628307
0.123313
0.0292715
0.0217803
0.0218048
5.02637
4.88672
0.23439
0.0218159
0.0221117
3.88579
0.245168
0.126881
0.0219188
0.0573005
4.29503
0.0453718
0.0260129
0.0313896
5.19352
4.62799
0.067362
4.33186
0.0659624
4.4707
0.0360206
0.0448411
0.343791
0.022625
0.0220309
0.110335
6.75778
0.0234784
0.0216688
4.45841
3.49255
0.0598549
0.139608
0.160223
0.067456
0.245231
0.0222686
0.0220521
0.0221022
4.55902
0.0414496
0.0234035
0.0222429
3.43302
0.0464498
0.126535
5.26139
3.86576
3.93912
6.33984
0.0305505
6.17953
0.0221027
0.0217837
0.0580694
0.0221392
4.43761
0.257863
0.151154
0.0217701
0.031526
0.147698
0.238597
0.596149
0.0297184
0.044905
21.1419
3.46401
0.125932
0.0294797
0.0222009
0.0218244
5.47951
0.0414081
7.35631
0.0259803
0.0233373
0.133697
0.122054
0.0221038
0.0221749
0.0729231
0.347205
4.37715
4.50001
0.0358572
2.88108
4.25487
0.0236911
0.0439673
3.72767
0.0253663
0.131355
0.0220945
0.36118
0.0222347
0.0452095
0.0244482
0.0220861
0.215706
0.022171
3.84899
0.0217684
0.129182
6.12614
4.372
0.0291645
0.0444707
0.0222639
0.0949486
0.0220134
0.0445343
7.4421
0.029105
0.0253488
0.0221177
4.38596
0.0217652
16.9605
4.45158
0.162122
0.0222513
1.22223
5.35872
3.82183
0.130219
0.0325944
0.146743
0.192857
0.0316223
0.349624
0.0329059
6.29502
0.134472
0.0218494
0.0257385
0.137065
3.3845
4.655
0.0218208
0.133894
0.0220284
0.178595
0.242511
0.0260914
0.0470586
0.137674
0.0219814
0.0452263
0.106942
2.76141
0.022082
0.0220835
0.0292961
4.18797
6.71211
0.0451393
0.0218325
0.238265
0.24342
0.110551
0.0463673
4.07656
7.57655
0.0265491
0.0327726
9.23577
0.0218665
0.0221016
0.113902
0.0575299
0.0217619
0.0222319
0.0220052
0.0220002
0.0323263
0.022095
3.7336
0.0425086
0.0219783
3.36439
3.91298
0.0221907
0.130695
7.85519
0.0227438
0.0222142
0.0444931
5.32515
7.34732
0.0634763
0.0220726
6.10655
0.022095
0.0692309
6.22243
2.52801
0.0233036
8.37325
1.69558
4.48129
0.158532
0.0467062
4.53582
3.92546
3.83704
0.0222421
5.47059
22.0578
0.81046
0.744162
0.0237108
0.0631215
0.0297218
6.19363
0.0491235
0.0218748
0.0215299
0.0274921
4.37244
3.24085
0.0218587
4.2785
0.029958
0.031679
0.0235262
6.39932
0.236864
0.134409
0.0241808
0.0248629
3.35276
0.0222117
0.255055
0.026441
0.0444233
0.030479
0.0220274
0.0219756
0.15861
0.204152
0.134676
2.88865
3.40534
0.0235535
4.34223
0.214095
0.0217138
2.68578
0.0878974
6.09327
0.0269206
0.0669391
0.214251
6.4862
0.151817
5.30028
0.0226265
0.249158
15.1629
0.0299879
4.9075
0.0325463
4.63954
0.0323447
0.0384311
0.135095
0.273743
0.0220527
0.0261467
0.0620714
0.0317098
0.0219099
0.0454493
5.3324
0.0220179
0.0441689
5.77512
0.0240073
4.34133
0.0423781
7.72724
0.0258742
0.0594874
2.20002
0.250198
0.0467104
5.56143
6.85438
1.05913
0.0219859
0.155258
0.032814
0.0659981
0.0218309
20.3756
5.52043
6.73761
0.0248068
0.1376
0.224088
6.36282
0.0216022
7.08165
0.308605
23.9051
0.0339023
5.35389
0.0220375
0.0221268
6.66669
0.232269
0.0220407
0.0241476
0.0450127
0.0218174
5.54019
0.0633156
0.0862838
0.0254362
0.0226406
0.0221875
4.76659
0.0219766
0.022166
3.99783
5.35393
0.0256069
0.242932
0.0221033
0.0220939
0.0243358
0.136567
0.0419478
0.0219196
0.0228417
0.219849
0.0232615
8.42948
0.0220751
0.0269391
3.81302
0.035587
0.0215866
0.0221202
0.025383
0.0222292
1.0526
4.06258
0.0328719
7.89942
0.0243712
0.0220559
4.15329
0.226113
0.0354137
0.0220345
3.88174
0.0346495
6.24762
0.0220694
0.0316194
0.156901
0.0334175
4.02814
0.231017
6.19427
0.0238001
0.164141
0.0219774
3.39262
0.0423264
0.121812
0.0325816
0.0239718
0.035506
0.0584803
0.0220943
6.70801
4.05088
8.80459
5.92758
4.07239
4.8002
0.252606
0.0281306
0.022207
7.37399
0.0220453
0.0219098
0.0302034
4.52109
0.0238908
0.0226273
0.0896997
0.0471153
0.0220479
7.60724
0.0219246
4.40577
0.95786
0.0219486
0.0233145
0.315766
2.96913
0.0217683
10.2223
13.3746
0.0216864
4.55234
0.305176
0.128911
0.0237733
3.98963
6.00974
0.0217022
0.318076
0.0221156
0.0219251
3.67442
4.70833
0.0384041
0.0411677
0.0220464
0.0537523
4.40671
4.49198
0.0217931
6.12756
0.0219166
0.0221299
0.0471738
0.0269122
0.0215961
0.0237324
4.61554
0.253042
4.44732
0.0235825
0.0220248
4.21576
0.0221786
0.156838
0.0269461
0.0316627
0.0325243
4.03165
6.14557
0.0257953
7.14795
0.0231129
0.0634424
3.61214
4.31191
0.0221091
0.0219825
0.0478124
4.46995
0.235592
0.052813
11.725
0.0270322
0.0314594
9.82469
7.68317
0.161386
4.29334
0.171772
3.51559
0.0224394
0.374705
3.57192
0.022077
17.9754
6.57662
0.0305331
0.0448646
0.0220635
6.8017
0.0775376
16.4921
0.021977
0.0221658
0.0265597
0.0465185
0.0220848
4.39249
0.0221601
0.165526
0.0238659
0.0674199
0.0220621
0.0220478
0.0464299
6.49471
0.046734
4.27196
0.0316176
0.0218264
0.0217662
0.0585949
0.0228397
0.0992824
0.024306
0.0348172
0.297953
0.0221804
5.57099
0.0222536
0.0898598
6.1726
3.92568
0.0287909
16.6016
0.0867539
0.277644
6.43578
0.0218534
7.49504
0.029953
0.0309778
5.69609
1.56446
0.0217238
0.096697
0.0220818
3.40987
6.92953
0.0222101
0.0732801
5.69482
0.0222634
0.0222521
0.0637238
6.88133
3.8438
0.0222212
0.135451
0.0230724
0.0220463
0.306409
0.137563
0.172431
0.0215856
0.107227
0.0463973
0.0555354
0.0226606
0.0231843
0.0726931
0.0263963
0.116691
0.0485983
0.0487315
0.132324
2.98717
0.311421
4.82392
9.87067
0.132619
4.11551
0.0398491
3.75293
0.132262
0.0219001
0.0308542
0.264564
0.0268348
0.021955
0.0219515
0.0900915
5.93272
0.0271023
4.30914
0.0218302
3.9458
0.149471
8.39959
0.0963863
0.0260115
0.0239805
6.93742
0.170724
0.0382772
0.221653
0.0224986
5.85714
0.0906921
0.168361
0.0322228
0.481514
0.0220341
0.0222453
0.023406
0.0220453
3.60723
0.022
0.288408
4.10101
0.0990714
4.54455
6.51311
0.173883
0.29762
0.0285813
0.0221799
0.0220686
0.0216844
0.0217665
0.0221412
0.0638379
0.159422
0.0502598
3.35593
0.0230903
3.67856
0.0222934
4.85019
0.0411355
0.0222835
0.0221327
3.9302
0.0260848
4.08764
6.54604
0.0429482
0.0646735
0.0216697
4.62089
0.0243544
0.0239265
0.364143
0.0221832
0.0226293
0.021845
0.0424365
5.6412
0.0291099
0.0324816
0.338828
4.35742
0.0291344
0.0268237
3.5988
0.0216818
3.53307
0.0222021
0.0232698
5.60594
0.0759109
0.121745
0.0923835
0.0470148
0.0222271
0.0222936
0.0684848
0.0224862
0.0222346
0.0275505
0.327348
0.0219838
0.256727
3.18606
3.8324
0.0910893
5.50574
0.0366859
0.0221753
0.149703
0.0218433
0.0261786
4.7716
3.39094
7.5352
3.72698
0.0222787
0.0221804
0.0698041
0.0230286
0.0218387
23.2383
0.182097
4.70821
0.0910788
0.0774917
0.0220469
0.0217764
5.35924
0.0868088
0.0235532
0.0222529
0.121444
0.189383
4.39502
0.0222569
0.0221516
6.88067
0.0226378
0.0325494
0.0218221
4.58171
0.0219177
5.5776
0.022074
0.144928
0.0380742
0.0701293
0.0324157
0.0220221
0.024173
0.0220219
0.254829
0.0226461
3.79103
0.0225626
4.49631
4.19144
0.0307308
0.0220034
5.1166
4.13992
0.026251
0.0755222
0.0220676
6.43663
0.0219187
0.26505
0.0220642
0.0220187
3.91151
0.0326919
0.0221101
0.0304023
4.33215
5.2762
5.71463
0.0218245
3.92996
0.0220748
0.021991
0.0222647
0.0214958
0.0222331
5.89704
4.91292
0.0221805
0.0221562
0.0386984
0.0218883
4.92956
0.153531
4.66856
4.62217
0.0241391
0.116566
0.0220699
0.0405281
0.119291
0.0218365
0.0222104
1.50611
6.7982
0.0633482
16.7921
0.0583767
0.0221007
0.040725
0.0767407
7.60664
0.0311797
2.2646
0.0889569
0.0222237
14.6879
13.4426
4.33508
4.1812
3.61438
0.023746
0.142266
0.0221685
0.843914
0.0263184
0.0218767
5.75262
0.0229869
0.0220045
0.0221081
0.0228456
4.43682
0.256815
0.0218694
0.0414164
5.38782
0.0231259
16.2158
0.02322
0.0732255
4.61902
0.0220978
0.225532
0.0294738
0.0321107
5.99294
0.0229681
0.356469
0.0587249
4.55282
0.0221432
4.40468
0.0297445
4.10337
7.85177
5.7101
0.042851
0.0220372
0.0222862
0.0222633
0.0367368
0.0221232
4.11288
0.0288936
0.0279252
0.0288821
0.0236811
0.0218224
0.0260871
0.0273001
0.0233177
0.0269826
6.03117
0.236875
0.0289696
0.0500871
5.8139
0.0226764
4.41657
0.0216938
0.0329205
0.0226554
0.0219365
0.0447533
0.0220506
0.0218642
0.0468555
0.0220587
0.307788
0.0226864
18.848
1.32074
0.200662
0.272267
0.0220424
4.40181
0.149562
0.0222261
0.027211
0.0225428
4.5749
0.0232015
0.0450412
2.85245
6.50369
0.0821934
0.022118
3.97699
1.93858
3.69787
0.0293909
0.0218173
0.0217767
0.0636411
0.0220367
7.27053
0.160136
0.0221975
0.215047
0.316179
0.0218323
6.17738
6.17736
0.177002
0.022664
3.96004
0.0634999
0.0220211
6.23074
0.0266459
0.0218227
0.0219381
0.0304642
0.0370782
3.85906
5.22083
0.0385536
3.94303
0.0320638
0.0220201
0.0823531
0.0219577
2.65921
0.0218105
0.0220462
0.0239765
0.0224482
4.14396
5.55356
0.241592
6.35617
7.39575
0.0290727
0.0220225
0.0226919
0.365262
0.0217927
0.0219002
0.0431085
6.80929
0.199588
0.0216473
0.0388954
0.0326371
0.130816
16.2257
0.0216816
0.0215842
0.0232459
5.73249
0.0275112
4.40236
0.0231696
0.022163
0.0218244
0.0219312
0.0244015
0.173362
3.56621
3.8322
0.0288575
0.0220562
4.19928
0.02223
5.91792
4.78399
0.030446
5.40162
3.54446
4.9308
0.0500269
0.030953
3.74695
0.0298697
0.0335834
0.0720303
0.283733
0.022455
5.19833
0.0220223
4.63355
6.30985
0.0216978
0.0238765
0.0456121
0.353765
0.0324476
0.0221426
0.0271498
0.0232192
0.0251893
1.16944
0.0221623
4.17269
5.67769
0.0220248
0.0300118
0.0368474
0.0220829
3.33743
15.2467
4.45813
3.37552
0.0220392
0.0245414
0.0263484
0.0222735
0.238743
0.0327361
0.0222565
0.0572841
0.0258239
4.73295
0.0381523
6.67729
0.0231189
0.0231553
0.0499072
0.0877634
0.0689009
0.0219848
17.0073
4.01965
25.956
4.48429
4.70266
3.84774
4.20603
0.0219888
0.0220258
0.0219661
0.236086
0.0414155
0.0687047
7.15031
0.0220908
0.0216648
0.0220444
0.214625
0.0216588
0.0260595
0.0236442
4.04971
0.0229307
0.0218512
0.0220866
0.0219722
0.0221628
0.0342117
0.234678
0.0337193
5.50155
0.0220342
0.0219317
4.29339
4.38534
6.62188
3.85125
0.048187
3.87725
0.0218129
0.0609674
0.0231594
0.0220795
0.0238172
5.05321
0.0228602
0.0890102
4.87004
0.0221602
0.0219257
0.0263822
0.177425
0.0222719
4.03883
0.0219506
0.216037
0.0221257
0.0221806
0.0263119
0.0975838
0.0221207
0.263791
4.39615
0.181614
4.68254
0.0220388
6.37093
0.271279
0.0220495
6.43651
0.0222669
0.0422709
0.0222062
0.0220249
0.0219611
0.022046
0.0224069
0.027142
0.062177
0.0221746
0.022097
0.0630419
0.0217016
8.42153
0.0221262
0.031158
0.0318078
4.94242
2.14684
0.0221469
0.179092
0.0218172
0.0290254
0.068758
3.68905
0.044785
0.0222723
0.103134
0.0758509
0.0771356
0.371717
0.0355101
0.141271
0.052869
0.0625356
0.0228949
0.0218298
3.81585
5.50205
0.024449
0.0220173
15.6004
0.021833
0.0402852
0.021961
0.0812722
6.92606
0.0215323
6.21254
0.0257578
0.0221705
0.148103
0.0218772
0.0405763
3.29748
0.0386586
3.87003
0.0219559
0.0222648
0.0436649
0.0222258
0.0222465
0.0270046
0.0288912
0.0628255
0.0852332
0.0220896
0.0388543
0.0218201
0.0220631
0.0222149
0.0220524
1.60399
0.0218428
0.0232617
0.241468
0.0218283
0.0220058
4.30548
0.0222497
18.4003
0.0230058
4.40333
0.228359
0.0516271
4.06343
0.0646099
1.99476
0.0223106
0.193104
0.0267716
0.0218176
0.0218944
0.0232407
0.0300719
0.0219639
0.0533553
0.0219045
0.0231325
16.8089
7.68117
4.13936
0.0237674
0.0470675
4.97797
5.88359
0.0221726
0.0257871
1.97442
0.0221156
0.0398504
3.33706
3.84258
0.0263865
0.0401205
0.0227516
0.336654
0.0222851
0.0356581
5.12
0.0221621
0.0218608
8.552
0.0430523
0.246034
4.78676
0.090766
0.0224118
0.0219086
0.0222114
4.75869
2.51217
5.38952
0.0557087
0.0220454
4.55711
0.0221094
0.163457
0.0267032
0.0230507
0.0408767
0.0220585
6.4086
7.38166
0.0216443
0.0636155
0.0425371
3.65344
0.0436986
0.0523072
0.243074
0.0318748
0.221531
0.0548903
0.0221121
0.033347
0.0810144
4.07457
0.0220353
1.50589
0.0461104
0.0550808
0.0222726
7.3359
0.02557
0.0235804
0.0218484
0.0390542
0.0378329
0.0557036
0.0221279
0.0226561
0.0564065
24.9428
0.0598793
0.0221571
0.0226299
0.0332098
0.218418
0.0221714
0.0883467
8.49257
0.0473198
4.089
0.0365847
7.79102
0.34998
0.0219889
2.06824
0.0222385
0.0248529
0.0309123
0.0329828
0.0974119
0.0426902
0.0427135
0.0446248
0.03048
0.0240759
0.0216523
0.0837314
0.0249783
0.0286868
1.58872
0.0259703
0.0302223
0.0219477
4.79859
0.0815419
0.0220887
0.0243116
0.0232783
5.38419
0.157052
0.0308893
3.7438
0.295661
1.04669
0.0892681
0.222253
0.0218923
0.309398
0.0218897
0.0268841
9.2344
3.31789
0.356768
1.83381
0.0221216
6.32364
0.0218892
0.0748415
0.0251149
3.73431
5.83673
0.0252138
0.0220233
0.330703
0.0428299
0.0220209
4.34281
0.02207
0.0236583
0.0249654
0.0222007
0.0302187
0.0233466
0.0220432
0.0344572
0.459829
0.0380106
0.0600204
0.0220167
6.43946
3.37416
0.0220046
0.237087
0.0250603
0.0291281
5.21078
0.0220011
0.0226822
0.0278423
4.29442
0.0220311
0.0221828
0.0387447
3.64505
0.0219877
0.0319743
0.0340003
1.33615
0.0454565
0.038537
0.21064
0.0220751
0.121293
0.0217138
6.41449
0.0296283
0.0220488
0.0261233
0.0951166
0.0221506
0.0220925
0.135173
3.85373
0.0222176
5.7879
0.0221877
0.021703
0.0619225
0.0220347
0.0218415
6.69676
0.0222737
0.0384423
0.145195
4.67205
1.04952
0.0217761
0.0239953
0.028022
0.0220748
0.0220363
0.0220957
3.35773
0.0221952
0.198416
0.109035
0.0218526
0.0217119
0.0294559
0.109151
0.239811
0.0553875
0.0607778
0.0237672
3.72187
0.077075
0.0289075
0.0378692
0.0651001
0.0892743
18.6482
0.0353587
3.6727
4.42683
5.52769
0.0242636
0.0219576
0.0374082
0.034247
0.0217905
0.0222213
0.132436
0.0222434
0.0222714
0.0220517
0.0215872
0.023213
0.0219957
6.49203
0.0220202
9.01128
0.0220823
0.0874588
0.0224861
0.111479
0.0781857
0.0220414
4.90047
0.0239781
0.0222256
0.0372644
0.0218098
0.0306803
0.0219328
3.68216
0.0240971
0.0405095
0.103391
4.85662
0.028307
0.227821
1.4456
0.0505542
0.02204
0.0228036
0.109819
0.0620479
7.15948
0.0217656
5.03513
0.0220827
0.0897023
8.74446
0.0357519
3.6191
0.0251295
0.0312386
0.024757
7.19243
0.0307026
0.0221421
0.0485117
0.134882
0.023276
0.0220389
0.0221433
4.67274
0.0222522
0.0275907
4.47083
0.0259759
0.0219852
0.0559579
0.0248134
4.70831
0.0216643
0.0220174
0.0218662
0.026054
0.0222984
0.0220594
0.0584406
4.17501
0.0219696
0.0221029
5.25232
0.0221125
5.81963
0.0232978
6.94964
0.0218558
0.0242745
0.0218152
3.79828
4.70036
0.0302549
0.0709413
0.0269467
0.0219455
0.022117
3.74732
0.0221369
0.0742819
0.0217876
0.0387468
0.0221897
5.49028
0.0218403
0.0412737
0.0218643
0.517795
0.977288
0.0217927
0.0441572
6.96381
0.0620034
4.00392
3.5528
0.242635
0.0233967
0.0328103
0.0905641
3.59225
0.0220529
0.035243
0.0280779
0.0219744
3.97997
6.10294
0.0633699
0.147426
0.335154
0.0332518
4.22837
0.0217839
0.0217885
0.0969573
7.75963
0.213337
0.157428
1.59035
0.0218138
7.39285
3.77001
9.5306
0.0222027
5.39366
5.22724
1.05975
3.99871
3.72988
0.0770984
0.0298895
0.16502
0.0255531
0.0219714
1.56432
0.0858984
0.0216361
4.69973
0.0221884
0.029219
0.0399669
0.0266758
1.26552
0.0347201
6.10528
0.0405655
0.0261052
4.15513
4.80667
0.132295
0.0223705
0.0257841
0.0693063
0.0587197
0.0218338
0.0465014
0.0622273
0.141313
0.0219732
0.183131
0.0242647
0.0488257
4.13921
0.210389
0.0230752
0.132692
4.60202
0.0221616
0.0227594
8.81743
0.326652
0.0241878
0.0244081
0.0220914
0.0735693
0.0248109
3.54775
0.0975471
0.0225066
0.0222233
0.0667622
0.0295625
0.370916
6.43453
0.0218766
0.0220338
0.0274891
0.0221945
0.023976
0.0228656
0.0226626
0.0257605
0.0219377
0.0247669
0.0221818
0.0431314
3.14279
0.0222642
5.55686
10.8029
0.0217131
0.244699
0.131895
0.0855218
0.0227153
0.0852351
0.0264843
0.0799642
0.0287873
0.0231533
0.0222094
7.04862
0.0267978
3.89103
0.0227006
0.0220367
0.0220228
0.0699468
0.021964
0.0469826
0.0552695
1.66251
0.021919
0.265751
4.60666
3.97145
0.0218064
0.13813
1.01136
5.01616
2.13509
0.022547
0.0222584
0.159958
1.34412
3.49006
0.0383476
0.237888
0.0222315
0.0218325
0.0399185
0.0221958
0.0221308
0.16122
0.0222654
0.0907063
0.0218456
4.83571
5.39341
4.69882
4.12549
4.09076
0.0221234
0.022145
6.68061
0.021778
0.0218026
0.0217033
0.121556
4.7759
6.54175
0.0275241
0.0220156
0.0230841
0.0371942
5.21642
0.0220373
3.61905
4.94654
0.0221888
0.0221777
4.00515
0.0706597
0.022993
0.0220415
5.74929
4.29041
0.0219591
0.184329
0.0222536
3.90512
3.07773
0.0231334
7.27363
6.62729
5.49071
0.0218323
0.0220525
0.0222449
0.0222861
4.48723
0.0219125
0.24
0.222821
8.58488
0.0225775
0.0572767
0.276097
0.0471074
6.61235
4.43166
0.0216364
0.0251157
0.0252803
0.126794
4.15649
0.0215748
5.38846
0.0320475
0.0396269
0.0227256
0.0219484
0.280893
0.0392697
4.93843
0.0221957
0.0541498
0.0224997
0.113105
0.0239069
4.08827
3.6709
0.270807
0.0850111
0.0219666
0.0238299
0.0796469
0.225624
4.12822
6.77905
0.0221496
3.77281
0.0934678
5.02576
0.0257282
0.042555
0.0383767
0.022058
5.57888
0.0220699
0.0313034
3.46372
4.71793
1.40338
4.63416
0.0282537
0.0460641
0.0217423
4.85374
0.0271791
6.6885
0.0217299
4.83052
0.0215392
0.0220024
0.0309336
0.0313073
0.0324339
0.0219762
3.68078
0.0400819
0.0219157
0.0371651
3.87467
0.605311
0.0220349
4.70226
0.024282
0.032116
0.0303547
0.0216951
0.0614979
0.0219954
8.63166
0.0806155
0.02591
0.0220291
0.348132
0.0381836
0.0217291
5.08261
2.69578
0.232031
0.0216301
1.01474
0.022141
0.143187
0.0266559
0.118618
4.05085
3.84505
0.0343225
4.64031
0.0489653
0.0284254
0.0218274
5.21431
0.11279
0.0999527
0.0621541
0.0222435
3.72178
0.0847466
0.359216
0.241517
6.55587
3.63431
4.30816
4.91408
0.0288697
0.0315521
0.022096
0.0220469
0.0215941
0.159599
0.0290064
0.0328555
4.76612
0.0219386
0.0218596
0.037982
0.135205
0.0270918
0.0218155
4.43776
0.024027
0.0426471
0.0222044
5.65492
0.0286921
5.85549
0.0560186
0.0327515
0.051607
0.022089
7.89825
0.292133
0.0671684
0.0220407
0.0219109
6.86717
4.54971
3.36618
0.0218367
0.0684553
0.525298
0.0220148
0.0220081
0.0220796
4.64444
0.101696
0.0342937
0.0262146
0.0254022
4.70595
0.087657
0.236433
0.0255058
0.0312958
0.0215797
0.125773
0.0540138
0.0220148
3.71162
4.48561
4.21342
3.88203
4.86252
8.32941
6.62099
0.0231252
0.0218097
5.94142
4.91639
6.65988
0.0220662
0.0381149
0.0220468
0.0219656
3.40478
4.8463
0.0590165
0.0220037
0.245709
0.0876594
0.0466944
4.13958
2.47742
0.233162
0.0219161
4.0737
3.10081
0.3428
0.0304017
0.0404044
0.0221745
0.0218765
0.0376886
0.0439281
0.0243408
0.0374417
0.0270859
0.0249506
0.228165
4.05903
0.0314616
0.0389924
4.02266
0.200979
0.0221114
0.469669
0.93444
4.72245
0.0399246
0.022104
0.0287019
0.0266177
0.0300754
0.0216932
0.03312
0.0297626
0.0421449
0.236497
0.0222306
0.0229579
3.72227
3.8002
4.66968
0.305718
0.10129
0.0215237
0.0220457
0.029575
0.021736
6.80605
0.0220378
0.0222733
0.0217266
3.65694
18.3175
0.0224122
0.0575195
0.0280088
0.0352742
0.0293422
0.035279
0.0378804
0.0365518
4.77248
0.0256297
4.59191
0.0382958
4.65129
0.0288351
0.0219361
0.0218223
0.0879344
0.136123
0.0218272
0.039147
0.0289989
0.0568744
4.05575
6.89017
4.49316
0.0222731
0.949896
0.0296219
0.0361066
0.0220298
0.066664
0.0236739
3.64898
2.02019
0.039159
0.0220787
3.7812
0.0272647
4.27029
5.00489
0.227544
0.0242081
0.122386
4.58086
0.804928
3.73257
0.0577
0.0219391
0.0389639
0.0218296
9.12348
0.0245705
0.0311056
0.227994
4.61192
0.0219076
0.0219586
4.2812
0.0405194
8.37833
0.0328719
0.0220424
0.0412157
0.200621
0.0433708
3.76916
0.0354649
0.624051
0.024872
0.0222447
0.0219439
0.267013
0.0226625
0.126619
0.0220489
0.022
0.253227
0.0254472
0.0220655
0.0220379
0.0347465
0.474605
0.0392634
0.0378536
0.0263609
0.0582544
0.0220367
0.152867
0.0297263
0.0409938
0.0687813
0.0267027
0.0850265
0.0449809
0.0218122
0.0618394
6.82154
3.27379
0.0220624
2.13244
4.24169
0.0219648
0.0226626
0.820302
4.07808
0.0278168
4.08622
0.354475
0.0219732
0.076845
0.0215927
0.0255248
0.0584315
9.85657
0.514495
0.21419
0.259998
3.80686
3.89922
0.0230555
3.69732
0.0220362
3.16242
3.97239
0.0221
0.0220833
3.42647
0.0221154
0.0220854
0.270146
4.35651
0.209808
0.025428
4.08476
0.0221037
3.92347
3.83743
0.0221901
0.461328
4.66033
4.4378
3.53562
3.72834
3.63959
0.0218813
0.0231975
0.0584858
0.0598503
0.0220797
0.200068
0.0220408
3.63085
0.26309
0.0491
0.252435
3.56076
0.261277
0.23455
0.0613688
7.62126
0.452121
0.0247116
0.021636
3.43389
0.0345721
0.0217747
7.07801
0.0219766
3.59645
0.0221429
4.69991
0.0248325
0.0219812
19.3278
0.0274542
0.0353873
3.69885
6.63279
2.17409
0.026661
0.040875
0.0233077
0.0363772
0.118298
0.0372141
0.0222095
1.60452
0.0578199
0.0327241
3.97132
0.0386025
0.0368162
0.199981
0.0700054
0.0410215
0.0219766
0.19316
0.0218213
0.116514
0.259392
4.36151
0.0218741
0.0379608
4.63393
0.0230205
0.0621449
0.0294224
0.0404661
5.97152
0.0570702
0.0234298
15.0067
0.0218849
3.76432
0.0221253
0.0228427
0.114179
3.41449
0.0322011
0.38657
0.578366
0.0297174
0.022164
0.159633
0.0435962
4.66816
0.0265304
11.187
0.133822
0.0295622
0.0287306
0.101762
0.0366604
0.0732221
0.0566716
0.0378892
0.0241296
0.0220158
2.07927
0.0220116
0.0282065
0.0216072
0.0995169
0.0284957
0.0558508
3.85414
0.0230217
0.214898
0.0215166
0.0221528
0.0221888
0.0222065
0.0256576
0.0219432
0.078008
7.61482
0.0549766
0.0427645
0.0244859
0.0220313
0.216533
0.0220258
4.45454
4.94686
4.80044
0.133439
0.0345414
0.0262492
0.0221777
0.0296859
0.0969934
0.041725
4.15284
0.0541495
5.05712
0.135828
0.0222102
0.0218437
3.32529
0.0219514
0.0287987
0.064853
0.335662
0.0230388
4.39078
0.0221734
0.0256215
0.0220482
0.0226238
0.163295
0.096925
0.0221986
0.0305526
0.0354123
0.043102
0.0527042
0.501885
0.348572
0.25986
0.121922
0.0252478
0.0229054
0.0518474
3.39826
6.48147
3.817
0.0302343
5.34197
0.0947774
0.0226516
0.0219961
0.0559995
0.022144
0.030391
5.49024
0.0219654
0.0218054
0.501364
3.42374
0.0429167
1.29302
0.0221153
5.55687
0.0412782
4.71738
0.0292632
0.0220334
3.94518
0.0595919
0.0220306
0.0715085
0.0222528
0.154911
0.0285534
0.0542041
7.17558
0.0334368
5.29264
0.0219329
5.15788
0.0221258
0.0258077
0.0224643
0.0450802
0.0221437
0.0552475
3.71153
1.01848
0.0471021
0.0318237
0.0759353
0.0219031
0.0219589
0.0228506
1.9156
0.0248384
4.87276
4.41517
0.137597
0.0222154
0.141613
0.217774
0.13842
0.0250831
4.70628
0.0219753
0.0215299
0.0219607
5.0002
0.022053
0.0220149
3.81508
0.0219758
0.158248
0.0996954
0.0217711
4.1578
0.0268801
4.6618
0.0219243
1.78516
0.0227753
0.0708588
9.74348
0.0613016
0.0219464
0.0262568
4.62226
0.0303013
0.145803
0.0300555
0.0261348
0.139186
0.0289486
0.0221116
22.8748
0.0288943
0.0270161
0.130923
0.0219711
0.0218637
0.022189
0.0291626
0.0221257
0.0258092
5.40812
12.8975
0.102375
7.27798
0.0554791
0.0320557
4.71781
4.71167
0.022436
8.97431
9.02862
3.83986
1.98129
0.0303735
4.583
3.94577
18.1009
2.0649
6.3038
0.0425715
0.082475
0.0293544
0.0252552
0.0221606
1.34967
0.0222851
4.86429
0.122603
0.328578
0.0215988
0.0677385
0.0455943
0.0235755
0.0222931
0.0221185
0.121484
0.023282
0.0221674
0.0372936
4.3903
0.0239667
0.151942
0.0218316
0.124023
0.0824278
0.0221579
0.0265843
0.0219463
4.72224
4.39938
0.153083
7.44966
0.032956
0.0822847
0.0221319
0.0381946
0.0220588
0.0222846
0.0222332
4.84234
0.0217808
0.0416868
0.724794
0.0277103
0.0298035
0.0219995
4.97734
0.190237
14.4597
4.51875
0.163289
0.289802
4.25748
0.326968
0.235467
8.36088
0.122897
0.0337594
2.43606
4.97547
0.022045
5.29107
0.148207
5.46809
0.0216167
0.0579714
5.12442
0.0222731
4.73353
0.0253667
6.56844
0.022092
0.022101
0.0652273
0.22135
0.0258484
0.0613692
0.0217932
0.0221009
3.58497
5.66172
7.06003
0.0490923
0.0220954
0.0224355
0.0221358
0.0358021
1.09329
4.40442
4.14336
2.36503
0.0315068
0.0219536
0.0219836
5.63345
6.76324
0.279884
0.0263313
0.0246425
0.0822501
4.94552
6.36106
0.021522
0.0219594
4.9343
0.0229565
0.247049
0.0278463
0.0220643
0.0321459
0.0461476
4.50087
4.5538
0.0222022
0.0218046
0.0246013
0.18108
5.16772
0.022265
0.127364
4.34035
0.021531
3.33529
4.01338
12.7274
0.0221103
5.63536
4.82012
0.0384888
0.308484
0.0241151
0.30335
0.326375
0.0251131
0.0219445
6.94938
0.991829
0.0218653
0.132815
0.136954
0.0289925
0.248838
4.49884
5.40836
5.00189
0.0270742
0.0235481
0.022932
4.39661
4.9448
4.69378
5.89448
4.53761
0.021726
0.0412388
0.0220677
0.0221153
0.0247518
0.0219681
0.0220595
0.0221623
4.29912
11.4749
6.79218
0.056573
0.179485
0.0362446
0.0218589
0.0219874
4.32775
0.0221388
5.87223
3.74749
0.022179
0.0218908
3.49011
0.0225234
0.532546
0.0255428
0.021754
0.0217218
4.34694
0.0216844
4.41222
4.16524
0.0215741
0.0444668
0.0219122
0.0228112
0.0218557
0.111038
4.08555
0.0219715
4.91855
0.453323
0.0239471
0.0218819
0.022634
0.0234773
0.0222263
0.481896
5.26562
5.75873
0.0376123
6.84128
0.0222726
0.0253968
0.0220962
0.169108
0.023348
4.84696
0.0218629
3.9148
0.272778
5.61146
0.145185
0.021859
0.0423489
0.0219156
4.18355
0.0219569
0.0283028
0.026182
0.0252677
0.0221316
0.022251
0.0322868
4.97062
0.0221856
0.022781
0.0237778
0.0332731
0.161388
0.0221881
5.26489
3.69735
0.0237305
4.81335
4.65698
3.67268
6.32396
0.0215431
0.0230229
3.92265
4.1166
0.134112
3.87831
4.32166
0.0322608
0.0470004
0.0297266
4.24424
0.0220364
0.021966
5.58886
0.120237
4.92096
0.0244843
0.0217142
0.0220459
5.02004
0.0664889
0.0237528
0.222644
0.0218309
0.0570214
0.0296861
0.0299299
0.0219435
0.0221888
0.0219213
0.0244727
1.29919
4.66945
0.0215827
0.021908
4.49145
0.0220609
0.062354
0.0259203
0.0255278
0.0358569
0.0222857
4.17079
0.0289634
0.0252348
19.8266
0.0803151
0.0232019
0.03107
0.0220285
0.0224622
7.2697
0.280137
3.39097
0.0222495
0.0221542
0.058843
0.0270783
0.0220308
0.0366625
4.3973
0.0256995
0.0403234
0.0252444
0.113061
0.0221157
0.0217092
4.78487
5.28351
5.16975
0.0219715
0.146095
0.0216138
0.0220224
0.0636695
4.49865
0.0640052
0.0278354
0.14918
0.0227117
0.0289
0.0503189
0.756484
0.022275
0.0216448
0.0225471
0.0239195
0.0264267
0.02196
1.17483
10.5043
0.0220849
0.0318445
0.0224084
0.0216596
3.6717
5.94035
5.9166
0.0714193
0.0223772
0.0531851
4.85398
0.0962257
0.0917127
0.0336539
0.0296189
5.04032
0.211476
0.713694
0.021766
0.0303379
0.0221119
0.0299538
7.13871
0.0216304
0.039916
0.025399
0.0297338
0.0230227
0.0217995
0.0218797
4.11764
0.0440398
0.0297585
0.063623
0.0345095
5.92243
0.0309847
0.477229
0.0219248
4.94274
4.7964
6.91792
0.0222646
0.0310366
0.0220846
0.0219611
6.03466
0.0443401
4.9261
0.0219947
0.0445571
0.127532
4.49938
0.0279053
0.0216533
6.81831
0.0222852
0.0222841
0.0225675
0.0220357
6.32744
0.0218256
0.0218765
0.0358583
0.027152
0.137478
0.125044
0.0331162
4.3723
0.0219561
0.165401
0.0217877
4.80097
0.033581
0.458149
0.137183
2.52309
0.101819
4.73021
0.0230108
6.38156
0.0322338
4.88117
0.188243
0.0278673
0.207257
0.0221474
7.54402
0.0230438
0.0372292
0.0270335
6.18173
0.135403
4.38348
0.0307796
0.0220155
4.84294
0.223906
0.0525518
0.140698
8.56594
4.97363
0.0385331
0.255259
0.0409522
0.0218803
0.0472048
0.244088
0.0668611
25.3566
0.11616
0.0217981
0.0219418
0.132867
0.0220862
5.46806
0.0702713
0.0220848
3.66707
1.15276
3.54886
0.104956
0.0219946
0.0288509
0.0256892
4.42173
3.57941
0.0256653
5.14951
0.0218761
0.0314075
0.917551
0.0220032
0.0394785
0.0219308
0.0260331
0.0222513
0.157443
0.645542
0.0299699
0.0291505
0.0217204
0.134604
0.0218909
0.0218285
0.032663
0.0219243
0.202812
4.89656
2.50614
4.29141
0.0217888
5.18395
0.022189
0.0370014
0.126258
0.0220319
7.84771
0.0676767
0.0220379
0.0216466
0.0407928
0.0371693
0.173323
0.231999
0.0257496
0.0238482
3.96038
0.0588911
0.259936
0.787556
12.2837
4.03487
4.96397
1.0864
0.0221521
0.0221146
0.0458414
0.0222088
0.0496863
0.0356178
6.26884
5.24022
6.48189
0.0216961
0.0217836
0.115123
0.232709
4.48159
1.12022
3.55388
0.0550104
0.0325515
1.03294
0.26901
0.0260013
4.7882
0.0329432
0.0298321
4.40015
0.039656
0.0219514
4.69802
0.869945
0.0243631
0.133818
0.0233809
3.53981
5.7411
5.42132
0.0220147
0.0216871
0.128854
0.0220164
0.0219257
0.0220202
0.0217333
0.0220257
0.0220325
4.84334
0.0277312
0.0459625
4.26549
0.0219013
0.0220413
0.0309562
0.0255042
0.0259743
0.0220493
0.063873
0.0303993
0.0263375
0.0838021
4.29127
0.0220606
0.0409525
0.0220728
0.0220351
0.0215793
0.0220853
4.40076
0.0218993
0.0220262
0.0220986
0.0428525
4.19488
4.30608
5.05565
1.35
0.043236
4.27423
6.46456
0.0219561
0.0418605
5.85364
0.224471
0.0221128
0.0275253
0.0416027
0.0376338
0.0220621
0.0389589
0.0577537
0.043899
0.0216355
0.0520088
3.62801
0.021582
1.47261
4.83818
0.0419606
0.656693
0.0350587
0.0220909
0.0253344
0.0220145
0.221728
4.88687
0.0216864
0.0428538
0.0219747
0.0219807
0.0221935
0.0222859
0.036994
0.0221723
0.120907
0.137927
0.02568
0.0244653
0.0439913
0.022048
0.0439168
0.0316883
0.0223553
0.0221029
0.0221418
5.01862
0.0220165
0.247049
0.039841
0.0222533
0.0220346
0.0217552
4.55537
0.0252419
0.0423229
0.050835
5.10347
0.0280463
4.09763
1.62168
0.0421652
0.0219739
0.214427
0.037757
4.91751
0.068239
4.86635
0.0216531
0.0485832
0.0476051
4.38025
0.0220066
0.0428505
5.23812
0.0218593
8.00478
11.0022
3.80847
0.0219785
0.0217853
4.89099
0.0220494