/*--------------------------------*- C++ -*----------------------------------*\
| =========                 |                                                 |
| \\      /  F ield         | OpenFOAM: The Open Source CFD Toolbox           |
|  \\    /   O peration     | Version:  v2012                                 |
|   \\  /    A nd           | Website:  www.openfoam.com                      |
|    \\/     M anipulation  |                                                 |
\*---------------------------------------------------------------------------*/
FoamFile
{
    version     2.0;
    format      ascii;
    class       volVectorField;
    location    "700";
    object      ddt0(U);
}
// * * * * * * * * * * * * * * * * * * * * * * * * * * * * * * * * * * * * * //

dimensions      [0 1 -2 0 0 0 0];


internalField   nonuniform List<vector> 
13917
(
(-0.00510758 -0.00038324 4.11235e-18)
(-0.00233674 -0.0116349 -6.05429e-19)
(0.00883744 0.00139011 1.02814e-17)
(7.00916e-05 0.000115371 6.77208e-19)
(-0.00650146 -0.00189182 5.91512e-19)
(-0.000480848 -0.0110695 1.56222e-19)
(-2.49178e-05 5.00899e-05 -4.37135e-18)
(-0.0416721 -0.0128037 7.16763e-19)
(4.40738e-05 0.000310216 -4.31918e-18)
(0.010137 -0.0141312 -4.57699e-18)
(-0.0351414 -0.0129551 -6.8843e-19)
(2.90002e-05 0.00012072 -1.83527e-18)
(0.00026115 2.33584e-06 4.87033e-20)
(0.0298607 0.111203 -5.2857e-19)
(0.00290555 -0.00179616 1.13847e-19)
(-0.00503321 -9.78375e-05 -4.1563e-18)
(-1.21946e-05 -2.25138e-06 -1.27164e-20)
(-0.0278392 -0.00396843 1.11283e-18)
(0.000604017 0.00534082 -1.04872e-17)
(-0.00506161 -0.0112717 -8.36443e-18)
(-0.00116358 0.00381087 5.81838e-19)
(-0.000181434 0.000130071 -7.06527e-20)
(-0.000976086 0.00039525 -4.70059e-18)
(-0.000191361 0.000109325 3.07575e-19)
(7.71143e-05 0.000235887 -5.67715e-18)
(-0.00293951 0.00452528 6.81985e-21)
(0.0186924 -0.0243086 -2.07776e-18)
(0.00963043 -0.00738998 -2.15479e-18)
(-0.012087 0.00492345 -1.23796e-18)
(-2.65139e-05 7.17949e-05 1.89011e-20)
(-0.000561012 -0.00595443 2.22488e-17)
(0.000187928 0.00116339 1.81003e-18)
(3.91974e-05 0.000153917 2.04746e-18)
(-0.00424514 -0.00042744 1.80825e-18)
(4.53567e-05 -0.000261077 -6.48793e-21)
(-0.0502498 -0.0222808 1.062e-18)
(-0.000635342 0.000167664 2.10434e-18)
(7.40147e-05 -8.90113e-07 8.4922e-19)
(-3.82498e-05 6.24989e-05 4.97515e-18)
(0.00328225 0.00160147 1.23889e-19)
(1.13531e-06 -7.75578e-07 -1.59928e-20)
(0.00089815 -0.00021522 -2.29017e-20)
(8.44135e-05 0.000265673 5.70567e-18)
(0.00191818 0.00279512 -3.95477e-18)
(0.001661 0.00302789 7.23514e-19)
(-0.0290015 -0.00818628 -1.43271e-18)
(-0.00101788 0.00324079 5.31093e-19)
(0.0809192 0.0523109 2.19063e-17)
(-0.131021 -0.161549 3.79646e-18)
(-1.91268e-05 -0.000273962 7.12714e-20)
(3.63376e-05 0.000118739 2.62855e-18)
(-0.0124481 -0.00147971 8.22389e-19)
(1.52963e-05 -0.000221105 -7.2128e-18)
(-9.59486e-06 5.35882e-05 -3.13945e-18)
(-2.61312e-05 7.53305e-05 3.27259e-19)
(-0.011883 -0.000234794 -3.09713e-18)
(0.00640724 -0.00447215 -1.88437e-17)
(-0.00102329 0.000308201 8.76548e-18)
(0.000759432 -1.55524e-05 -5.20791e-20)
(-0.0298339 -0.0118101 -3.07677e-19)
(-0.027623 0.087331 2.94963e-19)
(0.00573228 -0.00666111 -3.43418e-20)
(1.19575e-05 -2.382e-06 -4.6086e-21)
(6.50473e-05 0.000224439 5.93521e-19)
(-0.0019089 0.0105419 1.07429e-18)
(0.00182397 0.0116279 1.36711e-19)
(-0.0162144 0.0035289 -6.93483e-19)
(-0.0451325 -0.0307624 2.27684e-18)
(-0.033445 -0.00347399 -4.03225e-19)
(-0.00347921 -0.000387772 2.80817e-19)
(-0.0027245 0.00962381 4.5415e-18)
(-0.00428865 -0.000396214 6.43393e-18)
(0.000108536 0.000103354 2.68051e-18)
(0.000552316 -4.39541e-05 1.32449e-19)
(-0.00073804 0.00418959 -1.08729e-18)
(-1.84475e-05 0.000415294 3.2371e-19)
(-0.00218535 0.000437393 -2.72018e-19)
(0.000442497 5.84544e-05 1.64916e-19)
(-2.69592e-05 0.000384663 4.21174e-19)
(3.79893e-05 0.000157946 -1.90555e-18)
(0.00013826 -3.0994e-05 7.03718e-19)
(-8.10273e-06 -2.26724e-06 7.75254e-21)
(0.000116129 0.000102488 1.95499e-18)
(-0.00503537 -0.00591011 -8.98958e-18)
(0.000124614 1.38039e-05 9.3393e-19)
(-0.0296685 0.0441703 -4.79625e-18)
(8.49046e-05 0.0011336 -3.0148e-18)
(0.000141014 6.92573e-06 -1.13706e-18)
(0.00297041 0.0019278 -8.09152e-20)
(-1.4404e-05 -2.6513e-06 -1.32512e-20)
(-2.0479e-05 -2.86669e-06 -1.09261e-19)
(8.03383e-05 0.000272519 -7.31504e-18)
(-0.132311 -0.173318 -9.83512e-18)
(5.07188e-05 4.17132e-07 1.69415e-20)
(-8.1407e-05 -2.1643e-05 -6.11595e-19)
(-0.0142898 0.00616385 6.30273e-19)
(0.0589314 0.0182114 7.21597e-19)
(8.32693e-06 -2.11458e-06 -2.96769e-20)
(0.00013373 7.23014e-06 1.09598e-18)
(0.0294801 0.00652497 4.41563e-20)
(3.71703e-06 -1.556e-06 1.23494e-20)
(4.75989e-06 -2.6617e-06 -6.71329e-20)
(0.00013927 -6.34689e-05 -9.62221e-19)
(-5.07181e-07 -4.17716e-06 -3.11499e-20)
(-0.00211399 9.03321e-05 8.1139e-20)
(-0.00184049 -0.000227315 -1.29189e-17)
(0.0209126 0.000111049 9.84953e-18)
(0.00742997 -0.00535754 2.87859e-19)
(0.00125574 -0.000217455 -1.88197e-19)
(0.0146979 -0.0315661 -1.33716e-18)
(0.000255698 1.29351e-05 2.5541e-18)
(-0.0042707 -0.000218083 -3.4299e-19)
(-0.0102387 0.00672595 -3.46171e-19)
(0.110846 0.0479236 9.81019e-18)
(-0.00227164 0.00994539 -7.75742e-19)
(-0.000102796 0.00053535 -3.87012e-18)
(0.000332742 0.0048186 -1.20706e-18)
(-1.26325e-05 -6.88325e-06 2.4513e-20)
(0.0067437 0.00387815 1.41118e-17)
(0.000136571 0.000107774 -5.73872e-18)
(-1.38766e-05 -2.87904e-06 1.01964e-20)
(0.00018919 -8.30323e-05 8.43088e-20)
(-0.0190158 0.00472581 -2.28103e-19)
(-0.00458363 0.00371931 -3.54964e-18)
(0.0015323 -0.000861625 2.11047e-18)
(-0.00565343 -0.00560206 2.15139e-17)
(6.48836e-05 0.000195476 1.8522e-19)
(-0.000820523 0.0049889 -3.67154e-19)
(-7.13781e-05 4.20523e-05 -3.62643e-21)
(-0.00417277 0.004129 1.12093e-17)
(-0.000160519 0.000395735 4.4727e-18)
(0.00376257 -0.0333909 -2.11833e-18)
(0.00425359 -0.0040667 -5.74274e-18)
(-0.000156324 0.000541576 -2.07987e-18)
(0.000587988 0.00145781 -6.94871e-18)
(0.020785 -0.0299819 3.79936e-19)
(-0.0585474 0.0706904 -1.91071e-18)
(0.00666359 -0.000433 1.18087e-17)
(-0.00436345 0.00521944 -2.08005e-20)
(0.000100226 7.63319e-08 -8.31376e-19)
(0.0423487 0.139448 -3.091e-19)
(0.000312789 1.36481e-05 -9.84412e-20)
(-0.00187921 0.000596736 1.08271e-17)
(-8.47166e-06 4.92419e-05 8.94832e-20)
(0.000113217 8.55588e-05 6.22101e-18)
(0.00422942 0.00158238 -5.14969e-20)
(-0.00287803 0.00790311 -6.25335e-18)
(0.0491099 0.0681898 9.67063e-19)
(0.0667198 0.0351111 3.43155e-19)
(-1.89006e-05 5.77581e-05 2.14899e-18)
(0.00217086 0.00193851 -5.60818e-19)
(8.31915e-06 -2.13816e-06 -1.37373e-20)
(0.000119748 8.38903e-05 -3.5565e-19)
(0.000144264 0.000111986 -3.22885e-18)
(0.0542534 0.0138813 4.21902e-20)
(-0.000297053 -0.000480153 5.97188e-20)
(-1.01829e-06 -6.17182e-06 -3.08244e-22)
(0.00479822 -0.00252491 -1.2472e-17)
(-4.90655e-06 -2.13766e-06 -8.65924e-20)
(-1.40557e-05 -4.99426e-06 -3.1589e-20)
(6.01754e-05 1.29947e-05 -8.13902e-19)
(0.0111531 0.0294523 4.04431e-18)
(-0.00136529 -0.000772354 6.4677e-20)
(0.00836963 0.167646 -4.23457e-20)
(-0.0109347 0.0687355 1.16919e-18)
(0.0378347 0.00659679 1.15796e-19)
(1.42002e-05 5.91197e-05 2.9578e-19)
(0.0563215 0.0790236 3.41046e-18)
(2.34888e-05 -2.16337e-05 -8.35261e-21)
(-0.00500566 0.00618636 -2.57756e-20)
(-0.000257032 9.33274e-05 -2.27915e-19)
(0.00311561 -0.00700304 8.29768e-18)
(5.31309e-05 0.000316645 2.65041e-18)
(-0.0611871 0.0648735 3.20259e-18)
(-0.00332057 -0.00557466 1.35366e-18)
(-2.71877e-06 -1.70319e-06 -1.15575e-21)
(7.43706e-05 0.000114866 1.14446e-18)
(-0.0150028 -0.00275452 2.03234e-18)
(-0.000146885 0.000383848 -4.64946e-18)
(-0.00164677 -0.000884594 2.1986e-19)
(7.61046e-05 0.000244893 4.07716e-18)
(-0.000214674 8.63282e-05 -1.36886e-19)
(3.15974e-05 0.00012302 -2.33711e-19)
(-0.0153386 0.00992268 9.75012e-19)
(0.00723284 0.00479836 -1.22647e-17)
(0.0078026 -0.0349049 -3.60952e-19)
(2.7517e-05 0.000120617 -4.2516e-19)
(-0.0168692 0.00915098 4.06742e-18)
(7.0987e-06 7.7148e-05 -4.22898e-21)
(-0.0286357 0.0377887 -3.76772e-18)
(-0.00288733 -0.00626327 1.93776e-18)
(0.00126814 0.00283691 -3.9606e-18)
(-0.0104801 0.007424 3.28271e-18)
(-0.00523232 -0.0011987 8.2028e-18)
(5.50493e-05 -2.82517e-05 -6.3747e-20)
(0.000598176 -0.00100371 4.1524e-18)
(0.000332876 0.000185504 -7.41552e-19)
(0.00302436 -0.00376146 1.60343e-17)
(5.96668e-05 -0.000201341 -9.70977e-21)
(-0.000265354 -0.000343416 -1.67946e-20)
(-0.00077376 0.00235195 1.29547e-19)
(-0.00394561 -0.000241547 -5.82422e-18)
(0.00632912 -0.000287541 -1.18749e-17)
(-0.0004607 -0.000192712 -5.32853e-20)
(0.00765954 -0.034157 4.67704e-19)
(-0.00671081 -0.00114377 -1.17075e-19)
(0.00246144 0.00171562 5.68894e-19)
(0.000291232 -9.93146e-05 9.60915e-20)
(-0.0140813 -0.00122244 -4.7797e-18)
(0.000161373 4.04146e-06 -1.18186e-19)
(-3.21395e-05 1.21412e-05 -1.63606e-19)
(-0.0121225 -0.00641187 1.03946e-18)
(-0.0157872 -0.00632573 9.26235e-19)
(0.06141 0.0451109 -1.43972e-17)
(0.000479476 0.00138824 2.41533e-18)
(-0.00325851 0.00535849 -7.58584e-20)
(0.00752312 0.0128686 6.69564e-18)
(9.78788e-05 1.986e-06 1.63615e-19)
(-6.0646e-05 -1.84708e-05 -2.40256e-20)
(-5.79606e-05 -1.8555e-05 -3.49359e-20)
(0.0757624 0.0776694 -1.48415e-18)
(-0.0129228 0.00840573 -8.53567e-18)
(-0.0215465 0.0100405 2.77387e-18)
(0.000202192 1.65823e-05 -1.64293e-18)
(5.90009e-06 -1.45301e-06 6.8569e-21)
(0.0243493 -0.0368427 8.75506e-19)
(-1.20475e-05 -0.000671954 3.23887e-18)
(-4.32752e-05 -1.34178e-05 -1.28407e-19)
(-4.18812e-05 -1.21536e-05 -3.11125e-20)
(2.95775e-06 -3.83021e-07 2.28647e-20)
(-6.21757e-05 -2.40731e-05 -7.49613e-20)
(-5.8132e-05 -2.51464e-05 9.34899e-20)
(-0.00436847 -0.000284628 6.27928e-19)
(0.0351782 0.0460632 -7.67319e-18)
(9.96684e-06 0.000161406 9.97467e-19)
(1.86593e-05 -3.52171e-05 3.43097e-21)
(-0.00525653 -0.00123486 -4.39453e-20)
(-0.00354959 -0.000896077 -4.54437e-18)
(-1.32766e-05 -2.82019e-06 7.40188e-21)
(0.000211486 1.58348e-05 1.50621e-20)
(0.00625816 -0.0337332 4.43129e-19)
(-0.00214167 0.00255357 -8.23103e-18)
(-0.0135407 0.00926495 7.6993e-19)
(0.00649188 0.0105886 -9.61731e-18)
(-0.00734114 -0.00975382 6.47655e-18)
(-5.03144e-06 4.69308e-05 1.63515e-19)
(0.0189038 0.0775169 1.73902e-18)
(-0.00561225 -0.000696465 -1.95324e-18)
(-0.00879643 0.00554143 -1.17749e-18)
(-0.000956256 0.00244372 9.2341e-18)
(-0.00039549 -0.000136037 -1.44659e-18)
(0.0428341 0.0411011 4.01102e-18)
(0.000129736 0.000106274 -4.61422e-18)
(0.00170705 -0.00185596 4.98634e-18)
(-0.00242648 -0.00468204 -3.78486e-18)
(-9.65969e-06 0.000219364 -4.13327e-19)
(9.6298e-06 1.04867e-07 1.76687e-20)
(7.06392e-05 0.00020348 2.46864e-18)
(-0.00139369 -0.00484516 1.84897e-19)
(0.000206375 0.000263778 -1.94228e-19)
(0.00177595 -0.0016373 3.33381e-18)
(-0.0664392 -0.0255817 -1.61929e-20)
(-5.0573e-05 -0.000235659 2.10724e-20)
(-3.96097e-05 -1.24244e-05 1.55369e-19)
(-0.00042745 -0.000517437 -5.37773e-20)
(-4.01252e-05 -1.45945e-05 -1.6172e-19)
(0.000131785 0.000110881 -8.93888e-19)
(0.000249367 2.78645e-06 -4.78347e-19)
(-0.000444359 -0.000757308 1.4317e-18)
(-4.06618e-05 -0.000319414 1.24017e-20)
(0.00772128 -0.000388701 2.55991e-18)
(0.0206449 0.00500617 -1.45428e-18)
(4.1233e-05 0.000102347 -1.44499e-18)
(-0.00173376 -0.00234398 -1.3681e-19)
(-0.0367764 -0.0176444 -3.52128e-19)
(-4.37517e-05 -3.75818e-05 1.83262e-19)
(0.0225876 0.00703242 -9.74359e-20)
(0.00214264 -0.00227083 6.23747e-18)
(-4.09647e-05 -3.70739e-05 -1.52732e-19)
(-0.00340378 -0.000653845 -1.62244e-18)
(0.000104766 0.000248747 2.33081e-19)
(0.0100799 0.0306512 -7.4829e-19)
(-1.83688e-06 -1.03906e-06 9.68508e-21)
(0.00218851 -0.000664165 8.92411e-21)
(-6.43895e-06 0.000245541 4.90805e-20)
(-2.01769e-05 4.70799e-05 4.39078e-19)
(-0.00196694 0.0100861 1.55845e-18)
(4.94791e-05 -1.30475e-06 -1.95205e-19)
(0.0456888 0.0057712 -3.05437e-19)
(0.000749814 0.000339538 1.99905e-18)
(-0.0438205 -0.0251 6.75157e-19)
(0.00497991 0.00100774 6.31004e-20)
(0.027118 -0.0290437 8.34199e-18)
(0.00746114 -0.000218815 1.41132e-17)
(-1.67534e-05 -4.3934e-06 -7.22664e-20)
(-0.00189328 -0.00015141 9.93651e-19)
(-0.00353093 -0.00421832 -3.55506e-19)
(-0.000232102 0.000633867 -1.22973e-19)
(-0.00547669 -0.0025436 -4.45837e-19)
(4.70178e-06 0.00035151 -1.36359e-18)
(7.00828e-05 6.66528e-05 5.39875e-20)
(4.56902e-05 -1.94111e-06 7.93378e-20)
(-0.0149724 -0.00624845 -1.00373e-18)
(0.00120142 0.0193161 -5.21035e-19)
(0.00171069 -0.001652 -3.49908e-18)
(1.74255e-06 0.000329633 2.01266e-18)
(0.000207946 1.49562e-05 5.12229e-19)
(0.00423925 -0.00290694 1.69091e-17)
(-0.00407342 -7.33219e-05 9.55719e-18)
(-9.22675e-05 2.71671e-05 -2.24992e-20)
(0.00271794 0.00288709 3.41601e-20)
(-0.000170465 0.000629445 9.16327e-19)
(-0.0780157 -0.0512615 -1.75838e-19)
(0.00157716 -0.00012091 1.21351e-17)
(0.0117046 0.000825197 -9.89565e-18)
(-0.0658932 0.0603084 -2.16533e-18)
(-0.00356894 0.00958539 -3.28762e-20)
(0.00276447 -0.0282838 -1.75869e-21)
(-0.00112193 -0.0022647 2.14661e-19)
(-0.00367087 -0.00446234 9.05654e-20)
(-0.0840555 -0.0323593 -3.08386e-19)
(0.0081714 0.00053129 -5.24253e-18)
(0.000263548 3.27854e-06 7.74209e-19)
(0.00287236 -0.00126706 -9.67994e-20)
(0.0185706 -0.0252245 7.75381e-19)
(-0.000405548 -1.79834e-05 -1.18882e-19)
(-0.00314677 -0.0131094 2.18654e-19)
(0.000998931 0.00298598 1.48339e-18)
(-1.07017e-05 -8.59247e-07 -8.30221e-20)
(0.00265837 -0.00734037 1.43385e-17)
(0.000147816 1.00093e-05 1.47295e-18)
(-7.35423e-05 0.000582383 -1.90178e-18)
(-0.000180546 -0.000170208 3.39371e-20)
(-0.0141043 -0.0118082 -2.39463e-17)
(1.69291e-05 -3.35146e-06 5.28147e-20)
(0.00131334 -0.00134538 2.04929e-18)
(-0.00718499 -0.000325245 -2.61e-19)
(-0.0052925 0.00735097 3.88435e-20)
(-1.71211e-05 -2.29014e-06 1.04818e-19)
(-0.000503615 0.00230776 1.87703e-17)
(-0.00146824 -0.00469469 1.69567e-17)
(-8.47816e-05 2.3598e-05 -1.93435e-18)
(-0.000395608 -9.53839e-05 4.12007e-20)
(-0.0042482 -0.000206672 -5.06954e-18)
(-0.00131188 -0.0023726 -4.86209e-18)
(-0.0204257 0.0396988 5.83146e-19)
(0.011966 0.0984934 -1.57848e-18)
(-3.65277e-05 -3.92602e-05 -4.29371e-20)
(5.0451e-05 8.01865e-05 -5.39759e-19)
(-0.00248228 0.00366732 -4.64473e-19)
(-0.000558713 -0.0272756 6.93919e-18)
(-3.49463e-05 -3.77524e-05 1.70031e-20)
(-0.00489864 -0.00418378 2.39096e-19)
(-7.65065e-06 0.000118042 -9.65224e-19)
(0.00266263 0.0117172 1.38002e-19)
(0.00134335 -0.00153581 2.16443e-18)
(-0.00804333 0.00462043 -1.01213e-18)
(0.000542184 -0.0141304 -6.40805e-19)
(0.0217866 0.00942498 -5.9948e-19)
(-0.000114578 0.000574278 2.23566e-18)
(-0.00384144 -0.000500212 4.45147e-18)
(-6.17686e-05 4.89284e-05 1.05179e-19)
(-9.42568e-05 4.29398e-05 -3.1279e-19)
(-0.0080926 -0.0020235 6.07161e-19)
(0.00282861 0.0113145 1.25369e-17)
(-1.22656e-05 -1.20747e-06 -3.68167e-20)
(-0.0055093 -0.000474445 -7.79505e-18)
(-0.000111355 0.000571456 -1.6815e-18)
(-0.00134141 -0.0965649 7.68837e-19)
(-2.33478e-05 7.03047e-05 -1.27803e-18)
(-0.000566914 -0.0215668 -4.31536e-19)
(0.00334435 0.00183652 -3.56567e-20)
(-0.0775714 -0.138167 -1.37761e-18)
(0.000613108 0.000735098 -4.71814e-21)
(-0.0190439 0.0108583 -4.08368e-18)
(-0.0351982 -0.0124106 2.97093e-18)
(-0.00876406 4.30255e-05 1.91586e-19)
(3.73991e-05 0.000105622 -1.20804e-18)
(0.00362377 0.0220605 -9.39183e-18)
(-0.000198763 -0.000387058 -1.70337e-19)
(-0.0129926 0.0746591 5.75373e-19)
(-0.0111552 0.00844618 9.46426e-18)
(0.000413556 0.000956387 -1.29114e-21)
(-0.0886227 -0.148315 3.57589e-18)
(-7.3198e-05 0.000440777 1.0598e-19)
(0.00276622 -0.0430258 3.12886e-19)
(-5.05589e-05 -1.27823e-05 2.26673e-20)
(-0.000576239 -0.0114121 8.6624e-19)
(0.00772805 -0.0466872 -4.58683e-19)
(-0.000394968 0.000301272 1.17846e-18)
(0.0180515 -0.0446741 3.2079e-19)
(0.0167436 0.0105435 -1.94957e-19)
(-0.000279104 -0.000118845 -9.37831e-19)
(-0.00846273 0.0514241 -8.7274e-19)
(0.00119974 0.000343102 -1.1857e-17)
(-0.000262681 0.000281995 5.59422e-19)
(-0.00275408 0.0108145 -6.52851e-19)
(3.94142e-05 3.34866e-05 -9.97863e-19)
(0.0173737 0.013935 -8.10411e-20)
(0.00848101 0.00256099 -1.04618e-17)
(0.000137452 9.72321e-06 -2.42195e-19)
(-3.0444e-05 0.000181599 5.57538e-18)
(2.44273e-05 0.000304458 3.58293e-18)
(-8.62912e-06 4.78456e-05 -1.81281e-18)
(3.97295e-05 1.70914e-05 7.22514e-19)
(-4.17388e-05 4.74841e-05 2.58674e-19)
(-0.044402 0.0811469 1.04169e-19)
(0.0349731 0.00179803 2.59301e-19)
(-6.93016e-05 6.03772e-05 3.18881e-19)
(-7.13109e-05 8.43145e-05 5.03653e-20)
(-0.000125152 8.32672e-05 -1.97448e-19)
(-0.00184108 -0.00124973 1.56614e-18)
(-0.0283037 -0.0676972 -9.65343e-20)
(-0.000101947 -3.96199e-05 -1.19296e-19)
(2.41955e-05 -1.94701e-05 -2.21921e-21)
(0.00162947 7.59368e-05 -1.28127e-17)
(0.00205738 -0.0206472 2.21295e-19)
(-1.79542e-05 4.93903e-05 -4.03737e-19)
(-0.000350008 0.000282762 4.16861e-18)
(-0.0672988 0.0354981 -3.26669e-19)
(0.0949012 0.0387839 -5.29564e-19)
(0.00245532 0.0151271 1.68272e-19)
(0.00121952 0.00542529 8.37517e-18)
(-0.000291775 -0.00471634 9.30579e-20)
(-0.000111064 -0.000209232 -3.08989e-20)
(-7.55459e-05 -3.55627e-05 1.28245e-19)
(-0.00206233 0.00244979 1.67378e-19)
(4.69042e-05 1.71147e-05 -4.37923e-19)
(-9.86574e-05 -3.04931e-05 2.7157e-20)
(2.49104e-05 0.000180091 7.9629e-19)
(-7.15622e-05 -3.06028e-05 -1.06943e-19)
(-7.1103e-05 -0.000180894 2.48917e-20)
(0.0252795 0.0718184 9.20259e-18)
(4.61442e-05 2.48901e-05 1.14431e-18)
(0.00380008 0.000579831 1.15971e-18)
(0.00772905 -0.000538501 4.11741e-18)
(-0.00186297 -0.00035167 4.39025e-18)
(-3.06967e-05 1.1115e-05 1.68849e-19)
(0.000117627 7.7918e-05 1.41838e-19)
(-0.00165791 0.0464507 -2.58775e-18)
(-0.00113379 0.00243465 -4.21407e-21)
(0.00179465 -0.000627909 2.29074e-18)
(-0.00016353 -9.83291e-05 3.08438e-19)
(0.000146085 4.10712e-05 -5.30938e-18)
(-0.000312953 -0.000428623 2.14411e-19)
(-5.74654e-05 -3.39637e-05 7.17225e-20)
(-0.000580841 0.000102227 -3.02069e-18)
(-0.000201119 0.000562609 -6.94313e-22)
(-0.0700178 0.0269336 -1.59183e-20)
(-0.00249616 0.00705819 -1.17376e-20)
(-0.00228249 0.00185441 9.35126e-18)
(0.000135515 4.33933e-05 3.31571e-18)
(-0.000346808 0.000307724 -3.65648e-18)
(0.000867993 0.00785919 4.68443e-20)
(0.000138146 3.41763e-05 1.46263e-19)
(-0.00761088 -0.00815842 -4.81631e-18)
(-0.0267944 0.0405184 4.62584e-19)
(6.04436e-07 0.000116801 2.86812e-18)
(0.0886971 -0.0111768 -5.53613e-22)
(-3.09688e-05 7.17025e-06 6.30497e-20)
(6.53774e-05 4.66481e-06 -4.65342e-19)
(-0.00012025 7.00678e-05 -2.78118e-19)
(3.40095e-06 0.00041896 1.35816e-19)
(-2.57176e-05 1.3192e-05 -1.7626e-19)
(0.000138168 1.66879e-06 1.58887e-19)
(0.00478719 -0.00360932 -1.95425e-18)
(-0.0385164 0.0788438 -2.52305e-19)
(-2.54487e-05 1.41377e-05 2.06036e-19)
(0.0173452 -0.0356523 -5.5925e-18)
(0.00193981 0.0004127 -6.3381e-18)
(0.000257766 5.24662e-06 2.34247e-19)
(-0.00246056 -0.000334421 -2.61122e-18)
(0.000126749 0.000382225 -5.44048e-18)
(0.00282578 0.0495613 8.12596e-18)
(-5.64792e-05 0.00021667 7.9193e-18)
(-0.00191473 -0.00166693 1.50421e-18)
(-0.011673 -0.0791366 -1.36176e-18)
(-0.0160344 -0.0678667 4.78399e-19)
(-0.000102049 0.000557376 -7.80997e-20)
(-0.000559957 0.00935729 -2.19841e-19)
(0.00230921 0.00878785 2.13382e-19)
(-0.000327401 -0.000163594 5.88452e-19)
(-0.0109399 0.0249635 -1.63517e-18)
(-2.08336e-05 -3.22968e-06 -8.47565e-21)
(-5.27968e-06 6.0603e-05 2.27049e-18)
(-9.63013e-05 1.9068e-06 2.59303e-20)
(-9.43092e-07 0.00024398 -3.6473e-18)
(0.000340326 0.00319144 3.81282e-19)
(0.00546074 0.005773 -4.77852e-19)
(-0.000832246 0.000984693 4.983e-18)
(0.0029781 -0.00236582 1.77055e-19)
(-0.00213728 -0.00304208 -1.22996e-19)
(-0.0255109 0.00200072 -5.35716e-19)
(0.00649267 -0.00194851 1.87097e-20)
(-6.12027e-05 5.19712e-05 -2.26664e-18)
(0.0285973 0.124616 -6.42776e-18)
(-0.000547634 -0.000331731 3.58644e-18)
(0.00070634 0.000244087 2.27323e-18)
(-0.0246245 0.0782116 2.23469e-19)
(0.000151705 1.21238e-05 -2.29292e-18)
(0.00715512 -0.00244255 2.3944e-18)
(-0.0171586 -0.0024023 -3.67387e-18)
(3.57232e-05 -4.38912e-06 3.75002e-19)
(0.00652943 -0.00175623 2.82988e-18)
(6.96359e-05 3.42157e-06 2.56741e-19)
(-5.25013e-05 -3.50033e-05 1.93108e-19)
(-0.00204157 -0.00113504 -3.68094e-18)
(-0.000173491 -7.10906e-05 2.93429e-19)
(9.40697e-05 2.62947e-06 -1.31525e-19)
(-0.0137415 -0.00761249 -2.56027e-18)
(0.00280624 0.000613905 -1.32622e-18)
(0.0294138 -0.0566962 -2.90506e-18)
(7.3656e-05 1.14086e-05 -1.39922e-19)
(8.77858e-05 0.000140858 2.89219e-18)
(0.000181083 -0.00309281 -2.03373e-20)
(-0.0211709 0.0196302 -1.57277e-18)
(-0.0489941 -0.0394739 -6.47309e-18)
(-3.5671e-05 4.7695e-05 2.94538e-18)
(-2.19106e-05 7.05347e-05 -8.08786e-19)
(8.13701e-05 1.09941e-05 5.58601e-19)
(-0.00213053 -0.00362159 2.03131e-18)
(-0.0332963 -0.049045 -2.90897e-18)
(-0.000125116 5.4507e-05 -2.14262e-20)
(-1.74715e-05 -2.14291e-06 7.16065e-20)
(-0.000180453 -0.000315848 4.19442e-20)
(3.9582e-06 4.48542e-05 6.03403e-19)
(-0.0036417 0.00362757 3.19867e-20)
(0.000284939 -0.000204165 1.14529e-18)
(-2.06098e-05 -2.46161e-06 -1.93426e-20)
(-0.000956716 0.00101252 -1.01482e-18)
(3.95133e-05 -2.86196e-06 -6.32065e-19)
(-0.000111523 0.000113381 8.70734e-19)
(2.09732e-05 0.000285365 -1.40681e-18)
(0.00388174 -0.00106055 1.04699e-17)
(-2.63533e-05 -1.03501e-05 6.89193e-21)
(5.63242e-05 0.000154749 -7.24388e-18)
(0.000261519 0.000168482 3.58652e-20)
(-0.00032062 0.000287504 7.04784e-18)
(-0.00333175 0.000632868 6.79323e-19)
(-0.00417655 0.0153596 1.32695e-18)
(-0.0030334 -0.00492933 1.60992e-18)
(0.0317194 0.00264733 3.17505e-19)
(-3.75901e-05 0.000282589 7.83497e-21)
(-0.0212426 0.000730137 8.26658e-19)
(0.00223372 -0.00433468 -1.55807e-17)
(0.0166681 0.0679948 -4.87691e-18)
(0.00789418 -0.00065371 -1.36578e-17)
(-8.35881e-05 4.81326e-06 7.23634e-20)
(-0.000111539 4.33428e-05 -1.836e-19)
(0.00359459 -0.00302213 -1.61814e-19)
(8.83102e-05 7.65499e-05 1.52559e-20)
(-0.00338203 0.00673854 1.37101e-17)
(-4.51053e-05 -3.22059e-05 1.77975e-20)
(-0.0118125 -0.00367018 4.81717e-19)
(0.00031024 0.000146534 -1.44785e-18)
(-0.000756618 -0.00854087 -7.46746e-18)
(0.0259066 0.00623367 2.19215e-19)
(7.71844e-05 0.000256104 -3.72636e-18)
(0.0254408 -0.0280625 -1.33211e-17)
(-2.63564e-05 1.4506e-05 -4.63935e-20)
(9.8945e-05 0.000581266 1.28794e-17)
(1.48586e-06 -2.98391e-06 -5.93137e-20)
(-0.000931418 0.00138873 2.58266e-19)
(0.000738267 -0.00831828 -1.48276e-18)
(-0.000132785 -5.74664e-05 -1.09188e-19)
(0.0034316 -0.0026639 -2.37251e-17)
(4.09368e-06 -7.50189e-07 -8.45492e-21)
(0.000255403 6.25113e-06 -1.05703e-18)
(-0.000126962 5.3071e-05 1.12652e-19)
(0.0050031 0.00532337 -2.24786e-18)
(-0.00471826 0.00350245 -1.50492e-19)
(-3.25882e-05 -1.59741e-05 1.74437e-19)
(0.00203661 0.00214399 2.10075e-18)
(-0.00232577 -0.000627781 4.48261e-18)
(0.0242225 0.0389755 1.16234e-19)
(-0.00206005 0.00721942 3.54602e-18)
(0.00289056 -0.00125008 4.12722e-18)
(-0.000767596 0.0557002 -9.37201e-18)
(-2.49667e-05 -8.04024e-06 -9.62244e-22)
(-0.00146075 -0.000680158 3.19836e-18)
(1.26913e-05 -1.66556e-06 -9.22732e-20)
(-0.0565414 0.0737601 1.4646e-18)
(0.0589822 0.0539639 -5.03417e-20)
(-0.00131232 0.00188052 2.09185e-20)
(0.00516715 0.000278331 -1.08483e-19)
(6.16333e-06 -1.75864e-06 1.12295e-19)
(-0.000450628 -0.000341386 2.56731e-18)
(8.55739e-05 0.000240144 4.69587e-19)
(-0.000133196 -4.06964e-05 -7.19349e-20)
(7.19193e-06 -3.16063e-06 6.42404e-20)
(0.000230337 1.8375e-06 2.47246e-18)
(0.00149587 0.00753013 -4.91454e-18)
(6.23983e-05 1.76783e-05 5.7431e-19)
(2.68011e-05 0.000985683 -1.03664e-17)
(-2.14339e-06 5.63473e-05 -2.18575e-18)
(-3.10952e-05 -1.37481e-05 -1.73437e-19)
(-7.63101e-06 -3.11481e-06 8.27511e-20)
(-0.0254107 -0.00728508 -4.96278e-20)
(0.00391074 0.0292093 7.69849e-18)
(-0.0123674 -0.0331147 9.25963e-18)
(-0.00105405 0.00220082 -1.26294e-18)
(0.000233906 -0.000187488 1.76967e-18)
(-0.00486404 0.0230352 -9.56801e-18)
(-0.00321588 -0.00113255 -4.14589e-18)
(-5.54053e-05 -8.26914e-06 -2.52357e-20)
(-0.0156948 0.0303764 5.92868e-19)
(0.000232901 1.20361e-06 -3.01575e-19)
(0.000415931 -7.44905e-06 2.91584e-18)
(8.40167e-05 7.96943e-05 -4.21643e-19)
(0.00518232 0.0204722 2.00732e-18)
(3.58707e-06 4.38447e-05 -1.11067e-18)
(-0.00281964 0.00470241 9.35014e-21)
(0.000121165 9.12348e-05 -6.96141e-18)
(0.0371338 0.0479891 -2.29367e-19)
(-0.000569697 -0.000593062 1.70489e-18)
(0.000593889 0.0127154 -2.0557e-18)
(-1.72183e-05 -4.87494e-06 1.78544e-20)
(-0.000327192 -0.000658186 -7.63182e-18)
(-0.00023363 -0.000108449 -1.41409e-20)
(2.47701e-06 -9.54416e-07 -8.72053e-20)
(-0.00333225 -0.000522482 -3.40954e-18)
(0.0368713 0.0164766 8.78704e-19)
(-0.00027886 -0.000266677 -1.08457e-19)
(-0.00876656 0.00549734 -1.72951e-19)
(0.000210175 1.68366e-05 1.62871e-18)
(-0.00125474 0.000468787 -5.69249e-20)
(5.09882e-06 -1.13848e-06 3.15843e-20)
(-0.00301167 -2.51573e-05 1.02511e-17)
(6.69778e-05 1.95694e-05 -7.3273e-19)
(-0.00250001 -0.00527637 -1.6123e-19)
(-4.89887e-05 -3.28666e-05 -5.84848e-21)
(-0.00023897 -0.000206491 -6.97604e-20)
(0.00179642 0.0114053 -1.08837e-17)
(6.57458e-06 -2.16295e-06 -1.63757e-20)
(-0.00585129 0.00584131 2.07945e-18)
(-4.59753e-06 -6.37875e-07 -3.24731e-21)
(1.69546e-05 -5.55569e-06 1.21764e-18)
(-0.0360495 0.0850884 9.69115e-19)
(9.23861e-05 0.000997525 5.08756e-19)
(-2.38653e-05 4.69647e-05 -2.26795e-18)
(0.00687812 2.94964e-05 1.61071e-17)
(0.00291986 -0.00237498 2.94169e-17)
(0.0156104 -0.0521343 7.9711e-20)
(-0.0182693 -0.00393696 -2.54243e-18)
(-2.50277e-05 1.42156e-05 -3.64907e-20)
(0.00357505 -0.0021825 -1.84362e-20)
(0.00320358 -0.003064 -7.67913e-18)
(-0.000646507 -0.0010384 -3.58321e-19)
(-0.00174629 0.00206002 -6.45887e-20)
(-0.000591911 0.000248087 7.64404e-19)
(-0.00241704 0.0055094 -1.10688e-18)
(-7.13235e-06 -8.48211e-07 3.96419e-21)
(-4.57144e-06 1.77919e-06 -2.7604e-19)
(-0.00388027 0.0123659 1.19302e-20)
(-0.00413954 0.000613616 -5.2957e-20)
(0.000234162 0.000377178 -3.05091e-18)
(-0.00646689 0.0833379 4.28188e-19)
(-0.000685458 -0.000475316 -3.48777e-18)
(-0.0491164 -0.0962082 8.26972e-19)
(-0.0542483 -0.0348007 3.10996e-19)
(0.00497636 0.0178227 1.10758e-18)
(0.000649799 -0.00115562 1.41305e-18)
(-0.00908811 0.00764668 -6.3551e-19)
(-0.00365168 -0.000658105 -4.52812e-19)
(8.68559e-05 2.45341e-05 2.06636e-20)
(0.00759959 0.00723995 3.41576e-19)
(-0.00670608 0.0129976 -6.13373e-20)
(1.79183e-05 -5.95296e-06 1.84487e-19)
(-1.79611e-05 -3.97611e-06 -1.5966e-20)
(-5.82845e-06 -2.68768e-06 7.08096e-20)
(0.00039517 -0.00397598 4.55142e-20)
(0.00011602 3.35505e-06 -1.47715e-18)
(-0.00167718 -0.000704423 1.32499e-18)
(-8.90773e-05 0.000496088 5.73323e-18)
(7.18864e-06 1.922e-07 -9.30753e-20)
(0.000692598 0.00277185 3.69142e-18)
(-1.97371e-05 -5.62021e-06 -7.51077e-20)
(0.0119495 0.00323178 -1.40864e-17)
(2.21698e-05 0.000303668 -6.99313e-20)
(-8.67926e-05 4.42277e-05 -1.01909e-19)
(0.00427377 0.000149603 8.31497e-18)
(-0.00271636 0.000617465 1.14367e-17)
(-0.00443732 -0.114512 -9.17746e-19)
(9.80529e-05 9.69761e-05 -3.79442e-18)
(0.00100248 -0.000264757 -9.43214e-20)
(-0.000124699 6.29091e-06 -1.59225e-20)
(9.37683e-05 0.000127698 -1.7968e-18)
(-0.000101656 6.67184e-06 4.62736e-19)
(-2.32332e-05 3.1751e-05 -9.06462e-19)
(0.0043246 -0.000668505 -1.9393e-17)
(0.00108963 0.000217197 -1.14091e-18)
(-0.0382793 0.0626774 -1.00299e-18)
(-0.00549471 -0.12563 2.62235e-19)
(0.00640864 0.00833149 2.90812e-19)
(0.00225736 -0.000404516 1.10499e-17)
(8.70009e-05 0.000136535 7.46377e-18)
(1.85809e-06 -2.50489e-06 1.36191e-19)
(-0.000276715 -0.000140782 5.74005e-20)
(0.00190255 -0.00256768 -1.04519e-17)
(0.019303 -0.0511557 3.86533e-18)
(0.000382595 0.000180971 -8.52747e-19)
(0.00237328 -0.000773272 -4.56711e-18)
(-0.0411703 -0.109101 -2.52106e-20)
(1.57242e-05 -4.64538e-06 6.48557e-19)
(-9.67287e-05 3.37093e-05 1.7367e-20)
(-0.000613658 -1.41921e-06 -8.05111e-19)
(-0.00189448 -0.00372641 -2.07433e-17)
(-0.0212258 -0.0877041 6.53733e-19)
(-0.000564475 -0.000684863 -3.908e-18)
(8.92742e-05 0.000122688 1.99373e-18)
(5.77366e-05 0.000145779 1.04426e-17)
(0.000387508 -7.08671e-05 -1.98491e-19)
(-0.000987813 -0.00172948 -6.57501e-20)
(-0.00703059 0.00490869 4.50136e-18)
(-0.000108231 0.000494849 2.0208e-18)
(-5.78275e-05 -1.88465e-05 5.55856e-19)
(3.56336e-05 0.000163576 1.11643e-18)
(3.83804e-06 -1.8902e-06 4.57561e-19)
(-8.07985e-05 -2.81504e-06 -1.474e-18)
(-0.00132665 -0.00369443 1.64868e-19)
(0.000904583 0.000817962 -8.40607e-19)
(-0.000350815 0.00072693 -1.80916e-18)
(-0.00432943 -0.00140991 5.26828e-19)
(0.0034257 -0.00071664 7.54049e-18)
(0.000495385 0.0012028 2.51383e-20)
(-0.0349143 -0.0673058 -2.66203e-18)
(-0.000499662 0.000242465 -9.50149e-20)
(-0.00181556 -0.00661527 -6.14451e-20)
(0.000223207 5.13216e-05 5.22279e-19)
(-0.000198511 -0.00116884 5.88667e-18)
(-1.26153e-05 -3.47185e-06 -1.40489e-20)
(4.84463e-05 0.000585647 1.53846e-17)
(0.00325119 0.0285334 -6.78785e-18)
(-0.0146523 0.070861 8.69641e-20)
(8.74085e-05 7.2132e-05 1.47786e-18)
(-0.00026156 0.0007241 -2.50194e-18)
(0.000114243 2.37412e-06 -2.58173e-19)
(0.000110699 6.45039e-05 3.93923e-19)
(0.00012267 9.49669e-05 3.94306e-18)
(0.00110685 0.00835757 6.20277e-19)
(-0.00130704 0.00860627 -5.34672e-20)
(-0.0229579 -0.00812963 -5.14975e-18)
(-0.00663816 0.00584635 -5.04945e-18)
(-2.69672e-05 1.18063e-05 1.98451e-19)
(0.000566192 0.0013123 1.92943e-17)
(3.7327e-05 0.000296842 4.74902e-18)
(-8.23661e-06 0.000231691 -2.07124e-18)
(-0.00831498 0.00662632 1.84646e-18)
(7.33305e-05 9.10771e-05 -3.91473e-19)
(0.000120673 0.000607146 1.93861e-18)
(0.0553059 0.0101112 1.47512e-19)
(-2.5332e-05 -1.86876e-05 -3.41633e-20)
(-0.00248161 0.000793347 -1.0653e-17)
(-0.00358242 -0.00900979 4.01883e-18)
(-0.000122227 0.00047456 -6.28221e-18)
(-2.34329e-05 -2.05974e-06 -3.64573e-20)
(-2.24891e-05 9.48368e-06 -3.44313e-19)
(-9.3038e-06 8.86395e-06 -9.92114e-20)
(-0.00365936 -0.000221327 3.10506e-19)
(3.12687e-05 0.000153209 -1.30374e-18)
(-0.000105131 0.00048141 -6.90585e-20)
(-8.50535e-05 0.000573894 -5.6834e-19)
(-2.86785e-05 3.70017e-05 1.49789e-18)
(-4.74766e-05 1.36635e-05 -1.17556e-19)
(-0.0108534 -0.000351672 5.32843e-18)
(0.0495539 0.0124955 2.03276e-19)
(-0.00329557 0.0143844 3.14322e-19)
(0.0906148 0.0176412 1.40641e-18)
(0.00175726 0.010466 -1.37257e-19)
(-0.00281511 0.00413936 3.58771e-19)