/*--------------------------------*- C++ -*----------------------------------*\
| =========                 |                                                 |
| \\      /  F ield         | OpenFOAM: The Open Source CFD Toolbox           |
|  \\    /   O peration     | Version:  v2012                                 |
|   \\  /    A nd           | Website:  www.openfoam.com                      |
|    \\/     M anipulation  |                                                 |
\*---------------------------------------------------------------------------*/
FoamFile
{
    version     2.0;
    format      ascii;
    class       volScalarField;
    location    "700";
    object      ddt0(k);
}
// * * * * * * * * * * * * * * * * * * * * * * * * * * * * * * * * * * * * * //

dimensions      [0 2 -3 0 0 0 0];


internalField   nonuniform List<scalar> 
13917
(
0.000454296
2.09973e-06
-7.35501e-06
4.12056e-08
2.75822e-06
1.11919e-06
4.35708e-08
9.75675e-06
3.41454e-08
-3.26548e-06
8.51923e-06
4.53778e-08
6.1205e-08
-5.175e-05
-1.4622e-06
0.000363803
-5.52207e-08
5.79902e-06
-6.35366e-07
0.00031049
4.80157e-07
6.92278e-08
5.87088e-08
6.51489e-08
5.97464e-08
8.40926e-07
0.00290413
7.18256e-05
1.92761e-06
3.14716e-08
0.000173749
-2.20601e-07
4.41389e-08
0.000302002
-2.23984e-08
-1.38157e-06
1.3219e-07
-7.69559e-08
4.55221e-08
-1.36101e-07
-1.96071e-08
1.62965e-07
3.61443e-08
-8.47091e-07
-9.15275e-07
-4.931e-06
5.07799e-07
-0.00298635
0.0139189
-2.46519e-08
4.70625e-08
2.52287e-06
-2.74009e-05
1.78635e-08
2.08691e-08
2.58504e-06
-0.00315536
7.36961e-08
1.19212e-07
-3.89965e-07
0.00278731
4.58341e-06
3.90608e-08
5.63842e-08
0.000340181
7.02594e-05
2.19448e-06
-2.59646e-05
1.64844e-06
0.000170372
0.00287907
0.000331894
2.99032e-08
6.19854e-08
4.72131e-07
8.77052e-08
9.42061e-07
6.03987e-08
7.58314e-08
4.42449e-08
-3.02492e-09
-5.93636e-08
2.78814e-08
0.00443776
2.99743e-08
-8.21775e-08
-1.80074e-07
3.28004e-08
-1.24914e-07
-5.40989e-08
-8.76394e-09
3.40518e-08
0.0176143
9.33919e-09
1.67855e-09
2.26934e-06
0.000328018
-5.31783e-08
3.17188e-08
-8.56521e-07
8.40436e-09
8.90224e-09
-2.09973e-08
-3.88797e-09
8.67855e-07
-0.00157731
0.00058699
1.17931e-07
2.16467e-07
0.00300328
3.60168e-08
0.000321825
1.80591e-06
-0.0102564
0.000772389
1.09316e-07
-5.08227e-07
-1.69744e-08
-3.41973e-06
2.07729e-08
-5.67649e-08
1.54561e-08
3.37433e-06
1.36225e-06
-0.000130604
0.00462075
5.3329e-08
4.31002e-07
4.73696e-08
1.21187e-06
2.1385e-08
1.91789e-05
0.00174386
1.0802e-07
-3.27947e-07
0.00370518
0.00652945
-0.000158742
1.03862e-06
-7.9631e-08
0.00571536
4.41961e-08
-0.00171683
3.41354e-08
2.91299e-08
2.49146e-06
0.00315112
-0.00113312
-0.00208005
1.96598e-08
-7.53241e-09
1.41887e-08
2.85486e-08
2.22101e-08
0.000878882
-1.54118e-08
-2.44082e-09
0.00130483
-2.62101e-08
-2.36751e-08
2.959e-08
-0.000386363
2.68721e-07
0.0071747
0.000226951
-1.99536e-05
-9.24515e-07
-0.00769378
-4.37196e-09
1.02589e-06
8.92687e-08
0.00208024
3.208e-08
0.00181246
-3.71487e-07
-1.3828e-08
4.1079e-08
2.99405e-06
2.5107e-08
3.77141e-07
3.84596e-08
6.99142e-08
4.55613e-08
2.88991e-06
-3.44724e-06
-1.18119e-06
4.5131e-08
1.22493e-06
2.26449e-08
-1.9014e-05
-7.51095e-07
-6.71794e-07
3.66151e-06
0.000481168
1.00965e-09
-9.3723e-05
6.13088e-08
0.00171824
-2.50574e-08
-1.23974e-08
3.95885e-07
0.000230986
-0.000164451
2.76138e-08
0.0033334
2.2071e-06
-2.99689e-08
3.38898e-08
2.8185e-06
-1.02653e-09
2.50724e-08
5.31782e-06
2.04068e-06
-0.00205202
-3.06968e-07
7.48637e-07
8.92604e-05
1.52796e-08
-6.45779e-09
-8.94504e-09
-0.00873879
3.92198e-06
-1.65412e-05
3.57775e-08
4.19691e-08
0.00276401
-6.58146e-05
2.97336e-09
2.4743e-10
-2.32763e-08
-1.19417e-08
-1.37297e-08
0.000367055
-0.000107079
7.47897e-08
-6.11689e-09
9.86942e-07
0.000180542
-4.44483e-08
3.71466e-08
0.00380499
-0.0019275
1.12317e-06
0.000196268
-7.17507e-08
3.57125e-08
-0.00166341
1.10875e-06
1.66607e-06
-1.03501e-07
1.62328e-08
-0.000442959
2.16166e-08
-2.28211e-07
-5.00555e-07
9.05395e-08
-9.30128e-09
5.53067e-08
9.57038e-07
2.50842e-08
-9.83533e-05
0.00010261
-2.15448e-08
5.5382e-09
2.22144e-08
4.7727e-09
2.22441e-08
6.20824e-08
2.42478e-08
-1.6068e-08
-2.82816e-05
0.000535809
3.58587e-08
7.97399e-07
5.47327e-05
-6.32281e-09
-4.47004e-06
-5.62344e-05
-7.50863e-09
0.000178671
3.11353e-08
-0.000480124
-1.30277e-08
-9.51237e-07
9.73886e-08
2.2462e-08
4.95226e-07
-4.24793e-08
-5.95906e-05
5.42094e-08
-0.000146779
6.10914e-06
0.00136236
-0.000128046
-2.67869e-08
1.37826e-07
1.79609e-06
1.29166e-07
2.55742e-06
7.31814e-08
1.60857e-08
-1.36091e-08
1.9369e-06
-1.03078e-05
-2.03608e-07
6.87063e-08
3.69404e-08
0.00143594
0.000201527
3.2197e-08
2.73845e-06
1.31136e-07
0.00483005
-3.57469e-07
0.000755261
0.00137567
9.77956e-05
-3.87799e-06
6.08725e-07
0.00419916
0.00318699
-1.17137e-05
6.34546e-08
-1.34809e-06
0.00282772
7.43022e-08
2.39503e-06
-7.3659e-07
-4.94424e-08
0.00203308
3.32816e-08
-2.96317e-08
-2.91477e-08
-0.000204511
2.11605e-08
-1.34119e-07
1.90506e-06
5.36793e-05
-4.60461e-08
-1.96647e-07
-0.000754573
1.07714e-08
6.989e-08
0.000264013
-0.00121796
-0.00115161
0.000327335
-8.81217e-09
5.11243e-08
-0.00192972
-4.51675e-06
-1.14176e-08
2.60362e-06
2.9993e-08
-2.68367e-07
-1.49713e-07
2.52057e-06
-2.871e-06
-3.9738e-06
-2.35793e-08
0.000561995
4.72057e-08
1.09536e-08
2.1156e-06
-7.09869e-07
-4.80269e-08
0.000402002
-2.54853e-08
0.000151947
2.21268e-08
-3.2455e-06
1.13504e-06
0.0128043
2.98314e-08
3.59544e-05
2.69257e-05
2.2261e-06
3.58877e-08
0.000569722
-2.40596e-07
-2.71883e-05
4.24206e-06
-4.27714e-08
0.015063
1.54339e-07
0.00115889
1.80427e-08
0.000443182
0.00123389
1.10359e-07
0.00182189
-2.83236e-06
-3.56864e-09
-0.000472006
1.07795e-06
8.28333e-08
8.814e-07
3.77612e-08
-3.11662e-06
-6.27993e-06
3.15752e-08
4.22296e-08
6.54831e-08
2.66554e-08
1.95507e-08
4.47137e-08
0.00664395
-1.29867e-05
1.40886e-08
5.03148e-08
4.84897e-08
1.26116e-07
-7.69563e-05
-1.73227e-08
-4.63467e-09
-3.4233e-07
-4.18341e-06
2.45992e-08
9.82331e-08
0.000658594
0.000169563
0.000221388
-7.39714e-07
0.00320341
-3.32292e-08
-1.20618e-09
6.49197e-07
2.07829e-08
-1.48861e-08
7.75201e-08
-1.35361e-09
-3.56339e-08
-0.00216205
3.23895e-08
-2.90714e-07
2.95841e-05
1.41336e-07
2.69327e-08
2.95889e-08
-0.000487615
4.40503e-07
-0.000140758
-8.35039e-08
3.41708e-08
-3.5834e-07
-1.75653e-08
1.26646e-07
1.98539e-07
0.000624532
-2.58259e-05
-0.00183509
3.33726e-08
3.15446e-08
-1.03487e-05
2.31988e-08
3.81178e-07
-0.00120236
3.29464e-08
-0.00683056
3.00385e-08
2.27562e-08
4.10206e-08
1.27526e-07
2.02904e-08
3.16344e-08
0.00152026
0.000819283
1.8448e-08
0.00178833
-6.39591e-07
4.54696e-08
1.91495e-07
-2.53432e-07
-0.000167102
4.17663e-08
-0.00105282
-0.000338194
-0.000187826
1.73757e-07
7.192e-05
-1.06054e-05
1.23761e-09
-0.00112073
-1.29484e-08
2.01352e-08
2.70314e-09
3.95672e-08
2.8027e-07
-3.01512e-06
-6.84277e-09
1.01659e-06
9.20297e-07
4.14138e-06
-8.1645e-07
1.36925e-08
0.00446212
4.35226e-08
4.19595e-08
-0.00121242
3.33607e-08
-8.94926e-07
2.65706e-06
2.21476e-08
0.000914935
2.12957e-08
-2.03955e-08
1.13919e-07
-7.25201e-08
1.80074e-08
1.70854e-06
0.000490124
0.000625424
2.99695e-08
4.11318e-08
2.16408e-07
-0.000629692
0.00130984
1.58244e-08
1.81844e-08
3.06409e-08
-2.26813e-07
-0.00250063
4.31414e-08
-4.70878e-08
-3.34078e-08
2.6681e-08
-2.89868e-07
2.76499e-08
-2.3372e-08
1.35877e-08
2.24066e-08
5.84727e-08
6.25345e-08
0.00078038
5.13363e-09
4.4484e-08
1.61506e-08
3.08585e-08
3.47354e-07
1.70143e-07
-4.46118e-07
6.01837e-07
5.97386e-08
3.72953e-06
0.00189381
2.9965e-05
0.000159572
1.12389e-08
2.76911e-08
5.69793e-06
3.95503e-08
0.00123529
-9.00007e-10
-0.00517755
5.43202e-08
0.0033058
-7.22593e-06
3.78266e-08
6.42476e-05
1.55177e-08
-1.92518e-07
-4.88199e-08
-6.12713e-08
0.00308092
-1.87584e-08
-9.68819e-08
3.65196e-08
5.24185e-08
3.32864e-08
-2.54465e-06
3.08148e-07
6.00653e-09
-8.00915e-07
2.22813e-07
0.000698571
0.00373655
0.00108914
1.48109e-05
5.34938e-09
6.19464e-06
5.43079e-09
0.00521803
-0.00300169
2.68885e-07
-1.53889e-06
1.13664e-08
3.91801e-08
3.79639e-08
-1.80376e-08
-4.66529e-08
5.45344e-08
0.00275387
2.66813e-08
-1.6298e-07
1.9639e-08
5.34143e-09
-2.73968e-08
-6.52003e-06
-0.00120395
2.91587e-05
-7.0835e-08
2.85546e-08
-8.17462e-06
0.000135832
1.85605e-08
-0.0010246
5.29852e-08
-4.19561e-07
3.76467e-08
0.000587894
2.50286e-08
-8.06851e-07
2.97885e-08
-0.00227107
3.50812e-08
-0.000261704
-2.14552e-08
7.5118e-09
1.68751e-08
1.16457e-08
0.000603699
-1.92748e-05
1.02216e-08
2.8405e-06
3.70016e-08
8.31714e-08
2.51232e-08
0.000574371
2.68744e-08
1.57573e-06
-2.58563e-09
9.21174e-09
-4.42056e-07
1.79257e-08
1.96636e-06
-6.42252e-08
2.06755e-08
0.00487402
-1.8403e-07
1.61355e-08
-0.000152178
-6.09157e-07
-0.000138029
2.21186e-06
1.41683e-08
-1.82791e-06
0.000776983
7.59944e-07
5.42916e-07
1.44523e-07
-1.24921e-06
-5.70214e-08
2.88058e-08
7.86125e-05
6.81767e-07
8.10254e-08
-0.00357133
4.8999e-08
0.00330183
0.00128194
3.17365e-06
-7.84204e-08
3.11902e-06
0.000202122
6.51222e-09
-4.24869e-06
-0.000547732
2.08081e-08
-1.78089e-08
-2.57335e-08
3.86017e-07
2.9545e-08
3.18238e-05
2.84179e-09
9.41985e-09
-5.69132e-07
-1.46963e-08
0.000703748
3.4346e-08
4.3168e-08
0.000650085
2.70628e-07
3.41686e-06
3.42281e-08
1.86556e-07
2.00033e-08
3.78086e-08
4.03928e-08
1.2928e-08
-0.000192851
1.05197e-08
-0.00222589
8.75268e-06
-4.56149e-06
0.000876837
4.16083e-08
-2.60785e-08
2.57506e-08
-1.88422e-05
0.00158123
5.54846e-08
-0.000157936
-0.00114687
2.17591e-08
3.5062e-08
1.02373e-07
-0.000581039
-0.00086896
3.39863e-08
3.7402e-08
4.54319e-08
-4.78629e-07
3.42395e-07
2.32561e-06
4.28639e-09
-1.70179e-09
4.52465e-08
-3.69609e-08
3.94011e-08
8.01482e-07
-6.80974e-06
1.56107e-07
8.47744e-07
-0.000187097
1.39026e-06
-0.00233033
1.24971e-07
6.26293e-07
4.94853e-08
3.1706e-06
-5.59125e-08
-1.71024e-07
-0.00135027
0.000908378
4.1394e-08
1.56788e-07
1.22502e-08
3.1452e-08
2.59648e-08
-1.35307e-06
-2.40062e-05
-3.48242e-06
2.23962e-06
1.00621e-08
-2.10913e-05
3.40436e-08
4.05588e-08
2.82738e-06
4.91161e-08
-1.88537e-07
-0.000591173
6.81369e-09
2.74052e-07
-9.53941e-07
5.46991e-09
3.07635e-08
2.49527e-08
3.07215e-08
0.000163918
4.35703e-08
3.0821e-08
-2.82935e-08
1.51957e-08
2.99599e-08
2.43623e-06
1.16913e-07
-6.00473e-06
-0.00125331
-1.80697e-07
-0.00180443
2.52157e-08
1.13279e-06
7.87015e-06
-5.0555e-07
-1.94514e-05
-4.49129e-08
-1.80199e-08
3.82939e-08
1.85985e-07
-2.3858e-07
3.21154e-08
0.000299332
-7.79174e-08
-0.00634973
1.30028e-07
3.98177e-08
-4.23439e-08
-1.22468e-07
-1.05779e-06
-0.000595649
-9.7021e-06
-5.9572e-08
0.000769098
4.70193e-08
-9.21709e-05
3.52273e-08
-1.43069e-05
3.52646e-07
-2.9033e-09
4.16252e-08
0.00180505
3.92263e-08
-0.000185
-0.00704527
3.06537e-08
6.39333e-09
-5.57621e-09
-2.43365e-07
8.2232e-06
-5.39608e-09
-0.000827614
4.39433e-08
-2.19371e-05
-3.42504e-07
0.00324517
-1.53741e-12
-1.24501e-08
-3.00928e-06
1.07953e-08
1.92248e-08
7.17663e-08
1.37553e-08
-2.90193e-08
1.53644e-09
-1.13674e-05
-2.13993e-09
0.000393759
-0.000120705
0.000174433
-0.00188227
-0.00353837
0.000351039
0.00634928
1.69838e-08
6.09925e-08
4.8966e-08
5.17223e-08
3.13332e-08
4.00916e-08
2.92845e-08
0.000210969
1.95429e-08
0.000773185
4.49768e-08
1.83864e-08
-2.54426e-06
4.34397e-10
-2.53187e-07
4.67164e-08
-2.57593e-07
4.39819e-08
-2.22328e-07
-0.000111314
9.84448e-07
-0.000687269
2.57484e-08
2.34656e-08
7.20314e-08
-7.43625e-08
-4.34358e-05
1.92625e-08
-2.17494e-05
2.49768e-08
-0.000422356
-6.78227e-07
3.87756e-08
-1.8559e-07
7.43581e-06
2.03667e-08
0.000605388
-0.000870835
-5.30661e-08
-2.2946e-07
3.52514e-09
-2.72132e-07
8.0203e-08
-6.75244e-08
0.000544857
-3.10938e-08
4.26567e-08
-5.35559e-07
0.000494153
3.89641e-08
0.00750736
8.55973e-05
1.25628e-07
3.74539e-07
2.00587e-08
0.00234542
2.50361e-08
-9.86454e-07
5.12173e-08
0.000919957
-9.02253e-07
0.00488954
5.01814e-08
-2.90617e-09
0.000979079
2.63866e-08
9.39259e-07
0.00172341
4.90567e-08
1.70602e-08
0.000552096
9.7963e-08
6.68262e-08
6.05042e-07
7.71501e-08
0.000798796
-1.95021e-07
-2.39742e-07
1.3672e-06
4.56558e-08
0.00111667
-1.51046e-08
3.6433e-07
3.46252e-08
-4.01858e-05
-0.000464712
3.21165e-08
5.72602e-08
-3.77936e-08
1.71136e-08
1.25987e-07
2.70169e-09
-2.12923e-08
4.02192e-08
2.11239e-08
6.63886e-09
4.01659e-08
-2.62548e-07
0.000270928
-0.000439302
-3.91039e-07
7.49223e-08
0.000653103
3.04964e-08
-1.99944e-07
-0.00238296
-7.836e-05
-1.58981e-08
1.82554e-08
3.24004e-08
3.82763e-08
-1.85377e-08
-3.37033e-07
2.11601e-08
-7.78208e-08
1.66279e-08
0.000246215
0.00224655
1.53286e-08
0.0021507
3.50734e-08
4.32883e-08
5.68185e-06
0.000599139
-1.00077e-06
-1.80912e-08
-0.00025918
-2.15538e-08
5.27366e-08
8.99662e-05
9.90499e-08
0.000920061
4.32449e-08
-1.92894e-05
2.85804e-08
-5.76901e-09
3.74914e-07
0.000623038
5.802e-08
0.000110584
1.76379e-05
-1.16342e-08
4.82972e-07
2.185e-08
2.26323e-08
-3.23479e-07
5.32338e-09
8.0785e-08
7.70057e-05
0.000165102
0.000313993
-3.17103e-07
-2.12442e-08
0.000121521
1.19501e-08
0.00327482
-2.56553e-07
4.23761e-08
5.52512e-08
0.00876442
-0.000224287
-0.00051943
5.20454e-06
-0.00830821
4.91642e-08
2.66947e-08
-5.0262e-10
-2.7788e-09
5.07104e-08
0.0008896
0.00036131
2.0147e-09
2.79508e-08
0.000121908
2.95438e-08
-1.46837e-08
-0.00618978
0.000405636
4.93236e-08
1.26652e-08
4.39511e-08
3.31802e-08
4.93326e-08
-2.24124e-06
-1.404e-07
4.74978e-08
6.9492e-05
3.08973e-06
-0.000500021
-0.00157031
1.31856e-05
-6.61727e-05
3.30476e-08
4.48212e-08
8.27448e-05
0.00054707
0.00100174
1.0909e-07
6.46989e-07
2.96063e-08
4.39798e-08
1.83875e-08
-0.00058961
-5.9002e-06
6.38009e-08
-2.1412e-08
2.82687e-08
0.000778617
-9.38925e-09
-5.3917e-07
-1.6947e-07
0.000202429
-0.000945498
-0.00045754
0.000481087
-8.52281e-08
0.00327883
-1.5041e-08
-1.70942e-07
8.49908e-07
0.000612539
4.77291e-08
-1.06254e-07
5.31567e-08
0.00329863
1.89144e-08
-0.000199211
-6.02363e-11
-6.27193e-07
0.000199078
-1.85572e-08
-3.55455e-07
1.01857e-07
3.41173e-08
2.93956e-06
-0.000100314
-1.31842e-08
5.73712e-09
5.39411e-08
-0.00176434
1.68155e-08
3.63173e-08
3.62993e-08
-9.22404e-09
2.84669e-08
-2.67932e-06
-2.17937e-07
7.56322e-08
1.63658e-08
-4.90527e-06
6.11784e-06
2.45571e-07
0.00129594
4.05743e-08
2.89011e-08
0.0010969
2.42971e-08
4.87422e-08
0.000649704
-8.80396e-06
7.8241e-07
-3.18122e-07
4.25234e-07
-0.000162074
-1.87319e-05
3.21997e-07
0.00281676
4.10569e-08
1.14783e-06
0.0001608
-3.32815e-06
-0.00358809
0.0056394
-1.95535e-08
5.52767e-08
5.17918e-08
2.93372e-08
6.6638e-08
-8.34811e-06
-2.99033e-08
5.14589e-08
7.62226e-09
-1.49079e-07
-0.000372913
7.41917e-08
-0.000719678
-0.00883127
3.04261e-08
-2.62072e-07
-2.05044e-07
6.1647e-08
3.00186e-08
0.000150997
-3.59839e-08
0.000366909
1.39907e-07
-0.00361509
-1.619e-06
2.22157e-07
-0.0012551
1.23372e-08
-3.92793e-06
4.02694e-08
-2.62039e-05
3.17377e-08
1.91567e-07
5.51907e-07
-1.48512e-07
2.89942e-08
-4.98286e-08
0.00467196
3.10816e-08
1.15992e-05
-1.30673e-05
2.15759e-08
3.18529e-08
9.71409e-07
0.000160468
4.4568e-05
-4.53075e-10
2.08229e-08
-1.66567e-05
0.00524342
-0.000170495
5.09719e-08
2.2597e-08
-1.79758e-08
2.14204e-08
-1.81946e-08
8.24618e-08
-0.000148635
-5.71027e-08
4.69039e-08
-9.63064e-06
-1.00736e-05
-3.95752e-07
0.000254428
-0.00363562
3.16984e-08
9.84115e-09
2.31063e-08
3.37224e-08
-2.17271e-07
-0.000521618
6.84375e-05
-2.7909e-06
5.10403e-07
-2.28606e-08
3.84406e-08
-1.30432e-05
2.0016e-07
-8.33238e-07
-9.39351e-09
-4.94575e-06
-2.6684e-05
1.26681e-08
2.88436e-08
0.000194321
5.82411e-08
6.76497e-05
0.000329932
1.31668e-06
2.74018e-08
-2.65969e-05
9.56454e-09
3.12051e-08
-0.00106254
0.000182769
-8.75132e-09
3.24509e-07
5.75509e-08
9.58627e-08
4.34977e-08
4.95796e-09
3.25236e-08
2.23885e-08
3.28582e-08
1.92431e-08
-6.2624e-07
-0.000160937
3.79933e-08
4.62858e-08
3.0598e-08
-1.77942e-06
6.84463e-09
3.77354e-07
1.93516e-05
5.0309e-06
0.000387736
-3.8169e-08
7.69611e-09
1.50892e-05
2.28368e-08
0.000654423
4.98973e-08
-2.94148e-07
3.13214e-08
2.22618e-08
-5.85428e-05
4.62792e-08
-6.31274e-08
2.65269e-08
0.00999249
-8.4666e-05
8.32189e-05
-5.24653e-08
5.70045e-08
0.00784878
-2.14938e-08
-4.86399e-08
-3.2441e-06
-0.00366446
1.20656e-07
3.97257e-08
4.339e-08
-0.00140914
2.6793e-08
1.55835e-07
2.81675e-08
8.0656e-09
4.35025e-06
2.5385e-08
2.05517e-08
-7.79539e-05
-1.44897e-07
0.00587887
-1.90859e-07
2.64367e-08
3.90071e-08
2.988e-08
1.406e-08
4.93387e-07
4.3211e-08
3.07005e-08
7.35047e-07
5.12356e-08
6.26371e-07
2.50328e-06
3.18044e-06
3.2316e-08
1.50774e-06
4.79638e-08
0.000233656
-3.0215e-08
0.00169622
-2.07396e-07
4.48803e-08
-4.98681e-08
4.0745e-08
4.06962e-08
2.00387e-08
4.79601e-07
1.94843e-08
1.39436e-08
0.000222227
1.0815e-06
1.3017e-05
1.53762e-09
-2.00029e-08
1.52998e-07
1.29405e-06
3.13715e-08
0.000124096
7.07598e-08
-1.46375e-08
3.46237e-08
1.11087e-08
4.2834e-08
2.19055e-05
-0.000399099
-1.98314e-05
0.000670286
1.24505e-06
-3.90847e-07
-2.66205e-07
-0.000861217
6.73714e-09
-3.18709e-08
8.77973e-08
-0.0013152
1.42863e-08
0.000207409
4.12507e-08
-4.5585e-09
-3.06645e-06
-1.29638e-05
-0.000159242
5.557e-05
4.94942e-08
-8.40304e-06
0.000153984
-3.28013e-09
-0.00084771
3.46532e-08
-1.01502e-08
0.00328279
8.27914e-09
0.000224175
0.000155188
2.31285e-08
4.1417e-08
3.39617e-09
0.00112638
-2.24103e-08
5.77682e-09
-2.69822e-07
2.88923e-08
2.462e-08
1.55613e-06
-3.16474e-08
-1.84458e-08
4.23974e-08
4.0535e-07
1.38743e-08
0.00127038
-4.60324e-05
1.52235e-08
1.60752e-08
4.9087e-08
3.36612e-08
4.47522e-08
-2.45631e-08
3.58572e-08
3.91475e-08
3.40877e-08
3.00754e-08
3.94895e-08
3.20056e-06
1.08739e-08
2.1445e-09
5.36439e-08
3.88769e-06
4.03585e-09
3.38572e-08
1.92795e-08
-5.93238e-08
4.10643e-08
-7.82164e-07
3.91375e-08
0.00703086
-7.16312e-05
0.00139467
0.000400783
-3.01903e-07
-0.00187526
6.19753e-08
3.86265e-08
0.000245044
0.00339475
1.68448e-07
3.56301e-05
1.73299e-08
-2.89564e-07
0.00247277
4.63893e-08
1.82035e-07
-0.00366243
0.00230661
-1.54514e-08
-3.34768e-08
1.45722e-08
0.000623325
4.67896e-08
0.000593972
0.000322567
3.96178e-08
-3.43499e-05
1.27561e-05
-5.79052e-08
-0.000524195
-0.000300211
8.16264e-08
2.23554e-08
-0.00108886
-2.36751e-05
-7.14653e-09
2.9957e-08
2.90801e-08
-9.87201e-05
1.71125e-06
1.97217e-08
-1.2188e-10
-0.000432077
2.59932e-09
2.91515e-08
4.0811e-08
5.40816e-09
-0.000155663
-9.25197e-07
3.88158e-08
0.000191987
3.27388e-08
-2.78021e-07
2.73097e-08
-0.00116151
-1.6944e-07
0.000844234
7.84246e-09
4.23942e-08
-1.24297e-08
-1.78706e-08
3.61249e-08
1.88016e-08
-0.000832565
5.31231e-08
5.95628e-09
2.96055e-08
-7.77494e-05
2.15853e-08
0.002554
-0.000601032
-0.0024676
-1.35782e-08
-3.68319e-09
2.43759e-08
0.00589774
1.5709e-08
-0.00181802
-1.70726e-08
-0.000113628
6.75511e-08
-3.03847e-07
5.6046e-05
2.26575e-08
-5.40807e-08
-6.44098e-05
-1.59693e-07
0.000270625
7.0515e-09
0.00328893
-0.0161966
4.51293e-08
3.04965e-05
3.79407e-08
-6.31665e-07
-0.0038909
-1.97304e-07
2.28678e-06
0.000482168
1.07854e-06
-7.19573e-09
2.89399e-08
-0.00122227
3.25606e-08
0.00240922
2.59413e-08
0.000245173
2.99909e-08
4.05693e-08
2.24908e-07
-0.00820045
1.97063e-10
-5.57154e-05
-1.26445e-06
0.00293293
2.02029e-08
4.52255e-07
0.002488
-3.48386e-05
-0.000336496
8.08429e-07
4.85321e-09
1.80309e-06
-0.000135694
-9.12281e-08
-0.000255182
-1.02115e-08
3.65334e-06
0.000296964
-3.6606e-09
-0.000175861
3.45421e-08
0.00319213
-6.91316e-05
8.87043e-08
5.9824e-07
0.00179719
-0.00383977
2.57204e-08
4.91655e-08
3.67831e-09
2.75571e-08
0.00447448
-6.26149e-07
-3.52843e-05
-2.06478e-08
5.61284e-08
0.000202181
-2.92372e-05
0.00666981
-0.000165899
3.32661e-08
3.32166e-08
-9.87505e-07
0.00208819
0.00346503
-0.000492331
4.04106e-07
3.12548e-08
-3.78781e-06
0.00275971
4.93223e-05
-0.00278574
2.307e-08
1.06647e-06
1.9102e-08
-1.31006e-06
2.8367e-08
3.8046e-08
-4.21488e-07
-8.15497e-06
-0.00229356
2.60583e-07
-0.00862969
9.4438e-05
1.34329e-06
3.03978e-08
3.03419e-08
-0.000151011
-6.96516e-09
0.00119068
5.49846e-08
-2.31983e-09
8.53236e-06
-6.51328e-05
1.45178e-08
-3.47188e-09
3.75617e-08
3.42271e-08
0.000766632
-4.92898e-06
0.000256532
2.87192e-08
0.0001237
-0.000113481
-1.97042e-06
-5.26289e-08
1.44813e-07
1.2219e-06
-1.7866e-05
-4.39141e-07
-1.95206e-07
0.00433788
-1.23092e-05
-5.86138e-09
9.12953e-08
-6.97043e-08
1.77105e-06
-0.000108559
1.37966e-09
1.30052e-08
5.70455e-08
-8.03268e-05
-1.80595e-05
1.57821e-08
-5.53892e-07
9.0742e-06
1.8774e-08
-6.05323e-05
5.08402e-08
0.00058018
-9.07381e-07
0.00117981
-0.00150098
3.83396e-08
-6.5085e-08
-4.53934e-05
3.3219e-08
1.54255e-06
0.000672761
5.00073e-08
-2.7751e-06
1.8726e-08
-1.17373e-07
0.00191826
0.00364669
3.17898e-08
0.00990947
-8.35237e-06
1.10045e-08
-6.42061e-07
3.6388e-07
-3.20471e-06
-0.000763272
-7.64655e-06
0.0004802
2.03893e-06
0.000311532
1.07603e-07
-2.06622e-07
2.5773e-08
3.38135e-08
3.35541e-08
1.97617e-08
-5.94115e-05
-1.08724e-05
-1.69617e-08
4.63865e-06
-7.40952e-07
3.2185e-08
-0.00455694
-0.0001338
5.53255e-08
1.61808e-08
3.4164e-08
-2.71157e-08
-2.68088e-08
3.38038e-08
-0.00673365
3.85045e-08
5.71918e-07
-2.90841e-07
-1.09635e-06
-3.93705e-06
-1.30569e-06
-0.00415797
3.11013e-08
-2.5949e-08
-1.09883e-08
1.77758e-08
0.00279442
-3.43111e-07
4.09571e-07
-8.71255e-05
-4.13733e-08
2.45418e-08
1.58508e-06
1.52707e-08
-2.38537e-08
-1.7334e-06
5.27027e-08
0.000485407
0.00514818
0.00351758
2.34777e-08
0.00955211
2.08004e-08
0.000212355
1.3173e-08
-1.45101e-06
0.00838151
2.28347e-08
-4.95161e-05
6.77782e-05
5.44756e-07
3.12059e-08
-1.92735e-08
2.15005e-07
-0.0014084
5.09496e-09
4.03712e-08
-2.06909e-08
-7.7043e-08
3.79464e-07
4.19488e-08
5.77529e-08
3.07848e-08
-5.25046e-08
-0.000106218
6.88867e-09
1.16199e-07
1.62472e-06
-8.58801e-05
0.000872816
0.00600367
2.40866e-08
-3.62697e-08
0.000759505
2.35908e-08
3.23091e-08
2.25912e-08
0.00442168
1.73033e-07
-1.87082e-08
3.07411e-06
-0.000492978
3.36226e-08
9.36289e-09
4.78821e-09
-9.00042e-07
0.000358046
1.35091e-06
2.59868e-08
-2.64668e-07
1.63863e-08
0.000225476
4.78148e-08
0.00212976
-1.2799e-07
-4.04161e-08
5.37571e-06
-4.15489e-08
-0.00154461
2.74872e-08
-4.59528e-08
3.30146e-08
1.8802e-06
-2.946e-06
4.15747e-08
7.00931e-09
1.36822e-07
0.000522768
2.06438e-08
4.63554e-08
0.00388071
5.8052e-08
-1.9854e-05
4.88451e-08
4.1528e-08
2.02799e-08
0.001745
3.76638e-08
-0.00419444
2.04337e-05
-2.042e-08
-0.00090673
3.41411e-08
1.9924e-06
-4.14147e-07
4.11444e-08
-6.57387e-08
-1.87477e-08
3.38719e-08
0.0133607
-4.75187e-08
0.000225797
0.00037728
1.91719e-08
-3.26391e-05
-4.29587e-08
0.000733496
3.87964e-08
0.00036168
0.00357665
0.00420931
7.19106e-09
5.23574e-08
4.45321e-08
0.00453532
0.00283319
-8.456e-08
3.82563e-08
3.94946e-08
-0.00700467
4.2787e-08
5.14972e-08
-8.76597e-08
-2.60722e-07
2.95923e-05
1.10338e-08
-0.000346927
-1.10869e-06
3.12625e-08
-0.000989722
-1.07643e-07
-0.00136087
0.00588647
3.79195e-07
-6.99935e-07
4.92954e-08
4.06006e-07
-1.38288e-09
6.41833e-06
-3.7525e-08
3.39359e-08
4.93114e-08
-1.46445e-05
0.00705554
5.80803e-09
-5.67671e-07
0.0107696
0.000528711
3.00769e-08
5.03424e-08
2.99464e-05
0.00302809
-1.08493e-05
1.01475e-08
0.00828358
-2.06217e-07
-2.52496e-08
-0.00016184
1.49418e-07
5.28004e-08
-3.78666e-06
9.84501e-09
2.17245e-05
-2.83074e-09
-1.19577e-08
-1.07693e-08
4.40385e-09
0.000162118
-4.7261e-08
2.91747e-08
2.45107e-07
4.01809e-08
-1.56905e-07
-1.2764e-06
2.04673e-08
2.48505e-08
6.89868e-08
4.29978e-08
0.000490804
0.000715636
0.000155041
0.0105302
-1.52048e-06
0.000988928
4.80814e-06
9.31557e-05
0.0127318
-0.000679855
2.79794e-08
1.02963e-06
3.88055e-08
4.73805e-08
2.67596e-08
1.24018e-07
9.29481e-07
-1.3268e-07
5.77012e-07
3.17643e-08
3.24662e-08
-1.33043e-07
4.50937e-08
1.44968e-08
2.63516e-08
0.000380643
2.47446e-08
0.000217818
2.20287e-08
0.000219999
6.72936e-09
-4.4671e-08
1.17777e-07
-1.36697e-08
2.0193e-08
1.43813e-06
0.000409568
3.66814e-08
-5.34144e-05
-0.00168386
-9.25929e-08
4.94203e-08
-0.000221299
9.92227e-07
-3.85079e-08
3.02414e-08
-2.12734e-08
0.000564568
-8.00399e-09
-7.7264e-06
9.06419e-06
9.57942e-07
-0.00544698
-0.000847896
-1.47335e-07
0.000323359
-2.79049e-08
6.9205e-09
0.000809908
-0.00152498
2.85578e-08
2.6917e-08
0.00184148
2.32852e-08
6.68654e-06
3.97921e-08
4.51118e-08
2.22951e-07
4.45348e-08
7.27655e-07
0.000682752
0.000435612
4.9492e-08
-2.88373e-09
-1.94689e-06
4.95908e-08
-1.70215e-06
1.99437e-08
-1.40926e-06
-2.65586e-07
1.10724e-08
5.68763e-08
-2.08727e-08
-3.41426e-06
1.88006e-06
6.92455e-07
-0.000288945
5.59313e-08
0.00403156
-2.73463e-07
-2.91297e-07
0.00406275
2.07861e-08
0.000270207
4.92568e-08
0.000356854
-1.72979e-05
0.000183262
0.00354739
-6.26552e-08
-1.55188e-07
0.000728281
-2.96321e-09
0.000416346
2.09216e-08
4.773e-08
4.28438e-08
4.25775e-08
3.66429e-08
-1.58429e-05
-0.000570983
-0.00432717
5.32136e-08
1.05816e-07
4.86902e-08
-5.83039e-08
2.7839e-08
9.86774e-08
-4.30463e-07
0.00581874
-3.19996e-07
-3.60542e-08
7.33215e-09
1.18762e-07
4.67314e-06
-9.0821e-09
2.04247e-07
9.81778e-08
-3.17753e-06
3.68222e-08
1.55965e-06
-1.79495e-06
0.000237717
6.08907e-08
3.70295e-08
3.81011e-08
4.23191e-08
-0.000115437
-0.00153235
6.69412e-08
1.65754e-08
-0.00117199
1.79825e-08
1.14525e-08
9.95897e-08
0.000340801
0.000168873
4.12389e-07
2.28365e-08
-0.000153326
8.96916e-09
1.87729e-08
-3.54128e-08
0.00430866
4.19205e-05
-9.45217e-08
-0.000640621
0.000955145
4.48017e-08
-3.09673e-06
-3.42603e-07
0.000442065
3.44184e-08
0.00279673
6.72966e-09
-0.000115004
6.75606e-06
0.00189417
3.62294e-08
2.5625e-08
0.000227139
3.56565e-08
3.97067e-08
-0.0178951
-0.00209746
-2.83918e-06
-1.53502e-05
4.26698e-08
4.76653e-08
0.00235975
1.21458e-08
2.48294e-08
2.65243e-08
6.37248e-09
3.74563e-08
-6.62305e-07
4.70666e-08
-0.000968853
0.000155212
4.10538e-08
0.000269497
5.00709e-08
0.000137323
-6.76859e-05
3.48994e-08
4.57369e-08
4.42361e-08
-1.74376e-05
1.05005e-06
4.23331e-07
0.000343082
-0.00017178
-3.00304e-06
-4.73024e-08
-0.00160797
0.000695614
1.47483e-06
0.000422193
2.5388e-08
-9.26244e-10
2.30604e-08
-3.87927e-08
3.20019e-08
3.64942e-08
0.00026468
-1.66621e-06
-2.85287e-05
-0.000450356
0.000162087
0.00451696
0.00108855
-7.34276e-07
0.00224064
2.08015e-06
-2.72059e-07
1.25543e-08
4.58962e-09
-1.57468e-07
-0.000137467
7.86567e-08
-0.000735161
0.00048121
3.08926e-08
4.39444e-08
1.48712e-08
-2.25009e-06
-3.22134e-10
7.14145e-07
0.000468969
7.36519e-09
3.51945e-08
2.90656e-08
4.73714e-08
-4.13278e-07
0.000393069
8.86168e-07
-0.000198418
1.16796e-07
2.87509e-08
0.000244175
-3.47895e-06
-4.94596e-08
0.000212404
0.000780335
0.00565945
0.00116098
-4.36209e-06
2.41379e-09
0.00178482
0.000176697
2.99835e-07
0.00370593
1.05103e-08
2.96399e-08
9.74108e-08
4.36025e-08
0.00418718
2.99282e-07
4.82247e-08
5.73591e-08
9.96418e-05
4.99059e-05
-1.07686e-07
2.1784e-06
0.00117023
0.000952419
3.3738e-08
2.43365e-07
1.78022e-06
3.34442e-08
3.14802e-08
0.00725598
3.26191e-08
-5.67638e-06
0.000390052
0.00338308
1.90209e-08
-1.6745e-06
-8.21661e-07
1.42258e-08
-2.54434e-08
0.00833843
0.00253826
-7.52714e-08
-2.03318e-06
3.64165e-06
3.20953e-06
0.00224011
-0.000685375
1.04954e-07
3.47118e-05
-0.000672273
-5.59151e-08
3.04714e-08
1.59855e-05
2.76924e-09
-2.48887e-08
0.00041123
7.77432e-08
1.21621e-06
4.80802e-08
-1.65115e-06
-8.66624e-09
-4.99006e-09
4.18979e-08
4.40548e-08
-0.00117402
4.87345e-08
1.16278e-05
-0.000173275
-3.04042e-07
1.36516e-07
-0.00127626
0.00286105
-0.0012936
1.30357e-07
4.74019e-08
-6.09253e-08
1.04795e-07
6.28537e-06
0.00158139
4.07864e-08
-0.000256958
-2.34517e-05
1.58578e-07
-5.18597e-07
1.23994e-07
-6.19547e-07
-8.18675e-07
4.74799e-08
-8.35285e-07
-9.6497e-07
-8.09282e-07
-7.97229e-07
-5.70854e-07
3.77078e-07
1.51252e-06
2.86111e-08
3.55733e-08
-5.1141e-07
2.72267e-08
-4.82645e-05
0.00149951
1.18981e-06
0.000212404
-2.51342e-08
1.94051e-08
7.48933e-05
0.00073761
4.27276e-08
-1.12912e-08
-1.95122e-07
0.00558339
0.00317256
1.94927e-08
6.27143e-07
5.31462e-08
-0.000197067
-9.75417e-05
4.2981e-08
-1.7828e-06
8.19226e-05
-6.26924e-07
0.00199808
1.65083e-06
-0.000650788
0.00203435
-4.38362e-09
0.000842131
0.000163125
3.77462e-08
-9.91767e-07
-8.25808e-07
-5.52566e-07
-3.53564e-09
-4.17056e-05
0.00194545
1.02134e-10
-3.98949e-09
0.00368172
4.38204e-05
-1.117e-06
2.64351e-08
3.5906e-06
3.15329e-06
0.000378881
-7.51756e-07
4.25753e-08
3.40432e-08
4.24391e-08
7.01695e-09
0.00312066
0.00277929
-0.000415957
-4.17994e-07
5.57329e-05
-0.0026709
-8.22285e-09
2.39445e-08
2.41067e-05
2.15661e-08
0.00278698
3.68402e-08
0.00178199
4.52194e-08
-2.78694e-08
0.00894736
2.30826e-08
-8.43298e-07
0.00403381
6.54251e-08
-1.92233e-07
4.71307e-08
6.88519e-07
0.000247011
-1.45561e-06
0.000191449
-4.32964e-08
-5.5436e-08
4.32803e-08
-1.33763e-06
-0.000533968
-0.000212819
-2.20905e-06
1.39189e-06
-1.33009e-06
0.00210774
7.38068e-07
3.15583e-08
6.27631e-09
1.26682e-08
-3.56579e-05
7.1148e-06
0.00122581
-4.35981e-08
-1.93005e-06
1.4682e-08
-0.000183103
-0.000231492
0.000471311
2.64706e-08
5.03102e-08
-1.4168e-08
0.00011554
-2.51928e-05
-0.0104714
-1.78287e-05
-9.43193e-07
1.41707e-05
-2.15402e-08
4.53091e-08
-8.50895e-07
-6.35027e-05
0.000136251
3.54046e-08
-1.73646e-06
3.0557e-08
1.27768e-07
-3.35028e-06
0.00920101
0.000625796
5.54364e-08
-2.37378e-06
-1.66475e-05
0.00611984
-5.30957e-05
0.00375903
0.00278631
2.14672e-08
1.04879e-07
3.91841e-09
-1.6214e-06
-1.35422e-08
-1.3854e-06
-1.57931e-08
8.92441e-08
-6.482e-05
0.00379678
-8.7793e-08
-4.71198e-06
0.000150566
-2.58656e-07
-1.71594e-07
-0.0169313
-2.61774e-07
-5.83718e-08
6.56907e-08
0.00387296
2.89128e-08
-5.68236e-07
-0.000143262
0.000567473
0.00043478
-9.2512e-08
-0.000318679
0.000503629
0.00792058
-5.08953e-05
2.52854e-08
-8.41767e-07
-5.53981e-07
0.00406977
-3.54759e-06
4.15049e-08
0.000479215
-8.40612e-06
-3.22414e-05
2.72813e-07
-0.00113135
-3.15919e-06
0.000787163
3.95852e-08
0.00088327
1.05585e-07
0.000520475
1.15046e-06
0.00162338
-0.000184717
2.17041e-08
-9.72983e-09
6.7329e-05
0.00136509
1.81112e-05
4.30055e-08
-1.25799e-07
-1.61126e-06
0.00212042
1.63011e-05
0.000177283
1.30372e-07
0.000210796
6.32714e-08
0.0105253
4.18367e-08
1.79193e-05
-0.00307383
-7.46061e-08
-2.76552e-07
-2.37158e-08
5.05031e-08
4.02089e-08
-5.36038e-05
3.94232e-08
2.51041e-08
0.00232536
0.00274225
1.22674e-08
0.000375955
4.68271e-08
7.70692e-09
2.53901e-08
-7.41031e-09
3.62678e-08
3.96374e-05
0.00201106
1.43166e-08
-0.000353029
-1.94912e-07
-5.56033e-08