/*--------------------------------*- C++ -*----------------------------------*\
| =========                 |                                                 |
| \\      /  F ield         | OpenFOAM: The Open Source CFD Toolbox           |
|  \\    /   O peration     | Version:  v2012                                 |
|   \\  /    A nd           | Website:  www.openfoam.com                      |
|    \\/     M anipulation  |                                                 |
\*---------------------------------------------------------------------------*/
FoamFile
{
    version     2.0;
    format      ascii;
    class       volScalarField;
    location    "650";
    object      nut;
}
// * * * * * * * * * * * * * * * * * * * * * * * * * * * * * * * * * * * * * //

dimensions      [0 2 -1 0 0 0 0];


internalField   nonuniform List<scalar> 
13851
(
0.0004856
0.00147378
0.001582
0.00378809
0.00672149
0.00122159
0.0021785
0.00675844
0.016254
0.00673242
0.000525566
0.00672163
0.00294565
0.0051253
0.000848152
0.000379443
0.00240788
0.00392728
0.000623452
0.000418544
0.000749498
0.000820746
0.000776303
0.00672546
0.00066998
0.000649526
0.00408691
0.00978798
0.0142912
0.00674622
0.00800448
0.00256769
0.000404518
0.0200243
0.000615857
0.0122486
0.00672578
0.000331344
0.0127659
0.00288318
0.0177023
0.0145819
0.000202239
0.000120167
0.0162239
0.00564525
0.00674506
0.000373808
0.00139993
0.00280324
0.00273529
0.0028282
0.000422999
0.00121076
0.00514825
0.00268342
0.000386744
0.0170444
0.00311753
0.00416266
0.00672171
0.00175434
0.00672483
0.00142378
5.39092e-05
4.46394e-05
0.00238988
7.771e-05
0.00289782
0.00564075
0.00842925
0.000732805
0.00362932
0.00308603
0.00108605
0.0011096
0.003811
0.00674034
0.000763576
0.00673021
0.00245013
0.000636848
0.000608796
0.00553099
0.00464381
0.00804455
0.000870101
0.00462184
0.00633884
0.00783606
0.00198297
0.00223044
0.000333666
0.00805091
0.0126645
6.89894e-05
0.00614657
0.000390874
0.00293145
0.000258708
0.000337003
0.000161732
0.000140219
0.00316275
0.00601559
0.000699459
0.00536434
0.00863296
0.00230077
0.00417952
0.000504647
0.00578674
0.0012263
0.000696707
0.000387889
0.00129162
0.00673028
0.00674971
0.00324209
0.00562994
0.000109497
0.00578086
0.00238037
0.0123597
0.000613415
5.02092e-05
0.00555862
0.000379813
0.017874
0.000684861
0.000815731
0.000849522
0.00025463
0.0198341
0.000618183
0.012575
8.95081e-05
0.00842092
0.000215007
0.000709391
0.000576627
0.00147209
0.00601931
6.00617e-05
0.00328917
0.00129404
0.00673941
0.00802506
0.013139
0.000366397
0.000352876
0.00102331
0.000722446
0.000602512
0.00190817
0.00417314
0.00672193
0.0124845
0.0007589
0.00208487
0.00672499
0.0136913
0.000795617
0.000374148
0.00527301
0.0176877
0.0180646
0.00396321
0.000535785
0.014277
0.00672194
0.00672831
0.000703952
0.00672227
0.013307
0.00438045
0.000333298
0.00672955
0.001105
0.000356769
0.000633786
8.04751e-05
0.00058201
0.000745478
0.000236845
0.0134551
0.000385142
0.000333844
0.0023136
0.00674966
0.0012261
0.00083767
0.00259715
0.0011507
0.00115717
0.000393721
0.00041966
0.00335251
0.0028327
9.06178e-05
0.000541313
0.0142424
0.0167686
0.00089749
4.92271e-05
0.0132946
0.000925454
0.000801077
0.0165337
0.00122336
0.000373006
0.00325454
0.000556281
0.00672511
0.000642541
0.00101018
0.00292522
0.000571956
0.00292141
3.18813e-05
0.00672896
0.000430543
0.00333928
0.0129583
0.000372731
0.000775141
0.00672573
6.79611e-05
0.00672331
0.00062162
0.00263112
0.000370568
0.00121695
0.00672462
0.0163942
0.00674776
0.000511889
0.0163043
0.000259666
0.00672522
0.000205643
0.00509271
0.0147436
0.000456996
0.000881112
5.07659e-05
0.000465997
0.00105966
8.19485e-05
0.00051467
0.00421252
0.000545743
0.00673182
0.00124266
0.000366177
0.0140122
0.00615438
0.00674774
5.17011e-05
0.00655274
0.000406357
0.000595462
0.00123607
0.000753584
0.000519155
0.00450706
0.00014952
0.000383348
0.00893012
0.00672286
0.00318321
0.00036926
0.0190093
0.00179362
0.000749924
0.00524525
0.000657828
0.000590164
0.000390297
0.00074818
0.0185641
0.00281256
0.00116604
0.000966936
0.000486826
0.00573321
0.0067219
0.000365006
0.000507213
0.00675208
0.00672505
0.00672438
0.00672037
0.000925684
0.00672174
0.0167636
0.00074486
0.00398649
0.0120097
0.0113368
0.0023811
0.000449467
0.00269424
0.00131804
0.00211557
0.000763259
0.00437018
0.00710293
0.000715203
0.0067208
0.0133673
0.00672183
0.000686472
0.0039919
0.00912676
0.00211895
0.000225433
0.000354142
0.00927274
0.00111506
0.000136812
0.0133585
0.0147391
0.00887759
0.00260459
0.00458596
0.000402947
2.65151e-05
2.77546e-05
0.000749607
0.000696836
0.000399768
0.00531018
0.000117138
0.00671948
0.00673243
0.000886468
0.00900506
2.73064e-05
0.00574526
0.0125013
0.000376934
0.000823415
0.00206046
0.00285464
0.000608931
0.00036614
0.00108311
0.00130742
0.0119998
0.0021246
0.000634476
0.00121213
0.000847402
0.000362131
0.00616762
0.00356774
0.000521459
0.000262938
0.000528098
0.000278326
0.0109686
0.00105436
0.015907
0.000233126
0.00676489
0.00987678
0.000537569
0.00413173
0.000917563
0.000633716
0.00113551
5.19627e-05
0.000508751
0.00604265
0.00215394
0.00601674
0.000469547
0.000996573
0.00655875
0.000937307
0.0168176
0.000961077
0.00100635
0.000545199
0.000270982
0.00383515
0.00126966
0.000456924
0.00107823
0.00524107
0.000809934
0.0203676
0.00371676
0.000707008
0.00198037
0.00143542
7.30397e-05
0.000790852
0.00661571
0.0010208
0.000626839
6.69585e-05
0.00065044
0.000746126
0.00456449
0.00317782
0.00025899
0.00455013
0.000652919
0.000882505
0.000612433
0.0055701
0.000239349
0.0200629
0.000465623
0.00130715
0.000545931
0.00254267
0.00205386
0.00674387
0.00273171
0.000355193
0.000911047
0.000448876
0.00720392
0.0040428
0.00672245
0.00351931
0.00295351
0.00618225
0.0015247
0.000667108
0.00672707
0.0195551
0.00064765
0.000483742
0.00153171
0.0019931
0.00238707
0.00016659
0.00358331
0.00244721
0.0107107
0.0201546
0.000839196
0.000355694
0.0067248
0.00672171
0.00137598
0.000519461
0.00087176
0.00466069
0.00194636
0.000116358
0.00190505
0.00681401
0.00672158
0.00135298
0.0164939
0.000282436
0.00673391
0.00672228
0.00147892
0.00314543
0.0001571
0.0130286
0.000941848
1.5662e-05
0.00146289
0.00672214
0.0180688
0.00151926
0.000233496
0.00340854
0.014008
0.000247127
0.000156576
0.00293782
0.000805857
0.000551159
0.000944292
0.016179
0.00312403
5.06688e-05
0.000901806
0.00117457
0.00453365
0.0142791
0.000883312
0.000384072
0.000910156
0.0011142
0.000264167
0.000683916
0.00672141
0.00215238
0.0173632
0.00602728
0.00108201
0.0112148
0.00639993
0.000631713
0.000422103
0.00672427
3.41405e-05
0.00673175
0.00599437
0.000345022
0.0139013
0.00159694
0.00143225
0.000152978
0.000791579
0.00603917
0.00707348
0.00674528
0.0187076
0.000226013
0.00673127
0.00196821
0.000432094
0.00991587
0.00675056
0.000882749
0.000418019
0.00678444
0.0108702
0.000649096
0.000453401
0.00103372
0.0111233
0.0041893
0.00679114
0.000784104
0.00282434
0.00518003
0.00593365
0.0168721
0.000851794
0.000871038
0.00652611
0.000652873
0.0184972
0.012743
0.00578485
0.00378598
0.00548977
0.00252609
0.00075012
0.00160566
0.00674375
0.00102239
0.011126
0.000335404
0.0109095
0.00166766
0.00648084
0.0184308
0.00672367
0.000709205
0.00138593
0.00108272
0.000917649
0.0149252
0.00407508
0.00125946
0.0025518
0.00226186
0.000696173
0.0144147
0.00812592
0.00261401
0.00474296
0.00013912
0.0111285
0.000167621
0.000655125
0.000193461
0.00149027
0.000983743
0.00291076
0.00728679
0.000102405
0.0183341
0.000483236
0.0122005
0.00218786
0.00305469
0.00470652
0.0067219
0.000619782
0.0112604
0.000533344
0.000721908
0.00324701
1.36377e-05
0.000274879
0.00165943
0.00399322
0.00672294
0.000479103
0.000747939
0.00672163
0.0133348
0.00672285
0.000378251
0.000881689
0.000587291
0.00304192
0.00524741
0.000391034
0.00372173
0.000739618
0.0122282
0.000851876
0.00672763
0.00652351
0.000733951
0.00197276
0.000835942
0.00155702
0.000256791
0.00240502
0.00672363
0.00442437
0.0067255
0.000571413
0.00334232
0.0165055
0.000365582
0.000929114
0.000142414
0.000189395
0.0137644
0.00504869
0.00786699
0.000396554
0.000940706
0.00145658
0.000141209
0.00676913
0.000722445
0.00354098
0.0116068
0.00314614
0.00264869
7.43672e-05
0.0176558
0.00672569
0.0067255
0.000588048
0.00320061
0.00986001
0.00202073
0.000559976
0.00195315
0.00493795
0.0019618
0.00056005
0.000315689
0.00673747
0.000406
0.000171939
0.000674406
0.00134338
0.00122266
0.000284314
0.000470659
0.000379223
0.000703305
0.000732127
0.000122732
8.57667e-05
0.000645691
0.0179532
0.000818489
0.000391047
0.00882587
0.00032129
0.0066879
0.000448144
0.0043194
0.000950734
0.000696834
0.00083958
0.00672876
0.0067276
0.000516579
0.00475745
0.00133619
0.0154702
0.00672806
0.0113375
8.00907e-05
0.00244564
0.000808636
0.00112323
0.00162051
0.00349109
0.000314548
0.000342402
0.00344554
0.00216504
8.74508e-05
0.000494685
0.000367904
0.000867255
0.000506251
0.00413737
0.00672534
0.000933039
0.00529571
0.0148287
0.00672017
0.00147839
0.0187013
0.000764732
0.0130746
0.00365242
0.000427233
0.000222724
0.00038465
0.00672394
0.00330911
0.00673833
0.00584496
0.00672228
0.00069413
0.000993567
0.00015467
0.00884415
0.00126522
0.0160994
0.00672634
0.00426493
0.000628813
0.00672605
0.00672412
0.0172607
0.00121791
0.0122597
0.0113189
0.000714494
0.000560235
0.00678137
0.0196252
0.000886829
0.00163503
0.00248019
0.00672387
0.00143007
0.00501806
0.000819162
0.00504168
0.000949591
0.000849739
0.000345409
0.0121938
0.000337223
0.000613103
0.0135484
0.00673699
0.0138805
0.006724
0.0021254
0.000611363
0.000482814
0.000374625
0.000539493
0.00075265
0.00672449
0.00672633
0.000685544
0.00214487
0.00672486
0.00136022
0.000256572
0.00672
0.000178068
0.000103025
0.0117818
0.000569375
0.00645036
0.000208471
0.00672385
0.000475955
0.00672832
0.00120587
0.0168915
0.0097482
0.00799481
0.0132653
0.00247844
0.00266753
0.000141093
0.00130245
0.00579553
0.000691512
0.00048706
0.00697075
0.000478535
0.00043787
0.00441087
0.00674668
0.000112975
0.000525143
0.00173533
0.00672525
0.000364632
0.00115092
0.0158018
0.00195283
0.00672294
0.00344134
0.00144998
0.000897945
0.00672577
0.0142839
0.00674636
0.00412077
0.0067254
0.000262611
0.000840984
0.00012251
0.000876076
0.0036696
0.00148327
0.00672027
0.000884721
0.00140996
0.0082103
0.0025454
0.0161652
0.0186394
0.000897895
0.0067197
0.00245691
0.0123559
0.00116165
0.000516613
0.00348153
0.0038812
0.00409111
0.000669985
0.0067224
0.00672021
0.0111865
0.000948552
0.00672216
0.00113053
0.0168394
6.78737e-05
0.0191365
0.00674518
0.0102284
0.00672323
0.00671996
0.00205115
0.00672372
0.00672504
0.0178711
0.0185788
0.00295533
0.00672279
0.000813031
0.00621528
0.00310558
0.000499591
0.00658334
0.013433
0.00167034
0.000388245
0.00672195
0.00082318
9.46045e-05
0.00516442
0.00672422
0.000311461
0.00355442
0.000606483
0.000516336
0.000618393
0.00672446
0.000799053
0.000494987
0.00264401
0.000946642
0.00957164
0.000499615
0.0067248
0.00289981
0.00306309
0.00778254
0.00034372
0.00498863
0.000971548
5.02786e-05
0.00246188
0.00860405
0.000885829
0.00671974
0.01892
0.00137344
0.00671973
0.00278694
0.00153339
0.0137214
0.000671843
0.0067323
0.000771264
0.00466863
0.00145728
0.000510412
0.00101484
0.000504809
0.0162123
0.0067218
0.00042834
0.000698568
0.000866795
2.82718e-05
0.00157336
0.000686899
0.000654711
0.0178359
0.00356678
0.00736144
0.00101567
0.00915834
0.00257222
0.00505621
0.000683744
0.00366566
0.00226369
0.0067257
0.00101735
0.00672368
0.0167177
0.000602212
0.000435962
0.000430683
0.000968035
0.00674292
0.00170861
0.000904175
0.00209303
0.00080235
0.0153308
0.000618029
0.00104087
0.000395149
0.0180632
0.00135075
0.00943739
0.00673515
0.000455054
0.00133569
0.00393028
0.000409122
0.00672227
0.00673216
0.000134119
0.00350696
0.000282018
0.00201507
0.000523802
0.00539387
0.000506923
0.000882816
0.00336592
0.0125618
0.000464681
0.00672488
0.000793298
0.00150077
0.00959642
0.00112572
0.000146862
0.0104527
0.00149475
0.000319411
0.00290832
0.0150345
0.00924162
0.00603789
0.000616215
0.00672865
0.00600698
0.000664593
0.00394442
0.00297674
0.000646899
0.00672405
0.00048933
0.000286663
0.00509658
0.0151358
0.00343276
0.000385294
0.00183491
0.0142959
0.000721426
0.00672086
0.00445137
0.000633558
0.00569156
0.0066352
0.00111214
0.000983864
0.0175723
0.00615577
0.000843874
0.0180888
0.000967609
0.00496056
6.61787e-05
0.00672661
0.000254784
0.00536376
0.00672062
0.0011169
0.00215946
0.0187855
0.00520077
0.000178411
0.003825
0.00738346
0.000390982
0.00356776
0.00228768
0.000572126
0.00567437
0.00679641
0.000616662
0.000640966
0.000220088
0.00674979
0.000566607
0.000941982
0.000483002
0.000480161
0.00678584
0.0067424
0.00211463
0.000116269
0.00136596
0.0182376
0.0012436
0.00672317
0.00538222
0.00659178
0.000997267
0.000393599
0.0115333
0.0165681
0.000345365
0.00672221
0.000108499
0.00315053
0.00804193
0.00661075
0.000328461
0.00481223
0.0151484
0.00655971
0.00069759
0.00100232
0.0123458
0.00102178
0.000329725
0.000122304
0.000185456
0.00209985
4.97965e-05
0.00465272
0.017099
0.00012318
0.00673512
0.000880515
0.000307836
0.00045851
0.000963579
0.00672262
0.00122482
0.00101025
0.00152399
3.24779e-05
0.00672336
0.0128409
0.0052111
0.00433859
0.00104656
0.000991419
0.00672189
0.0117862
0.00148496
0.0129495
0.0102338
0.00672209
0.00104089
0.000958975
0.00195006
0.000154038
0.000949809
0.00672531
0.000609148
0.000562278
0.01715
0.000831085
0.0031263
0.00107412
0.00142012
0.000123126
0.000555295
0.000629041
0.00553558
0.0013792
0.0101501
0.000480225
0.00773665
0.0182397
0.017677
0.00828324
0.00560235
0.00673257
0.00379604
0.000183574
0.000837357
0.000698081
0.00206915
0.00361784
0.00672796
0.00627073
0.000403809
0.0067394
0.00130489
0.0010889
0.0135789
0.0012325
0.006727
0.00672263
0.00401941
0.00672301
0.000275831
0.000160795
0.000352266
0.017746
0.00672848
0.00552856
0.0181226
0.0194285
0.00412074
0.0104465
0.000142702
0.00990865
0.0067277
0.000215336
0.00145654
0.00672463
0.00205443
0.00516096
0.00210708
0.000519131
0.000140269
0.00316615
0.00422748
0.000534177
0.000459371
0.00672588
0.0118085
0.00386864
0.000246941
0.00672409
0.00307584
0.00116823
8.12521e-05
0.00240782
0.00536922
0.00844599
0.000418043
0.0200985
0.00422938
0.00368951
0.00614799
0.00672479
7.44652e-05
0.00201953
0.000158391
0.00218336
0.00432233
0.00672066
0.00547295
0.00217431
0.000423524
0.000574944
0.00279377
0.00672524
9.14991e-05
0.00676912
0.00670291
0.00672441
0.00091063
0.0010437
0.00595494
0.00666801
0.00672309
0.000468073
0.00672496
0.00132525
0.000277901
0.0107366
0.000737661
0.00672588
0.000414712
8.49273e-05
0.000485995
0.0024648
0.000293863
0.000972166
0.000603412
0.000552517
0.00113746
0.00552147
0.0133563
0.00199185
0.00118147
0.00672098
0.00056164
0.00672988
0.00080624
0.00672573
0.000285891
0.000179046
0.00673824
0.00264414
0.00120385
0.00672337
0.000351332
0.00671924
0.000167099
0.0106959
0.000844617
0.0126221
0.00672071
0.00672575
0.000148849
0.00672474
0.006725
0.00133871
0.00104145
0.000603236
0.000300864
0.00271059
0.000572232
0.00587668
0.00672202
0.00672446
0.00672474
0.000316709
0.0056325
0.00101657
0.000526236
0.00672938
0.00672085
0.0176297
0.00672509
0.000629985
0.00209552
0.019502
0.00061251
0.000132218
0.000124279
0.000592502
4.30582e-05
0.00261722
0.00123793
0.00092246
0.00591592
0.00575002
0.00100304
0.00102954
0.00424027
0.000434948
0.00672357
0.00158724
0.000425428
0.002726
6.00973e-05
0.00202914
0.000135032
0.00608594
0.0039661
0.00672344
0.00144734
5.09734e-05
0.00313296
0.000730566
0.000223252
0.0174242
0.00132512
0.000780129
0.0015858
0.000292499
0.00672613
0.00029768
0.00783875
0.00234889
0.0067668
0.0066673
0.000708623
5.798e-05
0.0202408
0.000487732
0.00167027
0.00672355
0.0026831
0.00632809
0.00383017
0.0154925
0.000588965
0.00430136
0.00758582
0.00672401
0.00106455
0.00047544
0.00235133
0.000799756
0.00672258
0.0141268
0.00753605
0.0067847
0.000642647
0.000764056
0.000242332
0.000740438
0.000676042
0.000459173
0.00105318
0.000487976
0.000595149
0.00672379
0.000960596
8.08657e-05
0.0118503
0.00672234
0.00827634
0.000737537
0.00068119
0.0067259
0.00711774
0.00139825
0.000977113
0.0059635
0.000549781
0.000631991
0.000145847
0.00672395
0.0016346
0.00039939
0.000284604
0.000556328
0.00672327
0.00138049
0.000974954
0.00073016
0.0067234
0.00037497
0.000246729
0.000356069
0.0177176
0.00102186
0.00273241
0.000799632
0.00517087
0.000384523
0.00672485
0.000966472
0.00113954
0.000899805
0.000782864
0.000775863
0.000362289
0.000403315
0.000900959
0.00101291
0.00673859
8.96284e-05
0.0014837
0.000436329
0.00648076
0.000917661
0.000519032
0.00672896
0.00647679
0.000375846
0.0028943
0.0015159
0.000987393
0.0042825
0.000757993
0.0011009
0.0151339
0.00256506
0.000288361
0.000627077
0.000363028
0.00672986
3.49495e-05
0.00679827
0.000476942
0.000290651
0.00927444
0.000731238
0.000267066
0.00672361
0.00303086
0.00672967
0.000484327
0.000731649
0.00808182
0.0184421
0.00195604
0.00672
0.000778043
0.000150805
0.00672521
0.00810275
0.00672807
0.00104712
0.00146324
0.00210581
0.000854554
0.000969557
0.00427841
0.000556552
0.000475677
0.000817172
0.000576281
0.00672601
0.00381328
0.00874301
0.00671997
0.00150228
0.000786449
0.000383401
0.0172784
0.00672006
0.00140367
0.000479331
0.00901358
0.00672346
0.00672365
0.000820168
0.00534991
0.0067197
0.00041362
0.000452125
0.00660341
0.000716764
0.000825878
0.000403183
0.00672734
5.25687e-05
0.00673069
0.00357008
0.000829841
0.00673119
0.00148312
0.000738487
0.00672288
0.0032378
0.000500376
0.0113771
0.0031166
0.00420409
0.00672394
0.00673263
0.000647566
0.00672188
0.00528274
0.0112385
0.00672594
0.000829693
0.000359494
0.0097921
0.00540947
0.00600564
0.000777319
0.000434427
0.00672135
0.00376265
0.00672254
0.00484009
0.00672416
0.000253523
0.000383981
0.00676723
0.00677284
0.000942191
0.000415015
0.00109145
0.000167995
0.000597542
0.00119748
0.0168017
0.000307309
0.00134033
0.000818733
0.000265901
0.000741966
0.0010084
0.0010143
0.00885424
0.0160143
0.00341769
0.00156336
0.00388055
0.000723688
0.000236913
0.0066009
0.00325121
0.00010309
0.00672524
0.00230275
0.00672216
0.00673899
0.00213411
0.00359604
0.00342297
0.00671987
0.000250076
0.00672152
0.000170362
0.00208325
0.000383096
0.000202474
0.00342428
0.0200431
0.00077032
0.00672485
0.000810354
0.0062041
0.00040501
0.00394854
0.0112857
0.00108289
0.000800032
5.76561e-05
0.0176544
0.000592905
0.000243075
0.00513735
0.000384925
0.00348358
0.0020993
0.000120058
0.000727841
0.00315782
0.00675486
0.00536605
0.00271142
7.4553e-05
0.00585334
0.000637977
0.00592295
0.000906294
0.000951786
0.000860854
0.00843056
0.000802146
0.00672253
0.00037575
0.000653385
0.00144576
0.00672794
0.00672266
0.0128427
0.00672554
0.000635078
0.0194805
0.000672102
0.00458128
0.000393068
0.000976058
0.0172237
0.00672882
0.00496443
0.00672538
0.00054234
0.00230098
0.00330839
0.000576074
0.0183901
0.00534842
0.006725
0.0143646
0.00379823
0.00286904
0.00261297
0.00807945
0.00604174
0.000871529
0.00672564
0.00931073
0.0202245
0.000474098
0.000120757
0.000456717
0.00436434
0.00672434
0.0115554
0.00672236
0.000496647
0.0067805
0.000971122
0.00672384
0.0164719
0.00672678
0.000776861
0.00674986
0.000136414
0.000286895
0.00676516
0.000328386
0.00885173
0.000550363
0.0107544
0.00632712
0.000260559
0.000951563
0.000917265
0.000623856
0.0100526
0.00423562
0.00102344
0.000424773
0.00364934
0.00803489
0.00486605
0.00057456
0.000480254
0.000801891
0.000597433
0.019066
0.00641626
0.00676267
0.000718586
0.00736006
0.000760806
0.000991005
0.00906579
0.00672875
0.00719134
0.0105159
0.0060523
0.00672412
0.00525584
0.00633161
0.000196587
6.59126e-05
0.0131005
0.00043972
0.000888531
0.00106943
0.000583622
0.00416594
0.000385392
0.000479071
0.00673774
0.00638619
0.00672394
0.000600756
0.000801308
0.000526009
7.97834e-05
0.000311363
0.0019142
0.000823779
0.000509688
0.0120571
0.0160094
0.000492007
0.00171536
0.000598442
0.00066056
0.000191959
0.00672425
0.000736191
0.000136468
0.00100002
0.00428526
0.000744858
0.000972492
0.00038573
0.0123003
0.000428124
0.00105857
0.000223277
0.0068057
0.00241369
0.00153099
0.0058499
0.000476014
0.00125701
0.00139807
0.00672194
0.000264916
0.00161591
0.0132327
0.000772447
0.00158325
0.00672455
8.72025e-05
0.000616484
0.00540107
0.0037712
0.00675111
0.00672354
0.000755763
0.00672411
0.00147337
0.00147325
0.00190524
0.000573424
0.00590038
0.000910754
0.00235815
0.000766522
0.00902152
0.0067257
0.0181903
0.00159534
0.00673168
3.87887e-05
0.000277809
0.00035049
0.00134066
0.000487666
0.00118403
8.34127e-05
0.00105748
0.00171643
0.00672421
0.00323967
0.00162892
0.012359
0.00150974
0.00524071
0.0067225
0.000259035
0.00576507
0.000764669
0.00061503
8.98371e-05
0.00672864
0.00253715
0.000237952
0.010952
0.00672853
0.000650808
2.61201e-05
0.000221007
0.00021794
0.00148263
0.00215018
0.000331171
0.00901005
0.0114047
0.00083168
0.00123205
0.00672465
0.00524201
0.000371852
0.00672418
0.00263512
0.000726007
0.00672579
7.01115e-05
0.00576887
0.0169984
0.0179386
0.0163564
0.0140755
0.00960148
0.0026086
0.00672296
0.010828
0.00676011
0.00639751
0.00673363
0.000236682
0.0197725
0.00362689
0.000479815
0.00399211
0.00146458
0.000361591
0.00474081
0.00672041
0.00747517
0.0171835
0.00672384
0.00672386
0.00968117
0.000502634
0.00245183
0.00672647
0.017347
0.00886927
0.00390158
0.000487407
0.00672553
0.012069
7.4146e-05
0.00271966
0.00226103
0.00256648
0.0155045
0.00636603
0.00403131
0.00672531
0.00672607
0.0196816
0.00535112
0.00016619
0.000345884
0.00241962
0.00186608
0.000511747
0.00261988
0.00075093
0.0104214
0.0103321
0.00672753
0.00143596
0.00133625
0.000434199
0.0176678
0.0067356
0.00558006
0.000470884
0.00078344
0.00131848
0.00671948
0.000720653
0.000703691
0.00336342
0.00672418
0.000582228
0.0023794
0.000394952
0.00160755
0.0180435
0.0108495
0.000165893
0.000494957
0.00446379
0.00101955
0.000480196
5.37381e-05
0.0187892
0.0107394
0.00672282
0.00903519
8.10044e-05
0.0140316
0.00173529
0.000700545
0.000806365
0.00316851
0.0164665
0.00672213
0.000943656
0.00921321
0.0172882
0.000353083
0.0190933
0.00062411
0.000712225
0.00676619
0.0168489
0.000650207
0.00480484
0.00676716
0.0181638
0.00673812
0.00672356
0.000996392
0.000378788
0.000377369
0.00358546
0.011394
0.000835984
0.00566081
0.000610922
0.00944783
0.000136438
0.00428784
0.0103759
0.00108306
0.00107678
0.00112221
0.00672706
0.000719656
0.00672469
0.00029625
0.00017589
0.00154995
0.00673092
0.00041929
0.000825694
0.00676731
0.0166515
0.00334146
0.000602222
0.00678007
0.00656278
0.00672299
0.000356365
0.00128345
0.000198879
0.00147302
0.0103891
0.000224815
0.0193337
0.000444167
0.000589209
0.00673912
0.0191329
0.000176624
0.000825903
0.000106515
0.00672507
0.00479186
0.000611592
0.000516331
0.000392927
0.0113369
0.0116135
0.000242858
0.00622115
0.000522184
0.000320559
0.00672267
0.00320555
0.00673714
0.000353125
0.00058078
0.000327697
0.0117687
0.00673895
0.00672293
0.000868847
0.000601969
0.00121349
0.00674495
0.0144068
0.00140919
0.000803456
0.00226051
0.00407982
0.000460957
0.0181401
0.000162877
0.00093499
0.000481145
0.00672279
0.00129894
0.00158523
0.000682939
0.00299541
0.00671896
0.00354305
0.00806221
0.0129865
0.00514229
0.0007146
0.00539775
0.00345167
0.006721
0.00296223
0.0195301
7.02758e-05
0.000565163
0.00158814
0.00146839
0.0169077
0.000351727
0.000671461
0.0016342
0.000903647
0.0067398
0.000211481
0.000524846
0.00523904
0.010203
0.0106082
0.0160172
0.0107929
0.00654498
0.00648551
0.0115506
0.00103254
0.0055992
0.0148376
0.00644582
0.00405577
0.00281676
0.00084506
0.00461371
0.00541069
0.00405032
0.0174648
0.000614373
0.00672435
0.00385908
0.000528889
0.000808638
0.00844057
0.000332641
0.00209822
0.00671898
0.0177432
0.00375915
0.000385695
0.00111589
0.000806974
0.0024188
0.00673081
0.000793153
0.000794478
0.00105476
0.000853079
0.00117787
0.00083002
0.000258801
0.00924657
0.000373117
0.000826943
0.0105051
0.000321886
0.00672459
2.73214e-05
5.24886e-05
0.00736304
0.000760306
0.0030137
0.00105952
0.000872988
0.000450889
0.00672785
0.000255933
0.00105071
0.000690651
0.00021589
0.00672475
0.00172365
0.0111579
0.0135331
0.0152175
0.001558
0.000414959
0.00673413
0.00547073
0.000980299
0.00676135
0.00999054
0.00589553
0.00672597
0.00674056
0.0101744
0.000340315
0.00169467
0.000588135
0.000778503
0.000335094
0.000968029
0.000234787
0.000826633
0.000737792
0.00420908
0.00126871
0.00731915
0.000680595
0.0146399
0.000938846
0.00671894
0.00673697
0.000483619
0.000496035
0.00672392
0.000295554
0.000927752
0.000651032
0.0115463
0.00280367
0.0165978
0.00672597
0.000236173
0.000498497
0.000612842
0.00672987
0.000613574
0.00108563
0.00852064
7.16724e-05
0.000529033
0.00672389
0.0129493
0.00042618
0.00798881
0.00606703
0.000261715
0.000983339
0.00065978
0.0170549
0.00100672
0.014795
0.000718343
0.00375592
0.000649368
0.00503971
0.00619967
0.000815695
0.000793551
0.00455714
0.0137277
0.00427275
0.00428555
0.00888834
0.000720573
0.00646275
0.00025393
0.00672591
0.00077319
0.000457268
0.00016661
0.0105171
0.000608874
0.00133515
0.00119728
0.00672531
0.0044635
0.000420028
0.00139259
0.000187116
0.00423987
0.00333549
0.000352456
0.00154746
0.00310091
0.00672195
0.000664047
0.0018683
0.000823158
0.000806177
0.000551956
0.000736198
0.00312306
0.000274485
0.000966663
0.000830714
8.53126e-05
0.00155562
0.000191434
0.000161944
0.00544487
0.000582389
0.00506472
0.0102239
0.00331816
0.000234417
0.00826185
0.00469849
0.00133378
5.39917e-05
0.00902626
0.000460931
0.0088699
0.000756164
0.00415729
0.000505937
0.00673544
0.00126176
0.000748024
0.000701044
4.72035e-05
0.000320781
0.00251192
0.009841
0.0138424
0.00236478
0.0128962
0.00653225
0.00244641
0.0119717
0.00672244
0.00672121
0.0102365
0.00273033
0.00672359
0.00209272
0.019051
0.000538763
0.00143248
0.0100569
0.00672205
0.0134297
0.0105615
0.00672382
0.00713737
0.000277013
0.00830005
0.0112357
0.0114677
0.00992551
0.00673116
0.00101669
0.000744224
0.000597772
0.00672414
0.000353444
0.00672848
0.0122801
0.00155755
0.000162684
0.000361916
0.0128889
0.00129854
0.000139888
8.9497e-05
0.00259405
0.000438885
0.00155063
0.00673563
0.00604834
0.00038521
0.00675683
0.00807292
0.00524842
0.00801581
0.00261661
0.0184314
0.00168568
0.00615316
0.000102097
0.000431469
0.000275781
0.00893133
0.0100344
0.000180046
0.00134209
0.000898447
0.00107986
0.000919247
0.000471421
0.000847884
0.00672443
5.57986e-05
0.000653971
0.000551493
0.00908295
0.000823659
0.000347511
0.00027919
0.000742781
0.000826413
0.00612164
0.000966401
0.00673903
0.000437619
0.0011166
0.00820661
0.00672459
0.000774948
0.00514907
0.0019747
0.000685949
0.00119628
0.000799113
0.0156427
0.000648399
0.000924549
0.00048937
0.00672312
0.0120727
0.00672245
0.00199928
0.000380711
0.0120667
0.000613491
3.14759e-05
9.62605e-05
0.00105852
0.00279917
6.06147e-05
0.00075616
0.0122089
0.000543322
9.36575e-05
0.000474493
0.0011106
0.00101349
0.000204775
0.000697853
8.7322e-05
0.000637152
0.000348677
0.00130234
0.00401034
0.000263646
0.00397562
0.000954534
0.00673791
0.000384946
0.000999071
0.000616689
0.0108248
0.00110731
0.000622186
0.00672331
0.00250419
0.00672397
0.00672416
0.00158028
0.00672659
0.000458972
0.00276663
0.000617752
0.000781162
0.00166341
0.00318668
0.000385401
0.00338336
0.0168701
0.0156673
0.00580368
0.000359637
0.000619739
0.00137694
0.00672363
0.0004123
7.63814e-05
0.000642714
0.0101579
0.000607146
0.00954656
0.000354759
0.00672433
0.00672342
0.0102319
0.00459326
0.00108679
8.87609e-05
0.000786661
0.00213554
0.0188304
0.00672372
0.000953324
0.00446976
0.00143504
5.64194e-05
0.00040463
0.00253206
0.00110062
0.00022891
0.000740278
0.000611676
7.60354e-05
7.65922e-05
0.000347502
0.000392378
0.00174079
0.00166674
0.000627893
0.0115853
0.012038
0.0142848
0.00109941
0.00811706
0.000425921
0.00214204
0.00672362
0.000653362
0.00672285
0.00114626
0.00419274
0.00619472
0.0060126
0.000595666
0.00293553
0.000774045
0.000356424
0.00276861
0.00496946
0.000687059
0.0149917
0.000333402
0.00318686
0.0141073
9.4998e-05
0.00389375
0.000200331
0.00672541
0.00024336
0.000907288
0.000104327
0.00835487
0.000295673
0.0168293
0.00673181
0.0083432
0.00277626
0.00119834
0.0017634
0.000699433
0.0067227
0.00015908
0.012776
8.69292e-05
0.000774547
0.000554909
8.62336e-05
0.004466
0.00677216
0.00211886
0.0115471
0.00151713
0.0181316
0.00706305
0.000300466
0.00672452
0.000405529
0.000363772
0.000583116
0.00192306
0.00686679
0.00436383
0.00673208
0.00500117
7.50081e-05
0.00323198
0.00398822
0.0137563
0.0063835
0.00109083
8.20255e-05
0.00602139
0.0188101
0.00154548
0.0180549
0.00399653
0.0100477
0.00173751
8.64875e-05
0.00166435
0.00064913
0.00673848
0.00152127
0.0172416
0.00118428
0.000442526
0.00100755
0.00092493
0.000245317
0.000561855
0.0037746
0.000211519
0.000875645
0.00138874
0.000394287
0.00533857
0.00675345
0.00672373
0.00130294
0.00259193
0.000710098
0.0176169
0.000489994
6.55065e-05
0.00127731
0.000657421
0.00119356
0.0137953
0.00901813
0.00161274
0.00189483
0.00131832
0.0102649
0.0003786
0.000876471
0.0166601
0.0140169
0.00186091
0.000391512
0.0134431
0.000192201
9.40122e-05
0.000439473
0.00165079
0.00675252
0.000173672
0.00672619
0.0034781
7.66962e-05
9.4139e-05
0.00672655
0.000527927
0.000180815
0.000950102
0.00672631
0.00672189
7.24327e-05
0.00209811
0.00316012
0.000932183
0.011535
0.00146523
0.000308905
0.00672495
5.8591e-05
8.39462e-05
0.00240398
0.000692982
0.00672575
0.0187558
0.0196327
0.000486964
6.38038e-05
0.000465319
0.000582726
0.0067237
0.000846128
0.00673502
0.00239721
0.0067249
0.0198557
0.00674856
0.000877708
0.000140169
0.000663236
0.00104914
0.00673148
0.0122268
0.00101434
0.00203195
0.00731483
0.000939075
0.000767435
0.00829652
0.000778888
0.00069974
0.00209388
6.89876e-05
0.000228393
0.000359163
0.0164209
0.00672742
0.00306414
0.000228042
0.019196
0.00672701
0.000603709
0.0127447
0.00672594
0.00429524
0.000596054
0.00359253
0.0067215
0.0029547
0.000618367
5.65239e-05
0.001518
0.00071178
0.00611537
0.00298199
0.0103909
0.0178433
0.00375311
0.00072362
0.00392704
0.00162013
0.00672263
0.000379583
4.08645e-05
0.0195926
0.013281
0.000253525
0.000785728
0.0067197
0.00671963
0.00427619
0.00166484
0.000715654
0.000507961
0.000964056
8.15958e-05
0.00499457
0.001756
0.00673509
0.00673282
0.0063948
0.00169276
9.40508e-05
0.000483246
0.00299116
0.00055187
0.000168471
0.00722287
0.00777194