/*--------------------------------*- C++ -*----------------------------------*\
| =========                 |                                                 |
| \\      /  F ield         | OpenFOAM: The Open Source CFD Toolbox           |
|  \\    /   O peration     | Version:  v2012                                 |
|   \\  /    A nd           | Website:  www.openfoam.com                      |
|    \\/     M anipulation  |                                                 |
\*---------------------------------------------------------------------------*/
FoamFile
{
    version     2.0;
    format      ascii;
    class       pointVectorField;
    location    "650";
    object      pointDisplacement;
}
// * * * * * * * * * * * * * * * * * * * * * * * * * * * * * * * * * * * * * //

dimensions      [0 1 0 0 0 0 0];


internalField   nonuniform List<vector> 
14246
(
(0 0 0)
(-0 -0.0566023 -0)
(0 0 0)
(-0 -0.0566023 -0)
(0 0 0)
(0 0 0)
(0 0 0)
(0 0 0)
(0 0 0)
(0 0 0)
(0 0 0)
(0 0 0)
(0 0 0)
(0 0 0)
(0 0 0)
(0 0 0)
(0 0 0)
(0 0 0)
(0 0 0)
(0 0 0)
(0 0 0)
(0 0 0)
(0 0 0)
(0 0 0)
(0 0 0)
(0 0 0)
(0 0 0)
(0 0 0)
(0 0 0)
(0 0 0)
(0 0 0)
(0 0 0)
(0 0 0)
(0 0 0)
(0 0 0)
(0 0 0)
(0 0 0)
(0 0 0)
(0 0 0)
(0 0 0)
(0 0 0)
(0 0 0)
(0 0 0)
(0 0 0)
(0 0 0)
(0 0 0)
(0 0 0)
(0 0 0)
(0 0 0)
(0 0 0)
(0 0 0)
(0 0 0)
(0 0 0)
(0 0 0)
(0 0 0)
(0 0 0)
(0 0 0)
(0 0 0)
(0 0 0)
(0 0 0)
(0 0 0)
(0 0 0)
(0 0 0)
(0 0 0)
(0 0 0)
(0 0 0)
(0 0 0)
(0 0 0)
(0 0 0)
(0 0 0)
(0 0 0)
(0 0 0)
(0 0 0)
(0 0 0)
(0 0 0)
(-0 -0.0566023 -0)
(-0 -0.0566023 -0)
(-0 -0.0566023 -0)
(-0 -0.0566023 -0)
(-0 -0.0566023 -0)
(-0 -0.0566023 -0)
(-0 -0.0566023 -0)
(-0 -0.0566023 -0)
(-0 -0.0566023 -0)
(-0 -0.0566023 -0)
(-0 -0.0566023 -0)
(-0 -0.0566023 -0)
(-0 -0.0566023 -0)
(-0 -0.0566023 -0)
(-0 -0.0566023 -0)
(-0 -0.0566023 -0)
(-0 -0.0566023 -0)
(-0 -0.0566023 -0)
(-0 -0.0566023 -0)
(-0 -0.0566023 -0)
(-0 -0.0566023 -0)
(-0 -0.0566023 -0)
(-0 -0.0566023 -0)
(-0 -0.0566023 -0)
(-0 -0.0566023 -0)
(-0 -0.0566023 -0)
(-0 -0.0566023 -0)
(-0 -0.0566023 -0)
(-0 -0.0566023 -0)
(-0 -0.0566023 -0)
(-0 -0.0566023 -0)
(-0 -0.0566023 -0)
(-0 -0.0566023 -0)
(-0 -0.0566023 -0)
(-0 -0.0566023 -0)
(-0 -0.0566023 -0)
(-0 -0.0566023 -0)
(-0 -0.0566023 -0)
(-0 -0.0566023 -0)
(-0 -0.0566023 -0)
(-0 -0.0566023 -0)
(-0 -0.0566023 -0)
(-0 -0.0566023 -0)
(-0 -0.0566023 -0)
(-0 -0.0566023 -0)
(-0 -0.0566023 -0)
(-0 -0.0566023 -0)
(-0 -0.0566023 -0)
(-0 -0.0566023 -0)
(-0 -0.0566023 -0)
(-0 -0.0566023 -0)
(-0 -0.0566023 -0)
(-0 -0.0566023 -0)
(-0 -0.0566023 -0)
(-0 -0.0566023 -0)
(-0 -0.0566023 -0)
(-0 -0.0566023 -0)
(-0 -0.0566023 -0)
(-0 -0.0566023 -0)
(-0 -0.0566023 -0)
(-0 -0.0566023 -0)
(-0 -0.0566023 -0)
(-0 -0.0566023 -0)
(-0 -0.0566023 -0)
(-0 -0.0566023 -0)
(-0 -0.0566023 -0)
(-0 -0.0566023 -0)
(-0 -0.0566023 -0)
(-0 -0.0566023 -0)
(-0 -0.0566023 -0)
(-0 -0.0566023 -0)
(-0 -0.0566023 -0)
(-0 -0.0566023 -0)
(-0 -0.0566023 -0)
(-0 -0.0566023 -0)
(-0 -0.0566023 -0)
(-0 -0.0566023 -0)
(-0 -0.0566023 -0)
(-0 -0.0566023 -0)
(-0 -0.0566023 -0)
(-0 -0.0566023 -0)
(-0 -0.0566023 -0)
(-0 -0.0566023 -0)
(-0 -0.0566023 -0)
(-0 -0.0566023 -0)
(-0 -0.0566023 -0)
(-0 -0.0566023 -0)
(-0 -0.0566023 -0)
(-0 -0.0566023 -0)
(-0 -0.0566023 -0)
(-0 -0.0566023 -0)
(-0 -0.0566023 -0)
(-0 -0.0566023 -0)
(-0 -0.0566023 -0)
(-0 -0.0566023 -0)
(-0 -0.0566023 -0)
(-0 -0.0566023 -0)
(-0 -0.0566023 -0)
(-0 -0.0566023 -0)
(-0 -0.0566023 -0)
(-0 -0.0566023 -0)
(-0 -0.0566023 -0)
(-0 -0.0566023 -0)
(-0 -0.0566023 -0)
(-0 -0.0566023 -0)
(-0 -0.0566023 -0)
(-0 -0.0566023 -0)
(-0 -0.0566023 -0)
(-0 -0.0566023 -0)
(-0 -0.0566023 -0)
(-0 -0.0566023 -0)
(-0 -0.0566023 -0)
(-0 -0.0566023 -0)
(-0 -0.0566023 -0)
(-0 -0.0566023 -0)
(-0 -0.0566023 -0)
(-0 -0.0566023 -0)
(-0 -0.0566023 -0)
(-0 -0.0566023 -0)
(-0 -0.0566023 -0)
(-0 -0.0566023 -0)
(-0 -0.0566023 -0)
(-0 -0.0566023 -0)
(-0 -0.0566023 -0)
(-0 -0.0566023 -0)
(-0 -0.0566023 -0)
(-0 -0.0566023 -0)
(-0 -0.0566023 -0)
(-0 -0.0566023 -0)
(-0 -0.0566023 -0)
(-0 -0.0566023 -0)
(-0 -0.0566023 -0)
(-0 -0.0566023 -0)
(-0 -0.0566023 -0)
(-0 -0.0566023 -0)
(0 0 0)
(0 0 0)
(0 0 0)
(0 0 0)
(0 0 0)
(0 0 0)
(0 0 0)
(0 0 0)
(0 0 0)
(0 0 0)
(0 0 0)
(0 0 0)
(0 0 0)
(0 0 0)
(0 0 0)
(0 0 0)
(0 0 0)
(0 0 0)
(0 0 0)
(0 0 0)
(0 0 0)
(0 0 0)
(0 0 0)
(0 0 0)
(0 0 0)
(0 0 0)
(0 0 0)
(0 0 0)
(0 0 0)
(0 0 0)
(0 0 0)
(0 0 0)
(0 0 0)
(0 0 0)
(0 0 0)
(0 0 0)
(0 0 0)
(0 0 0)
(0 0 0)
(0 0 0)
(0 0 0)
(0 0 0)
(0 0 0)
(0 0 0)
(0 0 0)
(0 0 0)
(0 0 0)
(0 0 0)
(0 0 0)
(0 0 0)
(0 0 0)
(0 0 0)
(0 0 0)
(0 0 0)
(0 0 0)
(0 0 0)
(0 0 0)
(0 0 0)
(0 0 0)
(0 0 0)
(0 0 0)
(0 0 0)
(0 0 0)
(0 0 0)
(0 0 0)
(0 0 0)
(0 0 0)
(0 0 0)
(0 0 0)
(0 0 0)
(0 0 0)
(-0 -0.0566023 -0)
(-0 -0.0566023 -0)
(-0 -0.0566023 -0)
(-0 -0.0566023 -0)
(-0 -0.0566023 -0)
(-0 -0.0566023 -0)
(-0 -0.0566023 -0)
(-0 -0.0566023 -0)
(-0 -0.0566023 -0)
(-0 -0.0566023 -0)
(-0 -0.0566023 -0)
(-0 -0.0566023 -0)
(-0 -0.0566023 -0)
(-0 -0.0566023 -0)
(-0 -0.0566023 -0)
(-0 -0.0566023 -0)
(-0 -0.0566023 -0)
(-0 -0.0566023 -0)
(-0 -0.0566023 -0)
(-0 -0.0566023 -0)
(-0 -0.0566023 -0)
(-0 -0.0566023 -0)
(-0 -0.0566023 -0)
(-0 -0.0566023 -0)
(-0 -0.0566023 -0)
(-0 -0.0566023 -0)
(-0 -0.0566023 -0)
(-0 -0.0566023 -0)
(-0 -0.0566023 -0)
(-0 -0.0566023 -0)
(-0 -0.0566023 -0)
(-0 -0.0566023 -0)
(-0 -0.0566023 -0)
(-0 -0.0566023 -0)
(-0 -0.0566023 -0)
(-0 -0.0566023 -0)
(-0 -0.0566023 -0)
(-0 -0.0566023 -0)
(-0 -0.0566023 -0)
(-0 -0.0566023 -0)
(-0 -0.0566023 -0)
(-0 -0.0566023 -0)
(-0 -0.0566023 -0)
(-0 -0.0566023 -0)
(-0 -0.0566023 -0)
(-0 -0.0566023 -0)
(-0 -0.0566023 -0)
(-0 -0.0566023 -0)
(-0 -0.0566023 -0)
(-0 -0.0566023 -0)
(-0 -0.0566023 -0)
(-0 -0.0566023 -0)
(-0 -0.0566023 -0)
(-0 -0.0566023 -0)
(-0 -0.0566023 -0)
(-0 -0.0566023 -0)
(-0 -0.0566023 -0)
(-0 -0.0566023 -0)
(-0 -0.0566023 -0)
(-0 -0.0566023 -0)
(-0 -0.0566023 -0)
(-0 -0.0566023 -0)
(-0 -0.0566023 -0)
(-0 -0.0566023 -0)
(-0 -0.0566023 -0)
(-0 -0.0566023 -0)
(-0 -0.0566023 -0)
(-0 -0.0566023 -0)
(-0 -0.0566023 -0)
(-0 -0.0566023 -0)
(-0 -0.0566023 -0)
(-0 -0.0566023 -0)
(-0 -0.0566023 -0)
(-0 -0.0566023 -0)
(-0 -0.0566023 -0)
(-0 -0.0566023 -0)
(-0 -0.0566023 -0)
(-0 -0.0566023 -0)
(-0 -0.0566023 -0)
(-0 -0.0566023 -0)
(-0 -0.0566023 -0)
(-0 -0.0566023 -0)
(-0 -0.0566023 -0)
(-0 -0.0566023 -0)
(-0 -0.0566023 -0)
(-0 -0.0566023 -0)
(-0 -0.0566023 -0)
(-0 -0.0566023 -0)
(-0 -0.0566023 -0)
(-0 -0.0566023 -0)
(-0 -0.0566023 -0)
(-0 -0.0566023 -0)
(-0 -0.0566023 -0)
(-0 -0.0566023 -0)
(-0 -0.0566023 -0)
(-0 -0.0566023 -0)
(-0 -0.0566023 -0)
(-0 -0.0566023 -0)
(-0 -0.0566023 -0)
(-0 -0.0566023 -0)
(-0 -0.0566023 -0)
(-0 -0.0566023 -0)
(-0 -0.0566023 -0)
(-0 -0.0566023 -0)
(-0 -0.0566023 -0)
(-0 -0.0566023 -0)
(-0 -0.0566023 -0)
(-0 -0.0566023 -0)
(-0 -0.0566023 -0)
(-0 -0.0566023 -0)
(-0 -0.0566023 -0)
(-0 -0.0566023 -0)
(-0 -0.0566023 -0)
(-0 -0.0566023 -0)
(-0 -0.0566023 -0)
(-0 -0.0566023 -0)
(-0 -0.0566023 -0)
(-0 -0.0566023 -0)
(-0 -0.0566023 -0)
(-0 -0.0566023 -0)
(-0 -0.0566023 -0)
(-0 -0.0566023 -0)
(-0 -0.0566023 -0)
(-0 -0.0566023 -0)
(-0 -0.0566023 -0)
(-0 -0.0566023 -0)
(-0 -0.0566023 -0)
(-0 -0.0566023 -0)
(-0 -0.0566023 -0)
(-0 -0.0566023 -0)
(-0 -0.0566023 -0)
(-0 -0.0566023 -0)
(-0 -0.0566023 -0)
(-0 -0.0566023 -0)
(-0 -0.0566023 -0)
(0 -0.0566023 0)
(0 -0.0566023 0)
(0 -0.0566023 0)
(0 -0.0566023 0)
(0 -0.0566023 0)
(0 -0.0566023 0)
(0 -0.0566023 0)
(0 -0.0566023 0)
(0 -0.0566023 0)
(0 -0.0566023 0)
(0 -0.0566023 0)
(0 -0.0566023 0)
(0 -0.0566023 0)
(0 -0.0566023 0)
(0 -0.0566023 0)
(0 -0.0566024 0)
(0 -0.003082 0)
(0 -0.00340716 0)
(0 -0.00374248 0)
(0 -0.00462191 0)
(0 -0.00412046 0)
(0 -0.00490534 0)
(0 -0.0039434 0)
(0 -0.0566022 0)
(0 -0.0027055 0)
(0 -0.00272585 0)
(0 -0.00201699 0)
(0 -0.0566023 0)
(0 -0.0566023 0)
(0 -0.0566023 0)
(0 -0.0566023 0)
(0 -0.0566023 0)
(0 -0.0566023 0)
(0 -0.0566023 0)
(0 -0.0566023 0)
(0 -0.0566023 0)
(0 -0.0566023 0)
(0 -0.0566023 0)
(0 -0.0566023 0)
(0 -0.0566023 0)
(0 -0.0566023 0)
(0 -0.00206619 0)
(0 -0.0038424 0)
(0 -0.00376178 0)
(0 -0.0035363 0)
(0 -0.00123943 0)
(0 -0.00143872 0)
(0 -0.000798864 0)
(0 -0.00444007 0)
(0 -0.00444088 0)
(0 -0.0031384 0)
(0 -0.00371505 0)
(0 -0.00385213 0)
(0 -0.00302863 0)
(0 -0.0023722 0)
(0 -0.00260672 0)
(0 -0.00164027 0)
(0 -0.000839841 0)
(0 -0.000385741 0)
(0 -0.0042527 0)
(0 -0.00805607 0)
(0 -0.00786182 0)
(0 -0.0114762 0)
(0 -0.0112324 0)
(0 -0.0145538 0)
(0 -0.0142702 0)
(0 -0.0173959 0)
(0 -0.0170543 0)
(0 -0.0199574 0)
(0 -0.0195502 0)
(0 -0.0222074 0)
(0 -0.0217468 0)
(0 -0.0242392 0)
(0 -0.0237272 0)
(0 -0.0260809 0)
(0 -0.0266217 0)
(0 -0.0283138 0)
(0 -0.0288502 0)
(0 -0.0304083 0)
(0 -0.0309209 0)
(0 -0.0323661 0)
(0 -0.0328587 0)
(0 -0.0341933 0)
(0 -0.0346993 0)
(0 -0.0358999 0)
(0 -0.0364228 0)
(0 -0.0374952 0)
(0 -0.0379751 0)
(0 -0.0389657 0)
(0 -0.0394191 0)
(0 -0.0403388 0)
(0 -0.040753 0)
(0 -0.0416357 0)
(0 -0.0419958 0)
(0 -0.0428277 0)
(0 -0.0431738 0)
(0 -0.0439309 0)
(0 -0.0442614 0)
(0 -0.0449529 0)
(0 -0.0452721 0)
(0 -0.04591 0)
(0 -0.0462224 0)
(0 -0.045582 0)
(0 -0.0464877 0)
(0 -0.0461528 0)
(0 -0.0470137 0)
(0 -0.0466732 0)
(0 -0.0474976 0)
(0 -0.0471501 0)
(0 -0.0479467 0)
(0 -0.047583 0)
(0 -0.0483199 0)
(0 -0.0479856 0)
(0 -0.0486613 0)
(0 -0.0483362 0)
(0 -0.0490259 0)
(0 -0.048652 0)
(0 -0.0493513 0)
(0 -0.048955 0)
(0 -0.049622 0)
(0 -0.0487788 0)
(0 -0.0492231 0)
(0 -0.0498655 0)
(0 -0.0494575 0)
(0 -0.0500814 0)
(0 -0.0496684 0)
(0 -0.0502787 0)
(0 -0.0498563 0)
(0 -0.0504453 0)
(0 -0.0492365 0)
(0 -0.0500227 0)
(0 -0.0505758 0)
(0 -0.0501484 0)
(0 -0.0506893 0)
(0 -0.0502397 0)
(0 -0.0507629 0)
(0 -0.05032 0)
(0 -0.0508323 0)
(0 -0.0503837 0)
(0 -0.0509001 0)
(0 -0.0504219 0)
(0 -0.0509358 0)
(0 -0.0498983 0)
(0 -0.0502387 0)
(0 -0.0504359 0)
(0 -0.0509429 0)
(0 -0.0504333 0)
(0 -0.0509251 0)
(0 -0.0513988 0)
(0 -0.0513826 0)
(0 -0.0509054 0)
(0 -0.0513586 0)
(0 -0.0518126 0)
(0 -0.0517782 0)
(0 -0.0513182 0)
(0 -0.0517306 0)
(0 -0.0521681 0)
(0 -0.0521155 0)
(0 -0.051671 0)
(0 -0.0520537 0)
(0 -0.0516031 0)
(0 -0.0519856 0)
(0 -0.0524064 0)
(0 -0.0523473 0)
(0 -0.0519147 0)
(0 -0.0522777 0)
(0 -0.0527562 0)
(0 -0.0526139 0)
(0 -0.0522012 0)
(0 -0.0525221 0)
(0 -0.0529346 0)
(0 -0.052811 0)
(0 -0.0523689 0)
(0 -0.052727 0)
(0 -0.0530957 0)
(0 -0.0530213 0)
(0 -0.0526421 0)
(0 -0.0529306 0)
(0 -0.0525383 0)
(0 -0.0528308 0)
(0 -0.0532017 0)
(0 -0.0531033 0)
(0 -0.0527241 0)
(0 -0.0529992 0)
(0 -0.0526117 0)
(0 -0.0528899 0)
(0 -0.0532568 0)
(0 -0.0531488 0)
(0 -0.0527754 0)
(0 -0.0530364 0)
(0 -0.0533902 0)
(0 -0.0532801 0)
(0 -0.0529198 0)
(0 -0.0531673 0)
(0 -0.0527996 0)
(0 -0.0530529 0)
(0 -0.0533979 0)
(0 -0.0532871 0)
(0 -0.0529369 0)
(0 -0.0531718 0)
(0 -0.0535052 0)
(0 -0.0533932 0)
(0 -0.0530493 0)
(0 -0.0532746 0)
(0 -0.0529185 0)
(0 -0.0531466 0)
(0 -0.052781 0)
(0 -0.0530118 0)
(0 -0.0533591 0)
(0 -0.0532273 0)
(0 -0.052873 0)
(0 -0.053093 0)
(0 -0.0534287 0)
(0 -0.0532987 0)
(0 -0.0529538 0)
(0 -0.0531616 0)
(0 -0.0528084 0)
(0 -0.053019 0)
(0 -0.0298624 0)
(0 -0.0510926 0)
(0 -0.0455687 0)
(0 -0.0465027 0)
(0 -0.0458443 0)
(0 -0.0467849 0)
(0 -0.0461075 0)
(0 -0.0478923 0)
(0 -0.0552646 0)
(0 -0.0554353 0)
(0 -0.0553141 0)
(0 -0.0554782 0)
(0 -0.0553509 0)
(0 -0.0555134 0)
(0 -0.0553807 0)
(0 -0.0555425 0)
(0 -0.0384336 0)
(0 -0.0554057 0)
(0 -0.0555611 0)
(0 -0.055092 0)
(0 -0.0554223 0)
(0 -0.0555694 0)
(0 -0.0556642 0)
(0 -0.0554306 0)
(0 -0.0555737 0)
(0 -0.0552604 0)
(0 -0.0554325 0)
(0 -0.0555721 0)
(0 -0.0557023 0)
(0 -0.0556972 0)
(0 -0.0555643 0)
(0 -0.0556862 0)
(0 -0.0555494 0)
(0 -0.0556683 0)
(0 -0.0557952 0)
(0 -0.0557749 0)
(0 -0.0370075 0)
(0 -0.055892 0)
(0 -0.0558696 0)
(0 -0.0557495 0)
(0 -0.0558419 0)
(0 -0.0559528 0)
(0 -0.0559236 0)
(0 -0.0558089 0)
(0 -0.05589 0)
(0 -0.0559961 0)
(0 -0.0559614 0)
(0 -0.056059 0)
(0 -0.0560235 0)
(0 -0.0559237 0)
(0 -0.0559857 0)
(0 -0.0560764 0)
(0 -0.0560389 0)
(0 -0.0561227 0)
(0 -0.0560856 0)
(0 -0.0561622 0)
(0 -0.0561234 0)
(0 -0.0561953 0)
(0 -0.0561552 0)
(0 -0.0562241 0)
(0 -0.0561836 0)
(0 -0.0562482 0)
(0 -0.0562085 0)
(0 -0.0562689 0)
(0 -0.0562304 0)
(0 -0.0562865 0)
(0 -0.0562495 0)
(0 -0.0563014 0)
(0 -0.056266 0)
(0 -0.0563159 0)
(0 -0.0562812 0)
(0 -0.0563286 0)
(0 -0.0562953 0)
(0 -0.0563391 0)
(0 -0.0563058 0)
(0 -0.0563479 0)
(0 -0.056315 0)
(0 -0.0563551 0)
(0 -0.0563228 0)
(0 -0.0563612 0)
(0 -0.0563284 0)
(0 -0.0563664 0)
(0 -0.0563345 0)
(0 -0.0563712 0)
(0 -0.0563395 0)
(0 -0.0563754 0)
(0 -0.0563436 0)
(0 -0.0563791 0)
(0 -0.0563471 0)
(0 -0.0563819 0)
(0 -0.0563511 0)
(0 -0.0563838 0)
(0 -0.0563538 0)
(0 -0.0563855 0)
(0 -0.0563549 0)
(0 -0.0563868 0)
(0 -0.0563561 0)
(0 -0.0563879 0)
(0 -0.0563571 0)
(0 -0.0563887 0)
(0 -0.0563582 0)
(0 -0.0563889 0)
(0 -0.0563584 0)
(0 -0.0563887 0)
(0 -0.0563583 0)
(0 -0.0563884 0)
(0 -0.0563578 0)
(0 -0.056388 0)
(0 -0.0563569 0)
(0 -0.0563878 0)
(0 -0.0563563 0)
(0 -0.0563879 0)
(0 -0.0563555 0)
(0 -0.0563868 0)
(0 -0.0563547 0)
(0 -0.0563849 0)
(0 -0.056353 0)
(0 -0.0563825 0)
(0 -0.0563506 0)
(0 -0.0563798 0)
(0 -0.056348 0)
(0 -0.0563775 0)
(0 -0.0563433 0)
(0 -0.0563749 0)
(0 -0.0563402 0)
(0 -0.0563726 0)
(0 -0.0563396 0)
(0 -0.0563702 0)
(0 -0.0563374 0)
(0 -0.0563668 0)
(0 -0.0563335 0)
(0 -0.0563633 0)
(0 -0.0563297 0)
(0 -0.0563596 0)
(0 -0.0563258 0)
(0 -0.0563561 0)
(0 -0.0563225 0)
(0 -0.0563515 0)
(0 -0.0563172 0)
(0 -0.0563459 0)
(0 -0.0563118 0)
(0 -0.0563406 0)
(0 -0.0563065 0)
(0 -0.0563348 0)
(0 -0.0562989 0)
(0 -0.0563285 0)
(0 -0.0562909 0)
(0 -0.0563219 0)
(0 -0.0562828 0)
(0 -0.056314 0)
(0 -0.0562751 0)
(0 -0.0563058 0)
(0 -0.0562677 0)
(0 -0.0562982 0)
(0 -0.0562586 0)
(0 -0.0562898 0)
(0 -0.0562483 0)
(0 -0.0562807 0)
(0 -0.056238 0)
(0 -0.0562708 0)
(0 -0.056311 0)
(0 -0.0563014 0)
(0 -0.0562603 0)
(0 -0.0562914 0)
(0 -0.0563529 0)
(0 -0.0563762 0)
(0 -0.0563931 0)
(0 -0.0564028 0)
(0 -0.0564154 0)
(0 -0.0564152 0)
(0 -0.0563217 0)
(0 -0.0563235 0)
(0 -0.0563134 0)
(0 -0.0562834 0)
(0 -0.0562304 0)
(0 -0.0564162 0)
(0 -0.0563022 0)
(0 -0.0562581 0)
(0 -0.0562907 0)
(0 -0.0561092 0)
(0 -0.0564124 0)
(0 -0.0562148 0)
(0 -0.0558896 0)
(0 -0.0563994 0)
(0 -0.0563803 0)
(0 -0.0470313 0)
(0 -0.0463455 0)
(0 -0.0563175 0)
(0 -0.0563327 0)
(0 -0.056231 0)
(0 -0.0472234 0)
(0 -0.0464144 0)
(0 -0.0474054 0)
(0 -0.0467141 0)
(0 -0.047603 0)
(0 -0.046885 0)
(0 -0.0459648 0)
(0 -0.0460529 0)
(0 -0.0450987 0)
(0 -0.045183 0)
(0 -0.0440973 0)
(0 -0.04423 0)
(0 -0.0470042 0)
(0 -0.048025 0)
(0 -0.0430515 0)
(0 -0.0431852 0)
(0 -0.0419556 0)
(0 -0.0420678 0)
(0 -0.0432873 0)
(0 -0.0421462 0)
(0 -0.0433524 0)
(0 -0.0408388 0)
(0 -0.0177192 0)
(0 -0.0564887 0)
(0 -0.056456 0)
(0 -0.056473 0)
(0 -0.0565036 0)
(0 -0.0564887 0)
(0 -0.0565173 0)
(0 -0.0565018 0)
(0 -0.0565281 0)
(0 -0.0565129 0)
(0 -0.0565362 0)
(0 -0.0565226 0)
(0 -0.0565425 0)
(0 -0.056529 0)
(0 -0.0565468 0)
(0 -0.0565334 0)
(0 -0.0565498 0)
(0 -0.0564696 0)
(0 -0.0565358 0)
(0 -0.0565514 0)
(0 -0.056514 0)
(0 -0.0463206 0)
(0 -0.0565364 0)
(0 -0.0565512 0)
(0 -0.0513846 0)
(0 -0.0332848 0)
(0 -0.0565355 0)
(0 -0.0565495 0)
(0 -0.0565479 0)
(0 -0.0405037 0)
(0 -0.0419053 0)
(0 -0.0410626 0)
(0 -0.0396212 0)
(0 -0.0402043 0)
(0 -0.0416081 0)
(0 -0.0407636 0)
(0 -0.0421206 0)
(0 -0.0412897 0)
(0 -0.0398724 0)
(0 -0.0404172 0)
(0 -0.0417906 0)
(0 -0.0409504 0)
(0 -0.0394963 0)
(0 -0.0400534 0)
(0 -0.0414692 0)
(0 -0.0405842 0)
(0 -0.0419616 0)
(0 -0.0410857 0)
(0 -0.0396512 0)
(0 -0.0401596 0)
(0 -0.0415684 0)
(0 -0.0406528 0)
(0 -0.0391812 0)
(0 -0.0396891 0)
(0 -0.0411559 0)
(0 -0.0401974 0)
(0 -0.0386862 0)
(0 -0.0391908 0)
(0 -0.0406607 0)
(0 -0.0396698 0)
(0 -0.0381632 0)
(0 -0.0386591 0)
(0 -0.0401163 0)
(0 -0.039119 0)
(0 -0.0405376 0)
(0 -0.0395629 0)
(0 -0.0380781 0)
(0 -0.0385343 0)
(0 -0.0400513 0)
(0 -0.038987 0)
(0 -0.0374505 0)
(0 -0.0378548 0)
(0 -0.0392702 0)
(0 -0.0382031 0)
(0 -0.0367143 0)
(0 -0.0370906 0)
(0 -0.0385358 0)
(0 -0.0374274 0)
(0 -0.0388388 0)
(0 -0.0377215 0)
(0 -0.036255 0)
(0 -0.0365467 0)
(0 -0.0379701 0)
(0 -0.0367882 0)
(0 -0.0381708 0)
(0 -0.0369801 0)
(0 -0.0383009 0)
(0 -0.0370948 0)
(0 -0.0383011 0)
(0 -0.0371137 0)
(0 -0.035824 0)
(0 -0.0358752 0)
(0 -0.0371359 0)
(0 -0.0358734 0)
(0 -0.0371018 0)
(0 -0.0358093 0)
(0 -0.0370175 0)
(0 -0.0356939 0)
(0 -0.036897 0)
(0 -0.0355013 0)
(0 -0.0342747 0)
(0 -0.0340329 0)
(0 -0.0327791 0)
(0 -0.0324895 0)
(0 -0.031206 0)
(0 -0.0308795 0)
(0 -0.0295537 0)
(0 -0.0292077 0)
(0 -0.0350118 0)
(0 -0.0366824 0)
(0 -0.02784 0)
(0 -0.0274696 0)
(0 -0.0281215 0)
(0 -0.0260951 0)
(0 -0.0256849 0)
(0 -0.0269983 0)
(0 -0.0243127 0)
(0 -0.0251646 0)
(0 -0.0264345 0)
(0 -0.0393988 0)
(0 -0.0382882 0)
(0 -0.024515 0)
(0 -0.0257033 0)
(0 -0.0536178 0)
(0 -0.0537098 0)
(0 -0.0525357 0)
(0 -0.0524276 0)
(0 -0.0565588 0)
(0 -0.0565663 0)
(0 -0.0565608 0)
(0 -0.0565678 0)
(0 -0.0565624 0)
(0 -0.0565692 0)
(0 -0.0565637 0)
(0 -0.0565705 0)
(0 -0.0565651 0)
(0 -0.0565717 0)
(0 -0.0565664 0)
(0 -0.0565728 0)
(0 -0.0565677 0)
(0 -0.0565738 0)
(0 -0.0565689 0)
(0 -0.0565748 0)
(0 -0.05657 0)
(0 -0.0565757 0)
(0 -0.056571 0)
(0 -0.0565766 0)
(0 -0.056572 0)
(0 -0.0565775 0)
(0 -0.0565729 0)
(0 -0.0565782 0)
(0 -0.0565737 0)
(0 -0.0565788 0)
(0 -0.0565745 0)
(0 -0.0565795 0)
(0 -0.0565753 0)
(0 -0.0565802 0)
(0 -0.0565761 0)
(0 -0.0565807 0)
(0 -0.0565767 0)
(0 -0.0565813 0)
(0 -0.0565773 0)
(0 -0.0565818 0)
(0 -0.0565779 0)
(0 -0.0565824 0)
(0 -0.0565784 0)
(0 -0.0565828 0)
(0 -0.0565789 0)
(0 -0.0565832 0)
(0 -0.0565792 0)
(0 -0.0565836 0)
(0 -0.0565798 0)
(0 -0.056584 0)
(0 -0.0565808 0)
(0 -0.0565845 0)
(0 -0.0565814 0)
(0 -0.056585 0)
(0 -0.0565817 0)
(0 -0.0565853 0)
(0 -0.0565821 0)
(0 -0.0565857 0)
(0 -0.0565824 0)
(0 -0.0565861 0)
(0 -0.0565828 0)
(0 -0.0565864 0)
(0 -0.0565831 0)
(0 -0.0565867 0)
(0 -0.0565834 0)
(0 -0.056587 0)
(0 -0.0565837 0)
(0 -0.0565872 0)
(0 -0.056584 0)
(0 -0.0565875 0)
(0 -0.0565843 0)
(0 -0.0565877 0)
(0 -0.0565845 0)
(0 -0.0565879 0)
(0 -0.0565846 0)
(0 -0.0565882 0)
(0 -0.0565848 0)
(0 -0.0565884 0)
(0 -0.0565851 0)
(0 -0.0565886 0)
(0 -0.0565855 0)
(0 -0.0565888 0)
(0 -0.0565859 0)
(0 -0.0565891 0)
(0 -0.0565862 0)
(0 -0.0565893 0)
(0 -0.0565864 0)
(0 -0.0565895 0)
(0 -0.0565865 0)
(0 -0.0565896 0)
(0 -0.0565867 0)
(0 -0.0565898 0)
(0 -0.0565869 0)
(0 -0.0565899 0)
(0 -0.0565871 0)
(0 -0.0565901 0)
(0 -0.0565873 0)
(0 -0.0565763 0)
(0 -0.0565903 0)
(0 -0.0565874 0)
(0 -0.0565904 0)
(0 -0.0565875 0)
(0 -0.0565906 0)
(0 -0.0565876 0)
(0 -0.0565807 0)
(0 -0.0565907 0)
(0 -0.0565877 0)
(0 -0.0565907 0)
(0 -0.0565878 0)
(0 -0.0565908 0)
(0 -0.0565879 0)
(0 -0.0565845 0)
(0 -0.0565909 0)
(0 -0.056588 0)
(0 -0.0565908 0)
(0 -0.056588 0)
(0 -0.0565909 0)
(0 -0.0565879 0)
(0 -0.0565858 0)
(0 -0.056591 0)
(0 -0.0565879 0)
(0 -0.0565911 0)
(0 -0.0565879 0)
(0 -0.0565869 0)
(0 -0.0565911 0)
(0 -0.0565878 0)
(0 -0.0565911 0)
(0 -0.0565877 0)
(0 -0.0565911 0)
(0 -0.0565878 0)
(0 -0.056589 0)
(0 -0.056591 0)
(0 -0.0565878 0)
(0 -0.056591 0)
(0 -0.0565877 0)
(0 -0.0565909 0)
(0 -0.0565876 0)
(0 -0.056569 0)
(0 -0.0565781 0)
(0 -0.0565587 0)
(0 -0.0565837 0)
(0 -0.0565823 0)
(0 -0.0565799 0)
(0 -0.0565906 0)
(0 -0.0565737 0)
(0 -0.0565909 0)
(0 -0.0565875 0)
(0 -0.0565842 0)
(0 -0.0565908 0)
(0 -0.0565873 0)
(0 -0.0565906 0)
(0 -0.056587 0)
(0 -0.0565837 0)
(0 -0.0565838 0)
(0 -0.056591 0)
(0 -0.0565904 0)
(0 -0.0565866 0)
(0 -0.0565643 0)
(0 -0.0565526 0)
(0 -0.0565916 0)
(0 -0.0565902 0)
(0 -0.0565861 0)
(0 -0.0565896 0)
(0 -0.0565855 0)
(0 -0.0565923 0)
(0 -0.0565891 0)
(0 -0.0565848 0)
(0 -0.0565927 0)
(0 -0.0565808 0)
(0 -0.0565888 0)
(0 -0.0565841 0)
(0 -0.0565935 0)
(0 -0.0565884 0)
(0 -0.0565832 0)
(0 -0.0565935 0)
(0 -0.0565876 0)
(0 -0.0565935 0)
(0 -0.0565937 0)
(0 -0.0237198 0)
(0 -0.0225905 0)
(0 -0.049665 0)
(0 -0.0565715 0)
(0 -0.0247836 0)
(0 -0.0268122 0)
(0 -0.0565765 0)
(0 -0.0565936 0)
(0 -0.056579 0)
(0 -0.0565803 0)
(0 -0.0565831 0)
(0 -0.0565839 0)
(0 -0.0565838 0)
(0 -0.0565843 0)
(0 -0.0565334 0)
(0 -0.0565172 0)
(0 -0.0554896 0)
(0 -0.0553946 0)
(0 -0.0555194 0)
(0 -0.0554263 0)
(0 -0.0555474 0)
(0 -0.0554583 0)
(0 -0.0555746 0)
(0 -0.0554821 0)
(0 -0.0555968 0)
(0 -0.0554966 0)
(0 -0.0556151 0)
(0 -0.0555174 0)
(0 -0.0556343 0)
(0 -0.0555439 0)
(0 -0.0556532 0)
(0 -0.0555686 0)
(0 -0.0556699 0)
(0 -0.0555833 0)
(0 -0.0556844 0)
(0 -0.0555918 0)
(0 -0.0556935 0)
(0 -0.0556039 0)
(0 -0.055703 0)
(0 -0.0556153 0)
(0 -0.0557168 0)
(0 -0.0556258 0)
(0 -0.0557284 0)
(0 -0.0556355 0)
(0 -0.0555241 0)
(0 -0.0555346 0)
(0 -0.0556449 0)
(0 -0.0555466 0)
(0 -0.0556535 0)
(0 -0.0555549 0)
(0 -0.0556601 0)
(0 -0.0555556 0)
(0 -0.0556649 0)
(0 -0.0555594 0)
(0 -0.0556689 0)
(0 -0.0555676 0)
(0 -0.0556711 0)
(0 -0.0555655 0)
(0 -0.0556714 0)
(0 -0.0555639 0)
(0 -0.0556712 0)
(0 -0.0555696 0)
(0 -0.0556701 0)
(0 -0.055564 0)
(0 -0.0556659 0)
(0 -0.0555523 0)
(0 -0.0556593 0)
(0 -0.0555481 0)
(0 -0.0556517 0)
(0 -0.0555406 0)
(0 -0.0556429 0)
(0 -0.0555319 0)
(0 -0.0556315 0)
(0 -0.0555166 0)
(0 -0.0556163 0)
(0 -0.0554922 0)
(0 -0.0555979 0)
(0 -0.0554702 0)
(0 -0.0553556 0)
(0 -0.05533 0)
(0 -0.0554465 0)
(0 -0.0553028 0)
(0 -0.0554199 0)
(0 -0.0552709 0)
(0 -0.0553892 0)
(0 -0.0552349 0)
(0 -0.0553544 0)
(0 -0.0551951 0)
(0 -0.0553156 0)
(0 -0.0551507 0)
(0 -0.0552719 0)
(0 -0.0551001 0)
(0 -0.0554206 0)
(0 -0.0552233 0)
(0 -0.0550435 0)
(0 -0.0554758 0)
(0 -0.0550694 0)
(0 -0.0554931 0)
(0 -0.05546 0)
(0 -0.0553781 0)
(0 -0.0549099 0)
(0 -0.054845 0)
(0 -0.0549813 0)
(0 -0.0547741 0)
(0 -0.0549131 0)
(0 -0.0546938 0)
(0 -0.0548322 0)
(0 -0.0545979 0)
(0 -0.0547231 0)
(0 -0.0544871 0)
(0 -0.0546123 0)
(0 -0.0554098 0)
(0 -0.0554513 0)
(0 -0.0554125 0)
(0 -0.0551856 0)
(0 -0.056578 0)
(0 -0.0565765 0)
(0 -0.0565703 0)
(0 -0.0565684 0)
(0 -0.0565935 0)
(0 -0.054368 0)
(0 -0.0545035 0)
(0 -0.0565607 0)
(0 -0.0565585 0)
(0 -0.0542366 0)
(0 -0.0543703 0)
(0 -0.0565993 0)
(0 -0.0565983 0)
(0 -0.0565995 0)
(0 -0.0565986 0)
(0 -0.0565996 0)
(0 -0.0565988 0)
(0 -0.0565998 0)
(0 -0.056599 0)
(0 -0.0565999 0)
(0 -0.0565992 0)
(0 -0.0566001 0)
(0 -0.0565993 0)
(0 -0.0566002 0)
(0 -0.0565994 0)
(0 -0.0566003 0)
(0 -0.0565996 0)
(0 -0.0566004 0)
(0 -0.0565997 0)
(0 -0.0566005 0)
(0 -0.0565999 0)
(0 -0.0540875 0)
(0 -0.0542191 0)
(0 -0.0539223 0)
(0 -0.0540511 0)
(0 -0.0217373 0)
(0 -0.0206333 0)
(0 -0.0258017 0)
(0 -0.0278141 0)
(0 -0.0544691 0)
(0 -0.0345037 0)
(0 -0.0566006 0)
(0 -0.0566 0)
(0 -0.0565933 0)
(0 -0.0566007 0)
(0 -0.0566001 0)
(0 -0.0566008 0)
(0 -0.0566002 0)
(0 -0.0417892 0)
(0 -0.056563 0)
(0 -0.0566008 0)
(0 -0.0566003 0)
(0 -0.0547016 0)
(0 -0.0565143 0)
(0 -0.0564955 0)
(0 -0.0412442 0)
(0 -0.0565986 0)
(0 -0.056561 0)
(0 -0.0566009 0)
(0 -0.0566004 0)
(0 -0.0565997 0)
(0 -0.0565998 0)
(0 -0.0566005 0)
(0 -0.0565999 0)
(0 -0.0566006 0)
(0 -0.0566 0)
(0 -0.0566007 0)
(0 -0.0566001 0)
(0 -0.0566008 0)
(0 -0.0566003 0)
(0 -0.0566009 0)
(0 -0.0566004 0)
(0 -0.0566009 0)
(0 -0.0566005 0)
(0 -0.0543393 0)
(0 -0.0541679 0)
(0 -0.0538687 0)
(0 -0.0539827 0)
(0 -0.0552926 0)
(0 -0.056601 0)
(0 -0.0566006 0)
(0 -0.0566011 0)
(0 -0.0566006 0)
(0 -0.0542733 0)
(0 -0.0540858 0)
(0 -0.0537799 0)
(0 -0.0538795 0)
(0 -0.0535551 0)
(0 -0.0536502 0)
(0 -0.0533061 0)
(0 -0.0533958 0)
(0 -0.05374 0)
(0 -0.0534786 0)
(0 -0.0531171 0)
(0 -0.0531898 0)
(0 -0.0535461 0)
(0 -0.0532518 0)
(0 -0.0536067 0)
(0 -0.0533039 0)
(0 -0.0529359 0)
(0 -0.0529785 0)
(0 -0.0525902 0)
(0 -0.0526207 0)
(0 -0.0530036 0)
(0 -0.0526303 0)
(0 -0.053014 0)
(0 -0.0526284 0)
(0 -0.0530078 0)
(0 -0.0525959 0)
(0 -0.052982 0)
(0 -0.0525556 0)
(0 -0.0529458 0)
(0 -0.0525238 0)
(0 -0.0528981 0)
(0 -0.0524605 0)
(0 -0.0528279 0)
(0 -0.0523754 0)
(0 -0.0522112 0)
(0 -0.052735 0)
(0 -0.0522764 0)
(0 -0.0526201 0)
(0 -0.0521375 0)
(0 -0.0524787 0)
(0 -0.0519761 0)
(0 -0.0565927 0)
(0 -0.0565972 0)
(0 -0.0566011 0)
(0 -0.0566007 0)
(0 -0.056549 0)
(0 -0.0565468 0)
(0 -0.0268031 0)
(0 -0.0288 0)
(0 -0.0245983 0)
(0 -0.0197313 0)
(0 -0.0186563 0)
(0 -0.0555317 0)
(0 -0.0563389 0)
(0 -0.0550555 0)
(0 -0.0566012 0)
(0 -0.0566008 0)
(0 -0.0566012 0)
(0 -0.0566008 0)
(0 -0.0566013 0)
(0 -0.0566009 0)
(0 -0.0566003 0)
(0 -0.0566004 0)
(0 -0.056601 0)
(0 -0.0566005 0)
(0 -0.0566011 0)
(0 -0.0566006 0)
(0 -0.0566011 0)
(0 -0.0566007 0)
(0 -0.0566012 0)
(0 -0.0566008 0)
(0 -0.0557681 0)
(0 -0.0557535 0)
(0 -0.0557682 0)
(0 -0.0565988 0)
(0 -0.0566013 0)
(0 -0.0566009 0)
(0 -0.0566013 0)
(0 -0.056601 0)
(0 -0.0565998 0)
(0 -0.0566014 0)
(0 -0.056601 0)
(0 -0.0566003 0)
(0 -0.0422769 0)
(0 -0.0521738 0)
(0 -0.0565519 0)
(0 -0.0557486 0)
(0 -0.0540954 0)
(0 -0.0543678 0)
(0 -0.0553865 0)
(0 -0.0557129 0)
(0 -0.0565992 0)
(0 -0.0517725 0)
(0 -0.0566003 0)
(0 -0.0556061 0)
(0 -0.0565386 0)
(0 -0.0565421 0)
(0 -0.0565982 0)
(0 -0.0565673 0)
(0 -0.0564918 0)
(0 -0.0564697 0)
(0 -0.0566014 0)
(0 -0.0566011 0)
(0 -0.0278306 0)
(0 -0.0298394 0)
(0 -0.0532047 0)
(0 -0.0557228 0)
(0 -0.0566001 0)
(0 -0.0558116 0)
(0 -0.05336 0)
(0 -0.0566015 0)
(0 -0.0566011 0)
(0 -0.0566015 0)
(0 -0.0566012 0)
(0 -0.0566007 0)
(0 -0.0566008 0)
(0 -0.0566013 0)
(0 -0.0566009 0)
(0 -0.0566013 0)
(0 -0.0566009 0)
(0 -0.0566014 0)
(0 -0.056601 0)
(0 -0.0566014 0)
(0 -0.0566011 0)
(0 -0.0566003 0)
(0 -0.0557858 0)
(0 -0.0566008 0)
(0 -0.0177006 0)
(0 -0.016666 0)
(0 -0.0175275 0)
(0 -0.0155814 0)
(0 -0.0163367 0)
(0 -0.0144254 0)
(0 -0.0150661 0)
(0 -0.0132037 0)
(0 -0.0137111 0)
(0 -0.0566015 0)
(0 -0.0566011 0)
(0 -0.0566015 0)
(0 -0.0566012 0)
(0 -0.0547581 0)
(0 -0.0566016 0)
(0 -0.0566013 0)
(0 -0.0566008 0)
(0 -0.0566008 0)
(0 -0.0566013 0)
(0 -0.0566009 0)
(0 -0.0566014 0)
(0 -0.056601 0)
(0 -0.0566014 0)
(0 -0.0566011 0)
(0 -0.0565993 0)
(0 -0.056601 0)
(0 -0.0212737 0)
(0 -0.0306673 0)
(0 -0.0315928 0)
(0 -0.0565267 0)
(0 -0.0565306 0)
(0 -0.0521681 0)
(0 -0.0565997 0)
(0 -0.0119193 0)
(0 -0.0566015 0)
(0 -0.0566012 0)
(0 -0.0566016 0)
(0 -0.0566012 0)
(0 -0.0566016 0)
(0 -0.0566013 0)
(0 -0.0566008 0)
(0 -0.0454247 0)
(0 -0.0515901 0)
(0 -0.0473663 0)
(0 -0.0532301 0)
(0 -0.0566013 0)
(0 -0.0520636 0)
(0 -0.032435 0)
(0 -0.0333286 0)
(0 -0.0232102 0)
(0 -0.0207617 0)
(0 -0.0566017 0)
(0 -0.0566014 0)
(0 -0.0566005 0)
(0 -0.0566002 0)
(0 -0.0122914 0)
(0 -0.0140596 0)
(0 -0.0566015 0)
(0 -0.0566013 0)
(0 -0.0566014 0)
(0 -0.0341227 0)
(0 -0.0350025 0)
(0 -0.0357256 0)
(0 -0.0365828 0)
(0 -0.0372408 0)
(0 -0.0380812 0)
(0 -0.0386677 0)
(0 -0.0394845 0)
(0 -0.040009 0)
(0 -0.040789 0)
(0 -0.0412769 0)
(0 -0.0402663 0)
(0 -0.0358433 0)
(0 -0.0420193 0)
(0 -0.0424686 0)
(0 -0.0124974 0)
(0 -0.0565607 0)
(0 -0.056572 0)
(0 -0.0483562 0)
(0 -0.0490832 0)
(0 -0.048686 0)
(0 -0.0493958 0)
(0 -0.0489933 0)
(0 -0.0482522 0)
(0 -0.0485699 0)
(0 -0.0492776 0)
(0 -0.0488752 0)
(0 -0.0481156 0)
(0 -0.0484339 0)
(0 -0.0491717 0)
(0 -0.0487381 0)
(0 -0.0494506 0)
(0 -0.0490249 0)
(0 -0.0482724 0)
(0 -0.048565 0)
(0 -0.0492978 0)
(0 -0.0488443 0)
(0 -0.049557 0)
(0 -0.0491152 0)
(0 -0.0483703 0)
(0 -0.0486483 0)
(0 -0.0493536 0)
(0 -0.0488769 0)
(0 -0.0480393 0)
(0 -0.0484004 0)
(0 -0.0490952 0)
(0 -0.0486467 0)
(0 -0.0479279 0)
(0 -0.0481755 0)
(0 -0.048945 0)
(0 -0.0484074 0)
(0 -0.0476575 0)
(0 -0.0478864 0)
(0 -0.0486856 0)
(0 -0.0481023 0)
(0 -0.0472069 0)
(0 -0.0475576 0)
(0 -0.0483146 0)
(0 -0.0477847 0)
(0 -0.0469734 0)
(0 -0.0472012 0)
(0 -0.0479996 0)
(0 -0.047433 0)
(0 -0.0465595 0)
(0 -0.0468135 0)
(0 -0.0476456 0)
(0 -0.0470304 0)
(0 -0.0461582 0)
(0 -0.0463709 0)
(0 -0.0472159 0)
(0 -0.0465531 0)
(0 -0.052913 0)
(0 -0.0156198 0)
(0 -0.016596 0)
(0 -0.0517272 0)
(0 -0.0513025 0)
(0 -0.0274584 0)
(0 -0.029838 0)
(0 -0.0274162 0)
(0 -0.0297811 0)
(0 -0.0273352 0)
(0 -0.0296823 0)
(0 -0.0272586 0)
(0 -0.0298379 0)
(0 -0.0271615 0)
(0 -0.029271 0)
(0 -0.0254121 0)
(0 -0.0279488 0)
(0 -0.0263293 0)
(0 -0.0288049 0)
(0 -0.02723 0)
(0 -0.0246409 0)
(0 -0.0255805 0)
(0 -0.0280978 0)
(0 -0.0264801 0)
(0 -0.0564653 0)
(0 -0.0564398 0)
(0 -0.0564435 0)
(0 -0.056487 0)
(0 -0.0269577 0)
(0 -0.0565132 0)
(0 -0.0565174 0)
(0 -0.0565087 0)
(0 -0.0566017 0)
(0 -0.0566014 0)
(0 -0.056601 0)
(0 -0.0566011 0)
(0 -0.0566015 0)
(0 -0.0566011 0)
(0 -0.0566015 0)
(0 -0.0566012 0)
(0 -0.0566016 0)
(0 -0.0566013 0)
(0 -0.0566017 0)
(0 -0.0566013 0)
(0 -0.0566017 0)
(0 -0.0566014 0)
(0 -0.0566009 0)
(0 -0.056601 0)
(0 -0.0566015 0)
(0 -0.0566011 0)
(0 -0.0566015 0)
(0 -0.0566012 0)
(0 -0.0566016 0)
(0 -0.0566013 0)
(0 -0.0566017 0)
(0 -0.0566014 0)
(0 -0.0566006 0)
(0 -0.0289274 0)
(0 -0.027334 0)
(0 -0.0247729 0)
(0 -0.0256611 0)
(0 -0.028173 0)
(0 -0.0265395 0)
(0 -0.0431688 0)
(0 -0.0435706 0)
(0 -0.0429117 0)
(0 -0.0439409 0)
(0 -0.0432736 0)
(0 -0.0442712 0)
(0 -0.0435373 0)
(0 -0.044541 0)
(0 -0.0437828 0)
(0 -0.044748 0)
(0 -0.0439746 0)
(0 -0.0448935 0)
(0 -0.0441186 0)
(0 -0.0449814 0)
(0 -0.0442245 0)
(0 -0.0451172 0)
(0 -0.0473704 0)
(0 -0.0467101 0)
(0 -0.0458505 0)
(0 -0.0238992 0)
(0 -0.0248234 0)
(0 -0.0273913 0)
(0 -0.0257134 0)
(0 -0.0290743 0)
(0 -0.0311776 0)
(0 -0.0125228 0)
(0 -0.0142612 0)
(0 -0.0307448 0)
(0 -0.0566016 0)
(0 -0.0564096 0)
(0 -0.0564119 0)
(0 -0.0566017 0)
(0 -0.0282059 0)
(0 -0.0265692 0)
(0 -0.0239751 0)
(0 -0.0248885 0)
(0 -0.0273895 0)
(0 -0.0257461 0)
(0 -0.0566009 0)
(0 -0.056601 0)
(0 -0.0566014 0)
(0 -0.056601 0)
(0 -0.0566015 0)
(0 -0.0566011 0)
(0 -0.0566016 0)
(0 -0.0566012 0)
(0 -0.0566016 0)
(0 -0.0566013 0)
(0 -0.0566017 0)
(0 -0.0566014 0)
(0 -0.0281503 0)
(0 -0.0265178 0)
(0 -0.0240279 0)
(0 -0.0248226 0)
(0 -0.0272361 0)
(0 -0.0255458 0)
(0 -0.023041 0)
(0 -0.023839 0)
(0 -0.0262253 0)
(0 -0.0246101 0)
(0 -0.0564594 0)
(0 -0.0564808 0)
(0 -0.022671 0)
(0 -0.0202291 0)
(0 -0.010592 0)
(0 -0.0566017 0)
(0 -0.0565697 0)
(0 -0.056579 0)
(0 -0.056581 0)
(0 -0.0565866 0)
(0 -0.0565888 0)
(0 -0.0565845 0)
(0 -0.0565905 0)
(0 -0.0565885 0)
(0 -0.0565933 0)
(0 -0.022051 0)
(0 -0.0228787 0)
(0 -0.0253529 0)
(0 -0.0236473 0)
(0 -0.0565339 0)
(0 -0.0565212 0)
(0 -0.0565365 0)
(0 -0.0565245 0)
(0 -0.0566018 0)
(0 -0.0566018 0)
(0 -0.0566015 0)
(0 -0.056601 0)
(0 -0.0566011 0)
(0 -0.0566015 0)
(0 -0.0566012 0)
(0 -0.0566016 0)
(0 -0.0566013 0)
(0 -0.0566017 0)
(0 -0.0566014 0)
(0 -0.0260248 0)
(0 -0.0243474 0)
(0 -0.0218717 0)
(0 -0.0226103 0)