/*--------------------------------*- C++ -*----------------------------------*\
| =========                 |                                                 |
| \\      /  F ield         | OpenFOAM: The Open Source CFD Toolbox           |
|  \\    /   O peration     | Version:  v2012                                 |
|   \\  /    A nd           | Website:  www.openfoam.com                      |
|    \\/     M anipulation  |                                                 |
\*---------------------------------------------------------------------------*/
FoamFile
{
    version     2.0;
    format      ascii;
    class       volVectorField;
    location    "650";
    object      U_0;
}
// * * * * * * * * * * * * * * * * * * * * * * * * * * * * * * * * * * * * * //

dimensions      [0 1 -1 0 0 0 0];


internalField   nonuniform List<vector> 
13851
(
(1.21335 -0.00358144 -1.39593e-20)
(1.07219 -0.0328712 -2.23032e-20)
(1.07077 -0.0315018 0)
(-0.172741 -0.0370963 0)
(1.002 -0.000415036 0)
(1.07876 -0.0499593 -2.74166e-21)
(1.06215 0.0138043 1.39358e-20)
(1.0126 -0.000828013 0)
(0.122594 -0.00210071 0)
(0.990522 -0.00314098 -5.44919e-21)
(1.12873 -0.117649 -7.96454e-20)
(1.00085 -0.00688869 -5.5902e-21)
(0.979027 -0.0142349 1.60847e-20)
(-0.0949511 -0.0192895 -8.39463e-20)
(1.12048 -0.0034575 1.47474e-20)
(1.13233 0.136421 -1.71164e-20)
(-0.212655 -0.0183286 -5.43098e-20)
(1.03432 -0.0231255 0)
(1.2005 -0.0866263 0)
(1.21073 -0.00651282 3.77605e-20)
(1.13098 -0.0185916 3.00203e-20)
(1.02898 -0.0932072 0)
(0.730882 -0.336466 2.13251e-20)
(1.00008 -0.00023568 1.57359e-21)
(1.18252 -0.085862 0)
(1.11777 0.0780516 3.11713e-21)
(1.18798 0.111795 0)
(0.925191 -0.04169 0)
(0.296806 0.0512889 3.10061e-20)
(1.01961 -0.0138417 0)
(-0.0208585 -0.0102186 0)
(1.06244 0.0128702 0)
(1.21163 0.0125541 0)
(0.261787 -0.0244067 0)
(1.1089 -0.101236 0)
(0.358608 0.0656341 -1.28132e-20)
(1.00005 -0.000213077 -1.55691e-21)
(1.28253 -0.152538 0)
(0.121116 0.00506046 -2.29591e-20)
(1.0028 -0.0368763 5.66678e-21)
(0.183766 -0.0296456 -2.05633e-20)
(0.345999 0.0594055 0)
(-0.205819 -0.0245225 1.13104e-19)
(1.08942 -0.440845 4.51952e-20)
(0.349756 0.0534587 0)
(1.01222 -0.0225439 1.13763e-21)
(1.02067 -0.000178355 1.21153e-23)
(1.16857 0.114792 5.61945e-20)
(1.03969 -0.0619243 -3.56154e-21)
(0.97878 -0.0132275 -1.38442e-20)
(-0.0944677 -0.0208982 0)
(0.972468 -0.00704019 -1.71209e-20)
(1.1356 0.133458 0)
(1.08654 0.0285576 -5.82338e-20)
(-0.0757588 -0.0145832 1.23046e-19)
(1.00176 -0.0370451 -4.01415e-21)
(1.21448 0.00964769 7.20909e-21)
(0.160557 -0.0310839 2.82079e-20)
(1.17658 0.16442 4.10996e-20)
(-0.0974236 -0.0230569 7.95718e-20)
(1.0008 -0.00655313 0)
(1.22983 0.11263 -9.36527e-20)
(0.995349 1.60497e-05 8.60377e-21)
(1.03971 -0.0642026 -5.2253e-21)
(0.875189 -0.424039 -6.83133e-21)
(0.858162 -0.444246 1.91669e-22)
(-0.121786 -0.0234365 -9.29949e-20)
(0.692814 -0.112656 -8.86658e-20)
(1.01641 -0.0407348 2.64366e-21)
(-0.132792 -0.0270316 0)
(-0.0827961 -0.00826022 -2.42472e-19)
(1.14418 -0.0220855 0)
(0.991301 -0.0225406 -1.0295e-20)
(-0.113132 -0.0238782 -9.99921e-21)
(1.09747 0.0224913 -4.41866e-20)
(1.0135 -0.0746156 4.29111e-22)
(-0.190916 -0.018111 -7.84656e-20)
(1.02141 -0.00776478 -1.45328e-20)
(1.20384 -0.092514 0)
(1.00311 -0.0155773 1.08304e-21)
(1.01757 -0.041571 -2.89425e-21)
(1.1856 -0.113462 0)
(1.10571 -0.101996 0)
(-0.0907126 -0.0209771 -1.34216e-19)
(-0.0929194 -0.0242746 -1.78958e-20)
(-0.0419701 -0.00830728 0)
(1.03186 -0.0946837 9.53573e-21)
(0.0364125 -0.00673667 4.98696e-20)
(0.99082 -0.00730628 1.28475e-20)
(-0.0174009 -0.0106527 0)
(0.971288 -0.00619999 2.12171e-20)
(1.06404 0.0125482 0)
(-0.117063 -0.0250297 8.02919e-20)
(-0.0815874 -0.00994069 0)
(0.0844457 -0.012498 -1.12561e-19)
(1.07097 -0.404697 3.40193e-20)
(1.00718 -0.0230303 -2.85599e-22)
(1.15449 0.128995 -4.60915e-20)
(-0.0893075 -0.0233986 -9.3927e-21)
(1.1664 -0.182729 4.19386e-21)
(1.16045 0.130094 0)
(0.808065 -0.1068 3.7646e-20)
(0.808005 -0.139095 1.86189e-20)
(0.987098 -0.0239749 7.50228e-21)
(1.01589 -0.0231274 0)
(1.13788 -0.0400835 0)
(1.01518 -0.0226777 0)
(-0.0639472 -0.0088669 1.73396e-19)
(1.06424 0.0114411 -7.37491e-21)
(1.03339 -0.022448 0)
(1.01445 -0.127643 -1.59242e-21)
(1.01296 -0.0231671 0)
(1.17092 -0.0894762 8.78261e-21)
(1.14078 -0.0828835 7.03961e-20)
(1.21049 0.0455088 -5.61633e-20)
(1.08539 0.02653 1.59365e-20)
(1.0134 -0.00867496 0)
(1.01333 -0.000989163 -2.60339e-21)
(-0.189886 -0.0350645 -5.48405e-20)
(-0.0911966 -0.0307783 9.17471e-20)
(1.09346 -0.332513 -2.86866e-20)
(1.02769 -0.018779 -8.94447e-21)
(1.01146 -0.0404538 1.00516e-23)
(0.018625 -0.027187 -4.74496e-20)
(1.21466 -0.0642341 -1.89929e-20)
(0.615374 -0.193002 1.42634e-20)
(1.00771 -0.0228134 -2.9671e-23)
(1.10122 -0.152341 -5.234e-22)
(0.158057 -0.0278058 -1.15266e-20)
(1.13883 -0.00456314 5.2486e-21)
(1.02562 -0.0946711 0)
(1.0872 -0.0792665 0)
(1.25291 -0.151846 -8.19207e-20)
(0.245703 -0.0243197 3.75424e-20)
(1.13213 -0.11621 6.34212e-20)
(0.0776957 -0.00666494 -2.3233e-20)
(0.705984 -0.10526 6.83137e-20)
(-0.0571068 -0.00842217 -2.28124e-20)
(0.845508 -0.079607 4.91743e-20)
(1.13582 0.0036267 3.67695e-20)
(1.18446 -0.11558 2.07852e-20)
(0.97141 -0.0398445 0)
(0.990095 -0.00730759 -1.69004e-20)
(0.743327 -0.295031 9.85081e-20)
(1.07803 -0.081041 -6.02758e-20)
(1.00064 -0.0713677 0)
(1.02123 -0.00728114 1.04927e-20)
(-0.0743759 -0.0102133 8.27506e-20)
(0.0932187 0.00942772 0)
(1.10512 -0.154277 1.55039e-20)
(1.16498 0.126611 0)
(1.16945 -0.0896678 0)
(1.14349 -0.0835336 0)
(1.20096 -0.0770825 -3.96328e-20)
(0.970619 -0.0172149 0)
(0.982882 -0.00337735 -1.00882e-20)
(1.00105 -0.0056935 -1.51485e-21)
(0.0898535 0.00228885 0)
(1.1309 0.000187923 0)
(1.06588 -0.000513665 3.7875e-20)
(1.00016 -0.000534066 2.68867e-23)
(0.320114 0.056101 -5.34852e-20)
(1.13636 -0.0380259 0)
(1.17167 0.111283 0)
(-0.0935719 -0.0220241 7.82476e-20)
(0.218555 0.0151194 -2.00741e-20)
(0.233599 0.014248 1.81274e-20)
(-0.0780808 -0.0198439 -6.50295e-20)
(1.01548 -0.123253 -9.85017e-22)
(0.547181 -0.0276104 0)
(1.00058 -0.00611782 0)
(1.01336 -0.00826458 3.17476e-21)
(1.1475 -0.0527427 0)
(1.00109 -0.000407181 0)
(0.10717 -0.0100166 9.08154e-20)
(1.19007 0.0395594 7.68501e-20)
(1.19677 0.110577 -1.61018e-20)
(1.01399 -0.00833896 7.75429e-21)
(1.09492 0.0255404 0)
(1.19078 0.110656 0)
(1.21445 -0.0609782 -1.87399e-20)
(1.09319 -0.4229 0)
(1.02101 -0.117311 0)
(1.13653 -0.00246359 -1.46031e-20)
(-0.190936 -0.0250795 0)
(0.104148 0.0103801 0)
(1.21424 0.0181081 -2.98594e-20)
(0.886427 -0.0585472 0)
(0.974946 -0.0181986 -2.46206e-20)
(1.0173 -0.0178123 -7.16298e-21)
(1.16559 -0.0932641 -6.10019e-20)
(1.13078 -0.00190148 0)
(-0.122006 -0.0203795 0)
(1.08072 -0.0481387 2.82504e-21)
(1.00259 -0.0695155 0)
(1.14523 0.131784 -2.16863e-20)
(1.2108 0.020514 1.83614e-20)
(1.0465 -0.0147808 7.04677e-21)
(1.03922 -0.0324514 5.00471e-21)
(0.708787 -0.14753 -6.64309e-20)
(1.1861 -0.121486 -5.26188e-20)
(0.115799 -0.0195528 -4.53267e-20)
(0.159715 -0.0265419 -3.80467e-20)
(1.11903 -0.00136258 -6.70121e-21)
(0.945664 -0.672484 0)
(0.0889034 -0.0198754 0)
(0.936072 -0.0144852 0)
(1.13033 0.0200704 6.41404e-20)
(0.123514 -0.00552805 -2.46647e-20)
(1.07132 -0.056306 0)
(1.1236 0.137404 -8.84462e-20)
(1.01089 -0.0395244 0)
(1.18729 -0.118963 -2.45393e-20)
(1.00012 -0.00221972 5.498e-21)
(1.11291 -0.0962575 -7.74627e-21)
(1.01617 -0.0825209 3.64506e-21)
(0.980122 -0.0121492 0)
(1.23389 -0.0234113 4.71046e-20)
(1.04465 -0.0242407 1.16863e-20)
(0.156913 -0.537176 1.28606e-19)
(1.01406 -0.00793008 -6.08335e-21)
(1.2092 -0.0139899 6.93361e-21)
(-0.116701 -0.0209568 1.5684e-19)
(0.0904823 -0.00849248 1.05806e-19)
(0.897906 -0.0681821 -3.19566e-20)
(1.13102 0.0220049 -4.5116e-20)
(1.00003 -0.00118067 -3.25236e-21)
(0.745825 -0.274167 1.8922e-20)
(1.00053 -0.0106703 -8.3667e-22)
(1.10989 -0.0967546 0)
(0.0193118 -0.0653169 -4.62216e-20)
(0.891992 -0.0593108 -2.86365e-20)
(1.07169 -0.0541922 0)
(0.996224 0.00150233 3.5514e-23)
(0.146011 -0.0261764 0)
(1.02035 -0.0137501 5.52311e-21)
(1.0276 -0.459354 -1.46955e-19)
(0.14992 -0.0269627 2.17229e-20)
(1.16039 -0.179824 -3.92317e-21)
(1.00011 -0.00051445 -1.25892e-22)
(1.22529 -0.275527 0)
(-0.0916609 -0.024559 1.55199e-19)
(0.390485 0.061842 2.91345e-20)
(1.12662 0.134833 9.23883e-20)
(1.11107 -0.0324892 0)
(0.708741 -0.326777 0)
(1.22989 -0.0216327 4.94178e-20)
(1.09445 0.0277507 2.15725e-20)
(1.07236 -0.387692 -2.87542e-21)
(1.03163 -0.130855 0)
(-0.0428236 -0.0145051 -3.36129e-20)
(1.19423 -0.0513861 1.14548e-19)
(1.00945 -0.000788068 0)
(1.08523 -0.0252222 1.34867e-20)
(1.15123 0.133381 7.85205e-20)
(0.305373 0.0535077 5.70514e-20)
(0.18382 0.00784632 0)
(1.01687 -0.0170186 -2.61596e-21)
(0.591267 -0.189053 0)
(0.99161 -0.00828002 -1.37479e-20)
(1.23793 0.0179179 4.09997e-20)
(1.20975 -0.0682461 0)
(1.08741 -0.02492 2.09511e-20)
(1.13881 -0.0351188 -9.06549e-20)
(1.19482 -0.0544036 -1.24623e-19)
(0.99713 -0.0214169 -8.16703e-21)
(0.803251 -0.1163 -4.3962e-20)
(1.16815 0.0962657 -1.15558e-20)
(0.986753 -0.0358626 2.43032e-20)
(0.997292 -0.00580875 0)
(0.980123 -0.0111106 0)
(0.892523 -0.0665047 7.39539e-20)
(0.232699 -0.003621 0)
(-0.243509 -0.0275372 -2.29734e-19)
(1.1383 -0.0155033 8.0738e-20)
(1.02869 -0.0193966 0)
(1.21826 -0.0587312 0)
(1.20542 -0.0728306 8.05605e-20)
(1.2021 0.0333776 0)
(1.13766 -0.032854 7.99589e-20)
(0.203395 -0.00700537 0)
(-0.0955356 -0.0238538 3.8689e-20)
(1.0885 -0.0351337 0)
(1.11262 -0.0033117 -2.94539e-20)
(1.27734 -0.176616 -9.02534e-20)
(1.0181 -0.0227816 2.91491e-21)
(1.0012 -0.00543189 3.12812e-21)
(1.20601 0.0303707 0)
(1.11654 -0.126851 -3.33784e-21)
(1.0218 -0.0141464 -1.43771e-20)
(1.00013 -0.00218421 3.37576e-21)
(1.00025 -0.0109531 0)
(1.00391 -0.000557672 2.92529e-23)
(1.11187 -0.0216243 -1.22451e-19)
(1.00121 -0.00573756 3.26849e-21)
(0.138928 -0.00253063 0)
(1.1341 -0.0181091 0)
(1.00823 -0.0317271 0)
(0.319364 0.0558512 -1.44016e-20)
(0.000900508 -0.02571 3.93981e-20)
(0.973172 -0.0125926 0)
(1.21244 -0.0116674 -3.0634e-20)
(-0.0897707 -0.0224808 1.8949e-20)
(0.97016 -0.0422018 0)
(0.971864 -0.0118432 0)
(1.13658 -0.0208857 0)
(-0.102771 -0.022712 0)
(0.377652 -0.0122983 -3.15669e-20)
(1.15683 -0.0447918 0)
(1.00218 -0.00053531 0)
(0.571244 -0.0281553 5.46946e-20)
(1.00063 -0.00643237 0)
(1.16046 -0.0495048 -6.1962e-20)
(-0.0721458 -0.0218211 0)
(0.992687 -0.0332988 1.02301e-19)
(1.06439 -0.00092571 1.39588e-20)
(1.30367 -0.193229 9.52558e-20)
(1.21976 -0.154936 0)
(-0.0259585 -0.00559008 1.31335e-19)
(1.16804 -0.0920066 0)
(0.778917 -0.0854086 -2.15407e-21)
(0.113622 -0.00534779 -2.33419e-20)
(0.0678014 -0.0269044 0)
(0.956628 -0.0453049 -3.01358e-20)
(1.04049 -0.0333737 0)
(-0.192149 -0.0158232 -9.38282e-20)
(-0.0325203 -0.0173629 0)
(0.466846 -0.442734 -4.0249e-20)
(0.502095 -0.447525 0)
(0.934376 -0.0156608 -5.85397e-21)
(1.15304 -0.0519038 1.15942e-19)
(0.940794 -0.110798 6.71095e-22)
(0.0489495 -0.00458052 0)
(0.783422 -0.131618 0)
(1.00734 -0.00177814 -7.25143e-22)
(1.02067 -0.000273646 1.5611e-20)
(1.05861 -0.0880079 5.61587e-22)
(-0.0552123 -0.0101675 -1.07468e-19)
(0.211168 -0.542853 -3.97615e-21)
(1.01817 -0.022006 -4.7402e-21)
(0.077842 -0.0103154 -7.17361e-20)
(0.93056 -0.10765 -1.77994e-20)
(1.08717 -0.0820753 1.11258e-20)
(1.06626 0.000597101 -2.56617e-20)
(-0.121859 -0.0216154 0)
(1.2185 -0.0553908 -1.9575e-20)
(1.14149 0.135357 0)
(1.01424 -0.0800796 -4.79576e-22)
(1.06934 -0.0527744 0)
(0.463213 0.088241 0)
(0.974691 -0.0199051 2.62241e-20)
(1.20432 -0.0765777 4.1982e-20)
(1.08742 -0.033439 0)
(1.13663 -0.0230648 3.87961e-20)
(0.924765 -0.109804 0)
(0.990946 -0.00815777 1.40207e-20)
(1.00903 -0.0314611 0)
(1.1668 -0.115248 -7.73548e-21)
(1.17167 -0.178893 0)
(1.19756 -0.0461599 -1.15606e-19)
(1.23853 -0.154324 7.87187e-20)
(0.472954 0.09036 1.13089e-20)
(1.00166 -0.0728761 1.66126e-21)
(0.13371 -0.0264899 4.7287e-20)
(1.24655 0.00691586 -3.14333e-20)
(1.02774 -0.0106351 8.93298e-21)
(0.958139 -0.0291927 -1.06232e-19)
(1.18682 -0.0111694 2.2906e-20)
(-0.0708361 -0.0231417 6.62111e-20)
(1.05716 -0.0854089 9.53521e-21)
(1.10493 0.0890205 -2.22721e-20)
(1.20836 0.164231 -4.21874e-20)
(1.2424 -0.114658 -1.97934e-20)
(1.16501 -0.120434 0)
(0.0315958 -0.0044909 -9.57877e-22)
(1.04254 -0.0447852 -4.77917e-21)
(1.14984 0.0331149 -1.34213e-19)
(-0.2857 -0.0217216 -2.03778e-19)
(1.10141 -0.042925 3.1381e-20)
(-0.0160575 -0.0096626 1.19494e-21)
(1.10742 -0.0474042 2.47084e-20)
(0.177323 -0.0268516 0)
(1.11079 -0.00445938 2.58737e-20)
(1.09027 0.050362 3.50824e-20)
(1.19043 -0.0580475 -4.23924e-22)
(1.18537 -0.160612 -1.11893e-19)
(0.982854 -0.0043198 1.11285e-20)
(1.08426 -0.0398703 2.97789e-20)
(1.11931 -0.129329 4.194e-21)
(1.09722 0.0247373 2.77534e-20)
(1.01025 -0.0242824 0)
(1.13971 -0.0133232 -3.6565e-20)
(0.452937 -0.0193814 7.41879e-20)
(0.992084 -0.0225505 -2.34032e-21)
(1.13156 0.0167741 -1.05493e-20)
(-0.202227 -0.0363106 0)
(1.06306 -0.0488713 -2.32718e-20)
(1.24691 -0.437475 0)
(1.11096 0.0446435 2.97185e-22)
(0.446066 -0.0164058 -2.83164e-20)
(1.07335 -0.0581122 0)
(1.11592 0.0751106 -2.76175e-21)
(0.927996 -0.651299 0)
(1.21278 -0.0677099 2.41015e-20)
(1.13523 -0.0448323 -9.942e-20)
(0.154153 -0.000182441 -6.10604e-23)
(-0.114853 -0.024399 -1.32689e-19)
(1.21164 -0.276562 -3.70182e-20)
(0.996378 -0.0214043 4.81848e-21)
(1.16503 -0.113416 7.65809e-21)
(1.10596 -0.0544397 0)
(1.10763 0.0862761 -2.2527e-20)
(1.02593 -0.0203011 4.60716e-21)
(-0.196732 -0.0228481 0)
(0.428421 -0.0260959 -1.99453e-23)
(1.22393 -0.0976857 1.51037e-19)
(1.06942 -0.0507019 -4.93016e-21)
(1.19324 -0.0575095 -1.4139e-20)
(1.22951 0.0884327 1.26703e-19)
(-0.22795 -0.0304898 2.3179e-19)
(1.02495 -0.00450171 0)
(-0.2248 -0.0165642 -5.28961e-20)
(1.18935 -0.150638 1.01005e-19)
(0.421522 -0.245624 -7.63036e-20)
(1.03532 -0.133626 0)
(0.979003 -0.0657447 0)
(0.985974 -0.0119708 0)
(1.00127 -0.000348642 0)
(-0.0930363 -0.0157058 -1.51318e-19)
(1.2246 0.0763493 6.35872e-21)
(0.989788 -0.00355241 0)
(1.07173 -0.034484 6.81849e-21)
(1.1343 0.0159968 0)
(1.01153 -0.00885602 5.39169e-21)
(0.475847 -0.0252141 7.88016e-20)
(1.15519 -0.0501731 -6.52641e-20)
(1.18416 -0.012593 -2.09614e-20)
(1.08292 -0.00561839 0)
(1.04345 -0.0437391 0)
(0.97136 -0.000881274 -8.66091e-21)
(1.23848 -0.118237 0)
(1.00716 -0.030696 0)
(0.972493 0.000139909 1.45411e-20)
(0.811152 0.14343 2.17431e-20)
(0.477349 -0.0210778 -8.82045e-20)
(1.02291 -0.0919535 0)
(1.22466 0.154564 0)
(0.995575 0.000419337 -8.15276e-21)
(1.00134 -0.00547335 -1.62768e-21)
(1.0652 -0.0501946 1.51801e-20)
(1.19797 -0.0490613 1.2649e-19)
(1.10424 0.0491944 3.50962e-20)
(1.01 -0.025709 -1.37179e-21)
(1.05402 -0.0375565 2.53053e-21)
(1.09395 -0.322225 5.93418e-20)
(1.06473 -0.0247641 0)
(0.514472 -0.0274514 -6.07091e-20)
(1.00107 -0.00653807 -1.8408e-21)
(1.08492 0.0103653 2.13354e-20)
(0.355004 0.0514971 -3.3121e-20)
(0.930669 -0.151751 7.19114e-21)
(1.01955 -0.00100267 -3.87268e-21)
(1.00021 -0.0057084 0)
(1.08217 -0.00690073 0)
(1.04969 -0.0137617 3.04961e-20)
(1.20136 -0.326312 -3.87795e-20)
(0.737296 0.134294 7.09048e-20)
(1.113 -0.0311602 -9.8357e-21)
(0.329714 -1.12616 8.26142e-20)
(1.06715 -0.0491228 0)
(0.999555 -0.0082805 -4.1966e-21)
(0.155851 -0.023704 -1.50485e-23)
(1.21343 0.157984 4.34485e-20)
(0.873354 -0.114115 0)
(0.99287 -0.0268074 1.60735e-22)
(0.0490283 -0.0263444 7.05943e-20)
(0.854561 -0.0849935 2.29458e-20)
(1.21294 -0.618765 -1.63278e-20)
(0.986572 -0.0230193 0)
(1.09079 -0.0751382 1.97767e-20)
(1.16731 -0.118775 -7.54542e-21)
(1.10689 0.0186188 0)
(0.10227 -0.0266946 -1.32074e-19)
(1.21149 0.0925045 -1.15552e-19)
(1.23289 -0.101758 -1.18894e-19)
(0.971023 -0.0666602 7.69016e-21)
(1.16926 -0.0916635 0)
(0.998114 -0.0229414 0)
(0.283419 0.0496821 0)
(1.11169 0.0427191 1.56899e-20)
(1.2111 0.0237761 -1.26161e-21)
(1.10532 -0.052064 0)
(1.01506 -0.0770968 4.6672e-22)
(0.936773 -0.149823 -6.00782e-21)
(1.14987 -0.0505154 5.69535e-20)
(1.00178 -0.000504379 0)
(-0.252322 -0.0223492 5.25676e-22)
(0.130498 -0.0245149 2.77586e-20)
(0.5621 -0.0341583 1.52621e-19)
(-0.168612 -0.0292352 1.33357e-19)
(0.751582 0.134584 -6.52415e-20)
(-0.105108 -0.00894774 6.84127e-20)
(1.20862 -0.0725744 -8.94977e-20)
(0.908636 -0.0721206 0)
(0.999645 -0.00268291 1.56676e-20)
(1.27381 -0.456992 -4.35007e-20)
(0.990618 -0.00244807 0)
(1.01001 -0.0235091 -3.17936e-22)
(0.902148 -0.0883801 3.00477e-20)
(0.123966 -0.0107672 -1.09786e-19)
(1.07103 -0.0248358 3.00312e-20)
(0.967377 -0.0346713 3.26541e-21)
(1.05495 -0.263095 -2.69773e-20)
(1.12976 -0.0661593 6.57266e-21)
(0.988957 0.00248153 1.54876e-20)
(0.718781 -0.0198205 7.0206e-20)
(1.00596 -0.0216797 0)
(0.186603 -0.0264564 5.6743e-20)
(1.19491 -0.313068 0)
(1.00346 -0.0162443 -1.26754e-21)
(1.06697 -0.0136174 -2.84999e-20)
(1.18791 -0.134733 0)
(0.951724 -0.0320884 -1.38794e-20)
(1.02108 -0.0143475 -4.77423e-21)
(1.19088 -0.12183 -2.04865e-20)
(1.18584 -0.413041 2.55805e-20)
(1.03259 -0.00457387 6.20212e-21)
(0.040679 0.004735 5.69927e-20)
(1.20161 -0.0832037 0)
(1.20705 -0.0210079 0)
(0.969749 -0.0648156 0)
(0.822437 0.142175 0)
(-0.0820617 -0.0244882 -8.7853e-20)
(1.03329 -0.00484314 -7.31572e-21)
(1.1752 -0.0933253 1.13422e-20)
(1.01396 -0.0405254 1.98318e-21)
(1.00636 -0.0223522 6.20184e-22)
(0.958958 0.193031 4.84025e-20)
(0.182989 -0.0254061 4.78217e-20)
(1.11709 -0.058224 2.93368e-20)
(1.10178 0.0491024 -2.92051e-20)
(0.99007 -0.00107396 1.61256e-21)
(1.12555 0.0569003 0)
(0.181295 -0.0275119 -1.1455e-20)
(0.0928432 -0.00156022 0)
(1.03636 -0.00875691 -1.50206e-20)
(-0.177073 -0.0135094 -2.09774e-19)
(1.00968 -0.0249677 9.16136e-22)
(1.01513 -0.0415035 -2.05191e-21)
(1.13745 -0.0436349 8.21504e-20)
(1.0803 0.0178333 3.36429e-20)
(1.02525 -0.00416345 3.77249e-21)
(1.01078 -0.0744359 -2.60991e-22)
(0.0574271 0.00461947 -1.17271e-19)
(1.18128 -0.158798 -8.72734e-20)
(0.0272842 0.00355745 -1.28067e-19)
(1.06864 -0.0249815 3.74933e-21)
(0.991749 -0.00902273 -6.69299e-21)
(0.252672 -0.000197552 0)
(0.999385 -0.00347558 0)
(1.1658 -0.108782 1.42243e-20)
(1.0889 0.00133097 2.71415e-20)
(1.09994 0.0190081 4.38158e-20)
(1.11005 -0.0374489 1.13532e-20)
(0.488674 0.0784777 0)
(-0.0767579 -0.0240937 -8.80752e-23)
(1.08097 -0.0436665 -2.66563e-20)
(-0.237924 -0.0177182 9.49297e-20)
(1.06293 -0.00343415 0)
(1.14888 -0.0644986 0)
(0.355402 0.0600313 1.59252e-20)
(-0.0394371 -0.0113147 0)
(1.00766 -0.0400091 7.28831e-22)
(0.9974 -0.0227204 4.79786e-21)
(0.814907 -0.147761 0)
(0.0399605 0.00394897 1.34182e-19)
(1.16244 0.171904 -3.35511e-20)
(1.12267 0.056854 0)
(1.1431 -0.565086 -1.08865e-19)
(1.08026 0.019044 -4.08797e-20)
(1.10839 -0.00249431 -2.85732e-20)
(0.175971 -0.0866316 -1.31467e-19)
(0.689738 -0.0194677 0)
(1.06922 -0.314809 -8.9065e-21)
(0.169087 -0.0260988 1.21136e-22)
(1.23412 0.0632957 8.33836e-20)
(0.460408 0.0875876 -2.04925e-20)
(1.03837 -0.0427668 -1.29996e-20)
(1.16353 0.168627 -1.03186e-19)
(1.07323 -0.0767333 4.57533e-22)
(0.999384 -0.00717009 0)
(-0.149516 -0.0203797 0)
(0.420363 -0.0117474 3.52517e-20)
(1.02036 -0.122097 0)
(1.13784 0.00105069 -3.79548e-20)
(0.998763 -0.0333974 0)
(0.500508 -0.833692 0)
(1.11201 -0.180494 1.87251e-20)
(0.801282 -0.243763 -4.33796e-22)
(1.00642 -0.031139 -1.32303e-21)
(1.00078 -0.000492129 1.26833e-22)
(0.907879 -0.0399611 0)
(1.1276 -0.0675932 0)
(1.00116 -0.00634328 -3.46432e-21)
(0.100096 -0.0114479 9.6254e-20)
(1.0009 -0.000574502 0)
(1.23284 0.0594035 -7.77895e-20)
(0.96478 -0.0628627 -2.04818e-22)
(1.11074 0.0876942 1.27213e-20)
(0.98806 -0.0236743 -1.59282e-20)
(0.988219 0.00248689 9.99352e-21)
(1.07132 -0.158341 1.36106e-20)
(-0.174076 -0.0152398 -1.94905e-19)
(1.13369 -0.0500798 0)
(0.0659905 -0.00807958 5.24039e-20)
(1.09039 -0.0780094 -4.50521e-20)
(1.01166 -0.00986401 -9.02155e-23)
(1.03051 -0.0135201 1.16522e-20)
(1.14817 -0.0556199 -3.65029e-21)
(1.05266 -0.0383846 -1.44322e-20)
(1.16021 -0.0848197 0)
(1.07517 -0.0279631 -1.71629e-20)
(0.873443 -0.106583 0)
(1.18156 0.173775 -8.19263e-20)
(0.999274 -0.00318305 -1.32448e-20)
(0.215691 0.00179058 -5.21401e-20)
(1.00007 -0.00156526 3.72928e-21)
(1.11207 0.109053 7.11657e-20)
(-0.223751 -0.0171211 -1.05106e-19)
(0.294687 0.0306227 7.29703e-20)
(0.88064 -0.0197874 -2.99712e-20)
(1.00369 -0.318286 0)
(1.04484 -0.262823 0)
(1.17751 -0.218635 3.96513e-20)
(0.395654 -0.0113107 2.04274e-20)
(1.03881 -0.0101337 1.30032e-20)
(0.639822 -0.014504 -2.25169e-20)
(0.935507 -0.1126 -1.83662e-20)
(1.10393 -0.0438499 -3.59253e-20)
(-0.157546 -0.0324397 -1.18322e-19)
(1.18376 -0.0980073 -5.29868e-20)
(1.02814 -0.0111801 -1.2382e-20)
(1.15804 -0.0851744 -5.64052e-21)
(1.04587 -0.01382 0)
(0.412305 0.0772008 -3.42443e-20)
(-0.102326 -0.0188237 0)
(1.02013 -0.043879 -2.75317e-21)
(0.691327 -0.137819 9.16875e-20)
(0.474315 -0.0266065 7.26394e-20)
(0.999991 -0.00133669 -5.02316e-21)
(0.999985 -0.00174105 0)
(1.11619 0.0805319 7.89557e-21)
(0.189383 -0.00464047 4.26168e-20)
(0.899231 0.151395 6.22807e-20)
(0.972199 -0.0104053 7.41032e-21)
(1.18719 -0.0628427 0)
(1.0628 -0.0244494 -1.14428e-20)
(0.987014 0.00163796 1.66031e-20)
(1.17199 0.182509 1.03388e-19)
(1.18998 -0.0622443 0)
(1.16591 -0.169393 -3.15857e-20)
(1.02363 -0.00379475 0)
(1.17088 0.0925624 -1.48643e-20)
(0.899937 -0.196188 -4.32779e-21)
(1.11092 0.0709005 0)
(0.95576 -0.0127537 7.06561e-20)
(1.0015 -0.0667091 -1.07472e-21)
(1.10601 -0.180568 3.81938e-21)
(0.912002 -0.0411673 -2.60386e-20)
(1.16887 0.10542 0)
(1.14251 -0.0192035 4.66569e-20)
(1.14266 -0.0245357 4.29166e-20)
(1.05808 -0.304003 1.41603e-20)
(1.16431 -0.601392 3.60118e-20)
(1.19746 -0.0868629 0)
(0.520329 0.0178927 -9.75904e-23)
(1.23913 -0.12989 7.58112e-20)
(1.16473 0.122672 0)
(-0.0448032 -0.0198807 -6.57653e-20)
(1.0088 -0.169593 -3.00198e-21)
(0.92164 0.183961 -7.00701e-20)
(1.21038 -0.0186718 0)
(1.03052 -0.0237966 -7.57127e-21)
(1.10634 -0.00355727 0)
(1.19572 -0.0842864 -2.01211e-20)
(1.0463 -0.0915376 0)
(1.00327 -0.014981 0)
(1.00385 -0.0142224 1.90359e-22)
(1.1192 0.107529 3.68889e-20)
(0.0237543 -0.00721103 -5.3631e-20)
(1.08685 0.00986379 -2.96387e-20)
(0.125412 -0.026673 4.76917e-20)
(1.01143 -0.0101723 3.18404e-22)
(0.857083 0.141424 -1.22273e-20)
(0.990875 -0.34826 0)
(-0.0945476 -0.021457 1.9412e-20)
(1.15659 -0.088076 5.81156e-21)
(1.07572 -0.0578965 0)
(1.07179 -0.0297951 0)
(-0.0795642 -0.0203694 -1.59737e-20)
(1.16646 -0.165602 -7.25961e-22)
(1.00948 -0.163352 0)
(1.20631 0.0807838 -9.2146e-20)
(1.04239 -0.0414398 -4.71585e-22)
(1.2709 -0.406506 4.14716e-20)
(1.11629 0.109899 -5.71564e-22)
(1.23359 0.0524002 0)
(1.10017 -0.0622846 0)
(1.19802 -0.140945 0)
(0.98666 -0.0124591 -1.14678e-20)
(1.00008 -0.00181895 -7.55834e-21)
(0.939362 -0.0141716 0)
(0.986314 0.000938213 -1.35791e-20)
(0.325415 0.0524759 -5.17093e-20)
(1.00367 -0.000678928 0)
(1.18315 0.185487 -5.83079e-20)
(0.218873 -0.00303634 2.17707e-20)
(1.15757 -0.0895357 0)
(0.107239 -0.00230941 -4.86348e-20)
(-0.0797047 -0.0244151 1.3929e-19)
(1.23809 0.0502584 0)
(1.18416 -0.213828 1.82188e-20)
(0.88326 -0.0272659 -3.94764e-20)
(0.998588 0.000375262 2.20571e-21)
(0.981398 -0.0103907 0)
(1.02015 -0.00778261 5.48228e-21)
(1.02971 -0.0135303 -1.40267e-20)
(1.00105 -0.000527615 4.32024e-22)
(1.15141 -0.0597754 0)
(1.17155 -0.0865095 8.90704e-20)
(0.896684 -0.207182 0)
(0.970888 -0.0436534 -6.4605e-20)
(1.0172 -0.0648719 0)
(0.111597 -0.0052369 0)
(0.999972 -0.000202166 0)
(-0.138657 -0.0410556 0)
(1.099 -0.104739 0)
(0.999918 -0.000395457 -2.02385e-21)
(0.996951 0.0008094 0)
(0.274422 0.0256657 0)
(1.07913 -0.0519883 0)
(0.81954 0.0837034 -3.46825e-20)
(0.42578 -0.0166865 0)
(1.13277 0.00347123 0)
(1.16497 -0.0151347 -8.47091e-20)
(1.0322 -0.00354603 6.44133e-21)
(0.235007 -0.0256871 -3.85441e-20)
(0.978883 -0.0780809 1.17165e-20)
(1.07194 -0.0264454 -3.60835e-20)
(1.16981 0.176549 9.30473e-20)
(0.998623 -0.000112513 -1.12831e-20)
(0.970484 -0.0379406 1.41674e-20)
(1.03554 -0.0150235 0)
(1.11536 0.0389515 -3.75533e-20)
(-0.0120272 -0.0087016 -2.78242e-20)
(1.08332 -0.0728358 0)
(1.103 -0.0578336 -6.95131e-20)
(1.19266 -0.154731 -9.75488e-20)
(0.0660297 -0.00249836 -2.53448e-20)
(0.883942 -0.0494158 0)
(0.979416 -0.101111 -1.38862e-20)
(0.413864 0.074578 5.81413e-20)
(1.01973 -0.00754129 0)
(0.403971 0.0742227 -1.3952e-20)
(1.00042 -0.00126385 -5.59959e-22)
(1.0656 -0.0231197 2.61559e-20)
(1.2017 -0.0934477 1.3875e-20)
(1.16536 0.0503766 -4.66667e-21)
(1.20909 0.0406004 3.96775e-20)
(1.14701 -0.119211 -2.38879e-20)
(1.13596 -0.0485983 2.24256e-20)
(0.99951 -0.000920069 0)
(0.999986 -0.000203802 0)
(1.15164 -0.0655916 7.05053e-20)
(1.03998 -0.0429093 0)
(0.999623 -0.000821452 6.14886e-21)
(1.08568 0.0161416 0)
(1.19158 -0.182835 0)
(1.00418 -0.00480637 -5.94873e-22)
(1.16968 -0.231705 -4.35114e-20)
(1.25119 -0.420753 5.83311e-20)
(0.897045 0.108781 0)
(1.14654 -0.116331 0)
(0.0197313 -0.0218169 0)
(0.836175 -0.0823679 -7.07456e-21)
(0.998445 0.000159764 9.21015e-21)
(1.16444 -0.12664 -5.75878e-20)
(1.01086 -0.0104258 3.87794e-21)
(1.08551 -0.0379317 -3.63661e-21)
(0.561126 0.0243798 -1.69089e-20)
(0.499664 0.0939937 0)
(0.637533 -0.0121008 -1.61397e-20)
(0.465756 0.0848789 -5.63026e-20)
(1.02389 -0.0448353 3.67485e-21)
(1.02011 -0.0430512 0)
(0.968125 -0.262698 0)
(0.998273 -0.0636886 -3.32755e-21)
(1.02048 -0.0208611 6.81853e-21)
(0.726538 -0.352826 -8.60013e-20)
(1.24089 0.0220564 4.1853e-20)
(-0.0271807 -0.00900661 0)
(1.10961 0.11126 -6.97411e-20)
(1.16903 0.0496797 0)
(0.984764 -0.000806438 -1.96184e-20)
(1.01933 -0.0143018 -3.1375e-21)
(1.28541 -0.286614 4.9036e-20)
(1.18322 -0.0176223 8.91847e-20)
(1.06782 -0.0233356 0)
(0.999804 -0.000287067 2.0956e-21)
(1.20737 0.048877 3.68408e-20)
(1.16901 -0.096651 -7.20725e-20)
(0.138321 -0.0265769 -1.31683e-22)
(0.970904 -0.0152155 -1.41891e-20)
(1.0009 -0.00321094 0)
(-0.0343523 -0.0110402 8.89875e-20)
(0.956963 -0.0113641 -2.88848e-20)
(1.10868 -0.0426487 4.97477e-20)
(1.01119 -0.00833517 -7.84758e-21)
(0.136281 -0.01242 -2.09299e-20)
(1.00891 -0.000447657 1.87901e-21)
(-0.209801 -0.0177722 0)
(0.994463 -0.00251192 0)
(1.1547 -0.183415 0)
(1.12462 -0.0237609 -3.23704e-20)
(0.946192 -0.266713 0)
(1.10272 -0.0613428 2.66874e-20)
(0.990746 -0.0214302 8.07883e-21)
(1.07094 -0.0374126 0)
(1.00306 -0.00346076 1.06432e-22)
(1.17955 0.189669 1.86166e-20)
(0.959387 -0.0207643 -2.8649e-20)
(0.208592 0.0171306 0)
(1.04469 -0.0409855 -9.81319e-21)
(0.783194 -0.000666438 0)
(0.179942 -0.0202542 4.54656e-20)
(1.09503 -0.0652303 -3.44295e-20)
(1.00361 -0.00247737 -4.23414e-22)
(-0.174201 -0.04005 1.71022e-19)
(0.715385 0.123045 -2.5931e-20)
(1.08343 -0.0441803 5.64059e-20)
(1.16319 0.0547087 -7.05093e-20)
(0.98153 -0.00941261 -1.68253e-21)
(0.0996514 -0.00495313 0)
(1.03137 -0.024592 -7.95819e-21)
(1.19331 -0.0849937 -2.3091e-20)
(0.99861 -0.00757866 5.03457e-21)
(1.0033 -0.00359394 -7.22957e-23)
(0.868459 0.093246 6.54649e-20)
(1.11187 -0.0359891 0)
(1.00022 -0.00604378 0)
(1.08855 0.0286463 6.71192e-20)
(0.142325 -0.0299165 -5.0092e-20)
(0.745319 -0.777737 -1.88618e-20)
(0.443989 -0.0268498 -5.64688e-20)
(1.01598 -0.0168289 -2.32619e-21)
(-0.0263004 -0.019407 -1.6155e-20)
(0.996997 -0.00607858 0)
(1.00404 -0.00453832 4.51581e-22)
(0.972009 -0.018217 -2.87978e-20)
(1.02065 -0.000374797 5.34304e-21)
(0.999877 -0.00227921 0)
(0.419532 -0.0256263 -3.66269e-20)
(0.525737 0.00843905 3.60901e-20)
(1.04507 -0.0254222 7.54089e-21)
(1.00094 -0.000789924 1.24801e-22)
(1.11945 -0.0562477 -3.05397e-20)
(1.01354 -0.0231936 0)
(-0.139297 -0.044629 -5.04295e-20)
(1.16658 -0.124532 7.33745e-20)
(-0.0723472 -0.0204731 -4.85366e-20)
(0.123666 -0.00375898 0)
(1.07013 -0.0384761 -1.18371e-20)
(1.1715 0.101537 -5.28429e-20)
(0.999341 -0.00755882 0)
(1.12951 -0.0216429 -3.16782e-20)
(0.985086 -0.331857 5.068e-21)
(1.03812 -0.0093843 -7.41029e-21)
(1.00036 -0.00125259 0)
(1.22906 -0.257162 0)
(-0.0937461 -0.0190873 0)
(1.16319 -0.0125078 5.00781e-20)
(-0.246611 -0.0239234 0)
(1.15552 0.0184099 4.61764e-20)
(0.995658 -0.000424664 4.33105e-21)
(1.11761 -0.0674918 0)
(1.16379 0.0575643 9.95553e-20)
(-0.170511 -0.0165981 9.34099e-20)
(1.10899 -0.0218538 4.71254e-20)
(1.02668 0.119174 3.74461e-21)
(1.18507 -0.0196527 -9.69908e-20)
(1.00023 -0.00240429 -6.16278e-21)
(0.573719 -0.167508 -4.44826e-20)
(0.454876 -0.129698 -2.45401e-20)
(0.0296123 -0.00197008 0)
(1.19867 -0.0991613 -6.5008e-23)
(0.982308 0.198352 -8.88009e-21)
(0.97379 -0.0677784 -7.80414e-21)
(0.729418 -0.339342 0)
(0.972017 0.00191289 0)
(1.06048 -0.00595137 -2.83813e-20)
(1.04573 -0.0883772 0)
(1.00718 -0.00140385 0)
(0.417654 -0.0262593 -5.03415e-21)
(1.01367 -0.063478 1.17596e-21)
(1.00355 -0.00227549 -7.67922e-22)
(1.00892 -0.0402808 0)
(1.01247 -0.0616327 -2.49551e-21)
(0.112797 -0.0126687 5.88446e-21)
(1.19971 -0.080369 0)
(1.01033 -0.0143088 2.32058e-21)
(1.12023 -0.0660829 4.84526e-21)
(-0.10064 -0.0204437 1.88203e-20)
(1.03153 -0.0610761 -2.40256e-24)
(-0.261307 -0.021694 -9.20121e-20)
(0.954657 -0.0379642 3.80597e-20)
(1.1698 0.0330755 -3.11617e-22)
(0.16623 -0.0249014 0)
(1.00102 -0.00590231 -3.93417e-21)
(1.17178 0.180221 0)
(1.05301 -0.103192 -3.47629e-20)
(1.09749 -0.066967 1.16403e-20)
(0.704237 -0.805098 0)
(1.01605 -0.0632058 8.13994e-22)
(1.18119 -0.108671 5.2304e-20)
(1.11219 0.0745258 0)
(0.179514 -0.029923 4.59852e-20)
(1.04806 -0.00732955 0)
(0.117272 0.00596192 -4.83222e-20)
(1.0993 -0.0448873 5.15672e-20)
(-0.0353586 -0.0255684 0)
(-0.133865 -0.0173898 8.40505e-20)
(0.0880198 -0.00259503 5.91177e-21)
(1.13183 0.00910035 0)
(0.987967 -0.0194354 -4.59772e-21)
(1.02312 -0.0458833 -2.96645e-21)
(0.999966 -0.00129842 0)
(1.08898 0.0481135 -6.39438e-21)
(0.996881 -0.000927707 -3.59599e-21)
(0.119849 -0.0276326 6.36192e-20)
(1.01769 -0.114267 5.41626e-21)
(0.921109 -0.0808609 1.00607e-20)
(0.886987 -0.0461283 0)
(0.975922 -0.0665192 0)
(1.01561 -0.0162115 -9.3778e-23)
(1.07145 0.0211582 0)
(1.05186 -0.0902746 0)
(1.06661 -0.015056 0)
(1.03221 -0.0980706 -1.11638e-20)
(0.334134 -0.015869 8.39999e-20)
(1.16954 0.192156 -1.0442e-20)
(1.09963 -0.0350789 -6.08329e-20)
(1.08808 -0.15066 0)
(0.437886 -0.0266713 0)
(0.967853 -0.0373061 -5.46136e-21)
(-0.0343271 -0.00479784 -1.0723e-19)