/*--------------------------------*- C++ -*----------------------------------*\
| =========                 |                                                 |
| \\      /  F ield         | OpenFOAM: The Open Source CFD Toolbox           |
|  \\    /   O peration     | Version:  v2012                                 |
|   \\  /    A nd           | Website:  www.openfoam.com                      |
|    \\/     M anipulation  |                                                 |
\*---------------------------------------------------------------------------*/
FoamFile
{
    version     2.0;
    format      ascii;
    class       volVectorField;
    location    "600";
    object      cellDisplacement;
}
// * * * * * * * * * * * * * * * * * * * * * * * * * * * * * * * * * * * * * //

dimensions      [0 1 0 0 0 0 0];


internalField   nonuniform List<vector> 
13917
(
(0 -1.19464e-05 0)
(0 -3.80633e-05 0)
(0 -8.83815e-06 0)
(0 -2.64668e-05 0)
(0 -3.56353e-05 0)
(0 -8.89007e-06 0)
(0 -8.83382e-06 0)
(0 -8.83907e-06 0)
(0 -8.83666e-06 0)
(0 -1.01941e-05 0)
(0 -9.16689e-06 0)
(0 -1.0175e-05 0)
(0 -2.53009e-05 0)
(0 -8.81573e-06 0)
(0 -1.51258e-05 0)
(0 -1.68833e-05 0)
(0 -3.38906e-05 0)
(0 -1.05139e-05 0)
(0 -1.02435e-05 0)
(0 -5.31938e-05 0)
(0 -1.09218e-05 0)
(0 -8.83205e-06 0)
(0 -5.86276e-05 0)
(0 -8.84325e-06 0)
(0 -4.53538e-05 0)
(0 -8.83826e-06 0)
(0 -9.49139e-06 0)
(0 -9.24537e-06 0)
(0 -8.95934e-06 0)
(0 -9.55615e-06 0)
(0 -1.16779e-05 0)
(0 -1.60253e-05 0)
(0 -1.00652e-05 0)
(0 -1.31739e-05 0)
(0 -4.16403e-05 0)
(0 -8.93751e-06 0)
(0 -5.67493e-05 0)
(0 -8.81855e-06 0)
(0 -1.9521e-05 0)
(0 -8.82026e-06 0)
(0 -2.36545e-05 0)
(0 -5.55278e-06 0)
(0 -8.98683e-05 0)
(0 -9.09302e-06 0)
(0 -4.76038e-05 0)
(0 -1.20435e-05 0)
(0 -1.05926e-05 0)
(0 -1.00726e-05 0)
(0 -8.81999e-06 0)
(0 -2.5615e-05 0)
(0 -1.77812e-05 0)
(0 -2.29393e-05 0)
(0 -8.81754e-06 0)
(0 -1.28326e-05 0)
(0 -3.29151e-05 0)
(0 -1.72846e-05 0)
(0 -9.19524e-06 0)
(0 -3.8161e-05 0)
(0 -2.07071e-05 0)
(0 -4.9106e-05 0)
(0 -8.92575e-06 0)
(0 -3.80476e-05 0)
(0 -8.81569e-06 0)
(0 -5.48624e-05 0)
(0 -8.89829e-06 0)
(0 -8.86957e-06 0)
(0 -3.17936e-05 0)
(0 -3.13542e-05 0)
(0 -9.17669e-06 0)
(0 -1.23914e-05 0)
(0 -3.62273e-05 0)
(0 -8.83992e-06 0)
(0 -8.817e-06 0)
(0 -4.6725e-05 0)
(0 -8.82391e-06 0)
(0 -9.86163e-06 0)
(0 -8.81622e-06 0)
(0 -3.3143e-05 0)
(0 -8.854e-06 0)
(0 -1.6822e-05 0)
(0 -2.08135e-05 0)
(0 -3.15606e-05 0)
(0 -8.90696e-06 0)
(0 -8.81964e-06 0)
(0 -8.99208e-06 0)
(0 -3.44831e-05 0)
(0 -3.53167e-05 0)
(0 -8.87285e-06 0)
(0 -1.83192e-05 0)
(0 -9.05049e-05 0)
(0 -8.8182e-06 0)
(0 -9.74844e-06 0)
(0 -5.94299e-05 0)
(0 -1.9963e-05 0)
(0 -8.86642e-06 0)
(0 -8.90899e-06 0)
(0 -9.38316e-06 0)
(0 -1.02099e-05 0)
(0 -9.27641e-06 0)
(0 -9.00654e-06 0)
(0 -9.18503e-05 0)
(0 -1.02001e-05 0)
(0 -9.08498e-06 0)
(0 -2.92851e-05 0)
(0 -8.22403e-05 0)
(0 -8.84026e-06 0)
(0 -8.96486e-06 0)
(0 -9.9757e-06 0)
(0 -3.38285e-05 0)
(0 -1.13493e-05 0)
(0 -8.82451e-06 0)
(0 -8.82779e-06 0)
(0 -9.70296e-06 0)
(0 -8.83786e-06 0)
(0 -1.82993e-05 0)
(0 -8.83007e-06 0)
(0 -6.37387e-05 0)
(0 -8.83821e-06 0)
(0 -8.81639e-06 0)
(0 -1.30853e-05 0)
(0 -9.11105e-06 0)
(0 -9.19997e-06 0)
(0 -8.82227e-06 0)
(0 -9.28851e-06 0)
(0 -2.13262e-05 0)
(0 -2.05858e-05 0)
(0 -4.81585e-05 0)
(0 -1.7798e-05 0)
(0 -7.6695e-05 0)
(0 -8.89528e-06 0)
(0 -8.81919e-06 0)
(0 -1.87737e-05 0)
(0 -4.62423e-05 0)
(0 -9.49439e-06 0)
(0 -8.91841e-06 0)
(0 -8.84468e-06 0)
(0 -1.18871e-05 0)
(0 -8.98993e-06 0)
(0 -3.19279e-05 0)
(0 -1.31208e-05 0)
(0 -8.96288e-06 0)
(0 -7.6881e-05 0)
(0 -2.12229e-05 0)
(0 -9.04283e-06 0)
(0 -3.10076e-05 0)
(0 -8.85295e-06 0)
(0 -8.94509e-06 0)
(0 -2.379e-05 0)
(0 -8.09691e-05 0)
(0 -1.53702e-05 0)
(0 -1.0558e-05 0)
(0 -8.84109e-06 0)
(0 -9.71711e-06 0)
(0 -1.10318e-05 0)
(0 -1.68669e-05 0)
(0 -8.83332e-06 0)
(0 -1.26489e-05 0)
(0 -8.91482e-06 0)
(0 -8.81597e-06 0)
(0 -8.91755e-06 0)
(0 -1.59856e-05 0)
(0 -9.53535e-06 0)
(0 -1.54252e-05 0)
(0 -9.41925e-06 0)
(0 -9.76145e-06 0)
(0 -9.30781e-06 0)
(0 -2.97181e-05 0)
(0 -1.04287e-05 0)
(0 -5.69041e-05 0)
(0 -1.00678e-05 0)
(0 -1.12494e-05 0)
(0 -8.81632e-06 0)
(0 -9.61241e-06 0)
(0 -2.84763e-05 0)
(0 -8.86607e-06 0)
(0 -1.03757e-05 0)
(0 -8.81968e-06 0)
(0 -8.82908e-06 0)
(0 -8.85736e-06 0)
(0 -5.49749e-05 0)
(0 -9.68511e-06 0)
(0 -1.1484e-05 0)
(0 -7.71778e-05 0)
(0 -3.66879e-05 0)
(0 -1.21882e-05 0)
(0 -8.84266e-06 0)
(0 -9.0971e-06 0)
(0 -8.83981e-06 0)
(0 -1.24158e-05 0)
(0 -9.3191e-06 0)
(0 -8.95545e-06 0)
(0 -8.98804e-06 0)
(0 -9.1292e-06 0)
(0 -5.03859e-05 0)
(0 -8.98382e-06 0)
(0 -9.5846e-06 0)
(0 -1.00032e-05 0)
(0 -5.80397e-05 0)
(0 -8.99371e-06 0)
(0 -8.86728e-06 0)
(0 -1.85587e-05 0)
(0 -2.46472e-05 0)
(0 -1.06602e-05 0)
(0 -1.06364e-05 0)
(0 -8.81672e-06 0)
(0 -8.93466e-06 0)
(0 -4.19651e-05 0)
(0 -3.65894e-05 0)
(0 -1.0274e-05 0)
(0 -8.84112e-06 0)
(0 -2.1868e-05 0)
(0 -8.83241e-06 0)
(0 -8.81653e-06 0)
(0 -9.34115e-06 0)
(0 -8.18009e-05 0)
(0 -8.97616e-06 0)
(0 -1.05711e-05 0)
(0 -8.83113e-06 0)
(0 -6.10012e-05 0)
(0 -8.93527e-06 0)
(0 -5.64876e-05 0)
(0 -9.62637e-06 0)
(0 -2.78122e-05 0)
(0 -8.82602e-06 0)
(0 -8.83928e-06 0)
(0 -1.64012e-05 0)
(0 -8.88387e-06 0)
(0 -1.64317e-05 0)
(0 -8.32095e-05 0)
(0 -8.947e-06 0)
(0 -9.65874e-06 0)
(0 -1.25293e-05 0)
(0 -8.84487e-06 0)
(0 -8.81636e-06 0)
(0 -7.72869e-05 0)
(0 -1.55952e-05 0)
(0 -8.81913e-06 0)
(0 -8.98139e-06 0)
(0 -1.70129e-05 0)
(0 -7.8748e-05 0)
(0 -8.81952e-06 0)
(0 -9.29964e-06 0)
(0 -5.8032e-06 0)
(0 -8.98629e-06 0)
(0 -9.58066e-06 0)
(0 -9.60693e-06 0)
(0 -1.24965e-05 0)
(0 -1.62996e-05 0)
(0 -1.01754e-05 0)
(0 -8.81635e-06 0)
(0 -5.97143e-05 0)
(0 -9.46852e-06 0)
(0 -8.98268e-06 0)
(0 -4.94474e-05 0)
(0 -3.89217e-05 0)
(0 -1.0086e-05 0)
(0 -8.82362e-06 0)
(0 -9.78868e-06 0)
(0 -1.19705e-05 0)
(0 -1.50664e-05 0)
(0 -9.40621e-06 0)
(0 -8.82265e-06 0)
(0 -8.85498e-06 0)
(0 -8.97373e-06 0)
(0 -8.2869e-05 0)
(0 -8.81687e-06 0)
(0 -8.81899e-06 0)
(0 -8.90204e-06 0)
(0 -8.85419e-06 0)
(0 -9.7889e-06 0)
(0 -1.97738e-05 0)
(0 -2.44149e-05 0)
(0 -1.05776e-05 0)
(0 -8.83684e-06 0)
(0 -9.43326e-06 0)
(0 -2.14941e-05 0)
(0 -8.9231e-06 0)
(0 -1.13222e-05 0)
(0 -6.26859e-05 0)
(0 -8.87782e-06 0)
(0 -5.76639e-05 0)
(0 -8.86241e-06 0)
(0 -1.93879e-05 0)
(0 -6.01584e-06 0)
(0 -1.47433e-05 0)
(0 -1.08774e-05 0)
(0 -9.52385e-06 0)
(0 -8.97315e-06 0)
(0 -1.2215e-05 0)
(0 -5.50804e-05 0)
(0 -8.96832e-06 0)
(0 -8.84572e-06 0)
(0 -8.8489e-06 0)
(0 -6.15336e-05 0)
(0 -8.89624e-06 0)
(0 -2.78301e-05 0)
(0 -5.52673e-05 0)
(0 -6.41987e-05 0)
(0 -8.93588e-06 0)
(0 -2.73285e-05 0)
(0 -9.55622e-06 0)
(0 -1.2728e-05 0)
(0 -5.8825e-05 0)
(0 -1.05758e-05 0)
(0 -2.67712e-05 0)
(0 -8.82082e-06 0)
(0 -1.05388e-05 0)
(0 -9.84738e-06 0)
(0 -6.95612e-05 0)
(0 -4.04128e-05 0)
(0 -8.82037e-06 0)
(0 -8.81932e-06 0)
(0 -6.36106e-05 0)
(0 -2.74257e-05 0)
(0 -8.88357e-06 0)
(0 -5.94465e-05 0)
(0 -8.81738e-06 0)
(0 -7.11094e-05 0)
(0 -8.82731e-06 0)
(0 -4.12257e-05 0)
(0 -9.01962e-06 0)
(0 -1.34927e-05 0)
(0 -8.83823e-06 0)
(0 -1.64987e-05 0)
(0 -8.92844e-06 0)
(0 -8.96775e-06 0)
(0 -1.50956e-05 0)
(0 -9.30791e-06 0)
(0 -8.93819e-06 0)
(0 -2.99747e-05 0)
(0 -8.81943e-06 0)
(0 -8.99311e-06 0)
(0 -8.81948e-06 0)
(0 -1.45245e-05 0)
(0 -8.82173e-06 0)
(0 -1.51246e-05 0)
(0 -8.82811e-06 0)
(0 -8.97246e-06 0)
(0 -9.12657e-06 0)
(0 -9.15266e-06 0)
(0 -8.83397e-06 0)
(0 -2.24569e-05 0)
(0 -1.10932e-05 0)
(0 -8.82449e-06 0)
(0 -2.84768e-05 0)
(0 -2.12385e-05 0)
(0 -8.81603e-06 0)
(0 -8.97681e-06 0)
(0 -3.06506e-05 0)
(0 -8.97365e-06 0)
(0 -8.96796e-06 0)
(0 -8.52168e-05 0)
(0 -8.81595e-06 0)
(0 -8.947e-06 0)
(0 -5.91826e-05 0)
(0 -7.88932e-05 0)
(0 -2.70635e-05 0)
(0 -8.13449e-05 0)
(0 -8.97954e-06 0)
(0 -8.86099e-06 0)
(0 -9.01965e-06 0)
(0 -8.82128e-06 0)
(0 -5.38502e-05 0)
(0 -9.40698e-06 0)
(0 -8.81656e-06 0)
(0 -1.15086e-05 0)
(0 -8.83106e-06 0)
(0 -8.8353e-06 0)
(0 -8.8372e-06 0)
(0 -9.53732e-05 0)
(0 -8.98987e-06 0)
(0 -8.14685e-05 0)
(0 -8.9355e-06 0)
(0 -4.91874e-05 0)
(0 -8.84266e-06 0)
(0 -9.55203e-06 0)
(0 -2.23254e-05 0)
(0 -2.71882e-05 0)
(0 -1.03812e-05 0)
(0 -9.60658e-06 0)
(0 -9.86717e-06 0)
(0 -8.98022e-06 0)
(0 -8.82465e-06 0)
(0 -8.83366e-06 0)
(0 -1.00536e-05 0)
(0 -1.03303e-05 0)
(0 -7.9195e-05 0)
(0 -8.98195e-06 0)
(0 -8.83209e-06 0)
(0 -3.85842e-05 0)
(0 -8.9433e-06 0)
(0 -4.79389e-05 0)
(0 -9.00686e-06 0)
(0 -4.20664e-05 0)
(0 -2.01527e-05 0)
(0 -2.63852e-05 0)
(0 -8.83898e-06 0)
(0 -2.64513e-05 0)
(0 -8.82424e-06 0)
(0 -8.82233e-06 0)
(0 -9.22616e-06 0)
(0 -8.94566e-06 0)
(0 -3.10115e-05 0)
(0 -8.97202e-06 0)
(0 -8.95723e-06 0)
(0 -6.47053e-05 0)
(0 -8.97623e-06 0)
(0 -2.94097e-05 0)
(0 -4.56912e-05 0)
(0 -9.57964e-06 0)
(0 -1.33184e-05 0)
(0 -4.35547e-05 0)
(0 -8.24172e-05 0)
(0 -9.00059e-06 0)
(0 -1.45287e-05 0)
(0 -8.82096e-06 0)
(0 -8.85591e-06 0)
(0 -8.81783e-06 0)
(0 -9.14027e-06 0)
(0 -8.86048e-06 0)
(0 -8.81846e-06 0)
(0 -1.16824e-05 0)
(0 -5.57923e-05 0)
(0 -9.18796e-06 0)
(0 -2.01665e-05 0)
(0 -1.4664e-05 0)
(0 -5.22553e-05 0)
(0 -8.85551e-06 0)
(0 -8.83647e-06 0)
(0 -8.86097e-06 0)
(0 -1.64911e-05 0)
(0 -9.46602e-06 0)
(0 -1.49058e-05 0)
(0 -1.88246e-05 0)
(0 -9.91601e-06 0)
(0 -2.63137e-05 0)
(0 -8.98376e-06 0)
(0 -3.48203e-05 0)
(0 -3.21803e-05 0)
(0 -8.81803e-06 0)
(0 -8.81908e-06 0)
(0 -8.81977e-06 0)
(0 -9.374e-06 0)
(0 -8.81746e-06 0)
(0 -8.8199e-06 0)
(0 -8.82299e-06 0)
(0 -8.82383e-06 0)
(0 -7.76079e-05 0)
(0 -1.03893e-05 0)
(0 -2.66901e-05 0)
(0 -3.42782e-05 0)
(0 -8.9444e-06 0)
(0 -1.05096e-05 0)
(0 -2.78578e-05 0)
(0 -1.02378e-05 0)
(0 -1.18758e-05 0)
(0 -8.83929e-06 0)
(0 -6.55656e-05 0)
(0 -9.44658e-06 0)
(0 -8.82632e-06 0)
(0 -8.97142e-06 0)
(0 -8.82022e-06 0)
(0 -1.35768e-05 0)
(0 -3.73435e-05 0)
(0 -1.81049e-05 0)
(0 -1.26626e-05 0)
(0 -9.46885e-05 0)
(0 -8.85122e-06 0)
(0 -9.00356e-06 0)
(0 -1.25536e-05 0)
(0 -8.92346e-06 0)
(0 -1.75186e-05 0)
(0 -9.39816e-06 0)
(0 -8.82419e-06 0)
(0 -8.94535e-06 0)
(0 -9.24768e-06 0)
(0 -8.95115e-06 0)
(0 -9.41262e-06 0)
(0 -1.03009e-05 0)
(0 -9.22014e-06 0)
(0 -1.16473e-05 0)
(0 -9.15174e-06 0)
(0 -8.89505e-06 0)
(0 -1.10676e-05 0)
(0 -9.82833e-06 0)
(0 -3.5727e-05 0)
(0 -8.9304e-06 0)
(0 -1.70709e-05 0)
(0 -8.17301e-05 0)
(0 -1.29271e-05 0)
(0 -3.16352e-05 0)
(0 -8.83428e-06 0)
(0 -8.83943e-06 0)
(0 -6.06589e-05 0)
(0 -5.34313e-05 0)
(0 -8.84858e-06 0)
(0 -8.81664e-06 0)
(0 -1.07877e-05 0)
(0 -8.81984e-06 0)
(0 -3.49973e-05 0)
(0 -9.19356e-06 0)
(0 -5.70647e-05 0)
(0 -8.81604e-06 0)
(0 -8.92268e-06 0)
(0 -1.54701e-05 0)
(0 -3.80273e-05 0)
(0 -8.85836e-06 0)
(0 -9.12899e-06 0)
(0 -8.82994e-06 0)
(0 -1.17415e-05 0)
(0 -8.81649e-06 0)
(0 -8.82539e-06 0)
(0 -8.88268e-06 0)
(0 -8.11192e-05 0)
(0 -9.00058e-06 0)
(0 -8.83636e-06 0)
(0 -1.15435e-05 0)
(0 -7.97178e-05 0)
(0 -3.23214e-05 0)
(0 -9.84556e-06 0)
(0 -8.98389e-06 0)
(0 -3.3729e-05 0)
(0 -7.92587e-05 0)
(0 -5.47068e-05 0)
(0 -5.6607e-05 0)
(0 -8.81631e-06 0)
(0 -8.94862e-06 0)
(0 -1.16986e-05 0)
(0 -9.09321e-06 0)
(0 -1.83183e-05 0)
(0 -9.03408e-05 0)
(0 -9.50481e-06 0)
(0 -8.82735e-06 0)
(0 -1.3263e-05 0)
(0 -5.54269e-05 0)
(0 -4.56974e-05 0)
(0 -3.3183e-05 0)
(0 -8.87724e-06 0)
(0 -8.97965e-06 0)
(0 -4.01722e-05 0)
(0 -3.53405e-05 0)
(0 -8.99485e-06 0)
(0 -1.17547e-05 0)
(0 -1.35218e-05 0)
(0 -3.74371e-05 0)
(0 -2.58183e-05 0)
(0 -1.64402e-05 0)
(0 -9.86948e-06 0)
(0 -8.95417e-06 0)
(0 -9.07988e-06 0)
(0 -9.16828e-06 0)
(0 -9.58025e-06 0)
(0 -8.92911e-06 0)
(0 -9.88486e-06 0)
(0 -6.11391e-05 0)
(0 -8.81632e-06 0)
(0 -3.31235e-05 0)
(0 -2.03754e-05 0)
(0 -2.41031e-05 0)
(0 -8.93338e-06 0)
(0 -9.38891e-06 0)
(0 -3.65616e-05 0)
(0 -8.98678e-06 0)
(0 -9.44618e-06 0)
(0 -8.83385e-06 0)
(0 -9.58056e-06 0)
(0 -1.04175e-05 0)
(0 -1.16264e-05 0)
(0 -2.96892e-05 0)
(0 -8.84479e-06 0)
(0 -9.01235e-06 0)
(0 -8.82556e-06 0)
(0 -3.60315e-05 0)
(0 -1.49362e-05 0)
(0 -9.07335e-06 0)
(0 -8.83381e-06 0)
(0 -8.81569e-06 0)
(0 -1.01039e-05 0)
(0 -9.31974e-06 0)
(0 -1.69181e-05 0)
(0 -2.25884e-05 0)
(0 -3.6188e-05 0)
(0 -9.49902e-06 0)
(0 -9.05823e-06 0)
(0 -2.45005e-05 0)
(0 -1.06436e-05 0)
(0 -8.98011e-06 0)
(0 -8.82639e-06 0)
(0 -8.85499e-06 0)
(0 -2.18517e-05 0)
(0 -9.42832e-06 0)
(0 -8.93536e-06 0)
(0 -1.41965e-05 0)
(0 -2.27857e-05 0)
(0 -9.0174e-06 0)
(0 -8.85426e-06 0)
(0 -8.85086e-06 0)
(0 -9.09145e-06 0)
(0 -8.13645e-05 0)
(0 -8.81608e-06 0)
(0 -9.89533e-06 0)
(0 -2.76198e-05 0)
(0 -1.38086e-05 0)
(0 -9.91822e-06 0)
(0 -1.02295e-05 0)
(0 -9.59949e-06 0)
(0 -8.85049e-06 0)
(0 -9.25225e-06 0)
(0 -1.22164e-05 0)
(0 -8.84494e-06 0)
(0 -2.89109e-05 0)
(0 -8.81846e-06 0)
(0 -1.58926e-05 0)
(0 -4.15986e-05 0)
(0 -8.89162e-06 0)
(0 -8.85148e-06 0)
(0 -8.91641e-06 0)
(0 -2.88389e-05 0)
(0 -2.94999e-05 0)
(0 -3.64323e-05 0)
(0 -1.12744e-05 0)
(0 -8.81847e-06 0)
(0 -9.35224e-06 0)
(0 -2.18412e-05 0)
(0 -9.29334e-06 0)
(0 -1.04482e-05 0)
(0 -5.54246e-05 0)
(0 -8.88589e-06 0)
(0 -9.37906e-06 0)
(0 -8.98746e-06 0)
(0 -6.17717e-05 0)
(0 -9.27739e-06 0)
(0 -3.19436e-05 0)
(0 -8.82538e-06 0)
(0 -1.01336e-05 0)
(0 -9.43855e-06 0)
(0 -1.4656e-05 0)
(0 -6.13548e-05 0)
(0 -8.63804e-05 0)
(0 -4.66972e-05 0)
(0 -9.15721e-06 0)
(0 -1.19572e-05 0)
(0 -9.02183e-06 0)
(0 -8.98238e-06 0)
(0 -1.04968e-05 0)
(0 -8.39114e-05 0)
(0 -9.24204e-06 0)
(0 -8.9245e-06 0)
(0 -8.9271e-06 0)
(0 -6.16036e-05 0)
(0 -1.25227e-05 0)
(0 -7.80602e-05 0)
(0 -1.47916e-05 0)
(0 -1.9987e-05 0)
(0 -8.83498e-06 0)
(0 -1.86854e-05 0)
(0 -8.86954e-06 0)
(0 -1.5277e-05 0)
(0 -9.16565e-06 0)
(0 -9.74207e-06 0)
(0 -8.81666e-06 0)
(0 -9.46827e-06 0)
(0 -3.33851e-05 0)
(0 -8.82843e-06 0)
(0 -8.81572e-06 0)
(0 -4.19678e-05 0)
(0 -2.45659e-05 0)
(0 -8.92348e-06 0)
(0 -9.12451e-06 0)
(0 -9.46823e-06 0)
(0 -1.60016e-05 0)
(0 -3.75199e-05 0)
(0 -9.0493e-06 0)
(0 -2.14778e-05 0)
(0 -9.90652e-06 0)
(0 -1.02016e-05 0)
(0 -8.4447e-05 0)
(0 -1.06483e-05 0)
(0 -8.83883e-06 0)
(0 -6.13547e-05 0)
(0 -3.19208e-05 0)
(0 -5.70163e-05 0)
(0 -8.82225e-06 0)
(0 -1.21204e-05 0)
(0 -1.70756e-05 0)
(0 -8.81621e-06 0)
(0 -2.12293e-05 0)
(0 -8.85568e-06 0)
(0 -1.67057e-05 0)
(0 -9.93871e-06 0)
(0 -5.8559e-05 0)
(0 -1.01527e-05 0)
(0 -6.34308e-05 0)
(0 -1.03813e-05 0)
(0 -4.29802e-05 0)
(0 -9.52965e-06 0)
(0 -3.56088e-05 0)
(0 -8.83181e-06 0)
(0 -8.99439e-06 0)
(0 -8.82733e-06 0)
(0 -1.7029e-05 0)
(0 -2.51505e-05 0)
(0 -9.99944e-06 0)
(0 -1.11011e-05 0)
(0 -8.81733e-06 0)
(0 -8.83071e-06 0)
(0 -1.05504e-05 0)
(0 -4.34092e-05 0)
(0 -9.01539e-06 0)
(0 -8.89981e-06 0)
(0 -8.99843e-06 0)
(0 -9.04649e-06 0)
(0 -1.07181e-05 0)
(0 -8.85608e-06 0)
(0 -1.19948e-05 0)
(0 -1.14431e-05 0)
(0 -9.25184e-06 0)
(0 -9.01101e-06 0)
(0 -1.06716e-05 0)
(0 -8.90985e-06 0)
(0 -1.07545e-05 0)
(0 -2.77805e-05 0)
(0 -9.8344e-06 0)
(0 -1.49659e-05 0)
(0 -7.49909e-05 0)
(0 -1.51309e-05 0)
(0 -1.13998e-05 0)
(0 -1.57462e-05 0)
(0 -5.99792e-05 0)
(0 -1.95411e-05 0)
(0 -1.04772e-05 0)
(0 -2.91976e-05 0)
(0 -9.85663e-06 0)
(0 -4.45245e-05 0)
(0 -4.57795e-05 0)
(0 -1.06514e-05 0)
(0 -2.55386e-05 0)
(0 -9.26159e-05 0)
(0 -1.79706e-05 0)
(0 -5.86217e-05 0)
(0 -8.81599e-06 0)
(0 -1.02418e-05 0)
(0 -9.03057e-06 0)
(0 -9.31614e-05 0)
(0 -1.4485e-05 0)
(0 -9.43563e-06 0)
(0 -1.02053e-05 0)
(0 -1.94056e-05 0)
(0 -8.86846e-06 0)
(0 -9.76898e-06 0)
(0 -8.94701e-06 0)
(0 -1.49864e-05 0)
(0 -9.37274e-06 0)
(0 -4.10534e-05 0)
(0 -1.05848e-05 0)
(0 -5.22026e-05 0)
(0 -2.66018e-05 0)
(0 -8.819e-06 0)
(0 -1.37448e-05 0)
(0 -8.9095e-06 0)
(0 -1.73771e-05 0)
(0 -8.81759e-06 0)
(0 -9.841e-06 0)
(0 -9.72328e-06 0)
(0 -9.18767e-06 0)
(0 -9.83093e-05 0)
(0 -1.78753e-06 0)
(0 -1.01711e-05 0)
(0 -3.30975e-05 0)
(0 -2.55321e-05 0)
(0 -8.87774e-06 0)
(0 -2.76425e-05 0)
(0 -2.76862e-05 0)
(0 -1.60958e-05 0)
(0 -8.13872e-05 0)
(0 -4.93277e-05 0)
(0 -1.59854e-05 0)
(0 -1.10808e-05 0)
(0 -8.81739e-06 0)
(0 -1.29601e-05 0)
(0 -6.07985e-05 0)
(0 -2.8469e-05 0)
(0 -8.83298e-06 0)
(0 -9.13048e-06 0)
(0 -3.391e-05 0)
(0 -3.69743e-05 0)
(0 -8.87454e-06 0)
(0 -8.92785e-06 0)
(0 -8.81739e-06 0)
(0 -1.0549e-05 0)
(0 -2.76365e-05 0)
(0 -7.73315e-05 0)
(0 -5.58645e-05 0)
(0 -1.10104e-05 0)
(0 -1.26991e-05 0)
(0 -9.00375e-06 0)
(0 -1.40784e-05 0)
(0 -8.81845e-06 0)
(0 -3.63243e-05 0)
(0 -1.78861e-05 0)
(0 -8.81619e-06 0)
(0 -4.72196e-05 0)
(0 -1.67191e-05 0)
(0 -4.6309e-05 0)
(0 -3.75832e-05 0)
(0 -1.15189e-05 0)
(0 -9.44644e-06 0)
(0 -3.69144e-05 0)
(0 -8.85184e-06 0)
(0 -8.84376e-06 0)
(0 -9.70541e-06 0)
(0 -6.04858e-05 0)
(0 -9.50022e-05 0)
(0 -9.3563e-06 0)
(0 -8.91419e-06 0)
(0 -1.57579e-05 0)
(0 -8.94354e-06 0)
(0 -9.60984e-05 0)
(0 -1.16217e-05 0)
(0 -6.85208e-05 0)
(0 -7.26057e-05 0)
(0 -8.96728e-06 0)
(0 -5.5415e-05 0)
(0 -8.9073e-06 0)
(0 -1.19564e-05 0)
(0 -1.18583e-05 0)
(0 -9.8437e-05 0)
(0 -2.82693e-05 0)
(0 -6.49246e-05 0)
(0 -3.34375e-05 0)
(0 -9.02823e-06 0)
(0 -6.5264e-05 0)
(0 -7.48558e-05 0)
(0 -8.83721e-06 0)
(0 -8.84758e-06 0)
(0 -1.20088e-05 0)
(0 -1.12642e-05 0)
(0 -1.00183e-05 0)
(0 -2.05575e-05 0)
(0 -7.51095e-05 0)
(0 -1.17958e-05 0)
(0 -8.81666e-06 0)
(0 -9.4811e-06 0)
(0 -4.01981e-05 0)
(0 -3.94927e-05 0)
(0 -8.83237e-06 0)
(0 -1.24748e-05 0)
(0 -8.82194e-06 0)
(0 -1.29506e-05 0)
(0 -1.88495e-05 0)
(0 -8.81682e-06 0)
(0 -1.32518e-05 0)
(0 -3.58233e-05 0)
(0 -8.95813e-06 0)
(0 -8.86321e-06 0)
(0 -6.59645e-05 0)
(0 -9.29749e-06 0)
(0 -5.4723e-05 0)
(0 -5.66463e-05 0)
(0 -9.4169e-05 0)
(0 -8.81708e-06 0)
(0 -9.20448e-05 0)
(0 -5.5913e-05 0)
(0 -7.55151e-05 0)
(0 -8.89492e-06 0)
(0 -2.12882e-05 0)
(0 -9.17709e-06 0)
(0 -9.18393e-06 0)
(0 -7.21028e-05 0)
(0 -1.0263e-05 0)
(0 -4.09035e-05 0)
(0 -8.82074e-06 0)
(0 -7.27935e-05 0)
(0 -6.34467e-05 0)
(0 -2.8591e-05 0)
(0 -9.32565e-06 0)
(0 -2.85048e-05 0)
(0 -9.24324e-06 0)
(0 -8.82274e-06 0)
(0 -8.84837e-06 0)
(0 -1.28641e-05 0)
(0 -8.95096e-06 0)
(0 -8.81641e-06 0)
(0 -4.16166e-05 0)
(0 -8.81588e-06 0)
(0 -8.92595e-06 0)
(0 -8.81685e-06 0)
(0 -8.86037e-06 0)
(0 -8.83677e-06 0)
(0 -8.84062e-06 0)
(0 -9.27761e-06 0)
(0 -3.21996e-05 0)
(0 -8.85142e-06 0)
(0 -1.34221e-05 0)
(0 -8.82961e-06 0)
(0 -8.23623e-05 0)
(0 -5.99374e-05 0)
(0 -3.37215e-05 0)
(0 -4.17308e-05 0)
(0 -1.90644e-05 0)
(0 -1.12507e-05 0)
(0 -8.81665e-06 0)
(0 -6.15782e-05 0)
(0 -3.8766e-05 0)
(0 -8.82472e-06 0)
(0 -8.98174e-06 0)
(0 -2.78542e-05 0)
(0 -9.73491e-06 0)
(0 -1.47249e-05 0)
(0 -4.44053e-05 0)
(0 -8.98367e-06 0)
(0 -9.69999e-06 0)
(0 -1.69026e-05 0)
(0 -2.16575e-05 0)
(0 -8.84457e-06 0)
(0 -8.81631e-06 0)
(0 -8.84348e-06 0)
(0 -7.00672e-05 0)
(0 -9.14467e-06 0)
(0 -9.48195e-06 0)
(0 -8.90415e-06 0)
(0 -8.83649e-06 0)
(0 -9.67829e-06 0)
(0 -5.76763e-05 0)
(0 -3.93038e-05 0)
(0 -3.64146e-05 0)
(0 -4.90707e-05 0)
(0 -2.52229e-05 0)
(0 -7.03131e-05 0)
(0 -1.66315e-05 0)
(0 -1.212e-05 0)
(0 -8.94984e-06 0)
(0 -9.32111e-06 0)
(0 -5.58096e-05 0)
(0 -9.41221e-06 0)
(0 -8.82313e-06 0)
(0 -1.17485e-05 0)
(0 -2.47929e-05 0)
(0 -8.81808e-06 0)
(0 -6.05398e-05 0)
(0 -2.64543e-05 0)
(0 -9.80613e-06 0)
(0 -8.92009e-06 0)
(0 -2.66719e-05 0)
(0 -6.07888e-05 0)
(0 -8.83111e-06 0)
(0 -8.97065e-06 0)
(0 -8.94313e-06 0)
(0 -9.51267e-06 0)
(0 -8.94155e-06 0)
(0 -6.45345e-05 0)
(0 -9.17492e-06 0)
(0 -2.39547e-05 0)
(0 -6.86104e-05 0)
(0 -2.36221e-05 0)
(0 -8.84652e-06 0)
(0 -8.82083e-06 0)
(0 -7.51288e-05 0)
(0 -9.79357e-05 0)
(0 -4.42822e-05 0)
(0 -8.91712e-06 0)
(0 -2.63081e-05 0)
(0 -1.49053e-05 0)
(0 -3.3515e-05 0)
(0 -3.16973e-05 0)
(0 -9.19161e-06 0)
(0 -7.05843e-05 0)
(0 -1.02871e-05 0)
(0 -8.99644e-06 0)
(0 -8.82025e-06 0)
(0 -5.08856e-05 0)
(0 -9.51868e-06 0)
(0 -2.10136e-05 0)
(0 -8.81631e-06 0)
(0 -8.82278e-06 0)
(0 -4.48857e-05 0)
(0 -8.82301e-06 0)
(0 -9.93376e-06 0)
(0 -8.85897e-06 0)
(0 -2.81806e-05 0)
(0 -8.83814e-06 0)
(0 -1.47604e-05 0)
(0 -1.76313e-05 0)
(0 -1.15606e-05 0)
(0 -9.52408e-06 0)
(0 -8.84434e-06 0)
(0 -8.97846e-06 0)
(0 -9.14811e-06 0)
(0 -8.85242e-06 0)
(0 -5.81271e-05 0)
(0 -9.02206e-06 0)
(0 -7.29255e-05 0)
(0 -1.52906e-05 0)
(0 -8.82997e-06 0)
(0 -3.36883e-05 0)
(0 -1.34006e-05 0)
(0 -2.97485e-05 0)
(0 -4.42033e-05 0)
(0 -8.96174e-06 0)
(0 -0.000101249 0)
(0 -5.92403e-05 0)
(0 -1.05563e-05 0)
(0 -1.11741e-05 0)
(0 -1.08448e-05 0)
(0 -8.89662e-06 0)
(0 -9.30855e-06 0)
(0 -8.83249e-06 0)
(0 -1.01453e-05 0)
(0 -1.27341e-05 0)
(0 -1.15011e-05 0)
(0 -8.82454e-06 0)
(0 -1.19437e-05 0)
(0 -8.97106e-06 0)
(0 -8.83747e-06 0)
(0 -2.03277e-05 0)
(0 -6.92795e-05 0)
(0 -8.8274e-06 0)
(0 -8.99366e-06 0)
(0 -2.39406e-05 0)
(0 -9.4351e-06 0)
(0 -1.30375e-05 0)
(0 -4.47769e-05 0)
(0 -1.85829e-05 0)
(0 -4.28568e-05 0)
(0 -1.16269e-05 0)
(0 -3.94031e-06 0)
(0 -1.07951e-05 0)
(0 -9.02512e-06 0)
(0 -8.11309e-05 0)
(0 -1.02488e-05 0)
(0 -6.96815e-05 0)
(0 -9.52906e-06 0)
(0 -4.9696e-05 0)
(0 -1.27974e-05 0)
(0 -1.03248e-05 0)
(0 -2.80281e-05 0)
(0 -5.2858e-05 0)
(0 -7.44799e-05 0)
(0 -9.00197e-06 0)
(0 -9.84307e-06 0)
(0 -8.85763e-06 0)
(0 -4.28495e-05 0)
(0 -4.07846e-05 0)
(0 -1.04207e-05 0)
(0 -4.67908e-05 0)
(0 -9.57531e-06 0)
(0 -9.78137e-06 0)
(0 -4.54463e-05 0)
(0 -9.54483e-06 0)
(0 -7.16585e-05 0)
(0 -8.89792e-06 0)
(0 -2.48821e-05 0)
(0 -1.23045e-05 0)
(0 -8.81636e-06 0)
(0 -9.03563e-06 0)
(0 -6.35782e-05 0)
(0 -2.14533e-05 0)
(0 -8.82178e-06 0)
(0 -6.91623e-05 0)
(0 -7.52825e-05 0)
(0 -8.89401e-06 0)
(0 -8.81785e-06 0)
(0 -1.54084e-05 0)
(0 -9.1758e-06 0)
(0 -5.47256e-05 0)
(0 -5.31372e-05 0)
(0 -8.84689e-06 0)
(0 -2.77343e-05 0)
(0 -9.70646e-05 0)
(0 -8.99632e-06 0)
(0 -7.02913e-05 0)
(0 -8.92725e-06 0)
(0 -2.39637e-05 0)
(0 -9.75746e-05 0)
(0 -3.28859e-05 0)
(0 -9.27819e-06 0)
(0 -8.8226e-06 0)
(0 -3.0236e-05 0)
(0 -2.87387e-05 0)
(0 -6.44947e-05 0)
(0 -1.55085e-05 0)
(0 -3.40275e-05 0)
(0 -8.92186e-06 0)
(0 -1.03721e-05 0)
(0 -1.38247e-05 0)
(0 -8.85913e-06 0)
(0 -9.90345e-06 0)
(0 -9.00192e-06 0)
(0 -8.82083e-06 0)
(0 -8.97929e-06 0)
(0 -7.68135e-05 0)
(0 -2.57519e-05 0)
(0 -4.08627e-05 0)
(0 -8.95735e-06 0)
(0 -1.47447e-05 0)
(0 -8.82074e-06 0)
(0 -8.81721e-06 0)
(0 -1.65838e-05 0)
(0 -8.82892e-06 0)
(0 -8.83495e-06 0)
(0 -1.0807e-05 0)
(0 -9.21376e-06 0)
(0 -9.55275e-06 0)
(0 -8.90842e-06 0)
(0 -8.84571e-06 0)
(0 -9.47366e-06 0)
(0 -8.99341e-06 0)
(0 -8.82023e-06 0)
(0 -1.02763e-05 0)
(0 -1.63871e-05 0)
(0 -8.83248e-06 0)
(0 -9.25249e-06 0)
(0 -8.16038e-05 0)
(0 -2.81406e-05 0)
(0 -8.96962e-06 0)
(0 -1.16222e-05 0)
(0 -6.24173e-05 0)
(0 -1.00692e-05 0)
(0 -9.50176e-06 0)
(0 -1.20827e-05 0)
(0 -8.8277e-06 0)
(0 -2.2124e-05 0)
(0 -8.85937e-06 0)
(0 -1.1602e-05 0)
(0 -8.99567e-06 0)
(0 -9.34954e-06 0)
(0 -9.14386e-06 0)
(0 -1.52111e-05 0)
(0 -7.27847e-05 0)
(0 -2.96484e-05 0)
(0 -8.84249e-06 0)
(0 -6.58319e-05 0)
(0 -1.63957e-05 0)
(0 -4.2986e-05 0)
(0 -2.55251e-05 0)
(0 -6.0939e-05 0)
(0 -1.07426e-05 0)
(0 -9.18e-06 0)
(0 -8.89563e-06 0)
(0 -9.72201e-06 0)
(0 -9.22172e-06 0)
(0 -8.86513e-06 0)
(0 -8.96051e-06 0)
(0 -6.18301e-05 0)
(0 -8.9197e-06 0)
(0 -8.85874e-06 0)
(0 -8.43103e-05 0)
(0 -7.66078e-05 0)
(0 -1.41963e-05 0)
(0 -8.8245e-06 0)
(0 -1.76771e-05 0)
(0 -9.98149e-06 0)
(0 -8.92732e-06 0)
(0 -1.08233e-05 0)
(0 -3.2481e-05 0)
(0 -3.14731e-05 0)
(0 -6.90132e-05 0)
(0 -9.44226e-06 0)
(0 -1.12791e-05 0)
(0 -6.02209e-05 0)
(0 -8.83604e-06 0)
(0 -8.8562e-06 0)
(0 -1.03603e-05 0)
(0 -8.93278e-06 0)
(0 -1.01943e-05 0)
(0 -8.894e-06 0)
(0 -2.20822e-05 0)
(0 -1.98242e-05 0)
(0 -8.86419e-06 0)
(0 -8.93011e-06 0)
(0 -9.63094e-06 0)
(0 -8.99463e-06 0)
(0 -1.55895e-05 0)
(0 -8.06362e-06 0)
(0 -5.99191e-05 0)
(0 -3.9141e-05 0)
(0 -3.85632e-05 0)
(0 -2.05356e-05 0)
(0 -1.02099e-05 0)
(0 -6.28372e-05 0)
(0 -9.3543e-06 0)
(0 -8.09755e-05 0)
(0 -1.55667e-05 0)
(0 -7.45943e-05 0)
(0 -9.78255e-06 0)
(0 -9.32281e-06 0)
(0 -9.00684e-06 0)
(0 -4.33884e-05 0)
(0 -9.12894e-06 0)
(0 -5.9315e-05 0)
(0 -8.86374e-06 0)
(0 -4.72885e-05 0)
(0 -1.31706e-05 0)
(0 -4.12831e-05 0)
(0 -9.03977e-06 0)
(0 -8.8163e-06 0)
(0 -9.23762e-06 0)
(0 -6.28506e-05 0)
(0 -9.33864e-06 0)
(0 -4.35318e-05 0)
(0 -1.4701e-05 0)
(0 -8.81717e-06 0)
(0 -5.75134e-05 0)
(0 -2.34898e-05 0)
(0 -1.1343e-05 0)
(0 -1.39119e-05 0)
(0 -8.82987e-06 0)
(0 -6.20458e-05 0)
(0 -1.30116e-05 0)
(0 -3.02499e-05 0)
(0 -6.0097e-05 0)
(0 -1.09865e-05 0)
(0 -3.01437e-05 0)
(0 -9.01022e-05 0)
(0 -1.72242e-05 0)
(0 -8.81741e-06 0)
(0 -2.16146e-05 0)
(0 -8.98271e-06 0)
(0 -8.85267e-06 0)
(0 -1.06374e-05 0)
(0 -8.82505e-06 0)
(0 -2.23355e-05 0)
(0 -8.76734e-05 0)
(0 -1.23927e-05 0)
(0 -8.81678e-06 0)
(0 -2.90732e-05 0)
(0 -1.1835e-05 0)
(0 -1.17187e-05 0)
(0 -8.87365e-06 0)
(0 -6.76821e-05 0)
(0 -8.82044e-06 0)
(0 -1.01829e-05 0)
(0 -9.9351e-06 0)
(0 -8.56831e-05 0)
(0 -0.00010111 0)
(0 -9.17004e-06 0)
(0 -2.29839e-05 0)
(0 -7.08165e-06 0)
(0 -1.0107e-05 0)
(0 -8.41884e-05 0)
(0 -1.55862e-05 0)
(0 -1.54888e-05 0)
(0 -1.00193e-05 0)
(0 -8.92226e-06 0)
(0 -8.83595e-06 0)
(0 -2.0333e-05 0)
(0 -9.89781e-06 0)
(0 -8.92165e-06 0)
(0 -8.82414e-06 0)
(0 -1.22761e-05 0)
(0 -8.99315e-06 0)
(0 -8.86052e-06 0)
(0 -1.19669e-05 0)
(0 -8.97439e-06 0)
(0 -1.56906e-05 0)
(0 -8.84482e-06 0)
(0 -8.82119e-06 0)
(0 -8.10093e-05 0)
(0 -1.94458e-05 0)
(0 -7.37497e-05 0)
(0 -3.92631e-05 0)
(0 -1.13892e-05 0)
(0 -7.36665e-05 0)
(0 -1.54083e-05 0)
(0 -9.68936e-06 0)
(0 -2.80171e-05 0)
(0 -1.09211e-05 0)
(0 -8.81767e-06 0)
(0 -1.13079e-05 0)
(0 -2.38968e-05 0)
(0 -8.83596e-06 0)
(0 -3.56993e-05 0)
(0 -8.81828e-06 0)
(0 -2.35526e-05 0)
(0 -9.48319e-06 0)
(0 -6.97046e-05 0)
(0 -8.81583e-06 0)
(0 -8.81722e-06 0)
(0 -4.32188e-05 0)
(0 -3.73052e-05 0)
(0 -8.84313e-06 0)
(0 -1.15148e-05 0)
(0 -8.96877e-06 0)
(0 -6.42784e-05 0)
(0 -7.02187e-05 0)
(0 -8.82697e-06 0)
(0 -3.67707e-05 0)
(0 -9.63202e-06 0)
(0 -8.8245e-06 0)
(0 -3.87579e-05 0)
(0 -1.0572e-05 0)
(0 -1.50584e-05 0)
(0 -0.000100582 0)
(0 -2.83343e-05 0)
(0 -8.85565e-06 0)
(0 -8.81627e-06 0)
(0 -4.10345e-05 0)
(0 -2.69894e-05 0)
(0 -3.57727e-05 0)
(0 -1.71165e-05 0)
(0 -9.83188e-06 0)
(0 -8.81935e-06 0)
(0 -2.12233e-05 0)
(0 -8.95031e-06 0)
(0 -8.89843e-06 0)
(0 -8.99697e-06 0)
(0 -8.91923e-06 0)
(0 -3.72328e-05 0)
(0 -9.36348e-06 0)
(0 -9.00973e-06 0)
(0 -1.17764e-05 0)
(0 -4.63899e-05 0)
(0 -1.04027e-05 0)
(0 -8.82204e-06 0)
(0 -1.77029e-05 0)
(0 -9.51082e-06 0)
(0 -8.84263e-06 0)
(0 -9.08994e-06 0)
(0 -8.91983e-06 0)
(0 -1.35274e-05 0)
(0 -2.97792e-05 0)
(0 -1.80133e-05 0)
(0 -3.34316e-05 0)
(0 -8.81723e-06 0)
(0 -1.05933e-05 0)
(0 -2.6273e-05 0)
(0 -3.57342e-05 0)
(0 -2.23292e-05 0)
(0 -9.31304e-06 0)
(0 -4.88785e-05 0)
(0 -3.45612e-05 0)
(0 -9.95546e-06 0)
(0 -1.1787e-05 0)
(0 -8.86147e-06 0)
(0 -9.6274e-06 0)
(0 -8.82024e-06 0)
(0 -8.82568e-06 0)
(0 -1.26419e-05 0)
(0 -1.07274e-05 0)
(0 -9.25464e-05 0)
(0 -1.45348e-05 0)
(0 -8.81576e-06 0)
(0 -3.89711e-05 0)
(0 -2.31698e-05 0)
(0 -1.07926e-05 0)
(0 -9.44063e-06 0)
(0 -9.2594e-06 0)
(0 -8.85028e-06 0)
(0 -8.9706e-06 0)
(0 -6.01625e-05 0)
(0 -8.81812e-06 0)
(0 -9.26997e-05 0)
(0 -4.27294e-05 0)
(0 -9.87837e-06 0)
(0 -1.31396e-05 0)
(0 -5.95036e-05 0)
(0 -9.19871e-06 0)
(0 -8.86318e-06 0)
(0 -6.89244e-05 0)
(0 -8.86358e-06 0)
(0 -4.14909e-05 0)
(0 -7.74182e-05 0)
(0 -2.40155e-05 0)
(0 -8.9139e-06 0)
(0 -1.50936e-05 0)
(0 -2.38174e-05 0)
(0 -8.97361e-06 0)
(0 -2.87125e-05 0)
(0 -9.01466e-06 0)
(0 -8.85613e-06 0)
(0 -1.55595e-05 0)
(0 -9.57803e-06 0)
(0 -6.65579e-05 0)
(0 -8.82254e-06 0)
(0 -9.91506e-06 0)
(0 -3.25763e-05 0)
(0 -8.8559e-06 0)
(0 -1.05147e-05 0)
(0 -9.12363e-06 0)
(0 -7.342e-06 0)
(0 -8.81662e-06 0)
(0 -1.22583e-05 0)
(0 -9.00452e-06 0)
(0 -3.33373e-05 0)
(0 -9.25092e-06 0)
(0 -8.81908e-06 0)
(0 -7.56295e-05 0)
(0 -8.99075e-06 0)
(0 -3.13369e-05 0)
(0 -1.01858e-05 0)
(0 -9.30376e-06 0)
(0 -1.23097e-05 0)
(0 -8.98811e-06 0)
(0 -2.0452e-05 0)
(0 -9.4716e-06 0)
(0 -1.0424e-05 0)
(0 -9.03225e-06 0)
(0 -1.05107e-05 0)
(0 -1.0022e-05 0)
(0 -2.18314e-05 0)
(0 -8.8425e-06 0)
(0 -1.18001e-05 0)
(0 -8.8178e-06 0)
(0 -1.20204e-05 0)
(0 -1.02557e-05 0)
(0 -5.25797e-05 0)
(0 -1.1534e-05 0)
(0 -3.35313e-05 0)
(0 -1.00392e-05 0)
(0 -8.84545e-06 0)
(0 -2.76367e-05 0)
(0 -7.1468e-05 0)
(0 -8.82315e-06 0)
(0 -3.23592e-05 0)
(0 -8.90911e-06 0)
(0 -3.68009e-05 0)
(0 -8.85655e-06 0)
(0 -8.98586e-06 0)
(0 -1.29065e-05 0)
(0 -6.58319e-05 0)
(0 -6.78159e-05 0)
(0 -3.44814e-05 0)
(0 -8.16313e-05 0)
(0 -9.50227e-06 0)
(0 -9.54983e-06 0)
(0 -9.68888e-06 0)
(0 -1.81498e-05 0)
(0 -5.91667e-05 0)
(0 -8.92762e-06 0)
(0 -2.65338e-05 0)
(0 -1.31888e-05 0)
(0 -8.93409e-06 0)
(0 -3.56184e-05 0)
(0 -8.82643e-06 0)
(0 -1.07715e-05 0)
(0 -1.43254e-05 0)
(0 -8.85045e-06 0)
(0 -8.81836e-06 0)
(0 -8.96175e-06 0)
(0 -8.85475e-06 0)
(0 -8.92467e-06 0)
(0 -6.81228e-05 0)
(0 -8.97743e-06 0)
(0 -8.8486e-06 0)
(0 -8.93192e-06 0)
(0 -4.192e-05 0)
(0 -2.57137e-05 0)
(0 -9.4083e-06 0)
(0 -8.85594e-06 0)
(0 -8.81928e-06 0)
(0 -9.01753e-06 0)
(0 -4.33828e-05 0)
(0 -9.58658e-06 0)
(0 -1.17794e-05 0)
(0 -8.85812e-06 0)
(0 -8.81843e-06 0)
(0 -1.1675e-05 0)
(0 -9.34149e-06 0)
(0 -2.14664e-05 0)
(0 -9.81147e-06 0)
(0 -9.6462e-06 0)
(0 -4.24415e-05 0)
(0 -9.46286e-06 0)
(0 -8.87125e-06 0)
(0 -3.51585e-05 0)
(0 -8.91275e-06 0)
(0 -1.88453e-05 0)
(0 -5.61873e-05 0)
(0 -8.82462e-06 0)
(0 -8.82292e-06 0)
(0 -8.75093e-05 0)
(0 -4.1712e-05 0)
(0 -3.5298e-05 0)
(0 -6.85889e-05 0)
(0 -1.03787e-05 0)
(0 -9.18796e-06 0)
(0 -3.21148e-05 0)
(0 -7.11615e-05 0)
(0 -5.4356e-05 0)
(0 -1.18592e-05 0)
(0 -1.59102e-05 0)
(0 -1.62235e-05 0)
(0 -8.97425e-06 0)
(0 -4.04688e-05 0)
(0 -8.81945e-06 0)
(0 -9.02566e-06 0)
(0 -8.83058e-06 0)
(0 -9.02896e-06 0)
(0 -1.06551e-05 0)
(0 -8.94947e-06 0)
(0 -1.34246e-05 0)
(0 -8.85519e-06 0)
(0 -8.92904e-06 0)
(0 -8.97031e-06 0)
(0 -3.1814e-05 0)
(0 -8.83694e-06 0)
(0 -8.86267e-06 0)
(0 -8.15938e-05 0)
(0 -6.13968e-05 0)
(0 -9.55527e-06 0)
(0 -8.82115e-06 0)
(0 -8.89384e-06 0)
(0 -7.08245e-05 0)
(0 -4.27865e-05 0)
(0 -8.81934e-06 0)
(0 -8.90374e-06 0)
(0 -8.97484e-06 0)
(0 -2.29662e-05 0)
(0 -1.59993e-05 0)
(0 -8.86321e-06 0)
(0 -2.99214e-05 0)
(0 -8.82172e-06 0)
(0 -8.84408e-06 0)
(0 -8.93153e-06 0)
(0 -8.98732e-06 0)
(0 -3.17423e-05 0)
(0 -6.35536e-05 0)
(0 -6.55951e-05 0)
(0 -1.33417e-05 0)
(0 -8.81699e-06 0)
(0 -1.19461e-05 0)
(0 -2.00614e-05 0)
(0 -1.98936e-05 0)
(0 -9.48352e-06 0)
(0 -8.8159e-06 0)
(0 -1.18138e-05 0)
(0 -8.8659e-06 0)
(0 -8.82591e-06 0)
(0 -8.8166e-06 0)
(0 -8.89042e-06 0)
(0 -4.55925e-05 0)
(0 -4.26792e-05 0)
(0 -8.85756e-06 0)
(0 -0.000103168 0)
(0 -8.24757e-05 0)
(0 -2.2924e-05 0)
(0 -8.82002e-06 0)
(0 -1.22943e-05 0)
(0 -8.85307e-06 0)
(0 -9.29491e-06 0)
(0 -5.60771e-05 0)