/*--------------------------------*- C++ -*----------------------------------*\
| =========                 |                                                 |
| \\      /  F ield         | OpenFOAM: The Open Source CFD Toolbox           |
|  \\    /   O peration     | Version:  v2012                                 |
|   \\  /    A nd           | Website:  www.openfoam.com                      |
|    \\/     M anipulation  |                                                 |
\*---------------------------------------------------------------------------*/
FoamFile
{
    version     2.0;
    format      ascii;
    class       volVectorField;
    location    "600";
    object      U;
}
// * * * * * * * * * * * * * * * * * * * * * * * * * * * * * * * * * * * * * //

dimensions      [0 1 -1 0 0 0 0];


internalField   nonuniform List<vector> 
13917
(
(1.1028 0.124467 3.21892e-21)
(1.02277 0.0429281 2.23339e-21)
(0.559966 -0.0843231 0)
(1.057 -0.0138375 3.57637e-22)
(0.996306 0.00423568 0)
(0.358514 0.06142 -6.61799e-19)
(0.491208 -0.0734162 0)
(0.561274 -0.0825998 0)
(0.360659 -0.0649864 -3.90959e-20)
(1.14793 0.154472 5.84993e-20)
(1.12026 -0.0762791 0)
(1.09491 -0.0529191 4.55143e-22)
(1.05747 -0.0146645 -1.1918e-20)
(-0.0410247 -0.011238 6.5466e-20)
(0.974279 0.0979197 3.45994e-21)
(0.997899 0.0920549 0)
(1.01716 0.0484853 0)
(1.14956 0.0171723 -1.2563e-20)
(1.09372 -0.0522915 -1.59999e-21)
(1.00165 0.00506562 2.85546e-22)
(0.999984 0.00119693 -7.40406e-21)
(0.469816 -0.0716157 0)
(1.00118 0.00843976 7.96984e-21)
(0.620567 -0.0878723 2.01159e-20)
(0.995399 0.0164126 0)
(0.50639 -0.068813 -3.65473e-20)
(0.783284 0.0397949 4.82909e-20)
(0.758487 0.12808 1.08349e-19)
(0.733623 0.581071 0)
(1.20517 0.0930146 7.84415e-20)
(1.11781 0.113984 0)
(1.06512 0.091425 -9.0091e-21)
(0.837983 0.0741822 -7.47966e-20)
(0.91034 0.00472789 -6.44618e-20)
(0.991751 0.0135604 -4.32168e-21)
(1.12483 -0.0956238 -5.80078e-21)
(1.00107 0.00798064 0)
(0.0857504 -0.0374203 -3.18157e-20)
(1.06417 -0.0199955 -2.59696e-20)
(0.278154 -0.0151429 -3.74807e-20)
(1.00889 0.000830943 0)
(0.999988 0.000505298 1.63075e-22)
(1.02108 0.00224918 5.42364e-21)
(0.704232 0.211504 0)
(1.04105 0.0244921 -9.01288e-21)
(0.891923 0.01891 0)
(1.14687 0.0152317 0)
(1.15095 -0.0192095 -1.50548e-20)
(0.104674 0.144309 2.648e-19)
(1.00366 0.000819641 -1.54517e-22)
(1.09023 0.0124996 1.66899e-20)
(0.965535 0.0122415 1.9805e-20)
(0.076008 0.123616 -3.04837e-19)
(0.905717 0.00607293 2.35261e-20)
(1.01598 0.0495303 -2.07515e-22)
(1.09053 0.0379306 0)
(1.12143 -0.0754376 0)
(0.996516 0.0314221 -2.3419e-21)
(1.07581 0.0448849 0)
(1.03955 0.0240829 2.49929e-21)
(0.492671 0.039927 -1.39067e-19)
(1.02435 0.0429668 -2.51429e-21)
(-0.0486942 -0.00559452 -4.82521e-20)
(1.00176 0.00548014 0)
(0.386006 0.0738425 4.47494e-19)
(0.99222 0.333953 -8.48651e-20)
(0.995417 0.000459543 -8.53655e-22)
(0.987992 0.000149872 2.39119e-20)
(1.16826 -0.0607986 -4.67449e-20)
(1.06877 0.139499 -8.33303e-21)
(0.996707 0.00437184 -5.5855e-21)
(0.418153 -0.0724893 9.56197e-21)
(-0.119916 -0.0229231 3.00759e-20)
(0.995976 0.0159856 0)
(0.105812 0.217549 -1.4109e-19)
(1.08627 -0.0588997 0)
(-0.129079 -0.0176664 1.53982e-20)
(1.05706 0.0265693 4.07983e-21)
(0.520723 -0.0612933 1.02195e-20)
(0.999923 0.00240513 4.18096e-22)
(1.00014 0.00351524 -4.99267e-21)
(0.995972 0.000529321 7.86856e-21)
(0.404626 0.137549 -4.20707e-21)
(0.112012 -0.0420664 0)
(-0.10579 0.00787311 0)
(1.05588 0.0253583 -1.52193e-20)
(1.00044 0.00445294 -4.30157e-21)
(1.15077 0.415463 -1.31053e-19)
(1.08822 0.0124619 3.7918e-23)
(1.02153 0.00222805 -8.86403e-21)
(-0.0478553 -0.0307289 0)
(1.18553 0.13379 2.00894e-20)
(1.02462 0.0238933 -1.34927e-21)
(0.97523 0.0562089 -9.49006e-21)
(1.1017 0.408719 1.52274e-19)
(0.386176 0.000621341 0)
(1.14002 -0.0605451 -1.96292e-20)
(1.15111 -0.00841536 0)
(1.08963 -0.0693108 5.14224e-20)
(0.608825 0.136842 0)
(1.0118 0.00594306 2.92489e-21)
(0.844615 0.0055067 0)
(0.693813 0.196141 0)
(1.06461 0.0191893 1.27505e-20)
(1.01731 0.012469 2.98415e-21)
(0.426445 -0.0649845 6.88014e-20)
(0.815216 0.519486 9.70382e-21)
(1.1537 -0.0203981 5.28277e-20)
(1.01909 0.0489538 -1.2254e-21)
(1.11806 0.129318 0)
(-0.179761 -0.0166313 -7.00336e-20)
(0.285959 -0.0159437 2.63394e-20)
(1.09549 -0.060095 -1.04521e-20)
(0.390847 -0.0648483 -7.42559e-20)
(0.948228 0.0114402 -9.26536e-21)
(0.0826748 -0.107607 -2.57013e-19)
(1.00129 0.0148208 7.43797e-21)
(0.201002 0.102915 9.13859e-20)
(0.149744 -0.0196224 0)
(0.90736 0.0186442 -2.34368e-20)
(0.999987 0.000987954 0)
(1.16871 -0.0588074 5.81755e-20)
(0.110509 -0.0214629 1.47185e-20)
(0.767251 0.121251 -8.10616e-20)
(1.00542 0.000719556 2.44157e-22)
(0.97661 0.0535511 0)
(1.03644 0.028333 8.0007e-21)
(1.00503 0.00058432 0)
(1.01834 0.00167215 2.42651e-21)
(0.361887 0.0147786 0)
(0.2106 -0.0380156 0)
(0.95067 0.0104789 -2.15316e-20)
(1.04149 0.0255217 9.48701e-21)
(0.999983 0.000952319 7.19967e-21)
(1.24404 -0.0044998 1.19869e-19)
(0.637641 -0.0917233 1.91641e-20)
(1.10016 0.129224 0)
(0.58493 0.137875 1.18092e-19)
(0.995113 0.000882278 -3.8856e-21)
(0.908192 0.0143677 -1.06693e-20)
(1.11739 -0.0923111 0)
(1.0258 0.0131259 -6.26401e-21)
(0.962687 0.0245151 4.05243e-20)
(0.655818 0.208393 8.18043e-22)
(0.987372 0.000492016 -3.05716e-20)
(0.629345 -0.0771204 0)
(0.80484 0.587375 -1.79306e-21)
(0.967483 0.0126589 -1.65796e-20)
(1.02431 0.011023 2.69652e-21)
(1.06003 0.101 1.7185e-20)
(1.12367 -0.0297956 -7.67358e-20)
(0.092881 -0.14135 9.34384e-20)
(1.1171 -0.0562166 -3.83886e-23)
(1.03088 0.18478 0)
(1.08196 0.0642763 2.2054e-20)
(-0.0670492 0.0420405 -2.77248e-19)
(1.06378 0.136776 1.57979e-21)
(1.11973 -0.101118 0)
(-0.151403 -0.0152782 0)
(1.24021 -0.00374392 6.17604e-20)
(0.940716 0.0474163 1.1645e-20)
(0.783186 -0.0207831 0)
(1.00005 0.00245977 0)
(1.13767 -0.0595721 0)
(1.09638 -0.059431 8.66133e-21)
(1.09081 -0.0690363 -2.70881e-20)
(1.0637 0.0201519 -2.58324e-20)
(1.13641 -0.0217382 4.50718e-20)
(1.03395 0.0210591 0)
(0.837556 0.00125792 -3.07136e-20)
(1.05084 0.177344 1.34642e-20)
(-0.300454 -0.00580254 -5.18665e-20)
(1.09273 -0.0623611 -1.64968e-22)
(1.01501 0.0579608 -3.19719e-23)
(0.784895 -0.0881125 0)
(1.02024 0.206076 0)
(0.232423 -0.042567 0)
(0.163421 0.104811 -1.01706e-19)
(0.687957 -0.0806895 -1.3109e-20)
(1.01384 0.0277917 -1.36642e-22)
(1.19113 0.128501 0)
(1.1234 0.112447 0)
(1.0263 0.0126481 -9.93744e-21)
(1.00045 0.00484923 3.82247e-21)
(0.938376 0.118039 3.38035e-20)
(0.560945 -0.072791 5.7755e-24)
(1.27203 0.139707 -4.99566e-20)
(-0.0164505 0.0424813 1.29839e-19)
(1.12331 0.0407429 -2.04217e-20)
(1.09877 -0.0690672 -3.65404e-20)
(1.14558 -0.095787 0)
(-0.0575935 0.0119687 -1.60733e-19)
(1.26254 0.180473 -2.98313e-20)
(0.999925 0.00843135 -3.16506e-21)
(0.563561 0.0711101 0)
(0.793957 0.0414681 1.08058e-20)
(1.00773 0.000309924 0)
(1.02487 0.0249368 1.68228e-21)
(0.877103 0.452998 -4.36279e-21)
(1.20909 0.480908 6.35777e-20)
(1.07976 -0.00593504 2.11025e-20)
(1.00335 0.00073252 -1.91927e-22)
(1.12927 -0.0221251 -1.74044e-20)
(1.12157 -0.0298014 7.11252e-20)
(-0.146979 -0.019764 3.20915e-20)
(1.25132 -0.0418886 -8.70395e-20)
(0.992047 0.0126934 1.31792e-20)
(0.995819 0.0325273 3.30087e-22)
(1.14837 -0.010358 -5.57583e-20)
(0.57997 -0.0809636 0)
(0.964961 0.0248489 -2.31562e-20)
(0.47453 -0.0748826 2.11429e-20)
(-0.193288 -0.0146363 -3.40681e-20)
(1.09991 -0.0688198 2.54707e-20)
(1.01693 0.0127622 -1.57046e-22)
(0.493943 0.417313 1.36489e-19)
(1.14012 -0.00904792 -4.44476e-20)
(-0.269438 -0.012702 -2.5097e-19)
(1.00364 0.0193139 2.21125e-21)
(0.642973 0.0614405 1.05632e-19)
(1.01341 0.026802 2.3851e-22)
(1.19747 0.0688901 6.20647e-20)
(1.0087 0.00103092 0)
(0.0633865 -0.0403138 3.53345e-20)
(0.405077 -0.0629763 3.87231e-20)
(0.998979 0.0956009 0)
(1.20156 0.489761 -3.07054e-20)
(1.08513 0.063158 0)
(1.01619 0.0123248 -2.46747e-21)
(1.12295 -0.0942594 2.00594e-20)
(1.09166 -0.0616122 0)
(1.12192 0.0381201 4.19973e-20)
(0.647746 -0.0894756 -1.78385e-22)
(-0.213252 -0.0122708 2.28721e-20)
(1.01273 0.00307838 1.68271e-21)
(1.06853 0.0925822 0)
(-0.0187032 -0.0342575 5.76697e-22)
(-0.147224 0.0109812 0)
(1.00002 0.00276124 0)
(1.00659 0.00947731 0)
(0.327426 -0.0147239 0)
(1.14628 -0.0625388 0)
(1.00004 0.00014094 0)
(1.09841 -0.0870477 4.65144e-21)
(1.18633 0.00771538 -3.90171e-20)
(0.793022 -0.0258126 -2.30371e-20)
(1.10032 0.109374 0)
(1.00008 0.00266719 0)
(0.983024 0.210882 0)
(-0.185092 -0.0134174 -7.09802e-20)
(1.0423 0.00196095 0)
(1.20759 0.145381 -2.46831e-20)
(0.570515 0.182665 7.45483e-20)
(1.03611 0.027018 -8.80521e-21)
(0.995874 0.0297701 2.61843e-21)
(1.11196 -0.0488381 -1.00092e-20)
(0.343184 -0.0216366 -1.59629e-20)
(1.11605 -0.0547493 2.57066e-20)
(0.939333 0.122797 -2.29419e-20)
(0.977747 0.10055 0)
(1.00004 0.000247321 1.41886e-21)
(0.0898738 -0.0168651 0)
(0.598645 -0.0416898 8.02793e-20)
(1.09529 -0.0848427 2.7811e-20)
(1.01573 0.012601 -1.30572e-21)
(-0.168818 -0.0178889 6.86935e-22)
(-0.0323121 -0.0156675 -2.33711e-20)
(1.06446 -0.102789 0)
(0.502529 -0.059161 1.45428e-21)
(1.08643 -0.05999 0)
(1.00009 0.00329254 0)
(1.00661 0.000868158 -8.51968e-23)
(1.14587 0.00984155 3.84969e-22)
(-0.0125781 -0.0296992 8.6871e-20)
(1.17623 -0.0328692 1.00422e-19)
(1.07416 0.0427276 0)
(1.2305 -0.0424384 -9.51995e-22)
(1.08011 -0.042983 0)
(1.01822 0.00109999 0)
(0.879633 0.0152477 0)
(1.00208 0.00493982 0)
(0.746506 -0.0874331 -5.14692e-20)
(1.07785 -0.00546864 0)
(1.00008 0.000143213 0)
(1.00312 0.11294 1.868e-21)
(1.02513 0.18675 -3.63308e-21)
(0.783434 -0.00840643 0)
(1.10264 -0.0888956 0)
(1.0012 0.149356 2.61102e-21)
(1.04546 0.00884662 2.4262e-21)
(1.26854 0.0170481 -1.21139e-19)
(0.657631 -0.0894774 -1.6477e-20)
(0.500232 -0.0441414 0)
(1.00332 0.0187856 -7.92418e-21)
(1.03117 -0.0990279 -7.32655e-22)
(0.998396 0.00104128 2.84136e-21)
(1.04548 0.00784791 3.48011e-20)
(1.00139 0.0141323 -1.05344e-20)
(0.817203 0.627406 1.61076e-21)
(1.0017 0.000885581 0)
(1.20248 0.0687802 -6.97051e-20)
(1.09563 0.109196 1.92956e-20)
(1.03347 0.0200723 0)
(1.129 -0.0246111 5.00128e-21)
(1.04111 0.058327 -1.09612e-20)
(0.114007 0.0665389 -2.41358e-19)
(1.01935 0.200839 -4.52558e-21)
(1.1796 0.131107 9.05661e-20)
(1.03169 0.0138885 -1.1782e-20)
(0.996526 0.0287427 0)
(-0.198958 -0.0144415 3.85539e-20)
(0.077955 -0.0196424 1.55175e-20)
(1.00158 0.0154344 -4.14492e-21)
(1.0075 0.000914158 -5.824e-22)
(0.933285 0.0237287 -6.72587e-20)
(1.01717 0.0261632 4.3349e-22)
(-0.0978292 -0.0254608 -5.46139e-20)
(1.03072 0.013805 4.14477e-21)
(0.0793193 -0.0418965 -1.80719e-20)
(1.04844 -0.0070783 1.29681e-20)
(1.21865 0.332159 -5.20761e-20)
(1.10714 -0.000148813 -3.86593e-20)
(0.111187 0.28973 1.39432e-19)
(0.944559 0.0470801 -1.00317e-20)
(1.30391 0.0051655 -6.98979e-20)
(0.510739 0.310467 1.05697e-19)
(1.00619 0.110612 0)
(1.14847 -0.0609811 0)
(0.958751 0.532576 -2.39418e-20)
(0.997358 0.0459083 9.06723e-21)
(0.149135 -0.0373086 -1.17899e-20)
(0.571539 0.0499853 -8.7803e-20)
(-0.0257569 -0.0188205 5.53861e-20)
(0.922045 0.0232157 -3.25825e-20)
(0.203322 -0.0154155 4.31251e-20)
(1.07496 0.0906066 1.27258e-20)
(-0.0881764 -0.00787976 -1.44215e-19)
(0.528738 0.289326 7.45588e-20)
(0.924879 0.360858 -1.33879e-20)
(0.94127 0.355633 5.777e-21)
(0.50432 -0.0813175 1.65492e-20)
(0.999759 0.00303429 0)
(1.05733 0.18061 -8.57653e-21)
(-0.146808 -0.0174495 1.90255e-19)
(0.983479 0.0319136 1.22575e-20)
(1.0045 0.0744515 6.89342e-22)
(-0.00851066 -0.0164237 3.93737e-20)
(0.863806 0.488076 9.99509e-21)
(1.01989 0.0545988 -1.93645e-21)
(1.13214 -0.0926676 5.43155e-20)
(0.703252 0.553167 0)
(1.00976 0.00521634 0)
(0.130296 -0.0156872 -6.14466e-21)
(1.13079 -0.0952669 5.65942e-20)
(1.00222 0.00532311 0)
(1.01018 0.0135167 4.74719e-22)
(0.998573 0.000843756 0)
(1.0247 0.010621 0)
(1.25673 0.0143178 1.2333e-19)
(0.728655 -0.0839325 2.82035e-20)
(0.385774 -0.270358 1.23896e-19)
(-0.166323 -0.0157493 -3.29301e-20)
(0.998429 0.0157455 -5.96137e-21)
(1.21466 0.144763 -3.10276e-20)
(-0.20475 0.0136507 1.68304e-21)
(1.11893 -0.012243 -6.83254e-20)
(0.454711 -0.0726505 -3.16756e-20)
(0.0158899 -0.0348387 7.00087e-20)
(0.370498 -0.0625668 -3.99321e-20)
(1.01405 0.0056155 0)
(1.09031 -0.0829088 -3.38025e-20)
(1.01141 0.0130168 6.16019e-23)
(0.766553 0.0754049 4.3995e-22)
(1.03864 0.0248158 6.70904e-21)
(0.0856348 0.337936 0)
(1.18936 0.0100771 0)
(1.06728 -0.0116323 -1.07563e-20)
(0.999617 0.00364786 0)
(1.14556 -0.00893909 4.98998e-20)
(1.19729 0.129781 0)
(1.16699 0.00285013 2.05229e-20)
(0.32706 1.10559 -1.02472e-21)
(-0.129609 -0.00878864 0)
(-0.29546 -0.0103211 2.07276e-19)
(0.988257 0.219047 0)
(1.14136 0.151397 -7.38111e-20)
(1.00626 0.0090182 -1.8131e-23)
(-0.122592 0.0118225 5.78083e-20)
(0.460894 -0.0689397 -1.45096e-20)
(1.00073 0.0353044 -1.18294e-20)
(1.30606 0.0109843 -5.85822e-20)
(0.996017 0.0120383 0)
(1.2229 -0.0237951 -8.81663e-20)
(1.04857 -0.00644888 -6.80713e-21)
(0.999818 0.00258132 0)
(1.0364 0.0616771 3.34442e-22)
(0.555411 -0.0533255 -2.97273e-21)
(1.03459 0.062011 -1.8826e-21)
(0.363416 -0.025636 -1.28359e-20)
(-0.0708169 0.037979 2.9776e-20)
(1.11193 -0.0730192 -4.6173e-22)
(0.442522 0.290603 3.0795e-19)
(0.999114 0.0454847 -8.31722e-21)
(0.495676 0.374497 -1.90915e-19)
(0.468606 0.315504 -1.19027e-19)
(1.00246 0.0107121 0)
(0.828092 0.488657 -3.2649e-20)
(0.984879 0.0316249 -2.08932e-20)
(0.994838 0.0140783 0)
(1.2035 0.0977515 0)
(1.00007 0.000370978 -1.67146e-21)
(0.994244 0.0159114 -1.87226e-21)
(1.01164 0.0127934 8.21515e-23)
(1.24846 0.017631 2.74627e-20)
(0.999964 0.00192121 -4.31696e-22)
(0.212289 -0.0176312 -3.76422e-20)
(0.648533 -0.0644647 -9.93197e-21)
(-0.135125 0.0127846 -1.65341e-20)
(1.25782 0.186904 3.13926e-20)
(0.343525 -0.0343127 -1.40689e-20)
(-0.253695 -0.014152 4.43407e-20)
(1.11663 -0.0126249 8.4447e-20)
(0.998768 0.0150639 5.64554e-21)
(1.22142 0.00902872 0)
(1.06391 -0.0186807 3.63459e-20)
(1.07357 0.0982605 0)
(0.999949 0.0089911 3.59619e-21)
(0.658105 -0.0823116 -5.42705e-20)
(0.521861 -0.0769574 0)
(0.703245 -0.0674748 3.62422e-20)
(0.986354 0.0908151 -9.80162e-21)
(1.19065 -0.00285254 0)
(0.925352 0.0202188 6.28369e-20)
(1.06557 -0.0205904 3.81138e-20)
(1.1647 0.00112194 0)
(1.02193 0.0637214 -2.64301e-21)
(1.0902 -0.0814471 4.07833e-20)
(1.02016 0.0476645 -9.58325e-22)
(1.00168 0.00104414 0)
(-0.0669629 -0.0289344 5.26402e-20)
(0.229248 -0.0405428 4.0372e-20)
(0.249502 -0.0438421 -3.86796e-20)
(1.18852 0.216095 -5.81312e-20)
(-0.142833 0.00799113 0)
(0.176719 -0.0425125 2.09596e-20)
(-0.104907 -0.0253248 -1.31658e-19)
(-0.0918636 -0.0188936 -4.73262e-20)
(1.01758 0.00184183 4.18591e-21)
(1.14765 -0.00014575 -2.82293e-20)
(1.02401 0.0635243 2.14537e-21)
(0.993485 0.033228 -1.68574e-22)
(1.26498 -0.0338514 2.7328e-20)
(1.14811 0.0116288 0)
(1.01882 -0.000152681 0)
(1.16725 0.0477442 -3.86814e-21)
(1.11757 -0.00675577 2.95509e-22)
(-0.0829823 -0.0161636 0)
(1.00265 0.0111108 -2.68705e-21)
(1.15696 -0.0475571 -8.19834e-20)
(-0.0207798 0.00382714 1.11622e-19)
(1.2387 0.347043 3.54199e-20)
(0.213369 -0.0218963 0)
(0.99996 0.00168757 0)
(0.999572 0.0358046 0)
(1.01184 0.000437248 0)
(1.05852 0.140738 -8.9606e-22)
(1.01396 0.00520072 -1.02436e-21)
(0.623507 -0.0756955 -1.14882e-20)
(0.397252 -0.230879 -9.34433e-20)
(1.00412 0.143825 3.56849e-22)
(-0.0832284 0.0196813 0)
(1.08987 0.0354061 2.55682e-20)
(1.13566 -0.0615675 -4.04359e-20)
(-0.0672033 -0.0273491 -6.34329e-20)
(0.826283 0.588246 2.6369e-21)
(1.11066 -0.0722416 -1.72694e-20)
(1.12419 -0.0944112 0)
(1.15611 -0.0494812 9.22661e-20)
(1.16512 0.0656389 1.40984e-20)
(1.21121 -0.00915572 1.02716e-19)
(1.09859 -0.0330378 0)
(1.1028 -0.0759236 0)
(0.37525 0.116959 0)
(1.09333 -0.0417989 -3.10231e-20)
(1.15232 -0.0299999 6.36129e-20)
(1.01524 0.000698479 4.28752e-21)
(1.26929 -0.0134923 3.38668e-20)
(1.09355 0.0154904 6.25687e-21)
(1.0309 0.00272867 8.30016e-21)
(1.05397 0.137139 0)
(1.05954 0.0246841 0)
(-0.0800716 -0.0194796 1.15253e-20)
(0.414187 -0.068929 2.90067e-22)
(1.01639 0.0251589 -7.07965e-22)
(1.01811 0.000887706 0)
(0.648294 -0.0826123 -1.29587e-20)
(-0.275333 -0.0113759 2.61619e-20)
(1.00007 0.00028107 -2.91361e-23)
(0.191244 -0.0169797 0)
(1.0594 0.00286103 -2.13368e-20)
(1.24607 0.166363 -4.97336e-20)
(1.01582 0.0271744 -8.33025e-22)
(-0.175712 -0.0161952 0)
(1.1803 -0.0834425 0)
(1.06305 0.0985691 -1.30529e-20)
(1.03974 0.0382331 -5.77285e-21)
(0.368533 -0.0387784 1.20126e-20)
(1.26065 0.138009 1.55537e-19)
(-0.262733 0.00294973 8.4385e-21)
(1.00005 0.000335072 1.49252e-21)
(-0.18316 -0.0153401 -1.70975e-20)
(0.135811 0.0660931 1.36038e-19)
(0.907435 0.0249742 8.22304e-20)
(1.03108 0.00325911 -9.77851e-21)
(-0.136852 0.00822467 0)
(0.268101 -0.0438108 9.47254e-20)
(1.11601 -0.0165328 5.63487e-20)
(1.01076 0.0135542 -4.98119e-22)
(1.01098 0.0490641 -2.25785e-21)
(1.08398 -0.0592001 1.57688e-21)
(1.23645 -0.0263879 -1.20833e-19)
(1.01923 -0.000170838 8.33082e-22)
(1.00967 0.0127971 3.42606e-22)
(1.00531 0.00253265 1.83421e-22)
(1.00565 0.00264892 -2.55015e-22)
(-0.193569 -0.0164441 0)
(1.2647 -0.0293518 5.6574e-20)
(1.11555 -0.0150485 -4.25188e-20)
(1.27106 0.126232 1.55192e-19)
(1.00664 0.000679709 2.28429e-22)
(1.01133 0.00565105 -3.75539e-21)
(1.18706 -0.00464971 6.20087e-20)
(0.137665 -0.0419615 1.02983e-20)
(1.11279 0.0519093 -3.39474e-21)
(1.03515 0.02129 8.34236e-22)
(0.995213 0.0145396 0)
(0.992341 0.00115184 -3.06277e-20)
(0.847788 0.0159932 -4.19807e-22)
(-0.0148061 0.0137997 2.11121e-19)
(1.00059 0.00418303 -3.89243e-21)
(0.992631 0.00415469 1.15525e-20)
(1.08772 -0.0816841 -3.51228e-20)
(1.09925 -0.0314217 -2.42121e-20)
(1.1061 -0.00159196 -4.368e-22)
(0.998517 0.034291 7.01379e-21)
(1.03182 0.0650391 3.79415e-23)
(1.04816 0.0972008 6.37736e-21)
(1.14968 -0.030864 -3.80089e-20)
(0.95432 0.505797 1.83435e-20)
(1.27527 0.134624 -5.89348e-20)
(1.22247 0.00490568 -3.82728e-20)
(1.17377 -0.0203799 4.64263e-20)
(1.23983 -0.0463726 5.62889e-20)
(1.17927 0.124006 -4.24939e-20)
(1.00246 0.0182346 0)
(-0.171386 -0.0155354 7.64777e-20)
(0.992668 0.000611247 2.09111e-20)
(1.00519 0.0774048 -1.31415e-21)
(1.06973 -0.00366538 0)
(1.27432 -0.0148842 -3.41035e-20)
(0.997384 0.297112 7.55928e-21)
(1.01045 0.00127044 -1.41612e-21)
(1.2409 0.335671 0)
(1.21411 0.0858567 0)
(-0.104112 -0.0191516 -1.99233e-21)
(1.1753 -0.0180364 0)
(0.88929 0.140977 8.33389e-20)
(1.12017 -0.00765883 3.07515e-20)
(0.999489 0.00397874 5.25491e-21)
(0.432329 -0.0452545 0)
(1.2302 0.325433 0)
(0.337421 -0.066408 2.28737e-20)
(1.01942 0.0454492 0)
(1.10197 0.0410404 1.00202e-20)
(1.27385 0.121668 -1.15383e-19)
(0.0240756 -0.0368213 -1.98208e-20)
(-0.207173 -0.00308662 0)
(1.15405 -0.0100282 -6.53041e-20)
(1.19748 0.217883 9.69302e-21)
(0.993885 0.0911399 0)
(1.06039 0.0571918 -1.7911e-21)
(0.997404 0.0348422 -3.19175e-21)
(0.891988 0.238174 5.23036e-20)
(0.671603 0.190059 -8.57007e-22)
(0.973307 -0.0012548 4.07116e-21)
(1.13743 -0.0105604 0)
(0.569197 0.157213 8.71009e-20)
(0.351086 -0.068226 -3.24802e-20)
(-0.25604 0.00456165 7.60512e-20)
(1.03522 0.0753611 0)
(1.13352 -0.0608718 3.59644e-20)
(1.20005 -0.0841097 0)
(1.00788 0.121225 6.89598e-22)
(0.968617 0.0267569 -2.51413e-20)
(0.174215 0.55004 2.66324e-21)
(0.602601 -0.0632318 0)
(0.576727 -0.0808067 2.92059e-20)
(1.26643 0.109499 0)
(1.01825 0.00190642 -7.21987e-22)
(0.13514 -0.0180266 6.6527e-21)
(1.08504 -0.0584781 0)
(1.01037 0.000947424 -1.65285e-22)
(1.09984 0.0748989 0)
(1.13313 -0.0420575 3.44171e-20)
(0.847407 0.0757519 3.71162e-20)
(1.20178 0.0880467 -1.03135e-19)
(0.508852 -0.0634545 3.79334e-20)
(1.20764 -0.0100184 -9.62857e-20)
(1.09466 -0.0290824 4.38044e-20)
(0.433303 -0.0446689 8.299e-20)
(1.06202 0.0310532 -1.81999e-20)
(-0.112733 -0.0167377 2.06583e-20)
(1.00001 0.00246828 3.89104e-22)
(1.0006 0.00450585 4.94009e-21)
(1.00619 -0.100487 -4.35922e-20)
(0.573021 -0.0643079 -3.70688e-20)
(0.376486 0.248646 1.0552e-19)
(1.06255 0.0295458 -6.66394e-21)
(1.01629 0.0559535 3.28433e-22)
(0.993076 0.00457555 -1.59611e-20)
(1.08145 -0.0432754 -1.70998e-22)
(0.0787818 0.183153 1.57611e-19)
(1.09092 -0.0679561 -2.45625e-20)
(1.0628 0.0575767 -2.00512e-21)
(1.11108 -0.0702844 -5.7168e-20)
(1.14291 -0.0106291 0)
(1.01571 0.0279355 -7.72034e-22)
(1.17883 0.498272 -7.4677e-20)
(1.08987 -0.0672662 2.06888e-20)
(1.08676 -0.0764738 1.55595e-20)
(1.00549 0.0207512 3.13082e-21)
(1.20309 -0.0151192 0)
(1.0587 0.0263586 0)
(-0.0296405 0.0489622 1.28801e-19)
(1.15391 0.15106 3.12603e-20)
(1.00829 0.289948 -1.53384e-20)
(1.10323 0.0430415 0)
(1.00821 0.00297088 -1.56592e-21)
(1.02894 0.00572693 0)
(1.03777 0.0288788 -8.19312e-21)
(0.97223 0.361349 4.20574e-22)
(0.890475 0.0240243 0)
(1.26255 0.0480858 -8.02659e-20)
(0.466235 0.819033 2.51908e-20)
(1.13669 -0.019075 -4.68695e-20)
(1.00927 0.00517487 -9.02384e-22)
(1.21179 -0.00195933 -4.25124e-20)
(0.373678 0.279361 -1.61283e-19)
(1.13095 -0.0987462 -7.07593e-20)
(1.04157 0.00256311 0)
(0.900233 0.0368771 1.2749e-20)
(1.00912 0.0127171 -3.4705e-23)
(1.07892 -0.0218245 2.61414e-20)
(1.07833 0.0444305 0)
(0.247389 -0.0437747 -1.26917e-19)
(0.99989 0.00263053 7.02411e-21)
(1.24629 0.516429 0)
(1.08052 -0.0187365 3.12437e-24)
(1.11802 -0.0766226 -1.00849e-20)
(1.18238 0.146351 4.42482e-20)
(-0.131939 -0.0206159 -6.50899e-20)
(1.0315 0.287822 1.37896e-20)
(1.01052 0.047364 8.08579e-22)
(-0.0462238 -0.0267445 -4.70252e-20)
(-0.284664 -0.00873686 -4.22619e-20)
(1.00779 0.036563 0)
(1.06854 -0.00446228 3.31346e-21)
(1.18655 -0.0770619 -2.17384e-20)
(1.25718 0.111501 0)
(1.17299 -0.0334335 -1.17598e-19)
(1.00017 0.000408194 1.52922e-21)
(1.04106 0.0381326 1.22778e-20)
(1.20592 0.322993 5.04191e-20)
(1.06782 -0.0126761 3.78316e-20)
(1.16673 0.0067526 -1.72689e-20)
(1.11121 -0.0468219 8.75984e-21)
(1.02962 0.00554943 4.47558e-21)
(1.11888 -0.0326624 5.13399e-20)
(0.568926 -0.0849645 1.55711e-20)
(1.04093 0.000929368 8.02231e-21)
(1.05461 -0.00962212 1.05765e-20)
(1.00475 0.00269445 0)
(0.0761742 -0.0173246 3.0251e-22)
(0.999959 0.00117303 6.90463e-21)
(0.986639 0.0868436 9.91605e-21)
(-0.295316 -0.00804613 1.51816e-19)
(0.995606 0.071111 0)
(0.633771 -0.0633543 1.03467e-19)
(1.08084 0.0671431 -2.51441e-20)
(0.832236 0.0800409 0)
(1.0051 0.00281959 0)
(1.02776 0.220865 0)
(1.00109 0.0134268 -9.36179e-24)
(1.16293 0.0741031 4.33502e-20)
(1.00786 0.00178421 3.00834e-22)
(1.09095 0.267684 0)
(1.05916 0.00369974 -1.07739e-20)
(0.203017 0.120554 0)
(0.43262 0.692642 0)
(0.134974 -0.0427977 3.89207e-20)
(1.01134 0.00042166 -6.44801e-22)
(0.999696 0.00327904 0)
(1.17351 0.120771 -5.75153e-22)
(1.13325 0.115954 0)
(0.0299324 -0.0220449 4.01934e-20)
(0.242823 -0.0542614 -3.95715e-22)
(1.15055 0.021077 -1.30812e-20)
(0.993075 0.012962 -5.14629e-21)
(1.24703 0.0153634 2.61587e-20)
(0.343649 0.223793 -1.54491e-19)
(1.08445 -0.0766053 0)
(1.26285 0.0518959 9.91161e-20)
(1.1409 0.00577787 0)
(0.553281 -0.0616485 -1.21595e-20)
(1.09273 0.133755 0)
(1.07969 -0.0415497 -3.38285e-20)
(1.21811 0.0225928 0)
(0.859108 0.431697 -2.92412e-20)
(1.14877 0.0231721 0)
(0.305244 0.299604 2.1069e-19)
(1.14915 0.0298561 -6.78379e-22)
(1.06086 -0.0084156 0)
(1.13472 -0.0436972 -7.76993e-21)
(1.01048 0.112081 0)
(1.03461 0.004053 5.44944e-21)
(1.07893 -0.0207593 -1.84176e-20)
(1.11988 0.124022 3.81285e-20)
(1.05571 0.099422 -1.52647e-20)
(0.999935 0.013418 8.9609e-21)
(1.0071 0.00054204 5.80526e-22)
(1.13995 -0.0153711 4.64287e-20)
(1.06593 0.00921742 6.97796e-21)
(1.16993 0.00838219 4.83299e-21)
(0.993768 0.0125926 0)
(0.995522 0.00994455 -5.7168e-21)
(0.999965 0.000938335 -7.53309e-21)
(1.02757 0.0652957 -2.17919e-22)
(1.02366 0.000670643 0)
(1.05363 0.0846989 6.66313e-21)
(1.00422 0.00285895 0)
(-0.182742 -0.0154347 0)
(1.09138 -0.0531064 2.65294e-20)
(0.470394 -0.276489 0)
(1.01276 0.00531738 2.50571e-21)
(1.00008 0.00182868 4.58597e-21)
(0.803769 0.151046 -9.01252e-20)
(1.16865 0.0634277 0)
(0.95347 0.00631651 3.19185e-20)
(0.753186 -0.000810765 -1.01483e-19)
(1.1432 0.202688 7.61322e-20)
(0.93818 0.101777 5.24266e-20)
(1.08044 -0.0198337 2.55198e-22)
(1.19762 -0.00471348 0)
(1.05397 0.0143907 0)
(0.999902 0.00119241 -2.71307e-21)
(1.00591 0.00236188 6.96969e-22)
(1.03933 0.0594504 1.18101e-20)
(-0.321282 -0.00625805 0)
(1.00006 0.0015497 -6.32931e-21)
(1.14724 -0.0554631 -6.22877e-20)
(1.0551 0.0871661 -9.04529e-21)
(-0.202703 0.016289 2.3943e-19)
(0.971356 0.230823 -6.8136e-21)
(1.15066 0.200634 -4.36559e-20)
(1.11617 -0.0757556 4.79273e-21)
(1.02161 0.00620743 -2.31334e-21)
(1 4.74174e-05 -2.1152e-23)
(1.09272 -0.0535839 -2.93492e-20)
(0.988252 0.00503979 -1.37091e-20)
(0.986864 0.0454482 1.0805e-20)
(0.890803 -0.00167623 0)
(1.01612 0.0599088 0)
(0.998632 0.00150128 1.06196e-20)
(1.09143 0.0546161 1.69172e-20)
(1.00671 0.00809572 -6.1629e-23)
(1.01709 0.000866666 2.88623e-21)
(1.06236 0.0942283 4.94757e-21)
(0.884433 -0.0191611 0)
(0.00930849 -0.0177554 2.36045e-20)
(1.08771 0.113145 5.85411e-20)
(1.04087 0.000381522 3.76229e-23)
(1.00957 0.000993671 0)
(0.0554776 -0.0416533 5.53952e-20)
(0.957486 0.36906 1.7199e-21)
(1.00382 0.0440455 2.07993e-21)
(1.02044 0.0447435 0)
(0.84363 0.00236182 9.20902e-20)
(1.19418 -0.0792809 2.16155e-20)
(-0.3063 -0.0106441 1.28434e-19)
(0.897193 0.141377 0)
(1.06188 -0.00762321 -5.7616e-21)
(1.01234 0.00320607 -8.87221e-23)
(1.01731 0.00101718 1.55371e-21)
(1.09493 -0.0420109 2.82102e-20)
(1.09255 0.114186 -6.47962e-20)
(1.13356 -0.0886288 -5.99364e-22)
(0.918063 0.0232529 6.24994e-23)
(0.12473 -0.032583 6.22231e-21)
(1.03114 0.0438578 1.037e-20)
(0.966736 0.0624339 2.12528e-20)
(-0.314413 -0.00743787 0)
(0.995797 0.0114732 0)
(1.09459 0.0137129 -6.43071e-21)
(1.00647 0.0329783 1.081e-21)
(1.00215 0.00134025 -1.84539e-23)
(1.11235 0.12972 3.44336e-20)
(0.77354 -0.00184148 0)
(1.05203 0.0272858 1.70699e-20)
(0.598168 -0.0639612 -7.58223e-20)
(0.297793 -0.0195211 -2.21715e-21)
(1.18692 0.141336 0)
(1.00281 0.0188568 5.12589e-21)
(1.02572 0.00217101 3.39246e-21)
(1.09669 -0.0683605 3.08382e-21)
(1.17639 -0.0518661 0)
(1.00007 0.000460738 1.65331e-21)
(1.24713 -0.0510127 1.52587e-20)
(1.02522 0.00237457 -6.59285e-21)
(1.11623 0.118763 0)
(1.03494 -0.0028171 1.19743e-20)
(1.03589 0.00577735 -5.50523e-21)
(1.25162 -0.0261261 6.26704e-20)
(1.04198 0.0154262 -1.89716e-20)
(0.997401 -0.072665 7.86007e-21)
(1.12171 0.0903902 0)
(0.999959 0.000881513 -3.5701e-21)
(1.02075 0.00325976 1.04517e-20)
(0.981296 0.00325072 0)
(1.01065 0.0211152 0)
(1.05421 -0.00854059 6.47511e-21)
(0.270444 0.694116 -7.5395e-21)
(1.03977 0.00297492 -1.1558e-20)
(1.03221 0.0100864 4.7369e-21)
(0.318229 -0.0686859 -1.79121e-20)
(0.541708 -0.0748831 7.05243e-20)
(1.09602 -0.0306107 -1.18114e-20)
(1.12767 0.117274 0)
(1.15932 -0.00289062 -3.63611e-20)
(1.08123 0.0227592 2.73162e-22)
(1.02575 0.0143646 5.87363e-21)
(0.887906 0.016715 0)
(-0.1541 -0.0189321 -1.64696e-20)
(1.10094 0.269084 2.07829e-20)
(0.998404 0.00617915 0)
(1.03833 0.0373687 4.07761e-21)
(0.272528 -0.0569854 -4.30556e-20)
(1.12055 0.0169784 3.61799e-20)
(-0.120545 -0.0171461 3.76655e-20)
(0.999968 0.00114048 8.11277e-21)
(0.951092 0.00720031 -3.35537e-20)
(0.0587263 -0.0163692 -3.23107e-20)
(1.1123 0.0107651 1.26161e-20)
(1.05418 0.0257329 1.68512e-20)
(-0.314582 -0.00490138 -8.11756e-21)
(0.213184 0.24619 0)
(1.0109 0.0205433 7.26676e-23)
(1.21348 0.0237782 0)
(1.00624 0.00247975 -3.50809e-22)
(1.04079 0.0154463 1.19102e-20)
(1.01315 0.00559197 -4.27952e-21)
(-0.143941 -0.0205869 6.76185e-20)
(1.02323 0.000547789 -5.21516e-21)
(1.0397 -0.00528865 0)
(1.02629 0.0138894 0)
(0.948264 -0.0721897 -1.78665e-20)
(1.06375 -0.0163319 -2.71704e-22)
(1.25041 0.159562 4.85881e-20)
(0.700804 -0.0872261 0)
(1.03633 0.00384141 -9.25301e-21)
(0.845099 0.0325379 -1.33169e-20)
(1.00061 0.00395947 3.43918e-21)
(-0.15632 -0.0155966 -3.8978e-20)
(1.00593 0.0108499 -8.04512e-22)
(1.04043 0.00237167 2.31565e-20)
(0.99869 0.00200929 0)
(1.09755 -0.0691882 5.32451e-22)
(0.99851 0.0019077 -3.90377e-22)
(1.20664 -0.0143897 0)
(0.305712 -0.0146522 8.98089e-21)
(0.68634 -0.0909066 -2.92508e-20)
(0.905167 0.0372675 -2.56273e-21)
(1.1309 -0.0944035 -3.96659e-20)
(-0.269885 -0.00946419 -2.489e-20)
(0.997708 0.0289018 0)
(0.116134 -0.0148286 0)
(0.36923 0.033699 -8.58242e-20)
(-0.248636 -0.00959618 -4.99293e-20)
(0.330124 -0.0339185 -1.43471e-20)
(0.299873 -0.0678003 3.70459e-20)
(0.0917188 0.147878 -1.18645e-19)
(1.20803 -0.000713238 3.8833e-20)
(1.01272 0.0499952 0)
(0.493836 -0.0613163 -3.59732e-20)
(1.1117 0.0129436 -2.36027e-20)
(0.428179 -0.0656418 -8.00768e-21)
(1.0304 0.00370115 2.00772e-21)
(1.0255 0.0233788 6.67495e-21)
(1.00535 0.0449826 -3.37053e-21)
(1.00066 0.00427451 -3.60275e-21)
(1.08627 0.0177708 4.13123e-22)
(0.892722 0.0966641 -3.08319e-20)
(0.0781468 -0.0245965 0)
(1.02527 0.0223781 -3.26071e-21)
(0.993948 0.00531289 -1.19032e-22)
(-0.232656 0.00932075 7.75256e-20)
(0.9769 0.462497 1.71149e-20)
(0.981419 0.00195749 -1.19924e-20)
(0.811267 -0.0474836 -4.55072e-20)
(1.09929 0.056549 -3.90506e-20)
(1.04744 0.0211005 -2.3076e-23)
(0.494683 0.729804 0)
(0.805191 -0.0422806 4.83744e-20)
(0.953212 0.0547718 0)
(1.06423 -0.0155763 7.89448e-21)
(0.276151 -0.0154397 2.18822e-20)
(-0.299652 -0.00678341 4.87933e-20)
(0.222756 0.0685496 -3.01837e-20)
(1.03451 -0.00230777 -1.29426e-20)
(1.25725 0.145562 0)
(1.2106 0.0817907 -1.64095e-20)
(-0.230496 -0.0029971 -5.31557e-20)
(0.354252 -0.0613619 4.51396e-20)
(1.0895 -0.0616405 1.11771e-21)
(1.01692 0.0271817 3.19465e-22)
(1.05508 0.0151173 2.9079e-20)
(1.0297 0.0442666 3.23455e-21)
(1.01964 -0.000101104 0)
(1.03029 0.0663364 -4.24376e-21)
(1.01751 0.00160923 -2.90112e-21)
(1.05059 0.0955485 0)
(1.08842 0.133588 1.98213e-20)
(-0.0646848 0.0197339 4.81597e-20)
(1.16157 -0.0524327 -2.14019e-20)
(1.04023 -0.00475574 4.80323e-21)
(1.194 -0.00595511 0)
(-0.0893398 -0.0262996 7.93819e-20)
(1.10888 0.124383 3.10551e-20)
(0.973096 0.026521 -7.13188e-21)
(-0.120256 -0.0148063 7.71235e-21)
(1.03219 0.0197481 7.48783e-21)
(0.987687 0.0433831 0)
(0.818387 0.0695543 3.81248e-20)
(-0.0277056 0.0262464 4.78066e-20)
(0.998419 0.000527758 0)
(1.00504 0.0211444 0)
(0.454636 -0.0741323 0)
(1.11844 -0.0913459 3.2941e-21)
(1.20241 -0.0853841 -6.50539e-20)
(1.17506 -0.0259878 -7.49682e-20)