/*--------------------------------*- C++ -*----------------------------------*\
| =========                 |                                                 |
| \\      /  F ield         | OpenFOAM: The Open Source CFD Toolbox           |
|  \\    /   O peration     | Version:  v2012                                 |
|   \\  /    A nd           | Website:  www.openfoam.com                      |
|    \\/     M anipulation  |                                                 |
\*---------------------------------------------------------------------------*/
FoamFile
{
    version     2.0;
    format      ascii;
    class       volScalarField;
    location    "350";
    object      omega_0;
}
// * * * * * * * * * * * * * * * * * * * * * * * * * * * * * * * * * * * * * //

dimensions      [0 0 -1 0 0 0 0];


internalField   nonuniform List<scalar> 
13851
(
0.0234779
1.20298
0.0758068
0.0231565
0.0773084
0.151705
0.0216295
0.0453124
0.020668
0.0868063
0.21401
1.84319
2.70531
3.17727
0.0214116
0.0328057
0.024652
0.0279203
1.10583
0.0206635
0.022993
0.0740218
0.0212896
0.0222036
0.0214676
0.0461085
0.0239902
10.1752
0.0232997
0.0240261
0.336141
0.0249505
0.0728556
0.336988
0.0222142
0.179686
0.990604
0.189496
0.0964204
0.34319
0.0213251
0.0197524
3.06144
0.242166
0.240811
5.86648
0.248919
0.498028
0.0242023
0.130467
0.0710678
0.130726
3.49394
0.0215716
0.022525
0.0197562
0.0212499
2.03794
0.0238142
0.0216642
0.164356
3.29624
0.048744
0.0902197
0.540814
0.025052
2.31509
0.264651
0.03315
0.0277487
7.28162
3.11722
1.23651
0.0216858
0.0210239
0.0208912
0.070935
5.20483
0.0462091
6.65467
0.0218688
0.221471
0.0213578
6.76152
0.0509631
1.85106
0.0560499
1.87008
0.0251218
0.0208759
0.177999
0.0316301
0.275673
0.0272511
0.0249056
0.0219707
0.0795774
2.70841
0.168337
0.0219734
2.96048
0.0493378
0.0222197
0.023714
0.0209924
0.0559778
0.0545446
0.0196536
3.56504
0.195706
0.0222488
0.0209495
0.0300895
0.0226634
0.0222473
0.77655
2.77589
0.0196862
0.022821
0.0229666
3.29917
0.0235958
2.74784
0.619247
0.445816
0.0218012
0.518585
0.0479069
0.0228083
0.131911
0.0213058
0.02072
5.87936
0.0213584
0.636396
0.0209128
0.0196985
3.02912
2.21346
2.44743
2.78696
0.0224829
0.022672
0.0200894
0.0231305
0.25483
0.0460134
0.131386
0.0216143
0.24743
0.0733788
0.0225195
3.38905
0.0213074
0.0228029
0.0230416
0.0210266
0.0230171
0.130247
0.07003
0.0197766
0.0271917
2.05077
0.0207039
0.0274648
0.0199181
0.0449839
0.0335966
0.0226847
3.07482
6.42484
0.0203845
0.0210454
2.44371
0.0206954
0.415392
0.0463642
0.0226235
1.47795
0.0196664
0.0256975
3.23168
0.0213563
0.0790288
0.0197514
0.0214887
0.0252487
0.0218612
0.0877291
0.0841555
0.257029
2.66064
0.0211787
0.0332654
3.09382
0.0226633
0.02242
0.401267
0.0224326
0.020924
0.0219275
5.32188
0.0238246
0.0212583
0.0684419
0.0213681
2.79982
0.0247859
3.08734
0.019688
3.43396
0.0221283
0.407736
0.0196219
0.0200079
0.167875
0.0494954
4.72748
0.0213484
3.0395
0.0249466
0.0219094
3.11194
0.126129
3.42179
0.0215817
0.0291258
0.0211529
1.99828
0.0196209
0.0447394
0.836883
0.0203769
0.0210938
0.0633825
0.0419228
2.95383
0.807885
0.0200696
0.0212699
0.251838
0.217615
0.0202006
0.0737963
0.0206521
3.21596
0.0505502
0.351454
0.0231325
0.0255485
0.0277753
0.207811
0.0218998
0.023218
0.0507603
0.0963655
0.0789302
3.0702
23.4413
0.02144
0.020028
0.0268869
0.804132
0.0204797
2.41229
0.022652
0.0218666
0.0267857
3.14233
0.0317068
0.0276126
0.0227964
0.863114
0.0437456
0.0319015
0.0207301
0.220036
0.0555928
3.64915
0.217744
0.020213
0.0196483
0.0209256
0.0486324
0.777432
0.367756
0.0207801
0.0214453
0.861991
0.222441
0.159997
0.0235209
0.0216725
0.0355677
0.223157
2.21817
0.0268986
1.84664
0.020751
3.25509
0.0268364
0.0245218
3.62176
0.0216427
0.0626827
3.11159
0.0207587
0.0423277
0.0273737
0.023325
2.23122
0.0270799
0.0218468
2.98144
0.0198008
0.025787
0.0228069
3.72931
0.11861
0.021348
0.0509138
0.0213817
9.8497
0.0304041
0.0212938
0.0212832
0.115791
0.0284659
0.022722
0.0214483
0.0216205
0.0218073
0.228427
4.10873
2.85597
0.0305536
3.69706
2.59114
0.0213684
0.033892
0.160728
0.0337676
0.0550008
0.114528
1.4143
0.025166
0.710653
3.17708
0.0214281
0.157875
0.152452
1.57115
0.0227122
0.0585351
1.98187
0.0210732
0.716428
0.0212698
0.0213937
0.0205085
0.0196522
0.0209665
3.25707
0.340257
0.0213732
0.0405913
0.0198499
1.83339
0.0390127
0.519787
2.88096
0.0213865
0.0539502
0.0274865
0.512105
0.0212338
0.0197032
0.0291714
3.01631
0.0214202
2.267
0.0336152
0.122105
4.04225
0.271492
0.276776
0.0254749
0.020784
0.0220703
0.029421
0.0503262
3.00464
0.0335884
3.50379
3.14669
0.0198628
0.0214477
3.01626
4.98958
0.600191
2.8487
0.0301816
0.0280733
0.0219316
2.59986
0.0205081
0.0320932
0.0249428
0.0215636
0.0210382
0.0207318
0.0199046
0.0875918
0.0508952
5.80567
0.0282623
0.053784
0.0334102
0.164766
0.026461
1.73322
0.0242773
0.195315
0.0196857
0.020712
0.0217293
0.771341
0.307309
0.121785
0.0323979
7.97616
0.35094
0.0485247
0.0232652
0.0647879
0.021213
0.142135
0.0209733
2.08742
0.291215
0.0680113
3.20242
0.0227332
0.132515
0.297298
3.54697
0.01964
0.0294195
0.047463
0.0343206
0.0204647
0.0218216
0.0687687
0.121703
0.0320207
1.52142
0.0215695
0.0213495
2.32984
0.0282411
0.019631
1.85147
0.0207733
0.02345
0.0205494
0.040322
0.0226707
0.0196673
0.0225579
3.00519
0.0213697
0.0357324
0.0208338
0.028157
0.176302
0.0228108
0.0212922
0.0226903
0.0226729
0.192183
0.0218455
0.0761527
0.0213561
0.0216823
2.96848
3.35388
0.0213943
0.0288715
0.0266169
0.283671
6.023
0.0213657
0.347437
0.0212588
0.0772445
0.0216012
2.05899
0.0197944
3.95922
0.0791897
0.0197665
0.0288939
2.69404
0.045979
0.2573
0.0227407
0.424258
0.0229351
0.0206408
0.0207366
0.0215717
3.98382
0.063735
0.128157
1.1065
0.0472354
0.0198174
2.83996
0.303769
0.0258506
0.0273942
0.279928
0.569353
3.46692
0.0224058
2.08796
6.38516
5.28165
0.0278004
0.0295064
0.634839
0.108986
0.0921125
0.393116
2.14426
0.0231883
2.17727
3.09367
0.0196972
0.0578621
0.0654119
4.14675
0.0233082
0.021236
0.0210016
0.0212711
0.0859179
0.03838
1.83555
1.52826
0.0207743
2.33675
3.11382
0.137934
0.294691
0.0351035
0.0196002
0.0206882
0.19534
2.87036
0.0228857
0.0880295
0.176052
0.0197431
0.0391973
0.603082
0.474161
0.11342
3.75677
3.12754
0.0212796
0.0215767
1.42242
3.09822
0.125973
0.0334424
0.0532718
0.0196654
0.0211159
2.12841
0.0197208
0.0232209
0.0196526
0.0207932
3.11302
0.0862065
0.0299492
0.01971
2.51037
0.413378
0.0207788
0.0209856
0.0205321
0.0219791
2.9284
0.37525
0.392599
4.66941
0.374052
0.0317755
5.6841
3.25342
0.0256192
0.0336028
0.0195937
0.0225653
0.0341477
3.0143
0.719303
0.0866623
0.0283892
0.0206216
0.0324031
0.022539
0.258881
0.0709243
0.0213466
0.0312798
0.0204665
0.0265475
0.126346
0.0216371
0.021191
0.0390991
0.0216107
0.0786517
0.492812
0.120571
0.0329042
0.130174
0.0206069
0.189895
0.0290774
4.02928
0.0220538
0.0220371
3.4729
0.0235381
4.60024
3.15147
3.24732
1.79193
0.020508
3.29561
0.0203995
0.0207876
0.0197879
0.0208016
0.021895
0.0290304
0.0380659
0.0196914
2.4661
0.0832974
2.52198
0.0209329
0.0199173
0.0208616
0.157759
3.17551
0.0518769
0.0268127
0.0204346
0.021762
0.0215656
0.0210807
0.219976
1.6593
0.0215882
0.019681
0.0215842
0.0210723
1.53926
2.27982
0.0330228
2.64865
0.466891
0.0211735
0.126785
3.40865
0.0350159
1.86249
0.0218535
0.0270974
0.0509426
0.0274131
0.409392
0.0213818
0.639204
0.021021
0.0298743
3.02164
0.0209839
0.0229761
0.0511476
0.0206495
0.0252471
0.867145
2.48343
0.0690456
2.09292
0.288245
0.019637
0.0209118
2.76741
0.169733
0.0450961
3.18787
0.0205588
0.024194
0.0197122
0.379338
2.20971
0.0254659
0.0218714
0.1424
0.0241329
0.0208305
3.03957
0.107138
2.83289
0.0197855
0.0215786
5.28757
4.78058
0.150055
0.0222977
3.44892
0.0213708
0.15282
0.134125
0.0725271
0.0248066
4.06511
0.0264849
0.0231832
0.824784
0.0219439
0.0238101
0.0228105
0.0205889
3.30874
0.0313364
0.114784
0.0293886
0.0706852
0.020643
0.868601
0.0226172
0.0263624
0.0200024
0.0211373
0.0214215
3.06701
0.0209862
0.019738
0.239877
0.021596
3.91887
0.0212121
0.0225574
0.0684009
1.75672
0.328346
0.0209307
0.769518
2.6681
0.0218774
3.27891
0.0295904
0.020561
0.0423271
2.78006
0.587442
0.0257245
0.0208918
0.0196663
0.280043
0.0809614
0.0578018
0.0264694
0.0423858
0.0221161
0.0224111
0.0869437
0.422372
0.0854404
0.724388
0.0215596
0.0787257
0.0825005
3.77455
0.0253063
2.16134
0.702641
0.0216098
6.85566
0.114481
2.66303
2.48893
2.9065
0.336598
0.0403565
0.0205765
0.0288596
2.03239
7.58537
0.0212085
0.0217186
0.0655122
0.235017
0.0197859
3.49472
0.0205369
0.021385
2.62882
5.20185
0.299394
0.0207774
0.0214083
3.68673
0.205709
0.117563
0.023754
2.66022
0.486423
2.79529
0.0537356
0.039793
0.0218522
0.0215916
1.31378
0.0484615
5.69803
0.0312611
0.0331324
4.84395
2.65753
3.42616
0.0214459
0.0303146
0.0207659
0.0335912
0.0228908
1.82709
0.0243276
3.14311
0.0197815
0.0670413
0.0211397
0.152697
0.0323424
0.0299353
2.6696
0.0425285
0.0426957
0.0223178
0.0669317
0.461566
0.0603228
0.0233079
6.40091
0.0204111
2.45075
0.351593
0.0216311
3.40655
3.04486
3.58863
0.295037
0.0301597
0.0211976
2.84109
0.0243956
0.824083
3.09915
0.02094
0.0226203
0.567688
0.422627
1.94175
0.0215544
0.0208771
1.328
3.04827
0.114135
0.0252912
0.0230819
0.354231
2.64804
0.0854518
0.0197438
0.0407367
0.0206641
0.0233117
0.20154
0.0219948
2.1847
0.141347
0.0213946
0.0228443
0.021222
0.0228612
5.86111
2.69212
0.0290285
2.2152
0.021138
0.0290557
0.0211505
0.0206795
0.0215747
0.0213796
3.90439
0.0213954
0.0510334
0.0214498
0.0258965
0.243667
4.45826
0.0227602
1.52228
0.0609134
1.30527
0.0320945
0.0324206
7.60224
0.0265562
0.0393669
1.81398
0.81613
3.04492
0.039584
0.240975
0.0219558
0.0404731
0.0505426
1.99087
0.021384
2.23113
0.0208939
0.0209512
2.85737
0.0217367
2.402
0.0250614
0.0207512
0.0370661
0.0207657
0.0214143
0.0207877
0.0218085
0.204982
0.0209576
0.185117
2.36647
0.0611248
2.48652
0.0215728
0.0226484
0.0236441
0.0212827
0.0207441
0.0783579
0.021903
0.0208438
0.0219263
0.0215422
3.80373
1.63516
0.0564273
2.81739
0.287701
0.0211112
0.571934
0.028193
0.0209483
0.30215
0.057471
0.449484
0.0210832
0.245702
0.432155
2.05395
0.0204105
2.72085
0.030611
0.0238747
0.0210356
0.0205662
2.14175
0.0948237
0.254362
0.0209277
0.0213179
0.48451
0.0216496
1.78372
0.356524
1.60604
1.46674
0.357255
0.0216544
0.0213386
0.0543189
0.0283743
0.023711
0.156941
0.0413664
0.0219367
0.0229407
1.73117
0.0208634
3.49042
2.26476
0.753975
0.182096
0.0222937
0.0202112
0.0217437
0.270774
0.260054
0.0204099
0.0231376
0.0208968
0.076346
0.0198614
0.0208585
0.0219426
0.0322537
1.62423
0.040868
0.0309292
0.0214758
0.0510495
2.6098
0.0222002
6.49054
2.45629
0.0794535
0.0199812
0.0434788
0.0212313
0.0213301
0.0216801
5.04603
0.118722
0.326765
0.0237805
0.186416
0.0212827
0.0210848
0.0216508
0.587712
0.872517
0.0197563
0.0318666
0.0541047
3.48283
0.022793
1.36175
0.0221185
2.62401
0.0746639
3.31922
0.0884218
0.0784045
0.77186
3.0452
0.336296
5.01998
0.0212315
0.140388
0.019847
0.0233982
0.0259066
0.0216171
3.10255
0.029205
0.0271748
0.350565
0.179227
0.24042
0.0213641
0.0235125
0.0258948
0.0202922
0.0299488
1.2531
0.333642
1.10184
0.0209485
0.026615
0.0241462
0.617159
2.92492
0.0537197
0.0201881
0.0218414
2.16398
0.0446471
2.08233
2.75499
0.061167
0.019961
2.75487
0.0293825
0.0430814
0.0280859
3.34406
0.268221
0.12006
0.182702
0.022294
0.0271428
0.0213921
2.91506
0.0467785
3.18269
0.0794136
0.0257299
0.142412
0.0226199
3.37946
0.276037
0.0208296
0.161526
2.9869
0.193712
3.39892
0.0216456
0.0213602
5.58718
2.66428
2.17675
0.0228018
0.0215814
0.02139
3.71059
0.137962
0.0217893
0.0637245
0.0853267
2.76309
2.66387
0.420675
0.0214294
3.36303
0.0244636
0.0212723
0.136625
3.37411
0.0216361
0.0208859
5.71575
3.31294
0.0214764
0.0209329
2.26861
0.020772
0.208551
0.0209484
0.549272
0.0213549
0.051862
1.15881
2.97563
0.0224484
4.60501
0.176112
2.40136
2.28248
2.58554
0.0498869
0.0211672
2.393
0.0228406
0.0213809
0.0202645
0.438054
0.0211551
0.715956
0.0209034
0.0233457
4.94106
0.0648284
2.13556
0.0227718
0.02847
0.0207282
0.0319188
2.92025
3.03556
0.0208715
0.0654775
0.273454
0.021617
0.0205783
2.9286
0.0336684
0.0344675
0.127287
2.45878
0.819647
2.73809
3.34605
0.0612193
0.193426
0.280998
1.70049
0.065397
0.0201437
0.124817
0.0211549
0.0211387
1.80708
2.97237
0.0231145
3.15063
0.107058
3.80462
0.108364
0.0624312
0.0212352
0.132095
0.0693343
0.0211223
0.0225416
3.17766
2.77183
1.34581
3.39658
0.037852
3.18209
3.28149
0.0313749
0.0217547
0.0210592
0.223398
0.0210121
0.244266
0.0223969
0.0220444
0.0232981
2.682
3.70107
2.31395
0.0218962
2.85173
0.0249359
0.0290765
0.0209918
0.0208336
2.07075
0.0268709
3.27276
1.36397
0.0567162
0.113674
0.021481
0.0398355
0.0216113
0.137616
0.0224631
0.0226874
0.0218163
0.0224473
0.156568
0.0220982
0.034233
0.0211598
0.034845
0.14515
5.74445
0.0210734
0.0473667
0.0212829
0.0550132
0.022849
2.74933
0.137418
0.0310714
0.0236262
0.0224483
0.177325
0.021265
0.131311
0.0214294
0.0209736
0.022293
2.96456
0.0267134
0.0245597
0.0291104
0.0213482
0.0628144
2.87351
2.30384
0.0350498
0.0213988
0.0432117
0.0201919
0.0210672
0.180794
3.12533
0.021123
0.0299825
0.107164
2.94641
0.0218279
0.0220224
3.15721
0.0225265
0.077554
0.309252
3.79441
0.0213696
0.0237168
0.0212551
3.36586
0.12858
0.041106
0.116485
2.3483
0.0223664
3.67042
2.05586
0.0216236
2.73171
0.0795944
0.0224191
2.09939
0.0215483
0.021243
0.0205059
0.179651
0.0954732
0.16339
0.0227162
0.0222599
0.0296269
0.317277
0.616521
3.66767
0.279787
0.0219988
0.129109
0.129666
2.13684
0.0726373
0.236618
0.0210248
0.028943
0.0205847
0.105644
0.0359723
0.0212485
1.89796
0.140177
0.0319071
0.0257429
0.0196888
0.0212815
0.0524184
0.0337136
0.341297
0.0654746
0.0649037
0.0585284
0.114304
2.01569
0.0561353
3.60631
0.0210884
0.0208472
0.164894
2.39576
2.39094
0.130944
0.0225002
4.77709
0.26963
0.0210222
0.0260892
0.0208259
0.0406201
0.0689956
0.0344152
2.58102
0.531668
0.0225867
2.67848
6.40099
0.0214247
0.0862733
2.26968
2.14522
0.0236964
0.0733382
0.0196135
0.023152
0.021072
0.0251225
3.55915
2.65671
2.5098
3.73598
0.0225543
0.0334953
0.0530597
0.0209745
0.0219162
0.0205743
3.03896
0.0209741
3.48486
0.0359433
0.0447448
0.157349
0.205312
4.66627
3.03254
0.0398572
0.0198789
0.0224109
2.86613
2.13225
0.0246179
0.0207925
0.0206448
0.0615866
0.0299746
0.142077
2.18945
0.0225176
0.0205268
0.119235
0.03847
6.25933
1.04611
0.0209447
0.0708634
0.021569
3.57558
0.0200272
3.18778
0.0210104
0.0224547
0.0305871
0.0219623
0.0529232
0.029551
0.0464364
2.04849
2.78042
0.025066
0.0295253
0.0212258
2.95661
2.08358
0.0218255
0.0200852
0.275431
0.019663
3.87139
0.0211975
0.0328389
0.0677447
0.117969
0.0373256
0.0226768
0.0216032
0.0687249
3.23381
0.0211677
0.0923859
3.72868
0.652496
0.227098
0.0329302
3.50387
0.0252515
0.407153
0.0212826
0.290081
0.272489
4.44019
2.60444
2.16049
0.0220156
0.0765178
0.0208772
8.15121
0.298832
3.08398
2.01733
0.0267245
2.04926
0.723353
0.034198
0.0227539
0.0216261
3.36666
0.0254478
0.068248
0.0231832
0.021665
0.0206795
0.021559
2.75261
0.173798
0.0307201
2.16869
2.38091
0.0214729
0.0213189
0.0205658
0.0274539
3.16689
0.231445
0.0253751
0.0247458
0.769146
0.0748355
0.0437635
4.79575
0.0299314
3.50134
0.0298308
0.0288873
0.0212935
0.0231189
0.0690492
0.431124
0.297432
3.17112
0.0683777
3.1269
0.024319
0.024265
0.0214718
2.32893
2.42212
0.484417
0.0663766
0.0234419
0.0214073
0.021096
0.0214261
0.0205929
2.70565
0.0288679
3.22169
0.0317458
2.68043
2.02785
3.23546
0.0335909
0.0257228
2.08668
0.038625
1.64212
3.34282
0.0206262
0.0719514
0.0269152
3.16742
4.16894
0.034233
0.0596632
0.33123
0.0229867
0.0493321
0.0241796
2.66932
0.33571
0.0238674
0.0216
0.279615
0.261037
0.127437
0.725427
0.125021
0.0277671
0.0212255
1.81795
3.13535
0.0749903
0.0304057
2.80103
2.70438
0.0208952
0.0214178
0.0240874
3.15481
3.01708
0.0213466
4.22672
0.0220393
0.0210829
0.0216218
4.34234
0.597288
0.0682637
2.45832
0.0228943
0.0226496
0.0209877
7.8175
0.0222865
2.99667
0.02383
1.1971
0.0218258
0.0211556
0.120364
2.81176
0.284116
0.0352515
2.46905
0.0200452
0.0215181
0.0214287
0.0435608
0.0636023
0.0635849
0.0354139
3.28349
0.0242379
0.122774
0.465238
1.99433
0.0214589
3.37997
3.07633
0.0248785
0.384092
0.0644156
2.54859
0.0216093
0.0659155
0.0211299
1.62306
7.28307
0.0829467
3.3958
0.0234806
0.047983
0.0224697
3.90345
0.019946
0.0208095
0.488725
0.0841964
2.4706
2.87198
0.062917
0.0282291
0.0204889
1.27724
0.0299663
0.0211625
0.141998
0.020683
0.0426619
0.0214011
0.495075
0.0226421
0.254565
0.299462
0.030632
0.135153
0.0535516
3.60131
0.021329
1.19684
1.54947
0.020733
0.021371
0.0228175
0.0218543
0.0387056
0.0212743
0.0923354
0.0745271
0.102709
0.0580631
0.0215252
0.0218722
0.0204958
3.13404
0.0215382
0.0212957
0.223613
0.0238034
1.22427
3.40849
0.0864681
0.0240999
0.033102
0.0225993
0.0220257
0.0339441
0.0201439
0.0239316
2.38151
3.27205
1.20267
0.0225489
2.69013
0.197459
0.0218707
0.082422
3.12616
0.0213608
0.0234573
0.0213159
3.28858
2.29283
0.553009
0.0201244
0.023904
0.0232821
0.0216019
0.127919
0.021577
0.0490925
3.43519
3.54035
0.0206069
0.0238015
0.023428
2.52856
0.019679
2.23616
2.19196
0.221027
0.800456
2.99824
2.11277
0.0227795
0.555794
0.0948323
0.022359
0.02047
0.0208822
3.37247
2.1702
3.22928
0.0212547
3.51961
0.0215931
0.161792
0.0205101
0.0231307
0.0222988
0.020596
2.3443
0.0224199
1.91185
2.81205
2.25261
0.046024
0.0511957
2.31753
3.19074
0.0218662
3.49889
0.0205023
0.0197053
0.0213056
0.0513605
0.0207262
2.03504
0.0294792
0.247355
0.0365291
2.19515
2.08445
0.0943374
0.0205712
0.0538321
0.0730802
2.3678
0.0214862
0.0198733
0.0229842
1.92554
0.0216711
0.244066
1.98766
0.0406677
0.0590459
0.0215137
0.350165
0.0217929
3.19624
0.0202571
2.53357
0.0308595
0.0215282
1.99645
2.28626
0.0201943
0.0643375
0.0244068
3.2606
0.0546314
0.464189
0.26283
0.0218011
0.0538682
2.64958
0.0211137
0.0457645
0.0231279
0.0751924
0.0319409
2.14968
2.92659
0.021544
3.41649
0.0223822
0.0432906
2.9367
1.98684
0.0350697
3.01061
0.345985
0.0216123
0.278765
0.126777
0.0304329
0.0223733
2.703
0.0202237
2.68295
0.178456
0.106552
0.0213538
0.0301157
3.22309
0.043799
2.69715
0.0220561
0.0237075
0.126002
2.79173
0.0258828
3.21632
0.705276
2.06557
0.0216386
2.79004
2.44219
2.39289
0.0214041
0.0221756
0.0213412
3.30477
0.0262647
0.339885
0.353976
0.0218295
0.0203216
0.0213748
2.40511
3.16164
3.03439
2.12556
0.0209739
2.64753
3.24068
0.128701
2.18161
3.07295
0.0339099
2.72616
0.0232999
0.025538
3.23572
2.78902
0.0218161
3.6726
0.0217909
0.0214101
2.70731
3.00931
3.67519
8.64713
0.0308094
0.0218326
0.0232034
3.3683
2.30911
0.0211795
0.0457594
0.351721
0.0214409
0.0215396
3.06209
2.3482
0.0229634
0.0214403
0.0222824
0.0225929
0.547187
0.0218373
0.0211879
0.0255415
0.1348
2.39092
0.084502
2.69275
0.0215573
0.0245792
2.85489
3.24693
0.0278359
0.264326
0.0213341
0.0352288
0.0226892
0.0221908
0.0645545
0.0211192
0.771223
0.0322139
0.02086
0.0242731
2.50787
1.49847
3.56313
0.0214552
0.0247594
3.34677
0.384468
0.0239475
0.0214085
0.0214879
0.234427
0.0215564
0.0218944
0.0276419
0.0213577
2.90147
0.109425
0.0217854
0.0240817
0.0200622
0.0215704
1.46928
0.188774
0.0693356
2.18646
0.0511097
0.0218958
0.0213143
0.0215248
0.0213034
0.0217631
0.0238728
0.070718
2.89325
0.0226912
0.108623
3.45611
0.184982
0.0212483
0.0208261
0.0234046
2.53328
0.0212552
1.5497
0.723328
0.0427854
0.0221018
6.22557
0.0200787
0.0772941
0.0204308
0.0201092
0.0217252
0.0208372
0.0326313
2.74982
0.109231
0.0379787
1.58951
0.0820121
0.165502
0.0313974
3.05081
2.06783
0.107134
2.39245
3.10906
0.112848
0.356513
0.0218518
0.0207424
1.75596
0.0210341
0.0241713
2.64077
0.0425382
1.83682
0.135962
0.0207866
0.0230278
0.0215134
0.0429957
0.0204793
0.061336
2.62825
2.97167
0.907773
0.0215121
0.0202574
0.0708686
2.77371
2.94347
0.113949
1.73421
0.0208826
2.49193
3.58026
0.322835
0.023767
0.0215401
0.0199958
0.0232725
0.0214784
0.0213588
0.0239557
2.90512
0.0756444
3.2375
0.054768
2.09019
0.179913
0.0212755
0.0210326
0.0220751
0.020572
0.0218183
0.249349
2.39509
0.723511
3.4772
0.0233588
2.15113
0.154567
3.25455
3.27957
0.0215304
0.0208284
0.179369
0.0215115
0.0202093
0.483765
2.92285
2.65817
0.021414
0.0215374
0.023862
0.0374244
2.39602
0.0205213
0.0241344
0.66067
0.0204378
0.34889
0.0369545
2.48949
0.0218204
0.465569
2.7018
0.0349859
3.32645
0.111551
3.32176
0.0200578
0.02499
0.0208568
0.0295054
4.18239
0.0214114
2.19377
0.0218908
0.0215984
0.0214504
3.37959
0.0435678
0.11048
0.546379
0.0206697
0.0434311
2.12053
0.0537175
0.0208004
0.0230272
0.0215166
0.0444489
0.0213393
0.020921
3.46392
3.59676
3.27524
0.287352
0.836524
2.12491
0.0687725
3.58199
0.124124
0.0199978
0.0209909
0.0196757
0.0216696
3.40898
3.35844
0.0203844
2.54554
3.32576
0.0290527
0.0225641
0.0248172
2.66067
3.0173
2.95052
0.832928
2.9651
0.0196779
0.251658
0.0998147
0.210933
3.30317
0.0213428
0.12731
2.11093
0.0322903
2.72864
0.0218474
0.0769967
2.11985
3.10937
0.0731429
0.0309314
5.13677
0.128212
3.15323
3.20325
2.87823
0.112787
2.75023
0.0215557
0.0248405
0.0463991
4.07999
0.283714
3.44237
0.0221643
0.113233
0.0683378
0.0222984
3.15374
0.0213607
0.12819
3.86422
0.0213692
2.22834
2.51383
3.17655
2.71221
1.85714
0.117108
0.0211195
3.44746
0.0217904
0.0209159
0.0407814
0.0238036
3.14643
0.0239981
0.0249058
0.0240529
0.0208315
2.42871
0.0228825
0.116073
0.2917
0.0206115
3.73218
0.100002
0.0226945
2.2125
0.255458
0.0213525
0.791484
0.0220715
3.31213
0.0553426
0.0204189
0.114581
0.0229516
3.52384
3.00848
0.0711738
1.1058
0.0257666
0.0214948
2.65168
0.0239843
0.0213465
2.5752
0.0399878
0.0208856
0.0208466
0.129283
0.0227567
3.77572
0.26116
0.037384
2.47072
0.0518743
0.0613158
0.0211674
3.56007
6.12824
2.49799
0.0214093
0.0202925
0.0711247
0.030238
0.437935
0.0213787
0.351914
0.0212774
0.139391
0.021876
0.0361899
0.159525
0.11327
3.5625
1.36539
3.08122
2.99686
0.0197097
1.50074
2.06583
4.48694
0.021158
0.165271
5.84759
2.97197
0.114575
1.20529
0.793102
3.63356
0.0448151
0.212062
0.0205815
0.046769
0.0421071
0.0213249
0.0684912
2.4461
0.0893753
2.4691
2.41802
0.0211692
0.0208394
0.0298285
0.0213321
0.920267
0.0205509
0.0208089
3.73135
0.184237
0.0325321
0.100781
0.0223997
0.0815627
2.12921
3.09682
2.0298
0.0254249
3.05684
0.0229573
0.0205629
0.0232122
3.15123
0.2735
0.25486
0.168492
0.02233
0.0208648
0.0213322
0.0218681
0.0264306
2.92117
2.33347
0.0284904
3.19608
3.79531
0.0781527
5.76329
0.0214377
0.0295079
0.0647796
0.0214177
0.0243374
0.0266809
0.0239348
3.07178
3.12067
0.020545
0.0391108
0.0294121
0.0673759
2.42773
2.06451
3.57317
0.0217039
0.0803373
3.45517
0.0795883
0.114271
0.0463739
2.67155
3.76284
3.55463
0.0205177
2.75488
0.020364
0.0230976
0.0213514
0.0594233
3.71088
6.55592
0.360735
4.06742
0.0557843
0.020154
0.02081
0.0215397
0.0231454
0.0433775
3.63927
3.42263
0.0750891
0.589299
0.0216842
0.0554388
0.0206642
3.15579
0.0740864
0.0216214
0.13541
0.101254
1.83771
3.6355
0.129623
2.82823
0.024681
2.49911
0.21748
3.17447
0.286631
0.0228448
0.0550229
0.0215017
2.99077
2.40246
0.0397718
2.29045
0.214254
2.20147
0.0652453
0.137284
0.0403718
0.020896
0.118867
0.0576176
0.0241343
0.0547207
0.0306697
0.0322285
2.20373
0.158679
0.0231296
0.0300405
0.0359741
0.031684
0.0228291
1.98085
0.109351
0.32983
8.70581
0.021407
3.20248
0.0214695
0.024358
0.0234144
3.14004
0.0374778
3.20202
5.30448
0.0586676
0.0431951
0.11704
1.59244
0.131931
1.0454
0.0242929
0.0449628
0.0209619
3.23876
0.378475
0.0241827
0.0215203
0.0366385
0.0258447
0.0242884
0.0483049
0.0391692
0.0216216
0.0335966
4.19789
3.34601
0.136517
0.0407108
0.019815
1.70315
0.0319907
0.0630992
0.829964
0.0424514
1.85889
0.0202386
0.0244554
0.0242741
0.0328178
0.021224
3.3524
0.282032
2.54465
0.0368586
3.23759
0.192809
0.0256024
1.61999
0.0645467
0.180409
6.12856
0.0428469
0.0239861
0.0400849
0.0660441
0.0242874
0.715303
3.81153
0.352686
0.0209029
0.223983
0.607882
1.56929
0.0212702
0.0437398
0.0211475
0.0304139
2.49914
0.0291584
0.0288091
0.0208959
0.0208712
1.04579
3.08353
0.0214021
1.6826
0.174458
0.0201676
0.0249904
3.2735
0.113533
0.101752
0.0213855
0.0269725
0.100304
0.0216754
0.021078
2.90116
0.0290914
3.31579
0.0813432
0.0260521
3.71925
0.114575
0.160696
0.0209382
0.426597
0.0297661
0.0264706
1.5693
0.0399497
0.0216083
0.0812304
0.0244267
0.0250969
0.0201556
1.5554
0.0213751
0.0667512
2.48109
0.0991925
0.020863
1.01025
0.0304778
3.03259
0.168042
3.47373
0.105673
3.09863
0.0206954
0.0750744
0.0253901
0.0211322
0.434723
2.02382
0.0249126
0.361377
0.0245247
0.0709354
3.53833
0.0259082
0.0613681
0.894863
2.59647
1.62846
0.145471
0.0253864
0.0207687
0.0698937
0.0351102
0.724527
1.86179
3.14268
2.02328
3.32304
0.0208443
1.58436
0.0214053
0.022418
0.0215841
0.384858
0.147475
0.0810856
0.021054
9.80599
0.0271815
3.6273
0.0209325
0.0605839
0.0300566
0.0679315
0.0417646
0.102406
0.0228262
0.163096
0.121632
0.0209625
2.68226
0.18607
0.0468686
0.0227292
0.0297799
0.0216121
0.0210852
0.0630359
0.0468986
2.35655
0.17878
0.0831421
0.590792
0.0212363
1.47031
0.0631699
1.96302
0.0302618
0.0307454
0.432375
0.0312161
0.124437
0.0653516
4.3429
0.0234952
0.0217012
3.05631
0.0314662
0.0236314
0.0274849
0.0298707
0.0205532
0.026381
3.25784
0.02157
0.0416991
3.31402
0.111575
0.0701151
0.359863
1.15407
3.40722
2.5721
1.33616
0.0544325
1.28711
0.0227365
0.0247531
0.0215161
0.0209999
2.0942
0.346185
0.0316143
0.0207487
0.145752
0.0865807
0.0213329
0.0407337
0.0519057
0.0212406
0.0230292
1.4925
0.0264254
0.0368813
0.0366926
0.0214434
0.0836319
0.0635683
0.029468
0.33358
0.0748392
0.900511
0.155681
2.89614
0.0234701
3.83164
0.158153
0.1427
0.064708
1.72113
0.072928
0.0262757
0.0486308
0.0655452
0.02346
0.0686192
0.0211073
0.0212611
0.0201168
0.0244249
3.29902
0.0204382
0.102864
0.0245001
0.0236792
0.0242198
0.865486
0.0233523
0.0602332
0.0215561
0.0243418
0.0249037
0.0207755
0.258562
0.0235656
0.0205977
0.0223079
0.0286427
0.0210135
1.85729
0.027104
2.33999
0.981658
2.33769
0.05844
0.0707919
0.0953929
0.0399071
0.0251859
0.0250296
1.82291
3.00348
1.55346
0.0617756
0.0313381
0.021435
2.00607
0.039751
3.27147
0.0216383
0.781767
0.139472
1.46201
1.1798
0.0201296
0.0214194
0.0203771
0.0287412
3.05387
0.0474557
0.833614
0.0257838
0.0287713
0.0210186
0.0218673
0.0335062
0.0236319
0.0239612
0.0209837
0.2416
0.269042
3.22002
0.0248368
1.24773
0.0207511
0.0203119
0.103255
0.0219612
0.0241335
0.0636453
0.0241405
0.0674762
0.0214267
0.0246859
0.0215539
0.0244601
3.19915
0.0212099
0.0235607
0.0226671
0.0238603
0.721665
0.0218002
0.0487659
1.46175
0.0245879
0.029531
0.0224618
0.0232419
0.0218126
0.130319
0.0214919
0.0266219
2.42581
0.0208459
0.0291342
0.0490293
0.060443
2.19317
0.0201042
0.023758
0.022359
0.0300249
0.0959455
0.908033
2.94809
0.0202732
0.028445
0.0790217
0.0236636
2.61707
0.0199991
0.0215881
1.3274
0.0398762
0.0236712
0.0200644
0.126237
0.114038
2.08733
0.0215876
1.06522
0.0200373
0.0205519
0.0235264
0.0751509
3.75059
0.0215427
0.0209385
0.349576
0.0214931
0.0232446
0.529527
3.44693
0.021494
0.0205152
0.0222103
0.0311966
0.193014
3.31843
0.0218906
0.103509
0.0214128
0.0213684
2.02724
0.0232685
0.0219089
0.030102
0.215805
0.129191
0.0233428
0.0221753
2.59681
0.0400707
0.0224017
0.184907
2.76519
0.021499
0.0217694
0.0231659
0.0213645
0.0214953
0.0208907
0.0202553
0.0388358
0.0230731
0.0432255
0.0468662
1.96145
0.784876
0.0307199
0.0200843
0.0214088
0.0222149
0.023153
0.0399844
0.0287971
1.86517
0.0236224
0.0936258
0.0242612
3.32078
1.99307
0.0283764
0.022816
0.121481
0.0238328
0.0265021
0.0213958
0.0223435
0.0211124
0.0404853
0.0412857
0.0460507
0.103989
0.0232279
0.025476
0.022261
3.36565
2.57693
0.354272
0.02687
0.0958742
0.0907001
2.95811
0.0219673
0.85753
0.0636124
0.0214051
0.0218125
2.28834
0.021537
0.0224973
0.0232554
1.16125
0.0215058
0.0217731
0.0255897
2.40678
0.0209798
0.0502524
1.0068
0.0235982
0.0215221
0.0211785
0.0214294
0.0217887
0.0217437
0.0311033
0.0226483
0.0215093
0.0217551
0.0217833
0.0284912
0.0213916
0.239663
0.0215671
0.0217336
0.0375691
0.0354508
0.042839
2.04078
1.03559
3.41413
0.0367965
0.020869
0.0373112
2.08055
0.0202302
0.228682
0.0235916
0.992752
0.0232734
0.0424713
0.0217788
0.0213897
0.112192
0.198214
1.66761
0.264066
3.43227
0.0217527
0.0209444
1.95745
0.0202016
0.0215135
3.22172
0.0210161
2.17579
0.0214505
0.175895
0.104414
0.0237428
0.599263
0.0261159
0.074796
0.302448
0.832412
1.40903
2.71893
0.242387
2.15089
0.0215739
2.17011
0.0214939
0.0213184
0.0210114
0.0219534
0.986998
0.0224306
4.76629
0.0215384
0.0213778
0.0215751
0.0748261
0.0217198
0.0206424
0.0547156
0.0253257
0.0263133
0.0250911
0.0282036
0.243436
2.34904
0.116347
0.909379
0.0963497
0.0223878
1.09504
0.0214527
0.0285335
0.0706704
2.70014
0.0410182
3.45638
0.0214971
0.814035
2.47714
0.14222
3.44806
0.282689
0.0235204
0.0213304
0.0240176
0.0214925
0.0213108
2.55495
2.40669
0.0210855
1.7375
0.0214207
0.104783
0.0210018
0.304807
0.0269553
0.0234018
0.0207339
0.337328
1.33036
0.32371
0.0206187
0.0206894
0.0263541
0.0220835
0.0222402
0.956032
0.0858686
0.045781
2.18672
0.0417105
0.0218061
0.031268
0.073682
0.0219138
3.09652
0.054095
0.220809
0.0231924
0.0241453
0.0203157
0.0196778
0.0213748
0.0263155
0.0207966
2.15592
0.0381638
0.0699001
0.0212926
0.039822
0.0214955
0.0612874
0.0391324
0.0533282
3.10272
0.0257988
0.0213437
0.0248365
0.0218318
2.36071
0.0790233
0.0401897
0.0537342
3.50134
2.15422
0.107369
0.0489606
0.0214057
0.0230986
0.0232049
0.0312836
0.123647
0.0261396
0.0215841
0.415655
0.397236
0.0217979
0.0233051
0.0543974
0.0223694
0.0209811
0.0384735
0.0214503
0.0218978
0.0209484
0.0235122
0.0220662
0.0440053
2.13333
0.021466
0.808924
0.0963524
0.105206
0.0209383
0.0215619
0.12128
0.025832
0.0214365
0.0606247
0.0213601
0.050437
0.0216176
0.0396092
1.59628
0.053034
0.0225743
0.0577042
1.1802
1.08558
0.0214349
0.0350726
2.84949
0.0212247
0.0222841
0.0750571
6.64161
3.28096
0.0237578
0.0213736
0.0294328
0.0212594
0.0223279
0.0280078
0.0218043
3.54268
0.0218134
1.01694
0.0214933
0.0214689
0.0466613
0.0213684
0.0215651
0.028004
0.830442
0.0205706
0.0339306
0.0218829
0.021178
0.0217055
0.0279056
0.0256274
0.0675423
0.0231536
0.0217741
0.0218469
0.0377395
0.0224121
3.39192
0.0220399
0.105843
0.0330214
0.0228899
0.0273986
0.980245
0.0215212
0.0220719
0.0200221
0.0814014
0.374665
0.0216395
0.0352006
0.0209568
0.0342642
0.0214492
0.268574
1.59519
0.0235372
0.025209
0.027259
0.0314223
0.0221428
0.020748
0.0467367
0.0214103
0.0220081
0.0213841