/*--------------------------------*- C++ -*----------------------------------*\
| =========                 |                                                 |
| \\      /  F ield         | OpenFOAM: The Open Source CFD Toolbox           |
|  \\    /   O peration     | Version:  v2012                                 |
|   \\  /    A nd           | Website:  www.openfoam.com                      |
|    \\/     M anipulation  |                                                 |
\*---------------------------------------------------------------------------*/
FoamFile
{
    version     2.0;
    format      ascii;
    class       volScalarField;
    location    "800";
    object      k;
}
// * * * * * * * * * * * * * * * * * * * * * * * * * * * * * * * * * * * * * //

dimensions      [0 2 -2 0 0 0 0];


internalField   nonuniform List<scalar> 
13851
(
0.000153968
0.0204598
0.000188274
0.000152898
0.000188612
0.000798536
0.000146618
0.000177418
0.000139202
0.000194999
0.00233562
0.0224216
0.00842667
0.0226868
0.000144051
0.000168624
0.000157064
0.00016177
0.000480693
0.000139084
0.000152421
0.000187585
0.000147961
0.000153383
0.000149807
0.000178143
0.000155436
0.00238595
0.000153552
0.000155692
0.00220476
0.000157688
0.000187569
0.0028396
0.000153435
0.000207638
0.000101159
0.000201589
0.000197179
0.00332536
0.000144755
0.000132788
0.00633905
0.00274991
0.00294098
0.0218384
0.00283495
0.007663
0.000155891
0.00102353
0.000187533
0.000199981
0.0101042
0.000145939
0.000153622
0.000132917
0.000145927
0.0128707
0.000155204
0.000147283
0.000204802
0.0271544
0.000187457
0.00019178
0.00202245
0.000157911
0.000619679
0.00294805
0.000167767
0.000161701
0.0155146
0.00802708
0.0194822
0.0001468
0.000141287
0.0001417
0.000187053
0.0163059
0.000177593
0.0179724
0.000148994
0.00282509
0.000143911
0.0168292
0.000188729
0.0211957
0.000261337
0.0227969
0.000157788
0.000141615
0.000207685
0.000196653
0.00307531
0.000161171
0.000157409
0.000152423
0.000189262
0.027339
0.00133895
0.000152555
0.0128388
0.000179207
0.000150354
0.000154595
0.000145166
0.000264308
0.000181532
0.000131661
0.0210737
0.00118976
0.000154232
0.000142016
0.000178015
0.00015636
0.000154076
0.00390871
0.0278694
0.000131729
0.00015693
0.00015717
0.00643549
0.00015439
0.0111481
0.00508577
0.00686187
0.000146057
0.00839971
0.000178455
0.000151746
0.000198254
0.000144521
0.000138953
0.0186939
0.000143872
0.00269712
0.000140697
0.00013181
0.00673507
0.0278334
0.040042
0.0142169
0.000153375
0.000149328
0.000136621
0.000153651
0.00289623
0.000188008
0.000198203
0.000146427
0.00333687
0.000187828
0.000153784
0.020691
0.000146657
0.000152603
0.000153469
0.000142137
0.000153306
0.000199879
0.000187213
0.000134246
0.000160864
0.0125419
0.00013884
0.000161866
0.000134749
0.000180431
0.000168179
0.00015134
0.0192248
0.0142229
0.000136545
0.000142315
0.0391705
0.000138734
0.00589928
0.000177648
0.000149109
0.00049806
0.000132078
0.000159024
0.00961421
0.000143764
0.000188522
0.00013334
0.000149323
0.000158555
0.000148388
0.000190675
0.000201734
0.0028641
0.0113597
0.000143019
0.000167998
0.0270254
0.00015219
0.000148512
0.00514207
0.000148527
0.000141927
0.000146875
0.0258144
0.000164334
0.00014325
0.000191721
0.000143892
0.0266552
0.000157295
0.0286439
0.000132786
0.0346408
0.000149961
0.00485105
0.000131545
0.000135907
0.00168193
0.000184333
0.0215202
0.000143383
0.02973
0.000157606
0.000149221
0.029376
0.000198654
0.0393403
0.000150106
0.000163656
0.000146885
0.0141347
0.000131651
0.000177237
0.00295937
0.00013646
0.000142551
0.000185037
0.00017477
0.0273217
0.00314014
0.0001365
0.000143366
0.00152786
0.00169068
0.000137374
0.00019394
0.0001428
0.0377096
0.000179714
0.00428755
0.000153726
0.000158874
0.000171858
0.00156111
0.00014926
0.000153894
0.000179682
0.000303371
0.000199135
0.0080203
0.00538785
0.000144223
0.000136026
0.000160681
0.0146174
0.000139479
0.00428875
0.000152167
0.000149104
0.000160485
0.0276557
0.000220293
0.000170597
0.000152617
0.0155412
0.000176169
0.000167774
0.000139066
0.00286705
0.000318799
0.0423852
0.00247728
0.000137453
0.000132301
0.000144632
0.000178663
0.0140372
0.00412943
0.000140423
0.00014407
0.0156335
0.0028142
0.000201395
0.000154555
0.000147406
0.000170012
0.00285526
0.00374921
0.000161015
0.0211219
0.000139282
0.0378321
0.000160331
0.000156863
0.0412326
0.000147601
0.000289887
0.0332415
0.000140173
0.000174915
0.000161361
0.000154055
0.0275644
0.000161323
0.000148971
0.0292502
0.000133323
0.000159306
0.000152619
0.0410831
0.000198294
0.000143399
0.000179859
0.000143633
0.0115758
0.000184068
0.000147948
0.000144667
0.000197769
0.000162826
0.000152322
0.000144079
0.000147447
0.00014878
0.00261935
0.0131203
0.0212769
0.000166673
0.0398951
0.0237173
0.000143676
0.000168643
0.000201652
0.00019494
0.000186942
0.000197373
0.000285571
0.00015936
0.0102994
0.0351388
0.000144305
0.00125549
0.00119489
0.00144652
0.000152295
0.000190492
0.0144089
0.00014264
0.0109969
0.000144604
0.000143697
0.000141032
0.000131741
0.000141388
0.0351113
0.00437961
0.000144612
0.000173771
0.000134059
0.0219569
0.000174661
0.00620337
0.0206561
0.000144826
0.00018842
0.000161583
0.00666255
0.000143734
0.000131844
0.000181614
0.0113536
0.000144686
0.0279304
0.000197771
0.000198727
0.0161262
0.00269285
0.00291823
0.000159225
0.000139415
0.000150244
0.000165098
0.000179566
0.023951
0.00016812
0.0387696
0.0338443
0.000134176
0.000144323
0.0200184
0.020232
0.00179167
0.028178
0.000187243
0.000162434
0.000152327
0.0204484
0.000137719
0.000167899
0.000156693
0.000145945
0.00014598
0.0001399
0.000134636
0.00019131
0.000183513
0.0153588
0.000162818
0.00018115
0.000178042
0.00118508
0.000160463
0.00208231
0.000156339
0.0019986
0.000131711
0.000139676
0.000151164
9.10732e-05
0.00246015
0.000197751
0.000175727
0.012153
0.00281521
0.000230085
0.000159902
0.000185477
0.000143493
0.000984914
0.000145252
0.00883021
0.00347034
0.000186844
0.0258049
0.000149425
0.000595293
0.00344328
0.0123083
0.00013188
0.00016412
0.000178241
0.000240063
0.00013721
0.000148856
0.000186552
0.0001986
0.000166952
0.0262897
0.000150125
0.000145194
0.0105939
0.000162684
0.000132038
0.0311636
0.00013934
0.000153817
0.000137924
0.000175789
0.000152238
0.00013247
0.000148879
0.0282994
0.000144047
0.000170045
0.000139937
0.000163173
0.00135839
0.000157292
0.00014461
0.000156636
0.000156549
0.00061313
0.00014898
0.000359296
0.000143714
0.000150508
0.0183742
0.0243738
0.000144156
0.000165481
0.000160657
0.00227999
0.01816
0.000145271
0.00454942
0.000143989
0.00018818
0.000146515
0.0157989
0.000133291
0.00979296
0.000200884
0.000132915
0.000166053
0.0232382
0.000178234
0.00310783
0.00015658
0.00219809
0.000156942
0.000138338
0.000139198
0.000145871
0.0245982
0.000185191
0.000199864
8.88527e-05
0.00018321
0.000134688
0.0203003
0.00243506
0.000159221
0.000161185
0.00226758
0.00399997
0.0323699
0.000152524
0.0162525
0.0197118
0.0275691
0.000162298
0.000167917
0.00803905
0.000644872
0.000279006
0.00490015
0.0164077
0.000153739
0.0174482
0.0104541
0.000131952
0.000252787
0.000185719
0.0198674
0.000154143
0.000142782
0.000141857
0.000143801
0.00019043
0.00017278
0.0226037
0.026429
0.000139672
0.00934992
0.0242943
0.000586756
0.00275197
0.000169528
0.000131544
0.000139431
0.00153889
0.022684
0.000152839
0.000192032
0.000207586
0.000132797
0.000190092
0.00455173
1.89676e-05
0.000196941
0.0258642
0.0107715
0.000144239
0.000146076
0.0260694
0.0335416
0.000199526
0.000167911
0.00019444
0.00013198
0.000141994
0.0108825
0.000132487
0.000153967
0.000131955
0.00013941
0.0117515
0.000190754
0.000169444
0.000132397
0.0297077
0.0055657
0.000139467
0.000143642
0.000139739
0.00014943
0.0119769
0.00458853
0.00485452
0.0281901
0.0019578
0.000166312
0.0161068
0.0260636
0.000161121
0.000168242
0.000131517
0.000150882
0.000169802
0.0256857
0.0113494
0.000191676
0.000162956
0.000138663
0.000168355
0.000149065
0.00285006
0.000187462
0.000143591
0.000167035
0.000137193
0.000160082
0.000198194
0.000146928
0.000143256
0.000174679
0.000146945
0.000188801
0.000108258
0.00019782
0.00016894
0.000200273
0.0001385
0.000429496
0.00017887
0.026682
0.000149678
0.000152889
0.0177243
0.000154496
0.0149634
0.0356899
0.0187517
0.0330966
0.000137664
0.0106662
0.000138196
0.000139379
0.000133268
0.000139469
0.000144791
0.000164003
0.000173648
0.000132138
0.0232219
0.000203748
0.024334
0.000141198
0.000134942
0.00014417
0.000199297
0.0283225
0.000180098
0.000160473
0.000138325
0.000151445
0.000146948
0.000142814
0.000122579
0.0263828
0.000146662
0.000132025
0.000146002
0.000142705
0.00162901
0.0117629
0.000168925
0.0259436
0.00256445
0.000143043
0.000199585
0.0114877
0.000169516
0.0221718
0.000148944
0.000160828
0.000179669
0.000161628
0.00491717
0.000144021
0.0072355
0.000145956
0.000163967
0.0284883
0.00014249
0.000152987
0.000193621
0.000138436
0.0001582
0.0166731
0.0350498
0.000186906
0.00284516
0.00302309
0.000131684
0.000140961
0.0202618
0.000205002
0.000178161
0.0356926
0.000138618
0.000165349
0.000132055
0.00231668
0.000825921
0.000158671
0.000148542
0.00109136
0.000155826
0.000143779
0.0083703
0.000313088
0.0276564
0.000133169
0.000146511
0.0164363
0.00732411
0.000203596
0.000148189
0.0226385
0.000143976
0.00135206
0.000198635
0.0001879
0.000157496
0.0192147
0.00016426
0.000152266
0.00013359
0.000152094
0.000164012
0.000152681
0.000138329
0.00951869
0.000166913
0.000197332
0.000167937
0.00037912
0.000138874
0.0169514
0.000156032
0.000163453
0.000135698
0.000142646
0.00014478
0.0330131
0.000141619
0.000132164
0.00344031
0.000146322
0.0202146
0.000147101
0.000149039
0.000186698
0.00197518
0.00406809
0.000141185
0.0103379
0.0267114
0.000149131
0.031481
0.000163633
0.000138056
0.000315372
0.00702584
0.00656174
0.000159231
0.000140711
0.000131787
0.00262501
0.000190015
0.000189353
0.000160327
0.000309222
0.000150252
0.000148567
0.000191649
0.0038279
0.000190068
0.0111553
0.000146264
0.000188607
0.000190718
0.0402649
0.000158355
0.0259579
8.47753e-05
0.000146458
0.0145543
0.000268895
0.0266312
0.0331975
0.0299187
0.00344624
0.000175083
0.000138195
0.000164681
0.0135635
0.0157815
0.000144135
0.000150831
0.000185744
0.00311657
0.000132912
0.00952268
0.000138366
0.000144588
0.0107198
0.0162524
0.003664
0.000139325
0.000143815
0.00853886
0.000157945
0.000198113
0.000154282
0.0235801
0.00014184
0.0271792
0.00018116
0.000173216
0.000149002
0.000146352
0.018342
0.000178334
0.0191652
0.000185755
0.000167684
0.0100004
0.0262684
0.0217925
0.000144688
0.000164706
0.00013937
0.000169592
0.000152757
0.0245299
0.0001658
0.0348931
0.000132781
0.000186229
0.000142411
0.000206469
0.000166924
0.000164277
0.0262954
0.000174995
0.000177771
0.000154359
0.000186254
0.00645205
0.000197782
0.000154191
0.0145933
0.00013899
0.0317792
0.00477729
0.000147484
0.0360833
0.0114296
0.0217265
0.0028176
0.00018163
0.000143968
0.0264498
0.000166654
0.0045487
0.0291587
0.000141191
0.000151877
0.000156429
0.00532711
0.0270441
0.000146432
0.00014211
0.0196135
0.0284689
0.000197075
0.000158434
0.000151994
0.00475922
0.0143293
0.000191415
0.000132214
0.000175359
0.000138528
0.000160606
0.0017403
0.000152688
0.0111938
0.00110623
0.000144764
0.00014985
0.000144195
0.000152839
0.0163145
0.022526
0.000163605
0.0259427
0.00014235
0.000163707
0.000143616
0.00013863
0.000147017
0.000144604
0.0221041
0.000144202
0.000179747
0.000144791
0.000159476
0.00230552
0.00663107
0.000156955
0.0287228
0.000191516
6.30031e-05
0.000167548
0.00016767
0.0167387
0.000160062
0.000172948
0.0242734
0.0105115
0.0110768
0.00017361
0.00314407
0.000149212
0.000173627
0.0001797
0.0267881
0.000145533
0.0347664
0.000140781
0.000141385
0.0262383
0.000146259
0.00259561
0.000158002
0.000139308
0.000189111
0.000139388
0.00014385
0.000139589
0.000148634
0.000163759
0.000141368
0.000168991
0.0138816
0.000188673
0.035484
0.000146107
0.000156477
0.000158317
0.000143984
0.000139183
0.000189488
0.000148999
0.000140994
0.000148802
0.000150022
0.0200237
0.0264403
0.00019499
0.0283916
7.5996e-05
0.000141971
0.00830439
0.000162702
0.000141203
0.00291613
0.000256713
0.00587609
0.000141772
0.00281433
0.00534827
0.0157792
0.00013668
0.00949006
0.000165948
0.000155249
0.000140542
0.000138595
0.0195146
0.000239714
0.00110941
0.000142055
0.00014352
0.00773852
0.00014758
0.00214592
0.00474429
0.0333711
0.00028077
0.00340276
0.000150761
0.000144416
0.000187376
0.000163243
0.000154684
0.000200962
0.00017486
0.000149176
0.000151474
0.0291914
0.000141227
0.0191968
0.00185931
0.00317342
0.000217808
0.000152226
0.000137432
0.000147896
0.00301531
0.00207643
0.000136678
0.000159522
0.000141855
0.00018901
0.000133675
0.000141465
0.000149389
0.000167115
0.000660466
0.000174596
0.000165727
0.000145215
0.000179548
0.0101439
0.000150309
0.0133899
0.013667
0.00018977
0.000135099
0.00017567
0.000142763
0.000148393
0.000147522
0.0162404
0.000198328
0.00250431
0.000154787
0.00165644
0.000143144
0.000145973
0.000147638
0.00706644
0.0169218
0.000133933
0.000166731
0.000186879
0.0255651
0.000157303
0.0273964
0.000146067
0.028089
0.000190091
0.0279717
0.000192026
0.000189551
8.66545e-05
0.0255958
0.00305928
0.0265283
0.000146233
0.000216397
0.000133532
0.00015438
0.000158846
0.000147217
0.0258974
0.00016421
0.000161138
0.00419354
0.00020884
0.002688
0.000143509
0.000154408
0.00015944
0.000138092
0.000166388
0.0198439
0.00220111
0.0199608
0.000140534
0.000160133
0.000155622
0.00507371
0.0277718
0.000186676
0.000137338
0.000148646
0.0166965
0.000177354
0.0153314
0.0255258
0.000417642
0.000134914
0.00568212
0.000165967
0.000175672
0.000162382
0.0332245
0.00303251
0.000196824
0.000401659
0.000150672
0.000160266
0.000144587
0.0107795
0.000179753
0.0245846
0.00066907
0.000158648
0.000202387
0.00015212
0.0326871
0.000143504
0.000144004
0.000200982
0.0295593
0.000204629
0.0176053
0.000146455
0.000144676
0.016587
0.0125735
0.0152866
0.000155336
0.000146049
0.000144792
0.020403
0.000201785
0.000148559
0.00027137
0.000190873
0.023791
0.00468029
0.00437965
0.000144221
0.0193684
0.000156525
0.000144447
0.000201299
0.0291419
0.00014672
0.000140774
0.00544422
0.0307614
0.000144244
0.000140424
0.0364567
0.000143557
0.00198535
0.00014054
0.00343199
0.00014469
0.00018014
0.0210003
0.0275197
0.000151465
0.00649628
0.00180161
0.0221531
0.00185337
0.0270005
0.000327332
0.000142372
0.0104733
0.000157571
0.000143629
0.000137977
0.00591693
0.000142852
8.60751e-05
0.000140951
0.00015311
0.0154881
0.000186518
0.00845656
0.000152638
0.000190312
0.000139093
0.00016652
0.00516796
0.0161141
0.00014031
0.00018574
0.00300955
0.000147338
0.00013882
0.0278271
0.000168369
0.000170481
0.000199663
0.0399537
0.0151069
0.00377814
0.0151931
0.000414575
0.00210979
0.00221862
0.0341134
0.000185692
0.000137446
0.000199293
0.000142308
0.000142327
0.0295301
0.0282536
0.000153407
0.0209827
0.000255986
0.0186174
0.00045444
0.000279272
0.000143517
0.000291584
0.000492279
0.000142309
0.000151795
0.0329156
0.0281444
0.0274814
0.0301034
0.000173774
0.0376041
0.03441
0.000166003
0.000147362
0.000142238
0.00286409
0.000141286
0.000129319
0.000152515
0.000149882
0.000153902
0.0113645
0.0378912
0.0173668
0.000148588
0.00668151
0.000157636
0.000164033
0.000140967
0.000144035
0.0124249
0.000161079
0.0265121
0.0164463
0.000246984
0.00019737
0.000144492
0.000175416
0.000147374
0.000201791
0.000148671
0.000152356
0.00014819
0.000153215
0.000204
0.000150064
0.000169777
0.000142439
0.000170455
0.000211431
0.0171321
0.000142566
0.000178144
0.000147688
0.000202412
0.000149738
0.0241702
0.000223154
0.000165545
0.000154614
0.000152856
0.0011989
0.000143987
0.000907611
0.000143948
0.000142416
0.000148111
0.0300657
0.000160437
0.000156654
0.000175938
0.000148449
0.000184454
0.0287027
0.0036284
0.00016961
0.000144586
0.000299768
0.000138065
0.000143034
0.000218077
0.0348564
0.000147132
0.000164906
0.000238319
0.00802396
0.000148769
0.000149786
0.0333819
0.000151792
0.000581104
8.1501e-05
0.0373122
0.000144903
0.000154321
0.000143128
0.0391085
0.00020001
0.000174852
0.000197905
0.0181162
0.000151045
0.0332771
0.0165443
0.000147272
0.0138834
0.000189894
0.000152656
0.0126653
0.000146078
0.000144338
0.000137959
0.000207917
0.00060353
0.000205422
0.000152496
0.000150543
0.00016372
0.00366914
3.50995e-05
0.0367087
0.00339751
0.000149573
0.00020017
0.000197383
0.0127033
0.000189551
0.00316083
0.000141407
0.000175706
0.000138784
0.000334387
0.000171759
0.000143066
0.0311062
0.000217069
0.000167203
0.000167256
0.000132899
0.000148309
0.000183342
0.000169265
0.00527514
0.000185682
0.000186138
0.000187329
0.000195184
0.0191296
0.000206076
0.0364908
0.000142762
0.000140882
0.000212345
0.0202114
0.0116693
0.000657967
0.000155569
0.0156652
0.00296012
0.000142688
0.000159232
0.000139653
0.000173842
0.000186898
0.000180294
0.0111036
6.46753e-05
0.000151913
0.0265075
0.0137111
0.000144127
0.000222137
0.0283247
0.0117586
0.000154846
0.000187988
0.00013158
0.000158446
0.000142214
0.000158157
0.0384309
0.0240053
0.0100637
0.0179556
0.000151657
0.000169573
0.000184625
0.000145647
0.00014875
0.000138593
0.0245801
0.000141012
0.031434
0.000171936
0.000182936
0.000201611
0.000174593
0.0176581
0.00958313
0.000173318
0.000134415
0.000148798
0.00669402
0.00187545
0.000156866
0.000139405
0.000139282
0.000184579
0.000165185
0.000202352
0.0196928
0.000151485
0.000138177
0.000198385
0.000261574
0.0159999
0.00295675
0.000140514
0.000187385
0.000146867
0.0420601
0.00013592
0.0380716
0.000141661
0.000151253
0.000167919
0.000149239
0.000202107
0.000164155
0.000177643
0.01453
0.0285488
0.000157746
0.000164412
0.000143357
0.00815813
0.0162188
0.000149402
0.000136241
0.00274022
0.000131562
0.0257282
0.000147472
0.000167239
0.000187208
0.00032739
0.000172761
0.000150798
0.00014614
0.000186702
0.0327592
0.000142424
0.000204364
0.0166161
0.00109585
0.000149499
0.000168865
0.0197137
0.000157569
9.41892e-05
0.000143116
0.0037242
0.00328023
0.0115439
0.0154735
0.0206467
0.000147887
0.000537324
0.000140761
0.012838
0.00287713
0.0323391
0.014018
0.0001609
0.0181641
0.0112731
0.000170267
0.000152384
0.00014685
0.0270179
0.000158749
0.000186499
0.000159993
0.000147711
0.000138626
0.000146787
0.0275492
0.000186663
0.00016622
0.017299
0.00422903
0.000144514
0.000143579
0.000138894
0.00016317
0.0372332
0.000154905
0.000158597
0.000170648
0.0138155
0.000188862
0.000176099
0.00810229
0.000165249
0.0365092
0.000163964
0.000163184
0.000143276
0.000159579
0.00018684
0.00457382
0.00391731
0.0297173
0.000186605
0.0317298
0.000154548
0.000156221
0.000149439
0.0110144
0.0213972
0.00301107
0.000284316
0.000154276
0.000144751
0.000142118
0.000143939
0.000138778
0.00977095
0.000163849
0.0107928
0.000167592
0.0268498
0.00813789
0.0372795
0.000207049
0.000158624
0.0153773
0.000174463
0.0313749
0.0297395
0.000138234
0.000395138
0.000160799
0.0122645
0.00764558
0.000170297
0.000252037
0.00374602
0.000158344
0.000181176
0.000165141
0.0231
0.00403132
0.000155335
0.000146185
0.00356087
0.00013385
0.000198725
0.00826548
0.000199314
0.000163284
0.00014389
0.00821711
0.033686
0.000191011
0.000164878
0.0277053
0.0294773
0.000140944
0.000144309
0.000155828
0.0320173
0.0293406
0.000143574
0.020469
0.000149758
0.000142518
0.000147448
0.0168712
9.15247e-05
0.000523457
0.0111094
0.000152823
0.000152264
0.000141161
0.00950213
0.000151678
0.0302554
0.000154815
0.0214719
0.000148606
0.00014236
0.000197203
0.0092254
0.00275946
0.000171159
0.0208389
0.000136633
0.000145952
0.000144445
0.000176499
0.000185116
0.000185142
0.000169371
0.0254777
0.000156052
0.000196633
0.00136565
0.0177603
0.000145588
0.0250711
0.0305529
0.000156914
0.00202648
0.0001852
0.0155552
0.000147074
0.000190602
0.000143494
0.0313056
0.0147271
0.000221808
0.0350103
0.000154383
0.000178055
0.000151462
0.021263
0.000135119
0.00013953
0.0064192
0.000194248
0.019054
0.00443972
0.000184558
0.000162875
0.000137794
0.024257
0.000167378
0.000142417
0.000202411
0.00013933
0.000175265
0.000144759
0.000809482
0.000154403
0.00287335
0.00395729
0.00016906
0.000286412
0.000184085
0.0423127
0.000145028
0.0220021
0.0282171
0.000139307
0.00014412
0.000152797
0.000148757
0.000173169
0.000143642
0.000534958
0.000188437
0.000810534
0.000209748
0.000146663
0.000149097
0.000138238
0.0121858
0.000146193
0.00014436
0.000147787
0.000154927
0.0240868
0.0336911
0.000191579
0.000155589
0.00016878
0.000152109
0.000149724
0.00018538
0.000136832
0.000155243
0.0102431
0.0395249
0.000276958
0.000151962
0.0119569
0.00137342
0.000148825
0.000539928
0.0259264
0.000143659
0.000154216
0.000143147
0.0149251
0.0198266
0.00832063
0.000136731
0.000155503
0.000152656
0.000146309
0.000199256
0.000147102
0.000275491
0.0074617
0.0343858
0.000138181
0.000155024
0.000153958
0.0232545
0.000132912
0.0185105
0.0115027
0.00161697
0.00761734
0.0210058
0.0172706
0.000151007
0.0079568
0.000526336
0.000150963
0.00013758
0.000140239
0.0341408
0.0111685
0.0137219
0.000147999
0.0376075
0.000146934
0.000200891
0.000139305
0.00015369
0.000150796
0.00013806
0.0211266
0.000151126
0.0291341
0.0276832
0.0179955
0.000178465
0.000179692
0.019428
0.0319489
0.000149155
0.00618632
0.000138206
0.000131889
0.000143383
0.00033841
0.000140941
0.0149597
0.00016703
0.00305228
0.000170726
0.0111638
0.0165543
0.000239833
0.000137834
0.000185088
0.000190369
0.0209105
0.000145657
0.000134894
0.000157229
0.0335439
0.000147118
0.00290094
0.0143325
0.000173977
0.000183686
0.000145833
0.00467092
0.000148513
0.0383105
0.000135596
0.00824653
0.000165255
0.000145833
0.0148235
0.0166636
0.000135423
0.000185055
0.000156705
0.0123423
0.000408578
0.00122945
0.00306568
0.000148661
0.000185517
0.0260727
0.000142839
0.000301895
0.000152037
0.000188586
0.000166606
0.0122246
0.0224636
0.000146106
0.0252607
0.000151223
0.000175857
0.0269012
0.014104
0.000170417
0.0254149
4.37257e-05
0.000146304
0.00356824
0.000199641
0.000164971
0.000150986
0.0268249
0.000135722
0.0127393
0.00167333
0.000194255
0.000143402
0.000165404
0.0246351
0.000176261
0.0267193
0.000149887
0.00015503
0.000281922
0.0257472
0.000158698
0.033585
0.010074
0.0153873
0.000147566
0.0244703
0.0103282
0.0223252
0.00014393
0.000147658
0.000145177
0.0351974
0.000169624
0.00395344
0.00516126
0.000148872
0.000138054
0.000143742
0.0222666
0.00795688
0.0133883
0.0170523
0.000140966
0.0243264
0.028747
0.0002
0.0115444
0.0257584
0.000167745
0.0125679
0.000153821
0.000158134
0.012794
0.0152684
0.000144929
0.0174853
0.000148132
0.000144394
0.0232363
0.0226328
0.0317529
0.0136421
0.000166427
0.000148834
0.00015904
0.0276915
0.0158016
0.000142441
0.000176842
0.00193326
0.000144564
0.000146445
0.0219783
0.0269386
0.000153251
0.000144206
0.000150677
0.000151893
0.00934218
0.000148711
0.000143786
0.000158872
0.000252883
0.0272536
0.000319281
0.0263061
0.000146317
0.000157014
0.0281088
0.0304726
0.000162156
0.000608053
0.000143268
0.000170022
0.000150838
0.000146713
0.000186905
0.000143439
0.0134686
0.00016811
0.000141286
0.000156308
0.0135092
0.0271242
0.0215501
0.000144717
0.000169731
0.0317157
0.00295104
0.000155377
0.00014524
0.00014457
0.00303498
0.00014665
0.000150321
0.000162027
0.000143988
0.028687
0.00051885
0.000148561
0.000155968
0.000136062
0.000147055
0.020213
0.00110444
0.000187018
0.0125668
0.000200829
0.000149191
0.000143127
0.000145871
0.00014486
0.000148358
0.000164461
0.000195696
0.0272462
0.000150614
0.000195618
0.0214809
0.00196085
0.000143825
0.000139648
0.000154016
0.0226424
0.000144383
0.00124106
3.01997e-05
0.000181941
0.000146436
0.0139966
0.000136671
0.000474312
0.00013774
0.000136871
0.000147361
0.000141452
0.000181039
0.0121893
0.000256174
0.000172752
0.00306021
0.000274558
0.00130552
0.000166089
0.022958
0.0128227
0.000194684
0.0221442
0.0229191
0.000197172
0.00500694
0.000148825
0.000141022
0.0276715
0.000141824
0.000156154
0.0261158
0.000287219
0.0215611
0.000229766
0.000140124
0.000152839
0.000146114
0.000245394
0.00013911
0.000434
0.0202678
0.0248084
0.0142964
0.000146234
0.000136189
0.000187459
0.0243623
0.0291872
0.00019528
0.000754251
0.000140282
0.00208469
0.0277825
0.00232922
0.000155094
0.000146588
0.000136312
0.00015382
0.000146233
0.000145257
0.000155661
0.0275932
0.000188839
0.0257259
0.000266682
0.00334775
0.000208032
0.000143029
0.000144179
0.00014736
0.000139158
0.000148604
0.00150939
0.020102
0.00691098
0.0377858
0.000153836
0.0173482
0.000197792
0.0335936
0.0306757
0.000146676
0.000141275
0.00145858
0.000146354
0.000135586
0.00326752
0.0289364
0.00358212
0.00014475
0.000146268
0.000153054
0.000172666
0.0135433
0.0001384
0.000156104
6.95263e-05
0.000140652
0.00270337
0.000172347
0.0239547
0.000148737
6.38728e-05
0.0260549
0.000171038
0.0265887
0.000196707
0.0269166
0.000136318
0.000157866
0.000140533
0.000164801
0.0191612
0.000149063
0.0112436
0.000146621
0.000146946
0.000144223
0.0376734
0.000175904
0.000196287
0.00679266
0.000139507
0.000178575
0.0132273
0.000184592
0.00014128
0.000151782
0.000146492
0.000176803
0.000144928
0.000141933
0.0407009
0.0344364
0.0358064
0.0001482
0.000187323
0.0163273
0.000186671
0.0393369
0.000196237
0.000135709
0.000145551
0.000131661
0.000147768
0.0288257
0.0290103
0.00013877
0.00978066
0.0402813
0.000163127
0.000150107
0.000169448
0.0267428
0.0210831
0.0280523
0.00113477
0.0293849
0.000131746
0.00017573
0.000193289
0.00228409
0.0144508
0.000143643
0.000199765
0.014522
0.000168205
0.0272301
0.000148785
0.000552744
0.0153929
0.0347137
0.000187884
0.000166406
0.0158898
0.000199921
0.035448
0.0372197
0.0284253
0.000197123
0.0205999
0.000146516
0.000156365
0.000177572
0.0217739
0.0036821
0.0268892
0.000153283
0.000194557
0.000193726
0.000154408
0.0238598
0.000143671
0.000199898
0.0200976
0.000143656
0.0211446
0.0228581
0.037682
0.0252802
0.00193108
0.000665469
0.000143325
0.0298951
0.000146209
0.000141946
0.000174153
0.000155218
0.0310909
0.000155567
0.000170322
0.000155856
0.000141359
0.0189027
0.000153021
0.000197822
0.00381964
0.000138139
0.0272004
0.000193644
0.000150425
0.0123834
0.000133088
0.000143389
0.00241774
0.000150072
0.0397597
0.00030693
0.000139029
0.000197567
0.000153185
0.0321332
0.0297193
0.000187565
0.0200553
0.000159804
0.00014466
0.0243932
0.000155317
0.000145218
0.00343774
0.000172988
0.000140189
0.000141138
0.000196907
0.000152633
0.0198473
0.000169808
0.000252313
0.0155355
0.000180058
0.000184717
0.000143719
0.0332674
0.0168075
0.0214863
0.000144021
0.000137871
0.000187262
0.000165781
0.00530482
0.000145418
0.00280392
0.00014452
0.000239437
0.000150384
0.00025749
0.000207626
0.000197272
0.0274367
0.01531
0.0256456
0.0283794
0.00013194
0.000493862
0.00061973
0.0202661
0.000144473
0.000205951
0.0163482
0.0162894
0.000197544
0.00019034
0.0133967
0.0355442
0.000176236
0.000160756
0.000137947
0.000177784
0.000174475
0.00014338
0.000186644
0.017887
0.000509501
0.0174284
0.00173711
0.000142324
0.000140364
0.000168343
0.000143487
0.0149077
0.000138641
0.000140373
0.0393286
0.000193955
0.000166335
0.000194085
0.000155026
0.00019232
0.0129919
0.0307381
0.0137745
0.000157942
0.0303042
0.000151338
0.000138803
0.000153468
0.0244548
0.000147401
0.00018057
0.0001964
0.000151011
0.000141101
0.000143516
0.00014887
0.000159798
0.0157975
0.00105085
0.000163297
0.0247028
0.0194919
0.000388664
0.0180862
0.000144671
0.000164299
0.000248418
0.00014426
0.000161355
0.000160506
0.00015546
0.0257909
0.0309352
0.000138686
0.000172418
0.000164436
0.000187599
0.0234351
0.0211899
0.0354546
0.000147212
0.000189813
0.0368011
0.000189713
0.000197521
0.00025561
0.0266839
0.0344913
0.0403678
0.000138178
0.0184344
0.00013847
0.000152903
0.000144054
0.000183629
0.0346453
0.0141974
0.00357171
0.0146731
0.000182445
0.000135082
0.000139532
0.000146375
0.00015889
0.000175754
0.0375431
0.0409595
0.000188435
0.00963638
0.000147834
0.000182498
0.000138539
0.0370046
0.000208467
0.000146801
0.00020161
0.000194413
0.0105809
0.0253449
0.000196829
0.0078101
0.00015728
0.0227502
0.000174444
0.0127848
0.00279426
0.000151098
0.000182562
0.000145774
0.0235937
0.0123186
0.000173836
0.0273586
0.000172692
0.0284988
0.000185903
0.000220809
0.000173284
0.000140158
0.000198319
0.000186562
0.000155898
0.000182713
0.00016588
0.000167883
0.0132439
0.000204385
0.000153573
0.000165502
0.000170601
0.000167525
0.000150998
0.0215239
0.000194716
0.00479173
0.0113692
0.000144602
0.0298188
0.000144392
0.000156645
0.000154445
0.0295897
0.000173407
0.0365425
0.0223525
0.000183814
0.000187216
0.000198015
0.0258708
0.000200597
0.01723
0.000167602
0.000176391
0.000142168
0.0323922
0.0037767
0.000166835
0.000149748
0.000172686
0.000158931
0.00015648
0.000178294
0.000172531
0.000147214
0.000169402
0.0220665
0.0110028
0.000192571
0.000174054
0.00013351
0.0272036
0.000166722
0.000184754
0.0156443
0.000174766
0.0179025
0.000135887
0.000166786
0.00015643
0.000168628
0.000143197
0.0309077
0.00368397
0.0129169
0.000172719
0.025747
0.000184432
0.000158491
0.0258647
0.000185303
0.00020223
0.0129777
0.000175832
0.000155646
0.000173136
0.000185854
0.000154327
8.87851e-05
0.0259075
0.00423439
0.000140199
0.000170504
0.000118393
0.00241445
0.000143043
0.000176126
0.00014357
0.000165898
0.019599
0.000164294
0.000163642
0.000140321
0.000140096
0.000255729
0.0241373
0.000145679
0.00348328
0.000214485
0.000135249
0.00016126
0.0324069
0.000194645
0.000194708
0.000144141
0.000160995
0.000201633
0.000150764
0.000142541
0.0258882
0.000163902
0.030921
0.000190305
0.000159372
0.0331672
0.000196304
0.000201954
0.0001406
0.0060182
0.000164023
0.000160123
0.0271912
0.000173482
0.000147294
0.000191448
0.000156531
0.000156675
0.000136196
0.0311613
0.000144384
0.000197724
0.00978082
0.000192828
0.000141547
0.000127564
0.000165085
0.0256961
0.000204036
0.0253135
0.000193577
0.03351
0.000138729
0.000188632
0.000158097
0.00014202
0.00575534
0.00977994
0.000157084
0.00468748
0.000158211
0.00018732
0.0255962
0.000158976
0.00033598
0.0171889
0.0280555
0.0272829
0.000257807
0.000171276
0.000139946
0.000200987
0.000171103
0.00503182
0.017869
0.0366791
0.0204337
0.0374965
0.000139896
0.0228735
0.000143929
0.000151175
0.000146876
0.00432432
0.000209314
0.000211145
0.000142048
0.00954502
0.000161244
0.0217989
0.000142113
0.000187629
0.000164542
0.000186263
0.000175676
0.000194995
0.000152644
0.000203713
0.000211177
0.000140843
0.0138923
0.000175058
0.000192251
0.000155147
0.000164788
0.000146108
0.000142793
0.000184666