/*--------------------------------*- C++ -*----------------------------------*\
| =========                 |                                                 |
| \\      /  F ield         | OpenFOAM: The Open Source CFD Toolbox           |
|  \\    /   O peration     | Version:  v2012                                 |
|   \\  /    A nd           | Website:  www.openfoam.com                      |
|    \\/     M anipulation  |                                                 |
\*---------------------------------------------------------------------------*/
FoamFile
{
    version     2.0;
    format      ascii;
    class       surfaceScalarField;
    location    "850";
    object      phi;
}
// * * * * * * * * * * * * * * * * * * * * * * * * * * * * * * * * * * * * * //

dimensions      [0 3 -1 0 0 0 0];
oriented        oriented;


internalField   nonuniform List<scalar> 
20537
(
-0.380868
0.512713
-0.131845
-0.0124699
-0.153219
0.165689
-0.183001
0.166231
0.01677
-0.0206285
-0.304994
0.325622
-0.148128
0.161909
-0.0137812
0.293829
-0.45012
0.156291
0.198392
0.199963
-0.398355
0.241612
-0.0846649
-0.156947
-0.454209
-0.0930895
0.547298
-0.0434709
0.212244
-0.168773
0.615873
-0.266156
-0.349717
0.0713967
-0.0729641
0.0015674
0.0867856
0.0133373
-0.100123
0.000761774
0.00515333
-0.0059151
0.671444
-0.541478
-0.129966
0.281881
-0.286641
0.00476001
-0.0507568
0.283934
-0.233177
0.443802
-0.248958
-0.194844
-0.140457
0.147098
-0.00664076
0.081656
-0.535866
0.349222
-0.369851
-0.0751083
-0.107893
-0.363909
0.584602
-0.220693
-0.687734
0.0983881
0.589346
-0.549405
0.185495
0.218077
0.0235345
-0.0892404
-0.178694
0.267935
-0.0030701
-0.00139687
0.00731795
-0.388186
0.231389
-0.354062
0.122673
0.441275
-0.147446
0.228772
-0.279529
-0.0161761
0.182407
0.433117
-0.508201
0.0750842
-0.599919
-0.0878152
0.114766
-0.127342
0.0125751
-0.00446888
0.0911091
-0.0866402
0.203155
-0.123451
-0.0797042
0.128929
-0.1724
-0.0166288
0.449745
0.0455903
0.337226
-0.382817
0.490079
-0.665033
0.174954
-0.00621083
0.00379476
0.00241607
0.281437
-0.583533
0.302096
0.574984
-0.293547
-0.00713721
-0.00966926
0.0168065
-0.584553
0.29477
0.289783
0.199004
-0.512157
0.313153
0.170682
-0.259922
0.29416
0.235154
-0.529314
0.164217
-0.0206214
-0.143595
0.146682
-0.0745161
-0.0721659
-0.00314603
0.00315922
-1.31836e-05
-0.728901
0.371304
0.357598
0.652926
-0.533938
-0.118988
0.664058
-0.17398
0.650371
-0.294924
-0.355448
0.00642356
-0.00420524
-0.00221832
-0.181418
0.412807
0.281802
0.0970084
-0.378811
0.0527731
0.150382
0.0442028
-0.0647334
0.0205306
-0.406394
0.289679
0.116715
-0.141924
0.128797
0.0131269
-0.126146
0.316485
-0.19034
-0.453129
0.146589
0.30654
0.0689594
-0.0734283
-0.606617
0.321142
-0.213968
0.213784
0.000184536
0.200628
0.243174
0.0162137
-0.0197709
0.00355713
0.0881257
-0.0806988
-0.00742689
0.132808
-0.145278
-0.290718
-0.438182
0.280628
-0.58312
0.302493
-0.525258
0.431983
0.0932742
-0.133641
0.058533
-0.0245954
0.00134195
0.0232535
0.00099373
-0.175039
0.174045
0.0194051
-0.00170004
-0.173314
0.431712
-0.258398
0.534293
-0.0453903
-0.488902
-0.431494
-0.0523663
0.48386
0.00681311
0.00397057
-0.0107837
-0.314542
-0.0918518
0.0711911
0.000205555
0.466194
-0.146717
-0.319477
0.0273566
0.163206
-0.190563
-0.259334
0.322956
-0.0636219
-0.362536
-0.244403
0.606938
0.0232141
0.0915524
-0.0942131
-0.317908
0.412121
-0.2062
-0.0877921
0.249336
-0.161544
-0.0250131
-0.234321
0.561271
-0.549422
-0.0118499
0.0282994
-0.176427
0.0100339
0.0330989
-0.0431328
-0.188772
0.482932
-0.0244299
0.585701
0.0153164
-0.00615285
-0.00916355
0.1736
-0.173159
-0.000440568
0.0778106
-0.384832
0.307021
0.267267
-0.0188436
-0.45741
-0.099288
0.556698
-0.484686
0.380023
0.104663
-0.179377
0.177952
0.00142543
0.524762
-0.682897
0.158134
0.0698639
0.00889122
-0.134624
-0.315496
-0.538732
-0.0193221
0.558053
0.26909
-0.631626
0.309974
-0.404187
-0.649256
0.649255
-0.0718433
-0.466889
0.348816
-0.118649
-0.0511212
0.0611551
0.0725838
-0.472509
0.399925
-0.57159
0.573394
-0.00180384
-0.191998
0.56026
-0.368262
-0.00544
-0.000770838
0.234661
0.0326062
0.091502
-0.00471633
0.0890035
0.507393
-0.308389
-0.77949
0.354083
0.425407
0.179348
0.328045
0.159471
-0.187212
0.0277406
0.0311458
0.318076
0.17106
-0.0824619
-0.0885983
0.425667
-0.380077
0.554171
-0.16083
-0.393342
0.0211205
-0.00490679
-0.55004
0.118546
0.226586
-0.569978
0.604551
-0.0345736
0.556014
-0.48343
-0.0739772
0.0890722
-0.015095
-0.0275069
0.00596974
0.0215371
-0.0420442
0.0119986
0.0300456
0.0125622
0.00275421
0.375091
0.277835
0.160953
-0.558758
0.397804
0.720808
-0.383746
-0.337063
0.413139
-0.0868525
-0.326287
-0.262851
-0.320681
-0.441595
0.620769
-0.179175
0.0424666
0.128594
-0.265575
0.463967
0.250081
0.324904
-0.000506568
0.12815
-0.420907
0.613317
-0.19241
0.00192533
-0.00116356
0.308892
0.341478
0.36354
-0.209208
-0.154332
0.302865
0.110273
-0.496453
0.187326
0.309126
0.232341
0.131219
-0.36356
0.013535
0.133147
0.00519075
0.159026
-0.351861
-0.24859
0.600451
-0.0741902
0.223789
-0.149598
0.00308512
0.00333844
0.163536
0.390635
0.27091
-0.373672
0.102762
0.642476
-0.231002
-0.411474
-0.691636
0.250041
0.0026136
-0.216582
-0.320737
0.351883
0.0427816
-0.00184391
-0.0409377
0.000101164
-0.0246966
0.239685
-0.542702
0.303016
-0.173688
-0.322766
-0.0247743
-0.0172699
0.563766
-0.400231
-0.258181
-0.253976
0.182328
-0.0228564
0.53037
-0.508044
-0.0223262
-0.0215963
-0.118861
-0.520283
0.667894
-0.147611
-0.271404
0.0588713
0.212533
0.0141485
-0.130777
-0.35979
0.490566
0.0481182
-0.156011
-0.362918
-0.235663
0.598581
-0.447712
0.613563
-0.165852
-0.17486
-0.278269
0.35487
-0.546867
-0.167367
0.159351
0.00801552
0.244405
0.00184018
-0.246245
-0.263411
-0.00242909
-0.000716937
0.269802
-0.541514
0.271711
0.184325
-0.210611
0.0262864
0.0661544
-0.0219515
0.400452
-0.180273
-0.220179
0.537013
-0.37606
-0.0991042
0.465491
-0.366387
0.45921
0.07116
-0.427241
-0.0980175
-0.31216
-0.46733
-0.00465521
0.029325
-0.0246697
-0.577776
0.0838056
0.49397
-0.539154
0.14742
0.391734
-0.0316078
0.224941
-0.193333
-0.49066
0.359882
-0.0420804
-0.00651182
0.0485922
0.145799
0.142984
-0.288784
0.0306063
-0.00238535
-0.028221
0.127677
0.443861
-0.571539
-0.0141848
-0.0355567
0.0497415
-0.354403
0.432214
-0.471477
0.10418
0.367297
0.45267
-0.635913
0.183243
-0.72195
0.431507
0.290443
0.651398
-0.292389
-0.359008
-0.161407
0.403582
-0.242175
-0.0111272
0.00398996
-0.108599
-0.407061
0.51566
0.0321176
-0.00151122
0.264302
-0.118502
0.192013
-0.365327
-0.00213191
0.0464206
-0.0442887
-0.065405
0.14453
-0.0791253
0.00107313
0.035491
-0.0365641
-0.598255
0.579533
0.0187215
-0.0440133
-0.192556
0.23657
-0.526354
0.0689436
-0.00636164
0.00462802
0.00173362
0.673594
-0.220924
0.21649
0.0015872
0.32808
-0.287474
-0.0406058
-0.283401
0.523086
0.538891
-0.155357
0.14458
0.0107766
-0.0623189
-0.249683
0.312002
0.00849264
-0.050573
0.143446
-0.269592
0.281817
0.438991
-0.453984
-0.0851704
0.119776
0.321499
0.317795
-0.468681
0.150886
0.578272
0.055533
-0.633805
-0.202258
0.170651
0.456953
-0.556241
0.029987
0.00383522
-0.0338222
0.193854
-0.0202539
0.472216
-0.455673
-0.0165426
-0.397175
0.292593
0.104582
-0.226881
-0.121098
0.347978
0.656595
-0.381044
-0.275551
0.475313
-0.157519
-0.243844
-0.109201
0.353045
-0.0943101
-0.0285472
-0.120893
0.14944
0.430965
-0.200989
-0.229976
0.26334
-0.0189349
0.00758298
0.0814893
0.00733566
-0.0147974
0.00746246
-0.189085
-0.344524
0.533609
-0.440133
-0.449705
0.348216
0.101489
0.448036
-0.143837
-0.3042
-0.633583
0.211587
0.421995
-0.129509
0.105736
0.0237739
0.186636
0.213816
-0.367056
0.123212
-0.206376
0.118584
0.0492926
-0.0514245
0.413228
0.160881
-0.57411
0.297508
0.359087
0.183267
0.524201
-0.171436
-0.352765
0.177277
-0.176283
0.254313
0.0275673
-0.532588
0.371758
0.598091
-0.0637982
0.62461
-0.201896
-0.422713
-0.000324525
0.0369337
-0.0366092
0.169357
0.446517
0.0268871
0.551385
0.0795689
-0.558567
0.478998
-0.503157
0.599582
-0.0964254
-0.149325
0.120778
0.0328333
0.415203
0.434005
-0.186438
-0.247567
0.0324698
0.452644
-0.485114
-0.379932
0.494119
-0.114187
0.15642
0.367781
-0.672348
0.321903
0.350444
0.145523
-0.103056
0.152615
-0.334033
-0.105701
0.387504
-0.216814
0.216809
5.44875e-06
-0.3895
-0.282848
-0.0368758
-0.0926337
0.0677834
0.173929
-0.241713
0.0278215
0.0433696
0.433483
-0.568462
0.134978
0.0361776
-0.0061906
0.107998
-0.182188
0.0827201
0.201214
-0.0128796
-0.0297895
0.0426691
-0.140215
0.366619
-0.226403
-0.353601
-0.131085
-0.0410829
0.036975
0.00410787
0.478526
-0.446057
-0.012922
-0.146132
0.159054
0.227656
0.0216801
-0.222208
0.374822
0.00322645
-0.0307333
0.221805
-0.154022
0.387392
-0.361127
-0.0262649
0.0479703
-0.0575226
0.00955239
0.652671
-0.258422
-0.39425
0.0527892
-0.27967
0.739757
-0.377525
-0.362233
-0.0479223
0.0475977
0.12502
-0.0171088
-0.107911
-0.505338
0.396739
-0.189284
0.0444478
0.144836
-0.259935
0.487218
-0.227283
0.0258375
-0.0185018
-0.00364292
0.450703
-0.44706
-0.454492
0.643139
-0.188648
0.610324
-0.249307
-0.361018
0.12326
0.00176006
0.200288
-0.244301
-0.321954
0.0711692
0.250785
0.107603
-0.369695
0.229479
0.326467
0.0609255
0.371933
-0.638089
0.0131419
-0.00503479
-0.0462885
-0.00514125
0.0514297
0.0879527
-0.388175
0.300222
0.0423235
-0.0552031
-0.0025732
-0.0739596
0.0765328
0.380726
-0.0216551
0.20598
0.124655
0.020868
0.554083
-0.340883
-0.2132
0.0375969
0.220172
-0.257769
-0.00129224
0.114306
-0.113014
0.110222
-0.233754
0.517332
-0.283578
0.347736
-0.0370348
-0.310701
-0.0056001
-0.0336055
0.0392056
0.0389018
-0.580379
0.634657
-0.0639994
-0.570658
0.150938
0.483719
0.170124
-0.0420996
-0.128024
-0.107397
-0.214558
-0.207426
0.245023
-0.00353049
-0.00283115
-0.493397
0.319708
0.0127956
0.33494
0.357506
0.252817
-0.497817
0.237882
-0.112955
0.569908
-0.0544672
0.57923
-0.182723
0.551853
-0.36913
0.0378808
-0.0434809
0.621463
-0.258291
-0.363172
0.3141
-0.442525
0.128426
0.178674
-0.191596
-0.656042
0.360008
0.296033
0.0647684
-0.0369469
-0.303793
0.234541
0.0692526
0.31555
-0.365796
0.0467244
-0.00394283
-0.120999
0.435098
-0.247556
0.0861489
-0.0342376
-0.194547
0.228784
-0.154543
0.470093
0.0874404
-0.447741
0.3603
0.159366
-0.631876
0.21085
0.210913
-0.421763
0.00751769
-0.0069868
-0.000530892
0.635497
-0.0304169
0.0336434
0.236175
-0.103343
0.102051
-0.0357366
0.0338927
-0.642508
0.129322
0.513186
-0.145842
-0.496666
-0.0199043
-0.333315
0.353219
0.630213
-0.154143
-0.47607
0.510722
-0.524418
0.0136964
0.394419
-0.306466
-0.0844562
-0.104828
0.00150097
0.00365235
-0.253889
0.216967
0.0369213
-0.0447738
0.0458469
0.0430294
-0.0082718
-0.0347576
-0.398711
-0.257331
0.230624
-0.419709
0.00043596
0.00527238
-0.0206009
0.0153285
0.0825357
0.245544
-0.0514299
0.000308659
0.448333
-0.237484
-0.21641
0.182173
0.499621
-0.53306
0.0334386
-0.0945701
0.0919969
-0.43398
0.513734
-0.0797544
-0.105814
-0.180826
0.364074
-0.383978
-0.446427
0.339198
0.10723
0.053541
0.0930542
0.385471
0.319542
0.322934
-0.122758
-0.0191658
0.236627
0.065068
-0.301695
-0.0155156
-0.00922341
0.024739
0.34852
0.0153957
-0.363916
-0.134929
-0.459063
0.0326024
0.426461
0.277228
0.198086
-0.331779
0.0950218
0.236757
0.162621
0.0075032
0.28756
-0.20484
0.225261
0.426137
0.122431
0.433582
0.492962
-0.399908
0.0932179
-0.54093
0.136901
-0.159284
0.0223832
0.185508
-0.481364
0.295856
0.127851
-0.11947
-0.00838109
-0.0601464
-0.398917
0.0103218
-0.19322
-0.314982
0.112593
0.139352
-0.0616488
-0.0937078
0.444663
-0.357223
0.453392
-0.176165
0.660188
-0.499924
-0.160264
-0.147722
0.0157827
0.13194
-0.321229
0.485954
-0.164725
0.00202831
0.177074
-0.179103
-0.0229225
-0.00327763
0.0262001
0.586246
-0.127037
-0.657132
0.216804
0.440328
-0.542176
0.220946
0.013063
-0.00527517
0.306444
-0.669363
-0.225944
0.225197
0.000746263
0.00728896
0.568449
-0.155221
-0.485001
0.540851
-0.0558503
-0.403641
0.107413
0.296227
0.131235
0.0282439
-0.10276
0.0816931
-0.365003
0.28331
0.104494
-0.0543544
-0.0501393
-0.545498
-0.0527582
-0.563649
0.314342
0.00104614
0.00560925
-0.0066554
-0.0785893
0.349499
-0.45847
0.538038
0.15453
-0.127173
0.462957
0.167255
0.207719
-0.155878
-0.375019
0.530896
0.117223
0.18931
-0.306533
-0.128443
-0.243061
0.371504
-0.430889
0.45933
0.126915
-0.0106633
0.0586335
0.377422
-0.429789
0.203826
-0.19556
-0.00826619
-0.0787851
-0.491193
0.264724
-0.381052
0.116327
-0.666055
0.220482
0.445573
0.560645
-0.560645
0.518307
-0.156813
-0.361494
-0.550868
0.134049
0.515206
-0.212537
0.460017
-0.24748
0.258051
0.110911
-0.368962
0.336071
-0.482788
0.116746
-0.476536
-0.165918
0.665538
0.00260015
0.00621595
-0.0088161
0.00176602
-0.0246885
0.141928
0.319339
-0.461267
0.400251
-0.135528
-0.2852
-0.0465791
-0.235911
-0.23277
0.0142565
-0.00744337
-0.363861
-0.199789
0.259878
0.361586
-0.0761392
-0.371602
-0.154103
0.00506987
0.149033
-0.331289
-0.0664883
0.397777
-0.00620489
0.0075817
-0.00137681
-0.133265
0.545498
-0.412234
0.00228147
0.000877743
-0.246124
0.251102
-0.00497829
-0.213794
-0.45124
0.219628
0.180623
0.046529
-0.0146976
-0.0318314
0.210423
0.00606632
-0.462835
0.450177
0.0126584
-0.51704
-0.0545505
0.420681
-0.455556
0.0348755
-0.569601
0.0356636
-0.168248
0.575532
-0.407285
-0.576879
0.186595
0.390284
-0.447145
0.336121
0.111024
0.0246262
-0.0193538
-0.157643
0.1545
0.0031426
0.128468
-0.0207712
-0.107697
0.0979724
-0.0905207
-0.00745168
0.0890399
0.328164
-0.680025
-0.083042
-0.0135373
0.0965793
0.493342
-0.307834
-0.0604111
-0.210993
0.00286239
0.220926
-0.466261
0.230349
-0.354395
0.443398
-0.0626356
0.0484508
-0.512357
-0.00939917
0.521756
0.00151031
-0.0077152
0.00458722
0.0139518
-0.018607
-0.151867
-0.140571
0.360199
0.501654
-0.24901
-0.477605
-0.179528
0.299449
0.131516
0.34982
-0.448924
-0.131288
0.0197307
0.111557
0.355644
-0.123304
-0.106087
-0.0252005
0.0727518
-0.00428666
-0.0684651
-0.537845
0.404581
0.147005
-0.152452
0.00261525
-0.0217836
0.0191683
0.380061
-0.0874676
0.331616
0.171861
-0.503477
-0.354351
0.541676
0.336066
0.121419
-0.457485
-0.0128977
-0.154469
0.247006
0.0595022
-0.306508
-0.0314543
0.194661
0.0547598
0.0497338
-0.435682
0.5935
-0.157818
0.00644279
-0.00539665
0.000984123
-0.0269577
0.0259735
0.476147
-0.391133
-0.0850145
0.234122
0.25922
0.206439
0.580066
-0.4786
-0.101466
0.399872
0.488735
0.0599015
-0.548637
-0.0938664
0.0108245
-0.224615
0.0154066
0.120312
-0.11809
-0.00222198
-0.0835146
0.102086
-0.0185716
0.211859
0.452199
-0.395877
0.445592
-0.0497145
-0.098641
0.446583
-0.347942
-0.198892
0.156792
-0.142761
0.145714
-0.00295291
0.00261727
0.0220089
-0.00364769
0.0718412
-0.0681935
0.349527
-0.108278
-0.33815
-0.098419
0.114937
-0.0165179
0.00194652
-0.0980637
-0.00745279
0.105516
-0.116413
-0.137475
0.396119
-0.10644
-0.57475
0.312899
0.195745
-0.508645
-0.127992
0.69533
-0.483471
0.284395
0.0956655
0.181838
0.486056
-0.16015
-0.39409
0.554239
0.0768465
-0.00409474
0.157096
-0.480553
0.420407
0.295325
0.400005
0.011155
-0.041572
0.371485
0.0940054
0.629232
-0.183141
-0.446091
-0.413666
0.562016
-0.148351
-0.0959634
-0.53762
0.549625
-0.00363778
0.0111555
0.417124
0.0550915
-0.0543528
-0.00821765
0.0221695
0.453755
-0.0330748
-0.051578
-0.162004
0.213582
-0.0167428
0.019358
-0.0216983
0.0193129
0.15297
-0.386724
0.0191367
0.194647
0.0610555
0.51901
0.427597
-0.238241
0.0212196
0.217021
0.00572844
-0.0676245
0.0618961
-0.372677
0.335642
0.00259019
0.117721
-0.2737
0.0328558
0.240844
0.0801066
-0.475289
0.395182
-0.317966
0.241729
0.0762368
0.126766
-0.521489
0.394723
-0.0266579
-0.436177
0.135088
-0.141913
0.00682464
-0.36893
0.485675
-0.304786
-0.0833886
0.0223555
-0.507357
0.143788
-0.225522
0.0817342
0.116919
0.0109327
0.409836
-0.312828
0.104418
0.340245
-0.119349
-0.184445
0.0638463
-0.317219
0.253372
0.149011
0.151204
-0.0143035
0.0423904
-0.107795
-0.306335
0.0748696
0.231466
0.00913274
-0.107196
0.468032
-0.387926
0.0923555
-0.338454
0.246098
-0.384687
0.00274238
-0.01096
0.136405
-0.490809
-0.630069
0.289267
0.340802
-0.000448169
0.070312
-0.207266
0.426331
-0.219065
-0.0106895
-0.0250471
0.033166
-0.0358283
0.00266225
0.00923401
-0.00243355
-0.00680046
0.00999818
0.144532
0.080341
-0.514321
-0.081147
-0.461641
0.488528
0.338713
-0.535355
0.196641
0.123037
0.422461
0.37962
-0.53977
-0.616718
0.271183
0.345535
-0.033386
0.381906
-0.227964
0.345187
0.702992
-0.407667
-0.076001
-0.0149518
0.0909527
0.0172161
0.0150277
-0.0910287
0.15952
-0.54244
0.38292
0.138009
-0.558457
0.420447
0.62665
-0.145292
-0.481359
0.00162759
0.123027
-0.0195858
-0.0464034
0.0659892
0.110991
-0.149968
0.0389777
-0.0625881
0.130845
-0.592486
-0.450478
-0.0825825
-0.134864
-0.45195
0.586813
-0.25634
0.425622
-0.169283
0.0619464
-0.084149
0.0222027
0.0513964
-0.0585108
0.00711438
-0.251186
0.315032
0.240682
0.46231
-0.137093
-0.310052
-0.470056
0.213716
0.14357
-0.158306
0.0147364
0.00351467
-0.00106206
-0.0024526
-0.0636524
0.0477079
-0.0613629
0.013655
-0.407719
-0.0478379
0.457239
-0.352821
0.133062
-0.00459459
0.00607616
-0.197678
-0.0305611
-0.042403
0.11816
0.313551
-0.249077
0.149843
-0.0388526
0.363612
0.453999
-0.348732
0.156357
0.388383
0.271805
0.131586
0.0511646
0.0264232
-0.0297008
0.150238
-0.541549
0.39131
0.392799
-0.115969
-0.27683
0.288214
0.107904
-0.565418
0.39717
0.287643
-0.251544
0.407964
-0.0106082
-0.0157886
0.0263967
-0.00129077
0.136379
0.127071
-0.0213354
-0.402851
0.532173
-0.454075
0.559064
-0.399545
0.0110335
-0.00843332
-0.0985741
0.0150594
-0.302627
0.240308
-0.00559211
0.0387581
0.164476
-0.582334
0.417857
-0.00864944
-0.478277
0.486927
-0.415414
0.421981
0.0317747
0.0792161
0.00422358
-0.0834397
0.343501
-0.116315
-0.227187
-0.419926
0.0971099
0.322816
-0.23731
-0.428745
0.0745248
0.217175
-0.2917
0.409924
0.216726
0.00174506
0.00445023
-0.0061953
0.0705007
-0.27149
0.0310654
-0.0316724
0.000606926
0.438877
0.0898073
-0.340994
-0.000831747
0.0205228
-0.0196911
-0.00201158
0.000808498
0.00120308
-0.0715236
0.0947377
-0.381101
0.507867
0.059057
-0.0667782
0.00772119
-0.190159
0.649951
-0.424691
-0.0238508
0.166635
-0.142784
0.180421
-0.178392
-0.137184
0.3235
-0.186316
-0.00189316
0.568371
-0.229605
-0.338766
-0.584222
0.370472
0.21375
-0.00977136
0.10088
-0.14743
-0.48264
-0.577776
-0.364002
0.235559
0.118705
0.349326
-0.00615138
0.00789644
-0.209937
0.0482044
0.161733
-0.114517
-0.356465
-0.124088
0.427854
-0.629751
-0.393634
-0.395381
0.563833
-0.0597878
-0.504045
0.235055
-0.40688
0.529917
-0.124936
-0.352363
0.477299
-0.614005
0.243298
0.370707
-0.00422893
0.041204
-0.537074
-0.51982
0.0166706
0.503149
-0.153755
0.482798
-0.329044
-0.439056
0.330778
0.0220215
-0.0228533
-0.546331
0.00347994
0.54285
0.520807
-0.379
-0.141807
0.0830538
0.0393952
-0.122449
-0.0110842
0.154654
-0.143349
0.490152
-0.346803
0.187425
0.338605
-0.52603
0.208805
-0.380241
-0.00776226
0.0554702
-0.109005
-0.0518022
0.00297451
0.0488277
0.18993
-0.0583439
-0.497704
0.341826
0.567321
-0.397458
-0.169864
0.00404225
-0.000247488
-0.268655
0.47746
0.0981553
-0.331228
0.233073
-0.570545
-0.442215
-0.308054
-0.169778
-0.00169766
0.171475
-0.135186
0.268645
-0.133459
-0.19418
0.368109
0.405992
0.161329
-0.494619
-0.0177368
0.386859
0.133947
0.0925196
0.0248171
-0.468706
0.32321
0.145497
0.00950565
0.149846
-0.339843
-0.297769
0.387576
-0.144597
0.103563
-0.134705
0.0311425
-0.00740383
0.121388
0.222113
-0.036184
0.0252344
0.0109496
0.00536019
0.0926122
-0.364223
-0.0748328
-0.012714
-0.00522174
0.0179358
0.328577
-0.236221
-0.058306
0.0656823
-0.00737633
0.0109595
-0.0215676
-0.0197706
-0.0276178
0.0473884
0.55566
-0.264263
-0.291397
-0.228272
-0.00341262
0.231685
-0.379
0.299908
0.0945107
0.00360736
-0.0078126
-0.00874345
-0.529887
0.140231
0.389656
0.58516
-0.593601
0.0084403
-0.00591708
0.150497
-0.316195
0.561191
-0.244996
-0.41529
0.562976
-0.147686
-0.00108558
0.00175985
-0.000674269
-0.395863
0.560338
0.34121
-0.452404
0.111194
-0.000542125
0.0210596
-0.000716227
-0.0203434
0.0358684
-0.43872
0.478623
-0.13991
-0.494557
-0.00326017
-0.00211084
9.92576e-05
0.0849824
-0.0230361
0.109753
-0.117206
-0.183816
-0.305405
0.489221
-0.0541009
0.0489597
-0.0868612
-0.112031
-0.0760235
0.0564377
0.0124655
0.165486
0.173716
0.00495782
-0.0771742
0.069713
-0.401002
-0.0283102
0.161118
-0.00830363
0.147282
-0.138978
-0.0117314
-0.00886953
0.491446
-0.0431132
0.000385467
0.00252165
0.00537479
0.00406123
-0.0623672
0.0219227
-0.0209386
0.31742
0.115661
-0.433081
0.201267
-0.023711
-0.177556
0.473378
0.155854
-0.0646064
0.277258
0.115541
0.0612478
-0.0284437
-0.0328041
0.647852
-0.647852
-0.0215829
-0.00705719
0.0286401
-0.539817
0.124526
0.123117
-0.0400634
-0.43006
0.534594
-0.104535
-0.116378
-0.0562818
0.17266
-0.167991
0.193861
0.00740621
-0.028264
0.0379377
-0.160912
0.122974
-0.152799
0.342109
-0.480798
0.614847
0.0614684
0.175823
0.377997
-0.0706818
-0.307315
-0.372936
0.112854
0.260082
-0.000542824
0.0216024
-0.370078
0.581665
0.590973
-0.331095
-0.43939
0.154276
0.285113
-0.0458626
0.0103059
-0.00668374
-0.00166867
0.0236902
0.331254
0.224406
0.0867624
0.404684
0.0219956
0.388383
-0.410379
-0.00113146
0.0321969
0.123316
0.524537
0.171559
-0.290208
0.000520222
-0.0262859
0.0257657
0.384621
-0.558208
0.173586
0.0876397
0.193975
-0.281615
-0.106511
0.48515
-0.113664
-0.0338025
0.018893
0.0149095
-0.26875
0.392789
-0.124038
0.216039
-0.510963
-0.00985693
0.118252
-0.108395
0.0055172
0.0266004
0.121574
0.0241401
0.323793
-0.225638
0.479312
-0.149008
-0.330305
0.268837
0.322135
-0.00506789
-0.00263598
0.00770386
-0.0164833
0.120046
-0.531981
0.0121613
0.031334
-0.259606
-0.562046
0.392706
0.169339
0.410236
-0.32643
-0.412939
0.563876
0.0211658
-0.471644
0.13527
-0.131423
-0.00384787
0.1834
0.269992
0.450663
-0.109452
-0.0994274
0.379501
-0.232783
-0.017928
0.0139276
0.00400044
0.0411779
0.00535117
-0.00555743
-0.220386
-0.031714
-0.00446999
0.0459319
-0.475992
0.204658
0.0205396
-0.0784068
0.466789
-0.402947
-0.1591
-0.153281
0.431312
-0.278031
0.335522
0.115141
0.0200796
-0.00162722
-0.0184524
-0.148488
0.467827
0.105137
0.0447066
0.432632
-0.115212
-0.236206
-0.558781
0.00323926
-0.00183135
-0.00140792
0.206598
0.366796
0.0134298
-0.111849
0.124549
-0.259735
0.0362791
-0.112245
0.0759659
-0.243023
0.0330853
0.201331
-0.00813585
-0.193195
-0.00444232
-0.201808
-0.0237144
-0.315267
0.0655842
0.0306867
-0.101749
0.405753
-0.304004
0.0012866
0.00378794
-0.00507454
-0.142607
0.17588
-0.033273
0.622013
0.421208
-0.284803
0.199532
-0.161594
-0.160694
-0.00856818
-0.314045
0.50147
0.0351443
-0.0172408
-0.0179035
0.409716
0.149347
-0.15782
-0.00859407
0.010095
-0.198413
0.61487
-0.416457
-0.106783
0.0851868
-0.258283
-0.143396
-0.363275
-0.0950846
-0.487765
-0.00679242
-0.120834
0.510063
-0.38923
0.383412
-0.265251
0.0800848
-0.0898562
-0.408487
-0.149722
0.0632133
0.0217691
0.00262858
-0.00769646
0.247169
-0.0315562
-0.215612
0.00191519
-0.0177038
0.40891
-0.0215817
0.585414
0.21578
-0.593305
0.44565
-0.109584
-0.397611
0.133825
-0.111942
-0.0218821
-0.100061
-0.229392
0.329453
0.337534
-0.511787
0.174252
-0.093316
-0.326611
0.107428
-0.56192
0.0232647
0.0588641
-0.00746769
0.286145
-0.0544051
0.00297523
-0.00798763
-0.0804462
0.0884339
0.432698
-0.1198
0.0847754
0.313319
-0.398094
-0.098614
-0.175086
0.143365
-0.207654
0.523935
-0.316281
0.345046
-0.463855
0.118809
-0.529955
0.377627
0.152328
-0.419245
-0.163875
-0.296503
0.591273
0.35382
0.131329
-0.00279468
-0.00645847
0.00925314
0.404444
0.0937272
-0.498171
0.0135907
0.0779113
-0.211812
0.260016
-0.204297
0.278821
-0.575652
0.454819
0.421276
-0.589826
0.168549
-0.105712
0.0386961
0.0670156
0.242858
0.085719
-0.398974
0.550845
-0.400608
0.349699
0.126317
-0.476015
-0.31655
0.495898
-0.290355
-0.149035
-0.142524
0.586521
-0.317683
-0.234293
-0.00686137
0.241155
-0.00471105
0.106664
-0.101953
0.351402
-0.427935
0.0765325
0.481521
0.103639
-0.0947591
0.446246
-0.351487
0.36043
-0.149938
-0.210492
-0.197945
-0.183107
-0.299897
0.0707935
0.229104
-0.140229
-0.191625
0.0490175
-0.341113
0.241053
0.337062
0.142249
-0.0137432
0.0838534
-0.0701102
-0.144883
0.482417
-0.0288717
0.0196483
-0.106115
0.0911106
0.0150045
-0.130425
0.301984
0.124436
-0.117947
-0.0064893
0.449606
-0.458255
0.673945
-0.247386
-0.42656
0.125933
0.321239
-0.447173
0.383846
0.0364689
-0.420315
-0.173225
-0.312775
0.486
0.497661
-0.0932184
-0.493604
0.493604
0.166408
0.384437
0.117791
-0.138412
0.571527
-0.145715
-0.425812
0.551665
-0.385258
0.377731
-0.185717
0.210735
-0.198359
-0.012376
-0.00916287
0.0883789
-0.0682615
0.338172
-0.256479
-0.143106
-0.470899
0.134858
-0.143162
0.117572
-0.0246793
-0.0928931
-0.0894633
0.325368
-0.0159113
0.113385
-0.120173
0.00678819
0.134233
-0.0273717
-0.106862
0.580845
-0.174133
-0.406712
-0.150305
0.00417323
0.472434
-0.140819
0.352857
0.290282
-0.326418
0.452351
0.0217591
-0.0220469
0.000287821
0.011584
0.111676
-0.179206
-0.302158
-0.0652362
0.412641
-0.362396
-0.133613
0.496009
-0.380044
-0.14631
-0.435911
0.125663
0.310248
-0.311817
0.396592
-0.396346
0.0799562
0.316389
-0.541692
0.293102
0.194128
0.016607
0.312964
-0.0763368
-0.0206056
0.0196686
0.000937019
0.00977693
0.550868
0.196702
-0.170422
-0.0262802
-0.357378
-0.25934
0.0393856
-0.00529221
-0.0340934
0.191533
-0.00855393
-0.182979
0.00606589
0.0528762
-0.0589421
0.117252
-0.0247326
0.00422087
0.129604
0.0130878
0.138116
-0.00208857
-0.0248691
0.433807
-0.0824046
-0.00374083
0.0330658
-0.579584
0.204852
-0.238575
0.033723
0.165781
0.405746
-0.0885412
0.222184
0.0259755
-0.248159
0.216035
-0.371296
0.155261
0.0263022
-0.00263841
-0.0236638
-0.074143
0.271156
-0.197013
0.0331089
0.322257
-0.0139201
0.128421
-0.114501
0.206041
-0.514675
0.388758
0.125917
-0.0830275
0.289425
-0.206397
-0.310494
0.657366
-0.263338
-0.394028
0.400302
-0.100394
0.108166
-0.118023
-0.0334894
-0.403352
-0.0158534
0.170562
-0.154708
-0.22352
0.486721
-0.263201
-0.241944
0.0401361
0.275985
-0.459802
-0.453036
-0.0587913
0.0590999
0.112874
0.267899
0.406046
0.365068
-0.114535
-0.250534
-0.00784842
0.00935874
0.207197
0.00322649
0.101216
-0.106279
0.00506275
0.0727284
0.0125595
-0.0852879
-0.500895
0.379569
0.121326
0.39703
0.183814
0.0847265
-0.0705415
-0.014185
0.295135
0.105167
0.172418
0.0048593
0.221968
-0.0497952
0.00512043
0.0446748
-0.0116777
0.395524
0.035628
-0.11809
-0.00547965
0.32163
-0.316151
-0.382928
-0.00190402
-0.399987
0.202041
-0.453957
0.345659
0.108298
-0.00366849
-0.00265103
0.00631952
-0.237559
0.0246335
-0.211278
0.636814
-0.425536
0.0860965
0.136087
-0.00402775
0.0963315
-0.0923037
0.126432
-0.307787
0.181355
-0.00639382
-0.0434014
-0.0220038
0.0852171
-0.502165
0.563255
-0.0610908
-0.231369
0.0190132
0.212356
0.0290855
-0.00266229
-0.205576
-0.0257932
-0.0752558
0.0673483
0.00790755
-0.501071
0.0434065
0.457665
0.340969
-0.435729
-0.0169828
-0.000400573
0.0173834
0.0208467
0.0967258
-0.00750818
0.00289535
0.00461283
0.120357
-0.552816
0.432459
-0.0997435
0.435864
-0.107004
0.00383463
-0.0247732
-0.126192
0.0546687
0.274851
0.108561
0.447804
-0.102758
0.000380285
-0.170158
0.0693248
-0.00908842
-0.0602364
-0.0724666
-0.00938085
0.0818475
-0.402111
0.0660917
0.387231
-0.453323
-0.0073078
0.0663648
0.208062
-0.00500804
-0.203054
0.203056
0.315251
0.0866417
-0.107413
0.0197509
-0.143067
0.34303
-0.568248
0.411525
0.156723
0.000217035
0.0030222
-0.0457363
-0.214725
0.568808
-0.113315
0.558309
-0.444994
0.0141923
0.0209519
-0.526793
0.0246274
0.636295
-0.14756
-0.471747
0.248228
0.0388643
0.328731
-0.446204
0.117473
0.146684
-0.0415476
0.139194
-0.155047
-0.0530628
-0.10759
-0.235489
0.343079
0.00115458
-0.00456348
0.0034089
0.428142
-0.244742
0.089617
-0.00861975
-0.0809973
0.0931924
-0.0979034
0.0328738
-0.494485
0.394913
0.0995717
0.36654
0.132515
-0.499055
-0.0116974
0.125082
-0.203883
-0.356762
-0.027458
0.40998
-0.189017
-0.340939
0.332302
-0.00764952
-0.0789907
-0.158533
-0.210676
-0.373546
0.00319225
-0.0216941
-0.188821
0.194737
-0.0059161
0.00727876
0.368532
-0.218364
-0.150168
0.59481
-0.137396
-0.457413
0.558352
0.203802
-0.203416
-0.074602
0.0709544
0.010885
-0.00466904
0.205844
0.398707
0.00247786
0.152022
0.227142
-0.532054
0.304911
-0.10616
-0.330017
0.436176
-0.161058
0.0277749
-0.0298634
-0.0234653
-0.187146
-0.29843
0.234778
0.111048
0.0220144
-0.0935981
-0.302748
-0.0703785
-0.0676728
-0.099077
-0.395408
0.248909
-0.541298
-0.481279
-0.0451642
-0.189129
0.152311
-0.153602
0.538745
-0.400736
-0.0021423
-0.100766
0.102908
-0.490596
0.356924
0.133672
0.171776
-0.591022
-0.0707014
0.0227107
0.0479907
0.0265814
-0.0292198
-0.165599
-0.230612
0.396211
-0.0128832
0.013452
-0.324786
0.249588
0.0751982
0.0273081
-0.0241158
0.16145
0.314697
-0.0186841
0.398707
-0.342419
0.455567
-0.113148
-0.0819285
0.185052
-0.612068
0.427015
0.32543
-0.499182
0.173752
-0.327769
-0.0376061
0.0417139
0.0387432
0.00493993
-0.0436832
0.0214528
0.175249
0.050696
-0.0570899
0.085469
-0.325867
0.240398
0.0314499
-0.00262393
-0.0288259
0.0430013
0.202903
0.000898828
0.42822
-0.307863
-0.140103
-0.352925
0.493027
-0.43489
-0.500974
0.374249
0.126725
-0.0559055
-0.0282435
0.604334
-0.436229
-0.168104
0.258617
0.0199886
-0.278606
-0.372865
0.115378
-0.0916039
-0.00788651
0.0502101
-0.00740846
0.0120621
-0.00465362
0.117193
-0.444114
0.326921
-0.0659234
0.0803017
-0.0143783
-0.225705
0.347093
0.25182
-0.33041
-0.205015
0.507508
-0.310893
-0.2159
-0.00586414
0.00364582
0.313989
-0.077232
0.0224455
-0.0219253
0.0856045
-0.113915
0.339056
0.108748
0.112153
-0.00239985
0.395896
0.222703
0.262063
-0.0275223
-0.388644
0.235363
-0.00535929
0.0955898
-0.0902305
-0.278823
-0.229221
0.333127
-0.200907
-0.132221
0.438432
0.334297
0.27902
-0.0838086
0.0797809
-0.231261
-0.0980432
0.329304
0.231753
-0.124558
-0.107195
-0.148053
0.473482
-0.00648769
-0.143143
0.0173078
-0.0158625
-0.00144524
0.326531
-0.48315
0.156619
-0.128889
-0.058323
-0.469085
0.0890411
0.38842
-0.100205
-0.179747
-0.413989
0.593735
-0.0177794
0.0905078
-0.00793336
0.212785
-0.185715
-0.197132
-0.0879425
0.285075
0.116023
-0.482707
0.366684
-0.142741
0.489129
-0.346388
0.648336
0.322263
0.171856
0.395149
-0.529032
0.133882
0.158013
0.0221942
-0.0419648
0.249635
-0.216527
-0.279693
0.426282
0.553344
-0.24337
0.561851
-0.0316077
-0.530244
0.131239
0.00258419
-0.00557069
-0.0488344
0.102392
0.193344
0.33982