/*--------------------------------*- C++ -*----------------------------------*\
| =========                 |                                                 |
| \\      /  F ield         | OpenFOAM: The Open Source CFD Toolbox           |
|  \\    /   O peration     | Version:  v2012                                 |
|   \\  /    A nd           | Website:  www.openfoam.com                      |
|    \\/     M anipulation  |                                                 |
\*---------------------------------------------------------------------------*/
FoamFile
{
    version     2.0;
    format      ascii;
    class       volScalarField;
    location    "750";
    object      p;
}
// * * * * * * * * * * * * * * * * * * * * * * * * * * * * * * * * * * * * * //

dimensions      [0 2 -2 0 0 0 0];


internalField   nonuniform List<scalar> 
13851
(
-0.11776
-0.0519592
-0.0507561
-0.411403
0.00572432
-0.0621092
-0.0394712
-0.00563008
-0.0859615
0.0315376
-0.15284
0.0138996
0.0417041
-0.10002
-0.0808553
-0.0647294
-0.374645
-0.0197978
-0.190547
-0.118837
-0.0937929
-0.0202352
-0.394338
0.00780268
-0.292999
-0.0654172
-0.0836947
-0.167312
-0.0591822
-0.00887506
-0.393312
-0.0396367
-0.109039
-0.125873
-0.115354
-0.0576577
0.0078699
-0.353966
-0.311206
0.0130162
-0.166013
-0.0603668
-0.395861
-0.191096
-0.0669286
0.000802331
-0.0117396
-0.073503
-0.026516
0.0422102
-0.262142
0.0493593
-0.0654279
-0.0545357
-0.080619
0.0141148
-0.110612
-0.17049
-0.0725313
-0.13962
0.0139271
-0.0846519
0.0274458
-0.0268204
0.0437415
0.0497483
-0.140742
0.27577
-0.00183662
-0.407521
-0.384194
-0.10351
0.0271824
-0.137312
-0.0614022
-0.00106698
-0.37683
-0.0114224
-0.295521
0.011445
-0.00299429
-0.278252
-0.111815
-0.10382
-0.136245
-0.389351
-0.0234947
-0.0575232
0.0303631
-0.391923
0.0503557
-0.0407912
-0.292319
-0.390956
-0.278537
-0.154831
0.00707582
-0.0692951
-0.208102
-0.231225
-0.0699589
0.188898
0.184453
0.031778
-0.00311364
-0.109813
-0.00249677
-0.385495
-0.0408405
-0.0190831
-0.0109403
8.36792e-05
-0.206612
-0.147386
-0.0967242
-0.0540185
-0.00445275
-0.00595214
-0.411665
-0.407681
-0.156623
-0.0147521
0.00355064
-0.131438
-0.162298
0.316528
0.00640738
-0.123837
-0.137049
-0.0916782
-0.016768
-0.0798512
-0.349016
-0.121091
-0.157599
-0.28545
0.267657
-0.388179
0.160683
-0.0874102
-0.273817
0.0468901
0.0310482
0.199415
-0.267069
0.012954
-0.0113727
-0.39198
-0.0712556
-0.129018
-0.0712266
-0.204877
-0.151582
-0.178752
0.0500243
0.0392811
0.0123864
-0.316584
-0.0857334
-0.0428734
0.00799863
-0.0577969
-0.107337
-0.0746804
-0.0983671
-0.0786585
-0.0811642
-0.264694
-0.0110795
-0.201434
0.0144322
-0.00458252
-0.126791
0.00670855
-0.27462
-0.102803
-0.0787692
-0.00517915
-0.0595573
-0.0780128
-0.159304
-0.186317
-0.0160037
-0.089846
-0.381277
-0.0715715
-0.107853
0.125893
0.0455397
-0.00565733
-0.262791
-0.0865141
-0.0989196
-0.0636736
0.0112361
-0.0673881
-0.106083
-0.0293999
-0.0238787
0.259954
-0.276306
-0.230103
-0.175436
-0.0792643
-0.176138
-0.229063
0.0839801
-0.0795224
-0.0889644
-0.0566421
-0.0631442
0.00410001
-0.280768
0.014209
-0.118996
-0.00469056
0.0408744
-0.130323
-0.0281928
0.363472
-0.00534809
-0.123231
-0.104092
-0.278741
0.115053
-0.0792462
0.0138725
0.204494
0.015236
-0.115507
-0.41196
0.121197
-0.0564731
0.0268091
-0.172182
-0.0095192
-0.384801
-0.180998
-0.22117
0.00811432
-0.323928
-0.132436
-0.0658725
-0.06372
-0.084789
0.217229
-0.129359
-0.0591651
-0.149551
-0.0309919
-0.0668623
-0.149033
-0.00238101
-0.0616607
-0.0683695
-0.0548407
-0.0488809
-0.00542462
0.330618
0.0291811
-0.110099
-0.167574
-0.0633015
-0.107118
-0.152319
0.020101
0.191626
-0.0759862
-0.154632
0.022804
0.0410914
0.120009
-0.0947113
-0.41008
-0.0968337
-0.0154988
-0.157182
-0.173137
-0.0992231
-0.10532
-0.0979577
-0.18382
-0.0666703
-0.0759893
-0.362022
-0.00537729
0.0116546
-0.101104
-0.13778
-0.0105695
0.0134799
0.0157549
0.00355982
-0.0812488
0.0119201
-0.0875485
-0.0955311
0.00675466
-0.0606719
-0.128615
0.0479637
-0.122042
-0.234419
0.0481314
0.049148
-0.0975735
-0.110261
-0.368053
-0.126995
0.0055652
-0.195438
0.0143982
-0.133274
-0.237089
-0.148436
-0.0417548
-0.346137
-0.329759
-0.381182
-0.208182
0.214766
-0.286693
-0.134219
-0.169021
-0.025014
-0.390864
-0.0563643
0.318796
0.299491
0.0850126
-0.130652
0.0689157
-0.0566833
0.205194
-6.106e-05
-0.011697
-0.0510233
-0.384816
0.356717
-0.00559307
-0.274048
0.0794138
-0.0807593
-0.0429678
-0.10803
-0.154632
-0.0664064
-0.00240148
-0.0538793
-0.0512162
0.0455906
-0.177319
-0.0652062
-0.0990984
0.0841494
0.0299907
0.00590625
-0.226907
-0.239974
-0.145205
-0.33944
-0.0507974
0.0118563
-0.179057
-0.114712
-0.0155934
-0.14696
-0.116803
-0.210976
-0.049093
-0.0610345
-0.0730957
-0.336736
-0.22485
-0.0589582
-0.0273751
-0.104333
-0.397463
-0.0807435
-0.0679621
-0.0879691
-0.188489
-0.0751073
-0.0559129
-0.15626
-0.264565
0.0391454
-0.0643928
-0.142931
-0.0610072
0.00355348
-0.0965282
-0.11864
0.0263374
-0.0810015
-0.409896
-0.0472012
-0.328214
-0.0657548
-0.365629
-0.0595169
-0.0650422
-0.133052
-0.166548
-0.111074
-0.0492049
-0.132816
-0.311825
0.0209756
-0.222265
-0.0893525
-0.0619836
-0.0131013
-0.39121
-0.14012
-0.318911
-0.053506
-0.156299
-0.0901793
-0.409794
-0.0142314
-0.390298
-0.276108
-0.398492
-0.0356517
-0.209995
0.0347468
0.00651107
-0.0791284
-0.0929397
0.0323123
-0.0520933
-0.0824686
-0.00256785
-0.141249
-0.130531
-0.117165
-0.0559623
-0.0281316
0.0507997
-0.332493
0.00800196
0.0498566
-0.0602658
-0.122022
-0.013401
-0.0746579
0.027308
0.0112156
-0.0494757
-0.147915
-0.0623519
0.00409367
-0.0372277
-0.152788
-0.0447114
-0.373085
0.0129851
-0.0550081
-0.0641582
0.0719786
-0.0109239
0.015811
-0.0555219
-0.0317703
-0.29239
-0.060446
-0.0859571
-0.0945533
-0.0511371
0.0173979
-0.117986
-0.0742476
0.131161
0.0249213
-0.132859
0.152304
-0.314784
0.03242
-0.0824638
-0.229838
-0.0672453
-0.134703
-0.0888276
-0.317468
0.0441525
-0.209511
0.0187934
-0.0593664
-0.0662805
-0.104504
-0.0877552
-0.00270409
0.0660724
-0.127133
0.00597706
-0.406838
-0.120155
-0.374611
-0.405079
-0.0601969
-0.342291
-0.171889
0.104736
0.0206253
-0.341296
0.0315824
0.00371855
0.108756
-0.265526
-0.0498677
0.051471
-0.0909301
-0.120369
0.0339239
-0.303351
0.00839317
-0.130103
-0.28505
0.0110329
-0.0449384
-0.276848
-0.151835
-0.00993074
-0.365497
-0.375212
-0.0192031
-0.354926
-0.186005
-0.12725
0.0458116
-0.0631234
-0.164058
-0.019564
-0.228378
0.000754378
0.00799807
-0.0563777
-0.188942
-0.102436
-0.0612866
0.0323667
-0.0702123
-0.134868
-0.302866
-0.0218493
-0.367904
0.00426464
-0.000397707
-0.11219
-0.0514149
-0.0144312
0.0019488
-0.3505
-0.258035
-0.352671
-0.047973
0.028827
-0.0922188
0.0205862
-0.222993
-0.0588585
-0.0632987
-0.0861324
-0.0642544
-0.186303
-0.0624527
-0.39675
-0.0409248
-0.1389
-0.0616357
-0.081773
0.00754224
0.0196356
0.176435
-0.346495
-0.0660698
-0.0692313
-0.361924
-0.0512627
-0.0731897
-0.409944
-0.306897
-0.120898
-0.127637
-0.0944865
-0.0545336
-0.0234463
-0.0713546
-0.205325
0.0180346
-0.294195
-0.2571
-0.0162494
-0.0893268
0.0177047
0.080393
-0.145679
-0.393863
0.00882237
0.00704533
0.107874
-0.119174
0.0125722
-0.269189
0.00695676
-0.0954821
0.0511017
-0.0626916
0.0309027
0.034636
-0.0847355
-0.365442
-0.11318
-0.283479
-0.083104
-0.00238529
-0.0175659
-0.129948
-0.0361635
-0.178826
-0.053828
0.132137
-0.0701503
0.0212739
-0.0464514
0.013833
-0.0622499
-0.396153
-0.075318
0.134023
-0.385661
-0.0791341
-0.249974
-0.255551
-0.023525
-0.31254
0.073933
-0.0833808
-0.404206
-0.256095
-0.0157603
-0.176682
-0.0288909
-0.0541192
-0.289144
-0.00535692
0.27126
-0.154535
0.0177122
0.0176907
-0.0647222
-0.0460952
-0.0665474
0.0489697
-0.161294
-0.0431172
0.0357349
-0.0677251
-0.160757
-0.230193
-0.0134202
-0.0772032
0.0925577
-0.0635954
0.0650045
0.0126687
-0.137605
0.104405
-0.0749141
-0.101032
-0.104286
-0.106137
-0.265935
-0.192174
-0.0971964
-0.361344
-0.0720486
-0.102002
-0.0132653
-0.0574436
-0.126089
-0.0165906
-0.0721496
-0.188837
-0.0386599
0.0110896
0.0100201
-0.063943
-0.0577202
-0.0563171
-0.184845
-0.00198175
-0.0681841
-0.0424896
-0.239963
-0.176907
-0.0617066
-0.0512676
-0.242165
-0.230988
-0.0127474
-0.091614
-0.0271218
-0.352185
-0.0631896
-0.0976589
-0.0875021
-0.29742
0.0339453
0.0142284
0.080719
0.0363398
-0.0629202
0.00389371
-0.067337
-0.0913106
-0.180962
-0.296373
-0.206544
-0.0988774
-0.260086
0.131601
0.0244744
0.0398105
-0.0103855
-0.0169927
0.00679074
-0.136334
-0.197857
0.0935981
-0.166263
-0.00359245
-0.0885671
0.0221831
-0.410766
-0.104209
0.0223215
0.0260715
-0.0762201
-0.0629453
-0.0828349
-0.253912
-0.0862967
-0.110691
-0.0188966
-0.128934
0.0349517
-0.0508809
-0.0694704
0.0244256
0.04808
-0.0211268
-0.0684777
-0.0635721
-0.0738507
-0.0881542
-0.282115
-0.304335
0.12912
0.0311572
-0.0592075
-0.0101675
-0.0574581
0.00823189
-0.0452454
-0.283361
-0.0851326
-0.0981519
-0.185912
-0.114052
0.0232746
0.0217303
-0.142779
-0.024919
0.0231805
-0.0548651
-0.274145
0.00485727
-0.238326
-0.318811
-0.0768989
-0.183548
-0.398922
0.168148
0.024617
-0.224846
-0.00130683
-0.0650636
-0.093312
-0.0510595
-0.301654
-0.0590978
-0.00941672
-0.00546568
0.00698374
0.0163502
-0.00812087
-0.389714
-0.10857
-0.0716865
-0.0616973
-0.0862755
0.0377672
-0.00845313
-0.355626
-0.119212
-0.0470171
0.0232706
-0.095043
-0.222478
-0.186353
0.0500596
0.00968727
-0.0634841
0.0641501
-0.0869487
-0.00240241
-0.259514
-0.00197436
-0.39504
0.0276596
-0.212096
-0.0914609
0.0284652
-0.0893925
0.0278999
-0.0518415
0.00568014
-0.0657409
0.0609013
-0.0494442
-0.0290927
-0.114208
-0.111532
-0.0833882
0.0044451
-0.408556
-0.0633269
-0.064717
-0.0833531
0.0398553
-0.0508568
-0.0172789
-0.191733
0.0195785
0.00540815
-0.0829346
-0.0867651
0.0158024
-0.0555458
-0.156347
-0.0368981
-0.155472
-0.00464759
-0.100795
0.0230955
0.00487063
0.0485875
-0.0117392
0.0190638
-0.173729
-0.0977723
-0.0285588
0.00699841
-0.103856
-0.000379871
-0.408493
-0.229376
-0.100479
-0.290726
-0.0516021
-0.0758776
0.0180424
-0.0937841
-0.0309316
-0.0230438
0.00840497
-0.318164
-0.287224
-0.108541
-0.37641
-0.09114
0.0270843
-0.108373
-0.0826276
-0.350418
-0.0793674
-0.0783507
-0.121496
0.0132048
-0.401611
-0.399935
-0.0627212
-0.262214
-0.0534983
0.0415473
0.197894
0.0503959
-0.123503
-0.0372934
4.70352e-05
-0.157749
0.000244027
0.00442179
0.00630069
0.0015375
-0.262147
-0.183113
0.000815736
-0.110292
-0.106457
-0.0180474
-0.383113
0.0640797
-0.0913739
-0.202368
0.0127131
-0.0656668
-0.0489592
-0.0864933
-0.00891516
-0.00245049
-0.267466
-0.0637806
-0.157128
-0.0302497
-0.0535449
-0.0796183
-0.127342
-0.318877
-0.0526739
-0.083492
0.0313819
-0.00865947
0.0185326
-0.0553071
0.0257935
-0.137019
-0.0118423
0.0918216
0.127432
0.039529
-0.00445351
-0.0454826
-0.0446043
-0.0449748
-0.0241318
-0.240789
-0.0638432
-0.0763947
-0.104995
-0.161282
0.0507548
-0.379268
-0.00975234
-0.0156161
0.0625731
-0.00673811
-0.0693781
0.0178583
0.000350325
0.207635
0.0402784
-0.269094
-0.0343126
-0.299288
-0.159672
-0.143125
-0.224508
-0.0256363
-0.299095
-0.134365
0.0138687
-0.0422337
0.0499333
-0.378391
0.0674527
0.182467
-0.144736
-0.410053
-0.158449
-0.0200722
-0.0646446
-0.143308
-0.0520282
-0.0456141
-0.00295548
-0.0216171
-0.124704
0.0331934
-0.162064
-0.227102
0.0207312
-0.116968
-0.273962
-0.0205016
-0.237309
-0.392906
-0.106081
-0.0299027
-0.0635433
-0.133395
0.00900502
-0.0709258
0.0282386
-0.0182621
0.011382
-0.0603144
-0.0572944
-0.0896356
-0.392676
-0.0677597
-0.0838241
-0.0666068
0.0303838
0.293411
0.0104766
-0.339194
-0.0223227
0.00629217
0.0118731
-0.025521
-0.101917
-0.0517929
-0.0801905
-0.191122
-0.328845
0.107889
0.02481
-0.0334412
-0.273615
-0.0221221
-0.00901744
-0.108253
-0.286563
-0.0576518
-0.0109272
-0.0770494
-0.090201
-0.135896
-0.391929
-0.0192019
-0.0142985
-0.0419124
-0.319718
-0.0535333
-0.139528
0.0154827
0.0098203
-0.0187521
0.00989762
-0.00754585
-0.102204
-0.0543047
-0.081087
0.134352
0.0184624
-0.331144
-0.0320945
-0.211757
-0.165351
0.115197
-0.367234
-0.0623669
-0.397951
-0.0669327
-0.0774275
-0.101674
-0.0787955
0.0419611
-0.00378405
-0.249783
-0.0215766
-0.103999
0.0313302
-0.0861442
-0.321945
-0.00940898
0.0490067
-0.0748331
-0.282018
-0.0825299
0.00848597
-0.0603249
0.0754293
-0.0533729
-0.0292433
0.0236124
-0.0639807
-0.0616086
0.0317605
-0.0755413
-0.0579727
0.0175282
-0.0481928
-0.0567146
-0.293193
-0.0510578
0.0156606
-0.0182338
-0.0480458
0.0470266
-0.0762962
-0.0828699
0.0231823
-0.0794555
0.100913
-0.114048
-0.0915493
-0.107907
0.0744761
-0.0142253
0.195813
-0.128669
-0.130113
0.02159
-0.0564483
-0.140522
-0.388598
-0.343305
-0.0872182
-0.0829709
-0.12402
0.0225515
0.028117
-0.0249606
-0.0673303
-0.0632408
-0.133724
-0.401748
-0.0294837
-0.00880742
0.0324328
-0.0592017
-0.0117968
-0.0617191
0.00894903
-0.0655845
0.0492925
-0.000818942
0.0222054
0.0123996
0.00714518
0.0854715
-0.0777554
0.0377189
-0.144091
0.0266185
0.00950146
-0.132513
-0.112702
-0.0593859
-0.071076
0.147312
-0.0632644
-0.00307112
-0.0593025
-0.0126086
0.0270852
-0.0449638
-0.392414
-0.0408268
-0.127673
-0.349238
-0.0303853
-0.00638188
0.100199
-0.101064
0.0128311
-0.068782
-0.0245888
-0.0677012
0.0262402
-0.0277938
-0.0658984
0.103004
0.0426851
-0.0850273
-0.389578
-0.0596306
-0.11933
0.0349527
-0.352478
-0.122853
0.0243743
-0.331178
0.047177
0.199843
0.0469252
-0.0270724
0.00501148
0.0351231
-0.00226821
0.117549
-0.101556
-0.0210629
0.0277661
0.247436
-0.0168392
-0.350218
0.0263426
-0.0852677
-0.0628771
-0.145558
-0.165466
0.0231332
-0.104596
-0.00258369
-0.0527868
-0.125526
-0.0703157
-0.0848285
0.0122173
-0.0752718
0.193109
-0.0921554
-0.165682
0.0537518
-0.194031
-0.0714912
-0.0942639
0.0473808
-0.0138798
-0.0761384
-0.409898
-0.036759
0.00939052
-0.388119
-0.00193924
-0.0981942
0.0102191
-0.155651
-0.347932
-0.0143643
-0.406437
-0.0616992
0.00962671
-0.0766913
0.000160854
0.197009
-0.0508166
-0.102226
-0.0740068
0.00485731
0.0131331
0.209957
0.0208112
0.0233431
-0.0586024
-0.077135
-0.105023
-0.165846
0.0316392
-0.0767468
-0.0124462
0.0174562
0.0209088
0.0243816
-0.329312
-0.0220704
0.0661394
-0.0760611
-0.00223667
0.00820855
-0.0990342
0.0232846
-0.288507
-0.0422265
-0.0887655
-0.144202
0.153889
-0.341923
-0.152412
-0.0688943
-0.0295269
-0.223712
-0.0501392
-0.0139617
0.00175951
0.0673444
-0.0795668
0.0119236
-0.118414
0.00272197
-0.0168677
-0.391212
-0.268105
-0.231994
-0.0445155
0.203083
-0.192423
-0.409935
0.0210202
-0.060117
-0.174433
-0.027017
-0.103483
-0.342538
-0.0750973
-0.0583193
-0.0779074
0.00520387
-0.277468
0.0219319
0.0475766
-0.190168
0.0334717
-0.00626905
-0.350088
-0.115013
-0.0812068
-0.12147
-0.0658552
0.0464032
0.00317
-0.028206
-0.368577
-0.201593
-0.145474
-0.138541
0.0368414
-0.230264
0.0265703
-0.21643
0.116952
-0.0398541
-0.0983524
0.0196302
-0.244641
-0.323219
-0.0187194
-0.116344
-0.0643098
-0.347639
-0.11611
-0.0671547
-0.0786984
-0.0647049
-0.0621146
-0.0724038
0.0262512
-0.0678615
0.28833
-0.0631051
0.0161098
-0.0773453
-0.12007
-0.0644386
0.0135262
-0.341295
-0.0600492
0.0347028
-0.00688928
-0.0892854
-0.086083
0.0491143
0.00619418
0.00857272
-0.123004
-0.297508
-0.146145
0.0239552
0.0627053
-0.0657061
-0.193669
0.0203851
-0.175641
-0.371158
-0.0817928
-0.0758517
-0.0559991
-0.213568
-0.265968
0.0224544
-0.327652
0.00758839
-0.0156847
-0.0683645
-0.0844087
-0.168905
-0.0707716
-0.0575615
-0.080488
-0.081225
0.0119156
-0.0116986
0.104382
-0.0569461
0.068549
-0.163914
-0.0339103
-0.00102065
0.0102434
-0.0582933
-0.168017
0.0322642
-0.0532032
0.0791831
-0.113416
-0.220337
-0.0676182
-0.0636015
-0.154271
-0.31397
-0.14461
-0.0644942
0.00314317
0.352235
-0.00929885
0.115824
-0.360281
-0.0528779
-0.243557
-0.322722
0.0255487
-0.111828
0.00271181
-0.079549
0.0211798
-0.0609748
-0.172787
-0.0437619
0.00482109
-0.242738
0.196324
0.019516
-0.371261
0.0302881
0.0366032
-0.0571607
0.0482644
-0.077102
0.080874
0.0373607
-0.0567242
-0.29202
-0.0892506
-0.144416
0.0200125
-0.216996
-0.0506731
0.00494867
-0.0835038
0.0241358
0.105525
-0.130817
0.00512349
0.0399577
0.0718773
-0.229305
0.0190718
0.00975696
-0.104549
-0.0529855
0.00450533
0.0380375
-0.0205492
-0.157263
-0.119305
-0.104741
-0.112672
0.0296839
0.218693
-0.00783895
-0.144284
-0.0696222
0.0316831
-0.0505267
-0.182342
0.00918651
-0.0267141
-0.138821
-0.0555813
-0.0314895
-0.129105
0.0132314
-0.00861239
-0.126802
0.0150812
-0.0221717
-0.255727
0.018902
-0.0957483
-0.0756306
-0.374922
-0.15499
-0.0218922
0.090127
0.0994196
0.0105804
0.0328859
0.0220163
-0.0588948
0.0171754
-0.0591942
-0.0894651
-0.00657372
-0.0170907
-0.0782061
-0.0910545
-0.0808301
0.0207618
-0.14787
0.00394981
-0.0853668
-0.14849
-0.0509982
-0.0774237
-0.11275
-0.164938
-0.403497
-0.0573459
-0.0505392
-0.117355
-0.409309
-0.0526479
0.00171345
-0.098837
0.165643
-0.0179895
-0.031969
-0.0893836
0.0134511
-0.0115992
0.0188482
-0.0137513
-0.0431782
-0.0230706
-0.382293
0.00478015
-0.341611
0.0110349
-0.0931615
-0.0231298
-0.0976953
-0.108139
0.0321282
-0.0968642
0.0887368
0.0187637
-0.0827606
-0.0125867
0.0464917
-0.0205405
-0.054474
-0.0105277
-0.105121
0.307778
-0.09581
0.00144038
-0.0582973
-0.166473
-0.103285
-0.0249082
-0.0374373
-0.0735424
-0.135842
-0.317446
-0.0110554
-0.409012
0.00845448
0.172407
-0.375563
-0.0832643
-0.0564227
-0.016084
-0.0843831
0.0143877
-0.320304
-0.0722859
0.00700173
-0.0954899
-0.170676
-0.0237728
0.0269038
0.00889904
-0.308834
0.0185554
0.00457932
-0.118151
0.0294625
0.0216875
-0.117405
-0.0185586
-0.101799
-0.00905214
0.0298298
0.000349835
0.109462
-0.0285144
-0.0243057
-0.0894357
-0.114479
0.0180505
0.0275682
-0.144317
-0.0294784
-0.407526
-0.0360211
-0.346035
-0.00657378
0.0326992
-0.00281395
-0.0568032
-0.115179
0.00341556
0.0160543
0.119228
0.00668087
0.026695
-0.055215
0.00700739
-0.0770714
-0.00978541
-0.057808
0.0211503
-0.145595
-0.00147574
-0.0727022
-0.00400788
-0.231655
-0.298262
-0.0120483
-0.0637556
-0.290489
-0.0924836
-0.066695
-0.0585437
-0.250686
0.0785099
-0.0895527
-0.147849
-0.154859
-0.0277229
-0.0580289
0.0972488
0.00150418
-0.0510993
-0.409306
-0.103872
-0.135885
-0.252019
-0.0571397
-0.0882436
-0.0178654
-0.0115064
-0.18429
-0.327037
-0.194593
-0.215007
-0.137005
-0.00314159
-0.335343
-0.0714765
-0.377907
0.00968202
-0.327369
-0.397672
-0.303062
-0.114951
-0.103429
-0.0808831
-0.0765855
-0.202641
0.105282
0.0105261
-0.323596
-0.111616
-0.0120445
-0.141032
0.0175266
0.0100127
-0.0910544
0.0886127
-0.243266
0.0795739
-0.409507
-0.0676876
0.112227
-0.121721
-0.221976
-0.140624
0.0590957
0.1004
-0.140666
-0.0507509
-0.00170184
-0.119971
0.0461868
-0.205854
0.015809
-0.190715
0.00897836
-0.0928923
-0.0648705
-0.0611549
0.0764046
-0.193939
-0.370804
0.0342874
0.00756823
-0.3792
-0.2768
-0.0352473
-0.0505318
0.0175396
-0.133977
-0.052433
-0.0593529
-0.171623
0.0476647
0.00877672
0.233795
-0.020196
-0.129342
-0.270726
-0.000492497
0.0192949
-0.0476513
0.0129679
-0.0456441
0.00413082
-0.0296067
0.0968403
0.0109395
0.0177085
0.0475424
-0.0734038
-0.159082
0.0124839
-0.143778
-0.367373
-0.00809579
0.0777546
-0.202841
-0.168551
0.0417714
-0.108253
-0.066837
0.166985
-0.074851
-0.0228868
0.00870774
-0.326251
-0.046863
-0.0743267
0.0443853
0.0332406
0.0153937
-0.121619
0.0164874
-0.105085
-0.0788034
-0.159004
0.00601228
-0.129394
-0.341954
-0.143535
-0.00339839
-0.216326
0.160444
-0.339346
-0.276872
0.0638481
0.00279818
-0.228984
-0.132673
-0.0783264
-0.093728
-0.0817803
0.00753931
-0.0162269
-0.0439377
0.0164194
0.0478837
-0.225164
0.0146632
0.192208
-0.00782867
-0.19137
-0.133761
-0.114959
-0.0635546
-0.145154
0.044884
0.0211791
-0.248041
-0.0116183
-0.0119789
-0.00882911
-0.184416
-0.133416
-0.321444
0.0892862
-0.0279579
-0.0144827
-0.0192939
-0.100951
0.0060378
-0.0594948
-0.191858
0.0204482
0.0242816
-0.0809918
-0.0768885
-0.0387052
0.0255308
-0.159397
-0.196561
-0.0220367
-0.112264
0.0146464
-0.134591
-0.238749
-0.0354279
-0.409605
-0.40145
-0.152156
-0.00759922
-0.0278784
0.0189942
0.0230795
-0.114998
0.00481352
-0.226629
-0.0664868
-0.299753
-0.0298191
-0.137686
-0.148821
-0.121768
-0.23828
-0.363996
-0.00940356
-0.0584009
-0.0595417
-0.0617182
-0.0741171
-0.0133046
-0.0603599
-0.0160119
-0.0786566
0.0433381
0.00316515
-0.258869
-0.102952
-0.408934
0.0156654
-0.134589
-0.0276035
-0.103059
-0.0501683
-0.112383
-0.122637
-0.238461
-0.0657271
0.0152764
0.00905595
-0.107277
0.0181274
-0.0895419
-0.266914
0.00876374
-0.0635649
0.142877
-0.284409
-0.0448757
-0.112232
-0.104534
-0.0192711
-0.15156
0.0190583
-0.0820718
-0.0487862
-0.182538
-0.326225
-0.140026
-0.00325104
-0.102817
-0.0146138
-0.201036
0.00316457
-0.252639
-0.0151378
-0.101952
-0.01441
0.0143015
-0.0817211
0.0946103
0.0359125
0.00983191
-0.0729604
-0.0684893
0.00543486
-0.0871507
-0.0611505
-0.246857
0.0342985
-0.365123
-0.0156184
-0.0675405
-0.0607039
-0.00759124
-0.146536
0.0146835
-0.364479
-0.0890154
-0.0491154
0.0277326
-0.281514
-0.101256
-0.0156633
-0.126854
-0.208371
-0.149312
-0.0182826
-0.152404
0.0235336
-0.220305
-0.059543
-0.168608
-0.24964
-0.0784506
0.160222
-0.135996
-0.10757
0.0175699
-0.00347652
-0.122186
-0.151299
-0.175592
0.242687
0.0090594
-0.0549663
-0.178313
-0.281623
-0.0737808
-0.267574
-0.0714862
-0.350031
-0.340075
0.015569
0.0944248
0.0228434
-0.0194261
-0.0131687
-0.10934
-0.0068055
0.0739853
-0.337412
0.0109346
-0.000325902
-0.0662189
-0.166092
-0.0688946
-0.00517249
-0.236049
-0.0443836
-0.0678505
0.0203002
-0.389652
0.0730873
-0.169856
0.0284402
-0.0888218
-0.121385
0.0230783
-0.412547
-0.145853
-0.152897
0.0151742
0.00120332
-0.0814309
-0.389906
-0.0561365
-0.0183692
-0.155621
-0.139187
-0.0232396
0.00863147
-0.00172641
-0.131702
0.115755
-0.059963
-0.0466417
-0.0564169
-0.0898144
-0.169498
-0.152171
-0.0485099
-0.0835673
-0.0139528
-0.182161
-0.131844
0.0289431
-0.0529653
-0.359752
-0.158305
-0.0549867
-0.39939
-0.361859
-0.241439
0.0764085
-0.0217864
-0.176537
-0.247182
-0.254782
0.017182
-0.0954269
0.0372649
0.0170406
-0.0553533
-0.184278
-0.105003
0.0156911
-0.0994248
-0.124585
-0.115152
-0.109925
-0.292142
-0.0863599
0.00143249
-0.116708
-0.0587894
-0.281096
-0.0627562
-0.102166
0.0484753
0.00153686
-0.102388
-0.113956
-0.012959
-0.0756062
-0.0675344
0.0188206
-0.0636022
-0.0832153
0.044723
-0.0734782
-0.147026
-0.0669373
0.0270437
0.308284
-0.123159
-0.0558036
-0.10658
-0.0203328
-0.0757882
-0.0454472
0.0422789
-0.00782578
0.146125
-0.0690594
-0.0779901
-0.244493
0.00899494
-0.0197116
-0.074794
-0.0601493
-0.236262
-0.150865
-0.0729691
-0.0139262
0.0348927
-0.0793236
-0.0140676
-0.294583
0.03338
0.0173332
-0.00954536
-0.0516567
-0.368109
0.0471022
-0.0918866
-0.043675
0.00559644
-0.0773765
0.150237
-0.0892293
-0.0955664
-0.409544
-0.0614021
-0.206299
-0.0963048
-0.252942
-0.0710482
0.00224754
-0.00363803
-0.113985
-0.143576
-0.00205658
-0.000373726
-0.073656
-0.141114
-0.0662159
-0.408073
-0.0968799
0.0165474
-0.219579
0.00845289
-0.0724538
0.0269932
-0.153496
0.00671856
-0.0487095
-0.129188
-0.0832198
0.0256087
-0.0582282
0.110555
-0.0922046
-0.218602
-0.0624936
3.1632e-05
-0.167311
-0.0906354
-0.205425
-0.104294
-0.141983
-0.0112849
-0.0960986
-0.019931
-0.365237
0.0132084
-0.0764333
-0.0977224
-0.280722
-0.0104928
0.0107707
-0.369281
-0.108003
-0.367105
0.158379
0.0249479
-0.110213
-0.120217
0.160825
-0.0667431
-0.0745686
-0.190969
-0.0468563
0.0179689
0.00750489
-0.267186
0.0590422
-0.169325
0.0382241
-0.00715646
-0.260741
-0.0566609
-0.0178167
0.0146601
-0.0789471
-0.177103
-0.0727352
-0.102826
0.0840506
-0.140164
0.0214394
-0.220522
-0.0804172
-0.104512
0.200157
-0.0473367
-0.114376
0.130269
-0.0192875
-0.0982048
-0.401938
-0.0493157
-0.025163
-0.330517
-0.0875702
0.015777
0.0643628
-0.11937
-0.1206
0.123185
-0.0785518
-0.252564
-0.0270658
-0.0890972
-0.0128316
-0.0615043
-0.136724
-0.356629
-0.0883314
-0.057979
-0.139177
-0.0531668
-0.135413
-0.0397508
-0.0960662
0.0309413
-0.0560051
-0.152029
0.0215025
0.00617252
-0.0519581
0.0460594
0.0252702
-0.116049
-0.0816658
-0.164529
-0.0547563
-0.151027
0.00620955
-0.0605672
-0.0887295
0.00957793
-0.0971703
-0.3437
-0.248144
-0.0619615
-0.0839619
-0.0550403
0.00199043
0.0741349
-0.132341
-0.1038
0.0263805
-0.0640704
0.0278891
-0.0793324
-0.10344
0.117679
-0.0865427
-0.0755482
-0.0998729
-0.0740363
0.233432
-0.382467
-0.291739
-0.054329
-0.011675
-0.060348
0.00424
-0.0110443
-0.3395
0.0196384
-0.0637844
0.0475007
-0.155567
-0.0525225
0.0202634
-0.357269
0.11474
0.0790937
-0.0512129
-0.237868
-0.311977
-0.0569961
-0.0593376
0.0483395
-0.0656149
-0.129919
-0.0725487
0.0235281
-0.193862
-0.120359
-0.0425249
-0.0624548
-0.0994018
0.000614352
-0.238876
-0.141938
-0.0735869
0.0194346
-0.231133
-0.00395899
-0.121427
-0.066587
-0.1571
0.00073624
-0.102694
-0.409174
-0.0427513
-0.148562
-0.0577922
-0.108208
-0.177646
-0.113401
0.0768839
-0.39131
0.00126054
-0.0567902
0.0153889
-0.0380174
-0.112965
-0.0557075
-0.0523927
0.286816
-0.208369
-0.0655123
-0.022568
0.0488774
-0.11416
-0.323923
0.110053
-0.337006
-0.134355
-0.0616105
-0.0765718
-0.143553
-0.092476
0.176571
-0.110051
0.00351366
-0.040683
-0.0278502
-0.338021
0.0268302
-0.0708577
-0.010711
-0.0922289
-0.0745085
-0.103513
-0.111083
0.0747522
-0.181961
-0.011982
0.046282
0.0160102
0.0236653
-0.0508519
0.00837707
-0.0881061
-0.18868
-0.096924
-0.100709
-0.051361
-0.00765244
-0.0605424
0.0207041
-0.0912275
-0.127858
-0.39423
-0.0783368
-0.0715366
-0.0561338
0.0197411
0.0630578
0.162045
-0.107857
-0.194575
-0.0906348
-0.375665
-0.0732365
0.00997597
-0.00119771
-0.0501377
0.0103652
-0.0740209
0.219313
-0.24712
-0.042011
-0.126423
0.0245061
-0.0328126
0.0375892
0.0432419
0.0576644
-0.0804505
-0.0107703
-0.0622827
0.171201
-0.0943879
-0.0818322
-0.192777
-0.168261
-0.266594
-0.0675221
-0.042859
-0.0206801
-0.076471
-0.0533112
-0.225373
-0.0636076
-0.0701165
-0.19183
-0.0730044
-0.035839
0.0135945
-0.0656504
0.019102
-0.0583902
-0.398097
0.0168023
-0.0148049
-0.297019
-0.0529241
-0.0699655
-0.322253
0.0445473
-0.0826918
-0.107328
-0.24622
0.133651
0.0171482
-0.0619448
0.251749
0.0325377
-0.0967656
0.0206661
-0.212936
-0.0679758
0.245673
-0.326146
0.115999
-0.136569
0.00857677
-0.386669
0.0414969
-0.0576763
-0.0034335
-0.117378
0.00935964
0.0401796
-0.0571477
-0.254625
-0.115997
-0.0409643
0.149907
-0.00672818
-0.00351468
-0.0401772
-0.0962333
-0.0556331
-0.169309
-0.111441
-0.210665
0.0202278
-0.221194
-0.250797
-0.165596
-0.0436558
-0.195421
0.017331
-0.0135085
0.015247
-0.3269
-0.0180753
0.0278181
-0.0616355
0.0187958
-0.211727
0.0706521
-0.0210984
-0.0962628
-0.0484185
-0.1597
-0.0102649
-0.134368
-0.0165439
0.216314
-0.409829
-0.114461
0.0127447
-0.0529615
-0.0987701
-0.0587781
-0.223378
-0.0803422
-0.0432836
-0.204004
0.00217051
-0.0295414
-0.371887
-0.0709809
-0.0525984
-0.0621859
0.0186841
-0.00270344
0.00874208
-0.0522016
0.0395075
0.026857
-0.13872
-0.412323
0.131013
-0.409053
-0.0664617
-0.0526039
-0.283524
-0.384009
0.0536989
-0.365654
-0.349447
-0.0738896
-0.332777
-0.0793438
-0.101037
-0.0695584
-0.403083
-0.331794
-0.210513
0.0814601
0.0912013
0.0585103
-0.0500403
0.00266976
-0.288374
0.0188851
-0.410428
0.0440208
-0.164118
-0.010261
-0.0972989
0.0824312
0.0838527
0.0230758
0.00637309
0.0783338
-0.044276
-0.0307971
-0.0619744
-0.334739
-0.050884
-0.22582
-0.00185331
0.0920252
0.119118
0.0403982
0.00594439
0.00820888
-0.1509
-0.0944209
-0.14357
-0.358482
-0.0257153
-0.130646
0.0257012
-0.0686429
0.00304567
-0.0109627
0.0210665
-0.0899563
-0.00868721
-0.0604043
-0.27078
-0.0086264
-0.0753115
0.0214017
-0.324828
-0.226265
-0.400933
-0.0974008
-0.219854
-0.203975
-0.0706985
-0.234658
-0.0646109
-0.391189
0.0581905
0.16862
-0.303525
-0.218588
0.0274676
-0.407743
-0.203966
-0.134518
-0.00983572
-0.0981128
-0.311043
0.0150602
-0.41077
0.103481
-0.260892
0.00773171
0.0454734
-0.152711
0.0093065
-0.0521775
-0.144266
-0.0154494
-0.0227633
-0.0571906
-0.154346
-0.407336
-0.0656716
-0.0288496
0.0570654
0.0154255
-0.0135409
-0.0861309
-0.0926019
-0.114513
-0.287837
-0.07981
0.00346429
0.00426454
-0.125723
-0.402994
-0.261397
0.111071
-0.0102185
0.138006
-0.410607
-0.401996
-0.014178
0.0139366
-0.31651
-0.025468
-0.143622
0.0753595
0.0189727
-0.0304091
0.100778
-0.1442
-0.307244
0.0088371
-0.0155959
-0.0391364
-0.0581042
-0.288236
0.0206271
-0.212902
-0.242046
-0.0137933
-0.0544956
-0.0630153
-0.410975
0.0261061
-0.41085
-0.29301
-0.0375054
-0.0379239
-0.0436883
0.334093
-0.233217
-0.0580685
0.0123374
-0.405484
-0.237417
-0.00945072
-0.12999
-0.204518
-0.075605
-0.184718
-0.281389
-0.130968
-0.247101
-0.0569077
0.0795923
-0.0414319
-0.143584
-0.26586
-0.259171
-0.404536
-0.168346
-0.014041
-0.0790456
0.00727451
0.0103526
0.0309463
0.0106182
0.0238589
-0.0114696
-0.0749939
-0.34435
-0.349334
0.0088502
-0.186133
0.178896
-0.00245785
0.00410243
-0.139665
0.020927
-0.0498071
-0.0620767
0.0230935
-0.0130886
-0.0687041
0.0085545
-0.253253
-0.05509
-0.00606232
-0.0145561
-0.178191
-0.0109951
-0.332413
-0.149001
-0.0129806
-0.109699
-0.00985737
-0.0398927
-0.0234164
-0.174237
-0.0819399
0.0103646
-0.159904
-0.0877889
0.0185699
-0.0150237
0.0359571
-0.0283532
0.0201503
-0.292288
-0.242926
-0.412709
-0.0612434
-0.410022
0.0209057
-0.0587275
-0.0284998
-0.213897
0.0511602
-0.098685
-0.000199239
-0.0510732
-0.126732
-0.381527
-0.0741792
-0.000419718
-0.110868
-0.00321383
-0.169294
-0.0105409
-0.0120786
-0.0493697
-0.0593867
0.00216185
0.0112454
0.0678128
-0.151383
0.0487916
-0.0194959
-0.0490218
0.00893156
-0.0881977
0.0196625
-0.405914
-0.0558194
-0.0422913
-0.112669
-0.409307
-0.0579423
-0.210628
-0.0121637
0.0188351
-0.0695279
-0.0802641
-0.216136
-0.0570177
-0.0768863
-0.0345089
-0.117737
-0.0723449
-0.0480012
0.0226399
0.0038501
-0.147464
-0.139044
-0.410689
-0.0541323
-0.0100959
0.0219269
-0.409489
-0.0983083
-0.0115897
-0.234921
-0.0177191
-0.0768518
-0.0796776
-0.0811122
-0.0260623
0.0167576
0.0058492
-0.0538912
-0.181386
-0.253311
-0.012746
-0.0115778
-0.255032
0.0081425
0.0112564
0.109992
0.102463
-0.0613598
0.0165836
-0.0541872
-0.0734313
0.103358
-0.367166
-0.110757
0.0275
-0.0520434
0.0331644
0.00762457
-0.404834
0.311951
-0.0578257
-0.0261775
0.0190439
-0.142762
0.0913878
0.0227726
-0.0678955
-0.358094
-0.0101736
-0.100035
0.0303042
-0.108845
0.0257378
-0.0195235
-0.411013
-0.141829
-0.13665
0.0182711
-0.131439
-0.0178896
0.0222848
-0.0637367
-0.0939557