/*--------------------------------*- C++ -*----------------------------------*\
| =========                 |                                                 |
| \\      /  F ield         | OpenFOAM: The Open Source CFD Toolbox           |
|  \\    /   O peration     | Version:  v2012                                 |
|   \\  /    A nd           | Website:  www.openfoam.com                      |
|    \\/     M anipulation  |                                                 |
\*---------------------------------------------------------------------------*/
FoamFile
{
    version     2.0;
    format      ascii;
    class       volScalarField;
    location    "100";
    object      nut;
}
// * * * * * * * * * * * * * * * * * * * * * * * * * * * * * * * * * * * * * //

dimensions      [0 2 -1 0 0 0 0];


internalField   nonuniform List<scalar> 
13917
(
0.00043161
0.00227504
0.0123291
0.00309579
0.00672398
3.54512e-05
0.0113408
0.00940494
0.0107527
0.000275414
0.000859518
0.00137799
0.00316523
0.0014394
0.000606109
0.000827067
0.00232014
0.000658021
0.0015876
0.00672258
0.00672567
0.0126346
0.00672307
0.0119135
0.00673041
0.0108549
0.000163224
0.000110609
2.99131e-05
0.000322953
0.000462901
0.000776053
0.000222817
0.000580527
0.00605148
9.46569e-05
0.00672319
0.0115365
0.00262845
0.00299651
0.0067321
0.00672611
0.00672499
7.285e-05
0.00361048
0.000493233
0.000762682
0.000805923
5.3327e-05
0.00672035
0.00148747
0.00198613
6.21404e-05
0.000519972
0.00208541
0.00123023
0.00112549
0.0034439
0.00131124
0.00357084
0.00645343
0.00260839
0.000327364
0.00672243
3.65559e-05
0.00130272
0.00672437
0.00627566
0.000917298
0.000382859
0.0067238
0.010384
0.00996944
0.00672884
4.63104e-05
0.00183329
0.00531789
0.00234455
0.0106273
0.00672503
0.0067245
0.00672402
3.56993e-05
0.012686
0.0091808
0.00254387
0.00672416
0.000576463
0.00151603
0.0067264
0.0114463
0.000293854
0.00522216
0.00122336
0.000821005
3.65495e-05
0.000942808
0.0008088
0.00103522
5.67225e-05
0.00672162
0.000255337
7.05744e-05
0.00224212
0.00673075
0.00997342
4.10287e-05
0.000911981
0.0022172
0.000402467
0.011051
0.00367434
0.0013583
0.0124108
0.0012196
4.8544e-05
0.0067239
3.80383e-05
0.00512461
0.000533853
0.00672586
0.00126884
0.00631244
0.000131192
0.00672315
0.00133714
0.00344668
0.00672374
0.00672069
3.52754e-05
0.0113313
0.00118717
0.00342612
0.00672583
0.000629674
0.0115344
0.00042736
5.20753e-05
0.00672457
0.000558389
0.000319773
0.00674819
0.00151059
5.8274e-05
0.00536514
0.00846335
3.87178e-05
0.00188121
0.00674187
0.000648862
0.000988486
4.9607e-05
0.00122214
0.000296208
0.000959363
0.00346777
0.000438122
0.00105015
0.00327943
0.0007227
0.00080578
0.000158488
0.00672509
0.000980605
0.00143929
0.00118045
0.00226422
0.000958402
0.00471479
0.000256013
0.000280499
0.00393891
0.00128511
0.00170461
0.00788222
0.000248601
0.0119517
4.06346e-05
0.00899561
0.00520504
0.000295016
0.000456308
0.00674886
0.00672409
0.000419331
0.0101712
0.000279296
0.00321922
0.000794148
0.00100177
0.000175666
0.00913001
0.000220967
0.00672336
5.4688e-05
0.000162642
0.00458221
0.00490738
4.68457e-05
0.000190297
0.00199607
0.00672048
0.00107178
0.0011606
0.00797261
0.000217153
0.00673196
0.00365097
0.000850149
0.0107233
0.00169813
0.0119157
0.00423227
0.00110958
0.00672952
2.6582e-05
0.000901761
0.00495052
0.00672888
0.00664129
0.00565445
0.000383043
0.00672584
0.0122287
0.0102162
0.000768897
0.000204526
0.000968444
0.00672943
0.000143384
0.00138707
0.000846161
0.0107529
0.00261202
0.00672016
0.000723588
0.0127685
0.00728261
0.00672492
0.00672156
0.00400273
0.000941072
0.0067256
0.000619079
0.000604658
0.000157345
0.000513744
0.00672492
0.000211998
0.00345647
0.00528878
0.000247101
4.80665e-05
0.0036155
0.00366568
0.00118188
0.00701434
0.00105394
0.000353585
0.000669842
0.0067257
0.00403301
0.00801383
0.000171225
0.0067287
0.00902993
0.00351145
0.00280132
0.0112071
0.00184671
0.0067247
0.00672038
0.000794501
0.0100416
0.000776712
0.00141788
0.000143203
0.00217899
0.00671966
0.00499839
0.00672204
0.00871887
0.00191903
0.00672543
0.000587982
0.000275752
0.00016854
0.000287505
0.000366095
0.00426105
0.000300533
0.0111235
0.0070822
0.0067284
0.00348896
0.00672365
0.00434815
0.00672339
3.00195e-05
0.00672084
0.000383013
0.000520875
0.00498413
0.00104677
0.00157411
5.06748e-05
0.000274125
0.000301396
0.00620217
0.00398311
0.0101929
0.00531726
0.0067242
0.00672356
0.00458125
0.00496572
0.0110982
0.00662022
0.0129716
0.00426325
0.000166953
0.00128256
4.78434e-05
0.000834602
0.00058613
3.39425e-05
0.000646685
0.000979952
4.67e-05
0.00208603
0.0111703
5.54275e-05
0.00487331
0.000650642
0.00308344
0.00067496
0.0119593
4.02447e-05
7.83903e-05
8.07749e-05
0.0104575
0.00672463
0.00029662
0.0121314
0.00240925
0.00114016
0.0041188
4.31535e-05
0.00196346
0.000305141
2.95601e-05
0.00672046
0.00370456
0.000207286
0.0067219
0.00672576
0.00672376
0.00674203
0.000634199
0.00813883
3.14077e-05
0.0115372
0.00672591
0.00024176
0.00115164
0.00101212
0.0128344
0.0116455
0.0111591
0.00672204
0.000378697
0.00672589
0.00567011
0.00367862
4.66231e-05
0.000514319
0.00251388
0.00672434
0.000867034
0.000280138
0.000742568
1.42775e-05
0.0116056
0.00250034
0.000196997
0.000289404
0.00672125
0.00772532
0.0122866
0.00309359
0.000172282
0.00672548
0.000708602
0.00472917
0.0067248
0.0014412
0.0102395
0.00148476
0.00837667
0.00164697
0.00089812
3.26625e-05
0.00221286
3.06695e-05
3.08012e-05
0.00672223
4.35628e-05
0.00252558
0.00672847
0.000350942
0.00672547
0.00673148
0.00672567
0.000683633
0.00672525
0.00421248
0.00781721
0.000958237
0.000243641
0.010124
0.00502969
0.00113873
0.00672488
0.000471233
0.00263088
0.00068393
0.00672341
0.00872624
0.0103844
0.00717232
0.000747985
0.000595514
0.0007348
0.00259355
0.000733621
0.0014841
0.000273694
0.00225872
0.00672216
0.0124841
0.0115741
0.0120636
0.0001902
0.000545476
0.0123117
0.0130115
0.00513099
0.00671995
0.00082477
0.00146918
0.00302721
0.000285885
0.000799295
0.00679533
0.000528613
0.00108334
0.00482288
0.00672225
0.00103834
0.000783826
0.000331506
0.00633654
0.0067254
0.00336727
0.0068568
0.00040748
0.00672194
0.00914905
3.40497e-05
0.000408732
0.00664577
0.00124652
0.00103896
0.0135974
3.1584e-05
0.000916798
0.000210772
0.00103766
0.000460995
0.000543469
0.00143843
0.000840831
3.80873e-05
0.00163311
0.000875581
0.00676652
0.000475919
0.00136556
0.0067639
0.000436671
0.00246129
0.00561325
0.0108757
0.00574622
0.00672533
0.00949403
0.00292461
0.00672546
0.00401581
0.00294298
0.000233975
0.00554654
0.0071621
0.000249966
0.000734208
0.0023359
0.0108567
0.000226364
0.0016839
0.00672566
0.00446013
5.08852e-05
0.00483247
0.00676537
0.00872275
0.0100006
0.00129862
0.00672581
0.00221347
0.00213768
0.000639083
0.00678501
0.00672452
0.00671956
0.00671957
0.00706563
0.00040558
0.00127838
0.00028039
0.00673078
0.00672121
0.000606051
0.0139486
0.000811826
0.00424993
0.00672816
0.00672789
0.00550844
0.0086488
0.00672396
0.00672756
0.000899162
0.00148669
0.00133457
0.00311243
0.001351
0.000737534
0.000940169
4.8953e-05
0.000321038
0.000499653
0.000728828
9.28258e-05
0.000310499
0.00672749
0.00484281
0.00672742
0.00100793
0.00221985
0.000480016
0.000119279
0.00672299
0.000304826
0.000319237
0.000330238
0.000728947
0.000226049
0.0011753
0.00672403
0.0109171
0.000201092
0.0139139
0.00246968
0.00106444
0.000322647
0.0122119
0.000404141
0.000803541
0.000184952
0.00075535
0.00134582
0.00325695
0.000127017
6.82669e-05
0.00259038
0.000920597
4.96636e-05
0.0139167
0.00220765
0.00110589
0.000995236
0.000244675
0.000609738
0.00164983
2.93311e-05
0.00843275
0.0103207
0.000275363
0.00672123
0.00460076
0.00184629
0.00673086
0.000758322
0.00102823
0.000233439
0.000339465
0.0111133
0.000555287
0.00151654
0.0107366
0.00201013
0.00347935
0.00672509
0.00672388
0.00398373
0.00964063
3.37243e-05
0.00204108
0.00170811
0.00672692
0.0020804
5.28677e-05
0.00111914
0.00128245
0.000995623
0.000884132
0.00527853
0.000174035
0.00115589
0.000354401
0.00673161
0.00057291
0.00223407
0.00136695
0.000299987
0.000126307
0.000956347
0.00671965
0.00675409
0.00329669
7.8711e-05
0.000373189
0.00039977
1.46441e-05
0.000984102
0.00672029
0.000511022
2.97015e-05
0.000297729
0.00529614
0.000481351
0.00672448
0.00207271
0.00130585
0.0124676
0.00672486
0.000117946
0.00208816
0.000843305
0.000270191
0.00986521
0.000131332
0.00235583
0.00894127
0.000658917
0.00336592
0.00244273
0.00066842
0.000265818
0.000819152
0.00672482
0.00240356
0.00013663
0.00254786
0.000669485
0.00126196
0.00675642
0.00112522
0.0115855
0.0059776
0.00353827
0.00671984
0.00477724
0.00672564
0.000817168
0.00469328
0.001126
0.00808587
0.000970362
0.000200652
0.0067198
0.000202839
0.00672306
0.000462611
0.00671946
0.000153372
0.00325784
0.000635383
1.62371e-05
0.013831
0.00683139
0.00672425
0.000323392
0.000433718
0.00638804
0.0131367
0.000731058
0.00673032
0.000674443
3.10268e-05
0.000707458
0.000322686
0.000837056
0.00979604
0.000423894
0.00225062
0.000410316
5.30857e-05
0.000715035
2.9996e-05
0.000674592
0.00277154
0.00106432
0.000600248
0.00678548
0.0021193
0.000406109
0.000668476
0.00672352
0.00672392
0.000943004
0.00240373
0.000597394
0.00672903
0.00672532
0.00672579
0.0013975
0.00673151
0.000951496
0.00672014
0.00671784
0.00152912
3.67663e-05
0.0067213
0.00672529
0.000131107
0.000485986
0.00133823
0.00712106
0.000215457
0.00377415
0.00206894
0.000587542
0.00303118
0.00672574
0.00671939
0.00144534
0.00249922
0.00672543
0.000702786
0.000845121
0.00154496
0.00016841
0.000211469
0.000955564
0.00673061
0.00672624
0.00165788
0.00545248
0.00177829
0.00492393
0.00162941
0.00672377
0.000984947
0.00672102
0.00672996
0.000732913
0.000401595
0.00414554
0.00052911
0.00575025
0.00672797
0.013285
8.9251e-05
0.00238761
0.00267307
0.00562786
0.000361694
0.00277568
0.000248628
0.00276368
0.0067203
0.00672847
0.00159463
0.000482677
0.000990539
0.000589909
0.0101385
0.00241396
0.000953468
0.00214571
0.00672559
0.00149356
0.00389719
0.0067218
0.000409425
0.000147028
0.00258723
0.00939856
0.00571659
0.000281993
0.00672834
0.00673992
0.00106375
0.000898458
0.00672544
0.000128159
0.00673793
0.000442042
0.00680387
0.00678755
0.000437055
0.00418631
0.00148989
0.000535836
0.00672577
0.0067257
0.00346011
0.00673553
0.00354809
2.36225e-05
0.00581542
0.00677086
0.0123528
0.00836403
0.00166321
0.000402021
0.00074234
0.00155212
0.00674932
0.000401847
0.00705483
0.000142311
0.0067239
0.00268934
0.012419
0.000998309
0.0125679
0.00672563
0.00123089
0.00365537
0.00110074
0.00253465
0.00215893
3.96516e-05
0.00673457
0.000428938
0.00671941
0.00415828
0.00672175
0.0104377
0.00673004
0.0058557
0.00675013
0.00298987
0.00257163
0.000223671
8.77342e-05
0.00679364
0.000255319
0.00672384
0.0118302
0.00672201
0.00540038
0.00672382
0.00105686
0.00672367
0.000586327
0.00336545
0.00981281
0.000480871
0.000314732
0.00626242
0.00410199
0.00312597
0.00654068
0.00774429
0.0101644
0.0134539
0.000210338
0.000449886
0.00231198
0.0113742
0.00113237
0.0127231
0.0067606
0.00526454
0.00256322
0.00672376
0.00150116
0.000304566
0.00690978
0.00542654
0.0067259
0.00167298
5.54834e-05
0.00360128
0.000218171
0.000889491
0.00320298
2.24313e-05
0.000162886
0.000881874
0.00298907
0.00354693
0.00318806
3.86787e-05
0.00680098
0.000253873
0.00033542
0.00729449
0.0105892
0.00144524
0.00515277
0.00292783
0.00235586
0.00672667
0.00141362
0.00671835
0.00078796
0.000382247
0.00685003
0.000881904
0.00596743
0.000598771
0.0132662
0.000421527
0.00197621
0.0041456
0.00500219
0.00194928
0.000192935
0.00611748
0.00672359
0.00673241
0.0122923
0.000310536
0.000143902
0.000761974
0.000246441
0.00673207
0.00052718
0.0019725
0.00672222
0.00193979
0.0105536
0.00464307
0.0067762
0.00672671
0.00366035
0.000570856
0.00169168
0.00104522
0.00595663
0.00204128
0.000536706
0.00663245
0.000468075
8.68557e-05
0.0121302
0.00371377
0.000144099
0.00101467
0.00894726
0.0129264
0.00672941
0.00987523
0.000738268
3.87081e-05
0.00672366
0.0104927
0.00672503
0.00116226
0.000394173
0.000743105
0.0101455
0.000199566
0.00096733
0.0084525
0.00671989
0.000758587
0.00679019
0.000635673
0.01206
0.00287978
0.00672528
0.00183008
0.00314965
0.00740136
0.00672715
0.00672287
0.00116287
0.000462067
0.00100591
3.23505e-05
0.0012301
0.00244423
0.00213074
0.000896201
0.0021751
0.00765274
0.00152311
0.00389348
0.0118755
0.00193467
0.00657512
0.00994812
0.000413548
0.00193079
0.000542574
0.000788768
0.00387495
0.00153724
0.00284774
0.000387856
0.00672626
0.000882836
5.42615e-05
0.00672544
0.000527082
0.00624343
0.000151418
0.00671979
0.000516376
0.000806687
0.00232524
0.00394216
0.00677555
2.60688e-05
0.000253132
0.00752647
0.00627768
0.0027111
0.000958962
0.00404553
0.000426113
0.000255255
0.00448689
0.000599366
0.00677756
0.00649621
0.00209446
0.00166624
0.00516862
0.000782184
0.00673265
0.00114789
0.00251647
0.00672216
0.00672444
0.00839688
0.0119066
0.000753634
0.00111251
0.00672236
0.00398096
0.0102661
0.00166536
0.00673056
0.000878774
0.00675782
0.00038514
0.00672447
0.00672933
0.00249767
0.00112862
0.00913696
0.00260713
0.00209637
0.00673161
0.000653086
0.00672108
3.23837e-05
0.000540282
0.00672566
0.00835929
0.000187829
0.00073336
0.0128118
3.19704e-05
0.00677146
0.00203286
0.00331078
3.35146e-05
0.00057768
0.00903914
0.00564168
0.000874734
0.0132557
4.28294e-05
0.000932042
0.00117649
0.00014325
3.53057e-05
0.00975854
0.000121514
0.000321223
0.013293
0.00142981
0.000775683
0.00815916
0.000102365
0.00676271
0.00212999
0.00513067
0.000334224
0.00600028
0.000192275
0.000415091
0.000459744
0.00824021
0.00116372
0.00802488
0.00208742
0.000687655
0.000546118
0.000254685
0.00093732
0.00677404
0.0017569
0.00996426
0.00672394
0.000802165
0.00674962
0.0013824
0.00521183
0.000253069
0.000978173
4.01249e-05
0.000164256
9.70075e-05
0.00696413
5.08859e-05
0.00525311
0.000602513
0.00899294
0.00673849
0.00672467
0.000935241
0.00341174
0.00672526
0.000618562
6.5454e-05
0.000280025
0.00364785
0.00301883
0.00586277
0.000558377
0.000286225
0.00672005
0.000632197
0.00995132
0.000227326
4.21822e-05
0.00127181
0.000395582
0.00120218
0.00153683
0.00778467
0.000306842
0.00140455
2.02884e-05
0.000772445
0.00672593
0.00485978
0.00293154
0.00511225
0.00140836
0.000220063
0.00673238
0.000973355
0.00672096
0.000952236
0.00678495
0.000219572
0.00102335
0.00035386
0.0043205
0.00022506
0.00490256
0.00793798
0.00672624
0.000577429
0.0067238
0.000906966
0.0084269
0.000984665
0.00673398
0.000959034
0.00360064
0.000676494
0.0115194
0.00436603
0.00184114
0.00048615
0.000780535
0.0130449
0.00673302
0.000453477
0.00312815
0.0067233
0.000300386
0.00196158
0.00672047
0.000926461
0.0043737
0.00118392
0.0006016
0.0089636
0.000692565
0.00983775
0.00125664
0.00672051
0.000379956
0.00297164
0.00305758
0.00034223
0.00129899
0.000634929
0.00673429
0.000574233
0.000525575
0.000629879
0.00673815
0.00672493
0.00110904
0.00175147
0.00672611
0.000239979
0.0067576
0.000738795
0.000790274
0.0010693
3.78798e-05
0.0120937
0.00251242
0.00124009
0.000809073
0.00204259
0.00148435
3.55138e-05
0.00330908
0.0008522
0.00503648
0.000989973
0.000384986
0.000632625
0.00676804
0.00672548
0.00672195
0.00329202
0.00045469
0.00678899
0.000856346
0.00155242
0.00188816
0.00028688
0.0101989
0.000342237
0.00185202
0.0124091
0.00252681
0.00410995
0.00237441
0.000120997
0.00673391
0.00422477
0.00495176
0.00344105
0.00307475
0.00983884
0.000347267
0.00220436
0.00672046
0.00583602
0.0137757
0.00265416
0.000148123
0.000899982
0.0067265
0.000605956
0.000734762
0.00672599
0.00672145
0.0108926
0.00562922
0.00275202
0.0019462
0.00326082
0.000753303
0.000212996
0.00466851
0.00140204
3.01041e-05
0.00335737
0.000716215
0.000310347
0.00293707
0.00128848
4.75054e-05
0.000368943
0.00672483
0.00123342
0.0109722
0.000986107
0.000134281
0.0122022
3.84373e-05
3.90561e-05
0.000589239
0.00224422
0.00672505
0.0067274
0.0033863
0.000938695
0.00227871
0.0028442
0.00143647
0.0067258
0.00429133
0.00597194
0.00125043
0.00187725
0.00822601
0.000162334
0.00164334
0.00903675
0.000414321
0.000871109
0.0067216
0.000509034
0.00296263
0.00275526
0.00124952
0.000976915
0.000847687
0.000106064
0.00830362
0.000326083
0.00506592
0.0104937
0.00672544
0.00317978
0.000174649
0.00672577
0.00523849
0.00116571
0.00782485
0.0065525
0.00789188
0.00277022
0.00677112
0.00130898
3.35157e-05
0.000673046
0.00256713
0.0056987
0.0016653
0.000972024
0.0110945
0.00672506
0.000136504
0.00672034
0.00316137
0.000636462
0.00581432
0.00930386
0.000842426
7.59915e-05
0.00672598
0.00431425
0.000399353
3.38464e-05
0.00320967
9.20758e-05
0.00429876
0.00677099
2.44619e-05
0.00277355
0.000473169
0.000108753
0.00672504
0.00670216
0.00108199
0.000871946
0.000572907
6.59279e-05
0.000240184
0.000191466
0.00163901
0.0121995
0.000363018
0.00286664
0.000370831
0.00119756
0.00393062
0.000481742
0.0037606
0.00211787
0.0101151
0.00176446
0.00674088
5.00768e-05
0.0024493
0.00170758
0.00247641
0.00881159
0.000433216
0.000480597
0.00672387
0.00672514
0.00672438
0.00672095
0.000540775
0.000146503
0.000180657
0.000898499
0.00672187
0.000329475
0.00229052
0.000520852
0.000379874
0.00436944
0.00111788
0.00095527
0.00210224
3.82363e-05
0.00929362
0.000232533
0.00894181
0.0018545
0.00673491
8.15136e-05
0.00631906
3.63118e-05
0.00672377
0.00222007
0.00100907
0.00992051
0.00422727
0.000357668
0.00429975
0.000154277
0.000918146
0.0108699
0.000566054
0.00120895
0.00100722
0.00107366
0.000260122
0.00151478
0.00672369
0.000388756
0.00634931
0.00672377
0.00168252
0.00672536
0.00412407
0.00716078
0.0123813
0.00672088
0.0039962
0.00217964
0.00580675
0.000234762
0.00100504
0.00343403
0.00672191
0.00672249
0.00168311
0.000824302
0.000787289
0.000547938
0.00603529
0.0131386
0.0021328
0.0145922
5.31163e-05
0.000540437
0.000115187
0.00104135
0.0108444
0.000680013
0.000937538
0.00191729
0.00972296
0.00954591
0.00672033
0.00672319
0.00030008
0.0121133
0.00590326
0.00679689
0.00349458
0.0116908
0.000354385
0.00102689
0.00126125
0.000802321
4.24229e-05
0.00233295
0.0128838
0.00399872
0.000455488
0.000235756
0.00356778
0.00673406
0.0067196
0.000530853
0.00857439
0.00127514
0.00195975
0.0014187
0.000140442
0.0034687
0.00152842
0.00742629
0.00261142
0.00487783
3.91232e-05
0.00672586
0.00672368
0.00844735
0.00672503
0.00675982
0.00127583
5.13907e-05
0.000894265
0.00333923
0.000385143
0.00672452
0.0127565
0.000561428
0.00520464
0.00263251
4.60751e-05
0.000611111
0.00410661
0.000995447
0.0131558
0.00672385
0.00764297
0.00387116
0.00834891
0.000299723
0.000224397
0.00552131
0.00237866
0.000192451
0.00127689
0.00863313
0.000584537
0.000263417
0.000832069
0.00120569
0.000404591
0.00450984
0.00142432
0.0116181
0.00291944
0.00672725
0.00430829
0.00109358
0.00326002
0.000709565
0.00672617
0.000681407
0.0021511
4.2777e-05
0.000143923
0.00562012
0.00671987
7.01935e-05
0.00277552
0.000848956
0.00117103
0.000527092
0.00415062
0.0019541
0.00157192
0.00227969
0.00733456
0.012663
0.00672325
0.00671955
0.00212838
0.0012464
0.00672718
0.00204402
0.000952639
0.00099442
2.15323e-05
0.00676442
0.0134489
0.00739626
0.00672605
0.00209993
0.00123032
0.00164977
4.10957e-05
0.00218067
0.00690215
0.000403193
0.00113506
0.000845507
0.00672456
0.000659733
0.0045232
0.00333214
0.000298203
0.00844012
0.0097239
0.00672523
0.00672112
0.00150603
0.00377806
0.000476959
0.00162823
0.000446705
0.00217495
0.0103834
0.00319172
0.013786
0.00672477
0.0118436
0.00253119
0.00672529
0.00795342
3.27329e-05
6.03209e-05
0.000358419
0.000148093
0.000919662
0.00626164
0.00716738
0.00672785
0.00672692
6.63776e-05
0.00169785
0.00366105
0.00888313
0.000548149
0.00843538
0.000388139
0.000270138
0.00678866
0.0014483
0.00151102
0.0132069
0.000664138
0.0127654
0.00675496
0.00387489
0.00352535
0.00353723
0.000230658
3.97467e-05
0.00206116
0.00672359
0.000672153
0.000836877
0.000952409
0.000527829
7.27227e-05
0.00672151
3.04581e-05
0.000369003
0.00265612
0.000656297
0.00125114
0.00147927
0.0133418
0.0067194
0.000440669
0.0104481
0.00148461
0.00093908
0.000934809
5.02012e-05
0.00136554
0.00374064
0.00143365
0.00076431
0.00208018
0.000392924
0.00273886
0.0128134
0.00672226
9.03675e-05
4.03796e-05
0.0119012
0.000638284
0.000358092
0.00194882
0.000145455
0.00672554
0.0116967
0.00157678
0.00438832
0.0010261
0.00672215
0.00672568
4.23192e-05
0.00672454
0.00672324
0.00326083
0.000945517
0.0021343
0.000526923
0.00101806
0.000230909
0.000389425
0.00672525
5.88114e-05
3.09267e-05
0.000296817
0.00036607
0.000438833
0.000715562
0.00907614
0.000322398
0.00672605
0.00424358
0.00868999
0.00672603
0.00145974
0.00672253
3.58117e-05
0.000292647
0.00411318
3.76266e-05
0.0127312
0.00672211
0.00218416
0.0088519
0.00780724
0.00171826
0.00672714
0.00288673
0.0102599
4.74704e-05
0.00672315
0.013524
0.0015854
9.25792e-05
0.0111988
0.00130089
0.006723
0.000941178
0.000274992
0.00107273
0.00961052
0.0136701
0.00674157
0.00782906
3.49044e-05
0.00793597
0.00672534
0.000113615
0.00203727
0.0053878
0.0143917
0.000879676
0.000806411
0.00157074
0.000452008
0.000655435
0.00681488
0.0129705
0.00384331
0.0067327
0.00260621
0.00027221
0.00620536
0.000907635
0.0140644
0.00785719
0.000665751
0.00244712
0.00430088
0.0143564
0.000657929
0.00081857
0.00674048
0.00132289
0.000295368
0.00103445
0.000428655
2.67809e-05
0.00672359
0.000781779
0.00683275
0.000156615
0.00702451
0.00291501
0.00672424
0.00672631
0.00167037
0.000570458
0.0023434
0.0142588
0.0131281
0.0067634
0.00673283
0.00672394
0.00672153
2.2926e-05
0.00677583
0.00946231
0.000498769
0.00186458
0.0054416
0.000313594
0.0137214
0.00106296
4.18198e-05
0.00781954
0.0020428
0.00379981
0.000256437
0.000208338
4.56349e-05
0.00393044
0.00772429
0.00163341
0.00673537
8.82171e-05
0.00677609
0.000608299
0.00218864
0.0073443
0.000323829
0.000110149
0.000308565
0.000691338
0.00672365
0.000246595
0.00132326
0.00672571
3.85593e-05
0.00672072
0.00211374
0.00089679
0.00239929
0.0069327
0.00118955
3.44747e-05
0.00132317
0.00672499
0.00944176
0.01246
0.000760913
0.0002513
0.00149036
0.000349048
0.00128623
0.00201896
0.000610732
0.0015036
0.000842466
0.00062816
0.00751766
0.000134586
0.000181987
0.00135294
0.00288729
0.0145895
0.00671883
0.0106627
0.000766982
0.0123301
0.00033775
0.00207716
0.00281827
0.000757421
9.13312e-05
0.00426419
0.0141826
8.50915e-05
0.00533962
0.00289409
0.00888094
0.00105309
0.00231175
0.000614583
0.000696564
0.00123454
0.00660951
0.00672601
0.00200383
0.00154138
0.000381135
0.00672358
0.00109372
0.00673493
0.00798882
0.000932932
0.000367767
0.00077914
0.000840532
0.000196891
0.000687332
0.000350901
0.00673895
8.07632e-05
0.0134904
0.00267503
0.00334935
0.00756591
0.00105656
4.12698e-05
0.00672789
0.000805256
0.0134223
0.00168204
0.00541281
0.00369594
0.000241353
0.0135785
0.00359899
0.00673643
0.00264453
8.91558e-05
0.000852006
0.0123904
0.000840234
0.00016338
0.000422188
0.000344274
0.00284511
0.00753146
0.00959862
0.00127894
0.000785493
0.00127207
0.000325684
0.00582946
0.000898762
0.00207678
0.000232341
0.00673098
3.42183e-05
0.00520141
0.00339319
0.00519493
0.00119124
0.00321603
0.01401
0.00672434
0.00111523
0.00672503
0.0013939
0.00117241
0.000166621
0.0101639
0.00054292
0.00672095
0.000363233
0.00112031
0.00346351
0.000945614
0.00675171
0.0053538
0.0127298
0.000917386
7.18246e-05
0.00672088
0.000767755
0.00115001
0.000809071
0.00675043
0.00336497
0.00672287
0.00116561
0.00672372
0.00115298
0.00282582
0.00644577
0.0107022
0.00523193
0.00090023
0.00200102
0.00672589
0.0118507
0.00539685
0.000427242
0.0138003
0.00175396
0.00736053
0.0035477
0.0129386
0.00175181
0.0129266
0.00120162
0.000967088
0.00427945
0.0008927
0.000953035
0.00102741
0.000331306
0.0128499
0.000321143
0.000205192
0.00053621
0.00100787
0.000215401
0.000196616
0.000657614
0.00439585
0.0045208
0.00112794
0.000199154
0.00015148
0.000892766
0.00968166
0.00626246
5.93314e-05
0.00360088
0.00100657
4.17391e-05
0.00169253
0.000786126
0.00309371
0.00882857
0.00493788
0.00211552
0.00546856
0.00157044
0.00781722
0.000126911
0.00672641
0.00485122
0.00319749
0.00540546
0.000922009
0.001515
0.000453246
0.000864889
0.00256711
0.00113801
6.82816e-05
0.000165666
0.00036133
0.009944
0.0113993
0.00505718
0.00672412
0.00486379
7.25767e-05
0.00310227
0.000153849
0.00735624
0.0110232
0.0067263
0.00657618
0.0110413
0.000190027
0.00672903
0.00674147
0.000494062
0.00409484
0.0106796
0.000973528
0.000496469
0.00672454
0.000526732
0.000906803
5.14567e-05
0.000272554
0.000195449
0.00179082
0.00061985
0.00073811
0.00137533
0.0033929
0.000953322
0.0113452
0.000736908
0.0031512
0.00672336
0.0129701
0.000315655
0.000395088
0.00672216
0.00672526
0.000223651
0.00560149
0.000100758
0.00563889
0.00507046
0.00151989
0.0127895
0.00109721
0.00676884
0.0039973
0.000178977
0.00083453
0.00672524
0.0108584
0.00820293
0.00474865
0.000254764
0.00689793
0.000326186
0.00328606
0.00676159
0.00247731
0.00200245
0.000409134
0.000730358
7.25212e-05
0.000366545
0.0067383
0.00247297
0.00887583
0.00601043
0.00035599
0.00048202
0.00479929
0.000640322
0.00672403
0.000965642
0.000642184
0.00672162
0.00978966
0.00672563
0.000262053
0.0126474
0.000495158
0.00243068
0.00672627
0.0137199
0.0067242
0.00119351
0.00191314
0.000134299
0.000243873
0.000816938
0.0126437
0.000196661
2.90296e-05
0.00148235
0.00103208
0.00625225
0.00672387
0.0040786
0.0121711
0.000315626
0.00128725
0.000939756
0.000954592
0.00786724
0.0137236
0.000697721
0.000549704
0.00672346
0.0119907
0.00463898
0.00404247
0.000790927
0.00100116
0.000429581
4.18502e-05
0.000172048
0.000429651
0.000848585
0.0135319
0.00148392
0.00672172
0.00301701
0.000152296
0.00673593
0.00961647
0.00672099
0.00672362
0.000717796
0.000160886
0.0030656
0.006736
0.000693193
0.00673493
3.38921e-05
0.00572215
3.3465e-05
0.00192821
0.0121618
0.00894609
0.000421423
0.000314775
0.0096101
3.56683e-05
0.00672456
0.000383681
0.000170201
0.000325139
3.90545e-05
0.0104898
0.0114307
0.0118576
5.0306e-05
0.00240613
0.00114038
0.00672078
0.00422955
0.00110232
0.00287889
0.00144153
0.00214095
0.00604846
0.000882489
0.011784
0.00672271
0.00149456
0.00671954
0.00851431
0.001584
0.0122708
0.00723158
0.000322714
0.00672413
0.00575162
0.00805441
3.6518e-05
0.00672383
6.67252e-05
0.0067249
0.000201837
4.55077e-05
0.000607977
0.00104198
0.00257114
0.00674118
0.0062475
0.00088339
0.00995334
0.000752394
0.00025994
0.00543335
0.00177771
0.00672855
0.0067224
0.00171193
0.0045475
0.0012526
0.0105374
0.000416484
0.00188232
0.013674
0.000150122
0.00672353
0.00127137
0.00672918
3.87313e-05
0.00424397
0.000780652
0.00582407
0.00672467
0.00677662
8.50029e-05
0.00327013
3.17231e-05
0.00676396
0.000255503
0.00688436
3.85797e-05
0.00672281
0.00110642
0.00160693
0.00020341
0.00919575
0.00672576
0.00753412
0.000330348
0.000205731
0.00680451
0.00673036
0.0100508
0.000610548
0.00428428
0.00478985
0.000837286
0.000973273
0.00017908
0.0139052
0.00140696
0.000114709
0.00129807
0.00672574
0.00876599
0.00341381
0.0115545
0.00499894
0.00200075
0.00672367
0.00909237
0.0117987
0.00672576
3.83542e-05
0.000937885
0.00672112
0.00502937
0.00673779
3.98518e-05
0.0136012
0.000344816
0.00249852
0.000595848
0.0067229
0.00337552
0.00156636
0.00672147
0.000915946
0.0033717
0.0013568
0.000284552
0.000584617
0.00671963
0.0064058
0.000978527
0.00672281
0.000261598
0.00115719
0.000328461
0.0006711
0.00638248
0.000509367
0.0036954
0.000361929
0.000385551
0.00142029
0.0117443
0.00135762
0.00222529
0.000322066
0.00484026
0.000155457
6.88863e-05
0.000163392
0.00672428
0.00441402
0.0067236
0.000251707
0.00130541
0.00121946
0.00671816
0.00682442
0.007404
0.00672568
4.32594e-05
0.0125467
0.01449
0.00538161
0.0033507
0.000985639
0.0112647
0.000873806
0.00128716
0.000341361
0.00655334
0.000229823
5.6148e-05
0.000682377
0.0108606
0.000187307
0.00673676
0.00015244
0.000861928
0.00258607
0.00321164
0.00150102
0.0124384
0.000354346
0.00852811
0.0012092
0.000796132
0.00303917
0.000258765
0.0086876
0.00236229
0.00113429
0.0113428
0.00899082
0.000469362
0.00199521
0.000994622
0.00175163
7.60008e-05
0.00104059
0.000262036
0.0142438
0.00674345
0.00334308
0.000205265
0.000188125
0.00672067
0.0067235
0.000228794
3.81902e-05
0.00472191
0.000526437
7.71396e-05
0.000174364
0.00770516
0.0122646
0.0134118
0.0137624
0.000664248
0.00674792
8.35582e-05
0.00614475
0.00539156
0.00450462
3.50507e-05
5.78614e-05
3.18414e-05
0.00410318
0.00672548
2.75176e-05
0.000830064
0.000797062
3.13241e-05
0.0058334
0.0067251
4.15998e-05
0.0135017
0.0022824
9.04311e-05
0.000597355
0.00672821
0.000923314
0.0131599
3.83165e-05
0.00672543
0.0038008
0.000756165
0.00151649
0.00672493
0.00247136
0.00257878
0.00328469
0.00260353
0.00033755
0.000240855
0.000184118
3.42481e-05
0.001252
0.00989739
0.000646553
0.00218959
0.000673192
0.00245817
9.93962e-05
0.00668218
0.000601717
0.000422875
0.000582996
5.77507e-05
0.00335878
0.000192057
0.00131285
0.0102361
0.000737587
0.00401394
0.00535751
0.00447751
0.000165673
0.00125147
4.02065e-05
3.80945e-05
3.83105e-05
0.000557045
0.000284307
0.00521353
0.00276465
0.00734858
0.000351821
0.000121525
0.0041321
0.00471136
0.000620481
0.0135233
0.00672151
0.00599192
0.000128803
6.6409e-05
0.000263965
0.00545204
0.00672187
0.00108385
0.0031072
0.0020807
0.000939878
9.20028e-05
0.000183093
0.00415084
0.00312268
0.00287773
0.00672504
0.00889722
0.00223591
0.00933491
6.77716e-05
0.00424645
3.58774e-05
0.000278432
0.0109294
0.00250828
0.00210886
0.00679119
0.00672387
0.00291713
3.72432e-05
3.77759e-05
0.0115893
0.0067239
0.00329088
5.23332e-05
0.00672541
0.000551045
0.000890981
4.67181e-05
4.5239e-05
0.000216262
0.000257777
0.00673776
0.000662566
0.0002865
5.46503e-05
6.81197e-05
0.000216915
0.00672231
8.45432e-05
0.00619384
0.000151498
0.012001
3.67902e-05
0.00321869
6.56782e-05
0.00343394
0.000827735
0.00196942
0.00332587
0.000388586
0.0025608
0.0111449
7.1955e-05
0.000219962
7.09555e-05
0.000193618
0.00835219
0.0135707
0.000451347
0.0122849
0.000110671
0.00565963
0.000110408
0.0141646
6.59004e-05
0.006725
0.000522337
3.35601e-05
0.000646407
0.00272471
0.00320188
0.000460786
0.00672456
0.00577398
0.00166612
0.000114693
0.00672556
0.00670138
0.011553
0.000390294
0.0067659
3.61444e-05
0.0129351
0.000331305
0.00673417
0.00117388
0.00675419
0.000162361
0.000608482
0.000381117
0.000808065
0.000248302
0.00675975
0.0126799
0.00110887
0.000545494
0.0120729
5.45571e-05
0.00516969
0.0136964
0.00443195
0.00277374
0.00672379