/*--------------------------------*- C++ -*----------------------------------*\
| =========                 |                                                 |
| \\      /  F ield         | OpenFOAM: The Open Source CFD Toolbox           |
|  \\    /   O peration     | Version:  v2012                                 |
|   \\  /    A nd           | Website:  www.openfoam.com                      |
|    \\/     M anipulation  |                                                 |
\*---------------------------------------------------------------------------*/
FoamFile
{
    version     2.0;
    format      ascii;
    class       volVectorField;
    location    "400";
    object      ddtCorrDdt0(U);
}
// * * * * * * * * * * * * * * * * * * * * * * * * * * * * * * * * * * * * * //

dimensions      [0 1 -2 0 0 0 0];


internalField   nonuniform List<vector> 
13917
(
(-0.0028236 -0.00312677 -1.08e-17)
(-0.00050379 -0.000501158 -5.65245e-19)
(-0.103547 0.0701723 -5.41553e-18)
(0.00154679 -0.000595899 4.04381e-18)
(3.9683e-05 0.000289631 5.3664e-18)
(0.000546139 0.00746156 -3.4479e-16)
(-0.123723 0.0599923 1.11077e-17)
(-0.0859592 0.0703294 -1.17446e-18)
(0.0220349 0.0182364 8.61168e-18)
(-0.00332459 -0.00681246 2.4536e-17)
(0.0484265 0.0267745 -3.12451e-17)
(0.0203586 -0.00190703 -1.37699e-18)
(0.00163448 -0.000696161 4.13173e-19)
(0.0225794 0.00427939 -2.84834e-17)
(0.00044968 -0.00101293 6.55878e-18)
(5.33027e-05 -0.00110753 -6.49825e-18)
(-0.000445732 -0.000718936 -5.17773e-19)
(-0.00877924 0.0101017 3.36143e-18)
(0.0195184 -0.00254915 -1.33444e-18)
(0.000135292 0.000189559 -1.55765e-18)
(8.47206e-06 0.000210385 -1.47816e-18)
(-0.125943 0.057754 -1.28114e-17)
(0.000147308 0.000174507 1.35561e-18)
(-0.0897188 0.0737378 -2.40665e-17)
(1.56082e-05 -0.000624007 -6.24549e-18)
(-0.151029 0.0445081 -1.94568e-18)
(0.000431544 0.00192471 -2.74893e-17)
(0.00184856 0.00242337 -8.5083e-18)
(0.0093931 0.00651021 -7.33128e-18)
(-0.0133343 -0.00827929 3.23661e-17)
(-0.0040662 -0.00300682 -1.24859e-17)
(-0.00170617 -0.000985687 -3.87763e-18)
(0.000910953 0.000983543 1.90133e-18)
(-2.62611e-05 -0.000304463 5.10602e-18)
(5.19146e-05 -0.00064831 -1.76464e-19)
(0.0578916 0.0275781 -1.00792e-17)
(0.000141456 0.000232008 8.81096e-19)
(0.0128442 0.0232298 -3.40246e-17)
(0.00269426 -0.00106736 -7.45345e-18)
(-0.175101 -0.00444032 1.38886e-18)
(1.60928e-05 -2.42337e-05 -1.85181e-19)
(-2.56588e-07 8.114e-05 5.61374e-21)
(5.80498e-05 0.000202423 -1.08068e-18)
(0.00297803 0.00351422 1.58772e-17)
(-0.000370936 0.000661787 -7.61436e-19)
(8.52192e-05 0.000161207 -4.98359e-18)
(-0.00801421 0.0103038 -2.25255e-18)
(-0.0039133 0.0212904 1.44304e-17)
(0.000449349 0.00878952 8.53179e-17)
(0.000150769 -4.53475e-07 5.74049e-19)
(3.2912e-05 0.00401426 6.0084e-18)
(-2.2013e-05 -0.0011843 -2.23977e-18)
(0.000235521 0.00844068 2.00681e-17)
(-1.65142e-05 -0.000219414 -1.85701e-17)
(-0.00044051 -0.000743622 -2.49682e-18)
(-0.00204268 0.00266309 3.20845e-18)
(0.0465919 0.0277204 3.38323e-17)
(-0.000120157 -0.00112676 2.13237e-18)
(-0.00166345 0.00152632 9.17304e-18)
(-0.000358018 0.000597406 7.0226e-19)
(0.0857968 0.00455417 4.68008e-17)
(-0.000517212 -0.000435407 9.36882e-19)
(0.0144336 0.00214297 2.59123e-17)
(0.000135658 0.000175624 1.90651e-18)
(0.000584765 0.0076978 2.42993e-16)
(0.0496801 -0.000758155 -4.43231e-17)
(-2.65396e-05 0.000259635 3.58902e-18)
(-8.78918e-06 -0.000584515 -2.26102e-18)
(-0.0021969 0.0511862 -1.99569e-17)
(-0.000929087 -0.00292838 7.59429e-19)
(5.07993e-05 0.000335099 -6.03219e-18)
(0.0130527 0.0209958 -1.93357e-17)
(0.0960706 0.000358804 -3.8492e-17)
(4.77368e-05 -0.000576859 6.67852e-18)
(0.000293737 0.00869603 1.81006e-18)
(0.0188712 -0.0123593 7.82648e-18)
(0.0953062 0.00396039 -4.06029e-17)
(-0.000462903 0.00131205 -1.80987e-18)
(-0.157782 0.0132327 9.48315e-19)
(2.26395e-05 0.000371417 2.13985e-18)
(5.15687e-05 0.000399615 -1.42775e-18)
(7.73376e-06 0.000329051 7.42848e-19)
(0.00161629 0.0067647 4.30853e-17)
(0.0105866 0.0269535 -7.34033e-20)
(0.0109871 -0.00177298 4.57863e-17)
(-0.000396102 0.0013002 6.76355e-19)
(8.14778e-05 0.000381846 2.11287e-18)
(0.0320255 -0.0083679 -5.74842e-17)
(0.000131263 0.00385915 -1.30262e-18)
(7.00061e-05 0.000213965 -9.8024e-19)
(0.0851656 0.00765462 -5.19301e-17)
(-0.00703657 -0.00871237 1.29187e-17)
(-0.000368584 -0.000116686 1.14749e-18)
(9.18789e-05 -0.00106468 2.2473e-18)
(0.0348286 -0.00281959 6.61457e-17)
(0.00012942 0.00680952 1.89066e-17)
(0.0169525 0.0385388 2.61411e-18)
(-0.00614768 0.0175706 3.16712e-17)
(0.033514 -0.019167 -1.29403e-17)
(0.0015833 0.00472979 -7.87643e-17)
(-8.85563e-05 -0.000196312 -9.11558e-20)
(-1.23055e-05 0.000856248 -7.10677e-18)
(0.00259026 0.00354484 3.60656e-17)
(-8.04586e-05 0.00183492 4.53489e-18)
(-0.000207774 -0.000177955 -9.1514e-20)
(0.0195869 0.0106768 -4.13844e-18)
(0.00959215 0.00416832 1.00319e-17)
(-0.0047827 0.0222528 -4.71932e-18)
(-0.000468969 -0.000628804 5.28133e-19)
(-0.00344126 -0.00398007 -7.90368e-19)
(0.0440729 -0.0142335 -2.21434e-17)
(-0.175413 -0.00469438 7.17958e-20)
(0.0268044 -0.00518212 7.15033e-18)
(0.0226927 0.0115098 8.61209e-18)
(1.67233e-05 -0.000987562 -2.11102e-18)
(-0.000116839 0.00873301 1.43262e-17)
(7.88279e-05 -0.0003862 -1.32093e-17)
(0.000477287 0.00837559 -6.86018e-17)
(-0.0982972 0.0132131 -6.83532e-18)
(0.000125649 -0.00019949 -3.10915e-17)
(3.83432e-06 0.000156445 1.22458e-18)
(-0.0034365 0.0491757 2.60006e-17)
(-0.0599036 0.0143354 -9.16191e-18)
(0.00167876 0.00234266 6.94091e-18)
(0.000135816 -1.55447e-05 7.56592e-19)
(7.52731e-05 -0.00107644 1.28184e-17)
(-0.000463912 0.000356822 1.08067e-18)
(0.000148444 -5.45683e-06 -1.19907e-18)
(-4.44731e-07 8.88502e-05 1.04733e-18)
(0.00065317 0.00698006 1.73231e-18)
(-0.0829502 0.0296528 9.91794e-20)
(5.13126e-06 -0.00101804 9.80076e-18)
(-0.000405688 0.000648261 -1.02873e-18)
(4.49585e-06 0.000173496 -5.95781e-19)
(0.0830264 0.00451771 -2.76674e-17)
(-0.0931163 0.0755247 3.57695e-17)
(-0.00252594 -0.00332332 5.99592e-18)
(0.00149318 0.00494035 2.14833e-16)
(-2.75998e-05 0.000182589 2.393e-18)
(8.53179e-05 -0.000239979 1.03676e-17)
(0.0847267 0.0242947 -9.63017e-18)
(-0.000208671 0.00021601 2.98642e-19)
(6.66245e-06 -0.00116346 -1.11168e-17)
(0.00270524 0.00427951 7.30659e-18)
(7.38962e-06 -0.000640506 6.23435e-18)
(-0.0098658 0.0269634 -1.42669e-17)
(0.0107557 0.00530196 4.95589e-18)
(-1.17316e-05 -0.0011919 9.11355e-19)
(-0.000167848 0.000212897 -4.55776e-19)
(-0.00145475 -0.00145548 1.151e-18)
(0.00785774 0.0156841 4.15305e-18)
(-3.69778e-05 0.00873224 7.32472e-18)
(0.0257671 0.0164321 6.943e-18)
(0.00127306 -0.00296058 7.78235e-20)
(-0.00246346 0.000616657 -3.46952e-18)
(0.00364452 -0.000267899 2.06576e-17)
(-0.000843818 -0.00269025 -5.23812e-19)
(-0.0781125 0.0849031 2.60074e-17)
(0.0995144 0.00310876 3.72948e-17)
(0.08231 0.00164435 2.17741e-17)
(0.000249827 -0.000741151 1.66205e-18)
(-0.000404637 0.00191518 -2.02532e-17)
(3.67557e-05 0.00032654 -5.3036e-19)
(0.0184641 0.034412 2.34855e-18)
(0.0262839 -0.00395535 -5.79266e-18)
(0.0336215 -0.0177463 3.25414e-18)
(-0.000163512 0.00177279 -3.48851e-18)
(0.00171696 0.0183113 -9.77356e-18)
(-0.000323877 0.000413484 -2.23786e-18)
(-8.82648e-05 0.000989177 1.27227e-18)
(0.000693162 -0.00336384 9.20397e-19)
(0.0305027 -0.0053342 4.33654e-18)
(0.0271324 -0.0095847 9.7851e-18)
(-0.000452463 -0.000799207 3.2753e-18)
(-0.0369922 0.0465506 5.66508e-19)
(0.00222423 -0.00298697 2.49304e-18)
(-0.0930121 0.0338289 3.50382e-18)
(0.000350029 0.00856657 4.14302e-17)
(-0.0167973 0.030632 -7.54455e-18)
(-0.00029896 -0.000721739 -3.58491e-18)
(-0.00778744 -0.00921712 -1.0557e-17)
(-0.00447407 -0.00315921 1.01264e-17)
(-0.000179353 0.000253677 -4.48994e-18)
(8.39433e-05 0.000397223 -2.97164e-18)
(0.00110736 -0.000666289 1.01122e-17)
(-0.147802 0.0463466 -1.95619e-18)
(-0.00803641 -0.0189782 1.36284e-17)
(0.0144663 0.000197762 -1.58056e-17)
(-0.0052789 0.00415274 1.23157e-17)
(0.03901 -0.00581451 -1.43181e-17)
(-0.00475028 0.0738107 1.05544e-17)
(0.014233 -0.00243438 -2.55377e-17)
(-0.00323386 -0.0170083 1.12141e-17)
(0.000123482 0.000256157 4.44942e-18)
(0.000728328 0.00524625 -1.55555e-17)
(0.000441252 0.00175378 3.58652e-17)
(-4.92516e-08 -8.44583e-06 -6.17186e-20)
(-0.000377238 -0.000119959 -8.72736e-21)
(0.0090032 0.00194547 8.89228e-18)
(0.0212972 -0.0119465 2.21871e-17)
(0.00251699 0.00254287 -4.81871e-18)
(0.000152262 2.1484e-06 -3.99698e-19)
(0.00386195 0.0159569 -2.72379e-17)
(0.00839216 0.0147175 -6.02085e-18)
(0.100058 0.0004716 -1.99276e-17)
(0.00674815 0.0357138 5.84689e-17)
(4.58508e-05 -0.000575922 -1.54553e-18)
(-0.000128364 -0.00115031 -1.56978e-18)
(-0.00489832 0.0176604 -1.79961e-17)
(-0.131975 0.0624002 1.13209e-19)
(1.24044e-05 -0.00114761 2.82086e-18)
(-0.117613 0.0620412 -1.39688e-18)
(0.106549 0.000336849 2.87013e-17)
(0.0392236 -0.00496274 1.06617e-17)
(-0.000198645 -0.000210055 1.44696e-20)
(0.00457328 0.00784418 -1.06592e-16)
(-0.00264429 0.0156547 -1.26468e-17)
(0.0714148 -0.00563446 -5.77067e-18)
(-8.79206e-06 -0.000705208 -9.13862e-19)
(0.0979831 0.00596905 -1.45904e-17)
(-0.000281839 -0.000725044 3.465e-18)
(-0.0160886 -0.00417599 -2.52726e-17)
(6.74153e-06 -3.36785e-05 3.4195e-19)
(0.0380931 0.021064 -3.12228e-18)
(0.0237971 0.00696823 3.26087e-17)
(5.50414e-05 -0.00115362 6.13199e-18)
(0.0161655 -0.00859347 -4.18902e-17)
(-0.00260698 0.000751806 -2.69144e-18)
(-0.00017943 -0.000241719 8.88501e-20)
(0.0805172 0.0170909 2.4297e-17)
(0.0255929 -0.0100729 -1.97624e-17)
(-0.00497356 0.00441853 2.47204e-18)
(-0.102603 0.0757262 2.06568e-17)
(0.108621 0.000242011 -6.50355e-18)
(-0.000101841 -7.0435e-05 -4.21148e-20)
(-0.00184349 -0.00104 1.80278e-18)
(0.0809716 0.00848585 9.1417e-18)
(0.00478761 -0.00245156 6.14537e-18)
(3.52289e-05 0.000368904 -4.43901e-18)
(6.91196e-05 -0.000301947 1.19704e-18)
(-0.156144 -0.011257 6.83157e-18)
(0.0140105 0.0414802 -1.19399e-17)
(4.53138e-06 1.44835e-05 -1.51012e-18)
(0.0882903 -0.00352168 5.42338e-18)
(-0.0203531 0.0135792 -1.35248e-17)
(-0.00045144 0.00178845 -1.19564e-18)
(-0.00317435 -0.00226859 -1.63097e-17)
(3.74308e-05 0.000335212 4.64692e-19)
(0.00270768 -0.00200489 1.20572e-17)
(0.105889 0.00072149 1.77088e-17)
(0.000394016 0.000526863 -2.91694e-18)
(-0.00656665 -0.0115959 -2.48656e-17)
(0.00213056 0.00540472 7.50794e-17)
(-0.000432674 0.000371245 4.13549e-19)
(-9.81187e-05 -0.00111738 -7.94865e-18)
(0.020196 0.0111956 -2.53843e-17)
(-0.157927 -0.011815 -3.3272e-18)
(0.0249397 0.0141672 -4.25825e-17)
(0.00121717 -0.000699876 -6.43258e-18)
(0.000450142 -0.00104613 -7.18822e-18)
(4.00928e-06 2.55019e-05 1.27454e-18)
(-0.0633431 0.0102086 -4.28832e-18)
(0.0555745 -0.0139446 -8.82237e-18)
(0.0782144 -0.0300174 1.6979e-18)
(-0.000177511 -0.000273866 -2.922e-20)
(0.093468 -0.00359473 -7.87624e-17)
(0.0323802 0.00526479 2.01672e-17)
(-0.0784723 0.0836567 -2.60036e-17)
(-0.161749 0.0115936 -1.21797e-18)
(0.0198549 -0.0132687 4.49095e-18)
(4.00203e-05 0.000386119 2.933e-18)
(9.44482e-05 -2.49504e-05 6.71652e-19)
(-0.00711905 0.0114976 -2.64218e-17)
(0.0614929 0.0131358 4.73591e-17)
(-0.0139141 0.0327685 -1.55621e-17)
(-0.00152266 0.00157551 2.90541e-18)
(0.016361 0.0306337 2.30483e-18)
(0.0096572 -0.0047534 4.70624e-18)
(1.96924e-05 6.17986e-05 -7.4313e-20)
(0.112986 -0.0146322 -6.02655e-18)
(0.000141032 0.000123988 -1.88827e-18)
(-0.0356362 0.0476803 4.52008e-17)
(0.00238238 0.0023534 -7.54503e-18)
(7.89999e-06 1.47356e-05 9.22914e-19)
(0.000198218 -0.00134995 7.70081e-18)
(0.00150103 -0.00292216 6.13158e-19)
(-0.000176995 0.00186999 9.11143e-17)
(0.0998762 -0.0025495 3.22473e-18)
(0.000911606 -0.00177454 -1.66865e-18)
(0.000237924 0.000911117 -2.71651e-18)
(-0.0783364 -0.0210305 2.43254e-17)
(-0.100407 0.0764071 -1.0209e-17)
(0.0482174 -0.0163249 -1.14646e-17)
(-2.84314e-06 -0.00066399 -5.81371e-18)
(-0.0680926 0.074737 3.13468e-17)
(1.8628e-05 0.000625785 4.42871e-18)
(0.000270394 0.00088389 1.15119e-18)
(8.89116e-05 -0.000327776 8.27904e-18)
(0.0117807 0.00595818 -4.68714e-18)
(0.000123118 3.75629e-05 9.40068e-19)
(-0.0168785 -0.00493828 -2.61824e-17)
(-0.00292761 -0.00213552 1.5808e-17)
(-0.000295424 0.000422163 1.53676e-18)
(0.00479601 0.0164583 1.75947e-17)
(-0.000931801 -0.000166197 1.21086e-19)
(-7.91845e-06 0.00868055 1.597e-16)
(0.00200333 -0.00291175 -2.15836e-18)
(-0.00691778 -0.00797609 3.62255e-18)
(-0.000150528 0.000455062 -2.54166e-19)
(-9.44874e-05 -0.00109222 3.34779e-18)
(0.0397398 -0.0130972 -3.56196e-17)
(-0.0405779 0.0128599 6.72319e-18)
(7.29202e-05 -0.000438556 3.42344e-18)
(5.44631e-05 -3.35767e-05 4.12316e-19)
(0.117743 -0.0106945 7.7517e-18)
(-0.00033182 -0.000549823 2.63574e-18)
(0.0933705 0.00103213 -7.44518e-18)
(-0.000163749 0.000421704 -1.32722e-18)
(0.0369719 0.0235733 6.59555e-18)
(0.00077985 -0.00010269 8.15187e-18)
(0.00813334 -0.0135102 -1.58519e-17)
(0.00109995 0.0071976 3.44281e-17)
(0.000582124 0.00908834 -6.15566e-17)
(0.00023408 -0.000792115 9.22038e-18)
(0.0761576 0.00148056 -1.81267e-17)
(0.00339597 0.00675918 2.72791e-17)
(7.70444e-05 -0.00134531 2.97237e-18)
(0.0125251 0.0437414 1.3495e-18)
(0.0121515 0.00124366 -8.3015e-19)
(-0.000177354 -0.0011159 3.29916e-18)
(-0.039143 0.0274919 4.76419e-18)
(0.000414566 0.0051653 5.58481e-17)
(0.0347174 0.00771192 -2.04546e-17)
(5.56512e-05 -0.000401382 2.229e-17)
(-0.162438 0.00569034 -1.10871e-18)
(-0.00217315 -0.000985682 4.21992e-18)
(0.00869797 -0.00941434 3.27293e-17)
(0.00316075 0.00644899 -2.56137e-17)
(0.00708482 -0.000318639 5.63642e-18)
(0.00687372 -0.000577366 -6.63863e-18)
(-0.102974 0.0670763 -1.43448e-17)
(3.52744e-05 0.000474999 2.74599e-18)
(0.000702383 -0.00366952 3.49886e-18)
(0.0392426 -0.0165698 1.78392e-17)
(-5.11257e-05 -0.0012263 5.33308e-18)
(-0.000212632 -0.00101465 5.09269e-18)
(0.0188929 0.00827979 -2.06539e-17)
(0.00942376 0.00263434 -1.62093e-17)
(-0.000520757 -0.000673823 -2.56854e-19)
(0.0362089 0.065069 2.89046e-17)
(0.00844188 0.00666586 4.82463e-18)
(-2.24734e-05 -0.000198226 -4.28452e-20)
(-0.0952424 0.0091492 9.71148e-18)
(0.0462855 0.0465975 -5.74663e-17)
(0.000146422 0.000110154 8.41744e-19)
(-7.00553e-05 -0.000500364 -1.49753e-18)
(-4.16193e-06 0.00062116 -3.85198e-18)
(-0.000162643 0.000236894 -2.29981e-18)
(-0.0822881 -0.0180263 -3.66615e-18)
(-0.0240913 0.0362259 1.29889e-17)
(-0.00222902 0.00779854 3.02222e-17)
(0.0358019 -0.0156039 -1.55194e-17)
(5.45724e-05 -0.000488544 6.97561e-19)
(-0.00676729 -0.0122959 6.89582e-18)
(-0.00572642 -0.000943324 -2.81213e-17)
(0.00251825 0.0110789 -5.43082e-18)
(-0.119159 0.0597975 -4.29604e-18)
(0.0581525 0.0159093 -3.72193e-17)
(0.026784 0.00806271 3.70283e-17)
(-0.000128099 -0.000105449 -1.63717e-19)
(0.0651033 -0.0259779 9.57727e-18)
(-9.81803e-05 -0.000474059 2.08748e-19)
(0.108311 0.00757918 -1.22949e-17)
(-0.00037774 0.000546902 1.51619e-18)
(0.00057275 0.0097599 -2.05918e-17)
(-0.0212764 0.0125035 -2.02132e-17)
(0.00240239 0.000533184 1.33442e-18)
(5.54227e-05 0.00052784 2.89731e-18)
(-0.00431657 0.0167388 -4.63475e-17)
(-0.0077971 -0.00987114 -4.48563e-17)
(-0.0130343 0.0154203 1.7106e-18)
(0.00524466 0.0195771 1.58495e-17)
(0.0080067 -0.00912498 -5.49257e-17)
(0.0728119 -0.00475255 -2.35684e-18)
(0.00290013 -0.00216402 -8.14312e-18)
(-0.00330316 -0.00644255 -2.35676e-17)
(8.46768e-05 -0.000270065 -1.10816e-18)
(0.00614155 -0.00275002 -9.24754e-18)
(-0.135621 0.0532488 -1.00772e-17)
(-0.00018815 -0.00110259 -2.77549e-18)
(0.00811599 -0.00518657 -2.76582e-17)
(8.28314e-05 -0.000304419 1.12063e-17)
(-0.0730275 0.0237838 3.00846e-18)
(0.000774928 -3.3885e-05 -4.56607e-18)
(2.63645e-05 0.000434441 -3.55681e-18)
(-0.000837463 -0.000362128 6.31589e-19)
(-0.104246 -0.0459965 -9.60364e-20)
(-0.000809015 -0.000424233 -2.33411e-19)
(-0.155349 -0.0149584 1.9671e-19)
(0.00601737 0.00233456 2.87032e-17)
(0.0453743 0.0136713 1.67715e-17)
(0.00271928 0.0073108 -6.79953e-17)
(-0.000200695 -0.00109154 -4.53074e-18)
(0.00398284 0.00731049 1.13212e-16)
(0.00295393 0.00724797 1.85584e-17)
(0.000133744 -9.18812e-05 1.63464e-18)
(0.00907988 0.00337882 -6.89967e-18)
(-3.45613e-05 -0.00121977 -6.7784e-18)
(3.03098e-05 -0.000508218 9.9531e-19)
(-0.0123515 -0.00840355 7.97629e-18)
(7.65813e-06 3.84284e-05 -1.38686e-18)
(2.03088e-05 -0.000648211 -8.82044e-19)
(-0.000103526 -0.00044536 -1.80595e-19)
(-0.0470539 -0.0114412 3.73415e-18)
(1.80312e-05 0.000311934 2.36955e-18)
(-0.157846 0.00751075 1.098e-18)
(-0.0766866 -0.0446348 -8.09901e-20)
(-0.00780745 0.0010172 -1.22618e-17)
(-0.00264033 -0.0165478 4.0472e-17)
(-0.171228 0.00289129 2.3642e-20)
(0.0858666 -0.00459996 -1.54583e-18)
(0.00298389 0.0106992 8.04962e-18)
(7.71261e-05 -0.000430017 1.47166e-19)
(-0.0348595 0.00814204 1.39887e-17)
(0.00258263 -0.000838526 1.01832e-17)
(-0.00197891 -0.00129928 2.58908e-18)
(0.000124382 0.000188608 -2.57799e-18)
(-0.0162718 0.0324397 5.71166e-18)
(-0.132483 0.0594916 -2.25985e-18)
(-0.0459097 -0.052377 -1.02949e-18)
(0.000204502 -0.00107263 4.2101e-18)
(-0.0225005 0.0180965 2.14447e-17)
(0.000131071 -0.000346794 1.26784e-17)
(0.00295099 -0.00102768 1.41219e-17)
(-0.0120281 0.0158533 -1.72461e-17)
(-0.000561845 -0.000716688 4.24809e-19)
(0.0620934 -0.0310518 6.15725e-18)
(-0.000476903 -0.000637224 -2.02033e-18)
(0.000119842 4.38692e-05 -1.16903e-18)
(0.0885121 0.000959123 4.39875e-18)
(-0.0945752 0.0307749 3.91659e-17)
(-0.102956 0.0337084 -4.09479e-17)
(-0.000110327 -0.011343 5.18042e-17)
(-0.0092868 0.00130484 2.1479e-17)
(-0.0412197 0.0322054 8.12622e-19)
(0.0643079 -0.0135543 -2.80175e-17)
(0.0779897 0.00642194 2.708e-17)
(-3.69266e-05 6.20905e-05 -4.70735e-19)
(-0.00642294 0.0144119 -4.13469e-17)
(-0.000604684 -0.000650279 1.79422e-19)
(-0.000100757 -0.00117009 2.51807e-18)
(0.00664834 0.0337957 -3.79972e-17)
(-0.00789091 0.0112947 2.84278e-17)
(0.000131508 1.91697e-05 1.99474e-18)
(-0.0127531 0.00294555 1.85883e-17)
(0.00139222 0.0100916 -3.23735e-17)
(0.0715544 0.00490584 -4.97986e-17)
(0.000131072 -0.000151034 1.55509e-19)
(0.00137352 0.0374027 -8.5746e-19)
(0.0129786 0.00927653 1.58418e-17)
(0.0102404 -0.0149114 -5.7517e-17)
(-0.143495 0.0122692 -2.163e-18)
(1.2655e-05 0.00028562 -8.06575e-19)
(-0.000189159 -0.0011076 -1.15584e-18)
(-3.40248e-05 -1.61702e-05 6.03657e-20)
(-0.000581205 -0.00272917 -7.31223e-19)
(-0.000129003 -9.66792e-05 1.54804e-19)
(-0.141823 0.0356351 6.44524e-19)
(-0.00196852 0.00748344 -8.98989e-18)
(0.000759681 -0.00181386 -5.27626e-18)
(0.00637085 -0.00355808 1.11988e-17)
(-0.00186451 0.00280274 -5.24878e-18)
(0.02242 0.0340736 -3.13518e-17)
(0.0597904 -0.015463 8.58851e-18)
(0.0108388 0.00478199 1.81646e-18)
(0.0438644 0.0116297 -1.39741e-17)
(0.0721349 0.032188 1.76838e-17)
(0.00295824 0.0385582 -1.29975e-17)
(-0.0112046 -8.7595e-05 -2.00202e-19)
(-0.0328224 0.0197426 3.48917e-18)
(0.0107423 0.00472999 -7.06662e-18)
(0.0529776 -0.000778311 3.09652e-18)
(0.00117775 0.00807933 -5.68367e-17)
(0.0135519 0.000620933 -4.68915e-19)
(-0.00171312 0.0263265 -1.30684e-17)
(-0.000129437 -8.52917e-06 1.94609e-20)
(0.0473331 0.0172239 4.00744e-18)
(-0.000378583 0.00427841 4.25669e-18)
(0.000166294 0.000386091 7.67593e-20)
(-0.000532215 -0.00251437 4.74733e-19)
(-0.000378578 0.00148579 -1.38017e-18)
(0.0736764 0.00635919 -5.80598e-18)
(0.0188037 0.014362 -6.67494e-18)
(-0.000307438 -0.000575614 -2.79033e-18)
(5.05162e-06 4.57042e-05 5.93115e-19)
(-0.135479 0.0593254 -9.66038e-18)
(0.0870573 -0.00371738 4.99822e-19)
(6.91093e-06 2.90419e-05 -1.02164e-18)
(-0.146449 0.00868966 -2.55452e-18)
(0.000902994 0.00121867 6.94398e-19)
(-0.00485345 -0.015751 -2.44234e-17)
(-0.000318183 -0.000623959 -4.53787e-19)
(0.100906 -0.00148865 -1.61015e-18)
(-0.0477711 0.0544279 5.40943e-17)
(-0.00156471 -0.00129827 -6.04616e-18)
(-0.000663507 0.000257894 1.9079e-18)
(-0.172093 0.0034016 1.57754e-18)
(-0.00715224 -0.017763 -2.04206e-17)
(-0.00260487 -0.00105762 -1.3073e-18)
(4.91595e-06 3.4609e-05 6.81954e-19)
(0.105649 0.000751158 2.09389e-17)
(0.000287338 0.00852852 -9.85283e-17)
(0.119517 -0.00904907 8.48331e-18)
(0.000157378 0.000415949 5.43032e-18)
(0.00837592 -0.0015749 -5.18871e-17)
(0.0437473 -0.0194453 1.28859e-17)
(0.00436616 0.0106555 -2.13271e-17)
(-8.58591e-05 -0.000496116 5.23205e-19)
(-0.000369283 -0.000858418 -2.69487e-18)
(0.0169306 -0.0140024 1.58124e-17)
(-0.0454095 0.0323372 -2.51406e-18)
(0.000160587 2.54024e-05 -3.3806e-18)
(-5.02768e-05 -0.000477861 1.71121e-18)
(0.000120961 -6.39666e-05 -1.14747e-18)
(0.000113301 -7.67385e-05 6.88983e-19)
(0.0981406 -0.00279363 2.17456e-17)
(0.00379292 0.0325546 -9.31925e-18)
(0.00380379 0.0103843 2.55675e-17)
(-0.00984128 -0.0193877 -3.28149e-17)
(0.000105227 -1.4332e-05 -1.07845e-18)
(-8.13121e-05 -0.000194989 -1.06241e-19)
(-0.0209325 0.018901 -3.73251e-17)
(0.054825 -0.00657313 -2.74829e-17)
(-0.00448467 0.00242717 4.02088e-18)
(-0.000316928 0.000426986 -2.46082e-18)
(5.52559e-05 -0.000524322 9.07476e-19)
(-2.00355e-06 -0.000188218 -1.5396e-18)
(0.112865 -0.0120532 -1.98489e-17)
(0.0196587 -0.00118319 5.96495e-17)
(8.45541e-05 0.000339668 -5.11141e-19)
(1.7078e-05 -0.000211495 -2.02891e-18)
(0.0593823 -0.0277643 -7.26631e-18)
(0.0101681 0.00514276 8.16228e-18)
(0.00153169 0.0071753 -3.38924e-17)
(-0.000153626 -0.00112683 -3.80253e-18)
(-0.000761833 -0.000539742 2.06476e-19)
(-0.0010607 -0.00124964 1.98116e-18)
(-0.000351712 0.0258549 -1.18201e-17)
(0.0113881 0.000842721 9.05059e-19)
(-0.00861878 -0.0195238 -8.45058e-18)
(-0.0369342 0.0100149 -8.6681e-18)
(-0.0138303 0.0258106 1.0492e-17)
(0.00558726 0.034739 -7.20224e-17)
(-0.00744021 -0.00747378 -1.00625e-18)
(1.48279e-05 -0.00062726 1.31908e-18)
(0.104139 0.000939333 1.81282e-18)
(-9.72338e-06 -0.000171616 1.78166e-18)
(-0.000210371 -0.00103385 -8.32266e-18)
(0.00180417 0.00157675 -5.60265e-18)
(0.0431893 0.0223865 1.34503e-17)
(0.00536418 -0.00272246 2.19368e-18)
(-7.17601e-05 -5.21492e-05 -1.98641e-19)
(0.00870327 -0.0151054 5.74462e-17)
(-0.0152354 -0.00921841 1.53166e-17)
(0.00363909 0.0052625 -5.43024e-17)
(-0.0147932 0.024763 -2.55937e-17)
(0.00179319 0.000192636 8.81352e-18)
(0.00125132 0.0107075 -4.43342e-18)
(5.09387e-05 0.0005504 2.42534e-18)
(0.0442515 -0.0168585 -1.00211e-17)
(0.0077821 -0.0142149 -2.61804e-17)
(-0.0710369 0.0543958 5.58808e-18)
(-0.000479092 -0.000649489 1.76477e-18)
(-0.00303472 0.00306438 1.71595e-17)
(-0.0101931 -0.019879 2.08336e-17)
(0.0590478 0.016305 -1.21297e-18)
(0.0723471 -0.000604152 -4.40699e-17)
(-0.00688246 0.018534 -7.0813e-18)
(-5.99203e-05 -0.0120685 -3.6696e-19)
(8.56086e-05 -0.00110758 1.0112e-17)
(-0.00142211 0.000401432 1.75396e-18)
(-0.000167372 -0.00114059 -9.19022e-19)
(0.00371847 0.000126762 2.04298e-17)
(0.00252841 0.00398906 1.25684e-17)
(-2.10012e-05 -0.00114061 -1.008e-17)
(-0.00159396 0.0154715 -6.34773e-18)
(0.00176331 0.0053159 -9.34847e-17)
(-0.0697218 0.0556531 -2.77956e-17)
(-0.00152734 -0.00126202 -1.41244e-18)
(-0.000837334 -0.000718246 -9.61661e-21)
(0.0235726 0.0320309 1.9156e-17)
(-0.0513912 0.0581443 -2.53877e-17)
(0.000286025 -0.00161212 2.64725e-18)
(2.50366e-05 -0.00117951 -1.18949e-17)
(0.00192982 0.0114413 -7.81361e-17)
(0.0168924 0.00343696 5.82305e-18)
(-0.0146301 0.0370385 -3.64687e-17)
(-0.0126177 -0.01985 1.89171e-17)
(-1.59336e-05 9.05992e-05 -7.54387e-19)
(-0.0939909 0.00948115 -1.89707e-17)
(0.01757 -0.0126497 -1.2498e-17)
(-5.48551e-05 -3.3766e-05 -7.79644e-20)
(-0.00362854 0.000117626 -7.97336e-18)
(0.0107619 0.0232201 1.97247e-18)
(0.000892286 0.000839069 3.77923e-18)
(-0.0136703 -0.00730787 -4.02941e-17)
(-0.159611 0.0206983 -1.60632e-18)
(-0.0306734 0.0207347 1.03163e-17)
(0.00866897 0.00373455 4.34079e-18)
(0.0429218 -0.0163536 1.50116e-17)
(-0.000702691 0.0014451 5.88179e-18)
(0.082107 0.00517257 3.5506e-17)
(2.842e-05 0.000336264 3.81645e-18)
(8.23416e-05 0.000343088 1.3279e-18)
(-0.0697494 0.0752123 -9.84525e-18)
(0.0165085 0.00381748 -3.55339e-17)
(0.00175591 0.00786336 1.02289e-16)
(-0.000639344 0.00152171 -9.71148e-19)
(-0.000452093 -0.00077226 -3.02089e-18)
(2.46878e-05 -0.000168269 1.73554e-18)
(0.01024 -0.00448145 -1.58008e-18)
(0.000568845 0.00897293 -9.78412e-17)
(0.0324695 -0.0169173 -2.94754e-17)
(-0.00150903 0.000455276 -2.84175e-18)
(0.0413061 0.0116396 1.65736e-17)
(-0.00316189 0.0166846 -2.12462e-18)
(-0.000329786 -0.000639193 -9.80275e-19)
(0.0165608 -0.00662074 -2.7832e-17)
(0.030591 -0.0175054 1.46301e-17)
(0.0357368 -0.0414247 2.53025e-18)
(-8.21018e-05 -0.000753007 -1.63257e-18)
(-0.0285091 0.0238666 2.34501e-17)
(-0.00044601 0.00139373 -3.6049e-20)
(0.014038 0.00733286 -7.16964e-18)
(-0.00397525 -0.00712539 7.99568e-18)
(0.00508611 -0.00309338 -5.95834e-19)
(-0.00325127 0.00295466 -1.23236e-17)
(2.58728e-05 -0.000117439 2.4742e-19)
(5.15631e-05 0.000447704 2.01921e-19)
(-0.000478083 0.00040672 -8.79613e-19)
(0.00717499 -0.00155943 -7.56253e-20)
(0.00026771 0.000241477 1.14774e-17)
(-0.0259748 -0.019532 -3.03123e-17)
(0.008737 0.0139126 1.3078e-17)
(0.000826893 0.0175915 1.2453e-17)
(-9.00588e-06 -0.000196742 -1.07937e-18)
(-0.0324452 0.0154974 5.0783e-19)
(0.00220846 0.00825766 -3.12975e-17)
(-0.00782029 0.0585552 3.3364e-17)
(0.00035964 0.0005478 3.76506e-18)
(0.000272659 -0.000138741 -1.80394e-17)
(-3.28548e-05 -0.000472862 -2.28089e-18)
(0.00501273 0.00064077 5.11839e-19)
(-0.00174349 0.00162034 -9.13701e-18)
(0.0442294 -0.0189212 -2.35858e-17)
(2.98566e-05 0.000411807 -2.32608e-18)
(0.0143214 -0.0107153 1.44554e-17)
(0.00463783 0.001427 -7.55393e-18)
(0.0498698 0.0231587 -9.77174e-18)
(-0.00554311 -0.00900718 9.37203e-19)
(0.0961767 -0.00100038 1.12188e-17)
(0.00498069 -0.0038892 -1.55553e-19)
(-0.000359556 -0.000851031 3.93476e-18)
(0.072805 0.0101851 -1.8099e-17)
(0.105727 -0.00144611 -3.63007e-17)
(-0.000280421 -0.000965427 -1.40871e-18)
(0.0018203 0.00141057 6.2857e-19)
(-0.0389099 0.045759 1.849e-17)
(-0.0113663 -0.0182836 1.50484e-17)
(-0.0120875 0.0325916 1.17263e-17)
(1.76094e-05 4.10094e-05 1.00338e-18)
(-0.000674041 0.000321179 -1.95878e-18)
(0.0073615 -0.0128285 1.74213e-17)
(0.00256626 0.00044201 -2.84517e-18)
(-0.0130855 0.0139798 1.02637e-17)
(0.0188678 0.0108046 1.5819e-17)
(6.93236e-05 0.000461608 8.78427e-19)
(0.0100173 0.0137092 8.73708e-18)
(-0.101365 0.0715107 -2.69924e-19)
(0.000382415 0.000426844 -1.63585e-18)
(0.00123959 -0.000156291 1.09924e-18)
(0.000131345 -5.18651e-05 -3.52102e-19)
(-0.0450001 0.0109943 -5.70093e-18)
(6.86783e-06 0.000222371 1.42326e-18)
(0.000166437 -0.00105614 5.73901e-18)
(0.0281515 -0.00586155 3.7733e-18)
(-8.57038e-05 -0.00103476 -2.72954e-19)
(0.0110582 0.00722593 3.67196e-17)
(-0.00244913 0.000406366 -2.09017e-18)
(0.00107613 0.00106606 -2.9504e-17)
(0.000126848 -6.85551e-05 6.48021e-19)
(0.00260247 -0.00338413 -3.46114e-20)
(0.000101233 -0.000269697 -2.19685e-18)
(-0.0103113 -0.00128439 1.17068e-17)
(3.08835e-05 -7.31044e-05 8.5847e-19)
(0.00399219 -0.006263 -7.45799e-18)
(0.000817711 0.00124708 6.03223e-18)
(0.0270848 0.0112057 -1.69968e-17)
(0.00610501 0.0121223 3.84839e-18)
(0.0553409 -0.00786442 -2.73624e-17)
(-1.69827e-05 -1.89204e-05 8.92613e-20)
(4.54654e-05 0.000516587 -3.0379e-18)
(-0.00739676 -0.00695125 1.04427e-17)
(-0.00496024 -0.00379713 -1.96153e-18)
(0.00500596 0.0121468 -2.09276e-17)
(0.0432366 0.00302572 -2.77847e-17)
(-0.00900257 0.00915947 7.49648e-18)
(5.38859e-05 -0.000531515 1.23975e-18)
(-0.0408639 -0.00731618 1.73368e-17)
(0.00163406 0.00738964 -9.53644e-17)
(0.0372279 -0.0396549 -9.7924e-18)
(-0.0315736 -0.0195258 1.08498e-17)
(-0.00544642 0.0119517 -1.11e-17)
(-0.14065 -0.00952161 -4.85809e-20)
(-0.00197714 -0.00328293 3.43581e-18)
(0.00919448 -0.00428897 1.052e-17)
(-0.0306855 0.00329109 -9.68145e-18)
(0.00825764 0.00213168 1.05269e-17)
(-0.00867911 0.00847767 -4.88967e-18)
(0.00230332 0.00849379 1.57868e-19)
(-0.00924937 0.0070238 -2.50132e-18)
(0.00164802 0.000365563 5.17624e-18)
(0.0111711 0.0247386 -1.39339e-17)
(2.38574e-05 -0.00141487 -3.86212e-18)
(0.000177711 0.000504005 5.87101e-20)
(0.00478849 0.00078646 2.52928e-18)
(-0.00377415 -0.00373029 -2.90236e-18)
(-0.00134827 -0.00131432 -4.13591e-18)
(9.17122e-05 -0.000267069 -2.22578e-18)
(7.78014e-05 -1.53249e-05 -2.61522e-19)
(-0.0011787 0.0173508 -1.46001e-17)
(0.000590646 0.00189101 -9.23504e-18)
(-0.014184 0.0136391 -3.59581e-18)
(6.279e-05 -0.000476029 -1.40168e-19)
(6.80551e-05 -0.000183786 -7.97604e-19)
(2.58269e-06 0.000185931 -6.47477e-19)
(-0.000666248 -0.000645969 2.39213e-19)
(0.000150657 0.000177415 -5.93336e-19)
(-0.00133476 -0.00078604 -5.62064e-19)
(0.000142288 -3.76092e-05 -9.99763e-19)
(0.101394 -0.00177438 -2.55347e-17)
(0.0186893 -0.00462429 -5.39559e-18)
(-0.00274219 0.00715078 6.48048e-17)
(-0.000115908 -0.000141242 7.54573e-20)
(1.71547e-05 0.000219727 -1.21192e-18)
(0.00209511 0.00173854 -4.21907e-17)
(-0.0118343 3.19559e-05 1.51371e-17)
(-3.03996e-05 -0.00106422 -2.94245e-17)
(0.0963133 -0.0207674 3.58097e-18)
(-0.000225276 -0.00806283 -2.0354e-17)
(0.118048 0.00890485 3.75973e-17)
(0.00487516 0.00120897 1.11909e-17)
(-0.0261814 0.0184024 4.33411e-18)
(0.000114462 0.00131204 -6.19978e-18)
(-7.71438e-06 0.000177159 -6.04407e-19)
(0.000102641 -7.1918e-05 -4.96589e-19)
(-0.000895198 -0.000257202 -5.76067e-19)
(0.00932738 -0.00153771 -1.65738e-17)
(1.23366e-05 0.000185206 -7.12077e-20)
(0.00509185 0.0277077 2.71999e-17)
(-0.0013951 -0.00087137 1.13505e-18)
(-0.00468746 -0.000905974 7.94064e-18)
(0.00335892 -0.00188558 -5.58592e-18)
(-0.000521348 -0.00846185 -1.24767e-18)
(0.049187 0.0211556 4.33441e-18)
(-8.42001e-05 0.0002112 1.10644e-18)
(1.61541e-07 4.85915e-06 7.0282e-19)
(0.0197942 -0.00410271 1.32226e-17)
(9.43209e-06 -0.000604507 -3.54878e-18)
(-7.76886e-05 -0.00118574 -2.25578e-17)
(0.101253 -0.0203738 1.72248e-17)
(-0.000461213 -0.000790275 -1.36867e-18)
(1.84629e-05 0.000630061 -1.35529e-18)
(-0.0028152 0.00151875 -3.49349e-18)
(7.18829e-05 -0.000260507 5.08522e-19)
(-6.95378e-05 1.48788e-05 -8.46253e-19)
(-0.0015595 -0.00109639 3.82606e-18)
(-0.00031494 0.000156613 7.03465e-21)
(0.00370744 0.00846361 6.26807e-18)
(-0.00240227 -0.00218229 -4.46299e-18)
(0.000392347 0.00039085 -2.91045e-18)
(-2.2508e-05 -3.57132e-05 -3.59842e-19)
(0.0543376 0.0188385 -2.44056e-17)
(0.00734151 -0.00107708 -2.59966e-18)
(-0.000263406 -0.00102662 1.69753e-18)