/*--------------------------------*- C++ -*----------------------------------*\
| =========                 |                                                 |
| \\      /  F ield         | OpenFOAM: The Open Source CFD Toolbox           |
|  \\    /   O peration     | Version:  v2012                                 |
|   \\  /    A nd           | Website:  www.openfoam.com                      |
|    \\/     M anipulation  |                                                 |
\*---------------------------------------------------------------------------*/
FoamFile
{
    version     2.0;
    format      ascii;
    class       surfaceScalarField;
    location    "400";
    object      meshPhi;
}
// * * * * * * * * * * * * * * * * * * * * * * * * * * * * * * * * * * * * * //

dimensions      [0 3 -1 0 0 0 0];
oriented        oriented;


internalField   nonuniform List<scalar> 
20673
(
-0.00302044
-0.00190616
0.00492431
0.00327544
0.00405274
-0.00736208
-0.0024488
0.000770099
0.00167869
-0.00753354
-0.000684072
0.00819455
0.00895337
-0.00923489
0.000234887
0.00208936
-0.002162
7.26352e-05
-0.00170266
-0.000632852
0.0023355
0.00205882
-0.00165442
-0.000404414
0.00196588
-0.000352668
-0.00161322
0.00386648
-0.000804521
-0.00306287
0.00278319
0.000126018
-0.00290941
0.00388547
-0.00406886
0.000182314
-0.00551739
-0.00113294
0.00179361
-0.000660672
0.00424194
-0.00716803
0.00292036
-0.00293849
-0.00370298
0.00663265
-0.00903853
0.00293118
0.00608021
0.00412415
-0.000191683
-0.00393379
-0.000857783
0.00474202
-0.0055761
0.00567667
-0.000275824
-0.0014996
3.9742e-05
0.00143631
0.000181227
-0.00188389
0.000350116
-0.00665647
0.00620525
0.00101372
0.00104508
0.00989172
-0.00928421
-0.000661075
0.00234764
-0.00139153
-0.000956122
0.00170857
0.00219079
-0.00389944
-0.000638254
0.00270923
-0.0020711
-0.00121713
0.00238973
-0.00117263
-0.000257829
0.00320305
-0.00294572
-0.00231838
-0.00240457
0.00472089
-0.00332206
-0.00246914
0.00578528
0.00370896
0.000725731
-0.00443516
0.00142926
-0.00589714
0.00446791
-0.00387795
-0.00536822
0.00921767
0.00149712
0.000644033
-0.00214121
-0.00575346
0.00600389
0.00188793
-0.00148927
-0.000398665
0.0060144
-0.0075517
0.00142256
-0.00150855
8.59925e-05
-0.000829541
-0.000828474
0.00108011
-6.57163e-05
-0.000492817
0.000544079
-0.00644026
-0.00135311
0.00741382
-0.00329878
0.00305425
0.000244427
0.00668131
-0.00881558
0.00208807
0.00591291
-0.00554683
-0.000366517
-0.000858805
0.0049814
-0.00449857
0.00257923
0.00191843
-0.00177663
0.00156164
0.000214985
0.000118039
0.000999439
-0.00151044
0.0071155
-0.0029569
-0.00416598
0.00572292
-0.00844987
0.00272168
-0.00193733
0.000160704
0.00556927
-0.00414011
-0.0070099
-0.00205533
0.00373765
0.0021934
-0.00593901
-0.000763645
0.00354658
-0.00875696
-0.00208234
0.0107948
0.00764892
-0.00628444
-0.00137768
-0.00136264
0.00799847
0.00227339
-0.00205988
-0.000213532
0.00908673
-0.00584945
0.000437853
-0.00630476
0.000561494
0.00235321
-0.000263847
0.000640056
0.00147752
-0.0021176
-0.000538517
0.00886245
0.00852751
0.000919178
0.00216902
0.000390735
-0.00255992
0.00389501
0.000745695
-0.00464329
9.49547e-05
0.0088159
0.00174037
0.000225498
-0.00188242
0.00126989
0.000612525
0.0101797
-0.000348611
-0.00162927
5.39933e-05
0.00157528
-0.00452108
0.00236929
0.00215083
-0.00136018
0.00152085
-0.000160673
0.00905277
-0.00792186
-0.00115895
-0.00180355
-0.000594695
0.00239824
-9.47324e-05
-0.00315853
0.00322967
-0.00440842
0.000903691
0.00344465
0.0074273
-0.00212075
0.00216884
-4.80948e-05
0.00128408
0.000603858
0.0021093
-0.00195005
-0.000159254
0.00614912
0.00287395
-0.00498752
0.00472596
0.000176209
-0.00103532
0.00167536
0.00272446
0.00438205
-0.000355815
-0.00639781
0.00190724
-0.00146297
-0.00044427
-0.00145367
0.00462529
-0.00317232
-0.010675
0.00351116
0.00707714
0.00327149
-0.00764172
0.00435922
0.000814062
-0.0018494
0.00175362
0.000513649
-0.00226727
0.00314834
-0.000373416
-0.00277523
0.00216232
-0.00432434
0.00216104
0.00338917
-0.00314946
-0.000239988
-0.00182421
-0.00156414
0.00338829
0.00446608
0.00162362
-0.00641614
-0.00279185
0.00496986
-0.00217796
-0.00241256
-0.00088632
0.00357488
-0.00730322
0.00370897
-0.0053883
0.00865681
-0.00343489
-0.00100343
-0.00114564
0.00214906
0.00280579
-0.00250234
-0.000303511
-0.00303941
-0.00145988
0.00956005
-0.0066583
0.00243624
0.00191247
-0.00435042
0.00198973
-0.00176113
-0.000228602
0.00202495
-0.000602385
0.0034003
-0.000142847
-0.00325803
0.000748214
-0.00175166
-0.00134469
0.00607414
-0.00473005
-0.00189892
0.00122301
0.000675901
0.00726827
0.00204997
-0.00941145
-0.000151151
-0.00164941
0.00180056
-0.00138207
-0.000309708
0.00169178
-0.00591248
0.00128554
0.00462667
0.00137617
-0.00145421
-0.000903295
0.00307214
-0.00172003
0.00109512
0.000624904
-0.00359264
0.00295424
0.000734894
-0.00156145
0.000431518
-0.00458451
0.00784361
0.00825968
-0.00663025
-0.00167279
-0.000533844
0.00080919
-0.00438478
-0.00111468
0.00490079
-0.000408382
0.00172681
-0.000334249
-0.00139257
-0.00725447
0.0059089
-0.00814562
-0.000713003
-0.00151732
5.76663e-07
-0.000127282
0.00205599
-0.00192877
0.00206689
-0.00105318
-0.00472644
0.00170378
0.000746782
-0.00257103
0.0089644
-9.30242e-05
-0.00475181
-0.00116097
-0.00207473
-0.000607845
0.00268248
0.00246739
-0.00922101
0.00662594
0.00822035
0.000231294
-0.00845878
-1.02891e-05
-0.00254391
0.00255413
0.00837344
0.000157799
0.00164743
-0.00246022
0.000812762
-0.00159644
0.00251937
-0.000922964
0.00896115
-0.00324377
0.00210914
-0.00872814
0.00647862
0.00333694
0.00237836
-0.00572136
0.0039729
-0.00408158
0.000107415
-0.000917931
-0.000980984
0.00476829
-0.00186683
-0.0029021
-0.00460403
0.00462417
-2.15596e-05
-0.00263808
-0.0037795
0.00640969
0.00227513
-0.000484336
-0.0017908
-0.00173022
0.00562209
-0.00281336
0.000989897
0.0018234
-0.00165957
0.000299394
0.00187943
-0.00200677
0.00564867
0.000711668
-0.00636393
-0.00305278
0.00445977
-0.00140686
-0.00318674
0.00355003
-0.000377173
-0.000473838
0.00362181
-0.000804532
0.00420407
0.00333898
4.99102e-05
-0.00348603
0.00704251
0.00221636
0.00175963
-0.00397709
0.0103225
-0.00874205
-0.00165563
-0.00465175
0.00185995
-0.00235358
-0.00235942
0.00471123
0.000378416
-0.00155082
0.00117241
0.00240516
-0.00369954
0.00129385
0.00907423
-0.00519081
-0.00390441
-0.00111421
-0.00141091
0.00252509
0.00436235
-0.00379486
-0.000568517
-0.000140404
0.00186722
-0.00170443
0.00155328
-0.000686684
0.00233409
0.00910486
-0.000715098
-0.00846302
-0.00400394
0.00254968
-0.00523958
0.00291897
-0.00663782
0.00897863
-0.00566829
0.000603354
0.000208483
-0.00471492
0.0045039
0.00145638
0.000891248
0.0029197
-0.00122084
-0.001699
0.000320573
0.00195455
0.00307282
0.00154963
-0.00462496
0.00235375
0.000125679
-0.00247966
0.00319834
-0.0018582
-0.00134021
0.00164677
0.000462523
0.000354385
0.00209853
-0.00245305
-0.00196087
0.00809679
-0.00624301
-0.00280215
0.00281104
-8.9026e-06
-0.00201918
0.00372762
-0.000315832
-0.000415543
-0.00527145
-0.00547592
-0.00254618
0.000322693
0.00222338
0.000459126
0.0012963
-0.00175545
0.00735485
-0.00497784
-0.00238693
-0.000961872
0.000783079
-0.00363977
0.00487473
-0.00123645
-0.000632473
0.00460398
-0.000607576
-0.00127484
-0.00165458
-0.000764326
0.00241884
0.00476818
-0.0086702
-0.00902099
0.000225432
0.00461036
-0.00244908
-0.00255073
0.00157382
0.000976897
-0.000782443
0.00899035
-0.00126001
-0.000916719
0.00217672
-0.00146797
0.00197996
-0.000511993
0.00363563
-0.0012822
0.00330778
-0.00885414
-0.00160218
0.00249843
-0.000896262
0.00244901
-0.0045889
0.00213851
-0.00171144
0.00180631
-9.4876e-05
0.000128634
0.00664547
-0.00684285
0.00185631
0.000417054
-0.0019688
0.0109881
-0.00360712
0.0019606
0.001646
-0.00195831
0.000659649
0.00176032
-0.00162642
-0.000133898
-0.000685104
-0.00123666
0.00192176
-0.00670943
0.00376327
-0.000526726
-0.00209701
0.00262369
-0.0060907
0.0034458
-0.00670504
0.00983538
0.0022346
-0.000737533
-0.00129147
0.00369608
0.00473526
-0.00166508
0.000535374
-0.00214409
0.0016087
-4.75887e-05
-0.00142038
-0.00165419
-0.00269598
0.00390536
0.00208159
-0.00540909
0.000602237
0.001305
0.00158262
-0.00175689
0.000174274
-0.00318101
-6.19085e-05
0.00507317
0.00331549
-0.00858437
-0.000248624
0.00156872
0.000878043
0.00191519
-0.00279348
0.000246621
1.13023e-06
-0.000287094
-0.00232897
-0.000759674
0.00308854
-0.00196102
-0.0017003
0.00366074
0.000592238
-0.00364492
0.00385699
-0.00487168
0.00101177
0.000234074
0.00327412
-0.00242082
0.00485214
-0.00243273
0.00101602
0.000553892
-0.00156991
0.00726851
0.00130032
-0.00863258
-0.00391372
0.000741845
0.0031714
-0.00288857
0.00279969
8.88624e-05
0.00708195
0.00112986
0.00742961
-0.0095507
0.00462032
-0.00278525
-0.00183598
0.0020566
-0.00127231
-0.000784286
0.00175254
0.00301507
0.00378929
-0.00358283
0.00613314
-0.00189653
-0.000514003
0.000491924
-1.162e-05
-0.00117308
-0.000546946
-0.00264225
0.00177596
0.000866259
0.00305335
-0.000647451
-0.00240598
0.00188176
-0.00874657
-0.00194707
0.00129504
0.000652032
0.00133012
0.000445858
-0.00177598
-0.00221411
-0.000599291
6.07238e-05
-0.00186428
-0.00175253
-0.00276932
-0.00421439
0.0013272
-7.67119e-05
-0.00178623
-0.00285111
0.00447393
-0.0016242
0.00198623
-0.00106779
-0.000918441
0.00265967
0.000572756
-0.00323277
0.0053202
0.00231502
0.000672112
-0.00232675
-0.00293064
0.00507018
0.00383463
-0.00261783
-0.00182001
0.0013885
0.000598749
-0.00198728
-0.00543442
0.00546296
-0.000200084
0.00100845
-0.00212268
0.00395819
0.00338474
0.000198392
-1.86252e-05
0.00706415
-0.0037637
-0.00330555
-0.00344732
-0.00115808
0.0023407
0.00211929
-0.0022406
-8.8446e-05
0.00593498
-0.00219341
-0.00374442
0.000992787
-0.00787709
0.00683089
0.0018912
0.000961435
-0.00285273
0.00190364
-0.00136828
-0.00128715
-0.00135512
-0.00756028
0.00761028
-0.00144486
0.00283044
-0.00138563
-0.00595829
0.0069097
-0.000944807
0.0084663
-0.00752963
-0.00321682
0.0103852
0.000452021
-0.00204848
-0.00202927
0.000829363
0.000867862
-0.00210564
-0.00150191
-0.00178627
0.00563989
0.00740547
0.00283302
-0.00406132
0.000420285
-0.00534173
0.00863297
-0.00330943
4.84277e-05
-0.000958819
0.000910392
0.00320679
0.00115443
0.00242789
0.00219658
0.00985416
-0.00864392
-0.00130722
0.00984909
-0.00246046
0.00216319
-0.00108397
-0.00107923
-0.000451358
-0.00114231
0.00159367
-0.00653949
0.00850969
0.00129933
-0.000170923
-0.00162222
-0.00102787
0.00241634
0.00772228
-0.0112142
0.00340954
0.00192745
-0.000657556
0.0107064
-0.000967825
0.000235519
0.0015248
0.00399248
0.00407252
-0.00810167
-0.000919528
0.00292656
-0.00200714
0.000733468
0.00456384
-0.00530184
0.00143349
-0.00164022
0.000206727
0.00755497
-0.00191091
0.00327569
-0.00139632
-0.000259556
-0.00158357
0.00184312
0.00176193
0.00529662
0.00268637
-0.00180854
0.00230117
-0.000160793
-0.00214043
0.00915679
-0.00413585
-0.00504415
0.00199202
-0.00147407
-0.000517947
-0.000871318
-0.00193084
0.00140869
-7.85611e-05
-0.00281984
-0.00350363
0.00632192
0.00126642
-0.00157079
0.000304373
0.00430884
-0.00533104
0.00101682
-0.00207479
0.000538743
0.00153604
-0.00249206
0.00223249
0.00385528
-0.00153159
-0.00232392
0.000909085
0.00294596
-0.000619191
-0.00182962
-0.000282797
-0.00364491
0.00389654
0.0024328
-0.00478803
0.00149214
0.000497589
0.00888506
-0.0018304
-0.00707245
-0.00453586
0.00764835
-0.00312462
0.000926564
0.000867047
-0.00255111
4.84465e-06
0.00777653
-0.0103139
0.00250856
0.00137979
0.00181846
-0.00207051
0.000853359
0.00073676
-0.00604865
0.00495214
0.000344821
-0.0017269
0.000492916
-0.00244597
0.00195297
-0.00568642
7.50136e-05
0.002898
0.00619509
-0.0092594
-0.00606138
0.000134534
-0.00620964
0.00818755
0.00278457
-0.000893465
-0.00157218
-0.000654997
0.00222716
0.00185959
-0.00249922
0.000639638
0.000631451
0.00153174
0.00735323
-0.0107993
0.00338203
-0.00318171
-0.000732376
0.000830061
0.000721239
-0.0015513
0.00521837
-0.000587765
-0.00463284
-0.00189287
0.000772627
0.0012136
-0.00183076
0.00729157
-0.00320282
-0.00438758
0.000322076
0.00273117
0.0081439
-0.0014125
-0.00689549
0.00239462
-0.000538344
-0.00776592
0.00635919
0.00159511
-0.000161614
-0.00369495
0.0017334
-0.00722366
0.00763286
-0.000426377
-0.00319426
-0.000910694
0.00406417
0.00239612
0.00221303
-0.00267183
-0.00133256
0.002818
0.000617193
-0.00343584
0.000412206
-0.00145001
0.0010378
-0.000910132
-0.00116466
-0.000184966
-0.00152647
-0.00449914
0.00207715
0.00380533
6.03382e-05
0.00656931
-0.0016626
0.000443497
0.00113912
-0.00144554
0.00215029
-0.000704765
-0.0118194
0.00451298
0.00726647
0.00193666
0.00133893
-0.00986783
0.00113713
0.00868386
-0.00299826
0.00206836
0.00092978
0.00784851
-0.00389033
0.00318267
-0.00349907
-0.00227148
0.00571199
-0.00345221
-0.00121433
0.0019448
-0.000730479
-0.00645074
0.0041656
0.00103358
0.00102302
0.00161411
-0.0018734
0.000259281
0.00216885
-0.000143934
-0.00202504
0.00266309
-0.00196652
-0.000696578
0.00577999
0.00335448
0.000521327
-0.00212352
0.00107951
-0.00218027
0.00828707
-0.00623497
0.000254587
-5.77476e-05
0.0089172
0.0096471
-0.000822978
-0.00885654
-0.00259233
0.00233409
-0.000627491
4.46869e-05
0.00823614
0.00239271
-0.0106719
-0.000293676
0.00830308
0.00209219
0.000692275
-0.00233164
0.0022151
-0.000589972
0.00185639
0.00239438
-0.00136734
-0.00102705
-0.00177775
0.00165159
0.000126159
-0.00199137
0.00234563
0.002012
-0.00145035
-0.000561655
-0.00160455
0.00165031
-4.57554e-05
0.000112974
0.0051029
-0.00202519
0.00930711
-0.00241297
0.00326675
-0.000854023
0.000467748
0.00553462
0.00280392
0.00262983
-0.00543842
-0.00755434
0.00549949
-0.00225889
-0.000688284
-0.00186246
0.00114448
0.00124988
0.00324765
0.00312475
-0.00637915
0.00237454
-0.00327026
0.000895307
0.00452992
-0.00735135
-0.00238503
-0.0051805
0.00432557
-0.00150835
0.00755255
-0.000261852
-0.00730722
0.00238724
2.29252e-05
-0.00241025
0.00711277
0.00241663
-0.00105174
-0.00123149
0.00135991
0.000567533
0.00154631
-0.00168672
-0.000173136
0.00171945
-0.00304728
0.00283851
0.000208418
-0.000271115
-0.00150663
0.00122179
0.000770229
0.00187725
-0.000800009
-0.00107725
-0.00125495
0.00188018
-0.000625232
0.00467304
-0.00415822
-0.00101581
-0.00226668
0.00430199
-0.00203644
-0.00033577
0.00787202
0.00211803
0.00700038
-0.00914734
0.00046766
-0.00236383
0.0018961
-0.00371109
-0.00159985
-0.000495853
0.00144633
0.00461742
-0.00285299
-0.00176549
-0.00561269
0.0027472
0.00286271
0.000483688
0.0011534
-0.00163709
0.00486596
-0.00714655
-0.00255795
0.00351213
-0.00095454
0.00187135
-0.00153625
-0.000335107
0.00193777
-0.00262509
0.000687251
-0.00170901
0.000783865
0.000925145
-0.00231544
-0.00568135
-0.00617206
0.000307518
-0.00125463
0.00280241
-0.00453516
0.00131489
0.00562389
-0.00156347
0.00235528
-0.000791816
-0.000267487
0.00212708
0.00288958
0.00304224
0.00195483
-0.000604941
-0.00134989
0.00684758
-0.00311832
0.00255989
-0.00303404
0.00067825
0.001199
0.00131821
0.00120114
0.0036216
-0.00145299
-0.00255703
0.000482222
0.00066728
-0.00322555
-0.00375172
-0.000938399
0.00468893
0.00311551
-0.00285256
-0.000263198
0.00292198
0.00150437
-0.00442847
0.00238925
0.000524507
-0.00291396
0.000232454
-0.00243406
0.00445977
-0.00202744
0.00241909
-0.00353949
0.0011199
-0.00119195
-0.000647247
0.00122049
0.000990929
-0.00231972
0.00132873
-0.00458466
0.00698275
-0.00240563
-0.00470088
-0.00564718
0.0102097
-0.00238587
0.00518543
0.000343693
0.00767124
-0.00804088
0.00171561
-0.00123192
0.00178323
-0.00103503
0.0100561
-0.00241845
0.00126591
0.00196145
-0.00163499
0.00239314
-0.000758171
-0.00013713
-0.00146742
-2.79912e-05
0.000436428
-0.000920214
-0.000788797
0.00189616
0.00444709
-0.00636621
-0.000476966
-0.00217863
0.00265542
-0.0117964
0.0051855
0.00653091
-0.00029974
0.0014723
-0.00117257
0.00276214
-0.000546842
-0.00221535
0.0061178
-0.00278684
-0.00143089
0.00691081
-0.00550409
0.00120312
0.000808877
0.00078824
0.00213129
0.000866804
0.000706422
-0.00157323
-0.000633906
-2.60166e-05
0.00186187
-0.000713447
-0.00114843
-0.001656
-0.00115088
0.00239603
-0.00124518
0.00375757
-0.00857357
-0.00172126
-0.000228791
-0.000999858
0.00220336
-0.00120351
0.00498683
-0.000379368
-0.00460969
0.0085882
-0.00584334
0.00613268
0.00201863
-0.00817417
0.00234006
-0.00252089
-0.00047748
-0.00240969
0.00021413
-0.00327062
0.00929213
-0.00103874
-0.00205774
0.002777
0.00198407
-0.00334948
-0.00165247
-0.000294595
0.00230103
-0.00183344
0.00509734
-0.00118
-0.00191565
0.00309551
-1.89923e-06
0.000861154
0.00572135
-0.00150292
0.00363342
-0.0012593
-0.000154171
0.00195062
-0.00179646
-0.00328327
-0.0018566
0.00513659
-0.00844899
-0.000357765
0.00109459
0.00850479
-0.00788539
0.00824879
-0.00036029
-0.00217878
0.00196972
-0.000322957
-0.00432099
0.00473661
-0.000505988
0.00780367
-0.00786402
4.91468e-05
0.00270923
0.00511739
-0.00219779
0.00409323
-0.00336311
-0.0116099
0.00589363
-0.00700133
0.00203146
0.00495522
0.00494573
0.000616966
-0.00556915
0.00393874
-0.00152021
0.00224405
5.70482e-05
-0.00240096
0.000837472
-0.00325066
0.000243723
-0.00266324
0.00241911
-0.00236036
0.00159598
0.00416711
-0.00173993
0.00205379
0.00657546
-0.00870125
-0.000935365
0.00195139
-0.000263678
0.00175889
-0.00630498
0.00538455
-0.00678092
0.00138112
-0.00126247
0.00225335
0.00359358
-0.00308537
-0.000508615
0.00208501
-0.00115316
-0.00131354
0.00238576
-0.000448064
0.00262142
0.000190171
-0.00281196
0.00115487
-0.00160221
0.000447334
0.00248539
-0.00224203
0.0055595
-0.00214348
-0.00341716
-0.00363623
-0.00197888
0.00267366
-0.00590742
0.000250892
-0.00153805
0.00146613
0.00103672
0.000792878
-0.0018296
0.00898595
-0.00190945
-0.00483508
-0.000741265
0.00557154
0.000651869
-0.00256765
0.00191768
-0.00114505
0.000991123
0.000579669
-0.00207077
-0.00225441
-0.00287414
-0.000173411
-0.0069921
0.00328061
-0.00380728
-0.00259083
0.00638699
-0.00700472
-0.00463769
-0.00354167
0.0037582
-0.000217005
-0.00242292
0.00828625
-0.00217482
0.00462242
-0.00214182
-0.00099366
0.00203037
0.00158406
-0.000717256
-0.00787986
0.00403696
0.00382967
0.00339688
-0.00083731
-0.000154356
0.00291642
0.00661703
-0.00465901
-0.00196261
-0.00338524
0.00946252
-0.00608425
-0.00191087
0.000831493
0.00107938
-0.00128746
-0.00111723
0.00240466
0.000707353
0.00135445
-0.00206182
0.00315836
-0.00278008
-0.000378437
0.000339905
-0.00519827
-0.0011324
0.00147722
0.0047083
0.000660067
0.000925307
0.00399027
0.00114805
-0.00514252
-0.00438402
0.00218286
0.00220044
-0.00143047
0.00513883
0.00387356
-0.000671058
-0.00129468
0.00229141
-0.00099674
-0.000293559
0.00340881
-0.00574991
0.00302582
0.00272034
0.0018644
-0.00161352
0.00101742
0.00554655
-0.00658074
0.000429587
-0.00168454
-0.00308714
-0.000129704
-0.00507342
0.000682364
0.000805386
-0.00225028
0.000720834
-0.00200831
0.00209197
-0.00238093
0.000288953
0.00626345
-0.00526185
0.00492334
0.00412552
0.000226915
0.00756319
-0.00467365
0.00174073
-6.76256e-05
0.0015214
0.00181727
0.00248322
-0.00630114
0.00184907
0.0017722
-0.002194
-0.00677869
-0.00507997
0.00126588
-0.00179264
-0.00208104
0.00360206
0.00215357
0.000953956
-0.00310762
-0.0108648
0.0044097
0.00637605
-0.00242361
0.00282838
-0.000404987
-0.00760346
0.000114605
0.0014995
-0.00385836
0.00305289
0.000255083
0.00333804
-0.000330583
-0.00450867
-0.00390784
9.82355e-05
0.00342203
-0.0080013
0.00999436
-0.00213601
-0.00835252
0.00168125
-0.00339492
0.00305164
0.000343029
0.00096934
0.00494326
0.00318122
-0.000689341
-0.00249201
-0.00105295
0.00146515
-0.0018555
0.00407077
0.00505149
-0.00464998
0.00354153
-0.00123826
-0.00230351
0.000231855
0.00186011
0.000885035
0.00156885
-0.00245394
0.00935455
-0.0021523
0.00374692
0.00170102
-0.00544917
-0.00918698
0.00574878
0.00583827
-0.00541247
-0.000431884
-0.00624321
-5.05601e-05
-0.00181405
0.000814183
-0.00324857
5.03934e-05
-0.00163792
-0.00410221
0.0062075
-0.00211183
0.00278269
-0.00265686
-0.000644432
0.00345056
-0.00280672
-0.00125962
0.00179567
-0.000536056
0.00318272
-0.00320592
2.27741e-05
0.00900061
-0.00289421
-0.00113798
-0.000591981
0.00172996
-0.000785396
0.00177652
0.00221215
0.00692677
-0.0091812
-0.00250756
0.00787632
-0.00145592
-0.00125317
0.00270904
0.00234412
0.000814028
-0.000760713
0.00342004
-0.000683759
0.000605365
-3.2865e-05
-0.00622285
0.00476772
0.000523038
0.00240338
-0.000933328
-0.00630343
-0.00364179
0.00425819
0.0021549
0.00246427
0.00074094
-0.00887209
-0.00345661
-0.00136241
0.00481756
-0.00137401
-1.60923e-05
-0.00743455
0.00738609
0.00688418
-0.00891843
0.00200279
-0.000961368
-0.00257399
0.00319787
0.00123172
-0.00168308
-0.00166921
0.000138757
-0.00350582
0.00674616
0.00153261
-0.00115419
0.00727369
-0.00353156
-0.00375259
-0.00166861
0.00238943
-0.00689494
0.00310749
-0.00285596
0.00358131
-0.00331811
-0.00239078
0.00437959
-0.00198983
-0.00935169
0.00604821
-0.00284646
0.00477875
-0.0019335
-0.00306076
0.000278721
0.00231046
-0.00160456
-0.00200706
0.00361116
-0.00441569
0.00628941
0.000276053
0.00159529
0.00171664
-0.000843816
-0.000872825
-0.00150496
0.00135079
0.000314687
-0.0014535
-0.00459868
0.00229754
0.00186878
0.00294435
0.00124834
-0.0041943
-0.00170192
0.000678858
0.00102306
0.000894388
0.000819578
-0.00171397
0.00366144
-0.0038544
0.00740955
-0.0105149
0.00306246
-0.000696444
0.00278852
-0.00205973
-0.000321208
-0.000274241
0.00242773
0.00249362
0.000687435
0.00232621
-0.00446628
0.00213856
-0.0015601
0.00220953
-0.000649441
0.000781077
0.00338056
-0.00416375
0.00323704
0.00183018
0.0031889
-0.00150914
-0.00167998
-0.00219713
0.00251972
-0.000930877
0.00459083
0.00156596
0.000590661
-0.00215662
-0.00341137
-0.00148818
0.00489793
-0.00339127
0.00781892
-0.00444806
-0.002823
-0.00156164
0.00562965
-0.00387209
-0.00285048
-0.00658067
0.00932703
-0.00077578
0.00660709
0.00452522
-0.00209072
-0.00361779
0.00599022
0.00690548
-0.010392
0.00340533
0.000868518
-0.00218706
0.00450533
-0.00231949
-0.00722698
0.0018112
0.00539838
-0.000222258
-0.00342023
0.00925137
-0.00186985
0.00882511
-0.00111974
-0.00774743
-0.00167821
-6.31717e-06
0.000185632
0.00735315
-0.00755257
0.00850544
-0.0074376
-0.00133097
-0.00651186
0.00407912
0.00242461
-0.000581742
0.00317777
-0.00289962
0.00104845
-0.00134819
-0.00313014
-0.0014558
0.00458474
-0.000160245
0.00222124
-0.0074682
0.00106277
0.00601845
0.00201642
-0.00209211
4.54591e-05
0.00412743
-0.000502082
-0.00362576
-2.16911e-05
-0.00373101
0.00231202
0.00502175
-0.00733368
0.00215814
-0.00222008
6.19058e-05
-0.0011019
0.00360522
-0.00250389
0.000501523
0.00189306
-0.0048832
0.00238774
0.000655989
-0.00304404
-0.00788949
0.00181564
0.00604547
0.00088812
-0.00158272
0.000672699
-0.00149296
0.00310615
0.000966652
-0.0063232
0.000931149
0.000610492
-0.00154164
3.97041e-05
0.00194671
0.000764895
-0.00231854
0.0015536
-0.00544775
-0.00106974
0.00154349
-0.000713426
0.00352125
-3.60642e-05
-0.00348609
0.00196435
-0.00306674
0.00321129
-0.000428805
-0.00356591
0.00884118
-0.00550198
-0.000121699
0.000121699
-0.00398897
-0.000152533
-0.00804892
0.00819525
0.00430546
-0.00892135
0.00459712
-0.00208473
0.00236898
-0.000284291
0.00256332
-0.00777303
0.00619465
-0.00572827
-0.000494334
-0.0058891
0.00305964
0.0028238
-0.00845923
0.00590903
0.00231463
-0.00277677
-2.61673e-05
0.0022822
0.00364259
0.00486549
-0.00103032
-0.000671607
-0.00314259
-0.00209946
0.00523878
0.00614259
-0.00621251
0.000989757
-0.00242625
0.00116017
0.000757505
-0.00248604
0.00331194
-0.0093748
0.00603144
0.00736893
0.00158944
-9.71419e-05
0.00225525
-0.000912433
-0.00174568
0.00265805
0.00144311
-0.00172131
0.000278194
0.00305439
0.00250391
-0.00727418
0.00386287
-0.00460448
0.00253967
-0.000491361
-0.0027723
-0.00446031
0.00202454
-0.00493185
-0.0027927
0.00121601
0.0015766
-0.0059339
0.00242938
0.000141015
-0.00161509
-0.00297928
0.00798075
-0.00502758
-0.00744164
0.00336545
0.00406859
0.00124149
4.42811e-05
-0.00128577
-0.0102572
0.000340598
-0.00574764
0.00115682
-0.00703139
-0.0023072
0.00929133
0.00196918
-0.00198443
-0.000269557
0.00453699
-0.00262634
-0.00150634
0.00384713
-0.00580811
-0.0017523
0.0075349
0.000274259
-0.00194289
-0.00171897
0.000803631
0.000915341
-0.00381744
-0.00556528
0.00650009
-0.00819533
0.00151332
-0.00281887
0.00381398
-0.000995446
-0.00159552
-0.00067375
-3.35239e-05
-0.00149085
-0.000742008
0.0022328
-0.00174086
0.00804935
0.00211866
0.00684733
0.00108506
-0.00801243
0.00312717
-0.00955394
0.00632568
-0.000219945
0.00914375
-0.00811976
-0.00107961
-0.0022402
0.000459638
0.003751
-0.00404815
0.000294941
0.00173777
-1.57101e-05
-0.00172902
-0.00534604
-0.00185907
0.00690041
-0.00964868
0.00657866
0.00306573
0.0112249
-0.0043489
-0.00696453
-0.00153699
0.00838683
-0.00086305
0.00192577
-0.00106273
-0.00659485
0.009454
-0.00293022
-0.00999875
0.00340664
0.00648419
-0.00081638
0.00194188
-0.0011255
-0.00120941
-0.00125081
-0.00259844
-0.00315444
-0.00229722
-0.00391235
0.00161169
0.00229987
-0.00693797
0.00444386
0.00248382
0.00252621
-0.0091534
0.00650726
-0.00144337
-0.00410363
0.0012543
0.0011582
-0.00276312
0.00646705
0.000139899
-0.00665147
-0.00183141
0.00870768
0.00178297
-0.00088859
0.00595422
-0.00372575
-0.00223122
-0.00187897
0.000567248
0.00131172
3.82487e-05
-0.00494274
-0.00172899
0.000586676
0.00383942
0.00169724
-0.00554001
-0.00196277
0.0080848
0.000853674
0.000705694
-0.00155937
-0.00161065
-0.000174242
0.00178489
0.00428836
0.00683989
0.00180964
0.00137898
0.00118719
-0.00298815
-1.91606e-06
0.00908179
-0.00195491
-0.00578977
0.00187189
-0.000576851
0.00248174
0.00574004
-0.00290715
-0.00681645
-0.00132935
0.00143693
-0.00545525
0.00400611
-0.00272612
0.00224897
0.00103857
0.00230292
-0.0060225
0.00932606
-0.00339515
-0.00303544
-0.00174212
0.00477734
-0.00484235
0.00462993
0.000109601
-0.00124752
0.00327509
0.00373531
-0.00715456
0.00268753
-0.0060222
0.00560473
0.000386688
-0.00269344
0.00015728
-0.00271738
-0.00143656
-0.000168699
0.00160526
-0.00249569
0.000950509
0.00154516
0.00570434
-0.00195901
0.00212664
-0.00163379
0.00111181
0.000537056
-0.00164887
0.00706332
0.00274431
-0.00164044
0.000508044
-0.000640393
-0.0014195
-0.000412729
0.00152454
0.00209716
-0.00128814
-0.000809023
-0.00184759
0.0010312
-0.000707272
0.00186214
0.00168403
0.00185726
-0.00640856
0.00840414
-0.00188938
-0.00205816
0.00589404
-0.00203335
0.000587812
-0.006522
0.0101437
0.00991617
-0.00648311
-0.00563369
0.00891361
-0.000222941
-0.00531117
5.19243e-05
0.00525107
-0.0036079
-0.00159101
0.00519737
0.00154162
-0.000145898
-0.00139572
0.00319434
0.0066402
7.42884e-05
-0.00731526
0.0072277
0.00169622
-0.00088112
-0.000815099
-0.00248116
0.000235803
0.00224526
-0.00427386
-0.00537482
0.00438639
0.00621435
-0.00286742
-0.00335182
-0.00964768
0.00667857
0.00292872
0.000153384
0.00156325
0.00174502
0.00264158
-0.00471157
-0.00230927
0.00701558
-0.00416379
0.00558889
-0.000950595
-0.000768378
-0.000317354
0.00155884
-0.00175336
0.000103948
-0.00172845
0.00848866
-0.00208755
0.00287562
0.00312377
-0.000502723
0.00143313
-0.0016977
0.000264567
0.000546295
-0.00250213
-0.00137304
0.00387458
-0.00610072
-0.00596517
-0.00194996
-0.00737478
0.0043718
0.00221126
-0.00364175
-0.00682834
0.0018675
0.0023425
-0.00118893
0.00612905
0.00271916
-0.00193932
-0.00093395
-0.00102643
0.00196038
0.00117889
-0.00331493
0.00213572
-0.00849655
0.00553485
-0.000882862
-0.00112597
-0.000819301
0.00194527
0.00262877
0.00156764
0.00698138
-0.00856214
-0.00126733
0.00187321
-0.000605887
-0.00226465
0.0095926
-0.00358784
0.00787311
-0.00329252
-0.00111939
0.00441162
0.00153407
0.000420755
-0.000242444
-0.00681753
-0.00412265
-0.00113477
-0.000955042
0.00208981
-0.000110646
0.0022372
0.00259286
-0.000540364
-0.00205256
0.000719559
-0.00283189
0.00211199
0.00186485
-0.00122087
0.00217568
-0.00731074
0.00505753
0.00230852
0.000319945
-0.00262861
-0.00666463
0.00821959
0.0102139
-0.0050795
-0.00526156
-0.00944895
0.00605762
0.00084968
-0.00241317
0.00149135
-4.82324e-05
-0.00339523
0.00948687
-0.0061885
0.001771
-0.00741456
-0.00929364
0.00221737
-0.00236841
0.00700265
-0.0046082
0.00634133
-0.00173852
-0.00850502
0.008346
-0.00166805
0.0094137
0.00314579
0.00285187
-0.00895779
-0.00378584
-0.00276051
0.00276439
-3.99927e-06
-0.00151383
0.00197208
-0.000458251
-0.0023287
0.00935753
-0.000660277
0.00316201
-0.00250215
-0.0024881
-0.00540211
-0.000349391
0.0018217
0.000303683
-0.00142966
-0.000388298
-0.00137283
-0.00231262
-0.00160043
-0.00181386
0.00020321
0.00117104
-0.00181382
0.000599484
0.00272847
0.000291698
0.00542545
-0.00323844
0.00298957
0.00155642
-0.00454789
-0.00194398
0.000685286
-0.00232029
0.00286513
-0.00240284
-0.000462365
0.00248922
-0.0028933
0.000403886
0.0022169
-0.000902899
-0.00131402
-0.00348244
0.00316489
-0.000105038
-0.00258026
-0.000277379
0.00285753
0.00941484
-0.00639401
0.00366237
0.00196369
-0.000738918
-0.00122169
0.0019606
-0.00637373
0.00846517
0.00285309
-0.000158728
-0.00590598
-0.00222938
0.008114
-0.00991204
0.00199148
0.00788346
0.00052477
-0.00145872
0.00296515
-0.00910212
0.00584308
0.00133025
-0.00808844
-0.00409032
0.00431842
-0.00161411
-0.00270561
-0.00220471
-0.00236562
0.00456881
-4.87574e-07
-0.00205924
-0.00191957
0.00353287
-0.0016136
0.000912145
-0.00153728
0.000625138
-0.00463137
0.00234442
0.00330235
0.00264868
0.00590338
0.000742199
0.00251614
-0.00267314
0.00183344
0.000839667
-0.00160447
0.000212933
-0.0036198
0.00691531
-0.00330587
0.00685527
-0.0100438
0.00309669
-0.00194534
0.00111676
0.000828578
0.00259081
0.006189
0.00276623
0.000282239
-0.00308529
0.00280261
0.000894798
-0.00418074
0.00268397
-0.00711806
0.00440044
-0.00671349
0.00139398
-0.00722767
-0.00271748
-0.00173882
-0.000267696
0.000267696
-0.00229736
0.00462202
-0.00267918
0.000135213
0.00699623
-0.000866273
-0.00359611
0.00446133
0.0110392
-0.00850769
-0.00262054
-0.00124932
-0.00250144
0.00375019
-0.00341506
-0.000135941
0.000817253
-0.00411853
0.00185075
-0.00229638
-0.00494589
0.0019123
-0.00801029
0.006055
0.00631174
-0.00980711
0.0019902
-0.00099954
-0.000990664
-0.00346638
0.00372648
-0.000260696
0.00251221
-0.000526733
-0.0019855
-0.00642831
0.00878742
0.00275657
0.00462224
-0.00741273
-0.00404365
0.00709269
-0.00944744
-0.00396186
0.00217842
0.00178285
-0.000346277
-0.00312064
-0.00417276
0.00682433
-0.00369745
0.00199662
0.00740399
0.00352782
-0.00234142
6.35339e-05