/*--------------------------------*- C++ -*----------------------------------*\
| =========                 |                                                 |
| \\      /  F ield         | OpenFOAM: The Open Source CFD Toolbox           |
|  \\    /   O peration     | Version:  v2012                                 |
|   \\  /    A nd           | Website:  www.openfoam.com                      |
|    \\/     M anipulation  |                                                 |
\*---------------------------------------------------------------------------*/
FoamFile
{
    version     2.0;
    format      ascii;
    class       volVectorField;
    location    "400";
    object      U_0;
}
// * * * * * * * * * * * * * * * * * * * * * * * * * * * * * * * * * * * * * //

dimensions      [0 1 -1 0 0 0 0];


internalField   nonuniform List<vector> 
13917
(
(1.07485 0.136073 -1.85483e-21)
(1.01589 0.0445667 1.38369e-21)
(0.540703 -0.120593 -4.46639e-20)
(1.0566 -0.0104019 1.42543e-20)
(0.995892 -0.00130579 0)
(0.358948 0.023321 -1.02877e-20)
(0.511837 -0.129226 0)
(0.509925 -0.0929547 0)
(0.281563 0.0413022 -6.99714e-20)
(1.10528 0.169966 0)
(1.17745 -0.140533 9.38328e-20)
(1.09509 -0.0788425 1.30881e-21)
(1.05698 -0.0112896 1.0008e-20)
(-0.30969 0.0300109 -9.75745e-20)
(0.961346 0.0901985 0)
(0.984497 0.087807 0)
(1.00956 0.048954 0)
(1.15687 0.0518857 -1.08006e-20)
(1.09265 -0.076716 1.49289e-21)
(1.001 0.0035006 -5.53238e-22)
(0.999959 0.00069442 -4.21679e-21)
(0.490456 -0.12601 1.3136e-21)
(1.00009 0.00536841 7.72688e-21)
(0.571328 -0.104583 -1.03459e-19)
(0.992996 0.0106446 4.0774e-21)
(0.608124 -0.153228 0)
(0.780559 0.015323 0)
(0.75028 0.100611 3.53414e-20)
(0.719148 0.528561 -5.16233e-20)
(1.16381 0.140805 1.92455e-20)
(1.09025 0.130362 1.9451e-20)
(1.04798 0.0986626 -4.45344e-21)
(0.832148 0.0533568 -4.90382e-20)
(0.910139 -0.00894122 -2.00624e-20)
(0.989809 0.00690571 -7.74607e-21)
(1.17414 -0.228534 0)
(1.00009 0.00500371 0)
(-0.0943882 0.00395335 0)
(1.06322 -0.01749 -1.65366e-20)
(0.447418 0.00382236 4.68708e-22)
(1.00734 0.000775364 0)
(0.999987 0.000344243 7.24445e-21)
(1.02114 0.00329708 1.09921e-21)
(0.693699 0.178621 -8.52306e-20)
(1.03745 0.0291317 0)
(0.890228 0.00335385 4.79634e-20)
(1.15527 0.0483865 0)
(1.18428 0.00846368 4.34521e-20)
(0.104549 0.105986 -2.57472e-19)
(1.00274 0.000634791 2.39047e-21)
(1.09124 0.0225328 0)
(0.964178 0.00350486 9.46589e-21)
(0.0778099 0.0828222 3.35702e-19)
(0.905392 -0.00803534 0)
(1.00821 0.0497893 4.70798e-21)
(1.08555 0.0512113 -1.95156e-20)
(1.18086 -0.135813 -6.83036e-20)
(0.991767 0.027084 1.24611e-20)
(1.06873 0.0554315 -1.05163e-20)
(1.03597 0.028505 -4.9977e-21)
(0.581742 0.0791965 0)
(1.01746 0.0448808 -3.26439e-22)
(-0.230182 0.0350853 7.73963e-20)
(1.00105 0.00378954 -2.6074e-21)
(0.384083 0.0361067 2.76022e-20)
(1.14213 0.383804 -5.64029e-20)
(0.9955 -0.00542589 8.17781e-21)
(0.988192 -0.00739169 -1.56206e-20)
(1.26424 -0.0338979 0)
(1.04213 0.142836 0)
(0.996274 -0.000963587 -1.77262e-22)
(0.324987 0.0364431 0)
(-0.164309 0.0413713 0)
(0.993601 0.0102998 -3.92131e-21)
(0.106967 0.178672 0)
(1.06887 -0.0847396 0)
(-0.269674 0.0345796 -6.06976e-20)
(1.05328 0.033133 5.85186e-21)
(0.708612 -0.154251 -3.43987e-21)
(0.999834 0.00128893 4.9065e-22)
(0.999949 0.00216179 -1.3163e-22)
(0.99604 -0.00508894 -8.30478e-21)
(0.403083 0.098427 0)
(-0.0540363 0.00036295 0)
(-0.0272904 0.0361352 -1.389e-20)
(1.05234 0.0317169 2.06181e-20)
(1.00012 0.00283382 6.12125e-21)
(1.22283 0.431498 8.27703e-20)
(1.08911 0.0221473 0)
(1.02162 0.00331756 -4.97581e-21)
(-0.146565 0.0373686 -3.14826e-20)
(1.1382 0.162926 0)
(1.02075 0.0263236 6.35275e-22)
(0.967589 0.0495713 0)
(1.18806 0.433117 -9.64808e-20)
(0.385714 -0.0378914 0)
(1.20793 -0.0749916 -9.3721e-20)
(1.17634 0.0228533 8.8383e-22)
(1.06495 -0.124162 -2.19607e-20)
(0.604883 0.102904 1.25529e-20)
(1.01007 0.00626327 3.95224e-22)
(0.844362 -0.014245 4.36595e-20)
(0.684477 0.164215 1.03023e-19)
(1.06238 0.0260246 9.53186e-21)
(1.01499 0.0138041 4.54805e-22)
(0.338695 0.0482259 0)
(0.793517 0.46991 4.67799e-20)
(1.18916 0.00900505 1.72112e-20)
(1.01136 0.0497667 1.5116e-21)
(1.08681 0.143565 2.17985e-20)
(-0.0768353 0.0326822 0)
(0.446059 -0.00313592 1.2984e-21)
(1.09243 -0.0978914 -2.42701e-21)
(0.311068 0.0473053 0)
(0.947113 0.00139466 0)
(0.0848179 -0.150063 7.84712e-20)
(0.998957 0.0107153 -1.04439e-20)
(0.198482 0.0627869 -1.76189e-19)
(0.0136461 -0.00257861 -5.88065e-20)
(0.905529 0.00471144 0)
(0.999978 0.000636593 -8.39977e-22)
(1.26325 -0.0289473 3.64478e-20)
(-0.0710044 0.000864677 -1.1224e-20)
(0.759531 0.0943087 2.65414e-20)
(1.00417 0.00059341 -2.20662e-21)
(0.969257 0.0470656 0)
(1.03207 0.0324773 -1.76514e-21)
(1.00385 0.000476367 1.95378e-21)
(1.01822 0.00229656 2.32253e-21)
(0.359847 -0.023668 0)
(0.0932384 -0.0370636 0)
(0.949678 0.000575414 -2.81856e-20)
(1.03766 0.0302431 -6.02928e-21)
(0.999969 0.000545438 0)
(1.07581 0.116842 5.22291e-20)
(0.592586 -0.115458 1.00559e-19)
(1.07153 0.139717 0)
(0.581277 0.103463 3.80602e-20)
(0.995139 -0.0051556 7.44603e-21)
(0.906931 0.000492505 0)
(1.18821 -0.210096 0)
(1.02382 0.0157309 -2.81244e-21)
(0.959788 0.015858 -4.0056e-20)
(0.647444 0.173632 5.12127e-20)
(0.987456 -0.0070639 2.07142e-20)
(0.488882 0.0312231 5.58735e-22)
(0.78565 0.532936 0)
(0.966034 0.00398887 -1.63302e-20)
(1.02265 0.0133541 1.12372e-21)
(1.04136 0.106505 0)
(1.15055 -0.0274146 -7.65436e-20)
(0.0925925 -0.182919 -8.34945e-20)
(1.15024 -0.0857754 -7.27175e-22)
(1.00223 0.177228 0)
(1.07029 0.0761857 -1.73628e-21)
(-0.00581293 0.0756184 9.72257e-20)
(1.03831 0.139395 0)
(1.03078 -0.104869 5.4641e-20)
(-0.299621 0.0334558 8.5407e-20)
(1.08279 0.116169 4.15113e-20)
(0.935244 0.0367471 0)
(0.78467 -0.0449556 -5.19155e-21)
(0.999962 0.00154315 0)
(1.20164 -0.0753787 9.85425e-20)
(1.09561 -0.0961459 -8.31671e-21)
(1.06947 -0.123481 2.30977e-20)
(1.06124 0.0270341 -9.15352e-21)
(1.16606 -0.00649796 8.9362e-20)
(1.03077 0.0247921 -4.21467e-21)
(0.837688 -0.0190157 7.7771e-22)
(1.02072 0.173046 0)
(-0.19033 0.0321434 0)
(1.08229 -0.102126 3.79905e-20)
(1.00599 0.0578786 0)
(0.626967 0.00115864 -1.7218e-20)
(0.989881 0.194852 -1.46544e-21)
(0.130884 -0.0473174 0)
(0.162047 0.0650358 -1.91723e-19)
(0.534624 0.025901 1.66495e-20)
(1.0092 0.0276701 -3.92265e-21)
(1.14321 0.160646 0)
(1.09523 0.130585 0)
(1.02443 0.0152753 -1.55176e-21)
(1.00008 0.00304277 -7.32755e-21)
(0.924827 0.1052 2.00085e-20)
(0.675857 -0.16862 0)
(1.18939 0.182981 1.01975e-19)
(0.0624653 0.0765587 -2.09897e-19)
(1.11847 0.0643099 1.56982e-20)
(1.09853 -0.128195 -4.7997e-23)
(1.24328 -0.176578 4.83471e-20)
(0.0215603 0.0395815 0)
(1.18003 0.206774 -4.00248e-20)
(0.998927 0.00466403 -8.04142e-21)
(0.561346 0.0361051 7.68199e-20)
(0.791004 0.0177573 -1.04097e-20)
(1.00668 0.000327944 3.66091e-22)
(1.02085 0.0273891 0)
(0.850163 0.408676 5.20931e-21)
(1.1673 0.436403 1.54635e-19)
(1.08177 -0.00149083 -1.78173e-20)
(1.0025 0.000558703 -1.66082e-21)
(1.15555 -0.0119019 1.29005e-22)
(1.14697 -0.0284354 7.0929e-20)
(-0.202482 0.0392086 0)
(1.10989 0.0807499 1.41245e-19)
(0.990261 0.00599928 7.19199e-21)
(0.990932 0.0281668 -1.43428e-20)
(1.17425 0.0183528 5.34209e-20)
(0.632281 -0.159481 3.06602e-20)
(0.961978 0.0162981 3.70974e-20)
(0.47978 -0.122037 0)
(-0.263078 0.0354586 -3.74387e-20)
(1.10246 -0.127177 1.99688e-22)
(1.01453 0.0139989 -2.31086e-22)
(0.487774 0.374437 -2.36047e-19)
(1.16258 0.0141889 2.66263e-21)
(-0.192256 0.0332666 -1.15289e-19)
(1.00041 0.015952 3.32003e-21)
(0.735153 0.10681 3.43598e-20)
(1.00894 0.0265729 3.32996e-21)
(1.16849 0.121971 0)
(1.00715 0.000964368 5.90751e-22)
(-0.102926 0.0109652 -5.80004e-20)
(0.324888 0.0515315 -4.13697e-20)
(0.984876 0.0914066 9.47596e-21)
(1.12755 0.433929 0)
(1.07358 0.07578 0)
(1.01383 0.0133993 -4.84543e-23)
(1.17049 -0.225202 0)
(1.07998 -0.0989761 -5.3325e-20)
(1.11806 0.0610619 6.42469e-21)
(0.620907 -0.12845 0)
(-0.282895 0.0367632 3.07499e-20)
(1.01137 0.00343538 2.42147e-22)
(1.05094 0.100329 0)
(-0.10502 0.0391666 -5.375e-20)
(-0.0764849 0.0417576 8.67893e-20)
(0.999908 0.00167562 0)
(1.00463 0.00812896 2.54172e-22)
(0.570752 0.00174178 -9.73343e-21)
(1.22356 -0.0703584 -1.49184e-20)
(1.00004 0.000118541 5.66793e-23)
(1.12054 -0.198427 0)
(1.19968 0.0699213 0)
(0.794741 -0.0498145 0)
(1.07606 0.122189 -6.33779e-21)
(0.999958 0.00167075 0)
(0.956369 0.195328 -8.88215e-21)
(-0.283427 0.0356254 4.10112e-20)
(1.04197 0.00516722 0)
(1.1507 0.17612 -3.56826e-20)
(0.565187 0.146572 1.41589e-19)
(1.03194 0.0310976 -4.21125e-21)
(0.991348 0.0251753 1.0159e-20)
(1.13506 -0.0703369 0)
(0.556694 -0.0218118 -5.59703e-21)
(1.14704 -0.0829295 2.71233e-20)
(0.925044 0.10976 0)
(0.964233 0.0931288 0)
(1.00003 0.000208089 2.13414e-22)
(-0.099791 0.00952845 -1.21738e-20)
(0.482562 0.0558489 6.73842e-20)
(1.06492 -0.191881 -3.50593e-20)
(1.01331 0.0135801 2.30375e-22)
(-0.158395 0.0420622 1.19991e-19)
(-0.267997 0.0258558 0)
(0.96663 -0.102346 -5.90991e-20)
(0.692471 -0.146919 -6.74836e-22)
(1.06738 -0.0876736 -2.642e-20)
(0.999908 0.00200382 6.43283e-21)
(1.00519 0.000755164 -7.1108e-22)
(1.1575 0.0413643 -4.37417e-20)
(-0.180939 0.024427 -6.01755e-20)
(1.23177 0.0179393 1.2142e-20)
(1.06757 0.0529069 -3.73102e-23)
(1.0402 0.0793659 -2.78428e-20)
(1.07412 -0.0508059 -2.10557e-21)
(1.0182 0.00155624 2.59346e-21)
(0.825089 0.0841883 0)
(1.00134 0.00350577 0)
(0.595808 -0.00121907 -7.36966e-20)
(1.07952 -0.00102515 1.4611e-20)
(1.00006 0.000119448 -1.64569e-21)
(0.98636 0.108375 1.16654e-20)
(0.996515 0.17841 -3.4277e-21)
(0.784376 -0.0324409 4.28609e-21)
(1.12967 -0.206498 -3.30313e-21)
(0.979788 0.141654 0)
(1.04429 0.0128331 1.16256e-20)
(1.23754 0.143275 0)
(0.624686 -0.123495 0)
(0.413242 0.0520796 3.60306e-20)
(1.0002 0.0153114 6.30691e-21)
(0.903858 -0.0656543 -5.96522e-20)
(0.998349 -0.0025671 0)
(1.0444 0.0117375 2.11523e-20)
(0.999193 0.010117 4.94554e-21)
(0.797942 0.570372 3.91785e-21)
(1.00127 0.000646045 2.77353e-21)
(1.17166 0.124038 -4.53944e-20)
(1.07189 0.121043 1.24024e-20)
(1.03049 0.0237339 4.61141e-21)
(1.1564 -0.0160114 -4.94484e-21)
(1.0315 0.0627141 0)
(0.111863 0.0248468 0)
(0.990001 0.190259 0)
(1.13468 0.159452 -2.44131e-20)
(1.0297 0.0170755 0)
(0.992144 0.0241844 -1.31891e-20)
(-0.0934944 0.0317756 0)
(-0.126057 0.0100847 4.73007e-20)
(0.99911 0.0114093 5.97778e-21)
(1.00601 0.000820561 0)
(0.879422 0.0957148 0)
(1.01281 0.0269466 0)
(-0.140973 0.0424751 6.12498e-20)
(1.02872 0.0169421 5.14485e-22)
(-0.0783594 0.011814 2.97926e-20)
(1.04846 -0.00361559 -1.00284e-20)
(1.14102 0.310865 0)
(1.11493 0.0108603 -4.23988e-20)
(0.111739 0.250754 0)
(0.939072 0.0367801 -1.04541e-20)
(1.17207 0.134466 0)
(0.504105 0.270445 7.56171e-20)
(0.989535 0.106759 -1.66174e-20)
(1.22567 -0.0642733 0)
(0.923705 0.479883 -9.45131e-22)
(0.990533 0.0425259 1.31187e-20)
(-0.0159082 -0.0171842 0)
(0.570137 0.0157479 0)
(-0.253436 0.0242296 0)
(0.919625 0.010677 3.29877e-20)
(0.191767 0.00329905 2.12129e-27)
(1.05738 0.0997963 9.31217e-21)
(0.00787517 0.0223273 0)
(0.522806 0.250115 -5.94021e-20)
(0.895184 0.326483 0)
(0.910277 0.322214 -1.15415e-20)
(0.483957 -0.112884 5.52315e-20)
(0.999618 0.00133247 9.78777e-21)
(1.02573 0.176798 5.16246e-21)
(-0.0426845 0.0327905 -4.65965e-20)
(0.979068 0.0257012 0)
(0.99331 0.0721371 0)
(-0.247006 0.0229999 5.57839e-20)
(0.838352 0.440681 0)
(1.01125 0.0554612 -3.47126e-21)
(1.25973 -0.173743 0)
(0.689709 0.503114 5.34974e-20)
(1.00804 0.00516881 7.7146e-22)
(-0.015247 0.0058924 5.29885e-20)
(1.21416 -0.211505 -8.23748e-20)
(1.00141 0.00378234 0)
(1.00754 0.01282 0)
(0.998557 -0.0025213 2.40999e-21)
(1.02313 0.0129814 0)
(1.23323 0.138857 -4.73386e-20)
(0.570521 0.0184205 0)
(0.388519 -0.310224 1.88232e-19)
(-0.0598988 0.031687 -9.54492e-20)
(0.996043 0.0106629 -5.98024e-23)
(1.15537 0.176923 2.03763e-20)
(-0.148153 0.0466983 -9.64934e-20)
(1.13474 -0.00196621 1.44329e-20)
(0.46067 -0.119605 -1.14194e-20)
(-0.139518 0.0225773 -3.44972e-21)
(0.298664 0.0504897 5.35531e-20)
(1.01254 0.00632998 0)
(1.06179 -0.186315 3.19764e-20)
(1.00881 0.0127705 2.91444e-21)
(0.855145 0.126675 7.35293e-20)
(1.03494 0.0291817 4.82362e-21)
(0.0852123 0.295928 0)
(1.19975 0.0744006 -1.94264e-20)
(1.06752 -0.00847758 1.24934e-21)
(0.999412 0.00143971 0)
(1.16955 0.018092 0)
(1.14713 0.163059 -2.1017e-20)
(1.18561 0.048918 0)
(0.319715 1.04286 0)
(-0.0291608 0.0227253 0)
(-0.2176 0.0342744 1.18157e-19)
(0.960178 0.203094 1.24726e-20)
(1.10054 0.16669 2.09434e-20)
(1.00437 0.00763917 0)
(-0.0509714 0.0419013 -1.6725e-19)
(0.503888 -0.132045 3.70825e-20)
(0.995342 0.0321034 -1.19393e-20)
(1.23969 0.145053 0)
(0.9943 0.00615703 1.44857e-20)
(1.26803 0.103415 0)
(1.04854 -0.00297983 -5.46398e-21)
(0.999719 0.00117082 -8.83277e-21)
(1.02633 0.0651324 -1.12227e-21)
(0.85607 -0.116819 0)
(1.02445 0.0651841 0)
(0.584191 -0.0336772 -4.06109e-21)
(-0.0136541 0.0454164 -1.48761e-19)
(1.14549 -0.137405 0)
(0.437938 0.250687 -2.32478e-19)
(0.992344 0.0424155 -1.25611e-20)
(0.490349 0.332891 1.96814e-19)
(0.464217 0.27477 -1.57469e-20)
(1.0008 0.00760154 -3.52024e-21)
(0.80545 0.441287 -4.35735e-20)
(0.980507 0.0254564 0)
(0.992856 0.00797656 0)
(1.16085 0.143101 0)
(1.00006 0.000307698 0)
(0.991893 0.00985018 0)
(1.00908 0.0126325 -3.21692e-21)
(1.21764 0.13386 -2.10149e-20)
(0.999902 0.00107037 -6.23708e-22)
(0.195636 -0.00494319 2.94618e-21)
(0.906222 -0.159607 -1.33349e-22)
(-0.110513 0.0378571 0)
(1.17657 0.210334 3.98794e-20)
(0.468233 -0.064779 5.17896e-22)
(-0.202992 0.0348304 3.6403e-20)
(1.13188 -0.00313192 1.27979e-20)
(0.996466 0.010088 5.85857e-23)
(1.222 0.102082 0)
(1.06316 -0.0160322 3.07402e-20)
(1.05457 0.10658 0)
(0.998831 0.00507171 -8.98862e-21)
(0.512543 0.0229443 -7.05355e-20)
(0.569058 -0.147488 0)
(0.939454 -0.16668 3.80357e-22)
(0.97367 0.0850553 -1.46026e-20)
(1.21291 0.0641572 0)
(0.923278 0.00802235 6.80365e-21)
(1.06462 -0.0183204 1.09186e-20)
(1.18449 0.0447949 0)
(1.01191 0.0647907 -4.24463e-21)
(1.0487 -0.180714 0)
(1.01261 0.0487705 1.4294e-21)
(1.00125 0.000760343 0)
(-0.100067 0.0445778 -5.75007e-20)
(0.130337 -0.0454325 -5.35951e-20)
(0.164119 -0.0539672 4.52921e-20)
(1.12607 0.223034 3.6126e-20)
(-0.121276 0.0368023 0)
(0.0268012 -0.0250588 -3.60785e-20)
(-0.0303384 0.0417383 -5.42459e-20)
(-0.275384 0.0296457 6.92512e-20)
(1.01724 0.00245155 1.8482e-21)
(1.16604 0.0307193 -5.18734e-20)
(1.01404 0.0647313 4.30095e-21)
(0.988552 0.0284533 0)
(1.18228 0.094881 2.57925e-20)
(1.15888 0.0448244 4.99832e-20)
(1.01969 1.75655e-05 -1.67783e-21)
(1.15634 0.0909025 0)
(1.13091 0.00553671 2.39745e-20)
(-0.280976 0.0327352 -7.35245e-20)
(1.00089 0.00800184 -1.2388e-22)
(1.22417 -0.027654 9.51435e-20)
(0.0624317 0.0708679 1.18117e-19)
(1.15771 0.322954 -2.24666e-20)
(0.1663 -0.0158519 0)
(0.999916 0.000927445 8.64402e-21)
(0.994197 0.0323578 0)
(1.01038 0.000477578 0)
(1.03298 0.142295 -2.7056e-22)
(1.0125 0.00589146 0)
(0.771285 -0.189099 0)
(0.399787 -0.270368 -1.13214e-19)
(0.98313 0.137095 -6.74955e-21)
(-0.0128859 0.0498168 0)
(1.08551 0.048367 -3.51263e-22)
(1.19961 -0.0824358 -1.23774e-20)
(0.00818568 0.0431411 -5.13562e-20)
(0.805964 0.533398 -1.26505e-20)
(1.14008 -0.135571 0)
(1.20119 -0.215769 0)
(1.226 -0.0320727 -9.34867e-20)
(1.14582 0.104757 0)
(1.23475 0.0808507 9.46368e-20)
(1.10759 -0.0401923 0)
(1.11457 -0.153074 0)
(0.374582 0.0790451 0)
(1.09674 -0.0550724 -2.84736e-20)
(1.19674 -0.00550413 2.17221e-20)
(1.01441 0.000867991 1.50891e-21)
(1.12962 0.115511 0)
(1.09449 0.0267225 2.60649e-20)
(1.03083 0.00490339 -5.55459e-21)
(1.02935 0.138309 0)
(1.05615 0.0314557 0)
(-0.270666 0.0301488 0)
(0.328494 0.0449017 0)
(1.01215 0.0257567 0)
(1.01811 0.00127706 0)
(0.729586 -0.182764 4.54631e-20)
(-0.224906 0.0360199 2.14074e-20)
(1.00006 0.000234388 0)
(0.137462 -0.00155815 0)
(1.059 0.00735567 2.48721e-20)
(1.17173 0.196072 6.30894e-20)
(1.01131 0.0275739 8.82906e-22)
(-0.204166 0.0416713 0)
(1.02992 -0.00523297 0)
(1.04475 0.104838 0)
(1.03363 0.0427829 4.90161e-21)
(0.509802 -0.0797274 3.40679e-22)
(1.18417 0.181296 0)
(-0.195324 0.038649 0)
(1.00004 0.000279555 0)
(-0.262047 0.035608 7.63297e-20)
(0.134043 0.0271825 -1.14816e-19)
(0.871385 0.0922584 0)
(1.03093 0.00549876 -1.61572e-21)
(-0.0594021 0.0374972 1.55591e-20)
(0.264037 0.0478453 3.62182e-20)
(1.13248 -0.00975358 -5.98326e-20)
(1.00809 0.0130327 0)
(1.00337 0.0482798 -6.98452e-21)
(1.06318 -0.0819663 -2.09119e-20)
(1.286 0.10797 0)
(1.02014 2.73253e-05 0)
(1.00713 0.0119991 0)
(1.00406 0.00211566 0)
(1.00434 0.00224389 1.19832e-21)
(-0.193093 0.0391391 1.86419e-20)
(1.20467 0.100618 -5.18802e-20)
(1.13112 -0.00749084 5.28327e-20)
(1.19043 0.175544 0)
(1.00523 0.00058879 -3.9576e-22)
(1.00961 0.00588873 -6.65262e-22)
(1.21138 0.0591198 -4.63396e-20)
(0.145485 0.0576117 9.50567e-21)
(1.10397 0.0720273 0)
(1.03194 0.0251415 7.0498e-21)
(0.993081 0.00853045 0)
(0.992349 -0.00573306 -5.87513e-21)
(0.8103 0.080845 -2.98051e-20)
(0.068035 0.041883 2.90699e-20)
(1.00028 0.00276813 -5.99733e-21)
(0.992197 -0.00265322 5.70242e-21)
(1.05486 -0.180364 0)
(1.10881 -0.0373394 2.27999e-20)
(1.11423 0.008635 -3.33018e-20)
(0.993282 0.0305267 0)
(1.02133 0.0675841 5.42434e-22)
(1.03115 0.100911 0)
(1.1935 -0.00938513 -3.96975e-20)
(0.920021 0.455907 -2.82248e-22)
(1.19214 0.180818 -7.88531e-20)
(1.2266 0.100977 -3.31032e-20)
(1.21492 0.0294248 4.7847e-20)
(1.07099 0.0738374 -1.12443e-19)
(1.13609 0.15415 2.82349e-20)
(0.999474 0.014464 -6.79866e-21)
(-0.2598 0.0363567 0)
(0.992762 -0.00615719 -6.31906e-22)
(0.993562 0.075065 -9.80764e-22)
(1.07024 0.000668901 -1.79867e-20)
(1.14162 0.115372 2.86832e-20)
(0.962489 0.272815 0)
(1.00897 0.00129428 1.93031e-22)
(1.15908 0.314511 2.26689e-20)
(1.17163 0.139837 -6.80762e-20)
(-0.0332633 0.0612232 0)
(1.21383 0.0336577 1.18777e-21)
(0.875976 0.12204 2.07093e-22)
(1.13466 0.00515512 1.72619e-21)
(0.999254 0.00148452 -4.13033e-23)
(0.367377 0.0505833 -5.76094e-20)
(1.15011 0.306162 0)
(0.261426 -0.0635377 9.76817e-21)
(1.01218 0.0464286 -4.03221e-21)
(1.09653 0.0576313 -7.27459e-21)
(1.19332 0.173835 2.91276e-20)
(-0.122549 0.0233804 -5.96416e-20)
(-0.210758 0.0368582 -7.9067e-20)
(1.18108 0.023213 -9.53319e-22)
(1.13223 0.225207 0)
(0.98098 0.0863969 7.56385e-21)
(1.05068 0.0649313 -6.85556e-21)
(0.992182 0.0309541 -8.15197e-21)
(0.871245 0.213268 3.52473e-20)
(0.663324 0.156484 -5.17206e-20)
(0.973805 -0.00967421 0)
(1.16001 0.0105105 4.05722e-20)
(0.565232 0.121786 0)
(0.277011 -0.0636704 -1.89832e-20)
(-0.18793 0.0395952 5.33936e-20)
(1.02272 0.078117 -2.48743e-23)
(1.1941 -0.0831057 0)
(1.08922 -0.0136746 -3.27594e-20)
(0.989831 0.117099 0)
(0.965188 0.0186026 -8.75587e-21)
(0.174796 0.507397 -9.32043e-20)
(0.466409 0.0536514 0)
(0.453229 0.0175275 -3.96181e-20)
(1.1912 0.166671 -8.59457e-20)
(1.01804 0.00258773 -2.86351e-21)
(-0.0156504 0.00312424 0)
(1.0667 -0.0821064 0)
(1.00885 0.000949687 3.11858e-22)
(1.08458 0.090704 0)
(1.17555 -0.0438072 7.53102e-21)
(0.84133 0.0556063 3.68394e-20)
(1.1632 0.136274 -1.78065e-20)
(0.677202 -0.155132 0)
(1.23337 0.0763554 -5.94084e-20)
(1.10148 -0.0334499 -7.55683e-21)
(0.36672 0.054308 8.26312e-20)
(1.05757 0.0385493 2.06025e-20)
(-0.301611 0.0293156 -1.6406e-19)
(0.999915 0.00147923 -7.763e-21)
(1.00024 0.00294791 7.86406e-21)
(0.881833 -0.0702536 5.13206e-20)
(0.445419 0.0532633 0)
(0.374647 0.208419 1.40569e-19)
(1.05842 0.0370242 0)
(1.00751 0.0561099 -5.16258e-21)
(0.992578 -0.00212203 0)
(1.0759 -0.0520556 -1.52224e-22)
(0.0770607 0.142639 -9.80148e-21)
(1.07031 -0.119185 0)
(1.05298 0.0657646 -1.14584e-21)
(1.14005 -0.129094 3.15397e-20)
(1.16732 0.0140452 -4.93007e-20)
(1.01106 0.0283306 4.22602e-21)
(1.1117 0.442688 -4.64714e-20)
(1.06721 -0.115519 2.17851e-21)
(1.01535 -0.151116 -9.8916e-21)
(1.00199 0.0180077 -1.48504e-21)
(1.23548 0.0674921 -7.1241e-20)
(1.055 0.0330881 -1.27671e-20)
(0.0494917 0.0666112 6.92264e-20)
(1.11072 0.168597 1.96536e-20)
(0.972498 0.267261 5.23707e-21)
(1.09707 0.0600705 -2.14472e-21)
(1.00667 0.00281192 -2.95673e-21)
(1.0284 0.00800295 0)
(1.03333 0.0332022 0)
(0.937636 0.328234 1.16548e-20)
(0.888131 0.00827314 -5.50299e-20)
(1.21104 0.14361 1.36713e-19)
(0.474941 0.763572 4.09703e-20)
(1.16464 -0.00222734 -9.22009e-20)
(1.00756 0.00503832 -1.68506e-21)
(1.22591 0.0852514 0)
(0.370772 0.237556 -1.6248e-19)
(1.1776 -0.221328 1.03672e-19)
(1.04119 0.00574309 -2.8176e-21)
(0.896754 0.0222013 -1.24702e-20)
(1.00661 0.0117425 -1.8428e-21)
(1.08007 -0.0216202 -8.63583e-21)
(1.07131 0.0553686 7.42269e-21)
(0.249921 0.0498085 0)
(0.999781 0.00132532 8.09674e-21)
(1.15859 0.447264 -3.42787e-20)
(1.08252 -0.0176914 0)
(1.17051 -0.14461 -5.89549e-20)
(1.13283 0.170966 1.49833e-20)
(-0.161317 0.0431908 3.41315e-20)
(0.992751 0.266834 -1.19546e-22)
(1.00316 0.046539 4.84982e-21)
(-0.209489 0.0281739 -8.61063e-20)
(-0.287538 0.033969 7.70128e-20)
(1.002 0.0350181 -9.23229e-21)
(1.06898 -0.0002573 1.94045e-20)
(1.02589 0.0145717 1.36387e-19)
(1.1873 0.16672 1.21667e-21)
(1.22843 0.013287 0)
(1.00014 0.000327833 3.53983e-21)
(1.03503 0.0428847 0)
(1.13176 0.303824 5.94021e-20)
(1.06803 -0.00971831 3.14326e-21)
(1.18201 0.0527437 -6.17889e-20)
(1.13302 -0.06603 0)
(1.02912 0.00785346 -2.77423e-21)
(1.14332 -0.0349158 -3.44541e-20)
(0.544084 -0.116821 0)
(1.04074 0.00396988 -5.78253e-21)
(1.05442 -0.00608538 0)
(1.00358 0.0021965 0)
(-0.127635 0.0139667 0)
(0.999939 0.000627193 0)
(0.974461 0.0813459 -3.57966e-22)
(-0.184726 0.0301351 -7.06675e-20)
(0.985288 0.0674358 -5.86146e-22)
(0.489194 0.0535517 8.98038e-21)
(1.06844 0.0788486 -1.76767e-21)
(0.825862 0.0587527 -6.71221e-20)
(1.00387 0.00233425 -1.3102e-21)
(0.995108 0.208624 -1.01463e-21)
(0.999029 0.00933678 -2.72325e-21)
(1.14036 0.110856 4.24057e-20)
(1.00638 0.00165659 1.21967e-21)
(1.04419 0.254085 1.90678e-21)
(1.05862 0.00830375 -8.48714e-21)
(0.412086 0.239519 0)
(0.43211 0.64349 0)
(0.145993 0.0549796 -1.18451e-20)
(1.0098 0.000461022 -2.94193e-22)
(0.999525 0.00131803 -8.97199e-21)
(1.13267 0.150537 0)
(1.10264 0.135766 1.31148e-20)
(-0.191427 0.0138471 -3.37364e-20)
(0.207258 0.0526669 0)
(1.15587 0.0561375 -4.31671e-20)
(0.991238 0.00652629 0)
(1.21899 0.130233 0)
(0.341257 0.185225 0)
(1.02149 -0.153552 3.07583e-21)
(1.2075 0.142699 -1.06147e-19)
(1.15433 0.0335937 4.14281e-20)
(0.787185 -0.157095 0)
(1.06421 0.141928 1.48314e-20)
(1.07434 -0.0484262 1.90425e-21)
(1.20895 0.105753 -6.81324e-20)
(0.833905 0.389441 5.59411e-20)
(1.1527 0.0574167 4.08892e-20)
(0.300217 0.259663 0)
(1.14929 0.0645786 -1.81792e-20)
(1.06079 -0.00485797 0)
(1.1801 -0.0456133 -4.33141e-20)
(0.993301 0.108812 0)
(1.03425 0.00669484 1.95287e-21)
(1.08026 -0.020193 5.4077e-21)
(1.08958 0.139505 0)
(1.03763 0.1044 0)
(0.997928 0.0088622 -5.84033e-21)
(1.00564 0.000473652 7.64483e-22)
(1.16657 0.00540113 4.50914e-20)
(1.06514 0.015093 -1.59769e-20)
(1.18366 0.0564904 8.89344e-20)
(0.991977 0.00624831 0)
(0.994194 0.0039342 -8.53043e-21)
(0.999957 0.000493486 0)
(1.01694 0.0671713 -3.20558e-21)
(1.02414 0.00186224 -3.25742e-21)
(1.03863 0.0901539 -2.58405e-21)
(1.00314 0.00227664 -7.05061e-22)
(-0.207311 0.0402471 0)
(1.08679 -0.0769501 0)
(0.473976 -0.316448 9.42284e-20)
(1.01117 0.00583325 1.03493e-22)
(1.00003 0.00130478 0)
(0.793157 0.125309 0)
(1.14976 0.104278 -1.2525e-20)
(0.952966 -0.00339513 -3.06173e-20)
(0.694681 0.0680977 6.73579e-20)
(1.09355 0.207071 9.88634e-22)
(1.03307 0.162014 -3.07631e-22)
(1.08228 -0.0191625 -6.98295e-21)
(1.22046 0.0698499 2.7421e-20)
(1.05213 0.019635 1.2886e-20)
(0.999909 0.00079236 6.74472e-21)
(1.00458 0.00202534 2.07607e-21)
(1.02951 0.0635485 7.11234e-22)
(-0.216222 0.0296312 -2.63943e-21)
(1.00003 0.00112969 -3.0546e-21)
(0.932789 0.0628418 -3.07607e-22)
(1.0395 0.0927562 1.51929e-21)
(-0.1447 0.0492617 5.61735e-20)
(0.944041 0.212142 0)
(1.09977 0.206282 -2.57768e-20)
(1.16344 -0.142049 4.74688e-20)
(1.02077 0.00789922 1.12753e-21)
(1 4.09721e-05 0)
(1.08942 -0.0788469 0)
(0.987675 -0.00239628 0)
(0.980394 0.0403602 1.36417e-20)
(0.797224 0.080756 0)
(1.00676 0.0599327 -1.34447e-23)
(0.998574 -0.00182409 -1.04065e-20)
(1.08198 0.0688011 2.40299e-20)
(1.00489 0.00700892 -1.53157e-21)
(1.01678 0.00118662 2.53539e-21)
(1.04495 0.100751 4.49447e-21)
(0.886642 -0.0353608 2.9642e-20)
(-0.225125 0.0192243 7.7244e-20)
(1.06399 0.122954 1.29754e-21)
(1.04076 0.0033856 6.91021e-21)
(1.00802 0.000959956 3.08685e-22)
(-0.0786803 0.0222412 0)
(0.92432 0.334762 -2.25013e-21)
(0.997137 0.0418097 -3.55427e-21)
(1.01338 0.0458771 -6.48083e-22)
(0.769309 0.0777318 -6.48172e-20)
(1.05071 0.00465161 1.25089e-19)
(-0.209348 0.0316142 -7.41129e-20)
(0.883373 0.123077 0)
(1.06186 -0.00401401 -4.70394e-21)
(1.01094 0.00354066 -1.57892e-22)
(1.01705 0.00138568 -1.34815e-21)
(1.09967 -0.0559225 0)
(1.06813 0.124835 -1.24519e-20)
(1.2782 -0.146418 -6.88841e-20)
(0.915745 0.0104313 -4.42006e-20)
(-0.0544249 -0.00867969 1.03007e-20)
(1.02411 0.0469899 -1.9849e-21)
(0.958585 0.0547232 -8.37493e-21)
(-0.213607 0.0321735 -6.36887e-21)
(0.994222 0.00551784 -2.22091e-20)
(1.09613 0.0248471 -2.32114e-20)
(1.00123 0.0309858 9.15115e-21)
(1.00159 0.000984155 -5.37138e-21)
(1.08192 0.142647 -4.16219e-20)
(0.773758 -0.0272645 0)
(1.04808 0.0332585 1.09827e-20)
(0.462793 0.052744 0)
(0.440443 -0.0154951 -1.06509e-20)
(1.13737 0.168498 -1.32183e-20)
(0.999698 0.0151866 4.07644e-21)
(1.02588 0.00375348 0)
(1.09118 -0.124668 -8.51736e-21)
(0.970424 0.0679126 -9.33977e-20)
(1.00006 0.000380117 3.69524e-21)
(1.13742 0.0664264 0)
(1.02535 0.00391514 0)
(1.08762 0.134146 -4.06793e-20)
(1.03546 -0.000314987 1.24088e-20)
(1.03527 0.00869595 -7.31488e-21)
(1.27465 0.10953 4.74822e-20)
(1.03984 0.0196301 -1.38843e-21)
(0.977812 -0.125553 0)
(1.10017 0.110778 1.16986e-20)
(0.999949 0.000417659 -4.32282e-21)
(1.02054 0.00444585 1.07476e-21)
(0.981093 -0.00478137 2.31339e-20)
(1.00697 0.0200837 1.55783e-21)
(1.05405 -0.00497227 -1.42128e-22)
(0.273579 0.648544 0)
(1.03939 0.00601937 -1.08639e-20)
(1.03092 0.0130598 0)
(0.229675 0.0201541 1.0252e-19)
(0.423032 0.0331242 -6.93293e-22)
(1.10356 -0.0358635 1.10813e-20)
(1.09764 0.135596 -1.1388e-21)
(1.18175 0.0359787 -2.67726e-22)
(1.0793 0.032627 1.62738e-20)
(1.02355 0.0170187 -2.52179e-21)
(0.886794 0.000890181 -3.90212e-20)
(-0.21988 0.0377771 0)
(1.05236 0.255715 -2.84981e-20)
(0.997788 0.00184948 -6.85698e-21)
(1.0324 0.041805 -5.41171e-21)
(0.228265 0.052444 4.47942e-20)
(1.12459 0.0370387 -3.0309e-20)
(-0.0145909 0.0295722 2.67178e-20)
(0.999939 0.000553136 0)
(0.950451 -0.00269241 6.53059e-20)
(-0.156774 0.0159203 -5.00567e-20)
(1.11781 0.0263161 -1.06962e-20)
(1.05055 0.0318733 -8.4902e-21)
(-0.223115 0.0305565 0)
(0.210701 0.205784 3.0198e-20)
(1.0073 0.0196109 -1.15149e-21)
(1.20533 0.103399 0)
(1.00487 0.00215434 -1.90104e-21)
(1.03864 0.0195482 2.40205e-21)
(1.01154 0.00616849 -1.90278e-22)
(-0.132406 0.0439482 -3.21271e-20)
(1.02376 0.00168102 6.53213e-21)
(1.04013 -0.00228021 0)
(1.02418 0.0165838 0)
(0.978112 -0.126503 5.3289e-21)
(1.06329 -0.0134884 0)
(1.17528 0.192473 0)
(0.704896 -0.117194 0)
(1.03595 0.00662117 2.15452e-21)
(0.842461 0.0128218 3.98119e-20)
(1.00032 0.00266864 2.77965e-21)
(-0.048775 0.0307305 2.81477e-20)
(1.00387 0.00903987 0)
(1.0401 0.00543292 1.37741e-20)
(0.998583 -0.00126844 -1.16287e-20)
(1.0942 -0.128094 -1.6009e-21)
(0.998422 -0.00162285 1.23063e-20)
(1.23724 0.0719034 9.03419e-20)
(0.508605 0.000337576 3.13983e-21)
(0.673497 -0.144933 0)
(0.90151 0.023065 0)
(1.21872 -0.205027 1.78388e-20)
(-0.159943 0.0285741 -3.48896e-20)
(0.993269 0.0245784 0)
(-0.0423531 0.0106233 2.11285e-21)
(0.462507 0.0694114 5.67738e-20)
(-0.13872 0.0285403 0)
(0.426662 -0.0613393 5.51367e-22)
(0.210678 0.0180863 -7.91391e-20)
(0.204633 0.245428 4.40799e-20)
(1.22275 0.0837056 6.85721e-20)
(1.00496 0.0495862 0)
(0.664688 -0.14937 4.5381e-21)
(1.11628 0.0287679 -1.01026e-20)
(0.453956 -0.119734 -1.86231e-20)
(1.03021 0.0059155 0)
(1.02172 0.0259744 -7.05029e-22)
(0.998443 0.0430892 0)
(1.00032 0.00284492 0)
(1.08591 0.027863 3.24609e-22)
(0.883674 0.0801016 -7.87764e-21)
(-0.126173 0.00460701 -6.06026e-20)
(1.02167 0.0249551 -9.38791e-22)
(0.993343 -0.00115908 1.07211e-20)
(-0.170356 0.0444384 1.63674e-19)
(0.939707 0.417428 0)
(0.981378 -0.00606552 -1.28711e-20)
(0.814706 -0.0705896 0)
(1.08916 0.0727377 0)
(1.0445 0.0262088 3.88255e-21)
(0.495723 0.679048 0)
(0.807742 -0.065407 -4.47559e-20)
(0.946504 0.0454321 0)
(1.06387 -0.0127018 -2.88157e-22)
(0.416684 -0.00130026 0)
(-0.197487 0.0332042 0)
(0.221067 0.0285941 1.44416e-19)
(1.03499 0.000139261 -9.34261e-21)
(1.18129 0.185094 3.36689e-20)
(1.17092 0.135974 4.80176e-20)
(-0.140504 0.0286321 -1.86218e-20)
(0.28979 0.0521009 4.64696e-20)
(1.07357 -0.0965242 1.53585e-20)
(1.01245 0.0278747 -1.43718e-21)
(1.05315 0.0205303 -2.07261e-20)
(1.0226 0.0471305 3.51405e-22)
(1.02047 0.000228208 -1.70602e-21)
(1.01959 0.0687173 -4.8969e-22)
(1.01724 0.0021514 -2.64572e-21)
(1.03384 0.0997133 0)
(1.06039 0.140929 -1.57179e-20)
(0.00860541 0.0497103 -3.45972e-20)
(1.23717 -0.0300957 0)
(1.04058 -0.00174218 3.6268e-21)
(1.21856 0.0650343 0)
(-0.0208902 0.0440013 1.19127e-19)
(1.08004 0.137277 1.85559e-20)
(0.969624 0.0188189 -7.54804e-21)
(-0.289459 0.0345155 0)
(1.02922 0.0232431 -6.39105e-21)
(0.98143 0.0383054 1.36314e-20)
(0.813253 0.0470314 3.4986e-20)
(0.0496354 0.0568757 0)
(0.998428 -0.00305775 -2.97572e-21)
(1.0015 0.0182389 1.10376e-20)
(0.444538 -0.111874 0)
(1.22381 -0.194459 -3.81765e-20)
(1.12623 -0.0269743 -1.48419e-19)
(1.2222 0.0244846 -2.57623e-20)
(1.18024 -0.224157 7.82999e-20)
(1.00519 0.0182387 0)
(1.23123 0.093843 1.28743e-21)
(0.968478 0.0207542 2.52233e-20)
(1.00206 0.00882706 0)
(0.966768 0.0163216 8.56635e-21)
(0.718755 -0.178502 0)
(-0.188809 0.0321225 1.04924e-19)
(1.03232 0.011263 -7.07397e-21)
(1.02107 0.00448624 0)
(1.00105 0.0324487 -7.14918e-21)
(0.995206 0.00995799 -1.48252e-19)
(1.01609 0.065802 2.42861e-21)
(1.0993 0.0528669 0)
(0.988627 -0.00268349 -1.22056e-20)
(1.0105 0.0532343 1.73817e-21)
(1.2274 0.0948621 3.48724e-20)
(1.03669 0.00610503 0)
(1.14449 0.110096 -4.8474e-20)
(1.05478 0.371406 0)