/*--------------------------------*- C++ -*----------------------------------*\
| =========                 |                                                 |
| \\      /  F ield         | OpenFOAM: The Open Source CFD Toolbox           |
|  \\    /   O peration     | Version:  v2012                                 |
|   \\  /    A nd           | Website:  www.openfoam.com                      |
|    \\/     M anipulation  |                                                 |
\*---------------------------------------------------------------------------*/
FoamFile
{
    version     2.0;
    format      ascii;
    class       surfaceVectorField;
    location    "550";
    object      ddtCorrDdt0(Uf);
}
// * * * * * * * * * * * * * * * * * * * * * * * * * * * * * * * * * * * * * //

dimensions      [0 1 -2 0 0 0 0];


internalField   nonuniform List<vector> 
20642
(
(0.0066795 0.00463295 2.68945e-18)
(0.00796633 0.00543146 -2.33951e-17)
(0.00595358 0.00588999 -9.18617e-18)
(0.0105711 0.000589224 -1.77009e-19)
(0.0117453 -6.8063e-05 4.38833e-20)
(0.0101931 -0.00100886 -2.96465e-19)
(-0.0075619 0.00373989 5.65721e-19)
(-0.00795086 0.00320927 -4.78166e-18)
(-0.0081283 0.00387203 -1.29188e-18)
(-0.000647994 9.45319e-05 -9.30965e-19)
(-0.000666506 9.04939e-05 1.96601e-18)
(-0.000645959 8.12335e-05 1.53336e-19)
(0.0042416 -0.00602443 -1.37065e-19)
(0.00444864 -0.00717512 -1.62528e-19)
(0.00318384 -0.00665274 4.3446e-20)
(0.00907608 0.00124261 4.87363e-20)
(0.0102123 0.00260032 2.34708e-19)
(-0.000902915 0.000377448 3.70621e-18)
(-0.000904543 0.000377514 1.09786e-18)
(-0.00090731 0.000384855 -9.84272e-20)
(0.023793 -0.0262456 -2.40946e-20)
(0.0309815 -0.0275259 1.19607e-19)
(0.0251402 -0.0322011 -1.23056e-19)
(-0.000803744 0.000473402 1.44282e-19)
(-0.000809055 0.000460116 -1.19666e-19)
(-0.000820531 0.000474405 5.71666e-18)
(-0.0067859 0.00430951 -2.56171e-18)
(-0.0131512 0.00747668 5.34374e-18)
(0.0204248 -0.0258319 1.48025e-19)
(0.0243848 -0.022229 1.50794e-19)
(-0.000481837 -0.000154865 -7.44279e-19)
(-0.000501461 -0.000163958 -2.83461e-19)
(-0.000494602 -0.000137737 -8.93629e-19)
(-0.000121383 1.24124e-07 -2.98764e-19)
(-0.000121069 5.36396e-07 2.6114e-19)
(-0.118742 -0.129456 -1.21447e-18)
(-0.111862 -0.125656 -2.40769e-18)
(-0.120981 -0.115492 -4.74266e-19)
(0.000390883 0.00232908 1.12417e-20)
(0.000787705 0.00273761 -2.28674e-19)
(0.000975133 0.00209871 -2.71673e-19)
(0.0059893 0.00409706 1.08386e-17)
(0.0081019 0.00367257 5.6587e-18)
(-5.2998e-05 2.09056e-05 -1.1413e-19)
(-4.23276e-05 2.21938e-05 3.14378e-20)
(-2.5273e-05 1.05155e-05 -4.36163e-20)
(0.0159528 -0.0253258 -1.25712e-19)
(0.0117357 -0.0241332 1.89298e-19)
(0.0156865 -0.0213021 -2.89482e-19)
(-0.00485045 -0.00150682 -2.53038e-18)
(-0.0052158 -0.00141381 2.42164e-19)
(-0.00510785 -0.00181975 -1.66574e-18)
(0.0286275 0.0216401 -1.38717e-18)
(0.0176849 0.0234179 2.45258e-18)
(0.0159995 0.0189843 -1.82078e-18)
(-0.00440976 -0.00348499 2.74747e-19)
(-0.00501568 -0.00356564 -1.63725e-19)
(-0.00457745 -0.00409676 1.20412e-19)
(0.000227635 -0.000863715 -3.79576e-20)
(0.000187454 -0.000817896 -1.34993e-20)
(0.000182929 -0.000898306 -4.25993e-21)
(-0.000980712 -0.000311439 1.20397e-18)
(-0.00104643 -0.000260024 8.73906e-19)
(-0.00105694 -0.000381239 -3.39365e-18)
(0.000285997 -0.000910091 3.86505e-21)
(0.00025945 -0.00083078 -3.57913e-20)
(-0.000995426 -5.05641e-05 3.95905e-19)
(-0.00102322 -2.20158e-05 1.80338e-18)
(-0.00102894 -6.45489e-05 -4.4077e-19)
(-0.00491946 -0.00637824 4.11257e-20)
(-0.00481303 -0.00557752 6.48823e-20)
(-0.00404334 -0.00605879 6.77441e-20)
(0.074447 0.0703266 -3.01071e-18)
(0.0772696 0.0637936 2.81444e-18)
(0.0707973 0.0666421 -3.91531e-18)
(-0.00162041 -0.00103402 -3.98657e-18)
(-0.000156927 -0.0162911 -3.14435e-20)
(-0.00169971 -0.0148063 7.37035e-20)
(0.000709518 -0.0143697 -1.11443e-19)
(0.000509636 -0.00041875 -4.22854e-20)
(0.000527303 -0.000414317 1.44296e-20)
(0.000514212 -0.000397834 1.47821e-20)
(0.00103765 0.000918892 -3.54607e-18)
(0.0023261 -0.00153367 6.02582e-18)
(-0.00220732 0.000314945 3.22759e-19)
(-0.00223996 0.00040988 2.61917e-18)
(-0.00230349 0.000296717 2.63287e-18)
(-0.000728438 -6.16078e-05 4.24657e-19)
(-0.000703615 -7.06593e-05 3.02078e-19)
(-0.000705526 -4.65873e-05 2.45282e-19)
(0.00231844 0.00508006 5.18201e-18)
(0.00253887 0.00546952 8.25102e-18)
(0.00226366 0.00515576 1.81397e-18)
(0.00103916 0.000163937 4.51749e-20)
(0.00100058 0.000200302 1.53833e-20)
(0.00106313 0.000236255 -1.726e-19)
(0.0386615 -0.0241094 -2.11874e-19)
(0.0445755 -0.0303268 -1.38156e-18)
(-0.000506436 -0.00129129 8.30011e-20)
(-0.00061297 -0.00129411 -1.5037e-19)
(-0.000533718 -0.00141311 -2.26261e-19)
(0.000178284 -6.27668e-06 -2.43474e-19)
(0.000245401 -1.0014e-05 -2.51681e-19)
(0.000160498 -5.7097e-06 -1.53372e-19)
(-0.000905301 0.000377763 7.00301e-18)
(-0.000900151 0.000373596 2.64483e-18)
(-0.00482919 0.00234586 -3.96044e-20)
(-0.00488595 0.00286878 2.21576e-20)
(-0.00432504 0.00261123 6.19468e-20)
(-0.000109043 1.79333e-06 1.85151e-20)
(-8.72059e-05 9.70263e-08 -1.54e-20)
(-0.000163595 -7.52651e-06 2.24595e-19)
(-0.000784608 0.00149118 -9.48133e-20)
(-0.00092154 0.00173171 -3.54509e-20)
(-0.000625486 0.00166981 -4.29096e-19)
(-0.000713887 0.000424091 5.06628e-18)
(-0.000717969 0.000407504 8.49708e-18)
(-0.000697442 0.000415196 3.54123e-18)
(-0.00433753 0.000271827 2.95644e-18)
(-0.00418741 0.000465707 -1.51254e-18)
(-0.0044813 0.000478296 -8.95661e-19)
(-0.00415144 3.87608e-05 7.8169e-18)
(-0.00446235 -3.16475e-05 3.17949e-18)
(0.0146052 -0.0195883 -9.68523e-18)
(0.0122731 -0.0186143 -2.78323e-18)
(0.0135733 -0.0217577 -6.91599e-18)
(-0.0038009 -0.00329042 1.25898e-19)
(-0.00416064 -0.00287757 5.68562e-19)
(-0.0637091 0.0660643 -3.97419e-18)
(-0.0400494 0.0588667 -2.53597e-18)
(-0.0528243 0.0564733 4.42774e-18)
(0.0671728 0.0628061 1.2155e-18)
(0.0630032 0.0452396 -2.75557e-18)
(0.0713973 0.0573506 5.40755e-20)
(0.00103081 0.000109696 -5.00327e-20)
(0.0010915 0.000141354 1.4187e-19)
(-0.000469502 -0.000172586 -1.16008e-18)
(-0.000463875 -0.000146913 -1.9903e-18)
(0.0031702 -0.00846194 -1.04484e-17)
(0.00404989 -0.00922824 -1.46187e-18)
(0.00427401 -0.00799607 -3.48193e-18)
(-0.00229407 0.00221577 2.20941e-18)
(-0.00281957 0.00240848 -1.91925e-18)
(-0.00252303 0.00221227 5.49715e-18)
(-0.000261001 -0.000477359 1.91949e-19)
(-0.000252232 -0.000461353 5.58287e-19)
(-0.000242067 -0.000478592 -8.32959e-20)
(-0.000312538 -0.000487382 1.3068e-18)
(-0.00030104 -0.000471643 3.70034e-19)
(-0.000322443 -0.000461248 -1.36442e-20)
(0.00260778 -0.00786471 -7.88582e-19)
(0.00225739 -0.00895659 -3.96499e-18)
(0.0129781 0.00457676 -1.05906e-17)
(-0.000903461 -0.000347791 1.64968e-18)
(-0.000921261 -0.000233845 2.20912e-18)
(-0.000683706 0.0012846 1.6397e-19)
(-0.000888193 0.00125276 -1.77255e-20)
(0.0161791 -0.0209889 -1.2097e-19)
(0.0170437 -0.0174872 1.51083e-19)
(-0.0157572 -0.0869257 -4.05548e-18)
(-0.0263701 -0.0925985 -7.16015e-18)
(-0.0506494 -0.110326 -6.12597e-18)
(0.00203654 0.00562891 2.32507e-19)
(0.0030743 0.00540722 9.23773e-20)
(0.002357 0.00436359 2.26866e-20)
(0.000107207 -1.43571e-05 1.02991e-19)
(0.000103626 -1.65411e-05 -2.34424e-20)
(0.000125936 -2.35551e-05 -4.61725e-21)
(-0.0009593 -3.29441e-05 -1.15332e-18)
(-0.000961777 -7.12739e-05 -2.84156e-19)
(0.00322736 0.00439732 -2.73592e-19)
(0.00222519 0.00463809 8.52919e-19)
(0.00245899 0.00554516 3.49399e-18)
(-0.00845662 -0.00514583 -2.27054e-19)
(-0.00617098 -0.00486101 -4.2251e-19)
(-0.0075052 -0.00313148 -3.50933e-20)
(0.00140087 -0.0179387 4.55226e-20)
(0.00352007 -0.0195751 -8.55445e-20)
(0.0041575 -0.0170442 -1.16574e-19)
(0.0358521 -0.0180395 -3.16048e-19)
(0.0439848 -0.0198833 -1.69501e-18)
(0.0155196 -0.0303983 -1.61838e-20)
(0.00021358 0.00308529 4.26377e-18)
(0.000432601 0.0028357 2.23443e-18)
(4.60842e-05 0.00277715 1.27233e-18)
(0.0040543 0.00248593 1.64235e-18)
(0.00319437 0.00179744 4.53616e-19)
(0.00429258 0.00274845 2.24566e-18)
(0.00240845 0.00496464 -4.68567e-18)
(0.00210935 0.00471311 5.88976e-18)
(-0.000396181 9.5812e-05 -3.7849e-19)
(-0.000409204 0.000103348 -1.61133e-18)
(-0.000407113 9.22021e-05 -1.17314e-18)
(-0.000573104 0.00114248 -6.04858e-20)
(-0.000480043 0.00127796 2.4025e-19)
(-0.00575558 -0.00357442 -1.75638e-19)
(-0.00542947 -0.00300456 -3.61043e-19)
(-0.00116529 -0.000379599 3.65549e-19)
(-0.00121997 -0.000340032 -3.27842e-19)
(-0.00120386 -0.000426606 8.45822e-19)
(0.000810661 -0.00320887 -4.71964e-20)
(0.000670704 -0.00353186 2.36305e-19)
(0.000374565 -0.00312919 -9.80881e-20)
(-0.000492436 0.00103252 -8.86587e-20)
(-0.000627129 0.000984695 -8.56867e-20)
(-0.00112516 -0.00032428 -8.77321e-19)
(-0.00109908 -0.000399799 1.47467e-19)
(-0.000747707 -6.98908e-05 -2.87992e-19)
(-0.000750141 -4.58671e-05 5.40478e-19)
(-0.000173375 -0.000523184 -7.3674e-20)
(-0.000184445 -0.000523251 1.67375e-20)
(-0.000175973 -0.000534556 -1.79633e-19)
(6.21363e-05 2.33246e-05 -2.6892e-20)
(4.92952e-05 2.35075e-05 -4.27037e-20)
(5.33042e-05 1.09559e-05 -1.00048e-19)
(-0.000384938 9.97332e-05 1.6877e-18)
(-0.000382619 8.84929e-05 3.06428e-19)
(0.00609464 0.00769311 -6.47129e-18)
(0.00542216 0.00742598 -4.00678e-19)
(0.00547706 0.00816792 1.73313e-18)
(-4.48384e-05 -7.56307e-05 4.11392e-19)
(-4.82007e-05 -8.4847e-05 -6.72044e-19)
(-3.62704e-05 -8.26647e-05 -2.73302e-19)
(-0.0193478 -0.058369 -1.15406e-19)
(-0.0381102 -0.0627374 2.67608e-19)
(-0.027494 -0.0675276 -6.02725e-19)
(-0.00211245 0.000345689 -1.38119e-18)
(-0.00215763 0.000246917 -4.86993e-21)
(-3.76374e-05 -3.99262e-05 -2.3071e-19)
(-2.71358e-05 -4.05643e-05 2.78777e-19)
(-3.71846e-05 -2.89745e-05 1.77242e-19)
(-0.0046308 0.00178272 9.33891e-19)
(-0.00522331 0.00189638 -4.08454e-20)
(-6.14163e-05 1.88654e-05 -2.41285e-19)
(-7.66402e-05 3.2252e-05 -1.47178e-19)
(-0.000154354 4.85592e-05 -4.32299e-20)
(-0.000161993 4.29813e-05 -1.29793e-19)
(-0.000170573 5.46696e-05 2.62269e-20)
(-0.00073018 0.000429218 -4.06627e-18)
(0.0686246 0.0748332 -8.82943e-19)
(0.0816096 0.0647894 3.01e-18)
(0.000773762 0.000294207 7.82399e-20)
(0.000772651 0.000332557 -7.77832e-20)
(0.000749212 0.000314751 -5.35669e-20)
(-0.000271711 -0.000643538 -1.96634e-19)
(-0.000250336 -0.000628456 -5.98536e-19)
(-0.000242826 -0.000657826 -9.52952e-19)
(-0.00149799 -0.0185965 -1.84892e-19)
(0.0216139 0.0678998 5.54131e-18)
(0.0264864 0.0591853 -8.50393e-19)
(0.0109779 0.0561552 1.19286e-19)
(0.00028398 1.73403e-05 -4.15749e-20)
(0.000292578 1.5891e-05 1.06624e-19)
(0.000231262 8.31172e-06 5.38573e-20)
(-4.07036e-05 -4.81684e-05 -6.83413e-19)
(-4.61288e-05 -3.80513e-05 -7.21265e-19)
(-0.0210223 0.0367098 3.16646e-19)
(-0.0218501 0.0300607 4.64621e-20)
(-0.0268084 0.0332319 -5.2561e-19)
(-8.45668e-05 -1.42989e-05 -1.76592e-19)
(-9.25636e-05 -1.35939e-05 1.61153e-20)
(-6.19288e-05 -7.26269e-06 5.7828e-20)
(-7.79459e-05 -1.54416e-05 -6.95737e-20)
(-9.52381e-05 -2.22248e-05 -5.59023e-20)
(-0.000162105 -0.000515157 -5.42035e-20)
(-0.000162528 -0.000532717 3.77942e-19)
(0.000358306 2.51326e-05 1.34271e-19)
(0.000363967 2.13075e-05 -4.16831e-20)
(0.000346007 1.65965e-05 -6.66098e-20)
(0.00092414 -0.00277771 -8.6182e-20)
(0.0012355 -0.00309132 1.38667e-19)
(0.00254845 0.00163681 -4.96494e-18)
(0.00247207 0.00253294 7.2254e-19)
(0.0027239 0.00180798 -4.38187e-18)
(-0.0148077 0.0303612 -1.91399e-18)
(-0.0108855 0.0306126 -1.44032e-18)
(-0.0126303 0.0348598 -2.63358e-18)
(0.000650288 0.00543243 -1.3833e-18)
(0.0010208 0.00678596 1.38709e-18)
(-0.00123529 0.00172602 8.81068e-20)
(-0.00103042 0.00204771 -9.04941e-20)
(0.067497 0.0804306 -3.17136e-19)
(0.0753123 0.0729602 -6.66422e-19)
(-0.000145709 8.00802e-06 -3.24655e-19)
(-0.000146205 1.04181e-05 -1.42276e-19)
(0.00275142 0.00593068 2.14809e-18)
(0.00277886 0.00597238 1.39183e-18)
(-0.00268816 -0.0132837 -1.0646e-19)
(-0.00399447 -0.0149203 1.52171e-19)
(0.00388944 0.00461356 7.29949e-19)
(0.00385897 0.00381779 6.99092e-20)
(-0.00130413 -0.000620058 8.13344e-19)
(-0.00137629 -0.000564016 3.90433e-19)
(-0.0012706 -0.000539078 -1.68546e-18)
(-0.00447092 -0.00163137 -1.73995e-18)
(-0.00457078 -0.00127445 -1.54076e-18)
(-0.000266865 8.90787e-06 4.73095e-20)
(-0.000284995 1.02376e-05 -1.82442e-20)
(-0.000270531 1.11444e-05 2.32698e-20)
(-0.00777098 0.00148028 -1.32165e-18)
(-0.00756686 0.00204389 -3.11789e-19)
(-0.00722978 0.00148813 3.18154e-18)
(-0.000314824 0.000114134 1.58989e-19)
(-0.000325595 0.000110195 8.83063e-19)
(-0.000314089 0.000103478 -1.75226e-18)
(6.52712e-05 3.48658e-05 7.48623e-20)
(7.68274e-05 2.14043e-05 2.79397e-20)
(-0.000247233 0.00101699 -3.40765e-19)
(-0.00013895 0.00098039 8.83649e-20)
(-0.00020753 0.000922396 7.13331e-20)
(0.00571443 -0.0211286 -1.23106e-19)
(0.00238428 -0.0224795 2.85801e-19)
(-0.00233847 -0.00399345 -1.12713e-18)
(-0.00198376 -0.00426678 3.59725e-18)
(-0.00196988 -0.00373331 7.69476e-19)
(-0.00376044 0.00257115 -2.89766e-18)
(-0.00351338 0.00278665 3.98023e-18)
(-0.00348056 0.00259585 3.38173e-18)
(0.00641131 0.00734807 -2.92639e-18)
(0.00632035 0.00782588 2.30662e-18)
(-0.000931584 -1.90892e-05 -6.8703e-19)
(-0.00090315 -6.30812e-06 -1.0413e-18)
(-0.000903084 -3.62065e-05 1.32025e-18)
(-0.00607437 -0.00430223 -6.95363e-20)
(-0.00651986 -0.00354956 2.70773e-20)
(0.000711677 -0.00022029 -6.45877e-20)
(0.000717238 -0.000202781 1.59877e-19)
(0.000691793 -0.000206165 1.17241e-19)
(-0.00255006 -0.0036608 -2.34381e-18)
(-0.00273382 -0.00414893 -1.99928e-18)
(-0.00108917 0.000400218 -3.87211e-18)
(-0.00110017 0.000379538 -6.61058e-19)
(-0.00111612 0.000401005 3.95978e-19)
(0.0277453 0.0121329 3.13867e-19)
(0.0253896 0.0102171 8.62752e-20)
(0.0288747 0.00934349 -1.9998e-19)
(-0.00105858 0.00452251 -1.60602e-18)
(-0.00162967 0.00430978 8.62412e-19)
(-0.00150852 0.00478942 -2.65197e-18)
(-0.00134495 -0.000704454 -2.82819e-19)
(-0.00124086 -0.000678872 -8.81313e-19)
(-0.00265534 0.000413034 6.42321e-18)
(-0.00278118 0.000348282 -5.04718e-18)
(-0.00276934 0.000521792 2.03752e-18)
(0.0585922 0.0915958 3.82468e-18)
(0.0574992 0.0870076 1.67859e-19)
(-0.00981219 -0.0710196 -4.83207e-18)
(0.00255342 -0.0677611 -1.74028e-18)
(0.0131884 -0.0594555 6.76029e-19)
(-0.00587733 0.00211344 3.88466e-18)
(-0.00592956 0.00208094 -3.96793e-18)
(-0.0057341 0.00214165 5.15432e-18)
(-0.00478328 -0.00839188 -2.83523e-20)
(-0.0049576 -0.00729859 3.19896e-20)
(-0.00380844 -0.0079034 -4.86783e-20)
(0.000183767 -4.9175e-06 -6.53699e-19)
(-0.0662288 -0.118677 1.08596e-20)
(-0.0903999 -0.120773 3.62523e-18)
(-0.0666436 -0.0832725 -2.16894e-18)
(-0.000358175 0.00103122 -2.31185e-19)
(-0.000405581 0.000936076 -1.08542e-19)
(0.00262573 0.000690157 2.87293e-18)
(0.00232103 0.00135457 1.05448e-18)
(0.000159861 -0.000414434 -2.96076e-21)
(0.000172532 -0.000406026 2.52135e-19)
(0.000180592 -0.000431957 -5.99289e-20)
(-0.000369889 6.75463e-05 1.32048e-18)
(-0.000380738 7.282e-05 -1.18708e-18)
(-0.000381032 6.43723e-05 2.85765e-18)
(-0.00511599 0.00314723 -1.7244e-19)
(-0.00526802 0.00170902 -2.99031e-19)
(-0.00414109 0.00240268 -4.73295e-19)
(0.00379768 0.00253709 1.49429e-18)
(0.00483121 0.00316777 -2.11742e-18)
(-0.0348209 0.0229558 -1.06222e-18)
(-0.0255224 0.0571391 -5.02166e-19)
(-0.0082234 0.0547964 -4.47992e-19)
(-0.0344593 0.0655187 4.40095e-18)
(-0.00028094 -0.00047537 -6.07546e-19)
(-0.000268297 -0.000495951 3.71788e-19)
(-0.0044408 0.00137218 5.03877e-20)
(-0.00428243 0.000971158 -6.53925e-19)
(-0.00473382 0.000916107 -1.92295e-19)
(-3.42865e-05 -1.6439e-05 9.88622e-21)
(-4.71562e-05 -1.81187e-05 -8.76754e-21)
(-4.36851e-05 -2.97054e-05 1.14067e-19)
(-0.000359466 6.27547e-05 -4.11678e-19)
(-0.000359688 7.03715e-05 1.89685e-18)
(0.0307437 0.0762553 7.65281e-19)
(0.0138331 0.0771465 9.0526e-18)
(0.00106286 -0.00105815 5.26538e-20)
(0.00116096 -0.00114188 -6.50061e-20)
(0.00118858 -0.00101276 1.21822e-19)
(0.000352252 2.91355e-05 -6.29774e-20)
(0.000356121 3.1671e-05 6.08215e-20)
(-0.00176533 0.0033932 -3.38916e-19)
(-0.00179653 0.00292378 -6.18022e-19)
(-0.0022821 0.00331508 -1.28068e-18)
(-0.00022046 9.57294e-08 -2.73113e-19)
(-0.000220282 -1.24581e-06 -8.20027e-20)
(-0.000155529 2.97076e-07 -2.6675e-20)
(-0.000259699 6.82444e-06 -5.47365e-20)
(-0.000234529 7.69053e-06 -2.18361e-19)
(7.50431e-06 -0.000193372 -1.75108e-19)
(3.69928e-06 -0.000205239 -1.96347e-19)
(1.87823e-05 -0.000202898 1.44427e-19)
(-0.023651 0.000314061 1.60198e-18)
(-0.0211085 0.0021459 -1.20735e-18)
(-0.0252049 0.00286163 -5.4026e-19)
(0.000761595 -0.00210087 1.1305e-19)
(0.000468166 -0.00204554 -5.7458e-19)
(0.000690412 -0.00184716 4.7664e-21)
(-0.064611 -0.156677 2.07647e-19)
(-0.0582972 -0.0402307 5.78461e-18)
(-0.0608326 -0.0280164 -6.78131e-18)
(-0.049261 -0.0328132 -3.2608e-18)
(-0.0253237 0.0501617 -4.97326e-19)
(-0.0247581 0.0456356 1.2806e-18)
(-0.0322968 0.0435766 3.21104e-19)
(-0.00205475 0.00219008 -6.34013e-19)
(-0.0988688 -0.0161866 2.41839e-18)
(-0.0970138 -0.0281854 -3.87212e-18)
(-0.101166 -0.0360554 -2.86342e-20)
(0.000227277 -9.6579e-05 -3.68062e-21)
(0.000234702 -0.000106899 -1.87449e-20)
(0.000239817 -9.59352e-05 -1.58998e-20)
(-0.00448726 -0.00966471 -2.93153e-20)
(-0.0058253 -0.00898114 -4.88023e-20)
(0.000327586 -0.000966572 -3.65397e-20)
(0.000362472 -0.00102883 2.01925e-20)
(0.000265286 -0.00101023 3.39325e-22)
(0.000730406 0.00684544 -3.83542e-18)
(0.00033991 0.00681694 2.64156e-18)
(0.000178124 0.0063717 -1.14386e-18)
(-0.000784927 0.000477424 -2.09998e-18)
(0.0208343 -0.0612844 8.93285e-18)
(0.0055524 -0.0747846 1.35717e-17)
(0.0225127 -0.0606755 1.66325e-18)
(0.00470988 0.000226907 -7.73559e-19)
(0.00423233 7.98685e-05 -7.40275e-20)
(0.00468541 -0.00046651 2.38697e-18)
(-0.000155426 -1.26913e-05 -3.61633e-20)
(-0.000185603 -1.88778e-05 3.63504e-20)
(-0.000157423 -1.14953e-05 1.46435e-19)
(-0.000654905 0.000109809 -1.02018e-18)
(-0.000633609 0.000100254 1.48556e-18)
(0.00480503 -0.0101524 4.17786e-18)
(0.00569885 -0.011242 -7.05622e-18)
(0.00612138 -0.0097375 -3.77728e-18)
(-0.00107475 0.000417838 -1.74681e-18)
(-0.00106335 0.000398234 9.85365e-19)
(0.000790554 -0.00242638 6.29021e-20)
(0.00105401 -0.00213909 3.6656e-20)
(-0.000722756 0.000393388 7.95179e-19)
(-0.000709441 0.000383203 -2.04425e-19)
(-0.000728671 0.000378886 -3.99543e-18)
(0.000364219 -0.000930594 -3.13531e-20)
(-0.000458886 -0.000188179 -6.84826e-19)
(-0.000476097 -0.000196941 3.64241e-20)
(-0.00407133 -0.0133853 4.36048e-18)
(-0.00413934 -0.0122347 2.77245e-18)
(-0.0051934 -0.0132011 3.21496e-18)
(-0.00798929 0.00097833 -2.18337e-18)
(-0.00830673 0.00152901 -8.84504e-18)
(0.0270553 0.0150854 -4.41939e-19)
(0.0313549 0.014398 8.31197e-20)
(-0.000441451 -0.000182031 2.53934e-19)
(-0.000446804 -0.000205986 2.71194e-19)
(-0.0045622 -0.0150319 -3.78855e-18)
(-0.00254852 -0.0139779 -2.62636e-18)
(0.000503157 -0.000437482 6.31706e-20)
(0.000490944 -0.000422169 -1.38142e-20)
(-0.00869712 -0.0528115 -5.54534e-20)
(-0.0192185 -0.049251 3.01665e-19)
(0.00474535 0.000988777 -6.80095e-19)
(0.00548068 0.000568067 6.93024e-19)
(-0.00396563 -0.000125723 -9.21316e-19)
(-0.0038483 9.4895e-05 -2.90069e-19)
(-0.00374976 -0.0093783 3.98858e-18)
(-0.00346518 -0.00854761 2.61631e-19)
(-0.0027628 -0.00908188 3.43933e-18)
(0.00895557 0.00635846 -8.14482e-18)
(0.00791845 0.00803952 8.39437e-18)
(0.0106438 0.00783327 1.68043e-17)
(0.000801586 0.000282131 3.43961e-20)
(0.000776872 0.000263082 -4.72601e-20)
(-0.00290481 0.00264851 -3.15296e-18)
(-0.00294205 0.00286854 1.97912e-19)
(-0.00321137 0.00263001 2.4059e-19)
(-0.00134689 0.000361344 2.65176e-18)
(-0.00140554 0.000379412 -5.64005e-19)
(-0.00138243 0.00031536 -2.03906e-18)
(-0.000431515 0.00473309 -2.63106e-18)
(-0.000460132 0.00409254 -1.3721e-18)
(0.000967878 0.000235437 -1.32637e-21)
(0.000937299 0.000180651 -4.2027e-20)
(0.00096744 -0.000978853 8.96515e-20)
(0.0009349 -0.00106929 7.91046e-20)
(-0.00319208 -0.00266366 -2.27476e-19)
(-0.00339589 -0.00228079 9.0943e-19)
(-0.00302598 -0.00229131 -5.93406e-19)
(0.0012217 0.00295141 -2.5647e-18)
(0.000795359 0.00289153 2.11458e-18)
(0.000954272 0.00321006 3.38452e-18)
(-0.00582772 0.00213278 -3.06992e-19)
(-0.00598408 0.00205874 1.49285e-18)
(-0.000150502 -0.00106503 -7.08463e-19)
(-0.00013713 -0.00115252 -1.86421e-19)
(-6.1575e-05 -0.0010815 -5.95058e-19)
(0.081181 0.0538057 9.73649e-20)
(0.069816 0.0537058 5.71642e-19)
(0.0813874 0.0485494 -1.58872e-18)
(0.00259552 -0.00780459 2.76681e-21)
(0.00352121 -0.0071177 -7.37891e-20)
(0.00252667 -0.00668547 1.89579e-20)
(-0.00409876 0.00170778 2.9779e-19)
(-0.000275555 0.00113474 -2.52987e-20)
(0.00363888 -0.0104505 4.92639e-18)
(-0.000196579 -0.000529101 -7.85942e-21)
(-0.000203041 -0.000512997 2.14544e-19)
(0.000568643 -0.000104202 -8.98886e-21)
(0.000551928 -9.67468e-05 -5.31727e-21)
(0.000570368 -9.2243e-05 -7.15643e-23)
(0.0106578 -0.0101779 5.91105e-19)
(0.0099879 -0.0083702 7.90743e-19)
(0.00814018 -0.0097447 -2.96539e-19)
(0.0129534 -0.0108477 1.83921e-19)
(0.0105966 -0.0129256 3.8526e-19)
(-0.0244579 0.0450832 5.55901e-19)
(-0.00253786 0.000352082 -7.95475e-19)
(-0.00255732 0.000471456 -1.47493e-18)
(-0.00584062 -0.00664641 6.935e-21)
(-0.00832933 0.0130322 1.0251e-18)
(-0.0105775 0.0133683 2.89272e-18)
(-0.00851514 0.0110304 1.19084e-17)
(0.000162389 -2.78627e-05 2.55099e-19)
(0.000142204 -1.80957e-05 5.40288e-19)
(0.000152609 -3.41757e-05 -7.55652e-19)
(-0.000338112 0.000371121 -1.42599e-19)
(-0.00032491 0.000394757 -1.06215e-19)
(-0.000313398 0.000363246 4.54686e-20)
(-0.00036418 0.000378536 -2.39425e-19)
(-0.000348329 0.000346131 -2.48685e-20)
(-0.0942071 0.000950271 -6.90865e-18)
(-0.00386096 -0.0114872 -2.38784e-18)
(-0.00387348 -0.0102673 2.83364e-18)
(-0.00296749 -0.0111727 3.58247e-18)
(-0.00506911 -0.0166371 1.66225e-19)
(-0.00401716 -0.0187085 3.30315e-18)
(-0.00335709 -0.0173196 -1.58735e-18)
(-0.000164228 1.01859e-06 -6.01346e-19)
(-0.000168555 1.17616e-06 -1.19345e-18)
(-0.000165224 2.79403e-06 1.17327e-18)
(0.000110801 -1.21752e-05 -8.01148e-22)
(8.38879e-05 -7.53255e-06 1.73357e-20)
(0.0585699 0.0946869 2.05178e-18)
(0.0496464 0.102828 7.57357e-18)
(-0.00260759 0.00267173 3.25613e-18)
(-0.000276069 0.000306769 -3.19807e-20)
(-0.00029115 0.000316124 -1.2673e-19)
(-0.000267547 0.000326591 -1.49456e-20)
(-0.00025755 0.000294541 3.99233e-20)
(-0.000282283 0.000287196 1.68379e-19)
(-0.000157066 1.92655e-06 1.27035e-20)
(-7.62566e-05 2.10473e-06 -3.01671e-20)
(-0.000390807 0.000386872 -3.07947e-19)
(-0.000378159 0.000413144 -1.11371e-19)
(-0.000422887 0.000395842 -2.00571e-19)
(-0.000402416 0.000360185 -9.84109e-20)
(0.00245322 0.00457142 -7.13386e-18)
(0.00266757 0.00502918 -5.63467e-18)
(-0.0255597 0.0368117 1.3206e-18)
(-0.0348099 0.0341823 -1.61321e-18)
(-0.0339065 0.0263635 -5.61121e-19)
(-0.000137026 -0.000671361 7.58556e-20)
(-0.000102995 -0.000668218 -2.77539e-20)
(-0.000125719 -0.00064217 -2.64496e-20)
(0.000282566 -0.000172008 8.08217e-21)
(0.000289594 -0.000185615 -1.61194e-20)
(0.000271582 -0.000183215 1.21281e-20)
(0.00146549 -0.00321713 2.42825e-18)
(0.0019652 -0.00302657 -1.88894e-18)
(0.00156632 -0.00275362 1.19299e-18)
(0.000607864 0.00380511 6.15358e-18)
(0.000662758 0.00362289 1.26898e-18)
(0.000928501 0.00392501 -4.10222e-19)
(-0.000218481 1.0695e-05 -9.15413e-20)
(-0.000178722 6.02909e-06 -1.23948e-20)
(-0.00018365 5.95805e-06 8.5618e-21)
(-0.000163411 -2.94288e-07 -1.02204e-18)
(-0.000161383 1.05342e-06 -8.89155e-20)
(0.0792539 0.0587124 4.3313e-18)
(0.0844473 0.0570662 3.38761e-18)
(0.00264466 -6.23662e-05 3.07429e-18)
(0.00272186 -0.00075814 -3.79771e-19)
(0.00251834 -0.000395368 2.83207e-18)
(-0.00474014 -0.0113346 -4.10217e-18)
(-0.00639081 0.0124541 -9.73647e-19)
(-0.00767352 0.0146752 -4.63051e-18)
(0.00853559 -0.00257523 -6.51882e-20)
(0.00913378 -0.00156554 -3.65457e-20)
(0.00976656 -0.00258472 -6.75571e-19)
(0.000144913 -0.000400381 -1.6055e-19)
(0.000148319 -0.000424482 1.9391e-19)
(-0.0863915 -0.0230728 -2.17817e-18)
(-0.0899154 -0.0386586 -2.30996e-18)
(0.00101951 -0.00344753 -5.62388e-18)
(0.00146543 -0.00377072 3.42053e-18)
(-0.00357747 -0.0120894 -7.21199e-20)
(-0.00165857 -0.0121545 -1.62613e-19)
(-0.00250018 -0.00118129 -3.69347e-18)
(-0.00264765 -0.00132237 2.10281e-19)
(-0.00272027 -0.00110401 -1.36263e-18)
(-0.000167097 -0.000991909 3.56965e-19)
(-0.00023392 -0.00103267 -3.13714e-19)
(-0.0163076 0.0379373 2.42883e-18)
(-0.000335346 0.000106922 1.78673e-18)
(-0.000333345 9.69889e-05 1.56015e-18)
(-0.000345421 0.000103424 -8.43951e-19)
(-0.000633628 0.00283578 2.57766e-19)
(-0.00046841 0.00304661 1.47608e-19)
(-0.000347 0.00275845 5.49727e-19)
(0.00362313 0.000200526 -2.42238e-18)
(0.00305275 0.000219683 -1.5254e-18)
(0.00342637 0.00066443 -2.51618e-18)
(-0.0001618 -0.00075665 7.5676e-21)
(-0.000147412 -0.000708717 8.0497e-21)
(-0.000118683 -0.000753387 -5.76647e-20)
(-8.69664e-05 -2.16486e-06 -1.25616e-19)
(-0.000958853 2.12426e-06 -9.05885e-19)
(0.0053829 -0.00168793 -2.00061e-19)
(0.00460678 -0.00147479 1.83416e-19)
(0.00520028 -0.000745238 3.14314e-20)
(0.000763239 0.000443885 -1.04984e-20)
(0.000774631 0.000446288 3.81274e-19)
(0.000754872 0.00045963 1.91178e-19)
(-0.00295735 0.00324299 -5.37057e-19)
(-0.00296118 0.00305911 -1.21398e-19)
(-0.00325186 0.00301309 3.92829e-19)
(-0.0335493 -0.116336 6.10975e-19)
(-0.0461165 -0.121756 3.59416e-18)
(-0.0286399 -0.0951392 -8.06471e-19)
(0.000273281 0.00102625 3.75148e-19)
(0.000321771 0.000949823 1.40389e-19)
(0.000222691 0.000950495 -1.31017e-19)
(-0.000236228 0.000295405 -2.16912e-20)
(-0.000242411 0.000273906 -1.5263e-20)
(0.00112037 -0.0012676 -6.99523e-20)
(0.0012916 -0.00124652 -1.53977e-19)
(-0.000227482 0.000315985 -8.31215e-20)
(-0.000217326 0.000294474 -5.71936e-20)
(-0.000336086 0.000117502 2.30994e-18)
(-0.000148916 -4.15876e-08 1.95869e-19)
(-0.000118257 -2.8991e-07 6.09139e-19)
(-0.000472848 0.000496876 2.38807e-18)
(-0.000389442 0.000438645 -2.49554e-19)
(-0.000365272 0.00054446 3.09971e-18)
(0.00021996 0.00111925 4.62608e-19)
(0.000341432 0.00112168 1.24543e-19)
(-0.00584984 0.00194487 -6.0967e-18)
(-0.00565805 0.00194533 -2.88446e-19)
(-0.0189397 0.0296616 1.46462e-18)
(-0.0162628 0.0265143 -2.76676e-18)
(-0.000330822 -0.000235513 -8.17808e-19)
(-0.000330734 -0.000213273 -1.09965e-19)
(-0.000315805 -0.000232558 1.19558e-19)
(0.00301241 -0.00188234 -1.70792e-19)
(0.00348596 -0.00223326 -1.48078e-20)
(0.00290967 -0.00240014 1.77929e-20)
(0.0167757 -0.022042 7.7604e-18)
(0.0191256 -0.0196959 9.21263e-19)
(0.0167235 -0.0229116 4.22334e-18)
(-0.00062929 9.05094e-05 -8.62575e-20)
(-0.000650892 6.35208e-05 9.66878e-20)
(-0.000609055 6.43892e-05 -1.28805e-20)
(-0.0228557 0.0224089 -1.71359e-20)
(-0.021147 0.026359 1.34248e-18)
(-0.0188805 0.0220018 2.12515e-18)
(-0.0026355 0.00350178 -2.53329e-18)
(-0.00294064 0.00342305 4.38309e-18)
(-0.000605343 0.000110857 -9.59467e-20)
(-0.000648281 0.000116309 -9.36431e-20)
(0.000425166 0.00335011 2.87169e-20)
(0.000104174 0.00325797 -1.62379e-18)
(0.000753483 0.000445858 -1.1559e-19)
(0.00075816 0.000435759 -4.76827e-20)
(-0.0215527 -0.00267769 1.68197e-18)
(-0.0248385 -0.00288174 2.78707e-18)
(-0.000148099 -1.28731e-05 -5.92535e-20)
(-0.000109125 -5.70496e-06 -9.30466e-20)
(-4.50325e-05 0.00147487 1.15814e-19)
(-0.000439246 0.00141748 3.58409e-21)
(-0.000205886 0.00108479 2.0979e-19)
(-0.000186068 -0.000780018 4.9996e-21)
(-0.000197014 -0.000740194 2.47774e-20)
(0.000257945 -0.000448335 -1.07157e-19)
(0.000278133 -0.00044054 3.69418e-20)
(0.00025408 -0.000425669 -2.15884e-19)
(-0.00677003 -0.00468845 4.23881e-19)
(-0.00640755 -0.00436844 5.968e-18)
(-0.00698279 -0.00419598 4.73897e-18)
(0.000333035 -5.29124e-06 3.49405e-20)
(0.000325227 -6.78653e-06 -2.37119e-19)
(0.000275965 -2.12559e-06 8.65007e-20)
(-0.0177321 0.0515523 3.55011e-18)
(-0.0123284 0.0558577 -4.97833e-18)
(-0.00183789 0.00066436 1.36777e-18)
(-0.00195774 0.000723113 4.49473e-19)
(-0.00192776 0.000569153 -6.96689e-20)
(-0.00473815 0.00437695 -5.53792e-19)
(-0.00632618 0.00398869 2.04032e-19)
(0.0508176 0.0463783 -2.54871e-18)
(0.0520222 0.0525114 3.0775e-18)
(0.0343095 0.0488024 -9.77204e-19)
(-0.00602532 0.00197049 -1.52133e-19)
(-0.000242129 1.54901e-05 -1.34677e-19)
(-0.000246609 1.31058e-05 8.83287e-23)
(-0.000219791 -0.000771777 4.71598e-19)
(-0.000316863 -0.000925373 -3.47428e-19)
(-0.000408243 -0.000768858 6.17647e-20)
(0.00523817 -0.0036807 -4.35494e-19)
(0.00546426 -0.00264661 1.06408e-19)
(0.00455123 -0.00319764 6.08912e-19)
(-0.00138194 -0.0007905 -2.49173e-19)
(-0.00141867 -0.000892107 -3.96278e-20)
(-0.00129897 -0.00086033 -4.18696e-19)
(0.00488812 -0.00493473 -5.34824e-19)
(0.0038215 -0.00489791 3.46504e-19)
(-0.00109401 -0.000282317 -9.14254e-21)
(-0.00114326 -0.000254579 1.22359e-19)
(0.000772262 0.000362902 2.21448e-19)
(0.000768188 0.000392227 6.71513e-21)
(0.000750473 0.000378883 1.65023e-19)
(0.000353669 -8.82709e-06 2.47379e-20)
(0.000336588 -4.05547e-06 9.10806e-20)
(0.0089118 -0.00887283 1.92632e-18)
(0.00857753 -0.0104596 1.41814e-18)
(0.00741402 -0.00926949 -2.43743e-18)
(-0.0115426 -0.00623683 -5.84767e-21)
(-0.0130722 -0.00962949 3.81315e-19)
(-0.00825099 -0.00826229 2.01599e-19)
(-0.000670072 0.0025153 -6.88191e-19)
(-0.000904171 0.00274609 5.6006e-19)
(-0.00106042 -0.000240483 -6.87042e-19)
(-0.00104449 -0.000295615 1.6834e-20)
(-0.000161987 -1.96266e-06 4.61748e-19)
(-0.000159295 -2.10797e-06 1.08038e-18)
(-0.000161119 -3.83608e-06 5.12182e-19)
(-0.001716 0.00384153 3.33458e-18)
(-0.00113161 0.00345976 4.11185e-18)
(0.00168551 0.00286062 -2.56921e-18)
(0.00172884 0.00256923 -4.83116e-18)
(0.000728238 -0.000154405 -3.47455e-20)
(0.000731083 -0.000137186 3.89785e-20)
(0.000705056 -0.000142042 4.24119e-20)
(-0.00650313 0.00323605 6.36795e-19)
(-0.00888868 0.00323454 -3.49068e-19)
(-0.00697708 0.00156712 -6.96646e-19)
(-0.00145642 -0.000725186 4.26595e-19)
(0.0727495 0.000576173 9.91953e-20)
(0.065576 0.00882251 2.09169e-20)
(0.0583822 -0.00121155 -1.79168e-19)
(-0.00269693 0.00216584 5.17511e-20)
(-0.00265329 0.00237512 1.62208e-18)
(-0.00250039 0.00218084 -2.2899e-18)
(-0.00847855 0.0236425 6.05952e-18)
(-0.00529218 0.0241539 -3.42631e-18)
(-0.00829665 0.0270428 1.16848e-18)
(0.0173088 -0.0624394 -4.49997e-18)
(0.0248641 -0.0555491 -4.14751e-18)