/*--------------------------------*- C++ -*----------------------------------*\
| =========                 |                                                 |
| \\      /  F ield         | OpenFOAM: The Open Source CFD Toolbox           |
|  \\    /   O peration     | Version:  v2012                                 |
|   \\  /    A nd           | Website:  www.openfoam.com                      |
|    \\/     M anipulation  |                                                 |
\*---------------------------------------------------------------------------*/
FoamFile
{
    version     2.0;
    format      ascii;
    class       volVectorField;
    location    "550";
    object      U;
}
// * * * * * * * * * * * * * * * * * * * * * * * * * * * * * * * * * * * * * //

dimensions      [0 1 -1 0 0 0 0];


internalField   nonuniform List<vector> 
13917
(
(0.467275 0.00698453 -2.58518e-20)
(1.02781 0.028772 6.83573e-22)
(1.07058 0.0391219 2.18338e-21)
(1.03768 0.00845102 7.85059e-21)
(1.03318 0.0157117 5.14288e-22)
(1.02583 0.0273973 -8.80558e-22)
(1.05074 0.0189178 -2.12087e-22)
(1.06082 0.0460397 -9.84922e-22)
(1.05879 0.0108534 0)
(0.00043087 -0.0393138 -1.91545e-22)
(1.05819 0.0436531 9.23719e-23)
(1.03011 0.00784547 -4.32104e-21)
(1.01071 6.62311e-05 0)
(0.7644 -0.0730742 0)
(1.0241 0.0140836 0)
(0.444861 0.00398024 3.09802e-20)
(1.00091 -4.61769e-05 5.65554e-24)
(1.05559 0.0331196 0)
(1.06973 0.0408904 1.14478e-20)
(0.452455 0.0240207 -2.79906e-20)
(1.03507 0.0160108 7.82076e-22)
(1.02173 0.00865644 0)
(1.05963 0.0329352 1.03217e-20)
(1.02154 0.00869066 0)
(1.03744 0.013715 -6.75157e-21)
(1.0366 0.0154736 6.8716e-23)
(0.758292 0.0631042 -1.35372e-20)
(-0.00256333 -0.0312923 1.15286e-20)
(1.04511 0.0182359 0)
(1.01612 0.00187704 -6.00953e-23)
(0.0147849 -0.0396432 -1.19108e-20)
(1.06973 0.0350484 -1.24338e-22)
(1.03497 0.0102202 0)
(0.522076 0.0170277 1.82156e-20)
(1.01185 0.00792695 0)
(1.06074 0.056115 9.41923e-22)
(1.03179 0.0145272 -1.18535e-21)
(1.00513 0.00020818 -6.435e-22)
(1.05159 0.0189875 9.92453e-21)
(1.03177 0.0220943 0)
(1.00143 -9.58037e-05 6.75909e-22)
(1.00633 -7.63255e-05 0)
(1.05428 0.00753338 1.8363e-20)
(1.07014 0.0393407 0)
(1.06988 0.0393912 -5.66312e-21)
(1.07275 0.0796986 -7.22397e-21)
(1.03485 0.0164321 -1.04842e-21)
(0.181778 -0.027535 0)
(0.957511 0.140436 0)
(1.01208 0.00801725 0)
(1.02965 0.00764596 5.87006e-21)
(1.06165 0.0583522 -5.63706e-21)
(0.364358 0.00208829 1.4467e-20)
(1.02546 0.00870058 -1.23976e-21)
(1.02659 0.00905912 4.24598e-21)
(1.0629 0.0566861 -7.90175e-21)
(-0.0373902 -0.0151198 6.39873e-21)
(1.05883 0.0328674 -4.49989e-21)
(1.00661 -0.000316562 0)
(1.07128 0.0830688 0)
(0.494364 0.0672046 -1.53147e-20)
(1.00841 0.0134961 0)
(1.00482 3.47326e-05 5.41971e-23)
(1.0372 0.0133039 0)
(0.821392 0.0363889 1.31791e-23)
(1.02856 -0.0029257 0)
(1.04844 0.0212688 6.05943e-22)
(1.05437 0.0604214 0)
(1.06085 0.0352123 3.43221e-23)
(0.429747 0.00647267 1.47573e-20)
(0.954296 0.0377105 0)
(0.504345 0.0145752 1.00113e-20)
(1.03376 0.00247369 1.32094e-20)
(1.00665 3.51742e-05 3.42541e-22)
(1.0348 0.0158395 0)
(1.03546 0.0146732 0)
(1.02783 0.0110831 -1.38321e-21)
(1.00681 -0.000153189 3.13544e-22)
(1.03534 0.014307 0)
(1.03535 0.0104858 -1.01107e-20)
(1.02537 0.0103509 -9.45173e-22)
(1.00093 2.43921e-05 3.94731e-23)
(1.03328 0.00214013 -7.02972e-21)
(0.96483 0.0388748 -1.06374e-20)
(1.01726 0.00176168 -4.8636e-21)
(1.09528 -0.00850512 -1.45161e-21)
(1.06943 0.0346042 -9.56795e-21)
(1.01674 0.000951415 0)
(1.03205 0.0212053 -1.01407e-21)
(1.00136 -5.30845e-05 0)
(1.00328 -0.000179442 6.02916e-22)
(1.05528 0.00769274 -2.72464e-20)
(0.936818 0.133363 0)
(1.00973 0.00617206 1.52858e-22)
(1.02762 0.010963 -1.14125e-21)
(1.04779 0.0180123 0)
(0.832626 -0.0153109 -5.07539e-21)
(1.00234 0.000177877 -1.7408e-22)
(1.01712 0.00103962 0)
(0.985178 0.00560565 1.21058e-20)
(1.00345 -4.09273e-05 0)
(1.00408 -9.13117e-05 6.83111e-23)
(1.02568 0.0105973 1.12314e-21)
(1.00498 0.000562953 -6.32778e-23)
(1.0274 0.0114033 7.05835e-22)
(0.968052 0.0480177 -8.06964e-22)
(0.526314 0.0147472 0)
(1.00748 0.0118592 -6.76281e-22)
(1.00617 -0.000530111 -4.19673e-22)
(0.67024 0.0763259 -1.34156e-20)
(1.02019 -0.000159562 -3.87726e-21)
(0.535085 0.0188203 9.2974e-21)
(1.04416 0.0158217 0)
(0.11391 -0.0386719 -2.6847e-23)
(0.837927 0.0363085 0)
(1.03488 0.0152058 -7.72926e-21)
(1.06928 0.040678 1.00885e-20)
(1.00392 -0.000263187 0)
(1.07143 0.0394374 0)
(1.03167 -0.000254645 -3.66199e-21)
(1.00144 5.05278e-05 8.25236e-23)
(1.00657 0.000709842 6.04433e-22)
(1.05168 0.0216241 1.15987e-22)
(1.06519 0.0449392 2.36363e-20)
(0.399677 0.00579153 -1.26308e-20)
(0.925044 0.0405489 0)
(1.03731 0.0126865 -3.46493e-21)
(1.03487 0.0152222 0)
(1.01401 0.00706781 -1.16693e-22)
(1.06596 0.0447216 -1.92087e-20)
(1.06338 0.0219461 1.12877e-20)
(1.01743 0.0851821 -1.46404e-21)
(0.661717 0.0392613 7.98326e-21)
(1.03455 0.0151555 0)
(1.07009 0.0368832 1.1677e-20)
(0.624761 0.066796 1.42721e-20)
(0.484793 0.0884342 -1.07328e-20)
(0.358577 0.00793069 1.31051e-20)
(1.03806 0.0152094 4.55086e-24)
(1.00297 0.000112938 1.21932e-21)
(0.843275 -0.158391 2.09671e-21)
(1.00675 0.000130524 2.99642e-22)
(0.98458 0.047289 -3.06239e-21)
(1.01799 0.00610196 3.49006e-22)
(1.03177 0.00264054 0)
(1.00614 -0.00579405 0)
(0.960951 0.0390141 0)
(0.870784 -0.163089 3.32664e-21)
(0.220112 -0.00610154 -1.83635e-20)
(1.02589 0.00893917 1.63971e-21)
(1.03327 0.0204622 -6.81583e-22)
(1.0046 -6.91381e-05 -6.90126e-23)
(1.03133 0.0022562 0)
(1.03185 -0.000593568 -8.53368e-21)
(0.753089 -0.0076528 6.01233e-21)
(1.02215 0.0106164 -1.71584e-22)
(1.00519 0.000615524 8.74561e-23)
(0.624064 0.0381267 1.88201e-20)
(1.00234 -0.000121864 2.92792e-22)
(1.00339 -0.000267331 -1.31419e-22)
(1.01756 0.00390532 2.31545e-21)
(0.728958 0.0242434 3.35137e-24)
(1.03131 0.0163058 2.7113e-22)
(0.837901 -0.155341 0)
(0.592966 -0.00367855 2.18685e-20)
(0.968928 -0.0012346 8.78595e-21)
(0.245112 0.00215653 -1.68663e-20)
(0.341827 -0.0446661 -4.71068e-20)
(1.0084 0.000365378 -1.97367e-23)
(1.03899 0.0145371 -8.84174e-23)
(1.02208 0.00900091 3.62905e-23)
(0.674021 0.0368044 0)
(1.05898 0.0101225 0)
(0.601288 0.0741414 3.81881e-20)
(1.04547 0.0489238 -3.43796e-21)
(1.00375 -0.000109819 -1.2852e-22)
(1.03811 0.00818136 5.42562e-21)
(1.06229 0.0626893 -1.19167e-20)
(1.06309 0.0211927 8.82115e-21)
(1.03155 0.0167381 -2.90055e-22)
(1.05297 0.00825527 -1.92673e-21)
(1.02166 0.00888585 -3.14863e-23)
(1.02941 0.00782822 0)
(1.07476 0.0548238 1.25844e-20)
(1.07173 0.0393517 -2.56066e-22)
(1.01299 0.0864564 1.263e-21)
(1.02898 0.00765561 0)
(1.07468 0.0567605 -8.92178e-21)
(1.01624 0.00174094 7.51064e-23)
(1.08066 -0.00250785 -2.97964e-22)
(1.04365 0.0494082 1.27893e-20)
(1.06964 0.0391002 -5.72746e-21)
(1.0712 0.0513926 -6.43486e-22)
(0.473039 0.0095109 -3.58884e-21)
(1.00995 0.00630374 1.85916e-22)
(0.408185 0.0067906 0)
(1.04037 0.0187895 4.54362e-21)
(0.700566 0.0413752 -8.01808e-21)
(1.01149 0.00758197 0)
(1.0218 0.0102268 1.61658e-22)
(1.03468 0.0168765 0)
(0.433961 0.00606074 1.06053e-20)
(0.347588 0.00679376 0)
(1.03006 0.0137569 -1.23169e-21)
(0.82437 0.0834608 -1.88781e-20)
(1.03712 0.0208627 0)
(1.03304 0.0212065 0)
(1.00658 0.000558819 -6.50484e-22)
(1.06307 0.0602157 -4.91e-22)
(1.02519 0.010266 3.7885e-22)
(1.01127 0.00496886 -2.83975e-23)
(1.03741 0.0222527 0)
(1.04097 0.0232048 -1.66537e-21)
(0.238636 -0.0128704 0)
(1.07012 0.0365475 0)
(1.03711 0.0148409 -2.23428e-22)
(0.683559 0.028636 9.41768e-21)
(1.01163 0.000717611 1.83351e-21)
(1.00615 -0.00152115 0)
(1.00625 -0.00162623 4.80394e-22)
(0.274825 -0.0574864 4.6867e-20)
(1.07383 0.0535452 0)
(1.08335 0.0596603 -5.03968e-21)
(1.02077 0.000671985 0)
(1.00388 -2.70036e-05 -3.30594e-23)
(0.548317 0.0731304 -1.23026e-20)
(0.398886 0.00609613 0)
(1.00559 -0.00115989 0)
(1.00546 -0.00112753 -4.66254e-22)
(1.00124 -0.000122892 0)
(1.00653 -0.0018314 -5.8759e-23)
(1.00664 -0.00194892 5.83007e-23)
(0.49512 0.0128498 7.37109e-21)
(0.398934 -0.00970816 -9.27874e-21)
(1.02335 0.00905456 0)
(1.00991 0.00066746 1.89017e-23)
(1.05619 0.0472556 0)
(0.478356 0.0126859 1.06592e-20)
(1.0019 -0.000122405 0)
(1.02057 0.000681025 -2.64476e-22)
(0.776126 0.0859136 5.94299e-21)
(0.977817 0.0484798 -1.37994e-20)
(1.07524 0.0539454 -1.32608e-20)
(0.670105 0.028741 -1.71297e-22)
(1.04601 0.0604352 6.46039e-21)
(1.01819 0.00610134 -5.11003e-22)
(0.437221 -0.026984 1.20034e-21)
(1.05758 0.0476093 2.68976e-21)
(1.04224 0.0163559 2.66973e-22)
(1.06622 0.0388982 0)
(1.02997 0.0134252 -6.83916e-22)
(0.363696 -0.00662813 0)
(1.03214 0.000446165 9.22744e-23)
(1.03788 0.0316406 0)
(1.04548 0.046025 -5.21063e-21)
(1.02355 0.00917295 4.09855e-22)
(1.00066 -3.00876e-05 -6.1584e-22)
(1.03755 0.0131042 -5.71594e-23)
(1.02588 0.0171569 1.69367e-21)
(1.00996 0.00683556 0)
(0.43259 0.0113238 0)
(0.827388 0.119979 0)
(1.00658 0.00236676 3.11304e-22)
(1.00523 -0.000945113 1.15782e-22)
(1.02273 0.0108268 2.20538e-22)
(1.00519 -0.000857244 -1.19245e-22)
(1.03227 0.000138991 1.18208e-20)
(1.01631 0.000149518 -8.85206e-22)
(1.04999 0.0303887 0)
(1.00653 0.00240799 -3.11559e-22)
(0.363305 0.0108117 1.70069e-21)
(0.544361 0.0150574 0)
(1.02588 0.00643585 3.07009e-21)
(1.02617 0.0142566 0)
(1.05419 0.0914703 -8.13006e-21)
(1.00886 -0.00307091 9.6291e-23)
(0.999011 0.00790046 -4.3269e-21)
(0.451165 0.0145323 1.14255e-20)
(1.00867 -0.0030288 -5.08855e-22)
(0.449096 0.0085273 -1.42756e-20)
(1.00965 0.00649892 0)
(0.744971 0.0261648 8.81082e-21)
(1.00319 -8.62594e-05 2.16717e-22)
(1.02492 0.0124955 -8.77954e-22)
(1.02376 0.00927038 0)
(1.01719 0.00608168 4.40656e-22)
(1.07214 0.043403 1.39017e-20)
(1.00644 0.00039768 0)
(0.966601 -0.00289686 0)
(1.03846 0.0209839 0)
(0.764769 0.116425 1.19621e-20)
(1.00472 -0.00638887 -1.59243e-23)
(0.937555 0.0770809 0)
(0.343007 0.00754723 -1.78765e-21)
(1.00294 -0.000202349 0)
(1.05657 0.037467 1.3602e-20)
(1.02861 0.0170434 1.79763e-21)
(1.03437 0.0154802 0)
(1.0315 0.0159575 0)
(1.03573 0.0142517 5.17168e-21)
(1.00964 0.00626112 0)
(1.00735 0.000522909 0)
(1.0584 0.0657548 0)
(1.02863 0.00148216 5.53948e-22)
(1.03801 0.0309203 0)
(1.03561 0.0139372 -5.04494e-21)
(1.02036 0.000773654 -2.52503e-21)
(0.649189 0.0399281 -1.83984e-20)
(0.420211 0.00479128 -2.19009e-21)
(1.01287 0.00665189 3.09546e-22)
(1.01944 -0.0135962 4.10786e-22)
(1.03467 0.01555 -3.6385e-21)
(1.05057 0.0787973 0)
(1.07245 0.0400965 3.26474e-20)
(0.55375 0.0199748 0)
(0.639082 0.0684416 -1.43804e-20)
(1.0314 0.00118757 0)
(1.01752 0.079097 0)
(1.02514 0.0139656 2.03523e-23)
(0.990225 0.0381862 0)
(1.06816 0.0916104 -8.7792e-22)
(1.07094 0.0393486 0)
(1.01568 0.000180105 2.16627e-21)
(1.02417 0.0132889 2.83288e-22)
(0.810434 0.0665968 7.24141e-21)
(1.02249 0.00963939 0)
(1.02812 0.030793 -2.26128e-22)
(1.06932 0.0391709 0)
(1.00104 -8.12295e-05 -3.4571e-22)
(0.684623 0.0370705 -1.68985e-20)
(1.01713 0.00139578 -2.74393e-21)
(1.07221 0.0246617 2.11444e-20)
(1.01436 -0.00413276 1.71888e-22)
(0.385764 0.0197992 3.1602e-20)
(1.01026 0.00276343 -3.22519e-22)
(1.03945 0.0299264 -3.69601e-21)
(1.03803 0.0204729 -5.2335e-23)
(1.03067 0.00322686 3.78557e-23)
(1.00175 -8.63253e-05 8.40408e-23)
(1.06695 0.0382231 0)
(1.00457 0.0461707 1.56562e-21)
(1.02769 0.0106209 -1.24034e-21)
(1.02235 0.0097803 0)
(0.557809 0.0217817 -1.87898e-20)
(0.999472 0.0477985 0)
(0.803153 0.0465517 3.27991e-20)
(0.823377 -0.0418481 -4.17666e-21)
(1.00823 -0.00274378 -3.77797e-22)
(1.02371 0.00913195 5.11905e-22)
(0.969436 0.0495017 1.44384e-20)
(1.02254 0.0789757 3.26965e-21)
(1.00804 -0.00271697 0)
(1.03043 0.0174866 -1.43225e-21)
(1.02745 0.00831217 0)
(1.03213 0.00710604 1.50714e-21)
(1.03924 0.030702 0)
(1.06729 0.0496273 8.47149e-21)
(1.02997 0.0590854 3.11052e-21)
(1.00165 0.00417792 7.25663e-21)
(1.06962 0.0255648 -2.22351e-21)
(0.511162 0.0156735 0)
(1.0144 0.00729136 1.36841e-23)
(1.02796 0.0106103 0)
(1.03492 0.0164188 -6.71908e-22)
(1.07354 0.0410061 1.48462e-20)
(1.00131 -0.000104023 3.27691e-22)
(0.457565 0.00645037 -1.06457e-21)
(1.06991 0.0250946 0)
(0.885477 0.108061 4.51622e-21)
(1.02681 0.00931351 -1.10481e-22)
(1.02707 0.0711976 7.81154e-21)
(1.01735 -0.0120166 2.30884e-22)
(0.919989 0.0954431 -8.48846e-22)
(1.00775 -0.00175545 -3.8443e-22)
(1.08202 0.0570005 -2.15854e-20)
(1.06195 0.0879387 0)
(1.03956 0.0208407 -2.08953e-22)
(1.02615 0.00670872 0)
(1.04792 0.0389592 2.07276e-20)
(1.0159 -0.00410653 3.41184e-22)
(0.575831 -0.0028987 3.09348e-22)
(1.07318 0.0515486 1.23157e-20)
(1.00823 -0.00203979 -7.61778e-22)
(0.942061 0.105992 -3.74721e-21)
(1.02438 0.00953121 0)
(0.979189 0.0268789 0)
(1.00725 0.00358485 -2.41565e-22)
(0.467855 0.0226893 4.2086e-20)
(0.968393 0.0264812 -4.7853e-22)
(1.03236 0.0139295 0)
(0.518245 0.0907425 1.15968e-20)
(1.01055 0.00448971 -4.19413e-21)
(1.02938 0.0127965 0)
(0.694226 0.0201631 -3.12819e-20)
(1.07627 0.0453648 -1.39121e-20)
(1.03232 0.0133092 2.19312e-21)
(1.07277 0.0439376 -1.31679e-20)
(1.02378 0.00896885 -6.18944e-22)
(1.01104 -0.0013411 4.01769e-21)
(1.07154 0.0391568 -1.69459e-20)
(1.01724 0.00122799 3.18438e-21)
(1.05421 0.0160914 1.17201e-20)
(1.03599 0.0138578 3.21838e-21)
(1.01715 0.00580519 0)
(1.01324 0.00290768 -1.21992e-21)
(1.01501 0.00752441 4.05974e-22)
(0.408601 0.0855628 0)
(0.969545 0.0109765 -6.96319e-21)
(1.02738 0.00998299 -3.37811e-21)
(1.01507 0.0078206 -2.04233e-22)
(1.02083 0.00826826 -1.49769e-22)
(1.05191 0.0380791 0)
(1.02959 0.0785035 8.02187e-23)
(1.01155 -0.00380345 7.00522e-22)
(1.00828 0.00031137 1.7961e-23)
(1.07228 0.03979 -3.68593e-20)
(1.02359 0.0683965 -4.78306e-21)
(1.01755 0.00628748 -1.12756e-21)
(1.03222 0.0137352 2.28826e-21)
(0.743782 0.0730738 2.09434e-20)
(0.594726 -0.0544943 0)
(1.03018 -0.00582503 0)
(1.0701 0.0406722 0)
(1.03081 0.03861 0)
(1.00827 -0.00339228 0)
(1.01069 -0.00356213 3.42649e-22)
(1.03519 0.0165965 8.6724e-22)
(1.01307 0.00277422 0)
(1.01134 -0.00385093 1.69174e-23)
(1.02357 0.00918198 0)
(1.01049 -0.00360343 1.8731e-24)
(1.00825 -0.00339578 5.4754e-22)
(0.397677 -0.029281 -9.46842e-21)
(1.02413 0.00917788 0)
(1.03122 0.0246033 0)
(0.378235 0.0128893 0)
(1.05553 0.0372279 8.54298e-21)
(1.01161 0.00517505 6.4818e-23)
(1.03072 0.00234836 0)
(0.703538 0.0192321 1.67564e-20)
(1.03478 0.016686 -5.4471e-22)
(0.382193 0.00391385 -7.49071e-21)
(1.01343 -0.00409334 6.77355e-22)
(1.0223 0.00240872 -3.61754e-21)
(1.01638 -0.0042114 -1.75967e-22)
(1.00695 -0.00218343 5.42696e-22)
(1.03146 0.014223 0)
(1.0247 0.00957477 -2.0989e-22)
(0.763032 0.0780462 -2.08784e-20)
(1.01743 -0.00443467 -4.84114e-22)
(0.957866 0.0487893 0)
(1.02209 0.00247243 3.32638e-21)
(1.06055 0.0257815 9.97395e-21)
(1.01649 -0.00868305 0)
(1.02488 0.0100028 -4.44163e-22)
(1.04806 0.0587769 -9.64893e-21)
(0.796422 0.0494628 7.02479e-21)
(1.02729 0.00805337 -1.26443e-21)
(0.454496 -0.0354752 8.72671e-22)
(1.01218 0.00541007 -9.96561e-24)
(1.01183 0.00107981 4.20031e-22)
(1.0204 0.00811573 0)
(1.02444 0.00956193 -6.08427e-23)
(1.0106 0.0045557 3.0808e-23)
(1.01491 0.00079354 5.16237e-22)
(0.637558 0.0385697 0)
(0.559082 0.0675236 -1.61514e-20)
(1.01028 0.00434579 1.39413e-23)
(0.928374 0.087947 3.86054e-21)
(1.07177 0.0395465 4.10845e-21)
(1.01971 0.000259784 -5.31498e-21)
(1.05623 0.03942 -8.69892e-21)
(1.0766 0.0347198 -6.8103e-21)
(0.643501 0.00571477 -5.63291e-21)
(1.05632 0.0169588 -6.81018e-21)
(0.969345 0.0464379 0)
(0.933334 0.092412 -8.28878e-22)
(0.949412 0.0882275 0)
(1.02471 0.0095685 -1.38042e-22)
(1.02883 -0.000654289 0)
(1.01679 -0.0116619 -3.21528e-22)
(1.02952 0.0131284 1.21953e-21)
(0.955296 0.0516624 -9.21102e-22)
(1.00306 -0.000152583 -2.15457e-22)
(1.02526 0.00838431 3.89371e-21)
(1.02788 0.0109608 2.98904e-21)
(1.05609 0.0139471 -1.25135e-20)
(1.03414 0.0171162 -1.81995e-21)
(1.07132 0.039753 0)
(1.06363 0.0343543 -2.0463e-21)
(1.00282 -0.000403878 -1.02179e-21)
(1.02674 0.0152288 0)
(1.0563 0.0270031 0)
(1.02571 0.0304983 -1.58031e-21)
(1.02709 0.00990012 8.10192e-22)
(0.695017 -0.0952616 0)
(1.05341 0.0293296 8.08454e-21)
(1.03901 0.0211474 0)
(0.600327 0.014335 -2.66958e-21)
(1.01731 0.00156527 3.21623e-21)
(1.02417 0.0314344 0)
(1.06507 0.0645812 -1.41044e-20)
(1.01105 0.00221986 0)
(0.535944 0.0327302 -2.71147e-22)
(1.01194 0.00106614 -1.20665e-21)
(1.00705 -0.00229238 -3.30232e-22)
(1.05295 0.0385613 0)
(1.01321 -0.00418429 -3.60457e-22)
(1.01191 0.00077564 -1.17009e-21)
(1.05534 0.0656684 0)
(0.596399 0.0399302 -2.88705e-20)
(0.422506 0.0797212 0)
(1.01745 0.00367293 -3.74627e-21)
(1.04184 0.00731053 -5.33174e-21)
(1.00393 0.00390723 2.69575e-22)
(0.985186 0.0609329 -1.12082e-20)
(0.932454 0.104448 1.03372e-20)
(1.0265 0.00947518 3.07347e-21)
(1.02614 0.00886897 -3.04813e-21)
(1.01698 0.00332554 0)
(1.04681 0.0432895 0)
(0.984061 0.142362 -3.8494e-21)
(1.01387 0.00740744 0)
(1.00183 -0.000142248 -2.8393e-22)
(1.02127 0.0100292 0)
(1.01691 0.00552797 -1.29108e-21)
(1.02162 0.0114527 0)
(1.04446 0.022729 0)
(1.00271 -0.00014308 -1.93627e-22)
(1.06327 0.0348928 2.11092e-21)
(1.01096 0.0020857 0)
(1.02132 0.00830924 0)
(1.03591 0.0135563 -1.44919e-21)
(0.551349 0.022796 1.95645e-20)
(1.00395 0.000341288 7.85069e-23)
(1.04804 0.0113999 3.74084e-21)
(1.01015 0.0069858 7.9828e-22)
(1.06009 0.0251357 0)
(1.05945 0.0420564 -1.03874e-20)
(1.04175 0.00487459 0)
(1.04623 0.0473939 -6.60836e-21)
(0.977738 0.011402 -2.05736e-21)
(1.03447 0.012909 9.96678e-22)
(1.05194 0.026135 -5.37841e-22)
(0.727334 0.0423611 -4.02334e-21)
(0.429982 -0.0222282 2.30168e-20)
(0.397747 0.016335 0)
(1.01174 0.006211 0)
(1.01985 0.00802636 -1.31226e-22)
(1.00162 -0.000666388 0)
(1.02481 0.00455785 -2.07436e-21)
(0.828653 0.0371895 6.17836e-21)
(1.00936 -0.00334529 -4.36842e-22)
(0.959791 0.175438 0)
(1.04088 0.0187652 -2.13798e-21)
(0.809588 0.0409431 1.42246e-20)
(0.992598 0.00786222 -1.32056e-20)
(1.05387 0.00833414 -1.14074e-20)
(0.0365428 0.00612403 -1.87145e-20)
(1.01009 0.00436047 -1.37275e-23)
(1.07439 0.0327539 2.67954e-20)
(1.00292 0.000240262 4.12068e-23)
(1.0099 0.00714928 4.25213e-22)
(0.77307 0.0392598 -1.00038e-20)
(1.01249 -0.00398162 4.17734e-22)
(1.07156 0.0410342 2.37656e-20)
(1.00372 -3.38493e-05 0)
(1.01849 9.31196e-05 6.87588e-21)
(1.02027 0.00819373 0)
(1.07093 0.0398712 -5.10026e-23)
(1.02201 0.0120564 0)
(1.00461 -0.000493415 -2.74089e-22)
(1.07049 0.0391188 1.37205e-20)
(1.05521 0.0391368 8.75823e-21)
(0.811535 0.0073639 1.7397e-21)
(1.0011 0.0370308 -1.11605e-20)
(0.667496 0.0412741 8.11941e-21)
(0.628254 0.00106244 -1.16264e-20)
(1.00396 0.000355749 0)
(0.414459 0.0046721 2.36328e-20)
(1.00629 -2.47316e-05 -1.27756e-22)
(0.514093 0.0845098 0)
(0.86807 -0.147217 6.95449e-22)
(1.01026 0.00742821 4.75234e-22)
(1.01381 -0.00958253 5.40597e-22)
(1.00394 -3.17008e-05 -6.05528e-23)
(1.0529 0.0289469 1.48029e-20)
(1.05248 0.00739666 -8.48291e-21)
(1.01227 -0.00405363 -4.3504e-22)
(1.00305 0.000263996 2.21596e-22)
(1.01489 0.000302973 1.76491e-21)
(1.03475 0.0371121 0)
(1.01863 0.0041422 1.06003e-21)
(1.06963 0.0336177 -1.96798e-20)
(1.02484 0.00820235 -3.79702e-21)
(1.00456 -0.000519184 0)
(1.00279 -0.00015502 -1.57854e-22)
(1.06703 0.07633 7.89491e-21)
(0.863663 0.0374587 -9.3502e-21)
(0.133904 0.0266501 1.33027e-20)
(1.06563 0.0384744 -1.48609e-20)
(1.04501 0.022498 0)
(1.07443 0.0422551 0)
(0.48338 0.0137712 -1.26253e-20)
(1.00737 0.00374527 2.44847e-22)
(0.882738 0.0503762 3.30431e-23)
(1.01424 7.62376e-05 0)
(1.07646 0.038683 2.6871e-20)
(1.02467 0.00470845 6.44777e-21)
(1.06042 0.0386216 -5.27505e-21)
(1.01654 0.0053582 1.2809e-21)
(1.02192 0.0107659 7.89335e-22)
(1.03235 0.00261685 4.39398e-21)
(0.808882 -0.0254658 -2.67625e-21)
(1.05151 0.0302597 -7.60161e-22)
(0.777439 0.0344669 9.90918e-21)
(1.00245 -3.67843e-05 4.83197e-22)
(1.04992 0.0293017 1.8095e-20)
(1.01328 0.00808652 -3.40753e-22)
(1.00298 -8.94483e-05 1.15021e-22)
(0.523015 0.0177432 0)
(0.977064 -0.0198552 8.23537e-21)
(1.01338 0.00866344 4.70097e-22)
(1.06851 0.0501674 0)
(1.02053 0.000805693 3.58103e-22)
(1.00876 0.00645173 4.24189e-22)
(1.00371 -6.14091e-05 6.99636e-23)
(0.541651 0.0201382 2.1976e-20)
(1.01875 0.00405845 -8.41288e-22)
(1.02728 0.0179144 -1.47433e-21)
(1.00953 -0.00335027 7.69075e-24)
(1.01318 0.00836838 -9.01927e-22)
(1.07356 0.041375 -1.65999e-20)
(1.00422 -6.27892e-05 1.38603e-22)
(1.06832 0.046701 -4.80909e-21)
(1.00107 6.26392e-05 0)
(1.01062 0.00268958 2.32409e-22)
(0.468301 0.0761326 0)
(1.06988 0.0340172 0)
(1.02609 0.00920999 -3.5908e-21)
(0.29816 0.00331402 0)
(1.07159 0.0411562 -2.53507e-20)
(1.00896 0.0643436 8.25975e-22)
(1.06407 0.0667209 1.67627e-20)
(1.00979 0.00415621 2.63525e-23)
(1.02326 0.0143377 1.70792e-21)
(0.53237 0.021984 2.28715e-20)
(1.07383 0.0439478 0)
(1.03485 0.0166743 -1.15347e-21)
(1.03202 0.0144899 5.09254e-22)
(1.02242 0.0104933 1.04849e-21)
(1.00153 9.85307e-05 -1.8326e-22)
(1.01572 0.00739168 0)
(1.03402 -0.000376765 0)
(1.0596 0.043928 0)
(1.03817 0.0170915 -1.95862e-21)
(0.535474 0.00499631 3.50287e-21)
(1.05232 0.030641 4.73883e-21)
(1.01896 0.0946791 0)
(0.904785 0.102349 1.19902e-20)
(1.02513 0.000142549 7.71859e-22)
(1.04245 0.0295575 3.99741e-21)
(1.07085 0.049809 -1.05327e-20)
(0.461703 0.0101342 1.79552e-21)
(1.00984 0.00639532 -3.23255e-22)
(1.01835 0.00693497 0)
(1.03641 0.00157736 0)
(1.0108 0.00264967 2.85908e-22)
(1.00243 0.000119628 1.16845e-22)
(1.00298 -0.000161211 4.11108e-22)
(1.003 0.00417122 9.16367e-22)
(1.01306 0.000739824 8.00689e-22)
(0.419812 0.00485145 -8.88012e-21)
(1.06813 0.0213502 5.87632e-21)
(1.0068 0.000795501 0)
(1.06905 0.0388632 0)
(1.00267 -2.70594e-05 0)
(0.575481 0.0223289 7.68653e-21)
(1.00946 0.00635354 3.82102e-22)
(1.01382 0.0071002 0)
(0.564152 0.037006 -9.97133e-21)
(1.05948 0.0403064 2.47552e-20)
(0.908098 0.128164 -1.48414e-21)
(1.0343 0.00410844 0)
(1.01766 -0.00514425 0)
(1.01267 0.00696166 -2.29822e-22)
(1.03909 0.00581176 4.8417e-21)
(1.05225 0.021549 1.66287e-21)
(1.01669 0.00625491 0)
(0.372933 0.00677832 1.51752e-20)
(1.03805 0.0226445 0)
(0.993207 0.0912462 0)
(0.904587 0.11595 2.99336e-21)
(1.01933 0.0064297 0)
(0.669137 0.0421853 -2.96556e-20)
(1.04164 0.00771973 0)
(1.00439 0.00038172 -1.02838e-22)
(1.01344 0.00833598 4.12647e-22)
(0.465499 0.0163816 -1.128e-20)
(0.45902 0.0937823 0)
(1.04031 0.01927 -5.03464e-21)
(0.389231 0.00542269 1.99761e-20)
(0.946577 0.182173 -1.28561e-21)
(1.01052 0.00295271 2.0087e-22)
(1.01324 0.0068894 -3.1569e-22)
(1.03114 0.014279 0)
(0.980855 0.0470192 0)
(0.92975 0.114615 0)
(1.05081 0.0308565 1.63428e-21)
(1.0385 0.00576822 2.02572e-21)
(1.04775 0.0118135 4.08917e-21)
(1.07688 0.0390632 -3.63927e-20)
(1.0248 0.0131944 2.14337e-23)
(1.06733 0.0482929 -1.08829e-20)
(1.06765 0.0219614 0)
(1.02722 0.0106607 -1.21964e-21)
(1.03522 0.0106515 8.10301e-21)
(1.00441 0.00038003 -7.29686e-23)
(1.05163 0.0212726 2.85484e-21)
(1.02572 0.0158204 0)
(1.0759 0.0457056 -2.48243e-20)
(1.03417 0.0156953 -1.44826e-21)
(1.00775 0.00900844 -5.08452e-22)
(0.378279 0.00603681 1.07057e-20)
(1.02081 0.00240783 0)
(0.963995 0.189374 -6.39001e-21)
(1.0319 0.0141513 2.56406e-22)
(1.02889 0.0230214 6.62068e-23)
(1.043 0.018666 -6.72841e-21)
(1.07369 0.0435786 0)
(1.00142 2.47065e-05 8.12798e-23)
(1.07476 0.0316005 1.14175e-20)
(0.893221 0.0361916 0)
(0.985941 -0.0177756 0)
(1.02545 0.00446204 -4.22231e-21)
(1.03443 0.015761 4.86755e-21)
(1.01117 0.000393127 0)
(1.02276 0.00363963 -3.76336e-21)
(1.03207 0.0017476 0)
(1.02997 0.00137869 0)
(1.01918 -0.00662522 -2.12342e-22)
(1.06177 0.0756182 1.45442e-20)
(1.06842 0.0477844 0)
(1.00929 0.00395537 4.66156e-23)
(1.07192 0.0459858 1.28353e-20)
(1.05804 0.0110501 7.43006e-21)
(1.05587 0.0144009 0)
(1.06967 0.049422 0)
(1.02392 0.00932618 8.82531e-22)
(1.07375 0.032873 0)
(0.891226 -0.00696103 0)
(1.00404 -5.60958e-05 -5.74779e-23)
(1.05999 0.0397144 2.70091e-22)
(1.04142 0.0549356 0)
(1.0667 0.0219231 -1.38789e-20)
(1.014 0.00625754 0)
(1.01111 0.00474225 -1.15831e-23)
(1.01551 0.007377 0)
(0.418888 0.00568578 -8.34897e-21)
(1.03434 0.010041 -2.13839e-21)
(1.00941 0.00641102 -7.28983e-22)
(1.07124 0.0245584 -1.88833e-20)
(1.01707 0.00643845 -1.50635e-22)
(1.01214 0.00565397 2.27222e-23)
(1.06248 0.0555932 -4.78704e-21)
(0.945481 -0.0124042 1.13413e-20)
(1.03899 -0.00339621 4.29594e-21)
(0.55282 -0.0414874 9.52293e-21)
(1.03293 0.00890161 -8.71861e-22)
(0.963866 0.0497952 0)
(1.03237 0.00140312 -1.03003e-20)
(1.02863 0.0111106 5.71381e-22)
(1.08258 0.0403571 -1.786e-20)
(1.01001 0.00758361 1.37278e-21)
(1.00383 0.0140884 0)
(1.00157 -7.93695e-05 -9.84818e-23)
(1.00247 0.000122866 3.61987e-22)
(1.03336 0.00486236 -9.15732e-21)
(1.03401 0.0158828 -1.29329e-21)
(1.0405 0.00235999 0)
(1.01378 0.00618746 -9.84758e-25)
(1.02268 -0.0446414 -5.16219e-23)
(1.01978 0.0098155 0)
(0.859453 -0.128284 0)
(1.03222 0.0141676 2.03955e-21)
(1.05669 0.0163675 7.39768e-21)
(1.01414 -0.00423104 -3.78082e-22)
(1.06611 0.0392906 -5.02122e-21)
(1.02484 0.0131755 4.66432e-22)
(0.756843 0.027601 -1.88122e-20)
(1.03843 -0.00674513 -3.06601e-21)
(1.00079 -2.75196e-05 2.16581e-22)
(0.549523 0.0219752 0)
(1.03502 0.0111625 -3.25602e-21)
(0.427669 0.0100222 0)
(1.05226 0.00612196 0)
(1.04319 -0.0242644 1.85411e-21)
(1.02488 0.0121525 -9.25676e-22)
(1.01065 0.00573136 1.64864e-23)
(1.02511 0.00419458 0)
(0.69344 0.0331251 9.93113e-21)
(1.0504 0.0214953 0)
(1.01292 0.0716477 0)
(0.565371 -0.0744831 7.92433e-21)
(1.02247 0.00353103 -3.44255e-21)
(1.06643 0.0225481 1.09023e-20)
(1.00965 0.000653349 0)
(1.00977 0.00982349 -3.36115e-22)
(0.943694 0.103361 1.45838e-22)
(1.0102 0.00072332 2.06117e-23)
(0.465947 -0.0216908 2.74278e-20)
(1.04923 0.0110558 -8.00426e-21)
(1.03898 -0.0295679 2.42039e-21)
(1.06884 0.040911 1.12512e-20)
(1.0067 0.0591285 0)
(1.00505 0.00024133 -5.11964e-24)
(1.00313 0.000285591 -9.0893e-23)
(1.0292 0.0624861 2.51445e-21)
(1.0096 0.00416228 6.53201e-23)
(1.02484 0.00855365 0)
(1.03243 0.0129411 4.49126e-21)
(1.01928 0.007943 2.60563e-23)
(1.07077 0.0250704 0)
(1.00496 0.000161127 -5.66517e-22)
(1.06018 -0.0201713 9.29679e-22)
(1.02697 0.0106752 2.27113e-21)
(0.454454 0.00634831 7.87182e-21)
(0.419111 0.00950626 0)
(1.07787 0.0646961 -5.91876e-22)
(0.949086 0.0492453 1.88196e-20)
(0.468783 -0.0131742 0)
(0.441531 0.00540771 0)
(1.03443 0.0807851 9.19221e-23)
(1.00925 0.00267869 2.09955e-23)
(1.00803 0.00593301 4.38031e-22)
(1.02856 0.00486499 -5.30398e-21)
(1.03307 0.0115169 0)
(1.01709 0.0035341 2.79234e-21)
(1.05114 0.0217926 0)
(1.01933 0.00527151 7.978e-22)
(1.04144 0.0773367 -8.56932e-23)
(1.02525 0.0087611 0)
(1.07232 0.0376755 2.42542e-20)
(1.03405 0.00953621 -2.24016e-21)
(1.06646 0.0175485 2.18741e-20)
(1.02231 0.0540808 0)
(1.01151 0.00647804 -2.3915e-22)
(1.0306 0.0222783 0)
(1.03477 0.0112817 -8.13703e-22)
(1.01051 0.00736977 -4.44656e-22)
(1.04619 0.0187194 2.3315e-22)
(1.01603 -0.00404864 0)
(0.672191 0.0440691 0)
(1.06036 0.0448631 1.30596e-20)
(1.04389 -0.0313629 2.88243e-22)
(1.01267 0.0066705 0)
(1.02461 -0.000689501 2.25346e-21)
(1.02205 0.00932101 -1.34814e-22)
(1.02027 0.0100556 0)
(0.613916 0.00827506 -1.98799e-20)
(1.00969 0.002839 2.81434e-23)
(0.977397 -0.00701253 3.9561e-21)
(1.01633 0.00513141 3.5803e-22)
(0.910337 0.106703 0)
(1.02488 0.0105786 4.87628e-22)
(1.01848 0.00586183 5.04463e-22)
(1.07492 0.0321084 7.4898e-22)
(1.00855 0.0150125 0)
(1.00995 0.00302511 -1.13999e-22)
(0.899969 0.0961616 0)
(0.911284 0.0490926 1.5832e-21)
(1.02945 0.0141636 9.40806e-23)
(1.0668 0.0386665 0)
(1.00907 0.00416096 9.53291e-23)
(0.985653 -0.00333175 -9.98497e-21)
(1.01715 -0.00413762 1.68753e-22)
(1.02052 0.00995393 -5.82705e-22)
(0.495237 0.0129161 1.44725e-20)
(1.00247 0.000160975 0)
(1.03808 0.00896496 0)
(1.06866 0.0389207 -1.00589e-20)
(0.483334 0.0103309 1.3594e-20)
(1.01739 -0.00405587 3.61867e-22)
(1.01082 0.0963083 0)
(1.06792 0.0402802 -1.76351e-20)
(1.00697 -0.0013403 1.4468e-21)
(1.02534 0.0100499 0)
(1.01972 0.0081123 0)
(1.04837 0.0381245 0)
(1.02398 -0.000178205 3.75579e-21)
(1.07059 0.0393184 0)
(1.02984 0.00658857 -3.83121e-21)
(0.545096 0.0346026 -4.32668e-24)
(1.02464 0.0118002 0)
(0.793066 0.112756 6.58513e-21)
(1.01524 0.00778925 -1.7227e-22)
(1.01335 -0.00288976 -1.50742e-22)
(0.958042 0.0392739 4.20291e-22)
(1.01331 0.000450424 0)
(1.02036 0.00245752 6.09944e-23)
(0.770631 0.0440335 3.91175e-21)
(1.03048 0.012657 -9.64035e-22)
(1.01287 0.00339146 -1.60484e-21)
(1.07721 0.126122 -3.45081e-21)
(1.00749 -0.00182829 -7.59023e-22)
(1.00764 0.00576358 -1.1752e-23)
(1.06015 0.0430057 0)
(1.03187 0.0130673 0)
(0.811579 0.0369888 3.44821e-21)
(1.03225 0.0241756 -2.41841e-22)
(1.07552 0.0348387 4.03051e-22)
(1.06164 0.067733 1.37151e-20)
(1.04698 0.0118057 0)
(0.560378 0.0319951 -2.29107e-20)
(1.02752 0.011254 2.25049e-21)
(1.06 0.0412637 0)
(1.02328 0.00219145 3.8004e-21)
(0.404565 0.0131539 -7.36068e-24)
(0.923984 0.102568 7.99091e-22)
(1.03567 0.00368649 0)
(1.01715 -0.00392911 3.33745e-22)
(1.00999 0.00700749 0)
(1.02673 0.00946126 9.52785e-22)
(1.01666 -0.00402121 0)
(1.00703 -0.00104184 -2.95278e-22)
(1.00691 0.00335188 3.61849e-22)
(1.02491 0.00376061 2.06394e-21)
(1.04326 0.0231645 -1.90696e-21)
(1.004 -8.53853e-05 1.12867e-22)
(1.03031 0.012326 -3.00143e-21)
(1.06848 0.0364802 0)
(0.55874 -0.0105022 -8.97254e-21)
(0.731452 0.0228626 2.103e-20)
(1.06832 0.0385445 -6.57286e-22)
(1.02222 0.009213 -2.00997e-24)
(0.961078 0.0526855 -5.33847e-23)
(1.0185 0.00470013 0)
(1.08276 0.0399426 1.79878e-20)
(0.964857 0.136238 4.31106e-22)
(0.198964 0.00162952 0)
(1.00776 -0.00279131 2.85209e-22)
(1.00949 0.00285968 -2.749e-23)
(1.01871 0.00077831 -1.61989e-21)
(1.02313 0.00830441 2.28499e-21)
(1.00768 -0.00271923 -8.11584e-22)
(1.01623 -0.00437581 -3.70435e-22)
(1.02028 0.00431167 -9.73846e-22)
(1.04233 0.0304811 1.37905e-22)
(1.01306 0.00336641 2.36186e-22)
(0.352411 0.0290906 5.04557e-22)
(1.06476 0.115659 4.18986e-21)
(1.01341 0.00461344 4.84164e-22)
(0.72002 0.0361448 0)
(1.02364 0.00222007 -3.98322e-21)
(1.01524 0.00753989 -1.57392e-22)
(1.00822 0.0104919 3.84147e-22)
(0.553924 0.0218393 -1.07116e-20)
(1.0219 0.0300225 1.18572e-22)
(1.00368 -0.000201776 0)
(0.911473 0.134504 -3.00593e-21)
(1.01155 0.00728889 0)
(1.01467 0.00757597 -8.18406e-23)
(1.06954 0.0460938 1.40098e-20)