/*--------------------------------*- C++ -*----------------------------------*\
| =========                 |                                                 |
| \\      /  F ield         | OpenFOAM: The Open Source CFD Toolbox           |
|  \\    /   O peration     | Version:  v2012                                 |
|   \\  /    A nd           | Website:  www.openfoam.com                      |
|    \\/     M anipulation  |                                                 |
\*---------------------------------------------------------------------------*/
FoamFile
{
    version     2.0;
    format      ascii;
    class       surfaceScalarField;
    location    "150";
    object      meshPhi;
}
// * * * * * * * * * * * * * * * * * * * * * * * * * * * * * * * * * * * * * //

dimensions      [0 3 -1 0 0 0 0];
oriented        oriented;


internalField   nonuniform List<scalar> 
20673
(
0.00212981
0.00134409
-0.00347235
-0.00231243
-0.00286117
0.00519705
0.00172635
-0.000542902
-0.00118344
0.0053178
0.000482935
-0.00578464
-0.00646157
0.00665841
-0.000169406
-0.00147296
0.00152417
-5.12063e-05
0.00120033
0.000446146
-0.00164647
-0.00145142
0.00116632
0.000285103
-0.0013859
0.000248623
0.00113728
-0.00272608
0.000567227
0.00215947
-0.00196213
-8.88417e-05
0.00205111
-0.00273937
0.00286864
-0.000128537
0.00389441
0.000798695
-0.00126445
0.000465758
-0.00299115
0.00505441
-0.00205925
0.00207214
0.00261125
-0.00467727
0.00637876
-0.00206872
-0.00429115
-0.00290809
0.000135163
0.00277382
0.000604759
-0.00334328
0.00391462
-0.00398182
0.000193399
0.00110634
-2.9295e-05
-0.00105917
-0.000127761
0.0013281
-0.000250856
0.00476813
-0.00443692
-0.000714652
-0.00073676
-0.00701988
0.00658924
0.000468795
-0.00165503
0.000980995
0.000674044
-0.00120455
-0.00154451
0.00274912
0.000449964
-0.00190999
0.00146011
0.000858053
-0.00168472
0.00082668
0.000181777
-0.00225825
0.00207681
0.00163476
0.00169554
-0.00332892
0.00234314
0.00174154
-0.00408065
-0.00261491
-0.000511656
0.0031269
-0.00100777
0.00415813
-0.00315037
0.00275393
0.00380935
-0.00654294
-0.00105544
-0.000454031
0.00150951
0.00412892
-0.00430052
-0.00133095
0.0010499
0.000281049
-0.00424463
0.00532935
-0.00100287
0.00106349
-6.06227e-05
0.000592533
0.00059162
-0.000771368
4.83231e-05
0.000363274
-0.000399127
0.0045589
0.000958319
-0.00525024
0.00232558
-0.0021532
-0.000172318
-0.00472277
0.00623074
-0.00147603
-0.00416901
0.0039109
0.000258423
0.000605577
-0.00351262
0.00317179
-0.00181855
-0.00135263
0.00125248
-0.00110092
-0.000151559
-8.30391e-05
-0.000704504
0.00106374
-0.00502098
0.00208645
0.00293956
-0.00404249
0.0059684
-0.00192218
0.00136577
-0.000113293
-0.00392691
0.00291919
0.00494678
0.0014504
-0.00263726
-0.00154764
0.00419032
0.000538364
-0.00250032
0.00618298
0.00147042
-0.00762286
-0.00539819
0.00443495
0.000972255
0.000963188
-0.00565455
-0.00160269
0.00145217
0.000150535
-0.00641548
0.00412951
-0.000308676
0.00442981
-0.000394632
-0.00165896
0.000186007
-0.000451225
-0.00104162
0.00149286
0.000386493
-0.00635837
-0.00606932
-0.000654627
-0.00152916
-0.000275467
0.00180474
-0.00274651
-0.000525814
0.0032741
-6.85997e-05
-0.00637059
-0.00122692
-0.000158971
0.00132706
-0.000895245
-0.000431816
-0.00722388
0.000247596
0.0011486
-3.8064e-05
-0.00111053
0.00318733
-0.00167034
-0.00151633
0.000958892
-0.00107216
0.000113271
-0.00639423
0.00559496
0.000818539
0.00127146
0.000419246
-0.0016907
6.96483e-05
0.00232001
-0.00237088
0.00318082
-0.000650955
-0.00247507
-0.00533395
0.00149509
-0.00152899
3.3906e-05
-0.000905242
-0.000425705
-0.00148701
0.00137474
0.000112271
-0.00434371
-0.00203012
0.00353693
-0.00333721
-0.000124572
0.000729878
-0.00118109
-0.00192255
-0.0030923
0.000251685
0.00452602
-0.00134456
0.00103136
0.0003132
0.00102488
-0.003261
0.00223659
0.0075475
-0.00248263
-0.00500425
-0.00230718
0.005389
-0.00307439
-0.000573896
0.00130379
-0.00123627
-0.000362112
0.00159838
-0.00221961
0.000263262
0.00195655
-0.00152464
0.00304903
-0.00152374
-0.0023893
0.00222031
0.000169187
0.00128604
0.00110269
-0.00238869
-0.00318052
-0.00115613
0.00456655
0.00196829
-0.0035038
0.00153549
0.00170082
0.000624841
-0.00252464
0.00515736
-0.00261938
0.00381621
-0.00613183
0.00243251
0.000707395
0.000807653
-0.00151504
-0.00197803
0.00176411
0.00021397
0.00214297
0.00102931
-0.00674748
0.00469924
-0.00171782
-0.0013485
0.00306749
-0.00140271
0.00124156
0.000161159
-0.00142754
0.000424667
-0.00239722
0.000100707
0.00229691
-0.000527474
0.00123488
0.000948751
-0.00428523
0.003337
0.00133869
-0.000862197
-0.000476494
-0.0051697
-0.0014569
0.00669319
0.000106558
0.0011628
-0.00126935
0.000974329
0.000218337
-0.00119267
0.00416883
-0.00090643
-0.00326226
-0.0010108
0.0010699
0.000636822
-0.00216586
0.00121258
-0.000772037
-0.000440542
0.00253278
-0.00208272
-0.000518037
0.00110119
-0.000304358
0.00323321
-0.00553212
-0.00583742
0.00468543
0.00118213
0.000376289
-0.000570303
0.00311863
0.000792476
-0.00348692
0.000287901
-0.00121736
0.000235638
0.000981726
0.00511906
-0.00416955
0.00575689
0.000503896
0.00111958
-4.25943e-07
8.97319e-05
-0.00144944
0.00135975
-0.00145711
0.000742469
0.00333272
-0.00120139
-0.000526469
0.00181253
-0.0064343
6.67123e-05
0.00335047
0.000818595
0.00146264
0.00042852
-0.0018911
-0.00174654
0.00652744
-0.00469073
-0.00580095
-0.000163198
0.00596942
7.25366e-06
0.00179342
-0.00180062
-0.00595943
-0.000112242
-0.0011614
0.0017344
-0.00057298
0.00112546
-0.00177611
0.000650672
-0.00633016
0.00229167
-0.00149315
0.00617937
-0.00458718
-0.00235349
-0.00167742
0.00403507
-0.00280132
0.00287791
-7.57395e-05
0.00064712
0.000691571
-0.00336176
0.00131616
0.00204604
0.00324611
-0.00326033
1.52009e-05
0.00186109
0.00266632
-0.00452201
-0.00160391
0.000341446
0.00126247
0.00122005
-0.00396441
0.00198336
-0.000697859
-0.00128546
0.00116996
-0.000211065
-0.00132497
0.00141474
-0.00398305
-0.000501808
0.0044874
0.00215226
-0.00314418
0.000991849
0.00231652
-0.00257189
0.000273795
0.000334061
-0.00255342
0.0005672
-0.0029639
-0.00235392
-3.51858e-05
0.00246184
-0.0049738
-0.00156276
-0.00124071
0.00280421
-0.00729985
0.00618181
0.00117076
0.00327956
-0.00131128
0.00165944
0.00166355
-0.00332177
-0.000266774
0.00109329
-0.00082652
-0.00169562
0.00260815
-0.000912159
-0.00640193
0.00366211
0.00275427
0.000785494
0.00099466
-0.00178014
-0.00307562
0.00267551
0.000400825
9.89812e-05
-0.00131634
0.00120158
-0.00109502
0.000484097
-0.00164548
-0.00643321
0.000505216
0.00597932
0.00282289
-0.00179761
0.00369453
-0.00205826
0.00469837
-0.00635564
0.00403479
-0.000428886
-0.000146993
0.00332432
-0.00317556
-0.00102672
-0.000628309
-0.00205836
0.00086068
0.00119778
-0.000225997
-0.00137791
-0.00216719
-0.00109292
0.0032618
-0.00165937
-8.86019e-05
0.00174813
-0.00225478
0.00131
0.000944827
-0.00116094
-0.000326068
-0.000249838
-0.00147944
0.00172937
0.00141387
-0.00584254
0.00451114
0.00197547
-0.00198174
6.27619e-06
0.00142354
-0.00262801
0.00022598
0.000297324
0.00372676
0.00387116
0.00179501
-0.000227493
-0.00156745
-0.000323674
-0.000913861
0.00123755
-0.00519037
0.00351271
0.0016844
0.00067606
-0.000550511
0.00256645
-0.00343729
0.000871842
0.00044596
-0.00324634
0.000428327
0.000898735
0.00116645
0.000538838
-0.00170525
-0.00338873
0.00615993
0.00636821
-0.000159144
-0.00325076
0.00172682
0.00179821
-0.00110951
-0.000688689
0.000552248
-0.00634429
0.000888281
0.000646266
-0.00153454
0.00103488
-0.00139583
0.000360943
-0.00256309
0.00090394
-0.0023428
0.00626982
0.00112951
-0.00176135
0.000631848
-0.00172685
0.0032357
-0.00150792
0.00120652
-0.00127341
6.68853e-05
-9.11346e-05
-0.00470682
0.00484662
-0.00130866
-0.000294014
0.00139133
-0.00776487
0.00254316
-0.00138231
-0.0011605
0.0013992
-0.000471437
-0.00124098
0.00114659
9.43949e-05
0.000482983
0.000871821
-0.0013548
0.00473134
-0.00265382
0.000371331
0.00147835
-0.00184965
0.00429668
-0.00243093
0.0047494
-0.00696792
-0.00157535
0.000519946
0.000910474
-0.00260572
-0.00333975
0.00117434
-0.000377427
0.00151154
-0.0011341
3.35489e-05
0.00100134
0.0011797
0.00192243
-0.00278673
-0.00146821
0.00381505
-0.000424563
-0.000919992
-0.00111571
0.00123857
-0.000122859
0.00231969
4.50459e-05
-0.00359936
-0.00235166
0.00608979
0.000175274
-0.00110591
-0.000619025
-0.00135022
0.00196941
-0.000168838
-7.7528e-07
0.000196749
0.00164188
0.000535555
-0.00217736
0.0013826
0.00119877
-0.00258098
-0.000417538
0.00256973
-0.00271991
0.00343538
-0.000713494
-0.000169164
-0.00236101
0.00170673
-0.0034209
0.00171514
-0.000716271
-0.00039048
0.00110675
-0.00514074
-0.000919451
0.00610522
0.00275922
-0.000523012
-0.00223589
0.0020364
-0.00197374
-6.26466e-05
-0.00500549
-0.000798574
-0.00524728
0.00674441
-0.00325755
0.00196373
0.00129444
-0.00144985
0.000896952
0.000552903
-0.00123559
-0.00212571
-0.00267168
0.00252609
-0.0043247
0.00133731
0.000352136
-0.00033706
7.95059e-06
0.000826995
0.000385584
0.00186273
-0.00125202
-0.000610694
-0.00215254
0.000456439
0.00169616
-0.00133311
0.0061948
0.00137264
-0.00091297
-0.000459667
-0.000937706
-0.000314319
0.00125203
0.0015609
0.000422488
-4.28088e-05
0.00131428
0.00123552
0.00195234
0.0030517
-0.000942696
5.43717e-05
0.00126841
0.00201043
-0.00315478
0.00114528
-0.00140025
0.000752767
0.00064748
-0.00187511
-0.000403803
0.00227915
-0.00375495
-0.00163389
-0.000473828
0.00164032
0.00206646
-0.00357516
-0.0027283
0.00186285
0.00129405
-0.000978868
-0.000422106
0.001401
0.00381379
-0.00383096
0.000140156
-0.000710934
0.00149644
-0.00279349
-0.00238875
-0.00013583
1.27494e-05
-0.00498136
0.00265397
0.00233092
0.00243054
0.000816508
-0.00165021
-0.00149412
0.00157958
6.23527e-05
-0.00418468
0.00154652
0.00264011
-0.000702096
0.00557037
-0.00483095
-0.00133327
-0.0006778
0.00201114
-0.00134202
0.000964608
0.00090741
0.000955329
0.00535809
-0.00539356
0.0010186
-0.00199541
0.000976841
0.00429525
-0.00498446
0.000680764
-0.00598747
0.00532458
0.00229014
-0.00738827
-0.000318667
0.00144414
0.00141285
-0.000579556
-0.000604053
0.00148454
0.0010589
0.00125965
-0.00397727
-0.00523774
-0.00200373
0.00286365
-0.000296347
0.0037698
-0.00609276
0.00233554
-3.41404e-05
0.000675945
-0.000641805
-0.00226093
-0.000813922
-0.00171176
-0.00154868
-0.00697412
0.00611727
0.000925123
-0.00695693
0.00173803
-0.001525
0.000764171
0.000760831
0.000318197
0.000805301
-0.0011235
0.00464494
-0.00604504
-0.000925337
0.000121878
0.0011555
0.000724627
-0.00170347
-0.00545845
0.00792622
-0.0024104
-0.00135881
0.000463561
-0.00757773
0.000684993
-0.000166035
-0.00107495
-0.00281955
-0.00287586
0.00572132
0.000648252
-0.00206318
0.001415
-0.000517351
-0.00321915
0.00373957
-0.00101058
0.00115632
-0.000145738
-0.00532729
0.00134748
-0.00230931
0.000984379
0.000182982
0.00111639
-0.00129936
-0.00124245
-0.00373502
-0.00189391
0.00127503
-0.00162228
0.000113356
0.00150896
-0.0064606
0.00291795
0.00355868
-0.00140432
0.00103919
0.00036514
0.000614266
0.00136122
-0.00099309
5.53837e-05
0.00198838
0.00247046
-0.00445787
-0.000892795
0.00110737
-0.000214576
-0.00303915
0.00376
-0.000717189
0.00146268
-0.000379801
-0.00108287
0.00175686
-0.00157386
-0.00271793
0.00107975
0.00163833
-0.000640895
-0.00207687
0.000436515
0.00128984
0.000207723
0.00267556
-0.00285972
-0.00171529
0.00337585
-0.00105192
-0.000350789
-0.00627151
0.00129184
0.0049924
0.00319896
-0.00539434
0.00220369
-0.000653205
-0.000611247
0.00179849
-3.41539e-06
-0.00548798
0.00727841
-0.00177044
-0.00097273
-0.00128199
0.00145967
-0.000601602
-0.000525166
0.00431029
-0.00353025
-0.000243091
0.00121742
-0.000347497
0.00172436
-0.00137681
0.00399335
-5.27301e-05
-0.00205482
-0.004393
0.00656436
0.00436605
-9.70255e-05
0.00439611
-0.00579691
-0.00196309
0.000629882
0.00110836
0.000461759
-0.0015701
-0.00131098
0.0017619
-0.000450933
-0.000445158
-0.00107984
-0.00522644
0.00767278
-0.00240157
0.00224313
0.000516333
-0.000585173
-0.000508457
0.00109363
-0.00368003
0.000414495
0.00326705
0.00133443
-0.000544684
-0.00085556
0.00129064
-0.00518155
0.00227795
0.0031186
-0.000227057
-0.00192542
-0.00577612
0.00100191
0.00488914
-0.00168816
0.000379521
0.0054889
-0.00449521
-0.00112452
0.000113934
0.00260506
-0.00122211
0.00509884
-0.00538801
0.000300969
0.0023412
0.000667798
-0.00297967
-0.00168952
-0.00156043
0.0018837
0.000939489
-0.00198689
-0.000435166
0.00242249
-0.000290598
0.00102222
-0.000731626
0.000641622
0.000821058
0.000130397
0.00107613
0.00317198
-0.00146444
-0.00268298
-4.25418e-05
-0.00466089
0.00117979
-0.000312655
-0.000803051
0.00101907
-0.00151591
0.000496842
0.00834415
-0.00318584
-0.00513048
-0.00136532
-0.000943927
0.00704338
-0.00081071
-0.00619863
0.00211374
-0.00145817
-0.000655485
-0.00554276
0.00274753
-0.00233941
0.00257251
0.00160295
-0.00403099
0.00243613
0.000856074
-0.00137104
0.00051497
0.00455205
-0.00293966
-0.000728649
-0.000721204
-0.00113791
0.0013207
-0.000182787
-0.00152902
0.000101473
0.00142764
-0.00187743
0.00138636
0.000491075
-0.00407831
-0.00236682
-0.000367526
0.00149704
-0.000761036
0.00155033
-0.00589131
0.00443687
-0.000179479
4.07645e-05
-0.00629363
-0.00685707
0.000585473
0.00629506
0.00182767
-0.00164561
0.000429827
-3.0631e-05
-0.00584507
-0.00169674
0.00757296
0.00020825
-0.0058903
-0.00147497
-0.000488047
0.00171646
-0.00162944
0.000415916
-0.00130871
-0.00168798
0.000963944
0.000724049
0.00125327
-0.00116433
-8.89394e-05
0.00140389
-0.00165365
-0.00141842
0.00102246
0.000395954
0.00113117
-0.00116343
3.22565e-05
-7.96701e-05
-0.00359868
0.00144074
-0.00661739
0.00170116
-0.00230308
0.00060209
-0.000330121
-0.00390623
-0.00197756
-0.00185478
0.00383552
0.00544177
-0.00395634
0.00159247
0.000485224
0.00131299
-0.00080683
-0.000881138
-0.00229012
-0.00220344
0.00449826
-0.00167412
0.00230561
-0.000631216
-0.0031943
0.00518361
0.00168309
0.00365574
-0.00304986
0.0010635
-0.00532866
0.000184743
0.00515529
-0.00168295
-1.61618e-05
0.00169917
-0.00502035
-0.00170573
0.000731158
0.000858773
-0.000958707
-0.000400097
-0.00109011
0.0011891
0.000122057
-0.00121217
0.00214834
-0.00200116
-0.000146935
0.00019113
0.00106214
-0.00086133
-0.000542993
-0.00132342
0.000563987
0.000759433
0.000884711
-0.00132548
0.000440774
-0.00332868
0.0029604
0.000723668
0.00159827
-0.00303343
0.00143592
0.000236911
-0.00555444
-0.0014949
-0.00494141
0.00645665
-0.000329693
0.00166646
-0.00133672
0.00261679
0.00113147
0.000350891
-0.0010227
-0.00325575
0.00201163
0.00124484
0.00395821
-0.00193744
-0.00201889
-0.000340988
-0.00081312
0.00115411
-0.0034573
0.00508255
0.0018034
-0.00247612
0.000672966
-0.00131926
0.00108302
0.000236243
-0.00136609
0.00185064
-0.000484499
0.00120481
-0.000552607
-0.000652205
0.00170506
0.00401128
0.00435701
-0.000219464
0.00089664
-0.0019761
0.00319787
-0.000934154
-0.00399816
0.00110221
-0.00166042
0.000558212
0.000188573
-0.00149955
-0.00203744
-0.00214507
-0.00137811
0.00042647
0.000951642
-0.00483181
0.00220026
-0.00180475
0.00213902
-0.000478151
-0.000845266
-0.000929314
-0.00084678
-0.0025532
0.00102435
0.00180266
-0.000339958
-0.000470443
0.00227405
0.00264532
0.000661658
-0.00330617
-0.00219646
0.00201106
0.000185556
-0.00206049
-0.00106083
0.00312274
-0.00168439
-0.000369771
0.0020543
-0.000163875
0.00171625
-0.00314462
0.00142954
-0.00170558
0.00249549
-0.000789581
0.000852288
0.000462764
-0.000873008
-0.000698589
0.00163536
-0.000936733
0.00323479
-0.00492701
0.00169735
0.00332546
0.00399425
-0.00722187
0.00168238
-0.00365652
-0.000242736
-0.0054181
0.00567868
-0.00120946
0.000868476
-0.00125714
0.000729671
-0.00710952
0.00170942
-0.000902266
-0.00139649
0.00115263
-0.00168711
0.000534493
9.66737e-05
0.0010345
1.92042e-05
-0.000299321
0.000648729
0.000556083
-0.00133949
-0.00314158
0.0044969
0.000336259
0.00153592
-0.00187206
0.00833435
-0.00366402
-0.00461484
0.000211309
-0.00103794
0.000826631
-0.00194726
0.000385514
0.00156178
-0.0043149
0.00196551
0.0010105
-0.0048804
0.00388672
-0.000848175
-0.000570239
-0.000555704
-0.00150254
-0.000611076
-0.000498011
0.00110909
0.000434397
1.78135e-05
-0.00131258
0.000502963
0.000809613
0.00116744
0.000811349
-0.00168915
0.000877829
-0.00265844
0.00606521
0.00121345
0.000161292
0.000704877
-0.00155332
0.000848451
-0.00351673
0.000267529
0.0032507
-0.0060904
0.00414286
-0.00432758
-0.0014244
0.00576785
-0.00164973
0.00177719
0.000336617
0.00170416
-0.000151333
0.00231894
-0.00658937
0.000735858
0.00145619
-0.00196483
-0.00140706
0.00237521
0.00116495
0.000207683
-0.00162219
0.00129255
-0.00359474
0.000831889
0.00135052
-0.00218231
1.35135e-06
-0.000611257
-0.00407585
0.00107011
-0.00256168
0.000887845
0.000108687
-0.00137514
0.00126646
0.00231574
0.00130949
-0.003623
0.00597429
0.000252992
-0.000777407
-0.00604554
0.00563858
-0.00589937
0.000257485
0.001536
-0.00138861
0.000227677
0.00303185
-0.00331798
0.000353888
-0.00558986
0.00563087
-3.51708e-05
-0.00190995
-0.0036087
0.00154982
-0.0028872
0.00237212
0.00819709
-0.00416142
0.00494026
-0.00143347
-0.00349667
-0.00348833
-0.000435157
0.00392791
-0.00277702
0.00107182
-0.00158201
-4.0218e-05
0.00169265
-0.00059042
0.00229172
-0.000171833
0.00187766
-0.00170556
0.00166402
-0.00112514
-0.00293801
0.00122672
-0.00145573
-0.00466276
0.00616878
0.00065941
-0.00137568
0.000188638
-0.00124041
0.00444625
-0.00380138
0.00478689
-0.00097505
0.000890023
-0.00158857
-0.00253347
0.00217518
0.000358573
-0.00148782
0.000822945
0.000937566
-0.00168192
0.000315877
-0.00184817
-0.000134075
0.00198249
-0.000814159
0.00112952
-0.00031536
-0.00175229
0.0015807
-0.00391956
0.00151119
0.00240916
0.0025643
0.00139553
-0.00195714
0.00432469
-0.000176873
0.00108429
-0.0010336
-0.000730864
-0.000558961
0.00128983
-0.00634271
0.00134772
0.0034108
0.000522912
-0.00393046
-0.000459562
0.00181017
-0.00135192
0.000807236
-0.000698718
-0.000408653
0.00146006
0.00158954
0.00202626
0.000122255
0.00493057
-0.00231342
0.00268678
0.00182835
-0.0045075
0.00494531
0.003274
0.00249687
-0.00264954
0.000152988
0.00170812
-0.00586292
0.00153352
-0.00325943
0.00150995
0.000700507
-0.00143137
-0.00111672
0.000505649
0.00555916
-0.00284813
-0.00270193
-0.00239484
0.000590311
0.000108819
-0.00205603
-0.00466601
0.00328526
0.00138393
0.00238928
-0.00667756
0.00429358
0.00134713
-0.000586187
-0.000760941
0.000907629
0.000787621
-0.00169524
-0.000498668
-0.000954858
0.00145354
-0.00222662
0.00195993
0.000266796
-0.000241861
0.00369623
0.000798312
-0.0010414
-0.00331934
-0.000471026
-0.000660123
-0.00281446
-0.000809754
0.00362704
0.00309093
-0.00153903
-0.00155142
0.00100852
-0.00362302
-0.002731
0.000473117
0.00091272
-0.00161539
0.000702678
0.000206962
-0.00240324
0.00405488
-0.00213388
-0.00191847
-0.00131436
0.0011375
-0.00071839
-0.00391653
0.00464651
-0.000302849
0.00118756
0.00225616
9.47581e-05
0.00356528
-0.000480111
-0.000567781
0.0015864
-0.000508172
0.00141581
-0.0014748
0.00167851
-0.000203707
-0.00442272
0.00371525
-0.00347396
-0.00291071
-0.000162721
-0.00542032
0.00329543
-0.00122743
4.76744e-05
-0.00107256
-0.00128114
-0.00175239
0.00444647
-0.00130358
-0.0012494
0.001547
0.00478939
0.00358906
-0.000892416
0.00126377
0.00146709
-0.00253939
-0.00151821
-0.000672515
0.00219079
0.00768947
-0.00312087
-0.00451327
0.00170866
-0.00199404
0.000285519
0.00536961
-8.07936e-05
-0.00105711
0.00272031
-0.00215244
-0.000179833
-0.00235332
0.000233202
0.00318044
0.00278625
-7.00858e-05
-0.00244032
0.00566615
-0.00707788
0.00151295
0.00590205
-0.00118809
0.00239338
-0.00215138
-0.000241832
-0.000683443
-0.00348534
-0.00224274
0.00048598
0.00175685
0.000742309
-0.00103291
0.00130832
-0.00287034
-0.00360148
0.0033139
-0.00249681
0.000872985
0.00162399
-0.000163453
-0.00131134
-0.000623933
-0.00110601
0.00172998
-0.0066163
0.00152258
-0.00264182
-0.00119932
0.00384202
0.00651363
-0.00407605
-0.00411867
0.00381813
0.000304671
0.00440564
3.56801e-05
0.00127887
-0.000573981
0.00238752
-3.69889e-05
0.00115469
0.00289401
-0.00437942
0.00148985
-0.00196177
0.00187306
0.000454344
-0.00243276
0.00197882
0.000888001
-0.00126591
0.000377907
-0.00224382
0.00226018
-1.60557e-05
-0.00635165
0.00204239
0.000802252
0.000417333
-0.00121958
0.000553686
-0.0012524
-0.00156176
-0.00489065
0.00648182
0.00177026
-0.00556084
0.0010264
0.000883466
-0.00190983
-0.0016526
-0.000573886
0.000536316
-0.0024112
0.000469119
-0.000414767
2.25112e-05
0.00439439
-0.00336705
-0.000368734
-0.00169435
0.000658776
0.00444905
0.00256772
-0.00300236
-0.00151932
-0.00173745
-0.000524555
0.00628216
0.00243727
0.000960636
-0.00339692
0.000968645
1.13732e-05
0.00525558
-0.00522169
-0.00486123
0.00629737
-0.00141418
0.000679574
0.00181787
-0.00225783
-0.000868333
0.00118653
0.00123151
-0.00010231
0.00247218
-0.0047572
-0.00108045
0.000813677
-0.00512952
0.00249048
0.00264639
0.00117634
-0.00168449
0.00486399
-0.00219223
0.0020135
-0.00252489
0.00234824
0.00168556
-0.00308775
0.00140289
0.00666249
-0.00431003
0.00200701
-0.0033695
0.0013633
0.00218389
-0.000198653
-0.00164934
0.00113122
0.00141498
-0.00254589
0.00311931
-0.00444333
-0.000194611
-0.00112464
-0.0012102
0.000594875
0.000615327
0.00106096
-0.000952273
-0.000224796
0.00103921
0.0033744
-0.00161988
-0.00131758
-0.00207609
-0.000880222
0.00295739
0.00119982
-0.000478579
-0.000721236
-0.000630523
-0.000577784
0.00120831
-0.00258183
0.00271785
-0.00527075
0.00747719
-0.00217619
0.000490986
-0.00196588
0.00145206
0.000226445
0.000193333
-0.00171149
-0.00175799
-0.000484638
-0.00164034
0.00314937
-0.00150802
0.00109984
-0.00155767
0.00045784
-0.000550761
-0.00238374
0.00293595
-0.00228259
-0.00129055
-0.00224822
0.00106396
0.00118441
0.00154894
-0.00177636
0.0006564
-0.00323723
-0.00110397
-0.000416404
0.00152038
0.00240551
0.00104938
-0.0034538
0.00239458
-0.00552119
0.00314071
0.00199033
0.00110102
-0.00396987
0.00273045
0.00201688
0.00465567
-0.00659886
0.000547292
-0.00466122
-0.00319082
0.00147419
0.00255157
-0.00422491
-0.0049257
0.00740945
-0.00242597
-0.000618951
0.0015421
-0.00317677
0.00163548
0.00510358
-0.0012791
-0.0038125
0.000156708
0.00241148
-0.00658182
0.00133127
-0.00631479
0.000800424
0.00554536
0.00123819
4.66714e-06
-0.000130982
-0.00518823
0.00532871
-0.00601089
0.00525509
0.000940964
0.00459337
-0.00287746
-0.00171034
0.000410499
-0.00223957
0.00204444
-0.000739132
0.000950442
0.00220682
0.00102637
-0.00323238
0.00011297
-0.00156594
0.00531204
-0.000756345
-0.004282
-0.00139393
0.00145663
-3.15326e-05
-0.00290985
0.000353968
0.00255615
1.52943e-05
0.00263068
-0.00163161
-0.00354445
0.00517615
-0.00152145
0.00156511
-4.36423e-05
0.000776864
-0.00254176
0.00176529
-0.000353563
-0.00133457
0.00344484
-0.0016834
-0.000462485
0.0021461
0.0055751
-0.00128309
-0.0042724
-0.00064821
0.00115943
-0.000491069
0.00105978
-0.00220255
-0.00068219
0.00446224
-0.000656438
-0.000430383
0.00108682
-2.73363e-05
-0.0013369
-0.000539237
0.00163453
-0.00109526
0.00384265
0.000754564
-0.00108812
0.000502948
-0.00248254
2.54258e-05
0.00245773
-0.00138491
0.0021621
-0.00226394
0.000302304
0.00252949
-0.00627278
0.00390285
8.35644e-05
-8.35644e-05
0.0028123
0.000108601
0.0057269
-0.00583085
-0.00303703
0.00629286
-0.00324285
0.00146969
-0.00167009
0.000200419
-0.00180851
0.0054835
-0.00447996
0.0041371
0.000357319
0.00415452
-0.00215853
-0.00199214
0.00600713
-0.00419687
-0.00164395
0.0019823
1.86869e-05
-0.00162967
-0.00256921
-0.00343053
0.000726348
0.000473467
0.0022161
0.00148049
-0.00369438
-0.00434113
0.00439025
-0.000706467
0.0017323
-0.000817895
-0.000534023
0.00175263
-0.00233713
0.00661537
-0.00425641
-0.00520158
-0.00112196
6.84831e-05
-0.00158991
0.00064325
0.00123067
-0.00187388
-0.00101736
0.00121348
-0.00019612
-0.00215342
-0.00176532
0.00513599
-0.00272759
0.00328341
-0.00181224
0.000350476
0.00197778
0.00314492
-0.00142751
0.00347778
0.00196881
-0.000857266
-0.00111148
0.00418405
-0.00171299
-9.94119e-05
0.0011386
0.00210349
-0.00563486
0.00354945
0.00524751
-0.00237323
-0.00286902
-0.00087522
-3.12171e-05
0.000906437
0.007321
-0.000243405
0.00405518
-0.00081621
0.00496551
0.00162952
-0.00656226
-0.0013768
0.00138687
0.000188217
-0.00319913
0.00185186
0.00106198
-0.00271225
0.0041032
0.00123796
-0.00532347
-0.000193347
0.00136969
0.00121184
-0.000566541
-0.000645294
0.00269139
0.00394334
-0.00459925
0.00579896
-0.00107015
0.00198727
-0.00268882
0.000701777
0.00112481
0.000461965
2.2986e-05
0.00105103
0.000523104
-0.00157409
0.00123251
-0.00569529
-0.00149394
-0.00483487
-0.000765997
0.00565716
-0.00221288
0.00676088
-0.00447661
0.000155058
-0.00646648
0.0057421
0.000763429
0.00157928
-0.000324033
-0.00264517
0.00285465
-0.000207989
-0.0012821
1.16077e-05
0.00127571
0.00379246
0.00131922
-0.00489509
0.00684143
-0.00466548
-0.00217354
-0.00794245
0.00307757
0.00492703
0.00108542
-0.00592272
0.000608436
-0.00135764
0.000749204
0.00466467
-0.00668697
0.00207294
0.00707809
-0.00241174
-0.00459055
0.000575529
-0.00136898
0.000793455
0.00085261
0.000881797
0.00183241
0.00222448
0.00161978
0.0027585
-0.00113638
-0.0016216
0.00489661
-0.00313649
-0.00175307
-0.00178826
0.0064795
-0.00460691
0.00101767
0.00289335
-0.000884249
-0.000816533
0.001948
-0.0046913
-0.00010161
0.00482471
0.00129337
-0.00614995
-0.00125695
0.000626436
-0.00419949
0.00262771
0.00157364
0.00132463
-0.000399896
-0.000924728
-2.81996e-05
0.00348773
0.00121889
-0.000413593
-0.00270812
-0.00119714
0.00390752
0.00138653
-0.0057117
-0.00060182
-0.000497498
0.00109932
0.00113547
0.000122837
-0.00125831
-0.00303371
-0.00484025
-0.00127583
-0.000972204
-0.000843419
0.00212268
1.35525e-06
-0.00642327
0.00138994
0.0041176
-0.00131964
0.000406666
-0.00175346
-0.00405813
0.00205228
0.0048247
0.000937156
-0.00101425
0.00385034
-0.00282769
0.00192189
-0.00158551
-0.000732188
-0.00162355
0.00426043
-0.0065977
0.00240209
0.00214007
0.00122826
-0.0033682
0.00338628
-0.00323284
-7.63855e-05
0.00087947
-0.00232391
-0.00265115
0.0050758
-0.00190052
0.00435971
-0.00406222
-0.000280262
0.00189884
-0.00011376
0.00191576
0.00101274
0.000118929
-0.00113167
0.0017594
-0.000670088
-0.0010893
-0.00402188
0.00138123
-0.00149924
0.00115179
-0.000783802
-0.000378612
0.00116241
-0.00498988
-0.00193839
0.00115647
-0.000358159
0.000451463
0.00100072
0.000290964
-0.00107477
-0.00147845
0.00090811
0.000570342
0.00130251
-0.000726972
0.000498611
-0.00131277
-0.00118726
-0.00130939
0.00452196
-0.00593039
0.00133197
0.00145172
-0.00415744
0.00143347
-0.000414394
0.00461456
-0.00717689
-0.00701211
0.00458399
0.00397539
-0.00629029
0.000156396
0.00374804
-3.66432e-05
-0.00370582
0.00254371
0.00112173
-0.00366436
-0.00108681
0.000102855
0.000983953
-0.002259
-0.00469591
-5.33173e-05
0.00525329
-0.00519219
-0.00119579
0.000621169
0.000574625
0.00174918
-0.000166237
-0.00158287
0.00303048
0.00381005
-0.00309252
-0.0043837
0.00202267
0.00236435
0.00681917
-0.00472096
-0.0020702
-0.000108133
-0.00110206
-0.00123028
-0.00186238
0.00332228
0.00162837
-0.00494698
0.00293896
-0.00394508
0.000670147
0.000541688
0.000223727
-0.00109895
0.00123608
-7.32808e-05
0.00122068
-0.00599405
0.00147171
-0.0020273
-0.00220235
0.000354432
-0.00101033
0.00119684
-0.000186514
-0.000385126
0.00176398
0.00096798
-0.00273155
0.00431139
0.00421495
0.00137787
0.00520649
-0.00308669
-0.00156355
0.00257383
0.00481799
-0.00133022
-0.00166992
0.000838569
-0.00432305
-0.00191738
0.00136746
0.000658413
0.000723611
-0.00138202
-0.00083113
0.00233704
-0.0015057
0.00599834
-0.00390763
0.000622436
0.000793784
0.000577588
-0.00137137
-0.00185363
-0.00110647
-0.00492856
0.00604424
0.000893435
-0.00132057
0.000427136
0.00160175
-0.00678563
0.00253077
-0.0055538
0.00232125
0.000789185
-0.00311024
-0.00108148
-0.000296622
0.000174548
0.0048245
0.00291791
0.000799988
0.000673283
-0.00147327
7.80033e-05
-0.00157719
-0.00182793
0.000380948
0.00144702
-0.000507306
0.00199654
-0.001489
-0.00131469
0.000860691
-0.00153975
0.00517381
-0.00357938
-0.00162751
-0.000225562
0.00185317
0.00470338
-0.00580099
-0.00724285
0.00360322
0.00373227
0.00667033
-0.00427626
-0.000599005
0.00170123
-0.00105136
3.40027e-05
0.00240352
-0.00671599
0.00438067
-0.00125578
0.00525913
0.0065624
-0.00156573
0.00166968
-0.00494126
0.00325078
-0.00447353
0.00122641
0.00606011
-0.00594664
0.00117712
-0.00664379
-0.0022178
-0.0020172
0.00633658
0.00266933
0.00194611
-0.00194885
2.81942e-06
0.00106721
-0.00139027
0.000323056
0.00164596
-0.00661454
0.000465498
-0.00222923
0.00176402
0.00175532
0.00381105
0.000246312
-0.00128425
-0.000214089
0.00100787
0.000273741
0.000967815
0.00163056
0.00112841
0.00127873
-0.000143258
-0.000845242
0.0012787
-0.000422622
-0.00195781
-0.00020946
-0.00382825
0.00228496
-0.00210798
-0.00109745
0.00320673
0.00137055
-0.000483111
0.00163575
-0.00201985
0.00169394
0.000325957
-0.00175484
0.00203971
-0.000284731
-0.00156287
0.000636524
0.000926357
0.00248534
-0.00225922
7.4983e-05
0.00181906
0.000195549
-0.00201453
-0.00666194
0.00452419
-0.00258265
-0.00138476
0.00052092
0.000861264
-0.00138218
0.00449833
-0.00597462
-0.00205589
0.000113915
0.00416869
0.00157362
-0.00572748
0.00700569
-0.00140757
-0.00557245
-0.000369951
0.00102837
-0.00210537
0.00646074
-0.00414854
-0.000951863
0.00579901
0.00288406
-0.00304507
0.00113815
0.0019078
0.00155464
0.00166811
-0.00322171
3.4373e-07
0.00145172
0.00135326
-0.00249059
0.00113755
-0.000643041
0.00108375
-0.000440707
0.00326513
-0.00165284
-0.00232919
-0.00186814
-0.00416282
-0.000523233
-0.00177438
0.0018845
-0.00129253
-0.000591947
0.00113111
-0.000150113
0.00255472
-0.00488084
0.00233318
-0.00484809
0.00710241
-0.00218954
0.00137142
-0.000787291
-0.000584128
-0.00182646
-0.00437204
-0.00195381
-0.000198986
0.0021752
-0.00197592
-0.000631112
0.00294866
-0.00189681
0.0050301
-0.00310971
0.00473744
-0.000983708
0.0051079
0.00192064
0.00122606
0.000183532
-0.000183532
0.00161999
-0.00325929
0.00188878
-9.53228e-05
-0.00496304
0.000610803
0.0025356
-0.00314569
-0.00781333
0.00602119
0.00185464
0.000880776
0.00176352
-0.0026439
0.00243545
9.70676e-05
-0.000576242
0.002904
-0.00130499
0.0016216
0.00349251
-0.00135224
0.00566402
-0.00428178
-0.00446826
0.00694221
-0.00140306
0.000704658
0.000698401
0.0024439
-0.0026273
0.000183799
-0.00177105
0.000371335
0.00139974
0.00455576
-0.00622818
-0.00194668
-0.00326433
0.00523445
0.00285115
-0.00501004