/*--------------------------------*- C++ -*----------------------------------*\
| =========                 |                                                 |
| \\      /  F ield         | OpenFOAM: The Open Source CFD Toolbox           |
|  \\    /   O peration     | Version:  v2012                                 |
|   \\  /    A nd           | Website:  www.openfoam.com                      |
|    \\/     M anipulation  |                                                 |
\*---------------------------------------------------------------------------*/
FoamFile
{
    version     2.0;
    format      ascii;
    class       volScalarField;
    location    "150";
    object      nut;
}
// * * * * * * * * * * * * * * * * * * * * * * * * * * * * * * * * * * * * * //

dimensions      [0 2 -1 0 0 0 0];


internalField   nonuniform List<scalar> 
13917
(
0.000412682
0.00218073
0.0138223
0.00267293
0.00672401
3.56053e-05
0.0155893
0.0110185
0.00732812
0.000251584
0.00117924
0.00131758
0.00275281
0.000679002
0.00058288
0.000788602
0.00230051
0.000837052
0.00138517
0.00672303
0.00672622
0.0157083
0.00672347
0.0122599
0.00672836
0.0167959
0.000159729
0.000109175
2.89282e-05
0.000280222
0.000444635
0.000774864
0.000222405
0.000569311
0.00637591
0.00180542
0.00672363
0.010209
0.00223012
0.00299425
0.00673249
0.00672629
0.00673122
6.93098e-05
0.00372766
0.00047325
0.000993342
0.00160444
5.41113e-05
0.0067209
0.00179511
0.00196199
5.40513e-05
0.00051407
0.00204176
0.00142599
0.0012103
0.00356157
0.00139896
0.00364375
0.0064882
0.00261038
0.000298947
0.00672286
3.53455e-05
0.00202419
0.00672471
0.00663296
0.000796409
0.000372063
0.00672383
0.00692007
0.0096854
0.00672704
4.7385e-05
0.000836848
0.00522975
0.00241841
0.0175554
0.00672589
0.00672536
0.00672432
3.52958e-05
0.0115461
0.0088745
0.00267153
0.00672492
0.000926635
0.00180912
0.00673297
0.0105595
0.000253831
0.00519496
0.00119422
0.00149508
3.75855e-05
0.00175724
0.00138283
0.000642704
5.55642e-05
0.00672044
0.000254261
6.75625e-05
0.00242867
0.00673071
0.00619344
3.80747e-05
0.00184447
0.0021722
0.000381794
0.0104757
0.00381067
0.00112654
0.00699767
0.00123675
5.3418e-05
0.00672302
3.82008e-05
0.00408711
0.000522723
0.00672624
0.000859803
0.00497082
0.000128395
0.00672478
0.00131101
0.00348122
0.00672559
0.00672473
3.58039e-05
0.0107426
0.00118822
0.00340357
0.00672626
0.000291624
0.0122456
0.000412874
5.22985e-05
0.00672468
0.000552642
0.000464803
0.0067535
0.00153963
5.70439e-05
0.00563817
0.00531661
3.78345e-05
0.00186062
0.00674634
0.00064714
0.0037125
5.00663e-05
0.00230874
0.000283262
0.00102175
0.00368178
0.000415541
0.000189688
0.00368555
0.000219141
0.0008063
0.000160044
0.00672586
0.00198664
0.00114042
0.000742194
0.00242836
0.0027407
0.0046829
0.000254056
0.000260465
0.00423834
0.000921361
0.00165187
0.00421603
0.000228885
0.0117794
4.01748e-05
0.00453098
0.00507555
0.000254703
0.00043778
0.0067549
0.00672483
0.000408441
0.016826
0.000244395
0.00341027
0.000948233
0.000996258
0.000272218
0.00882204
0.000193164
0.00672349
5.36232e-05
0.000160361
0.00388723
0.00488133
4.3151e-05
0.000241799
0.00219656
0.00672096
0.00374543
0.00377033
0.00814325
0.000365908
0.00673056
0.0038083
0.001552
0.0154945
0.0016237
0.0153336
0.0047361
0.000997194
0.00672936
2.60887e-05
0.0017796
0.00555622
0.00672551
0.0063096
0.00581265
0.000345758
0.00672636
0.0109827
0.00630929
0.000753428
0.000182589
0.00100179
0.00672865
0.00120794
0.000943341
0.00101961
0.0126313
0.00310446
0.0067193
0.000721669
0.011459
0.00711284
0.00672585
0.00672112
0.00459937
0.00153241
0.00672562
0.000450986
0.000591161
0.000157734
0.000521463
0.00672577
0.000195962
0.00406182
0.00512794
0.000209174
4.70577e-05
0.00364359
0.00381582
0.00264358
0.00744473
0.00242949
0.000334949
0.000644598
0.00672572
0.00298517
0.0037875
0.0026238
0.00672811
0.00907605
0.00262925
0.00142613
0.0173211
0.000797723
0.00672561
0.00672044
0.0011586
0.00895232
0.000879605
0.0015497
0.000591357
0.0013747
0.00672398
0.0021109
0.00672243
0.00500376
0.00213248
0.00672543
0.000568489
0.000265101
0.000165912
0.000342799
0.000349425
0.00429993
0.000410087
0.0123312
0.00455103
0.00672512
0.00122536
0.00672394
0.00432976
0.00672274
3.14716e-05
0.00672113
0.000344232
0.000508232
0.00506826
0.00343589
0.00159779
4.94672e-05
0.000253692
0.000264584
0.00609788
0.00417709
0.00996034
0.00392022
0.00672299
0.006725
0.00173995
0.00487582
0.0104352
0.00655691
0.0117091
0.00384911
0.000185506
0.00201237
4.70251e-05
0.000806611
0.00023513
3.36172e-05
0.000625442
0.00154711
4.46184e-05
0.00210269
0.0100237
5.52069e-05
0.00386749
0.000636525
0.00265142
0.000681187
0.0106403
3.95147e-05
7.28126e-05
7.5066e-05
0.0140494
0.00672569
0.000275753
0.0108835
0.00261701
0.00111799
0.00297438
3.97062e-05
0.00193236
0.000712035
2.86725e-05
0.00671959
0.00297391
0.000685296
0.00672241
0.0067236
0.00672405
0.00674691
0.000411199
0.00422744
3.09255e-05
0.0106495
0.00672496
0.000202486
0.00115177
0.00200556
0.0154743
0.0104069
0.00658731
0.00672181
0.00229911
0.0067237
0.00503853
0.00373757
4.53927e-05
0.000535101
0.00237866
0.00672537
0.001606
0.000243953
0.000957182
1.35295e-05
0.0105028
0.0028204
0.00018385
0.000256357
0.00672103
0.00758019
0.0160566
0.00304916
0.000427003
0.00672484
0.000405068
0.0043963
0.00672583
0.0014368
0.0182213
0.00147768
0.00937063
0.00192885
0.00124747
3.15982e-05
0.00216237
2.95327e-05
2.98929e-05
0.00672248
4.06747e-05
0.00248238
0.0067277
0.000300205
0.00672549
0.0067291
0.00672362
0.000334185
0.00672603
0.00364524
0.0190412
0.000950853
0.000213692
0.0112816
0.00557531
0.00226464
0.00672393
0.000369978
0.00220023
0.000686063
0.00672353
0.00522905
0.015843
0.0190706
0.000730101
0.000607784
0.000729486
0.0021892
0.000908292
0.00148925
0.0030339
0.00220719
0.00672241
0.0112172
0.0112667
0.0121542
0.000160612
0.000538246
0.0115471
0.0110564
0.00458795
0.00672325
0.00129707
0.00146618
0.00309574
0.000422231
0.00115801
0.00681426
0.000557735
0.00197237
0.00428349
0.00672245
0.00126296
0.000789621
0.000295906
0.00550313
0.00672612
0.00355031
0.00684014
0.000389346
0.00672134
0.0171095
3.43975e-05
0.000389303
0.00664022
0.00142274
0.00179038
0.0109609
3.1675e-05
0.0011335
0.000550532
0.00146161
0.000467623
0.000445498
0.00249362
0.00077344
3.81172e-05
0.00173342
0.00173785
0.0067606
0.000321454
0.00170669
0.00677765
0.000420333
0.00257769
0.00471889
0.0071428
0.00578239
0.00672911
0.015566
0.00330347
0.00672547
0.00339312
0.0030285
0.000196626
0.00571876
0.00746811
0.000410888
0.000735084
0.00231493
0.0129521
0.000190179
0.00160478
0.00672569
0.00506698
4.95921e-05
0.00244878
0.00677904
0.00845607
0.00639696
0.00352098
0.00672369
0.0021846
0.00078986
0.000430343
0.00680452
0.00672265
0.00671992
0.0067199
0.00742103
0.000396917
0.00288823
0.000245751
0.00673539
0.0067201
0.000632624
0.0091813
0.000906693
0.00421052
0.00672673
0.00672843
0.00245925
0.00787057
0.00672459
0.00672764
0.00206928
0.00232984
0.00215179
0.00316634
0.00136494
0.000743566
0.00203713
4.49919e-05
0.000257304
0.000378469
0.000882364
0.000593988
0.000279809
0.00672459
0.0054066
0.00672779
0.000961628
0.002324
0.00040674
0.000108442
0.00672191
0.000302737
0.000272124
0.000440082
0.000757856
0.000216395
0.00237855
0.00672501
0.00596172
0.000222994
0.0144232
0.00247377
0.00122327
0.000249274
0.0109325
0.000401533
0.00133016
0.000155535
0.000724402
0.00139934
0.00333455
0.000118836
6.68795e-05
0.00258668
0.00196885
4.85773e-05
0.0143517
0.00209641
0.00109011
0.00202474
0.0005523
0.00060411
0.0016627
2.67835e-05
0.00378411
0.00698154
0.000227601
0.00672487
0.0036455
0.000862711
0.00672991
0.000801892
0.00293744
0.000224975
0.000303224
0.0173089
0.000503237
0.00208689
0.00600241
0.00213537
0.00324862
0.00672595
0.00672449
0.00178655
0.004133
3.34472e-05
0.0021838
0.00166131
0.00672698
0.0013381
5.12654e-05
0.000814178
0.00133541
0.00123364
0.0017527
0.00529742
0.000171372
0.000743355
0.00686818
0.00672695
0.000509359
0.00232458
0.00149539
0.000270962
0.000115015
0.00108049
0.00671918
0.00676415
0.00334093
7.17301e-05
0.000370201
0.000255301
1.41081e-05
0.00264416
0.00671955
0.000453515
2.99366e-05
0.00180661
0.00512661
0.00046376
0.00672265
0.00218127
0.00142653
0.00767179
0.00672589
0.000154037
0.00216466
0.00115882
0.000240951
0.00962091
0.000119174
0.00229652
0.00803112
0.000857196
0.00333853
0.00252171
0.000427444
0.000219015
0.000915081
0.00672485
0.00249285
0.000133656
0.00246039
0.000801693
0.00289018
0.00676744
0.00377322
0.0135249
0.00583343
0.00319278
0.00672027
0.00366383
0.00672618
0.00079439
0.00503679
0.00109698
0.00356654
0.00101137
0.000198958
0.00672021
0.000181221
0.00672269
0.000470844
0.00671908
0.000133949
0.00338255
0.000757348
1.68497e-05
0.00959304
0.00681876
0.00672529
0.000290104
0.000423541
0.00491656
0.00803216
0.000937868
0.00672905
0.000327381
3.21002e-05
0.00581631
0.000262585
0.0012931
0.0180619
0.000408712
0.00145085
0.00035493
4.8924e-05
0.000944625
3.12396e-05
0.000849726
0.00262419
0.00278216
0.000585087
0.00679953
0.00203589
0.000390657
0.000647474
0.0067232
0.00672717
0.0021252
0.00257846
0.000726678
0.00672788
0.0067249
0.00672621
0.00136978
0.00674046
0.000950789
0.00672059
0.00714936
0.00126176
3.80227e-05
0.00672038
0.00672579
0.000125923
0.000493583
0.00133712
0.00326442
0.000190017
0.00310038
0.00216689
0.000541855
0.00311347
0.00672621
0.0067196
0.00145744
0.00255709
0.00672583
0.000380391
0.000851049
0.00152967
0.000157404
0.000186125
0.00117487
0.0067347
0.00672625
0.0012595
0.00535484
0.00173914
0.00178688
0.00158931
0.00672419
0.00107208
0.00672074
0.00673114
0.000726498
0.000401362
0.0026836
0.00051577
0.00547054
0.00672786
0.0118542
8.14402e-05
0.00233693
0.00271853
0.00245848
0.000468772
0.00312649
0.000237829
0.00269147
0.00671925
0.00673068
0.00182472
0.000477626
0.000521529
0.000580179
0.0087891
0.00240883
0.000932366
0.00243063
0.00672523
0.0019365
0.00393602
0.0067221
0.000394709
0.000147735
0.00268274
0.00390161
0.00564882
0.000243745
0.00672511
0.0067499
0.000894787
0.00041708
0.00672548
0.000367155
0.00674704
0.000430523
0.00681656
0.0067987
0.000399563
0.00417446
0.0167886
0.000546282
0.00672617
0.00673115
0.00343787
0.0067318
0.00323334
2.29765e-05
0.00564714
0.00678079
0.00938362
0.0055186
0.00219568
0.000385343
0.00107688
0.00177583
0.00675447
0.000395623
0.00739318
0.0001273
0.00672415
0.00266715
0.00781438
0.00140242
0.0109803
0.00672618
0.00121696
0.00266777
0.00153389
0.0026407
0.00213008
3.77112e-05
0.00673089
0.000384176
0.0067196
0.00413351
0.00672125
0.0100344
0.00673893
0.00522697
0.00675585
0.0178366
0.00230321
0.000186294
8.85297e-05
0.00665135
0.000252203
0.00672438
0.0108071
0.00672154
0.00518407
0.00672435
0.000941902
0.00672414
0.000501333
0.00379824
0.0127032
0.000466142
0.000199695
0.0065668
0.00425376
0.00242852
0.0063809
0.0079084
0.0110854
0.0107088
0.000248176
0.000426073
0.00230103
0.0171501
0.00163889
0.0158369
0.00677314
0.00529306
0.00253311
0.0067243
0.00179769
0.000295345
0.00542015
0.00548761
0.00672575
0.00160852
5.03413e-05
0.0035645
0.000226143
0.000978119
0.00325573
2.24629e-05
0.000166751
0.000858805
0.00279448
0.00351237
0.00353676
3.88743e-05
0.00681638
0.0002099
0.000296959
0.00715527
0.00629939
0.000890942
0.00505689
0.00301467
0.00234244
0.0067358
0.00144254
0.00672151
0.000785958
0.000367184
0.00639683
0.00128281
0.00533552
0.000569502
0.0104273
0.000407665
0.00201527
0.00393509
0.00503536
0.00198265
0.000183396
0.00623707
0.00672376
0.00672807
0.0151264
0.000190914
0.000608509
0.000900061
0.00128328
0.00672811
0.000358994
0.00195292
0.00672198
0.00193155
0.0170894
0.00519698
0.00678793
0.00673232
0.00366031
0.000414936
0.00165595
0.0012424
0.00619413
0.00199649
0.000440198
0.0064061
0.000473838
8.24727e-05
0.0125031
0.00373879
0.000128888
0.00100637
0.00894593
0.011073
0.00672813
0.00973584
0.00103118
3.77152e-05
0.00672401
0.0177641
0.00672521
0.0013329
0.000373195
0.000889632
0.0156975
0.00684239
0.000716008
0.00414577
0.00671918
0.000613927
0.00680173
0.000623347
0.0149433
0.0029291
0.0067255
0.00182742
0.00312389
0.00734174
0.00673024
0.0067232
0.00370606
0.000450316
0.00221257
3.29554e-05
0.000615804
0.00245844
0.000923003
0.001184
0.00136023
0.00693173
0.00205787
0.00438099
0.0167592
0.00220186
0.0062675
0.0121816
0.00607169
0.00192888
0.000500477
0.000923093
0.00375222
0.00184512
0.00282717
0.000368506
0.00672627
0.00142465
5.29155e-05
0.0067234
0.000528113
0.00603631
0.000138377
0.00671939
0.000512885
0.00120465
0.00249346
0.00395708
0.00678606
2.63222e-05
0.000222727
0.00290138
0.00636042
0.00266601
0.00231698
0.0041156
0.000400503
0.000222595
0.00444812
0.000655851
0.00678805
0.00519131
0.00209172
0.00222437
0.00390812
0.000628923
0.0067281
0.00114284
0.00255794
0.00672212
0.00672259
0.00817
0.0108599
0.00074133
0.000866486
0.00672278
0.00400864
0.0168616
0.00169635
0.00673441
0.000476471
0.00675562
2.46571e-05
0.00672534
0.00673266
0.00252937
0.000550908
0.00862983
0.00260338
0.00205244
0.00672767
0.000620906
0.00672147
3.42074e-05
0.000567447
0.0067257
0.00495935
0.000175583
0.000488596
0.0123098
3.14658e-05
0.00678307
0.00202886
0.00326654
3.30332e-05
0.00056746
0.00841182
0.0060455
0.000852036
0.0150964
4.32251e-05
0.001636
0.000855647
0.000130166
3.51762e-05
0.0153009
0.000111
0.000281843
0.0122552
0.00159384
0.000766945
0.00725694
0.000101112
0.00677536
0.00228014
0.00547946
0.000318199
0.00601536
0.000175576
0.000381098
0.000435011
0.00711784
0.0011415
0.00254727
0.00158247
0.00719975
0.000495338
0.000215593
0.0010369
0.00678431
0.00173988
0.0130133
0.00672276
0.000790067
0.00674506
0.0013734
0.0052327
0.000243113
0.000928114
3.94125e-05
0.000159823
9.77154e-05
0.0188661
4.64073e-05
0.00527471
0.00040301
0.0178792
0.00674294
0.00672267
0.00106308
0.00346222
0.00672562
0.000719331
6.97031e-05
0.000261507
0.00380386
0.00296598
0.00570565
0.000479776
0.00026624
0.00672049
0.000834596
0.0178213
0.000211883
0.00059178
0.00189534
0.000536071
0.00116814
0.00177674
0.0156627
0.000433265
0.000875564
2.04272e-05
0.000772527
0.00672626
0.00485489
0.00292628
0.00540882
0.00142593
0.000202898
0.00672797
0.00156185
0.00672073
0.00104986
0.00679739
0.000192969
0.00121157
0.000316013
0.00451811
0.000191026
0.0049161
0.0135872
0.00672549
0.00057115
0.00672397
0.000779309
0.00855223
0.000607821
0.00672928
0.0011125
0.0035347
0.000675843
0.0107001
0.00437812
0.00182315
0.000482215
0.00081885
0.0152888
0.00672832
0.000433382
0.00281425
0.00672311
0.000287728
0.0018564
0.00672015
0.000902179
0.00480827
0.00121096
0.000507432
0.00618527
0.000853931
0.00970107
0.00129004
0.00671999
0.000364404
0.00345702
0.00288031
0.000324318
0.00292604
0.000144988
0.006731
0.000719921
0.000552462
0.000793588
0.00674213
0.00672979
0.000955967
0.00174507
0.00672631
0.000236834
0.00676932
0.000726003
0.000816424
0.00299555
3.77927e-05
0.0160728
0.00224701
0.00294752
0.0141139
0.00233327
0.00234331
3.35028e-05
0.00331032
0.0011389
0.00530707
0.000966424
0.000599581
0.000640855
0.00678345
0.00672555
0.00672134
0.00323755
0.000437933
0.00680146
0.000822425
0.000843222
0.00201189
0.000273569
0.00966196
0.000319506
0.00201965
0.00758241
0.00262782
0.00345029
0.00242047
0.000113358
0.0067313
0.00472876
0.00546341
0.00337461
0.00305712
0.0188145
0.000340765
0.00207315
0.00672093
0.00568553
0.0145207
0.00267783
0.000139734
0.00101253
0.00672635
0.000671266
0.000750836
0.00673086
0.00672246
0.0176996
0.00591354
0.00273847
0.00207047
0.0033824
0.000762241
0.000211412
0.0042755
0.00140439
2.95193e-05
0.00140887
0.00657056
0.0005991
0.00302615
0.000647129
4.36183e-05
0.000355436
0.00672446
0.00346544
0.00997071
0.000964269
0.000130302
0.0119722
4.08598e-05
3.83033e-05
0.000585473
0.00222538
0.00672544
0.00672781
0.00370361
0.00216739
0.0024838
0.00283292
0.00155112
0.00672625
0.00438344
0.00588937
0.00299683
0.00151919
0.00492598
0.000155005
0.00172332
0.0104077
0.000400009
0.00146311
0.00672054
0.000491321
0.003381
0.00261935
0.00123702
0.00232518
0.000964182
0.000106987
0.0194689
0.000508486
0.00510214
0.00910254
0.00673138
0.00326668
0.000163209
0.00672616
0.00503813
0.000758073
0.00234762
0.00651882
0.0173095
0.00267748
0.00678383
0.00130545
3.24361e-05
0.000674522
0.00259369
0.00595519
0.00168489
0.000665383
0.0138797
0.00672509
0.000128692
0.00672081
0.00379995
0.000695629
0.00575411
0.0178769
0.00134771
7.48468e-05
0.00672631
0.00474968
0.000386157
3.39174e-05
0.00296251
8.72973e-05
0.0049111
0.00678218
2.48464e-05
0.00282232
0.000461376
0.000103109
0.00672506
0.00650676
0.00104963
0.00102579
0.000622308
6.68541e-05
0.000224274
0.000182032
0.00166587
0.0120791
0.000348388
0.00243275
0.000355485
0.00331637
0.00393872
0.000464836
0.00399993
0.000882357
0.0142666
0.00177103
0.00674226
4.85437e-05
0.00261608
0.0164055
0.00255568
0.0167254
0.00730041
0.000468678
0.00672282
0.00672312
0.00672445
0.00672438
0.000531941
0.000136212
0.000177461
0.000897819
0.00672227
0.000360452
0.00252735
0.000507696
0.0130714
0.00461718
0.00120097
0.00199434
0.00190017
3.84483e-05
0.00870132
0.000396915
0.0148889
0.00111847
0.00673195
7.76368e-05
0.00629085
3.71466e-05
0.00672426
0.00222246
0.00168125
0.017917
0.00360957
0.000346021
0.00382062
0.000150037
0.0012484
0.0126588
0.000612418
0.00259819
0.0016888
0.00105111
0.000226161
0.000825937
0.0067242
0.000342929
0.00222381
0.00672386
0.000367885
0.0067257
0.00412095
0.00612978
0.0111336
0.00671983
0.00355006
0.00220389
0.00565678
0.000216275
0.000697357
0.00341367
0.0067219
0.00672288
0.00243174
0.000847526
0.000800933
0.000403117
0.00601228
0.0116481
0.00208018
0.0130751
4.90893e-05
0.000551495
0.00051375
0.00139429
0.0173952
0.00035083
0.000826011
0.0018592
0.00754154
0.0101411
0.0067195
0.00672296
0.000256572
0.0108642
0.00424216
0.00655167
0.00343192
0.0116347
0.000484846
0.000779555
0.00128328
0.00079314
4.17246e-05
0.00235705
0.0126049
0.00425359
0.00133449
0.000394728
0.00365046
0.00672954
0.00671931
0.000519828
0.00710051
0.00256252
0.00219227
0.00142071
0.000125197
0.00372133
0.00194344
0.0013617
0.00254027
0.00400257
3.81741e-05
0.0067254
0.00672413
0.0163291
0.00672881
0.0067713
0.00124336
4.67776e-05
0.00125919
0.00351568
0.000329359
0.00672388
0.00795869
0.000565746
0.00522125
0.00247972
4.39826e-05
0.00060966
0.00399416
0.00109673
0.0109013
0.00672445
0.00289338
0.00208855
0.00755619
0.000274437
0.000199334
0.00558665
0.0024546
0.000158888
0.00140275
0.0144011
0.000590263
0.000274399
0.000678318
0.00119261
0.000391306
0.00444112
0.00142012
0.0105403
0.00239838
0.00672733
0.00415187
0.00250956
0.00322145
0.000691657
0.00672351
0.000567817
0.00215395
4.56564e-05
0.000135379
0.00566365
0.00671953
6.98811e-05
0.00258358
0.00108515
0.00114162
0.000523777
0.00428519
0.00207132
0.00198519
0.00249542
0.00651513
0.0109805
0.00672415
0.006719
0.00210451
0.000715831
0.00672503
0.00205307
0.000761969
0.00337124
0.000197785
0.0067786
0.0106853
0.00664809
0.00672604
0.00218125
0.00159205
0.0026778
3.91686e-05
0.00213527
0.00685362
0.00038908
0.00109839
0.000830465
0.00672789
0.000481733
0.00377345
0.00310879
0.000297145
0.00915129
0.00941908
0.00672564
0.00672223
0.00156185
0.00381372
0.000427167
0.00162283
0.000428633
0.00236784
0.0094672
0.00316933
0.0145987
0.00672599
0.00728868
0.00259488
0.0067294
0.00725345
3.23151e-05
5.94997e-05
0.00124436
0.00013967
0.00141081
0.00627572
0.00768122
0.00672811
0.00672463
6.60022e-05
0.00113148
0.00383369
0.00866974
0.000511543
0.00301079
0.000331562
0.000302536
0.00680487
0.00158033
0.00194719
0.0114962
0.000657715
0.011078
0.00555073
0.00373782
0.00352545
0.00351602
0.000209928
4.08538e-05
0.00218575
0.00672389
0.000657678
0.000845317
0.00133842
0.000313488
6.65373e-05
0.00672195
3.06447e-05
0.000335307
0.00307718
0.000731653
0.00124704
0.00155654
0.00811039
0.00671909
0.000420165
0.0148744
0.00145558
0.000947168
0.000703876
5.20703e-05
0.00131704
0.00263972
0.00153817
0.00053475
0.00163926
0.000372952
0.0027637
0.0110047
0.00672102
8.33654e-05
4.16868e-05
0.0102096
0.00072683
0.000330034
0.00222387
0.000138492
0.00672589
0.0100261
0.00194429
0.00425203
0.00121539
0.00672259
0.00672573
4.48714e-05
0.00672429
0.00672339
0.00321493
0.0016484
0.00215095
0.000515392
0.00299798
0.000192946
0.000342361
0.00672555
5.33432e-05
2.96654e-05
0.00023823
0.000330172
0.000439037
0.000622488
0.0111702
0.000342078
0.00672607
0.00116645
0.0176721
0.00672605
0.00155138
0.00672592
3.75585e-05
0.000245804
0.00403128
3.9328e-05
0.0111531
0.00672091
0.00219693
0.0191509
0.00660034
0.00114754
0.00673118
0.0027025
0.0131154
4.52862e-05
0.00672273
0.0116218
0.000833877
8.69679e-05
0.0104513
0.0014676
0.00672583
0.00105827
0.000219531
0.00141217
0.018403
0.010271
0.00674358
0.00234937
3.28179e-05
0.00781629
0.0067267
0.000114397
0.00198525
0.00538405
0.0129862
0.000325574
0.000706812
0.000204897
0.000436099
0.000783507
0.0068165
0.0108995
0.00316977
0.00673337
0.00259413
0.000269116
0.00595273
0.00169685
0.0139161
0.00383316
0.000791609
0.0025134
0.0042013
0.0126317
0.000641645
0.00125711
0.00674265
0.00129131
0.00030759
0.000287816
0.000424642
2.64661e-05
0.00672399
0.000447943
0.00682273
0.00014764
0.00671018
0.00284909
0.00672399
0.00672639
0.00213566
0.000557232
0.00234551
0.013048
0.01134
0.00677142
0.00674337
0.00672461
0.00672118
2.29677e-05
0.00678928
0.018984
0.00054104
0.00104698
0.00546714
0.000288286
0.0101422
0.00144488
3.89338e-05
0.00770125
0.00197909
0.00437307
0.000253915
0.000209589
4.22295e-05
0.00447249
0.00763932
0.00145387
0.00673188
7.86147e-05
0.00678839
0.000607913
0.00219851
0.0192422
0.000309437
0.000174375
0.00201892
0.00084746
0.00672372
0.000214602
0.00161072
0.00672577
3.93627e-05
0.00672507
0.00134987
0.00102548
0.00244268
0.00560865
0.00115479
3.59204e-05
0.00124417
0.00672286
0.00886267
0.0118953
0.000750039
0.000250885
0.00239932
0.000323029
0.00301577
0.00235313
0.000581759
0.00170893
0.000542629
0.000613704
0.0188311
0.000124478
0.000187373
0.000645871
0.00300702
0.0128616
0.00672256
0.0152939
0.000752616
0.0109581
0.000452932
0.00147092
0.000595503
0.000419399
8.5314e-05
0.00420159
0.0140341
7.92957e-05
0.00534847
0.00327603
0.00630423
0.00103073
0.00247178
0.000647707
0.000718802
0.00183148
0.00697085
0.006726
0.00186025
0.00278179
0.000373183
0.00672403
0.00175942
0.00674239
0.0181605
0.000889631
0.000309543
0.000825142
0.00109687
0.000167177
0.000317466
0.00031459
0.00673979
7.13869e-05
0.0149131
0.00332222
0.00337907
0.01719
0.00123901
4.41966e-05
0.006728
0.000777913
0.0124861
0.00152989
0.00530949
0.00419068
0.000237255
0.00873722
0.00342635
0.00674468
0.00306334
8.93329e-05
0.000821978
0.00894136
0.000855903
0.000154039
0.000406335
0.000310123
0.00287788
0.00256287
0.00814426
0.00124112
0.000609745
0.00138861
0.000303801
0.00578974
0.000872359
0.00204705
0.000197723
0.00673139
3.26809e-05
0.00516913
0.0027425
0.00387428
0.00370371
0.00326726
0.011951
0.00672992
0.00294466
0.00672589
0.00198118
0.00116454
0.000152619
0.00903294
0.000519655
0.00672144
0.000343436
0.00125453
0.00345298
0.00114196
0.00675713
0.00331606
0.0110421
0.0019297
7.1728e-05
0.00672081
0.00490001
0.00125444
0.00101825
0.00675548
0.00331385
0.00672302
0.00377047
0.00672379
0.0017603
0.00280008
0.00639533
0.0078609
0.00524934
0.000920284
0.00224314
0.0067262
0.0112369
0.00541843
0.000410442
0.0122814
0.00155002
0.0192845
0.00361913
0.0109883
0.00148939
0.00957358
0.00117401
0.00169002
0.00409648
0.00133532
0.00139507
0.00127327
0.000260861
0.0113415
0.000266607
0.0001853
0.000550779
0.00173507
0.000203261
0.000227076
0.000652436
0.00421896
0.00471773
0.00389963
0.00018594
0.00064424
0.00167578
0.013811
0.000790906
6.06848e-05
0.00358664
0.000223098
3.97587e-05
0.00168639
0.00077008
0.00323207
0.00845591
0.00489472
0.00166707
0.00548604
0.00198302
0.00821208
0.000114887
0.00672593
0.00506964
0.00386687
0.00537375
0.000897986
0.00174668
0.000435099
0.000891674
0.00252531
0.00106914
6.97156e-05
0.000157233
0.00024551
0.00954745
0.0106479
0.00546666
0.00672473
0.00515288
6.65515e-05
0.00313972
0.00014236
0.017817
0.00968925
0.00672981
0.00661698
0.0141652
0.000526478
0.00673265
0.00674259
0.000482058
0.00438894
0.0176601
0.00101725
0.000478989
0.00672564
0.000322812
0.00129399
5.01907e-05
0.000270441
0.000183913
0.00180553
0.00064718
0.000397686
0.00136901
0.00350278
0.000976273
0.015018
0.000725484
0.00323947
0.0067238
0.0119027
0.000296432
0.00039271
0.00672153
0.00672298
0.000269886
0.0014344
0.000100708
0.00605297
0.00512365
0.00149206
0.0114416
0.000644993
0.00676272
0.00127412
0.000328899
0.00134399
0.0067257
0.0113775
0.00800259
0.00465785
0.000239325
0.00593524
0.000301134
0.00336405
0.0067691
0.00252614
0.00222504
0.000384123
0.000511694
7.21083e-05
0.000338501
0.00673743
0.00248542
0.0130167
0.00603833
0.000327475
0.000482833
0.00423886
0.000739438
0.00672342
0.000942688
0.000337953
0.00672172
0.00968618
0.00672457
0.00034147
0.0136886
0.000496075
0.00239017
0.00672629
0.0115334
0.00672831
0.00121293
0.0019333
0.00013168
0.000257563
0.00091751
0.0125147
0.000186588
0.000556631
0.00147373
0.00310915
0.00594118
0.00672431
0.00390958
0.0111305
0.000331652
0.00129903
0.00210056
0.00309587
0.0077081
0.0120493
0.00037027
0.000601779
0.00672898
0.0109291
0.00464206
0.00409154
0.000526793
0.00149017
0.000415447
4.0341e-05
0.000161671
0.000411144
0.000881813
0.00824187
0.00161412
0.00672168
0.00298629
0.000143376
0.00674055
0.0101692
0.00672148
0.00672386
0.000564793
0.000137833
0.00328439
0.00673951
0.000681962
0.00673081
3.42424e-05
0.00571762
3.46738e-05
0.000251996
0.0128308
0.0099418
0.000499384
0.00031391
0.00950088
3.62184e-05
0.00672568
0.000367099
0.00016163
0.00031564
3.87808e-05
0.00963803
0.0105102
0.0143449
5.07564e-05
0.00242233
0.00201499
0.00672123
0.00408272
0.00126966
0.00293151
0.00152561
0.00222041
0.00601802
0.00120521
0.0107422
0.00672359
0.00155355
0.00671894
0.00854969
0.00164646
0.00778285
0.0196394
0.000337319
0.00672403
0.00569914
0.00691075
3.73105e-05
0.00672414
6.04245e-05
0.00672587
0.000167004
4.31616e-05
0.000651316
0.00331931
0.00228965
0.00674368
0.00605084
0.000246008
0.0117327
0.000771924
0.000241651
0.00552491
0.00222171
0.00672675
0.0067231
0.00178848
0.00478681
0.00139638
0.0093636
7.07418e-05
0.00108523
0.0114089
0.000483203
0.00672676
0.00180915
0.00673221
3.92671e-05
0.00419816
0.000756666
0.006182
0.00672275
0.00673465
0.000107147
0.00316831
3.17027e-05
0.0067796
0.000253685
0.00686413
3.74762e-05
0.00672291
0.0014577
0.00247356
0.000182428
0.00784767
0.00672334
0.00615598
0.00029875
0.000190282
0.00682402
0.00672606
0.0103164
0.000640872
0.00438426
0.00480829
0.000712652
0.000534566
0.000178069
0.012994
0.00137535
0.000276208
0.0018799
0.00672762
0.00494634
0.00301449
0.0170234
0.00515538
0.00205006
0.00672398
0.00807893
0.012021
0.00672907
3.80272e-05
0.000718419
0.00672156
0.00502337
0.00673703
3.94572e-05
0.0120881
0.000311119
0.00239732
0.000616902
0.0067227
0.00350399
0.00164252
0.0067217
0.000643912
0.00353577
0.00188865
0.000259956
0.000602423
0.00672314
0.0185378
0.00258105
0.00672273
0.000226765
0.0015155
0.000139125
0.000667536
0.00652074
0.000508964
0.00366574
0.000326532
0.000351858
0.00155367
0.00744517
0.00200985
0.00191976
4.44765e-05
0.0048874
0.000134086
6.5971e-05
0.000139685
0.00672249
0.00452458
0.00672719
0.000249917
0.00299972
0.00376912
0.000901647
0.00665596
0.0194537
0.00672617
4.26154e-05
0.014809
0.0126169
0.00583933
0.00325478
0.00239169
0.0165524
0.000846776
0.00226088
0.000369926
0.0060469
0.000318253
5.75154e-05
0.000517661
0.0133201
0.00036533
0.00674505
0.000196831
0.000619913
0.00264486
0.00329182
0.00142949
0.0108707
0.000316938
0.00759015
0.00121837
0.000562538
0.00306374
0.000539667
0.00780672
0.00239893
0.00178821
0.0105906
0.0115146
0.000464588
0.00207753
0.00096948
0.00177961
6.77602e-05
0.00106108
0.000293851
0.0124918
0.00674861
0.00321107
0.000173971
0.0100512
0.00672113
0.00672392
0.0145718
3.82096e-05
0.00483716
0.000542687
7.70722e-05
0.000172855
0.0184028
0.0146545
0.0105293
0.0120066
0.000633404
0.00675733
8.40564e-05
0.00521365
0.00404283
0.00451872
3.3251e-05
5.78399e-05
3.22287e-05
0.00354692
0.0067261
2.79337e-05
0.000266408
0.000274888
3.16417e-05
0.00603313
0.00672333
4.25022e-05
0.011863
0.0022813
9.10729e-05
0.00060705
0.00673146
0.000680158
0.0114503
3.89563e-05
0.00672606
0.00400908
0.000857361
0.0021568
0.00673306
0.00261713
0.00249352
0.00291618
0.00247464
0.000312179
0.000227709
0.000174628
3.54616e-05
0.00192662
0.0090787
0.000641446
0.00191436
0.000652103
0.00283932
9.9827e-05
0.00676042
0.000584392
0.00041342
0.000618448
5.93161e-05
0.00343885
0.000181916
0.000262358
0.00854489
0.000399231
0.00399624
0.00531288
0.00448182
0.000724531
0.00121296
3.89875e-05
3.84041e-05
3.7863e-05
0.000548699
0.000236481
0.00553404
0.00275426
0.0025248
0.000338302
0.000115547
0.00411315
0.00471119
0.000697855
0.0110912
0.00672191
0.00589296
0.000145683
6.76161e-05
0.000215628
0.00548761
0.00672209
0.0013483
0.00294948
0.00264284
0.00131908
8.41714e-05
0.000229849
0.0040224
0.0031325
0.00292712
0.00672534
0.00778058
0.00239161
0.00928882
6.64492e-05
0.00377963
3.64667e-05
0.000337712
0.0119664
0.00267745
0.00233729
0.00658159
0.00672407
0.00260243
3.66209e-05
3.68789e-05
0.00676767
0.00672445
0.00327786
4.87342e-05
0.00672542
0.000346662
0.000877171
4.42271e-05
4.33168e-05
0.000202949
0.000244873
0.00674161
0.00075284
0.000268676
5.00887e-05
6.73304e-05
0.000202196
0.00672101
7.5928e-05
0.0061408
0.000238951
0.015379
3.78632e-05
0.00333919
6.436e-05
0.00343648
0.0011363
0.00206452
0.00320635
0.000376085
0.00279143
0.0173797
7.34687e-05
0.000206068
6.32468e-05
0.000171846
0.0188164
0.0112541
0.00044301
0.0109966
0.000109061
0.00565744
0.000109145
0.0116434
6.3431e-05
0.00672596
0.000524042
3.46294e-05
0.00046471
0.00258605
0.00325768
0.000649626
0.0067243
0.00590219
0.00188662
0.000210353
0.00672566
0.00597471
0.00965376
0.000323444
0.00662368
3.58919e-05
0.0101928
0.000256469
0.00673789
0.00121943
0.00676578
0.000155494
0.000430832
0.000388739
0.000777996
0.000236892
0.006773
0.0110047
0.0019917
0.000568689
0.0165429
5.54338e-05
0.0051545
0.00963525
0.00451551
0.00269721
0.00672389
0.00039856
0.000130837
0.0155466
0.0012773
0.0004212
0.00280993
2.6996e-05
0.00057822