/*--------------------------------*- C++ -*----------------------------------*\
| =========                 |                                                 |
| \\      /  F ield         | OpenFOAM: The Open Source CFD Toolbox           |
|  \\    /   O peration     | Version:  v2012                                 |
|   \\  /    A nd           | Website:  www.openfoam.com                      |
|    \\/     M anipulation  |                                                 |
\*---------------------------------------------------------------------------*/
FoamFile
{
    version     2.0;
    format      ascii;
    class       volScalarField;
    location    "50";
    object      k_0;
}
// * * * * * * * * * * * * * * * * * * * * * * * * * * * * * * * * * * * * * //

dimensions      [0 2 -2 0 0 0 0];


internalField   nonuniform List<scalar> 
13851
(
0.000154139
0.000407831
0.000200632
0.000153597
0.000193674
0.000207551
0.000146693
0.000180625
0.000139105
0.000222362
0.000401526
0.0120687
0.00729183
0.03053
0.000143947
0.000167928
0.00015764
0.000167273
0.000197252
0.000138892
0.00015308
0.000198482
0.000153521
0.000158686
0.000155769
0.000181221
0.000155867
0.00756745
0.000153628
0.000157321
0.00168819
0.000158298
0.000198597
0.0159406
0.000157629
0.000203797
9.56735e-05
0.000234848
0.000232614
0.0150088
0.000144833
0.000138603
0.0136743
0.000509093
0.000430739
0.0139715
0.000584645
0.00840312
0.000156335
0.00257361
0.00018766
0.000200164
0.0260716
0.000145765
0.000152582
0.000138521
0.000151737
0.0274637
0.000156709
0.000147434
0.000239022
0.0203262
0.000273469
0.00019696
0.00028395
0.000158291
0.000678679
0.000859982
0.000168753
0.000166843
0.0158335
0.00946648
0.000384018
0.000146591
0.000141125
0.000142312
0.00019695
0.0185187
0.000179919
0.0181609
0.000149171
0.000138935
0.000143817
0.0182252
0.000496723
0.0138181
0.000310233
0.019081
0.000158345
0.000145126
0.000203742
0.000266817
0.000994735
0.000161896
0.000157934
0.000164303
0.00019398
0.0302228
0.00247642
0.000165159
0.033159
0.000180641
0.000150677
0.000154958
0.000144098
0.00117416
0.000182692
0.000138231
0.0237218
0.000275374
0.000167903
0.00014585
0.000199152
0.000162036
0.000166888
0.00440851
0.0299892
0.000139498
0.000155135
0.000155314
0.0132967
0.000154757
0.00870513
0.00558912
0.00869364
0.000143339
0.00615998
0.0001805
0.000152637
0.00020891
0.000144583
0.000138618
0.0191117
0.000143768
0.0053616
0.00014027
0.000139785
0.00880008
0.0294121
0.0257863
0.0318081
0.000152544
0.000153932
0.000139226
0.00015431
0.000590147
0.000138353
0.000209866
0.000146493
0.000387237
0.000186492
0.00015245
0.0310631
0.000151809
0.000152964
0.000154127
0.000141816
0.000154298
0.000200729
0.000187468
0.000137944
0.000161528
0.0275839
0.000138487
0.000164462
0.000139052
0.00013849
0.000169153
0.000152198
0.0210635
0.0160913
0.00013792
0.000142018
0.0279761
0.000138366
0.00971981
0.000179658
0.000154652
0.000174744
0.000138196
0.000159664
0.0124555
0.000143665
0.000201056
0.0001391
0.000159328
0.000158359
0.000147963
0.000198386
0.000221176
0.000710745
0.0280689
0.000147579
0.000169163
0.0186015
0.000152556
0.000152985
0.0145167
0.000153562
0.000142365
0.000143634
0.0126924
0.000161157
0.000143182
0.000198374
0.000143794
0.03526
0.000157839
0.0312216
0.000138363
0.0398969
0.000150264
0.0141668
0.000138138
0.000139066
0.000239196
0.000193405
0.0103897
0.000143291
0.03253
0.000158198
0.000149387
0.0331495
0.000203212
0.0430125
0.000159281
0.000164561
0.000145056
0.0284959
0.000138289
0.000180172
0.000427423
0.000138033
0.000146671
0.000184908
0.000191992
0.0295357
0.000306696
0.00013916
0.000143315
0.0028045
0.0112754
0.000138089
0.000205089
0.000142507
0.0410898
0.000181544
0.0154033
0.000154465
0.000159719
0.000188814
0.012656
0.000149557
0.000154635
0.000180019
0.0162955
0.000217626
0.011236
0.00576254
0.000144164
0.000139138
0.000164588
0.00886381
0.000141774
0.000621878
0.000152537
0.000149384
0.000161162
0.0312804
0.000190726
0.000188176
0.00015299
0.00463246
0.000178255
0.00016735
0.00013872
0.000138762
0.000148484
0.0450022
0.000353971
0.000138075
0.000138565
0.000143641
0.000179142
0.0087643
0.0101414
0.000139725
0.000144005
0.00574185
0.000138842
0.000213991
0.000155867
0.000147564
0.00017121
0.000138923
0.000898444
0.000163123
0.0153654
0.0001389
0.0414691
0.000160951
0.00015748
0.0443451
0.000147793
0.00124626
0.0378164
0.000139486
0.000175686
0.000162094
0.000155254
0.0266661
0.000163506
0.000149268
0.0325476
0.00013862
0.000160097
0.000145274
0.0439467
0.000194786
0.000143308
0.000180946
0.000143551
0.013332
0.000211967
0.000154658
0.000144816
0.000194307
0.000163651
0.000152655
0.000144013
0.00014763
0.00014907
0.000440627
0.0374466
0.023
0.000174193
0.0432571
0.00253313
0.000143578
0.000169895
0.000214951
0.000399092
0.000220397
0.000196986
0.000118144
0.000164924
0.0101006
0.0395588
0.000144194
0.000221218
0.000217241
0.000269843
0.000152624
0.000233035
0.0285439
0.00014236
0.0097129
0.000144744
0.000143617
0.000141858
0.000138187
0.00014104
0.0397783
0.0106182
0.00014469
0.000174647
0.000138577
0.0139353
0.000173483
0.00754946
0.0228024
0.000144916
0.000161583
0.000162314
0.00795319
0.000143712
0.000139613
0.000188522
0.0376116
0.000144382
0.0267483
0.00035299
0.000197863
0.0149931
0.000360968
0.000381228
0.000172244
0.000139118
0.000149959
0.000171012
0.000180428
0.0312174
0.000169002
0.0428386
0.0384404
0.000138677
0.000144269
0.021973
0.0206375
0.000250845
0.030155
0.000197833
0.000163202
0.000165984
0.000834243
0.00013832
0.000167466
0.0001676
0.000146006
0.000144322
0.000139389
0.000138962
0.000195432
0.000204001
0.017675
0.000168147
0.000182168
0.000185696
0.0124215
0.00016131
0.000306518
0.000156943
0.000223336
0.000139606
0.000139254
0.000163218
0.000247929
0.0132275
0.000203941
0.000180685
0.0133506
0.0165032
0.000203977
0.000157859
0.000185171
0.000143444
0.0129849
0.000145077
0.0136064
0.0133233
0.000196718
0.0284142
0.000154422
0.000146611
0.0128737
0.0413335
0.000138594
0.000165031
0.000180597
0.000207839
0.000138182
0.00014917
0.000185454
0.000198661
0.000177795
0.000977761
0.000159596
0.000145423
0.021986
0.000165911
0.000138596
0.0183164
0.000139027
0.000154178
0.000138511
0.000181087
0.000153055
0.000138452
0.000153568
0.0306882
0.000143952
0.000171009
0.000139616
0.000177622
0.000165022
0.000160625
0.000144564
0.000162349
0.000163679
0.0100799
0.000149229
0.000279303
0.000143618
0.000161182
0.0279543
0.0267447
0.000144061
0.000185049
0.000161416
0.010966
0.0158036
0.000145476
0.0105925
0.000144006
0.000195676
0.000146621
0.020862
0.000140162
0.0240918
0.000216515
0.000138632
0.000184393
0.0275112
0.000181032
0.00345514
0.000154288
0.00721863
0.000155656
0.000137922
0.000138798
0.000145898
0.0253475
0.000185855
0.000197123
0.000145452
0.000129097
0.000137897
0.0115001
0.0131513
0.00015983
0.000161872
0.00734583
0.00585172
0.0381447
0.000151985
0.0200966
0.0155818
0.0123587
0.000164713
0.000204449
0.00349842
0.000147854
0.0170562
0.0145321
0.0281078
0.000154837
0.0219084
0.0167359
0.000139655
0.000146532
0.000186309
0.0218327
0.000154974
0.000142714
0.000141522
0.000143627
0.000196738
0.000183526
0.012103
0.00327665
0.000140288
0.0204748
0.027464
0.00524722
0.0127985
0.000170551
0.000138508
0.000139224
0.000138888
0.0149542
0.000153197
0.00018963
0.000203859
0.000138484
0.000208378
0.00492996
0.000296382
0.000198307
0.0267507
0.0168397
0.000144281
0.000146142
0.0170273
0.0380222
0.000195974
0.000168744
0.00200368
0.000138211
0.000141863
0.0118817
0.000138556
0.000154792
0.000138186
0.000139197
0.0185284
0.000195844
0.000174985
0.000138453
0.023775
0.0151115
0.000139113
0.000149346
0.000141934
0.000149141
0.0381808
0.0147808
0.0145774
0.0113455
0.00773851
0.000167101
0.0176973
0.0283461
0.000167502
0.000169311
0.000138542
0.00014474
0.000169694
0.0261397
0.00851789
0.000189264
0.00016367
0.000138787
0.000168183
0.000157532
0.00399843
0.000188739
0.000143495
0.00017672
0.000138261
0.00016074
0.000205206
0.000147061
0.000143166
0.000173425
0.000147036
0.000194688
0.000246972
0.000201849
0.000169244
0.000196698
0.00013867
0.000271525
0.000197128
0.0108028
0.000149982
0.000164796
0.0205318
0.000155748
0.0143054
0.039755
0.00764366
0.0151383
0.00013832
0.0125536
0.00013811
0.000139129
0.000139812
0.000139242
0.000138076
0.000170179
0.000178846
0.000138447
0.00189011
0.000219037
0.00329511
0.000140829
0.000139425
0.000148877
0.000215132
0.0164445
0.000180041
0.000161163
0.000138144
0.00016245
0.000146284
0.000142583
7.35257e-05
0.0178331
0.000146721
0.00013835
0.000146029
0.000142454
0.00466594
0.0280307
0.000168324
0.02881
0.00681023
0.000142929
0.000197223
0.0397491
0.000170653
0.0129523
0.00014912
0.000165211
0.000179677
0.000165907
0.0143488
0.000143924
0.00363655
0.000145074
0.000164557
0.0314094
0.000146534
0.000153685
0.00127377
0.000138038
0.000158819
0.00775329
0.0305631
0.000188458
0.000409327
0.000442064
0.000138135
0.000140576
0.0264442
0.000201062
0.000196805
0.0399606
0.000140647
0.000164552
0.000139956
0.00761243
0.00185178
0.000160415
0.000148907
0.00017008
0.000156292
0.00014845
0.0203932
0.014214
0.0319622
0.000138547
0.000146568
0.0182925
0.0224459
0.000200224
0.000156791
0.0293741
0.000143877
0.000196308
0.000228287
0.000199317
0.000158301
0.00961837
0.000179938
0.000174125
0.000136997
0.000163045
0.000160791
0.00015358
0.000138665
0.0215526
0.000167367
0.000198006
0.000172655
0.000152708
0.000138794
0.00803963
0.00015416
0.000178772
0.000140493
0.000142483
0.00014434
0.0374814
0.00014127
0.000139346
0.00501512
0.000146408
0.0224865
0.000147622
0.000154859
0.000185978
0.017996
0.0121017
0.000143753
0.00194906
0.0280991
0.000149399
0.0365331
0.000164225
0.000138551
0.00172072
0.0162487
0.00143619
0.000160252
0.000140694
0.00013833
0.0132263
0.000205765
0.000195798
0.000162369
0.00165199
0.000149848
0.000154687
0.000189401
0.0145793
0.00019769
0.00929571
0.000146296
0.000195709
0.000189957
0.0430606
0.000160242
0.0378708
0.000138385
0.000146547
0.0163899
0.000468824
0.0196271
0.0304292
0.0341122
0.00679116
0.000174789
0.000138537
0.000169019
0.029693
0.019113
0.000144284
0.000162575
0.000185826
0.000139217
0.000138994
0.0263068
0.000140074
0.00014461
0.0217997
0.0182111
0.000529903
0.000139049
0.000143742
0.0245741
0.000112977
0.000194573
0.000155653
0.0254109
0.000281708
0.0146925
0.000182521
0.000174148
0.000149321
0.000146447
0.00205155
0.000178364
0.0194748
0.000207239
0.000168584
0.0213764
0.0216289
0.0246353
0.000144634
0.000165436
0.000139011
0.000169314
0.000153402
0.0117969
0.000164755
0.0367932
0.000139139
0.000185502
0.000142305
0.000246814
0.000167716
0.000165008
0.029588
0.000175635
0.000184065
0.000161376
0.000185864
0.00930843
0.00116717
0.000155107
0.0163745
0.000141572
0.0304218
0.0110287
0.000147679
0.0409243
0.035417
0.0242484
0.00627194
0.000207609
0.000144023
0.030735
0.000165494
0.00372623
0.0316077
0.000140829
0.000152148
0.000238948
0.0150342
0.0305414
0.000146448
0.000145586
0.00469573
0.0312077
0.000198836
0.000159452
0.000152688
0.0106146
0.0171205
0.000190876
0.00013932
0.000175681
0.000138114
0.000158001
0.000263568
0.000167081
0.00316432
0.0122255
0.00014483
0.000154484
0.000144279
0.000153762
0.0172015
0.0265409
0.000164495
0.0399068
0.000142238
0.000164576
0.000143579
0.00013821
0.000147239
0.000144667
0.0237276
0.00014411
0.000179882
0.000144735
0.000160393
0.000297705
0.0167038
0.000154711
0.0194567
0.000196953
0.000460198
0.000167975
0.000168589
0.0170689
0.000160723
0.000187034
0.010259
0.00420958
0.0249774
0.000175758
0.000377518
0.000149484
0.000174356
0.000181143
0.0342057
0.000147517
0.0301384
0.000140384
0.000141031
0.0309544
0.000144065
0.000973201
0.000158811
0.000138906
0.000194613
0.000139012
0.000143777
0.000138097
0.000148821
0.000176446
0.000141014
0.000109056
0.0201766
0.000190245
0.03175
0.000146184
0.000154849
0.00014677
0.000143827
0.000138835
0.000188216
0.000149131
0.00014041
0.000149146
0.000157579
0.0227112
0.0168877
0.000859888
0.0315595
0.000113323
0.000141843
0.00344563
0.000163452
0.000140847
0.00757424
0.00484532
0.0222168
0.000141599
0.000517028
0.015426
0.0274272
0.000138699
0.00645754
0.000166294
0.000155686
0.000138096
0.000139822
0.043437
0.0003178
0.0101755
0.000145581
0.000143437
0.00516049
0.000147767
0.00604744
0.00961474
0.000414745
0.000149278
0.0114721
0.000162079
0.000144349
0.00022727
0.000180857
0.000155063
0.000230395
0.000177342
0.000149317
0.000152553
0.0154388
0.000140629
0.022625
0.00347493
0.00562524
0.000217775
0.00015192
0.000140708
0.000148258
0.00281047
0.0148299
0.000138496
0.000159746
0.000145578
0.00018877
0.000139675
0.000144627
0.000149576
0.000168254
0.00158897
0.000187434
0.000175202
0.000144722
0.000179443
0.00173052
0.0001505
0.0145903
0.000179836
0.000188207
0.000139327
0.000176385
0.000142693
0.000155041
0.000147867
0.0185351
0.000194694
0.0134617
0.000155163
0.000187113
0.000143072
0.000144777
0.0001478
0.00346491
0.00178826
0.000137982
0.000167873
0.000212415
0.0272146
0.000161682
0.000592541
0.000138111
0.0330596
0.000204658
0.0336639
0.00018966
0.000188519
0.000256883
0.0288531
0.0109896
0.0151583
0.00015182
0.00331926
0.000139589
0.000155301
0.000159409
0.000147316
0.0288457
0.000164676
0.000161853
0.00918139
0.000211098
0.0102465
0.000143422
0.000154807
0.000161281
0.000141176
0.000172019
0.00437828
0.00809824
0.0162933
0.000140383
0.000160781
0.000156702
0.00478681
0.0288781
0.000205465
0.000140601
0.000148765
0.0158656
0.000179902
0.0412419
0.0119032
0.00030972
0.000139281
0.0108755
0.000169702
0.000177911
0.000163167
0.0384292
0.00271844
0.000206875
0.000293894
0.000151018
0.000177238
0.000144567
0.0223784
0.000197744
0.0274501
0.000174252
0.000159214
0.000199042
0.000152524
0.0381
0.000124247
0.000146348
0.0135925
0.0327098
0.0211721
0.022687
0.000146094
0.000144646
0.0179048
0.00142361
0.0194006
0.000154453
0.000146099
0.000144886
0.0229886
0.000198972
0.000148747
0.00603954
0.000208186
0.0303137
0.00937033
0.0099955
0.000144163
0.026213
0.000157012
0.000144363
0.00019828
0.018451
0.000146803
0.00014035
0.0154466
0.0360398
0.000142684
0.000140268
0.028198
0.000145745
0.000138871
0.000140397
0.00583613
0.000144599
0.000180237
0.0169312
0.0286534
0.000151778
0.0155362
0.0125027
0.0020763
0.00123217
0.0365395
0.000221056
0.000142221
0.000193784
0.000160945
0.000143547
0.000141106
0.0212654
0.000142708
6.97052e-05
0.000140544
0.000174682
0.0179006
0.000194891
0.00138593
0.000153193
0.000151865
0.000138717
0.000167406
0.0102578
0.0295248
0.000139925
0.000186835
0.00725387
0.000147467
0.000140587
0.0313848
0.000169527
0.000169608
0.000197429
0.0236492
0.00343498
0.00703223
0.0195474
0.000239814
0.000266856
0.0141239
0.000474424
0.000187365
0.000140413
0.000196003
0.00014215
0.000142123
0.0190768
0.031499
0.000154376
0.0336295
0.0034937
0.0217446
0.00582078
0.00269634
0.000143435
0.00231143
0.00103836
0.000145705
0.000152121
0.037625
0.0330137
0.00057467
0.0360341
0.000175755
0.0395131
0.0392583
0.000166877
0.000146962
0.000142015
0.000138979
0.000141067
8.14727e-05
0.000151685
0.000150089
0.000155011
0.00350204
0.0417817
0.0243425
0.000149047
0.0123876
0.000159416
0.000167338
0.000140819
0.000146577
0.0259733
0.000161942
0.0286657
0.00215104
0.00622189
0.000194013
0.000144415
0.000174818
0.000147618
0.000199405
0.000154062
0.000152843
0.000148636
0.000151995
0.00020063
0.000150277
0.000170029
0.000146145
0.000170428
0.000263375
0.0179615
0.000142303
0.000179935
0.000145972
0.00417763
0.000142257
0.00855225
0.0100217
0.000166304
0.00015501
0.000152321
0.00198011
0.000143999
0.000155338
0.000143879
0.000145196
0.000152776
0.0340903
0.000161106
0.000157197
0.000191467
0.000151976
0.000183676
0.0317937
0.000265721
0.000170854
0.000144536
0.000541002
0.000140426
0.000143136
0.000218424
0.036965
0.000147437
0.000168828
0.000241683
0.014176
0.000148939
0.000149999
0.0350693
0.000152175
0.00139923
2.64346e-05
0.0404147
0.000144807
0.000142602
0.000143077
0.0427085
0.000197483
0.000177009
0.000194885
0.0216397
0.000151284
0.0381779
0.0447422
0.000147558
0.00311188
0.000188459
0.000152064
0.0263098
0.000146112
0.000144594
0.000138919
0.000211318
0.00126634
0.000201692
0.000153065
0.000150745
0.000164338
0.0116843
6.43169e-05
0.0410766
0.00734476
0.000149746
0.000197463
0.000211737
0.0252726
0.00020171
0.000139331
0.00014119
0.000190247
0.000139818
0.0173446
0.000175952
0.000143007
0.0198369
0.00508817
0.000168174
0.000240998
0.000138361
0.000151508
0.000182245
0.0001695
0.00697031
0.000187998
0.000194652
0.000187834
0.000206907
0.0391662
0.00441181
0.0411881
0.000142516
0.000140327
0.000199579
0.0191545
0.0237268
0.00156721
0.000156216
0.0176218
0.00744438
0.000146446
0.000159828
0.000139467
0.000174877
0.000186683
0.000142925
0.0278287
5.27736e-05
0.000152238
0.0174885
0.0156555
0.000144063
0.000230861
0.0296993
0.02306
0.000155262
0.000186562
0.000138345
0.000157317
0.000145816
0.000159269
0.042699
0.0273506
0.00871909
0.0159623
0.000151914
0.00017046
0.000183416
0.000147898
0.000148159
0.000139176
0.0253435
0.000140786
0.0374095
0.000173964
0.000242741
0.000220179
0.000179405
0.0199305
0.0164106
0.000174429
0.000138714
0.00015264
0.0126964
0.00359242
0.00015735
0.000139196
0.000142965
0.000191929
0.000165699
0.000198812
0.0414613
0.00015173
0.000139344
0.000195536
0.000408092
0.0170388
0.00471996
0.000140351
0.00018937
0.000147137
0.0448092
0.000139212
0.0404403
0.000141981
0.000151487
0.000172775
0.000148995
0.00284213
0.000165078
0.000179403
0.030505
0.033259
0.000158303
0.000165154
0.000143241
0.0146586
0.0257659
0.000147791
0.00013973
0.00733208
0.000138987
0.026352
0.0001464
0.000179615
0.000197261
0.0125917
0.000179151
0.000152591
0.000146156
0.000185627
0.0375812
0.000142265
0.0158962
0.0355009
0.00794207
0.0304997
0.000170667
0.0233129
0.000158038
0.000128255
0.00014304
0.00677649
0.00742804
0.0206562
0.0142152
0.0405296
0.000144763
0.000354574
0.0001403
0.0135859
0.0077906
0.0368841
0.0295992
0.000161877
0.0445822
0.0109629
0.00017195
0.000153125
0.00014698
0.0287285
0.000159655
0.000185385
0.000160087
0.00014788
0.000138246
0.000147001
0.0279869
0.000190541
0.000166339
0.0149545
0.0020917
0.000143443
0.000143506
0.000141796
0.000176742
0.0393631
0.000177156
0.0001599
0.000166743
0.000896251
0.000202193
0.00017766
0.0222966
0.000165423
0.0413582
0.000164583
0.000169874
0.000143204
0.00016023
0.000189134
0.0146924
0.00528962
0.0316926
0.000196181
0.0222396
0.000164189
0.000156732
0.000155573
0.00987273
0.0186094
0.00673566
0.00465642
0.000154675
0.000144723
0.000141733
0.00014387
0.000139446
0.0198605
0.000164353
0.0252894
0.000168094
0.0151884
0.033147
0.0411041
0.000215948
0.000159184
0.0209411
0.000175686
0.000347793
0.0309554
0.000137896
0.00132332
0.000161477
0.0410264
0.0192719
0.000170519
0.0071575
0.0155992
0.000156334
0.00021378
0.000164068
0.00831837
0.00931998
0.00015581
0.000146222
0.00589881
0.0351602
0.000203929
0.00408314
0.000196382
0.000178615
0.000144498
0.0302724
0.0355825
0.000206589
0.000165658
0.028408
0.0305529
0.000140502
0.000144237
0.000156328
0.0366276
0.0326857
0.000143477
0.0220121
0.000149942
0.000142312
0.00014764
0.0143734
0.000428436
0.00168372
0.023034
0.000153655
0.000152769
0.000140931
0.0206629
0.000150927
0.0228625
0.00015526
0.000725613
0.000148719
0.000142202
0.000205344
0.0196821
0.00740804
0.000169882
0.000521481
0.00013795
0.000145929
0.000144379
0.000179193
0.000187519
0.000186918
0.00018035
0.0312363
0.000156517
0.00020921
0.000294482
0.039144
0.000146557
0.0271503
0.0330762
0.000157362
0.0105235
0.000184306
0.0298245
0.000147153
0.000194862
0.000143896
0.000412906
0.0154553
0.000231764
0.0400861
0.000155552
0.00017808
0.000152042
0.0233085
0.00013908
0.000139332
0.00471013
0.000220589
0.0228274
0.00962585
0.000183727
0.000163528
0.000138985
0.0123312
0.000170069
0.000146014
0.000199891
0.000138093
0.000176654
0.000144769
0.00872606
0.000153319
0.00058734
0.00374287
0.000170682
0.00767171
0.0001841
0.0449625
0.00014504
0.0183526
0.00468265
0.000140195
0.000144034
0.00015355
0.000148887
0.000174933
0.000143158
0.0032282
0.000187225
0.000193776
0.00629598
0.000146895
0.000149302
0.000141383
0.019149
0.000146187
0.000144399
0.000136972
0.000155317
0.000259872
0.0390568
0.000189171
0.000155839
0.000168543
0.000152642
0.000149909
0.000606139
0.000140234
0.00015565
0.0147452
0.042146
0.00102036
0.000152513
0.0213401
0.0108213
0.000148946
0.000166122
0.0289192
0.000143565
0.000154597
0.000143057
0.0210246
0.00873912
0.00344237
0.000140064
0.000156042
0.000154361
0.000146377
0.000201836
0.000147205
0.000783242
0.00912688
0.0397325
0.000137952
0.000155434
0.000154304
0.0094169
0.000138437
0.010705
0.0157064
0.00189894
0.00438759
0.0226616
0.0380021
0.000150863
0.00320521
0.00402658
0.000151194
0.000138598
0.000139961
0.039313
0.0225088
0.0175831
0.000153293
0.0421249
0.000146998
0.000218235
0.00014164
0.000154565
0.000151026
0.000137914
0.0100998
0.000151359
0.0264595
0.0301719
0.0100679
0.000180889
0.000179606
0.00751327
0.0366304
0.000147866
0.0144216
0.000141075
0.000139448
0.000143308
0.000167687
0.000143744
0.0295269
0.000167292
0.000935455
0.000180926
0.0173972
0.0225173
0.000239649
0.000137987
0.000184599
0.000202622
0.00797849
0.000146898
0.000139634
0.000156086
0.0153534
0.000147319
0.00136206
0.0290204
0.000175386
0.000190279
0.000146835
0.010274
0.000148692
0.0404364
0.00013933
0.0196129
0.000165955
0.000145844
0.0290436
0.0133056
0.000140583
0.00018413
0.000157564
0.0201485
0.00116307
0.000285852
0.000701971
0.000148857
0.000185688
0.0271509
0.000147294
0.000163972
0.000154251
0.000187161
0.000167557
0.0224899
0.0270792
0.00014612
0.0271971
0.000151521
0.000178364
0.0264419
0.0289101
0.000176335
0.0288383
0.000252382
0.000146337
0.00168823
0.000196215
0.000165803
0.000151211
0.0149989
0.000140463
0.0326655
0.000372209
0.000218778
0.000143312
0.000173021
0.0273467
0.000178574
0.0146424
0.000150086
0.000155546
0.00023794
0.015338
0.000159226
0.0383782
0.0117229
0.0292846
0.00014773
0.0117053
0.000198212
0.0146227
0.000143857
0.000150322
0.00014523
0.0399681
0.000248343
0.012325
0.00563436
0.000149098
0.00014176
0.000143655
0.0104332
0.00842552
0.0318795
0.0190981
0.000140744
0.026436
0.0335377
0.000196534
0.0224795
0.0288595
0.000177783
0.0256739
0.000154183
0.000158643
0.018225
0.00594798
0.000141993
0.0343271
0.000148488
0.000144304
0.037652
0.0267926
0.0366763
0.014408
0.000166324
0.00014904
0.000157592
0.03388
0.0150044
0.000142305
0.000177013
0.0106233
0.000144512
0.000146529
0.0237645
0.0252038
0.000154043
0.000144146
0.000150892
0.000152553
0.00122401
0.000148836
0.000144463
0.000160052
0.00206314
0.0237756
0.00766477
0.0196657
0.000146332
0.000158589
0.032227
0.0353311
0.000165534
0.000408926
0.000143177
0.000171611
0.00015264
0.00014236
0.000194901
0.000143836
0.00612502
0.00017055
0.000140972
0.000157833
0.000190569
0.0122965
0.0242064
0.000144676
0.000167054
0.0370973
0.00761429
0.000155807
0.000146274
0.000144514
0.000272418
0.00014677
0.000151105
0.000162643
0.000143906
0.0324653
0.00454803
0.000148771
0.00015666
0.000139591
0.000147154
0.00714586
0.00387849
0.000187893
0.0226682
0.00186773
0.000149398
0.000143039
0.000145865
0.000144886
0.000148548
0.000161421
0.000201516
0.0266737
0.000151692
0.000200428
0.0244437
0.000468249
0.000143831
0.000139452
0.000154379
0.0213093
0.00014438
0.000161983
5.7366e-06
0.000195815
0.000160534
0.0159234
0.000139105
0.00102394
0.000142933
0.000139162
0.000147573
0.000146707
0.000313336
0.00795428
0.00957213
0.000174305
0.0421633
0.0151316
0.0150285
0.000167033
0.0268205
0.0240845
0.000202659
0.00460375
0.0258687
0.00019448
0.00802104
0.00014896
0.000143927
0.0216696
0.000141594
0.000156799
0.0396644
0.000458678
0.017966
0.0127599
0.000139485
0.000154696
0.000146177
0.000593805
0.000141502
0.000259984
0.0248442
0.0234531
0.00864904
0.000146402
0.000140442
0.000187073
0.0327824
0.0326545
0.000221011
0.0013485
0.000139987
0.00291056
0.0286046
8.55501e-05
0.000156581
0.00014677
0.000137915
0.000154768
0.00014645
0.000145302
0.000156286
0.0313158
0.000189285
0.0281674
0.00134393
0.000243813
0.000204321
0.00014296
0.000149274
0.000164379
0.000143846
0.000148747
0.00365959
0.000768305
0.00426437
0.0421752
0.000154181
0.019428
0.000216926
0.0384844
0.0320213
0.000146726
0.000144589
0.00161132
0.000146576
0.000140579
0.00673545
0.0325556
0.00708984
0.000144694
0.000146272
0.000161977
0.000172927
0.000206883
0.000141141
0.000155571
0.000185115
0.000141351
0.017818
0.00017237
0.0413844
0.000148932
0.000114553
0.0320982
0.000172057
0.0326185
0.000196935
0.0287857
0.000139247
0.000159128
0.000140058
0.00016502
0.0148388
0.000155537
0.0237175
0.000162084
0.000145628
0.000144162
0.0419252
0.000177207
0.000198804
0.00307689
0.000143339
0.000180217
0.0308409
0.000184017
0.000144448
0.000151545
0.000146648
0.000208789
0.000145689
0.000143233
0.0438563
0.0396421
0.0403518
0.0279914
0.00015257
0.0262605
0.000185505
0.0432513
0.000211666
0.000139136
0.000148391
0.000139242
0.000147959
0.0350706
0.0348705
0.000141322
0.01894
0.042912
0.000163761
0.000151575
0.000167853
0.0120847
0.0214138
0.0314535
0.0298814
0.0326943
0.000139211
0.000198634
0.000201325
0.00156265
0.019494
0.000143546
0.000196325
0.0318131
0.000169254
0.0314087
0.000149055
0.000299466
0.0301807
0.0370251
0.00018642
0.000166524
0.0182161
0.000196858
0.0371551
0.0408074
0.0323713
0.000194989
0.00441287
0.000146554
0.00015914
0.000178953
0.0232033
0.00416577
0.0284203
0.000158814
0.000217679
0.000200336
0.00016191
0.0277022
0.000143576
0.000196719
0.0224963
0.000143564
0.0386295
0.01095
0.0402717
0.00854489
0.000232686
0.00334213
0.000143222
0.0361122
0.000161896
0.000147149
0.000175961
0.000155711
0.0331157
0.00015603
0.000167916
0.000156441
0.000145803
0.000339406
0.00015373
0.000195262
0.00154802
0.000137894
0.0278259
0.000200075
0.000152842
0.0225453
0.000134382
0.000143298
0.00432608
0.000150332
0.0426477
0.00097735
0.000141418
0.00019455
0.000153893
0.0380098
0.032705
0.000188222
0.00736785
0.000159365
0.000144607
0.0413091
0.000155725
0.000145286
0.00718748
0.000173421
0.000139949
0.000140472
0.000214281
0.000153387
0.0226438
0.00017506
0.000335728
0.0300702
0.000179928
0.000192207
0.000143776
0.0388338
0.0175093
0.0221054
0.000143951
0.000141566
0.000190974
0.000166032
0.0160711
0.000145521
0.0106495
0.000145112
0.000856685
0.000151466
0.000313834
0.000260823
0.000194169
0.0283724
0.00848789
0.0277763
0.0314647
0.000139389
0.00141961
0.00164735
0.0214943
0.000149024
0.000243177
0.0175273
0.0113262
0.000194065
0.000133638
0.0050765
0.0403556
0.000176463
0.000152691
0.000138018
0.000178996
0.000174846
0.000143283
0.000185646
0.0246658
0.00172036
0.00895352
0.00132603
0.000142182
0.000139882
0.000177941
0.000143391
0.0100122
0.000141318
0.000139774
0.0426325
0.000192562
0.000178076
0.000199067
0.00015883
0.000212533
0.026187
0.033096
0.0268091
0.000158438
0.0329853
0.000152964
0.00014283
0.000153797
0.0274694
0.000175356
0.000214673
0.00019156
0.000151281
0.000140606
0.000143422
0.000149009
0.000160422
0.029453
0.00205756
0.00016391
0.02924
0.0223732
0.00341041
0.0148593
0.000144603
0.000165196
0.00784137
0.000144193
0.000142571
0.000161174
0.000155932
0.0207507
0.0331306
0.000141807
0.000172862
0.000165096
0.000197358
0.0165149
0.0327126
0.0404898
0.000147408
0.000187939
0.0415161
0.000187856
0.000194195
0.000315227
0.0119328
0.0381441
0.0438268
0.000140136
0.00472663
0.000141769
0.000153187
0.000144014
0.000190046
0.038982
0.0158276
0.0098428
0.0160457
0.000188048
0.000140933
0.000139329
0.000146415
0.000156468
0.000177461
0.0418503
0.0438748
0.000186902
0.00123998
0.000148015
0.000188118
0.000138105
0.0393641
0.000224073
0.000146987
0.000244357
0.000197937
0.0281804
0.0266676
0.000216757
0.0163562
0.000158156
0.0225046
0.000153385
0.0195504
0.00780052
0.000152674
0.000188025
0.000145742
0.0227343
0.0262509
0.000175966
0.0244306
0.00015014
0.0325624
0.000194428
0.0063774
0.000190659
0.00013999
0.00019505
0.000187017
0.000156381
0.000187818
0.000166609
0.000167975
0.0325525
0.000200779
0.000154653
0.000165616
0.000172202
0.000169189
0.00015294
0.0244465
0.000204843
0.00227761
0.0205096
0.000144532
0.0316283
0.000144335
0.000156139
0.000155468
0.0317324
0.00017351
0.0377536
0.0136812
0.000190339
0.000384434
0.000194673
0.0140349
0.00019719
0.00503016
0.00016359
0.000176657
0.000147445
0.0336003
0.014062
0.000162908
0.000159756
0.000173423
0.000159522
0.000157406
0.000178364
0.000173016
0.000147309
0.000172249
0.0187006
0.0344521
0.000254824
0.000175665
0.000138618
0.0189181
0.000167738
0.000184013
0.000422615
0.000175082
0.0215161
0.000140465
0.000165226
0.000155613
0.000172105
0.000143026
0.031798
0.000959821
0.000219697
0.000176111
0.0308042
0.000187194
0.000159056
0.0153912
0.000184532
0.000199603
0.0205128
0.000214524
0.000156162
0.000173605
0.000194253
0.000157582
0.000263963
0.0266559
0.00910546
0.000140026
0.000185441
0.00246129
0.0314442
0.000142975
0.000177958
0.000144323
0.000165858
0.000481342
0.000164658
0.000164243
0.000140066
0.000139893
0.0443649
0.0274686
0.000145801
0.0385576
0.000202783
0.000140808
0.000179724
0.0334549
0.000208658
0.000197048
0.000144039
0.000161671
0.000281123
0.000161967
0.000142307
0.0266105
0.000164725
0.0319496
0.000188367
0.000159999
0.0374656
0.000225541
0.000217084
0.000140384
0.0150012
0.0001647
0.000160779
0.017721
0.000174974
0.000147412
0.000209549
0.000157036
0.000161002
0.000141412
0.000439598
0.000144366
0.000215632
0.000208321
0.000202598
0.000145858
0.00021627
0.00016597
0.0109344
0.000270261
0.0270968
0.000215424
0.0357946
0.000138399
0.000189739
0.000158635
0.000141878
0.0158347
0.0412249
0.000157544
0.000618547
0.000174764
0.000190098
0.0270939
0.000159564
0.00215281
0.00632884
0.0233938
0.0141329
0.00364642
0.000143188
0.000139297
0.000215089
0.000173857
0.00599275
0.0237646
0.039247
0.0318649
0.0416821
0.000139698
0.000363211
0.000143855
0.000151415
0.00014695
0.0136707
0.000267197
0.000222547
0.000141828
0.0138721
0.000161906
0.0241863
0.000146819
0.000189703
0.000165384
0.000185176
0.000177498
0.000196298
0.00015299
0.000237359
0.00172697
0.00014062
0.0326253
0.000177738
0.000767925
0.000154422
0.000165449
0.000145773
0.000142535