/*--------------------------------*- C++ -*----------------------------------*\
| =========                 |                                                 |
| \\      /  F ield         | OpenFOAM: The Open Source CFD Toolbox           |
|  \\    /   O peration     | Version:  v2012                                 |
|   \\  /    A nd           | Website:  www.openfoam.com                      |
|    \\/     M anipulation  |                                                 |
\*---------------------------------------------------------------------------*/
FoamFile
{
    version     2.0;
    format      ascii;
    class       surfaceVectorField;
    location    "450";
    object      ddtCorrDdt0(Uf);
}
// * * * * * * * * * * * * * * * * * * * * * * * * * * * * * * * * * * * * * //

dimensions      [0 1 -2 0 0 0 0];


internalField   nonuniform List<vector> 
20673
(
(-0.000407741 -0.000581927 3.09645e-18)
(-0.000413475 -0.000597849 -2.16542e-19)
(-0.00041446 -0.000582668 1.03467e-17)
(-0.000220244 -0.000150265 -3.97729e-19)
(-0.00021335 -0.00014802 1.40482e-19)
(-0.000218216 -0.000158068 -2.45705e-19)
(1.19283e-05 0.00345093 5.5208e-18)
(-0.000174827 0.00358017 -2.63919e-18)
(-0.000432889 0.00352308 -2.73803e-18)
(-0.000365001 0.000221022 1.58641e-18)
(-0.000366513 0.000216883 -1.14922e-18)
(-0.000357092 0.000215723 -2.56239e-18)
(-1.3204e-05 -8.73685e-05 2.25267e-19)
(-1.06012e-05 -8.77086e-05 -2.36911e-18)
(-1.30757e-05 -8.00032e-05 -1.14537e-18)
(1.25808e-06 -0.000973689 -5.00912e-17)
(-2.19284e-05 -0.0010115 -5.77987e-17)
(-3.88422e-05 -0.000975309 -1.1695e-16)
(-0.000524617 0.00267558 -3.31883e-19)
(-0.000436182 0.00274087 -2.62173e-18)
(-0.00049635 0.00276668 -6.09495e-18)
(1.9462e-05 0.00383289 -3.83709e-18)
(0.000403977 0.00372477 -4.23594e-19)
(0.000353134 0.00382509 -5.51245e-18)
(0.00680975 -0.00122161 5.89286e-18)
(0.00675309 -0.00142169 1.36304e-17)
(0.00647884 -0.00126415 -7.13627e-18)
(-0.000317514 -0.000671443 1.41903e-17)
(-0.000303533 -0.000687101 3.93512e-18)
(-0.000297915 -0.000662445 -3.65013e-18)
(0.000142906 0.00216688 2.64309e-18)
(0.000262616 0.00207713 1.59797e-18)
(0.00022905 0.00228221 1.03159e-17)
(-0.000486606 0.00050208 3.06877e-19)
(-0.000459484 0.000495671 7.03031e-18)
(-0.000479985 0.000524603 -4.17343e-18)
(-0.000369682 0.000225036 2.0779e-18)
(0.00195784 9.16202e-07 -6.81152e-18)
(0.00240323 0.000218791 1.87826e-18)
(0.00216428 5.52434e-05 7.54468e-18)
(-0.000221643 -0.0003722 1.5609e-18)
(-0.000214066 -0.00037397 5.78281e-18)
(-0.000215115 -0.000361939 3.91958e-18)
(-0.000244603 -0.000340999 -2.74896e-18)
(-0.000235848 -0.000336416 -5.48811e-19)
(-0.00024159 -0.000328343 1.25301e-18)
(-0.000210506 -0.000184181 4.90846e-19)
(-0.000213566 -0.000180947 3.08673e-19)
(-0.000208118 -0.000178791 -2.44621e-19)
(-0.00128773 -0.000420109 -2.49306e-19)
(-0.00126706 -0.000463848 -6.40235e-18)
(-0.0013257 -0.000448027 -1.39685e-19)
(-0.000520861 0.00047199 -2.2092e-19)
(-0.000514069 0.000528542 -3.62955e-18)
(-2.86562e-05 -2.82087e-05 -8.69799e-19)
(-2.84174e-05 -2.7157e-05 1.12994e-20)
(-2.74483e-05 -3.30546e-05 -1.55206e-18)
(-1.52039e-06 -4.06133e-05 -3.52979e-20)
(-2.30622e-06 -5.37899e-05 -1.73239e-19)
(-1.46573e-06 -3.93634e-05 -2.23439e-18)
(-0.000643248 0.00254977 4.4188e-18)
(-0.000670709 0.00254112 1.90018e-18)
(-3.4465e-05 -4.16497e-05 -4.63431e-18)
(-3.54549e-05 -3.71195e-05 -1.0726e-18)
(-3.5432e-05 -3.53073e-05 -3.22195e-19)
(-0.000290196 0.0039449 2.94888e-18)
(-0.000242785 0.00399604 -2.79693e-18)
(-4.67892e-05 -0.000137053 -1.64804e-18)
(-4.53316e-05 -0.000141079 -9.05602e-19)
(-5.15974e-05 -0.000150897 -1.2488e-18)
(-0.00111638 0.0014346 1.11183e-18)
(-0.00147791 0.00133548 -8.05537e-18)
(-0.00142416 0.00147753 7.44445e-18)
(-6.48785e-05 -0.000633851 -2.60619e-17)
(-7.05651e-05 -0.000650023 -2.25741e-17)
(-5.36707e-05 -0.000643768 -6.753e-18)
(-0.000148808 -0.000699807 -7.5291e-18)
(-0.00015682 -0.000711204 -2.34264e-18)
(-0.000147644 -0.000720002 1.51867e-19)
(-0.000458106 -0.00108666 3.57571e-19)
(-0.00048956 -0.00108137 9.97364e-19)
(-0.000485225 -0.00112197 4.32235e-18)
(-0.000350828 -0.00123879 -8.39069e-18)
(-0.000403882 -0.00126645 1.34058e-18)
(-0.000352149 -0.00131718 -1.15901e-17)
(-0.000454185 -0.000647294 -5.16806e-18)
(-0.000443933 -0.000632425 -3.1694e-18)
(-0.000455608 -0.000629721 -1.16551e-17)
(-0.000400876 -0.000438502 -2.28261e-18)
(-0.00039265 -0.000430987 -1.17526e-18)
(-0.000396088 -0.00042671 -4.08884e-18)
(-0.000105569 -0.000566078 3.84962e-18)
(-0.000104814 -0.000582796 1.49786e-17)
(-9.55014e-05 -0.000570869 5.30465e-18)
(-1.08783e-05 -0.000423225 -9.74778e-18)
(-6.72444e-06 -0.000418732 -2.14825e-17)
(-1.22224e-05 -0.000416995 -8.47052e-18)
(-3.65718e-05 -0.000142362 -2.41982e-18)
(-3.5374e-05 -0.000159858 -9.34534e-19)
(-3.8188e-05 -0.000153412 -1.45755e-18)
(0.00272426 0.00291277 -9.58106e-19)
(0.00253705 0.00316009 1.66472e-17)
(0.00201473 0.00311202 2.94753e-17)
(-3.22973e-05 -4.80532e-05 5.75544e-19)
(-3.33423e-05 -4.50769e-05 -1.89907e-18)
(0.00375594 0.00147839 -5.51528e-18)
(0.00362534 0.00126133 2.42202e-18)
(0.00344144 0.00135518 3.7014e-18)
(-0.000398948 0.000271341 7.36938e-19)
(-0.000403826 0.000278482 -1.99905e-18)
(-0.00581227 -0.000474474 -2.0523e-18)
(-0.00588316 -0.000356258 3.11631e-18)
(-0.00570019 -0.000445274 5.17176e-19)
(-5.0238e-05 -6.15358e-06 6.9814e-20)
(-5.24042e-05 -5.63909e-06 -7.32287e-20)
(-5.25033e-05 -3.50266e-06 4.086e-20)
(-5.8567e-07 -2.44446e-05 1.00002e-18)
(-4.60415e-07 -1.14425e-05 1.64695e-18)
(-2.82564e-07 -1.19741e-05 -1.80107e-18)
(-9.36459e-05 8.1038e-06 -4.51578e-19)
(-9.31729e-05 2.91042e-06 3.12783e-19)
(-9.0398e-05 6.77725e-06 -1.15776e-19)
(-0.000198107 -0.00081103 1.06132e-17)
(-0.000212078 -0.000806941 5.32746e-18)
(-0.000208216 -0.000830875 3.06422e-17)
(-0.00026837 -0.000134627 -5.47108e-19)
(-0.000275681 -0.000139747 -1.90026e-18)
(-0.000275977 -0.000137443 5.67964e-19)
(-3.91249e-05 -0.000452973 1.95555e-18)
(-2.74197e-05 -0.000454695 -8.55035e-18)
(-3.28455e-05 -0.00044574 3.67541e-18)
(-0.00131526 -0.000367586 1.04388e-17)
(-0.00125507 -0.000386882 3.98355e-19)
(-0.0017826 0.000237843 1.11196e-17)
(-0.0016977 0.000195192 -7.46755e-19)
(-0.00171377 0.000301861 2.80598e-18)
(1.00158e-05 -0.00103757 -6.63179e-18)
(-7.19754e-06 -0.00107704 2.07523e-17)
(-3.06813e-05 -0.00106204 3.79612e-17)
(-2.49215e-05 -1.30181e-06 1.69328e-18)
(-2.59648e-05 -1.29864e-06 2.81957e-20)
(-2.50979e-05 -2.45689e-06 -1.32858e-19)
(-0.000652966 -4.33477e-05 -4.15808e-18)
(-0.000663099 -5.84161e-05 2.68293e-18)
(-0.000671004 -3.65847e-05 -4.63155e-18)
(-2.67643e-05 -0.000365588 1.83874e-18)
(-2.19357e-05 -0.000373221 -2.94927e-18)
(-3.55763e-05 -0.000366465 -7.66634e-18)
(4.66563e-06 -0.00102494 -7.8247e-17)
(4.29222e-05 -0.00121122 -8.32522e-17)
(-1.61843e-05 -0.000427549 -5.97366e-18)
(-9.22421e-06 -0.000429806 1.23631e-17)
(-0.00021327 -0.00018987 -5.86449e-19)
(-0.000206771 -0.000187122 -3.34196e-19)
(-0.000613185 -0.000275647 5.15925e-19)
(-0.000601677 -0.000290458 -6.6045e-18)
(-0.000623018 -0.000294558 5.23687e-18)
(-5.03944e-06 0.00225742 -4.43638e-18)
(5.01504e-05 0.0020617 -1.41138e-17)
(-0.000112236 -0.000267641 -7.08644e-19)
(-0.000107924 -0.000266453 4.12845e-18)
(-0.000112911 -0.000263122 1.83916e-18)
(-0.000496485 -0.000293902 3.1264e-18)
(-0.000507189 -0.000303496 2.88465e-19)
(-0.00049278 -0.000307165 1.95166e-18)
(-0.000260669 -0.000131786 -5.50038e-19)
(-0.000260584 -0.000129453 6.01117e-19)
(-5.33877e-05 0.000701192 1.4332e-17)
(-7.3552e-05 0.000896888 1.53502e-18)
(0.000138421 0.000860868 2.18561e-18)
(-0.000223425 -0.000147769 -1.01131e-19)
(-0.000227925 -0.000157204 -1.45621e-19)
(0.00179309 5.3651e-05 -1.68511e-17)
(-2.84372e-05 -2.85057e-05 -8.96369e-20)
(-2.92234e-05 -2.43943e-05 -7.3968e-19)
(-1.01511e-05 -0.00102252 1.12277e-17)
(-4.43706e-05 -0.000964087 3.80458e-17)
(-0.000476294 -0.000803275 -5.83341e-18)
(-0.00078865 0.000146521 2.01824e-17)
(-0.000274105 -0.000393152 -3.64624e-18)
(1.8621e-06 -8.67517e-05 -1.59144e-18)
(1.64808e-06 -7.91012e-05 6.00666e-19)
(1.11905e-06 -0.000156699 4.71434e-18)
(2.6426e-06 -0.000142594 3.172e-18)
(-0.00306566 0.00173195 -1.82532e-18)
(-0.00296031 0.00186863 -2.29131e-18)
(-0.00328017 0.00187557 1.59735e-17)
(-0.000368095 -0.000508101 8.1622e-19)
(-0.000373158 -0.000519903 -4.26759e-18)
(-0.000362642 -0.000515943 1.88033e-18)
(-1.58891e-05 -9.67189e-05 5.98498e-18)
(-1.60423e-05 -8.91706e-05 1.43613e-18)
(0.00718791 -0.00113281 2.61237e-18)
(0.0068476 -0.00104538 7.81896e-18)
(0.00445124 -0.00110383 -1.80875e-17)
(0.0044851 -0.00127594 2.0416e-19)
(0.00426685 -0.0012915 7.08219e-18)
(-5.03042e-05 -0.000134438 1.2964e-18)
(-4.61149e-05 -0.000121259 -3.52298e-20)
(4.07202e-06 -0.00109752 -4.68519e-17)
(-8.49687e-07 -0.00108879 -5.38175e-17)
(8.06976e-06 -0.00110612 2.48761e-17)
(-0.000763751 0.000212333 2.05821e-18)
(-0.000787201 0.000272584 2.16768e-18)
(-0.000712887 0.000276316 -4.20488e-18)
(0.00652453 -0.000308805 -3.07004e-18)
(0.00649774 -0.000359227 5.09499e-18)
(0.00656653 -0.000293986 1.93202e-17)
(-0.000383421 -0.000162968 -4.39592e-19)
(-0.000393954 -0.000166631 -9.75366e-19)
(-0.000385907 -0.000173359 1.98428e-19)
(-0.00189951 -0.00011796 -1.61396e-18)
(-0.00190591 -1.06586e-06 -2.6459e-18)
(-0.00128591 -0.000112457 1.74649e-17)
(-4.67545e-06 -7.69272e-05 -2.26984e-19)
(-5.93618e-06 -8.95871e-05 6.49255e-19)
(-5.96348e-06 -8.75492e-05 -1.26347e-18)
(-1.06429e-05 -8.99555e-05 3.46361e-19)
(-1.37869e-05 -9.17127e-05 -2.21065e-19)
(-1.08189e-05 -8.55364e-05 1.86008e-19)
(6.2803e-07 -9.48934e-05 4.69618e-19)
(1.04429e-06 -0.00101933 -1.78839e-17)
(-6.45037e-05 -0.00105252 6.49517e-17)
(-6.008e-05 -0.000998962 3.46513e-17)
(0.00383396 0.00174724 8.98704e-19)
(0.00404053 0.00165162 -1.42644e-17)
(-0.000466498 0.000721898 -6.42231e-18)
(-0.000477956 0.000648558 -5.66288e-19)
(-0.000553248 0.000692923 -4.19955e-17)
(-0.000372807 -0.000159937 -1.36668e-18)
(-0.000380785 -0.00015381 -1.45664e-18)
(-1.90606e-05 -8.00351e-05 -1.80291e-19)
(-1.95847e-05 -7.70458e-05 2.65715e-19)
(-1.67503e-05 -8.03352e-05 5.40323e-19)
(-0.000954545 -0.000508599 -2.01552e-17)
(-0.0018472 -0.00148015 -2.37011e-17)
(-0.000638543 -2.89656e-05 -5.55379e-18)
(-0.000634006 -5.09856e-05 -4.59383e-18)
(-9.40682e-05 1.19938e-05 1.31599e-18)
(-9.6781e-05 8.30948e-06 -3.45117e-19)
(0.0063064 -0.000637235 3.76515e-18)
(0.00628871 -0.000555445 -6.47555e-19)
(0.00642212 -0.000438302 6.23363e-18)
(-0.000218453 -0.000904489 -1.83e-18)
(-0.000245442 -0.000866724 -7.02398e-18)
(-0.000208504 -0.000853064 -7.72076e-19)
(-0.000178704 -7.20329e-05 2.32705e-20)
(-0.000177616 -6.97906e-05 -4.30546e-19)
(-0.000173318 -6.80187e-05 -3.09187e-19)
(-0.00014701 -0.000310807 -9.06942e-18)
(-0.000145899 -0.000313272 -3.97237e-19)
(-0.000151505 -0.000308714 1.55794e-18)
(-0.00221321 2.42231e-05 1.40532e-17)
(0.000160742 0.000187152 1.52023e-18)
(-2.31725e-05 -0.00100127 1.74841e-18)
(-8.75662e-05 -0.00100637 -4.1213e-17)
(-6.37554e-05 -0.000936536 -4.6496e-17)
(-0.00134072 0.00181336 3.84683e-18)
(-0.00145803 0.00184171 -4.77938e-19)
(-0.00137532 0.00194472 -8.27715e-18)
(-0.00162414 -7.90341e-06 1.85856e-18)
(-0.00167666 -4.29697e-05 -1.03954e-17)
(-0.00161723 -6.81689e-05 -1.99829e-17)
(1.09267e-05 -0.000523795 5.13412e-18)
(7.63908e-05 -0.000630887 -8.80044e-18)
(-8.77463e-05 -0.000654721 -8.17595e-18)
(-0.000108687 -0.000885384 -4.86556e-17)
(-0.000108513 -0.000858821 4.65678e-18)
(-0.000130869 -0.000873838 2.03449e-19)
(-6.93153e-05 -2.08478e-05 -5.90656e-20)
(-7.12462e-05 -1.79011e-05 5.188e-20)
(-7.21961e-05 -2.19791e-05 7.4403e-21)
(-2.12375e-05 -0.000556918 -8.73015e-18)
(-2.15475e-05 -0.000509859 3.42627e-17)
(1.8839e-05 -0.000537983 2.90113e-17)
(-0.000182243 -0.000827464 -4.54344e-19)
(-0.000179761 -0.000798461 3.27777e-17)
(-0.00044074 -0.000110009 -2.32119e-18)
(-0.000451939 -0.000106624 1.89119e-18)
(-0.000443015 -9.3206e-05 -7.58578e-19)
(-0.000109196 -2.64253e-05 -2.59711e-19)
(-0.000107385 -2.33131e-05 -2.17737e-19)
(-0.000112204 -2.5226e-05 -2.73581e-19)
(0.00755332 -0.00214245 9.30972e-18)
(0.00757892 -0.00238486 1.53017e-17)
(0.00819126 -0.0021759 3.108e-17)
(-0.00051963 -0.000960275 5.40832e-18)
(-0.000507821 -0.00100443 -1.01898e-17)
(-0.000559579 -0.000981384 3.65667e-19)
(-0.00182826 0.000276566 -1.06488e-18)
(-0.00183658 0.000191151 5.56609e-19)
(-0.000217886 -0.000176338 -1.50076e-19)
(-0.00022213 -0.000184037 7.25097e-19)
(-0.000403288 -0.000636989 -1.63965e-18)
(-0.000397298 -0.000628741 3.19873e-18)
(-0.00040138 -0.000639569 -9.4621e-18)
(-0.00355984 -0.000744187 2.57018e-17)
(-0.00376607 -0.000673551 -1.62625e-17)
(-0.0036124 -0.000763193 -1.42248e-18)
(-0.00580058 -0.00058568 8.19359e-19)
(-0.00598357 -0.000439862 -4.68201e-19)
(-0.000291718 0.000376772 2.28572e-18)
(-0.000321439 0.000316929 3.7604e-18)
(-0.000240649 0.000333405 7.81057e-19)
(0.00747562 -0.00201113 -1.54446e-17)
(0.00695907 -0.00217437 -4.94554e-18)
(-2.25816e-05 -0.000378625 -5.91745e-19)
(-2.80065e-05 -0.00037627 -6.48287e-18)
(-2.24828e-05 -0.000379718 6.79975e-18)
(6.05217e-05 -0.00112236 9.56723e-17)
(8.91148e-05 -0.00108732 8.49187e-19)
(2.77978e-05 -0.00106393 8.05429e-18)
(-4.96225e-05 -7.48544e-05 -2.11189e-18)
(-5.27648e-05 -8.64607e-05 -6.20561e-18)
(-5.10067e-05 -8.06808e-05 -5.23946e-18)
(-6.24939e-05 -0.00108578 5.72746e-17)
(-5.66946e-05 -0.00109722 -4.43522e-17)
(-4.33836e-05 -0.00108389 6.46395e-18)
(-0.00460485 0.000323414 -1.84767e-19)
(-0.00476769 0.00040473 1.33431e-18)
(-0.00430418 0.000537728 8.27545e-18)
(-3.39131e-05 -0.000423004 9.99014e-18)
(-3.98205e-05 -0.000429477 -5.55896e-18)
(-4.29234e-05 -0.000419923 -4.31022e-18)
(-1.86192e-06 -3.72952e-05 1.25471e-19)
(-1.36673e-06 -3.80759e-05 3.07532e-18)
(-0.00318012 0.00158919 1.08286e-17)
(-0.00292627 0.00159601 4.44769e-18)
(-0.00251741 0.000520121 -8.57783e-18)
(-0.00229681 0.000736188 2.28621e-18)
(-0.00209681 0.000718621 -4.48905e-18)
(-0.000132841 -0.000691121 1.24035e-17)
(-0.00014998 -0.000680017 -2.55098e-18)
(-3.05827e-05 -3.31418e-06 -1.26163e-20)
(-3.12652e-05 -4.86303e-06 -3.54208e-19)
(-3.22119e-05 -2.79235e-06 -2.60158e-19)
(-0.00014005 -0.000311526 9.50178e-19)
(-0.000147716 -0.000304491 -3.60748e-18)
(-0.000248085 -0.000128926 -2.65956e-19)
(-0.000254344 -0.000135014 3.01849e-22)
(-0.000247835 -0.000129948 4.11291e-19)
(-2.89918e-05 -2.86669e-06 -1.79096e-19)
(-3.25843e-05 -1.77748e-06 1.16879e-18)
(-7.59764e-05 -7.12031e-06 3.15049e-19)
(-7.64141e-05 -5.23199e-06 -4.80765e-19)
(-7.46769e-05 -5.89083e-06 -4.91096e-19)
(-1.5195e-05 -0.00101524 4.20785e-17)
(-0.0019847 0.00144413 -1.12703e-19)
(-0.00193667 0.00141712 -1.95336e-18)
(-0.00235669 0.0012679 -4.5468e-18)
(-1.98571e-05 -0.000379393 -1.29623e-17)
(-2.36684e-05 -0.00037942 4.73016e-18)
(-0.000283205 -0.000143971 1.21399e-18)
(-0.000275386 -0.000141595 -1.6181e-18)
(-1.23668e-06 -4.12401e-05 2.28897e-18)
(-8.99338e-07 -2.69765e-05 -1.15086e-18)
(-0.00035334 -0.00353661 9.44686e-18)
(-0.00189795 -0.00445549 1.25857e-17)
(0.000990139 -0.00467931 -2.06566e-17)
(-0.000661208 0.00401901 3.9448e-18)
(-0.00028674 0.00389171 1.12224e-17)
(-0.000403789 -0.000582429 -1.14114e-17)
(-0.000403703 -0.000572014 -2.99985e-18)
(-0.000129284 -0.000895975 -2.34259e-17)
(-8.14962e-05 -0.00090398 -5.71155e-17)
(-1.67464e-06 -7.83465e-05 2.24928e-18)
(-1.36657e-09 -7.57457e-05 3.73278e-18)
(-2.37753e-05 -0.00042591 -9.49317e-22)
(-2.68276e-05 -0.000417716 2.77895e-17)
(0.00174789 0.00322345 -1.10292e-18)
(0.00198196 0.00297415 -1.05507e-17)
(0.00156599 0.00286882 -7.86247e-18)
(-0.000153098 -5.77594e-05 -1.25848e-18)
(-0.000154435 -5.78039e-05 -2.36038e-19)
(-0.000148537 -5.4252e-05 -3.51823e-19)
(-5.5815e-05 -0.000362884 -1.04777e-18)
(-6.30638e-05 -0.000357338 -1.24136e-17)
(-5.72866e-05 -0.000369915 -8.09364e-18)
(-0.000178274 -0.000849835 -1.01385e-17)
(-0.000177578 -0.000867699 -4.66348e-18)
(-0.000193015 -0.000859878 -7.55204e-18)
(-1.10307e-06 -0.00015712 -3.89579e-18)
(1.23562e-06 -0.000170802 1.99881e-18)
(0.00750703 -0.000199494 9.5174e-18)
(0.00747182 -0.000572319 1.39219e-17)
(0.00782576 -0.000510052 -4.01956e-18)
(-0.000590173 -0.00108797 4.23508e-19)
(-0.000562859 -0.00103628 9.24076e-19)
(-0.000529545 -0.00106687 2.2519e-19)
(-3.4498e-05 -0.000365031 9.59539e-18)
(-2.82546e-05 -0.000361222 6.35785e-18)
(-0.000138366 -5.0166e-05 1.12528e-18)
(-0.00014048 -5.00074e-05 1.22999e-18)
(-0.00013538 -4.7507e-05 -4.93274e-19)
(-0.000382084 -0.000439529 -4.53652e-19)
(-0.000372126 -0.000431551 -2.43033e-18)
(-0.000376312 -0.000447599 -3.78337e-18)
(-0.00108598 0.000607203 4.32832e-18)
(-0.00111717 0.000652706 5.13241e-18)
(-0.00112841 0.000583786 1.26724e-17)
(-1.80566e-05 -0.00112824 3.79405e-17)
(8.14194e-06 -0.00106245 8.68009e-17)
(-0.000545964 0.00112528 2.26548e-18)
(-0.000571571 0.00120144 -4.42682e-18)
(-0.000482784 0.00116093 -9.74735e-18)
(-0.000341265 -0.00051716 -4.6823e-19)
(-0.000340834 -0.000515673 2.12329e-19)
(-0.000342529 -0.000519916 -1.17887e-18)
(-0.000509758 -0.000409238 -6.38696e-18)
(-0.000494904 -0.000410851 6.83412e-18)
(-0.000496694 -0.000395322 -7.96896e-20)
(0.00012835 -4.6901e-05 5.00658e-17)
(0.00021086 -7.90347e-05 3.62776e-17)
(0.000265716 -7.35066e-05 3.12633e-17)
(-0.000362458 -0.000501871 1.2132e-18)
(-0.000364718 -0.000500833 2.75662e-18)
(0.000918422 0.00540736 4.15754e-18)
(0.000336957 0.00537966 1.64267e-17)
(0.000173351 0.00534521 4.28233e-18)
(0.0065823 -0.000207798 5.82748e-18)
(0.00642427 -0.000307183 -4.83423e-18)
(-0.00388096 -0.0043517 -1.35463e-18)
(0.00400525 -0.00396808 3.78749e-18)
(-0.000100291 -0.000369584 -2.24799e-18)
(-0.000103052 -0.000372235 -1.3109e-17)
(-9.59402e-05 -0.000374591 -1.279e-18)
(1.43572e-05 -0.000636413 -1.13101e-17)
(1.52013e-05 -0.000639118 4.64467e-17)
(1.26276e-05 -0.000649449 3.07187e-19)
(-6.12907e-06 -7.87343e-05 1.58311e-18)
(-6.21023e-06 -7.45822e-05 5.74892e-19)
(-3.74931e-06 -6.54168e-05 -3.63211e-20)
(-0.0012016 0.00181227 1.04226e-17)
(-0.00129069 0.00170162 1.2787e-17)
(-0.000267339 0.000444582 -1.07533e-17)
(-0.000326489 0.000419404 -4.81558e-18)
(-4.09252e-05 -0.00043695 -2.27169e-18)
(0.000101062 -0.000411831 -2.04171e-18)
(-0.00043879 -0.000123248 8.56819e-19)
(-0.000429908 -0.000111694 1.30265e-18)
(-0.00139076 0.000383331 8.69175e-19)
(-0.00135052 0.000442656 9.30969e-18)
(-0.00142939 0.000452919 4.57439e-18)
(-0.000218509 -0.000102012 1.33626e-18)
(-0.000225394 -0.000106112 -4.45366e-19)
(-0.000219169 -0.000102533 -2.50748e-18)
(-6.79658e-06 -0.000555024 -2.26785e-17)
(-1.46393e-05 -0.000571871 -1.12379e-17)
(-0.000349456 -0.000525461 -4.35217e-19)
(-0.000346003 -0.000520276 -4.56273e-19)
(-0.000348672 -0.000519549 -1.05415e-18)
(-0.00454073 -2.84424e-05 -8.48273e-18)
(-0.00464709 -6.21716e-05 -3.65422e-17)
(-0.00448666 -5.55909e-05 -1.2469e-18)
(-0.000356937 0.000135464 -6.64378e-19)
(-0.000285893 0.000102943 5.22168e-18)
(-0.000301932 0.000181137 3.88381e-18)
(-0.000225313 -0.000214184 1.27005e-18)
(-0.000228117 -0.00022141 -2.28122e-19)
(-0.000220552 -0.000218374 9.10612e-20)
(0.00512632 0.00204413 3.58057e-18)
(0.00548006 0.00174223 4.78567e-18)
(0.00507415 0.00214819 1.0051e-17)
(-0.000351594 -0.000532827 2.16713e-19)
(-0.000357288 -0.00053565 1.65258e-19)
(-0.000356822 -0.000534402 4.70142e-19)
(-0.00213827 0.0014692 9.24048e-19)
(-0.00165532 0.00167358 3.31335e-18)
(-6.72601e-05 -0.00107033 7.05385e-18)
(-5.54926e-05 -0.00107038 3.25921e-17)
(0.00721005 0.000133338 -1.06008e-17)
(0.00722849 0.000165624 2.40383e-18)
(-0.000145125 -0.000134565 1.97577e-20)
(-0.000150036 -0.000130115 5.26329e-19)
(-0.000147888 -0.000140155 8.87057e-19)
(-0.00019163 -0.000938134 -1.8158e-17)
(-0.000232703 -0.000947454 -6.65318e-18)
(-0.000447632 -0.000668563 -4.88113e-18)
(-0.000467729 -0.000664871 9.37212e-19)
(-0.000157703 -6.09898e-05 -7.30574e-19)
(-0.000151563 -5.69901e-05 -2.90831e-19)
(-1.89257e-05 -8.16039e-05 -1.78298e-18)
(-2.11673e-05 -7.81304e-05 3.88292e-19)
(-0.000214326 -0.000451757 -8.38438e-18)
(-0.000206799 -0.000452927 -1.34404e-18)
(-0.000208279 -0.000443314 -3.27525e-18)
(-0.000798788 0.00134415 -6.40001e-18)
(-0.000825879 0.00152245 2.35968e-18)
(0.000622579 -0.000979001 5.02848e-18)
(0.000739907 -0.00100694 -8.63845e-18)
(0.000721333 -0.000857461 2.60733e-17)
(8.62084e-05 -2.82866e-05 -8.72898e-18)
(-3.27913e-05 -6.86047e-05 -4.65255e-18)
(-0.000836555 -0.000432945 1.13347e-17)
(-0.000816681 -0.000452073 2.88678e-18)
(-0.000847014 -0.000458141 2.00931e-17)
(0.000371061 0.000338932 -8.45992e-18)
(0.000332523 0.000232515 -8.47432e-18)
(0.000465877 0.000295197 -1.48106e-17)
(-0.000485893 0.00427193 9.00273e-18)
(-0.000170313 0.00431941 5.87771e-19)
(-0.000525007 0.00472563 -6.47111e-18)
(-0.000448091 0.000762945 -9.5661e-18)
(-0.000427716 0.000688587 6.04632e-18)
(0.0003624 -0.000463448 2.0073e-18)
(0.000402179 -0.000517336 -2.29084e-18)
(0.000449642 -0.000446206 -1.90255e-17)
(-3.26793e-05 -5.34489e-05 -2.43945e-20)
(-3.21116e-05 -5.89049e-05 -1.04362e-19)
(-3.15375e-05 -6.20908e-05 2.38736e-18)
(-4.20325e-05 -0.000874755 -2.75681e-18)
(-7.51859e-05 -0.000875037 -8.61445e-18)
(-5.58099e-05 -0.000899515 -1.19645e-17)
(-6.45424e-05 -0.000618313 4.23811e-18)
(-7.27939e-05 -0.000625749 3.79768e-18)
(-5.36912e-05 -7.6683e-07 -4.04544e-20)
(-5.33918e-05 -6.18433e-07 -6.35819e-20)
(-0.000178805 -7.3942e-05 1.70332e-19)
(-0.000184073 -7.70237e-05 4.08097e-19)
(-0.000538884 -0.000885003 -1.86564e-19)
(-0.000510167 -0.000858185 -6.47168e-18)
(-0.0005441 -0.00084485 4.19578e-19)
(-0.00113145 0.000345657 -1.41361e-17)
(-0.00252772 0.000483015 1.87729e-17)
(-1.20045e-05 -0.000526245 5.09762e-17)
(-0.000558855 0.000180788 -1.19716e-18)
(-0.000569327 0.00019138 8.94021e-19)
(-0.000574553 0.00017441 3.75311e-18)
(-2.5121e-05 -1.50497e-06 1.48434e-18)
(-2.46461e-05 -1.24662e-06 6.79241e-19)
(-0.00125028 0.000476052 -2.35237e-18)
(-0.00121365 0.000433649 -2.0038e-18)
(-0.00127839 0.000412054 5.46853e-18)
(-0.00105405 0.000637441 -3.59094e-18)
(-0.00104712 0.000580483 -8.98476e-18)
(0.00463371 -0.000907158 -1.06855e-17)
(0.00437451 -0.000909626 -2.15062e-17)
(-0.00448419 -0.00332378 8.40562e-18)
(-0.00524664 -0.00297945 8.56891e-19)
(-0.00642533 -0.00290975 5.76224e-18)
(-3.50213e-05 -0.000132499 -9.7665e-19)
(-3.9646e-05 -0.000137294 -3.20446e-18)
(-0.000112245 -0.000273388 -4.52223e-18)
(-0.000117116 -0.000267208 -5.68836e-18)
(-0.00156466 4.72435e-05 3.07418e-17)
(-0.00163498 8.74625e-05 9.72238e-18)
(-0.000721058 0.00252587 8.40559e-18)
(-0.000822621 0.00250891 1.38935e-18)
(-0.00075406 0.00265338 3.80543e-18)
(-5.76991e-05 -0.000359347 3.29171e-18)
(-6.5525e-05 -0.000362108 9.42312e-19)
(-0.000314578 0.0028451 1.34507e-18)
(-0.000183316 0.00290138 4.03329e-18)
(-0.000335497 0.00298212 -2.58101e-18)
(0.00444203 -0.000604821 -8.6207e-18)
(0.0043812 -0.000759371 -1.13333e-17)
(0.00465187 -0.00059066 3.60025e-18)
(0.000295857 0.000411943 1.19785e-17)
(0.000406602 0.000463363 2.46643e-18)
(-0.000108444 -2.84187e-05 1.12175e-20)
(-0.000111772 -2.77139e-05 3.0869e-19)
(-0.000212146 -0.00108716 -1.06554e-17)
(-0.000239254 -0.00109193 9.0203e-17)
(-0.000212585 -0.00111709 5.82512e-17)
(-0.00138687 0.000127479 -1.19959e-18)
(-0.00144322 0.000109518 -1.03672e-17)
(-0.00139635 6.69183e-05 6.64357e-18)
(-0.00328148 -0.000502457 2.10306e-18)
(-0.00316715 -0.000700038 1.46261e-17)
(-0.00303901 -0.00057958 5.44478e-18)
(-7.42313e-05 -0.000154537 2.50788e-18)
(-7.73275e-05 -0.000160613 -7.9502e-19)
(-7.73952e-05 -0.000166027 2.41919e-18)
(6.10704e-05 0.000428525 -4.45086e-18)
(-0.000213182 0.000534554 3.01262e-17)
(-0.000140382 -0.000140161 -7.17105e-19)
(-0.000142116 -0.000131856 -8.94153e-19)
(-0.000688648 -0.00136885 7.64525e-18)
(-0.000744342 -0.0013246 7.63829e-18)
(-0.00067925 -0.001304 1.23864e-17)
(-4.90965e-05 -8.03432e-06 1.38992e-19)
(-4.81646e-05 -5.52241e-06 1.52584e-19)
(0.00542536 0.00127928 -7.08235e-19)
(0.00530271 0.00110702 1.0721e-17)
(0.00520852 0.00124283 1.64508e-18)
(0.00759297 -0.00259052 -4.61538e-18)
(0.00758029 -0.00274668 -1.06545e-17)
(0.00828475 -0.00260906 4.30129e-19)
(-0.000247501 -0.000348649 -1.70152e-18)
(-0.000249943 -0.000344742 1.37761e-18)
(-0.00104115 -0.0004562 -1.28497e-17)
(-0.00111153 -0.000314465 -2.90504e-17)
(-0.000779944 -0.00047188 1.25857e-17)
(-0.000521139 -0.000422262 -1.47666e-18)
(-0.000523789 -0.000406984 -1.28531e-18)
(-0.000105202 -3.05398e-05 -9.05867e-20)
(-0.000103986 -2.69881e-05 -6.38033e-20)
(0.00263677 0.00260634 -1.27064e-17)
(0.00297225 0.0027252 -1.58042e-17)
(-0.0004383 8.94411e-05 -9.03886e-18)
(-0.000427277 0.000191813 -3.74213e-18)
(-0.000829253 -0.000408272 -2.32028e-19)
(-0.000853926 -0.00041254 -4.10185e-18)
(-0.000744016 0.00380756 -1.07306e-17)
(-0.000453557 0.0037044 -2.78532e-18)
(-0.000938571 0.00374444 2.85455e-18)
(0.00422222 -0.000566253 -1.26817e-17)
(0.00425693 -0.000410687 1.35612e-17)
(-6.45128e-05 -4.82226e-06 1.52135e-19)
(-6.51313e-05 -4.04637e-06 -1.88569e-19)
(-6.41001e-05 -3.52998e-06 1.48002e-19)
(-0.000410734 -0.000444915 3.95372e-18)
(-0.000404796 -0.00045152 -1.01239e-18)
(0.00625196 -0.000774811 -2.04875e-18)
(0.00638241 -0.000737226 1.32762e-17)
(-4.53263e-05 0.000350582 -5.10782e-18)
(-6.72237e-05 0.000305273 2.15e-17)
(2.23506e-06 0.000309888 -1.29387e-17)
(-6.14538e-06 -7.96914e-05 -1.47891e-18)
(-7.14829e-06 -8.75803e-05 -8.12576e-19)
(-4.88835e-05 -6.04788e-05 1.4821e-19)
(-5.18735e-05 -6.58176e-05 6.40087e-21)
(-5.08608e-05 -6.53279e-05 -1.94115e-19)
(-0.00450291 -0.00071522 -8.82244e-19)
(-0.00436102 -0.000837978 -1.998e-18)
(-0.00179009 0.00199042 -1.2599e-17)
(-0.0016578 0.00200927 6.34669e-19)
(-0.00171253 0.00214629 -8.73653e-18)
(-1.28522e-06 -3.06206e-06 -5.84119e-19)
(-5.73537e-07 -2.28483e-06 -1.99891e-18)
(-1.23887e-06 -3.83398e-06 8.24587e-19)
(0.00280638 0.00146069 -1.01824e-18)
(0.00276503 0.00121873 -8.50608e-18)
(0.00229698 0.00139895 -5.85261e-18)
(-0.0018895 -0.00106379 -1.30358e-18)
(-0.0019655 -0.000985305 7.17589e-18)
(-0.00185963 -0.000948816 -2.13366e-18)
(1.91975e-05 -0.000626825 -2.52049e-17)
(2.30329e-05 -0.000638899 -5.89576e-17)
(-0.00043836 -0.000561953 -1.99286e-18)
(-0.000435892 -0.000576696 -4.93762e-18)
(-0.000450443 -0.000572298 -5.71339e-18)
(-8.2175e-06 -8.29965e-05 -2.14417e-18)
(-6.51933e-06 -7.20543e-05 -1.07479e-18)
(-0.00034472 -0.000554047 -1.29182e-18)
(-0.000338737 -0.000543519 2.86515e-19)
(-0.000334311 -0.000553604 3.69757e-18)
(0.00541895 -0.000539199 -2.47224e-18)
(0.00555686 -0.000486504 4.07081e-18)
(0.00549127 -0.000379713 1.63857e-17)
(-0.000258528 7.75796e-05 -1.35037e-18)
(-0.000258715 8.69883e-05 -3.15326e-19)
(-0.000266644 8.1207e-05 -2.30878e-18)
(-1.61351e-05 -0.000875438 4.65818e-18)
(-5.41287e-05 -0.000835855 1.41682e-17)
(-6.94247e-05 -0.000898682 -1.37009e-17)
(-0.00014406 -0.000884187 5.4644e-17)
(-0.000151411 -0.000899116 -2.55723e-18)
(-0.000131418 -0.000907739 5.13451e-17)
(-0.00024166 -0.000123233 -1.15216e-19)
(-0.000247849 -0.000127531 5.14393e-19)
(-0.000103097 -0.000264079 -1.52651e-19)
(-0.000103224 -0.000269714 1.25438e-18)
(-0.000635836 0.000852144 2.00724e-18)
(-0.000634619 0.000903629 1.62119e-19)
(-0.000587384 0.000868714 3.01138e-18)
(-0.0047812 -0.000975316 8.65047e-19)
(-0.00484222 -0.000853796 3.38619e-18)
(-0.00500699 -0.000878529 -3.99382e-18)
(-0.000523953 0.00106958 5.48277e-18)
(-0.000604407 0.00109172 2.14946e-18)
(-0.000222303 -0.000454216 3.3439e-18)
(-0.000219287 -0.000466465 -5.89062e-18)
(-0.000226052 -0.000370241 -4.72627e-18)
(-0.000225603 -0.000379583 -5.75306e-18)
(-1.22718e-06 -6.63045e-06 1.01546e-18)
(-1.14835e-06 -5.75483e-06 5.0396e-19)
(-4.29266e-07 -3.78345e-06 -4.40081e-20)
(-0.00269777 0.000317246 -3.16695e-19)
(-0.00290917 0.000343017 -1.74025e-18)
(0.00982722 -0.00363899 -8.53493e-19)
(0.0101643 -0.00374993 -4.81995e-18)
(0.0100168 -0.00372596 1.23072e-17)
(0.00358141 -0.000835842 1.3709e-18)
(0.00381805 -0.000652087 8.10531e-18)
(0.00358695 -0.00113801 3.91224e-18)
(-0.000102956 -3.33617e-05 1.33554e-19)
(-0.000106847 -3.31302e-05 1.87295e-19)
(0.00144842 -0.00123199 -2.08098e-18)
(0.00148069 -0.00150613 -1.37116e-17)
(0.00119189 -0.00143041 -1.47945e-17)
(0.00362197 0.00028629 4.17034e-19)
(0.00338165 0.000310198 -9.53643e-18)
(0.00326566 0.000101381 -5.22514e-18)
(0.00135733 0.00533679 -6.51573e-18)
(0.00115622 0.00547196 1.35781e-18)
(-0.00199971 -0.000294464 -4.06241e-18)
(-0.00248703 -0.000179708 -2.74395e-18)
(-0.000733222 0.000154263 3.00786e-18)
(-0.000819343 0.000150827 -2.88886e-18)
(-9.99745e-06 -9.27639e-05 -3.47728e-19)
(-3.78641e-05 -4.88892e-06 -3.97285e-20)
(-3.5216e-05 -4.96487e-06 -5.55514e-19)
(-3.77258e-05 -8.28189e-06 6.87953e-20)
(-0.00133167 -0.000326002 1.42501e-18)
(-0.00129797 -0.000289752 -5.27274e-18)
(-0.00135173 -0.000273337 -9.25539e-19)
(0.00624524 0.000628284 -3.38729e-18)
(0.00607634 0.00053912 2.45912e-18)
(0.0062212 0.000506391 4.55956e-18)
(-0.00271397 0.000252681 -6.77233e-18)
(-0.00273712 0.000115071 7.06908e-18)
(-0.00288201 0.000234717 -2.17372e-17)
(-0.000484557 -0.000284715 2.31833e-19)
(-0.000498863 -0.000281055 -1.04358e-19)
(-0.00336272 -0.00353136 -2.65737e-18)
(3.71999e-05 -0.00324465 -1.00761e-17)
(-0.000541739 0.000553501 -1.48923e-18)
(-0.000527933 0.000551248 -5.37806e-18)
(-7.25367e-05 -3.07837e-06 1.80368e-21)
(-7.34497e-05 -4.27821e-06 4.06355e-19)
(-7.36693e-05 -2.66024e-06 -1.11794e-18)
(0.00660499 -0.00098639 2.70273e-18)
(0.00683962 -0.00116572 3.01402e-17)
(0.00635805 -0.000796605 1.47009e-17)
(-2.92634e-05 -1.72752e-05 1.21602e-18)
(-2.86349e-05 -1.65174e-05 5.65458e-21)
(-2.81303e-05 -2.05691e-05 3.58533e-18)
(0.00486829 0.00233092 -1.61356e-19)
(0.00510888 0.00190371 -1.32164e-17)
(-0.000548537 0.000166397 -7.79537e-19)
(-0.00054221 0.000182938 -9.35335e-19)
(-1.40411e-06 -2.3756e-06 -1.19983e-18)
(-2.18061e-06 -3.7725e-06 6.67191e-19)
(-0.000271087 -0.000385951 4.1808e-18)
(-0.00027523 -0.00039836 1.22684e-18)
(-0.00026597 -0.000386269 1.33372e-18)
(-0.000344947 -0.000522124 -8.09629e-21)
(-0.000339884 -0.000514725 -2.89773e-19)
(1.86519e-05 -0.000655881 -9.25616e-18)
(9.35854e-06 -0.000639642 4.10134e-18)