/*--------------------------------*- C++ -*----------------------------------*\
| =========                 |                                                 |
| \\      /  F ield         | OpenFOAM: The Open Source CFD Toolbox           |
|  \\    /   O peration     | Version:  v2012                                 |
|   \\  /    A nd           | Website:  www.openfoam.com                      |
|    \\/     M anipulation  |                                                 |
\*---------------------------------------------------------------------------*/
FoamFile
{
    version     2.0;
    format      ascii;
    class       volScalarField;
    location    "500";
    object      k_0;
}
// * * * * * * * * * * * * * * * * * * * * * * * * * * * * * * * * * * * * * //

dimensions      [0 2 -2 0 0 0 0];


internalField   nonuniform List<scalar> 
13917
(
0.000165311
0.000149258
0.0579001
0.000154028
0.000148659
0.000192084
0.0570965
0.0593478
0.0761536
0.000172922
0.000203448
0.000183723
0.0001542
0.0170589
0.000155179
0.000154152
0.00014964
0.000175411
0.000183319
0.00014866
0.000149761
0.0567889
0.000148539
0.0560024
0.000148175
0.0531688
0.000161444
0.000164182
0.000206445
0.000183881
0.000166974
0.00015776
0.000159983
0.000154444
0.000148341
2.48592e-05
0.000148598
0.0457271
0.0001574
0.0188359
0.000147504
0.000149897
0.000145165
0.000168026
0.000149046
0.000155782
0.000175151
0.000182643
0.000387646
0.000147984
0.000158347
0.000149785
0.000454941
0.000154746
0.000149693
0.000157725
0.00020314
0.000148539
0.000155108
0.000148851
0.0811658
0.000149274
0.0082861
0.000148581
0.000190874
0.0230934
0.000148638
0.000148501
0.000205193
0.000162877
0.000148704
0.0743334
0.044371
0.000148185
0.000396655
0.000187341
0.0317403
0.000151196
0.0494616
0.000149544
0.000149314
0.00014868
0.000188532
0.0498924
0.0449468
0.000150969
0.00014914
0.00858097
0.000157991
0.000145133
0.0487089
0.000179088
0.000147836
0.000151189
0.013194
0.000188361
0.000195895
0.000180494
0.000199138
0.000170044
0.000146671
0.000158517
0.000167899
0.000152311
0.00014675
0.0762294
0.00019272
0.000183556
0.00014967
0.000167848
0.048601
0.020569
0.00018897
0.0767367
0.000151119
0.000414375
0.000148022
0.000259899
0.0260975
0.00015472
0.000149812
0.000204032
0.0294063
0.000163544
0.000147793
0.000150876
0.000148834
0.000147858
0.000145231
0.000190566
0.0424712
0.000150952
0.000149134
0.000149814
0.00397669
0.0547768
0.000165451
0.00017065
0.000148592
0.000154577
0.000133619
0.000146923
0.000150332
0.000170053
0.000148517
0.0623619
0.000210243
0.000149634
0.000146608
0.000158224
0.000178628
0.000421373
0.000189052
0.000163519
0.000157394
0.0226942
0.000162059
0.00205155
0.0260587
0.00480116
0.000152988
0.000161696
0.000149545
0.000194937
0.000188515
0.000198703
0.00015223
0.000179589
0.000148206
0.00015897
0.000164163
0.0260068
0.000191081
0.000150472
0.0450751
0.000164648
0.0449246
0.000301789
0.0564288
0.00014791
0.000180263
0.000167864
0.000146891
0.000149077
0.00015789
0.0528972
0.000218256
0.028603
0.000166256
0.000197213
0.00010127
0.0496339
0.000209626
0.000148613
0.000171997
0.000161149
0.000153989
0.000147908
0.000181132
0.00133536
0.000158019
0.000148088
0.000177972
0.000178403
0.0389285
0.00103111
0.000148337
0.000148632
0.000180111
0.054684
0.000150102
0.0577926
0.0286919
0.000197279
0.000146774
0.000198371
0.000177285
0.0299434
0.000147805
0.0762221
0.000147845
0.000183106
0.000147291
0.0489619
0.077589
0.000154497
0.000400425
0.000157765
0.00014679
2.05483e-05
0.000190537
0.000166043
0.0534971
0.0235955
0.000146349
0.000158263
0.053487
0.0341797
0.000149488
0.000147552
0.0207539
0.000199144
0.000149758
0.000178982
0.000187598
0.000161313
0.000164551
0.000149488
0.000163963
0.0262817
0.000148877
0.000184343
0.000173301
0.000148727
0.000148481
0.000184124
0.0270601
0.000187667
0.000158072
0.000155406
0.00014979
0.0239741
0.0746519
7.90872e-05
0.00014683
0.0419683
0.0250734
0.00826581
0.0488172
0.000188659
0.000149391
0.000147436
0.000175491
0.0427517
0.000194348
0.000154706
0.00149021
0.000173539
0.000145164
0.0509726
0.000148492
0.0484405
0.00015738
0.000149722
0.000156472
0.000163464
0.000161669
0.000167013
0.000159843
0.000149201
0.000197952
0.0525573
0.0805299
0.000147805
0.0128143
0.000149082
0.0001492
0.000148065
0.000226574
0.000148568
0.000184915
0.000163899
0.000148103
0.000178224
0.000151679
0.000345227
0.000164315
0.000177783
0.000147562
0.000148409
0.0454008
0.0278757
0.000147989
0.000147372
0.0470217
0.000147836
0.0478264
0.000147458
0.0519282
0.000150882
0.000216252
0.000165117
0.000434403
0.000152587
0.000944717
0.000184429
0.000156501
0.000198833
0.000199112
0.000149501
0.042887
0.000171585
0.028743
0.000153649
0.0199049
0.000158999
0.0584952
0.000180769
0.000172805
0.000172305
0.059312
0.0001494
0.000164685
0.0536393
0.000149195
0.000152131
0.0263146
0.000184146
0.000150319
0.00020621
0.000202751
0.000146926
0.0225507
9.75282e-05
0.000148447
0.00014726
0.000149136
0.000146575
0.000202456
0.0517935
0.000209865
0.0507899
0.000148116
0.00018673
0.00769805
0.000171855
0.0574348
0.0476014
0.0779559
0.00014635
0.000125714
0.000147127
0.0668476
0.000148828
0.000451384
0.000187516
0.000155922
0.000149268
0.000179025
0.000182092
0.000182076
0.00064322
0.0535172
0.0233428
0.000164382
0.000171979
0.000147599
0.0375142
0.0552906
0.000148657
6.61556e-05
0.000148278
0.000234939
0.000150859
0.000149472
0.000151698
0.0441067
0.000151624
0.0302183
0.0105089
0.000200406
0.000193644
0.000149452
0.000194649
0.000190845
0.00014817
0.000185766
0.000149111
0.000148249
0.000183733
0.00014972
0.000148226
0.000147097
0.000243858
0.000149624
0.0229754
0.0449412
0.00491725
0.000209043
0.0364817
0.0303781
0.000171462
0.000148132
0.000201481
0.000157028
0.000159431
0.000148566
0.0589744
0.0557687
0.0427546
0.000154025
0.000190701
0.000153308
0.000158087
0.000182058
0.000151186
0.000119571
0.000149644
0.000148539
0.0529071
0.0433425
0.0453939
0.000182768
0.00331523
0.046972
0.0575174
0.0308172
0.000145421
0.000177766
0.000151279
0.000148779
0.000345647
0.000175734
0.000148747
0.000177049
0.000169923
0.0293106
0.000148143
0.000194758
0.0151398
0.00023961
0.0278702
0.000149677
0.000148702
0.000153882
0.000162078
0.000146364
0.0501903
0.000201108
0.000159825
0.0362113
0.000157673
0.000195447
0.0626485
0.000211623
0.000199552
0.000115928
0.000194741
0.000175845
0.000200784
0.000172915
0.000203088
0.000207594
0.000176421
0.000186238
0.00014804
0.00174269
0.000159174
0.000146482
0.000161286
0.000151509
0.0316191
0.0760942
0.000147759
0.000145406
0.0508524
0.0250276
0.000149721
0.0227041
0.000151923
0.000199555
0.000147872
0.0367664
0.000763672
0.000158211
0.0001498
0.0396148
0.000205899
0.0118394
0.000149777
0.0296109
0.000346046
0.050143
0.000146578
0.0407257
0.0849575
0.00017204
0.000147214
0.000149599
0.000187499
0.000226254
0.00014808
0.000147275
0.00014757
0.000147533
0.0367203
0.000461906
0.000171658
0.000217594
0.000147893
0.00014671
0.00019035
0.0769441
0.000163591
0.00014831
0.000148209
0.000148458
0.0564492
0.0547441
0.000149097
0.000148453
0.000126911
0.000172526
0.000165113
0.000148636
0.000151804
0.00015664
0.000185704
0.00019327
0.000218935
0.00020244
0.000189589
0.000836161
0.000177586
0.000147861
0.0306589
0.00014847
0.000152546
0.000155013
0.00180561
0.00016964
0.000146794
0.000243749
0.000186789
0.00746865
0.000189687
0.000160073
0.000171273
0.000149201
0.0823182
0.000221
0.0599353
0.000149362
0.000160583
0.000218506
0.0497982
0.0100802
0.000181439
0.000185648
0.000153994
0.000153572
0.000148669
0.000165101
0.000168681
0.000149226
0.000177102
0.00017236
0.0608959
0.0140044
0.000153173
0.000194748
0.000466838
0.000157457
0.000149888
0.000443696
0.0683373
0.0643348
0.000212592
0.000145342
0.0253099
0.000187013
0.000147214
0.000161563
0.00018511
0.000159468
0.000183828
0.0501354
0.00020031
0.000169645
0.0822048
0.000152139
0.0261614
0.000149551
0.000149049
0.0145306
0.0702463
0.000204822
0.000152141
0.000150313
0.00014846
0.000174029
0.000439956
0.000197469
0.000153914
0.000197895
0.000178637
0.000147908
0.000352601
0.000196877
9.88062e-05
0.00014773
0.000199756
0.000151422
0.0140661
0.000173553
0.000169523
0.000160829
0.000147051
0.000146411
0.000148976
0.000173739
0.000156041
0.000230413
0.000524374
0.000179167
0.000146984
0.000199087
0.000206042
0.000176794
0.000148745
0.000155626
0.000147327
0.000161761
0.000155354
0.0844449
0.000149486
0.000514333
0.000161374
0.000203279
0.000178717
0.0440022
0.000170361
0.000149462
0.0403467
0.0112821
0.000148594
0.00015492
0.00202652
0.000204179
0.000194399
0.000149544
0.000149901
0.000203968
0.000156154
0.000181713
0.000183037
0.000146465
0.000178527
0.0576582
0.000148717
0.000152575
0.000147708
0.0260836
0.000149752
0.000153649
0.0280921
0.000151851
0.0654347
0.000157393
0.000160198
0.000147658
0.000166004
0.000148114
0.000174886
0.000147086
0.000172848
0.000151907
0.0174718
0.000316151
0.0769695
0.000152519
0.000149319
0.000176653
0.000169635
0.0311625
0.0789785
0.000175013
0.000148309
0.000241319
0.000205138
0.000102593
0.00021436
0.000174958
0.0478768
0.000164639
0.000172259
0.00019643
0.000178009
0.000174674
0.000234927
0.000174069
0.000153787
0.000186324
0.000156637
0.000147438
0.000161506
0.000168071
0.000157616
0.000148174
0.000147474
0.000178964
0.000152934
0.000181829
0.0001483
0.000148368
0.000149807
0.000151598
0.000144999
0.000155572
0.000147848
0.0355488
0.000183427
0.000188111
0.000146503
0.00014962
0.000163287
0.000176179
0.000150633
0.0669288
0.000174357
0.0471293
0.00016151
0.00019359
0.000150536
0.000149777
0.000147414
0.000151676
0.0194821
0.000149676
0.00591669
0.000155976
0.00934993
0.000164806
0.000174976
0.000202754
0.000145928
0.000149935
0.000183797
0.000148493
0.000149893
0.0487946
0.000150655
0.000149136
0.000158549
0.000147497
0.000145903
0.000157761
0.000156311
0.0256533
0.000163109
0.000148715
0.000147236
0.054214
0.000173692
0.000149241
0.000149358
0.0553715
0.000983037
0.0233591
0.000160064
0.000153798
0.000146425
0.000145744
0.000176879
0.000163779
0.000236268
0.000153953
0.0397339
0.000149674
0.000152199
0.0194746
0.000148325
0.000159405
0.000148326
0.000148424
0.000167227
0.000161751
0.000150474
0.067205
0.0249145
0.000179287
0.000147848
0.000145529
0.000196758
0.00597553
0.000149717
0.00047059
0.000145485
0.000167032
0.000147754
0.000147747
0.000216335
0.000148795
0.013286
0.000166857
0.000149805
0.000145396
0.000148761
0.000147557
0.000152352
0.000430056
0.000148434
0.00014733
0.0723105
0.0683744
0.00017059
0.000168969
0.000181298
0.000155776
0.000147046
0.000156315
0.0366436
0.000173619
0.000148799
0.000149627
0.0790051
0.000166779
0.0573253
0.000149756
0.000150817
0.0236505
0.000165003
0.000150724
0.0172227
0.000288683
0.000147518
0.000193892
0.000147397
0.000148643
0.000146432
0.0460688
0.000144923
0.000149018
0.000147021
0.0192652
0.000156188
0.000199452
0.000165701
0.000147808
0.00015872
0.000149095
0.0522971
0.000147667
0.000148552
0.000149143
0.000197548
0.000149088
0.000200425
0.0198749
0.0505867
0.000155257
0.000120019
0.0331061
0.000148378
0.0212536
0.0814306
0.0372437
0.0367233
0.071849
0.00794447
0.000197133
0.000149691
0.0495095
0.000164837
0.0551333
0.000146443
0.000147832
0.000149291
0.000149046
0.000157061
0.000158158
0.0320366
0.000147748
0.000148464
0.0108921
0.000186969
0.000148757
0.000160417
0.000160289
0.000149638
0.000306311
0.000160776
0.000152393
0.000156042
0.0202693
0.0241885
0.000252679
0.000147594
0.000206062
0.000186836
0.0339855
0.0790002
0.00019062
0.000147869
0.00015071
0.000149672
0.000144647
0.000151786
0.000145338
0.000156743
0.000164151
0.0405237
0.00019808
0.000149056
0.000193177
0.0591879
0.000166247
0.000149617
0.0279576
0.000147979
0.000149672
0.000160494
0.0412126
0.00014909
0.000147754
0.0585225
0.000211921
0.000187151
0.000191777
0.000117068
0.000147579
0.000202667
0.00014972
0.00014791
0.000149736
0.0517286
0.0288255
0.000147383
0.000145391
0.000148451
0.00193213
0.000151362
0.000160884
0.000148468
0.000149998
0.000201547
0.000147936
0.000175521
0.00019645
0.045757
0.000148587
0.000171904
0.000153378
0.0414422
0.0567348
0.000148205
0.0443747
0.00018253
0.000266081
0.000149081
0.0439617
0.0001496
0.000157455
0.000166201
0.00019169
0.0530799
6.30895e-05
0.000205388
0.0718965
0.000146933
0.000229552
0.000147733
0.000156609
0.0592467
0.000148825
0.000149656
0.000151029
0.000149478
0.0389605
0.000145825
0.000148477
0.00017883
0.000169794
0.000175603
0.000202439
0.000198907
0.0187018
0.000184186
0.000166139
0.000171661
0.0372308
0.000171161
0.058386
0.0527489
0.000156789
0.000148018
0.0351339
0.000100143
0.000149642
0.000190886
0.000164038
0.000150473
0.000157592
0.000149646
0.000166416
0.000149943
0.000174544
0.000170723
0.000147166
0.0001765
0.000147747
0.000166649
0.00014706
0.000154867
0.00017818
0.000153255
0.000149408
0.000147434
0.000287169
0.000176365
0.060292
0.000148227
0.000149096
0.00017954
0.000148324
0.000184631
0.000176321
0.00015047
0.000187897
0.000147607
0.0700616
0.00014953
0.00016933
0.0292151
0.000229326
0.000147634
0.000152342
0.0169062
0.000147925
0.000147404
0.0380029
0.0512064
0.00015298
0.000204184
0.000148593
0.00014941
0.0516207
0.000151469
0.000145997
0.000237519
0.000147857
0.000556224
0.000149269
0.000145994
0.000149269
0.000199348
0.0343045
0.000148988
0.000149507
0.000147575
0.000154938
0.000148387
0.000226198
0.000176196
0.000149773
0.0544956
0.000164865
0.000229349
0.0491739
0.000433488
0.000147208
0.000149462
0.000148623
0.00020697
0.00015539
0.0342538
0.0317823
0.000152525
0.0586773
0.000318315
0.00017496
0.000201529
0.000169167
0.000189033
0.0522449
0.000167157
0.000316186
0.052566
0.000183004
0.000154272
0.0381781
0.000164179
0.000146567
0.000152662
0.0724286
0.000162818
0.000147702
0.000166305
0.000186517
0.000164489
0.0375139
0.000152606
0.0645568
0.00017153
0.000117664
0.000193534
0.000207581
0.000159696
0.000147489
0.000150401
0.0547714
0.000147924
0.00015277
0.00014721
0.000151834
0.00014785
0.000160314
0.000202572
0.000299818
0.000162686
0.000165168
0.0413192
0.000191296
0.000147867
0.00153104
0.0485018
0.000146431
0.000147347
0.000161428
0.0227995
0.000149667
0.000180495
0.000209128
0.000166747
0.000148685
0.000152774
0.000148011
0.000190803
0.000163012
0.000147788
0.0201684
0.0485293
0.000163539
0.00056439
0.000183427
0.00177536
0.000151746
0.000156197
0.0417318
0.0014703
0.000190891
0.00026336
0.000158239
0.00014983
0.000148729
0.000149245
0.000148415
0.000150439
0.000166699
0.000147689
0.000197297
0.000147489
0.000159119
0.000147498
0.000175143
0.000197269
0.000269169
0.000148295
0.000207409
0.000148717
0.0395101
0.000148261
0.000154413
0.000148758
0.000232657
0.0400465
0.000200696
0.000147676
0.000198091
0.000148555
0.000159475
0.0492694
0.000148476
0.000149772
0.000168998
0.000161567
0.0580727
0.000147708
0.000158118
0.000152942
0.000148224
0.000158596
0.000150132
0.00014619
0.000152179
0.0290866
0.000153941
0.00018816
0.0622592
0.000174573
0.0363179
0.000153567
0.000146232
0.000158754
0.0244017
0.000153348
0.000162087
0.000172013
0.00291957
0.000147446
0.00332561
0.000177157
0.000181048
0.00014636
0.000145484
0.000204961
0.000149932
0.000149898
0.000159112
0.000146452
0.000153159
0.000158673
0.000184639
0.000182122
0.0555453
0.000156978
0.000185336
0.00733088
0.0155775
0.000169401
0.000181541
0.0217714
0.000168615
0.0687295
0.00015225
0.00813476
0.00329332
0.000146551
0.000149723
0.0001476
0.000151283
0.000168495
0.00014759
0.000152571
0.000190724
0.000152367
0.000160268
0.0449215
0.000157583
0.000154381
0.0763563
0.000150713
0.0229138
0.000155219
0.000165141
0.000147377
0.0286918
0.0290356
0.00014857
0.00015159
0.0443951
0.000157226
0.014995
0.00014801
0.00014788
0.0603855
0.000151422
0.000162487
0.00884055
0.000148444
0.000174969
0.000159072
0.000145476
0.000147244
0.0479966
0.0310197
0.000149403
0.000153131
0.000148659
0.000156259
0.00016011
0.0293996
0.000150513
0.000330312
0.0116463
0.000107914
0.0023532
0.000151237
0.000197355
0.000178418
0.000156969
0.000148387
0.000181092
0.0463061
0.000151825
0.000162811
0.0579346
0.000458848
0.00018434
0.000154012
0.000149481
0.000149607
0.000148471
0.0246413
0.00017761
0.000154008
0.000151894
0.000154215
0.000149785
0.000148213
0.000148471
0.000184964
0.000170401
0.0512398
0.000163257
0.00836415
0.0321792
0.000158507
0.000175379
0.000146625
0.000157486
0.0244062
0.000149077
0.000152358
0.000176258
0.000194532
0.000164625
0.0429038
0.000197863
0.000147978
0.0425786
0.000145244
0.000149777
0.000163707
0.000149807
0.000148876
0.000205104
0.0635018
0.000147872
0.0448619
0.000149009
0.000147132
0.000152193
0.000355595
0.000158871
0.000155219
0.0753048
0.000151273
0.00023309
0.041073
0.000149607
0.000163475
0.000147931
0.0192146
0.000180998
0.000148512
0.0496485
0.000176522
0.000167868
0.000149846
0.0273944
0.000157198
0.000189553
0.000152368
0.00016746
0.0290009
0.000147276
0.000248924
0.000148927
0.00017669
0.000163936
0.000149601
0.0308401
0.000152257
0.000194205
0.000175995
0.000169249
0.000162742
0.000162995
0.000150364
0.05758
0.000159035
0.0194591
0.0001578
0.000182571
0.000148446
0.00016792
0.000148608
0.000185345
0.0524691
0.000150791
0.000147178
0.000440217
0.000151464
0.0121933
0.000150378
0.0475192
0.000102468
0.00016305
0.000147896
0.000147556
0.000148678
0.000145386
0.000188757
0.000165779
0.000160792
0.000155543
0.000148445
0.00192288
0.000153319
0.000162322
0.00337739
0.00014851
0.0171981
0.000175991
0.000162949
0.000249096
0.0418104
0.000194216
0.0468831
0.021393
0.000147417
0.000197256
0.0314973
0.000187265
0.000149089
0.000149406
0.000195535
0.0495086
0.0230236
0.000234637
0.000150564
0.000164324
0.000169139
0.0397251
0.00274503
0.000171852
0.000197873
0.000152859
0.000175851
0.000190875
0.000149032
0.000187059
0.0607377
0.000148802
0.00450134
0.000149663
0.000148629
0.0347268
0.0511178
0.000146866
0.000150827
0.000150252
0.000147831
0.000166089
0.000206206
0.000152695
0.000147832
0.000148562
0.000171452
0.000158043
0.000157664
0.000198375
0.000148365
0.0551869
0.0162465
0.0628591
0.000175525
0.0001731
4.26379e-05
0.000164472
0.0484767
0.000633431
0.00992537
0.000149975
0.0854089
0.0345082
0.000146321
0.000148188
0.000183938
0.0558188
0.0633392
0.000147892
0.000148578
0.0437563
0.00149828
0.00712744
0.000153211
0.000152584
0.000295073
0.000149251
0.0495357
0.0294894
0.00029073
0.000843664
0.000148723
0.000147616
0.000147091
0.000154954
0.0358307
0.00017078
0.000156971
0.000150469
0.000172695
0.0241904
0.000171506
0.0515616
0.014098
0.025268
0.000314689
0.000148348
0.00014908
0.0463243
0.000145701
0.000146499
0.000151353
0.000374386
0.000167397
0.0373525
0.00019287
0.000148163
0.0781837
0.000166747
0.000147849
0.0161472
0.00017587
0.000153999
0.000149573
0.00507201
0.0608865
0.000149137
0.0667322
0.013383
0.0592438
0.000542926
0.00017573
0.000147875
0.000150628
0.000330262
0.000155906
0.045127
0.000167716
0.000988415
0.000230896
0.000150994
0.000157291
0.000147946
0.000150597
0.0560313
0.0196531
0.000148473
0.0212642
0.000172391
0.000148608
0.000153671
0.000147538
0.000202422
0.000150189
0.000312464
0.000164579
0.000147827
0.000147011
0.000169397
0.0231806
0.000168195
0.000153037
0.000168182
0.000148566
0.000152028
0.00015914
0.0193279
0.030145
0.0584584
0.000146066
0.000146956
0.000149808
0.000197549
0.00014717
0.000149938
0.000205465
0.000179427
0.000202122
0.000146391
0.0618649
0.0302043
0.000149885
0.0182937
0.000194802
0.000169014
0.000318947
0.000149635
0.0358586
0.000157509
0.000151288
0.000152575
0.000145666
0.000192237
0.000153844
0.000152003
0.000157853
0.0306879
0.0361496
0.000149612
0.000148025
0.000152546
0.000148579
0.000195049
0.000149981
0.000183116
0.000153293
0.0444441
0.000151535
0.0595418
0.000146108
0.0799807
0.000150145
0.000145569
0.0606924
0.000184474
0.00017195
0.000179623
0.000162353
0.000169932
0.000148459
0.0364737
0.000148457
0.000147205
0.000168532
0.000183442
0.0446929
0.0400954
0.000193435
0.0683978
0.000192003
0.000136473
0.000148638
0.000155332
0.000159792
0.0562163
0.000153681
0.055683
0.0303867
0.000149971
0.000148774
0.00014848
0.00035221
0.000424446
0.000152844
0.000148661
0.000154923
0.00015817
0.00016792
0.000243993
0.000192776
0.000148313
0.000205676
0.000181318
0.0227093
0.000181602
0.000151846
0.000153321
0.0766005
0.000147067
0.000184182
0.055476
0.000150689
0.000155101
0.000206201
0.000173197
0.000150729
0.0240419
0.000154203
0.000229905
0.000172097
0.000158197
0.000151593
0.0580943
0.000146966
0.000171167
0.000261211
0.0595328
0.00017291
0.000175478
0.000157175
0.000163564
0.00014975
0.0610517
0.000158362
0.000148872
0.000160992
0.000148512
0.000149776
0.000383892
0.000148427
0.000149117
0.00014864
0.000198381
0.00014952
0.000161571
0.000184876
0.000200325
0.000189764
0.000149661
0.000183111
0.000193273
0.000203321
0.000180779
0.000155936
0.000201738
0.0489025
0.000237211
0.000149887
0.0420164
0.0479303
0.000149882
0.000153764
0.000145555
0.000217214
0.000184295
0.00014931
0.000250545
0.054714
0.000146643
0.000149399
0.0438334
0.0327691
0.00018391
0.000145741
0.0356538
0.0364287
0.000480983
0.000148136
0.0577811
0.000188962
0.000167366
0.0501855
0.000157009
0.000145647
0.000160821
0.000198104
0.000163333
0.0476939
0.06417
0.000147157
0.0618935
0.000197121
0.0365071
0.000146105
0.000163671
0.000149665
0.000147884
0.0605914
0.00329703
0.000227964
0.00437094
0.000157768
0.000173556
0.000151468
0.0633836
0.0223446
0.000148466
0.000149581
0.000158346
0.000148194
0.00017567
0.0630385
0.0738809
0.000174061
0.000150381
0.000149814
0.0606418
0.000153953
0.000175903
0.00014699
0.000151237
0.000241376
0.00469367
0.000137192
0.000359838
0.000149069
0.000233123
0.0001525
0.000163643
0.0796497
0.0199442
0.000148449
0.000149956
0.000168096
0.00015455
0.000149308
0.0647487
0.056199
0.000147311
0.000144931
0.00014921
0.000147686
0.000328548
0.000147225
0.0451351
0.000189125
0.000183476
0.000147761
0.000166837
0.0669268
0.000164915
0.000193727
0.0467606
0.000149461
0.0271067
0.000158927
0.00015972
0.000189079
0.0276679
0.0359826
0.0001819
0.000147488
0.000188971
0.000147302
0.000154102
0.000149342
0.0436621
0.000158975
0.00208323
8.43459e-05
0.0001732
0.000148761
0.000208574
0.00015838
0.000149785
0.000182259
0.000145195
0.000170644
0.000164435
0.00014922
0.0728421
0.00015198
0.000202715
0.000150854
0.000147536
0.0539522
0.0475358
0.000152844
0.00015863
0.000170667
0.000171427
0.000180575
0.000158164
0.000155039
0.000155855
0.000225449
0.00015401
0.0437198
0.000166479
0.000127182
0.00019659
0.000151293
0.0665631
0.000145231
0.0561497
0.000152946
0.0548127
0.00238136
0.0206113
0.0311829
0.000234185
0.000168252
0.000149165
0.0616005
0.000169571
0.000148505
0.0221073
0.0597217
0.000151647
0.000154002
0.000160596
0.000160638
0.000164275
0.0352679
0.000149883
0.000163089
0.000167337
0.000159351
0.000149026
0.000189013
0.000145567
0.0452666
0.000152335
0.000192351
0.00016207
0.000168796
0.000182743
0.00310737
0.00018163
0.000147199
0.000186864
0.0591658
0.063661
0.000150588
0.0418515
0.000160157
0.000295656
0.00014846
0.000153466
0.053035
0.000178475
0.0274614
0.0264566
0.00015909
0.0740337
0.000148315
0.000145526
0.0228492
0.000164835
0.000153405
0.0731908
0.000157053
0.000163249
0.000157721
0.000176611
0.000149301
0.0468572
0.0550875
0.00907879
0.000229605
0.000155866
0.000171503
0.029336
0.000152939
0.000149652
0.000176066
0.000146071
0.0001834
0.0478421
0.0213233
0.0278899
0.000178994
0.000150814
0.0601294
0.000145257
0.000185229
0.000149535
0.0353394
0.000152784
0.000164359
0.0389557
0.000192249
0.000148061
0.000159328
0.0104594
0.000148821
0.000200868
0.000147167
0.0574271
0.0557395
0.000194755
0.000167569
0.000147559
0.000199802
0.000200159
0.000168475
0.000147174
0.000151042
0.000148893
0.000178663
0.000148756
0.000189256
0.000149068
0.000147458
0.0847063
0.000147868
0.000156998
0.000156383
0.000149819
0.0447082
0.000147747
0.000161316
0.0567334
0.000177025
0.0413426
0.00014872
0.0602454
0.000178143
0.0728783
0.00015239
0.00019788
0.000150002
0.00017013
0.000197287
0.000195428
0.000212247
0.0545416
0.000206597
0.000402845
0.000155583
0.000194875
0.000163013
1.32757e-05
0.000153878
0.00014979
0.000148484
0.000177358
0.000164771
0.00117366
0.000176697
0.0510811
0.0536769
0.000170284
0.000148456
0.00704102
0.000178149
0.000150101
0.000152822
0.000148775
0.0413068
0.000148479
0.0170017
0.00014776
0.000158893
0.0380538
0.000170387
0.000148321
0.000148431
0.0255705
0.000147757
0.000152907
0.000155861
0.000160569
0.000158057
0.000149202
0.000202664
0.000167674
0.000162704
0.000217488
0.0447347
0.0428754
0.0313474
0.000146193
0.000148207
0.000171623
0.000150814
0.000163224
0.0417894
0.0427196
0.000145699
0.000148431
0.0409717
9.9165e-05
0.000145867
0.000147266
0.000155253
0.055693
0.0503552
0.000156857
0.000162299
0.000149284
0.000242682
0.000197971
0.00017384
0.000158313
0.000163522
0.000149979
0.000166295
0.000232028
0.000150768
0.000149383
0.000156462
0.0571277
0.000154241
0.0227497
0.000148642
0.0509013
0.000162007
0.000156212
0.000146431
0.000147469
0.000242367
0.0546077
0.000164577
0.0243875
0.0554059
0.000150224
0.0529044
0.000200965
0.000148273
0.0160505
0.000157134
0.000194644
0.000149663
0.0398248
0.0374144
0.000148848
0.000162615
0.029598
0.000166208
0.000148684
0.000147357
0.000150148
0.000154045
0.000181748
0.000228327
0.000167346
0.000179401
0.000146431
0.000149267
0.0459368
0.000147564
0.000167947
0.000155223
0.00015004
0.000173565
0.000148145
0.000152447
0.000238794
0.000147903
0.043988
0.000148155
0.00392002
0.048953
0.000186931
0.000149438
0.000149947
0.0593228
0.000145579
0.000153576
0.000149776
0.000202174
0.000262154
0.000164187
0.0482603
0.000162566
4.88911e-05
0.000150304
0.000183711
0.000147943
0.000148864
0.0208677
0.0467186
0.00040848
0.000152876
0.000182948
0.000183354
0.0382395
0.0574054
0.000232745
0.000166528
0.000145205
0.0511031
0.000148334
0.000148579
0.000231141
0.000195507
0.000156749
0.000177798
0.000163786
0.000159533
0.000158025
0.0763369
0.000154341
0.000147865
0.0204759
0.00016401
0.00014631
0.0348066
0.000148102
0.000148677
0.000202434
0.000185573
0.0383247
0.000146429
0.000153703
0.000147587
0.000307968
0.000147654
0.00019727
0.0064752
0.0459988
0.0323055
0.0142871
0.000157554
0.0436322
0.000221999
0.000149353
0.000158359
0.000162708
0.000157758
0.00024672
0.0450889
0.051956
0.0457343
0.000350625
0.000149135
0.000193132
0.000148144
0.0207179
0.000159777
0.00015283
0.000153757
0.000150973
0.000147642
0.000192408
0.0536228
0.00014608
0.000152893
0.000146946
0.0401063
0.000152673
0.0796309
0.0413201
0.000385806
0.000148581
0.000147709
0.036926
0.000189275
0.00014886
0.000190002
0.000149485
0.000186973
0.00017733
0.000188197
0.000176755
0.029736
0.000146998
0.00014803
0.00023105
0.0354206
0.000159462
0.000166292
0.000147913
0.0158248
0.000148158
0.000147604
0.000151921
0.000148278
0.00669918
0.0440101
0.000413249
0.000182198
0.0594162
0.000181411
0.000145679
0.000163145
0.000146058
0.000252014
0.000148983
0.00015378
0.00014819
0.000147426
0.000147617
0.000385181
0.000152109
0.000274585
0.000146088
0.000158612
0.000157619
0.000266391
0.000148256
0.000163081
0.000167404
0.000171767
0.0784691
0.000147421
0.0322937
0.000175628
0.000164495
0.000149591
0.000147724
0.0367417
0.00963787
0.000149065
0.000148117
0.00023524
0.000235176
0.000160656
0.0561855
0.000150766
0.000101409
0.000163446
0.00014604
0.0463571
0.000152817
0.0507103
0.000148442
0.000150894
0.000148736
0.0400493
0.0441904
0.000145828
0.00018083
0.00022961
0.00014828
0.000147995
0.000147619
0.000182314
0.0559532
0.000174532
0.000155395
0.00016718
0.000148154
0.000148644
0.000153076
0.000147936
0.000207462
0.000148731
0.000182754
0.00024209
0.000164411
0.000145312
0.0372869
0.000184589
0.000148209
0.000177453
0.000162273
0.000248034
0.000153283
0.0807706
0.000174948
0.000148399
0.000182349
0.000182708
0.000154775
0.0830855
0.000181465
0.000163182
0.000320592
0.000148087
0.000184412
0.000168831
0.00018133
0.000147557
0.000148211
0.000145542
0.000159067
0.00017947
0.000178753
0.052417
0.0319241
0.0424952
0.000149761
0.000298655
0.0501735
0.0621879
0.000148232
0.000148589
0.00017727
0.0539207
0.000153083
0.000167074
0.0111753
0.034481
0.00394547
0.000171449
0.000203185
0.0396939
0.000181751
0.000145603
0.00181699
0.000227199
0.000149914
0.000150347
0.000150956
0.0605303
0.00018442
0.0569136
0.000153226
0.0069695
0.000149197
0.000284639
0.0337957
0.000149352
0.000165766
0.0492495
0.0459103
0.000174047
0.000151404
0.000152428
0.000149897
0.000184291
0.000197333
0.000672452
0.0600006
0.000146703
0.0178758
0.000190583
0.00010469
0.000148066
0.000149027
0.00267332
0.000182325
0.000148096
0.000172273
0.000166988
0.000160935
0.0439418
0.0592396
0.0657559
0.0581088
0.000154611
0.000146193
0.000166159
0.0276645
0.060033
0.000148662
0.000182462
0.000168791
0.000193554
0.000151266
0.000149687
0.000237775
0.00483364
0.00675022
0.000270642
0.0249534
0.000147701
0.000181956
0.0569135
0.000149434
0.000165687
0.00019046
0.000145943
0.000203741
0.0688216
0.000179863
0.000149679
0.0201454
0.000194268
0.0436475
0.000144689
0.000153871
0.000149191
0.000153148
0.000149072
0.000170759
0.000162669
0.000162431
0.000185917
0.000165459
0.0431983
0.000154169
0.000162235
0.000157792
0.0215314
0.000164951
0.0332886
0.00015758
0.000156264
0.0109637
0.000169698
0.000148773
0.000162678
0.00720627
0.0615261
0.000235245
0.00014829
0.000147797
0.000148115
7.28602e-05
0.0001516
0.000333921
0.000258374
0.000182029
0.000160928
0.000212172
0.0286276
0.000149065
0.0637586
0.000160095
0.000163636
0.000148219
0.000148528
0.000174789
0.060721
0.000148418
0.0297949
0.000213564
0.00016984
0.000197886
0.000147746
0.000148073
0.000161506
0.000152382
0.0558006
0.0242974
0.000169577
0.00024261
0.000148218
0.000149017
0.00014939
0.000149604
0.082864
0.000152637
0.0422224
0.00016875
0.000151365
0.000188614
0.000825975
0.0400314
0.020999
0.00015327
0.000147851
0.000148802
0.000153938
0.000215949
0.000180289
0.0823584
0.000148966
0.000150809
0.000175926
0.000149709
0.000194532
0.000152276
0.00017473
0.000176003
0.000162619
0.000162775
0.00014643
0.000172127
0.000162255
0.000180356
0.00016766
0.000162985
0.000147028
0.000187245
0.000147641
0.000716712
0.0480857
0.000224147