/*--------------------------------*- C++ -*----------------------------------*\
| =========                 |                                                 |
| \\      /  F ield         | OpenFOAM: The Open Source CFD Toolbox           |
|  \\    /   O peration     | Version:  v2012                                 |
|   \\  /    A nd           | Website:  www.openfoam.com                      |
|    \\/     M anipulation  |                                                 |
\*---------------------------------------------------------------------------*/
FoamFile
{
    version     2.0;
    format      ascii;
    class       volScalarField;
    location    "950";
    object      nut;
}
// * * * * * * * * * * * * * * * * * * * * * * * * * * * * * * * * * * * * * //

dimensions      [0 2 -1 0 0 0 0];


internalField   nonuniform List<scalar> 
13851
(
0.00655533
0.0182902
0.00134866
0.00660888
0.00234327
0.00411831
0.00679826
0.00184795
0.00675863
0.00106736
0.0131894
0.0149953
0.00522469
0.0086051
0.0067302
0.00288436
0.00395753
0.00574579
0.00157274
0.00675292
0.00663869
0.00143654
0.00680158
0.00684977
0.00680328
0.00178217
0.00339014
0.000249038
0.00659232
0.00646047
0.00444424
0.00371897
0.00142602
0.0109367
0.00685137
0.00111246
0.000382629
0.000809386
0.00117991
0.0120707
0.00682633
0.00670966
0.00167738
0.0126234
0.0132921
0.00457239
0.0118473
0.0151379
0.0033004
0.00602056
0.00252338
0.00146089
0.00314685
0.00676774
0.00683817
0.00671385
0.00681351
0.00629924
0.00650174
0.0068209
0.000645963
0.00717319
0.0030596
0.00204118
0.0028225
0.00626229
0.00117688
0.0109987
0.00239288
0.00577968
0.00223792
0.00445197
0.0176133
0.0067723
0.00672597
0.00682239
0.0017031
0.00327676
0.00229029
0.00282611
0.00653155
0.0131353
0.00675106
0.00336797
0.00318849
0.0142095
0.00449709
0.0194028
0.00319725
0.00680446
0.00113037
0.00574387
0.0108165
0.00298503
0.00393209
0.006823
0.00228727
0.011164
0.00638545
0.00682221
0.00337223
0.0023751
0.0067904
0.00275601
0.00679399
0.0045755
0.002441
0.00668912
0.00734328
0.00418724
0.0068307
0.00679944
0.00570233
0.00680746
0.00683197
0.00269978
0.011307
0.00668546
0.00687816
0.00686836
0.00152867
0.0029888
0.00603021
0.00529433
0.0153915
0.00669151
0.0160306
0.00227932
0.0066683
0.00144168
0.00682037
0.00671834
0.00338207
0.00674775
0.00414571
0.00674043
0.00668611
0.00404211
0.0120424
0.0158181
0.00418516
0.00683688
0.00663758
0.00678771
0.00536357
0.0111743
0.00557563
0.0014485
0.00679302
0.0137848
0.00183294
0.00684866
0.00722005
0.00682276
0.00420161
0.00607358
0.00679569
0.00665837
0.00146564
0.00254571
0.00676215
0.0028138
0.00626435
0.00671769
0.0058165
0.00675034
0.00540266
0.00238583
0.0066902
0.00482929
0.00230081
0.00670612
0.00679856
0.0155426
0.00671355
0.0149028
0.00231272
0.00664363
0.00125318
0.00670142
0.00367132
0.00502076
0.00674179
0.00143963
0.00672853
0.00681522
0.00623127
0.00679858
0.00209555
0.00132855
0.0110962
0.00460297
0.00677093
0.00241537
0.00785643
0.0052245
0.00667633
0.0125334
0.00667461
0.00682319
0.00669618
0.00381307
0.0068909
0.00675447
0.00126038
0.00674466
0.00914422
0.00394551
0.00978474
0.00672403
0.0105897
0.00680209
0.00949612
0.00669088
0.00677723
0.0133706
0.00292573
0.00582857
0.00672031
0.0103339
0.00385666
0.00637439
0.0108093
0.00150599
0.0123351
0.00680255
0.00262686
0.0068045
0.00731578
0.00669546
0.0019653
0.00228848
0.00670398
0.00678052
0.00226518
0.00408427
0.00883
0.0034571
0.00678751
0.00675679
0.00429801
0.00640234
0.00679511
0.00123271
0.00680887
0.0124448
0.00236829
0.0116263
0.00600015
0.00417271
0.00596545
0.00469471
0.00683403
0.00618052
0.00229104
0.00258141
0.00139487
0.00454314
0.000233233
0.00673356
0.00677745
0.00593444
0.0172055
0.00680438
0.00398819
0.00502278
0.00683783
0.00299872
0.0102826
0.00559701
0.00597522
0.004584
0.0112595
0.00227837
0.00320563
0.00672099
0.0136219
0.00722456
0.0121805
0.0138226
0.00679348
0.00671471
0.00679486
0.00246339
0.0166049
0.0147989
0.0067898
0.00672144
0.0103921
0.0127389
0.00122711
0.00656056
0.0068237
0.0023641
0.0126772
0.00337714
0.00591637
0.0148895
0.00672634
0.0123876
0.0027261
0.0041876
0.011875
0.00685255
0.00449018
0.011728
0.00678289
0.00218399
0.00271124
0.00659821
0.0109068
0.00588479
0.00683986
0.0111333
0.00671994
0.00455032
0.00668948
0.0117838
0.00159503
0.0067219
0.00230807
0.00672183
0.00125498
0.00572632
0.00681061
0.00684244
0.0016295
0.00284274
0.00482731
0.00672077
0.00685311
0.00684479
0.0135929
0.00420742
0.00632728
0.00454041
0.0118331
0.0102232
0.0067262
0.00244813
0.0012254
0.00554062
0.00293048
0.00164784
0.00108025
0.00626638
0.0151647
0.0119891
0.00673666
0.00684023
0.00676634
0.00183859
0.00478772
0.00240962
0.00749234
0.00680758
0.0144199
0.00684414
0.00672059
0.00678781
0.0066914
0.00677252
0.0117727
0.0121249
0.00679203
0.00234173
0.0067376
0.0160482
0.00249222
0.0136066
0.00635244
0.00679958
0.00340948
0.0028951
0.01392
0.00680358
0.00668588
0.00590432
0.00253494
0.00676342
0.0100254
0.00548019
0.0015551
0.00309346
0.00815665
0.00831734
0.00620867
0.00671929
0.0068105
0.00509594
0.00224926
0.00873284
0.00221183
0.0120047
0.0117789
0.00673941
0.00673617
0.00462711
0.00426852
0.00217724
0.0112497
0.00585147
0.00281202
0.00681088
0.00923073
0.00672924
0.002621
0.00626875
0.00678638
0.00680772
0.00677672
0.00674847
0.00209338
0.00325043
0.00281513
0.00554952
0.0023258
0.00515494
0.00563366
0.00467284
0.0019784
0.00420525
0.0138712
0.00668538
0.00677085
0.00680895
0.000591857
0.0110129
0.00155617
0.00525606
0.00160471
0.010456
0.00466427
0.00689931
0.00207366
0.00679671
0.009043
0.00679978
0.00483122
0.0128041
0.00133615
0.00850231
0.00662973
0.00905958
0.0125267
0.00231914
0.00670262
0.00271236
0.00248136
0.00413942
0.00671511
0.00684383
0.00178735
0.00155912
0.0043792
0.0175213
0.00680863
0.00684616
0.00482836
0.00567736
0.00670832
0.0208591
0.00671898
0.00655777
0.00672567
0.00422607
0.00672173
0.00671633
0.00665687
0.0108463
0.00675463
0.00234556
0.00672806
0.00580411
0.0130922
0.00680776
0.00683277
0.00680888
0.00680403
0.0131244
0.00683874
0.00426307
0.00673839
0.00682056
0.00645415
0.00765414
0.00674995
0.00572833
0.00405608
0.00730941
0.00502997
0.00684435
0.0114096
0.0068081
0.00234936
0.00680437
0.00816662
0.00671923
0.00266944
0.00147654
0.00671128
0.00576274
0.00897086
0.00185577
0.011781
0.00687905
0.00921776
0.0068642
0.00671163
0.00672752
0.00677784
0.00647148
0.00249959
0.00149031
0.000689166
0.00292354
0.00677062
0.00919404
0.0111054
0.00346834
0.00248995
0.00718857
0.00460269
0.0106123
0.00681399
0.00826944
0.00288749
0.00364561
0.00575758
0.00571582
0.00748123
0.00949419
0.00015459
0.0116197
0.00845157
0.00662493
0.00900465
0.00515903
0.00669254
0.00629368
0.00245572
0.00503572
0.00643972
0.00673261
0.00678813
0.00678797
0.00213005
0.00437703
0.0189402
0.0176442
0.00673718
0.00382124
0.00824513
0.0042144
0.0119085
0.00232868
0.0066957
0.00676505
0.0125456
0.00982623
0.00431729
0.00198448
0.00114008
0.00671221
0.00468625
0.00533792
6.7157e-05
0.00166081
0.007219
0.00525772
0.00681517
0.00678847
0.0170682
0.0118061
0.00151273
0.0022098
0.00312208
0.00669772
0.00673722
0.00588446
0.00670487
0.00634361
0.00669974
0.00671256
0.00560621
0.00212323
0.00550657
0.00670396
0.00874266
0.0117529
0.00672648
0.00679536
0.006802
0.00680172
0.00276877
0.01125
0.0104156
0.00476914
0.0109679
0.00221597
0.00298089
0.00844364
0.00620359
0.00240908
0.00669657
0.00668005
0.00250449
0.0101676
0.0153574
0.00189674
0.00289004
0.0067432
0.00323295
0.00664603
0.0114405
0.00253269
0.00673547
0.00453701
0.00671352
0.00331813
0.00149957
0.00681262
0.00679151
0.00256602
0.00682615
0.00231287
0.000790611
0.00156929
0.00350303
0.00146937
0.00673881
0.00234318
0.00585284
0.00494424
0.00681353
0.00683146
0.00686375
0.00656011
0.00265003
0.0121553
0.00794313
0.0211592
0.00672603
0.005295
0.00678723
0.00671396
0.00672099
0.00671352
0.00626821
0.00550135
0.00442439
0.00669788
0.0101798
0.00146538
0.0104064
0.00677558
0.00674713
0.00680671
0.00123498
0.00810625
0.00210602
0.0029724
0.00678603
0.00682935
0.00681255
0.00681544
0.000293616
0.0164261
0.00681947
0.00669586
0.00678021
0.00681216
0.0017964
0.00552169
0.00311338
0.0106223
0.00673309
0.00678531
0.00150419
0.00228245
0.00235516
0.0142513
0.00683015
0.00589071
0.00199449
0.00584676
0.0102053
0.00674672
0.00671618
0.00680803
0.00201577
0.00996317
0.00683128
0.00666599
0.00316574
0.00671492
0.0039022
0.0135822
0.0139149
0.00259058
0.00300472
0.00930701
0.00669308
0.00676886
0.00744421
0.00114741
0.00356584
0.0120759
0.00676349
0.00683748
0.00669277
0.0123719
0.00127203
0.00618019
0.00682447
0.0124397
0.00364023
0.0068052
0.00297759
0.00229056
0.010449
0.00671735
0.00681532
0.00326316
0.00174143
0.00129506
0.00668178
0.00757148
0.00674921
0.0130128
0.00110814
0.00127064
0.00477316
0.00727741
0.00610104
0.00653758
0.000388002
0.00683548
0.00688885
0.006697
0.00673523
0.00370843
0.00270794
0.0016444
0.00557756
0.00879758
0.00674783
0.0172987
0.0068734
0.0061114
0.00674791
0.00677524
0.00677171
0.0117465
0.00677911
0.00668899
0.0143617
0.00679542
0.00541907
0.00679416
0.00665183
0.0022887
0.00179894
0.0130617
0.00676545
0.00725946
0.0110137
0.00683517
0.0108551
0.00207617
0.00672919
0.00574312
0.00217171
0.00580879
0.00512905
0.00675177
0.00669026
0.0122002
0.00113556
0.00212453
0.00599264
0.00574181
0.00679796
0.00667112
0.00192207
0.00739585
0.00214236
0.0161886
0.00680844
0.00231323
0.00220538
0.0109161
0.00621028
0.0124338
0.000580551
0.00679695
0.00228781
0.00259543
0.0105787
0.0132827
0.0114381
0.00915759
0.00214639
0.00673148
0.0050972
0.00651301
0.0020719
0.00684169
0.00680831
0.00250409
0.0128247
0.0067065
0.00304248
0.0067568
0.00678417
0.00486487
0.00328163
0.00947501
0.00671575
0.00672135
0.00259913
0.00031197
0.00160904
0.00649033
0.00860475
0.000492871
0.00963861
0.00248437
0.00235095
0.00684008
0.00679929
0.0174308
0.0019354
0.00355696
0.00572665
0.0024736
0.00303249
0.010216
0.00669112
0.00676053
0.00229571
0.00672551
0.00321792
0.00668316
0.0155116
0.0034852
0.011617
0.00670181
0.00213059
0.00675582
0.00114303
0.00240219
0.00238684
0.0107549
0.00246587
0.0039465
0.00684154
0.00241793
0.0148428
0.0026972
0.00660328
0.00237212
0.00680452
0.0127181
0.0113679
0.00684774
0.0116234
0.00258084
0.00637345
0.00809161
0.00580305
0.00683669
0.00993803
0.00684276
0.00488494
0.00990923
0.00677152
0.00405278
0.00088307
0.0102864
0.0140203
0.0068215
0.00679394
0.0130775
0.00985675
0.00165225
0.00529274
0.00659938
0.0100913
0.00708872
0.00213864
0.00668956
0.00188758
0.00671422
0.006889
0.00739682
0.0068091
0.00591793
0.0116515
0.00679148
0.00661271
0.00683986
0.006687
0.00294498
0.0084582
0.00268806
0.0118319
0.00675219
0.00273428
0.00683514
0.00671447
0.00684756
0.006788
0.00596257
0.00675296
0.00253168
0.00676553
0.0049496
0.00748975
0.0017263
0.00688842
0.0178598
0.00178056
0.000614469
0.00232787
0.00251029
0.00232337
0.0027664
0.00429408
0.0157061
0.0166509
0.00377629
0.00208196
0.0140752
0.00682433
0.00205249
0.00243157
0.013486
0.00680543
0.0152147
0.00676466
0.00677997
0.0102772
0.00671115
0.00314064
0.00451527
0.00672878
0.00488464
0.00672754
0.00672121
0.0067691
0.00683264
0.000384551
0.00677565
0.00039048
0.0070782
0.00140314
0.0141574
0.0067923
0.00687413
0.00665733
0.00679487
0.00672238
0.00230541
0.00575226
0.00679989
0.00681832
0.0068081
0.00552302
0.0166956
0.00290496
0.0113403
0.000274085
0.0067381
0.00817655
0.00274475
0.00676814
0.00978696
0.00470937
0.0107118
0.0067303
0.0121714
0.00905778
0.00768773
0.00670381
0.00567736
0.0031041
0.00354908
0.00677141
0.00675981
0.0108628
0.0027435
0.0140088
0.00682746
0.00674353
0.0161993
0.00684541
0.00193302
0.00979707
0.0200474
0.00106708
0.00942626
0.00682364
0.00679576
0.00296982
0.00575741
0.0030895
0.00127376
0.00213835
0.00553024
0.00661765
0.0169062
0.00680595
0.00568053
0.0024139
0.00835199
0.00109467
0.00683089
0.00679154
0.00683723
0.011582
0.0107017
0.00670401
0.00682497
0.00682728
0.00236515
0.00671971
0.00681924
0.00668177
0.00248557
0.00128182
0.00415273
0.00481302
0.0067749
0.001943
0.00606991
0.00430026
0.00196709
0.00690095
0.00225489
0.00674953
0.00202715
0.00673343
0.00681199
0.00684161
0.00335207
0.00159456
0.00990927
0.00309553
0.013622
0.00673538
0.0067944
0.00685262
0.00702338
0.0198096
0.00675387
0.00255959
0.00297928
0.00771135
0.00680861
0.0198054
0.0062634
0.00856612
0.00110687
0.00979062
0.00182486
0.00224074
0.000534645
0.00890234
0.00939587
0.00368231
0.00682216
0.00129421
0.00671733
0.00658345
0.00248294
0.00683887
0.00882386
0.00298249
0.00301025
0.00879528
0.00114305
0.0149407
0.00672168
0.00376315
0.00610013
0.00679915
0.00483127
0.0148843
0.0128363
0.0154778
0.00671537
0.0027774
0.00643173
0.00489864
0.0109643
0.00260432
0.00679357
0.00608205
0.0083619
0.00186045
0.00814262
0.0107991
0.00544617
0.00674627
0.0036989
0.00490667
0.00232692
0.00278005
0.0111036
0.0116403
0.00157542
0.00221983
0.0067805
0.00591292
0.00678049
0.00373706
0.00358262
0.00815246
0.00901151
0.00266355
0.00135774
0.00508507
0.0108712
0.000447365
0.00680255
0.000640983
0.0104811
0.00155195
0.0066617
0.00677235
0.00680329
0.00312891
0.0068997
0.00789359
0.00682687
0.00678468
0.00679556
0.00577449
0.00138689
0.00683615
0.00461239
0.00116019
0.0098314
0.00334497
0.0145445
0.00673744
0.00712525
0.00304454
0.00683228
0.00140755
0.00750777
0.00680129
0.00676814
0.00108065
0.0105928
0.00670041
0.00671534
0.0155249
0.00680509
0.0128579
0.00671542
0.00635495
0.00680695
0.00226179
0.0161956
0.0107722
0.00497754
0.00119967
0.0129106
0.0101313
0.00249812
0.00887002
0.00530727
0.00673823
0.00563359
0.00681196
0.00672194
0.00680102
0.0114862
0.006781
0.000346906
0.00677233
0.00653801
0.00320783
0.00125725
0.00460085
0.00562128
0.00662404
0.00672379
0.00250623
0.00367341
0.0053307
0.00673464
0.00258144
0.011901
0.00685098
0.00676812
0.0101027
0.00242599
0.00270179
0.00149912
0.0156754
0.0193744
0.0029509
0.0063445
0.0051629
0.0139147
0.0112929
0.0198614
0.00264417
0.0067686
0.00152543
0.00674009
0.00673902
0.0165525
0.010075
0.00663997
0.00686219
0.00272705
0.00507332
0.004336
0.0045314
0.00678655
0.00257734
0.00628562
0.00677553
0.00505309
0.0114721
0.0110264
0.0197708
0.0100405
0.00375471
0.0123632
0.0115435
0.00242948
0.00678022
0.00678641
0.012794
0.00673959
0.000301387
0.00682254
0.00560635
0.00660552
0.00643164
0.0105579
0.0069964
0.00681916
0.00405694
0.00628123
0.00554786
0.00672112
0.00680335
0.005978
0.00447188
0.0085299
0.0161131
0.00472434
0.00165804
0.00672884
0.00248292
0.00685167
0.00140308
0.00666755
0.00564871
0.00682753
0.0068487
0.00123905
0.00552946
0.00236843
0.00675819
0.0022996
0.000651349
0.003157
0.0068026
0.00244613
0.00679598
0.0032995
0.00674599
0.0104615
0.00139813
0.00219452
0.00344688
0.00681546
0.00545771
0.00680463
0.0113767
0.00672076
0.00683158
0.00669256
0.0113751
0.00317792
0.00634681
0.00581538
0.00680079
0.00182586
0.0112899
0.00367325
0.0024146
0.00677692
0.00625547
0.00677864
0.00683388
0.00112035
0.011691
0.00681153
0.00539973
0.00208083
0.00451246
0.00680693
0.00588447
0.01105
0.00558763
0.00603105
5.96252e-05
0.010451
0.0068134
0.00682092
0.00674747
0.012416
0.00148644
0.00199126
0.00162371
0.00721205
0.00458569
0.00964193
0.00902106
0.00684812
0.00730545
0.00223863
0.00681678
0.0057945
0.00680248
0.00684009
0.00674437
0.0011402
0.00544949
0.00120546
0.00614794
0.00437301
0.00254157
0.0124684
4.72717e-05
0.0104345
0.0126796
0.00561886
0.00148071
0.00146963
0.00587785
0.00112221
0.0126235
0.00674199
0.00582489
0.00676407
0.00531262
0.00464365
0.00674616
0.0164841
0.0012765
0.00256517
0.00610276
0.00672844
0.00680255
0.00150323
0.00272852
0.0159329
0.00268491
0.00131069
0.00142639
0.00164834
0.0110276
0.00372709
0.0112668
0.00680825
0.0067921
0.000362046
0.00813839
0.00475837
0.00418057
0.00686302
0.00336143
0.0124119
0.00682902
0.00265596
0.00671295
0.00225878
0.0025507
0.00502303
0.00467171
0.000184454
0.00485975
0.0101092
0.00222025
0.00673448
0.00242826
0.0124292
0.00532702
0.00365712
0.00209554
0.00669418
0.00685938
0.00677718
0.00553124
0.0115629
0.0094077
0.00395672
0.00353868
0.00400858
0.00386813
0.00167186
0.00681219
0.00679929
0.00675688
0.00978471
0.00673935
0.0102027
0.00433215
0.00312962
0.00126212
0.000511348
0.00396861
0.00505498
0.00229554
0.00674526
0.00656821
0.00422236
0.00212757
0.00360066
0.00671237
0.00675834
0.00155823
0.00283978
0.00135859
0.0107476
0.00364839
0.00674967
0.00158501
0.00649133
0.00270253
0.0087729
0.00671642
0.00253692
0.00684795
0.012592
0.00677337
0.0125436
0.0067492
0.00407234
0.00469437
0.00679816
0.00332236
0.00247652
0.00259219
0.00689486
0.0112442
0.00323321
0.00278389
0.00677999
0.00465212
0.00778722
0.00684927
0.00677323
0.0115665
0.00668468
0.00693745
0.00680632
0.00475546
0.00127665
0.00074131
0.0044923
0.00667888
0.00678057
0.0020621
0.0112887
0.00674155
0.00357647
0.00600824
0.00970464
0.000571316
0.00501185
0.00587325
0.00252547
0.00061096
0.00673274
0.0132329
0.0130613
0.00417526
0.00760651
0.0118817
0.00670061
0.00528689
0.00677149
0.00166256
0.0096816
0.0115812
0.00685746
0.00473455
0.0103026
0.0146971
0.00432566
0.00670684
0.00681335
0.00842354
0.00471842
0.00200857
0.00683157
0.00685177
0.00671373
0.00684055
0.011294
0.000265824
0.00311251
0.00845521
0.00363597
0.00672865
0.00674712
0.00677586
0.0059455
0.0123179
0.000373447
0.00610975
0.00694776
0.017622
0.0012018
0.00225876
0.00190753
0.00316201
0.0112417
0.00237096
0.00559458
0.00673908
0.00682734
0.00259232
0.00802697
0.0135154
0.00983411
0.00153581
0.00633206
0.00636393
0.00354021
0.00679748
0.00409385
0.00868445
0.0051724
0.00456609
0.00387827
0.00678402
0.00674932
0.00672151
0.00676095
0.00323711
0.00313903
0.0035862
0.00391017
0.0109634
0.00458315
0.0123178
0.00558332
0.00279219
0.00801434
0.00343117
0.0170112
0.00929331
0.00671149
0.00592486
0.00299616
0.00245418
0.00184846
0.00351139
0.00459076
0.0116485
0.00688866
0.00325106
0.00683927
0.00771851
0.011576
0.00389298
0.00678494
0.0134449
0.00044331
0.00148889
0.00560745
0.00152327
0.00589678
0.00679193
0.00748244
0.0112455
0.00109955
0.00233156
0.011252
0.0117172
0.00677586
0.00674909
0.00377962
0.0113178
0.0110768
0.00673337
0.00509818
0.00560308
0.00679474
0.0068522
0.00264537
0.000419636
0.00587398
0.00432597
0.0066822
0.00572024
0.00674334
0.00166587
0.00681738
0.00619977
0.00648507
0.0185814
0.0063045
0.00674328
0.00157262
0.00281533
0.0109577
0.00272512
0.00942382
0.00679527
0.00680864
0.00675288
0.00217742
0.00262649
0.00262038
0.00468411
0.00878177
0.00352162
0.00153515
0.00221023
0.010194
0.00682934
0.00780767
0.0104575
0.00257742
0.00959371
0.00200312
0.00531481
0.00683384
0.00128066
0.00683659
0.0161289
0.0021373
0.00233702
0.0113965
0.00657361
0.0019435
0.00675582
0.00573368
0.00675885
0.00671268
0.0115153
0.0010539
0.00731349
0.00337884
0.00190468
0.002967
0.00674075
0.0134191
0.00480059
0.00677416
0.00135067
0.00677456
0.00231179
0.0067877
0.00754711
0.00683859
0.0113718
0.0136881
0.00478779
0.00263748
0.00144204
0.0126009
0.00684218
0.0165639
0.0155122
0.00673332
0.00675909
0.00669518
0.00601659
0.00210844
0.00676653
0.00550399
0.00223809
0.0112493
0.00354732
0.00685285
0.00683264
0.00676286
0.00571439
0.00681513
0.00681498
0.000493474
0.0030991
0.0189954
0.0107636
0.00181599
0.00643756
0.00281091
0.00630916
0.0055515
0.00540203
0.00678363
0.00315614
0.00458947
0.0127362
0.00106634
0.0066665
0.00570219
0.0117534
0.00576556
0.010435
0.00976792
0.00673231
0.00350417
0.00671983
0.00635811
0.00880327
0.0115407
0.00678394
0.00419949
0.00656208
0.00679178
0.00148909
0.00685337
0.00596306
0.00252588
0.0106292
0.00671788
0.00336807
0.00321659
0.00956167
0.00673136
0.0086261
0.00526756
0.00550882
0.0142833
0.00461534
0.00919469
0.00666078
0.00920447
0.00521245
0.00427346
0.00673503
0.00673001
0.0112486
0.00498512
0.00634204
0.00680817
0.0117063
0.00683331
0.00122492
0.00680663
0.00663631
0.00459252
0.00671418
0.00901311
0.00411458
0.01516
0.0109043
0.00858073
0.0017369
0.002145
0.0088073
0.0112111
0.00684147
0.0014906
0.0067592
0.00668677
0.00674033
0.00630356
0.00681988
0.00726204
0.00545816
0.0101733
0.00455929
0.00523863
0.0081296
0.00214325
0.00670955
0.00153761
0.00111156
0.00906688
0.00682419
0.00675481
0.00685672
0.0169096
0.00683129
0.013977
0.00732642
0.00238674
0.00161097
0.00682327
0.0143107
0.00683182
0.0125644
0.00669992
0.00308814
0.00224803
0.00679592
0.00747771
0.00826252
0.00670981
0.00185346
0.00504926
0.0055092
0.00598603
0.00230346
0.00934647
0.00683735
0.00164598
0.0106241
0.0067851
0.00641685
0.00658304
0.00214809
0.0023989
0.00526197
0.00806013
0.00680653
0.00777786
0.00518849
0.00228691
0.0107561
0.00730177
0.00472659
0.00894917
0.000319573
0.00678642
0.013971
0.00150887
0.00237731
0.00417937
0.011108
0.00671636
0.00246969
0.0070089
0.00108342
0.00671909
0.00481063
0.00806267
0.00225274
0.0100611
0.00565828
0.00430578
0.00239369
0.0108274
0.00227095
0.0115357
0.0151972
0.00731228
0.00685286
0.0105312
0.0057406
0.00929697
0.00673071
0.00663194
0.00684748
0.0116633
0.00594819
0.013491
0.0149642
0.0068386
0.00679707
0.00673128
0.0093641
0.00448496
0.0038333
0.00826803
0.00673587
0.00944782
0.0102816
0.00148475
0.0054641
0.00886907
0.00485819
0.00265589
0.00363808
0.00268524
0.00580583
0.00766643
0.00669602
0.00533219
0.00683249
0.00675808
0.0103023
0.00790933
0.00910503
0.00166817
0.0035671
0.00683484
0.00687764
0.00906316
0.00798051
0.00673663
0.00197465
0.011158
0.00675479
0.00682982
0.00868945
0.0115873
0.00666876
0.0067318
0.0044973
0.00673573
0.0174914
0.00626069
0.00683209
0.00567747
0.00131313
0.00959726
0.00444772
0.00975112
0.00681291
0.00635324
0.0105304
0.0106939
0.00574742
0.00221403
0.00671942
0.00239545
0.00667524
0.00670446
0.0012241
0.00683752
0.0141465
0.00510602
0.00681029
0.00641088
0.00693966
0.0156884
0.00637555
0.00675808
0.00690277
0.0107366
0.0133273
0.00331405
0.00683006
0.00673404
0.0143446
0.00683385
0.00683627
0.00309613
0.00675649
0.0105433
0.00425264
0.00684023
0.00474234
0.00677071
0.00685292
0.0102518
0.00585637
0.00257909
0.00627508
0.00366007
0.00682865
0.00671891
0.00680012
0.00684416
0.00683744
0.0069204
0.00138766
0.0109364
0.00665812
0.00172476
0.00653652
0.00759884
0.00680215
0.0067129
0.00338039
0.0103286
0.0068362
0.00159262
0.000107887
0.0031214
0.00667092
0.00233274
0.00679159
0.00558751
0.00674425
0.00679316
0.00682442
0.00682446
0.00545698
0.00655667
0.00278036
0.00219542
0.00273535
0.000904581
0.00992099
0.00241765
0.0079271
0.00628895
0.00174492
0.0102677
0.00909308
0.00167048
0.0148316
0.00631175
0.00681713
0.0193413
0.00676919
0.00434509
0.0100817
0.00637002
0.0168336
0.00149685
0.00676858
0.00651651
0.0068213
0.00603225
0.00680591
0.00665477
0.00766572
0.0100691
0.0100515
0.00682936
0.00672967
0.00243084
0.00822583
0.0105371
0.00110782
0.00127183
0.00673291
0.00212457
0.00809392
0.00455766
0.00651263
0.00683796
0.00679425
0.006611
0.00684832
0.00684308
0.00449503
0.0101146
0.00238826
0.00837422
0.00331133
0.00291122
0.00111911
0.00673036
0.00680627
0.00669935
0.00676346
0.00664714
0.00574721
0.00931884
0.00498632
0.0118437
0.00321512
0.00812714
0.00123299
0.0114349
0.0097794
0.00684849
0.00681935
0.00850875
0.00683676
0.00671384
0.00531014
0.0105388
0.00282338
0.00678054
0.00682012
0.00643668
0.00229205
0.00679248
0.00676354
0.00645652
0.000579209
0.00679779
0.00916417
0.00204624
0.0113809
0.00683392
5.35121e-05
0.00941079
0.00391515
0.00896202
0.0016868
0.00851132
0.0067829
0.00627331
0.00676499
0.00318884
0.00331707
0.00680409
0.00540934
0.00672712
0.00681927
0.00672862
0.0120496
0.00231715
0.00170037
0.00847721
0.00675769
0.002604
0.00581134
0.00149016
0.00681264
0.0066204
0.00684281
0.00335692
0.00683709
0.00682428
0.0125569
0.0101165
0.0118828
0.000716091
0.00085647
0.00752388
0.00198188
0.0118705
0.00152171
0.00677141
0.00680678
0.00668549
0.00685149
0.0092129
0.00997391
0.00680843
0.0042136
0.012791
0.00239018
0.00667655
0.00684821
0.010836
0.00846838
0.010093
0.00582935
0.0105131
0.0066887
0.000497319
0.00186425
0.0135982
0.00621964
0.0067399
0.00149773
0.0064862
0.0043753
0.0105568
0.00683919
0.00676111
0.00694838
0.01172
0.00198996
0.00277646
0.00321486
0.00149094
0.0117411
0.0123661
0.0105485
0.00167138
0.00940312
0.00682596
0.00631617
0.00242918
0.00563297
0.0136484
0.00819433
0.00686149
0.00121256
0.00148511
0.00684991
0.00922459
0.00673409
0.00149009
0.00546101
0.00672836
0.0122297
0.010247
0.012484
0.0107117
0.00239207
0.00566159
0.00683054
0.00920994
0.0067408
0.00681847
0.00232748
0.00401544
0.0103656
0.003693
0.006877
0.00424124
0.00682216
0.00869841
0.00665136
0.00162942
0.0141764
0.00671188
0.007615
0.00186034
0.00664787
0.00472032
0.000441322
0.00671883
0.00225216
0.0065102
0.0127048
0.00556699
0.0068085
0.00164135
0.00620694
0.00955035
0.010447
0.00252278
0.015567
0.00614763
0.00673664
0.0104868
0.00313659
0.0068479
0.00276562
0.00194076
0.00672463
0.00680688
0.00147618
0.00670763
0.00550474
0.000515197
0.00661639
0.00552494
0.001991
0.00144894
0.00683435
0.00976791
0.00290333
0.00850389
0.00673385
0.00679614
0.00253403
0.00371043
0.00810311
0.00684657
0.0119535
0.00683804
0.00145009
0.00686364
0.00672621
0.000839404
0.0016641
0.00803641
0.0171682
0.00993542
0.0100219
0.00668756
0.00116273
0.00107535
0.00476544
0.00679954
0.000558579
0.00295598
0.00756726
0.00164577
0.000979783
0.0105633
0.0102331
0.00190972
0.000488312
0.00671298
0.00243496
0.00200779
0.00673093
0.00225659
0.00675729
0.00578404
0.00831239
0.00191057
0.00673354
0.00676137
0.00551636
0.0067345
0.0118952
0.00676715
0.00677583
0.0115323
0.000727773
0.00505906
0.00184716
0.00685827
0.00102792
0.00611997
0.0104407
0.00691934
0.00276061
0.0104512
0.00662471
0.00675293
0.0032558
0.00819575
0.000375098
0.000500216
0.000289764
0.00515738
0.00679813
0.00673712
0.00617974
0.00303587
0.00509966
0.00151101
0.00304771
0.009342
0.00536689
0.00349513
0.00256118
0.00676329
0.00273607
0.00324048
0.00674584
0.00640607
0.00312147
0.00380427
0.00739117
0.0104146
0.00677135
0.00194417
0.00285329
0.0012426
0.0097324
0.0124635
0.0107213
0.00682566
0.00181965
0.0116754
0.00204143
0.00164662
0.00478307
0.0109847
0.00963565
0.0122498
0.00675276
0.00876325
0.00680483
0.00662691
0.00676408
0.00171668
0.0098547
0.00225874
0.0120729
0.00605013
0.00171928
0.00670504
0.00671272
0.00682551
0.00687987
0.00235226
0.0113309
0.0127217
0.0019454
0.0173757
0.00685023
0.00167211
0.00671576
0.0123109
0.00246862
0.0068326
0.00116188
0.00183982
0.00993632
0.00730892
0.00142227
0.0022356
0.00478987
0.00917281
0.000464392
0.00588313
0.0104742
0.00664545
0.00158531
0.00680589
0.00937361
0.00525664
0.00196552
0.0110539
0.000610487
0.0125347
0.00142045
0.00132333
0.00403603
0.00671435
0.00159066
0.00138921
0.00379891
0.00149474
0.00272894
0.00258601
0.0053777
0.00122811
0.00663674
0.00329663
0.00237233
0.0050609
0.00662906
0.0128164
0.00171282
0.0141269
0.00117662
0.00677392
0.00975746
0.00673103
0.00641296
0.00658262
0.00989943
0.00307978
0.0118729
0.00310015
0.0014682
0.00353759
0.00161607
0.01702
0.00145155
0.0143832
0.00693187
0.00198126
0.00681777
0.0104197
0.0132131
0.00691951
0.00681818
0.00343627
0.00310549
0.00541025
0.00206888
0.00202435
0.0068368
0.00491971
0.00411724
0.0026536
0.00119939
0.00236201
0.00672389
0.01636
0.00242494
0.00200227
0.0179966
0.00194697
0.0142272
0.00672024
0.00684388
0.00642651
0.00501944
0.00676883
0.00959095
0.0143642
0.00684498
0.00455459
0.0095176
0.000592811
0.00284021
0.0168056
0.00209075
0.000868661
0.00352676
0.00328967
0.00406014
0.00201089
0.00145644
0.00638672
0.000645534
0.00710695
0.00933093
0.00671469
0.000461705
0.000551452
0.0112268
0.00673396
0.00244786
0.00683461
0.00341425
0.00888711
0.00317074
0.00306942
0.00672902
0.00672051
0.000711709
0.00827358
0.00684947
0.00417646
0.00102609
0.00670958
0.00644068
0.0103048
0.00166084
0.00183231
0.00675299
0.00320044
0.00111743
0.00682208
0.00679869
0.00939877
0.00285519
0.00971552
0.00203452
0.00275489
0.00942106
0.0010467
0.0012272
0.00672765
0.0123414
0.00235001
0.00316663
0.0178422
0.00237204
0.0068512
0.00105914
0.00371946
0.00626638
0.00675667
0.0167464
0.00677491
0.00245369
0.00572382
0.0018759
0.00682152
0.000806507
0.00246814
0.00730505
0.0010036
0.00766236
0.00116226
0.0113529
0.00671303
0.00240641
0.0028933
0.00673073
0.00935394
0.00564348
0.00271517
0.0109333
0.00641146
0.00253709
0.00759005
0.00278616
0.00487845
0.0199709
0.00657075
0.017007
0.001229
0.00618191
0.0067648
0.00234692
0.00474896
0.00362552
0.015976
0.0122759
0.0120622
0.0121655
0.00671947
0.0109271
0.00672993
0.00415243
0.00683441
0.0138087
0.00106309
0.00224785
0.00677538
0.00107958
0.00303999
0.00632652
0.00681361
0.00133437
0.00246
0.00183818
0.00191526
0.0018222
0.00397754
0.000719493
0.00123025
0.00673265
0.00427469
0.000286494
0.00344673
0.00683442
0.00271006
0.00676642
0.00681186
0.00198923
0.0057894
0.00643828
0.00105347
0.00218966
0.0147174
0.00676686
0.0194724
0.00215093
0.0110357
0.004955
0.00530727
0.0105948
0.0052348
0.00503458
0.00325133
0.00490884
0.00656512
0.00684855
0.0102524
0.00245606
0.00446064
0.0058563
0.00430117
0.00681305
0.00557463
0.0126582
0.00683024
0.00213241
0.0109664
0.00168681
0.00256008
0.00530854
0.0106981
0.0126083
0.0121033
0.0187701
0.00146533
0.0021484
0.0067096
0.00269606
0.006813
0.00674148
0.00613291
0.0120786
0.00517007
0.00675805
0.00843676
0.00109195
0.00677353
0.00495378
0.0020441
0.00677407
0.00665501
0.01696
0.00261107
0.00204233
0.00272289
0.0067665
0.00160458
0.00245654
0.00390477
0.000564159
0.00106011
0.000977169
0.00167115
0.00862981
0.00651942
0.00482194
0.00125402
0.00134625
0.00119907
0.0167919
0.00219493
0.0059559
0.00206002
0.00272208
0.00321199
0.00140665
0.00677905
0.00673126
0.00679585
0.00409571
0.00968894
0.00679813
0.00181489
0.00638454
0.00331014
0.00642587
0.00136443
0.00346509
0.00128109
0.00683004
0.00635025
0.00527788
0.00681953
0.00198235
0.00357486
0.00681471
0.00422202
0.00560631
0.00680284
0.0139228
0.00331513
0.00841615
0.00370058
0.0118289
0.00239512
0.0015005
0.0050314
0.00220062
0.00646484
0.00268606
0.0191135
0.00766354
0.00773025
0.00154867
0.00230639
0.00673872
0.00866442
0.00365061
0.00786721
0.00676119
0.0173109
0.00137417
0.0186763
0.0184169
0.00675699
0.00672985
0.00678408
0.00225096
0.0080363