/*--------------------------------*- C++ -*----------------------------------*\
| =========                 |                                                 |
| \\      /  F ield         | OpenFOAM: The Open Source CFD Toolbox           |
|  \\    /   O peration     | Version:  v2012                                 |
|   \\  /    A nd           | Website:  www.openfoam.com                      |
|    \\/     M anipulation  |                                                 |
\*---------------------------------------------------------------------------*/
FoamFile
{
    version     2.0;
    format      ascii;
    class       volVectorField;
    location    "900";
    object      cellDisplacement;
}
// * * * * * * * * * * * * * * * * * * * * * * * * * * * * * * * * * * * * * //

dimensions      [0 1 0 0 0 0 0];


internalField   nonuniform List<vector> 
13917
(
(0 0.0799999 0)
(0 0.0726754 0)
(0 0.0799485 0)
(0 0.0710218 0)
(0 0.0615864 0)
(0 0.0723579 0)
(0 0.0773219 0)
(0 0.0747918 0)
(0 0.0773297 0)
(0 0.0799998 0)
(0 0.0747104 0)
(0 0.065389 0)
(0 0.00217653 0)
(0 0.076007 0)
(0 0.0694398 0)
(0 0.08 0)
(0 0.00165924 0)
(0 0.0748746 0)
(0 0.0798337 0)
(0 0.0799997 0)
(0 0.0757151 0)
(0 0.0560094 0)
(0 0.0791992 0)
(0 0.0555034 0)
(0 0.0734024 0)
(0 0.0755579 0)
(0 0.0786998 0)
(0 0.08 0)
(0 0.0752372 0)
(0 0.00109708 0)
(0 0.0799999 0)
(0 0.0796653 0)
(0 0.0704642 0)
(0 0.0799995 0)
(0 0.0375323 0)
(0 0.0746625 0)
(0 0.0717747 0)
(0 0.00247414 0)
(0 0.0774258 0)
(0 0.0773749 0)
(0 0.000502957 0)
(0 0.0258686 0)
(0 0.0762616 0)
(0 0.0798463 0)
(0 0.0798362 0)
(0 0.0796711 0)
(0 0.0756032 0)
(0 0.0799871 0)
(0 0.0729813 0)
(0 0.0379437 0)
(0 0.0647872 0)
(0 0.0796268 0)
(0 0.08 0)
(0 0.0617949 0)
(0 0.0633906 0)
(0 0.0796431 0)
(0 0.08 0)
(0 0.0791626 0)
(0 0.0252199 0)
(0 0.079652 0)
(0 0.0798772 0)
(0 0.042424 0)
(0 0.000169739 0)
(0 0.0731368 0)
(0 0.0799859 0)
(0 0.00166441 0)
(0 0.0751257 0)
(0 0.0744426 0)
(0 0.0749429 0)
(0 0.08 0)
(0 0.0799786 0)
(0 0.0799997 0)
(0 0.0654473 0)
(0 0.024945 0)
(0 0.0759542 0)
(0 0.0733694 0)
(0 0.0610677 0)
(0 0.0242976 0)
(0 0.0731333 0)
(0 0.0708528 0)
(0 0.0639724 0)
(0 0.00193325 0)
(0 0.0648385 0)
(0 0.0799849 0)
(0 0.0212252 0)
(0 0.0762882 0)
(0 0.0796409 0)
(0 0.0109263 0)
(0 0.0772181 0)
(0 0.0019833 0)
(0 0.0032276 0)
(0 0.0764471 0)
(0 0.0727352 0)
(0 0.0328413 0)
(0 0.0664212 0)
(0 0.0753202 0)
(0 0.0781838 0)
(0 0.00270239 0)
(0 0.0122959 0)
(0 0.0782078 0)
(0 0.000482736 0)
(0 0.000587442 0)
(0 0.0645875 0)
(0 0.00493637 0)
(0 0.0605067 0)
(0 0.0799901 0)
(0 0.0799952 0)
(0 0.0420078 0)
(0 0.0261316 0)
(0 0.0787225 0)
(0 0.0141427 0)
(0 0.0799993 0)
(0 0.0754335 0)
(0 0.079988 0)
(0 0.0799853 0)
(0 0.073619 0)
(0 0.0798184 0)
(0 0.00203125 0)
(0 0.0799279 0)
(0 0.0621518 0)
(0 0.002401 0)
(0 0.0239936 0)
(0 0.0752046 0)
(0 0.079693 0)
(0 0.08 0)
(0 0.079987 0)
(0 0.0728545 0)
(0 0.0760615 0)
(0 0.0401529 0)
(0 0.0797127 0)
(0 0.0787229 0)
(0 0.0792656 0)
(0 0.0799974 0)
(0 0.0734876 0)
(0 0.079749 0)
(0 0.0786414 0)
(0 0.0798321 0)
(0 0.0799999 0)
(0 0.075528 0)
(0 0.00133717 0)
(0 0.0658479 0)
(0 0.0239967 0)
(0 0.0799892 0)
(0 0.0460323 0)
(0 0.0632911 0)
(0 0.026656 0)
(0 0.0799791 0)
(0 0.0535982 0)
(0 0.0799907 0)
(0 0.0625764 0)
(0 0.0769551 0)
(0 0.000520998 0)
(0 0.0625032 0)
(0 0.0623441 0)
(0 0.0782216 0)
(0 0.0554124 0)
(0 0.0056705 0)
(0 0.079998 0)
(0 0.00097921 0)
(0 0.00166405 0)
(0 0.037137 0)
(0 0.079967 0)
(0 0.0720418 0)
(0 0.0656261 0)
(0 0.0799512 0)
(0 0.078282 0)
(0 0.08 0)
(0 0.0799572 0)
(0 0.000226787 0)
(0 0.0756213 0)
(0 0.0562838 0)
(0 0.0799972 0)
(0 0.0772807 0)
(0 0.0798586 0)
(0 0.0792186 0)
(0 0.000832226 0)
(0 0.0711008 0)
(0 0.079636 0)
(0 0.0786478 0)
(0 0.0722549 0)
(0 0.0760637 0)
(0 0.0556576 0)
(0 0.0646674 0)
(0 0.0798145 0)
(0 0.07993 0)
(0 0.0792329 0)
(0 0.0640887 0)
(0 0.0798049 0)
(0 0.00135621 0)
(0 0.0762232 0)
(0 0.0791907 0)
(0 0.0798179 0)
(0 0.0797844 0)
(0 0.0799999 0)
(0 0.0332655 0)
(0 0.08 0)
(0 0.0760342 0)
(0 0.0799968 0)
(0 0.0367807 0)
(0 0.0550324 0)
(0 0.0753164 0)
(0 0.08 0)
(0 0.0799999 0)
(0 0.0702812 0)
(0 0.0789073 0)
(0 0.074069 0)
(0 0.0771163 0)
(0 0.0243585 0)
(0 0.0796482 0)
(0 0.0637817 0)
(0 0.0317011 0)
(0 0.0618742 0)
(0 0.0621508 0)
(0 0.0799886 0)
(0 0.0797336 0)
(0 0.0756725 0)
(0 0.0799881 0)
(0 0.00629196 0)
(0 0.0136185 0)
(0 0.0134175 0)
(0 0.079964 0)
(0 0.0797959 0)
(0 0.079808 0)
(0 0.0271583 0)
(0 0.000114734 0)
(0 0.0786545 0)
(0 0.08 0)
(0 0.0123998 0)
(0 0.0119155 0)
(0 0.000466237 0)
(0 0.0138388 0)
(0 0.0136318 0)
(0 0.0799998 0)
(0 0.0799849 0)
(0 0.0597452 0)
(0 0.000483859 0)
(0 0.079459 0)
(0 0.0799998 0)
(0 0.00130734 0)
(0 0.025263 0)
(0 0.078857 0)
(0 0.0799898 0)
(0 0.0798107 0)
(0 0.0799901 0)
(0 0.0793852 0)
(0 0.0465135 0)
(0 0.0799555 0)
(0 0.079502 0)
(0 0.0753549 0)
(0 0.0796709 0)
(0 0.0700178 0)
(0 0.0799875 0)
(0 0.0628924 0)
(0 0.0782837 0)
(0 0.0791525 0)
(0 0.0600203 0)
(0 0.000220963 0)
(0 0.0731341 0)
(0 0.0588233 0)
(0 0.0342689 0)
(0 0.0799999 0)
(0 0.0742571 0)
(0 0.0258037 0)
(0 0.0116604 0)
(0 0.0561516 0)
(0 0.0119259 0)
(0 0.0630056 0)
(0 0.00405656 0)
(0 0.0785597 0)
(0 0.0262166 0)
(0 0.0799999 0)
(0 0.0799936 0)
(0 0.0589408 0)
(0 0.0588831 0)
(0 0.0796477 0)
(0 0.0108001 0)
(0 0.0780981 0)
(0 0.0799998 0)
(0 0.0109853 0)
(0 0.0799999 0)
(0 0.0334696 0)
(0 0.0799617 0)
(0 0.000659446 0)
(0 0.0683994 0)
(0 0.0605254 0)
(0 0.0445542 0)
(0 0.0798628 0)
(0 0.00396527 0)
(0 0.07832 0)
(0 0.0766108 0)
(0 0.0741964 0)
(0 0.0271545 0)
(0 0.0789233 0)
(0 0.08 0)
(0 0.00180047 0)
(0 0.0792499 0)
(0 0.0598933 0)
(0 0.073612 0)
(0 0.0609975 0)
(0 0.073181 0)
(0 0.0329575 0)
(0 0.00487327 0)
(0 0.0795894 0)
(0 0.0522205 0)
(0 0.078205 0)
(0 0.0729503 0)
(0 0.0234864 0)
(0 0.0799977 0)
(0 0.08 0)
(0 0.0376613 0)
(0 0.00921809 0)
(0 0.0737412 0)
(0 0.0620803 0)
(0 0.0799 0)
(0 0.0799958 0)
(0 0.0798592 0)
(0 0.00103497 0)
(0 0.0792464 0)
(0 0.0582041 0)
(0 0.0799825 0)
(0 0.0625016 0)
(0 0.0799476 0)
(0 0.00357976 0)
(0 0.0690273 0)
(0 0.0787626 0)
(0 0.0564445 0)
(0 0.0728608 0)
(0 0.0798061 0)
(0 0.00146473 0)
(0 0.0799969 0)
(0 0.0170049 0)
(0 0.0792829 0)
(0 0.0105237 0)
(0 0.0799998 0)
(0 0.0209684 0)
(0 0.0781285 0)
(0 0.074325 0)
(0 0.000767335 0)
(0 0.00199214 0)
(0 0.0796861 0)
(0 0.0799874 0)
(0 0.0661376 0)
(0 0.0561036 0)
(0 0.079999 0)
(0 0.0799883 0)
(0 0.0798945 0)
(0 0.0758284 0)
(0 0.010681 0)
(0 0.0604929 0)
(0 0.0799904 0)
(0 0.0792837 0)
(0 0.0109312 0)
(0 0.0605258 0)
(0 0.0633714 0)
(0 0.0769029 0)
(0 0.0782029 0)
(0 0.0797303 0)
(0 0.0791443 0)
(0 0.077996 0)
(0 0.0792458 0)
(0 0.0799996 0)
(0 0.0410906 0)
(0 0.0663326 0)
(0 0.0618223 0)
(0 0.0799073 0)
(0 0.00116198 0)
(0 0.0799999 0)
(0 0.079221 0)
(0 0.0134659 0)
(0 0.06398 0)
(0 0.0792517 0)
(0 0.00949036 0)
(0 0.072172 0)
(0 0.0242137 0)
(0 0.0798175 0)
(0 0.0796667 0)
(0 0.0744758 0)
(0 0.059762 0)
(0 0.0799557 0)
(0 0.010628 0)
(0 0.0799454 0)
(0 0.0798 0)
(0 0.02392 0)
(0 0.0724477 0)
(0 0.0612785 0)
(0 0.0120786 0)
(0 0.0247076 0)
(0 0.0799994 0)
(0 0.0120022 0)
(0 0.0718082 0)
(0 0.0787474 0)
(0 0.0778128 0)
(0 0.0692261 0)
(0 0.0799372 0)
(0 0.0799616 0)
(0 0.071305 0)
(0 0.0798636 0)
(0 0.0603504 0)
(0 0.0777443 0)
(0 0.0799429 0)
(0 0.0150756 0)
(0 0.0773495 0)
(0 0.0730559 0)
(0 0.0437396 0)
(0 0.0252144 0)
(0 0.0424173 0)
(0 0.0798348 0)
(0 0.0783668 0)
(0 0.065235 0)
(0 0.0426625 0)
(0 0.0541096 0)
(0 0.0790997 0)
(0 0.0737757 0)
(0 0.0105143 0)
(0 0.000259582 0)
(0 0.0798923 0)
(0 0.079191 0)
(0 0.0456716 0)
(0 0.0715142 0)
(0 0.0798274 0)
(0 0.077887 0)
(0 0.00160418 0)
(0 0.0798486 0)
(0 0.0799795 0)
(0 0.0168888 0)
(0 0.0104774 0)
(0 0.074947 0)
(0 0.0237426 0)
(0 0.0107167 0)
(0 0.0602339 0)
(0 0.0106958 0)
(0 0.0164831 0)
(0 0.0799671 0)
(0 0.0610869 0)
(0 0.0776691 0)
(0 0.0799999 0)
(0 0.0792025 0)
(0 0.0327435 0)
(0 0.0616978 0)
(0 0.0799427 0)
(0 0.0752143 0)
(0 0.08 0)
(0 0.0105489 0)
(0 0.042692 0)
(0 0.0110009 0)
(0 0.013994 0)
(0 0.0713908 0)
(0 0.0613038 0)
(0 0.0798083 0)
(0 0.0243677 0)
(0 0.0799905 0)
(0 0.0422297 0)
(0 0.0788214 0)
(0 0.0252225 0)
(0 0.0630816 0)
(0 0.0794038 0)
(0 0.0798853 0)
(0 0.0628595 0)
(0 0.078116 0)
(0 0.0341264 0)
(0 0.00959442 0)
(0 0.0532211 0)
(0 0.061614 0)
(0 0.0295762 0)
(0 0.00801765 0)
(0 0.0799978 0)
(0 0.0798758 0)
(0 0.028497 0)
(0 0.0789939 0)
(0 0.0798865 0)
(0 0.00879286 0)
(0 0.0793082 0)
(0 0.0797487 0)
(0 0.0799568 0)
(0 0.0776974 0)
(0 0.0799897 0)
(0 0.0131735 0)
(0 0.0132413 0)
(0 0.0616421 0)
(0 0.00139482 0)
(0 0.025689 0)
(0 0.0695397 0)
(0 0.0798861 0)
(0 0.00313651 0)
(0 0.0611716 0)
(0 0.0666266 0)
(0 0.0773055 0)
(0 0.0761081 0)
(0 0.0799142 0)
(0 0.079431 0)
(0 0.0283093 0)
(0 0.0591049 0)
(0 0.0750819 0)
(0 0.078237 0)
(0 0.0648467 0)
(0 0.0760255 0)
(0 0.0786714 0)
(0 0.0766579 0)
(0 0.0799291 0)
(0 0.0193979 0)
(0 0.0783011 0)
(0 0.0796582 0)
(0 0.0184293 0)
(0 0.0799991 0)
(0 0.00966003 0)
(0 0.0137199 0)
(0 0.0791589 0)
(0 0.0107639 0)
(0 0.00680254 0)
(0 0.0795506 0)
(0 0.0799983 0)
(0 0.07869 0)
(0 0.0358172 0)
(0 0.0725481 0)
(0 0.0295088 0)
(0 0.0798489 0)
(0 0.079599 0)
(0 0.0638345 0)
(0 0.0626973 0)
(0 0.0329077 0)
(0 0.0791045 0)
(0 0.0475838 0)
(0 0.0402222 0)
(0 0.00140479 0)
(0 0.0542507 0)
(0 0.0426347 0)
(0 0.0488562 0)
(0 0.0773214 0)
(0 0.00268176 0)
(0 0.0794363 0)
(0 0.0169811 0)
(0 0.0551999 0)
(0 0.0728371 0)
(0 0.0799978 0)
(0 0.00771877 0)
(0 0.0755354 0)
(0 0.034655 0)
(0 0.0787493 0)
(0 0.0794813 0)
(0 0.076434 0)
(0 0.0792028 0)
(0 0.0783342 0)
(0 0.0719757 0)
(0 0.0750009 0)
(0 0.0799962 0)
(0 0.0799711 0)
(0 0.0799999 0)
(0 0.0352175 0)
(0 0.0520606 0)
(0 0.0285086 0)
(0 0.054075 0)
(0 0.0799874 0)
(0 0.0110852 0)
(0 0.0626452 0)
(0 0.0760718 0)
(0 0.0799937 0)
(0 0.0781915 0)
(0 0.0762405 0)
(0 0.079999 0)
(0 0.0283531 0)
(0 0.0796668 0)
(0 0.00329027 0)
(0 0.0339536 0)
(0 0.0799947 0)
(0 0.0105475 0)
(0 0.0799527 0)
(0 0.000221152 0)
(0 0.00640742 0)
(0 0.0529567 0)
(0 0.0799083 0)
(0 0.0486479 0)
(0 0.0105176 0)
(0 0.0798524 0)
(0 0.0792596 0)
(0 0.0566052 0)
(0 0.0799767 0)
(0 0.0799974 0)
(0 0.0799561 0)
(0 0.00734027 0)
(0 0.08 0)
(0 0.00052909 0)
(0 0.0798465 0)
(0 0.0536769 0)
(0 0.0342599 0)
(0 0.010087 0)
(0 0.00052051 0)
(0 0.0785994 0)
(0 0.075859 0)
(0 0.01076 0)
(0 0.00322941 0)
(0 0.00429707 0)
(0 0.079973 0)
(0 0.0405569 0)
(0 0.0796057 0)
(0 0.0604048 0)
(0 0.0100087 0)
(0 0.00121488 0)
(0 0.0796677 0)
(0 0.0799423 0)
(0 0.0799988 0)
(0 0.079641 0)
(0 0.0773253 0)
(0 0.0799214 0)
(0 0.0799998 0)
(0 0.0253959 0)
(0 0.0798868 0)
(0 0.00422412 0)
(0 0.0798555 0)
(0 0.054128 0)
(0 0.0799561 0)
(0 0.0414681 0)
(0 0.0495866 0)
(0 0.0639855 0)
(0 0.0561656 0)
(0 0.0786416 0)
(0 0.0799861 0)
(0 0.00290528 0)
(0 0.0784791 0)
(0 0.0396309 0)
(0 0.000361377 0)
(0 0.0799994 0)
(0 0.0780703 0)
(0 0.0401571 0)
(0 0.0797499 0)
(0 0.0253733 0)
(0 0.0322022 0)
(0 0.000378058 0)
(0 0.0799991 0)
(0 0.0401512 0)
(0 0.0594223 0)
(0 0.0108515 0)
(0 0.0397125 0)
(0 0.0799005 0)
(0 0.000500152 0)
(0 0.0797617 0)
(0 0.00207196 0)
(0 0.020781 0)
(0 0.0798641 0)
(0 0.0796318 0)
(0 0.0631523 0)
(0 0.08 0)
(0 0.0799494 0)
(0 0.0730077 0)
(0 0.0796473 0)
(0 0.0272817 0)
(0 0.0696063 0)
(0 0.0799984 0)
(0 0.0799621 0)
(0 0.0748137 0)
(0 0.0719222 0)
(0 0.0500101 0)
(0 0.00244912 0)
(0 0.0435785 0)
(0 0.00100317 0)
(0 0.0795126 0)
(0 0.0751592 0)
(0 0.0799314 0)
(0 0.0787122 0)
(0 0.0735117 0)
(0 0.0796328 0)
(0 0.0527059 0)
(0 0.0781688 0)
(0 0.0797897 0)
(0 0.0799999 0)
(0 0.0333357 0)
(0 0.053716 0)
(0 0.000737289 0)
(0 0.0208112 0)
(0 0.0032412 0)
(0 0.00116874 0)
(0 0.0297019 0)
(0 0.0068113 0)
(0 0.08 0)
(0 0.0789387 0)
(0 0.0067694 0)
(0 0.0797866 0)
(0 0.00318882 0)
(0 0.0799945 0)
(0 0.0330883 0)
(0 0.0398676 0)
(0 0.0799987 0)
(0 0.079448 0)
(0 0.0220189 0)
(0 0.0666367 0)
(0 0.00947173 0)
(0 0.0377691 0)
(0 0.0707128 0)
(0 0.0778288 0)
(0 0.0438381 0)
(0 0.08 0)
(0 0.0770348 0)
(0 0.049565 0)
(0 0.0216917 0)
(0 0.0532535 0)
(0 0.0799973 0)
(0 0.0725805 0)
(0 0.0040007 0)
(0 0.0400738 0)
(0 0.0799998 0)
(0 0.0787617 0)
(0 0.0761847 0)
(0 0.08 0)
(0 0.0613245 0)
(0 0.0222223 0)
(0 0.038627 0)
(0 0.071255 0)
(0 0.0799887 0)
(0 0.0222379 0)
(0 0.0786335 0)
(0 0.0703508 0)
(0 0.0755692 0)
(0 0.0798649 0)
(0 0.057978 0)
(0 0.0797349 0)
(0 0.0789572 0)
(0 0.0657957 0)
(0 0.0709547 0)
(0 0.00403279 0)
(0 0.0777433 0)
(0 0.0586419 0)
(0 0.0799657 0)
(0 0.0737116 0)
(0 0.0324811 0)
(0 0.08 0)
(0 0.00183879 0)
(0 0.0617955 0)
(0 0.0716811 0)
(0 0.0723386 0)
(0 0.0762994 0)
(0 0.0799585 0)
(0 0.00233469 0)
(0 0.0796293 0)
(0 0.0799407 0)
(0 0.000984604 0)
(0 0.0550578 0)
(0 0.0738395 0)
(0 0.00501544 0)
(0 0.0476361 0)
(0 0.063327 0)
(0 0.0661927 0)
(0 0.0248419 0)
(0 0.0796454 0)
(0 0.0797588 0)
(0 0.0260803 0)
(0 0.0799703 0)
(0 0.0772427 0)
(0 0.0773599 0)
(0 0.0797733 0)
(0 0.0610115 0)
(0 0.0796621 0)
(0 0.0782772 0)
(0 0.0088166 0)
(0 0.0794529 0)
(0 0.0792437 0)
(0 0.0789067 0)
(0 0.0388932 0)
(0 0.0307889 0)
(0 0.0431128 0)
(0 0.08 0)
(0 0.0700241 0)
(0 0.0331168 0)
(0 0.0792419 0)
(0 0.0449294 0)
(0 0.03464 0)
(0 0.0796334 0)
(0 0.0782335 0)
(0 0.0658423 0)
(0 0.0780046 0)
(0 0.076806 0)
(0 0.0799908 0)
(0 0.0634792 0)
(0 0.0614336 0)
(0 0.0799344 0)
(0 0.0338593 0)
(0 0.0427952 0)
(0 0.00195764 0)
(0 0.00334538 0)
(0 0.066091 0)
(0 0.0737929 0)
(0 0.0766035 0)
(0 0.038296 0)
(0 0.00898879 0)
(0 0.0519066 0)
(0 0.05414 0)
(0 0.0718785 0)
(0 0.0776653 0)
(0 0.0107405 0)
(0 0.0796802 0)
(0 0.068852 0)
(0 0.0799424 0)
(0 0.0662445 0)
(0 0.00144589 0)
(0 0.0799968 0)
(0 0.071113 0)
(0 0.0799999 0)
(0 0.0756186 0)
(0 0.0667959 0)
(0 0.0581629 0)
(0 0.0328012 0)
(0 0.0540047 0)
(0 0.0799964 0)
(0 0.0776421 0)
(0 0.0732645 0)
(0 0.0777702 0)
(0 0.0464048 0)
(0 0.0789304 0)
(0 0.00035074 0)
(0 0.0405609 0)
(0 0.0460457 0)
(0 0.000486295 0)
(0 0.0799608 0)
(0 0.0757271 0)
(0 0.067159 0)
(0 0.0798013 0)
(0 0.0602369 0)
(0 0.0152624 0)
(0 0.00405467 0)
(0 0.0791802 0)
(0 0.0271523 0)
(0 0.0609229 0)
(0 0.0710911 0)
(0 0.0508691 0)
(0 0.0792585 0)
(0 0.0146425 0)
(0 0.0767021 0)
(0 0.0656331 0)
(0 0.0799999 0)
(0 0.0799999 0)
(0 0.0629657 0)
(0 0.079991 0)
(0 0.0782152 0)
(0 0.08 0)
(0 0.0616221 0)
(0 0.019836 0)
(0 0.0312007 0)
(0 0.0605625 0)
(0 0.0703829 0)
(0 0.0343281 0)
(0 0.0777497 0)
(0 0.0459488 0)
(0 0.0740121 0)
(0 0.0616683 0)
(0 0.0799732 0)
(0 0.0695614 0)
(0 0.0786053 0)
(0 0.0789804 0)
(0 0.0353557 0)
(0 0.0774824 0)
(0 0.0711487 0)
(0 0.0354685 0)
(0 0.0767196 0)
(0 0.0103998 0)
(0 0.0799973 0)
(0 0.0795466 0)
(0 0.00811784 0)
(0 0.0373864 0)
(0 0.047538 0)
(0 0.0559726 0)
(0 0.0527089 0)
(0 0.0799363 0)
(0 0.0210215 0)
(0 0.0781563 0)
(0 0.040393 0)
(0 0.0134376 0)
(0 0.0673782 0)
(0 0.0463003 0)
(0 0.0796529 0)
(0 0.0429815 0)
(0 0.0221907 0)
(0 0.0212774 0)
(0 0.079893 0)
(0 0.0701847 0)
(0 0.079692 0)
(0 0.0267056 0)
(0 0.0781147 0)
(0 0.0101851 0)
(0 0.0530839 0)
(0 0.0799998 0)
(0 0.00334281 0)
(0 0.0714051 0)
(0 0.0797722 0)
(0 0.0799999 0)
(0 0.0103016 0)
(0 0.0611195 0)
(0 0.0799415 0)
(0 0.0251638 0)
(0 0.0602747 0)
(0 0.0517907 0)
(0 0.0799768 0)
(0 0.0450631 0)
(0 0.0798657 0)
(0 0.0639188 0)
(0 0.0799989 0)
(0 0.068155 0)
(0 0.0795603 0)
(0 0.0430029 0)
(0 0.00749634 0)
(0 0.0121911 0)
(0 0.00600415 0)
(0 0.00158943 0)
(0 0.0799953 0)
(0 0.0698179 0)
(0 0.0272484 0)
(0 0.0628674 0)
(0 0.0248195 0)
(0 0.0308729 0)
(0 0.0795186 0)
(0 0.0709047 0)
(0 0.0799877 0)
(0 0.0775753 0)
(0 0.0797447 0)
(0 0.0796144 0)
(0 0.0753587 0)
(0 0.0799989 0)
(0 0.0666696 0)
(0 0.079487 0)
(0 0.0453996 0)
(0 0.0799999 0)
(0 0.0134839 0)
(0 0.0676767 0)
(0 0.0104258 0)
(0 0.0344363 0)
(0 0.0641297 0)
(0 0.0103035 0)
(0 0.019769 0)
(0 0.0271252 0)
(0 0.0528258 0)
(0 0.0773155 0)
(0 0.00826086 0)
(0 0.0694749 0)
(0 0.079687 0)
(0 0.0799639 0)
(0 0.0799504 0)
(0 0.0797486 0)
(0 0.0563856 0)
(0 0.0124784 0)
(0 0.0424592 0)
(0 0.0799353 0)
(0 0.047056 0)
(0 0.08 0)
(0 0.0129033 0)
(0 0.0209478 0)
(0 0.0117464 0)
(0 0.058539 0)
(0 0.0125351 0)
(0 0.0112324 0)
(0 0.0440331 0)
(0 0.078253 0)
(0 0.027367 0)
(0 0.0799989 0)
(0 0.0624609 0)
(0 0.0335033 0)
(0 0.0799957 0)
(0 0.0466182 0)
(0 0.0428654 0)
(0 0.0413539 0)
(0 0.0799988 0)
(0 0.0782655 0)
(0 0.00118251 0)
(0 0.0224401 0)
(0 0.0365134 0)
(0 0.0417354 0)
(0 0.0799746 0)
(0 0.0318594 0)
(0 0.077978 0)
(0 0.0718403 0)
(0 0.0672597 0)
(0 0.0330121 0)
(0 0.0251949 0)
(0 0.0755241 0)
(0 0.0602151 0)
(0 0.0717607 0)
(0 0.0799997 0)
(0 0.0447956 0)
(0 0.00448959 0)
(0 0.0605597 0)
(0 0.0490868 0)
(0 0.029708 0)
(0 0.0798147 0)
(0 0.0789048 0)
(0 0.0749574 0)
(0 0.0799997 0)
(0 0.0799984 0)
(0 0.0597314 0)
(0 0.0798312 0)
(0 0.0261354 0)
(0 0.0799998 0)
(0 0.0242698 0)
(0 0.0798201 0)
(0 0.0791522 0)
(0 0.0774445 0)
(0 0.0711161 0)
(0 0.0795961 0)
(0 0.0787178 0)
(0 0.079984 0)
(0 0.00966551 0)
(0 0.0548336 0)
(0 0.0105391 0)
(0 0.0460285 0)
(0 0.0789758 0)
(0 0.0650102 0)
(0 0.0633048 0)
(0 0.0791624 0)
(0 0.0799999 0)
(0 0.0249567 0)
(0 0.0779588 0)
(0 0.0799999 0)
(0 0.000248769 0)
(0 0.0111088 0)
(0 0.0630248 0)
(0 0.0799888 0)
(0 0.0700299 0)
(0 0.000439379 0)
(0 0.0771686 0)
(0 0.0609442 0)
(0 0.0405239 0)
(0 0.0658959 0)
(0 0.0711044 0)
(0 0.0596723 0)
(0 0.0499072 0)
(0 0.00994442 0)
(0 0.0230533 0)
(0 0.0465863 0)
(0 0.0442908 0)
(0 0.0799999 0)
(0 0.0671625 0)
(0 0.0690792 0)
(0 0.0116909 0)
(0 0.0799998 0)
(0 0.0117658 0)
(0 0.00981224 0)
(0 0.0752103 0)
(0 0.0698268 0)
(0 0.0720852 0)
(0 0.01006 0)
(0 0.0799376 0)
(0 0.0326654 0)
(0 0.0561494 0)
(0 0.07942 0)
(0 0.0447601 0)
(0 0.000802556 0)
(0 0.0796459 0)
(0 0.0798753 0)
(0 0.0796205 0)
(0 0.0798095 0)
(0 0.0226486 0)
(0 0.0798003 0)
(0 0.0799983 0)
(0 0.00240645 0)
(0 0.0798197 0)
(0 0.0114853 0)
(0 0.0790425 0)
(0 0.0794471 0)
(0 0.0459673 0)
(0 0.0758547 0)
(0 0.0343335 0)
(0 0.0759105 0)
(0 0.0737521 0)
(0 0.0694003 0)
(0 0.0799408 0)
(0 0.0783013 0)
(0 0.0793008 0)
(0 0.0798723 0)
(0 0.00368549 0)
(0 0.0798506 0)
(0 0.0716003 0)
(0 0.0593475 0)
(0 0.047579 0)
(0 0.022642 0)
(0 0.00829886 0)
(0 0.0237594 0)
(0 0.0713939 0)
(0 0.0799864 0)
(0 0.0285922 0)
(0 0.0696824 0)
(0 0.0758399 0)
(0 0.0668563 0)
(0 0.0597977 0)
(0 0.0790789 0)
(0 0.0797122 0)
(0 0.0565151 0)
(0 0.0361714 0)
(0 0.0766535 0)
(0 0.0117899 0)
(0 0.0722214 0)
(0 0.0799985 0)
(0 0.0672123 0)
(0 0.0460793 0)
(0 0.0785936 0)
(0 0.0335123 0)
(0 0.070014 0)
(0 0.0799979 0)
(0 0.0799999 0)
(0 0.064718 0)
(0 0.0789669 0)
(0 0.0727129 0)
(0 0.08 0)
(0 0.0779433 0)
(0 0.0760108 0)
(0 0.0799747 0)
(0 0.0392911 0)
(0 0.0795196 0)
(0 0.0799629 0)
(0 0.0799348 0)
(0 0.0483934 0)
(0 0.0716055 0)
(0 0.0160215 0)
(0 0.0543512 0)
(0 0.00351298 0)
(0 0.0605624 0)
(0 0.055852 0)
(0 0.0799668 0)
(0 0.00329894 0)
(0 0.0789129 0)
(0 0.0155163 0)
(0 0.0795909 0)
(0 0.0799515 0)
(0 0.0708125 0)
(0 0.0798395 0)
(0 0.078007 0)
(0 0.0478019 0)
(0 0.0797583 0)
(0 0.0709326 0)
(0 0.0701659 0)
(0 0.0484162 0)
(0 0.0799998 0)
(0 0.079615 0)
(0 0.0799999 0)
(0 0.0755868 0)
(0 0.079935 0)
(0 0.0792213 0)
(0 0.00971356 0)
(0 0.0633794 0)
(0 0.0783939 0)
(0 0.0100449 0)
(0 0.0471793 0)
(0 0.0795599 0)
(0 0.0485457 0)
(0 0.0739216 0)
(0 0.0756942 0)
(0 0.0708369 0)
(0 0.0702461 0)
(0 0.079459 0)
(0 0.07952 0)
(0 0.0385407 0)
(0 0.0794982 0)
(0 0.0676166 0)
(0 0.0607762 0)
(0 0.0411179 0)
(0 0.0262429 0)
(0 0.079984 0)
(0 0.0799125 0)
(0 0.0304731 0)
(0 0.0785118 0)
(0 0.00898499 0)
(0 0.0607011 0)
(0 0.08 0)
(0 0.0624402 0)
(0 0.0130839 0)
(0 0.0159627 0)
(0 0.0489342 0)
(0 0.00269584 0)
(0 0.0708625 0)
(0 0.0799848 0)
(0 0.0538761 0)
(0 0.0760251 0)
(0 0.022265 0)
(0 0.00926225 0)
(0 0.0797308 0)
(0 0.0799861 0)
(0 0.0799252 0)
(0 0.0671802 0)
(0 0.00672627 0)
(0 0.0147151 0)
(0 0.0689808 0)
(0 0.0797236 0)
(0 0.0799966 0)
(0 0.00840368 0)
(0 0.0790491 0)
(0 0.0749395 0)
(0 0.0793712 0)
(0 0.0756497 0)
(0 0.00870649 0)
(0 0.0734672 0)
(0 0.079841 0)
(0 0.034015 0)
(0 0.0777687 0)
(0 0.00899686 0)
(0 0.0270328 0)
(0 0.0662148 0)
(0 0.0799984 0)
(0 0.079042 0)
(0 0.0218611 0)
(0 0.0799587 0)
(0 0.0794904 0)
(0 0.0380583 0)
(0 0.0796135 0)
(0 0.0042638 0)
(0 0.0176744 0)
(0 0.0798953 0)
(0 0.0500182 0)
(0 0.0339035 0)
(0 0.0644347 0)
(0 0.0797853 0)
(0 0.0766817 0)
(0 0.0704501 0)
(0 0.0142117 0)
(0 0.0423582 0)
(0 0.0315456 0)
(0 0.0454051 0)
(0 0.0774466 0)
(0 0.0782059 0)
(0 0.0799999 0)
(0 0.0768564 0)
(0 0.0765528 0)
(0 0.0785279 0)
(0 0.0791603 0)
(0 0.0349598 0)
(0 0.0759828 0)
(0 0.0797847 0)
(0 0.0799578 0)
(0 0.0799925 0)
(0 0.0679882 0)
(0 0.0139168 0)
(0 0.0799999 0)
(0 0.0116541 0)
(0 0.0118352 0)
(0 0.0729547 0)
(0 0.0776281 0)
(0 0.0656797 0)
(0 0.0117441 0)
(0 0.0799681 0)
(0 0.076451 0)
(0 0.0670831 0)
(0 0.0462598 0)
(0 0.0794785 0)
(0 0.0799627 0)
(0 0.0799998 0)
(0 0.0514572 0)
(0 0.0548343 0)
(0 0.0718949 0)
(0 0.00160167 0)
(0 0.0173545 0)
(0 0.0789873 0)
(0 0.0490246 0)
(0 0.0755026 0)
(0 0.0784695 0)
(0 0.0700505 0)
(0 0.0799852 0)
(0 0.0337072 0)
(0 0.0643727 0)
(0 0.07027 0)
(0 0.0133249 0)
(0 0.0799564 0)
(0 0.0357946 0)
(0 0.0304999 0)
(0 0.0792188 0)
(0 0.0795693 0)
(0 0.0794262 0)
(0 0.0799481 0)
(0 0.0284601 0)
(0 0.0781124 0)
(0 0.0348917 0)
(0 0.0368477 0)
(0 0.0601928 0)
(0 0.00858034 0)
(0 0.0621136 0)
(0 0.0799509 0)
(0 0.0618349 0)
(0 0.0794231 0)
(0 0.0470446 0)
(0 0.0259797 0)
(0 0.0617443 0)
(0 0.00856205 0)
(0 0.0414263 0)
(0 0.0799998 0)
(0 0.00886349 0)
(0 0.0732694 0)
(0 0.0796608 0)
(0 0.00695753 0)
(0 0.0794129 0)
(0 0.0784799 0)
(0 0.078182 0)
(0 0.0591177 0)
(0 0.0411755 0)
(0 0.0330846 0)
(0 0.0268624 0)
(0 0.00793955 0)
(0 0.0724471 0)
(0 0.0314173 0)
(0 0.00532758 0)
(0 0.0373782 0)
(0 0.0136399 0)
(0 0.0755076 0)
(0 0.0448992 0)
(0 0.0799878 0)
(0 0.0789768 0)
(0 0.0259173 0)
(0 0.0249079 0)
(0 0.0217601 0)
(0 0.0789112 0)
(0 0.0233973 0)
(0 0.0785103 0)
(0 0.0432828 0)
(0 0.000194249 0)
(0 0.0263643 0)
(0 0.079334 0)
(0 0.0674273 0)
(0 0.0799496 0)
(0 0.0155363 0)
(0 0.00851354 0)
(0 0.0747002 0)
(0 0.00780963 0)
(0 0.0227457 0)
(0 0.0799989 0)
(0 0.0583611 0)
(0 0.00528836 0)
(0 0.0790579 0)
(0 0.0795969 0)
(0 0.08 0)
(0 0.00869305 0)
(0 0.076121 0)
(0 0.0790887 0)
(0 0.023775 0)
(0 0.0189709 0)
(0 0.0799559 0)
(0 0.0467695 0)
(0 0.000778808 0)
(0 0.0794664 0)
(0 0.0192831 0)
(0 0.0799981 0)
(0 0.00899903 0)
(0 0.0391784 0)
(0 0.0539306 0)
(0 0.0195815 0)
(0 0.0799968 0)
(0 0.000849658 0)
(0 0.0143445 0)
(0 0.0797072 0)
(0 0.0300652 0)
(0 0.0335993 0)
(0 0.00954893 0)
(0 0.0180991 0)
(0 0.0792913 0)
(0 0.0648944 0)
(0 0.0584242 0)
(0 0.0175178 0)
(0 0.078872 0)
(0 0.0596981 0)
(0 0.0186652 0)
(0 0.0197674 0)
(0 0.0696048 0)
(0 0.0233602 0)
(0 0.0757475 0)
(0 0.0530005 0)
(0 0.0319388 0)
(0 0.0655104 0)
(0 0.0122187 0)
(0 0.06861 0)
(0 0.0588833 0)
(0 0.0754572 0)
(0 0.0216643 0)
(0 0.0796698 0)
(0 0.0546167 0)
(0 0.0733875 0)
(0 0.0292927 0)
(0 0.0616775 0)
(0 0.044269 0)
(0 0.00959291 0)
(0 0.076879 0)
(0 0.0676596 0)
(0 0.0769651 0)
(0 0.0794686 0)
(0 0.0133113 0)
(0 0.0799983 0)
(0 0.0799897 0)
(0 0.0797059 0)
(0 0.0799914 0)
(0 0.0554333 0)
(0 0.0580253 0)
(0 0.0784662 0)
(0 0.0797993 0)
(0 0.0139865 0)
(0 0.0799998 0)
(0 0.0248761 0)
(0 0.0798847 0)
(0 0.0604443 0)
(0 0.0754318 0)
(0 0.0796441 0)
(0 0.0767001 0)
(0 0.0792206 0)
(0 0.00428932 0)
(0 0.0793377 0)
(0 0.034719 0)
(0 0.0294199 0)
(0 0.0758696 0)
(0 0.0799977 0)
(0 0.0799992 0)
(0 0.0639149 0)
(0 0.0591837 0)
(0 0.0788165 0)
(0 0.00149353 0)
(0 0.0798201 0)
(0 0.00116776 0)
(0 0.0713955 0)
(0 0.0204805 0)
(0 0.000692275 0)
(0 0.0799998 0)
(0 0.0188709 0)
(0 0.0785918 0)
(0 0.0616241 0)
(0 0.0784359 0)
(0 0.0795348 0)
(0 0.0597223 0)
(0 0.030273 0)
(0 0.0799809 0)
(0 0.03564 0)
(0 0.0475712 0)
(0 0.0701182 0)
(0 0.0247813 0)
(0 0.0798103 0)
(0 0.0679234 0)
(0 0.077657 0)
(0 0.0799997 0)
(0 0.0457319 0)
(0 0.0768458 0)
(0 0.0648457 0)
(0 0.00087792 0)
(0 0.0789888 0)
(0 0.0298477 0)
(0 0.0281454 0)
(0 0.0775644 0)
(0 0.00112137 0)
(0 0.00438035 0)
(0 0.0760558 0)
(0 0.0582701 0)
(0 0.0798646 0)
(0 0.0698181 0)
(0 0.0268525 0)
(0 0.0387187 0)
(0 0.00744245 0)
(0 0.022642 0)
(0 0.044744 0)
(0 0.0797781 0)
(0 0.0623198 0)
(0 0.0502448 0)
(0 0.0325697 0)
(0 0.0375164 0)
(0 0.061587 0)
(0 0.0629632 0)
(0 0.0799878 0)
(0 0.00372548 0)
(0 0.0779498 0)
(0 0.0703927 0)
(0 0.0350513 0)
(0 0.0799619 0)
(0 0.0599947 0)
(0 0.00206417 0)
(0 0.0799999 0)
(0 0.0798021 0)
(0 0.0799987 0)
(0 0.0341678 0)
(0 0.0799933 0)
(0 0.0776443 0)
(0 0.057521 0)
(0 0.0799997 0)
(0 0.0597716 0)
(0 0.0676799 0)
(0 0.0799408 0)
(0 0.0674069 0)
(0 0.0743924 0)
(0 0.0799998 0)
(0 0.0732953 0)
(0 0.0795818 0)
(0 0.0608108 0)
(0 0.0799836 0)
(0 0.0482852 0)
(0 0.0453035 0)
(0 0.0355278 0)
(0 0.0799999 0)
(0 0.0492333 0)
(0 0.0118605 0)
(0 0.0574674 0)
(0 0.0545985 0)
(0 0.0337455 0)
(0 0.0130376 0)
(0 0.078337 0)
(0 0.0768624 0)
(0 0.0453162 0)
(0 0.0747919 0)
(0 0.0799961 0)
(0 0.0735341 0)
(0 0.0795488 0)
(0 0.0794032 0)
(0 0.0291091 0)
(0 0.0797407 0)
(0 0.0778225 0)
(0 0.069735 0)
(0 0.0799217 0)
(0 0.00782195 0)
(0 0.0797612 0)
(0 0.08 0)
(0 0.0344325 0)
(0 0.08 0)
(0 0.0268596 0)
(0 0.0799919 0)
(0 0.0797886 0)
(0 0.0729643 0)
(0 0.0604903 0)
(0 0.0454085 0)
(0 0.0621874 0)
(0 0.0434461 0)
(0 0.0726291 0)
(0 0.0256834 0)
(0 0.0590327 0)
(0 0.0799877 0)
(0 0.0790921 0)
(0 0.0799677 0)
(0 0.0494144 0)
(0 0.0764331 0)
(0 0.079998 0)
(0 0.0344417 0)
(0 0.0606844 0)
(0 0.0799832 0)
(0 0.022939 0)
(0 0.0426469 0)
(0 0.0799398 0)
(0 0.0797935 0)
(0 0.0795093 0)
(0 0.0612428 0)
(0 0.0799511 0)
(0 0.0768855 0)
(0 0.0667129 0)
(0 0.0799948 0)
(0 0.0799495 0)
(0 0.0480416 0)
(0 0.0190793 0)
(0 0.079543 0)
(0 0.0788424 0)
(0 0.0790985 0)
(0 0.0569877 0)
(0 0.077386 0)
(0 0.0789506 0)
(0 0.077901 0)
(0 0.0618586 0)
(0 0.0257827 0)
(0 0.0754604 0)
(0 0.0799997 0)
(0 0.0754533 0)
(0 0.0431236 0)
(0 0.0447559 0)
(0 0.0727422 0)
(0 0.0329943 0)
(0 0.0799979 0)
(0 0.0765161 0)
(0 0.0143096 0)
(0 0.0795397 0)
(0 0.0262226 0)
(0 0.0186135 0)
(0 0.0783907 0)
(0 0.0780039 0)
(0 0.0580197 0)
(0 0.079996 0)
(0 0.0312474 0)
(0 0.0799971 0)
(0 0.0304461 0)
(0 0.0799996 0)
(0 0.0799585 0)
(0 0.0799417 0)
(0 0.0094074 0)
(0 0.0750308 0)
(0 0.0735925 0)
(0 0.0769386 0)
(0 0.0793963 0)
(0 0.0796388 0)
(0 0.0799874 0)
(0 0.0777928 0)
(0 0.000374554 0)
(0 0.075314 0)
(0 0.0351823 0)
(0 0.079783 0)
(0 0.08 0)
(0 0.000883442 0)
(0 0.0164105 0)
(0 0.071108 0)
(0 0.0795331 0)
(0 0.0768114 0)
(0 0.0319614 0)
(0 0.078096 0)
(0 0.0794759 0)
(0 0.0259285 0)
(0 0.0257594 0)
(0 0.0707023 0)
(0 0.0799969 0)
(0 0.0675877 0)
(0 0.0285599 0)
(0 0.0799885 0)
(0 0.0775409 0)
(0 0.0704645 0)
(0 0.0799323 0)
(0 0.041067 0)
(0 0.0755389 0)
(0 0.0799961 0)
(0 0.00178395 0)
(0 0.0776029 0)
(0 0.0786694 0)
(0 0.0795525 0)
(0 0.0797698 0)
(0 0.0799928 0)
(0 0.060042 0)
(0 0.0720518 0)
(0 0.0776586 0)
(0 0.0193793 0)
(0 0.079895 0)
(0 0.0794381 0)
(0 0.079152 0)
(0 0.079872 0)
(0 0.0788957 0)
(0 0.0609209 0)
(0 0.0796038 0)
(0 0.0799904 0)
(0 0.0755805 0)
(0 0.0796905 0)
(0 0.000110745 0)
(0 0.0660388 0)
(0 0.0598978 0)
(0 0.0320282 0)
(0 0.0799645 0)
(0 0.077678 0)
(0 0.00848689 0)
(0 0.0731889 0)
(0 0.0799325 0)
(0 0.0397829 0)
(0 0.0489291 0)
(0 0.0799863 0)
(0 0.000963565 0)
(0 0.0622602 0)
(0 7.26174e-05 0)
(0 0.0670614 0)
(0 0.0792815 0)
(0 0.0486656 0)
(0 0.0799425 0)
(0 0.0779452 0)
(0 0.0793734 0)
(0 0.0705062 0)
(0 0.0790297 0)
(0 0.0663303 0)
(0 0.0714172 0)
(0 0.0752677 0)
(0 0.0579383 0)
(0 0.0676299 0)
(0 0.00796818 0)
(0 0.0304965 0)
(0 0.0799954 0)
(0 0.0798358 0)
(0 0.0745168 0)
(0 0.0799163 0)
(0 0.0502588 0)
(0 0.0626208 0)
(0 0.0737241 0)
(0 0.0259562 0)
(0 0.0268519 0)
(0 0.0783288 0)
(0 0.0759532 0)
(0 0.0799997 0)
(0 0.0793886 0)
(0 0.079842 0)
(0 0.061189 0)
(0 0.0797523 0)
(0 0.0451806 0)
(0 0.0799717 0)
(0 0.0174904 0)
(0 0.0798762 0)
(0 0.0796238 0)
(0 0.00982326 0)
(0 0.079491 0)
(0 0.0799999 0)
(0 0.0753521 0)
(0 0.00784028 0)
(0 0.0018388 0)
(0 0.0751641 0)
(0 0.079871 0)
(0 0.023665 0)
(0 0.0666813 0)
(0 0.00465872 0)
(0 0.00234927 0)
(0 0.0799444 0)
(0 0.00797844 0)
(0 0.0758843 0)
(0 0.0218554 0)
(0 0.00338665 0)
(0 0.0799312 0)
(0 0.0782121 0)
(0 0.064118 0)
(0 0.0797865 0)
(0 0.0724675 0)
(0 0.079997 0)
(0 0.0712115 0)
(0 0.00520968 0)
(0 0.0650594 0)
(0 0.0799977 0)
(0 0.0577701 0)
(0 0.0795526 0)
(0 0.0630458 0)
(0 0.0799884 0)
(0 0.0444494 0)
(0 0.0538135 0)
(0 0.0616457 0)
(0 0.079953 0)
(0 0.0407348 0)
(0 0.0279679 0)
(0 0.0147227 0)
(0 0.0799188 0)
(0 0.0799993 0)
(0 0.0795224 0)
(0 0.0414049 0)
(0 0.0676737 0)
(0 0.0286474 0)
(0 0.0799998 0)
(0 6.93264e-05 0)
(0 0.0799699 0)
(0 0.079545 0)
(0 0.0506189 0)
(0 0.0797094 0)
(0 0.0719971 0)
(0 0.00810379 0)
(0 0.0706961 0)
(0 0.0173828 0)
(0 0.0769332 0)
(0 0.0747054 0)
(0 0.0789471 0)
(0 0.0655195 0)
(0 0.0638852 0)
(0 0.0436678 0)
(0 0.0799982 0)
(0 0.008407 0)
(0 0.00782604 0)
(0 0.0799923 0)
(0 0.0702758 0)
(0 0.0342923 0)
(0 0.0756533 0)
(0 0.0388995 0)
(0 0.0334264 0)
(0 0.0526549 0)
(0 0.0754194 0)
(0 0.0768534 0)
(0 0.00713032 0)
(0 0.00639236 0)
(0 0.0774947 0)
(0 0.0658149 0)
(0 0.079571 0)
(0 0.0784462 0)
(0 0.00854029 0)
(0 0.00996337 0)
(0 0.00595335 0)
(0 0.048043 0)
(0 0.0721508 0)
(0 0.0793646 0)
(0 0.0799998 0)
(0 0.0799893 0)
(0 0.0342607 0)
(0 0.0239875 0)
(0 0.076971 0)
(0 0.0799726 0)
(0 0.0515766 0)
(0 0.0272643 0)
(0 0.0799933 0)
(0 0.0799862 0)
(0 0.00668759 0)
(0 0.0728897 0)
(0 0.0686183 0)
(0 0.0611774 0)
(0 0.0799953 0)
(0 0.0139921 0)
(0 0.0135447 0)
(0 0.0780864 0)
(0 0.0799509 0)
(0 0.0642121 0)
(0 0.0732425 0)
(0 0.0674449 0)
(0 0.0798808 0)
(0 0.0799502 0)
(0 0.0156014 0)
(0 0.0799545 0)
(0 0.0682285 0)
(0 0.0416891 0)
(0 0.0798725 0)
(0 0.0795266 0)
(0 0.0776298 0)
(0 0.0712639 0)
(0 0.0756931 0)
(0 0.06817 0)
(0 0.00666743 0)
(0 0.0725782 0)
(0 0.064846 0)
(0 0.0745908 0)
(0 0.076923 0)
(0 0.0323015 0)
(0 0.0756717 0)
(0 0.0799567 0)
(0 0.0794987 0)
(0 0.0226671 0)
(0 0.0793451 0)
(0 0.0797271 0)
(0 0.0780737 0)
(0 0.0323306 0)
(0 0.0608853 0)
(0 0.00825665 0)
(0 0.0799813 0)
(0 0.0729913 0)
(0 0.0442237 0)
(0 0.0797061 0)
(0 0.0796881 0)
(0 0.00726518 0)
(0 0.0799999 0)
(0 0.0753807 0)
(0 0.0591424 0)
(0 0.0796162 0)
(0 0.050576 0)
(0 0.0458122 0)
(0 0.0314213 0)
(0 0.00453235 0)
(0 0.0511326 0)
(0 0.0148967 0)
(0 0.0799842 0)
(0 0.00904703 0)
(0 0.0138353 0)
(0 0.0796178 0)