/*--------------------------------*- C++ -*----------------------------------*\
| =========                 |                                                 |
| \\      /  F ield         | OpenFOAM: The Open Source CFD Toolbox           |
|  \\    /   O peration     | Version:  v2012                                 |
|   \\  /    A nd           | Website:  www.openfoam.com                      |
|    \\/     M anipulation  |                                                 |
\*---------------------------------------------------------------------------*/
FoamFile
{
    version     2.0;
    format      ascii;
    class       volScalarField;
    location    "900";
    object      k_0;
}
// * * * * * * * * * * * * * * * * * * * * * * * * * * * * * * * * * * * * * //

dimensions      [0 2 -2 0 0 0 0];


internalField   nonuniform List<scalar> 
13917
(
0.00992888
0.000184927
0.000245396
0.00015111
0.000175687
0.000184008
0.000157964
0.000252456
0.000156916
0.00211059
0.000235701
0.00014951
0.000166346
0.0295299
0.000170227
0.0083107
0.000150114
0.000222658
0.000211291
0.00844314
0.00017555
0.000148481
0.000173273
0.00014844
0.000154755
0.000179709
0.043915
0.00175594
0.000196486
0.0001398
0.0011512
0.000189057
0.000151661
0.0169174
0.000148615
0.000292204
0.000159083
0.000162703
0.000158086
0.000174469
0.000149122
0.00015543
0.000154607
0.000209119
0.000208427
0.0161774
0.000173301
0.0110272
0.0120978
0.000148699
0.000149297
0.000219274
0.00524953
0.000149498
0.000150036
0.000217431
0.000132244
0.000173033
0.000154008
0.0179628
0.0300083
0.000169986
0.000143875
0.000154286
0.018782
0.000194309
0.000202512
0.000293505
0.000232459
0.00956707
0.0102478
0.0156571
0.000148242
0.000149699
0.000176386
0.000156758
0.000161674
0.000148779
0.000156109
0.000151938
0.000152901
0.000150617
0.000148063
0.00502461
0.000142132
0.000288602
0.000187701
0.00014631
0.000174418
0.000150121
0.000140891
0.000154957
0.00932204
0.000145858
0.000152813
0.000201853
0.0271977
0.000154192
0.000145425
0.00175118
0.00014598
0.000145004
0.000153211
0.000146984
0.000161218
0.000411562
0.0154949
0.000170031
0.000163117
0.0433608
0.000144865
0.0175421
0.000195436
0.0112202
0.0183
0.00015801
0.000208184
0.00014299
0.000237452
0.000146981
0.00015043
0.000144564
0.000209701
0.000202446
0.0106867
0.00880214
0.000153732
0.000178753
0.000144764
0.000203356
0.000164176
0.0184233
0.0201836
0.000157967
0.000195332
0.0394897
0.0358623
0.0113825
0.000183505
0.000162223
0.00953917
0.000146329
0.000256255
0.000143573
0.000147564
0.00021096
0.00943907
0.006087
0.00909661
0.000149804
0.00017211
0.00014436
0.000147278
0.000147033
0.0293385
0.000151448
0.000146305
0.0212929
0.000147802
0.000144762
0.000142348
0.0231715
0.00016495
0.00920155
0.0229665
0.0131193
0.00510387
0.0211409
0.000131254
0.000186614
0.000149176
0.0205275
0.000156885
0.0294893
0.000190347
0.000145522
0.000151052
0.000229688
0.000163524
0.000166217
0.000154409
0.000148544
0.000149351
0.000388051
0.00023898
0.0219994
0.000149162
0.000258927
0.00013991
0.000286031
0.000190583
0.000205031
0.000228823
0.0100189
0.000145909
0.0107896
0.000158892
0.0183639
0.000148294
0.000150291
0.000169905
0.00944139
0.0103306
0.000158261
0.0488877
0.000181672
0.00017211
0.00014634
0.000226209
0.000152891
0.000141653
0.000198158
0.00020148
0.0103403
0.000194238
0.00018206
0.0213858
0.00015497
0.000138083
0.000138034
0.0202732
0.000211476
0.00667031
0.000143685
0.000144458
0.0357852
0.0095357
0.000137079
0.000136877
0.000149056
0.00013856
0.000138513
0.0146494
0.0145692
0.000150342
0.000131573
0.000192842
0.0145668
0.000149299
0.000143663
0.0484633
0.000265748
0.000170135
0.0212088
0.00021014
0.000143647
0.0214198
0.000194636
0.000191604
0.000193015
0.000157437
0.0130401
0.000147245
0.00017137
0.000185435
0.00015096
0.000149334
0.000154102
0.000172545
0.000149064
0.0142126
0.0226677
0.000144217
0.000136695
0.000152367
0.000136719
0.000147266
0.000166924
0.0001655
0.000145632
0.0141649
0.0165639
0.000147315
0.000163818
0.0253424
0.000137719
0.000167744
0.0160847
0.000137852
0.0116578
0.000148151
0.0235467
0.000146093
0.0001664
0.000151409
0.000143231
0.000229044
0.000156709
0.0204934
0.000162542
0.0186854
0.000221603
0.0424811
0.0113521
0.000145545
0.000177346
0.000173693
0.000159027
0.000174608
0.000155802
0.00014647
0.000154497
0.000216473
0.000206968
0.000170612
0.00015542
0.000143569
0.02039
0.00826492
0.000144482
0.000297459
0.000159033
8.31646e-05
0.000218822
0.0170947
0.0288656
0.000191962
0.00950879
0.00016252
0.00372912
0.000283133
0.000244851
0.000165314
0.000169521
0.0451338
0.000150414
0.000187207
0.00020413
0.000149684
0.0204621
0.000142549
0.00017316
0.000140645
0.00489224
0.000139728
0.000168637
0.000182792
0.000192236
0.000149106
0.000193181
0.000286648
0.000152223
0.000150322
0.0188356
0.000279214
0.0275298
0.031246
0.000137417
0.000150324
0.000288157
0.00803368
0.000137576
0.000174874
0.000149416
0.000195167
0.000169382
0.000212835
0.000210665
0.000169658
0.00017216
0.0146917
0.000145035
0.000152234
0.00018016
0.000236209
0.000149625
0.00893445
0.000172119
0.00272916
0.000150357
0.000486345
0.000338081
0.00349427
0.000158095
0.00448707
0.0234273
0.000186519
0.000147657
0.0054545
0.000144957
0.0232659
0.000242657
0.000157994
0.00484874
0.0001534
0.00381032
0.000140537
0.00916995
0.00442185
0.000157301
0.0356917
0.000205475
0.000156201
0.0254758
0.000266411
0.000155869
0.000230712
0.000149802
0.000214259
0.000243124
0.00014278
0.000157465
0.000155162
0.000142986
0.000140499
0.00014518
0.037598
0.0118869
0.000151226
0.00014583
0.000147336
0.000175996
0.000161932
0.000138623
0.000131409
0.000217516
0.000463901
0.000143553
0.000156855
0.0302411
0.0207814
0.000198151
0.000214109
0.000433721
0.000144306
0.000138151
0.000172506
0.000140407
0.000138808
0.000150811
0.000138374
0.000143688
0.0194105
0.000150204
0.000175193
0.0154703
0.000176832
0.000141854
0.000147069
0.0251282
0.000170553
0.00929807
0.000139774
0.000144005
0.000146283
0.000139098
0.000158745
0.000154285
0.0307919
0.000211445
0.000236944
0.000143971
0.000165456
0.000243344
0.000152416
0.000208052
0.0279754
0.000149149
0.0229785
0.000142107
0.000143818
0.00014689
0.000153503
0.000141089
0.000151122
0.0209475
0.0287563
0.000140871
0.045138
0.000216029
0.000148106
0.000180402
0.000193564
0.0235956
0.000158389
0.000250626
0.00332296
0.00271387
0.000154381
0.000188103
0.00030334
0.00015695
0.0233989
0.00014221
0.000149097
0.000152792
0.000157198
0.000172847
0.000232419
0.000179579
0.000207059
0.000167101
0.000220294
0.000181762
0.000151236
0.0336223
0.000164972
0.000162238
0.0245161
0.000142204
0.000182946
0.000196725
0.000139864
0.0223953
0.000144664
0.0001391
0.000176997
0.000139931
0.000152845
0.000224199
0.0215858
0.0298665
0.000142251
0.000151463
0.000181615
0.0242397
0.0348747
0.000150626
0.000149809
0.00014199
0.000181928
0.0105017
0.000145665
0.000149382
0.000149658
0.000142706
0.000170706
0.000160544
0.00014412
0.000180158
0.000139884
0.00014781
0.000154823
0.016993
0.000136718
0.000154261
0.000149067
0.000164564
0.000187375
0.000205839
0.000187634
0.00387023
0.000154376
0.000209926
0.0170587
0.0187954
0.0175037
0.000144077
0.000146435
0.000238028
0.000145566
0.0182089
0.000138249
0.0129623
0.00015867
0.0143705
5.83846e-05
0.000154659
0.00898079
0.000140863
0.000187725
0.000153836
0.000156651
0.0165868
0.00013909
0.000248599
0.000145244
0.000154983
0.000146846
0.000230799
0.000171498
0.000136121
0.000209803
0.0001794
0.00843047
0.00549949
0.0192709
0.0233905
0.000136777
0.00987623
0.000140234
0.0330751
0.0051971
0.000159346
0.000273766
0.000145614
0.0001645
0.000154022
0.000139315
0.000153912
0.000165629
0.00278346
0.000142859
0.000185369
0.000148784
0.00013599
0.000147866
0.0106037
0.0227373
0.00872569
0.000190686
0.000160192
0.00728556
0.0153243
0.000140966
0.0265097
0.000163794
0.000206834
0.000145581
0.00309953
0.000142471
0.00017295
0.000147794
0.00863389
0.000165623
0.0206359
0.000144329
0.000164483
0.000148011
0.000146366
0.0155362
0.00725578
0.000149579
0.000218293
0.000143566
0.000154759
0.000145315
0.0170032
0.00014288
0.000173673
0.000138098
0.000148847
0.000236235
0.000144544
0.000212868
0.000151934
0.000139773
0.0323164
0.000186516
0.000150236
0.00539546
0.000248433
0.000224303
0.000114169
0.000140648
0.000172404
0.0156429
0.000263466
0.000170529
0.000158992
0.000176465
0.000151317
0.000144653
0.000198719
0.000190666
0.000158356
0.0239506
0.000166097
0.000563231
0.034884
0.000286324
0.000166491
0.000225915
0.012832
0.000146545
0.000193442
0.000201111
0.000139835
0.000145221
0.000147836
0.000186721
0.000153453
0.00985223
0.000166841
0.000143657
0.000201215
0.000143517
0.0181764
0.000148103
0.000144932
0.0225093
0.000184626
0.00490045
0.000148821
0.000163022
0.00014533
0.000150434
0.000159265
0.000143216
0.0102488
0.000164591
0.0112777
0.00510597
0.000195245
0.0186636
0.00015155
0.000153524
0.000148457
0.0169564
0.0321523
0.000159461
0.0103473
0.00928634
0.000139831
0.000144778
0.000158964
0.000262065
0.00546662
0.000165905
0.000150306
0.000154309
0.000208484
0.000160052
0.000212418
0.000166985
0.000152463
0.000152073
0.000152931
0.000159111
0.00016731
0.000272606
0.000160195
0.000175349
0.0100621
0.000157059
0.0115388
0.000158014
0.000178682
0.000157949
0.000258935
0.0001503
0.000185588
0.0216687
0.000837309
0.000145783
0.000160068
0.000158645
0.000144375
0.000147507
0.000181313
0.000221014
0.008504
0.00021321
0.000140403
0.000279691
0.000156848
0.000157226
0.000220037
0.000150853
0.000187599
0.0273063
0.00013599
0.000184622
0.000200209
0.00016649
0.000142998
0.000141288
0.000144663
0.0086072
0.000151525
0.000149399
0.000172456
0.000143497
0.000142544
0.000213907
0.0216485
0.00019233
0.0234257
0.000191602
0.000277547
0.000147486
0.000163266
0.000864849
0.000160355
0.000180849
0.000148771
0.000144731
0.000148821
0.00016154
0.000207529
0.000143001
0.00430761
0.000148551
0.00560706
0.000158029
0.000158296
0.000140797
0.00019342
0.000167141
0.025118
0.000195688
0.000151225
0.0168561
0.00015248
0.0132638
0.000153616
0.000217294
0.000157918
0.000143493
0.0001455
0.0208799
0.000159105
0.000212653
0.0190619
0.000144251
0.000166671
0.000131376
0.000166176
0.00932735
0.000131834
0.0208062
0.000154351
0.000222202
0.000206952
0.00815762
0.00013739
0.000145451
0.000214209
0.000140644
0.000149212
0.000155076
0.000146022
0.000172516
0.000137254
0.000244356
0.000152512
0.009317
0.0131296
0.000215092
0.000243311
0.0243056
0.00859093
0.00344377
0.000139456
0.000154204
0.00014724
0.000152879
0.000142077
0.00015925
0.000143667
0.000230791
0.000149522
0.00017194
0.000151202
0.000163225
0.000209175
0.000144832
0.000176597
0.000152556
0.000157174
0.000157691
0.000144848
0.0175197
0.000193501
0.00386968
0.000144614
0.000144883
0.000149547
0.000149037
0.0242637
0.000139625
0.00752496
0.000142253
0.00296769
0.000165719
0.000143614
0.000186743
0.000169648
0.000139756
0.00495357
0.0251537
0.000159687
0.000193518
0.000140678
0.00123432
0.000157727
0.000149065
0.0130864
0.000147799
0.000151369
0.000200152
0.0120709
0.000163134
0.0122501
0.00465083
0.00016064
0.000155902
0.000146406
0.000300498
0.000144666
0.000212964
0.000148656
0.0224865
0.000166585
0.0451599
0.000145666
0.00013712
0.00441303
0.000157732
0.00015489
0.0142213
0.000155332
0.00014054
0.00328254
0.000160408
0.00015456
0.000189927
0.00015556
0.0190532
0.000173792
0.000193253
0.000356842
0.000154191
0.0221116
0.000153557
0.000187135
0.000144354
0.0153584
0.00263391
0.000149104
0.000156626
0.000153685
0.000150621
0.000148277
0.000142636
0.000144896
0.000145239
0.000161206
0.000135994
0.000154698
0.000191123
0.0213725
0.0246886
0.000197267
0.000149636
0.00391699
0.000143017
0.00031661
0.0101505
0.00491154
0.000138895
0.000139561
0.000147109
0.000148525
0.000138578
0.000145857
0.000143618
0.000167186
0.000140583
0.00706776
0.00413744
0.000141175
0.0200613
0.000144467
0.00014509
0.000170091
0.0176374
0.000185704
0.000145195
0.00522911
0.00014712
0.000145576
0.000297258
0.000154908
0.0232973
0.000151618
0.000243108
0.000141831
0.000145066
0.000170172
0.00150698
0.000154089
0.0168292
0.000171696
0.000158491
0.000157018
0.000144965
0.000141072
0.000201776
0.000166344
0.000158104
0.0184319
0.00765027
0.00110172
0.000203988
0.000144281
0.0180322
0.000144592
0.0311647
0.00018397
0.00015762
0.000153557
0.0493665
0.0295812
0.000387466
0.000233043
0.00653889
0.000148133
0.000143719
0.000167359
0.000152136
0.000148451
0.0300375
0.0119202
0.000145061
0.000159244
0.0143959
0.000144791
0.000137568
0.0122916
0.0201776
0.000152441
0.000140752
0.000157681
0.000146921
0.000145476
0.000182073
0.000163975
0.000146874
0.0110779
0.0002325
0.000876922
0.00956114
0.00016999
0.0155137
0.000149006
0.000151008
0.000290388
0.0119621
0.0037144
0.000324182
0.000173394
0.00014961
0.000151747
0.000162487
0.0255887
0.000187015
0.000151192
0.000178864
0.00014319
0.00063598
0.000192128
0.00021285
0.000185041
0.0155141
0.00523064
0.0307337
0.0212897
0.000162705
0.0125835
0.000137866
0.000180837
0.00019383
0.00889637
0.00015589
0.000156346
0.000157788
0.000912428
0.000156035
0.0248194
0.000164228
0.000202177
0.0281147
0.00014449
0.000206126
0.000156461
0.000148926
0.000174431
0.000618212
0.000138765
0.000139925
0.000153642
0.000396872
0.000140609
0.000155507
0.000153952
0.000153468
0.000147994
0.000208078
0.000190842
0.000151239
0.00014439
0.000263344
0.000156207
0.000181372
0.0220317
0.000149359
0.000144602
0.0289928
0.000149442
0.000156238
0.0213603
0.0163765
0.000174207
0.000180975
0.000164989
0.00841117
0.00443112
0.00017132
0.00860585
0.000145355
0.000194251
0.0220198
0.000240579
0.00904896
0.00126747
0.000143562
0.000147373
0.00016702
0.000148205
0.000148162
0.000273533
0.000147904
0.000171166
0.00013756
0.000183709
0.0243854
0.0001558
0.0258018
0.0217941
0.000144709
0.00019422
0.000165126
0.000154659
0.000144488
0.0178447
0.000189478
0.012664
0.000162946
0.0250009
0.000201214
0.000162857
0.000194767
0.000164142
0.000213085
0.00014384
0.0171662
0.000144518
0.000161289
0.000178605
0.000163464
0.000149744
0.000180192
0.045323
0.000142499
0.00800053
0.000244149
0.000149216
0.000142752
0.00021032
0.000397155
0.00271165
0.000142787
0.000162384
0.00150162
0.00785728
0.0098749
0.000148042
0.000140628
0.000143543
0.000144974
0.000170323
0.000158541
0.000398652
0.000149622
0.000155201
0.000509936
0.00152129
0.000196427
0.0208471
0.0253923
0.000148927
0.000146582
0.000140232
0.00015434
0.000191112
0.0141547
0.00395407
0.000210999
0.000169962
0.000176882
0.000153802
0.00308697
0.000161025
0.000207986
0.000145918
0.000408214
0.00293439
0.000141495
0.000148504
0.020283
0.000174292
0.00038469
0.0217897
0.000211214
0.000145197
0.0240623
0.000161851
0.000142894
0.0271431
0.0113399
0.00014608
0.000174644
0.000206558
0.000170388
0.000151506
0.000137175
0.000142935
0.000141682
0.00014418
0.000161431
0.000178779
0.0125902
0.000170496
0.000157272
0.000162511
0.000199808
0.000144162
0.000173588
0.00485699
0.000260165
0.0161716
0.000155392
0.000137141
0.0160787
0.000141503
0.00290322
0.000153261
0.000176172
0.000150703
0.000141905
0.000289699
0.000158306
0.00015514
0.000144776
0.0611234
0.000305447
0.0151116
0.000147824
0.000147391
0.00179715
0.000144821
0.000144469
0.000532622
0.0113494
0.00016168
0.000162664
0.000151265
0.000322963
0.000143061
0.000160446
0.000149695
0.00013697
0.000259074
0.00014311
0.000141463
0.0331812
0.000183395
0.0591865
0.000246074
0.000142469
0.000160348
0.000142508
0.000145002
0.000157446
0.000153484
0.000148838
0.000250444
0.00014794
0.000189895
0.000171022
0.000124795
0.000147119
0.000164609
0.000144833
0.0184203
0.000138139
0.00041091
0.000189207
0.000156286
0.000178261
0.000162638
0.000160568
0.000148018
0.000167642
0.000141208
0.000141479
0.00339853
0.00018054
0.000198657
0.000145967
0.000147527
0.000147656
0.000225711
0.00014318
0.021298
0.00017189
0.000145624
0.000143378
0.000139313
0.000171569
0.000620279
0.0272336
0.000177012
0.000429982
0.000128182
0.0002077
0.000158976
0.0235294
0.000137504
0.000137767
0.000158212
0.00365814
0.000139701
0.0193718
0.000148521
0.000147056
0.000680183
0.0188984
0.00878195
0.00416063
0.000157706
0.00659273
0.00073949
0.000142505
0.0233053
0.000144513
0.000145355
0.0408629
0.000138376
0.0202426
0.00427982
0.000142057
0.000145495
0.000142642
0.0175258
0.000147983
0.000137192
0.000192435
0.000142542
0.000142314
0.000186919
0.000143465
0.000174039
0.000148502
0.000159733
0.000139133
0.0445198
4.88592e-05
0.000139291
0.000139372
0.000152245
0.000143279
0.000154414
0.000148326
0.000147251
0.00014862
0.000144836
0.000153752
0.000147195
0.00021453
0.000139248
0.000193657
0.0001478
0.000190432
0.000142367
0.000148632
0.000143181
0.000138653
0.000172878
0.000165665
0.000156169
0.0590979
0.000256667
0.0217803
0.0204673
0.000194012
0.000260714
0.000147791
0.000146861
0.0322325
0.0319756
0.000148823
0.0149705
0.000140596
0.000214382
0.0065866
0.000154267
0.000194571
0.0222746
0.0355521
0.000145607
0.000175302
0.000141348
0.00614449
0.000155029
0.0213418
0.00903306
0.000149415
7.44011e-05
0.0305371
0.000150811
0.025283
0.000409208
0.000155588
0.000140574
0.000204637
0.0166251
0.0001426
0.000163012
0.00015072
0.0266178
0.000207399
0.00014841
0.00014281
0.000359228
0.000144753
0.000144716
0.000150602
0.00014015
0.022381
0.000171922
0.000159305
0.0187833
0.000144203
0.00019761
0.000148021
0.000203722
0.000178521
0.00578465
0.000141937
0.00015849
0.000142631
0.00014931
0.000154214
0.000147662
0.024698
0.000154084
0.000140685
0.000142608
0.00320791
0.000140471
0.00701472
0.0310816
0.0137816
0.00014641
0.000143558
0.000143223
0.00972742
0.000150284
0.000401935
0.000146417
0.0204862
0.00015551
0.000157573
0.000277575
0.000148875
0.000150018
0.0159479
0.000207526
0.0193499
0.000151954
0.0124912
0.0158304
0.000148116
0.0166158
0.00014934
0.000163624
0.0231683
0.000157907
0.000186958
0.0127089
0.000171472
0.000187254
0.000146794
0.000322447
0.000144712
0.00772259
0.000143163
0.0114906
0.00014484
0.000145325
0.000156634
0.00611162
0.000143873
0.000258968
0.000187415
0.0255485
0.000143832
0.00016825
0.0189251
0.000213424
0.0317568
0.000192657
0.000142368
0.000209144
0.0150102
0.000159301
0.00895872
0.000137381
0.000227682
0.00899804
0.000144478
0.010074
0.000143396
0.00903384
0.0212751
0.000156753
0.000158569
0.00837686
0.0120219
0.000144587
0.000153071
0.000140414
0.000148511
0.0102998
0.000184946
0.000267501
0.000147102
0.000160559
0.0206245
0.000192194
0.0125505
0.000386996
0.000142112
0.000144211
0.000241466
0.0317515
0.0413378
0.00870531
0.000251559
0.000175871
0.000207862
0.01843
0.0237566
0.010897
0.000140574
0.000193676
0.000170894
0.000189727
0.000146719
0.000157326
0.000181502
0.000578723
0.0135649
0.000163123
0.00206342
0.0182457
0.000187625
0.000144392
0.000144494
0.000226692
0.000144186
0.020821
0.000161517
0.000157147
0.0105441
0.00193235
0.000139199
0.00016452
0.000159987
0.000146992
0.0145282
0.000192236
0.0173239
0.000144534
0.0175462
0.000302836
0.000242072
0.000138617
0.000161487
0.000172419
0.000292403
0.000219714
0.00018809
0.0112863
0.0096641
0.000132428
0.000159343
0.000154816
0.000213779
0.00933019
0.000141259
0.000138994
0.000153717
0.0282273
0.000277241
0.000145198
0.000178347
0.0120203
0.000140496
0.00115477
0.000158741
0.0174217
0.000167964
0.00555988
0.000411016
0.000159172
0.00016057
0.0059991
0.00014267
0.000191369
0.0157385
0.000168284
0.00021391
0.000163727
0.000182866
0.032425
0.0128586
0.000146643
0.00493925
0.00580328
0.000138456
0.000217701
0.000186058
0.000234557
0.0228561
0.0347144
0.00819329
0.000210161
0.0172691
0.000161387
0.000188996
0.000140653
0.000148599
0.000147749
0.000140995
0.000276377
0.000266696
0.000138776
0.000187833
0.000235258
0.000142487
0.0101663
0.0202305
0.00014021
0.00014996
0.000141447
0.000154193
0.000173715
0.000144705
0.0234176
0.000159827
0.00018839
0.000164197
0.000188382
0.000203515
0.000176776
0.00388868
0.00014706
0.000154689
0.000138465
0.000143953
0.0174466
0.000203668
0.000167677
0.0271063
0.000147439
0.000151729
0.000174486
0.000141056
0.000144849
0.000195188
0.000157281
0.0146444
0.060962
0.0313865
0.000146725
0.0454182
0.000143841
0.000297938
0.000139035
0.000219086
0.0459787
0.000145153
0.0267357
0.0142507
0.00017264
0.000153214
0.000143706
0.00016416
0.0282678
0.000139895
0.00014914
0.000154947
0.000163559
0.000245213
0.000155915
0.00015807
0.000141848
0.000155903
0.00718668
0.000163536
0.000159105
0.000213885
0.000227813
0.0213577
0.00123405
0.000159695
0.000153902
0.0153273
0.000147114
0.000186059
0.000147314
0.00866158
0.000151954
0.000148855
0.000183701
0.0243581
0.000144139
0.000141933
0.000137315
0.000226186
0.00706102
0.00021933
0.000144549
0.000158878
0.000140642
0.0186649
0.000144631
0.00168398
0.000182336
0.000147435
0.00834727
0.000177294
0.00381223
0.000149888
0.000144211
0.00016377
0.00018664
0.000673764
0.000148723
0.000151247
0.000151525
0.0188022
0.000146324
0.000152546
0.0132719
0.000155684
0.000183042
0.000155866
0.00014463
0.000147242
0.00453709
0.000153476
0.0210321
0.00293054
0.00013449
0.0112005
0.00015063
0.000208877
0.000174993
0.00015407
0.000139125
0.000134254
0.000144647
0.00402827
0.000175971
0.018323
0.0187621
0.00014138
0.000203442
0.000175019
0.00021624
0.000145023
0.00564024
0.0146982
0.00448517
0.000144767
0.000153568
0.000150712
0.00407988
0.0180233
0.000155982
0.000145101
0.000160448
0.0228874
0.000148253
0.000153621
0.000155959
0.000213157
0.000385169
0.000137666
0.024284
0.00017174
0.000144296
0.0266034
0.000181851
0.0155392
0.00151767
0.000171384
0.000164334
0.000153106
0.00016525
0.000152197
0.00021403
0.000185105
0.000147313
0.000155532
0.000249811
0.0553638
0.00013968
0.000219087
0.0473006
0.0265342
0.000148448
0.000147503
0.00347536
0.00032231
0.000238569
0.000143551
0.0505303
0.000189039
0.000135342
0.0123692
0.000162658
0.000149354
0.0153484
0.000145985
0.000174448
0.000143206
0.000133166
0.000146769
0.000137271
0.0191434
0.000138175
0.00014235
0.000192511
0.000155925
0.000160561
0.00021699
0.000148109
0.000144617
0.00015476
0.000153247
0.000434569
0.000531686
0.000309628
0.00327456
0.000182161
0.00732627
0.000206898
0.0216186
0.0580262
0.0205672
0.000141474
0.000171848
0.000145178
0.000148077
0.000144552
0.000155841
0.000246835
0.00018442
0.000179745
0.000142229
0.000144225
0.000182715
0.0001492
0.000150937
0.000148142
0.0199851
0.000165114
0.00811465
0.000146514
0.00332275
0.0001516
0.000148301
0.00015176
0.000172409
0.000142003
0.000197195
0.0176681
0.000179114
0.0154429
0.00475223
0.000159727
0.000160299
0.0020106
0.000217986
0.000140119
0.000143951
0.000134478
0.0182484
0.000133187
0.000228661
0.000248963
0.000192625
0.0181135
0.0188905
0.000186598
0.0146396
0.00014328
0.000137119
0.00034218
0.000362105
0.00014636
0.00014675
0.000636924
0.000140674
0.00207407
0.000156882
0.000144415
0.000161302
0.000146512
0.000189153
0.0176238
0.0154077
0.000156067
0.000147522
0.00019688
0.000153053
0.00019457
0.000140837
0.000219105
0.000200752
0.000150911
0.000148899
0.000135056
0.000410577
0.000199774
0.000246323
0.021295
0.000163803
0.00326545
0.000191758
0.00021046
0.00935636
0.000144055
0.019629
0.000152311
0.0199509
0.000288468
0.0194411
0.0142021
0.00015112
0.000177577
0.000400666
0.000146055
0.0125731
0.000147746
0.000146861
0.000156954
0.000150877
0.000161184
0.000278981
0.000361843
0.0247735
0.000158013
0.000178395
0.000153782
0.000148108
0.000147731
0.000192136
0.000197828
0.0341573
0.00017298
0.000139191
0.000140393
0.000151065
0.000263338
0.000159326
0.000152739
0.000158577
0.000206602
0.000161843
0.000187096
0.000187716
0.0206817
0.000163519
0.000162705
0.000145023
0.000157077
0.0253422
0.000260853
0.000186437
0.000141008
0.0275821
0.000162539
0.000143273
0.000173804
0.0193512
0.00490651
0.000172712
0.000140787
0.0250779
0.000151288
0.000140552
0.000139579
0.0450579
0.00687383
0.000159814
0.0268126
0.0153517
0.000169373
0.0001866
0.00018173
0.0180662
0.00016472
0.0181794
0.000151449
0.000218159
0.000229985
0.0125396
0.000162424
0.000142841
0.0206879
0.00014677
0.000152941
0.0182263
0.000385949
0.000217242
0.0267333
0.000155082
0.000152727
0.0038328
0.000143211
0.000142652
0.000146475
0.000171227
0.000144862
0.000174012
0.000168979
0.00536857
0.000252446
0.000151011
0.012639
0.00016777
0.0193576
0.0157189
0.000146453
0.000148949
0.000156423
0.0102263
0.000247576
0.00018637
0.0188367
0.0228806
0.00489096
0.00015611
0.000382328
0.0141495
0.000195896
0.000239656
0.000148875
0.000145258
0.000146334
0.000153961
0.000143509
0.000163158
0.0154697
0.000175075
0.00334977
0.0148712
0.000409812
0.0321551
0.0212777
0.000170681
0.0169568
0.000208649
0.000192373
0.00013886
0.000146425
0.000188165
0.0134373
0.000152404
0.0249415
0.021311
0.000142114
0.000147518
0.000150746
0.000207047
0.000151813
0.000190185
0.0190523
0.000139422
0.00014391
0.000141634
0.000151954
0.000204138
0.0169291
0.000178508
0.000271597
0.000218394
0.00014275
0.00278389
0.000575953
0.000149731
0.000307912
0.000232995
0.0350175
0.0345864
0.0145574
0.000145608
0.000231165
0.0176099
0.00119626
0.00211541
0.000144515
0.000156441
0.000157014
0.000153502
0.00794361
0.000185946
0.000148841
0.000160308
0.000467833
0.017376
0.000155386
0.000154571
0.0217944
0.021277
0.000148395
0.000164675
0.000210399
0.000143765
0.000144218
0.049632
0.000142402
0.000269229
0.00302921
0.0072441
0.000141817
0.000194781
0.000223547
0.000143029
0.000136363
0.0573662
0.0378109
0.000148519
0.000177529
0.000217228
0.000255717
0.0198381
0.0263449
0.000159523
0.00345507
0.00574842
0.000165462
0.000141844
0.00022198
0.000136845
0.000137736
0.0143841
0.000175348
0.00020405
0.000155378
0.000168159
0.000144151
0.00013778
0.000150842
0.000151654
0.0275041
0.000155062
0.023525
0.0105143
0.000172669
0.000189671
0.0288032
0.0125962
0.0284401
0.000155368
0.000155914
0.000165665
0.000159221
0.00227268
0.00449678
0.000150681
0.0200776
0.016849
0.000161913
0.000200368
0.000191563
0.000204372
0.000208626
0.000152803
0.000213862
0.000218675
0.000224679
0.000231889
0.000210833
0.00019549
0.000168274
0.000141671
0.000162063
0.000199793
0.000142121
0.0169355
0.0172408
0.00910166
0.0205885
0.000135799
0.000140888
0.00020252
0.0142346
0.000151375
0.000158499
0.000187999
0.030935
0.00111456
0.000147708
0.000173562
0.000157063
0.0090884
0.000684606
0.00015473
0.000530637
0.0174382
0.000204691
0.0199758
0.000204125
0.00545171
0.0181988
0.000131173
0.0126399
0.0189468
0.00015361
0.000188895
0.000209818
0.000163628
0.000143133
0.0157975
0.018702
0.000142809
0.000143182
0.0340098
0.000318379
0.000195258
0.000149821
0.000249981
0.000219988
0.0212499
0.0154166
0.000147176
0.000144025
0.000151212
0.000157327
0.0174215
0.000729713
0.0216251
0.000196963
0.000287084
0.00926884
0.000157796
0.000141392
0.0172913
0.00014393
0.0170943
0.000143807
0.0204626
0.000152221
0.000153443
0.00618647
0.000145933
0.000209414
0.00694997
0.000165051
0.000157798
0.000152607
0.000243454
0.0146378
0.00166243
0.0203203
0.000165269
0.000157701
0.000158545
0.000193516
0.0123789
0.0274587
0.000210338
0.000246
0.00021408
0.00904795
0.000154683
0.00014333
0.000139633
0.000138883
0.00021101
0.000213413
0.00588161
0.000178012
0.000223612
0.000142878
0.0024979
0.000528722
0.00821434
0.000144458
0.000153224
0.000133349
0.0187904
0.000248133
0.00656275
0.000173923
0.000212911
0.000276202
0.000134729
0.000165778
0.000674784
0.000243704
0.000312228
0.000146415
0.000217871
0.000151304
0.000150272
0.000209757
0.00222684
0.0336511
0.000149842
0.000201022
0.0189051
0.0348641
0.0105778
0.0146477
0.00710328
0.000144265
0.000182444
0.000146859
0.000220019
0.000146636
0.000220644
0.000156545
0.000174577
0.0042257
0.00785683
0.000162218
0.000151063
0.0190214
0.000214226
0.000157716
0.0187202
0.000209472
0.000154371
0.000150858
0.00758006
0.000160677
0.000181472
0.000297171
0.00555205
0.0118185
0.000160438
0.0180688
0.0176613
0.00185447
0.0156789
0.000161626
0.000207765
0.000202916
0.0132733
0.000215846
0.000150946
0.000138605
0.000204139
0.0138588
0.000164699
0.0224558
0.0297156
0.000222462
0.00015739
0.0248182
0.000157677
0.015491
0.000619043
0.00224473
0.0090316
0.000140522
0.000133378
0.016706
0.0126037
0.000172328
0.000150692
0.000178681
0.000173461
0.0138832
0.000213816
0.0188711
0.000160691
0.0187182
0.00020196
0.00971153
0.000150769
0.00802494
0.0253976
0.000163578
0.000198541
0.000135356
0.000155502
0.000147655
0.00403715
0.000143426
0.000146933
0.0180948
0.000251313
0.000138729
0.0131247
0.000152042
0.000146428
0.000144107
0.000143783
0.000148716
0.000313762
0.0205321
0.00013961
0.0139057
0.000188701
0.000176951
0.00379853
0.000198446
0.000159577
0.000163509
0.000143278
0.00418031
0.000172312
0.0123247
0.000170719
0.00385618
0.000251505
0.00018946
0.000376757
0.0185566
0.000139667
0.0136316
0.000179231
0.000186757
0.000190987
0.000143512
0.000248922
0.000249364
0.000147129
0.000238479
0.000143976
0.00921594
0.000223258
0.0320802
0.000240828
0.000236105
0.0180265
0.000148478
0.000146638
0.00018602
0.00015447
0.00014885
0.000149049
0.000163242
0.00014262
0.000142783
0.00015363
0.000182008
0.00015525
0.000164634
0.000157004
0.000185359
0.000207059
0.000156069
0.00891369
0.000155124
0.000143652
0.000202121
0.00017276
0.000157956
0.000142701
0.00939816
0.000153405
0.0165048
0.00015386
0.000216879
0.000143751
0.000145725
0.00017451
0.0184864
0.000190444
0.000176356
0.000136026
0.0212809
0.000147872
0.000142476
0.00019389
0.000154672
0.000229351
0.0190972
0.000204082
0.00175908
0.000177293
0.0117004
0.000147041
0.000148458
0.000184851
0.00329866
0.000184353
0.00020825
0.0253669
0.000164266
0.000147903
0.000158796
0.000248172
0.00018399
0.00014733
0.000206252
0.00020504
0.0001855
0.000148514
0.000147084
0.000206902
0.000184713
0.000367235
0.00860279
0.000158371
0.000190228
0.000148497
0.000174358
0.0278218
0.000149597
0.000215923
0.00374159
0.000198075
0.0154007
0.000146623
0.00014567
0.000143017
0.0169805
0.000244189
0.000156813
0.000170471
0.000210571
0.000148279
0.000146027
0.0231218
0.0143042
0.000650834
0.0183403
0.00577781
0.000162142
0.000307894
0.000215156
0.000161413
0.00288707
0.000200306
0.00436588
0.000147288
0.000205593
0.000220359
0.000152794
0.00801329
0.000172513
0.000234368
0.000162803
0.000226672
0.000142634
0.0144167