/*--------------------------------*- C++ -*----------------------------------*\
| =========                 |                                                 |
| \\      /  F ield         | OpenFOAM: The Open Source CFD Toolbox           |
|  \\    /   O peration     | Version:  v2012                                 |
|   \\  /    A nd           | Website:  www.openfoam.com                      |
|    \\/     M anipulation  |                                                 |
\*---------------------------------------------------------------------------*/
FoamFile
{
    version     2.0;
    format      ascii;
    class       volScalarField;
    location    "850";
    object      nut;
}
// * * * * * * * * * * * * * * * * * * * * * * * * * * * * * * * * * * * * * //

dimensions      [0 2 -1 0 0 0 0];


internalField   nonuniform List<scalar> 
13917
(
0.00335616
0.00410106
0.0011454
0.0054842
0.00571481
0.0044249
0.00320905
0.00221396
0.00282848
0.000322894
0.0027288
0.00684472
0.0034012
0.0213496
0.00582278
0.00209877
0.00682909
0.00246028
0.00181583
0.00206984
0.00346005
0.00683307
0.00224079
0.00683258
0.00567421
0.00325433
0.00370241
0.000164207
0.00252659
0.00681453
0.0001251
0.00244981
0.006625
0.00973589
0.0068204
0.00170275
0.00649406
0.00693574
0.00279392
0.00235005
0.00677873
0.00672658
0.00290605
0.00182724
0.00188364
0.00038847
0.00373954
0.00287873
0.0112114
0.00681874
0.0068451
0.00175185
0.000501913
0.00684938
0.00684779
0.00176965
2.40697e-05
0.00249981
0.0067405
9.81836e-05
0.0103787
0.00616199
0.00679725
0.0054464
0.00888098
0.00553385
0.00239324
0.00187943
0.00249833
0.0029555
0.00568224
0.00867701
0.00682718
0.00677899
0.00309205
0.00599678
0.00634985
0.00678663
0.00593454
0.00678285
0.00678361
0.00683241
0.00682513
0.00588616
0.00671972
0.002248
0.00191674
0.00676455
0.00229528
0.00684567
0.00678114
0.00269506
0.00975177
0.0068404
0.00679817
0.00247166
0.000361831
0.00685994
0.0067538
0.00156626
0.00680477
0.00679231
0.00677824
0.00682165
0.00635206
0.00636106
0.0085746
0.00621508
0.00667047
0.00607652
0.00673672
0.0101821
0.00255786
0.00317147
0.0086604
0.00533905
0.00192944
0.00680702
0.0011435
0.00680086
0.00685689
0.0068235
0.00240498
0.00216448
0.00364365
0.00571848
0.00553429
0.0028404
0.00684077
0.00213581
0.00237934
0.000950454
0.0123611
0.00622849
0.00193479
0.00663341
0.0111069
0.00401757
0.00300105
0.00692781
0.0159723
0.0068091
0.00603933
0.00680145
0.00681804
0.00639475
0.00553498
0.0138808
0.00284912
0.00685077
0.00259383
0.00679661
0.00681199
0.00680073
0.00190152
0.0067111
0.00681481
0.0127358
0.00680769
0.00681463
0.00674015
0.0101192
0.00611422
0.0123601
0.00856515
0.00132358
0.0002029
0.00641116
0.00669363
0.00282415
0.0068159
0.0120999
0.00272941
0.0102091
0.00277326
0.00680307
0.00587032
0.00161247
0.0024622
0.00600779
0.00307945
0.00682728
0.00684627
0.00104437
0.00113146
0.000625544
0.00684549
0.00136356
0.00681433
0.00215976
0.00276086
0.00185297
0.00150694
0.00348279
0.00683813
0.0038231
0.00404101
0.0119574
0.0068218
0.00675758
0.00419707
0.00302469
0.00270927
0.0065547
0.00437213
0.00476303
0.00243299
0.006808
0.00162839
0.00678477
0.00677475
0.00508172
0.00463485
0.00333313
0.00223004
0.00296612
0.0106643
0.00688237
0.00677128
0.00677085
0.00552404
0.00127818
0.000834296
0.00672138
0.00678288
0.008392
0.00270556
0.00674491
0.00674114
0.00677045
0.0067831
0.00678288
0.0077758
0.00598846
0.00682552
0.00670632
0.00260842
0.00763632
0.00682998
0.0067211
0.00461791
0.0063809
0.00115161
0.0108002
0.00208573
0.00680099
0.00585251
0.00252205
0.00266792
0.00245819
0.00660486
0.00458807
0.00680803
0.00264772
0.00276037
0.00681028
0.00675947
0.00546433
0.00593337
0.00680182
0.00687198
0.019037
0.00682869
0.00673501
0.00669355
0.00673561
0.00680743
0.0068423
0.00262584
0.00681223
0.00606931
0.00925733
0.0068238
0.00623987
0.000951658
0.00678405
0.00129448
0.00861948
0.0067837
0.00492793
0.0068096
0.00993516
0.006803
0.00608127
0.00680104
0.00680167
0.00141178
0.00688895
0.000841902
0.00340044
0.0182755
0.0063668
0.0017076
0.00380961
0.0068293
0.0026443
0.00585607
0.0061424
0.00577155
0.00609784
0.00683564
0.00689042
0.00163076
0.00514137
0.00240826
0.00601042
0.0067208
0.0125052
0.00173749
0.00683541
0.00634132
0.00607955
0.00899838
0.00166012
0.00970164
0.0104274
0.00319559
0.00149279
0.00628491
0.00501997
0.012627
0.00112889
0.00683363
0.00586629
0.00379048
0.00677197
0.00358777
0.00198121
0.00682452
0.0119828
0.00672515
0.00202591
0.00682391
0.000366638
0.00672022
0.0026121
0.00470727
0.00403065
0.00683842
0.00216676
0.00504573
0.00681267
0.00677384
0.0109581
0.00537494
0.00983232
0.0210557
0.00677217
0.00683341
0.00677979
0.00150239
0.00677346
0.00577547
0.0068485
0.00166262
0.00250124
0.00181289
0.00174546
0.00137648
0.00202191
0.00791352
0.00684434
0.00681084
0.00550524
0.00118153
0.00681573
0.00256272
0.00236865
0.0117124
0.00684568
0.00151378
0.0064833
0.00521921
0.00670181
0.000720163
0.00128481
0.00433343
0.00683051
0.00164777
0.00680235
0.00766114
0.0013542
0.00670202
0.00697682
0.00674112
0.00849163
0.00678873
0.00269697
0.00849777
0.00658429
0.0101112
0.00137568
0.00666828
0.0103078
0.00103867
0.00665667
0.0014014
0.00684185
0.00136078
0.00114184
0.0067281
0.00302845
0.0060718
0.00678992
0.00672209
0.00684657
0.0112377
0.00125101
0.00683149
0.00684631
0.00684656
0.00299695
0.000477042
0.00681385
0.00669423
0.00168276
0.00168741
0.00681006
0.0066097
0.0111112
0.00603672
0.00248827
0.00167955
0.00326036
0.0068249
0.006804
0.00487382
0.00672019
0.00681261
0.00681481
0.00680416
0.00682783
0.00515449
0.0068403
0.00213559
0.00720017
0.00251012
0.00678048
0.0068072
0.0101911
0.00439714
0.00256076
0.00682198
0.00673785
0.00679357
0.00679549
0.00651193
0.00670682
0.0109577
0.00592806
0.00690703
0.00673797
0.00275351
0.00591423
0.00679266
0.00212043
0.0101632
0.00684891
0.0131532
0.00678774
0.00675978
0.00684613
0.00673869
0.00676215
0.00680949
0.0125851
0.010036
0.00675629
0.00171144
0.00171037
0.0067941
0.00273233
0.00182779
0.0095621
0.00275109
0.0063628
0.0128664
0.0129977
0.00670312
0.00629507
0.00584189
0.00662552
0.00516701
0.00679579
0.00685195
0.00679634
0.00317822
0.00311646
0.00129396
0.00230392
0.00637194
0.00609995
0.00249513
0.00175483
0.00683088
0.0209672
0.00301238
0.00337169
0.00824683
0.00672008
0.00161269
0.00141672
0.00671678
0.0129385
0.00676886
0.00679565
0.00268736
0.00682038
0.00684459
0.00163698
0.0130834
0.01261
0.00673626
0.0047806
0.00650324
0.00415143
0.00635462
0.00684072
0.00684877
0.00673055
0.00283966
0.0146366
0.00684478
0.00682965
0.00676578
0.00678055
0.00618529
0.00318151
0.0068083
0.00239015
0.00671677
0.00684569
0.00614507
0.00974913
0.00671195
0.00389269
0.00680042
0.00235762
0.00291484
0.00181538
0.00292711
0.00154104
0.00636733
0.0023631
0.0115531
0.00637789
0.00898142
0.00682918
0.00684688
0.0065107
0.00677886
0.00902292
0.0067949
0.0151815
0.00372189
0.00980911
0.00134098
0.00324467
0.000721533
0.0067581
0.00165505
0.00687772
0.00663352
0.00884961
0.00681904
0.00108276
0.00679534
0.00681736
0.00684791
0.00135746
0.00614406
0.00671908
0.00185842
0.00341316
0.00390441
0.00415089
0.0124108
0.0106156
0.0067124
0.00289286
0.00678891
0.0108214
0.0144817
0.00655385
0.00652498
0.00680313
0.00265986
0.00314544
0.00681821
0.0068732
0.00684013
0.00290627
0.00674536
0.00211926
0.00684949
0.00671548
0.006828
0.000695397
0.006837
0.000716163
0.00217628
0.00317676
0.000550795
0.00828999
0.00679956
0.00791226
0.00683101
0.00193507
0.00678042
0.00168034
0.00677481
0.00612752
0.00682239
0.00573839
0.00279522
0.00962437
0.00681143
0.0026961
0.00682797
0.00678852
0.00862643
0.00147932
0.00680193
0.00168358
0.00672081
0.00667131
0.00679654
0.00979407
0.00674483
0.00586852
0.00679545
0.00681634
0.00117493
0.00679496
0.00179737
0.00683407
0.00671852
0.0108164
0.00210267
0.00684338
0.000503125
0.00107003
0.00180201
0.00136699
0.00675296
0.00566581
0.00875015
0.00108981
0.00521808
0.00649046
0.00607626
0.00685752
0.00684335
0.0041712
0.00272415
0.00455739
0.0083743
0.0026136
0.00211085
0.00749999
0.00545686
0.00268125
0.00152609
0.00594244
0.00683455
0.00568218
0.00664802
0.00671865
0.00683953
0.00683285
0.00630603
0.00684238
0.00309579
0.00218042
0.00677312
0.00197858
0.00681511
0.0102758
0.00681106
0.00684268
0.0131832
0.00283056
0.0114654
0.00682983
0.00671404
0.00684251
0.00563941
0.00279575
0.00680969
0.00309644
0.00311354
0.00960446
0.0118084
0.00572366
0.0123754
0.00486341
0.0068858
0.00682089
0.00939035
0.0113783
0.00388355
0.00328473
0.015763
0.00672257
0.00684032
0.00651093
0.00589897
0.013037
0.00292946
0.00577032
0.00368445
0.00179762
0.00641336
0.00182558
0.00214239
0.0068038
0.006302
0.0068578
0.00290845
0.00610244
0.00110062
0.00623564
0.00636943
0.00319031
0.00675883
0.0164018
0.00655163
0.00499877
0.0037264
0.00108117
0.00686207
0.00195046
0.00655411
0.0134199
0.00678217
0.00627023
0.00690353
0.00675351
0.00681603
0.00524963
0.00583251
0.00134589
0.00178634
0.0067496
0.000705402
0.00265253
0.00288622
0.00164462
0.00682165
0.00193433
0.000255806
0.00670822
0.00264913
0.00241175
0.00224585
0.00681257
0.00676592
0.0068454
0.00208636
0.00672161
0.00678455
0.00214992
0.00681607
0.00679812
0.001842
0.000754965
0.00461024
0.00716051
0.00179261
0.00699866
0.00681407
0.00626899
0.000125601
0.0065351
0.0056327
0.00683503
0.00682831
0.00683479
0.00626644
0.00167318
0.00681282
0.00253834
0.00678855
0.0145192
0.00654353
0.00283326
0.00682194
0.0020941
0.0060359
0.00963438
0.00431852
0.00681724
0.00956521
0.0067684
0.00607235
0.00319934
0.00399682
0.00650662
0.00682094
0.00677549
0.0104588
0.00299665
0.00121169
0.00926092
0.00675039
0.00219436
0.00670237
0.00620258
0.0146246
0.00671314
0.00668918
0.00357506
0.00397609
0.00194048
0.00471371
0.00674923
0.00683043
0.00174592
0.00675488
0.00685054
0.00669262
0.00684803
0.00209504
0.00674508
0.00210232
0.006806
0.00298274
0.00585378
0.00529543
0.00724787
0.0112222
0.00201196
0.00788502
0.00671978
0.00668531
0.00681555
0.00676891
0.00673375
0.0030793
0.00677013
0.000958592
0.00685182
0.000964186
0.00681133
0.00222843
0.00157775
0.00683859
0.00223125
0.00638626
0.00659925
0.00375295
0.00680542
0.0124625
0.00256629
0.00475315
0.00683785
0.00674223
0.00680286
0.00677874
0.00908068
0.00672198
0.00136498
0.00676675
0.0124415
0.00615331
0.0067914
0.00192763
0.00615791
0.00672482
0.0111147
0.00670243
0.00648388
0.00217384
0.00676019
0.00152604
0.00675842
0.00677739
0.00636824
0.00684857
0.00564044
0.00203765
0.00544135
0.00667778
0.0127683
0.00119688
0.00668237
0.00662298
0.00684851
0.00252012
0.00673891
0.0017694
0.00684082
0.0130341
0.00608469
0.00965171
0.00684416
0.00680755
0.0100889
0.00687959
0.00674998
0.0106869
0.00669483
0.00672908
0.0192632
0.00668079
0.00668586
0.00275546
0.00667207
0.00930538
0.00226208
0.00185462
0.00143865
0.00414449
0.0128411
0.00677499
0.00275558
0.00674288
0.00749242
0.0125871
0.00667904
0.00675478
0.0066921
0.00683987
0.00679702
0.00683051
0.00682272
0.00676817
0.00318552
0.00670813
0.00672785
0.00212158
0.00883863
0.00992305
0.00204816
0.00680153
0.0107942
0.00675594
0.000228114
0.0147971
0.000219011
0.00679645
0.00672179
0.00676294
0.00685088
0.00679122
0.00679016
0.00675287
0.00266501
0.00672933
0.000960594
0.0170864
0.00675364
0.010882
0.00674519
0.00684456
0.00616855
0.0101885
0.0015836
0.00680149
0.0116489
0.00683554
0.006843
0.000190345
0.00667159
0.00188642
0.00580015
0.00324364
0.00677845
0.00681806
0.00435305
0.00228416
0.00671052
0.00961379
0.00607159
0.00693359
0.00656421
0.00674626
0.0067599
0.00198573
0.002102
0.00458715
0.0105891
0.00169754
0.00267778
0.00198921
0.00682708
0.010005
0.00682211
0.0107841
0.00296171
0.00282949
0.00673859
0.0104211
0.0139482
0.00211041
0.00668349
0.0135907
0.00679244
0.00676919
0.00209283
0.00681021
0.00683797
0.000146686
0.00496813
0.00681971
0.00235737
0.00743376
0.00678519
0.00676909
0.0131817
0.0107851
0.00678732
0.0067781
0.00311177
0.00680451
0.00684237
0.00501569
0.00620813
0.00680641
0.0064469
0.00670883
0.00313323
0.0153954
0.00599958
0.00782562
0.00682942
0.00681599
0.00432434
0.00535439
0.00680785
0.00647416
0.00433889
0.00544418
0.00508508
0.00668026
0.00941162
0.00614296
0.00673943
0.00228577
0.00679492
0.0134157
0.00232823
0.00181758
0.0019543
0.000166494
0.012831
0.0101765
0.012112
0.00693199
0.000388035
0.00677493
0.00265591
0.00257042
0.0135315
0.00380018
0.00663054
0.00391979
0.00295167
0.00666835
0.00963556
0.00280733
0.00232394
0.0110308
0.00681911
0.00193939
0.00662205
0.00685209
0.00602969
0.00308146
0.00682108
0.00674359
0.00646458
0.00387211
0.00673376
0.0066943
0.00340671
0.00677385
0.00683963
0.00170866
0.00189841
0.00673838
0.00683425
0.00180775
0.0042259
0.00474855
0.0128636
0.00683242
0.0067416
0.0115144
0.00678289
0.0066547
0.0120603
0.00853384
0.00572192
0.00258796
0.00608671
0.00194544
0.00147957
0.00350792
0.00467821
0.0068411
0.00253572
0.00841404
0.00110429
0.0119803
0.00327859
0.00682767
0.00684483
0.00684667
0.00684173
0.00684213
0.00110965
0.0068578
0.0027909
0.0067242
0.00196177
0.0102485
0.00666867
0.00520855
0.012013
0.00674592
0.00206475
0.00613013
0.00671739
0.00675741
0.00966575
0.00221124
0.00616203
0.00409538
0.00753908
0.00237096
0.00671312
0.0068388
0.00282
0.00664745
0.00679906
0.000456308
0.00675701
0.00626301
0.00319077
0.00624766
0.00530577
0.00228196
0.00883855
0.00674295
0.00142401
0.00339827
0.00685297
0.00675336
0.00637456
0.00238467
8.80548e-05
0.00681259
0.00227912
0.00646727
0.00544099
0.00268461
0.00683313
0.00672338
0.0068257
0.00674564
0.00698153
0.00653277
0.00252246
0.00676837
0.0035969
0.00272686
0.00640964
0.00212186
0.0107715
0.00839188
0.006827
0.00680387
0.00671856
0.00673865
0.00181014
0.0119423
0.00336056
0.0016059
0.00485293
0.00225887
0.00332519
0.00854234
0.00630839
0.00182651
0.00684092
0.00177359
0.00739956
0.00679713
0.00682631
0.0116001
0.00296573
0.0029832
0.00772172
0.00169088
0.00684009
0.00107734
0.00694383
0.00672343
0.00861777
0.00696916
0.00683927
0.00573084
0.00197008
0.00290025
0.00642711
0.0067442
0.00675744
0.00677688
0.0067468
0.00311224
0.00190041
0.00510473
0.00276493
0.00340181
0.00249789
0.00221043
0.00683147
0.00314352
0.000940375
0.00105744
0.00893111
0.00670146
0.00674386
0.00813652
0.00673351
0.00599149
0.00540886
0.00201102
0.00683901
0.00673775
0.000325282
0.00367905
0.00671685
0.00673993
0.010452
0.000106854
0.00805294
0.0068128
0.00685064
0.00390487
0.0068232
0.00682292
0.0014841
0.0107148
0.00430092
0.00255737
0.00680428
0.00340126
0.00672641
0.00644523
0.00506447
0.00673919
0.00105173
0.00672995
0.00677087
0.000130503
0.00211164
0.00994907
0.00107868
0.006721
0.00327016
0.00679676
0.00683803
0.00655279
0.00680372
0.00684648
0.0011422
0.00683085
0.00276984
0.0060567
0.00649114
0.00680914
0.00669184
0.00684232
0.00981104
0.00681788
0.00197456
0.00211263
0.00683856
0.00232899
0.00251949
0.00299827
0.00684397
0.00612821
0.00675768
0.00679929
0.0132928
0.00476073
0.00660514
0.00681708
0.00683346
0.00675102
0.00225368
0.00679068
0.0107541
0.00273289
0.00681433
0.0067205
0.00677098
0.00275731
0.00101103
0.0126972
0.00552846
0.0129755
0.00644866
0.00216377
0.00653805
0.0087308
0.00672511
0.00681375
0.00482052
0.0101223
0.00677534
0.0112356
0.00685263
0.00682063
0.00151562
0.000361396
0.001889
0.002788
0.00372998
0.00160711
0.00279465
0.00683016
0.00891456
0.00674514
0.00680172
0.00583511
0.00675232
0.0115225
0.00833632
0.00676188
0.00677382
0.0068312
0.0116141
0.00682207
0.00674467
0.00224524
0.0067227
0.0067922
0.00668925
0.00682647
0.0022181
0.0068343
0.00640879
0.00671606
0.00131557
0.00361772
0.00671773
0.00671923
0.00679281
0.0067204
0.00352153
0.00680347
0.00681752
0.00683354
0.00675084
0.0067654
0.00681996
0.00214743
0.00677285
0.00221355
0.00683877
0.00342994
0.00680762
0.00684551
0.00680312
0.00681788
0.00254702
0.00614213
0.00296362
0.010352
0.00259289
0.0127727
0.0108362
0.0021254
0.00743849
0.00684553
0.00681286
0.000472276
0.0108671
0.00674251
0.00790939
0.00678591
0.00179811
0.0138193
0.00373909
0.00250576
0.0210267
0.0136314
0.00682784
0.00219959
0.00675845
0.00546149
0.00377825
0.0119432
0.00288808
0.00684751
0.00409025
0.000543547
0.00682108
0.00399733
0.0143808
0.00666244
0.0067182
0.0103154
0.00893806
0.00682885
0.00249066
0.00682997
0.000598298
0.00163775
0.0068493
0.00681468
0.00110409
0.0068364
0.0067453
0.00580371
0.00674804
0.00153513
0.00577749
0.00306207
0.0106279
0.00674646
0.00161226
0.00682312
0.00949034
0.00271922
0.00556659
0.00680239
0.00310648
0.00680706
0.00684081
0.00334449
0.00683856
0.00519095
0.00674558
0.00675808
0.00674249
0.0131734
0.00671883
0.00902975
0.0096182
0.0178164
0.00684049
0.00682377
0.00673282
0.0135921
0.00684464
0.00475157
0.00683611
0.000857217
0.00668119
0.00659961
0.000504003
0.00685088
0.00684498
0.00840644
0.00188253
0.0111868
0.00673676
0.00910393
0.00866804
0.00685114
0.00935274
0.00684893
0.00626424
0.00688676
0.00659073
0.00378004
0.00595243
0.00558355
0.00228077
0.00680028
0.00259328
0.00674811
0.00998869
0.00672922
0.00481087
0.00674991
0.00674934
0.00653402
0.0134179
0.0068276
0.00336048
0.00159157
0.020273
0.006755
0.00519523
0.0101399
0.00118495
0.00307343
0.00262722
0.00680952
0.00194425
0.000868673
0.00650276
0.00115813
0.00681201
0.00154016
0.002631
0.00683379
0.00274772
0.00672064
0.00831186
0.00136199
0.00643674
0.00649073
0.011842
0.0154134
0.00673603
0.00547362
0.00675438
0.0068508
0.00758394
0.00274049
0.000295314
0.00682481
0.00349191
0.0116454
0.00643093
0.00984836
0.00208913
0.00671957
0.00673695
0.00117785
0.0110447
0.00721282
0.0148095
0.00112817
0.00236172
0.00420785
0.0109266
0.0101592
0.0132443
0.00671833
0.00255948
0.00274553
0.00245773
0.00681381
0.00287088
0.00250276
0.00163766
0.0176922
0.00666255
0.00955352
0.0103241
0.00279609
0.00673639
0.00673967
0.00198502
0.00683366
0.0126935
0.00354391
0.00667577
0.00102958
0.00641015
0.00671746
0.00273652
0.0026143
0.00681777
0.0114092
0.00606873
0.012163
0.00683932
0.0101405
0.00018869
0.00112197
0.00682029
0.00465668
0.00552593
0.0021083
0.00188139
0.00211259
0.00770689
0.00123238
0.00673067
0.00458712
0.00666975
0.00175575
0.00263202
0.0067881
0.00671549
0.00673927
0.000980764
0.00213829
0.00683831
0.00189542
0.00100194
0.00672482
0.00639358
0.00653104
0.010506
0.00600916
0.00757851
0.00520102
0.00307335
0.00643076
0.00100204
0.00675485
0.00270768
0.00873241
0.00387185
0.00142534
0.00219633
0.00209052
0.0108121
0.00944505
0.00679721
0.00940637
0.00139989
0.00675071
0.00167354
0.00291491
0.00161152
0.00390387
0.00032535
0.0157204
0.00197539
0.00951288
0.00433112
0.00188138
0.00678453
0.00683189
0.00683317
0.00675178
0.000435124
0.00174641
0.00681935
0.00387304
0.00130227
0.0067508
0.0112531
0.0094356
0.0068044
0.00684565
0.00678031
0.00674916
0.00225998
0.00674865
0.00746416
0.00285101
0.00284891
0.00618586
0.0022892
0.00430678
0.0051891
0.0118662
0.0068203
0.00673566
0.00681762
0.0068362
0.011148
0.0019192
0.00578398
0.00865588
0.00681978
0.00681213
0.00533255
0.00679161
0.00682427
0.00135445
0.00383257
0.00783614
0.0103299
0.0103976
0.00679431
0.0110516
0.00675425
6.19897e-05
0.00671626
0.0015777
0.010379
0.00676835
0.00105492
0.00723511
0.00425147
0.00682761
0.00680558
0.00463693
0.00961566
0.00674504
0.00683509
0.0068872
0.00694162
0.00114506
0.0068302
0.0038697
0.00671945
0.00687161
0.00106297
0.00285085
0.00652211
0.0017524
0.00248747
0.0118032
0.00417245
0.0069014
0.00675744
0.0084877
0.0068242
0.00244731
0.00681107
0.00720175
0.00673039
0.00679692
0.00543216
0.00965765
0.00673359
0.00680454
0.00672185
0.00153963
0.0011903
0.00181676
0.00673325
0.00653378
0.00673356
0.0103558
0.00677981
0.00235102
0.00210746
0.00681889
0.00108118
0.00509527
0.00856915
0.00465599
0.00682481
0.00331812
0.00359756
0.00145524
0.00683651
0.00682813
0.00674424
0.010834
0.0067865
0.00682183
0.00938475
0.00668082
0.00596066
0.00393049
0.00683824
0.00682555
0.0132934
0.00345392
0.0207729
0.0131169
0.00674945
0.00230163
0.0068386
0.00200664
0.00221373
0.00680499
0.00682154
0.00674465
0.00674838
0.00746373
0.00213705
0.00956647
0.0102784
0.00676307
0.00631177
0.00237564
0.00113193
0.0067619
0.00197099
0.00915619
0.00618822
0.00678591
0.00545335
0.00682509
0.00638894
0.0110694
0.00668956
0.00674455
0.00290078
0.00636099
0.00683313
0.00530611
0.00667845
0.00183622
0.000330775
0.00672237
0.00980232
0.00576418
0.00673472
0.00732277
0.00215885
0.00338994
0.00337938
0.0035434
0.00622051
0.00684505
0.00607983
0.00681187
0.00265633
0.00195076
0.00681609
0.00386362
0.00117027
0.0100426
0.00674102
0.00195299
0.0106467
0.00245646
0.00679448
0.00682205
0.0136025
0.00359199
0.00262186
0.0068237
0.0113274
0.00190764
0.00677354
0.00502158
0.00429122
0.00684489
0.000413597
0.00685007
0.00628009
0.00681924
0.00671444
0.00683988
0.00672234
0.00869178
0.00681628
0.00673152
0.00249612
0.00300278
0.00643417
0.00163488
0.00684798
0.00673574
0.00670692
0.00677837
0.0135823
0.0130692
0.000152697
0.00704899
0.00432549
0.0117867
0.00477221
0.0106286
0.0102736
0.0089878
0.00676832
0.00558601
0.00676421
0.00685298
0.00683738
0.00665349
0.00117508
0.00203639
0.0027923
0.006748
0.00673643
0.00194998
0.00683781
0.00683373
0.00685065
0.0110485
0.00308451
0.00174957
0.00678791
0.0131815
0.00682456
0.00680464
0.00678822
0.00225798
0.0067635
0.00240553
0.0102458
0.0022332
0.00765435
0.0150592
0.00685916
0.00339421
0.0132979
0.00188143
0.00682241
0.00683616
0.0067516
0.0101942
0.00671903
0.00314839
0.00490606
0.00261376
0.018706
0.0172547
0.00214126
0.0115084
0.00682818
0.00671135
0.00461865
0.00383083
0.00680537
0.00679834
0.00256174
0.00671906
0.00135981
0.00684715
0.0067921
0.00630901
0.00679677
0.00280066
0.010163
0.00849464
0.0038555
0.00681748
0.00137013
0.00675678
0.00225967
0.00674733
0.00159841
0.00199863
0.00683257
0.00684594
0.00676052
0.00155898
0.0043233
0.00113807
0.00170335
0.00332914
0.00539003
0.0019118
0.00192779
0.00824186
0.006757
0.010537
0.00678599
0.0108769
0.000277956
0.0103684
0.00832347
0.00682799
0.00266549
0.00501164
0.00684636
0.00571437
0.00684328
0.00680823
0.00353
0.00681205
0.00265088
0.000324895
0.00132237
0.00814868
0.00389976
0.00235765
0.00675507
0.00679852
0.00681988
0.00166569
0.00201102
0.010749
0.00215355
0.00682062
0.00675117
0.00679576
0.00104488
0.00649775
0.00673567
0.00492352
0.00127205
0.00260597
0.00320039
0.00390782
0.0107671
0.00332226
0.00263036
0.00676072
0.00304772
0.00109639
0.00456224
0.00210021
0.00679399
0.0082256
0.00286807
0.00681676
0.00260123
0.0111449
0.00380722
0.00347938
0.00672113
0.00972417
0.00682936
0.00672536
0.00682317
0.00673325
0.00122823
0.00685969
0.00512352
0.00700426
0.00687779
0.00415367
0.00275642
0.0123848
0.00322542
0.0109178
0.00682165
0.000356035
0.00642735
0.0098075
0.00289784
0.00683049
0.0118143
0.00676013
0.00678581
0.0162522
0.00434579
0.00333064
0.000983718
0.0032622
0.00560393
0.00279126
0.00681142
0.00672819
0.00679084
0.00275059
0.0067587
0.0054173
0.0041682
0.00134782
0.0016232
0.00625084
0.00587407
0.0068552
0.0112846
0.00807325
0.00679248
0.00683927
0.00307762
0.00136878
0.00117395
0.00296531
0.0109298
0.00950774
0.0011135
0.0066218
0.00343593
0.00741117
0.00457408
0.000749117
0.00685355
0.00684775
0.00678352
0.00675993
0.00673175
0.00250152
0.00852875
0.00549665
0.0133073
0.00444187
0.00296824
0.0104147
0.011743
0.0058517
0.0113049
0.00197121
0.00186248
0.00671493
0.00684476
0.00220932
0.00603057
0.00669128
0.00873501
0.0118253
0.00678662
0.00682023
0.00675499
0.00134785
0.00681585
0.00275177
0.0104672
0.00673851
0.0067216
0.00677394
0.00679903
0.00195414
0.00976774
0.00373951
0.00464528
0.00191485
0.0067459
0.0129492
0.00160485
0.00683518
0.000274123
0.00128142
0.0107527
0.00353122
0.00751823
0.00685017
0.00304977
0.010205
0.00140879
0.00543975
0.00683997
0.00665252
0.00656153
0.00373356
0.0075575
0.00298893
0.00684032
0.00366038
0.0122333
0.00994917
0.00663758
0.00669536
0.0129309
0.0116002
0.00682995
0.00471021
0.00198551
0.00673253
0.00673209
0.0101745
0.00675212
0.00109511
0.0129857
0.00786173
0.00675881
0.0013097
0.00153371
0.00681186
0.00680004
0.0112573
0.00745367
0.00679028
0.00519113
0.00129716
0.00107021
0.011923
0.00394503
0.0048259
0.0124909
0.0125615
0.00275587
0.00671941
0.00280497
0.00671643
0.0068152
0.00761094
0.00255139
0.00219688
0.00381406
0.00620138
0.00683128
0.00675855
0.00636282
0.00611001
0.00726411
0.0038891
0.00142617
0.00308016
0.0023909
0.00241388
0.0101146
0.00940134
0.0081287
0.00676735
0.00362835
0.00279673
0.00483796
0.00135943
0.0108191
0.00680725
0.00142861
0.00921906
0.0048463
0.00198636
0.00234869
0.00198599
0.00192587
0.00516305
0.00175059
0.00161156
0.0014764
0.00133579
0.00186923
0.00242482
0.00604474
0.00672402
0.00274222
0.00201027
0.00675924
8.13575e-05
0.0114578
0.00103205
0.0115493
0.00678767
0.00680205
0.00315627
0.00618635
0.00605969
0.00655102
0.00209985
0.00871161
0.00265951
0.00684148
0.00546379
0.00397828
0.0011833
0.0117697
0.00330341
0.000207663
0.0100392
0.00188397
0.0110845
0.00217459
0.00211408
0.0117858
0.00669257
0.0102513
0.0108794
0.00676469
0.00268309
0.00213175
0.00627355
0.00681624
0.00112927
0.0166705
0.00683329
0.00683378
0.0108994
0.00030828
0.0025746
0.00684908
0.00115234
0.00166882
0.0119103
0.00748579
0.00681266
0.0067316
0.00628932
0.00691193
0.00961033
0.00274584
0.00994321
0.0020127
0.000266531
0.013026
0.00692492
0.00672804
0.00983697
0.00683787
0.0110709
0.00678519
0.01137
0.00602436
0.00677301
0.00759266
0.00678028
0.00188925
0.00961249
0.0068406
0.00658952
0.00583525
0.00121322
0.00774549
0.00142659
0.0117231
0.00695868
0.00688675
0.00314456
0.00245105
0.0109868
0.00964076
0.00201381
0.00107866
0.00172166
0.00427253
0.00676551
0.00683432
0.00674223
0.00671543
0.000297902
0.00253385
0.00825954
0.00224437
0.00146981
0.00679816
0.0121492
0.000754679
0.0016824
0.00673174
0.00551388
0.00672033
0.0109757
0.00570332
0.0103949
0.000377133
0.00176234
0.000678908
0.00675586
0.0026319
0.00143243
0.00026337
0.000231849
0.00675693
0.00161476
0.00681674
0.0067679
0.00130367
0.00557437
0.00297002
0.00683671
0.00204354
0.00100845
0.0105925
0.00369914
0.00967999
0.00801432
0.00683182
0.00314207
0.00682953
0.0015614
0.0068364
0.00191598
0.00663797
0.00250896
0.0118705
0.0105587
0.00692243
0.00135949
0.0109855
0.00181726
0.00659119
0.014102
0.00195143
0.00685301
0.00673113
0.00779641
0.00327778
0.00169708
0.000113758
0.00358799
0.00506033
0.00687334
0.00774044
0.0102234
0.00419117
0.00109597
0.00290729
0.00183144
0.00202007
0.0088676
0.00339988
0.00641753
0.000794068
0.00355078
0.000309597
0.00518519
0.00736712
0.000803832
0.00131107
0.00282503
0.0181962
0.00651124
0.00856564
0.00141322
0.00220456
0.00217441
0.00671946
0.00672482
0.00947002
0.0100793
0.00614838
0.00681738
0.00212971
0.00562196
0.00702806
0.00284972
0.0107643
0.0047643
0.0104926
0.00173997
0.0118526
0.00670551
0.000920997
0.00909751
0.00693906
0.00198618
0.00677122
0.00401032
0.0068223
0.0122995
0.00678121
0.00680202
0.0116214
0.00386996
0.00671452
0.01118
0.00679103
0.00684347
0.00675202
0.00682797
0.00683202
0.000353593
0.0122023
0.00677647
0.00177078
0.0021191
0.00215883
0.00144683
0.00203446
0.00482754
0.00231751
0.00672024
0.0122403
0.00553974
0.0106385
0.00693386
0.00634878
0.000827924
0.00279748
0.00185464
0.0101603
0.00671983
0.00659105
0.00290889
0.00241043
0.0047102
0.00681478
0.0050759
0.00114983
0.00681097
0.000565481
0.00672214
0.00826678
0.00149586
0.010134
0.00124137
0.00129657
0.011459
0.00684619
0.00683769
0.00223236
0.00670853
0.00683686
0.00683767
0.0047983
0.00679355
0.00673001
0.00674983
0.00222273
0.00666371
0.00602021
0.00685426
0.00432235
0.00195604
0.00645841
0.00843854
0.00608193
0.00674884
0.00201153
0.00220724
0.00689481
0.00680143
0.00145134
0.00329521
0.0091957
0.00332774
0.00184541
0.00673721
0.0068477
0.00134701
0.0121342
0.00210283
0.0034501
0.00673358
0.012014
0.00682631
0.00673005
0.00208907
0.00375538
0.00152549
0.0110798
0.00194162
0.00183767
0.00220513
0.0049904
0.0068522
0.00684038
0.00233409
0.0124776
0.00217946
0.00205236
0.00968324
0.00502789
0.00683198
0.0030319
0.00113929
0.00199361
0.00681567
0.00194141
0.00195626
0.00300357
0.00682897
0.00680537
0.0013329
0.0030501
0.00138929
0.0132183
0.00656928
0.00240238
0.00683328
0.00219573
0.00505491
0.00685054
0.00133312
0.00869052
0.00241597
0.0144708
0.00679847
0.00684812
0.00672309
0.0112309
0.00108005
0.00662138
0.00138375
0.00186955
0.00683041
0.00685045
0.000602584
0.0110425
0.00135509
0.0104638
0.00158936
0.00245104
0.000125458
0.0017203
0.00255653
0.00879461
0.0019999
0.00987988
0.00681958
0.00195758
0.00157768
0.00678737
0.00284275
0.0023177
0.00188078
0.00478223
0.00144844
0.00679202
0.00642202
0.00312338
0.00671648
0.00683682
0.00674386
0.00674582
0.00677898
0.00681052
0.00331586
0.00685046
0.00679498
0.012169
0.00208325
0.00645042
0.00302775
0.00495328
0.00665957
0.0067495
0.0023192
0.00611414
0.00276914
0.00680328
0.00678925
0.0021751
0.000546193
0.0068364
0.00682649
0.00184747
0.00347652
0.00220146
0.00308277
0.00683768
0.00113067
0.00343537
0.00679448
0.00136743
0.0116852
0.00689678
0.00304461
0.0068349
0.00283292
0.00682829
0.00570305
0.00676001
0.00679354
0.00472446
0.00310721
0.00028389
0.00280665
0.00681426
0.0045288
0.0114462
0.00201795
0.00120766
0.00198853
0.00680987
0.00254559
0.019039
0.00114547
0.00471993
0.00467481
0.00943086
0.0108459
0.00564824
0.00683733
0.00199293
0.0067981
0.00202543
0.0118034
0.00684899
0.0047205
0.00684586
0.0110159
0.00339352
0.00623947
0.0028332
0.0110004
0.00737937
0.00401978
0.00251052
0.00293488
0.00671417
0.0106498
0.00672736
0.00397145
0.00674348
0.00634177
0.00991028
0.00211198
0.00679532
0.00571697
0.000505816
0.00684575
0.00683706
0.00330504
0.00629363
0.00680735
0.00402758
0.00644178
0.00682499
0.00676503
0.00217818
0.00195021
0.00119876
0.00672334
0.00218352
0.00979201
0.00552573
0.00676951
0.00685204
0.00282303
0.00208375
0.00680831
0.00678738
0.00678359
0.00683507
0.00618732
0.00307758
0.00691984
0.00217629
0.00621877
0.00675433
0.00664128
0.0022608
0.00275091
0.00191943
0.0068093
0.00457455
0.00904138
0.00564558
0.00305033
0.00554542
0.0101679
0.00196475
0.00253071
0.00132152
0.0068466
0.0131369
0.00600437
0.00402434
0.00673817
0.00672165
0.00157955
0.00671654
0.0129365
0.0105208
0.00682554
0.000602738