/*--------------------------------*- C++ -*----------------------------------*\
| =========                 |                                                 |
| \\      /  F ield         | OpenFOAM: The Open Source CFD Toolbox           |
|  \\    /   O peration     | Version:  v2012                                 |
|   \\  /    A nd           | Website:  www.openfoam.com                      |
|    \\/     M anipulation  |                                                 |
\*---------------------------------------------------------------------------*/
FoamFile
{
    version     2.0;
    format      ascii;
    class       surfaceVectorField;
    location    "850";
    object      Uf;
}
// * * * * * * * * * * * * * * * * * * * * * * * * * * * * * * * * * * * * * //

dimensions      [0 1 -1 0 0 0 0];


internalField   nonuniform List<vector> 
20642
(
(0.442914 0.0104987 -6.99194e-21)
(0.452993 0.0125569 -1.17843e-20)
(0.462759 0.0166532 7.444e-21)
(1.03122 0.0213822 2.23286e-22)
(1.03233 0.0206925 -4.46623e-22)
(1.03067 0.0200235 5.98457e-22)
(1.08002 0.067798 -8.31516e-21)
(1.07944 0.0680181 -1.7707e-21)
(1.07933 0.0685971 -6.82723e-21)
(1.03883 0.012646 -2.29453e-21)
(1.03876 0.0132607 -1.34817e-21)
(1.03813 0.0126911 0)
(1.02105 0.0025497 0)
(1.02099 0.00122222 0)
(1.01963 0.00234887 0)
(1.02983 0.0220347 -1.31639e-22)
(1.03093 0.0232476 0)
(1.055 0.0264903 -6.32386e-21)
(1.05409 0.0259348 0)
(1.05421 0.026916 -1.39698e-21)
(1.03707 -0.0107776 1.46111e-21)
(1.04377 -0.0153507 0)
(1.03404 -0.0176579 0)
(1.06449 0.0155436 -1.39309e-20)
(1.06388 0.016094 -6.54215e-21)
(1.06489 0.0164557 1.38674e-20)
(0.0081781 -0.0691779 -1.70741e-20)
(0.0190411 -0.0705098 -3.40422e-20)
(1.03157 -0.00769856 -9.59739e-22)
(1.03848 -0.00557021 1.01745e-21)
(1.02877 0.0112858 -2.50538e-21)
(1.02907 0.0117513 -2.72862e-21)
(1.02932 0.0113766 -4.31149e-21)
(1.01312 0.000183226 2.13519e-21)
(1.01328 0.000115318 0)
(0.662129 -0.0658634 -1.84779e-21)
(0.612899 -0.0618001 0)
(0.665441 -0.045964 6.94356e-21)
(1.02051 0.0203447 -3.85841e-22)
(1.0209 0.0210649 -4.33918e-22)
(1.02135 0.0204759 -1.59941e-22)
(0.430381 0.00834773 -2.22238e-20)
(0.410126 0.00328845 -9.82481e-21)
(1.00186 2.12118e-05 9.19732e-23)
(1.00188 6.09547e-06 -3.38282e-23)
(1.00075 -7.30914e-06 9.84859e-23)
(1.02721 -0.00451127 -5.52313e-22)
(1.02364 -0.00118794 1.2226e-21)
(1.02921 -0.000605692 -3.05759e-21)
(1.07115 0.0606438 -6.25685e-22)
(1.07168 0.0614444 -1.04128e-20)
(1.07058 0.0614047 1.14222e-20)
(0.448261 0.0358023 0)
(0.482067 0.0433344 -1.27298e-20)
(0.479731 0.0397681 8.6076e-22)
(1.0229 0.028165 7.38671e-22)
(1.02217 0.0289209 0)
(1.02206 0.027641 5.00801e-22)
(1.0164 0.00835208 -6.52666e-23)
(1.01646 0.00842918 -2.70608e-22)
(1.01659 0.00861018 -1.36447e-22)
(1.06412 0.0433314 -8.82395e-21)
(1.06475 0.0428299 1.2165e-21)
(1.06482 0.0439904 -4.207e-21)
(1.01634 0.00819306 4.64558e-25)
(1.01622 0.0080564 -7.84351e-24)
(1.0367 0.0200463 -9.69014e-21)
(1.0372 0.0205357 -3.79481e-21)
(1.03651 0.0204148 3.25182e-21)
(1.01937 0.0254852 6.50994e-23)
(1.02026 0.0262171 8.89191e-23)
(1.02046 0.0249298 1.36573e-22)
(0.922136 0.13245 -3.36784e-21)
(0.969081 0.128772 -1.24246e-21)
(0.969066 0.131813 -3.11474e-21)
(0.0152663 -0.06033 3.52848e-20)
(1.01677 0.0128835 1.40383e-21)
(1.01633 0.015056 9.82106e-22)
(1.01875 0.0139816 7.59897e-22)
(1.01104 -0.000910867 7.67992e-23)
(1.01124 -0.000974902 4.22986e-23)
(1.0109 -0.000896263 -6.72728e-24)
(5.09441e-05 -0.0388277 3.5582e-21)
(0.0250881 -0.049502 9.10495e-21)
(1.0779 0.0481785 1.03918e-21)
(1.0787 0.0484887 5.66652e-21)
(1.07781 0.0488453 4.50077e-21)
(1.03474 0.0154034 -4.9306e-21)
(1.03415 0.0149933 -6.61244e-22)
(1.03473 0.0149012 -1.22085e-21)
(0.489309 0.0250884 -1.32501e-20)
(0.506891 0.0292279 -1.09874e-20)
(0.503702 0.0284715 2.86748e-21)
(1.01368 0.00296328 9.97221e-24)
(1.0135 0.00291402 -2.3654e-23)
(1.01394 0.00301017 -1.96033e-23)
(1.0526 -0.0156071 -1.0603e-21)
(1.04921 -0.0252351 -1.17749e-21)
(1.02655 0.0196488 5.13811e-22)
(1.02686 0.0200474 -3.62624e-21)
(1.02651 0.0200782 -2.67595e-21)
(1.00277 0.000121525 -2.43057e-22)
(1.0054 0.00029867 -2.96549e-22)
(1.00249 8.92137e-05 -1.18189e-21)
(1.05591 0.0270216 -4.74838e-21)
(1.05567 0.0260357 8.81878e-21)
(1.02936 0.0410871 6.52334e-22)
(1.02945 0.0425008 6.77612e-23)
(1.03076 0.0416646 -1.52393e-22)
(1.00042 -5.33798e-05 -2.26935e-22)
(1.00025 -1.44199e-05 -3.88774e-22)
(1.00109 -3.61642e-05 -1.12758e-22)
(1.01406 0.0021084 4.56875e-23)
(1.01448 0.00236508 1.26012e-22)
(1.01441 0.00217938 1.62175e-22)
(1.05963 0.0118644 7.25582e-21)
(1.05864 0.0124174 8.42101e-21)
(1.05863 0.0112553 -1.54159e-20)
(1.07646 0.0591451 -2.65102e-21)
(1.07712 0.0587882 2.4202e-22)
(1.07714 0.0598099 -6.34593e-21)
(1.07576 0.0583867 6.66981e-21)
(1.07553 0.059467 -1.62457e-21)
(1.06645 0.0497406 6.53567e-21)
(1.06206 0.0507898 -6.17861e-22)
(1.06714 0.0480792 -1.36664e-21)
(1.02374 0.0275047 6.85146e-22)
(1.02402 0.0286058 -3.19326e-22)
(0.222719 0.132713 -2.03873e-21)
(0.317126 0.129924 1.75357e-20)
(0.297916 0.127379 -7.41317e-22)
(0.966899 0.0446077 0)
(0.935201 0.0117011 0)
(1.00725 0.0486417 3.51777e-21)
(1.01357 0.00294782 2.8524e-23)
(1.01394 0.00300178 1.09525e-22)
(1.02827 0.0112735 4.59547e-21)
(1.02844 0.0109104 3.15067e-21)
(1.0578 0.0562243 6.39135e-21)
(1.05761 0.0561133 2.59798e-21)
(1.05787 0.0560641 2.76427e-21)
(0.267491 0.0016962 6.65116e-21)
(0.34032 0.00388436 0)
(0.263426 0.000898737 0)
(1.02249 0.0116274 2.97528e-23)
(1.02225 0.0112586 -9.12192e-22)
(1.02209 0.0114426 0)
(1.02364 0.0124124 -3.90167e-21)
(1.02335 0.0120366 -1.50734e-21)
(1.02376 0.0121369 0)
(1.05798 0.0563269 -6.49799e-21)
(1.05773 0.0565005 5.80975e-21)
(0.158539 -0.00467197 1.73464e-20)
(1.06332 0.0436925 -2.4894e-21)
(1.06343 0.0425094 -1.93094e-21)
(1.01363 0.00186839 -1.2183e-22)
(1.01375 0.00195452 -2.34582e-22)
(1.0662 0.0491354 1.81926e-21)
(1.06839 0.0513324 -1.19277e-21)
(0.375769 -0.0229141 -2.73056e-22)
(0.31825 -0.0325128 0)
(0.293014 -0.0235098 0)
(1.02337 0.0116466 3.03869e-22)
(1.02492 0.0104105 0)
(1.02303 0.00930816 -5.58341e-22)
(1.00203 -5.59792e-05 -4.30715e-23)
(1.00217 -4.88328e-05 7.59532e-23)
(1.00267 -6.28133e-05 8.01317e-23)
(1.03692 0.0195462 -3.40347e-22)
(1.03619 0.019527 -3.82892e-21)
(0.830223 0.0726194 3.20102e-21)
(0.828735 0.074695 1.72511e-20)
(0.798612 0.0745266 1.68753e-20)
(1.00124 -0.00970935 0)
(1.00517 -0.00943156 0)
(1.00313 -0.00659612 0)
(1.01734 0.0103416 2.10246e-21)
(1.01835 0.0078059 -6.32114e-22)
(1.02043 0.00960616 1.27221e-21)
(1.05322 -0.00742874 -5.00431e-22)
(1.06095 -0.0147692 -8.68787e-21)
(1.02441 -0.00950162 -1.59399e-21)
(0.407468 0.0100231 2.14613e-20)
(0.393238 0.00784241 -3.91637e-21)
(0.38844 0.00732977 8.4068e-21)
(0.960557 0.075295 6.09672e-21)
(0.974765 0.0751505 6.14178e-21)
(0.929955 0.0744273 4.8867e-21)
(0.47693 0.0223345 -5.65354e-21)
(0.473926 0.0222539 -1.35488e-20)
(1.03463 0.00466026 0)
(1.03538 0.00482879 1.65001e-21)
(1.03467 0.00513135 -2.83037e-21)
(1.01324 0.00170252 1.16342e-22)
(1.01352 0.00178227 6.10738e-23)
(1.0213 0.029806 -6.25285e-22)
(1.02239 0.0301985 -9.85728e-22)
(1.03316 0.021593 -3.07278e-22)
(1.03352 0.0221648 -1.27268e-21)
(1.0328 0.021794 -6.23181e-22)
(1.01756 0.00709374 -1.40193e-23)
(1.01741 0.0068963 6.13503e-22)
(1.01716 0.00748358 1.82307e-22)
(1.01287 0.00154912 0)
(1.013 0.00156767 -1.23072e-22)
(1.03355 0.021215 6.53405e-21)
(1.03273 0.0210301 1.20271e-21)
(1.03477 0.0156832 -4.87919e-22)
(1.03525 0.0156614 -1.93397e-21)
(1.02062 0.0133522 -3.33335e-22)
(1.02026 0.0130553 -3.59558e-22)
(1.02044 0.0128975 -8.18856e-22)
(1.00209 4.92162e-05 -5.73117e-23)
(1.00209 4.87493e-05 7.70724e-23)
(1.00086 -1.45241e-06 4.9343e-24)
(1.0346 0.00415478 -5.33384e-21)
(1.03388 0.00443545 -3.44196e-22)
(0.932951 0.0673811 1.47777e-20)
(0.972769 0.0680249 0)
(0.96689 0.0677804 0)
(1.01556 0.00202875 1.64879e-21)
(1.01564 0.00227871 -2.15564e-21)
(1.01534 0.00216958 -4.41589e-22)
(0.97871 -0.0142291 -8.98068e-21)
(0.968443 -0.0123054 -5.46609e-21)
(0.974269 -0.0223627 4.91848e-22)
(1.07812 0.0472296 -5.10976e-21)
(1.07703 0.0477384 -5.57878e-21)
(1.01524 0.00119083 1.06535e-23)
(1.015 0.00120717 1.60551e-21)
(1.01451 0.000890283 2.00391e-21)
(1.02954 0.0395112 -2.12893e-21)
(1.02813 0.0401598 1.93547e-21)
(1.00169 3.19068e-05 1.21768e-22)
(1.00267 2.92302e-05 -5.43738e-23)
(1.00383 6.99639e-05 6.17177e-23)
(1.00362 5.65422e-05 2.79446e-22)
(1.00414 0.000114102 -2.95816e-22)
(1.06045 0.0127009 8.77459e-21)
(0.997268 0.0769077 0)
(0.929725 0.0477825 0)
(1.01209 0.00241188 7.47077e-23)
(1.01223 0.00240124 -1.37835e-22)
(1.01191 0.00231392 2.02121e-23)
(1.02386 0.0146099 -4.84114e-22)
(1.02347 0.0143162 -8.08661e-22)
(1.02365 0.0147499 1.2384e-21)
(1.01435 0.0115592 2.41957e-21)
(0.965615 0.12269 -3.24803e-21)
(0.987922 0.118042 6.61269e-22)
(0.973956 0.112459 -2.95656e-22)
(1.00306 0.000121277 0)
(1.00312 0.000110305 -3.4277e-23)
(1.00143 5.05334e-05 0)
(1.01546 0.00139388 3.00635e-21)
(1.01541 0.00114871 2.16799e-22)
(1.00482 0.0862991 -5.43677e-23)
(1.00459 0.0793862 0)
(0.999249 0.0820939 0)
(1.00155 -2.46791e-05 3.1271e-23)
(1.00153 -3.49318e-05 1.20449e-24)
(1.00092 -1.49603e-05 -2.18582e-26)
(1.00161 -2.94597e-05 6.88542e-23)
(1.00219 -7.24565e-05 -3.89573e-23)
(1.02081 0.0137066 3.84619e-22)
(1.02092 0.0135438 1.76342e-21)
(1.00539 0.00036264 1.92484e-22)
(1.00536 0.000334495 8.10709e-23)
(1.00443 0.000256865 2.97199e-22)
(1.01766 0.00735275 -5.55202e-22)
(1.01794 0.00685401 -4.0343e-22)
(0.94297 0.064271 -2.3926e-21)
(0.939895 0.0650282 -6.71938e-22)
(0.903028 0.0664954 -1.88108e-21)
(0.531398 0.0878247 1.10268e-20)
(0.530955 0.0832767 2.52496e-21)
(0.513952 0.0899422 1.00603e-21)
(1.02109 0.0121376 1.46388e-21)
(1.02212 0.0139857 4.75436e-22)
(1.01451 0.00255269 -2.86509e-22)
(1.01494 0.00270649 0)
(0.874078 0.135032 -7.93897e-22)
(0.869991 0.128881 -5.03936e-21)
(1.02017 4.95127e-05 -2.23494e-21)
(1.02025 -7.70329e-06 -6.62497e-22)
(0.527072 0.0338286 -3.85051e-22)
(0.512376 0.030808 -7.25599e-22)
(1.01632 0.0171662 8.60464e-22)
(1.01419 0.016535 8.76456e-22)
(0.825523 0.072352 -6.91345e-21)
(0.865149 0.0742917 -2.35253e-20)
(1.03155 0.0226594 -7.33771e-21)
(1.03196 0.0232431 -3.15452e-21)
(1.03198 0.0224435 2.77936e-21)
(1.07067 0.0597068 2.65857e-21)
(1.0717 0.0598538 2.7777e-21)
(1.00284 5.22457e-06 -1.33001e-22)
(1.00344 5.68775e-05 -5.31371e-23)
(1.00306 2.14811e-05 -3.93852e-23)
(1.07873 0.0671447 6.38642e-22)
(1.07967 0.0668963 2.78483e-21)
(1.07859 0.0662471 -2.01539e-20)
(1.03305 0.00120542 -2.83946e-21)
(1.03323 0.00169952 6.98535e-21)
(1.03251 0.0014252 -2.88298e-21)
(1.00309 9.42827e-05 -1.62362e-22)
(1.00196 3.93308e-05 -2.49798e-23)
(1.01256 0.00145649 -2.5091e-22)
(1.01236 0.00141206 1.59443e-22)
(1.01216 0.00136501 -9.61917e-23)
(1.01969 0.00497071 -7.78671e-22)
(1.01582 0.00554825 -7.25171e-22)
(1.06321 0.0574224 -3.86232e-21)
(1.0624 0.0572517 7.85879e-21)
(1.06299 0.0565114 1.26929e-20)
(0.345419 0.00535463 -7.18881e-22)
(0.365214 0.0088219 -9.00748e-21)
(0.350716 0.00558479 2.72304e-21)
(0.906732 0.0677023 7.94835e-21)
(0.90101 0.0680813 -4.41835e-21)
(1.03707 0.0191265 2.38521e-21)
(1.03725 0.0186507 -2.13966e-21)
(1.03658 0.018614 -4.13717e-21)
(1.0202 0.0291704 -6.17901e-22)
(1.02041 0.0307358 1.85138e-22)
(1.01247 0.00397771 0)
(1.01235 0.00383957 9.90505e-24)
(1.01225 0.00387562 -6.13879e-23)
(1.06398 0.0573516 -9.07962e-21)
(1.06351 0.0580597 -1.25153e-20)
(1.06989 0.0294152 -5.2465e-21)
(1.06964 0.0302281 -1.29607e-20)
(1.07068 0.0299254 -6.33533e-21)
(1.06413 0.078846 -4.94096e-21)
(1.06185 0.0758182 0)
(1.06681 0.0766482 4.72893e-21)
(0.64274 0.0492157 5.78487e-21)
(0.609955 0.0464985 3.76692e-21)
(0.617492 0.0466933 -1.1292e-21)
(1.03107 0.0229593 -5.81611e-21)
(1.03106 0.0221407 1.30345e-21)
(1.07852 0.0518255 -1.06973e-20)
(1.07788 0.0524523 0)
(1.07899 0.0526231 -3.73143e-21)
(0.821221 0.137831 1.40827e-21)
(0.876148 0.139263 1.48824e-21)
(0.291426 -0.0608048 4.75116e-22)
(0.356554 -0.048559 -2.90869e-21)
(0.37753 -0.0527469 4.71127e-22)
(0.301612 0.00689818 0)
(0.297975 0.00641539 0)
(0.318396 0.00951066 0)
(1.01781 0.0233522 1.85709e-22)
(1.01859 0.0245427 -1.19471e-22)
(1.01912 0.0229642 1.27496e-22)
(1.00263 0.000160174 8.83675e-22)
(0.739405 -0.0468675 4.03678e-23)
(0.746997 -0.04068 3.69846e-23)
(0.734793 -0.0142939 -5.34338e-22)
(1.01273 0.00150403 -1.09851e-22)
(1.01252 0.00142193 0)
(0.936175 0.0650765 0)
(0.979508 0.0657964 0)
(1.01479 0.00619281 -1.43764e-22)
(1.01455 0.00596047 -3.20237e-22)
(1.01468 0.00618518 -2.24547e-22)
(1.03233 0.0046621 -5.52757e-22)
(1.03293 0.00491237 2.65527e-21)
(1.03241 0.00516351 -4.40528e-21)
(1.01474 0.0058306 0)
(1.0137 0.00472142 0)
(1.01442 0.00467418 -1.21224e-22)
(0.983793 0.0747398 -7.82483e-21)
(0.940925 0.0750262 0)
(0.83158 0.0772308 -9.51247e-22)
(0.339432 0.13145 1.34813e-21)
(0.36968 0.13213 -1.53564e-20)
(0.295998 0.131574 -6.32062e-21)
(1.02292 0.0118551 -1.64329e-21)
(1.02274 0.0120468 3.92671e-22)
(1.02973 0.0382893 2.39733e-22)
(1.02984 0.037068 2.84701e-21)
(1.02865 0.0373782 2.15458e-21)
(1.0017 -4.7875e-05 4.58925e-24)
(1.00183 -5.22514e-05 3.05434e-24)
(1.00245 -5.29299e-05 -4.03558e-23)
(1.03173 0.00444175 1.00268e-21)
(1.0322 0.00417477 3.75672e-21)
(0.952807 0.131202 -2.73184e-21)
(0.939934 0.125003 -5.44354e-21)
(1.01672 0.00733031 9.04621e-23)
(1.017 0.00738983 -6.75819e-23)
(1.01688 0.00731298 1.05209e-22)
(1.00542 0.000358841 -1.56734e-22)
(1.00583 0.000354077 -6.72813e-23)
(0.594858 0.0461088 1.46442e-23)
(0.58645 0.0444992 -6.08792e-21)
(0.566027 0.0424732 -1.2229e-20)
(1.00157 -1.06102e-05 -6.33278e-23)
(1.00157 -6.98221e-06 -1.58756e-22)
(1.00075 -2.39742e-05 -2.07615e-24)
(1.00256 -1.9659e-05 -6.37745e-23)
(1.00202 -5.40339e-05 2.85939e-23)
(1.0152 0.00437782 1.8169e-21)
(1.0154 0.00464276 2.77165e-21)
(1.01505 0.00449917 -1.76615e-21)
(0.704792 0.083895 0)
(0.720359 0.0853093 3.02457e-21)
(0.675395 0.0841765 0)
(1.02485 0.0199558 4.94297e-22)
(1.02496 0.0199919 6.11851e-22)
(1.02474 0.0196925 -1.91506e-22)
(0.753128 -0.0824798 -5.29716e-22)
(0.472685 0.0551419 5.51658e-22)
(0.468263 0.0653706 6.60731e-23)
(0.506299 0.0599914 1.14294e-21)
(0.995039 0.10026 0)
(0.998941 0.0960107 4.92057e-23)
(0.991241 0.0928919 0)
(0.270346 0.00134211 5.77202e-21)
(0.252655 0.0797791 -3.92807e-24)
(0.315681 0.0684393 -4.08276e-21)
(0.250737 0.0668218 -4.32534e-21)
(1.0052 -0.000215714 -2.64429e-23)
(1.00535 -0.000237008 -9.50991e-24)
(1.00528 -0.000224957 3.52873e-24)
(1.01714 0.0218075 1.41054e-22)
(1.01642 0.0237037 1.67429e-22)
(1.01641 0.00818711 -1.97965e-22)
(1.01647 0.0081432 -1.64395e-22)
(1.01658 0.00841423 5.99678e-23)
(0.650696 0.0483605 -1.61125e-20)
(0.653479 0.0492165 2.26547e-21)
(0.620613 0.045388 -7.70683e-21)
(1.06416 0.014572 -3.97222e-21)
(0.517565 -0.0172622 4.70212e-22)
(0.446078 -0.0212178 -8.01313e-23)
(0.482719 -0.0249537 4.58286e-21)
(1.05329 0.0551338 -1.0117e-21)
(1.05356 0.0544747 -2.23321e-21)
(1.05402 0.0551641 -1.82028e-21)
(1.00154 -2.29333e-05 9.03606e-23)
(1.00217 -1.46858e-05 0)
(1.00141 -2.43774e-05 8.05862e-24)
(1.03956 0.0126898 5.65207e-21)
(1.03896 0.0121632 -2.73456e-21)
(1.05759 0.0558078 -4.01957e-21)
(1.05807 0.0553921 -1.05572e-20)
(1.05797 0.0557755 5.36544e-21)
(1.07006 0.0284703 5.46707e-21)
(1.06907 0.0287873 1.62531e-20)
(1.02485 0.0201574 -4.24798e-22)
(1.02476 0.0198469 1.70316e-22)
(1.05794 0.0127968 1.00377e-20)
(1.05703 0.0122379 -3.59724e-21)
(1.05698 0.0132763 -1.41404e-20)
(1.01621 0.00798077 -1.11413e-22)
(1.02788 0.0112243 1.9552e-22)
(1.02815 0.0115902 3.69195e-22)
(1.05164 0.0595333 4.95975e-21)
(1.0533 0.0602822 4.26976e-21)
(1.05054 0.0608628 4.526e-21)
(1.07786 0.0675027 8.98753e-21)
(1.07803 0.0682053 9.61792e-21)
(1.06148 0.081345 3.2146e-21)
(1.0702 0.0826947 -5.07009e-21)
(1.02755 0.0108399 2.05357e-22)
(1.0274 0.011168 -1.78408e-21)
(1.05106 0.0582499 -3.43957e-21)
(1.05202 0.0580574 0)
(1.01116 -0.000908467 4.47477e-23)
(1.01079 -0.000849651 1.58951e-23)
(0.988724 -0.0134623 -3.9004e-21)
(0.982423 -0.00571302 -7.95518e-22)
(1.05243 0.0553323 -9.55699e-22)
(1.05318 0.0560666 1.51011e-21)
(1.07518 0.0576382 -3.37641e-21)
(1.07607 0.0573268 1.03462e-21)
(1.05725 0.0607354 -1.14986e-22)
(1.05793 0.0607224 8.85778e-22)
(1.0574 0.0599265 -2.76272e-22)
(0.458383 0.0149169 -1.01622e-20)
(0.474528 0.0215424 1.00406e-20)
(0.464213 0.0180459 9.96415e-22)
(1.01229 0.00249716 1.61982e-22)
(1.012 0.00242304 -1.97672e-23)
(0.361198 0.00724561 -8.9087e-21)
(0.375277 0.00980096 -1.06433e-22)
(0.355651 0.00618884 3.10517e-21)
(1.04098 0.027873 -5.5448e-21)
(1.04054 0.0284036 -7.18441e-22)
(1.04022 0.0275813 5.91585e-21)
(0.676921 0.0518857 -5.85771e-21)
(0.669597 0.0514012 1.42623e-21)
(1.01338 0.00285215 -3.14195e-22)
(1.01304 0.00281976 -1.84245e-22)
(1.01645 0.00725183 8.34915e-24)
(1.01657 0.00738317 2.20125e-23)
(1.02525 0.0272165 -1.86423e-21)
(1.02569 0.0281189 -2.19353e-21)
(1.02597 0.0272319 -1.10865e-21)
(0.398256 0.0072008 1.81651e-21)
(0.396295 0.0077163 -1.34806e-20)
(0.414804 0.010226 0)
(0.302698 0.00639854 0)
(0.276749 0.00409234 -2.91192e-20)
(1.02511 0.0180083 -9.58997e-22)
(1.0252 0.0183838 0)
(1.02485 0.0180634 0)
(0.969071 0.121293 -2.15174e-23)
(1.00366 0.118728 -2.6028e-21)
(0.965878 0.114655 4.21018e-21)
(1.02363 0.0178139 0)
(1.02442 0.0176886 0)
(1.02401 0.0185347 1.89006e-22)
(1.03085 0.0390179 -3.56e-21)
(1.01296 0.00157879 2.13578e-22)
(1.0573 0.0559766 0)
(1.01992 0.0127175 4.87212e-22)
(1.02005 0.0131299 9.97147e-22)
(1.0104 0.00289643 -6.68115e-24)
(1.01018 0.00278947 1.69727e-22)
(1.01026 0.00279064 1.37097e-22)
(1.02721 -0.00480503 2.19587e-21)
(1.02762 -0.00257124 -1.40142e-21)
(1.0247 -0.00335378 -2.2931e-21)
(1.02971 -0.00673848 5.16413e-22)
(1.02585 -0.00802219 -7.19028e-22)
(0.380814 0.122253 3.01629e-21)
(1.07816 0.0512007 -9.60204e-21)
(1.07908 0.051282 -1.55717e-20)
(1.01824 0.026128 5.61824e-23)
(0.67032 0.0786359 -9.41429e-21)
(0.666077 0.0805649 9.05233e-21)
(0.699007 0.0800878 3.52315e-22)
(1.00959 0.000661976 1.71763e-21)
(1.00861 0.000595299 -1.05151e-21)
(1.01037 0.000693516 8.04885e-22)
(1.00801 0.000501428 -1.70348e-22)
(1.00818 0.000527505 -1.89449e-23)
(1.00783 0.000501319 -1.76883e-23)
(1.00819 0.000496923 4.25474e-23)
(1.00785 0.000489432 -4.40225e-23)
(0.257648 0.0898755 3.44379e-21)
(1.05542 0.0603743 -3.02397e-21)
(1.05666 0.0605936 -3.07917e-21)
(1.05608 0.0595621 1.51163e-21)
(1.05141 0.0571963 -7.2854e-22)
(1.05338 0.0555225 5.76167e-21)
(1.05167 0.0555589 -2.68112e-22)
(1.02027 0.00119664 1.35219e-21)
(1.02049 0.00134759 -4.03704e-21)
(1.02048 0.0011296 3.50345e-21)
(1.00193 -5.39405e-05 -4.60377e-23)
(1.00137 -4.9504e-05 -5.67755e-23)
(0.762085 0.136019 -1.14457e-21)
(0.763081 0.142763 9.98651e-22)
(0.365818 0.00783063 0)
(1.00708 0.000466915 0)
(1.0073 0.000484795 -2.64502e-23)
(1.00727 0.000495692 -2.02413e-22)
(1.00684 0.000454761 -1.5589e-22)
(1.00687 0.000435158 0)
(1.00085 -3.96121e-05 1.55585e-22)
(1.00013 -5.90051e-05 0)
(1.00837 0.00049309 -1.59111e-22)
(1.00856 0.000517839 1.94237e-23)
(1.00856 0.000490109 -2.23715e-22)
(1.00823 0.000478189 -2.46522e-22)
(0.461782 0.0182483 -1.03177e-20)
(0.474358 0.0214418 -1.41575e-20)
(0.411445 0.117299 -6.19551e-21)
(0.401201 0.113947 0)
(0.437562 0.108593 0)
(1.01807 0.0106017 -1.50007e-21)
(1.01791 0.010305 -6.66615e-22)
(1.01817 0.0105727 -6.65112e-22)
(1.00638 -0.000354749 9.13086e-24)
(1.00659 -0.000373208 -3.26629e-24)
(1.00639 -0.000358477 -7.4258e-24)
(1.05845 0.0539478 -1.50332e-21)
(1.05784 0.0539813 4.48402e-21)
(1.05808 0.0535104 5.31613e-21)
(0.450438 0.0188101 0)
(0.439102 0.0159438 -1.12509e-20)
(0.455184 0.0194434 -8.81149e-21)
(1.00209 -5.83883e-06 0)
(1.0013 2.44427e-06 0)
(1.00129 -1.005e-05 8.83159e-24)
(1.02008 0.00128394 -1.9979e-21)
(1.02008 0.00107204 -1.41145e-21)
(0.969107 0.125462 1.42058e-22)
(0.917318 0.122528 3.17984e-21)
(0.932 0.0648643 0)
(0.925966 0.0643696 0)
(0.968949 0.0656072 0)
(1.05444 0.0614462 -1.43015e-21)
(0.675996 0.0770773 -1.01405e-20)
(0.646554 0.0765824 -1.59086e-20)
(1.05646 0.0578546 -3.37474e-21)
(1.05607 0.0584825 9.8726e-22)
(1.05702 0.0585018 -4.00263e-21)
(1.01488 0.00618342 -1.17132e-21)
(1.01502 0.0063964 4.77012e-22)
(0.381355 0.069952 -6.72244e-22)
(0.379745 0.0586779 1.58732e-21)
(1.059 0.05413 -1.09016e-21)
(1.05859 0.0545685 -8.66055e-21)
(1.01633 0.0187822 -6.32693e-22)
(1.01801 0.0174226 -9.90858e-22)
(1.06959 0.0529055 3.51856e-21)
(1.06942 0.0536107 -2.14422e-21)
(1.0703 0.0535016 4.3653e-21)
(1.02498 0.0176254 6.1087e-22)
(1.02536 0.0179235 1.66784e-22)
(0.429171 0.11809 -1.7921e-20)
(1.03342 0.0021228 9.49719e-22)
(1.03296 0.00230349 -2.60689e-21)
(1.03359 0.0025896 1.35919e-23)
(1.04264 0.0455655 0)
(1.04252 0.0462956 2.5399e-21)
(1.0435 0.0459874 -4.23435e-22)
(1.05331 0.0538568 1.13626e-22)
(1.05324 0.0528713 -4.68575e-21)
(1.05245 0.0534193 3.31427e-21)
(1.01787 0.0105963 0)
(1.01797 0.0105735 -3.72139e-22)
(1.01772 0.0103151 1.83352e-22)
(1.00026 -1.69345e-06 3.29919e-22)
(1.03756 0.019615 9.45733e-21)
(1.02324 0.00670386 -1.16063e-22)
(1.02223 0.00708107 0)
(1.02315 0.00779012 -2.15735e-22)
(1.01311 0.00240602 1.47462e-22)
(1.01327 0.00255218 -6.15003e-22)
(1.01337 0.00252307 -1.23357e-22)
(0.399205 0.0152453 -8.38593e-21)
(0.387431 0.0125962 6.4245e-21)
(0.382213 0.0122542 -2.17569e-21)
(0.661093 -0.147815 -1.63704e-21)
(0.670786 -0.142369 -1.61486e-21)
(0.705086 -0.127256 -1.54663e-21)
(1.01274 0.00140394 -1.88547e-22)
(1.01247 0.00137698 -2.87499e-22)
(1.0123 0.00137377 4.50641e-24)
(1.00675 0.000470208 -1.54482e-22)
(1.0066 0.000429533 1.51159e-22)
(1.01709 0.00748816 -9.38056e-23)
(1.01729 0.00742582 -1.86801e-22)
(1.00691 0.000500027 1.30323e-22)
(1.00667 0.000471752 -1.93105e-22)
(1.03397 0.00193877 9.59992e-21)
(1.01707 0.000270363 1.00307e-21)
(1.01257 0.000187023 -1.04629e-21)
(1.05406 0.0398136 -3.84957e-21)
(1.05465 0.0406635 8.28123e-22)
(1.05365 0.0407706 8.28025e-22)
(1.01303 0.00145597 0)
(1.0132 0.00143055 0)
(0.300942 0.00857161 7.48207e-23)
(0.31893 0.0117065 -1.23261e-21)
(0.529379 0.0922216 -7.43116e-22)
(0.549999 0.0871211 5.10847e-21)
(1.02432 0.00927035 -4.13425e-21)
(1.0244 0.00894782 -1.71868e-21)
(1.02389 0.00894199 3.32472e-22)
(1.01996 0.00695445 9.5884e-24)
(1.02059 0.00659227 -1.59863e-22)
(1.01984 0.00660006 -3.09103e-22)
(1.06222 0.0475197 -3.27513e-21)
(1.06844 0.0493861 -9.27597e-22)
(1.04048 0.046736 -4.79986e-21)
(1.00828 0.000290478 -1.70353e-22)
(1.00847 0.000287574 3.89726e-23)
(1.00814 0.000279675 3.88564e-23)
(1.00407 0.070968 5.60301e-23)
(1.00576 0.0753767 -7.81634e-23)
(1.00849 0.0707303 -7.64114e-22)
(0.416786 0.0186006 2.07002e-21)
(0.411326 0.0179721 -6.17229e-21)
(1.00811 0.000294524 -7.00277e-23)
(1.00844 0.000308697 -1.28431e-22)
(0.424112 0.0131094 1.07061e-21)
(0.418903 0.0124628 1.96555e-20)
(1.01296 0.00225325 1.14521e-22)
(1.01282 0.00231093 4.40453e-22)
(0.745248 0.0820921 -3.2328e-21)
(0.698646 0.0817385 -1.77143e-22)
(1.00153 -2.16666e-05 -1.38031e-22)
(1.00084 -2.54919e-05 2.03811e-22)
(1.02009 0.0188901 9.11295e-25)
(1.01944 0.0184657 -8.58503e-23)
(1.01992 0.0181342 -1.0809e-22)
(1.01778 0.0106123 1.35554e-23)
(1.018 0.0108992 0)
(1.01408 0.00576459 -5.07506e-22)
(1.01385 0.00557685 9.13937e-22)
(1.01388 0.00557396 0)
(1.06454 0.0661134 -6.75889e-21)
(1.06502 0.0650748 -1.06302e-20)
(1.06569 0.066268 2.86295e-21)
(1.00564 0.000346961 3.96271e-22)
(1.00566 0.000318579 -2.33902e-22)
(1.00354 0.000175475 8.45524e-22)
(0.991997 0.105719 -1.0305e-22)
(1.00181 0.108624 4.9824e-22)
(1.03845 0.0323355 0)
(1.03786 0.0329522 -1.44731e-21)
(1.03767 0.0319087 1.48876e-21)
(1.01582 0.0066495 -4.79029e-22)
(1.01442 0.0071872 0)
(1.04055 0.112352 -1.54898e-21)
(1.03514 0.115634 -5.9389e-21)
(1.04759 0.109234 -2.89627e-21)
(0.285927 0.00612868 1.22193e-21)
(1.00277 9.64004e-06 -3.32718e-23)
(1.00272 1.48447e-05 -1.15199e-22)
(1.05995 0.0473395 4.91879e-21)
(1.06063 0.04792 0)
(1.06076 0.0470325 0)
(1.02273 0.00460891 -1.08147e-22)
(1.02322 0.00570566 -3.20027e-22)
(1.02191 0.00540233 3.10967e-22)
(1.03071 0.0231792 -6.51727e-22)
(1.03026 0.0233385 -1.61126e-21)
(1.03029 0.0226272 3.04954e-21)
(1.02203 0.00345969 0)
(1.02074 0.0039868 0)
(1.03386 0.0209261 3.29625e-21)
(1.03421 0.0214875 -2.15025e-21)
(1.01239 0.00239119 0)
(1.01254 0.00237165 0)
(1.01223 0.00228587 9.1589e-23)
(1.00671 0.000432288 0)
(1.0054 0.000316613 3.85375e-22)
(1.05881 0.056131 -2.62318e-21)
(1.05927 0.0555773 -1.07819e-20)
(1.05828 0.0558839 1.13482e-20)
(0.996453 0.00372666 8.6494e-22)
(0.993168 0.00058833 5.55497e-22)
(0.998455 -0.000314134 3.27668e-22)
(1.04303 0.0444847 3.27361e-21)
(1.04183 0.0448285 0)
(1.03421 0.0206049 -1.46716e-21)
(1.0335 0.0204337 -1.67378e-21)
(1.01992 0.00131592 1.15419e-21)
(1.01977 0.00116551 3.90946e-21)
(1.01973 0.00134007 3.06508e-21)
(0.603537 0.0465225 1.18146e-20)
(0.627212 0.0484666 8.40139e-21)
(0.394246 0.00539569 -1.47591e-20)
(0.366944 0.00500255 1.43876e-21)
(1.01199 0.00346668 -3.31906e-23)
(1.01188 0.00334728 -2.37687e-23)
(1.01175 0.00337725 -5.68176e-23)
(1.01114 0.00232232 1.0777e-22)
(1.00974 0.00204182 2.69557e-22)
(1.01108 0.00117426 -1.21624e-22)
(1.0312 0.0236916 -9.06698e-23)
(1.04033 -0.055236 1.05751e-20)
(1.06105 -0.035219 -5.44655e-22)
(1.06447 -0.0359928 4.88647e-21)
(1.08588 0.0584993 -4.14104e-21)
(1.08627 0.059337 -1.41311e-20)
(1.08669 0.0583876 9.20904e-21)
(0.562687 0.0768901 -6.56188e-21)
(0.55183 0.072271 1.50734e-20)
(0.542452 0.0768648 -3.04411e-21)
(0.54035 -0.0101169 -5.48515e-22)
(0.572527 -0.0155909 0)
(1.01094 -0.0141339 5.04784e-23)
(1.00758 -0.011871 4.69552e-23)
(1.00727 -0.015933 3.2223e-22)
(1.06001 0.0728527 7.06058e-21)
(1.05801 0.0745801 -1.74636e-21)
(1.01945 0.00717997 1.31565e-22)
(1.01995 0.00736982 1.67654e-22)
(1.00801 0.070021 0)
(0.978008 0.0691343 8.95025e-21)
(1.0018 -0.0736314 8.69107e-22)
(1.01478 -0.068661 -2.29903e-21)
(1.08007 0.0676754 1.2364e-21)
(1.08153 0.0671266 -1.07166e-20)
(1.01677 0.000406915 0)
(1.0119 8.63989e-05 0)
(1.02029 0.0195839 8.23451e-23)
(1.01976 0.0200286 2.483e-22)
(1.00533 0.126376 -2.18191e-22)
(1.01658 0.00785111 -7.71913e-23)
(1.0165 0.00794027 -4.41813e-23)
(1.01668 0.00802382 5.68744e-23)
(1.03331 0.0189534 -7.59715e-22)
(1.03419 0.0206181 -1.93665e-22)
(1.07463 0.0569334 2.37286e-22)
(1.07436 0.0579228 5.54515e-21)
(1.00183 1.31944e-06 1.06662e-22)
(1.00164 -4.36721e-06 1.66133e-22)
(1.00071 -2.7852e-05 1.62386e-22)
(0.675971 0.0516296 -5.25616e-21)
(0.643769 0.047766 -4.85062e-21)
(1.01546 0.00158071 1.08834e-21)
(1.01549 0.00183573 -2.0454e-21)
(1.01526 0.00170996 -6.38049e-23)
(1.08086 0.0329349 -2.67065e-21)
(1.08178 0.0335199 1.17052e-20)
(1.01103 9.66371e-05 1.63952e-22)
(1.0109 0.000111494 3.26617e-23)
(1.01135 9.34478e-05 1.68345e-22)
(0.364304 0.0303006 0)
(0.368255 0.0227348 2.65331e-20)
(1.00901 0.00194932 2.19435e-22)
(1.00886 0.00187111 0)
(1.00887 0.00181629 0)
(1.04346 0.0437443 3.10249e-21)
(1.04278 0.0430012 2.69899e-22)
(1.04384 0.0429418 0)
(1.023 0.0172622 -5.09282e-22)
(1.02279 0.0183457 -2.90648e-23)
(1.01413 -0.0144029 -7.75711e-25)
(1.01256 -0.0110249 4.67907e-23)
(1.00282 7.37861e-05 1.04278e-22)
(1.00217 2.86123e-05 -9.46608e-23)
(1.07107 0.0533641 -2.84529e-23)
(1.07193 0.0532847 8.17945e-21)
(1.07132 0.0525683 -4.29441e-22)
(0.967361 0.0665035 -7.59339e-21)
(1.00527 0.0680089 -1.35322e-20)
(0.971816 0.0666694 1.27343e-21)
(1.02421 0.0142734 8.53341e-22)
(1.02402 0.0144652 -8.78492e-22)
(1.02383 0.0139457 1.82152e-21)
(1.01667 0.00774357 -9.00653e-24)
(1.01647 0.00766768 -1.09462e-22)
(0.54212 0.0362862 1.306e-21)
(0.547267 0.0378308 1.33832e-21)
(0.954623 0.0675119 2.41437e-21)
(0.962553 0.0672114 -2.5715e-21)
(0.99682 0.0678403 0)
(0.744731 0.0437357 -2.68795e-21)
(0.772036 0.0483496 1.10165e-21)
(0.720511 0.0480143 -3.03252e-22)
(0.721539 -0.0667309 -1.66296e-21)
(0.665476 -0.0823617 -5.86457e-21)
(1.00794 0.000303183 1.51035e-23)
(1.00778 0.00028738 2.09725e-23)
(1.01886 0.0111354 1.16721e-21)
(1.01869 0.0108063 8.07534e-22)
(1.01898 0.0110677 4.66115e-22)
(0.920248 0.0641908 0)
(0.914834 0.063914 1.16162e-20)
(0.957883 0.0649481 0)
(1.06032 0.0703689 4.51988e-21)
(1.06141 0.0715682 4.04401e-22)
(1.00812 0.000320569 1.65355e-22)
(1.00781 0.000307651 -1.22913e-22)
(1.02396 0.00339027 2.4883e-22)
(1.0252 0.0114208 -7.67697e-23)
(1.02552 0.0118023 1.41942e-21)
(1.02505 0.0116073 -2.10706e-22)
(1.00984 0.0355705 0)
(1.00726 0.0352054 -2.03449e-22)
(1.00833 0.038141 -6.54368e-23)
(1.04411 0.0443545 6.00784e-23)
(1.05944 0.0589921 -8.89317e-23)
(1.06015 0.058763 5.1889e-21)
(1.05962 0.0582545 9.38446e-22)
(1.05276 0.0648495 -2.57298e-21)
(1.051 0.0643062 0)
(1.05223 0.0631371 0)
(1.00425 0.0661701 -8.03471e-22)
(1.00005 0.0696756 1.85845e-22)
(1.07833 0.0341308 -9.10853e-22)
(1.07759 0.034653 1.08153e-20)
(1.07847 0.0350609 8.38006e-22)
(0.506301 0.0318497 -9.07567e-21)
(0.490894 0.0266271 1.20162e-20)
(0.500928 0.0294828 0)
(1.01271 0.00407109 7.19754e-24)
(1.01259 0.00410724 6.45259e-23)
(1.02461 0.0146041 0)
(1.0244 0.0140867 1.12174e-21)
(1.02217 0.000351677 -1.32047e-22)
(1.02055 -9.52778e-05 0)
(1.06959 0.0693551 -7.7249e-21)
(1.07084 0.0688765 1.28031e-21)
(1.0704 0.0704839 -1.15515e-21)
(1.0014 -1.916e-05 -4.23099e-23)
(1.00054 -1.60347e-05 -2.02653e-22)
(1.00148 -2.26494e-05 -1.47219e-23)
(0.433191 0.00971089 -3.32479e-20)
(1.07906 0.033678 5.36375e-22)
(1.07805 0.0333635 7.14956e-23)
(0.918678 -0.0439461 4.5413e-21)
(0.930107 -0.0222328 -3.17741e-21)
(1.02356 0.012603 -2.40663e-21)
(1.02393 0.0127052 -2.14151e-22)
(1.05646 0.0688852 0)
(1.05902 0.0689278 -1.97833e-21)
(1.05702 0.0668843 3.98602e-22)
(1.01152 0.00356738 1.0392e-22)
(1.01209 0.00257415 -1.7301e-22)
(1.01812 0.105628 1.56137e-21)
(1.03157 0.124942 2.61817e-21)
(0.989654 0.11486 2.92261e-21)
(1.01336 0.0015265 -2.90753e-22)
(1.01354 0.00181887 -1.459e-22)
(1.0133 0.00159109 -4.25532e-23)
(1.05138 0.0588463 5.58681e-21)
(1.05732 0.0456246 -4.64683e-21)
(1.0231 0.0158812 -2.11071e-22)
(1.02193 0.0167138 5.93777e-23)
(1.02425 0.00952753 3.25078e-21)
(1.02474 0.00957155 -1.96209e-21)
(1.05435 0.0806398 1.13464e-20)