/*--------------------------------*- C++ -*----------------------------------*\
| =========                 |                                                 |
| \\      /  F ield         | OpenFOAM: The Open Source CFD Toolbox           |
|  \\    /   O peration     | Version:  v2012                                 |
|   \\  /    A nd           | Website:  www.openfoam.com                      |
|    \\/     M anipulation  |                                                 |
\*---------------------------------------------------------------------------*/
FoamFile
{
    version     2.0;
    format      ascii;
    class       volScalarField;
    location    "250";
    object      p;
}
// * * * * * * * * * * * * * * * * * * * * * * * * * * * * * * * * * * * * * //

dimensions      [0 2 -2 0 0 0 0];


internalField   nonuniform List<scalar> 
13851
(
-0.12153
-0.0548062
-0.0536056
-0.408154
0.00441433
-0.0647945
-0.0430594
-0.00725143
-0.0870873
0.031091
-0.154256
0.0128684
0.0411248
-0.0975877
-0.0853537
-0.077465
-0.369468
-0.0218715
-0.198707
-0.12272
-0.098086
-0.0216065
-0.395621
0.00655982
-0.300577
-0.0737451
-0.0888042
-0.177191
-0.07399
-0.0106201
-0.391455
-0.0431932
-0.113051
-0.121979
-0.117319
-0.0756779
0.00662936
-0.350446
-0.317576
0.0117942
-0.172983
-0.0750077
-0.39288
-0.189972
-0.0778121
-0.000668617
-0.0134538
-0.0828615
-0.0283145
0.0416587
-0.273152
0.0489591
-0.0777961
-0.059369
-0.0827167
0.0129133
-0.114445
-0.177798
-0.0817588
-0.139865
0.012901
-0.0897267
0.027151
-0.0285965
0.0438895
0.0499312
-0.14108
0.275513
-0.00333946
-0.402929
-0.380397
-0.107946
0.0262928
-0.136974
-0.0663225
-0.00238358
-0.371582
-0.0132377
-0.302829
0.0102666
-0.00451752
-0.276372
-0.113736
-0.100884
-0.13574
-0.386984
-0.0248801
-0.0731279
0.0297851
-0.39027
0.04998
-0.0443979
-0.301082
-0.388584
-0.289019
-0.154004
0.00575457
-0.0802388
-0.219332
-0.23003
-0.0807446
0.188515
0.184063
0.0309517
-0.00468259
-0.113861
-0.00404867
-0.381904
-0.0444296
-0.0211297
-0.0119297
-0.00140819
-0.211858
-0.150504
-0.10137
-0.0587532
-0.00606657
-0.007583
-0.408816
-0.402823
-0.155646
-0.0166762
0.00215303
-0.129708
-0.169063
0.316388
0.00507071
-0.124509
-0.136094
-0.0964094
-0.0180945
-0.0821015
-0.345074
-0.117084
-0.159074
-0.295144
0.267389
-0.385561
0.160267
-0.0922989
-0.272047
0.0461184
0.0304829
0.199254
-0.278867
0.0117794
-0.0131836
-0.389889
-0.0788539
-0.129599
-0.0815335
-0.209837
-0.154757
-0.186145
0.0494884
0.0388887
0.0113092
-0.322185
-0.0904969
-0.04622
0.00676336
-0.0739288
-0.111399
-0.0836648
-0.096138
-0.08178
-0.0837919
-0.275576
-0.0121065
-0.214642
0.0134297
-0.00619711
-0.130862
0.0054277
-0.28536
-0.103703
-0.0866301
-0.00681003
-0.0645237
-0.0861013
-0.16573
-0.185168
-0.0171231
-0.0946012
-0.376163
-0.0795405
-0.111749
0.125435
0.044963
-0.00730939
-0.274219
-0.0912166
-0.0963454
-0.0664299
0.0100326
-0.0790354
-0.110157
-0.0318905
-0.0259609
0.2597
-0.273934
-0.242051
-0.184611
-0.0838149
-0.175198
-0.241064
0.0836111
-0.0848221
-0.088989
-0.0590733
-0.0765129
0.00271027
-0.278186
0.0132222
-0.121079
-0.00599617
0.0403226
-0.133483
-0.0305102
0.364052
-0.00698298
-0.127271
-0.100906
-0.288984
0.114547
-0.0847018
0.0128704
0.204298
0.0142069
-0.117537
-0.408825
0.120723
-0.0589542
0.0266288
-0.180907
-0.0112823
-0.385916
-0.190955
-0.22018
0.00688303
-0.31899
-0.131085
-0.0772144
-0.0767224
-0.0884524
0.217133
-0.132719
-0.0642012
-0.14873
-0.0320231
-0.0750344
-0.154437
-0.00392244
-0.06497
-0.0797177
-0.0715624
-0.0729407
-0.00706955
0.330508
0.0285589
-0.112745
-0.174645
-0.0666555
-0.111232
-0.157888
0.0190859
0.191244
-0.0844273
-0.161134
0.0221218
0.0405638
0.119524
-0.0933511
-0.406584
-0.101295
-0.0174406
-0.163535
-0.18043
-0.103938
-0.109464
-0.0962463
-0.192997
-0.0698155
-0.0803777
-0.363505
-0.00701649
0.0105516
-0.105612
-0.138984
-0.0123689
0.0124616
0.0147385
0.00218551
-0.0852076
0.0108258
-0.0882535
-0.0998937
0.00541347
-0.0781866
-0.126721
0.0474581
-0.125941
-0.246147
0.0473568
0.0486718
-0.101923
-0.106926
-0.358549
-0.131374
0.00424801
-0.208638
0.0133917
-0.137774
-0.248821
-0.153363
-0.0450462
-0.346605
-0.326922
-0.376011
-0.212673
0.21443
-0.296568
-0.132851
-0.17926
-0.0271226
-0.387833
-0.0716081
0.319107
0.299779
0.0846293
-0.134889
0.0682065
-0.0727109
0.204837
-0.00154087
-0.0134182
-0.0527795
-0.379824
0.357253
-0.00723909
-0.284326
0.07875
-0.0829461
-0.0463523
-0.104672
-0.160696
-0.0785043
-0.00370241
-0.0563345
-0.0753011
0.0449562
-0.184843
-0.068383
-0.103396
0.0835036
0.029384
0.0045457
-0.227665
-0.238653
-0.150439
-0.336904
-0.0743215
0.0106773
-0.188513
-0.116507
-0.0175711
-0.151512
-0.121323
-0.222366
-0.050862
-0.0702805
-0.082354
-0.327217
-0.22522
-0.0727289
-0.0294016
-0.104793
-0.394476
-0.0840133
-0.0760686
-0.0912471
-0.199367
-0.0794512
-0.0618336
-0.161915
-0.262851
0.0387284
-0.0673848
-0.14402
-0.0660033
0.00214473
-0.101057
-0.114122
0.0254299
-0.0862334
-0.408547
-0.0495952
-0.324942
-0.0719352
-0.355606
-0.061945
-0.0731198
-0.132194
-0.173689
-0.114972
-0.072984
-0.131627
-0.307308
0.0199788
-0.223347
-0.0924604
-0.070915
-0.0149668
-0.387476
-0.139676
-0.314211
-0.056
-0.162027
-0.0937812
-0.406404
-0.0161367
-0.387136
-0.273859
-0.398242
-0.0366628
-0.220408
0.0341273
0.00522487
-0.0815888
-0.0958423
0.0318642
-0.0549201
-0.0877078
-0.00412448
-0.140744
-0.134845
-0.121703
-0.0596787
-0.0301924
0.0505064
-0.323463
0.00668627
0.0495796
-0.0744556
-0.117472
-0.0147144
-0.0833861
0.0270411
0.0100961
-0.051892
-0.153304
-0.0686038
0.00269413
-0.0396006
-0.151828
-0.0475439
-0.365351
0.0119238
-0.0592026
-0.0743198
0.0713664
-0.0126576
0.014869
-0.0591783
-0.0343685
-0.288888
-0.0760764
-0.0896981
-0.0954969
-0.0536118
0.0164711
-0.114218
-0.0830148
0.130662
0.0239587
-0.131081
0.151865
-0.313549
0.0316163
-0.0848356
-0.230186
-0.0722322
-0.133301
-0.0925872
-0.312122
0.0432806
-0.214311
0.0177385
-0.0747984
-0.072345
-0.108534
-0.0909058
-0.00403126
0.065458
-0.1313
0.00467417
-0.40289
-0.116712
-0.367551
-0.405254
-0.0748021
-0.34073
-0.179269
0.104187
0.0199889
-0.339427
0.0311731
0.00231604
0.108202
-0.276539
-0.0528553
0.0507739
-0.0906945
-0.123687
0.0336939
-0.312921
0.00710962
-0.127649
-0.281687
0.00984007
-0.0480255
-0.274279
-0.157648
-0.0117106
-0.357432
-0.373911
-0.0213545
-0.349356
-0.193984
-0.131504
0.0449552
-0.0762402
-0.169931
-0.0217354
-0.235708
-0.000701485
0.00670317
-0.0782825
-0.200187
-0.105673
-0.0674858
0.0320087
-0.0771389
-0.133349
-0.310777
-0.0240973
-0.362505
0.00287365
-0.00187076
-0.116163
-0.0556892
-0.0163437
0.000659773
-0.346022
-0.256412
-0.347677
-0.0509035
0.0281797
-0.0915844
0.0199215
-0.22451
-0.0628935
-0.0681416
-0.0896742
-0.075845
-0.195824
-0.0653034
-0.393888
-0.0441134
-0.142836
-0.0754507
-0.08382
0.00622008
0.0186025
0.176038
-0.342565
-0.0790801
-0.0761201
-0.360923
-0.0556264
-0.0775643
-0.405951
-0.31435
-0.120264
-0.124938
-0.0984798
-0.0751344
-0.0254007
-0.0810999
-0.215333
0.0171519
-0.302677
-0.269024
-0.0173023
-0.0941755
0.0165772
0.0807346
-0.145688
-0.390743
0.00752341
0.00577642
0.10742
-0.122402
0.0114968
-0.280081
0.00568464
-0.0994518
0.0502912
-0.0718129
0.0300584
0.0344039
-0.0854814
-0.360266
-0.116946
-0.293387
-0.0854271
-0.00393903
-0.0195995
-0.133997
-0.038494
-0.182851
-0.0568507
0.13164
-0.0805027
0.0206578
-0.0732728
0.0128298
-0.0734308
-0.393428
-0.0808797
0.133691
-0.382393
-0.0789828
-0.248088
-0.267584
-0.0258386
-0.32133
0.0732498
-0.0866787
-0.404777
-0.266151
-0.0177456
-0.180548
-0.0313772
-0.0749141
-0.298119
-0.00692641
0.271019
-0.159201
0.0169034
0.0168792
-0.0732852
-0.0725823
-0.0782067
0.0485191
-0.167053
-0.0459044
0.0354747
-0.0792379
-0.166586
-0.229129
-0.0152839
-0.0853361
0.0920874
-0.0713568
0.0645929
0.0114746
-0.137689
0.103937
-0.0837518
-0.105498
-0.108667
-0.105654
-0.264611
-0.200231
-0.0960576
-0.353435
-0.08196
-0.0993776
-0.0139378
-0.0793882
-0.130211
-0.0185458
-0.0764963
-0.196504
-0.0402231
0.00990441
0.00880925
-0.0748071
-0.0721619
-0.0605482
-0.194982
-0.00352611
-0.0793631
-0.0422979
-0.251638
-0.180479
-0.0641789
-0.0541802
-0.253778
-0.22998
-0.0134522
-0.0945773
-0.0291868
-0.347878
-0.0743598
-0.101531
-0.0903179
-0.29407
0.0333039
0.0132433
0.0803413
0.0360562
-0.0754394
0.00252734
-0.0793006
-0.0904936
-0.184464
-0.305211
-0.217695
-0.10245
-0.25811
0.131245
0.0243181
0.0392901
-0.0121701
-0.0190055
0.00551225
-0.140433
-0.203209
0.0931505
-0.175403
-0.00500471
-0.0889621
0.0217507
-0.407494
-0.105979
0.0219083
0.0258682
-0.0809255
-0.065597
-0.0871675
-0.26574
-0.0911382
-0.115376
-0.0210366
-0.125547
0.0340033
-0.0538587
-0.0801602
0.0242103
0.0473329
-0.0232917
-0.0744188
-0.0740169
-0.0761679
-0.0911179
-0.279794
-0.311694
0.128689
0.030232
-0.0759017
-0.0119424
-0.0751215
0.00700611
-0.0481349
-0.292222
-0.0913302
-0.102717
-0.18708
-0.1179
0.0229613
0.0212385
-0.146792
-0.0269106
0.0228769
-0.0592627
-0.272315
0.00352079
-0.236511
-0.315836
-0.083075
-0.184911
-0.396138
0.167743
0.0244276
-0.224847
-0.00282631
-0.0681213
-0.0927003
-0.0758975
-0.309707
-0.0755421
-0.011056
-0.0070406
0.00676027
0.0151925
-0.00983765
-0.391133
-0.111085
-0.0777471
-0.0732426
-0.0923877
0.0374389
-0.0101887
-0.349107
-0.123837
-0.0499551
0.0230922
-0.099938
-0.22633
-0.196902
0.0495374
0.00851633
-0.0735664
0.0637534
-0.090361
-0.00395434
-0.270939
-0.00351215
-0.392295
0.0272182
-0.211237
-0.0955817
0.0282247
-0.0922807
0.0270369
-0.0546029
0.00437054
-0.0787906
0.0603907
-0.0731414
-0.0312172
-0.10945
-0.107659
-0.0860584
0.00309482
-0.40803
-0.0764025
-0.0676094
-0.0897497
0.0393423
-0.0717698
-0.0192475
-0.199358
0.0187404
0.0040906
-0.0876435
-0.0903798
0.0148564
-0.0604504
-0.1608
-0.0360795
-0.160781
-0.00626996
-0.0983933
0.0224103
0.00353613
0.04802
-0.0134674
0.0183331
-0.184869
-0.0947278
-0.0308747
0.00572843
-0.107188
-0.00188918
-0.408047
-0.229372
-0.0978449
-0.300319
-0.0543167
-0.084423
0.0171542
-0.0980299
-0.0308271
-0.0253416
0.00718556
-0.314172
-0.29648
-0.113238
-0.371339
-0.0964462
0.0267677
-0.111394
-0.0891947
-0.34747
-0.0832602
-0.0843928
-0.126133
0.0121752
-0.395891
-0.394008
-0.0740302
-0.273549
-0.0769524
0.0406471
0.197815
0.0501483
-0.122148
-0.0388884
-0.00142961
-0.16562
-0.00112434
0.00307158
0.00495249
0.000177191
-0.27337
-0.1907
-0.000651726
-0.113405
-0.103292
-0.0197186
-0.378042
0.0634481
-0.0969082
-0.214329
0.0116462
-0.0789632
-0.0504388
-0.0891666
-0.00759983
-0.00385563
-0.267196
-0.0718259
-0.161877
-0.0328926
-0.0725506
-0.0828053
-0.125137
-0.322999
-0.0719122
-0.0884949
0.0305991
-0.010277
0.0177729
-0.0610667
0.0254558
-0.136087
-0.0129618
0.0912131
0.12701
0.0386142
-0.00607173
-0.0495862
-0.046237
-0.0480447
-0.0254954
-0.252877
-0.0781557
-0.0797973
-0.105777
-0.169821
0.0500349
-0.373682
-0.0115119
-0.0165523
0.0620909
-0.00839147
-0.070087
0.0169437
-0.00113063
0.207284
0.0398957
-0.267318
-0.0366077
-0.30703
-0.167274
-0.147992
-0.231737
-0.027894
-0.307433
-0.138793
0.012867
-0.0438131
0.0492341
-0.372299
0.0668842
0.182067
-0.14719
-0.408364
-0.15854
-0.0220439
-0.0757248
-0.14558
-0.0750371
-0.0470639
-0.00452556
-0.0238684
-0.129107
0.0324875
-0.167449
-0.228292
0.0200932
-0.118801
-0.272079
-0.0226459
-0.249407
-0.390033
-0.108924
-0.032023
-0.0759388
-0.137523
0.00779771
-0.0770344
0.0272894
-0.0203202
0.0101757
-0.0651305
-0.0631048
-0.089475
-0.391283
-0.0733637
-0.0855238
-0.0714439
0.0296955
0.293197
0.00928257
-0.336647
-0.0245854
0.00500253
0.0107014
-0.0275511
-0.0992772
-0.0721543
-0.087147
-0.20117
-0.329687
0.107344
0.0238466
-0.0357011
-0.272617
-0.0243896
-0.0107189
-0.10996
-0.295127
-0.0764906
-0.012658
-0.0783777
-0.0932241
-0.140635
-0.388964
-0.0213585
-0.0162015
-0.0451623
-0.312393
-0.0578987
-0.139092
0.0143194
0.00865484
-0.0208245
0.00865176
-0.00888138
-0.105387
-0.0755597
-0.0852296
0.133987
0.0175729
-0.326847
-0.0347235
-0.22209
-0.17146
0.114664
-0.361758
-0.0756551
-0.395195
-0.0738056
-0.0813482
-0.0991854
-0.0822368
0.0412529
-0.00396325
-0.247817
-0.0234756
-0.103305
0.0306578
-0.0874528
-0.31525
-0.0111597
0.048177
-0.0754859
-0.279163
-0.0863695
0.00727163
-0.0643771
0.0750179
-0.057091
-0.0286572
0.0231639
-0.0765635
-0.0731974
0.0310776
-0.0794129
-0.0637197
0.0166303
-0.0735296
-0.0713566
-0.302355
-0.073869
0.0146651
-0.0197175
-0.0498916
0.0464037
-0.084566
-0.0868375
0.02294
-0.0856821
0.100448
-0.108798
-0.0957492
-0.104515
0.0740869
-0.0158114
0.19544
-0.133387
-0.134565
0.0206246
-0.072196
-0.140933
-0.387733
-0.341395
-0.0879862
-0.0850787
-0.121491
0.0216234
0.027455
-0.0272476
-0.0796677
-0.0693825
-0.138135
-0.398466
-0.0320836
-0.010521
0.0320464
-0.076259
-0.0136214
-0.0652353
0.00774031
-0.0749646
0.0485095
-0.00232339
0.0215022
0.0111836
0.00588047
0.0848693
-0.085561
0.0369854
-0.144869
0.0259562
0.00824283
-0.130562
-0.108484
-0.0727693
-0.0799871
0.146888
-0.0759402
-0.00464118
-0.0595008
-0.0141612
0.0266259
-0.0484427
-0.389544
-0.0435766
-0.132374
-0.346884
-0.0329137
-0.0080313
0.0996943
-0.104211
0.0117829
-0.0788819
-0.0268719
-0.0798046
0.0260079
-0.0300672
-0.0688646
0.102814
0.042091
-0.0896793
-0.386231
-0.0760809
-0.114812
0.0343564
-0.349064
-0.122606
0.0236849
-0.322645
0.0465594
0.199491
0.0463653
-0.0296886
0.00367938
0.0349118
-0.00373704
0.117151
-0.106413
-0.0230507
0.0275223
0.247143
-0.0188658
-0.341863
0.0261658
-0.0885095
-0.0678188
-0.147022
-0.174769
0.0226016
-0.107367
-0.00413903
-0.0574594
-0.125637
-0.0796647
-0.0898686
0.0111432
-0.0837636
0.192826
-0.0976516
-0.173882
0.0531059
-0.199204
-0.0782081
-0.0994711
0.0465808
-0.0157706
-0.0814009
-0.409062
-0.0386158
0.00819434
-0.384273
-0.00348256
-0.102204
0.00902079
-0.155657
-0.341251
-0.0162518
-0.402566
-0.0644803
0.0084536
-0.0851557
-0.001312
0.196661
-0.0741279
-0.105694
-0.0797181
0.00351988
0.0120981
0.209621
0.0202021
0.0231889
-0.0627024
-0.0802931
-0.109775
-0.165858
0.0307827
-0.0778645
-0.014295
0.0165405
0.0202984
0.023701
-0.32571
-0.0242922
0.0655228
-0.0843039
-0.00378939
0.0069749
-0.096289
0.0230709
-0.297542
-0.0450218
-0.0888221
-0.149055
0.153487
-0.336839
-0.154396
-0.0681242
-0.0317909
-0.227943
-0.0519623
-0.01586
0.000308757
0.0667425
-0.08309
0.0106999
-0.119254
0.00131664
-0.0185096
-0.387572
-0.27885
-0.230237
-0.0479444
0.202721
-0.202639
-0.406501
0.020379
-0.0636295
-0.17337
-0.0292982
-0.105535
-0.341068
-0.0804453
-0.0622214
-0.0830306
0.00388663
-0.275574
0.0214632
0.0469157
-0.201139
0.0326037
-0.00790865
-0.340771
-0.117514
-0.0877323
-0.11697
-0.0762576
0.0456783
0.00177912
-0.0304817
-0.362954
-0.211455
-0.147849
-0.140303
0.0365076
-0.242105
0.0262551
-0.22014
0.116611
-0.0430187
-0.102443
0.0187847
-0.256623
-0.326607
-0.0208679
-0.120898
-0.0705173
-0.345868
-0.118974
-0.0742225
-0.0860794
-0.0695595
-0.0776628
-0.0791461
0.0259125
-0.0727851
0.288098
-0.0756374
0.0151255
-0.0838659
-0.122941
-0.0720373
0.0125079
-0.337164
-0.0633739
0.0337407
-0.00857138
-0.0907853
-0.0876189
0.0487402
0.00489462
0.00729644
-0.123749
-0.305597
-0.147686
0.0235254
0.0622385
-0.0706725
-0.200734
0.0197036
-0.175835
-0.370553
-0.0824734
-0.081149
-0.0617123
-0.225012
-0.266569
0.0215151
-0.320164
0.00633767
-0.0171028
-0.0728619
-0.0882286
-0.173352
-0.076592
-0.0582643
-0.081295
-0.0838362
0.0107723
-0.0135178
0.104154
-0.0602102
0.0678362
-0.172249
-0.0354847
-0.00199926
0.00903583
-0.073284
-0.168379
0.0314275
-0.0561712
0.0788765
-0.110058
-0.222473
-0.0721471
-0.0758133
-0.160608
-0.31069
-0.149468
-0.0784982
0.00174059
0.352292
-0.0110045
0.115442
-0.359901
-0.0787738
-0.250037
-0.318073
0.0251817
-0.10841
0.00129823
-0.0865138
0.0201484
-0.0772171
-0.183268
-0.0476957
0.00348241
-0.248715
0.195956
0.018617
-0.365322
0.0300789
0.0356604
-0.0604852
0.0477349
-0.0793484
0.0805462
0.0369678
-0.0579515
-0.28867
-0.0935273
-0.146124
0.0191269
-0.228577
-0.0770657
0.00361352
-0.0890865
0.0231252
0.104965
-0.126689
0.00379369
0.0390841
0.0711748
-0.24115
0.018167
0.00858913
-0.107717
-0.0774287
0.00315864
0.0372746
-0.0214737
-0.164685
-0.121803
-0.107746
-0.114769
0.0294809
0.218543
-0.00953869
-0.145598
-0.0716152
0.0313365
-0.0546294
-0.185089
0.00799681
-0.0290028
-0.143714
-0.0755166
-0.0341135
-0.127584
0.0122003
-0.0103365
-0.131116
0.0140643
-0.0244045
-0.267539
0.0181676
-0.0997176
-0.084438
-0.368138
-0.161413
-0.024161
0.0898006
0.0988503
0.00943562
0.0321596
0.0213206
-0.0766639
0.0163213
-0.0770039
-0.0952362
-0.00822075
-0.0191268
-0.0808168
-0.0966238
-0.0872923
0.020388
-0.149887
0.00269037
-0.0867985
-0.148566
-0.0556487
-0.082377
-0.112894
-0.169252
-0.403095
-0.0629456
-0.0735213
-0.112776
-0.408157
-0.0556787
0.000261014
-0.101042
0.165267
-0.0200372
-0.0346247
-0.0890089
0.0124304
-0.013292
0.0179657
-0.0156304
-0.0462983
-0.025232
-0.377614
0.00344061
-0.331778
0.00990651
-0.0929657
-0.0250634
-0.102459
-0.108007
0.0313703
-0.0941291
0.0883908
0.0180121
-0.0873187
-0.0144424
0.0457266
-0.0226293
-0.0755367
-0.0119417
-0.108631
0.307596
-0.0937432
0.000391944
-0.0767829
-0.174923
-0.103998
-0.0271318
-0.0398829
-0.0733038
-0.139823
-0.322059
-0.0128724
-0.404036
0.00714794
0.172177
-0.366733
-0.0849336
-0.0759203
-0.0174716
-0.0877635
0.0132806
-0.324755
-0.074252
0.00573205
-0.096233
-0.176437
-0.0255336
0.0262657
0.00769934
-0.31581
0.0177954
0.0035262
-0.113874
0.028516
0.0207165
-0.118081
-0.0200165
-0.098353
-0.0107747
0.0291167
-0.0011232
0.109091
-0.0307437
-0.026487
-0.0948393
-0.110586
0.0169983
0.0273534
-0.145743
-0.0321198
-0.403473
-0.0393481
-0.341109
-0.00824599
0.0317295
-0.00437631
-0.0726318
-0.110485
0.00246841
0.015852
0.118869
0.00533894
0.0264593
-0.0753587
0.00573867
-0.0843777
-0.0114989
-0.0637775
0.020537
-0.147649
-0.00300383
-0.0782821
-0.00559402
-0.229755
-0.294326
-0.0138929
-0.0644203
-0.301662
-0.0977784
-0.0756095
-0.0768562
-0.249203
0.0781021
-0.0927942
-0.152725
-0.162413
-0.0303664
-0.0635662
0.0966621
4.94886e-05
-0.0724727
-0.403855
-0.108672
-0.140474
-0.256218
-0.0584714
-0.088522
-0.019916
-0.013333
-0.187225
-0.327849
-0.201447
-0.218378
-0.13854
-0.0047198
-0.333634
-0.0778717
-0.37269
0.00851085
-0.329585
-0.395679
-0.298925
-0.113976
-0.100714
-0.0877156
-0.0788754
-0.207997
0.104906
0.00926765
-0.316991
-0.11624
-0.013871
-0.141632
0.0166905
0.00905608
-0.0953939
0.0880118
-0.25281
0.0789628
-0.407334
-0.0735152
0.11188
-0.117212
-0.234268
-0.145634
0.0588043
0.0999555
-0.144842
-0.0510026
-0.00323282
-0.12302
0.0458571
-0.209677
0.0146731
-0.197272
0.00780252
-0.0935906
-0.0760086
-0.0774055
0.0760913
-0.193056
-0.365036
0.0334411
0.00628326
-0.374034
-0.274234
-0.0371169
-0.0530427
0.0166495
-0.134009
-0.0560985
-0.075425
-0.175799
0.0469403
0.00757077
0.233492
-0.0213349
-0.129951
-0.281296
-0.00200135
0.0184063
-0.0492939
0.0119259
-0.0479841
0.00280553
-0.031691
0.0963325
0.00971825
0.0166336
0.047093
-0.0790847
-0.167195
0.0114213
-0.144344
-0.362104
-0.00980477
0.0778719
-0.202162
-0.16876
0.0409145
-0.112879
-0.0699427
0.16671
-0.0782904
-0.0246552
0.00749921
-0.328683
-0.0511263
-0.0807468
0.0435677
0.0327712
0.0143764
-0.121689
0.0154031
-0.109296
-0.0849682
-0.158027
0.00468768
-0.130542
-0.334418
-0.14447
-0.00498075
-0.217872
0.160897
-0.330231
-0.284881
0.0635456
0.00139859
-0.22813
-0.1329
-0.0847629
-0.097814
-0.0877738
0.00628666
-0.0181913
-0.0447102
0.0155307
0.0476469
-0.226985
0.0136969
0.191986
-0.00953608
-0.20312
-0.129771
-0.109701
-0.0739147
-0.146487
0.0444069
0.020511
-0.259816
-0.0134484
-0.013815
-0.0105622
-0.183718
-0.13111
-0.325028
0.0886727
-0.0305033
-0.0160866
-0.0201174
-0.0982462
0.00473987
-0.076127
-0.203788
0.0197816
0.0240148
-0.0834034
-0.0840675
-0.0418713
0.0248586
-0.16608
-0.20731
-0.0241695
-0.114634
0.0136795
-0.13373
-0.237419
-0.0386989
-0.409141
-0.398301
-0.156599
-0.00930245
-0.0305117
0.0182616
0.0228753
-0.110587
0.00343688
-0.224777
-0.0792519
-0.307452
-0.0319698
-0.138961
-0.154062
-0.12491
-0.249939
-0.357441
-0.0111267
-0.0616619
-0.0627314
-0.0753221
-0.0799899
-0.0151591
-0.0730397
-0.0169951
-0.0836811
0.042506
0.00177703
-0.259613
-0.105132
-0.4079
0.0147412
-0.136291
-0.0296958
-0.107384
-0.0530848
-0.108615
-0.118674
-0.236453
-0.0758338
0.0141342
0.0078573
-0.111978
0.018317
-0.0894468
-0.278901
0.00755848
-0.0767844
0.142655
-0.294829
-0.0489009
-0.114662
-0.107379
-0.0212437
-0.155673
0.0182055
-0.0856943
-0.0739994
-0.192809
-0.324525
-0.139501
-0.00433354
-0.107053
-0.0165478
-0.213098
0.00207712
-0.264039
-0.0170936
-0.0984587
-0.0163035
0.0132353
-0.0852891
0.0940037
0.0351597
0.00855866
-0.0788164
-0.0742074
0.00407512
-0.0887576
-0.0739592
-0.244763
0.033709
-0.358102
-0.0170907
-0.0722839
-0.0654431
-0.00927309
-0.149253
0.0136226
-0.363093
-0.0888905
-0.0531777
0.0270793
-0.278815
-0.104634
-0.0176388
-0.122485
-0.218101
-0.154801
-0.0204056
-0.15842
0.0230231
-0.219683
-0.0634759
-0.167884
-0.260299
-0.081698
0.159814
-0.13433
-0.108516
0.0166253
-0.00506677
-0.116862
-0.15066
-0.179717
0.242389
0.00786342
-0.0747875
-0.180031
-0.278803
-0.0829943
-0.279517
-0.0782762
-0.348306
-0.339183
0.0146329
0.0938185
0.0221924
-0.0214133
-0.015025
-0.112386
-0.00788816
0.0733305
-0.33811
0.00972231
-0.00181767
-0.0718173
-0.171881
-0.0722868
-0.00678395
-0.247985
-0.0466364
-0.0739089
0.0191891
-0.386119
0.0723921
-0.179938
0.0280813
-0.0921897
-0.122529
0.022422
-0.40971
-0.150431
-0.155801
0.0139937
-0.000241316
-0.0831412
-0.386925
-0.0750742
-0.0204121
-0.158416
-0.141652
-0.0253944
0.00741125
-0.00323836
-0.129089
0.115575
-0.0612416
-0.0507972
-0.0599954
-0.0900922
-0.169571
-0.158025
-0.0524925
-0.087084
-0.0158388
-0.1813
-0.133225
0.0282161
-0.076135
-0.353596
-0.163199
-0.0756169
-0.39726
-0.351472
-0.253254
0.0760463
-0.0240233
-0.188608
-0.258748
-0.266175
0.0160385
-0.0993149
0.0369904
0.0159645
-0.0765937
-0.195057
-0.109707
0.0146676
-0.100894
-0.129247
-0.118792
-0.106839
-0.293985
-0.0911755
-5.31507e-06
-0.112953
-0.0767903
-0.278624
-0.0674366
-0.105934
0.0481293
8.98923e-05
-0.105152
-0.117086
-0.0143864
-0.0805871
-0.0709586
0.017763
-0.0780499
-0.0847879
0.0439713
-0.0787542
-0.148936
-0.0794204
0.0268333
0.308468
-0.122323
-0.0720514
-0.109094
-0.0223245
-0.0789928
-0.0471824
0.0414862
-0.00951611
0.145666
-0.0733262
-0.0832857
-0.242933
0.00779683
-0.0214406
-0.0797397
-0.0756499
-0.248254
-0.156504
-0.0819995
-0.0157839
0.0346309
-0.0822463
-0.0159823
-0.305278
0.0329352
0.0165028
-0.0113082
-0.0755678
-0.36867
0.0464013
-0.0970999
-0.0452208
0.0048425
-0.080036
0.149788
-0.093461
-0.0977065
-0.405498
-0.0646447
-0.217619
-0.0981693
-0.264605
-0.0732965
0.000834236
-0.00523129
-0.118572
-0.148743
-0.00359679
-0.00102884
-0.0760324
-0.143324
-0.0777813
-0.408146
-0.0951738
0.0156748
-0.228779
0.00751199
-0.0738263
0.026323
-0.156046
0.00547848
-0.0734769
-0.128314
-0.0844668
0.0250558
-0.0752802
0.110091
-0.0909295
-0.230225
-0.0776144
-0.0012344
-0.172866
-0.0904561
-0.21457
-0.10145
-0.144674
-0.01306
-0.0979033
-0.0220491
-0.354759
0.0120751
-0.0785182
-0.0992567
-0.291211
-0.0122538
0.00952266
-0.36317
-0.110438
-0.358015
0.157996
0.0242603
-0.113155
-0.122725
0.16039
-0.0768642
-0.0759944
-0.20038
-0.0489505
0.0171758
0.00618427
-0.265177
0.0584834
-0.168503
0.0378543
-0.00880459
-0.258998
-0.0603082
-0.0197373
0.0136326
-0.0805857
-0.186375
-0.0781112
-0.105748
0.0834269
-0.143328
0.0203925
-0.219584
-0.0832849
-0.108241
0.199856
-0.0515733
-0.114127
0.129808
-0.0213828
-0.103187
-0.397593
-0.0743512
-0.0273781
-0.32527
-0.0877288
0.014652
0.0639191
-0.118628
-0.117692
0.122794
-0.081449
-0.257376
-0.0295525
-0.0948731
-0.0146727
-0.0645284
-0.140295
-0.357092
-0.0877178
-0.0763569
-0.142112
-0.0761395
-0.134629
-0.0429481
-0.0944677
0.0304206
-0.0767427
-0.155152
0.0207891
0.00487623
-0.0736424
0.0456813
0.024724
-0.116226
-0.0842278
-0.171194
-0.058502
-0.153933
0.0049117
-0.0758386
-0.088777
0.00840262
-0.0983256
-0.337588
-0.259692
-0.0745174
-0.0854458
-0.0731428
0.000556284
0.0736765
-0.136249
-0.108551
0.0258746
-0.07809
0.0272931
-0.0824507
-0.10444
0.117237
-0.0914344
-0.0803858
-0.101558
-0.0832249
0.233121
-0.377464
-0.288782
-0.0577475
-0.0134863
-0.0764878
0.00344778
-0.0128561
-0.336729
0.018619
-0.0767314
0.0471274
-0.159797
-0.0560975
0.0192887
-0.356078
0.114288
0.0784929
-0.0730966
-0.249247
-0.30796
-0.0610544
-0.0655508
0.0475209
-0.0710868
-0.134453
-0.0777328
0.0232404
-0.192911
-0.124707
-0.0436991
-0.0741641
-0.103131
-0.000111897
-0.237618
-0.146204
-0.0790601
0.0184363
-0.233926
-0.00556179
-0.125615
-0.0792048
-0.161365
-0.00072355
-0.105212
-0.404768
-0.0455976
-0.151135
-0.06248
-0.111061
-0.189622
-0.117863
0.0764288
-0.386908
-0.000185913
-0.0753907
0.0144317
-0.0404495
-0.11706
-0.075129
-0.053717
0.286933
-0.20714
-0.0699327
-0.0246107
0.0488927
-0.117113
-0.327185
0.109625
-0.335893
-0.138979
-0.0662025
-0.0794776
-0.143071
-0.0943592
0.176278
-0.11458
0.00282649
-0.0427212
-0.0303761
-0.333624
0.0259628
-0.0732526
-0.0124418
-0.0976618
-0.0771576
-0.108205
-0.107978
0.0744595
-0.189101
-0.0137451
0.045806
0.0151008
0.0233683
-0.0548131
0.00712384
-0.094006
-0.198383
-0.101829
-0.104832
-0.0548685
-0.00930686
-0.0772397
0.0196483
-0.0911753
-0.123771
-0.391689
-0.0863034
-0.0730067
-0.0601126
0.019018
0.062336
0.161836
-0.10983
-0.205226
-0.0958393
-0.368612
-0.0827639
0.0088153
-0.00271396
-0.0741198
0.00911093
-0.0775745
0.219014
-0.252307
-0.0450704
-0.123307
0.0242591
-0.0344162
0.0373435
0.0424208
0.057726
-0.0877081
-0.0124555
-0.0670272
0.170846
-0.0988404
-0.0875837
-0.191695
-0.167337
-0.264705
-0.0788138
-0.0467846
-0.0224434
-0.0826418
-0.0754343
-0.23743
-0.0762732
-0.0744454
-0.203365
-0.0818495
-0.0382496
0.0125058
-0.0732827
0.0183213
-0.06325
-0.395344
0.0157334
-0.0167343
-0.292945
-0.0768201
-0.0759001
-0.320093
0.0440937
-0.0840021
-0.109346
-0.258052
0.133265
0.0160115
-0.075749
0.251463
0.031835
-0.0967282
0.0200588
-0.211946
-0.0701312
0.245376
-0.328235
0.115455
-0.134696
0.00732408
-0.384024
0.0408857
-0.0600433
-0.00491823
-0.119689
0.00817636
0.0397952
-0.0751565
-0.253257
-0.119716
-0.0421835
0.149621
-0.00838999
-0.00509728
-0.0428792
-0.0967508
-0.0589547
-0.177696
-0.108268
-0.209944
0.0195655
-0.220805
-0.249424
-0.171495
-0.0475259
-0.20597
0.0162356
-0.0153508
0.0141147
-0.318274
-0.0200128
0.0269618
-0.0756747
0.0177881
-0.215693
0.0704913
-0.023312
-0.0941423
-0.0527063
-0.165254
-0.0120145
-0.134874
-0.0182359
0.216035
-0.41057
-0.119
0.0115776
-0.0570405
-0.0963972
-0.0635666
-0.223145
-0.0837433
-0.0450408
-0.203081
0.00116149
-0.0321984
-0.366491
-0.0731884
-0.0568838
-0.0758135
0.0176398
-0.00427036
0.00753521
-0.0569177
0.0388166
0.0258853
-0.137535
-0.411186
0.130831
-0.406643
-0.0739224
-0.0577064
-0.293772
-0.379658
0.0531149
-0.360469
-0.340002
-0.0793644
-0.326863
-0.0817189
-0.0981308
-0.0784417
-0.404002
-0.324972
-0.223242
0.0809411
0.09095
0.0577642
-0.0539243
0.00126607
-0.285402
0.0181476
-0.408328
0.0439652
-0.163084
-0.012
-0.102397
0.0819394
0.0835302
0.022904
0.00508137
0.0782267
-0.0474148
-0.0333587
-0.0676867
-0.335262
-0.0536553
-0.224963
-0.00338905
0.0919399
0.118863
0.0397068
0.00485553
0.00695328
-0.153738
-0.0927069
-0.148695
-0.351462
-0.0267048
-0.13538
0.0253889
-0.0741409
0.00165171
-0.0126336
0.0204825
-0.0883185
-0.010426
-0.066698
-0.267901
-0.00977835
-0.0791008
0.0205035
-0.328071
-0.22945
-0.401659
-0.0952693
-0.222935
-0.2117
-0.0772016
-0.241333
-0.0783861
-0.387686
0.0581288
0.168276
-0.303094
-0.230906
0.0268787
-0.407903
-0.202984
-0.13227
-0.0115661
-0.103028
-0.31746
0.0141122
-0.40687
0.103124
-0.272045
0.00649031
0.0452504
-0.154976
0.0094784
-0.0561769
-0.147478
-0.0174038
-0.0248511
-0.073465
-0.159298
-0.401512
-0.0725335
-0.0314925
0.0565758
0.0144744
-0.0143672
-0.0854549
-0.0916623
-0.110803
-0.294578
-0.0819258
0.00208522
0.00291276
-0.123364
-0.404078
-0.261223
0.110682
-0.0115806
0.137748
-0.406
-0.402768
-0.01605
0.0128163
-0.320993
-0.027347
-0.14279
0.0746732
0.0178697
-0.0315038
0.100301
-0.145334
-0.313762
0.00763363
-0.0175512
-0.0410254
-0.0769258
-0.298445
0.0200206
-0.212766
-0.253712
-0.0156508
-0.0771649
-0.075996
-0.407451
0.025716
-0.409008
-0.301672
-0.0382968
-0.0375834
-0.0473046
0.334181
-0.240577
-0.0612654
0.0111552
-0.406693
-0.246814
-0.0111599
-0.134357
-0.208055
-0.0791246
-0.19219
-0.291198
-0.128221
-0.25897
-0.0610887
0.0791607
-0.0443631
-0.144314
-0.276717
-0.270308
-0.405091
-0.175083
-0.0159561
-0.0842208
0.00601767
0.00920414
0.0299783
0.0094353
0.0231739
-0.0131851
-0.0805373
-0.342781
-0.346813
0.00850511
-0.19258
0.178549
-0.00401765
0.00274165
-0.139899
0.0202371
-0.0729605
-0.0756124
0.022629
-0.0149337
-0.0766531
0.0072679
-0.250598
-0.0573384
-0.00771532
-0.0164915
-0.186727
-0.0127971
-0.333525
-0.151319
-0.0148198
-0.113426
-0.0116012
-0.0426441
-0.025712
-0.173652
-0.0855798
0.00917722
-0.165839
-0.0873022
0.0174751
-0.0169329
0.0350362
-0.0302006
0.0194897
-0.288645
-0.254546
-0.409682
-0.0670391
-0.404506
0.020325
-0.062118
-0.0311628
-0.212702
0.0503637
-0.0956918
-0.00168705
-0.0735954
-0.127808
-0.376362
-0.0834814
-0.00191294
-0.112987
-0.00478624
-0.176308
-0.012266
-0.0132336
-0.0512705
-0.0621287
0.0007342
0.0101329
0.0671371
-0.154447
0.0483468
-0.0212558
-0.0517513
0.00811696
-0.0936387
0.0189462
-0.40649
-0.0753236
-0.0445288
-0.107859
-0.40489
-0.0757804
-0.22327
-0.0139514
0.0177051
-0.0798975
-0.0835526
-0.216837
-0.0754067
-0.081423
-0.0356403
-0.121333
-0.0763423
-0.0730326
0.021859
0.00248251
-0.150283
-0.144016
-0.408397
-0.0573969
-0.0118126
0.0211405
-0.407099
-0.103339
-0.0133065
-0.233424
-0.0197385
-0.0833354
-0.0827308
-0.0842448
-0.0285829
0.015884
0.00452401
-0.0567003
-0.180501
-0.251545
-0.0145791
-0.0133659
-0.266564
0.00682829
0.0109737
0.109664
0.102063
-0.06694
0.0157101
-0.0725336
-0.0771692
0.103043
-0.362004
-0.115409
0.0264682
-0.0570355
0.0325186
0.00631925
-0.399247
0.311989
-0.0738511
-0.0283252
0.0182706
-0.144104
0.0907918
0.021982
-0.0732844
-0.35244
-0.0114497
-0.101768
0.029341
-0.112912
0.0253489
-0.0216818
-0.406959
-0.142183
-0.135208
0.0172094
-0.135719
-0.0199859
0.0214615
-0.0723363
-0.0925739
-0.111956
-0.0674423
-0.145248
-0.0413881