/*--------------------------------*- C++ -*----------------------------------*\
| =========                 |                                                 |
| \\      /  F ield         | OpenFOAM: The Open Source CFD Toolbox           |
|  \\    /   O peration     | Version:  v2012                                 |
|   \\  /    A nd           | Website:  www.openfoam.com                      |
|    \\/     M anipulation  |                                                 |
\*---------------------------------------------------------------------------*/
FoamFile
{
    version     2.0;
    format      ascii;
    class       surfaceScalarField;
    location    "250";
    object      phi;
}
// * * * * * * * * * * * * * * * * * * * * * * * * * * * * * * * * * * * * * //

dimensions      [0 3 -1 0 0 0 0];
oriented        oriented;


internalField   nonuniform List<scalar> 
20580
(
-0.131452
0.00958477
0.121867
0.12594
-0.248166
0.122227
0.258123
-0.132182
0.00635505
0.00241298
-0.00876803
0.582954
-0.618655
0.0357327
0.262413
-0.186728
-0.0756848
-0.299592
0.046856
0.574085
-0.576709
0.00267742
-0.0183021
0.015183
0.00311908
0.422281
-0.244478
-0.177801
0.14333
0.0100463
-0.153377
-0.518464
0.311526
0.206946
-0.206274
0.284351
-0.0780769
0.00630717
-0.0021181
-0.00418906
0.189198
-0.0336353
-0.155562
-0.114285
0.0996167
0.014668
0.00835976
0.00557176
-0.0139315
-0.171385
0.356158
-0.184767
0.0973446
-0.109533
0.0121883
-0.11612
-0.0153317
0.0628773
-0.192266
0.129389
0.233634
-0.201543
-0.0320906
0.0255164
-0.0404146
0.0148982
-0.584257
0.591645
-0.00738209
0.0835539
-0.0989142
0.0153603
-0.00148344
0.115587
-0.114104
-0.0162664
-0.0647386
0.081005
-0.0959426
0.0771963
0.0187464
-0.00787187
0.0286479
-0.0207761
0.484129
-0.323235
-0.16088
0.00540059
-0.0032894
-0.00211119
-0.224193
-0.075397
-0.112237
0.126495
-0.0142579
0.0294347
-0.0214918
-0.00794289
-0.15538
0.149632
0.00574791
-0.0206126
-0.00711646
0.027729
-0.615105
0.0308503
0.00879955
-0.0708666
0.0620671
0.00132868
0.000394449
-0.00172313
-0.129587
-0.161651
0.291242
-0.00657296
-0.00545363
0.0120266
-0.0311935
0.0233216
0.0152897
-0.0152897
0.0948558
-0.00217297
-0.0926828
0.0271169
-0.0348329
0.00771599
0.450246
-0.277387
-0.172851
-0.53359
-0.0697764
-0.12862
0.0475343
0.0810855
-0.0509628
-0.212175
0.26314
-0.298212
0.091939
0.0125356
-0.0127403
0.00020471
0.145577
-0.284182
0.138606
-0.100516
-0.0137689
-0.0488918
-0.125553
0.174445
0.00873584
-0.00110245
-0.00763339
0.103259
-0.232844
0.00959447
-0.121832
-0.0107419
0.00416897
-0.0219279
0.0900089
-0.0680809
0.00172994
-0.00078805
-0.000941887
-0.353335
-0.165119
0.0711799
-0.0874463
-0.215733
-0.199021
0.414756
-0.194554
0.143592
-0.0423606
0.0907427
-0.0483821
-0.081672
0.0393114
0.00194016
-0.000210228
-0.0936963
0.0646065
0.353898
-0.248167
-0.105727
0.00428174
0.00340675
-0.00768849
0.00806735
-0.000142407
-0.00792495
0.164905
-0.184958
0.0200527
-0.0333413
-0.220846
0.25419
-0.00113561
0.000347559
0.179191
-0.0185538
-0.160637
0.220806
-0.214778
-0.00602631
0.0165485
-0.00818873
0.341402
-0.525363
0.183988
0.0985566
-0.0150027
0.448867
-0.216995
-0.231864
0.245206
0.108695
-0.104653
0.118923
-0.0142708
-0.0230792
-0.132301
-0.00332122
0.00547044
-0.00214923
-5.16831e-05
-0.00108393
0.00509569
-0.00710226
0.00200657
0.0657297
0.167905
0.0154363
-0.0023478
-0.0130885
0.230887
0.14518
-0.376064
0.00310538
0.00229521
0.267239
-0.121662
-0.304241
0.0800495
0.0145965
-0.0145965
0.00868701
-0.00359132
-0.00291624
0.00306587
-0.000149626
0.0268451
0.0700412
-0.0968863
0.146548
-0.351351
0.204809
-0.0893047
0.107207
-0.017902
0.00794037
-0.00880569
0.000865315
0.0169911
0.0967738
-0.113765
-0.110217
0.0209126
0.1226
-0.0472869
-0.0753127
0.0833988
-0.119894
0.036495
-0.167993
-0.0804393
0.248434
-0.468921
0.131715
0.337213
0.131088
-0.171894
0.0408059
-0.164929
-0.303983
0.00764587
0.000421484
-0.0757826
-0.228457
-0.33748
0.1661
-0.00971453
0.152333
-0.142618
0.33647
0.113784
-0.103624
0.116906
-0.0132817
0.0175402
0.111461
-0.129001
-0.116927
0.109345
0.00758173
0.162538
-0.211429
0.167886
-0.397284
0.229416
0.464089
0.110053
-0.0032687
0.00962375
0.0070186
-0.00273686
0.0716484
-0.101919
0.0302705
0.159213
-0.418095
0.258893
-0.275603
0.288215
-0.0126101
0.00528138
-0.0017395
-0.00354188
0.0824943
-0.112545
0.0300512
0.0269771
-0.0661869
0.0392098
0.341833
-0.195278
0.0558779
0.0940056
-0.149883
0.010704
0.00461495
-0.0153189
0.146284
0.017328
-0.163611
-0.199224
-0.00231822
-0.133644
0.186475
-0.0528305
-0.0769572
0.0857567
0.0180513
0.0113834
-0.00174555
0.145076
-0.000918149
-0.00313166
0.00404981
-0.0484699
-0.00556697
-0.00153529
-0.011865
0.124344
-0.112479
-0.163578
0.0237973
0.139781
-0.108409
0.00375602
0.251083
-0.229937
-0.0211451
-0.0653252
0.296214
-0.0782737
0.00162912
0.0766446
-0.0040893
-0.0660875
0.0701768
-0.0381687
0.230097
-0.191927
0.51412
-0.17269
0.00539761
0.021482
-0.0182358
-0.00324625
-0.0655581
0.121436
-0.0563316
-0.0538856
-0.112622
0.00899749
-0.105512
0.123053
0.103855
-0.0970466
-0.00680856
-0.214512
-0.0221544
0.236668
0.127252
0.189544
-0.316795
0.308386
0.215085
-0.52346
0.00163218
-0.000303495
-0.186118
0.0906181
0.0954997
-0.0502571
0.209345
-0.159087
-0.415515
-0.164707
0.58023
0.0300645
-0.0250007
-0.0050638
0.159461
-0.0283723
-0.0421172
-0.0865026
0.00289793
0.00340924
-0.0296197
0.0053475
0.0242722
-0.0213021
-0.00831763
0.0121128
0.000422803
0.155873
-0.165587
0.0524636
-0.048117
-0.00434669
0.534687
-0.325616
-0.209062
0.437291
-0.26938
0.156885
-0.142126
-0.0147586
0.549016
-0.109889
-0.439104
-0.00111789
-0.00179835
-0.0698063
-0.0201876
0.0899938
0.0907141
-0.104176
0.0134619
0.255205
0.182107
0.183709
-0.165522
-0.0181867
0.108998
-0.0182836
0.101787
-0.0192924
0.121701
0.00821063
-0.174253
0.166043
0.18308
-0.0367959
-0.0156797
0.0156797
0.00696218
0.0145198
0.0929135
0.0335816
-0.072439
-0.0587887
0.131228
0.228286
0.00702744
-0.235312
-0.135134
-0.240374
0.37552
-0.0772569
0.0731676
-0.129915
-0.0562029
-0.00326662
0.00114851
0.130973
0.131441
-0.225993
0.187826
-0.0968947
0.114308
-0.0174136
0.117662
-0.0247482
0.201093
0.104087
-0.305176
0.128239
-0.313395
0.18516
-0.0114321
-0.0710427
0.0824748
0.113563
-0.113211
-0.000351368
0.00235788
-0.00238561
2.77219e-05
0.0121242
-0.00607151
-0.00605266
0.0158996
0.173298
-0.00477538
-0.050187
0.0549624
0.00240306
-4.51738e-05
0.193366
-0.211775
0.0184092
0.119865
-0.13503
0.0151659
0.0188949
-0.00694787
-0.011947
0.202479
-0.0097668
-0.192711
-0.101575
0.105481
-0.00390549
-0.244082
-0.0315189
0.00515412
-0.646165
0.394852
0.251317
-0.135284
0.160119
-0.0248358
-0.213116
0.182033
0.031084
-0.245713
-0.0524988
-0.00789153
0.0846686
-0.076777
-0.174501
-0.139736
0.314241
-0.0019074
0.023973
-0.202155
0.457385
0.12091
-0.108419
-0.012491
-0.00419089
0.000869674
-0.00201475
0.00346501
-0.00145026
0.0342172
-0.13879
0.104573
0.140413
-0.0205486
0.668392
-0.368083
-0.300304
-0.0291951
-0.0490786
0.17258
-0.455014
0.282443
0.0143487
0.0027519
-0.00425126
0.00149936
0.0845616
-0.157
-0.0356823
0.238162
-0.480454
0.219714
0.00382551
0.00829865
0.228202
0.255943
0.0728735
-0.0473571
0.0090828
-0.00433498
-0.00474782
-0.103564
0.120555
0.143722
-0.559233
-0.0398678
0.0870105
-0.0471427
0.000475469
0.000749343
-0.00122481
-0.00746642
0.0345833
-0.00195841
0.179158
-0.177669
-0.00148818
0.0630536
-0.060276
-0.00277762
0.081445
-0.0893365
0.0284541
0.155255
0.0996752
-0.029634
0.152967
-0.157552
0.00458546
0.00111065
-0.00855072
0.00744007
-0.104911
0.115933
-0.0110215
-0.308666
0.643925
-0.335204
0.0589653
0.153793
-0.212757
0.010312
0.0288337
0.00123082
-0.0112492
-0.00412798
0.0153772
-0.347545
0.212423
0.0503181
0.186895
0.153442
-0.340335
0.0985369
-0.0936337
-0.00490319
0.111611
-0.101892
-0.00971908
-0.0983884
0.157354
0.144405
0.0150563
-0.128591
0.0236799
-0.0926805
0.301518
-0.208834
0.0542932
0.0683064
-0.128472
0.0404678
0.0880041
0.103115
-0.0795129
-0.0236019
0.458676
-0.192116
-0.266555
-0.29316
0.047448
0.118779
-0.0180007
0.0256634
-0.00766263
0.0128872
-8.29864e-05
-0.0128042
0.153428
-0.0174638
-0.135964
0.387767
-0.228546
0.0914112
0.0103755
-0.0973014
0.104603
-0.00730113
-0.0926707
0.117316
-0.0246452
0.158063
-0.0136578
-0.0230977
0.00509695
0.0060878
-0.00640576
0.000317957
0.146293
-0.194954
0.0486615
-0.101695
-0.0597589
0.161454
-0.0799872
0.0889975
-0.00901034
0.182224
0.167805
-0.350021
0.227804
0.294383
-0.522176
-0.11114
0.0184692
-0.0209468
0.142442
-0.121495
-0.459373
0.230429
0.228958
0.490737
0.133021
-0.623751
0.404716
-0.232129
-0.562539
0.569414
-0.0068362
-0.0180271
-0.15343
0.171458
0.536202
-0.014224
-0.00407814
-0.0889893
0.151867
0.150825
-0.287691
0.136869
0.00822111
0.00491531
0.000366068
0.0589168
0.2131
-0.272016
0.00479019
0.0100172
0.000252164
-0.0102693
0.0709655
0.180118
-0.181739
0.240657
-0.213323
0.124334
0.00322061
-0.00255327
-0.000667334
0.0122625
0.00243239
-0.0146949
0.158264
-0.0260781
-0.132186
0.460538
0.122447
0.0527896
-0.00032596
0.18136
0.142955
-0.149859
0.00690421
0.0103489
-0.000331723
0.0953714
-0.0849365
-0.0104349
-0.254316
0.204061
-0.093964
0.0139769
-0.00596019
0.08954
-0.0835798
0.00502111
-0.00641896
0.00139785
0.110118
-0.00195362
-0.108164
0.04389
-0.109611
0.0657209
-0.000464383
-0.000453766
0.00785322
-0.0033606
-0.00449261
-0.0334531
-0.0624895
0.315256
-0.187014
-0.0050059
0.014236
-0.00923013
-0.0100677
0.0100677
0.0031747
-0.0305147
0.02734
-0.0373255
0.0405002
0.144327
0.0490394
0.160933
-0.0293532
-0.131579
0.0216212
-0.155891
0.13427
0.00662999
0.00880636
0.0525905
-0.111234
0.0586433
-0.215718
-0.299587
0.515347
-0.104879
-0.428652
-0.0491851
0.179646
-0.13046
-0.00242515
0.00744627
0.0265827
0.37002
-0.187786
0.00105112
0.0507049
0.112629
-0.163333
-0.180237
0.0465932
-0.0460006
0.255347
0.00293885
0.000281761
0.0972407
-0.00582947
0.0137925
-0.0101104
-0.203005
0.183232
-0.218913
-0.0320149
0.0273634
0.00465156
0.246247
-0.0179605
0.00655381
-0.0630941
0.209388
-0.125675
-0.0876476
0.139332
-0.0886272
0.332078
0.289319
-0.13849
0.11789
-0.132955
0.0150651
-0.0210347
0.117808
-0.111769
0.119346
-0.00757728
-0.0829174
-0.0231433
-0.0088716
0.190485
0.0396128
0.00301129
-0.104759
0.0905406
0.0142181
-0.192082
0.430373
-0.238276
0.0933576
0.00201372
-0.106153
0.124143
-0.0179906
0.00820011
-0.00025974
0.167813
-0.216998
-0.134972
0.00713011
-0.088257
0.0663291
-0.087549
0.0808433
0.0067057
0.112406
-0.122537
0.0101315
0.0146396
-0.0118691
-0.00277052
0.287777
-0.236526
-0.0512497
0.0196442
-0.0894505
0.00179824
0.0134914
0.0189158
-0.183189
0.164274
0.00909186
-0.00798121
-0.0295412
-0.151444
0.180986
-0.0115761
0.00478305
0.00679305
0.0815653
-0.183259
-0.031312
-0.129463
0.118337
-0.114568
-0.00376954
0.0581059
-0.0916194
0.0335135
0.306241
-0.178988
0.235997
-0.153458
-0.0825381
0.0928612
-0.113808
0.0136695
-0.294511
-0.0237026
0.318219
-0.00583936
0.159267
-0.0402568
0.00180617
0.0384506
-0.209519
0.176179
-0.0738378
-0.0611924
-0.0106976
0.0121999
-0.00150226
0.103197
-0.253961
0.150766
-0.0452637
0.111897
-0.0666332
-0.155017
0.149918
0.00509891
-0.00442075
0.0166832
0.18852
-0.198286
0.128877
-0.13036
-0.0657867
0.0610113
-0.000934586
0.163317
-0.155694
-0.00762289
-0.0177088
0.0064596
0.000423786
-0.0873593
0.0474915
-0.278828
0.186151
0.116472
0.00141819
0.153673
-0.179559
0.0258863
-0.122807
-0.0121645
0.416783
-0.207253
-0.209521
-0.0159782
0.0159782
-0.00996923
0.0357854
-0.0258162
-0.0818574
0.0899388
-0.00808148
-0.0553467
0.23858
-0.010254
0.0834782
-0.077453
-0.00602522
0.0118622
0.00102502
0.482509
-0.213724
-0.268764
-0.0153798
0.0103739
-0.107742
0.102895
0.00484698
-0.0102008
-0.00775784
0.0179587
0.166699
-0.0137321
-0.0190581
-0.0715417
0.0905998
-0.0409372
-0.236698
0.277637
0.567004
-0.0179649
0.000288393
0.00844745
0.0866759
-0.00979057
-0.0768853
0.144142
0.278141
-0.207212
-0.0409534
-0.134722
0.0608844
-0.157313
0.459137
-0.301802
-0.042575
0.0326058
0.035901
0.125032
-0.122375
0.0162219
-0.222477
0.218345
0.00413288
0.012893
0.274886
-0.328799
0.250832
0.0779672
-0.0794902
-0.00805881
-0.0783054
-0.209381
-0.028737
-0.300063
0.0181229
-0.0664056
0.0482827
-0.0398395
-0.000417313
-0.168571
-0.0306522
0.0195758
-0.0896622
0.0700864
0.218505
-0.434238
0.514794
-0.220399
0.272204
-0.169006
0.00416436
0.125318
-0.143754
0.0184361
-0.326731
0.029826
0.296909
-0.314836
0.213361
0.101478
-0.0345383
0.106187
-0.121147
0.29663
-0.175481
-0.0255059
0.0209796
0.00452629
-0.172293
-0.377638
0.549944
-0.151959
-0.0586117
0.210572
-0.0162927
-0.0185402
0.00458984
-0.0947397
0.0901499
0.428082
-0.60526
0.177231
0.497949
-0.201249
-0.296691
-0.195904
-0.0265727
0.319469
-0.124817
-0.194649
0.0852268
-0.0985191
0.0132923
-0.0614902
0.0533226
0.0081676
0.191115
-0.0119566
-0.0100273
-0.0357097
0.045737
0.216858
0.267422
-0.485462
0.218047
-0.00843799
0.0157619
-0.00732387
-0.0686811
-0.157104
0.0829965
0.0741072
-0.299607
0.272259
0.0273508
0.00611372
-0.125035
0.11317
0.0703932
-0.0186678
-0.0517254
-0.236805
0.0688134
-0.169702
0.00259136
0.167111
-0.0205491
-0.195359
0.168961
0.0263985
-0.011556
0.0081954
0.0867888
-0.00331053
-0.0920879
0.0102305
-0.233387
0.0824449
0.150942
-0.00250404
-0.158752
-0.150071
0.308827
0.00364724
-0.135746
-0.0192707
0.0384996
0.0791621
0.178727
-0.0250543
0.210696
-0.109575
0.114165
0.127531
-0.445518
-0.173112
-0.0136343
0.0129175
0.000716844
0.00491287
-0.0133509
-0.0072432
-0.0182627
-0.00883088
-0.000772546
0.00960342
-0.0433673
0.00670588
-0.0143828
0.00767692
0.00271075
0.148857
-0.027514
-0.121342
0.577003
-0.303347
-0.273653
0.0468939
-0.0921576
0.14927
-0.393747
-0.373869
0.0793641
0.0181229
-0.137611
0.119488
0.00205777
0.000388961
-0.00244673
-0.0596965
-0.185271
0.244969
0.204972
-0.228142
0.023171
-0.139626
0.0973398
0.0422865
-0.14767
0.0105746
0.137095
0.395808
-0.182666
-0.213142
-0.0276596
-0.0204596
0.0481192
0.459939
-0.286052
-0.173881
0.0173241
-0.0119396
-0.00538451
0.0868489
-0.00162207
0.16648
0.282394
-0.298834
0.205331
0.0935051
0.100631
-0.105486
0.00485499
0.0181783
-0.231155
0.0655452
-0.0777084
0.0121632
-0.0380573
0.0849511
-0.142425
0.356338
-0.213901
-0.00399764
0.00381722
0.000180412
-0.0103405
0.107685
0.107258
-0.102192
-0.00506561
-0.0487888
-0.184597
-0.0129539
-0.0534517
-0.00352069
-0.000639726
0.00416042
-0.33699
0.194574
-0.00843856
-0.082413
0.0908516
0.36849
-0.177619
-0.190868
0.108594
-0.0607022
0.0707369
-0.0100347
-0.00861998
-0.00295611
0.192596
-0.170146
-0.0224502
0.143014
-0.0176964
0.229526
-0.405073
0.175548
0.118067
-0.119799
0.00173183
0.0162496
-0.00554563
0.0030487
-0.0020374
-0.00101131
-0.256159
0.39568
-0.139513
-0.01629
0.00934038
0.00694958
-0.350428
0.120326
-0.00857724
0.164487
-0.159575
-0.0049115
0.334159
0.148368
-0.0763372
-0.13844
0.00301889
-0.00285371
-0.00016518
0.116539
-0.0584331
-0.000978749
0.203468
-0.263163
-0.175265
0.32871
-0.0172443
0.024789
-0.00754468
0.146722
0.404655
-0.551371
-0.11549
-0.00293063
0.11842
-0.178007
0.243714
-0.0657063
0.180957
-0.164758
-0.0161989
0.189523
-0.0363535
-0.153169
-0.029959
0.0377993
-0.00784034
0.00655421
-0.000466407
0.0890308
-0.227041
0.138011
0.0153905
-0.0135923
0.0887236
0.179281
-0.268002
0.000812679
0.128026
-0.128839
-0.0224915
-0.00870204
0.00921926
-0.0103217
0.282057
-0.315521
0.0334666
0.142769
-0.00760674
0.0910056
-0.00312848
0.00027477
0.0108217
-0.0870256
0.076204
-0.0170484
0.135116
0.0918796
-0.0214864
0.185126
-0.0206387
-0.0759594
0.157525
-0.00336937
0.00612127
0.0407429
-0.00521913
-0.0355238
-0.0576249
0.122705
-0.0650799
0.0129976
0.00432649
-0.0805371
0.0921367
-0.0115997
0.00522724
0.0261031
-0.0313304
0.309955
-0.208813
-0.101139
0.0793566
0.0106523
0.0758703
-0.0949284
0.515609
-0.246405
-0.269198
0.0132833
0.00131318
0.0308599
-0.0116014
-0.0192586
0.164084
0.0195016
0.309536
-0.133487
-0.176046
-0.0470392
0.0370119
-0.111272
0.125625
-0.0143536
-0.026838
0.0436
-0.016762
-0.261873
0.183572
0.602807
-0.0572169
-0.545571
-0.0963798
0.12981
-0.03343
-0.130015
-0.0176545
-0.502771
0.330491
0.000939887
0.502464
0.100361
-0.095883
0.015346
0.22273
-0.214558
-0.00817145
0.00917234
-0.131979
-0.254012
0.173575
0.211032
0.184777
-0.132782
-0.00449532
0.137278
-0.00718609
-0.00910388
0.172778
-0.148257
-0.0245208
0.000333348
0.0167734
-0.285603
0.482216
-0.196595
-0.419293
0.0169511
0.402352
0.00506398
-0.14719
-0.147721
-0.167113
-0.0992688
0.125395
-0.0261259
-0.264068
0.17496
0.0891093
-0.113727
-0.0433762
0.0862359
-0.00687932
0.323122
-0.55773
0.23461
-0.0123394
0.0144256
-0.0020862
0.312535
0.355861
-0.107769
0.0981603
0.00960866
0.0117529
0.00363761
-0.0215137
-0.0061183
0.027632
0.0174664
0.025155
-0.0519931
-0.052295
-0.0873312
0.094846
-0.113709
0.0188626
0.0243875
0.00647246
0.227647
-0.378191
0.150551
-0.040888
0.0132284
0.13425
-0.151556
0.170472
-0.000304211
-0.00852666
0.00662339
0.0843441
-0.0909674
-0.350099
0.158027
-0.124954
0.0256854
-0.1067
0.307797
-0.022855
0.0280822
-0.0146573
0.00308234
0.011575
0.0169534
0.191756
-0.208707
0.0531744
-0.0290246
-0.0102868
0.0393114
0.618184
-0.335122
-0.283059
0.386133
0.232054
0.127828
-0.0122409
-0.0139099
0.00157054
-0.0570343
0.0693184
-0.0122841
-0.21858
0.0368413
0.122258
-0.109666
-0.0125923
0.159558
-0.280702
0.317363
-0.382442
0.0650796
0.065282
-0.0828459
0.0175639
0.0076908
0.13724
-0.0942191
-0.0430206
0.164588
0.31046
-0.475022
-0.063694
-0.0647779
0.0921078
0.0386817
-0.130789
0.0235272
-0.135401
0.111874
-0.265312
0.084705
0.180608
-0.196365
-0.0296276
-0.127565
0.0162931
-0.177177
0.0807976
-0.125567
0.0834494
0.0116297
0.153276
-0.124606
-0.0603512
-0.119926
0.0623014
-0.092628
0.0739601
-0.0331347
-0.0763982
0.0310219
-0.0452474
0.0142255
-0.0102146
0.0757598
-0.0750757
0.018744
0.00589924
0.00134134
-0.00724058
-0.0256695
-0.102091
0.127761
0.00930965
-0.0700119
-0.00116117
0.153237
0.187581
-0.340812
0.104194
-0.180153
-0.120242
0.0871073
-0.0141421
0.183918
-0.169775
0.2192
-0.436185
-0.451225
0.246238
0.204997
0.113608
-0.100616
-0.012992
0.00195086
0.0126887
-0.205524
0.0535658
-0.0071984
0.00286342
0.18951
-0.475093
0.0125966
-0.0696309
-0.0387282
0.0980095
-0.0592812
0.0113011
-0.000952208
-0.0869684
-0.0379857
-0.0192966
0.207818
0.101873
0.156251
0.000766284
0.0105348
0.0767829
0.0604568
-0.143773
0.118103
0.0092229
-0.315276
0.328172
-0.088117
0.10203
-0.0139127
0.00583958
-0.0603309
-0.0355521
0.184191
-0.0281574
-0.156033
0.110746
-0.108783
-0.00196275
-0.251748
0.210812
-0.333627
-0.0308539
-0.180921
0.340412
-0.0230484
0.0292009
-0.00825747
-0.0209434
-0.411407
-0.151102
0.0838601
-0.018578
0.00841902
-0.121956
0.0349872
0.00225904
-0.000906687
-0.00135235
-0.00373769
-0.005068
-0.0947891
0.0344582
-0.0141675
0.109014
0.166447
-0.148981
0.134337
-0.235873
-0.0572864
0.0231707
0.33715
-0.360298
-0.00146721
-0.417816
0.392594
0.146653
-0.130418
-0.0162341
-0.0248184
-0.0873093
0.112128
0.104129
-0.012021
-0.0120431
0.0892394
-0.244148
0.0124045
0.231744
0.00467089
0.489664
0.10735
0.00693696
-0.00452398
0.00995156
-0.14334
0.133388
0.0468544
0.442812
0.2306
0.248607
-0.479206
-0.0187786
0.02709
-0.00831133
0.0311301
-0.217857
0.0267467
0.0322108
-0.0589576
0.0272595
-0.00287205
0.114416
0.0925981
-0.123781
0.0311826
-0.232532
-0.148193
0.380735
0.00307088
-0.0245627
0.00211453
0.15827
-0.160384
0.0585598
-0.243829
0.00339001
0.344951
0.178967
-0.523917
0.0232531
-0.253189
-0.154735
-0.18338
0.338121
-0.0182149
0.146144
-0.127929
-0.00918151
0.0101285
-0.000947029
0.0285517
-0.193153
0.164602
-0.1738
0.174811
-0.0010106
-0.11572
0.00797841
0.00347269
-0.00042399
-0.173347
0.114559
0.0139567
0.137272
-0.151228
0.0309091
-0.00621343
-0.0246957
-0.35603
0.379226
0.0237926
-0.327607
-0.193098
0.520717
0.0474894
0.249142
-0.081192
-0.0121297
0.0933217
-0.0741674
0.116215
-0.0420475
-0.0172938
-0.099633
0.11777
-0.0132193
-0.104551
0.0170843
-0.538352
0.316498
0.221856
0.379861
0.217154
0.119394
-0.118581
0.234212
0.0757448
-0.117142
-0.42121
0.198588
-0.222503
0.0239155
0.115141
-0.00468644
-0.110455
-0.3989
0.433571
-0.0346533
0.0943754
-0.108156
0.0137809
0.0237799
-0.0616633
0.0509057
0.0107577
0.000522675
0.117247
-0.00209191
0.000267752
0.00182416
-0.00307394
0.127418
0.479289
0.120771
-0.118059
-0.00271168
-0.516038
0.236266
0.279788
0.138959
0.097039
-0.0166866
0.0477085
0.0288723
-0.00150896
-0.000145039
-0.0344717
0.0282583
-0.178795
0.302485
-0.123687
-0.192519
0.209475
0.119258
-0.0777346
-0.0415229
0.223872
-0.208229
-0.0156419
-0.187293
-0.192931
0.380233
-0.0142463
-0.0261683
0.0937689
0.00476803
0.000841699
0.00868856
-0.00953025
-0.0161957
-0.11593
0.0417622
-0.34758
0.304391
0.0431894
0.00806254
-0.331286
0.102366
-0.0557628
-0.0466031
-0.0795134
-0.042861
0.250959
0.492295
0.133901
-0.626195
0.0281927
0.0811525
0.106449
-0.000367858
-0.106081
-0.00241535
-0.253603
0.0390911
-0.628042
0.361123
0.26693
-0.01034
0.00115852
-0.25328
-0.0120318
-0.0176397
-0.158562
0.176202
0.357667
-0.514953
0.000947122
0.00179098
-0.0027381
-0.475963
0.167344
-0.0175835
0.00399127
-0.284137
-0.119629
0.403768
0.0106697
-0.114234
0.179504
-0.154275
-0.0252288
0.132234
-0.0710127
-0.0612215
0.0103913
-0.313257
0.0924131
-0.262348
0.151742
0.110607
0.596476
-0.345654
-0.250797
-0.0174291
-0.06545
0.0828791
0.0740809
-0.240602
0.166522
-0.0194383
0.0153104
-0.0487016
0.254679
-0.205975
-0.088505
0.0305047
0.0580003
-0.0065375
-0.0121199
0.0186574
0.0170555
-0.175167
0.158112
-0.159544
0.41086
-0.251291
-0.000670482
-0.00809097
0.00876145
-0.044203
-0.0107621
0.0549651
0.225689
-0.136658
0.0963502
0.0198648
0.0449142
-0.280787
-0.0154256
0.000611507
0.0148141
0.324954
-0.171713
-0.0643801
-0.0558618
0.473471
-0.225858
-0.247607
0.425859
0.170635
0.0640552
-0.0373084
0.0118538
0.287495
0.210461
-0.181527
0.0559737
-0.00529998
-0.00494792
0.0102479
-0.0531493
0.0654211
-0.0122719
-0.0407262
0.0117015
-0.131222
-0.216311
-0.00238709
0.00828633
0.116931
0.34175
-0.605372
0.206495
-0.229081
0.206928
-0.402554
0.297719
0.284826
-0.550516
0.265693
0.0369282
-0.0122537
-0.0246745
0.0493155
-0.014192
-0.0351234
-0.276075
0.101577
-0.433994
0.534374
0.144183
0.0484131
0.0693767
0.267098
-0.00778115
0.00711067
-0.00176656
-0.00284773
0.00135189
-0.00181627
-0.179187
-0.0831599
-0.0850987
0.247817
0.2678
-0.0292535
-0.163012
0.0687547
-0.107483
-0.142403
0.370058
0.186888
-0.514488
-0.103601
0.092633
0.0109684
-0.00572348
-0.00893385
0.122625
-0.0300272
-0.010108
0.151679
-0.0210488
-0.13063
-0.410041
0.211023
0.158317
-0.00912598
-0.149191
0.117649
-0.0212985
0.0135519
-0.014327
0.00077506
0.154087
-0.172114
0.0645702
0.00770233
-0.0722725
-0.117617
0.038104
0.0601479
0.430595
0.0134742
0.00840798
-0.0218822
-0.00369802
0.0171722
0.00158177
0.0110166
-0.0125984
-0.0706335
-0.0563114
0.0671341
-0.0108228
-0.0968441
0.17929
0.0584819
0.00457171
-0.0223206
0.0872816
-0.064961
-0.191561
0.177419
-0.581376
0.365701
-0.0382559
0.0352057
0.00305016
-0.234623
0.222686
0.011939
-0.475264
0.315745
0.0351703
0.246889
-0.21801
-0.0166118
0.00133608
-0.107387
0.223876
-0.381389
0.157523
0.0076407
0.150676
-0.00252788
-0.00166301
-0.124298
-0.117441
0.241741
0.00224651
0.0134332
0.0788455
-0.220712
0.141867
0.00391343
0.10447
-0.108383
-0.000478745
0.00619589
-0.00571715
-0.287673
0.077855
-0.0670333
-0.220283
0.113986
0.106297
0.176978
-0.159923
-0.064424
0.0112747
-0.0214609
-0.101394
-0.00257278
0.103966
0.152404
0.00866251
-0.0139625
-0.160135
0.319972
-0.159833
0.00174714
-0.0151061
0.013359
-0.0214748
-0.161714
0.00422363
-0.00211209
-0.00211154
-0.0141273
0.013181
0.000946223
0.0131948
-0.0114476
0.00110581
0.129051
-0.130157
-0.143256
-0.156354
0.299612
0.119748
-0.29854
-0.322196
0.657888
-0.335688
-0.172937
0.419723
-0.11175
-0.30797
-0.00694106
-0.16164
-0.0126119
0.0221687
-0.153519
0.131351
-0.0542861
-0.119061
0.118166
-0.21501
-0.366796
0.235586
0.00176506
-0.188002
0.186237
-0.174611
0.168234
0.00637751
-0.14931
-0.149524
-0.124392
0.190122
0.014648
0.00614689
-0.0207949
-0.0134107
-0.0684137
0.0818244
0.0242864
0.166577
-0.190863
-0.13845
-0.00399456
0.142444
-0.0285339
-0.00972199
0.228226
-0.00436293
-0.00205603
-0.557503
0.201498
0.141746
0.000271848
-0.142018
-0.134304
0.208385
-0.190564
0.35426
-0.163692
0.111243
-0.140135
0.0288927
-0.156673
0.424102
-0.148569
0.372458
-0.0605512
0.104441
-0.0916645
0.281209
0.102042
0.0130994
-0.299968
0.152248
-0.0132833
0.00114626
0.0121371
-0.0823038
0.0958407
-0.0135369
0.011745
-0.0946953
0.0829504
0.0803341
-0.0887727
0.134392
-0.327001
0.192613
0.000221642
-0.114095
0.105731
0.00836357
0.527878
0.00930679
-0.0228508
-0.20529
0.000806882
-0.00516981
0.209009
-0.207875
-0.00113296
-0.0656005
0.065807
0.0275506
-0.0112487
0.000551104
-0.125408
0.0898071
0.0356012
0.124045
0.189594
-0.313636
-0.0374254
-0.0227299
0.0885369
0.0144255
-0.108297
-0.111986
0.321158
0.161076
-0.257501
0.386435
-0.128926
0.0619858
0.096278
0.254164
-0.305527
0.0513649
0.000512065
-0.00403275
0.000981828
0.280331
0.296675
-0.0460178
-0.0587409
-0.104769
0.0258976
0.0788712
-0.303722
0.148994
-0.00839891
0.0230469
-0.0105584
-0.00702516
0.10518
-0.0114113
-0.214836
0.166135
0.00827042
0.0295289
0.151717
-0.159942
0.47693
-0.316975
0.00822608
-0.00738438
-0.130343
0.1443
0.375871
-0.259415
-0.11645
0.424101
-0.18095
-0.243144
-0.188934
0.170381
-0.163158
0.138837
0.024321
0.0144336
-0.0213815
0.00111741
0.00198797
0.0204221
0.133089
-0.153511
0.0244044
-0.00494758
-0.0194568
0.0672203
-0.213571
0.146351
0.165163
0.157923
-0.323083
-0.085543
0.0403028
0.0452402
-0.237
-0.214216
-0.0120431
-0.0797719
0.091815
-0.398553
0.590972
-0.24612
-0.344832
0.12969
0.079367
-0.209057
-0.0810613
0.00353067
-0.0187685
0.0152378
-0.0130361
-0.00238949
-0.0780816
0.0900859
-0.0120042
-2.82163e-05
-0.0062547
0.00628292
-0.00657128
0.0260679
-0.0194966
0.120885
0.0279721
-0.0920063
-0.207598
-0.150013
-0.149953
0.0175298
0.138187
0.496605
0.0359056
-0.532457
0.146207
-0.136256
0.0173646
-0.0310969
-0.0517951
-0.113563
0.541699
-0.10484
0.142646
-0.0378057
-0.00474749
-0.098812
0.109783
-0.0109712
-0.0060036
-0.00928607
0.123815
-0.100172
0.434353
-0.165591
0.0951428
-0.0913171
-0.00382569
0.0189126
0.179676
-0.0055177
-0.00980124
0.0275082
-0.301438
-0.326591
0.14156
0.234319
0.441105
-0.271759
-0.16934
0.219647
-0.0376131
0.0948055
-0.0908414
-0.00396417
-0.0062049
0.032308
0.00539301
-0.0241716
0.0559461
0.110501
0.314585
-0.471252
0.0155541
0.0864757
0.227448
0.0920244
0.0161353
-0.087677
0.00160737
-0.0022471
0.131579
-0.113456
0.00134072
0.00799967
0.00670946
-0.00545206
0.00336015
0.0178918
0.11244
-0.130332
-0.0243424
0.17843
-0.0100873
0.00770022
0.187216
-0.162929
0.0762205
0.0896823
-0.165903
0.0877687
0.0314888
-0.0193333
0.334845
-0.143649
-0.191194
0.0502057
0.0152155
0.325004
-0.159839
-0.0365479
-0.0124876
0.0490355
0.00305491
-0.374331
-0.183149
0.173941
0.147738
-0.0364947
0.105338
-0.00470666
0.18016
-0.13999
-0.0401696
-0.342936
0.550866
-0.207917
0.0283143
-0.206321
-0.173267
0.213185
-0.0399175
-0.118101
-0.115845
0.233947
0.0161365
0.0493078
-0.0654443
0.281025
-0.45833
0.177307
0.00799052
-0.0521935
0.0114563
-0.00987449
0.179562
0.145444
-0.180228
0.155886
-0.0279217
-0.135236
-0.487453
0.241056
0.0298605
-0.00098818
-0.00811684
0.000445204
0.0166544
0.00337721
-0.0200316
0.210069
0.242391
-0.452453
0.0264291
-0.208831
0.182403
0.018636
0.172817
-0.191453
-0.220515
-0.0247737
0.245289
-0.0968752
0.0182072
0.078668
0.0267297
0.382908
-0.598437
0.215531
-0.0143556
0.113425
-0.0990691
-0.131206
-0.0459713
-0.0717467
0.0194705
0.0522762
0.15025
0.000410966
0.0398888
-0.213156
-0.2214
0.0530658
0.168335
0.0890856
0.118023
-0.0150764
-0.102947
0.116877
-0.232098
0.367156
-0.135054
0.00771989
-0.00374544
0.00195886
0.00178659
-0.0355533
0.0253525
-0.00325378
0.00995966
-0.0480979
0.01155
0.00310229
0.00259555
0.00162808
0.365853
-0.192989
-0.172861
-0.33763
0.162368
0.181147
0.117631
-0.298774
-0.0140027
-0.0730229
-0.106318
-0.0374359
-0.113958
-0.0138735
0.0132776
0.000595809
-0.318018
0.157887
0.185361
0.335531
-0.520856
0.378797
-0.0137553
-0.0766884
0.300007
0.214134
0.132308
-0.209686
0.0773787
0.0984178
0.0920675
0.0708386
-0.0555981
-0.0152405
-0.110727
0.21487
-0.104142
-0.334719
-0.181306
-0.447738
0.255628
-0.142142
0.328947
-0.186802
0.18609
-0.620065
0.122248
-0.112262
-0.00998591
-0.0789129
-0.0179624
-0.0447645
0.120985
-0.0527618
0.0117076
0.0410541
-0.199221
0.346118
-0.146894
0.155058
0.00431001
-0.0223955
0.015858
-0.0123207
0.000451578
0.0722186
-0.0031713
-0.0690473
0.0633827
0.0416001
-0.104983
0.0563645
0.0343558
0.424797
-0.126288
0.11236
0.0139283
0.0213547
-0.242753
-0.424589
0.140455
-0.185382
0.196856
-0.0114733
0.00367767
0.11219
-0.282191
0.170003
0.11278
0.00524283
-0.077194
0.0651509
0.296856
-0.192765
-0.303229
0.11267
-0.158525
0.125074
0.0334517
1.64763e-05
0.368028
0.204367
-0.572393
0.0279648
0.0428739
-0.125257
0.30641
0.0754902
-0.0894929
0.463062
-0.232462
-0.0978041
-0.178268
0.072232
-0.0632078
-0.0281911
0.0913989
0.0559347
0.228418
0.0157952
-0.0805337
0.00378668
0.00385919
-0.0910627
-0.0283709
0.00936688
0.0190041
-0.343804
0.107108
0.000950685
0.0126013
-0.0830065
0.0606859
-0.392984
0.30018
0.0928067
-0.00502721
-0.0862899
0.0257329
-0.104216
0.0770909
0.0271249
-0.222053
-0.19215
-0.114538
0.306693
0.430715
-0.44057
0.00987135
0.307436
0.253414
-0.0468257
-0.206587
-0.136872
0.141324
-0.00445197
-0.110479
-0.0154502
0.125929
-0.183773
0.307821
-0.213244
0.431749
-0.102151
0.0311084
-0.240949
0.419212
-0.178251
-0.0401055
0.0297125
0.0103929
-0.181097
0.0203205
0.000917768
-0.000718279
-0.000199489
0.0692347
-0.102688
0.251871
-0.473601
0.221733
0.0143388
0.245171
-0.531344
0.2862
0.18817
-0.0256315
0.111784
-0.127635
0.0158509
0.0854012
-0.0131825
0.130625
-0.129519
0.337562
-0.593435
0.255876
0.11269
-0.0246855
-0.0865362
0.0372439
0.0492923
0.107674
-0.10376
0.0251121
-0.102297
0.0771851
0.133435
-0.100166
-0.0332687
0.104936
-0.129754
-0.0786067
-0.0411924
0.127624
-0.00289793
-0.124726
0.0796873
-0.190414
0.224243
0.192548
0.0666052
-0.00255001
0.00410889
-0.0413535
0.213351
-0.171996
-0.424582
0.264651
-0.0121297