/*--------------------------------*- C++ -*----------------------------------*\
| =========                 |                                                 |
| \\      /  F ield         | OpenFOAM: The Open Source CFD Toolbox           |
|  \\    /   O peration     | Version:  v2012                                 |
|   \\  /    A nd           | Website:  www.openfoam.com                      |
|    \\/     M anipulation  |                                                 |
\*---------------------------------------------------------------------------*/
FoamFile
{
    version     2.0;
    format      ascii;
    class       surfaceVectorField;
    location    "50";
    object      ddtCorrDdt0(Uf);
}
// * * * * * * * * * * * * * * * * * * * * * * * * * * * * * * * * * * * * * //

dimensions      [0 1 -2 0 0 0 0];


internalField   nonuniform List<vector> 
20580
(
(0.00248387 0.0279628 1.37746e-18)
(0.00172299 0.0296223 -4.46366e-19)
(0.000997183 0.0276888 -4.72388e-18)
(0.00108311 0.000449616 -2.57988e-18)
(0.00112015 0.000383619 -4.80111e-18)
(0.00118268 0.000477418 1.6403e-18)
(0.00102792 0.000535715 -4.34791e-19)
(0.000994018 0.000437214 6.14112e-18)
(0.0116062 -0.00719209 9.75439e-18)
(0.0108229 -0.00673184 7.86704e-19)
(0.0120414 -0.00702794 -6.09563e-17)
(-0.000175981 3.8857e-05 2.01429e-19)
(-0.00016042 3.82187e-05 1.32998e-19)
(-0.000167811 2.25043e-05 8.71932e-19)
(0.00176892 -0.000632458 -7.23599e-19)
(0.00170555 -0.000832544 -4.42412e-19)
(0.00158689 -0.000695627 3.79542e-18)
(-0.00102408 0.000214374 1.59196e-18)
(-0.00112556 0.000210048 8.10822e-19)
(1.63398e-05 -4.48943e-05 4.47819e-19)
(2.0922e-06 -4.50352e-05 -4.57082e-19)
(-4.09792e-05 -2.91857e-05 2.36902e-19)
(0.0776929 -0.013497 -5.55437e-19)
(0.0768071 -0.0133654 -1.0276e-18)
(0.0736952 -0.0122728 9.5542e-20)
(-0.00025423 0.000756445 -1.41716e-18)
(-0.000235742 0.000829103 8.55789e-19)
(-0.0002533 0.000830911 -3.91234e-19)
(0.000268706 -0.0138825 -6.18639e-18)
(0.000267216 -0.0128101 -1.67546e-17)
(-0.000710496 -0.0134119 6.10605e-19)
(-0.000281131 0.000668472 1.80382e-18)
(-0.000297272 0.000647568 4.50302e-19)
(-0.000297327 0.000671883 2.43488e-19)
(-0.000493282 -8.29407e-06 1.45593e-18)
(-0.000538904 -1.68251e-05 -5.28998e-18)
(-0.000525066 -5.27282e-05 3.76912e-18)
(0.0615952 -0.00665456 1.11241e-18)
(0.0605541 -0.00708335 -3.19762e-18)
(0.0605939 -0.00528017 7.08911e-19)
(0.0018178 0.00561453 3.11188e-18)
(0.00211536 0.0058464 5.73814e-18)
(0.00211224 0.0054449 1.26964e-18)
(-0.0109234 0.00713819 -1.10764e-18)
(-0.0107399 0.00695782 2.32172e-18)
(-0.0111997 0.00695419 -6.52861e-19)
(0.0362077 -0.00731701 -2.02722e-17)
(0.0374272 -0.00747865 6.78378e-17)
(0.0370326 -0.00787995 1.35736e-17)
(0.00014526 -0.000250019 -1.9187e-18)
(0.000156222 -0.000213917 -2.53582e-19)
(0.000144671 -0.00028313 -1.264e-18)
(0.0587833 0.0188643 -5.07204e-18)
(0.0595647 0.0153388 2.2068e-17)
(0.0603877 0.0181788 -9.50944e-18)
(0.00403622 0.0285512 -5.78616e-18)
(0.00344363 0.0266084 2.67202e-18)
(0.00501068 0.00612384 1.59734e-18)
(0.00502896 0.0056259 -4.03277e-18)
(0.00452328 0.00589235 5.05578e-18)
(-0.00210892 -0.00228982 2.98768e-18)
(-0.00216852 -0.00218131 1.29733e-18)
(-0.00198233 -0.00219526 1.61472e-18)
(0.0116712 -0.0110117 1.52932e-17)
(0.0120175 -0.011521 -2.81537e-17)
(0.013716 -0.013099 3.41829e-17)
(-5.81797e-06 1.98974e-05 6.51671e-20)
(-9.41418e-06 2.53263e-05 -1.11076e-19)
(-5.8317e-06 1.65982e-05 -4.74338e-19)
(-0.128933 -0.0668218 1.26612e-17)
(-0.127377 -0.0647093 3.57641e-17)
(-0.123135 -0.0662864 6.36294e-17)
(-0.00756915 0.00660756 -1.10458e-18)
(-0.00785306 0.0066441 1.18733e-18)
(-0.00766447 0.00689744 -4.0983e-18)
(-0.0182795 0.0103327 2.08914e-19)
(-0.0191819 0.00978877 -4.19371e-19)
(-0.0183451 0.00970806 8.39719e-19)
(0.060429 0.0740064 3.87694e-18)
(0.052247 0.0740352 -4.16459e-18)
(0.0639874 0.0811426 -1.22204e-18)
(0.0774252 -0.0110318 8.5209e-20)
(0.0748789 -0.0110136 -4.5716e-19)
(0.0745581 -0.0105664 1.56266e-18)
(4.57923e-05 -0.000418554 1.08789e-18)
(3.26284e-05 -0.000450722 3.97847e-19)
(3.47354e-05 -0.000427797 -1.32903e-19)
(0.0172936 -0.00149845 7.33694e-17)
(0.0194085 -0.00200971 -2.2461e-17)
(0.0170497 -0.00120516 -1.51298e-17)
(-0.000994141 0.000315664 1.51789e-18)
(-0.000933258 0.000203982 -3.30733e-18)
(-0.00264699 0.0255592 1.61974e-18)
(-0.00359238 0.0247753 -4.89696e-18)
(-0.00218624 0.0244004 -3.84782e-18)
(0.0816409 0.0597987 -7.19597e-20)
(0.077613 0.06455 1.94857e-18)
(0.0695265 0.0681536 7.88104e-19)
(0.0012293 -0.00789154 -7.03439e-18)
(0.00152537 -0.00769791 -5.07703e-18)
(0.00144492 -0.00815834 8.8022e-19)
(0.0744346 -0.0125563 1.62282e-19)
(0.0776429 -0.0132399 2.55294e-18)
(0.0741455 -0.0130005 -5.26929e-18)
(-1.86701e-06 1.35128e-05 -2.99517e-19)
(-5.94158e-06 2.39737e-05 9.71592e-19)
(-0.0520421 -0.00871643 2.86563e-17)
(-0.0472998 -0.00689888 1.13923e-17)
(-0.0500529 -0.00720282 -2.1772e-17)
(-0.00591331 -0.0406078 1.42845e-17)
(-0.0109101 -0.0423068 -5.20256e-17)
(-0.0135675 -0.0435709 -1.90884e-17)
(-0.000753417 -0.00077539 6.53194e-19)
(-0.00072832 -0.000775091 -7.8166e-19)
(-0.000742163 -0.000788343 -5.81414e-19)
(-0.0556823 0.0459472 2.25855e-19)
(-0.0560497 0.0549846 3.20728e-19)
(-0.046645 0.0520318 -1.13433e-18)
(0.0796916 -0.0106194 -1.13994e-19)
(0.0802187 -0.0113956 -6.50724e-19)
(0.0225929 -0.00754244 -1.43796e-17)
(0.0235534 -0.00772389 -1.29988e-17)
(-0.0188576 0.00734383 -6.9941e-18)
(-0.0204589 0.00842474 -8.62988e-18)
(-0.0183422 0.00765038 -4.41179e-18)
(0.0807159 -0.00703347 5.65739e-19)
(0.0798105 -0.00667343 -5.9482e-19)
(0.0782498 -0.00752292 -2.75764e-19)
(-0.000305712 -0.000699693 1.30545e-19)
(-0.000322316 -0.000698114 -4.17069e-22)
(-0.000307316 -0.000683646 1.01578e-19)
(-7.8952e-06 8.02615e-06 -8.02036e-19)
(1.51397e-05 4.72316e-06 1.19476e-18)
(-0.0110737 0.00990682 -4.83485e-18)
(-0.0112481 0.00970314 -9.32221e-19)
(-0.0109569 0.00961642 -1.363e-18)
(-0.000495395 -0.00173981 1.03855e-17)
(-0.000476158 -0.00167294 -9.11983e-20)
(-0.000398428 -0.00167269 -8.87667e-19)
(-0.000472536 -5.23551e-06 -3.64281e-18)
(-0.000450255 -1.27504e-06 4.73942e-18)
(-0.0711836 -0.0188465 -1.85528e-18)
(-0.0751656 -0.018744 5.90385e-17)
(-0.0760898 -0.0144174 1.01811e-16)
(-0.000341716 0.000106061 1.04124e-17)
(-0.000332064 0.000116885 8.55922e-18)
(-0.000361069 7.79035e-05 -8.25646e-18)
(-0.0110488 0.00739174 9.49976e-19)
(-0.0107278 0.00729775 1.93602e-19)
(-0.00267187 0.00226873 2.90147e-18)
(-0.00277336 0.00245284 -4.55147e-18)
(-0.00290287 0.00223642 9.46977e-19)
(0.0617569 -0.00910727 4.46263e-19)
(0.0624407 -0.00931669 7.81604e-19)
(0.0619809 -0.00913301 -2.46804e-19)
(-0.000787012 -0.000776484 -4.67567e-19)
(-0.000764365 -0.000762419 2.01833e-19)
(-0.0032577 0.0270266 5.29738e-18)
(-0.00142355 0.0263808 -4.09171e-18)
(-0.0646093 0.0387351 -2.67926e-19)
(-0.0664342 0.0377099 8.47862e-19)
(-0.013668 0.0103438 -2.55101e-19)
(-0.0102497 0.010046 -1.27674e-18)
(-0.00989231 0.0100337 1.40952e-18)
(-0.0535827 0.00787071 -2.16917e-19)
(-0.0464625 0.00922602 5.00008e-19)
(-0.0535251 0.014272 1.89238e-18)
(-0.000266014 0.000683577 5.97685e-19)
(-0.000266354 0.0006626 -5.91733e-19)
(-0.0169199 0.01075 1.70932e-19)
(-0.0177017 0.0111168 1.51152e-18)
(-6.73555e-05 0.00125689 -8.77229e-19)
(-0.000103313 0.00125638 -4.61713e-18)
(-8.58606e-05 0.00128002 1.29816e-18)
(-0.000588254 -0.00176527 4.00957e-18)
(-0.000521892 -0.0017973 -3.77681e-18)
(-0.0104988 0.0102451 -1.05086e-18)
(-0.0111459 0.00973127 -1.30158e-18)
(-0.0103912 0.00947965 -3.60074e-18)
(-0.00991482 0.0106436 -1.15885e-18)
(-0.010693 0.0110346 -1.16996e-19)
(-0.061227 0.00417097 -9.42816e-19)
(-0.055147 0.00119622 4.87353e-19)
(-0.00211652 0.00736277 -5.26611e-20)
(-0.00234741 0.00756207 -2.39549e-18)
(-0.000507407 -0.00109019 8.81673e-19)
(-0.000571395 -0.00107237 -7.82842e-20)
(-0.00049958 -0.0010304 9.76617e-19)
(0.0118296 -0.00570059 3.30759e-17)
(0.012907 -0.00613945 -1.37371e-17)
(0.0128166 -0.00583831 1.06393e-17)
(0.0259577 -0.00324258 2.30201e-17)
(0.0277289 -0.00420415 -2.82677e-17)
(0.02669 -0.00370887 -4.4383e-17)
(0.00661319 0.00764251 2.35914e-18)
(0.00710196 0.0072945 -5.40755e-18)
(0.00724182 0.00802453 -2.93243e-18)
(-0.000642408 -0.000387535 2.27661e-18)
(-0.00063184 -0.000352145 -1.42661e-18)
(-0.000664938 -0.000388662 2.49112e-18)
(-0.0395746 0.00956629 -4.63483e-19)
(-0.0412532 0.00267928 -2.13489e-18)
(-0.00210507 0.00359782 -2.01935e-20)
(-0.00190311 0.00347266 -1.04863e-18)
(-0.00188673 0.00373869 2.48077e-18)
(-0.00168039 -0.00150503 -2.60106e-19)
(-0.0016449 -0.00141648 5.68703e-19)
(-0.00157281 -0.00149845 3.71424e-19)
(0.0350368 -0.00692048 -4.14647e-17)
(0.0344972 -0.0071057 3.34174e-17)
(0.000107878 1.14649e-06 -6.44806e-19)
(0.000107412 -3.55565e-05 -1.33529e-18)
(0.000110296 6.64978e-06 -1.42607e-18)
(-0.130291 -0.0701282 -6.10374e-17)
(-0.122402 -0.0695819 -4.99065e-17)
(-0.00047059 -0.000384471 -2.47935e-18)
(-0.00046813 -0.000336467 -1.44929e-18)
(-0.000478533 -0.000330418 -1.40923e-18)
(-0.000555714 -0.00111694 2.1073e-19)
(-0.000530686 -0.00105596 -1.39882e-18)
(-0.00874607 -0.0434317 8.2269e-18)
(-0.00599819 -0.0460717 5.59312e-17)
(-0.00834726 -0.0464854 8.17398e-17)
(0.00103433 -0.00745953 -1.15562e-17)
(0.00066301 -0.00780455 1.41557e-18)
(0.0554816 -0.00409335 -1.71534e-19)
(0.0579658 -0.00411799 -1.47784e-18)
(0.0577654 -0.00218947 4.46241e-18)
(-0.0320279 0.00962859 -2.38949e-18)
(-0.0373745 0.0162675 -3.99434e-18)
(0.0215871 -0.00255318 -2.48995e-17)
(0.0221403 -0.00241971 -3.7447e-18)
(0.0196468 -0.0015351 -1.37639e-18)
(-0.00219462 -0.00238191 -2.4635e-18)
(-0.00202984 -0.00239435 2.5076e-18)
(0.0617394 -0.00883435 6.62972e-19)
(0.0603386 -0.00892197 -1.47918e-18)
(0.0620762 -0.00898292 1.45341e-18)
(-0.000359522 0.000518609 -5.08051e-19)
(-0.000376315 0.000505403 -1.90501e-18)
(-0.000355341 0.000589007 -4.70365e-18)
(0.0160078 -0.0012699 2.64996e-17)
(0.0178988 -0.00220485 -2.24254e-17)
(-0.000319741 0.000147671 6.53935e-18)
(-0.000269708 0.000108645 -1.67206e-17)
(-0.000968845 0.000406839 -3.58705e-18)
(-0.001059 0.000420566 -1.37446e-18)
(-0.0274649 -0.0122572 2.71841e-17)
(-0.0307654 -0.0122219 -1.95461e-17)
(0.0213322 -0.00278382 -9.7386e-18)
(0.0230587 -0.00345745 2.85725e-17)
(-0.0458257 -0.0446641 -1.85389e-17)
(-0.0408273 -0.0417812 -1.05187e-16)
(-0.0438925 -0.0401874 -1.02398e-16)
(-0.0183923 0.00645858 2.11172e-18)
(-0.017775 0.00567511 -3.68145e-18)
(-0.0173162 0.00642063 -8.55661e-18)
(-0.000450918 -0.000671299 -4.0668e-19)
(-0.000463534 -0.000680102 -6.214e-19)
(-0.000456329 -0.000677369 -1.06085e-18)
(-0.0114863 0.00858412 3.01645e-18)
(-0.0113919 0.00821354 -1.96708e-18)
(-0.011135 0.0084599 1.80318e-18)
(-0.140679 -0.0157932 -7.03118e-18)
(-0.143471 -0.0149981 -1.36563e-17)
(-0.149467 -0.0130597 -1.86142e-17)
(-0.0164976 -0.0135922 3.78978e-17)
(-0.0173938 -0.0141128 2.45227e-17)
(-0.0174657 -0.0130912 5.00407e-18)
(-0.0115834 0.00890735 4.0976e-19)
(-0.011962 0.00867004 3.52065e-18)
(-0.00287734 0.00508119 1.98202e-17)
(-0.00262981 0.00501918 3.18936e-17)
(-0.00277427 0.00472877 1.32376e-17)
(-0.0035104 0.00521207 -1.47477e-18)
(-0.00329903 0.00535012 6.89788e-18)
(-0.00351036 0.00547923 5.29108e-18)
(-0.000665668 -0.000328255 -9.92791e-19)
(-0.000691731 -0.000351775 1.36484e-18)
(-0.000706013 -0.000334845 -1.62479e-18)
(-0.000226002 -0.000720438 2.29677e-20)
(-0.000226651 -0.000750675 -5.75422e-19)
(-0.00019842 -0.000723987 1.74207e-18)
(0.00871776 0.00383378 -1.12726e-18)
(0.00908347 0.00336365 -2.20899e-17)
(0.00942656 0.00413268 -1.15565e-17)
(-0.000231306 -0.000703014 6.72276e-19)
(-0.000240222 -0.000715806 -5.83568e-19)
(0.0250637 -0.0029131 2.02956e-17)
(0.023676 -0.00206768 1.63784e-17)
(-0.000878113 0.000398981 -4.36185e-18)
(-0.000940001 0.000508722 -1.96523e-19)
(0.00013782 -0.000286315 -1.41429e-18)
(0.000147369 -0.000227192 -2.59286e-18)
(-0.00398169 -0.00188359 -6.73562e-19)
(-0.00413483 -0.00203012 1.1987e-18)
(-0.00418671 -0.00181032 -1.71241e-19)
(-0.000272005 -0.000709413 -6.95888e-19)
(-0.000307143 -0.000737427 -2.58689e-20)
(0.0321321 -0.0225684 -7.13384e-19)
(0.0341674 -0.0211919 1.65728e-17)
(0.0345832 -0.0244979 -2.14864e-17)
(0.0115533 -0.00934064 -1.05439e-17)
(0.0112628 -0.00851628 -6.45596e-18)
(0.0106037 -0.00917131 -1.93102e-17)
(-0.00832433 0.0195504 1.78819e-18)
(-0.00873633 0.0187783 -2.98087e-18)
(-0.0092463 0.0197247 -2.17539e-18)
(-0.00256488 0.00205934 1.44604e-18)
(-0.00244024 0.00223946 3.95156e-18)
(-5.06873e-05 -0.000331433 4.49091e-19)
(-6.51559e-05 -0.000338609 5.41971e-20)
(-5.02421e-05 -0.000345029 -1.38293e-19)
(3.48793e-05 -4.40204e-05 2.65195e-20)
(3.77051e-05 -6.30712e-05 5.47489e-19)
(0.0122647 -0.00765454 2.27602e-17)
(0.011354 -0.00744553 5.37632e-17)
(0.0106822 -0.00543169 1.04098e-17)
(0.0106349 -0.00517315 -5.04877e-17)
(-0.0173778 0.00166205 1.54556e-17)
(-0.0172133 0.00236651 -7.80829e-18)
(-0.0181006 0.00215039 -1.02506e-17)
(0.000106565 -0.000315957 -4.07677e-19)
(9.39892e-05 -0.000354418 1.10913e-18)
(0.000107528 -0.000296785 7.09414e-19)
(-0.000632049 -0.000983731 -2.96853e-20)
(-0.000638842 -0.00102834 -1.91412e-19)
(-0.000674252 -0.000988393 2.01304e-19)
(-0.00136802 0.0332097 2.28609e-18)
(0.000406044 0.0391055 -3.11584e-18)
(-0.00900803 0.0355457 4.87081e-19)
(0.0385496 0.0372242 6.5055e-18)
(0.041945 0.036435 -2.36253e-18)
(0.0416242 0.0404362 -2.15138e-18)
(-0.00282122 0.00962459 -1.782e-17)
(-0.00286941 0.00931811 2.70132e-17)
(-0.00319864 0.00955422 4.65524e-18)
(-0.000409011 -0.000714975 8.23415e-19)
(-0.000398538 -0.000642139 1.24437e-18)
(-0.00675069 -0.00881273 -3.59601e-18)
(-0.00608363 -0.00881703 3.34525e-18)
(-0.00654687 -0.00830161 4.29243e-18)
(0.0358835 0.0703615 8.75466e-19)
(0.0196047 0.0657999 -3.17309e-18)
(0.0289557 0.0707373 1.80272e-19)
(0.00312872 0.00809969 1.79279e-18)
(0.00333647 0.00862596 1.04573e-18)
(0.00362805 0.00803575 1.00161e-17)
(-0.00220879 -0.00206508 -1.24396e-18)
(-0.00236216 -0.00216505 5.37557e-19)
(0.00133681 -0.00390218 -3.92868e-19)
(0.00173003 -0.00370925 -2.21837e-17)
(0.00134758 -0.00355733 4.68107e-18)
(-0.0530874 -0.0108505 6.43052e-18)
(-0.0565748 -0.0114779 4.17706e-17)
(0.0849574 0.0552315 -5.39215e-18)
(0.0818429 0.0544362 2.82171e-18)
(0.000140176 -0.0146019 1.0779e-17)
(0.000878938 -0.014249 1.1126e-17)
(-0.0304855 -0.0434313 2.46203e-17)
(-0.029794 -0.0410677 -2.7593e-17)
(-0.0257648 -0.0401086 8.83161e-18)
(-0.00212994 0.00709585 -2.12405e-18)
(0.0226221 -0.00250904 1.50138e-17)
(0.0237619 -0.00326203 1.55296e-18)
(-0.00209915 0.00375602 -2.37236e-19)
(-0.00213209 0.00380678 -1.2339e-17)
(-0.00207151 0.00381164 2.05268e-18)
(0.00211063 0.00824869 2.18838e-18)
(0.00179841 0.00782819 -3.5805e-18)
(0.00157385 0.00829712 1.13428e-18)
(-0.0110093 -0.0414694 -8.18258e-17)
(-0.00843349 -0.0412121 9.69e-18)
(-0.00117243 -8.10648e-06 -8.99898e-18)
(-0.00111585 -1.03224e-05 2.21818e-19)
(-0.00113574 -6.93985e-05 -1.24068e-17)
(-0.000340052 0.000515561 1.46555e-18)
(-0.000359104 0.000455807 4.99904e-18)
(-0.00556376 0.0085374 6.26441e-18)
(-0.00553936 0.00920735 5.57358e-18)
(-0.00616656 0.00864205 -6.20022e-18)
(-0.113628 -0.0787253 -4.04831e-17)
(-0.13006 -0.0782896 -6.579e-18)
(-0.129269 -0.0797187 -1.75845e-17)
(-0.0016702 -0.00108973 -9.17551e-19)
(-0.00175176 -0.00111014 6.24446e-20)
(-0.00174283 -0.00101556 -8.10958e-19)
(0.000105808 3.29798e-05 1.09318e-18)
(0.000107728 -3.65355e-06 1.0732e-18)
(0.021183 -0.00305971 -1.71081e-17)
(0.066352 -0.00780166 -3.08397e-19)
(0.0664641 -0.00780364 8.1171e-20)
(0.064774 -0.00814375 1.35981e-19)
(-0.00729479 -0.00887195 -2.42547e-17)
(-0.00679988 -0.00929006 -2.22887e-17)
(-0.0114586 0.0090976 -3.44705e-19)
(-0.0117405 0.00917345 -1.3108e-18)
(0.0301699 -0.0242538 2.19727e-17)
(0.030078 -0.021464 1.22108e-18)
(0.0118433 -0.0104524 -7.90632e-18)
(0.0127667 -0.00953507 2.39577e-18)
(0.052298 0.0228512 -1.49638e-17)
(0.0538491 0.0195858 -7.76946e-19)
(0.0496691 0.0198273 -1.47746e-17)
(-0.00058197 9.40511e-05 1.93109e-18)
(-0.000554477 7.27743e-05 -6.97973e-18)
(-0.00060023 7.85874e-05 -1.06576e-18)
(-0.000263864 0.000274282 6.30715e-19)
(-0.000207289 0.000263302 -1.47748e-18)
(-0.000234414 0.000307104 1.6201e-18)
(-0.000229609 0.000573317 6.85471e-19)
(-0.000231799 0.000592507 -2.2967e-19)
(-0.000210891 0.000572496 1.21579e-18)
(-0.00126456 -0.0380524 -2.16138e-17)
(-0.000937333 -0.0366545 1.67399e-17)
(0.00217451 0.00719786 1.25173e-17)
(0.00192361 0.0075153 5.14286e-18)
(0.00192631 0.00707724 3.28249e-18)
(-0.000249249 0.000835429 1.67371e-17)
(-0.000293723 0.000859555 3.09051e-20)
(-0.000225621 0.000909752 8.96235e-18)
(-1.22972e-05 4.58524e-05 -2.26707e-19)
(-1.28373e-05 4.01341e-05 1.32654e-20)
(-1.86422e-05 5.29217e-05 -8.2849e-19)
(0.0747522 -0.0120876 -1.45108e-18)
(0.074868 -0.0115159 -6.45469e-19)
(0.0778082 -0.0122885 9.83358e-19)
(0.00839447 0.00441663 1.35551e-18)
(0.00807058 0.00363886 1.30778e-17)
(-0.0108084 0.0101237 -6.16243e-18)
(-0.0111623 0.0102446 2.59649e-19)
(0.0623722 -0.00608415 1.77354e-18)
(0.0623407 -0.00714172 2.44507e-18)
(0.0801038 -0.0139406 6.19543e-20)
(0.0763723 -0.0123772 -2.05219e-19)
(0.0793325 -0.0125261 6.9392e-20)
(0.0811831 -0.0146127 1.46578e-20)
(0.0844699 -0.0157549 1.61521e-19)
(-0.0674167 -0.0184338 -3.30736e-17)
(-0.0642919 -0.0225874 -3.59062e-17)
(-0.00383734 -0.00198362 -6.81225e-19)
(-0.00382758 -0.00178523 2.72023e-18)
(-0.0717375 0.0112793 1.83711e-18)
(-0.0766164 0.00436901 1.38794e-18)
(-0.0917766 -0.000299767 -1.03219e-17)
(-0.000248933 0.000690593 -1.07911e-18)
(-0.00023329 0.000694672 -5.71432e-19)
(-0.000231788 0.000673688 -7.10193e-19)
(-3.72335e-05 -0.000324205 2.21718e-20)
(-5.61663e-05 -0.000316047 1.06714e-19)
(0.0132823 0.00261764 -6.52826e-18)
(0.0134119 0.00167505 -4.37523e-18)
(0.0125737 0.00203049 1.30143e-17)
(-0.000100603 3.22399e-05 -2.7067e-19)
(-9.13114e-05 4.10121e-05 1.83568e-19)
(-8.58157e-05 2.70133e-05 5.66941e-19)
(-0.050585 -0.0462147 1.08722e-17)
(-0.050886 -0.0479593 3.47426e-17)
(-0.0256171 0.0273707 -1.15902e-18)
(-0.0232692 0.0266361 -3.33355e-19)
(-0.0253386 0.025004 6.92511e-19)
(-0.0120715 0.0112722 -4.21775e-19)
(-0.0121914 0.0116443 1.34675e-18)
(-0.0125272 0.0112341 -2.74306e-18)
(-2.26279e-05 -0.000317474 -1.35064e-19)
(-2.32401e-05 -0.000331646 -1.02254e-18)
(-0.00248827 0.003293 -3.67822e-18)
(-0.00229085 0.0034708 -9.3343e-19)
(-0.00229843 0.0031805 -1.04763e-17)
(-0.0119637 0.0108571 -8.12846e-19)
(-0.0116269 0.0112208 -2.41314e-18)
(0.035098 0.0388401 -2.58155e-18)
(0.0353167 0.0346325 2.82873e-18)
(-0.0194478 0.00662883 -2.03982e-17)
(-0.00367243 -0.00213892 -3.38833e-18)
(-0.00344352 -0.00207636 1.15414e-18)
(-0.00346867 -0.00225997 -8.59829e-19)
(0.00252209 0.00819944 -1.02347e-18)
(0.00281712 0.00762565 -1.67993e-18)
(0.0334064 -0.00770634 3.74301e-17)
(0.0324943 -0.00766878 -2.0269e-17)
(0.0674133 -0.00744314 3.05599e-19)
(0.0661812 -0.00788083 4.99679e-19)
(-0.00428807 0.0237982 -1.0672e-18)
(-0.0050223 0.0250333 2.60846e-18)
(-0.00171336 0.00246031 7.32749e-18)
(-0.00163034 0.00249891 6.46538e-18)
(-0.00175238 0.00261717 7.30597e-18)
(-0.000633579 2.86117e-05 6.94122e-19)
(-0.000543542 1.49352e-05 2.58544e-18)
(-0.000604995 -5.4676e-05 2.82337e-18)
(-8.08908e-05 -0.000596593 -5.0242e-19)
(-9.60476e-05 -0.000610885 -3.75523e-19)
(-7.43824e-05 -0.000605879 -4.1858e-20)
(-0.095645 -0.0732776 -2.85011e-20)
(-0.0825463 -0.0661965 -3.40781e-17)
(0.00260953 0.00724799 -1.7239e-18)
(0.00241641 0.00678941 7.84519e-18)
(0.0597023 -0.00664112 -1.33869e-18)
(0.0591068 -0.00748646 -2.47654e-18)
(0.00176528 -0.000421269 -3.88595e-18)
(0.00190759 -0.000523913 2.82878e-18)
(-0.00158472 -0.00107367 -5.62346e-19)
(-0.00159752 -0.00114448 6.05271e-22)
(-0.0113116 0.0079417 -4.80285e-18)
(-0.0112 0.00762803 3.24074e-19)
(-0.0109727 0.00781462 -2.63922e-18)
(-0.00495787 0.0232104 -7.47967e-18)
(-0.00390521 0.0227644 -2.19973e-18)
(0.000145924 0.000465446 -2.05697e-18)
(0.000161738 0.000477346 6.20729e-19)
(0.000167354 0.000450242 3.17347e-19)
(0.000165325 -0.000522506 -2.72549e-18)
(0.000144269 -0.000554593 6.964e-19)
(0.000173842 -0.000487597 1.69469e-18)
(-0.00259616 0.00763126 1.98013e-17)
(-0.00290883 0.00742415 6.56006e-18)
(-0.00298358 0.00774549 -1.14263e-17)
(-0.0129838 -0.0397517 1.31837e-17)
(-0.0146681 -0.0375914 -2.70489e-17)
(-0.0124337 -0.0375189 3.09402e-17)
(-0.0901434 -0.0407227 3.32756e-18)
(-0.0885654 -0.0438285 -4.35663e-18)
(-0.0922473 -0.0429756 -9.7948e-18)
(-0.0833422 0.0234028 -4.2696e-18)
(-0.0876581 0.0170411 2.89905e-18)
(-0.0862556 0.0251585 -2.08098e-18)
(0.00157356 0.00531585 1.63321e-17)
(0.00147934 0.00571254 -4.15986e-18)
(-0.0148994 0.0185071 9.4719e-18)
(-0.0138712 0.015129 5.72041e-17)
(-0.0115541 0.0154633 2.31975e-17)
(-0.0902172 -0.039191 1.75219e-18)
(-0.0924513 -0.0388057 -2.1331e-18)
(-0.000613931 0.00103118 1.17282e-17)
(-0.000549623 0.000966309 -8.86157e-18)
(-0.000512692 0.00106043 9.00374e-18)
(-0.000977685 0.00779934 5.77387e-19)
(-0.000574298 0.00784445 -6.07731e-19)
(-0.000794117 0.00750217 -6.09735e-18)
(0.0790303 -0.0130906 8.30111e-19)
(0.0837685 -0.0140732 -1.33784e-18)
(0.0792116 -0.0126604 -8.48398e-19)
(0.0011564 -0.0012432 -1.72985e-18)
(0.00117048 -0.00138391 -4.65995e-18)
(0.00101889 -0.00135566 1.19254e-18)
(-0.010631 0.00675183 -6.8765e-19)
(-0.0104723 0.00660648 -5.03773e-18)
(-0.0108643 0.00656323 -4.89019e-18)
(-0.000646489 -0.000953934 -6.29423e-20)
(-0.000613449 -0.000964024 -1.17752e-19)
(-0.0125645 -0.0422629 3.42488e-18)
(-2.58257e-05 0.000239129 1.51834e-18)
(-3.41508e-05 0.00026942 -3.70324e-19)
(-3.33636e-05 0.000281072 4.37993e-19)
(0.00250621 -0.00796328 -6.8281e-19)
(0.00289641 -0.00802295 7.51776e-18)
(0.00255351 -0.00836313 -5.60306e-18)
(-0.00183424 -0.00156919 2.16556e-19)
(-0.00176416 -0.00166303 1.18646e-18)
(-0.00192744 -0.00167617 -2.98387e-19)
(-0.000447393 -4.99009e-06 -1.59313e-19)
(-0.000473267 -2.65334e-05 -9.37333e-18)
(0.00519333 0.040566 4.01462e-18)
(0.00341855 0.0419631 4.79881e-18)
(0.00566453 0.0426624 -1.15357e-18)
(0.000265955 8.01668e-05 -1.22519e-18)
(0.000252232 8.50715e-05 -3.98187e-19)
(0.000264775 0.000148105 -1.89592e-18)
(-0.00108262 0.0146051 -4.25146e-17)
(-0.000898864 0.0156322 -3.35681e-18)
(-2.62589e-05 -0.000303073 2.06697e-19)
(-9.19735e-06 -0.000307434 5.35167e-19)
(0.00560597 0.0288448 3.47547e-19)
(0.00729024 0.0290448 -1.51394e-18)
(0.00651171 0.0273486 3.86195e-18)
(0.0532265 -0.00364107 -5.71647e-19)
(0.0549351 -0.00606894 -6.97783e-18)
(-0.037758 -0.0422666 1.15565e-17)
(-0.0330093 -0.0416158 1.99909e-17)
(-0.0401896 -0.045654 8.71959e-17)
(-0.0019518 0.00231422 -9.47372e-18)
(-0.00192557 0.00213374 1.25974e-17)
(-0.00209732 0.00223472 7.31323e-18)
(-0.00137371 0.00775905 2.88587e-18)
(-0.00110987 0.00814023 2.09477e-18)
(-1.25428e-05 0.000164583 -1.24648e-18)
(-6.70444e-06 0.000126819 3.22634e-19)
(-7.52408e-06 0.000131915 -1.37456e-18)
(-0.00555198 0.00832948 1.36409e-17)
(-0.00534237 0.00842606 2.30976e-17)
(-0.000444663 0.000329559 1.53814e-18)
(-0.000434476 0.000386845 -1.68814e-18)
(-0.000444798 0.000311201 -5.69892e-19)
(0.00243519 -0.00717929 -1.0099e-17)
(0.00787783 -0.00590656 -3.59588e-17)
(0.00834543 -0.00613074 1.23625e-17)
(0.00787172 -0.00654117 4.21584e-18)
(-0.00185017 0.0024056 -1.16788e-17)
(-0.00169877 0.00233217 9.07284e-18)
(0.00112689 -0.00108883 -5.40723e-18)
(0.00126383 -0.00107531 -7.60615e-18)
(-1.90386e-05 0.00121258 -3.67008e-18)
(-3.10419e-05 0.0012406 -4.18888e-18)
(-0.0871325 0.0204786 -3.98776e-18)
(-0.0784949 0.0289249 -2.2957e-18)
(5.32109e-05 -0.000405051 -5.33645e-19)
(5.59966e-05 -0.000389082 8.9588e-19)
(0.010198 -0.00759999 1.24756e-17)
(0.00568103 -0.00594609 1.01903e-17)
(-0.0908638 0.0120876 1.6456e-18)
(-0.0942951 0.00695144 -5.60069e-18)
(-0.0941767 0.0128798 -3.87174e-18)
(-0.0158064 -0.0133027 -2.58382e-17)
(-0.0159417 -0.0141071 -4.64761e-18)
(-1.22563e-05 5.12927e-05 1.37509e-19)
(-7.15587e-06 3.80295e-05 1.02668e-19)
(-0.0268035 -0.00404086 1.48551e-17)
(-0.0255295 -0.00472579 -1.2281e-17)
(-0.0251997 -0.00480169 1.3697e-18)
(-0.0241971 0.0097553 8.44259e-19)
(-0.0173077 0.0103972 5.76778e-18)
(-0.0220416 0.0168904 -3.79425e-19)
(0.082867 -0.00656033 1.03549e-18)
(0.0817239 -0.00767016 -2.86839e-19)
(-0.0104666 0.00687934 2.71613e-18)
(0.00418999 0.0023492 1.66889e-18)
(0.0043058 0.00199977 8.29767e-18)
(0.00393233 0.00216875 4.11771e-18)
(-0.00593599 0.00976236 -1.24074e-17)
(-0.005501 0.00931311 7.19483e-19)
(-0.00547092 0.0100407 1.4734e-18)
(0.00468993 0.0385439 1.11576e-19)
(0.00685695 0.0390185 1.4016e-18)
(-0.00267859 0.00339351 -4.61372e-19)
(-0.00266326 0.0031219 1.87074e-18)
(-0.0179996 0.00492136 -1.20328e-18)
(-0.0171116 0.00514945 4.28998e-18)
(-0.00445347 -0.00286356 1.41467e-18)
(-0.00442625 -0.00260348 -4.74644e-19)
(-0.00416308 -0.00278496 7.63006e-18)
(0.061761 -0.00862588 1.76337e-19)
(0.0610862 -0.00863302 8.52564e-21)
(0.0608731 -0.00855983 1.29757e-19)
(0.0283992 0.0212855 -3.14303e-18)
(0.0259347 0.0233063 4.26858e-17)
(0.0258697 0.0195027 2.83295e-17)
(-0.000139676 -3.14879e-05 2.26918e-20)
(-0.000111185 -4.69323e-05 1.01721e-19)
(-0.000116569 -4.98897e-05 -5.23049e-20)
(0.00162251 0.00141163 -2.53246e-18)
(0.00148561 0.00137668 -4.8872e-18)
(0.00158975 0.00125119 4.13773e-18)
(-0.0117739 0.0080341 -1.13158e-17)
(0.0741073 -0.0121941 -2.26786e-18)
(0.0719404 -0.01143 -2.6933e-18)
(0.0588954 -0.00834458 -2.92855e-19)
(0.0587255 -0.00855429 2.02936e-18)
(0.0586011 -0.00842019 -1.69378e-19)
(-9.36118e-05 -0.000589215 3.81982e-20)
(-7.50792e-05 -0.000581333 7.57657e-19)
(-0.00300518 0.00997867 -2.17447e-17)
(-0.000383156 0.000494468 3.71716e-19)
(-0.000390957 0.000482785 2.12474e-19)
(-0.000375163 0.000561441 1.5966e-18)
(-0.0100878 0.0291636 7.51866e-19)
(-0.00898695 0.0305004 -1.01627e-18)
(-0.00861518 0.0287846 -7.47648e-19)
(0.0441822 0.0333461 -7.55538e-18)
(0.0468025 0.0309022 1.66079e-17)
(0.0419842 0.0305224 -4.78871e-18)
(0.00175193 0.00138882 2.91686e-19)
(0.00166219 0.001508 -1.02835e-19)
(0.00812249 0.00490211 -2.32911e-18)
(0.00875007 0.00513157 -7.53231e-18)
(0.029931 0.0202774 -6.69807e-17)
(0.0301137 0.0227896 -3.5265e-17)
(-0.000593089 -0.000452622 -5.92839e-19)
(-0.000594963 -0.000477688 3.14274e-19)
(-0.000592302 -0.000445113 -1.64659e-18)
(-0.00309643 0.00530999 -1.24597e-17)
(-0.00286455 0.00561821 -1.99607e-17)
(-0.0098788 0.010745 -3.57525e-18)
(-0.0102558 0.0105075 4.14973e-18)
(-0.0098375 0.0103419 -1.74519e-18)
(0.0203851 0.0721084 -6.01813e-19)
(0.0260264 0.0731455 2.86766e-18)
(0.0203636 0.0680649 -9.14516e-19)
(-0.000272588 0.00103495 2.74053e-18)
(-0.000264357 0.00104176 9.87677e-19)
(-0.000254633 0.00106161 -3.83798e-19)
(-0.000428094 2.04856e-05 2.82886e-18)
(-0.000436117 1.17468e-05 2.74176e-18)
(-0.0020303 0.00248317 -9.06295e-18)
(0.0985105 -0.013712 -4.43192e-20)
(0.0979056 -0.0155525 -7.7382e-19)
(0.101923 -0.0149928 -5.01304e-19)
(0.0142305 -0.00766009 1.10566e-18)
(0.0139843 -0.00798705 1.15439e-17)
(0.0145706 -0.00767655 1.3271e-17)
(0.00494352 0.00747051 5.0671e-19)
(0.00491819 0.00702519 -3.56991e-18)
(0.00537757 0.00723121 -6.13359e-18)
(0.000113372 -0.000282205 1.38693e-19)
(0.000105436 -0.000341095 -1.12713e-18)
(0.0324874 0.0400578 1.01663e-18)
(0.0353721 0.0425932 -3.99426e-18)
(0.0505583 0.0256851 -8.50371e-18)
(0.0486273 0.028553 1.52562e-17)
(0.0463067 0.0255426 -8.85059e-19)
(-0.00557787 0.020336 2.53001e-18)
(-0.00617291 0.0194496 2.28172e-18)
(-0.00527137 0.0194416 9.76439e-18)
(0.00774871 0.00542334 1.6449e-17)
(0.00753841 0.00469071 1.63353e-17)
(0.098893 -0.0116782 1.38423e-18)
(0.0937903 -0.0127527 1.99805e-18)
(-0.15262 -0.00714373 -9.58277e-19)
(-0.152033 -0.00594711 -2.24798e-18)
(-0.161511 -0.00737889 6.19897e-18)
(0.00210391 0.00083307 8.07642e-19)
(0.00214569 0.000667463 1.60591e-18)
(0.00226114 0.000845018 1.64648e-17)
(0.0014647 0.00454177 2.39255e-18)
(0.00159229 0.00476156 2.40536e-18)
(0.00125261 0.00470756 2.8142e-18)
(-0.0320967 -0.00619716 1.92849e-18)
(-0.0335533 -0.00586679 -2.59447e-17)
(-0.028291 -0.00456699 2.84437e-18)
(-0.000140651 -0.000715096 -3.39624e-20)
(-0.000148066 -0.000733327 4.50852e-19)
(-0.000162825 -0.000720412 5.70565e-19)
(-0.000227152 0.000552247 -4.08268e-19)
(-0.000223893 0.000532234 -6.43893e-20)
(-0.000206091 0.000532846 -5.34405e-19)
(-0.00500596 0.0210749 2.41233e-18)
(-0.00613864 0.0211752 -2.13946e-18)
(-0.00248779 -0.0112905 -3.45407e-18)
(-0.0022867 -0.0110292 -7.21597e-18)
(-0.00263106 -0.0109929 1.03668e-17)
(6.58346e-05 -0.000384261 -1.288e-18)
(7.51826e-05 -0.000361508 -1.1789e-18)
(7.64407e-05 -0.000346243 2.69238e-19)
(-3.79732e-05 0.000255616 4.51211e-19)
(-3.50004e-05 0.000263314 2.40474e-19)
(-2.46744e-05 0.000226343 -9.8677e-19)
(-0.000452272 0.000274098 2.27451e-18)
(-0.000448158 0.00035858 -9.15406e-19)
(-0.000266512 2.21132e-05 -1.86387e-19)
(-0.000272545 1.70216e-05 -1.96909e-19)
(-0.00027293 1.43709e-05 -4.63348e-20)
(0.00317455 0.00322123 -1.23181e-18)
(0.0034634 0.00331363 -9.06052e-19)
(0.00322636 0.00354678 1.07998e-17)
(-0.000248469 0.000563538 1.61172e-19)
(0.0786094 -0.0134307 9.64337e-19)
(0.0825179 -0.0147568 -1.94258e-18)
(0.00542761 0.00634632 2.04832e-18)
(0.00488785 0.00653209 5.42984e-18)
(-0.000537561 -0.000803036 4.31954e-20)
(-0.000552071 -0.000788272 8.74156e-20)
(-0.000568162 -0.000807476 2.70643e-19)
(0.0715645 -0.0121902 -1.94441e-18)
(0.00408997 0.0303895 2.11215e-19)
(-0.00219577 0.0269967 -1.33712e-18)
(-0.000490607 2.68736e-05 -5.33498e-18)
(-0.000508931 -2.13138e-05 -1.01902e-18)
(-0.000468493 3.05678e-05 -6.64885e-18)
(0.00481487 0.0304984 -1.72858e-18)
(-0.1096 -0.0184098 2.70111e-18)
(-0.116991 -0.0142593 6.79352e-17)
(-0.113495 -0.0176662 2.74268e-17)
(-0.00120367 3.08077e-05 -1.16801e-18)
(-0.00121599 -1.59292e-05 3.55525e-18)
(-0.000415187 4.44402e-05 8.92296e-18)
(-0.000474435 0.000127567 -8.06833e-19)
(0.00592847 0.00633696 -5.64714e-18)
(0.00576374 0.00692448 -3.42079e-18)
(0.0453069 -0.00185358 1.71817e-18)
(0.0419483 -0.00108112 -2.7915e-18)
(0.0455837 0.00103567 2.01444e-18)
(-0.0132476 -0.00942866 5.61072e-18)
(-0.00416693 -0.00865466 4.82301e-17)
(-0.010568 -0.00766737 -5.91026e-17)