/*--------------------------------*- C++ -*----------------------------------*\
| =========                 |                                                 |
| \\      /  F ield         | OpenFOAM: The Open Source CFD Toolbox           |
|  \\    /   O peration     | Version:  v2012                                 |
|   \\  /    A nd           | Website:  www.openfoam.com                      |
|    \\/     M anipulation  |                                                 |
\*---------------------------------------------------------------------------*/
FoamFile
{
    version     2.0;
    format      ascii;
    class       volScalarField;
    location    "50";
    object      k_0;
}
// * * * * * * * * * * * * * * * * * * * * * * * * * * * * * * * * * * * * * //

dimensions      [0 2 -2 0 0 0 0];


internalField   nonuniform List<scalar> 
13851
(
0.000214745
0.000155092
0.000154898
0.0187702
0.000148445
0.000157916
0.000155204
0.000147473
0.0360692
0.00014844
0.000178858
0.000148552
0.000148831
0.0217619
0.000169325
0.000208891
0.0191471
0.000148422
0.000307244
0.000214926
0.000173673
0.000156263
0.0441747
0.000149734
0.061469
0.000183113
0.00025917
0.000394567
0.0316798
0.000146537
0.0487002
0.000155163
0.000213322
0.0269293
0.000171299
0.0313489
0.00014981
0.0724004
0.0940682
0.000148649
0.0429498
0.0330195
0.00632811
0.000231774
0.0345832
0.000147547
0.000145452
0.000207907
0.000152631
0.0001488
0.0393515
0.000149122
0.000208897
0.00016254
0.0185721
0.000148651
0.000214439
0.0481572
0.00029395
0.0324095
0.000148598
0.000251265
0.000148685
0.000152931
0.000183062
0.000183868
0.026735
0.000166271
0.000148903
0.0277669
0.0475791
0.000178998
0.000148298
0.0280569
0.000164302
0.00015269
0.0259304
0.000145764
0.045841
0.000147713
0.00014897
0.000353494
0.000170753
0.0239607
0.0320144
0.048846
0.000156594
0.0136073
0.00014837
0.0478334
0.000149242
0.000155314
0.0161763
0.0441616
0.0872941
0.000204608
0.000147682
0.000210413
0.0400694
0.000201049
0.000212251
0.000161907
0.000163061
0.000148548
0.000147508
0.000177695
0.000147509
0.0496059
0.000155268
0.000148242
0.000159889
0.000147549
0.000223789
0.000182592
0.000210814
0.000161898
0.000146416
0.000146966
0.0161455
0.031173
0.000193054
0.000147424
0.000148821
0.0451509
0.000261221
0.000172619
0.000147678
0.000172343
0.0430033
0.000176952
0.000156182
0.000163857
0.0485696
0.0307051
0.000179785
0.0867731
0.00016597
0.0480599
0.000160101
0.000176334
0.000306745
0.000150326
0.000148373
0.000171255
0.0369323
0.000152178
0.0001457
0.0442874
0.0283175
0.000173028
0.000211847
0.000220569
0.000184161
0.000263655
0.000149388
0.000148579
0.000148665
0.088987
0.000174074
0.00015398
0.000149583
0.0315442
0.000177366
0.000207993
0.0221569
0.0365057
0.036641
0.0452578
0.000159752
0.019852
0.000148694
0.000146422
0.000183039
0.000148827
0.0915864
0.000275601
0.000216838
0.000146333
0.000164138
0.000215347
0.000258468
0.000230981
0.000159295
0.0001765
0.00863304
0.028652
0.000213304
0.000157445
0.000149159
0.000147011
0.0198212
0.000174012
0.0171382
0.000158121
0.000151898
0.000209664
0.000211467
0.000149869
0.000149559
0.000167053
0.000308383
0.0818109
0.0526323
0.000169258
0.000315185
0.0788791
0.000152206
0.000175213
0.0372039
0.000156871
0.000208163
0.000148762
0.000339381
0.000149538
0.000172169
0.000153913
0.000148712
0.000249811
0.000149853
0.000474607
0.000146304
0.000215187
0.0208363
0.0888097
0.000157039
0.000175345
0.000149742
0.000169839
0.00014814
0.000171763
0.0310309
0.000156957
0.00015685
0.000148769
0.0528204
0.000146512
0.0254186
0.0569091
0.0001965
0.000149645
0.000625178
0.0310456
0.034484
0.00020817
0.000166447
0.000175052
0.00023988
0.000164261
0.00020383
0.000161395
0.014085
0.000217089
0.000147195
0.000158025
0.000211047
0.0307606
0.0156215
0.000146966
0.000172942
0.000148337
0.000233648
0.000261018
0.000158528
0.000177723
0.000217544
0.000148024
0.000162288
0.000201993
0.000388091
0.000148634
0.000148705
0.000157103
0.0381858
0.010565
0.000176848
0.000147609
0.000258242
0.000262138
0.000206535
0.000177433
0.0391086
0.0371721
0.000159179
0.000166355
0.0670774
0.000147473
0.00014865
0.000208126
0.000174918
0.000146556
0.000149518
0.000148075
0.000147916
0.000166207
0.000148616
0.0369479
0.000175041
0.000148158
0.0304911
0.0429582
0.000149149
0.000215763
0.0395332
0.000150564
0.000149246
0.000176497
0.023998
0.0862747
0.000186395
0.000148361
0.0156763
0.000148648
0.000188768
0.0464796
0.00038332
0.000153695
0.057788
0.0101395
0.0571303
0.000218805
0.000162284
0.0933944
0.0481744
0.000391372
0.000149827
0.0262573
0.00620659
0.000217051
0.000209312
0.000152227
0.000185655
0.000157777
0.0142953
0.000163739
0.000147022
0.000144832
0.000158751
0.0532766
0.000377844
0.0001474
0.0850359
0.000157816
0.000164103
0.000154179
0.0215447
0.000258018
0.000209939
0.000153481
0.000156081
0.0305713
0.000149182
0.000265455
0.000159033
0.000176422
0.000158425
0.000148339
0.000148135
0.000208793
0.000206265
0.000217368
0.0273541
0.0311233
0.000152323
0.0570757
0.000248831
0.000146513
0.00038699
0.000198113
0.045661
0.00015816
0.000184192
0.000248848
0.0640976
0.00020515
0.0159015
0.000150986
0.000281425
0.00657964
0.000163626
0.0177609
0.00016622
0.0588223
0.000165984
0.000168413
0.000216196
0.000230465
0.000148582
0.000158499
0.000176067
0.000164487
0.000147686
0.000177048
0.00150909
0.000148284
0.000175413
0.0112468
0.00015452
0.00429644
0.000172412
0.0894592
0.000157618
0.000181514
0.000331014
0.000263208
0.000177173
0.0131418
0.0269603
0.000551615
0.00014805
0.000208646
0.000166359
0.000183718
0.000147437
0.00800364
0.00327717
0.063106
0.000156023
0.000217619
0.000256268
0.0115947
0.000145488
0.0181862
0.000252097
0.0361444
0.000162028
0.00112352
0.000148429
0.000148754
0.0163977
0.000260535
0.000148437
0.000155147
0.000176133
0.000146681
0.00110962
0.000186042
0.000197373
0.000157505
0.000151026
0.000149209
0.0536375
0.000148121
0.000149145
0.0168127
0.000931784
0.000155576
0.000240779
0.000148713
0.000148598
0.000155111
0.000217497
0.000171685
0.000147756
0.000151978
0.000192639
0.000153402
0.0843488
0.000148507
0.000159455
0.0347524
0.000160698
0.000145063
0.000148811
0.000157444
0.000150433
0.000501346
0.0246009
0.000166737
0.000599566
0.000155248
0.000148443
0.0437013
0.00024922
0.000160042
0.000148386
0.0471291
0.000159508
0.00110438
0.000148552
0.00016428
0.000207479
0.000166405
0.0478866
0.000258097
0.0576307
0.000152488
0.000221366
0.000148018
0.0307785
0.000172495
0.000211393
0.000166145
0.000153125
0.00016074
0.000183479
0.000148515
0.0119141
0.0449712
0.0850898
0.00692359
0.0228135
0.0467361
0.000264599
0.000156477
0.000149357
0.00859906
0.00014845
0.000147663
0.000157687
0.0926147
0.000154741
0.000150307
0.000174262
0.000176225
0.000148488
0.0986771
0.000147681
0.0392699
0.000443307
0.000147701
0.000153662
0.000267723
0.000389783
0.000146582
0.0874011
0.0291269
0.000147002
0.0741467
0.000297582
0.000215142
0.000152437
0.0144104
0.039996
0.000147227
0.0003018
0.000148851
0.000147691
0.0167754
0.0598805
0.000171178
0.00017103
0.000148462
0.000179356
0.0392649
0.0902569
0.000148051
0.0299386
0.000147729
0.000148915
0.000177477
0.000159337
0.000145475
0.000152681
0.0776011
0.000225289
0.072805
0.00015416
0.000148308
0.0372917
0.00014918
0.000210832
0.000159608
0.000164522
0.00016634
0.0331783
0.0426917
0.000157928
0.0165689
0.000153238
0.000184967
0.033526
0.0233331
0.000148787
0.000148048
0.000163241
0.0753998
0.000234792
0.000178681
0.0109704
0.000159465
0.000165037
0.0370676
0.102397
0.000183711
0.0419013
0.00022737
0.03218
0.000150343
0.000298133
0.000316754
0.000148577
0.0167717
0.0906122
0.000159754
0.000176468
0.000148549
0.000508134
0.000176471
0.0574544
0.000148151
0.000149021
0.000155249
0.00017564
0.000148564
0.0891978
0.000148981
0.000226158
0.000152474
0.00018469
0.000148525
0.0001485
0.000167682
0.0300447
0.00017695
0.0839237
0.000164276
0.000146765
0.00014719
0.000183227
0.00015192
0.000197283
0.000155585
0.000159761
0.000298667
0.000149188
0.0128142
0.000149669
0.000193662
0.018983
0.0356653
0.000156839
0.0547844
0.000173646
0.000213489
0.0906498
0.000148525
0.103464
0.000157878
0.000164642
0.00876386
0.00382461
0.000146647
0.000196088
0.00014976
0.0311446
0.0398265
0.000149302
0.000166931
0.0026947
0.000149739
0.000149662
0.000183229
0.0104471
0.00420611
0.000149259
0.0002163
0.000152961
0.000148514
0.000305476
0.00021735
0.000200701
0.000145259
0.000202068
0.00016371
0.00017914
0.000150448
0.000151597
0.000174994
0.000155063
0.000204999
0.000178822
0.000178868
0.000179592
0.000391703
0.000308625
0.0092928
0.0825914
0.000209899
0.0295187
0.000163412
0.0189767
0.00021644
0.000148057
0.000164433
0.00026927
0.000157665
0.00014773
0.000147695
0.000194038
0.0143405
0.000159711
0.0603518
0.000146799
0.00645883
0.000179089
0.0379546
0.000195508
0.000157826
0.000154924
0.0430182
0.000201035
0.000163063
0.000261026
0.000150656
0.00911324
0.000194186
0.000227257
0.000165456
0.000500713
0.000148406
0.000149611
0.000151774
0.000148518
0.0336733
0.000147905
0.000293199
0.0383011
0.000196032
0.0926537
0.04321
0.000229936
0.000223134
0.000156671
0.00014915
0.000148629
0.000145792
0.000147149
0.000148845
0.00018564
0.000222359
0.000164503
0.00039048
0.000151553
0.0363806
0.000149954
0.022058
0.000169164
0.00014988
0.000148863
0.0358808
0.000158165
7.91968e-05
0.0859458
0.000175125
0.000187753
0.000146884
0.0313574
0.000153359
0.000154851
0.000300128
0.000149177
0.000150294
0.000148159
0.000172861
0.0152757
0.000161715
0.000165902
0.00026613
0.0851104
0.000156971
0.000156206
0.0330821
0.000145749
0.0325532
0.000149289
0.000153469
0.0383068
0.000191322
0.00021064
0.000187997
0.000177219
0.000149481
0.000149954
0.000186799
0.000150527
0.000149532
0.000160146
0.000245329
0.000147808
0.000207633
0.00225171
0.000113518
0.000187671
0.0447619
0.000160365
0.000149121
0.000202846
0.000146906
0.000158602
0.00599741
0.031049
0.103485
0.0335641
0.000149489
0.000149163
0.000169234
0.000151269
0.000147292
0.0390409
0.000234318
0.0195357
0.000193948
0.000192374
0.00014854
0.000146587
0.0180858
0.000197596
0.000154071
0.000149659
0.000210015
0.000228667
0.0608193
0.000149345
0.000148946
0.0128352
0.000150394
0.000166312
0.000146703
0.0927775
0.000148267
0.0222742
0.000148591
0.000192725
0.000171571
0.000168855
0.00016578
0.000148296
0.000155126
0.000148053
0.000289847
0.000150349
0.0188486
0.000150939
0.000429405
0.041977
0.000163901
0.000147916
0.0128755
0.0232707
0.000158575
0.000191109
0.000148632
0.0127072
0.000148192
0.000271959
0.000148509
0.000148032
0.000120117
0.00016657
0.000148753
0.000163023
0.0466926
0.000431536
0.00395793
0.00014696
0.031213
0.000148594
0.000147852
0.000149381
0.000144507
0.000149534
0.0172864
0.00399072
0.000149908
0.000148954
0.00017166
0.000147557
0.0165273
0.000205003
0.0261059
0.0952173
0.000155055
0.000204944
0.000148535
0.000173644
0.000176056
0.000148403
0.00014935
0.00183643
0.0419713
0.000186929
0.00971935
0.00018391
0.00014871
0.000172387
0.000191337
0.0272534
0.000165057
0.000335959
0.000198493
0.000149459
0.0552109
0.0503802
0.0190804
0.0169532
0.0167543
0.000152423
0.000174765
0.000149172
0.000336793
0.000157099
0.000147044
0.008982
0.000151302
0.000147916
0.000148789
0.000150977
0.0900471
0.000265669
0.000147158
0.000172952
0.0235072
0.000151856
0.00865272
0.000151456
0.000190838
0.0687667
0.000148645
0.000241783
0.000160268
0.000165167
0.000491094
0.000151291
0.000343268
0.000180692
0.0409355
0.0001502
0.0173208
0.000163217
0.0380252
0.0317946
0.0137832
0.000174922
0.000148394
0.00014956
0.000149739
0.000167362
0.000148836
0.0473548
0.000158605
0.00015644
0.000156811
0.000152317
0.000146915
0.000158321
0.00015842
0.00015365
0.000157368
0.0851
0.000287922
0.000162484
0.000169745
0.00881782
0.000150394
0.0574458
0.000145789
0.000161007
0.000150392
0.000148013
0.000166759
0.000148413
0.000147114
0.000162404
0.000148625
0.000234873
0.000151476
0.0150053
0.000367487
0.000243609
0.000273351
0.000149274
0.0879501
0.000223049
0.000149477
0.000158165
0.000150095
0.0614095
0.000151433
0.000162491
0.000392389
0.0089921
0.000178841
0.000149187
0.0338917
0.000370421
0.0190608
0.00016018
0.000146695
0.000147982
0.000186497
0.000148398
0.035147
0.000210773
0.000149296
0.000248727
0.000243957
0.000148032
0.080566
0.0202729
0.000232596
0.000151197
0.0336526
0.000185486
0.000148119
0.0154761
0.000156052
0.000147721
0.000147718
0.000163362
0.000167871
0.0381903
0.0502864
0.000170326
0.0371102
0.000165276
0.000148291
0.000168489
0.000147732
0.0118529
0.000148245
0.000148214
0.000152979
0.000150436
0.0401784
0.0137443
0.000238984
0.0423258
0.10483
0.000157019
0.000148324
0.000151463
0.000347389
0.000148159
0.000147855
0.000169878
0.0525078
0.000271733
0.000145641
0.000165583
0.000166065
0.000215877
0.00716819
0.000147035
0.000145384
0.000153538
0.05493
0.000160026
0.03978
0.000151548
0.000149024
0.000147808
0.000147699
0.000153896
0.000230565
0.0324402
0.0360359
0.000156853
0.000148452
0.00546703
0.00015046
0.00173193
0.0465275
0.000158148
0.0348831
0.0330878
0.0409803
0.000177012
0.00016473
0.0347386
0.000163482
0.000160213
0.000169591
0.000215891
0.000150315
0.000503996
0.000148313
0.00591245
0.0626806
0.000145819
0.000152622
0.000167071
0.000313765
0.000166351
0.000148874
0.000159919
0.000151442
0.000157118
0.000244893
0.00014907
0.0256274
0.0151997
0.00014833
0.000163729
0.000167732
0.00014861
0.0304471
0.00707031
0.0906668
0.0224922
0.000148321
0.000154273
0.000157478
0.00014938
0.000238546
0.000166615
0.000149687
0.00018232
0.000154771
0.000355828
0.000171722
0.0196895
0.000151308
0.000151834
0.000163778
0.000197714
0.000188776
0.000148033
0.00609172
0.0452266
0.0340492
0.0524682
0.00889831
0.0369021
0.0357621
0.000148052
0.000148307
0.000148972
0.000234693
0.000171541
0.000188369
0.0124068
0.000149975
0.00014548
0.000148456
0.000225931
0.000145647
0.000158498
0.000152483
0.00689603
0.000150954
0.000146951
0.000148662
0.000148072
0.000149004
0.000159866
0.000237002
0.000160303
0.00051026
0.000148344
0.000147714
0.0425658
0.0385547
0.0133724
0.000523114
0.000163637
0.00712202
0.000146653
0.000169409
0.000151826
0.000148619
0.000154779
0.028298
0.000152418
0.000198378
0.0291055
0.000150102
0.000147947
0.00015505
0.000231382
0.000149798
0.00718514
0.000148888
0.00023267
0.000148828
0.000149834
0.000158746
0.000171034
0.000148853
0.0002642
0.0477061
0.000224236
0.029035
0.000148435
0.0325145
0.00030038
0.000148443
0.0642149
0.000149354
0.000161737
0.000149178
0.000149865
0.000147674
0.000148503
0.000149927
0.000155678
0.00018628
0.000149412
0.00014867
0.000165439
0.000146576
0.100651
0.000148818
0.000164881
0.00016473
0.0383139
0.000369185
0.000148986
0.000232652
0.000146654
0.000161542
0.000173467
0.000585211
0.000176155
0.000149801
0.000200334
0.000167951
0.000192732
0.000359091
0.000160829
0.000214409
0.000179033
0.000186216
0.000150856
0.000147479
0.000113119
0.0106722
0.000154634
0.000148094
0.0083755
0.000146843
0.000173436
0.000147752
0.000177951
0.0637639
0.000145096
0.0140553
0.000157759
0.000149075
0.000215355
0.000147033
0.000161468
0.0237226
0.000171797
0.000118214
0.000147642
0.000149748
0.000161787
0.000149481
0.000149609
0.000159677
0.000162283
0.000186666
0.000179675
0.000148654
0.000165596
0.000147328
0.000148489
0.00014941
0.000148458
0.00274382
0.000148276
0.000151563
0.000241181
0.000146796
0.00014801
0.0379479
0.000149634
0.01833
0.000152762
0.0338463
0.000254569
0.000164294
0.0124022
0.000180081
0.00030114
0.000150297
0.000230564
0.000158031
0.000147374
0.000147562
0.000151506
0.000163818
0.000148008
0.000171552
0.000147315
0.000151835
0.00708253
0.039063
0.000567856
0.000154668
0.000163071
0.0499451
0.0280748
0.000149142
0.000158139
0.000370141
0.000149604
0.000169541
0.0223393
0.0357942
0.000158863
0.000172508
0.000150716
0.000252067
0.000149892
0.000161108
0.000472704
0.000148951
0.000147593
0.0998544
0.000172319
0.000242901
0.0251923
0.000194586
0.000149763
0.000147336
0.000149978
0.0412506
0.000329468
0.000433399
0.000176007
0.000148522
0.0597947
0.000148756
0.00021823
0.00015534
0.000153041
0.000173918
0.000148478
0.0862748
0.105952
0.000146978
0.000186985
0.000172403
0.0217747
0.000173568
0.000178103
0.000240768
0.000164932
0.000285113
0.000180208
0.000148772
0.000166294
0.000168146
0.0167701
0.000148297
0.000333042
0.000174574
0.000179005
0.000149804
0.100628
0.000157769
0.000152155
0.000147346
0.000166875
0.000166504
0.000166297
0.000148803
0.000150465
0.000172577
0.0145497
0.000177234
0.000149037
0.000150349
0.000166002
0.000250383
0.000149135
0.0001821
0.0575339
0.000167776
0.0347528
0.000167265
0.0394232
0.000337924
0.000148056
0.0239043
0.000149551
0.000154684
0.000164299
0.000166851
0.000198327
0.000173318
0.000165809
0.00016735
0.000163415
0.000153162
0.000145587
0.000169531
0.000156821
0.000157245
0.000375801
0.000156525
0.000159146
0.000147677
0.0168013
0.000180629
0.00014865
0.000155568
0.000151575
0.0248709
0.000212352
0.000164285
0.034352
0.000332689
0.000984858
0.000197496
0.000244733
0.000147293
0.00018512
0.000147764
0.000155458
0.0678313
0.0303121
0.00034164
0.00296202
0.000148816
0.0213005
0.000147274
0.000190255
0.000154501
0.00854282
0.0176827
0.000157164
0.00014804
0.000312514
0.000161721
0.000148219
0.0487858
0.000148529
0.000152287
0.000156856
0.000149173
0.000162753
0.000151699
0.00014851
0.000163293
0.000404356
0.000171529
0.000177391
0.000148191
0.0447307
0.0309274
0.000147934
0.000248226
0.000154417
0.000157124
0.000393474
0.000147914
0.000150427
0.000156576
0.0640796
0.000148288
0.00014916
0.000171468
0.0190929
0.000147812
0.000159565
0.000161638
0.000376866
0.00017331
0.000171016
0.000246373
0.000148551
0.000172418
0.000145879
0.0319383
0.000161719
0.000148464
0.000158388
0.000192657
0.000148935
0.000149508
0.000217368
0.0324104
0.000150414
0.0289249
0.000149213
0.000145823
0.000185386
0.000148285
0.000148289
0.0796569
0.000149813
0.000171996
0.000214071
0.0651122
0.000364854
0.000148074
0.000152639
0.000156403
0.000148472
0.000148397
0.000148712
0.00155262
0.000149281
0.000283144
0.00020483
0.00014751
0.000146686
0.000162435
0.000204856
0.000245491
0.00016653
0.000178816
0.000152733
0.0365439
0.000176744
0.000161379
0.000170806
0.00017213
0.000194955
0.0240055
0.000166769
0.0198801
0.000425348
0.0222856
0.00015547
0.000148075
0.000168518
0.000159166
0.000147497
0.000150456
0.000178858
0.000149596
0.00014951
0.000148423
0.000145306
0.000153403
0.000148901
0.0240492
0.000148023
0.080292
0.000148524
0.000174029
0.000150458
0.000206737
0.000173833
0.000148415
0.00614497
0.000152554
0.000149481
0.000170599
0.000147217
0.000158757
0.000148447
0.0328184
0.00015348
0.00017303
0.000170736
0.00547911
0.000157925
0.000284762
0.000364543
0.000169728
0.00014919
0.000151941
0.000176276
0.000184482
0.0362274
0.000146629
0.0314503
0.000148676
0.00016929
0.0883479
0.000165735
0.0104021
0.000155094
0.000165043
0.000154045
0.10643
0.000162636
0.000148857
0.000168767
0.000215711
0.000152281
0.000148382
0.000148883
0.093073
0.000149665
0.00015723
0.0366097
0.000155378
0.000148041
0.000171805
0.000154668
0.000219023
0.000145485
0.000148267
0.000147045
0.000154761
0.000150159
0.000149199
0.000183903
0.0428058
0.000147929
0.000148699
0.000437465
0.00015012
0.0143257
0.000153887
0.0979094
0.000147421
0.000153282
0.000146647
0.0206226
0.028795
0.000159106
0.000169113
0.00015552
0.000147942
0.000148782
0.0329241
0.00014882
0.000189694
0.000146849
0.000168913
0.000149245
0.000557056
0.000146868
0.000172868
0.000147682
0.000232136
0.000490807
0.000147006
0.000166215
0.104113
0.00018581
0.00252003
0.00690846
0.000213085
0.000151764
0.000166503
0.000197828
0.000396472
0.000149999
0.000166695
0.000156527
0.000148158
0.0184274
0.0358347
0.000187017
0.000222519
0.000321762
0.000162789
0.036387
0.000147412
0.00014692
0.000194017
0.104699
0.000249022
0.000215583
0.000357753
0.000146673
0.103114
0.0245991
0.0859891
0.000149299
0.0451532
0.0461223
0.000542309
0.000413716
0.0364636
0.000191428
0.000162417
0.000223773
0.000154371
0.000148097
0.0132874
0.000197225
0.00014548
0.03836
0.000149235
0.000158348
0.000173051
0.000155491
0.000588732
0.000160198
0.0111085
0.000171773
0.000154876
0.000431297
0.0801078
0.000216451
0.000149777
0.000154486
0.000187741
0.000168562
0.000146777
0.000175188
0.000167339
0.000210673
0.000148032
0.000235367
0.000153466
0.000168778
0.0164714
0.000289659
0.000151258
0.000187399
0.0429014
0.000148947
0.000150729
0.0814965
0.000280149
0.000154204
0.000155292
0.000148661
0.000175006
0.000156576
0.0328247
0.000197567
0.000150011
0.000149443
0.000166099
0.000159293
0.000310456
0.0445242
0.000147428
0.000148306
0.00015862
0.000149258
0.000154361
0.000151003
0.000151161
0.00015461
0.000147729
0.000154048
0.000149134
0.00017391
0.000393843
0.000149742
0.00119684
0.0198031
0.000145882
0.000183939
0.00019003
0.000180457
0.000150505
0.000196887
0.000159038
0.000168561
0.000162201
0.000152013
0.000149343
0.0344914
0.00015923
0.000215086
0.000150469
0.000148429
0.000148208
0.000173535
0.000147881
0.000177839
0.000181292
0.000345192
0.000147468
0.0002891
0.053253
0.0471674
0.000146607
0.00020417
0.000224461
0.0557672
0.0139978
0.000150212
0.000149373
0.000200043
0.000349235
0.000188696
0.000171926
0.000247867
0.000149499
0.00014763
0.000164615
0.000149281
0.000149019
0.000212608
0.000149753
0.000169482
0.000147365
0.0618949
0.00138041
0.000365014
0.0140351
0.0455608
0.000148893
0.00014898
0.0718908
0.000146807
0.000147121
0.000145845
0.00018557
0.0250567
0.0378056
0.000156164
0.000149624
0.000151666
0.00016299
0.0234229
0.000148156
0.00604625
0.0619618
0.000149241
0.000149145
0.0251635
0.000188215
0.000152924
0.000148393
0.00454566
0.0578484
0.000148676
0.000235591
0.00014967
0.0460599
0.000601527
0.000153547
0.0249971
0.0147477
0.000439475
0.000147215
0.000149938
0.000149612
0.000149897
0.0360714
0.000147664
0.000202489
0.000244723
0.0344475
0.000150986
0.000174857
0.000318127
0.000175807
0.0630257
0.0670635
0.000145284
0.000157075
0.000157289
0.000206339
0.0337624
0.000145171
0.0157605
0.00016058
0.000172144
0.000150527
0.000147552
0.000263142
0.000169493
0.0181717
0.000149278
0.000175081
0.000150666
0.000207874
0.000154747
0.0431076
0.000420081
0.000211675
0.000192521
0.000147977
0.000152818
0.000194511
0.000183136
0.0375309
0.0923505
0.000148924
0.00487627
0.000170123
0.101695
0.000157972
0.000171663
0.000170602
0.000148927
0.000729735
0.000148544
0.000165224
0.0209051
0.0534189
0.00424929
0.0313162
0.000157919
0.000177333
0.000146688
0.0662365
0.000157028
0.0319551
0.000146637
0.000216156
0.000145137
0.000148059
0.000164727
0.00015845
0.000159788
0.000148126
0.026131
0.000171436
0.000147679
0.000166476
0.0211219
0.000232647
0.000148414
0.0718077
0.000153864
0.000165273
0.000163239
0.000145687
0.000180797
0.000148007
0.068223
0.000173457
0.000158067
0.000148321
0.000292986
0.000171212
0.00014664
0.000404729
0.00037835
0.000256091
0.000146817
0.000368339
0.00014895
0.000196725
0.000159254
0.000182948
0.00838518
0.0259828
0.000159442
0.0305454
0.000170109
0.000157663
0.000146908
0.000359253
0.000180744
0.000197972
0.000165343
0.000149589
0.0152912
0.000187091
0.000332064
0.000239137
0.0963832
0.026013
0.0402216
0.0466557
0.000157965
0.000158605
0.00014871
0.00014886
0.000145282
0.000226579
0.000158617
0.00015979
0.0863236
0.000147688
0.00014696
0.000169648
0.000216131
0.000160032
0.000147052
0.0839971
0.000154343
0.000173041
0.000149128
0.0245806
0.000157082
0.0127819
0.000166618
0.000166547
0.000172017
0.000148672
0.00946602
0.000308557
0.000183378
0.000148447
0.000147273
0.0160226
0.0507549
0.0305337
0.000147836
0.000183652
0.000326251
0.000148982
0.000148025
0.000148713
0.030435
0.000171319
0.00016331
0.00015852
0.000157487
0.0060111
0.000180987
0.000257979
0.000157559
0.000165163
0.000145304
0.000185214
0.00017406
0.000148244
0.0324829
0.0705814
0.0505797
0.0317533
0.042658
0.0954901
0.0720021
0.000151323
0.000148114
0.00490878
0.0561379
0.0301967
0.000148569
0.000171592
0.000148537
0.000147906
0.0081631
0.0534
0.00018471
0.000148067
0.000269778
0.000197813
0.000176644
0.031376
0.0259721
0.000252087
0.00014731
0.0440074
0.000909891
0.000275563
0.0001634
0.000173306
0.000149153
0.000147193
0.000169841
0.000174152
0.000153865
0.000170193
0.000159981
0.000154335
0.000231475
0.0253562
0.000159152
0.000171189
0.0478707
0.000229866
0.000148742
0.000193162
0.000238625
0.0177703
0.000170713
0.000149119
0.000162
0.000157643
0.000158452
0.000145683
0.000158863
0.000163189
0.000174019
0.000210946
0.000149496
0.000151531
0.0262255
0.0337008
0.0865879
0.000318936
0.000199411
0.000144946
0.000148491
0.000162816
0.00014655
0.106474
0.000148434
0.000149811
0.000146115
0.0324338
0.0314717
0.000149765
0.000183624
0.000158898
0.000161585
0.000162271
0.000159683
0.000171336
0.000167654
0.0198748
0.000157822
0.0553055
0.000168022
0.0923676
0.000161157
0.000147448
0.00014684
0.000198088
0.00021758
0.000146722
0.000162976
0.000161544
0.000177733
0.0136447
0.022932
0.00018142
0.00014981
0.000185541
0.000158632
0.000164805
0.000148322
0.000182503
0.000152507
0.0194462
0.000309494
0.000166272
0.000148618
0.0334288
0.000155711
0.0261032
0.0531744
0.000231279
0.000153487
0.000210117
0.000524435
0.000292793
0.0391037
0.000179499
0.000148107
0.000168043
0.000147942
0.0945425
0.00015387
0.000163398
0.0002692
0.0954369
0.000147892
0.000147985
0.0534389
0.000170891
0.0871796
0.000158703
0.000148399
0.000172511
0.000243356
0.000162372
0.000484076
0.000164709
0.000351492
0.000155681
0.000149611
0.000147906
0.000241664
0.000150414
0.00018408
0.00014855
0.000148379
0.000227098
0.000157565
0.000148903
0.000148302
0.000164981
0.000365987
0.000171384
0.000170253
0.000155148
0.000180873
0.000148406
0.000195889
0.000163024
0.000173772
0.000166967
0.000159052
0.00017503
0.000163051
0.000147795
0.000186018
0.0459618
0.0231487
0.000149289
0.00248111
0.0249989
0.000147952
0.000150467
0.000236008
0.03597
0.000156104
0.0240676
0.000344816
0.000149362
0.000192362
0.00014523
0.000157617
0.000181937
0.0744027
0.000208196
0.000238621
0.000300166
0.0319076
0.0482367
0.000153123
0.033933
0.000148405
0.00241182
0.0513216
0.000148733
0.000148448
0.0222897
0.000148911
0.000148653
0.000275534
0.0322475
0.00024776
0.000157506
0.0485671
0.000148595
0.0331611
0.0286062
0.00014921
0.000288773
0.0516476
0.0632814
0.0239879
0.0287102
0.0214727
0.00014723
0.00015144
0.000182817
0.000185138
0.000148625
0.000229716
0.0001484
0.0288366
0.000265505
0.000164168
0.000248677
0.0289785
0.000261811
0.000236762
0.000165211
0.0208896
0.000370068
0.000156408
0.000145434
0.00107462
0.000161413
0.000146723
0.100913
0.000147989
0.000679292
0.000149026
0.0348287
0.000156578
0.000147981
0.010035
0.000155925
0.000160445
0.0199726
0.0545717
0.00157611
0.000159172
0.000170501
0.000151635
0.000168509
0.000210889
0.00016986
0.000149356
0.000367494
0.000183683
0.000161805
0.0208338
0.000172013
0.000162273
0.000205889
0.000188122
0.000172642
0.000147949
0.000226764
0.000146853
0.000210114
0.000301522
0.0472175
0.000147098
0.000169639
0.0243721
0.000152872
0.000181015
0.000162231
0.000171847
0.0112018
0.000183573
0.000151821
0.0428631
0.000147157
0.0331692
0.000148837
0.000152042
0.000208921
0.0312056
0.000162028
0.000189653
0.000231784
0.000162956
0.000149436
0.000177875
0.000173569
0.0885713
0.000155163
0.00801506
0.00021695
0.000162582
0.000161909
0.000179198
0.000167196
0.000167765
0.000183439
0.000162598
0.00015434
0.000149578
0.00461138
0.000148229
0.000160746
0.000145225
0.000201473
0.000161388
0.000183067
0.0355832
0.000151155
0.000249861
0.000144608
0.000149013
0.000149233
0.000149338
0.000157746
0.000147625
0.000192576
0.0374218
0.000182454
0.000175279
0.000155977
0.000148509
0.000285458
0.000148336
0.000114706
0.000420469
0.029902
0.000210988
0.000164243
0.000158672
0.000149173
0.000157974
0.00017017
0.000170013
0.0603346
0.000181722
0.0690689
0.000210844
0.000149353
0.000146845
0.0227788
0.000147931
0.000162237
0.000166046
0.000320101
0.000153013
0.0400279
0.000149115
0.000156059
0.000148548
0.000150279
0.000177733
0.000198988
0.00014928
0.000163594
0.000159345
0.000175606
0.00018028
0.000228985
0.000203628
0.000232483
0.000205785
0.00015726
0.000151404
0.000179287
0.0310126
0.0539858
0.0342222
0.000163719
0.000680523
0.000197181
0.000151531
0.000148009
0.000179789
0.000148969
0.00016314
0.0221671
0.000147878
0.000147323
0.000574516
0.0114105
0.000173519
0.00252284
0.000148874
0.0190334
0.000169948
0.0909409
0.000157203
0.000148402
0.0333872
0.000165012
0.000148364
0.000172262
0.000149667
0.000193881
0.00016068
0.000164345
0.10519
0.000159547
0.000439267
0.000147598
0.0578078
0.000148855
0.000157434
0.000150027
0.000172619
0.00014889
0.000166199
0.0333079
0.000238395
0.000177029
0.000161346
0.000168366
0.000147811
0.000149167
0.000152301
0.000357317
0.000156577
0.042304
0.0293097
0.000192769
0.000149414
0.000197919
0.000217295
0.000217429
0.000156985
0.0525787
0.000148025
0.000144907
0.000147915
0.0529749
0.000148826
0.000148253
0.033963
0.000147927
0.000217365
0.000171659
0.000147829
0.0391271
0.000159315
0.0388842
0.000148015
0.000362383
0.000151054
0.000167098
0.0267985
0.000185747
0.000147747
0.000158575
0.000166751
0.000163081
0.000200336
0.000163759
0.000157029
0.000190132
0.000158257
0.00015014
0.00898389
0.000161274
0.000159492
0.000208145
0.000147956
0.000147353
0.000149198
0.000161714
0.000148837
0.000155214
0.000440138
0.0161664
0.000171045
0.00832766
0.000179588
0.000164048
0.0974716
0.0575905
0.000149851
0.0185364
0.0872628
0.0245891
0.0181579
0.000163143
0.00022381
0.0346832
0.0456937
0.0216582
0.0439293
0.000162937
0.000169568
0.000157731
0.000157218
0.000149952
0.00046555
0.000149893
0.0177406
0.000174717
0.000203317
0.000145055
0.000188824
0.000163672
0.000152038
0.000149951
0.000148683
0.00017401
0.000153596
0.00015018
0.000168627
0.0787532
0.000154798
0.000197066
0.000146769
0.000173882
0.00016925
0.000148964
0.000156374
0.000147642
0.031535
0.0353219
0.00022428
0.0293344
0.000161292
0.000195222
0.000148878
0.000170085
0.000148984
0.000149593
0.000149532
0.00764228
0.000146646
0.000171166
0.000273768
0.000157671
0.000163449
0.000148084
0.0936803
0.000226905
0.0364444
0.0258001