/*--------------------------------*- C++ -*----------------------------------*\
| =========                 |                                                 |
| \\      /  F ield         | OpenFOAM: The Open Source CFD Toolbox           |
|  \\    /   O peration     | Version:  v2012                                 |
|   \\  /    A nd           | Website:  www.openfoam.com                      |
|    \\/     M anipulation  |                                                 |
\*---------------------------------------------------------------------------*/
FoamFile
{
    version     2.0;
    format      ascii;
    class       surfaceVectorField;
    location    "1000";
    object      ddtCorrDdt0(Uf);
}
// * * * * * * * * * * * * * * * * * * * * * * * * * * * * * * * * * * * * * //

dimensions      [0 1 -2 0 0 0 0];


internalField   nonuniform List<vector> 
20537
(
(-0.000531767 -0.000975766 8.58912e-20)
(-0.000703871 -0.000908943 -7.70661e-20)
(-0.000692348 -0.00114468 -5.85722e-21)
(-0.000816068 -0.0267287 -2.11158e-18)
(-0.020746 -0.0288488 9.17112e-20)
(-0.0198023 -0.00171919 -6.63875e-19)
(0.00461313 0.00775421 -6.0018e-19)
(0.0056375 0.00748774 -2.56589e-18)
(0.00552686 0.00855611 5.44321e-18)
(-0.000616544 -0.000591021 6.82389e-21)
(-0.000710449 -0.000723502 -5.83009e-20)
(-0.00078654 -0.000526259 5.8294e-20)
(-0.00279234 0.0021121 3.48855e-18)
(-0.00274172 0.00268261 1.86288e-18)
(-0.00231918 0.00230493 -2.7897e-18)
(-0.00676553 0.0481954 -7.97444e-21)
(-0.014751 0.0402426 -1.15523e-19)
(-0.0052806 0.0372028 1.78431e-18)
(0.00017215 9.30951e-05 4.70751e-18)
(0.000179335 9.69699e-05 -2.1401e-18)
(0.000171746 9.5e-05 4.95678e-18)
(0.00331427 0.00175699 3.95967e-18)
(0.00297593 0.00158598 4.93277e-18)
(0.00302369 0.00205892 8.0251e-19)
(-0.000339452 -7.06037e-05 -3.10965e-21)
(-0.00034998 -7.36401e-05 1.2185e-20)
(-0.000345577 -6.76203e-05 -2.34465e-20)
(0.0196751 -0.00338456 1.52832e-18)
(0.017952 -0.00483789 6.75e-19)
(0.0172907 -0.00243595 -2.23101e-18)
(0.0194057 -0.0464608 7.0373e-19)
(0.0202779 -0.0395532 1.13954e-18)
(0.0245107 -0.0297415 -2.25419e-18)
(0.0688598 0.0322841 1.62942e-18)
(0.0613761 0.0404116 8.43706e-19)
(0.0633288 0.0399946 -8.0004e-19)
(-0.00744616 -0.0158809 -9.33893e-19)
(-0.00778195 -0.0144715 1.75012e-18)
(-0.00616285 -0.0156645 -1.10705e-18)
(0.0530653 -0.0265132 -1.39454e-17)
(0.0612385 -0.0157104 5.75888e-18)
(0.0526771 -0.0282159 5.05574e-18)
(9.1405e-05 8.04133e-06 1.25896e-18)
(8.95104e-05 8.24756e-06 9.53525e-20)
(9.11761e-05 1.00581e-05 -1.37544e-18)
(0.00092671 -0.00239578 9.83496e-19)
(0.00120056 -0.00225641 6.25764e-19)
(0.00120881 -0.00263381 -6.90784e-19)
(0.000744382 -0.000150565 -1.55522e-19)
(0.000700658 -0.000178209 -2.76586e-18)
(0.000705301 -0.000124866 -3.60847e-19)
(0.00274675 0.00155279 6.8167e-20)
(0.00228958 0.00162115 -7.33823e-20)
(0.00260225 0.00207988 1.02303e-19)
(-0.0158949 -0.00825874 -2.83982e-19)
(-0.017606 -0.00658145 8.61523e-20)
(-0.0162785 -0.00563255 -3.20163e-18)
(-0.000329664 -6.72799e-05 -1.84853e-22)
(-0.000333247 -7.28433e-05 4.10967e-21)
(-0.000530033 -0.000471494 -3.51547e-21)
(-0.000464875 -0.000616904 8.34048e-20)
(0.00360558 0.00705602 2.71408e-18)
(0.00335702 0.00811363 -2.53443e-18)
(-2.19764e-05 9.40951e-06 6.75348e-21)
(-1.55673e-05 1.22192e-05 -5.08877e-20)
(-2.21272e-05 1.60083e-05 7.69905e-20)
(-0.000238818 -3.54986e-06 -9.84754e-20)
(-0.000195021 -1.25491e-06 -6.81169e-20)
(-0.00024841 -3.40186e-06 -2.0561e-19)
(-2.68999e-05 6.06676e-06 -5.15163e-20)
(-2.0677e-05 4.57872e-06 1.18327e-19)
(0.00366729 0.00147271 5.14542e-19)
(0.00373024 0.00199055 1.1579e-18)
(0.000573602 0.000278432 -2.43414e-18)
(0.000555182 0.00026842 -2.77463e-18)
(0.000573705 0.000259491 1.25098e-18)
(-0.00190744 0.0166939 -1.56579e-19)
(-0.0026798 0.0134916 1.00949e-17)
(-0.00038269 -0.000874182 1.04889e-21)
(-0.000367798 -0.00106821 3.44235e-20)
(0.000272949 0.000300004 3.55153e-19)
(0.000186617 0.000273653 -2.98269e-19)
(0.000241584 0.000379279 1.00015e-19)
(0.00271632 0.052206 -8.17574e-20)
(-0.0165222 0.0630441 7.89457e-19)
(0.000785205 -0.000196922 1.48455e-18)
(0.000793083 -0.000125236 4.57483e-19)
(0.00581594 0.00645099 1.20335e-18)
(0.00677897 0.00709802 1.86226e-18)
(-0.00656716 0.0186657 -1.449e-19)
(-0.00919977 0.00300285 -2.89335e-20)
(-0.00052608 0.0161715 3.49247e-18)
(-0.000233755 -3.89029e-06 6.82225e-20)
(-0.000257839 -5.80692e-06 -3.30579e-20)
(0.00512496 -0.000639764 -5.40157e-19)
(0.00521541 -0.000277758 2.94876e-18)
(0.00523807 -0.000675975 5.84483e-18)
(0.00302442 -0.000718173 -9.51136e-18)
(0.00828316 -0.00128097 -1.94129e-18)
(0.00844724 -0.00071597 -5.31787e-18)
(-0.0126225 0.019904 -1.56959e-18)
(-0.015326 0.0180234 2.2588e-18)
(-0.0118007 0.0170908 8.30672e-19)
(0.0216344 -0.00403519 3.76011e-19)
(0.0209362 -0.00117206 1.02861e-18)
(-0.0140142 0.0274886 -5.34129e-19)
(-0.00413129 0.0369197 -1.0404e-18)
(6.49519e-05 -0.000216975 -3.26983e-19)
(6.11368e-05 -0.000228044 -1.41373e-19)
(7.29492e-05 -0.000220161 7.00496e-19)
(0.000195131 0.000114441 -4.67977e-21)
(0.00018678 0.00011307 -2.13851e-21)
(0.000187288 0.000106646 9.74263e-21)
(-0.00367485 0.0247799 -8.40856e-18)
(-0.00118923 0.0232961 1.32172e-17)
(0.00310851 0.0265886 -5.09687e-18)
(0.014217 -0.0218725 7.44297e-20)
(0.0180541 0.00591454 -2.8458e-20)
(0.0194252 -0.0125359 1.16079e-18)
(0.00914028 -0.0452282 -6.72701e-19)
(0.0085615 -0.0307867 1.58019e-18)
(-0.0135314 -0.0880776 -6.80146e-18)
(0.0240866 -0.0815972 -9.71951e-18)
(0.0208864 -0.0876061 -2.38694e-18)
(0.00196619 0.0249172 -1.33921e-18)
(0.00436028 0.00510787 -9.65069e-19)
(-0.00190115 -0.0048523 1.22802e-19)
(0.0581827 -0.0781259 -1.02521e-18)
(0.0624276 -0.0634117 -3.5678e-19)
(0.0462205 -0.104811 4.96645e-19)
(0.000590045 0.000287478 -1.84552e-19)
(0.000572735 0.000294675 -3.90157e-18)
(0.0213274 0.0312335 2.84976e-18)
(0.0200595 0.0226497 -1.36686e-19)
(0.0129871 0.0335872 -3.66466e-19)
(-0.000189046 -0.000594108 -4.89369e-18)
(-0.000127564 -0.000815159 -1.1491e-18)
(5.11378e-05 -0.000613435 -6.18985e-18)
(-0.00272988 -0.00432194 2.00466e-18)
(-0.00220485 -0.00402479 -9.76427e-18)
(-0.00217758 -0.00480634 -6.40131e-18)
(0.0043193 -0.002166 1.21749e-18)
(0.00348689 -0.00189231 -2.95803e-18)
(0.00348214 4.94037e-05 -2.37817e-18)
(9.3671e-05 4.4957e-06 -5.34428e-19)
(9.46874e-05 3.55749e-06 -1.18963e-18)
(9.35621e-05 3.95148e-06 -1.7957e-19)
(1.06931e-05 -1.43007e-05 -4.50994e-19)
(1.69235e-05 -1.25083e-05 -1.41544e-19)
(1.35441e-05 -1.96083e-05 -8.03379e-19)
(0.000203872 0.000116111 -8.29954e-23)
(0.000203316 0.000122715 -1.59987e-20)
(-0.000238553 1.14121e-05 -2.05011e-19)
(-0.000246385 1.23645e-05 -2.03746e-19)
(-0.000235435 9.93731e-06 -7.86135e-20)
(0.0114442 -0.00513566 -1.11472e-17)
(0.0142301 -0.00856591 3.21433e-18)
(0.011717 -0.00439794 1.12481e-17)
(0.00029847 0.000212996 -1.81425e-19)
(0.000359922 0.000284112 9.88099e-19)
(0.000218011 9.43668e-05 4.29684e-19)
(0.000209096 9.19042e-05 4.93935e-19)
(0.000211679 9.89466e-05 2.38548e-19)
(-0.0138327 0.0231645 -8.75648e-19)
(-0.00992282 0.021629 -1.72388e-18)
(-0.0781664 -0.0199879 -2.06618e-19)
(-0.0700647 -0.0281638 3.28232e-18)
(-0.07432 -0.029985 1.60905e-20)
(0.0199261 -0.000706017 2.55185e-20)
(0.0206101 -0.00420791 1.33788e-19)
(0.0175596 -0.00275298 -6.44313e-19)
(-0.0037191 0.00097032 -7.09394e-19)
(-0.00383473 0.00151611 1.93238e-18)
(-0.00429727 0.00115631 -3.82952e-18)
(-0.0730296 0.0237822 3.14971e-19)
(-0.0669409 0.0344379 3.10842e-18)
(-0.0618456 0.0209782 1.87454e-18)
(-0.00181628 -0.0014175 -4.87643e-20)
(-0.00171927 -0.0010237 -9.41764e-20)
(-0.00212959 -0.00113409 2.25258e-20)
(-0.00185467 -0.000778603 -2.11374e-18)
(-0.00159005 -0.000213949 1.65909e-18)
(-0.000921145 0.0666464 1.34075e-18)
(-1.47982e-05 0.0448336 -6.9318e-19)
(0.000676147 0.000665141 1.47436e-18)
(0.000698129 0.000689829 -2.28317e-18)
(0.000700836 0.000656064 -1.65354e-19)
(0.00271524 0.00105981 1.26055e-19)
(0.0032128 0.001369 2.71652e-20)
(-0.0111683 0.000583416 -9.40134e-19)
(-0.0110586 0.000602446 3.83638e-19)
(-0.0107885 0.00054176 3.31634e-18)
(-0.00825462 0.00113647 -5.47674e-19)
(-0.00854339 0.00165646 3.41973e-18)
(-0.0059133 0.00125126 7.56795e-18)
(0.0205653 -0.0180383 -2.22973e-18)
(0.0153051 -0.0460202 -1.55816e-18)
(9.23002e-05 5.87548e-06 2.31422e-18)
(9.23181e-05 3.81385e-06 -5.71189e-19)
(-1.2801e-05 -3.0698e-05 -2.72351e-19)
(-6.43118e-06 -3.40983e-05 2.20225e-19)
(-1.30476e-05 -3.71825e-05 -3.44956e-19)
(-0.00044995 -0.000153587 1.99412e-20)
(-0.000466813 -0.000143254 -3.94365e-20)
(-0.000441048 -0.000133784 -3.44913e-20)
(0.00288224 0.00678979 4.28457e-18)
(0.00359281 0.00655362 1.53945e-18)
(-0.00234717 -0.00138726 1.95818e-18)
(-0.00250794 -0.00212746 -5.12768e-18)
(-0.00145516 -0.00152092 -7.22681e-18)
(0.000524591 0.0014901 1.28422e-18)
(0.000373768 0.00151046 -4.35023e-18)
(0.000469573 0.00166375 4.75297e-18)
(-0.0103499 0.000863867 7.69811e-18)
(-0.0102082 0.000737292 -7.16665e-18)
(0.000291674 8.94379e-05 2.37077e-18)
(0.000288874 7.9759e-05 1.66533e-18)
(0.00028115 8.85484e-05 9.81279e-19)
(-0.008799 0.0249591 -1.55656e-19)
(-0.0139186 0.017008 1.16445e-19)
(-0.0119599 0.00452151 -7.59828e-20)
(0.000144361 -3.74793e-05 1.09152e-19)
(0.000148663 -4.02539e-05 1.34375e-18)
(0.000143261 -4.21605e-05 -3.02497e-20)
(0.0154735 -0.0652444 3.37732e-18)
(0.0598193 -0.0608168 -2.63342e-18)
(0.0036248 -0.050165 -1.88409e-18)
(0.0186923 0.0021697 -3.36473e-19)
(0.0226213 0.00147761 -6.4443e-21)
(0.0757313 0.0238067 -1.82733e-18)
(0.0683179 0.0244512 -5.39155e-19)
(0.00718859 0.0219474 4.33952e-19)
(0.00454051 0.0265242 1.3452e-19)
(0.00175291 0.0214381 -3.30708e-19)
(0.0669768 -0.105829 -2.70906e-18)
(0.0656522 -0.0925194 2.49844e-18)
(0.0784072 -0.0915833 -1.97458e-19)
(0.000750968 0.000180462 1.83215e-18)
(0.000771795 0.000152972 1.48184e-19)
(0.000785685 0.000194453 8.69617e-19)
(0.000114324 0.00010628 -3.67886e-20)
(2.78542e-05 0.000162553 1.50176e-19)
(3.77459e-05 6.52883e-05 -5.88383e-20)
(0.00494261 -0.000730631 2.07229e-18)
(0.0051035 -0.00107851 -7.17075e-19)
(-0.00159315 -0.0120884 -4.7162e-19)
(0.000131454 -0.0141234 -2.31994e-19)
(-0.00321315 -0.013914 3.70368e-19)
(0.0024724 0.0886636 1.83401e-18)
(0.000887458 0.000336229 -2.17486e-18)
(0.000920993 0.000345109 1.53677e-18)
(0.000894175 0.000382526 4.45138e-18)
(0.00071224 0.000178024 -4.84982e-19)
(0.00072814 0.000221423 -1.93349e-18)
(-0.000216063 4.67156e-06 9.176e-20)
(-0.00022007 6.08072e-06 -1.11592e-20)
(-0.000240715 9.29717e-06 -8.87635e-22)
(-0.00334908 0.001884 8.21248e-18)
(-0.00280037 0.00158244 -6.43382e-19)
(-0.00772462 -0.0322159 4.74899e-18)
(-0.00795689 -0.0345732 -6.84472e-19)
(-0.00523702 -0.0318916 -2.06122e-18)
(0.0182407 0.0416595 8.38877e-19)
(0.0281495 0.0241592 5.65001e-19)
(-0.000165502 1.46948e-06 2.03112e-20)
(-0.000210612 4.18801e-06 1.08254e-19)
(0.0198308 -0.163635 -2.08095e-18)
(0.00586251 -0.173298 4.61186e-18)
(0.0080728 -0.161705 2.7321e-17)
(1.35314e-05 0.000869093 -1.23385e-18)
(4.66389e-05 0.000744475 1.79711e-18)
(0.000131939 0.000847844 -3.13621e-18)
(0.000316111 -0.000395115 -7.72893e-19)
(0.00036516 -0.00039764 -2.16546e-19)
(0.000329875 -0.000447355 -1.84653e-19)
(0.000417579 0.000319698 -2.62853e-18)
(0.000418412 0.000330224 -1.78654e-17)
(0.000116735 4.86398e-06 -1.68661e-20)
(0.00014513 7.89263e-06 -8.80326e-21)
(0.000125116 4.73686e-06 1.27992e-20)
(0.0176842 0.0194248 -1.88451e-19)
(0.0213181 0.0155757 8.38737e-19)
(0.0162839 0.0137865 -1.32959e-19)
(-5.74546e-06 0.000408697 -2.06844e-18)
(-9.02741e-05 0.000514678 2.12823e-18)
(-0.000156668 0.000368616 -7.13486e-20)
(0.000215415 8.38757e-05 -1.14979e-20)
(0.000208607 8.45413e-05 1.48064e-20)
(0.000208966 7.76568e-05 2.58397e-20)
(-0.0109187 0.00240405 -1.86575e-18)
(-0.011645 0.00273607 6.08522e-18)
(-0.0277278 0.0438541 -2.36299e-19)
(-0.0201933 0.0332495 -2.20061e-18)
(-0.000235307 3.36357e-07 -5.35048e-21)
(-0.000182112 6.29317e-07 -8.08299e-21)
(-0.000233559 9.60623e-07 8.36588e-20)
(0.000210162 2.5666e-05 -6.10303e-20)
(0.000193637 0.000201433 4.63504e-20)
(-0.00293236 -0.0106072 -4.14129e-19)
(-0.000430107 -0.0107371 1.0371e-19)
(-0.000131872 -2.47421e-06 4.21365e-20)
(-0.00013324 -4.35339e-07 1.3972e-19)
(-0.000261176 7.64471e-07 4.13139e-21)
(-0.000232099 5.61781e-09 -3.46567e-20)
(0.0117777 0.00176059 -3.35653e-18)
(-0.00938332 -0.0432184 -1.46076e-20)
(-0.00727916 -0.0289436 -3.29024e-18)
(-0.00998787 -0.030991 4.14076e-18)
(0.00015924 5.88357e-05 -4.11397e-20)
(0.000157811 6.28176e-05 -1.60161e-20)
(0.000164261 6.32991e-05 -1.18205e-20)
(-0.000132956 -1.14332e-05 -3.98307e-20)
(-0.000138837 -1.06144e-05 -1.07167e-19)
(-0.000106426 -5.38621e-06 -5.71731e-19)
(-8.14841e-06 -1.66312e-05 -4.13554e-20)
(-9.59655e-06 -1.21574e-05 1.88929e-20)
(-1.15768e-06 -1.05242e-05 -1.21818e-19)
(-0.00877596 0.0219674 -1.79113e-17)
(-0.0027246 0.0298318 -6.645e-18)
(0.000433625 0.000317758 -5.66302e-18)
(0.000414939 0.000307578 4.249e-18)
(-0.00896517 -0.0157245 3.71852e-19)
(-0.00766214 -0.0171465 1.41173e-18)
(-0.0118882 -0.121483 -3.0982e-18)
(0.0525066 -0.0881899 7.47273e-19)
(0.0609046 -0.0616565 -2.27534e-18)
(0.00157248 -0.00038395 -3.36542e-20)
(0.00122338 -0.000471243 -3.84424e-19)
(0.00147632 -0.000889865 2.33903e-19)
(0.0430824 -0.0958976 -2.62809e-18)
(0.0333174 -0.123435 -2.09576e-18)
(0.000223932 0.00125062 -1.25667e-19)
(0.0001558 0.00114568 -2.02542e-18)
(6.76319e-05 0.0013113 2.63245e-18)
(-0.000458585 -0.00037055 -1.15097e-20)
(-0.000568548 -0.000302012 3.6572e-20)
(-0.00965446 0.00450864 1.68777e-18)
(-0.00903111 0.00388512 2.47277e-18)
(-0.010023 0.00322851 1.57063e-18)
(5.83274e-05 -0.000213661 2.30671e-19)
(6.84902e-05 -0.000206848 -3.96321e-19)
(-0.000214759 -7.32439e-05 -2.53454e-19)
(-0.000211521 -8.07166e-05 -1.43899e-19)
(-0.000207112 -7.61523e-05 7.5961e-21)
(-0.0112561 0.000616911 -2.55008e-18)
(-0.0110279 0.000712552 -2.82533e-18)
(0.000144656 -3.13872e-05 4.11169e-19)
(0.000139117 -3.44635e-05 -1.95872e-18)
(0.0324876 0.0297503 -1.17585e-18)
(-0.000189215 -3.1714e-05 -2.48996e-19)
(-0.000195152 -2.97566e-05 -6.36307e-20)
(-0.000192337 -2.47361e-05 4.91068e-20)
(0.000160568 5.38352e-05 -2.62007e-20)
(0.000153111 5.24992e-05 -2.39048e-20)
(-0.00778714 0.000522317 -4.14534e-18)
(-0.00716427 -0.000114794 -2.08389e-18)
(-0.00479083 -2.344e-05 3.87658e-18)
(-0.0306593 0.0364787 8.24705e-18)
(-0.00568777 0.0249338 1.87997e-19)
(-0.0149153 0.0435191 1.03055e-17)
(0.0604976 0.0894518 1.47392e-18)
(0.0620035 0.0870111 4.17915e-19)
(0.0518364 0.10081 -8.1534e-19)
(0.0367158 -0.143825 1.85502e-18)
(0.0213079 -0.144477 4.10392e-18)
(3.35738e-06 -1.75343e-05 2.39874e-19)
(8.17156e-06 -1.12172e-05 -4.01244e-19)
(4.22571e-05 -0.00182194 9.23936e-20)
(0.000403167 -0.00201378 -2.17308e-20)
(-7.29816e-06 -0.00235537 6.87929e-20)
(0.000113579 0.000252425 -1.85379e-21)
(0.000106313 0.000239148 8.78301e-21)
(9.59859e-05 0.000258338 -1.25341e-20)
(0.000370115 -0.00020013 8.13237e-19)
(0.000389201 -0.000219765 -5.78572e-19)
(0.000390242 -0.000185314 -2.4241e-18)
(0.0159521 0.0245576 -1.93951e-19)
(0.0207859 0.0335375 9.98594e-20)
(-0.00369121 0.000576947 2.47929e-19)
(-0.00316153 0.00134008 1.86433e-20)
(-0.00254677 0.000312254 -4.21545e-20)
(-0.0109379 0.00548271 -1.52145e-18)
(-0.00925785 0.00595851 -9.89864e-19)
(0.000164904 8.88621e-05 -1.14582e-18)
(0.00017191 9.0298e-05 2.03796e-19)
(0.00931159 -0.0575451 1.56329e-19)
(0.00447638 -0.0662033 7.74222e-20)
(0.00169433 0.000456796 3.81646e-18)
(0.00180316 0.000371739 -1.2623e-18)
(-1.78462e-05 -1.35748e-05 1.40185e-21)
(-2.65063e-05 -1.57986e-05 5.01161e-19)
(-2.35158e-05 -2.1325e-05 -6.09587e-19)
(0.0401967 -0.0429336 -8.57046e-18)
(0.0528727 -0.0241605 -1.13357e-17)
(-0.00022985 8.90234e-06 -8.0524e-20)
(-0.000240206 1.34983e-05 6.46701e-20)
(0.000467473 6.48369e-05 -2.66624e-19)
(0.000476365 8.09487e-05 1.19019e-18)
(0.000456643 8.17537e-05 1.75452e-18)
(0.000351181 -0.000217507 -1.21484e-18)
(0.000353648 -0.000188055 4.58521e-19)
(-0.000158192 -0.000202149 -1.65218e-19)
(-0.000164424 -0.000197526 -1.23837e-19)
(-0.000171952 -0.000208635 8.78803e-20)
(0.000260851 3.26179e-05 -5.33715e-19)
(0.000272736 5.09537e-06 1.79181e-18)
(0.000244351 -5.26246e-06 3.296e-18)
(-0.00312614 -0.00496607 1.06347e-17)
(-0.00331782 -0.00410107 8.08922e-18)
(-0.000214367 -0.00034553 5.41877e-19)
(-0.000411693 -0.000505536 3.15908e-18)
(0.00031765 0.000104205 -5.75783e-21)
(0.00031393 9.83311e-05 6.34876e-20)
(0.000321774 9.51118e-05 -3.03986e-21)
(0.00068372 0.000452928 -6.94991e-18)
(0.000700025 0.000467397 -1.31269e-18)
(0.000680034 0.000473724 -6.01584e-18)
(0.00961137 -0.0023978 -2.66396e-18)
(0.0106435 -0.00568526 -1.29352e-18)
(-0.00021715 -6.63298e-05 -2.47861e-20)
(-0.00022112 -7.01626e-05 -1.4436e-19)
(-0.00122395 0.000339164 2.65467e-19)
(-0.00113117 3.28587e-06 6.43569e-19)
(-0.000950359 0.000268743 -3.86645e-19)
(0.000161534 0.000179495 -2.38721e-20)
(0.000152546 0.000190256 7.14773e-20)
(0.000148988 0.00017721 -7.17936e-20)
(-0.00426375 -0.000642677 3.40624e-20)
(-0.0053767 0.000759349 -8.18805e-20)
(0.000647762 0.000672086 -3.57067e-18)
(0.000660857 0.00064618 7.48895e-18)
(-0.000377835 -0.000403665 7.12902e-20)
(-0.000402984 -0.0003048 -5.21289e-20)
(-0.00828061 -0.0581484 -3.41856e-18)
(0.011191 -0.0616247 -1.37285e-17)
(-0.00465148 -0.0557073 -6.64454e-18)
(-0.00130899 -0.000524201 9.83221e-18)
(-0.00311292 -0.0011458 5.78054e-18)
(-0.000291589 2.34245e-05 8.87905e-22)
(-0.000295004 2.10952e-05 1.14117e-21)
(-0.000295079 2.57861e-05 5.76427e-22)
(-0.000150609 -0.000207374 -4.21471e-20)
(-0.000145632 -0.000196075 3.25634e-20)
(0.0572662 0.0892284 -8.59701e-19)
(0.0704138 0.0766958 4.60018e-19)
(-0.000219424 -5.96445e-05 6.10974e-20)
(-0.000213215 -6.22763e-05 -1.09124e-19)
(0.0629122 -0.0474521 7.68992e-19)
(0.0661203 -0.0365874 1.51212e-19)
(0.000262284 0.00138821 -7.58822e-18)
(0.000350238 0.00126453 7.06048e-18)
(0.0010422 -0.000652797 -8.30092e-20)
(0.00106653 -0.000371869 1.14964e-19)
(0.0014483 -0.000611883 6.48774e-20)
(-0.014078 -0.0104379 6.23108e-19)
(-0.0142759 -0.00920398 -2.15186e-18)
(0.00022773 9.39938e-05 1.07299e-20)
(0.000234654 9.22346e-05 -2.02675e-20)
(0.000234857 9.97173e-05 -6.51951e-21)
(0.000885265 -0.000203407 -1.2765e-18)
(0.000831705 -0.000235716 1.50254e-18)
(0.000880261 -0.000277087 1.1836e-18)
(-0.00948334 0.00106882 2.89024e-18)
(0.000139262 -2.19288e-05 -5.46375e-19)
(0.000134641 -1.92143e-05 4.22451e-19)
(0.000135025 -2.54688e-05 7.64966e-19)
(0.00320886 0.0090121 -9.45485e-19)
(0.00238272 0.00834678 -7.29962e-18)
(0.000231356 2.13172e-05 1.34336e-20)
(0.000228228 1.76798e-05 3.42117e-20)
(0.000233738 1.72287e-05 -3.06851e-21)
(-0.000126014 1.25212e-05 -5.93091e-20)
(-0.000124609 1.38068e-05 -1.07285e-20)
(-0.000135586 1.70815e-05 2.44814e-20)
(-0.00185016 -0.00180942 -4.28234e-19)
(-0.00144498 -0.00164196 5.31891e-20)
(-1.20121e-05 -2.23759e-05 3.95761e-19)
(-4.9851e-06 -1.94966e-05 8.85566e-19)
(-0.00379997 0.00344437 6.27089e-19)
(-0.00367887 0.00414019 3.17308e-19)
(-0.00452264 0.00392642 1.32348e-18)
(0.00194219 -0.0242047 1.09844e-19)
(0.00417841 -0.0271386 -4.43255e-19)
(0.0052924 -0.0232222 2.28077e-19)
(0.00525561 0.0542612 -1.63683e-18)
(0.00516881 -0.00172682 5.22588e-18)
(0.00581793 -0.00412807 -5.2631e-18)
(0.000330739 -6.69291e-05 -3.899e-20)
(0.00048216 6.97459e-05 -3.74524e-21)
(0.000473132 -0.000174168 5.27123e-20)
(0.000834714 0.000788576 3.9323e-18)
(0.000792503 0.000758629 -3.85869e-18)
(0.000829861 0.000733549 -2.16335e-18)
(-0.0855016 -0.00943409 2.02646e-18)
(-0.0785423 -0.0100279 -8.69871e-19)
(0.000445766 3.66318e-05 6.97541e-19)
(0.000457879 4.93876e-05 -1.1648e-18)
(0.000439636 5.25133e-05 -9.96405e-19)
(-0.000318194 -0.00164223 -1.47419e-19)
(-1.35997e-05 -0.00146143 -9.41323e-22)
(-0.00979069 0.138156 -1.24694e-18)
(-0.0131421 0.152537 2.41644e-18)
(-0.0167301 0.128858 -1.89974e-18)
(0.00096214 -0.00102986 -2.06831e-21)
(0.000722523 -0.000714469 1.4365e-19)
(-0.00042936 -0.000160153 -1.61563e-20)
(-0.00045462 -0.000174728 9.12456e-20)
(0.00206423 -0.0002929 -1.62294e-19)
(0.00150772 2.76418e-05 -9.22576e-20)
(0.0254507 -0.102395 3.50149e-19)
(0.0323048 -0.0922598 3.69831e-19)
(0.0529793 -0.0862709 -3.09294e-18)
(-5.23453e-05 -2.82656e-06 1.38692e-19)
(-8.19493e-05 -5.41615e-06 8.10969e-20)
(-5.10828e-05 -2.06875e-06 -3.04522e-19)
(0.000117339 -5.90597e-05 8.44464e-20)
(0.000111901 -5.74622e-05 -5.71363e-19)
(0.000116033 -6.11834e-05 4.28767e-19)
(0.00880882 -0.0147553 3.75788e-20)
(0.00678633 -0.0142381 1.13731e-19)
(0.00808166 -0.0127777 3.44722e-20)
(0.000143613 -1.7223e-05 -1.12078e-18)
(0.000143995 -2.45055e-05 2.05222e-20)
(-0.0835372 0.123468 5.42981e-19)
(-0.101732 0.13483 -1.21708e-17)
(-0.085346 0.123795 -1.32146e-17)
(0.000778209 -4.02509e-05 1.0756e-18)
(0.000732979 -4.34977e-05 -1.39391e-18)
(0.00075512 4.94013e-06 1.78811e-18)
(-0.00917952 -0.00124026 2.02072e-18)
(-0.0094673 -0.000947709 1.11026e-17)
(-0.00940646 -0.001069 6.59952e-18)
(0.000275259 8.84942e-05 -5.49319e-21)
(0.000283145 9.12105e-05 1.17954e-20)
(0.000276233 9.81885e-05 1.91152e-20)
(-0.00713554 -0.00346669 6.47201e-19)
(-0.00733401 -0.00306237 4.16833e-19)
(-0.00695036 -0.00350691 -6.22035e-18)
(0.000297852 -0.000356049 -3.57642e-19)
(0.000269361 -0.000390405 -1.04873e-19)
(0.00979593 0.11962 -4.47335e-19)
(-0.00122507 0.145046 2.21277e-18)
(-0.000367519 0.14236 -1.26969e-18)
(0.000242454 7.35708e-05 1.04237e-20)
(0.000235017 7.70966e-05 1.70357e-20)
(0.000235764 6.89395e-05 1.53029e-20)
(0.000146347 0.000231167 7.52655e-21)
(0.000164429 0.000241047 -2.39864e-20)
(0.000158493 0.000218579 -2.59422e-20)
(0.00779562 -0.0469329 8.02386e-19)
(0.0121717 -0.0500813 -1.21596e-18)
(0.0148711 -0.0423495 4.67859e-19)
(0.0182134 0.00757595 -8.3099e-19)
(0.0173378 0.00474573 2.28941e-19)
(0.0145562 0.00702172 -3.35811e-19)
(-0.0373687 -0.0829462 -5.09867e-19)
(-0.0359185 -0.0916499 6.21596e-18)
(0.000103436 6.85164e-06 2.09391e-18)
(0.000100779 7.7081e-06 7.5988e-19)
(0.000101798 4.42632e-06 1.93531e-18)
(-0.00892623 -0.00140915 -7.41849e-18)
(-0.00887698 -0.00156006 -4.83502e-18)
(0.000796695 -7.69452e-05 1.25398e-18)
(0.000822373 -2.86956e-05 3.0587e-18)
(0.000306108 8.84413e-05 -9.26369e-19)
(0.000297497 0.000103135 6.2934e-19)
(-0.000745928 -0.0137561 -1.84049e-18)
(-0.000667464 -0.0140814 -2.58166e-18)
(-0.00081616 -0.013064 1.6582e-19)
(-0.00576453 -0.00175045 -3.69636e-18)
(-0.00656376 -0.00171156 4.83789e-18)
(-0.00615432 -0.00266873 6.03885e-20)
(-0.00905365 -0.000257135 -7.14686e-18)
(-0.00909115 -0.000292051 4.40338e-18)
(-0.00920565 2.54918e-06 -3.70459e-18)
(-8.69357e-05 8.60711e-06 8.28757e-21)
(-8.27568e-05 8.12507e-06 -1.23191e-20)
(-6.59562e-05 3.78775e-06 -2.19078e-20)
(0.000984037 0.000465996 -1.94427e-18)
(0.000986281 0.000521753 2.79968e-18)
(0.00103626 0.000487044 -2.78971e-18)
(0.000108043 4.31827e-06 2.37347e-20)
(7.99913e-05 1.57655e-06 -3.42481e-20)
(0.00424861 -0.0148603 5.2582e-18)
(0.00118532 -0.0145013 7.26552e-18)
(0.00342062 -0.0118102 2.83591e-18)
(0.000248629 7.04924e-05 -9.1384e-21)
(0.000248193 7.87072e-05 8.62765e-22)
(0.0039931 0.00116412 -7.32743e-19)
(0.00356112 0.00103007 2.23503e-18)
(0.0102055 0.0716252 9.34583e-19)
(-0.000221715 0.0720038 5.86682e-19)
(-0.0234086 0.0899302 -2.18565e-19)
(-0.00028843 2.12412e-05 -6.21228e-21)
(-0.000288091 2.48478e-05 2.61057e-20)
(0.000189237 -0.000111424 -8.20843e-20)
(0.000447722 -0.000285661 3.73669e-18)
(0.000293871 -0.000306865 -2.12711e-18)
(0.000355812 -0.000154731 -1.26181e-18)
(-0.00192008 0.0115129 -2.88787e-19)
(-0.00160085 0.00973121 2.95975e-19)
(5.77695e-05 0.0104874 -3.9949e-20)
(-0.0601811 0.112643 9.78729e-18)
(-0.0818644 0.122648 1.13835e-17)
(-0.0775748 0.0217327 -7.62496e-19)
(-0.0704387 0.0116825 1.23581e-19)
(0.00013097 0.000243352 3.70282e-20)
(0.000129738 0.000267558 1.55581e-20)
(0.000119131 -5.79311e-05 -4.27389e-20)
(0.000123009 -6.171e-05 3.69555e-20)
(0.0117585 0.0421146 -4.45473e-19)
(0.0141106 0.0537643 -8.31973e-20)
(0.0430585 -0.0381058 -2.83844e-19)
(0.0448859 -0.0211687 -2.95433e-19)
(0.0425732 -0.0372474 2.43946e-18)
(0.000253611 0.00016794 -5.39928e-20)
(0.000279155 0.000150763 -7.49685e-21)
(0.000249971 0.000125176 3.13082e-20)
(0.0107801 -0.0148198 1.77358e-20)
(0.00947267 -0.0167963 1.63349e-19)
(0.000168935 1.17993e-05 1.9793e-20)
(0.000160488 1.14073e-05 -1.9275e-20)
(-0.00898585 -0.000967218 -2.25315e-18)
(-0.00922285 -0.000770086 -9.99624e-19)
(-0.00912889 -0.000697008 6.28315e-19)
(-2.31969e-05 0.000985832 1.89455e-18)
(-0.000143301 0.000884476 4.96718e-18)
(0.0170144 0.0702606 -1.48727e-19)
(0.0164973 0.0505107 1.04873e-18)
(0.0258399 0.0554846 5.00244e-19)
(0.000325852 -0.000225662 1.02945e-19)
(0.000304469 -0.000231527 8.64709e-19)
(0.000315265 -0.000207352 3.9767e-18)
(0.000524965 -0.000669414 4.20497e-19)
(0.000496249 -0.000583374 6.40774e-19)
(0.000448984 -0.000657801 -9.15481e-19)
(-0.00345611 0.00748936 8.77124e-20)
(-0.00522671 0.00747843 -4.17816e-19)
(-0.00391732 0.00556011 -4.8827e-20)
(0.0416416 -0.0448018 2.22943e-19)
(0.0420773 -0.038209 1.32582e-19)
(0.000291839 -6.71212e-05 -1.35876e-18)
(0.000298616 -7.10738e-05 3.19304e-18)
(0.000290759 -7.60126e-05 1.52241e-18)
(0.000343395 -0.000250683 -1.77004e-18)
(0.000525379 0.00031625 -2.87956e-20)
(0.000567281 0.000241413 -5.108e-19)
(0.000462348 0.000264257 4.80097e-18)
(0.018137 -0.0549646 -2.95175e-18)
(0.0253088 -0.0553178 -1.80711e-18)
(0.0221928 -0.0474891 -1.13373e-18)
(-0.00164938 -0.0251345 -5.49412e-19)
(-0.000349237 -0.0214019 5.3365e-19)
(-0.00853603 -8.22867e-05 -1.89801e-18)
(-0.0068746 -0.000542305 -2.43548e-18)
(0.0126516 -0.000183552 3.79112e-18)
(0.00910225 -0.000688509 9.02929e-18)
(0.00984048 0.00201959 1.09566e-17)
(0.000112954 4.13393e-05 1.19027e-18)
(0.000108692 3.92326e-05 -1.15102e-18)
(0.000112598 3.81101e-05 3.17716e-19)
(0.000134408 0.000223154 1.53573e-20)
(0.00267297 0.000642757 1.53119e-20)
(0.00288775 0.000284068 -1.54425e-19)
(0.00246645 0.000186739 -3.07924e-19)
(-0.0942717 0.105678 5.02048e-19)
(-0.102074 0.0961526 -1.87907e-19)
(-0.0860206 0.0687717 -5.61236e-19)
(0.000267552 0.000269931 -2.20694e-20)
(0.000221967 0.000241298 4.43207e-20)
(0.000265643 0.000200285 -8.89064e-20)
(-0.0192572 -0.00732181 1.38165e-18)
(-0.0211996 -0.00497031 -6.20717e-19)
(-0.0211259 -0.00801608 1.01836e-19)
(0.000452542 1.91925e-05 7.2783e-20)
(0.000439364 1.94425e-05 1.90542e-20)
(0.000292649 -5.7355e-05 -3.54599e-18)
(0.000284925 -6.34551e-05 -1.17019e-18)
(0.000849114 0.000348008 -7.01779e-18)
(0.000868718 0.000313832 1.03725e-18)
(-0.000854111 -0.0143459 -1.74734e-18)
(-0.000888482 -0.013354 -3.32251e-19)
(-0.00105907 -0.0129089 1.45084e-18)
(-0.000613739 -0.0103846 -3.41322e-19)
(0.00138692 -0.0120083 -3.89954e-19)
(-0.00214458 0.00963002 1.8646e-19)
(-0.00186794 0.00729911 8.38502e-20)
(0.000476383 4.8989e-05 -8.90173e-19)
(-0.0988594 0.0876241 4.90498e-19)
(-0.0859728 0.0761426 -2.74391e-18)
(-0.101103 0.0606849 -2.35265e-18)
(0.000672014 0.00145427 -3.90289e-18)
(0.000578373 0.00135661 -4.49112e-18)
(0.000619384 -0.00258737 -4.68686e-19)
(0.000647934 -0.00220335 1.60424e-18)
(-0.000208586 -8.81274e-05 -5.81577e-20)
(-0.000216496 -8.45891e-05 1.81896e-19)
(-0.00579202 0.0435377 -4.55622e-19)
(-0.00441914 0.0302996 -5.57478e-20)
(-0.00630128 -0.0110855 -7.01872e-20)
(-0.00475173 -0.0139621 -5.65678e-19)
(-0.00332752 -0.011505 -3.58933e-19)
(-0.0097815 0.00261498 6.97122e-18)
(-0.00946486 0.00244453 -3.60321e-18)
(-0.00941984 0.0027696 -5.99694e-18)
(0.0191658 -0.048825 4.79684e-20)
(0.0149908 -0.0583606 6.87106e-18)
(0.00021578 0.000188427 -1.1809e-20)
(0.000272138 0.00019614 9.34652e-21)
(0.00027374 7.04334e-05 3.86045e-21)
(0.000274299 7.94935e-05 -9.99118e-21)
(0.000280445 7.14423e-05 6.15061e-22)
(0.000131671 4.33785e-06 3.231e-21)
(0.000140737 5.18592e-06 9.79801e-21)
(0.00016025 9.25719e-06 -4.31697e-21)
(0.000566685 0.000341223 3.08689e-18)
(0.000506465 0.000364252 2.63716e-19)
(-0.0754679 0.109723 1.37845e-18)
(-0.101516 0.141541 1.15748e-18)
(0.0648678 -0.031313 -4.03358e-19)
(0.0656086 -0.0160197 -1.67483e-18)
(0.0613233 -0.0187204 -7.20569e-20)
(-0.000365483 -0.000101614 2.07374e-20)
(-0.000381586 -0.000107007 -2.38444e-20)
(-0.000369683 -0.00011268 1.02648e-20)
(7.91888e-05 1.99483e-05 -2.70071e-20)
(8.21227e-05 2.08325e-05 1.34526e-18)
(8.1308e-05 2.22711e-05 -1.28636e-18)
(-0.107691 0.107881 -1.80068e-18)
(-0.084661 0.104931 -1.02801e-18)
(-0.0150706 0.0369163 -1.96695e-19)
(-0.00843666 0.0566597 5.21177e-18)
(-0.00980811 0.0530075 2.50468e-19)
(-0.0120269 0.00625589 -2.66113e-19)
(-0.0123032 0.00458491 -4.02387e-19)
(0.000308676 0.000160731 -6.39827e-19)
(0.000249417 0.00015123 3.99345e-19)
(0.000224848 9.81938e-05 -3.16327e-19)
(0.000223319 9.17958e-05 6.53634e-19)
(0.000675244 0.000763574 -1.00207e-18)
(0.000702718 0.000797634 -2.71399e-18)
(0.00064814 0.000808854 1.62589e-18)
(-0.0163165 0.0234893 9.45597e-19)
(-0.0191301 0.0236841 -7.9608e-19)
(-0.0184087 -0.00696136 1.71223e-18)
(-0.0171374 -0.00973513 8.66271e-19)
(-0.000831777 -0.000242134 -1.00418e-18)
(-0.000712189 -0.000196206 2.84844e-19)
(-0.000705515 -0.000385539 2.10992e-20)
(0.0801403 0.0186243 -2.43588e-18)
(0.0800088 0.0138718 -1.30357e-18)
(-0.000212838 -9.91772e-05 -1.12823e-19)
(-0.000205884 -0.000102238 -3.58983e-20)
(-0.000207077 -9.45231e-05 -1.3923e-19)
(-0.00882592 -0.00123204 3.79728e-18)
(-0.00876054 -0.00117803 3.87879e-18)
(0.000677503 0.000438359 -2.21733e-18)
(0.00066189 0.000449781 1.77356e-19)
(0.000660635 -0.000202082 -1.36143e-18)
(0.000690837 -0.000236926 7.22042e-19)
(-0.0098911 0.00192563 5.60166e-19)
(-0.00951479 0.00203059 2.15242e-18)
(-0.00956989 0.00173172 4.59201e-18)
(0.000235946 -0.000137542 2.43457e-19)
(0.000239061 -0.000146154 3.97603e-19)
(0.000247971 -0.000138192 -1.56155e-19)
(0.011978 0.0213385 4.03607e-19)
(0.0176998 0.0254581 -9.34868e-20)
(-0.0040922 -0.0066257 3.08057e-18)
(-0.0035882 -0.00714143 1.17307e-18)
(-0.00356525 -0.00740427 -3.86573e-19)
(-0.000359588 -9.32252e-05 5.82247e-21)
(-0.000350891 -9.79965e-05 5.40132e-21)
(0.000526881 0.000562622 2.11507e-18)