/*--------------------------------*- C++ -*----------------------------------*\
| =========                 |                                                 |
| \\      /  F ield         | OpenFOAM: The Open Source CFD Toolbox           |
|  \\    /   O peration     | Version:  v2012                                 |
|   \\  /    A nd           | Website:  www.openfoam.com                      |
|    \\/     M anipulation  |                                                 |
\*---------------------------------------------------------------------------*/
FoamFile
{
    version     2.0;
    format      ascii;
    class       surfaceVectorField;
    location    "1000";
    object      Uf;
}
// * * * * * * * * * * * * * * * * * * * * * * * * * * * * * * * * * * * * * //

dimensions      [0 1 -1 0 0 0 0];


internalField   nonuniform List<vector> 
20537
(
(1.01075 -0.0119029 2.42737e-22)
(1.01063 -0.0114404 -5.32785e-23)
(1.01034 -0.011906 1.28352e-24)
(0.53166 0.160593 -1.15399e-22)
(0.530573 0.151006 4.89811e-21)
(0.540363 0.159695 -4.91883e-21)
(1.05021 -0.0726251 -1.21463e-20)
(1.04857 -0.0732654 -2.28034e-21)
(1.04987 -0.0746979 -9.9623e-21)
(1.01095 -0.010752 -6.98934e-23)
(1.01071 -0.0109754 5.21072e-23)
(1.0108 -0.0104005 -7.86192e-24)
(1.06297 -0.0644493 -4.98376e-21)
(1.06223 -0.0647371 -7.39435e-22)
(1.06238 -0.0639351 -5.42365e-21)
(1.05967 0.000370212 9.4656e-23)
(1.05373 0.00971539 0)
(1.04958 0.000576062 5.66385e-22)
(1.03119 -0.00383288 6.08158e-21)
(1.03182 -0.00413873 -1.44429e-21)
(1.03172 -0.00356548 7.91169e-21)
(1.04452 -0.0581897 -1.11797e-20)
(1.04532 -0.0568842 -1.48282e-21)
(1.04621 -0.0585284 -6.47637e-21)
(1.00808 0.000722903 8.58791e-24)
(1.00829 0.000801064 7.98604e-24)
(1.00819 0.00080716 8.75069e-25)
(1.01826 -0.0873187 2.75435e-21)
(1.01596 -0.0836558 7.70701e-22)
(1.02069 -0.0838603 1.7275e-22)
(0.942951 -0.075141 -6.32083e-22)
(0.937381 -0.0890237 2.02083e-22)
(0.956407 -0.0860401 -4.63893e-23)
(0.584223 -0.161113 -5.4873e-21)
(0.567106 -0.156992 6.39307e-22)
(0.518585 -0.15899 2.22551e-21)
(0.966442 -0.0732464 -5.16368e-21)
(1.00603 -0.0724441 4.38233e-21)
(0.974626 -0.0736633 -2.74687e-21)
(0.187493 0.198041 -1.89283e-20)
(0.198188 0.19549 1.3257e-20)
(0.135172 0.198214 -9.82156e-21)
(1.0191 -0.000831662 0)
(1.0192 -0.000753962 0)
(1.01928 -0.00092438 0)
(1.02622 -0.0412597 1.54649e-21)
(1.02737 -0.0421356 -7.33446e-25)
(1.02593 -0.0428499 1.69236e-21)
(1.03947 -0.0308373 -6.69332e-21)
(1.03857 -0.0301621 -4.09404e-21)
(1.03966 -0.0299173 4.21341e-21)
(1.01579 -0.0261408 -2.40541e-22)
(1.01635 -0.0258187 -3.90813e-22)
(1.01639 -0.026719 -2.7851e-22)
(1.06102 -0.0686741 8.55527e-21)
(1.06103 -0.0674189 -4.18015e-21)
(1.06183 -0.0681263 3.60329e-21)
(1.00788 0.000644368 0)
(1.00798 0.000634678 8.69497e-24)
(1.01109 -0.0103832 -3.05264e-23)
(1.01116 -0.0109817 2.47754e-22)
(1.05116 -0.0707261 -5.03482e-21)
(1.05229 -0.0720456 5.56057e-21)
(1.00459 -1.37327e-05 5.32716e-24)
(1.00521 3.50673e-05 -2.95434e-22)
(1.00596 8.46912e-05 6.74275e-23)
(1.0033 1.63559e-05 3.06709e-23)
(1.00176 5.07909e-05 1.11206e-22)
(1.00352 1.90505e-05 3.06615e-22)
(1.00401 1.78852e-06 3.72198e-23)
(1.00304 -7.28002e-05 1.78468e-22)
(1.04283 -0.0581877 7.48903e-21)
(1.04393 -0.0599058 -1.1536e-21)
(1.0517 -0.0243097 6.48885e-21)
(1.05127 -0.0233948 0)
(1.05062 -0.0241141 0)
(0.0113626 -0.095718 -9.79851e-21)
(0.0229504 -0.105773 -1.45282e-20)
(1.01111 -0.0119776 -1.47743e-22)
(1.01087 -0.0125443 1.98393e-22)
(1.02098 -0.0233153 3.28754e-22)
(1.02143 -0.0237885 0)
(1.02081 -0.0237262 -2.93167e-21)
(1.06476 -0.00984572 1.59387e-21)
(1.06695 0.000350513 -6.21785e-22)
(1.03916 -0.0318718 -6.04673e-21)
(1.04039 -0.0316485 -1.92723e-21)
(1.04703 -0.0720865 1.01604e-20)
(1.04652 -0.0743333 -3.64694e-22)
(0.890587 0.165154 4.03029e-21)
(0.888137 0.168239 -6.88624e-21)
(0.887998 0.169293 -1.36367e-21)
(1.00312 4.38183e-05 -1.41541e-23)
(1.00454 2.83396e-05 3.52646e-23)
(1.08747 -0.0765141 9.56554e-21)
(1.08838 -0.0768453 3.08429e-20)
(1.08588 -0.0778715 1.07927e-22)
(1.08917 -0.0846184 -1.06381e-22)
(1.09523 -0.0835626 -1.15651e-20)
(1.09675 -0.0842674 1.3514e-20)
(1.06793 -0.0716305 -2.36989e-21)
(1.06737 -0.0696031 -2.7662e-22)
(1.06725 -0.0714562 -5.66352e-21)
(1.01628 -0.0901391 -2.15696e-22)
(1.021 -0.090402 6.5543e-22)
(0.899838 0.158702 1.03261e-21)
(0.891979 0.157084 -1.80285e-21)
(1.01246 -0.00796586 6.02509e-22)
(1.01238 -0.00805921 -1.83212e-22)
(1.01268 -0.00828061 -1.45764e-22)
(1.011 -0.000622809 -2.54799e-23)
(1.01096 -0.00058645 0)
(1.0107 -0.000572268 0)
(-0.0211336 0.0244191 1.56817e-20)
(-0.0255929 0.0212092 5.09743e-21)
(-0.0204376 0.0342109 1.15984e-20)
(0.908726 -0.115276 -3.77468e-22)
(0.918174 -0.115726 2.2136e-21)
(0.9241 -0.111677 -2.32778e-22)
(0.899812 -0.106103 1.02373e-21)
(0.896044 -0.117323 -1.43671e-21)
(-0.0209066 -0.0720744 -7.35936e-21)
(0.0262245 -0.0788762 -7.89384e-21)
(0.0335254 -0.0734584 -6.46383e-21)
(0.884491 -0.123102 8.41486e-22)
(0.888336 -0.12653 -3.90308e-22)
(0.883937 -0.126199 6.1995e-22)
(0.826319 -0.0697391 -1.97243e-21)
(0.829083 -0.0924362 -2.81331e-22)
(0.816837 -0.0759713 -1.17202e-21)
(1.05207 -0.0252525 -2.91796e-21)
(1.05275 -0.0244765 8.48208e-21)
(1.04952 -0.0247186 -5.65614e-21)
(1.04496 -0.0202224 5.94286e-21)
(1.05335 -0.0138759 -1.64717e-21)
(1.07184 -0.0615678 -1.6336e-20)
(1.07233 -0.062354 -1.47426e-20)
(1.07279 -0.0613563 -6.60572e-22)
(1.06813 -0.0696409 1.90248e-22)
(1.0687 -0.0693918 1.18941e-20)
(1.06878 -0.0703637 3.80518e-21)
(-0.0214716 -0.122681 5.69719e-21)
(-0.0192485 -0.118239 1.59457e-20)
(-0.0149126 -0.126353 -1.10468e-20)
(1.01871 -0.000728609 5.23854e-22)
(1.01825 -0.000469065 1.34589e-21)
(1.01876 -0.000815569 1.25893e-21)
(1.00933 -0.000807503 3.84057e-22)
(1.0093 -0.000775458 -4.71714e-22)
(1.01027 -0.00095436 1.17247e-21)
(1.01105 -0.000661411 -9.14796e-24)
(1.01132 -0.000674909 -2.43781e-23)
(1.00597 0.000171384 1.8991e-23)
(1.0065 0.00022556 -2.67636e-22)
(1.00543 0.00015883 -1.36069e-23)
(-0.0103 -0.1277 0)
(-0.0108499 -0.127011 1.83585e-20)
(0.00348313 -0.126782 0)
(1.02116 -0.0227322 3.07425e-22)
(1.02047 -0.0227631 1.32229e-21)
(1.0321 -0.00718084 -8.20646e-22)
(1.03159 -0.00678555 -3.60893e-21)
(1.03231 -0.00666532 -6.04867e-21)
(1.07412 -0.0713508 -6.08303e-21)
(1.06762 -0.0736733 -8.13323e-21)
(0.520124 0.00888665 0)
(0.507061 0.00468813 0)
(0.447661 0.0151154 -3.50117e-21)
(1.00674 -0.0469752 0)
(1.00234 -0.047681 -5.8272e-22)
(1.00468 -0.0433451 -4.89238e-22)
(1.06445 -0.0655393 7.33943e-21)
(1.06387 -0.0656134 5.90797e-23)
(1.06425 -0.0660914 7.62662e-21)
(1.01462 0.0443001 1.10446e-21)
(1.03459 0.0332776 -7.89487e-23)
(1.02637 0.0293103 -5.55491e-21)
(1.00913 -0.0103637 0)
(1.0096 -0.0100801 0)
(1.00932 -0.00953783 0)
(1.07315 -0.0855146 0)
(1.07613 -0.0852452 -6.05089e-21)
(0.880172 -0.10153 -2.52161e-21)
(0.88255 -0.116591 6.98895e-22)
(1.06404 -0.0426594 -4.46432e-22)
(1.06292 -0.0430316 -4.38382e-22)
(1.06302 -0.0417583 7.99099e-21)
(1.01525 -0.025529 -6.95021e-23)
(1.01505 -0.0264949 -1.18264e-22)
(0.305539 -0.0134154 3.30045e-21)
(0.294501 -0.012132 1.29621e-20)
(0.272884 -0.00808918 1.65822e-20)
(1.00471 -0.0852932 -7.91994e-21)
(1.0022 -0.0861589 8.91392e-21)
(1.04065 -0.0865634 0)
(0.550963 0.17142 9.90783e-21)
(0.535537 0.160029 4.1725e-22)
(1.01893 -0.000750449 -1.1649e-21)
(1.01862 -0.000698342 -1.2319e-21)
(1.01 -0.00119686 -6.62922e-22)
(1.01025 -0.00135958 1.00404e-21)
(1.01003 -0.00141516 8.8411e-22)
(1.00969 0.00125494 1.46647e-22)
(1.00982 0.00136721 6.08572e-23)
(1.00959 0.00123455 1.21328e-22)
(1.05201 -0.0698305 -2.46488e-21)
(1.05051 -0.0700702 8.92467e-21)
(0.435008 -0.016282 -4.95443e-21)
(0.455143 -0.0203117 1.38289e-20)
(0.438955 -0.0153952 2.39857e-20)
(1.05912 -0.0542491 -4.47163e-21)
(1.05994 -0.0551099 6.30284e-21)
(1.05878 -0.0554102 -8.95338e-21)
(0.279773 -0.0142592 0)
(0.252698 -0.0120825 -1.15914e-20)
(1.03508 -0.011871 1.40625e-21)
(1.03423 -0.0117665 4.54009e-21)
(1.03452 -0.0111378 -3.02732e-21)
(0.92579 0.0915106 -1.16303e-21)
(0.936242 0.0905851 -9.42715e-24)
(0.923954 0.0954704 9.00898e-22)
(1.02047 -0.00581852 1.37792e-21)
(1.02063 -0.00615307 1.35314e-21)
(1.02015 -0.0059432 3.86264e-21)
(0.0030962 -0.0796732 -6.64442e-22)
(0.059013 -0.0808874 7.48748e-21)
(-0.0137146 -0.073097 -9.99648e-22)
(1.01046 -0.0461856 0)
(1.00933 -0.0505782 -3.7462e-22)
(0.596847 -0.164404 1.20101e-21)
(0.648312 -0.164442 5.81104e-22)
(1.03352 -0.0135243 4.29965e-22)
(1.03852 -0.0107588 -3.18488e-21)
(1.03179 -0.00885015 3.39766e-22)
(0.6357 -0.0410641 0)
(0.696798 -0.0282194 0)
(0.693117 -0.0470693 9.6763e-21)
(1.04743 -0.0300588 -2.77041e-21)
(1.04646 -0.0305333 7.36651e-21)
(1.04765 -0.0313281 0)
(1.01711 0.00178668 -5.87649e-23)
(1.01664 0.00181478 1.17396e-23)
(1.01689 0.00179042 1.46605e-22)
(1.08632 -0.0755112 -1.55441e-20)
(1.08653 -0.0763941 -1.63443e-20)
(0.995425 0.00046946 -2.25242e-24)
(0.992111 -0.00102469 5.76045e-22)
(0.993203 0.00301828 -1.65772e-21)
(0.882195 -0.081599 -8.07939e-22)
(1.0512 -0.0352696 0)
(1.05077 -0.0360717 0)
(1.05193 -0.0361606 -2.75316e-23)
(1.04753 -0.0291597 -2.58281e-21)
(1.04865 -0.0297128 2.72427e-21)
(1.0035 0.000114364 -2.22774e-23)
(1.00351 0.000120681 0)
(1.0047 7.42612e-05 -1.02489e-22)
(1.06338 -0.0651728 -1.34865e-20)
(1.0637 -0.0644194 -3.94584e-21)
(0.627931 -0.0675141 -1.09743e-20)
(0.599983 -0.0669008 3.0625e-21)
(0.607581 -0.0679119 2.67454e-21)
(1.05265 -0.0285995 -1.14701e-21)
(1.04454 -0.034893 -1.56428e-21)
(1.00195 9.40023e-05 -8.75767e-23)
(1.00345 7.54887e-05 4.04078e-22)
(0.0239761 0.0258561 -9.40236e-21)
(0.0825179 0.03981 2.63834e-20)
(0.0463526 0.060504 -3.11855e-21)
(1.06541 -0.0552408 7.24829e-21)
(1.06646 -0.054972 -4.1965e-21)
(1.06555 -0.0541705 3.1801e-22)
(1.0145 -0.0142255 7.02695e-22)
(1.01468 -0.0147147 0)
(1.01426 -0.0143856 0)
(1.05886 -0.0159986 6.42866e-22)
(1.05989 -0.0164621 -1.33046e-21)
(1.00411 -2.01824e-05 -5.22744e-25)
(1.00518 -4.62285e-05 -2.45574e-23)
(1.00427 -3.0523e-05 1.84286e-23)
(1.03197 -0.0246705 -2.70456e-22)
(1.02908 -0.0302201 0)
(1.02633 -0.0245152 -3.94674e-22)
(1.06892 -0.0563668 -3.37974e-21)
(1.068 -0.0565665 4.00863e-22)
(1.06869 -0.0574523 -1.06746e-22)
(1.0097 -0.000598553 8.06023e-24)
(1.00969 -0.00056101 -2.68888e-23)
(1.00948 -0.000542792 -2.63318e-23)
(0.921472 -0.0825404 1.70038e-20)
(0.873445 -0.0809295 -2.00572e-21)
(1.05377 0.0203627 0)
(1.04496 0.0156936 3.69938e-22)
(1.00283 6.40656e-05 -9.93122e-25)
(1.0014 4.43441e-05 2.25247e-24)
(1.00279 5.8912e-05 0)
(1.01753 0.00172098 -5.31601e-23)
(1.01735 0.00179177 9.73988e-23)
(0.998142 0.00164935 -5.80946e-22)
(0.997263 -0.00141995 8.26671e-22)
(1.00037 7.19768e-05 -1.08611e-22)
(1.00041 1.72848e-05 -5.87786e-22)
(1.00393 7.66013e-05 7.40186e-24)
(1.00264 6.57624e-05 -1.89658e-22)
(0.884334 0.190723 -3.39741e-21)
(0.852115 0.184068 -7.55625e-22)
(0.660188 -0.068784 -2.93395e-21)
(0.654116 -0.0679193 -6.15291e-21)
(1.00925 -0.00030943 8.05497e-23)
(1.00932 -0.000324885 1.74811e-23)
(1.0093 -0.000340835 -9.72715e-24)
(1.00398 -0.000253755 -4.20333e-22)
(1.00384 -0.000245341 -1.78028e-22)
(1.00202 -0.000121121 -4.32087e-22)
(1.0087 -0.000674849 6.4364e-22)
(1.00738 -0.000575146 3.79825e-22)
(1.00699 -0.000464916 -3.91894e-22)
(-0.0222166 0.0165733 4.42439e-22)
(-0.013639 0.0321816 -1.89087e-20)
(1.05808 -0.0170613 -3.9518e-21)
(1.05754 -0.0157513 8.27243e-21)
(0.96008 -0.0725152 -1.65587e-21)
(0.921136 -0.0736289 -3.44041e-22)
(0.903127 0.1574 -1.14686e-20)
(0.824037 -0.0454613 -1.37865e-23)
(0.843928 -0.0580192 3.01242e-21)
(1.021 -0.00189593 -2.71144e-22)
(1.02055 -0.00146975 -9.96761e-24)
(1.02078 -0.0019602 6.31662e-23)
(0.826209 -0.0204933 5.29948e-21)
(0.811879 -0.0210946 -5.74221e-21)
(1.06207 -0.0546014 -6.75651e-21)
(1.06298 -0.0545634 -1.17635e-20)
(1.0625 -0.0556368 -1.59699e-21)
(1.01119 -0.0101375 -9.74797e-23)
(1.01107 -0.00989527 -2.05937e-22)
(1.06382 -0.0681402 5.28937e-21)
(1.06361 -0.0680351 4.4081e-21)
(1.06406 -0.0680509 -7.75772e-21)
(1.01226 -0.00764134 1.11747e-22)
(1.01255 -0.00784196 -5.71868e-22)
(1.00642 -0.000552693 -3.60018e-22)
(1.00651 -0.000625883 -1.17276e-22)
(1.00643 -0.000618059 3.97778e-23)
(0.31557 -0.0158417 -1.27039e-20)
(0.326724 -0.0197545 2.9567e-21)
(1.02073 -0.00562668 -2.58135e-21)
(1.02023 -0.00543058 1.93549e-22)
(0.874495 0.19008 1.55126e-20)
(1.00637 -0.000369457 1.27167e-22)
(1.0063 -0.000330487 3.60095e-23)
(1.00593 -0.000296944 4.09554e-22)
(1.00919 -0.000293373 -1.94753e-23)
(1.00922 -0.000275466 -8.48181e-23)
(1.01113 -0.0847919 -1.06169e-20)
(1.0174 -0.0849156 7.54994e-21)
(1.04806 -0.0862758 -7.68192e-21)
(0.0496916 0.139189 -8.64992e-21)
(0.024517 0.15274 2.48183e-21)
(0.0417286 0.145133 -5.38064e-21)
(0.182313 0.128999 -1.13066e-21)
(0.224821 0.122769 -1.56774e-22)
(0.181387 0.113659 -3.21046e-23)
(-0.00125335 -0.0064139 0)
(-0.023611 0.0114844 2.20152e-20)
(1.00964 -0.000962024 1.31845e-21)
(1.00793 -0.000494663 2.91063e-22)
(1.01028 0.00175327 0)
(1.01012 0.0012871 -1.02805e-22)
(1.00998 0.00200757 0)
(1.01506 -0.000641836 9.45332e-23)
(1.01486 -0.000575405 1.2286e-22)
(1.01532 -0.000606694 1.40321e-22)
(1.03146 -0.0239507 -2.6534e-21)
(1.03195 -0.0247784 -2.22046e-21)
(1.03217 -0.023837 8.05939e-22)
(0.912334 -0.117272 1.08951e-21)
(0.930482 -0.108336 -1.09774e-21)
(1.02194 0.00181004 -1.22132e-21)
(1.02295 0.00113677 7.90623e-23)
(1.02133 0.000668814 1.56793e-22)
(1.06456 -0.0683019 1.15152e-21)
(1.06366 -0.0684313 1.35634e-21)
(1.03051 -0.00345381 -2.05391e-21)
(1.03055 -0.00400963 -3.54857e-21)
(0.905545 -0.0925264 -2.42116e-22)
(0.895533 -0.0896398 -1.18231e-21)
(1.08807 -0.0597761 0)
(1.08752 -0.0609463 0)
(1.00761 -0.000678762 -2.39637e-22)
(1.0079 -0.000677555 1.14902e-21)
(1.00883 -0.000778699 -2.51699e-22)
(0.15474 0.194626 5.08259e-21)
(0.236946 0.198578 -9.70217e-21)
(1.00548 0.000147077 5.71724e-23)
(1.00647 0.000176924 -1.68559e-22)
(1.04027 -0.0209005 -5.15069e-21)
(1.04107 -0.0211051 -4.07358e-21)
(1.0406 -0.0201495 4.64642e-22)
(1.03071 -0.0241816 -1.19499e-21)
(1.03082 -0.0232334 -2.3758e-21)
(1.00841 -0.00275899 0)
(1.00831 -0.0025881 0)
(1.00839 -0.00260611 0)
(1.02251 -0.0218907 6.56004e-22)
(1.02262 -0.0213788 -1.89611e-21)
(1.02308 -0.0219352 -2.13586e-22)
(1.06815 -0.070296 -1.88158e-20)
(1.06749 -0.0693642 -1.99674e-20)
(1.07126 -0.0606462 -7.81261e-21)
(1.07086 -0.0616552 7.29898e-21)
(1.01294 -0.00145354 2.43107e-23)
(1.01255 -0.00138072 -1.48966e-22)
(1.01271 -0.00144273 9.63869e-24)
(1.05921 -0.0322609 1.00058e-21)
(1.05893 -0.033092 0)
(1.06003 -0.0329747 -1.64646e-22)
(-0.00714743 -0.129061 -1.47191e-20)
(-0.0180249 -0.127671 0)
(1.00633 -0.000489057 -1.2528e-22)
(1.00643 -0.000488252 -1.25632e-22)
(1.02107 -0.0286868 -1.1741e-22)
(1.02167 -0.0291446 1.00486e-21)
(1.02149 -0.0283325 3.37908e-21)
(1.01303 -0.000628993 1.02664e-23)
(1.0133 -0.000614845 3.28119e-23)
(1.01292 -0.000577946 1.88913e-22)
(1.02084 0.00236269 2.80611e-23)
(1.02296 0.00349621 -1.31454e-22)
(1.06503 -0.0435619 -8.54349e-21)
(1.06511 -0.0422296 0)
(1.01129 -0.0102669 -2.35777e-22)
(1.0112 -0.00985803 -1.98501e-22)
(0.476622 -0.0687317 -8.44095e-22)
(0.441575 -0.0725648 1.36665e-22)
(0.48182 -0.072124 -7.39053e-22)
(0.409123 -0.0109086 -1.56795e-20)
(0.430125 -0.0160243 -2.11434e-20)
(1.00721 0.000641436 0)
(1.00724 0.000668065 3.55313e-23)
(1.00737 0.000703903 1.40021e-23)
(1.00851 -0.00294092 -3.46698e-22)
(1.00845 -0.00290372 0)
(0.151947 0.133815 8.3666e-22)
(0.19251 0.140866 4.44503e-22)
(1.00623 -0.00042984 2.53317e-22)
(1.00623 -0.000480825 1.21106e-22)
(0.835687 -0.112785 0)
(0.848372 -0.0968717 1.52239e-22)
(1.06083 -0.054893 1.84966e-20)
(1.06125 -0.0536948 1.6779e-20)
(1.01115 -0.000155535 4.60457e-22)
(1.0114 -0.000328512 1.44833e-22)
(1.01138 -0.000535786 4.01908e-22)
(1.04349 -0.0685698 1.50874e-20)
(1.06485 -0.070081 -3.29089e-21)
(1.01017 -0.00069399 -5.43524e-23)
(1.01018 -0.000729102 3.94869e-23)
(1.01045 -0.000757505 1.9131e-23)
(1.03971 -0.0335595 0)
(1.03891 -0.0328209 0)
(1.03866 -0.0338046 0)
(0.968213 -0.0840979 -7.41522e-21)
(1.02072 -0.0050385 -9.55272e-22)
(1.02051 -0.00471583 -1.96579e-21)
(1.02028 -0.00490661 0)
(1.05325 -0.0732484 1.35165e-20)
(1.05373 -0.0717207 1.7766e-20)
(1.00823 -0.000286728 -2.8179e-24)
(1.00785 -0.000236351 6.51282e-23)
(1.00803 -0.000273016 -5.79056e-25)
(1.00457 -1.09236e-05 -3.23145e-22)
(1.00503 3.20396e-05 -8.87117e-23)
(1.00585 0.000117226 1.58006e-22)
(1.00859 -0.0106765 0)
(1.00913 -0.011125 -1.18551e-22)
(1.00971 -0.000992174 -6.20186e-22)
(1.0097 -0.000952383 1.36432e-21)
(1.06217 -0.0661477 -5.81654e-21)
(1.06164 -0.0664815 -2.21635e-23)
(1.06225 -0.0668547 -1.29719e-22)
(0.984635 -0.0516219 2.07502e-22)
(0.980175 -0.0549392 0)
(0.986706 -0.0567636 0)
(0.889452 -0.11102 2.42732e-21)
(-0.0205777 -0.127358 -2.98164e-20)
(-0.0276271 -0.120794 5.08355e-21)
(1.01791 0.00165531 -1.48336e-22)
(1.01821 0.00159424 -3.91833e-22)
(1.01825 0.00153818 1.67364e-22)
(1.05872 -0.0447352 0)
(1.0597 -0.0442356 0)
(1.05872 -0.0435188 1.30575e-20)
(0.534566 0.0138244 0)
(0.579588 0.00219901 -2.70234e-21)
(1.03846 -0.0203194 0)
(1.0393 -0.0206757 -1.40068e-22)
(1.03884 -0.0197717 0)
(1.01044 0.00209252 -3.456e-22)
(1.01048 0.00156846 -1.54173e-22)
(0.899653 0.0725929 -9.36615e-22)
(0.915043 0.0422467 2.06601e-21)
(0.91586 0.081077 -3.92447e-21)
(1.01089 9.78296e-05 -5.08326e-22)
(1.01094 0.000216204 -1.62746e-22)
(1.00957 0.00114538 2.85686e-23)
(1.00979 0.00127393 -6.18895e-24)
(1.02169 -0.00238446 2.78122e-23)
(1.02125 -0.00170371 6.44782e-23)
(0.107982 -0.0573242 9.61598e-21)
(0.180574 -0.0552024 6.64399e-21)
(0.190514 -0.0640668 -5.53438e-21)
(1.00113 -0.000106013 3.38333e-23)
(1.00285 -0.000153883 1.49615e-21)
(1.00078 -0.000120163 5.75152e-22)
(1.01632 -0.00665553 -1.15257e-21)
(1.01599 -0.00634863 -1.34973e-21)
(1.01602 -0.00671099 -1.24321e-21)
(1.00055 -0.0632533 0)
(1.00151 -0.0598498 -2.14652e-23)
(1.00436 -0.0623111 4.75098e-22)
(1.02119 -0.00514769 6.53772e-21)
(1.02095 -0.00537968 -2.67942e-21)
(0.501791 -0.0415504 -5.16869e-21)
(0.408799 -0.0264567 -2.64435e-22)
(0.456431 -0.0434876 3.13123e-20)
(1.04191 -0.0310348 2.04157e-21)
(1.04155 -0.0300098 -6.35753e-21)
(1.04283 -0.0303432 6.39779e-22)
(0.459582 -0.0320794 5.22633e-21)
(0.439234 -0.0280501 7.63581e-21)
(0.456997 -0.0324264 0)
(1.01103 -0.00103509 -1.59697e-23)
(1.01131 -0.00109554 -1.63361e-24)
(1.01131 -0.00105556 6.04108e-24)
(0.729809 -0.0672989 -1.07127e-20)
(0.688742 -0.0647844 7.15008e-21)
(0.700878 -0.0647173 5.03182e-21)
(1.01472 -0.0139728 -3.57892e-23)
(1.01432 -0.0136852 3.92344e-22)
(0.868029 0.0767481 -1.29975e-21)
(0.873606 0.0513197 2.93751e-21)
(0.865097 0.0378728 -1.05544e-21)
(1.00973 -0.000720031 -1.87232e-23)
(1.00971 -0.000682634 1.97902e-23)
(1.00948 -0.000665097 -3.79285e-24)
(1.01441 -0.000682487 -2.4468e-22)
(1.01456 -0.000762252 1.82802e-23)
(1.0141 -0.0007011 -7.0162e-23)
(0.964964 -0.0229129 -8.48878e-22)
(0.960617 -0.0347663 -5.44335e-23)
(0.973869 -0.034427 1.32763e-22)
(1.01791 -0.0466254 2.27163e-21)
(1.01385 -0.0445376 -6.08874e-22)
(1.01711 -0.0421153 -7.15158e-23)
(-0.0573495 -0.0709436 -1.08314e-20)
(-0.0524291 -0.0679113 1.00155e-22)
(1.01933 -0.00196138 -1.76189e-21)
(1.01921 -0.00173032 -1.50546e-21)
(1.01904 -0.00186748 3.37985e-21)
(0.463841 -0.0321582 -7.09431e-22)
(0.481931 -0.0361318 -1.55521e-21)
(1.04124 -0.0315516 8.24708e-21)
(1.04224 -0.031777 9.12999e-21)
(1.0356 -0.0124465 -5.3735e-21)
(1.03588 -0.0118017 2.8345e-21)
(0.756036 -0.0682019 8.27047e-21)
(0.727862 -0.0673426 -3.04305e-21)
(0.726892 -0.0668597 8.64236e-21)
(1.06535 -0.0680148 4.4949e-21)
(1.06492 -0.0681503 -7.99897e-21)
(1.06533 -0.0685871 -7.20041e-21)
(0.623128 -0.0598061 1.76643e-20)
(0.592841 -0.0566935 -7.7622e-21)
(0.592074 -0.0577116 8.51247e-21)
(1.0043 2.62647e-05 -6.5548e-23)
(1.00434 1.00655e-05 5.72664e-23)
(1.00274 2.82647e-05 2.3218e-22)
(1.05226 -0.0389887 1.40274e-20)
(1.0532 -0.0399502 -4.31882e-21)
(1.05187 -0.0401796 1.0002e-20)
(1.00394 -1.56132e-05 -1.01935e-22)
(1.00288 -2.85042e-05 6.31619e-24)
(-0.0568613 -0.104394 9.22977e-21)
(-0.0580726 -0.097823 3.00894e-20)
(-0.0510522 -0.102679 8.27879e-21)
(1.00977 -0.000759631 1.07005e-23)
(1.01001 -0.000781644 -1.32601e-23)
(1.04112 -0.0584113 3.19351e-21)
(1.04167 -0.0567902 3.50723e-21)
(1.08101 -0.0419182 6.82429e-22)
(1.07928 -0.0303091 9.11694e-22)
(1.07829 -0.0320248 3.23856e-21)
(1.00708 0.000589702 0)
(1.00719 0.000619924 5.33571e-23)
(1.01764 0.00172742 -8.50616e-23)
(1.07474 -0.0591143 2.83719e-21)
(1.07369 -0.0594339 -1.13977e-20)
(1.07388 -0.0583049 -8.13504e-21)
(1.02429 -0.0273893 7.0742e-23)
(1.02285 -0.0273605 4.60883e-25)
(1.02345 -0.0285499 3.69344e-22)
(0.57447 -0.0484812 -1.55121e-20)
(0.537569 -0.0347624 -1.29003e-20)
(0.983344 0.051794 -3.62524e-21)
(0.993095 0.0476559 -7.96484e-21)
(1.01473 -0.000667617 -1.10744e-22)
(1.01522 -0.000712111 -2.20665e-23)
(1.01656 -0.0066225 2.1153e-21)
(1.01658 -0.00694721 -3.43536e-23)
(1.05664 -0.0177776 1.7408e-21)
(1.06553 -0.0229922 4.10208e-21)
(0.977998 -0.0840457 -1.07635e-22)
(0.993049 -0.0885079 0)
(0.988938 -0.0720995 2.87513e-24)
(1.01603 -0.00190142 -1.95785e-22)
(1.01559 -0.00185723 -1.10477e-23)
(1.01602 -0.00185903 -4.15503e-23)
(1.00002 -0.0668852 3.40996e-22)
(0.996816 -0.0642136 -1.92623e-22)
(1.00612 -8.54111e-05 4.41761e-23)
(1.00599 -7.42104e-05 -4.26581e-23)
(0.559767 -0.051696 7.45889e-22)
(0.534518 -0.0482071 -2.72301e-23)
(0.554363 -0.0511447 4.38911e-21)
(1.06451 -0.0556259 9.85831e-21)
(1.06535 -0.0564101 1.05601e-20)
(0.877318 0.129428 -3.58316e-21)
(0.881496 0.146423 2.99114e-21)
(0.880868 0.136351 -3.70282e-21)
(1.0301 -0.024328 9.06973e-22)
(1.02937 -0.0244039 2.06625e-21)
(1.02954 -0.0235586 4.3318e-21)
(1.03173 -0.0324514 1.40557e-21)
(1.03197 -0.0313882 -7.24161e-22)
(1.03092 -0.0317067 -4.09277e-21)
(1.02042 0.00479572 -2.16233e-22)
(1.01996 0.00718725 0)
(1.01846 0.00493046 0)
(0.964039 -0.0768341 3.27278e-22)
(0.96889 -0.0975562 -4.54984e-22)
(1.02836 -0.0152913 2.76942e-21)
(1.02863 -0.0158294 -3.53782e-21)
(1.02794 -0.0155549 -1.40737e-21)
(1.03065 -0.0250033 -2.58593e-21)
(1.074 -0.0529964 -7.15777e-21)
(1.07486 -0.0537424 0)
(1.07345 -0.0539794 -8.91574e-21)
(0.928777 -0.0356175 1.50994e-21)
(0.927048 -0.0481211 5.75898e-21)
(0.938396 -0.0441067 2.13306e-21)
(0.9834 -0.0457519 2.05157e-22)
(0.988627 -0.0482968 1.47304e-22)
(0.980923 -0.0837135 7.20651e-21)
(1.02039 -0.0844271 7.0488e-21)
(0.455195 -0.0265674 2.25835e-20)
(0.371571 -0.0105621 1.28702e-20)
(0.346867 -0.0171913 1.54203e-20)
(1.02267 -0.00218505 3.53972e-21)
(1.02229 -0.00194343 -2.19989e-21)
(1.02226 -0.00223167 3.1618e-21)
(1.01425 -0.000615513 1.57858e-22)
(1.01471 -0.0247681 2.08351e-23)
(1.01393 -0.0247058 -1.11258e-22)
(1.01426 -0.0238166 -1.26131e-22)
(0.851396 0.12063 -1.04273e-21)
(0.872144 0.11215 2.18566e-21)
(0.825923 0.140542 5.44422e-22)
(1.01763 -0.000175761 2.49155e-23)
(1.01725 -0.000151906 -1.11646e-22)
(1.0177 -0.000257173 -3.69157e-23)
(1.0149 -0.0654478 1.4545e-21)
(1.02077 -0.0640686 -3.68228e-21)
(0.976087 -0.063982 4.54311e-21)
(1.03822 -0.0210401 -5.19989e-21)
(1.03773 -0.0201379 -2.56874e-21)
(1.02875 -0.0150185 1.14909e-20)
(1.02806 -0.0147329 4.72428e-21)
(1.05179 -0.0345147 0)
(1.05064 -0.0345602 0)
(0.7866 -0.0705337 -4.68956e-22)
(0.784638 -0.0697173 7.25683e-21)
(1.00769 0.00295153 -2.63967e-21)
(1.01072 0.00259309 2.80168e-22)
(1.00859 -0.000433473 3.43618e-22)
(1.02213 0.00390973 -2.5695e-21)
(1.01987 0.00269212 -1.81719e-22)
(1.03982 -0.0216566 -4.40151e-21)
(0.999691 0.0540072 -5.65052e-22)
(1.01865 0.0461064 -1.17822e-20)
(0.97233 0.0756904 -2.8404e-22)
(1.05824 -0.0534242 -9.97601e-22)
(1.0594 -0.0530767 0)
(1.02497 -0.0405843 -8.65654e-22)
(1.02609 -0.0398825 1.14154e-21)
(1.0066 -0.000701374 -1.73667e-22)
(1.00659 -0.000618468 1.86841e-24)
(0.925112 0.0816167 3.13992e-23)
(0.916454 0.0916268 5.68896e-23)
(1.01116 0.00622871 1.60455e-22)
(1.00729 0.00508177 1.28994e-21)
(1.01103 0.002691 1.61675e-22)
(0.629498 -0.0646295 1.62566e-20)
(0.596934 -0.0607385 0)
(0.594646 -0.0623908 1.49222e-21)
(0.949825 -0.0612264 -6.19879e-22)
(0.935326 -0.0599259 -2.33802e-20)
(1.01642 -0.00191326 -3.62369e-23)
(1.016 -0.00193985 -2.22439e-23)
(1.0105 -0.000984057 -1.21327e-23)
(1.01077 -0.00100484 7.0501e-24)
(1.01075 -0.00103965 -6.55639e-24)
(1.00436 -5.59765e-05 8.77143e-25)
(1.00455 -4.7393e-05 -1.92345e-23)
(1.00542 -3.84132e-05 -6.11924e-23)
(1.07457 -0.0521395 1.66435e-21)
(1.07334 -0.0523365 -4.98112e-21)
(0.825503 0.136983 -7.17817e-22)
(0.872301 0.0948646 1.4965e-21)
(0.843394 -0.127263 -8.9085e-22)
(0.861321 -0.125646 -8.89432e-22)
(0.85365 -0.141355 -1.02661e-21)
(1.00868 0.000791314 6.38063e-24)
(1.00891 0.000895577 -6.14625e-23)
(1.00881 0.00079219 9.78065e-23)
(1.02033 -0.000507822 0)
(1.02032 -0.000669532 -1.64146e-21)
(1.02054 -0.000582478 0)
(0.978049 0.0577228 -3.19609e-21)
(1.02428 0.02776 -8.45185e-22)
(0.958209 0.074116 1.05444e-22)
(0.949546 0.0590249 0)
(0.965293 0.0541206 0)
(1.06519 -0.0682389 -3.86948e-21)
(1.06513 -0.0680075 1.41645e-21)
(1.02124 -0.0222839 -1.95163e-21)
(1.02169 -0.0227655 -3.83595e-21)
(1.03262 -0.00754202 -5.41635e-21)
(1.0319 -0.00758747 -2.06917e-21)
(1.06262 -0.045464 7.90381e-21)
(1.06156 -0.0458377 -7.76285e-21)
(1.06254 -0.0467681 0)
(0.950109 0.0840222 9.01083e-23)
(0.963199 0.0759122 -3.94752e-21)
(1.04192 -0.0683247 -2.77402e-22)
(1.0056 -0.0673682 5.95772e-21)
(1.0227 -0.0294581 0)
(1.02289 -0.0291185 -2.40612e-22)
(1.02324 -0.0296624 -2.54599e-21)
(0.570884 -0.166823 0)
(0.633782 -0.162057 6.82251e-22)
(1.00676 -0.000755454 -3.33787e-25)
(1.00676 -0.000836239 7.24741e-23)
(1.00667 -0.000759083 -1.52389e-22)
(0.566377 -0.0519162 0)
(0.588076 -0.054811 4.77469e-21)
(1.05855 -0.0316456 3.77692e-23)
(1.05963 -0.0314526 -1.18802e-22)
(1.03778 -0.0295432 4.02251e-21)
(1.03759 -0.0304025 1.94877e-22)
(0.64482 -0.0663556 -3.96842e-21)
(0.605587 -0.0639588 1.66081e-23)
(0.617506 -0.0638098 -5.51074e-21)
(1.01729 -0.0126046 7.51145e-22)
(1.01698 -0.0126695 -4.32328e-22)
(1.01741 -0.0129793 0)
(1.03304 -0.0192905 1.02752e-21)
(1.03949 -0.0242101 -2.62091e-22)
(0.639995 -0.0553158 1.27188e-20)
(0.640185 -0.0540555 1.86248e-21)
(0.667443 -0.0576639 -2.27402e-22)
(1.00857 0.000793414 3.58692e-23)
(1.00847 0.000687349 -6.46319e-25)
(1.07046 -0.0485004 2.04155e-20)
(1.07145 -0.0492523 -8.96375e-21)
(1.07015 -0.0497253 1.06513e-20)
(1.04948 -0.0363085 0)
(1.05047 -0.0372869 0)
(1.02136 -0.0217642 2.40196e-23)
(1.0208 -0.0217215 -2.01183e-21)
(0.0901287 0.12015 -5.85931e-22)
(0.0667113 0.128039 1.57345e-21)
(1.02218 -0.0294282 0)
(1.02256 -0.0300552 -1.04814e-21)
(1.02625 -0.0150999 -2.21635e-21)
(1.0267 -0.0150679 -2.29267e-21)
(1.02669 -0.0156296 -1.82463e-21)
(0.713915 -0.069975 2.67849e-21)
(0.707648 -0.0681313 -2.43192e-21)
(0.682855 -0.0672955 1.09518e-20)
(1.01145 -0.000606108 -1.87877e-22)
(1.01167 -0.000616858 -3.07288e-24)
(1.01136 -0.000564502 -5.57703e-23)
(1.03172 -0.0332527 6.06531e-21)
(1.0326 -0.0328799 3.04598e-21)
(1.02243 -0.00289813 1.2065e-22)
(1.02351 -0.00337465 -2.14892e-23)
(1.02272 -0.00235371 3.59964e-23)
(0.668015 -0.0685577 4.9174e-21)
(0.670178 -0.0682706 1.73983e-20)
(1.0851 -0.0707271 7.21263e-21)
(1.08552 -0.0716386 -1.91808e-20)
(1.08614 -0.0705806 0)
(1.0196 -0.0020391 -3.60628e-21)
(1.01944 -0.00219161 1.61121e-22)
(1.06961 -0.0544562 1.18401e-20)
(1.06918 -0.0554689 -5.82309e-22)
(1.06854 -0.054429 -2.39876e-21)
(1.02006 -0.00141043 -1.79275e-21)
(1.02004 -0.00158235 -5.82687e-21)
(1.02032 -0.00149707 -1.42578e-21)
(0.479104 -0.0406002 -1.91004e-21)
(0.479108 -0.0304011 -1.17351e-20)
(1.02045 0.00918117 -5.23637e-22)
(1.0236 0.0105506 -3.29867e-21)
(1.02078 0.0128591 -5.14025e-22)
(1.0049 -2.25633e-05 2.04437e-22)
(1.00536 5.46253e-06 6.8091e-23)
(1.0062 7.66297e-05 1.22908e-22)
(1.00892 -0.0028424 2.92902e-23)
(1.00895 -0.00299804 1.50504e-22)
(1.0089 -0.00299262 -6.12929e-23)
(1.08392 -0.0706641 6.97214e-22)
(1.08451 -0.069559 1.68036e-20)
(1.05144 -0.0380726 -2.30082e-21)
(1.05264 -0.0379582 -2.41223e-21)
(1.04196 -0.0193995 -5.4609e-21)
(1.04192 -0.0201617 8.27777e-21)
(1.04121 -0.0196167 5.42796e-21)
(1.02017 -0.00044992 3.52985e-21)
(1.0176 -0.0125457 3.43023e-21)
(1.01718 -0.0122769 7.43678e-22)
(1.02571 -0.0152515 0)
(1.02569 -0.0146386 0)
(0.920097 -0.0910847 2.05105e-22)
(0.929966 -0.102056 1.97354e-21)
(0.337006 0.183995 -4.29636e-20)
(0.335364 0.168158 1.18161e-20)
(0.470343 -0.0580965 9.02718e-22)
(0.50424 -0.0532939 7.22965e-21)
(0.469012 -0.051103 7.27776e-21)
(1.00992 -0.0267546 -4.04026e-22)
(1.01047 -0.0281973 -2.15598e-22)
(1.00894 -0.0279838 4.97503e-23)
(0.688079 -0.0689353 -4.01888e-21)
(0.677229 -0.0686651 -5.11757e-21)
(0.857143 -0.044559 9.35218e-21)
(0.820322 -0.0376589 -7.65714e-22)
(0.822371 -0.0392577 -2.07605e-22)
(1.01901 -0.000941164 -1.78975e-21)
(1.05864 -0.0459146 7.87688e-21)
(1.05772 -0.0451474 9.27368e-22)
(1.06551 -0.068691 -5.87009e-21)
(1.06485 -0.0681686 0)
(0.990584 -0.00502382 0)
(0.990221 -0.00868795 -8.17717e-22)
(0.993442 -0.0068449 -8.26198e-22)
(1.03284 -0.0285053 3.35424e-23)
(1.0306 -0.030604 2.10536e-22)
(1.03036 -0.0275373 -3.80466e-22)
(1.0705 -0.0691729 7.97157e-21)
(1.0703 -0.068435 -1.29089e-20)
(1.07106 -0.06858 -7.32277e-23)
(1.06416 -0.0666392 -6.43059e-21)
(1.00683 0.0032455 1.44042e-22)
(1.00807 0.00325465 6.63384e-23)
(1.00747 0.00206822 3.66679e-22)
(0.785238 0.147816 1.8314e-21)
(0.792149 0.149892 8.09306e-22)
(0.782159 0.165942 2.68851e-21)
(0.635963 -0.0558955 -4.73036e-21)
(0.606834 -0.0527143 4.72108e-21)
(0.613031 -0.0530646 -1.18187e-21)
(1.01902 -0.000596886 2.95006e-21)
(1.01933 -0.000684459 0)
(1.04962 -0.00594948 -4.71325e-21)
(1.04678 -0.00269776 -7.82615e-23)
(1.05011 0.00124177 -4.47185e-22)
(1.04864 -0.0123828 1.73953e-22)
(1.04573 -0.0115448 3.41336e-21)
(1.06422 -0.106709 -1.88918e-21)
(1.0707 -0.103335 -2.15466e-21)
(1.0642 -0.10231 -4.63179e-21)
(1.04206 -0.0187335 -2.52586e-21)
(1.0428 -0.0193319 -1.43385e-21)
(1.03589 -0.0265387 3.71452e-22)
(1.03612 -0.0304149 6.89758e-22)
(-0.0539361 -0.11095 1.14254e-21)
(-0.0618313 -0.106283 -9.63345e-21)