/*--------------------------------*- C++ -*----------------------------------*\
| =========                 |                                                 |
| \\      /  F ield         | OpenFOAM: The Open Source CFD Toolbox           |
|  \\    /   O peration     | Version:  v2012                                 |
|   \\  /    A nd           | Website:  www.openfoam.com                      |
|    \\/     M anipulation  |                                                 |
\*---------------------------------------------------------------------------*/
FoamFile
{
    version     2.0;
    format      ascii;
    class       volScalarField;
    location    "150";
    object      ddt0(omega);
}
// * * * * * * * * * * * * * * * * * * * * * * * * * * * * * * * * * * * * * //

dimensions      [0 0 -2 0 0 0 0];


internalField   nonuniform List<scalar> 
13851
(
-0.000507611
2.09066e-05
2.19996e-05
0.0248868
4.6811e-06
3.02295e-05
1.53913e-05
8.53452e-06
0.0648549
-1.35305e-06
0.000186222
2.14355e-06
6.70132e-06
0.0196837
0.000166147
-0.000551833
0.0459756
4.52759e-06
0.00734398
-0.00171386
5.04391e-05
5.33289e-06
-0.137647
8.68561e-07
-0.04607
0.00115225
0.000405912
0.0924215
0.144732
3.48108e-06
0.0321308
1.65061e-05
0.00129423
-0.092607
1.54486e-05
0.153657
3.76323e-07
-0.0432706
0.0498907
2.06072e-06
-0.152978
0.162978
0.146341
-0.00222098
0.153367
3.24172e-06
8.75365e-06
-0.000497085
5.98002e-06
5.74279e-06
-0.139603
5.49338e-06
-0.000412944
0.000106638
-0.0562607
2.81957e-06
0.00183708
-0.129569
0.0258128
0.100848
2.34302e-06
-0.0109809
4.3463e-07
6.76807e-06
0.0128841
0.00903834
0.184256
0.010678
-4.64533e-06
0.006663
0.0148601
-0.000128929
8.05587e-06
0.108479
0.00016502
-1.38485e-05
0.0253464
5.55294e-06
-0.126711
4.26156e-06
-4.75449e-06
0.000747907
5.55978e-05
0.16393
0.0884693
0.0257418
6.53363e-06
-0.0533284
-7.22522e-07
0.0314933
4.71818e-06
2.00701e-05
-0.0216663
0.0189499
-0.0250572
-0.0107922
5.5261e-06
-0.000547299
-0.011318
0.00202296
-0.000716023
-0.0018981
0.00137153
8.85793e-06
1.68764e-06
-0.000238314
1.93425e-06
0.0184386
2.04442e-05
4.22339e-06
6.38406e-05
2.81638e-06
0.00190939
-0.000342246
0.00245093
8.53064e-05
5.18914e-06
8.4974e-06
0.042001
-0.00866126
-0.00706291
3.07033e-06
-3.88222e-06
0.018875
-0.0158864
0.00781871
5.58003e-06
-0.000345685
-0.0689591
0.00014856
3.28182e-06
3.25882e-05
0.186621
-0.0745684
0.000214787
-0.0143167
0.00425157
0.0223309
0.00268723
0.000239353
0.00337389
3.31989e-06
-6.66839e-07
0.0126509
-0.00200928
-1.78987e-05
5.58847e-06
0.0182085
0.0580774
-0.000368334
-0.000642065
0.00141746
-0.000286894
-0.0154586
7.01833e-06
1.02226e-06
2.50299e-06
0.026251
0.000196533
2.11486e-05
1.209e-06
0.149424
-0.000246244
-0.000500529
-0.0293239
0.0806295
0.0762217
-0.10792
2.26119e-05
-0.0237537
2.47061e-06
5.6695e-06
-0.000780462
3.75041e-06
-0.0188638
0.0426595
-0.000560965
5.45693e-06
0.000158626
-0.00140074
-0.0112022
0.000746431
-3.88431e-06
0.000205273
0.163705
0.0631221
0.00100771
-3.07156e-05
7.61608e-06
2.61286e-06
-0.354902
0.000188581
0.206349
3.1053e-05
-1.67796e-05
-0.00080422
0.000910149
7.68103e-06
6.07245e-06
0.00270442
-0.0052385
-0.0706486
-0.137813
0.000172002
1.02037
-0.058179
4.51647e-07
0.00037357
0.0591131
2.85172e-05
-0.00013458
-2.22075e-06
-0.000418886
5.13097e-07
8.10872e-07
-1.27923e-05
5.49396e-06
-0.00418827
7.48107e-06
0.0115256
5.40732e-06
-0.00395592
0.374909
-0.0145613
-3.25039e-06
0.000409301
5.9049e-07
0.00408866
5.89394e-07
-8.3902e-07
-0.320636
-8.67957e-05
2.85053e-05
3.09667e-07
-0.12019
3.48866e-06
0.672105
-0.129104
-0.00188505
7.04337e-07
1.42376
0.0562115
0.154643
0.000521047
3.6389e-05
0.00645645
-0.00374897
0.00015358
-0.00622561
4.29327e-05
-0.0397438
-0.0057585
8.45187e-06
3.66847e-05
-0.00106201
0.136459
-0.053743
3.42282e-06
0.0145757
-1.05566e-06
0.00415508
-0.018793
4.18985e-05
-0.000215488
-0.00499032
6.6959e-06
0.00778165
-8.67281e-05
0.534557
1.00792e-06
4.44964e-06
-2.69946e-05
0.0419446
0.0792079
2.42452e-05
3.4442e-06
-0.0100092
-0.018615
0.00164995
-0.000193664
0.0445369
0.0267132
3.29303e-05
0.000138804
0.0327135
1.37949e-06
2.5137e-06
0.00103428
-1.56207e-05
3.38319e-06
1.09128e-06
8.82947e-07
6.22649e-06
6.68161e-05
2.42617e-06
0.0646085
1.41486e-05
2.77195e-06
0.134547
0.0284108
9.00277e-06
-0.00491426
-0.101054
9.04906e-07
5.20288e-06
-3.0467e-05
0.16081
0.0900118
-0.000930982
4.95676e-06
-0.0232972
2.31049e-06
-0.00128424
-0.0579959
0.607269
1.97015e-05
0.204152
-0.222054
0.0226606
-0.00105412
0.00736583
0.00332456
-0.0065883
0.223771
6.87138e-06
0.0161989
0.417496
-0.288305
0.0178727
7.91258e-08
-0.00104188
-1.61486e-05
-0.0632336
-0.0152824
7.539e-06
9.22207e-06
3.14784e-05
0.0175668
0.0208171
1.5986e-06
-0.0247923
2.37591e-05
3.61988e-05
2.19054e-05
0.328041
-0.00824065
-0.0010403
-1.55352e-05
2.68483e-05
0.138806
8.16587e-06
-0.0163399
3.58786e-05
-3.18335e-05
-0.000279299
-7.91614e-07
2.44497e-06
0.0011343
0.00406535
-0.00662797
-0.691445
0.153873
-1.84973e-05
-0.113171
0.00939719
4.7557e-06
0.581255
-0.00139978
-0.000816424
3.11442e-05
0.00136161
-0.0119175
-0.242145
0.00412434
-0.0210306
8.4413e-06
0.0907857
0.149879
2.60138e-05
-0.0145776
3.42375e-06
-0.151512
0.000127164
0.00025532
-0.0064782
0.00480834
1.17102e-06
3.17153e-05
9.39733e-05
0.000161873
4.07915e-06
7.49411e-05
-0.0821117
7.93673e-06
0.000374007
0.0651613
2.17838e-05
0.334167
0.000428044
0.0829608
2.91865e-05
0.00100218
0.0948274
-0.0148662
-0.000238358
-0.0664901
0.114241
0.028775
7.1812e-06
-0.0021767
-4.88684e-06
0.00119319
2.42394e-06
0.160283
-0.133608
0.0587675
2.63341e-05
-0.00545291
0.00169443
0.0741714
6.62021e-06
0.0323541
0.00239021
0.29245
6.29159e-05
0.0422953
3.23454e-06
3.85532e-06
-0.0756524
0.0119799
-1.31706e-06
2.22168e-05
0.000359121
5.84299e-06
-0.109976
-0.00105898
-0.0012077
4.62096e-05
8.84106e-06
2.68213e-06
-0.453852
3.61921e-06
2.21694e-06
-0.123615
-0.0744577
-2.37769e-06
-0.0139256
9.93087e-08
2.68238e-06
2.29731e-05
-0.00525603
0.000393793
3.65274e-06
1.36003e-05
-0.00141695
1.72805e-05
0.111284
2.34482e-06
6.89682e-05
0.147948
0.00013126
9.45348e-06
2.54276e-06
4.51655e-05
8.70569e-06
-0.0851856
-0.0476286
3.27541e-05
0.047997
2.34097e-05
1.02494e-06
-0.0132912
0.0120605
0.000320981
9.07596e-06
0.00594628
0.000842063
1.05769
8.84224e-06
2.3408e-05
0.00262978
0.000198763
-0.0259399
0.0041244
0.0809729
-1.68418e-05
-0.00145416
7.57905e-06
0.127745
0.00042761
0.00102286
6.61734e-07
-1.44953e-05
0.00110554
-0.000681287
4.42026e-06
0.0544331
-0.00463024
0.109151
-0.0284947
-0.0846106
-0.0630436
-0.0179225
-2.03308e-05
9.76227e-07
0.333744
-1.57339e-06
4.64082e-06
-1.3375e-05
-0.0295785
2.25961e-05
4.36099e-06
-0.004785
-0.000221333
-6.41875e-07
0.0779062
5.95571e-06
-0.0694631
-0.126752
4.58732e-06
1.92762e-05
-0.00985348
0.519336
3.27714e-06
0.124756
0.617944
6.75654e-06
0.0245356
0.000667044
-0.00326958
-1.53846e-05
-0.117696
0.054291
6.36978e-06
0.00621188
-4.49264e-06
5.79571e-06
-0.232107
-0.154278
-8.94686e-05
0.000402442
-1.09616e-06
0.000767767
-0.0795165
0.012508
6.81959e-06
-0.0102043
4.35521e-06
-4.52154e-06
-0.000263848
5.88963e-05
6.57644e-06
-1.49695e-05
0.0310735
0.00185979
0.0170358
2.05796e-05
-8.64705e-07
0.0454147
1.72657e-06
-0.00334145
7.07651e-05
0.000169724
2.4183e-05
0.121571
0.0282649
3.18796e-05
0.035877
1.86173e-05
-0.000768796
0.164993
0.00646284
-1.5317e-06
7.23932e-06
0.00279723
0.0200438
-0.0104921
0.000777983
-5.22953
5.77259e-05
0.000122258
-0.458253
0.0641184
0.00292868
-0.0501185
0.00531353
0.176395
4.73454e-06
0.0233713
-0.456459
1.48674e-06
-0.24794
0.140379
4.97346e-06
0.000222468
5.33154e-06
0.0115076
-0.000485827
-0.0753512
3.95964e-06
2.83989e-06
-1.7399e-05
-0.000178589
2.73048e-06
-0.0326519
2.93256e-06
0.00433806
-1.37035e-05
0.00128697
9.3551e-06
-7.44009e-07
-0.000101322
-0.00218473
-0.000265671
-0.0214838
2.44653e-05
5.14183e-06
4.29023e-06
-0.000714235
1.35912e-05
0.000273303
2.44032e-05
0.000541122
0.00288778
5.94077e-07
-0.0452913
6.00697e-07
0.00169159
0.026619
0.107043
-0.000157067
0.0429403
-0.00370158
-0.00519945
0.119926
6.61668e-06
0.104441
1.05166e-05
1.24686e-05
0.000633646
2.15814
5.01987e-06
-0.000583931
7.71525e-06
0.155301
-0.138424
-6.01311e-06
0.00695166
-0.108643
5.37897e-07
5.33761e-07
0.00110009
-0.038001
-0.112333
4.99315e-06
-0.00809742
1.60192e-05
-5.18501e-07
-0.00931823
-0.00860058
-0.000270432
7.12043e-06
-2.22724e-06
0.00052064
0.000884643
3.46242e-06
-1.60168e-05
-0.000323207
-1.0112e-05
-0.000505976
-9.75681e-05
-0.000161503
0.00199718
2.19009
0.000614478
0.0222945
0.098873
-0.000781413
0.0561108
0.000742252
-0.168417
-0.0040704
3.25231e-06
0.000109413
-0.0117611
1.98141e-05
3.9811e-06
3.76628e-06
0.00136907
-0.0232265
7.11459e-05
-0.105762
5.51653e-06
-0.0816755
0.00183858
-0.125904
-0.000626177
2.90016e-05
2.20278e-05
-0.0996698
0.000115127
2.36077e-06
0.00555091
8.00083e-06
1.52624
0.00153931
0.00334517
2.83405e-06
-0.0389587
4.02022e-06
4.69634e-07
-1.76112e-07
-4.97936e-07
0.156283
6.1048e-06
-0.0129583
0.0478846
-0.00114915
0.014456
-0.000902802
0.0023857
-0.00543968
-6.00204e-05
2.49269e-07
3.68686e-06
5.45376e-06
4.18064e-06
3.17266e-06
-0.000827709
0.00438069
0.00103448
0.276052
-1.29053e-05
0.0603219
-3.81098e-08
-4.28621e-05
3.42278e-05
2.64386e-07
3.62193e-07
0.0985844
3.02031e-05
0.0894896
0.11315
0.000229854
-0.000355406
6.40707e-06
-0.0879761
-2.3634e-05
2.21985e-05
0.0140481
4.68112e-07
3.21599e-06
5.07707e-06
0.000427371
-0.00996387
2.88438e-05
-1.59226e-06
0.00377194
-0.00261845
-0.000130901
8.38991e-06
0.177914
5.70741e-06
0.173093
2.09601e-06
1.78215e-05
-0.114691
0.00083009
0.00281503
0.00196725
-0.000271329
2.80171e-07
-2.08855e-08
-0.000924191
6.34834e-06
-4.8365e-08
7.94084e-05
0.0373712
4.15595e-06
-0.00406248
-2.27479
0.106231
0.00112981
0.0344089
-0.000228943
3.99811e-07
0.00065106
5.00719e-06
3.28633e-05
0.0315515
0.148276
0.0915379
0.181447
-5.1758e-06
-4.69845e-06
-0.00342405
-1.46365e-05
1.64129e-06
-0.292041
0.00415048
0.000778905
0.00186876
0.000841795
-9.81716e-08
3.50408e-06
1.90141
-0.00146443
1.99561e-05
1.28441e-07
0.00281296
0.00657794
-0.117768
8.39648e-06
2.29941e-06
-0.010879
3.72538e-06
1.26622e-05
5.81938e-06
-0.0380189
9.16924e-06
0.021003
-3.17785e-07
-0.000427726
2.67869e-05
8.0358e-05
-7.29034e-07
7.57908e-06
2.30128e-05
4.03968e-06
-0.0166492
3.9041e-06
-0.0351666
1.01595e-05
0.0617827
0.000147646
1.84616e-05
5.61235e-06
0.0452554
-0.0707322
3.06493e-05
0.000828087
3.85637e-06
-0.0526998
3.77154e-06
-0.00919162
8.18316e-07
4.02685e-06
0.126197
2.25431e-05
2.44925e-06
0.000107132
-0.103439
0.0425343
-0.126064
3.56585e-06
0.0355928
6.50168e-07
4.09599e-06
5.84219e-06
9.11331e-06
7.19796e-07
-0.125183
0.0274846
7.73107e-06
2.9988e-06
-0.000100164
2.72271e-06
-0.003701
0.00404336
0.088436
0.0159855
2.22949e-05
-0.000198162
1.20805e-06
3.04044e-05
-9.25153e-05
6.92028e-06
1.44586e-06
-1.50357
-0.141129
-0.000277375
0.180169
0.000457356
7.63475e-07
-8.79361e-05
0.000861251
-0.017749
6.56285e-05
0.423353
-0.00148291
1.34949e-06
-0.357328
-0.4826
0.00173258
-0.6403
-0.245963
-1.89627e-05
0.00655971
2.05317e-06
0.859013
2.19014e-05
7.36219e-06
-0.137878
-1.33813e-05
5.06626e-06
-2.17349e-06
-1.38676e-05
-0.0374567
-0.0142916
4.76845e-06
-0.000114732
0.158313
-1.22068e-06
0.166783
6.53901e-07
0.000686738
-0.13412
2.94172e-06
-0.0146653
2.33456e-05
1.3701e-05
0.0387217
-1.29483e-05
-0.000407126
0.000985089
-0.137651
9.06321e-06
-0.0459317
2.0879e-05
0.0468161
-0.12359
-0.0630024
0.000275942
7.03087e-06
-6.04803e-06
4.60746e-07
0.000203994
1.1181e-06
-0.0426738
1.66023e-06
-2.55474e-05
-0.00012187
-1.84351e-05
3.57413e-06
3.37041e-05
2.56158e-05
1.92784e-05
1.11869e-05
0.0171213
-0.0117373
3.77832e-05
3.52988e-05
-0.117939
4.11343e-06
0.0190247
5.33125e-06
-0.0001061
3.94209e-06
-1.06457e-06
0.000180588
7.33698e-07
5.03848e-06
0.0117376
1.25642e-06
0.0195535
1.19498e-05
-0.206405
0.23492
-0.0070111
0.00678767
6.54106e-06
-0.000757176
-0.00432239
1.0091e-06
2.3762e-05
5.51223e-06
0.0248869
-5.53172e-07
0.0045076
0.476912
0.0858639
2.6689e-05
3.77277e-06
0.13446
0.877668
-0.175909
3.29789e-05
5.05607e-06
7.02129e-06
-0.000939375
5.23788e-06
0.0602835
-0.00297009
1.10479e-06
0.00820082
0.00398577
5.40422e-06
0.0187999
0.0263603
0.0041993
9.8248e-06
0.141648
-0.000985602
2.37853e-06
-0.0523043
-1.58188e-05
4.23744e-06
6.31201e-06
0.000134508
0.000237763
0.0588995
0.0442385
0.000315732
0.070734
0.000164814
2.21524e-06
-0.012083
3.40672e-06
1.30076
6.61532e-06
3.88848e-06
-2.05781e-05
6.34155e-06
0.0301861
-0.0601564
-0.00287959
0.024322
0.0859157
-1.8853e-05
9.01252e-06
1.19907e-05
-0.00171764
6.92951e-06
9.18184e-06
4.5983e-05
-0.0634737
-0.0094058
9.54403e-06
5.30624e-05
-2.87187e-06
-0.00467581
0.197416
6.68122e-06
6.57276e-06
1.97366e-05
-0.0113184
7.86061e-05
-0.0883735
-1.59455e-05
2.28495e-06
4.43672e-06
6.39033e-06
-1.22468e-05
0.00208504
0.183597
0.0966615
-0.000165472
6.90944e-07
9.46378
8.81125e-06
0.0678816
0.0386591
-7.74116e-05
-0.0218248
0.153993
0.0234697
0.000683911
6.91565e-05
0.0396552
3.3445e-05
-5.33093e-05
0.00188707
-0.0096517
3.28447e-06
0.0663588
1.91025e-06
0.0368135
-0.00819838
5.29019e-06
-1.52428e-05
4.73164e-05
-0.0104808
5.24404e-05
2.78515e-06
6.94648e-05
1.74816e-06
4.25633e-05
-0.0832515
1.47794e-06
-0.0183267
-0.0175898
2.64023e-06
6.79043e-05
0.000255972
1.62568e-06
0.13339
-0.205415
0.002147
0.00610521
9.17278e-07
-1.71572e-06
2.43733e-05
1.00978e-05
-0.00759092
6.67162e-05
2.80814e-07
0.00066733
-1.00751e-05
0.0331068
4.47915e-05
0.321375
1.62059e-06
-4.86834e-06
-0.00392275
-0.0018735
-0.00134218
6.326e-06
-0.0638961
0.0286695
-0.409958
-0.0509504
0.025496
0.0751847
0.0627855
5.05392e-06
-6.92241e-07
5.67119e-06
-0.0101833
0.000417732
-0.00132656
0.0467541
8.99372e-06
6.9598e-06
-1.06791e-06
-0.00472672
5.71526e-06
4.64044e-05
-1.79303e-05
-0.0685584
-1.97448e-06
5.14408e-06
1.18234e-06
6.36824e-06
2.75705e-06
7.75031e-07
-0.00548791
-8.95027e-05
-0.0798241
-1.25886e-06
6.40913e-06
-0.0593111
-0.0157843
-0.00974881
0.0148483
0.00200089
-0.109178
5.51792e-06
0.000434102
-4.945e-06
2.13241e-07
2.43072e-05
0.0117649
1.3688e-05
-0.0016769
-0.262055
8.17235e-06
-5.10262e-07
-8.70033e-06
0.00239415
2.31135e-07
-0.0769649
5.75176e-06
-0.00304931
3.7248e-07
7.66302e-06
3.09801e-05
0.00661172
7.39755e-06
0.023584
0.017982
-0.00148482
-0.0656708
2.52809e-06
-0.0336328
0.364865
-8.55645e-07
-0.13702
1.13962e-05
0.000525215
7.46593e-06
7.34865e-06
3.80133e-06
-8.22176e-07
-8.16419e-06
-0.000120614
6.97186e-05
4.54522e-06
-1.09406e-07
0.0129356
5.36994e-06
0.0213193
3.09246e-07
1.79097e-05
0.000166794
0.0518571
0.552701
1.67556e-06
0.003171
6.02134e-06
8.78542e-05
0.00112784
0.035731
0.000301185
3.77279e-07
0.000192963
-0.00362037
0.000726946
-0.134003
-0.000431515
0.00467582
0.000752792
0.000443501
-1.78139e-06
2.59305e-06
0.14215
0.0713863
1.58714e-05
2.42104e-06
0.146705
4.95322e-06
-3.71669e-05
2.98032e-06
0.000537654
-0.245686
6.07689e-06
0.0420992
2.94186e-05
2.12593e-06
-0.00265469
7.07616e-06
-0.00179793
0.0248169
-8.43946e-05
0.133377
4.34646e-06
6.24277e-07
0.000898413
8.1114e-07
5.06384e-07
6.90586e-05
2.78533e-05
-0.000114165
-0.000310485
9.3297e-06
7.35114e-05
2.5069e-06
1.28287e-06
9.3864e-07
-6.09828e-07
1.05677
5.79941e-06
5.75591e-07
-0.0136826
5.00852e-06
2.62188e-06
0.02528
2.78784e-07
-0.274165
1.48565e-05
0.0397616
-0.00779515
-0.00245104
-1.16984
5.64904e-05
0.132181
8.14193e-06
0.0065271
2.95942e-05
3.02632e-06
4.36648e-06
-3.0646e-07
3.85382e-05
6.66947e-06
0.000168735
4.83329e-06
-2.58083e-06
0.159285
-0.146287
-0.127767
2.45631e-05
-8.43939e-05
0.0251231
-0.141997
1.14797e-06
4.42044e-05
-0.0071136
7.34073e-06
1.71919e-05
-0.59537
0.105211
6.21526e-05
0.000289104
-1.36369e-05
0.00917801
-1.6955e-07
-0.000774155
-0.0258419
9.37977e-06
8.53938e-06
0.0111141
-4.63973e-05
-0.00445193
-0.0833014
0.00107109
7.10766e-06
4.77813e-06
7.26728e-06
-0.0243073
0.269864
-0.0672869
-4.94352e-05
-1.72287e-07
-0.00893213
1.04907e-06
0.00558237
0.000275228
1.71832e-05
-3.65948e-05
5.40959e-07
0.09213
0.0987645
4.65559e-06
-0.000720381
0.000413853
-0.68496
-0.000107561
0.000789688
-0.00393298
0.000169259
-0.0130601
0.000768602
6.90113e-07
0.000196664
-0.00560125
-0.106079
6.01261e-07
0.305458
-0.000120832
0.000869
2.72468e-07
0.0698463
3.66336e-05
-1.64478e-05
1.5322e-06
7.08811e-05
6.62485e-05
-0.000893739
4.47688e-06
-1.26022e-05
-0.000128125
0.0170893
0.00011406
1.37157e-06
3.83912e-06
0.000199318
-0.00535244
1.67161e-06
0.00115542
0.160137
-5.9599e-05
0.0915105
0.000225049
-0.0358279
-0.000197876
5.23781e-06
1.20009
1.48428e-06
-5.38548e-06
0.000131722
4.79071e-05
-0.00110382
0.000425314
3.49292e-05
-8.01378e-05
1.53559e-05
-2.1176e-05
6.21369e-06
0.00542956
3.29099e-05
-2.57706e-05
0.728372
1.60434e-05
0.000195538
4.25712e-06
-0.00962442
0.000154582
9.10169e-06
2.43779e-05
4.14437e-06
0.160535
0.000701208
0.000136234
0.162316
0.156884
0.472791
-0.00273322
-0.0153438
5.05936e-06
-0.0200657
9.45128e-06
7.11355e-05
-0.108431
0.125731
0.0131591
-0.658425
6.20892e-07
0.216857
5.03273e-06
0.000879991
-2.35438e-05
-0.213502
-0.144138
2.6436e-05
4.87731e-06
0.0149425
-0.0020987
-2.65784e-07
-0.0132775
-5.7621e-08
-1.69305e-05
3.31078e-05
7.60619e-06
2.83367e-05
-1.91176e-06
3.91003e-07
4.97283e-05
-0.0558718
8.5645e-05
9.20792e-05
2.11671e-08
-0.0185734
0.139038
4.93173e-06
-0.0103363
-2.40219e-05
-1.63374e-05
-0.0435297
4.28334e-06
-1.92042e-06
-1.88438e-05
-0.0137665
-1.94046e-07
2.09675e-06
-6.83468e-05
-0.178227
4.78574e-06
-6.70708e-06
-5.34658e-05
0.889855
-3.253e-05
-5.42726e-05
0.0105774
1.17415e-07
0.0167696
5.68568e-06
0.0708175
3.60195e-05
-9.38433e-07
4.89782e-05
0.00210778
2.5029e-06
7.03199e-06
-0.00672546
0.170074
8.783e-06
0.0735793
1.83283e-06
5.71728e-06
-0.00089029
8.93602e-07
5.79773e-06
0.129856
5.93558e-08
-8.68176e-06
-0.00203293
0.0272809
0.567578
7.12826e-06
-1.10875e-05
-2.26391e-05
2.74034e-06
5.55546e-06
1.56585e-06
-0.460102
1.38452e-06
-0.0167127
0.0013337
8.40155e-06
5.26635e-06
2.72585e-05
0.00130222
-0.0183228
-0.00510298
1.89225e-05
-1.61204e-05
0.069373
-7.00598e-05
7.62225e-05
0.000237647
0.000826842
-0.000704828
0.620088
0.000211996
-0.0211532
0.0805779
-0.109229
2.47805e-05
8.92323e-07
-2.47567e-06
-0.000801365
4.52992e-06
9.09707e-06
0.0016839
1.20405e-06
-3.27051e-06
6.40981e-07
7.48085e-06
1.8703e-05
5.65787e-06
0.0255994
5.18711e-06
-0.0201513
2.55818e-06
0.000190057
4.21262e-06
0.00211109
-0.000849008
6.6628e-06
0.0231112
5.70198e-06
8.61027e-07
0.000143412
2.63362e-06
-1.97528e-05
4.56595e-06
0.189876
-5.45513e-06
-0.000135271
-0.00866849
0.030635
-1.87435e-06
-0.0180636
0.886992
6.09264e-05
6.29723e-06
1.35237e-05
-0.000139196
-0.000807299
-0.127226
3.58552e-06
-0.0259175
-2.20959e-07
0.00543117
0.0920961
5.22167e-05
-0.305373
1.15221e-07
2.14825e-05
-2.1655e-05
0.119532
3.88676e-05
3.24813e-06
0.000391554
-0.00213999
4.33408e-06
-1.12608e-06
2.80258e-06
0.0377536
3.17638e-07
-8.1453e-06
-0.043159
-2.66668e-05
6.52633e-06
-0.000130466
-5.26321e-06
0.061415
6.76953e-06
1.9838e-06
5.32051e-06
-0.000206343
8.20886e-06
6.3191e-06
0.000469609
-0.00725904
6.08705e-06
3.24755e-08
-0.0475116
8.77215e-06
0.0395366
1.05024e-05
0.0750199
1.25661e-06
-2.32633e-05
5.76939e-06
0.00444099
-0.0516895
-0.000200475
-7.67989e-05
-0.000802048
4.51369e-06
1.61776e-07
0.187072
3.33254e-06
0.000872997
9.60468e-06
0.00029284
4.61247e-07
-0.0777931
5.62916e-06
0.000368766
9.12453e-06
-0.0859388
0.103965
3.26225e-06
0.000239879
0.18798
0.000466353
-0.0414137
-0.386455
0.00769929
-9.03863e-07
-3.13656e-06
-0.00250983
0.337376
7.98951e-06
0.000223905
-2.44747e-05
-9.1532e-08
-0.035007
-0.101013
-1.65792e-05
-0.00560912
0.00538978
5.12868e-05
0.0500916
4.3845e-06
3.10205e-06
0.00107727
0.0538487
-0.00420843
0.00542039
0.892365
5.44045e-06
0.0766259
0.0307821
0.109577
1.7569e-06
-0.0893998
0.0397866
0.0230168
-0.00680786
0.0415961
0.00085744
2.64693e-05
0.00396073
4.87943e-05
5.24396e-06
-3.36554
-0.000324911
6.61722e-06
0.0677276
1.74642e-06
5.93969e-05
7.85346e-05
-1.8725e-05
0.575617
-0.000386581
0.0825067
0.000372489
0.000443267
0.141608
-0.108907
-0.00730261
3.37157e-06
-1.356e-05
-0.00114377
-0.000647044
5.93311e-06
-0.000165489
0.000719292
-0.00181028
7.80277e-06
-0.00649118
-1.87035e-05
0.000380659
-0.0920014
-0.0158354
1.03343e-06
0.005067
-0.0210377
9.89994e-06
-1.34669e-05
0.127186
-0.00384061
1.55741e-05
2.35108e-05
1.86193e-06
0.000825058
3.7058e-05
0.169559
0.000117062
5.57035e-06
1.58675e-06
0.00374113
3.77978e-06
0.571747
-0.11107
3.75462e-06
-1.63477e-07
2.74713e-05
1.82323e-06
2.20167e-05
-1.37867e-05
9.85154e-06
-6.694e-06
6.53276e-06
-2.13761e-05
4.71101e-06
0.000425181
0.511279
5.93561e-07
-0.0975831
0.103132
5.76449e-06
0.00430959
-0.00213496
0.00129016
-1.39759e-06
0.000149232
3.36733e-05
0.000611639
4.5033e-05
2.98329e-06
1.60178e-06
-0.0988585
3.70876e-05
0.0870662
9.36335e-07
-9.64117e-07
5.11121e-07
0.00136991
6.13812e-06
-0.000156364
0.000648928
-0.0327582
5.07598e-06
0.0496118
-0.483992
0.0173451
5.21731e-06
-0.00525496
-0.0151183
-0.337104
1.82731
3.86014e-06
-7.03864e-06
0.00425753
0.911646
0.240466
1.20543e-05
-0.00490512
1.48429e-06
3.65415e-06
6.57833e-05
1.49064e-06
1.66138e-06
-0.00286574
4.74788e-07
0.00206653
1.3834e-06
-0.15914
-0.0880016
0.0358416
-0.0851417
0.0280962
5.38429e-06
1.58355e-06
0.126886
3.0843e-06
2.91457e-06
5.08223e-06
0.00607724
-0.125243
-0.111851
-2.20656e-05
8.41012e-06
-5.48198e-06
3.85586e-05
0.208173
3.83456e-06
-0.30168
-0.165824
1.77379e-06
5.04674e-07
0.0165492
0.000870159
1.62758e-05
-1.18869e-06
-0.11788
0.000626417
4.96629e-06
0.00237301
4.78253e-07
0.0158672
-0.204214
1.18196e-05
-0.329378
0.0400292
-0.0692919
2.00604e-06
8.04433e-06
6.63013e-07
3.99171e-07
-0.0310885
4.90695e-06
0.00765911
-0.0179425
-0.17331
1.02418e-05
8.44152e-05
0.255875
-0.000185997
0.104598
0.0140839
7.52409e-06
3.29823e-05
3.2747e-05
0.000679962
0.0831226
7.12153e-06
-0.0110311
-2.40574e-05
0.000279583
-2.6691e-08
4.9524e-06
-0.00078763
2.18644e-05
-0.00350602
1.55366e-06
5.07541e-05
7.83275e-06
0.000813546
2.19421e-05
0.00468341
0.27919
0.0170709
0.00129868
7.7248e-06
-1.8977e-05
-6.70269e-05
0.0176553
0.0514594
0.172213
2.60207e-06
-0.165718
0.0087302
0.0476969
2.63087e-05
-3.6196e-05
-6.98223e-05
3.76423e-06
-0.0841197
1.092e-06
4.21995e-05
-0.0145288
-0.163666
-0.00865413
-0.120327
-1.69227e-06
-0.00012097
4.15403e-06
-0.153966
-8.6737e-06
0.0647765
4.83544e-06
0.0479247
6.27202e-06
8.8362e-07
2.97525e-05
-7.64745e-05
-2.3237e-05
4.82343e-06
0.0403324
0.00037766
5.04934e-06
7.01876e-05
0.0131297
0.303278
1.2641e-06
0.0292754
-8.93723e-07
0.00016518
0.00012611
6.71092e-06
-9.51374e-05
1.11455e-06
-0.0326588
-0.000150076
4.49923e-05
-1.0809e-06
-0.0130547
-9.78805e-05
4.83958e-06
-0.0295408
-0.695435
-0.00719157
4.49223e-06
0.973453
1.3902e-06
0.00447101
6.18059e-05
-0.00861791
-0.949145
0.0317317
-0.000305889
-0.11111
0.000186464
-9.15051e-05
3.98249e-06
-0.0362582
-0.00276802
0.000414337
0.00937385
1.15061e-06
-0.22944
-0.000794526
-0.00882985
-0.0125896
0.160725
0.0388704
-0.0626833
-0.067857
0.000587091
-2.86814e-05
1.16129e-06
3.91739e-06
7.15131e-06
0.00446609
2.04122e-05
-0.00232178
0.0471258
6.21418e-06
5.77479e-06
0.000322472
-0.00537208
3.90565e-05
8.7647e-06
-0.0699379
2.08784e-05
0.000433919
1.74091e-06
0.0171994
-2.21425e-05
-0.121934
-0.00187261
2.35235e-06
0.000107227
9.11002e-07
0.0809217
0.22835
-0.000123172
5.6429e-06
6.33376e-06
-0.119765
0.0261932
0.139252
4.33719e-06
-2.52779e-05
0.786367
5.8286e-06
2.45223e-06
-3.89894e-06
-0.100812
0.00250295
5.70566e-05
3.74774e-05
4.38169e-05
0.0378304
0.000786104
-0.00837061
3.89989e-05
2.8796e-05
7.32671e-06
0.0028609
9.74762e-05
1.26378e-06
0.185218
0.0181188
-0.0843187
0.147017
0.0309633
0.0588612
0.105307
1.50774e-06
6.42704e-06
-0.0571405
-0.0356265
0.0473354
6.5075e-06
-2.84199e-05
-4.32485e-07
6.72351e-06
-0.550421
-0.174661
-0.000154789
8.43723e-07
0.0297031
-0.0015348
-0.000270046
0.0690402
1.09646
-0.00483368
6.11471e-06
-0.000979741
-0.634015
-0.0069099
0.000128966
-0.000107231
3.45829e-06
4.91624e-06
-5.46429e-05
-0.000149702
-6.48857e-06
0.000253694
4.02804e-05
-1.96726e-05
-0.00711737
0.0185831
1.25946e-05
0.00031479
0.01604
-0.00473657
3.59657e-07
0.0279714
0.00375738
-0.04011
-1.53428e-05
4.64805e-06
3.34314e-05
2.66932e-05
-1.46188e-05
6.46393e-06
-7.87479e-05
9.8976e-05
0.000346154
0.000895861
1.15648e-06
1.50116e-07
0.0400448
0.175085
-0.0782955
0.180584
0.000728456
6.29494e-06
-6.98628e-07
2.26813e-05
4.23052e-06
0.193295
-8.63127e-07
2.47917e-07
4.48869e-06
0.186339
0.429909
7.03508e-06
0.000388942
2.82569e-05
-0.00015372
2.47507e-05
0.000519469
6.20495e-05
3.1023e-05
0.02391
3.45306e-05
0.00397813
2.59328e-05
-0.0476948
3.0229e-05
5.97882e-06
4.14697e-06
-0.000941461
-0.00757022
6.08451e-06
0.00019452
3.10529e-05
-5.45282e-05
-0.10093
-0.305012
0.085428
2.09868e-07
-1.9645
-0.000536395
5.47416e-05
-1.21635e-06
-3.45777e-05
-1.77342e-05
-0.0316736
0.010145
3.96749e-05
3.40085e-07
0.18134
-5.6679e-06
-0.0206199
0.00284536
-0.00912121
-1.55233e-05
-0.00353994
0.07203
-0.261697
0.0391962
-0.000132083
-1.97877e-07
3.43879e-05
4.99133e-06
0.0604017
-1.93213e-05
3.22417e-05
0.039951
0.002348
7.78599e-07
6.32909e-06
-0.00686335
-4.54795e-05
0.0984371
-0.000103091
-9.28975e-07
-0.00011219
0.000172697
0.000519666
-0.00940324
4.56038e-05
-0.230104
2.46714e-05
1.69524e-07
5.0503e-06
-0.00436896
5.99019e-06
-0.00534166
7.51296e-07
-2.1472e-06
-0.000603308
4.59254e-05
2.74287e-06
1.01363e-06
6.79984e-05
0.123338
0.000308592
-6.59154e-05
-1.53487e-05
-0.000300566
8.34567e-06
-0.00105795
2.2007e-05
-0.000117464
-0.00863362
4.37331e-05
0.00192366
-5.53696e-05
4.74107e-06
0.00024996
-0.0132065
0.00945284
6.55954e-06
1.10805
-0.00197912
7.64785e-06
2.28434e-06
0.000240824
0.0597521
1.59283e-05
0.0213856
0.00709969
7.89438e-06
0.000774201
7.38388e-06
3.20065e-05
-0.000462767
0.0105416
-0.0066616
-0.0145187
0.220571
0.164702
3.84795e-05
1.73622e-05
0.0334286
-1.28383e-06
-0.705653
-0.00600219
1.49035e-06
4.09593e-06
0.00599883
3.40971e-06
5.09961e-07
-0.0181599
0.046868
-0.0130094
4.66993e-05
0.0144792
4.12664e-06
0.15691
0.0220322
1.79068e-06
0.0626332
-0.523558
-0.0276535
0.0357659
0.0366839
0.00418074
4.87942e-06
5.13755e-07
-0.000662699
-6.6076e-05
3.09552e-07
-0.00333874
-1.30326e-06
0.0449592
-0.0175606
0.000238802
0.00140851
0.0557603
-0.0062928
-0.00605272
0.013021
0.0394231
-0.0228679
3.33739e-05
6.61123e-06
-0.336485
9.45068e-06
3.22065e-06
0.0822421
6.66201e-06
-0.124687
3.68401e-06
-0.157115
3.72966e-05
4.11174e-06
14.2039
-4.14246e-05
-0.000119563
-0.0202442
0.125468
-3.35431
6.69609e-05
0.000373979
-7.3227e-06
0.000273431
-0.00228082
0.000267438
3.0741e-07
-0.0972072
-0.000652345
2.84945e-05
0.0121292
-7.30387e-05
-1.86984e-05
0.00176089
-0.00122106
0.000373827
4.6123e-06
0.00156694
3.79543e-06
-0.00351794
-0.0155108
0.0279312
5.37353e-06
-3.78257e-06
0.0120797
1.5146e-05
-5.90718e-05
0.00010349
-7.31971e-05
-0.079943
-0.000433281
-6.6591e-07
0.164136
5.05244e-06
0.184398
2.41797e-06
1.36883e-05
0.000934512
0.154503
4.14214e-05
-0.0146389
-0.014228
0.000115744
5.62064e-06
-0.00780313
-0.000123933
0.0432025
-1.80277e-05
-2.74022
-0.00325061
0.000113572
2.73292e-05
-0.0033889
2.01483e-05
-0.00326778
-0.000320575
-0.000753252
1.85002e-05
8.16209e-06
2.07831
6.46159e-06
3.60499e-05
9.4669e-06
0.00126379
2.90383e-05
-5.11412e-05
0.0515541
1.93056e-06
-0.00758049
7.99771e-06
5.36967e-06
1.91165e-06
2.40666e-07
4.64962e-05
4.2259e-06
0.000877509
0.020932
0.000197461
-8.64118e-05
3.31516e-05
-2.64103e-06
-0.020005
8.30913e-06
0.0861908
-0.0157635
0.0137645
-0.00083068
4.42434e-05
5.75903e-05
1.71408e-06
-1.21429e-05
0.00719863
4.13796e-05
-0.0139455
0.000373168
0.0354265
-0.000633683
1.48018e-06
5.97758e-06
0.00646532
6.14682e-06
5.36874e-05
-0.00665995
0.0100381
1.70999e-05
-0.0581262
5.01573e-07
1.12711e-05
-4.49103e-07
1.92435e-06
-0.00982885
0.000843251
-3.77474e-06
0.000135254
0.00146198
3.08484e-05
0.000543353
0.00841234
-0.00433375
-0.000642234
-0.000147968
2.45459e-05
1.62923e-06
0.000624201
0.152774
0.0566333
0.161599
0.000104361
0.00165731
0.00078934
1.23255e-05
1.15646e-06
0.000870362
2.12991e-06
0.00013129
0.0224917
5.63721e-06
3.43541e-06
-0.00839062
-0.444497
0.000433504
-0.290793
4.46622e-06
-0.0516481
4.10508e-05
-0.058906
-0.000594011
6.88162e-06
0.14701
0.00419996
3.86111e-06
-0.00168438
2.59355e-07
0.00140372
3.44877e-05
-0.0065202
0.10416
-0.000484686
-0.0600352
5.18175e-06
0.0476756
8.22956e-06
2.97898e-05
-9.01144e-06
-1.5937e-05
2.72608e-06
-0.00161476
0.186574
-0.187689
-0.000295071
3.39513e-05
-0.0028904
-2.4866e-07
9.37604e-06
1.33082e-05
0.0513011
3.34552e-05
-0.185138
0.0884233
-0.0018498
1.22442e-06
-0.00289828
0.00147908
-0.00697406
2.51129e-05
0.0179591
7.82374e-06
6.72003e-06
7.64065e-06
-0.0295401
3.26428e-06
6.66193e-06
0.167469
4.28455e-06
0.000929817
0.0020246
6.43057e-06
0.0382021
4.49744e-05
-0.155374
5.80936e-08
1.08061
-2.7324e-06
-0.0089274
-0.323357
-0.000614469
5.97566e-06
5.70514e-05
0.0736104
0.000119383
-0.00385084
3.12085e-05
2.09144e-05
0.00353307
-6.93004e-05
8.79754e-06
0.210434
3.22887e-05
6.17741e-05
0.00087018
7.46066e-06
2.98262e-06
2.01717e-06
7.54898e-05
8.97645e-06
-2.44696e-05
-0.072258
0.513556
0.00300149
0.11078
0.000851147
0.000120078
0.0162436
0.0317449
7.4902e-06
0.0650168
-0.0376843
0.031221
-0.292626
2.37845e-05
0.0728937
0.132891
-0.171649
-0.857498
-0.0133899
-7.48432e-05
-0.000174822
-3.69969e-06
4.09552e-05
9.32491e-06
2.47901
8.99164e-08
0.0270671
-0.00595375
0.000648913
8.58314e-06
0.000393141
0.000330253
-1.42118e-05
-2.08944e-08
3.90661e-06
-0.00617438
1.94194e-05
8.35663e-06
0.000297445
0.0115173
2.03282e-05
0.0039128
5.90154e-06
-0.00838772
0.00370105
9.06534e-06
-1.48289e-05
3.73642e-06
-0.152691
0.0282718
-0.00908407
0.630454
1.38481e-05
-0.00215834
8.66701e-07
0.000320016
7.98766e-06
-4.30733e-06
7.63075e-07
0.0263139
3.06834e-06
0.000378096
-0.0716048
-2.8819e-06
6.31929e-05
8.06794e-07
0.074702
0.00526301
-0.293626
-0.0127182
0.00757696
-0.00670966
0.0130714
0.00984622
-0.0113168
0.0497848
-0.00838737
-0.00421767
-0.223023
-0.118703
-1.18766e-06
-0.081369
0.00481996
-0.117562