/*--------------------------------*- C++ -*----------------------------------*\
| =========                 |                                                 |
| \\      /  F ield         | OpenFOAM: The Open Source CFD Toolbox           |
|  \\    /   O peration     | Version:  v2012                                 |
|   \\  /    A nd           | Website:  www.openfoam.com                      |
|    \\/     M anipulation  |                                                 |
\*---------------------------------------------------------------------------*/
FoamFile
{
    version     2.0;
    format      ascii;
    class       surfaceScalarField;
    location    "150";
    object      phi;
}
// * * * * * * * * * * * * * * * * * * * * * * * * * * * * * * * * * * * * * //

dimensions      [0 3 -1 0 0 0 0];
oriented        oriented;


internalField   nonuniform List<scalar> 
20580
(
-0.13554
0.0109382
0.124602
0.127707
-0.250375
0.122667
0.260015
-0.132309
0.00664302
0.00271121
-0.00935423
0.584745
-0.62087
0.0360892
0.264605
-0.189282
-0.0753236
-0.300692
0.0473094
0.577684
-0.580712
0.00296493
-0.0160347
0.0124062
0.0036285
0.423456
-0.248796
-0.174663
0.1443
0.0114478
-0.155748
-0.518882
0.314571
0.2043
-0.209775
0.285449
-0.0756751
0.00264304
-0.000364186
-0.00227885
0.19096
-0.0336058
-0.157354
-0.115169
0.0993787
0.01579
0.00850559
0.00566323
-0.0141688
-0.170471
0.357316
-0.186852
0.101185
-0.111782
0.0105968
-0.118721
-0.0168193
0.0638215
-0.194699
0.130878
0.234642
-0.204301
-0.0303413
0.024316
-0.03679
0.0124739
-0.585211
0.591985
-0.00678144
0.0796043
-0.0944161
0.0148118
-0.00287269
0.117059
-0.114186
-0.0193781
-0.0632316
0.0826097
-0.0919829
0.0744887
0.0174942
-0.00893305
0.028993
-0.0200599
0.48588
-0.326105
-0.159792
0.00662917
-0.00357116
-0.00305801
-0.22481
-0.0758838
-0.113425
0.129405
-0.0159792
0.0247591
-0.0171894
-0.00756976
-0.156284
0.151579
0.00470453
-0.019829
-0.00825779
0.0280867
-0.615268
0.0300539
0.00922534
-0.0678418
0.0586165
0.0020539
-0.000486351
-0.00156755
-0.13313
-0.159918
0.293044
-0.00426017
-0.00419337
0.00845354
-0.0313777
0.0224447
0.0156326
-0.0156326
0.0977418
-0.00373487
-0.0940069
0.0254247
-0.0342181
0.00879342
0.451501
-0.280476
-0.171034
-0.537086
-0.0694881
-0.129564
0.0490673
0.0804962
-0.0535504
-0.212585
0.266134
-0.298792
0.0890168
0.0128375
-0.0129748
0.000137262
0.141919
-0.283437
0.141516
-0.100135
-0.015034
-0.0499908
-0.125553
0.175543
0.00673593
-0.00136831
-0.00536762
0.101547
-0.234679
0.0112155
-0.124641
-0.00713545
0.00287528
-0.0244331
0.0908804
-0.0664473
0.00410624
-0.00426736
0.000161119
-0.356594
-0.162298
0.069495
-0.0888731
-0.22023
-0.19459
0.414819
-0.196845
0.143293
-0.0444968
0.0921803
-0.0476835
-0.0833148
0.0388179
0.00504858
-0.000942345
-0.0941967
0.0662817
0.354744
-0.250853
-0.103895
0.00478581
0.00376663
-0.00855244
0.00882767
-0.000101973
-0.0087257
0.167152
-0.18762
0.0204677
-0.0299673
-0.223784
0.253749
-0.00444641
0.000179057
0.180738
-0.0194161
-0.161322
0.221154
-0.217236
-0.00391949
0.0169513
-0.00844571
0.344657
-0.528073
0.183386
0.0945165
-0.0149122
0.449668
-0.214423
-0.235255
0.24774
0.107
-0.105396
0.120598
-0.0152013
-0.0218702
-0.134414
-0.000381808
0.00207608
-0.00169427
-0.00352787
-0.00091854
0.00584274
-0.00799867
0.00215593
0.064303
0.170338
0.0157261
-0.00230506
-0.0134211
0.227848
0.148741
-0.376593
0.00377663
0.00285253
0.266963
-0.125044
-0.305435
0.0806235
0.0143714
-0.0143714
0.00961945
-0.00377671
-0.00290572
0.0035174
-0.000611681
0.0259185
0.0724323
-0.0983508
0.15083
-0.354156
0.203318
-0.0883827
0.107992
-0.0196089
0.00964048
-0.0104762
0.000835725
0.0183423
0.0974449
-0.115787
-0.110851
0.0224687
0.123775
-0.049558
-0.0742169
0.0857557
-0.120637
0.0348808
-0.171581
-0.0770747
0.248654
-0.469958
0.130058
0.339891
0.133244
-0.174341
0.0410966
-0.163075
-0.306892
0.00845223
0.000375434
-0.0762531
-0.229184
-0.338666
0.168189
-0.00757543
0.152694
-0.145119
0.339841
0.11165
-0.10389
0.118501
-0.0146112
0.0167718
0.113623
-0.130395
-0.119971
0.110412
0.00955934
0.162794
-0.212785
0.170859
-0.400036
0.229155
0.467425
0.110194
-0.00349271
0.0101357
0.00824401
-0.00345819
0.0741324
-0.103437
0.0293046
0.157996
-0.419781
0.261774
-0.275339
0.290067
-0.0147306
0.00264459
-0.00193459
-0.000709998
0.0859846
-0.116449
0.0304644
0.0253822
-0.0662419
0.0408597
0.344183
-0.193362
0.0550946
0.0960336
-0.151128
0.00745955
0.00401143
-0.011471
0.147657
0.0180246
-0.165682
-0.199917
-0.00438484
-0.136305
0.18822
-0.0519151
-0.0761568
0.0853821
0.0145852
0.0101739
-0.00287627
0.147176
-0.000555743
-0.00366268
0.00421842
-0.0469877
-0.00640677
-0.0015919
-0.00946322
0.123726
-0.114263
-0.165163
0.0234087
0.141754
-0.110083
0.00468615
0.25129
-0.232807
-0.0184842
-0.0691714
0.297016
-0.0784405
0.000221557
0.078219
-0.00248634
-0.0624231
0.0649094
-0.0358196
0.229981
-0.194163
0.516567
-0.171941
0.00604829
0.0195827
-0.0172683
-0.00231439
-0.0674607
0.122555
-0.0578483
-0.0530031
-0.114378
0.0104881
-0.107617
0.124388
0.106265
-0.100679
-0.00558596
-0.217441
-0.0185892
0.236029
0.131275
0.18638
-0.317657
0.31234
0.211918
-0.524271
0.00239326
-0.000339358
-0.188293
0.0920223
0.0962709
-0.0503898
0.210307
-0.159919
-0.416916
-0.163801
0.580707
0.030758
-0.0246014
-0.0061566
0.161691
-0.0284479
-0.0440118
-0.0855517
0.000907687
0.00173535
-0.0279608
0.00608266
0.0218781
-0.0186278
-0.00933293
0.0122078
0.000629772
0.158498
-0.166074
0.0461979
-0.0416253
-0.00457255
0.535318
-0.329037
-0.206292
0.439815
-0.268985
0.159076
-0.144641
-0.0144344
0.550753
-0.110724
-0.440056
-0.00172149
-0.00118423
-0.069693
-0.0233252
0.0930182
0.0894671
-0.105
0.0155326
0.258305
0.181484
0.185336
-0.166245
-0.0190911
0.109961
-0.0204936
0.105269
-0.0192847
0.12366
0.00626222
-0.174846
0.168584
0.185469
-0.0378124
-0.0158796
0.0158796
0.00571864
0.013864
0.0936619
0.0357426
-0.069913
-0.0612841
0.131197
0.230998
0.00338321
-0.234382
-0.133172
-0.243435
0.376593
-0.0735679
0.0710815
-0.13105
-0.057244
-0.000929432
0.000565247
0.132944
0.131659
-0.226195
0.190374
-0.0962811
0.115204
-0.0189224
0.119982
-0.02632
0.202888
0.103518
-0.306411
0.127087
-0.314796
0.187705
-0.0136256
-0.0702229
0.0838485
0.114551
-0.11509
0.000538927
0.000934821
-0.000577565
-0.000357257
0.00778765
-0.00342673
-0.00436092
0.0156702
0.175289
-0.00329293
-0.0517783
0.0550712
0.00233727
-0.00140245
0.195346
-0.210883
0.015537
0.121916
-0.136346
0.0144297
0.0162498
-0.00709516
-0.00915467
0.205122
-0.0110971
-0.194025
-0.102486
0.105402
-0.00291617
-0.245811
-0.0295309
0.00446874
-0.646526
0.398172
0.24835
-0.135694
0.161916
-0.0262228
-0.213949
0.184605
0.029343
-0.24932
-0.0494725
-0.00911332
0.0878981
-0.0787848
-0.176846
-0.139023
0.315864
-0.00160408
0.0245718
-0.201493
0.45977
0.124529
-0.11086
-0.0136692
-0.000951917
0.000570108
-0.00275592
0.00375432
-0.000998404
0.0317806
-0.138433
0.106652
0.141794
-0.0198776
0.66852
-0.365177
-0.303348
-0.0277625
-0.050678
0.169436
-0.455721
0.286275
0.015885
0.00275412
-0.00525851
0.00250439
0.0867708
-0.156684
-0.0347188
0.239839
-0.480347
0.224036
0.00260127
0.00518637
0.227174
0.258687
0.069382
-0.045066
0.00543136
-0.00214054
-0.00329082
-0.104341
0.122683
0.142649
-0.559569
-0.0398966
0.0891736
-0.049277
0.00379716
-0.00314433
-0.00065283
-0.00903784
0.0344625
-0.00310703
0.180831
-0.179711
-0.00112014
0.0645568
-0.0603702
-0.00418664
0.0834018
-0.0925152
0.0295001
0.155835
0.101246
-0.0288137
0.153251
-0.159831
0.00658012
0.00066552
-0.0076459
0.00698038
-0.108091
0.118909
-0.0108178
-0.3101
0.647675
-0.33764
0.0589722
0.155407
-0.21438
0.0117104
0.0287846
0.00197341
-0.0119411
-0.00447607
0.0164171
-0.348201
0.215016
0.0504822
0.183854
0.156964
-0.340821
0.101851
-0.0950508
-0.00680064
0.114556
-0.105543
-0.00901247
-0.0994995
0.158471
0.146595
0.0150966
-0.131886
0.023795
-0.0968169
0.303393
-0.20658
0.0563543
0.0674206
-0.129487
0.0422192
0.0872678
0.102377
-0.0779322
-0.0244451
0.458291
-0.188064
-0.270233
-0.293627
0.0443061
0.118551
-0.0142969
0.0226037
-0.00830683
0.0135232
-0.000118729
-0.0134045
0.15563
-0.0179091
-0.137721
0.388954
-0.230968
0.094889
0.0103802
-0.100921
0.107277
-0.00635658
-0.0931334
0.119962
-0.0268288
0.160248
-0.013654
-0.0198124
0.00551554
0.00857689
-0.00879955
0.000222666
0.14816
-0.196694
0.0485341
-0.102981
-0.0600692
0.16305
-0.07717
0.0854801
-0.00831004
0.185855
0.16662
-0.352484
0.224958
0.298091
-0.523062
-0.113364
0.0202303
-0.0225457
0.144774
-0.122229
-0.46125
0.229672
0.231562
0.493525
0.129953
-0.623485
0.404712
-0.235285
-0.565362
0.571865
-0.00654845
-0.0180953
-0.155143
0.173238
0.537284
-0.0113715
-0.00466322
-0.0900576
0.153879
0.154315
-0.289552
0.135233
0.00895566
0.00164994
0.000994648
0.0554249
0.21599
-0.271416
0.00580761
0.0110142
0.000145225
-0.0111594
0.0685378
0.182752
-0.184963
0.240387
-0.216157
0.126099
0.000370039
0.000562558
-0.000932597
0.0101581
0.00185703
-0.0120151
0.16101
-0.0268852
-0.134125
0.462492
0.122216
0.0455441
0.000653816
0.178715
0.145651
-0.152208
0.00655668
0.0110423
-2.80692e-05
0.0955533
-0.0842249
-0.0113285
-0.255496
0.205104
-0.0912455
0.0140755
-0.00702844
0.0914369
-0.0844085
0.00575059
-0.0073763
0.00162571
0.110793
-0.000813356
-0.10998
0.0462637
-0.110803
0.0645391
0.000309368
-0.000865111
0.00474205
-0.00314797
-0.00159408
-0.0325904
-0.0593925
0.316393
-0.18931
-0.00512175
0.0147821
-0.00966035
-0.0103321
0.0103321
0.00446139
-0.0317823
0.027321
-0.0373466
0.0418079
0.144251
0.0510942
0.163309
-0.0292892
-0.13402
0.0191382
-0.155721
0.136583
0.00657878
0.00914735
0.0550895
-0.1126
0.0575107
-0.216057
-0.302124
0.518132
-0.106096
-0.431059
-0.0478135
0.180757
-0.132944
-0.00256214
0.00831273
0.027581
0.372108
-0.186264
0.000761479
0.0483659
0.115021
-0.163387
-0.182277
0.0459717
-0.04625
0.256556
-0.000105919
0.000475957
0.100577
-0.00568827
0.0150688
-0.00780478
-0.206145
0.185702
-0.220422
-0.0329569
0.0278207
0.0051362
0.245661
-0.0146642
0.00534444
-0.0630019
0.211161
-0.127348
-0.0888089
0.139364
-0.0909984
0.332593
0.290676
-0.136366
0.120304
-0.134721
0.0144171
-0.0222749
0.11972
-0.114921
0.122464
-0.00754318
-0.0831852
-0.0233427
-0.0096142
0.192008
0.0379717
0.00200463
-0.108189
0.0917392
0.0164502
-0.19451
0.432211
-0.237718
0.0927502
0.00280311
-0.108947
0.126693
-0.0177461
0.00943946
0.000201013
0.170292
-0.218106
-0.135916
0.00825154
-0.0890755
0.0646423
-0.0848952
0.0789695
0.00592573
0.113024
-0.124318
0.0112939
0.0147975
-0.0117327
-0.0030648
0.290365
-0.237433
-0.0529336
0.0225215
-0.0922146
0.00180846
0.0138241
0.0184278
-0.184758
0.16633
0.0081759
-0.00751038
-0.0291527
-0.153604
0.182756
-0.00792743
0.00311223
0.00481521
0.0821107
-0.185092
-0.0325704
-0.129527
0.120665
-0.117507
-0.00315835
0.0598896
-0.0930729
0.0331833
0.307711
-0.176437
0.237997
-0.155506
-0.0824911
0.0931299
-0.115676
0.0144926
-0.2934
-0.0263372
0.319731
-0.0056743
0.161304
-0.0373456
0.00260454
0.034741
-0.208315
0.178346
-0.0737259
-0.0626206
-0.0111234
0.0125877
-0.0014643
0.102648
-0.255654
0.153005
-0.0469917
0.113836
-0.0668441
-0.156954
0.150837
0.00611708
-0.00356851
0.0137266
0.189159
-0.200257
0.128879
-0.131752
-0.0665284
0.0632355
-0.00189339
0.165247
-0.15798
-0.00726678
-0.0189262
0.00698516
0.000269286
-0.0893304
0.0494337
-0.281273
0.184452
0.117914
0.00238952
0.156118
-0.181599
0.0254809
-0.1225
-0.0134162
0.418417
-0.206385
-0.212042
-0.0162693
0.0162693
-0.00937742
0.0315932
-0.0222158
-0.0788021
0.086275
-0.00747294
-0.0545982
0.240299
-0.0112208
0.086523
-0.0774699
-0.00905318
0.0123868
0.00113645
0.484027
-0.213165
-0.270885
-0.0157863
0.0106645
-0.109751
0.103816
0.00593497
-0.00875142
-0.00658994
0.0153414
0.168695
-0.0154451
-0.015829
-0.067609
0.083438
-0.0374537
-0.239579
0.277031
0.568438
-0.0177115
0.000393779
0.00634215
0.0892329
-0.0124855
-0.0767474
0.147793
0.275661
-0.208518
-0.0418589
-0.136063
0.062337
-0.155725
0.460606
-0.304907
-0.0380924
0.028715
0.0360248
0.127284
-0.124849
0.0159016
-0.22397
0.219795
0.00417377
0.0144601
0.275902
-0.331211
0.249753
0.0814572
-0.0778147
-0.00708057
-0.0819955
-0.207562
-0.0322622
-0.298948
0.0202031
-0.0681208
0.0479177
-0.0358537
-0.00149188
-0.17104
-0.0288783
0.0219737
-0.0905095
0.0685357
0.214397
-0.434627
0.515782
-0.217705
0.273949
-0.171303
0.00398761
0.12522
-0.144864
0.0196438
-0.326101
0.027409
0.298687
-0.316913
0.215865
0.101047
-0.0339044
0.108037
-0.120905
0.298226
-0.177323
-0.0218923
0.0182586
0.00363368
-0.168762
-0.380884
0.549632
-0.152492
-0.05938
0.211871
-0.014677
-0.0195411
0.00695329
-0.0966138
0.0896604
0.431083
-0.608919
0.177774
0.498546
-0.198251
-0.300304
-0.197271
-0.0266997
0.320616
-0.124402
-0.196217
0.088379
-0.100898
0.0125193
-0.0632728
0.053603
0.00966984
0.193204
-0.0123729
-0.00925544
-0.0363549
0.0456104
0.219349
0.264571
-0.486191
0.22161
-0.00559447
0.0122173
-0.00662281
-0.0671017
-0.158437
0.0819923
0.0764441
-0.29929
0.274689
0.0245974
0.00280746
-0.124712
0.115248
0.0692256
-0.0173253
-0.0519003
-0.237983
0.0664002
-0.172387
0.00395482
0.168431
-0.0216971
-0.197134
0.169804
0.0273289
-0.00793905
0.00479108
0.0874628
-0.000939749
-0.0891183
0.0103162
-0.235308
0.0848433
0.150464
-0.00358473
-0.162669
-0.1474
0.310064
0.00439155
-0.136327
-0.0206269
0.0382762
0.0817057
0.180551
-0.0244339
0.213348
-0.109045
0.115998
0.129786
-0.44667
-0.174229
-0.0142943
0.0135398
0.000754473
0.00435595
-0.00995043
-0.00605655
-0.0158357
-0.00908748
-0.000723672
0.00981115
-0.0430697
0.00674514
-0.0145803
0.00783512
0.00173419
0.148442
-0.0250554
-0.123387
0.577359
-0.307451
-0.269912
0.0443453
-0.091337
0.145687
-0.394485
-0.375665
0.0822581
0.0158009
-0.137348
0.121547
0.00210949
-0.000511361
-0.00159813
-0.0593892
-0.187189
0.246577
0.207359
-0.227721
0.020361
-0.14116
0.0995428
0.0416174
-0.149081
0.00994272
0.139138
0.39609
-0.179614
-0.216477
-0.0242043
-0.0190825
0.0432867
0.460452
-0.288826
-0.171633
0.0134967
-0.00852195
-0.00497472
0.0885984
-0.000219366
0.164193
0.285467
-0.30058
0.206889
0.0936884
0.10151
-0.107377
0.00586644
0.0181524
-0.234094
0.0617107
-0.0724397
0.010729
-0.036799
0.0811443
-0.144199
0.357824
-0.213639
-0.0051038
0.00484342
0.000260376
-0.00897424
0.110159
0.110376
-0.104557
-0.00581857
-0.0512102
-0.184099
-0.0149698
-0.053151
-0.00656116
-4.65702e-05
0.00660773
-0.3387
0.19449
-0.00684757
-0.0843057
0.0911533
0.369765
-0.180548
-0.18922
0.10629
-0.0608997
0.0717289
-0.0108293
-0.00606693
-0.00186051
0.194652
-0.172705
-0.021948
0.144138
-0.0189182
0.233254
-0.40559
0.172335
0.117947
-0.120817
0.00286952
0.0124459
-0.00498638
0.00349847
-0.00256393
-0.00093454
-0.258165
0.397087
-0.138932
-0.0166042
0.00952818
0.00707607
-0.352444
0.118909
-0.00909403
0.165738
-0.16023
-0.00550941
0.336227
0.147778
-0.0789296
-0.138307
0.00411755
-0.0037191
-0.000398447
0.118472
-0.0585822
-0.000986253
0.205466
-0.264857
-0.172243
0.329205
-0.0140702
0.0224689
-0.00839873
0.142746
0.408256
-0.551009
-0.117756
-0.00193964
0.119696
-0.179042
0.245404
-0.0663625
0.182533
-0.165523
-0.0170104
0.19133
-0.0362182
-0.155112
-0.0285856
0.0380208
-0.00943519
0.00862859
-5.17012e-05
0.0889477
-0.22889
0.139941
0.0159125
-0.014104
0.0889346
0.180319
-0.269255
-6.38584e-05
0.130443
-0.13038
-0.0214355
-0.00994221
0.00685239
-0.0082207
0.28495
-0.316154
0.0312012
0.140721
-0.00578806
0.0915438
-0.0042033
0.000484194
0.0124633
-0.0872279
0.0747646
-0.0183748
0.136322
0.0906131
-0.0213875
0.185963
-0.0202256
-0.0769537
0.159064
-0.00133922
0.00409333
0.0365944
-0.00538784
-0.0312065
-0.0568028
0.124346
-0.0675437
0.00954313
0.00395353
-0.0839401
0.0934846
-0.00954445
0.00603961
0.0259089
-0.0319485
0.311324
-0.211202
-0.100124
0.078164
0.0127165
0.0763306
-0.0921596
0.516356
-0.243487
-0.272877
0.0130528
0.00131859
0.025781
-0.00914261
-0.0166384
0.16476
0.0203059
0.310739
-0.131488
-0.179254
-0.0476776
0.0384221
-0.111646
0.127406
-0.0157594
-0.0234882
0.0388111
-0.0153229
-0.264403
0.182404
0.603592
-0.0566917
-0.546922
-0.0944171
0.130573
-0.0361556
-0.132059
-0.0170218
-0.503176
0.334399
0.000388009
0.503812
0.0997583
-0.0973614
0.0134213
0.225228
-0.214559
-0.0106696
0.0103431
-0.132843
-0.253142
0.176065
0.208636
0.187454
-0.135559
-0.0027621
0.138321
-0.00738198
-0.00922226
0.174818
-0.150533
-0.0242851
9.16441e-05
0.0158325
-0.288826
0.484213
-0.195408
-0.419879
0.0155548
0.404313
0.00450757
-0.149149
-0.147658
-0.169257
-0.0996019
0.127158
-0.027556
-0.265967
0.176812
0.0891536
-0.113001
-0.0454356
0.0872621
-0.00909815
0.327297
-0.558179
0.230875
-0.0133024
0.0155374
-0.00223508
0.309673
0.358842
-0.107864
0.0993477
0.00851577
0.0121909
0.00372153
-0.0189197
-0.00759362
0.0265133
0.0197751
0.0246587
-0.0481469
-0.0516026
-0.0895577
0.0955633
-0.115771
0.0202075
0.0209193
0.00486171
0.229699
-0.379923
0.150215
-0.0361845
0.0119802
0.134159
-0.15356
0.171987
-0.000442812
-0.00864467
0.00490199
0.085876
-0.090778
-0.352125
0.157602
-0.126747
0.0271448
-0.106185
0.309068
-0.0227423
0.0287819
-0.0145247
0.00301995
0.0115047
0.01959
0.191526
-0.211118
0.0526561
-0.0250962
-0.00934262
0.0344389
0.618985
-0.331616
-0.287374
0.383221
0.23576
0.12839
-0.0113311
-0.0150062
0.00170387
-0.0564984
0.0709203
-0.0144219
-0.219658
0.0346952
0.124525
-0.11254
-0.0119849
0.161327
-0.282235
0.319884
-0.381527
0.0616412
0.0627276
-0.0819163
0.0191887
0.00701739
0.13932
-0.0947492
-0.0445709
0.16393
0.312852
-0.476812
-0.0653125
-0.0641746
0.0914426
0.0409092
-0.132352
0.0249381
-0.136724
0.111786
-0.267149
0.0875553
0.179593
-0.198772
-0.0274237
-0.129537
0.0178902
-0.177097
0.0826793
-0.126868
0.0828557
0.0116223
0.15553
-0.126391
-0.0612296
-0.121503
0.0647005
-0.0939376
0.0766124
-0.0323108
-0.079471
0.0277346
-0.0430408
0.0153063
-0.009038
0.0707487
-0.0751579
0.0173096
0.00285204
0.00142334
-0.00427537
-0.0237162
-0.104572
0.128288
0.0101444
-0.0710441
-0.000484006
0.152232
0.189794
-0.342033
0.104928
-0.181882
-0.122898
0.0905876
-0.0124231
0.184595
-0.172173
0.22294
-0.437374
-0.452628
0.244115
0.208502
0.114722
-0.100451
-0.0142718
0.00210199
0.0126955
-0.206856
0.0543638
-0.00390736
0.00176682
0.188245
-0.477094
0.0146402
-0.0711386
-0.0375768
0.0988579
-0.061281
0.0121635
-0.00112117
-0.0892659
-0.0374809
-0.020617
0.209776
0.101925
0.158088
0.00114691
0.0110165
0.0786562
0.0606638
-0.144166
0.120449
0.011763
-0.316446
0.330903
-0.0880327
0.103113
-0.0150804
0.0068587
-0.0590766
-0.0382848
0.1856
-0.02739
-0.15821
0.112745
-0.109775
-0.00297068
-0.250166
0.21271
-0.336856
-0.0277338
-0.183149
0.338826
-0.0189429
0.0291517
-0.0094301
-0.0197216
-0.413091
-0.152307
0.0833142
-0.0205866
0.0085335
-0.12372
0.0344544
0.00267443
-0.00154235
-0.00113208
-0.00423427
-0.00624194
-0.0962788
0.0372021
-0.0151903
0.110754
0.167743
-0.147968
0.13883
-0.239233
-0.0543946
0.0253575
0.337699
-0.363083
-1.36535e-05
-0.419877
0.393066
0.149316
-0.132101
-0.0172153
-0.0236437
-0.0896385
0.113282
0.105535
-0.0140923
-0.0118788
0.0863675
-0.244049
0.0104123
0.233635
0.00487837
0.485074
0.111941
0.00761878
-0.00490757
0.00873716
-0.144284
0.135547
0.0413216
0.44375
0.235054
0.244243
-0.479298
-0.0159963
0.0254488
-0.0094525
0.0303145
-0.219598
0.0236117
0.0345922
-0.0582039
0.0224016
-0.00148237
0.115431
0.0937949
-0.125864
0.0320694
-0.234302
-0.147719
0.382009
0.00329073
-0.0204801
0.00459624
0.157988
-0.162585
0.0583149
-0.245506
0.00534579
0.340535
0.183479
-0.524014
0.0201139
-0.252922
-0.153874
-0.185278
0.339145
-0.0194024
0.147807
-0.128405
-0.00859301
0.00983108
-0.00123807
0.0274231
-0.194371
0.166948
-0.175946
0.176023
-7.79809e-05
-0.116987
0.00723632
0.0039824
-0.000483928
-0.175008
0.113724
0.0163833
0.136878
-0.153262
0.0314265
-0.00744953
-0.023977
-0.356805
0.382134
0.0231687
-0.329651
-0.191808
0.521445
0.0470826
0.251141
-0.0778842
-0.0117699
0.089654
-0.0734102
0.117374
-0.0439638
-0.0195311
-0.10044
0.119933
-0.0144444
-0.105489
0.0168373
-0.540354
0.313547
0.226805
0.375554
0.221461
0.120739
-0.120803
0.236675
0.0746464
-0.120986
-0.419369
0.199403
-0.22404
0.0246361
0.117377
-0.00550288
-0.111875
-0.398466
0.435329
-0.0368846
0.0952598
-0.110314
0.0150542
0.025803
-0.0609292
0.0535335
0.00739576
0.00155968
0.118373
-0.00218053
-0.00087384
0.00305437
-0.00525667
0.128983
0.479364
0.121629
-0.119959
-0.00167012
-0.518704
0.239468
0.279218
0.139534
0.0984614
-0.0187944
0.046529
0.0298261
-0.00200537
0.000409837
-0.0349047
0.0274552
-0.182196
0.304405
-0.122212
-0.192544
0.212131
0.120051
-0.0797011
-0.04035
0.224058
-0.210656
-0.0134029
-0.190197
-0.191664
0.381851
-0.0129264
-0.0238636
0.095092
0.00675933
0.00108925
0.00747076
-0.00856
-0.0153433
-0.117116
0.0437054
-0.345882
0.306149
0.0397322
0.00620131
-0.33232
0.10338
-0.0562181
-0.0471619
-0.0806957
-0.0441531
0.252547
0.488645
0.138314
-0.626961
0.0271276
0.0832842
0.107177
0.000641989
-0.107819
-0.000795135
-0.253168
0.0357267
-0.628988
0.364089
0.264885
-0.00982029
0.00122728
-0.252226
-0.014923
-0.017227
-0.160665
0.177892
0.361169
-0.516924
0.00118069
0.000595968
-0.00177666
-0.47891
0.168755
-0.0181966
0.0040926
-0.280718
-0.123824
0.404539
0.0119485
-0.116289
0.181649
-0.156175
-0.0254745
0.133616
-0.0702929
-0.0633228
0.0096539
-0.313498
0.0897111
-0.264522
0.153668
0.110853
0.597851
-0.348327
-0.249551
-0.019035
-0.0634911
0.0825261
0.0709704
-0.239845
0.168874
-0.0205456
0.0160695
-0.0504738
0.257002
-0.20653
-0.0856348
0.0312602
0.0543746
-0.00647106
-0.00881903
0.0152901
0.0161731
-0.176488
0.160314
-0.158648
0.412117
-0.253497
-0.000599989
-0.0084114
0.00901139
-0.0437261
-0.012622
0.0563481
0.227508
-0.138561
0.0988037
0.0185701
0.0416915
-0.280925
-0.0164017
0.000697828
0.0157039
0.326202
-0.173975
-0.06453
-0.0583684
0.473631
-0.222468
-0.251171
0.428292
0.169537
0.0637433
-0.0401317
0.0116183
0.291018
0.207519
-0.182447
0.0568932
-0.00404157
-0.00261142
0.00665299
-0.0549419
0.0662763
-0.0113344
-0.0353004
0.0102042
-0.129202
-0.219013
-0.00235901
0.00521104
0.113343
0.344942
-0.6075
0.209007
-0.228098
0.209507
-0.405314
0.299167
0.288443
-0.550488
0.262041
0.0309761
-0.01009
-0.0208861
0.0479935
-0.0158036
-0.0321899
-0.277842
0.100991
-0.435708
0.535444
0.146386
0.0482661
0.0717484
0.268088
-0.00811855
0.00751856
-0.00268855
-0.000855515
0.00176944
-0.00146007
-0.179992
-0.0845307
-0.0846485
0.251367
0.264981
-0.029639
-0.165061
0.0711431
-0.10872
-0.141739
0.371429
0.1855
-0.51516
-0.106684
0.0945343
0.0121496
-0.00563108
-0.00889361
0.1248
-0.0310057
-0.0102164
0.153343
-0.0204345
-0.132908
-0.409476
0.214883
0.159825
-0.0083296
-0.151496
0.118848
-0.0200443
0.013645
-0.0144529
0.000807883
0.155703
-0.173799
0.0628952
0.0108021
-0.0736973
-0.120052
0.0393558
0.0632877
0.43023
0.0105022
0.00825889
-0.0187611
-0.003644
0.0141462
0.00183201
0.0104241
-0.0122561
-0.0686659
-0.0566369
0.0679663
-0.0113294
-0.0947853
0.179628
0.0586356
0.00592123
-0.02542
0.0919402
-0.0665201
-0.192294
0.17987
-0.584304
0.368197
-0.0326176
0.0300668
0.00255077
-0.234503
0.224569
0.00993191
-0.476673
0.317994
0.0379074
0.247039
-0.220191
-0.0143131
0.000669331
-0.109654
0.227262
-0.383017
0.155743
0.0068627
0.152963
0.000302709
-0.00125463
-0.127003
-0.116517
0.243518
0.00226353
0.0136161
0.0763194
-0.220567
0.144247
0.00530399
0.105214
-0.110518
-0.000140331
0.00370983
-0.0035695
-0.291273
0.0779378
-0.0654746
-0.222351
0.113957
0.108393
0.178381
-0.162209
-0.0654013
0.0104594
-0.0194812
-0.103396
-0.00180659
0.105202
0.153817
0.00610144
-0.010143
-0.160017
0.321108
-0.161095
0.00198833
-0.0157571
0.0137687
-0.0209411
-0.163818
0.000634411
-0.00153539
0.000900974
-0.0139868
0.0130313
0.000955532
0.0139459
-0.0119575
0.00193655
0.129961
-0.131898
-0.14683
-0.154146
0.300974
0.118466
-0.300666
-0.326037
0.65749
-0.331458
-0.174316
0.418777
-0.106846
-0.311933
-0.00392761
-0.16414
-0.0107064
0.0196997
-0.153164
0.133464
-0.0564829
-0.118525
0.120536
-0.215322
-0.367755
0.238538
0.00117539
-0.188352
0.187176
-0.176841
0.168517
0.00832379
-0.149802
-0.150779
-0.126981
0.191283
0.0127251
0.00433092
-0.017056
-0.0148217
-0.0666944
0.0815161
0.0240218
0.168493
-0.192515
-0.140853
-0.0026111
0.143464
-0.0243046
-0.00831303
0.227472
-0.00513831
-0.002238
-0.560781
0.203948
0.14212
0.00220645
-0.144327
-0.136933
0.207903
-0.189198
0.355337
-0.166145
0.110993
-0.141884
0.03089
-0.160287
0.42485
-0.146583
0.373831
-0.0592779
0.105542
-0.0947982
0.281178
0.103217
0.0141605
-0.302049
0.154389
-0.0130528
0.00113655
0.0119163
-0.0848975
0.0989104
-0.0140129
0.0123804
-0.0978101
0.0854297
0.0822277
-0.0890753
0.133682
-0.328424
0.194737
0.000110499
-0.117472
0.108413
0.00905845
0.528119
0.00775317
-0.0199742
-0.207748
0.00103437
-0.00617268
0.210922
-0.207163
-0.00375977
-0.0642823
0.0650607
0.0276895
-0.0116414
0.000517926
-0.127221
0.0898318
0.0373895
0.123024
0.192053
-0.315081
-0.0376235
-0.0245916
0.0896523
0.0150921
-0.110495
-0.111857
0.324292
0.159901
-0.259367
0.387746
-0.128388
0.0632384
0.0977715
0.256674
-0.305138
0.0484621
0.00052109
-0.00708225
0.000157768
0.276705
0.300651
-0.0488758
-0.0593137
-0.106695
0.0271105
0.0795846
-0.304703
0.150821
-0.00607912
0.0188042
-0.0110018
-0.00719477
0.10886
-0.0137679
-0.216774
0.166299
0.00970924
0.0283116
0.153823
-0.163587
0.478856
-0.315284
0.00730508
-0.00621583
-0.130031
0.146414
0.377074
-0.261416
-0.115666
0.42491
-0.178545
-0.246372
-0.190521
0.171104
-0.164518
0.138947
0.0255703
0.0115747
-0.0186699
0.000867282
0.00290935
0.0216566
0.133426
-0.155083
0.0225538
-0.00585574
-0.016698
0.0683386
-0.215339
0.147
0.162538
0.161072
-0.323613
-0.0867101
0.042025
0.0446851
-0.234916
-0.217722
-0.0124825
-0.0810485
0.093531
-0.399914
0.592563
-0.245061
-0.347525
0.128456
0.0813847
-0.209841
-0.0797746
0.00166721
-0.0151387
0.0134715
-0.0137247
-0.00267703
-0.0768381
0.0912972
-0.0144591
0.000492271
-0.00843145
0.00793918
-0.00636296
0.0222764
-0.0159134
0.122925
0.0255174
-0.0890566
-0.210236
-0.149921
-0.152131
0.0172019
0.137711
0.499767
0.0363721
-0.536201
0.147181
-0.138444
0.0166323
-0.0314164
-0.0508392
-0.113883
0.544903
-0.107623
0.144277
-0.0366535
-0.00557617
-0.101338
0.112804
-0.0114654
-0.00616908
-0.00946352
0.123512
-0.0992676
0.43547
-0.166564
0.0920172
-0.0887317
-0.00328551
0.0184155
0.180987
-0.00482251
-0.00664848
0.0252843
-0.299492
-0.329511
0.1406
0.236465
0.441817
-0.274679
-0.167145
0.220439
-0.0358348
0.098234
-0.0920518
-0.00618227
-0.00714716
0.0330561
0.00624081
-0.0222371
0.0582112
0.109532
0.312149
-0.472443
0.0172366
0.0858765
0.228872
0.0917403
0.0128666
-0.0804757
0.0044076
-0.00445417
0.131213
-0.115412
0.0013364
0.00819178
0.00771619
-0.00640876
0.00422823
0.0191983
0.112431
-0.131629
-0.0244855
0.180188
-0.00700003
0.00464103
0.188902
-0.164881
0.0788215
0.0890979
-0.16792
0.0895567
0.0304942
-0.0205109
0.336454
-0.142729
-0.193727
0.052016
0.0142604
0.325543
-0.163008
-0.0342028
-0.0147277
0.0489305
0.00289892
-0.375278
-0.18553
0.174017
0.149302
-0.0383086
0.107196
-0.00568588
0.18206
-0.141694
-0.0403663
-0.34566
0.551925
-0.206281
0.0287852
-0.207828
-0.175565
0.21254
-0.0369749
-0.11886
-0.116559
0.235418
0.0150865
0.0511233
-0.0662098
0.277268
-0.458659
0.181391
0.00973173
-0.0534579
0.0112822
-0.00945022
0.176956
0.148585
-0.181918
0.157432
-0.0291294
-0.135389
-0.488203
0.244708
0.0305811
-0.000755074
-0.00823012
0.00022709
0.0172379
0.0037274
-0.0209653
0.207364
0.245861
-0.453234
0.0245747
-0.209418
0.184842
0.0171585
0.17524
-0.1924
-0.223211
-0.0216667
0.244877
-0.0980091
0.0206059
0.0774032
0.0269166
0.37902
-0.598548
0.219526
-0.0157561
0.115165
-0.0994091
-0.133636
-0.0434607
-0.0693835
0.0204633
0.0489202
0.15201
0.00019679
0.0369371
-0.212503
-0.224033
0.0553651
0.168667
0.0899702
0.120563
-0.0154614
-0.105102
0.118766
-0.234856
0.367166
-0.132314
0.00802705
-9.64509e-05
0.00112004
-0.00102359
-0.0330599
0.0243085
-0.00349764
0.0102428
-0.0476104
0.0134076
0.00392594
-0.000300177
0.000934588
0.366357
-0.19051
-0.175851
-0.33778
0.165534
0.183216
0.117054
-0.300275
-0.015675
-0.071553
-0.106015
-0.0388493
-0.116184
-0.0144643
0.0138226
0.000641718
-0.319161
0.159139
0.185197
0.338249
-0.523487
0.37894
-0.0143518
-0.0758725
0.302778
0.213764
0.133577
-0.21133
0.0777519
0.0972483
0.0947591
0.0715269
-0.0574941
-0.0140328
-0.108547
0.215022
-0.106475
-0.334949
-0.183771
-0.447937
0.259866
-0.140055
0.329852
-0.189802
0.185489
-0.621218
0.124386
-0.112052
-0.0123344
-0.0776901
-0.020319
-0.0433074
0.122129
-0.0478491
0.0111143
0.0367348
-0.202652
0.346368
-0.14372
0.152984
0.00392398
-0.0190764
0.0126054
-0.0123068
0.000574076
0.0713436
-0.000852875
-0.0704907
0.0623192
0.0436954
-0.106015
0.0559505
0.0330735
0.427514
-0.12699
0.114401
0.0125886
0.0196103
-0.243645
-0.425211
0.144489
-0.186295
0.1978
-0.0115062
0.00378026
0.111978
-0.283705
0.171725
0.115073
0.00549047
-0.0768995
0.064417
0.29798
-0.194466
-0.304198
0.114995
-0.158086
0.127192
0.0308943
0.00195524
0.365219
0.207316
-0.572537
0.0295197
0.0420073
-0.124541
0.307751
0.07425
-0.089925
0.463373
-0.228319
-0.0998802
-0.177965
0.0720004
-0.062522
-0.0301611
0.0926831
0.0584894
0.226958
0.0188684
-0.0821
0.00418189
0.00427035
-0.0909908
-0.0244186
0.00881346
0.0156051
-0.343844
0.104263
0.000891442
0.0127536
-0.0876914
0.0622714
-0.395829
0.299338
0.0964884
-0.00505344
-0.0836783
0.0224489
-0.105193
0.0761864
0.0290061
-0.224716
-0.193255
-0.114348
0.307598
0.430378
-0.44269
0.0122923
0.309099
0.253677
-0.0447598
-0.208919
-0.138711
0.140707
-0.0019965
-0.111767
-0.0164073
0.128174
-0.186249
0.30927
-0.217888
0.432285
-0.103394
0.0331712
-0.243166
0.420856
-0.177704
-0.0357921
0.0265248
0.00926728
-0.182713
0.02121
0.000952088
-0.00361925
0.00266716
0.0710259
-0.103616
0.248165
-0.473907
0.225738
0.0168081
0.244271
-0.533544
0.289242
0.189296
-0.0265026
0.112225
-0.129659
0.0174339
0.0869254
-0.0155818
0.132619
-0.130682
0.334937
-0.593569
0.258629
0.113848
-0.0265801
-0.0874631
0.0392637
0.0481994
0.109866
-0.104562
0.0257505
-0.107736
0.0819857
0.135221
-0.0996979
-0.0355232
0.10733
-0.130974
-0.0780856
-0.0427311
0.128873
-0.001964
-0.126909
0.0822782
-0.190826
0.226808
0.191598
0.0690805
-0.00533724
0.00417633
-0.0398407
0.214043
-0.174204