/*--------------------------------*- C++ -*----------------------------------*\
| =========                 |                                                 |
| \\      /  F ield         | OpenFOAM: The Open Source CFD Toolbox           |
|  \\    /   O peration     | Version:  v2012                                 |
|   \\  /    A nd           | Website:  www.openfoam.com                      |
|    \\/     M anipulation  |                                                 |
\*---------------------------------------------------------------------------*/
FoamFile
{
    version     2.0;
    format      ascii;
    class       volScalarField;
    location    "350";
    object      omega_0;
}
// * * * * * * * * * * * * * * * * * * * * * * * * * * * * * * * * * * * * * //

dimensions      [0 0 -1 0 0 0 0];


internalField   nonuniform List<scalar> 
13851
(
0.12258
0.0239265
0.0238157
4.99094
0.0220825
0.0256569
0.0237224
0.021844
3.74149
0.022041
0.0657915
0.0220798
0.0221069
5.60085
0.0347554
0.126624
7.97185
0.0219082
0.299827
0.12271
0.0391731
0.0259352
23.2524
0.0222638
6.37467
0.0607713
0.231657
2.71794
3.52699
0.0217644
4.92889
0.0237271
0.120187
4.90769
0.0438507
3.50737
0.0222741
9.19193
5.25149
0.0220743
4.88978
3.64145
19.6849
0.661313
3.83124
0.0218849
0.0215926
0.119709
0.0233269
0.0221018
7.78573
0.0221637
0.126385
0.0292999
5.57894
0.0220732
0.122345
4.71264
0.30141
5.61548
0.0220875
0.246851
0.0220965
0.0234558
0.229146
0.244437
7.42298
0.0680735
0.0221038
4.75199
4.56079
0.047235
0.0220163
6.65578
0.0307365
0.0236408
6.48576
0.0216706
4.6577
0.0219486
0.0221168
0.364349
0.0432486
5.22273
5.4212
4.75594
0.0260964
6.87266
0.0220277
4.9545
0.0221998
0.0238063
24.8164
4.61299
4.66216
0.383992
0.021916
0.128865
7.34139
0.190061
0.133035
0.0433781
0.0466704
0.0220619
0.0218693
0.0460681
0.021871
4.61712
0.0238039
0.0218869
0.030893
0.0218826
0.164189
0.0618871
0.117304
0.0286095
0.0217779
0.0218026
5.14929
4.97438
0.238637
0.0218023
0.0220963
3.96007
0.225599
0.126224
0.0219147
0.0571887
4.4683
0.0438067
0.0258655
0.0309947
5.49547
4.79188
0.0670661
4.69399
0.065608
4.66867
0.0358818
0.0432424
0.34311
0.022616
0.0220272
0.109622
5.84935
0.0234223
0.021664
4.63689
3.55277
0.059672
0.132154
0.158077
0.0665408
0.230758
0.0222645
0.0220493
0.0221023
4.98522
0.0400341
0.0232432
0.0222429
3.51757
0.0451198
0.119877
5.40159
3.93308
4.00134
6.4015
0.0303853
6.29109
0.0221028
0.0217815
0.0565193
0.0221391
4.84088
0.268959
0.141917
0.0217676
0.0306904
0.13875
0.219282
0.614729
0.0295446
0.0433294
21.8041
3.52468
0.120367
0.0294742
0.0221975
0.0218182
3.83434
0.0399967
7.61612
0.0257137
0.0232847
0.127663
0.116516
0.0220602
0.0221352
0.0719256
0.35081
4.7146
4.77076
0.0347934
2.89041
4.54236
0.0236844
0.0423627
3.79492
0.0251519
0.126064
0.0220798
0.361613
0.0222346
0.0446939
0.0243539
0.0220817
0.201747
0.0221261
3.84426
0.021766
0.122918
6.35101
4.75274
0.0291258
0.042843
0.0222639
0.0949936
0.0220109
0.0440707
7.51456
0.0290718
0.0251317
0.0221176
4.6341
0.0217586
17.6052
4.72579
0.164792
0.0222513
1.20869
5.24704
3.9051
0.125195
0.0318637
0.146356
0.180334
0.0307852
0.358051
0.0327102
6.31469
0.127961
0.0218482
0.0254336
0.130484
3.46554
4.62399
0.0218151
0.132268
0.0220247
0.169603
0.224651
0.0257548
0.0456806
0.131629
0.0219761
0.0450952
0.101668
1.52847
0.0220816
0.0220791
0.0292792
4.25358
6.83933
0.0436464
0.0218166
0.218939
0.226838
0.105283
0.0449763
4.1461
7.48713
0.0262124
0.0319102
9.51844
0.0218583
0.0221017
0.108663
0.057287
0.0217543
0.0222319
0.0220024
0.0220002
0.0315617
0.0220951
3.80006
0.0411397
0.0219712
3.44252
3.97473
0.0221868
0.124395
7.86776
0.0227331
0.0222107
0.0430784
5.57474
7.80126
0.0614723
0.0220727
6.19329
0.022095
0.0670881
6.25302
1.29749
0.0231502
8.71187
1.80375
4.71967
0.156539
0.0458201
4.97774
4.03416
2.21709
0.0221976
5.71905
21.6558
0.829769
0.740441
0.0237036
0.0613655
0.0296432
6.17775
0.0493679
0.0218738
0.0215313
0.0272679
4.59567
3.23903
0.0218509
4.61221
0.0298993
0.0312849
0.0233531
6.71838
0.217207
0.128423
0.024098
0.0246698
3.43054
0.0222071
0.237385
0.0261043
0.0430146
0.0304045
0.0220235
0.0219685
0.159637
0.208217
0.127608
3.15123
3.48666
0.0234956
4.59074
0.202616
0.0217034
1.5574
0.0840944
6.11629
0.0267047
0.064585
0.203183
5.62491
0.153161
5.28556
0.0225606
0.265843
15.7092
0.0294642
4.93631
0.0318994
4.95565
0.0315193
0.0371253
0.129653
0.281386
0.0220498
0.0258448
0.061918
0.0308748
0.0219051
0.0439211
5.38456
0.0220124
0.0425693
5.87149
0.0238586
4.50982
0.0408559
8.15865
0.0256369
0.0573609
2.25475
0.230438
0.0454768
5.5103
6.42688
1.07196
0.0219805
0.156144
0.0321999
0.0636029
0.0218177
20.953
5.60613
5.38044
0.0246124
0.13146
0.25388
6.51488
0.0215976
7.39384
0.318249
24.0051
0.0337043
3.37499
0.0220323
0.0221268
6.70408
0.257596
0.0220384
0.0239682
0.0433766
0.0218155
5.58899
0.0614554
0.0826069
0.0251171
0.0225738
0.0221857
3.98351
0.0219703
0.0221645
3.95649
5.3933
0.0254768
0.238367
0.0221033
0.0220939
0.0241702
0.129977
0.040447
0.0219144
0.0227566
0.223386
0.0231347
8.71283
0.022075
0.0264783
3.89671
0.0355449
0.0215862
0.0221204
0.0250697
0.0221738
1.073
4.04419
0.03211
7.8236
0.0241996
0.022055
4.27404
0.212903
0.0353063
0.0220293
3.97734
0.0345654
6.50704
0.0220639
0.0311912
0.158451
0.0324807
4.16023
0.252873
4.50937
0.0237645
0.161504
0.0219723
3.47005
0.0408082
0.116256
0.0319637
0.0238894
0.035477
0.0568369
0.0220943
6.912
4.16444
9.05317
5.96933
4.04952
4.97726
0.233678
0.028091
0.0222069
7.77915
0.0220437
0.0219053
0.0301551
4.94553
0.0237153
0.0226198
0.0897269
0.0461669
0.0220472
7.80339
0.0219206
4.57493
0.970589
0.0219447
0.0231724
0.325671
1.69193
0.0217609
10.3101
13.7518
0.0216738
4.89876
0.291034
0.122529
0.0237392
3.94149
5.90913
0.0216883
0.305908
0.022098
0.0219211
3.61549
5.04692
0.0375759
0.0397183
0.0220449
0.0517587
4.58646
4.91256
0.0217728
6.35458
0.0219118
0.0221108
0.0458735
0.0264409
0.0215917
0.0236572
4.98559
0.257891
4.77533
0.0234329
0.0220208
4.27524
0.0221786
0.156511
0.0265005
0.0308277
0.0318233
4.09261
6.08975
0.025527
7.46048
0.0229776
0.0619879
3.70199
4.36264
0.0220971
0.0219772
0.0469414
4.81021
0.226867
0.050853
12.6388
0.0265478
0.0306943
9.87146
7.91671
0.162759
4.44848
0.162669
3.60287
0.0223869
0.300893
1.23114
0.0220767
18.5222
6.95829
0.0303683
0.0432888
0.022057
6.81915
0.0775258
16.6314
0.0219708
0.0221657
0.0265378
0.045622
0.0220848
4.76756
0.02216
0.157395
0.0238351
0.0650068
0.0220568
0.022047
0.0462262
6.75421
0.0455578
4.60023
0.0311962
0.0218242
0.0217524
0.0570627
0.0227554
0.0980898
0.0241062
0.0347379
0.253595
0.0221805
5.52742
0.0222536
0.0865358
6.44827
3.99504
0.0282198
16.8174
0.0872002
0.281129
6.85535
0.0218286
7.75073
0.0298861
0.0304057
5.72489
1.06181
0.0217128
0.0954384
0.0220388
3.49253
7.0128
0.0221815
0.0719061
5.75183
0.0222634
0.022252
0.0613758
6.83285
3.75334
0.0222177
0.130422
0.02296
0.0220453
0.241592
0.131899
0.175716
0.0215824
0.101838
0.046344
0.0535575
0.0226571
0.0231369
0.072849
0.0263729
0.110732
0.0469607
0.047144
0.133468
3.15438
0.298393
4.81838
9.8514
0.125808
4.19705
0.0397171
3.70307
0.125734
0.0218802
0.0301295
0.250381
0.0266444
0.0219512
0.0219481
0.0866895
5.89416
0.0266324
4.55904
0.0218279
3.87459
0.150943
8.40996
0.0953966
0.025767
0.0238065
6.95031
0.174324
0.0381148
0.257105
0.0224402
6.02016
0.0872924
0.160007
0.0316953
0.487683
0.0220287
0.0222452
0.0234006
0.0220439
3.69615
0.022
0.232846
4.16571
0.0980536
4.98689
6.51547
0.165296
0.302753
0.0285467
0.0221799
0.0220642
0.0216796
0.0217529
0.0221411
0.0622428
0.157547
0.0502024
1.90545
0.0230305
3.74549
0.0222934
4.93658
0.0407374
0.0222835
0.0221327
3.99712
0.0258215
3.99878
6.90554
0.0414295
0.0622099
0.021658
4.7968
0.0242978
0.0237518
0.30021
0.0221831
0.0226204
0.0218235
0.0409073
5.64131
0.0287665
0.0319016
0.347934
4.72256
0.0290887
0.0267114
3.68914
0.0216775
3.62281
0.0222021
0.023141
4.19164
0.0725012
0.115875
0.0922659
0.0457967
0.0222271
0.0222936
0.06702
0.0224298
0.0222345
0.0270389
0.335039
0.0219832
0.259431
3.42836
3.70009
0.091008
5.56703
0.0364844
0.0221753
0.151117
0.0218412
0.0258729
4.75025
3.47078
7.79807
3.81429
0.0222446
0.0221542
0.0699269
0.0229892
0.0218297
23.5419
0.173134
4.74086
0.0877169
0.0740457
0.022045
0.0217701
5.21394
0.0831812
0.0234026
0.0222529
0.115439
0.186236
4.66818
0.0222526
0.0221516
6.86272
0.0226345
0.0318759
0.0218203
5.01959
0.0219163
5.83776
0.0220735
0.147372
0.036958
0.0703109
0.0318529
0.0220164
0.0239954
0.0220218
0.210608
0.0226418
3.77474
0.0224991
4.09434
4.29773
0.0302824
0.0220032
5.19541
4.12032
0.0259549
0.0721568
0.0220636
6.38273
0.0218966
0.252858
0.0220634
0.0220185
3.78398
0.0319744
0.0221103
0.0296596
4.54181
5.35103
5.80667
0.0218195
4.0098
0.0220743
0.0219906
0.0222608
0.021497
0.022233
6.06885
4.91658
0.0221363
0.0221562
0.0378136
0.0218827
4.99027
0.155087
4.76054
5.09138
0.0239661
0.110488
0.0220694
0.0392449
0.120292
0.0218124
0.0222104
1.48316
6.88816
0.0608905
17.515
0.056071
0.0221006
0.0398935
0.0732821
7.87496
0.0304939
1.86768
0.0852268
0.0222236
14.7845
13.5402
4.3467
2.82557
3.54681
0.0237076
0.141515
0.0221674
0.4431
0.0261373
0.0218758
5.89548
0.0229343
0.0220044
0.0220949
0.0227995
4.82607
0.240897
0.0218666
0.0405932
5.65658
0.0230491
16.9663
0.0232086
0.0700156
4.96134
0.0220979
0.217199
0.0292277
0.031616
6.04793
0.0229144
0.350188
0.0565961
4.792
0.0220919
4.39975
0.029247
4.13123
8.05178
5.69252
0.0413223
0.0220316
0.0222521
0.0222632
0.035551
0.0221233
4.26207
0.0287171
0.0278742
0.0288335
0.0236429
0.0218177
0.0256722
0.0270927
0.023176
0.026819
6.54895
0.204615
0.0284722
0.0498647
5.92744
0.0226685
4.66311
0.02169
0.0327624
0.0226509
0.0219227
0.0445898
0.0220495
0.0218615
0.0453838
0.022056
0.314967
0.0226121
19.5188
0.601155
0.185884
0.263633
0.0220081
4.79064
0.141393
0.022226
0.027007
0.0225367
4.84395
0.0231928
0.0447558
1.45364
6.60102
0.082432
0.0220835
4.04774
1.11409
3.64373
0.0291723
0.0218151
0.0217573
0.0616185
0.0220311
7.12277
0.15998
0.0221974
0.203002
0.324052
0.0218122
6.62863
6.47146
0.168406
0.0225954
4.03143
0.061883
0.0220203
6.26679
0.026546
0.0218054
0.021934
0.029721
0.0358788
3.92521
5.36326
0.0372677
4.00604
0.031226
0.0220148
0.0836973
0.0219542
2.73981
0.0217893
0.0220462
0.0239026
0.022394
4.22187
5.5349
0.220538
6.32055
7.84773
0.0290298
0.0220172
0.0226177
0.358651
0.0217724
0.0218964
0.042721
5.79225
0.197322
0.021647
0.0386566
0.0320468
0.123946
17.0041
0.0216691
0.0215802
0.0230993
4.14089
0.0269916
4.5918
0.0231258
0.022163
0.0218063
0.0219272
0.0243065
0.164954
3.65193
3.9016
0.0288415
0.0220552
4.27486
0.0221741
4.67981
4.78343
0.0303811
5.5899
3.633
5.0374
0.0482529
0.0302732
3.82132
0.0293227
0.0334775
0.0713665
0.286811
0.0224032
5.27109
0.0220172
4.59072
5.0925
0.021694
0.023844
0.0454487
0.35988
0.031696
0.0221427
0.0266944
0.023212
0.024885
1.20444
0.0221624
4.16674
5.66947
0.0220195
0.029394
0.0356323
0.0220827
3.41506
15.2643
4.8714
3.38885
0.0220379
0.0244238
0.0261426
0.022269
0.223447
0.0319585
0.0222565
0.055008
0.0258048
4.63094
0.0370235
7.08713
0.023114
0.0230816
0.0509439
0.0841025
0.0667594
0.0219794
16.9616
4.07163
26.2427
4.67945
4.67239
3.91329
4.21526
0.0219833
0.022022
0.0219349
0.227011
0.0399517
0.066696
7.42407
0.0220446
0.0216624
0.0220427
0.19988
0.0216541
0.0257152
0.0235808
3.97943
0.0229168
0.0218491
0.0220863
0.0219672
0.0221628
0.034157
0.213416
0.0336006
5.48188
0.0220313
0.0219276
4.45672
4.50038
6.57152
3.73998
0.0479895
3.80779
0.0218108
0.0606771
0.0230863
0.0220791
0.023618
5.275
0.0227621
0.0852767
5.10899
0.0221112
0.0219127
0.0263584
0.168606
0.0222719
3.97634
0.0219202
0.196623
0.0221257
0.0221367
0.0260091
0.0973744
0.022116
0.218697
4.59878
0.171137
4.83166
0.0220337
6.59876
0.258654
0.0220477
5.38481
0.0222631
0.0424474
0.0222023
0.0219815
0.0219599
0.0220456
0.0223733
0.027154
0.0596956
0.0221362
0.022097
0.0622884
0.0216908
8.76784
0.0221261
0.0305893
0.0309736
4.91745
0.820048
0.0221471
0.170315
0.0218155
0.0283746
0.0688466
3.52748
0.043172
0.0222723
0.0980709
0.0763106
0.07377
0.316005
0.0354472
0.139686
0.0508836
0.0599946
0.0228808
0.021816
3.68208
5.59024
0.0243113
0.0220164
16.237
0.0218307
0.0391002
0.0219577
0.0814617
6.78151
0.02153
6.42624
0.0254956
0.0221705
0.139211
0.0218763
0.040854
3.31883
0.0377308
3.73531
0.0219547
0.0222647
0.044032
0.0222257
0.0222465
0.026554
0.0284325
0.060351
0.0856974
0.0220843
0.0386225
0.0218079
0.0220625
0.0222148
0.0220509
1.59027
0.0218205
0.0232481
0.237724
0.021826
0.0220048
4.38454
0.0222496
18.9331
0.0228949
4.45161
0.209628
0.0516862
3.94651
0.0641739
2.04428
0.0222593
0.18904
0.026561
0.0218044
0.0218893
0.0232301
0.0295013
0.0219592
0.0531844
0.0219025
0.0230562
17.4832
7.74003
4.36808
0.0235741
0.0463167
5.00591
5.94305
0.0221727
0.0254607
2.02298
0.0220755
0.0393821
3.56662
3.91443
0.0259896
0.0387392
0.0227124
0.344612
0.0222851
0.0355633
3.21382
0.0221565
0.0218579
8.8864
0.0424419
0.234182
4.94242
0.0872376
0.0224055
0.0219066
0.0221665
4.94863
1.03862
5.29226
0.0552299
0.0220434
4.66406
0.0221095
0.161845
0.0266469
0.0229183
0.0396418
0.0220575
6.81681
7.79937
0.021633
0.0613156
0.0409948
3.84072
0.0429625
0.0503939
0.230052
0.0310419
0.195728
0.0527879
0.0221122
0.0324057
0.0811582
4.0318
0.0220337
1.23043
0.0453581
0.0530907
0.0222726
7.84413
0.0252733
0.0235412
0.02184
0.0387115
0.0375105
0.0557095
0.022128
0.0226235
0.0561045
25.9064
0.0595733
0.0221572
0.0226255
0.0322642
0.210852
0.0221715
0.0890579
8.76128
0.047213
4.14797
0.0353794
7.77319
0.341223
0.0219834
1.8354
0.0222385
0.0247389
0.0301694
0.032206
0.0959577
0.0411449
0.0425371
0.0443949
0.0300497
0.0239967
0.0216477
0.0839474
0.0247211
0.0286153
0.662567
0.0258054
0.0300421
0.021944
4.77543
0.0816012
0.0220834
0.0241126
0.0232749
5.57961
0.155855
0.030147
3.83166
0.293003
1.05267
0.086321
0.217335
0.0218896
0.315755
0.0218861
0.0268352
9.53237
3.39305
0.336554
1.81287
0.0221218
6.7528
0.0218867
0.0715139
0.0250333
3.66468
6.02149
0.0248772
0.0220233
0.3158
0.0432945
0.0220179
4.55279
0.0220697
0.0236189
0.0247089
0.0221968
0.0298465
0.0233421
0.0220405
0.0342164
0.475464
0.0368613
0.0597079
0.0220134
6.44379
3.45242
0.0220043
0.244914
0.0249767
0.0290806
5.17136
0.0220008
0.0226685
0.0277819
4.43625
0.0220288
0.0221828
0.0379096
3.58576
0.0219873
0.0318602
0.0338081
0.572384
0.0448331
0.0377593
0.199673
0.0220748
0.120207
0.021711
6.2507
0.0293116
0.0220476
0.025722
0.0942647
0.0221506
0.0220536
0.128126
3.91363
0.0221623
5.55053
0.0221877
0.0216997
0.0600685
0.0220331
0.0218188
6.96232
0.0222736
0.0373616
0.136596
4.96883
0.50245
0.0217568
0.0239907
0.027978
0.0220748
0.0220306
0.0220957
3.16436
0.0221952
0.183893
0.103534
0.0218496
0.0217003
0.0290636
0.103718
0.242866
0.0550607
0.0602934
0.0236934
3.78854
0.077216
0.0282605
0.0366448
0.0650773
0.0877621
18.322
0.0342675
3.67029
3.89738
5.56328
0.0240624
0.0219492
0.0368777
0.0340613
0.0217751
0.022165
0.133596
0.0222433
0.0222358
0.0220505
0.0215837
0.0230747
0.0219655
6.77882
0.0220202
8.78461
0.0220823
0.0871117
0.0224309
0.106239
0.0783965
0.0220358
4.90901
0.0239733
0.0222255
0.0360978
0.021798
0.0305731
0.0219079
3.76258
0.0239934
0.0395272
0.105319
4.84952
0.0281592
0.192162
0.645189
0.0503969
0.0220058
0.0227182
0.110529
0.0606287
7.33823
0.0217573
5.11063
0.0220719
0.0895545
9.02426
0.0353679
3.5505
0.0250037
0.0306394
0.0246752
7.64862
0.0303723
0.0221421
0.0482864
0.131597
0.0231868
0.0220363
0.0221433
5.13801
0.0222521
0.0274515
4.611
0.0258855
0.0219797
0.0559195
0.0246962
4.67455
0.0216618
0.0220121
0.0218644
0.0260374
0.0222477
0.0220246
0.0561098
4.28959
0.0219645
0.0221028
5.06852
0.0220632
6.01056
0.0231348
7.514
0.021847
0.0242175
0.0218134
3.80502
4.83247
0.0300637
0.0710771
0.0268531
0.0219401
0.0221169
3.82295
0.0221369
0.0710507
0.0217854
0.0374261
0.0221897
5.44507
0.0218382
0.039814
0.0218622
0.528738
0.992451
0.0217822
0.0439712
7.33746
0.0594431
3.92748
3.45104
0.247304
0.0233903
0.0321693
0.0876736
2.09069
0.0220076
0.0341313
0.0280294
0.0219649
3.97157
6.15807
0.0608855
0.138855
0.321727
0.0329872
4.28356
0.0217683
0.0217785
0.0962992
8.11733
0.206896
0.156151
0.861567
0.0218115
7.87435
3.81458
9.6976
0.0222027
5.55553
5.33385
1.07698
4.06218
3.80627
0.0736642
0.0295273
0.162924
0.0255529
0.0219659
1.64175
0.0821461
0.0216319
4.65538
0.0221884
0.029187
0.0386917
0.0266386
0.815812
0.0346462
6.21864
0.0391509
0.0261325
3.28683
5.24277
0.125179
0.0223686
0.0257661
0.0675774
0.0581976
0.0218322
0.045675
0.0621576
0.139407
0.0219685
0.178873
0.0241813
0.0486468
4.09517
0.184218
0.0230718
0.13396
4.79655
0.022156
0.0227204
9.03291
0.334538
0.0240573
0.0242319
0.0220914
0.0736895
0.0245382
3.6382
0.0962537
0.0224993
0.0222233
0.0656587
0.0293675
0.281269
6.50137
0.0218717
0.0220317
0.027277
0.0221944
0.0238308
0.0228199
0.0225936
0.0257368
0.0219335
0.0246866
0.0221784
0.0415641
1.84533
0.0222642
5.5868
11.3338
0.0217101
0.248837
0.133982
0.0862019
0.0227017
0.0815346
0.0261544
0.0803032
0.0282962
0.0230713
0.0222094
7.25883
0.0263244
3.76726
0.0226882
0.0220337
0.0220207
0.0700423
0.0219591
0.0455539
0.0531061
1.71181
0.021916
0.285555
4.44398
4.04505
0.0218043
0.136996
1.02181
4.57871
1.36252
0.0225449
0.0222359
0.16448
0.713532
3.28889
0.0372362
0.244579
0.0222315
0.0218164
0.0397029
0.0221958
0.0221298
0.159842
0.0222653
0.0909049
0.0218362
5.20459
5.44634
4.525
4.07532
4.14493
0.0221197
0.0221451
6.91207
0.0217686
0.0217917
0.0216995
0.1227
4.97423
6.71205
0.0274789
0.0219753
0.0230126
0.0370032
5.32741
0.0220372
3.52101
5.33147
0.0221887
0.0221777
4.06166
0.0676669
0.0228639
0.0220392
5.82951
4.38655
0.0219317
0.174979
0.0222535
3.97994
3.26171
0.0229871
7.2557
6.90446
5.4087
0.0218239
0.0220069
0.0222448
0.0222861
4.61323
0.0219083
0.242275
0.213593
8.74715
0.0225126
0.0570198
0.288746
0.0462434
6.81432
4.7306
0.0216343
0.0248554
0.0250127
0.12191
4.2081
0.0215721
5.37219
0.0318985
0.0382789
0.0227127
0.0219477
0.275907
0.038757
5.00512
0.0221956
0.0538241
0.0224411
0.107881
0.0237352
4.19352
2.48553
0.273928
0.0818234
0.0219618
0.0237621
0.0763681
0.227402
4.1881
7.0974
0.0221496
3.68145
0.0926878
5.59931
0.0253529
0.0419824
0.0376472
0.0220275
5.5456
0.0220694
0.0306538
3.46158
5.03039
1.45897
4.84365
0.028097
0.0446419
0.0217317
5.23746
0.0270413
5.86455
0.0217194
4.81543
0.0215368
0.0219994
0.0303169
0.031246
0.0323193
0.0219706
3.73298
0.0386814
0.0219114
0.0368322
3.89507
0.621681
0.02203
5.04767
0.0241678
0.0312689
0.0296248
0.0216931
0.0608624
0.0219921
8.91526
0.0807358
0.0255238
0.0220256
0.355548
0.03731
0.0217183
5.00486
1.21548
0.212522
0.0216198
0.456906
0.0221411
0.146194
0.0262368
0.11904
2.72846
3.89651
0.0344382
4.83857
0.0486823
0.0282381
0.0218235
5.22052
0.113834
0.0985562
0.0620811
0.0222435
3.66394
0.0845734
0.363018
0.234893
6.98047
3.68499
4.68679
5.09282
0.0287396
0.0314772
0.0220959
0.0220169
0.0215908
0.152442
0.0288508
0.0330624
5.20102
0.0219344
0.021858
0.0367095
0.131002
0.0267078
0.0218135
4.80174
0.0238835
0.0411118
0.022195
5.89239
0.0286231
6.00028
0.0558185
0.0320866
0.0513192
0.0220888
8.03004
0.292627
0.0663775
0.0220344
0.0219101
6.92892
4.75541
3.44462
0.0218185
0.0676953
0.323386
0.0219836
0.022007
0.022062
4.8312
0.101282
0.034037
0.0257957
0.0250929
4.67371
0.0881559
0.217302
0.0251564
0.0306688
0.0215762
0.126445
0.0536076
0.0220095
3.78118
4.80783
4.40463
3.92924
4.9882
8.70744
6.86857
0.0231208
0.0217888
5.98335
5.00236
5.72909
0.0220603
0.0370664
0.0220455
0.0219606
3.28413
5.1843
0.0568157
0.0220007
0.265058
0.0839942
0.0455903
4.24584
1.53577
0.247604
0.0219154
4.18376
2.788
0.352929
0.0296721
0.0393148
0.0221721
0.0218739
0.0370224
0.0431136
0.0242348
0.0362242
0.0266881
0.0248655
0.218314
4.11286
0.0313544
0.0376647
4.09593
0.18862
0.0221114
0.469763
0.962876
4.7183
0.0392957
0.02207
0.0282493
0.026421
0.029968
0.021691
0.0330817
0.0291139
0.0406421
0.240307
0.0222306
0.0228865
3.77395
3.88298
5.10221
0.297769
0.0965325
0.0215221
0.0220446
0.0291281
0.0217263
7.25981
0.0220351
0.0222733
0.0217216
3.73137
18.8798
0.022406
0.0552898
0.0278021
0.0351378
0.0289452
0.0350967
0.0367463
0.0360849
4.90426
0.0253345
4.65992
0.0378829
5.10462
0.028506
0.0219355
0.0218187
0.0841681
0.129116
0.0218256
0.0389598
0.0286477
0.0562678
4.00488
6.83667
4.43439
0.0222731
0.518833
0.0294764
0.0358291
0.0220265
0.0659563
0.0236087
3.63381
2.08022
0.0388801
0.0220782
3.86216
0.0272382
4.34748
5.06331
0.220238
0.0241247
0.119173
4.54206
0.45022
3.81014
0.05693
0.0219213
0.0385839
0.0218104
9.39403
0.0244905
0.0307427
0.261209
5.07968
0.0218914
0.0219537
4.5044
0.0399408
8.69426
0.0327392
0.0220403
0.040457
0.189416
0.0433151
3.63936
0.0351737
0.372033
0.0247012
0.0222447
0.0219389
0.272075
0.0226571
0.127544
0.0220464
0.0219821
0.260963
0.0251344
0.0220355
0.0220366
0.0344215
0.343088
0.0379305
0.0371372
0.0263246
0.0572915
0.0220317
0.155283
0.0292808
0.0398908
0.0693898
0.0262343
0.0853185
0.0451209
0.0217946
0.0593417
6.82781
3.28875
0.0220273
2.10924
4.30681
0.02196
0.022659
0.843974
4.10838
0.0278637
4.13262
0.335363
0.0219371
0.0734779
0.0215896
0.0252558
0.0572553
10.0838
0.522477
0.221501
0.285318
3.86027
4.00011
0.0229231
3.76735
0.0220332
2.91647
4.07341
0.0221
0.0220833
3.44112
0.0221125
0.0220851
0.283849
4.39412
0.196358
0.0251074
4.15246
0.0221038
3.99279
3.89956
0.0221901
0.284976
4.70833
4.56957
3.5706
3.78523
3.65196
0.0218785
0.0231909
0.0570772
0.0575965
0.0220793
0.185292
0.0220383
3.68771
0.27232
0.0490456
0.244192
3.61923
0.267045
0.215528
0.0606209
7.95667
0.468303
0.024459
0.0216321
3.25312
0.0344159
0.0217663
7.62339
0.0219712
3.44054
0.0221401
4.94968
0.0245594
0.0219758
20.1671
0.0274319
0.03526
3.69826
6.78129
2.19953
0.0262323
0.0394397
0.0232868
0.0352414
0.112833
0.0360294
0.0222095
1.64634
0.0560133
0.0325007
3.99384
0.0375847
0.0366732
0.204596
0.068259
0.039569
0.0219714
0.188991
0.0218175
0.11114
0.204838
4.39706
0.0218723
0.0373376
4.77185
0.022909
0.0614169
0.0287599
0.0397065
6.06728
0.055135
0.023422
15.297
0.0218832
3.84273
0.0221255
0.0227555
0.109095
3.49764
0.0319323
0.3967
0.596364
0.0290558
0.0221253
0.162233
0.0428478
5.10546
0.0265095
12.1205
0.127031
0.0289006
0.0283157
0.102382
0.0362053
0.0742194
0.0546949
0.0377678
0.0239925
0.0219755
2.0599
0.0220057
0.0278823
0.0216065
0.0946443
0.0281257
0.0538429
3.93352
0.0230188
0.205333
0.0215169
0.0221491
0.0221888
0.0222065
0.0253005
0.0219401
0.0744854
7.55142
0.0529417
0.0414765
0.024241
0.022011
0.195225
0.0220206
4.40265
4.76831
5.01613
0.125781
0.0342337
0.0258548
0.0221777
0.0296056
0.0965762
0.0412815
4.27797
0.0521055
5.39613
0.128396
0.0222101
0.0218421
3.33851
0.0219468
0.028292
0.0645821
0.320568
0.022916
4.54997
0.0221734
0.0254664
0.0220473
0.0226133
0.16634
0.0921061
0.0221678
0.0298113
0.0351848
0.0416919
0.0507171
0.517721
0.357031
0.264837
0.11659
0.0249069
0.0228345
0.0499284
3.47962
6.69041
3.90062
0.0295507
3.73966
0.0904518
0.0225764
0.0219932
0.0539799
0.0221442
0.029645
5.73818
0.0219604
0.0217918
0.497694
3.31915
0.0413657
1.32583
0.0221117
5.61403
0.0408058
5.18387
0.0293216
0.0220277
4.01575
0.0600966
0.022025
0.071547
0.0222527
0.157706
0.0282517
0.0557088
7.6673
0.0333129
5.22611
0.0219293
5.38134
0.0221209
0.0255812
0.0224281
0.0445223
0.0221438
0.0553098
3.79705
1.02266
0.0459606
0.0315999
0.0769384
0.021891
0.0219562
0.022753
0.971049
0.0245835
5.16973
4.5444
0.139334
0.0222153
0.144335
0.222222
0.133433
0.0247577
4.75835
0.0219705
0.0215285
0.021956
3.7142
0.0220235
0.0220091
3.89842
0.0219706
0.156676
0.0997095
0.0217532
4.23218
0.0264047
4.91628
0.0219075
0.844443
0.0227137
0.0711064
9.53877
0.0591313
0.021942
0.0258523
4.58417
0.0295728
0.147676
0.0295064
0.0259491
0.141401
0.0287964
0.0220623
23.6913
0.0285728
0.0265394
0.126003
0.021966
0.0218581
0.022189
0.028503
0.0221204
0.0257158
5.38145
12.8452
0.101892
7.38879
0.0534435
0.0311587
5.21782
4.95242
0.0224315
9.36136
9.04745
3.8855
1.9048
0.0299739
4.52944
4.01876
17.9616
1.9039
6.52408
0.0424417
0.0826528
0.0292739
0.0249336
0.0221611
1.38412
0.0222851
4.95345
0.123456
0.335887
0.0215971
0.0649157
0.0454857
0.023571
0.0222931
0.0221185
0.122147
0.0231397
0.0221177
0.0360604
4.73734
0.0237995
0.154866
0.0218299
0.124847
0.082751
0.0221528
0.0264613
0.0219433
4.9636
4.46321
0.144271
7.34526
0.0327605
0.0792048
0.022132
0.0369116
0.0220594
0.022249
0.0222332
4.83849
0.0217744
0.0402029
0.740158
0.0275546
0.0292098
0.0219947
5.47358
0.186968
14.1391
4.62772
0.161742
0.28113
4.2945
0.311825
0.193587
8.73393
0.123971
0.0342472
1.56668
5.4429
0.0220429
5.31183
0.150393
5.53989
0.0216148
0.0557626
5.6735
0.0222731
4.84953
0.025369
6.62609
0.0220921
0.0221003
0.0646778
0.222941
0.0254784
0.0605011
0.02178
0.0220651
3.60568
5.6659
7.11314
0.0473137
0.0220466
0.0224316
0.022136
0.0356278
1.12601
4.45949
3.47666
1.47212
0.0311211
0.0219528
0.0219832
5.50285
6.53201
0.276943
0.0262975
0.0245411
0.0827925
5.02667
6.1928
0.0215202
0.0219549
5.08155
0.0228782
0.251192
0.0277858
0.0220584
0.0319516
0.046103
4.51304
4.71935
0.0222022
0.0217907
0.0244509
0.180809
5.7675
0.022265
0.128413
4.48445
0.0215293
3.2033
4.07374
12.7169
0.0221104
5.68191
4.94156
0.0382839
0.310075
0.0238847
0.310871
0.311085
0.0248529
0.0219402
6.75962
0.729988
0.0218627
0.12619
0.135673
0.0284777
0.236691
4.6442
5.50145
5.54187
0.0266074
0.0235378
0.0228219
4.59471
5.04113
4.79942
5.98354
4.56649
0.0217167
0.0397877
0.0220677
0.0221154
0.0246841
0.021965
0.0220582
0.0221628
4.33123
12.0446
7.03425
0.0558681
0.175
0.0356705
0.0218537
0.0219871
4.33375
0.022139
5.84044
3.83538
0.022179
0.0218737
3.56236
0.0224941
0.541899
0.025332
0.0217515
0.0217122
4.40849
0.0216794
4.76879
4.21584
0.0215716
0.0433376
0.0218968
0.0227142
0.0218309
0.111846
3.99509
0.0219686
5.19223
0.461258
0.0238897
0.0218642
0.0226193
0.023376
0.0222262
0.491636
5.32833
5.89265
0.0363855
6.906
0.0222725
0.0251053
0.022047
0.171354
0.0233271
4.83305
0.0218614
3.90195
0.284284
5.85965
0.136798
0.0218576
0.041859
0.0219059
4.25727
0.0219546
0.0281352
0.0259868
0.0250327
0.0221141
0.022251
0.0322067
5.22096
0.0221822
0.022716
0.0236286
0.0331264
0.151958
0.0221881
5.27744
3.78044
0.0236022
4.93451
4.78037
3.6033
6.48386
0.0215423
0.0229864
3.83425
4.17202
0.134807
3.94105
4.35551
0.0320557
0.0459358
0.0291124
4.21339
0.022034
0.0219654
5.58063
0.114548
4.99166
0.0242562
0.0217126
0.0220441
5.12989
0.0637361
0.023738
0.225848
0.0218136
0.0547754
0.0292135
0.029431
0.0219081
0.0221888
0.0219184
0.0242752
1.33777
4.96741
0.02158
0.0218918
4.89404
0.0220511
0.0625995
0.0259366
0.0255117
0.0347462
0.0222857
4.17509
0.0284236
0.0252314
20.867
0.077034
0.0231655
0.0302546
0.0220233
0.0224344
7.29316
0.287221
3.42839
0.0222038
0.0221543
0.0585839
0.027035
0.022028
0.0355111
4.70539
0.0255698
0.0399314
0.0251666
0.10804
0.0221158
0.0216952
4.87732
5.17179
5.03647
0.0219663
0.137995
0.0216049
0.0220191
0.0613879
4.55407
0.061526
0.0275507
0.140236
0.0226253
0.0283413
0.0506057
0.752611
0.0222327
0.0216413
0.0225423
0.0239122
0.025995
0.0219557
1.20953
10.1458
0.0220498
0.0317514
0.0224054
0.0216489
3.74161
6.05881
5.98611
0.0683309
0.0223752
0.051171
5.28205
0.0954889
0.0882004
0.0335666
0.0295224
5.23119
0.200054
0.717779
0.0217641
0.0302393
0.0221092
0.0296136
7.6616
0.0216283
0.0396817
0.0253765
0.0295743
0.0229937
0.0217819
0.0218779
4.17301
0.0427375
0.0291542
0.0612563
0.0343565
4.31816
0.0308692
0.480084
0.0219209
5.33336
4.83035
7.10782
0.0222646
0.0304382
0.0220847
0.0219556
6.06935
0.0431509
5.22756
0.0219898
0.0446509
0.122799
4.6113
0.0278563
0.0216435
7.08815
0.0222852
0.0222842
0.0225407
0.0220334
6.36198
0.0218173
0.0218723
0.0356864
0.0271037
0.138508
0.126275
0.0330051
4.50014
0.0219188
0.170333
0.021769
5.06747
0.0333604
0.467959
0.135806
2.64032
0.0971428
5.13697
0.0229121
6.71313
0.0321496
5.09438
0.191016
0.0278844
0.213269
0.0221406
7.55089
0.0229442
0.0369338
0.0269806
6.57527
0.127702
4.65858
0.0306847
0.0220099
5.04876
0.228797
0.0506908
0.139324
8.90941
5.44987
0.0383292
0.262872
0.0400388
0.0218756
0.0468874
0.248926
0.0675759
24.6818
0.117788
0.0217956
0.021914
0.133671
0.0220862
5.34195
0.0690957
0.0220846
3.7448
0.731012
3.47022
0.105184
0.0219646
0.0287917
0.025669
4.81184
3.66719
0.0256346
5.37678
0.0218608
0.0313521
0.93091
0.0219983
0.0390493
0.0219278
0.0258651
0.0222512
0.159807
0.336836
0.0299136
0.0290544
0.0217118
0.137052
0.021877
0.0218242
0.0326544
0.0219211
0.208548
5.4214
2.70678
4.47301
0.0217824
5.35511
0.022189
0.0370137
0.127754
0.0219934
8.14104
0.0677644
0.0220314
0.0216367
0.0401579
0.0369776
0.174484
0.223485
0.025732
0.0237815
4.07846
0.0566197
0.251375
0.79144
12.8289
4.01126
5.22956
1.10467
0.0221491
0.0221147
0.0455716
0.0221994
0.0493664
0.0345169
6.54269
5.58211
6.44135
0.0216834
0.0217711
0.115494
0.263528
4.74767
1.16109
3.63721
0.0560342
0.0324917
1.06234
0.286173
0.0256253
5.30752
0.0328861
0.0293598
4.60805
0.0383003
0.0219166
4.66748
0.889215
0.0241254
0.13549
0.0233609
3.77532
5.86684
2.92514
0.0220098
0.0216837
0.122359
0.0220119
0.021901
0.0220162
0.0217283
0.0220222
0.0220297
5.2006
0.027577
0.0459649
4.50032
0.0218987
0.0220391
0.0304359
0.0251546
0.0256416
0.0220477
0.0637153
0.0302027
0.0263009
0.0840241
4.39838
0.0220595
0.0397981
0.0220722
0.0220321
0.0215754
0.0220851
4.75971
0.0218828
0.0220208
0.0220986
0.0426098
4.45055
4.52183
5.4807
1.40844
0.042039
4.44099
6.77096
0.021953
0.0417989
5.85886
0.21971
0.0221129
0.0270115
0.0401235
0.0373421
0.0220615
0.0376355
0.0577833
0.0439518
0.0216323
0.0517224
1.36462
0.0215796
1.632
5.30953
0.0418804
0.654225
0.0347813
0.0220908
0.0250728
0.0220088
0.224576
5.33393
0.0216762
0.0428505
0.0219694
0.0219807
0.0221873
0.0222859
0.0368143
0.0221724
0.123021
0.141039
0.025528
0.0243622
0.0431791
0.0220461
0.043914
0.0308564
0.0223231
0.0221029
0.0221419
5.46883
0.0220108
0.240422
0.0384585
0.0222533
0.0220294
0.0217382
4.64581
0.0251077
0.0424386
0.0505405
5.61417
0.0280115
4.26099
1.59684
0.0426504
0.0219694
0.208823
0.0373889
4.95607
0.0682448
5.10691
0.0216412
0.0482573
0.0473582
4.58441
0.0220008
0.0414125
5.78641
0.0218533
8.36348
10.6275
3.66069
0.0219731
0.0217687
5.17561
0.0220475