/*--------------------------------*- C++ -*----------------------------------*\
| =========                 |                                                 |
| \\      /  F ield         | OpenFOAM: The Open Source CFD Toolbox           |
|  \\    /   O peration     | Version:  v2012                                 |
|   \\  /    A nd           | Website:  www.openfoam.com                      |
|    \\/     M anipulation  |                                                 |
\*---------------------------------------------------------------------------*/
FoamFile
{
    version     2.0;
    format      ascii;
    class       surfaceScalarField;
    location    "50";
    object      phi;
}
// * * * * * * * * * * * * * * * * * * * * * * * * * * * * * * * * * * * * * //

dimensions      [0 3 -1 0 0 0 0];
oriented        oriented;


internalField   nonuniform List<scalar> 
20537
(
-0.382279
0.504602
-0.122275
-0.0886832
-0.155369
0.244054
-0.182526
0.154718
0.02781
-0.0313439
-0.294194
0.32558
-0.140334
0.163711
-0.023376
0.298181
-0.432122
0.133958
0.189402
0.207231
-0.39654
0.243028
-0.0941063
-0.148917
-0.459042
-0.0940054
0.553165
-0.0247622
0.194097
-0.169332
0.562107
-0.134094
-0.428007
0.0852269
-0.14231
0.0570838
0.094521
0.0101771
-0.104698
-0.0181432
-0.0219221
0.0400653
0.670985
-0.543394
-0.127177
0.272208
-0.284872
0.0126728
-0.0386436
0.278526
-0.239863
0.439126
-0.253971
-0.185137
-0.135231
0.145715
-0.0104837
0.0822782
-0.541196
0.339281
-0.370553
-0.0864452
-0.0960782
-0.366519
0.588227
-0.221659
-0.693491
0.0987341
0.594958
-0.552592
0.186121
0.208791
0.0342423
-0.0802314
-0.185774
0.26602
-0.00632583
-0.0021038
-0.00204022
-0.380189
0.219517
-0.349644
0.130158
0.418587
-0.120389
0.233345
-0.271972
-0.0294348
0.184155
0.374009
-0.394081
0.020075
-0.605263
-0.0880209
0.105821
-0.130178
0.0243575
0.0117844
0.0811976
-0.0929819
0.209253
-0.122009
-0.0872434
0.133824
-0.158584
0.0260792
0.347934
0.0379225
0.339149
-0.376964
0.489866
-0.661112
0.171263
-0.00264685
-0.000150974
0.00279782
0.369095
-0.546759
0.177667
0.557518
-0.188421
-0.00495018
-0.00716478
0.012115
-0.556563
0.201838
0.354725
0.0967949
-0.494561
0.397776
0.17761
-0.257829
0.312627
0.236016
-0.548617
0.157212
-0.00977725
-0.147434
0.14737
-0.0818279
-0.0655417
-0.00122032
-0.00172977
0.00295009
-0.72887
0.37023
0.359035
0.652006
-0.534057
-0.117576
0.659744
-0.169862
0.659521
-0.298389
-0.36102
0.00385212
-0.00211091
-0.00174121
-0.188078
0.407632
0.289367
0.0874666
-0.37675
0.0605137
0.14874
0.102566
-0.111727
0.0091618
-0.393525
0.296239
0.0972996
-0.143475
0.122389
0.0210868
-0.152458
0.346321
-0.193858
-0.44269
0.135692
0.307031
0.0758882
-0.0641037
-0.583365
0.248106
-0.209069
0.218669
-0.00959486
0.190223
0.248922
0.0151617
-0.0192302
0.00406849
0.096996
-0.0749588
-0.0220371
0.148112
-0.236794
-0.288614
-0.439796
0.278609
-0.5823
0.304026
-0.531307
0.436601
0.0947843
-0.135024
0.0485799
-0.0380369
0.000970465
0.0370664
-0.00943347
-0.167579
0.177015
0.0160898
-0.000653991
-0.162898
0.427903
-0.26494
0.537013
0.0140053
-0.551019
-0.436502
-0.043904
0.480598
0.00456114
-0.000471364
-0.00408977
-0.321618
-0.071894
0.124456
-0.0392292
0.444195
-0.127396
-0.316777
-0.00131247
0.182901
-0.181587
-0.266833
0.320813
-0.0539651
-0.356899
-0.253428
0.610379
0.00986886
0.095952
-0.0845722
-0.314937
0.399542
-0.224012
-0.0975757
0.253622
-0.156038
-0.0376164
-0.2292
0.568355
-0.556692
-0.0115497
0.0365726
-0.176905
0.013423
0.0505687
-0.0639917
-0.186858
0.499508
-0.0249196
0.593408
0.0180362
-0.024169
0.00613282
0.178965
-0.168481
-0.0104818
0.0678949
-0.377108
0.309267
0.262991
-0.0114979
-0.457052
-0.0990246
0.556086
-0.457858
0.366452
0.0914282
-0.183915
0.17304
0.0108766
0.523719
-0.679439
0.155732
0.0667051
0.0225887
-0.113074
-0.31903
-0.544709
-0.0196229
0.564473
0.27791
-0.634756
0.307265
-0.391804
-0.652957
0.65315
-0.0726186
-0.471939
0.412653
-0.187338
-0.075539
0.0889621
0.0703318
-0.470047
0.399732
-0.572864
0.575266
-0.00215087
-0.190797
0.55967
-0.368552
-0.00312872
0.000481874
0.239574
0.0234341
0.0974222
-0.00290106
-0.0108962
0.469536
-0.372729
-0.768968
0.333529
0.435462
0.0737262
0.395823
0.150419
-0.18604
0.0356237
0.0214189
0.317919
0.171589
-0.0874533
-0.0841356
0.420107
-0.382053
0.556452
-0.160674
-0.395581
0.0215698
-0.00640807
-0.547288
0.110992
0.224057
-0.572043
0.607397
-0.0351679
0.55402
-0.483666
-0.0680916
0.0974063
-0.0293146
0.00485834
-0.04934
0.0444817
-0.0174428
0.0269968
-0.00955406
-0.001005
0.0190412
0.375739
0.276673
0.165618
-0.568357
0.402798
0.714109
-0.38599
-0.328099
0.405744
-0.0774159
-0.3283
-0.156717
-0.390039
-0.431846
0.605335
-0.173484
0.0485481
0.123042
-0.272525
0.462044
0.148455
0.409065
-0.0112324
0.135657
-0.421388
0.612911
-0.191183
0.0166082
-0.0347514
0.312676
0.346941
0.362532
-0.201868
-0.160642
0.306005
0.0997694
-0.495134
0.184994
0.310258
0.237568
0.121481
-0.359016
0.0201663
0.127204
-0.00509379
0.162307
-0.346177
-0.247738
0.593918
-0.0832218
0.228861
-0.145632
0.00335941
0.000492715
0.163634
0.392993
0.275014
-0.36794
0.0929462
0.637929
-0.224243
-0.413663
-0.671771
0.239928
0.0122157
-0.22128
-0.321448
0.342927
0.0650388
-0.0017008
-0.0633379
0.000506949
-0.0385438
0.242233
-0.549856
0.307729
-0.171022
-0.323997
-0.0272108
0.00976793
0.56641
-0.402596
-0.188821
-0.30573
0.183974
-0.0335518
0.539798
-0.513867
-0.0258824
-0.0179418
-0.117289
-0.518948
0.663532
-0.144575
-0.265455
0.0481682
0.2173
0.0289044
-0.123007
-0.364417
0.487622
0.0570919
-0.153169
-0.360846
-0.235299
0.596148
-0.453053
0.620361
-0.167231
-0.163082
-0.279574
0.355751
-0.546213
-0.169385
0.153198
0.0161881
0.229898
0.00111175
-0.231006
-0.308457
0.00212151
-0.00334183
0.26363
-0.544078
0.28049
0.189061
-0.206106
0.0170499
0.116226
-0.0136598
0.399214
-0.172146
-0.22704
0.54538
-0.379702
-0.101998
0.41638
-0.314377
0.464402
0.0754558
-0.431448
-0.0997798
-0.29024
-0.478703
-0.00908691
0.0323989
-0.0233119
-0.578854
0.0843841
0.494763
-0.534457
0.140554
0.394067
-0.023564
0.210699
-0.187131
-0.488091
0.365274
-0.118514
-0.0385358
0.15705
0.155602
0.132343
-0.287928
0.0390518
-0.00034456
-0.0387072
0.124657
0.441766
-0.566418
-0.0267343
-0.0409519
0.0676862
-0.357529
0.425489
-0.412388
0.112757
0.29963
0.451387
-0.632002
0.180624
-0.714831
0.432277
0.282575
0.599228
-0.203981
-0.395239
-0.140435
0.393813
-0.253362
-0.00699293
0.00204276
-0.103823
-0.409805
0.513925
0.0445153
-0.00546349
0.265509
-0.109894
0.200291
-0.363132
-0.00680595
0.0662943
-0.0594883
-0.0715023
0.144059
-0.0725561
-0.00758751
0.0504227
-0.0428352
-0.603324
0.584833
0.0185625
-0.0544318
-0.184399
0.238839
-0.525882
0.0688414
-0.00366287
0.000780041
0.00288283
0.669407
-0.218016
0.21877
-0.00997388
0.342111
-0.318893
-0.0232146
-0.287694
0.530032
0.541584
-0.151296
0.150447
0.000849829
-0.0543144
-0.257373
0.311698
0.0250054
-0.14352
0.13832
-0.290774
0.273629
0.440502
-0.455248
-0.0790619
0.096431
0.322172
0.325036
-0.4704
0.145374
0.570304
0.0528334
-0.623136
-0.187183
0.163622
0.456411
-0.555424
0.0356065
0.0101573
-0.0457638
0.190186
-0.0112196
0.401644
-0.344832
-0.0568131
-0.390978
0.296199
0.0948076
-0.215215
-0.127841
0.343074
0.655526
-0.391842
-0.263648
0.463686
-0.138648
-0.250526
-0.100303
0.350876
-0.0849452
-0.0410573
-0.113908
0.154968
0.409272
-0.182492
-0.226772
0.247705
-0.0178025
0.0208298
0.0765765
0.0117381
-0.0265101
0.014772
-0.182215
-0.349456
0.531905
-0.441182
-0.44425
0.353271
0.091002
0.472763
-0.182756
-0.290001
-0.627129
0.198024
0.429136
-0.134781
0.108767
0.0260141
0.192543
0.206694
-0.36553
0.11505
-0.206165
0.108597
0.0620916
-0.0688975
0.39269
0.16547
-0.55814
0.284144
0.371418
0.190411
0.527146
-0.192591
-0.334545
0.170684
-0.180114
0.253935
0.0182838
-0.534386
0.373898
0.669753
-0.13274
0.582014
-0.165776
-0.416227
-0.0108111
0.0488401
-0.038029
0.0744841
0.487628
0.0277982
0.542504
0.0771219
-0.553613
0.476499
-0.502653
0.59879
-0.0961304
-0.155343
0.114287
0.0797473
0.393021
0.430757
-0.200854
-0.229898
0.0330608
0.457157
-0.49011
-0.383784
0.494015
-0.109927
0.185414
0.341741
-0.71029
0.300774
0.409513
0.14731
-0.0987613
0.142771
-0.330819
-0.0979907
0.387428
-0.221771
0.212213
0.0095629
-0.450277
-0.260014
-0.0393069
-0.0954739
0.0749465
0.16508
-0.240014
0.098019
0.026438
0.435655
-0.570163
0.134673
0.0499211
-0.0143147
0.0999576
-0.183173
0.0714629
0.20708
-0.0256135
-0.0280023
0.0536158
-0.148698
0.367059
-0.218292
-0.346312
-0.111523
-0.0579075
0.0572447
0.000662742
0.483493
-0.450311
-0.0236643
-0.139817
0.163484
0.221433
0.032199
-0.227724
0.370529
0.0685762
-0.0637178
0.223567
-0.14861
0.380378
-0.361802
-0.0185278
0.065307
-0.0819087
0.0166017
0.648229
-0.253241
-0.394969
0.0612318
-0.276434
0.733625
-0.353668
-0.379936
-0.0597786
0.0489675
0.120556
-0.005425
-0.115131
-0.503294
0.399747
-0.192623
0.0538342
0.138791
-0.265483
0.488787
-0.223009
0.0442722
-0.0325342
0.0166259
0.434899
-0.451487
-0.458391
0.647945
-0.189495
0.607924
-0.247276
-0.360567
0.130527
-0.00997078
0.194297
-0.248721
-0.325811
0.0794543
0.24638
0.103955
-0.369373
0.220754
0.328764
0.0516711
0.466236
-0.600325
0.0259667
0.00218414
-0.0716093
-0.00297874
0.074588
0.074805
-0.379115
0.30433
0.0436639
-0.0692774
-0.00200322
-0.111185
0.113189
0.382747
-0.0123362
0.201401
0.121169
0.0261411
0.540477
-0.336895
-0.203554
0.0496514
0.21868
-0.268322
0.00760322
0.108809
-0.116412
0.106408
-0.236915
0.511852
-0.274894
0.394694
-0.0852344
-0.309458
-0.0134171
-0.0441452
0.0575623
0.0370538
-0.580029
0.698627
-0.105144
-0.59347
0.215991
0.48265
0.186003
-0.0594714
-0.126531
-0.115879
-0.20991
-0.206369
0.256027
-0.000380304
-0.00328257
-0.491584
0.32067
0.0480896
0.346606
0.355606
0.2524
-0.499068
0.233913
-0.112451
0.568871
-0.0521453
0.575875
-0.180247
0.550773
-0.370388
0.0487128
-0.0621298
0.659864
-0.224585
-0.435275
0.318479
-0.439427
0.121054
0.174029
-0.19769
-0.651364
0.361094
0.290289
0.105236
-0.00721617
-0.295786
0.234066
0.0617287
0.257764
-0.342449
0.0700524
-0.00501363
-0.113472
0.432051
-0.241759
0.101329
-0.023004
-0.200488
0.223501
-0.174386
0.432155
0.0801791
-0.442412
0.36237
0.160651
-0.63068
0.194274
0.217432
-0.411673
-0.00747407
-0.0125522
0.0200263
0.634733
-0.01149
0.0800663
0.225571
-0.0978865
0.10549
-0.0546917
0.0529909
-0.712564
0.218669
0.493905
-0.221093
-0.491461
-0.00860287
-0.347314
0.355952
0.631254
-0.153316
-0.477776
0.51207
-0.524453
0.0128007
0.385524
-0.310697
-0.0928197
-0.0998024
0.0155507
-0.0374729
-0.257251
0.211554
0.0457018
-0.0611886
0.0536011
0.0646224
-0.0170641
-0.0475582
-0.392761
-0.258589
0.236567
-0.418591
-0.00155684
0.00352931
-0.0190964
0.0155671
0.067648
0.274468
-0.0741423
-0.0013966
0.436773
-0.242467
-0.210156
0.18716
0.50621
-0.539554
0.0334482
-0.122511
0.120508
-0.439678
0.520259
-0.0804808
-0.111562
-0.173303
0.374439
-0.383002
-0.443747
0.344772
0.099078
0.0534433
0.0940903
0.389513
0.31394
0.324006
-0.11687
-0.0266049
0.245369
0.0594901
-0.30485
-0.0240465
-0.017753
0.0417995
0.353009
0.0038423
-0.356828
-0.130079
-0.455212
0.0416963
0.41354
0.273323
0.190365
-0.325095
0.084854
0.240257
0.158779
0.0272247
0.282204
-0.210722
0.162691
0.436546
0.120363
0.433678
0.498143
-0.403937
0.0937458
-0.546721
0.135644
-0.165681
0.0300367
0.105267
-0.397917
0.292648
0.129434
-0.112859
-0.0165743
-0.0678351
-0.387355
0.0202257
-0.191962
-0.202115
0.0979052
0.138645
-0.0521648
-0.0991301
0.439782
-0.359461
0.424849
-0.151515
0.659735
-0.499915
-0.159801
-0.162019
-0.0076067
0.169627
-0.248388
0.403984
-0.155588
0.0150798
0.166037
-0.181115
-0.0303509
-0.00697973
0.0373306
0.596432
-0.131972
-0.618151
0.200947
0.417214
-0.446712
0.198327
0.0296151
-0.0120106
0.30566
-0.666501
-0.229751
0.219176
0.0105823
0.0163976
0.556488
-0.163782
-0.491319
0.547681
-0.0562574
-0.398523
0.0985193
0.300058
0.128233
0.0174275
-0.099255
0.06829
-0.357294
0.289023
0.108654
-0.0898914
-0.0187631
-0.550736
-0.0525131
-0.560829
0.313628
0.00179681
0.00100536
-0.00280217
-0.0702846
0.345315
-0.456298
0.533423
0.149634
-0.150945
0.464735
0.166676
0.210449
-0.157234
-0.37947
0.53682
0.112294
0.191176
-0.303459
-0.118959
-0.247716
0.366713
-0.428949
0.465199
0.13129
-0.0176187
0.0829258
0.38111
-0.424855
0.199049
-0.200361
0.00131546
-0.0785233
-0.493329
0.258714
-0.369223
0.110536
-0.616615
0.188097
0.428526
0.563831
-0.563641
0.513625
-0.150677
-0.36285
-0.554033
0.135323
0.518005
-0.234902
0.491409
-0.256497
0.26502
0.101311
-0.366275
0.333538
-0.460914
0.109414
-0.473632
-0.167535
0.673844
0.0329435
-0.02026
-0.0126835
0.00403374
-0.0343847
0.134064
0.324538
-0.45844
0.387022
-0.128278
-0.287642
-0.0374394
-0.251363
-0.219028
0.00810305
-0.00354191
-0.360914
-0.199852
0.201228
0.458642
-0.0688277
-0.373453
-0.147946
-0.00393672
0.151884
-0.336928
-0.0577897
0.394808
-0.00524322
0.00478105
0.000462171
-0.131603
0.543877
-0.412255
-0.00259146
0.000861691
-0.235611
0.237281
-0.00166668
-0.209558
-0.451537
0.212575
0.174477
0.070797
-0.0244137
-0.0463833
0.202581
0.0161936
-0.314223
0.447664
-0.133441
-0.518502
-0.0541169
0.374344
-0.391532
0.0171928
-0.568564
0.0348966
-0.168873
0.579243
-0.410209
-0.579019
0.186657
0.392531
-0.4451
0.341976
0.103232
0.0233258
-0.0197965
-0.15153
0.158229
-0.00669748
0.121213
-0.010143
-0.11107
0.0911847
-0.0887271
-0.00245748
0.0722095
0.325817
-0.671991
-0.105635
-0.0147261
0.120361
0.402087
-0.296817
-0.0501796
-0.215264
0.0118926
0.216976
-0.480725
0.229375
-0.417225
0.40633
-0.0823372
0.0556029
-0.511428
-0.0104506
0.522303
5.62994e-05
-0.00529952
0.000938278
0.00816239
-0.0172493
-0.14436
-0.135392
0.34799
0.463031
-0.359281
-0.458543
-0.159598
0.289626
0.119656
0.286007
-0.388007
-0.169456
0.00197624
0.16748
0.351172
-0.11357
-0.155054
-0.0144017
0.0827136
-0.0165308
-0.0661828
-0.536093
0.40451
0.123482
-0.156622
0.00474384
-0.0309765
0.0262327
0.374404
-0.0781787
0.33588
0.165804
-0.501453
-0.355418
0.540538
0.339154
0.11512
-0.454161
-0.021129
-0.148256
0.252907
0.052801
-0.305698
0.00847566
0.174426
0.08692
0.0217345
-0.439269
0.598051
-0.158614
0.00301292
-0.00121612
0.00314592
-0.0410383
0.0378924
0.436308
-0.373614
-0.0626747
0.153832
0.248256
0.211269
0.576959
-0.475073
-0.101884
0.40425
0.463973
0.0663551
-0.530328
-0.117275
0.0116399
-0.225703
0.0238504
0.114041
-0.123235
0.00919473
-0.0931925
0.101055
-0.00786191
0.208005
0.451754
-0.394396
0.432263
-0.0378454
0.0298258
0.365188
-0.395009
-0.205371
0.145901
-0.135772
0.147428
-0.011655
0.000505619
0.0228202
-0.0152226
0.0801355
-0.0649129
0.351402
-0.0999689
-0.343674
-0.126951
0.175594
-0.0486424
0.00671493
-0.0913258
-0.0189806
0.110307
-0.124518
-0.13273
0.380873
-0.0846219
-0.571081
0.316329
0.19038
-0.506506
-0.160042
0.691294
-0.483274
0.288062
0.0863698
0.179033
0.484509
-0.158984
-0.395818
0.555013
0.0785224
0.0041913
0.158963
-0.474976
0.407168
0.291639
0.399667
0.0696135
-0.0811035
0.330884
0.0855012
0.630702
-0.182627
-0.447915
-0.419987
0.569586
-0.149516
-0.0829998
-0.5441
0.549571
-0.0182056
0.0107315
0.326784
0.0748592
-0.0856033
-0.0174164
0.0255788
0.434795
-0.0604469
-0.0417807
-0.167423
0.209209
-0.0235863
0.0283301
-0.0274787
0.0271341
0.145009
-0.38189
0.0288571
0.189817
0.0616893
0.515271
0.443406
-0.22811
0.0110035
0.217114
0.0100484
-0.0881183
0.07807
-0.411261
0.326031
-0.00884885
0.12289
-0.274883
0.0411411
0.23375
0.080643
-0.48016
0.399638
-0.309136
0.241895
0.0672507
0.129942
-0.529554
0.399662
0.114706
-0.428929
0.128893
-0.144909
0.0160165
-0.373564
0.483192
-0.309545
-0.0695502
0.022353
-0.513564
0.152959
-0.226831
0.0738798
0.112285
0.0171497
0.406664
-0.319104
0.0978921
0.342022
-0.110277
-0.185502
0.0542621
-0.313584
0.25939
0.142583
0.159162
-0.0235171
0.0350045
-0.106506
-0.298503
0.0665718
0.231941
0.0205139
-0.11184
0.472954
-0.39219
0.0728137
-0.343425
0.270618
-0.375185
-0.00563078
-0.0117856
0.126553
-0.484008
-0.638377
0.292629
0.345886
-0.0145717
0.0812768
-0.212806
0.42217
-0.209331
-0.0127065
-0.0419852
0.042457
-0.0511621
0.00870516
0.00650018
-0.0027569
-0.00374328
-0.0250087
0.174644
0.0810643
-0.520646
-0.0895305
-0.452625
0.480424
0.340767
-0.536389
0.195822
0.121888
0.422007
0.381523
-0.540299
-0.603192
0.265516
0.337677
-0.0211063
0.374136
-0.229745
0.342051
0.699212
-0.407561
-0.122686
-0.0277384
0.150425
0.0120989
0.0269388
-0.149625
0.158383
-0.542231
0.383973
0.137228
-0.556826
0.41961
0.630845
-0.1467
-0.484106
-0.00643385
0.127604
-0.0146319
-0.10994
0.124572
0.102083
-0.150733
0.0486514
-0.0531983
0.129559
-0.582181
-0.45634
-0.0831246
-0.135527
-0.455568
0.591267
-0.257465
0.425161
-0.167619
0.0517691
-0.0831019
0.0313329
0.110625
-0.0607995
-0.0498255
-0.256828
0.311164
0.237593
0.461632
-0.129268
-0.315727
-0.468685
0.211336
0.161854
-0.151277
-0.0105757
0.00128591
0.00265364
-0.00393955
-0.0551927
0.070996
-0.0918977
0.0209017
-0.40106
0.00953297
0.453059
-0.35503
0.135608
-0.0143942
0.0170629
-0.19291
-0.0205201
-0.12179
0.108451
0.319517
-0.254007
0.151257
-0.0491718
0.357137
0.398764
-0.353847
-0.00906791
0.388264
0.27149
0.125046
0.0589372
0.035028
-0.0420078
0.152676
-0.548731
0.396129
0.387658
-0.107131
-0.28049
0.292215
0.0886701
-0.568824
0.40011
0.281527
-0.208108
0.393533
-0.00294877
0.0193255
-0.0163768
-0.0108704
0.139765
0.132351
-0.0235837
-0.329827
0.548505
-0.45296
0.55931
-0.400795
0.0151268
0.0178167
-0.0983633
0.005171
-0.303992
0.249688
-0.0131898
0.0556468
0.165749
-0.590118
0.424465
-0.00779144
-0.479461
0.487664
-0.415709
0.339412
0.0953857
0.0677773
0.0166519
-0.0844292
0.33875
-0.107431
-0.2313
-0.413315
0.0894419
0.323933
-0.191971
-0.424635
0.0640864
0.224462
-0.288531
0.412093
0.218785
-0.000785126
0.00195819
-0.00117307
0.0843767
-0.266864
0.0487136
-0.0472077
-0.00150595
0.438689
0.0802355
-0.336986
-0.00220027
0.0311552
-0.0289549
-0.0061552
0.000614243
0.00554096
-0.0840199
0.0938889
-0.385702
0.515698
0.0600974
-0.079772
0.0196746
-0.181811
0.599428
-0.436729
-0.00894439
0.158452
-0.149506
0.182279
-0.167197
-0.126061
0.317452
-0.191373
-0.000492738
0.57517
-0.223774
-0.351368
-0.594093
0.375594
0.218541
-0.0233146
0.104512
-0.149144
-0.489095
-0.578547
-0.359491
0.240567
0.119629
0.353436
-0.00249012
0.00170499
-0.201939
0.037395
0.16455
-0.118344
-0.345424
-0.12953
0.416078
-0.581844
-0.39776
-0.390854
0.566898
-0.0597421
-0.506941
0.227893
-0.406683
0.528587
-0.119186
-0.354327
0.473646
-0.613862
0.242455
0.371688
-0.00290615
0.0601509
-0.535535
-0.516844
0.0142981
0.502565
-0.0943262
0.449655
-0.355315
-0.436407
0.336535
0.0315238
-0.0337241
-0.546708
0.00329256
0.54344
0.528902
-0.383288
-0.14556
0.0745272
0.0472812
-0.121808
0.0146917
0.147163
-0.139075
0.522404
-0.383323
0.188418
0.342183
-0.530429
0.178758
-0.371336
-0.01074
0.0817361
-0.100462
-0.0714968
0.0100773
0.0614195
0.191576
-0.0665252
-0.503103
0.345978
0.5797
-0.409471
-0.170206
0.00168888
-0.00183985
-0.27789
0.456665
0.0887133
-0.325586
0.236889
-0.574629
-0.441835
-0.292877
-0.159379
-0.0149782
0.174359
-0.13533
0.266021
-0.130686
-0.198922
0.364019
0.417596
0.162128
-0.49513
-0.015926
0.39154
0.137415
0.104674
0.0148565
-0.405176
0.309503
0.0956764
0.000720272
0.152479
-0.33151
-0.30359
0.383917
-0.147225
0.110275
-0.13396
0.0236847
-0.0192755
0.111909
0.226862
-0.152764
0.0997372
0.053027
0.000130615
0.0910542
-0.370911
-0.0653857
-0.00797007
-0.01183
0.0198001
0.329663
-0.256842
-0.0994679
0.0991583
0.000309593
-0.0267561
0.0238073
-0.0324097
-0.0391455
0.0715553
0.530334
-0.179111
-0.351214
-0.217136
-0.0130444
0.230186
-0.383357
0.303378
0.082167
0.00309063
-0.00520154
-0.00844143
-0.529124
0.140101
0.38911
0.592107
-0.600262
0.00824912
0.00552343
0.144925
-0.354813
0.569477
-0.214663
-0.416321
0.560475
-0.144136
-0.00340742
-0.000810032
0.00421745
-0.401985
0.567829
0.346259
-0.449425
0.103286
-0.00148475
0.0326363
-0.00214702
-0.0304893
0.118535
-0.448353
0.479995
-0.139064
-0.491205
-0.00754725
-0.00265993
-0.00349527
0.0818644
-0.0300951
0.10326
-0.122241
-0.185101
-0.298896
0.484044
-0.0794948
0.0765161
-0.100869
-0.104501
-0.129531
0.114899
0.00284553
0.170196
0.178861
-0.0048292
-0.0697142
0.0612375
-0.398072
-0.0915949
0.239706
0.00077155
0.145532
-0.146302
-0.0115739
-0.00752249
0.492977
-0.0561746
-0.00972169
2.57642e-05
0.00167923
-0.00766179
-0.091806
0.0340141
-0.0308682
0.323047
0.107851
-0.430767
0.197604
-0.0144104
-0.183188
0.475403
0.155458
-0.0565995
0.280569
0.107125
0.12644
-0.0929066
-0.0335329
0.649038
-0.648466
-0.0206327
-0.0126776
0.0333103
-0.537966
0.121663
0.123846
-0.0493179
-0.43203
0.531927
-0.0997594
-0.126758
-0.0406169
0.167376
-0.166295
0.199439
-0.00182998
-0.041329
0.0272358
-0.158072
0.130839
-0.150268
0.341453
-0.48506
0.620545
0.0716818
0.241942
0.36749
-0.0493127
-0.31817
-0.367305
0.103002
0.264331
-0.000529769
0.0331661
-0.378908
0.576963
0.614032
-0.4128
-0.433724
0.144702
0.289091
-0.0600579
0.0191061
-0.00414273
-0.00406512
0.035589
0.389912
0.140431
0.102716
0.390299
0.0230537
0.387137
-0.410096
0.000354075
0.0483596
0.12452
0.525031
0.136817
-0.324155
0.00342163
-0.0353758
0.0319542
0.385689
-0.557507
0.17195
0.0782314
0.200297
-0.278504
-0.105166
0.432008
-0.101118
-0.146002
0.0872984
0.0587032
-0.273996
0.388754
-0.114675
0.219921
-0.518216
0.0400857
0.144283
-0.184369
0.0100289
0.0344864
0.115003
0.0324247
0.318441
-0.229711
0.474648
-0.149833
-0.324765
0.191419
0.422618
-0.000712876
-0.00259702
0.0033099
-0.00672807
0.117004
-0.531369
0.0145441
0.0395104
-0.25664
-0.565051
0.395419
0.169801
0.411113
-0.326528
-0.371507
0.587512
0.0210908
-0.477341
0.146389
-0.163132
0.0167433
0.171257
0.253604
0.44811
-0.101742
-0.103103
0.378742
-0.237973
-0.0215729
0.0179939
0.00357905
0.061121
0.00967598
-0.0163563
-0.213387
-0.114127
-0.0386373
0.0415362
-0.473427
0.208764
0.010418
-0.0792123
0.466438
-0.405504
-0.159377
-0.143569
0.426327
-0.282668
0.340778
0.107447
0.0264305
-0.00397656
-0.0224539
-0.141361
0.466038
0.116017
0.0352417
0.43034
-0.107168
-0.240716
-0.592585
0.00623577
-0.00152476
-0.00471102
0.207655
0.3678
0.0422511
-0.169201
0.120121
-0.255446
0.0400839
-0.106477
0.0663931
-0.242144
0.0402107
0.194424
0.00176918
-0.196188
-0.00366315
-0.193932
-0.0328901
-0.31517
0.0578075
0.10592
-0.0713769
0.408259
-0.336877
-0.00135343
0.00108505
0.000268388
-0.132052
0.175234
-0.0431776
0.614695
0.415457
-0.28884
0.195765
-0.168526
-0.165633
-0.0462644
-0.317153
0.505717
0.0732603
-0.0484072
-0.0248532
0.410997
0.148445
-0.156416
0.0398261
-0.0242754
-0.176136
0.606397
-0.430234
-0.10764
0.0896981
-0.253886
-0.143204
-0.35268
-0.0946079
-0.488781
-0.00213407
-0.117032
0.499755
-0.382719
0.380008
-0.271496
0.0712888
-0.0946033
-0.409507
-0.147871
0.0689822
0.0128823
0.00246266
-0.00317554
0.233849
-0.0246074
-0.209237
0.00493862
0.0143869
0.406109
-0.0219247
0.589027
0.242795
-0.596444
0.442304
-0.103039
-0.399551
0.140357
-0.107494
-0.032862
-0.0919699
-0.234987
0.327002
0.340107
-0.516201
0.176182
-0.0855924
-0.327665
0.107745
-0.566073
0.0349846
0.0504482
0.0601768
0.295605
-0.0808936
0.0067513
-0.0191443
-0.072488
0.0916324
0.432077
-0.115599
0.184119
0.230832
-0.414943
-0.105971
-0.168905
0.141396
-0.0345022
0.47136
-0.436858
0.319539
-0.431193
0.111674
-0.459898
0.338355
0.121548
-0.420184
-0.161822
-0.36367
0.565509
0.327774
0.104239
-0.00110502
-0.00561237
0.00671739
0.409759
0.0947079
-0.504352
0.0117263
0.085696
-0.215671
0.253075
-0.211505
0.275608
-0.5635
0.446472
0.427542
-0.597612
0.170163
-0.190114
0.0935355
0.0965791
0.263732
0.0659384
-0.435749
0.558184
-0.405431
0.353774
0.119484
-0.473085
-0.364557
0.438297
-0.293839
-0.13982
-0.158883
0.58802
-0.396595
-0.215855
-0.0574262
0.273284
-0.000497995
0.100957
-0.100459
0.232725
-0.369777
0.137052
0.486721
0.10547
-0.0871789
0.442598
-0.355307
0.368333
-0.164943
-0.203382
-0.196237
-0.172959
-0.297279
0.0628403
0.234453
-0.135701
-0.188691
0.0566418
-0.338773
0.246845
0.330903
0.143795
0.0601615
0.0421499
-0.102311
-0.14677
0.486957
-0.0476784
0.0299254
-0.104875
0.0849709
0.0199037
-0.18651
0.323326
0.116833
-0.116209
-0.000623516
0.450893
-0.458322
0.670584
-0.238352
-0.432206
0.11764
0.322624
-0.440191
0.251687
0.138728
-0.390411
-0.110862
-0.299176
0.410046
0.503973
-0.0941073
-0.495626
0.495798
0.168926
0.389337
0.123267
-0.133043
0.569425
-0.141249
-0.428155
0.559066
-0.390059
0.378122
-0.177784
0.206423
-0.202876
-0.0035426
-0.0206396
0.0884169
-0.0622524
0.330632
-0.262322
-0.141838
-0.471728
0.142409
-0.141636
0.131911
-0.02678
-0.105131
-0.0808607
0.323699
-0.0245365
0.130405
-0.145283
0.0148782
0.139525
-0.0371732
-0.102351
0.578146
-0.16774
-0.410381
-0.15133
0.011515
0.472136
-0.136082
0.355021
0.292972
-0.328289
0.446007
0.0352092
-0.0347077
-0.000501494
0.0251699
0.105358
-0.101201
-0.296717
-0.0576905
0.407464
-0.366151
-0.127211
0.493561
-0.379846
-0.146025
-0.429461
0.116602
0.312935
-0.237737
0.421867
-0.405464
0.0790457
0.326425
-0.536826
0.28909
0.19767
0.00875728
0.315751
-0.0703716
-0.0257178
0.0225671
0.00315073
0.0101993
0.553844
0.245262
-0.162992
-0.0822689
-0.349845
-0.253347
0.142367
-0.0487953
-0.0935714
0.178462
0.00527079
-0.18373
0.014148
0.0616402
-0.0757882
0.119674
-0.0149995
0.0127073
0.12765
0.0230869
0.136076
-0.00533573
-0.0357026
0.381164
-0.148441
0.00377437
0.0286245
-0.587435
0.192499
-0.209719
0.017222
0.161646
0.407802
-0.0792166
0.218223
0.0327069
-0.250923
0.205939
-0.369563
0.163698
0.0388272
-0.00610447
-0.0327227
-0.063264
0.264773
-0.201499
0.0209556
0.408915
-0.00774714
0.121469
-0.113722
0.18569
-0.51205
0.391654
0.120704
-0.0734916
0.286673
-0.213163
-0.306336
0.654456
-0.252959
-0.401469
0.390322
-0.0869238
0.184092
-0.144007
0.0802479
-0.453871
0.0334885
0.217331
-0.250819
-0.225573
0.487211
-0.261442
-0.242634
0.0487108
0.268469
-0.453528
-0.387397
-0.0824278
0.0810313
0.126579
0.259714
0.410895
0.362687
-0.106219
-0.256415
-0.00618698
0.00624328
0.209897
-0.00731128
0.153874
-0.133241
-0.020633
0.106227
0.00948595
-0.115712
-0.522995
0.369049
0.153976
0.400215
0.177956
0.0856033
-0.0633024
-0.0223008
0.298093
0.0922509
0.17623
-0.00554243
0.226504
-0.0688961
0.0134007
0.0554955
-0.120368
0.372058
0.0278427
-0.115295
0.00869796
0.328249
-0.33694
-0.381554
0.0044846
-0.389892
0.193681
-0.450824
0.350588
0.100358
-0.00169749
0.000422544
0.00127494
-0.244493
0.0347621
-0.145374
0.583254
-0.437869
0.0766699
0.14156
0.00713399
0.0885904
-0.0957241
0.116546
-0.302878
0.186356
-0.015712
-0.0531841
-0.0132308
0.0822132
-0.503233
0.565059
-0.0617947
-0.218853
0.0344635
0.184391
0.0419169
-0.00688887
-0.180927
-0.0379236
-0.0865506
0.0652474
0.0213032
-0.499459
0.041969
0.457781
0.344777
-0.431849
-0.0224401
-0.00160911
0.0240492
0.0223576
0.109554
-0.00317188
-0.000346611
0.0035185
0.12175
-0.552855
0.431479
-0.0912492
0.433337
-0.0985303
0.00688712
-0.0377553
-0.131148
0.0471287
0.280646
0.0994212
0.4189
-0.0993396
0.0136764
-0.173053
0.181669
-0.0297359
-0.151933
-0.0660777
-0.017105
0.0831827
-0.40428
0.0583046
0.391259
-0.449355
-0.0188052
0.0789026
0.211538
-0.0163622
-0.195163
0.196997
0.316726
0.0916011
-0.101744
0.00628564
-0.137916
0.345205
-0.568964
0.412893
0.156201
-0.000418311
0.00665408
-0.0573488
-0.230508
0.564055
-0.110953
0.557272
-0.446094
0.0552465
0.0180138
-0.528842
0.0256421
0.620459
-0.156485
-0.4721
0.246728
-0.0358678
0.332288
-0.442182
0.109999
0.148505
-0.0324873
0.239468
-0.20598
-0.0723794
-0.0970756
-0.242443
0.339554
-0.000741547
0.000753655
-1.21093e-05
0.385361
-0.214098
0.150949
-0.023292
-0.127656
0.0959132
-0.096411
0.103831
-0.506059
0.377972
0.128116
0.369489
0.127126
-0.496417
-0.0232535
0.153659
-0.204986
-0.358508
-0.0230111
0.416131
-0.180022
-0.279873
0.333998
-0.0219693
-0.0710126
-0.157837
-0.215493
-0.378559
0.00320986
-0.035744
-0.176592
0.194456
-0.0178603
-0.0136524
0.364068
-0.223962
-0.140075
0.607489
-0.163687
-0.443787
0.560726
0.199179
-0.208895
-0.0786481
0.0634256
0.000314937
-0.020575
0.207186
0.400348
0.0122701
0.14596
0.0440856
-0.468915
0.424828
-0.0977728
-0.332918
0.430767
-0.162487
0.0396543
-0.0449901
-0.0140619
-0.19204
-0.289566
0.23438
0.10444
0.0311678
-0.106566
-0.298892
-0.0619962
-0.0657208
-0.131538
-0.37449
0.297799
-0.501776
-0.403735
-0.0191483
-0.196706
0.146306
-0.157175
0.537447
-0.400208
-0.012781
-0.0937848
0.106566
-0.488109
0.359988
0.128308
0.170142
-0.590002
-0.0617204
-0.0322408
0.0939611
0.0367226
-0.0428271
-0.155229
-0.236007
0.391274
0.0137213
0.01953
-0.320315
0.268881
0.0514413
0.0427901
-0.0395802
0.14355
0.292776
-0.0071913
0.373663
-0.344787
0.452156
-0.107258
-0.0565757
0.185159
-0.625051
0.439923
0.334209
-0.502941
0.168762
-0.324084
-0.0553198
0.0559826
0.0569781
0.0101686
-0.0671467
0.0596455
0.185619
0.0590203
-0.0747323
0.0794979
-0.319759
0.240272
0.0322649
0.00191915
-0.0341841
0.0621134
0.207954
-0.00876996
0.428225
-0.306201
-0.136534
-0.354221
0.490872
-0.436271
-0.498608
0.375837
0.122928
-0.0452155
-0.0378863
0.603255
-0.43654
-0.166357
0.251081
0.0280982
-0.279148
-0.368001
0.129704
-0.10369
-0.0205378
0.0642017
0.00605341
0.0102697
-0.0163232
0.109288
-0.437043
0.327816
-0.0587802
0.0816785
-0.0228982
-0.230406
0.342338
0.254752
-0.325022
-0.203233
0.507486
-0.312735
-0.216078
-0.00389174
0.00215052
0.308165
-0.0678952
0.030338
-0.0269163
0.0787457
-0.170341
0.308121
0.110799
0.116745
-0.0134847
0.398138
0.220843
0.254706
-0.0206317
-0.385079
0.241591
-0.0173418
0.103268
-0.085926
-0.278479
-0.235343
0.328913
-0.206513
-0.122373
0.431977
0.33359
0.279567
-0.0762154
0.0833496
-0.238522
-0.0897015
0.328257
0.229438
-0.132015
-0.0974166
-0.143682
0.477918
0.00133339
-0.141485
0.0213549
-0.0182806
-0.00307433
0.327558
-0.481014
0.153566
-0.135311
-0.0507278
-0.468781
0.0889454
0.371139
-0.0789121
-0.156085
-0.417086
0.573187
-0.0181701
0.124397
0.00900908
0.183492
-0.181829
-0.204212
-0.0786827
0.282912
0.154261
-0.514998
0.360762
-0.135576
0.484517
-0.348819
0.604185
0.326555
0.167783
0.39974
-0.535788
0.136123
0.162149
0.0297681
-0.0621778
0.245425
-0.224458
-0.280662
0.41639
0.540548
-0.233249
0.564386
-0.031907
-0.532438
0.138696
-0.00720698
-0.0105464
-0.0703472
0.105571
0.198155
0.344416
-0.438952
0.094655
0.569219
-0.38403
0.425006
-0.149621
0.510798
-0.361098