/*--------------------------------*- C++ -*----------------------------------*\
| =========                 |                                                 |
| \\      /  F ield         | OpenFOAM: The Open Source CFD Toolbox           |
|  \\    /   O peration     | Version:  v2012                                 |
|   \\  /    A nd           | Website:  www.openfoam.com                      |
|    \\/     M anipulation  |                                                 |
\*---------------------------------------------------------------------------*/
FoamFile
{
    version     2.0;
    format      ascii;
    class       volScalarField;
    location    "500";
    object      p;
}
// * * * * * * * * * * * * * * * * * * * * * * * * * * * * * * * * * * * * * //

dimensions      [0 2 -2 0 0 0 0];


internalField   nonuniform List<scalar> 
13851
(
0.000768978
0.00521042
-0.0220551
0.000742779
-0.0378383
0.010436
-0.0200388
-0.0252203
0.000400234
-0.0153799
-0.0060268
-0.0273219
-0.0576724
-0.0925295
-0.0128718
-0.0125633
-0.0226856
0.000664704
-0.0410329
0.000345456
0.000475967
-0.0232535
0.000498071
2.76265e-05
0.000525108
-0.0239574
-0.0329145
-0.0650778
0.000354466
-0.00598584
0.00899323
-0.0228892
-0.0217729
-0.00995545
-3.60826e-05
-0.0689246
-0.0699237
-0.0147682
-0.0163421
-0.0061069
-0.00413096
0.000373006
-0.117071
-0.0111729
-0.0102063
-0.119283
-0.010516
-0.00360303
-0.0336534
0.000343316
-0.0526548
-0.0545352
-0.080484
-0.0126156
-0.00602249
0.000366624
0.000552592
-0.0759359
-0.00609237
-0.020139
-0.0131427
-0.000393357
0.00278172
-0.0404928
0.0276222
0.00240588
-0.0699356
-0.0107618
-0.0421918
0.000756597
-0.0682813
-0.0714182
-0.00712121
-0.0127527
-0.00513855
0.000713406
-0.024003
-0.0853383
-0.0372662
-0.0670894
-0.0213203
-0.000948766
-0.0125965
-0.141104
0.00314973
-0.0305575
0.00710416
0.0222442
-0.0290247
0.000977817
-0.0684984
0.00259368
-0.00934642
-0.0321603
-0.0296847
0.000647568
-0.0389917
-0.0821912
0.000353683
0.000637126
-0.092693
-0.044122
-0.00331192
-0.0397857
0.000144166
0.00372264
-0.0471989
0.000228534
-0.0715104
0.0103399
0.000273017
0.000982874
0.00248299
5.15282e-05
0.000295778
-0.0240337
-0.0779478
0.000326103
-0.00187421
-0.00529647
-0.11588
-0.0388615
-0.0576909
-0.0155278
-0.00150014
0.00103038
0.000783408
-0.0403824
0.000438476
-0.0327508
-0.00425872
-0.000854236
-0.0695726
-0.0127119
-0.0264872
-0.00123839
0.000325357
-0.071243
-0.0201444
-0.0309376
-0.0920142
-0.00558777
0.00146315
0.00068414
-0.0166768
-0.0108776
0.000290961
-0.0305184
-0.0195265
-0.00792628
-0.0660909
-0.00490303
-0.0967718
0.00061387
-0.0245382
-0.0161085
-0.000861613
-0.008616
-0.0532576
-0.0513094
7.35297e-05
-0.0391635
-0.0776235
-0.000772555
-0.00451485
0.000556277
0.000462449
-0.0434745
0.000198345
-0.0951308
-0.0846362
0.000495467
-0.000952004
-0.0354572
-0.000796657
-0.00772832
-0.0394462
0.00155863
-0.0450563
0.000218072
-0.0222827
-0.06922
-0.012955
-0.0234282
2.54316e-05
0.000662623
0.00222773
-0.00526726
-0.0346008
-0.000977176
-0.0101214
-0.0804332
0.000979971
-0.0382286
0.00456728
-0.0232739
0.00137597
-0.00665537
0.00149482
0.000713014
0.000996503
-0.0739488
-0.00277202
-0.00895326
-0.00738689
-0.0131868
0.0095415
-0.0247766
-0.075427
0.000123429
-0.0753751
-0.00352495
-0.00937762
0.00014323
0.000605427
-0.000316095
0.00584347
-0.120691
-0.0128104
-0.0758105
-0.0246877
-0.0219369
-0.0815659
-0.0454376
-0.0717888
0.00068324
-0.0329073
0.000154153
-0.089358
0.000130201
-0.0230623
0.0170355
0.000491841
0.00099171
-0.0535649
0.00714067
0.0123632
0.030201
0.00064696
-0.00917226
0.00813632
-0.0104179
0.00013382
-0.00750185
0.000153473
-0.0736017
-0.0432757
-0.00883687
-0.0149195
-0.015799
0.00266405
-0.0110599
-0.0157805
-0.0155911
-0.0526768
0.00136467
0.000388082
-0.0719391
-0.101764
-0.0146349
0.000619569
0.0003637
0.00527466
0.000869477
-0.0329143
-0.0226601
-0.0159485
-0.0321926
-0.080392
0.00133731
0.00279445
-0.0238851
0.0159338
-0.0372049
-0.0119675
-0.000823104
-0.00221119
0.00145173
-0.070144
-0.00378407
0.000103179
7.57506e-05
8.64359e-05
-0.0523955
0.0029998
-0.0159544
0.000513433
-0.0135734
0.0146294
0.00275917
-0.0296789
-0.00676209
-0.0202066
-0.0410438
0.00237554
-0.0393098
-0.00696914
-0.0196029
-0.000836715
-0.0731034
-0.0390342
-0.0216107
-0.0712714
-0.00695457
0.00571916
-0.0819128
0.000450243
-0.0489899
-0.0311562
-0.00679914
-0.0109715
-0.00638733
-0.0143038
-0.0842841
0.000436411
-0.0162602
0.00105279
-0.0719367
-0.067044
-0.0129454
-0.0474696
-0.0134509
-0.100128
0.00376515
0.000602978
-3.1124e-06
-0.0662645
-0.0327358
-0.0255668
-0.0134906
-0.00720771
-0.0138854
-0.00722287
-0.102745
-0.0676755
0.00227661
-0.0699384
0.0114604
-0.0127401
-0.0375859
-0.0273541
0.0032377
0.0113658
-0.0555626
-0.0379567
0.00259405
-0.00821282
-0.0779264
-0.012902
-0.000932959
-0.00086731
-0.0138876
-0.0260761
0.0127672
-0.0876028
-0.000881709
-0.00620719
5.25744e-05
-0.013396
0.000139294
0.000206828
-0.00118543
-0.0774075
-0.0086797
-0.0098081
-0.0486451
0.000466003
-0.0136167
-0.00693295
-0.0118058
-0.0843234
-0.00957188
0.00641562
-0.0292309
-0.0131781
-0.00397051
0.000348906
0.00368303
-0.0894036
-0.00508993
-0.00386974
0.00324371
-0.0565564
-0.102529
-0.00434123
-0.00420191
0.00225819
-0.0013922
-0.0128621
0.00196807
-0.0485597
-0.0922282
-0.0451506
-0.073578
-0.0789231
0.000509268
-0.0149204
-0.0805795
-0.0684693
0.0164438
-0.0784487
0.00370117
-0.0295891
0.000618346
0.00793635
0.00047132
-0.0137257
0.00221656
-0.0181283
0.000108496
0.000451893
0.000534683
-0.0418206
0.0103369
-0.101776
0.00131049
-0.0480336
0.00641193
-0.0111034
-0.0141336
-0.0166437
-0.0212797
0.00232982
0.000307249
0.000417134
0.000706484
-0.00781342
-0.0172226
-0.0415453
0.00616385
-0.097401
-0.00630282
0.00560587
-0.00496398
-0.0548548
-0.00407139
-0.00864977
0.000240624
-0.0278561
-0.0125297
-0.0208059
-0.0770202
0.00148194
0.00211395
-0.013896
-0.0855988
6.29655e-05
-0.0300603
-0.0382523
0.00124915
0.000419474
-0.0131503
-0.0657058
-0.0546648
0.0028313
0.00899082
0.000664521
0.000132978
-0.12015
-0.00357857
7.93422e-05
0.0212896
-0.00132528
0.000872502
0.000307452
0.00309719
-0.00817371
0.000113171
0.00143839
-0.0801162
-0.0127249
-0.0452024
-0.00128966
0.00302077
0.0028938
-9.08478e-05
-0.00247755
3.32986e-05
-0.000111094
-0.015094
-0.0167549
0.00723212
-0.0130724
0.000614501
-0.09179
-0.0764317
-0.0137564
0.0031097
-0.0148612
-0.00855292
-0.139886
6.48577e-05
-0.0110525
-0.00418336
-0.0324496
-0.0186771
-0.102387
0.000263343
-0.0818728
0.00365677
0.000396983
0.0027488
-0.0935052
-0.0221858
-0.00528115
-0.0019999
-0.0113327
-0.00615313
-0.000454419
-0.000664163
-0.0185643
-0.0695179
-0.0495381
-0.0612026
-0.0588173
0.00337845
0.000104105
-0.0349797
-0.0183806
-0.0232592
-0.0383058
-0.00797283
-0.0146265
-0.0735155
-0.0119517
-0.100979
-0.130568
-0.0803683
-0.00530877
0.00266008
-0.00797591
0.00186045
0.00478861
-0.00790918
-0.0282228
-0.00800944
-0.0264555
-0.0711757
0.000276487
0.00200646
-0.0508989
-0.0758388
-0.0142507
-0.00994833
-0.000937198
-0.00636758
-0.0361979
0.00553128
0.0221114
0.00481222
-0.00039465
-0.118485
-0.0838003
0.000876252
-0.0178278
-0.0439737
4.77733e-05
0.000433938
0.00151391
-0.0410282
-0.0253606
-0.0648098
-0.0676778
0.000346267
0.00747939
-0.00692854
-0.0146886
-0.0513658
-0.0698179
-0.0721379
-0.00406364
-0.0184837
0.012024
-0.0804489
-0.0652294
-0.0461506
0.00212547
0.00021889
-0.00624365
-0.0256018
0.000328182
-0.0136055
0.000193106
-0.00199138
-0.070988
-0.0389702
0.00535732
0.000312732
0.00547123
-0.00842576
-0.0010573
0.000661749
0.000879182
-0.0128492
-0.0883729
-0.00836868
-0.00818013
-0.072453
-0.0147931
-0.0456471
-0.0756425
-0.0742852
0.00265449
-0.0414046
3.1173e-05
0.000965676
-0.0161979
-0.073288
-0.00359881
-0.0639424
-0.0250912
0.000330311
-0.0100202
0.00150906
-0.00436625
-0.0481439
-0.012875
0.00242313
0.000385236
-0.0336792
-0.0399768
-0.0195921
-0.00386633
-0.00814658
-0.0167924
-0.0364763
-0.00937775
-0.045911
-0.00782543
-0.0659657
0.0002999
0.0120747
0.00354776
-0.0800793
-0.00396723
0.000542973
-0.0727813
-0.00354011
-0.110765
-0.0763768
-0.122955
0.0227865
0.00043795
-0.0731803
0.000113804
-0.00177017
0.000244431
-0.00200191
8.7558e-05
0.0016891
0.0021281
0.000296489
0.00966742
0.00217857
0.0110685
-0.000688515
0.000189873
0.000563748
-0.0257658
0.0140506
-0.0576385
-0.0334717
0.000152928
0.000630577
-0.000445799
-0.000511278
-0.0679259
-0.00472079
-0.0165088
0.000266165
-0.0188138
-0.00063976
-0.0255787
-0.0776552
-0.0108882
-0.0789312
-0.0117292
-0.00395236
-0.0600243
-0.0887228
-0.0418803
-0.0241299
-0.0207306
0.000326062
-0.0567132
0.000898002
-0.00899228
-0.0135208
-0.0105649
0.000259369
-0.0524839
-0.0770647
0.000901297
-0.00341455
0.00188203
-0.000433017
-0.0220586
0.00393189
-0.0516002
-0.0467454
-0.0297878
-0.00349782
0.000179739
-0.000764735
-0.0876992
-0.0676098
0.0085066
-0.0760743
0.000690171
-0.0128024
0.000296552
-0.0136648
-0.0705519
-0.00782408
-0.00179919
0.00178046
-0.0305052
0.00054012
-0.122498
-0.0038278
-0.0899
0.000405643
-0.0166981
-0.0787469
-0.0717902
-0.0683246
0.00140098
-0.0721762
-0.0130702
0.0012124
-0.0169667
-0.0204809
-0.0164284
-0.129475
0.00192459
0.00162919
-0.0702703
0.000432841
-0.00277097
-0.00810402
0.000325772
-0.127726
-0.0192608
-0.053206
0.00512343
0.0021205
0.00031055
0.00229085
-0.000837151
0.00193204
0.000230327
-0.00384041
-0.00359349
-0.0803948
-0.00110579
0.000419361
0.00267888
-0.0189896
-0.0792005
0.000372566
0.00140944
-0.0576118
-0.0280061
-0.00327312
-0.000164552
0.0118074
-0.0710413
-0.0165266
-0.0791203
-0.0514505
0.000328666
0.00208424
-0.118287
0.00861756
-0.0133033
-0.000418946
0.000256874
-0.0178116
-0.0194272
0.0065267
-0.0067771
0.00236387
-0.0121741
0.00144594
-0.06745
-0.0176793
-0.0333193
-0.00340254
-0.0164071
-0.0336701
-0.0550646
-0.0704716
-0.00712896
-0.0102481
-0.0562644
-0.0193957
-0.129284
0.0112205
-0.0161822
-0.0576086
-0.0864897
-0.00790385
-0.0153901
0.000300766
0.00188501
-0.0777222
-0.139486
0.000250728
0.000648807
-0.0530162
0.00162152
0.000453653
-0.0768903
0.000666925
-0.0110343
-0.123985
-0.0802266
-0.00277353
-0.00170024
-0.0133859
-0.0730681
-0.0668977
-0.0646872
0.00212882
-0.0645819
-0.0137162
0.0127543
-0.0459308
-0.0474109
-0.0135424
-0.0186622
-0.00969986
-0.0606637
-0.0688251
0.00340744
-0.0440845
-0.131385
-0.0242295
-0.083807
-0.0149928
-0.0458681
-0.000998168
-0.00879654
-0.00319171
-0.0270671
-0.0128379
-0.0708978
0.000455078
-0.056825
-0.00535924
-0.0154279
-0.0464633
-0.0445634
-0.0812028
-0.0516482
0.00472379
-7.64211e-05
-0.0558032
-0.0112295
0.00227945
-0.0123255
-0.080774
0.000830615
-0.0586431
-0.00942136
-0.0122023
-0.0781671
-0.0911521
-0.080116
-0.00825508
0.00336385
-0.000114874
-0.091249
-0.0127537
-0.0193056
-0.0741572
-0.000892223
-0.0311947
-0.00986609
-0.0108784
-0.0141363
-0.0144563
0.000616874
-0.00412346
-0.0754013
-0.0506014
-0.0132904
0.00184511
-0.0115692
-0.124542
-0.0548645
0.000433962
-0.0160109
-0.000574881
-0.00270468
-4.63171e-05
0.000626454
-0.0191865
-0.00514614
-0.0108211
0.00143061
-6.43655e-06
-0.00866044
-0.0710658
-0.0924522
-0.0310063
-0.00613137
-0.0055581
-0.0289987
-0.000115419
-0.00063724
-0.00854693
-0.0104244
-0.0724297
-0.0136888
-0.055555
-0.0149515
-0.0141123
0.000131685
-0.0675123
-0.00183532
0.0110019
0.00678228
-0.0656922
-0.0198589
-0.0251816
-0.0680738
-0.0344908
0.00628052
-0.0275074
0.00266587
-0.0895297
-0.0279124
-0.00612531
-0.00415478
-0.0508784
-0.0454799
-0.0112933
-0.000154878
-0.0244447
-0.000709051
-0.000745545
-0.0831611
0.000938922
-0.0457611
-0.0166834
-0.0007261
0.00734894
-0.000894264
-0.0135146
0.000191819
-0.0202838
-0.0699858
-0.000958619
-0.0669084
-0.119924
-0.00609915
-0.0489576
-0.018213
-0.000793554
0.000885032
-0.00613159
-0.00089084
-0.0574327
-0.0255002
0.000434281
-0.00192538
0.000632372
-0.0853812
-0.00116777
0.00226336
-0.0823498
-0.0687758
-0.0060817
-0.00995293
-0.025989
-0.00111154
-0.0143583
8.74412e-05
0.0014487
-0.00538941
-0.0108744
-0.0130088
-0.0879813
0.000371327
-0.0537064
-0.0191477
-0.0298946
0.000214146
0.000654144
-0.0291707
0.00776733
-0.0202018
0.000850945
-0.0117091
0.00219514
-0.0126407
-0.0255382
-0.00962793
0.0410452
-0.0511495
-0.00652367
0.000629282
-0.00806918
0.00539828
0.00356966
-0.0379865
-0.0157196
-0.028503
-0.0261548
0.00187014
0.00928206
0.000495548
-0.101226
-0.0687931
-0.0141048
-0.0542979
-0.0128254
0.000789412
-0.00188376
-0.00034078
-0.014748
0.000398427
-0.000763741
0.000847512
-0.0531732
0.000545072
0.00080329
-0.0219743
-0.0360721
-0.0704665
0.00660582
0.00239328
-0.00382745
-0.0612957
-0.0228768
-0.0299694
-0.123416
0.00390385
-0.0592942
0.000649342
-0.0500888
-0.00982306
0.000656976
-0.00207222
-0.0868309
-0.0659287
-0.01584
-0.0387848
0.00237082
-0.0111002
0.000155893
-0.00560326
-0.00911917
0.0141324
7.77215e-05
-0.0350346
0.0112747
-0.0718849
-0.000107106
0.0252352
0.000142829
0.00581799
-0.0172069
-0.077339
-0.0671745
-0.0569048
-0.00755748
-0.0829039
-0.00765553
-0.0581434
0.000680388
-0.0168609
0.000530643
-0.0129679
-0.0401467
-0.0147312
-0.0795736
-0.0199495
-0.0299831
-0.0110549
-0.0513938
-0.00987511
-0.0131268
-0.02947
-0.00767819
0.000810319
0.00223511
0.00289428
-0.0167725
0.000333338
-0.00450906
-0.0353803
0.00230375
-0.0103679
-0.0749152
0.00479164
0.000784478
-0.0246365
-0.105508
-0.0212855
-0.0309119
-0.0125124
0.00265078
0.000634147
-0.0720757
0.00225581
-0.0359334
-0.031628
-0.0773326
-0.0013959
-0.0343995
0.0174811
-0.00343307
0.00331881
-0.0116363
-0.0950242
0.0088952
-0.0803072
0.000948456
-0.0393209
-0.0640152
-0.0208993
-0.0762295
-0.0669925
0.000531536
0.00724075
-0.0778457
0.00362737
-0.071219
-0.00854906
-0.00810895
-0.073611
-0.0171632
-0.111453
-0.00910957
-0.0187418
-0.010205
-0.0817227
-0.0683279
-0.0197141
-0.000528462
-0.01958
7.41385e-05
-0.0728073
-0.0182737
-0.0146986
-0.0721411
-0.03037
-0.00233907
-0.0622074
0.00951699
-0.0203421
-0.000529009
-0.0663309
-0.0783323
0.000935921
-0.00399659
-0.023694
0.000544674
0.000832333
-0.00458118
-0.00713152
-0.00748901
-0.055238
-0.00302295
-0.0761343
-0.0230331
-0.118193
-0.00523405
0.0044975
-0.0526033
0.00356874
0.00357259
-0.00749806
0.000468818
-4.35132e-05
-0.0133017
0.000806901
0.00239221
-0.00376425
-0.0703032
-0.00057826
0.00161209
-0.097387
-0.0186886
-0.0210325
-0.0173075
0.000807404
-0.000703142
-0.043673
-0.0717046
-0.0951741
-0.0011374
-0.0487086
-0.0135244
-0.00504595
0.00068822
-0.0827924
-0.0393803
-0.0103986
-0.059734
-0.0322259
0.0129431
-0.0714785
-0.0720706
0.0042315
-0.00188945
-0.0189784
0.0464855
-0.0463679
0.000179049
-0.062833
-0.00702624
-0.00552963
-0.000165604
-0.0796364
-0.00428356
-0.102074
0.00371454
-0.0969396
-0.00029336
0.00368245
-0.00545227
0.00644291
-0.000693241
0.00100589
-0.0235765
-0.0827659
-0.0920858
0.0243782
-0.0755624
-0.00142556
-0.0712869
-0.0778245
-0.042496
-0.00911919
-0.00173942
0.000648523
-0.00365454
-0.0674923
-0.00780799
-0.0221883
-0.00413331
-0.0321095
-0.0711295
-0.0875995
-0.00134503
-0.0723968
-0.00734758
-0.00308221
-0.00501398
0.000449605
-0.0740442
-0.0133677
-0.0737311
-0.0179873
-0.000769274
-0.0638072
-0.0130893
-0.00592797
-0.0086175
-0.0695201
0.00147867
-0.0185379
-0.00154616
-0.00458263
-0.0646354
-0.0237607
-0.0181249
0.000997594
-0.0169459
-0.0137928
-0.0705393
-0.00113179
-0.0415423
0.000181891
0.00129773
0.00108903
-0.00677651
-0.0168728
-0.0464322
-0.0323243
-0.0127017
-0.000310817
-0.00468074
0.00180206
-0.0135077
0.000859525
0.00139291
-0.084155
-0.029523
0.00200219
0.00343232
0.000533886
-0.0647594
-0.0825621
-0.0242613
-0.0398313
-0.0122139
0.00102206
0.000148521
0.000708854
-0.0523741
-0.071441
0.000387862
-0.00213995
0.0225414
-0.0739201
-0.021395
-0.0216324
-0.0723221
-0.0206451
0.000358976
-0.0683534
-0.0705114
-0.00720175
0.0012225
-0.0094392
-0.070738
-0.0696349
-0.0239815
-0.062173
-0.088451
-0.0277636
-0.0712626
-0.0345061
-0.0023862
-0.0269052
-0.0586799
-0.0109453
-0.0724655
-0.0165034
0.000243509
0.000613261
-0.0493644
0.000938717
-0.0664488
-0.0165467
-0.0307819
-0.0505701
-0.00397921
-0.0698795
-0.0715101
-0.0122698
-0.0249125
-0.0692107
-0.0269514
-0.100503
-0.0164507
0.00176816
-0.00380571
0.00376309
0.000646681
0.0037148
0.000757052
-0.00928738
9.47856e-05
-0.017929
-0.0242327
0.00195962
0.000110321
0.000475635
-0.00913042
-0.0186933
0.00260114
-0.043989
-0.0202286
-0.00464431
-0.0299065
-0.0359049
0.00260405
-0.072439
-0.000965951
0.000253954
-0.0680226
-0.0853616
-0.100529
0.0069339
-0.000208429
-0.105764
-0.0135113
0.00090362
-0.038169
-0.00262522
-0.0466212
-0.0534717
0.00141296
-0.0788782
-0.0696029
-0.0243914
-0.00250013
-0.0881501
-0.0144914
0.0188885
-0.0313236
-0.108436
-0.0301777
-0.0610174
0.000108673
-0.00935942
0.000993412
-0.0124676
-0.0724926
-0.0828652
-0.0649547
-0.0855539
-0.0305867
-0.0056933
-0.00398257
0.000491032
-0.00553563
0.000611018
-0.0738741
-0.00302231
-0.0746562
-0.00217435
0.00317515
-0.0187116
-0.0696811
-0.0808312
-0.0724492
-0.0452865
0.000515591
0.00105103
-0.0722162
-0.0691068
-0.0294538
-0.0021195
0.000495574
-0.0238972
-0.0200027
-0.0663136
-0.0265259
-0.0325083
0.000633835
-0.0693897
0.000530386
-0.0715026
-0.0250336
-0.00398392
-0.0457577
-0.00254297
-0.0744143
0.000639863
-0.0711808
0.000967509
-0.0318739
0.00256845
-0.0129232
0.00191708
-0.0337871
-0.0422655
-0.0816407
-0.0914351
-0.0280369
-0.024769
-0.00567998
-0.0723017
-0.090226
-0.00050228
0.000718302
-0.0136766
0.000273171
-0.0674771
0.000256483
0.00317758
-0.0192828
-0.00232588
0.0028307
0.00113555
-0.019369
-0.0604129
-0.0798312
-0.00729015
0.00640857
-0.106655
-0.0242795
-0.0152519
-0.00404545
-0.0995825
-0.0450685
-0.0217343
-0.0112571
-0.00788553
-0.011227
-0.13564
-0.122711
-0.0366511
0.000919135
0.00356987
-0.000367516
-0.0708067
-0.0124925
-0.0827648
-0.0799033
-0.012449
-0.037308
-0.00535117
-0.00347911
-0.00499418
-0.0191002
-0.0715526
-0.0147611
-0.0610513
-0.000839644
-0.0049182
-0.000727608
-0.0108596
-0.0673145
-0.0693977
-0.016285
-0.102005
-0.0515699
0.000899352
-0.0115486
0.000754227
0.00257257
-0.0701589
-0.0703196
-0.0108522
-0.00650994
0.0141079
-0.0195987
-0.0417958
-0.0767449
-0.0161428
-0.0729732
-0.0504833
0.00148881
-0.0112512
-0.000641145
-0.0443418
-0.0151334
-0.00360219
-0.0718426
-0.022294
-0.00325121
0.00182317
-0.0258017
0.00067786
-0.066671
-0.0814193
-0.0153602
0.00176594
-0.0285321
-0.0120194
-0.00246233
-0.013588
0.000607701
-0.106934
-0.0189494
-0.0837956
-0.00819546
-0.0043715
-0.0310285
-0.0745215
0.00363423
-0.0373784
-0.107636
-0.00270594
0.0367998
-0.070303
-0.000406549
-0.00143795
-0.0277035
-0.0824822
-0.12301
-0.00661167
-0.00149516
-0.00799317
-0.00213547
0.00908523
-0.0126413
-0.0852365
-0.00700388
-0.0256542
-0.0193255
-0.00675802
-0.0182309
-0.0434026
-0.0038951
-0.061515
0.00287897
-0.000320987
-0.0215125
-0.0710556
-0.0157142
-0.0439265
-0.0702086
-0.0698505
-0.000410284
-0.0144694
-0.0262394
-0.080816
-0.0810112
-0.0129528
-0.0729216
-0.0249675
-0.00166071
-0.00764293
-0.100521
-0.0208356
0.00131031
-0.103673
-0.00484632
-0.0178003
-0.00297186
-0.132485
-0.00745833
-0.010262
0.00122245
0.0145488
-0.0242139
-0.00681482
-0.0379139
-0.109857
-0.0155495
-0.0112824
0.00940606
6.07844e-05
-0.0144677
-0.0147428
-0.0255729
-0.0426079
-0.0450136
0.00427009
-0.0770062
-0.030096
-0.0293303
0.0209849
-0.0359266
0.000835847
-0.0736084
-0.0736304
-0.0439394
-0.0160357
-0.0605303
-0.08807
-0.0154584
-0.00584865
0.000828756
0.0340645
-0.0707791
0.0187527
-0.0762805
-0.00314399
-0.0593678
-0.0056368
-0.0758819
0.000578553
-0.00236599
-0.00954042
-0.0140397
-0.0868878
-0.0715154
-0.0629504
-0.0226337
0.000622143
0.0129866
0.0026882
0.000997579
-0.0691522
0.000120488
-0.0427712
-0.0114346
-0.0221399
-0.00639789
-0.0118006
-9.68267e-06
0.00322988
0.000960924
-0.0102883
-0.0672714
-0.0023552
0.000614446
0.0245231
-0.000298921
-0.0125574
-0.0128166
-0.0244071
-0.0241854
-0.00253674
-0.00488972
-0.0588851
0.00155557
0.0015015
-0.00284498
-0.0192846
0.000762311
-0.0756588
-0.0146954
-0.00456567
-0.0633096
-0.0370215
0.0179703
-0.0768118
-0.0655055
0.00156154
-0.0163582
-0.0163825
-0.0243553
0.00184425
0.000762472
-0.0359836
-0.0688297
-0.0711966
-0.0667133
-0.0156801
-0.125706
0.00973357
-0.0252759
0.00198121
-0.078705
-0.0132881
-0.0324687
-0.012314
-0.0720228
-0.0948591
-0.00748738
0.000738947
-0.0233072
0.00198457
-0.0192553
-0.0485896
-0.00541304
0.000147872
-0.0640755
-0.0733854
-8.79672e-05
-0.0331182
-0.0381103
-0.0806088
6.64032e-05
-0.0996979
-0.0685765
0.000848111
-0.00458467
-0.0609719
-0.0279962
0.00157926
-0.0106782
-0.00474268
-0.0298167
0.000604573
-0.00214
-0.0759302
-0.113009
-0.130876
0.000616388
-0.0728989
-0.0144015
-0.0218572
0.00089821
-0.0123224
-0.027747
-0.000110192
-0.0875659
-0.0317116
-0.0142763
-0.0779836
-0.103817
-0.0203597
-0.0594016
-0.0993788
-0.0806441
-0.00157372
-0.11852
0.000734766
0.000356103
-0.0115565
0.00113432
0.000950044
-0.0833284
0.00293831
0.00220773
0.00434921
-0.0703208
-0.0940344
0.0208489
-8.47571e-05
-0.00526316
-0.014707
-0.0916338
0.000930783
3.46905e-05
-0.00793476
0.0162211
0.000110257
0.00235271
-0.0835291
-0.0423512
-0.0232292
0.000842214
0.0012352
-0.0208814
-0.0710662
0.000624523
-0.120053
-0.048109
-0.0161613
-0.0851558
-0.111865
0.000734314
-0.0640922
-0.0154887
-0.130257
0.000683107
0.0294517
0.00245233
-0.0190113
-0.00246053
-0.067236
0.00096969
0.00101035
0.00202117
-0.0604801
-0.0417239
-0.0705278
-0.0995771
-0.0159466
-0.0727368
-0.0232366
-0.0336994
-0.0688994
-0.0850681
0.00173448
-0.0847997
-0.0190216
-0.0196145
0.00202771
-0.0676206
-0.041971
-0.0304802
-0.0108112
0.000744674
-0.0716987
0.00177988
-0.0187874
-0.0128694
0.00206368
-0.0788461
-0.0348569
0.00775825
-0.0237653
-0.0228741
0.0156228
-0.0236977
-0.0440461
-0.0784555
-0.00782296
-0.0851608
-0.00624712
-0.0186809
0.00290246
-0.0785142
-0.0140398
0.00104404
-0.000735813
-0.0764902
0.00218756
0.000982463
0.00168811
-0.0175263
0.000852137
-0.0135776
-0.0819635
-0.072276
-0.0942497
-0.0968951
-0.003212
-0.0697201
-0.0797159
-0.0637352
-0.116222
-0.0811226
0.00338011
-0.0686261
-0.0316687
-0.0435095
-0.07116
-0.0342686
0.00105123
-0.102092
-0.00201624
-0.0139696
-0.0033934
-0.0968184
-0.0710607
-0.0705588
-0.0121914
-0.0188589
-0.00653339
-0.0757808
-0.115119
-0.00798075
-0.0587093
-0.0176035
-0.0150613
-0.0126172
-0.0745192
-0.0369068
-0.0129115
-0.0145678
-0.0290378
-0.0055168
0.00592305
-0.0239021
0.000890346
-0.0116556
0.00979945
-0.0210204
-0.00456002
-0.0111936
-0.0157879
-0.00811238
-0.087641
-0.0791978
-0.00316271
0.0134498
-0.0126042
-0.0321041
0.00100965
0.00113285
-0.0171774
0.000768466
-0.000204418
-0.00319091
0.000604002
-0.00824265
0.00412633
0.0200213
-0.0815743
-0.0153641
-0.00791371
-0.077365
-0.0135903
-0.0319334
0.000823463
-0.0151019
-0.00189662
-0.0123359
-0.000263658
-0.0224228
-0.0122433
-0.0835579
0.00258669
-0.0171497
-0.0184816
0.000707366
-0.00608692
-0.00889257
-0.00977437
-0.0491223
-0.116546
0.00307139
-0.0198553
-0.0121952
-0.0156415
-0.00103246
-0.0185976
-0.00532822
-0.000550452
-0.0668275
0.00168718
-0.0422342
-0.0857841
0.00183696
-0.00446709
-0.00249242
-0.0344175
-0.000423891
-0.00116098
-0.0218614
-0.0697515
0.00271562
0.00116209
-0.0850935
0.000615439
-0.00018719
0.000653608
0.000634539
9.37446e-05
0.00086975
0.0015844
-0.0518255
-0.00140513
-0.0233009
-0.0228593
0.00378956
0.00710336
-0.0404542
-0.0938099
-0.108267
-0.035638
0.00143484
-0.0766191
-0.0611396
0.0025769
-0.023514
0.000939951
-0.0086671
-0.00229111
-0.0202792
-0.0048524
0.000699367
-0.0207823
-0.013628
7.88817e-05
0.00120137
-0.0124592
-0.000190415
0.000890826
-0.000181555
-0.0859111
-0.0667036
-0.00474993
-0.0110419
0.000774192
-0.054584
-0.0886874
-0.080431
-0.0183578
-0.0703066
-0.00199711
-0.0711148
-0.0682286
0.0123446
-0.00540353
-0.011155
5.01843e-05
-0.00340607
-0.00298911
-0.00209749
-0.0200382
-0.0846693
-0.050722
-0.0757872
0.000229811
-0.00317728
-0.0693612
-0.0111201
0.000694127
0.00137316
0.000668828
-0.0229185
-0.00865473
0.00238293
-0.00842202
-0.072003
-0.0370896
-0.0939591
-0.0214964
-0.0789463
-0.0709343
-0.00614735
0.000799052
-0.00273845
-0.00960946
0.000743278
-0.0108348
-0.0819467
-0.0712695
-0.0125912
-0.0140152
0.00187691
-0.0176443
0.000283668
0.000734056
0.000274971
-0.0620535
9.74886e-05
-0.00335561
-0.0166485
-0.00788763
-0.0196026
-0.0694896
-0.0815327
-0.00444048
-0.076712
-0.0539923
-0.0719945
0.00066285
-0.010917
-0.000433288
-0.0151191
-0.0776734
0.000656152
-0.0736757
0.00130246
-0.000845364
-0.0143838
-0.0745512
-0.0440805
-0.0487684
-0.0128887
0.000454203
0.000136521
-0.0742731
-0.00782935
0.000945454
0.00172974
-0.00817844
0.0066511
0.000716236
0.000762342
-0.0712424
-0.0724536
-0.0755771
-0.0185315
-0.0474261
-0.088324
-0.0621893
-0.071592
-0.0254227
0.000608982
0.000511906
0.000297238
-0.00650826
-0.0756257
-0.0766157
0.000856054
-0.0706036
-0.070953
-0.0475827
0.00170139
-0.0113436
0.00587811
-0.0710212
-0.0811786
0.00575925
-0.078967
0.000263415
-0.0467325
-0.0356891
0.000590048
-0.0709861
-0.0126421
-0.0662982
-0.0792049
-0.00613703
-0.079684
-0.00521644
0.000170715
-0.0834366
-0.0718564
-0.0627028
-0.0172657
-0.0893914
-0.068554
-0.0696875
-0.074196
-0.0855573
-0.05963
-0.00912937
-0.0137867
0.00229993
-0.044486
-0.0720149
-0.00248163
-0.0709823
-4.84683e-05
-0.0189266
0.00060284
7.75747e-05
-0.0780946
-0.0132425
-0.0625234
-0.0806099
-0.0133651
-0.034157
0.00389804
-0.0718618
-0.00139218
-0.00418407
-0.00494337
-0.000212919
-0.0749785
0.00127587
0.000995728
-0.0380512
-0.0246716
-0.0716829
-0.0284933
-0.0088259
-0.0218596
0.000837346
0.00335369
-0.0141372
-0.0607512
0.00320233
-0.000285595
-0.0685996
-0.0390891
0.00182182
-0.0696016
-0.0648749
-0.0127482
0.0103002
-0.0197101
-0.0716006
-0.000654304
0.000867357
-0.0686684
-0.0148591
-0.073475
-0.0764834
-0.0504801
0.00944385
0.00261875
-0.015368
-0.00677494
-0.0369226
-0.000493856
-0.0723423
-0.0588297
-0.00243261
0.00055078
-0.0228657
-0.0121482
-0.0868712
-0.0513405
0.00032292
-0.0880497
-0.058864
-0.0221668
-2.53653e-07
-0.0728258
-0.0697949
-0.0810915
-0.0142751
0.000843567
-0.0406304
-0.0113644
-0.0152938
-0.000523862
-0.0145691
0.000614306
0.0152703
-0.000198518
0.000395749
-0.0163801
-0.0625375
-0.0689126
-0.0198804
-0.0772409
-0.0782048
0.000360504
-0.0705226
-0.0703948
-0.0720443
0.000471782
-0.0122063
-0.0725959
-0.126701
-0.065098
-0.0305059
-0.00332564
-0.0719628
-0.0593873
-0.0606575
-7.03261e-05
-0.045843
-0.0574861
-0.0123831
-0.0591659
-0.0883751
-0.000546907
-0.114928
-0.0711851
-0.00792349
-0.000386511
0.0052736
-0.0125677
-0.00155696
0.000723714
0.000126545
-0.0711278
-0.0688969
0.00306827
-0.0422151
-2.79935e-05
-0.0161518
-0.0972819
-0.0730546
-0.0965544
-0.0436439
-0.0742797
0.00154548
0.000635969
-0.0361236
-0.0818086
-0.0707277
-0.0411998
-0.0690893
-0.0241189
0.000330841
-0.012452
-0.0240189
-0.0366802
-0.0940813
-0.0704456
-0.020778
-0.078116
-0.0896405
-0.00321301
-0.110493
-0.0146021
-0.0282143
0.00417842
-0.0145053
0.00117809
-0.0265618
-0.0275228
-0.00343161
-0.0721609
0.000754687
-0.0574718
-0.0220572
-0.0178449
-0.0713263
-0.0280275
-0.0725887
0.000316024
-0.0657647
-0.073264
-0.0625943
-0.0674606
0.00174377
0.000436544
-0.0702402
-0.0715715
0.000671854
-0.0151066
0.000866528
1.19201e-05
-0.0115056
-0.0250461
-0.0710632
-0.0791629
-0.0142195
-0.135245
-0.0253461
0.00073391
-0.00224109
-0.0133464
-0.00385227
-0.0403894
-0.0714728
-0.0709672
-0.0637943
0.00454892
-0.00586849
-0.0234828
-0.000489651
-0.0714748
0.0163326
0.000162365
-0.0178138
-0.0453104
-0.0185426
-0.0703003
-0.0204913
-0.115212
-0.0155218
-0.0752764
-0.06467
-0.0717637
-0.0104112
0.0013792
-0.0217082
-0.0140195
-0.0681763
-0.0924313
-0.0261952
-0.0157696
-0.0611222
-0.0224963
-0.0218571
-0.0143253
0.00652461
-0.00351453
-0.0682174
-0.00753362
-0.0271434
-0.019999
-0.0232911
-0.017193
-0.073333
-0.0656105
-0.00743985
-0.0130716
-0.0331966
-0.00522646
0.00181444
-0.0328538
-0.0317512
0.00212763
-0.135048
-0.0127711
-0.0712126
-0.0147336
0.000176921
-0.0110017
-0.0724276
-0.00521343
-0.0691107
-0.0840294
-0.021464
0.00330765
-0.0634439
0.000179194
-0.0669217
0.00826915
-0.00472628
-0.0574271
0.00101035
-0.0688726
0.000138343
-0.0039116
0.000722774
-0.00406514
-0.0347058
-0.0147154
-0.0572873
-0.0555075
-0.0152592
-0.0019923
-0.0557668
-0.0978163
0.028038
-0.0401992
0.000451213
-0.00401972
-0.0397097
-0.0593577
0.0154998
-0.0587786
-0.0211497
0.000754269
-0.0109212
0.00078897
-0.00128419
-0.00662157
-0.0688721
0.00323972
0.000688383
-9.0915e-05
-0.0780436
-0.0693238
-0.0362945
-0.00239184
-0.0586253
-0.0684955
-0.138967
0.00563013
-0.024229
-0.0568318
-0.0234322
0.00227674
-0.0646146
-0.0687507
-0.0123538
-0.00351644
-0.0699693
-0.0236972
0.0042507
-0.0108091
-0.0394134
0.000889455
-0.0140939
0.00761901
-0.0170754
-0.0217839
-0.00240582
-0.00261581
-0.0190496
-0.0860919
-0.00197538
-0.0203844
-0.0670804
0.00074227
0.00108388
-0.0690097
-0.026674
-0.0483294
-0.0133588
-0.0248009
-0.0133727
0.000675411
-0.00139144
0.00291352
-0.0254235
-0.0687104
-0.0620283
-0.031604
-0.0711744
-0.0183341
-0.0233443
-0.00312917
-0.00750327
-0.0464646
-0.0283706
0.00254278
-0.0410959
-0.00572302
-0.0175066
-0.0275018
0.00239529
0.000791822
0.0310638
-0.0114583
0.0146219
0.0022448
-0.0324406
0.000841004
-0.012777
-0.0399679
-0.0684713
-0.0203186
-0.0724385
-0.0191984
-0.0719489
-0.000893111
-0.0484582
-0.0376493
-0.00714368
-0.0130138
-0.0325832
-0.0416536
0.0130246
0.00109934
-0.0433119
-0.0707976
-0.0358445
-0.001804
0.0119704
-0.0192053
0.00934447
0.00659729
0.00140548
0.000107845
0.0147526
-0.00135056
-0.0111503
-0.0160935
-0.0720449
-0.0342523
-0.0752189
-0.00245995
0.0310646
-0.0140235
-0.0299032
-0.0139387
-0.00128978
-0.0177306
0.0160269
-0.00222028
-0.129971
-0.0258689
-0.078558
0.00100621
-0.00898737
-0.0406905
-0.06457
-0.0212639
-0.0508343
-0.0259406
-0.0145567
-0.0133068
-0.00325113
-0.0871753
-0.0698652
0.00312368
-0.0111463
-0.0231296
-0.00879101
-0.000732085
-0.0611622
0.00145914
-0.120668
-0.063915
-0.0559199
0.0138838
0.000990455
0.030229
-0.0574049
-0.0347001
-0.0075801
-0.00568688
-0.00977107
-0.00371319
0.00502708
0.00592949
-0.0714177
-0.00564615
-0.00517502
-0.0761526
-0.0384797
-0.0219646
0.00393458
-0.00946575
0.0009089
-0.0107584