/*--------------------------------*- C++ -*----------------------------------*\
| =========                 |                                                 |
| \\      /  F ield         | OpenFOAM: The Open Source CFD Toolbox           |
|  \\    /   O peration     | Version:  v2012                                 |
|   \\  /    A nd           | Website:  www.openfoam.com                      |
|    \\/     M anipulation  |                                                 |
\*---------------------------------------------------------------------------*/
FoamFile
{
    version     2.0;
    format      ascii;
    class       volVectorField;
    location    "500";
    object      ddtCorrDdt0(U);
}
// * * * * * * * * * * * * * * * * * * * * * * * * * * * * * * * * * * * * * //

dimensions      [0 1 -2 0 0 0 0];


internalField   nonuniform List<vector> 
13851
(
(0.00256661 -0.00418816 -2.47183e-17)
(-0.000218061 -0.000184432 3.7703e-18)
(-0.00020646 -0.000184042 -3.53679e-18)
(0.00435239 -0.00284456 -2.46167e-17)
(-1.74408e-05 2.81891e-07 7.56417e-20)
(-0.000323936 -0.000120394 -6.16352e-18)
(7.54005e-05 -0.000247346 -1.21329e-18)
(-2.30037e-05 -1.36468e-06 -7.39467e-19)
(-0.00292472 -0.000918704 2.95198e-19)
(-1.87062e-05 6.55468e-05 9.8173e-19)
(-0.000693659 0.000311995 1.16037e-17)
(-2.46003e-05 -5.00313e-06 4.23531e-19)
(-4.86154e-05 0.000208807 -4.71449e-18)
(-0.00496597 -0.000346484 2.14002e-18)
(-4.08626e-05 -0.000782481 -5.07932e-18)
(0.00194169 0.000997445 -1.49003e-18)
(-0.000251722 0.000128681 -3.82605e-17)
(-9.65148e-05 -1.29542e-05 4.53849e-18)
(-0.0151686 0.00139703 6.23812e-17)
(0.00212425 -0.00428924 2.011e-17)
(-0.000310836 -0.000910477 5.49707e-18)
(-0.000269745 0.000127742 2.67835e-18)
(0.0157862 -0.0035367 3.18021e-17)
(-1.88041e-06 5.3133e-06 3.47299e-19)
(-0.00647986 -0.0131073 -4.2204e-18)
(0.000518438 -0.00013051 -1.52758e-17)
(-0.00386175 0.0019692 -5.36899e-18)
(-0.00158522 -0.0144125 1.19135e-17)
(-0.00827619 -0.00232194 2.93169e-18)
(-5.04328e-05 -1.71161e-05 9.30075e-19)
(-0.00528946 0.00185078 1.32838e-17)
(7.30135e-05 -0.000257179 6.75885e-18)
(0.00295633 -0.0026166 -5.74118e-18)
(-0.00619273 -0.00484186 -2.10597e-17)
(-0.000583324 0.000165028 -9.62511e-18)
(-0.00925665 -0.00104682 2.8257e-18)
(-1.09438e-06 4.80445e-06 -3.90115e-19)
(0.0131507 0.00440407 5.16771e-18)
(-0.00495556 -0.00206337 -2.82966e-17)
(-0.00011402 4.16328e-05 -1.29005e-18)
(0.00695386 -0.00675162 1.97703e-17)
(-0.00706783 -0.00277493 1.00253e-17)
(-0.00380132 -0.00015027 -3.24904e-18)
(-0.00206011 -0.000161806 -2.12494e-17)
(-0.0040805 -0.00416278 2.77159e-18)
(-8.65812e-05 -5.96008e-06 1.83571e-19)
(1.65535e-05 -1.02684e-05 1.0397e-18)
(0.00143645 -0.000382799 6.14954e-18)
(-0.000229402 4.46389e-05 3.44149e-18)
(-3.97068e-05 0.00020911 1.85508e-18)
(0.00195095 0.00101409 -4.31356e-17)
(-3.3188e-05 0.000217586 -1.98151e-18)
(0.00186355 0.000767532 1.34768e-18)
(0.000199811 -0.000409162 8.76428e-18)
(-0.00589941 -0.000622237 3.76456e-17)
(-0.000114172 4.47984e-05 6.21413e-19)
(0.00317021 -0.00293465 6.28458e-18)
(0.00747599 -0.00605778 -2.52316e-17)
(0.00191051 -0.00606625 3.1212e-17)
(0.00168829 -0.00173121 1.72202e-17)
(-2.44445e-05 -3.26557e-06 -1.26262e-18)
(-0.00254041 0.00138725 -1.20968e-17)
(-1.81532e-05 2.64869e-05 -3.03095e-19)
(-0.000235252 5.26612e-05 -2.13938e-18)
(-0.000718088 0.00090031 7.47382e-18)
(-0.00066268 0.000972736 -1.95482e-20)
(0.00179523 -0.00144692 -8.93754e-18)
(-0.000109926 0.000606437 2.09742e-17)
(-0.000133265 -9.99542e-06 -1.77389e-18)
(-0.00102995 -0.00465996 -2.34821e-17)
(-0.00236627 0.00243472 4.94704e-17)
(-0.000472364 -0.0011899 -2.73529e-17)
(-7.15833e-05 0.000160686 -2.39447e-18)
(0.00075913 -0.00160607 3.87763e-18)
(0.000180036 -0.000506335 1.26762e-17)
(-0.000211669 8.00418e-05 -9.18057e-19)
(-0.000343195 0.000397966 -3.19636e-17)
(-3.42922e-05 -7.61071e-06 -4.78092e-18)
(-0.00644091 -0.0119717 -1.83667e-18)
(-5.58571e-05 9.80642e-05 -1.22157e-18)
(-0.000137893 -9.50016e-06 1.4699e-18)
(-0.00528774 -0.0018835 6.42264e-17)
(-0.000564057 0.000164021 -6.04104e-18)
(-0.00474461 -0.000635822 -1.88403e-17)
(0.000593957 -0.00181471 -2.16341e-18)
(-0.00436528 0.00231981 -1.06617e-17)
(-0.000278355 0.000130934 5.54646e-18)
(-0.0116662 -0.000534212 2.05567e-18)
(-2.69231e-05 0.0001035 2.38914e-18)
(-0.00540984 0.00149332 -3.77233e-17)
(-2.5582e-05 0.000215345 1.94441e-18)
(7.30763e-05 -0.000270498 -1.32476e-18)
(-0.00253065 -0.000298975 3.06983e-17)
(-0.00462056 0.00188817 -3.09407e-17)
(-0.00264395 0.00505256 4.67696e-17)
(-0.00177234 5.81769e-05 2.47654e-17)
(-8.35401e-05 4.2522e-05 2.44089e-19)
(0.00186843 -5.56037e-05 -3.68996e-18)
(0.0112272 0.000106221 3.75956e-17)
(0.000321286 0.00153041 2.0345e-17)
(0.00193162 -0.000284779 -6.42983e-18)
(-0.000149836 0.000462062 -3.56849e-17)
(-0.000204394 0.00048041 -7.28568e-18)
(-7.09286e-05 0.000164228 1.63333e-18)
(-8.51196e-05 -3.23675e-05 -1.53584e-18)
(-0.00080072 -0.000788424 -5.4597e-18)
(-8.17309e-05 -2.63007e-05 8.72018e-20)
(-0.00280446 0.00274046 -5.06597e-17)
(6.78682e-05 -0.00027759 -1.06649e-18)
(-9.3044e-05 -1.199e-05 -1.94037e-18)
(-0.000285224 0.000192236 4.36577e-18)
(-8.84117e-05 -1.41691e-05 -1.98863e-19)
(0.000532577 0.00285304 -8.38994e-18)
(-0.000879361 0.000149794 -4.57549e-18)
(0.00246561 -0.000457246 7.18589e-18)
(0.000187247 -0.00040341 -7.09443e-18)
(-3.87798e-05 -2.25173e-05 -9.07204e-19)
(-2.15818e-05 -2.02998e-06 2.57896e-18)
(0.00452096 -0.00239812 2.23379e-17)
(-0.000155688 -0.0054963 -4.85758e-17)
(-0.0010695 -0.000591564 1.26374e-18)
(-7.23925e-05 -7.78544e-06 1.93005e-18)
(-0.000128757 -2.53827e-06 5.68317e-20)
(-0.000936723 -0.00319643 -6.11698e-18)
(-0.00866321 -0.00860212 2.158e-17)
(-0.000130062 0.00074096 1.88321e-17)
(-8.17814e-05 4.28929e-05 3.93953e-19)
(-0.000365906 0.000398986 3.45684e-17)
(-0.0010973 -0.00572871 -1.0697e-18)
(-3.87444e-05 -0.00111114 -1.22001e-17)
(-0.000264288 0.000129788 8.33808e-19)
(-0.000453748 3.6126e-05 -5.2267e-18)
(0.0113636 0.00530836 2.3861e-17)
(-0.00612052 -0.0043603 1.75115e-17)
(-0.000727992 0.000288197 2.43141e-18)
(-0.00477542 0.00336984 -3.43745e-17)
(-9.79855e-05 0.000598189 -3.96536e-17)
(-0.0040185 0.00234796 -2.11327e-17)
(-8.59995e-05 0.000375766 -1.79133e-17)
(0.000107597 -0.00101928 4.9188e-18)
(-0.00484539 -0.00119373 -4.47658e-17)
(-0.000103201 0.000127371 -3.61259e-18)
(-2.53777e-05 0.000115104 -1.67714e-18)
(-0.000318776 0.000730918 1.02614e-17)
(0.00633084 0.0108347 7.44365e-17)
(-0.00018589 7.80807e-05 -1.91446e-18)
(-3.20079e-05 -8.52056e-06 1.59538e-18)
(-0.00503514 0.00161877 1.34465e-17)
(-0.00646832 -0.00213267 1.04315e-18)
(-0.000353264 0.000423255 -3.25509e-17)
(0.0017529 -0.000396294 8.01028e-18)
(0.000545154 0.00232823 -1.44924e-17)
(-0.000881393 0.000188358 -5.24886e-17)
(-0.0114856 -0.0014515 -1.33819e-18)
(-5.42114e-05 0.000188986 -1.73222e-18)
(-1.58036e-05 0.000188512 2.45146e-19)
(-2.3026e-05 2.78159e-06 -1.40435e-18)
(-0.0047716 -0.00211512 4.35482e-17)
(4.12382e-05 -0.000944421 1.69398e-17)
(-1.37934e-05 -0.00029988 -4.90112e-18)
(-3.56585e-06 1.15237e-05 -7.31724e-19)
(-0.00875359 -0.00187217 2.26547e-18)
(-0.000723413 -0.000798511 7.2491e-18)
(0.0013308 -0.000403336 -1.01684e-17)
(-0.0049746 -0.00034821 4.77089e-18)
(-0.00184897 -0.00172684 -1.15375e-17)
(-0.00172771 -0.00154483 6.22841e-19)
(0.00147044 0.00129852 4.70745e-17)
(-0.000280727 0.00018461 4.46205e-18)
(0.00930896 -0.000293078 -1.3897e-17)
(-2.34521e-05 3.61835e-06 -6.18573e-19)
(-3.76796e-05 -2.24337e-05 -1.2661e-18)
(-0.0012151 -0.000607365 2.60378e-18)
(-1.50368e-05 2.86466e-06 3.46212e-19)
(-0.0027418 0.00585934 -6.32914e-17)
(0.0121328 0.00544765 4.43232e-18)
(0.000705043 -0.000582874 -4.80996e-18)
(-3.60827e-05 -2.1243e-05 8.46827e-19)
(0.000197131 -0.000476072 1.2743e-17)
(0.000858334 -0.000569624 1.399e-17)
(-0.00760549 -0.00835647 -1.33299e-17)
(-0.00180425 -0.000128644 2.80586e-17)
(-0.000284491 0.000175163 -1.03621e-18)
(-2.44237e-06 -0.00105807 1.66855e-17)
(-0.000684141 -0.000118571 -4.24123e-17)
(-0.00657417 -0.00238078 -1.66192e-17)
(0.00316873 -0.00218433 -1.31282e-17)
(-9.83252e-05 0.000278445 -1.01556e-17)
(-5.65492e-05 0.000183201 8.17376e-18)
(-6.56945e-05 -3.29674e-05 1.44332e-18)
(0.00710999 0.0131479 2.23669e-18)
(-6.27897e-08 -0.000953724 -5.10747e-18)
(-0.00526939 -0.000337773 -6.39385e-18)
(-0.000326991 -0.000142694 1.29465e-17)
(-0.000183531 7.22891e-05 -3.5843e-19)
(0.00194097 0.000341767 1.73688e-17)
(0.00292165 -0.00198759 8.55486e-18)
(-7.88242e-05 -0.000129602 4.56928e-18)
(-0.000138183 -9.57124e-06 -3.43368e-18)
(-0.000138647 0.000630131 2.61117e-17)
(-0.00477587 0.000491334 -5.24092e-19)
(0.00799123 0.00474438 7.54372e-17)
(0.0096965 -0.0047404 1.05078e-17)
(-7.60051e-06 -0.000763247 7.60222e-18)
(-0.00142967 0.00281306 1.83823e-17)
(0.00852876 0.00405103 -2.95179e-17)
(-3.80877e-05 0.000178207 4.47639e-18)
(0.000320733 -0.000849454 6.94645e-18)
(-0.00317132 -0.000445866 1.3777e-17)
(-0.000318602 -4.88498e-05 2.8809e-18)
(0.00168674 0.00143203 -2.84702e-18)
(-0.000124322 -4.9949e-07 5.6483e-20)
(-0.00548072 -0.000100198 5.76026e-18)
(-5.96333e-06 5.64322e-05 -8.70919e-20)
(-0.000602644 0.000124914 -1.81237e-17)
(-0.000230532 0.000102425 9.04865e-19)
(-4.09084e-05 0.000202386 -4.1403e-18)
(0.00330892 -0.0087987 2.05044e-17)
(-0.000117063 -5.67604e-05 -3.46695e-18)
(2.16851e-06 0.000812303 4.64023e-17)
(-3.49827e-05 -2.02512e-05 -1.50683e-18)
(0.00140458 -0.00485978 1.90813e-17)
(-0.00509376 -0.000572915 1.15198e-17)
(-0.00415844 0.00450364 -1.7917e-17)
(-0.000116978 0.000267247 1.4014e-17)
(0.000338719 -0.000845366 -1.78506e-17)
(-1.59386e-06 3.27337e-05 3.99361e-19)
(-0.000309576 0.000704465 -2.74666e-17)
(-3.18291e-05 4.33671e-05 2.2044e-20)
(-0.000585185 0.000129955 1.29228e-17)
(0.0055724 -0.00362074 -3.09847e-18)
(-9.83582e-05 0.000267142 -6.36738e-18)
(-0.00031282 -5.98695e-05 3.45786e-18)
(-2.22796e-06 2.61088e-05 -1.46636e-18)
(0.0094192 -0.00468882 1.20071e-17)
(-5.09441e-05 -1.44892e-05 2.6166e-18)
(0.00215775 0.00121917 4.08419e-17)
(0.0105819 -0.00369135 -1.42545e-17)
(0.000156412 0.00137623 2.84629e-17)
(-2.48615e-06 1.1258e-05 8.93162e-19)
(0.00567646 -0.00552694 -3.1175e-17)
(-0.000354367 -0.00173577 6.01936e-17)
(-0.00361999 -0.00430147 -2.81978e-18)
(0.00167697 0.00120721 5.43365e-18)
(-0.000389155 -0.000513212 1.83527e-18)
(-0.00029237 0.000785328 7.80356e-18)
(0.00338243 -0.00794323 1.06359e-17)
(0.000208998 -0.000466293 -1.93714e-17)
(-0.00153015 -8.93818e-05 -2.1952e-17)
(-0.000306007 0.000198997 -4.96471e-18)
(-0.00876293 -0.000935933 1.63637e-17)
(-0.00400505 -0.00386464 -2.60747e-17)
(-3.08941e-05 -2.33076e-06 2.40514e-19)
(-0.000210334 -0.000330007 5.97109e-18)
(0.00205266 0.000111599 -6.77678e-18)
(-0.00948767 -0.0014094 2.69617e-18)
(-0.0104142 0.00058341 1.28861e-18)
(-6.3292e-05 -3.45975e-05 -3.33415e-18)
(-0.000102468 0.000749245 -3.10465e-17)
(-2.84929e-05 0.000101632 -6.41561e-18)
(0.00567686 -0.00184543 1.34906e-17)
(-0.0100443 -0.00614939 -1.79464e-17)
(-0.000213536 -0.000347497 -1.19374e-17)
(-0.000700006 -0.000890836 -1.50871e-17)
(-0.00464787 -0.00381057 2.68204e-17)
(-6.99486e-05 0.000137849 -1.53697e-20)
(-0.000154851 0.000482063 3.69175e-17)
(0.00119404 -0.000273006 2.24181e-18)
(-0.0061033 -0.0194235 3.28291e-17)
(-1.99514e-05 2.15419e-06 5.36e-18)
(-3.83625e-05 0.000206145 4.16738e-18)
(-0.00010287 0.000266218 9.7709e-18)
(-0.00411862 0.000646562 -5.51425e-19)
(0.00257348 -0.00169066 -1.86618e-17)
(-0.000280915 -0.00107035 1.10003e-18)
(-7.58734e-05 -8.61022e-06 -5.65678e-18)
(-0.00680935 -0.00968043 2.39967e-17)
(-0.0110933 -0.00397954 -4.06355e-18)
(0.0023141 -0.00121404 -1.46604e-17)
(-0.000638224 -0.000891769 1.11962e-17)
(-0.0040082 0.000456103 5.60103e-22)
(0.0110422 -0.000836621 1.94641e-17)
(-0.00028221 -0.000290308 2.76031e-18)
(-5.51627e-05 -0.000686622 -2.77032e-17)
(0.0114242 0.00199596 -3.00087e-17)
(-8.29324e-05 -3.17597e-05 1.31611e-18)
(-2.26931e-05 1.86885e-06 2.69382e-19)
(0.00253715 -0.00134965 2.01504e-18)
(-0.000573354 0.000374257 6.87328e-18)
(-5.16516e-05 -1.07583e-05 -3.21438e-18)
(-6.07265e-06 5.33925e-05 -1.34168e-18)
(-3.21891e-05 4.86762e-05 -3.30675e-18)
(-1.62882e-05 1.47489e-06 1.55689e-20)
(-0.000269867 -0.000604717 -9.08494e-18)
(-2.32886e-05 -9.9051e-07 1.70573e-18)
(-0.0028516 -0.000706081 -1.14654e-17)
(-0.000320999 -0.000970304 5.95382e-19)
(-0.000102546 1.78469e-05 -2.3577e-19)
(-0.00966511 -0.0011046 -1.38794e-18)
(-0.00118522 -0.00283375 1.13359e-18)
(-4.61561e-05 0.000200685 9.36187e-18)
(0.00195645 -0.00488827 -5.69695e-18)
(0.00779407 0.00065804 5.21028e-17)
(-0.000104536 0.000124463 -2.71243e-18)
(-4.16992e-05 0.000207206 -9.07449e-18)
(-0.00037975 -0.00100323 -8.24143e-18)
(-0.00417275 -0.000869593 -1.03042e-17)
(0.00681069 0.0027762 7.14431e-17)
(-0.00135522 -0.00108078 -1.1467e-17)
(-1.58652e-05 -4.3568e-07 8.85005e-20)
(0.00847173 -0.00196085 2.21361e-17)
(-2.33277e-05 -1.06612e-06 -3.41291e-20)
(-0.00164197 -0.00100986 2.18102e-17)
(0.00738577 0.0010842 -4.36458e-17)
(-0.00722143 -0.0192905 7.52524e-17)
(-1.30856e-05 -0.000292802 -7.67e-18)
(0.0118712 0.00151443 5.96323e-17)
(0.00191628 0.00621728 -5.29452e-18)
(-0.000481772 0.00291224 -1.05343e-17)
(0.000915964 0.00143717 3.22985e-17)
(-0.000109698 0.000486885 3.43199e-17)
(-0.00535865 0.00385413 2.92326e-17)
(-0.000829138 -0.00409145 9.67792e-18)
(-0.000957853 -0.016525 -1.38165e-19)
(-0.000144836 -1.04248e-05 3.82773e-19)
(-0.00381894 0.000773478 -4.04111e-17)
(-0.00806534 -0.000301905 1.80904e-17)
(-0.000111965 0.000936654 -1.12552e-17)
(-0.00010655 0.000954329 1.1442e-17)
(-4.90165e-05 0.000171117 -2.18534e-17)
(-0.00140626 -0.000736778 2.95549e-18)
(-0.000204004 0.000232726 -1.50259e-17)
(-0.0117539 -0.000544598 2.20203e-18)
(-0.000230618 0.000555304 2.06809e-17)
(-3.15663e-05 4.80858e-06 9.02371e-19)
(1.18793e-05 -1.30631e-05 2.51885e-18)
(-0.000341719 0.000110668 -1.64527e-18)
(-0.000747534 0.00257536 -4.69602e-18)
(-7.14527e-06 0.000853177 -1.01247e-16)
(-7.98155e-05 -3.36677e-05 -5.33657e-19)
(-0.00347436 0.00438369 4.26404e-18)
(-0.000198703 0.000252068 2.56189e-18)
(-0.000457333 4.97106e-05 -1.41586e-17)
(-5.24397e-06 -0.000302052 8.83454e-19)
(-0.00456479 -0.000738983 7.56436e-18)
(-0.00597487 -0.00958585 -1.43875e-17)
(0.00207472 0.000547475 -1.16244e-17)
(-0.000222566 9.36691e-05 -6.37201e-19)
(-0.000296116 -5.81596e-05 8.72108e-18)
(-0.00993841 0.00262402 1.0965e-17)
(-4.77021e-05 0.000170876 -2.81839e-18)
(-0.0120391 -0.00301528 -2.08217e-17)
(-0.000266106 -0.000293361 -2.33633e-18)
(-0.000425596 -0.000992099 -5.53728e-19)
(-0.000207073 0.000246613 -6.38884e-18)
(-2.90654e-05 0.000110264 1.15848e-18)
(-0.000102899 1.24144e-05 -1.12377e-20)
(-0.00159344 -0.000623797 -2.0388e-17)
(0.000256856 0.00178356 -1.57988e-17)
(-0.00330001 -0.004619 -1.54871e-18)
(0.00817404 0.005872 1.19122e-18)
(-0.00956682 0.00221156 2.53974e-18)
(-0.000193636 7.75515e-05 1.78285e-18)
(0.0102859 -0.00390237 2.01916e-18)
(0.00786342 -0.00315641 4.3673e-17)
(-4.65909e-05 -3.07098e-05 -1.84988e-18)
(-0.0082751 -0.0189363 -7.48311e-17)
(0.000327319 -0.00297415 -3.55782e-17)
(0.0109798 0.000313237 -1.04779e-17)
(-0.000334741 0.00010291 -6.59816e-18)
(0.000258999 8.48567e-05 1.23407e-19)
(0.000477317 -0.00486311 -1.28369e-18)
(0.00950989 0.00143022 6.17618e-17)
(-0.00166514 -4.20786e-05 -3.87824e-17)
(-0.0111486 -0.000726976 4.23515e-18)
(-0.000186959 7.54206e-06 7.54008e-18)
(0.013136 0.00610989 2.47712e-18)
(-0.00565882 -0.000184413 1.33096e-17)
(-0.000413117 -0.000328223 3.58387e-18)
(-0.00856592 -0.00116523 1.76856e-18)
(-0.000486924 -0.000327543 -1.75356e-17)
(0.0110768 -0.002871 2.86819e-17)
(-6.91492e-05 -0.000652978 9.72784e-18)
(0.000301142 -0.000380699 -9.50136e-20)
(-0.00488616 -0.00254587 -2.18013e-17)
(-0.000277901 0.00278573 5.97616e-19)
(-2.35396e-05 0.000190395 -1.84513e-18)
(-0.000296701 -0.000223907 -2.12211e-18)
(-0.000575537 0.000376039 2.44824e-17)
(0.000196399 -0.000496714 -2.16367e-17)
(-8.94545e-05 8.57271e-06 3.78922e-20)
(-0.000230141 -0.00111799 5.72112e-18)
(-0.010951 -0.00760958 -7.51646e-18)
(-7.2907e-05 0.000157808 -2.23069e-19)
(0.000301404 -0.000884045 9.93854e-18)
(0.00535728 -0.000168356 1.04449e-18)
(-0.000261333 -4.68722e-05 -1.50461e-17)
(-0.00724319 0.000423369 6.00233e-17)
(0.000374954 -0.00048024 2.32486e-18)
(0.00842439 0.00233093 -7.40653e-17)
(-0.000335651 -4.72117e-05 -9.91353e-18)
(0.000491126 -0.000172665 -3.03739e-18)
(-0.000719584 0.00180899 -1.93291e-17)
(-0.00979726 -0.00746761 3.16785e-18)
(-0.000817939 -0.000646135 -1.03045e-17)
(-0.0104426 0.00030348 1.74657e-19)
(-0.000134312 -0.00146021 -6.99998e-17)
(0.00450038 -0.00503532 4.42285e-17)
(-6.95158e-05 0.00014027 1.86154e-18)
(-0.00132821 -0.000610763 2.95575e-17)
(-0.000518301 -0.000251068 1.73836e-17)
(0.000338715 3.81171e-05 -9.19518e-19)
(-7.57045e-05 -1.07059e-05 1.47809e-19)
(-0.00261226 1.09834e-05 1.70543e-17)
(-0.00480439 -0.0120848 -1.16611e-17)
(0.000733698 -0.00877854 2.24048e-18)
(-0.000289819 -6.7175e-05 5.60068e-19)
(-0.00505921 -0.00304616 1.80221e-17)
(0.000819092 0.0054557 1.26771e-17)
(0.00309372 -0.00182799 3.03646e-17)
(-1.71126e-05 -5.76613e-05 -3.20386e-18)
(-0.00377553 0.000485127 -1.40794e-20)
(-0.00131257 0.00335226 2.19467e-17)
(0.00831113 -0.0037675 2.67064e-17)
(-0.000311262 0.000202993 2.5075e-18)
(0.0147959 0.0054837 2.06284e-17)
(-4.16753e-05 0.000182658 1.79697e-18)
(-1.66242e-05 2.34255e-06 -4.48122e-20)
(-0.00617218 -0.000588478 -4.00331e-17)
(0.00305122 0.00646697 1.62624e-17)
(-1.46926e-05 8.19672e-05 1.06701e-17)
(-0.000226573 -0.000172016 -2.92852e-18)
(0.000286582 -0.000925405 1.00992e-18)
(-4.33375e-05 -1.68387e-05 8.1177e-20)
(-0.00440453 -0.0131874 -1.14629e-17)
(-0.00145795 -0.000868208 -3.5281e-18)
(0.000119059 -0.0028796 4.03512e-17)
(-6.28306e-05 -0.000403882 -1.14824e-18)
(-0.000186143 5.06511e-06 -3.67815e-18)
(-1.71543e-05 0.0002185 -1.27967e-18)
(0.00781738 0.00255901 -4.7499e-17)
(-9.98676e-05 2.80638e-05 -1.18803e-19)
(-1.18368e-05 0.000220026 2.34871e-18)
(-0.00279588 -0.00384599 -1.65854e-17)
(-0.0103234 -0.00878326 1.02495e-17)
(-0.000256617 0.000122642 4.30084e-19)
(0.000173761 -0.00361571 5.56308e-18)
(-5.90676e-06 2.22652e-05 -6.0277e-18)
(-2.27164e-05 -1.37082e-06 1.16726e-20)
(-0.00027395 -4.98417e-05 2.34295e-17)
(-0.00381643 -0.00465883 1.63672e-18)
(0.000354084 -0.000427468 -7.53916e-18)
(-9.35336e-05 8.88934e-06 -5.86485e-20)
(-0.000192733 -4.95712e-05 6.08518e-18)
(-0.00089368 -0.000631031 -1.42832e-17)
(-0.000156374 -0.000182986 -2.15215e-17)
(0.00461164 0.00691589 -6.32072e-18)
(-2.37175e-05 -4.46628e-06 -1.27904e-18)
(6.90692e-05 -0.00043005 2.32351e-18)
(-0.00345895 -0.00438668 2.03048e-18)
(-0.000275659 0.000303556 -4.2464e-18)
(-1.06256e-05 -1.04939e-05 -2.26587e-19)
(-2.27446e-05 1.78889e-05 4.19787e-19)
(-6.71263e-05 -0.000395962 1.19907e-18)
(-7.72539e-05 -0.000156365 3.22266e-18)
(-0.00269653 -0.00496125 -5.33801e-17)
(-0.00166309 -0.00325381 -1.08477e-17)
(-0.000392097 -0.000546721 2.14112e-18)
(4.6297e-05 0.00149799 9.46974e-18)
(-0.000277986 -6.53948e-05 -8.15682e-18)
(-2.62342e-05 3.49291e-06 3.78435e-19)
(-0.00486529 -0.00280475 -1.05782e-17)
(-0.000557127 -0.0043662 -1.22767e-17)
(-0.000192135 0.000353389 -2.84097e-18)
(-8.47149e-05 0.000132878 -1.11909e-18)
(-0.00122426 -0.00360428 2.04884e-17)
(-0.000133459 0.000381186 -1.42632e-17)
(-0.00535597 0.00958001 4.47888e-18)
(-6.74326e-05 0.000167428 7.58949e-19)
(-0.00046565 -1.74301e-06 2.37813e-17)
(-0.00175719 -0.000247603 2.41512e-17)
(0.000173876 -0.000594081 3.56555e-18)
(-0.00111799 -0.00460361 -2.21827e-17)
(-0.000392642 0.00537778 -1.27574e-17)
(0.00102375 -0.00870539 -1.50874e-18)
(-0.000155517 0.000118089 -5.63494e-18)
(0.00107339 0.00195728 -1.44456e-17)
(-7.54877e-05 0.000126632 -1.30079e-18)
(-0.00903098 -0.00191569 -8.03574e-18)
(0.000377938 -0.000504657 7.35061e-18)
(0.0029426 -0.00174308 2.1539e-18)
(-0.000499487 -0.000268353 -2.24558e-17)
(-0.000217475 8.37368e-05 1.30166e-19)
(-0.000294536 0.000266418 -2.56537e-18)
(-0.00125265 -0.000735314 -1.09947e-17)
(-1.62032e-05 7.47484e-07 -6.45627e-20)
(-0.00219073 -0.00163351 7.67992e-17)
(-0.00419194 -0.00280204 5.84895e-19)
(0.00434406 0.00750386 -6.71329e-17)
(-0.00268533 0.0017147 3.25586e-17)
(-0.0018601 -0.00382272 3.99531e-18)
(-0.00106936 -0.00160471 7.77711e-17)
(-0.0111553 -0.00524276 3.94379e-17)
(-0.00013124 0.000247757 2.72006e-17)
(-9.05677e-06 9.82379e-05 1.816e-19)
(-0.00940025 0.0074675 -6.00768e-17)
(-2.43259e-05 6.3869e-05 -5.33469e-18)
(-8.7422e-05 1.36769e-05 -2.18624e-20)
(-0.000158941 0.000276443 1.07595e-17)
(-0.00134908 0.00685439 -3.4765e-17)
(-0.000168517 -0.000227471 -2.62002e-17)
(-8.79471e-05 0.000142532 3.11893e-18)
(-0.000465871 -4.76992e-05 -4.23828e-18)
(-0.000837035 -0.00018374 -1.13572e-17)
(-4.6785e-06 8.31346e-05 4.4757e-18)
(0.00123742 -0.00766033 -1.02155e-17)
(-8.04282e-05 6.32664e-05 1.50801e-19)
(-0.00316131 -0.00534947 -1.68195e-17)
(-0.000650323 -0.00530043 2.56193e-17)
(-5.95776e-05 9.69641e-05 8.95252e-19)
(-9.1736e-05 -0.00026281 -7.25859e-18)
(-0.00316273 0.00254449 -6.58417e-18)
(-0.00784813 -0.0186412 -2.88997e-17)
(-5.24402e-05 -1.33154e-05 -4.20223e-18)
(0.00987105 0.00724917 1.59372e-17)
(-0.0103085 -0.00284009 8.33552e-17)
(-1.50261e-05 -0.000111881 6.24146e-19)
(0.00305656 -0.0024931 -7.26373e-17)
(-0.0133727 -0.000207785 -7.30184e-17)
(0.000559398 -0.00522206 1.29959e-17)
(-0.000145714 0.000120934 4.9085e-18)
(-0.00285919 -0.00459149 1.31128e-17)
(0.00782709 -0.0015848 1.92506e-17)
(-1.72172e-05 -0.000113867 -5.96797e-19)
(0.00434006 0.00769125 -4.25014e-17)
(-0.000130802 -5.01334e-06 -2.96422e-20)
(-8.32299e-05 5.48807e-05 -4.1009e-19)
(-0.000918035 0.00388916 -1.10611e-17)
(0.0111734 -0.0024062 -3.66909e-17)
(-0.000647705 -0.000263693 -3.08348e-17)
(0.000339285 -0.000417756 8.87462e-18)
(-1.31868e-05 8.64171e-05 -3.48669e-18)
(0.000567737 -0.000430386 1.00105e-17)
(-0.00198225 -0.00590129 2.88947e-17)
(-0.00604914 0.000469877 3.32862e-18)
(-4.11698e-05 -0.000109179 -1.02132e-18)
(0.000602539 -0.000278356 -1.23723e-17)
(-9.2391e-05 1.57617e-05 5.59791e-20)
(-0.000134185 -5.23145e-06 -9.21917e-20)
(-0.000840109 -0.000700728 2.32637e-18)
(0.000115525 -0.00038429 -1.98963e-17)
(-1.4029e-05 -6.19998e-05 1.99968e-18)
(-0.000203101 7.9066e-05 1.01852e-19)
(0.00254615 -0.00350039 -4.47225e-17)
(-0.000559133 0.00263833 -1.86897e-17)
(0.00247864 -0.00279732 1.86998e-17)
(-0.000164471 -0.000210847 -2.96843e-18)
(-3.06611e-05 0.000107761 -2.35448e-19)
(-0.00355892 0.000523167 -1.29187e-17)
(-1.29274e-05 8.62466e-05 1.69822e-18)
(-0.000912018 -0.000876424 4.88556e-17)
(3.48134e-06 -0.000459792 2.2262e-18)
(0.000159238 -0.0005363 -1.28855e-17)
(-0.000431982 -0.00045082 5.32687e-19)
(-0.00199784 -0.00485674 -1.16076e-18)
(0.0111093 -0.000843443 3.86893e-18)
(-0.000304963 -0.000176468 -1.91561e-17)
(-0.00497544 9.8272e-05 4.54195e-18)
(-2.76591e-05 -0.000277916 1.13751e-17)
(-0.00131827 -0.000181736 1.51105e-17)
(-0.00624361 -0.00320108 3.27469e-18)
(-0.00542445 -0.00077761 1.71958e-17)
(-0.000125079 1.44405e-05 -3.58508e-19)
(-7.33774e-05 0.000133366 1.34019e-18)
(-0.000218567 0.000478853 1.36104e-17)
(0.00193314 -0.00337898 5.5855e-17)
(0.00452066 -0.00046668 1.74347e-17)
(0.000536156 -0.000413093 -7.74353e-18)
(0.0100097 0.00336883 -4.7207e-17)
(0.000122653 -0.000376131 2.28515e-17)
(-4.77206e-05 -0.000638185 1.25808e-17)
(0.00317704 -0.00443679 -1.22559e-16)
(0.00264321 -0.0104025 -2.64454e-17)
(-0.000830446 -0.000264886 -5.24334e-18)
(-0.00324863 -0.00478701 -5.17853e-18)
(0.00247118 0.00151167 -1.07793e-18)
(-0.00856309 0.00022246 3.8203e-18)
(-0.000173103 7.14194e-06 9.89456e-18)
(0.00277482 -0.00653101 -3.41633e-17)
(0.0151803 0.00506186 2.18044e-17)
(-2.7159e-05 -4.10021e-06 1.59407e-18)
(-0.00389072 -0.000392405 -4.96403e-17)
(0.00061133 0.0133655 -2.67738e-17)
(-0.000286834 0.000184349 -5.02201e-18)
(6.65856e-05 -0.00106481 -1.34607e-17)
(-0.000105449 7.42135e-05 -7.64859e-19)
(0.000385713 0.00120458 5.08207e-18)
(-0.000134931 0.000462029 4.91895e-18)
(-0.00527972 0.00121702 3.2858e-17)
(-0.000101271 2.84473e-05 -2.27824e-20)
(-1.33861e-05 5.62968e-06 2.39462e-19)
(-7.96855e-05 0.00024443 -1.08071e-18)
(-0.000802535 -0.00015803 -2.11629e-18)
(-2.36999e-05 -3.59116e-06 -6.31651e-19)
(-0.00111905 0.00615827 2.53451e-17)
(-1.45906e-05 4.92211e-06 -7.74789e-20)
(0.00266413 0.00116195 1.08962e-18)
(-0.000137826 0.000125389 4.66867e-20)
(0.000399181 7.36929e-05 -3.05451e-18)
(-7.5377e-05 0.00015959 1.80075e-18)
(-3.78465e-06 9.51309e-05 -3.05759e-18)
(-0.000316165 0.000275901 -1.11024e-17)
(0.000607711 -0.000348045 -7.3766e-17)
(-0.000845743 -0.000519524 -1.82457e-17)
(-0.00426853 0.00342785 6.65923e-18)
(-0.000470443 2.07266e-05 -2.81055e-17)
(-4.71128e-05 -1.69808e-05 -1.30495e-19)
(-6.2266e-05 -2.90951e-05 -2.88849e-18)
(-0.00126755 -0.000525402 -1.21992e-17)
(-0.00019277 -3.94857e-05 -6.08459e-18)
(-0.000817475 0.000851 -3.39755e-17)
(-0.000200605 -0.000236354 -3.96892e-18)
(-0.00017879 0.000342563 2.03764e-18)
(0.00370088 -0.00558256 -5.03012e-18)
(-1.23869e-05 8.99983e-05 8.20243e-20)
(-0.00813142 0.000708262 9.48279e-18)
(-3.24058e-06 4.21519e-05 -5.69585e-19)
(0.000496012 0.000612812 7.87713e-19)
(-0.00499989 -6.9255e-05 -4.08792e-17)
(-0.00145328 -0.00334416 -3.56888e-18)
(-4.23078e-05 0.000278284 1.75648e-17)
(-0.00722301 0.00617719 -3.33407e-17)
(-0.00048098 3.12948e-06 3.19954e-17)
(0.00170747 0.00076486 -3.15148e-17)
(0.00108122 0.0131913 2.82084e-17)
(-5.11537e-05 -0.000113824 1.33596e-18)
(0.00107896 -0.00752238 -2.66968e-17)
(-0.000209877 0.00024551 4.31851e-18)
(-0.000439222 -0.00033868 -1.30282e-17)
(-0.00197968 0.00193957 2.40187e-17)
(0.00801399 0.011831 -1.71462e-17)
(-4.86407e-05 -2.95665e-05 -3.4534e-19)
(-0.000783215 0.000725978 3.63029e-17)
(-7.35071e-05 -0.000132186 7.90008e-19)
(-0.00967309 0.00045176 -5.41588e-18)
(-0.00272227 0.000323164 -1.87195e-17)
(-0.000142565 -3.0037e-06 3.69893e-19)
(-0.000118901 0.000622315 -3.88486e-17)
(0.000387357 -0.0138117 -5.36698e-18)
(-1.91764e-06 4.68586e-05 1.75501e-18)
(-3.52018e-06 5.90604e-05 8.36032e-19)
(0.000487037 -7.64342e-05 1.49165e-17)
(-0.00826551 0.000432456 -6.04437e-18)
(-0.00290324 -0.0055112 4.91274e-18)
(-3.73088e-05 0.000207301 9.28798e-18)
(-0.00501337 -0.00136764 -1.00515e-17)
(-0.000150777 -0.000173218 9.04647e-18)
(-7.07528e-06 0.00012066 4.42377e-18)
(0.00513338 -0.00497924 1.99025e-17)
(-0.00532874 -0.00193238 3.04177e-17)
(-0.000153598 0.00164547 1.85433e-17)
(-1.39035e-05 -5.07466e-05 -1.25535e-19)
(0.00117237 -0.000291503 2.63017e-18)
(-0.000345353 0.000390772 6.10382e-18)
(0.000419282 -0.000230026 -1.05896e-17)
(-3.84283e-05 0.000181348 -1.14116e-17)
(-0.00017797 6.63264e-05 -1.55556e-18)
(-0.000156272 0.000412009 -1.28041e-17)
(-8.37849e-05 0.000245418 4.00098e-18)
(0.00127654 -0.000302567 -1.95102e-17)
(-0.000385941 -0.00116679 2.90873e-17)
(-0.000526918 -0.00112052 1.18915e-17)
(-0.000746719 -0.000172318 6.00116e-18)
(-0.00196772 0.00341838 -2.59971e-17)
(-0.0135091 0.00324928 6.36454e-18)
(-0.00952128 0.0045879 1.42341e-17)
(0.0114826 0.00669996 1.23548e-18)
(0.00166926 -0.000310895 5.30099e-18)
(-0.00438875 -0.000562018 1.53735e-17)
(-0.00031801 0.000224083 -3.7093e-18)
(-0.0010548 0.00287556 1.22409e-17)
(0.00112261 -0.00536004 -7.4732e-18)
(-9.42727e-05 -8.34359e-06 7.46895e-19)
(-5.53068e-05 -0.000611797 -5.35924e-18)
(-0.0119406 0.0028257 -3.56308e-17)
(-0.000308304 0.000124084 -3.31829e-18)
(-5.31796e-05 9.47592e-05 -1.49329e-18)
(-5.16205e-05 8.80271e-05 -1.32319e-18)
(0.000715676 0.000513788 2.2571e-18)
(-0.0113633 -0.000555552 -2.45602e-19)
(6.31797e-05 -0.000446136 1.02593e-18)
(0.010934 -0.00304518 6.55667e-18)
(-4.81421e-05 -1.50416e-05 -4.67932e-19)
(-0.00276994 -0.00576576 8.42679e-18)
(-0.000924831 0.0003228 7.38105e-19)
(0.00684901 0.000660354 -3.24235e-17)
(-0.000656165 0.0006406 8.13746e-18)
(-0.000348207 -5.90158e-05 8.95333e-18)
(-0.000199593 -0.000201121 1.10375e-17)
(0.00629847 0.00115141 4.07244e-17)
(-0.000365134 0.00168852 -8.40141e-18)
(-0.000318163 0.000218473 3.7124e-18)
(0.00191106 0.00675854 -1.2306e-17)
(-0.000179036 7.22543e-07 4.24877e-19)
(-0.00991216 -0.000302751 -1.17314e-17)
(0.000650249 0.000636007 4.66094e-18)
(0.00322751 0.00104705 -6.78416e-18)
(-0.000503676 -0.000139498 -8.15996e-18)
(-0.00296234 0.00445918 3.16305e-17)
(-4.25979e-05 0.000179956 -1.35684e-18)
(-4.11436e-06 4.93333e-05 2.39111e-18)
(-3.61208e-05 0.000178225 6.886e-18)
(-1.17981e-05 0.000132752 5.34675e-19)
(-0.00583984 -0.00349353 -2.69361e-18)
(-1.46276e-05 1.06936e-06 -4.01039e-20)
(0.00565845 -0.00395492 -6.83871e-18)
(-0.00361343 0.000365441 1.09702e-18)
(-0.000544185 0.000611143 -2.11451e-18)
(-0.00613013 0.00185253 -1.32354e-17)
(0.0112922 0.000114523 -4.55429e-17)
(0.00381249 0.00120971 3.70063e-18)
(0.00189626 0.00111396 5.34472e-17)
(-4.99818e-05 0.000273679 1.9905e-17)
(1.52025e-06 0.000114954 4.14121e-19)
(-3.65958e-05 0.000203842 8.71365e-18)
(-3.33833e-05 -5.26949e-06 4.74016e-18)
(-5.99544e-05 -2.3957e-05 2.11966e-18)
(-1.46384e-05 3.27936e-06 -2.5633e-19)
(-0.00142756 -0.00037227 -5.83237e-18)
(-0.000648071 0.00322309 -3.00858e-17)
(-0.000359051 0.000405724 -3.4428e-18)
(-0.00360557 -0.0156331 -3.77117e-18)
(-0.000194535 4.88103e-05 1.52981e-18)
(-0.00314289 -0.000644521 -6.03126e-18)
(1.4357e-06 1.30234e-05 1.16873e-19)
(0.00523477 -0.00331631 -4.70214e-17)
(-0.00052908 0.000197749 -2.46796e-17)
(3.72534e-06 2.84237e-05 1.15182e-18)
(-1.45181e-06 4.32157e-05 -2.4947e-18)
(-0.00136893 -0.0027679 -6.57915e-18)
(-0.000334761 -0.000112194 9.25716e-18)
(-0.00161279 -4.18064e-05 8.47438e-18)
(0.00276151 0.0139074 1.35007e-17)
(9.45005e-05 -0.000977659 -3.20245e-18)
(-0.000278164 -0.00194158 -2.85484e-17)
(-6.83593e-06 -0.000111427 -2.45125e-18)
(-0.00509353 -0.00489911 1.96077e-17)
(-0.000174097 0.000120309 2.33552e-18)
(-0.000180016 -0.000223493 2.51699e-17)
(0.00426679 -0.00562987 2.74852e-18)
(-8.75625e-06 9.93481e-05 -2.50606e-18)
(-9.54496e-05 0.0001337 2.84809e-18)
(-7.02592e-05 -5.30194e-05 3.21023e-19)
(0.000384108 -0.000553606 1.11591e-17)