/*--------------------------------*- C++ -*----------------------------------*\
| =========                 |                                                 |
| \\      /  F ield         | OpenFOAM: The Open Source CFD Toolbox           |
|  \\    /   O peration     | Version:  v2012                                 |
|   \\  /    A nd           | Website:  www.openfoam.com                      |
|    \\/     M anipulation  |                                                 |
\*---------------------------------------------------------------------------*/
FoamFile
{
    version     2.0;
    format      ascii;
    class       surfaceScalarField;
    location    "500";
    object      meshPhiCN_0;
}
// * * * * * * * * * * * * * * * * * * * * * * * * * * * * * * * * * * * * * //

dimensions      [0 3 -1 0 0 0 0];
oriented        oriented;


internalField   nonuniform List<scalar> 
20580
(
-0.000118353
0.000132379
-1.40147e-05
-0.00029316
0.000129746
0.00016385
-1.07954e-05
-0.000281715
6.52205e-05
-8.5509e-05
2.02885e-05
2.29057e-05
1.71328e-05
-2.58102e-05
1.70165e-05
0.000246015
-0.000262603
-0.000184661
0.000288973
4.58407e-05
2.7059e-05
-4.7746e-05
-3.27317e-05
-4.02014e-05
7.29332e-05
-7.53375e-05
0.000418212
-0.000341802
0.000112832
-0.000193065
8.02792e-05
-5.52648e-05
-0.000225954
0.00028519
0.000336938
-6.29231e-05
-0.000273554
-2.52119e-05
6.46853e-05
-3.94733e-05
-0.000118221
0.000221736
-0.000103385
-0.000106173
-1.89323e-05
0.000125115
-8.24511e-05
6.22098e-05
2.02413e-05
-0.000394197
0.000121515
0.000275134
-6.95343e-05
-4.53183e-05
0.000114857
3.60887e-05
-0.000154428
0.000243917
-9.44912e-05
-0.000149303
9.81104e-05
0.000178263
-0.000276013
-8.52591e-05
4.09311e-05
4.43284e-05
1.58208e-05
5.9255e-07
-1.35808e-05
-0.000101706
2.3981e-06
9.93102e-05
-0.000190297
0.000116095
7.42417e-05
-0.000123182
8.19743e-05
4.12109e-05
-3.84877e-05
-6.2305e-05
0.000100795
-8.89771e-05
4.85184e-05
4.04589e-05
8.13524e-05
0.000288639
-0.000363078
-1.16125e-05
7.67202e-05
-6.51075e-05
0.000130159
-0.000314131
0.000120937
2.37804e-05
-0.000144704
3.74573e-05
4.97109e-05
-8.71679e-05
-0.000135606
-4.44082e-05
0.000180084
8.5581e-05
-0.000101429
1.58486e-05
2.50845e-09
1.70743e-05
-0.000114052
6.754e-05
4.65136e-05
6.80028e-05
1.93912e-05
-8.73938e-05
0.000396399
-0.00031604
-7.89255e-05
7.20788e-05
-9.10278e-05
1.89492e-05
-4.00407e-05
-4.89361e-05
-4.35633e-05
-2.44489e-05
-0.000131213
0.000105948
2.52681e-05
-6.31848e-05
-1.85744e-05
8.17596e-05
7.79615e-05
0.000290714
-0.000365157
5.79048e-05
-0.000108457
-4.16321e-05
0.000107371
-6.57304e-05
0.000386695
-0.000169543
-0.000216353
1.65232e-05
0.000320687
-4.99878e-05
-1.80245e-05
6.80123e-05
0.000400285
-0.000116595
-0.000283242
3.26002e-05
-0.000138763
-0.000253791
0.000193555
6.04489e-05
5.17224e-05
-8.41535e-05
3.24312e-05
0.000280149
0.000117305
0.000129692
-8.74332e-06
4.7725e-06
6.73064e-05
-0.00012747
6.89044e-05
5.85685e-05
7.32928e-05
5.43284e-06
-7.87256e-05
0.000225739
-0.000276729
-8.59913e-05
-3.71866e-05
0.000371181
-0.000382642
1.22617e-05
0.000163917
0.000223411
0.000127441
-5.7215e-05
-7.02209e-05
7.95801e-05
4.78642e-05
9.30378e-06
6.3989e-05
2.12918e-05
-0.000115367
0.00013734
0.000232515
-0.000368241
-8.17923e-05
6.97544e-05
1.20379e-05
-4.71981e-05
7.05923e-05
-2.33942e-05
-0.000112265
-7.14138e-05
0.000183755
-0.000399055
0.00026714
0.000133091
-6.40582e-05
6.9491e-05
0.000109376
-0.000237679
0.000128487
0.000136947
0.000159091
-0.000295536
-1.8337e-05
-6.41141e-05
-0.000425142
7.27563e-05
0.000364787
1.63723e-05
-0.000118076
7.31752e-05
-0.000401149
0.000331917
-0.000203841
0.000342723
-0.000114358
-2.61944e-06
0.000116982
-0.000239999
0.000104483
6.25188e-05
1.66179e-05
-7.91367e-05
1.2925e-05
-7.69832e-05
5.36307e-05
3.9714e-05
-9.33446e-05
0.000264039
-0.00016561
-1.94701e-05
6.69976e-05
-4.75275e-05
0.000362363
-0.00035315
-7.71488e-06
-6.48482e-05
5.32359e-05
5.92239e-05
0.00034129
-0.000145363
0.000276142
-3.84521e-05
-2.95602e-05
-2.21805e-05
7.58114e-05
-9.01877e-05
1.7051e-05
7.31368e-05
8.54838e-05
-0.00011917
3.36907e-05
-0.000531197
0.000217575
0.000316733
7.93837e-05
6.84075e-05
-0.00014778
-4.15646e-05
-2.71924e-05
6.8757e-05
-0.000149245
7.79905e-05
7.12649e-05
-4.40105e-05
0.000123404
-6.37944e-05
0.00017519
-0.000111382
-0.000166439
2.40389e-05
0.000142422
0.000357547
-0.000404588
4.78254e-05
-0.000140891
0.000360048
-0.000215704
-0.000211987
2.96922e-05
0.000182369
-0.000402917
0.00026598
1.84454e-05
-6.56434e-05
-0.000283863
0.000139159
-9.49472e-05
-0.000296642
-0.000263179
9.76058e-05
0.000165734
-0.00032706
0.000408856
-0.000116738
-2.63038e-06
0.000119377
0.000176036
-0.000120604
-5.53935e-05
-8.65466e-05
-4.61012e-05
0.00013266
-0.000173064
-8.04667e-05
-0.0003951
0.00016814
0.000235546
-3.59618e-05
0.000107819
5.86326e-05
6.588e-06
-1.78487e-05
-6.39434e-05
-0.000133337
2.62059e-05
0.000107139
0.000430788
-3.68878e-05
-0.000389176
-0.000223187
-7.46096e-05
0.000298985
6.43113e-05
-8.46178e-05
2.03066e-05
-0.000130167
1.56156e-05
0.000114557
0.000120922
-8.7593e-06
-0.000112161
-0.000153972
-0.000373876
0.000181387
-0.000128332
-5.30082e-05
-4.72632e-05
8.61362e-05
-3.88728e-05
-0.000197581
0.000184075
1.35824e-05
-9.76223e-05
0.000276212
0.000250455
2.05164e-05
-0.000270777
-5.71549e-05
-5.6895e-05
-5.22454e-05
8.9703e-05
0.000164854
-5.19842e-05
-8.67932e-05
4.06508e-05
4.61425e-05
-0.000123383
-2.71859e-05
6.69e-05
-0.000211246
8.42518e-05
0.000127023
0.000133821
-0.000229628
9.58961e-05
2.34977e-05
-0.000137849
6.51442e-05
0.000236435
-0.000301134
0.000399517
-3.60217e-05
-1.34017e-05
0.000103653
-9.02463e-05
-0.000119233
6.40869e-05
5.51475e-05
-0.000330686
0.000178342
0.00015286
-3.63283e-05
-0.000376051
5.45398e-05
-2.76018e-05
-4.3553e-05
7.11549e-05
0.000148171
3.32487e-05
-0.000114301
7.02981e-05
3.63208e-05
-0.000153047
0.000117702
5.83663e-05
6.08386e-05
6.79598e-05
-0.000128792
0.00026845
-0.00038161
0.000113544
-0.000408312
0.000349559
5.92281e-05
-0.000291831
0.000309868
-1.25789e-05
1.52736e-06
6.64756e-05
-9.72297e-06
0.000132393
-0.000122601
-0.000335528
0.000178591
0.00015756
3.60779e-05
-3.2968e-05
7.7082e-07
6.65791e-05
2.49999e-05
-9.15788e-05
-2.40318e-06
-0.000209503
-0.000134978
9.33585e-05
-6.95033e-05
4.42914e-05
-6.41459e-05
7.72165e-05
-1.30704e-05
2.98959e-05
-9.40415e-05
2.78802e-05
-7.7868e-05
-0.000172611
-9.03888e-05
-4.96946e-05
-4.00869e-05
8.97823e-05
3.07053e-05
0.000232445
-0.000258934
-7.51118e-05
-0.000308344
7.85583e-05
0.000105824
-0.000184331
-1.80309e-05
4.36808e-05
-1.47816e-05
-8.34774e-06
-8.18398e-05
8.90763e-05
-0.000122971
3.3898e-05
-0.000105567
-1.58613e-05
0.000121437
-0.000358516
0.000293759
0.000142464
9.7802e-05
-0.000240085
3.51986e-05
-0.000140756
4.31742e-06
-0.000134478
-4.57249e-05
0.000246342
-8.83619e-05
-0.000157796
5.00113e-05
-0.000247485
-2.31433e-05
-4.48689e-05
-6.3661e-05
3.60592e-05
-0.000101543
0.000125335
-0.00025224
0.000216333
3.59549e-05
-0.000243122
0.000391928
-0.000148365
-0.000472238
0.000376273
0.000101342
-6.75759e-05
-5.16545e-05
0.000179526
-0.000189149
5.24593e-06
5.94393e-05
-0.000241002
0.000258434
-0.00013175
-0.000198383
5.38781e-05
9.27389e-05
-0.000146606
1.37656e-06
-0.00010291
-0.000316419
0.000389231
-7.08537e-05
0.000407901
-6.4712e-05
-0.000341291
0.000164732
-7.92039e-05
-8.5523e-05
8.57698e-05
4.30222e-05
-0.000128786
9.07448e-05
-3.20612e-05
-5.86835e-05
5.50202e-05
3.56221e-05
-9.06421e-05
-0.000223275
0.000105193
-7.77281e-05
6.86106e-05
9.11805e-06
7.28786e-05
1.78663e-05
-0.000168446
-0.000118481
0.000286982
0.000187331
2.14555e-05
-0.000208708
3.57703e-05
-8.17394e-05
4.59692e-05
-0.000223635
0.000282043
-5.80485e-05
-0.000124438
9.19362e-07
0.000123528
8.888e-05
-0.000310932
0.000109272
3.52889e-06
-0.000121514
0.000119602
-0.000191606
7.19248e-06
0.000184486
-7.17066e-05
-0.000188327
0.000260405
0.000352365
-0.000335549
-0.000125206
6.3217e-05
6.19943e-05
0.000389398
-0.000386115
-1.37226e-06
-1.98524e-05
-4.42796e-05
-0.000305881
-4.13712e-05
9.14226e-05
5.53289e-05
-0.000146739
-1.13421e-05
7.38608e-05
5.87275e-05
3.17064e-05
-9.04338e-05
0.000236502
-7.353e-05
-0.000162915
-2.22734e-06
0.00018963
4.33451e-06
-5.63393e-05
5.40765e-05
-0.000116355
0.000102959
0.000394221
-4.17445e-05
-0.000348436
-0.000235924
-9.22258e-05
7.31114e-05
1.91147e-05
-0.000181403
-7.07656e-05
-0.000295037
7.18734e-05
-1.63637e-05
-0.000329334
7.65644e-05
-2.1544e-05
0.000421386
-0.000332405
-4.57153e-05
-3.95432e-05
3.80241e-05
4.4687e-05
-8.2711e-05
-7.12619e-05
-7.79706e-05
3.6651e-05
1.50112e-06
-0.00010633
-3.87308e-06
0.000110206
6.27294e-05
9.29068e-06
-7.20201e-05
-9.64913e-05
3.33068e-05
-0.000143359
0.000198778
7.06044e-05
-0.000269201
-8.8404e-05
-1.06551e-05
9.90622e-05
-6.04052e-05
-6.47951e-05
0.000237024
-9.43865e-05
-3.51767e-05
-8.3989e-05
0.000123327
0.00011735
-0.000240535
-8.31103e-05
2.74191e-05
5.56912e-05
0.000136579
1.81248e-05
-0.00015469
-7.17754e-05
3.1028e-05
6.65067e-05
0.000292284
-0.000237396
-5.44811e-05
0.000122295
-1.08526e-05
7.74319e-05
6.93788e-05
-8.42914e-05
1.49126e-05
-0.000169652
-0.000297227
-2.63629e-06
0.000353245
-0.000350609
-1.55617e-06
6.76922e-05
5.93926e-05
-0.000127078
0.000101235
3.94498e-05
-0.000140678
0.000171902
0.000120645
-0.000186254
0.000183922
6.02342e-06
0.000130567
0.000466882
-0.000124954
-0.000340334
-0.000153259
8.94743e-05
-2.11615e-05
0.000124115
-0.000102939
7.54192e-05
4.66085e-05
-0.000122025
9.62051e-05
-0.000384279
0.000290719
1.07933e-05
0.000341782
5.51464e-05
7.97348e-05
1.10017e-05
-9.07362e-05
-6.55993e-05
7.53901e-05
-9.79083e-06
0.000129131
-0.000197085
6.80237e-05
0.000129305
0.000305417
-0.000108294
0.000112617
5.87935e-05
6.77656e-05
-0.000126553
0.000100977
5.94195e-05
-0.000160381
3.04234e-05
-0.000216596
4.87643e-09
7.97302e-05
-4.67931e-05
-2.12191e-05
6.80123e-05
-0.000259391
1.75286e-05
0.000242133
-0.00024453
0.000205897
3.8764e-05
-5.77027e-05
-3.35236e-05
9.12278e-05
-0.000515022
0.000347208
0.000171653
0.000281319
-0.00026987
-6.22136e-06
-1.80167e-05
0.000119005
0.000194103
-9.98707e-05
-9.41836e-05
-2.80857e-05
0.000371894
-0.00033751
-9.47537e-05
0.000125363
-2.73959e-05
0.000114947
0.000282749
2.84317e-05
2.46904e-05
-3.50068e-05
-0.00026317
0.000182206
8.11439e-05
-5.05558e-06
4.15359e-05
-7.42675e-05
0.000169081
7.49249e-05
-0.000410062
0.000100148
0.000311562
7.47285e-05
8.98474e-06
5.53266e-05
0.000378329
-0.000266601
-0.000111243
0.000127522
-5.70966e-05
6.80123e-05
-1.09157e-05
0.000291752
-0.000226219
0.0003134
6.52107e-05
3.12192e-05
0.000137949
6.27901e-05
1.57265e-05
-7.85166e-05
-7.31271e-05
8.48418e-05
-1.17142e-05
-4.85873e-05
0.000162877
-0.000114248
-2.25001e-05
6.01038e-05
4.73991e-05
-9.70927e-05
0.000260356
-8.88726e-05
-7.43613e-05
0.000163268
1.61165e-05
-7.3213e-05
9.18985e-05
2.61251e-05
-0.000118021
-8.75848e-05
-0.000247063
2.55695e-05
-8.32708e-05
0.000128605
-6.99153e-05
-5.8687e-05
8.64077e-05
-3.37398e-06
-8.30336e-05
8.12837e-05
-0.000139988
5.87144e-05
-0.000183025
7.46719e-05
0.00010836
-3.14685e-05
-5.53246e-05
4.89933e-05
-9.80417e-05
4.90485e-05
-9.86867e-05
6.02009e-05
0.000134832
0.000274714
7.59113e-05
-2.53035e-05
-5.06078e-05
-3.50208e-05
-3.29915e-05
-8.53542e-05
8.37804e-05
1.57403e-06
-1.9207e-06
-8.34328e-05
2.76134e-05
-0.000196049
8.22509e-05
-0.000180969
9.87616e-05
0.000258764
-9.74855e-05
-0.000161154
-6.01306e-05
4.06606e-05
-0.000187264
8.22914e-05
0.000104982
-0.000121606
0.000122623
1.87668e-05
0.000172426
-8.64949e-05
-0.000285235
6.86166e-05
0.000216877
7.20882e-05
1.43197e-05
-7.02092e-05
-8.99818e-05
-0.000420483
7.57787e-05
0.00025156
-0.000180223
-7.12266e-05
4.91839e-05
0.000201429
0.000224706
-4.55439e-05
-2.26864e-07
6.3017e-05
2.99441e-05
-0.000138232
0.000125349
-0.000324868
0.000253639
-0.00023889
-5.56717e-05
-5.02217e-05
-2.74418e-05
7.76637e-05
0.000115379
-0.000358089
0.000119638
-0.000273313
1.42642e-05
-0.000131071
0.000162374
6.15669e-05
0.000190096
1.22806e-06
-1.94164e-05
-0.00038864
-0.000136475
8.45326e-06
0.000128033
0.000131184
-5.31844e-05
0.000109256
2.92162e-05
-0.000138461
7.14527e-05
4.14882e-05
-9.17096e-05
-5.74952e-05
0.00023619
7.36463e-05
-2.92642e-05
-8.87177e-05
0.000117988
0.000410791
-9.35509e-06
-0.000394892
-9.11841e-06
0.000101019
-0.000160403
1.24919e-05
0.000147932
4.11639e-05
-8.27285e-05
-0.000176468
-0.000108445
-4.32129e-05
0.000157814
-5.72505e-05
-7.02152e-05
-5.21478e-05
-5.09862e-05
0.000103136
0.000121678
2.97468e-05
-0.000151412
3.58538e-05
3.84154e-05
-7.42692e-05
-0.00016973
-0.000104394
0.000274932
9.3073e-05
-3.99384e-06
-7.98434e-05
3.62801e-05
0.000263302
-0.000104484
-0.000158603
-3.82568e-05
-4.48535e-05
-0.000248847
0.000175689
7.33291e-05
-1.86271e-05
7.93238e-05
-6.06965e-05
-0.000185523
-5.88289e-05
-0.00020776
0.000107463
0.00012486
2.69321e-05
-0.00015178
-0.000141764
4.13955e-05
0.000100374
-0.000119392
-0.000288487
1.477e-05
0.000241892
-0.000256271
0.000117127
7.70156e-05
0.000207336
-0.00031986
0.000350952
-2.85056e-05
0.000165635
-3.64409e-05
-9.15065e-05
8.92918e-05
2.21528e-06
-0.000203566
-0.000194648
0.000221833
-0.000200299
6.23867e-05
1.11307e-05
-7.35174e-05
0.00030774
-4.4023e-05
-0.000263092
0.000112415
-6.9551e-05
-4.28621e-05
-0.000160116
-1.58173e-05
0.000176009
-9.46894e-05
2.15628e-05
0.00021745
6.49459e-05
-0.000101377
-8.88718e-05
2.55886e-05
-0.000103316
0.000116856
0.000155436
6.20042e-05
-0.00021736
-8.2069e-08
6.94609e-05
7.56544e-05
4.95602e-06
-0.000111284
0.000198965
0.000269529
5.96411e-06
-0.000142428
-0.00023753
3.01051e-05
0.000207577
0.000127001
-0.000170177
4.80042e-05
-0.000376505
0.000332437
-3.40061e-05
-3.40061e-05
-9.59558e-05
4.47069e-05
5.12495e-05
-9.29911e-05
-3.80799e-06
9.68009e-05
-0.000283395
4.49723e-05
0.000130895
8.85941e-05
3.67859e-05
-0.000125376
1.06199e-05
-7.62192e-05
0.000119016
-0.000385719
0.000276114
2.36796e-05
5.22318e-05
8.9525e-05
4.55897e-05
-0.000135108
-5.27052e-05
8.3312e-05
-3.06066e-05
-6.8411e-05
0.000191853
-0.000122201
8.73928e-05
3.48105e-05
-0.000384966
0.000266339
0.000119472
1.1842e-05
-1.93267e-05
6.80123e-05
-1.62899e-05
5.74505e-05
-0.000109737
5.22898e-05
-0.000359802
0.0002854
-7.37989e-05
0.000203921
3.99585e-05
0.000181946
-0.000372829
0.000106136
0.000277151
-4.38461e-05
-5.21091e-05
0.000162472
-8.01818e-05
3.27214e-06
-0.000163652
-0.000197748
-6.16181e-05
0.000259777
-0.000308131
0.000139399
0.000228584
0.000126725
-0.000355299
5.84805e-05
-0.000110626
0.000466816
-0.00036468
0.000360905
-0.000132368
0.000110933
-4.12329e-05
-6.96983e-05
5.62273e-06
-9.71286e-05
0.000173222
-0.000270534
0.000122118
-5.13299e-05
-7.07835e-05
0.000344026
2.71537e-05
7.08816e-06
-0.000271195
8.06671e-05
0.00022766
0.000127392
-0.000154194
-3.867e-05
0.000192948
-0.000267362
0.000363515
-9.414e-05
2.33899e-05
-0.00029583
0.000273355
-8.73347e-05
-4.59958e-05
-0.000374613
0.000113649
0.000261935
-4.8801e-05
-2.95854e-05
7.83869e-05
-0.000352531
0.000222565
0.000135845
0.000237647
-0.000273095
3.57897e-05
6.56315e-05
-8.42056e-05
-0.000220643
0.000124219
9.64723e-05
-0.000106697
-1.36665e-05
0.000144974
1.96585e-05
-0.000256276
0.000240398
8.71667e-05
-0.00028451
0.000141089
-0.000387915
0.000248493
-0.000114809
2.83939e-05
8.64172e-05
-5.50952e-05
-3.58943e-05
9.09904e-05
-1.617e-05
0.000215103
-1.9966e-05
5.89249e-05
-3.89588e-05
-0.000202166
0.000338692
-2.4673e-05
-0.000310403
5.98687e-05
2.03121e-05
-8.01807e-05
6.48708e-05
6.27548e-05
0.000118193
-0.000180906
-0.000145295
-0.000184694
0.000331143
-3.56244e-05
-6.33029e-05
-0.00014791
9.74051e-06
-7.65275e-05
6.67877e-05
6.66611e-05
0.000291523
0.000194942
-0.000270959
7.62057e-05
0.000130142
-7.33783e-05
-0.000141837
0.000215367
-4.54151e-05
-5.26265e-05
-5.93111e-06
9.45283e-05
2.1435e-05
-0.000114424
0.000103621
-0.000229714
0.000126339
0.000117613
0.000420438
-0.000386962
-3.1546e-05
7.35184e-05
7.40999e-05
-0.000234123
-8.44072e-05
8.57917e-05
3.71072e-05
-0.000274449
-0.000187404
-0.000111906
-0.00010867
-0.000102362
-1.71077e-05
4.58035e-05
-3.06432e-05
-3.85432e-05
6.91864e-05
7.34575e-05
-1.35886e-05
-9.78733e-05
4.90729e-05
-4.56542e-05
6.54976e-05
-1.98434e-05
5.58385e-05
-7.27261e-05
1.10453e-05
6.16809e-05
0.00010722
8.85884e-05
-0.000245276
0.000156771
-2.57249e-06
0.000182406
-0.000178283
8.20323e-05
3.0384e-05
0.00037514
4.37245e-05
5.61295e-05
-0.000373189
0.000223312
-7.3946e-05
-0.000149304
8.33023e-05
3.52403e-06
-8.68261e-05
-0.000311878
0.000275076
3.74665e-05
-0.000193997
-0.00011365
0.000308021
4.59889e-06
-0.000107376
0.000102793
-0.000115629
0.000181002
-6.53124e-05
-1.20028e-05
-0.000310957
0.000323211
8.38122e-05
-9.92137e-05
1.54025e-05
0.000140591
0.00023072
-0.000368441
3.77352e-05
4.70355e-05
-8.47706e-05
1.05194e-05
-0.000125325
0.000346755
-0.000270231
7.15937e-06
-0.000274654
0.000268251
5.66987e-05
6.71577e-05
-0.000123851
0.000101546
0.00040064
-8.10994e-05
-1.11204e-05
9.22213e-05
9.06652e-05
-8.63178e-06
0.000454963
-6.75731e-05
-0.000381966
4.48227e-05
3.94707e-05
-8.42933e-05
-0.000122072
5.25428e-05
7.23309e-05
6.62989e-05
-0.000138618
0.000247784
-0.000143867
-0.000104057
6.28257e-05
4.73071e-05
-8.18046e-05
3.44975e-05
0.000174659
0.000284487
-0.000133281
9.17883e-05
4.14973e-05
6.97873e-05
0.000312725
-0.00038079
0.000360909
8.0221e-05
2.5808e-05
-0.000106027
-6.7575e-05
4.89481e-05
7.22175e-05
0.000147096
-0.000219186
5.26584e-05
-0.000206764
-0.000359383
2.44686e-05
0.000335435
-0.00014372
-1.80112e-05
0.000161776
3.95762e-05
-8.68392e-05
5.84054e-05
2.49197e-05
-8.3325e-05
0.000343637
4.2266e-05
-0.000382042
-2.17683e-05
-3.86487e-05
6.0417e-05
8.62085e-05
0.000303675
0.0001852
0.000196514
7.4675e-05
-0.000270919
-0.000235344
0.000363025
0.000289324
-0.000129822
2.94331e-05
5.63027e-05
-8.57356e-05
-6.18543e-05
-7.99022e-05
7.42559e-05
-0.000283685
-2.74399e-05
-0.000354736
5.29533e-06
6.72652e-05
2.49136e-05
-9.21786e-05
0.000244904
-0.000192364
-4.99983e-05
0.000122652
-0.000154425
3.17854e-05
0.00023437
1.55617e-05
-0.000249577
9.66716e-05
0.000145389
-0.000241875
0.000139441
-0.0002707
0.000131442
5.35826e-05
3.54791e-05
-8.90613e-05
3.12316e-05
-7.80247e-05
0.000259742
-2.24989e-05
-0.000236865
-2.90285e-05
-5.08148e-05
0.000336219
-0.000273531
-6.17376e-05
0.000194487
-0.000111673
-8.27709e-05
4.97062e-05
-8.97467e-05
-4.82005e-05
-3.5953e-05
-0.0002311
-0.000102314
0.000334752
0.00029682
-0.00015249
-1.3936e-05
-9.24467e-06
6.55475e-05
0.000128973
-5.28184e-05
-7.61499e-05
-0.000183668
3.99985e-05
-6.17951e-05
7.15363e-05
-2.00921e-05
0.000216853
-0.000259461
7.41029e-05
-5.99503e-05
-3.22752e-05
5.66712e-05
-0.000104784
4.81138e-05
-0.000123212
-1.91075e-05
0.000142331
-3.86768e-05
7.64121e-05
-0.000123009
1.80345e-06
0.000121213
8.44154e-05
-4.93298e-05
-3.50853e-05
8.83367e-05
0.000230444
-0.000317684
-3.02762e-05
9.91832e-05
-6.94673e-05
-5.2731e-05
1.71935e-05
-0.000303218
0.000289449
3.26429e-05
-7.1095e-05
5.13574e-05
-0.000101497
5.01397e-05
7.38973e-05
0.000183915
-4.1167e-06
-0.000314075
0.000319472
5.28151e-05
-7.27811e-05
-0.000111255
-3.68527e-05
0.000148133
-6.94699e-05
-1.51813e-05
8.46518e-05
0.000207012
0.000261463
2.70332e-05
-3.26665e-05
1.43055e-05
-0.000209259
-4.29164e-05
0.000252232
8.81624e-05
-0.000203723
-6.25309e-05
-0.000283695
7.49547e-05
-1.65479e-05
5.21644e-05
4.01003e-06
-0.000127012
-0.000176654
-9.26765e-05
0.000269584
0.000157174
-3.0141e-05
-0.000178068
-0.000225534
0.000247242
-0.000259048
0.000171173
-0.000216424
4.53162e-05
-6.51269e-05
4.33586e-05
0.000121583
9.08722e-05
-0.000212376
7.23573e-05
0.000215614
0.000321131
5.37216e-06
-0.000318057
-0.000292323
0.000363535
-6.68142e-05
0.000180582
-7.47099e-05
-0.000229938
0.000254109
-0.000152735
6.62343e-06
0.000146131
-1.5138e-05
-0.000254471
0.000270157
-0.000105321
0.000168118
9.05667e-05
-0.00012084
-0.000237311
9.70913e-06
0.000228853
4.64287e-05
2.96604e-05
-7.60891e-05
8.36814e-05
-7.7456e-05
3.07806e-05
0.000129905
-0.000160665
4.52203e-05
-7.42488e-05
6.9227e-05
-9.45436e-05
2.53169e-05
-0.000208337
-9.90232e-05
2.9554e-05
-0.000113468
0.000118084
8.31662e-05
5.60871e-05
-0.000139246
-2.92685e-05
8.06264e-05
-0.000398044
5.65149e-05
0.000344864
1.76266e-05
6.61862e-05
7.86484e-05
0.000151985
0.000111511
-8.20805e-05
3.64264e-05
0.000121125
-7.14433e-05
-4.96789e-05
0.000117306
0.000298282
8.20479e-06
-0.000160919
-0.000360585
4.60616e-05
5.01698e-05
3.42458e-05
-2.17812e-05
6.35663e-05
-4.17851e-05
-0.000418063
0.000197859
0.000221269
4.93677e-05
7.15826e-05
-0.000104203
3.26212e-05
-1.31445e-05
-6.77485e-05
8.28232e-05
9.09085e-05
-0.00010242
-1.47828e-05
0.000130908
-2.2655e-05
6.90837e-05
6.33536e-05
4.11333e-05
-0.000104485
8.29441e-05
0.000230621
0.000103966
4.8411e-05
-0.000152364
-0.000290452
-8.31133e-05
-0.000241188
-0.000117611
0.000359201
-0.000108695
9.23802e-06
9.94598e-05
0.000130909
-4.48614e-05
-8.89081e-05
0.000133781
0.000399407
-0.000302663
-8.45207e-05
-0.0001005
7.93489e-05
0.000105694
-0.000173464
6.78048e-05
0.000185013
-7.87874e-05
-0.000106175
0.000150157
-0.000278865
0.000128832
0.000177449
-0.000308666
5.86556e-05
-0.000169881
-4.73222e-05
-0.000161879
-5.70326e-05
-7.79332e-05
-0.000206042
9.38533e-05
0.00012235
-0.00019369
2.45398e-05
-0.000147738
1.76458e-05
-9.41722e-05
-0.00010947
6.41557e-05
-9.25152e-05
1.39903e-05
7.85256e-05
-0.000112346
3.12485e-05
4.08675e-06
-0.000118381
-5.14371e-05
8.18931e-05
-3.04559e-05
-0.000229786
0.000170658
5.92025e-05
9.21779e-05
-1.19556e-05
0.000127671
0.000377384
-0.00029157
-8.32313e-05
-0.000164754
-9.45251e-05
-2.55665e-05
-8.3898e-05
-0.000275066
0.000120295
0.000155039
-0.000380648
-1.62651e-05
4.17121e-06
0.000358498
-0.000358435
0.00010382
5.91671e-05
-0.000162967
6.8866e-05
-3.30122e-05
-2.55344e-05
0.000263487
-3.0685e-05
7.53721e-05
0.000346913
-1.67041e-05
9.74271e-05
-3.40722e-05
-0.000117049
5.41282e-06
0.000111645
-5.18958e-05
6.80123e-05
0.000159386
-0.000151161
0.000257328
-3.95451e-05
0.000265815
-0.000276002
-8.27401e-05
3.08443e-05
-0.000120065
7.5213e-05
-8.36042e-05
-0.000146092
9.42392e-05
-0.000142547
-0.000164369
-3.01049e-05
-7.40843e-05
0.000104191
0.000134618
0.000132758
-0.00012874
0.000134421
-0.000262805
0.000128566
-6.96405e-05
-4.31348e-05
0.00011278
-0.00022076
-0.000163495
8.87475e-05
-0.000315976
0.000197586
0.000185229
-0.00042599
3.49702e-05
-8.59019e-05
5.09319e-05
-1.88489e-05
6.1438e-05
2.02674e-05
-0.000128959
7.82671e-05
1.80614e-05
0.000141344
5.39667e-05
2.8245e-05
-8.22116e-05
-6.22196e-05
3.50272e-05
1.52343e-05
0.00011753
0.000113223
-3.00507e-05
-9.10678e-05
-0.000117242
-0.000260289
0.000329764
-0.000318776
-0.00045787
0.00022879
0.000239546
-0.000360217
7.24545e-05
3.57575e-05
-9.42754e-05
-8.02842e-05
0.000174601
-0.000161285
0.00011244
4.8856e-05
-6.35325e-05
0.000169255
-0.000106827
4.45245e-05
-0.000215199
0.000294905
-7.91302e-05
7.73062e-05
3.30143e-05
-3.30143e-05
-3.66938e-05
-4.88151e-05
0.000208649
-9.30247e-05
-0.000115538
4.61881e-05
-1.22869e-05
-0.000324055
0.000324047
3.11414e-07
7.83032e-05
9.69032e-06
-8.79933e-05
0.000280616
-3.42119e-05
-0.000110114
8.66603e-05
2.34546e-05
6.98157e-05
-9.90836e-05
-9.71638e-05
-0.000152911
1.60594e-05
0.00013688
0.000376037
-0.000379214
8.21544e-06
8.89958e-05
-3.92846e-05
-0.000286867
0.000125644
0.000161492
0.000294046
-1.8335e-05
9.98075e-05
0.000260167
-0.000260299
5.57521e-07
0.000348695
-0.000111759
-0.000407896
0.000294628
0.00011613
-0.000206073
0.00010816
9.79953e-05
5.07285e-05
2.84583e-05
-7.91867e-05
0.000277511
-0.000117258
-0.000160014
7.77331e-05
0.000179706
-0.000257264
-1.98403e-05
0.000109371
-1.64254e-05
7.4831e-05
0.00011398
0.000102379
-0.000265105
0.000134873
0.000130418
4.29769e-05
-9.31647e-05
5.0188e-05
-0.00020357
-0.000242799
-5.84521e-05
8.0509e-05
-7.74111e-05
2.53028e-06
0.000311273
-0.000196797
8.27842e-05
-0.000111452
2.86704e-05
0.000170553
-8.201e-06
-0.000162325
-0.000155937
6.94042e-05
-0.000102216
0.000155228
-5.29922e-05
0.000183657
7.05929e-05
0.000124479
-0.000194378
2.9099e-05
-2.9099e-05
0.000109531
8.49924e-05
-0.000217545
0.000306971
0.000131811
-6.105e-05
-0.000132749
-0.000117707
0.00025077
-0.000109687
0.000112322
-2.62956e-06
-0.000219887
-2.67248e-05
0.000255167
5.86756e-05
6.97104e-05
-0.000128379
-9.96542e-05
3.4022e-05
9.08304e-05
-0.000124851
-0.000152786
5.05892e-05
9.3019e-05
-6.55325e-05
-2.74863e-05
0.00018641
-0.000102135
2.57657e-07
9.95429e-05
5.48355e-05
-0.000154365
9.1349e-05
-0.000333139
0.000249203
0.000235422
-0.000220297
-0.00010789
1.53751e-05
6.67139e-05
-9.41555e-05
7.42986e-05
-3.77108e-05
-5.54535e-05
0.000409799
-5.46253e-05
-0.000353738
-0.000157217
-0.000259602
1.90851e-05
0.000112132
-0.000131198
0.000123186
0.000176058
-0.000298718
0.000390299
-0.000396273
1.0154e-05
8.0715e-05
-3.97835e-05
-5.09025e-05
0.000118601
7.25997e-05
-2.96607e-05
-4.2939e-05
0.000131095
1.96792e-05
0.000150899
-0.000202142
-0.000155924
0.000358453
0.000385994
-9.20802e-05
-5.54688e-05
-4.82626e-05
0.000103733
0.000156668
-0.000153374
2.83192e-05
0.000110484
-0.000127551
1.75685e-05
-0.000113162
6.70703e-05
6.47238e-05
-0.000134659
6.99437e-05
4.8639e-05
-9.08069e-05
0.000359567
-2.26789e-06
-0.000163476
0.000171414
-1.76532e-05
6.83817e-05
-0.0001418
0.000292086
-0.000252937
0.000150443
0.000102666
-0.000303696
-5.68276e-05
7.20667e-05
1.58128e-05
-8.78793e-05
-6.20283e-06
-4.34409e-05
2.48213e-05
-7.56361e-05
-0.000333906
0.000374689
-3.97827e-05
-0.000146824
7.55746e-05
9.99326e-05
0.000118647
-0.000218463
-2.64328e-05
-0.000107785
0.000134237
0.000212303
-6.79951e-05
0.000336294
6.73088e-05
-0.000252506
0.000185644
5.79592e-05
0.000167006
-0.000213743
-0.00011974
8.03933e-05
3.93504e-05
0.000335775
-0.00012694
-0.000208552
-3.33881e-05
-5.09032e-05
0.000313265
-0.00016967
-0.000142757
-8.77189e-06
9.12133e-05
-8.24398e-05
-8.88555e-05
5.89592e-05
2.98965e-05
0.000242124
-0.000100995
-0.000140946
-0.000178654
5.96905e-05
0.0001304
-9.07725e-05
5.48095e-05
3.59631e-05
5.90551e-05
-9.60555e-05
3.70013e-05
4.72632e-05
0.000212808
0.000156979
-0.000165153
0.000354408
-2.42783e-05
-5.1878e-05
6.80123e-05
-1.61343e-05
6.77348e-05
0.00031208
-9.75364e-05
7.19743e-05
6.6355e-05
-0.000356782
0.00029345
-0.000113173
0.000179705
-1.43428e-05
-9.57694e-05
0.000210191
-0.000248604
0.000271921
2.30454e-05
0.000170667
-8.00783e-05
5.19664e-05
2.8112e-05
9.20965e-05
-4.69467e-05
-4.51495e-05
-1.89337e-05
9.05169e-05
-0.000470121
0.000305961
-7.78621e-05
2.6425e-05
0.000346243
-0.000247772
5.63819e-06
-0.000214793
-0.000152556
-0.000228555
7.3148e-05
0.00011972
-0.000132031
-1.05718e-05
0.000144178
4.48225e-05
-9.58224e-05
5.10005e-05
5.26658e-05
-0.000102354
4.96889e-05
7.52687e-05
0.000315724
5.44999e-05
6.20072e-06
-0.000147185
0.000219524
-0.00033575
1.0701e-05
-3.26052e-05
-5.81673e-05
0.000129301
4.24197e-05
5.23547e-05
-8.3823e-05
-0.000151266
0.000218985
6.70931e-05
-0.000289605
0.000310091
-0.000217014
0.00012264
-0.00013982
2.27836e-05
-0.000433426
3.92607e-05
7.75593e-05
6.49955e-06
9.10911e-05
3.2642e-05
-0.00012373
-6.11879e-05
3.94067e-05
4.76706e-05
-0.000200542
3.90665e-05
-4.98122e-05
0.000152608
-0.000102755
-7.40248e-05
-0.000307185
9.48825e-05
-0.000216372
0.000121588
7.34659e-06
0.000149656
-4.08931e-05
-2.80374e-05
6.89305e-05
-0.000161425
-0.000101549
-6.2364e-05
0.00010948
-4.71138e-05
1.39956e-05
0.000142693
-0.000126375
3.44215e-05
6.39184e-05
-8.73975e-05
2.34796e-05
7.24185e-05
-8.49973e-06
7.22916e-05
-4.65878e-05
-2.57038e-05
5.35512e-05
6.27645e-05
3.77961e-05
-0.000100559
-0.000284018
5.45672e-05
6.01314e-06
-9.44146e-05
-0.000121754
6.75171e-05
5.4239e-05
-0.000114106
-0.000160656
-3.78621e-05
-6.36346e-05
-6.52363e-05
-1.1116e-05
7.63528e-05
-0.000202182
-8.80586e-05
0.000290843
-4.93841e-05
-0.00011711
-0.0003672
0.00013738
0.000139365
-0.000340841
7.55908e-05
-5.41066e-05
-0.000382132
2.97009e-05
0.000357304
0.000208571
-0.000113593
6.31826e-05
-7.45246e-05
0.000311237
-0.000269872
-4.06981e-05
-8.3403e-05
3.85341e-05
0.0002865
-7.83793e-05
-0.000207877
0.000160432
-7.54598e-05
-8.49466e-05
-9.28591e-05
6.68816e-05
2.59777e-05
0.000253292
5.73759e-05
7.16017e-05
2.87142e-05
0.000144715
-0.000173264
0.000102391
0.000139902
5.9129e-05
3.29677e-05
-0.000302634
0.000111649
-0.000140536
2.88931e-05
8.36882e-05
-5.7251e-05
-2.28272e-05
-0.000374287
7.8597e-05
0.000297528
7.28969e-05
-3.48746e-05
-3.80223e-05
-0.000266205
0.000161941
2.95167e-05
-7.15383e-05
4.20217e-05
-3.06715e-05
-3.89482e-05
6.96197e-05
3.65032e-05
3.63937e-05
0.000233831
-0.000143521
-9.02214e-05
0.000360391
-0.000289305
-7.0122e-05
0.000320233
9.09887e-05
6.98837e-05
1.60354e-05
-8.41479e-05
-0.000104367
9.19298e-05
-0.000368517
0.00027782
4.07212e-05
0.000160507
-0.000248678
0.000248349
-9.23973e-05
-0.000155851
0.000190016
-7.60226e-05
-0.000210519
-7.3168e-05
-0.000114379
-0.00034988
-0.000281272
0.000168452
0.000113203
0.000121305
0.000172081
-0.000293107
-0.000209526
0.000217281
0.000224296
3.99975e-05
-6.66543e-05
8.48546e-05
-1.81999e-05
-0.000120903
6.96754e-05
5.1231e-05
0.000253818
-0.000158602
-9.49846e-05
0.000117208
-0.000182969
6.58154e-05
4.12372e-05
-0.000106473
0.000155139
-7.73328e-05
7.39589e-05
0.000135022
-0.000327211
8.88277e-05
-0.00022536
0.000136652
0.000246743
8.92354e-05
-0.000385267
9.35467e-05
0.000293992
0.000159392
4.43725e-05
-0.000203698
0.000325865
1.61143e-05
-0.000397376
2.09392e-05
-0.000118392
-6.46206e-05
0.00031995
2.98949e-05
1.54361e-05
-0.000125118
5.64314e-05
-0.000285528
3.53693e-05
-6.7728e-05
3.23587e-05
6.69628e-05
4.67648e-05
-0.000113725
0.000123533
-4.94845e-05
-7.40426e-05
-7.92642e-05
-5.40112e-05
0.000371802
-5.47008e-05
-0.000315015
7.88866e-05
-6.40929e-05
-6.6716e-05
0.000130818
6.37449e-06
0.000241837
-0.000318612
0.000205362
-8.95453e-05
1.22127e-05
-0.000143578
-0.00012604
0.000269804
-0.0001292
-0.00010584
9.67239e-05
-1.71979e-05
7.95846e-05
4.00014e-05
0.000134604
-0.000174579
0.000349503
-0.000304662
-4.31483e-05
-4.29082e-05
-0.000123401
1.75633e-05
8.85738e-05
0.000181351
-0.000152463
-0.000307996
0.00032152
0.00032181
5.15415e-05
-0.000369587
-0.00013965
9.10932e-05
-0.000214483