/*--------------------------------*- C++ -*----------------------------------*\
| =========                 |                                                 |
| \\      /  F ield         | OpenFOAM: The Open Source CFD Toolbox           |
|  \\    /   O peration     | Version:  v2012                                 |
|   \\  /    A nd           | Website:  www.openfoam.com                      |
|    \\/     M anipulation  |                                                 |
\*---------------------------------------------------------------------------*/
FoamFile
{
    version     2.0;
    format      ascii;
    class       surfaceScalarField;
    location    "500";
    object      phi;
}
// * * * * * * * * * * * * * * * * * * * * * * * * * * * * * * * * * * * * * //

dimensions      [0 3 -1 0 0 0 0];
oriented        oriented;


internalField   nonuniform List<scalar> 
20580
(
-0.134668
0.00970096
0.124967
0.128354
-0.250939
0.122585
0.260474
-0.132121
0.00648248
0.00263882
-0.0091213
0.586738
-0.623041
0.0362886
0.264758
-0.189782
-0.0749762
-0.301702
0.0470316
0.581987
-0.585021
0.00300819
-0.0135944
0.0107216
0.00287283
0.423733
-0.249607
-0.174127
0.143715
0.0119222
-0.155637
-0.519493
0.315976
0.203513
-0.209814
0.285466
-0.0756522
0.00142105
0.000113495
-0.00153455
0.191795
-0.0344941
-0.157301
-0.116149
0.100118
0.0160313
0.00846685
0.005566
-0.0140329
-0.170771
0.35823
-0.187462
0.100475
-0.11069
0.0102144
-0.119171
-0.0154973
0.0629428
-0.194566
0.131623
0.234376
-0.204192
-0.0301839
0.0242142
-0.0368401
0.0126259
-0.586134
0.592356
-0.00622457
0.0775493
-0.0915004
0.0139511
-0.00231917
0.117262
-0.114943
-0.0183939
-0.0656101
0.084004
-0.0887513
0.0726907
0.0160607
-0.00778824
0.0246718
-0.0168836
0.487749
-0.327441
-0.160315
0.00657733
-0.00357261
-0.00300472
-0.225979
-0.0757232
-0.114859
0.129635
-0.0147762
0.0220084
-0.0155261
-0.00648232
-0.155773
0.151463
0.00430903
-0.0166192
-0.00748453
0.0241037
-0.615445
0.0293092
0.00963123
-0.0663847
0.0567535
0.00266923
-0.00150396
-0.00116527
-0.133359
-0.159968
0.293326
-0.00388872
-0.00382632
0.00771503
-0.0271094
0.0193211
0.0152484
-0.0152484
0.0970135
-0.00371907
-0.0932944
0.0222308
-0.0297487
0.00751792
0.452367
-0.281283
-0.171087
-0.541876
-0.0698254
-0.130664
0.0492019
0.081462
-0.0537807
-0.212571
0.266351
-0.298741
0.0889266
0.0129073
-0.0130768
0.000169516
0.141973
-0.283447
0.141474
-0.100985
-0.0151642
-0.0494714
-0.126617
0.176088
0.00456491
-0.00103372
-0.00353119
0.101552
-0.234913
0.0100321
-0.124891
-0.00651925
0.00263054
-0.0243792
0.09303
-0.0686508
0.00397872
-0.00427348
0.000294761
-0.358182
-0.161316
0.0712509
-0.0896448
-0.221637
-0.193243
0.414879
-0.196991
0.143209
-0.0440292
0.0915521
-0.0475229
-0.0826979
0.0386687
0.00495667
-0.000977945
-0.0939039
0.0658089
0.355069
-0.251202
-0.103868
0.00467083
0.00367652
-0.00834735
0.0087814
-0.000169822
-0.00861158
0.167782
-0.187452
0.0196704
-0.0298343
-0.224046
0.253879
-0.00438384
0.000110361
0.18105
-0.0187561
-0.162294
0.221028
-0.217209
-0.00381972
0.0167816
-0.00831477
0.34625
-0.53072
0.184458
0.0919067
-0.0143574
0.450414
-0.214366
-0.236052
0.248157
0.106911
-0.104601
0.120494
-0.0158932
-0.0213501
-0.134423
0.000278934
0.00104162
-0.00132055
-0.003629
-0.00075484
0.00572582
-0.00794098
0.00221516
0.064103
0.170272
0.0117594
-0.00160967
-0.0101497
0.227496
0.149358
-0.376856
0.00379281
0.00278452
0.266904
-0.124931
-0.306469
0.0804893
0.0145752
-0.0145752
0.00948468
-0.00375886
-0.00376989
0.00439041
-0.000620519
0.0257118
0.0719373
-0.0976491
0.151257
-0.354808
0.203548
-0.0894
0.108953
-0.0195532
0.00929923
-0.0101338
0.000834562
0.0187937
0.0966912
-0.115485
-0.111892
0.022492
0.123351
-0.0491007
-0.0742507
0.0852116
-0.120276
0.035064
-0.171699
-0.0770118
0.24871
-0.470903
0.130129
0.340771
0.134037
-0.174442
0.0404049
-0.163174
-0.307733
0.00833378
0.000447626
-0.0760981
-0.230372
-0.339586
0.168813
-0.00749171
0.152363
-0.144871
0.340659
0.111704
-0.103563
0.11834
-0.0147765
0.0162479
0.113833
-0.130081
-0.119935
0.111439
0.00849527
0.16393
-0.213402
0.171817
-0.401875
0.230049
0.470995
0.110966
-0.00340344
0.00988593
0.00804384
-0.003373
0.0737591
-0.102759
0.029
0.158383
-0.421097
0.26271
-0.275526
0.290393
-0.0148687
0.00213596
-0.00160811
-0.000527855
0.0864428
-0.115728
0.0292848
0.0256563
-0.0660593
0.040403
0.344849
-0.193595
0.0545708
0.0960082
-0.150579
0.00681158
0.00344622
-0.0102578
0.148781
0.017242
-0.166023
-0.199695
-0.00449731
-0.136627
0.188069
-0.0514421
-0.0747399
0.0843711
0.0132009
0.00880753
-0.00332556
0.147041
-0.00051695
-0.00444049
0.00495743
-0.0471788
-0.00631936
-0.00162162
-0.00978638
0.12363
-0.113843
-0.166104
0.0244297
0.141674
-0.110027
0.00542581
0.251222
-0.232689
-0.0185337
-0.0697415
0.297237
-0.0781487
0.000460086
0.0776886
-0.00299542
-0.0605899
0.0635853
-0.0357385
0.229845
-0.194107
0.519194
-0.172957
0.00591207
0.0158426
-0.0140158
-0.00182683
-0.0675385
0.122109
-0.0581446
-0.0537473
-0.114338
0.0107742
-0.107816
0.124064
0.105183
-0.100192
-0.00499068
-0.217335
-0.0186764
0.236011
0.131554
0.186161
-0.317716
0.314238
0.210812
-0.525056
0.0032899
-0.00062067
-0.188657
0.0916823
0.0969745
-0.0500246
0.210752
-0.160728
-0.418172
-0.163054
0.581223
0.0263267
-0.0208128
-0.00551394
0.161735
-0.0276974
-0.0439061
-0.0867578
0.000425412
0.000995643
-0.024023
0.00496562
0.0190573
-0.0163034
-0.00771955
0.0123565
0.000550846
0.158261
-0.165753
0.0440402
-0.0398716
-0.0041686
0.536
-0.330731
-0.205273
0.441961
-0.270156
0.158658
-0.14491
-0.0137483
0.552437
-0.111294
-0.441154
-0.00251254
-0.00125736
-0.0718977
-0.0220386
0.0939363
0.0909915
-0.105995
0.0150038
0.259632
0.182319
0.185589
-0.167156
-0.0184326
0.110959
-0.019967
0.104568
-0.018125
0.122725
0.00616849
-0.174533
0.168365
0.185634
-0.0368526
-0.0156087
0.0156087
0.0047133
0.0111293
0.0949051
0.0347302
-0.0701308
-0.0609172
0.131048
0.230937
0.00344527
-0.234383
-0.133447
-0.244283
0.377724
-0.0725622
0.0695668
-0.132045
-0.0566118
-0.000176826
0.000290321
0.133449
0.131308
-0.226108
0.190369
-0.0972251
0.11621
-0.0189847
0.120451
-0.025546
0.203762
0.103559
-0.307324
0.127097
-0.315387
0.188288
-0.0131676
-0.0702206
0.0833881
0.113831
-0.115066
0.00123486
0.00107714
-0.000198876
-0.000878262
0.00715993
-0.00306154
-0.00409839
0.0164907
0.175304
-0.00342168
-0.0512617
0.0546834
0.00268865
-0.00161151
0.195045
-0.210815
0.0157706
0.121524
-0.13685
0.0153265
0.0137666
-0.00583352
-0.00793305
0.205515
-0.011484
-0.194031
-0.103348
0.10609
-0.00274197
-0.246104
-0.029423
0.00380388
-0.646874
0.400786
0.246086
-0.135091
0.16169
-0.0265987
-0.213803
0.184558
0.0292445
-0.249328
-0.0494132
-0.0076875
0.0871924
-0.0795049
-0.1775
-0.139153
0.316651
-0.00166331
0.0243156
-0.20237
0.461991
0.123786
-0.111376
-0.0124096
-8.01406e-05
0.000359075
-0.00346831
0.00458359
-0.00111529
0.0320072
-0.138306
0.106299
0.142269
-0.0207452
0.668689
-0.362431
-0.306261
-0.0279083
-0.0502404
0.168826
-0.456374
0.287543
0.0163721
0.00270407
-0.00510167
0.0023976
0.0864176
-0.156548
-0.0343657
0.23988
-0.480321
0.225579
0.00244048
0.00471945
0.227949
0.259793
0.0690519
-0.0448378
0.00498567
-0.00183451
-0.00315115
-0.103628
0.122422
0.141749
-0.559923
-0.0392189
0.0885387
-0.0493199
0.00381353
-0.00334677
-0.000466764
-0.00781528
0.0300461
-0.00323022
0.180418
-0.180059
-0.000359
0.0640575
-0.060137
-0.00392049
0.0840917
-0.0917792
0.0288698
0.156719
0.100534
-0.0285963
0.152863
-0.159552
0.00668942
0.000430853
-0.00529559
0.00486474
-0.108545
0.11838
-0.00983487
-0.312064
0.651878
-0.33984
0.0584516
0.156176
-0.214628
0.011728
0.0244301
0.00189663
-0.00938628
-0.00387607
0.0132624
-0.34935
0.215898
0.0503074
0.183424
0.157577
-0.341002
0.101602
-0.0960976
-0.00550485
0.113015
-0.104991
-0.00802382
-0.100036
0.158487
0.147356
0.0143786
-0.131412
0.0228675
-0.097117
0.3037
-0.206585
0.0559175
0.0674339
-0.130449
0.0420649
0.088384
0.0981242
-0.0759316
-0.0221926
0.458398
-0.186821
-0.27158
-0.293565
0.044237
0.118425
-0.0129
0.0198254
-0.00692544
0.0131846
-0.000113763
-0.0130708
0.155289
-0.0171198
-0.138169
0.390153
-0.231775
0.0952982
0.00926962
-0.100451
0.106073
-0.00562168
-0.0943731
0.120083
-0.02571
0.1602
-0.0128442
-0.0174225
0.00452255
0.00815856
-0.00838016
0.000221596
0.148862
-0.196946
0.0480841
-0.102397
-0.0608941
0.163291
-0.0752399
0.0836855
-0.00844561
0.18649
0.166919
-0.353413
0.223952
0.299928
-0.523886
-0.113703
0.0193299
-0.0229493
0.144686
-0.121737
-0.462989
0.230444
0.232539
0.495773
0.127625
-0.623401
0.405156
-0.236333
-0.568127
0.574573
-0.0064637
-0.0173303
-0.155911
0.173241
0.538185
-0.00984486
-0.00374957
-0.0908306
0.153773
0.154671
-0.289951
0.135279
0.00781096
0.00127267
0.000863292
0.0554845
0.215941
-0.271426
0.00461441
0.0108259
0.000179532
-0.0110054
0.0685993
0.182622
-0.184859
0.240343
-0.21649
0.12566
-0.000362291
0.00114717
-0.00078488
0.00980443
0.00135008
-0.0111545
0.16111
-0.0275656
-0.133545
0.464367
0.122357
0.0434442
0.000595955
0.177814
0.145884
-0.151727
0.00584298
0.0109426
-0.000116732
0.0911909
-0.0818789
-0.00931199
-0.256248
0.206223
-0.0895754
0.0143355
-0.00779746
0.0914838
-0.0836864
0.00558887
-0.00738565
0.00179679
0.110542
-0.000506546
-0.110035
0.0457741
-0.110405
0.0646313
0.00121435
-0.0017313
0.00409314
-0.00265331
-0.00143984
-0.0308001
-0.0579512
0.316911
-0.189816
-0.00504423
0.0145033
-0.00945906
-0.00726859
0.00726859
0.00417572
-0.0313766
0.0272009
-0.0371855
0.0413613
0.144141
0.0509033
0.16283
-0.0285613
-0.134268
0.0192819
-0.155503
0.136221
0.00490947
0.00684994
0.0545652
-0.112153
0.0575877
-0.217166
-0.304025
0.521171
-0.1069
-0.435004
-0.0475074
0.180555
-0.133048
-0.00265283
0.00824169
0.0272283
0.373101
-0.186616
0.000922108
0.0484811
0.114665
-0.163146
-0.182222
0.045595
-0.0468055
0.257557
-0.000779325
0.000417034
0.0997461
-0.00444787
0.015225
-0.00770271
-0.206101
0.186132
-0.220498
-0.0291612
0.0241515
0.00500979
0.24564
-0.0147033
0.00473179
-0.0625505
0.211412
-0.126948
-0.089542
0.139152
-0.0906709
0.332781
0.291094
-0.136426
0.120677
-0.134548
0.0138709
-0.0226893
0.119381
-0.1153
0.121889
-0.00658927
-0.0825374
-0.020045
-0.00911627
0.191938
0.0379063
0.00192413
-0.108295
0.0932094
0.015086
-0.195374
0.434065
-0.238697
0.089782
0.00140892
-0.107925
0.126733
-0.0188085
0.00918039
0.000118841
0.170363
-0.217871
-0.13635
0.00793064
-0.0907112
0.066332
-0.0825608
0.0773967
0.00516411
0.112338
-0.124199
0.0118602
0.0110559
-0.00862406
-0.0024318
0.290818
-0.237655
-0.0531634
0.0216073
-0.0935051
0.00177496
0.0134735
0.0177988
-0.184627
0.166828
0.00600947
-0.00557862
-0.0285441
-0.154094
0.182638
-0.00726512
0.00300513
0.00426
0.08291
-0.185307
-0.0320287
-0.130418
0.1195
-0.117178
-0.00232168
0.0602891
-0.0928465
0.0325574
0.307797
-0.176243
0.238234
-0.156111
-0.0821233
0.092628
-0.115577
0.0138934
-0.293716
-0.0266989
0.320413
-0.00640384
0.161692
-0.0333234
0.00193255
0.0313908
-0.208369
0.178534
-0.0748815
-0.061969
-0.0108457
0.012291
-0.00144531
0.10238
-0.255826
0.153446
-0.0466921
0.112881
-0.0661888
-0.157008
0.151493
0.00551515
-0.00291714
0.0127216
0.188919
-0.200403
0.129749
-0.132068
-0.0660226
0.0626009
-0.00271275
0.164677
-0.158165
-0.00651209
-0.0149897
0.00560341
0.000184526
-0.0886896
0.0494707
-0.28164
0.184521
0.117752
0.00292557
0.156702
-0.181683
0.0249807
-0.123322
-0.013028
0.419664
-0.206898
-0.21277
-0.0159023
0.0159023
-0.00806731
0.0284966
-0.0204293
-0.0758576
0.0836443
-0.00778675
-0.0542813
0.240413
-0.0119129
0.0867329
-0.0789555
-0.00777741
0.01208
0.00110462
0.48665
-0.214282
-0.272377
-0.0154747
0.0104305
-0.109744
0.103167
0.00657719
-0.00886124
-0.00666121
0.0155224
0.168378
-0.0155158
-0.0156349
-0.0658995
0.0815344
-0.0372085
-0.239855
0.277063
0.570002
-0.0175747
0.000307658
0.00425726
0.0897898
-0.0113738
-0.0784161
0.148441
0.275291
-0.208725
-0.0422144
-0.136616
0.0617349
-0.156117
0.462536
-0.306429
-0.0347862
0.0267188
0.0353218
0.127508
-0.124928
0.0170037
-0.224134
0.220547
0.00358678
0.0146637
0.276153
-0.331032
0.249663
0.0813691
-0.0763543
-0.00620648
-0.0822817
-0.207672
-0.0322137
-0.298819
0.0189261
-0.0630743
0.0441483
-0.0325966
-0.000726748
-0.170949
-0.0287464
0.0216337
-0.0914065
0.0697728
0.213061
-0.434698
0.516695
-0.216773
0.27407
-0.171691
0.00307971
0.126246
-0.145318
0.0190718
-0.326468
0.0272596
0.299206
-0.317385
0.216427
0.100957
-0.0336066
0.107366
-0.120653
0.298699
-0.178047
-0.0204334
0.0173015
0.00313188
-0.167545
-0.3825
0.550039
-0.153612
-0.0589045
0.212517
-0.0128262
-0.0169225
0.00675455
-0.0962552
0.0895006
0.434472
-0.613791
0.179294
0.499152
-0.197059
-0.302097
-0.197971
-0.0261637
0.321491
-0.124446
-0.197047
0.0879726
-0.10013
0.0121571
-0.0580519
0.0489373
0.00911467
0.193446
-0.0130288
-0.00931501
-0.0360148
0.0453298
0.219788
0.263912
-0.486823
0.222907
-0.00511806
0.0107899
-0.00567181
-0.0690775
-0.158004
0.0819718
0.0760323
-0.299459
0.274945
0.024513
0.00248504
-0.124569
0.114782
0.0687702
-0.0172386
-0.0515317
-0.238079
0.0663796
-0.17263
0.0044161
0.168214
-0.0222099
-0.197515
0.170828
0.0266871
-0.00702443
0.00437112
0.0888166
-0.00208367
-0.0868292
0.0109717
-0.23511
0.0847292
0.15038
-0.00379559
-0.162995
-0.147424
0.310417
0.00385903
-0.137127
-0.0198814
0.0391449
0.0813062
0.180501
-0.0237997
0.213325
-0.108868
0.115622
0.130097
-0.447967
-0.175085
-0.0139396
0.0132036
0.000735992
0.00370126
-0.00881932
-0.00540361
-0.0150298
-0.00899493
-0.000693107
0.00968804
-0.0391259
0.00704189
-0.0149679
0.00792605
0.00108176
0.148303
-0.0252582
-0.123045
0.57766
-0.31026
-0.267401
0.0438604
-0.0905525
0.145023
-0.394631
-0.376366
0.0826471
0.0160208
-0.137189
0.121168
0.00301371
-0.00127988
-0.00173383
-0.0590455
-0.187975
0.24702
0.207246
-0.227688
0.0204421
-0.140425
0.0991046
0.0413209
-0.148647
0.00940921
0.139237
0.396101
-0.179037
-0.217065
-0.0231791
-0.0181663
0.0413454
0.461066
-0.289479
-0.17159
0.0120181
-0.00776095
-0.00425718
0.087896
7.6574e-05
0.164109
0.286301
-0.301361
0.207844
0.0935161
0.100884
-0.107381
0.00649703
0.0162452
-0.235047
0.0600394
-0.0699964
0.00995703
-0.0365537
0.0804141
-0.144974
0.359608
-0.21464
-0.00572194
0.0050349
0.000687041
-0.00847047
0.108946
0.10972
-0.105073
-0.00464739
-0.0510929
-0.184017
-0.0141666
-0.0489078
-0.00626043
-2.06036e-05
0.00628103
-0.340301
0.195323
-0.00688108
-0.08422
0.091101
0.370099
-0.180865
-0.189235
0.106255
-0.056394
0.0679624
-0.0115683
-0.00573037
-0.00153476
0.194416
-0.173052
-0.0213647
0.144549
-0.0183024
0.233943
-0.405688
0.171744
0.11899
-0.121282
0.00229218
0.0111011
-0.00428951
0.00429549
-0.00345323
-0.000842261
-0.259315
0.398689
-0.139378
-0.0165862
0.00956707
0.00701915
-0.353169
0.118895
-0.0097656
0.1659
-0.161028
-0.00487169
0.337984
0.148657
-0.0789655
-0.138244
0.00442383
-0.00438283
-4.09958e-05
0.118272
-0.057983
-0.00129811
0.206297
-0.265344
-0.171821
0.329397
-0.0126927
0.0196525
-0.00695978
0.140654
0.410326
-0.550983
-0.1181
-0.00138051
0.119481
-0.180154
0.246088
-0.0659339
0.182855
-0.166537
-0.0163187
0.191079
-0.0355035
-0.155576
-0.0253845
0.0336705
-0.00828603
0.00824278
-8.42231e-05
0.0885732
-0.229056
0.140482
0.0155633
-0.0137883
0.0887199
0.18135
-0.270071
-0.000719496
0.130679
-0.12996
-0.0184062
-0.00870318
0.00511793
-0.00615165
0.285291
-0.316391
0.0310992
0.140704
-0.00604522
0.0912568
-0.00467381
0.000290979
0.0128085
-0.088292
0.0754835
-0.017786
0.136776
0.0900249
-0.0212547
0.186755
-0.0208555
-0.0763026
0.159212
-0.00135618
0.00406026
0.0346745
-0.00484955
-0.0298249
-0.0563832
0.12358
-0.0671971
0.00865199
0.00336614
-0.083418
0.0942201
-0.0108022
0.00571529
0.0224478
-0.028163
0.311672
-0.211582
-0.100091
0.0805299
0.0125
0.0750605
-0.0906954
0.516967
-0.242611
-0.274359
0.0132518
0.00132339
0.0244302
-0.00927685
-0.0151534
0.16443
0.0195298
0.310985
-0.131502
-0.179484
-0.0472825
0.0379675
-0.110987
0.126996
-0.0160086
-0.0231954
0.038372
-0.0151765
-0.264794
0.182511
0.604598
-0.0563621
-0.548245
-0.0945237
0.130371
-0.035847
-0.132209
-0.0164372
-0.503874
0.336323
0.000501166
0.5051
0.0994897
-0.09809
0.0146721
0.224975
-0.214415
-0.0105604
0.0100232
-0.133345
-0.253247
0.176234
0.208207
0.187894
-0.135346
-0.00250207
0.137848
-0.00732951
-0.00925671
0.174359
-0.150781
-0.023578
0.000143106
0.0154387
-0.290183
0.486054
-0.19588
-0.421353
0.0154962
0.405852
0.00384372
-0.148753
-0.147663
-0.169722
-0.0990414
0.126949
-0.0279073
-0.266389
0.177547
0.0888413
-0.112904
-0.0451004
0.0894689
-0.00893893
0.329579
-0.558491
0.228911
-0.0106844
0.0127177
-0.00203332
0.307203
0.361484
-0.108401
0.0996731
0.00872743
0.0119073
0.00365597
-0.0167353
-0.00622898
0.0229643
0.0194671
0.0245065
-0.047702
-0.0512883
-0.0891372
0.09469
-0.115256
0.0205661
0.0193727
0.0050575
0.23074
-0.381385
0.150641
-0.0344329
0.0112538
0.133947
-0.154014
0.171813
-0.000498931
-0.008496
0.00536984
0.0855138
-0.0908836
-0.353671
0.158292
-0.126598
0.0275564
-0.106288
0.310048
-0.0193452
0.0250605
-0.0148628
0.0030968
0.011766
0.0197699
0.19163
-0.211401
0.0526414
-0.0235344
-0.00813096
0.0316653
0.619751
-0.32831
-0.291443
0.380782
0.238968
0.129004
-0.0117423
-0.0121282
0.00144382
-0.0526928
0.066408
-0.0137153
-0.219597
0.0347381
0.123516
-0.112303
-0.0112129
0.162078
-0.282732
0.32019
-0.3814
0.0612089
0.0647344
-0.0842859
0.0195514
0.00633783
0.138914
-0.0940197
-0.0448946
0.164987
0.314625
-0.479624
-0.0653735
-0.0650754
0.0912512
0.0405858
-0.131837
0.0244761
-0.137061
0.112585
-0.266936
0.0873668
0.179569
-0.198756
-0.0273527
-0.129138
0.0181506
-0.176944
0.0824204
-0.127761
0.083855
0.0125093
0.155273
-0.126981
-0.0604712
-0.120796
0.064413
-0.0931454
0.0759068
-0.0318071
-0.0788826
0.0254876
-0.038717
0.0132294
-0.00825762
0.068297
-0.0759267
0.0177821
0.00208024
0.00116332
-0.00324356
-0.0236177
-0.104267
0.127885
0.0104406
-0.0668347
-0.0016556
0.152509
0.19041
-0.342922
0.105698
-0.182
-0.121969
0.0901615
-0.0122087
0.184341
-0.172133
0.223823
-0.438193
-0.453539
0.244159
0.209375
0.115187
-0.101068
-0.0141189
0.00159224
0.00946362
-0.207462
0.0538489
-0.00356617
0.00173166
0.188804
-0.478995
0.0136129
-0.0663057
-0.0374033
0.098262
-0.0608587
0.0120126
-0.00107003
-0.0895886
-0.0370091
-0.0209952
0.209913
0.10168
0.158794
0.00104689
0.0109657
0.0788004
0.0601139
-0.14375
0.120132
0.0108343
-0.316802
0.331464
-0.0871513
0.102245
-0.015094
0.00678596
-0.060771
-0.037319
0.185288
-0.0268329
-0.158455
0.112749
-0.109118
-0.00363087
-0.250112
0.212903
-0.339672
-0.0279437
-0.182872
0.33862
-0.0184297
0.0250532
-0.00815073
-0.0169025
-0.414958
-0.153183
0.0856893
-0.0209549
0.00713266
-0.123617
0.0340287
0.0034918
-0.00245974
-0.00103205
-0.00413763
-0.00599617
-0.0970671
0.0362961
-0.0155253
0.110215
0.167403
-0.147936
0.141173
-0.239285
-0.0542805
0.0255024
0.339423
-0.364936
6.92847e-05
-0.421427
0.393797
0.149496
-0.131674
-0.0178215
-0.023298
-0.0896743
0.112972
0.105087
-0.0138359
-0.0104011
0.0830918
-0.243963
0.0102984
0.233664
0.00392172
0.480309
0.116706
0.00741952
-0.0047807
0.00833217
-0.143894
0.135562
0.035633
0.444675
0.236749
0.242586
-0.479335
-0.0142306
0.0220914
-0.00786085
0.0298855
-0.219668
0.0230476
0.0314911
-0.0545386
0.0214342
-0.00206149
0.116112
0.0947161
-0.12604
0.0313236
-0.235449
-0.148443
0.383887
0.00271994
-0.018246
0.00455509
0.157865
-0.16242
0.0579655
-0.245942
0.00518299
0.338244
0.185835
-0.524079
0.0201926
-0.252882
-0.154228
-0.186022
0.340247
-0.0187324
0.14799
-0.129257
-0.00610826
0.00710254
-0.000994287
0.0269617
-0.194125
0.167163
-0.176109
0.17561
0.000498505
-0.116374
0.00663007
0.00493372
-0.000638231
-0.1746
0.113683
0.0163196
0.136704
-0.153024
0.0274364
-0.00677596
-0.0206604
-0.35868
0.384171
0.0199518
-0.331243
-0.190991
0.522229
0.0467505
0.251947
-0.0759582
-0.0115044
0.0874626
-0.0747218
0.118028
-0.0433059
-0.0183803
-0.101554
0.120027
-0.0149166
-0.10511
0.0161946
-0.541886
0.311477
0.230409
0.371063
0.225952
0.120209
-0.120928
0.237125
0.074546
-0.123993
-0.417894
0.200486
-0.224534
0.0240476
0.117256
-0.00599641
-0.111259
-0.3993
0.43689
-0.0375988
0.0944798
-0.10983
0.0153504
0.0257296
-0.0575937
0.0496559
0.00793775
0.00202556
0.118001
-0.00217009
-0.000871728
0.00304182
-0.00492992
0.12856
0.479417
0.120968
-0.119903
-0.00106539
-0.520596
0.240694
0.279895
0.13922
0.0990143
-0.0163192
0.0418068
0.0266741
-0.00252262
0.000241589
-0.0308315
0.0240555
-0.182554
0.304736
-0.122184
-0.192725
0.212494
0.119499
-0.0792673
-0.0402315
0.223987
-0.210636
-0.0133506
-0.190904
-0.192036
0.382935
-0.0129493
-0.0238908
0.0961146
0.00548779
0.000843304
0.00550716
-0.00635046
-0.015473
-0.117805
0.0430836
-0.345668
0.306325
0.0393423
0.00613671
-0.333583
0.102469
-0.0554904
-0.046979
-0.0817596
-0.0431688
0.253047
0.485645
0.142006
-0.627651
0.0281711
0.0832682
0.107019
0.000985842
-0.108005
-0.000561048
-0.253128
0.0357923
-0.629937
0.365959
0.263973
-0.00699869
0.000890429
-0.252169
-0.014767
-0.0165813
-0.161136
0.177717
0.362978
-0.519108
0.00209921
-9.81286e-05
-0.00200109
-0.482087
0.170001
-0.0178193
0.00403093
-0.279805
-0.124999
0.404803
0.012367
-0.115995
0.181495
-0.156748
-0.0247475
0.132979
-0.0700563
-0.0629227
0.00917892
-0.313693
0.0896455
-0.264959
0.154227
0.110731
0.599545
-0.350002
-0.249554
-0.0195646
-0.0652388
0.0848034
0.0711083
-0.239817
0.168709
-0.0168509
0.0129748
-0.0507635
0.257481
-0.206718
-0.0805405
0.0283467
0.0521939
-0.00546803
-0.00796909
0.0134371
0.0156914
-0.176268
0.160577
-0.158811
0.413771
-0.254972
-0.000616356
-0.00820191
0.00881826
-0.0396493
-0.0116875
0.0513368
0.22762
-0.139047
0.0985235
0.0195042
0.0416273
-0.280912
-0.0127744
0.000609902
0.0121645
0.327046
-0.174539
-0.0639062
-0.0580625
0.473981
-0.2215
-0.252485
0.430052
0.169485
0.0601432
-0.0370956
0.0110202
0.292682
0.206467
-0.18323
0.0566128
-0.00362145
-0.00239714
0.00601859
-0.0543462
0.0657423
-0.0113961
-0.0326098
0.00907547
-0.129475
-0.21988
-0.0019103
0.00399054
0.112297
0.346099
-0.609553
0.210242
-0.228134
0.209457
-0.408862
0.301941
0.291244
-0.550528
0.259283
0.0288151
-0.00934972
-0.0194654
0.0428399
-0.0136648
-0.0291751
-0.278576
0.101074
-0.437115
0.536596
0.14678
0.0476363
0.0720332
0.268624
-0.00793167
0.00731532
-0.00323053
-0.000371229
0.00261619
-0.00140184
-0.180017
-0.0849425
-0.0856962
0.25276
0.264203
-0.0288756
-0.16569
0.070697
-0.1081
-0.142155
0.372892
0.18458
-0.515826
-0.106252
0.0936951
0.0125567
-0.00581853
-0.00904427
0.124679
-0.0299627
-0.0100427
0.154079
-0.0213125
-0.132767
-0.409434
0.21619
0.159494
-0.0077758
-0.151718
0.119471
-0.0209471
0.0138103
-0.0145903
0.000779956
0.156419
-0.173749
0.0627406
0.00948327
-0.0722239
-0.120131
0.0383713
0.0656742
0.430096
0.0102906
0.0082015
-0.0184921
-0.00358658
0.0138772
0.00144307
0.00788726
-0.00933033
-0.0671923
-0.0527403
0.0648921
-0.0121519
-0.0947738
0.179503
0.0583819
0.00567565
-0.0235816
0.0901393
-0.0665578
-0.192078
0.179869
-0.587616
0.37043
-0.0300711
0.027861
0.00221009
-0.23445
0.224619
0.00983064
-0.478414
0.319591
0.0380869
0.247202
-0.220253
-0.0141983
0.000819338
-0.108663
0.228161
-0.384105
0.155939
0.00629927
0.153195
0.000880422
-0.000960562
-0.127206
-0.116424
0.243629
0.00226041
0.0133483
0.0764141
-0.22048
0.144066
0.00436632
0.106085
-0.110452
-0.00048823
0.00351937
-0.00303114
-0.293068
0.0791928
-0.0663843
-0.222099
0.113683
0.108416
0.17813
-0.162438
-0.0648544
0.0105081
-0.0193449
-0.103952
-0.00107185
0.105024
0.154225
0.00560579
-0.00922724
-0.160272
0.322227
-0.161957
0.00168708
-0.012447
0.0107599
-0.0203504
-0.164277
0.00018248
-0.00122809
0.00104561
-0.0143224
0.0133584
0.000963994
0.0107228
-0.00903572
0.000952278
0.130902
-0.131854
-0.14704
-0.15411
0.301149
0.118454
-0.301009
-0.329683
0.65717
-0.327489
-0.174708
0.4185
-0.10497
-0.313532
-0.00357821
-0.163921
-0.0106123
0.0198938
-0.153017
0.133123
-0.0561576
-0.118442
0.120429
-0.215203
-0.368943
0.239462
0.00178845
-0.189552
0.187763
-0.176792
0.168225
0.00856604
-0.149852
-0.15151
-0.126949
0.191052
0.0113461
0.00455053
-0.0158967
-0.0154453
-0.0682315
0.0836767
0.0234134
0.169062
-0.192476
-0.140626
-0.00231915
0.142945
-0.0226493
-0.00742177
0.227438
-0.00500657
-0.00237908
-0.563698
0.205006
0.141781
0.00226262
-0.144044
-0.136747
0.207856
-0.189357
0.355964
-0.16661
0.110493
-0.141493
0.0310003
-0.161531
0.42544
-0.146827
0.374982
-0.0593857
0.10516
-0.0949856
0.281146
0.10262
0.0146356
-0.302537
0.154873
-0.0132518
0.00115042
0.0121014
-0.0840774
0.0965384
-0.0124609
0.0110646
-0.0969928
0.0859282
0.0821384
-0.0890195
0.133844
-0.32928
0.195434
3.85694e-05
-0.116703
0.108886
0.00781732
0.528409
0.00754947
-0.0200439
-0.207645
0.00127703
-0.0062836
0.21071
-0.207096
-0.00361431
-0.0643581
0.0645632
0.0252188
-0.0113578
0.000512122
-0.126845
0.0891703
0.0376742
0.123085
0.192572
-0.315658
-0.0331998
-0.0222384
0.0868016
0.0152221
-0.110496
-0.111603
0.32567
0.160375
-0.26055
0.389381
-0.128835
0.0638144
0.0972961
0.256915
-0.305216
0.0483002
0.000485385
-0.00674581
-0.00034879
0.274488
0.303171
-0.0476638
-0.0606316
-0.106583
0.0275512
0.0790315
-0.30579
0.151558
-0.00631113
0.0176573
-0.0107655
-0.00705377
0.108528
-0.0124132
-0.217143
0.166379
0.00852263
0.0251479
0.153339
-0.16501
0.480179
-0.315175
0.0050856
-0.0042423
-0.12988
0.146199
0.378317
-0.262345
-0.115975
0.425544
-0.178578
-0.246969
-0.190832
0.172076
-0.164879
0.139901
0.024977
0.0102919
-0.0161255
0.000903866
0.00288894
0.0209153
0.134421
-0.155336
0.0194189
-0.00475394
-0.014665
0.0678644
-0.215909
0.148045
0.162338
0.161471
-0.32381
-0.0862712
0.0415769
0.0446943
-0.234911
-0.218632
-0.0128883
-0.0801643
0.0930526
-0.401474
0.594239
-0.245061
-0.349188
0.128329
0.0813792
-0.209708
-0.0796785
0.00180997
-0.0134687
0.0116588
-0.0104902
-0.00228423
-0.0782602
0.0919994
-0.0137392
0.000428489
-0.00803942
0.00761093
-0.00556928
0.020613
-0.0150438
0.122565
0.0257379
-0.0889969
-0.210464
-0.149967
-0.152571
0.0165427
0.138135
0.50391
0.0366487
-0.540583
0.146752
-0.13842
0.0159485
-0.0326816
-0.0505002
-0.114931
0.549378
-0.107667
0.144009
-0.0363416
-0.00607244
-0.101764
0.112103
-0.010339
-0.006022
-0.00922643
0.124155
-0.10002
0.437994
-0.167529
0.0890586
-0.0867527
-0.0023059
0.0192034
0.181282
-0.00417692
-0.00608089
0.02523
-0.298516
-0.331426
0.14094
0.237374
0.442465
-0.275304
-0.167164
0.220277
-0.03572
0.0978874
-0.0929886
-0.00489878
-0.0068859
0.0293337
0.00508577
-0.0193163
0.0578671
0.109536
0.311621
-0.473155
0.0173056
0.0849396
0.229747
0.0917431
0.0127875
-0.0786871
0.0041881
-0.0042087
0.131064
-0.115044
0.00142985
0.00813722
0.00664705
-0.00630435
0.00413426
0.0186483
0.113315
-0.131964
-0.0237932
0.180212
-0.00573878
0.00382848
0.188811
-0.165398
0.0785393
0.0889295
-0.167469
0.0891058
0.030393
-0.0207763
0.336793
-0.142712
-0.194082
0.0514555
0.0142869
0.325714
-0.163377
-0.031335
-0.0127166
0.0440515
0.00222932
-0.377227
-0.186482
0.173882
0.148853
-0.0383596
0.107213
-0.00632836
0.182202
-0.142497
-0.0397057
-0.347433
0.552993
-0.205566
0.0281902
-0.208345
-0.175316
0.212468
-0.0371516
-0.11854
-0.117522
0.236061
0.0151131
0.0506091
-0.0657222
0.275497
-0.458869
0.183371
0.00882542
-0.0484747
0.00823075
-0.00678768
0.176818
0.148895
-0.181941
0.158148
-0.0285513
-0.136327
-0.488802
0.246188
0.0267871
-0.000113003
-0.00567635
0.000156442
0.0140775
0.00336926
-0.0174468
0.206748
0.247148
-0.4539
0.0244198
-0.209273
0.184853
0.0168893
0.175338
-0.192227
-0.223143
-0.0217108
0.244853
-0.098909
0.0201188
0.0787901
0.0262917
0.375774
-0.598676
0.222901
-0.014997
0.115251
-0.100254
-0.1333
-0.0436442
-0.0643762
0.0181753
0.0462008
0.152619
0.000101097
0.0371164
-0.212433
-0.224168
0.0555273
0.16864
0.0896292
0.119888
-0.0144434
-0.105445
0.118318
-0.235291
0.367443
-0.132154
0.00565892
0.000121859
0.00088761
-0.00100947
-0.0331089
0.0242477
-0.00349597
0.0105379
-0.0427782
0.0114433
0.00311555
-0.000481435
0.000663914
0.366676
-0.190409
-0.176268
-0.337994
0.166172
0.183954
0.117247
-0.301203
-0.0158847
-0.0724073
-0.107064
-0.0382542
-0.116405
-0.0141107
0.013488
0.000622675
-0.320271
0.159997
0.186451
0.340394
-0.526861
0.378966
-0.0151466
-0.0759661
0.304372
0.214811
0.134418
-0.211696
0.0772772
0.0971633
0.0947743
0.0662017
-0.0531914
-0.0130103
-0.108556
0.214941
-0.106385
-0.336027
-0.184575
-0.448239
0.261415
-0.140075
0.330231
-0.190157
0.185332
-0.622456
0.123963
-0.111861
-0.0121018
-0.0790956
-0.0198133
-0.0432758
0.121815
-0.0443092
0.0095996
0.0347096
-0.203491
0.346569
-0.143079
0.152984
0.00334014
-0.0168598
0.0113918
-0.00908849
0.000464435
0.0673912
-0.00110746
-0.0662837
0.0623106
0.0433128
-0.105623
0.0522415
0.0331922
0.429337
-0.126432
0.11397
0.012462
0.0194812
-0.24365
-0.425503
0.145696
-0.186543
0.198534
-0.0119921
0.00373779
0.11182
-0.284279
0.172458
0.115371
0.00451754
-0.0760977
0.0632094
0.298848
-0.19529
-0.304809
0.115451
-0.157983
0.12687
0.0311133
0.000820258
0.362573
0.210116
-0.57269
0.0271451
0.0390566
-0.124789
0.308741
0.07524
-0.0911247
0.463453
-0.226705
-0.100373
-0.178205
0.0715085
-0.0623616
-0.0297988
0.0921604
0.0585261
0.226939
0.0179261
-0.0835362
0.0041758
0.00415797
-0.091959
-0.0216643
0.00756813
0.0140962
-0.343923
0.104068
0.000985077
0.0128252
-0.0875646
0.063983
-0.396691
0.299221
0.0974694
-0.00550579
-0.0812469
0.022497
-0.104861
0.0762081
0.0286532
-0.22469
-0.194292
-0.114659
0.308949
0.431322
-0.444222
0.0128926
0.309246
0.253768
-0.0446356
-0.209134
-0.13837
0.140631
-0.00226095
-0.1126
-0.0154497
0.128049
-0.186729
0.309812
-0.2193
0.432361
-0.102938
0.0327179
-0.244281
0.422729
-0.178453
-0.0339843
0.0256599
0.00832434
-0.182558
0.0205611
0.000834244
-0.00348344
0.00264919
0.0704016
-0.101202
0.246579
-0.474152
0.227572
0.0155391
0.245067
-0.53592
0.29084
0.189882
-0.0259523
0.111604
-0.129248
0.017644
0.082013
-0.0146218
0.132391
-0.131438
0.332463
-0.593721
0.261256
0.11456
-0.0261759
-0.08706
0.0388268
0.0482332
0.109821
-0.105455
0.024077
-0.106289
0.0822116
0.134815
-0.0995076
-0.0353072
0.107313
-0.130611
-0.0790739
-0.0422081
0.129726
-0.00287485
-0.126851
0.0821927
-0.190749
0.227609
0.192051
0.0643631
-0.00421989
0.00408912
-0.039602
0.213923
-0.174322