/*--------------------------------*- C++ -*----------------------------------*\
| =========                 |                                                 |
| \\      /  F ield         | OpenFOAM: The Open Source CFD Toolbox           |
|  \\    /   O peration     | Version:  v2012                                 |
|   \\  /    A nd           | Website:  www.openfoam.com                      |
|    \\/     M anipulation  |                                                 |
\*---------------------------------------------------------------------------*/
FoamFile
{
    version     2.0;
    format      ascii;
    class       volVectorField;
    location    "300";
    object      U_0;
}
// * * * * * * * * * * * * * * * * * * * * * * * * * * * * * * * * * * * * * //

dimensions      [0 1 -1 0 0 0 0];


internalField   nonuniform List<vector> 
13851
(
(1.01482 -0.0129069 1.23859e-23)
(0.615758 -0.184064 -4.80673e-21)
(1.03214 -0.0550792 -7.32582e-21)
(1.01415 -0.0119974 3.81462e-23)
(1.0552 -0.0671881 0)
(0.971617 -0.0123564 2.78321e-21)
(1.03137 -0.0032859 -1.2925e-20)
(1.04201 -0.0473714 -3.75442e-22)
(1.00759 -0.000641531 0)
(1.0369 -0.0381631 1.82034e-21)
(0.9679 0.0875711 1.42872e-21)
(0.41299 0.105925 0)
(0.989813 -0.0967317 0)
(0.0345787 -0.128758 -6.61836e-21)
(1.01941 -0.000734879 -5.29148e-21)
(1.03291 -0.0384112 5.63711e-21)
(1.04 -0.0272671 -8.13687e-21)
(1.01507 -0.0179067 9.13676e-23)
(1.07057 -0.106903 3.70079e-20)
(1.00746 -0.000675813 1.84036e-23)
(1.01419 -0.0117824 0)
(1.03406 -0.0567238 0)
(1.00322 8.2845e-05 0)
(1.00245 -7.03789e-05 -8.79107e-23)
(1.00238 -2.4573e-06 0)
(1.04078 -0.04716 -6.86797e-21)
(1.0505 -0.0216631 8.09957e-21)
(-0.0025777 -0.0499117 -5.64708e-20)
(1.01512 -0.0127898 0)
(1.02164 -0.0216464 5.15939e-21)
(0.962548 -0.00539126 3.3899e-21)
(1.0404 -0.0283043 0)
(1.03253 -0.0533254 8.42317e-21)
(0.900733 -0.135761 0)
(1.00313 -7.35721e-05 0)
(1.08816 -0.0642129 1.05425e-20)
(1.09767 -0.06434 -2.68497e-20)
(1.01964 -0.0934877 0)
(1.0364 -0.0361507 0)
(0.890585 -0.118372 -6.24621e-22)
(1.01413 -0.0076935 -3.07513e-21)
(1.00915 0.000825285 6.21128e-23)
(0.0303987 0.102686 -3.01673e-20)
(0.91905 0.130445 -1.56096e-21)
(0.91238 0.12423 2.85575e-21)
(0.203906 -0.00175642 8.30327e-22)
(0.901965 0.140549 1.09404e-21)
(0.928801 -0.0114354 5.3192e-23)
(1.05142 -0.0223358 -4.13574e-21)
(0.993497 0.0260472 0)
(1.07234 -0.0605414 0)
(1.07583 -0.074136 1.60771e-22)
(-0.0273513 0.0462209 0)
(1.01899 -0.000639202 2.90466e-21)
(1.01046 -0.00079936 0)
(1.00941 0.000878386 0)
(1.00394 7.14122e-05 0)
(-0.0627491 0.0276912 -1.87808e-20)
(1.02157 -0.0209356 -1.42524e-21)
(1.03192 -0.00603804 -4.29714e-21)
(1.01458 -0.0921962 -6.25565e-21)
(0.491852 -0.168007 3.87756e-21)
(1.01992 0.00583518 1.93364e-21)
(1.05897 -0.0719469 0)
(0.962809 -0.0842206 3.43877e-21)
(1.01395 -0.0143803 -1.55777e-22)
(1.08625 -0.064422 0)
(0.913107 0.131117 -7.12282e-22)
(1.06132 -0.0393014 9.19718e-22)
(1.0153 -0.0171112 0)
(0.321345 -0.00814823 0)
(1.01937 -0.0663128 -1.5694e-20)
(0.57447 -0.187072 -1.79716e-21)
(1.019 -0.00066908 -2.56577e-21)
(1.01102 -0.00132209 0)
(1.00933 -0.000864188 -1.41065e-22)
(1.03599 -0.0562092 0)
(0.442585 -0.0126996 0)
(1.05516 -0.0513768 0)
(0.304958 -0.0114812 -3.81554e-20)
(1.03459 -0.0103885 -4.89056e-21)
(0.901674 -0.103869 9.30638e-22)
(1.02092 -0.00540897 -9.69252e-21)
(0.17059 0.0475064 -3.90099e-20)
(1.01548 0.00790671 0)
(0.469949 0.0867237 0)
(0.987358 -0.000547081 4.72734e-21)
(0.897849 -0.113414 -7.50257e-21)
(1.04684 -0.0273858 -5.77872e-21)
(1.01254 0.00137699 0)
(1.08801 -0.0640613 2.17745e-20)
(1.02683 -0.0121252 2.18681e-22)
(0.917743 0.115913 -1.28753e-21)
(1.0505 -0.0321444 0)
(1.04745 -0.026618 1.10645e-20)
(1.00227 3.04287e-05 -4.45694e-23)
(1.05691 -0.0684322 0)
(0.656182 -0.0749963 1.16873e-20)
(0.988756 0.0314043 0)
(1.00161 3.33603e-05 0)
(-0.0782791 -0.0422617 5.70527e-21)
(1.06297 -0.0525547 -1.37633e-21)
(1.01717 -0.0129938 -1.16047e-22)
(1.05805 -0.0143825 2.07212e-20)
(1.00415 8.57778e-05 -1.30087e-23)
(0.994008 0.015135 -2.41091e-21)
(1.06636 -0.0550739 -1.32234e-20)
(1.00861 0.000676359 0)
(0.911628 -0.0650481 1.52944e-20)
(0.972176 -0.0211361 0)
(1.00154 -6.17153e-06 0)
(1.01285 0.00153029 0)
(1.02417 -0.0111667 2.76643e-22)
(0.999951 3.73189e-05 -8.12492e-23)
(1.00218 -1.52524e-05 0)
(0.80823 -0.197906 1.39565e-21)
(0.684971 -0.0802582 -9.22006e-21)
(1.00785 0.000467657 -3.63115e-23)
(1.00401 -0.00026293 0)
(1.00865 -0.000570769 0)
(0.0192324 0.116151 2.96916e-20)
(1.05688 -0.0147568 -2.10474e-20)
(0.960273 -0.0996999 1.15561e-20)
(0.874971 -0.165848 -4.0414e-21)
(0.974324 -0.0461055 -6.4734e-21)
(1.01788 0.00300025 0)
(0.990303 -0.0981234 4.94633e-21)
(1.05887 -0.052193 -2.79136e-21)
(1.01382 -0.0111443 6.46128e-23)
(1.05095 -0.0858144 1.67496e-20)
(1.01402 -0.00744917 1.45883e-21)
(1.00682 -0.00118961 1.03431e-21)
(0.341507 -0.0126783 1.02601e-20)
(1.02094 -0.00509601 6.74047e-21)
(0.805636 -0.200491 -2.40602e-21)
(1.00659 -0.00054229 0)
(1.0078 0.000418909 1.43886e-22)
(1.02898 -0.0653335 -1.58346e-20)
(0.0588969 -0.175446 8.99643e-21)
(0.339044 0.0517089 -1.26508e-20)
(-0.097263 -0.0403843 -7.45185e-21)
(1.01007 -0.000751928 0)
(1.01481 -0.000928143 0)
(1.01158 0.00124346 -2.50219e-22)
(1.03268 -0.0221267 -1.23431e-20)
(0.912376 0.137389 -2.52663e-21)
(1.01529 -0.00537422 -7.47686e-23)
(1.04768 -0.0865812 0)
(1.0306 -0.00322323 -7.03623e-21)
(0.917715 0.0994056 0)
(1.086 -0.055338 1.76309e-21)
(1.00894 -0.000705404 0)
(0.0366683 -0.117516 0)
(1.00391 5.05199e-05 2.06628e-22)
(1.04059 -0.0187021 0)
(1.0319 -0.021852 4.5391e-21)
(1.00968 -0.00335635 6.93063e-22)
(1.02373 -0.0200471 -4.87711e-21)
(1.07491 -0.0755141 2.82791e-20)
(1.07096 -0.0603511 1.77919e-20)
(1.01215 0.00130039 -5.25054e-25)
(1.05798 -0.0298923 -7.22314e-21)
(-0.0579415 0.0289709 1.85783e-20)
(1.0067 -0.00111384 -5.08248e-22)
(1.02155 -0.0295628 0)
(1.01032 0.00108472 0)
(1.01637 -0.00817669 7.41451e-23)
(1.06268 -0.0397015 5.01903e-22)
(1.01387 -0.0108829 -6.74883e-22)
(0.561829 -0.0809397 -6.30024e-20)
(0.426417 -0.0106785 0)
(1.00567 -3.1188e-05 1.49637e-22)
(1.00982 -0.00352082 -3.9562e-22)
(0.29019 0.027019 -1.07722e-21)
(1.00654 -0.00101577 -2.56952e-22)
(0.905764 0.0496237 0)
(1.05768 -0.0514051 8.4531e-21)
(1.0133 8.69416e-05 7.8743e-22)
(1.07017 -0.106943 -1.93819e-20)
(1.00928 0.000827373 0)
(1.04004 -0.0299252 0)
(0.997902 -0.0650209 3.31647e-20)
(1.02091 -0.00440057 7.81634e-21)
(1.03358 -0.0590421 1.47417e-21)
(1.00793 0.000299318 4.62274e-25)
(1.00287 4.60922e-05 -1.19203e-22)
(1.0146 -0.0147999 2.59847e-22)
(1.01047 -0.000877251 0)
(1.05103 -0.0718722 -1.07583e-20)
(1.04212 -0.0579135 -3.46203e-21)
(0.905225 0.138563 4.47359e-21)
(-0.0362945 0.0445709 0)
(1.01387 0.00180168 -1.02578e-22)
(1.05701 -0.0404458 0)
(0.515275 -0.162808 0)
(1.03897 -0.0182321 -7.61011e-21)
(1.0141 -0.00107617 0)
(0.861178 -0.00656627 2.71071e-22)
(1.01338 -0.000164401 -6.64348e-22)
(1.00944 -0.000926691 -5.8516e-23)
(1.01765 0.00364265 0)
(0.396863 -0.15721 0)
(1.00194 -0.000119404 0)
(1.01697 -0.00611546 -2.76573e-21)
(1.03912 -0.0481063 2.34272e-21)
(1.02135 -0.00463988 0)
(0.281458 -0.0891623 -1.29427e-20)
(1.04236 -0.0273943 -1.21114e-21)
(0.464134 -0.0240264 3.93712e-20)
(1.01054 0.00104054 -2.22499e-23)
(0.710649 -0.0531797 -2.0865e-20)
(1.01707 -0.0126306 0)
(0.8877 0.00944611 0)
(1.00898 0.000730678 0)
(1.01124 0.00124306 0)
(1.01637 0.0150104 -4.9303e-21)
(1.00726 0.00301563 1.89336e-21)
(0.133871 0.0189216 0)
(1.01948 -0.00162834 0)
(0.479091 -0.0262527 -2.61026e-20)
(1.04221 -0.0280476 0)
(1.03547 -0.0107667 7.99557e-21)
(0.74416 -0.0624279 -7.22861e-22)
(1.06642 -0.0801378 1.18961e-20)
(0.615362 -0.0460883 0)
(1.00213 3.35088e-05 0)
(1.05133 -0.0357018 0)
(1.00329 4.4763e-05 0)
(-0.0603439 0.0788159 3.59596e-20)
(1.00924 0.000781453 2.14563e-23)
(1.04027 -0.0461505 5.61747e-21)
(0.930991 -0.013788 3.9917e-21)
(1.00556 -1.94683e-05 -1.7282e-22)
(1.01354 0.00157177 -9.77999e-23)
(1.07331 -0.0566944 0)
(1.0011 -0.025216 0)
(0.333411 -0.0896737 8.18686e-21)
(0.961479 -0.0926209 -7.9141e-22)
(1.0116 0.00126928 0)
(1.01732 -0.00626195 3.08837e-21)
(0.966508 0.00502097 0)
(0.977649 0.085356 4.54567e-22)
(1.01474 0.00144561 -5.67599e-23)
(1.041 -0.048034 0)
(1.00524 0.000125357 1.30713e-23)
(0.562365 -0.0395639 -1.72096e-21)
(1.06199 -0.0536221 0)
(0.888022 -0.110296 3.19873e-21)
(1.03072 -0.0222751 4.3879e-21)
(1.03352 -0.0294992 -9.95985e-21)
(1.00523 -0.00461659 0)
(0.975997 0.0945931 0)
(1.02891 -0.0141381 9.17797e-21)
(1.03153 -0.0225843 1.56431e-22)
(1.07237 -0.0509165 7.29259e-21)
(1.08605 -0.0268748 3.12415e-21)
(1.03879 -0.0588141 2.98674e-21)
(1.01054 -0.064803 0)
(0.395372 -0.00127442 -5.70696e-20)
(1.0225 -0.00181709 4.12619e-21)
(1.01124 0.00123207 -2.13986e-22)
(1.01635 -0.0164559 0)
(0.850403 -0.0686506 -3.19122e-22)
(1.01308 0.00156187 0)
(1.01057 -0.118459 3.18657e-20)
(1.03832 -0.018383 -9.62424e-23)
(1.02895 -0.013613 -4.65254e-21)
(1.05049 -0.0313484 -9.77937e-21)
(0.781526 -0.0656999 7.04918e-22)
(1.03524 -0.00553453 -7.14848e-23)
(1.00507 -0.00281278 7.55637e-22)
(1.03985 -0.0189798 8.41018e-21)
(0.928109 -0.0335558 1.74773e-21)
(1.05517 -0.0497319 0)
(1.03204 -0.0378209 -3.95065e-21)
(1.00696 -0.00129518 -2.72253e-22)
(0.902721 -0.094393 -1.41608e-21)
(1.03357 -0.0199314 0)
(0.624128 -0.0509181 -2.68316e-21)
(0.979718 0.0628075 -4.16549e-21)
(1.01488 0.00147354 7.72017e-23)
(1.01022 0.000949849 0)
(1.00442 8.31547e-05 0)
(1.07213 -0.0498047 -7.32137e-21)
(0.824134 -0.0712453 0)
(0.855844 0.128979 4.91696e-21)
(1.00848 -0.000871244 1.25401e-22)
(1.02047 -0.000448893 1.85553e-21)
(0.916538 -0.0264371 0)
(0.901689 -0.0666403 0)
(1.0483 -0.0907461 0)
(1.02219 -0.0206503 -2.08172e-21)
(1.03212 -0.00651907 5.17121e-21)
(1.05993 -0.0426178 -9.67468e-22)
(0.904566 -0.0858162 0)
(1.02854 -0.115455 -3.64984e-20)
(1.02427 -0.0295481 4.72359e-22)
(0.481319 0.0837788 0)
(1.00721 -0.00146486 -2.96634e-22)
(0.582928 -0.0417092 -3.2831e-21)
(1.0578 -0.0291108 7.56068e-21)
(1.03889 -0.0270981 -4.1232e-21)
(0.638075 -0.0522441 -3.184e-20)
(1.01873 -0.0115501 3.14227e-21)
(0.988595 0.0114447 0)
(0.65323 -0.0466173 -2.18776e-20)
(1.00824 -0.000850422 -9.05148e-23)
(1.06847 -0.0464507 0)
(1.04949 -0.0326608 0)
(1.02205 -0.0199796 -4.13726e-21)
(0.100301 -0.179873 1.71743e-20)
(1.02375 -0.0299707 2.1885e-21)
(1.02719 -0.0138988 0)
(0.719471 -0.0653056 3.25854e-20)
(1.00945 0.000905446 -1.56709e-22)
(1.0341 -0.0302288 1.1555e-20)
(1.01795 0.00541419 -6.34108e-23)
(0.668654 -0.0540373 2.35464e-21)
(1.08582 -0.0622604 0)
(1.01973 -0.00180494 0)
(1.06684 -0.0525531 6.73931e-21)
(1.0203 -0.00126292 0)
(0.44914 -0.00745587 1.88103e-20)
(1.00289 -0.00798327 7.21573e-22)
(1.00328 6.39752e-05 0)
(1.01078 -0.00399843 -3.6625e-22)
(1.08519 -0.0621438 2.07064e-21)
(1.05116 -0.0344136 0)
(1.04154 -0.0176277 -5.19695e-21)
(1.02035 -0.000320492 0)
(1.01882 -0.0114317 -1.5763e-21)
(1.02658 -0.0137025 3.42451e-21)
(0.947004 0.100355 -1.26744e-21)
(0.148947 -0.0491616 1.40608e-20)
(0.57092 -0.121489 4.49358e-20)
(1.01726 -0.0123818 -6.45682e-22)
(0.680367 -0.05493 9.14822e-21)
(0.752181 -0.125759 -6.31199e-22)
(1.01927 -0.000718615 -5.89618e-21)
(1.05623 -0.0414079 -3.83856e-21)
(1.04464 -0.0919782 -1.83015e-21)
(1.03233 -0.00653275 6.00955e-22)
(0.988758 -0.0225132 -2.65239e-21)
(1.07612 -0.0702116 0)
(1.06563 -0.111623 -6.34256e-21)
(1.01408 -0.00832959 0)
(0.780771 -0.117754 -1.59541e-21)
(0.624436 -0.0437857 -3.07089e-21)
(1.01941 -0.000593577 2.75519e-21)
(0.994858 0.0171274 1.91388e-22)
(0.996202 0.0229498 3.13272e-22)
(0.977344 -0.0494774 5.08243e-21)
(1.04206 -0.0172614 0)
(0.984381 -0.0225297 3.35459e-21)
(-0.0677771 0.0731922 -2.37194e-20)
(1.01001 -0.00368212 3.98813e-22)
(0.780068 -0.0994182 0)
(1.0107 -0.00390176 -1.8368e-22)
(1.02017 -0.00117106 0)
(1.0059 0.00015446 0)
(1.0088 0.000716466 3.38674e-23)
(1.00927 -0.00308135 -4.06444e-22)
(0.657913 -0.0471367 2.68896e-20)
(0.879167 0.0286133 0)
(1.01927 -0.00827291 5.75497e-21)
(1.06813 -0.0450083 0)
(1.01022 0.00106364 4.10718e-23)
(0.451722 0.0883271 0)
(1.02962 -0.0422926 5.59007e-21)
(0.82828 0.12586 0)
(0.577036 -0.0936257 4.9166e-20)
(1.0192 -0.00853734 -4.88664e-21)
(1.0032 0.00592877 -2.11378e-21)
(1.04742 -0.0332234 -8.16851e-21)
(0.828026 0.121525 0)
(1.01322 -0.00663908 6.50831e-22)
(1.00785 0.000494074 4.849e-24)
(1.01185 -0.0129835 0)
(-0.0244593 -0.0213986 1.42256e-20)
(1.01072 -0.00108703 -9.88748e-22)
(0.133461 -0.168635 -6.78552e-21)
(1.03192 -0.0103222 3.42187e-22)
(1.07708 -0.0710133 0)
(0.521284 -0.0706647 3.56911e-20)
(0.972418 0.0535447 -1.77613e-21)
(0.967841 0.0420483 9.34802e-22)
(1.00983 0.00316762 -8.19895e-22)
(1.00738 -0.0015336 -4.2644e-22)
(1.01857 -0.000386073 0)
(1.01752 -0.0133393 -7.77876e-22)
(1.068 -0.0519301 -1.62527e-20)
(0.0892691 -0.115902 1.43643e-20)
(1.0647 -0.0390784 -2.0041e-20)
(0.654749 -0.0491989 0)
(0.647007 -0.0465468 -2.85375e-20)
(1.01016 0.00105678 1.76476e-22)
(1.02296 -0.00187103 -7.80201e-21)
(0.561736 -0.111379 -4.46575e-20)
(0.335997 -0.0116651 4.74088e-21)
(0.938638 -0.00134561 -3.65597e-21)
(0.704125 -0.0774131 -4.71543e-21)
(1.01079 -0.0143926 3.40505e-22)
(1.04786 -0.0342981 -8.64648e-21)
(1.00176 1.85049e-05 1.27316e-22)
(0.814566 -0.122014 -3.71609e-21)
(1.00665 -0.000245388 0)
(1.03377 -0.0380371 0)
(1.01062 0.00251876 0)
(1.02868 -0.0045221 -3.55605e-21)
(1.00368 4.11656e-05 -9.7221e-24)
(1.00813 -0.000770582 8.51729e-23)
(1.01035 0.00108908 -1.17407e-22)
(1.06063 -0.0706532 -2.33274e-21)
(0.995462 -0.034024 9.61923e-22)
(0.494336 -0.00946797 -3.91837e-20)
(1.01573 -0.0153665 6.41145e-22)
(1.06731 -0.0540829 3.69659e-20)
(1.00445 -0.019265 1.85869e-22)
(0.994705 0.07871 -1.62034e-21)
(1.03221 -0.0310271 -5.61293e-23)
(0.956103 -0.0424016 0)
(1.03839 -0.0262848 -8.4859e-21)
(1.01906 -0.00859951 2.53635e-21)
(1.00783 0.0004047 -1.08741e-22)
(1.00792 -0.000746737 8.9014e-23)
(1.00211 1.66325e-05 0)
(1.01151 -0.0969787 3.54272e-21)
(0.89185 0.158013 0)
(1.06162 -0.0811548 -6.63101e-22)
(1.00661 -0.0195781 0)
(0.462423 -0.0098291 4.19953e-20)
(0.909501 -0.141423 -2.17875e-21)
(0.990408 0.00389849 0)
(1.00789 -0.000573064 0)
(1.07463 -0.0567122 2.33758e-20)
(1.01307 -0.00637578 6.36679e-22)
(0.990664 0.0799189 3.11752e-21)
(1.00419 7.9957e-05 1.19209e-22)
(0.85854 -0.00991047 5.64539e-21)
(0.934292 0.0748776 0)
(1.03356 -0.0494678 -3.40703e-22)
(0.460084 -0.0216058 2.05212e-20)
(1.01414 -4.09765e-05 3.44574e-22)
(1.01595 -0.0271004 3.63003e-22)
(0.914421 0.096617 -2.34999e-21)
(0.0760809 0.000148435 -4.93008e-21)
(1.00819 0.000332457 -1.99884e-23)
(1.04837 -0.0364265 0)
(1.05636 -0.0521876 -9.76434e-21)
(1.03674 -0.011298 -6.03753e-23)
(1.00607 -0.000193452 0)
(1.02586 -0.0139552 0)
(1.08578 -0.0541609 -1.71628e-21)
(1.07543 -0.0731687 -4.41311e-20)
(1.01319 -0.0132459 0)
(0.366633 0.148819 3.79746e-21)
(1.00264 6.19657e-05 1.60988e-22)
(1.01101 -0.00417226 0)
(0.0312258 0.108321 -2.46425e-20)
(1.02037 -0.0298062 -1.10056e-23)
(1.00996 0.00089498 -1.86047e-23)
(0.821184 -0.104352 -8.27525e-21)
(1.00726 -0.00145369 -4.18331e-22)
(1.01445 -0.0127052 -1.14801e-22)
(1.0065 -0.000414102 1.92398e-24)
(1.0146 -0.0411161 4.03443e-22)
(1.02276 -0.0182585 1.36285e-21)
(1.01026 0.000985772 -4.26445e-23)
(1.01418 -0.000365234 3.07098e-22)
(0.746392 -0.0717591 -3.15835e-20)
(1.0213 -0.00577883 -1.02702e-21)
(1.06449 -0.0416549 3.71048e-20)
(1.00686 -0.000623327 0)
(1.01205 0.00137909 1.48951e-21)
(1.02784 -0.0397848 2.15644e-23)
(0.999711 4.18408e-06 0)
(1.01249 -0.00658083 0)
(1.00027 5.02078e-05 0)
(1.00017 -4.98742e-06 9.14792e-23)
(0.892914 0.116581 -4.56633e-21)
(1.02968 -0.013106 0)
(0.980755 -0.00169443 2.6118e-22)
(1.0209 -0.00406836 -7.87725e-21)
(1.00253 6.12144e-05 0)
(-0.0899257 -0.10981 1.18169e-20)
(0.445591 -0.0196295 9.15646e-21)
(1.02224 -0.00484021 -2.33944e-21)
(1.01294 0.00322183 -1.39717e-21)
(1.03312 -0.031472 2.79595e-21)
(0.95642 0.09106 0)
(0.160529 0.0495374 -4.16544e-20)
(1.01109 -0.00429538 0)
(0.882193 0.0667823 8.00334e-22)
(1.01356 -0.00690085 -1.3404e-21)
(1.04782 -0.0665194 1.78565e-20)
(1.02977 -0.00577655 0)
(-0.0622874 0.0944536 -2.3538e-20)
(1.00759 0.000296476 -8.47006e-24)
(-0.0232536 0.0583963 -2.90405e-20)
(1.03412 -0.0633009 -1.39408e-21)
(1.00918 0.000836378 0)
(1.01568 0.00318267 2.47991e-21)
(0.594561 -0.0624321 1.24373e-20)
(1.03941 -0.0460604 -1.38159e-20)
(0.906917 -0.117467 -4.75611e-22)
(1.00509 -0.000328431 0)
(0.894995 -0.162444 7.76102e-22)
(1.00971 -0.000651534 0)
(1.00616 -0.00075714 -1.79809e-22)
(1.00712 -0.00138274 4.37711e-22)
(1.02903 -0.00293921 0)
(0.359805 -0.0164561 0)
(1.06892 -0.0584875 -1.97318e-21)
(1.08102 -0.0676325 -2.45357e-20)
(1.09013 -0.0917615 6.98925e-21)
(1.01199 0.0029392 -2.02822e-21)
(1.01244 0.00133785 0)
(0.858025 -0.120084 -2.80108e-20)
(0.891704 0.158049 -2.76169e-22)
(1.04108 -0.0301788 -5.57006e-21)
(1.05713 -0.030592 1.26983e-20)
(0.963132 0.077429 4.3972e-22)
(0.890397 -0.182329 -4.33592e-21)
(0.753802 -0.0557363 0)
(1.01726 -0.00041789 -1.7706e-22)
(-0.0692758 0.0902221 9.55645e-21)
(0.228025 0.0113978 7.82515e-20)
(0.315618 -0.139339 0)
(1.02261 -0.0304116 -2.72145e-21)
(1.0169 0.00463402 -3.27929e-21)
(0.837708 -0.0516775 -9.47469e-22)
(1.02218 -0.0292665 -6.09676e-23)
(1.08974 -0.0476155 -1.04777e-21)
(0.863733 -0.0197122 3.19174e-21)
(0.727231 -0.0116102 0)
(1.02323 -0.0202968 3.74037e-21)
(0.69973 -0.0208383 -7.10643e-21)
(0.985608 -0.0634674 3.12212e-20)
(1.00779 0.000345278 -1.00055e-22)
(1.0281 -0.0217559 0)
(1.07038 -0.0587745 -2.05957e-21)
(0.420472 -0.0139444 5.09537e-21)
(1.03022 -0.0228609 -4.35304e-21)
(1.01704 -0.0043197 -1.40669e-21)
(1.0095 -0.00322017 -1.13408e-21)
(1.01537 -0.00722886 2.42722e-21)
(1.0532 -0.0707253 1.21464e-20)
(1.00646 -0.0314631 0)
(0.947528 -0.126675 5.11977e-21)
(0.366238 0.138208 3.60081e-21)
(1.00585 -0.000326637 1.51438e-22)
(0.0324096 0.10703 1.38629e-21)
(0.489172 -0.0221749 1.64582e-20)
(0.985791 0.0396763 4.14941e-21)
(0.893071 0.141455 -1.69127e-22)
(1.06316 -0.0412373 -3.45298e-20)
(1.00944 0.000775477 1.18936e-23)
(1.00781 -0.00068185 -1.31234e-22)
(1.00836 -0.0299292 1.46376e-22)
(0.827662 -0.116201 3.98668e-20)
(1.04148 -0.0192161 8.54128e-22)
(1.08422 -0.0592631 1.61202e-20)
(1.08708 -0.064591 2.58812e-20)
(1.00939 0.000871634 1.18304e-22)
(0.99958 -0.0221906 -1.63641e-21)
(0.917443 -0.184499 -3.80453e-21)
(0.992119 -0.0494117 2.31852e-21)
(1.0722 -0.0725869 -2.12528e-20)
(0.370107 -0.017859 0)
(0.984662 -0.0632814 0)
(1.01368 -0.00716392 1.3634e-21)
(1.02916 -0.00426313 7.37125e-21)
(0.570292 -0.0766467 3.20057e-21)
(0.635564 -0.0456241 2.50213e-20)
(1.08393 -0.0636413 1.25178e-21)
(1.06575 -0.0382567 -9.81598e-21)
(1.02634 0.00999594 -4.07908e-21)
(1.00905 0.000778575 0)
(1.01324 -0.00441123 -3.45418e-21)
(0.824327 -0.016413 -6.37294e-21)
(1.0091 0.000811401 1.09451e-22)
(1.02943 -0.0225007 6.35084e-21)
(1.00925 0.000810319 0)
(1.00744 -0.00123083 5.3135e-22)
(0.966178 -0.064207 -4.17804e-20)
(1.057 -0.0708413 1.39216e-20)
(1.00772 -0.0171428 0)
(1.00911 0.000807581 2.19177e-22)
(0.188789 -0.167137 2.50688e-21)
(0.861448 0.0354391 5.85881e-21)
(1.00742 -0.00162453 3.45233e-22)
(1.00444 8.6303e-05 0)
(1.01312 0.00166946 0)
(1.01902 -0.000499498 0)
(-0.0340604 -0.0115601 -1.47597e-20)
(0.880258 -0.0768765 4.24383e-21)
(0.892409 -0.0424224 -3.0842e-21)
(0.262994 -0.16503 2.998e-20)
(0.884869 -0.163066 -2.64618e-22)
(1.06518 -0.0362882 -3.52197e-20)
(0.400416 -0.0106733 -5.63638e-21)
(0.442046 -0.0204952 1.67051e-20)
(1.01499 -0.0090385 0)
(1.06044 -0.0402218 0)
(1.00956 0.000792587 -1.19828e-23)
(1.01868 0.00476684 3.67395e-22)
(1.03604 -0.0397044 -4.35558e-21)
(0.799891 -0.0831002 3.37063e-20)
(0.784317 -0.0975077 0)
(1.08335 -0.0590843 -1.49188e-20)
(1.04349 -0.0349055 5.31883e-21)
(1.00715 -0.000583479 0)
(1.03032 -0.0380837 4.24375e-21)
(1.01357 -0.00243887 0)
(0.905032 -0.129121 -4.71728e-22)
(1.0675 -0.0623314 -4.25366e-22)
(1.0205 -0.00381994 -3.73357e-21)
(1.01612 -0.0122668 -1.27622e-22)
(1.00598 -0.000211208 -4.2617e-23)
(1.05196 -0.0302591 -1.64085e-20)
(1.05989 -0.0832114 -3.27369e-20)
(1.03112 -0.00584215 1.20695e-20)
(1.01275 -0.00615033 6.1548e-22)
(1.03084 -0.0424555 -4.70837e-21)
(1.02817 -0.00885241 0)
(1.05338 -0.0682681 0)
(1.00997 -0.0897581 -3.07076e-21)
(1.0664 -0.0784645 1.04103e-20)
(1.02829 -0.0384217 0)
(1.08446 -0.0636155 1.3329e-21)
(1.00697 -0.000560863 0)
(0.957916 0.00548491 -6.43547e-22)
(1.00475 -0.00662508 8.30993e-22)
(0.185016 -0.137912 0)
(1.01731 -0.0126321 -7.93492e-22)
(1.00222 4.78048e-07 2.07521e-22)
(0.940522 -0.0643212 -1.85605e-20)
(1.01896 -0.0173536 -1.25346e-22)
(0.488238 -0.0503535 0)
(0.592773 -0.0409672 8.02818e-22)
(0.0337846 0.0635241 1.36488e-21)
(0.801055 -0.11366 3.7807e-21)
(1.00653 -0.000268738 0)
(0.994559 -0.0661373 1.78566e-20)
(1.01528 0.00141587 6.05981e-23)
(1.00735 -0.00134672 6.32872e-23)
(1.00757 0.000288654 -4.98358e-23)
(1.00751 -0.00136749 -2.82828e-22)
(1.01585 -0.000138052 0)
(1.01605 -0.0143537 -7.51755e-22)
(1.01481 -0.0390014 0)
(1.00885 0.000752625 -1.57308e-22)
(0.683039 -0.104085 0)
(1.03792 -0.0631372 0)
(0.650045 -0.111072 0)
(1.00893 -0.002665 -3.03249e-25)
(1.00736 0.000257988 0)
(1.00449 0.000122479 0)
(1.04155 -0.0891306 -2.82665e-21)
(0.504579 -0.158017 -7.80026e-21)
(1.07774 -0.0496987 9.87819e-21)
(1.0517 -0.0308751 0)
(1.01554 0.00128145 -6.87038e-23)
(1.00228 4.49471e-05 -2.94359e-22)
(1.00484 -0.000197196 0)
(1.00996 -0.00345625 0)
(1.09231 -0.0705428 2.83019e-20)
(0.292277 0.123981 3.29327e-21)
(1.02765 -0.00854197 -8.90617e-21)
(1.00887 0.000747462 4.69079e-23)
(1.02941 -0.00260202 0)
(1.00993 -0.00349071 -3.04875e-22)
(0.969478 -0.00911192 0)
(-0.0438646 0.0308739 -2.53223e-21)
(1.0313 -0.0385504 0)
(0.63455 -0.0827707 0)
(0.903577 -0.176603 -6.5422e-21)
(1.01261 -0.00589077 6.40508e-22)
(1.08003 -0.0679547 1.45019e-20)
(0.0445135 -0.0140194 0)
(1.06087 -0.0416847 0)
(0.405039 0.0992062 0)
(1.03388 -0.0106198 4.51322e-21)
(1.01609 -0.0170349 -1.56572e-22)
(1.07666 -0.0493742 -1.11442e-21)
(1.01635 -0.0156435 0)
(0.872839 0.0212175 -2.20594e-21)
(1.02179 -0.00458143 -8.46324e-21)
(0.855809 -0.111219 -1.56122e-21)
(1.00402 5.85925e-05 1.21902e-22)
(1.07268 -0.0291517 0)
(0.482071 -0.0253399 -1.88612e-20)
(1.00992 -0.000654995 -3.58785e-22)
(1.01845 -0.0154909 1.6011e-21)
(1.03059 0.00579569 -3.11139e-21)
(1.00632 -0.000830995 -1.58151e-22)
(1.03969 -0.0289788 -4.48274e-21)
(0.88542 -0.0362096 0)
(0.213188 -0.0406481 0)
(1.06597 -0.061991 -1.76408e-20)
(1.03102 -0.118141 -1.30922e-20)
(0.963411 0.0698035 -1.0039e-21)
(1.00899 0.000747561 0)
(1.00874 -0.00254227 -1.02593e-24)
(-0.102308 -0.119795 0)
(1.08716 -0.064357 -3.38841e-20)
(0.998146 -0.0271575 0)
(0.613145 -0.0432197 0)
(1.00787 -4.49841e-05 -1.83539e-24)
(1.01601 -7.64701e-05 -6.69619e-21)
(1.00776 0.000353532 1.01223e-22)
(0.873164 -0.153169 -6.38635e-21)
(1.07936 -0.0647909 0)
(1.02459 -0.0270388 0)
(1.0145 -0.0100105 4.36943e-22)
(1.03292 -0.030133 4.33494e-22)
(1.048 -0.0234152 -1.19029e-20)
(1.00474 0.00013909 1.32726e-22)
(0.0708664 0.0844786 -4.10559e-20)
(1.06293 -0.0117015 -2.60997e-21)
(0.557349 -0.0332129 0)
(1.00945 0.000899363 1.48775e-22)
(1.02774 -0.00808561 4.14253e-21)
(0.417148 -0.0121498 2.30848e-20)
(-0.0164801 -0.0138301 0)
(1.08666 -0.0636573 -1.47224e-20)
(1.01301 -0.00209777 3.08857e-22)
(0.879301 -0.0610483 -2.46361e-21)
(1.0214 -0.00506627 1.74361e-21)
(1.02931 -0.0130216 -8.97147e-22)
(1.01391 -0.0598952 -1.69418e-21)
(1.03181 -0.0497788 -4.84978e-21)
(1.03374 -0.0278456 9.51802e-23)
(0.084709 0.0560241 -1.3187e-21)
(1.00742 0.00149509 1.32967e-21)
(1.01101 -0.00221359 0)
(1.09691 -0.064121 2.61062e-20)
(1.00239 1.34761e-05 -4.85239e-23)
(1.00109 -5.61582e-05 0)
(1.02292 -0.0188949 3.60996e-21)
(1.00689 -0.000510107 -1.52596e-23)
(0.0739343 0.0895836 0)
(1.03819 -0.0380047 5.99241e-21)
(1.07399 -0.0724543 1.10172e-20)
(1.00928 -0.0175059 -5.6612e-22)
(1.03603 -0.0226276 1.86608e-22)
(1.00725 -0.000647874 -6.79916e-24)
(0.882517 -0.0509018 1.33929e-21)
(1.00373 -0.000179328 0)
(1.00811 0.00290552 1.1052e-21)
(1.00716 0.000239645 -3.7597e-23)
(1.01216 -0.0054441 1.28861e-21)
(1.00891 -0.000821981 0)
(0.638256 -0.0452906 2.7042e-20)
(1.00944 -0.00322945 1.19278e-21)
(1.008 0.000591748 0)
(1.05426 -0.0932485 0)
(1.02994 -0.00442993 -7.73252e-21)
(0.438499 -0.0156296 2.00686e-20)
(1.00323 4.24233e-05 0)
(1.01434 -0.0017326 3.04075e-22)
(1.07751 -0.0572417 7.80944e-21)
(0.935788 -0.00065142 0)
(0.884855 -0.0333271 1.34878e-21)
(1.00538 -0.000227197 1.08442e-22)
(0.946956 -0.0285662 -1.98149e-21)
(0.654314 -0.0927483 2.08265e-21)
(1.02962 -0.01362 0)
(0.737345 -0.0554248 -1.9542e-20)
(1.07143 -0.0289568 -1.08514e-20)
(1.00666 -0.00043941 0)
(1.00067 -0.00450345 -7.36788e-22)
(0.0441856 0.0958207 1.67381e-20)
(0.95359 -0.0219656 1.47164e-21)
(1.03096 -0.0295618 4.98984e-21)
(1.0057 -0.000290509 0)
(1.00861 0.000689726 0)
(0.906454 0.132928 -1.63923e-21)
(1.02875 -0.0477117 -3.41331e-21)
(1.01709 -0.0551978 4.41281e-23)
(1.02383 -0.0287049 0)
(0.999579 -0.00193402 7.48658e-22)
(1.01823 -0.000448897 0)
(1.01394 -0.00191873 -3.07571e-22)
(1.08691 -0.0581105 -2.2388e-21)
(0.88389 0.15388 2.1228e-21)
(1.04908 -0.0703351 1.10987e-20)
(0.802781 -0.10026 0)
(1.0272 -0.00776548 7.02467e-21)
(1.04946 -0.0679383 -1.08453e-20)
(1.07485 -0.0626705 0)
(0.690743 -0.0566245 -2.12621e-20)
(1.02373 -0.0263566 1.34117e-22)
(0.177899 -0.0337961 -2.53544e-22)
(1.09244 -0.093391 2.53043e-20)
(1.03047 -0.0041148 0)
(0.314683 -0.0102195 -2.13252e-21)
(0.968147 0.00413142 -1.03841e-20)
(0.630039 -0.144665 1.85752e-21)
(0.229867 -0.0482245 -3.65314e-21)
(0.665201 -0.0560204 -2.34836e-20)
(0.94646 0.0987875 2.40015e-22)
(1.03588 -0.0421092 0)
(1.00672 -0.000483711 1.3957e-23)
(1.01816 -0.0135628 3.58437e-22)
(-0.0725081 0.0350009 2.89194e-20)
(0.210388 0.0306943 -2.28102e-20)
(1.01031 -0.00327445 0)
(1.00202 3.26876e-05 2.03169e-22)
(1.07262 -0.0578751 0)
(0.942299 -0.0708597 0)
(1.00873 0.000764865 1.00165e-22)
(-0.0267309 0.0208022 0)
(1.00762 -4.35039e-05 9.57585e-23)
(1.02042 -0.00792584 -1.94247e-21)
(0.0489523 0.100798 2.35821e-20)
(0.424053 -0.0124386 1.99502e-20)
(0.951364 0.0701122 1.24383e-21)
(1.00734 -0.00136996 0)
(1.02022 -0.000958831 6.77126e-21)
(-0.0228457 -0.00411395 0)
(1.08756 -0.0706669 -3.14516e-20)
(1.08376 -0.0631309 -1.12315e-21)
(1.01444 -0.00617879 0)
(0.596064 -0.115808 0)
(0.995005 -0.0564331 -4.218e-21)
(0.562908 -0.150878 9.21349e-22)
(1.06494 -0.054594 1.24551e-20)
(1.06679 -0.0446489 0)
(1.02639 -0.0141314 -6.23375e-21)
(1.02962 -0.00525797 0)
(0.563483 -0.17821 7.07744e-22)
(1.08109 -0.0460891 0)
(0.329093 -0.0119355 -7.30646e-21)
(1.00782 -0.0143418 -3.60677e-22)
(1.06344 -0.0385764 1.50134e-20)
(0.0983572 0.0795837 0)
(0.614896 -0.143135 -2.26296e-20)
(0.470205 -0.0180887 -1.92558e-20)
(1.02413 -0.00504378 0)
(1.06526 -0.0336748 -1.76389e-20)
(1.0073 -0.00153949 -3.36294e-22)
(1.02946 -0.0389317 -2.3989e-21)
(1.01819 -0.0151191 -5.4852e-22)
(0.319532 0.114951 2.79834e-21)
(1.01068 -0.000120854 9.22685e-21)
(0.452902 -0.0305155 0)
(1.00853 0.000726841 -2.2283e-22)
(1.07661 -0.056844 1.02716e-20)
(1.01311 -0.00531773 0)
(1.00364 -0.0570658 2.08544e-22)
(1.06604 -0.0371198 2.16394e-20)
(1.06387 -0.0336405 1.68096e-20)
(0.636958 -0.0751068 2.33247e-20)
(1.07139 -0.0453647 -1.35898e-20)
(1.01238 -0.042466 3.05343e-22)
(1.0021 -4.17209e-05 0)
(1.07556 -0.0574724 -8.97945e-21)
(0.870509 0.0820468 6.50932e-21)
(1.00673 0.0157133 -4.40995e-21)
(1.02815 -0.0226423 0)
(0.413605 -0.011628 -6.27215e-21)
(1.01268 0.00145968 1.45156e-22)
(0.32065 -0.0295287 -1.10305e-20)
(0.89126 0.0729561 -1.04246e-21)
(1.02382 -0.0117673 -5.2085e-21)
(0.682237 -0.0495607 2.3671e-20)
(-0.0425597 -0.0328611 5.7709e-21)
(0.452321 -0.0176536 -1.87732e-20)
(0.961367 0.099463 -1.66508e-21)
(1.00651 -0.0120424 0)
(1.01038 -0.00363667 -1.80845e-22)
(0.547982 -0.0310773 0)
(1.01564 -0.000230358 -1.01756e-20)
(0.842352 -0.201644 6.8948e-23)
(0.458459 -0.0243433 1.47734e-20)
(1.00901 -0.0028056 2.92822e-22)
(1.04751 -0.0129079 0)
(1.01819 -0.0987594 2.79269e-21)
(0.86736 0.0763098 -5.84112e-21)
(0.175738 0.00661433 1.42475e-21)
(1.02536 -0.0093999 3.31639e-21)
(1.00474 4.26088e-05 0)
(0.510966 -0.143977 -3.15842e-21)
(0.47149 -0.0246326 0)
(1.0714 -0.0743943 2.75713e-20)
(1.03069 -0.0285531 -2.72289e-21)
(1.01373 -0.00550826 0)
(0.900033 0.0982103 8.43183e-22)
(0.0229183 0.10283 -4.659e-20)
(1.0746 -0.0637151 6.90563e-21)
(1.00803 0.000607407 -6.07322e-24)
(1.03628 -0.0425707 0)
(1.00636 -0.000889076 4.0618e-22)
(1.00454 -0.000185999 -8.39049e-22)
(0.98888 0.0319737 -3.82109e-22)
(1.00154 2.9936e-05 3.57783e-22)
(0.843092 -0.0347732 0)
(1.00455 0.0499635 0)
(1.02035 -0.00822456 -3.04584e-21)
(1.01493 -0.000514015 0)
(1.01053 -0.00369609 3.14877e-22)
(1.02355 -0.0193316 -1.22286e-21)
(0.361799 -0.0111846 -1.02649e-20)
(0.591592 -0.0706578 -2.66415e-20)
(1.04931 -0.0358125 8.55685e-21)
(0.175433 -0.0531718 -7.16494e-22)
(1.01318 -0.00518318 0)
(1.04728 -0.0359687 0)
(1.01019 -0.00343865 -1.44764e-22)
(1.00647 -0.00095729 0)
(1.01982 -0.0111972 3.37701e-21)
(1.01986 -0.00810313 9.53821e-22)
(0.403844 -0.0156836 0)
(1.02231 -0.0051728 0)
(1.07542 -0.0498851 1.12124e-21)
(1.02422 -0.005434 2.86879e-21)
(1.03189 -0.0299832 1.68957e-22)
(0.979277 0.031861 2.06011e-22)
(-0.0155798 -0.0313586 0)
(1.00459 -0.000294448 0)
(0.59011 -0.0643162 -5.9847e-21)
(1.01863 -0.0576852 0)
(1.0926 -0.0804294 0)
(1.03883 -0.03856 -6.56015e-21)
(1.04353 -0.0396106 0)
(0.320963 -0.0101853 1.08232e-20)
(1.05288 -0.0299061 2.53422e-21)
(1.00361 -0.0272017 -5.79453e-22)
(0.332369 0.117604 -2.50539e-21)
(0.89706 -0.133526 2.1036e-21)
(-0.0274546 0.0921844 -3.41551e-21)
(1.04529 -0.0458795 0)
(0.936798 0.0857575 0)
(1.01716 -0.0121464 0)
(1.0706 -0.0441866 2.1934e-20)
(1.06446 -0.0530751 0)
(0.164084 -0.0151801 -1.00026e-21)
(1.00476 -0.000150014 -9.708e-23)
(0.19987 0.00874194 -2.6238e-21)
(1.00861 -0.00242294 -5.44675e-22)
(1.00907 -0.0027938 -6.74165e-22)
(0.070738 -0.12463 -1.0926e-20)
(1.01602 0.00386705 -1.73112e-22)
(1.03827 -0.107881 -1.71746e-20)