/*--------------------------------*- C++ -*----------------------------------*\
| =========                 |                                                 |
| \\      /  F ield         | OpenFOAM: The Open Source CFD Toolbox           |
|  \\    /   O peration     | Version:  v2012                                 |
|   \\  /    A nd           | Website:  www.openfoam.com                      |
|    \\/     M anipulation  |                                                 |
\*---------------------------------------------------------------------------*/
FoamFile
{
    version     2.0;
    format      ascii;
    class       surfaceVectorField;
    location    "300";
    object      Uf;
}
// * * * * * * * * * * * * * * * * * * * * * * * * * * * * * * * * * * * * * //

dimensions      [0 1 -1 0 0 0 0];


internalField   nonuniform List<vector> 
20537
(
(1.01499 -0.0128463 0)
(1.01465 -0.0127939 -5.97781e-23)
(1.01499 -0.0132893 1.75077e-23)
(0.595205 -0.186956 6.18187e-21)
(0.643445 -0.181966 -9.11379e-22)
(0.618248 -0.17924 4.556e-22)
(1.03293 -0.0559597 0)
(1.03222 -0.0543641 -1.05381e-21)
(1.03076 -0.0554662 -5.59794e-21)
(1.01418 -0.0119728 5.12544e-23)
(1.01434 -0.0123666 -1.51716e-22)
(1.01392 -0.011971 5.4552e-23)
(1.05625 -0.0677731 -3.37604e-22)
(1.0543 -0.0678341 5.99594e-21)
(1.05527 -0.0661237 5.29085e-21)
(0.96735 -0.00971462 -4.19816e-21)
(0.971535 -0.0174316 1.52418e-21)
(0.975336 -0.0105123 2.19799e-21)
(1.03103 -0.00323198 -1.44114e-21)
(1.03165 -0.00350757 5.39313e-22)
(1.03153 -0.00297678 -4.04653e-21)
(1.0414 -0.0472916 1.03656e-21)
(1.04235 -0.0468636 9.75678e-21)
(1.04224 -0.048262 9.29591e-21)
(1.00753 -0.000659969 4.07175e-23)
(1.00771 -0.000666132 4.29835e-23)
(1.00754 -0.000610515 1.68589e-24)
(1.03631 -0.0370026 -3.69989e-22)
(1.0376 -0.0385528 0)
(1.03541 -0.0387823 0)
(0.974556 0.0756127 -1.57812e-21)
(0.957617 0.0941233 2.55625e-21)
(0.97028 0.0930588 9.66392e-23)
(0.441616 0.0967668 9.25198e-23)
(0.410863 0.102399 3.11316e-21)
(0.378775 0.115868 5.21323e-23)
(0.975258 -0.0980199 -1.16999e-20)
(1.01455 -0.0974056 -1.86649e-20)
(0.982421 -0.0947816 4.10155e-21)
(0.0351188 -0.121917 8.67705e-21)
(0.0611056 -0.121483 0)
(0.00399776 -0.140486 9.95946e-21)
(1.01932 -0.000729038 -4.12287e-21)
(1.01941 -0.000663248 2.36346e-22)
(1.01949 -0.000805472 -2.39142e-21)
(1.0326 -0.0380393 -2.01684e-21)
(1.03344 -0.0381791 2.43221e-21)
(1.03298 -0.0390043 6.89817e-22)
(1.04021 -0.0277391 6.17806e-21)
(1.03937 -0.0271887 1.62987e-21)
(1.0403 -0.0269345 1.94662e-21)
(1.01509 -0.0175451 -4.01887e-23)
(1.01536 -0.0183702 1.57608e-22)
(1.0145 -0.0180728 -3.64991e-23)
(1.0707 -0.106803 1.78627e-20)
(1.06757 -0.109062 -1.06878e-20)
(1.06899 -0.104402 -1.40107e-20)
(1.00735 -0.000658767 -3.2546e-23)
(1.00752 -0.000715057 -2.16457e-23)
(1.01394 -0.011486 6.99976e-23)
(1.01441 -0.011884 7.83331e-23)
(1.03524 -0.0568342 0)
(1.0336 -0.0583392 0)
(1.00279 4.16835e-05 6.50916e-23)
(1.00326 8.62923e-05 -1.56289e-22)
(1.00381 0.000132919 -2.38187e-23)
(1.00275 -8.11578e-05 1.05028e-23)
(1.00133 7.57135e-07 1.98158e-24)
(1.00291 -8.2477e-05 2.08383e-22)
(1.00237 3.08493e-05 2.11597e-22)
(1.00174 -2.53018e-05 1.21754e-22)
(1.04054 -0.0466398 -3.48553e-21)
(1.04039 -0.0478853 -3.19532e-21)
(1.05097 -0.022 -1.0229e-20)
(1.05057 -0.0211641 -6.12911e-21)
(1.04997 -0.021801 -1.15344e-20)
(-0.000409912 -0.0474073 -6.07903e-22)
(-0.00635475 -0.0463044 -2.29943e-20)
(1.01512 -0.0126041 -2.68605e-22)
(1.01538 -0.01308 0)
(1.0216 -0.0213347 3.97239e-22)
(1.02201 -0.0219863 9.61412e-22)
(1.02127 -0.0217266 4.03602e-22)
(0.963976 -0.000987921 1.01801e-21)
(0.958337 -0.00755389 -6.375e-21)
(1.04001 -0.0286465 -1.10489e-21)
(1.04106 -0.0284129 2.74794e-21)
(1.03334 -0.0531749 -1.62133e-21)
(1.03165 -0.0524391 -2.45528e-21)
(0.897254 -0.128618 2.73458e-22)
(0.905672 -0.139225 0)
(0.899367 -0.143024 0)
(1.00264 -4.91847e-05 1.97504e-22)
(1.00395 -0.000121639 -1.01526e-22)
(1.08813 -0.0640788 5.51401e-21)
(1.08836 -0.0641517 0)
(1.08718 -0.064478 8.63923e-21)
(1.09129 -0.0641681 -2.37535e-20)
(1.09732 -0.0641612 -1.42655e-20)
(1.09756 -0.0647129 -7.84628e-21)
(1.018 -0.0934608 -4.54858e-21)
(1.02051 -0.0981114 6.4983e-22)
(1.02346 -0.0910687 -5.92277e-21)
(1.03706 -0.0352904 8.86003e-22)
(1.03451 -0.0356228 -1.73406e-21)
(0.893498 -0.111758 -1.55487e-21)
(0.88548 -0.11535 -9.89071e-23)
(1.01408 -0.00758333 -6.49527e-22)
(1.01404 -0.00769586 7.76775e-22)
(1.01432 -0.0078538 1.18521e-23)
(1.00928 0.000852427 3.11798e-23)
(1.00917 0.000831404 3.05946e-23)
(1.00901 0.000797005 5.86254e-24)
(0.0252201 0.109751 1.48069e-20)
(0.0376025 0.099046 3.24497e-20)
(0.0266409 0.0950362 1.34498e-20)
(0.915197 0.128257 -8.00866e-22)
(0.915932 0.134292 -3.68493e-21)
(0.926455 0.126257 5.34245e-21)
(0.915233 0.112953 -1.59484e-21)
(0.907464 0.127495 4.62924e-21)
(0.168006 0.0108632 1.94995e-20)
(0.216434 0.00644888 1.55251e-20)
(0.240973 -0.0264123 1.99141e-20)
(0.904344 0.139528 -3.54692e-21)
(0.901973 0.140533 6.93937e-22)
(0.902323 0.137685 6.83579e-22)
(0.951153 -0.0269321 -2.83159e-21)
(0.916728 0.0235656 -5.94278e-21)
(0.919619 -0.0262413 8.14091e-21)
(1.05133 -0.0228622 4.93833e-21)
(1.05195 -0.0221744 -4.27511e-21)
(0.99077 0.0284154 3.25473e-22)
(0.998267 0.0254372 -4.91727e-21)
(0.99017 0.0211864 -7.75765e-23)
(1.07169 -0.0604491 8.88942e-21)
(1.07267 -0.0612234 7.95046e-21)
(1.07274 -0.059834 5.37594e-22)
(1.07541 -0.0747735 0)
(1.07565 -0.0735719 -7.22942e-21)
(1.07707 -0.0743406 0)
(-0.0318476 0.0460125 -2.41998e-21)
(-0.0252745 0.0534451 1.98137e-20)
(-0.0223157 0.0404545 -1.03144e-20)
(1.01896 -0.000658045 -2.40368e-21)
(1.01851 -0.000409183 0)
(1.01903 -0.000727317 -1.99552e-21)
(1.01019 -0.000795462 1.04149e-21)
(1.01014 -0.000764162 0)
(1.01112 -0.000927649 7.13821e-22)
(1.0094 0.000874704 6.03018e-23)
(1.00955 0.000912924 0)
(1.0039 5.66055e-05 -3.18233e-22)
(1.0044 7.39771e-05 -9.28684e-23)
(1.00347 5.98431e-05 -2.52658e-23)
(-0.0603398 0.0290213 1.21044e-20)
(-0.0675829 0.0322648 1.87766e-21)
(-0.0599139 0.0240039 -9.95643e-21)
(1.02193 -0.0207991 0)
(1.02116 -0.0206346 0)
(1.03204 -0.00630324 -4.89215e-22)
(1.03153 -0.00594575 2.29896e-22)
(1.03222 -0.00582934 4.72941e-21)
(1.01679 -0.0962662 7.46571e-22)
(1.0136 -0.0893879 -1.02453e-21)
(0.503377 -0.165768 -3.55475e-21)
(0.507209 -0.166886 -1.37392e-20)
(0.465126 -0.173839 -1.32519e-20)
(1.01746 0.00705163 9.75779e-22)
(1.02256 0.00836044 2.14984e-21)
(1.01994 0.00313047 8.43499e-22)
(1.05997 -0.0713291 -4.90195e-22)
(1.05807 -0.0714825 -7.11977e-21)
(1.05924 -0.0730837 3.97198e-23)
(0.962475 -0.08992 0)
(0.95916 -0.0801915 0)
(0.970895 -0.0822576 0)
(1.0143 -0.0145941 2.13438e-22)
(1.01392 -0.0139853 2.37778e-22)
(1.01366 -0.0145745 -2.60566e-22)
(1.07563 -0.0651674 0)
(1.07857 -0.064676 6.50879e-21)
(0.916636 0.121822 1.24277e-21)
(0.90885 0.134008 -7.52444e-22)
(1.06199 -0.039532 7.04431e-22)
(1.06086 -0.0397966 8.47477e-21)
(1.06105 -0.0385767 -1.57806e-20)
(1.01566 -0.0170701 -3.49038e-23)
(1.01515 -0.0165096 6.6497e-24)
(0.331705 -0.00997046 1.29006e-21)
(0.321334 -0.00919342 -2.04159e-20)
(0.298029 -0.00560624 -3.36783e-20)
(1.00782 -0.0654545 -6.04404e-21)
(1.00602 -0.066449 -6.13687e-21)
(1.04382 -0.0661176 -1.55479e-20)
(0.567767 -0.181351 1.23664e-20)
(0.57299 -0.18593 1.12879e-20)
(1.01917 -0.00066164 -3.97548e-21)
(1.01884 -0.000643923 7.61549e-22)
(1.01088 -0.00119446 9.91429e-22)
(1.01112 -0.00134585 0)
(1.01091 -0.00141037 0)
(1.00938 -0.000894898 0)
(1.00941 -0.000848355 0)
(1.00919 -0.000848143 -5.33621e-23)
(1.03658 -0.0574131 0)
(1.03621 -0.055906 1.65462e-21)
(0.433078 -0.012083 9.44659e-21)
(0.453858 -0.0149342 -1.70044e-20)
(0.435645 -0.0108035 -1.33214e-21)
(1.05516 -0.0505374 8.54348e-21)
(1.05585 -0.051794 -2.38852e-21)
(1.05438 -0.0517438 8.26044e-21)
(0.311059 -0.011243 0)
(0.284188 -0.00962054 1.26315e-20)
(1.03506 -0.0105925 6.51563e-21)
(1.03425 -0.0105009 4.63222e-21)
(1.0345 -0.00992083 -9.46079e-22)
(0.902173 -0.0998585 1.00231e-21)
(0.902843 -0.1019 -4.1107e-22)
(0.902625 -0.109473 3.32685e-22)
(1.02095 -0.00527237 -1.38522e-21)
(1.02112 -0.00557834 -1.42095e-21)
(1.02066 -0.00540241 -3.93706e-21)
(0.167204 0.0483368 -2.04641e-20)
(0.191912 0.0399197 -1.24026e-20)
(0.141644 0.0629376 0)
(1.01318 0.00556803 9.86976e-22)
(1.01397 0.0109685 -3.21123e-22)
(0.471901 0.0862784 -1.17188e-21)
(0.514931 0.0760105 -9.95186e-22)
(0.988545 0.00128821 0)
(0.984144 -0.001235 -1.90512e-21)
(0.989525 -0.00350667 0)
(0.856529 -0.107561 -8.65481e-21)
(0.921566 -0.117941 -1.2666e-20)
(0.901809 -0.107755 -1.24449e-20)
(1.04716 -0.0270358 -2.7729e-21)
(1.04629 -0.027424 0)
(1.04735 -0.0281603 0)
(1.01268 0.00143993 8.27994e-23)
(1.01222 0.0013417 2.63313e-22)
(1.01261 0.00133286 0)
(1.08727 -0.0638422 7.2659e-22)
(1.08801 -0.0642015 -1.10755e-20)
(1.02554 -0.0112023 -8.20741e-22)
(1.02937 -0.0111957 -2.71972e-22)
(1.02658 -0.0142027 -1.48033e-21)
(0.913046 0.10801 4.13252e-21)
(1.05048 -0.0317264 -4.89394e-21)
(1.05006 -0.0323978 -9.03712e-22)
(1.05108 -0.0325707 7.06073e-21)
(1.04724 -0.0262543 1.17569e-21)
(1.04823 -0.0267616 2.71704e-21)
(1.00198 4.8319e-05 5.46074e-23)
(1.00203 5.82954e-05 -1.89395e-22)
(1.00298 -1.13996e-05 3.09778e-23)
(1.05702 -0.0698587 -7.48892e-21)
(1.0582 -0.0680555 9.22766e-21)
(0.668953 -0.0766236 0)
(0.64662 -0.0742716 0)
(0.648651 -0.0697719 0)
(0.979297 0.0310805 0)
(0.990661 0.035523 0)
(1.00083 5.83085e-05 3.61077e-23)
(1.00192 2.08527e-05 -2.6383e-22)
(-0.0887439 -0.0397602 2.6852e-21)
(-0.0590299 -0.0349433 -1.74656e-20)
(-0.0782312 -0.0530334 -1.02561e-20)
(1.06246 -0.0531142 -4.51091e-21)
(1.06377 -0.0528479 -3.50969e-21)
(1.06272 -0.0518148 -1.6412e-20)
(1.01712 -0.0128413 0)
(1.01734 -0.0131906 -6.94948e-22)
(1.01705 -0.0129723 2.12727e-24)
(1.05766 -0.0144676 1.84113e-21)
(1.05863 -0.0149108 0)
(1.00371 7.02847e-05 2.56056e-23)
(1.00469 0.00010249 5.33931e-24)
(1.00392 6.52425e-05 -3.032e-23)
(0.991004 0.0129554 -1.21245e-21)
(0.994374 0.019452 -6.14577e-22)
(0.99643 0.0130879 -1.16092e-21)
(1.06685 -0.0545534 -3.82201e-22)
(1.06569 -0.0548418 -6.39771e-21)
(1.06666 -0.0559338 -1.41611e-22)
(1.00871 0.000696963 -1.77572e-23)
(1.00861 0.000683754 0)
(1.0085 0.000641324 -6.30324e-23)
(0.926515 -0.0646328 0)
(0.879374 -0.064131 0)
(0.969186 -0.0244632 0)
(0.976967 -0.0229231 -3.39475e-24)
(1.00185 -1.29898e-05 -1.14219e-23)
(1.00068 1.09055e-05 1.12459e-23)
(1.00178 -1.00445e-05 -2.29921e-22)
(1.01321 0.00157917 7.49027e-23)
(1.01275 0.00159214 2.89921e-24)
(1.02264 -0.011398 -1.88204e-21)
(1.02453 -0.00913317 -5.63122e-22)
(1.0001 3.90874e-05 1.06021e-22)
(1.00012 -7.89081e-06 -3.90077e-24)
(1.00284 -3.83626e-05 -2.20838e-24)
(1.00174 -6.43417e-06 -1.74525e-22)
(0.80641 -0.198624 -1.74408e-22)
(0.825665 -0.198981 2.33691e-21)
(0.695197 -0.0784861 0)
(0.69362 -0.0837149 -1.55743e-20)
(1.00783 0.000448611 1.0596e-22)
(1.00784 0.000476872 -3.8501e-23)
(1.0079 0.000486414 9.1706e-23)
(1.00455 -0.000305251 0)
(1.00438 -0.000297229 -3.20791e-22)
(1.00249 -0.000148107 -5.33555e-22)
(1.00957 -0.000674558 -1.83204e-21)
(1.00824 -0.000588229 1.17513e-21)
(1.00782 -0.00047555 -9.90226e-22)
(0.0190281 0.118503 -1.67801e-20)
(0.0138782 0.122717 1.66399e-22)
(1.05692 -0.0154549 -7.98498e-21)
(1.0564 -0.0142234 6.96579e-22)
(0.970307 -0.101688 5.96e-22)
(0.933282 -0.0987337 -5.74973e-21)
(0.881869 -0.173891 -3.06978e-21)
(0.982496 -0.0683137 -5.1316e-21)
(0.980718 -0.0271625 5.39758e-21)
(1.01781 0.00336329 0)
(1.01746 0.0026304 4.55248e-23)
(1.01854 0.00290601 -9.73586e-23)
(1.00558 -0.105763 5.79916e-21)
(0.979736 -0.112452 2.08525e-21)
(1.05845 -0.0517792 -1.57474e-21)
(1.05957 -0.051916 -1.31063e-21)
(1.05878 -0.0530777 6.39645e-22)
(1.01385 -0.0110544 6.49251e-23)
(1.01357 -0.0110417 -3.31611e-22)
(1.04998 -0.086346 -4.64545e-21)
(1.05151 -0.0844333 -5.63411e-21)
(1.05261 -0.0877558 -8.71923e-21)
(1.01385 -0.00730338 5.23122e-23)
(1.01412 -0.00745064 -6.97243e-22)
(1.00675 -0.00115099 -9.25928e-23)
(1.00689 -0.00124465 -3.95954e-22)
(1.00681 -0.00118391 4.0044e-23)
(0.341075 -0.0121706 1.82221e-20)
(0.352929 -0.0155679 6.06738e-21)
(1.02118 -0.00507982 -4.03116e-23)
(1.0207 -0.00491669 -3.24302e-21)
(0.809171 -0.199038 -2.57537e-22)
(1.00673 -0.000579677 8.70254e-23)
(1.00661 -0.000544194 0)
(1.00627 -0.000465074 -4.05125e-22)
(1.00781 0.000411374 8.2534e-23)
(1.00776 0.000401084 8.1063e-23)
(1.01357 -0.064864 2.68071e-21)
(1.01924 -0.0649357 3.24161e-21)
(1.05043 -0.0657353 2.90872e-22)
(0.0794379 -0.179154 9.12055e-21)
(0.0452565 -0.178692 3.19147e-21)
(0.0559059 -0.167751 -5.2062e-22)
(0.311666 0.0367955 1.95534e-21)
(0.385989 0.059255 -1.87273e-20)
(0.325383 0.0499158 -7.35789e-21)
(-0.0961325 -0.0307935 -5.44145e-21)
(-0.106249 -0.0461458 0)
(1.0105 -0.000952049 9.78138e-22)
(1.00876 -0.000484254 1.09284e-21)
(1.01444 -0.000995812 1.03191e-22)
(1.01489 -0.000672262 3.23542e-22)
(1.01516 -0.00113202 1.42177e-22)
(1.01159 0.00125508 -6.49124e-24)
(1.01142 0.00121817 -9.54843e-23)
(1.01174 0.00125274 -2.257e-23)
(1.0324 -0.0219629 1.32793e-21)
(1.03292 -0.0227191 1.33312e-21)
(1.03305 -0.021806 9.54294e-22)
(0.907557 0.13801 9.08839e-22)
(0.913077 0.132521 4.28711e-22)
(1.01607 -0.00661737 3.93507e-21)
(1.01399 -0.00458984 3.30212e-23)
(1.01635 -0.00460143 2.99963e-23)
(1.04819 -0.0890708 5.56598e-21)
(1.04649 -0.0852132 6.62223e-21)
(1.03035 -0.00288708 -1.34993e-21)
(1.03041 -0.00340196 5.21807e-21)
(0.926464 0.093902 -1.60603e-22)
(0.913716 0.0908422 3.35234e-21)
(1.08589 -0.0547753 3.51012e-20)
(1.08557 -0.0557021 1.18301e-20)
(1.00848 -0.000698226 9.40775e-22)
(1.00878 -0.00069551 -1.32181e-21)
(1.00971 -0.000787896 -1.32873e-21)
(0.00020197 -0.120189 1.1139e-21)
(0.0709283 -0.109427 5.58424e-21)
(1.00346 4.97376e-05 -2.75205e-22)
(1.00431 4.65987e-05 8.29232e-23)
(1.04032 -0.0188342 -5.23913e-21)
(1.04108 -0.0190193 -4.72199e-21)
(1.0406 -0.0181479 -5.18087e-21)
(1.03171 -0.022245 1.21715e-21)
(1.03174 -0.0213194 -2.41368e-21)
(1.00975 -0.0034404 5.1194e-22)
(1.00959 -0.00329083 5.26007e-22)
(1.00971 -0.00335355 1.4269e-22)
(1.02348 -0.020186 -1.20031e-21)
(1.02364 -0.0196883 -4.56706e-22)
(1.02407 -0.0202797 -1.04253e-21)
(1.07639 -0.0766119 1.06069e-20)
(1.07405 -0.0755889 0)
(1.07068 -0.0595385 8.41312e-21)
(1.07054 -0.0609793 0)
(1.01229 0.00131813 2.71479e-25)
(1.01195 0.00127514 -7.6133e-24)
(1.01219 0.0013021 3.72593e-24)
(1.05787 -0.0294686 -3.00528e-22)
(1.05759 -0.0302203 3.98307e-21)
(1.05862 -0.0301821 3.12359e-21)
(-0.0527874 0.0245166 -4.44603e-21)
(-0.0583022 0.0342583 7.41041e-21)
(1.00662 -0.00106539 1.2408e-22)
(1.00671 -0.00111712 1.08862e-22)
(1.021 -0.0297737 0)
(1.02236 -0.0300632 1.77842e-21)
(1.02169 -0.0287347 4.1902e-22)
(1.01034 0.00108735 1.25722e-22)
(1.01048 0.00111447 -5.92076e-23)
(1.01018 0.00105713 -1.02147e-22)
(1.01827 -0.00891493 3.83198e-22)
(1.01441 -0.009613 -4.74851e-23)
(1.06292 -0.0404844 -2.73091e-23)
(1.06307 -0.0391916 -6.86916e-21)
(1.01406 -0.0109774 -1.19629e-22)
(1.01368 -0.010648 1.50194e-23)
(0.569711 -0.0852505 -9.05717e-21)
(0.541983 -0.0770296 1.59785e-20)
(0.567579 -0.0726917 1.86142e-21)
(0.40605 -0.00789309 2.1659e-20)
(0.429237 -0.0122417 1.20181e-20)
(1.00562 -2.73459e-05 1.73405e-23)
(1.00568 -4.47268e-05 -2.28294e-24)
(1.00574 -1.83504e-05 -1.25968e-22)
(1.00992 -0.00360148 3.58794e-22)
(1.0098 -0.00352741 2.02712e-22)
(0.252254 0.0119404 7.3948e-21)
(0.307087 0.0245428 1.32736e-20)
(1.00648 -0.00098087 1.22567e-22)
(1.00652 -0.0010057 -2.722e-23)
(0.885907 0.0693121 -3.60853e-21)
(0.912362 0.0626732 -2.90694e-21)
(1.05692 -0.0518366 -1.02167e-20)
(1.05769 -0.0505614 2.2066e-22)
(1.01332 -1.29406e-05 -2.17483e-22)
(1.01299 9.92084e-06 9.0962e-22)
(1.01348 0.000378059 1.77311e-22)
(1.05296 -0.107168 1.1678e-20)
(1.07751 -0.104317 1.04209e-20)
(1.00916 0.000803198 -3.80777e-23)
(1.00926 0.000818745 -4.64209e-23)
(1.00943 0.000859234 6.5006e-24)
(1.0406 -0.0300469 -5.23336e-22)
(1.03987 -0.0294626 -1.94054e-21)
(1.03974 -0.0302939 7.35896e-23)
(0.970879 -0.0648839 -7.07328e-22)
(1.02112 -0.00452548 0)
(1.0209 -0.0042303 0)
(1.0207 -0.00441965 3.65293e-21)
(1.03224 -0.0592939 -3.28425e-21)
(1.0344 -0.0600489 0)
(1.00806 0.000324768 -4.46365e-24)
(1.00769 0.000274228 -3.15297e-23)
(1.00797 0.000299706 -1.51401e-25)
(1.0025 1.67759e-05 -1.91181e-22)
(1.00284 4.69102e-05 -1.03831e-22)
(1.00348 9.95276e-05 -1.13927e-22)
(1.0148 -0.0151487 1.24389e-22)
(1.01484 -0.0145661 -4.91334e-23)
(1.01059 -0.00099042 -6.3212e-22)
(1.01057 -0.000943775 -1.21993e-21)
(1.05223 -0.0713812 -1.10277e-20)
(1.05006 -0.0711868 -3.82547e-21)
(1.05095 -0.0734784 2.93382e-21)
(1.04083 -0.0579421 1.67625e-22)
(1.0443 -0.0587568 -1.14289e-21)
(1.04241 -0.0552907 0)
(0.902829 0.133549 -5.51228e-22)
(-0.0365464 0.0384166 1.02665e-20)
(-0.0411706 0.0499762 9.25874e-21)
(1.01369 0.00167195 0)
(1.01375 0.00193028 -3.62467e-22)
(1.01425 0.00184785 0)
(1.05663 -0.0409596 1.83887e-21)
(1.05762 -0.0406169 -6.06052e-21)
(1.05675 -0.03982 1.39402e-22)
(0.498624 -0.163876 1.0369e-20)
(0.542987 -0.159062 2.21837e-20)
(1.03864 -0.0183139 0)
(1.03942 -0.0186339 0)
(1.03896 -0.0178176 0)
(1.01402 -0.00118741 -1.45397e-22)
(1.01379 -0.000950828 1.37932e-23)
(0.862816 -0.0148385 7.06301e-21)
(0.861043 0.0123788 -3.04984e-21)
(0.863589 -0.0247341 -1.00389e-21)
(1.01372 -7.41255e-05 -5.22241e-22)
(1.01315 -0.00036049 -3.47061e-22)
(1.00936 -0.000943744 6.54336e-23)
(1.00958 -0.00094198 0)
(1.01809 0.00415808 3.24403e-23)
(1.01692 0.00354058 -8.88424e-23)
(0.353131 -0.145997 8.66784e-22)
(0.412312 -0.166998 1.3874e-20)
(0.414092 -0.1382 2.41141e-20)
(1.00157 -0.000117732 6.14864e-22)
(1.00346 -0.000175285 4.85416e-22)
(1.00119 -0.000134827 0)
(1.01718 -0.00618412 -1.77341e-23)
(1.01684 -0.00590107 -1.44072e-22)
(1.01691 -0.00623593 -3.42192e-21)
(1.0401 -0.0478593 0)
(1.03862 -0.0484155 0)
(1.03859 -0.04702 0)
(1.02158 -0.00460935 4.34638e-21)
(1.02137 -0.00483659 -8.32374e-22)
(0.309369 -0.0914217 6.92912e-21)
(0.250218 -0.0964803 -6.48777e-21)
(0.272045 -0.0838276 -5.10445e-21)
(1.04232 -0.0278597 -4.87082e-21)
(1.04196 -0.0269682 4.67292e-21)
(1.04309 -0.0272543 -1.52002e-21)
(0.471604 -0.0252015 0)
(0.451703 -0.0218984 9.48971e-21)
(0.469894 -0.0254516 -6.9063e-21)
(1.01039 0.00101082 0)
(1.01068 0.00106013 6.20273e-24)
(1.01056 0.00105224 1.54625e-23)
(0.730915 -0.054376 1.10709e-20)
(0.692932 -0.0522378 -8.87323e-21)
(0.703911 -0.0522678 9.60488e-21)
(1.01719 -0.0126396 -3.80345e-22)
(1.0169 -0.0124377 -7.62789e-22)
(0.889966 -0.0199385 1.55479e-21)
(0.880036 0.0123866 -4.99188e-21)
(0.896127 0.0305138 3.48406e-21)
(1.00911 0.000757477 2.88031e-24)
(1.00899 0.00074031 -1.46054e-23)
(1.00887 0.000699484 -2.97556e-25)
(1.01124 0.00123609 0)
(1.01141 0.00127875 -5.91771e-23)
(1.01107 0.00121798 0)
(1.01788 0.00430779 -6.08446e-22)
(1.00971 0.0205957 -6.69168e-21)
(1.01954 0.0249081 -5.03389e-21)
(1.00432 0.00464725 -6.16544e-21)
(1.0095 0.00297397 1.20694e-21)
(1.0063 -0.000734757 1.99325e-21)
(0.108618 0.0389107 6.68625e-22)
(0.123597 0.00613012 0)
(1.01961 -0.00172111 3.90839e-23)
(1.01948 -0.00151484 -9.05366e-22)
(1.01934 -0.00164347 -8.65527e-22)
(0.475065 -0.0253057 0)
(0.493408 -0.0284665 0)
(1.04178 -0.0283017 -9.30873e-21)
(1.04264 -0.0284793 -4.1865e-21)
(1.03558 -0.0111173 -1.14142e-21)
(1.03581 -0.0105243 2.2339e-21)
(0.762544 -0.0636284 1.1011e-20)
(0.736069 -0.0619022 1.69481e-21)
(0.73347 -0.0606319 -1.26075e-20)
(1.06642 -0.0790213 -2.81874e-21)
(1.06554 -0.0808965 3.12737e-21)
(1.06799 -0.0807834 4.32196e-21)
(0.633815 -0.0473078 9.57336e-21)
(0.60498 -0.0447776 1.13579e-21)
(0.604784 -0.0456689 2.07566e-21)
(1.00236 3.89087e-05 7.2053e-24)
(1.0024 2.97141e-05 9.28504e-23)
(1.00136 3.57038e-05 -1.61917e-22)
(1.05123 -0.0350563 -1.31851e-22)
(1.052 -0.0359643 3.48067e-21)
(1.05082 -0.0360481 -6.26275e-21)
(1.0035 6.04778e-05 -2.91127e-23)
(1.00259 1.38264e-05 5.27397e-23)
(-0.0638655 0.0766585 6.03072e-21)
(-0.0587529 0.083992 -6.75706e-21)
(-0.0564543 0.0776293 -2.5333e-21)
(1.00925 0.000774593 2.52584e-24)
(1.00937 0.000816973 -2.91166e-23)
(1.03975 -0.0461057 3.65373e-21)
(1.04044 -0.0456724 0)
(0.934243 -0.00852661 -1.86704e-21)
(0.936595 -0.0199934 -4.36243e-22)
(0.923182 -0.0159365 4.88547e-21)
(1.00551 -2.76906e-05 -8.68102e-23)
(1.00555 -6.90486e-06 2.11383e-22)
(1.01357 0.00148355 1.10139e-22)
(1.07414 -0.0566781 2.16603e-20)
(1.07307 -0.0573191 2.36777e-21)
(1.07302 -0.0560186 -3.14215e-22)
(0.999627 -0.0262543 -2.2075e-22)
(1.00246 -0.0264822 -9.83009e-22)
(1.00136 -0.023748 2.30309e-22)
(0.365054 -0.0866451 -1.94841e-21)
(0.343341 -0.0992373 1.07565e-20)
(0.9574 -0.0970142 0)
(0.968587 -0.0976527 -1.39242e-21)
(1.01142 0.00125196 2.65332e-23)
(1.01175 0.0013008 -2.79013e-23)
(1.01739 -0.00615192 -2.2569e-21)
(1.01745 -0.00644909 0)
(0.971031 0.00556809 9.83304e-22)
(0.962132 0.00884967 -5.69916e-21)
(0.975978 0.0904734 -2.10572e-22)
(0.966187 0.0882407 -2.11957e-22)
(0.986816 0.0788772 -2.29471e-22)
(1.01483 0.00145018 1.34213e-24)
(1.0145 0.00148166 2.43456e-23)
(1.01484 0.00141861 3.14477e-23)
(1.04135 -0.0467694 0)
(1.04161 -0.0487002 -7.9106e-22)
(1.00557 0.000138923 0)
(1.00537 0.00012972 3.01478e-23)
(0.57211 -0.0407864 -7.8739e-21)
(0.548187 -0.0379163 0)
(0.567457 -0.0402903 -1.30123e-20)
(1.06129 -0.0534854 1.29294e-20)
(1.0623 -0.0545793 5.49562e-21)
(0.884193 -0.0951047 -5.31051e-22)
(0.886557 -0.119253 2.22594e-21)
(0.895242 -0.115957 5.02816e-21)
(1.03114 -0.0224338 -2.99564e-21)
(1.03045 -0.0225672 -4.16307e-21)
(1.03055 -0.0217309 -2.05969e-21)
(1.03382 -0.0299068 -8.84025e-22)
(1.03384 -0.0289059 3.72224e-21)
(1.033 -0.029375 8.35716e-21)
(1.00506 -0.00380643 7.31112e-22)
(1.00494 -0.00587099 -1.12336e-22)
(1.0063 -0.0046838 -5.28124e-22)
(0.985649 0.0868227 0)
(0.962159 0.104922 2.00951e-22)
(1.02894 -0.0138862 -2.34406e-21)
(1.02922 -0.0143835 -5.5106e-21)
(1.02856 -0.0141476 -2.84086e-21)
(1.03173 -0.0230532 2.61003e-21)
(1.07225 -0.0503076 1.47207e-20)
(1.07326 -0.0510163 -1.22582e-20)
(1.07178 -0.0514182 2.82264e-21)
(1.08783 -0.0349834 -1.03278e-21)
(1.07266 -0.0147667 -1.40269e-21)
(1.08665 -0.0198042 1.23755e-21)
(1.03866 -0.0609057 2.85894e-22)
(1.03763 -0.0571603 1.50414e-21)
(0.982085 -0.0643908 8.02194e-21)
(1.02167 -0.0645257 6.83298e-21)
(0.416849 -0.00463623 9.32616e-22)
(0.338646 0.00106811 -2.40281e-20)
(0.304189 0.00260303 1.30057e-20)
(1.02276 -0.0018446 3.97984e-21)
(1.02239 -0.00163057 -1.9185e-21)
(1.02238 -0.00189437 -2.10348e-21)
(1.01107 0.00120343 0)
(1.01615 -0.016778 1.1446e-22)
(1.01629 -0.0160218 9.90694e-24)
(1.01663 -0.0164083 9.27982e-24)
(0.84048 -0.0710846 -5.98001e-22)
(0.866535 -0.0590008 -5.78326e-22)
(0.851544 -0.0820436 9.1617e-21)
(1.0131 0.00162111 -1.43145e-22)
(1.01287 0.00150916 -1.44559e-22)
(1.01333 0.00157131 -4.22038e-23)
(1.01865 -0.116575 -1.83609e-20)
(1.02149 -0.11786 -7.74136e-21)
(0.980967 -0.119473 -5.98623e-21)
(1.03844 -0.0189914 -2.65448e-21)
(1.03794 -0.0181636 2.04272e-23)
(1.02929 -0.0136167 1.42871e-23)
(1.02863 -0.0133703 -1.42187e-22)
(1.05102 -0.0311028 -4.72732e-21)
(1.05 -0.0310942 -1.95472e-21)
(0.792958 -0.0678491 1.17993e-20)
(0.789479 -0.0657514 -9.68448e-21)
(1.03601 -0.0080846 1.04577e-24)
(1.03268 -0.00557529 1.07664e-24)
(1.03684 -0.00261154 -8.35715e-22)
(1.00411 -0.00228685 -1.71997e-21)
(1.00593 -0.00192963 3.25719e-22)
(1.03994 -0.019527 0)
(0.923417 -0.031038 0)
(0.937996 -0.0304316 4.05331e-22)
(0.925852 -0.0445355 -2.14203e-21)
(1.05446 -0.0494342 0)
(1.05579 -0.0493784 9.22644e-21)
(1.03166 -0.0381536 -2.00451e-22)
(1.03197 -0.0372468 -9.00256e-21)
(1.00702 -0.00133732 1.09215e-22)
(1.00697 -0.00129043 -1.47428e-22)
(0.902237 -0.0840576 7.0154e-23)
(0.904238 -0.0980891 5.65333e-22)
(1.031 -0.0206627 8.10414e-23)
(1.03506 -0.0208907 -4.30227e-22)
(1.0348 -0.0153225 1.20263e-23)
(0.644665 -0.0524239 1.69896e-20)
(0.613968 -0.0491128 -3.16527e-21)
(0.61237 -0.0507833 3.6776e-22)
(0.989576 0.0572537 6.03474e-22)
(0.977466 0.0525341 -1.15569e-21)
(1.0151 0.00144909 7.99679e-24)
(1.01481 0.00150947 6.56244e-24)
(1.01008 0.000915429 1.45844e-23)
(1.01024 0.000970543 0)
(1.01036 0.000971075 0)
(1.00407 5.08383e-05 -9.96504e-24)
(1.0043 7.27956e-05 0)
(1.00505 0.000137846 -2.05795e-23)
(1.07272 -0.0493922 -4.70879e-21)
(1.07147 -0.0496891 7.67429e-21)
(0.813864 -0.0882329 2.83419e-22)
(0.822092 -0.0608614 -8.78318e-23)
(0.863085 0.107526 3.47062e-21)
(0.859127 0.136622 3.54741e-21)
(0.846408 0.139019 -3.03797e-21)
(1.00836 -0.000860076 -6.49206e-23)
(1.00855 -0.000848889 5.70852e-23)
(1.00857 -0.000916759 -1.80155e-23)
(1.02041 -0.00038262 -1.86923e-21)
(1.02041 -0.000531628 -4.44625e-21)
(1.02062 -0.000441974 -7.17563e-22)
(0.901653 -0.0328199 -2.21041e-22)
(0.921477 -0.0170512 0)
(0.903755 -0.0784985 -5.47302e-22)
(0.901558 -0.0554102 1.14768e-20)
(0.905971 -0.0494779 8.92678e-21)
(1.04667 -0.0915182 0)
(1.05025 -0.0922915 0)
(1.02211 -0.0203662 4.58448e-22)
(1.0225 -0.0209532 -1.36444e-21)
(1.03256 -0.00662956 -5.18466e-21)
(1.03187 -0.0066712 -2.37462e-21)
(1.06038 -0.0421585 8.04567e-21)
(1.05928 -0.0424033 1.53585e-20)
(1.06017 -0.0434478 7.14964e-21)
(0.903705 -0.0941437 -5.04085e-23)
(0.910615 -0.0857466 7.03881e-21)
(1.04697 -0.114529 -6.40839e-21)
(1.01206 -0.114536 7.77075e-21)
(1.02401 -0.0298649 -8.68856e-22)
(1.02406 -0.0292601 2.89257e-22)
(1.02482 -0.029784 1.66473e-21)
(0.46318 0.0889769 3.0004e-22)
(0.528584 0.0759324 -3.33998e-23)
(1.00722 -0.00146722 2.09636e-23)
(1.00727 -0.00151442 -9.80654e-23)
(1.00714 -0.00141499 4.6955e-22)
(0.577893 -0.0409927 9.6141e-21)
(0.598829 -0.0433022 -1.58488e-21)
(1.05727 -0.0288888 -3.41151e-21)
(1.05828 -0.0287481 -3.71614e-21)
(1.03864 -0.0266898 6.0898e-21)
(1.03856 -0.0274484 -4.37325e-21)
(0.657681 -0.0534246 7.03138e-21)
(0.621302 -0.0516937 1.15491e-20)
(0.63184 -0.0512508 3.45145e-21)
(1.01878 -0.0115299 -3.07541e-21)
(1.01855 -0.0115709 -1.70637e-21)
(1.01892 -0.0118508 4.29989e-22)
(0.989441 0.00717458 0)
(0.984644 0.0122286 -7.51402e-22)
(0.643717 -0.0459441 9.76963e-21)
(0.643891 -0.0448401 -7.72357e-21)
(0.670523 -0.0483242 1.04894e-20)
(1.00818 -0.00080854 -8.08275e-23)
(1.00818 -0.000881667 7.01119e-24)
(1.06831 -0.045734 6.83339e-21)
(1.06936 -0.0465189 4.89126e-21)
(1.068 -0.047034 -1.27076e-21)
(1.04892 -0.0325228 6.03813e-21)
(1.04974 -0.0334356 1.92674e-22)
(1.02232 -0.0198886 4.73275e-22)
(1.02174 -0.0197243 -4.63945e-23)
(0.11825 -0.174854 4.33524e-21)
(0.114346 -0.185003 5.10889e-21)
(1.02326 -0.0301406 -8.22343e-22)
(1.02415 -0.0307198 -1.92815e-21)
(1.02696 -0.0137765 1.628e-21)
(1.02738 -0.0137271 1.93031e-21)
(1.0274 -0.0142619 -6.94104e-22)
(0.730768 -0.0684408 -7.89093e-21)
(0.722083 -0.0641474 6.8137e-21)
(0.700463 -0.0626569 -1.17553e-20)
(1.00945 0.000903393 5.34751e-23)
(1.00957 0.000932132 -5.69916e-26)
(1.0093 0.000876135 1.5566e-22)
(1.034 -0.0306258 -6.2158e-21)
(1.03462 -0.0301344 -5.07297e-22)
(1.01832 0.00512266 -4.54595e-23)
(1.01795 0.00615434 -9.22981e-22)
(1.01706 0.00499138 -1.80634e-22)
(0.680976 -0.0556745 7.91157e-21)
(0.682357 -0.0552179 1.24002e-20)
(1.08554 -0.0621895 1.81194e-21)
(1.08586 -0.0625239 8.44339e-21)
(1.086 -0.0619552 -1.49402e-20)
(1.01987 -0.00178382 8.75095e-22)
(1.01973 -0.00192661 8.87523e-22)
(1.06755 -0.0522421 -5.80685e-21)
(1.06711 -0.0534404 -6.37958e-21)
(1.06628 -0.0522406 -6.95898e-21)
(1.02023 -0.0012068 -7.97147e-22)
(1.02023 -0.00135974 -4.0426e-21)
(1.02049 -0.00127451 2.49535e-21)
(0.45186 -0.00968639 -3.97653e-20)
(0.459307 -0.00901951 4.84714e-21)
(1.00395 -0.00727739 -6.82827e-23)
(1.00163 -0.0073149 3.67139e-22)
(1.00297 -0.00995227 -1.61261e-21)
(1.00288 3.42011e-05 2.74785e-23)
(1.00324 5.92966e-05 -1.26041e-22)
(1.00388 0.000115284 -9.47399e-23)
(1.01075 -0.00394965 1.71204e-22)
(1.0109 -0.00407813 2.44407e-22)
(1.01073 -0.00399836 4.15693e-23)
(1.08496 -0.0623871 -1.3428e-21)
(1.08503 -0.0617343 1.81513e-20)
(1.05056 -0.0341787 -3.48104e-21)
(1.05163 -0.0341794 -6.59365e-22)
(1.04183 -0.0174605 0)
(1.04182 -0.018148 8.33294e-21)
(1.04115 -0.0176554 2.86604e-24)
(1.02025 -0.000339155 1.80499e-21)
(1.01901 -0.0114964 -1.68566e-21)
(1.01864 -0.0112455 1.21781e-21)
(1.02647 -0.0139389 -2.0048e-21)
(1.02642 -0.0133581 -3.68558e-21)
(0.941087 0.0941988 -1.39325e-21)
(0.940888 0.112466 6.91764e-22)
(0.132835 -0.057176 4.40427e-21)
(0.116459 -0.0453331 -4.64348e-21)
(0.566945 -0.115293 1.40793e-20)
(0.584291 -0.117549 -2.00358e-20)
(0.562265 -0.129662 0)
(1.0173 -0.0128857 -7.42201e-22)
(1.01667 -0.0122718 -4.03494e-22)
(1.01771 -0.0117471 -4.86477e-22)
(0.697916 -0.0552429 -5.66941e-21)
(0.688297 -0.0553227 -1.24053e-20)
(0.782231 -0.124355 6.16093e-22)
(0.743795 -0.12923 1.84546e-21)
(0.732703 -0.125041 9.92035e-22)
(1.01926 -0.000824148 -3.20443e-21)
(1.05639 -0.042065 -1.5793e-20)
(1.05562 -0.0412105 0)
(1.04342 -0.0908375 0)
(1.04362 -0.0944407 4.40798e-21)
(1.03236 -0.00807071 6.90185e-22)
(1.03391 -0.00482358 6.19958e-22)
(1.02989 -0.00526809 1.20325e-22)
(0.986527 -0.023108 1.60151e-21)
(0.989782 -0.02006 -1.65686e-21)
(0.989871 -0.0248291 1.79697e-21)
(1.07665 -0.0705973 8.95539e-21)
(1.07544 -0.0702656 1.02859e-21)
(1.07633 -0.0695074 1.00382e-21)
(1.06715 -0.110372 -4.71908e-21)
(1.01466 -0.00877439 2.17248e-22)
(1.01362 -0.00820331 2.72335e-22)
(1.01428 -0.00779177 -2.51447e-23)
(0.780922 -0.110533 3.00612e-22)
(0.783529 -0.109403 5.51971e-22)
(0.78857 -0.131018 -1.92149e-22)
(0.640901 -0.045436 1.24311e-20)
(0.613022 -0.0426158 5.52442e-21)
(0.618634 -0.043071 1.09625e-20)
(1.01921 -0.000529766 2.67974e-21)
(1.01951 -0.000599761 2.64722e-21)
(0.994752 0.020003 -6.40322e-23)
(0.999087 0.015203 -1.06891e-21)
(0.991971 0.0148697 2.2405e-22)
(0.992584 0.0263186 -4.95366e-21)
(1.00074 0.0234628 1.88287e-21)
(0.967867 -0.0471541 3.09573e-21)
(0.983684 -0.0496816 -2.78394e-21)
(0.965127 -0.0543194 -2.45646e-21)
(1.04191 -0.0168575 -3.71246e-22)
(1.04261 -0.0174098 -1.87906e-21)
(0.982175 -0.0254259 -1.31357e-21)
(0.982356 -0.020234 2.87917e-21)
(-0.0676845 0.0691403 1.20873e-20)
(-0.0708788 0.0754113 1.91193e-20)
(1.01009 -0.00376686 3.48371e-22)
(1.01003 -0.00367388 -1.3963e-23)
(0.787192 -0.107968 5.27593e-21)
(0.776603 -0.0824152 1.07063e-22)