/*--------------------------------*- C++ -*----------------------------------*\
| =========                 |                                                 |
| \\      /  F ield         | OpenFOAM: The Open Source CFD Toolbox           |
|  \\    /   O peration     | Version:  v2012                                 |
|   \\  /    A nd           | Website:  www.openfoam.com                      |
|    \\/     M anipulation  |                                                 |
\*---------------------------------------------------------------------------*/
FoamFile
{
    version     2.0;
    format      ascii;
    class       surfaceScalarField;
    location    "50";
    object      meshPhi;
}
// * * * * * * * * * * * * * * * * * * * * * * * * * * * * * * * * * * * * * //

dimensions      [0 3 -1 0 0 0 0];
oriented        oriented;


internalField   nonuniform List<scalar> 
20673
(
0.000427437
0.00026975
-0.000696867
-0.00046347
-0.000573431
0.00104167
0.000346529
-0.000108976
-0.000237551
0.00106633
9.68329e-05
-0.00115988
-0.00127791
0.00131751
-3.35146e-05
-0.000295667
0.000305946
-1.02786e-05
0.000240943
8.95547e-05
-0.000330496
-0.000291343
0.000234116
5.72286e-05
-0.000278191
4.9906e-05
0.000228287
-0.000547156
0.00011385
0.000433434
-0.000393848
-1.78328e-05
0.000411709
-0.000549827
0.000575777
-2.5799e-05
0.000780942
0.000160322
-0.000253813
9.34916e-05
-0.000600319
0.00101443
-0.00041329
0.000415823
0.000524006
-0.000938574
0.0012788
-0.000414724
-0.000860223
-0.000583642
2.71266e-05
0.000556701
0.000121383
-0.000671036
0.00077253
-0.000785788
3.81451e-05
0.000216561
-5.73903e-06
-0.000207417
-2.56455e-05
0.000266589
-4.95372e-05
0.000942147
-0.000876566
-0.000143452
-0.000147889
-0.00140159
0.00131575
9.36494e-05
-0.000332214
0.000196915
0.000135301
-0.000241803
-0.000310046
0.000551861
9.03239e-05
-0.000383403
0.000293096
0.000172237
-0.000338172
0.000165939
3.6486e-05
-0.00045327
0.000416854
0.000328087
0.000340285
-0.000668085
0.000470147
0.000349435
-0.000818754
-0.000524926
-0.000102711
0.000627705
-0.00020234
0.000834881
-0.000632538
0.000549989
0.00076117
-0.00130703
-0.000211857
-9.11368e-05
0.000303002
0.000815022
-0.000848739
-0.000267161
0.000210746
5.6415e-05
-0.000851365
0.00106897
-0.000201306
0.000213475
-1.21688e-05
0.00011762
0.000117475
-0.000153214
9.45404e-06
7.10552e-05
-7.81037e-05
0.000912634
0.000191741
-0.001051
0.000466818
-0.000432216
-3.45895e-05
-0.000946013
0.00124815
-0.000295665
-0.000836999
0.000785184
5.18835e-05
0.000121537
-0.000704961
0.000636607
-0.000364997
-0.000271483
0.00025141
-0.000220988
-3.04224e-05
-1.64645e-05
-0.000139756
0.000211017
-0.00100713
0.00041852
0.000589649
-0.000810863
0.00119726
-0.000385615
0.000274152
-2.27412e-05
-0.000788437
0.000586113
0.000991785
0.000290779
-0.000529032
-0.000310455
0.000840605
0.000108063
-0.000501875
0.00123872
0.000294544
-0.00152696
-0.00108269
0.000889533
0.000195005
0.000192933
-0.00113258
-0.000321707
0.000291493
3.02169e-05
-0.0012858
0.000827711
-6.19606e-05
0.000874353
-7.79303e-05
-0.000333004
3.73372e-05
-9.05742e-05
-0.000209084
0.000299661
7.67836e-05
-0.00126331
-0.00121161
-0.000130628
-0.000306939
-5.52929e-05
0.000362255
-0.0005512
-0.000105526
0.000657091
-1.35616e-05
-0.00125923
-0.00024628
-3.19102e-05
0.000266381
-0.000179702
-8.66783e-05
-0.0014421
4.94057e-05
0.000230557
-7.64057e-06
-0.000222917
0.000639765
-0.000335271
-0.000304358
0.000192478
-0.000215215
2.27368e-05
-0.00128154
0.00112142
0.000164059
0.00025522
8.41551e-05
-0.000339374
1.36713e-05
0.000455697
-0.000465805
0.000626065
-0.000128162
-0.000487092
-0.00105924
0.000300109
-0.000306914
6.80594e-06
-0.000181709
-8.54518e-05
-0.000298487
0.000275951
2.25361e-05
-0.000870513
-0.000406863
0.000696079
-0.000656522
-2.45053e-05
0.000146508
-0.00023708
-0.000385624
-0.000620246
5.04038e-05
0.000905967
-0.000269893
0.000207024
6.28686e-05
0.000205712
-0.000654536
0.000448921
0.00151101
-0.000497021
-0.00100176
-0.000463001
0.0010815
-0.000616967
-0.000115198
0.000261708
-0.000248156
-7.26868e-05
0.000320842
-0.000445522
5.28422e-05
0.000392723
-0.000306
0.000611957
-0.00030582
-0.000479595
0.000445675
3.39603e-05
0.000258149
0.000221345
-0.000479485
-0.000632367
-0.000229981
0.000908327
0.000395141
-0.0007034
0.000308258
0.000341407
0.000125425
-0.000506076
0.00103387
-0.00052506
0.000762888
-0.00122578
0.000486387
0.000141995
0.00016212
-0.000304113
-0.00039705
0.000354108
4.295e-05
0.000430116
0.000206592
-0.00135265
0.000942112
-0.000344763
-0.000270642
0.000615645
-0.000281566
0.000249217
3.23494e-05
-0.00028655
8.52434e-05
-0.00048117
2.02139e-05
0.000461039
-0.00010588
0.000247876
0.000190454
-0.000860241
0.000669909
0.000268715
-0.000173069
-9.56466e-05
-0.00102818
-0.000289926
0.0013317
2.13893e-05
0.000233408
-0.000254797
0.000195577
4.38268e-05
-0.000239404
0.000836999
-0.000181987
-0.000654978
-0.000198043
0.000209592
0.000127825
-0.000434739
0.000243401
-0.000154971
-8.843e-05
0.000508421
-0.000418077
-0.000102954
0.000218818
-6.04993e-05
0.000648827
-0.00111012
-0.00116933
0.000938633
0.000236807
7.47611e-05
-0.000113355
0.000622234
0.000158193
-0.00069566
5.77903e-05
-0.000244361
4.72996e-05
0.000197062
0.00102758
-0.000836953
0.00115329
0.000100946
0.000219098
-8.32677e-08
1.80117e-05
-0.000290943
0.00027294
-0.000292485
0.000149036
0.000668861
-0.000241109
-0.000105679
0.000363831
-0.00127792
1.32568e-05
0.000672698
0.000164356
0.000293594
8.60159e-05
-0.000379597
-0.00034954
0.00130635
-0.000938769
-0.00116402
-3.27508e-05
0.00119784
1.45604e-06
0.000359995
-0.00036144
-0.0011896
-2.24155e-05
-0.000233127
0.000348145
-0.000115014
0.000225913
-0.000356517
0.000130609
-0.00126963
0.000459604
-0.000298803
0.00123664
-0.000917958
-0.00047224
-0.000336583
0.000809678
-0.000562221
0.0005776
-1.52008e-05
0.000129896
0.000138819
-0.00067476
0.000264175
0.000410676
0.000651533
-0.000654382
3.05098e-06
0.000373379
0.000534927
-0.000907196
-0.000321953
6.85384e-05
0.000253416
0.000244851
-0.000795608
0.000398117
-0.00014008
-0.000258029
0.000234845
-4.23671e-05
-0.000265959
0.000283979
-0.000799605
-0.00010074
0.000900871
0.000432047
-0.000631166
0.000199103
0.000455491
-0.000505668
5.37899e-05
6.70529e-05
-0.000512523
0.000113848
-0.000594911
-0.000472493
-7.06271e-06
0.000493496
-0.000996981
-0.000313647
-0.000249012
0.000562813
-0.00146171
0.00123792
0.000234441
0.000658379
-0.000263241
0.000333063
0.00033389
-0.000666701
-5.35495e-05
0.000219457
-0.000165907
-0.000340349
0.000523514
-0.00018309
-0.00128381
0.00073442
0.000552347
0.000157672
0.000199657
-0.000357325
-0.000617331
0.000537024
8.04528e-05
1.98685e-05
-0.000264229
0.000241193
-0.000219804
9.71725e-05
-0.000330296
-0.00128715
0.0001011
0.00119649
0.000566605
-0.000360811
0.000741481
-0.000413082
0.000940284
-0.00127195
0.00079424
-8.44271e-05
-2.9505e-05
0.000667275
-0.000637407
-0.000206092
-0.00012612
-0.000413167
0.000172761
0.000240426
-4.53643e-05
-0.000276588
-0.000434884
-0.000219312
0.000654547
-0.000333076
-1.77846e-05
0.000350893
-0.000452597
0.000262954
0.000189653
-0.000233034
-6.54515e-05
-5.01491e-05
-0.000296964
0.000347131
0.000279535
-0.00115453
0.000891431
0.000396538
-0.000397797
1.25982e-06
0.000285765
-0.00052755
4.48424e-05
5.89994e-05
0.000746104
0.00077508
0.000360312
-4.56646e-05
-0.000314632
-6.49709e-05
-0.000183439
0.000248413
-0.00104102
0.000704568
0.000337848
0.000134001
-0.00010908
0.000515081
-0.000689848
0.000174976
8.95036e-05
-0.000651529
8.5978e-05
0.000180403
0.000234139
0.00010816
-0.00034229
-0.000676384
0.00122986
0.001276
-3.18878e-05
-0.000652435
0.00034658
0.000360954
-0.000222711
-0.00013824
0.000110802
-0.00127302
0.000178304
0.000129725
-0.000308028
0.000207732
-0.000280184
7.24521e-05
-0.000514473
0.000181443
-0.000468213
0.00125335
0.000226726
-0.000353555
0.00012683
-0.000346574
0.000649401
-0.000302634
0.000242185
-0.000255611
1.34259e-05
-1.81788e-05
-0.000938969
0.000967089
-0.000262686
-5.90172e-05
0.000278321
-0.00155335
0.000510454
-0.00027745
-0.000232931
0.000277661
-9.35519e-05
-0.000249102
0.000230155
1.89479e-05
9.6949e-05
0.000175
-0.000271948
0.000949471
-0.000532547
7.45371e-05
0.000296748
-0.000371278
0.00086204
-0.000487701
0.000948897
-0.00139217
-0.000316217
0.000104368
0.000182752
-0.000523024
-0.000670166
0.000235651
-7.57607e-05
0.00030341
-0.000227647
6.73426e-06
0.000200998
0.000234391
0.000381951
-0.000553553
-0.000294595
0.000765502
-8.52225e-05
-0.00018467
-0.000223956
0.000248617
-2.46614e-05
0.000456092
8.86183e-06
-0.000714115
-0.000466703
0.00120866
3.51827e-05
-0.000221989
-0.000124252
-0.000271018
0.000395305
-3.26673e-05
-1.49838e-07
3.80649e-05
0.000329571
0.000107501
-0.000437058
0.00027751
0.000240613
-0.000518042
-8.38176e-05
0.000515851
-0.000545837
0.00068943
-0.000143186
-3.32802e-05
-0.000464181
0.00034258
-0.000686646
0.000344266
-0.000143777
-7.83811e-05
0.000222158
-0.00102936
-0.00018412
0.00122253
0.000553835
-0.000104979
-0.000448789
0.000408767
-0.000396189
-1.25751e-05
-0.00100262
-0.000159963
-0.00105094
0.001351
-0.000653824
0.000394142
0.00025981
-0.000291029
0.000180045
0.000110984
-0.000248002
-0.000426663
-0.000536266
0.000507049
-0.000867946
0.000268395
6.81556e-05
-6.5247e-05
1.53705e-06
0.000166003
7.73983e-05
0.000373904
-0.000251316
-0.000122584
-0.000432077
9.16203e-05
0.000340468
-0.000266277
0.0012377
0.000275529
-0.00018326
-9.22689e-05
-0.000188226
-6.30933e-05
0.000251319
0.000313318
8.48055e-05
-8.59301e-06
0.000263814
0.000247995
0.000391878
0.000600664
-0.000187223
1.08006e-05
0.000251846
0.000403484
-0.000633145
0.000229853
-0.000281071
0.000151103
0.000129968
-0.000376372
-8.10513e-05
0.000457472
-0.000753075
-0.00032769
-9.51106e-05
0.000329258
0.000414725
-0.000717503
-0.000544401
0.00037171
0.000258327
-0.000196487
-8.47289e-05
0.000281221
0.000753307
-0.000756732
2.76729e-05
-0.000142705
0.00030038
-0.000560256
-0.000479089
-2.62623e-05
2.46714e-06
-0.000999674
0.000532616
0.000467781
0.000487843
0.000163884
-0.000331263
-0.000299933
0.000317067
1.25159e-05
-0.000839882
0.000310396
0.000529886
-0.000140573
0.00111533
-0.000967225
-0.000267624
-0.000136053
0.00040369
-0.000269384
0.000193625
0.000182144
0.000191763
0.00106865
-0.00107545
0.000204461
-0.000400536
0.00019608
0.000851782
-0.000987965
0.000135001
-0.00119879
0.00106613
0.000455194
-0.00146881
-6.39658e-05
0.000289882
0.000278679
-0.000114427
-0.000119046
0.000297974
0.00021254
0.000252789
-0.000798155
-0.00104873
-0.000401206
0.000574735
-5.94764e-05
0.000755998
-0.00122181
0.000468378
-6.853e-06
0.000135682
-0.000128829
-0.000453804
-0.000163368
-0.000343577
-0.000310843
-0.00139593
0.00122448
0.000185175
-0.00139312
0.000348043
-0.000306113
0.000153392
0.000152722
6.38716e-05
0.000161648
-0.00022552
0.000924862
-0.00120319
-0.00018367
2.41794e-05
0.000229276
0.000145454
-0.000341936
-0.00109211
0.00158609
-0.000482328
-0.000272753
9.30506e-05
-0.00151668
0.000137105
-3.33282e-05
-0.000215774
-0.000565013
-0.000576315
0.00114657
0.000130123
-0.000414138
0.000284031
-0.000103805
-0.000645906
0.000750346
-0.000202854
0.000232107
-2.92539e-05
-0.00106944
0.000270507
-0.000463543
0.000197593
3.673e-05
0.000224093
-0.000260821
-0.000249336
-0.00074954
-0.000380149
0.000255927
-0.000325639
2.27539e-05
0.000302893
-0.00129541
0.000585101
0.000713614
-0.00028189
0.000208595
7.32945e-05
0.000123302
0.000273238
-0.000199343
1.11172e-05
0.000399216
0.000496005
-0.000895017
-0.000179211
0.000222282
-4.30717e-05
-0.000609806
0.000754465
-0.000143905
0.000293603
-7.62374e-05
-0.000217365
0.000352654
-0.000315921
-0.000545567
0.000216738
0.00032886
-0.000128646
-0.000416887
8.76216e-05
0.00025891
4.07972e-05
0.000525732
-0.000562076
-0.000344273
0.000677569
-0.000211152
-7.04138e-05
-0.00125754
0.00025906
0.0010011
0.000641812
-0.00108223
0.000442126
-0.000131118
-0.000122696
0.00036101
-6.8557e-07
-0.00110038
0.00145946
-0.000354997
-0.000195254
-0.00025733
0.000292999
-0.000120759
-0.000104201
0.000855556
-0.000700596
-4.87956e-05
0.000244373
-6.97524e-05
0.000346128
-0.000276365
0.000788745
-1.04191e-05
-0.000409324
-0.00087471
0.00130754
0.000866398
-1.92442e-05
0.000879714
-0.00115997
-0.000394046
0.000126434
0.000222479
9.26885e-05
-0.000315165
-0.000263151
0.000353666
-9.05154e-05
-8.93565e-05
-0.000216756
-0.00104163
0.00152979
-0.000478932
0.000450246
0.000103639
-0.000117462
-0.000102062
0.000219524
-0.000738501
8.31803e-05
0.000655635
0.00026786
-0.000109334
-0.000171736
0.00025907
-0.001032
0.000453724
0.000621439
-4.55768e-05
-0.000386486
-0.0011512
0.000199641
0.000974696
-0.000338863
7.6181e-05
0.00109951
-0.0009004
-0.000225724
2.287e-05
0.000522881
-0.000245298
0.00102251
-0.00108045
6.03537e-05
0.000460365
0.000131271
-0.000586051
-0.000339088
-0.000313179
0.000378095
0.000188573
-0.000398788
-8.73417e-05
0.00048622
-5.83316e-05
0.000205191
-0.000146859
0.000128793
0.000164811
2.61745e-05
0.000216011
0.00063669
-0.000293945
-0.000538503
-8.53861e-06
-0.000924415
0.000234016
-6.27592e-05
-0.000161196
0.000204557
-0.000304287
9.97311e-05
0.00167175
-0.000638263
-0.00102773
-0.000274057
-0.000189472
0.00140145
-0.000161421
-0.0012332
0.000424285
-0.000292694
-0.000131573
-0.00111066
0.000550565
-0.000459271
0.000504869
0.000321472
-0.000808393
0.000488575
0.00017184
-0.000275209
0.00010337
0.000912934
-0.000589535
-0.000146262
-0.000144767
-0.000228413
0.000265104
-3.66909e-05
-0.000306913
2.0368e-05
0.000286563
-0.000376856
0.000278284
9.85732e-05
-0.000817671
-0.000474555
-7.37733e-05
0.000300501
-0.000152762
0.00030733
-0.00116728
0.000879126
-3.60268e-05
8.17302e-06
-0.0012619
-0.00136799
0.000116735
0.00125597
0.000366846
-0.000330303
8.32043e-05
-5.93281e-06
-0.00116731
-0.000339052
0.00151268
4.15189e-05
-0.00117375
-0.000296066
-9.79641e-05
0.000336649
-0.000319682
8.34867e-05
-0.000262697
-0.000338828
0.000193492
0.000145338
0.000251569
-0.000233716
-1.78528e-05
0.000281799
-0.000331931
-0.000284718
0.000205239
7.94797e-05
0.00022706
-0.000233535
6.47483e-06
-1.5988e-05
-0.000722163
0.000286968
-0.00131838
0.000341462
-0.000462281
0.000120854
-6.6212e-05
-0.000783463
-0.000396816
-0.000372176
0.000769647
0.00107649
-0.000782646
0.000319655
9.73988e-05
0.000263556
-0.000161955
-0.000176871
-0.000459585
-0.000442191
0.000902743
-0.000336026
0.00046278
-0.000126697
-0.000641333
0.00104075
0.0003376
0.000733304
-0.000612131
0.000213453
-0.00106871
3.70517e-05
0.00103398
-0.000337817
-3.24413e-06
0.000341073
-0.00100636
-0.000341938
0.000144081
0.000169465
-0.000192441
-8.03115e-05
-0.000218818
0.000238687
2.45005e-05
-0.000243319
0.000431223
-0.000401679
-2.94933e-05
3.83655e-05
0.000213203
-0.000172895
-0.000108995
-0.00026565
0.000113209
0.000152441
0.000177588
-0.000266064
8.84765e-05
-0.000663346
0.000590103
0.000144169
0.000320773
-0.000608804
0.00028819
4.75145e-05
-0.00111394
-0.000299607
-0.000990241
0.00129405
-6.61785e-05
0.000334505
-0.000268317
0.000525185
0.00022754
7.05183e-05
-0.000205693
-0.00065344
0.000403744
0.000249845
0.000794312
-0.000388788
-0.000405134
-6.84466e-05
-0.000163217
0.000231664
-0.000685603
0.00100792
0.000361978
-0.000497004
0.000135078
-0.000264815
0.000217394
4.7421e-05
-0.000274213
0.000371477
-9.72529e-05
0.000241842
-0.000110925
-0.000130917
0.000334315
0.000803682
0.000873055
-4.35062e-05
0.000177844
-0.000396583
0.00064179
-0.000186063
-0.000795956
0.000221247
-0.000333295
0.00011205
3.78522e-05
-0.000301004
-0.000408917
-0.000430518
-0.000276627
8.56052e-05
0.000191023
-0.000969229
0.000441373
-0.000362251
0.000429347
-9.59791e-05
-0.00016967
-0.000186541
-0.000169974
-0.00051249
0.000205612
0.000361844
-6.82391e-05
-9.44272e-05
0.000456449
0.000530929
0.000132798
-0.000663561
-0.000440879
0.000403668
3.72454e-05
-0.000413504
-0.000212891
0.000626691
-0.0003381
-7.42226e-05
0.000412353
-3.28946e-05
0.000344447
-0.000631108
0.000286905
-0.000342331
0.000500879
-0.000158479
0.000169006
9.17761e-05
-0.000173064
-0.000140226
0.000328263
-0.000188028
0.000648902
-0.000988332
0.000340489
0.000665937
0.000799922
-0.00144629
0.000337636
-0.000733816
-4.8654e-05
-0.00108598
0.00113828
-0.000242776
0.000174329
-0.000252345
0.000146467
-0.00142222
0.000341967
-0.000179978
-0.000278728
0.000231367
-0.000338653
0.000107289
1.94053e-05
0.000207655
3.71913e-06
-5.79294e-05
0.000130219
0.000111622
-0.00026842
-0.00062953
0.000901184
6.74957e-05
0.000308298
-0.000375769
0.00166782
-0.000733206
-0.000923356
4.24161e-05
-0.000208346
0.000165929
-0.00039087
7.73836e-05
0.000313494
-0.000865789
0.000394392
0.000202528
-0.000978125
0.00077902
-0.000170254
-0.000114464
-0.000111544
-0.000301599
-0.000122661
-9.99657e-05
0.000222627
8.40675e-05
3.44272e-06
-0.000263473
0.00010096
0.000162513
0.00023434
0.000162861
-0.000339062
0.000176206
-0.000532336
0.00121454
0.000243576
3.23761e-05
0.00014149
-0.000311797
0.000170309
-0.000705731
5.36875e-05
0.000652355
-0.00121336
0.000825648
-0.000867597
-0.000285577
0.00115642
-0.000331135
0.000356731
6.75682e-05
0.000342724
-3.04559e-05
0.000461521
-0.00131152
0.00014602
0.000288992
-0.000390055
-0.000279165
0.000471142
0.000233841
4.16881e-05
-0.000325619
0.00025945
-0.000721374
0.000166982
0.000271085
-0.000438046
2.68322e-07
-0.000121471
-0.000810087
0.000212678
-0.000514173
0.000178206
2.18167e-05
-0.000276032
0.000254217
0.000464675
0.00026276
-0.000726977
0.00119644
5.06632e-05
-0.000155171
-0.00120591
0.00112211
-0.00117375
5.12563e-05
0.00030832
-0.000278735
4.57016e-05
0.000595889
-0.000651731
6.94925e-05
-0.00111021
0.00111888
-6.99013e-06
-0.000383381
-0.000724193
0.000311021
-0.000579301
0.000475965
0.00164241
-0.000833679
0.000990837
-0.000287498
-0.000701271
-0.000699923
-8.73134e-05
0.000788145
-0.00055738
0.000215128
-0.000317556
-8.07293e-06
0.00033976
-0.000118511
0.000460003
-3.44897e-05
0.000376879
-0.000342333
0.000334015
-0.000225846
-0.000589699
0.000246222
-0.000290321
-0.000929521
0.00123015
0.000132363
-0.00027614
3.75313e-05
-0.000248868
0.000892096
-0.00076219
0.000959839
-0.000195499
0.000178653
-0.000318871
-0.000508534
0.000436617
7.19751e-05
-0.000295747
0.000163553
0.000186285
-0.000337609
6.34055e-05
-0.000370962
-2.69115e-05
0.000397925
-0.000163426
0.000226728
-6.33022e-05
-0.000351713
0.000317274
-0.000786782
0.000303345
0.000483599
0.000514599
0.000280051
-0.000385074
0.000850484
-3.55037e-05
0.00021765
-0.000207473
-0.000146706
-0.0001122
0.000258907
-0.00127133
0.000270143
0.000684326
0.000104914
-0.000788567
-9.22462e-05
0.000363349
-0.000271371
0.000162036
-0.000140254
-8.20289e-05
0.000293044
0.000319031
0.000406721
2.45395e-05
0.000989455
-0.000464238
0.000538888
0.000366709
-0.000904034
0.000990908
0.000656086
0.000501196
-0.000531839
3.07092e-05
0.000342873
-0.00117518
0.000307772
-0.000654149
0.000303093
0.000140613
-0.000287318
-0.00022416
0.000101499
0.00111519
-0.000571324
-0.000541995
-0.000480693
0.000118488
2.18429e-05
-0.000412703
-0.0009364
0.000659315
0.000277737
0.000479354
-0.0013398
0.000861502
0.000270408
-0.000117665
-0.000152743
0.000182188
0.000158099
-0.000340284
-0.000100097
-0.000191668
0.000291768
-0.00044694
0.00039341
5.35528e-05
-4.82321e-05
0.000737503
0.000160245
-0.000209041
-0.000666256
-9.36352e-05
-0.000131278
-0.000564742
-0.000162483
0.000727807
0.000620389
-0.0003089
-0.000311388
0.000202456
-0.000727298
-0.000548157
9.49629e-05
0.00018321
-0.000324257
0.000141048
4.15419e-05
-0.000482385
0.000813712
-0.000428208
-0.000384979
-0.00026383
0.000228329
-0.000144018
-0.00078514
0.000931525
-6.07908e-05
0.000238379
0.000443559
1.86165e-05
0.000700956
-9.4412e-05
-0.00011397
0.000318436
-0.000102005
0.000284195
-0.000296036
0.000336926
-4.089e-05
-0.000886611
0.000744824
-0.000696621
-0.000583663
-3.22916e-05
-0.00107592
0.000661377
-0.000246337
9.56967e-06
-0.000215291
-0.000257158
-0.00035148
0.000891861
-0.00026166
-0.000250783
0.000310484
0.000958454
0.000718335
-0.000179134
0.000253676
0.000294483
-0.000509719
-0.000304749
-0.000134993
0.000439756
0.00153484
-0.000622956
-0.000900644
0.000342967
-0.000400247
5.73102e-05
0.00107632
-1.62177e-05
-0.000212194
0.000546005
-0.000432022
-3.60972e-05
-0.000472372
4.67886e-05
0.000638124
0.000552381
-1.38962e-05
-0.000483821
0.00113398
-0.00141636
0.000302745
0.00118243
-0.000238019
0.000480419
-0.000431842
-4.85424e-05
-0.000137211
-0.000699737
-0.000450177
9.75489e-05
0.000352646
0.000149003
-0.000207335
0.000262581
-0.000576074
-0.000714257
0.000657376
-0.000501166
0.000175228
0.000325971
-3.28098e-05
-0.000263225
-0.000125241
-0.000222007
0.000347257
-0.00132477
0.000304853
-0.000530382
-0.000240777
0.000771341
0.00129636
-0.000810896
-0.00082631
0.000766037
6.11254e-05
0.000883687
7.15654e-06
0.000256706
-0.000115215
0.000468824
-7.26877e-06
0.000231781
0.000580602
-0.000878581
0.000298895
-0.000393777
0.000375971
9.11948e-05
-0.000488296
0.000397184
0.000178248
-0.000254105
7.58572e-05
-0.000450392
0.000453676
-3.2228e-06
-0.00127329
0.000409437
0.000161036
8.37711e-05
-0.000244807
0.000111141
-0.000251395
-0.000312848
-0.000979555
0.00129843
0.000354952
-0.00111492
0.000206027
0.000177337
-0.000383356
-0.000331718
-0.000115194
0.000107649
-0.000483973
9.0966e-05
-8.03942e-05
4.36774e-06
0.000880791
-0.000674834
-7.40152e-05
-0.000340103
0.000132113
0.00089224
0.000515366
-0.000602597
-0.000304941
-0.00034872
-0.000104994
0.00125737
0.000489157
0.000192799
-0.000681751
0.000194436
2.27769e-06
0.00105247
-0.00104567
-0.000974435
0.00126239
-0.000283486
0.000134871
0.000360763
-0.000448241
-0.0001743
0.000238172
0.000240933
-2.00316e-05
0.000496121
-0.000954658
-0.000216879
0.000163329
-0.00102915
0.000499697
0.000530974
0.000236125
-0.000338127
0.000975857
-0.000439812
0.000404194
-0.000506851
0.000465877
0.000338326
-0.00061977
0.000281588
0.00132403
-0.000856153
0.000402817
-0.000676268
0.00027362
0.000433102
-3.93982e-05
-0.000327131
0.000227063
0.000284022
-0.00051102
0.000625088
-0.000890347
-3.90643e-05
-0.000225749
-0.000242923
0.000119409
0.000123514
0.000212967
-0.000191149
-4.46823e-05
0.000206376
0.000662886
-0.000325131
-0.000264456
-0.000416668
-0.00017666
0.000593553
0.000240839
-9.60651e-05
-0.000144774
-0.000126565
-0.000115978
0.000242544
-0.000518161
0.000545466
-0.00105126
0.0014918
-0.000434356
9.8554e-05
-0.000394604
0.000291472
4.54542e-05
3.88075e-05
-0.000343546
-0.000352874
-9.72793e-05
-0.000329203
0.00063206
-0.000302646
0.00022077
-0.000312671
9.19022e-05
-0.000110534
-0.000478398
0.00058923
-0.000458091
-0.000258999
-0.000451266
0.000213561
0.000237737
0.000310918
-0.000356568
0.000131736
-0.000649689
-0.0002216
-8.35845e-05
0.000305184
0.000482772
0.000210606
-0.000693151
0.000480056
-0.00110684
0.000629666
0.000399487
0.00022099
-0.000796664
0.000547952
0.000403777
0.0009321
-0.00132118
0.000109799
-0.000935132
-0.000640386
0.000295867
0.000511987
-0.000847732
-0.000978863
0.00147311
-0.000482435
-0.000122888
0.000309501
-0.000637573
0.000328243
0.00102306
-0.000256395
-0.000764208
3.14527e-05
0.00048401
-0.00131256
0.000265372
-0.0012544
0.000159106
0.00110135
0.000242163
9.11646e-07
-2.62705e-05
-0.00104056
0.00106878
-0.00120611
0.00105428
0.000188754
0.000921579
-0.000577294
-0.000343139
8.14558e-05
-0.000444482
0.000405597
-0.000148366
0.000190782
0.000442939
0.000206007
-0.000648777
2.26763e-05
-0.00031433
0.00105733
-0.000150475
-0.000852029
-0.00027327
0.00028577
-6.18636e-06
-0.00058411
7.10536e-05
0.000513111
3.06964e-06
0.000527996
-0.000327516
-0.000711431
0.00103898
-0.000305398
0.000314163
-8.76028e-06
0.000155932
-0.000510179
0.000354328
-7.09704e-05
-0.000267887
0.000691132
-0.000337892
-9.28299e-05
0.000430767
0.00111695
-0.000257049
-0.000855893
-0.000126969
0.000227238
-9.62902e-05
0.000210225
-0.000437113
-0.000136806
0.000894899
-0.000131767
-8.63906e-05
0.000218157
-5.35412e-06
-0.00026193
-0.00010824
0.000328096
-0.000219849
0.000770976
0.000151393
-0.000218418
0.000100957
-0.000498305
5.10358e-06
0.000493329
-0.000277977
0.000433978
-0.000454429
6.068e-05
0.000505433
-0.00125321
0.000779864
1.61522e-05
-1.61522e-05
0.00056447
2.16703e-05
0.00114329
-0.00116407
-0.00060918
0.00126234
-0.000650485
0.000295009
-0.000335234
4.023e-05
-0.000362695
0.00109975
-0.000886828
0.000819575
7.07655e-05
0.000833513
-0.000433049
-0.000399668
0.00119134
-0.000832113
-0.000326058
0.000394599
3.71662e-06
-0.000324281
-0.000515501
-0.000688763
0.0001458
9.5039e-05
0.000444729
0.000297107
-0.00074138
-0.000869419
0.000879267
-0.000140388
0.000344034
-0.000164176
-0.000107194
0.000351802
-0.000468496
0.00132614
-0.000853164
-0.00104254
-0.000224886
1.37465e-05
-0.000319141
0.000129118
0.000247031
-0.000376141
-0.000204215
0.000243582
-3.93672e-05
-0.000432259
-0.000354354
0.00102968
-0.000546799
0.000652334
-0.00035997
6.98241e-05
0.000393823
0.000631182
-0.000286496
0.000697937
0.000395194
-0.000172077
-0.000223104
0.000840053
-0.000343923
-1.99549e-05
0.000228551
0.000421643
-0.00112947
0.000711504
0.00105323
-0.000476323
-0.000575829
-0.000175683
-6.26621e-06
0.000181949
0.00145672
-4.83913e-05
0.000813499
-0.000163733
0.000994253
0.000326225
-0.00131373
-0.000272206
0.000274153
3.71768e-05
-0.000642052
0.000371664
0.000213181
-0.000544457
0.000822287
0.000248084
-0.00106677
-3.88104e-05
0.000274938
0.000243251
-0.000113722
-0.00012953
0.000540212
0.00078673
-0.00092101
0.0011612
-0.000214349
0.000398894
-0.000539711
0.000140864
0.000225782
8.93939e-05
4.45159e-06
0.000210971
0.000105002
-0.000315964
0.000246748
-0.00114051
-0.000299824
-0.000968752
-0.000153489
0.00113346
-0.000442966
0.0013533
-0.000896078
3.11244e-05
-0.00129475
0.00114976
0.000152859
0.000317009
-6.5043e-05
-0.000530842
0.000572891
-4.174e-05
-0.00025058
2.26492e-06
0.000249222
0.000757874
0.000263513
-0.00097808
0.00136905
-0.00093353
-0.000435038
-0.00158628
0.000614621
0.000984224
0.00021756
-0.00118712
0.000122131
-0.000272518
0.000150387
0.000933973
-0.00133884
0.00041502
0.00141657
-0.000482655
-0.000918686
0.000115526
-0.000274795
0.00015927
0.000171144
0.000177003
0.000367723
0.000446404
0.000325089
0.000553654
-0.000228078
-0.000325466
0.000982059
-0.000629028
-0.000351583
-0.000357892
0.00129676
-0.000921989
0.000204314
0.000580898
-0.000177495
-0.000163898
0.000391011
-0.000925749
-2.00398e-05
0.000951998
0.000259206
-0.00123248
-0.000252308
0.000125744
-0.000842678
0.000527289
0.000315774
0.000265892
-8.02711e-05
-0.000185621
-5.51714e-06
0.000700138
0.000244668
-8.30204e-05
-0.000543385
-0.000240206
0.00078406
0.000277867
-0.0011446
-0.000120803
-9.98626e-05
0.000220666
0.000227922
2.46569e-05
-0.000252579
-0.00060592
-0.000966493
-0.000256086
-0.000195141
-0.000167281
0.000420927
2.71355e-07
-0.00128605
0.000276761
0.00081977
-0.00026489
8.163e-05
-0.000351928
-0.000814391
0.000411217
0.000965584
0.000188115
-0.00020341
0.000772225
-0.000567102
0.000385774
-0.000318252
-0.000146975
-0.0003259
0.000852956
-0.00132089
0.000480881
0.000429619
0.000246576
-0.000676166
0.000665055
-0.000634838
-1.49871e-05
0.000176536
-0.000461561
-0.000526391
0.00100812
-0.000380555
0.000862382
-0.000802807
-5.54062e-05
0.000381145
-2.25105e-05
0.000384538
0.000203288
2.38726e-05
-0.00022716
0.000353164
-0.000134506
-0.000218655
-0.000807447
0.000277303
-0.00030094
0.000231196
-0.000157332
-7.59987e-05
0.000233331
-0.000999035
-0.000388152
0.000232138
-7.18932e-05
9.0622e-05
0.000200873
5.84053e-05
-0.000215738
-0.000296769
0.000182285
0.000114485
0.000261452
-0.000145925
0.000100086
-0.000263512
-0.000238309
-0.000262823
0.000906645
-0.00118896
0.000267366
0.000291288
-0.000834176
0.00028774
-8.31812e-05
0.000923937
-0.00143701
-0.00140375
0.000917752
0.000796953
-0.00126089
3.07422e-05
0.000751763
-7.34961e-06
-0.000743265
0.000510619
0.000225175
-0.000735575
-0.000218155
2.06461e-05
0.000197509
-0.00045221
-0.000939987
-1.05698e-05
0.00104125
-0.00102867
-0.000240032
0.000124687
0.000115344
0.000351111
-3.33686e-05
-0.000317728
0.000606327
0.000762527
-0.000620801
-0.000879536
0.000405833
0.00047439
0.00136608
-0.000945684
-0.000414691
-2.17055e-05
-0.000221217
-0.000246968
-0.000373861
0.000666905
0.000326873
-0.000993018
0.000589412
-0.000791161
0.000134518
0.000108733
4.49087e-05
-0.000220591
0.000248117
-1.47096e-05
0.00024457
-0.00120107
0.000295409
-0.00040693
-0.000442052
7.11413e-05
-0.000202802
0.000240241
-3.74388e-05
-7.73061e-05
0.00035407
0.000194295
-0.000548281
0.000862865
0.000844514
0.000276066
0.00104367
-0.000618707
-0.000314471
0.000517826
0.000966349
-0.000265165
-0.000332652
0.000168257
-0.00086739
-0.000384801
0.000274442
0.000132163
0.00014525
-0.000277413
-0.000166826
0.000469096
-0.000302226
0.00120186
-0.000782923
0.000124935
0.000159336
0.000115939
-0.000275275
-0.000372012
-0.000221967
-0.000988579
0.00121244
0.000179339
-0.000265078
8.5739e-05
0.000320701
-0.00135855
0.000507608
-0.0011139
0.000465972
0.000158423
-0.000624356
-0.000217086
-5.95409e-05
3.4651e-05
0.000963235
0.000582419
0.000160581
0.000135148
-0.000295728
1.56574e-05
-0.000316585
-0.000366916
7.64669e-05
0.000290458
-0.000101826
0.000400744
-0.00029887
-0.000263895
0.000172765
-0.000307317
0.00103286
-0.000714504
-0.000326679
-4.52756e-05
0.000371976
0.000943637
-0.00116378
-0.00143714
0.000715204
0.000740495
0.00133812
-0.000857826
-0.000120238
0.000341487
-0.00021104
6.82536e-06
0.000481033
-0.00134414
0.000876768
-0.000251048
0.00105106
0.00131421
-0.000313556
0.000335153
-0.000990991
0.000652216
-0.000897518
0.00024606
0.00120849
-0.00118589
0.000236014
-0.00133204
-0.000445163
-0.000403878
0.00126862
0.000535752
0.000390641
-0.00039119
5.65938e-07
0.000214222
-0.000279068
6.4847e-05
0.000329679
-0.00132483
9.34367e-05
-0.00044746
0.000354083
0.000352133
0.000764534
4.94423e-05
-0.000257788
-4.29741e-05
0.00020231
5.4948e-05
0.000194269
0.000327269
0.000226483
0.000256678
-2.87562e-05
-0.000167456
0.000256673
-8.48328e-05
-0.000388861
-4.16058e-05
-0.000767926
0.000458367
-0.000423066
-0.000220255
0.000643589
0.000275096
-9.69746e-05
0.000328343
-0.000405442
0.000340024
6.54289e-05
-0.000352245
0.000409426
-5.71533e-05
-0.000313714
0.000127769
0.000185947
0.000492874
-0.000448043
1.48724e-05