/*--------------------------------*- C++ -*----------------------------------*\
| =========                 |                                                 |
| \\      /  F ield         | OpenFOAM: The Open Source CFD Toolbox           |
|  \\    /   O peration     | Version:  v2012                                 |
|   \\  /    A nd           | Website:  www.openfoam.com                      |
|    \\/     M anipulation  |                                                 |
\*---------------------------------------------------------------------------*/
FoamFile
{
    version     2.0;
    format      ascii;
    class       surfaceScalarField;
    location    "50";
    object      meshPhiCN_0;
}
// * * * * * * * * * * * * * * * * * * * * * * * * * * * * * * * * * * * * * //

dimensions      [0 3 -1 0 0 0 0];
oriented        oriented;


internalField   nonuniform List<scalar> 
20673
(
0.000427713
0.000269925
-0.000697317
-0.000463747
-0.000573779
0.00104231
0.000346759
-0.000109049
-0.000237708
0.00106728
9.69178e-05
-0.00116092
-0.00127932
0.00131894
-3.35494e-05
-0.000295863
0.000306149
-1.02854e-05
0.000241102
8.9614e-05
-0.000330715
-0.000291536
0.000234271
5.72665e-05
-0.000278376
4.9939e-05
0.000228438
-0.000547514
0.000113924
0.000433718
-0.000394111
-1.78447e-05
0.000411984
-0.000550205
0.000576173
-2.58167e-05
0.000781629
0.000160428
-0.000253982
9.35535e-05
-0.000600713
0.0010151
-0.000413562
0.000416092
0.000524348
-0.000939182
0.00127963
-0.000414988
-0.000860787
-0.000584028
2.71445e-05
0.000557069
0.000121467
-0.000671499
0.000769309
-0.000782338
3.79775e-05
0.000217612
-5.75795e-06
-0.000207797
-2.56624e-05
0.000266766
-4.94734e-05
0.000941132
-0.000875465
-0.000143547
-0.000147987
-0.00140314
0.00131722
9.37539e-05
-0.000332434
0.000197045
0.00013539
-0.000241961
-0.000310249
0.000552223
9.03834e-05
-0.000383656
0.000293289
0.000172351
-0.000338396
0.000166049
3.651e-05
-0.000453569
0.000417129
0.0003283
0.000340506
-0.000668517
0.000470439
0.000349652
-0.000819259
-0.00052527
-0.000102778
0.000628116
-0.000202468
0.000835408
-0.000632938
0.000550569
0.000761972
-0.00130842
-0.000211997
-9.11974e-05
0.000303203
0.000813931
-0.000847437
-0.000267338
0.000210886
5.64524e-05
-0.000852073
0.00106985
-0.00020144
0.000213616
-1.21768e-05
0.000117326
0.000117197
-0.000152833
9.41835e-06
7.09115e-05
-7.76763e-05
0.000913054
0.000191837
-0.00105147
0.000467126
-0.000432501
-3.46123e-05
-0.000946501
0.0012488
-0.000295819
-0.000837536
0.000785688
5.19167e-05
0.000121617
-0.000705427
0.000637031
-0.00036524
-0.000271664
0.000251577
-0.000221134
-3.04426e-05
-1.63249e-05
-0.000138616
0.000209328
-0.00100781
0.000418802
0.000590048
-0.000811417
0.00119807
-0.000385879
0.000274333
-2.27563e-05
-0.000788938
0.000586485
0.000992425
0.000290972
-0.000529365
-0.00031065
0.000841134
0.000108135
-0.00050221
0.00123985
0.000294816
-0.00152836
-0.00108334
0.000890073
0.000195123
0.000193031
-0.00113316
-0.00032192
0.000291686
3.02369e-05
-0.00128656
0.0008282
-6.20016e-05
0.000870922
-7.76239e-05
-0.000333224
3.73619e-05
-9.06342e-05
-0.000209222
0.00029986
7.6849e-05
-0.00126438
-0.00121247
-0.000130721
-0.000307143
-5.53297e-05
0.000362496
-0.000551556
-0.000105595
0.000657517
-1.35775e-05
-0.00126063
-0.000246443
-3.19313e-05
0.000266557
-0.000179821
-8.67357e-05
-0.00144368
4.94601e-05
0.00023071
-7.64563e-06
-0.000223064
0.000640202
-0.000335501
-0.000304567
0.000192606
-0.000215358
2.27519e-05
-0.00128229
0.00112208
0.000164153
0.000255389
8.42109e-05
-0.000339599
1.36823e-05
0.00045629
-0.000465705
0.00062388
-0.000127724
-0.000485292
-0.00106018
0.000300308
-0.000307118
6.81044e-06
-0.00018183
-8.55084e-05
-0.000298684
0.000276134
2.2551e-05
-0.000871019
-0.000407103
0.000693733
-0.000654238
-2.44167e-05
0.000146605
-0.000237237
-0.000385886
-0.000620666
5.04243e-05
0.000906383
-0.000270071
0.000207161
6.29102e-05
0.000205847
-0.000654966
0.000449217
0.00151173
-0.000497251
-0.00100222
-0.000463331
0.00108227
-0.000617401
-0.000115274
0.000261882
-0.00024832
-7.27349e-05
0.000321055
-0.000445819
5.28775e-05
0.000392985
-0.000306204
0.000612365
-0.000306023
-0.000479917
0.000445973
3.3983e-05
0.000258319
0.000221491
-0.000479802
-0.000631493
-0.0002297
0.000907198
0.000395397
-0.000703857
0.000308458
0.000341633
0.000125508
-0.000506395
0.00103452
-0.000525396
0.000763003
-0.00122594
0.000486473
0.000142089
0.000162227
-0.000304314
-0.000397313
0.000354343
4.29784e-05
0.000430402
0.00020673
-0.0013535
0.000942699
-0.000344988
-0.000270818
0.000616046
-0.000281753
0.000249382
3.23708e-05
-0.000286739
8.52998e-05
-0.000481498
2.02277e-05
0.000461352
-0.00010595
0.000248041
0.000190577
-0.000860797
0.000670337
0.000268893
-0.000173183
-9.571e-05
-0.00102885
-0.000290135
0.0013327
2.14035e-05
0.000233562
-0.000254965
0.000195707
4.38558e-05
-0.000239562
0.000837533
-0.000182103
-0.000655396
-0.000197302
0.000209058
0.00012791
-0.000435028
0.000243562
-0.000155073
-8.84886e-05
0.000508755
-0.000418353
-0.000102352
0.000217606
-6.01784e-05
0.000649294
-0.00111092
-0.00116991
0.000939099
0.000236924
7.42942e-05
-0.000112641
0.000622563
0.000158275
-0.000696029
5.78285e-05
-0.000244523
4.73309e-05
0.000197192
0.00102824
-0.000837495
0.0011539
0.000100998
0.000220548
-8.37771e-08
1.80236e-05
-0.000291136
0.000273121
-0.000292679
0.000149134
0.000669294
-0.000241265
-0.000105748
0.000364072
-0.00127903
1.32678e-05
0.000673126
0.00016446
0.000293789
8.60731e-05
-0.000379849
-0.000349698
0.00130694
-0.000939182
-0.00116484
-3.27736e-05
0.00119868
1.457e-06
0.000360233
-0.000361679
-0.00119046
-2.24314e-05
-0.000233282
0.000348375
-0.00011509
0.000226062
-0.000356753
0.000130696
-0.00127051
0.00045992
-0.000298941
0.0012372
-0.000918368
-0.000472535
-0.000336793
0.000810186
-0.000562603
0.000577992
-1.52111e-05
0.000129982
0.000138911
-0.000675215
0.000264353
0.000410953
0.00065196
-0.00065481
3.05298e-06
0.000373608
0.000535254
-0.000907748
-0.000322167
6.85837e-05
0.000253584
0.000245009
-0.000796121
0.000398381
-0.000140173
-0.0002582
0.000235001
-4.23952e-05
-0.000266135
0.000284167
-0.000800135
-0.000100806
0.000901466
0.000432329
-0.000631579
0.000199234
0.000453754
-0.000503699
5.35652e-05
6.70978e-05
-0.000512866
0.000113926
-0.000595317
-0.00047281
-7.06744e-06
0.000493803
-0.000997605
-0.000313858
-0.00024918
0.00056319
-0.00146241
0.00123852
0.000234553
0.000658806
-0.000263412
0.000333281
0.000334108
-0.000667137
-5.3585e-05
0.000219602
-0.000166017
-0.00034058
0.000523869
-0.000183215
-0.00128463
0.000734882
0.000552703
0.000157776
0.00019979
-0.000357562
-0.000617736
0.000537377
8.05056e-05
1.98816e-05
-0.000264404
0.000241353
-0.000219949
9.72369e-05
-0.000330515
-0.00128799
0.000101166
0.00119729
0.000566978
-0.000361048
0.000741963
-0.00041335
0.000940721
-0.00127254
0.000791697
-8.41653e-05
-2.95244e-05
0.000667712
-0.000637825
-0.000206229
-0.000126204
-0.00041344
0.000172875
0.000240584
-4.53943e-05
-0.000276771
-0.000435166
-0.000219454
0.000654972
-0.0003333
-1.77965e-05
0.000351129
-0.000452898
0.000263129
0.000189779
-0.000233189
-6.54948e-05
-5.01822e-05
-0.00029716
0.00034736
0.000279486
-0.00115404
0.000891196
0.0003968
-0.00039806
1.26066e-06
0.000285952
-0.000527896
4.47937e-05
5.89354e-05
0.00074646
0.000775448
0.000360551
-4.56948e-05
-0.000314841
-6.50139e-05
-0.00018356
0.000248578
-0.0010418
0.000705094
0.000338098
0.000132843
-0.000108092
0.000515429
-0.000690314
0.000175094
8.95646e-05
-0.000651973
8.6035e-05
0.000180522
0.000234294
0.000108231
-0.000342517
-0.000677098
0.00123114
0.00127715
-3.19163e-05
-0.00065287
0.000346812
0.000361193
-0.000222858
-0.000138332
0.000110881
-0.00127393
0.000178422
0.000129811
-0.000308232
0.00020787
-0.00028037
7.25001e-05
-0.00051482
0.000181565
-0.000468274
0.00125357
0.000226876
-0.000353789
0.000126914
-0.000346806
0.000649835
-0.000302836
0.000242346
-0.00025578
1.34348e-05
-1.81933e-05
-0.000939701
0.000967897
-0.00026286
-5.90563e-05
0.000278504
-0.00155434
0.00051079
-0.000277633
-0.000233084
0.000276953
-9.32981e-05
-0.000249267
0.000230307
1.89604e-05
9.70132e-05
0.000175116
-0.000272128
0.000950087
-0.000532891
7.45864e-05
0.000296945
-0.000371524
0.000862571
-0.000488001
0.000948987
-0.00139227
-0.000316427
0.000104437
0.000182876
-0.000523379
-0.000670601
0.000235804
-7.58109e-05
0.000303611
-0.000227798
6.73872e-06
0.000201131
0.00023417
0.000381629
-0.000553053
-0.000294778
0.000765979
-8.52789e-05
-0.000184792
-0.000224104
0.000248782
-2.46778e-05
0.000454509
8.83248e-06
-0.000712691
-0.000465915
0.00120661
3.5206e-05
-0.000222136
-0.000124335
-0.000271199
0.000395569
-3.23196e-05
-1.4838e-07
3.76689e-05
0.000329791
0.000107573
-0.000437349
0.000277693
0.000240773
-0.000518385
-8.38724e-05
0.000516189
-0.000546186
0.000689873
-0.000143278
-3.31568e-05
-0.000462318
0.000342805
-0.000687097
0.000344493
-0.000143872
-7.8433e-05
0.000222305
-0.00103023
-0.000184278
0.00122356
0.0005542
-0.000105049
-0.000449084
0.000409037
-0.000396451
-1.25834e-05
-0.00100311
-0.000160042
-0.00105193
0.00135226
-0.000654269
0.00039441
0.000259986
-0.000291222
0.000180164
0.000111058
-0.00024817
-0.000426951
-0.000536618
0.000507382
-0.000868515
0.00026857
6.7472e-05
-6.45987e-05
1.52175e-06
0.000166113
7.74495e-05
0.000374152
-0.000251483
-0.000122665
-0.000432364
9.16813e-05
0.000340695
-0.000266298
0.00123787
0.000275712
-0.000183382
-9.233e-05
-0.00018835
-6.31351e-05
0.000251485
0.000313526
8.48617e-05
-8.5987e-06
0.000263989
0.000248164
0.000392145
0.000598617
-0.000186448
1.07523e-05
0.00025077
0.000403752
-0.000633564
0.000230006
-0.000281257
0.000151203
0.000130055
-0.000376622
-8.11051e-05
0.000457776
-0.000753527
-0.000327889
-9.51736e-05
0.000329476
0.000415026
-0.000718028
-0.000544697
0.000371906
0.000258463
-0.000196617
-8.4785e-05
0.000281407
0.000749816
-0.000753051
2.75377e-05
-0.0001428
0.000300579
-0.000560675
-0.000479449
-2.59637e-05
2.439e-06
-0.00100032
0.00053296
0.000468084
0.000488163
0.000163991
-0.00033148
-0.000300129
0.000317278
1.25243e-05
-0.000840428
0.000310598
0.000530231
-0.000140672
0.0011161
-0.000967894
-0.000267802
-0.000136143
0.000403958
-0.000269562
0.000193754
0.000182264
0.00019189
0.00106953
-0.00107628
0.000204597
-0.000400801
0.00019621
0.000852758
-0.00098917
0.000135149
-0.00119964
0.00106688
0.000455454
-0.00146962
-6.40082e-05
0.000290074
0.000276099
-0.000113368
-0.000117904
0.00029817
0.00021268
0.000252951
-0.000798664
-0.00104923
-0.0004014
0.000575122
-5.95166e-05
0.000756436
-0.00122251
0.000468648
-6.85754e-06
0.000135772
-0.000128915
-0.000454101
-0.000163475
-0.000343802
-0.000311047
-0.00139663
0.0012251
0.000185271
-0.00139444
0.000348376
-0.000306316
0.000153493
0.000152823
6.39139e-05
0.000161755
-0.000225669
0.00092559
-0.00120403
-0.00018299
2.40996e-05
0.00022845
0.00014555
-0.000342162
-0.00109275
0.00158703
-0.00048261
-0.000272934
9.31122e-05
-0.00151744
0.000137172
-3.33503e-05
-0.000215917
-0.000565531
-0.000576853
0.00114762
0.000130209
-0.000414412
0.000284219
-0.000103876
-0.000646345
0.000750856
-0.000202988
0.000232261
-2.92733e-05
-0.00107015
0.000270687
-0.000463849
0.000197723
3.67543e-05
0.000224241
-0.000260993
-0.000249496
-0.000750022
-0.000380403
0.000256098
-0.000325855
2.27689e-05
0.000303094
-0.00129641
0.000585554
0.000714156
-0.000282076
0.000208734
7.33431e-05
0.000123384
0.000273419
-0.000199475
1.11245e-05
0.000399471
0.000496322
-0.00089559
-0.000179329
0.00022243
-4.31003e-05
-0.000610185
0.000754936
-0.000143995
0.000293797
-7.62879e-05
-0.000217509
0.000352887
-0.000316131
-0.000545928
0.000216881
0.000329078
-0.000128731
-0.000417163
8.76796e-05
0.000259081
4.09725e-05
0.0005279
-0.000563864
-0.000344498
0.000678013
-0.000211292
-7.04604e-05
-0.0012586
0.000259275
0.00100193
0.000642227
-0.00108293
0.000442413
-0.000131205
-0.000122777
0.000361249
-6.86024e-07
-0.00110106
0.00146036
-0.000355211
-0.000195384
-0.000257501
0.000293193
-0.000120839
-0.000103916
0.000853417
-0.000698959
-4.88279e-05
0.000244534
-6.97988e-05
0.000346358
-0.000276548
0.000785282
-1.03735e-05
-0.000409263
-0.000874469
0.00130731
0.000867315
-1.9267e-05
0.000880127
-0.00116051
-0.000394307
0.000126518
0.000222627
9.27499e-05
-0.000315373
-0.000263326
0.0003539
-9.05753e-05
-8.94157e-05
-0.0002169
-0.00104268
0.00153136
-0.000479424
0.000450543
0.000103708
-0.000117539
-0.00010213
0.00021967
-0.000739003
8.32367e-05
0.00065608
0.000268038
-0.000109407
-0.00017185
0.000259242
-0.00103136
0.000453368
0.000621077
-4.56071e-05
-0.000386743
-0.0011511
0.00019962
0.000974688
-0.000339087
7.62314e-05
0.00110007
-0.000900853
-0.000225873
2.28851e-05
0.000523227
-0.00024546
0.00102333
-0.00108131
6.04014e-05
0.000461798
0.000131727
-0.00058768
-0.000339314
-0.000313388
0.000378344
0.000188697
-0.000399052
-8.73997e-05
0.000486542
-5.83702e-05
0.000205327
-0.000146956
0.000128878
0.00016492
2.61918e-05
0.000216154
0.000637109
-0.000294138
-0.000538855
-8.5442e-06
-0.000922253
0.000233468
-6.28007e-05
-0.000161303
0.000204693
-0.000304489
9.97971e-05
0.00167319
-0.000638808
-0.00102863
-0.000274239
-0.000189598
0.0014029
-0.000161592
-0.00123446
0.000424566
-0.000292888
-0.000131661
-0.00111168
0.000551063
-0.000461319
0.000507696
0.00032166
-0.000808864
0.000488861
0.000171954
-0.000275391
0.000103438
0.000913471
-0.00058988
-0.000146359
-0.000144863
-0.000228564
0.00026528
-3.67152e-05
-0.000307118
2.03817e-05
0.000286755
-0.000377105
0.000278468
9.86385e-05
-0.000818305
-0.000474915
-7.38221e-05
0.0003007
-0.000152864
0.000307155
-0.00116637
0.000878567
-3.60506e-05
8.18004e-06
-0.00126298
-0.0013695
0.000116863
0.00125736
0.000367088
-0.00033052
8.23733e-05
-5.87367e-06
-0.00116861
-0.000339429
0.00151435
4.15185e-05
-0.00117362
-0.000296262
-9.80289e-05
0.000337286
-0.000319628
8.3542e-05
-0.000262871
-0.000339053
0.00019362
0.000145435
0.000251735
-0.000233871
-1.78646e-05
0.000281985
-0.00033215
-0.000284907
0.000205375
7.95323e-05
0.000227211
-0.00023369
6.47912e-06
-1.59989e-05
-0.000722655
0.000287248
-0.00131966
0.000341688
-0.000462587
0.000120934
-6.62667e-05
-0.000784122
-0.000397064
-0.000372409
0.00077013
0.00107653
-0.000782563
0.000319867
9.74633e-05
0.000263731
-0.000162062
-0.000176988
-0.000459888
-0.000442482
0.000903337
-0.000336248
0.000463086
-0.000126781
-0.000641743
0.00104141
0.000337875
0.000733906
-0.000612538
0.000213595
-0.00106935
3.70741e-05
0.0010346
-0.000338042
-3.24629e-06
0.000341299
-0.00100699
-0.000342149
0.000142736
0.000167923
-0.000192569
-8.03647e-05
-0.000218963
0.000238845
2.45167e-05
-0.00024348
0.000431507
-0.000401944
-2.95128e-05
3.83909e-05
0.000213345
-0.000173009
-0.000109067
-0.000265826
0.000113284
0.000152542
0.000177705
-0.000266241
8.85351e-05
-0.000663699
0.000590416
0.000144244
0.000320986
-0.000609209
0.000288382
4.75429e-05
-0.00111461
-0.000299872
-0.000991129
0.0012952
-6.62224e-05
0.000334727
-0.000268494
0.000525533
0.000229061
7.10095e-05
-0.000207071
-0.000653869
0.000404009
0.000250009
0.00079485
-0.000389051
-0.000405409
-6.84919e-05
-0.000163326
0.000231817
-0.000685236
0.00100752
0.000362219
-0.000497335
0.000135168
-0.00026499
0.000217538
4.74524e-05
-0.000274395
0.000371723
-9.73173e-05
0.000242002
-0.000110998
-0.000131004
0.000335577
0.000804381
0.000873801
-4.34767e-05
0.000177684
-0.000396839
0.000642206
-0.000185976
-0.000795414
0.000221393
-0.000333515
0.000112124
3.78772e-05
-0.000301204
-0.000409183
-0.000430798
-0.000276811
8.56618e-05
0.000191149
-0.000969839
0.000441652
-0.000362493
0.000429634
-9.60426e-05
-0.000169782
-0.000186664
-0.000170086
-0.000512834
0.000205749
0.000362085
-6.82845e-05
-9.44902e-05
0.000456753
0.000531277
0.000132885
-0.000663995
-0.000441172
0.000403935
3.72701e-05
-0.000413794
-0.00021304
0.000627128
-0.000338327
-7.42723e-05
0.000412628
-3.29164e-05
0.000344688
-0.000631553
0.000287107
-0.000342559
0.000501213
-0.000158584
0.00016905
9.18065e-05
-0.00017311
-0.000140319
0.000328481
-0.000188153
0.000649336
-0.000988993
0.000340715
0.000666461
0.000800561
-0.00144742
0.000337854
-0.000734289
-4.8683e-05
-0.00108663
0.00113897
-0.000242936
0.000174444
-0.000252512
0.000146564
-0.00142305
0.00034217
-0.000180076
-0.000278881
0.00023152
-0.000338877
0.00010736
1.94182e-05
0.000207792
3.6813e-06
-5.73396e-05
0.000130306
0.000111696
-0.000268623
-0.000630014
0.000901868
6.75403e-05
0.000308502
-0.000376017
0.00166886
-0.000733654
-0.000923928
4.24442e-05
-0.000208484
0.000166039
-0.000391129
7.74349e-05
0.000313702
-0.000866328
0.000394638
0.000202635
-0.000978642
0.000779435
-0.000170367
-0.00011454
-0.000111618
-0.000301799
-0.000122742
-0.000100032
0.000222774
8.32109e-05
3.40695e-06
-0.000263648
0.000101027
0.000162621
0.000234496
0.000162969
-0.000339286
0.000176322
-0.000532748
0.0012155
0.000243737
3.23976e-05
0.000141583
-0.000312004
0.000170422
-0.000706213
5.37242e-05
0.0006528
-0.00121318
0.000825615
-0.000868206
-0.000285774
0.00115722
-0.000331362
0.000356967
6.7613e-05
0.000345107
-3.06624e-05
0.000461342
-0.00131105
0.000145285
0.00028748
-0.000387989
-0.000277819
0.000468876
0.000233996
4.17157e-05
-0.000325835
0.000259622
-0.000721867
0.000167093
0.000271264
-0.000438336
2.67254e-07
-0.00012096
-0.000808911
0.000212366
-0.000514513
0.000178325
2.18311e-05
-0.000276215
0.000254385
0.000464972
0.000262928
-0.000727441
0.00119702
5.06882e-05
-0.000155344
-0.00120724
0.00112298
-0.00117468
5.12958e-05
0.000308524
-0.00027892
4.57318e-05
0.000593576
-0.00064908
6.92063e-05
-0.00111118
0.00111984
-6.99614e-06
-0.000383636
-0.000724702
0.000311238
-0.000579697
0.00047629
0.00164386
-0.000834418
0.000991427
-0.000287668
-0.000701686
-0.000700356
-8.73675e-05
0.000788636
-0.000557752
0.000215272
-0.000317766
-8.07827e-06
0.000339984
-0.00011859
0.000460308
-3.45127e-05
0.000377129
-0.000342561
0.000334236
-0.000225996
-0.000590086
0.000246383
-0.000290565
-0.000930278
0.00123121
0.000132451
-0.000276323
3.75605e-05
-0.000249028
0.000892674
-0.000762777
0.000960573
-0.000195649
0.000178771
-0.000319082
-0.000508869
0.000436905
7.20226e-05
-0.000295245
0.000163287
0.000185951
-0.000337832
6.34475e-05
-0.000371207
-2.69292e-05
0.000398187
-0.000163534
0.000226878
-6.33441e-05
-0.000351947
0.000317485
-0.000787299
0.000303545
0.000483917
0.000514947
0.00028024
-0.000385982
0.000853002
-3.55272e-05
0.000217794
-0.00020761
-0.000146803
-0.000112274
0.000259078
-0.00127214
0.000270317
0.000684762
0.000104981
-0.000789068
-9.23072e-05
0.000363589
-0.00027155
0.000162144
-0.000140346
-8.20832e-05
0.000293239
0.000319243
0.00040699
2.45557e-05
0.000990103
-0.000464543
0.000539202
0.000366922
-0.000904557
0.000991783
0.000656656
0.000501527
-0.00053219
3.07294e-05
0.0003431
-0.00117591
0.000307978
-0.000654588
0.000303294
0.000140706
-0.000287508
-0.000224308
0.000101566
0.00111586
-0.000571668
-0.000542322
-0.000481015
0.000118567
2.18574e-05
-0.000412976
-0.000937005
0.000659742
0.000277917
0.000479706
-0.00134079
0.000862128
0.000270587
-0.000117743
-0.000152844
0.000182308
0.000158203
-0.000340509
-0.000100164
-0.000191795
0.000291961
-0.000447236
0.00039367
5.35882e-05
-4.82581e-05
0.000737892
0.000160351
-0.000209179
-0.000666715
-9.34654e-05
-0.000131074
-0.000565096
-0.000162585
0.000728266
0.000620806
-0.000309108
-0.000311597
0.000202588
-0.000727774
-0.000548517
9.50254e-05
0.000183331
-0.000324472
0.000141142
4.15694e-05
-0.000482704
0.00081429
-0.000428514
-0.000385253
-0.000264005
0.00022848
-0.000144102
-0.000785597
0.000932069
-6.08311e-05
0.000238537
0.000442213
1.85504e-05
0.000698352
-9.4064e-05
-0.000114045
0.000318647
-0.000102073
0.000284384
-0.000296232
0.000337149
-4.0917e-05
-0.000887137
0.000745268
-0.000697054
-0.000584035
-3.23201e-05
-0.00107687
0.000661852
-0.000246515
9.576e-06
-0.000215435
-0.00025733
-0.000351685
0.000892385
-0.000261836
-0.000250952
0.000310691
0.000959066
0.000718787
-0.000179253
0.000253844
0.000294681
-0.000510062
-0.000304952
-0.000135083
0.000440048
0.00153602
-0.000623415
-0.000901299
0.000343195
-0.000400512
5.73481e-05
0.00107695
-1.62284e-05
-0.000212335
0.000546363
-0.000432305
-3.6121e-05
-0.000472683
4.68183e-05
0.000638531
0.000550793
-1.38595e-05
-0.000482433
0.00113478
-0.00141735
0.000302953
0.00118302
-0.000238138
0.000480737
-0.000432128
-4.85745e-05
-0.000137299
-0.000700187
-0.000450475
9.76134e-05
0.000352879
0.000149102
-0.000207472
0.000262757
-0.000576461
-0.000712263
0.000655449
-0.000501498
0.000175344
0.000326187
-3.28316e-05
-0.0002634
-0.000125324
-0.000222154
0.000347487
-0.00132589
0.000305107
-0.000530725
-0.000240933
0.000771837
0.00129579
-0.000810465
-0.00082694
0.000766618
6.11722e-05
0.000884225
7.16091e-06
0.000256876
-0.000115291
0.000470201
-7.28199e-06
0.000231935
0.000581041
-0.000879248
0.00029912
-0.000394041
0.000376222
9.12548e-05
-0.000488617
0.000397446
0.000178366
-0.000254274
7.59075e-05
-0.000450689
0.000453975
-3.22492e-06
-0.00127418
0.000409729
0.000161143
8.38266e-05
-0.000244969
0.000111215
-0.000251561
-0.000313088
-0.00098032
0.00129945
0.000355226
-0.00111578
0.000206164
0.000177454
-0.00038361
-0.000331937
-0.00011527
0.000107721
-0.000484295
9.00088e-05
-7.95047e-05
4.3196e-06
0.000881257
-0.000675189
-7.40642e-05
-0.000340328
0.000132219
0.000892946
0.000515707
-0.000602996
-0.000305149
-0.000348959
-0.00010507
0.00125827
0.00048949
0.00019293
-0.000682217
0.000194565
2.27971e-06
0.00105338
-0.00104658
-0.00097529
0.0012635
-0.000283738
0.000134128
0.000358692
-0.000445659
-0.000174416
0.00023833
0.000243022
-2.01747e-05
0.000496448
-0.000955287
-0.000217022
0.000163437
-0.00102983
0.000500026
0.000531326
0.000236281
-0.000338351
0.000976455
-0.00044008
0.000404459
-0.000507184
0.000463426
0.000338548
-0.000620177
0.000281773
0.00132482
-0.000856564
0.000403081
-0.00067671
0.000273799
0.00043184
-3.92706e-05
-0.000326176
0.000227213
0.000284209
-0.000511357
0.000625557
-0.000891022
-3.90902e-05
-0.000225899
-0.000243083
0.000119488
0.000123596
0.000213108
-0.000191276
-4.46239e-05
0.000206131
0.000665851
-0.000325344
-0.000264629
-0.00041694
-0.000176775
0.00059394
0.000240998
-9.61287e-05
-0.00014487
-0.000126648
-0.000116055
0.000242705
-0.000518503
0.000545826
-0.00105239
0.00149339
-0.000434826
9.86192e-05
-0.000394865
0.000291665
4.54843e-05
3.88333e-05
-0.000343774
-0.000353108
-9.73436e-05
-0.000329422
0.00063248
-0.000302847
0.000220916
-0.000312878
9.1963e-05
-0.000110605
-0.000478707
0.000589612
-0.000458429
-0.00025919
-0.000451564
0.000213702
0.000237894
0.000311124
-0.000356804
0.000131823
-0.000650117
-0.000221746
-8.36399e-05
0.000305386
0.000483091
0.000210744
-0.000693607
0.000480447
-0.00110776
0.000630184
0.000399755
0.000221138
-0.000797177
0.000548305
0.000404096
0.000932849
-0.00132223
0.000109883
-0.000935849
-0.000640802
0.000296059
0.000512306
-0.000848259
-0.000979536
0.00147423
-0.000482808
-0.000122452
0.000309708
-0.000638
0.000328463
0.00102377
-0.000256575
-0.000764738
3.14736e-05
0.000484331
-0.00131398
0.000265655
-0.00125564
0.000159266
0.00110243
0.000244479
9.20755e-07
-2.62862e-05
-0.00104119
0.00106942
-0.00120503
0.00105358
0.000188692
0.000922143
-0.000577645
-0.000343348
8.09657e-05
-0.000441708
0.00040307
-0.000148464
0.000190908
0.000443244
0.000206149
-0.000649225
2.26913e-05
-0.000314538
0.00105636
-0.000150315
-0.000851197
-0.000272068
0.000284523
-6.16004e-06
-0.000584495
7.11005e-05
0.000513449
3.07166e-06
0.000528342
-0.000327723
-0.000711884
0.00103963
-0.000305601
0.000314371
-8.76608e-06
0.000156034
-0.000510515
0.000354562
-7.10174e-05
-0.000268065
0.000691652
-0.000338116
-9.28915e-05
0.000431052
0.00111769
-0.000257223
-0.000856455
-0.000126293
0.000226151
-9.58295e-05
0.00020926
-0.000435005
-0.000136886
0.000895419
-0.000131854
-8.64478e-05
0.000218302
-5.33049e-06
-0.00026081
-0.000108312
0.000328314
-0.000219995
0.000771449
0.000151486
-0.000218563
0.000101024
-0.000498633
5.10694e-06
0.000493654
-0.00027816
0.000434264
-0.000454733
6.07206e-05
0.000505698
-0.00125388
0.000780288
1.59975e-05
-1.59975e-05
0.000564858
2.1688e-05
0.00114421
-0.00116503
-0.000609657
0.00126332
-0.000650989
0.000295205
-0.000335456
4.02566e-05
-0.000362919
0.00110044
-0.000888112
0.00082066
7.08649e-05
0.000834033
-0.000433319
-0.000399916
0.00118815
-0.000829334
-0.0003252
0.00039481
3.71855e-06
-0.000324454
-0.000515821
-0.0006892
0.000145896
9.51019e-05
0.000445013
0.000297297
-0.000741853
-0.000870203
0.000880053
-0.000140104
0.000343291
-0.000164285
-0.000107265
0.000352035
-0.000468849
0.00132715
-0.00085382
-0.0010432
-0.000225025
1.37556e-05
-0.000319352
0.000129204
0.000247195
-0.00037639
-0.00020435
0.000243743
-3.93933e-05
-0.000432543
-0.000354586
0.00103051
-0.000547241
0.000651658
-0.000359569
6.98621e-05
0.000394032
0.000631623
-0.000286696
0.000698385
0.000395457
-0.000172191
-0.000223253
0.000840589
-0.000344143
-1.99681e-05
0.000228702
0.000421879
-0.0011301
0.000711902
0.00105395
-0.000476649
-0.000576221
-0.000175799
-6.27036e-06
0.000182069
0.00145823
-4.84399e-05
0.000814043
-0.000163843
0.000995057
0.000326494
-0.00131479
-0.000269824
0.00027179
3.68489e-05
-0.000642468
0.000371906
0.000213321
-0.000544814
0.000822753
0.000248223
-0.00106737
-3.88361e-05
0.00027512
0.000243413
-0.000113797
-0.000129616
0.000540568
0.000787416
-0.000921535
0.00116192
-0.000214468
0.000399162
-0.000540074
0.000140959
0.000225931
8.84646e-05
4.40652e-06
0.000211111
0.000105071
-0.000316173
0.000246893
-0.00114111
-0.000300018
-0.000969719
-0.000153645
0.00113459
-0.000443311
0.00135434
-0.000896755
3.1145e-05
-0.00129552
0.00115044
0.000152952
0.000317219
-6.50862e-05
-0.000531183
0.000573261
-4.17668e-05
-0.000253039
2.29044e-06
0.000251669
0.000758292
0.00026366
-0.000978615
0.00137001
-0.0009342
-0.000435346
-0.0015871
0.000614952
0.000984779
0.000217749
-0.00118817
0.000122212
-0.000272698
0.000150487
0.00093476
-0.00133997
0.000415362
0.00141743
-0.000482953
-0.000919233
0.000115602
-0.000274977
0.000159375
0.000171257
0.00017712
0.000367983
0.00044672
0.0003253
0.000554022
-0.00022823
-0.000325682
0.000982693
-0.000629432
-0.000351811
-0.000358049
0.00129732
-0.000922384
0.000204445
0.000581269
-0.000177613
-0.000164006
0.00039127
-0.000926693
-2.00622e-05
0.000953037
0.000259344
-0.00123312
-0.000252475
0.000125828
-0.000843232
0.000527636
0.000315982
0.000266068
-8.03242e-05
-0.000185744
-5.56613e-06
0.000700579
0.00024483
-8.30754e-05
-0.000543747
-0.000240366
0.000784582
0.000278026
-0.00114526
-0.000120883
-9.99288e-05
0.000220812
0.000228073
2.46732e-05
-0.000252746
-0.000606232
-0.000966963
-0.000256255
-0.00019527
-0.000166552
0.000419071
2.71508e-07
-0.0012868
0.000276542
0.000819054
-0.000265066
8.16841e-05
-0.00035131
-0.000813232
0.000411634
0.00096602
0.00018824
-0.000203578
0.000772864
-0.000567576
0.000386029
-0.000318463
-0.000147071
-0.000326115
0.000853654
-0.00132196
0.000481268
0.000429899
0.000246737
-0.000676607
0.000662228
-0.00063204
-1.49197e-05
0.000176653
-0.000460891
-0.000525555
0.00100674
-0.000380882
0.000863698
-0.00080411
-5.54972e-05
0.000381401
-2.25429e-05
0.000384793
0.000203422
2.38884e-05
-0.000227311
0.000353398
-0.000134595
-0.0002188
-0.000807969
0.000277482
-0.00030114
0.00023135
-0.000157437
-7.6049e-05
0.000233486
-0.000999983
-0.000388514
0.000232292
-7.19409e-05
9.0682e-05
0.000201006
5.84439e-05
-0.00021588
-0.000296966
0.000182405
0.00011456
0.000261625
-0.000146022
0.000100152
-0.000263686
-0.000238467
-0.000262998
0.000907255
-0.00118976
0.000267543
0.000291481
-0.00083473
0.00028793
-8.32362e-05
0.000924641
-0.0014381
-0.00140439
0.000918178
0.000797543
-0.00126183
3.06189e-05
0.000752266
-7.35448e-06
-0.000743762
0.000510954
0.000225322
-0.000736057
-0.000218299
2.06597e-05
0.000197639
-0.000452415
-0.000940413
-1.05794e-05
0.0010422
-0.00102962
-0.000240191
0.00012477
0.000115421
0.000351343
-3.33907e-05
-0.000317939
0.000606747
0.000763047
-0.000621206
-0.000880087
0.000406087
0.000474688
0.00136685
-0.00094622
-0.000414931
-2.17198e-05
-0.000221363
-0.000247129
-0.000374105
0.000667353
0.000327094
-0.000993689
0.000589895
-0.000791816
0.000134608
0.000108805
4.49384e-05
-0.000220737
0.000248281
-1.47194e-05
0.000244811
-0.00120226
0.000295605
-0.000407199
-0.000442343
7.11882e-05
-0.000202937
0.0002404
-3.74636e-05
-7.73573e-05
0.00035431
0.000194427
-0.000548654
0.000863388
0.00084507
0.000276241
0.00104426
-0.000619057
-0.000316662
0.000521434
0.000966926
-0.000265309
-0.000332829
0.000168361
-0.000867925
-0.00038505
0.000274619
0.000132251
0.000145346
-0.000277596
-0.000166937
0.000469409
-0.000302427
0.00120306
-0.000783706
0.000125018
0.000159442
0.000116016
-0.000275457
-0.000372253
-0.000222135
-0.000989333
0.00121335
0.000179458
-0.000265254
8.57958e-05
0.000320851
-0.00135919
0.000508012
-0.00111478
0.000466277
0.000158527
-0.000624765
-0.000217229
-5.95804e-05
3.46859e-05
0.000964006
0.00058288
0.000160688
0.000135237
-0.000295924
1.56678e-05
-0.000316796
-0.000367159
7.65176e-05
0.00029065
-0.000101893
0.00040101
-0.000299069
-0.00026407
0.00017288
-0.000307467
0.00103344
-0.000714846
-0.000326896
-4.53056e-05
0.000372222
0.000944342
-0.00116466
-0.00143584
0.000714707
0.000739869
0.0013391
-0.000858462
-0.000120318
0.000341713
-0.00021118
6.82988e-06
0.000481351
-0.00134504
0.000877367
-0.000251185
0.00105165
0.00131528
-0.000313804
0.000335375
-0.00099158
0.000652633
-0.000898092
0.000246217
0.00120947
-0.00118688
0.000236162
-0.00133287
-0.000445458
-0.000404215
0.00126967
0.000536103
0.000390899
-0.000391449
5.66312e-07
0.000214364
-0.000279253
6.489e-05
0.000329839
-0.00132547
9.34983e-05
-0.000447755
0.000354317
0.000352346
0.000764997
4.9475e-05
-0.000257958
-4.30025e-05
0.000202444
5.49844e-05
0.000194398
0.000327486
0.000226634
0.000256848
-2.87752e-05
-0.000167668
0.000256843
-8.4889e-05
-0.000389386
-4.1661e-05
-0.000768406
0.000458654
-0.000423341
-0.000220398
0.000644007
0.000275279
-9.70389e-05
0.000328561
-0.000405711
0.000340249
6.54724e-05
-0.00035248
0.000409699
-5.71914e-05
-0.000313921
0.000127854
0.00018607
0.00049167
-0.000446934
1.4838e-05
0.000365376