/*--------------------------------*- C++ -*----------------------------------*\
| =========                 |                                                 |
| \\      /  F ield         | OpenFOAM: The Open Source CFD Toolbox           |
|  \\    /   O peration     | Version:  v2012                                 |
|   \\  /    A nd           | Website:  www.openfoam.com                      |
|    \\/     M anipulation  |                                                 |
\*---------------------------------------------------------------------------*/
FoamFile
{
    version     2.0;
    format      ascii;
    class       volScalarField;
    location    "400";
    object      k;
}
// * * * * * * * * * * * * * * * * * * * * * * * * * * * * * * * * * * * * * //

dimensions      [0 2 -2 0 0 0 0];


internalField   nonuniform List<scalar> 
13917
(
0.000165537
0.000149286
0.0596932
0.000154248
0.000148659
0.000192106
0.0580197
0.0619376
0.0785891
0.000173209
0.000206
0.000185141
0.000154425
0.0160528
0.000155213
0.0001542
0.000149658
0.000175921
0.00018473
0.000148665
0.000149763
0.0576688
0.000148544
0.0588601
0.000148196
0.0533878
0.00016145
0.000164164
0.000207637
0.00018439
0.000167231
0.000157994
0.00016
0.000154446
0.000148353
2.61607e-05
0.000148603
0.046476
0.000157722
0.0191094
0.000147546
0.000149898
0.000145187
0.000168028
0.000149168
0.000155766
0.00017567
0.000183303
0.000384146
0.000147988
0.000158703
0.000149794
0.000444027
0.00015475
0.000149711
0.000158058
0.000205505
0.0001486
0.000155376
0.000148964
0.0837097
0.000149304
0.00796325
0.000148585
0.000190954
0.0297129
0.000148638
0.000148498
0.000206642
0.000163055
0.000148704
0.0775956
0.0442537
0.000148203
0.00039668
0.000188961
0.0317422
0.000151385
0.0492239
0.000149549
0.00014932
0.00014868
0.000188622
0.0507533
0.0457322
0.000151151
0.000149148
0.0116683
0.000158337
0.000145157
0.0489211
0.000179498
0.000147883
0.000151205
0.0184606
0.000188338
0.000197245
0.0001811
0.000202596
0.000169918
0.000146691
0.000158522
0.000167874
0.000152518
0.000146783
0.0795306
0.000193282
0.00018423
0.000149692
0.000168073
0.0484009
0.0208681
0.000190875
0.0795421
0.000151119
0.000419716
0.000148035
0.000260061
0.0268287
0.000154719
0.000149814
0.000205345
0.0301978
0.000163537
0.000147808
0.000150888
0.000148926
0.000147874
0.000145245
0.00019042
0.0433199
0.000150954
0.000149257
0.000149816
0.00474467
0.0575453
0.00016567
0.000170633
0.000148592
0.000154581
8.56693e-05
0.000146988
0.000150348
0.000170148
0.000148511
0.0681658
0.000211567
0.000149646
0.00014666
0.000158453
0.000179504
0.000425471
0.000190633
0.000163632
0.000157683
0.0238478
0.00016223
0.00482855
0.025911
0.00559548
0.000152997
0.000161651
0.000149549
0.0001963
0.000190369
0.000202011
0.000152437
0.000180365
0.000148295
0.00015896
0.00016429
0.0260448
0.000193168
0.000150494
0.0521269
0.000164776
0.0457871
0.000301052
0.0627859
0.000147957
0.000180705
0.000168146
0.00014696
0.000149085
0.000157913
0.0529453
0.00021668
0.0297378
0.00016675
0.000199975
8.8775e-05
0.050496
0.000213956
0.000148617
0.000171622
0.000161152
0.000154155
0.000147948
0.000181442
0.00176422
0.000158356
0.000148092
0.000178749
0.0001793
0.0387688
0.00145049
0.000148347
0.000148689
0.000180751
0.055307
0.000150122
0.0588672
0.0284377
0.000200048
0.000146807
0.000198687
0.000177939
0.0296616
0.000147853
0.0796101
0.000147897
0.000183586
0.000147319
0.0496971
0.0804963
0.000154548
0.000413105
0.000158067
0.000146822
5.7947e-05
0.000192617
0.000166539
0.0558126
0.0233487
0.000146363
0.000158519
0.0537691
0.0349578
0.000149494
0.000147569
0.0209491
0.000200449
0.000149758
0.000159186
0.000188099
0.000161228
0.000164796
0.000149493
0.000164029
0.0260567
0.000148986
0.000184902
0.000173335
0.000148819
0.000148544
0.000185431
0.0272879
0.000189181
0.000158101
0.000155464
0.00014979
0.0247616
0.0777611
7.26305e-05
0.000146863
0.0416061
0.0249458
0.0126651
0.048696
0.000190441
0.000149398
0.000147443
0.000176035
0.0431895
0.000195024
0.000154967
0.0021584
0.000174441
0.000145176
0.0552772
0.000148495
0.0553866
0.0001577
0.000149722
0.000156568
0.000163579
0.000161706
0.000134602
0.000159927
0.000149326
0.00019608
0.055112
0.0830118
0.000147851
0.0185824
0.000149082
0.000149324
0.000148073
0.000229608
0.00014857
0.000185419
0.00016413
0.000148191
0.000179041
0.00015178
0.000341514
0.000164435
0.000178173
0.000147657
0.000148474
0.0452584
0.0286997
0.000148004
0.000147393
0.051382
0.000147876
0.0477541
0.000147551
0.052745
0.000151026
0.000220943
0.000165683
0.000434263
0.000152595
0.000265164
0.000184178
0.000156597
0.00020012
0.000200146
0.000149528
0.0437668
0.000171432
0.028852
0.000153652
0.0203871
0.000159275
0.0587626
0.000180663
0.000173086
0.000172534
0.0608898
0.000149407
0.000164814
0.0534291
0.000149235
0.000152159
0.0263751
0.000184529
0.000150347
0.000136499
0.000203597
0.000146944
0.0232007
3.2329e-05
0.000148451
0.000147297
0.000149135
0.000146627
0.000209909
0.0585371
0.000208331
0.050636
0.000148127
0.000187379
0.00811943
0.000172602
0.058441
0.0481612
0.0804226
0.000146368
0.000120484
0.000147164
0.071565
0.000148938
0.000450578
0.000188012
0.000156196
0.000149277
0.000179667
0.00018258
0.000182605
0.000617099
0.0537377
0.0231144
0.00016447
0.000172244
0.000147614
0.0383649
0.0559792
0.00014871
0.00021549
0.000148278
0.000230608
0.000151001
0.000149478
0.000151786
0.0435719
0.000151708
0.0304182
0.0106026
0.000202987
0.000194362
0.000149475
0.000194845
0.000191274
0.000148173
0.000186201
0.000149158
0.00014826
0.000184246
0.00014972
0.00014825
0.000147133
0.000241884
0.000149628
0.0235396
0.0437765
0.00511066
0.000210367
0.0368207
0.0300034
0.0001722
0.000148139
0.000202266
0.000157339
0.000159697
0.00014857
0.0651568
0.0564409
0.0411283
0.000154069
0.00019125
0.000153303
0.000158427
0.00018258
0.000151228
0.000111388
0.000149671
0.000148542
0.0528674
0.0441815
0.0462396
0.000183257
0.0034157
0.0479092
0.0571123
0.0309797
0.000145432
0.000178342
0.000151322
0.000148835
0.000318309
0.00017627
0.000148788
0.000177462
0.000170611
0.0294007
0.000148147
0.000195643
0.0141121
0.000242416
0.0285007
0.00014968
0.000148755
0.000154055
0.000162244
0.000146381
0.0496417
0.000200891
0.000159912
0.0372051
0.000158007
0.000196893
0.0622186
0.000213072
0.00020212
6.52199e-05
0.000195681
0.000176226
0.000201546
0.000173821
0.000206687
0.000207487
0.00017743
0.000187056
0.000148105
0.00203282
0.000159553
0.000146581
0.000161446
0.000151705
0.0318236
0.0791525
0.000147803
0.000145422
0.0508993
0.0246912
0.000149721
0.0233065
0.000152092
0.00020108
0.000147911
0.0364732
0.00199812
0.000158444
0.000149895
0.0398983
0.000209743
0.0122239
0.000149777
0.0293906
0.000342067
0.0546749
0.00014668
0.0414657
0.0854175
0.00017281
0.000147252
0.000149613
0.000189059
0.000227587
0.000148111
0.000147309
0.000147575
0.000147539
0.0363429
0.000501345
0.000172426
0.000212555
0.000147935
0.000146731
0.000190896
0.0770122
0.000164025
0.000148406
0.000148223
0.000148457
0.0608176
0.0556153
0.000149103
0.000148451
0.00012891
0.000173434
0.000165678
0.000148695
0.000151882
0.000156822
0.000186508
0.00019388
0.000215982
0.000203204
0.000190175
0.00123043
0.000177965
0.0001479
0.0304654
0.000148469
0.000152584
0.000155263
0.00210121
0.000169822
0.000146816
0.000246692
0.000187354
0.00779948
0.000190273
0.00016007
0.000171991
0.00014921
0.0842516
0.000224219
0.0613816
0.000149387
0.000160975
0.000216848
0.0503822
0.00989527
0.000182037
0.000186246
0.000154031
0.000153773
0.00014872
0.000165101
0.000168722
0.000149214
0.000177767
0.000172472
0.0624468
0.0144485
0.000153283
0.000196209
0.00134828
0.000157556
0.000149911
0.000440445
0.0729409
0.0696899
0.000212634
0.000145355
0.0260176
0.000188592
0.000147251
0.000161933
0.000186145
0.00015948
0.000184341
0.0500048
0.000201056
0.000170427
0.0841837
0.000152345
0.026168
0.000149556
0.000149057
0.0209975
0.0746846
0.000205582
0.000152348
0.000150335
0.000148459
0.000174927
0.000437971
0.000200465
0.000154122
0.000200236
0.000179282
0.000147949
0.000380511
0.000199807
0.000108584
0.000147791
0.000200454
0.000151612
0.0137241
0.000173835
0.000169651
0.000161228
0.000147065
0.000146492
0.000149075
0.00017395
0.000156025
0.000234002
0.000525587
0.000179905
0.000147001
0.000199755
0.000206203
0.000335235
0.000148853
0.000155627
0.000147361
0.000162234
0.000155625
0.0847652
0.000149492
0.000631245
0.000161835
0.000205818
0.000179137
0.04381
0.000170519
0.000149477
0.0406842
0.0109888
0.000148632
0.000155169
0.00373046
0.000207369
0.000195089
0.000149544
0.000150005
0.000205618
0.000156435
0.000182215
0.000184296
0.00014655
0.000179464
0.0595853
0.000148821
0.000152755
0.000147713
0.0268352
0.000149754
0.000153673
0.0281435
0.000151868
0.0704376
0.000157682
0.000160211
0.000147663
0.000166116
0.000148119
0.000175254
0.000147098
0.00017313
0.000152077
0.0178235
0.000320093
0.0769831
0.000152685
0.000149327
0.000177027
0.000169914
0.0316742
0.0799154
0.000175507
0.000148317
0.000240048
0.000205246
0.000112476
0.000216735
0.000175529
0.04738
0.000164841
0.000173092
0.000197145
0.000178245
0.000175168
0.000235953
0.000174531
0.000153997
0.000187385
0.000156735
0.000147569
0.000161969
0.000168299
0.000157823
0.000148177
0.000147501
0.00017966
0.000153142
0.000182344
0.000148302
0.000148364
0.000149808
0.000151656
0.000145028
0.000155759
0.000147853
0.0352276
0.000184825
0.000187742
0.000146522
0.000149623
0.00016333
0.000176571
0.000150633
0.0701379
0.000174652
0.0539638
0.000161976
0.00019416
0.0001507
0.000149778
0.00014742
0.000151776
0.0196935
0.000149678
0.00892331
0.000156166
0.00983854
0.000164843
0.000175278
0.000205417
0.000145957
0.000149935
0.000185213
0.000148492
0.000149919
0.0533124
0.000150679
0.000149138
0.000158882
0.000147512
0.000145924
0.000157995
0.000156361
0.0260635
0.000163325
0.000148818
0.000147269
0.0549207
0.000173974
0.000149269
0.000149384
0.0595242
0.0021786
0.0232459
0.0001601
0.000154009
0.000146441
0.000145762
0.000177891
0.000164004
0.000239191
0.000153951
0.0405583
0.000149728
0.000152198
0.019411
0.000148323
0.000159792
0.000148378
0.000148428
0.000167445
0.000161772
0.00015064
0.0721591
0.0252519
0.000179723
0.000147893
0.000145579
0.000199505
0.00848662
0.000149717
0.000678246
0.000145531
0.000167279
0.00014788
0.000147862
0.000222183
0.000148921
0.0106459
0.000167173
0.000149806
0.00014542
0.000148759
0.000147623
0.000152527
0.000428879
0.00014854
0.000147435
0.0746536
0.0732787
0.000171396
0.000169223
0.000181842
0.000156069
0.000147113
0.000156313
0.036486
0.000173903
0.000148807
0.000149717
0.0803946
0.00016734
0.0571776
0.000149758
0.000150816
0.0244916
0.000165542
0.000150899
0.0175082
0.000286373
0.000147578
0.0001945
0.000147404
0.000148767
0.000146451
0.0457261
0.00014495
0.000149123
0.000147093
0.0165681
0.000156473
0.000201042
0.000165755
0.00014793
0.000158719
0.000149101
0.0521583
0.000147684
0.000148658
0.000149146
0.000200405
0.000149091
0.000201167
0.020112
0.0525948
0.00015526
9.06462e-05
0.0331875
0.000148446
0.0219477
0.0834075
0.0373095
0.0371138
0.0739923
0.00850736
0.000197738
0.000149705
0.0493698
0.000165365
0.0558939
0.000146536
0.00014788
0.00014931
0.000149053
0.000157382
0.000158156
0.0328026
0.000147799
0.000148461
0.0113552
0.000187457
0.000148752
0.00016039
0.00016066
0.000149787
0.000308932
0.000160532
0.000152407
0.000156321
0.0205953
0.0241221
0.000253203
0.000147726
0.000207292
0.000187406
0.0344138
0.0812292
0.000192677
0.000147907
0.000150878
0.000149723
0.000144646
0.000151857
0.000145347
0.000156929
0.000164347
0.0415052
0.000199043
0.000149162
0.000193756
0.0587666
0.000166471
0.000149643
0.0279234
0.000148062
0.000149704
0.000160478
0.042305
0.000149088
0.000147816
0.0597778
0.000165981
0.000639722
0.000192395
0.000143253
0.000147641
0.000203472
0.000149745
0.000147918
0.000149763
0.0515265
0.0286807
0.0001475
0.000145417
0.000148498
0.00385101
0.000151415
0.000161287
0.000148468
0.000150018
0.000202277
0.00014805
0.000175897
0.000197517
0.0465764
0.000148672
0.000172155
0.000153476
0.0411875
0.0563276
0.000148217
0.0442015
0.000183086
0.00026514
0.000149083
0.0435693
0.0001496
0.000157782
0.000166407
0.000192285
0.0533798
6.02338e-05
0.000209582
0.075988
0.000146948
0.000231267
0.000147856
0.000156703
0.0606192
0.000148876
0.000149656
0.000151128
0.000149622
0.0399176
0.000145846
0.000148481
0.000179752
0.000170109
0.000176277
0.000202819
0.000202323
0.0189609
0.000185478
0.000166677
0.000172473
0.0375085
0.000172011
0.065047
0.053006
0.000157095
0.000148131
0.0352731
0.000105105
0.000149658
0.00019141
0.000164485
0.000150607
0.000157927
0.000149795
0.000166643
0.000149943
0.00017512
0.000170794
0.000147202
0.000176902
0.000147854
0.000166756
0.000147073
0.000154866
0.000178763
0.00015347
0.00014954
0.000147543
0.000289586
0.00017673
0.0659776
0.000148254
0.000149133
0.000180277
0.000148378
0.000185117
0.000176685
0.000150605
0.000188401
0.000147716
0.0740904
0.000149549
0.000170108
0.0294375
0.000231323
0.000147698
0.00015239
0.017143
0.000147933
0.000147438
0.0384543
0.050864
0.000152986
0.000208316
0.000148597
0.000149541
0.0513581
0.000151572
0.000146027
0.000192089
0.000147967
0.00173012
0.000149277
0.000146022
0.000149292
0.000202984
0.0349275
0.000149034
0.000149534
0.000147637
0.000155001
0.00014839
0.000226429
0.000176609
0.000149773
0.0610846
0.000164953
0.000233195
0.0501648
0.000431256
0.000147321
0.000149493
0.000148667
0.000208286
0.000155439
0.034909
0.0317823
0.000152536
0.059928
0.00031768
0.000175568
0.000205284
0.000169301
0.00018933
0.0525949
0.000167325
0.000423213
0.0535377
0.00018437
0.000154312
0.0384894
0.000164191
0.000146665
0.000152877
0.0764307
0.000162946
0.000147746
0.000166398
0.000187044
0.0001647
0.0379552
0.000152674
0.0693803
0.00017236
0.000136931
0.000194075
0.000209004
0.000160059
0.000147596
0.00015043
0.0565405
0.000147941
0.00015277
0.00014726
0.000151911
0.00014791
0.000160388
0.000206167
0.000298694
0.000162648
0.000165121
0.0394318
0.000191972
0.00014794
0.00307371
0.0476358
0.000146478
0.000147383
0.00016183
0.0230435
0.000149668
0.000180963
0.000210716
0.000166914
0.000148716
0.000152958
0.000148121
0.00019132
0.000163125
0.000147792
0.0217698
0.0481412
0.000163621
0.000856912
0.000184828
0.00275621
0.000151766
0.0001565
0.040689
0.00248042
0.00019293
0.000266889
0.0001585
0.000149831
0.000148851
0.000149277
0.000148438
0.000150453
0.000166827
0.000147751
0.000199197
0.000147504
0.000159469
0.000147621
0.00017545
0.000199705
0.000327226
0.000148363
0.000211454
0.000148839
0.0396883
0.000148262
0.000154407
0.000148764
0.000233027
0.0398095
0.000204642
0.000147743
0.000199035
0.000148585
0.000159746
0.0490975
0.000148595
0.000149796
0.000169303
0.00016194
0.0591998
0.000147771
0.000158178
0.000153131
0.000148226
0.000158567
0.000150154
0.000146203
0.000152185
0.0288908
0.000154133
0.000126055
0.0679672
0.000175056
0.0369213
0.000153742
0.000146244
0.000158815
0.0240038
0.000153547
0.000162205
0.000172836
0.00278627
0.000147503
0.00351211
0.000177561
0.000181543
0.000146404
0.000145505
0.000209113
0.000149954
0.000149899
0.000159116
0.00014654
0.000153167
0.000158966
0.000185954
0.000181784
0.0561923
0.000157286
0.000186539
0.00518432
0.0157632
0.000170169
0.000181812
0.0220704
0.000169182
0.0732993
0.000152248
0.00973167
0.00336938
0.000146656
0.000149723
0.000147619
0.000151438
0.000168784
0.000147715
0.000152574
0.000192744
0.000152578
0.000160323
0.0450687
0.000157594
0.000154638
0.0788401
0.000150888
0.0235314
0.000155474
0.000165186
0.000147431
0.0283164
0.029003
0.000148595
0.000151752
0.0436767
0.000157236
0.0153823
0.000148014
0.00014799
0.061871
0.000151593
0.000162496
0.0086124
0.00014844
0.000175404
0.000159353
0.0001455
0.000147261
0.0476533
0.0311313
0.000149476
0.000153353
0.000148716
0.000156448
0.000160131
0.0294461
0.000150535
0.000329315
0.0172195
0.000125727
0.00398367
0.000151406
0.000200356
0.000178653
0.000156981
0.000148383
0.000182237
0.0466672
0.000151835
0.000162899
0.0611069
0.000459263
0.000183889
0.000154013
0.000149512
0.000149608
0.00014847
0.0246479
0.000178304
0.000154237
0.000152059
0.000154466
0.000149787
0.000148272
0.000148473
0.000186135
0.000171186
0.0580314
0.00016338
0.00853431
0.0323702
0.000158578
0.000175995
0.000146645
0.000157593
0.0240377
0.000149102
0.000152427
0.000176976
0.000195251
0.000164542
0.0417146
0.000158626
0.000148057
0.0432439
0.000145267
0.000149931
0.000163823
0.000149808
0.000148984
0.000206379
0.0676254
0.000147981
0.0435039
0.00014904
0.000147249
0.000152272
0.00035349
0.000159128
0.000155474
0.0786655
0.000151386
0.000231963
0.0412875
0.000149607
0.000163614
0.000147935
0.0194087
0.000181483
0.000148512
0.0490877
0.000177106
0.000167893
0.000149847
0.0273489
0.000157243
0.000188716
0.000152543
0.000167581
0.0285922
0.000147391
0.000250527
0.000148978
0.000177082
0.000163948
0.000149601
0.0315433
0.000152283
0.000194928
0.000176423
0.000169354
0.000162833
0.000163066
0.000150383
0.060618
0.000159069
0.0199905
0.000157804
0.000183784
0.000148517
0.00016821
0.000148646
0.000186732
0.0534412
0.000150821
0.000147227
0.000439635
0.000151657
0.00975269
0.000150534
0.0466687
0.000114453
0.000163251
0.000147915
0.000147594
0.000148681
0.000145397
0.000189278
0.000165834
0.000160819
0.000155739
0.000148448
0.00268754
0.000153545
0.00016252
0.00217272
0.000148544
0.0161289
0.000176674
0.000163466
0.000248811
0.042004
0.000175467
0.0468419
0.027514
0.000147473
0.00019839
0.031842
0.0001872
0.000149094
0.000149422
0.000197304
0.0490709
0.0235956
0.000231239
0.000150701
0.000164435
0.000169693
0.0400661
0.00279765
0.000172649
0.00019924
0.000152933
0.000176196
0.000192879
0.000149037
0.000187573
0.0644314
0.000148806
0.00798067
0.000149664
0.00014875
0.0351017
0.0515691
0.000146885
0.000150969
0.000150368
0.000147939
0.000166229
0.000207545
0.000152878
0.000147844
0.000148567
0.000172314
0.000158322
0.000157921
0.000193911
0.000148379
0.055472
0.01656
0.0642118
0.000175689
0.000173486
0.000322459
0.000164975
0.0482736
0.00183565
0.0146056
0.000149993
0.0855903
0.0348902
0.000146335
0.00014819
0.000184505
0.055876
0.067682
0.00014801
0.000148612
0.0445744
0.00218814
0.0103263
0.000153366
0.00015259
0.00029232
0.000149289
0.0505312
0.0306126
0.000498832
0.000311825
0.000148759
0.00014768
0.000147104
0.000154957
0.0365835
0.000171568
0.00015728
0.000150472
0.000172974
0.0243002
0.00017236
0.057665
0.0146801
0.02594
0.00031345
0.000148345
0.000149085
0.0454588
0.00014572
0.00014659
0.00015137
0.000371468
0.000167949
0.0382813
0.000193505
0.000148168
0.0787443
0.000167059
0.000147905
0.0165842
0.000175941
0.000153985
0.000149695
0.00516849
0.0605838
0.000149141
0.0700505
0.0193835
0.0601407
0.000241869
0.000176041
0.000147936
0.000150792
0.000339916
0.000156188
0.0452315
0.000168044
0.000997017
0.00019222
0.000151003
0.000157312
0.000147992
0.000150613
0.056394
0.0202565
0.00014847
0.0218922
0.000173182
0.000148644
0.00015368
0.00014758
0.000203082
0.000150301
0.000313312
0.000164696
0.000147883
0.000147026
0.000169743
0.0230302
0.000168744
0.000153121
0.00016851
0.0001486
0.000152228
0.00015952
0.0193646
0.0307943
0.0583269
0.000146081
0.00014697
0.000149821
0.000200587
0.00014721
0.000149954
0.000206822
0.000180202
4.43254e-05
0.000146488
0.0614557
0.030826
0.000149885
0.0184408
0.000195794
0.000169771
0.000317431
0.00014965
0.0368305
0.000157511
0.000151302
0.00015258
0.000145684
0.000180577
0.00015402
0.000152169
0.000157853
0.0309482
0.0367881
0.000149614
0.000148032
0.000152724
0.000148658
0.000195603
0.000149998
0.000183572
0.000153516
0.0448042
0.000151695
0.0609341
0.000146125
0.0799949
0.000150287
0.00014559
0.0616041
0.00018466
0.000171356
0.000317278
0.000162424
0.000170551
0.000148459
0.0361999
0.000148456
0.000147244
0.00016864
0.000184811
0.0456801
0.0404487
0.000193995
0.0720273
0.000192608
8.36884e-05
0.00014868
0.000155617
0.000160194
0.0562254
0.00015368
0.0552711
0.0311376
0.000150099
0.000148776
0.00014853
0.000368877
0.000424827
0.000153063
0.000148668
0.000154974
0.000158443
0.000168474
0.000254119
0.000193645
0.000148317
0.000204427
0.000181756
0.0223966
0.000182099
0.000151908
0.000153538
0.0770333
0.000147079
0.000184644
0.0564288
0.000150705
0.000155283
0.000207649
0.000173077
0.000150744
0.024925
0.000154448
0.000233623
0.000172954
0.000158245
0.000151762
0.0578425
0.00014699
0.000171403
0.000260317
0.0598514
0.000173345
0.000175841
0.00015749
0.000163638
0.000149751
0.0614802
0.000158717
0.000148998
0.0001614
0.000148516
0.000149776
0.000378461
0.000148423
0.000149118
0.000148688
0.000199746
0.000149529
0.000161756
0.000186004
0.000201977
0.000190333
0.000149662
0.00018354
0.00019354
0.000205068
0.00018122
0.000155977
0.000202391
0.0512198
0.000240543
0.000149887
0.0466498
0.0469492
0.000149882
0.000153998
0.000145569
0.000218205
0.000184846
0.00014943
0.000250817
0.054386
0.000146662
0.000149412
0.0429636
0.0335359
0.000185319
0.000145765
0.042185
0.0365155
0.000479618
0.00014814
0.0578663
0.000190783
0.000167495
0.0503093
0.000157329
0.000145662
0.000161209
0.000199303
0.000163816
0.0469462
0.0637332
0.000147208
0.066795
0.000197875
0.0368759
0.000146124
0.000163583
0.000149663
0.000147941
0.0617927
0.00576009
0.000232079
0.00888233
0.000157824
0.000174004
0.000151681
0.0632538
0.0229972
0.000148465
0.000149661
0.00015834
0.000148298
0.000176318
0.0648464
0.0767487
0.000174525
0.000150535
0.000149937
0.0616279
0.000153971
0.000176471
0.000147039
0.000151259
0.000244087
0.00750378
0.00012206
0.000359553
0.000149073
0.000230778
0.000152681
0.000163784
0.0824897
0.020274
0.000148447
0.000149956
0.000168814
0.000154559
0.000149328
0.0663253
0.0560115
0.000147404
0.000144932
0.000149214
0.0001477
0.000330221
0.000147349
0.0440946
0.000189637
0.000184807
0.000147824
0.000167
0.0664942
0.000165442
0.000194369
0.0476959
0.000149492
0.0267869
0.00015893
0.000159768
0.000189642
0.0273286
0.0363266
0.000183178
0.000147548
0.00018961
0.000147421
0.000154094
0.000149372
0.0423693
0.000159015
0.00237254
7.85294e-05
0.000173672
0.000148764
0.000209743
0.000158737
0.000149785
0.000181974
0.000145208
0.000171411
0.000164892
0.000149255
0.0764399
0.000152015
0.000203764
0.000150874
0.000147573
0.0548307
0.048491
0.00015285
0.000158644
0.000171475
0.000171686
0.000181727
0.000158507
0.000155104
0.000156151
0.000215778
0.000154017
0.0421694
0.000166577
8.4722e-05
0.000199461
0.000151465
0.0683876
0.000145242
0.0570249
0.000152948
0.0546233
0.00467963
0.0250013
0.036682
0.000229748
0.000168397
0.000149285
0.0631766
0.000169776
0.000148507
0.0220648
0.0656796
0.000151654
0.00015423
0.000160912
0.000160955
0.000164809
0.0350641
0.000149882
0.000163607
0.000168017
0.000159415
0.000149031
0.000190779
0.00014561
0.0438681
0.000152352
0.000192982
0.000162458
0.000169332
0.000183247
0.00578846
0.000182109
0.000147246
0.000187604
0.0604859
0.0678402
0.000150738
0.0401846
0.000160546
0.000293314
0.000148457
0.0001535
0.0540523
0.000179565
0.0279051
0.0262408
0.000159109
0.0740512
0.000148346
0.00014557
0.0225165
0.00016482
0.00015343
0.0758223
0.000157306
0.000163338
0.000157769
0.000176986
0.00014938
0.0538049
0.0600984
0.00947959
0.00023353
0.000156145
0.000171756
0.0297146
0.000152964
0.000149686
0.000176399
0.000146093
0.000183823
0.0489057
0.0219809
0.0286478
0.000179961
0.00015097
0.0605077
0.000145278
0.000186343
0.00014954
0.0391157
0.000152871
0.0001644
0.0397889
0.000192757
0.000148065
0.000159389
0.0101683
0.000148823
0.000201759
0.00014724
0.0619787
0.0553434
0.000195812
0.000167757
0.000147572
0.000213366
0.000202644
0.000168994
0.000147241
0.000151193
0.000148895
0.000179641
0.000148759
0.000190979
0.000149058
0.000147546
0.0847008
0.000147939
0.000157262
0.000156679
0.00014982
0.045604
0.000147799
0.000161471
0.0575571
0.000178033
0.0395959
0.000148742
0.0600445
0.000179228
0.0749301
0.000152461
0.000199585
0.000150126
0.000170724
0.000199461
0.000197661
0.000213705
0.0544786
0.000207475
0.000405583
0.000155581
0.000196676
0.000163072
0.000501129
0.00015389
0.000149909
0.000148513
0.000178267
0.000164901
0.00215514
0.000177324
0.0522387
0.0583755
0.000170302
0.000148498
0.0115303
0.000178357
0.000150124
0.000152835
0.000148825
0.0461002
0.000148495
0.017627
0.000147824
0.000159264
0.0378008
0.000170584
0.00014832
0.000148459
0.0253299
0.000147799
0.000152923
0.000156156
0.000160719
0.000158361
0.000149223
0.000206655
0.000167772
0.000162718
0.000222118
0.0451381
0.0437397
0.0309565
0.000146209
0.000148273
0.000171842
0.000150971
0.000163221
0.0399798
0.0435435
0.00014572
0.000148432
0.0411294
7.99539e-05
0.000145894
0.000147314
0.000155261
0.0567857
0.0500535
0.000157125
0.000162482
0.000149293
0.000247388
0.000200187
0.000173847
0.000158303
0.000163576
0.000149982
0.000166663
0.000223893
0.000150779
0.000149518
0.000156709
0.0582456
0.000154264
0.0229269
0.000148648
0.0518273
0.000162119
0.0001563
0.00014645
0.000147507
0.00024864
0.0588134
0.000164662
0.024617
0.0565524
0.000150244
0.053357
0.000204847
0.000148341
0.0225265
0.000110235
0.000195631
0.000149664
0.0404124
0.0378363
0.000148968
0.00016271
0.0302856
0.00016639
0.000148734
0.000147445
0.000150289
0.000154291
0.000182197
0.00022882
0.000167456
0.000179817
0.000146463
0.000149301
0.0472513
0.000147615
0.000168162
0.000155222
0.000150166
0.000174016
0.000148148
0.000152463
0.000240371
0.000147911
0.0437337
0.000148161
0.00463259
0.0497902
0.000187423
0.00014946
0.000149947
0.0592861
0.000145596
0.00015375
0.000149794
0.000203503
0.000103934
0.00016464
0.0492084
0.000162645
0.00042844
0.000150305
0.00018466
0.000148053
0.000148873
0.0214488
0.0476195
0.000302951
0.000153011
0.000183659
0.000184178
0.0390799
0.0579631
0.000235698
0.000166831
0.000145225
0.0509041
0.000148444
0.000148683
0.000230543
0.000197517
0.000156781
0.000177956
0.00016388
0.00015963
0.00015832
0.0765021
0.000154598
0.000147877
0.0207968
0.00016414
0.000146351
0.0351967
0.000148106
0.000148683
0.000203119
0.000186187
0.0393336
0.000146469
0.000153723
0.000147651
0.000308737
0.000147696
0.000197973
0.0118779
0.0467799
0.0325635
0.0151962
0.000157559
0.0432615
0.000221684
0.000149361
0.000158408
0.0001627
0.000157768
0.000246446
0.0453675
0.0521432
0.0461962
0.000354454
0.000149177
0.000194201
0.000148148
0.0214119
0.000160154
0.000153018
0.000153987
0.000151133
0.000147686
0.000193181
0.0537351
0.000146094
0.00015309
0.00014696
0.0400281
0.000152872
0.0792595
0.0398938
0.000252027
0.000148581
0.000147751
0.0373913
0.00018949
0.000148868
0.000190638
0.000149491
0.000187644
0.000177444
0.000188715
0.00017755
0.0354921
0.000147048
0.000148137
0.000238828
0.0356297
0.000159765
0.000166455
0.000147977
0.0160137
0.000148178
0.000147615
0.000152083
0.000148345
0.00680572
0.0445344
0.00118713
0.000183416
0.0592693
0.000194656
0.000145694
0.000163638
0.000146083
0.000251763
0.00014911
0.000153794
0.000148237
0.000147462
0.000147726
0.000399151
0.000152276
0.000276298
0.000146171
0.000158611
0.000157833
0.00026556
0.000148258
0.000163553
0.000168088
0.000171984
0.0790174
0.00014746
0.0330928
0.000175991
0.00016462
0.000149647
0.000147779
0.0372665
0.009726
0.000149191
0.000148209
0.000241046
0.000241488
0.000160666
0.0573068
0.00015078
7.25743e-05
0.000163954
0.000146059
0.0533095
0.000153005
0.0507578
0.000148463
0.000151034
0.000148743
0.0404331
0.0449802
0.000145847
0.00018065
0.000237538
0.000148283
0.000148088
0.00014767
0.000182077
0.0566863
0.000174882
0.000155655
0.000167505
0.000148157
0.000148702
0.000153292
0.000147943
0.000209109
0.000148778
0.000184087
0.000305387
0.000164728
0.000145323
0.0350079
0.000185414
0.000148211
0.000177839
0.000162728
0.00073718
0.000153283
0.0829009
0.000175332
0.000148436
0.000182826
0.000183163
0.00015504
0.0828735
0.000182705
0.000163703
0.00108547
0.000148128
0.000185039
0.000168868
0.000181797
0.000147589
0.000148273
0.000145559
0.00015886
0.000180563
0.000179769
0.05783
0.0324378
0.0411232
0.000149763
0.000296269
0.0508523
0.0632142
0.000148282
0.00014862
0.000177978
0.0542855
0.000153102
0.000167704
0.0117014
0.0346007
0.00463408
0.000171356
0.000203909
0.0399182
0.00015814
0.000145649
0.00210767
0.000227552
0.000150041
0.000150501
0.00015099
0.0606187
0.000184937
0.0618994
0.000153381
0.0104291
0.000149286
0.000407131
0.0344967
0.000149386
0.000166336
0.0488782
0.0478737
0.000174418
0.00015158
0.000152439
0.000149915
0.000184972
0.000200003
0.00036485
0.0608819
0.00014676
0.0184417
0.000191487
3.85585e-05
0.00014807
0.000149032
0.00164161
0.000181882
0.000148157
0.000172655
0.000167034
0.000160925
0.0423547
0.0607178
0.06544
0.0585724
0.000154659
0.000146262
0.00016618
0.0283363
0.0647677
0.000148787
0.000182822
0.00016883
0.000192923
0.000151419
0.00014969
0.000237983
0.00825447
0.00944739
0.000272535
0.0252274
0.000147734
0.00018209
0.0572856
0.000149469
0.000165639
0.000190993
0.000145968
0.000204333
0.0713139
0.000180073
0.000149682
0.0203835
0.000194896
0.0491911
0.000144702
0.000154091
0.000149215
0.000153345
0.000149094
0.000171024
0.000162757
0.000162423
0.000185458
0.000166021
0.0434778
0.000154175
0.000162718
0.00015799
0.0213125
0.000164871
0.0335499
0.000157719
0.000156271
0.011057
0.000169705
0.000148797
0.000162715
0.0108665
0.0661951
0.000227138
0.000148332
0.000147846
0.000148147
8.89914e-05
0.000151626
0.000332343
0.000257928
0.00018181
0.000161163
0.000210749
0.0287882
0.000149085
0.0673238
0.000160154
0.000163622
0.000148253
0.000148648
0.000175232
0.0602943
0.000148421
0.0302131
0.000216505
0.000170061
0.000199138
0.000147789
0.000148078
0.000161932
0.000152556
0.0614214
0.0261067
0.000169764
0.000248147
0.000148257
0.000149093
0.000149492
0.000149604
0.0836778
0.000152847
0.042197
0.000168719
0.00015152
0.000188844
0.000494958
0.0405245
0.0210896
0.0001535
0.000147966
0.000148808
0.000154155
0.000214926
0.000180285
0.082684
0.000148975
0.000150957
0.000176092
0.000149709
0.000183709
0.000152279
0.000174805
0.000176121
0.000162712
0.000162859
0.000146476
0.000172568
0.000162343
0.00018068
0.0001677
0.000163079
0.000147052
0.000187921
0.000147689
0.000814668
0.0484834
0.000224515
0.00014883
0.000170976
0.000148564
0.000174682
0.000151902
0.000151953