/*--------------------------------*- C++ -*----------------------------------*\
| =========                 |                                                 |
| \\      /  F ield         | OpenFOAM: The Open Source CFD Toolbox           |
|  \\    /   O peration     | Version:  v2012                                 |
|   \\  /    A nd           | Website:  www.openfoam.com                      |
|    \\/     M anipulation  |                                                 |
\*---------------------------------------------------------------------------*/
FoamFile
{
    version     2.0;
    format      ascii;
    class       volScalarField;
    location    "400";
    object      omega_0;
}
// * * * * * * * * * * * * * * * * * * * * * * * * * * * * * * * * * * * * * //

dimensions      [0 0 -1 0 0 0 0];


internalField   nonuniform List<scalar> 
13917
(
0.0400463
0.0221812
4.82914
0.023523
0.0221082
0.434525
4.51803
4.99309
5.64749
0.0652952
0.156328
0.0659089
0.0235962
12.2672
0.0261848
0.0250101
0.0222986
0.0533902
0.0646844
0.0221139
0.0222669
4.43552
0.0220937
4.98724
0.022013
4.26095
0.0411046
0.0534871
0.75648
0.101244
0.0427269
0.0279507
0.035834
0.0256071
0.0220286
0.700249
0.0221024
3.91859
0.0253146
6.33672
0.021909
0.0222858
0.0215843
0.0815347
0.0220747
0.0273055
0.0525838
0.0699109
2.80789
0.0220201
0.0268253
0.0223445
3.22249
0.0259789
0.0223121
0.0268235
0.154063
0.022035
0.0249806
0.022032
10.2309
0.0221837
24.004
0.0221025
0.403455
17.3381
0.0221037
0.0220454
0.171862
0.0364634
0.0221158
5.73878
4.39258
0.0220189
2.89525
0.0769316
5.81952
0.0227355
4.00665
0.022237
0.0222049
0.0221112
0.373487
3.90377
4.78863
0.0226356
0.0221805
15.41
0.0265531
0.021575
4.17687
0.0879725
0.0218828
0.0230006
16.0122
0.374495
0.119746
0.0644879
0.133746
0.105895
0.0218205
0.0323739
0.0817406
0.0231274
0.0218001
5.97562
0.451904
0.0737895
0.0223046
0.0456723
4.35347
5.58293
0.0845419
5.85099
0.0229605
3.26819
0.0220111
1.49264
5.17091
0.0259623
0.022274
0.165695
4.67523
0.0504634
0.021982
0.0228317
0.0220428
0.0219898
0.0216074
0.416051
3.69619
0.0228681
0.0220991
0.0222744
4.21727
4.95103
0.0406015
0.113434
0.0220967
0.0258862
0.286106
0.0217699
0.0225764
0.101842
0.0220453
5.88614
0.797284
0.022291
0.0217433
0.0285986
0.0560098
3.25358
0.0871691
0.0414623
0.0270329
6.42781
0.0349474
3.36862
7.99329
4.08486
0.024216
0.0417432
0.022237
0.114766
0.0828766
0.131384
0.0230973
0.0597147
0.0219107
0.0333165
0.0417694
6.79688
0.0919354
0.0226107
5.52796
0.0455193
3.69727
1.94292
5.81959
0.0219253
0.091807
0.0442942
0.0217636
0.0221716
0.02994
4.38837
0.350224
8.25476
0.0367356
0.122825
0.343395
5.2861
0.318159
0.022104
0.11851
0.0401821
0.0224984
0.021891
0.234993
7.51257
0.0261358
0.0220354
0.0553821
0.0553288
4.83278
1.99689
0.0220309
0.0220484
0.0630233
4.60243
0.0224785
4.53287
6.78313
0.123271
0.0218079
0.587409
0.0550995
6.22224
0.0219689
10.8963
0.0219195
0.0903639
0.0218984
3.96467
6.00983
0.0253424
2.10089
0.027371
0.0218116
0.678867
0.0900606
0.036304
4.88424
9.11638
0.0217758
0.0284563
4.12206
4.62859
0.0222291
0.0219517
5.08415
0.135961
0.0222668
0.221689
0.0963331
0.0401871
0.0372537
0.0222291
0.04522
7.47991
0.0219267
0.117756
0.141832
0.0220189
0.0220248
0.0690043
3.80599
0.0818968
0.0302855
0.0263554
0.0222713
6.02746
7.0423
0.201713
0.0218194
4.64393
7.1272
3.97051
3.93227
0.0821127
0.0222156
0.0219378
0.0528352
4.18307
0.119629
0.0246951
2.88448
0.0424633
0.0216004
8.52165
0.0220904
5.52555
0.0256711
0.022262
0.0273764
0.0411344
0.0420812
0.214594
0.0324493
0.0220324
0.324964
4.90508
6.99765
0.0219701
4.46954
0.0221728
0.022026
0.0220186
1.15888
0.0221059
0.0990334
0.0362858
0.0218906
0.055566
0.0231243
2.35355
0.0443229
0.0801849
0.0218038
0.0220158
4.4425
5.2402
0.0220055
0.021918
8.58107
0.0219064
4.24135
0.0217969
3.97623
0.0223718
0.492319
0.0334181
3.01582
0.0239195
2.05899
0.30847
0.0273744
0.135239
0.530631
0.022264
3.80011
0.119904
5.85536
0.0247893
6.65489
0.0291989
4.72171
0.246592
0.112463
0.109411
4.75444
0.0222172
0.0433871
4.32682
0.0221714
0.023465
6.39299
0.286522
0.022538
0.223291
0.690802
0.0218625
6.22062
0.324216
0.0220839
0.0218972
0.0221802
0.021738
0.33567
5.7185
0.68649
4.33677
0.0220168
0.132621
6.69296
0.042687
4.44603
4.02695
5.89696
0.0217693
0.204899
0.0218769
11.0309
0.0220298
3.76115
0.0962556
0.0245751
0.022199
0.0597861
0.1005
0.0726764
7.99704
4.49299
9.63863
0.0471349
0.0610844
0.0219595
4.77191
4.29925
0.0220536
0.946106
0.0220425
0.311174
0.0223695
0.0222272
0.0231648
3.68972
0.0231286
3.49992
5.86201
0.140455
0.470198
0.0222513
0.484453
0.423235
0.0220394
0.318235
0.0221556
0.0220286
0.10147
0.0222616
0.0220176
0.021873
0.349848
0.0222481
5.57884
4.02089
5.28932
0.317897
3.4556
6.19002
0.0420475
0.0220228
0.174382
0.0250999
0.0297698
0.0220965
5.79873
4.50807
4.03583
0.0249808
0.109362
0.0245637
0.0257729
0.0722719
0.0229312
0.235435
0.022293
0.0220969
4.16228
3.68423
3.69197
0.130326
6.33053
3.77867
4.30268
5.91566
0.0216372
0.0575935
0.0229903
0.0220781
0.900217
0.0535615
0.0218972
0.0622272
0.0398634
5.93947
0.0220353
0.116956
13.8009
0.775824
4.45086
0.0222554
0.0220604
0.0224609
0.0352089
0.0217717
4.36371
0.544836
0.0322816
5.32164
0.0267441
0.116863
4.42774
0.813002
0.136042
0.308626
0.116581
0.0607093
0.163695
0.0426621
0.154839
0.600115
0.048194
0.0820232
0.0218763
2.38958
0.027599
0.021661
0.0337209
0.0228419
5.47821
5.86538
0.0219014
0.0216181
4.541
8.78525
0.0222618
5.78972
0.0228086
0.231442
0.0219154
5.11112
2.88903
0.0285253
0.0223201
3.44321
0.266755
7.01483
0.0222694
6.6176
2.40976
8.79508
0.0216707
4.58778
6.34271
0.0427567
0.0218903
0.022289
0.0770961
0.34388
0.0218296
0.0219033
0.0219605
0.0219549
5.21928
0.973276
0.0421423
0.339249
0.021971
0.0218278
0.107063
5.18021
0.0334863
0.0219234
0.0220245
0.0220652
8.71304
5.81779
0.0221746
0.0220644
0.20411
0.0423792
0.0333804
0.0220536
0.0232412
0.0270012
0.0801753
0.42209
0.349102
0.178447
0.0981503
2.18656
0.0781398
0.0219799
6.24528
0.0220688
0.0237543
0.0242076
2.18767
0.0765012
0.0218339
0.776653
0.114401
11.8803
0.0991869
0.0354614
0.0419915
0.0221902
6.77125
0.538351
4.35813
0.0222092
0.0295592
0.339045
4.02148
24.4358
0.0676065
0.150958
0.0249457
0.0241416
0.0220561
0.0543457
0.0872504
0.0221633
0.0545768
0.135325
4.44633
6.31779
0.0240475
0.113288
1.9713
0.0285236
0.0223883
3.50195
6.38076
5.69162
0.303898
0.0216218
5.58253
0.075543
0.0218697
0.0316181
0.0751096
0.0344535
0.0993246
4.03572
0.159521
0.0377706
6.71423
0.0231399
7.47421
0.0222378
0.022168
4.54557
6.31688
0.635567
0.0231343
0.0225564
0.0220677
0.0431103
3.33606
0.12384
0.0243501
0.126642
0.0586838
0.02192
2.17701
0.120309
0.234466
0.0219518
0.154558
0.0228163
9.59805
0.0666957
0.0760883
0.0298895
0.0218835
0.0216799
0.0220779
0.120884
0.0276818
0.346209
7.02759
0.0589739
0.0218716
0.156173
0.658855
1.2624
0.0219044
0.0270869
0.0219111
0.0287872
0.0251461
6.16248
0.0222291
4.88119
0.0285361
0.15459
0.0889449
4.41233
0.0793233
0.0222419
4.41425
17.909
0.0220337
0.024125
2.90565
0.241133
0.11955
0.0222376
0.0223495
0.363239
0.0247135
0.0720356
0.0656644
0.0216809
0.0552453
4.86205
0.0218867
0.0229452
0.0219803
5.47602
0.0222658
0.0246298
6.14366
0.0233267
6.29575
0.0271163
0.0365271
0.0219729
0.0507116
0.0220269
0.059224
0.0218889
0.0866872
0.0228102
26.7905
3.02418
5.21025
0.022337
0.0222066
0.0739892
0.0486946
4.83409
5.51783
0.0528761
0.0220319
0.346562
0.651541
0.239054
0.299189
0.0506991
3.96542
0.0395063
0.0403905
0.150078
0.185213
0.0521275
1.11228
0.0515626
0.0234958
0.0799571
0.0274798
0.0217363
0.0285701
0.0455728
0.027929
0.0220338
0.0219313
0.0589705
0.0233108
0.0729365
0.0220343
0.0220571
0.0222734
0.023137
0.021538
0.0258484
0.0220003
5.29137
0.0646603
0.362544
0.0217957
0.0222474
0.0482627
0.061798
0.0226878
8.23632
0.0809088
11.235
0.028639
0.124776
0.0224154
0.022269
0.0219378
0.02314
7.904
0.0222552
4.69266
0.0261364
6.02915
0.0493603
0.0822296
0.15195
0.0216783
0.022291
0.065836
0.0220457
0.0223965
7.93183
0.0226951
0.0221806
0.0279255
0.0219453
0.021676
0.0279913
0.0285065
6.17472
0.0351908
0.0218854
0.0218829
4.04353
0.118935
0.0221928
0.0222128
8.16896
2.64983
8.72883
0.0355384
0.0235054
0.0217872
0.0216576
0.049086
0.0362601
0.233276
0.0251366
3.87999
0.0222957
0.0236235
9.43672
0.022049
0.0277278
0.0219908
0.022081
0.0441732
0.0425
0.0224746
6.24373
4.36618
0.0900843
0.0219761
0.0215922
0.119987
4.00815
0.0222612
1.53907
0.0215922
0.0429877
0.0217251
0.0217763
0.367873
0.0219806
3.1649
0.0401893
0.0222732
0.0216162
0.022067
0.0219131
0.0228607
4.14793
0.021852
0.0217642
5.19895
5.87544
0.0389931
0.0472626
0.0681862
0.0251115
0.021784
0.0281037
5.13817
0.0917882
0.022131
0.0222621
5.62224
0.0362862
4.42183
0.0222664
0.0227974
6.5132
0.0336949
0.0225515
8.01311
1.72129
0.0219098
0.134908
0.0219352
0.021957
0.021783
4.37722
0.0215309
0.0219037
0.0217783
3.37525
0.0246381
0.229268
0.063648
0.0217661
0.0328444
0.0221746
4.34394
0.0219671
0.0218691
0.0221817
0.124717
0.0221739
0.159324
5.83313
4.80812
0.0265633
0.390003
5.37302
0.0220114
6.96541
9.56171
4.85381
3.47875
5.09902
37.1074
0.145055
0.0223136
3.95626
0.0336323
4.21601
0.0216653
0.0218784
0.0221921
0.0221678
0.0259216
0.031039
4.60068
0.0218683
0.0220716
6.48679
0.300596
0.0220672
0.037636
0.0296821
0.0222002
2.80514
0.0381065
0.0237446
0.0245761
5.76382
7.86734
1.29661
0.0217095
0.269891
0.114064
4.62942
5.92882
0.0900205
0.021911
0.0224767
0.0222981
0.0214978
0.023227
0.02163
0.0271154
0.038432
5.57115
0.133488
0.0219184
0.121739
4.32835
0.0417969
0.022304
6.65445
0.0218739
0.0223174
0.0377003
6.53089
0.0221738
0.0219529
4.53828
0.208644
1.52354
0.107807
0.742241
0.0219282
0.177736
0.022333
0.0220009
0.0223296
4.3576
6.39782
0.021756
0.0216123
0.0220098
3.14059
0.0230029
0.0297399
0.0220462
0.0224209
0.171967
0.0217816
0.0604485
0.357069
3.6902
0.0219887
0.0842435
0.0242186
4.59416
4.28655
0.0220192
4.49918
0.0728876
1.43859
0.0221727
3.63723
0.0222454
0.0266396
0.0428832
0.107961
4.56212
0.281262
0.174972
6.46136
0.0218653
0.290212
0.0217659
0.0274642
4.53522
0.0220877
0.0222528
0.0227974
0.0221751
5.14481
0.0216737
0.0220846
0.0561556
0.0473933
0.0507104
0.59749
0.13242
7.71712
0.0656958
0.0354937
0.0394078
4.76478
0.04013
14.1961
4.18403
0.0253817
0.0217838
3.33087
0.240543
0.0222949
0.112105
0.0338981
0.0222978
0.0263213
0.0222181
0.0428952
0.0222921
0.0496841
0.108237
0.0218847
0.0615543
0.0218029
0.0597655
0.0218846
0.0260688
0.0588517
0.0234508
0.0220898
0.0217659
2.1067
0.0821353
6.18104
0.022015
0.0221301
0.060037
0.0219918
0.0928013
0.0823393
0.0222997
0.0967156
0.0217873
10.0386
0.0222594
0.0372933
5.57046
0.287062
0.0219353
0.0235953
6.81706
0.0220035
0.0219228
4.47703
4.23606
0.024227
0.164239
0.0221046
0.0220825
4.39742
0.0230116
0.0216886
0.249606
0.0218061
2.4533
0.0221986
0.0216918
0.0221923
0.134755
3.71907
0.0221201
0.0222629
0.0219291
0.0258653
0.022078
0.995505
0.0594642
0.0222689
5.71561
0.04956
0.288097
3.80514
3.62657
0.0217444
0.0222481
0.0220424
0.772155
0.0263449
3.76082
5.75932
0.0239075
4.43967
2.31978
0.0501739
0.146792
0.0701312
0.38264
4.59069
0.0634666
1.09479
3.93992
0.0646632
0.0251635
4.5761
0.0540692
0.0216772
0.0232827
13.4795
0.0382282
0.021895
0.0525722
0.102279
0.0386632
4.47778
0.0237303
6.47986
0.0395262
0.223536
0.127228
0.289662
0.0289766
0.0217792
0.0225703
4.81981
0.0219973
0.0240857
0.0218043
0.023255
0.0218712
0.0353483
0.152332
1.89659
0.0439202
0.05938
4.04583
0.365454
0.0218635
2.74483
4.25071
0.021728
0.0219139
0.0308297
6.75035
0.0222545
0.070295
0.630284
0.0481536
0.0220609
0.0230949
0.0218208
0.112404
0.0395909
0.0219915
31.1767
3.98353
0.0430932
1.8804
0.0655241
5.99501
0.0232631
0.0254059
4.30944
2.50505
0.0908883
1.77406
0.0283354
0.0222764
0.0219429
0.0221746
0.0220288
0.022621
0.0529813
0.0219435
0.125215
0.0219441
0.0284728
0.0217471
0.0816033
0.124052
0.841985
0.0219991
0.286663
0.0219414
4.40671
0.0220374
0.0256226
0.0221249
0.256283
4.72506
0.142245
0.0219375
0.133844
0.0220221
0.0298104
4.21547
0.0219314
0.0223489
0.0456266
0.0315868
4.44239
0.0219449
0.0297251
0.0230802
0.0220423
0.031995
0.0224645
0.0217501
0.0236433
6.53591
0.0244393
0.244995
5.73296
0.0521495
3.62718
0.0241917
0.0217563
0.0309514
8.43915
0.0232934
0.0365152
0.0423354
5.27838
0.0218991
5.74586
0.0630408
0.0710402
0.0217187
0.0216312
0.16899
0.0224154
0.022286
0.0335878
0.0216756
0.0243613
0.0285968
0.0708806
0.267655
4.44309
0.0250987
0.0747596
2.81586
7.55291
0.0376307
0.267229
6.61401
0.0396007
13.0283
0.0236564
20.6068
5.44494
0.021658
0.022262
0.0219576
0.0225645
0.0452346
0.0217483
0.0238896
0.0900367
0.0232738
0.0354319
4.32419
0.0301031
0.0241191
5.64708
0.0225573
5.70371
0.0242836
0.0548017
0.0218887
6.87539
6.03258
0.0220209
0.0226835
3.79866
0.0294367
6.78213
0.0220234
0.021804
4.44507
0.0226723
0.0443622
9.35944
0.0220661
0.0551883
0.0292302
0.021627
0.0219055
3.90969
5.60612
0.0221977
0.0234793
0.0220551
0.0265552
0.0364062
6.2245
0.0226576
2.55833
4.3842
0.219213
3.58157
0.0226215
0.122883
0.196894
0.0290032
0.0220619
0.0605514
4.14345
0.0233606
0.0464484
5.05318
3.64763
0.296691
0.0251875
0.0222571
0.0222463
0.0220684
7.4977
0.0553794
0.0237834
0.0227933
0.0243709
0.0222701
0.0219784
0.0220432
0.0734548
0.0379815
5.62852
0.046651
4.98357
3.41826
0.0304409
0.0511646
0.0218133
0.0285437
8.33721
0.0221263
0.0235519
0.0517877
0.11971
0.0562934
3.90285
0.227144
0.0218783
4.00228
0.0215946
0.0222459
0.0463805
0.0222736
0.0219212
0.172485
6.87648
0.0218122
4.26788
0.0221091
0.0217343
0.0234674
2.67483
0.0291909
0.0242542
12.6339
0.022919
0.233578
3.45836
0.0222462
0.0480191
0.0220119
5.93634
0.0715644
0.0220447
4.1935
0.0543315
0.0790458
0.0222786
6.55937
0.0292039
0.392863
0.0228853
0.0724122
6.93011
0.0217558
1.4722
0.0221114
0.0626608
0.0522352
0.0222453
4.55038
0.0235817
0.117336
0.0581005
0.096305
0.0405765
0.0433783
0.0225857
5.01467
0.0318583
7.0067
0.0298644
0.0647789
0.0219669
0.0441385
0.022048
0.0694026
4.69678
0.0227427
0.0218292
3.41446
0.0228108
3.07578
0.0224693
4.3726
0.250014
0.0353176
0.0219934
0.0219432
0.0221105
0.0216289
0.104578
0.0563815
0.0387542
0.0258129
0.0220839
2.6221
0.0235617
0.0340934
2.19724
0.0220355
13.1354
0.0516264
0.0297137
1.25514
4.403
0.338108
4.51329
9.51838
0.0218922
0.377865
4.98118
0.349054
0.022174
0.0222193
0.115822
4.12405
5.57629
0.669632
0.0222764
0.0512755
0.0402855
3.4653
4.91948
0.0423017
0.130001
0.0238974
0.0820095
0.0905585
0.0221658
0.106624
8.06844
0.0221313
3.55058
0.0222534
0.0219571
4.78325
4.06712
0.0218524
0.0223507
0.0224676
0.0218111
0.0489914
0.179408
0.0230625
0.021991
0.0220996
0.0403559
0.0278563
0.0275855
0.346671
0.0220282
4.13474
7.62783
4.35022
0.155419
0.0527289
1.19739
0.033519
3.90175
1.94733
9.96051
0.0224144
6.66202
3.50466
0.0217709
0.0220376
0.105751
4.47563
9.83016
0.021768
0.0220276
3.67343
5.30725
7.22681
0.0239912
0.0239188
1.8533
0.0221944
3.80799
7.14497
1.15031
2.82857
0.0220659
0.0219281
0.0218894
0.0261549
4.13957
0.0403045
0.0254504
0.0226303
0.0881137
7.14928
0.0403131
6.15995
5.36467
5.2672
2.16081
0.022052
0.0221728
4.38152
0.0216623
0.0216757
0.0230471
2.83361
0.0374744
9.23929
0.134518
0.0220283
5.35266
0.0396452
0.0218751
6.10377
0.170411
0.025076
0.0220908
5.0367
4.45108
0.0221807
7.46888
4.43423
6.17124
2.58001
0.0839319
0.0219319
0.0225542
1.93022
0.0255854
4.50534
0.0419431
3.76906
0.262287
0.0228918
0.0290378
0.0219282
0.0226971
4.67501
6.94036
0.0220685
4.89473
0.0430593
0.0220352
0.0248075
0.0219384
0.165044
0.0224457
2.31794
0.0519557
0.0219228
0.0218763
0.097686
8.26611
0.039217
0.0239952
0.0430731
0.0220427
0.0231242
0.0273413
8.79071
4.12766
4.46224
0.0217214
0.0218695
0.0223514
0.124099
0.0218789
0.0223976
0.173787
0.0591738
0.88301
0.0216457
4.42124
4.09785
0.0222843
8.87564
0.116751
0.0372209
2.04378
0.022299
5.08956
0.0295092
0.0230515
0.0238974
0.0216586
0.217484
0.0224823
0.0227483
0.030842
3.54167
3.66248
0.0222463
0.0220237
0.0235202
0.0219906
0.135948
0.0224338
0.0852518
0.0235292
4.20422
0.0226481
4.36061
0.0217228
5.49134
0.022402
0.0216424
6.88344
0.322151
0.110723
0.95639
0.0443097
0.0409281
0.0220453
5.18681
0.0220646
0.0218853
0.0879681
0.0643673
9.89347
4.47135
0.124794
6.98185
0.131867
0.974002
0.0219037
0.0249407
0.0279062
4.17241
0.0248461
4.26976
4.52047
0.0221789
0.0220695
0.022016
1.672
3.33941
0.0233508
0.0221108
0.0257571
0.0281638
0.0382276
0.389306
0.3302
0.0220653
0.628172
0.0861743
8.63335
0.0728502
0.0232795
0.0238999
5.18453
0.0218864
0.0903819
4.68224
0.0227247
0.0254255
0.178883
0.135581
0.0227624
6.40719
0.024388
0.288648
0.0404144
0.0303668
0.0227266
4.39055
0.0218632
0.0987984
1.45167
4.8199
0.0501089
0.0676829
0.0255955
0.0478708
0.0222659
5.02068
0.0266829
0.0219785
0.0299439
0.0220931
0.0222693
2.93406
0.0220692
0.0221794
0.0220484
0.132454
0.0222503
0.0332229
0.0734157
0.242411
0.119229
0.0222537
0.246151
0.484553
0.230316
0.0861585
0.0273388
0.159916
4.81023
0.682155
0.0222845
7.7126
4.28052
0.0222839
0.0241391
0.0216485
0.753633
0.10814
0.0220393
1.2892
4.21174
0.0218144
0.022217
3.83465
4.20048
0.0658495
0.0216617
11.3306
3.31321
3.25827
0.0220299
4.18792
0.0831108
0.0714256
4.40064
0.0261916
0.0216604
0.0301489
0.195559
0.0321049
4.07283
4.48902
0.0218235
6.5156
0.528575
4.57245
0.0217204
0.0509106
0.0222932
0.0219286
4.23444
3.30179
0.284844
3.93311
0.0293305
0.0509909
0.022228
4.66771
5.94538
0.0220491
0.0222572
0.0318317
0.021805
0.0513743
4.59308
7.49109
0.0515611
0.022474
0.0221386
4.22358
0.0250163
0.0532717
0.0218026
0.0229872
0.761176
3.66976
0.398054
2.93227
0.0221714
0.306227
0.0223287
0.0480359
9.76705
6.85131
0.0220741
0.0222939
0.035681
0.0257233
0.0221938
4.49606
4.19077
0.0217837
0.0215206
0.0221913
0.0219712
2.69597
0.0217341
3.97383
0.104558
0.064138
0.02186
0.0482193
4.62683
0.0337566
0.459937
5.8182
0.0222507
7.24248
0.0331483
0.0355568
0.370101
7.26337
4.63953
0.0606846
0.0219022
0.262367
0.0217447
0.025291
0.0222127
3.96774
0.0317958
2.80035
0.250452
0.0490247
0.0221252
0.305431
0.0269309
0.0222704
0.268102
0.021602
0.038015
0.0343399
0.0221762
9.831
0.0233847
0.591167
0.0228312
0.0219409
5.53914
3.77651
0.0241192
0.0325881
0.0393497
0.0584411
0.0591377
0.0262375
0.0259436
0.025233
0.224823
0.0250444
4.07964
0.0600959
0.229999
0.118382
0.0226449
4.65319
0.021613
4.63938
0.0242234
4.33844
6.16795
9.18219
7.78082
0.313731
0.0774708
0.0220092
4.41689
0.0865052
0.0220442
7.93089
5.6665
0.0232809
0.0237617
0.030916
0.030921
0.0324852
5.30611
0.022284
0.0298337
0.035241
0.0322993
0.0221652
0.0862514
0.0216137
4.18511
0.0236641
0.136482
0.0320435
0.040015
0.126888
3.78509
0.0881196
0.021839
0.252214
4.41918
22.3968
0.0223863
4.20259
0.0290433
1.80181
0.0220647
0.024538
3.94091
0.0522203
5.05105
7.40727
0.0334496
4.93795
0.0219753
0.021603
8.9395
0.0591319
0.0244525
5.37862
0.0270214
0.0458331
0.0294293
0.0722652
0.0221691
5.76073
5.27317
7.09008
0.287379
0.0255483
0.0577053
5.02406
0.0240552
0.0223102
0.0838054
0.0216975
0.299911
7.71108
6.42674
5.31781
0.0561832
0.0224526
4.22915
0.0216
0.074947
0.0222357
23.7455
0.0238084
0.0476574
3.7988
0.120885
0.022029
0.0322308
8.76474
0.0220765
0.147252
0.021794
9.57044
4.28197
0.115678
0.0815902
0.0219547
0.214705
0.139339
0.0397772
0.0217991
0.0224868
0.0221473
0.0552157
0.0221244
0.0871946
0.0221245
0.021802
6.44976
0.0218682
0.0269165
0.0250938
0.0222749
3.72554
0.0218641
0.0340017
4.09062
0.0489362
3.98202
0.0220649
4.48236
0.0515136
5.16314
0.0235839
0.128114
0.0221673
0.0413899
0.124734
0.114034
0.265599
4.16416
0.224534
1.98384
0.0269801
0.112688
0.0420178
0.910424
0.0250752
0.0221146
0.022034
0.0523509
0.0466549
2.79846
0.0541163
4.70963
6.87087
0.102592
0.0220088
4.72677
0.203348
0.0224752
0.0240737
0.022077
4.91289
0.0220364
8.29382
0.0218557
0.0270933
4.94181
0.0795632
0.0220459
0.0220283
7.9726
0.0218754
0.024066
0.0252669
0.0326643
0.0277691
0.0221662
0.153937
0.0814716
0.0441149
0.339194
4.42915
3.71468
6.24086
0.0217379
0.0219923
0.103595
0.0224634
0.0470963
4.15255
3.83499
0.0216581
0.0220457
3.44528
0.473066
0.0216742
0.0218407
0.026599
12.9872
4.15594
0.0266248
0.0342286
0.0222006
0.379819
0.127299
0.142401
0.0317661
0.0445218
0.0224169
0.0385654
0.312868
0.022771
0.0221538
0.0264217
4.67049
0.0252133
7.32613
0.0221087
3.90212
0.0366874
0.0280911
0.0217815
0.0219304
0.842986
7.88928
0.0580297
4.27302
9.62203
0.0225325
4.07633
0.144111
0.0219029
4.6728
0.268036
0.115928
0.0222539
3.55581
4.51853
0.0219559
0.0398636
4.31587
0.0453905
0.0220542
0.0217946
0.022404
0.0239306
0.0833356
0.293111
0.077652
0.079245
0.0217274
0.0221955
4.65273
0.0218455
0.0488915
0.0265577
0.0221297
0.051042
0.0220284
0.0237317
0.341447
0.0220025
4.50786
0.0220242
15.6986
3.77571
0.0955584
0.0222454
0.0222928
4.22631
0.0216469
0.0242221
0.0223407
0.352163
1.31122
0.0340002
3.76866
0.041988
1.56498
0.0225406
0.0702049
0.0217968
0.022141
5.07776
3.8047
1.48944
0.0238064
0.0701583
0.0701818
4.77616
4.13742
0.323053
0.0396779
0.021595
4.19375
0.0219125
0.0219727
0.297132
0.115022
0.0283016
0.202335
0.0475418
0.0316975
0.0277872
5.13571
0.02441
0.0219965
6.80464
0.0480553
0.021718
3.50928
0.0220352
0.0221132
0.164567
0.157214
12.0669
0.0217349
0.0247997
0.0219204
2.2257
0.0218698
0.538163
4.22855
3.68627
3.48901
33.4287
0.0302305
4.51868
0.866573
0.0222107
0.0307098
0.0438786
0.0304021
1.22605
4.21008
4.44089
3.64802
2.43659
0.022157
0.106994
0.0220425
4.85508
0.0287869
0.0231595
0.0241425
0.0227118
0.0218845
0.107551
4.43988
0.0217253
0.0236799
0.0218681
4.64654
0.0235264
5.49731
3.89487
1.39522
0.0220957
0.0218909
4.51275
0.362373
0.0221404
0.312791
0.0222288
0.146245
0.189843
0.0965488
0.0520988
10.7474
0.0218016
0.0217982
0.230366
3.37905
0.0295531
0.0473883
0.0219405
8.66937
0.022016
0.0219564
0.0231787
0.0219998
5.13859
4.1084
1.77835
0.0605629
4.2374
0.581396
0.0216635
0.0312817
0.0217014
1.26715
0.0219965
0.0248667
0.0220026
0.0219255
0.0217825
2.81972
0.0228189
1.71249
0.0215988
0.0325719
0.0229623
1.55685
0.0220495
0.0317587
0.035307
0.070822
6.77218
0.0219218
4.28499
0.0700579
0.0460454
0.0219962
0.0219541
3.56216
16.1433
0.0220124
0.021889
0.270965
0.241006
0.0384789
4.04784
0.0227595
0.42098
0.031468
0.0217096
5.47187
0.0230173
4.0392
0.0220316
0.0227043
0.0221221
4.32862
3.66367
0.0216784
0.246313
0.242709
0.0220617
0.0218699
0.0219068
0.260683
4.08205
0.0657473
0.0242709
0.0400417
0.0220334
0.0220538
0.0237252
0.0220078
0.188687
0.0220663
0.0642287
0.657976
0.0364251
0.0216221
3.97085
0.0752552
0.0220422
0.0826816
0.0307749
1.5297
0.0245235
10.1625
0.0577935
0.0219962
0.0891679
0.0881472
0.0247124
5.90353
0.0605208
0.0298369
2.03192
0.0219431
0.156522
0.0888358
0.130931
0.0219453
0.0219793
0.0216435
0.0328869
0.056301
0.0550954
6.48415
4.64018
3.93513
0.0222669
1.88958
3.84826
4.29456
0.022004
0.0220286
0.0544481
4.28925
0.0241789
0.0355406
32.6742
5.13343
17.1447
0.115029
0.170749
3.42893
0.406564
0.0216134
12.4176
0.283836
0.0223327
0.02235
0.0228207
4.67912
0.0993772
5.30475
0.0240178
8.8226
0.0221357
1.51155
3.87508
0.0222136
0.0343728
4.29029
4.71655
0.056357
0.0228812
0.0237316
0.0223875
0.235972
0.123827
2.94662
4.19979
0.0217524
5.31235
0.173717
0.754439
0.0220311
0.0221657
2.026
0.26016
0.0219641
0.0507378
0.0734103
0.0392499
4.13983
4.7024
4.65703
4.16867
0.025524
0.0216663
0.066396
4.55349
10.2348
0.021948
0.281335
0.0910821
0.44668
0.0224736
0.0222566
1.2137
4.31039
7.14362
1.67556
4.25231
0.0219635
0.26789
4.15457
0.0222393
0.06264
0.109238
0.0216877
0.165599
4.9888
0.245162
0.0222556
5.30099
0.119963
27.2039
0.021511
0.023666
0.0221641
0.0231436
0.0221299
0.0547219
0.0406433
0.0426515
0.330565
0.0340266
4.27966
0.0253179
0.0289708
0.0282143
9.10443
0.0579054
4.99643
0.0282578
0.027875
19.2187
0.0972283
0.0220732
0.0425624
4.24974
5.35198
0.313471
0.0219789
0.0219137
0.0219383
1.26533
0.0231711
2.48295
1.32507
0.260725
0.0321874
0.270003
5.59083
0.0221305
7.32868
0.0337344
0.0510918
0.0219466
0.0219175
0.0541471
4.3471
0.0220811
4.954
0.537355
0.100017
0.195792
0.0218781
0.0220264
0.0301225
0.0229199
25.2689
24.6046
0.0856993
0.847952
0.0219653
0.0220946
0.0221818
0.0222458
7.5264
0.0232346
4.53486
0.0873376
0.0225023
0.369807
2.97321
3.52105
8.6119
0.023575
0.0217799
0.0221313
0.0235001
0.73833
0.245482
5.81289
0.022156
0.0224282
0.163325
0.0222602
0.208747
0.0236923
0.153033
0.174285
0.0415511
0.0401313
0.0217302
0.0478895
0.0385078
0.214753
0.0809035
0.0428212
0.0218724
0.252977
0.0218912
3.42042
3.76378
0.933129
0.0220776
0.109881
0.0220233
0.0499628
0.0230001
0.022707
0.0282233
8.95648
4.171
0.0796794
0.0478341
0.236062
0.0794947
4.05632
4.27379
0.031107
4.23175
0.368746
0.0218544
0.0565331
4.30594
0.0965418
0.0222365
0.0547728
2.25199
0.481319
8.66817
0.0221534
0.938489
0.0220981
0.0219352
0.0426572
0.297684
0.0222639
4.26753
5.13598
0.209336
11.0892
0.379311
4.74814
0.332601
0.0217288
0.0248495
0.0216533
0.0428959
0.301614
0.455134
0.0243828
0.042103
0.0216396
4.36031
0.0390513
0.0482415
4.20042
0.0994148
6.66481
4.70862
0.021973
6.78895
0.0221176
0.0283604
0.0473448
3.98928
0.155796
0.0278568
0.0232206
0.573983
0.0347442
4.41499
5.84991
0.0320408
3.30855
0.0458596
0.022273
1.16361
0.0636274
0.023
9.08741
15.0506
0.0301484
0.0260497
0.133374
5.98884
0.0219619
0.0222268
0.021674
0.0217631
0.0223341
4.81
0.0316445
3.99323
0.0219585
0.0219446
0.863779
0.0221995
0.02384
0.0220591
0.0220346
2.14988
0.0217642
4.75112
0.0220057
0.023104
0.0417693
0.0221772
0.144834
0.0217767
0.0222652
0.0217939
0.0278796
0.0898227
0.0245474
3.77149
0.0219384
0.0436196
0.0299604
4.25685
0.0227604
0.0222689
0.0217084
0.0216901
0.401242
0.0219097
0.0219019
0.0246619
2.2496
0.0219377
0.0431379
0.0327945
0.0220217
4.88583
6.62237
0.261352
4.95239
0.0248993
0.11304
0.0221549
0.0994176
0.34684
0.0223206
2.1176
0.132695
4.60421
0.0308347
0.0220338
1.59129
0.0437385
0.826374
5.16421
0.0215855
0.0219885
7.516
3.29588
0.0605221
0.0572524
0.0230709
10.4054
5.74639
0.021515
0.0219691
0.0221156
0.0221742
0.0222484
0.022038
0.0355598
4.29609
0.0311454
0.0221957
0.416826
0.0219899
0.854496
0.0469935
0.0220927
0.0276685
0.0219197
0.379295
0.0249081
0.0497357
0.0219659
0.0222718
4.53143
4.91702
0.0221775
0.0524151
0.0445718
0.0311474
0.0239239
0.0222713
0.0227837
1.68774
0.578633
0.0406819
4.89667
0.022507
24.0507
0.107555
0.0259651
17.6541
0.0230696
4.42101
5.36796
3.499
4.19313
4.15581
3.84177
0.0216523
0.0273774
0.0247334
0.0216414
0.0217448
0.029424
0.0767564
0.0217845
0.0294684
0.124711
0.0766803
0.318702
0.213766
0.0339284
1.88192
9.54701
0.0339518
0.0248956
0.13106
8.62071
3.93211
0.025559
0.021628
0.0218735
0.0217843
0.032101
3.87768
0.38217
0.0217513
4.6904
0.0219831
0.140918
4.2075
0.082043
0.199252
0.0891215
0.333771
0.0228299
0.0333094
0.0218688
0.241244
0.0219702
0.0230044
0.0335467
0.155244
0.0221776
0.0244741
5.56859
0.0218239
0.022051
0.0290417
5.64093
0.11848
0.53493
0.0384943
0.0221501
3.40206
0.0372365
0.0233309
0.0220231
0.0308265
0.0267099
0.0220333
0.0280227
4.54412
0.0235802
0.0216566
0.0472167
0.0218861
0.0316939
0.0301778
0.0220681
0.0219989
4.68345
0.02172
0.0220339
0.0216602
0.0257707
0.0214819
4.91398
0.025956
0.220653
0.0219626
0.0219096
0.0220689
4.357
0.0657213
0.022042
0.0216162
5.56606
0.025057
0.0681201
0.0218627
0.153239
0.0233805
0.0215608
4.17032
0.0217693
0.0222625
0.0221476
0.0219974
0.0241511
0.0221271
0.0220369
1.63981
1.51839
4.64298
0.209692
8.28313
0.0218618
4.63209
0.0219689
4.14797
7.85168
0.0218025
10.2353
0.0219808
4.20697
11.5646
0.262695
4.17885
4.03177
0.849051
1.69101
6.03412
5.25944
0.043625
0.0429485
4.69976
0.0234983
0.0216657
1.73063
0.0239085
0.0282417
11.8522
0.0229772
0.484967
3.7422
6.3941
0.389545
0.119703
0.022252
0.0282742
0.048319
0.0222789
6.91502
0.369536
0.108389
0.0219127
0.0220698
7.97265
0.0216987
0.752613
0.0218533
9.04742
4.48144
0.0337081
0.0261684
0.0220029
10.1789
4.0932
0.0254376
0.0338737
0.0222858
0.0222855
0.0590603
0.0231733
0.032071
0.0674377
0.0242655
0.0332017
0.0220408
0.0321652
15.0061
0.0225327
10.7401
0.0219633
3.39033
0.0544829
0.0220397
10.0178
0.127966
0.0218549
0.156149
0.0220388
0.357339
0.0222004
0.0220124
3.93731
0.0221468
0.108645
0.0234076
0.140876
0.0218511
0.0223364
0.0218634
0.0301112
0.0242426
0.0222958
0.0225999
0.0253491
0.0224501
0.125742
0.0650547
0.0298647
0.0233612
0.0216374
2.34644
8.65511
0.0227746
0.0225315
0.0226504
0.0379612
0.0222217
0.0352924
0.0215722
0.0222853
0.2362
0.0233395
0.0222846
0.0219074
4.82804
10.8101
0.0216
0.0721826
0.0586875
0.244051
0.22713
6.77343
4.37125
0.677162
0.022955
0.139788
0.0219298
0.0313557
7.05517
4.47286
0.135963
0.023931
15.2044
0.0220426
0.0470217
0.414096
0.0222275
0.137887
0.0234645
0.0232584
0.0760531
0.148444
3.93797
3.44386
0.0218413
0.0216024
4.80677
3.8506
0.0222376
0.0291048
0.123773
0.022058
0.0220168
0.0241144
1.47547
0.0217769
4.33954
0.0295787
0.0222319
0.213494
0.0746596
0.069177
0.118338
4.96863
0.0244214
0.0350767
0.0272724
0.0237622
9.52721
0.0320253
4.20855
4.20195
0.0673679
4.236
0.0466287
0.0482077
0.354524
0.02173
4.33429
0.0910011
0.0337792
0.0291554
0.0221785
0.0216685
4.16569
0.0435537
4.32309
4.29089
0.0221161
4.30913
0.0218395
0.0219598
0.0287555
11.2132
0.0758909
0.0216904
4.07151
0.0219953
0.0238047
4.04372
0.0236863
3.52517
0.0222728
4.43699
3.99469
0.0693018
2.7803
0.0233798
3.5279
0.0216296
5.36115
4.79275
4.4384
5.0709
0.021947
0.0218305
0.248566
3.82958
3.53859
3.86939
3.81593
0.022144
4.92949
3.51422
0.0224125
5.08058
0.031583
0.0332644
12.1097
0.0383601
4.46924
0.0219471
0.0380202
0.0349835
0.211905
6.20284
0.0370108
3.6349
4.49119
0.0221725
0.0246142
0.0238001
0.0248824
3.55175
0.0220156
0.0217652
0.0395043
3.84569
4.06569
0.0283202
3.92088
4.29439
0.0219652
8.44136
4.76595
0.180203
4.03984
0.067581
0.0243889
0.0221732
0.161352
0.0265046
0.0824858
9.86453
4.5633
0.0290795
0.0744659
0.0257908
0.0393472
0.0216558
0.0423608
0.0247034
0.092833
4.64577
7.08536
3.86198
0.0216692
0.132887
0.0641245
4.27136
0.0232329
4.68795
4.76498
4.31279
0.0221503
0.174177
4.60217
10.7471
7.31188
0.0366698
5.51849
4.20463
0.0639596
0.0695741
0.0241369
0.0293351
4.75538
0.0454443
0.0221869
3.37842
0.0220537
0.0222968
0.124936
0.12516
0.0218313
0.0915905
0.0247231
3.82042
10.7824